/*--------------------------------*- C++ -*----------------------------------*\
| =========                 |                                                 |
| \\      /  F ield         | OpenFOAM: The Open Source CFD Toolbox           |
|  \\    /   O peration     | Version:  2406                                  |
|   \\  /    A nd           | Website:  www.openfoam.com                      |
|    \\/     M anipulation  |                                                 |
\*---------------------------------------------------------------------------*/
FoamFile
{
    version     2.0;
    format      ascii;
    arch        "LSB;label=32;scalar=64";
    class       volVectorField;
    location    "10.55";
    object      U;
}
// * * * * * * * * * * * * * * * * * * * * * * * * * * * * * * * * * * * * * //

dimensions      [0 1 -1 0 0 0 0];

internalField   nonuniform List<vector> 
14400
(
(5.01711e-06 -4.93456e-06 0)
(1.29026e-05 -3.3053e-06 0)
(1.05016e-05 1.17172e-06 0)
(-6.92353e-06 6.56606e-06 0)
(-3.88114e-05 1.08226e-05 0)
(-8.23209e-05 1.42982e-05 0)
(-0.000135477 1.66529e-05 0)
(-0.000195169 1.83609e-05 0)
(-0.000259965 1.93922e-05 0)
(-0.000327761 2.00578e-05 0)
(-0.000397776 2.03794e-05 0)
(-0.000468829 2.05378e-05 0)
(-0.000540603 2.05539e-05 0)
(-0.00061254 2.05257e-05 0)
(-0.000684595 2.04634e-05 0)
(-0.000756571 2.04155e-05 0)
(-0.000828552 2.0383e-05 0)
(-0.000900522 2.03867e-05 0)
(-0.000972606 2.04221e-05 0)
(-0.00104486 2.04954e-05 0)
(-0.0011174 2.06001e-05 0)
(-0.00119029 2.07354e-05 0)
(-0.00126362 2.08942e-05 0)
(-0.00133745 2.1073e-05 0)
(-0.00141182 2.1265e-05 0)
(-0.00148676 2.14657e-05 0)
(-0.00156229 2.16688e-05 0)
(-0.00163838 2.18692e-05 0)
(-0.00171502 2.20612e-05 0)
(-0.00179216 2.22394e-05 0)
(-0.00186974 2.2398e-05 0)
(-0.00194767 2.25315e-05 0)
(-0.00202587 2.26341e-05 0)
(-0.00210419 2.26999e-05 0)
(-0.00218252 2.27231e-05 0)
(-0.00226068 2.26975e-05 0)
(-0.00233849 2.2617e-05 0)
(-0.00241577 2.24755e-05 0)
(-0.00249228 2.22669e-05 0)
(-0.00256778 2.19851e-05 0)
(-0.00264203 2.16241e-05 0)
(-0.00271473 2.11783e-05 0)
(-0.0027856 2.0642e-05 0)
(-0.00285432 2.00103e-05 0)
(-0.00292056 1.92782e-05 0)
(-0.00298398 1.84417e-05 0)
(-0.00304423 1.7497e-05 0)
(-0.00310095 1.64413e-05 0)
(-0.00315377 1.52723e-05 0)
(-0.00320231 1.39889e-05 0)
(-0.00324619 1.25907e-05 0)
(-0.00328505 1.10784e-05 0)
(-0.00331852 9.45383e-06 0)
(-0.00334625 7.72016e-06 0)
(-0.00336789 5.88171e-06 0)
(-0.00338311 3.94416e-06 0)
(-0.00339162 1.91455e-06 0)
(-0.00339314 -1.98649e-07 0)
(-0.00338742 -2.38557e-06 0)
(-0.00337426 -4.63496e-06 0)
(-0.0033535 -6.93417e-06 0)
(-0.003325 -9.26927e-06 0)
(-0.00328869 -1.16251e-05 0)
(-0.00324455 -1.39854e-05 0)
(-0.00319259 -1.63331e-05 0)
(-0.00313292 -1.865e-05 0)
(-0.00306568 -2.09177e-05 0)
(-0.00299106 -2.31173e-05 0)
(-0.00290933 -2.52299e-05 0)
(-0.00282082 -2.72368e-05 0)
(-0.00272591 -2.91196e-05 0)
(-0.00262503 -3.08611e-05 0)
(-0.00251868 -3.24449e-05 0)
(-0.0024074 -3.38562e-05 0)
(-0.00229176 -3.50817e-05 0)
(-0.0021724 -3.61103e-05 0)
(-0.00204995 -3.69329e-05 0)
(-0.00192511 -3.75429e-05 0)
(-0.00179855 -3.79361e-05 0)
(-0.001671 -3.81109e-05 0)
(-0.00154314 -3.80683e-05 0)
(-0.00141567 -3.78119e-05 0)
(-0.00128929 -3.73478e-05 0)
(-0.00116463 -3.66843e-05 0)
(-0.00104235 -3.58319e-05 0)
(-0.000923026 -3.48031e-05 0)
(-0.000807219 -3.36115e-05 0)
(-0.000695436 -3.22724e-05 0)
(-0.000588141 -3.08018e-05 0)
(-0.000485743 -2.92162e-05 0)
(-0.000388601 -2.75324e-05 0)
(-0.000297023 -2.57669e-05 0)
(-0.000211265 -2.39358e-05 0)
(-0.000131532 -2.20545e-05 0)
(-5.79862e-05 -2.01372e-05 0)
(9.25786e-06 -1.81973e-05 0)
(7.01208e-05 -1.62461e-05 0)
(0.000124564 -1.42944e-05 0)
(0.000172572 -1.23505e-05 0)
(0.000214168 -1.04224e-05 0)
(0.000249378 -8.51504e-06 0)
(0.000278273 -6.63436e-06 0)
(0.000300904 -4.78188e-06 0)
(0.00031738 -2.9631e-06 0)
(0.000327759 -1.17616e-06 0)
(0.000332195 5.71177e-07 0)
(0.000330739 2.2842e-06 0)
(0.000323618 3.94752e-06 0)
(0.000310872 5.57006e-06 0)
(0.000292879 7.11775e-06 0)
(0.00026967 8.60287e-06 0)
(0.000241946 9.94785e-06 0)
(0.000209776 1.11641e-05 0)
(0.000174535 1.20702e-05 0)
(0.000136495 1.26554e-05 0)
(9.83962e-05 1.24807e-05 0)
(6.11703e-05 1.14663e-05 0)
(3.0041e-05 8.64879e-06 0)
(7.08838e-06 4.3974e-06 0)
(-1.22238e-06 -1.21341e-06 0)
(3.56453e-06 -1.30244e-05 0)
(-1.28261e-06 1.46422e-06 0)
(-3.32629e-05 2.70034e-05 0)
(-9.7284e-05 5.66071e-05 0)
(-0.000194128 8.21183e-05 0)
(-0.000318385 0.000103818 0)
(-0.000466507 0.000120132 0)
(-0.000632114 0.000132505 0)
(-0.000811712 0.000141019 0)
(-0.00100061 0.000146904 0)
(-0.00119646 0.000150549 0)
(-0.00139645 0.000152785 0)
(-0.00159934 0.000153943 0)
(-0.00180369 0.000154518 0)
(-0.00200902 0.000154715 0)
(-0.00221475 0.000154798 0)
(-0.00242084 0.000154864 0)
(-0.00262716 0.000155032 0)
(-0.00283385 0.000155328 0)
(-0.00304099 0.000155789 0)
(-0.00324877 0.000156404 0)
(-0.00345729 0.000157168 0)
(-0.00366672 0.000158052 0)
(-0.00387713 0.000159031 0)
(-0.00408861 0.000160069 0)
(-0.00430117 0.000161134 0)
(-0.0045148 0.000162188 0)
(-0.00472945 0.000163195 0)
(-0.004945 0.000164116 0)
(-0.00516129 0.000164916 0)
(-0.00537814 0.000165553 0)
(-0.00559528 0.000165989 0)
(-0.00581241 0.000166185 0)
(-0.00602919 0.0001661 0)
(-0.00624521 0.000165693 0)
(-0.00646001 0.000164923 0)
(-0.00667309 0.000163749 0)
(-0.0068839 0.000162129 0)
(-0.00709183 0.000160023 0)
(-0.00729622 0.000157392 0)
(-0.00749637 0.000154196 0)
(-0.00769154 0.000150399 0)
(-0.00788093 0.000145968 0)
(-0.00806372 0.00014087 0)
(-0.00823905 0.000135077 0)
(-0.00840603 0.000128565 0)
(-0.00856374 0.000121314 0)
(-0.00871125 0.00011331 0)
(-0.00884762 0.000104544 0)
(-0.00897191 9.50127e-05 0)
(-0.00908318 8.4721e-05 0)
(-0.00918051 7.36798e-05 0)
(-0.00926301 6.19081e-05 0)
(-0.0093298 4.94329e-05 0)
(-0.00938007 3.62896e-05 0)
(-0.00941305 2.25222e-05 0)
(-0.00942803 8.18336e-06 0)
(-0.0094244 -6.66539e-06 0)
(-0.00940161 -2.19539e-05 0)
(-0.00935921 -3.76036e-05 0)
(-0.00929686 -5.35277e-05 0)
(-0.00921432 -6.96319e-05 0)
(-0.0091115 -8.5815e-05 0)
(-0.0089884 -0.00010197 0)
(-0.00884518 -0.000117983 0)
(-0.00868213 -0.00013374 0)
(-0.00849969 -0.00014912 0)
(-0.00829842 -0.000164004 0)
(-0.00807906 -0.000178271 0)
(-0.00784246 -0.000191805 0)
(-0.00758961 -0.000204492 0)
(-0.00732165 -0.000216224 0)
(-0.00703982 -0.000226899 0)
(-0.00674547 -0.000236428 0)
(-0.00644009 -0.000244728 0)
(-0.00612519 -0.000251733 0)
(-0.00580242 -0.000257386 0)
(-0.00547344 -0.000261647 0)
(-0.00513995 -0.000264492 0)
(-0.0048037 -0.000265911 0)
(-0.00446641 -0.000265909 0)
(-0.00412979 -0.000264509 0)
(-0.00379553 -0.000261748 0)
(-0.00346526 -0.000257676 0)
(-0.00314053 -0.000252357 0)
(-0.00282283 -0.000245866 0)
(-0.00251354 -0.000238286 0)
(-0.00221396 -0.000229712 0)
(-0.00192526 -0.000220239 0)
(-0.00164849 -0.00020997 0)
(-0.0013846 -0.000199007 0)
(-0.0011344 -0.000187453 0)
(-0.000898596 -0.000175407 0)
(-0.000677771 -0.000162965 0)
(-0.000472402 -0.000150216 0)
(-0.000282861 -0.000137245 0)
(-0.00010943 -0.000124125 0)
(4.76984e-05 -0.000110923 0)
(0.000188399 -9.76973e-05 0)
(0.000312626 -8.4498e-05 0)
(0.000420368 -7.13648e-05 0)
(0.000511693 -5.83354e-05 0)
(0.000586667 -4.54351e-05 0)
(0.000645456 -3.2696e-05 0)
(0.000688178 -2.01361e-05 0)
(0.000715114 -7.79671e-06 0)
(0.000726428 4.30009e-06 0)
(0.000722589 1.60763e-05 0)
(0.00070384 2.7485e-05 0)
(0.000671017 3.8358e-05 0)
(0.00062454 4.85844e-05 0)
(0.000565985 5.77965e-05 0)
(0.000496158 6.57463e-05 0)
(0.00041809 7.16425e-05 0)
(0.000333365 7.49821e-05 0)
(0.000247678 7.41261e-05 0)
(0.000163837 6.83226e-05 0)
(9.16028e-05 5.4721e-05 0)
(3.42645e-05 3.43481e-05 0)
(4.34579e-06 7.06115e-06 0)
(-1.02603e-06 -1.06554e-05 0)
(-2.82164e-05 3.4032e-05 0)
(-0.00010117 9.84871e-05 0)
(-0.000218998 0.000169846 0)
(-0.000383809 0.000233262 0)
(-0.000587107 0.000287786 0)
(-0.000824969 0.000330379 0)
(-0.0010886 0.000363244 0)
(-0.00137342 0.000386872 0)
(-0.00167288 0.000403636 0)
(-0.0019836 0.000414709 0)
(-0.00230149 0.000421868 0)
(-0.00262458 0.000426104 0)
(-0.00295069 0.000428545 0)
(-0.0032789 0.000429824 0)
(-0.00360824 0.000430568 0)
(-0.00393847 0.000431106 0)
(-0.00426929 0.000431728 0)
(-0.00460076 0.000432559 0)
(-0.00493289 0.000433693 0)
(-0.00526584 0.000435134 0)
(-0.00559973 0.000436871 0)
(-0.00593467 0.000438848 0)
(-0.00627074 0.000441003 0)
(-0.00660799 0.000443253 0)
(-0.00694638 0.000445514 0)
(-0.00728584 0.000447692 0)
(-0.00762622 0.000449694 0)
(-0.00796731 0.000451419 0)
(-0.00830882 0.00045277 0)
(-0.0086504 0.000453644 0)
(-0.00899162 0.000453939 0)
(-0.00933198 0.000453549 0)
(-0.0096709 0.000452368 0)
(-0.0100077 0.000450291 0)
(-0.0103417 0.00044721 0)
(-0.0106721 0.000443019 0)
(-0.010998 0.000437612 0)
(-0.0113184 0.000430885 0)
(-0.0116323 0.000422739 0)
(-0.0119387 0.000413076 0)
(-0.0122364 0.000401807 0)
(-0.0125241 0.000388847 0)
(-0.0128008 0.000374122 0)
(-0.0130649 0.000357566 0)
(-0.0133153 0.000339124 0)
(-0.0135505 0.000318754 0)
(-0.0137693 0.000296429 0)
(-0.0139701 0.000272135 0)
(-0.0141517 0.000245877 0)
(-0.0143127 0.000217676 0)
(-0.0144518 0.000187574 0)
(-0.0145677 0.000155632 0)
(-0.0146592 0.000121929 0)
(-0.0147252 8.65696e-05 0)
(-0.0147647 4.96764e-05 0)
(-0.0147766 1.1395e-05 0)
(-0.0147602 -2.81077e-05 0)
(-0.0147148 -6.8644e-05 0)
(-0.0146399 -0.000110006 0)
(-0.014535 -0.000151966 0)
(-0.0143999 -0.00019428 0)
(-0.0142346 -0.000236687 0)
(-0.0140392 -0.000278914 0)
(-0.013814 -0.000320675 0)
(-0.0135596 -0.000361677 0)
(-0.0132767 -0.000401622 0)
(-0.0129661 -0.000440211 0)
(-0.0126291 -0.000477146 0)
(-0.0122669 -0.000512139 0)
(-0.0118811 -0.00054491 0)
(-0.0114732 -0.000575194 0)
(-0.0110452 -0.000602747 0)
(-0.0105991 -0.000627346 0)
(-0.0101369 -0.000648797 0)
(-0.00966091 -0.000666933 0)
(-0.00917345 -0.000681624 0)
(-0.00867694 -0.000692773 0)
(-0.00817382 -0.000700321 0)
(-0.00766656 -0.000704245 0)
(-0.00715765 -0.000704563 0)
(-0.00664953 -0.00070133 0)
(-0.00614461 -0.000694634 0)
(-0.00564521 -0.000684601 0)
(-0.00515358 -0.000671385 0)
(-0.00467185 -0.00065517 0)
(-0.00420201 -0.000636161 0)
(-0.00374592 -0.000614583 0)
(-0.00330531 -0.000590676 0)
(-0.00288171 -0.000564685 0)
(-0.00247653 -0.000536864 0)
(-0.00209098 -0.000507462 0)
(-0.00172613 -0.000476725 0)
(-0.00138288 -0.000444887 0)
(-0.00106199 -0.000412171 0)
(-0.000764066 -0.000378782 0)
(-0.000489607 -0.000344905 0)
(-0.000238971 -0.000310709 0)
(-1.24281e-05 -0.000276339 0)
(0.000189862 -0.000241922 0)
(0.000367796 -0.000207564 0)
(0.000521375 -0.000173363 0)
(0.000650617 -0.000139395 0)
(0.000755669 -0.000105744 0)
(0.000836647 -7.24829e-05 0)
(0.000893873 -3.97182e-05 0)
(0.000927574 -7.55661e-06 0)
(0.000938361 2.38085e-05 0)
(0.000926646 5.41675e-05 0)
(0.000893585 8.31204e-05 0)
(0.000839943 0.000110232 0)
(0.000767928 0.000134673 0)
(0.000678963 0.000155572 0)
(0.000577216 0.000171272 0)
(0.000465189 0.000180191 0)
(0.000350449 0.000179275 0)
(0.000236782 0.00016634 0)
(0.000136912 0.000137007 0)
(5.45579e-05 9.16885e-05 0)
(8.53764e-06 2.99003e-05 0)
(-6.91846e-06 7.87268e-06 0)
(-6.15683e-05 0.000101756 0)
(-0.000181971 0.000218768 0)
(-0.000357895 0.000342151 0)
(-0.000592373 0.000452419 0)
(-0.000873084 0.00054752 0)
(-0.00119644 0.000623263 0)
(-0.00155158 0.000682482 0)
(-0.0019336 0.000726143 0)
(-0.00233453 0.00075777 0)
(-0.00275044 0.000779427 0)
(-0.00317625 0.000793942 0)
(-0.0036095 0.000803088 0)
(-0.00404733 0.000808743 0)
(-0.00448851 0.000812078 0)
(-0.00493166 0.000814171 0)
(-0.00537631 0.000815656 0)
(-0.00582196 0.000817057 0)
(-0.00626853 0.000818634 0)
(-0.00671592 0.00082057 0)
(-0.00716421 0.000822901 0)
(-0.00761342 0.000825621 0)
(-0.00806362 0.000828647 0)
(-0.00851481 0.000831878 0)
(-0.00896696 0.000835174 0)
(-0.00941995 0.00083839 0)
(-0.00987362 0.000841361 0)
(-0.0103277 0.000843919 0)
(-0.0107818 0.000845889 0)
(-0.0112356 0.000847092 0)
(-0.0116885 0.000847344 0)
(-0.0121399 0.000846461 0)
(-0.0125891 0.000844252 0)
(-0.0130353 0.00084053 0)
(-0.0134776 0.000835102 0)
(-0.013915 0.000827778 0)
(-0.0143465 0.000818369 0)
(-0.0147708 0.000806689 0)
(-0.0151867 0.000792558 0)
(-0.0155929 0.000775802 0)
(-0.0159879 0.000756256 0)
(-0.0163703 0.000733767 0)
(-0.0167386 0.000708195 0)
(-0.017091 0.000679419 0)
(-0.0174261 0.000647334 0)
(-0.017742 0.000611858 0)
(-0.0180372 0.000572931 0)
(-0.0183098 0.000530521 0)
(-0.0185583 0.000484624 0)
(-0.018781 0.000435267 0)
(-0.0189761 0.000382506 0)
(-0.0191422 0.000326434 0)
(-0.0192778 0.000267179 0)
(-0.0193813 0.000204902 0)
(-0.0194516 0.000139805 0)
(-0.0194875 7.21218e-05 0)
(-0.0194879 2.12664e-06 0)
(-0.0194518 -6.9872e-05 0)
(-0.0193787 -0.000143531 0)
(-0.0192678 -0.000218472 0)
(-0.019119 -0.00029429 0)
(-0.0189321 -0.000370548 0)
(-0.0187071 -0.000446787 0)
(-0.0184444 -0.000522524 0)
(-0.0181444 -0.000597262 0)
(-0.017808 -0.000670493 0)
(-0.0174362 -0.000741703 0)
(-0.0170301 -0.000810376 0)
(-0.0165914 -0.000876006 0)
(-0.0161216 -0.000938098 0)
(-0.0156227 -0.00099618 0)
(-0.0150969 -0.0010498 0)
(-0.0145463 -0.00109855 0)
(-0.0139736 -0.00114206 0)
(-0.0133812 -0.00118 0)
(-0.012772 -0.00121209 0)
(-0.0121489 -0.00123812 0)
(-0.0115147 -0.00125792 0)
(-0.0108725 -0.00127141 0)
(-0.0102252 -0.00127855 0)
(-0.0095759 -0.00127937 0)
(-0.00892755 -0.00127397 0)
(-0.00828307 -0.0012625 0)
(-0.00764528 -0.00124518 0)
(-0.0070169 -0.00122227 0)
(-0.00640052 -0.00119408 0)
(-0.00579858 -0.00116097 0)
(-0.00521336 -0.00112331 0)
(-0.00464695 -0.00108151 0)
(-0.00410127 -0.00103599 0)
(-0.00357805 -0.000987184 0)
(-0.00307881 -0.000935511 0)
(-0.0026049 -0.00088139 0)
(-0.00215748 -0.000825224 0)
(-0.00173754 -0.00076739 0)
(-0.00134588 -0.00070824 0)
(-0.000983174 -0.000648093 0)
(-0.000649956 -0.000587238 0)
(-0.000346632 -0.000525927 0)
(-7.34865e-05 -0.000464381 0)
(0.000169267 -0.000402791 0)
(0.000381541 -0.000341328 0)
(0.000563275 -0.000280142 0)
(0.000714566 -0.000219388 0)
(0.000835491 -0.000159218 0)
(0.000926375 -9.98354e-05 0)
(0.000987467 -4.14729e-05 0)
(0.00101947 1.55076e-05 0)
(0.00102291 7.06666e-05 0)
(0.000999198 0.000123288 0)
(0.000949345 0.00017251 0)
(0.000876043 0.000216926 0)
(0.000781139 0.00025491 0)
(0.000669607 0.000283839 0)
(0.000544462 0.000300923 0)
(0.000414486 0.000301725 0)
(0.000283799 0.000282426 0)
(0.000167117 0.000237132 0)
(6.83486e-05 0.000164111 0)
(1.13107e-05 6.08528e-05 0)
(-1.22738e-05 4.35035e-05 0)
(-9.41654e-05 0.000208742 0)
(-0.000262891 0.000394527 0)
(-0.000497679 0.000581967 0)
(-0.000801909 0.000748996 0)
(-0.0011586 0.000892784 0)
(-0.00156448 0.00100859 0)
(-0.00200651 0.0010999 0)
(-0.0024798 0.00116837 0)
(-0.00297516 0.00121871 0)
(-0.00348843 0.00125403 0)
(-0.00401375 0.00127829 0)
(-0.00454838 0.00129418 0)
(-0.00508896 0.00130442 0)
(-0.00563397 0.00131081 0)
(-0.00618173 0.00131497 0)
(-0.00673156 0.0013179 0)
(-0.00728274 0.0013204 0)
(-0.00783507 0.00132292 0)
(-0.00838827 0.00132574 0)
(-0.00894234 0.00132895 0)
(-0.00949717 0.00133257 0)
(-0.0100527 0.00133647 0)
(-0.0106089 0.00134052 0)
(-0.0111656 0.00134452 0)
(-0.0117226 0.00134823 0)
(-0.0122795 0.00135143 0)
(-0.012836 0.00135384 0)
(-0.0133916 0.0013552 0)
(-0.0139457 0.00135523 0)
(-0.0144976 0.00135365 0)
(-0.0150465 0.00135018 0)
(-0.0155914 0.00134451 0)
(-0.0161315 0.00133637 0)
(-0.0166655 0.00132545 0)
(-0.0171922 0.00131146 0)
(-0.0177103 0.00129413 0)
(-0.0182183 0.00127316 0)
(-0.0187148 0.00124829 0)
(-0.019198 0.00121926 0)
(-0.0196664 0.00118583 0)
(-0.0201181 0.00114778 0)
(-0.0205513 0.00110491 0)
(-0.020964 0.00105705 0)
(-0.0213545 0.00100406 0)
(-0.0217208 0.000945839 0)
(-0.0220608 0.000882322 0)
(-0.0223728 0.000813483 0)
(-0.0226547 0.000739343 0)
(-0.0229047 0.00065997 0)
(-0.023121 0.000575481 0)
(-0.0233018 0.000486045 0)
(-0.0234456 0.000391882 0)
(-0.0235508 0.00029327 0)
(-0.023616 0.000190537 0)
(-0.0236401 8.40663e-05 0)
(-0.0236219 -2.5705e-05 0)
(-0.0235607 -0.000138289 0)
(-0.0234556 -0.000253148 0)
(-0.0233064 -0.000369698 0)
(-0.0231127 -0.000487313 0)
(-0.0228745 -0.000605326 0)
(-0.0225922 -0.000723039 0)
(-0.0222661 -0.000839726 0)
(-0.0218972 -0.000954639 0)
(-0.0214863 -0.00106702 0)
(-0.0210348 -0.0011761 0)
(-0.0205442 -0.00128113 0)
(-0.0200163 -0.00138134 0)
(-0.0194531 -0.00147602 0)
(-0.0188568 -0.00156447 0)
(-0.01823 -0.00164603 0)
(-0.0175754 -0.00172012 0)
(-0.0168957 -0.00178618 0)
(-0.016194 -0.00184374 0)
(-0.0154734 -0.00189241 0)
(-0.0147372 -0.00193188 0)
(-0.0139888 -0.00196192 0)
(-0.0132314 -0.00198239 0)
(-0.0124686 -0.00199327 0)
(-0.0117036 -0.0019946 0)
(-0.0109399 -0.00198653 0)
(-0.0101808 -0.0019693 0)
(-0.00942935 -0.00194322 0)
(-0.00868869 -0.00190869 0)
(-0.00796174 -0.00186616 0)
(-0.00725124 -0.00181616 0)
(-0.00655976 -0.00175926 0)
(-0.00588968 -0.00169604 0)
(-0.00524317 -0.00162713 0)
(-0.00462218 -0.00155316 0)
(-0.00402848 -0.00147476 0)
(-0.0034636 -0.00139255 0)
(-0.0029289 -0.00130712 0)
(-0.00242551 -0.00121903 0)
(-0.00195442 -0.00112879 0)
(-0.00151644 -0.00103689 0)
(-0.00111221 -0.000943747 0)
(-0.000742259 -0.000849737 0)
(-0.000406982 -0.000755195 0)
(-0.000106686 -0.000660408 0)
(0.000158457 -0.00056564 0)
(0.000388312 -0.000471127 0)
(0.000582917 -0.000377116 0)
(0.000742302 -0.000283863 0)
(0.000866777 -0.000191698 0)
(0.000956586 -0.000101019 0)
(0.00101249 -1.24035e-05 0)
(0.00103507 7.34125e-05 0)
(0.00102591 0.000155327 0)
(0.000986188 0.000231947 0)
(0.000918909 0.000301203 0)
(0.000826171 0.000360575 0)
(0.000713479 0.000406397 0)
(0.000584116 0.000434501 0)
(0.00044768 0.000439032 0)
(0.000308503 0.000414233 0)
(0.000182833 0.000352528 0)
(7.50157e-05 0.000249024 0)
(1.23675e-05 9.80603e-05 0)
(-1.73519e-05 9.51079e-05 0)
(-0.000125954 0.000353437 0)
(-0.000342348 0.00062285 0)
(-0.000635189 0.000884173 0)
(-0.00100777 0.001115 0)
(-0.00143807 0.00131261 0)
(-0.00192304 0.00147262 0)
(-0.00244739 0.00159937 0)
(-0.00300638 0.00169551 0)
(-0.00358972 0.00176697 0)
(-0.00419324 0.00181799 0)
(-0.00481044 0.00185369 0)
(-0.00543845 0.0018777 0)
(-0.00607348 0.00189361 0)
(-0.00671388 0.0019039 0)
(-0.00735766 0.00191073 0)
(-0.008004 0.00191552 0)
(-0.00865195 0.00191936 0)
(-0.00930119 0.0019229 0)
(-0.00995127 0.00192655 0)
(-0.0106021 0.00193047 0)
(-0.0112533 0.00193467 0)
(-0.0119049 0.00193903 0)
(-0.0125566 0.00194336 0)
(-0.0132081 0.00194738 0)
(-0.013859 0.00195081 0)
(-0.014509 0.00195329 0)
(-0.0151575 0.00195447 0)
(-0.0158038 0.00195399 0)
(-0.0164472 0.00195145 0)
(-0.0170868 0.00194646 0)
(-0.0177215 0.00193862 0)
(-0.0183504 0.00192753 0)
(-0.0189722 0.00191278 0)
(-0.0195855 0.00189398 0)
(-0.0201888 0.00187071 0)
(-0.0207806 0.00184258 0)
(-0.0213593 0.00180923 0)
(-0.021923 0.00177028 0)
(-0.0224699 0.00172539 0)
(-0.022998 0.00167426 0)
(-0.0235054 0.00161658 0)
(-0.02399 0.00155211 0)
(-0.0244496 0.00148065 0)
(-0.0248822 0.00140204 0)
(-0.0252856 0.00131615 0)
(-0.0256578 0.00122295 0)
(-0.0259965 0.00112241 0)
(-0.0262997 0.00101463 0)
(-0.0265656 0.000899721 0)
(-0.0267921 0.000777889 0)
(-0.0269774 0.000649405 0)
(-0.02712 0.000514612 0)
(-0.0272182 0.000373923 0)
(-0.0272708 0.000227825 0)
(-0.0272765 7.68758e-05 0)
(-0.0272343 -7.82992e-05 0)
(-0.0271434 -0.000237007 0)
(-0.0270034 -0.000398491 0)
(-0.0268138 -0.000561936 0)
(-0.0265746 -0.000726475 0)
(-0.026286 -0.000891192 0)
(-0.0259485 -0.00105513 0)
(-0.0255626 -0.0012173 0)
(-0.0251295 -0.0013767 0)
(-0.0246504 -0.00153229 0)
(-0.0241267 -0.00168305 0)
(-0.0235604 -0.00182795 0)
(-0.0229534 -0.00196601 0)
(-0.0223081 -0.00209625 0)
(-0.021627 -0.00221776 0)
(-0.0209129 -0.00232966 0)
(-0.0201688 -0.00243117 0)
(-0.0193978 -0.00252158 0)
(-0.0186032 -0.00260027 0)
(-0.0177884 -0.00266671 0)
(-0.0169571 -0.00272052 0)
(-0.0161129 -0.00276139 0)
(-0.0152594 -0.00278917 0)
(-0.0144004 -0.00280382 0)
(-0.0135395 -0.00280541 0)
(-0.0126804 -0.00279416 0)
(-0.0118266 -0.00277038 0)
(-0.0109815 -0.00273452 0)
(-0.0101485 -0.00268709 0)
(-0.00933069 -0.00262873 0)
(-0.00853109 -0.00256014 0)
(-0.00775245 -0.00248207 0)
(-0.00699734 -0.00239532 0)
(-0.00626811 -0.00230074 0)
(-0.00556689 -0.00219917 0)
(-0.00489556 -0.00209145 0)
(-0.00425582 -0.00197841 0)
(-0.00364913 -0.00186084 0)
(-0.00307674 -0.0017395 0)
(-0.00253973 -0.00161508 0)
(-0.002039 -0.00148821 0)
(-0.00157528 -0.00135947 0)
(-0.00114919 -0.00122937 0)
(-0.000761166 -0.00109835 0)
(-0.0004116 -0.000966801 0)
(-0.000100717 -0.000835092 0)
(0.00017129 -0.000703553 0)
(0.000404417 -0.000572532 0)
(0.000598655 -0.000442405 0)
(0.000754299 -0.000313646 0)
(0.000871585 -0.000186844 0)
(0.000951305 -6.28226e-05 0)
(0.000994093 5.73478e-05 0)
(0.00100162 0.000172139 0)
(0.000975176 0.000279584 0)
(0.000917975 0.000376913 0)
(0.000832257 0.000460672 0)
(0.00072386 0.000526138 0)
(0.00059621 0.000567729 0)
(0.000459418 0.000578136 0)
(0.000317987 0.0005495 0)
(0.000189123 0.000472239 0)
(7.76728e-05 0.000337747 0)
(1.27107e-05 0.000136671 0)
(-2.1806e-05 0.000162151 0)
(-0.000155241 0.000535577 0)
(-0.000416901 0.000904324 0)
(-0.000765435 0.00125044 0)
(-0.0012038 0.00155289 0)
(-0.00170481 0.00180995 0)
(-0.00226537 0.00201841 0)
(-0.00286786 0.00218387 0)
(-0.00350766 0.00231032 0)
(-0.00417338 0.00240503 0)
(-0.00486094 0.00247351 0)
(-0.00556327 0.00252205 0)
(-0.00627751 0.00255534 0)
(-0.00699953 0.00257781 0)
(-0.00772761 0.00259269 0)
(-0.00845949 0.00260268 0)
(-0.00919427 0.00260964 0)
(-0.00993081 0.00261497 0)
(-0.0106686 0.00261954 0)
(-0.0114072 0.00262389 0)
(-0.0121462 0.00262823 0)
(-0.0128852 0.00263262 0)
(-0.013624 0.0026369 0)
(-0.0143622 0.00264084 0)
(-0.0150994 0.00264409 0)
(-0.0158351 0.00264627 0)
(-0.0165687 0.00264695 0)
(-0.0172995 0.00264565 0)
(-0.0180266 0.00264189 0)
(-0.0187492 0.00263517 0)
(-0.0194662 0.00262498 0)
(-0.0201764 0.00261078 0)
(-0.0208785 0.00259207 0)
(-0.0215711 0.0025683 0)
(-0.0222525 0.00253895 0)
(-0.0229213 0.00250352 0)
(-0.0235755 0.0024615 0)
(-0.0242133 0.00241241 0)
(-0.0248327 0.00235579 0)
(-0.0254316 0.00229122 0)
(-0.026008 0.00221832 0)
(-0.0265595 0.00213674 0)
(-0.027084 0.00204619 0)
(-0.0275792 0.00194643 0)
(-0.0280428 0.0018373 0)
(-0.0284725 0.0017187 0)
(-0.0288661 0.00159058 0)
(-0.0292215 0.00145301 0)
(-0.0295364 0.00130613 0)
(-0.0298089 0.00115014 0)
(-0.030037 0.000985352 0)
(-0.0302189 0.000812173 0)
(-0.030353 0.000631086 0)
(-0.0304379 0.000442671 0)
(-0.0304721 0.000247595 0)
(-0.0304546 4.66138e-05 0)
(-0.0303845 -0.000159432 0)
(-0.0302612 -0.000369624 0)
(-0.0300843 -0.000582964 0)
(-0.0298535 -0.000798388 0)
(-0.029569 -0.00101477 0)
(-0.0292312 -0.00123092 0)
(-0.0288406 -0.00144561 0)
(-0.0283983 -0.00165758 0)
(-0.0279053 -0.00186554 0)
(-0.0273632 -0.00206819 0)
(-0.0267738 -0.00226421 0)
(-0.026139 -0.00245234 0)
(-0.0254611 -0.0026313 0)
(-0.0247427 -0.00279989 0)
(-0.0239867 -0.00295694 0)
(-0.0231958 -0.00310139 0)
(-0.0223735 -0.00323223 0)
(-0.0215231 -0.00334859 0)
(-0.0206482 -0.0034497 0)
(-0.0197524 -0.00353492 0)
(-0.0188396 -0.00360376 0)
(-0.0179137 -0.00365587 0)
(-0.0169785 -0.00369104 0)
(-0.0160381 -0.00370926 0)
(-0.0150962 -0.00371063 0)
(-0.0141569 -0.00369543 0)
(-0.0132237 -0.00366408 0)
(-0.0123005 -0.00361715 0)
(-0.0113906 -0.00355531 0)
(-0.0104975 -0.00347937 0)
(-0.00962418 -0.00339023 0)
(-0.00877367 -0.00328885 0)
(-0.00794864 -0.00317625 0)
(-0.00715156 -0.00305352 0)
(-0.00638465 -0.00292172 0)
(-0.00564991 -0.00278193 0)
(-0.00494909 -0.0026352 0)
(-0.00428372 -0.00248255 0)
(-0.00365512 -0.00232491 0)
(-0.0030644 -0.00216318 0)
(-0.00251251 -0.00199817 0)
(-0.0020002 -0.0018306 0)
(-0.00152812 -0.0016611 0)
(-0.00109675 -0.00149026 0)
(-0.000706494 -0.00131857 0)
(-0.000357597 -0.0011465 0)
(-5.02751e-05 -0.000974474 0)
(0.00021545 -0.000802959 0)
(0.000439553 -0.000632458 0)
(0.000622326 -0.000463603 0)
(0.000764004 -0.000297192 0)
(0.000865402 -0.000134317 0)
(0.000927175 2.35891e-05 0)
(0.000951066 0.00017454 0)
(0.000938406 0.000315957 0)
(0.000892544 0.000444333 0)
(0.000815791 0.000555242 0)
(0.00071418 0.000642855 0)
(0.000591241 0.000700126 0)
(0.000457402 0.000718194 0)
(0.00031737 0.000686993 0)
(0.000188931 0.000594681 0)
(7.73901e-05 0.000428887 0)
(1.24782e-05 0.000176278 0)
(-2.59448e-05 0.000242882 0)
(-0.000182706 0.000751918 0)
(-0.000487082 0.00123461 0)
(-0.000888492 0.00167544 0)
(-0.00138942 0.0020562 0)
(-0.00195763 0.00237711 0)
(-0.00258986 0.00263706 0)
(-0.00326609 0.00284336 0)
(-0.00398177 0.00300171 0)
(-0.00472446 0.0031209 0)
(-0.00549019 0.00320787 0)
(-0.0062714 0.00327011 0)
(-0.00706526 0.00331336 0)
(-0.00786738 0.00334298 0)
(-0.008676 0.00336286 0)
(-0.00948869 0.00337632 0)
(-0.0103044 0.0033856 0)
(-0.011122 0.00339244 0)
(-0.0119407 0.00339791 0)
(-0.0127599 0.00340268 0)
(-0.0135791 0.00340705 0)
(-0.0143979 0.00341107 0)
(-0.0152158 0.00341458 0)
(-0.0160322 0.00341729 0)
(-0.0168467 0.00341877 0)
(-0.0176586 0.00341857 0)
(-0.0184671 0.00341613 0)
(-0.0192713 0.00341088 0)
(-0.0200703 0.00340222 0)
(-0.020863 0.00338951 0)
(-0.0216481 0.00337211 0)
(-0.0224243 0.00334939 0)
(-0.0231901 0.00332067 0)
(-0.0239438 0.00328532 0)
(-0.0246837 0.00324269 0)
(-0.025408 0.00319214 0)
(-0.0261147 0.00313308 0)
(-0.0268017 0.00306493 0)
(-0.0274668 0.00298713 0)
(-0.0281078 0.0028992 0)
(-0.0287225 0.00280068 0)
(-0.0293084 0.00269119 0)
(-0.0298632 0.0025704 0)
(-0.0303845 0.00243808 0)
(-0.0308699 0.00229406 0)
(-0.031317 0.00213827 0)
(-0.0317236 0.00197072 0)
(-0.0320875 0.00179155 0)
(-0.0324064 0.00160097 0)
(-0.0326783 0.00139932 0)
(-0.0329014 0.00118702 0)
(-0.0330739 0.000964634 0)
(-0.0331942 0.00073281 0)
(-0.0332609 0.000492314 0)
(-0.0332729 0.000244014 0)
(-0.033229 -1.11204e-05 0)
(-0.0331287 -0.000272019 0)
(-0.0329713 -0.000537522 0)
(-0.0327566 -0.00080638 0)
(-0.0324847 -0.00107727 0)
(-0.0321557 -0.00134879 0)
(-0.0317702 -0.00161949 0)
(-0.0313292 -0.00188786 0)
(-0.0308335 -0.00215235 0)
(-0.0302847 -0.0024114 0)
(-0.0296844 -0.00266342 0)
(-0.0290345 -0.00290684 0)
(-0.0283374 -0.00314009 0)
(-0.0275953 -0.00336167 0)
(-0.0268112 -0.0035701 0)
(-0.0259879 -0.00376401 0)
(-0.0251288 -0.00394209 0)
(-0.0242371 -0.00410315 0)
(-0.0233166 -0.00424615 0)
(-0.022371 -0.00437015 0)
(-0.0214042 -0.00447442 0)
(-0.0204202 -0.00455835 0)
(-0.0194232 -0.00462155 0)
(-0.0184172 -0.00466379 0)
(-0.0174064 -0.00468505 0)
(-0.0163949 -0.00468549 0)
(-0.0153869 -0.00466546 0)
(-0.0143861 -0.00462548 0)
(-0.0133965 -0.00456626 0)
(-0.0124217 -0.00448865 0)
(-0.0114652 -0.00439364 0)
(-0.0105302 -0.00428233 0)
(-0.00961992 -0.00415592 0)
(-0.00873702 -0.00401567 0)
(-0.00788407 -0.0038629 0)
(-0.00706339 -0.00369892 0)
(-0.00627699 -0.00352507 0)
(-0.00552668 -0.00334262 0)
(-0.004814 -0.00315281 0)
(-0.00414028 -0.00295681 0)
(-0.00350662 -0.00275568 0)
(-0.00291395 -0.00255043 0)
(-0.00236302 -0.00234192 0)
(-0.00185444 -0.00213093 0)
(-0.00138869 -0.00191817 0)
(-0.000966123 -0.00170423 0)
(-0.000586985 -0.00148968 0)
(-0.000251466 -0.00127507 0)
(4.04319e-05 -0.00106095 0)
(0.000288699 -0.000847958 0)
(0.000493648 -0.000636896 0)
(0.000655527 -0.000428773 0)
(0.000775181 -0.000224959 0)
(0.000853285 -2.72574e-05 0)
(0.00089163 0.000161876 0)
(0.000891575 0.000339244 0)
(0.000856544 0.000500587 0)
(0.00078889 0.000640503 0)
(0.000694753 0.000752036 0)
(0.00057774 0.000826667 0)
(0.000448444 0.000853896 0)
(0.000311762 0.000821421 0)
(0.000185709 0.000714942 0)
(7.59628e-05 0.000518473 0)
(1.21305e-05 0.000214795 0)
(-2.96632e-05 0.000336714 0)
(-0.00020793 0.00100106 0)
(-0.000552091 0.00161208 0)
(-0.0010031 0.00215773 0)
(-0.00156295 0.00262378 0)
(-0.00219456 0.00301324 0)
(-0.00289436 0.00332783 0)
(-0.00363997 0.00357709 0)
(-0.00442684 0.00376883 0)
(-0.00524146 0.00391357 0)
(-0.00607995 0.00401983 0)
(-0.00693429 0.00409638 0)
(-0.00780174 0.0041501 0)
(-0.00867765 0.00418721 0)
(-0.00956029 0.00421237 0)
(-0.0104471 0.00422941 0)
(-0.0113369 0.00424104 0)
(-0.0122284 0.00424929 0)
(-0.0131209 0.00425543 0)
(-0.0140135 0.00426027 0)
(-0.0149056 0.00426417 0)
(-0.0157967 0.00426719 0)
(-0.0166861 0.00426914 0)
(-0.0175732 0.00426969 0)
(-0.0184573 0.00426833 0)
(-0.0193375 0.00426451 0)
(-0.020213 0.00425756 0)
(-0.0210827 0.0042468 0)
(-0.0219455 0.00423149 0)
(-0.0228001 0.00421088 0)
(-0.023645 0.0041842 0)
(-0.0244789 0.00415067 0)
(-0.0252999 0.0041095 0)
(-0.0261063 0.00405992 0)
(-0.0268962 0.00400117 0)
(-0.0276675 0.0039325 0)
(-0.0284181 0.0038532 0)
(-0.0291458 0.00376261 0)
(-0.0298483 0.0036601 0)
(-0.0305232 0.0035451 0)
(-0.031168 0.00341712 0)
(-0.0317803 0.00327574 0)
(-0.0323576 0.00312064 0)
(-0.0328975 0.00295156 0)
(-0.0333975 0.00276838 0)
(-0.0338551 0.00257107 0)
(-0.0342682 0.00235973 0)
(-0.0346344 0.00213457 0)
(-0.0349517 0.00189591 0)
(-0.035218 0.00164422 0)
(-0.0354314 0.00138009 0)
(-0.0355904 0.00110424 0)
(-0.0356934 0.000817502 0)
(-0.0357392 0.000520844 0)
(-0.0357266 0.000215351 0)
(-0.0356548 -9.77789e-05 0)
(-0.0355232 -0.000417236 0)
(-0.0353314 -0.000741609 0)
(-0.0350794 -0.00106939 0)
(-0.0347673 -0.00139899 0)
(-0.0343955 -0.00172874 0)
(-0.0339647 -0.0020569 0)
(-0.0334758 -0.00238169 0)
(-0.0329303 -0.00270127 0)
(-0.0323295 -0.0030138 0)
(-0.0316754 -0.00331741 0)
(-0.03097 -0.00361025 0)
(-0.0302157 -0.00389049 0)
(-0.0294151 -0.00415635 0)
(-0.0285711 -0.00440611 0)
(-0.0276869 -0.00463815 0)
(-0.0267659 -0.00485095 0)
(-0.0258117 -0.00504312 0)
(-0.024828 -0.00521342 0)
(-0.0238188 -0.00536078 0)
(-0.0227883 -0.00548432 0)
(-0.0217406 -0.00558337 0)
(-0.02068 -0.00565745 0)
(-0.0196109 -0.00570632 0)
(-0.0185377 -0.00572997 0)
(-0.0174646 -0.0057286 0)
(-0.0163959 -0.00570264 0)
(-0.0153357 -0.00565276 0)
(-0.0142881 -0.00557978 0)
(-0.0132569 -0.00548476 0)
(-0.0122458 -0.00536888 0)
(-0.011258 -0.00523347 0)
(-0.0102968 -0.00507999 0)
(-0.00936512 -0.00490995 0)
(-0.00846549 -0.00472493 0)
(-0.00760028 -0.00452653 0)
(-0.00677154 -0.00431632 0)
(-0.00598106 -0.00409584 0)
(-0.00523037 -0.00386659 0)
(-0.00452075 -0.00362993 0)
(-0.00385328 -0.00338716 0)
(-0.00322881 -0.00313945 0)
(-0.00264803 -0.00288783 0)
(-0.00211148 -0.00263323 0)