/*--------------------------------*- C++ -*----------------------------------*\
| =========                 |                                                 |
| \\      /  F ield         | OpenFOAM: The Open Source CFD Toolbox           |
|  \\    /   O peration     | Version:  2406                                  |
|   \\  /    A nd           | Website:  www.openfoam.com                      |
|    \\/     M anipulation  |                                                 |
\*---------------------------------------------------------------------------*/
FoamFile
{
    version     2.0;
    format      ascii;
    arch        "LSB;label=32;scalar=64";
    class       volVectorField;
    location    "42.45";
    object      Uold;
}
// * * * * * * * * * * * * * * * * * * * * * * * * * * * * * * * * * * * * * //

dimensions      [0 1 -1 0 0 0 0];

internalField   nonuniform List<vector> 
14400
(
(-1.88298e-05 1.8789e-05 0)
(-5.50794e-06 -9.69496e-06 0)
(0.000100631 -4.17957e-05 0)
(0.000287844 -7.07773e-05 0)
(0.00054482 -8.83466e-05 0)
(0.000838036 -9.82858e-05 0)
(0.00115155 -9.95081e-05 0)
(0.00145838 -9.50763e-05 0)
(0.00174685 -8.55362e-05 0)
(0.00200111 -7.33141e-05 0)
(0.00221681 -5.94976e-05 0)
(0.00238903 -4.58788e-05 0)
(0.00252054 -3.33532e-05 0)
(0.0026143 -2.29127e-05 0)
(0.00267738 -1.4891e-05 0)
(0.0027163 -9.49242e-06 0)
(0.00273866 -6.4724e-06 0)
(0.00275047 -5.44879e-06 0)
(0.0027568 -5.7967e-06 0)
(0.00276041 -6.85137e-06 0)
(0.00276226 -7.90048e-06 0)
(0.00276104 -8.31804e-06 0)
(0.00275378 -7.57714e-06 0)
(0.00273599 -5.31183e-06 0)
(0.00270222 -1.29799e-06 0)
(0.00264642 4.55584e-06 0)
(0.00256229 1.2262e-05 0)
(0.00244344 2.17947e-05 0)
(0.00228351 3.31367e-05 0)
(0.0020761 4.63008e-05 0)
(0.00181476 6.13394e-05 0)
(0.00149287 7.83321e-05 0)
(0.00110368 9.73681e-05 0)
(0.000640315 0.000118522 0)
(9.59079e-05 0.000141837 0)
(-0.000536251 0.000167303 0)
(-0.00126251 0.000194852 0)
(-0.00208861 0.000224349 0)
(-0.00301946 0.000255583 0)
(-0.00405887 0.000288269 0)
(-0.00520928 0.000322044 0)
(-0.00647154 0.000356468 0)
(-0.00784465 0.00039103 0)
(-0.00932556 0.000425149 0)
(-0.010909 0.000458187 0)
(-0.0125874 0.000489458 0)
(-0.0143509 0.00051824 0)
(-0.0161868 0.000543786 0)
(-0.0180805 0.000565342 0)
(-0.0200149 0.000582155 0)
(-0.0219706 0.000593488 0)
(-0.0239265 0.00059863 0)
(-0.0258593 0.000596906 0)
(-0.0277446 0.000587686 0)
(-0.0295565 0.000570395 0)
(-0.0312683 0.000544526 0)
(-0.0328525 0.000509652 0)
(-0.0342816 0.000465448 0)
(-0.0355281 0.000411705 0)
(-0.0365651 0.000348361 0)
(-0.0373669 0.000275525 0)
(-0.0379092 0.000193509 0)
(-0.0381699 0.000102858 0)
(-0.0381297 4.37825e-06 0)
(-0.0377726 -0.000100833 0)
(-0.0370866 -0.00021137 0)
(-0.0360644 -0.000325514 0)
(-0.0347039 -0.000441229 0)
(-0.0330092 -0.000556187 0)
(-0.0309907 -0.000667813 0)
(-0.0286655 -0.000773338 0)
(-0.026058 -0.000869893 0)
(-0.0231993 -0.000954608 0)
(-0.0201278 -0.00102474 0)
(-0.0168878 -0.00107781 0)
(-0.0135294 -0.00111174 0)
(-0.0101067 -0.001125 0)
(-0.00667718 -0.00111671 0)
(-0.00329936 -0.00108676 0)
(-3.13919e-05 -0.00103582 0)
(0.00307103 -0.000965421 0)
(0.00595651 -0.000877824 0)
(0.00857982 -0.000775984 0)
(0.0109034 -0.00066338 0)
(0.0128987 -0.000543833 0)
(0.0145469 -0.0004213 0)
(0.0158396 -0.00029966 0)
(0.0167781 -0.000182512 0)
(0.0173737 -7.29983e-05 0)
(0.0176461 2.63214e-05 0)
(0.017622 0.000113554 0)
(0.0173341 0.000187499 0)
(0.0168189 0.000247627 0)
(0.0161151 0.000294022 0)
(0.0152619 0.000327286 0)
(0.0142975 0.000348433 0)
(0.0132581 0.00035878 0)
(0.0121762 0.000359821 0)
(0.0110808 0.000353148 0)
(0.00999618 0.000340334 0)
(0.00894229 0.000322901 0)
(0.00793466 0.000302215 0)
(0.00698444 0.000279522 0)
(0.00609933 0.000255842 0)
(0.0052833 0.00023208 0)
(0.00453806 0.000208887 0)
(0.00386227 0.000186877 0)
(0.00325379 0.000166373 0)
(0.00270772 0.000147791 0)
(0.00222008 0.000131111 0)
(0.00178405 0.000116584 0)
(0.00139616 0.000103653 0)
(0.00104981 9.23247e-05 0)
(0.000745398 8.10524e-05 0)
(0.000479612 6.95799e-05 0)
(0.000260734 5.48268e-05 0)
(9.1817e-05 3.72299e-05 0)
(-1.19998e-05 1.30951e-05 0)
(-4.67705e-05 -9.29803e-06 0)
(-2.28647e-05 -2.23944e-05 0)
(8.43953e-06 6.21069e-06 0)
(0.000146692 -0.000150101 0)
(0.000478398 -0.000313377 0)
(0.000967419 -0.000459943 0)
(0.00159833 -0.000557798 0)
(0.00230692 -0.000614011 0)
(0.00305806 -0.00062495 0)
(0.00379635 -0.000601189 0)
(0.00449219 -0.00054786 0)
(0.00511108 -0.000475886 0)
(0.00563902 -0.000392878 0)
(0.00606382 -0.000307916 0)
(0.00638764 -0.000227159 0)
(0.00661517 -0.000156014 0)
(0.00675898 -9.71971e-05 0)
(0.00683181 -5.19409e-05 0)
(0.00684836 -1.93541e-05 0)
(0.00682051 2.70932e-06 0)
(0.00675784 1.76395e-05 0)
(0.00666507 2.93489e-05 0)
(0.0065426 4.19932e-05 0)
(0.00638579 5.94173e-05 0)
(0.00618594 8.49115e-05 0)
(0.00593065 0.000120952 0)
(0.00560505 0.000169202 0)
(0.0051925 0.000230583 0)
(0.00467549 0.000305496 0)
(0.0040361 0.000394035 0)
(0.00325631 0.000496206 0)
(0.00231816 0.00061204 0)
(0.00120383 0.000741628 0)
(-0.000104278 0.000885065 0)
(-0.00162335 0.00104235 0)
(-0.00336981 0.00121328 0)
(-0.00535891 0.00139728 0)
(-0.00760411 0.00159341 0)
(-0.0101165 0.00180022 0)
(-0.0129039 0.00201575 0)
(-0.0159707 0.00223751 0)
(-0.0193167 0.00246252 0)
(-0.0229365 0.0026873 0)
(-0.0268197 0.00290792 0)
(-0.0309497 0.00312013 0)
(-0.0353042 0.00331936 0)
(-0.0398546 0.0035009 0)
(-0.0445667 0.00365999 0)
(-0.0494006 0.00379189 0)
(-0.0543115 0.00389209 0)
(-0.0592502 0.00395631 0)
(-0.0641639 0.00398068 0)
(-0.0689968 0.00396176 0)
(-0.0736916 0.00389664 0)
(-0.0781895 0.00378298 0)
(-0.0824319 0.00361906 0)
(-0.086361 0.0034038 0)
(-0.0899202 0.00313678 0)
(-0.0930556 0.0028183 0)
(-0.0957162 0.00244936 0)
(-0.0978545 0.00203174 0)
(-0.0994279 0.001568 0)
(-0.100398 0.00106151 0)
(-0.100733 0.000516543 0)
(-0.100407 -6.17031e-05 0)
(-0.0993996 -0.000667081 0)
(-0.0976998 -0.00129245 0)
(-0.0953033 -0.00192966 0)
(-0.0922147 -0.0025696 0)
(-0.0884478 -0.00320225 0)
(-0.0840256 -0.00381677 0)
(-0.0789812 -0.00440171 0)
(-0.0733578 -0.00494522 0)
(-0.0672085 -0.00543533 0)
(-0.0605966 -0.00586035 0)
(-0.0535947 -0.00620922 0)
(-0.0462843 -0.00647203 0)
(-0.0387545 -0.00664044 0)
(-0.0311008 -0.00670815 0)
(-0.0234234 -0.00667134 0)
(-0.0158249 -0.00652902 0)
(-0.00840827 -0.00628324 0)
(-0.00127446 -0.00593926 0)
(0.00548048 -0.00550546 0)
(0.0117678 -0.00499315 0)
(0.0175087 -0.0044162 0)
(0.0226365 -0.00379046 0)
(0.0270984 -0.00313319 0)
(0.0308576 -0.00246224 0)
(0.0338935 -0.00179533 0)
(0.0362028 -0.00114923 0)
(0.0377988 -0.000539154 0)
(0.0387107 2.19272e-05 0)
(0.038982 0.000523662 0)
(0.0386685 0.000958625 0)
(0.0378362 0.00132241 0)
(0.0365577 0.00161356 0)
(0.0349099 0.00183335 0)
(0.0329709 0.00198543 0)
(0.0308168 0.00207534 0)
(0.0285196 0.00211009 0)
(0.0261452 0.00209754 0)
(0.0237515 0.00204602 0)
(0.0213879 0.00196375 0)
(0.0190945 0.00185868 0)
(0.0169025 0.00173798 0)
(0.0148343 0.00160815 0)
(0.0129049 0.00147458 0)
(0.0111216 0.00134201 0)
(0.00948718 0.00121385 0)
(0.00799791 0.00109311 0)
(0.00664935 0.000981006 0)
(0.00543131 0.000878737 0)
(0.00433817 0.000784538 0)
(0.00335895 0.000697363 0)
(0.00249453 0.000611071 0)
(0.00173944 0.000522804 0)
(0.00110835 0.000421495 0)
(0.000603991 0.000308071 0)
(0.00025197 0.000172566 0)
(4.84791e-05 4.5775e-05 0)
(-9.48829e-06 -4.67248e-05 0)
(3.74822e-05 -9.44582e-05 0)
(0.000299519 -0.000478606 0)
(0.000840187 -0.000858704 0)
(0.00158104 -0.00118993 0)
(0.00250506 -0.00141793 0)
(0.00352372 -0.00154655 0)
(0.00459185 -0.00157126 0)
(0.00563551 -0.00151068 0)
(0.00661427 -0.00137899 0)
(0.00748141 -0.00119932 0)
(0.00821609 -0.000990904 0)
(0.0088005 -0.000774195 0)
(0.00923489 -0.000564674 0)
(0.00952352 -0.000374951 0)
(0.00968051 -0.000212145 0)
(0.00972067 -7.92325e-05 0)
(0.00966107 2.55453e-05 0)
(0.00951515 0.000107358 0)
(0.00929293 0.000174276 0)
(0.00899788 0.000235888 0)
(0.00862733 0.000302368 0)
(0.00817162 0.000383293 0)
(0.00761531 0.000486916 0)
(0.00693781 0.000619599 0)
(0.00611494 0.000785729 0)
(0.00512005 0.000987884 0)
(0.00392519 0.00122728 0)
(0.00250192 0.00150425 0)
(0.000821943 0.00181869 0)
(-0.00114253 0.00217029 0)
(-0.00341831 0.00255858 0)
(-0.0060308 0.0029828 0)
(-0.00900339 0.00344161 0)
(-0.0123566 0.00393286 0)
(-0.0161072 0.0044533 0)
(-0.020267 0.0049984 0)
(-0.0248421 0.00556226 0)
(-0.0298315 0.00613759 0)
(-0.0352264 0.00671577 0)
(-0.0410093 0.00728696 0)
(-0.0471538 0.00784029 0)
(-0.0536242 0.00836417 0)
(-0.0603757 0.00884651 0)
(-0.0673551 0.00927511 0)
(-0.0745013 0.00963804 0)
(-0.0817468 0.00992392 0)
(-0.0890187 0.0101223 0)
(-0.0962407 0.010224 0)
(-0.103334 0.0102211 0)
(-0.110219 0.0101075 0)
(-0.116819 0.00987866 0)
(-0.123056 0.00953176 0)
(-0.128858 0.00906575 0)
(-0.134157 0.00848121 0)
(-0.138889 0.00778028 0)
(-0.142997 0.00696659 0)
(-0.146429 0.00604517 0)
(-0.14914 0.00502236 0)
(-0.151091 0.00390579 0)
(-0.152249 0.00270433 0)
(-0.15259 0.00142812 0)
(-0.152093 8.85731e-05 0)
(-0.150748 -0.00130155 0)
(-0.14855 -0.00272814 0)
(-0.145501 -0.00417568 0)
(-0.14161 -0.00562723 0)
(-0.136897 -0.00706449 0)
(-0.131386 -0.00846786 0)
(-0.125112 -0.00981666 0)
(-0.118118 -0.0110893 0)
(-0.110456 -0.0122637 0)
(-0.102188 -0.0133179 0)
(-0.0933823 -0.0142301 0)
(-0.0841193 -0.0149801 0)
(-0.0744859 -0.0155493 0)
(-0.0645775 -0.0159221 0)
(-0.0544959 -0.0160859 0)
(-0.0443486 -0.0160329 0)
(-0.0342467 -0.0157599 0)
(-0.0243035 -0.0152689 0)
(-0.0146319 -0.0145681 0)
(-0.00534236 -0.0136709 0)
(0.00345968 -0.0125968 0)
(0.0116762 -0.0113701 0)
(0.019219 -0.0100197 0)
(0.0260121 -0.00857778 0)
(0.0319935 -0.00707907 0)
(0.037117 -0.00555921 0)
(0.0413536 -0.00405363 0)
(0.0446921 -0.00259616 0)
(0.0471396 -0.00121781 0)
(0.0487211 5.43433e-05 0)
(0.0494789 0.00119809 0)
(0.0494708 0.00219674 0)
(0.0487681 0.00303958 0)
(0.0474533 0.00372188 0)
(0.0456163 0.00424476 0)
(0.0433518 0.00461459 0)
(0.040755 0.00484231 0)
(0.0379191 0.00494236 0)
(0.0349313 0.00493169 0)
(0.0318711 0.00482858 0)
(0.0288076 0.00465174 0)
(0.0257995 0.00441922 0)
(0.0228932 0.00414805 0)
(0.0201246 0.00385326 0)
(0.0175176 0.00354822 0)
(0.0150887 0.00324352 0)
(0.0128432 0.00294802 0)
(0.010784 0.00266692 0)
(0.0089043 0.00240379 0)
(0.00720186 0.00215671 0)
(0.0056658 0.00192294 0)
(0.00429954 0.00169124 0)
(0.0030959 0.00145381 0)
(0.00207464 0.00119112 0)
(0.00123432 0.000902315 0)
(0.000612437 0.000573949 0)
(0.000196428 0.000256531 0)
(1.73447e-05 -5.87401e-06 0)
(6.32495e-05 -0.000268742 0)
(0.000437562 -0.000956463 0)
(0.00116048 -0.00159666 0)
(0.00210678 -0.00213371 0)
(0.0032568 -0.00250207 0)
(0.00450016 -0.00270255 0)
(0.00578714 -0.00273185 0)
(0.00703066 -0.00261677 0)
(0.00818505 -0.002382 0)
(0.00919555 -0.00206402 0)
(0.0100377 -0.00169522 0)
(0.0106894 -0.00130874 0)
(0.0111493 -0.000930568 0)
(0.0114198 -0.000581369 0)
(0.0115144 -0.000273155 0)
(0.0114468 -1.07072e-05 0)
(0.0112328 0.000208965 0)
(0.0108839 0.000394809 0)
(0.0104068 0.000560637 0)
(0.00980062 0.000722963 0)
(0.00905692 0.000899275 0)
(0.00815898 0.0011061 0)
(0.00708329 0.00135769 0)
(0.00580037 0.0016651 0)
(0.00427671 0.00203594 0)
(0.00247614 0.0024747 0)
(0.000361389 0.00298338 0)
(-0.00210487 0.00356224 0)
(-0.00495896 0.00421041 0)
(-0.00823536 0.00492622 0)
(-0.0119658 0.00570714 0)
(-0.0161781 0.00654953 0)
(-0.0208951 0.00744819 0)
(-0.0261332 0.00839592 0)
(-0.0319005 0.00938318 0)
(-0.0381961 0.0103979 0)
(-0.0450083 0.0114256 0)
(-0.0523136 0.0124491 0)
(-0.0600764 0.0134497 0)
(-0.0682488 0.0144067 0)
(-0.076771 0.0152987 0)
(-0.0855722 0.0161041 0)
(-0.0945725 0.0168016 0)
(-0.103685 0.0173712 0)
(-0.112816 0.017795 0)
(-0.121872 0.0180572 0)
(-0.130756 0.0181453 0)
(-0.139377 0.0180497 0)
(-0.147643 0.0177642 0)
(-0.155473 0.0172858 0)
(-0.162787 0.0166145 0)
(-0.169517 0.0157532 0)
(-0.175601 0.0147073 0)
(-0.180985 0.013484 0)
(-0.185621 0.0120926 0)
(-0.189473 0.0105439 0)
(-0.192507 0.00884979 0)
(-0.194698 0.00702339 0)
(-0.196026 0.00507884 0)
(-0.196478 0.00303128 0)
(-0.196044 0.000896925 0)
(-0.19472 -0.0013069 0)
(-0.192507 -0.0035616 0)
(-0.189409 -0.00584719 0)
(-0.185438 -0.00814218 0)
(-0.180607 -0.0104234 0)
(-0.174939 -0.0126662 0)
(-0.168458 -0.0148442 0)
(-0.161199 -0.0169294 0)
(-0.1532 -0.0188929 0)
(-0.144508 -0.0207046 0)
(-0.135179 -0.0223345 0)
(-0.125276 -0.0237527 0)
(-0.114869 -0.0249308 0)
(-0.10404 -0.0258423 0)
(-0.0928748 -0.0264644 0)
(-0.0814705 -0.0267783 0)
(-0.069929 -0.0267706 0)
(-0.0583577 -0.0264346 0)
(-0.0468679 -0.0257704 0)
(-0.0355729 -0.024786 0)
(-0.0245855 -0.0234972 0)
(-0.0140162 -0.0219278 0)
(-0.00397076 -0.0201089 0)
(0.00545218 -0.0180784 0)
(0.0141632 -0.0158796 0)
(0.0220838 -0.0135601 0)
(0.0291488 -0.0111701 0)
(0.0353071 -0.00876102 0)
(0.0405232 -0.00638353 0)
(0.0447783 -0.00408617 0)
(0.0480707 -0.00191365 0)
(0.0504162 9.45789e-05 0)
(0.0518479 0.00190554 0)
(0.0524152 0.00349383 0)
(0.0521834 0.00484226 0)
(0.0512307 0.00594233 0)
(0.0496467 0.00679407 0)
(0.0475282 0.00740565 0)
(0.0449767 0.00779235 0)
(0.0420935 0.0079754 0)
(0.0389775 0.00798027 0)
(0.0357201 0.00783523 0)
(0.0324044 0.00756946 0)
(0.0291015 0.00721191 0)
(0.0258712 0.00678961 0)
(0.022759 0.00632739 0)
(0.0198008 0.00584617 0)
(0.0170181 0.0053637 0)
(0.0144272 0.00489198 0)
(0.0120315 0.00443945 0)
(0.00983719 0.00400614 0)
(0.00783778 0.00358918 0)
(0.00604256 0.00317383 0)
(0.00444358 0.00274785 0)
(0.00306683 0.00228458 0)
(0.00190535 0.0017792 0)
(0.00101162 0.00121371 0)
(0.00036631 0.00064445 0)
(4.90406e-05 0.0001205 0)
(7.97172e-05 -0.000509373 0)
(0.000539532 -0.00157893 0)
(0.00140884 -0.00252657 0)
(0.00251869 -0.00329266 0)
(0.00384298 -0.0038091 0)
(0.00524894 -0.00407517 0)
(0.00668243 -0.00409237 0)
(0.00804511 -0.00389687 0)
(0.00928857 -0.00352636 0)
(0.0103527 -0.00303212 0)
(0.0112118 -0.0024615 0)
(0.0118413 -0.00186142 0)
(0.0122391 -0.00126933 0)
(0.0124058 -0.000714283 0)
(0.0123532 -0.00021321 0)
(0.0120924 0.000227807 0)
(0.0116356 0.000613826 0)
(0.0109892 0.000958746 0)
(0.0101541 0.00128347 0)
(0.00912193 0.00161284 0)
(0.00787592 0.00197295 0)
(0.00639022 0.00238836 0)
(0.00463179 0.00288004 0)
(0.0025616 0.00346409 0)
(0.00013699 0.0041514 0)
(-0.00268668 0.004948 0)
(-0.00595402 0.00585594 0)
(-0.00970824 0.0068743 0)
(-0.0139895 0.00799983 0)
(-0.0188335 0.00922728 0)
(-0.0242699 0.0105492 0)
(-0.0303206 0.0119557 0)
(-0.0369974 0.0134333 0)
(-0.0443008 0.0149653 0)
(-0.0522176 0.0165307 0)
(-0.0607204 0.0181049 0)
(-0.0697662 0.0196597 0)
(-0.0792965 0.0211643 0)
(-0.0892384 0.022586 0)
(-0.0995061 0.0238915 0)
(-0.110003 0.0250482 0)
(-0.120625 0.0260254 0)
(-0.131263 0.0267956 0)
(-0.141808 0.0273353 0)
(-0.152153 0.0276258 0)
(-0.162195 0.0276537 0)
(-0.17184 0.0274108 0)
(-0.181001 0.0268941 0)
(-0.189604 0.0261052 0)
(-0.197583 0.0250498 0)
(-0.204882 0.023737 0)
(-0.211456 0.0221787 0)
(-0.217268 0.0203888 0)
(-0.222288 0.0183827 0)
(-0.226494 0.0161768 0)
(-0.229868 0.0137883 0)
(-0.232398 0.0112349 0)
(-0.234075 0.00853459 0)
(-0.234893 0.00570588 0)
(-0.234847 0.00276779 0)
(-0.233938 -0.000259916 0)
(-0.232166 -0.0033565 0)
(-0.229532 -0.00649999 0)
(-0.226042 -0.00966687 0)
(-0.221703 -0.0128318 0)
(-0.216525 -0.0159674 0)
(-0.210522 -0.0190442 0)
(-0.203711 -0.0220303 0)
(-0.196116 -0.0248917 0)
(-0.187764 -0.0275926 0)
(-0.178693 -0.0300954 0)
(-0.168944 -0.0323618 0)
(-0.158569 -0.0343535 0)
(-0.147629 -0.0360331 0)
(-0.136194 -0.0373653 0)
(-0.124341 -0.0383185 0)
(-0.112159 -0.038866 0)
(-0.099744 -0.0389878 0)
(-0.0871997 -0.0386713 0)
(-0.0746349 -0.037913 0)
(-0.0621628 -0.0367191 0)
(-0.049898 -0.035106 0)
(-0.0379545 -0.0331004 0)
(-0.0264434 -0.0307387 0)
(-0.01547 -0.0280659 0)
(-0.00513238 -0.0251352 0)
(0.00448116 -0.0220052 0)
(0.0132933 -0.018739 0)
(0.021239 -0.0154022 0)
(0.0282667 -0.0120604 0)
(0.0343388 -0.00877816 0)
(0.0394324 -0.00561661 0)
(0.0435401 -0.00263205 0)
(0.0466699 0.000125666 0)
(0.0488458 0.00261461 0)
(0.0501079 0.00480198 0)
(0.0505115 0.00666517 0)
(0.0501267 0.00819235 0)
(0.0490359 0.0093827 0)
(0.0473317 0.010246 0)
(0.0451136 0.0108017 0)
(0.0424847 0.0110774 0)
(0.0395468 0.011107 0)
(0.0363982 0.0109283 0)
(0.0331285 0.0105813 0)
(0.0298185 0.0101053 0)
(0.0265352 0.00953816 0)
(0.0233355 0.00891325 0)
(0.02026 0.00825984 0)
(0.0173429 0.00759974 0)
(0.0146016 0.00694885 0)
(0.0120555 0.00631202 0)
(0.00970605 0.00568813 0)
(0.00757182 0.00506127 0)
(0.00564667 0.00441524 0)
(0.00396558 0.00371763 0)
(0.00251861 0.00295654 0)
(0.00137708 0.00210766 0)
(0.000519133 0.00121941 0)
(7.59713e-05 0.000333734 0)
(9.23215e-05 -0.000791255 0)
(0.000620066 -0.00229994 0)
(0.00160458 -0.00358435 0)
(0.0028396 -0.00458566 0)
(0.00428985 -0.00524076 0)
(0.00580121 -0.00555184 0)
(0.00731464 -0.00552955 0)
(0.00872215 -0.00522177 0)
(0.0099741 -0.00468136 0)
(0.0110072 -0.00397544 0)
(0.0117963 -0.00316701 0)
(0.0123162 -0.00231667 0)
(0.0125644 -0.00147289 0)
(0.0125403 -0.000672241 0)
(0.012253 6.45829e-05 0)
(0.0117094 0.000731512 0)
(0.0109161 0.00133706 0)
(0.00987188 0.00190142 0)
(0.00856884 0.00245379 0)
(0.00698857 0.00302826 0)
(0.00510365 0.00366008 0)
(0.00287744 0.00438194 0)
(0.00026661 0.00522121 0)
(-0.00277717 0.00619828 0)
(-0.0063044 0.00732613 0)
(-0.0103656 0.00861082 0)
(-0.0150089 0.0100526 0)
(-0.0202781 0.0116468 0)
(-0.0262104 0.0133848 0)
(-0.0328344 0.015254 0)
(-0.0401675 0.0172376 0)
(-0.0482136 0.0193139 0)
(-0.0569609 0.0214562 0)
(-0.0663805 0.0236321 0)
(-0.0764245 0.0258042 0)
(-0.087027 0.0279309 0)
(-0.0981043 0.0299673 0)
(-0.109558 0.0318675 0)
(-0.121276 0.0335859 0)
(-0.13314 0.0350795 0)
(-0.145027 0.0363097 0)
(-0.156816 0.0372438 0)
(-0.168388 0.0378562 0)
(-0.179635 0.0381286 0)
(-0.19046 0.0380506 0)
(-0.200777 0.037619 0)
(-0.210514 0.0368372 0)
(-0.219612 0.0357138 0)
(-0.228023 0.0342622 0)
(-0.235712 0.0324989 0)
(-0.242651 0.0304429 0)
(-0.248821 0.0281143 0)
(-0.254208 0.0255341 0)
(-0.258803 0.0227234 0)
(-0.2626 0.019703 0)
(-0.265597 0.0164933 0)
(-0.26779 0.0131145 0)
(-0.269177 0.0095862 0)
(-0.269757 0.00592807 0)
(-0.269529 0.00215995 0)
(-0.268489 -0.00169775 0)
(-0.266636 -0.00562359 0)
(-0.263968 -0.00959468 0)
(-0.260484 -0.0135863 0)
(-0.256183 -0.0175713 0)
(-0.251065 -0.02152 0)
(-0.245135 -0.0253996 0)
(-0.238399 -0.0291744 0)
(-0.230868 -0.0328055 0)
(-0.222557 -0.0362511 0)
(-0.21349 -0.0394667 0)
(-0.203696 -0.0424062 0)
(-0.193213 -0.0450225 0)
(-0.182089 -0.0472689 0)
(-0.170382 -0.0491003 0)
(-0.158161 -0.0504752 0)
(-0.145505 -0.0513574 0)
(-0.132504 -0.0517178 0)
(-0.119259 -0.0515363 0)
(-0.105876 -0.0508033 0)
(-0.0924692 -0.0495211 0)
(-0.0791577 -0.0477045 0)
(-0.0660604 -0.0453809 0)
(-0.0532951 -0.0425903 0)
(-0.0409754 -0.0393837 0)
(-0.0292076 -0.035822 0)
(-0.018089 -0.0319738 0)
(-0.00770616 -0.0279135 0)
(0.00186672 -0.0237185 0)
(0.010568 -0.0194674 0)
(0.018349 -0.015238 0)
(0.025174 -0.0111051 0)
(0.0310204 -0.00713901 0)
(0.0358788 -0.0034041 0)
(0.039753 4.27835e-05 0)
(0.0426606 0.00315365 0)
(0.0446336 0.00589074 0)
(0.0457185 0.00822771 0)
(0.0459755 0.0101505 0)
(0.0454787 0.0116579 0)
(0.0443131 0.0127612 0)
(0.042573 0.0134832 0)
(0.0403578 0.0138573 0)
(0.0377693 0.0139243 0)
(0.0349059 0.0137307 0)
(0.0318623 0.0133255 0)
(0.0287218 0.0127576 0)
(0.02556 0.0120731 0)
(0.0224365 0.0113135 0)
(0.0194042 0.0105122 0)
(0.0164968 0.00969484 0)
(0.0137498 0.00887372 0)
(0.0111757 0.00805196 0)
(0.00880527 0.00721531 0)
(0.00663737 0.00634484 0)
(0.00471836 0.00540384 0)
(0.00303864 0.00437041 0)
(0.00168947 0.00321075 0)
(0.000650201 0.00195246 0)
(9.88434e-05 0.000619171 0)
(0.000101041 -0.00111105 0)
(0.000680148 -0.00310949 0)
(0.00175206 -0.00475666 0)
(0.00307798 -0.00599757 0)
(0.00461158 -0.00677847 0)
(0.00617819 -0.00710862 0)
(0.00771282 -0.00701234 0)
(0.00909877 -0.00655247 0)
(0.0102859 -0.0058 0)
(0.0112095 -0.00483949 0)
(0.0118462 -0.0037506 0)
(0.0121713 -0.00260754 0)
(0.0121833 -0.00146909 0)
(0.0118796 -0.000377946 0)
(0.0112669 0.000643092 0)
(0.010346 0.00158992 0)
(0.00911605 0.00247642 0)
(0.00756617 0.00333084 0)
(0.00567718 0.004192 0)
(0.00341854 0.00510407 0)
(0.000750649 0.00611159 0)
(-0.00237454 0.00725481 0)
(-0.00601015 0.00856627 0)
(-0.010212 0.0100688 0)
(-0.0150352 0.0117751 0)
(-0.0205313 0.0136885 0)
(-0.0267456 0.0158038 0)
(-0.0337143 0.0181088 0)
(-0.0414618 0.0205845 0)
(-0.049998 0.0232056 0)
(-0.059315 0.02594 0)
(-0.0693857 0.0287481 0)
(-0.0801614 0.031584 0)
(-0.0915719 0.0343951 0)
(-0.103526 0.0371242 0)
(-0.115916 0.0397117 0)
(-0.128619 0.0420978 0)
(-0.141501 0.0442253 0)
(-0.154428 0.0460427 0)
(-0.167266 0.0475057 0)
(-0.179888 0.0485798 0)
(-0.19218 0.0492403 0)
(-0.204041 0.0494728 0)
(-0.215385 0.0492729 0)
(-0.226143 0.0486447 0)
(-0.236261 0.0475993 0)
(-0.2457 0.0461539 0)
(-0.254432 0.0443294 0)
(-0.262437 0.0421495 0)
(-0.269705 0.0396391 0)
(-0.27623 0.0368238 0)
(-0.282011 0.0337285 0)
(-0.287047 0.0303774 0)
(-0.29134 0.0267936 0)
(-0.294892 0.0229989 0)
(-0.297704 0.0190139 0)
(-0.299774 0.0148584 0)
(-0.301104 0.0105513 0)
(-0.301688 0.00611132 0)
(-0.301524 0.00155746 0)
(-0.300605 -0.00309065 0)
(-0.298925 -0.00781215 0)
(-0.296477 -0.0125844 0)
(-0.293251 -0.0173823 0)
(-0.289241 -0.0221779 0)
(-0.284438 -0.02694 0)
(-0.278835 -0.0316336 0)
(-0.272429 -0.0362194 0)
(-0.265217 -0.0406542 0)
(-0.257204 -0.0448906 0)
(-0.248396 -0.0488777 0)
(-0.238809 -0.0525611 0)
(-0.228467 -0.0558846 0)
(-0.217403 -0.0587913 0)
(-0.20566 -0.061225 0)
(-0.193294 -0.0631324 0)
(-0.180374 -0.0644656 0)
(-0.166982 -0.065184 0)
(-0.153211 -0.065257 0)
(-0.139168 -0.0646662 0)
(-0.124968 -0.0634071 0)
(-0.110735 -0.0614905 0)
(-0.0965952 -0.0589429 0)
(-0.0826786 -0.0558064 0)
(-0.0691107 -0.0521375 0)
(-0.0560111 -0.0480054 0)
(-0.0434901 -0.0434893 0)
(-0.0316463 -0.0386756 0)
(-0.0205644 -0.033655 0)
(-0.0103151 -0.0285195 0)
(-0.000954767 -0.0233602 0)
(0.00747402 -0.0182647 0)
(0.0149413 -0.0133158 0)
(0.0214291 -0.00858997 0)
(0.0269305 -0.00415627 0)
(0.0314498 -7.52911e-05 0)
(0.0350024 0.00360213 0)
(0.0376158 0.00683608 0)
(0.0393301 0.00959889 0)
(0.0401983 0.0118762 0)
(0.040286 0.0136676 0)
(0.0396711 0.0149867 0)
(0.0384408 0.0158603 0)
(0.0366899 0.0163268 0)
(0.0345155 0.0164338 0)
(0.0320164 0.0162352 0)
(0.0292847 0.0157879 0)
(0.026409 0.0151482 0)
(0.0234633 0.0143692 0)
(0.0205176 0.0134961 0)
(0.0176214 0.0125653 0)
(0.0148267 0.0115987 0)
(0.012159 0.0106052 0)
(0.00966304 0.00957485 0)
(0.00734593 0.00848694 0)
(0.00526727 0.00730173 0)
(0.00342172 0.00598514 0)
(0.00192003 0.00449163 0)
(0.000745775 0.00281915 0)
(0.000114812 0.000965021 0)
(0.000108783 -0.00145513 0)
(0.000729193 -0.00397785 0)
(0.00186605 -0.0060004 0)
(0.00325153 -0.00747296 0)
(0.00482684 -0.00835498 0)
(0.00639844 -0.00866766 0)
(0.00789512 -0.00845387 0)
(0.00919312 -0.00779538 0)
(0.0102428 -0.00678431 0)
(0.0109795 -0.00552427 0)
(0.011383 -0.004112 0)
(0.0114301 -0.00263455 0)
(0.0111201 -0.00115947 0)
(0.010449 0.000266664 0)
(0.00941894 0.0016215 0)
(0.00802393 0.00290547 0)
(0.00625332 0.00414013 0)
(0.00408438 0.00536359 0)
(0.00148483 0.00662532 0)
(-0.00158929 0.00797965 0)
(-0.00519001 0.0094795 0)
(-0.00937581 0.0111708 0)
(-0.0142071 0.0130884 0)
(-0.0197431 0.0152541 0)
(-0.0260376 0.0176765 0)
(-0.0331358 0.0203511 0)
(-0.0410708 0.0232626 0)
(-0.0498602 0.026385 0)
(-0.0595035 0.0296831 0)
(-0.0699786 0.0331119 0)
(-0.0812399 0.0366178 0)
(-0.0932174 0.0401384 0)
(-0.105817 0.0436047 0)
(-0.118924 0.046943 0)
(-0.132406 0.0500785 0)
(-0.14612 0.0529384 0)
(-0.159917 0.0554558 0)
(-0.173653 0.057573 0)
(-0.187189 0.0592436 0)
(-0.200404 0.060434 0)
(-0.213189 0.061124 0)
(-0.225459 0.0613057 0)
(-0.237144 0.0609824 0)
(-0.248194 0.0601669 0)
(-0.258571 0.0588789 0)
(-0.268254 0.0571433 0)
(-0.277231 0.0549883 0)
(-0.285496 0.0524437 0)
(-0.29305 0.0495394 0)
(-0.299898 0.0463049 0)
(-0.306044 0.0427681 0)
(-0.311495 0.0389554 0)
(-0.316258 0.0348912 0)
(-0.320336 0.0305979 0)
(-0.323734 0.0260964 0)
(-0.326455 0.0214059 0)
(-0.328498 0.0165443 0)
(-0.329862 0.011529 0)
(-0.330544 0.00637701 0)
(-0.330539 0.00110543 0)
(-0.329839 -0.00426766 0)
(-0.328436 -0.00972287 0)
(-0.326318 -0.0152387 0)
(-0.323474 -0.0207911 0)
(-0.31989 -0.0263525 0)
(-0.31555 -0.0318916 0)
(-0.310442 -0.0373725 0)
(-0.304549 -0.0427544 0)
(-0.297859 -0.0479912 0)
(-0.290361 -0.0530317 0)
(-0.282049 -0.0578195 0)
(-0.27292 -0.0622934 0)
(-0.26298 -0.0663888 0)
(-0.252243 -0.0700385 0)
(-0.240734 -0.0731746 0)
(-0.228491 -0.075731 0)
(-0.215567 -0.0776457 0)
(-0.202027 -0.0788638 0)
(-0.187957 -0.0793407 0)
(-0.173454 -0.0790449 0)
(-0.158633 -0.0779608 0)
(-0.14362 -0.0760905 0)
(-0.128551 -0.0734558 0)
(-0.113569 -0.0700977 0)
(-0.0988153 -0.0660758 0)
(-0.0844301 -0.0614663 0)
(-0.0705438 -0.0563593 0)
(-0.0572747 -0.0508545 0)
(-0.0447256 -0.0450579 0)
(-0.0329818 -0.0390774 0)
(-0.0221109 -0.0330191 0)
(-0.0121632 -0.0269853 0)
(-0.00317373 -0.0210716 0)
(0.00483616 -0.0153659 0)
(0.0118564 -0.00994778 0)
(0.0178868 -0.00488771 0)
(0.022936 -0.000246613 0)
(0.0270215 0.00392493 0)
(0.0301699 0.00758771 0)
(0.0324185 0.0107151 0)
(0.0338153 0.0132945 0)
(0.0344205 0.0153276 0)
(0.034305 0.0168312 0)
(0.0335505 0.0178362 0)
(0.0322449 0.0183862 0)
(0.0304829 0.0185344 0)
(0.0283574 0.0183409 0)
(0.0259623 0.0178686 0)
(0.023381 0.017179 0)
(0.0206957 0.0163279 0)
(0.0179693 0.0153619 0)
(0.0152688 0.0143129 0)
(0.012633 0.0131972 0)
(0.0101212 0.0120102 0)
(0.00775096 0.0107309 0)
(0.00559564 0.00931738 0)
(0.00365747 0.00772216 0)
(0.00206421 0.00588632 0)
(0.000805956 0.00377302 0)
(0.00012479 0.00134917 0)
(0.000115344 -0.00182386 0)
(0.000767809 -0.00489768 0)
(0.00194916 -0.00730019 0)
(0.00336402 -0.00898888 0)
(0.0049402 -0.00993983 0)
(0.00646697 -0.010191 0)
(0.00786726 -0.00980892 0)
(0.00901204 -0.00889843 0)
(0.00985323 -0.00757607 0)
(0.0103279 -0.00596608 0)
(0.0104199 -0.00418263 0)
(0.0101078 -0.00232447 0)
(0.00939203 -0.000465907 0)
(0.00826573 0.00134539 0)
(0.00672577 0.00309048 0)
(0.00475714 0.00477731 0)
(0.00233774 0.00643751 0)
(-0.00056864 0.00812067 0)
(-0.00400831 0.00988734 0)
(-0.00803847 0.0118012 0)
(-0.012722 0.0139212 0)
(-0.0181246 0.0162957 0)
(-0.0243088 0.0189575 0)
(-0.0313304 0.0219223 0)
(-0.0392332 0.0251884 0)
(-0.0480459 0.0287378 0)
(-0.0577774 0.0325378 0)
(-0.0684148 0.0365422 0)
(-0.0799194 0.0406923 0)
(-0.092226 0.0449181 0)
(-0.105242 0.0491399 0)
(-0.118851 0.0532709 0)
(-0.132915 0.0572208 0)
(-0.147281 0.0608999 0)
(-0.161789 0.0642241 0)
(-0.176283 0.0671189 0)
(-0.190612 0.0695229 0)
(-0.204643 0.0713902 0)
(-0.218259 0.0726911 0)
(-0.231367 0.0734114 0)
(-0.243895 0.0735512 0)
(-0.25579 0.0731226 0)
(-0.267017 0.0721464 0)
(-0.277556 0.0706506 0)
(-0.287399 0.068667 0)
(-0.296543 0.0662297 0)
(-0.304993 0.0633734 0)
(-0.312758 0.0601321 0)
(-0.319847 0.0565382 0)
(-0.326271 0.0526222 0)
(-0.332041 0.0484122 0)
(-0.337167 0.0439339 0)
(-0.341658 0.0392107 0)
(-0.345521 0.0342636 0)
(-0.348763 0.0291119 0)
(-0.351388 0.023773 0)
(-0.3534 0.0182632 0)
(-0.354798 0.0125976 0)
(-0.355583 0.00679139 0)
(-0.355749 0.000859513 0)
(-0.355293 -0.00518214 0)
(-0.354203 -0.0113163 0)
(-0.35247 -0.0175238 0)
(-0.350079 -0.0237823 0)
(-0.347014 -0.0300663 0)
(-0.343255 -0.0363459 0)
(-0.33878 -0.0425859 0)
(-0.333566 -0.0487459 0)
(-0.32759 -0.0547791 0)
(-0.320826 -0.0606321 0)
(-0.313251 -0.0662451 0)
(-0.304846 -0.0715518 0)
(-0.295596 -0.0764803 0)
(-0.285491 -0.0809541 0)
(-0.274535 -0.084894 0)
(-0.262739 -0.0882201 0)
(-0.250133 -0.0908548 0)
(-0.236762 -0.0927262 0)
(-0.22269 -0.0937718 0)
(-0.208001 -0.0939422 0)
(-0.1928 -0.0932052 0)
(-0.177211 -0.0915485 0)
(-0.161374 -0.0889828 0)
(-0.145442 -0.0855426 0)
(-0.129577 -0.0812863 0)
(-0.113941 -0.0762945 0)
(-0.0986943 -0.0706667 0)
(-0.0839831 -0.0645172 0)
(-0.0699397 -0.0579696 0)
(-0.0566753 -0.0511517 0)
(-0.0442788 -0.0441899 0)
(-0.0328162 -0.0372054 0)
(-0.0223323 -0.0303108 0)
(-0.012853 -0.0236083 0)
(-0.00438901 -0.0171888 0)
(0.00306076 -0.0111322 0)
(0.0095062 -0.00550713 0)
(0.0149644 -0.000371835 0)
(0.0194587 0.00422653 0)
(0.0230193 0.00825239 0)
(0.0256836 0.0116829 0)
(0.0274988 0.0145091 0)
(0.028521 0.016737 0)
(0.0288177 0.0183877 0)
(0.0284643 0.019497 0)
(0.0275459 0.0201134 0)
(0.0261498 0.0202956 0)
(0.0243688 0.0201081 0)
(0.0222894 0.0196178 0)
(0.0200005 0.0188877 0)
(0.0175746 0.017973 0)
(0.0150905 0.0169148 0)
(0.0125991 0.0157364 0)
(0.0101733 0.0144398 0)
(0.00784222 0.0130036 0)
(0.0056926 0.0113848 0)
(0.00373658 0.00952235 0)
(0.00211544 0.00734381 0)
(0.000827142 0.00477629 0)
(0.000127846 0.00175521 0)
(0.000121637 -0.00221 0)
(0.000798547 -0.00584905 0)
(0.00200446 -0.0086234 0)
(0.00341757 -0.0104999 0)
(0.00495156 -0.011476 0)
(0.0063809 -0.0116116 0)
(0.00762368 -0.0110025 0)
(0.00854821 -0.00978094 0)
(0.00910934 -0.00809094 0)
(0.00924763 -0.00607852 0)
(0.00895119 -0.00387485 0)
(0.00820105 -0.00158849 0)
(0.00699736 0.000702367 0)
(0.00532953 0.00295235 0)
(0.00318711 0.00514945 0)
(0.000544378 0.00731213 0)
(-0.00263387 0.00948429 0)
(-0.00639807 0.0117278 0)
(-0.0108081 0.0141136 0)
(-0.0159323 0.0167121 0)
(-0.0218406 0.0195847 0)
(-0.0285996 0.0227763 0)
(-0.0362665 0.0263117 0)
(-0.0448839 0.0301933 0)
(-0.0544748 0.0344021 0)
(-0.065039 0.0388987 0)
(-0.0765497 0.043626 0)
(-0.088951 0.0485106 0)
(-0.102158 0.0534655 0)
(-0.116055 0.0583928 0)
(-0.130504 0.0631876 0)
(-0.145347 0.0677431 0)
(-0.160414 0.0719561 0)
(-0.175535 0.0757327 0)
(-0.190546 0.0789927 0)
(-0.205298 0.0816735 0)
(-0.219664 0.0837318 0)
(-0.233537 0.0851431 0)
(-0.246836 0.0859008 0)
(-0.259505 0.086013 0)
(-0.271504 0.0855 0)
(-0.282811 0.0843907 0)
(-0.293417 0.0827199 0)
(-0.303322 0.0805253 0)
(-0.312532 0.0778463 0)
(-0.321057 0.0747215 0)
(-0.328912 0.0711887 0)
(-0.336109 0.0672831 0)
(-0.342664 0.0630379 0)
(-0.348592 0.0584835 0)
(-0.353907 0.0536473 0)
(-0.358624 0.0485544 0)
(-0.362757 0.0432269 0)
(-0.366317 0.0376849 0)
(-0.369315 0.031946 0)
(-0.371762 0.0260261 0)
(-0.373664 0.0199394 0)
(-0.375028 0.0136992 0)