/*--------------------------------*- C++ -*----------------------------------*\
| =========                 |                                                 |
| \\      /  F ield         | OpenFOAM: The Open Source CFD Toolbox           |
|  \\    /   O peration     | Version:  2406                                  |
|   \\  /    A nd           | Website:  www.openfoam.com                      |
|    \\/     M anipulation  |                                                 |
\*---------------------------------------------------------------------------*/
FoamFile
{
    version     2.0;
    format      ascii;
    arch        "LSB;label=32;scalar=64";
    class       volVectorField;
    location    "34";
    object      U;
}
// * * * * * * * * * * * * * * * * * * * * * * * * * * * * * * * * * * * * * //

dimensions      [0 1 -1 0 0 0 0];

internalField   nonuniform List<vector> 
14400
(
(-1.7663e-05 1.76138e-05 0)
(-1.98661e-06 -1.0702e-05 0)
(0.000104304 -4.16482e-05 0)
(0.000287509 -6.9061e-05 0)
(0.000536366 -8.52993e-05 0)
(0.000818199 -9.42837e-05 0)
(0.00111838 -9.51266e-05 0)
(0.00141157 -9.08277e-05 0)
(0.00168745 -8.18891e-05 0)
(0.00193139 -7.05574e-05 0)
(0.00213963 -5.7769e-05 0)
(0.00230748 -4.51288e-05 0)
(0.00243735 -3.3401e-05 0)
(0.0025316 -2.34704e-05 0)
(0.00259635 -1.56286e-05 0)
(0.00263719 -1.00785e-05 0)
(0.00266081 -6.62548e-06 0)
(0.00267248 -4.96666e-06 0)
(0.00267682 -4.58099e-06 0)
(0.00267644 -4.91102e-06 0)
(0.00267248 -5.34411e-06 0)
(0.00266407 -5.32987e-06 0)
(0.00264888 -4.38602e-06 0)
(0.00262313 -2.15624e-06 0)
(0.00258212 1.60312e-06 0)
(0.00252045 7.02241e-06 0)
(0.00243236 1.41582e-05 0)
(0.00231191 2.30225e-05 0)
(0.00215308 3.36206e-05 0)
(0.00194977 4.59713e-05 0)
(0.00169583 6.0118e-05 0)
(0.00138498 7.61233e-05 0)
(0.00101083 9.40573e-05 0)
(0.000566903 0.00011398 0)
(4.6757e-05 0.000135923 0)
(-0.000555908 0.000159878 0)
(-0.00124706 0.000185785 0)
(-0.00203213 0.000213522 0)
(-0.00291579 0.000242902 0)
(-0.00390174 0.00027367 0)
(-0.00499243 0.000305498 0)
(-0.00618887 0.00033799 0)
(-0.0074904 0.000370681 0)
(-0.0088945 0.000403045 0)
(-0.0103966 0.000434499 0)
(-0.0119901 0.000464414 0)
(-0.013666 0.000492125 0)
(-0.0154132 0.000516944 0)
(-0.0172183 0.000538169 0)
(-0.0190658 0.000555099 0)
(-0.0209379 0.000567041 0)
(-0.0228153 0.000573325 0)
(-0.0246766 0.000573309 0)
(-0.0264992 0.000566393 0)
(-0.0282589 0.000552022 0)
(-0.0299307 0.000529702 0)
(-0.0314891 0.000499009 0)
(-0.032908 0.000459606 0)
(-0.0341613 0.00041126 0)
(-0.0352233 0.000353864 0)
(-0.0360694 0.000287465 0)
(-0.0366759 0.000212285 0)
(-0.0370212 0.000128758 0)
(-0.0370858 3.75536e-05 0)
(-0.0368535 -6.03971e-05 0)
(-0.0363112 -0.000163877 0)
(-0.0354504 -0.000271373 0)
(-0.0342673 -0.000381073 0)
(-0.0327634 -0.00049088 0)
(-0.0309464 -0.000598441 0)
(-0.02883 -0.000701203 0)
(-0.0264349 -0.000796478 0)
(-0.0237884 -0.000881544 0)
(-0.0209243 -0.00095375 0)
(-0.0178828 -0.00101064 0)
(-0.0147096 -0.0010501 0)
(-0.0114548 -0.00107047 0)
(-0.00817213 -0.00107067 0)
(-0.00491699 -0.00105032 0)
(-0.00174504 -0.00100978 0)
(0.00128968 -0.000950178 0)
(0.00413659 -0.000873399 0)
(0.00675029 -0.000782002 0)
(0.00909222 -0.0006791 0)
(0.0111319 -0.000568198 0)
(0.012848 -0.000453007 0)
(0.0142287 -0.000337235 0)
(0.0152719 -0.000224398 0)
(0.0159848 -0.000117641 0)
(0.0163831 -1.96006e-05 0)
(0.0164899 6.76934e-05 0)
(0.0163341 0.000142857 0)
(0.015949 0.000205154 0)
(0.0153705 0.000254446 0)
(0.0146356 0.000291124 0)
(0.0137808 0.000316003 0)
(0.0128409 0.000330224 0)
(0.0118481 0.000335133 0)
(0.0108307 0.000332202 0)
(0.00981338 0.000322912 0)
(0.00881636 0.000308721 0)
(0.00785585 0.000290956 0)
(0.00694383 0.00027084 0)
(0.00608889 0.000249393 0)
(0.00529597 0.000227531 0)
(0.00456774 0.000205924 0)
(0.00390378 0.000185219 0)
(0.00330279 0.000165765 0)
(0.00276065 0.000148014 0)
(0.00227408 0.000131978 0)
(0.00183681 0.000117944 0)
(0.00144593 0.000105386 0)
(0.00109511 9.43516e-05 0)
(0.000785182 8.33192e-05 0)
(0.000512851 7.20652e-05 0)
(0.000286828 5.74847e-05 0)
(0.000110078 3.9972e-05 0)
(-1.23564e-06 1.56076e-05 0)
(-4.28222e-05 -7.51682e-06 0)
(-2.25523e-05 -2.21127e-05 0)
(9.53923e-06 2.63422e-06 0)
(0.000148096 -0.00015118 0)
(0.000474128 -0.000308028 0)
(0.000949023 -0.000446479 0)
(0.00155732 -0.000537305 0)
(0.00223673 -0.000588493 0)
(0.00295479 -0.000597381 0)
(0.00365957 -0.000574411 0)
(0.00432439 -0.000524451 0)
(0.00491741 -0.000457576 0)
(0.00542603 -0.000380544 0)
(0.0058387 -0.000301451 0)
(0.00615699 -0.000225679 0)
(0.00638441 -0.000158027 0)
(0.00653162 -0.000100912 0)
(0.00660939 -5.55276e-05 0)
(0.00663044 -2.12239e-05 0)
(0.00660512 3.71051e-06 0)
(0.00654199 2.20884e-05 0)
(0.0064455 3.72035e-05 0)
(0.00631647 5.26293e-05 0)
(0.00615132 7.1749e-05 0)
(0.00594283 9.75583e-05 0)
(0.00568036 0.000132425 0)
(0.00535087 0.000178067 0)
(0.00493944 0.000235571 0)
(0.0044301 0.000305545 0)
(0.00380622 0.000388278 0)
(0.00305094 0.000483903 0)
(0.00214729 0.000592508 0)
(0.00107843 0.000714176 0)
(-0.000172305 0.000848964 0)
(-0.00162117 0.000996831 0)
(-0.0032837 0.00115755 0)
(-0.00517434 0.00133059 0)
(-0.0073059 0.00151509 0)
(-0.00968904 0.00170974 0)
(-0.0123316 0.00191277 0)
(-0.0152381 0.00212196 0)
(-0.018409 0.0023346 0)
(-0.0218402 0.00254753 0)
(-0.0255228 0.0027572 0)
(-0.0294424 0.0029597 0)
(-0.0335791 0.00315086 0)
(-0.0379075 0.00332633 0)
(-0.0423968 0.00348169 0)
(-0.0470107 0.00361253 0)
(-0.0517084 0.00371458 0)
(-0.0564447 0.00378381 0)
(-0.0611708 0.00381648 0)
(-0.0658351 0.00380926 0)
(-0.0703838 0.00375928 0)
(-0.074762 0.00366415 0)
(-0.0789142 0.00352206 0)
(-0.0827853 0.00333176 0)
(-0.0863213 0.00309263 0)
(-0.0894701 0.00280466 0)
(-0.0921822 0.00246853 0)
(-0.0944111 0.0020856 0)
(-0.0961143 0.00165797 0)
(-0.0972537 0.00118852 0)
(-0.0977962 0.000680919 0)
(-0.0977144 0.000139744 0)
(-0.0969871 -0.000429542 0)
(-0.0955999 -0.00102053 0)
(-0.0935458 -0.00162583 0)
(-0.0908259 -0.00223713 0)
(-0.0874496 -0.0028452 0)
(-0.0834355 -0.00343997 0)
(-0.0788116 -0.00401073 0)
(-0.0736153 -0.00454627 0)
(-0.067894 -0.00503516 0)
(-0.0617048 -0.00546611 0)
(-0.0551139 -0.00582827 0)
(-0.0481966 -0.00611171 0)
(-0.0410357 -0.00630787 0)
(-0.0337208 -0.00640996 0)
(-0.0263466 -0.00641341 0)
(-0.0190111 -0.00631625 0)
(-0.011813 -0.00611935 0)
(-0.00485031 -0.00582662 0)
(0.00178302 -0.00544498 0)
(0.00799913 -0.00498423 0)
(0.0137189 -0.00445677 0)
(0.0188741 -0.00387712 0)
(0.0234096 -0.00326132 0)
(0.0272848 -0.00262626 0)
(0.0304746 -0.00198895 0)
(0.0329704 -0.00136577 0)
(0.0347796 -0.000771752 0)
(0.0359253 -0.000220031 0)
(0.0364447 0.000278671 0)
(0.0363874 0.000716355 0)
(0.0358132 0.00108788 0)
(0.0347892 0.00139097 0)
(0.0333875 0.00162598 0)
(0.0316818 0.00179569 0)
(0.0297449 0.00190476 0)
(0.0276464 0.00195941 0)
(0.0254505 0.00196679 0)
(0.0232143 0.00193463 0)
(0.0209871 0.0018707 0)
(0.0188095 0.00178259 0)
(0.0167141 0.00167725 0)
(0.0147244 0.00156107 0)
(0.0128573 0.0014394 0)
(0.0111218 0.00131703 0)
(0.00952277 0.00119745 0)
(0.0080581 0.00108383 0)
(0.00672514 0.000977539 0)
(0.00551518 0.000879944 0)
(0.00442404 0.000789478 0)
(0.00344181 0.000705284 0)
(0.00257045 0.000621395 0)
(0.00180509 0.000535062 0)
(0.00116146 0.00043518 0)
(0.000642647 0.000322425 0)
(0.000276205 0.000186138 0)
(5.90523e-05 5.62657e-05 0)
(-7.60717e-06 -4.27295e-05 0)
(3.77832e-05 -9.87539e-05 0)
(0.000295819 -0.000474421 0)
(0.000822444 -0.000838622 0)
(0.00153784 -0.00115101 0)
(0.00242508 -0.00136276 0)
(0.00339879 -0.00148002 0)
(0.00441738 -0.00150029 0)
(0.00541167 -0.00144206 0)
(0.00634512 -0.00131882 0)
(0.00717454 -0.00115184 0)
(0.00788106 -0.000958304 0)
(0.0084477 -0.000756407 0)
(0.00887408 -0.000559755 0)
(0.00916288 -0.0003795 0)
(0.00932584 -0.000222002 0)
(0.0093752 -9.01187e-05 0)
(0.00932548 1.73675e-05 0)
(0.00918819 0.00010459 0)
(0.00897216 0.000178235 0)
(0.00868064 0.000246385 0)
(0.00831173 0.000317788 0)
(0.00785739 0.000400873 0)
(0.00730444 0.000503138 0)
(0.00663494 0.000630633 0)
(0.00582744 0.000787817 0)
(0.00485791 0.000977608 0)
(0.00370081 0.00120168 0)
(0.00232979 0.00146082 0)
(0.000718387 0.00175523 0)
(-0.00115951 0.0020848 0)
(-0.00332924 0.00244912 0)
(-0.00581487 0.00284747 0)
(-0.00863859 0.00327857 0)
(-0.0118201 0.0037404 0)
(-0.0153755 0.00423 0)
(-0.0193167 0.00474327 0)
(-0.0236502 0.00527488 0)
(-0.0283762 0.00581827 0)
(-0.0334878 0.00636562 0)
(-0.0389703 0.00690801 0)
(-0.0448007 0.00743556 0)
(-0.0509474 0.00793761 0)
(-0.0573706 0.00840306 0)
(-0.0640221 0.00882061 0)
(-0.0708467 0.00917908 0)
(-0.0777825 0.00946776 0)
(-0.0847625 0.00967668 0)
(-0.0917157 0.0097969 0)
(-0.0985687 0.00982072 0)
(-0.105247 0.00974184 0)
(-0.111676 0.00955547 0)
(-0.117783 0.00925841 0)
(-0.123499 0.00884902 0)
(-0.128756 0.00832717 0)
(-0.133493 0.00769426 0)
(-0.137652 0.00695305 0)
(-0.141182 0.00610766 0)
(-0.144037 0.00516348 0)
(-0.146177 0.00412713 0)
(-0.147568 0.00300645 0)
(-0.148182 0.00181051 0)
(-0.148 0.000549626 0)
(-0.147005 -0.000764615 0)
(-0.14519 -0.00211928 0)
(-0.142555 -0.00350006 0)
(-0.139106 -0.00489128 0)
(-0.134857 -0.00627588 0)
(-0.129828 -0.0076355 0)
(-0.124051 -0.00895064 0)
(-0.117564 -0.0102008 0)
(-0.110412 -0.011365 0)
(-0.102652 -0.0124219 0)
(-0.0943485 -0.0133504 0)
(-0.0855744 -0.0141305 0)
(-0.0764113 -0.0147436 0)
(-0.0669486 -0.0151736 0)
(-0.0572826 -0.0154072 0)
(-0.0475155 -0.0154353 0)
(-0.0377534 -0.015253 0)
(-0.0281054 -0.0148605 0)
(-0.0186808 -0.0142634 0)
(-0.00958726 -0.013473 0)
(-0.000928503 -0.0125058 0)
(0.00719829 -0.0113837 0)
(0.0147047 -0.0101331 0)
(0.0215136 -0.00878374 0)
(0.0275607 -0.00736841 0)
(0.0327968 -0.00592109 0)
(0.0371889 -0.00447598 0)
(0.0407212 -0.00306613 0)
(0.0433954 -0.00172221 0)
(0.0452307 -0.000471396 0)
(0.0462633 0.000663613 0)
(0.0465445 0.00166528 0)
(0.0461391 0.0025217 0)
(0.0451233 0.00322674 0)
(0.043581 0.00377989 0)
(0.0416012 0.00418583 0)
(0.0392746 0.00445373 0)
(0.0366901 0.00459635 0)
(0.033932 0.00462905 0)
(0.0310777 0.00456875 0)
(0.0281956 0.00443298 0)
(0.025344 0.00423893 0)
(0.0225699 0.00400297 0)
(0.0199106 0.00373977 0)
(0.0173919 0.00346251 0)
(0.0150321 0.00318183 0)
(0.0128389 0.00290672 0)
(0.0108172 0.00264267 0)
(0.00896262 0.00239358 0)
(0.00727479 0.00215795 0)
(0.00574458 0.00193345 0)
(0.00437718 0.00170924 0)
(0.00316652 0.00147775 0)
(0.00213401 0.00121948 0)
(0.00127896 0.000933004 0)
(0.000641345 0.000603812 0)
(0.000209576 0.000280485 0)
(1.991e-05 4.96641e-06 0)
(6.24396e-05 -0.000270597 0)
(0.000427205 -0.000939805 0)
(0.00112618 -0.00155168 0)
(0.00203493 -0.00205725 0)
(0.00313425 -0.00239907 0)
(0.00431846 -0.00258166 0)
(0.00554205 -0.00260476 0)
(0.00672378 -0.00249493 0)
(0.00782236 -0.00227558 0)
(0.00878714 -0.00198013 0)
(0.00959569 -0.00163757 0)
(0.010227 -0.00127731 0)
(0.0106787 -0.000922237 0)
(0.0109517 -0.000590602 0)
(0.0110566 -0.000293158 0)
(0.0110043 -3.45058e-05 0)
(0.0108082 0.000187422 0)
(0.0104774 0.000379798 0)
(0.0100181 0.000554073 0)
(0.00942915 0.000724186 0)
(0.00870359 0.000905192 0)
(0.00782698 0.00111165 0)
(0.00677881 0.00135653 0)
(0.00553303 0.0016503 0)
(0.00405966 0.00200069 0)
(0.00232588 0.00241273 0)
(0.00029746 0.00288917 0)
(-0.00206021 0.00343101 0)
(-0.00478109 0.004038 0)
(-0.00789766 0.00470887 0)
(-0.01144 0.00544142 0)
(-0.0154347 0.00623234 0)
(-0.0199038 0.00707684 0)
(-0.0248636 0.00796838 0)
(-0.0303231 0.00889833 0)
(-0.036283 0.0098558 0)
(-0.0427342 0.0108276 0)
(-0.049657 0.0117984 0)
(-0.0570206 0.012751 0)
(-0.0647829 0.0136666 0)
(-0.0728904 0.0145255 0)
(-0.0812797 0.0153077 0)
(-0.0898779 0.0159932 0)
(-0.0986052 0.0165633 0)
(-0.107376 0.0170006 0)
(-0.116102 0.0172899 0)
(-0.124693 0.0174185 0)
(-0.133061 0.0173765 0)
(-0.14112 0.0171571 0)
(-0.148788 0.0167561 0)
(-0.15599 0.0161726 0)
(-0.162657 0.0154081 0)
(-0.168727 0.0144665 0)
(-0.174145 0.0133538 0)
(-0.178864 0.0120778 0)
(-0.182843 0.0106479 0)
(-0.186048 0.00907463 0)
(-0.188451 0.00736987 0)
(-0.190032 0.00554648 0)
(-0.190772 0.00361833 0)
(-0.190662 0.00160039 0)
(-0.189694 -0.000491277 0)
(-0.187867 -0.00263937 0)
(-0.185183 -0.00482525 0)
(-0.181651 -0.00702879 0)
(-0.177281 -0.00922833 0)
(-0.172093 -0.0114006 0)
(-0.16611 -0.0135206 0)
(-0.15936 -0.015562 0)
(-0.15188 -0.0174971 0)
(-0.143712 -0.0192972 0)
(-0.134908 -0.0209333 0)
(-0.125525 -0.0223762 0)
(-0.115629 -0.023598 0)
(-0.105297 -0.0245724 0)
(-0.0946097 -0.0252759 0)
(-0.0836582 -0.0256888 0)
(-0.0725395 -0.0257964 0)
(-0.0613562 -0.0255897 0)
(-0.0502151 -0.0250665 0)
(-0.0392257 -0.0242316 0)
(-0.0284977 -0.0230978 0)
(-0.0181394 -0.0216853 0)
(-0.0082549 -0.0200219 0)
(0.0010576 -0.0181418 0)
(0.00970839 -0.0160853 0)
(0.0176181 -0.0138971 0)
(0.0247194 -0.0116251 0)
(0.0309589 -0.00931865 0)
(0.0362982 -0.00702709 0)
(0.0407148 -0.00479799 0)
(0.044203 -0.00267562 0)
(0.0467739 -0.00069949 0)
(0.0484558 0.00109695 0)
(0.0492927 0.00268737 0)
(0.0493442 0.00405327 0)
(0.0486826 0.00518443 0)
(0.0473912 0.00607886 0)
(0.0455613 0.00674246 0)
(0.0432887 0.00718808 0)
(0.0406699 0.00743448 0)
(0.0377995 0.00750478 0)
(0.0347661 0.00742506 0)
(0.0316505 0.00722262 0)
(0.0285228 0.00692491 0)
(0.0254425 0.00655785 0)
(0.0224562 0.00614551 0)
(0.0196009 0.00570846 0)
(0.0169 0.00526434 0)
(0.014372 0.00482538 0)
(0.0120224 0.00440035 0)
(0.0098601 0.00398987 0)
(0.00788046 0.0035916 0)
(0.00609504 0.00319147 0)
(0.00449749 0.0027776 0)
(0.00311586 0.0023235 0)
(0.00194434 0.00182356 0)
(0.00103804 0.00125848 0)
(0.00037884 0.000681518 0)
(5.16148e-05 0.000138422 0)
(7.79003e-05 -0.000505453 0)
(0.000522538 -0.00154165 0)
(0.00135761 -0.002445 0)
(0.00241751 -0.00316474 0)
(0.0036773 -0.00364336 0)
(0.00501078 -0.00388526 0)
(0.00636872 -0.00389574 0)
(0.00765972 -0.00371046 0)
(0.00884006 -0.00336497 0)
(0.00985406 -0.00290601 0)
(0.0106779 -0.00237593 0)
(0.011288 -0.0018163 0)
(0.011681 -0.0012601 0)
(0.0118556 -0.000733006 0)
(0.0118208 -0.000250203 0)
(0.0115847 0.00018236 0)
(0.0111571 0.000568284 0)
(0.0105427 0.000918764 0)
(0.009742 0.00125115 0)
(0.0087474 0.00158647 0)
(0.00754422 0.00194722 0)
(0.00610976 0.00235507 0)
(0.00441481 0.00282918 0)
(0.00242452 0.00338486 0)
(0.000100359 0.00403318 0)
(-0.00259844 0.004781 0)
(-0.00571307 0.00563154 0)
(-0.00928377 0.00658504 0)
(-0.0133483 0.00763929 0)
(-0.0179407 0.00878995 0)
(-0.0230895 0.0100305 0)
(-0.0288161 0.0113518 0)
(-0.0351334 0.012742 0)
(-0.0420437 0.0141857 0)
(-0.0495374 0.0156641 0)
(-0.0575914 0.017155 0)
(-0.0661687 0.0186327 0)
(-0.0752183 0.0200692 0)
(-0.0846753 0.0214344 0)
(-0.0944624 0.0226978 0)
(-0.104492 0.0238287 0)
(-0.114668 0.0247981 0)
(-0.124891 0.0255797 0)
(-0.135057 0.0261502 0)
(-0.145064 0.026491 0)
(-0.154815 0.0265879 0)
(-0.164218 0.0264313 0)
(-0.173188 0.0260167 0)
(-0.18165 0.0253438 0)
(-0.189537 0.0244163 0)
(-0.196793 0.0232413 0)
(-0.20337 0.0218287 0)
(-0.209229 0.0201904 0)
(-0.214338 0.0183403 0)
(-0.218671 0.016293 0)
(-0.22221 0.0140643 0)
(-0.224939 0.0116706 0)
(-0.226847 0.00912864 0)
(-0.227928 0.00645575 0)
(-0.228175 0.00366979 0)
(-0.227586 0.000789349 0)
(-0.226161 -0.00216607 0)
(-0.223901 -0.00517579 0)
(-0.220809 -0.0082177 0)
(-0.216892 -0.011268 0)
(-0.212157 -0.0143009 0)
(-0.206617 -0.0172885 0)
(-0.200287 -0.0202009 0)
(-0.193189 -0.0230059 0)
(-0.185347 -0.0256692 0)
(-0.176795 -0.0281552 0)
(-0.167571 -0.030427 0)
(-0.157724 -0.0324473 0)
(-0.147308 -0.0341795 0)
(-0.136388 -0.0355888 0)
(-0.125037 -0.0366431 0)
(-0.113339 -0.0373149 0)
(-0.101383 -0.0375822 0)
(-0.0892685 -0.0374303 0)
(-0.0770991 -0.0368526 0)
(-0.0649837 -0.0358517 0)
(-0.0530335 -0.0344399 0)
(-0.0413597 -0.0326395 0)
(-0.0300716 -0.0304826 0)
(-0.0192738 -0.02801 0)
(-0.0090644 -0.0252707 0)
(0.000467407 -0.0223199 0)
(0.00924276 -0.0192176 0)
(0.0171947 -0.0160268 0)
(0.0242692 -0.0128116 0)
(0.030426 -0.00963492 0)
(0.0356396 -0.00655727 0)
(0.0398994 -0.0036346 0)
(0.0432103 -0.000916826 0)
(0.0455927 0.00155359 0)
(0.0470827 0.00374295 0)
(0.0477313 0.00562729 0)
(0.0476036 0.00719296 0)
(0.0467767 0.00843693 0)
(0.0453379 0.00936633 0)
(0.0433811 0.00999772 0)
(0.0410041 0.0103556 0)
(0.0383043 0.0104708 0)
(0.0353759 0.0103782 0)
(0.0323058 0.0101153 0)
(0.0291728 0.00971936 0)
(0.026043 0.00922637 0)
(0.0229734 0.00866877 0)
(0.0200055 0.00807515 0)
(0.0171751 0.00746717 0)
(0.0145012 0.00686087 0)
(0.0120057 0.00626161 0)
(0.00969201 0.00566891 0)
(0.00758116 0.00506769 0)
(0.00566892 0.0044422 0)
(0.0039925 0.00376041 0)
(0.00254343 0.00300952 0)
(0.00139556 0.00216378 0)
(0.000528487 0.00126749 0)
(7.7994e-05 0.000358052 0)
(8.95047e-05 -0.000778308 0)
(0.000596254 -0.00223387 0)
(0.00153591 -0.00345483 0)
(0.00270848 -0.00439349 0)
(0.00408079 -0.0049996 0)
(0.00550747 -0.00528158 0)
(0.0069352 -0.00525435 0)
(0.00826398 -0.00496459 0)
(0.00944904 -0.00446177 0)
(0.0104316 -0.00380676 0)
(0.0111881 -0.00305576 0)
(0.0116937 -0.00226236 0)
(0.0119445 -0.00146923 0)
(0.0119375 -0.000708718 0)
(0.0116791 5.22046e-07 0)
(0.0111732 0.000652303 0)
(0.0104245 0.00125292 0)
(0.00943088 0.00181873 0)
(0.00818474 0.00237404 0)
(0.00666954 0.00294777 0)
(0.00486101 0.00357041 0)
(0.00272662 0.00427093 0)
(0.000227658 0.00507444 0)
(-0.00267944 0.00600051 0)
(-0.00604068 0.00706257 0)
(-0.0099026 0.00826797 0)
(-0.01431 0.00961866 0)
(-0.0193043 0.0111119 0)
(-0.0249208 0.0127407 0)
(-0.0311876 0.0144943 0)
(-0.0381226 0.0163578 0)
(-0.0457318 0.0183118 0)
(-0.0540071 0.020332 0)
(-0.0629247 0.0223894 0)
(-0.0724439 0.0244501 0)
(-0.0825071 0.0264761 0)
(-0.0930403 0.0284265 0)
(-0.103955 0.0302589 0)
(-0.11515 0.0319308 0)
(-0.126516 0.0334016 0)
(-0.137939 0.0346342 0)
(-0.149304 0.0355965 0)
(-0.1605 0.0362624 0)
(-0.171421 0.0366126 0)
(-0.181971 0.0366347 0)
(-0.192065 0.0363233 0)
(-0.20163 0.0356789 0)
(-0.210604 0.0347077 0)
(-0.218937 0.0334203 0)
(-0.22659 0.0318306 0)
(-0.233533 0.0299551 0)
(-0.239744 0.0278122 0)
(-0.245205 0.025421 0)
(-0.249906 0.0228009 0)
(-0.25384 0.0199716 0)
(-0.257 0.0169524 0)
(-0.259385 0.0137623 0)
(-0.260989 0.0104202 0)
(-0.261813 0.00694468 0)
(-0.261853 0.00335467 0)
(-0.261107 -0.000330442 0)
(-0.259574 -0.00409038 0)
(-0.25725 -0.00790357 0)
(-0.254134 -0.0117467 0)
(-0.250226 -0.0155944 0)
(-0.245525 -0.0194187 0)
(-0.240034 -0.0231891 0)
(-0.233758 -0.0268717 0)
(-0.226708 -0.0304299 0)
(-0.218895 -0.0338242 0)
(-0.210341 -0.0370125 0)
(-0.201071 -0.0399504 0)
(-0.191121 -0.0425927 0)
(-0.180533 -0.0448938 0)
(-0.16936 -0.0468094 0)
(-0.157666 -0.048298 0)
(-0.145524 -0.0493226 0)
(-0.133019 -0.0498523 0)
(-0.120244 -0.0498644 0)
(-0.107302 -0.049346 0)
(-0.0943004 -0.0482949 0)
(-0.0813541 -0.0467212 0)
(-0.0685789 -0.044647 0)
(-0.0560903 -0.0421067 0)
(-0.0440008 -0.0391462 0)
(-0.0324168 -0.0358214 0)
(-0.0214366 -0.0321967 0)
(-0.0111487 -0.0283426 0)
(-0.00162964 -0.0243339 0)
(0.00705607 -0.0202471 0)
(0.014857 -0.0161586 0)
(0.0217347 -0.0121424 0)
(0.0276642 -0.00826849 0)
(0.0326337 -0.00460125 0)
(0.0366448 -0.00119781 0)
(0.039713 0.00189329 0)
(0.0418676 0.00463344 0)
(0.043152 0.00699502 0)
(0.0436231 0.0089623 0)
(0.0433506 0.0105317 0)
(0.042415 0.0117119 0)
(0.0409056 0.0125226 0)
(0.0389166 0.0129935 0)
(0.0365452 0.0131619 0)
(0.0338856 0.013071 0)
(0.031029 0.0127665 0)
(0.0280564 0.0122949 0)
(0.0250419 0.0116999 0)
(0.0220444 0.0110217 0)
(0.0191175 0.010293 0)
(0.0162959 0.00953879 0)
(0.0136166 0.00877186 0)
(0.0110941 0.00799572 0)
(0.00876129 0.00719695 0)
(0.00661906 0.00635719 0)
(0.0047159 0.00544026 0)
(0.00304398 0.00442334 0)
(0.00169665 0.0032712 0)
(0.000654907 0.00200657 0)
(0.000100049 0.0006476 0)
(9.72521e-05 -0.00108572 0)
(0.000649474 -0.00300607 0)
(0.00166578 -0.0045672 0)
(0.00291681 -0.00572772 0)
(0.00435959 -0.00644884 0)
(0.00583061 -0.00674696 0)
(0.00727153 -0.00665054 0)
(0.00857472 -0.00622011 0)
(0.00969492 -0.00552153 0)
(0.0105717 -0.00463104 0)
(0.0111828 -0.00361949 0)
(0.0115034 -0.00255233 0)
(0.0115297 -0.00148136 0)
(0.0112568 -0.00044438 0)
(0.0106881 0.000537852 0)
(0.0098224 0.00146055 0)
(0.00865738 0.00233429 0)
(0.00718226 0.00318212 0)
(0.00537946 0.00403645 0)
(0.00322161 0.00493486 0)
(0.000673436 0.00591608 0)
(-0.00230802 0.00701598 0)
(-0.00577064 0.00826467 0)
(-0.00976522 0.00968443 0)
(-0.0143425 0.011289 0)
(-0.0195505 0.0130837 0)
(-0.0254323 0.015066 0)
(-0.0320227 0.0172265 0)
(-0.0393465 0.0195494 0)
(-0.047415 0.0220124 0)
(-0.0562244 0.0245868 0)
(-0.0657528 0.0272373 0)
(-0.0759592 0.0299222 0)
(-0.0867829 0.032594 0)
(-0.0981437 0.0352006 0)
(-0.109945 0.037687 0)
(-0.122074 0.0399976 0)
(-0.134411 0.0420787 0)
(-0.146829 0.0438807 0)
(-0.159203 0.0453604 0)
(-0.17141 0.0464826 0)
(-0.18334 0.0472214 0)
(-0.194892 0.0475599 0)
(-0.20598 0.0474904 0)
(-0.216533 0.0470138 0)
(-0.226493 0.0461379 0)
(-0.235817 0.0448761 0)
(-0.244473 0.0432465 0)
(-0.252438 0.0412698 0)
(-0.259698 0.0389689 0)
(-0.266245 0.0363672 0)
(-0.272074 0.033488 0)
(-0.277186 0.0303544 0)
(-0.281578 0.0269883 0)
(-0.285253 0.0234107 0)
(-0.288211 0.0196414 0)
(-0.290451 0.0156996 0)
(-0.291973 0.0116034 0)
(-0.292773 0.00737086 0)
(-0.292849 0.00302012 0)
(-0.292194 -0.0014302 0)
(-0.290803 -0.00596041 0)
(-0.288668 -0.0105492 0)
(-0.285781 -0.0151732 0)
(-0.282135 -0.0198063 0)
(-0.277721 -0.0244194 0)
(-0.272532 -0.0289796 0)
(-0.266565 -0.0334505 0)
(-0.259815 -0.0377914 0)
(-0.252285 -0.0419577 0)
(-0.243981 -0.0459012 0)
(-0.234916 -0.0495703 0)
(-0.225109 -0.0529111 0)
(-0.21459 -0.0558685 0)
(-0.203398 -0.0583875 0)
(-0.191583 -0.0604157 0)
(-0.179208 -0.0619043 0)
(-0.166349 -0.0628115 0)
(-0.153092 -0.0631039 0)
(-0.139536 -0.0627594 0)
(-0.125792 -0.0617685 0)
(-0.111977 -0.0601363 0)
(-0.0982128 -0.0578829 0)
(-0.0846258 -0.0550437 0)
(-0.0713395 -0.0516686 0)
(-0.058473 -0.0478206 0)
(-0.0461377 -0.0435733 0)
(-0.0344342 -0.0390087 0)
(-0.0234506 -0.0342141 0)
(-0.0132613 -0.0292793 0)
(-0.00392648 -0.024294 0)
(0.00450746 -0.0193453 0)
(0.0120074 -0.0145162 0)
(0.0185525 -0.00988346 0)
(0.0241342 -0.00551682 0)
(0.028755 -0.00147746 0)
(0.0324291 0.00218308 0)
(0.0351829 0.00542405 0)
(0.0370544 0.00821665 0)
(0.0380945 0.0105449 0)
(0.0383661 0.0124063 0)
(0.0379431 0.0138117 0)
(0.0369085 0.0147847 0)
(0.0353527 0.0153597 0)
(0.0333684 0.0155808 0)
(0.03105 0.0154977 0)
(0.0284862 0.0151641 0)
(0.0257627 0.0146331 0)
(0.0229519 0.0139553 0)
(0.020123 0.0131744 0)
(0.0173253 0.0123255 0)
(0.0146117 0.0114302 0)
(0.0120089 0.0104978 0)
(0.00956345 0.00951869 0)
(0.00728424 0.00847287 0)
(0.0052327 0.00732121 0)
(0.00340532 0.00602878 0)
(0.00191435 0.00454869 0)
(0.000745102 0.00287372 0)
(0.000115055 0.000995072 0)
(0.000103937 -0.00141404 0)
(0.000691281 -0.00382848 0)
(0.00176156 -0.00573932 0)
(0.00305998 -0.00711299 0)
(0.00453253 -0.00792576 0)
(0.00599948 -0.00820645 0)
(0.00739723 -0.00800136 0)
(0.00861204 -0.00738812 0)
(0.0095989 -0.00645145 0)
(0.0102972 -0.00528417 0)
(0.0106869 -0.00397204 0)
(0.0107437 -0.00259168 0)
(0.0104643 -0.00120265 0)
(0.0098418 0.00015366 0)
(0.00887561 0.00145652 0)
(0.00755804 0.0027047 0)
(0.00587812 0.00391504 0)
(0.00381461 0.00511878 0)
(0.00133836 0.00635741 0)
(-0.00158997 0.00767736 0)
(-0.00501694 0.00912487 0)
(-0.00899518 0.0107413 0)
(-0.0135797 0.0125593 0)
(-0.0188249 0.014601 0)
(-0.0247812 0.0168769 0)
(-0.0314919 0.0193858 0)
(-0.0389893 0.0221164 0)
(-0.0472928 0.0250473 0)
(-0.0564049 0.0281479 0)
(-0.066309 0.0313784 0)
(-0.0769674 0.0346909 0)
(-0.0883199 0.0380291 0)
(-0.100284 0.0413302 0)
(-0.112758 0.0445269 0)
(-0.125622 0.0475497 0)
(-0.138745 0.0503305 0)
(-0.15199 0.0528055 0)
(-0.165219 0.0549183 0)
(-0.178302 0.0566223 0)
(-0.191118 0.0578824 0)
(-0.203561 0.0586753 0)
(-0.215542 0.0589894 0)
(-0.226988 0.0588241 0)
(-0.237846 0.0581876 0)
(-0.248073 0.0570958 0)
(-0.257644 0.0555698 0)
(-0.266542 0.0536346 0)
(-0.274758 0.0513172 0)
(-0.28229 0.0486455 0)
(-0.28914 0.045647 0)
(-0.295312 0.0423485 0)
(-0.30081 0.0387753 0)
(-0.305641 0.0349508 0)
(-0.309809 0.0308971 0)
(-0.313316 0.0266342 0)
(-0.316167 0.0221809 0)
(-0.318361 0.0175548 0)
(-0.319897 0.0127726 0)
(-0.320772 0.00785046 0)
(-0.320982 0.00280495 0)
(-0.320519 -0.00234692 0)
(-0.319376 -0.00758691 0)
(-0.317542 -0.012895 0)
(-0.315005 -0.0182487 0)
(-0.311753 -0.0236225 0)
(-0.307771 -0.0289873 0)
(-0.303045 -0.0343097 0)
(-0.29756 -0.0395518 0)
(-0.291304 -0.0446706 0)
(-0.284265 -0.0496181 0)
(-0.276436 -0.0543412 0)
(-0.267813 -0.058782 0)
(-0.258399 -0.0628789 0)
(-0.248206 -0.0665674 0)
(-0.237254 -0.0697818 0)
(-0.225578 -0.0724574 0)
(-0.213222 -0.0745322 0)
(-0.200249 -0.0759506 0)
(-0.186733 -0.0766655 0)
(-0.172766 -0.0766417 0)
(-0.158455 -0.0758583 0)
(-0.143918 -0.0743112 0)
(-0.129285 -0.0720144 0)
(-0.114692 -0.069001 0)
(-0.100279 -0.0653223 0)
(-0.0861811 -0.0610467 0)
(-0.0725302 -0.0562569 0)
(-0.059446 -0.051047 0)
(-0.0470346 -0.0455183 0)
(-0.0353861 -0.0397757 0)
(-0.0245733 -0.0339243 0)
(-0.0146519 -0.0280658 0)
(-0.00566187 -0.0222968 0)
(0.00237121 -0.0167064 0)
(0.00943417 -0.0113755 0)
(0.0155247 -0.00637592 0)
(0.0206503 -0.00176971 0)
(0.0248278 0.00239164 0)
(0.0280835 0.00606808 0)
(0.0304541 0.00923201 0)
(0.0319865 0.0118693 0)
(0.0327391 0.0139798 0)
(0.03278 0.0155776 0)
(0.0321876 0.0166903 0)
(0.0310461 0.0173577 0)
(0.0294459 0.017629 0)
(0.0274762 0.0175602 0)
(0.0252274 0.0172103 0)
(0.0227802 0.0166376 0)
(0.0202148 0.0158953 0)
(0.0175933 0.0150279 0)
(0.0149822 0.0140665 0)
(0.012421 0.0130267 0)
(0.00996994 0.0119045 0)
(0.00764805 0.0106791 0)
(0.00553001 0.00930917 0)
(0.00361978 0.00774671 0)
(0.00204582 0.00593155 0)
(0.000799953 0.00382175 0)
(0.000124092 0.0013779 0)
(0.00010935 -0.00176331 0)
(0.000722303 -0.00469334 0)
(0.00182605 -0.00695563 0)
(0.00314221 -0.00852664 0)
(0.00460509 -0.00940099 0)
(0.00602057 -0.00962407 0)
(0.00732002 -0.00926434 0)
(0.00838526 -0.00841999 0)
(0.00917233 -0.00719721 0)
(0.00962177 -0.00570661 0)
(0.00971622 -0.00404908 0)
(0.0094328 -0.00231141 0)
(0.00876824 -0.00055922 0)
(0.00771293 0.0011648 0)
(0.00626127 0.00284246 0)
(0.00439763 0.00447852 0)
(0.00210094 0.00609812 0)
(-0.000661852 0.00774215 0)
(-0.00393229 0.0094616 0)
(-0.00776159 0.0113112 0)
(-0.0122063 0.013343 0)
(-0.0173259 0.0156009 0)
(-0.0231782 0.0181167 0)
(-0.0298155 0.0209075 0)
(-0.0372802 0.0239753 0)
(-0.0456013 0.0273074 0)
(-0.0547908 0.0308768 0)
(-0.0648405 0.0346441 0)
(-0.0757197 0.0385577 0)
(-0.0873729 0.042555 0)
(-0.0997201 0.0465642 0)
(-0.112658 0.0505062 0)
(-0.126062 0.054298 0)
(-0.139794 0.057856 0)
(-0.153707 0.0611003 0)
(-0.167652 0.0639591 0)
(-0.181487 0.0663712 0)
(-0.195081 0.0682893 0)
(-0.208318 0.0696805 0)
(-0.221103 0.0705264 0)
(-0.23336 0.0708224 0)
(-0.245032 0.0705753 0)
(-0.256079 0.0698014 0)
(-0.266475 0.0685242 0)
(-0.276207 0.0667717 0)
(-0.28527 0.064575 0)
(-0.293665 0.061966 0)
(-0.301398 0.058977 0)
(-0.308477 0.0556386 0)
(-0.314912 0.0519802 0)
(-0.320712 0.0480291 0)
(-0.325887 0.0438102 0)
(-0.330444 0.0393463 0)
(-0.334392 0.0346581 0)
(-0.337736 0.0297644 0)
(-0.340481 0.0246823 0)
(-0.34263 0.0194275 0)
(-0.344183 0.0140149 0)
(-0.345141 0.0084589 0)
(-0.345499 0.00277384 0)
(-0.345252 -0.0030253 0)
(-0.344392 -0.00892237 0)
(-0.342909 -0.0148994 0)
(-0.340789 -0.0209359 0)
(-0.338016 -0.0270081 0)
(-0.334573 -0.0330885 0)
(-0.330439 -0.0391445 0)
(-0.325591 -0.0451387 0)
(-0.320007 -0.0510275 0)
(-0.313662 -0.0567613 0)
(-0.306534 -0.0622839 0)
(-0.298604 -0.067533 0)
(-0.289854 -0.0724405 0)
(-0.280276 -0.0769336 0)
(-0.269867 -0.0809361 0)
(-0.258639 -0.0843704 0)
(-0.246614 -0.0871604 0)
(-0.233832 -0.0892341 0)
(-0.220349 -0.0905275 0)
(-0.206242 -0.090988 0)
(-0.191606 -0.0905783 0)
(-0.176556 -0.0892796 0)
(-0.161223 -0.0870941 0)
(-0.145751 -0.084047 0)
(-0.130297 -0.0801867 0)
(-0.115016 -0.0755836 0)
(-0.100067 -0.0703281 0)
(-0.0855954 -0.0645262 0)
(-0.0717362 -0.0582954 0)
(-0.0586052 -0.0517589 0)
(-0.0462973 -0.0450412 0)
(-0.0348856 -0.0382632 0)
(-0.0244218 -0.0315386 0)
(-0.0149385 -0.0249719 0)
(-0.00645169 -0.0186566 0)
(0.00103564 -0.0126752 0)
(0.00753098 -0.00709869 0)
(0.0130503 -0.00198684 0)
(0.0176167 0.00261195 0)
(0.0212606 0.00666118 0)
(0.0240199 0.0101371 0)
(0.0259415 0.0130295 0)
(0.0270808 0.0153425 0)
(0.0275035 0.0170948 0)
(0.0272826 0.0183189 0)
(0.0264998 0.0190595 0)
(0.0252391 0.0193711 0)
(0.0235899 0.0193142 0)
(0.0216355 0.0189515 0)
(0.0194624 0.0183428 0)
(0.017141 0.0175404 0)
(0.0147492 0.0165837 0)
(0.0123377 0.0154949 0)
(0.00997933 0.0142756 0)
(0.0077044 0.0129048 0)
(0.00560017 0.0113398 0)
(0.00368028 0.0095193 0)
(0.00208585 0.00736971 0)
(0.000816422 0.00481357 0)
(0.000126316 0.00178006 0)
(0.000114369 -0.0021261 0)
(0.000745059 -0.00558067 0)
(0.00186246 -0.00818403 0)
(0.00316623 -0.00992482 0)
(0.00457844 -0.0108201 0)
(0.00589297 -0.0109364 0)
(0.00703703 -0.010369 0)
(0.00789023 -0.00924006 0)
(0.00841075 -0.00767967 0)
(0.00854164 -0.00581706 0)
(0.00826867 -0.00376782 0)
(0.00757034 -0.00162728 0)
(0.00644275 0.000535217 0)
(0.00487265 0.00267855 0)
(0.00284788 0.0047899 0)
(0.000343428 0.00688263 0)
(-0.00267317 0.00899201 0)
(-0.00624741 0.0111693 0)
(-0.0104329 0.0134747 0)
(-0.0152909 0.0159691 0)
(-0.0208846 0.0187072 0)
(-0.0272756 0.0217309 0)
(-0.0345174 0.0250655 0)
(-0.0426518 0.0287171 0)
(-0.0517033 0.0326727 0)
(-0.0616762 0.0369006 0)
(-0.0725507 0.0413521 0)
(-0.0842807 0.045963 0)
(-0.0967929 0.0506558 0)
(-0.109987 0.0553423 0)
(-0.12374 0.0599266 0)
(-0.137908 0.0643102 0)
(-0.152336 0.0683959 0)
(-0.166864 0.0720938 0)
(-0.181338 0.0753256 0)
(-0.195612 0.0780275 0)
(-0.20956 0.0801533 0)
(-0.223075 0.0816742 0)
(-0.236072 0.0825779 0)
(-0.248488 0.082867 0)
(-0.260279 0.0825561 0)
(-0.271418 0.081669 0)
(-0.28189 0.0802361 0)
(-0.291691 0.0782914 0)
(-0.300823 0.0758712 0)
(-0.309296 0.0730117 0)
(-0.317119 0.0697488 0)
(-0.324305 0.0661162 0)
(-0.330867 0.062146 0)
(-0.33682 0.0578676 0)
(-0.342178 0.0533079 0)
(-0.346953 0.0484912 0)
(-0.351157 0.0434395 0)
(-0.354804 0.0381723 0)
(-0.357902 0.032707 0)
(-0.360462 0.0270592 0)
(-0.362491 0.0212429 0)