/*--------------------------------*- C++ -*----------------------------------*\
| =========                 |                                                 |
| \\      /  F ield         | OpenFOAM: The Open Source CFD Toolbox           |
|  \\    /   O peration     | Version:  2406                                  |
|   \\  /    A nd           | Website:  www.openfoam.com                      |
|    \\/     M anipulation  |                                                 |
\*---------------------------------------------------------------------------*/
FoamFile
{
    version     2.0;
    format      ascii;
    arch        "LSB;label=32;scalar=64";
    class       volVectorField;
    location    "10.05";
    object      U;
}
// * * * * * * * * * * * * * * * * * * * * * * * * * * * * * * * * * * * * * //

dimensions      [0 1 -1 0 0 0 0];

internalField   nonuniform List<vector> 
3600
(
(2.72328e-05 -2.54509e-05 0)
(2.71482e-05 -3.11448e-06 0)
(-4.05437e-05 2.12395e-05 0)
(-0.000177128 4.16882e-05 0)
(-0.000356588 4.96682e-05 0)
(-0.000554983 5.38167e-05 0)
(-0.000765399 5.30747e-05 0)
(-0.000973038 5.26625e-05 0)
(-0.00118367 5.11285e-05 0)
(-0.00138823 5.09001e-05 0)
(-0.00159538 5.04266e-05 0)
(-0.00179801 5.09495e-05 0)
(-0.00200371 5.12265e-05 0)
(-0.00220606 5.20137e-05 0)
(-0.00241061 5.23968e-05 0)
(-0.00261137 5.28742e-05 0)
(-0.00281185 5.27662e-05 0)
(-0.00300631 5.23975e-05 0)
(-0.00319641 5.12469e-05 0)
(-0.00337655 4.95222e-05 0)
(-0.00354682 4.68245e-05 0)
(-0.00370169 4.32981e-05 0)
(-0.00384009 3.86591e-05 0)
(-0.00395671 3.3039e-05 0)
(-0.00404985 2.62748e-05 0)
(-0.00411472 1.85279e-05 0)
(-0.00414964 9.7647e-06 0)
(-0.00415082 2.04437e-07 0)
(-0.00411726 -1.00563e-05 0)
(-0.00404666 -2.07309e-05 0)
(-0.00393937 -3.16072e-05 0)
(-0.00379497 -4.23456e-05 0)
(-0.00361562 -5.26537e-05 0)
(-0.00340296 -6.21807e-05 0)
(-0.00316115 -7.06114e-05 0)
(-0.00289376 -7.76495e-05 0)
(-0.0026067 -8.30304e-05 0)
(-0.00230494 -8.65876e-05 0)
(-0.00199552 -8.81743e-05 0)
(-0.0016839 -8.78124e-05 0)
(-0.00137734 -8.55054e-05 0)
(-0.00108071 -8.1477e-05 0)
(-0.000800552 -7.58565e-05 0)
(-0.000540183 -6.90262e-05 0)
(-0.000304816 -6.11605e-05 0)
(-9.5616e-05 -5.27162e-05 0)
(8.35997e-05 -4.38016e-05 0)
(0.000233847 -3.48596e-05 0)
(0.000352188 -2.58275e-05 0)
(0.000441388 -1.7081e-05 0)
(0.000498464 -8.32085e-06 0)
(0.00052738 1.13956e-07 0)
(0.000524293 8.73466e-06 0)
(0.00049443 1.69889e-05 0)
(0.000433642 2.52825e-05 0)
(0.000350808 3.19134e-05 0)
(0.00024622 3.61277e-05 0)
(0.000139682 3.30293e-05 0)
(4.63846e-05 2.1252e-05 0)
(-1.80187e-06 -1.11966e-06 0)
(5.6251e-06 -2.81482e-05 0)
(-0.000112353 0.000108003 0)
(-0.00038637 0.000239713 0)
(-0.000793041 0.000349949 0)
(-0.00129745 0.000407848 0)
(-0.00185063 0.00044181 0)
(-0.00243781 0.000450615 0)
(-0.0030281 0.00045398 0)
(-0.0036261 0.000449952 0)
(-0.00421426 0.000447739 0)
(-0.00480341 0.000443707 0)
(-0.00538125 0.000441847 0)
(-0.00595765 0.00043863 0)
(-0.00652191 0.000435905 0)
(-0.00708066 0.000430832 0)
(-0.00762353 0.0004243 0)
(-0.00815362 0.000414094 0)
(-0.00866045 0.000400593 0)
(-0.00914394 0.000382064 0)
(-0.00959336 0.000358647 0)
(-0.0100061 0.000329063 0)
(-0.0103713 0.00029346 0)
(-0.0106849 0.000251075 0)
(-0.0109365 0.000202288 0)
(-0.0111216 0.00014694 0)
(-0.0112314 8.5813e-05 0)
(-0.0112622 1.94e-05 0)
(-0.0112078 -5.10459e-05 0)
(-0.0110668 -0.000124411 0)
(-0.0108366 -0.000199011 0)
(-0.0105188 -0.000273247 0)
(-0.0101151 -0.000345165 0)
(-0.00963114 -0.00041291 0)
(-0.00907261 -0.000474529 0)
(-0.00844921 -0.000528236 0)
(-0.00777033 -0.000572424 0)
(-0.00704889 -0.000605741 0)
(-0.00629681 -0.000627289 0)
(-0.0055289 -0.000636465 0)
(-0.00475786 -0.000633337 0)
(-0.00399862 -0.00061819 0)
(-0.00326261 -0.00059209 0)
(-0.00256315 -0.000556076 0)
(-0.00190862 -0.00051196 0)
(-0.00130953 -0.000461131 0)
(-0.0007702 -0.00040568 0)
(-0.000298106 -0.000346789 0)
(0.00010647 -0.000286329 0)
(0.000438136 -0.000224777 0)
(0.000699773 -0.000163491 0)
(0.000886439 -0.000102052 0)
(0.0010032 -4.15611e-05 0)
(0.00104446 1.87958e-05 0)
(0.00101821 7.67148e-05 0)
(0.000920119 0.000131418 0)
(0.000766784 0.000175524 0)
(0.000563586 0.000202822 0)
(0.000348037 0.000195796 0)
(0.000146567 0.000146736 0)
(1.96937e-05 4.55527e-05 0)
(-2.59392e-05 5.02088e-05 0)
(-0.00028563 0.000398094 0)
(-0.000789037 0.000713902 0)
(-0.00146443 0.000967526 0)
(-0.00227643 0.00111362 0)
(-0.00315314 0.00119951 0)
(-0.00407967 0.00122993 0)
(-0.00501258 0.00124092 0)
(-0.00595673 0.00123408 0)
(-0.00688753 0.00122623 0)
(-0.00781629 0.00121342 0)
(-0.00872631 0.00120215 0)
(-0.0096275 0.00118715 0)
(-0.0105056 0.0011707 0)
(-0.0113666 0.00114811 0)
(-0.0121967 0.00111992 0)
(-0.0129974 0.00108233 0)
(-0.0137548 0.00103514 0)
(-0.0144666 0.000975368 0)
(-0.0151186 0.000902678 0)
(-0.0157056 0.000814991 0)
(-0.0162138 0.000712346 0)
(-0.0166367 0.000593808 0)
(-0.0169615 0.000460224 0)
(-0.0171822 0.00031201 0)
(-0.0172887 0.000151096 0)
(-0.0172768 -2.0697e-05 0)
(-0.0171404 -0.000200322 0)
(-0.0168789 -0.000384716 0)
(-0.016491 -0.000569932 0)
(-0.0159808 -0.000752036 0)
(-0.0153522 -0.000926613 0)
(-0.0146144 -0.00108941 0)
(-0.0137765 -0.00123613 0)
(-0.0128521 -0.00136288 0)
(-0.011855 -0.00146623 0)
(-0.0108025 -0.00154336 0)
(-0.00971103 -0.0015924 0)
(-0.00860008 -0.00161225 0)
(-0.00748678 -0.0016031 0)
(-0.00639054 -0.00156583 0)
(-0.00532679 -0.00150274 0)
(-0.00431273 -0.0014164 0)
(-0.00335997 -0.00131066 0)
(-0.00248203 -0.00118892 0)
(-0.00168546 -0.00105553 0)
(-0.000979875 -0.000913538 0)
(-0.000366835 -0.000766686 0)
(0.000146798 -0.000616557 0)
(0.000563296 -0.000465626 0)
(0.000876529 -0.000313742 0)
(0.00109143 -0.000162731 0)
(0.00120136 -1.22082e-05 0)
(0.00121519 0.000133274 0)
(0.00112848 0.000269414 0)
(0.000961637 0.000381181 0)
(0.000722418 0.00045178 0)
(0.000458175 0.00044912 0)
(0.000200593 0.000351462 0)
(3.15199e-05 0.000139333 0)
(-5.88571e-05 0.00022766 0)
(-0.000466203 0.000880028 0)
(-0.00119783 0.00142934 0)
(-0.00212613 0.00184963 0)
(-0.00321758 0.0020998 0)
(-0.0043792 0.00224666 0)
(-0.00560145 0.00230511 0)
(-0.00683017 0.00232622 0)
(-0.00807302 0.00231659 0)
(-0.00929843 0.00230015 0)
(-0.0105186 0.0022734 0)
(-0.011712 0.00224516 0)
(-0.0128883 0.00220874 0)
(-0.0140293 0.0021667 0)
(-0.0151401 0.00211251 0)
(-0.0162035 0.0020463 0)
(-0.0172194 0.00196258 0)
(-0.0181709 0.00186059 0)
(-0.0190538 0.0017361 0)
(-0.0198513 0.00158844 0)
(-0.0205566 0.00141493 0)
(-0.0211537 0.00121581 0)
(-0.0216352 0.000990382 0)
(-0.0219873 0.00074043 0)
(-0.0222037 0.000467475 0)
(-0.0222744 0.000175154 0)
(-0.0221964 -0.000132835 0)
(-0.0219645 -0.000451136 0)
(-0.0215801 -0.000774277 0)
(-0.0210439 -0.00109566 0)
(-0.0203624 -0.00140873 0)
(-0.0195421 -0.00170636 0)
(-0.0185949 -0.00198176 0)
(-0.0175327 -0.00222822 0)
(-0.0163722 -0.00243967 0)
(-0.0151297 -0.00261083 0)
(-0.0138257 -0.00273744 0)
(-0.0124793 -0.0028167 0)
(-0.011113 -0.00284707 0)
(-0.00974658 -0.00282898 0)
(-0.00840229 -0.00276402 0)
(-0.00709795 -0.00265595 0)
(-0.00585314 -0.00250906 0)
(-0.00468136 -0.00232953 0)
(-0.00359793 -0.00212301 0)
(-0.0026106 -0.00189646 0)
(-0.00173016 -0.00165498 0)
(-0.000958735 -0.00140445 0)
(-0.00030393 -0.0011477 0)
(0.000236398 -0.00088847 0)
(0.000655524 -0.000626966 0)
(0.000958537 -0.000365896 0)
(0.00113825 -0.000105555 0)
(0.00120424 0.000146917 0)
(0.00115182 0.000383015 0)
(0.00100343 0.000579653 0)
(0.000767253 0.000708236 0)
(0.000494982 0.000721711 0)
(0.000220277 0.00057979 0)
(3.55061e-05 0.000248529 0)
(-8.45373e-05 0.00049286 0)
(-0.000621774 0.00154682 0)
(-0.0015599 0.00238451 0)
(-0.00271727 0.00299814 0)
(-0.00405982 0.00336801 0)
(-0.00547275 0.00358286 0)
(-0.00695281 0.00367339 0)
(-0.00843573 0.00370477 0)
(-0.00993357 0.00369072 0)
(-0.0114082 0.00366128 0)
(-0.0128739 0.00361439 0)
(-0.0143038 0.00356054 0)
(-0.0157082 0.0034921 0)
(-0.0170647 0.00341145 0)
(-0.0183778 0.0033105 0)
(-0.0196269 0.00318861 0)
(-0.0208108 0.00303882 0)
(-0.0219095 0.00285966 0)
(-0.022918 0.0026459 0)
(-0.0238169 0.00239662 0)
(-0.0245987 0.00210894 0)
(-0.0252461 0.00178361 0)
(-0.0257514 0.00142068 0)
(-0.0261006 0.00102333 0)
(-0.0262882 0.000594781 0)
(-0.026305 0.000140857 0)
(-0.0261493 -0.000332339 0)
(-0.0258178 -0.00081673 0)
(-0.025314 -0.00130406 0)
(-0.0246406 -0.00178483 0)
(-0.0238064 -0.00224963 0)
(-0.0228201 -0.00268854 0)
(-0.0216957 -0.00309211 0)
(-0.0204472 -0.00345115 0)
(-0.0190934 -0.00375735 0)
(-0.0176526 -0.00400356 0)
(-0.0161473 -0.00418398 0)
(-0.0145988 -0.00429485 0)
(-0.0130317 -0.00433417 0)
(-0.0114682 -0.00430267 0)
(-0.00993259 -0.00420281 0)
(-0.00844473 -0.00403998 0)
(-0.00702615 -0.00382055 0)
(-0.00569171 -0.0035534 0)
(-0.004458 -0.00324687 0)
(-0.00333327 -0.00291094 0)
(-0.00232877 -0.00255315 0)
(-0.00144631 -0.00218183 0)
(-0.000693376 -0.00180129 0)
(-6.70444e-05 -0.00141663 0)
(0.000426213 -0.0010285 0)
(0.000792333 -0.000640418 0)
(0.00102413 -0.000253517 0)
(0.00113198 0.000122397 0)
(0.00111096 0.000474067 0)
(0.000984576 0.000769854 0)
(0.000761064 0.000968209 0)
(0.000494336 0.00100587 0)
(0.000219989 0.000822152 0)
(3.44524e-05 0.000365595 0)
(-0.000107143 0.000834119 0)
(-0.000760869 0.00237441 0)
(-0.00188189 0.00354257 0)
(-0.0032411 0.00436525 0)
(-0.00480256 0.00486022 0)
(-0.00643174 0.00514285 0)
(-0.00813168 0.00526439 0)
(-0.00982908 0.0053035 0)
(-0.011541 0.00528186 0)
(-0.0132234 0.0052345 0)
(-0.0148926 0.00516106 0)
(-0.0165172 0.00507307 0)
(-0.0181079 0.00496219 0)
(-0.0196385 0.00483034 0)
(-0.021113 0.00466808 0)
(-0.0225075 0.00447395 0)
(-0.0238202 0.00423974 0)
(-0.0250285 0.00396339 0)
(-0.0261266 0.00363899 0)
(-0.0270933 0.00326568 0)
(-0.0279209 0.00284078 0)
(-0.0285912 0.00236601 0)
(-0.029097 0.00184263 0)
(-0.0294244 0.00127572 0)
(-0.0295692 0.000670627 0)
(-0.0295231 3.57622e-05 0)
(-0.0292866 -0.000620073 0)
(-0.028858 -0.0012859 0)
(-0.0282428 -0.00195062 0)
(-0.0274455 -0.00260187 0)
(-0.0264771 -0.00322753 0)
(-0.0253475 -0.00381509 0)
(-0.0240726 -0.00435262 0)
(-0.0226672 -0.00482862 0)
(-0.0211516 -0.00523264 0)
(-0.019545 -0.00555563 0)
(-0.0178716 -0.00579018 0)
(-0.0161543 -0.00593145 0)
(-0.0144197 -0.00597681 0)
(-0.0126921 -0.00592723 0)
(-0.0109985 -0.00578597 0)
(-0.009361 -0.00556025 0)
(-0.00780352 -0.00525873 0)
(-0.00634257 -0.00489338 0)
(-0.0049961 -0.00447568 0)
(-0.00377271 -0.00401913 0)
(-0.00268369 -0.00353415 0)
(-0.00172984 -0.00303193 0)
(-0.000917645 -0.00251843 0)
(-0.000242386 -0.00200029 0)
(0.000290764 -0.00147848 0)
(0.000689634 -0.000957307 0)
(0.00094793 -0.00043838 0)
(0.00107745 6.59747e-05 0)
(0.00107347 0.000538195 0)
(0.000960365 0.000938032 0)
(0.000746334 0.00121135 0)
(0.000485928 0.00127759 0)
(0.000215967 0.00105597 0)
(3.28348e-05 0.000476282 0)
(-0.000124928 0.00124118 0)
(-0.000877024 0.00334555 0)
(-0.00215461 0.00488566 0)
(-0.00368816 0.00593585 0)
(-0.00543903 0.00656325 0)
(-0.00725452 0.00691461 0)
(-0.00914292 0.00706611 0)
(-0.0110225 0.00710995 0)
(-0.0129152 0.007077 0)
(-0.0147714 0.00700635 0)
(-0.0166103 0.00689979 0)
(-0.0183959 0.0067692 0)
(-0.02014 0.00660579 0)
(-0.0218125 0.00641068 0)
(-0.0234177 0.0061733 0)
(-0.0249285 0.00589123 0)
(-0.0263428 0.00555527 0)
(-0.0276358 0.00516281 0)
(-0.0288012 0.00470762 0)
(-0.0298164 0.0041891 0)
(-0.0306736 0.00360523 0)
(-0.0313541 0.00295901 0)
(-0.0318514 0.00225343 0)
(-0.0321518 0.00149584 0)
(-0.0322525 0.000694165 0)
(-0.0321467 -0.000140288 0)
(-0.0318364 -0.000995734 0)
(-0.0313219 -0.00185818 0)
(-0.0306106 -0.00271365 0)
(-0.0297086 -0.0035471 0)
(-0.0286282 -0.00434389 0)
(-0.0273801 -0.00508919 0)
(-0.0259804 -0.00576884 0)
(-0.024444 -0.00636915 0)
(-0.0227909 -0.00687747 0)
(-0.0210405 -0.0072826 0)
(-0.0192173 -0.00757511 0)
(-0.0173454 -0.00774848 0)
(-0.0154536 -0.00779895 0)
(-0.013569 -0.00772721 0)
(-0.0117224 -0.00753714 0)
(-0.00993968 -0.0072378 0)
(-0.00824871 -0.00684051 0)
(-0.00666912 -0.00636104 0)
(-0.00522143 -0.00581485 0)
(-0.0039152 -0.00521993 0)
(-0.00276191 -0.00459054 0)
(-0.0017609 -0.00394148 0)
(-0.000916866 -0.00328096 0)
(-0.000222079 -0.00261744 0)
(0.000320793 -0.00195223 0)
(0.000722748 -0.00129026 0)
(0.000979424 -0.000633231 0)
(0.00110495 4.29627e-06 0)
(0.00109536 0.000600907 0)
(0.000976355 0.00110764 0)
(0.000756275 0.00145808 0)
(0.000490599 0.00155338 0)
(0.000217058 0.00129363 0)
(3.2169e-05 0.000588397 0)
(-0.000140863 0.00170353 0)
(-0.000979002 0.00443715 0)
(-0.00239135 0.00638193 0)
(-0.0040748 0.00767249 0)
(-0.00598777 0.00843516 0)
(-0.00796213 0.00885324 0)
(-0.0100107 0.00903135 0)
(-0.0120443 0.0090757 0)
(-0.0140896 0.00902697 0)
(-0.016092 0.00892768 0)
(-0.0180734 0.00878178 0)
(-0.0199938 0.00860096 0)
(-0.0218662 0.00837613 0)
(-0.0236574 0.0081073 0)
(-0.0253716 0.00778297 0)
(-0.0269794 0.0073997 0)
(-0.0284784 0.00694758 0)
(-0.0298418 0.00642355 0)
(-0.031063 0.00582138 0)
(-0.0321183 0.00514097 0)
(-0.0330001 0.00438134 0)
(-0.033689 0.00354714 0)
(-0.0341792 0.00264354 0)
(-0.0344577 0.00168056 0)
(-0.0345234 0.000669134 0)
(-0.0343709 -0.000376182 0)
(-0.0340049 -0.00144041 0)
(-0.0334276 -0.00250657 0)
(-0.0326488 -0.00355808 0)
(-0.031676 -0.00457772 0)
(-0.030522 -0.00554912 0)
(-0.0291969 -0.00645593 0)
(-0.0277151 -0.00728248 0)
(-0.0260885 -0.00801334 0)
(-0.0243343 -0.00863371 0)
(-0.0224687 -0.00912981 0)
(-0.0205148 -0.00948926 0)
(-0.0184962 -0.00970268 0)
(-0.0164438 -0.00976375 0)
(-0.0143885 -0.00967162 0)
(-0.0123669 -0.00942983 0)
(-0.0104118 -0.00904889 0)
(-0.00855858 -0.008543 0)
(-0.00683342 -0.00793257 0)
(-0.00526247 -0.00723836 0)
(-0.00385837 -0.00648451 0)
(-0.00263399 -0.00569064 0)
(-0.00158729 -0.00487668 0)
(-0.000720461 -0.00405403 0)
(-2.13326e-05 -0.00323362 0)
(0.000511606 -0.00241714 0)
(0.000894387 -0.00160989 0)
(0.00112615 -0.000812966 0)
(0.00122481 -4.25126e-05 0)
(0.00118805 0.000677163 0)
(0.00104376 0.00128871 0)
(0.000800568 0.00171407 0)
(0.00051555 0.00183552 0)
(0.000227023 0.00153451 0)
(3.33197e-05 0.000699981 0)
(-0.000153821 0.00221359 0)
(-0.00106486 0.0056333 0)
(-0.00259198 0.00801253 0)
(-0.00440368 0.00955685 0)
(-0.00645579 0.0104592 0)
(-0.00856679 0.0109439 0)
(-0.0107532 0.0111466 0)
(-0.0129195 0.0111884 0)
(-0.0150963 0.0111204 0)
(-0.0172248 0.0109881 0)
(-0.0193295 0.0107978 0)
(-0.0213671 0.0105605 0)
(-0.0233519 0.010267 0)
(-0.0252478 0.0099159 0)
(-0.0270596 0.00949492 0)
(-0.0287555 0.00899948 0)
(-0.0303333 0.00841913 0)
(-0.0317642 0.00775038 0)
(-0.0330416 0.00698725 0)
(-0.0341405 0.0061303 0)
(-0.0350534 0.00517998 0)
(-0.0357605 0.00414293 0)
(-0.0362571 0.00302708 0)
(-0.0365312 0.00184574 0)
(-0.0365843 0.000613575 0)
(-0.0364142 -0.000651074 0)
(-0.0360294 -0.0019297 0)
(-0.035436 -0.00320248 0)
(-0.034647 -0.00445092 0)
(-0.0336713 -0.00565693 0)
(-0.0325209 -0.00680407 0)
(-0.0312021 -0.0078763 0)
(-0.0297228 -0.00885803 0)
(-0.0280867 -0.00973309 0)
(-0.0263014 -0.0104846 0)
(-0.0243745 -0.0110953 0)
(-0.0223221 -0.0115479 0)
(-0.0201642 -0.0118274 0)
(-0.0179328 -0.0119219 0)
(-0.0156636 -0.0118258 0)
(-0.0134033 -0.01154 0)
(-0.011197 -0.011075 0)
(-0.00909471 -0.0104475 0)
(-0.00713654 -0.00968396 0)
(-0.00536098 -0.00881247 0)
(-0.00378901 -0.00786634 0)
(-0.00243837 -0.00687365 0)
(-0.00130686 -0.00586238 0)
(-0.000393738 -0.00484923 0)
(0.000319527 -0.00384904 0)
(0.000841216 -0.00286427 0)
(0.0011954 -0.00190038 0)
(0.00138735 -0.000956978 0)
(0.00144125 -5.07944e-05 0)
(0.00135798 0.0007921 0)
(0.00116927 0.00150661 0)
(0.000884574 0.00200354 0)
(0.000564165 0.00214591 0)
(0.000246992 0.0017963 0)
(3.62153e-05 0.000821265 0)
(-0.000165755 0.00276571 0)
(-0.00114086 0.00691995 0)
(-0.00276713 0.00975785 0)
(-0.00468943 0.0115661 0)
(-0.00686128 0.0126106 0)
(-0.00909016 0.0131607 0)
(-0.0113959 0.0133856 0)
(-0.0136776 0.0134218 0)
(-0.0159695 0.0133314 0)
(-0.0182092 0.0131626 0)
(-0.0204239 0.0129241 0)
(-0.0225674 0.0126259 0)
(-0.0246555 0.0122585 0)
(-0.0266496 0.0118191 0)
(-0.0285553 0.0112946 0)
(-0.0303386 0.0106791 0)
(-0.0319975 0.00996188 0)
(-0.0335013 0.00913892 0)
(-0.0348436 0.00820469 0)
(-0.0359978 0.0071606 0)
(-0.0369568 0.00600899 0)
(-0.037701 0.00475918 0)
(-0.0382278 0.00342286 0)
(-0.0385284 0.00201786 0)
(-0.0386098 0.000563897 0)
(-0.0384765 -0.000915873 0)
(-0.0381454 -0.00239906 0)
(-0.0376296 -0.00386377 0)
(-0.0369475 -0.00529163 0)
(-0.0361087 -0.00666691 0)
(-0.0351208 -0.00797711 0)
(-0.0339794 -0.0092106 0)
(-0.0326768 -0.0103554 0)
(-0.0311968 -0.0113966 0)
(-0.0295256 -0.0123157 0)
(-0.0276504 -0.0130902 0)
(-0.0255709 -0.0136942 0)
(-0.0232969 -0.0141017 0)
(-0.020858 -0.0142889 0)
(-0.0182968 -0.0142393 0)
(-0.0156752 -0.0139453 0)
(-0.0130605 -0.0134134 0)
(-0.01053 -0.0126617 0)
(-0.00815135 -0.0117231 0)
(-0.00598896 -0.0106369 0)
(-0.00408352 -0.00945043 0)
(-0.00246577 -0.0082061 0)
(-0.00113755 -0.0069456 0)
(-9.57762e-05 -0.00569537 0)
(0.000686959 -0.00447719 0)
(0.00122995 -0.00329545 0)
(0.00157052 -0.00215568 0)
(0.00172497 -0.00105467 0)
(0.00172826 -8.01216e-06 0)
(0.00158767 0.000958365 0)
(0.00134153 0.00177306 0)
(0.00100139 0.0023365 0)
(0.000632694 0.00249243 0)
(0.000275483 0.00208363 0)
(4.06021e-05 0.000952991 0)
(-0.000175656 0.00335232 0)
(-0.00120589 0.00828213 0)
(-0.0029179 0.0115999 0)
(-0.00493604 0.0136819 0)
(-0.00721224 0.014872 0)
(-0.00954454 0.0154882 0)
(-0.0119559 0.0157347 0)
(-0.0143408 0.0157643 0)
(-0.0167369 0.0156504 0)
(-0.0190789 0.0154438 0)
(-0.0213965 0.0151555 0)
(-0.0236411 0.0147944 0)
(-0.0258301 0.0143507 0)
(-0.027923 0.0138198 0)
(-0.0299262 0.0131879 0)
(-0.0318038 0.0124477 0)
(-0.0335539 0.0115879 0)
(-0.0351443 0.0106041 0)
(-0.0365683 0.00949134 0)
(-0.0377984 0.00825228 0)
(-0.0388286 0.00689207 0)
(-0.0396411 0.00542415 0)
(-0.0402388 0.00386618 0)
(-0.040621 0.00224309 0)
(-0.0408074 0.000582206 0)
(-0.040817 -0.00108689 0)
(-0.0406826 -0.00273804 0)
(-0.04043 -0.00434988 0)
(-0.0400845 -0.00590927 0)
(-0.0396528 -0.00741001 0)
(-0.0391295 -0.00885162 0)
(-0.0384858 -0.0102347 0)
(-0.0376807 -0.0115569 0)
(-0.0366586 -0.0128084 0)
(-0.035365 -0.0139688 0)
(-0.0337482 -0.0150069 0)
(-0.0317762 -0.0158816 0)
(-0.0294375 -0.0165465 0)
(-0.0267539 -0.0169544 0)
(-0.023775 -0.017066 0)
(-0.0205855 -0.0168544 0)
(-0.0172884 -0.0163136 0)
(-0.0140072 -0.0154581 0)
(-0.0108601 -0.0143274 0)
(-0.00796159 -0.0129759 0)
(-0.00539402 -0.0114737 0)
(-0.00321856 -0.00988788 0)
(-0.00145194 -0.00828479 0)
(-9.26725e-05 -0.00670984 0)
(0.000897726 -0.00519845 0)
(0.00155596 -0.00376029 0)
(0.00194129 -0.00240154 0)
(0.00209 -0.00111453 0)
(0.00205609 8.91075e-05 0)
(0.00185956 0.00118657 0)
(0.00155051 0.00210284 0)
(0.0011456 0.0027294 0)
(0.000718465 0.00289121 0)
(0.000311446 0.00241 0)
(4.62201e-05 0.00110271 0)
(-0.000185081 0.00397315 0)
(-0.00126457 0.00971567 0)
(-0.00305191 0.0135317 0)
(-0.00515422 0.0158956 0)
(-0.0075222 0.0172343 0)
(-0.00994632 0.0179172 0)
(-0.0124525 0.0181852 0)
(-0.0149314 0.0182082 0)
(-0.0174241 0.0180708 0)
(-0.019863 0.0178267 0)
(-0.0222803 0.017489 0)
(-0.0246255 0.0170652 0)
(-0.0269179 0.0165454 0)
(-0.0291151 0.0159227 0)
(-0.0312245 0.0151826 0)
(-0.0332086 0.0143163 0)
(-0.0350657 0.0133118 0)
(-0.0367619 0.0121642 0)
(-0.0382908 0.0108697 0)
(-0.0396251 0.00943309 0)
(-0.0407622 0.00786448 0)
(-0.041691 0.00618473 0)
(-0.0424274 0.004422 0)
(-0.0429898 0.00261325 0)
(-0.0434233 0.000797599 0)
(-0.0437755 -0.00098741 0)
(-0.0441055 -0.00271437 0)
(-0.0444571 -0.00436969 0)
(-0.0448595 -0.00595686 0)
(-0.0453062 -0.00749317 0)
(-0.0457594 -0.00900447 0)
(-0.046142 -0.0105161 0)
(-0.0463526 -0.0120441 0)
(-0.0462685 -0.0135875 0)
(-0.0457677 -0.0151234 0)
(-0.0447365 -0.0166056 0)
(-0.0430921 -0.0179666 0)
(-0.0407868 -0.0191248 0)
(-0.0378261 -0.0199924 0)
(-0.0342642 -0.0204882 0)
(-0.0302135 -0.0205474 0)
(-0.0258268 -0.0201355 0)
(-0.0212967 -0.0192518 0)
(-0.0168229 -0.0179379 0)
(-0.0126062 -0.016267 0)
(-0.00880809 -0.0143429 0)
(-0.00555361 -0.0122744 0)
(-0.00289875 -0.010172 0)
(-0.00085667 -0.00811832 0)
(0.000620627 -0.00617651 0)
(0.00159479 -0.00436975 0)
(0.00216005 -0.00270766 0)
(0.00238772 -0.00117641 0)
(0.00236515 0.000220755 0)
(0.00213695 0.00146934 0)
(0.00177424 0.00249568 0)
(0.0013048 0.00318536 0)
(0.000815213 0.00334645 0)
(0.000352625 0.00277857 0)
(5.2783e-05 0.00127108 0)
(-0.000192951 0.00461866 0)
(-0.0013155 0.011204 0)
(-0.00316938 0.0155339 0)
(-0.00534627 0.0181875 0)
(-0.0077964 0.0196783 0)
(-0.0103037 0.0204303 0)
(-0.0128972 0.0207217 0)
(-0.0154645 0.0207402 0)
(-0.01805 0.020582 0)
(-0.0205842 0.0203033 0)
(-0.0231019 0.0199196 0)
(-0.0255515 0.0194367 0)
(-0.0279537 0.0188443 0)
(-0.0302653 0.0181333 0)
(-0.0324943 0.0172882 0)
(-0.0346021 0.016298 0)
(-0.0365871 0.0151504 0)
(-0.0384145 0.0138402 0)
(-0.0400795 0.0123658 0)
(-0.0415579 0.0107369 0)
(-0.0428564 0.00897317 0)
(-0.0439806 0.00710975 0)
(-0.0449745 0.00519381 0)
(-0.0458947 0.00328252 0)
(-0.0468325 0.00143164 0)
(-0.047881 -0.000314641 0)
(-0.0491351 -0.00193686 0)
(-0.0506545 -0.00344588 0)
(-0.0524581 -0.00488342 0)
(-0.0545002 -0.00631327 0)
(-0.0566791 -0.00780824 0)
(-0.058834 -0.00943388 0)
(-0.0607689 -0.0112338 0)
(-0.0622635 -0.0132178 0)
(-0.0631025 -0.0153556 0)
(-0.0630895 -0.0175756 0)
(-0.0620734 -0.0197689 0)
(-0.0599569 -0.0217995 0)
(-0.0567173 -0.0235162 0)
(-0.0524055 -0.0247711 0)
(-0.0471582 -0.0254349 0)
(-0.0411827 -0.0254188 0)
(-0.0347565 -0.0246849 0)
(-0.0281908 -0.0232618 0)
(-0.021816 -0.0212381 0)
(-0.0159262 -0.0187611 0)
(-0.0107657 -0.0160038 0)
(-0.00647844 -0.013152 0)
(-0.00312554 -0.0103581 0)
(-0.000663783 -0.00774174 0)
(0.000996911 -0.00535847 0)
(0.00200169 -0.0032303 0)
(0.00247931 -0.00133714 0)
(0.00257345 0.000332193 0)
(0.00237369 0.00177978 0)
(0.00198818 0.00294213 0)
(0.00146713 0.00370502 0)
(0.000918065 0.00386389 0)
(0.000397669 0.00319641 0)
(6.01698e-05 0.00146276 0)
(-0.000200708 0.00529411 0)
(-0.00136228 0.0127522 0)
(-0.0032755 0.0176108 0)
(-0.00551914 0.0205616 0)
(-0.00804326 0.0222087 0)
(-0.0106268 0.0230326 0)
(-0.0133015 0.0233503 0)
(-0.0159532 0.0233678 0)
(-0.0186292 0.0231929 0)
(-0.0212589 0.0228846 0)
(-0.0238799 0.0224603 0)
(-0.0264397 0.0219244 0)
(-0.0289609 0.0212658 0)
(-0.0313995 0.020473 0)
(-0.0337646 0.019529 0)
(-0.0360166 0.0184211 0)
(-0.0381548 0.0171364 0)
(-0.040145 0.0156707 0)
(-0.0419867 0.0140276 0)
(-0.0436658 0.0122273 0)
(-0.0452104 0.0103085 0)
(-0.0466613 0.00833335 0)
(-0.0481159 0.00638171 0)
(-0.049697 0.00454106 0)
(-0.0515666 0.00288541 0)
(-0.0538769 0.00145488 0)
(-0.0567555 0.000238104 0)
(-0.0602568 -0.000831714 0)
(-0.064354 -0.00186853 0)
(-0.068919 -0.00301322 0)
(-0.0737417 -0.00440842 0)
(-0.0785385 -0.00617303 0)
(-0.0829887 -0.00838128 0)
(-0.0867543 -0.0110491 0)
(-0.0895155 -0.0141277 0)
(-0.0909872 -0.0175054 0)
(-0.0909459 -0.0210147 0)
(-0.089238 -0.024446 0)
(-0.0858012 -0.027563 0)
(-0.0806659 -0.0301257 0)
(-0.0739727 -0.0319103 0)
(-0.0659648 -0.0327395 0)
(-0.0569947 -0.0325021 0)
(-0.0474928 -0.0311816 0)
(-0.0379503 -0.0288594 0)
(-0.028852 -0.0257228 0)
(-0.0206384 -0.0220276 0)
(-0.0136246 -0.0180751 0)
(-0.00799062 -0.0141399 0)
(-0.00374337 -0.0104504 0)
(-0.000778126 -0.00713519 0)
(0.00111298 -0.00425205 0)
(0.00214448 -0.00178069 0)
(0.00254979 0.0003107 0)
(0.00249549 0.00205323 0)
(0.00215272 0.00340802 0)
(0.00161331 0.0042724 0)
(0.00101897 0.00443782 0)
(0.000444291 0.00366264 0)
(6.82239e-05 0.00167801 0)
(-0.000207012 0.00598618 0)
(-0.00140263 0.0143391 0)
(-0.00336875 0.0197385 0)
(-0.00567238 0.0229932 0)
(-0.00826411 0.0248011 0)
(-0.0109185 0.0257013 0)
(-0.0136706 0.0260504 0)
(-0.0164045 0.0260727 0)
(-0.0191708 0.025888 0)
(-0.0218984 0.025558 0)
(-0.0246275 0.0251024 0)
(-0.0273053 0.0245233 0)
(-0.0299566 0.0238091 0)
(-0.0325371 0.0229453 0)
(-0.0350574 0.0219136 0)
(-0.0374776 0.0206991 0)
(-0.0397992 0.01929 0)
(-0.0419918 0.0176855 0)
(-0.0440665 0.015901 0)
(-0.0460316 0.0139789 0)
(-0.0479576 0.011994 0)
(-0.0499513 0.0100557 0)
(-0.0521977 0.00829396 0)
(-0.0549175 0.00683323 0)
(-0.0583598 0.00575461 0)
(-0.0627291 0.00506392 0)
(-0.0681542 0.00467496 0)
(-0.074633 0.00441677 0)
(-0.0820333 0.00406052 0)
(-0.090088 0.00335821 0)
(-0.0984336 0.00208292 0)
(-0.106638 6.23482e-05 0)
(-0.114247 -0.00279756 0)
(-0.120815 -0.00650168 0)
(-0.125938 -0.0109641 0)
(-0.129264 -0.0160163 0)
(-0.130515 -0.0214185 0)
(-0.129492 -0.0268765 0)
(-0.126085 -0.0320583 0)
(-0.120279 -0.036617 0)
(-0.112177 -0.0402121 0)
(-0.102004 -0.0425437 0)
(-0.0901317 -0.0433808 0)
(-0.0770651 -0.0426068 0)
(-0.0634406 -0.0402417 0)
(-0.0499623 -0.0364736 0)
(-0.0373438 -0.0316328 0)
(-0.0261887 -0.0261681 0)
(-0.0169233 -0.0205441 0)
(-0.00971098 -0.0151848 0)
(-0.00449197 -0.0103706 0)
(-0.00100627 -0.00624977 0)
(0.00107323 -0.00282542 0)
(0.00211297 -4.33502e-05 0)
(0.00240334 0.00217239 0)
(0.0022181 0.00382986 0)
(0.00172139 0.00485716 0)
(0.00111023 0.00505733 0)
(0.000490955 0.00417652 0)
(7.69931e-05 0.00191923 0)
(-0.00021337 0.00670577 0)
(-0.00143959 0.0159789 0)
(-0.00345248 0.0219319 0)
(-0.00580977 0.0254981 0)
(-0.00846277 0.0274725 0)
(-0.011183 0.0284545 0)
(-0.0140085 0.0288408 0)
(-0.0168225 0.0288752 0)
(-0.019679 0.0286893 0)
(-0.0225067 0.0283475 0)
(-0.0253489 0.0278714 0)
(-0.028153 0.0272615 0)
(-0.0309464 0.026505 0)
(-0.0336848 0.0255844 0)
(-0.0363812 0.0244803 0)
(-0.0389967 0.0231763 0)
(-0.0415379 0.0216641 0)
(-0.0439843 0.0199532 0)
(-0.0463709 0.0180834 0)
(-0.0487505 0.0161396 0)
(-0.0512686 0.0142596 0)
(-0.0541375 0.0126263 0)
(-0.0576674 0.0114339 0)
(-0.0621955 0.0108338 0)
(-0.0680461 0.0108765 0)
(-0.0754294 0.0114738 0)
(-0.0844028 0.0123983 0)
(-0.0948259 0.0133173 0)
(-0.106387 0.0138497 0)
(-0.118627 0.0136273 0)
(-0.131008 0.0123475 0)
(-0.142956 0.0098092 0)
(-0.153919 0.00593066 0)
(-0.163393 0.000749395 0)
(-0.170948 -0.00558721 0)
(-0.176225 -0.0128401 0)
(-0.178944 -0.0206942 0)
(-0.178887 -0.0287781 0)
(-0.175907 -0.0366753 0)
(-0.169923 -0.0439428 0)
(-0.160944 -0.0501241 0)
(-0.149093 -0.0547804 0)
(-0.134647 -0.0575196 0)
(-0.118067 -0.0580559 0)
(-0.100027 -0.0562563 0)
(-0.0813926 -0.0522126 0)
(-0.0631655 -0.0462549 0)
(-0.0463478 -0.038959 0)
(-0.0317934 -0.0310334 0)
(-0.0200276 -0.0232136 0)
(-0.0111932 -0.0160712 0)
(-0.00505505 -0.00996107 0)
(-0.00117028 -0.00497517 0)
(0.00100814 -0.00105284 0)
(0.00195848 0.0019427 0)
(0.00211521 0.00409813 0)
(0.00176123 0.00540276 0)
(0.00118152 0.00569751 0)
(0.000535731 0.0047305 0)
(8.66228e-05 0.00218644 0)
(-0.000218009 0.00743379 0)
(-0.00146961 0.017642 0)
(-0.00352307 0.0241583 0)
(-0.0059278 0.0280424 0)
(-0.00863651 0.0301893 0)
(-0.0114182 0.0312596 0)
(-0.0143139 0.0316913 0)
(-0.0172067 0.0317473 0)
(-0.0201538 0.0315716 0)
(-0.0230845 0.0312312 0)
(-0.026045 0.0307499 0)
(-0.028984 0.0301259 0)
(-0.0319314 0.0293454 0)
(-0.0348444 0.0283881 0)
(-0.0377388 0.0272335 0)
(-0.0405799 0.0258664 0)
(-0.0433844 0.0242875 0)
(-0.046153 0.0225292 0)
(-0.0489644 0.0206777 0)
(-0.0519485 0.0188928 0)
(-0.0553681 0.0174105 0)
(-0.0595822 0.0165115 0)
(-0.0650468 0.0164491 0)
(-0.0721976 0.0173571 0)
(-0.0813697 0.0191775 0)
(-0.0926812 0.0216387 0)
(-0.106009 0.024295 0)
(-0.120978 0.0266051 0)
(-0.137036 0.0280253 0)
(-0.153513 0.0280889 0)
(-0.169715 0.0264635 0)
(-0.18498 0.0229742 0)
(-0.198736 0.0176045 0)
(-0.210514 0.0104766 0)
(-0.219957 0.00182591 0)
(-0.226796 -0.00803082 0)
(-0.230829 -0.0187161 0)
(-0.231885 -0.029811 0)
(-0.229812 -0.0408564 0)
(-0.224462 -0.0513603 0)
(-0.215711 -0.0607911 0)
(-0.203486 -0.068596 0)
(-0.18783 -0.0742132 0)
(-0.168972 -0.0771363 0)
(-0.147406 -0.0769718 0)
(-0.12395 -0.0735616 0)
(-0.0997547 -0.0670594 0)
(-0.0762091 -0.0580269 0)
(-0.0547465 -0.0473716 0)
(-0.0365488 -0.0362328 0)
(-0.0222872 -0.0256747 0)
(-0.0119894 -0.016482 0)
(-0.00518121 -0.00899541 0)
(-0.00110738 -0.00321411 0)
(0.000979507 0.001063 0)
(0.00175758 0.0040429 0)
(0.00169799 0.00582177 0)
(0.00122287 0.00632055 0)
(0.000577851 0.00531425 0)
(9.76832e-05 0.00248105 0)
(-0.000222689 0.00818726 0)
(-0.00149563 0.0193519 0)
(-0.00358269 0.0264432 0)
(-0.00602795 0.0306536 0)
(-0.00878548 0.0329805 0)
(-0.011623 0.034147 0)
(-0.0145844 0.0346332 0)
(-0.0175532 0.0347215 0)
(-0.0205897 0.0345686 0)
(-0.0236247 0.0342442 0)
(-0.0267075 0.0337743 0)
(-0.0297887 0.0331551 0)
(-0.0329012 0.0323719 0)
(-0.0360051 0.0314018 0)
(-0.039121 0.0302254 0)
(-0.0422224 0.0288328 0)
(-0.0453446 0.0272452 0)
(-0.0485266 0.0255391 0)
(-0.05192 0.0238818 0)
(-0.0557726 0.0225505 0)
(-0.0605071 0.0219154 0)
(-0.066652 0.0223581 0)
(-0.0747871 0.0241435 0)
(-0.0853672 0.0272922 0)
(-0.0986145 0.0315208 0)
(-0.114417 0.0362718 0)
(-0.132352 0.0408211 0)
(-0.151741 0.0444103 0)
(-0.171767 0.046371 0)
(-0.191575 0.0462072 0)
(-0.210381 0.0436371 0)
(-0.227534 0.0385929 0)
(-0.242562 0.0311955 0)
(-0.255166 0.0217036 0)
(-0.26519 0.0104656 0)
(-0.27257 -0.00212855 0)
(-0.277279 -0.0156695 0)
(-0.279271 -0.029744 0)
(-0.278448 -0.0439203 0)
(-0.274632 -0.0577401 0)
(-0.267569 -0.0706833 0)
(-0.256952 -0.0821641 0)
(-0.242482 -0.0915079 0)
(-0.223968 -0.0979988 0)
(-0.201452 -0.10092 0)
(-0.175361 -0.0997091 0)
(-0.14663 -0.0940894 0)
(-0.116752 -0.084303 0)
(-0.087654 -0.071192 0)
(-0.061386 -0.0562114 0)
(-0.0396104 -0.0410831 0)
(-0.0231412 -0.0273706 0)
(-0.0118048 -0.0160117 0)
(-0.00471826 -0.00726638 0)
(-0.000786387 -0.00091634 0)
(0.00102746 0.00341062 0)
(0.00148558 0.00598365 0)
(0.00122193 0.00686968 0)
(0.000616894 0.00591152 0)
(0.000111124 0.0028046 0)
(-0.000225045 0.00893897 0)
(-0.00151259 0.0210671 0)
(-0.00362554 0.0287405 0)
(-0.00610379 0.0332839 0)
(-0.00890335 0.0357981 0)
(-0.011791 0.0370697 0)
(-0.0148136 0.0376212 0)
(-0.0178553 0.037755 0)
(-0.0209796 0.0376404 0)
(-0.0241192 0.0373502 0)
(-0.0273269 0.0369129 0)
(-0.0305559 0.0363225 0)
(-0.0338431 0.035564 0)
(-0.0371529 0.034613 0)
(-0.0405138 0.0334545 0)
(-0.0439138 0.0320927 0)
(-0.04742 0.0305877 0)
(-0.0511334 0.0290931 0)
(-0.0553147 0.0279039 0)
(-0.0603708 0.0274614 0)
(-0.0669093 0.0282867 0)
(-0.0756064 0.0308201 0)