/*--------------------------------*- C++ -*----------------------------------*\
| =========                 |                                                 |
| \\      /  F ield         | OpenFOAM: The Open Source CFD Toolbox           |
|  \\    /   O peration     | Version:  2406                                  |
|   \\  /    A nd           | Website:  www.openfoam.com                      |
|    \\/     M anipulation  |                                                 |
\*---------------------------------------------------------------------------*/
FoamFile
{
    version     2.0;
    format      ascii;
    arch        "LSB;label=32;scalar=64";
    class       surfaceScalarField;
    location    "0.3";
    object      phi_0;
}
// * * * * * * * * * * * * * * * * * * * * * * * * * * * * * * * * * * * * * //

dimensions      [0 3 -1 0 0 0 0];

oriented        oriented;

internalField   nonuniform List<scalar> 
32512
(
-6.65205056664e-05
6.65205029871e-05
-6.62800387918e-05
0.000199401255782
-6.5879895722e-05
0.000331801631443
-6.53210391873e-05
0.000463402664102
-6.46048172446e-05
0.000593887319318
-6.37329549138e-05
0.000722941246678
-6.27075542501e-05
0.000850253546258
-6.1531082604e-05
0.000975517508584
-6.02063788255e-05
0.00109843136493
-5.87366335251e-05
0.00121869900154
-5.71253849749e-05
0.00133603068149
-5.53765159184e-05
0.00145014374405
-5.34942416579e-05
0.00156076328099
-5.14830954714e-05
0.00166762279838
-4.93479207731e-05
0.0017704648622
-4.7093862452e-05
0.00186904171838
-4.47263518889e-05
0.00196311588699
-4.22510920334e-05
0.00205246073458
-3.96740450963e-05
0.00213686102179
-3.70014194925e-05
0.00221611342191
-3.42396544613e-05
0.00229002700982
-3.13954035763e-05
0.00235842372156
-2.84755185484e-05
0.00242113878387
-2.54870333231e-05
0.00247802111117
-2.24371474728e-05
0.00252893366969
-1.93332086072e-05
0.00257375380728
-1.61826944767e-05
0.00261237354938
-1.29931949644e-05
0.00264469985647
-9.77239377556e-06
0.00267065485363
-6.52804997991e-06
0.00269017601279
-3.26797946624e-06
0.00270321630605
-3.60983705295e-11
0.00270974431843
3.26790735407e-06
0.0027097443235
6.52797817517e-06
0.00270321632124
9.77232255621e-06
0.00269017603809
1.29931245461e-05
0.00267065488904
1.61826249817e-05
0.00264469990193
1.93331401386e-05
0.00261237360476
2.24370801378e-05
0.00257375387244
2.54869672616e-05
0.00252893374442
2.84754540599e-05
0.0024780211952
3.13953410445e-05
0.00242113887698
3.42395939602e-05
0.00235842382363
3.70013607164e-05
0.00229002712058
3.967398794e-05
0.00221611354081
4.22510370342e-05
0.00213686114797
4.47262996765e-05
0.00205246086741
4.70938127468e-05
0.00196311602663
4.93478726783e-05
0.00186904186347
5.14830492136e-05
0.00177046501161
5.34941985082e-05
0.00166762295054
5.53764755317e-05
0.00156076343547
5.71253457232e-05
0.00145014390011
5.87365958945e-05
0.00133603083651
6.02063443791e-05
0.00121869915304
6.15310504039e-05
0.00109843151206
6.27075226352e-05
0.000975517649018
6.37329268592e-05
0.00085025367442
6.46047927928e-05
0.000722941360653
6.53210200312e-05
0.000593887414243
6.58798831233e-05
0.000463402738394
6.62800357332e-05
0.000331801682499
6.6520513874e-05
0.000199401285639
6.6600738223e-05
6.65205126226e-05
6.65205155245e-05
-6.65205144711e-05
6.62800390633e-05
-0.000199401287506
6.5879888193e-05
-0.000331801684403
6.5321026929e-05
-0.000463402740349
6.46048016261e-05
-0.000593887416254
6.37329377449e-05
-0.000722941362717
6.27075357004e-05
-0.00085025367654
6.15310657928e-05
-0.0009755176512
6.02063622499e-05
-0.00109843151431
5.87366164e-05
-0.00121869915533
5.71253689911e-05
-0.00133603083882
5.5376501664e-05
-0.00145014390241
5.34942275988e-05
-0.00156076343775
5.14830813609e-05
-0.00166762295279
4.93479079769e-05
-0.00177046501382
4.7093851265e-05
-0.00186904186599
4.47263414451e-05
-0.00196311602825
4.22510820516e-05
-0.0020524608693
3.96740361947e-05
-0.00213686114972
3.70014121992e-05
-0.0022161135424
3.42396486487e-05
-0.00229002712201
3.13953988737e-05
-0.00235842382487
2.8475514922e-05
-0.00242113887801
2.54870310437e-05
-0.00247802119601
2.24371467435e-05
-0.00252893374498
1.93332094539e-05
-0.00257375387275
1.61826968392e-05
-0.00261237360479
1.29931987547e-05
-0.00264469990167
9.7723989525e-06
-0.00267065488854
6.52805661361e-06
-0.00269017603739
3.26798765439e-06
-0.00270321632038
4.58427019062e-11
-0.00270974432249
-3.26789611253e-06
-0.00270974431727
-6.52796544769e-06
-0.00270321630472
-9.77230830536e-06
-0.0026901760113
-1.29931087295e-05
-0.00267065485204
-1.61826075168e-05
-0.00264469985486
-1.93331208971e-05
-0.00261237354783
-2.24370590691e-05
-0.00257375380581
-2.54869444425e-05
-0.00252893366823
-2.84754295217e-05
-0.00247802110968
-3.13953146655e-05
-0.00242113878242
-3.42395656392e-05
-0.00235842372038
-3.70013305291e-05
-0.00229002700903
-3.96739560113e-05
-0.00221611342147
-4.22510033244e-05
-0.00213686102146
-4.47262640462e-05
-0.00205246073439
-4.70937753079e-05
-0.00196311588781
-4.93478337638e-05
-0.00186904171976
-5.14830087122e-05
-0.00177046486424
-5.34941559062e-05
-0.00166762280073
-5.53764310718e-05
-0.00156076328422
-5.71253000141e-05
-0.00145014374888
-5.87365484041e-05
-0.00133603068749
-6.02062944298e-05
-0.00121869900814
-6.15309985753e-05
-0.00109843137299
-6.27074700662e-05
-0.000975517518363
-6.37328727495e-05
-0.000850253555842
-6.46047391563e-05
-0.000722941256678
-6.53209688073e-05
-0.000593887327437
-6.58798360701e-05
-0.00046340267198
-6.62799959381e-05
-0.000331801635752
-6.65204832665e-05
-0.000199401258918
-6.65205051069e-05
-0.000199401257647
6.628003607e-05
-0.000198680414192
0.000198680412327
-0.000197480929894
0.000330602147145
-0.000195805696374
0.000461727430582
-0.000193658746879
0.000591740369823
-0.000191045255684
0.000720327755484
-0.000187971518286
0.000847179808859
-0.000184444942565
0.000971990932863
-0.000180474020768
0.00109446044313
-0.000176068320284
0.00121429330106
-0.000171238457486
0.00133120081869
-0.000165996066653
0.00144490135322
-0.000160353775338
0.00155512098968
-0.000154325177542
0.00166159420059
-0.000147924798065
0.00176406448272
-0.0001411680551
0.00186228497542
-0.000134071225223
0.00195601905711
-0.000126651405728
0.00204504091508
-0.000118926472381
0.00212913608845
-0.000110915035248
0.00220810198477
-0.000102636394058
0.00228174836863
-9.41104925436e-05
0.00234989782005
-8.5357870603e-05
0.00241238616193
-7.63996143194e-05
0.00246906285488
-6.72573048777e-05
0.00251979136025
-5.79529667548e-05
0.00256444946916
-4.85090148389e-05
0.00260292959746
-3.89482004479e-05
0.00263513904208
-2.92935564748e-05
0.00266100020966
-1.95683418357e-05
0.00268045079815
-9.79598537466e-06
0.00269344394959
-2.94776862558e-11
0.00269994836254
9.79592656225e-06
0.00269994836746
1.95682834299e-05
0.00269344396437
2.9293498697e-05
0.00268045082283
3.89481434937e-05
0.00266100024424
4.85089589035e-05
0.00263513908652
5.79529120573e-05
0.00260292965161
6.72572516724e-05
0.00256444953283
7.6399562824e-05
0.00251979143327
8.53578208756e-05
0.00246906293715
9.41104445735e-05
0.00241238625328
0.000102636348089
0.00234989792011
0.000110914991799
0.00228174847687
0.000118926431722
0.00220810210089
0.000126651367563
0.00212913621213
0.000134071189239
0.00204504104573
0.000141168021724
0.00195601919414
0.000147924768112
0.00186228511709
0.000154325150803
0.00176406462892
0.000160353750702
0.00166159435064
0.000165996044355
0.00155512114181
0.000171238438945
0.00144490150552
0.000176068305061
0.0013312009704
0.000180474007132
0.00121429345097
0.000184444931439
0.00109446058776
0.000187971511662
0.000971991068795
0.00019104525193
0.000847179934151
0.000193658747319
0.000720327865264
0.000195805701694
0.000591740459868
0.000197480942865
0.000461727497223
0.000198680435033
0.000330602190331
0.000199401288516
0.000198680432155
0.00019964176673
6.62800344089e-05
0.000199401290356
-6.62800380974e-05
0.000198680438732
-0.000198680435881
0.000197480948457
-0.000330602194129
0.000195805709232
-0.000461727501124
0.000193658756889
-0.00059174046391
0.000191045263651
-0.00072032786948
0.000187971525669
-0.000847179938558
0.00018444494786
-0.00097199107339
0.000180474026079
-0.00109446059253
0.000176068326651
-0.0012142934559
0.000171238463314
-0.00133120097549
0.000165996071649
-0.00144490151075
0.000160353781051
-0.00155512114715
0.000154325184309
-0.00166159435605
0.000147924804849
-0.00176406463436
0.000141168061747
-0.00186228512289
0.000134071232598
-0.0019560191991
0.000126651414287
-0.00204504105099
0.000118926481808
-0.00212913621724
0.000110915045195
-0.00220810210579
0.000102636404694
-0.0022817484815
9.41105042685e-05
-0.00234989792445
8.53578835567e-05
-0.0024123862573
7.63996283925e-05
-0.00246906294084
6.72573200041e-05
-0.0025197914366
5.79529830097e-05
-0.00256444953576
4.85090323566e-05
-0.00260292965414
3.89482193445e-05
-0.00263513908866
2.92935767981e-05
-0.00266100024599
1.95683635632e-05
-0.00268045082416
9.7960084833e-06
-0.0026934439653
5.39942982895e-11
-0.002699948368
-9.79590058662e-06
-0.00269994836269
-1.95682559401e-05
-0.00269344394937
-2.92934696051e-05
-0.00268045079764
-3.89481126872e-05
-0.00266100020896
-4.85089263104e-05
-0.00263513904124
-5.79528776532e-05
-0.00260292959648
-6.72572154021e-05
-0.00256444946806
-7.63995245856e-05
-0.00251979135904
-8.53577806253e-05
-0.00246906285364
-9.41104023526e-05
-0.0024123861607
-0.000102636303878
-0.00234989781886
-0.000110914945453
-0.00228174836746
-0.000118926383142
-0.00220810198378
-0.000126651316847
-0.00212913608776
-0.000134071136531
-0.00204504091471
-0.00014116796694
-0.0019560190574
-0.000147924711042
-0.00186228497566
-0.000154325091607
-0.00176406448367
-0.000160353689795
-0.00166159420254
-0.000165995981553
-0.00155512099246
-0.000171238373772
-0.00144490135666
-0.000176068237897
-0.00133120082336
-0.000180473938469
-0.00121429330757
-0.000184444860863
-0.0010944604506
-0.000187971439312
-0.000971990939913
-0.000191045179063
-0.00084717981609
-0.00019365867534
-0.000720327760401
-0.000195805630897
-0.00059174037188
-0.000197480877097
-0.00046172742578
-0.000198680374963
-0.000330602137885
-0.000199401236774
-0.000198680397107
-6.62800173178e-05
-0.000331801630874
6.58798922342e-05
-0.000330602147781
0.000197480929234
-0.000328606213162
0.000328606212526
-0.000325818635578
0.000458939852998
-0.000322246131817
0.000588167866062
-0.000317897308763
0.00071597893243
-0.000312782642012
0.000842065142108
-0.000306914452985
0.000966122743837
-0.000300306881249
0.0010878528714
-0.000292975843985
0.0012069622638
-0.000284939000645
0.00132316397535
-0.000276215714071
0.00143617806664
-0.000266827000666
0.00154573227627
-0.000256795477612
0.00165156267753
-0.00024614531102
0.00175341431613
-0.000234902158803
0.0018510418232
-0.000223093107281
0.00194421000559
-0.000210746605169
0.00203269441297
-0.00019789239582
0.0021162818791
-0.00018456144622
0.00219477103517
-0.000170785872159
0.00226797279456
-0.000156598860315
0.00233571080821
-0.000142034588227
0.00239782188984
-0.000127128142345
0.002454156409
-0.00011191543366
0.00250457865156
-9.64331110094e-05
0.00254896714651
-8.07184726684e-05
0.00258721495912
-6.48093765391e-05
0.00261922994595
-4.87441489607e-05
0.00264493498208
-3.25614924258e-05
0.00266426814161
-1.63003923779e-05
0.00267718284954
-2.32480768756e-11
0.00268364799341
1.6300345987e-05
0.00268364799823
3.25614463742e-05
0.00267718286399
4.87441035226e-05
0.00266426816568
6.48093320028e-05
0.00264493501576
8.07184293118e-05
0.00261922998921
9.64330690788e-05
0.00258721501184
0.000111915393344
0.00254896720856
0.000127128103821
0.00250457872279
0.000142034551783
0.00245415648919
0.00015659882632
0.00239782197874
0.000170785840818
0.00233571090561
0.000184561417492
0.00226797290019
0.000197892369755
0.00219477114862
0.000210746582165
0.00211628199972
0.000223093087785
0.00203269454011
0.000234902142779
0.00194421013915
0.000246145298053
0.00185104196181
0.000256795467822
0.00175341445915
0.000266826994858
0.0016515628236
0.00027621571231
0.00154573242436
0.000284939001913
0.00143617821592
0.000292975848476
0.00132316412383
0.000300306890493
0.00120696240895
0.000306914466801
0.00108785301145
0.000312782659146
0.00096612287645
0.000317897330537
0.000842065262761
0.000322246159282
0.000715979036518
0.000325818668658
0.000588167950493
0.000328606252155
0.000458939913725
0.000330602194228
0.000328606248258
0.000331801686483
0.0001974809399
0.000332201839249
6.58798816422e-05
0.00033180168854
-6.58798873877e-05
0.000330602198368
-0.00019748094571
0.000328606258431
-0.000328606254192
0.000325818677144
-0.000458939919837
0.000322246170052
-0.000588167956819
0.000317897343658
-0.000715979043086
0.000312782674698
-0.000842065269598
0.000306914484898
-0.000966122883589
0.00030030691128
-0.00108785301891
0.000292975872099
-0.00120696241672
0.000284939028493
-0.00132316413188
0.00027621574195
-0.00143617822421
0.000266827027663
-0.00154573243287
0.000256795503896
-0.00165156283228
0.00024614533749
-0.00175341446795
0.000234902185642
-0.00185104197104
0.000223093134107
-0.00194421014757
0.000210746631932
-0.00203269454881
0.000197892422924
-0.00211628200823
0.000184561474001
-0.00219477115687
0.000170785900591
-0.0022679729081
0.000156598889261
-0.00233571091312
0.000142034617755
-0.00239782198579
0.000127128172662
-0.00245415649575
0.000111915464898
-0.00250457872883
9.64331431969e-05
-0.00254896721406
8.0718505815e-05
-0.00258721501676
6.48094106864e-05
-0.00261922999353
4.87441841977e-05
-0.0026449350195
3.25615288782e-05
-0.00266426816884
1.63004301543e-05
-0.00267718286657
6.24079065904e-11
-0.00268364800025
-1.63003053947e-05
-0.00268364799489
-3.25614042671e-05
-0.0026771828505
-4.87440597972e-05
-0.00266426814211
-6.48092865568e-05
-0.0026449349822
-8.07183820365e-05
-0.00261922994576
-9.64330198717e-05
-0.00258721495865
-0.000111915342159
-0.00254896714577
-0.000127128050656
-0.00250457865055
-0.00014203449658
-0.00245415640771
-0.000156598768938
-0.00239782188834
-0.000170785781158
-0.00233571080664
-0.000184561355557
-0.00226797279306
-0.00019789230555
-0.00219477103379
-0.000210746515617
-0.00211628187769
-0.000223093018803
-0.00203269441152
-0.000234902071779
-0.00194421000442
-0.000246145224387
-0.00185104182305
-0.000256795391851
-0.00175341431621
-0.000266826916453
-0.00165156267794
-0.000276215631644
-0.00154573227727
-0.000284938919365
-0.00143617806894
-0.000292975763997
-0.00132316397873
-0.00030030680406
-0.0012069622675
-0.000306914379057
-0.0010878528756
-0.000312782570499
-0.000966122748471
-0.000317897241592
-0.000842065144997
-0.000322246070442
-0.000715978931552
-0.000325818582381
-0.000588167859941
-0.00032860616844
-0.000458939839721
-0.0003306021158
-0.000328606190526
-0.00033180161471
-0.000197480898197
-6.58798573182e-05
-0.00046340266388
6.53210366811e-05
-0.000461727428496
0.00019580569385
-0.000458939851801
0.000325818635832
-0.000455046647713
0.00045504664891
-0.00045005719633
0.000583178414679
-0.000443983515844
0.000709905251943
-0.00043684024126
0.000834921867524
-0.000428644579905
0.000957927082482
-0.000419416274712
0.00107862456621
-0.000409177558508
0.00119672354759
-0.00039795309815
0.00131193951499
-0.000385769933677
0.00142399490217
-0.000372657414876
0.00153261975747
-0.000358647131636
0.00163755239429
-0.000343772836419
0.00173854002091
-0.000328070362405
0.00183533934919
-0.000311577537914
0.0019277171811
-0.000294334095768
0.00201545097082
-0.000276381577268
0.0020983293606
-0.000257763231659
0.00217615268957
-0.00023852391196
0.00224873347487
-0.000218709967248
0.00231589686349
-0.000198369131125
0.00237748105372
-0.00017755040658
0.00243333768446
-0.000156303947781
0.00248333219276
-0.00013468093924
0.00252734413797
-0.000112733472585
0.00256526749246
-9.05144211416e-05
0.00259701089451
-6.80773125291e-05
0.00262249787347
-4.54761996999e-05
0.00264166702878
-2.27655307001e-05
0.00265447218054
-1.74982269746e-11
0.0026608824802
2.27654958229e-05
0.00266088248491
4.54761652014e-05
0.00265447219461
6.80772787107e-05
0.00264166705217
9.05143883318e-05
0.00262249790614
0.000112733441115
0.00259701093643
0.000134680909438
0.00256526754352
0.00015630391995
0.00252734419805
0.000177550380954
0.00248333226179
0.000198369107863
0.00243333776228
0.000218709946541
0.00237748114006
0.000238523894138
0.00231589695802
0.000257763217117
0.00224873357721
0.000276381566241
0.0021761527995
0.000294334088249
0.00209832947771
0.000311577533919
0.00201545109444
0.00032807036226
0.00192771731081
0.000343772840557
0.00183533948351
0.000358647140123
0.00173854015959
0.000372657427427
0.0016375525363
0.000385769950424
0.00153261990137
0.000397953119855
0.00142399504649
0.00040917758535
0.00131193965834
0.000419416306147
0.00119672368815
0.00042864461624
0.00107862470135
0.000436840283788
0.000957927208903
0.000443983564672
0.000834921981877
0.000450057250074
0.000709905351116
0.000455046707938
0.000583178492629
0.000458939918215
0.000455046703448
0.000461727501811
0.000325818664662
0.000463402743184
0.000195805698527
0.000463961606536
6.53210182907e-05
0.000463402745529
-6.53210263804e-05
0.000461727506524
-0.000195805706705
0.000458939925338
-0.000325818673006
0.000455046717523
-0.000455046712022
0.000450057262192
-0.000583178501488
0.000443983579415
-0.000709905360309
0.000436840301262
-0.000834921991445
0.00042864463655
-0.000957927218877
0.000419416329394
-0.00107862471175
0.000409177611642
-0.00119672369897
0.000397953149303
-0.00131193966954
0.000385769983131
-0.00142399505803
0.000372657463475
-0.00153261991321
0.000358647179576
-0.00163755254838
0.000343772883467
-0.00173854017184
0.000328070408279
-0.00183533949585
0.000311577583827
-0.00192771732312
0.00029433414163
-0.00201545110661
0.000276381623052
-0.00209832948965
0.000257763277293
-0.00217615281111
0.000238523957586
-0.00224873358839
0.000218710013142
-0.00231589696867
0.000198369177481
-0.00237748115013
0.00017755045345
-0.00243333777172
0.000156303995162
-0.00248333227054
0.000134680987178
-0.00252734420607
0.000112733521186
-0.00256526755077
9.05144705384e-05
-0.00259701094288
6.80773628431e-05
-0.00262249791181
4.54762510346e-05
-0.00264166705703
2.27655831499e-05
-0.00265447219869
7.11586496514e-11
-0.00266088248826
-2.27654408478e-05
-0.00266088248288
-4.54761087904e-05
-0.00265447218256
-6.80772207277e-05
-0.00264166703017
-9.05143286521e-05
-0.00262249787427
-0.000112733379644
-0.00259701089477
-0.000134680846082
-0.00256526749221
-0.000156303854589
-0.00252734413726
-0.000177550313456
-0.00248333219168
-0.000198369038126
-0.00243333768304
-0.00021870987449
-0.00237748105197
-0.000238523819688
-0.00231589686144
-0.000257763140186
-0.00224873347256
-0.000276381486784
-0.00217615268719
-0.000294334006255
-0.00209832935822
-0.000311577449384
-0.00201545096839
-0.000328070275144
-0.00192771717866
-0.000343772750853
-0.00183533934735
-0.000358647047948
-0.00173854001911
-0.000372657332933
-0.00163755239295
-0.000385769853635
-0.00153261975657
-0.000397953020837
-0.00142399490173
-0.000409177484464
-0.0013119395151
-0.000419416203801
-0.00119672354817
-0.000428644512755
-0.00107862456665
-0.000436840179526
-0.0009579270817
-0.0004439834603
-0.000834921864223
-0.000450057146454
-0.000709905245398
-0.000455046605482
-0.000583178400912
-0.00045893981821
-0.000455046626994
-0.000461727405669
-0.000325818603066
-0.000463402650714
-0.000195805653152
-6.53209885989e-05
-0.000593887316157
6.46048142663e-05
-0.000591740367322
0.000193658745015
-0.000588167863469
0.000322246131978
-0.000583178411193
0.000450057196634
-0.000576784031359
0.000576784034844
-0.000569000128776
0.000702121349361
-0.000559845453552
0.0008257671923
-0.000549342061211
0.000947423690141
-0.000537515255796
0.00106679776079
-0.000524393528468
0.00118360182026
-0.000510008490421
0.00129755447694
-0.00049439479693
0.00140838120868
-0.000477590063066
0.00151581502361
-0.000459634772791
0.00161959710402
-0.000440572181813
0.00171947742993
-0.000420448213778
0.00181521538115
-0.000399311349319
0.00190658031664
-0.000377212509003
0.00199335213051
-0.000354204930762
0.00207532178236
-0.000330344041869
0.00215229180067
-0.000305687325411
0.00222407675841
-0.000280294181649
0.00229050371973
-0.000254225784851
0.00235141265692
-0.000227544935995
0.0024066568356
-0.000200315911569
0.00245610316834
-0.000172604308714
0.00249963253511
-0.000144476887105
0.00253714007085
-0.00011600140812
0.00256853541553
-8.72464716138e-05
0.00259374293696
-5.82813507021e-05
0.00261270190787
-2.91758248643e-05
0.0026253666547
-1.18153718797e-11
0.00263170666716
2.91758014075e-05
0.00263170667168
5.82813277574e-05
0.00262536666826
8.72464495115e-05
0.00261270193041
0.000116001387206
0.00259374296845
0.00014447686773
0.0025685354559
0.000172604291193
0.00253714012006
0.000200315896171
0.00249963259307
0.000227544923007
0.00245610323495
0.000254225774618
0.00240665691067
0.000280294174506
0.00235141274018
0.000305687321607
0.00229050381092
0.000330344041595
0.00222407685722
0.000354204934263
0.00215229190683
0.000377212516607
0.00207532189536
0.000399311361312
0.00199335224974
0.000420448230286
0.00190658044184
0.00044057220291
0.00181521551089
0.000459634798738
0.00171947756376
0.00047759009426
0.00161959724077
0.000494394833536
0.00151581516209
0.000510008532418
0.0014083813476
0.000524393576087
0.00129755461467
0.000537515309669
0.00118360195457
0.000549342121707
0.00106679788932
0.000559845520325
0.000947423810284
0.000569000201873
0.00082576730033
0.000576784111887
0.000702121441102
0.000583178498215
0.000576784106301
0.000588167956198
0.000450057245465
0.000591740465781
0.000322246155079
0.000593887420472
0.000193658743835
0.000594603648073
6.46047906904e-05
0.000593887423132
-6.46048014396e-05
0.000591740471111
-0.000193658754684
0.000588167964227
-0.000322246166122
0.000583178508999
-0.000450057256793
0.0005767841255
-0.000576784117989
0.000569000218398
-0.000702121453207
0.000559845539852
-0.000825767312899
0.000549342144327
-0.000947423823353
0.000537515335475
-0.0010667979029
0.000524393605167
-0.00118360196866
0.000510008564852
-0.00129755462923
0.000494394869404
-0.00140838136259
0.000477590133628
-0.00151581517743
0.000459634841652
-0.00161959725641
0.000440572249391
-0.00171947757958
0.00042044828071
-0.00181521552717
0.000399311414907
-0.00190658045732
0.000377212573721
-0.00199335226543
0.000354204994828
-0.00207532191076
0.00033034410552
-0.0021522919218
0.000305687388781
-0.00222407687165
0.000280294244806
-0.0022905038247
0.000254225847898
-0.00235141275323
0.000227544999099
-0.00240665692292
0.000200315974896
-0.00245610324634
0.000172604372375
-0.00249963260355
0.000144476951182
-0.00253714012957
0.000116001472719
-0.00256853546442
8.72465368705e-05
-0.00259374297596
5.82814167556e-05
-0.00261270193691
2.91758918383e-05
-0.00262536667377
7.98293676256e-11
-0.00263170667625
-2.91757322264e-05
-0.00263170667082
-5.82812572782e-05
-0.0026253666575
-8.72463775987e-05
-0.00261270190985
-0.000116001313702
-0.00259374293817
-0.000144476792456
-0.00256853541601
-0.000172604213986
-0.00253714007068
-0.000200315816906
-0.00249963253434
-0.000227544841566
-0.00245610316702
-0.00025422569087
-0.00240665683374
-0.000280294088317
-0.00235141265453
-0.000305687232867
-0.00229050371689
-0.000330343950232
-0.00222407675519
-0.000354204840226
-0.0021522917972
-0.000377212419837
-0.00207532177861
-0.000399311261769
-0.00199335212646
-0.000420448127616
-0.00190658031282
-0.000440572097961
-0.001815215377
-0.000459634691207
-0.00171947742587
-0.000477589984224
-0.00161959709994
-0.000494394721172
-0.00151581501962
-0.00051000841798
-0.00140838120493
-0.000524393459843
-0.00129755447324
-0.000537515191913
-0.0011836018161
-0.000549342002877
-0.00106679775569
-0.00055984540099
-0.000947423683587
-0.000569000082471
-0.000825767182743
-0.000576783992913
-0.000702121334955
-0.000583178380293
-0.000576784013533
-0.000588167840027
-0.00045005716726
-0.00059174035078
-0.000322246092313
-0.000593887308973
-0.000193658694959
-6.46047590001e-05
-0.000722941242593
6.373295177e-05
-0.000720327751249
0.000191045253672
-0.000715978926764
0.000317897307493
-0.000709905248281
0.000443983518151
-0.000702121344263
0.000569000130827
-0.000692645969018
0.000692645974116
-0.000681501948789
0.000814623172071
-0.000668716130247
0.000934637871599
-0.000654319315137
0.00105240094568
-0.000638346187025
0.00116762869215
-0.000620835226718
0.00128004351664
-0.000601828619564
0.00138937460153
-0.00058137215422
0.00149535855826
-0.000559515112222
0.00159774006202
-0.000536310149212
0.00169627246692
-0.000511813168035
0.00179071839997
-0.000486083184126
0.00188085033273
-0.000459182183333
0.00196645112971
-0.000431174972564
0.00204731457159
-0.000402129023671
0.00212324585178
-0.000372114310906
0.00219406204564
-0.000341203142357
0.00225959255118
-0.000309469985751
0.00231967950032
-0.000276991289048
0.0023741781389
-0.000243845296255
0.00242295717554
-0.000210111858945
0.0024658990978
-0.00017587224388
0.00250290045579
-0.000141208937261
0.00253387210891
-0.000106205445981
0.00255873944568
-7.09460964753e-05
0.00257744255836
-3.55158315577e-05
0.00258993638978
-5.78448900032e-12
0.00259619084138
3.55158201683e-05
0.00259619084573
7.09460856302e-05
0.0025899364028
0.000106205436054
0.00257744257999
0.000141208928633
0.00255873947587
0.000175872236926
0.00253387214761
0.000210111854032
0.00250290050295
0.000243845293733
0.00246589915337
0.000276991289258
0.00242295723943
0.000309469989023
0.0023741782109
0.000341203149006
0.00231967958019
0.000372114321245
0.00225959263868
0.000402129038014
0.00219406214045
0.000431174991213
0.00212324595363
0.00045918220657
0.00204731468001
0.000486083212212
0.0019664512441
0.000511813201221
0.00188085045283
0.000536310187743
0.00179071852437
0.00055951515634
0.00169627259516
0.000581372204151
0.00159774019296
0.000601828675572
0.00149535869067
0.000620835289109
0.00138937473407
0.000638346256097
0.00128004364768
0.000654319391019
0.00116762881965
0.000668716213134
0.0010524010672
0.000681502039182
0.000934637984237
0.000692646066936
0.000814623272575
0.000702121449411
0.000692646058627
0.000709905359536
0.000569000196176
0.000715979045166
0.000443983559836
0.000720327874241
0.000317897326003
0.000722941370042
0.000191045248035
0.000723813236423
6.37329243098e-05
0.000722941372986
-6.37329380033e-05
0.000720327880145
-0.000191045261843
0.000715979054058
-0.000317897340035
0.000709905371462
-0.000443983574197
0.000702121464429
-0.000569000210957
0.000692646085118
-0.000692646073897
0.000681502060603
-0.000814623288384
0.000668716237869
-0.000934638000618
0.000654319419142
-0.00105240108417
0.00063834628768
-0.0011676288372
0.000620835324218
-0.00128004366577
0.000601828714264
-0.00138937475263
0.000581372246464
-0.00149535870963
0.000559515202298
-0.00159774021224
0.00053631023735
-0.00169627261463
0.000511813254088
-0.00179071854391
0.00048608326906
-0.00188085047229
0.000459182266957
-0.00196645126333
0.000431175055059
-0.00204731469886
0.000402129105215
-0.00212324597196
0.000372114391677
-0.00219406215811
0.000341203222524
-0.00225959265554
0.000309470065466
-0.00231967959617
0.000276991368447
-0.0023741782259
0.000243845375474
-0.00242295725337
0.000210111938122
-0.0024658991662
0.000175872323159
-0.00250290051461
0.000141209016792
-0.00253387215806
0.000106205525921
-0.00255873948509
7.09461769782e-05
-0.00257744258797
3.55159127764e-05
-0.00258993640957
8.78703912118e-11
-0.00259619085135
-3.55157370616e-05
-0.00259619084589
-7.09460013393e-05
-0.00258993639323
-0.000106205350404
-0.00257744256079
-0.000141208841438
-0.00255873944714
-0.000175872148003
-0.00253387210945
-0.000210111763204
-0.00250290045548
-0.000243845200841
-0.00246589909671
-0.000276991194148
-0.00242295717371
-0.000309469891541
-0.00237417813635
-0.000341203049005
-0.00231967949706
-0.000372114218599
-0.0022595925473
-0.000402128932624
-0.00219406204117
-0.000431174883007
-0.00212324584682
-0.000459182095483
-0.00204731456613
-0.000486083098198
-0.00196645112375
-0.000511813084291
-0.00188085032672
-0.000536310067982
-0.00179071839331
-0.000559515033846
-0.00169627246
-0.000581372079052
-0.00159774005473
-0.000601828548058
-0.00149535855061
-0.000620835159441
-0.00138937459354
-0.000638346124584
-0.0012800435081
-0.000654319258036
-0.00116762868264
-0.00066871607912
-0.0010524009346
-0.000681501904595
-0.000934637858112
-0.000692645932178
-0.00081462315516
-0.000702121314858
-0.000692645952276
-0.000709905225538
-0.000569000102853
-0.000715978911632
-0.000443983481166
-0.000720327742025
-0.00031789726192
-0.000722941237676
-0.000191045199308
-6.3732891587e-05
-0.000850253539723
6.27075490339e-05
-0.000847179803358
0.000187971517307
-0.000842065136413
0.000312782640547
-0.000834921860725
0.000436840242462
-0.000825767186286
0.000559845456388
-0.000814623165756
0.000681501953586
-0.000801516646534
0.000801516652849
-0.000786479203034
0.000919600428099
-0.000769547061778
0.00103546880443
-0.000750761013834
0.00114884264421
-0.000730166316348
0.00125944881915
-0.000707812583771
0.00136702086895
-0.000683753668386
0.00147129964288
-0.000658047530354
0.00157203392399
-0.000630756098078
0.00166898103465
-0.000601945119009
0.0017619074209
-0.000571684001413
0.00185058921514
-0.000540045647093
0.00193481277539
-0.000507106275665
0.00201437520016
-0.000472945240964
0.00208908481708
-0.000437644839922
0.0021587616446
-0.00040129011433
0.00222323782559
-0.00036396864594
0.00228235803193
-0.000325770345441
0.0023359798384
-0.000286787235858
0.00238397406596
-0.000247113230876
0.00242622509282
-0.000206843908603
0.00246263113352
-0.000166076281336
0.00249310448164
-0.000124908561799
0.00251757172615
-8.34399265852e-05
0.00253597392315
-4.17702772211e-05
0.00254826674042
5.2430248986e-13
0.00255442056364
4.17702784745e-05
0.00255442056778
8.34399284466e-05
0.00254826675283
0.000124908564667
0.00253597394377
0.000166076285615
0.00251757175492
0.000206843914704
0.00249310451852
0.0002471132392
0.00246263117846
0.000286787246797
0.00242622514577
0.000325770359376
0.00238397412685
0.00036396866323
0.00233597990705
0.00040129013532
0.0022823581081
0.000437644864952