/*--------------------------------*- C++ -*----------------------------------*\
| =========                 |                                                 |
| \\      /  F ield         | OpenFOAM: The Open Source CFD Toolbox           |
|  \\    /   O peration     | Version:  2406                                  |
|   \\  /    A nd           | Website:  www.openfoam.com                      |
|    \\/     M anipulation  |                                                 |
\*---------------------------------------------------------------------------*/
FoamFile
{
    version     2.0;
    format      ascii;
    arch        "LSB;label=32;scalar=64";
    class       volVectorField;
    location    "24.05";
    object      Uold;
}
// * * * * * * * * * * * * * * * * * * * * * * * * * * * * * * * * * * * * * //

dimensions      [0 1 -1 0 0 0 0];

internalField   nonuniform List<vector> 
14400
(
(-6.42023e-06 6.38328e-06 0)
(1.93942e-05 -1.40722e-05 0)
(0.000101478 -3.11275e-05 0)
(0.000219506 -4.3594e-05 0)
(0.000365944 -4.91884e-05 0)
(0.000521097 -5.13586e-05 0)
(0.000680638 -5.02872e-05 0)
(0.000833589 -4.77631e-05 0)
(0.000978502 -4.39402e-05 0)
(0.00111012 -3.96652e-05 0)
(0.00122848 -3.50201e-05 0)
(0.00133152 -3.0406e-05 0)
(0.00141997 -2.58543e-05 0)
(0.0014934 -2.15424e-05 0)
(0.00155274 -1.74652e-05 0)
(0.00159825 -1.36827e-05 0)
(0.00163079 -1.01615e-05 0)
(0.00165078 -6.89304e-06 0)
(0.00165877 -3.81593e-06 0)
(0.00165496 -8.72673e-07 0)
(0.00163941 2.02822e-06 0)
(0.00161181 4.9838e-06 0)
(0.00157155 8.1132e-06 0)
(0.0015176 1.15411e-05 0)
(0.00144852 1.54024e-05 0)
(0.00136246 1.98313e-05 0)
(0.00125712 2.49599e-05 0)
(0.00112981 3.09114e-05 0)
(0.000977481 3.77978e-05 0)
(0.000796751 4.57162e-05 0)
(0.000583976 5.47486e-05 0)
(0.000335306 6.49597e-05 0)
(4.67533e-05 7.63973e-05 0)
(-0.000285741 8.90907e-05 0)
(-0.000666225 0.00010305 0)
(-0.00109865 0.00011826 0)
(-0.00158678 0.000134683 0)
(-0.00213408 0.000152248 0)
(-0.00274358 0.000170849 0)
(-0.00341778 0.000190341 0)
(-0.00415846 0.000210537 0)
(-0.00496658 0.000231205 0)
(-0.00584212 0.000252067 0)
(-0.0067839 0.0002728 0)
(-0.00778951 0.000293038 0)
(-0.00885517 0.000312373 0)
(-0.00997563 0.000330365 0)
(-0.0111441 0.000346544 0)
(-0.0123522 0.000360419 0)
(-0.0135901 0.000371487 0)
(-0.0148463 0.000379241 0)
(-0.0161078 0.000383182 0)
(-0.0173603 0.000382826 0)
(-0.0185883 0.00037772 0)
(-0.0197752 0.000367448 0)
(-0.0209036 0.000351645 0)
(-0.0219553 0.000330013 0)
(-0.0229119 0.000302329 0)
(-0.023755 0.000268462 0)
(-0.0244664 0.000228389 0)
(-0.0250286 0.00018221 0)
(-0.0254251 0.000130165 0)
(-0.0256408 7.26455e-05 0)
(-0.0256625 1.02118e-05 0)
(-0.0254792 -5.63984e-05 0)
(-0.0250827 -0.000126265 0)
(-0.024468 -0.000198283 0)
(-0.0236334 -0.000271177 0)
(-0.0225812 -0.00034351 0)
(-0.0213179 -0.000413718 0)
(-0.0198542 -0.000480149 0)
(-0.0182054 -0.000541108 0)
(-0.0163911 -0.000594922 0)
(-0.014435 -0.000640005 0)
(-0.0123648 -0.000674935 0)
(-0.0102115 -0.000698525 0)
(-0.00800855 -0.000709894 0)
(-0.00579136 -0.000708532 0)
(-0.00359607 -0.00069434 0)
(-0.00145858 -0.000667664 0)
(0.000586603 -0.000629293 0)
(0.00250741 -0.000580438 0)
(0.0042753 -0.000522683 0)
(0.00586617 -0.00045791 0)
(0.00726106 -0.000388211 0)
(0.00844669 -0.000315777 0)
(0.00941574 -0.000242791 0)
(0.0101668 -0.000171324 0)
(0.0107042 -0.000103234 0)
(0.0110373 -4.00992e-05 0)
(0.0111801 1.68411e-05 0)
(0.01115 6.67089e-05 0)
(0.0109673 0.000108992 0)
(0.0106536 0.00014352 0)
(0.0102315 0.00017043 0)
(0.00972346 0.000190114 0)
(0.00915091 0.000203161 0)
(0.00853386 0.000210297 0)
(0.00789028 0.000212337 0)
(0.00723597 0.000210117 0)
(0.00658424 0.000204479 0)
(0.00594608 0.000196202 0)
(0.00532995 0.00018603 0)
(0.00474237 0.000174591 0)
(0.0041875 0.000162482 0)
(0.0036682 0.000150149 0)
(0.00318518 0.000138053 0)
(0.00273871 0.000126444 0)
(0.00232693 0.000115674 0)
(0.00194883 0.000105742 0)
(0.00160096 9.68862e-05 0)
(0.00128276 8.86819e-05 0)
(0.000990677 8.12032e-05 0)
(0.000727221 7.32461e-05 0)
(0.000490888 6.4714e-05 0)
(0.000290541 5.3104e-05 0)
(0.000129146 3.87663e-05 0)
(2.21955e-05 1.82203e-05 0)
(-2.61581e-05 -2.25259e-06 0)
(-1.7509e-05 -1.72423e-05 0)
(1.38074e-05 -1.92535e-05 0)
(0.000121146 -0.000121688 0)
(0.000337209 -0.000205317 0)
(0.000620749 -0.000267281 0)
(0.000960967 -0.0003002 0)
(0.00132159 -0.000313908 0)
(0.00169148 -0.000310593 0)
(0.00204849 -0.000296825 0)
(0.00238629 -0.000274922 0)
(0.00269351 -0.000248524 0)
(0.00296768 -0.000219112 0)
(0.00320388 -0.000188542 0)
(0.00340186 -0.000157569 0)
(0.00356002 -0.000127019 0)
(0.00367903 -9.71458e-05 0)
(0.00375867 -6.81797e-05 0)
(0.0037996 -4.0036e-05 0)
(0.00380174 -1.2568e-05 0)
(0.00376513 1.45701e-05 0)
(0.00368899 4.18074e-05 0)
(0.00357214 6.97186e-05 0)
(0.00341247 9.89622e-05 0)
(0.00320711 0.000130298 0)
(0.00295216 0.000164538 0)
(0.00264273 0.000202539 0)
(0.00227289 0.000245154 0)
(0.00183571 0.000293207 0)
(0.00132333 0.000347455 0)
(0.000727105 0.000408565 0)
(3.76922e-05 0.000477086 0)
(-0.000754704 0.000553434 0)
(-0.00166015 0.000637874 0)
(-0.00268874 0.000730511 0)
(-0.00385036 0.000831273 0)
(-0.00515436 0.000939897 0)
(-0.00660932 0.00105591 0)
(-0.00822266 0.00117859 0)
(-0.0100003 0.00130699 0)
(-0.0119465 0.00143986 0)
(-0.014063 0.00157569 0)
(-0.0163491 0.00171266 0)
(-0.0188015 0.00184867 0)
(-0.0214131 0.00198137 0)
(-0.0241739 0.00210814 0)
(-0.02707 0.00222619 0)
(-0.0300838 0.00233257 0)
(-0.033194 0.00242422 0)
(-0.0363757 0.00249809 0)
(-0.0396004 0.00255114 0)
(-0.0428366 0.00258047 0)
(-0.04605 0.00258336 0)
(-0.0492039 0.00255735 0)
(-0.05226 0.00250028 0)
(-0.0551785 0.0024104 0)
(-0.0579193 0.00228639 0)
(-0.0604421 0.0021274 0)
(-0.0627073 0.00193313 0)
(-0.0646769 0.00170383 0)
(-0.0663144 0.00144038 0)
(-0.0675865 0.00114429 0)
(-0.0684626 0.000817712 0)
(-0.0689162 0.000463512 0)
(-0.0689252 8.52408e-05 0)
(-0.0684724 -0.000312841 0)
(-0.0675459 -0.000725778 0)
(-0.0661399 -0.00114794 0)
(-0.0642548 -0.00157308 0)
(-0.0618978 -0.00199437 0)
(-0.059083 -0.00240454 0)
(-0.0558317 -0.00279599 0)
(-0.0521723 -0.00316094 0)
(-0.0481404 -0.00349167 0)
(-0.0437787 -0.00378066 0)
(-0.0391362 -0.00402096 0)
(-0.0342679 -0.00420634 0)
(-0.029234 -0.00433164 0)
(-0.0240986 -0.004393 0)
(-0.018929 -0.00438809 0)
(-0.013794 -0.00431631 0)
(-0.00876227 -0.00417892 0)
(-0.00390105 -0.00397907 0)
(0.000725762 -0.0037218 0)
(0.00505922 -0.00341388 0)
(0.00904689 -0.0030636 0)
(0.0126443 -0.00268046 0)
(0.0158162 -0.00227479 0)
(0.0185374 -0.00185734 0)
(0.0207931 -0.00143881 0)
(0.0225797 -0.00102938 0)
(0.0239038 -0.000638387 0)
(0.0247822 -0.000273877 0)
(0.0252403 5.75948e-05 0)
(0.0253115 0.000351156 0)
(0.0250348 0.000603674 0)
(0.0244537 0.000813732 0)
(0.0236144 0.000981487 0)
(0.0225636 0.0011085 0)
(0.0213474 0.00119744 0)
(0.0200095 0.0012519 0)
(0.0185906 0.001276 0)
(0.0171268 0.00127423 0)
(0.0156498 0.00125112 0)
(0.0141861 0.00121118 0)
(0.0127574 0.00115857 0)
(0.01138 0.0010972 0)
(0.0100664 0.00103042 0)
(0.00882398 0.000961313 0)
(0.00765793 0.000892137 0)
(0.00656872 0.000825011 0)
(0.00555712 0.000760748 0)
(0.0046194 0.000700252 0)
(0.00375607 0.00064215 0)
(0.00296286 0.000585786 0)
(0.00224564 0.000526473 0)
(0.0016038 0.00046227 0)
(0.00105433 0.0003844 0)
(0.000602031 0.000293484 0)
(0.000274076 0.000180223 0)
(6.96653e-05 6.77529e-05 0)
(-2.23484e-06 -2.60607e-05 0)
(3.05592e-05 -0.000100589 0)
(0.00020396 -0.000337492 0)
(0.000525064 -0.000526576 0)
(0.000927939 -0.000663422 0)
(0.00140115 -0.000740055 0)
(0.00189735 -0.000771004 0)
(0.00240245 -0.000763157 0)
(0.00288758 -0.000728541 0)
(0.00334335 -0.000673852 0)
(0.00375427 -0.000606489 0)
(0.00411564 -0.000530736 0)
(0.00442006 -0.000450545 0)
(0.00466573 -0.000368121 0)
(0.00484942 -0.000285218 0)
(0.00497055 -0.000202617 0)
(0.0050275 -0.000120724 0)
(0.00501963 -3.93676e-05 0)
(0.00494532 4.19374e-05 0)
(0.00480288 0.000124078 0)
(0.00458954 0.000208225 0)
(0.00430177 0.000295863 0)
(0.00393472 0.000388719 0)
(0.00348235 0.000488736 0)
(0.00293714 0.000597998 0)
(0.00229015 0.000718658 0)
(0.00153095 0.000852846 0)
(0.000647809 0.00100258 0)
(-0.00037226 0.00116966 0)
(-0.00154317 0.00135562 0)
(-0.00287954 0.00156159 0)
(-0.00439626 0.00178833 0)
(-0.00610816 0.00203608 0)
(-0.00802951 0.00230459 0)
(-0.0101735 0.00259303 0)
(-0.0125519 0.00289995 0)
(-0.0151742 0.00322327 0)
(-0.0180472 0.00356019 0)
(-0.0211745 0.00390717 0)
(-0.0245559 0.00425993 0)
(-0.0281867 0.00461345 0)
(-0.0320575 0.004962 0)
(-0.0361537 0.0052992 0)
(-0.0404553 0.00561814 0)
(-0.0449368 0.00591151 0)
(-0.0495673 0.00617174 0)
(-0.0543108 0.00639121 0)
(-0.0591264 0.00656243 0)
(-0.0639693 0.00667821 0)
(-0.0687909 0.00673191 0)
(-0.0735403 0.00671757 0)
(-0.0781644 0.00663008 0)
(-0.0826095 0.00646534 0)
(-0.086822 0.00622034 0)
(-0.090749 0.00589324 0)
(-0.0943395 0.00548344 0)
(-0.097545 0.00499162 0)
(-0.10032 0.00441971 0)
(-0.102624 0.00377093 0)
(-0.104418 0.00304975 0)
(-0.105671 0.00226191 0)
(-0.106356 0.00141436 0)
(-0.106451 0.000515238 0)
(-0.105939 -0.000426121 0)
(-0.104811 -0.00139926 0)
(-0.103064 -0.00239263 0)
(-0.100699 -0.00339367 0)
(-0.0977273 -0.00438891 0)
(-0.0941644 -0.00536407 0)
(-0.0900336 -0.00630428 0)
(-0.0853654 -0.00719426 0)
(-0.0801971 -0.00801861 0)
(-0.074573 -0.00876217 0)
(-0.0685443 -0.00941031 0)
(-0.0621687 -0.00994947 0)
(-0.0555097 -0.0103675 0)
(-0.0486362 -0.0106542 0)
(-0.041622 -0.0108018 0)
(-0.0345439 -0.0108053 0)
(-0.0274814 -0.0106629 0)
(-0.0205147 -0.0103763 0)
(-0.0137236 -0.00995073 0)
(-0.00718557 -0.00939522 0)
(-0.000974179 -0.00872223 0)
(0.0048426 -0.00794742 0)
(0.010204 -0.00708925 0)
(0.0150582 -0.00616832 0)
(0.0193633 -0.00520666 0)
(0.0230885 -0.00422693 0)
(0.0262152 -0.0032516 0)
(0.0287368 -0.00230204 0)
(0.030659 -0.0013978 0)
(0.0319996 -0.000555884 0)
(0.0327869 0.000209771 0)
(0.0330593 0.000888682 0)
(0.032863 0.001474 0)
(0.0322507 0.0019625 0)
(0.031279 0.00235436 0)
(0.030007 0.00265281 0)
(0.0284934 0.00286371 0)
(0.0267956 0.00299485 0)
(0.0249672 0.00305553 0)
(0.0230575 0.00305581 0)
(0.0211096 0.00300618 0)
(0.019161 0.00291684 0)
(0.0172421 0.00279769 0)
(0.0153777 0.0026576 0)
(0.0135854 0.00250473 0)
(0.011879 0.0023456 0)
(0.0102652 0.00218585 0)
(0.00875032 0.00202861 0)
(0.007334 0.0018761 0)
(0.00602049 0.00172649 0)
(0.00480713 0.00157766 0)
(0.00370376 0.001421 0)
(0.00271031 0.00125082 0)
(0.00184994 0.00105191 0)
(0.00112585 0.000823253 0)
(0.000576625 0.000552518 0)
(0.000195395 0.000276698 0)
(2.10941e-05 2.63597e-05 0)
(4.2951e-05 -0.000217462 0)
(0.000266222 -0.000620659 0)
(0.000663043 -0.000929591 0)
(0.00114556 -0.00114528 0)
(0.00170209 -0.00126597 0)
(0.00227733 -0.00131109 0)
(0.00285681 -0.00129326 0)
(0.00340743 -0.00122968 0)
(0.00391843 -0.00113179 0)
(0.00437137 -0.00101079 0)
(0.00475988 -0.000874031 0)
(0.00507421 -0.000727664 0)
(0.00531082 -0.000575465 0)
(0.00546437 -0.000420152 0)
(0.00553238 -0.000263019 0)
(0.0055111 -0.000104572 0)
(0.00539768 5.55778e-05 0)
(0.00518807 0.000218438 0)
(0.00487794 0.00038567 0)
(0.00446154 0.000559464 0)
(0.00393208 0.000742527 0)
(0.00328107 0.000937988 0)
(0.0024985 0.00114932 0)
(0.00157253 0.0013802 0)
(0.000489616 0.00163437 0)
(-0.000765498 0.00191548 0)
(-0.0022095 0.00222685 0)
(-0.00386026 0.00257136 0)
(-0.00573641 0.00295123 0)
(-0.00785683 0.00336789 0)
(-0.01024 0.00382189 0)
(-0.0129036 0.0043127 0)
(-0.0158633 0.0048387 0)
(-0.0191325 0.00539707 0)
(-0.0227212 0.00598369 0)
(-0.0266353 0.0065931 0)
(-0.0308758 0.00721848 0)
(-0.0354381 0.00785162 0)
(-0.0403114 0.00848301 0)
(-0.0454783 0.00910189 0)
(-0.0509143 0.0096965 0)
(-0.0565879 0.0102542 0)
(-0.0624607 0.0107621 0)
(-0.0684879 0.0112067 0)
(-0.0746192 0.0115751 0)
(-0.0807991 0.0118547 0)
(-0.0869686 0.0120341 0)
(-0.0930663 0.0121031 0)
(-0.0990291 0.0120527 0)
(-0.104794 0.0118762 0)
(-0.1103 0.0115686 0)
(-0.115486 0.0111267 0)
(-0.120296 0.0105498 0)
(-0.124678 0.00983871 0)
(-0.128583 0.00899656 0)
(-0.131968 0.00802812 0)
(-0.134794 0.00693994 0)
(-0.137028 0.00574018 0)
(-0.138643 0.00443849 0)
(-0.139615 0.00304595 0)
(-0.139927 0.001575 0)
(-0.139568 3.9342e-05 0)
(-0.138529 -0.00154605 0)
(-0.136811 -0.00316501 0)
(-0.134415 -0.00480019 0)
(-0.131351 -0.00643315 0)
(-0.127632 -0.00804442 0)
(-0.123279 -0.00961364 0)
(-0.118317 -0.0111197 0)
(-0.112777 -0.0125411 0)
(-0.106696 -0.013856 0)
(-0.100119 -0.0150431 0)
(-0.0930944 -0.0160816 0)
(-0.0856788 -0.0169519 0)
(-0.077934 -0.0176365 0)
(-0.0699276 -0.0181201 0)
(-0.061732 -0.0183907 0)
(-0.0534243 -0.0184401 0)
(-0.0450847 -0.0182642 0)
(-0.0367955 -0.0178639 0)
(-0.0286401 -0.017245 0)
(-0.020701 -0.0164185 0)
(-0.0130589 -0.0154007 0)
(-0.0057901 -0.0142125 0)
(0.0010343 -0.0128793 0)
(0.00735046 -0.0114301 0)
(0.0131032 -0.00989673 0)
(0.0182472 -0.00831266 0)
(0.0227482 -0.006712 0)
(0.0265838 -0.00512828 0)
(0.0297441 -0.00359331 0)
(0.0322316 -0.00213612 0)
(0.0340613 -0.000781958 0)
(0.0352597 0.000448449 0)
(0.0358641 0.00153947 0)
(0.0359214 0.00248083 0)
(0.0354859 0.0032677 0)
(0.0346176 0.0039004 0)
(0.03338 0.00438397 0)
(0.0318379 0.00472744 0)
(0.0300554 0.0049431 0)
(0.0280938 0.0050455 0)
(0.0260097 0.00505072 0)
(0.0238549 0.00497535 0)
(0.0216734 0.00483597 0)
(0.0195036 0.0046482 0)
(0.0173753 0.00442661 0)
(0.0153134 0.0041835 0)
(0.0133341 0.00392945 0)
(0.0114521 0.00367129 0)
(0.00967361 0.00341367 0)
(0.00800907 0.00315538 0)
(0.00645933 0.00289351 0)
(0.00503949 0.00261649 0)
(0.00374993 0.00231504 0)
(0.00261989 0.00196865 0)
(0.00164939 0.00157308 0)
(0.000889733 0.00111248 0)
(0.000329412 0.000626595 0)
(4.62929e-05 0.000147608 0)
(4.90019e-05 -0.000363407 0)
(0.00030166 -0.000962118 0)
(0.000745048 -0.00140477 0)
(0.00127407 -0.00170283 0)
(0.00187537 -0.00186602 0)
(0.00248701 -0.00191954 0)
(0.00309439 -0.00188331 0)
(0.00366153 -0.00177971 0)
(0.00417713 -0.00162542 0)
(0.00462071 -0.00143542 0)
(0.00498461 -0.00122028 0)
(0.00525707 -0.000988289 0)
(0.00543264 -0.000744821 0)
(0.00550371 -0.000493441 0)
(0.00546542 -0.000235859 0)
(0.00531135 2.74984e-05 0)
(0.00503581 0.000297439 0)
(0.00463157 0.000575755 0)
(0.00409089 0.000865174 0)
(0.00340428 0.00116924 0)
(0.00256089 0.00149223 0)
(0.00154789 0.00183904 0)
(0.000350633 0.002215 0)
(-0.00104758 0.00262568 0)
(-0.00266524 0.00307661 0)
(-0.00452253 0.00357301 0)
(-0.00664083 0.00411946 0)
(-0.00904229 0.00471959 0)
(-0.0117491 0.00537581 0)
(-0.0147828 0.00608908 0)
(-0.0181631 0.00685863 0)
(-0.0219075 0.00768184 0)
(-0.0260296 0.00855404 0)
(-0.0305383 0.00946847 0)
(-0.035437 0.0104161 0)
(-0.0407225 0.0113858 0)
(-0.046384 0.0123643 0)
(-0.0524027 0.013336 0)
(-0.0587515 0.0142839 0)
(-0.0653948 0.0151895 0)
(-0.0722886 0.0160333 0)
(-0.0793817 0.0167953 0)
(-0.086616 0.0174559 0)
(-0.0939283 0.0179959 0)
(-0.101252 0.0183979 0)
(-0.108516 0.0186461 0)
(-0.115653 0.0187272 0)
(-0.122592 0.0186307 0)
(-0.129266 0.0183488 0)
(-0.135614 0.0178768 0)
(-0.141575 0.0172131 0)
(-0.147097 0.0163587 0)
(-0.152131 0.0153174 0)
(-0.156635 0.0140954 0)
(-0.160571 0.012701 0)
(-0.163908 0.0111444 0)
(-0.16662 0.00943738 0)
(-0.168685 0.00759334 0)
(-0.170086 0.0056269 0)
(-0.170808 0.00355393 0)
(-0.170843 0.00139148 0)
(-0.170186 -0.000842231 0)
(-0.168832 -0.00312782 0)
(-0.166784 -0.00544468 0)
(-0.164046 -0.00777095 0)
(-0.160626 -0.0100835 0)
(-0.156536 -0.0123581 0)
(-0.151793 -0.0145692 0)
(-0.146419 -0.0166902 0)
(-0.140438 -0.0186941 0)
(-0.133883 -0.0205529 0)
(-0.126791 -0.0222392 0)
(-0.119206 -0.0237258 0)
(-0.111178 -0.0249869 0)
(-0.102763 -0.0259988 0)
(-0.0940236 -0.0267403 0)
(-0.0850296 -0.0271943 0)
(-0.0758548 -0.027348 0)
(-0.0665782 -0.0271939 0)
(-0.0572826 -0.0267306 0)
(-0.0480529 -0.025963 0)
(-0.0389752 -0.024903 0)
(-0.0301348 -0.023569 0)
(-0.0216148 -0.0219862 0)
(-0.013494 -0.0201857 0)
(-0.00584575 -0.0182037 0)
(0.00126415 -0.016081 0)
(0.00777845 -0.0138611 0)
(0.0136498 -0.0115891 0)
(0.0188419 -0.00931067 0)
(0.0233298 -0.00706993 0)
(0.0271011 -0.00490853 0)
(0.0301554 -0.0028642 0)
(0.0325047 -0.000969586 0)
(0.0341728 0.000748646 0)
(0.0351947 0.0022705 0)
(0.035615 0.00358303 0)
(0.0354871 0.00468039 0)
(0.0348707 0.00556356 0)
(0.0338305 0.00623976 0)
(0.0324331 0.00672165 0)
(0.030746 0.00702618 0)
(0.028834 0.00717363 0)
(0.026759 0.00718616 0)
(0.0245767 0.00708694 0)
(0.0223377 0.00689873 0)
(0.0200839 0.00664335 0)
(0.0178523 0.00634004 0)
(0.01567 0.0060056 0)
(0.013562 0.00565199 0)
(0.0115426 0.00528754 0)
(0.00963069 0.00491303 0)
(0.00783202 0.00452562 0)
(0.00616836 0.00411202 0)
(0.00464154 0.00365942 0)
(0.00328804 0.00314288 0)
(0.00210618 0.00255258 0)
(0.00116215 0.00186795 0)
(0.000443049 0.00112105 0)
(6.61125e-05 0.000336234 0)
(5.22122e-05 -0.000520118 0)
(0.000320127 -0.00132747 0)
(0.00078517 -0.00190628 0)
(0.00133138 -0.00228168 0)
(0.00194292 -0.00247862 0)
(0.00255338 -0.00252983 0)
(0.00314794 -0.00246371 0)
(0.00368892 -0.00230785 0)
(0.00416468 -0.00208415 0)
(0.00455336 -0.00181094 0)
(0.00484612 -0.00150174 0)
(0.00502927 -0.0011666 0)
(0.00509533 -0.000812162 0)
(0.00503412 -0.000442523 0)
(0.00483798 -5.95292e-05 0)
(0.00449731 0.000336767 0)
(0.00400295 0.000747873 0)
(0.00334388 0.00117666 0)
(0.00250825 0.00162722 0)
(0.00148214 0.00210475 0)
(0.000249999 0.00261538 0)
(-0.00120595 0.00316599 0)
(-0.00290545 0.00376394 0)
(-0.00487031 0.0044167 0)
(-0.00712397 0.00513149 0)
(-0.00969116 0.00591475 0)
(-0.0125972 0.00677173 0)
(-0.015867 0.00770599 0)
(-0.0195246 0.00871896 0)
(-0.0235913 0.00980961 0)
(-0.0280849 0.0109741 0)
(-0.0330183 0.0122055 0)
(-0.0383983 0.0134939 0)
(-0.0442243 0.014826 0)
(-0.0504873 0.0161852 0)
(-0.0571689 0.017552 0)
(-0.064241 0.0189042 0)
(-0.0716659 0.0202172 0)
(-0.079396 0.0214649 0)
(-0.0873753 0.0226202 0)
(-0.0955399 0.023656 0)
(-0.10382 0.0245459 0)
(-0.112143 0.0252656 0)
(-0.120432 0.025793 0)
(-0.128613 0.0261095 0)
(-0.136611 0.0261998 0)
(-0.144356 0.0260531 0)
(-0.151784 0.0256624 0)
(-0.158834 0.0250247 0)
(-0.165453 0.024141 0)
(-0.171596 0.0230154 0)
(-0.177221 0.0216551 0)
(-0.182294 0.0200699 0)
(-0.186786 0.0182716 0)
(-0.190673 0.0162737 0)
(-0.193935 0.0140912 0)
(-0.196556 0.0117401 0)
(-0.198523 0.00923755 0)
(-0.199825 0.00660138 0)
(-0.200453 0.00385043 0)
(-0.200401 0.00100441 0)
(-0.199663 -0.00191592 0)
(-0.198238 -0.00488866 0)
(-0.196124 -0.00789063 0)
(-0.193321 -0.0108972 0)
(-0.189834 -0.0138822 0)
(-0.185669 -0.0168178 0)
(-0.180836 -0.0196747 0)
(-0.175347 -0.022422 0)
(-0.169222 -0.0250275 0)
(-0.162483 -0.027458 0)
(-0.15516 -0.0296801 0)
(-0.147288 -0.0316602 0)
(-0.13891 -0.0333659 0)
(-0.130075 -0.0347667 0)
(-0.120839 -0.0358348 0)
(-0.111268 -0.0365466 0)
(-0.101432 -0.0368835 0)
(-0.0914079 -0.036833 0)
(-0.0812792 -0.0363897 0)
(-0.0711324 -0.0355562 0)
(-0.0610571 -0.034343 0)
(-0.0511437 -0.0327695 0)
(-0.0414815 -0.0308631 0)
(-0.0321575 -0.028659 0)
(-0.0232534 -0.0261996 0)
(-0.0148451 -0.0235327 0)
(-0.00700012 -0.0207106 0)
(0.000223042 -0.0177885 0)
(0.00677619 -0.0148226 0)
(0.0126222 -0.0118686 0)
(0.0177355 -0.0089801 0)
(0.0221023 -0.00620681 0)
(0.025721 -0.00359346 0)
(0.0286017 -0.0011784 0)
(0.0307661 0.00100733 0)
(0.0322467 0.00294077 0)
(0.033086 0.00460735 0)
(0.0333352 0.00600105 0)
(0.0330529 0.00712401 0)
(0.0323027 0.00798595 0)
(0.0311516 0.00860309 0)
(0.0296674 0.00899707 0)
(0.0279177 0.00919337 0)
(0.0259657 0.00922005 0)
(0.0238716 0.00910598 0)
(0.0216878 0.00887977 0)
(0.0194627 0.00856774 0)
(0.0172341 0.0081934 0)
(0.0150382 0.0077748 0)
(0.0128986 0.00732503 0)
(0.0108436 0.00684828 0)
(0.00888558 0.00634298 0)
(0.00705409 0.00579564 0)
(0.00535398 0.00519043 0)
(0.00382984 0.00449873 0)
(0.00248033 0.0037028 0)
(0.0013865 0.00277485 0)
(0.000536697 0.00172988 0)
(8.21987e-05 0.000576373 0)
(5.26889e-05 -0.00068457 0)
(0.000323212 -0.00170701 0)
(0.000788575 -0.00242062 0)
(0.00132673 -0.00286654 0)
(0.0019191 -0.0030869 0)
(0.00249657 -0.00312334 0)
(0.00304374 -0.00301368 0)
(0.003522 -0.00279089 0)
(0.00391933 -0.00248212 0)
(0.00421282 -0.00210875 0)
(0.0043924 -0.00168689 0)
(0.00444248 -0.00122791 0)
(0.00435329 -0.000739367 0)
(0.00411183 -0.000225475 0)
(0.00370724 0.00031213 0)
(0.00312628 0.000874124 0)
(0.00235581 0.00146305 0)
(0.00138047 0.0020832 0)
(0.000183729 0.00274036 0)
(-0.00125327 0.00344165 0)
(-0.00295125 0.00419531 0)
(-0.00493326 0.00501034 0)
(-0.00722424 0.00589611 0)
(-0.00985092 0.00686181 0)
(-0.0128411 0.00791587 0)
(-0.0162231 0.00906521 0)
(-0.0200242 0.0103147 0)
(-0.0242703 0.0116662 0)
(-0.0289836 0.0131185 0)
(-0.0341817 0.0146664 0)
(-0.0398758 0.0163003 0)
(-0.0460695 0.0180065 0)
(-0.0527571 0.0197668 0)
(-0.0599226 0.0215584 0)
(-0.0675392 0.0233549 0)
(-0.075569 0.0251261 0)
(-0.083963 0.0268394 0)
(-0.0926621 0.0284602 0)
(-0.101599 0.0299537 0)
(-0.110699 0.0312855 0)
(-0.119883 0.0324232 0)
(-0.12907 0.0333374 0)
(-0.13818 0.0340027 0)
(-0.147136 0.0343984 0)
(-0.155863 0.0345091 0)
(-0.164296 0.0343245 0)
(-0.172372 0.0338395 0)
(-0.180041 0.033054 0)
(-0.187256 0.031972 0)
(-0.19398 0.030601 0)
(-0.200179 0.0289519 0)
(-0.205828 0.0270376 0)
(-0.210906 0.0248731 0)
(-0.215393 0.0224744 0)
(-0.219277 0.0198589 0)
(-0.222543 0.0170442 0)
(-0.225182 0.0140488 0)
(-0.227184 0.0108916 0)
(-0.228541 0.00759193 0)
(-0.229243 0.00416984 0)
(-0.229285 0.000646195 0)
(-0.228659 -0.00295714 0)
(-0.22736 -0.00661701 0)
(-0.22538 -0.0103087 0)
(-0.222717 -0.0140058 0)
(-0.219368 -0.0176799 0)
(-0.215332 -0.0213003 0)
(-0.21061 -0.0248344 0)
(-0.205209 -0.0282472 0)
(-0.199137 -0.0315018 0)
(-0.192409 -0.0345595 0)
(-0.185043 -0.0373806 0)
(-0.177067 -0.0399249 0)
(-0.168513 -0.0421526 0)
(-0.159422 -0.0440252 0)
(-0.149845 -0.0455071 0)
(-0.139838 -0.0465667 0)
(-0.12947 -0.0471779 0)
(-0.118814 -0.0473214 0)
(-0.107954 -0.046986 0)
(-0.0969769 -0.0461699 0)
(-0.085978 -0.0448809 0)
(-0.0750531 -0.0431376 0)
(-0.0642998 -0.0409685 0)
(-0.0538139 -0.0384124 0)
(-0.043688 -0.0355166 0)
(-0.0340083 -0.0323361 0)
(-0.024854 -0.0289319 0)
(-0.0162944 -0.0253689 0)
(-0.0083889 -0.0217141 0)
(-0.00118533 -0.0180345 0)
(0.00528004 -0.0143954 0)
(0.0109828 -0.0108585 0)
(0.0159103 -0.00748024 0)
(0.0200618 -0.00431068 0)
(0.0234475 -0.00139205 0)
(0.0260888 0.00124199 0)
(0.0280174 0.0035671 0)
(0.0292746 0.00556858 0)
(0.0299102 0.00724134 0)
(0.0299811 0.00858965 0)
(0.0295501 0.00962627 0)
(0.0286832 0.0103714 0)
(0.0274487 0.0108514 0)
(0.0259136 0.0110969 0)
(0.0241438 0.0111412 0)
(0.0221994 0.0110185 0)
(0.0201377 0.0107615 0)
(0.0180063 0.0104005 0)
(0.0158518 0.00995981 0)
(0.0137072 0.00945803 0)
(0.0116106 0.00890386 0)
(0.00958192 0.0082979 0)
(0.00765937 0.00762772 0)
(0.00585254 0.00687483 0)
(0.00421492 0.00600738 0)
(0.00274793 0.00499795 0)
(0.00154651 0.00380962 0)
(0.000602198 0.00243433 0)
(9.27732e-05 0.000859136 0)
(5.19683e-05 -0.000846572 0)
(0.000316098 -0.00207874 0)
(0.000764002 -0.0029176 0)
(0.00127179 -0.00342125 0)
(0.00181807 -0.00365015 0)
(0.00233314 -0.00365606 0)
(0.00280083 -0.00348677 0)
(0.00318251 -0.00318071 0)
(0.00346554 -0.00277005 0)
(0.00362626 -0.00227866 0)
(0.00365304 -0.00172473 0)
(0.00352833 -0.00112034 0)
(0.00323967 -0.000473415 0)
(0.00277094 0.000212196 0)
(0.0021076 0.000935521 0)
(0.00123237 0.00169838 0)
(0.000127586 0.00250472 0)
(-0.0012269 0.00336059 0)
(-0.00285274 0.00427373 0)
(-0.00477407 0.00525341 0)
(-0.00701698 0.00631003 0)
(-0.00960975 0.00745462 0)
(-0.0125822 0.0086982 0)
(-0.0159651 0.0100511 0)
(-0.0197894 0.0115218 0)
(-0.0240849 0.0131164 0)
(-0.0288786 0.0148376 0)
(-0.0341932 0.0166834 0)
(-0.0400457 0.0186471 0)
(-0.0464449 0.0207165 0)
(-0.0533902 0.0228736 0)
(-0.0608703 0.0250944 0)
(-0.0688618 0.0273496 0)
(-0.0773288 0.0296049 0)
(-0.0862232 0.0318219 0)
(-0.0954851 0.0339591 0)
(-0.105045 0.0359738 0)
(-0.114824 0.0378231 0)
(-0.12474 0.0394659 0)
(-0.134707 0.0408643 0)
(-0.14464 0.0419851 0)
(-0.154455 0.0428006 0)
(-0.164077 0.0432894 0)
(-0.173434 0.0434368 0)
(-0.182466 0.0432344 0)
(-0.191117 0.0426799 0)
(-0.199344 0.0417762 0)
(-0.207108 0.0405308 0)
(-0.214379 0.0389548 0)
(-0.221132 0.037062 0)
(-0.227347 0.0348686 0)
(-0.233008 0.0323917 0)
(-0.238103 0.0296495 0)
(-0.24262 0.0266609 0)
(-0.24655 0.0234447 0)
(-0.249884 0.02002 0)
(-0.252613 0.0164059 0)
(-0.25473 0.0126217 0)
(-0.256227 0.00868699 0)
(-0.257095 0.0046219 0)
(-0.257325 0.000447346 0)
(-0.25691 -0.00381465 0)
(-0.255839 -0.00814064 0)
(-0.254104 -0.0125054 0)
(-0.251697 -0.0168817 0)
(-0.248609 -0.0212397 0)
(-0.244833 -0.0255472 0)
(-0.240364 -0.0297688 0)
(-0.235199 -0.0338667 0)
(-0.229336 -0.0377997 0)
(-0.222781 -0.0415246 0)
(-0.215542 -0.0449958 0)
(-0.207634 -0.0481663 0)
(-0.199078 -0.0509887 0)
(-0.189904 -0.0534162 0)
(-0.180152 -0.0554041 0)
(-0.16987 -0.0569115 0)
(-0.159118 -0.0579027 0)
(-0.147966 -0.0583494 0)
(-0.136492 -0.0582322 0)
(-0.124787 -0.0575421 0)
(-0.112947 -0.0562818 0)
(-0.101075 -0.0544663 0)
(-0.0892776 -0.0521236 0)
(-0.0776615 -0.0492938 0)
(-0.0663323 -0.0460285 0)
(-0.0553903 -0.0423891 0)
(-0.0449287 -0.0384451 0)
(-0.0350309 -0.0342714 0)
(-0.0257691 -0.0299462 0)
(-0.0172032 -0.0255485 0)
(-0.00938014 -0.0211557 0)
(-0.00233402 -0.0168417 0)
(0.00391373 -0.0126748 0)
(0.00935373 -0.00871648 0)
(0.0139881 -0.00502013 0)
(0.0178297 -0.00162996 0)
(0.0209016 0.00141963 0)
(0.0232366 0.00410468 0)
(0.0248762 0.00641177 0)
(0.0258698 0.00833805 0)
(0.0262741 0.0098907 0)
(0.0261504 0.0110862 0)
(0.0255649 0.0119488 0)
(0.0245842 0.0125095 0)
(0.0232768 0.0128037 0)
(0.021707 0.012869 0)
(0.0199387 0.0127435 0)
(0.018027 0.0124628 0)
(0.0160272 0.0120576 0)
(0.0139811 0.011552 0)
(0.0119363 0.0109596 0)
(0.00992067 0.010284 0)
(0.00798131 0.0095147 0)
(0.00613402 0.00863098 0)
(0.00444119 0.00759806 0)
(0.00290898 0.00637774 0)
(0.00164395 0.00492249 0)
(0.000642205 0.00319781 0)
(9.9131e-05 0.00116685 0)
(4.98961e-05 -0.00100462 0)
(0.000299398 -0.00243481 0)
(0.000714176 -0.00338433 0)
(0.00117147 -0.00392945 0)
(0.00164729 -0.00414951 0)
(0.0020731 -0.00410706 0)
(0.00243194 -0.00386007 0)
(0.00268581 -0.00345232 0)
(0.00282123 -0.00292057 0)
(0.00281385 -0.00229066 0)
(0.00265017 -0.00158224 0)
(0.00231044 -0.000807476 0)
(0.00177909 2.58811e-05 0)
(0.00103654 0.000914902 0)
(6.40977e-05 0.00185972 0)
(-0.00115996 0.00286371 0)
(-0.00265818 0.00393258 0)
(-0.00445584 0.00507442 0)
(-0.00657992 0.00629912 0)
(-0.00905992 0.00761814 0)
(-0.0119271 0.00904389 0)
(-0.0152144 0.010589 0)
(-0.0189554 0.0122654 0)
(-0.0231836 0.0140832 0)
(-0.0279307 0.0160497 0)
(-0.0332249 0.0181678 0)
(-0.0390892 0.0204353 0)
(-0.0455391 0.0228438 0)
(-0.0525809 0.0253778 0)
(-0.0602095 0.0280149 0)
(-0.0684076 0.0307252 0)
(-0.0771438 0.033472 0)
(-0.0863734 0.036213 0)
(-0.0960383 0.0389009 0)
(-0.106068 0.0414855 0)
(-0.116384 0.0439155 0)
(-0.126899 0.0461406 0)
(-0.137523 0.0481132 0)
(-0.148165 0.049791 0)
(-0.158738 0.0511375 0)
(-0.169159 0.0521239 0)
(-0.179354 0.0527289 0)
(-0.189258 0.0529392 0)
(-0.198813 0.0527488 0)
(-0.207972 0.0521584 0)
(-0.216697 0.051174 0)
(-0.224958 0.0498064 0)
(-0.232728 0.0480697 0)
(-0.239989 0.0459806 0)
(-0.246727 0.0435576 0)
(-0.252929 0.0408199 0)
(-0.258585 0.0377875 0)
(-0.263688 0.0344802 0)
(-0.268231 0.0309181 0)
(-0.272207 0.0271205 0)
(-0.275611 0.0231069 0)
(-0.278437 0.0188964 0)
(-0.280678 0.0145081 0)
(-0.282328 0.00996123 0)
(-0.283379 0.00527545 0)
(-0.283824 0.000471167 0)
(-0.283653 -0.00443011 0)
(-0.282857 -0.00940538 0)
(-0.281425 -0.0144297 0)
(-0.279346 -0.019476 0)
(-0.276607 -0.0245142 0)
(-0.273196 -0.0295112 0)
(-0.2691 -0.0344307 0)
(-0.264308 -0.0392325 0)
(-0.25881 -0.043873 0)
(-0.252599 -0.0483048 0)
(-0.24567 -0.0524774 0)
(-0.238025 -0.0563376 0)
(-0.229671 -0.0598305 0)
(-0.220622 -0.0629005 0)
(-0.210905 -0.0654932 0)
(-0.200554 -0.0675566 0)
(-0.189615 -0.069044 0)
(-0.178149 -0.0699152 0)
(-0.166229 -0.0701396 0)
(-0.15394 -0.0696978 0)
(-0.141379 -0.0685837 0)
(-0.128653 -0.0668058 0)
(-0.115878 -0.0643879 0)
(-0.103173 -0.0613694 0)
(-0.0906596 -0.0578041 0)
(-0.0784547 -0.053759 0)
(-0.0666709 -0.0493121 0)
(-0.0554104 -0.044549 0)
(-0.0447635 -0.0395607 0)
(-0.0348063 -0.0344397 0)
(-0.0255996 -0.0292775 0)
(-0.017189 -0.0241617 0)
(-0.00960526 -0.0191739 0)
(-0.002865 -0.0143879 0)
(0.00302779 -0.00986859 0)
(0.00808057 -0.0056707 0)
(0.0123113 -0.00183842 0)
(0.0157471 0.00159516 0)
(0.018424 0.00460826 0)
(0.0203855 0.00719048 0)
(0.0216828 0.00934252 0)
(0.0223722 0.0110756 0)
(0.0225162 0.0124104 0)
(0.0221792 0.013376 0)
(0.0214295 0.0140077 0)
(0.0203329 0.0143448 0)
(0.018957 0.0144285 0)
(0.0173621 0.0142989 0)
(0.0156102 0.013992 0)
(0.0137506 0.0135365 0)
(0.0118392 0.0129515 0)
(0.00991177 0.0122434 0)
(0.00802399 0.0114042 0)
(0.00619887 0.0104113 0)
(0.0045072 0.00922719 0)
(0.0029614 0.00780266 0)
(0.00167699 0.00607906 0)
(0.000655273 0.00399496 0)
(0.000100752 0.00148895 0)
(4.69628e-05 -0.00115244 0)
(0.000274803 -0.00276024 0)
(0.000642056 -0.00379918 0)
(0.00102994 -0.00436431 0)
(0.00141199 -0.0045543 0)
(0.0017227 -0.0044428 0)
(0.00194431 -0.00409783 0)
(0.0020402 -0.00356809 0)
(0.00199574 -0.00289434 0)
(0.00178598 -0.0021036 0)
(0.00139502 -0.00121624 0)
(0.000800664 -0.000243806 0)
(-1.6266e-05 0.000806762 0)
(-0.0010792 0.00193399 0)
(-0.00241138 0.00313958 0)
(-0.00403932 0.00442885 0)
(-0.00599071 0.00580953 0)
(-0.0082961 0.00729193 0)
(-0.0109878 0.00888809 0)
(-0.0141002 0.0106115 0)
(-0.0176691 0.0124759 0)
(-0.021731 0.0144948 0)
(-0.0263214 0.0166795 0)
(-0.031474 0.0190382 0)
(-0.0372181 0.0215744 0)
(-0.0435764 0.0242851 0)
(-0.0505633 0.0271602 0)
(-0.0581821 0.030181 0)
(-0.0664233 0.0333201 0)
(-0.0752632 0.0365416 0)
(-0.084663 0.0398014 0)
(-0.0945692 0.0430484 0)
(-0.104914 0.0462266 0)
(-0.115619 0.0492769 0)
(-0.126595 0.0521398 0)
(-0.137748 0.0547577 0)
(-0.148983 0.0570775 0)
(-0.160206 0.0590525 0)
(-0.171328 0.0606442 0)
(-0.182268 0.061823 0)
(-0.192955 0.0625684 0)
(-0.203326 0.0628689 0)
(-0.213331 0.0627209 0)
(-0.222926 0.0621279 0)
(-0.232078 0.0610989 0)
(-0.240762 0.0596478 0)