/*--------------------------------*- C++ -*----------------------------------*\
| =========                 |                                                 |
| \\      /  F ield         | OpenFOAM: The Open Source CFD Toolbox           |
|  \\    /   O peration     | Version:  2406                                  |
|   \\  /    A nd           | Website:  www.openfoam.com                      |
|    \\/     M anipulation  |                                                 |
\*---------------------------------------------------------------------------*/
FoamFile
{
    version     2.0;
    format      ascii;
    arch        "LSB;label=32;scalar=64";
    class       volScalarField;
    location    "11.8";
    object      p;
}
// * * * * * * * * * * * * * * * * * * * * * * * * * * * * * * * * * * * * * //

dimensions      [0 2 -2 0 0 0 0];

internalField   nonuniform List<scalar> 
900
(
-4.95412e-09
-1.94305e-05
-4.81275e-05
-8.24659e-05
-0.000124335
-0.000172375
-0.000223034
-0.000270401
-0.000306422
-0.000321082
-0.000302817
-0.000239236
-0.000118362
6.95927e-05
0.000328353
0.000651478
0.00101911
0.00139573
0.00173246
0.00197526
0.00208119
0.00203601
0.00186285
0.00161543
0.0013542
0.00112439
0.000949071
0.000832468
0.000773041
0.000754549
2.25013e-05
3.83293e-06
-2.43855e-05
-5.73329e-05
-9.9275e-05
-0.000148842
-0.000202468
-0.000254423
-0.000297124
-0.000321185
-0.0003156
-0.000267896
-0.000164859
5.18676e-06
0.000249517
0.000566146
0.000939877
0.00133285
0.0016915
0.00195568
0.00207454
0.00202911
0.00184385
0.00157933
0.00130612
0.00107553
0.000908199
0.000801645
0.000750945
0.000734969
4.05261e-05
2.36385e-05
-4.06907e-06
-3.60055e-05
-7.96376e-05
-0.000133843
-0.000195589
-0.000259771
-0.000319588
-0.000366199
-0.000388574
-0.000373281
-0.000304835
-0.000167356
5.17115e-05
0.000353062
0.00072636
0.00113708
0.00153527
0.00184738
0.00200692
0.00198179
0.00179143
0.00150442
0.00120877
0.000970755
0.000810336
0.000716526
0.000676501
0.000662696
3.22758e-05
1.66596e-05
-1.20351e-05
-4.55732e-05
-9.4503e-05
-0.000158611
-0.000236082
-0.000322751
-0.000412496
-0.000496687
-0.000564246
-0.000601661
-0.000593402
-0.000522449
-0.000370673
-0.000126648
0.000211539
0.000625452
0.00106678
0.00146602
0.00173898
0.00181617
0.00168034
0.00139363
0.00106932
0.000805516
0.000642922
0.000561281
0.000533285
0.000524385
-2.3439e-05
-3.80439e-05
-6.88833e-05
-0.000106761
-0.000164632
-0.00024337
-0.000342598
-0.000459128
-0.000587674
-0.000721368
-0.000853886
-0.000980302
-0.00109498
-0.00118644
-0.00123826
-0.00122365
-0.00110087
-0.000837682
-0.000425869
9.53601e-05
0.000628626
0.00104917
0.00124327
0.00116668
0.000903779
0.00062167
0.000433712
0.00035294
0.000333164
0.000327504
-0.000145206
-0.00015963
-0.000194096
-0.000239028
-0.000309117
-0.000406302
-0.000531617
-0.000683161
-0.000858546
-0.00105963
-0.00129904
-0.00160212
-0.00200444
-0.00253002
-0.00314771
-0.0037479
-0.00415731
-0.00423198
-0.00395708
-0.00332792
-0.0024026
-0.00133213
-0.000347095
0.000313172
0.000542861
0.000441177
0.000233973
0.000113946
9.11693e-05
7.89115e-05
-0.000346375
-0.000361887
-0.000401771
-0.00045646
-0.000541797
-0.000660811
-0.000816187
-0.00100899
-0.00124602
-0.00155358
-0.00199642
-0.00268693
-0.00373476
-0.00513774
-0.00672496
-0.00819923
-0.009281
-0.00981135
-0.00973504
-0.00905085
-0.00780206
-0.00609742
-0.00412483
-0.00218906
-0.000714143
-1.18471e-05
5.62236e-05
-0.000145113
-0.000192714
-0.000220892
-0.000633996
-0.000652152
-0.000699541
-0.000767043
-0.000871242
-0.00101655
-0.00120844
-0.00145546
-0.00178614
-0.00228324
-0.00312525
-0.004547
-0.00664042
-0.00918001
-0.0117286
-0.0138751
-0.0153913
-0.0161959
-0.0162264
-0.0155247
-0.0141672
-0.0122151
-0.00968951
-0.00671626
-0.00374538
-0.00147773
-0.000409257
-0.000302562
-0.000554009
-0.000572502
-0.00100872
-0.00103128
-0.00108876
-0.00117306
-0.00130136
-0.00148041
-0.00172132
-0.00204842
-0.00253159
-0.00335191
-0.00484261
-0.00728362
-0.0105221
-0.0139932
-0.017098
-0.019488
-0.0210718
-0.0218194
-0.0217651
-0.0209701
-0.019568
-0.017642
-0.0151708
-0.012043
-0.00830936
-0.00451764
-0.00173326
-0.000640333
-0.00109657
-0.00103076
-0.00146489
-0.00149377
-0.00156448
-0.00167069
-0.00183044
-0.00205444
-0.00236384
-0.00280819
-0.00351726
-0.00479892
-0.00711109
-0.0106089
-0.0147487
-0.0187364
-0.0220923
-0.0246375
-0.0262954
-0.0269984
-0.0267593
-0.0257224
-0.0240376
-0.0219312
-0.0195085
-0.0166266
-0.0130162
-0.00866853
-0.00444784
-0.00181119
-0.00120739
-0.0017215
-0.00199095
-0.00202807
-0.0021152
-0.00224899
-0.00244865
-0.00273085
-0.00313046
-0.003728
-0.00472234
-0.00654008
-0.00968084
-0.0140524
-0.0187872
-0.0230985
-0.0267673
-0.0297311
-0.0317957
-0.0327042
-0.0323533
-0.0308722
-0.0285673
-0.0258451
-0.02302
-0.020112
-0.0168739
-0.0128621
-0.00806662
-0.0034997
-0.00132204
-0.0028687
-0.0025702
-0.00261696
-0.00272301
-0.00288922
-0.00313608
-0.00348739
-0.00399269
-0.00476283
-0.00605986
-0.00838714
-0.0122175
-0.0172281
-0.0223841
-0.0270673
-0.0312893
-0.0349372
-0.0375967
-0.0388159
-0.0383566
-0.0363764
-0.0333052
-0.0297046
-0.0261196
-0.0228032
-0.0197099
-0.0162513
-0.0115542
-0.00592236
-0.00325356
-0.00377684
-0.00318229
-0.003239
-0.00336466
-0.00356541
-0.00386268
-0.00428686
-0.00490009
-0.00583601
-0.00739815
-0.0101185
-0.0144246
-0.0198755
-0.0253952
-0.0305188
-0.0354042
-0.0398095
-0.0430644
-0.0445569
-0.0440078
-0.0415849
-0.0377916
-0.0332931
-0.0288336
-0.0248915
-0.021651
-0.0185314
-0.0143488
-0.00879716
-0.00538198
-0.00338011
-0.0038048
-0.00387024
-0.00401348
-0.00424697
-0.00459173
-0.00508256
-0.00578973
-0.00685758
-0.00860069
-0.0115435
-0.0160885
-0.0217977
-0.0276266
-0.0331586
-0.0385979
-0.0436072
-0.0473255
-0.0490275
-0.0483938
-0.0456152
-0.0412717
-0.0360817
-0.0309041
-0.0263605
-0.0228126
-0.0198194
-0.0163227
-0.0113548
-0.00677553
-0.0023721
-0.00441577
-0.00448701
-0.00464259
-0.00490253
-0.0052849
-0.00582617
-0.00659904
-0.00774545
-0.00956169
-0.0125362
-0.0170732
-0.0228412
-0.0288524
-0.0346367
-0.0403546
-0.0456533
-0.0495938
-0.0513796
-0.0506939
-0.0477163
-0.0430974
-0.0375378
-0.0319619
-0.0270302
-0.0232398
-0.0203141
-0.0174754
-0.0132743
-0.00822684
-0.0025141
-0.00499581
-0.00506761
-0.0052282
-0.00550444
-0.00590858
-0.00647678
-0.00727819
-0.00844164
-0.0102219
-0.01305
-0.0173419
-0.0229215
-0.0289013
-0.0347189
-0.0403934
-0.0456035
-0.0494801
-0.0512261
-0.0505442
-0.0475601
-0.0429764
-0.03738
-0.0317726
-0.0267386
-0.0229591
-0.0201209
-0.0178611
-0.0144407
-0.00992555
-0.00412288
-0.0055289
-0.00559629
-0.00575385
-0.00603125
-0.0064374
-0.00700565
-0.00779648
-0.00891881
-0.0105725
-0.013113
-0.0169594
-0.0220662
-0.0277562
-0.0333868
-0.0387467
-0.0435318
-0.0470728
-0.0486617
-0.0480304
-0.0452594
-0.0409375
-0.0356456
-0.0303235
-0.0255032
-0.0220317
-0.0193164
-0.0176215
-0.0148968
-0.0114993
-0.00624286
-0.00600401
-0.0060626
-0.00620733
-0.00647009
-0.0068581
-0.00739969
-0.00814527
-0.00917935
-0.0106526
-0.0128279
-0.0160569
-0.0204598
-0.0255957
-0.0308118
-0.0356951
-0.0399024
-0.0429649
-0.0443212
-0.0437518
-0.0412843
-0.0373892
-0.0326189
-0.0278285
-0.0235258
-0.0205146
-0.0180209
-0.0169035
-0.0146945
-0.0126029
-0.00805677
-0.00641708
-0.00646325
-0.00658504
-0.00681681
-0.00716626
-0.00765715
-0.00833018
-0.00924894
-0.0105179
-0.0123132
-0.0148836
-0.0184217
-0.0227436
-0.0273179
-0.0316305
-0.0352554
-0.0378339
-0.0389361
-0.0383911
-0.0362257
-0.0328444
-0.028736
-0.024682
-0.02108
-0.0186313
-0.0164511
-0.0158827
-0.0139454
-0.0131406
-0.00926981
-0.00676699
-0.00679736
-0.00688783
-0.00707484
-0.00736773
-0.00778872
-0.00837057
-0.00916031
-0.0102265
-0.0116767
-0.0136628
-0.0163392
-0.0196954
-0.0233982
-0.0270039
-0.030034
-0.0321519
-0.0330169
-0.0325171
-0.0306877
-0.0279029
-0.0245684
-0.0213731
-0.018519
-0.0166807
-0.0147817
-0.0147306
-0.0127553
-0.0132451
-0.00991894
-0.00706116
-0.00707374
-0.00712369
-0.00724983
-0.00747027
-0.00780771
-0.00828948
-0.00894933
-0.00983166
-0.0109966
-0.0125263
-0.0144994
-0.0169546
-0.0197128
-0.0224884
-0.0248586
-0.0265155
-0.0271792
-0.0267921
-0.0253718
-0.0232509
-0.0207183
-0.0183622
-0.0161653
-0.0149042
-0.0131739
-0.0136599
-0.0112817
-0.013013
-0.00965955
-0.00730419
-0.00729571
-0.00729862
-0.00735341
-0.00748777
-0.00773232
-0.0081112
-0.00864905
-0.00937435
-0.0103176
-0.0115195
-0.0129988
-0.0147816
-0.0167534
-0.0187589
-0.0204973
-0.0217325
-0.0222351
-0.0219758
-0.0209467
-0.0194328
-0.0175821
-0.0159176
-0.0142024
-0.0134432
-0.0117308
-0.0127411
-0.00980796
-0.012548
-0.00806109
-0.00751904
-0.00748233
-0.00742472
-0.00738762
-0.00742583
-0.00757438
-0.00785544
-0.00828657
-0.00888564
-0.00966412
-0.0106413
-0.0118027
-0.0131545
-0.0146018
-0.0160555
-0.0173138
-0.0182231
-0.0186025
-0.0184408
-0.0177045
-0.0166493
-0.0152802
-0.0141167
-0.01268
-0.0123553
-0.0105081
-0.0121219
-0.00848367
-0.0120933
-0.00613097
-0.00770559
-0.00763096
-0.00750777
-0.00736611
-0.00729854
-0.00734965
-0.0075394
-0.00788209
-0.00838515
-0.00904667
-0.0098744
-0.0108386
-0.0119322
-0.0130702
-0.0141906
-0.0151472
-0.0158483
-0.016147
-0.0160633
-0.0155262
-0.0147767
-0.013699
-0.0128817
-0.0115543
-0.0116129
-0.00947768
-0.0118102
-0.00727811
-0.0121988
-0.00613362
-0.00794781
-0.00777505
-0.00755721
-0.00726671
-0.00710371
-0.00706042
-0.00717607
-0.00745432
-0.00789065
-0.00847565
-0.00920896
-0.0100542
-0.0109978
-0.0119615
-0.0128987
-0.0136883
-0.0142807
-0.0145442
-0.0145285
-0.0141233
-0.0135811
-0.0126695
-0.0120936
-0.0107673
-0.0111428
-0.00861943
-0.0117246
-0.00609816
-0.0130058
-0.00602285
-0.00819079
-0.00789271
-0.0075876
-0.00712406
-0.00685884
-0.00671657
-0.00677949
-0.00701429
-0.00740943
-0.00795088
-0.00863141
-0.00940987
-0.0102723
-0.0111421
-0.0119874
-0.0126945
-0.0132457
-0.0135077
-0.0135577
-0.0132442
-0.0128545
-0.0120464
-0.0116391
-0.010281
-0.0108519
-0.0079945
-0.0115836
-0.00481651
-0.0129691
0.00267811
-0.00895692
-0.00802168
-0.00761448
-0.00681994
-0.00655221
-0.0063171
-0.0063706
-0.00658034
-0.00696126
-0.00748361
-0.00814367
-0.00888832
-0.00971746
-0.0105396
-0.0113528
-0.0120221
-0.0125791
-0.012851
-0.012978
-0.0127253
-0.0124752
-0.0117159
-0.0114647
-0.0100732
-0.0106996
-0.00772643
-0.0110371
-0.00330513
-0.00909468
0.020289
-0.00999345
-0.00815008
-0.00766809
-0.00657037
-0.00618913
-0.00589156
-0.00595202
-0.00614773
-0.00654088
-0.0070547
-0.00772436
-0.00845179
-0.00928673
-0.0100844
-0.0109085
-0.0115617
-0.012154
-0.0124395
-0.0126393
-0.0124323
-0.0122698
-0.0115667
-0.0113404
-0.0100299
-0.0104523
-0.0075997
-0.0096164
-0.000512414
0.000932666
0.0315375
-0.0152345
-0.007583
-0.00751423
-0.00585418
-0.00569649
-0.00540043
-0.00551286
-0.00572723
-0.0061548
-0.00666943
-0.00736948
-0.00808593
-0.00895222
-0.00972866
-0.0105983
-0.0112214
-0.011894
-0.0121371
-0.0124793
-0.0121899
-0.0122637
-0.0113873
-0.0115034
-0.00988573
-0.0104484
-0.00676399
-0.00593559
0.00894419
0.0290456
0.070423
-0.0185718
-0.00693703
-0.0066962
-0.00557375
-0.00500732
-0.00479394
-0.00499847
-0.00518744
-0.0057078
-0.00619537
-0.00699839
-0.00766913
-0.00863449
-0.00934683
-0.0103191
-0.0108641
-0.0116465
-0.0118111
-0.0122669
-0.0119275
-0.0120618
-0.0112073
-0.0111223
-0.00974578
-0.00931827
-0.00587009
0.00258846
0.0329426
0.10376
0.221619
)
;

boundaryField
{
    movingWall
    {
        type            zeroGradient;
    }
    fixedWalls
    {
        type            zeroGradient;
    }
    frontAndBack
    {
        type            empty;
    }
}


// ************************************************************************* //
