/*--------------------------------*- C++ -*----------------------------------*\
| =========                 |                                                 |
| \\      /  F ield         | OpenFOAM: The Open Source CFD Toolbox           |
|  \\    /   O peration     | Version:  2406                                  |
|   \\  /    A nd           | Website:  www.openfoam.com                      |
|    \\/     M anipulation  |                                                 |
\*---------------------------------------------------------------------------*/
FoamFile
{
    version     2.0;
    format      ascii;
    arch        "LSB;label=32;scalar=64";
    class       volVectorField;
    location    "22.7";
    object      U;
}
// * * * * * * * * * * * * * * * * * * * * * * * * * * * * * * * * * * * * * //

dimensions      [0 1 -1 0 0 0 0];

internalField   nonuniform List<vector> 
3600
(
(3.85573e-06 -5.29173e-06 0)
(0.000145054 -6.61605e-05 0)
(0.000405086 -9.20582e-05 0)
(0.000669211 -9.03173e-05 0)
(0.000910091 -7.23411e-05 0)
(0.0010719 -4.8894e-05 0)
(0.00116634 -2.57137e-05 0)
(0.00117344 -3.69475e-06 0)
(0.00110897 1.55101e-05 0)
(0.000964067 3.32759e-05 0)
(0.000748519 4.88724e-05 0)
(0.000455927 6.4357e-05 0)
(8.66909e-05 8.03548e-05 0)
(-0.000371244 9.99809e-05 0)
(-0.000931725 0.000125037 0)
(-0.00161797 0.000158597 0)
(-0.00245681 0.000201846 0)
(-0.00347772 0.00025601 0)
(-0.00470892 0.000320176 0)
(-0.00617202 0.000392944 0)
(-0.00787946 0.000470945 0)
(-0.00982753 0.000550102 0)
(-0.0119948 0.00062449 0)
(-0.0143352 0.000687324 0)
(-0.0167778 0.000730153 0)
(-0.0192224 0.000743793 0)
(-0.0215443 0.00071803 0)
(-0.0235955 0.000643241 0)
(-0.0252174 0.000511418 0)
(-0.0262488 0.000318847 0)
(-0.0265441 6.76096e-05 0)
(-0.0259846 -0.000232487 0)
(-0.024498 -0.00056404 0)
(-0.0220657 -0.000902396 0)
(-0.0187385 -0.00121809 0)
(-0.0146337 -0.0014795 0)
(-0.00994162 -0.00165704 0)
(-0.0049061 -0.00172724 0)
(0.000180741 -0.00167722 0)
(0.00501825 -0.00150812 0)
(0.00931123 -0.00123632 0)
(0.0128228 -0.000892779 0)
(0.0153802 -0.000517622 0)
(0.0169217 -0.000154155 0)
(0.0174695 0.000160909 0)
(0.0171533 0.000402203 0)
(0.0161428 0.000561111 0)
(0.0146607 0.000641598 0)
(0.0128955 0.000658908 0)
(0.0110401 0.000630199 0)
(0.00920461 0.000574705 0)
(0.00750065 0.000505606 0)
(0.00594562 0.000436307 0)
(0.00458728 0.00037133 0)
(0.00338197 0.000318578 0)
(0.00235444 0.00027158 0)
(0.00145074 0.000231305 0)
(0.000726391 0.000169324 0)
(0.000198011 8.55735e-05 0)
(-3.36563e-05 -3.68846e-05 0)
(6.54899e-05 -0.00014433 0)
(0.000409888 -0.000404627 0)
(0.000933969 -0.000502239 0)
(0.00143752 -0.000471697 0)
(0.00187208 -0.000364396 0)
(0.0021376 -0.00021708 0)
(0.00223472 -5.82618e-05 0)
(0.00211996 0.00010839 0)
(0.00180014 0.0002734 0)
(0.00124882 0.000442804 0)
(0.000463203 0.000613647 0)
(-0.000581944 0.00079561 0)
(-0.00190586 0.000992689 0)
(-0.00354575 0.00121898 0)
(-0.0055439 0.00148285 0)
(-0.007954 0.00179617 0)
(-0.0108319 0.00216134 0)
(-0.0142281 0.00257749 0)
(-0.0181784 0.003032 0)
(-0.0226891 0.00350597 0)
(-0.0277303 0.00396936 0)
(-0.0332217 0.00438606 0)
(-0.0390317 0.00471166 0)
(-0.0449728 0.00489895 0)
(-0.0508125 0.00489875 0)
(-0.0562813 0.00466739 0)
(-0.0610962 0.00417029 0)
(-0.0649755 0.00338986 0)
(-0.0676641 0.00232788 0)
(-0.0689448 0.00100987 0)
(-0.0686576 -0.000516437 0)
(-0.0667035 -0.0021809 0)
(-0.0630575 -0.00389583 0)
(-0.0577669 -0.00555868 0)
(-0.0509616 -0.00705976 0)
(-0.042846 -0.00828794 0)
(-0.0337071 -0.00914187 0)
(-0.023894 -0.00953904 0)
(-0.0138203 -0.00942921 0)
(-0.00392384 -0.0088036 0)
(0.00533963 -0.00770347 0)
(0.0135589 -0.00622046 0)
(0.0203733 -0.00448923 0)
(0.0255462 -0.00267165 0)
(0.0289475 -0.000931374 0)
(0.030616 0.000589162 0)
(0.0306911 0.0017937 0)
(0.0294545 0.00263814 0)
(0.0272073 0.00313406 0)
(0.0243159 0.00332891 0)
(0.0210612 0.00329642 0)
(0.0177352 0.00310898 0)
(0.0144813 0.00283964 0)
(0.0114645 0.00253516 0)
(0.00868969 0.00223989 0)
(0.00624431 0.00194942 0)
(0.00407399 0.00166711 0)
(0.00229185 0.00130621 0)
(0.000900102 0.000852618 0)
(0.00010837 0.000210611 0)
(9.67762e-05 -0.000413834 0)
(0.000524355 -0.000936387 0)
(0.0011341 -0.00110948 0)
(0.00167395 -0.00100469 0)
(0.00208837 -0.00073914 0)
(0.00225755 -0.000374337 0)
(0.00216886 3.01762e-05 0)
(0.00175954 0.0004707 0)
(0.00101465 0.000928402 0)
(-0.000115003 0.00141701 0)
(-0.00165915 0.00193233 0)
(-0.0036695 0.00249512 0)
(-0.00619636 0.00311536 0)
(-0.00930632 0.00382108 0)
(-0.0130716 0.0046275 0)
(-0.017567 0.00555181 0)
(-0.0228584 0.00658783 0)
(-0.0289842 0.00771564 0)
(-0.0359427 0.0088861 0)
(-0.0436697 0.0100316 0)
(-0.052035 0.0110603 0)
(-0.0608315 0.0118702 0)
(-0.0697907 0.0123519 0)
(-0.0785931 0.0124058 0)
(-0.0869002 0.0119487 0)
(-0.0943734 0.0109286 0)
(-0.100703 0.0093268 0)
(-0.105616 0.00716255 0)
(-0.108892 0.00448855 0)
(-0.110362 0.00139045 0)
(-0.109911 -0.00202014 0)
(-0.107476 -0.00560625 0)
(-0.103049 -0.00921224 0)
(-0.0966787 -0.0126647 0)
(-0.0884788 -0.0157816 0)
(-0.0786261 -0.0183766 0)
(-0.067377 -0.0202754 0)
(-0.0550562 -0.0213266 0)
(-0.0420691 -0.0214248 0)
(-0.0288717 -0.0205252 0)
(-0.0159719 -0.0186643 0)
(-0.00387028 -0.0159642 0)
(0.00694603 -0.0126319 0)
(0.0160862 -0.00893857 0)
(0.0232482 -0.00518729 0)
(0.0283032 -0.00167267 0)
(0.0312429 0.00136258 0)
(0.0322475 0.00375586 0)
(0.0315708 0.00544319 0)
(0.0296 0.00644882 0)
(0.0266866 0.00687052 0)
(0.0232385 0.00684079 0)
(0.01952 0.00650939 0)
(0.0158256 0.00599954 0)
(0.0122532 0.00541761 0)
(0.00898454 0.00479304 0)
(0.00600178 0.00413434 0)
(0.00349091 0.00331744 0)
(0.00144763 0.00227227 0)
(0.000223348 0.000807206 0)
(0.000103412 -0.000696581 0)
(0.000513794 -0.00145188 0)
(0.00104973 -0.00164775 0)
(0.0014458 -0.00140486 0)
(0.00164684 -0.000917397 0)
(0.00152904 -0.000261174 0)
(0.00106326 0.000477909 0)
(0.000167241 0.00130427 0)
(-0.00120547 0.00219244 0)
(-0.00313253 0.00316724 0)
(-0.00568093 0.00422464 0)
(-0.00893524 0.00539808 0)
(-0.0129841 0.00670305 0)
(-0.0179241 0.00817792 0)
(-0.0238516 0.00983547 0)
(-0.0308441 0.0116817 0)
(-0.0389462 0.0136779 0)
(-0.0481386 0.0157549 0)
(-0.0583295 0.0177948 0)
(-0.0693341 0.0196525 0)
(-0.0808901 0.0211571 0)
(-0.0926658 0.0221417 0)
(-0.1043 0.0224551 0)
(-0.115422 0.0219867 0)
(-0.125691 0.0206695 0)
(-0.134797 0.0184879 0)
(-0.142482 0.0154688 0)
(-0.148526 0.0116796 0)
(-0.152755 0.00721769 0)
(-0.155027 0.00221028 0)
(-0.155236 -0.00319271 0)
(-0.153303 -0.00881515 0)
(-0.14919 -0.0144595 0)
(-0.142892 -0.0199031 0)
(-0.134459 -0.0249065 0)
(-0.123995 -0.0292155 0)
(-0.111684 -0.0325794 0)
(-0.0977873 -0.0347644 0)
(-0.082667 -0.0355851 0)
(-0.0667681 -0.0349271 0)
(-0.0506272 -0.0327815 0)
(-0.0348191 -0.0292586 0)
(-0.0199464 -0.024599 0)
(-0.00654938 -0.0191523 0)
(0.00490294 -0.0133433 0)
(0.0141119 -0.00761474 0)
(0.0209104 -0.00236897 0)
(0.0253431 0.00208246 0)
(0.0275587 0.0055526 0)
(0.0278841 0.00798527 0)
(0.0266556 0.00944389 0)
(0.0243203 0.0100758 0)
(0.0212152 0.010079 0)
(0.0177418 0.00964914 0)
(0.0140968 0.00896122 0)
(0.0105727 0.00810448 0)
(0.00721473 0.00710667 0)
(0.00429648 0.00583527 0)
(0.00183165 0.00412926 0)
(0.000304478 0.00165932 0)
(9.29035e-05 -0.000975399 0)
(0.000408813 -0.00190188 0)
(0.000750771 -0.00204629 0)
(0.000869239 -0.00158858 0)
(0.000707269 -0.000801579 0)
(0.00014503 0.000236446 0)
(-0.000871416 0.00142099 0)
(-0.00244491 0.00277365 0)
(-0.00466256 0.00426592 0)
(-0.00763367 0.00593729 0)
(-0.0114696 0.00778528 0)
(-0.0162893 0.00985653 0)
(-0.0222203 0.0121685 0)
(-0.0293794 0.0147601 0)
(-0.0378694 0.0176226 0)
(-0.0477371 0.0207223 0)
(-0.0589642 0.0239519 0)
(-0.0714275 0.0271565 0)
(-0.0849102 0.030121 0)
(-0.099097 0.0326127 0)
(-0.113619 0.0343961 0)
(-0.128078 0.0352757 0)
(-0.142089 0.0351046 0)
(-0.155298 0.033802 0)
(-0.167397 0.0313424 0)
(-0.178121 0.027755 0)
(-0.187252 0.0231075 0)
(-0.194604 0.0175037 0)
(-0.20003 0.0110723 0)
(-0.203401 0.00396861 0)
(-0.204616 -0.00363145 0)
(-0.203586 -0.0115245 0)
(-0.200243 -0.0194827 0)
(-0.194535 -0.0272456 0)
(-0.186442 -0.0345259 0)
(-0.17598 -0.0410066 0)
(-0.163232 -0.0463585 0)
(-0.148354 -0.0502535 0)
(-0.131618 -0.0524006 0)
(-0.113407 -0.0525781 0)
(-0.0942487 -0.0506841 0)
(-0.0747707 -0.0467672 0)
(-0.055696 -0.0410591 0)
(-0.037744 -0.0339619 0)
(-0.0215926 -0.0260177 0)
(-0.00775089 -0.0178331 0)
(0.0034353 -0.00999869 0)
(0.011874 -0.0030067 0)
(0.0176208 0.00279911 0)
(0.0209438 0.00724821 0)
(0.0221504 0.0103303 0)
(0.0216914 0.0121707 0)
(0.0199365 0.0129806 0)
(0.0173549 0.0130105 0)
(0.0142214 0.0124943 0)
(0.0109275 0.0115932 0)
(0.00759344 0.0103606 0)
(0.00458611 0.00867696 0)
(0.00196852 0.0062735 0)
(0.00032854 0.00266914 0)
(7.14757e-05 -0.00116834 0)
(0.000227453 -0.00213346 0)
(0.000266128 -0.00211593 0)
(-1.78056e-05 -0.00135067 0)
(-0.00068517 -0.000177638 0)
(-0.00184618 0.00133987 0)
(-0.00359119 0.00309229 0)
(-0.00604643 0.00512801 0)
(-0.00934945 0.00741957 0)
(-0.013643 0.0100229 0)
(-0.0190871 0.0129362 0)
(-0.0258308 0.0162147 0)
(-0.0340319 0.0198661 0)
(-0.0438045 0.0239074 0)
(-0.0552229 0.0282753 0)
(-0.0682559 0.0328564 0)
(-0.0827748 0.0374377 0)
(-0.0985176 0.0417553 0)
(-0.115137 0.0454989 0)
(-0.132209 0.0483769 0)
(-0.149304 0.0501341 0)
(-0.165995 0.0505914 0)
(-0.181906 0.0496388 0)
(-0.196701 0.0472431 0)
(-0.210112 0.043427 0)
(-0.221917 0.0382669 0)
(-0.231955 0.0318719 0)
(-0.240101 0.0243821 0)
(-0.246272 0.0159533 0)
(-0.2504 0.00676035 0)
(-0.25243 -0.00301007 0)
(-0.2523 -0.0131492 0)
(-0.249942 -0.0234267 0)
(-0.245271 -0.0335761 0)
(-0.238196 -0.0432946 0)
(-0.228623 -0.0522323 0)
(-0.216491 -0.0600025 0)
(-0.201786 -0.0661886 0)
(-0.1846 -0.0703797 0)
(-0.165152 -0.0722068 0)
(-0.143851 -0.0714093 0)
(-0.121287 -0.0678899 0)
(-0.0982496 -0.061781 0)
(-0.0756412 -0.0534634 0)
(-0.0544129 -0.0435585 0)
(-0.0353932 -0.0328447 0)
(-0.0192212 -0.0221481 0)
(-0.00620779 -0.0122043 0)
(0.00358326 -0.00356993 0)
(0.0103749 0.0034314 0)
(0.0144752 0.00868791 0)
(0.0163549 0.0122791 0)
(0.0164168 0.0144025 0)
(0.0151792 0.0153398 0)
(0.0129799 0.0153648 0)
(0.0102884 0.0147059 0)
(0.00730327 0.0134416 0)
(0.00447313 0.0114742 0)
(0.00192952 0.00842944 0)
(0.000319292 0.00368466 0)
(4.10562e-05 -0.00127869 0)
(-2.0041e-05 -0.00211939 0)
(-0.0003775 -0.00180894 0)
(-0.00116934 -0.000629436 0)
(-0.00246618 0.00103393 0)
(-0.00436782 0.00315486 0)
(-0.00701513 0.00563378 0)
(-0.0105602 0.00855322 0)
(-0.0151987 0.0118887 0)
(-0.0211038 0.015711 0)
(-0.0284819 0.0200144 0)
(-0.0374971 0.0248505 0)
(-0.0483149 0.0301947 0)
(-0.0610072 0.0360062 0)
(-0.0755725 0.0421244 0)
(-0.0918523 0.0483148 0)
(-0.109574 0.0542353 0)
(-0.128327 0.0595158 0)
(-0.147646 0.0637784 0)
(-0.167023 0.0667113 0)
(-0.185981 0.0680747 0)
(-0.204076 0.0677313 0)
(-0.220942 0.0656271 0)
(-0.236284 0.0617945 0)
(-0.249904 0.0563241 0)
(-0.261672 0.049358 0)
(-0.27154 0.0410611 0)
(-0.279499 0.0316165 0)
(-0.285582 0.0212054 0)
(-0.28982 0.010012 0)
(-0.292243 -0.00178456 0)
(-0.292844 -0.0139955 0)
(-0.291582 -0.0264199 0)
(-0.288357 -0.0388227 0)
(-0.283024 -0.050928 0)
(-0.275382 -0.0623971 0)
(-0.265213 -0.072828 0)
(-0.252288 -0.0817487 0)
(-0.236443 -0.0886432 0)
(-0.217615 -0.0929807 0)
(-0.19594 -0.0942887 0)
(-0.1718 -0.0922284 0)
(-0.145886 -0.0867021 0)
(-0.11917 -0.0779266 0)
(-0.0928572 -0.0664865 0)
(-0.068193 -0.0532836 0)
(-0.046299 -0.0394197 0)
(-0.0279219 -0.0259848 0)
(-0.0134032 -0.0138785 0)
(-0.00262572 -0.00367452 0)
(0.0047448 0.00436484 0)
(0.00925349 0.0102607 0)
(0.011389 0.0141934 0)
(0.0117426 0.0164736 0)
(0.0107247 0.0174063 0)
(0.00887321 0.0172806 0)
(0.00646512 0.0161984 0)
(0.00401568 0.0140858 0)
(0.0017314 0.0104824 0)
(0.000277797 0.00464995 0)
(-1.70057e-06 -0.00123454 0)
(-0.000344743 -0.00172868 0)
(-0.00119683 -0.000967696 0)
(-0.00260617 0.000748742 0)
(-0.00466156 0.00302429 0)
(-0.0074535 0.00589657 0)
(-0.0111877 0.00929127 0)
(-0.0160427 0.0133285 0)
(-0.0222757 0.0179846 0)
(-0.0300816 0.0233379 0)
(-0.0397018 0.0293656 0)
(-0.0512884 0.0360911 0)
(-0.0649758 0.0434202 0)
(-0.0807398 0.0512079 0)
(-0.0984496 0.0591515 0)
(-0.117774 0.0668695 0)
(-0.138277 0.0738911 0)
(-0.159392 0.0797645 0)
(-0.180544 0.0840802 0)
(-0.201145 0.0865415 0)
(-0.220688 0.0869592 0)
(-0.238739 0.0852756 0)
(-0.255004 0.0815335 0)
(-0.269293 0.075871 0)
(-0.281553 0.0684776 0)
(-0.291812 0.0595796 0)
(-0.300183 0.0494028 0)
(-0.306805 0.0381664 0)
(-0.311845 0.0260619 0)
(-0.315445 0.0132614 0)
(-0.317726 -8.87335e-05 0)
(-0.318749 -0.0138487 0)
(-0.31852 -0.0278803 0)
(-0.316957 -0.0420196 0)
(-0.313902 -0.0560649 0)
(-0.309095 -0.0697446 0)
(-0.302196 -0.0827049 0)
(-0.292788 -0.0944845 0)
(-0.280435 -0.10452 0)
(-0.264726 -0.112157 0)
(-0.24539 -0.116707 0)
(-0.222385 -0.117524 0)
(-0.196038 -0.114143 0)
(-0.167109 -0.106413 0)
(-0.13683 -0.0946415 0)
(-0.106773 -0.0796495 0)
(-0.0786514 -0.0627235 0)
(-0.0539356 -0.0453789 0)
(-0.0336003 -0.0290578 0)
(-0.017907 -0.0148082 0)
(-0.0065992 -0.00319664 0)
(0.000967605 0.00568041 0)
(0.00544989 0.0119862 0)
(0.00758302 0.0160782 0)
(0.00790125 0.0183072 0)
(0.00702895 0.0190269 0)
(0.00533297 0.0183679 0)
(0.00338401 0.0162818 0)
(0.00146387 0.0122512 0)
(0.000227005 0.00546607 0)
(-5.73888e-05 -0.00103036 0)
(-0.000747295 -0.000927971 0)
(-0.00218832 0.000455665 0)
(-0.00431684 0.00284319 0)
(-0.00725242 0.00587279 0)
(-0.0110791 0.00967484 0)
(-0.0160806 0.0142127 0)
(-0.0224572 0.019641 0)
(-0.030525 0.0259293 0)
(-0.0404819 0.0331474 0)
(-0.0525803 0.041232 0)
(-0.066917 0.0501393 0)
(-0.083543 0.059656 0)
(-0.102278 0.0694813 0)
(-0.122812 0.079137 0)
(-0.144608 0.0880856 0)
(-0.16705 0.0957459 0)
(-0.189421 0.101617 0)
(-0.211048 0.1053 0)
(-0.231304 0.106564 0)
(-0.249721 0.10533 0)
(-0.265969 0.10168 0)
(-0.279915 0.0958045 0)
(-0.29156 0.0879794 0)
(-0.301048 0.078505 0)
(-0.308588 0.0676862 0)
(-0.314451 0.0557928 0)
(-0.318905 0.0430582 0)
(-0.322216 0.0296623 0)
(-0.324604 0.0157459 0)
(-0.326256 0.00140683 0)
(-0.327288 -0.0132768 0)
(-0.32776 -0.0282426 0)
(-0.327639 -0.0434154 0)
(-0.326808 -0.0586945 0)
(-0.325028 -0.0739179 0)
(-0.321942 -0.0888409 0)
(-0.317055 -0.103095 0)
(-0.309757 -0.11617 0)
(-0.299349 -0.127388 0)
(-0.285138 -0.135931 0)
(-0.266544 -0.140886 0)
(-0.243284 -0.141372 0)
(-0.215538 -0.136706 0)
(-0.184127 -0.126631 0)
(-0.150547 -0.111522 0)
(-0.116878 -0.0925088 0)
(-0.0853972 -0.0713729 0)
(-0.0581059 -0.0502106 0)
(-0.0361712 -0.0308745 0)
(-0.01981 -0.0145875 0)
(-0.00842238 -0.0017766 0)
(-0.00113897 0.0076454 0)
(0.00302159 0.0141094 0)
(0.00481287 0.0180561 0)
(0.00500464 0.0199373 0)
(0.00408603 0.0199381 0)
(0.00269065 0.0180485 0)
(0.00117516 0.013733 0)
(0.000174712 0.00614836 0)
(-0.000132066 -0.000584693 0)
(-0.00124602 0.000418499 0)
(-0.00337868 0.0026158 0)
(-0.00633309 0.00582281 0)
(-0.0102745 0.00977068 0)
(-0.0152826 0.0147105 0)
(-0.0217273 0.0206491 0)
(-0.0298197 0.0277637 0)
(-0.0399226 0.036 0)
(-0.0522076 0.0453921 0)
(-0.0669009 0.0557982 0)
(-0.0839874 0.0670537 0)
(-0.103374 0.078771 0)
(-0.124664 0.0904497 0)
(-0.147328 0.101419 0)
(-0.170604 0.110999 0)
(-0.193701 0.118533 0)
(-0.215783 0.123529 0)
(-0.236159 0.125674 0)
(-0.25427 0.124888 0)
(-0.269812 0.121283 0)
(-0.282673 0.11514 0)
(-0.292962 0.106824 0)
(-0.300906 0.0967458 0)
(-0.306847 0.085294 0)
(-0.311137 0.0728166 0)
(-0.314152 0.0595894 0)
(-0.316218 0.0458265 0)
(-0.317634 0.0316703 0)
(-0.318636 0.0172144 0)
(-0.319421 0.00250265 0)
(-0.320124 -0.0124464 0)
(-0.320841 -0.0276387 0)
(-0.321592 -0.0430792 0)
(-0.322342 -0.0587656 0)
(-0.322947 -0.074656 0)
(-0.323151 -0.0906476 0)
(-0.322533 -0.106529 0)
(-0.320501 -0.121944 0)
(-0.316263 -0.136332 0)
(-0.308873 -0.148909 0)
(-0.297299 -0.158652 0)
(-0.280598 -0.164373 0)
(-0.258127 -0.164851 0)
(-0.229845 -0.159088 0)
(-0.19655 -0.146629 0)
(-0.160047 -0.127904 0)
(-0.12299 -0.104417 0)
(-0.0884224 -0.0786417 0)
(-0.0589366 -0.0534085 0)
(-0.0359615 -0.0311132 0)
(-0.0194715 -0.0130267 0)
(-0.00853821 0.000597545 0)
(-0.00186693 0.0102255 0)
(0.00164141 0.0164441 0)
(0.00300625 0.019873 0)
(0.00290421 0.0208083 0)
(0.00206595 0.0193133 0)
(0.000933496 0.0148802 0)
(0.000137246 0.00667545 0)
(-0.00022495 0.000120883 0)
(-0.00183587 0.00235206 0)
(-0.00475398 0.00555947 0)
(-0.00862808 0.00974007 0)
(-0.0136865 0.0147867 0)
(-0.0200036 0.021093 0)
(-0.0280381 0.0287068 0)
(-0.0379919 0.0378047 0)
(-0.0502522 0.0482831 0)
(-0.0649228 0.0600997 0)
(-0.0821531 0.0729827 0)
(-0.101751 0.0865839 0)
(-0.123421 0.100289 0)
(-0.146502 0.113368 0)
(-0.170229 0.124965 0)
(-0.193628 0.134297 0)
(-0.215801 0.140709 0)
(-0.235901 0.143817 0)
(-0.253363 0.143505 0)
(-0.267846 0.139941 0)
(-0.279331 0.133485 0)
(-0.287989 0.124632 0)
(-0.294188 0.1139 0)
(-0.298346 0.101787 0)
(-0.300934 0.0887117 0)
(-0.302364 0.0750088 0)
(-0.303023 0.0609137 0)
(-0.303207 0.0465877 0)
(-0.303171 0.0321176 0)
(-0.303094 0.0175464 0)
(-0.303133 0.00287313 0)
(-0.303393 -0.0119234 0)
(-0.303973 -0.0268885 0)
(-0.30493 -0.0420732 0)
(-0.306305 -0.057537 0)
(-0.308075 -0.0733265 0)
(-0.31015 -0.0894634 0)
(-0.312306 -0.105906 0)
(-0.314153 -0.122504 0)
(-0.315058 -0.138933 0)
(-0.314124 -0.15462 0)
(-0.310177 -0.168677 0)
(-0.301856 -0.179871 0)
(-0.287779 -0.186672 0)
(-0.266865 -0.187431 0)
(-0.23872 -0.180708 0)
(-0.204065 -0.165756 0)
(-0.164993 -0.143031 0)
(-0.124872 -0.114559 0)
(-0.0876321 -0.0837091 0)
(-0.0565937 -0.0543275 0)
(-0.0332949 -0.0293099 0)
(-0.0173749 -0.00993416 0)
(-0.00734993 0.00402753 0)
(-0.00166922 0.0133136 0)
(0.0010765 0.0188104 0)
(0.00185513 0.0210208 0)
(0.00156594 0.0201526 0)
(0.000764523 0.0157821 0)
(0.000118217 0.00711765 0)
(-0.000341822 0.00117717 0)
(-0.00252924 0.00501024 0)
(-0.0063255 0.00943469 0)
(-0.0112079 0.0147534 0)
(-0.0174835 0.0210979 0)
(-0.0252155 0.0290164 0)
(-0.0349443 0.0385824 0)
(-0.0468334 0.0499367 0)
(-0.0612624 0.0628874 0)
(-0.078216 0.0772607 0)
(-0.0977104 0.0925925 0)
(-0.119315 0.108289 0)
(-0.142485 0.123472 0)
(-0.166281 0.137183 0)
(-0.189732 0.148429 0)
(-0.211738 0.156416 0)
(-0.23143 0.160618 0)
(-0.24812 0.160895 0)
(-0.26153 0.157437 0)
(-0.271647 0.150716 0)
(-0.27879 0.141343 0)
(-0.283394 0.129981 0)
(-0.286021 0.117229 0)
(-0.287183 0.103594 0)
(-0.287375 0.0894506 0)
(-0.286964 0.0750639 0)
(-0.286262 0.0605898 0)
(-0.285462 0.0461162 0)
(-0.284726 0.03167 0)
(-0.284139 0.0172505 0)
(-0.283788 0.00282831 0)
(-0.283727 -0.0116336 0)
(-0.284029 -0.0261894 0)
(-0.284757 -0.0408989 0)
(-0.285995 -0.0558379 0)
(-0.28781 -0.0710897 0)
(-0.290256 -0.0867454 0)
(-0.293318 -0.102883 0)
(-0.296879 -0.119537 0)
(-0.300623 -0.13664 0)
(-0.303971 -0.153936 0)
(-0.305978 -0.170872 0)
(-0.305312 -0.18648 0)
(-0.300288 -0.199309 0)
(-0.289073 -0.207437 0)
(-0.270058 -0.208679 0)
(-0.242407 -0.201027 0)
(-0.206683 -0.183325 0)
(-0.165301 -0.156093 0)
(-0.122454 -0.122035 0)
(-0.0831528 -0.085817 0)
(-0.0514185 -0.0524448 0)
(-0.0287261 -0.0253544 0)
(-0.0140436 -0.0053705 0)
(-0.00540767 0.00817395 0)
(-0.000882944 0.0165136 0)
(0.000929897 0.0204858 0)
(0.00121045 0.0205583 0)
(0.000685112 0.0164661 0)
(0.000122788 0.00749973 0)
(-0.000477729 0.00260409 0)
(-0.00330348 0.00842088 0)
(-0.00804615 0.0142622 0)
(-0.0139965 0.0208789 0)
(-0.0215543 0.0287198 0)
(-0.0307594 0.0384851 0)
(-0.0422178 0.050247 0)
(-0.0560181 0.0640634 0)
(-0.0724911 0.0796065 0)
(-0.0914456 0.0965057 0)
(-0.11271 0.114042 0)
(-0.135569 0.131325 0)
(-0.159221 0.147207 0)
(-0.182485 0.160549 0)
(-0.204285 0.170325 0)
(-0.223547 0.175878 0)
(-0.239613 0.176967 0)
(-0.252113 0.173814 0)
(-0.261158 0.16697 0)
(-0.267088 0.157199 0)
(-0.270507 0.145293 0)
(-0.272021 0.131986 0)
(-0.27226 0.117858 0)
(-0.271709 0.103341 0)
(-0.270778 0.0887026 0)
(-0.269712 0.0741011 0)
(-0.268691 0.0595986 0)
(-0.267786 0.0452122 0)
(-0.26705 0.0309215 0)
(-0.266483 0.0167011 0)
(-0.266105 0.00251461 0)
(-0.265921 -0.0116693 0)
(-0.265975 -0.0258897 0)
(-0.266316 -0.040188 0)
(-0.267037 -0.0546221 0)
(-0.268239 -0.0692669 0)
(-0.27006 -0.0842238 0)
(-0.272618 -0.0996186 0)
(-0.276012 -0.11559 0)
(-0.280233 -0.132258 0)
(-0.285098 -0.149658 0)
(-0.290113 -0.167634 0)
(-0.294363 -0.185684 0)
(-0.296403 -0.202791 0)
(-0.294275 -0.217275 0)
(-0.285687 -0.226773 0)
(-0.268465 -0.22846 0)
(-0.24127 -0.219614 0)
(-0.204474 -0.198609 0)
(-0.160888 -0.166072 0)
(-0.115719 -0.125785 0)
(-0.0752001 -0.0840653 0)
(-0.0439413 -0.0473857 0)
(-0.0228727 -0.0191719 0)
(-0.0101179 0.000344433 0)
(-0.00315563 0.012674 0)
(-5.03782e-06 0.0191195 0)
(0.00094238 0.0205706 0)
(0.000673571 0.0170233 0)
(0.000146187 0.00789775 0)
(-0.000635886 0.00448773 0)
(-0.00415703 0.0127004 0)
(-0.00989857 0.0201589 0)
(-0.016956 0.0282354 0)
(-0.0258274 0.037773 0)
(-0.0365102 0.0496042 0)
(-0.0496503 0.0637594 0)
(-0.0652196 0.0801541 0)
(-0.0834566 0.0982659 0)
(-0.103944 0.117458 0)
(-0.126285 0.136704 0)
(-0.14947 0.154802 0)
(-0.172483 0.170381 0)
(-0.194003 0.18223 0)
(-0.213008 0.189454 0)
(-0.228629 0.191703 0)
(-0.240572 0.189152 0)
(-0.248872 0.182442 0)
(-0.254028 0.17246 0)
(-0.256656 0.160168 0)
(-0.257522 0.146425 0)
(-0.25726 0.131919 0)
(-0.256441 0.11712 0)
(-0.255419 0.102317 0)
(-0.254454 0.0876433 0)
(-0.253636 0.073145 0)
(-0.253017 0.0588037 0)
(-0.252558 0.0445865 0)
(-0.252237 0.0304499 0)
(-0.251993 0.016364 0)
(-0.25181 0.00230218 0)
(-0.251661 -0.0117484 0)
(-0.25157 -0.0258015 0)
(-0.251565 -0.0398698 0)
(-0.251728 -0.0539786 0)
(-0.252156 -0.0681719 0)
(-0.253001 -0.0825238 0)
(-0.254432 -0.0971504 0)
(-0.256655 -0.112212 0)
(-0.259851 -0.127913 0)
(-0.264143 -0.144465 0)
(-0.269468 -0.162025 0)
(-0.275456 -0.180551 0)
(-0.281238 -0.199615 0)
(-0.285301 -0.218149 0)
(-0.28544 -0.234224 0)
(-0.278915 -0.24496 0)
(-0.26299 -0.246767 0)
(-0.23581 -0.236102 0)
(-0.197628 -0.210806 0)
(-0.151805 -0.171903 0)
(-0.104848 -0.124707 0)
(-0.0643049 -0.077904 0)
(-0.0349425 -0.0390879 0)
(-0.016527 -0.0112918 0)
(-0.00616761 0.00666977 0)
(-0.00117105 0.0166289 0)
(0.000658267 0.0200905 0)
(0.000693315 0.0174471 0)
(0.000183308 0.00832798 0)
(-0.000804528 0.00682748 0)
(-0.00504229 0.01783 0)
(-0.0117922 0.0270838 0)
(-0.0199485 0.0367599 0)
(-0.0301069 0.0481613 0)
(-0.0421985 0.0622164 0)
(-0.0568769 0.0788648 0)
(-0.073956 0.0978153 0)
(-0.0935409 0.118294 0)
(-0.114952 0.139337 0)
(-0.13756 0.159589 0)
(-0.160098 0.177565 0)
(-0.181437 0.191777 0)
(-0.200263 0.201103 0)
(-0.215781 0.204964 0)
(-0.22747 0.203457 0)
(-0.235479 0.197238 0)
(-0.240223 0.187329 0)
(-0.242498 0.17485 0)
(-0.243055 0.160829 0)
(-0.242674 0.146057 0)
(-0.241883 0.131076 0)
(-0.241099 0.116182 0)
(-0.240495 0.101503 0)
(-0.240173 0.0870443 0)
(-0.240085 0.072764 0)
(-0.240191 0.0585958 0)
(-0.240385 0.0444872 0)
(-0.240608 0.0303956 0)
(-0.240776 0.0163036 0)
(-0.240862 0.00220476 0)
(-0.240827 -0.0118911 0)
(-0.240685 -0.0259714 0)
(-0.240448 -0.0400208 0)
(-0.240179 -0.0540315 0)
(-0.239947 -0.0680116 0)
(-0.239884 -0.0819927 0)
(-0.240143 -0.0960508 0)
(-0.240946 -0.110312 0)
(-0.242543 -0.12498 0)
(-0.245214 -0.140321 0)
(-0.249185 -0.156662 0)
(-0.254533 -0.174281 0)
(-0.260997 -0.193278 0)
(-0.267759 -0.213291 0)
(-0.273236 -0.233182 0)
(-0.274957 -0.250698 0)
(-0.269757 -0.262324 0)
(-0.254324 -0.263566 0)
(-0.226395 -0.249927 0)
(-0.186241 -0.218865 0)
(-0.138154 -0.17219 0)
(-0.0902469 -0.117782 0)
(-0.0513458 -0.0669696 0)
(-0.0254346 -0.0281299 0)
(-0.0104395 -0.00231621 0)
(-0.00286133 0.0126072 0)
(0.000210715 0.0189721 0)
(0.000686494 0.0177248 0)
(0.00022356 0.00882127 0)
(-0.000982948 0.00968118 0)
(-0.00594228 0.0238751 0)
(-0.013682 0.0350938 0)
(-0.0228955 0.0464982 0)
(-0.0342634 0.0599065 0)
(-0.0476223 0.0762908 0)
(-0.0635996 0.0954427 0)
(-0.0818167 0.116795 0)
(-0.102218 0.139269 0)
(-0.123856 0.161537 0)
(-0.1459 0.181934 0)
(-0.166912 0.198784 0)
(-0.185781 0.210638 0)
(-0.201363 0.216652 0)
(-0.213221 0.216717 0)
(-0.221252 0.211453 0)
(-0.226017 0.201962 0)
(-0.228216 0.189543 0)
(-0.228789 0.175395 0)
(-0.228471 0.160467 0)
(-0.227924 0.145379 0)
(-0.227488 0.130465 0)
(-0.227393 0.115835 0)
(-0.227638 0.101471 0)
(-0.228198 0.0872884 0)
(-0.22894 0.0731982 0)
(-0.229777 0.0591209 0)
(-0.230579 0.04501 0)
(-0.231286 0.030841 0)
(-0.231815 0.0166167 0)
(-0.232147 0.00235314 0)
(-0.232244 -0.0119202 0)
(-0.232121 -0.0261694 0)
(-0.231778 -0.0403598 0)
(-0.231261 -0.0544584 0)
(-0.230612 -0.0684453 0)
(-0.229922 -0.0823126 0)
(-0.2293 -0.0960901 0)
(-0.228926 -0.109845 0)
(-0.229024 -0.123727 0)
(-0.229903 -0.137966 0)
(-0.231909 -0.152918 0)
(-0.235384 -0.169008 0)
(-0.240531 -0.186683 0)
(-0.247189 -0.20617 0)
(-0.25458 -0.227178 0)
(-0.260985 -0.248416 0)
(-0.26365 -0.26718 0)
(-0.258901 -0.279131 0)
(-0.242949 -0.278656 0)
(-0.213205 -0.260303 0)
(-0.170396 -0.221367 0)
(-0.120182 -0.165543 0)
(-0.0727753 -0.104248 0)
(-0.0376245 -0.051938 0)
(-0.0164878 -0.0154115 0)
(-0.00538264 0.00640432 0)
(-0.000550745 0.0168988 0)
(0.000596957 0.0177289 0)
(0.000258796 0.00934556 0)
(-0.00115199 0.0130019 0)
(-0.00678667 0.0307395 0)
(-0.0154424 0.0440555 0)
(-0.0256139 0.0572721 0)
(-0.0380474 0.0727587 0)
(-0.0524578 0.091471 0)
(-0.069415 0.112999 0)
(-0.0883251 0.136441 0)
(-0.108965 0.160381 0)
(-0.130138 0.183128 0)
(-0.150886 0.202775 0)
(-0.169711 0.217588 0)
(-0.185665 0.226342 0)
(-0.197892 0.228629 0)
(-0.206384 0.224906 0)
(-0.21143 0.216295 0)
(-0.213906 0.204243 0)
(-0.214645 0.190159 0)
(-0.214584 0.175174 0)
(-0.214313 0.160041 0)
(-0.214306 0.145145 0)
(-0.214691 0.130607 0)
(-0.215532 0.116375 0)
(-0.216697 0.102334 0)
(-0.218091 0.0883546 0)
(-0.219543 0.0743393 0)
(-0.22096 0.0602233 0)
(-0.222219 0.0459823 0)
(-0.223277 0.0316173 0)
(-0.224062 0.0171534 0)
(-0.224572 0.00262729 0)
(-0.224775 -0.0119162 0)
(-0.224693 -0.0264279 0)
(-0.224322 -0.0408616 0)
(-0.223699 -0.0551686 0)
(-0.222842 -0.0693132 0)
(-0.221814 -0.0832595 0)
(-0.220672 -0.0970025 0)
(-0.219537 -0.110552 0)
(-0.218564 -0.123991 0)
(-0.218004 -0.137465 0)
(-0.218188 -0.151265 0)
(-0.219538 -0.165806 0)
(-0.2225 -0.181672 0)
(-0.227386 -0.199453 0)
(-0.234146 -0.219549 0)
(-0.241954 -0.241671 0)
(-0.248936 -0.26428 0)
(-0.251886 -0.283993 0)
(-0.246655 -0.295342 0)
(-0.228921 -0.291419 0)
(-0.196186 -0.265783 0)
(-0.150065 -0.216493 0)
(-0.0984933 -0.150416 0)
(-0.0538452 -0.0844437 0)
(-0.0247368 -0.0339764 0)
(-0.00902522 -0.00275385 0)
(-0.00176336 0.0134713 0)
(0.000375119 0.0173024 0)
(0.000280211 0.00987068 0)
(-0.00130837 0.0167969 0)
(-0.00755109 0.0384173 0)
(-0.0170179 0.0539503 0)
(-0.0280128 0.0690415 0)
(-0.0413177 0.0866355 0)
(-0.0565051 0.107608 0)
(-0.0740625 0.131293 0)
(-0.0931787 0.15641 0)
(-0.113476 0.181194 0)
(-0.133569 0.203631 0)
(-0.152459 0.221689 0)
(-0.168712 0.233736 0)
(-0.181653 0.238942 0)
(-0.190783 0.237451 0)
(-0.19651 0.23029 0)
(-0.199422 0.218994 0)
(-0.200572 0.205193 0)
(-0.200781 0.190249 0)
(-0.20086 0.175098 0)
(-0.201189 0.160228 0)
(-0.202039 0.145788 0)
(-0.203356 0.131714 0)
(-0.205088 0.117848 0)
(-0.20703 0.104027 0)
(-0.209069 0.0901205 0)
(-0.211031 0.0760488 0)
(-0.212844 0.0617764 0)
(-0.214401 0.0473057 0)
(-0.215679 0.0326641 0)
(-0.216624 0.0178952 0)
(-0.217245 0.00305304 0)
(-0.21752 -0.011807 0)
(-0.217477 -0.0266248 0)
(-0.217113 -0.0413492 0)
(-0.216465 -0.0559229 0)
(-0.215541 -0.0703057 0)
(-0.214382 -0.0844462 0)
(-0.213014 -0.0983218 0)
(-0.211504 -0.111901 0)
(-0.209936 -0.125213 0)
(-0.208471 -0.138311 0)
(-0.207355 -0.151388 0)
(-0.206952 -0.164748 0)
(-0.207755 -0.178941 0)
(-0.210295 -0.194665 0)
(-0.215018 -0.21274 0)
(-0.221887 -0.233676 0)
(-0.230045 -0.257149 0)
(-0.237235 -0.281148 0)
(-0.23981 -0.301272 0)
(-0.232914 -0.310585 0)
(-0.21203 -0.300558 0)
(-0.175003 -0.264345 0)
(-0.125475 -0.201915 0)
(-0.0742555 -0.126355 0)
(-0.0356467 -0.0597437 0)
(-0.0140039 -0.0158063 0)
(-0.00356007 0.00813917 0)
(-1.10432e-05 0.0161985 0)
(0.000281127 0.0103226 0)
(-0.00142872 0.0209555 0)
(-0.00815638 0.0467199 0)
(-0.0182753 0.0645417 0)
(-0.0299081 0.0815057 0)
(-0.0438397 0.101141 0)
(-0.0594872 0.124186 0)
(-0.0772422 0.149687 0)
(-0.0960913 0.175962 0)
(-0.115539 0.200927 0)
(-0.134081 0.222316 0)
(-0.150778 0.23811 0)
(-0.164361 0.246941 0)
(-0.174493 0.2485 0)
(-0.181036 0.243517 0)
(-0.184736 0.233528 0)
(-0.186361 0.220332 0)
(-0.186998 0.205576 0)
(-0.18734 0.190438 0)
(-0.18801 0.175582 0)
(-0.189168 0.161227 0)
(-0.190911 0.147315 0)
(-0.193061 0.133655 0)
(-0.195506 0.12004 0)
(-0.198021 0.106303 0)
(-0.200505 0.0923387 0)
(-0.202803 0.0780976 0)
(-0.204867 0.0635769 0)
(-0.206608 0.0488039 0)
(-0.208022 0.0338282 0)
(-0.209061 0.0187087 0)
(-0.209747 0.00351411 0)
(-0.210059 -0.0116918 0)
(-0.210036 -0.0268393 0)
(-0.209676 -0.0418748 0)
(-0.209021 -0.0567356 0)
(-0.20808 -0.0713837 0)
(-0.20689 -0.0857623 0)
(-0.20546 -0.0998471 0)
(-0.203824 -0.113584 0)
(-0.202015 -0.126973 0)
(-0.200112 -0.139995 0)
(-0.198258 -0.15275 0)
(-0.196702 -0.1654 0)
(-0.195854 -0.178366 0)
(-0.196253 -0.192265 0)
(-0.198569 -0.208044 0)
(-0.203281 -0.226684 0)
(-0.21042 -0.248846 0)
(-0.218827 -0.273964 0)
(-0.225891 -0.29924 0)
(-0.227144 -0.31881 0)
(-0.217284 -0.323695 0)
(-0.191586 -0.303901 0)
(-0.149403 -0.252885 0)
(-0.0972034 -0.175804 0)
(-0.0498432 -0.0942306 0)
(-0.0204055 -0.0339432 0)
(-0.00610151 0.000330519 0)
(-0.000583893 0.0141224 0)
(0.000255359 0.0106372 0)
(-0.0015115 0.0254276 0)
(-0.00858598 0.0555729 0)
(-0.0191753 0.0757481 0)
(-0.0312375 0.094564 0)
(-0.0455243 0.116138 0)
(-0.0612977 0.141027 0)
(-0.0788507 0.167967 0)
(-0.097004 0.194872 0)
(-0.115191 0.21939 0)
(-0.131876 0.239107 0)
(-0.146257 0.252164 0)
(-0.157301 0.257587 0)
(-0.165021 0.255665 0)
(-0.16959 0.247682 0)
(-0.171985 0.235562 0)
(-0.173026 0.221203 0)
(-0.173721 0.206129 0)
(-0.174574 0.191241 0)
(-0.176004 0.176916 0)
(-0.177983 0.163129 0)
(-0.180491 0.149679 0)
(-0.183282 0.136306 0)
(-0.186234 0.122801 0)
(-0.189135 0.109019 0)
(-0.191909 0.0948928 0)
(-0.194423 0.0804029 0)
(-0.196653 0.065575 0)
(-0.198519 0.050455 0)
(-0.200027 0.0351108 0)
(-0.201132 0.0196125 0)
(-0.201859 0.00404256 0)
(-0.202192 -0.011528 0)