/*--------------------------------*- C++ -*----------------------------------*\
| =========                 |                                                 |
| \\      /  F ield         | OpenFOAM: The Open Source CFD Toolbox           |
|  \\    /   O peration     | Version:  2406                                  |
|   \\  /    A nd           | Website:  www.openfoam.com                      |
|    \\/     M anipulation  |                                                 |
\*---------------------------------------------------------------------------*/
FoamFile
{
    version     2.0;
    format      ascii;
    arch        "LSB;label=32;scalar=64";
    class       volVectorField;
    location    "22.6";
    object      U_0;
}
// * * * * * * * * * * * * * * * * * * * * * * * * * * * * * * * * * * * * * //

dimensions      [0 1 -1 0 0 0 0];

internalField   nonuniform List<vector> 
900
(
(0.000428182 -0.000426555 0)
(0.00209432 -0.000504157 0)
(0.00358458 -0.000396924 0)
(0.00451748 -0.000212193 0)
(0.0046872 -5.00121e-05 0)
(0.0041461 9.55382e-05 0)
(0.00281535 0.000251571 0)
(0.000392185 0.000364249 0)
(-0.00380296 0.00029005 0)
(-0.0109158 0.000392886 0)
(-0.0218528 0.00155447 0)
(-0.0365219 0.003786 0)
(-0.0535552 0.00582008 0)
(-0.0703243 0.0065812 0)
(-0.083613 0.00569258 0)
(-0.0911356 0.003419 0)
(-0.0913091 0.000204287 0)
(-0.0833334 -0.00339091 0)
(-0.0672039 -0.00687477 0)
(-0.0442474 -0.00956786 0)
(-0.0171603 -0.0106633 0)
(0.00978615 -0.00943737 0)
(0.0314628 -0.00567944 0)
(0.0434484 -0.000352157 0)
(0.043674 0.00383621 0)
(0.0346153 0.00493277 0)
(0.0225681 0.00381432 0)
(0.0122535 0.00238051 0)
(0.00520513 0.00131736 0)
(0.000838932 0.000689492 0)
(0.000526308 -0.00209857 0)
(0.00291121 -0.00288034 0)
(0.00442834 -0.00196225 0)
(0.00447714 -0.000444448 0)
(0.00240967 0.00121402 0)
(-0.00225784 0.00307399 0)
(-0.0105387 0.00552555 0)
(-0.0240979 0.00923802 0)
(-0.0444635 0.0149469 0)
(-0.0713918 0.0221681 0)
(-0.10132 0.0282601 0)
(-0.129356 0.030731 0)
(-0.152382 0.0289073 0)
(-0.168997 0.0231241 0)
(-0.178504 0.0142314 0)
(-0.180709 0.00329492 0)
(-0.175348 -0.00879411 0)
(-0.162308 -0.0212558 0)
(-0.141668 -0.0328963 0)
(-0.113955 -0.0420066 0)
(-0.0805057 -0.0463349 0)
(-0.0439386 -0.0436501 0)
(-0.00846541 -0.0328911 0)
(0.0203769 -0.0156528 0)
(0.0373563 0.00243902 0)
(0.0405085 0.0145274 0)
(0.0335823 0.0181359 0)
(0.0219669 0.0157738 0)
(0.0106922 0.0111644 0)
(0.00166474 0.00536507 0)
(0.000451292 -0.00363897 0)
(0.0017877 -0.00434432 0)
(0.00129131 -0.00171951 0)
(-0.00194043 0.00228278 0)
(-0.00916955 0.00724388 0)
(-0.0219245 0.0137229 0)
(-0.0422341 0.022883 0)
(-0.0710337 0.0348897 0)
(-0.105502 0.0468834 0)
(-0.140182 0.0547931 0)
(-0.171009 0.056901 0)
(-0.195981 0.0534644 0)
(-0.214644 0.0453434 0)
(-0.227309 0.0334741 0)
(-0.234344 0.0187861 0)
(-0.236053 0.00204278 0)
(-0.232551 -0.0161487 0)
(-0.22345 -0.0351079 0)
(-0.207978 -0.0535812 0)
(-0.185481 -0.0695194 0)
(-0.155602 -0.0798042 0)
(-0.118981 -0.0806691 0)
(-0.077917 -0.0691555 0)
(-0.0372633 -0.0454378 0)
(-0.00429809 -0.0157177 0)
(0.0142843 0.00876246 0)
(0.0196548 0.0216301 0)
(0.0164269 0.0242928 0)
(0.00928412 0.0206696 0)
(0.00145512 0.0111324 0)
(0.000105298 -0.00432082 0)
(-0.000960489 -0.00365781 0)
(-0.00509961 0.00194814 0)
(-0.013793 0.0102807 0)
(-0.0289375 0.0214791 0)
(-0.0525682 0.0363584 0)
(-0.084878 0.0542733 0)
(-0.122147 0.0712512 0)
(-0.158453 0.0824385 0)
(-0.189584 0.0857475 0)
(-0.214113 0.0817768 0)
(-0.232146 0.0720152 0)
(-0.244609 0.0580388 0)
(-0.252568 0.0411121 0)
(-0.256978 0.022022 0)
(-0.258534 0.0010498 0)
(-0.257548 -0.0216647 0)
(-0.253805 -0.0456008 0)
(-0.246481 -0.0700257 0)
(-0.234101 -0.0930642 0)
(-0.214617 -0.111397 0)
(-0.18588 -0.120023 0)
(-0.146845 -0.113496 0)
(-0.0995413 -0.0886232 0)
(-0.0514887 -0.0491296 0)
(-0.0153611 -0.00911988 0)
(0.00140201 0.0163281 0)
(0.00607497 0.0267312 0)
(0.00455347 0.0265158 0)
(0.00061096 0.0150923 0)
(-0.000589269 -0.00315272 0)
(-0.00536783 0.000773009 0)
(-0.0144829 0.0110151 0)
(-0.0302381 0.0259976 0)
(-0.0542691 0.0458572 0)
(-0.0868218 0.0692914 0)
(-0.124209 0.0917214 0)
(-0.160194 0.107182 0)
(-0.190013 0.112702 0)
(-0.212203 0.109076 0)
(-0.227147 0.0984793 0)
(-0.236157 0.0831979 0)
(-0.240923 0.0650941 0)
(-0.243015 0.0453207 0)
(-0.243864 0.0243935 0)
(-0.244458 0.00228718 0)
(-0.245175 -0.0212471 0)
(-0.246101 -0.0465434 0)
(-0.246918 -0.0736583 0)
(-0.246275 -0.10177 0)
(-0.241568 -0.128379 0)
(-0.228736 -0.14864 0)
(-0.20297 -0.155236 0)
(-0.161044 -0.140321 0)
(-0.105491 -0.100507 0)
(-0.0490289 -0.0450546 0)
(-0.0130734 0.000914397 0)
(-0.00150335 0.0231518 0)
(0.00114994 0.0278064 0)
(0.000181045 0.0166372 0)
(-0.00165202 0.000797195 0)
(-0.0111166 0.0100738 0)
(-0.0257994 0.0265861 0)
(-0.0484764 0.0497133 0)
(-0.0789749 0.0777874 0)
(-0.114685 0.105828 0)
(-0.149479 0.126785 0)
(-0.177748 0.135935 0)
(-0.19733 0.133475 0)
(-0.208798 0.122319 0)
(-0.213835 0.105684 0)
(-0.214756 0.0863094 0)
(-0.213574 0.065883 0)
(-0.211826 0.0451463 0)
(-0.210509 0.0241949 0)
(-0.21015 0.00284758 0)
(-0.211031 -0.0192785 0)
(-0.213547 -0.0429707 0)
(-0.217916 -0.0688439 0)
(-0.224071 -0.0973465 0)
(-0.230732 -0.127885 0)
(-0.234473 -0.157683 0)
(-0.228924 -0.180294 0)
(-0.206213 -0.185354 0)
(-0.160902 -0.161317 0)
(-0.0966125 -0.104022 0)
(-0.0333431 -0.0314552 0)
(-0.00520935 0.0137203 0)
(8.33761e-05 0.0265052 0)
(0.00031274 0.0171719 0)
(-0.00292076 0.00822558 0)
(-0.0172339 0.0245856 0)
(-0.0368186 0.0481298 0)
(-0.0642427 0.0788496 0)
(-0.0968634 0.111953 0)
(-0.130091 0.139448 0)
(-0.157564 0.15433 0)
(-0.175932 0.154818 0)
(-0.185443 0.144031 0)
(-0.188191 0.12634 0)
(-0.186959 0.105594 0)
(-0.184379 0.0843559 0)
(-0.182052 0.0636312 0)
(-0.180753 0.0434625 0)
(-0.18044 0.0234074 0)
(-0.180834 0.0030452 0)
(-0.1818 -0.0179805 0)
(-0.183579 -0.0399701 0)
(-0.186681 -0.0633631 0)
(-0.192042 -0.0889136 0)
(-0.200382 -0.117536 0)
(-0.211057 -0.149374 0)
(-0.220131 -0.181874 0)
(-0.219264 -0.207102 0)
(-0.197596 -0.210347 0)
(-0.147621 -0.174263 0)
(-0.074679 -0.0946485 0)
(-0.0114693 -0.00896129 0)
(0.000448187 0.0250175 0)
(0.000300754 0.0179583 0)
(-0.00408874 0.0191236 0)
(-0.022356 0.0435334 0)
(-0.0450237 0.0736209 0)
(-0.0740696 0.109693 0)
(-0.104844 0.14379 0)
(-0.132244 0.166565 0)
(-0.151153 0.172912 0)
(-0.160777 0.164458 0)
(-0.163172 0.146666 0)
(-0.161503 0.124841 0)
(-0.158925 0.102813 0)
(-0.157453 0.0821592 0)
(-0.157708 0.0627451 0)
(-0.159405 0.0437578 0)
(-0.161684 0.0243556 0)
(-0.163816 0.00409119 0)
(-0.165365 -0.0171285 0)
(-0.166372 -0.0390707 0)
(-0.167286 -0.0616095 0)
(-0.169097 -0.0849427 0)
(-0.17325 -0.109949 0)
(-0.181215 -0.138156 0)
(-0.192836 -0.170717 0)
(-0.203723 -0.205381 0)
(-0.203727 -0.231954 0)
(-0.179618 -0.229245 0)
(-0.122186 -0.171854 0)
(-0.0388383 -0.0607422 0)
(0.00135119 0.0178265 0)
(-0.00124298 0.0193784 0)
(-0.00480691 0.0325856 0)
(-0.025307 0.0651337 0)
(-0.0488242 0.100281 0)
(-0.0767397 0.138866 0)
(-0.10328 0.170501 0)
(-0.123957 0.186123 0)
(-0.135461 0.183518 0)
(-0.139156 0.167525 0)
(-0.13818 0.145289 0)
(-0.136108 0.12238 0)
(-0.135558 0.101676 0)
(-0.137403 0.0831542 0)
(-0.141232 0.065502 0)
(-0.14599 0.0473163 0)
(-0.15054 0.0277618 0)
(-0.15409 0.00669328 0)
(-0.156189 -0.0155654 0)
(-0.156803 -0.0384237 0)
(-0.156223 -0.0613212 0)
(-0.155194 -0.083974 0)
(-0.155024 -0.106779 0)
(-0.157649 -0.131193 0)
(-0.164933 -0.159695 0)
(-0.176701 -0.194143 0)
(-0.187413 -0.231395 0)
(-0.184514 -0.256392 0)
(-0.153137 -0.237641 0)
(-0.0837209 -0.144648 0)
(-0.0036964 -0.00756988 0)
(-0.000216616 0.022549 0)
(-0.00487322 0.0471489 0)
(-0.0255985 0.0874707 0)
(-0.0479755 0.125882 0)
(-0.0729033 0.164442 0)
(-0.0943305 0.191451 0)
(-0.108968 0.199252 0)
(-0.115259 0.188749 0)
(-0.115997 0.167491 0)
(-0.114685 0.143583 0)
(-0.114588 0.122014 0)
(-0.117258 0.103954 0)
(-0.122502 0.087759 0)
(-0.129236 0.0713059 0)
(-0.136141 0.0530538 0)
(-0.142166 0.0324691 0)
(-0.146649 0.00978618 0)
(-0.14925 -0.0143083 0)
(-0.14991 -0.0389061 0)
(-0.148756 -0.0630944 0)
(-0.146205 -0.0861593 0)
(-0.143127 -0.107918 0)
(-0.141105 -0.129234 0)
(-0.142427 -0.152687 0)
(-0.149474 -0.182338 0)
(-0.162044 -0.22056 0)
(-0.171346 -0.260917 0)
(-0.162253 -0.276201 0)
(-0.114114 -0.219797 0)
(-0.0305445 -0.0624953 0)
(0.00965279 0.0232251 0)
(-0.00425166 0.0610989 0)
(-0.0233213 0.108608 0)
(-0.043134 0.148628 0)
(-0.0641534 0.185447 0)
(-0.0806588 0.206992 0)
(-0.0906826 0.207528 0)
(-0.093976 0.190922 0)
(-0.094006 0.166795 0)
(-0.0940162 0.143434 0)
(-0.0965 0.124526 0)
(-0.10194 0.109334 0)
(-0.109475 0.0949835 0)
(-0.117774 0.0790148 0)
(-0.125619 0.0601028 0)
(-0.132213 0.0381192 0)
(-0.137093 0.0136187 0)
(-0.140032 -0.012474 0)
(-0.140967 -0.0390716 0)
(-0.139981 -0.0650892 0)
(-0.137328 -0.0896008 0)
(-0.133481 -0.112014 0)
(-0.129295 -0.132331 0)
(-0.126222 -0.151945 0)
(-0.126855 -0.17508 0)
(-0.135566 -0.207784 0)
(-0.148697 -0.252971 0)
(-0.154951 -0.292331 0)
(-0.126113 -0.278149 0)
(-0.068707 -0.149123 0)
(0.0164767 0.0126594 0)
(-0.00306779 0.072946 0)
(-0.0190299 0.127264 0)
(-0.0354505 0.167776 0)
(-0.0522557 0.201995 0)
(-0.0644849 0.218287 0)
(-0.0713012 0.212911 0)
(-0.073246 0.1922 0)
(-0.073784 0.167101 0)
(-0.0755094 0.145527 0)
(-0.0800278 0.129552 0)
(-0.0870698 0.116757 0)
(-0.0955249 0.103529 0)
(-0.10415 0.0874307 0)
(-0.112022 0.0675163 0)
(-0.118614 0.0440169 0)
(-0.1236 0.0177107 0)
(-0.126772 -0.0103133 0)
(-0.128018 -0.0388242 0)
(-0.127381 -0.0665802 0)
(-0.125103 -0.0925283 0)
(-0.121573 -0.115995 0)
(-0.117243 -0.136723 0)
(-0.112919 -0.15499 0)
(-0.109474 -0.17378 0)
(-0.113387 -0.198804 0)
(-0.123317 -0.239509 0)
(-0.137346 -0.289826 0)
(-0.12425 -0.312611 0)
(-0.0922067 -0.226354 0)
(0.00803186 -0.0149119 0)
(-0.00149119 0.0815335 0)
(-0.0133519 0.14236 0)
(-0.0259995 0.18275 0)
(-0.0386472 0.214293 0)
(-0.0473628 0.226246 0)
(-0.052136 0.216537 0)
(-0.0537576 0.193369 0)
(-0.0552018 0.16849 0)
(-0.0582343 0.149112 0)
(-0.0637278 0.135734 0)
(-0.0710802 0.124692 0)
(-0.079271 0.112036 0)
(-0.087347 0.0955419 0)
(-0.094716 0.0746365 0)
(-0.101047 0.0497834 0)
(-0.106058 0.0218571 0)
(-0.109492 -0.00798378 0)
(-0.111172 -0.038377 0)
(-0.111079 -0.0679011 0)
(-0.109425 -0.0953111 0)
(-0.106614 -0.119769 0)
(-0.102755 -0.141148 0)
(-0.099067 -0.159135 0)
(-0.0938767 -0.175862 0)
(-0.0950867 -0.19491 0)
(-0.0992925 -0.228121 0)
(-0.115813 -0.27958 0)
(-0.11377 -0.328814 0)
(-0.102807 -0.284857 0)
(-0.00965481 -0.0641143 0)
(0.000257324 0.0862293 0)
(-0.00694438 0.153421 0)
(-0.0157419 0.193737 0)
(-0.0243994 0.223024 0)
(-0.0302135 0.231873 0)
(-0.0336183 0.219453 0)
(-0.0353052 0.195169 0)
(-0.0374556 0.171051 0)
(-0.0410297 0.153615 0)
(-0.0464357 0.142171 0)
(-0.0530707 0.132266 0)
(-0.0601855 0.119846 0)
(-0.0671618 0.102941 0)
(-0.0736666 0.0812597 0)
(-0.0794796 0.0553769 0)
(-0.0843276 0.0261668 0)
(-0.087924 -0.0051956 0)
(-0.0900715 -0.0372294 0)
(-0.0907084 -0.0683367 0)
(-0.0899215 -0.0971307 0)
(-0.0883543 -0.12246 0)
(-0.0852746 -0.144569 0)
(-0.0835979 -0.162896 0)
(-0.0782657 -0.179161 0)
(-0.0792372 -0.194086 0)
(-0.0776777 -0.21937 0)
(-0.0937011 -0.265301 0)
(-0.0958842 -0.331371 0)
(-0.0994752 -0.329682 0)
(-0.0190418 -0.131438 0)
(0.00194695 0.0867999 0)
(-0.000319205 0.159979 0)
(-0.00527865 0.200627 0)
(-0.0101692 0.228399 0)
(-0.0134963 0.235502 0)
(-0.0159125 0.221778 0)
(-0.0177521 0.197164 0)
(-0.0202617 0.173796 0)
(-0.0236691 0.157735 0)
(-0.0281347 0.147546 0)
(-0.0332695 0.138349 0)
(-0.0386813 0.126094 0)
(-0.0440767 0.108995 0)
(-0.0493161 0.0869098 0)
(-0.0542594 0.0604097 0)
(-0.0586659 0.0303168 0)
(-0.0622712 -0.00219181 0)
(-0.0648929 -0.0355661 0)
(-0.0665005 -0.067943 0)
(-0.0667279 -0.0979677 0)
(-0.0670521 -0.123977 0)
(-0.0647683 -0.146536 0)
(-0.0657974 -0.164991 0)
(-0.0610145 -0.181715 0)
(-0.06415 -0.195036 0)
(-0.0589099 -0.215321 0)
(-0.0742776 -0.253145 0)
(-0.0759483 -0.32573 0)
(-0.0891592 -0.357345 0)
(-0.0186154 -0.195357 0)
(0.00328891 0.0833264 0)
(0.00606131 0.162046 0)
(0.00487283 0.203885 0)
(0.00354207 0.230956 0)
(0.00252609 0.237572 0)
(0.00113548 0.223812 0)
(-0.000619808 0.199547 0)
(-0.00304127 0.176731 0)
(-0.00572148 0.16128 0)
(-0.00868789 0.151616 0)
(-0.0118337 0.142766 0)
(-0.0151435 0.130677 0)
(-0.0186161 0.113608 0)
(-0.0222534 0.0914409 0)
(-0.0259779 0.0647035 0)
(-0.0296205 0.0341878 0)
(-0.0330592 0.00112196 0)
(-0.0360234 -0.0331033 0)
(-0.0388947 -0.0662181 0)
(-0.0401268 -0.0970958 0)
(-0.043142 -0.123735 0)
(-0.0418613 -0.146714 0)
(-0.0463469 -0.165165 0)
(-0.042284 -0.182423 0)
(-0.0488367 -0.194943 0)
(-0.0415221 -0.212351 0)
(-0.0571154 -0.242212 0)
(-0.0556998 -0.317095 0)
(-0.0766316 -0.376633 0)
(-0.0154786 -0.25225 0)
(0.00414976 0.0762498 0)
(0.0118092 0.159575 0)
(0.0144028 0.203288 0)
(0.016425 0.230519 0)
(0.0177247 0.237834 0)
(0.0174965 0.225086 0)
(0.0160658 0.201513 0)
(0.0139534 0.178863 0)
(0.0121948 0.163241 0)
(0.0109737 0.153444 0)
(0.0101008 0.144661 0)
(0.00920086 0.132803 0)
(0.00798594 0.116045 0)
(0.00631098 0.0941941 0)
(0.00413499 0.0677279 0)
(0.0016211 0.0373785 0)
(-0.00153736 0.00438566 0)
(-0.00455335 -0.0299121 0)
(-0.00895081 -0.0633062 0)
(-0.0110694 -0.0943113 0)
(-0.0172436 -0.121399 0)
(-0.0169867 -0.144359 0)
(-0.0256143 -0.163066 0)
(-0.0223074 -0.180774 0)
(-0.0334756 -0.193702 0)
(-0.0254511 -0.210574 0)
(-0.0430846 -0.23361 0)
(-0.0379467 -0.306284 0)
(-0.0650743 -0.386011 0)
(-0.0110805 -0.300313 0)
(0.00443325 0.0663963 0)
(0.0164863 0.152821 0)
(0.0227883 0.199237 0)
(0.0281666 0.22737 0)
(0.0319032 0.236376 0)
(0.0332526 0.225699 0)
(0.0326335 0.203418 0)
(0.0311225 0.180729 0)
(0.0303177 0.164221 0)
(0.0307798 0.153566 0)
(0.0321564 0.14446 0)
(0.0337285 0.132799 0)
(0.0348943 0.116546 0)
(0.0353337 0.0953221 0)
(0.034819 0.0695466 0)
(0.0335379 0.0398701 0)
(0.0306803 0.00753795 0)
(0.0279495 -0.0260137 0)
(0.0219824 -0.0590167 0)
(0.0190203 -0.0895402 0)
(0.00959885 -0.116728 0)
(0.00861037 -0.13927 0)
(-0.00451398 -0.158681 0)
(-0.00164415 -0.17597 0)
(-0.0182488 -0.189857 0)
(-0.00954089 -0.206537 0)
(-0.030955 -0.225106 0)
(-0.0223402 -0.295647 0)
(-0.0555835 -0.39116 0)
(-0.00681578 -0.340641 0)
(0.00410229 0.0547978 0)
(0.0196911 0.14181 0)
(0.0297248 0.191313 0)
(0.0384423 0.221095 0)
(0.0448857 0.232547 0)
(0.0481195 0.224764 0)
(0.0486118 0.204257 0)
(0.0477872 0.181459 0)
(0.0477393 0.163525 0)
(0.0495383 0.151357 0)
(0.0528932 0.1415 0)
(0.056831 0.129955 0)
(0.0603953 0.114407 0)
(0.0630812 0.0941676 0)
(0.0642518 0.0696202 0)
(0.0645139 0.0412481 0)
(0.0618698 0.0103556 0)
(0.0596935 -0.0217761 0)
(0.0523161 -0.0534777 0)
(0.0486368 -0.0830235 0)
(0.0363509 -0.109508 0)
(0.0338942 -0.131595 0)
(0.0164967 -0.151308 0)
(0.0189611 -0.1685 0)
(-0.00378446 -0.184038 0)
(0.00590349 -0.200528 0)
(-0.0215198 -0.216691 0)
(-0.00937844 -0.283465 0)
(-0.0485748 -0.390253 0)
(-0.00252532 -0.375007 0)
(0.00325452 0.0427942 0)
(0.0210774 0.127224 0)
(0.0346299 0.180082 0)
(0.0467893 0.211999 0)
(0.0561708 0.226354 0)
(0.0619505 0.22224 0)
(0.0642833 0.204438 0)
(0.0645886 0.182051 0)
(0.0652257 0.162566 0)
(0.0678542 0.148282 0)
(0.0725541 0.137045 0)
(0.0783768 0.12526 0)
(0.0839705 0.110432 0)
(0.088821 0.0913896 0)
(0.091366 0.0684464 0)
(0.0933392 0.0419171 0)
(0.0907246 0.0130279 0)
(0.0893259 -0.0171178 0)
(0.0805461 -0.0468413 0)
(0.0765429 -0.0749007 0)
(0.0614726 -0.0999936 0)
(0.0579088 -0.121714 0)
(0.0366323 -0.141024 0)
(0.0385565 -0.158449 0)
(0.0103311 -0.174778 0)
(0.0213683 -0.1912 0)
(-0.0139903 -0.206633 0)
(0.00215734 -0.270443 0)
(-0.0442384 -0.386589 0)
(0.00144165 -0.404701 0)
(0.00218992 0.0315953 0)
(0.0205295 0.109604 0)
(0.0373321 0.165022 0)
(0.0526705 0.199554 0)
(0.0652217 0.216952 0)
(0.0738582 0.216824 0)
(0.0785438 0.202338 0)
(0.080392 0.181081 0)
(0.0817422 0.160395 0)
(0.0847376 0.143809 0)
(0.0900139 0.130706 0)
(0.0970638 0.118235 0)
(0.104056 0.104027 0)
(0.110989 0.0864094 0)
(0.114577 0.0654376 0)
(0.118416 0.0412691 0)
(0.115826 0.0149982 0)
(0.115498 -0.0124858 0)
(0.105492 -0.0395996 0)
(0.101676 -0.0654492 0)
(0.0841495 -0.0887458 0)
(0.0801808 -0.10963 0)
(0.0553787 -0.128332 0)
(0.0571572 -0.146233 0)
(0.0235388 -0.162763 0)
(0.0358295 -0.179769 0)
(-0.00816159 -0.194711 0)
(0.0127112 -0.254744 0)
(-0.0425454 -0.377755 0)
(0.00549408 -0.429779 0)
(0.00120935 0.022149 0)
(0.0181374 0.0906293 0)
(0.0371936 0.147403 0)
(0.0554902 0.184269 0)
(0.0711774 0.204625 0)
(0.0834613 0.208686 0)
(0.0915688 0.198382 0)
(0.09605 0.179417 0)
(0.0987967 0.158523 0)
(0.10218 0.139952 0)
(0.107254 0.124695 0)
(0.114631 0.110931 0)
(0.121787 0.0968368 0)
(0.13021 0.0805135 0)
(0.134168 0.0616439 0)
(0.139674 0.0401022 0)
(0.136881 0.0168044 0)
(0.137792 -0.007626 0)
(0.126652 -0.0317735 0)
(0.123608 -0.0550468 0)
(0.103935 -0.0763215 0)
(0.100504 -0.0960161 0)
(0.0725228 -0.113992 0)
(0.0748592 -0.131791 0)
(0.0360321 -0.14793 0)
(0.0499119 -0.165241 0)
(-0.00308264 -0.179935 0)
(0.023631 -0.237774 0)
(-0.042326 -0.366123 0)
(0.0103246 -0.450301 0)
(0.000614781 0.0147949 0)
(0.0143934 0.0716065 0)
(0.0343929 0.12706 0)
(0.0545451 0.16584 0)
(0.0732009 0.188477 0)
(0.0889357 0.196137 0)
(0.100946 0.190056 0)
(0.108963 0.174332 0)
(0.114075 0.154556 0)
(0.118603 0.135079 0)
(0.123372 0.118102 0)
(0.130701 0.102956 0)
(0.136971 0.0885731 0)
(0.146147 0.0732466 0)
(0.149759 0.0564259 0)
(0.156691 0.0376644 0)
(0.153543 0.0175927 0)
(0.156015 -0.0034225 0)
(0.144035 -0.0242916 0)
(0.142562 -0.0445766 0)
(0.121289 -0.0635501 0)
(0.119428 -0.0815167 0)
(0.0884992 -0.0984423 0)
(0.0921477 -0.115413 0)
(0.0476348 -0.13093 0)
(0.0636382 -0.148027 0)
(0.00084154 -0.162852 0)
(0.0350555 -0.218835 0)
(-0.0423449 -0.351412 0)
(0.0169379 -0.469456 0)
(0.000136194 0.00994485 0)
(0.0097727 0.0553961 0)
(0.0281563 0.106952 0)
(0.0494078 0.145489 0)
(0.0704326 0.169677 0)
(0.0903422 0.180282 0)
(0.107071 0.178363 0)
(0.120018 0.166518 0)
(0.129039 0.149318 0)
(0.136392 0.130452 0)
(0.141618 0.112791 0)
(0.149235 0.0966338 0)
(0.153961 0.0817787 0)
(0.163059 0.066996 0)
(0.165237 0.0517748 0)
(0.172927 0.0355103 0)
(0.168773 0.0184602 0)
(0.17277 0.000817831 0)
(0.159863 -0.0168471 0)
(0.160456 -0.0341061 0)
(0.137782 -0.0507252 0)
(0.138074 -0.0665642 0)
(0.104207 -0.0820325 0)
(0.10953 -0.0970772 0)
(0.0589257 -0.111463 0)
(0.0776821 -0.127032 0)
(0.00398833 -0.143487 0)
(0.0474153 -0.19876 0)
(-0.0439516 -0.337177 0)
(0.0248523 -0.49158 0)
(-0.000560345 0.00727178 0)
(0.00437427 0.0422501 0)
(0.0195575 0.0871822 0)
(0.039231 0.123498 0)
(0.0619063 0.147052 0)
(0.0845631 0.159054 0)
(0.105787 0.160244 0)
(0.124115 0.152352 0)
(0.138005 0.138675 0)
(0.150049 0.122112 0)
(0.157411 0.10541 0)
(0.16702 0.0895341 0)
(0.17108 0.0748602 0)
(0.180664 0.0607892 0)
(0.181253 0.0469669 0)
(0.189742 0.0329177 0)
(0.184237 0.0185704 0)
(0.189977 0.00408859 0)
(0.175913 -0.010484 0)
(0.178996 -0.0245785 0)
(0.154747 -0.0385366 0)
(0.157523 -0.0515597 0)
(0.120387 -0.0648099 0)
(0.127556 -0.0768003 0)
(0.070638 -0.0897228 0)
(0.0923653 -0.102483 0)
(0.00697547 -0.122081 0)
(0.0607862 -0.174584 0)
(-0.0507266 -0.320544 0)
(0.0332688 -0.511911 0)
(-0.00283541 0.0091853 0)
(-0.00358055 0.0352923 0)
(0.00617109 0.0725384 0)
(0.0244794 0.101884 0)
(0.0480957 0.123973 0)
(0.0745617 0.135652 0)
(0.0999147 0.138696 0)
(0.124345 0.133974 0)
(0.143686 0.124092 0)
(0.161978 0.110756 0)
(0.172973 0.0965272 0)
(0.186604 0.0822355 0)
(0.191222 0.0688252 0)
(0.202644 0.055948 0)
(0.201767 0.0436935 0)
(0.21148 0.0316211 0)
(0.20387 0.0196809 0)
(0.211339 0.0079379 0)
(0.195017 -0.00378399 0)
(0.200451 -0.0147936 0)
(0.17334 -0.0259677 0)
(0.178587 -0.0357735 0)
(0.137269 -0.0464358 0)
(0.146897 -0.0547586 0)
(0.0840334 -0.066148 0)
(0.109733 -0.0750636 0)
(0.0140682 -0.0985302 0)
(0.0774044 -0.145367 0)
(-0.057697 -0.296395 0)
(0.0462249 -0.514685 0)
(-0.00562078 0.0158606 0)
(-0.0160941 0.0328077 0)
(-0.00928629 0.0599061 0)
(0.00274673 0.080063 0)
(0.0277066 0.0972954 0)
(0.0541182 0.106397 0)
(0.08319 0.11027 0)
(0.112468 0.108096 0)
(0.136341 0.101776 0)
(0.161337 0.0922702 0)
(0.17628 0.0816223 0)
(0.195951 0.0703383 0)
(0.202247 0.0595363 0)
(0.218153 0.048971 0)
(0.216624 0.0390533 0)
(0.229927 0.0293993 0)
(0.2201 0.020102 0)
(0.231241 0.0111869 0)
(0.211738 0.00237536 0)
(0.221428 -0.00555668 0)
(0.190158 -0.0137473 0)
(0.200412 -0.020153 0)
(0.153969 -0.0278775 0)
(0.169691 -0.0324776 0)
(0.101171 -0.0421234 0)
(0.13453 -0.047704 0)
(0.0322904 -0.0747904 0)
(0.104462 -0.114915 0)
(-0.0431801 -0.262974 0)
(0.0732229 -0.502308 0)
(-0.0308634 0.040938 0)
(-0.0411998 0.0345644 0)
(-0.034243 0.0549768 0)
(-0.0182178 0.06076 0)
(0.0084127 0.0748065 0)
(0.038312 0.0780529 0)
(0.069257 0.0816189 0)
(0.104267 0.0797425 0)
(0.130606 0.0763982 0)
(0.16249 0.0696787 0)
(0.179624 0.0631638 0)
(0.206474 0.0547766 0)
(0.21286 0.0477841 0)
(0.235703 0.0396385 0)
(0.23154 0.0332559 0)
(0.251886 0.0258338 0)
(0.236966 0.0201874 0)
(0.256114 0.0135951 0)
(0.229495 0.0086933 0)
(0.249162 0.00317666 0)
(0.209251 -0.000960536 0)
(0.232467 -0.00496341 0)
(0.176333 -0.00894586 0)
(0.208664 -0.0113263 0)
(0.130391 -0.0184123 0)
(0.182062 -0.0229443 0)
(0.0712786 -0.0511001 0)
(0.156064 -0.0985193 0)
(0.00443398 -0.245397 0)
(0.116723 -0.504424 0)
(0.0169005 0.0819829 0)
(-0.049944 0.0286035 0)
(-0.0211601 0.0412581 0)
(-0.0309536 0.0360584 0)
(-9.96299e-05 0.0409126 0)
(0.0228907 0.0416569 0)
(0.0566742 0.0458333 0)
(0.0925899 0.0447844 0)
(0.118678 0.0454349 0)
(0.158574 0.0419567 0)
(0.172501 0.0400618 0)
(0.212531 0.0354274 0)
(0.212491 0.0324808 0)
(0.252752 0.0278148 0)
(0.238624 0.0246533 0)
(0.280622 0.0205183 0)
(0.252193 0.0173956 0)
(0.298025 0.0140976 0)
(0.254411 0.0110366 0)
(0.3069 0.00889172 0)
(0.246425 0.0057218 0)
(0.309531 0.00494122 0)
(0.229403 0.00106462 0)
(0.308688 0.00132632 0)
(0.204077 -0.00480953 0)
(0.304551 -0.00745199 0)
(0.162445 -0.0279081 0)
(0.280075 -0.0816723 0)
(0.0725804 -0.221165 0)
(0.17842 -0.456065 0)
(0.07455 0.0632534 0)
(0.100073 0.0499968 0)
(0.150809 0.0356792 0)
(0.200372 0.0296102 0)
(0.213844 0.0232258 0)
(0.267222 0.019871 0)
(0.271351 0.0172485 0)
(0.332106 0.0159616 0)
(0.327195 0.0147792 0)
(0.394426 0.0139914 0)
(0.37893 0.0130833 0)
(0.450996 0.0122081 0)
(0.422673 0.0114112 0)
(0.499391 0.0103211 0)
(0.456812 0.00973766 0)
(0.53938 0.00840433 0)
(0.481315 0.00819467 0)
(0.571769 0.00653079 0)
(0.496822 0.00687545 0)
(0.597831 0.00470403 0)
(0.504281 0.00583425 0)
(0.619082 0.00284157 0)
(0.504744 0.00509196 0)
(0.637069 0.000679343 0)
(0.49867 0.0044871 0)
(0.649979 -0.00268578 0)
(0.471393 0.0016327 0)
(0.614589 -0.0189474 0)
(0.305032 -0.0337047 0)
(0.392882 -0.0965394 0)
)
;

boundaryField
{
    movingWall
    {
        type            fixedValue;
        value           uniform (1 0 0);
    }
    fixedWalls
    {
        type            noSlip;
    }
    frontAndBack
    {
        type            empty;
    }
}


// ************************************************************************* //
