/*--------------------------------*- C++ -*----------------------------------*\
| =========                 |                                                 |
| \\      /  F ield         | OpenFOAM: The Open Source CFD Toolbox           |
|  \\    /   O peration     | Version:  2406                                  |
|   \\  /    A nd           | Website:  www.openfoam.com                      |
|    \\/     M anipulation  |                                                 |
\*---------------------------------------------------------------------------*/
FoamFile
{
    version     2.0;
    format      ascii;
    arch        "LSB;label=32;scalar=64";
    class       volVectorField;
    location    "11.5";
    object      U;
}
// * * * * * * * * * * * * * * * * * * * * * * * * * * * * * * * * * * * * * //

dimensions      [0 1 -1 0 0 0 0];

internalField   nonuniform List<vector> 
4096
(
(2.54034e-05 -2.53169e-05 0)
(4.68428e-05 -1.57981e-05 0)
(-5.86483e-06 -1.69158e-06 0)
(-0.000125257 8.81805e-06 0)
(-0.000289754 1.43435e-05 0)
(-0.000480184 1.6266e-05 0)
(-0.000683432 1.64825e-05 0)
(-0.000892604 1.63178e-05 0)
(-0.00110552 1.64894e-05 0)
(-0.00132275 1.73005e-05 0)
(-0.00154615 1.88102e-05 0)
(-0.00177794 2.09588e-05 0)
(-0.00202014 2.36426e-05 0)
(-0.00227439 2.67502e-05 0)
(-0.00254178 3.01749e-05 0)
(-0.0028228 3.38159e-05 0)
(-0.00311736 3.75745e-05 0)
(-0.00342469 4.13491e-05 0)
(-0.00374334 4.50319e-05 0)
(-0.00407117 4.85054e-05 0)
(-0.00440526 5.16408e-05 0)
(-0.00474198 5.42969e-05 0)
(-0.00507692 5.63194e-05 0)
(-0.00540495 5.75421e-05 0)
(-0.00572025 5.77888e-05 0)
(-0.00601636 5.68778e-05 0)
(-0.00628629 5.46302e-05 0)
(-0.00652261 5.08836e-05 0)
(-0.00671766 4.55107e-05 0)
(-0.00686376 3.84331e-05 0)
(-0.00695343 2.95823e-05 0)
(-0.00697954 1.87634e-05 0)
(-0.00693587 6.12693e-06 0)
(-0.00681788 -7.86899e-06 0)
(-0.00662264 -2.27794e-05 0)
(-0.00634945 -3.81165e-05 0)
(-0.00600019 -5.3274e-05 0)
(-0.0055796 -6.75625e-05 0)
(-0.00509533 -8.02647e-05 0)
(-0.00455782 -9.06968e-05 0)
(-0.00397999 -9.82723e-05 0)
(-0.00337669 -0.000102561 0)
(-0.00276396 -0.000103337 0)
(-0.00215813 -0.000100609 0)
(-0.00157498 -9.46284e-05 0)
(-0.0010288 -8.58417e-05 0)
(-0.000531597 -7.48414e-05 0)
(-9.23041e-05 -6.25453e-05 0)
(0.000281883 -4.99875e-05 0)
(0.000587675 -3.67844e-05 0)
(0.00082553 -2.41935e-05 0)
(0.000997077 -1.26542e-05 0)
(0.001106 -2.35095e-06 0)
(0.00115715 6.61742e-06 0)
(0.00115592 1.42625e-05 0)
(0.00110792 2.06753e-05 0)
(0.00101866 2.60369e-05 0)
(0.000893763 3.04285e-05 0)
(0.000739553 3.37423e-05 0)
(0.000564373 3.54861e-05 0)
(0.000380494 3.44738e-05 0)
(0.000206298 2.85258e-05 0)
(6.65874e-05 1.56309e-05 0)
(-1.43823e-06 -1.4198e-06 0)
(1.5474e-05 -4.76466e-05 0)
(-6.03727e-05 4.9946e-05 0)
(-0.000308783 0.000182459 0)
(-0.000703793 0.000289016 0)
(-0.00120348 0.00035751 0)
(-0.0017683 0.000395206 0)
(-0.00236982 0.000414019 0)
(-0.00299162 0.000424154 0)
(-0.0036266 0.000432453 0)
(-0.00427362 0.000442692 0)
(-0.00493459 0.000456447 0)
(-0.00561256 0.000473951 0)
(-0.0063105 0.000494702 0)
(-0.00703062 0.000517832 0)
(-0.00777396 0.0005423 0)
(-0.00854025 0.000566964 0)
(-0.00932773 0.000590606 0)
(-0.010133 0.000611942 0)
(-0.0109512 0.000629625 0)
(-0.0117754 0.000642259 0)
(-0.0125974 0.000648422 0)
(-0.0134072 0.000646692 0)
(-0.0141933 0.000635682 0)
(-0.0149428 0.000614077 0)
(-0.0156418 0.000580673 0)
(-0.0162755 0.000534428 0)
(-0.0168285 0.000474516 0)
(-0.0172851 0.000400401 0)
(-0.01763 0.000311905 0)
(-0.0178487 0.000209274 0)
(-0.0179276 9.33386e-05 0)
(-0.0178547 -3.41593e-05 0)
(-0.0176196 -0.000171149 0)
(-0.0172162 -0.00031478 0)
(-0.0166425 -0.000461265 0)
(-0.0159006 -0.000606113 0)
(-0.0149975 -0.000744308 0)
(-0.0139458 -0.000870562 0)
(-0.0127634 -0.000979642 0)
(-0.0114733 -0.00106674 0)
(-0.010103 -0.00112786 0)
(-0.00868348 -0.00116017 0)
(-0.00724758 -0.00116229 0)
(-0.00582888 -0.00113445 0)
(-0.00445978 -0.00107854 0)
(-0.00317 -0.000997901 0)
(-0.00198509 -0.000897096 0)
(-0.000925159 -0.000781636 0)
(-5.11906e-06 -0.000657623 0)
(0.000765776 -0.000528925 0)
(0.00138499 -0.000401293 0)
(0.00185492 -0.000278714 0)
(0.0021812 -0.000163828 0)
(0.00237222 -5.83069e-05 0)
(0.00243801 3.70671e-05 0)
(0.00238972 0.000122208 0)
(0.00223909 0.000196825 0)
(0.0019987 0.000260008 0)
(0.00168358 0.000309162 0)
(0.00131347 0.00033887 0)
(0.000915928 0.000339916 0)
(0.000529656 0.000299435 0)
(0.000206905 0.000205571 0)
(1.56285e-05 6.65494e-05 0)
(-3.21877e-06 1.67067e-05 0)
(-0.00023829 0.000310977 0)
(-0.000733291 0.000637779 0)
(-0.00143023 0.000896119 0)
(-0.00226871 0.00106781 0)
(-0.00319769 0.00116907 0)
(-0.00418069 0.00122498 0)
(-0.00519571 0.00125771 0)
(-0.00623201 0.00128283 0)
(-0.00728622 0.00130937 0)
(-0.00835889 0.00134148 0)
(-0.00945209 0.0013801 0)
(-0.0105678 0.00142429 0)
(-0.0117071 0.00147209 0)
(-0.0128695 0.00152094 0)
(-0.0140524 0.00156797 0)
(-0.0152513 0.00161006 0)
(-0.0164595 0.00164392 0)
(-0.0176679 0.00166614 0)
(-0.0188652 0.00167331 0)
(-0.0200379 0.00166206 0)
(-0.0211709 0.00162918 0)
(-0.0222474 0.00157174 0)
(-0.0232493 0.00148716 0)
(-0.0241579 0.0013733 0)
(-0.024954 0.0012286 0)
(-0.0256187 0.00105208 0)
(-0.0261335 0.000843531 0)
(-0.0264808 0.000603579 0)
(-0.0266446 0.000333767 0)
(-0.0266104 3.68753e-05 0)
(-0.0263663 -0.000281983 0)
(-0.0259038 -0.000617854 0)
(-0.0252184 -0.000963888 0)
(-0.0243099 -0.00131147 0)
(-0.0231835 -0.00165062 0)
(-0.0218506 -0.00197046 0)
(-0.0203285 -0.00225965 0)
(-0.0186412 -0.00250712 0)
(-0.0168185 -0.00270275 0)
(-0.0148955 -0.00283819 0)
(-0.0129116 -0.00290752 0)
(-0.0109087 -0.00290789 0)
(-0.00892979 -0.00283982 0)
(-0.00701653 -0.0027073 0)
(-0.00520759 -0.00251752 0)
(-0.00353672 -0.00228029 0)
(-0.00203126 -0.0020073 0)
(-0.000711147 -0.0017112 0)
(0.000410248 -0.00140358 0)
(0.00132731 -0.00109486 0)
(0.00204188 -0.000794997 0)
(0.00256016 -0.000510482 0)
(0.00289185 -0.000245643 0)
(0.00304931 -2.94453e-06 0)
(0.00304627 0.00021638 0)
(0.00289769 0.000410758 0)
(0.00262047 0.000576982 0)
(0.00223489 0.00070809 0)
(0.00176748 0.0007913 0)
(0.00125441 0.00080667 0)
(0.000745253 0.000728071 0)
(0.000307857 0.000530104 0)
(2.88924e-05 0.000207776 0)
(-2.366e-05 0.000185092 0)
(-0.000433177 0.00079272 0)
(-0.00118901 0.00137824 0)
(-0.00219376 0.00182729 0)
(-0.00336481 0.00212723 0)
(-0.00464144 0.00230883 0)
(-0.00598225 0.00241336 0)
(-0.00736226 0.00247675 0)
(-0.00876858 0.00252432 0)
(-0.010196 0.00257099 0)
(-0.0116435 0.00262373 0)
(-0.0131111 0.00268423 0)
(-0.014599 0.00275094 0)
(-0.016106 0.00282044 0)
(-0.0176287 0.00288826 0)
(-0.0191617 0.00294924 0)
(-0.020697 0.00299784 0)
(-0.0222239 0.00302827 0)
(-0.0237292 0.00303468 0)
(-0.0251974 0.00301137 0)
(-0.026611 0.00295298 0)
(-0.027951 0.00285469 0)
(-0.0291974 0.00271239 0)
(-0.0303299 0.00252283 0)
(-0.0313283 0.00228372 0)
(-0.0321729 0.00199377 0)
(-0.0328452 0.00165276 0)
(-0.0333277 0.00126164 0)
(-0.0336049 0.000822634 0)
(-0.0336627 0.000339269 0)
(-0.0334882 -0.000183604 0)
(-0.0330716 -0.000738301 0)
(-0.0324066 -0.00131589 0)
(-0.0314893 -0.00190481 0)
(-0.0303208 -0.00249135 0)
(-0.0289071 -0.00305981 0)
(-0.0272604 -0.00359303 0)
(-0.0253992 -0.00407315 0)
(-0.0233492 -0.00448258 0)
(-0.0211428 -0.00480517 0)
(-0.018819 -0.00502742 0)
(-0.0164217 -0.00513962 0)
(-0.013999 -0.00513683 0)
(-0.0116007 -0.00501952 0)
(-0.0092759 -0.00479379 0)
(-0.00707093 -0.00447102 0)
(-0.00502671 -0.00406704 0)
(-0.00317691 -0.0036008 0)
(-0.0015465 -0.00309287 0)
(-0.000151365 -0.00256363 0)
(0.00100056 -0.00203029 0)
(0.00191032 -0.0015093 0)
(0.0025859 -0.00101216 0)
(0.00303866 -0.000546556 0)
(0.00328304 -0.000117123 0)
(0.00333526 0.000273188 0)
(0.00321288 0.000621257 0)
(0.00293547 0.000920954 0)
(0.00252639 0.00115999 0)
(0.00201581 0.00131695 0)
(0.00144448 0.00135954 0)
(0.000868146 0.00124598 0)
(0.000364842 0.000932425 0)
(3.57098e-05 0.000389094 0)
(-4.31177e-05 0.000456666 0)
(-0.000622942 0.00149672 0)
(-0.00163359 0.00240242 0)
(-0.00293564 0.00307307 0)
(-0.00442225 0.00351723 0)
(-0.00602299 0.00378831 0)
(-0.00769262 0.00394743 0)
(-0.00940441 0.00404562 0)
(-0.0111443 0.00411822 0)
(-0.0129057 0.00418591 0)
(-0.0146858 0.00425826 0)
(-0.0164826 0.00433741 0)
(-0.0182937 0.00442088 0)
(-0.0201149 0.00450347 0)
(-0.0219397 0.00457839 0)
(-0.0237592 0.0046379 0)
(-0.0255616 0.00467374 0)
(-0.0273324 0.00467747 0)
(-0.0290547 0.00464084 0)
(-0.0307097 0.00455613 0)
(-0.0322773 0.00441651 0)
(-0.0337368 0.00421632 0)
(-0.0350676 0.00395127 0)
(-0.0362501 0.00361856 0)
(-0.0372662 0.00321682 0)
(-0.0380994 0.00274608 0)
(-0.0387348 0.00220763 0)
(-0.0391595 0.00160403 0)
(-0.0393618 0.000939191 0)
(-0.0393314 0.000218521 0)
(-0.039058 -0.000551548 0)
(-0.0385321 -0.00136148 0)
(-0.0377472 -0.00219909 0)
(-0.0366978 -0.00304942 0)
(-0.0353816 -0.00389429 0)
(-0.0338007 -0.00471261 0)
(-0.0319631 -0.00548091 0)
(-0.0298836 -0.00617433 0)
(-0.0275849 -0.00676794 0)
(-0.0250984 -0.00723832 0)
(-0.0224637 -0.00756534 0)
(-0.0197284 -0.00773386 0)
(-0.0169464 -0.00773537 0)
(-0.0141756 -0.00756909 0)
(-0.0114751 -0.00724252 0)
(-0.00890176 -0.00677123 0)
(-0.00650705 -0.00617772 0)
(-0.00433387 -0.00548956 0)
(-0.00241439 -0.004737 0)
(-0.00076851 -0.00395039 0)
(0.000593861 -0.00315721 0)
(0.0016741 -0.00238014 0)
(0.00248332 -0.00163763 0)
(0.0030368 -0.000941222 0)
(0.00335323 -0.000297875 0)
(0.003453 0.000288068 0)
(0.00335739 0.000811931 0)
(0.00308901 0.00126476 0)
(0.00267374 0.00162887 0)
(0.00214412 0.00187381 0)
(0.00154352 0.00195399 0)
(0.000931474 0.00181006 0)
(0.000392764 0.00137589 0)
(3.83159e-05 0.000591297 0)
(-6.09328e-05 0.000825795 0)
(-0.000799401 0.00241153 0)
(-0.00204819 0.00369556 0)
(-0.00362705 0.00461456 0)
(-0.0054048 0.00521409 0)
(-0.00730132 0.0055791 0)
(-0.0092678 0.00579471 0)
(-0.0112763 0.00592843 0)
(-0.0133119 0.00602572 0)
(-0.0153669 0.00611261 0)
(-0.0174368 0.00620075 0)
(-0.0195172 0.00629222 0)
(-0.0216032 0.00638321 0)
(-0.0236872 0.00646642 0)
(-0.0257596 0.00653247 0)
(-0.0278077 0.00657085 0)
(-0.0298164 0.00657058 0)
(-0.0317678 0.00652079 0)
(-0.0336423 0.00641128 0)
(-0.0354194 0.00623311 0)
(-0.0370781 0.00597906 0)
(-0.0385989 0.00564396 0)
(-0.0399637 0.00522482 0)
(-0.0411573 0.00472072 0)
(-0.0421672 0.00413249 0)
(-0.0429838 0.0034623 0)
(-0.0435995 0.00271331 0)
(-0.0440076 0.0018894 0)
(-0.0442019 0.000995334 0)
(-0.044176 3.6961e-05 0)
(-0.0439203 -0.000980075 0)
(-0.0434228 -0.00204536 0)
(-0.042672 -0.00314625 0)
(-0.0416548 -0.00426632 0)
(-0.0403588 -0.00538425 0)
(-0.0387748 -0.00647428 0)
(-0.036899 -0.00750661 0)
(-0.0347353 -0.00844849 0)
(-0.0322975 -0.00926585 0)
(-0.0296109 -0.00992549 0)
(-0.0267133 -0.0103975 0)
(-0.023655 -0.010658 0)
(-0.0204974 -0.0106914 0)
(-0.0173106 -0.0104931 0)
(-0.0141694 -0.0100699 0)
(-0.0111491 -0.00944106 0)
(-0.00831956 -0.00863639 0)
(-0.00574097 -0.00769417 0)
(-0.00345937 -0.00665743 0)
(-0.00150418 -0.00556999 0)
(0.000111527 -0.00447274 0)
(0.0013894 -0.0033981 0)
(0.00234468 -0.00237325 0)
(0.00300082 -0.00141462 0)
(0.00338466 -0.000531636 0)
(0.00352465 0.000270501 0)
(0.00344903 0.000986561 0)
(0.00318588 0.00160571 0)
(0.00276497 0.00210566 0)
(0.00222163 0.00244722 0)
(0.00160149 0.00257117 0)
(0.000966873 0.0023992 0)
(0.000407058 0.00184061 0)
(3.92059e-05 0.00080312 0)
(-7.71537e-05 0.00128446 0)
(-0.00095993 0.00351995 0)
(-0.00242543 0.00523561 0)
(-0.00425562 0.00642641 0)
(-0.00629637 0.00718953 0)
(-0.0084582 0.00765005 0)
(-0.0106889 0.00792135 0)
(-0.0129593 0.00808884 0)
(-0.0152538 0.00820815 0)
(-0.0175637 0.00831017 0)
(-0.0198828 0.00840799 0)
(-0.0222045 0.00850315 0)
(-0.0245209 0.00859009 0)
(-0.0268218 0.00865906 0)
(-0.0290941 0.00869799 0)
(-0.0313221 0.00869363 0)
(-0.0334876 0.00863259 0)
(-0.0355706 0.00850213 0)
(-0.0375504 0.00829108 0)
(-0.0394065 0.0079906 0)
(-0.0411202 0.00759475 0)
(-0.0426761 0.00710076 0)
(-0.0440629 0.00650885 0)
(-0.045274 0.00582172 0)
(-0.0463074 0.00504362 0)
(-0.0471644 0.00417936 0)
(-0.0478477 0.00323341 0)
(-0.0483594 0.00220949 0)
(-0.0486988 0.00111044 0)
(-0.0488625 -6.1137e-05 0)
(-0.0488375 -0.00129911 0)
(-0.0486029 -0.00260125 0)
(-0.0481359 -0.00395683 0)
(-0.047406 -0.00535117 0)
(-0.0463807 -0.00676156 0)
(-0.0450289 -0.00815871 0)
(-0.0433245 -0.00950628 0)
(-0.0412505 -0.0107618 0)
(-0.0388034 -0.0118791 0)
(-0.0359959 -0.0128106 0)
(-0.0328596 -0.0135111 0)
(-0.0294462 -0.0139418 0)
(-0.0258266 -0.0140741 0)
(-0.0220883 -0.0138935 0)
(-0.018331 -0.0134022 0)
(-0.0146597 -0.0126205 0)
(-0.0111767 -0.0115858 0)
(-0.00797389 -0.0103499 0)
(-0.0051247 -0.00897336 0)
(-0.00267895 -0.00751995 0)
(-0.000660296 -0.00604979 0)
(0.000930224 -0.00461319 0)
(0.00211328 -0.00324825 0)
(0.00292466 -0.00197975 0)
(0.00340538 -0.000820314 0)
(0.00359861 0.000224823 0)
(0.00354571 0.00115167 0)
(0.00328522 0.00194959 0)
(0.00285457 0.00259355 0)
(0.0022942 0.00303701 0)
(0.00165327 0.00320749 0)
(0.00099711 0.00300721 0)
(0.000418725 0.00231975 0)
(3.98938e-05 0.00102063 0)
(-9.18684e-05 0.00182404 0)
(-0.00110403 0.00480283 0)
(-0.00276332 0.00699772 0)
(-0.00481779 0.00848066 0)
(-0.00709241 0.00941357 0)
(-0.0094891 0.00996957 0)
(-0.0119524 0.0102941 0)
(-0.0144519 0.010492 0)
(-0.0169714 0.0106291 0)
(-0.019501 0.0107406 0)
(-0.022033 0.0108406 0)
(-0.0245587 0.0109294 0)
(-0.0270677 0.0109995 0)
(-0.029547 0.0110385 0)
(-0.0319808 0.0110316 0)
(-0.0343511 0.0109631 0)
(-0.0366378 0.0108179 0)
(-0.0388201 0.0105824 0)
(-0.0408781 0.010246 0)
(-0.0427944 0.00980197 0)
(-0.0445561 0.009248 0)
(-0.0461568 0.00858638 0)
(-0.0475973 0.00782309 0)
(-0.0488857 0.00696642 0)
(-0.0500362 0.00602506 0)
(-0.0510663 0.00500615 0)
(-0.0519929 0.0039137 0)
(-0.0528283 0.00274782 0)
(-0.0535767 0.00150501 0)
(-0.0542288 0.000180489 0)
(-0.0547664 -0.00122836 0)
(-0.0551544 -0.00272977 0)
(-0.0553418 -0.00432125 0)
(-0.0552692 -0.00599681 0)
(-0.0548697 -0.00773309 0)
(-0.0540772 -0.00949897 0)
(-0.0528297 -0.011251 0)
(-0.0510777 -0.0129342 0)
(-0.0487896 -0.0144851 0)
(-0.0459575 -0.0158351 0)
(-0.042601 -0.0169156 0)
(-0.0387702 -0.0176633 0)
(-0.0345461 -0.0180263 0)
(-0.0300382 -0.0179708 0)
(-0.0253797 -0.0174859 0)
(-0.0207193 -0.0165873 0)
(-0.0162099 -0.0153178 0)
(-0.0119961 -0.0137445 0)
(-0.00820099 -0.0119521 0)
(-0.00491516 -0.010034 0)
(-0.00218985 -0.00808128 0)
(-3.7066e-05 -0.00617327 0)
(0.00156679 -0.00436864 0)
(0.00267188 -0.00270636 0)
(0.00334201 -0.00120496 0)
(0.003645 0.000130766 0)
(0.00364527 0.00130044 0)
(0.00340063 0.00229719 0)
(0.00296315 0.00309679 0)
(0.00238338 0.00364805 0)
(0.00171723 0.00386696 0)
(0.00103487 0.00363673 0)
(0.00043392 0.00281487 0)
(4.11307e-05 0.00124459 0)
(-0.000105123 0.00243598 0)
(-0.00123202 0.00624084 0)
(-0.00306243 0.00895669 0)
(-0.00531452 0.0107493 0)
(-0.00779472 0.0118568 0)
(-0.0103973 0.0125074 0)
(-0.0130638 0.012882 0)
(-0.0157626 0.0131062 0)
(-0.0184768 0.013256 0)
(-0.0211956 0.0133706 0)
(-0.0239097 0.0134645 0)
(-0.0266086 0.0135368 0)
(-0.0292798 0.0135773 0)
(-0.0319081 0.0135711 0)
(-0.0344759 0.013501 0)
(-0.0369636 0.0133496 0)
(-0.0393506 0.0131007 0)
(-0.0416176 0.0127417 0)
(-0.0437483 0.0122649 0)
(-0.0457323 0.0116685 0)
(-0.0475681 0.0109576 0)
(-0.0492648 0.010143 0)
(-0.0508432 0.00923984 0)
(-0.0523341 0.00826407 0)
(-0.0537755 0.00722927 0)
(-0.0552066 0.00614309 0)
(-0.0566615 0.00500496 0)
(-0.0581623 0.00380522 0)
(-0.0597121 0.00252628 0)
(-0.0612922 0.00114589 0)
(-0.0628646 -0.000359589 0)
(-0.0643641 -0.00200421 0)
(-0.0657021 -0.00380316 0)
(-0.0667705 -0.00578011 0)
(-0.0674498 -0.0079012 0)
(-0.0676259 -0.0101384 0)
(-0.0671878 -0.0124391 0)
(-0.0660413 -0.0147303 0)
(-0.0641184 -0.0169248 0)
(-0.0613828 -0.0189241 0)
(-0.0578362 -0.0206254 0)
(-0.0535222 -0.0219285 0)
(-0.0485287 -0.0227452 0)
(-0.0429871 -0.023008 0)
(-0.0370683 -0.0226796 0)
(-0.0309747 -0.0217594 0)
(-0.0249269 -0.0202881 0)
(-0.0191465 -0.0183464 0)
(-0.013836 -0.0160483 0)
(-0.00915901 -0.013529 0)
(-0.00522377 -0.010928 0)
(-0.00207593 -0.0083719 0)
(0.000299151 -0.00595967 0)
(0.00196485 -0.00375652 0)
(0.00301504 -0.00179423 0)
(0.00355519 -7.88249e-05 0)
(0.0036876 0.00139564 0)
(0.00350335 0.0026313 0)
(0.0030807 0.00361038 0)
(0.00248908 0.00428212 0)
(0.00179722 0.00455454 0)
(0.00108419 0.00429369 0)
(0.000454901 0.00333134 0)
(4.31904e-05 0.00147796 0)
(-0.000116942 0.00311201 0)
(-0.00134455 0.00781534 0)
(-0.0033245 0.0110883 0)
(-0.00574899 0.0132055 0)
(-0.00840836 0.0144915 0)
(-0.0111902 0.0152355 0)
(-0.0140334 0.0156571 0)
(-0.0169054 0.0159033 0)
(-0.0197884 0.0160606 0)
(-0.0226708 0.0161722 0)
(-0.0255421 0.0162524 0)
(-0.0283904 0.0162985 0)
(-0.0312016 0.016298 0)
(-0.0339591 0.0162337 0)
(-0.0366442 0.0160862 0)
(-0.0392372 0.0158372 0)
(-0.0417191 0.0154716 0)
(-0.0440746 0.01498 0)
(-0.0462955 0.0143611 0)
(-0.0483844 0.0136228 0)
(-0.0503588 0.0127823 0)
(-0.0522531 0.0118643 0)
(-0.0541183 0.0108967 0)
(-0.0560184 0.00990507 0)
(-0.0580229 0.00890652 0)
(-0.0601976 0.00790454 0)
(-0.0625935 0.00688596 0)
(-0.0652373 0.00582086 0)
(-0.0681225 0.00466514 0)
(-0.071204 0.00336502 0)
(-0.0743972 0.00186532 0)
(-0.0775897 0.000121372 0)
(-0.0806597 -0.00190293 0)
(-0.0834181 -0.00420111 0)
(-0.0856648 -0.00680086 0)
(-0.0872411 -0.00966864 0)
(-0.0879749 -0.0127305 0)
(-0.087724 -0.015887 0)
(-0.0863822 -0.0190184 0)
(-0.0838826 -0.0219868 0)
(-0.0802043 -0.0246443 0)
(-0.0753781 -0.0268415 0)
(-0.0694899 -0.0284391 0)
(-0.0626837 -0.0293199 0)
(-0.0551605 -0.0294015 0)
(-0.0471739 -0.0286491 0)
(-0.039018 -0.0270847 0)
(-0.0310093 -0.0247918 0)
(-0.0234602 -0.0219119 0)
(-0.0166479 -0.0186313 0)
(-0.0107836 -0.0151583 0)
(-0.00598961 -0.0116954 0)
(-0.00229071 -0.00841185 0)
(0.000375332 -0.00542538 0)
(0.00213366 -0.0027978 0)
(0.00314092 -0.000543648 0)
(0.0035569 0.00135061 0)
(0.00352614 0.00290269 0)
(0.00317088 0.00410989 0)
(0.00259357 0.0049302 0)
(0.0018859 0.0052701 0)
(0.00114276 0.00498241 0)
(0.000481296 0.00387467 0)
(4.60916e-05 0.00172411 0)
(-0.000127341 0.00384418 0)
(-0.0014424 0.00950872 0)
(-0.00355175 0.0133699 0)
(-0.0061254 0.0158245 0)
(-0.00893983 0.0172925 0)
(-0.0118771 0.018129 0)
(-0.0148738 0.0185947 0)
(-0.0178964 0.0188593 0)
(-0.0209266 0.0190199 0)
(-0.0239522 0.0191231 0)
(-0.0269617 0.0191831 0)
(-0.0299425 0.0191954 0)
(-0.0328795 0.0191452 0)
(-0.0357555 0.0190131 0)
(-0.038552 0.0187787 0)
(-0.0412508 0.0184243 0)
(-0.0438375 0.0179385 0)
(-0.0463049 0.0173189 0)
(-0.0486589 0.0165761 0)
(-0.0509241 0.0157342 0)
(-0.053148 0.0148298 0)
(-0.0554031 0.0139077 0)
(-0.0577834 0.0130125 0)
(-0.0603963 0.0121792 0)
(-0.0633488 0.0114233 0)
(-0.0667326 0.0107342 0)
(-0.0706078 0.0100721 0)
(-0.074991 0.00937059 0)
(-0.0798459 0.00854205 0)
(-0.0850797 0.00748692 0)
(-0.0905451 0.00610334 0)
(-0.0960501 0.00429993 0)
(-0.101352 0.00201487 0)
(-0.106239 -0.000751571 0)
(-0.110485 -0.00401189 0)
(-0.113806 -0.00772645 0)
(-0.115985 -0.0118308 0)
(-0.116849 -0.0161767 0)
(-0.116268 -0.0206029 0)
(-0.114148 -0.0249255 0)
(-0.110446 -0.0289441 0)
(-0.105172 -0.0324527 0)
(-0.098392 -0.0352499 0)
(-0.0902424 -0.0371542 0)
(-0.0809284 -0.0380187 0)
(-0.0707308 -0.0377497 0)
(-0.06 -0.0363237 0)
(-0.049144 -0.0338015 0)
(-0.0386008 -0.0303342 0)
(-0.0287996 -0.0261552 0)
(-0.0201119 -0.021557 0)
(-0.0128032 -0.016851 0)
(-0.00699958 -0.0123208 0)
(-0.00268148 -0.0081825 0)
(0.000291162 -0.00456298 0)
(0.00213294 -0.00150506 0)
(0.00308304 0.00100779 0)
(0.00336653 0.0030149 0)
(0.00317518 0.00454089 0)
(0.00266557 0.00556514 0)
(0.00196807 0.00600322 0)
(0.00120432 0.00570189 0)
(0.000511308 0.00444801 0)
(4.97702e-05 0.00198573 0)
(-0.000136344 0.00462495 0)
(-0.0015264 0.0113046 0)
(-0.00374656 0.0157807 0)
(-0.00644813 0.018584 0)
(-0.00939598 0.0202372 0)
(-0.0124675 0.0211658 0)
(-0.0155975 0.0216738 0)
(-0.0187519 0.0219542 0)
(-0.021912 0.0221151 0)
(-0.0250651 0.0222062 0)
(-0.0281996 0.0222418 0)
(-0.0313023 0.0222155 0)
(-0.0343581 0.0221105 0)
(-0.0373503 0.0219059 0)
(-0.0402622 0.0215816 0)
(-0.0430798 0.0211232 0)
(-0.0457966 0.0205268 0)
(-0.0484201 0.0198033 0)
(-0.0509794 0.0189832 0)
(-0.0535328 0.018116 0)
(-0.0561729 0.0172671 0)
(-0.0590251 0.0165079 0)
(-0.062239 0.0159015 0)
(-0.0659717 0.015487 0)
(-0.070366 0.0152663 0)
(-0.0755277 0.0151962 0)
(-0.0815055 0.0151887 0)
(-0.0882769 0.015117 0)
(-0.0957424 0.0148282 0)
(-0.103726 0.0141588 0)
(-0.111988 0.0129519 0)
(-0.120236 0.011074 0)
(-0.128146 0.00843409 0)
(-0.135402 0.00498127 0)
(-0.141734 0.000768627 0)
(-0.146888 -0.00412861 0)
(-0.1506 -0.00959128 0)
(-0.152653 -0.0154745 0)
(-0.152933 -0.0215631 0)
(-0.151333 -0.0276296 0)
(-0.14779 -0.0334226 0)
(-0.142282 -0.0386817 0)
(-0.134838 -0.0431421 0)
(-0.125548 -0.0465508 0)
(-0.114581 -0.0486806 0)
(-0.102194 -0.0493535 0)
(-0.0887449 -0.0484648 0)
(-0.0746939 -0.04601 0)
(-0.0605855 -0.0421075 0)
(-0.0470135 -0.0370069 0)
(-0.0345599 -0.0310765 0)
(-0.0237169 -0.0247602 0)
(-0.0148105 -0.0185095 0)
(-0.00795231 -0.0127076 0)
(-0.00304229 -0.00761188 0)
(0.000177348 -0.00333798 0)
(0.00204167 0.00011434 0)
(0.00288918 0.00280749 0)
(0.0030164 0.00480793 0)
(0.00266393 0.00613465 0)
(0.00202386 0.00672878 0)
(0.00126081 0.00644313 0)
(0.000542778 0.00505069 0)
(5.42182e-05 0.00226448 0)
(-0.000143976 0.00544718 0)
(-0.00159731 0.0131877 0)
(-0.00391115 0.0183016 0)
(-0.00672138 0.0214635 0)
(-0.00978326 0.0233055 0)
(-0.0129706 0.0243268 0)
(-0.0162167 0.0248765 0)
(-0.0194872 0.0251719 0)
(-0.0227634 0.0253318 0)
(-0.0260327 0.0254097 0)
(-0.0292835 0.0254195 0)
(-0.0325031 0.0253534 0)
(-0.0356773 0.025193 0)
(-0.038791 0.0249173 0)
(-0.0418315 0.0245087 0)
(-0.0447925 0.02396 0)
(-0.0476812 0.0232808 0)
(-0.0505283 0.0225048 0)
(-0.0533986 0.0216934 0)
(-0.0564 0.020934 0)
(-0.0596865 0.0203308 0)
(-0.0634507 0.019986 0)
(-0.0679048 0.0199766 0)
(-0.073252 0.0203314 0)
(-0.079654 0.0210151 0)
(-0.0872016 0.0219229 0)
(-0.0958928 0.0228868 0)
(-0.105621 0.0236906 0)
(-0.116178 0.0240923 0)
(-0.127267 0.0238501 0)
(-0.138528 0.0227495 0)
(-0.149572 0.0206269 0)
(-0.160008 0.0173859 0)
(-0.169479 0.0130008 0)
(-0.177682 0.00753085 0)
(-0.184372 0.0011097 0)
(-0.189375 -0.00605939 0)
(-0.192507 -0.0137865 0)
(-0.193636 -0.0218404 0)
(-0.192682 -0.0299623 0)
(-0.18956 -0.0378661 0)
(-0.184213 -0.045252 0)
(-0.176607 -0.0518043 0)
(-0.166754 -0.0572052 0)
(-0.154727 -0.0611438 0)
(-0.140693 -0.0633397 0)
(-0.124938 -0.0635712 0)
(-0.107888 -0.061715 0)
(-0.0901233 -0.0577888 0)
(-0.0723589 -0.0519878 0)
(-0.0553936 -0.0447021 0)
(-0.0400149 -0.0364929 0)
(-0.0268735 -0.0280182 0)
(-0.0163603 -0.0199154 0)
(-0.00854011 -0.0126787 0)
(-0.00317887 -0.00658637 0)
(0.00014797 -0.00170564 0)
(0.0019254 0.00203718 0)
(0.00260071 0.00476278 0)
(0.00254039 0.00655442 0)
(0.00203123 0.00740334 0)
(0.00130417 0.00718746 0)
(0.000574072 0.00567775 0)
(5.96011e-05 0.00256103 0)
(-0.000150258 0.00630409 0)
(-0.00165582 0.0151438 0)
(-0.00404744 0.0209151 0)
(-0.00694874 0.0244449 0)
(-0.0101073 0.0264796 0)
(-0.0133941 0.0275954 0)
(-0.0167416 0.0281879 0)
(-0.0201154 0.0284992 0)
(-0.023497 0.0286593 0)
(-0.0268745 0.0287255 0)
(-0.0302371 0.0287117 0)
(-0.0335731 0.028609 0)
(-0.0368703 0.0283984 0)
(-0.0401174 0.0280606 0)
(-0.0433082 0.0275842 0)
(-0.0464489 0.0269749 0)
(-0.0495686 0.0262658 0)
(-0.0527329 0.0255254 0)
(-0.0560577 0.0248614 0)
(-0.0597182 0.0244129 0)
(-0.0639452 0.0243304 0)
(-0.0690059 0.0247441 0)
(-0.0751691 0.0257285 0)
(-0.0826618 0.0272727 0)
(-0.0916262 0.0292662 0)
(-0.102087 0.0315012 0)
(-0.113933 0.0336906 0)
(-0.126916 0.0354985 0)
(-0.140672 0.0365783 0)
(-0.154756 0.036614 0)
(-0.168692 0.0353574 0)
(-0.182023 0.0326537 0)
(-0.194346 0.028448 0)
(-0.205335 0.0227759 0)
(-0.214742 0.0157525 0)
(-0.222385 0.00756082 0)
(-0.228156 -0.0015586 0)
(-0.231989 -0.0113257 0)
(-0.233816 -0.021502 0)
(-0.23357 -0.0318223 0)
(-0.231159 -0.0419969 0)
(-0.226495 -0.0517161 0)
(-0.219467 -0.0606434 0)
(-0.209982 -0.0684208 0)
(-0.197971 -0.0746702 0)
(-0.18344 -0.0790097 0)
(-0.166501 -0.0810811 0)
(-0.147433 -0.0805932 0)
(-0.126718 -0.0773831 0)
(-0.105071 -0.071484 0)
(-0.0834246 -0.0631918 0)
(-0.0628554 -0.0530935 0)
(-0.0444336 -0.0420283 0)
(-0.0290187 -0.0309547 0)
(-0.0170624 -0.0207474 0)
(-0.00852579 -0.0120075 0)
(-0.00296554 -0.00498591 0)
(0.000263716 0.000353872 0)
(0.0018149 0.00419024 0)
(0.00224 0.00670062 0)
(0.00196735 0.0079617 0)
(0.00132757 0.00790551 0)
(0.000604733 0.00632023 0)
(6.63551e-05 0.00287566 0)
(-0.000155199 0.00718918 0)
(-0.00170239 0.0171597 0)
(-0.00415689 0.0236051 0)
(-0.00713301 0.0275115 0)
(-0.0103725 0.0297437 0)
(-0.0137442 0.0309572 0)
(-0.0171804 0.0315953 0)
(-0.0206466 0.0319256 0)
(-0.0241254 0.0320898 0)
(-0.0276058 0.032149 0)
(-0.0310785 0.0321177 0)
(-0.0345339 0.0319865 0)
(-0.037963 0.0317376 0)
(-0.0413606 0.0313561 0)
(-0.0447311 0.030842 0)
(-0.0480998 0.0302234 0)
(-0.0515278 0.0295693 0)
(-0.0551302 0.0290005 0)
(-0.0590916 0.0286879 0)
(-0.0636699 0.0288341 0)
(-0.0691808 0.0296361 0)
(-0.0759585 0.031235 0)
(-0.0843014 0.0336678 0)
(-0.0944125 0.0368363 0)
(-0.106352 0.0405012 0)
(-0.120005 0.0443009 0)
(-0.135083 0.0477914 0)
(-0.151141 0.0505002 0)
(-0.167633 0.0519862 0)
(-0.183977 0.0518957 0)
(-0.199632 0.0500004 0)
(-0.214147 0.0462125 0)
(-0.227193 0.0405754 0)
(-0.238554 0.0332343 0)
(-0.248106 0.0244008 0)
(-0.255784 0.0143215 0)
(-0.261581 0.00325886 0)
(-0.265548 -0.00851264 0)
(-0.267732 -0.0207181 0)
(-0.268121 -0.0331273 0)
(-0.266626 -0.0454715 0)
(-0.263144 -0.0574723 0)
(-0.257499 -0.0688116 0)
(-0.249495 -0.079131 0)
(-0.238901 -0.0880227 0)
(-0.225513 -0.095031 0)
(-0.20919 -0.0996731 0)
(-0.189939 -0.10147 0)
(-0.167978 -0.100017 0)
(-0.143828 -0.0950697 0)
(-0.118359 -0.0866663 0)
(-0.0927873 -0.0752325 0)
(-0.0685681 -0.061638 0)
(-0.047162 -0.0471245 0)
(-0.0296963 -0.033068 0)
(-0.0166556 -0.0206289 0)
(-0.00779916 -0.0104733 0)
(-0.00237886 -0.00273742 0)
(0.000513785 0.00278604 0)
(0.00169634 0.00639892 0)
(0.0018073 0.00831235 0)
(0.00132533 0.00855622 0)
(0.000635662 0.00696581 0)
(7.52344e-05 0.00320909 0)
(-0.000158787 0.00809612 0)
(-0.0017373 0.0192225 0)
(-0.00424042 0.0263564 0)
(-0.00727604 0.030648 0)
(-0.0105817 0.0330833 0)
(-0.0140252 0.0343993 0)
(-0.0175385 0.0350878 0)
(-0.021088 0.0354425 0)
(-0.0246572 0.0356173 0)
(-0.0282368 0.0356777 0)
(-0.0318197 0.0356393 0)
(-0.0353996 0.0354935 0)
(-0.0389726 0.0352256 0)
(-0.0425422 0.03483 0)
(-0.0461288 0.0343259 0)
(-0.0497849 0.0337758 0)
(-0.0536163 0.0333025 0)
(-0.0578034 0.0330982 0)
(-0.0626149 0.0334136 0)
(-0.0684 0.0345193 0)
(-0.0755509 0.0366429 0)
(-0.0844389 0.0398976 0)
(-0.095337 0.0442256 0)
(-0.108351 0.0493747 0)
(-0.123376 0.0549133 0)
(-0.140079 0.0602785 0)
(-0.157933 0.0648488 0)
(-0.176275 0.0680296 0)
(-0.194405 0.0693363 0)
(-0.211678 0.0684556 0)
(-0.227581 0.0652719 0)
(-0.241764 0.0598489 0)
(-0.254038 0.0523814 0)
(-0.264357 0.0431449 0)
(-0.272774 0.0324459 0)
(-0.279397 0.0205784 0)
(-0.28436 0.00780299 0)
(-0.287801 -0.00564563 0)
(-0.289881 -0.0195291 0)
(-0.290659 -0.033637 0)
(-0.290081 -0.0477625 0)
(-0.288057 -0.06169 0)
(-0.284389 -0.0751711 0)
(-0.27881 -0.0878973 0)
(-0.270966 -0.0994884 0)
(-0.260455 -0.109466 0)
(-0.246863 -0.117265 0)
(-0.229844 -0.122242 0)
(-0.209213 -0.123734 0)
(-0.185077 -0.121153 0)
(-0.157968 -0.114125 0)
(-0.128932 -0.10267 0)
(-0.0995549 -0.0873955 0)
(-0.0718086 -0.0695845 0)
(-0.047682 -0.0510671 0)
(-0.0286226 -0.0337861 0)
(-0.0150634 -0.0192027 0)
(-0.00640867 -0.00793636 0)
(-0.00150757 0.000120544 0)
(0.000818568 0.00540594 0)
(0.00151844 0.00832955 0)
(0.00129078 0.00908446 0)
(0.000668485 0.00759899 0)
(8.72733e-05 0.00356319 0)
(-0.000160983 0.00901865 0)
(-0.00176055 0.0213199 0)
(-0.00429832 0.0291546 0)
(-0.00737865 0.0338398 0)
(-0.0107366 0.0364851 0)
(-0.0142392 0.0379098 0)
(-0.0178189 0.0386555 0)
(-0.021443 0.0390425 0)
(-0.0250966 0.0392374 0)
(-0.0287725 0.0393107 0)
(-0.0324667 0.03928 0)
(-0.0361773 0.0391393 0)
(-0.0399076 0.0388808 0)
(-0.0436738 0.038514 0)
(-0.0475181 0.0380882 0)
(-0.0515307 0.0377166 0)
(-0.055875 0.0375965 0)
(-0.0608109 0.0380114 0)
(-0.0666995 0.0393012 0)
(-0.0739745 0.0417929 0)
(-0.083074 0.0457055 0)
(-0.0943479 0.0510593 0)
(-0.107964 0.0576224 0)
(-0.123842 0.0649112 0)
(-0.141624 0.0722431 0)
(-0.160703 0.0788293 0)
(-0.180299 0.083892 0)
(-0.199574 0.0867855 0)
(-0.217762 0.0870913 0)
(-0.234263 0.0846558 0)
(-0.248698 0.0795664 0)
(-0.260912 0.072085 0)
(-0.270932 0.0625679 0)
(-0.278919 0.0514021 0)
(-0.285111 0.0389592 0)
(-0.289779 0.0255582 0)
(-0.293181 0.0114489 0)
(-0.295542 -0.0031801 0)
(-0.297059 -0.0181767 0)
(-0.29784 -0.0333557 0)
(-0.297916 -0.0486056 0)
(-0.297235 -0.0637949 0)
(-0.295643 -0.0787922 0)
(-0.292874 -0.0933903 0)
(-0.288535 -0.107309 0)
(-0.28211 -0.120129 0)
(-0.272981 -0.131288 0)
(-0.260481 -0.140057 0)
(-0.243988 -0.145566 0)
(-0.223058 -0.146876 0)
(-0.197613 -0.143115 0)
(-0.168149 -0.133699 0)
(-0.135918 -0.118619 0)
(-0.10298 -0.0987468 0)
(-0.0720039 -0.0759895 0)
(-0.0456687 -0.0530368 0)
(-0.0257473 -0.032557 0)
(-0.01243 -0.0162324 0)
(-0.00456079 -0.00442057 0)
(-0.000533438 0.00337624 0)
(0.00104829 0.00783769 0)
(0.00121083 0.00941487 0)
(0.000703643 0.00819952 0)
(0.000103601 0.00394118 0)
(-0.000161719 0.0099504 0)
(-0.00177187 0.0234396 0)
(-0.00433028 0.0319853 0)
(-0.00744061 0.0370727 0)
(-0.0108369 0.039936 0)
(-0.0143864 0.0414774 0)
(-0.0180218 0.0422889 0)
(-0.0217119 0.0427184 0)
(-0.0254436 0.0429456 0)
(-0.0292126 0.0430469 0)
(-0.0330187 0.0430434 0)
(-0.0368659 0.0429343 0)
(-0.0407673 0.042723 0)
(-0.0447558 0.042443 0)
(-0.048903 0.0421876 0)
(-0.0533463 0.0421404 0)
(-0.058319 0.0425943 0)
(-0.0641684 0.0439392 0)
(-0.0713431 0.0465993 0)
(-0.0803324 0.0509225 0)
(-0.0915638 0.057051 0)
(-0.105284 0.0648227 0)
(-0.121464 0.0737412 0)
(-0.139751 0.0830218 0)
(-0.15948 0.0917016 0)
(-0.179766 0.0987932 0)
(-0.19963 0.103451 0)
(-0.218167 0.105112 0)
(-0.234678 0.103555 0)
(-0.248747 0.0988823 0)
(-0.260243 0.0914276 0)
(-0.269267 0.0816505 0)