/*--------------------------------*- C++ -*----------------------------------*\
| =========                 |                                                 |
| \\      /  F ield         | OpenFOAM: The Open Source CFD Toolbox           |
|  \\    /   O peration     | Version:  2406                                  |
|   \\  /    A nd           | Website:  www.openfoam.com                      |
|    \\/     M anipulation  |                                                 |
\*---------------------------------------------------------------------------*/
FoamFile
{
    version     2.0;
    format      ascii;
    arch        "LSB;label=32;scalar=64";
    class       volVectorField;
    location    "33.4";
    object      Uc;
}
// * * * * * * * * * * * * * * * * * * * * * * * * * * * * * * * * * * * * * //

dimensions      [0 1 -1 0 0 0 0];

internalField   nonuniform List<vector> 
900
(
(0.000347791 -0.000547773 0)
(0.00356328 -0.00124838 0)
(0.00725255 -0.00101414 0)
(0.00888881 -0.000583267 0)
(0.00944256 -0.000478536 0)
(0.00926051 -0.000715273 0)
(0.00906104 -0.0010885 0)
(0.00871653 -0.00152964 0)
(0.00753016 -0.00280842 0)
(0.00315447 -0.00441874 0)
(-0.0065463 -0.0029032 0)
(-0.0226612 0.00281737 0)
(-0.0443103 0.00870549 0)
(-0.067587 0.0113778 0)
(-0.0885967 0.0111648 0)
(-0.105121 0.00937517 0)
(-0.115865 0.00664524 0)
(-0.119908 0.00331897 0)
(-0.116849 -0.000382845 0)
(-0.106164 -0.00425659 0)
(-0.088268 -0.00796793 0)
(-0.0633882 -0.0109961 0)
(-0.0341395 -0.0125159 0)
(-0.00296837 -0.011533 0)
(0.0231216 -0.00685216 0)
(0.0384315 0.000151228 0)
(0.0368693 0.00607408 0)
(0.0245011 0.00677941 0)
(0.0116922 0.00473017 0)
(0.00155952 0.00194147 0)
(0.001209 -0.00335594 0)
(0.00667423 -0.00581741 0)
(0.0120561 -0.00432266 0)
(0.0139411 -0.00164936 0)
(0.0133482 0.000140658 0)
(0.0101308 0.00110753 0)
(0.00386311 0.00166298 0)
(-0.00869067 0.00304309 0)
(-0.0305419 0.00849371 0)
(-0.0615033 0.0189386 0)
(-0.0971355 0.0292848 0)
(-0.131002 0.035314 0)
(-0.159268 0.0362492 0)
(-0.181187 0.0327087 0)
(-0.197022 0.0261372 0)
(-0.206718 0.0176667 0)
(-0.210175 0.00794054 0)
(-0.207193 -0.00265402 0)
(-0.197626 -0.013804 0)
(-0.181153 -0.0251741 0)
(-0.157816 -0.0359098 0)
(-0.127704 -0.0448344 0)
(-0.0920658 -0.0495329 0)
(-0.0530436 -0.0474818 0)
(-0.0151479 -0.0351737 0)
(0.0153371 -0.0142291 0)
(0.0297571 0.00826303 0)
(0.0259168 0.0181706 0)
(0.0151313 0.0185153 0)
(0.00236408 0.0112413 0)
(0.00198128 -0.00833529 0)
(0.00783239 -0.0121878 0)
(0.0118822 -0.00824484 0)
(0.0109585 -0.001927 0)
(0.00567219 0.00331341 0)
(-0.00595815 0.0086751 0)
(-0.0271022 0.0176528 0)
(-0.0600474 0.0328091 0)
(-0.101186 0.0496026 0)
(-0.141816 0.0610964 0)
(-0.176389 0.0653296 0)
(-0.20366 0.0638507 0)
(-0.223985 0.0577431 0)
(-0.238321 0.0478963 0)
(-0.247624 0.0355229 0)
(-0.252391 0.0214393 0)
(-0.252985 0.00614069 0)
(-0.249384 -0.0102345 0)
(-0.241449 -0.0274432 0)
(-0.228677 -0.0453565 0)
(-0.21049 -0.0628095 0)
(-0.186202 -0.0785264 0)
(-0.155162 -0.0886583 0)
(-0.117947 -0.0897948 0)
(-0.075385 -0.0751986 0)
(-0.0332525 -0.0444889 0)
(0.00083921 -0.00375233 0)
(0.0108634 0.0209732 0)
(0.00878683 0.0281607 0)
(0.000518525 0.0188806 0)
(0.00244061 -0.0130778 0)
(0.00643674 -0.0157996 0)
(0.00591513 -0.00734463 0)
(-0.00151541 0.00463432 0)
(-0.0168782 0.0171607 0)
(-0.0432979 0.0339224 0)
(-0.0812553 0.0555932 0)
(-0.124473 0.076453 0)
(-0.164045 0.0894184 0)
(-0.195892 0.0934561 0)
(-0.220197 0.0904569 0)
(-0.237568 0.0822486 0)
(-0.249134 0.0703176 0)
(-0.256219 0.0558672 0)
(-0.260017 0.0398354 0)
(-0.261269 0.0226721 0)
(-0.260535 0.00456321 0)
(-0.25795 -0.0147389 0)
(-0.253524 -0.0352271 0)
(-0.246743 -0.0572826 0)
(-0.236867 -0.0798286 0)
(-0.222522 -0.102166 0)
(-0.201833 -0.119769 0)
(-0.173087 -0.129157 0)
(-0.133908 -0.120369 0)
(-0.0865653 -0.0902792 0)
(-0.0345391 -0.0345671 0)
(-0.00179441 0.0103146 0)
(0.00343832 0.0292424 0)
(-0.000989655 0.0205153 0)
(0.00209032 -0.0171914 0)
(0.00166672 -0.0157451 0)
(-0.0062286 -0.000210447 0)
(-0.023147 0.020891 0)
(-0.050582 0.0450084 0)
(-0.0881858 0.0726204 0)
(-0.130011 0.0980886 0)
(-0.167566 0.114701 0)
(-0.196573 0.119909 0)
(-0.217179 0.116093 0)
(-0.230623 0.106088 0)
(-0.238218 0.0921721 0)
(-0.241719 0.0760087 0)
(-0.242367 0.0585708 0)
(-0.241433 0.0405334 0)
(-0.23955 0.022004 0)
(-0.237463 0.00298081 0)
(-0.235358 -0.0171344 0)
(-0.23365 -0.0385126 0)
(-0.231974 -0.0621662 0)
(-0.230087 -0.0873447 0)
(-0.226375 -0.114475 0)
(-0.21885 -0.139279 0)
(-0.203912 -0.159277 0)
(-0.177085 -0.162821 0)
(-0.135205 -0.144263 0)
(-0.0775093 -0.0883517 0)
(-0.0173309 -0.0170975 0)
(0.00332697 0.0275331 0)
(-0.00114962 0.0211181 0)
(0.000230205 -0.0167339 0)
(-0.00728405 -0.00733008 0)
(-0.0241311 0.0177452 0)
(-0.0500575 0.0491551 0)
(-0.0848544 0.0820454 0)
(-0.123621 0.112878 0)
(-0.159178 0.134194 0)
(-0.185813 0.142161 0)
(-0.203159 0.138423 0)
(-0.21297 0.127276 0)
(-0.21701 0.11156 0)
(-0.217112 0.0936662 0)
(-0.214896 0.0749764 0)
(-0.211379 0.0562152 0)
(-0.207538 0.0377673 0)
(-0.203698 0.0194716 0)
(-0.200528 0.00124364 0)
(-0.198093 -0.017748 0)
(-0.197157 -0.037687 0)
(-0.197542 -0.0601531 0)
(-0.199913 -0.084713 0)
(-0.203059 -0.113253 0)
(-0.206117 -0.142381 0)
(-0.205106 -0.171865 0)
(-0.195087 -0.190216 0)
(-0.169285 -0.191216 0)
(-0.121003 -0.152833 0)
(-0.0519956 -0.0713525 0)
(0.0054629 0.013529 0)
(-0.00126953 0.0226276 0)
(-0.00245324 -0.010298 0)
(-0.0173442 0.0086277 0)
(-0.0416766 0.0425021 0)
(-0.0725435 0.0814001 0)
(-0.108123 0.117971 0)
(-0.141698 0.146095 0)
(-0.167744 0.159414 0)
(-0.183662 0.158101 0)
(-0.191686 0.146803 0)
(-0.193861 0.130014 0)
(-0.192385 0.110562 0)
(-0.189007 0.0905718 0)
(-0.18493 0.0709041 0)
(-0.18065 0.0518871 0)
(-0.176632 0.0336099 0)
(-0.172743 0.0157338 0)
(-0.169465 -0.00174017 0)
(-0.166609 -0.0196808 0)
(-0.165131 -0.0379785 0)
(-0.164821 -0.0584688 0)
(-0.16709 -0.0805656 0)
(-0.171174 -0.107379 0)
(-0.177887 -0.136264 0)
(-0.184143 -0.170091 0)
(-0.186828 -0.198955 0)
(-0.178329 -0.219635 0)
(-0.148366 -0.206541 0)
(-0.0942914 -0.146203 0)
(-0.00920328 -0.022045 0)
(0.00550501 0.0247938 0)
(-0.0051629 0.00286157 0)
(-0.0260174 0.0319708 0)
(-0.0547331 0.0727345 0)
(-0.0863294 0.115244 0)
(-0.118564 0.150453 0)
(-0.144618 0.171816 0)
(-0.161562 0.175707 0)
(-0.169333 0.166092 0)
(-0.171341 0.148941 0)
(-0.169579 0.128539 0)
(-0.166382 0.107371 0)
(-0.162877 0.0868986 0)
(-0.159638 0.0672966 0)
(-0.156537 0.0485218 0)
(-0.153599 0.0304714 0)
(-0.150403 0.0127977 0)
(-0.147392 -0.00429029 0)
(-0.14423 -0.0216366 0)
(-0.14205 -0.0387506 0)
(-0.140459 -0.0576752 0)
(-0.1413 -0.0773574 0)
(-0.143775 -0.10176 0)
(-0.149957 -0.128212 0)
(-0.157432 -0.162254 0)
(-0.165811 -0.195567 0)
(-0.167854 -0.229764 0)
(-0.15569 -0.238958 0)
(-0.120169 -0.211287 0)
(-0.0459711 -0.0875119 0)
(0.0178063 0.0192326 0)
(-0.00667692 0.0202102 0)
(-0.0306264 0.0577987 0)
(-0.0604272 0.101978 0)
(-0.0898389 0.144385 0)
(-0.11704 0.175268 0)
(-0.135932 0.188475 0)
(-0.146137 0.183916 0)
(-0.148992 0.168085 0)
(-0.148393 0.147461 0)
(-0.145903 0.125582 0)
(-0.143682 0.104397 0)
(-0.141827 0.084323 0)
(-0.140474 0.0650439 0)
(-0.138907 0.046244 0)
(-0.137093 0.0279205 0)
(-0.134446 0.00984435 0)
(-0.13158 -0.00743761 0)
(-0.128003 -0.0247481 0)
(-0.125068 -0.0411471 0)
(-0.122063 -0.0589242 0)
(-0.121175 -0.0763963 0)
(-0.121232 -0.0982827 0)
(-0.125318 -0.121411 0)
(-0.131138 -0.153566 0)
(-0.140939 -0.187419 0)
(-0.14799 -0.229355 0)
(-0.147831 -0.255638 0)
(-0.127053 -0.256158 0)
(-0.0771221 -0.164796 0)
(0.00728403 -0.00159104 0)
(-0.00702084 0.0394748 0)
(-0.0314972 0.0852649 0)
(-0.0601135 0.130966 0)
(-0.0859304 0.171023 0)
(-0.107866 0.195756 0)
(-0.12095 0.200721 0)
(-0.126747 0.188982 0)
(-0.127317 0.1689 0)
(-0.12635 0.146475 0)
(-0.124931 0.124459 0)
(-0.124615 0.103855 0)
(-0.124659 0.084164 0)
(-0.124969 0.064823 0)
(-0.12454 0.0454714 0)
(-0.123536 0.0263985 0)
(-0.121294 0.00749472 0)
(-0.118691 -0.010343 0)
(-0.115025 -0.0280369 0)
(-0.111895 -0.0442067 0)
(-0.108126 -0.061497 0)
(-0.106195 -0.0774797 0)
(-0.104172 -0.0974599 0)
(-0.10592 -0.117224 0)
(-0.108581 -0.146186 0)
(-0.117067 -0.177323 0)
(-0.125244 -0.222234 0)
(-0.132362 -0.259606 0)
(-0.123967 -0.283072 0)
(-0.0902031 -0.223757 0)
(-0.0221028 -0.0492886 0)
(-0.00617255 0.0578028 0)
(-0.0289186 0.1101 0)
(-0.0544795 0.155157 0)
(-0.0760255 0.191173 0)
(-0.093242 0.209579 0)
(-0.102225 0.207302 0)
(-0.105852 0.190565 0)
(-0.106022 0.168165 0)
(-0.106052 0.145535 0)
(-0.106312 0.124262 0)
(-0.107814 0.104485 0)
(-0.109243 0.0849727 0)
(-0.110598 0.0652538 0)
(-0.11075 0.0450388 0)
(-0.110212 0.0250236 0)
(-0.108187 0.00514882 0)
(-0.105876 -0.0133176 0)
(-0.102266 -0.0315012 0)
(-0.0993192 -0.047574 0)
(-0.0952949 -0.0646806 0)
(-0.0931533 -0.0797042 0)
(-0.0899492 -0.0986288 0)
(-0.0903052 -0.116023 0)
(-0.0899444 -0.142263 0)
(-0.0958637 -0.169329 0)
(-0.101696 -0.213409 0)
(-0.111413 -0.255943 0)
(-0.109962 -0.298866 0)
(-0.0876923 -0.268291 0)
(-0.0348119 -0.115504 0)
(-0.0045869 0.0738592 0)
(-0.0240964 0.132902 0)
(-0.0458445 0.176984 0)
(-0.0632141 0.209081 0)
(-0.0764801 0.221601 0)
(-0.0827808 0.213651 0)
(-0.0854391 0.193332 0)
(-0.0860337 0.169768 0)
(-0.0872095 0.147353 0)
(-0.0888211 0.126744 0)
(-0.0914119 0.107262 0)
(-0.0935238 0.0873527 0)
(-0.0953496 0.0667896 0)
(-0.0957621 0.0454116 0)
(-0.0955922 0.0243062 0)
(-0.0938368 0.00336235 0)
(-0.092032 -0.0157813 0)
(-0.0887348 -0.0345498 0)
(-0.086366 -0.0506422 0)
(-0.0824788 -0.0677697 0)
(-0.0807389 -0.0821493 0)
(-0.0770315 -0.100511 0)
(-0.0770191 -0.116286 0)
(-0.0746347 -0.140739 0)
(-0.0786572 -0.164181 0)
(-0.0813514 -0.206251 0)
(-0.0910316 -0.249956 0)
(-0.0919572 -0.306804 0)
(-0.0777248 -0.301971 0)
(-0.0325693 -0.175436 0)
(-0.00244166 0.0857913 0)
(-0.0177029 0.150576 0)
(-0.0349496 0.19322 0)
(-0.0483016 0.221121 0)
(-0.0583451 0.22888 0)
(-0.0629652 0.216549 0)
(-0.0655304 0.194244 0)
(-0.0668361 0.170377 0)
(-0.0690233 0.148682 0)
(-0.0714122 0.128757 0)
(-0.0744688 0.109497 0)
(-0.0767188 0.0891717 0)
(-0.0786879 0.0678818 0)
(-0.0791781 0.0455295 0)
(-0.0793651 0.0235617 0)
(-0.0779241 0.00173953 0)
(-0.0768037 -0.0179145 0)
(-0.0739887 -0.037178 0)
(-0.0725086 -0.0532657 0)
(-0.0690256 -0.0704911 0)
(-0.0681512 -0.084451 0)
(-0.0644006 -0.102666 0)
(-0.064749 -0.117475 0)
(-0.061074 -0.140945 0)
(-0.0640158 -0.161263 0)
(-0.0636809 -0.200846 0)
(-0.0729177 -0.243595 0)
(-0.0748367 -0.311537 0)
(-0.0674913 -0.32966 0)
(-0.0293004 -0.229138 0)
(-0.000162494 0.093601 0)
(-0.0105635 0.164823 0)
(-0.0232933 0.206808 0)
(-0.0329973 0.232078 0)
(-0.0403248 0.2363 0)
(-0.0438802 0.221399 0)
(-0.0464132 0.197846 0)
(-0.0482031 0.173906 0)
(-0.0507688 0.152497 0)
(-0.053273 0.132694 0)
(-0.0561928 0.113121 0)
(-0.0581906 0.0920539 0)
(-0.0600971 0.0698875 0)
(-0.0605938 0.046521 0)
(-0.0612118 0.0237321 0)
(-0.0601911 0.00107101 0)
(-0.0599834 -0.0190458 0)
(-0.0578354 -0.0388019 0)
(-0.0575506 -0.0549155 0)
(-0.0546884 -0.0723104 0)
(-0.0550454 -0.0859784 0)
(-0.0515975 -0.104285 0)
(-0.052955 -0.118605 0)
(-0.0487746 -0.141946 0)
(-0.0517151 -0.160231 0)
(-0.0489118 -0.197488 0)
(-0.0574668 -0.237007 0)
(-0.0588644 -0.311554 0)
(-0.0575243 -0.348642 0)
(-0.0254636 -0.274862 0)
(0.00222411 0.0961552 0)
(-0.0030942 0.173032 0)
(-0.0110973 0.214957 0)
(-0.0174021 0.237704 0)
(-0.0224162 0.239774 0)
(-0.0251435 0.223019 0)
(-0.0277756 0.199 0)
(-0.0297923 0.175096 0)
(-0.0324253 0.154076 0)
(-0.0345871 0.134432 0)
(-0.0370661 0.114787 0)
(-0.0385438 0.0933677 0)
(-0.0402793 0.070815 0)
(-0.0406886 0.0469349 0)
(-0.04177 0.0237887 0)
(-0.041177 0.000672879 0)
(-0.0420155 -0.0196124 0)
(-0.0406079 -0.0396647 0)
(-0.0417242 -0.0557126 0)
(-0.0396022 -0.0732693 0)
(-0.0414327 -0.0867122 0)
(-0.0384321 -0.105223 0)
(-0.0411593 -0.119242 0)
(-0.0368643 -0.142798 0)
(-0.0407291 -0.159764 0)
(-0.0363853 -0.195502 0)
(-0.0451707 -0.231761 0)
(-0.045791 -0.310895 0)
(-0.0495986 -0.363283 0)
(-0.0220943 -0.314159 0)
(0.00430576 0.0943369 0)
(0.00428538 0.177628 0)
(0.000817297 0.220662 0)
(-0.00226198 0.243184 0)
(-0.00500998 0.244283 0)
(-0.00695189 0.227379 0)
(-0.00930586 0.203172 0)
(-0.011211 0.179185 0)
(-0.0134321 0.157913 0)
(-0.0149125 0.137874 0)
(-0.0167019 0.117778 0)
(-0.0174978 0.0958321 0)
(-0.0190107 0.072878 0)
(-0.0192779 0.0485236 0)
(-0.0208896 0.0251188 0)
(-0.0207442 0.00163032 0)
(-0.0227853 -0.0187416 0)
(-0.0221923 -0.0390617 0)
(-0.0249094 -0.0550566 0)
(-0.0236274 -0.0728468 0)
(-0.0271712 -0.0861822 0)
(-0.0247484 -0.105046 0)
(-0.0291849 -0.118996 0)
(-0.0250359 -0.143078 0)
(-0.0304716 -0.159279 0)
(-0.0251014 -0.193728 0)
(-0.0347682 -0.225754 0)
(-0.0343251 -0.306881 0)
(-0.0431786 -0.371941 0)
(-0.019183 -0.348075 0)
(0.0061471 0.0873862 0)
(0.0111957 0.175825 0)
(0.0123957 0.22105 0)
(0.0124061 0.243147 0)
(0.0117428 0.244588 0)
(0.010718 0.227657 0)
(0.00859889 0.203696 0)
(0.00697964 0.179527 0)
(0.00515936 0.158129 0)
(0.00449195 0.137921 0)
(0.00341828 0.117827 0)
(0.0034535 0.0959496 0)
(0.0022301 0.073245 0)
(0.00226298 0.0490764 0)
(0.000173842 0.0260138 0)
(9.23789e-06 0.00267255 0)
(-0.00321309 -0.0173794 0)
(-0.00333164 -0.0376781 0)
(-0.00767542 -0.0534535 0)
(-0.00716175 -0.0713946 0)
(-0.0125117 -0.0846214 0)
(-0.0106365 -0.103824 0)
(-0.0169995 -0.117727 0)
(-0.0131088 -0.142346 0)
(-0.0207189 -0.158185 0)
(-0.0149111 -0.192109 0)
(-0.0263918 -0.220611 0)
(-0.0248341 -0.302592 0)
(-0.0384239 -0.377541 0)
(-0.0166025 -0.377742 0)
(0.00717913 0.0769855 0)
(0.0173564 0.170819 0)
(0.0230121 0.219175 0)
(0.0262585 0.243665 0)
(0.0280316 0.246281 0)
(0.0282089 0.231111 0)
(0.026854 0.207631 0)
(0.0257165 0.183249 0)
(0.0244756 0.161117 0)
(0.02463 0.140158 0)
(0.0242332 0.119644 0)
(0.0251005 0.0975744 0)
(0.0241125 0.0750623 0)
(0.024509 0.051069 0)
(0.0219099 0.0284368 0)
(0.0215278 0.00529327 0)
(0.0170985 -0.0143614 0)
(0.0163708 -0.0346223 0)
(0.010346 -0.0501889 0)
(0.0101805 -0.0683355 0)
(0.002911 -0.0815508 0)
(0.00429048 -0.101164 0)
(-0.00420952 -0.115122 0)
(-0.000578693 -0.140254 0)
(-0.0107657 -0.155814 0)
(-0.00475157 -0.189177 0)
(-0.018846 -0.21384 0)
(-0.0161949 -0.295379 0)
(-0.0348548 -0.378899 0)
(-0.0142438 -0.404125 0)
(0.00743017 0.0627205 0)
(0.0220974 0.159159 0)
(0.0324251 0.211766 0)
(0.0388987 0.23765 0)
(0.0429821 0.24276 0)
(0.0446669 0.229049 0)
(0.0439677 0.206639 0)
(0.0434291 0.182141 0)
(0.0425162 0.159622 0)
(0.0434289 0.138303 0)
(0.043528 0.117868 0)
(0.0452929 0.0962251 0)
(0.044563 0.0745411 0)
(0.0455492 0.0513972 0)
(0.0425999 0.0298174 0)
(0.0423067 0.00744171 0)
(0.036866 -0.0113613 0)
(0.0358713 -0.0312136 0)
(0.0283367 -0.0463405 0)
(0.0278043 -0.0645071 0)
(0.0186733 -0.077625 0)
(0.0197543 -0.0975029 0)
(0.00898095 -0.111436 0)
(0.0123776 -0.13687 0)
(-0.000795013 -0.15225 0)
(0.00517774 -0.185398 0)
(-0.0122895 -0.20703 0)
(-0.00844843 -0.287553 0)
(-0.0323712 -0.377857 0)
(-0.0118535 -0.427806 0)
(0.00604283 0.0475614 0)
(0.025101 0.145231 0)
(0.0398568 0.202148 0)
(0.0500583 0.232886 0)
(0.0572315 0.240791 0)
(0.0610358 0.230612 0)
(0.061856 0.209633 0)
(0.0622191 0.185299 0)
(0.0617839 0.161951 0)
(0.0633173 0.139633 0)
(0.0636661 0.118709 0)
(0.0661535 0.0969718 0)
(0.0654819 0.0758846 0)
(0.0670577 0.0533773 0)
(0.0637121 0.0328396 0)
(0.0636979 0.0111735 0)
(0.0572947 -0.00675554 0)
(0.0563217 -0.026226 0)
(0.0473245 -0.0409126 0)
(0.0466971 -0.0591046 0)
(0.0356552 -0.0721269 0)
(0.0366114 -0.0922087 0)
(0.0233715 -0.106071 0)
(0.0265912 -0.131581 0)
(0.0100582 -0.146608 0)
(0.0158694 -0.179244 0)
(-0.0057864 -0.197837 0)
(-0.000806298 -0.276721 0)
(-0.0306896 -0.373437 0)
(-0.00929062 -0.449328 0)
(0.00357881 0.0315455 0)
(0.0254034 0.124411 0)
(0.0448642 0.186395 0)
(0.0587424 0.219572 0)
(0.0687188 0.231806 0)
(0.075074 0.224395 0)
(0.0773444 0.205908 0)
(0.0790689 0.182338 0)
(0.0790452 0.159019 0)
(0.0813625 0.136439 0)
(0.0818053 0.115609 0)
(0.0851259 0.094374 0)
(0.0844865 0.0743731 0)
(0.0869316 0.053067 0)
(0.0833383 0.0340323 0)
(0.0840607 0.0136054 0)
(0.0769505 -0.00306672 0)
(0.0765312 -0.0217296 0)
(0.0663246 -0.0356985 0)
(0.0660768 -0.053583 0)
(0.0532494 -0.066294 0)
(0.0543657 -0.086244 0)
(0.0385503 -0.0998011 0)
(0.0416253 -0.124956 0)
(0.0213699 -0.139478 0)
(0.0268771 -0.171494 0)
(0.000347857 -0.187792 0)
(0.00662248 -0.264685 0)
(-0.0298085 -0.366874 0)
(-0.00630424 -0.46891 0)
(0.00029903 0.0189856 0)
(0.0231751 0.103485 0)
(0.0465931 0.168654 0)
(0.0646775 0.208752 0)
(0.0787221 0.224635 0)
(0.0885594 0.222279 0)
(0.0937179 0.206402 0)
(0.0975565 0.184103 0)
(0.0985377 0.160638 0)
(0.101765 0.137264 0)
(0.102196 0.116009 0)
(0.106165 0.0945515 0)
(0.105286 0.0752514 0)
(0.108542 0.0546681 0)
(0.104538 0.0369706 0)
(0.106187 0.0175297 0)
(0.0983374 0.00209189 0)
(0.0988034 -0.0158713 0)
(0.0873632 -0.0290422 0)
(0.0877943 -0.0465758 0)
(0.0730395 -0.058781 0)
(0.0744618 -0.0783766 0)
(0.0557674 -0.0913383 0)
(0.0586784 -0.115735 0)
(0.0342415 -0.12941 0)
(0.0392849 -0.160304 0)
(0.00705344 -0.174522 0)
(0.0146255 -0.249111 0)
(-0.0294129 -0.357301 0)
(-0.00262405 -0.486738 0)
(-0.00106842 0.0081891 0)
(0.0185454 0.0770353 0)
(0.0450352 0.144512 0)
(0.066442 0.186391 0)
(0.0833175 0.207795 0)
(0.0970061 0.208942 0)
(0.104939 0.197296 0)
(0.11208 0.177421 0)
(0.114684 0.15543 0)
(0.119913 0.132662 0)
(0.120723 0.111934 0)
(0.126036 0.0910669 0)
(0.124984 0.0728372 0)
(0.129614 0.0535015 0)
(0.1252 0.0373271 0)
(0.128352 0.0193426 0)
(0.119814 0.00533314 0)
(0.121729 -0.011437 0)
(0.109124 -0.0235528 0)
(0.110683 -0.0402069 0)
(0.0940048 -0.0515851 0)
(0.0959659 -0.0702582 0)
(0.0742344 -0.0822553 0)
(0.0769339 -0.105257 0)
(0.0479357 -0.117784 0)
(0.0523042 -0.147066 0)
(0.0137343 -0.159983 0)
(0.0227623 -0.23179 0)
(-0.0296648 -0.345767 0)
(0.00205717 -0.502684 0)
(-0.00168282 0.00208875 0)
(0.0127441 0.057202 0)
(0.0390173 0.120847 0)
(0.0637686 0.170289 0)
(0.0852655 0.194122 0)
(0.10373 0.200657 0)
(0.116271 0.191973 0)
(0.127748 0.174593 0)
(0.133147 0.153906 0)
(0.141097 0.131443 0)
(0.142814 0.111161 0)
(0.149765 0.090379 0)
(0.14858 0.0730415 0)
(0.154664 0.0544095 0)
(0.149719 0.0396868 0)
(0.154446 0.0227163 0)
(0.145075 0.0102596 0)
(0.148533 -0.00558751 0)
(0.134549 -0.0163092 0)
(0.137283 -0.0321193 0)
(0.118302 -0.0421232 0)
(0.12075 -0.0596147 0)
(0.0954275 -0.0699588 0)
(0.0978329 -0.0910374 0)
(0.0636744 -0.101806 0)
(0.0673596 -0.128829 0)
(0.0217625 -0.140872 0)
(0.0326525 -0.209717 0)
(-0.0294284 -0.331291 0)
(0.00845655 -0.516391 0)
(0.00115423 -0.00291544 0)
(0.00863211 0.0352401 0)
(0.0300094 0.0932395 0)
(0.0552253 0.138771 0)
(0.0771744 0.167544 0)
(0.100637 0.176811 0)
(0.117147 0.17344 0)
(0.13493 0.159948 0)
(0.144309 0.142757 0)
(0.157351 0.122614 0)
(0.16109 0.104196 0)
(0.171673 0.0848968 0)
(0.170772 0.0689768 0)
(0.179703 0.0518622 0)
(0.174092 0.038644 0)
(0.181349 0.0233392 0)
(0.170734 0.0123961 0)
(0.176427 -0.00177349 0)
(0.160574 -0.0110595 0)
(0.165014 -0.0251184 0)
(0.143312 -0.0336198 0)
(0.146688 -0.0489946 0)
(0.117528 -0.0575777 0)
(0.119962 -0.0759401 0)
(0.0804385 -0.0849602 0)
(0.0834582 -0.109129 0)
(0.0305719 -0.121515 0)
(0.0432984 -0.186451 0)
(-0.028658 -0.315322 0)
(0.0172015 -0.526666 0)
(-0.000795913 -0.00748383 0)
(0.00193459 0.0292759 0)
(0.0160113 0.0746625 0)
(0.0408059 0.123787 0)
(0.0668749 0.148678 0)
(0.0951166 0.160414 0)
(0.117177 0.157999 0)
(0.141357 0.147051 0)
(0.15556 0.132492 0)
(0.174353 0.114432 0)
(0.180927 0.098256 0)
(0.195766 0.0805046 0)
(0.195912 0.0666128 0)
(0.207904 0.0508376 0)
(0.202198 0.039754 0)
(0.211809 0.025688 0)
(0.200304 0.0170101 0)
(0.207854 0.00397596 0)
(0.190252 -0.00290027 0)
(0.196036 -0.015748 0)
(0.17141 -0.0215233 0)
(0.175583 -0.0351487 0)
(0.141922 -0.040493 0)
(0.144772 -0.0560021 0)
(0.0989045 -0.0616996 0)
(0.102971 -0.0824127 0)
(0.0424468 -0.0950857 0)
(0.0599641 -0.155861 0)
(-0.0219962 -0.295484 0)
(0.0306665 -0.531256 0)
(0.00481583 -0.00374901 0)
(0.00446079 0.0172815 0)
(-0.00150149 0.0546324 0)
(0.0181444 0.0862467 0)
(0.038426 0.112838 0)
(0.072912 0.124464 0)
(0.0987566 0.126882 0)
(0.132171 0.119992 0)
(0.151601 0.110142 0)
(0.179078 0.09618 0)
(0.189213 0.0836624 0)
(0.211067 0.0690556 0)
(0.212485 0.0579242 0)
(0.230019 0.0447337 0)
(0.223594 0.0358874 0)
(0.237859 0.0242855 0)
(0.224007 0.0175239 0)
(0.235767 0.00713077 0)
(0.214397 0.00196932 0)
(0.224215 -0.00775374 0)
(0.19461 -0.0118743 0)
(0.202896 -0.0215773 0)
(0.163511 -0.0252987 0)
(0.170969 -0.0361579 0)
(0.119404 -0.041147 0)
(0.128834 -0.0580703 0)
(0.0621556 -0.074441 0)
(0.083902 -0.130183 0)
(-0.0063836 -0.275313 0)
(0.0507197 -0.52299 0)
(-0.0229119 -0.0185935 0)
(-0.0229843 0.0385503 0)
(-0.0177919 0.0615899 0)
(-0.00846119 0.0864037 0)
(0.0185297 0.0939923 0)
(0.0550682 0.0997879 0)
(0.0856316 0.0984887 0)
(0.125016 0.0928675 0)
(0.148915 0.0860652 0)
(0.182914 0.075672 0)
(0.196272 0.0674359 0)
(0.223849 0.0564254 0)
(0.226734 0.0492357 0)
(0.249039 0.0390622 0)
(0.242443 0.0337342 0)
(0.26092 0.0245357 0)
(0.245584 0.021125 0)
(0.261583 0.0125846 0)
(0.237673 0.0109283 0)
(0.252486 0.00259664 0)
(0.219376 0.0024742 0)
(0.234429 -0.00614134 0)
(0.190367 -0.00516088 0)
(0.207678 -0.0148546 0)
(0.149396 -0.0146798 0)
(0.17269 -0.0291249 0)
(0.0963254 -0.0417889 0)
(0.135086 -0.0911019 0)
(0.0438205 -0.239599 0)
(0.0886976 -0.490872 0)
(-0.0857161 0.0466188 0)
(-0.0860832 0.0100072 0)
(-0.114947 0.0414253 0)
(-0.0718829 0.0460824 0)
(-0.052009 0.0480936 0)
(0.00124662 0.0538675 0)
(0.0326775 0.0558066 0)
(0.0845741 0.0538759 0)
(0.109857 0.0518911 0)
(0.156711 0.0466697 0)
(0.170083 0.0430222 0)
(0.211807 0.0368617 0)
(0.212756 0.0333928 0)
(0.250902 0.0274638 0)
(0.2402 0.0248603 0)
(0.276889 0.0195728 0)
(0.255077 0.0178417 0)
(0.292592 0.0133313 0)
(0.259587 0.0121496 0)
(0.300291 0.00855924 0)
(0.255312 0.00735819 0)
(0.301678 0.00494379 0)
(0.243335 0.00274301 0)
(0.297892 0.00128158 0)
(0.2245 -0.00449211 0)
(0.289255 -0.0104154 0)
(0.199524 -0.0328242 0)
(0.271937 -0.0816273 0)
(0.156884 -0.210468 0)
(0.149214 -0.405804 0)
(0.0821181 0.134059 0)
(0.121281 0.0754107 0)
(0.157029 0.0503344 0)
(0.210684 0.0291974 0)
(0.228477 0.0213105 0)
(0.277372 0.0149347 0)
(0.293188 0.0141445 0)
(0.345932 0.0134925 0)
(0.3577 0.0136427 0)
(0.411139 0.0133889 0)
(0.415624 0.0130279 0)
(0.467576 0.0123024 0)
(0.463078 0.0115286 0)
(0.513318 0.0105587 0)
(0.499567 0.00963516 0)
(0.548966 0.00865576 0)
(0.526243 0.00775289 0)
(0.576029 0.00682922 0)
(0.544686 0.00609305 0)
(0.596072 0.00508715 0)
(0.556343 0.00476625 0)
(0.610364 0.00321553 0)
(0.562162 0.00380363 0)
(0.619449 0.000464878 0)
(0.561269 0.0026243 0)
(0.620451 -0.00633088 0)
(0.542169 -0.00405032 0)
(0.586795 -0.0343254 0)
(0.421447 -0.0525597 0)
(0.308099 -0.177925 0)
)
;

boundaryField
{
    movingWall
    {
        type            fixedValue;
        value           uniform (1 0 0);
    }
    fixedWalls
    {
        type            noSlip;
    }
    frontAndBack
    {
        type            empty;
    }
}


// ************************************************************************* //
