/*--------------------------------*- C++ -*----------------------------------*\
| =========                 |                                                 |
| \\      /  F ield         | OpenFOAM: The Open Source CFD Toolbox           |
|  \\    /   O peration     | Version:  2406                                  |
|   \\  /    A nd           | Website:  www.openfoam.com                      |
|    \\/     M anipulation  |                                                 |
\*---------------------------------------------------------------------------*/
FoamFile
{
    version     2.0;
    format      ascii;
    arch        "LSB;label=32;scalar=64";
    class       volVectorField;
    location    "12";
    object      Uold;
}
// * * * * * * * * * * * * * * * * * * * * * * * * * * * * * * * * * * * * * //

dimensions      [0 1 -1 0 0 0 0];

internalField   nonuniform List<vector> 
3600
(
(1.96663e-05 -1.84993e-05 0)
(3.57534e-05 -5.0464e-06 0)
(-1.00813e-06 1.46275e-05 0)
(-9.31602e-05 3.3524e-05 0)
(-0.000229468 4.38337e-05 0)
(-0.000389057 4.99754e-05 0)
(-0.000564834 5.20321e-05 0)
(-0.000745783 5.34352e-05 0)
(-0.000932916 5.42819e-05 0)
(-0.00112302 5.5908e-05 0)
(-0.00131933 5.78871e-05 0)
(-0.00152106 6.05303e-05 0)
(-0.00173037 6.33361e-05 0)
(-0.00194633 6.62869e-05 0)
(-0.00216933 6.89829e-05 0)
(-0.00239757 7.13167e-05 0)
(-0.00262976 7.2985e-05 0)
(-0.00286312 7.38527e-05 0)
(-0.00309494 7.36815e-05 0)
(-0.00332151 7.23336e-05 0)
(-0.00353901 6.9622e-05 0)
(-0.00374296 6.5429e-05 0)
(-0.00392876 5.96242e-05 0)
(-0.00409145 5.21365e-05 0)
(-0.00422609 4.29129e-05 0)
(-0.00432768 3.19668e-05 0)
(-0.00439154 1.93609e-05 0)
(-0.00441332 5.24165e-06 0)
(-0.00438934 -1.01657e-05 0)
(-0.00431678 -2.65365e-05 0)
(-0.00419397 -4.34539e-05 0)
(-0.00402058 -6.0408e-05 0)
(-0.00379785 -7.68174e-05 0)
(-0.00352874 -9.20533e-05 0)
(-0.00321797 -0.000105479 0)
(-0.00287193 -0.000116495 0)
(-0.00249856 -0.000124585 0)
(-0.00210698 -0.000129367 0)
(-0.00170712 -0.000130623 0)
(-0.00130918 -0.000128331 0)
(-0.000923219 -0.000122656 0)
(-0.00055845 -0.000113954 0)
(-0.000223062 -0.000102711 0)
(7.64578e-05 -8.95367e-05 0)
(0.000335068 -7.50464e-05 0)
(0.000549856 -5.98955e-05 0)
(0.000719077 -4.46066e-05 0)
(0.00084315 -2.97005e-05 0)
(0.000922707 -1.54404e-05 0)
(0.00096056 -2.15085e-06 0)
(0.000958242 1.02143e-05 0)
(0.000920143 2.1406e-05 0)
(0.000847481 3.16791e-05 0)
(0.000746715 4.04494e-05 0)
(0.000618912 4.78616e-05 0)
(0.000475939 5.20763e-05 0)
(0.000321452 5.26287e-05 0)
(0.000179607 4.49773e-05 0)
(6.07832e-05 2.93493e-05 0)
(2.35533e-06 2.64672e-06 0)
(7.47129e-06 -3.67758e-05 0)
(-5.12621e-05 5.0248e-05 0)
(-0.000236344 0.000156093 0)
(-0.000533734 0.000255544 0)
(-0.000928747 0.000319189 0)
(-0.00138039 0.000360395 0)
(-0.00187379 0.000380951 0)
(-0.00238513 0.000393997 0)
(-0.00291231 0.000402284 0)
(-0.00344683 0.000411426 0)
(-0.00399189 0.000421121 0)
(-0.00454456 0.000432468 0)
(-0.00510704 0.000443886 0)
(-0.00567648 0.000454846 0)
(-0.00625191 0.000463679 0)
(-0.00682864 0.000469446 0)
(-0.00740244 0.000470712 0)
(-0.00796644 0.000466519 0)
(-0.00851367 0.000455714 0)
(-0.00903539 0.00043749 0)
(-0.00952267 0.000411018 0)
(-0.00996557 0.000375762 0)
(-0.0103542 0.000331285 0)
(-0.0106782 0.000277444 0)
(-0.0109278 0.000214294 0)
(-0.0110934 0.000142227 0)
(-0.0111666 6.19444e-05 0)
(-0.01114 -2.5449e-05 0)
(-0.0110078 -0.000118445 0)
(-0.0107662 -0.000215084 0)
(-0.0104141 -0.000312984 0)
(-0.00995272 -0.000409372 0)
(-0.00938679 -0.000501189 0)
(-0.0087241 -0.000585221 0)
(-0.0079758 -0.000658284 0)
(-0.00715611 -0.000717436 0)
(-0.00628203 -0.000760193 0)
(-0.00537265 -0.000784739 0)
(-0.00444849 -0.000790085 0)
(-0.00353051 -0.000776181 0)
(-0.00263928 -0.000743906 0)
(-0.00179382 -0.000695045 0)
(-0.00101116 -0.000632067 0)
(-0.000305165 -0.000558001 0)
(0.000313169 -0.000476039 0)
(0.000836789 -0.000389467 0)
(0.00126117 -0.000301146 0)
(0.00158575 -0.000213712 0)
(0.00181099 -0.000128936 0)
(0.00194122 -4.84541e-05 0)
(0.00197937 2.71523e-05 0)
(0.00193334 9.66716e-05 0)
(0.00180691 0.000159889 0)
(0.00161288 0.000214153 0)
(0.00135701 0.000257831 0)
(0.00106343 0.000283627 0)
(0.000744148 0.000287134 0)
(0.000444564 0.000253846 0)
(0.000183406 0.000182658 0)
(2.88604e-05 6.06173e-05 0)
(-1.73407e-05 5.44713e-06 0)
(-0.000188874 0.000247211 0)
(-0.000566412 0.000507408 0)
(-0.00109484 0.000740462 0)
(-0.00175916 0.000897761 0)
(-0.00249881 0.00100071 0)
(-0.00329697 0.00105671 0)
(-0.00411979 0.00109079 0)
(-0.00496368 0.00111167 0)
(-0.0058151 0.00113057 0)
(-0.00667625 0.00114865 0)
(-0.0075412 0.00116782 0)
(-0.00841083 0.00118548 0)
(-0.0092796 0.0012 0)
(-0.0101445 0.00120802 0)
(-0.0109978 0.0012071 0)
(-0.0118324 0.00119419 0)
(-0.0126382 0.001167 0)
(-0.0134048 0.00112316 0)
(-0.0141202 0.00106094 0)
(-0.0147722 0.000978847 0)
(-0.0153481 0.000875996 0)
(-0.0158353 0.000751897 0)
(-0.0162213 0.000606697 0)
(-0.0164949 0.000441066 0)
(-0.0166452 0.000256383 0)
(-0.0166633 5.47056e-05 0)
(-0.0165416 -0.000161081 0)
(-0.0162749 -0.000387257 0)
(-0.0158603 -0.000619199 0)
(-0.0152983 -0.000851442 0)
(-0.0145923 -0.00107776 0)
(-0.0137498 -0.00129137 0)
(-0.0127821 -0.00148524 0)
(-0.0117043 -0.00165247 0)
(-0.0105355 -0.0017867 0)
(-0.00929812 -0.00188261 0)
(-0.00801696 -0.00193632 0)
(-0.00671879 -0.00194574 0)
(-0.00543087 -0.00191082 0)
(-0.00418004 -0.00183354 0)
(-0.00299128 -0.00171782 0)
(-0.00188702 -0.00156915 0)
(-0.000885763 -0.00139421 0)
(-2.34079e-06 -0.00120016 0)
(0.000753399 -0.000994313 0)
(0.00137497 -0.000783249 0)
(0.00186089 -0.000572864 0)
(0.00221122 -0.000367519 0)
(0.00243085 -0.000170881 0)
(0.00252336 1.49815e-05 0)
(0.00249842 0.000187358 0)
(0.00236128 0.000344287 0)
(0.00212836 0.000480041 0)
(0.00180817 0.000588515 0)
(0.00143202 0.000655288 0)
(0.00101621 0.00066772 0)
(0.000619329 0.000601431 0)
(0.000263951 0.000447607 0)
(4.58743e-05 0.000181557 0)
(-4.72955e-05 0.000127993 0)
(-0.000351524 0.00060966 0)
(-0.000944592 0.00107332 0)
(-0.00171627 0.00146596 0)
(-0.00265187 0.00173339 0)
(-0.00367032 0.00190781 0)
(-0.0047572 0.00200545 0)
(-0.00586998 0.00206336 0)
(-0.0070057 0.00209699 0)
(-0.00814574 0.00212315 0)
(-0.0092914 0.00214468 0)
(-0.0104329 0.00216427 0)
(-0.0115694 0.0021783 0)
(-0.0126921 0.00218399 0)
(-0.0137955 0.0021762 0)
(-0.0148688 0.00215095 0)
(-0.0159025 0.0021036 0)
(-0.0168837 0.00203065 0)
(-0.0177999 0.00192871 0)
(-0.018637 0.00179552 0)
(-0.0193816 0.00162931 0)
(-0.02002 0.00142938 0)
(-0.0205394 0.0011957 0)
(-0.0209278 0.00092923 0)
(-0.0211743 0.000631701 0)
(-0.0212693 0.000305858 0)
(-0.0212051 -4.45941e-05 0)
(-0.0209754 -0.000414788 0)
(-0.0205762 -0.000798656 0)
(-0.020006 -0.00118881 0)
(-0.0192662 -0.00157661 0)
(-0.0183617 -0.00195225 0)
(-0.017301 -0.00230506 0)
(-0.0160971 -0.00262395 0)
(-0.0147672 -0.00289798 0)
(-0.0133327 -0.00311704 0)
(-0.0118191 -0.0032726 0)
(-0.0102548 -0.00335836 0)
(-0.00867104 -0.00337089 0)
(-0.0070995 -0.00330996 0)
(-0.0055719 -0.00317867 0)
(-0.0041179 -0.00298327 0)
(-0.00276431 -0.00273264 0)
(-0.00153338 -0.00243765 0)
(-0.000442925 -0.00211005 0)
(0.000495158 -0.00176182 0)
(0.0012731 -0.00140392 0)
(0.00188908 -0.00104606 0)
(0.00234324 -0.000695667 0)
(0.00264133 -0.000358823 0)
(0.00278772 -3.9406e-05 0)
(0.00279374 0.000258041 0)
(0.00266565 0.000529402 0)
(0.00242251 0.000765405 0)
(0.00207406 0.000954779 0)
(0.00165615 0.00107556 0)
(0.00118627 0.00110572 0)
(0.000731508 0.00101035 0)
(0.000316087 0.000767154 0)
(5.63223e-05 0.000332389 0)
(-7.49336e-05 0.000336491 0)
(-0.000509988 0.0011559 0)
(-0.00131893 0.00188001 0)
(-0.00233173 0.00246164 0)
(-0.00353234 0.00285559 0)
(-0.00481699 0.00310919 0)
(-0.00617477 0.00325216 0)
(-0.00755465 0.00333411 0)
(-0.00895572 0.00337838 0)
(-0.0103545 0.00340703 0)
(-0.0117521 0.00342479 0)
(-0.0131347 0.00343488 0)
(-0.0144997 0.00343265 0)
(-0.0158349 0.00341402 0)
(-0.0171326 0.00337214 0)
(-0.0183793 0.0033015 0)
(-0.0195633 0.00319611 0)
(-0.0206698 0.00305154 0)
(-0.0216854 0.00286389 0)
(-0.0225954 0.00263087 0)
(-0.0233868 0.0023511 0)
(-0.0240467 0.00202465 0)
(-0.0245642 0.00165254 0)
(-0.0249291 0.00123694 0)
(-0.0251332 0.000780934 0)
(-0.025169 0.000288684 0)
(-0.0250306 -0.000234558 0)
(-0.0247131 -0.000782172 0)
(-0.0242132 -0.00134603 0)
(-0.0235293 -0.00191626 0)
(-0.0226621 -0.00248119 0)
(-0.0216153 -0.00302745 0)
(-0.0203964 -0.00354027 0)
(-0.019017 -0.00400404 0)
(-0.0174941 -0.0044031 0)
(-0.0158494 -0.00472274 0)
(-0.01411 -0.00495023 0)
(-0.0123073 -0.00507596 0)
(-0.0104764 -0.00509432 0)
(-0.00865436 -0.0050044 0)
(-0.00687862 -0.00481024 0)
(-0.00518485 -0.00452067 0)
(-0.0036055 -0.00414858 0)
(-0.00216759 -0.00370995 0)
(-0.000892591 -0.00322229 0)
(0.000205447 -0.00270347 0)
(0.00111786 -0.00216992 0)
(0.00184331 -0.00163614 0)
(0.00238311 -0.00111331 0)
(0.00274505 -0.000610362 0)
(0.00293541 -0.000133243 0)
(0.00296793 0.000311588 0)
(0.00285036 0.000717671 0)
(0.00260418 0.00107207 0)
(0.00223981 0.00135776 0)
(0.00179635 0.00154478 0)
(0.00129156 0.00160025 0)
(0.000799121 0.00147732 0)
(0.000345058 0.00113616 0)
(6.08122e-05 0.000508433 0)
(-0.000101172 0.000624149 0)
(-0.00066227 0.00187423 0)
(-0.00167815 0.00290793 0)
(-0.00292018 0.00369872 0)
(-0.00437008 0.00422579 0)
(-0.00590132 0.00455795 0)
(-0.007507 0.00474328 0)
(-0.00912789 0.00484454 0)
(-0.0107658 0.00489342 0)
(-0.0123927 0.00491654 0)
(-0.0140095 0.00492031 0)
(-0.0155988 0.00490801 0)
(-0.0171563 0.00487401 0)
(-0.0186664 0.00481291 0)
(-0.0201197 0.0047164 0)
(-0.0215002 0.00457785 0)
(-0.0227951 0.00439045 0)
(-0.0239885 0.00414955 0)
(-0.0250673 0.00385158 0)
(-0.0260179 0.0034951 0)
(-0.0268295 0.00308003 0)
(-0.0274923 0.00260796 0)
(-0.027999 0.00208146 0)
(-0.0283434 0.00150415 0)
(-0.0285209 0.000880249 0)
(-0.0285272 0.000214803 0)
(-0.0283581 -0.000486272 0)
(-0.0280093 -0.0012157 0)
(-0.0274762 -0.00196448 0)
(-0.0267546 -0.00272136 0)
(-0.0258409 -0.00347258 0)
(-0.0247338 -0.00420172 0)
(-0.0234354 -0.00489002 0)
(-0.0219523 -0.00551695 0)
(-0.020297 -0.00606123 0)
(-0.018489 -0.00650211 0)
(-0.0165551 -0.00682104 0)
(-0.0145293 -0.0070032 0)
(-0.0124516 -0.00703912 0)
(-0.0103665 -0.00692584 0)
(-0.00832059 -0.00666754 0)
(-0.00635947 -0.0062755 0)
(-0.00452531 -0.00576725 0)
(-0.0028536 -0.00516511 0)
(-0.00137227 -0.00449399 0)
(-9.92537e-05 -0.00377948 0)
(0.000955382 -0.0030452 0)
(0.00179135 -0.00231183 0)
(0.00241259 -0.00159525 0)
(0.00283087 -0.00090774 0)
(0.00305643 -0.000257328 0)
(0.00310741 0.000347888 0)
(0.00299457 0.000899609 0)
(0.00274282 0.00138172 0)
(0.00236378 0.00177187 0)
(0.00189946 0.00203208 0)
(0.00136776 0.00211817 0)
(0.00084723 0.00196954 0)
(0.000365448 0.00152654 0)
(6.37692e-05 0.000692667 0)
(-0.000124519 0.000988325 0)
(-0.000801175 0.00276008 0)
(-0.00200791 0.00415251 0)
(-0.00346125 0.00517397 0)
(-0.00514018 0.00584132 0)
(-0.00689606 0.00625137 0)
(-0.00872562 0.00647529 0)
(-0.0105616 0.00659004 0)
(-0.0124088 0.00663632 0)
(-0.0142346 0.00664479 0)
(-0.0160404 0.00662336 0)
(-0.017805 0.00657504 0)
(-0.0195231 0.00649321 0)
(-0.0211762 0.00637121 0)
(-0.0227535 0.00619967 0)
(-0.0242372 0.00597132 0)
(-0.0256144 0.00567933 0)
(-0.0268697 0.00531978 0)
(-0.0279918 0.00489053 0)
(-0.0289704 0.00439217 0)
(-0.0297992 0.00382697 0)
(-0.0304741 0.00319886 0)
(-0.030994 0.00251234 0)
(-0.0313591 0.00177223 0)
(-0.0315698 0.000983094 0)
(-0.0316254 0.000149442 0)
(-0.0315231 -0.000724018 0)
(-0.0312567 -0.00163151 0)
(-0.0308171 -0.00256532 0)
(-0.0301925 -0.00351483 0)
(-0.0293695 -0.00446567 0)
(-0.0283351 -0.00539931 0)
(-0.027079 -0.00629302 0)
(-0.0255956 -0.00712043 0)
(-0.0238874 -0.00785274 0)
(-0.0219664 -0.00846049 0)
(-0.0198562 -0.00891581 0)
(-0.0175924 -0.00919499 0)
(-0.0152218 -0.00928103 0)
(-0.0128005 -0.00916585 0)
(-0.0103906 -0.00885173 0)
(-0.00805537 -0.00835174 0)
(-0.00585538 -0.00768879 0)
(-0.00384266 -0.00689371 0)
(-0.00205846 -0.00600193 0)
(-0.000529445 -0.00505034 0)
(0.000730394 -0.00407331 0)
(0.00172162 -0.0031007 0)
(0.00245237 -0.0021552 0)
(0.00294134 -0.00125358 0)
(0.00320621 -0.000406176 0)
(0.00327306 0.000377723 0)
(0.00315879 0.00108889 0)
(0.00289417 0.00170901 0)
(0.00249374 0.00221126 0)
(0.00200343 0.00254992 0)
(0.00144191 0.00266938 0)
(0.000892447 0.00249389 0)
(0.000383942 0.00194293 0)
(6.62485e-05 0.000888552 0)
(-0.000146037 0.00141972 0)
(-0.000928681 0.00379472 0)
(-0.00230925 0.00558835 0)
(-0.00395429 0.00685726 0)
(-0.0058401 0.00766803 0)
(-0.00779753 0.00815212 0)
(-0.00982679 0.00840819 0)
(-0.011853 0.00852849 0)
(-0.0138838 0.00856323 0)
(-0.0158825 0.0085466 0)
(-0.0178509 0.0084878 0)
(-0.0197646 0.00838922 0)
(-0.0216176 0.00824336 0)
(-0.0233886 0.00804251 0)
(-0.0250667 0.00777682 0)
(-0.026633 0.0074392 0)
(-0.028076 0.00702398 0)
(-0.0293823 0.00652942 0)
(-0.0305455 0.00595644 0)
(-0.0315612 0.00530937 0)
(-0.032432 0.00459425 0)
(-0.033163 0.00381827 0)
(-0.0337636 0.00298793 0)
(-0.0342431 0.0021084 0)
(-0.0346092 0.00118261 0)
(-0.0348652 0.000211686 0)
(-0.0350076 -0.000804423 0)
(-0.0350251 -0.00186533 0)
(-0.0348982 -0.00296857 0)
(-0.0345998 -0.00410761 0)
(-0.0340974 -0.00527032 0)
(-0.033356 -0.00643774 0)
(-0.0323417 -0.00758349 0)
(-0.0310261 -0.00867416 0)
(-0.0293913 -0.00967053 0)
(-0.0274337 -0.0105299 0)
(-0.0251678 -0.0112092 0)
(-0.0226282 -0.0116691 0)
(-0.0198702 -0.0118783 0)
(-0.0169669 -0.0118173 0)
(-0.0140053 -0.0114818 0)
(-0.0110794 -0.0108842 0)
(-0.00828271 -0.0100528 0)
(-0.00569886 -0.00902988 0)
(-0.00339618 -0.00786635 0)
(-0.00142078 -0.00661678 0)
(0.000202634 -0.00533286 0)
(0.00147289 -0.00405949 0)
(0.00240351 -0.00283052 0)
(0.00302404 -0.00166978 0)
(0.00336513 -0.000590643 0)
(0.00346681 0.000397013 0)
(0.00335775 0.00128468 0)
(0.0030793 0.00205372 0)
(0.00265254 0.00267479 0)
(0.00212975 0.00309558 0)
(0.00153183 0.00324971 0)
(0.000947585 0.00304532 0)
(0.000407355 0.00238031 0)
(6.99935e-05 0.00109276 0)
(-0.000165293 0.00191434 0)
(-0.00104346 0.00496784 0)
(-0.00258047 0.00720187 0)
(-0.00439757 0.00873429 0)
(-0.00646872 0.00969185 0)
(-0.00860605 0.0102468 0)
(-0.010813 0.010529 0)
(-0.0130076 0.0106473 0)
(-0.0152002 0.0106618 0)
(-0.0173502 0.01061 0)
(-0.0194603 0.0105022 0)
(-0.0215031 0.0103401 0)
(-0.0234722 0.0101154 0)
(-0.0253449 0.00981976 0)
(-0.0271103 0.00944375 0)
(-0.0287504 0.00898163 0)
(-0.030257 0.00843067 0)
(-0.0316218 0.00779347 0)
(-0.0328473 0.00707656 0)
(-0.0339405 0.00629039 0)
(-0.0349183 0.00544675 0)
(-0.0358019 0.00455692 0)
(-0.0366163 0.00362891 0)
(-0.0373842 0.00266595 0)
(-0.038123 0.00166559 0)
(-0.0388387 0.000620382 0)
(-0.0395242 -0.000480442 0)
(-0.0401562 -0.00164826 0)
(-0.0406956 -0.00289197 0)
(-0.0410885 -0.0042147 0)
(-0.0412695 -0.00561083 0)
(-0.0411665 -0.0070636 0)
(-0.0407063 -0.00854362 0)
(-0.039822 -0.0100086 0)
(-0.0384607 -0.0114044 0)
(-0.0365906 -0.0126681 0)
(-0.0342079 -0.0137323 0)
(-0.0313409 -0.0145313 0)
(-0.0280524 -0.0150074 0)
(-0.0244381 -0.0151188 0)
(-0.0206215 -0.0148449 0)
(-0.0167441 -0.0141911 0)
(-0.0129541 -0.0131894 0)
(-0.00939138 -0.011896 0)
(-0.00617536 -0.0103847 0)
(-0.00339252 -0.00873829 0)
(-0.00109353 -0.0070377 0)
(0.000710579 -0.00535424 0)
(0.00203744 -0.00374195 0)
(0.00293192 -0.00223756 0)
(0.00344567 -0.000859936 0)
(0.00364236 0.000380722 0)
(0.00357196 0.00147895 0)
(0.00329485 0.00241887 0)
(0.00284516 0.00317197 0)
(0.00228654 0.00368175 0)
(0.00164518 0.00387272 0)
(0.001018 0.00363684 0)
(0.000437711 0.00284967 0)
(7.51198e-05 0.00131203 0)
(-0.000182939 0.00246449 0)
(-0.00114771 0.00626306 0)
(-0.00282552 0.00897131 0)
(-0.00479683 0.0107803 0)
(-0.00703369 0.0118863 0)
(-0.00933154 0.0125081 0)
(-0.0116969 0.0128101 0)
(-0.0140416 0.0129188 0)
(-0.0163784 0.0129047 0)
(-0.0186633 0.0128081 0)
(-0.0209 0.0126408 0)
(-0.0230586 0.0124033 0)
(-0.0251332 0.0120871 0)
(-0.0271 0.011684 0)
(-0.0289501 0.0111861 0)
(-0.0306682 0.0105912 0)
(-0.032253 0.0099022 0)
(-0.0337065 0.00912968 0)
(-0.0350465 0.00828967 0)
(-0.0363001 0.00740232 0)
(-0.0375076 0.00648755 0)
(-0.0387148 0.00556118 0)
(-0.0399696 0.00463058 0)
(-0.0413125 0.00369245 0)
(-0.0427706 0.00273197 0)
(-0.0443501 0.00172468 0)
(-0.0460327 0.00063965 0)
(-0.0477726 -0.000555792 0)
(-0.0494972 -0.00189096 0)
(-0.0511094 -0.00338645 0)
(-0.0524927 -0.00504924 0)
(-0.0535184 -0.00686845 0)
(-0.0540547 -0.00881242 0)
(-0.0539774 -0.0108274 0)
(-0.0531812 -0.0128383 0)
(-0.051591 -0.0147527 0)
(-0.0491719 -0.0164659 0)
(-0.0459367 -0.0178704 0)
(-0.0419516 -0.0188653 0)
(-0.0373354 -0.0193683 0)
(-0.0322562 -0.0193263 0)
(-0.02692 -0.0187241 0)
(-0.0215551 -0.0175896 0)
(-0.0163903 -0.0159927 0)
(-0.0116332 -0.0140378 0)
(-0.00744672 -0.0118507 0)
(-0.00393779 -0.0095612 0)
(-0.00114751 -0.0072873 0)
(0.000937267 -0.00512085 0)
(0.00237892 -0.00312408 0)
(0.00326007 -0.00132773 0)
(0.00368234 0.000256536 0)
(0.00373212 0.00162926 0)
(0.00350286 0.00278223 0)
(0.00305309 0.00369336 0)
(0.00246655 0.00430665 0)
(0.00178047 0.00454087 0)
(0.00110447 0.00427289 0)
(0.000476007 0.00335524 0)
(8.19629e-05 0.00154832 0)
(-0.000198878 0.0030663 0)
(-0.00124183 0.0076704 0)
(-0.00304636 0.0108833 0)
(-0.00515605 0.0129807 0)
(-0.00754158 0.0142371 0)
(-0.00998354 0.0149227 0)
(-0.0124916 0.0152395 0)
(-0.014972 0.0153323 0)
(-0.01744 0.0152826 0)
(-0.0198487 0.0151337 0)
(-0.022203 0.0148982 0)
(-0.0244712 0.0145762 0)
(-0.0266483 0.0141595 0)
(-0.0287113 0.013641 0)
(-0.0306551 0.0130167 0)
(-0.0324711 0.0122912 0)
(-0.0341703 0.0114779 0)
(-0.0357736 0.0106009 0)
(-0.0373249 0.0096915 0)
(-0.0388833 0.00878436 0)
(-0.040525 0.00790967 0)
(-0.0423306 0.00708639 0)
(-0.0443775 0.00631598 0)
(-0.0467255 0.0055797 0)
(-0.0494081 0.00483901 0)
(-0.052423 0.00403943 0)
(-0.0557278 0.00311653 0)
(-0.0592375 0.00200345 0)
(-0.0628268 0.000638778 0)
(-0.0663344 -0.00102522 0)
(-0.0695713 -0.00301504 0)
(-0.0723314 -0.0053292 0)
(-0.0744054 -0.00793342 0)
(-0.0755956 -0.0107583 0)
(-0.0757304 -0.0137 0)
(-0.0746789 -0.0166247 0)
(-0.0723633 -0.0193763 0)
(-0.0687698 -0.0217871 0)
(-0.0639559 -0.0236925 0)
(-0.0580549 -0.0249462 0)
(-0.0512754 -0.0254378 0)
(-0.0438928 -0.0251082 0)
(-0.0362334 -0.0239622 0)
(-0.0286474 -0.0220736 0)
(-0.0214765 -0.0195795 0)
(-0.0150144 -0.0166645 0)
(-0.00947742 -0.0135344 0)
(-0.00498008 -0.0103871 0)
(-0.00154002 -0.0073848 0)
(0.000915121 -0.00464069 0)
(0.00250702 -0.00221284 0)
(0.00339358 -0.000119951 0)
(0.00371989 0.0016471 0)
(0.00363434 0.00309471 0)
(0.00323836 0.00421618 0)
(0.00265038 0.00496412 0)
(0.00192873 0.00525771 0)
(0.00120338 0.00496202 0)
(0.000520985 0.00390641 0)
(9.01998e-05 0.00180749 0)
(-0.000213536 0.00371411 0)
(-0.00132765 0.00917767 0)
(-0.00324691 0.0129219 0)
(-0.00548158 0.015318 0)
(-0.00800149 0.0167263 0)
(-0.0105742 0.0174731 0)
(-0.0132126 0.0178005 0)
(-0.0158181 0.0178727 0)
(-0.0184087 0.0177824 0)
(-0.0209352 0.0175756 0)
(-0.0234038 0.0172663 0)
(-0.0257818 0.0168541 0)
(-0.0280666 0.0163324 0)
(-0.0302376 0.0156975 0)
(-0.0322974 0.014953 0)
(-0.0342502 0.014116 0)
(-0.0361288 0.0132178 0)
(-0.0379855 0.0123046 0)
(-0.0399056 0.0114309 0)
(-0.0419961 0.0106507 0)
(-0.0443826 0.0100045 0)
(-0.047189 0.00950896 0)
(-0.050524 0.00914852 0)
(-0.0544618 0.00887413 0)
(-0.0590307 0.00860633 0)
(-0.0642025 0.0082429 0)
(-0.0698897 0.00766871 0)
(-0.0759442 0.00676702 0)
(-0.0821629 0.00543124 0)
(-0.0882964 0.003577 0)
(-0.0940624 0.0011533 0)
(-0.0991628 -0.00184797 0)
(-0.103303 -0.00538569 0)
(-0.106208 -0.00936708 0)
(-0.107642 -0.0136496 0)
(-0.107418 -0.0180471 0)
(-0.105413 -0.022339 0)
(-0.101574 -0.0262836 0)
(-0.0959343 -0.0296337 0)
(-0.0886145 -0.0321559 0)
(-0.0798362 -0.0336532 0)
(-0.0699205 -0.0339883 0)
(-0.0592809 -0.033108 0)
(-0.0484001 -0.0310595 0)
(-0.0377917 -0.0279968 0)
(-0.0279442 -0.0241678 0)
(-0.0192642 -0.0198819 0)
(-0.0120197 -0.0154632 0)
(-0.00632179 -0.011198 0)
(-0.00212216 -0.00729972 0)
(0.0007354 -0.00388773 0)
(0.00248275 -0.00100454 0)
(0.00335284 0.0013666 0)
(0.00358092 0.00325518 0)
(0.00333987 0.00468336 0)
(0.00280574 0.00562556 0)
(0.00207449 0.00601217 0)
(0.0013084 0.00570314 0)
(0.000570934 0.00450627 0)
(9.96868e-05 0.00209191 0)
(-0.000226923 0.00440458 0)
(-0.00140587 0.0107767 0)
(-0.00342953 0.0150766 0)
(-0.00577784 0.0177808 0)
(-0.00842038 0.0193429 0)
(-0.0111133 0.0201498 0)
(-0.0138729 0.0204855 0)
(-0.0165966 0.0205346 0)
(-0.0193053 0.0204011 0)
(-0.0219479 0.0201338 0)
(-0.0245326 0.0197485 0)
(-0.0270271 0.0192452 0)
(-0.0294325 0.0186208 0)
(-0.0317342 0.0178786 0)
(-0.0339484 0.0170364 0)
(-0.036102 0.0161327 0)
(-0.0382636 0.0152283 0)
(-0.0405344 0.014403 0)
(-0.0430604 0.0137434 0)
(-0.0460129 0.0133251 0)
(-0.0495767 0.0131937 0)
(-0.0539204 0.0133498 0)
(-0.0591756 0.0137418 0)
(-0.0654134 0.014268 0)
(-0.0726328 0.0147846 0)
(-0.0807511 0.0151195 0)
(-0.0896034 0.0150868 0)
(-0.0989461 0.0145036 0)
(-0.108469 0.013207 0)
(-0.117812 0.011072 0)
(-0.12659 0.00802651 0)
(-0.134418 0.00406237 0)
(-0.140931 -0.00075916 0)
(-0.145808 -0.0063085 0)
(-0.148775 -0.0123937 0)
(-0.149615 -0.0187697 0)
(-0.148173 -0.0251489 0)
(-0.144355 -0.0312134 0)
(-0.138144 -0.0366291 0)
(-0.12961 -0.0410634 0)
(-0.118926 -0.0442085 0)
(-0.106393 -0.0458111 0)
(-0.092448 -0.045708 0)
(-0.0776618 -0.0438621 0)
(-0.0627134 -0.0403912 0)
(-0.0483293 -0.0355753 0)
(-0.035198 -0.029833 0)
(-0.0238656 -0.0236611 0)
(-0.0146607 -0.0175474 0)
(-0.0076509 -0.0118907 0)
(-0.00268817 -0.00694245 0)
(0.000536084 -0.00281133 0)
(0.00237417 0.000514104 0)
(0.00319108 0.00309343 0)
(0.00327308 0.00499619 0)
(0.00288853 0.00623908 0)
(0.00219694 0.00678154 0)
(0.00141112 0.00649056 0)
(0.000623469 0.00515736 0)
(0.000110117 0.00240504 0)
(-0.000239304 0.00513375 0)
(-0.00147772 0.0124591 0)
(-0.00359691 0.0173364 0)
(-0.00604942 0.0203576 0)
(-0.00880506 0.0220761 0)
(-0.01161 0.0229431 0)
(-0.0144844 0.0232868 0)
(-0.0173224 0.0233127 0)
(-0.020148 0.0231363 0)
(-0.022909 0.0228095 0)
(-0.0256166 0.0223503 0)
(-0.02824 0.0217611 0)
(-0.030787 0.0210455 0)
(-0.0332547 0.0202205 0)
(-0.0356822 0.0193278 0)
(-0.0381329 0.0184413 0)
(-0.0407308 0.0176671 0)
(-0.0436474 0.0171319 0)
(-0.0471084 0.0169602 0)
(-0.0513606 0.0172452 0)
(-0.0566478 0.0180215 0)
(-0.0631692 0.0192493 0)
(-0.0710541 0.0208115 0)
(-0.0803366 0.0225232 0)
(-0.0909461 0.0241482 0)
(-0.102701 0.0254186 0)
(-0.115314 0.0260573 0)
(-0.128406 0.0258028 0)
(-0.141531 0.0244352 0)
(-0.154213 0.0218002 0)
(-0.165982 0.0178271 0)
(-0.176407 0.0125358 0)
(-0.185117 0.00603406 0)
(-0.191807 -0.00149318 0)
(-0.196232 -0.0097976 0)
(-0.198198 -0.0185803 0)
(-0.197551 -0.027502 0)
(-0.194169 -0.0361896 0)
(-0.18797 -0.0442431 0)
(-0.178921 -0.0512441 0)
(-0.167072 -0.0567722 0)
(-0.152593 -0.0604324 0)
(-0.135816 -0.0618976 0)
(-0.117273 -0.060964 0)
(-0.0977068 -0.0576123 0)
(-0.0780403 -0.0520584 0)
(-0.0592899 -0.0447693 0)
(-0.0424165 -0.0364185 0)
(-0.0281617 -0.0277738 0)
(-0.0169034 -0.0195481 0)
(-0.00863501 -0.0122577 0)
(-0.0030208 -0.00617493 0)
(0.000427852 -0.00133857 0)
(0.0022567 0.00233732 0)
(0.00292381 0.00499212 0)
(0.00284071 0.0067144 0)
(0.00226983 0.00752093 0)
(0.00150174 0.0073064 0)
(0.000676384 0.00585608 0)
(0.000121426 0.00274813 0)
(-0.000250644 0.00589866 0)
(-0.00154347 0.0142179 0)
(-0.00375031 0.019693 0)
(-0.00629883 0.0230399 0)
(-0.00915966 0.0249183 0)
(-0.0120704 0.0258473 0)
(-0.0150553 0.0262008 0)
(-0.0180059 0.026206 0)
(-0.0209499 0.0259903 0)
(-0.023835 0.0256091 0)
(-0.026676 0.0250838 0)
(-0.0294464 0.0244219 0)
(-0.0321652 0.0236396 0)
(-0.0348492 0.0227777 0)
(-0.0375738 0.0219175 0)
(-0.0404586 0.0211875 0)
(-0.0437053 0.0207572 0)
(-0.0475774 0.0208118 0)
(-0.0523921 0.0215118 0)
(-0.0584695 0.0229496 0)
(-0.0660922 0.0251182 0)
(-0.0754552 0.0278991 0)
(-0.0866391 0.0310707 0)
(-0.0995864 0.0343277 0)
(-0.114097 0.0373077 0)
(-0.129826 0.0396203 0)
(-0.146311 0.0408823 0)
(-0.162996 0.0407569 0)
(-0.179298 0.0389916 0)
(-0.194656 0.0354461 0)
(-0.208585 0.0301032 0)
(-0.220702 0.0230603 0)
(-0.23073 0.0145074 0)
(-0.238482 0.00470122 0)
(-0.243829 -0.00605714 0)
(-0.246672 -0.0174374 0)
(-0.246911 -0.0290854 0)
(-0.244429 -0.0406209 0)
(-0.23908 -0.0516302 0)
(-0.230704 -0.0616586 0)
(-0.219157 -0.0702101 0)
(-0.204362 -0.0767605 0)
(-0.186382 -0.0807923 0)
(-0.165503 -0.0818579 0)
(-0.14231 -0.0796705 0)
(-0.117729 -0.0742109 0)
(-0.0929987 -0.0658209 0)
(-0.0695324 -0.0552359 0)
(-0.0486863 -0.0435053 0)
(-0.0314575 -0.0317902 0)
(-0.018281 -0.0210855 0)
(-0.00898002 -0.0120292 0)
(-0.00297814 -0.00483325 0)
(0.000493196 0.000574988 0)
(0.00213909 0.00442352 0)
(0.00258688 0.00691291 0)
(0.00226062 0.00816027 0)
(0.00156908 0.00812152 0)
(0.000727581 0.00659553 0)
(0.000133673 0.00312283 0)
(-0.000261045 0.00669625 0)
(-0.00160353 0.0160469 0)
(-0.00389065 0.0221387 0)
(-0.00652785 0.0258201 0)
(-0.00948704 0.027863 0)
(-0.0124987 0.0288577 0)
(-0.0155911 0.0292255 0)
(-0.0186545 0.0292157 0)
(-0.0217205 0.0289681 0)
(-0.0247376 0.0285423 0)
(-0.0277263 0.0279656 0)
(-0.0306677 0.0272551 0)
(-0.0335985 0.0264492 0)
(-0.036567 0.0256278 0)
(-0.0397027 0.0249331 0)
(-0.043204 0.0245716 0)
(-0.047373 0.0247938 0)
(-0.0525783 0.0258455 0)
(-0.0592253 0.0279048 0)
(-0.0676814 0.0310262 0)
(-0.0782229 0.0351125 0)
(-0.090981 0.0399162 0)
(-0.105917 0.0450622 0)
(-0.122804 0.0500809 0)
(-0.141231 0.0544475 0)
(-0.160619 0.0576296 0)
(-0.180277 0.0591453 0)
(-0.199477 0.0586232 0)
(-0.217547 0.0558485 0)
(-0.233945 0.05078 0)
(-0.248297 0.0435328 0)
(-0.260399 0.0343386 0)
(-0.270184 0.0234994 0)
(-0.277679 0.0113464 0)
(-0.28295 -0.00178712 0)
(-0.286053 -0.0155779 0)
(-0.286998 -0.0297104 0)
(-0.285714 -0.043862 0)
(-0.282033 -0.0576808 0)
(-0.275688 -0.0707583 0)
(-0.266333 -0.0826049 0)
(-0.253587 -0.0926363 0)
(-0.237117 -0.100182 0)
(-0.216752 -0.104533 0)
(-0.192623 -0.105036 0)
(-0.165311 -0.101239 0)
(-0.135933 -0.0930827 0)
(-0.106136 -0.0810636 0)
(-0.0778946 -0.0663034 0)
(-0.0531142 -0.0504099 0)
(-0.0331486 -0.0350904 0)
(-0.0184305 -0.0216988 0)
(-0.00853486 -0.0109096 0)
(-0.00249944 -0.00280508 0)
(0.000706458 0.00292048 0)
(0.00202455 0.00662627 0)
(0.00212655 0.00859262 0)
(0.00159933 0.00888937 0)
(0.000775047 0.00736227 0)
(0.000147201 0.00352988 0)
(-0.000270315 0.00752329 0)
(-0.00165736 0.0179393 0)
(-0.0040173 0.0246656 0)
(-0.006736 0.0286907 0)
(-0.0097871 0.0309042 0)
(-0.0128952 0.0319702 0)
(-0.016093 0.0323592 0)
(-0.0192701 0.0323432 0)
(-0.0224625 0.0320752 0)
(-0.0256213 0.0316203 0)
(-0.0287749 0.0310152 0)
(-0.0319168 0.0302943 0)
(-0.0351109 0.0295323 0)
(-0.0384519 0.0288698 0)
(-0.0421445 0.0285368 0)
(-0.0464885 0.0288416 0)
(-0.0519011 0.030125 0)
(-0.0588529 0.0326774 0)
(-0.0678075 0.0366523 0)
(-0.0791256 0.0420072 0)
(-0.0930052 0.0484902 0)
(-0.109429 0.0556619 0)
(-0.128147 0.0629368 0)
(-0.148664 0.0696333 0)
(-0.17027 0.0750371 0)
(-0.192098 0.0784838 0)
(-0.213242 0.0794529 0)
(-0.232889 0.0776439 0)
(-0.250427 0.0730045 0)
(-0.265499 0.0657029 0)
(-0.277994 0.0560611 0)
(-0.288 0.0444797 0)
(-0.295734 0.0313723 0)
(-0.30147 0.0171208 0)
(-0.305485 0.00205385 0)
(-0.308003 -0.0135569 0)
(-0.309161 -0.0294844 0)
(-0.308979 -0.0455224 0)
(-0.307332 -0.0614521 0)
(-0.303932 -0.0770005 0)
(-0.298322 -0.0917932 0)
(-0.289887 -0.105309 0)
(-0.277913 -0.116846 0)
(-0.261685 -0.125524 0)
(-0.240659 -0.130337 0)
(-0.214684 -0.130297 0)
(-0.184247 -0.124668 0)
(-0.150664 -0.11328 0)
(-0.116106 -0.096825 0)
(-0.0833121 -0.0769958 0)
(-0.0549544 -0.0562123 0)
(-0.0327995 -0.0369516 0)
(-0.0172075 -0.020905 0)
(-0.00729318 -0.0086953 0)
(-0.00167953 -6.06296e-05 0)
(0.0010069 0.00554864 0)
(0.00180682 0.00866138 0)
(0.00157287 0.0095417 0)
(0.000815778 0.00813633 0)
(0.000162453 0.00397051 0)
(-0.000278398 0.00837668 0)
(-0.00170449 0.019889 0)
(-0.00412922 0.0272671 0)
(-0.00692192 0.0316456 0)
(-0.0100583 0.0340372 0)
(-0.0132583 0.0351825 0)
(-0.0165593 0.0356026 0)
(-0.0198511 0.0355927 0)
(-0.0231749 0.0353203 0)
(-0.0264861 0.0348585 0)
(-0.0298243 0.0342589 0)
(-0.0332023 0.0335848 0)
(-0.0367225 0.0329667 0)
(-0.0405438 0.0326337 0)
(-0.044967 0.0329326 0)
(-0.0504094 0.0342913 0)
(-0.0574019 0.0371313 0)
(-0.0664866 0.0417444 0)
(-0.0781261 0.0481903 0)
(-0.092593 0.0562498 0)
(-0.109912 0.0654389 0)
(-0.129814 0.0750553 0)
(-0.151728 0.0842424 0)
(-0.174799 0.0920692 0)
(-0.197968 0.0976446 0)
(-0.220124 0.100257 0)
(-0.240291 0.0994967 0)
(-0.25778 0.0953053 0)
(-0.272255 0.0879333 0)
(-0.283713 0.0778386 0)
(-0.292403 0.065571 0)
(-0.298727 0.0516759 0)
(-0.303153 0.0366317 0)
(-0.306136 0.0208193 0)
(-0.30808 0.00451817 0)
(-0.309308 -0.0120836 0)
(-0.310045 -0.028869 0)
(-0.310407 -0.0457669 0)
(-0.310373 -0.06272 0)
(-0.309759 -0.0796432 0)
(-0.308177 -0.0963677 0)
(-0.304997 -0.112572 0)
(-0.299338 -0.127706 0)
(-0.290102 -0.140923 0)
(-0.2761 -0.151054 0)
(-0.256272 -0.156673 0)
(-0.230028 -0.156289 0)
(-0.197646 -0.148717 0)
(-0.160628 -0.13358 0)
(-0.121805 -0.111854 0)
(-0.0849423 -0.086066 0)
(-0.053697 -0.0598522 0)
(-0.0302744 -0.036624 0)
(-0.0146949 -0.0183718 0)
(-0.00546355 -0.00531279 0)
(-0.000684138 0.00323106 0)
(0.00120899 0.00813604 0)
(0.00145829 0.00997701 0)
(0.000843839 0.00888613 0)
(0.000179712 0.00444509 0)
(-0.000284887 0.00925193 0)
(-0.00174337 0.0218874 0)
(-0.00422364 0.0299333 0)
(-0.00708179 0.0346758 0)
(-0.0102959 0.0372547 0)
(-0.0135825 0.0384892 0)
(-0.0169836 0.0389527 0)
(-0.0203902 0.0389647 0)
(-0.0238497 0.0387086 0)
(-0.0273238 0.0382693 0)
(-0.0308676 0.0377219 0)
(-0.0345214 0.0371743 0)
(-0.0384395 0.0368384 0)
(-0.0428631 0.0370629 0)
(-0.048205 0.0383377 0)
(-0.0550015 0.041211 0)
(-0.0638706 0.0461476 0)
(-0.0753661 0.053366 0)
(-0.0898631 0.0627391 0)
(-0.107445 0.0737773 0)
(-0.127856 0.0856787 0)
(-0.150466 0.0974043 0)
(-0.174294 0.107779 0)
(-0.198095 0.115641 0)
(-0.220551 0.120036 0)
(-0.240516 0.120404 0)
(-0.257223 0.116669 0)
(-0.270368 0.109178 0)
(-0.280065 0.0985593 0)
(-0.286734 0.0855506 0)
(-0.290954 0.0708619 0)
(-0.29334 0.055092 0)
(-0.294461 0.0386959 0)
(-0.294792 0.0219872 0)