/*--------------------------------*- C++ -*----------------------------------*\
| =========                 |                                                 |
| \\      /  F ield         | OpenFOAM: The Open Source CFD Toolbox           |
|  \\    /   O peration     | Version:  2406                                  |
|   \\  /    A nd           | Website:  www.openfoam.com                      |
|    \\/     M anipulation  |                                                 |
\*---------------------------------------------------------------------------*/
FoamFile
{
    version     2.0;
    format      ascii;
    arch        "LSB;label=32;scalar=64";
    class       volVectorField;
    location    "35.2";
    object      U;
}
// * * * * * * * * * * * * * * * * * * * * * * * * * * * * * * * * * * * * * //

dimensions      [0 1 -1 0 0 0 0];

internalField   nonuniform List<vector> 
900
(
(0.000297974 -0.000516153 0)
(0.0035562 -0.00123312 0)
(0.00728116 -0.000982087 0)
(0.0088465 -0.000542796 0)
(0.00932061 -0.000455169 0)
(0.00909706 -0.00072701 0)
(0.00893723 -0.00112885 0)
(0.00867437 -0.00158062 0)
(0.00761225 -0.00288371 0)
(0.00334012 -0.00457846 0)
(-0.00636049 -0.00314717 0)
(-0.0226624 0.00266288 0)
(-0.0447463 0.00883815 0)
(-0.0686832 0.0117744 0)
(-0.090425 0.0116544 0)
(-0.107619 0.00982724 0)
(-0.11886 0.00698839 0)
(-0.12313 0.00351626 0)
(-0.119955 -0.000343803 0)
(-0.10874 -0.00436245 0)
(-0.0899186 -0.00819296 0)
(-0.0637133 -0.0112794 0)
(-0.0330007 -0.0127893 0)
(-0.000414854 -0.0116843 0)
(0.0264096 -0.00675107 0)
(0.04163 0.000550237 0)
(0.0390896 0.0066306 0)
(0.0256902 0.00718814 0)
(0.0122116 0.00493576 0)
(0.00158539 0.00198716 0)
(0.00117839 -0.00331927 0)
(0.00676657 -0.00584774 0)
(0.0122331 -0.0042643 0)
(0.0140478 -0.00151724 0)
(0.0133685 0.000247076 0)
(0.0101097 0.00112348 0)
(0.00390763 0.00159956 0)
(-0.0085442 0.00292032 0)
(-0.0303227 0.0083323 0)
(-0.0613518 0.0188844 0)
(-0.097359 0.0295892 0)
(-0.131956 0.0361181 0)
(-0.161057 0.0374798 0)
(-0.183715 0.0341457 0)
(-0.200164 0.0275332 0)
(-0.210358 0.0188386 0)
(-0.214145 0.00876652 0)
(-0.211266 -0.00223713 0)
(-0.201513 -0.013817 0)
(-0.184499 -0.0255828 0)
(-0.160262 -0.0366552 0)
(-0.128873 -0.0457709 0)
(-0.0917953 -0.0504921 0)
(-0.0513464 -0.0481525 0)
(-0.0126249 -0.0352237 0)
(0.0179697 -0.013476 0)
(0.031611 0.00960518 0)
(0.0269735 0.0193807 0)
(0.0157116 0.0194753 0)
(0.0023899 0.0118151 0)
(0.00201081 -0.00840207 0)
(0.00807985 -0.0123588 0)
(0.0122461 -0.00821241 0)
(0.0112605 -0.00173324 0)
(0.00594109 0.003468 0)
(-0.0056434 0.00866356 0)
(-0.0266671 0.0175087 0)
(-0.0595159 0.0327236 0)
(-0.100748 0.0498687 0)
(-0.141845 0.0619839 0)
(-0.177147 0.0668793 0)
(-0.205228 0.0659254 0)
(-0.226327 0.0601586 0)
(-0.241359 0.0504048 0)
(-0.251273 0.0378608 0)
(-0.256563 0.0234 0)
(-0.257549 0.00757443 0)
(-0.254163 -0.00941052 0)
(-0.246205 -0.027264 0)
(-0.233106 -0.0457826 0)
(-0.214264 -0.063769 0)
(-0.188956 -0.079835 0)
(-0.156659 -0.090094 0)
(-0.11808 -0.0909409 0)
(-0.0745066 -0.0755822 0)
(-0.0319162 -0.0436596 0)
(0.00174101 -0.00202433 0)
(0.0109941 0.0225214 0)
(0.0089031 0.0294978 0)
(0.000382509 0.0197256 0)
(0.00255776 -0.0133611 0)
(0.00683828 -0.0161574 0)
(0.00643879 -0.00736364 0)
(-0.0010109 0.00481551 0)
(-0.0163081 0.0172394 0)
(-0.0426021 0.0338426 0)
(-0.0804731 0.0555928 0)
(-0.123832 0.0769139 0)
(-0.163829 0.0906241 0)
(-0.196328 0.0954825 0)
(-0.22138 0.0931791 0)
(-0.239536 0.0854372 0)
(-0.25185 0.0737106 0)
(-0.259616 0.0591943 0)
(-0.264037 0.0428532 0)
(-0.265854 0.0251828 0)
(-0.265595 0.00641125 0)
(-0.263352 -0.01365 0)
(-0.259072 -0.0349463 0)
(-0.252178 -0.0577661 0)
(-0.241896 -0.0809882 0)
(-0.22681 -0.103789 0)
(-0.2051 -0.121598 0)
(-0.175107 -0.130764 0)
(-0.134697 -0.121194 0)
(-0.0864014 -0.0897252 0)
(-0.033947 -0.032513 0)
(-0.00184911 0.0120159 0)
(0.00329595 0.0305128 0)
(-0.00124784 0.0212073 0)
(0.00228222 -0.0178228 0)
(0.00215056 -0.0163592 0)
(-0.00562793 -0.000371614 0)
(-0.0225082 0.0209527 0)
(-0.0498134 0.045025 0)
(-0.08733 0.0727065 0)
(-0.129213 0.0985944 0)
(-0.16708 0.115995 0)
(-0.196645 0.122167 0)
(-0.217952 0.119214 0)
(-0.232103 0.109799 0)
(-0.240371 0.096186 0)
(-0.244487 0.0800626 0)
(-0.245725 0.0624278 0)
(-0.245395 0.0439811 0)
(-0.244145 0.0248497 0)
(-0.24269 0.00504618 0)
(-0.241151 -0.0159838 0)
(-0.239846 -0.0383653 0)
(-0.238323 -0.0629839 0)
(-0.236281 -0.0890151 0)
(-0.232078 -0.116721 0)
(-0.223766 -0.141771 0)
(-0.207739 -0.161573 0)
(-0.179618 -0.164323 0)
(-0.136303 -0.14441 0)
(-0.0772296 -0.0864001 0)
(-0.0165774 -0.0150314 0)
(0.0032222 0.0290513 0)
(-0.00144 0.0215747 0)
(0.000432187 -0.0177195 0)
(-0.00686183 -0.00817345 0)
(-0.0236155 0.0174472 0)
(-0.0494686 0.0491384 0)
(-0.0841296 0.0821393 0)
(-0.122835 0.113316 0)
(-0.158512 0.135349 0)
(-0.18553 0.144313 0)
(-0.203408 0.141543 0)
(-0.213732 0.131101 0)
(-0.218177 0.115777 0)
(-0.218588 0.0980127 0)
(-0.21664 0.0792583 0)
(-0.213473 0.0602853 0)
(-0.210162 0.0414782 0)
(-0.207078 0.0226393 0)
(-0.204846 0.00363167 0)
(-0.20342 -0.0163777 0)
(-0.203387 -0.0375473 0)
(-0.204409 -0.0612806 0)
(-0.207028 -0.0870142 0)
(-0.209979 -0.116367 0)
(-0.212483 -0.145857 0)
(-0.210578 -0.175173 0)
(-0.199418 -0.192711 0)
(-0.172106 -0.192433 0)
(-0.122038 -0.151919 0)
(-0.0510513 -0.0687463 0)
(0.00599441 0.0157623 0)
(-0.00177369 0.0229758 0)
(-0.00230742 -0.0114905 0)
(-0.0171016 0.00768075 0)
(-0.0413777 0.0421795 0)
(-0.0721211 0.0814419 0)
(-0.107506 0.118283 0)
(-0.14097 0.146961 0)
(-0.167096 0.161155 0)
(-0.18327 0.160833 0)
(-0.19151 0.150311 0)
(-0.193698 0.133946 0)
(-0.192006 0.114638 0)
(-0.18829 0.0946517 0)
(-0.183939 0.0749705 0)
(-0.179675 0.0559624 0)
(-0.176113 0.03765 0)
(-0.173174 0.019557 0)
(-0.171263 0.00151996 0)
(-0.170023 -0.0174081 0)
(-0.170162 -0.0371453 0)
(-0.171209 -0.0593024 0)
(-0.174377 -0.0831072 0)
(-0.178737 -0.111224 0)
(-0.185213 -0.14082 0)
(-0.190743 -0.174625 0)
(-0.192457 -0.20264 0)
(-0.182762 -0.22213 0)
(-0.150934 -0.207008 0)
(-0.0947753 -0.144523 0)
(-0.00789023 -0.0191372 0)
(0.00489752 0.0254027 0)
(-0.00509107 0.00173303 0)
(-0.0259478 0.0311374 0)
(-0.0545977 0.0725295 0)
(-0.0859697 0.115407 0)
(-0.117905 0.150955 0)
(-0.143736 0.172946 0)
(-0.160595 0.177682 0)
(-0.168277 0.16884 0)
(-0.169922 0.152088 0)
(-0.16743 0.131736 0)
(-0.163229 0.110484 0)
(-0.158689 0.0900359 0)
(-0.154697 0.0707215 0)
(-0.151394 0.0524799 0)
(-0.148956 0.035025 0)
(-0.14697 0.0177346 0)
(-0.145764 0.000521919 0)
(-0.144786 -0.0176147 0)
(-0.144909 -0.0362858 0)
(-0.14541 -0.0572734 0)
(-0.147907 -0.0793208 0)
(-0.151296 -0.105759 0)
(-0.15772 -0.133583 0)
(-0.164701 -0.168022 0)
(-0.17225 -0.200545 0)
(-0.173293 -0.233592 0)
(-0.159576 -0.240562 0)
(-0.122544 -0.211302 0)
(-0.0452609 -0.0841021 0)
(0.0183515 0.0202391 0)
(-0.00665268 0.0193667 0)
(-0.0306512 0.0572358 0)
(-0.0603385 0.101985 0)
(-0.0894099 0.144687 0)
(-0.116184 0.175853 0)
(-0.13468 0.189587 0)
(-0.144508 0.185636 0)
(-0.146767 0.170157 0)
(-0.145123 0.149434 0)
(-0.141174 0.127229 0)
(-0.137323 0.105864 0)
(-0.134026 0.0860729 0)
(-0.13177 0.0676578 0)
(-0.130057 0.0501631 0)
(-0.128935 0.0332497 0)
(-0.127753 0.0162899 0)
(-0.126993 -0.000577516 0)
(-0.125933 -0.0183802 0)
(-0.125702 -0.0363564 0)
(-0.125252 -0.0565059 0)
(-0.126573 -0.0769716 0)
(-0.128116 -0.101708 0)
(-0.132965 -0.12708 0)
(-0.138643 -0.160357 0)
(-0.147771 -0.193741 0)
(-0.153853 -0.23458 0)
(-0.152519 -0.258467 0)
(-0.130335 -0.257668 0)
(-0.0780273 -0.162994 0)
(0.008828 -0.000306561 0)
(-0.00701496 0.0390362 0)
(-0.0315326 0.08506 0)
(-0.0599585 0.131183 0)
(-0.0853112 0.171342 0)
(-0.106679 0.196158 0)
(-0.119164 0.201384 0)
(-0.124246 0.189854 0)
(-0.123722 0.169591 0)
(-0.12117 0.146582 0)
(-0.117871 0.124022 0)
(-0.115736 0.103397 0)
(-0.114392 0.0845119 0)
(-0.11402 0.0668032 0)
(-0.113714 0.0496199 0)
(-0.113637 0.032782 0)
(-0.113015 0.0157053 0)
(-0.112602 -0.00119935 0)
(-0.111486 -0.019075 0)
(-0.111103 -0.03679 0)
(-0.109979 -0.0566749 0)
(-0.110441 -0.0761673 0)
(-0.110214 -0.0997531 0)
(-0.113086 -0.122652 0)
(-0.115983 -0.153639 0)
(-0.124015 -0.184881 0)
(-0.1313 -0.22891 0)
(-0.137459 -0.263766 0)
(-0.127935 -0.285642 0)
(-0.0925931 -0.223889 0)
(-0.0215869 -0.0476961 0)
(-0.00616429 0.0577726 0)
(-0.0289148 0.11022 0)
(-0.0542066 0.155496 0)
(-0.0751957 0.191347 0)
(-0.0917364 0.209545 0)
(-0.0999423 0.207158 0)
(-0.102577 0.190147 0)
(-0.101332 0.167051 0)
(-0.0995829 0.143508 0)
(-0.0980064 0.121719 0)
(-0.0979786 0.102314 0)
(-0.0984471 0.0842666 0)
(-0.0995503 0.0669529 0)
(-0.100148 0.0496786 0)
(-0.100695 0.0325872 0)
(-0.100276 0.0151205 0)
(-0.0999922 -0.00198955 0)
(-0.0986795 -0.0200849 0)
(-0.0981826 -0.0376442 0)
(-0.0965566 -0.0574899 0)
(-0.0966264 -0.0763907 0)
(-0.0952227 -0.099534 0)
(-0.0968115 -0.120829 0)
(-0.0969458 -0.149992 0)
(-0.102639 -0.177881 0)
(-0.10768 -0.221438 0)
(-0.116631 -0.261358 0)
(-0.114466 -0.302419 0)
(-0.0910747 -0.269524 0)
(-0.0356276 -0.114357 0)
(-0.00457151 0.0741671 0)
(-0.0240468 0.133276 0)
(-0.0454795 0.177335 0)
(-0.0622493 0.208954 0)
(-0.074778 0.220896 0)
(-0.0801964 0.212405 0)
(-0.0817369 0.19135 0)
(-0.0808857 0.166729 0)
(-0.0804846 0.143339 0)
(-0.0807125 0.122494 0)
(-0.0823743 0.103915 0)
(-0.0841292 0.0861171 0)
(-0.0861734 0.0686002 0)
(-0.0873018 0.0507402 0)
(-0.0882523 0.0330394 0)
(-0.0879352 0.0148995 0)
(-0.0877984 -0.00260222 0)
(-0.0863334 -0.0210948 0)
(-0.0858688 -0.0386172 0)
(-0.0838881 -0.0585809 0)
(-0.083905 -0.077066 0)
(-0.0817453 -0.100094 0)
(-0.0828486 -0.120351 0)
(-0.0810473 -0.148501 0)
(-0.0850138 -0.173514 0)
(-0.0869654 -0.215496 0)
(-0.0959056 -0.256508 0)
(-0.0961758 -0.31108 0)
(-0.0811867 -0.303776 0)
(-0.0336212 -0.174926 0)
(-0.00242222 0.0863499 0)
(-0.0176315 0.151114 0)
(-0.0345538 0.193489 0)
(-0.0473249 0.220578 0)
(-0.0566533 0.227387 0)
(-0.0604115 0.214127 0)
(-0.0619379 0.190764 0)
(-0.0620545 0.165717 0)
(-0.0631711 0.143224 0)
(-0.0648662 0.123485 0)
(-0.067718 0.105647 0)
(-0.0702368 0.0879337 0)
(-0.072843 0.070107 0)
(-0.0742424 0.051603 0)
(-0.075486 0.0332855 0)
(-0.0752118 0.0144584 0)
(-0.0752666 -0.0034182 0)
(-0.0736802 -0.0223141 0)
(-0.073384 -0.03978 0)
(-0.0711437 -0.0598919 0)
(-0.0713912 -0.078053 0)
(-0.0687405 -0.101202 0)
(-0.0699325 -0.120863 0)
(-0.0667731 -0.14861 0)
(-0.0697994 -0.17121 0)
(-0.0688159 -0.211268 0)
(-0.0773845 -0.251463 0)
(-0.078586 -0.316796 0)
(-0.0706874 -0.332299 0)
(-0.030271 -0.229405 0)
(-0.00015072 0.0943385 0)
(-0.0105095 0.165481 0)
(-0.0229623 0.206964 0)
(-0.0321766 0.231119 0)
(-0.0388898 0.234041 0)
(-0.0417172 0.217888 0)
(-0.0434456 0.193115 0)
(-0.0444881 0.168097 0)
(-0.0466294 0.146261 0)
(-0.0491881 0.127128 0)
(-0.0526026 0.109417 0)
(-0.0554323 0.0912823 0)
(-0.0583177 0.0727723 0)
(-0.0598576 0.0533478 0)
(-0.0614074 0.0342263 0)
(-0.0612334 0.0145353 0)
(-0.0616446 -0.00383756 0)
(-0.0600602 -0.023261 0)
(-0.0601593 -0.0407341 0)
(-0.0577789 -0.0610318 0)
(-0.0585463 -0.0788861 0)
(-0.0556315 -0.102216 0)
(-0.0574832 -0.12155 0)
(-0.0536245 -0.149504 0)
(-0.0567235 -0.170605 0)
(-0.0533352 -0.20883 0)
(-0.0613156 -0.246001 0)
(-0.0619073 -0.317671 0)
(-0.0602467 -0.352139 0)
(-0.0263031 -0.276157 0)
(0.0022292 0.0970421 0)
(-0.00308605 0.173805 0)
(-0.0108941 0.215037 0)
(-0.0168526 0.236391 0)
(-0.0214303 0.236864 0)
(-0.0236621 0.218655 0)
(-0.0258341 0.193444 0)
(-0.027613 0.168767 0)
(-0.0304512 0.147799 0)
(-0.0333239 0.129283 0)
(-0.0368724 0.111811 0)
(-0.0396319 0.0934537 0)
(-0.042597 0.0745327 0)
(-0.0441256 0.0544568 0)
(-0.0459724 0.0347706 0)
(-0.0458947 0.0143881 0)
(-0.046799 -0.00434939 0)
(-0.045304 -0.0242229 0)
(-0.046036 -0.0416516 0)
(-0.0436255 -0.0620811 0)
(-0.0451819 -0.0795869 0)
(-0.0421122 -0.103031 0)
(-0.0449907 -0.122033 0)
(-0.0407797 -0.150333 0)
(-0.0448769 -0.170512 0)
(-0.0400391 -0.20771 0)
(-0.0484048 -0.241958 0)
(-0.0481366 -0.317965 0)
(-0.0517702 -0.367611 0)
(-0.02274 -0.316348 0)
(0.00430791 0.0953662 0)
(0.00424175 0.178571 0)
(0.000852638 0.220763 0)
(-0.00206901 0.241693 0)
(-0.00460165 0.240965 0)
(-0.00632479 0.222484 0)
(-0.00855904 0.197219 0)
(-0.0106661 0.172847 0)
(-0.0135697 0.152133 0)
(-0.0162379 0.133636 0)
(-0.0194921 0.115931 0)
(-0.0218817 0.0970375 0)
(-0.0247671 0.0775275 0)
(-0.0261666 0.0566537 0)
(-0.0283505 0.0363242 0)
(-0.0284039 0.0151581 0)
(-0.0300193 -0.00400116 0)
(-0.0287548 -0.0243979 0)
(-0.0304485 -0.0418513 0)
(-0.0281883 -0.0624581 0)
(-0.0308971 -0.0796548 0)
(-0.027853 -0.103207 0)
(-0.0321629 -0.121925 0)
(-0.0278586 -0.150656 0)
(-0.0335989 -0.17024 0)
(-0.0278338 -0.206495 0)
(-0.0373042 -0.23688 0)
(-0.035984 -0.314739 0)
(-0.0448174 -0.377014 0)
(-0.0196667 -0.351107 0)
(0.00618072 0.0885659 0)
(0.0111288 0.177011 0)
(0.0122905 0.22132 0)
(0.0122573 0.241657 0)
(0.0115604 0.241091 0)
(0.0104702 0.22252 0)
(0.00816359 0.197702 0)
(0.00603204 0.173586 0)
(0.00326211 0.153256 0)
(0.00118738 0.13496 0)
(-0.00149726 0.117397 0)
(-0.00315698 0.0984478 0)
(-0.00574212 0.0788623 0)
(-0.00676032 0.0576982 0)
(-0.00920558 0.0371798 0)
(-0.00927585 0.0156177 0)
(-0.0116981 -0.00367016 0)
(-0.0106859 -0.0243592 0)
(-0.0135846 -0.0417023 0)
(-0.0115833 -0.0623642 0)
(-0.0157547 -0.0791794 0)
(-0.0128562 -0.102701 0)
(-0.0189485 -0.121025 0)
(-0.0147389 -0.150053 0)
(-0.022761 -0.169313 0)
(-0.0166849 -0.205319 0)
(-0.0282235 -0.232581 0)
(-0.0258543 -0.311169 0)
(-0.0395434 -0.383164 0)
(-0.016936 -0.381358 0)
(0.00728221 0.0782806 0)
(0.0173372 0.172343 0)
(0.0228422 0.219768 0)
(0.0258448 0.242437 0)
(0.0273472 0.242918 0)
(0.0271935 0.226051 0)
(0.0254388 0.201862 0)
(0.0236454 0.177869 0)
(0.021437 0.157212 0)
(0.0202333 0.138459 0)
(0.0183448 0.120577 0)
(0.0176346 0.10127 0)
(0.0154521 0.0815111 0)
(0.0149775 0.0599877 0)
(0.0122425 0.0393132 0)
(0.0122197 0.0173668 0)
(0.008815 -0.00200953 0)
(0.0095236 -0.0229788 0)
(0.00511886 -0.0402271 0)
(0.00672713 -0.0609708 0)
(0.000734028 -0.0774623 0)
(0.00334434 -0.10095 0)
(-0.00489046 -0.118884 0)
(-0.000876852 -0.148059 0)
(-0.0116211 -0.166918 0)
(-0.00549872 -0.2025 0)
(-0.0199485 -0.22632 0)
(-0.0166453 -0.304469 0)
(-0.0355191 -0.384925 0)
(-0.0144756 -0.408164 0)
(0.00766598 0.0640338 0)
(0.0222136 0.161067 0)
(0.0323125 0.212847 0)
(0.0383702 0.236871 0)
(0.041953 0.239747 0)
(0.0430776 0.224249 0)
(0.041814 0.201197 0)
(0.0406018 0.177318 0)
(0.0388842 0.156591 0)
(0.0387429 0.137717 0)
(0.0377393 0.119997 0)
(0.038314 0.100948 0)
(0.036751 0.081641 0)
(0.0371942 0.0604291 0)
(0.0343456 0.0402013 0)
(0.0346566 0.018458 0)
(0.0303135 -0.000545849 0)
(0.0308817 -0.0213885 0)
(0.0248833 -0.0382833 0)
(0.0261422 -0.0588822 0)
(0.0181228 -0.0749315 0)
(0.0204043 -0.0982049 0)
(0.00973154 -0.115637 0)
(0.0134498 -0.144713 0)
(-0.000458775 -0.16321 0)
(0.00544429 -0.198652 0)
(-0.0126688 -0.219815 0)
(-0.00837766 -0.296992 0)
(-0.0326162 -0.384061 0)
(-0.0120197 -0.432019 0)
(0.00639547 0.048688 0)
(0.0254647 0.14755 0)
(0.0399549 0.203826 0)
(0.0496218 0.232813 0)
(0.0561178 0.23843 0)
(0.0591492 0.226332 0)
(0.0592857 0.20462 0)
(0.0590036 0.180885 0)
(0.058024 0.159407 0)
(0.0589446 0.139603 0)
(0.0587522 0.121431 0)
(0.0606346 0.102156 0)
(0.0596304 0.0831583 0)
(0.0611163 0.0621627 0)
(0.0581088 0.0424858 0)
(0.0589179 0.021013 0)
(0.0535572 0.00252158 0)
(0.0541164 -0.0181169 0)
(0.0463742 -0.0345789 0)
(0.0473433 -0.0550014 0)
(0.0370722 -0.070608 0)
(0.0390261 -0.0936287 0)
(0.0256277 -0.110532 0)
(0.029022 -0.139282 0)
(0.0115611 -0.157192 0)
(0.017111 -0.192107 0)
(-0.0054808 -0.210576 0)
(-0.000300332 -0.28628 0)
(-0.0305887 -0.37966 0)
(-0.00944577 -0.453562 0)
(0.00388456 0.0322453 0)
(0.0260282 0.126994 0)
(0.0452865 0.188741 0)
(0.0585879 0.220298 0)
(0.0677475 0.230259 0)
(0.0731736 0.220771 0)
(0.0746252 0.201352 0)
(0.0757247 0.1782 0)
(0.0753684 0.156652 0)
(0.0775249 0.136522 0)
(0.0780145 0.118405 0)
(0.0814305 0.0995297 0)
(0.0810378 0.0813941 0)
(0.0839536 0.0613158 0)
(0.0809584 0.0427806 0)
(0.0827136 0.0222576 0)
(0.0765272 0.00479234 0)
(0.0774985 -0.0151062 0)
(0.0681623 -0.0307848 0)
(0.0691731 -0.0506736 0)
(0.0566844 -0.0656342 0)
(0.0584782 -0.0881108 0)
(0.0422044 -0.104304 0)
(0.0452631 -0.132343 0)
(0.0239085 -0.149525 0)
(0.0289927 -0.183766 0)
(0.00128085 -0.200228 0)
(0.00750799 -0.274167 0)
(-0.0294157 -0.372923 0)
(-0.00650038 -0.472999 0)
(0.000311988 0.019184 0)
(0.0240063 0.106075 0)
(0.0474408 0.171584 0)
(0.0650345 0.210426 0)
(0.0782395 0.224131 0)
(0.0870182 0.219565 0)
(0.0912278 0.202456 0)
(0.0943572 0.180159 0)
(0.0950681 0.158088 0)
(0.0984073 0.136842 0)
(0.0992981 0.118107 0)
(0.103965 0.0988869 0)
(0.103836 0.0813293 0)
(0.108104 0.0618639 0)
(0.104948 0.0445365 0)
(0.107827 0.0249241 0)
(0.10079 0.00867821 0)
(0.102487 -0.0104396 0)
(0.0915612 -0.0251451 0)
(0.0929135 -0.0444264 0)
(0.0781176 -0.0585676 0)
(0.0799276 -0.0803472 0)
(0.0605467 -0.0956254 0)
(0.0632953 -0.12261 0)
(0.0376426 -0.138733 0)
(0.0421379 -0.171738 0)
(0.00850788 -0.186346 0)
(0.0157904 -0.258295 0)
(-0.0288173 -0.363034 0)
(-0.00292665 -0.490589 0)
(-0.00132975 0.00797485 0)
(0.0193293 0.0791364 0)
(0.0462789 0.147798 0)
(0.0673685 0.188854 0)
(0.083482 0.208363 0)
(0.0961247 0.207263 0)
(0.102999 0.194123 0)
(0.109342 0.173824 0)
(0.111569 0.152744 0)
(0.11697 0.131662 0)
(0.118348 0.113094 0)
(0.12471 0.0942694 0)
(0.12469 0.0776376 0)
(0.130726 0.0593869 0)
(0.127341 0.0435711 0)
(0.13188 0.0254829 0)
(0.124088 0.0107802 0)
(0.127122 -0.00696505 0)
(0.114794 -0.0203878 0)
(0.117042 -0.0385298 0)
(0.100091 -0.0515701 0)
(0.102272 -0.0721493 0)
(0.0797442 -0.0862014 0)
(0.0822212 -0.111528 0)
(0.051958 -0.126282 0)
(0.0557264 -0.157514 0)
(0.0155965 -0.170956 0)
(0.024136 -0.240501 0)
(-0.028969 -0.351074 0)
(0.00156335 -0.506281 0)
(-0.0019431 0.00167416 0)
(0.0132863 0.0585621 0)
(0.0405685 0.124028 0)
(0.065368 0.173448 0)
(0.0863617 0.19574 0)
(0.103896 0.200138 0)
(0.115387 0.189758 0)
(0.125937 0.171492 0)
(0.130737 0.151137 0)
(0.138675 0.129778 0)
(0.140751 0.111158 0)
(0.148733 0.0921074 0)
(0.148549 0.0762114 0)
(0.156153 0.0586527 0)
(0.152271 0.0443974 0)
(0.158464 0.0274923 0)
(0.149816 0.0145913 0)
(0.154384 -0.00197606 0)
(0.140609 -0.01372 0)
(0.144006 -0.0307552 0)
(0.124723 -0.0421712 0)
(0.127415 -0.061327 0)
(0.101325 -0.0734966 0)
(0.103553 -0.0966443 0)
(0.0681421 -0.109399 0)
(0.0712018 -0.13814 0)
(0.0239029 -0.150755 0)
(0.0341208 -0.217737 0)
(-0.0287764 -0.336063 0)
(0.00766922 -0.519793 0)
(0.00117411 -0.00347087 0)
(0.00887654 0.0356699 0)
(0.0314249 0.0957544 0)
(0.0571447 0.14204 0)
(0.0789903 0.169944 0)
(0.101939 0.17738 0)
(0.117588 0.172333 0)
(0.134557 0.157718 0)
(0.143166 0.140378 0)
(0.155999 0.120826 0)
(0.159707 0.10351 0)
(0.171057 0.0855493 0)
(0.170828 0.0707858 0)
(0.181136 0.0546486 0)
(0.176408 0.0419179 0)
(0.18511 0.0268135 0)
(0.175153 0.0156205 0)
(0.182011 0.000965163 0)
(0.166389 -0.00910466 0)
(0.171602 -0.024149 0)
(0.149681 -0.0338351 0)
(0.15343 -0.050634 0)
(0.123589 -0.0607827 0)
(0.125931 -0.0809149 0)
(0.0851709 -0.0915979 0)
(0.087554 -0.117185 0)
(0.0328438 -0.130107 0)
(0.0447243 -0.193684 0)
(-0.0283749 -0.3197 0)
(0.0159039 -0.530223 0)
(-0.000561808 -0.00825717 0)
(0.00232507 0.0291996 0)
(0.0171198 0.0761765 0)
(0.0428136 0.12673 0)
(0.0692792 0.15132 0)
(0.0975825 0.161733 0)
(0.119227 0.157812 0)
(0.142863 0.145662 0)
(0.156309 0.130629 0)
(0.174789 0.112737 0)
(0.180982 0.0971728 0)
(0.196268 0.0803466 0)
(0.196648 0.0673068 0)
(0.209727 0.0523314 0)
(0.204589 0.0417102 0)
(0.215515 0.0278982 0)
(0.204532 0.0191319 0)
(0.213282 0.00578963 0)
(0.19592 -0.00164363 0)
(0.202615 -0.0152571 0)
(0.177845 -0.0219715 0)
(0.18253 -0.036757 0)
(0.14824 -0.0433575 0)
(0.151035 -0.0602869 0)
(0.103889 -0.0672534 0)
(0.107189 -0.0890536 0)
(0.0447066 -0.102147 0)
(0.061099 -0.162055 0)
(-0.0224819 -0.299438 0)
(0.0286386 -0.53561 0)
(0.00509235 -0.00493035 0)
(0.00505339 0.0166382 0)
(-0.0010224 0.055325 0)
(0.0195186 0.0881972 0)
(0.0405667 0.115201 0)
(0.0759252 0.126065 0)
(0.102008 0.127445 0)
(0.135569 0.11957 0)
(0.154471 0.1091 0)
(0.181887 0.0950957 0)
(0.191446 0.0827673 0)
(0.213645 0.0687359 0)
(0.214895 0.0580899 0)
(0.23331 0.0454708 0)
(0.227073 0.036922 0)
(0.24252 0.0255352 0)
(0.228949 0.018703 0)
(0.241891 0.00810373 0)
(0.22065 0.00252263 0)
(0.231405 -0.00777528 0)
(0.201589 -0.012596 0)
(0.210348 -0.0231735 0)
(0.170225 -0.0277776 0)
(0.177449 -0.0396519 0)
(0.124437 -0.0454659 0)
(0.132824 -0.0631432 0)
(0.0640843 -0.0799544 0)
(0.0842744 -0.135591 0)
(-0.00890986 -0.280331 0)
(0.0471068 -0.53028 0)
(-0.0234646 -0.02049 0)
(-0.0233112 0.0377239 0)
(-0.0185059 0.0617661 0)
(-0.00838899 0.0875343 0)
(0.0199424 0.0954573 0)
(0.0580946 0.100934 0)
(0.0894837 0.0989951 0)
(0.129834 0.0928212 0)
(0.153541 0.0854913 0)
(0.187945 0.0750247 0)
(0.200779 0.0667801 0)
(0.228799 0.0560774 0)
(0.231368 0.0491221 0)
(0.254436 0.039279 0)
(0.247814 0.0341101 0)
(0.267276 0.0250308 0)
(0.252022 0.021564 0)
(0.268978 0.0128769 0)
(0.24502 0.0109521 0)
(0.260497 0.00224702 0)
(0.226994 0.001706 0)
(0.242163 -0.00744423 0)
(0.197182 -0.00692798 0)
(0.213841 -0.0172279 0)
(0.154013 -0.0174207 0)
(0.175816 -0.0324968 0)
(0.0972576 -0.0455029 0)
(0.133208 -0.0958117 0)
(0.0372705 -0.24567 0)
(0.0827319 -0.502371 0)
(-0.0853056 0.0481513 0)
(-0.0865421 0.00891112 0)
(-0.116932 0.0406041 0)
(-0.0732228 0.045791 0)
(-0.0524644 0.0482708 0)
(0.00310558 0.0543185 0)
(0.035596 0.0561344 0)
(0.089155 0.0541081 0)
(0.114571 0.051795 0)
(0.162213 0.0465284 0)
(0.175232 0.0427463 0)
(0.217454 0.0367032 0)
(0.218053 0.0332425 0)
(0.256754 0.027462 0)
(0.245852 0.0248665 0)
(0.283138 0.0196388 0)
(0.261189 0.017846 0)
(0.299143 0.0132667 0)
(0.26591 0.0119629 0)
(0.306674 0.00818232 0)
(0.261245 0.00684701 0)
(0.30712 0.0041411 0)
(0.248007 0.0018373 0)
(0.301446 -1.08976e-05 0)
(0.226858 -0.00599317 0)
(0.289777 -0.0126307 0)
(0.197726 -0.0365453 0)
(0.266134 -0.0884817 0)
(0.143703 -0.224769 0)
(0.138786 -0.431102 0)
(0.0793637 0.137356 0)
(0.117888 0.0749908 0)
(0.155111 0.049233 0)
(0.208749 0.0277368 0)
(0.226525 0.0201657 0)
(0.276601 0.0141254 0)
(0.293288 0.0137192 0)
(0.34714 0.013291 0)
(0.359537 0.0135064 0)
(0.413497 0.0133055 0)
(0.418231 0.0129043 0)
(0.470264 0.0121926 0)
(0.465869 0.0113925 0)
(0.516009 0.0104333 0)
(0.502366 0.00951101 0)
(0.551566 0.00852963 0)
(0.528955 0.00764085 0)
(0.578407 0.0066961 0)
(0.547101 0.00596978 0)
(0.597955 0.00493441 0)
(0.558086 0.00459129 0)
(0.611328 0.00302803 0)
(0.562682 0.00349365 0)
(0.618819 0.000160904 0)
(0.559484 0.00186395 0)
(0.616223 -0.00734318 0)
(0.533826 -0.00686378 0)
(0.570514 -0.0394806 0)
(0.393522 -0.0642624 0)
(0.290087 -0.196608 0)
)
;

boundaryField
{
    movingWall
    {
        type            fixedValue;
        value           uniform (1 0 0);
    }
    fixedWalls
    {
        type            noSlip;
    }
    frontAndBack
    {
        type            empty;
    }
}


// ************************************************************************* //
