/*--------------------------------*- C++ -*----------------------------------*\
| =========                 |                                                 |
| \\      /  F ield         | OpenFOAM: The Open Source CFD Toolbox           |
|  \\    /   O peration     | Version:  2406                                  |
|   \\  /    A nd           | Website:  www.openfoam.com                      |
|    \\/     M anipulation  |                                                 |
\*---------------------------------------------------------------------------*/
FoamFile
{
    version     2.0;
    format      ascii;
    arch        "LSB;label=32;scalar=64";
    class       volVectorField;
    location    "39.2";
    object      Uold;
}
// * * * * * * * * * * * * * * * * * * * * * * * * * * * * * * * * * * * * * //

dimensions      [0 1 -1 0 0 0 0];

internalField   nonuniform List<vector> 
3600
(
(1.13422e-06 -1.08909e-05 0)
(0.000486865 -0.000257936 0)
(0.00150803 -0.000385762 0)
(0.00263566 -0.000402657 0)
(0.00370116 -0.000323704 0)
(0.00446706 -0.000216873 0)
(0.00495597 -0.000115602 0)
(0.00516935 -4.85353e-05 0)
(0.00521992 -1.5904e-05 0)
(0.00515796 -9.17646e-06 0)
(0.00503453 -9.95e-06 0)
(0.00482824 -2.47058e-06 0)
(0.00449638 2.50978e-05 0)
(0.00395941 7.78557e-05 0)
(0.0031352 0.000157589 0)
(0.001933 0.000264894 0)
(0.000267376 0.000401175 0)
(-0.00194458 0.000565939 0)
(-0.00477458 0.000752911 0)
(-0.00828089 0.000951464 0)
(-0.0124966 0.00115539 0)
(-0.0174158 0.00136801 0)
(-0.0229759 0.00159492 0)
(-0.0290442 0.00182852 0)
(-0.0354104 0.00203852 0)
(-0.0417886 0.0021764 0)
(-0.047832 0.0021899 0)
(-0.053159 0.00203784 0)
(-0.0573851 0.00169894 0)
(-0.0601538 0.00117406 0)
(-0.0611643 0.000484457 0)
(-0.0601946 -0.000331363 0)
(-0.0571205 -0.00122085 0)
(-0.0519324 -0.00212039 0)
(-0.0447488 -0.00295853 0)
(-0.0358254 -0.00366033 0)
(-0.0255569 -0.00415346 0)
(-0.0144666 -0.0043764 0)
(-0.00318065 -0.0042884 0)
(0.00761713 -0.0038798 0)
(0.0172475 -0.00318024 0)
(0.0251144 -0.00226178 0)
(0.0307796 -0.00123297 0)
(0.0340323 -0.000223431 0)
(0.0349157 0.000642067 0)
(0.0337242 0.00127088 0)
(0.0309353 0.00162606 0)
(0.0271272 0.00172895 0)
(0.0228576 0.00164529 0)
(0.0185975 0.00145277 0)
(0.0146586 0.00121922 0)
(0.0112271 0.000986625 0)
(0.00834481 0.000779954 0)
(0.00601056 0.000606014 0)
(0.00413185 0.000470923 0)
(0.00266353 0.000364086 0)
(0.00148958 0.000281172 0)
(0.000638317 0.000182296 0)
(7.45505e-05 6.67928e-05 0)
(-7.08279e-05 -7.58492e-05 0)
(0.000220082 -0.000467644 0)
(0.00149757 -0.00154799 0)
(0.00364297 -0.0020744 0)
(0.00588775 -0.00209803 0)
(0.00795139 -0.00171106 0)
(0.00941825 -0.00115777 0)
(0.0102789 -0.000598319 0)
(0.010499 -0.000148563 0)
(0.010215 0.000175163 0)
(0.00947121 0.000413526 0)
(0.00829984 0.00064683 0)
(0.00661128 0.000954628 0)
(0.00426699 0.00139674 0)
(0.00106416 0.00200472 0)
(-0.00320659 0.00278851 0)
(-0.00875653 0.00374261 0)
(-0.0157637 0.00484857 0)
(-0.0243581 0.00607622 0)
(-0.03458 0.00738621 0)
(-0.0463385 0.00872467 0)
(-0.0593743 0.0100084 0)
(-0.0732598 0.0111179 0)
(-0.0874318 0.0119127 0)
(-0.101254 0.012259 0)
(-0.114088 0.0120534 0)
(-0.125349 0.0112357 0)
(-0.134545 0.00979232 0)
(-0.141287 0.00775196 0)
(-0.145291 0.00517948 0)
(-0.146365 0.00216848 0)
(-0.144403 -0.00116424 0)
(-0.139378 -0.0046819 0)
(-0.131344 -0.00822911 0)
(-0.120441 -0.0116327 0)
(-0.106903 -0.0147042 0)
(-0.0910731 -0.0172458 0)
(-0.0734085 -0.019062 0)
(-0.054486 -0.0199782 0)
(-0.0349933 -0.0198649 0)
(-0.0157044 -0.0186657 0)
(0.00256124 -0.016422 0)
(0.0190009 -0.0132888 0)
(0.0328942 -0.0095311 0)
(0.0436821 -0.00549978 0)
(0.0510194 -0.00158287 0)
(0.0548305 0.0018536 0)
(0.0553068 0.00453164 0)
(0.0529132 0.00630376 0)
(0.0483036 0.00717645 0)
(0.0422644 0.00728205 0)
(0.0355498 0.00683592 0)
(0.0288337 0.00606236 0)
(0.0225593 0.00516037 0)
(0.0170292 0.00426214 0)
(0.0122965 0.00345855 0)
(0.00840668 0.00276177 0)
(0.00521592 0.0021667 0)
(0.00278556 0.00155228 0)
(0.000998539 0.000890208 0)
(0.000114938 0.000100414 0)
(0.000356823 -0.00144396 0)
(0.00211725 -0.00371932 0)
(0.00489456 -0.00475243 0)
(0.00762735 -0.00466492 0)
(0.00998413 -0.00373111 0)
(0.0114651 -0.00240409 0)
(0.0120523 -0.00102895 0)
(0.0116761 0.000179331 0)
(0.0104374 0.00118476 0)
(0.00831094 0.00208658 0)
(0.00523615 0.00305763 0)
(0.00100858 0.00427347 0)
(-0.00462711 0.00585973 0)
(-0.011977 0.00787743 0)
(-0.021319 0.0103274 0)
(-0.0328737 0.013162 0)
(-0.0467255 0.0162857 0)
(-0.0627565 0.019543 0)
(-0.080586 0.0227002 0)
(-0.0995905 0.0254581 0)
(-0.118986 0.0275083 0)
(-0.137954 0.028601 0)
(-0.155746 0.0285844 0)
(-0.171754 0.0274082 0)
(-0.185523 0.0251031 0)
(-0.196739 0.0217539 0)
(-0.205201 0.0174776 0)
(-0.210789 0.0124092 0)
(-0.213436 0.00669443 0)
(-0.213107 0.000489262 0)
(-0.209793 -0.0060381 0)
(-0.203503 -0.0127015 0)
(-0.194272 -0.0192906 0)
(-0.182173 -0.0255652 0)
(-0.167339 -0.0312536 0)
(-0.149979 -0.0360574 0)
(-0.130407 -0.0396658 0)
(-0.109056 -0.0417822 0)
(-0.0864942 -0.042162 0)
(-0.0634101 -0.0406579 0)
(-0.0405931 -0.0372654 0)
(-0.0188785 -0.0321544 0)
(0.000915269 -0.0256766 0)
(0.0180663 -0.0183374 0)
(0.0320051 -0.0107364 0)
(0.0423721 -0.00348877 0)
(0.0490228 0.00285878 0)
(0.0520627 0.00789245 0)
(0.0518137 0.0113856 0)
(0.0488418 0.0133125 0)
(0.0438463 0.0138471 0)
(0.0376403 0.0133004 0)
(0.0309338 0.0120551 0)
(0.0243649 0.0104632 0)
(0.0182748 0.0088106 0)
(0.0129555 0.0072411 0)
(0.00838048 0.00580091 0)
(0.00473661 0.00433914 0)
(0.00188546 0.00274534 0)
(0.000306482 0.000823009 0)
(0.000446643 -0.002641 0)
(0.00248538 -0.00620996 0)
(0.00550255 -0.0076322 0)
(0.00820563 -0.0071953 0)
(0.0102435 -0.00545983 0)
(0.0110965 -0.00310243 0)
(0.0107621 -0.000645833 0)
(0.00913365 0.00163476 0)
(0.00623353 0.00372203 0)
(0.00190739 0.00580729 0)
(-0.0040556 0.00817012 0)
(-0.012002 0.0110726 0)
(-0.0222815 0.0146709 0)
(-0.0352122 0.0189962 0)
(-0.0509539 0.0239543 0)
(-0.0694286 0.0293255 0)
(-0.0902231 0.0347472 0)
(-0.112608 0.0397416 0)
(-0.135647 0.0438095 0)
(-0.158389 0.0465486 0)
(-0.180011 0.047721 0)
(-0.199898 0.0472533 0)
(-0.21764 0.0451956 0)
(-0.23299 0.0416735 0)
(-0.245821 0.036847 0)
(-0.256074 0.0308856 0)
(-0.263729 0.0239542 0)
(-0.268777 0.0162095 0)
(-0.27121 0.00780233 0)
(-0.271006 -0.00111523 0)
(-0.268131 -0.0103798 0)
(-0.262539 -0.0198043 0)
(-0.254182 -0.0291655 0)
(-0.243017 -0.038192 0)
(-0.229036 -0.0465574 0)
(-0.212284 -0.0538811 0)
(-0.192893 -0.0597424 0)
(-0.171118 -0.0637106 0)
(-0.147366 -0.0653945 0)
(-0.122218 -0.0645064 0)
(-0.0964176 -0.0609329 0)
(-0.0708386 -0.0547929 0)
(-0.0464114 -0.0464643 0)
(-0.0240208 -0.0365581 0)
(-0.00441152 -0.0258419 0)
(0.0118908 -0.0151298 0)
(0.0245839 -0.00517347 0)
(0.0335904 0.00341229 0)
(0.0389939 0.010198 0)
(0.041076 0.0149564 0)
(0.0402583 0.0176874 0)
(0.0371711 0.0186011 0)
(0.0324829 0.018086 0)
(0.0269536 0.0166077 0)
(0.0211308 0.0146239 0)
(0.0155689 0.0124603 0)
(0.0104366 0.0102789 0)
(0.00612327 0.00797574 0)
(0.00255619 0.00533345 0)
(0.000456546 0.00197492 0)
(0.000503035 -0.00404867 0)
(0.00265127 -0.00893267 0)
(0.00558062 -0.0105294 0)
(0.0078215 -0.00940544 0)
(0.00901649 -0.00651972 0)
(0.00866973 -0.00279088 0)
(0.00679526 0.00109664 0)
(0.00324032 0.00486578 0)
(-0.00208837 0.00857162 0)
(-0.00950417 0.0125338 0)
(-0.0193705 0.0171305 0)
(-0.0321128 0.0226554 0)
(-0.0480243 0.0291917 0)
(-0.0671735 0.0365871 0)
(-0.0892513 0.0444407 0)
(-0.113552 0.0521452 0)
(-0.139062 0.0589956 0)
(-0.164691 0.0643651 0)
(-0.18948 0.0678306 0)
(-0.212719 0.069205 0)
(-0.233953 0.0684918 0)
(-0.252929 0.06582 0)
(-0.269534 0.061384 0)
(-0.283738 0.0554009 0)
(-0.29556 0.0480836 0)
(-0.305039 0.0396266 0)
(-0.312218 0.0302018 0)
(-0.317133 0.0199608 0)
(-0.319804 0.00904149 0)
(-0.320229 -0.00242128 0)
(-0.318375 -0.0142828 0)
(-0.314175 -0.0263727 0)
(-0.30753 -0.0384771 0)
(-0.298314 -0.0503216 0)
(-0.286384 -0.0615555 0)
(-0.271606 -0.0717448 0)
(-0.253889 -0.0803767 0)
(-0.233232 -0.0868855 0)
(-0.209787 -0.0907038 0)
(-0.183908 -0.0913411 0)
(-0.1562 -0.0884837 0)
(-0.127524 -0.0820959 0)
(-0.0989467 -0.0724944 0)
(-0.0716226 -0.0603557 0)
(-0.0466348 -0.0466383 0)
(-0.0248207 -0.0324229 0)
(-0.00668342 -0.0187322 0)
(0.00761622 -0.00639709 0)
(0.0181345 0.00399304 0)
(0.025088 0.0120747 0)
(0.0287538 0.017703 0)
(0.0295678 0.0209469 0)
(0.028023 0.0220941 0)
(0.0247972 0.0215984 0)
(0.0204644 0.0199878 0)
(0.015714 0.0177321 0)
(0.0108776 0.0151105 0)
(0.00654565 0.0121092 0)
(0.00277954 0.00840086 0)
(0.000503513 0.0034104 0)
(0.000545881 -0.00551283 0)
(0.00263847 -0.0115087 0)
(0.00511419 -0.0128947 0)
(0.00643097 -0.0106476 0)
(0.00625207 -0.0062228 0)
(0.0041507 -0.000772131 0)
(0.000133224 0.004915 0)
(-0.00602572 0.0106424 0)
(-0.0145728 0.0165927 0)
(-0.0259669 0.0232112 0)
(-0.0406338 0.0308914 0)
(-0.0588732 0.0397993 0)
(-0.0806159 0.0497241 0)
(-0.105347 0.0600934 0)
(-0.1321 0.0700677 0)
(-0.159682 0.0787624 0)
(-0.186926 0.0854628 0)
(-0.212916 0.0897489 0)
(-0.237028 0.0914826 0)
(-0.258905 0.0907366 0)
(-0.278375 0.0877079 0)
(-0.295396 0.0826547 0)
(-0.310003 0.0758498 0)
(-0.322284 0.0675552 0)
(-0.332353 0.0580061 0)
(-0.340341 0.0474046 0)
(-0.346378 0.0359182 0)
(-0.350582 0.0236838 0)
(-0.353046 0.0108138 0)
(-0.353828 -0.0025919 0)
(-0.352941 -0.0164326 0)
(-0.350341 -0.0305879 0)
(-0.345919 -0.0448972 0)
(-0.339498 -0.0591351 0)
(-0.330832 -0.0729878 0)
(-0.319619 -0.0860311 0)
(-0.305525 -0.0977203 0)
(-0.288236 -0.107397 0)
(-0.267525 -0.114327 0)
(-0.243348 -0.117775 0)
(-0.215948 -0.117119 0)
(-0.185934 -0.112001 0)
(-0.154327 -0.10247 0)
(-0.122493 -0.0890807 0)
(-0.0919712 -0.072883 0)
(-0.0642015 -0.0552642 0)
(-0.0402409 -0.0376747 0)
(-0.020587 -0.0213403 0)
(-0.00524676 -0.00710573 0)
(0.00609071 0.0045501 0)
(0.013797 0.0134215 0)
(0.0183019 0.0195013 0)
(0.0200056 0.0229743 0)
(0.0194678 0.0242138 0)
(0.0171922 0.0237166 0)
(0.0138781 0.0220076 0)
(0.00994728 0.0194294 0)
(0.00612429 0.0160458 0)
(0.00262303 0.0114293 0)
(0.00047108 0.00484058 0)
(0.000557418 -0.00699811 0)
(0.00237371 -0.0137346 0)
(0.00398558 -0.0144032 0)
(0.00391591 -0.0105368 0)
(0.00186826 -0.00414797 0)
(-0.0024881 0.00342442 0)
(-0.00920204 0.0113677 0)
(-0.0185913 0.019642 0)
(-0.0310452 0.0285664 0)
(-0.0470494 0.0386211 0)
(-0.0668658 0.0500193 0)
(-0.090359 0.0625428 0)
(-0.116838 0.0754687 0)
(-0.145166 0.0877724 0)
(-0.174011 0.0984044 0)
(-0.202166 0.106572 0)
(-0.228721 0.11184 0)
(-0.253089 0.114104 0)
(-0.274946 0.113482 0)
(-0.294157 0.110232 0)
(-0.310722 0.104673 0)
(-0.324735 0.0971467 0)
(-0.336359 0.0879836 0)
(-0.345801 0.0774836 0)
(-0.35329 0.0659024 0)
(-0.359062 0.0534473 0)
(-0.363336 0.0402757 0)
(-0.366311 0.0265012 0)
(-0.368146 0.0122015 0)
(-0.368956 -0.00256919 0)
(-0.368806 -0.017766 0)
(-0.367692 -0.0333353 0)
(-0.36554 -0.0491933 0)
(-0.362183 -0.0652 0)
(-0.357353 -0.0811299 0)
(-0.35067 -0.0966393 0)
(-0.341644 -0.111237 0)
(-0.329702 -0.124265 0)
(-0.314241 -0.134906 0)
(-0.294727 -0.142226 0)
(-0.270835 -0.145274 0)
(-0.242613 -0.143244 0)
(-0.210637 -0.135685 0)
(-0.176104 -0.122707 0)
(-0.140782 -0.105133 0)
(-0.106756 -0.0844684 0)
(-0.076008 -0.062648 0)
(-0.0499331 -0.0415835 0)
(-0.0290762 -0.022728 0)
(-0.013203 -0.00689067 0)
(-0.00172048 0.00565004 0)
(0.00604651 0.0149172 0)
(0.010633 0.021103 0)
(0.0126026 0.0245426 0)
(0.0124199 0.0256779 0)
(0.0107422 0.025021 0)
(0.00802722 0.0229145 0)
(0.00505163 0.0194552 0)
(0.00215932 0.0141356 0)
(0.000372485 0.00611088 0)
(0.000516405 -0.00831905 0)
(0.00176612 -0.0151829 0)
(0.00204832 -0.0145159 0)
(0.000131523 -0.00851629 0)
(-0.00424328 0.000253122 0)
(-0.011298 0.0103574 0)
(-0.0211903 0.0210543 0)
(-0.0343085 0.0324887 0)
(-0.0510875 0.0450283 0)
(-0.0718086 0.0589761 0)
(-0.0962897 0.0740979 0)
(-0.123759 0.089605 0)
(-0.152958 0.104302 0)
(-0.182455 0.116994 0)
(-0.210976 0.126777 0)
(-0.237578 0.133181 0)
(-0.261657 0.136099 0)
(-0.282884 0.135691 0)
(-0.301139 0.13227 0)
(-0.316463 0.126239 0)
(-0.329022 0.118027 0)
(-0.339071 0.108057 0)
(-0.346919 0.0967104 0)
(-0.352897 0.0843126 0)
(-0.357334 0.0711209 0)
(-0.360533 0.0573259 0)
(-0.362762 0.0430556 0)
(-0.364249 0.0283858 0)
(-0.365179 0.0133501 0)
(-0.365694 -0.0020464 0)
(-0.365888 -0.0178154 0)
(-0.365807 -0.0339696 0)
(-0.365434 -0.0505063 0)
(-0.364674 -0.0673848 0)
(-0.36333 -0.0844992 0)
(-0.361074 -0.101642 0)
(-0.357425 -0.118462 0)
(-0.351725 -0.134423 0)
(-0.343156 -0.148768 0)
(-0.330797 -0.160512 0)
(-0.313737 -0.168489 0)
(-0.291272 -0.171471 0)
(-0.263151 -0.16838 0)
(-0.229834 -0.158576 0)
(-0.192672 -0.142171 0)
(-0.153895 -0.120252 0)
(-0.116286 -0.0948693 0)
(-0.0825411 -0.068645 0)
(-0.0545288 -0.044079 0)
(-0.0328236 -0.0228801 0)
(-0.0169229 -0.00575309 0)
(-0.00581405 0.00730747 0)
(0.00143098 0.0166258 0)
(0.00561446 0.0226276 0)
(0.00731172 0.0257706 0)
(0.00718593 0.0265472 0)
(0.00572934 0.0252685 0)
(0.00371548 0.02202 0)
(0.00158148 0.016245 0)
(0.000255616 0.0070696 0)
(0.000390404 -0.00929966 0)
(0.000722806 -0.0154861 0)
(-0.000793091 -0.0128269 0)
(-0.0049563 -0.00421698 0)
(-0.0120257 0.00732625 0)
(-0.0221119 0.0203836 0)
(-0.0355092 0.0343451 0)
(-0.0525764 0.0494703 0)
(-0.0736081 0.0659714 0)
(-0.0984237 0.0837054 0)
(-0.126251 0.101822 0)
(-0.155765 0.119028 0)
(-0.185456 0.133949 0)
(-0.213959 0.145553 0)
(-0.240264 0.153274 0)
(-0.263711 0.15699 0)
(-0.283952 0.15688 0)
(-0.300878 0.153328 0)
(-0.314588 0.146827 0)
(-0.325331 0.13792 0)
(-0.333467 0.127136 0)
(-0.339407 0.114954 0)
(-0.343575 0.101772 0)
(-0.34637 0.0879032 0)
(-0.348146 0.0735714 0)
(-0.349199 0.0589234 0)
(-0.349776 0.0440401 0)
(-0.350071 0.0289531 0)
(-0.350239 0.0136552 0)
(-0.350403 -0.0018852 0)
(-0.350656 -0.0177164 0)
(-0.351068 -0.0338922 0)
(-0.351675 -0.050463 0)
(-0.352472 -0.0674613 0)
(-0.353384 -0.084884 0)
(-0.354234 -0.102663 0)
(-0.354703 -0.120628 0)
(-0.354272 -0.138449 0)
(-0.352185 -0.155578 0)
(-0.347428 -0.171189 0)
(-0.338774 -0.184144 0)
(-0.324909 -0.193028 0)
(-0.304673 -0.196276 0)
(-0.277405 -0.192439 0)
(-0.243339 -0.180575 0)
(-0.203923 -0.160709 0)
(-0.16188 -0.134198 0)
(-0.120814 -0.103747 0)
(-0.0843061 -0.0728606 0)
(-0.0547578 -0.0447761 0)
(-0.0327486 -0.021454 0)
(-0.017341 -0.00339519 0)
(-0.00712 0.00981011 0)
(-0.000779004 0.0188289 0)
(0.00260594 0.0242986 0)
(0.00384737 0.0267746 0)
(0.00353361 0.026569 0)
(0.00242942 0.023747 0)
(0.00103499 0.0177475 0)
(0.000150384 0.00772856 0)
(0.00015205 -0.00965016 0)
(-0.000810955 -0.0141728 0)
(-0.00455083 -0.00888149 0)
(-0.0112673 0.00274318 0)
(-0.0212845 0.0174067 0)
(-0.034584 0.0337984 0)
(-0.0515691 0.0514254 0)
(-0.0723966 0.0704786 0)
(-0.097023 0.0907622 0)
(-0.12467 0.111512 0)
(-0.154064 0.131324 0)
(-0.183603 0.148679 0)
(-0.211845 0.162342 0)
(-0.237662 0.171626 0)
(-0.260337 0.176339 0)
(-0.279474 0.176678 0)
(-0.294992 0.173092 0)
(-0.30704 0.166189 0)
(-0.315969 0.156636 0)
(-0.322241 0.14509 0)
(-0.326372 0.132132 0)
(-0.328865 0.118243 0)
(-0.330173 0.103786 0)
(-0.330674 0.0890124 0)
(-0.330671 0.0740806 0)
(-0.33039 0.0590739 0)
(-0.330004 0.0440189 0)
(-0.329636 0.0289049 0)
(-0.329383 0.013694 0)
(-0.329324 -0.00166694 0)
(-0.329528 -0.0172418 0)
(-0.330064 -0.033099 0)
(-0.330993 -0.0493092 0)
(-0.332371 -0.0659395 0)
(-0.334229 -0.0830462 0)
(-0.336544 -0.10066 0)
(-0.339206 -0.118759 0)
(-0.341956 -0.137227 0)
(-0.344312 -0.155789 0)
(-0.345494 -0.173927 0)
(-0.344371 -0.190785 0)
(-0.339459 -0.205098 0)
(-0.329049 -0.215188 0)
(-0.311478 -0.219092 0)
(-0.28558 -0.214878 0)
(-0.251246 -0.20117 0)
(-0.209944 -0.177807 0)
(-0.164913 -0.146424 0)
(-0.120705 -0.110553 0)
(-0.081911 -0.0748394 0)
(-0.0514975 -0.0433939 0)
(-0.0298471 -0.0183655 0)
(-0.0155021 0.000153774 0)
(-0.0065265 0.0130497 0)
(-0.0013814 0.0213388 0)
(0.00112008 0.0258122 0)
(0.00179245 0.026901 0)
(0.00144746 0.0246969 0)
(0.000646663 0.0186945 0)
(8.50843e-05 0.00812925 0)
(-0.000215947 -0.00909045 0)
(-0.00282444 -0.0108775 0)
(-0.00910334 -0.00240416 0)
(-0.0185381 0.0125327 0)
(-0.0315911 0.0305855 0)
(-0.0480676 0.0505784 0)
(-0.0683968 0.0720287 0)
(-0.0923478 0.0948167 0)
(-0.119436 0.118159 0)
(-0.148333 0.140688 0)
(-0.17751 0.160693 0)
(-0.20536 0.17673 0)
(-0.230687 0.187905 0)
(-0.252641 0.193925 0)
(-0.270813 0.194967 0)
(-0.285102 0.191548 0)
(-0.295738 0.18439 0)
(-0.303146 0.174306 0)
(-0.307905 0.162091 0)
(-0.310613 0.148443 0)
(-0.311851 0.133925 0)
(-0.312105 0.118948 0)
(-0.311768 0.103788 0)
(-0.311124 0.0886063 0)
(-0.310372 0.073479 0)
(-0.30964 0.0584253 0)
(-0.309009 0.0434252 0)
(-0.308529 0.0284389 0)
(-0.308239 0.0134133 0)
(-0.308171 -0.00170829 0)
(-0.308368 -0.0169867 0)
(-0.308879 -0.0324831 0)
(-0.30977 -0.048262 0)
(-0.311116 -0.0643896 0)
(-0.313002 -0.0809365 0)
(-0.315501 -0.0979721 0)
(-0.318659 -0.115557 0)
(-0.322445 -0.133719 0)
(-0.326693 -0.152413 0)
(-0.331008 -0.171441 0)
(-0.334658 -0.190354 0)
(-0.336471 -0.208311 0)
(-0.334791 -0.223952 0)
(-0.327557 -0.235341 0)
(-0.312602 -0.240066 0)
(-0.28819 -0.235607 0)
(-0.253783 -0.220016 0)
(-0.210808 -0.192864 0)
(-0.163061 -0.156127 0)
(-0.116176 -0.114433 0)
(-0.0758711 -0.0738731 0)
(-0.0455201 -0.0395352 0)
(-0.0250536 -0.0134697 0)
(-0.0122677 0.00483016 0)
(-0.00484324 0.0168311 0)
(-0.000960695 0.0237867 0)
(0.000616183 0.0264542 0)
(0.00086954 0.0250749 0)
(0.000463546 0.0192782 0)
(6.70277e-05 0.00839884 0)
(-0.000712867 -0.00731475 0)
(-0.00524173 -0.00527655 0)
(-0.0142327 0.00680225 0)
(-0.0263992 0.0252328 0)
(-0.0423945 0.0468337 0)
(-0.0617658 0.0705012 0)
(-0.0848647 0.0955924 0)
(-0.11095 0.121467 0)
(-0.139134 0.146733 0)
(-0.167715 0.169601 0)
(-0.195171 0.18835 0)
(-0.220058 0.201834 0)
(-0.241503 0.209578 0)
(-0.258959 0.211705 0)
(-0.272366 0.208767 0)
(-0.281949 0.201606 0)
(-0.288248 0.191185 0)
(-0.291903 0.178455 0)
(-0.293619 0.164245 0)
(-0.294019 0.14921 0)
(-0.293633 0.133812 0)
(-0.292846 0.118348 0)
(-0.291929 0.102979 0)
(-0.291043 0.0877688 0)
(-0.290278 0.0727219 0)
(-0.289669 0.0578073 0)
(-0.289229 0.0429763 0)
(-0.288952 0.0281759 0)
(-0.288841 0.0133519 0)
(-0.288899 -0.00154572 0)
(-0.289148 -0.0165655 0)
(-0.28962 -0.0317531 0)
(-0.290371 -0.0471564 0)
(-0.291474 -0.0628258 0)
(-0.293021 -0.0788211 0)
(-0.295118 -0.0952116 0)
(-0.297881 -0.112081 0)
(-0.301409 -0.129518 0)
(-0.305751 -0.147605 0)
(-0.310831 -0.166368 0)
(-0.31636 -0.185707 0)
(-0.321688 -0.205255 0)
(-0.32566 -0.224211 0)
(-0.32651 -0.241136 0)
(-0.321889 -0.253827 0)
(-0.309147 -0.259371 0)
(-0.285972 -0.254552 0)
(-0.251358 -0.236739 0)
(-0.206699 -0.205187 0)
(-0.15645 -0.162402 0)
(-0.107519 -0.114501 0)
(-0.0667738 -0.0694327 0)
(-0.0376767 -0.0330795 0)
(-0.019202 -0.00701536 0)
(-0.00842152 0.0102362 0)
(-0.0026822 0.0205538 0)
(-9.86545e-05 0.0252897 0)
(0.000667475 0.0250373 0)
(0.000478702 0.0196715 0)
(9.44196e-05 0.00864729 0)
(-0.00131118 -0.00410022 0)
(-0.00790441 0.00277032 0)
(-0.0196012 0.0187164 0)
(-0.0343386 0.0406807 0)
(-0.0529798 0.0658191 0)
(-0.0747222 0.0929634 0)
(-0.0997631 0.121148 0)
(-0.126832 0.149113 0)
(-0.154781 0.174983 0)
(-0.181746 0.1968 0)
(-0.2064 0.213083 0)
(-0.22755 0.22309 0)
(-0.24469 0.226816 0)
(-0.257603 0.224805 0)
(-0.266607 0.217995 0)
(-0.272225 0.207503 0)
(-0.275227 0.194452 0)
(-0.276348 0.179821 0)
(-0.276302 0.164372 0)
(-0.275617 0.148632 0)
(-0.274703 0.132921 0)
(-0.273795 0.1174 0)
(-0.273035 0.10212 0)
(-0.272468 0.0870672 0)
(-0.272103 0.0721952 0)
(-0.271909 0.0574465 0)
(-0.271862 0.0427626 0)
(-0.271928 0.0280922 0)
(-0.272092 0.01339 0)
(-0.272344 -0.00138093 0)
(-0.272695 -0.0162535 0)
(-0.273164 -0.0312555 0)
(-0.273795 -0.0464156 0)
(-0.274641 -0.0617635 0)
(-0.275785 -0.0773375 0)
(-0.277323 -0.0931874 0)
(-0.279382 -0.109384 0)
(-0.2821 -0.126022 0)
(-0.285627 -0.143224 0)
(-0.290076 -0.161127 0)
(-0.295467 -0.179842 0)
(-0.301612 -0.199365 0)
(-0.307954 -0.219429 0)
(-0.313375 -0.239272 0)
(-0.31603 -0.257368 0)
(-0.313314 -0.271211 0)
(-0.302134 -0.277308 0)
(-0.27962 -0.271649 0)
(-0.244338 -0.250816 0)
(-0.197754 -0.213835 0)
(-0.145207 -0.164069 0)
(-0.0951128 -0.109809 0)
(-0.0553877 -0.0611053 0)
(-0.0288556 -0.024241 0)
(-0.0131166 0.000579083 0)
(-0.00462882 0.0157035 0)
(-0.000666493 0.0233388 0)
(0.000681428 0.0246908 0)
(0.00062493 0.0200339 0)
(0.000152572 0.00898333 0)
(-0.00196576 0.000696712 0)
(-0.0106239 0.013275 0)
(-0.0248567 0.0331965 0)
(-0.041856 0.0586027 0)
(-0.0626771 0.0870924 0)
(-0.0860954 0.117262 0)
(-0.112134 0.14772 0)
(-0.139063 0.176603 0)
(-0.165663 0.201774 0)
(-0.190077 0.221346 0)
(-0.211292 0.234242 0)
(-0.228408 0.24019 0)
(-0.241318 0.239679 0)
(-0.250143 0.233675 0)
(-0.255547 0.223455 0)
(-0.258251 0.210315 0)
(-0.259135 0.195417 0)
(-0.258901 0.179653 0)
(-0.258163 0.163639 0)
(-0.257295 0.147728 0)
(-0.256554 0.132089 0)
(-0.256032 0.11676 0)
(-0.255768 0.101709 0)
(-0.255723 0.0868729 0)
(-0.255863 0.0721823 0)
(-0.256125 0.0575733 0)
(-0.256474 0.0429919 0)
(-0.256869 0.0283966 0)
(-0.257295 0.0137546 0)
(-0.257738 -0.00095788 0)
(-0.258209 -0.0157603 0)
(-0.258718 -0.0306669 0)
(-0.259298 -0.0456919 0)
(-0.259988 -0.0608486 0)
(-0.260846 -0.0761561 0)
(-0.261943 -0.091641 0)
(-0.263381 -0.107348 0)
(-0.265284 -0.123347 0)
(-0.26781 -0.139746 0)
(-0.271138 -0.156699 0)
(-0.275446 -0.1744 0)
(-0.280838 -0.193047 0)
(-0.287228 -0.212744 0)
(-0.294144 -0.233318 0)
(-0.300496 -0.25403 0)
(-0.304346 -0.27322 0)
(-0.302827 -0.287985 0)
(-0.292412 -0.294143 0)
(-0.269725 -0.286744 0)
(-0.23303 -0.261587 0)
(-0.18411 -0.21765 0)
(-0.129581 -0.159925 0)
(-0.0796312 -0.0996312 0)
(-0.0427531 -0.0491143 0)
(-0.0200474 -0.0136097 0)
(-0.00754476 0.00843696 0)
(-0.00152865 0.0202698 0)
(0.000672389 0.023971 0)
(0.000803386 0.0204118 0)
(0.000222158 0.00945536 0)
(-0.0026108 0.00707256 0)
(-0.0131715 0.0260536 0)
(-0.0296098 0.0499035 0)
(-0.048428 0.0785086 0)
(-0.0708313 0.109961 0)
(-0.0951452 0.142471 0)
(-0.121253 0.17421 0)
(-0.147095 0.202826 0)
(-0.171542 0.226162 0)
(-0.192867 0.242582 0)
(-0.210436 0.251518 0)
(-0.223658 0.253196 0)
(-0.232829 0.248606 0)
(-0.238367 0.239089 0)
(-0.241184 0.226161 0)
(-0.242076 0.211166 0)
(-0.241909 0.195185 0)
(-0.241251 0.178937 0)
(-0.240566 0.162848 0)
(-0.240053 0.147095 0)
(-0.239839 0.131714 0)
(-0.239901 0.116655 0)
(-0.240216 0.101837 0)
(-0.240702 0.0871777 0)
(-0.24131 0.0726046 0)
(-0.24197 0.0580614 0)
(-0.242653 0.043507 0)
(-0.243319 0.0289132 0)
(-0.243962 0.0142602 0)
(-0.24457 -0.000463949 0)
(-0.245155 -0.0152677 0)
(-0.245725 -0.0301553 0)
(-0.246307 -0.045131 0)
(-0.246926 -0.0601972 0)
(-0.247623 -0.07536 0)
(-0.248444 -0.0906287 0)
(-0.249458 -0.106025 0)
(-0.25075 -0.121587 0)
(-0.252445 -0.137387 0)
(-0.254703 -0.153545 0)
(-0.257733 -0.170246 0)
(-0.26176 -0.187744 0)
(-0.266974 -0.20633 0)
(-0.273381 -0.226224 0)
(-0.280592 -0.247345 0)
(-0.287511 -0.268949 0)
(-0.292058 -0.289143 0)
(-0.291051 -0.304491 0)
(-0.280504 -0.309896 0)
(-0.25661 -0.299373 0)
(-0.217546 -0.26793 0)
(-0.165874 -0.215157 0)
(-0.110032 -0.148661 0)
(-0.062182 -0.083874 0)
(-0.0301887 -0.0341621 0)
(-0.0121623 -0.00233402 0)
(-0.00314722 0.0155153 0)
(0.000381318 0.0226507 0)
(0.000905365 0.0207466 0)
(0.000282374 0.0100648 0)
(-0.00318392 0.0148977 0)
(-0.015356 0.040802 0)
(-0.0335587 0.0684218 0)
(-0.0536751 0.0998766 0)
(-0.0770082 0.13377 0)
(-0.101456 0.167824 0)
(-0.126834 0.199835 0)
(-0.150885 0.227128 0)
(-0.172703 0.247737 0)
(-0.19076 0.260403 0)
(-0.204822 0.265132 0)
(-0.214605 0.262652 0)
(-0.220771 0.254423 0)
(-0.223941 0.24206 0)
(-0.225158 0.227193 0)
(-0.22517 0.211079 0)
(-0.224739 0.194634 0)
(-0.224251 0.178353 0)
(-0.224014 0.162476 0)
(-0.224074 0.147026 0)
(-0.224466 0.131949 0)
(-0.225097 0.117139 0)
(-0.22592 0.102503 0)
(-0.226836 0.0879533 0)
(-0.227803 0.0734324 0)
(-0.228758 0.0588966 0)
(-0.229682 0.0443197 0)
(-0.230544 0.0296857 0)
(-0.231346 0.0149862 0)
(-0.23208 0.000218072 0)
(-0.232761 -0.0146198 0)
(-0.233396 -0.0295253 0)
(-0.23401 -0.0444973 0)
(-0.234619 -0.0595326 0)
(-0.235255 -0.0746307 0)
(-0.235946 -0.0897913 0)
(-0.236734 -0.105021 0)
(-0.237669 -0.120336 0)
(-0.238832 -0.135773 0)
(-0.240331 -0.151406 0)
(-0.242332 -0.167366 0)
(-0.245057 -0.18387 0)
(-0.248782 -0.201233 0)
(-0.253766 -0.219847 0)
(-0.260107 -0.240047 0)
(-0.267466 -0.261841 0)
(-0.274706 -0.284406 0)
(-0.279524 -0.305505 0)
(-0.278327 -0.32089 0)
(-0.266634 -0.324351 0)
(-0.240304 -0.308611 0)
(-0.197836 -0.268321 0)
(-0.143213 -0.20452 0)
(-0.0874864 -0.12956 0)
(-0.0444198 -0.0632592 0)
(-0.0190064 -0.0179421 0)
(-0.00590465 0.00828111 0)
(-0.00039455 0.0203265 0)
(0.000847506 0.0208577 0)
(0.000318877 0.0107535 0)
(-0.00362321 0.0239062 0)
(-0.0170022 0.0570784 0)
(-0.0364459 0.0882113 0)
(-0.0572974 0.12206 0)
(-0.0809069 0.157757 0)
(-0.104812 0.192504 0)
(-0.128836 0.223845 0)
(-0.150659 0.24895 0)
(-0.169668 0.266218 0)
(-0.184569 0.274842 0)
(-0.195524 0.27543 0)
(-0.202517 0.269176 0)
(-0.206499 0.257937 0)
(-0.208178 0.243469 0)
(-0.208619 0.227384 0)
(-0.208432 0.210754 0)
(-0.208234 0.194277 0)
(-0.208223 0.178227 0)
(-0.208579 0.162682 0)
(-0.209238 0.147554 0)
(-0.210183 0.132737 0)
(-0.21129 0.118106 0)
(-0.212511 0.103569 0)
(-0.213752 0.0890542 0)
(-0.214985 0.0745188 0)
(-0.216154 0.0599338 0)
(-0.217256 0.0452872 0)
(-0.218263 0.0305731 0)
(-0.219185 0.0157925 0)
(-0.220016 0.000949092 0)
(-0.220775 -0.0139522 0)
(-0.221466 -0.0289049 0)
(-0.222116 -0.0439041 0)
(-0.222737 -0.0589439 0)
(-0.223355 -0.0740211 0)
(-0.223989 -0.0891318 0)
(-0.224668 -0.104276 0)
(-0.225417 -0.119458 0)
(-0.22628 -0.134692 0)
(-0.227319 -0.150013 0)
(-0.228639 -0.165498 0)
(-0.230401 -0.181296 0)
(-0.23285 -0.197657 0)
(-0.236302 -0.214974 0)
(-0.241086 -0.233739 0)
(-0.247367 -0.254421 0)
(-0.254829 -0.277062 0)
(-0.262207 -0.300703 0)
(-0.266868 -0.32247 0)
(-0.26469 -0.337074 0)
(-0.250658 -0.336695 0)
(-0.220539 -0.31292 0)
(-0.1737 -0.260433 0)
(-0.116625 -0.184058 0)
(-0.0635782 -0.102767 0)
(-0.0283991 -0.0400919 0)
(-0.0100704 -0.00231882 0)
(-0.00177343 0.0164648 0)
(0.000589915 0.0204985 0)
(0.000325997 0.0114373 0)
(-0.00388953 0.0337434 0)
(-0.0180118 0.074394 0)
(-0.0381469 0.108748 0)
(-0.0591857 0.144505 0)
(-0.0824818 0.181361 0)
(-0.105304 0.216021 0)
(-0.127558 0.245916 0)
(-0.146954 0.268216 0)
(-0.163209 0.281807 0)
(-0.17527 0.28637 0)
(-0.183656 0.283106 0)
(-0.188558 0.273617 0)
(-0.191114 0.260042 0)
(-0.192019 0.244146 0)
(-0.19227 0.227416 0)
(-0.192299 0.210681 0)
(-0.192573 0.194417 0)
(-0.19313 0.178698 0)
(-0.194062 0.163486 0)
(-0.195237 0.148626 0)
(-0.196623 0.133992 0)
(-0.198088 0.119458 0)
(-0.1996 0.104952 0)
(-0.201071 0.0904146 0)
(-0.202493 0.0758214 0)
(-0.203815 0.0611551 0)
(-0.205046 0.046415 0)
(-0.20616 0.0316029 0)
(-0.207174 0.0167268 0)
(-0.208081 0.00179538 0)
(-0.208902 -0.0131816 0)
(-0.209641 -0.0281947 0)
(-0.210325 -0.0432364 0)
(-0.210965 -0.0582998 0)
(-0.211587 -0.073381 0)
(-0.212204 -0.0884763 0)
(-0.21284 -0.103585 0)
(-0.213508 -0.118707 0)
(-0.214232 -0.133847 0)
(-0.215037 -0.149018 0)
(-0.215978 -0.164254 0)
(-0.217146 -0.179637 0)
(-0.21871 -0.19533 0)
(-0.220933 -0.211639 0)
(-0.224181 -0.22903 0)
(-0.228847 -0.248146 0)
(-0.235148 -0.269548 0)
(-0.242718 -0.293319 0)
(-0.25006 -0.318076 0)
(-0.254045 -0.340123 0)
(-0.249894 -0.352447 0)
(-0.232117 -0.345552 0)
(-0.196752 -0.309703 0)
(-0.145101 -0.241662 0)
(-0.0872297 -0.152597 0)
(-0.0410067 -0.0708976 0)
(-0.0156857 -0.0173187 0)
(-0.00386489 0.0104394 0)
(0.000145333 0.0193726 0)
(0.000300674 0.0120237 0)
(-0.00395707 0.0439875 0)
(-0.0183266 0.0922031 0)
(-0.0386044 0.129461 0)
(-0.0593223 0.166617 0)
(-0.0818006 0.203994 0)
(-0.103144 0.237876 0)
(-0.123388 0.265721 0)
(-0.140349 0.284831 0)
(-0.154071 0.294648 0)
(-0.163723 0.295348 0)
(-0.170123 0.288688 0)
(-0.17359 0.276577 0)
(-0.175348 0.261319 0)
(-0.176001 0.244566 0)
(-0.17643 0.227616 0)
(-0.176883 0.211032 0)
(-0.177698 0.195091 0)
(-0.178796 0.179711 0)
(-0.180221 0.164782 0)
(-0.181805 0.150112 0)
(-0.183526 0.135583 0)
(-0.185255 0.121078 0)
(-0.186979 0.106547 0)
(-0.188622 0.0919441 0)
(-0.190188 0.0772599 0)
(-0.191632 0.0624859 0)
(-0.192969 0.0476304 0)
(-0.194174 0.0327008 0)
(-0.195266 0.0177114 0)
(-0.196238 0.00267509 0)
(-0.197112 -0.0123939 0)
(-0.197891 -0.0274831 0)
(-0.198602 -0.0425823 0)
(-0.199256 -0.0576833 0)
(-0.19988 -0.072782 0)
(-0.200485 -0.0878759 0)
(-0.201097 -0.102966 0)
(-0.201723 -0.118055 0)
(-0.20238 -0.133145 0)
(-0.203076 -0.148243 0)
(-0.203833 -0.163361 0)
(-0.204688 -0.178537 0)
(-0.205732 -0.193852 0)
(-0.207135 -0.209507 0)
(-0.209195 -0.225847 0)
(-0.212329 -0.24349 0)
(-0.217001 -0.263183 0)
(-0.223436 -0.285679 0)
(-0.231135 -0.310831 0)
(-0.238187 -0.336742 0)
(-0.240776 -0.358071 0)
(-0.23337 -0.365886 0)
(-0.210175 -0.348239 0)
(-0.168364 -0.295626 0)
(-0.112416 -0.209087 0)
(-0.0576287 -0.111869 0)
(-0.0227443 -0.0382885 0)
(-0.0067809 0.00168486 0)
(-0.000478789 0.0171161 0)
(0.000251308 0.0124428 0)
(-0.00382582 0.0542056 0)
(-0.0179605 0.109995 0)
(-0.0378733 0.14988 0)
(-0.0578372 0.187977 0)
(-0.0791051 0.225336 0)
(-0.0987203 0.257919 0)
(-0.116872 0.283331 0)
(-0.131529 0.299098 0)
(-0.143032 0.305251 0)
(-0.150744 0.302437 0)
(-0.155701 0.292903 0)
(-0.158275 0.278759 0)
(-0.159694 0.26236 0)
(-0.160423 0.245165 0)
(-0.161211 0.22825 0)
(-0.162144 0.211928 0)
(-0.163464 0.196316 0)
(-0.165015 0.181217 0)
(-0.166822 0.16649 0)
(-0.16871 0.151929 0)
(-0.170673 0.137436 0)
(-0.172591 0.122908 0)
(-0.174472 0.108314 0)
(-0.176245 0.0936193 0)
(-0.177924 0.078826 0)
(-0.179468 0.0639312 0)
(-0.180893 0.0489503 0)
(-0.182177 0.0338945 0)
(-0.183339 0.0187835 0)
(-0.184369 0.00363369 0)
(-0.185292 -0.0115365 0)
(-0.186109 -0.0267118 0)
(-0.186847 -0.0418793 0)
(-0.187516 -0.0570296 0)
(-0.188144 -0.0721581 0)
(-0.188745 -0.0872636 0)
(-0.189341 -0.102349 0)
(-0.189944 -0.117422 0)
(-0.190568 -0.132486 0)
(-0.191216 -0.147552 0)
(-0.191894 -0.162623 0)
(-0.192609 -0.177718 0)
(-0.193396 -0.192862 0)
(-0.194339 -0.20817 0)
(-0.19563 -0.223846 0)
(-0.197599 -0.240373 0)
(-0.200739 -0.258451 0)
(-0.205562 -0.279123 0)