/*--------------------------------*- C++ -*----------------------------------*\
| =========                 |                                                 |
| \\      /  F ield         | OpenFOAM: The Open Source CFD Toolbox           |
|  \\    /   O peration     | Version:  2406                                  |
|   \\  /    A nd           | Website:  www.openfoam.com                      |
|    \\/     M anipulation  |                                                 |
\*---------------------------------------------------------------------------*/
FoamFile
{
    version     2.0;
    format      ascii;
    arch        "LSB;label=32;scalar=64";
    class       surfaceScalarField;
    location    "44.15";
    object      phi;
}
// * * * * * * * * * * * * * * * * * * * * * * * * * * * * * * * * * * * * * //

dimensions      [0 3 -1 0 0 0 0];

oriented        oriented;

internalField   nonuniform List<scalar> 
28560
(
-3.98053e-09
3.98153e-09
4.73464e-08
-5.1327e-08
1.70641e-07
-1.23295e-07
3.53963e-07
-1.83321e-07
5.79444e-07
-2.25482e-07
8.28055e-07
-2.48611e-07
1.0821e-06
-2.54043e-07
1.32653e-06
-2.4443e-07
1.54973e-06
-2.23203e-07
1.74386e-06
-1.94131e-07
1.90482e-06
-1.60963e-07
2.03192e-06
-1.271e-07
2.12727e-06
-9.5348e-08
2.19502e-06
-6.77486e-08
2.24053e-06
-4.55089e-08
2.26956e-06
-2.90279e-08
2.2876e-06
-1.80394e-08
2.29894e-06
-1.13453e-08
2.30661e-06
-7.66776e-09
2.312e-06
-5.38824e-09
2.3147e-06
-2.70425e-09
2.31278e-06
1.92475e-09
2.3034e-06
9.38154e-09
2.28225e-06
2.11449e-08
2.24455e-06
3.76987e-08
2.1852e-06
5.93542e-08
2.09897e-06
8.62311e-08
1.98061e-06
1.18356e-07
1.82486e-06
1.55751e-07
1.62638e-06
1.98479e-07
1.37972e-06
2.46656e-07
1.0793e-06
3.00426e-07
7.19389e-07
3.5991e-07
2.94229e-07
4.2516e-07
-2.01876e-07
4.96105e-07
-7.74391e-07
5.72515e-07
-1.42837e-06
6.53977e-07
-2.16824e-06
7.39872e-07
-2.99761e-06
8.29369e-07
-3.91903e-06
9.21419e-07
-4.93379e-06
1.01476e-06
-6.04173e-06
1.10794e-06
-7.24103e-06
1.1993e-06
-8.52809e-06
1.28706e-06
-9.89737e-06
1.36929e-06
-1.13414e-05
1.44399e-06
-1.28505e-05
1.50914e-06
-1.44132e-05
1.5627e-06
-1.60159e-05
1.60271e-06
-1.76432e-05
1.62728e-06
-1.92779e-05
1.63468e-06
-2.09012e-05
1.62334e-06
-2.24931e-05
1.59187e-06
-2.40322e-05
1.53915e-06
-2.54965e-05
1.46428e-06
-2.68632e-05
1.36666e-06
-2.81091e-05
1.24596e-06
-2.92114e-05
1.10222e-06
-3.01472e-05
9.35861e-07
-3.08949e-05
7.47676e-07
-3.14346e-05
5.39699e-07
-3.1747e-05
3.12423e-07
-3.18108e-05
6.37808e-08
-3.16158e-05
-1.95041e-07
-3.11507e-05
-4.65034e-07
-3.04074e-05
-7.43298e-07
-2.93825e-05
-1.02496e-06
-2.80773e-05
-1.30521e-06
-2.64984e-05
-1.57883e-06
-2.46581e-05
-1.84028e-06
-2.25744e-05
-2.08376e-06
-2.0271e-05
-2.30341e-06
-1.77775e-05
-2.4935e-06
-1.51289e-05
-2.64861e-06
-1.23649e-05
-2.76394e-06
-9.52946e-06
-2.83547e-06
-6.66916e-06
-2.8603e-06
-3.83238e-06
-2.83678e-06
-1.06766e-06
-2.76473e-06
1.57785e-06
-2.64551e-06
4.05993e-06
-2.48208e-06
6.33886e-06
-2.27893e-06
8.38078e-06
-2.04192e-06
1.01588e-05
-1.77806e-06
1.1654e-05
-1.4952e-06
1.28557e-05
-1.20166e-06
1.37616e-05
-9.05865e-07
1.43775e-05
-6.15953e-07
1.4717e-05
-3.39447e-07
1.48014e-05
-8.44614e-08
1.46515e-05
1.4989e-07
1.4298e-05
3.53574e-07
1.37739e-05
5.24046e-07
1.31114e-05
6.62557e-07
1.2342e-05
7.69324e-07
1.14968e-05
8.45273e-07
1.06041e-05
8.92688e-07
9.68951e-06
9.14567e-07
8.77512e-06
9.14391e-07
7.87925e-06
8.95871e-07
7.01651e-06
8.62739e-07
6.19793e-06
8.18582e-07
5.43122e-06
7.66706e-07
4.72117e-06
7.10057e-07
4.07e-06
6.51169e-07
3.47784e-06
5.92162e-07
2.94309e-06
5.34743e-07
2.46286e-06
4.80229e-07
2.03331e-06
4.29554e-07
1.65006e-06
3.83247e-07
1.30869e-06
3.41376e-07
1.00523e-06
3.03455e-07
7.36893e-07
2.68341e-07
5.02727e-07
2.34165e-07
3.0436e-07
1.98368e-07
1.46312e-07
1.58048e-07
3.54479e-08
1.10864e-07
-2.15403e-08
5.69882e-08
-2.50525e-08
3.51222e-09
-2.50525e-08
4.87089e-08
-4.47274e-08
2.39281e-07
-2.41899e-07
5.81413e-07
-4.65427e-07
1.05063e-06
-6.5254e-07
1.61016e-06
-7.85013e-07
2.21948e-06
-8.57928e-07
2.83955e-06
-8.74111e-07
3.4362e-06
-8.41085e-07
3.98224e-06
-7.69239e-07
4.45845e-06
-6.70342e-07
4.85379e-06
-5.56303e-07
5.16478e-06
-4.3809e-07
5.3943e-06
-3.24871e-07
5.54999e-06
-2.23431e-07
5.64237e-06
-1.37891e-07
5.68303e-06
-6.96933e-08
5.68287e-06
-1.78726e-08
5.65074e-06
2.07817e-08
5.59221e-06
5.08592e-08
5.50907e-06
7.77571e-08
5.39914e-06
1.07225e-07
5.25649e-06
1.44575e-07
5.07162e-06
1.94253e-07
4.833e-06
2.59767e-07
4.52729e-06
3.43409e-07
4.14017e-06
4.46473e-07
3.65685e-06
5.69547e-07
3.0624e-06
7.12811e-07
2.34186e-06
8.76293e-07
1.48033e-06
1.06001e-06
4.63014e-07
1.26397e-06
-7.24665e-07
1.4881e-06
-2.09684e-06
1.73209e-06
-3.66685e-06
1.99517e-06
-5.4468e-06
2.27605e-06
-7.44702e-06
2.57273e-06
-9.67548e-06
2.88244e-06
-1.21373e-05
3.20166e-06
-1.4834e-05
3.52607e-06
-1.77632e-05
3.85062e-06
-2.0918e-05
4.16961e-06
-2.42869e-05
4.47681e-06
-2.78531e-05
4.76556e-06
-3.15951e-05
5.02899e-06
-3.5486e-05
5.26017e-06
-3.94943e-05
5.45231e-06
-4.35841e-05
5.59897e-06
-4.77156e-05
5.69417e-06
-5.18455e-05
5.73262e-06
-5.5928e-05
5.70978e-06
-5.99153e-05
5.622e-06
-6.37585e-05
5.46652e-06
-6.74082e-05
5.24157e-06
-7.08154e-05
4.94633e-06
-7.3932e-05
4.58094e-06
-7.67119e-05
4.14651e-06
-7.91109e-05
3.64503e-06
-8.10882e-05
3.07945e-06
-8.26059e-05
2.45363e-06
-8.36307e-05
1.77245e-06
-8.41326e-05
1.04159e-06
-8.40893e-05
2.69138e-07
-8.34829e-05
-5.42666e-07
-8.22973e-05
-1.38058e-06
-8.05279e-05
-2.23446e-06
-7.81761e-05
-3.09508e-06
-7.52503e-05
-3.95081e-06
-7.17665e-05
-4.78897e-06
-6.77492e-05
-5.59618e-06
-6.32309e-05
-6.35851e-06
-5.8253e-05
-7.0617e-06
-5.2865e-05
-7.69146e-06
-4.71245e-05
-8.23391e-06
-4.10971e-05
-8.67604e-06
-3.48549e-05
-9.00617e-06
-2.84758e-05
-9.21453e-06
-2.20424e-05
-9.2937e-06
-1.564e-05
-9.23916e-06
-9.3551e-06
-9.04967e-06
-3.27307e-06
-8.72754e-06
2.52367e-06
-8.27882e-06
7.958e-06
-7.71327e-06
1.29602e-05
-7.04415e-06
1.74701e-05
-6.2879e-06
2.14384e-05
-5.46353e-06
2.48287e-05
-4.59195e-06
2.7618e-05
-3.6952e-06
2.97976e-05
-2.7955e-06
3.13727e-05
-1.91461e-06
3.23608e-05
-1.07251e-06
3.27959e-05
-2.85238e-07
3.27211e-05
4.28378e-07
3.21869e-05
1.0582e-06
3.12521e-05
1.59739e-06
2.99803e-05
2.0411e-06
2.8437e-05
2.38862e-06
2.6687e-05
2.6427e-06
2.47925e-05
2.809e-06
2.28114e-05
2.89556e-06
2.07951e-05
2.9121e-06
1.87885e-05
2.86939e-06
1.68285e-05
2.77859e-06
1.49445e-05
2.65068e-06
1.31585e-05
2.49604e-06
1.14856e-05
2.32409e-06
9.93467e-06
2.14309e-06
8.50935e-06
1.96006e-06
7.20893e-06
1.78065e-06
6.02934e-06
1.60914e-06
4.96429e-06
1.4483e-06
4.00644e-06
1.29922e-06
3.14884e-06
1.16106e-06
2.38639e-06
1.03079e-06
1.71743e-06
9.03127e-07
1.14497e-06
7.70834e-07
6.77104e-07
6.2591e-07
3.25724e-07
4.62243e-07
1.01863e-07
2.80849e-07
6.62253e-09
9.87527e-08
-1.84299e-08
1.16024e-07
-1.60751e-07
4.5159e-07
-5.77465e-07
9.85083e-07
-9.98919e-07
1.6796e-06
-1.34706e-06
2.48675e-06
-1.59217e-06
3.35371e-06
-1.72489e-06
4.22909e-06
-1.74949e-06
5.06729e-06
-1.67928e-06
5.83133e-06
-1.53328e-06
6.49444e-06
-1.33345e-06
7.04031e-06
-1.10218e-06
7.46248e-06
-8.60262e-07
7.7628e-06
-6.25183e-07
7.94935e-06
-4.09983e-07
8.0341e-06
-2.22644e-07
8.03038e-06
-6.59709e-08
7.95057e-06
6.19382e-08
7.8042e-06
1.67154e-07
7.59635e-06
2.58705e-07
7.32677e-06
3.47332e-07
6.98969e-06
4.44312e-07
6.57402e-06
5.60246e-07
6.06411e-06
7.04161e-07
5.44088e-06
8.82989e-07
4.68285e-06
1.10145e-06
3.76705e-06
1.36227e-06
2.66991e-06
1.66669e-06
1.36771e-06
2.01501e-06
-1.6295e-07
2.40696e-06
-1.9449e-06
2.84196e-06
-4.00001e-06
3.31908e-06
-6.34876e-06
3.83685e-06
-9.00959e-06
4.39292e-06
-1.19982e-05
4.98374e-06
-1.53265e-05
5.60436e-06
-1.9002e-05
6.2482e-06
-2.30265e-05
6.90703e-06
-2.73959e-05
7.57098e-06
-3.20985e-05
8.22874e-06
-3.71157e-05
8.86775e-06
-4.24206e-05
9.47455e-06
-4.79789e-05
1.00351e-05
-5.37488e-05
1.05354e-05
-5.96815e-05
1.09617e-05
-6.57223e-05
1.1301e-05
-7.18117e-05
1.15417e-05
-7.78864e-05
1.16737e-05
-8.38808e-05
1.16885e-05
-8.97282e-05
1.158e-05
-9.53623e-05
1.13439e-05
-0.000100718
1.09779e-05
-0.000105734
1.04819e-05
-0.000110349
9.85745e-06
-0.000114511
9.10781e-06
-0.000118168
8.23773e-06
-0.000121275
7.2533e-06
-0.000123791
6.1618e-06
-0.000125683
4.97158e-06
-0.000126922
3.69202e-06
-0.000127483
2.33354e-06
-0.000127349
9.07306e-07
-0.000126506
-5.7369e-07
-0.000124952
-2.09683e-06
-0.000122684
-3.64799e-06
-0.000119709
-5.2099e-06
-0.000116038
-6.76579e-06
-0.000111691
-8.29756e-06
-0.000106695
-9.78577e-06
-0.000101081
-1.12099e-05
-9.48908e-05
-1.25486e-05
-8.81724e-05
-1.37801e-05
-8.09813e-05
-1.48825e-05
-7.33806e-05
-1.58347e-05
-6.54403e-05
-1.66163e-05
-5.72376e-05
-1.72089e-05
-4.88552e-05
-1.75969e-05
-4.03811e-05
-1.77678e-05
-3.19068e-05
-1.77134e-05
-2.35264e-05
-1.74301e-05
-1.53343e-05
-1.69196e-05
-7.42372e-06
-1.61894e-05
1.15386e-07
-1.52524e-05
7.19848e-06
-1.41272e-05
1.37483e-05
-1.28378e-05
1.96971e-05
-1.14122e-05
2.49877e-05
-9.88265e-06
2.95761e-05
-8.28354e-06
3.34315e-05
-6.65096e-06
3.6538e-05
-5.0211e-06
3.88945e-05
-3.42898e-06
4.0517e-05
-1.90767e-06
4.14338e-05
-4.88482e-07
4.16865e-05
8.05488e-07
4.13302e-05
1.95375e-06
4.04302e-05
2.94109e-06
3.90593e-05
3.75946e-06
3.72955e-05
4.40657e-06
3.52185e-05
4.88597e-06
3.29076e-05
5.20645e-06
3.04385e-05
5.38124e-06
2.7881e-05
5.42691e-06
2.52972e-05
5.36231e-06
2.27406e-05
5.20734e-06
2.02546e-05
4.98197e-06
1.78734e-05
4.7053e-06
1.56216e-05
4.39489e-06
1.35154e-05
4.06625e-06
1.15636e-05
3.73248e-06
9.76882e-06
3.40394e-06
8.12916e-06
3.08796e-06
6.63995e-06
2.78843e-06
5.29566e-06
2.50534e-06
4.09198e-06
2.23447e-06
3.02782e-06
1.96729e-06
2.10684e-06
1.69181e-06
1.33807e-06
1.39468e-06
7.34609e-07
1.06571e-06
3.09677e-07
7.05781e-07
6.93481e-08
3.39082e-07
5.09182e-08
1.72092e-07
-3.32843e-07
6.31598e-07
-1.03697e-06
1.32587e-06
-1.69319e-06
2.20047e-06
-2.22166e-06
3.19497e-06
-2.58666e-06
4.24681e-06
-2.77673e-06
5.29621e-06
-2.79889e-06
6.29033e-06
-2.67341e-06
7.18628e-06
-2.42923e-06
7.95263e-06
-2.0998e-06
8.56973e-06
-1.71928e-06
9.02887e-06
-1.3194e-06
9.33048e-06
-9.26793e-07
9.4818e-06
-5.61306e-07
9.49412e-06
-2.34964e-07
9.37995e-06
4.82014e-08
9.15026e-06
2.9162e-07
8.81236e-06
5.05064e-07
8.36806e-06
7.03003e-07
7.81274e-06
9.02654e-07
7.13507e-06
1.12198e-06
6.3175e-06
1.37782e-06
5.33715e-06
1.6845e-06
4.16718e-06
2.05296e-06
2.77806e-06
2.49057e-06
1.13886e-06
3.00147e-06
-7.8174e-07
3.58729e-06
-3.01458e-06
4.24784e-06
-5.58929e-06
4.98167e-06
-8.53362e-06
5.78628e-06
-1.18725e-05
6.65798e-06
-1.56272e-05
7.59155e-06
-1.9814e-05
8.57975e-06
-2.44432e-05
9.61291e-06
-2.95175e-05
1.06787e-05
-3.50313e-05
1.17619e-05
-4.09692e-05
1.2845e-05
-4.73059e-05
1.39077e-05
-5.40056e-05
1.49284e-05
-6.10222e-05
1.58844e-05
-6.83001e-05
1.67524e-05
-7.57751e-05
1.75101e-05
-8.33761e-05
1.81365e-05
-9.10272e-05
1.86127e-05
-9.86488e-05
1.89227e-05
-0.000106161
1.90537e-05
-0.000113484
1.89966e-05
-0.000120541
1.87458e-05
-0.00012726
1.8299e-05
-0.000133574
1.76574e-05
-0.000139421
1.68248e-05
-0.000144746
1.58076e-05
-0.000149503
1.46138e-05
-0.000153648
1.32536e-05
-0.000157149
1.17379e-05
-0.000159974
1.00788e-05
-0.000162102
8.28927e-06
-0.000163513
6.38268e-06
-0.000164194
4.37319e-06
-0.000164136
2.27551e-06
-0.000163334
1.05416e-07
-0.000161786
-2.12146e-06
-0.000159496
-4.38698e-06
-0.000156471
-6.67297e-06
-0.000152722
-8.95929e-06
-0.000148263
-1.12243e-05
-0.000143116
-1.34451e-05
-0.000137304
-1.55971e-05
-0.00013086
-1.76542e-05
-0.000123819
-1.95891e-05
-0.000116226
-2.13736e-05
-0.000108129
-2.29791e-05
-9.95867e-05
-2.43773e-05
-9.0662e-05
-2.55409e-05
-8.14262e-05
-2.64448e-05
-7.19566e-05
-2.70665e-05
-6.23366e-05
-2.73879e-05
-5.26543e-05
-2.73957e-05
-4.30017e-05
-2.70827e-05
-3.3473e-05
-2.64484e-05
-2.41626e-05
-2.54997e-05
-1.5164e-05
-2.4251e-05
-6.5673e-06
-2.27239e-05
1.54246e-06
-2.09475e-05
9.08722e-06
-1.8957e-05
1.59975e-05
-1.67929e-05
2.22141e-05
-1.45001e-05
2.7689e-05
-1.21259e-05
3.23871e-05
-9.7192e-06
3.62868e-05
-7.32864e-06
3.93805e-05
-5.00141e-06
4.16739e-05
-2.78192e-06
4.31889e-05
-7.09454e-07
4.3961e-05
1.18164e-06
4.40388e-05
2.86334e-06
4.34829e-05
4.31528e-06
4.23645e-05
5.52503e-06
4.07621e-05
6.48838e-06
3.87593e-05
7.20918e-06
3.64418e-05
7.6988e-06
3.38936e-05
7.97512e-06
3.11947e-05
8.06121e-06
2.84183e-05
7.98376e-06
2.56288e-05
7.77144e-06
2.28807e-05
7.45338e-06
2.02179e-05
7.0577e-06
1.76737e-05
6.61041e-06
1.52718e-05
6.13441e-06
1.3027e-05
5.64872e-06
1.09473e-05
5.16771e-06
9.03533e-06
4.70038e-06
7.2911e-06
4.24957e-06
5.71404e-06
3.81152e-06
4.30551e-06
3.37582e-06
3.07072e-06
2.9266e-06
2.01992e-06
2.44548e-06
1.16839e-06
1.91724e-06
5.34834e-07
1.33934e-06
1.38882e-07
7.35034e-07
1.898e-07
2.15362e-07
-5.48205e-07
7.73966e-07
-1.59558e-06
1.59744e-06
-2.51666e-06
2.61251e-06
-3.23673e-06
3.74544e-06
-3.7196e-06
4.92412e-06
-3.95541e-06
6.08173e-06
-3.9565e-06
7.16033e-06
-3.75201e-06
8.11339e-06
-3.38229e-06
8.90706e-06
-2.89346e-06
9.52001e-06
-2.33224e-06
9.94233e-06
-1.74171e-06
1.01733e-05
-1.15776e-06
1.02188e-05
-6.06782e-07
1.00881e-05
-1.04306e-07
9.79112e-06
3.45197e-07
9.33515e-06
7.47587e-07
8.72278e-06
1.11744e-06
7.95007e-06
1.47572e-06
7.00567e-06
1.84705e-06
5.87081e-06
2.25683e-06
4.52e-06
2.72863e-06
2.92232e-06
3.28219e-06
1.04299e-06
3.93229e-06
-1.15493e-06
4.68849e-06
-3.70907e-06
5.55561e-06
-6.65635e-06
6.53456e-06
-1.00317e-05
7.62323e-06
-1.38671e-05
8.81702e-06
-1.81898e-05
1.0109e-05
-2.30214e-05
1.14896e-05
-2.83758e-05
1.2946e-05
-3.42581e-05
1.4462e-05
-4.06624e-05
1.60172e-05
-4.75712e-05
1.75874e-05
-5.49538e-05
1.91446e-05
-6.2767e-05
2.06581e-05
-7.09543e-05
2.20951e-05
-7.94481e-05
2.34222e-05
-8.81705e-05
2.46067e-05
-9.70361e-05
2.5618e-05
-0.000105955
2.64287e-05
-0.000114834
2.70158e-05
-0.000123582
2.73612e-05
-0.000132112
2.74523e-05
-0.00014034
2.7282e-05
-0.000148192
2.68481e-05
-0.000155599
2.61534e-05
-0.000162504
2.52042e-05
-0.000168857
2.40104e-05
-0.000174617
2.25841e-05
-0.000179748
2.09393e-05
-0.000184226
1.90911e-05
-0.000188027
1.70553e-05
-0.000191138
1.48481e-05
-0.000193544
1.24856e-05
-0.000195239
9.98405e-06
-0.000196216
7.35973e-06
-0.000196472
4.62895e-06
-0.000196005
1.80838e-06
-0.000194815
-1.08477e-06
-0.000192903
-4.03276e-06
-0.000190274
-7.01637e-06
-0.000186932
-1.0015e-05
-0.000182885
-1.30064e-05
-0.000178143
-1.59663e-05
-0.000172719
-1.88686e-05
-0.000166632
-2.16845e-05
-0.000159903
-2.43835e-05
-0.000152559
-2.69329e-05
-0.000144634
-2.92985e-05
-0.000136168
-3.1445e-05
-0.000127208
-3.33368e-05
-0.00011781
-3.49392e-05
-0.000108036
-3.6219e-05
-9.79558e-05
-3.71465e-05
-8.76477e-05
-3.7696e-05
-7.71953e-05
-3.78481e-05
-6.66878e-05
-3.75901e-05
-5.62184e-05
-3.69179e-05
-4.58822e-05
-3.58359e-05
-3.57748e-05
-3.43584e-05
-2.59899e-05
-3.25089e-05
-1.66174e-05
-3.03201e-05
-7.74162e-06
-2.78327e-05
5.60232e-07
-2.50948e-05
8.21978e-06
-2.21596e-05
1.51784e-05
-1.90845e-05
2.13882e-05
-1.5929e-05
2.68128e-05
-1.27532e-05
3.14274e-05
-9.61602e-06
3.52196e-05
-6.57416e-06
3.81903e-05
-3.68015e-06
4.03534e-05
-9.81438e-07
4.17359e-05
1.48088e-06
4.2378e-05
3.67318e-06
4.23325e-05
5.57046e-06
4.16638e-05
7.15711e-06
4.04456e-05
8.42738e-06
3.8759e-05
9.38544e-06
3.66892e-05
1.00449e-05
3.43227e-05
1.04277e-05
3.17437e-05
1.05628e-05
2.90312e-05
1.0484e-05
2.62566e-05
1.0228e-05
2.34818e-05
9.83243e-06
2.07584e-05
9.33383e-06
1.8127e-05
8.76583e-06
1.5618e-05
8.15769e-06
1.32529e-05
7.53285e-06
1.10456e-05
6.90764e-06
9.00514e-06
6.29006e-06
7.13771e-06
5.67895e-06
5.44964e-06
5.06389e-06
3.94974e-06
4.42651e-06
2.65145e-06
3.74376e-06
1.57455e-06
2.99414e-06
7.46443e-07
2.16744e-06
2.04016e-07
1.27746e-06
3.93816e-07
2.48146e-07
-7.96351e-07
8.83701e-07
-2.23113e-06
1.80729e-06
-3.44025e-06
2.92735e-06
-4.35679e-06
4.1562e-06
-4.94845e-06
5.41176e-06
-5.21097e-06
6.62052e-06
-5.16526e-06
7.72047e-06
-4.85195e-06
8.66295e-06
-4.32477e-06
9.41324e-06
-3.64375e-06
9.94984e-06
-2.86883e-06
1.02626e-05
-2.05444e-06
1.035e-05
-1.24523e-06
1.02165e-05
-4.7321e-07
9.86839e-06
2.43775e-07
9.31139e-06
9.02195e-07
8.54723e-06
1.51175e-06
7.57154e-06
2.09312e-06
6.37235e-06
2.67491e-06
4.92954e-06
3.28986e-06
3.21525e-06
3.97112e-06
1.19507e-06
4.74881e-06
-1.17019e-06
5.64745e-06
-3.92251e-06
6.68461e-06
-7.10461e-06
7.8706e-06
-1.07581e-05
9.20908e-06
-1.49216e-05
1.06981e-05
-1.96291e-05
1.23308e-05
-2.49083e-05
1.40961e-05
-3.07781e-05
1.59788e-05
-3.72473e-05
1.79588e-05
-4.43122e-05
2.00109e-05
-5.19548e-05
2.21047e-05
-6.01421e-05
2.42045e-05
-6.88252e-05
2.62705e-05
-7.79399e-05
2.82593e-05
-8.74082e-05
3.01264e-05
-9.71407e-05
3.18276e-05
-0.00010704
3.33211e-05
-0.000117002
3.45694e-05
-0.000126925
3.5541e-05
-0.000136708
3.62113e-05
-0.000146255
3.65632e-05
-0.000155481
3.65871e-05
-0.00016431
3.62807e-05
-0.000172675
3.56476e-05
-0.000180524
3.46969e-05
-0.000187812
3.34417e-05
-0.000194506
3.18982e-05
-0.00020058
3.00844e-05
-0.000206016
2.80195e-05
-0.000210799
2.57231e-05
-0.000214923
2.32145e-05
-0.00021838
2.05126e-05
-0.000221168
1.76357e-05
-0.000223283
1.46012e-05
-0.000224726
1.14261e-05
-0.000225493
8.12687e-06
-0.000225583
4.71974e-06
-0.000224996
1.22127e-06
-0.00022373
-2.35161e-06
-0.000221781
-5.98089e-06
-0.000219151
-9.64723e-06
-0.000215836
-1.33295e-05
-0.000211838
-1.70042e-05
-0.000207159
-2.06454e-05
-0.000201803
-2.42246e-05
-0.000195778
-2.77099e-05
-0.000189094
-3.10668e-05
-0.00018177
-3.42575e-05
-0.000173826
-3.72421e-05
-0.000165293
-3.99784e-05
-0.000156206
-4.24234e-05
-0.000146612
-4.4534e-05
-0.000136562
-4.62682e-05
-0.000126122
-4.75872e-05
-0.000115361
-4.84566e-05
-0.000104361
-4.88486e-05
-9.32076e-05
-4.87431e-05
-8.19954e-05
-4.813e-05
-7.08215e-05
-4.70098e-05
-5.97853e-05
-4.53946e-05
-4.89857e-05
-4.33084e-05
-3.85191e-05
-4.07866e-05
-2.84768e-05
-3.7875e-05
-1.89431e-05
-3.46285e-05
-9.99374e-06
-3.1109e-05
-1.69478e-06
-2.73835e-05
5.89805e-06
-2.35219e-05
1.27397e-05
-1.95948e-05
1.87957e-05
-1.56721e-05
2.40424e-05
-1.18209e-05
2.84669e-05
-8.10466e-06
3.20672e-05
-4.58169e-06
3.48524e-05
-1.30435e-06
3.68434e-05
1.68215e-06
3.80731e-05
4.34083e-06
3.85862e-05
6.64402e-06
3.84391e-05
8.5744e-06
3.76989e-05
1.01257e-05
3.6441e-05
1.13028e-05
3.47471e-05
1.21216e-05
3.27019e-05
1.2608e-05
3.03899e-05
1.27959e-05
2.78922e-05
1.27257e-05
2.52837e-05
1.2441e-05
2.26308e-05
1.19867e-05
1.99902e-05
1.14065e-05
1.74082e-05
1.07397e-05
1.49211e-05
1.00199e-05
1.25566e-05
9.27221e-06
1.03349e-05
8.51174e-06
8.27185e-06
7.74198e-06
6.38129e-06
6.95446e-06
4.6781e-06
6.1297e-06
3.18139e-06
5.24047e-06
1.91782e-06
4.25772e-06
9.25446e-07
3.15981e-06
2.58845e-07
1.94406e-06
6.5266e-07
2.73559e-07
-1.06991e-06
9.68274e-07
-2.92585e-06
1.96653e-06
-4.4385e-06
3.15936e-06
-5.54962e-06
4.44506e-06
-6.23415e-06
5.73138e-06
-6.49729e-06
6.93839e-06
-6.37227e-06
8.00076e-06
-5.91432e-06
8.86884e-06
-5.19286e-06
9.50835e-06
-4.28326e-06
9.8987e-06
-3.25918e-06
1.00303e-05
-2.18607e-06
9.90142e-06
-1.11632e-06
9.51427e-06
-8.60661e-08
8.87168e-06
8.86365e-07
7.97359e-06
1.80029e-06
6.81429e-06
2.67105e-06
5.38046e-06
3.52695e-06
3.65018e-06
4.40519e-06
1.59302e-06
5.34703e-06
-8.28871e-07
6.39302e-06
-3.65882e-06
7.57876e-06
-6.94326e-06
8.93189e-06
-1.07292e-05
1.04705e-05
-1.50617e-05
1.22031e-05
-1.99815e-05
1.41289e-05
-2.55229e-05
1.62394e-05
-3.17112e-05
1.85191e-05
-3.85605e-05
2.09455e-05
-4.60714e-05
2.34897e-05
-5.42285e-05
2.61158e-05
-6.29988e-05
2.87812e-05
-7.23314e-05
3.14372e-05
-8.21571e-05
3.40302e-05
-9.23905e-05
3.65039e-05
-0.000102933
3.88015e-05
-0.000113675
4.08688e-05
-0.000124504
4.26565e-05
-0.000135306
4.41227e-05
-0.00014597
4.52341e-05
-0.000156397
4.59676e-05
-0.000166495
4.63096e-05
-0.000176188
4.62561e-05
-0.000185412
4.58109e-05
-0.000194116
4.4985e-05
-0.000202263
4.37944e-05
-0.000209825
4.22587e-05
-0.000216783
4.04001e-05
-0.000223127
3.82417e-05
-0.000228849
3.58068e-05
-0.000233948
3.31184e-05
-0.000238423
3.01981e-05
-0.000242275
2.70667e-05
-0.000245506
2.37435e-05
-0.000248117
2.02463e-05
-0.000250108
1.65919e-05
-0.000251478
1.27964e-05
-0.000252226
8.8749e-06
-0.000252349
4.84261e-06
-0.000251842
7.14856e-07
-0.000250701
-3.49249e-06
-0.00024892
-7.76223e-06
-0.000246492
-1.20756e-05
-0.000243409
-1.64117e-05
-0.000239667
-2.07468e-05
-0.000235258
-2.50544e-05
-0.000230178
-2.93043e-05
-0.000224425
-3.34626e-05
-0.000218001
-3.74914e-05
-0.000210909
-4.13491e-05
-0.000203161
-4.49903e-05
-0.000194773
-4.83667e-05
-0.000185769
-5.14275e-05
-0.000176182
-5.4121e-05
-0.000166054
-5.63955e-05
-0.000155439
-5.8202e-05
-0.000144401
-5.94952e-05
-0.000133013
-6.02365e-05
-0.00012136
-6.03959e-05
-0.000109536
-5.99544e-05
-9.76404e-05
-5.89052e-05
-8.57791e-05
-5.72559e-05
-7.40592e-05
-5.50284e-05
-6.25868e-05
-5.22591e-05
-5.14639e-05
-4.89979e-05
-4.07859e-05
-4.53066e-05
-3.06388e-05
-4.12561e-05
-2.10979e-05
-3.69244e-05
-1.22268e-05
-3.23929e-05
-4.07725e-06
-2.77443e-05
3.31064e-06
-2.30599e-05
9.90751e-06
-1.84178e-05
1.5694e-05
-1.38912e-05
2.06601e-05
-9.54782e-06
2.48049e-05
-5.44914e-06
2.81365e-05
-1.64945e-06
3.06727e-05
1.80469e-06
3.24413e-05
4.87542e-06
3.3481e-05
7.53463e-06
3.38416e-05
9.76509e-06
3.35831e-05
1.15613e-05
3.27749e-05
1.29298e-05
3.14936e-05
1.38893e-05
2.98202e-05
1.44694e-05
2.7837e-05
1.47088e-05
2.56246e-05
1.46533e-05
2.32588e-05
1.43525e-05
2.08081e-05
1.38571e-05
1.83324e-05
1.32154e-05
1.58819e-05
1.24704e-05
1.34978e-05
1.16563e-05
1.12132e-05
1.07964e-05
9.05492e-06
9.90026e-06
7.04644e-06
8.96294e-06
5.21102e-06
7.96512e-06
3.57562e-06
6.87586e-06
2.17555e-06
5.65779e-06
1.06015e-06
4.27522e-06
2.99945e-07
2.70427e-06
9.52605e-07
2.94044e-07
-1.36395e-06
1.03384e-06
-3.66564e-06
2.08432e-06
-5.48899e-06
3.31972e-06
-6.78502e-06
4.62455e-06
-7.53898e-06
5.89671e-06
-7.76945e-06
7.05039e-06
-7.52595e-06
8.01787e-06
-6.88179e-06
8.74961e-06
-5.9246e-06
9.21287e-06
-4.74653e-06
9.38888e-06
-3.43519e-06
9.26919e-06
-2.06638e-06
8.85155e-06
-6.98683e-07
8.13574e-06
6.29743e-07
7.1197e-06
1.90241e-06
5.79616e-06
3.12383e-06
4.15023e-06
4.31698e-06
2.15793e-06
5.51924e-06
-2.13911e-07
6.77703e-06
-3.00669e-06
8.13981e-06
-6.26788e-06
9.6542e-06
-1.00482e-05
1.13591e-05
-1.43985e-05
1.32822e-05
-1.93664e-05
1.54385e-05
-2.49938e-05
1.78305e-05
-3.13134e-05
2.04485e-05
-3.83465e-05
2.32725e-05
-4.60997e-05
2.62723e-05
-5.4563e-05
2.94088e-05
-6.3707e-05
3.26337e-05
-7.3482e-05
3.58908e-05
-8.38177e-05
3.91169e-05
-9.46243e-05
4.22439e-05
-0.000105796
4.52023e-05
-0.000117216
4.79238e-05
-0.00012876
5.03456e-05
-0.000140304
5.24129e-05
-0.000151729
5.40816e-05
-0.000162926
5.53195e-05
-0.000173799
5.61071e-05
-0.000184268
5.64363e-05
-0.000194268
5.63099e-05
-0.000203751
5.5739e-05
-0.000212682
5.47415e-05
-0.000221037
5.33403e-05
-0.000228803
5.15608e-05
-0.000235975
4.94301e-05
-0.00024255
4.69755e-05
-0.000248532
4.42234e-05
-0.000253924
4.11993e-05
-0.000258733
3.79268e-05
-0.000262963
3.44278e-05
-0.000266618
3.07223e-05
-0.000269703
2.68286e-05
-0.00027222
2.27634e-05
-0.00027417
1.8542e-05
-0.000275553
1.41789e-05
-0.000276366
9.6877e-06
-0.000276605
5.08199e-06
-0.000276266
3.75467e-07
-0.000275341
-4.41749e-06
-0.000273822
-9.28125e-06
-0.000271699
-1.41984e-05
-0.000268961
-1.91491e-05
-0.000265597
-2.41108e-05
-0.000261595
-2.90571e-05
-0.000256941
-3.39579e-05
-0.000251625
-3.87786e-05
-0.000245637
-4.34797e-05
-0.000238969
-4.80167e-05
-0.000231619
-5.23407e-05
-0.000223588
-5.63977e-05
-0.000214885
-6.01305e-05
-0.000205527
-6.34786e-05
-0.000195542
-6.63808e-05
-0.000184967
-6.87764e-05
-0.000173855
-7.06078e-05
-0.000162268
-7.18231e-05
-0.000150285
-7.23791e-05
-0.000137996
-7.22438e-05
-0.000125502
-7.13993e-05
-0.000112913
-6.9844e-05
-0.000100348
-6.75938e-05
-8.79245e-05
-6.46825e-05
-7.57607e-05
-6.11618e-05
-6.39686e-05
-5.70986e-05
-5.26514e-05
-5.25733e-05
-4.19e-05
-4.76758e-05
-3.17914e-05
-4.25016e-05
-2.23876e-05
-3.71481e-05
-1.37362e-05
-3.17114e-05
-5.8712e-06
-2.62827e-05
1.18511e-06
-2.09475e-05
7.42052e-06
-1.57832e-05
1.28312e-05
-1.08599e-05
1.74209e-05
-6.2391e-06
2.12001e-05
-1.97457e-06
2.41871e-05
1.8885e-06
2.64078e-05
5.31387e-06
2.78976e-05
8.27528e-06
2.87014e-05
1.07575e-05
2.88738e-05
1.27574e-05
2.84788e-05
1.42844e-05
2.75877e-05
1.53605e-05
2.62773e-05
1.60192e-05
2.46267e-05
1.63039e-05
2.27143e-05
1.62649e-05
2.0615e-05
1.59564e-05
1.83979e-05
1.54326e-05
1.61243e-05
1.4744e-05
1.38473e-05
1.39333e-05
1.16121e-05
1.30315e-05
9.45725e-06
1.20551e-05
7.41689e-06
1.10033e-05
5.52416e-06
9.85785e-06
3.81536e-06
8.58466e-06
2.33536e-06
7.13779e-06
1.14428e-06
5.4663e-06
3.25547e-07
3.523e-06
1.27815e-06
3.11045e-07
-1.675e-06
1.08395e-06
-4.43855e-06
2.16568e-06
-6.57071e-06
3.41388e-06
-8.03323e-06
4.69981e-06
-8.8249e-06
5.91227e-06
-8.98192e-06
6.96068e-06
-8.57436e-06
7.7761e-06
-7.69721e-06
8.31036e-06
-6.45886e-06
8.53325e-06
-4.96942e-06
8.42844e-06
-3.33038e-06
7.98868e-06
-1.62662e-06
7.21083e-06
7.9163e-08
6.09119e-06
1.74938e-06
4.62143e-06
3.37217e-06
2.78552e-06
4.95974e-06
5.57812e-07
6.54469e-06
-2.0974e-06
8.17445e-06
-5.22491e-06
9.90454e-06
-8.87628e-06
1.17912e-05
-1.31065e-05
1.38844e-05
-1.79701e-05
1.62227e-05
-2.35172e-05
1.88292e-05
-2.97897e-05
2.1711e-05
-3.68179e-05
2.48587e-05
-4.46174e-05
2.8248e-05
-5.31859e-05
3.1841e-05
-6.25009e-05
3.55873e-05
-7.25177e-05
3.94256e-05
-8.31685e-05
4.32846e-05
-9.43637e-05
4.7086e-05
-0.000105994
5.07472e-05
-0.000117936
5.41855e-05
-0.000130056
5.73226e-05
-0.00014222
6.00883e-05
-0.000154299
6.24246e-05
-0.000166174
6.42872e-05
-0.000177739
6.56471e-05
-0.000188909
6.64896e-05
-0.000199616
6.68134e-05
-0.000209808
6.66283e-05
-0.00021945
6.59524e-05
-0.000228522
6.48104e-05
-0.000237011
6.32308e-05
-0.000244915
6.12441e-05
-0.000252235
5.88814e-05
-0.000258978
5.61734e-05
-0.000265152
5.31493e-05
-0.000270766
4.98367e-05
-0.000275827
4.62611e-05
-0.000280346
4.24458e-05
-0.00028433
3.84118e-05
-0.000287786
3.41782e-05
-0.00029072
2.97622e-05
-0.000293136
2.51791e-05
-0.000295036
2.04429e-05
-0.000296424
1.55664e-05
-0.000297298
1.05616e-05
-0.000297656
5.44017e-06
-0.000297494
2.13688e-07
-0.000296807
-5.10532e-06
-0.000295584
-1.05037e-05
-0.000293816
-1.59661e-05
-0.00029149
-2.14752e-05
-0.000288591
-2.70105e-05
-0.0002851
-3.25476e-05
-0.000281
-3.80581e-05
-0.00027627
-4.35083e-05
-0.000270891
-4.88593e-05
-0.000264841
-5.4066e-05
-0.000258105
-5.90774e-05
-0.000250666
-6.38364e-05
-0.000242516
-6.82805e-05
-0.000233652
-7.23423e-05
-0.000224082
-7.59511e-05
-0.000213823
-7.90351e-05
-0.000202908
-8.1523e-05
-0.000191383
-8.33479e-05
-0.000179312
-8.445e-05
-0.000166776
-8.47804e-05
-0.00015387
-8.43049e-05
-0.000140708
-8.30067e-05
-0.000127412
-8.08896e-05
-0.000114115
-7.79791e-05
-0.000100954
-7.43232e-05
-8.80619e-05
-6.99905e-05
-7.5567e-05
-6.50683e-05
-6.35845e-05
-5.96582e-05
-5.22145e-05
-5.38716e-05
-4.15385e-05
-4.78241e-05
-3.16192e-05
-4.16307e-05
-2.25005e-05
-3.54014e-05
-1.421e-05
-2.9238e-05
-6.76139e-06
-2.32318e-05
-1.57652e-07
-1.74636e-05
5.60645e-06
-1.20032e-05
1.05423e-05
-6.9104e-06
1.46664e-05
-2.2356e-06
1.80005e-05
1.9798e-06
2.05721e-05
5.70365e-06
2.24159e-05
8.91372e-06
2.35744e-05
1.15988e-05
2.40991e-05
1.37597e-05
2.40496e-05
1.541e-05
2.3493e-05
1.65758e-05
2.2502e-05
1.72949e-05
2.11522e-05
1.76148e-05
1.95193e-05
1.75893e-05
1.76765e-05
1.72754e-05
1.56923e-05
1.67282e-05
1.3629e-05
1.59967e-05
1.15419e-05
1.51186e-05
9.48035e-06
1.41166e-05
7.48939e-06
1.29942e-05
5.61247e-06
1.17348e-05
3.89582e-06
1.03013e-05
2.39392e-06
8.63969e-06
1.17622e-06
6.684e-06
3.35253e-07
4.36396e-06
1.61341e-06
3.24997e-07
-2e-06
1.11941e-06
-5.23296e-06
2.21102e-06
-7.66232e-06
3.44105e-06
-9.26326e-06
4.66829e-06
-1.00521e-05
5.77382e-06
-1.00874e-05
6.66376e-06
-9.4643e-06
7.26958e-06
-8.30303e-06
7.54574e-06
-6.73502e-06
7.46542e-06
-4.8891e-06
7.01501e-06
-2.87998e-06
6.18812e-06
-7.99729e-07
4.9798e-06
1.28748e-06
3.38149e-06
3.3477e-06
1.37704e-06
5.37663e-06
-1.05985e-06
7.39663e-06
-3.96652e-06
9.45136e-06
-7.39056e-06
1.15985e-05
-1.13872e-05
1.39012e-05
-1.60156e-05
1.64196e-05
-2.1334e-05
1.92028e-05
-2.73948e-05
2.22835e-05
-3.424e-05
2.56744e-05
-4.18969e-05
2.93679e-05
-5.03747e-05
3.33364e-05
-5.96611e-05
3.75344e-05
-6.97204e-05
4.19003e-05
-8.04918e-05
4.63588e-05
-9.18897e-05
5.08234e-05
-0.000103806
5.52005e-05
-0.000116112
5.93928e-05
-0.000128671
6.33056e-05
-0.000141336
6.68512e-05
-0.000153968
6.99542e-05
-0.000166434
7.25544e-05
-0.000178619
7.46093e-05
-0.000190426
7.60938e-05
-0.000201778
7.69991e-05
-0.000212618
7.73304e-05
-0.000222909
7.71042e-05
-0.000232626
7.63454e-05
-0.000241758
7.50841e-05
-0.000250301
7.33539e-05
-0.00025826
7.11895e-05
-0.000265642
6.86257e-05
-0.000272457
6.56962e-05
-0.000278716
6.2433e-05
-0.000284433
5.88663e-05
-0.00028962
5.50235e-05
-0.000294289
5.09302e-05
-0.000298453
4.66092e-05
-0.000302122
4.20809e-05
-0.000305307
3.73638e-05
-0.000308019
3.24739e-05
-0.000310265
2.74255e-05
-0.000312053
2.2231e-05
-0.000313389
1.69016e-05
-0.000314275
1.14475e-05
-0.000314712
5.87806e-06
-0.000314701
2.02264e-07
-0.000314237
-5.56967e-06
-0.000313312
-1.14279e-05
-0.000311918
-1.73604e-05
-0.00031004
-2.33529e-05
-0.000307662
-2.93884e-05
-0.000304764
-3.54463e-05
-0.000301321
-4.15011e-05
-0.000297306
-4.75226e-05
-0.000292692
-5.34742e-05
-0.000287445
-5.93127e-05
-0.000281534
-6.49878e-05
-0.000274929
-7.04419e-05
-0.0002676
-7.56098e-05
-0.000259522
-8.04195e-05
-0.00025068
-8.47932e-05
-0.000241067
-8.86489e-05
-0.000230687
-9.19024e-05
-0.000219564
-9.4471e-05
-0.000207738
-9.62764e-05
-0.000195269
-9.72492e-05
-0.00018224
-9.73337e-05
-0.000168755
-9.64919e-05
-0.000154937
-9.47076e-05
-0.000140926
-9.19899e-05
-0.000126875
-8.83748e-05
-0.00011294
-8.39252e-05
-9.92785e-05
-7.87296e-05
-8.60388e-05
-7.28979e-05
-7.33545e-05
-6.6556e-05
-6.13388e-05
-5.98397e-05
-5.00821e-05
-5.28875e-05
-3.96497e-05
-4.58338e-05
-3.00835e-05
-3.88041e-05
-2.14047e-05
-3.19106e-05
-1.36176e-05
-2.52508e-05
-6.71389e-06
-1.89069e-05
-6.77205e-07
-1.29471e-05
4.51433e-06
-7.42713e-06
8.88604e-06
-2.39191e-06
1.24663e-05