/*--------------------------------*- C++ -*----------------------------------*\
| =========                 |                                                 |
| \\      /  F ield         | OpenFOAM: The Open Source CFD Toolbox           |
|  \\    /   O peration     | Version:  2406                                  |
|   \\  /    A nd           | Website:  www.openfoam.com                      |
|    \\/     M anipulation  |                                                 |
\*---------------------------------------------------------------------------*/
FoamFile
{
    version     2.0;
    format      ascii;
    arch        "LSB;label=32;scalar=64";
    class       surfaceScalarField;
    location    "44.15";
    object      phi_0;
}
// * * * * * * * * * * * * * * * * * * * * * * * * * * * * * * * * * * * * * //

dimensions      [0 3 -1 0 0 0 0];

oriented        oriented;

internalField   nonuniform List<scalar> 
28560
(
-3.98281e-09
3.98363e-09
4.73401e-08
-5.1323e-08
1.7063e-07
-1.2329e-07
3.53947e-07
-1.83317e-07
5.79425e-07
-2.25478e-07
8.28032e-07
-2.48608e-07
1.08207e-06
-2.5404e-07
1.3265e-06
-2.44427e-07
1.5497e-06
-2.23201e-07
1.74383e-06
-1.94128e-07
1.90479e-06
-1.60959e-07
2.03188e-06
-1.27096e-07
2.12723e-06
-9.5343e-08
2.19497e-06
-6.77431e-08
2.24047e-06
-4.55031e-08
2.26949e-06
-2.90221e-08
2.28753e-06
-1.80338e-08
2.29887e-06
-1.13403e-08
2.30653e-06
-7.66347e-09
2.31192e-06
-5.38494e-09
2.31462e-06
-2.70202e-09
2.31269e-06
1.92559e-09
2.30331e-06
9.38134e-09
2.28217e-06
2.11436e-08
2.24447e-06
3.76965e-08
2.18512e-06
5.93513e-08
2.09889e-06
8.62276e-08
1.98054e-06
1.18353e-07
1.82479e-06
1.55747e-07
1.62632e-06
1.98474e-07
1.37967e-06
2.46651e-07
1.07925e-06
3.0042e-07
7.19344e-07
3.59904e-07
2.94191e-07
4.25153e-07
-2.01906e-07
4.96097e-07
-7.74413e-07
5.72507e-07
-1.42838e-06
6.53968e-07
-2.16824e-06
7.39862e-07
-2.9976e-06
8.29358e-07
-3.91901e-06
9.21408e-07
-4.93376e-06
1.01475e-06
-6.04168e-06
1.10793e-06
-7.24097e-06
1.19929e-06
-8.52802e-06
1.28704e-06
-9.89729e-06
1.36927e-06
-1.13413e-05
1.44398e-06
-1.28504e-05
1.50913e-06
-1.44131e-05
1.56269e-06
-1.60158e-05
1.6027e-06
-1.76431e-05
1.62728e-06
-1.92778e-05
1.63468e-06
-2.09011e-05
1.62334e-06
-2.2493e-05
1.59188e-06
-2.40321e-05
1.53916e-06
-2.54964e-05
1.4643e-06
-2.68631e-05
1.36668e-06
-2.81091e-05
1.24598e-06
-2.92113e-05
1.10224e-06
-3.01472e-05
9.35891e-07
-3.08949e-05
7.4771e-07
-3.14347e-05
5.39736e-07
-3.17471e-05
3.12463e-07
-3.1811e-05
6.38247e-08
-3.1616e-05
-1.94997e-07
-3.1151e-05
-4.64989e-07
-3.04077e-05
-7.43253e-07
-2.93828e-05
-1.02492e-06
-2.80776e-05
-1.30517e-06
-2.64989e-05
-1.57879e-06
-2.46586e-05
-1.84024e-06
-2.25749e-05
-2.08372e-06
-2.02715e-05
-2.30339e-06
-1.7778e-05
-2.49348e-06
-1.51294e-05
-2.6486e-06
-1.23655e-05
-2.76393e-06
-9.53001e-06
-2.83548e-06
-6.66969e-06
-2.86031e-06
-3.83289e-06
-2.8368e-06
-1.06813e-06
-2.76476e-06
1.57741e-06
-2.64554e-06
4.05954e-06
-2.48212e-06
6.33851e-06
-2.27898e-06
8.38048e-06
-2.04197e-06
1.01586e-05
-1.77811e-06
1.16538e-05
-1.49525e-06
1.28556e-05
-1.20171e-06
1.37615e-05
-9.05914e-07
1.43775e-05
-6.15998e-07
1.4717e-05
-3.39487e-07
1.48015e-05
-8.44964e-08
1.46516e-05
1.49859e-07
1.4298e-05
3.53549e-07
1.3774e-05
5.24026e-07
1.31115e-05
6.62542e-07
1.23422e-05
7.69313e-07
1.14969e-05
8.45267e-07
1.06042e-05
8.92685e-07
9.68965e-06
9.14567e-07
8.77526e-06
9.14393e-07
7.87938e-06
8.95875e-07
7.01664e-06
8.62745e-07
6.19805e-06
8.18589e-07
5.43133e-06
7.66714e-07
4.72127e-06
7.10064e-07
4.07009e-06
6.51177e-07
3.47792e-06
5.9217e-07
2.94317e-06
5.3475e-07
2.46294e-06
4.80236e-07
2.03337e-06
4.29561e-07
1.65012e-06
3.83254e-07
1.30874e-06
3.41383e-07
1.00528e-06
3.03462e-07
7.36928e-07
2.68348e-07
5.02755e-07
2.34172e-07
3.04381e-07
1.98375e-07
1.46326e-07
1.58055e-07
3.54562e-08
1.1087e-07
-2.15369e-08
5.69931e-08
-2.50519e-08
3.51501e-09
-2.50518e-08
4.87048e-08
-4.47212e-08
2.39268e-07
-2.41886e-07
5.81391e-07
-4.65413e-07
1.0506e-06
-6.52528e-07
1.61013e-06
-7.85003e-07
2.21944e-06
-8.5792e-07
2.8395e-06
-8.74104e-07
3.43616e-06
-8.41079e-07
3.98219e-06
-7.69233e-07
4.45839e-06
-6.70333e-07
4.85373e-06
-5.56292e-07
5.16471e-06
-4.38077e-07
5.39422e-06
-3.24855e-07
5.54989e-06
-2.23414e-07
5.64226e-06
-1.37873e-07
5.68291e-06
-6.96744e-08
5.68273e-06
-1.78544e-08
5.65059e-06
2.07984e-08
5.59206e-06
5.08733e-08
5.5089e-06
7.77678e-08
5.39897e-06
1.07231e-07
5.25632e-06
1.44578e-07
5.07145e-06
1.94251e-07
4.83283e-06
2.59761e-07
4.52713e-06
3.434e-07
4.14002e-06
4.46461e-07
3.65672e-06
5.69532e-07
3.06227e-06
7.12793e-07
2.34175e-06
8.76273e-07
1.48024e-06
1.05999e-06
4.62941e-07
1.26395e-06
-7.24716e-07
1.48808e-06
-2.09687e-06
1.73206e-06
-3.66686e-06
1.99514e-06
-5.44678e-06
2.27602e-06
-7.44696e-06
2.57269e-06
-9.6754e-06
2.8824e-06
-1.21372e-05
3.20162e-06
-1.48338e-05
3.52603e-06
-1.7763e-05
3.85058e-06
-2.09178e-05
4.16957e-06
-2.42866e-05
4.47676e-06
-2.78529e-05
4.76552e-06
-3.15948e-05
5.02895e-06
-3.54856e-05
5.26013e-06
-3.94939e-05
5.45228e-06
-4.35838e-05
5.59894e-06
-4.77152e-05
5.69416e-06
-5.18451e-05
5.73261e-06
-5.59276e-05
5.70979e-06
-5.9915e-05
5.62201e-06
-6.37582e-05
5.46654e-06
-6.74079e-05
5.2416e-06
-7.08151e-05
4.94638e-06
-7.39318e-05
4.58101e-06
-7.67117e-05
4.14659e-06
-7.91109e-05
3.64512e-06
-8.10882e-05
3.07954e-06
-8.2606e-05
2.45374e-06
-8.36309e-05
1.77257e-06
-8.41329e-05
1.04172e-06
-8.40897e-05
2.6927e-07
-8.34833e-05
-5.42528e-07
-8.22979e-05
-1.38044e-06
-8.05285e-05
-2.23432e-06
-7.81768e-05
-3.09495e-06
-7.52511e-05
-3.95067e-06
-7.17674e-05
-4.78884e-06
-6.77501e-05
-5.59606e-06
-6.3232e-05
-6.35841e-06
-5.82541e-05
-7.06161e-06
-5.28661e-05
-7.69139e-06
-4.71257e-05
-8.23386e-06
-4.10983e-05
-8.67601e-06
-3.48561e-05
-9.00617e-06
-2.8477e-05
-9.21454e-06
-2.20436e-05
-9.29374e-06
-1.56412e-05
-9.23922e-06
-9.35617e-06
-9.04975e-06
-3.27408e-06
-8.72764e-06
2.52273e-06
-8.27894e-06
7.95715e-06
-7.7134e-06
1.29595e-05
-7.04429e-06
1.74694e-05
-6.28805e-06
2.14378e-05
-5.46368e-06
2.48282e-05
-4.5921e-06
2.76177e-05
-3.69534e-06
2.97973e-05
-2.79564e-06
3.13726e-05
-1.91474e-06
3.23607e-05
-1.07262e-06
3.27959e-05
-2.85343e-07
3.27211e-05
4.28288e-07
3.2187e-05
1.05813e-06
3.12523e-05
1.59733e-06
2.99805e-05
2.04105e-06
2.84372e-05
2.38859e-06
2.66872e-05
2.64268e-06
2.47928e-05
2.80899e-06
2.28116e-05
2.89555e-06
2.07954e-05
2.9121e-06
1.87887e-05
2.8694e-06
1.68287e-05
2.7786e-06
1.49447e-05
2.6507e-06
1.31587e-05
2.49606e-06
1.14858e-05
2.32411e-06
9.93487e-06
2.14312e-06
8.50954e-06
1.96008e-06
7.2091e-06
1.78068e-06
6.0295e-06
1.60916e-06
4.96443e-06
1.44832e-06
4.00656e-06
1.29924e-06
3.14894e-06
1.16108e-06
2.38648e-06
1.03081e-06
1.7175e-06
9.03151e-07
1.14502e-06
7.70858e-07
6.77142e-07
6.25933e-07
3.25748e-07
4.62264e-07
1.01874e-07
2.80867e-07
6.6254e-09
9.87638e-08
-1.84264e-08
1.16018e-07
-1.6074e-07
4.51576e-07
-5.77444e-07
9.85059e-07
-9.98896e-07
1.67957e-06
-1.34704e-06
2.48671e-06
-1.59215e-06
3.35367e-06
-1.72488e-06
4.22905e-06
-1.74948e-06
5.06724e-06
-1.67927e-06
5.83128e-06
-1.53327e-06
6.49438e-06
-1.33343e-06
7.04025e-06
-1.10216e-06
7.46241e-06
-8.60239e-07
7.76271e-06
-6.25155e-07
7.94925e-06
-4.09951e-07
8.03398e-06
-2.22609e-07
8.03025e-06
-6.59353e-08
7.95042e-06
6.19726e-08
7.80403e-06
1.67186e-07
7.59617e-06
2.58732e-07
7.32659e-06
3.47352e-07
6.9895e-06
4.44324e-07
6.57383e-06
5.60248e-07
6.06392e-06
7.04155e-07
5.44071e-06
8.82974e-07
4.68269e-06
1.10142e-06
3.76691e-06
1.36224e-06
2.66979e-06
1.66666e-06
1.36761e-06
2.01496e-06
-1.63019e-07
2.40691e-06
-1.94494e-06
2.8419e-06
-4.00002e-06
3.31903e-06
-6.34873e-06
3.83679e-06
-9.00952e-06
4.39285e-06
-1.1998e-05
4.98367e-06
-1.53263e-05
5.60428e-06
-1.90017e-05
6.24812e-06
-2.30263e-05
6.90694e-06
-2.73955e-05
7.57089e-06
-3.20982e-05
8.22865e-06
-3.71152e-05
8.86766e-06
-4.24201e-05
9.47446e-06
-4.79784e-05
1.0035e-05
-5.37482e-05
1.05353e-05
-5.96809e-05
1.09616e-05
-6.57217e-05
1.1301e-05
-7.18111e-05
1.15417e-05
-7.78858e-05
1.16736e-05
-8.38802e-05
1.16885e-05
-8.97276e-05
1.158e-05
-9.53617e-05
1.13439e-05
-0.000100718
1.0978e-05
-0.000105733
1.0482e-05
-0.000110349
9.85755e-06
-0.000114511
9.10793e-06
-0.000118167
8.23787e-06
-0.000121274
7.25347e-06
-0.000123791
6.16199e-06
-0.000125683
4.97178e-06
-0.000126922
3.69224e-06
-0.000127483
2.33377e-06
-0.000127349
9.07547e-07
-0.000126506
-5.73442e-07
-0.000124952
-2.09657e-06
-0.000122685
-3.64773e-06
-0.00011971
-5.20965e-06
-0.000116039
-6.76554e-06
-0.000111692
-8.29733e-06
-0.000106696
-9.78554e-06
-0.000101082
-1.12097e-05
-9.48921e-05
-1.25484e-05
-8.81738e-05
-1.37799e-05
-8.09827e-05
-1.48824e-05
-7.3382e-05
-1.58346e-05
-6.54418e-05
-1.66162e-05
-5.72391e-05
-1.72089e-05
-4.88567e-05
-1.75969e-05
-4.03825e-05
-1.77679e-05
-3.19082e-05
-1.77135e-05
-2.35277e-05
-1.74302e-05
-1.53356e-05
-1.69198e-05
-7.42495e-06
-1.61896e-05
1.14247e-07
-1.52526e-05
7.19744e-06
-1.41275e-05
1.37474e-05
-1.2838e-05
1.96962e-05
-1.14125e-05
2.4987e-05
-9.88291e-06
2.95755e-05
-8.28381e-06
3.34311e-05
-6.65121e-06
3.65377e-05
-5.02134e-06
3.88943e-05
-3.42921e-06
4.05168e-05
-1.90787e-06
4.14337e-05
-4.88662e-07
4.16865e-05
8.05331e-07
4.13302e-05
1.95362e-06
4.04303e-05
2.94098e-06
3.90595e-05
3.75938e-06
3.72957e-05
4.40651e-06
3.52188e-05
4.88592e-06
3.29079e-05
5.20642e-06
3.04388e-05
5.38122e-06
2.78813e-05
5.42691e-06
2.52975e-05
5.36232e-06
2.27409e-05
5.20736e-06
2.02549e-05
4.982e-06
1.78737e-05
4.70533e-06
1.56219e-05
4.39493e-06
1.35157e-05
4.06629e-06
1.15639e-05
3.73252e-06
9.76903e-06
3.40398e-06
8.12935e-06
3.08801e-06
6.64012e-06
2.78848e-06
5.29581e-06
2.50539e-06
4.09211e-06
2.23451e-06
3.02792e-06
1.96734e-06
2.10692e-06
1.69185e-06
1.33813e-06
1.39473e-06
7.34644e-07
1.06575e-06
3.09695e-07
7.05816e-07
6.93533e-08
3.39106e-07
5.09269e-08
1.72087e-07
-3.32827e-07
6.31584e-07
-1.03694e-06
1.32584e-06
-1.69315e-06
2.20044e-06
-2.22163e-06
3.19493e-06
-2.58664e-06
4.24677e-06
-2.77672e-06
5.29617e-06
-2.79888e-06
6.2903e-06
-2.6734e-06
7.18625e-06
-2.42922e-06
7.95259e-06
-2.09978e-06
8.56969e-06
-1.71926e-06
9.02881e-06
-1.31936e-06
9.33041e-06
-9.26753e-07
9.48172e-06
-5.61259e-07
9.49402e-06
-2.34912e-07
9.37983e-06
4.82541e-08
9.15013e-06
2.91671e-07
8.81221e-06
5.05109e-07
8.3679e-06
7.03041e-07
7.81257e-06
9.0268e-07
7.13491e-06
1.12199e-06
6.31734e-06
1.37782e-06
5.337e-06
1.68449e-06
4.16705e-06
2.05293e-06
2.77795e-06
2.49052e-06
1.13878e-06
3.00141e-06
-7.81786e-07
3.58722e-06
-3.01458e-06
4.24776e-06
-5.58926e-06
4.98158e-06
-8.53353e-06
5.78618e-06
-1.18724e-05
6.65787e-06
-1.5627e-05
7.59143e-06
-1.98138e-05
8.57961e-06
-2.44429e-05
9.61277e-06
-2.95171e-05
1.06785e-05
-3.50308e-05
1.17618e-05
-4.09687e-05
1.28448e-05
-4.73053e-05
1.39075e-05
-5.40049e-05
1.49283e-05
-6.10215e-05
1.58842e-05
-6.82993e-05
1.67523e-05
-7.57743e-05
1.751e-05
-8.33753e-05
1.81364e-05
-9.10263e-05
1.86126e-05
-9.86479e-05
1.89226e-05
-0.00010616
1.90537e-05
-0.000113483
1.89966e-05
-0.00012054
1.87458e-05
-0.000127259
1.82991e-05
-0.000133573
1.76575e-05
-0.00013942
1.6825e-05
-0.000144746
1.58077e-05
-0.000149502
1.4614e-05
-0.000153648
1.32538e-05
-0.000157148
1.17381e-05
-0.000159974
1.00791e-05
-0.000162101
8.28956e-06
-0.000163513
6.38299e-06
-0.000164194
4.37352e-06
-0.000164136
2.27586e-06
-0.000163334
1.05773e-07
-0.000161787
-2.12109e-06
-0.000159497
-4.38661e-06
-0.000156472
-6.6726e-06
-0.000152722
-8.95892e-06
-0.000148264
-1.1224e-05
-0.000143117
-1.34448e-05
-0.000137305
-1.55968e-05
-0.000130861
-1.76539e-05
-0.000123821
-1.95888e-05
-0.000116227
-2.13733e-05
-0.000108131
-2.29789e-05
-9.95882e-05
-2.43771e-05
-9.06635e-05
-2.55408e-05
-8.14277e-05
-2.64447e-05
-7.19581e-05
-2.70665e-05
-6.23381e-05
-2.73879e-05
-5.26558e-05
-2.73958e-05
-4.30032e-05
-2.70828e-05
-3.34744e-05
-2.64486e-05
-2.41639e-05
-2.55e-05
-1.51653e-05
-2.42513e-05
-6.56848e-06
-2.27243e-05
1.54138e-06
-2.09479e-05
9.08624e-06
-1.89574e-05
1.59967e-05
-1.67933e-05
2.22133e-05
-1.45005e-05
2.76884e-05
-1.21263e-05
3.23866e-05
-9.71955e-06
3.62863e-05
-7.32897e-06
3.93802e-05
-5.00172e-06
4.16737e-05
-2.7822e-06
4.31888e-05
-7.09704e-07
4.3961e-05
1.18142e-06
4.40388e-05
2.86315e-06
4.3483e-05
4.31513e-06
4.23646e-05
5.52491e-06
4.07623e-05
6.48829e-06
3.87596e-05
7.20911e-06
3.6442e-05
7.69876e-06
3.38939e-05
7.9751e-06
3.1195e-05
8.06121e-06
2.84186e-05
7.98377e-06
2.56291e-05
7.77147e-06
2.2881e-05
7.45342e-06
2.02182e-05
7.05775e-06
1.7674e-05
6.61046e-06
1.52721e-05
6.13447e-06
1.30273e-05
5.64878e-06
1.09475e-05
5.16778e-06
9.03552e-06
4.70045e-06
7.29127e-06
4.24964e-06
5.71419e-06
3.81159e-06
4.30563e-06
3.3759e-06
3.07081e-06
2.92667e-06
2.01999e-06
2.44555e-06
1.16843e-06
1.9173e-06
5.34856e-07
1.33939e-06
1.38889e-07
7.35073e-07
1.89815e-07
2.15357e-07
-5.48184e-07
7.73955e-07
-1.59554e-06
1.59742e-06
-2.51662e-06
2.61248e-06
-3.2367e-06
3.74542e-06
-3.71958e-06
4.9241e-06
-3.9554e-06
6.08172e-06
-3.95649e-06
7.16032e-06
-3.752e-06
8.11338e-06
-3.38229e-06
8.90704e-06
-2.89344e-06
9.52e-06
-2.33221e-06
9.9423e-06
-1.74167e-06
1.01733e-05
-1.15771e-06
1.02187e-05
-6.06722e-07
1.00881e-05
-1.0424e-07
9.79104e-06
3.45264e-07
9.33506e-06
7.47651e-07
8.72268e-06
1.11749e-06
7.94996e-06
1.47576e-06
7.00556e-06
1.84708e-06
5.8707e-06
2.25684e-06
4.51991e-06
2.72862e-06
2.92224e-06
3.28215e-06
1.04295e-06
3.93223e-06
-1.15494e-06
4.68841e-06
-3.70904e-06
5.55551e-06
-6.65626e-06
6.53444e-06
-1.00316e-05
7.62309e-06
-1.38669e-05
8.81687e-06
-1.81895e-05
1.01088e-05
-2.3021e-05
1.14894e-05
-2.83754e-05
1.29458e-05
-3.42576e-05
1.44618e-05
-4.06618e-05
1.6017e-05
-4.75705e-05
1.75872e-05
-5.49531e-05
1.91444e-05
-6.27662e-05
2.06579e-05
-7.09535e-05
2.20948e-05
-7.94471e-05
2.3422e-05
-8.81694e-05
2.46065e-05
-9.7035e-05
2.56178e-05
-0.000105954
2.64286e-05
-0.000114833
2.70156e-05
-0.000123581
2.73611e-05
-0.000132111
2.74522e-05
-0.000140339
2.7282e-05
-0.000148191
2.68482e-05
-0.000155598
2.61534e-05
-0.000162504
2.52043e-05
-0.000168857
2.40105e-05
-0.000174616
2.25843e-05
-0.000179748
2.09395e-05
-0.000184225
1.90914e-05
-0.000188027
1.70556e-05
-0.000191137
1.48484e-05
-0.000193544
1.24859e-05
-0.000195239
9.98444e-06
-0.000196216
7.36014e-06
-0.000196472
4.62939e-06
-0.000196005
1.80883e-06
-0.000194815
-1.08431e-06
-0.000192904
-4.03229e-06
-0.000190274
-7.01589e-06
-0.000186932
-1.00145e-05
-0.000182885
-1.30059e-05
-0.000178144
-1.59659e-05
-0.00017272
-1.88681e-05
-0.000166633
-2.16841e-05
-0.000159904
-2.43831e-05
-0.00015256
-2.69326e-05
-0.000144635
-2.92982e-05
-0.000136169
-3.14447e-05
-0.00012721
-3.33366e-05
-0.000117811
-3.4939e-05
-0.000108037
-3.6219e-05
-9.79573e-05
-3.71464e-05
-8.76492e-05
-3.76961e-05
-7.71967e-05
-3.78482e-05
-6.66893e-05
-3.75903e-05
-5.62198e-05
-3.69181e-05
-4.58836e-05
-3.58362e-05
-3.57761e-05
-3.43587e-05
-2.59911e-05
-3.25093e-05
-1.66185e-05
-3.03205e-05
-7.74267e-06
-2.78332e-05
5.59281e-07
-2.50953e-05
8.21893e-06
-2.21601e-05
1.51777e-05
-1.9085e-05
2.13876e-05
-1.59295e-05
2.68122e-05
-1.27536e-05
3.1427e-05
-9.61643e-06
3.52193e-05
-6.57454e-06
3.81901e-05
-3.68049e-06
4.03532e-05
-9.81741e-07
4.17358e-05
1.48061e-06
4.2378e-05
3.67295e-06
4.23326e-05
5.57027e-06
4.16639e-05
7.15696e-06
4.04458e-05
8.42727e-06
3.87592e-05
9.38536e-06
3.66894e-05
1.00448e-05
3.43229e-05
1.04277e-05
3.17439e-05
1.05628e-05
2.90314e-05
1.0484e-05
2.62569e-05
1.0228e-05
2.34821e-05
9.83248e-06
2.07587e-05
9.33389e-06
1.81273e-05
8.7659e-06
1.56183e-05
8.15777e-06
1.32531e-05
7.53294e-06
1.10458e-05
6.90773e-06
9.00531e-06
6.29016e-06
7.13786e-06
5.67904e-06
5.44977e-06
5.06399e-06
3.94984e-06
4.42661e-06
2.65153e-06
3.74386e-06
1.5746e-06
2.99423e-06
7.46468e-07
2.16752e-06
2.04023e-07
1.27752e-06
3.93838e-07
2.48142e-07
-7.96326e-07
8.83692e-07
-2.23109e-06
1.80728e-06
-3.4402e-06
2.92733e-06
-4.35676e-06
4.15619e-06
-4.94844e-06
5.41176e-06
-5.21096e-06
6.62053e-06
-5.16526e-06
7.72048e-06
-4.85195e-06
8.66296e-06
-4.32477e-06
9.41326e-06
-3.64374e-06
9.94985e-06
-2.86881e-06
1.02626e-05
-2.0544e-06
1.035e-05
-1.24517e-06
1.02165e-05
-4.7314e-07
9.86837e-06
2.43852e-07
9.31136e-06
9.02274e-07
8.54719e-06
1.51182e-06
7.5715e-06
2.09319e-06
6.37231e-06
2.67495e-06
4.92951e-06
3.28988e-06
3.21523e-06
3.97112e-06
1.19508e-06
4.74877e-06
-1.17015e-06
5.64738e-06
-3.92243e-06
6.68451e-06
-7.10448e-06
7.87046e-06
-1.07579e-05
9.20892e-06
-1.49213e-05
1.06979e-05
-1.96288e-05
1.23306e-05
-2.49078e-05
1.40959e-05
-3.07776e-05
1.59786e-05
-3.72467e-05
1.79585e-05
-4.43115e-05
2.00106e-05
-5.1954e-05
2.21044e-05
-6.01412e-05
2.42042e-05
-6.88242e-05
2.62701e-05
-7.79388e-05
2.8259e-05
-8.74071e-05
3.01261e-05
-9.71395e-05
3.18273e-05
-0.000107038
3.33208e-05
-0.000117001
3.45691e-05
-0.000126924
3.55408e-05
-0.000136706
3.62111e-05
-0.000146254
3.65631e-05
-0.00015548
3.65871e-05
-0.000164308
3.62806e-05
-0.000172674
3.56476e-05
-0.000180523
3.46969e-05
-0.000187811
3.34418e-05
-0.000194505
3.18983e-05
-0.000200579
3.00846e-05
-0.000206015
2.80198e-05
-0.000210799
2.57234e-05
-0.000214922
2.32149e-05
-0.000218379
2.0513e-05
-0.000221167
1.76361e-05
-0.000223283
1.46017e-05
-0.000224725
1.14266e-05
-0.000225492
8.12738e-06
-0.000225583
4.72028e-06
-0.000224996
1.22182e-06
-0.00022373
-2.35105e-06
-0.000221781
-5.98032e-06
-0.000219151
-9.64665e-06
-0.000215836
-1.33289e-05
-0.000211839
-1.70036e-05
-0.00020716
-2.06449e-05
-0.000201804
-2.42241e-05
-0.000195778
-2.77094e-05
-0.000189095
-3.10663e-05
-0.000181771
-3.42571e-05
-0.000173827
-3.72417e-05
-0.000165294
-3.99781e-05
-0.000156208
-4.24232e-05
-0.000146613
-4.45338e-05
-0.000136564
-4.62681e-05
-0.000126123
-4.75871e-05
-0.000115362
-4.84567e-05
-0.000104362
-4.88487e-05
-9.3209e-05
-4.87433e-05
-8.19968e-05
-4.81303e-05
-7.08228e-05
-4.70101e-05
-5.97866e-05
-4.5395e-05
-4.89869e-05
-4.33089e-05
-3.85203e-05
-4.07871e-05
-2.84779e-05
-3.78756e-05
-1.89441e-05
-3.46291e-05
-9.99464e-06
-3.11096e-05
-1.69558e-06
-2.73841e-05
5.89735e-06
-2.35224e-05
1.27391e-05
-1.95953e-05
1.87952e-05
-1.56726e-05
2.4042e-05
-1.18214e-05
2.84666e-05
-8.10509e-06
3.20669e-05
-4.58208e-06
3.48522e-05
-1.30469e-06
3.68433e-05
1.68186e-06
3.8073e-05
4.34058e-06
3.85862e-05
6.64381e-06
3.84392e-05
8.57424e-06
3.7699e-05
1.01255e-05
3.64412e-05
1.13027e-05
3.47473e-05
1.21216e-05
3.27021e-05
1.2608e-05
3.03902e-05
1.27959e-05
2.78925e-05
1.27257e-05
2.52839e-05
1.2441e-05
2.2631e-05
1.19868e-05
1.99904e-05
1.14065e-05
1.74084e-05
1.07398e-05
1.49213e-05
1.002e-05
1.25568e-05
9.27232e-06
1.03351e-05
8.51185e-06
8.272e-06
7.7421e-06
6.38141e-06
6.95458e-06
4.67819e-06
6.12982e-06
3.18146e-06
5.24059e-06
1.91786e-06
4.25783e-06
9.2547e-07
3.15991e-06
2.58852e-07
1.94414e-06
6.52691e-07
2.73556e-07
-1.06988e-06
9.68267e-07
-2.9258e-06
1.96652e-06
-4.43846e-06
3.15936e-06
-5.54959e-06
4.44506e-06
-6.23414e-06
5.73139e-06
-6.4973e-06
6.93842e-06
-6.37228e-06
8.00079e-06
-5.91433e-06
8.86888e-06
-5.19286e-06
9.5084e-06
-4.28325e-06
9.89875e-06
-3.25915e-06
1.00304e-05
-2.18602e-06
9.90146e-06
-1.11626e-06
9.51431e-06
-8.59902e-08
8.87171e-06
8.86448e-07
7.97361e-06
1.80037e-06
6.81431e-06
2.67112e-06
5.38049e-06
3.52701e-06
3.65022e-06
4.40522e-06
1.59308e-06
5.34703e-06
-8.28783e-07
6.39298e-06
-3.65869e-06
7.57868e-06
-6.94309e-06
8.93177e-06
-1.0729e-05
1.04704e-05
-1.50614e-05
1.22029e-05
-1.99811e-05
1.41287e-05
-2.55224e-05
1.62392e-05
-3.17106e-05
1.85188e-05
-3.85599e-05
2.09452e-05
-4.60706e-05
2.34893e-05
-5.42276e-05
2.61154e-05
-6.29978e-05
2.87808e-05
-7.23303e-05
3.14368e-05
-8.21559e-05
3.40298e-05
-9.23893e-05
3.65035e-05
-0.000102931
3.88011e-05
-0.000113674
4.08685e-05
-0.000124503
4.26562e-05
-0.000135304
4.41224e-05
-0.000145969
4.52339e-05
-0.000156396
4.59674e-05
-0.000166494
4.63095e-05
-0.000176187
4.6256e-05
-0.000185411
4.58109e-05
-0.000194115
4.4985e-05
-0.000202262
4.37944e-05
-0.000209824
4.22588e-05
-0.000216782
4.04003e-05
-0.000223126
3.82419e-05
-0.000228848
3.58071e-05
-0.000233947
3.31187e-05
-0.000238422
3.01985e-05
-0.000242274
2.70672e-05
-0.000245505
2.37439e-05
-0.000248116
2.02468e-05
-0.000250107
1.65925e-05
-0.000251477
1.27969e-05
-0.000252225
8.87549e-06
-0.000252348
4.84323e-06
-0.000251842
7.15498e-07
-0.000250701
-3.49183e-06
-0.00024892
-7.76156e-06
-0.000246492
-1.20749e-05
-0.000243409
-1.6411e-05
-0.000239667
-2.07462e-05
-0.000235258
-2.50538e-05
-0.000230178
-2.93037e-05
-0.000224426
-3.34619e-05
-0.000218001
-3.74908e-05
-0.00021091
-4.13485e-05
-0.000203162
-4.49898e-05
-0.000194774
-4.83662e-05
-0.00018577
-5.14271e-05
-0.000176183
-5.41207e-05
-0.000166055
-5.63953e-05
-0.000155441
-5.82019e-05
-0.000144402
-5.94952e-05
-0.000133014
-6.02366e-05
-0.000121361
-6.03961e-05
-0.000109537
-5.99546e-05
-9.76417e-05
-5.89055e-05
-8.57804e-05
-5.72563e-05
-7.40604e-05
-5.50289e-05
-6.25879e-05
-5.22596e-05
-5.1465e-05
-4.89985e-05
-4.07869e-05
-4.53072e-05
-3.06397e-05
-4.12568e-05
-2.10987e-05
-3.6925e-05
-1.22275e-05
-3.23936e-05
-4.0779e-06
-2.7745e-05
3.31009e-06
-2.30605e-05
9.90704e-06
-1.84183e-05
1.56936e-05
-1.38917e-05
2.06598e-05
-9.54829e-06
2.48047e-05
-5.44956e-06
2.81364e-05
-1.64981e-06
3.06726e-05
1.80438e-06
3.24412e-05
4.87515e-06
3.34811e-05
7.53442e-06
3.38417e-05
9.76492e-06
3.35832e-05
1.15611e-05
3.27751e-05
1.29297e-05
3.14938e-05
1.38893e-05
2.98203e-05
1.44694e-05
2.78372e-05
1.47088e-05
2.56248e-05
1.46534e-05
2.3259e-05
1.43526e-05
2.08083e-05
1.38572e-05
1.83326e-05
1.32155e-05
1.58821e-05
1.24705e-05
1.3498e-05
1.16564e-05
1.12133e-05
1.07965e-05
9.05505e-06
9.9004e-06
7.04655e-06
8.96308e-06
5.21111e-06
7.96527e-06
3.57569e-06
6.87601e-06
2.17559e-06
5.65793e-06
1.06017e-06
4.27534e-06
2.99952e-07
2.70435e-06
9.52643e-07
2.94042e-07
-1.36392e-06
1.03383e-06
-3.66559e-06
2.08432e-06
-5.48895e-06
3.31973e-06
-6.785e-06
4.62457e-06
-7.53898e-06
5.89674e-06
-7.76947e-06
7.05044e-06
-7.52598e-06
8.01792e-06
-6.88181e-06
8.74968e-06
-5.92461e-06
9.21295e-06
-4.74652e-06
9.38897e-06
-3.43517e-06
9.26928e-06
-2.06634e-06
8.85164e-06
-6.9862e-07
8.13583e-06
6.2982e-07
7.11978e-06
1.9025e-06
5.79625e-06
3.12391e-06
4.15032e-06
4.31705e-06
2.15805e-06
5.51928e-06
-2.13774e-07
6.77704e-06
-3.00652e-06
8.13978e-06
-6.26766e-06
9.65412e-06
-1.00479e-05
1.13589e-05
-1.43981e-05
1.3282e-05
-1.9366e-05
1.54383e-05
-2.49933e-05
1.78302e-05
-3.13128e-05
2.04482e-05
-3.83457e-05
2.32721e-05
-4.60989e-05
2.62719e-05
-5.4562e-05
2.94083e-05
-6.3706e-05
3.26333e-05
-7.34809e-05
3.58903e-05
-8.38164e-05
3.91164e-05
-9.4623e-05
4.22434e-05
-0.000105795
4.52017e-05
-0.000117215
4.79233e-05
-0.000128759
5.03452e-05
-0.000140303
5.24125e-05
-0.000151728
5.40812e-05
-0.000162925
5.53192e-05
-0.000173798
5.61068e-05
-0.000184266
5.64361e-05
-0.000194267
5.63097e-05
-0.000203749
5.57389e-05
-0.00021268
5.47415e-05
-0.000221035
5.33403e-05
-0.000228802
5.15609e-05
-0.000235973
4.94303e-05
-0.000242549
4.69757e-05
-0.000248531
4.42237e-05
-0.000253923
4.11996e-05
-0.000258732
3.79272e-05
-0.000262961
3.44282e-05
-0.000266617
3.07228e-05
-0.000269702
2.68291e-05
-0.000272219
2.27639e-05
-0.000274169
1.85426e-05
-0.000275552
1.41795e-05
-0.000276365
9.68836e-06
-0.000276604
5.08268e-06
-0.000276265
3.76186e-07
-0.00027534
-4.41675e-06
-0.000273821
-9.28049e-06
-0.000271698
-1.41976e-05
-0.000268961
-1.91484e-05
-0.000265597
-2.411e-05
-0.000261595
-2.90563e-05
-0.000256941
-3.39572e-05
-0.000251625
-3.87779e-05
-0.000245637
-4.34789e-05
-0.000238969
-4.80161e-05
-0.000231619
-5.23401e-05
-0.000223588
-5.63972e-05
-0.000214885
-6.013e-05
-0.000205528
-6.34782e-05
-0.000195543
-6.63805e-05
-0.000184968
-6.87762e-05
-0.000173856
-7.06077e-05
-0.000162269
-7.18231e-05
-0.000150286
-7.23792e-05
-0.000137997
-7.2244e-05
-0.000125503
-7.13997e-05
-0.000112915
-6.98445e-05
-0.000100349
-6.75943e-05
-8.79256e-05
-6.46831e-05
-7.57617e-05
-6.11624e-05
-6.39696e-05
-5.70993e-05
-5.26524e-05
-5.25741e-05
-4.19009e-05
-4.76765e-05
-3.17922e-05
-4.25023e-05
-2.23883e-05
-3.71489e-05
-1.37368e-05
-3.1712e-05
-5.87171e-06
-2.62834e-05
1.18468e-06
-2.09481e-05
7.42017e-06
-1.57838e-05
1.2831e-05
-1.08603e-05
1.74207e-05
-6.23953e-06
2.12e-05
-1.97494e-06
2.4187e-05
1.88818e-06
2.64078e-05
5.31361e-06
2.78976e-05
8.27507e-06
2.87014e-05
1.07573e-05
2.88739e-05
1.27573e-05
2.84789e-05
1.42843e-05
2.75878e-05
1.53604e-05
2.62775e-05
1.60192e-05
2.46269e-05
1.6304e-05
2.27145e-05
1.6265e-05
2.06152e-05
1.59565e-05
1.83981e-05
1.54327e-05
1.61244e-05
1.47441e-05
1.38474e-05
1.39334e-05
1.16122e-05
1.30317e-05
9.45736e-06
1.20553e-05
7.41699e-06
1.10035e-05
5.52424e-06
9.85802e-06
3.81541e-06
8.58483e-06
2.3354e-06
7.13795e-06
1.1443e-06
5.46644e-06
3.25554e-07
3.5231e-06
1.2782e-06
3.11043e-07
-1.67497e-06
1.08395e-06
-4.4385e-06
2.16568e-06
-6.57067e-06
3.4139e-06
-8.03322e-06
4.69984e-06
-8.82492e-06
5.91232e-06
-8.98195e-06
6.96075e-06
-8.5744e-06
7.77618e-06
-7.69725e-06
8.31046e-06
-6.45889e-06
8.53336e-06
-4.96943e-06
8.42856e-06
-3.33037e-06
7.98881e-06
-1.62658e-06
7.21096e-06
7.92209e-08
6.09133e-06
1.74945e-06
4.62158e-06
3.37225e-06
2.78568e-06
4.95981e-06
5.5799e-07
6.54473e-06
-2.09719e-06
8.17446e-06
-5.22466e-06
9.90451e-06
-8.87598e-06
1.17911e-05
-1.31061e-05
1.38843e-05
-1.79697e-05
1.62225e-05
-2.35167e-05
1.8829e-05
-2.97891e-05
2.17107e-05
-3.68172e-05
2.48583e-05
-4.46165e-05
2.82475e-05
-5.31849e-05
3.18405e-05
-6.24998e-05
3.55868e-05
-7.25164e-05
3.9425e-05
-8.31672e-05
4.3284e-05
-9.43622e-05
4.70854e-05
-0.000105992
5.07466e-05
-0.000117934
5.41849e-05
-0.000130054
5.7322e-05
-0.000142219
6.00878e-05
-0.000154298
6.24241e-05
-0.000166172
6.42868e-05
-0.000177737
6.56467e-05
-0.000188907
6.64893e-05
-0.000199614
6.68132e-05
-0.000209806
6.66281e-05
-0.000219448
6.59523e-05
-0.00022852
6.48104e-05
-0.000237009
6.32308e-05
-0.000244913
6.12441e-05
-0.000252233
5.88815e-05
-0.000258977
5.61735e-05
-0.000265151
5.31495e-05
-0.000270764
4.9837e-05
-0.000275826
4.62615e-05
-0.000280345
4.24462e-05
-0.000284329
3.84122e-05
-0.000287785
3.41787e-05
-0.000290718
2.97628e-05
-0.000293134
2.51797e-05
-0.000295035
2.04436e-05
-0.000296423
1.55671e-05
-0.000297297
1.05624e-05
-0.000297655
5.44092e-06
-0.000297493
2.14473e-07
-0.000296806
-5.10451e-06
-0.000295583
-1.05028e-05
-0.000293816
-1.59653e-05
-0.00029149
-2.14744e-05
-0.00028859
-2.70096e-05
-0.0002851
-3.25467e-05
-0.000280999
-3.80572e-05
-0.00027627
-4.35075e-05
-0.00027089
-4.88585e-05
-0.000264841
-5.40652e-05
-0.000258105
-5.90766e-05
-0.000250666
-6.38357e-05
-0.000242516
-6.82798e-05
-0.000233653
-7.23417e-05
-0.000224083
-7.59507e-05
-0.000213824
-7.90348e-05
-0.000202909
-8.15228e-05
-0.000191384
-8.33478e-05
-0.000179313
-8.445e-05
-0.000166777
-8.47806e-05
-0.000153871
-8.43051e-05
-0.000140709
-8.30071e-05
-0.000127413
-8.08901e-05
-0.000114116
-7.79797e-05
-0.000100955
-7.43239e-05
-8.8063e-05
-6.99912e-05
-7.55679e-05
-6.50691e-05
-6.35854e-05
-5.9659e-05
-5.22153e-05
-5.38724e-05
-4.15392e-05
-4.78249e-05
-3.16198e-05
-4.16315e-05
-2.2501e-05
-3.54022e-05
-1.42104e-05
-2.92386e-05
-6.76178e-06
-2.32324e-05
-1.57967e-07
-1.74642e-05
5.6062e-06
-1.20037e-05
1.05421e-05
-6.91083e-06
1.46662e-05
-2.23597e-06
1.80004e-05
1.97949e-06
2.0572e-05
5.70339e-06
2.24159e-05
8.91352e-06
2.35745e-05
1.15986e-05
2.40991e-05
1.37596e-05
2.40497e-05
1.54099e-05
2.34931e-05
1.65758e-05
2.25022e-05
1.72949e-05
2.11523e-05
1.76148e-05
1.95194e-05
1.75894e-05
1.76767e-05
1.72755e-05
1.56925e-05
1.67283e-05
1.36291e-05
1.59968e-05
1.1542e-05
1.51188e-05
9.48045e-06
1.41168e-05
7.48948e-06
1.29944e-05
5.61253e-06
1.1735e-05
3.89587e-06
1.03015e-05
2.39395e-06
8.63987e-06
1.17623e-06
6.68415e-06
3.35259e-07
4.36408e-06
1.61346e-06
3.24996e-07
-1.99996e-06
1.11941e-06
-5.23292e-06
2.21103e-06
-7.66229e-06
3.44107e-06
-9.26326e-06
4.66834e-06
-1.00522e-05
5.77389e-06
-1.00875e-05
6.66386e-06
-9.46437e-06
7.26969e-06
-8.30309e-06
7.54587e-06
-6.73506e-06
7.46557e-06
-4.88912e-06
7.01517e-06
-2.87997e-06
6.18829e-06
-7.99702e-07
4.97998e-06
1.28753e-06
3.38168e-06
3.34775e-06
1.37725e-06
5.37668e-06
-1.05961e-06
7.39667e-06
-3.96625e-06
9.45137e-06
-7.39024e-06
1.15985e-05
-1.13869e-05
1.39011e-05
-1.60152e-05
1.64194e-05
-2.13335e-05
1.92026e-05
-2.73942e-05
2.22832e-05
-3.42393e-05
2.5674e-05
-4.18961e-05
2.93674e-05
-5.03737e-05
3.33359e-05
-5.96599e-05
3.75338e-05
-6.97191e-05
4.18996e-05
-8.04904e-05
4.63581e-05
-9.18882e-05
5.08228e-05
-0.000103804
5.51997e-05
-0.000116111
5.93921e-05
-0.000128669
6.33049e-05
-0.000141335
6.68505e-05
-0.000153966
6.99535e-05
-0.000166432
7.25539e-05
-0.000178617
7.46088e-05
-0.000190424
7.60934e-05
-0.000201775
7.69987e-05
-0.000212616
7.73301e-05
-0.000222907
7.7104e-05
-0.000232624
7.63452e-05
-0.000241756
7.5084e-05
-0.0002503
7.33539e-05
-0.000258258
7.11895e-05
-0.00026564
6.86258e-05
-0.000272455
6.56963e-05
-0.000278714
6.24332e-05
-0.000284431
5.88665e-05
-0.000289618
5.50239e-05
-0.000294287
5.09306e-05
-0.000298451
4.66096e-05
-0.00030212
4.20814e-05
-0.000305306
3.73643e-05
-0.000308017
3.24745e-05
-0.000310264
2.74261e-05
-0.000312052
2.22317e-05
-0.000313387
1.69024e-05
-0.000314273
1.14483e-05
-0.000314711
5.87886e-06
-0.0003147
2.03102e-07
-0.000314235
-5.5688e-06
-0.000313311
-1.1427e-05
-0.000311917
-1.73595e-05
-0.000310039
-2.3352e-05
-0.000307661
-2.93875e-05
-0.000304763
-3.54453e-05
-0.00030132
-4.15002e-05
-0.000297306
-4.75216e-05
-0.000292691
-5.34732e-05
-0.000287444
-5.93118e-05
-0.000281534
-6.4987e-05
-0.000274929
-7.04411e-05
-0.0002676
-7.5609e-05
-0.000259522
-8.04188e-05
-0.000250681
-8.47926e-05
-0.000241067
-8.86484e-05
-0.000230688
-9.19021e-05
-0.000219565
-9.44708e-05
-0.000207738
-9.62763e-05
-0.00019527
-9.72493e-05
-0.000182241
-9.73339e-05
-0.000168756
-9.64922e-05
-0.000154938
-9.47081e-05
-0.000140927
-9.19905e-05
-0.000126876
-8.83754e-05
-0.000112941
-8.3926e-05
-9.92794e-05
-7.87304e-05
-8.60398e-05
-7.28987e-05
-7.33553e-05
-6.65569e-05
-6.13396e-05
-5.98406e-05
-5.00828e-05
-5.28883e-05
-3.96503e-05
-4.58347e-05
-3.00841e-05
-3.88049e-05
-2.14052e-05
-3.19113e-05
-1.36179e-05
-2.52514e-05
-6.71418e-06
-1.89074e-05
-6.77429e-07
-1.29476e-05
4.51416e-06
-7.42756e-06
8.88592e-06