/*--------------------------------*- C++ -*----------------------------------*\
| =========                 |                                                 |
| \\      /  F ield         | OpenFOAM: The Open Source CFD Toolbox           |
|  \\    /   O peration     | Version:  2406                                  |
|   \\  /    A nd           | Website:  www.openfoam.com                      |
|    \\/     M anipulation  |                                                 |
\*---------------------------------------------------------------------------*/
FoamFile
{
    version     2.0;
    format      ascii;
    arch        "LSB;label=32;scalar=64";
    class       surfaceScalarField;
    location    "31.2";
    object      phi;
}
// * * * * * * * * * * * * * * * * * * * * * * * * * * * * * * * * * * * * * //

dimensions      [0 3 -1 0 0 0 0];

oriented        oriented;

internalField   nonuniform List<scalar> 
7080
(
2.67404e-07
-2.66966e-07
1.43944e-06
-1.18218e-06
3.07855e-06
-1.63705e-06
4.75005e-06
-1.68116e-06
6.13989e-06
-1.38864e-06
7.0989e-06
-9.65441e-07
7.63581e-06
-5.34984e-07
7.82218e-06
-1.89231e-07
7.77591e-06
4.92044e-08
7.57209e-06
2.03866e-07
7.25225e-06
3.23859e-07
6.78201e-06
4.7291e-07
6.08831e-06
6.99495e-07
5.05257e-06
1.04166e-06
3.54841e-06
1.51304e-06
1.43734e-06
2.12134e-06
-1.41016e-06
2.86083e-06
-5.11894e-06
3.72433e-06
-9.79266e-06
4.69232e-06
-1.55103e-05
5.73909e-06
-2.23051e-05
6.81961e-06
-3.01464e-05
7.86971e-06
-3.89135e-05
8.79846e-06
-4.83807e-05
9.50016e-06
-5.82085e-05
9.86039e-06
-6.79528e-05
9.77445e-06
-7.70858e-05
9.15849e-06
-8.50336e-05
7.96722e-06
-9.12192e-05
6.19776e-06
-9.51093e-05
3.8945e-06
-9.62549e-05
1.14174e-06
-9.43291e-05
-1.93764e-06
-8.91575e-05
-5.19091e-06
-8.07477e-05
-8.43611e-06
-6.93084e-05
-1.14714e-05
-5.52662e-05
-1.40795e-05
-3.92616e-05
-1.60451e-05
-2.21335e-05
-1.71712e-05
-4.86765e-06
-1.73092e-05
1.14747e-05
-1.63852e-05
2.58668e-05
-1.44313e-05
3.74318e-05
-1.16003e-05
4.55691e-05
-8.16496e-06
5.00371e-05
-4.48912e-06
5.09954e-05
-9.69185e-07
4.89576e-05
2.03371e-06
4.46919e-05
4.27156e-06
3.90568e-05
5.64437e-06
3.2862e-05
6.21134e-06
2.67398e-05
6.13685e-06
2.11185e-05
5.64038e-06
1.6211e-05
4.92047e-06
1.20856e-05
4.14266e-06
8.69359e-06
3.40031e-06
5.94382e-06
2.7643e-06
3.72506e-06
2.22219e-06
1.96343e-06
1.77383e-06
6.887e-07
1.27415e-06
-1.37151e-08
7.12241e-07
-1.36158e-08
1.1225e-06
-1.37973e-06
3.75676e-06
-3.81754e-06
7.09499e-06
-4.95999e-06
1.03688e-05
-4.95316e-06
1.30558e-05
-4.06383e-06
1.48465e-05
-2.75555e-06
1.56935e-05
-1.37601e-06
1.56473e-05
-1.45483e-07
1.4838e-05
8.59046e-07
1.33255e-05
1.71097e-06
1.11031e-05
2.54212e-06
8.02957e-06
3.53783e-06
3.88401e-06
4.83572e-06
-1.63265e-06
6.54449e-06
-8.83028e-06
8.69419e-06
-1.80136e-05
1.12831e-05
-2.94296e-05
1.42511e-05
-4.32439e-05
1.75076e-05
-5.94781e-05
2.08911e-05
-7.79597e-05
2.418e-05
-9.82719e-05
2.70856e-05
-0.000119761
2.93065e-05
-0.000141583
3.0562e-05
-0.000162789
3.06446e-05
-0.000182419
2.94293e-05
-0.000199586
2.68848e-05
-0.000213528
2.30514e-05
-0.000223633
1.80356e-05
-0.000229445
1.19866e-05
-0.000230653
5.09572e-06
-0.000227085
-2.41763e-06
-0.000218699
-1.02979e-05
-0.00020559
-1.82597e-05
-0.000187995
-2.59766e-05
-0.00016631
-3.30895e-05
-0.000141108
-3.92047e-05
-0.000113149
-4.39209e-05
-8.33824e-05
-4.68506e-05
-5.29272e-05
-4.76764e-05
-2.30323e-05
-4.61957e-05
5.00462e-06
-4.23898e-05
2.99283e-05
-3.6457e-05
5.06537e-05
-2.88359e-05
6.63709e-05
-2.01693e-05
7.66553e-05
-1.12321e-05
8.15116e-05
-2.81989e-06
8.13948e-05
4.37877e-06
7.71347e-05
9.881e-06
6.98342e-05
1.34844e-05
6.06772e-05
1.52594e-05
5.07786e-05
1.55091e-05
4.10131e-05
1.46529e-05
3.19868e-05
1.31454e-05
2.40035e-05
1.13562e-05
1.71727e-05
9.58008e-06
1.14514e-05
7.92155e-06
6.79354e-06
6.42461e-06
3.21057e-06
4.8395e-06
8.51187e-07
3.0714e-06
8.27519e-07
1.63931e-06
-3.01903e-06
5.10751e-06
-7.30136e-06
9.28241e-06
-9.13308e-06
1.31456e-05
-8.8294e-06
1.60879e-05
-7.00615e-06
1.77203e-05
-4.39587e-06
1.79591e-05
-1.61312e-06
1.67958e-05
1.01537e-06
1.42898e-05
3.36919e-06
1.03914e-05
5.61161e-06
4.95348e-06
7.98692e-06
-2.33168e-06
1.08297e-05
-1.18522e-05
1.4367e-05
-2.40492e-05
1.87537e-05
-3.93158e-05
2.39774e-05
-5.79413e-05
2.99284e-05
-7.99989e-05
3.63336e-05
-0.000105261
4.27982e-05
-0.000133125
4.8789e-05
-0.000162656
5.37479e-05
-0.000192692
5.71623e-05
-0.000222017
5.86763e-05
-0.000249504
5.80986e-05
-0.000274218
5.54108e-05
-0.000295442
5.07057e-05
-0.00031267
4.41613e-05
-0.000325565
3.59869e-05
-0.000333915
2.64174e-05
-0.000337597
1.56885e-05
-0.000336547
4.05137e-06
-0.000330739
-8.23309e-06
-0.000320191
-2.08685e-05
-0.000304965
-3.35215e-05
-0.000285196
-4.57946e-05
-0.000261115
-5.72309e-05
-0.000233089
-6.73008e-05
-0.000201651
-7.54346e-05
-0.000167536
-8.1045e-05
-0.000131687
-8.36059e-05
-9.52427e-05
-8.27172e-05
-5.94871e-05
-7.82157e-05
-2.57702e-05
-7.02351e-05
4.61419e-06
-5.92678e-05
3.05374e-05
-4.61271e-05
5.11595e-05
-3.18721e-05
6.59887e-05
-1.76549e-05
7.49402e-05
-4.56414e-06
7.83227e-05
6.51375e-06
7.68357e-05
1.4996e-05
7.14705e-05
2.06483e-05
6.34164e-05
2.35921e-05
5.38529e-05
2.42388e-05
4.38335e-05
2.31914e-05
3.41207e-05
2.10852e-05
2.52262e-05
1.84974e-05
1.73798e-05
1.57768e-05
1.07336e-05
1.30906e-05
5.37627e-06
1.01977e-05
1.62794e-06
6.83768e-06
2.45685e-06
1.93929e-06
-4.94884e-06
5.76695e-06
-1.11354e-05
1.00689e-05
-1.34214e-05
1.36596e-05
-1.24228e-05
1.59142e-05
-9.25181e-06
1.64273e-05
-4.91102e-06
1.50954e-05
-2.77376e-07
1.18254e-05
4.28189e-06
6.54043e-06
8.65344e-06
-9.99117e-07
1.31455e-05
-1.11492e-05
1.81322e-05
-2.44059e-05
2.40779e-05
-4.1272e-05
3.1224e-05
-6.21722e-05
3.96418e-05
-8.72895e-05
4.90806e-05
-0.000116447
5.90684e-05
-0.000148997
6.88629e-05
-0.000183857
7.76335e-05
-0.000219661
8.45646e-05
-0.000255007
8.90624e-05
-0.000288661
9.07813e-05
-0.000319672
8.96494e-05
-0.000347382
8.57682e-05
-0.00037138
7.93678e-05
-0.000391432
7.07173e-05
-0.000407415
6.01089e-05
-0.00041927
4.78112e-05
-0.000426959
3.4085e-05
-0.000430448
1.91647e-05
-0.000429689
3.29023e-06
-0.000424617
-1.32965e-05
-0.000415154
-3.0311e-05
-0.000401223
-4.74217e-05
-0.00038277
-6.42075e-05
-0.000359793
-8.01578e-05
-0.000332394
-9.46435e-05
-0.00030082
-0.000106946
-0.000265526
-0.000116273
-0.000227218
-0.000121848
-0.000186877
-0.000122995
-0.000145746
-0.000119288
-0.000105262
-0.000110668
-6.69307e-05
-9.75571e-05
-3.2171e-05
-8.08568e-05
-2.14356e-06
-6.18793e-05
2.23431e-05
-4.21344e-05
4.08898e-05
-2.31114e-05
5.3458e-05
-6.06588e-06
6.0355e-05
8.08507e-06
6.217e-05
1.88118e-05
5.97769e-05
2.59671e-05
5.42127e-05
2.97794e-05
4.66096e-05
3.07791e-05
3.79796e-05
2.96934e-05
2.9188e-05
2.72794e-05
2.08014e-05
2.41437e-05
1.32741e-05
2.06153e-05
6.88714e-06
1.65653e-05
2.19862e-06
1.15307e-05
4.64287e-06
2.07636e-06
-7.02239e-06
5.88417e-06
-1.49571e-05
9.75408e-06
-1.72855e-05
1.2384e-05
-1.50622e-05
1.3163e-05
-1.00277e-05
1.1697e-05
-3.4498e-06
7.86013e-06
3.5627e-06
1.45084e-06
1.06908e-05
-7.78688e-06
1.78958e-05
-2.03134e-05
2.56754e-05
-3.66782e-05
3.45038e-05
-5.74589e-05
4.48658e-05
-8.30403e-05
5.68153e-05
-0.000113454
7.0067e-05
-0.000148197
8.3837e-05
-0.000186212
9.70993e-05
-0.000226025
0.000108694
-0.000266042
0.000117672
-0.000304836
0.000123382
-0.000341316
0.000125569
-0.00037475
0.000124245
-0.000404708
0.000119638
-0.000430968
0.000112061
-0.00045345
0.000101883
-0.00047215
8.94472e-05
-0.000487103
7.50886e-05
-0.000498358
5.90859e-05
-0.000505954
4.16942e-05
-0.000509907
2.31234e-05
-0.0005102
3.57963e-06
-0.000506768
-1.67416e-05
-0.000499495
-3.76046e-05
-0.000488217
-5.87288e-05
-0.000472729
-7.97315e-05
-0.00045281
-0.00010012
-0.00042826
-0.00011924
-0.000398966
-0.000136291
-0.000364976
-0.000150315
-0.000326592
-0.000160283
-0.000284464
-0.000165172
-0.000239642
-0.000164156
-0.000193581
-0.00015677
-0.000148038
-0.000143132
-0.000104886
-0.000124034
-6.5834e-05
-0.000100946
-3.21879e-05
-7.57888e-05
-4.68716e-06
-5.06101e-05
1.6449e-05
-2.7196e-05
3.14154e-05
-6.86707e-06
4.06486e-05
9.59204e-06
4.48027e-05
2.18323e-05
4.46803e-05
2.99155e-05
4.12625e-05
3.42164e-05
3.55488e-05
3.54169e-05
2.85442e-05
3.43023e-05
2.10441e-05
3.16478e-05
1.37791e-05
2.78984e-05
7.27726e-06
2.30638e-05
2.34783e-06
1.64798e-05
6.99037e-06
2.09138e-06
-9.10676e-06
5.48364e-06
-1.83574e-05
8.31818e-06
-2.01103e-05
9.26664e-06
-1.6015e-05
7.77734e-06
-8.53347e-06
3.4848e-06
8.39696e-07
-3.78807e-06
1.08363e-05
-1.43889e-05
2.12879e-05
-2.87818e-05
3.22859e-05
-4.76097e-05
4.4498e-05
-7.14666e-05
5.83549e-05
-0.00010071
7.41022e-05
-0.000135179
9.12751e-05
-0.00017407
0.000108948
-0.000215971
0.000125726
-0.000259145
0.000140259
-0.000301885
0.000151417
-0.0003428
0.000158569
-0.000380913
0.000161474
-0.000415624
0.000160259
-0.000446622
0.000155218
-0.000473794
0.000146784
-0.00049716
0.0001354
-0.000516827
0.000121523
-0.000532955
0.00010555
-0.000545731
8.78438e-05
-0.000555345
6.86839e-05
-0.000561971
4.83098e-05
-0.000565743
2.68914e-05
-0.000566739
4.57948e-06
-0.000564964
-1.85072e-05
-0.000560329
-4.22224e-05
-0.000552645
-6.63906e-05
-0.000541611
-9.07378e-05
-0.000526821
-0.000114878
-0.000507787
-0.000138238
-0.000483988
-0.000160052
-0.000454953
-0.000179311
-0.000420382
-0.000194814
-0.000380301
-0.000205215
-0.000335214
-0.000209205
-0.000286239
-0.000205712
-0.000235128
-0.000194215
-0.000184156
-0.000174986
-0.000135798
-0.000149289
-9.23063e-05
-0.000119275
-5.52557e-05
-8.7659e-05
-2.53572e-05
-5.7101e-05
-2.53169e-06
-2.96998e-05
1.37436e-05
-6.69683e-06
2.42005e-05
1.13651e-05
2.96098e-05
2.44902e-05
3.08465e-05
3.29708e-05
2.88145e-05
3.74329e-05
2.45091e-05
3.86026e-05
1.88239e-05
3.7317e-05
1.26683e-05
3.40543e-05
6.79199e-06
2.89224e-05
2.19378e-06
2.1084e-05
9.17227e-06
1.9422e-06
-1.10458e-05
4.47779e-06
-2.09016e-05
5.67108e-06
-2.12983e-05
4.26734e-06
-1.46153e-05
-1.99444e-07
-4.06385e-06
-8.07654e-06
8.71655e-06
-1.96333e-05
2.23959e-05
-3.53771e-05
3.70345e-05
-5.59272e-05
5.284e-05
-8.19252e-05
7.05015e-05
-0.000113683
9.01184e-05
-0.000150922
0.00011135
-0.000192605
0.000132965
-0.00023707
0.000153423
-0.000282384
0.00017105
-0.000326755
0.000184644
-0.000368788
0.000193463
-0.000407537
0.000197334
-0.000442444
0.000196398
-0.000473244
0.000191077
-0.000499888
0.00018188
-0.000522487
0.000169403
-0.000541269
0.000154201
-0.000556542
0.000136814
-0.000568655
0.000117679
-0.000577971
9.7173e-05
-0.000584837
7.55585e-05
-0.000589562
5.30389e-05
-0.000592398
2.97251e-05
-0.000593521
5.69652e-06
-0.000593022
-1.90188e-05
-0.000590882
-4.43799e-05
-0.000586956
-7.03399e-05
-0.000580947
-9.67729e-05
-0.000572393
-0.000123462
-0.000560651
-0.000150014
-0.00054491
-0.000175828
-0.000524246
-0.000200012
-0.000497717
-0.000221378
-0.000464542
-0.000238425
-0.000424323
-0.000249455
-0.000377317
-0.000252746
-0.000324662
-0.000246892
-0.000268484
-0.000231181
-0.000211754
-0.000206029
-0.00015784
-0.000173195
-0.000109787
-0.000135712
-6.96219e-05
-9.72639e-05
-3.79979e-05
-6.1316e-05
-1.44584e-05
-3.02297e-05
2.0288e-06
-5.10989e-06
1.25507e-05
1.39759e-05
1.81472e-05
2.73879e-05
1.97561e-05
3.58295e-05
1.83609e-05
4.00116e-05
1.48876e-05
4.07922e-05
1.03323e-05
3.86241e-05
5.59883e-06
3.36525e-05
1.7807e-06
2.49184e-05
1.09527e-05
1.54895e-06
-1.25927e-05
2.68849e-06
-2.20451e-05
1.58028e-06
-2.0188e-05
-2.84419e-06
-1.01924e-05
-1.09581e-05
4.04868e-06
-2.31122e-05
2.08694e-05
-3.9697e-05
3.89768e-05
-6.13296e-05
5.86647e-05
-8.86138e-05
8.01186e-05
-0.000121869
0.000103753
-0.000160747
0.000128989
-0.000204084
0.00015468
-0.000250043
0.000178915
-0.000296534
0.000199906
-0.000341653
0.000216158
-0.000383933
0.000226914
-0.000422387
0.000231903
-0.000456435
0.000231369
-0.000485831
0.000225778
-0.00051059
0.00021582
-0.000530934
0.000202208
-0.000547242
0.000185695
-0.000559987
0.000166931
-0.000569691
0.000146505
-0.000576874
0.000124851
-0.000582025
0.000102317
-0.000585579
7.91096e-05
-0.000587908
5.53695e-05
-0.000589313
3.11356e-05
-0.000590021
6.41603e-06
-0.000590184
-1.88415e-05
-0.00058986
-4.46839e-05
-0.000589003
-7.11742e-05
-0.000587427
-9.83233e-05
-0.000584769
-0.000126093
-0.000580446
-0.000154308
-0.000573616
-0.000182628
-0.000563165
-0.000210434
-0.000547738
-0.000236778
-0.000525854
-0.000260284
-0.000496122
-0.000279166
-0.000457566
-0.000291283
-0.000410032
-0.00029441
-0.000354579
-0.000286622
-0.000293708
-0.000266889
-0.000231247
-0.00023565
-0.000171707
-0.000195249
-0.000119211
-0.000149762
-7.63532e-05
-0.000104177
-4.37157e-05
-6.28757e-05
-2.02915e-05
-2.85399e-05
-4.47909e-06
-1.84729e-06
5.29066e-06
1.76129e-05
1.02917e-05
3.08171e-05
1.16603e-05
3.86401e-05
1.0405e-05
4.20357e-05
7.57737e-06
4.14521e-05
4.17617e-06
3.70407e-05
1.3037e-06
2.77947e-05
1.22476e-05
8.42577e-07
-1.34352e-05
1.3639e-08
-2.12137e-05
-4.00764e-06
-1.6168e-05
-1.20086e-05
-2.18641e-06
-2.42923e-05
1.63311e-05
-4.12315e-05
3.78151e-05
-6.33138e-05
6.10592e-05
-9.11128e-05
8.64712e-05
-0.000124938
0.000113946
-0.000164455
0.000143278
-0.000208468
0.000173006
-0.000255045
0.000201266
-0.000301965
0.000225841
-0.000347179
0.000245129
-0.000389098
0.000258085
-0.000426638
0.000264465
-0.000459181
0.000264454
-0.000486492
0.000258692
-0.000508673
0.00024797
-0.000526083
0.000233244
-0.00053927
0.000215407
-0.000548878
0.000195316
-0.000555583
0.000173647
-0.000560025
0.000150958
-0.000562782
0.000127616
-0.000564345
0.000103886
-0.00056512
7.98869e-05
-0.000565435
5.56831e-05
-0.00056555
3.1245e-05
-0.000565669
6.52738e-06
-0.000565952
-1.8571e-05
-0.000566507
-4.41433e-05
-0.000567387
-7.03119e-05
-0.000568559
-9.71698e-05
-0.00056987
-0.000124803
-0.000570978
-0.000153221
-0.000571288
-0.00018234
-0.000569866
-0.000211877
-0.000565388
-0.000241278
-0.000556125
-0.000269568
-0.000540052
-0.000295258
-0.000515093
-0.00031626
-0.000479548
-0.000329971
-0.000432675
-0.000333508
-0.000375303
-0.00032427
-0.000310272
-0.000300687
-0.000242369
-0.000263152
-0.000177505
-0.000214625
-0.000121099
-0.000160578
-7.63851e-05
-0.000107586
-4.36917e-05
-6.12256e-05
-2.13202e-05
-2.42145e-05
-6.95389e-06
3.25549e-06
1.40164e-06
2.2465e-05
5.34288e-06
3.47084e-05
6.13183e-06
4.1248e-05
4.93208e-06
4.2662e-05
2.81845e-06
3.91527e-05
8.61584e-07
2.97624e-05
1.31099e-05
-2.5444e-07
-1.31869e-05
-3.64214e-06
-1.78188e-05
-1.11247e-05
-8.69647e-06
-2.31445e-05
9.83953e-06
-3.99686e-05
3.31444e-05
-6.19742e-05
5.98243e-05
-8.96433e-05
8.87181e-05
-0.000123273
0.000120101
-0.000162603
0.000153266
-0.000206484
0.000187158
-0.000252988
0.0002195
-0.000299778
0.000248053
-0.000344658
0.00027071
-0.000385865
0.000286331
-0.000422202
0.000294412
-0.000452982
0.000295238
-0.000477999
0.000289462
-0.000497449
0.000278134
-0.000511851
0.000262361
-0.000521926
0.00024331
-0.000528492
0.000221963
-0.000532359
0.000199177
-0.000534267
0.000175547
-0.000534837
0.000151524
-0.000534572
0.000127346
-0.000533851
0.000103165
-0.000532963
7.9e-05
-0.00053212
5.48444e-05
-0.000531486
3.06179e-05
-0.000531196
6.24785e-06
-0.000531372
-1.83823e-05
-0.000532129
-4.3371e-05
-0.000533574
-6.88497e-05
-0.000535793
-9.49315e-05
-0.000538824
-0.000121752
-0.000542605
-0.000149419
-0.000546902
-0.00017802
-0.000551209
-0.000207548
-0.000554623
-0.000237843
-0.000555729
-0.000268442
-0.000552535
-0.000298434
-0.000542524
-0.000326256
-0.000522911
-0.000349571
-0.000491164
-0.000365247
-0.000445779
-0.000369651
-0.00038719
-0.000359274
-0.000318506
-0.000331835
-0.00024559
-0.000287543
-0.000175977
-0.000230191
-0.00011658
-0.000166987
-7.11561e-05
-0.000106653
-3.95177e-05
-5.58595e-05
-1.90227e-05
-1.72431e-05
-6.68794e-06
1.01228e-05
-6.80046e-08
2.80862e-05
2.6396e-06
3.85326e-05
2.87041e-06
4.24308e-05
1.82692e-06
4.01877e-05
5.74214e-07
3.10164e-05
1.36782e-05
-1.74344e-06
-1.14501e-05
-8.18019e-06
-1.13616e-05
-1.94948e-05
2.60411e-06
-3.57613e-05
2.61243e-05
-5.72372e-05
5.46114e-05
-8.4235e-05
8.68375e-05
-0.000117065
0.000121543
-0.000155513
0.000158563
-0.00019861
0.000196362
-0.00024447
0.000233029
-0.000290743
0.000265774
-0.000335053
0.000292372
-0.000375477
0.000311138
-0.00041065
0.000321513
-0.000439825
0.000323591
-0.000462798
0.00031822
-0.000479873
0.000306542
-0.000491713
0.000289984
-0.000499223
0.000269878
-0.000503374
0.000247471
-0.000505102
0.000223698
-0.000505211
0.000199293
-0.000504346
0.000174686
-0.00050298
0.000150162
-0.000501443
0.000125811
-0.000499949
0.000101671
-0.000498631
7.76785e-05
-0.000497572
5.37802e-05
-0.000496834
2.98719e-05
-0.000496476
5.87992e-06
-0.00049657
-1.83009e-05
-0.000497208
-4.27475e-05
-0.000498507
-6.75669e-05
-0.000500605
-9.2851e-05
-0.000503649
-0.000118727
-0.000507766
-0.000145319
-0.00051302
-0.000172785
-0.000519324
-0.000201261
-0.000526328
-0.000230855
-0.000533255
-0.00026153
-0.000538724
-0.000292976
-0.000540605
-0.000324385
-0.000535994
-0.00035419
-0.000521437
-0.000379811
-0.000493517
-0.000397575
-0.000449848
-0.000402949
-0.000390334
-0.000391352
-0.00031832
-0.000359559
-0.000240884
-0.000307625
-0.00016745
-0.000240419
-0.00010647
-0.000167627
-6.1906e-05
-0.00010042
-3.25512e-05
-4.65924e-05
-1.47161e-05
-7.7098e-06
-4.77588e-06
1.81519e-05
-2.87409e-08
3.37868e-05
1.49907e-06
4.09094e-05
1.27516e-06
4.04113e-05
4.60574e-07
3.18379e-05
1.41399e-05
-3.61425e-06
-7.85297e-06
-1.3471e-05
-1.48005e-06
-2.88114e-05
1.79149e-05
-4.93448e-05
4.66759e-05
-7.53116e-05
8.05554e-05
-0.000106844
0.000118381
-0.000143909
0.000158591
-0.000185648
0.000200308
-0.000230425
0.000241123
-0.000275865
0.000278471
-0.000319528
0.000309425
-0.000359257
0.000332101
-0.000393545
0.000345415
-0.000421509
0.000349475
-0.000442953
0.000345026
-0.000458231
0.000333495
-0.000468158
0.000316461
-0.000473782
0.000295604
-0.000476232
0.00027232
-0.000476538
0.000247773
-0.000475567
0.00022272
-0.000473961
0.000197684
-0.000472165
0.000172886
-0.000470444
0.00014844
-0.000468941
0.000124306
-0.000467706
0.000100438
-0.00046675
7.67242e-05
-0.000466057
5.30929e-05
-0.00046562
2.94419e-05
-0.000465445
5.71465e-06
-0.000465567
-1.81685e-05
-0.00046605
-4.22524e-05
-0.000466995
-6.66082e-05
-0.000468541
-9.12902e-05
-0.000470864
-0.000116389
-0.000474166
-0.000142003
-0.000478657
-0.000168279
-0.000484513
-0.000195392
-0.000491794
-0.000223561
-0.000500321
-0.00025299
-0.000509485
-0.000283801
-0.000518011
-0.000315849
-0.000523727
-0.000348465
-0.000523439
-0.000380092
-0.000513097
-0.000407912
-0.000488411
-0.000427631
-0.000446065
-0.000433697
-0.000385395
-0.000420231
-0.000310052
-0.00038297
-0.000228591
-0.000321883
-0.000152593
-0.000243627
-9.19288e-05
-0.000161086
-5.00332e-05
-8.84901e-05
-2.41579e-05
-3.35893e-05
-9.52216e-06
3.51381e-06
-2.17913e-06
2.6439e-05
7.21967e-07
3.80075e-05
1.14534e-06
3.99823e-05
5.21537e-07
3.24623e-05
1.46574e-05
-5.74292e-06
-2.1258e-06
-1.91631e-05
1.19828e-05
-3.84672e-05
3.71876e-05
-6.30196e-05
7.12626e-05
-9.3002e-05
0.000110519
-0.000128239
0.000153644
-0.000168238
0.000198578
-0.000211492
0.000243581
-0.000255882
0.000285508
-0.000298837
0.00032144
-0.000338093
0.00034868
-0.000371879
0.000365899
-0.000399209
0.000372745
-0.000419776
0.000370053
-0.00043399
0.000359242
-0.000442731
0.000342246
-0.000447203
0.000320936
-0.000448645
0.000297054
-0.000448199
0.000271877
-0.000446767
0.000246347
-0.000445004
0.00022096
-0.000443311
0.000195995
-0.000441904
0.000171479
-0.00044085
0.000147388
-0.000440138
0.000123593
-0.000439709
0.000100007
-0.000439495
7.65054e-05
-0.00043943
5.30237e-05
-0.000439475
2.94789e-05
-0.000439609
5.83993e-06
-0.000439845
-1.79431e-05
-0.000440225
-4.18838e-05
-0.000440828
-6.60182e-05
-0.000441766
-9.03641e-05
-0.000443199
-0.00011497
-0.000445325
-0.000139891
-0.000448388
-0.000165229
-0.000452664
-0.00019113
-0.000458426
-0.000217811
-0.000465871
-0.000245556
-0.000474991
-0.000274691
-0.000485349
-0.000305499
-0.000495801
-0.000338019
-0.000504168
-0.000371729
-0.00050702
-0.000405062
-0.000499753
-0.000434899
-0.000477247
-0.000456203
-0.000435287
-0.00046219
-0.000372734
-0.000445524
-0.000293805
-0.000400814
-0.000208962
-0.000328469
-0.000132225
-0.00023782
-7.43111e-05
-0.0001464
-3.70219e-05
-7.08753e-05
-1.55738e-05
-1.79317e-05
-4.53907e-06
1.54059e-05
1.49661e-07
3.33225e-05
1.24789e-06
3.8884e-05
6.89434e-07
3.30259e-05
1.53475e-05
-8.01581e-06
5.86127e-06
-2.495e-05
2.89618e-05
-4.79509e-05
6.01384e-05
-7.60512e-05
9.9395e-05
-0.000109309
0.000143741
-0.000147149
0.000191503
-0.000188592
0.000239995
-0.000231607
0.000286606
-0.000273833
0.000327714
-0.000312759
0.000360372
-0.000346488
0.000382393
-0.000373746
0.000393159
-0.000394153
0.00039314
-0.00040801
0.00038391
-0.000416282
0.000367504
-0.000420229
0.000346191
-0.000421232
0.000321931
-0.000420502
0.000296323
-0.000419017
0.000270385
-0.000417424
0.000244753
-0.000416117
0.000219647
-0.000415251
0.000195129
-0.000414852
0.000171078
-0.000414846
0.000147383
-0.000415134
0.000123881
-0.000415601
0.000100477
-0.000416152
7.70601e-05
-0.000416711
5.35885e-05
-0.000417233
3.0006e-05
-0.000417692
6.30719e-06
-0.000418096
-1.75306e-05
-0.000418473
-4.14967e-05
-0.000418881
-6.55998e-05
-0.000419402
-8.98313e-05
-0.000420156
-0.000114205
-0.000421297
-0.000138738
-0.000423033
-0.000163482
-0.000425625
-0.000188528
-0.000429393
-0.000214033
-0.00043469
-0.00024025
-0.00044184
-0.000267534
-0.00045099
-0.000296342
-0.000461881
-0.000327124
-0.000473479
-0.000360127
-0.000483586
-0.000394952
-0.000488504
-0.000429977
-0.000483075
-0.00046163
-0.000461365
-0.000483898
-0.000418381
-0.000488509
-0.000352776
-0.000466421
-0.000269859
-0.000411391
-0.000182669
-0.000325013
-0.000107763
-0.000221308
-5.54282e-05
-0.000123209
-2.43739e-05
-4.89889e-05
-8.0203e-06
-9.50091e-07
-7.26395e-07
2.60271e-05
1.34079e-06
3.6813e-05
8.89589e-07
3.34778e-05
1.62339e-05
-1.02157e-05
1.60525e-05
-3.03571e-05
4.91672e-05
-5.65551e-05
8.62874e-05
-8.7518e-05
0.000130408
-0.000123114
0.000179307
-0.000162331
0.000230756
-0.000203762
0.000281408
-0.000245034
0.000327902
-0.000283779
0.000366449
-0.000317746
0.000394358
-0.000345525
0.000410167
-0.000366415
0.000414064
-0.000380662
0.000407385
-0.000389117
0.000392378
-0.000393143
0.00037153
-0.000394166
0.000347224
-0.000393534
0.000321299
-0.000392257
0.000295054
-0.000391044
0.000269173
-0.000390258
0.000243972
-0.000390046
0.000219435
-0.000390374
0.000195461
-0.000391146
0.000171848
-0.000392209
0.000148448
-0.000393433
0.000125102
-0.00039469
0.000101732
-0.000395893
7.82578e-05
-0.00039697
5.46616e-05
-0.000397887
3.09168e-05
-0.000398626
7.03981e-06
-0.000399196
-1.69689e-05
-0.000399619
-4.10817e-05
-0.000399941
-6.52874e-05
-0.00040022
-8.95615e-05
-0.000400541
-0.000113894
-0.00040101
-0.000138279
-0.000401774
-0.000162727
-0.000403029
-0.000187282
-0.000405043
-0.000212027
-0.00040816
-0.000237141
-0.000412802
-0.000262898
-0.000419403
-0.000289747
-0.000428272
-0.00031826
-0.000439301
-0.000349102
-0.000451554
-0.000382702
-0.000462739
-0.000418793
-0.00046881
-0.00045556
-0.000463951
-0.000488754
-0.000441429
-0.00051103
-0.00039565
-0.000512197
-0.00032558
-0.000481464
-0.000238487
-0.000412106
-0.000150853
-0.000308943
-8.12889e-05
-0.000192767
-3.72735e-05
-9.30018e-05
-1.35494e-05
-2.46721e-05
-2.45621e-06
1.49348e-05
1.15075e-06
3.32067e-05
1.03126e-06
3.36005e-05
1.72657e-05
-1.21993e-05
2.82134e-05
-3.50804e-05
7.211e-05
-6.38363e-05
0.000114976
-9.68503e-05
0.000163466
-0.000133758
0.000216169
-0.00017314
0.000270164
-0.000213281
0.000321516
-0.000251665
0.000366302
-0.000286113
0.000400873
-0.000314765
0.000423018
-0.000336769
0.000432152
-0.000352013
0.000429313
-0.000361308
0.000416666
-0.000365908
0.000396979
-0.000367366
0.000372977
-0.000367069
0.000346928
-0.000366168
0.000320388
-0.000365386
0.000294271
-0.000365142
0.000268922
-0.000365546
0.000244376
-0.000366568
0.000220452
-0.000368056
0.00019695
-0.000369855
0.000173644
-0.000371795
0.000150389
-0.000373746
0.000127053
-0.000375597
0.000103586
-0.000377277
7.99401e-05
-0.000378733
5.61226e-05
-0.000379944
3.21328e-05
-0.000380901
8.00375e-06
-0.000381619
-1.62447e-05
-0.000382119
-4.05742e-05
-0.00038244
-6.49587e-05
-0.000382626
-8.93664e-05
-0.00038274
-0.000113773
-0.00038285
-0.000138161
-0.000383053
-0.000162516
-0.000383472
-0.000186855
-0.000384292
-0.000211201
-0.000385766
-0.000235661
-0.000388261
-0.000260397
-0.000392247
-0.000285757
-0.000398267
-0.000312237
-0.000406766
-0.0003406
-0.000417786
-0.000371682
-0.000430419
-0.000406158
-0.000442198
-0.000443782
-0.000448558
-0.000482392
-0.000442905
-0.000516683
-0.000417686
-0.000537413
-0.000367051
-0.0005321
-0.000291107
-0.000488054
-0.000200376
-0.00039968
-0.00011562
-0.000277525
-5.55075e-05
-0.000153111
-2.17962e-05
-5.83825e-05
-5.47755e-06
-1.38828e-06
4.83772e-07
2.7245e-05
1.05674e-06
3.3026e-05
1.8321e-05
-1.37579e-05
4.19406e-05
-3.87254e-05
9.7157e-05
-6.92714e-05
0.00014546
-0.000103451
0.000197707
-0.000140653
0.000253333
-0.000179126
0.000308679
-0.000216989
0.000359357
-0.000251765
0.000401107
-0.000281592
0.000430687
-0.000305082
0.00044653
-0.000321953
0.000449016
-0.00033263
0.000440008
-0.000338357
0.000422389
-0.000340599
0.000399236
-0.000340907
0.000373284
-0.000340474
0.000346506
-0.000340171
0.000320085
-0.000340422
0.000294531
-0.000341399
0.000269898
-0.000343028
0.000246012
-0.000345175
0.000222598
-0.000347638
0.000199417
-0.000350253
0.000176257
-0.000352858
0.000152996
-0.000355348
0.000129541
-0.000357631
0.000105869
-0.000359658
8.19629e-05
-0.000361388
5.78505e-05
-0.000362815
3.35536e-05
-0.000363933
9.11751e-06
-0.000364763
-1.54209e-05
-0.000365327
-4.0016e-05
-0.000365664
-6.46288e-05
-0.000365812
-8.92251e-05
-0.000365822
-0.00011377
-0.000365744
-0.000138246
-0.000365642
-0.000162625
-0.000365588
-0.000186914
-0.000365694
-0.000211101
-0.000366116
-0.000235244
-0.000367109
-0.000259409
-0.000369044
-0.000283825
-0.000372454
-0.00030883
-0.000377969
-0.000335087
-0.000386179
-0.000363475
-0.000397209
-0.000395128
-0.000410122
-0.000430871
-0.000422087
-0.000470426
-0.000427839
-0.000510932
-0.000419806
-0.00054544
-0.000389714
-0.000562192
-0.000332018
-0.000545745
-0.000249295
-0.000482412
-0.000157026
-0.000369792
-8.02107e-05
-0.00022993
-3.3254e-05
-0.000105323
-1.00856e-05
-2.45653e-05
-7.81696e-07
1.79469e-05
9.36797e-07
3.13055e-05
1.92599e-05
-1.48117e-05
5.67081e-05
-4.11497e-05
0.000123567
-7.26929e-05
0.000176925
-0.000107173
0.000232239
-0.000143749
0.000289855
-0.000180445
0.000345406
-0.000215354
0.000394228
-0.000246174
0.000431945
-0.000271447
0.000455933
-0.000290277
0.000465371
-0.00030291
0.000461628
-0.000310198
0.000447302
-0.00031365
0.000425825
-0.000314761
0.000400349
-0.00031493
0.000373439
-0.000315073
0.00034665
-0.000315775
0.000320776
-0.000317201
0.000295957
-0.000319346
0.000272034
-0.000322028
0.000248695
-0.000325072
0.000225637
-0.00032827
0.000202616
-0.000331478
0.000179462
-0.000334557
0.000156077
-0.000337429
0.000132412
-0.00034002
0.000108463
-0.000342298
8.42413e-05
-0.000344231
5.9788e-05
-0.00034582
3.51452e-05
-0.000347064
1.03667e-05
-0.000347986
-1.44941e-05
-0.00034861
-3.93868e-05
-0.000348974
-6.42589e-05
-0.000349117
-8.90762e-05
-0.000349087
-0.000113794
-0.000348926
-0.000138401
-0.000348684
-0.000162861
-0.000348406
-0.000187187
-0.000348154
-0.000211347
-0.000348009
-0.000235385
-0.000348116
-0.000259297
-0.000348713
-0.000283226
-0.000350201
-0.00030734
-0.000353159
-0.000332127
-0.000358341
-0.000358293
-0.000366433
-0.000387034
-0.000377626
-0.00041968
-0.000390765
-0.000457284
-0.000402469
-0.000499231
-0.000406458
-0.000541447
-0.000394084
-0.000574567
-0.000356576
-0.000583246
-0.000289792
-0.000549208
-0.000200655
-0.000458925
-0.000111541
-0.000319064
-4.87059e-05
-0.000168135
-1.63648e-05
-5.6916e-05
-2.76398e-06
4.34949e-06
6.84813e-07
2.78512e-05
1.99458e-05
-1.52408e-05
7.19159e-05
-4.21599e-05
0.000150572
-7.3897e-05
0.000208595
-0.00010787
0.000266279
-0.000143042
0.000324987
-0.000177332
0.000379741
-0.000208917
0.000425788
-0.000235768
0.00045883
-0.000256859
0.000477009
-0.000271758
0.000480296
-0.000281148
0.00047101
-0.000286169
0.000452343
-0.000288428
0.00042808
-0.000289305
0.000401242
-0.000289963
0.000374095
-0.000291032
0.000347732
-0.000292842
0.000322585
-0.000295371
0.000298496
-0.000298507
0.00027517
-0.000302024
0.000252219
-0.000305747
0.000229359
-0.000309487
0.000206361
-0.000313129
0.000183102
-0.00031656
0.000159511
-0.000319722
0.000135572
-0.000322553
0.000111295
-0.000325032
8.67168e-05
-0.000327131
6.18862e-05
-0.000328854
3.68641e-05
-0.000330201
1.17106e-05
-0.000331196
-1.35039e-05
-0.000331861
-3.87251e-05
-0.00033224
-6.38856e-05
-0.000332369
-8.89521e-05
-0.0003323
-0.000113868
-0.000332075
-0.000138631
-0.000331744
-0.000163196
-0.000331342
-0.000187594
-0.000330911
-0.000211781
-0.000330488
-0.000235813
-0.000330141
-0.000259646
-0.00032999
-0.000283381
-0.00033028
-0.000307051
-0.000331428
-0.00033098
-0.000334107
-0.000355615
-0.000339165
-0.000381976
-0.000347416
-0.000411432
-0.000358964
-0.000445734
-0.000372284
-0.000485916
-0.000383049
-0.000530677
-0.000383719
-0.0005739
-0.000364498
-0.000602457
-0.000316847
-0.000596862
-0.000239768
-0.000536005
-0.00014723
-0.000411612
-6.90123e-05
-0.000246352
-2.44768e-05
-0.000101437
-5.5798e-06
-1.45524e-05
2.99767e-07
2.19692e-05
2.02485e-05
-1.50679e-05
8.69382e-05
-4.18174e-05
0.000177395
-7.30178e-05
0.000239714
-0.000105795
0.000299109
-0.000138966
0.000358103
-0.000170448
0.000411254
-0.000198587
0.000453887
-0.000221682
0.000481943
-0.000239119
0.000494416
-0.000250873
0.000492061
-0.000257946
0.000478059
-0.000261623
0.000456027
-0.000263469
0.000429907
-0.000264664
0.00040244
-0.000266108
0.000375523
-0.000268172
0.000349798
-0.000270996
0.000325396
-0.000274437
0.000301938
-0.00027834
0.000279062
-0.000282472
0.000256352
-0.000286682
0.000233562
-0.000290809
0.000210489
-0.000294766
0.000187055
-0.00029846
0.000163206
-0.000301847
0.000138956
-0.000304874
0.000114324
-0.000307523
8.93654e-05
-0.000309769
6.41346e-05
-0.000311614
3.87109e-05
-0.000313059
1.31588e-05
-0.000314126
-1.24334e-05
-0.000314839