/*--------------------------------*- C++ -*----------------------------------*\
| =========                 |                                                 |
| \\      /  F ield         | OpenFOAM: The Open Source CFD Toolbox           |
|  \\    /   O peration     | Version:  2406                                  |
|   \\  /    A nd           | Website:  www.openfoam.com                      |
|    \\/     M anipulation  |                                                 |
\*---------------------------------------------------------------------------*/
FoamFile
{
    version     2.0;
    format      ascii;
    arch        "LSB;label=32;scalar=64";
    class       volVectorField;
    location    "3.1";
    object      Uold;
}
// * * * * * * * * * * * * * * * * * * * * * * * * * * * * * * * * * * * * * //

dimensions      [0 1 -1 0 0 0 0];

internalField   nonuniform List<vector> 
14400
(
(2.11373e-06 -2.10301e-06 0)
(2.40042e-06 1.18488e-07 0)
(-5.33385e-06 2.98603e-06 0)
(-2.10063e-05 5.81808e-06 0)
(-4.40673e-05 7.80071e-06 0)
(-7.22009e-05 9.32662e-06 0)
(-0.000104637 1.02931e-05 0)
(-0.000139636 1.09762e-05 0)
(-0.000176732 1.13632e-05 0)
(-0.000214883 1.16055e-05 0)
(-0.000253862 1.1706e-05 0)
(-0.000293115 1.17448e-05 0)
(-0.000332566 1.17249e-05 0)
(-0.000371948 1.16862e-05 0)
(-0.00041126 1.1628e-05 0)
(-0.000450387 1.15681e-05 0)
(-0.000489348 1.15035e-05 0)
(-0.000528094 1.14411e-05 0)
(-0.000566643 1.13775e-05 0)
(-0.000604971 1.13149e-05 0)
(-0.000643086 1.12506e-05 0)
(-0.00068097 1.11852e-05 0)
(-0.000718621 1.11167e-05 0)
(-0.000756022 1.10452e-05 0)
(-0.000793165 1.09696e-05 0)
(-0.000830032 1.08897e-05 0)
(-0.000866608 1.08048e-05 0)
(-0.000902875 1.07146e-05 0)
(-0.000938814 1.06188e-05 0)
(-0.000974405 1.05169e-05 0)
(-0.00100963 1.04087e-05 0)
(-0.00104446 1.02939e-05 0)
(-0.00107888 1.01721e-05 0)
(-0.00111286 1.0043e-05 0)
(-0.00114638 9.90636e-06 0)
(-0.00117941 9.76185e-06 0)
(-0.00121193 9.60918e-06 0)
(-0.0012439 9.44805e-06 0)
(-0.0012753 9.27817e-06 0)
(-0.0013061 9.09925e-06 0)
(-0.00133627 8.911e-06 0)
(-0.00136577 8.71316e-06 0)
(-0.00139458 8.50544e-06 0)
(-0.00142266 8.2876e-06 0)
(-0.00144998 8.05939e-06 0)
(-0.0014765 7.82056e-06 0)
(-0.00150219 7.5709e-06 0)
(-0.00152701 7.3102e-06 0)
(-0.00155093 7.03827e-06 0)
(-0.00157391 6.75495e-06 0)
(-0.0015959 6.46009e-06 0)
(-0.00161688 6.15357e-06 0)
(-0.0016368 5.8353e-06 0)
(-0.00165563 5.50521e-06 0)
(-0.00167333 5.16326e-06 0)
(-0.00168985 4.80947e-06 0)
(-0.00170516 4.44385e-06 0)
(-0.00171923 4.06649e-06 0)
(-0.00173201 3.67749e-06 0)
(-0.00174346 3.27701e-06 0)
(-0.00175355 2.86523e-06 0)
(-0.00176225 2.44241e-06 0)
(-0.00176951 2.00882e-06 0)
(-0.0017753 1.56479e-06 0)
(-0.0017796 1.11072e-06 0)
(-0.00178236 6.47023e-07 0)
(-0.00178356 1.74181e-07 0)
(-0.00178317 -3.07276e-07 0)
(-0.00178115 -7.96773e-07 0)
(-0.0017775 -1.29368e-06 0)
(-0.00177218 -1.79733e-06 0)
(-0.00176517 -2.307e-06 0)
(-0.00175646 -2.82192e-06 0)
(-0.00174602 -3.34129e-06 0)
(-0.00173386 -3.86425e-06 0)
(-0.00171995 -4.38993e-06 0)
(-0.00170428 -4.91739e-06 0)
(-0.00168687 -5.44569e-06 0)
(-0.00166769 -5.97385e-06 0)
(-0.00164677 -6.50086e-06 0)
(-0.00162409 -7.02572e-06 0)
(-0.00159967 -7.54737e-06 0)
(-0.00157353 -8.06478e-06 0)
(-0.00154568 -8.5769e-06 0)
(-0.00151613 -9.0827e-06 0)
(-0.0014849 -9.58113e-06 0)
(-0.00145204 -1.00712e-05 0)
(-0.00141756 -1.05518e-05 0)
(-0.00138149 -1.10221e-05 0)
(-0.00134387 -1.14811e-05 0)
(-0.00130474 -1.19279e-05 0)
(-0.00126414 -1.23616e-05 0)
(-0.00122212 -1.27815e-05 0)
(-0.00117871 -1.31867e-05 0)
(-0.00113398 -1.35767e-05 0)
(-0.00108796 -1.39508e-05 0)
(-0.00104072 -1.43087e-05 0)
(-0.000992305 -1.46497e-05 0)
(-0.000942771 -1.49738e-05 0)
(-0.000892183 -1.52801e-05 0)
(-0.00084059 -1.55692e-05 0)
(-0.000788069 -1.58388e-05 0)
(-0.000734669 -1.60899e-05 0)
(-0.00068049 -1.63172e-05 0)
(-0.000625587 -1.65212e-05 0)
(-0.00057011 -1.66895e-05 0)
(-0.00051414 -1.68206e-05 0)
(-0.000457935 -1.68876e-05 0)
(-0.000401637 -1.68856e-05 0)
(-0.000345721 -1.67606e-05 0)
(-0.000290448 -1.65044e-05 0)
(-0.000236672 -1.60155e-05 0)
(-0.000184857 -1.52885e-05 0)
(-0.000136462 -1.41373e-05 0)
(-9.22423e-05 -1.25803e-05 0)
(-5.44794e-05 -1.02825e-05 0)
(-2.42595e-05 -7.39155e-06 0)
(-4.40501e-06 -3.464e-06 0)
(4.47975e-06 3.61796e-07 0)
(3.0073e-06 3.02558e-06 0)
(-9.54922e-08 -2.40965e-06 0)
(-1.08376e-05 1.08303e-05 0)
(-3.95294e-05 2.61868e-05 0)
(-8.45961e-05 4.13861e-05 0)
(-0.000145922 5.33424e-05 0)
(-0.000219287 6.29248e-05 0)
(-0.000303108 6.9758e-05 0)
(-0.00039389 7.47342e-05 0)
(-0.000490258 7.79869e-05 0)
(-0.000589949 8.01181e-05 0)
(-0.000692105 8.1314e-05 0)
(-0.000795451 8.19373e-05 0)
(-0.000899559 8.21203e-05 0)
(-0.00100379 8.2058e-05 0)
(-0.00110797 8.18185e-05 0)
(-0.00121182 8.14926e-05 0)
(-0.00131528 8.11044e-05 0)
(-0.00141823 8.06888e-05 0)
(-0.00152065 8.02483e-05 0)
(-0.00162249 7.97927e-05 0)
(-0.00172373 7.93173e-05 0)
(-0.00182432 7.88227e-05 0)
(-0.00192425 7.83037e-05 0)
(-0.00202346 7.77582e-05 0)
(-0.00212193 7.7182e-05 0)
(-0.00221961 7.65728e-05 0)
(-0.00231646 7.59274e-05 0)
(-0.00241242 7.52437e-05 0)
(-0.00250745 7.45191e-05 0)
(-0.00260149 7.37517e-05 0)
(-0.00269449 7.29392e-05 0)
(-0.00278638 7.20797e-05 0)
(-0.00287711 7.11712e-05 0)
(-0.00296661 7.02119e-05 0)
(-0.00305482 6.91996e-05 0)
(-0.00314166 6.81327e-05 0)
(-0.00322707 6.70092e-05 0)
(-0.00331098 6.58272e-05 0)
(-0.00339331 6.45849e-05 0)
(-0.00347398 6.32805e-05 0)
(-0.00355292 6.19123e-05 0)
(-0.00363005 6.04785e-05 0)
(-0.00370527 5.89775e-05 0)
(-0.00377852 5.74076e-05 0)
(-0.00384969 5.57674e-05 0)
(-0.00391871 5.40554e-05 0)
(-0.00398548 5.22702e-05 0)
(-0.00404991 5.04107e-05 0)
(-0.00411191 4.84756e-05 0)
(-0.00417138 4.64641e-05 0)
(-0.00422824 4.43753e-05 0)
(-0.00428238 4.22085e-05 0)
(-0.00433371 3.99633e-05 0)
(-0.00438213 3.76393e-05 0)
(-0.00442754 3.52364e-05 0)
(-0.00446986 3.27548e-05 0)
(-0.00450897 3.01948e-05 0)
(-0.00454479 2.75569e-05 0)
(-0.00457723 2.48421e-05 0)
(-0.00460618 2.20514e-05 0)
(-0.00463156 1.91863e-05 0)
(-0.00465328 1.62483e-05 0)
(-0.00467125 1.32395e-05 0)
(-0.00468538 1.01622e-05 0)
(-0.0046956 7.01886e-06 0)
(-0.00470182 3.81246e-06 0)
(-0.00470397 5.46201e-07 0)
(-0.00470198 -2.7764e-06 0)
(-0.00469578 -6.15148e-06 0)
(-0.00468532 -9.5749e-06 0)
(-0.00467054 -1.30422e-05 0)
(-0.00465138 -1.65486e-05 0)
(-0.00462781 -2.0089e-05 0)
(-0.00459978 -2.36582e-05 0)
(-0.00456727 -2.72506e-05 0)
(-0.00453025 -3.08602e-05 0)
(-0.0044887 -3.44812e-05 0)
(-0.00444262 -3.81071e-05 0)
(-0.004392 -4.17317e-05 0)
(-0.00433685 -4.53483e-05 0)
(-0.00427719 -4.89502e-05 0)
(-0.00421303 -5.25307e-05 0)
(-0.00414441 -5.60829e-05 0)
(-0.00407137 -5.95999e-05 0)
(-0.00399395 -6.30749e-05 0)
(-0.00391221 -6.6501e-05 0)
(-0.00382622 -6.98715e-05 0)
(-0.00373605 -7.31797e-05 0)
(-0.00364177 -7.64193e-05 0)
(-0.00354348 -7.95839e-05 0)
(-0.00344128 -8.26675e-05 0)
(-0.00333526 -8.56643e-05 0)
(-0.00322553 -8.85689e-05 0)
(-0.00311222 -9.13762e-05 0)
(-0.00299544 -9.40817e-05 0)
(-0.00287533 -9.66806e-05 0)
(-0.00275201 -9.91697e-05 0)
(-0.00262563 -0.000101544 0)
(-0.00249633 -0.000103802 0)
(-0.00236427 -0.000105936 0)
(-0.00222959 -0.000107943 0)
(-0.00209248 -0.000109811 0)
(-0.0019531 -0.000111531 0)
(-0.0018117 -0.000113073 0)
(-0.00166848 -0.000114412 0)
(-0.00152382 -0.000115479 0)
(-0.00137802 -0.000116217 0)
(-0.00123172 -0.000116484 0)
(-0.00108546 -0.000116163 0)
(-0.000940358 -0.000114989 0)
(-0.00079733 -0.000112774 0)
(-0.000658339 -0.000109057 0)
(-0.000524852 -0.000103605 0)
(-0.000400053 -9.56853e-05 0)
(-0.000286017 -8.51634e-05 0)
(-0.000187353 -7.09976e-05 0)
(-0.00010624 -5.3786e-05 0)
(-4.78389e-05 -3.26874e-05 0)
(-1.20148e-05 -1.20562e-05 0)
(3.31317e-07 4.46723e-06 0)
(-3.00687e-06 5.37258e-06 0)
(-2.64793e-05 3.96318e-05 0)
(-7.71963e-05 7.66639e-05 0)
(-0.000149874 0.000112451 0)
(-0.000244983 0.000141856 0)
(-0.000356621 0.000165691 0)
(-0.000483018 0.000183419 0)
(-0.000619502 0.000196489 0)
(-0.000764213 0.000205416 0)
(-0.000914057 0.000211371 0)
(-0.00106774 0.000214947 0)
(-0.00122345 0.000216919 0)
(-0.00138048 0.000217708 0)
(-0.00153789 0.000217754 0)
(-0.00169535 0.000217289 0)
(-0.00185241 0.000216524 0)
(-0.00200894 0.000215559 0)
(-0.00216473 0.000214476 0)
(-0.00231973 0.000213304 0)
(-0.00247382 0.000212067 0)
(-0.00262698 0.000210764 0)
(-0.00277912 0.000209397 0)
(-0.0029302 0.000207957 0)
(-0.00308015 0.000206439 0)
(-0.00322891 0.000204836 0)
(-0.0033764 0.000203141 0)
(-0.00352256 0.000201347 0)
(-0.00366731 0.000199449 0)
(-0.00381057 0.000197441 0)
(-0.00395226 0.000195318 0)
(-0.00409229 0.000193074 0)
(-0.00423057 0.000190705 0)
(-0.00436701 0.000188206 0)
(-0.00450151 0.000185572 0)
(-0.00463398 0.000182798 0)
(-0.00476431 0.00017988 0)
(-0.0048924 0.000176813 0)
(-0.00501813 0.000173593 0)
(-0.00514141 0.000170214 0)
(-0.0052621 0.000166673 0)
(-0.00538011 0.000162966 0)
(-0.0054953 0.000159087 0)
(-0.00560755 0.000155034 0)
(-0.00571675 0.000150801 0)
(-0.00582276 0.000146386 0)
(-0.00592545 0.000141785 0)
(-0.00602469 0.000136995 0)
(-0.00612035 0.000132013 0)
(-0.0062123 0.000126836 0)
(-0.00630039 0.000121462 0)
(-0.0063845 0.000115889 0)
(-0.00646447 0.000110116 0)
(-0.00654017 0.000104141 0)
(-0.00661147 9.79642e-05 0)
(-0.00667821 9.15855e-05 0)
(-0.00674027 8.50052e-05 0)
(-0.0067975 7.82245e-05 0)
(-0.00684977 7.12452e-05 0)
(-0.00689694 6.40695e-05 0)
(-0.00693887 5.67005e-05 0)
(-0.00697544 4.9142e-05 0)
(-0.00700652 4.13983e-05 0)
(-0.00703197 3.34748e-05 0)
(-0.00705169 2.53773e-05 0)
(-0.00706556 1.71126e-05 0)
(-0.00707346 8.68817e-06 0)
(-0.00707528 1.12433e-07 0)
(-0.00707094 -8.60554e-06 0)
(-0.00706033 -1.74558e-05 0)
(-0.00704338 -2.64278e-05 0)
(-0.00702 -3.551e-05 0)
(-0.00699012 -4.46901e-05 0)
(-0.00695368 -5.39553e-05 0)
(-0.00691064 -6.3292e-05 0)
(-0.00686094 -7.2686e-05 0)
(-0.00680457 -8.21223e-05 0)
(-0.00674148 -9.15855e-05 0)
(-0.00667169 -0.00010106 0)
(-0.00659517 -0.000110529 0)
(-0.00651196 -0.000119976 0)
(-0.00642206 -0.000129383 0)
(-0.00632552 -0.000138735 0)
(-0.00622238 -0.000148013 0)
(-0.0061127 -0.000157199 0)
(-0.00599656 -0.000166277 0)
(-0.00587403 -0.000175228 0)
(-0.0057452 -0.000184036 0)
(-0.0056102 -0.000192684 0)
(-0.00546913 -0.000201155 0)
(-0.00532212 -0.000209433 0)
(-0.00516932 -0.000217503 0)
(-0.00501087 -0.000225349 0)
(-0.00484694 -0.000232958 0)
(-0.00467769 -0.000240317 0)
(-0.00450331 -0.000247412 0)
(-0.00432399 -0.000254233 0)
(-0.00413991 -0.000260769 0)
(-0.00395129 -0.000267008 0)
(-0.00375834 -0.00027294 0)
(-0.00356128 -0.000278549 0)
(-0.00336036 -0.000283818 0)
(-0.00315583 -0.000288718 0)
(-0.00294796 -0.000293209 0)
(-0.00273711 -0.000297221 0)
(-0.00252362 -0.000300664 0)
(-0.00230805 -0.000303374 0)
(-0.0020909 -0.000305162 0)
(-0.00187311 -0.000305693 0)
(-0.00165552 -0.000304611 0)
(-0.00143977 -0.000301311 0)
(-0.00122724 -0.000295219 0)
(-0.00102069 -0.000285354 0)
(-0.000822267 -0.000270976 0)
(-0.000636296 -0.000250674 0)
(-0.000465566 -0.000223894 0)
(-0.000316231 -0.000189011 0)
(-0.000190734 -0.000147004 0)
(-9.63359e-05 -9.74259e-05 0)
(-3.20573e-05 -4.76646e-05 0)
(-3.39109e-06 -4.29098e-06 0)
(-5.93753e-06 2.13164e-05 0)
(-4.22683e-05 8.53016e-05 0)
(-0.000114362 0.000149698 0)
(-0.000212359 0.000209987 0)
(-0.000337191 0.000260218 0)
(-0.000481277 0.00030116 0)
(-0.000643053 0.00033228 0)
(-0.000816965 0.000355495 0)
(-0.00100103 0.000371744 0)
(-0.00119155 0.00038277 0)
(-0.00138701 0.000389632 0)
(-0.00158521 0.000393566 0)
(-0.00178523 0.000395339 0)
(-0.0019859 0.000395689 0)
(-0.00218674 0.000395053 0)
(-0.00238717 0.000393799 0)
(-0.00258698 0.000392127 0)
(-0.00278588 0.000390189 0)
(-0.00298377 0.000388051 0)
(-0.0031805 0.000385762 0)
(-0.00337599 0.000383331 0)
(-0.00357013 0.000380764 0)
(-0.00376286 0.000378052 0)
(-0.00395408 0.000375188 0)
(-0.0041437 0.00037216 0)
(-0.00433162 0.00036896 0)
(-0.00451777 0.000365575 0)
(-0.00470202 0.000361997 0)
(-0.00488429 0.000358216 0)
(-0.00506446 0.000354223 0)
(-0.00524242 0.00035001 0)
(-0.00541806 0.000345568 0)
(-0.00559126 0.00034089 0)
(-0.00576189 0.000335966 0)
(-0.00592983 0.000330789 0)
(-0.00609494 0.000325351 0)
(-0.0062571 0.000319644 0)
(-0.00641618 0.00031366 0)
(-0.00657202 0.000307392 0)
(-0.00672448 0.000300833 0)
(-0.00687343 0.000293974 0)
(-0.0070187 0.00028681 0)
(-0.00716016 0.000279332 0)
(-0.00729763 0.000271535 0)
(-0.00743097 0.000263413 0)
(-0.00756001 0.000254959 0)
(-0.00768459 0.000246169 0)
(-0.00780454 0.000237037 0)
(-0.0079197 0.00022756 0)
(-0.0080299 0.000217733 0)
(-0.00813496 0.000207554 0)
(-0.00823473 0.000197021 0)
(-0.00832902 0.000186132 0)
(-0.00841767 0.000174886 0)
(-0.0085005 0.000163284 0)
(-0.00857735 0.000151327 0)
(-0.00864804 0.000139018 0)
(-0.00871241 0.000126359 0)
(-0.00877029 0.000113356 0)
(-0.00882153 0.000100013 0)
(-0.00886595 8.63389e-05 0)
(-0.00890341 7.23403e-05 0)
(-0.00893376 5.80272e-05 0)
(-0.00895685 4.34104e-05 0)
(-0.00897254 2.8502e-05 0)
(-0.0089807 1.33156e-05 0)
(-0.0089812 -2.13401e-06 0)
(-0.00897392 -1.78305e-05 0)
(-0.00895876 -3.37562e-05 0)
(-0.00893561 -4.98923e-05 0)
(-0.00890438 -6.62183e-05 0)
(-0.00886499 -8.27126e-05 0)
(-0.00881736 -9.93525e-05 0)
(-0.00876145 -0.000116114 0)
(-0.00869719 -0.000132972 0)
(-0.00862456 -0.0001499 0)
(-0.00854354 -0.00016687 0)
(-0.00845411 -0.000183856 0)
(-0.00835628 -0.000200828 0)
(-0.00825007 -0.000217757 0)
(-0.00813551 -0.000234613 0)
(-0.00801264 -0.000251366 0)
(-0.00788153 -0.000267984 0)
(-0.00774226 -0.000284438 0)
(-0.00759491 -0.000300696 0)
(-0.00743959 -0.000316728 0)
(-0.00727642 -0.000332504 0)
(-0.00710553 -0.000347994 0)
(-0.00692708 -0.000363169 0)
(-0.00674121 -0.000378 0)
(-0.00654812 -0.000392461 0)
(-0.00634798 -0.000406525 0)
(-0.00614099 -0.000420167 0)
(-0.00592738 -0.000433363 0)
(-0.00570735 -0.000446092 0)
(-0.00548116 -0.000458331 0)
(-0.00524903 -0.00047006 0)
(-0.00501123 -0.000481259 0)
(-0.00476802 -0.000491904 0)
(-0.0045197 -0.000501967 0)
(-0.00426655 -0.000511413 0)
(-0.00400893 -0.000520181 0)
(-0.00374717 -0.000528196 0)
(-0.00348173 -0.000535325 0)
(-0.00321307 -0.000541394 0)
(-0.00294188 -0.000546112 0)
(-0.00266884 -0.00054912 0)
(-0.00239512 -0.000549843 0)
(-0.0021218 -0.000547627 0)
(-0.00185089 -0.000541461 0)
(-0.00158409 -0.000530316 0)
(-0.00132472 -0.000512627 0)
(-0.00107528 -0.000487083 0)
(-0.000840895 -0.000451603 0)
(-0.00062456 -0.000405169 0)
(-0.000433546 -0.000345712 0)
(-0.00027006 -0.000274396 0)
(-0.000143427 -0.000191187 0)
(-5.20473e-05 -0.000104923 0)
(-7.11465e-06 -2.35614e-05 0)
(-8.08426e-06 4.50435e-05 0)
(-5.51599e-05 0.000148078 0)
(-0.000145958 0.000246223 0)
(-0.00026617 0.000335448 0)
(-0.000416873 0.000410066 0)
(-0.000588688 0.000470932 0)
(-0.000780244 0.000517805 0)
(-0.000985198 0.000553043 0)
(-0.00120159 0.000578112 0)
(-0.00142528 0.000595332 0)
(-0.00165467 0.0006063 0)
(-0.00188727 0.000612747 0)
(-0.00212206 0.000615849 0)
(-0.00235768 0.000616674 0)
(-0.00259357 0.000615907 0)
(-0.00282905 0.000614104 0)
(-0.00306383 0.000611587 0)
(-0.00329756 0.000608594 0)
(-0.00353009 0.000605246 0)
(-0.00376124 0.000601621 0)
(-0.00399089 0.000597745 0)
(-0.00421891 0.000593632 0)
(-0.0044452 0.000589276 0)
(-0.00466964 0.000584668 0)
(-0.00489213 0.000579795 0)
(-0.00511255 0.000574643 0)
(-0.00533078 0.000569197 0)
(-0.00554671 0.000563445 0)
(-0.0057602 0.000557372 0)
(-0.00597114 0.000550966 0)
(-0.00617939 0.000544214 0)
(-0.0063848 0.000537105 0)
(-0.00658725 0.000529625 0)
(-0.00678659 0.000521764 0)
(-0.00698266 0.000513509 0)
(-0.00717532 0.000504848 0)
(-0.00736442 0.000495771 0)
(-0.00754979 0.000486266 0)
(-0.00773126 0.000476321 0)
(-0.00790869 0.000465927 0)
(-0.00808189 0.000455071 0)
(-0.00825069 0.000443745 0)
(-0.00841491 0.000431938 0)
(-0.00857439 0.00041964 0)
(-0.00872893 0.000406843 0)
(-0.00887835 0.000393539 0)
(-0.00902247 0.00037972 0)
(-0.00916109 0.00036538 0)
(-0.00929402 0.000350512 0)
(-0.00942108 0.000335111 0)
(-0.00954207 0.000319173 0)
(-0.0096568 0.000302696 0)
(-0.00976507 0.000285678 0)
(-0.00986668 0.000268118 0)
(-0.00996145 0.000250018 0)
(-0.0100492 0.000231379 0)
(-0.0101297 0.000212207 0)
(-0.0102028 0.000192506 0)
(-0.0102683 0.000172284 0)
(-0.010326 0.000151551 0)
(-0.0103757 0.000130316 0)
(-0.0104173 0.000108593 0)
(-0.0104506 8.63966e-05 0)
(-0.0104754 6.37439e-05 0)
(-0.0104917 4.06534e-05 0)
(-0.0104991 1.71462e-05 0)
(-0.0104977 -6.75476e-06 0)
(-0.0104872 -3.10246e-05 0)
(-0.0104675 -5.56361e-05 0)
(-0.0104386 -8.05604e-05 0)
(-0.0104003 -0.000105766 0)
(-0.0103525 -0.000131221 0)
(-0.0102953 -0.000156889 0)
(-0.0102284 -0.000182734 0)
(-0.0101519 -0.000208719 0)
(-0.0100657 -0.000234802 0)
(-0.00996979 -0.000260943 0)
(-0.0098642 -0.0002871 0)
(-0.00974891 -0.000313229 0)
(-0.00962395 -0.000339284 0)
(-0.00948937 -0.000365222 0)
(-0.00934522 -0.000390995 0)
(-0.00919158 -0.000416558 0)
(-0.00902853 -0.000441864 0)
(-0.00885619 -0.000466866 0)
(-0.00867468 -0.000491519 0)
(-0.00848414 -0.000515777 0)
(-0.00828472 -0.000539594 0)
(-0.0080766 -0.000562927 0)
(-0.00785996 -0.000585733 0)
(-0.00763501 -0.00060797 0)
(-0.00740197 -0.000629598 0)
(-0.00716106 -0.000650579 0)
(-0.00691253 -0.000670878 0)
(-0.00665663 -0.000690459 0)
(-0.00639365 -0.000709289 0)
(-0.00612385 -0.000727335 0)
(-0.00584754 -0.000744564 0)
(-0.00556503 -0.000760939 0)
(-0.00527666 -0.00077641 0)
(-0.00498276 -0.000790918 0)
(-0.00468374 -0.000804368 0)
(-0.00437999 -0.000816633 0)
(-0.00407208 -0.000827502 0)
(-0.00376052 -0.000836697 0)
(-0.00344613 -0.000843775 0)
(-0.00312969 -0.00084817 0)
(-0.00281256 -0.000849029 0)
(-0.00249595 -0.000845339 0)
(-0.00218215 -0.000835642 0)
(-0.00187303 -0.000818374 0)
(-0.00157229 -0.000791349 0)
(-0.00128258 -0.0007526 0)
(-0.00100959 -0.000699377 0)
(-0.000756326 -0.000630083 0)
(-0.000531038 -0.000542262 0)
(-0.00033571 -0.000436925 0)
(-0.000181846 -0.000314337 0)
(-6.76528e-05 -0.000183455 0)
(-9.69914e-06 -5.24673e-05 0)
(-9.81311e-06 7.4402e-05 0)
(-6.59116e-05 0.000224099 0)
(-0.000172565 0.000360854 0)
(-0.000311704 0.000481928 0)
(-0.000484345 0.000582865 0)
(-0.00067942 0.000664977 0)
(-0.000895695 0.000728646 0)
(-0.00112611 0.000776732 0)
(-0.00136881 0.000811311 0)
(-0.0016193 0.000835274 0)
(-0.00187598 0.000850779 0)
(-0.00213617 0.000860051 0)
(-0.00239879 0.00086469 0)
(-0.00266236 0.000866105 0)
(-0.00292627 0.000865245 0)
(-0.00318974 0.00086286 0)
(-0.00345246 0.00085941 0)
(-0.003714 0.000855229 0)
(-0.0039742 0.000850496 0)
(-0.00423281 0.000845327 0)
(-0.00448972 0.000839771 0)
(-0.00474474 0.000833852 0)
(-0.00499777 0.00082757 0)
(-0.00524865 0.000820915 0)
(-0.00549728 0.000813874 0)
(-0.00574351 0.000806429 0)
(-0.00598721 0.000798563 0)
(-0.00622824 0.000790259 0)
(-0.00646646 0.000781499 0)
(-0.00670172 0.000772268 0)
(-0.00693387 0.000762548 0)
(-0.00716276 0.000752323 0)
(-0.00738823 0.000741578 0)
(-0.00761013 0.000730297 0)
(-0.00782827 0.000718463 0)
(-0.00804251 0.000706063 0)
(-0.00825266 0.00069308 0)
(-0.00845854 0.0006795 0)
(-0.00865998 0.000665308 0)
(-0.00885679 0.000650489 0)
(-0.00904879 0.00063503 0)
(-0.00923579 0.000618916 0)
(-0.00941758 0.000602137 0)
(-0.00959398 0.000584677 0)
(-0.00976479 0.000566528 0)
(-0.0099298 0.000547677 0)
(-0.0100888 0.000528115 0)
(-0.0102416 0.000507833 0)
(-0.010388 0.000486824 0)
(-0.0105278 0.000465082 0)
(-0.0106607 0.000442602 0)
(-0.0107866 0.00041938 0)
(-0.0109052 0.000395416 0)
(-0.0110164 0.000370708 0)
(-0.0111199 0.00034526 0)
(-0.0112155 0.000319076 0)
(-0.011303 0.000292161 0)
(-0.0113823 0.000264523 0)
(-0.011453 0.000236175 0)
(-0.0115151 0.000207128 0)
(-0.0115683 0.000177399 0)
(-0.0116124 0.000147005 0)
(-0.0116473 0.000115968 0)
(-0.0116727 8.43118e-05 0)
(-0.0116886 5.2062e-05 0)
(-0.0116948 1.9248e-05 0)
(-0.0116911 -1.40981e-05 0)
(-0.0116773 -4.79415e-05 0)
(-0.0116535 -8.22448e-05 0)
(-0.0116193 -0.000116968 0)
(-0.0115748 -0.000152067 0)
(-0.0115198 -0.000187498 0)
(-0.0114543 -0.000223211 0)
(-0.0113782 -0.000259158 0)
(-0.0112915 -0.000295284 0)
(-0.0111941 -0.000331535 0)
(-0.011086 -0.000367855 0)
(-0.0109672 -0.000404185 0)
(-0.0108378 -0.000440466 0)
(-0.0106976 -0.000476636 0)
(-0.0105469 -0.000512633 0)
(-0.0103857 -0.000548394 0)
(-0.0102141 -0.000583856 0)
(-0.0100321 -0.000618955 0)
(-0.00983988 -0.000653628 0)
(-0.0096376 -0.000687812 0)
(-0.00942542 -0.000721443 0)
(-0.00920349 -0.000754461 0)
(-0.00897202 -0.000786805 0)
(-0.00873121 -0.000818417 0)
(-0.00848129 -0.000849239 0)
(-0.00822249 -0.000879217 0)
(-0.00795507 -0.000908299 0)
(-0.00767931 -0.000936434 0)
(-0.00739548 -0.000963574 0)
(-0.00710388 -0.000989673 0)
(-0.00680483 -0.00101468 0)
(-0.00649866 -0.00103856 0)
(-0.00618571 -0.00106124 0)
(-0.00586635 -0.00108266 0)
(-0.00554096 -0.00110273 0)
(-0.00521 -0.00112131 0)
(-0.00487391 -0.00113822 0)
(-0.0045333 -0.00115316 0)
(-0.00418874 -0.00116573 0)
(-0.00384116 -0.00117534 0)
(-0.00349141 -0.00118119 0)
(-0.00314096 -0.00118213 0)
(-0.00279112 -0.00117678 0)
(-0.00244433 -0.00116321 0)
(-0.00210258 -0.00113933 0)
(-0.00176981 -0.00110231 0)
(-0.00144869 -0.00104951 0)
(-0.00114536 -0.000977524 0)
(-0.00086273 -0.000884082 0)
(-0.000609896 -0.000766268 0)
(-0.000388703 -0.000624543 0)
(-0.00021264 -0.000459032 0)
(-7.99902e-05 -0.000277669 0)
(-1.16484e-05 -8.79655e-05 0)
(-1.10102e-05 0.00010871 0)
(-7.40815e-05 0.000311993 0)
(-0.000193484 0.00049211 0)
(-0.000348154 0.00064819 0)
(-0.000538952 0.000777597 0)
(-0.00075328 0.000882416 0)
(-0.000989926 0.000963942 0)
(-0.00124117 0.00102565 0)
(-0.00150523 0.00107033 0)
(-0.00177731 0.00110148 0)
(-0.00205586 0.00112185 0)
(-0.00233803 0.00113417 0)
(-0.00262278 0.00114048 0)
(-0.0029085 0.00114255 0)
(-0.00319459 0.0011416 0)
(-0.00348019 0.00113858 0)
(-0.00376497 0.0011341 0)
(-0.00404848 0.00112859 0)
(-0.0043305 0.0011223 0)
(-0.00461077 0.00111539 0)
(-0.00488915 0.00110793 0)
(-0.00516545 0.00109995 0)
(-0.00543953 0.00109147 0)
(-0.00571122 0.00108248 0)
(-0.00598039 0.00107297 0)
(-0.00624689 0.0010629 0)
(-0.00651057 0.00105227 0)
(-0.00677127 0.00104106 0)
(-0.00702884 0.00102923 0)
(-0.00728312 0.00101678 0)
(-0.00753395 0.00100369 0)
(-0.00778115 0.00098992 0)
(-0.00802456 0.000975466 0)
(-0.008264 0.000960305 0)
(-0.00849929 0.000944417 0)
(-0.00873025 0.000927783 0)
(-0.0089567 0.000910385 0)
(-0.00917844 0.000892203 0)
(-0.00939528 0.000873219 0)
(-0.00960703 0.000853415 0)
(-0.00981348 0.000832775 0)
(-0.0100144 0.00081128 0)
(-0.0102097 0.000788916 0)
(-0.010399 0.000765667 0)
(-0.0105822 0.000741519 0)
(-0.010759 0.000716459 0)
(-0.0109293 0.000690475 0)
(-0.0110928 0.000663557 0)
(-0.0112493 0.000635696 0)
(-0.0113986 0.000606884 0)
(-0.0115404 0.000577116 0)
(-0.0116746 0.00054639 0)
(-0.0118009 0.000514702 0)
(-0.0119191 0.000482056 0)
(-0.0120289 0.000448453 0)
(-0.0121302 0.000413901 0)
(-0.0122227 0.000378407 0)
(-0.0123063 0.000341984 0)
(-0.0123806 0.000304647 0)
(-0.0124456 0.000266412 0)
(-0.012501 0.000227301 0)
(-0.0125466 0.000187338 0)
(-0.0125822 0.000146552 0)
(-0.0126076 0.000104972 0)
(-0.0126228 6.26351e-05 0)
(-0.0126274 1.95782e-05 0)
(-0.0126215 -2.41564e-05 0)
(-0.0126047 -6.85233e-05 0)
(-0.012577 -0.000113473 0)
(-0.0125384 -0.000158954 0)
(-0.0124885 -0.000204909 0)
(-0.0124275 -0.00025128 0)
(-0.0123552 -0.000298004 0)
(-0.0122715 -0.000345015 0)
(-0.0121764 -0.000392246 0)
(-0.0120698 -0.000439625 0)
(-0.0119518 -0.000487079 0)
(-0.0118224 -0.000534532 0)
(-0.0116816 -0.000581907 0)
(-0.0115293 -0.000629126 0)
(-0.0113658 -0.000676107 0)
(-0.011191 -0.000722769 0)
(-0.0110051 -0.000769032 0)
(-0.0108081 -0.000814812 0)
(-0.0106003 -0.000860028 0)
(-0.0103817 -0.000904598 0)
(-0.0101525 -0.000948442 0)
(-0.00991297 -0.000991481 0)
(-0.00966325 -0.00103364 0)
(-0.00940358 -0.00107483 0)
(-0.00913421 -0.001115 0)
(-0.00885539 -0.00115406 0)
(-0.00856739 -0.00119195 0)
(-0.00827052 -0.0012286 0)
(-0.00796507 -0.00126396 0)
(-0.00765137 -0.00129795 0)
(-0.00732975 -0.00133052 0)
(-0.00700057 -0.00136161 0)
(-0.00666419 -0.00139113 0)
(-0.00632102 -0.001419 0)
(-0.00597147 -0.00144508 0)
(-0.00561601 -0.0014692 0)
(-0.00525514 -0.00149112 0)
(-0.00488951 -0.00151043 0)
(-0.00451973 -0.00152663 0)
(-0.00414678 -0.00153893 0)
(-0.00377156 -0.0015463 0)
(-0.00339562 -0.00154731 0)
(-0.0030203 -0.00154016 0)
(-0.00264818 -0.00152247 0)
(-0.00228124 -0.00149155 0)
(-0.00192363 -0.00144396 0)
(-0.001578 -0.00137632 0)
(-0.00125082 -0.00128455 0)
(-0.00094496 -0.00116557 0)
(-0.000670286 -0.00101588 0)
(-0.000428656 -0.000835073 0)
(-0.000235283 -0.000622781 0)
(-8.86458e-05 -0.000385309 0)
(-1.28461e-05 -0.000128923 0)
(-1.19274e-05 0.000146294 0)
(-8.0449e-05 0.00040843 0)
(-0.000209919 0.000635578 0)
(-0.000377046 0.000829031 0)
(-0.0005825 0.000988356 0)
(-0.00081241 0.00111673 0)
(-0.00106551 0.00121661 0)
(-0.00133351 0.00129224 0)
(-0.00161466 0.00134722 0)
(-0.00190391 0.00138567 0)
(-0.00219978 0.00141099 0)
(-0.00249929 0.00142642 0)
(-0.00280141 0.00143444 0)
(-0.0031045 0.00143717 0)
(-0.00340794 0.0014361 0)
(-0.00371084 0.00143239 0)
(-0.00401284 0.0014268 0)
(-0.00431348 0.00141986 0)
(-0.00461252 0.00141188 0)
(-0.00490968 0.00140308 0)
(-0.00520479 0.00139354 0)
(-0.00549765 0.00138332 0)
(-0.0057881 0.00137245 0)
(-0.00607598 0.0013609 0)
(-0.00636112 0.00134867 0)
(-0.00664336 0.00133575 0)
(-0.00692255 0.0013221 0)
(-0.00719851 0.0013077 0)
(-0.00747108 0.00129253 0)
(-0.00774008 0.00127657 0)
(-0.00800535 0.00125978 0)
(-0.0082667 0.00124216 0)
(-0.00852396 0.00122367 0)
(-0.00877693 0.00120429 0)
(-0.00902543 0.00118399 0)
(-0.00926926 0.00116277 0)
(-0.00950823 0.00114058 0)
(-0.00974214 0.00111741 0)
(-0.00997078 0.00109325 0)
(-0.010194 0.00106805 0)
(-0.0104114 0.00104182 0)
(-0.010623 0.00101452 0)
(-0.0108285 0.000986136 0)
(-0.0110277 0.000956652 0)
(-0.0112202 0.000926052 0)
(-0.0114061 0.000894319 0)
(-0.0115849 0.000861439 0)
(-0.0117564 0.000827401 0)
(-0.0119205 0.000792194 0)
(-0.0120769 0.000755811 0)
(-0.0122254 0.000718246 0)
(-0.0123658 0.000679495 0)
(-0.0124977 0.000639558 0)
(-0.012621 0.000598436 0)
(-0.0127355 0.000556136 0)
(-0.0128409 0.000512665 0)
(-0.012937 0.000468035 0)
(-0.0130236 0.000422261 0)
(-0.0131005 0.000375362 0)
(-0.0131674 0.000327362 0)
(-0.0132242 0.000278286 0)
(-0.0132706 0.000228166 0)
(-0.0133065 0.000177037 0)
(-0.0133317 0.000124938 0)
(-0.013346 7.19125e-05 0)
(-0.0133492 1.80091e-05 0)
(-0.0133412 -3.672e-05 0)
(-0.0133218 -9.22178e-05 0)
(-0.0132909 -0.000148423 0)
(-0.0132485 -0.000205271 0)
(-0.0131943 -0.000262691 0)
(-0.0131283 -0.00032061 0)
(-0.0130504 -0.00037895 0)
(-0.0129605 -0.00043763 0)
(-0.0128587 -0.000496565 0)
(-0.0127449 -0.000555667 0)
(-0.012619 -0.000614846 0)
(-0.0124811 -0.000674008 0)
(-0.0123313 -0.000733057 0)
(-0.0121695 -0.000791896 0)
(-0.0119958 -0.000850425 0)
(-0.0118104 -0.000908544 0)
(-0.0116132 -0.000966153 0)
(-0.0114045 -0.00102315 0)
(-0.0111844 -0.00107943 0)
(-0.0109531 -0.0011349 0)
(-0.0107107 -0.00118946 0)
(-0.0104574 -0.001243 0)
(-0.0101935 -0.00129544 0)
(-0.00991922 -0.00134668 0)
(-0.00963478 -0.00139663 0)
(-0.00934046 -0.0014452 0)
(-0.00903657 -0.00149231 0)
(-0.0087234 -0.00153788 0)
(-0.00840129 -0.00158183 0)
(-0.00807057 -0.00162407 0)
(-0.0077316 -0.00166455 0)
(-0.00738475 -0.00170316 0)
(-0.00703041 -0.00173982 0)
(-0.006669 -0.0017744 0)
(-0.00630096 -0.00180675 0)
(-0.00592679 -0.00183663 0)
(-0.00554701 -0.00186374 0)
(-0.00516229 -0.00188759 0)
(-0.00477329 -0.00190754 0)
(-0.00438102 -0.00192262 0)
(-0.00398639 -0.00193157 0)
(-0.00359101 -0.00193265 0)
(-0.00319624 -0.00192368 0)
(-0.00280474 -0.0019018 0)
(-0.00241847 -0.00186373 0)
(-0.00204172 -0.00180541 0)
(-0.00167711 -0.00172268 0)
(-0.00133142 -0.00161073 0)
(-0.0010075 -0.00146558 0)
(-0.000715863 -0.00128298 0)
(-0.000458474 -0.00106136 0)
(-0.000251916 -0.000799525 0)
(-9.48922e-05 -0.000501824 0)
(-1.36737e-05 -0.000173078 0)
(-1.25434e-05 0.000186681 0)
(-8.50879e-05 0.000512061 0)
(-0.000222235 0.000789456 0)
(-0.000399066 0.00102255 0)
(-0.000616086 0.00121329 0)
(-0.000858388 0.00136616 0)
(-0.00112461 0.00148498 0)
(-0.00140596 0.00157487 0)
(-0.00170067 0.00164033 0)
(-0.00200351 0.0016862 0)
(-0.00231299 0.00171653 0)
(-0.00262608 0.00173508 0)
(-0.00294176 0.0017448 0)
(-0.00325835 0.00174815 0)
(-0.00357525 0.00174691 0)
(-0.00389154 0.00174245 0)
(-0.00420687 0.00173566 0)
(-0.00452073 0.00172719 0)
(-0.00483291 0.00171741 0)
(-0.0051431 0.00170658 0)
(-0.00545112 0.00169481 0)
(-0.00575675 0.00168219 0)
(-0.00605983 0.00166874 0)
(-0.00636017 0.00165445 0)
(-0.00665762 0.00163931 0)
(-0.00695199 0.00162331 0)
(-0.00724311 0.00160641 0)
(-0.00753081 0.00158859 0)
(-0.00781492 0.00156983 0)
(-0.00809525 0.0015501 0)
(-0.00837162 0.00152936 0)
(-0.00864384 0.0015076 0)
(-0.00891172 0.00148479 0)
(-0.00917508 0.00146089 0)
(-0.00943371 0.00143589 0)
(-0.00968741 0.00140975 0)
(-0.00993598 0.00138245 0)
(-0.0101792 0.00135396 0)
(-0.0104169 0.00132426 0)
(-0.0106488 0.00129333 0)
(-0.0108747 0.00126113 0)
(-0.0110945 0.00122765 0)
(-0.0113078 0.00119287 0)
(-0.0115144 0.00115676 0)
(-0.0117142 0.00111931 0)
(-0.0119068 0.00108049 0)
(-0.0120921 0.0010403 0)
(-0.0122698 0.00099871 0)
(-0.0124397 0.000955721 0)
(-0.0126015 0.000911321 0)
(-0.012755 0.000865504 0)
(-0.0129 0.000818267 0)
(-0.0130363 0.000769608 0)
(-0.0131635 0.000719533 0)
(-0.0132815 0.000668048 0)
(-0.01339 0.000615164 0)
(-0.0134888 0.000560896 0)
(-0.0135777 0.000505263 0)
(-0.0136564 0.000448289 0)
(-0.0137247 0.000390001 0)
(-0.0137825 0.000330433 0)
(-0.0138295 0.000269622 0)
(-0.0138656 0.000207612 0)
(-0.0138904 0.00014445 0)
(-0.013904 8.01891e-05 0)
(-0.013906 1.4888e-05 0)
(-0.0138963 -5.13899e-05 0)
(-0.0138749 -0.000118576 0)
(-0.0138415 -0.000186595 0)
(-0.013796 -0.00025537 0)
(-0.0137383 -0.000324816 0)
(-0.0136684 -0.000394844 0)
(-0.0135862 -0.00046536 0)
(-0.0134915 -0.000536267 0)
(-0.0133844 -0.000607464 0)
(-0.0132649 -0.000678843 0)
(-0.0131328 -0.000750297 0)
(-0.0129884 -0.000821713 0)
(-0.0128315 -0.000892975 0)
(-0.0126622 -0.000963967 0)