/*--------------------------------*- C++ -*----------------------------------*\
| =========                 |                                                 |
| \\      /  F ield         | OpenFOAM: The Open Source CFD Toolbox           |
|  \\    /   O peration     | Version:  2406                                  |
|   \\  /    A nd           | Website:  www.openfoam.com                      |
|    \\/     M anipulation  |                                                 |
\*---------------------------------------------------------------------------*/
FoamFile
{
    version     2.0;
    format      ascii;
    arch        "LSB;label=32;scalar=64";
    class       volScalarField;
    location    "27.1";
    object      p;
}
// * * * * * * * * * * * * * * * * * * * * * * * * * * * * * * * * * * * * * //

dimensions      [0 2 -2 0 0 0 0];

internalField   nonuniform List<scalar> 
3600
(
0.035482
0.0354902
0.0354715
0.0354418
0.0353877
0.0353212
0.0352367
0.0351406
0.0350297
0.034906
0.034767
0.0346121
0.0344389
0.0342454
0.0340296
0.0337897
0.0335256
0.0332386
0.032933
0.0326162
0.0322999
0.0320003
0.0317385
0.031539
0.0314278
0.031429
0.0315618
0.031837
0.0322549
0.0328017
0.0334494
0.0341542
0.034858
0.0354921
0.0359824
0.0362585
0.0362628
0.0359615
0.0353515
0.0344645
0.0333627
0.0321315
0.0308627
0.0296445
0.0285436
0.0276066
0.0268497
0.026274
0.025857
0.0255768
0.025397
0.0252971
0.0252437
0.0252304
0.0252292
0.0252499
0.0252656
0.0253003
0.0253201
0.0253517
0.0354738
0.0354817
0.0354609
0.0354317
0.0353793
0.0353163
0.0352364
0.0351458
0.0350417
0.0349261
0.0347972
0.0346543
0.0344956
0.034319
0.0341223
0.0339033
0.0336613
0.0333962
0.0331108
0.0328105
0.0325054
0.0322091
0.03194
0.0317199
0.0315736
0.0315259
0.0315989
0.0318074
0.0321558
0.0326344
0.0332184
0.0338665
0.0345224
0.0351182
0.03558
0.0358369
0.0358306
0.0355265
0.0349208
0.034046
0.0329654
0.0317666
0.0305429
0.0293827
0.0283504
0.0274873
0.0268024
0.0262895
0.0259205
0.0256716
0.025507
0.0254104
0.0253512
0.0253279
0.0253136
0.0253216
0.0253226
0.0253454
0.0253514
0.0253833
0.0354926
0.0355015
0.0354798
0.0354493
0.0353963
0.0353326
0.0352535
0.0351641
0.0350626
0.0349502
0.0348257
0.0346879
0.0345347
0.034363
0.0341698
0.033951
0.0337038
0.0334259
0.033118
0.032783
0.0324293
0.0320711
0.0317299
0.031433
0.0312112
0.0310945
0.0311086
0.0312707
0.0315861
0.0320459
0.0326251
0.033282
0.0339593
0.0345876
0.0350905
0.0353936
0.0354338
0.0351711
0.0345968
0.0337394
0.0326616
0.0314536
0.0302148
0.0290418
0.0280063
0.0271554
0.026499
0.0260287
0.0257104
0.0255141
0.0253974
0.0253403
0.0253106
0.0253079
0.0253059
0.0253217
0.0253248
0.025351
0.0253557
0.0253996
0.0355226
0.0355284
0.0355053
0.0354723
0.0354196
0.0353564
0.0352805
0.035195
0.0350997
0.0349945
0.0348789
0.0347499
0.0346051
0.0344384
0.034244
0.0340136
0.0337403
0.0334171
0.0330416
0.0326166
0.0321537
0.0316724
0.0312006
0.0307706
0.0304178
0.0301754
0.0300722
0.0301278
0.0303503
0.0307335
0.0312555
0.031878
0.0325472
0.033196
0.0337491
0.0341304
0.0342721
0.0341263
0.0336743
0.0329343
0.0319603
0.030838
0.029667
0.0285479
0.0275592
0.0267542
0.0261475
0.025732
0.0254723
0.0253351
0.0252732
0.0252637
0.0252709
0.0252952
0.0253094
0.0253348
0.0253394
0.0253669
0.0253674
0.0254187
0.0355801
0.0355799
0.035555
0.0355172
0.0354636
0.035398
0.0353226
0.0352369
0.0351433
0.0350383
0.0349219
0.0347875
0.0346299
0.0344374
0.034199
0.0338997
0.0335277
0.0330738
0.0325382
0.0319294
0.0312676
0.0305812
0.0299067
0.0292831
0.0287507
0.0283456
0.0280982
0.0280292
0.0281484
0.0284521
0.0289221
0.0295251
0.0302127
0.030923
0.0315841
0.0321197
0.0324572
0.0325381
0.0323281
0.0318265
0.0310693
0.0301278
0.0290945
0.0280708
0.0271429
0.026375
0.0257933
0.0254006
0.0251674
0.0250636
0.0250411
0.0250741
0.0251224
0.0251835
0.0252274
0.0252757
0.0252953
0.0253335
0.0253381
0.0253953
0.0356541
0.0356441
0.0356178
0.0355742
0.0355207
0.0354531
0.0353794
0.0352936
0.0352007
0.0350922
0.0349671
0.0348118
0.034616
0.0343587
0.0340218
0.0335838
0.033032
0.0323602
0.0315767
0.0307003
0.0297621
0.0288
0.0278578
0.0269796
0.0262088
0.0255833
0.0251347
0.0248849
0.024846
0.0250176
0.0253873
0.0259288
0.0266032
0.0273582
0.028131
0.0288509
0.0294457
0.0298488
0.0300095
0.0299026
0.0295353
0.028951
0.0282209
0.0274352
0.0266801
0.0260286
0.0255202
0.0251717
0.0249659
0.024882
0.0248781
0.0249316
0.0250022
0.0250859
0.0251504
0.0252156
0.0252473
0.0252923
0.0253
0.0253559
0.0357511
0.0357282
0.0357005
0.0356494
0.0355954
0.0355227
0.035447
0.035354
0.0352511
0.0351217
0.0349613
0.0347454
0.0344554
0.0340594
0.0335341
0.0328561
0.0320188
0.0310262
0.0299005
0.028674
0.0273907
0.0260987
0.0248491
0.0236901
0.0226665
0.021815
0.0211653
0.0207371
0.0205413
0.0205786
0.0208402
0.021307
0.02195
0.0227296
0.023597
0.0244943
0.0253577
0.0261217
0.0267257
0.0271221
0.0272851
0.0272183
0.0269553
0.0265573
0.0260971
0.0256495
0.0252681
0.0249889
0.0248148
0.0247415
0.0247395
0.0247941
0.0248694
0.024962
0.0250389
0.0251164
0.0251604
0.0252122
0.0252253
0.0252767
0.0358637
0.0358247
0.0357972
0.035738
0.0356843
0.0356051
0.0355244
0.0354168
0.0352907
0.0351171
0.0348849
0.0345552
0.0341001
0.0334791
0.0326694
0.0316539
0.0304398
0.0290471
0.027516
0.0258943
0.0242393
0.0226074
0.021054
0.0196272
0.0183685
0.0173097
0.0164748
0.0158784
0.015528
0.0154233
0.0155576
0.0159174
0.0164833
0.0172289
0.0181218
0.0191225
0.0201849
0.0212568
0.0222824
0.0232058
0.0239772
0.0245608
0.024941
0.0251286
0.0251572
0.0250807
0.0249536
0.024829
0.0247352
0.0246932
0.0246949
0.0247403
0.0248039
0.0248866
0.024959
0.0250344
0.0250803
0.0251308
0.0251455
0.0251879
0.0359888
0.0359309
0.0359043
0.0358351
0.0357798
0.035688
0.0355927
0.0354533
0.0352769
0.0350179
0.0346556
0.0341354
0.0334237
0.0324776
0.0312846
0.0298426
0.0281811
0.0263414
0.0243848
0.0223745
0.0203787
0.0184568
0.0166632
0.0150394
0.0136187
0.012423
0.0114676
0.0107591
0.0102998
0.010086
0.0101111
0.0103643
0.0108328
0.0115004
0.012349
0.013357
0.0144995
0.0157461
0.0170604
0.0183983
0.0197087
0.020936
0.022025
0.0229302
0.0236236
0.0241053
0.0243992
0.0245555
0.0246237
0.0246572
0.0246812
0.0247202
0.0247663
0.024829
0.0248857
0.0249485
0.0249886
0.0250324
0.0250463
0.0250791
0.0361174
0.0360382
0.0360143
0.035934
0.035875
0.0357637
0.0356411
0.0354471
0.0351844
0.0347868
0.0342241
0.0334286
0.0323686
0.0310093
0.0293591
0.0274402
0.0253099
0.0230336
0.0206914
0.0183568
0.0161005
0.0139773
0.0120322
0.0102948
0.00878666
0.00751827
0.00649586
0.00571889
0.00518507
0.00488793
0.00482059
0.00497359
0.00533797
0.00590359
0.00666162
0.00760291
0.00871928
0.010001
0.0114356
0.0130036
0.0146746
0.016403
0.0181251
0.0197624
0.0212286
0.0224491
0.023376
0.0240104
0.0243922
0.0245977
0.0246945
0.0247478
0.0247804
0.0248178
0.0248491
0.0248883
0.0249122
0.0249417
0.0249496
0.0249724
0.0362342
0.0361317
0.0361107
0.0360155
0.0359462
0.0358017
0.03563
0.0353465
0.0349474
0.0343444
0.033501
0.032344
0.030855
0.0290189
0.0268755
0.0244776
0.0219125
0.0192651
0.0166272
0.014072
0.0116629
0.00944137
0.00743822
0.00566822
0.00414085
0.00285647
0.00181436
0.00100893
0.000435243
8.53671e-05
-4.74941e-05
2.80147e-05
0.000304901
0.000775777
0.00143604
0.0022825
0.00331585
0.00453893
0.00595698
0.00757371
0.00938687
0.0113804
0.0135153
0.0157216
0.0178942
0.019904
0.0216181
0.022942
0.0238453
0.0243824
0.0246493
0.0247644
0.0248019
0.0248183
0.0248217
0.0248321
0.0248337
0.0248448
0.0248436
0.0248583
0.0363239
0.0361973
0.0361794
0.0360652
0.0359772
0.035783
0.0355347
0.0351197
0.0345269
0.0336478
0.0324476
0.0308586
0.0288888
0.0265536
0.023931
0.0211047
0.0181862
0.0152699
0.0124464
0.00977697
0.00730951
0.00506729
0.00306576
0.00130629
-0.000210727
-0.00149154
-0.00254019
-0.00336418
-0.0039685
-0.00436066
-0.00454617
-0.00453247
-0.00432501
-0.00392992
-0.00335034
-0.00258796
-0.00163974
-0.000498871
0.00084702
0.00241402
0.00421956
0.00627629
0.00858155
0.0111044
0.0137687
0.0164457
0.0189571
0.0211124
0.0227603
0.0238556
0.0244636
0.0247366
0.024821
0.0248305
0.024808
0.0247868
0.0247616
0.0247507
0.0247374
0.0247456
0.0363583
0.0362065
0.0361891
0.0360481
0.0359271
0.0356595
0.0352989
0.0347033
0.0338556
0.0326339
0.0310158
0.0289523
0.0264889
0.0236786
0.0206375
0.0174733
0.0143098
0.0112365
0.00833133
0.00563516
0.00317691
0.000961874
-0.00100712
-0.00273823
-0.00423594
-0.00550939
-0.00656285
-0.0074034
-0.0080344
-0.00846183
-0.00868929
-0.00872276
-0.00856634
-0.00822546
-0.007703
-0.00700106
-0.00611751
-0.00504656
-0.00377613
-0.002288
-0.000557866
0.00144247
0.00373757
0.0063381
0.00921973
0.0123034
0.0154333
0.0183842
0.0208991
0.0227792
0.0239641
0.0245654
0.0247825
0.0248182
0.0247807
0.0247299
0.0246773
0.0246439
0.0246172
0.0246207
0.0363155
0.0361389
0.0361186
0.0359423
0.0357723
0.0354053
0.0348943
0.0340686
0.0329104
0.0312942
0.0292224
0.0266765
0.0237472
0.0205249
0.0171566
0.0137609
0.0104588
0.0073228
0.00440997
0.00173827
-0.000681014
-0.00285683
-0.0047942
-0.00650622
-0.00799829
-0.00927934
-0.0103516
-0.0112201
-0.0118854
-0.0123514
-0.0126192
-0.0126931
-0.0125758
-0.0122719
-0.0117842
-0.0111159
-0.0102668
-0.00923428
-0.00801016
-0.00658011
-0.00492244
-0.00300679
-0.000798181
0.00173969
0.00462665
0.00784757
0.0113157
0.0148498
0.0181685
0.0209505
0.0229494
0.0241211
0.0246316
0.0247612
0.0247318
0.0246579
0.0245791
0.0245229
0.0244825
0.0244812
0.0361579
0.0359565
0.0359266
0.0357032
0.0354632
0.0349674
0.0342668
0.0331665
0.0316551
0.0296153
0.027086
0.0240868
0.0207547
0.0172103
0.0136188
0.0100941
0.00674235
0.00361092
0.000734292
-0.00189045
-0.00426504
-0.00640753
-0.00832604
-0.0100348
-0.0115373
-0.0128405
-0.0139435
-0.0148486
-0.0155536
-0.0160599
-0.0163665
-0.0164759
-0.0163892
-0.0161105
-0.0156423
-0.0149885
-0.0141508
-0.0131298
-0.0119221
-0.0105193
-0.00890661
-0.00705923
-0.00494456
-0.0025187
0.000261085
0.00342799
0.00696893
0.0107912
0.0146762
0.0182814
0.0212163
0.0232053
0.0242505
0.0246086
0.0246347
0.0245523
0.0244511
0.0243723
0.0243183
0.024311
0.0358637
0.0356387
0.0355919
0.0353102
0.0349803
0.0343291
0.0334053
0.0319973
0.0301088
0.0276425
0.0246815
0.0212864
0.0176347
0.0138652
0.0101461
0.00657391
0.00323189
0.000140387
-0.00268607
-0.00526637
-0.00760978
-0.00973865
-0.0116604
-0.0133878
-0.0149208
-0.0162635
-0.0174113
-0.018364
-0.0191162
-0.0196674
-0.0200142
-0.0201576
-0.0200974
-0.0198366
-0.0193775
-0.0187243
-0.0178802
-0.016848
-0.0156289
-0.0142199
-0.0126144
-0.0107964
-0.00874256
-0.00641376
-0.00376393
-0.000736255
0.00270712
0.00656042
0.0107108
0.0148935
0.0186905
0.0216415
0.0234785
0.0242941
0.0244678
0.0244065
0.0242903
0.0241868
0.024119
0.0241022
0.0353966
0.0351485
0.0350755
0.0347229
0.034283
0.0334528
0.0322808
0.0305474
0.0282802
0.0254108
0.02207
0.018356
0.014476
0.010573
0.00680521
0.00324309
-5.49017e-05
-0.00309302
-0.00587159
-0.0084199
-0.0107499
-0.0128844
-0.0148279
-0.0165902
-0.0181672
-0.0195598
-0.0207601
-0.0217654
-0.0225679
-0.0231651
-0.0235519
-0.0237279
-0.0236915
-0.023445
-0.0229902
-0.0223314
-0.0214726
-0.0204181
-0.0191724
-0.0177367
-0.0161115
-0.0142886
-0.0122565
-0.00998619
-0.00744094
-0.00456066
-0.0012853
0.00243885
0.00659826
0.0110527
0.0154705
0.0193357
0.0221434
0.0236798
0.0241927
0.0241975
0.0240871
0.0239547
0.0238718
0.0238402
0.034746
0.034477
0.0343694
0.033937
0.0333717
0.0323477
0.0309151
0.0288565
0.0262297
0.0230013
0.0193481
0.0153977
0.0113745
0.00741239
0.00365072
0.000130888
-0.00311154
-0.00610042
-0.00884533
-0.0113809
-0.0137182
-0.0158781
-0.0178607
-0.0196724
-0.021305
-0.0227566
-0.0240162
-0.025079
-0.025935
-0.0265801
-0.0270076
-0.0272158
-0.027202
-0.0269676
-0.0265141
-0.0258454
-0.0249666
-0.0238827
-0.0226007
-0.0211244
-0.01946
-0.0176055
-0.0155599
-0.0133053
-0.0108193
-0.00805096
-0.00494087
-0.00140747
0.00260271
0.00706881
0.0118007
0.0163593
0.0201451
0.0226081
0.023733
0.0239076
0.0238302
0.0236726
0.0235688
0.0235169
0.0338901
0.033602
0.0334512
0.0329314
0.0322297
0.0310053
0.0293127
0.0269455
0.0239959
0.0204672
0.0165756
0.0124686
0.00837475
0.00440959
0.000689073
-0.00277327
-0.00596045
-0.0089103
-0.0116368
-0.0141761
-0.0165358
-0.0187338
-0.0207655
-0.0226338
-0.024327
-0.0258406
-0.0271611
-0.0282821
-0.0291917
-0.0298844
-0.030352
-0.0305916
-0.0305996
-0.0303764
-0.0299235
-0.0292444
-0.0283448
-0.0272303
-0.0259099
-0.0243888
-0.0226775
-0.0207779
-0.0186973
-0.0164267
-0.0139586
-0.0112555
-0.00827179
-0.00492295
-0.00112494
0.00318641
0.00796062
0.012914
0.017496
0.0209706
0.0229307
0.0235186
0.0234861
0.0233334
0.0231963
0.0231194
0.0328402
0.0325367
0.0323371
0.0317277
0.0308862
0.0294657
0.0275269
0.0248822
0.0216587
0.0178946
0.0138369
0.00964219
0.00553296
0.00160105
-0.00206156
-0.00546533
-0.00860678
-0.0115325
-0.0142569
-0.0168153
-0.0192106
-0.0214571
-0.0235456
-0.0254761
-0.0272337
-0.0288119
-0.0301953
-0.0313757
-0.0323398
-0.0330806
-0.0335884
-0.0338593
-0.0338886
-0.0336761
-0.0332228
-0.0325322
-0.031611
-0.0304647
-0.0291046
-0.0275367
-0.025775
-0.0238232
-0.0216955
-0.0193881
-0.0169068
-0.0142264
-0.0113206
-0.0081158
-0.00452602
-0.000442693
0.00418953
0.00925161
0.0143502
0.0187342
0.0216642
0.0229404
0.0230474
0.0229106
0.0227508
0.0226342
0.0315971
0.0312817
0.0310289
0.0303308
0.0293516
0.0277474
0.0255859
0.0227039
0.0192607
0.0153254
0.0111659
0.00693883
0.00285358
-0.00102329
-0.00462177
-0.00797133
-0.0110773
-0.0139908
-0.0167245
-0.0193108
-0.021748
-0.0240467
-0.0261937
-0.0281866
-0.0300079
-0.0316497
-0.0330947
-0.0343335
-0.0353512
-0.0361393
-0.036687
-0.0369888
-0.0370393
-0.0368372
-0.0363838
-0.0356819
-0.0347396
-0.0335625
-0.0321642
-0.0305508
-0.0287399
-0.0267358
-0.0245578
-0.0222047
-0.0196926
-0.0170053
-0.0141358
-0.0110266
-0.00760723
-0.00375704
0.000639503
0.00559747
0.0109229
0.0159662
0.0198929
0.0220022
0.0225274
0.0223556
0.0222295
0.0220404
0.0301966
0.029875
0.0295682
0.0287877
0.02768
0.025913
0.0235607
0.0204875
0.0168802
0.0128331
0.00862542
0.00440724
0.000370664
-0.00344177
-0.0069785
-0.010283
-0.0133654
-0.0162782
-0.0190308
-0.0216522
-0.0241359
-0.0264894
-0.0286961
-0.0307516
-0.0326366
-0.0343418
-0.0358483
-0.0371455
-0.038217
-0.0390527
-0.0396405
-0.0399733
-0.0400451
-0.0398532
-0.0393995
-0.0386861
-0.0377226
-0.0365144
-0.0350782
-0.03342
-0.0315612
-0.0295055
-0.0272776
-0.0248762
-0.0223254
-0.019614
-0.0167515
-0.0136955
-0.0103994
-0.00675047
-0.00261378
0.00211714
0.00742264
0.0128403
0.0176181
0.0206235
0.0218527
0.0216676
0.0216012
0.0213279
0.0286601
0.0283377
0.0279775
0.0271231
0.0258998
0.0239945
0.0214859
0.0182672
0.0145464
0.0104372
0.00622225
0.00204102
-0.00193313
-0.00567852
-0.00915842
-0.0124256
-0.0154926
-0.0184109
-0.0211863
-0.023844
-0.0263735
-0.0287794
-0.0310427
-0.0331574
-0.0351028
-0.0368684
-0.038434
-0.0397877
-0.0409116
-0.0417939
-0.0424211
-0.0427846
-0.0428776
-0.0426962
-0.0422426
-0.041518
-0.0405343
-0.0392961
-0.0378237
-0.0361224
-0.0342184
-0.0321141
-0.0298395
-0.0273918
-0.024802
-0.0220598
-0.019188
-0.0161556
-0.0129406
-0.00944855
-0.00555265
-0.00109865
0.00401624
0.00955225
0.0149061
0.0188209
0.0208514
0.0208855
0.0208018
0.0204932
0.0270414
0.0267253
0.0263158
0.0253998
0.0240779
0.0220628
0.0194348
0.0161153
0.0123266
0.00819675
0.0040049
-0.000121524
-0.00402771
-0.00770886
-0.0111395
-0.0143781
-0.0174373
-0.0203666
-0.0231678
-0.0258625
-0.0284371
-0.0308935
-0.0332112
-0.0353828
-0.0373865
-0.0392106
-0.0408341
-0.0422431
-0.0434187
-0.044347
-0.0450136
-0.0454076
-0.045522
-0.045351
-0.044898
-0.0441626
-0.0431593
-0.0418918
-0.0403844
-0.0386412
-0.0366941
-0.0345435
-0.0322257
-0.029735
-0.0271092
-0.0243359
-0.0214488
-0.0184227
-0.0152582
-0.0118813
-0.00818769
-0.00401311
0.000821015
0.00626691
0.0119087
0.0166263
0.0194332
0.0200045
0.0198025
0.0195266
0.0253727
0.0250692
0.0246149
0.0236496
0.0222464
0.0201488
0.0174345
0.0140523
0.0102316
0.00611084
0.00196121
-0.00210153
-0.00593967
-0.00956108
-0.0129488
-0.0161638
-0.0192184
-0.022159
-0.0249842
-0.0277122
-0.0303268
-0.0328282
-0.0351946
-0.0374175
-0.0394743
-0.0413524
-0.0430296
-0.0444906
-0.045715
-0.0466871
-0.0473913
-0.0478145
-0.0479498
-0.0477893
-0.0473374
-0.0465923
-0.0455711
-0.0442759
-0.0427359
-0.0409534
-0.0389664
-0.0367729
-0.0344164
-0.0318872
-0.0292307
-0.0264302
-0.0235287
-0.0205019
-0.0173696
-0.0140754
-0.0105433
-0.00662424
-0.00209968
0.00310606
0.0088029
0.0140846
0.017634
0.018916
0.0186267
0.0183932
0.023714
0.0234307
0.0229386
0.0219386
0.0204729
0.0183203
0.0155515
0.0121409
0.00831842
0.00422974
0.000134994
-0.0038603
-0.00763353
-0.0112013
-0.0145529
-0.0177496
-0.0208026
-0.0237551
-0.026603
-0.0293614
-0.0320125
-0.0345547
-0.0369655
-0.0392355
-0.0413417
-0.0432701
-0.0449979
-0.0465078
-0.0477787
-0.0487923
-0.0495327
-0.0499841
-0.0501399
-0.0499897
-0.0495398
-0.0487858
-0.0477486
-0.0464278
-0.044858
-0.0430388
-0.0410154
-0.0387823
-0.0363915
-0.0338282
-0.031147
-0.0283244
-0.0254135
-0.022386
-0.0192782
-0.0160452
-0.0126409
-0.00894271
-0.00472129
0.000157354
0.00573587
0.0112908
0.0155312
0.0175037
0.0173268
0.0170638
0.0220956
0.0218387
0.0213153
0.020293
0.0187811
0.0165966
0.0137984
0.0103848
0.0065806
0.00253719
-0.00149818
-0.00542749
-0.00914117
-0.012661
-0.0159807
-0.0191607
-0.0222112
-0.0251722
-0.0280374
-0.0308196
-0.0334998
-0.0360752
-0.0385229
-0.0408326
-0.0429811
-0.044953
-0.0467251
-0.0482781
-0.0495903
-0.050641
-0.0514141
-0.0518909
-0.0520658
-0.0519252
-0.0514779
-0.0507162
-0.0496655
-0.0483218
-0.046726
-0.0448739
-0.0428189
-0.0405507
-0.038131
-0.0355388
-0.0328392
-0.0300007
-0.0270873
-0.024063
-0.0209797
-0.0177961
-0.0144962
-0.0109835
-0.00704277
-0.00252335
0.00281089
0.00838316
0.0131947
0.0157497
0.0159321
0.0155383
0.0205734
0.0203498
0.0198038
0.0187727
0.0172312
0.0150367
0.0122322
0.00883815
0.00506894
0.00108078
-0.00289289
-0.00675905
-0.010419
-0.0138967
-0.0171892
-0.0203547
-0.0234027
-0.02637
-0.029249
-0.0320504
-0.0347547
-0.0373576
-0.0398365
-0.0421801
-0.0443652
-0.0463749
-0.0481859
-0.0497768
-0.0511259
-0.0522095
-0.0530121
-0.0535118
-0.0537044
-0.0535727
-0.0531289
-0.0523609
-0.0512995
-0.0499359
-0.0483187
-0.0464378
-0.0443565
-0.042058
-0.0396151
-0.0369992
-0.0342878
-0.0314394
-0.0285312
-0.0255158
-0.0224616
-0.0193229
-0.016114
-0.0127568
-0.00907014
-0.00490552
9.75403e-05
0.00549967
0.010685
0.0137052
0.0143999
0.0138213
0.019166
0.0189806
0.0184191
0.0173898
0.0158314
0.0136431
0.0108484
0.00748803
0.00376223
-0.000168029
-0.00408326
-0.00789217
-0.0115051
-0.0149454
-0.018213
-0.0213631
-0.0244052
-0.0273731
-0.030259
-0.0330714
-0.0357911
-0.0384126
-0.0409138
-0.043282
-0.0454947
-0.0475332
-0.0493747
-0.0509953
-0.0523739
-0.0534837
-0.0543105
-0.0548286
-0.0550362
-0.0549118
-0.0544715
-0.0536983
-0.0526289
-0.0512489
-0.0496149
-0.0477103
-0.0456088
-0.0432854
-0.0408259
-0.038192
-0.0354755
-0.0326232
-0.0297278
-0.0267276
-0.0237092
-0.0206156
-0.0174919
-0.0142676
-0.0108094
-0.00697594
-0.00235515
0.00275242
0.00807541
0.011444
0.012659
0.0119215
0.0179185
0.017777
0.0172092
0.0161935
0.0146313
0.0124653
0.009696
0.00638292
0.00270894
-0.00116041
-0.00501933
-0.00877592
-0.0123476
-0.0157553
-0.0190008
-0.0221361
-0.0251709
-0.0281363
-0.0310247
-0.033843
-0.0365723
-0.0392061
-0.0417229
-0.0441088
-0.046342
-0.048402
-0.0502669
-0.0519101
-0.053312
-0.0544422
-0.0552887
-0.0558213
-0.0560418
-0.0559232
-0.055487
-0.0547098
-0.0536357
-0.0522427
-0.0505973
-0.048674
-0.0465586
-0.0442162
-0.0417469
-0.0391006
-0.0363858
-0.0335351
-0.0306596
-0.0276803
-0.0247049
-0.021659
-0.0186196
-0.0155127
-0.0122612
-0.00872848
-0.00451022
0.000225712
0.00546427
0.00905383
0.0106954
0.00987909
0.0168326
0.0167374
0.016171
0.015177
0.0136204
0.0114871
0.00875269
0.00549402
0.00187402
-0.00193661
-0.00574527
-0.00945653
-0.0129934
-0.0163722
-0.0195967
-0.0227151
-0.0257381
-0.0286944
-0.0315776
-0.034393
-0.0371228
-0.0397592
-0.0422818
-0.0446753
-0.0469188
-0.0489901
-0.0508685
-0.0525246
-0.053941
-0.0550833
-0.0559428
-0.056484
-0.0567137
-0.0565982
-0.0561656
-0.0553847
-0.0543083
-0.0529054
-0.0512534
-0.0493164
-0.0471935
-0.0448378
-0.0423654
-0.0397122
-0.0370055
-0.0341612
-0.031312
-0.0283584
-0.0254326
-0.0224374
-0.0194839
-0.0164841
-0.0134214
-0.010158
-0.00633864
-0.00201541
0.0029658
0.00663962
0.00858246
0.00777404
0.0159414
0.0158959
0.0153404
0.0143787
0.0128389
0.0107503
0.00806214
0.00486716
0.00130648
-0.0024443
-0.00620521
-0.00987562
-0.0133825
-0.0167363
-0.0199419
-0.0230436
-0.0260532
-0.0289975
-0.0318715
-0.034679
-0.0374039
-0.0400368
-0.0425587
-0.0449524
-0.0471991
-0.0492737
-0.0511581
-0.0528194
-0.0542434
-0.0553913
-0.0562587
-0.0568039
-0.0570401
-0.0569256
-0.0564968
-0.055713
-0.0546373
-0.0532276
-0.0515742
-0.0496281
-0.0475042
-0.0451404
-0.0426716
-0.0400163
-0.0373238
-0.0344898
-0.0316721
-0.0287473
-0.0258765
-0.0229341
-0.0200689
-0.0171688
-0.0142805
-0.0112565
-0.00781713
-0.0039189
0.00069025
0.00431705
0.00644522
0.00570595
0.0152271
0.0152307
0.0146938
0.013771
0.0122559
0.0102191
0.00758388
0.00445718
0.000956759
-0.00273664
-0.0064552
-0.0100908
-0.0135731
-0.016905
-0.0200923
-0.0231748
-0.0261667
-0.0290926
-0.0319499
-0.0347411
-0.0374522
-0.040072
-0.0425838
-0.0449678
-0.0472077
-0.0492752
-0.0511559
-0.0528124
-0.0542353
-0.0553799
-0.0562482
-0.056791
-0.0570293
-0.0569122
-0.0564859
-0.0556984
-0.0546252
-0.0532106
-0.0515597
-0.0496083
-0.0474886
-0.0451211
-0.0426614
-0.0400079
-0.0373346
-0.0345134
-0.0317314
-0.0288367
-0.0260243
-0.0231348
-0.0203594
-0.0175523
-0.0148265
-0.0120139
-0.00892692
-0.0054435
-0.00127095
0.00219724
0.0044114
0.00377037
0.0147134
0.0147662
0.0142581
0.0133845
0.0119056
0.00993113
0.00735967
0.00431029
0.000876835
-0.0027561
-0.00643221
-0.0100354
-0.0134962
-0.0168094
-0.0199805
-0.0230448
-0.0260184
-0.0289241
-0.031762
-0.0345333
-0.0372264
-0.0398283
-0.0423247
-0.044693
-0.04692
-0.0489739
-0.0508443
-0.0524891
-0.0539049
-0.0550401
-0.0559046
-0.0564405
-0.0566784
-0.0565564
-0.0561326
-0.0553416
-0.0542731
-0.0528556
-0.0512114
-0.0492578
-0.0471474
-0.0447797
-0.0423341
-0.0396851
-0.0370349
-0.0342276
-0.0314838
-0.0286183
-0.0258657
-0.0230268
-0.0203412
-0.0176197
-0.0150459
-0.0124181
-0.00965268
-0.00655782
-0.00284956
0.000375207
0.00258674
0.00204749
0.0143629
0.0144603
0.0139882
0.0131698
0.0117356
0.00983002
0.00732949
0.00436326
0.00100048
-0.00257105
-0.00620665
-0.00978063
-0.0132239
-0.0165206
-0.0196761
-0.0227206
-0.0256723
-0.0285523
-0.0313645
-0.0341085
-0.0367762
-0.039352
-0.041825
-0.0441689
-0.046375
-0.0484062
-0.0502584
-0.0518829
-0.0532841
-0.0544021
-0.0552568
-0.0557795
-0.0560129
-0.0558819
-0.0554589
-0.0546624
-0.0535992
-0.052179
-0.0505438
-0.0485893
-0.0464915
-0.044125
-0.0416969
-0.0390529
-0.0364281
-0.0336335
-0.0309285
-0.0280889
-0.0253954
-0.0226017
-0.0200035
-0.0173582
-0.0149261
-0.0124574
-0.00998213
-0.0072392
-0.00399794
-0.00107367
0.00105312
0.000603065
0.014195
0.0143337
0.0139076
0.0131547
0.0117793
0.00995413
0.00753758
0.00466625
0.00138541
-0.0021167
-0.00570654
-0.0092498
-0.012676
-0.0159587
-0.0191012
-0.022128
-0.0250593
-0.0279142
-0.0307003
-0.0334156
-0.0360562
-0.0386032
-0.0410502
-0.0433662
-0.045548
-0.0475524
-0.0493826
-0.0509821
-0.052365
-0.0534615
-0.0543035
-0.0548094
-0.0550369
-0.0548946
-0.0544725
-0.05367
-0.0526137
-0.0511912
-0.0495678
-0.0476134
-0.0455312
-0.0431664
-0.0407581
-0.0381183
-0.03552
-0.032735
-0.0300679
-0.0272482
-0.0246108
-0.021854
-0.0193386
-0.0167575
-0.0144565
-0.0121211
-0.00990564
-0.0074719
-0.00468372
-0.00209123
-0.00012436
-0.000506078
0.014153
0.0143241
0.0139497
0.0132675
0.0119614
0.0102245
0.00790187
0.00513494
0.00194535
-0.00148
-0.00501979
-0.00853057
-0.0119402
-0.0152098
-0.0183402
-0.0213486
-0.0242578
-0.0270839
-0.0298398
-0.032521
-0.0351291
-0.0376413
-0.0400571
-0.0423391
-0.0444914
-0.0464628
-0.0482661
-0.0498345
-0.0511945
-0.0522637
-0.0530889
-0.0535732
-0.0537916
-0.0536343
-0.0532113
-0.0523999
-0.0513502
-0.0499235
-0.0483121
-0.0463562
-0.0442903
-0.041925
-0.0395366
-0.0368974
-0.0343244
-0.0315429
-0.0289105
-0.0261019
-0.0235152
-0.0207834
-0.0183436
-0.0158116
-0.0136298
-0.0114012
-0.00941662
-0.00724577
-0.00488531
-0.00263253
-0.000890103
-0.00122667
0.0142609
0.0144583
0.0141434
0.0135419
0.0123221
0.0106875
0.00847529
0.0058286
0.00274774
-0.000585862
-0.00406293
-0.00753365
-0.0109231
-0.01418
-0.0173009
-0.020295
-0.0231862
-0.0259873
-0.028716
-0.0313651
-0.0339427
-0.0364208
-0.0388061
-0.041054
-0.0431774
-0.0451149
-0.0468913
-0.0484273
-0.0497643
-0.0508045
-0.0516128
-0.0520737
-0.0522834
-0.0521095
-0.0516866
-0.0508652
-0.0498232
-0.0483912
-0.0467934
-0.0448344
-0.0427856
-0.040417
-0.0380483
-0.0354046
-0.0328547
-0.0300689
-0.0274666
-0.0246576
-0.0221145
-0.0193928
-0.0170195
-0.0145181
-0.0124429
-0.0102933
-0.00851188
-0.0065553
-0.00458898
-0.00266253
-0.00119349
-0.00150581
0.014441
0.0146537
0.0143995
0.013882
0.0127602
0.011238
0.00914958
0.00663736
0.00368146
0.000455564
-0.00294551
-0.00636631
-0.00973039
-0.0129719
-0.0160834
-0.0190632
-0.021937
-0.0247121
-0.0274128
-0.0300275
-0.0325726
-0.0350136
-0.0373668
-0.0395775
-0.0416706
-0.0435716
-0.0453201
-0.0468209
-0.0481339
-0.0491421
-0.0499325
-0.0503668
-0.0505668
-0.050373
-0.0499491
-0.0491143
-0.0480792
-0.0466381
-0.0450528
-0.0430859
-0.0410526
-0.0386746
-0.0363227
-0.0336663
-0.0311348
-0.0283335
-0.0257542
-0.0229301
-0.020421
-0.017691
-0.0153729
-0.0128802
-0.0108976
-0.00879711
-0.0071927
-0.00539981
-0.00378799
-0.00215481
-0.000987674
-0.0012905
0.0147353
0.0149573
0.0147664
0.0143405
0.0133338
0.0119406
0.00999565
0.00763759
0.00483006
0.00173445
-0.00156899
-0.00492391
-0.0082521
-0.0114748
-0.0145781
-0.0175488
-0.0204123
-0.023169
-0.0258495
-0.0284363
-0.0309555
-0.0333642
-0.0356908
-0.0378682
-0.0399358
-0.0418033
-0.0435283
-0.0449962
-0.0462891
-0.0472667
-0.0480426
-0.0484508
-0.0486437
-0.0484298
-0.0480071
-0.0471576
-0.046131
-0.0446786
-0.0431064
-0.041128
-0.0391096
-0.0367163
-0.0343788
-0.0317009
-0.029183
-0.0263536
-0.0237897
-0.0209335
-0.0184481
-0.0156888
-0.0134135
-0.0109047
-0.00900048
-0.00691714
-0.00546534
-0.00378373
-0.00248296
-0.00109193
-0.000231317
-0.000529857
0.0150409
0.0152617
0.0151284
0.014793
0.0139107
0.0126581
0.0108725
0.00868738
0.00605096
0.00311117
-7.03947e-05
-0.00333801
-0.00661565
-0.00980982
-0.0129018
-0.0158626
-0.0187185
-0.0214588
-0.0241228
-0.0266833
-0.0291797
-0.0315572
-0.0338599
-0.0360046
-0.0380498
-0.0398844
-0.0415892
-0.0430246
-0.0443004
-0.0452472
-0.046011
-0.0463919
-0.0465794
-0.0463428
-0.045922
-0.045054
-0.0440354
-0.0425663
-0.0410057
-0.0390085
-0.0370019
-0.0345837
-0.0322558
-0.0295438
-0.0270323
-0.0241584
-0.0216001
-0.0186913
-0.0162174
-0.013404
-0.0111581
-0.00860474
-0.00676473
-0.00466374
-0.00334265
-0.00171778
-0.000683467
0.000532787
0.00110723
0.000820193
0.0154359
0.0156528
0.0155728
0.0153303
0.0145842
0.0134886
0.0118829
0.00989249
0.00745427
0.00469893
0.00166958
-0.00148498
-0.00469211
-0.00784692
-0.0109247
-0.0138797
-0.016737
-0.0194725
-0.0221331
-0.0246795
-0.0271657
-0.0295221
-0.0318119
-0.0339323
-0.0359648
-0.0377734
-0.0394668
-0.0408753
-0.0421421
-0.0430623
-0.0438208
-0.0441772
-0.0443647
-0.0441066
-0.0436918
-0.0428044
-0.0417966
-0.0403078
-0.03876
-0.0367387
-0.0347433
-0.0322919
-0.0299705
-0.0272123
-0.0247013
-0.0217663
-0.0192045
-0.0162214
-0.0137473
-0.0108533
-0.0086241
-0.00599552
-0.00420739
-0.00205171
-0.000843644
0.00078099
0.0015907
0.00271325
0.00304428
0.00279054
0.0157795
0.0159838
0.015946
0.015788
0.01518
0.0142517
0.0128423
0.0110691
0.0088567
0.00632024
0.00347846
0.000472464
-0.00263643
-0.00573026
-0.00878314
-0.011727
-0.0145888
-0.0173235
-0.0199895
-0.0225284
-0.0250142
-0.0273554
-0.0296414
-0.0317421
-0.0337703
-0.0355568
-0.0372468
-0.0386315
-0.0398963
-0.0407919
-0.0415511
-0.0418831
-0.0420753
-0.0417937
-0.0413878
-0.040477
-0.0394811
-0.0379661
-0.0364302
-0.0343756
-0.0323885
-0.0298915
-0.0275712
-0.0247506
-0.0222319
-0.019215
-0.0166388
-0.0135557
-0.0110686
-0.00806377
-0.00583862
-0.00310073
-0.001354
0.00089662
0.00200421
0.00368787
0.00430812
0.00542919
0.00557521
0.00539253
0.0162116
0.0164046
0.0164012
0.0163221
0.0158533
0.0151024
0.0139065
0.0123713
0.0104116
0.00812474
0.00550619
0.00268295
-0.000297418
-0.00330919
-0.00632629
-0.00925823
-0.0121326
-0.0148796
-0.017569
-0.0201182
-0.0226233
-0.024966
-0.027266
-0.0293608
-0.0314001
-0.0331755
-0.0348754
-0.036245
-0.0375197
-0.0383972
-0.0391675
-0.0394795
-0.0396848
-0.0393817
-0.0389915
-0.0380568
-0.0370776
-0.0355332
-0.0340123
-0.031918
-0.02994
-0.0273875
-0.0250665
-0.022169
-0.0196377
-0.0165191
-0.0139203
-0.0107119
-0.00820158
-0.00505534
-0.00282478
5.78204e-05
0.00176901
0.00415691
0.00516867
0.00697305
0.00742695
0.00864689
0.00867096
0.00861343
0.0165261
0.0166995
0.0167191
0.0167035
0.0163664
0.0157973
0.0148295
0.0135575
0.0118815
0.00988586
0.00753446
0.00494331
0.00213339
-0.000758561
-0.00371717
-0.00662165
-0.00950764
-0.0122695
-0.0149949
-0.0175651
-0.0201068
-0.0224626
-0.0247938
-0.0268924
-0.0289582
-0.0307297
-0.0324532
-0.0338127
-0.0351091
-0.0359714
-0.0367627
-0.0370553
-0.0372819
-0.0369553
-0.0365866
-0.0356232
-0.0346645
-0.033083
-0.0315784
-0.0294336
-0.0274636
-0.0248408
-0.0225152
-0.0195216
-0.0169708
-0.0137263
-0.0110956
-0.00773223
-0.00518848
-0.00186639
0.000377601
0.00344415
0.00512195
0.00769417
0.00860707
0.0105992
0.0108951
0.0123219
0.0122791
0.0124173
0.016963
0.0171224
0.0171578
0.0171941
0.0169764
0.016586
0.0158533
0.0148591
0.0134887
0.0118112
0.00976079
0.00743832
0.00483533
0.00209413
-0.000785038
-0.00365158
-0.00655164
-0.00933818
-0.0121192
-0.014731
-0.0173354
-0.019727
-0.0221149
-0.024237
-0.0263518
-0.0281349
-0.0299009
-0.0312621
-0.0325964
-0.033452
-0.0342781
-0.0345568
-0.0348162
-0.0344689
-0.0341313
-0.033139
-0.0322084
-0.0305865
-0.0291041
-0.0269019
-0.0249436
-0.0222399
-0.019911
-0.0168057
-0.014234
-0.0108423
-0.00817578