/*--------------------------------*- C++ -*----------------------------------*\
| =========                 |                                                 |
| \\      /  F ield         | OpenFOAM: The Open Source CFD Toolbox           |
|  \\    /   O peration     | Version:  2406                                  |
|   \\  /    A nd           | Website:  www.openfoam.com                      |
|    \\/     M anipulation  |                                                 |
\*---------------------------------------------------------------------------*/
FoamFile
{
    version     2.0;
    format      ascii;
    arch        "LSB;label=32;scalar=64";
    class       surfaceScalarField;
    location    "25.1";
    object      phi;
}
// * * * * * * * * * * * * * * * * * * * * * * * * * * * * * * * * * * * * * //

dimensions      [0 3 -1 0 0 0 0];

oriented        oriented;

internalField   nonuniform List<scalar> 
7080
(
1.07892e-07
-1.07915e-07
3.80579e-07
-2.76079e-07
7.19868e-07
-3.3908e-07
1.04021e-06
-3.22633e-07
1.29806e-06
-2.57965e-07
1.46586e-06
-1.68545e-07
1.54503e-06
-7.85892e-08
1.53922e-06
6.74063e-09
1.4573e-06
8.37009e-08
1.29424e-06
1.65729e-07
1.03187e-06
2.65915e-07
6.31191e-07
4.05648e-07
3.78595e-08
5.99679e-07
-8.14912e-07
8.61283e-07
-1.99853e-06
1.19429e-06
-3.58499e-06
1.60006e-06
-5.64347e-06
2.075e-06
-8.23816e-06
2.61467e-06
-1.14239e-05
3.20904e-06
-1.52386e-05
3.84155e-06
-1.96926e-05
4.48416e-06
-2.47564e-05
5.09682e-06
-3.03464e-05
5.62536e-06
-3.6314e-05
6.00395e-06
-4.2437e-05
6.15885e-06
-4.84213e-05
6.01731e-06
-5.39104e-05
5.51709e-06
-5.85073e-05
4.61758e-06
-6.18036e-05
3.30793e-06
-6.34152e-05
1.61313e-06
-6.30198e-05
-4.04844e-07
-6.03919e-05
-2.64828e-06
-5.54336e-05
-4.98889e-06
-4.81997e-05
-7.27399e-06
-3.89114e-05
-9.33625e-06
-2.79609e-05
-1.10049e-05
-1.58975e-05
-1.21218e-05
-3.39935e-06
-1.25589e-05
8.78007e-06
-1.22394e-05
1.9879e-05
-1.11562e-05
2.92133e-05
-9.38531e-06
3.62575e-05
-7.08763e-06
4.07189e-05
-4.49364e-06
4.25715e-05
-1.87418e-06
4.20547e-05
5.08527e-07
3.9614e-05
2.44242e-06
3.58175e-05
3.80945e-06
3.12468e-05
4.58859e-06
2.64191e-05
4.85258e-06
2.17214e-05
4.72091e-06
1.74113e-05
4.33702e-06
1.36116e-05
3.82002e-06
1.03622e-05
3.27364e-06
7.62336e-06
2.75274e-06
5.33734e-06
2.30691e-06
3.4247e-06
1.91945e-06
1.8566e-06
1.58636e-06
6.77224e-07
1.17934e-06
1.06909e-08
6.82267e-07
1.06751e-08
2.77249e-07
-3.81775e-07
7.95677e-07
-7.94403e-07
1.38108e-06
-9.20139e-07
1.87628e-06
-8.16697e-07
2.1913e-06
-5.7067e-07
2.25536e-06
-2.32456e-07
2.04404e-06
1.32257e-07
1.53716e-06
5.11554e-07
7.19712e-07
8.97644e-07
-4.50338e-07
1.33075e-06
-2.04542e-06
1.85378e-06
-4.18058e-06
2.53138e-06
-7.00461e-06
3.41094e-06
-1.06907e-05
4.531e-06
-1.5418e-05
5.90043e-06
-2.13559e-05
7.5118e-06
-2.86476e-05
9.3343e-06
-3.73911e-05
1.13197e-05
-4.76173e-05
1.33902e-05
-5.92623e-05
1.54353e-05
-7.21406e-05
1.73052e-05
-8.59261e-05
1.88201e-05
-0.000100152
1.97852e-05
-0.000114234
2.00173e-05
-0.00012751
1.93679e-05
-0.000139298
1.77432e-05
-0.000148946
1.51125e-05
-0.000155878
1.15105e-05
-0.000159624
7.03223e-06
-0.000159839
1.82705e-06
-0.000156316
-3.90869e-06
-0.000148987
-9.93654e-06
-0.000137932
-1.59824e-05
-0.000123384
-2.17417e-05
-0.000105735
-2.68897e-05
-8.55366e-05
-3.10952e-05
-6.34985e-05
-3.40439e-05
-4.04711e-05
-3.54674e-05
-1.74118e-05
-3.51813e-05
4.66332e-06
-3.31214e-05
2.47541e-05
-2.93778e-05
4.19552e-05
-2.42079e-05
5.555e-05
-1.80274e-05
6.50831e-05
-1.13701e-05
7.04225e-05
-4.81562e-06
7.17686e-05
1.08864e-06
6.9635e-05
5.91956e-06
6.47594e-05
9.4256e-06
5.80052e-05
1.15637e-05
5.02165e-05
1.246e-05
4.21348e-05
1.23744e-05
3.43023e-05
1.16058e-05
2.70808e-05
1.04596e-05
2.06293e-05
9.16479e-06
1.50063e-05
7.90595e-06
1.01702e-05
6.72289e-06
6.12807e-06
5.61664e-06
2.92929e-06
4.35076e-06
7.90646e-07
2.82107e-06
7.85493e-07
3.37519e-07
-7.197e-07
9.04665e-07
-1.36574e-06
1.47572e-06
-1.49149e-06
1.84363e-06
-1.18728e-06
1.88649e-06
-6.14134e-07
1.49732e-06
1.56301e-07
6.17783e-07
1.01265e-06
-8.11692e-07
1.94316e-06
-2.85378e-06
2.9429e-06
-5.61137e-06
4.09335e-06
-9.23358e-06
5.48239e-06
-1.39252e-05
7.232e-06
-1.99311e-05
9.42819e-06
-2.75139e-05
1.21288e-05
-3.69211e-05
1.53263e-05
-4.8351e-05
1.89652e-05
-6.19164e-05
2.2928e-05
-7.7604e-05
2.70412e-05
-9.52352e-05
3.10605e-05
-0.000114438
3.46824e-05
-0.000134649
3.75648e-05
-0.000155152
3.9376e-05
-0.00017515
3.98381e-05
-0.000193842
3.87649e-05
-0.00021049
3.60715e-05
-0.000224467
3.17714e-05
-0.000235269
2.59579e-05
-0.000242514
1.8788e-05
-0.00024593
1.04664e-05
-0.00024534
1.23859e-06
-0.00024065
-8.61363e-06
-0.000231851
-1.87692e-05
-0.000219019
-2.88664e-05
-0.000202328
-3.85002e-05
-0.000182071
-4.72279e-05
-0.000158678
-5.45804e-05
-0.000132731
-6.00896e-05
-0.000104975
-6.33261e-05
-7.63022e-05
-6.3955e-05
-4.7727e-05
-6.17915e-05
-2.03272e-05
-5.68615e-05
4.82832e-06
-4.94333e-05
2.6774e-05
-4.00247e-05
4.4729e-05
-2.93587e-05
5.81816e-05
-1.82815e-05
6.69274e-05
-7.65499e-06
7.11014e-05
1.76403e-06
7.11456e-05
9.4078e-06
6.77716e-05
1.49737e-05
6.18437e-05
1.84231e-05
5.4287e-05
1.99711e-05
4.59329e-05
1.99924e-05
3.74742e-05
1.8955e-05
2.93696e-05
1.72934e-05
2.1927e-05
1.53805e-05
1.52665e-05
1.33967e-05
9.5243e-06
1.13877e-05
4.7997e-06
9.07584e-06
1.46222e-06
6.18635e-06
2.24804e-06
3.09729e-07
-1.02746e-06
7.47038e-07
-1.80347e-06
1.05961e-06
-1.80185e-06
1.01618e-06
-1.14332e-06
4.71511e-07
-6.90566e-08
-7.12901e-07
1.34063e-06
-2.63842e-06
2.93666e-06
-5.42016e-06
4.72314e-06
-9.19344e-06
6.71248e-06
-1.41484e-05
9.04413e-06
-2.05344e-05
1.18619e-05
-2.86556e-05
1.53456e-05
-3.88404e-05
1.96025e-05
-5.13952e-05
2.46711e-05
-6.6551e-05
3.0466e-05
-8.44046e-05
3.67997e-05
-0.000104865
4.33654e-05
-0.000127612
4.97607e-05
-0.000152085
5.55024e-05
-0.000177529
6.00919e-05
-0.000203081
6.30788e-05
-0.000227872
6.41278e-05
-0.000251119
6.30435e-05
-0.000272164
5.97692e-05
-0.00029049
5.43592e-05
-0.000305703
4.69502e-05
-0.000317505
3.77322e-05
-0.000325668
2.69325e-05
-0.000330014
1.48045e-05
-0.000330401
1.62913e-06
-0.000326715
-1.22823e-05
-0.000318879
-2.65761e-05
-0.000306855
-4.08476e-05
-0.000290673
-5.46293e-05
-0.000270448
-6.73894e-05
-0.000246419
-7.85374e-05
-0.000218982
-8.74504e-05
-0.000188716
-9.35139e-05
-0.000156401
-9.61925e-05
-0.000123012
-9.51076e-05
-8.96771e-05
-9.01312e-05
-5.76043e-05
-8.14514e-05
-2.79754e-05
-6.96105e-05
-1.83746e-06
-5.54682e-05
2.00067e-05
-4.01097e-05
3.70504e-05
-2.46974e-05
4.91197e-05
-1.03131e-05
5.63447e-05
2.16353e-06
5.91491e-05
1.21471e-05
5.81779e-05
1.93648e-05
5.42564e-05
2.3867e-05
4.82543e-05
2.59634e-05
4.10317e-05
2.61563e-05
3.32845e-05
2.50119e-05
2.5587e-05
2.30649e-05
1.82846e-05
2.06722e-05
1.171e-05
1.79599e-05
6.08017e-06
1.4677e-05
1.9408e-06
1.03357e-05
4.17038e-06
2.02446e-07
-1.23043e-06
3.45457e-07
-1.94734e-06
1.78902e-07
-1.63615e-06
-5.33395e-07
-4.30696e-07
-1.95913e-06
1.35592e-06
-4.26924e-06
3.65235e-06
-7.61907e-06
6.28704e-06
-1.21935e-05
9.30072e-06
-1.82209e-05
1.27424e-05
-2.59961e-05
1.68244e-05
-3.5876e-05
2.17469e-05
-4.82466e-05
2.7724e-05
-6.34663e-05
3.48309e-05
-8.1788e-05
4.30045e-05
-0.000103286
5.19778e-05
-0.000127789
6.13197e-05
-0.000154849
7.04441e-05
-0.000183756
7.86903e-05
-0.000213627
8.53989e-05
-0.000243525
9.00176e-05
-0.000272573
9.21567e-05
-0.000300027
9.16134e-05
-0.000325296
8.83447e-05
-0.00034793
8.24348e-05
-0.000367594
7.40511e-05
-0.000384035
6.3416e-05
-0.000397065
5.07801e-05
-0.000406534
3.64117e-05
-0.000412316
2.05877e-05
-0.000414293
3.59908e-06
-0.00041235
-1.42426e-05
-0.000406365
-3.25879e-05
-0.000396214
-5.10329e-05
-0.000381788
-6.90975e-05
-0.000363014
-8.62125e-05
-0.000339893
-0.000101711
-0.000312558
-0.000114841
-0.000281323
-0.000124805
-0.000246745
-0.000130825
-0.000209661
-0.000132244
-0.000171187
-0.000128652
-0.000132669
-0.000120009
-9.55697e-05
-0.000106741
-6.13055e-05
-8.97544e-05
-3.10689e-05
-7.0357e-05
-5.70338e-06
-5.00657e-05
1.43641e-05
-3.03727e-05
2.90746e-05
-1.25351e-05
3.86876e-05
2.55406e-06
4.36827e-05
1.4388e-05
4.47392e-05
2.28349e-05
4.26369e-05
2.80832e-05
3.82401e-05
3.05775e-05
3.23417e-05
3.09225e-05
2.56897e-05
2.97405e-05
1.88269e-05
2.75389e-05
1.22907e-05
2.45209e-05
6.46693e-06
2.04929e-05
2.07978e-06
1.47524e-05
6.24632e-06
1.87668e-08
-1.25001e-06
-3.03256e-07
-1.62289e-06
-1.18004e-06
-7.6154e-07
-2.82976e-06
1.22114e-06
-5.44221e-06
3.96572e-06
-9.22452e-06
7.4355e-06
-1.44011e-05
1.14602e-05
-2.12427e-05
1.61413e-05
-3.00881e-05
2.15832e-05
-4.13418e-05
2.80748e-05
-5.54482e-05
3.58472e-05
-7.28145e-05
4.50844e-05
-9.37213e-05
5.57291e-05
-0.00011822
6.74937e-05
-0.000146066
7.98124e-05
-0.000176697
9.19377e-05
-0.000209283
0.000103014
-0.000242836
0.000112227
-0.000276357
0.0001189
-0.000308942
0.000122581
-0.000339842
0.000123034
-0.000368475
0.000120223
-0.000394409
0.000114256
-0.000417347
0.00010535
-0.000437098
9.37811e-05
-0.000453559
7.98597e-05
-0.00046669
6.3898e-05
-0.000476485
4.61997e-05
-0.00048295
2.70507e-05
-0.00048607
6.72517e-06
-0.000485796
-1.45043e-05
-0.000482021
-3.63437e-05
-0.000474576
-5.84538e-05
-0.000463226
-8.04163e-05
-0.000447697
-0.000101707
-0.000427703
-0.000121666
-0.00040301
-0.000139493
-0.000373518
-0.000154255
-0.000339357
-0.000164944
-0.000300992
-0.000170569
-0.000259298
-0.000170309
-0.000215591
-0.000163684
-0.000171555
-0.000150751
-0.000129076
-0.000132216
-8.9967e-05
-0.000109455
-5.56966e-05
-8.43345e-05
-2.71675e-05
-5.89045e-05
-4.69764e-06
-3.50153e-05
1.1887e-05
-1.40411e-05
2.30512e-05
3.20696e-06
2.94516e-05
1.64218e-05
3.18244e-05
2.56912e-05
3.10021e-05
3.13895e-05
2.7794e-05
3.4111e-05
2.30301e-05
3.44994e-05
1.73912e-05
3.31571e-05
1.15808e-05
3.03347e-05
6.15663e-06
2.58917e-05
1.97878e-06
1.8944e-05
8.20825e-06
-2.43383e-07
-1.0093e-06
-1.19923e-06
-6.61447e-07
-3.00842e-06
1.04284e-06
-5.85088e-06
4.06856e-06
-9.94235e-06
8.05431e-06
-1.55337e-05
1.30314e-05
-2.29336e-05
1.88595e-05
-3.25091e-05
2.57217e-05
-4.47107e-05
3.37863e-05
-6.0026e-05
4.33958e-05
-7.89222e-05
5.47474e-05
-0.000101715
6.78846e-05
-0.000128464
8.24841e-05
-0.000158874
9.79133e-05
-0.000192299
0.000113246
-0.000227796
0.000127447
-0.000264277
0.000139507
-0.000300644
0.000148609
-0.000335916
0.000154187
-0.000369275
0.000155956
-0.000400093
0.000153868
-0.000427928
0.000148072
-0.000452512
0.000138854
-0.000473739
0.000126588
-0.000491629
0.000111681
-0.000506302
9.4539e-05
-0.000517933
7.55307e-05
-0.000526715
5.49788e-05
-0.000532824
3.31514e-05
-0.000536386
1.02741e-05
-0.000537451
-1.34573e-05
-0.00053597
-3.7848e-05
-0.000531775
-6.26769e-05
-0.000524568
-8.76547e-05
-0.000513924
-0.000112386
-0.000499305
-0.000136322
-0.000480107
-0.000158728
-0.000455742
-0.000178658
-0.000425751
-0.00019497
-0.000389964
-0.000206388
-0.000348667
-0.000211633
-0.000302752
-0.000209622
-0.000253784
-0.000199736
-0.000203931
-0.000182081
-0.000155705
-0.000157686
-0.000111546
-0.000128497
-7.3334e-05
-9.71126e-05
-4.20909e-05
-6.6254e-05
-1.79359e-05
-3.81857e-05
-3.73076e-07
-1.43477e-05
1.14133e-05
4.64988e-06
1.82994e-05
1.88133e-05
2.11951e-05
2.85098e-05
2.09558e-05
3.43554e-05
1.84639e-05
3.70083e-05
1.4493e-05
3.71275e-05
9.8632e-06
3.4984e-05
5.27664e-06
3.04689e-05
1.67183e-06
2.25733e-05
9.87567e-06
-5.96483e-07
-4.18126e-07
-2.36726e-06
1.11853e-06
-5.33712e-06
4.00338e-06
-9.62829e-06
8.36598e-06
-1.54894e-05
1.39082e-05
-2.32239e-05
2.0769e-05
-3.32378e-05
2.88673e-05
-4.59936e-05
3.84778e-05
-6.20316e-05
4.98183e-05
-8.1859e-05
6.32212e-05
-0.000105856
7.87379e-05
-0.000134103
9.61277e-05
-0.000166301
0.000114675
-0.000201731
0.000133338
-0.000239358
0.000150864
-0.00027796
0.000166041
-0.00031631
0.000177846
-0.000353285
0.000185572
-0.000387952
0.000188841
-0.0004196
0.000187593
-0.000447766
0.000182021
-0.000472224
0.000172518
-0.00049297
0.000159588
-0.000510176
0.000143785
-0.000524142
0.00012564
-0.000535237
0.00010563
-0.000543853
8.41456e-05
-0.000550361
6.14911e-05
-0.000555085
3.78832e-05
-0.000558271
1.34722e-05
-0.000560069
-1.16434e-05
-0.000560513
-3.73855e-05
-0.000559496
-6.3672e-05
-0.000556751
-9.03752e-05
-0.00055183
-0.000117283
-0.000544083
-0.000144044
-0.000532675
-0.000170112
-0.000516621
-0.00019469
-0.000494881
-0.00021669
-0.00046652
-0.000234731
-0.000430928
-0.000247209
-0.000388088
-0.000252448
-0.00033883
-0.000248982
-0.000284985
-0.000235916
-0.000229328
-0.000213335
-0.000175224
-0.000182598
-0.000125971
-0.000146365
-8.40529e-05
-0.000108177
-5.06147e-05
-7.16284e-05
-2.55144e-05
-3.94583e-05
-7.77905e-06
-1.30914e-05
3.80981e-06
7.21231e-06
1.04569e-05
2.18583e-05
1.32147e-05
3.15844e-05
1.30831e-05
3.71389e-05
1.09396e-05
3.92562e-05
7.69375e-06
3.82343e-05
4.15861e-06
3.39855e-05
1.29588e-06
2.5447e-05
1.11593e-05
-1.04513e-06
6.201e-07
-3.80843e-06
3.89748e-06
-8.15135e-06
8.33417e-06
-1.41217e-05
1.43481e-05
-2.20117e-05
2.17913e-05
-3.21844e-05
3.09506e-05
-4.51464e-05
4.18265e-05
-6.14338e-05
5.47726e-05
-8.16207e-05
7.00055e-05
-0.00010613
8.77376e-05
-0.00013512
0.000107731
-0.000168306
0.00012932
-0.000204954
0.000151327
-0.000243931
0.000172322
-0.000283888
0.000190827
-0.000323424
0.000205584
-0.000361246
0.000215675
-0.000396269
0.000220602
-0.000427686
0.000220266
-0.00045501
0.000214923
-0.000478071
0.000205088
-0.000496982
0.000191436
-0.000512078
0.00017469
-0.000523835
0.000155546
-0.000532798
0.000134606
-0.000539522
0.000112355
-0.000544525
8.91483e-05
-0.000548265
6.52279e-05
-0.000551121
4.07334e-05
-0.000553388
1.57304e-05
-0.00055527
-9.77274e-06
-0.000556871
-3.5797e-05
-0.000558183
-6.23752e-05
-0.000559054
-8.95207e-05
-0.000559156
-0.000117199
-0.00055794
-0.000145278
-0.000554595
-0.000173475
-0.000548029
-0.000201275
-0.000536884
-0.000227854
-0.000519634
-0.000252001
-0.000494771
-0.00027209
-0.00046111
-0.000286125
-0.000418177
-0.000291928
-0.000366618
-0.000287485
-0.000308494
-0.000271463
-0.000247287
-0.000243806
-0.000187426
-0.000206223
-0.000133329
-0.000162271
-8.82163e-05
-0.000116735
-5.33513e-05
-7.43198e-05
-2.81531e-05
-3.8281e-05
-1.10738e-05
-9.86375e-06
-3.78411e-07
1.11729e-05
5.4304e-06
2.57771e-05
7.63919e-06
3.49415e-05
7.31332e-06
3.95803e-05
5.47218e-06
4.00888e-05
3.02359e-06
3.64273e-05
9.24705e-07
2.75622e-05
1.20812e-05
-1.60175e-06
2.21019e-06
-5.53745e-06
7.85311e-06
-1.14546e-05
1.42317e-05
-1.93129e-05
2.22192e-05
-2.94589e-05
3.1924e-05
-4.23165e-05
4.38149e-05
-5.84798e-05
5.79797e-05
-7.85097e-05
7.48049e-05
-0.000102926
9.44135e-05
-0.000131941
0.000116752
-0.000165365
0.000141148
-0.000202465
0.000166418
-0.000242067
0.000190922
-0.000282683
0.000212934
-0.000322743
0.00023088
-0.000360754
0.00024359
-0.000395467
0.000250381
-0.00042597
0.000251099
-0.000451757
0.000246046
-0.000472723
0.000235884
-0.000489116
0.000221476
-0.000501436
0.000203753
-0.000510336
0.000183588
-0.000516518
0.000161729
-0.000520663
0.000138754
-0.000523383
0.000115079
-0.000525194
9.09666e-05
-0.000526519
6.65617e-05
-0.000527688
4.19142e-05
-0.000528957
1.70133e-05
-0.000530516
-8.19791e-06
-0.000532497
-3.37991e-05
-0.000534966
-5.98863e-05
-0.000537913
-8.65539e-05
-0.000541207
-0.000113884
-0.000544549
-0.000141915
-0.000547398
-0.000170605
-0.000548892
-0.00019976
-0.000547783
-0.000228945
-0.00054241
-0.000257358
-0.000530773
-0.000283715
-0.000510736
-0.000306154
-0.00048041
-0.000322251
-0.000438686
-0.000329208
-0.000385862
-0.000324287
-0.000324153
-0.000305515
-0.000257812
-0.000272563
-0.000192554
-0.000227531
-0.000134153
-0.000175135
-8.66784e-05
-0.0001218
-5.13545e-05
-7.3607e-05
-2.69792e-05
-3.42468e-05
-1.12703e-05
-4.53765e-06
-2.01146e-06
1.65097e-05
2.63335e-06
3.02971e-05
4.08845e-06
3.81154e-05
3.56921e-06
4.06114e-05
2.1013e-06
3.78833e-05
6.49333e-07
2.90208e-05
1.2723e-05
-2.25895e-06
4.45607e-06
-7.52256e-06
1.31461e-05
-1.51746e-05
2.18611e-05
-2.50765e-05
3.21418e-05
-3.76382e-05
4.44733e-05
-5.33339e-05
5.95249e-05
-7.28115e-05
7.74516e-05
-9.65821e-05
9.85861e-05
-0.000125
0.00012283
-0.000157948
0.000149709
-0.0001948
0.000178
-0.000234357
0.000205981
-0.000275058
0.000231625
-0.000315153
0.000253035
-0.000352968
0.000268698
-0.000387071
0.000277697
-0.000416444
0.000279757
-0.000440551
0.000275211
-0.00045936
0.000264859
-0.00047325
0.000249779
-0.000482896
0.000231125
-0.000489115
0.000209976
-0.000492756
0.000187231
-0.000494598
0.000163571
-0.000495303
0.000139458
-0.000495398
0.000115172
-0.000495281
9.08443e-05
-0.000495238
6.65126e-05
-0.000495478
4.21449e-05
-0.000496151
1.76765e-05
-0.000497381
-6.98062e-06
-0.000499272
-3.19212e-05
-0.000501922
-5.72503e-05
-0.000505414
-8.3077e-05
-0.000509792
-0.00010952
-0.000515022
-0.000136698
-0.000520924
-0.000164715
-0.000527072
-0.000193623
-0.000532678
-0.000223348
-0.000536467
-0.000253577
-0.000536592
-0.000283595
-0.000530649
-0.000312101
-0.000515873
-0.000337031
-0.000489576
-0.000355511
-0.000449857
-0.000364011
-0.00039649
-0.000358887
-0.000331747
-0.000337308
-0.000260723
-0.000298555
-0.000190638
-0.000245216
-0.000128854
-0.000183582
-8.02335e-05
-0.000122221
-4.56873e-05
-6.87916e-05
-2.30826e-05
-2.7136e-05
-9.38372e-06
2.81081e-06
-1.89745e-06
2.28181e-05
1.41617e-06
3.48001e-05
2.13622e-06
3.98999e-05
1.48548e-06
3.85296e-05
4.98646e-07
3.00177e-05
1.32201e-05
-3.01592e-06
7.45237e-06
-9.74085e-06
1.99051e-05
-1.92501e-05
3.13376e-05
-3.1299e-05
4.4212e-05
-4.63623e-05
5.95156e-05
-6.49381e-05
7.8112e-05
-8.76724e-05
0.000100171
-0.000114933
0.000125852
-0.000146803
0.00015469
-0.000182743
0.00018565
-0.000221665
0.000216914
-0.000261946
0.000246261
-0.000301737
0.000271409
-0.000339166
0.000290462
-0.000372636
0.000302162
-0.000400986
0.000306046
-0.000423647
0.000302414
-0.000440624
0.000292187
-0.000452425
0.000276658
-0.000459879
0.000257233
-0.000463972
0.000235217
-0.000465678
0.000211684
-0.000465865
0.000187419
-0.000465227
0.000162935
-0.000464276
0.000138511
-0.00046336
0.00011426
-0.000462694
9.0183e-05
-0.000462398
6.62229e-05
-0.000462537
4.22919e-05
-0.000463152
1.83005e-05
-0.000464284
-5.83933e-06
-0.000465989
-3.02051e-05
-0.000468354
-5.48749e-05
-0.000471491
-7.99278e-05
-0.000475539
-0.000105461
-0.000480635
-0.000131591
-0.000486873
-0.000158466
-0.000494234
-0.000186252
-0.000502468
-0.000215104
-0.000510946
-0.000245089
-0.000518477
-0.000276055
-0.000523142
-0.000307427
-0.000522233
-0.000337932
-0.000512398
-0.000365341
-0.000490116
-0.000386289
-0.000452582
-0.000396422
-0.000398912
-0.000390981
-0.000331379
-0.000366093
-0.000256041
-0.000320556
-0.000181897
-0.000257728
-0.000118042
-0.000186075
-6.9893e-05
-0.000116944
-3.74978e-05
-5.95313e-05
-1.75621e-05
-1.71304e-05
-6.31969e-06
1.15762e-05
-8.03659e-07
2.92777e-05
1.1803e-06
3.79185e-05
1.2039e-06
3.84981e-05
4.87441e-07
3.07388e-05
1.37026e-05
-3.84167e-06
1.12734e-05
-1.21054e-05
2.82146e-05
-2.35227e-05
4.27193e-05
-3.77367e-05
5.84573e-05
-5.52785e-05
7.70382e-05
-7.66293e-05
9.94834e-05
-0.000102363
0.000125895
-0.000132608
0.000156112
-0.00016709
0.000189168
-0.000204811
0.00022338
-0.000244251
0.000256353
-0.000283464
0.000285482
-0.000320463
0.000308408
-0.000353447
0.000323451
-0.000381119
0.000329835
-0.000402804
0.000327736
-0.000418526
0.000318137
-0.000428867
0.000302532
-0.000434803
0.000282595
-0.000437461
0.000259893
-0.000437945
0.000235701
-0.000437195
0.000210934
-0.000435935
0.000186158
-0.000434656
0.000161655
-0.000433654
0.000137504
-0.000433064
0.000113665
-0.000432922
9.00349e-05
-0.000433202
6.64959e-05
-0.000433856
4.29379e-05
-0.000434839
1.92747e-05
-0.000436129
-4.55966e-06
-0.000437736
-2.86082e-05
-0.000439717
-5.29051e-05
-0.000442175
-7.74808e-05
-0.000445266
-0.000102381
-0.000449192
-0.000127676
-0.000454184
-0.000153485
-0.000460467
-0.000179978
-0.000468188
-0.000207391
-0.000477295
-0.00023599
-0.000487356
-0.000266001
-0.000497324
-0.000297462
-0.000505294
-0.000329962
-0.00050834
-0.000362295
-0.000502581
-0.000392046
-0.000483677
-0.000415325
-0.000447872
-0.000426786
-0.000393577
-0.000420391
-0.000323118
-0.000391018
-0.000243761
-0.000337088
-0.000166619
-0.000263213
-0.000102539
-0.000181021
-5.6833e-05
-0.000105232
-2.80021e-05
-4.59613e-05
-1.14515e-05
-4.97055e-06
-2.98946e-06
2.08142e-05
5.0119e-07
3.44333e-05
1.16732e-06
3.78283e-05
5.84428e-07
3.13291e-05
1.42855e-05
-4.7159e-06
1.59609e-05
-1.4549e-05
3.80976e-05
-2.78638e-05
5.59867e-05
-4.4184e-05
7.48086e-05
-6.40742e-05
9.68992e-05
-8.79451e-05
0.000123371
-0.000116222
0.000154153
-0.00014872
0.000188617
-0.00018476
0.000225195
-0.000222907
0.000261529
-0.000261301
0.000294738
-0.000297821
0.000322001
-0.000330534
0.000341115
-0.000357929
0.000350845
-0.000379208
0.00035111
-0.000394312
0.00034284
-0.000403869
0.00032769
-0.000408939
0.000307602
-0.000410789
0.000284443
-0.00041063
0.000259734
-0.00040949
0.00023456
-0.000408119
0.000209564
-0.000407
0.000185039
-0.000406379
0.000161036
-0.000406331
0.000137458
-0.000406816
0.000114154
-0.000407737
9.09604e-05
-0.000408976
6.77397e-05
-0.00041042
4.43877e-05
-0.000411978
2.08402e-05
-0.000413595
-2.93615e-06
-0.000415249
-2.69461e-05
-0.000416965
-5.11802e-05
-0.000418818
-7.562e-05
-0.000420935
-0.000100256
-0.000423505
-0.000125098
-0.000426783
-0.000150199
-0.000431079
-0.000175677
-0.000436732
-0.000201733
-0.000444043
-0.000228673
-0.000453154
-0.000256886
-0.000463834
-0.00028678
-0.0004752
-0.000318593
-0.000485384
-0.000352109
-0.000491271
-0.000386156
-0.000488487
-0.000418106
-0.000471893
-0.000443376
-0.000436807
-0.000455477
-0.000381015
-0.000446813
-0.00030713
-0.000410979
-0.000224073
-0.000346274
-0.000145481
-0.000259615
-8.36124e-05
-0.000167097
-4.25177e-05
-8.70569e-05
-1.84308e-05
-2.90578e-05
-5.791e-06
8.17038e-06
-2.39502e-07
2.88833e-05
1.22224e-06
3.63605e-05
7.43531e-07
3.18122e-05
1.50251e-05
-5.58189e-06
2.15145e-05
-1.6933e-05
4.95113e-05
-3.20431e-05
7.10474e-05
-5.03067e-05
9.31145e-05
-7.22897e-05
0.000118856
-9.82752e-05
0.000149383
-0.000128474
0.00018434
-0.00016234
0.0002225
-0.000198796
0.000261646
-0.000236042
0.000298787
-0.000272017
0.00033071
-0.000304603
0.000354596
-0.00033213
0.00036864
-0.000353557
0.000372279
-0.000368705
0.000366259
-0.00037813
0.000352269
-0.000382952
0.000332514
-0.000384521
0.000309175
-0.000384175
0.000284096
-0.000383016
0.000258577
-0.000381852
0.000233394
-0.00038116
0.000208872
-0.000381163
0.00018504
-0.000381881
0.000161752
-0.000383222
0.000138796
-0.000385031
0.00011596
-0.000387141
9.30653e-05
-0.000389392
6.99858e-05
-0.000391653
4.66427e-05
-0.000393822
2.3003e-05
-0.000395831
-9.33383e-07
-0.000397647
-2.51374e-05
-0.00039927
-4.95644e-05
-0.00040074
-7.41575e-05
-0.000402142
-9.8862e-05
-0.000403613
-0.000123634
-0.000405361
-0.000148458
-0.000407669
-0.000173374
-0.000410908
-0.000198499
-0.000415514
-0.000224072
-0.000421934
-0.00025047
-0.000430494
-0.000278223
-0.000441165
-0.000307925
-0.000453214
-0.000340062
-0.000464787
-0.000374583
-0.000472542
-0.00041035
-0.000471579
-0.000444337
-0.000455951
-0.000471101
-0.000420133
-0.000482628
-0.000361515
-0.000469599
-0.000283506
-0.000424289
-0.000197391
-0.000345731
-0.000119695
-0.000244793
-6.30447e-05
-0.0001437
-2.85343e-05
-6.35663e-05
-1.0011e-05
-1.03537e-05
-1.48427e-06
2.03591e-05
1.1585e-06
3.37147e-05
8.97269e-07
3.20791e-05
1.59208e-05
-6.40494e-06
2.78828e-05
-1.91648e-05
6.23362e-05
-3.59009e-05
8.7722e-05
-5.58658e-05
0.00011312
-7.95837e-05
0.000142537
-0.000107159
0.00017698
-0.000138543
0.0002157
-0.000172822
0.000256789
-0.000208577
0.000297386
-0.000243759
0.000333973
-0.000276268
0.000363208
-0.000304178
0.000382508
-0.000326245
0.0003907
-0.000342012
0.000388047
-0.000351917
0.000376159
-0.000357021
0.000357372
-0.000358748
0.000334237
-0.000358521
0.000308948
-0.000357557
0.00028313
-0.000356719
0.000257739
-0.000356524
0.000233197
-0.000357175
0.000209524
-0.000358669
0.000186534
-0.000360867
0.000163952
-0.000363578
0.000141509
-0.000366595
0.00011898
-0.000369734
9.6207e-05
-0.000372836
7.3093e-05
-0.000375783
4.95933e-05
-0.000378481
2.5706e-05
-0.000380869
1.46e-06
-0.00038291
-2.30905e-05
-0.000384593
-4.78761e-05
-0.000385929
-7.28149e-05
-0.000386964
-9.78218e-05
-0.000387777
-0.000122815
-0.000388504
-0.000147727
-0.000389348
-0.000172526
-0.000390606
-0.000197237
-0.000392688
-0.000221988
-0.000396109
-0.000247046
-0.000401451
-0.000272881
-0.000409217
-0.000300157
-0.000419569
-0.000329711
-0.0004319
-0.000362251
-0.000444308
-0.000397942
-0.00045313
-0.000435514
-0.000452819
-0.00047141
-0.000436596
-0.000498848
-0.000398214
-0.000507978
-0.000335135
-0.000487373
-0.000252393
-0.000428481
-0.000164661
-0.00033253
-9.12839e-05
-0.000217075
-4.2998e-05
-0.000111846
-1.64253e-05
-3.69284e-05
-3.67649e-06
7.60886e-06
7.72688e-07
2.92628e-05
9.84481e-07
3.18692e-05
1.69031e-05
-7.11404e-06
3.49618e-05
-2.10856e-05
7.63848e-05
-3.91901e-05
0.000105765
-6.05224e-05
0.000134504
-8.55226e-05
0.000167505
-0.000114079
0.000205568
-0.000145867
0.000247472
-0.000179639
0.000290582
-0.000213724
0.000331463
-0.000245964
0.000366226
-0.000274383
0.000391623
-0.000297399
0.000405533
-0.000314298
0.000407599
-0.000325217
0.000398973
-0.000331114
0.000382056
-0.000333377
0.000359641
-0.000333529
0.000334389
-0.000332878
0.0003083
-0.000332398
0.00028265
-0.00033265
0.000257994
-0.000333869
0.000234415
-0.000336031
0.000211686
-0.000338978
0.00018948
-0.000342482
0.000167456
-0.000346317
0.00014534
-0.000350272
0.000122934
-0.000354183
0.000100114
-0.000357915
7.68215e-05
-0.00036137
5.30442e-05
-0.000364475
2.88072e-05
-0.000367181
4.16134e-06
-0.000369454
-2.0822e-05
-0.000371277
-4.60578e-05
-0.000372647
-7.14496e-05
-0.000373579
-9.68948e-05
-0.000374109
-0.000122289
-0.000374307
-0.000147532
-0.000374294
-0.000172543
-0.000374263
-0.000197271
-0.000374513
-0.000221741
-0.00037548
-0.00024608
-0.000377752
-0.000270611
-0.000382031
-0.000295879
-0.00038899
-0.000322754
-0.000398964
-0.000352278
-0.00041142
-0.000385488
-0.000424311
-0.000422622
-0.000433484
-0.000462236
-0.000432597
-0.000499731
-0.00041396
-0.000526608
-0.000370885
-0.000530445
-0.000301632
-0.000497739
-0.00021418
-0.00041999
-0.000127723
-0.000303536
-6.30761e-05
-0.000176482
-2.56376e-05
-7.43588e-05
-7.20945e-06
-1.08258e-05
-9.87046e-08
2.21549e-05
9.55971e-07
3.08138e-05
1.78599e-05
-7.67572e-06
4.25946e-05
-2.26133e-05
9.13987e-05
-4.17786e-05
0.000124859
-6.40929e-05
0.000156866
-8.98717e-05
0.000193241
-0.00011877
0.000234492
-0.000150203
0.000278877
-0.000182654
0.000323046
-0.000214314
0.000363105
-0.000243056
0.000394973
-0.000267166
0.00041572
-0.000285505
0.000423875
-0.000297914
0.000419999
-0.000305047
0.000406107
-0.000308226
0.000385229
-0.000308971
0.000360386
-0.000308727
0.00033414
-0.000308564
0.000308137
-0.000309159
0.000283241
-0.000310782
0.000259617
-0.000313439
0.000237069
-0.000316949
0.000215197
-0.000321074
0.000193605
-0.00032556
0.000171943
-0.000330191
0.000149972
-0.000334784
0.00012753
-0.000339207
0.000104539
-0.000343356
8.09732e-05
-0.000347158
5.68488e-05
-0.000350556
3.22099e-05
-0.000353514
7.12267e-06
-0.000356002
-1.83307e-05
-0.000358
-4.40552e-05
-0.0003595
-6.99465e-05
-0.000360498
-9.58923e-05
-0.000361006
-0.000121778
-0.000361049
-0.000147485
-0.000360682
-0.000172907
-0.000360007
-0.000197943
-0.000359202
-0.000222545
-0.000358564
-0.000246716
-0.000358553
-0.000270622
-0.000359827
-0.000294603
-0.000363208
-0.000319374
-0.000369531
-0.000345954
-0.000379261
-0.00037576
-0.000391866
-0.000410017
-0.000404979
-0.000449124
-0.000413755
-0.000490955
-0.000410826
-0.000529533
-0.000387635
-0.000553633
-0.000337488
-0.00054788
-0.00026072
-0.000496776
-0.000170002
-0.000394252
-8.97629e-05
-0.00025674
-3.82506e-05
-0.000125837
-1.23469e-05
-3.67481e-05
-1.58442e-06
1.14006e-05
7.91497e-07
2.84305e-05
1.86535e-05
-8.02498e-06
5.05805e-05
-2.36126e-05
0.000107073
-4.347e-05
0.000144647
-6.63306e-05
0.000179785
-9.23548e-05
0.000219229
-0.000120971
0.000263144
-0.000151369
0.000309257
-0.000181856
0.000353556
-0.000210594
0.000391833
-0.000235614
0.000420008
-0.000255555
0.000435657
-0.000269757
0.000438089
-0.000278566
0.000428807
-0.000283023
0.000410573
-0.00028464
0.000386846
-0.000284901
0.000360655
-0.000285047
0.000334286
-0.000285861
0.000308955
-0.000287727
0.000285107
-0.000290678
0.000262572
-0.000294562
0.000240952
-0.000299118
0.000219755
-0.000304088
0.000198574
-0.000309234
0.00017709
-0.000314374
0.00015511
-0.000319366
0.00013252
-0.000324109
0.00010928
-0.000328526
8.53888e-05
-0.000332563
6.08833e-05
-0.000336175
3.58195e-05
-0.00033933
1.02741e-05
-0.000341999
-1.56638e-05
-0.000344166
-4.18913e-05
-0.000345817
-6.82988e-05
-0.000346945
-9.4767e-05
-0.000347549
-0.000121177
-0.000347635
-0.000147402
-0.00034722
-0.000173325
-0.000346344
-0.000198821
-0.000345089
-0.000223802
-0.000343619
-0.000248186
-0.000342229
-0.000272014
-0.000341409
-0.000295423
-0.000341889
-0.000318895
-0.000344626
-0.000343216
-0.000350601
-0.000369787
-0.000360369
-0.000400249
-0.000373236
-0.000436258
-0.000386304
-0.000477888
-0.000393701
-0.000522132
-0.00038689
-0.000560441
-0.000356567
-0.00057819
-0.000297034
-0.00055632
-0.000212483
-0.000478802
-0.000122596
-0.000346658
-5.51648e-05
-0.000193237
-1.91892e-05
-7.2725e-05
-3.83458e-06
-3.95301e-06
4.94805e-07
2.40943e-05
1.91525e-05
-8.14754e-06
5.86821e-05
-2.4047e-05
0.000123053
-4.42112e-05
0.000164734
-6.71778e-05
0.000202803
-9.2932e-05
0.000244938
-0.0001207
0.00029094
-0.000149506
0.000338033
-0.000177571
0.000381634
-0.000203135
0.000417377
-0.000224475
0.000441354
-0.00024063
0.000451798
-0.000251397
0.000448859
-0.000257527
0.000434926
-0.000260298
0.000413344
-0.000261253
0.000387793
-0.000261719
0.00036112
-0.000262672
0.000335232
-0.000264605
0.000310888
-0.000267663
0.000288159
-0.00027171
0.000266619
-0.00027651
0.000245749
-0.000281781
0.000225027
-0.000287286
0.000204077
-0.000292825
0.00018263
-0.00029826
0.000160545
-0.000303484
0.000137746
-0.000308425
0.000114222
-0.000313024
8.99891e-05
-0.000317234
6.50952e-05
-0.000321015
3.96027e-05
-0.000324334
1.35953e-05
-0.000327163
-1.28323e-05
-0.000329482
-3.95693e-05
-0.000331279