/*--------------------------------*- C++ -*----------------------------------*\
| =========                 |                                                 |
| \\      /  F ield         | OpenFOAM: The Open Source CFD Toolbox           |
|  \\    /   O peration     | Version:  2406                                  |
|   \\  /    A nd           | Website:  www.openfoam.com                      |
|    \\/     M anipulation  |                                                 |
\*---------------------------------------------------------------------------*/
FoamFile
{
    version     2.0;
    format      ascii;
    arch        "LSB;label=32;scalar=64";
    class       volVectorField;
    location    "25.1";
    object      Uold;
}
// * * * * * * * * * * * * * * * * * * * * * * * * * * * * * * * * * * * * * //

dimensions      [0 1 -1 0 0 0 0];

internalField   nonuniform List<vector> 
3600
(
(1.56217e-05 -1.53877e-05 0)
(0.00013414 -5.67031e-05 0)
(0.000331272 -7.36464e-05 0)
(0.000528568 -7.25918e-05 0)
(0.000708212 -6.105e-05 0)
(0.000833328 -4.54525e-05 0)
(0.000908694 -3.12882e-05 0)
(0.000928091 -1.97782e-05 0)
(0.000901961 -1.17632e-05 0)
(0.000828234 -4.27851e-06 0)
(0.000702785 5.32566e-06 0)
(0.000507165 2.15819e-05 0)
(0.000213761 4.7348e-05 0)
(-0.000214444 8.53108e-05 0)
(-0.000819488 0.000136063 0)
(-0.00164438 0.000200036 0)
(-0.002732 0.000276901 0)
(-0.0041221 0.000366776 0)
(-0.00585121 0.000469058 0)
(-0.0079474 0.000582244 0)
(-0.0104265 0.000702652 0)
(-0.0132833 0.0008247 0)
(-0.0164853 0.000940968 0)
(-0.0199635 0.00104261 0)
(-0.0236073 0.00111819 0)
(-0.0272614 0.0011527 0)
(-0.0307298 0.00112751 0)
(-0.0337845 0.0010232 0)
(-0.0361817 0.000823924 0)
(-0.0376808 0.000522375 0)
(-0.0380673 0.000123067 0)
(-0.0371743 -0.000356156 0)
(-0.0349028 -0.000884888 0)
(-0.031238 -0.0014222 0)
(-0.0262623 -0.00192021 0)
(-0.020159 -0.00232855 0)
(-0.0132129 -0.00260003 0)
(-0.00579377 -0.00269713 0)
(0.00166316 -0.0025987 0)
(0.00869952 -0.00230597 0)
(0.0148727 -0.00184568 0)
(0.0198169 -0.00126959 0)
(0.0232784 -0.000647092 0)
(0.0251647 -5.42013e-05 0)
(0.0255368 0.000443477 0)
(0.0246121 0.00080244 0)
(0.0226949 0.00101119 0)
(0.0201467 0.0010843 0)
(0.0172913 0.00105589 0)
(0.0144159 0.000962163 0)
(0.0116966 0.000837604 0)
(0.00926623 0.000704278 0)
(0.00714553 0.000580448 0)
(0.00536368 0.000471743 0)
(0.00385155 0.000386817 0)
(0.00261036 0.000317082 0)
(0.00155285 0.000261776 0)
(0.000735306 0.000184034 0)
(0.00015405 8.22803e-05 0)
(-5.46093e-05 -5.90686e-05 0)
(5.76735e-05 -0.000134488 0)
(0.000304218 -0.000303684 0)
(0.000658732 -0.000361371 0)
(0.000983545 -0.000332577 0)
(0.00123811 -0.000250329 0)
(0.00135043 -0.000136715 0)
(0.00130982 -1.74553e-05 0)
(0.00109274 0.00010234 0)
(0.000697787 0.000219057 0)
(0.000104463 0.000347626 0)
(-0.000717904 0.000503316 0)
(-0.00182675 0.000710073 0)
(-0.00330133 0.000984995 0)
(-0.00523922 0.00134269 0)
(-0.00774789 0.001787 0)
(-0.0109324 0.00231729 0)
(-0.0148885 0.00292585 0)
(-0.0196891 0.00360131 0)
(-0.0253758 0.00432391 0)
(-0.0319401 0.00506475 0)
(-0.0393099 0.00578181 0)
(-0.0473325 0.00642063 0)
(-0.05577 0.00691417 0)
(-0.0643043 0.00718765 0)
(-0.0725583 0.00716576 0)
(-0.0801245 0.00678411 0)
(-0.0865993 0.00599913 0)
(-0.0916114 0.00479606 0)
(-0.0948454 0.00319179 0)
(-0.0960558 0.00123515 0)
(-0.0950765 -0.000995969 0)
(-0.0918239 -0.00339785 0)
(-0.0863019 -0.00584571 0)
(-0.0786034 -0.00819814 0)
(-0.0689156 -0.0103041 0)
(-0.0575208 -0.0120107 0)
(-0.0447987 -0.0131756 0)
(-0.0312175 -0.0136811 0)
(-0.0173241 -0.013452 0)
(-0.00371247 -0.0124714 0)
(0.00900345 -0.0107951 0)
(0.0202498 -0.00855545 0)
(0.0295282 -0.00595273 0)
(0.0364885 -0.00323376 0)
(0.0409432 -0.000653407 0)
(0.0429232 0.0015629 0)
(0.0426345 0.00326207 0)
(0.0404747 0.00437786 0)
(0.0369158 0.00493873 0)
(0.0325007 0.00503581 0)
(0.0276855 0.00480122 0)
(0.0228904 0.00436157 0)
(0.0183462 0.0038342 0)
(0.0142546 0.00329401 0)
(0.0106172 0.00280275 0)
(0.00750565 0.00235896 0)
(0.00481703 0.00196021 0)
(0.00266511 0.00149284 0)
(0.00100793 0.000929256 0)
(0.000118543 0.000173807 0)
(7.52264e-05 -0.000331852 0)
(0.00035673 -0.000655358 0)
(0.000727809 -0.000739117 0)
(0.00101194 -0.000626955 0)
(0.00114974 -0.000392218 0)
(0.00104729 -7.25292e-05 0)
(0.000672856 0.000278343 0)
(-1.76769e-05 0.000652124 0)
(-0.00105284 0.00104402 0)
(-0.0024838 0.0014894 0)
(-0.00438378 0.00202661 0)
(-0.00685915 0.0027112 0)
(-0.0100468 0.00358371 0)
(-0.0140998 0.00467472 0)
(-0.0191752 0.00598762 0)
(-0.0254079 0.0075081 0)
(-0.0328954 0.0091979 0)
(-0.0416696 0.0109988 0)
(-0.0516774 0.0128236 0)
(-0.0627541 0.0145559 0)
(-0.0746192 0.0160496 0)
(-0.0868839 0.017143 0)
(-0.0990893 0.0176777 0)
(-0.110749 0.0175237 0)
(-0.121399 0.0165959 0)
(-0.130626 0.0148626 0)
(-0.138092 0.0123426 0)
(-0.14353 0.00909849 0)
(-0.146746 0.00522833 0)
(-0.147606 0.000859347 0)
(-0.14603 -0.0038567 0)
(-0.141985 -0.00874485 0)
(-0.135492 -0.0136086 0)
(-0.126624 -0.0182309 0)
(-0.11552 -0.0223787 0)
(-0.102394 -0.0258106 0)
(-0.0875502 -0.0282924 0)
(-0.0713849 -0.0296169 0)
(-0.054392 -0.0296319 0)
(-0.0371445 -0.0282676 0)
(-0.0202777 -0.0255648 0)
(-0.00443804 -0.0216873 0)
(0.00975207 -0.0169213 0)
(0.0217693 -0.0116503 0)
(0.0312123 -0.00630862 0)
(0.0378748 -0.00132613 0)
(0.0417221 0.00293699 0)
(0.0429467 0.00623224 0)
(0.0418801 0.00845929 0)
(0.0390281 0.00965495 0)
(0.0349069 0.00997729 0)
(0.0300888 0.00964414 0)
(0.0249898 0.00889914 0)
(0.0200135 0.00794624 0)
(0.015315 0.00695205 0)
(0.0111072 0.00597741 0)
(0.00734566 0.00503135 0)
(0.00423765 0.00395325 0)
(0.00172768 0.00263416 0)
(0.000272451 0.00086867 0)
(7.41031e-05 -0.00052576 0)
(0.000310539 -0.000961479 0)
(0.000566287 -0.00100991 0)
(0.000652338 -0.000734318 0)
(0.000491592 -0.000255081 0)
(-2.13807e-05 0.000381181 0)
(-0.00094517 0.0010956 0)
(-0.00234883 0.00188438 0)
(-0.00430307 0.0027483 0)
(-0.00690362 0.00375195 0)
(-0.0102833 0.00496379 0)
(-0.0146071 0.00647448 0)
(-0.0200701 0.00834407 0)
(-0.0268639 0.0106057 0)
(-0.0351568 0.0132378 0)
(-0.0450489 0.0161763 0)
(-0.0565487 0.0193038 0)
(-0.0695335 0.0224569 0)
(-0.0837405 0.0254206 0)
(-0.0987691 0.0279478 0)
(-0.114127 0.0297861 0)
(-0.129287 0.0307189 0)
(-0.143748 0.030593 0)
(-0.157075 0.0293323 0)
(-0.168918 0.0269306 0)
(-0.179004 0.0234384 0)
(-0.187129 0.0189463 0)
(-0.193134 0.0135736 0)
(-0.196901 0.00746023 0)
(-0.198333 0.000765276 0)
(-0.197355 -0.00633271 0)
(-0.193907 -0.0136308 0)
(-0.187955 -0.0208985 0)
(-0.179494 -0.0278729 0)
(-0.168565 -0.0342607 0)
(-0.155272 -0.0397436 0)
(-0.139803 -0.0439946 0)
(-0.122448 -0.0467029 0)
(-0.103615 -0.0476116 0)
(-0.0838307 -0.0465579 0)
(-0.0637316 -0.0435183 0)
(-0.0440226 -0.0386364 0)
(-0.0254337 -0.0322343 0)
(-0.00863611 -0.0247869 0)
(0.00580068 -0.0168702 0)
(0.0174913 -0.00908693 0)
(0.0262181 -0.00198558 0)
(0.0319869 0.0039996 0)
(0.0349458 0.00860057 0)
(0.0354456 0.0117234 0)
(0.0339014 0.0134511 0)
(0.0308703 0.013996 0)
(0.0268283 0.0136585 0)
(0.0223114 0.012746 0)
(0.0176203 0.0115353 0)
(0.0131329 0.0101872 0)
(0.00890999 0.00875197 0)
(0.0052845 0.00706687 0)
(0.00223193 0.00490477 0)
(0.000382481 0.00189674 0)
(5.68782e-05 -0.000689209 0)
(0.000174084 -0.00115577 0)
(0.00019404 -0.00107863 0)
(-5.95335e-05 -0.000535701 0)
(-0.000685772 0.000305672 0)
(-0.00179457 0.0013982 0)
(-0.00348019 0.00264394 0)
(-0.00584022 0.00405427 0)
(-0.00900115 0.00564576 0)
(-0.0131129 0.00752276 0)
(-0.0183781 0.00978899 0)
(-0.0250167 0.0125657 0)
(-0.0332632 0.0159139 0)
(-0.0433016 0.0198349 0)
(-0.0552409 0.024233 0)
(-0.0690524 0.0289324 0)
(-0.0845555 0.0336705 0)
(-0.101397 0.0381248 0)
(-0.119093 0.04194 0)
(-0.137085 0.0447842 0)
(-0.154825 0.0463924 0)
(-0.171821 0.0465976 0)
(-0.187674 0.0453288 0)
(-0.202073 0.0425966 0)
(-0.214784 0.0384699 0)
(-0.225633 0.0330576 0)
(-0.234489 0.0264921 0)
(-0.241251 0.0189224 0)
(-0.245838 0.0105087 0)
(-0.248177 0.00142443 0)
(-0.2482 -0.00814017 0)
(-0.245835 -0.0179696 0)
(-0.241007 -0.0278157 0)
(-0.233646 -0.0373879 0)
(-0.223694 -0.0463496 0)
(-0.211127 -0.0543177 0)
(-0.19598 -0.060876 0)
(-0.178383 -0.0655992 0)
(-0.158594 -0.0680962 0)
(-0.137028 -0.0680639 0)
(-0.114273 -0.0653534 0)
(-0.0910726 -0.0600248 0)
(-0.0682825 -0.0523844 0)
(-0.0467755 -0.042973 0)
(-0.0273542 -0.0325112 0)
(-0.010628 -0.0217967 0)
(0.00300988 -0.0115908 0)
(0.0134347 -0.00252561 0)
(0.0206927 0.00495841 0)
(0.0250359 0.0106258 0)
(0.0267831 0.01445 0)
(0.0264179 0.0165816 0)
(0.024387 0.01731 0)
(0.0212614 0.0169936 0)
(0.0174208 0.015987 0)
(0.0133655 0.0145536 0)
(0.00926739 0.0127942 0)
(0.00558892 0.0105748 0)
(0.00238267 0.00753676 0)
(0.000410587 0.00313115 0)
(2.5425e-05 -0.000757329 0)
(-5.19663e-05 -0.00110837 0)
(-0.00039402 -0.000777196 0)
(-0.00113507 0.000159935 0)
(-0.00240074 0.00149892 0)
(-0.00429859 0.00320492 0)
(-0.00697044 0.00517318 0)
(-0.0105473 0.00744412 0)
(-0.0152256 0.010062 0)
(-0.0212144 0.0131772 0)
(-0.0287849 0.0169218 0)
(-0.0381878 0.0214217 0)
(-0.0496475 0.0266924 0)
(-0.0632621 0.03264 0)
(-0.078986 0.0390239 0)
(-0.0965707 0.0454938 0)
(-0.115598 0.0516114 0)
(-0.135508 0.0569209 0)
(-0.155698 0.061009 0)
(-0.175586 0.0635661 0)
(-0.194679 0.0644031 0)
(-0.212575 0.0634494 0)
(-0.228974 0.0607254 0)
(-0.243655 0.05632 0)
(-0.256475 0.0503646 0)
(-0.267346 0.0430166 0)
(-0.276229 0.0344437 0)
(-0.28311 0.0248171 0)
(-0.287992 0.0143066 0)
(-0.290872 0.00308377 0)
(-0.291735 -0.00867351 0)
(-0.290533 -0.0207686 0)
(-0.287185 -0.0329742 0)
(-0.281568 -0.0450154 0)
(-0.27353 -0.0565577 0)
(-0.262896 -0.0671961 0)
(-0.249509 -0.0764579 0)
(-0.233258 -0.0838173 0)
(-0.214147 -0.0887356 0)
(-0.192345 -0.0907203 0)
(-0.16825 -0.0894111 0)
(-0.14252 -0.0846696 0)
(-0.116064 -0.0766641 0)
(-0.0899676 -0.0659036 0)
(-0.0653685 -0.0532107 0)
(-0.0432652 -0.0396034 0)
(-0.0243893 -0.0261287 0)
(-0.00908857 -0.013693 0)
(0.00258944 -0.00295462 0)
(0.0108739 0.00570045 0)
(0.0160773 0.0121387 0)
(0.0186602 0.0164373 0)
(0.0190446 0.0188383 0)
(0.0177934 0.0197018 0)
(0.0153168 0.0194108 0)
(0.0121818 0.0183025 0)
(0.00865524 0.0165159 0)
(0.00530047 0.0139522 0)
(0.00226975 0.0101318 0)
(0.000386495 0.0043481 0)
(-2.08766e-05 -0.000701018 0)
(-0.000368874 -0.000741742 0)
(-0.00119578 2.67865e-06 0)
(-0.00256512 0.00148295 0)
(-0.0046359 0.00347891 0)
(-0.00750882 0.00598576 0)
(-0.0113868 0.00890769 0)
(-0.0164377 0.0123281 0)
(-0.0229357 0.0163285 0)
(-0.0311402 0.0211008 0)
(-0.0413672 0.0267805 0)
(-0.0538427 0.0334465 0)
(-0.0687043 0.0409967 0)
(-0.0858732 0.049164 0)
(-0.105077 0.0575029 0)
(-0.125821 0.0654716 0)
(-0.147494 0.0724989 0)
(-0.169421 0.078084 0)
(-0.19098 0.081849 0)
(-0.211621 0.083569 0)
(-0.230917 0.0831564 0)
(-0.248541 0.0806409 0)
(-0.264286 0.0761358 0)
(-0.278036 0.0698142 0)
(-0.28977 0.061879 0)
(-0.299532 0.0525444 0)
(-0.307414 0.0420165 0)
(-0.313527 0.0304859 0)
(-0.317986 0.018122 0)
(-0.320883 0.00507782 0)
(-0.322273 -0.00850272 0)
(-0.322158 -0.0224695 0)
(-0.320474 -0.0366503 0)
(-0.317081 -0.0508276 0)
(-0.311763 -0.0647188 0)
(-0.304228 -0.0779527 0)
(-0.294131 -0.0900577 0)
(-0.281106 -0.100459 0)
(-0.264828 -0.108499 0)
(-0.245097 -0.113492 0)
(-0.221935 -0.114805 0)
(-0.195684 -0.11198 0)
(-0.16708 -0.104875 0)
(-0.137254 -0.0937689 0)
(-0.107639 -0.0794286 0)
(-0.0797524 -0.0630339 0)
(-0.0549348 -0.0459896 0)
(-0.0340605 -0.0296439 0)
(-0.017474 -0.0150449 0)
(-0.00501249 -0.00282949 0)
(0.00371314 0.00674398 0)
(0.00925632 0.0137028 0)
(0.0121073 0.0182618 0)
(0.0128571 0.0207785 0)
(0.0119489 0.0216416 0)
(0.00998404 0.021231 0)
(0.00730507 0.0197049 0)
(0.00453864 0.0169905 0)
(0.00193585 0.0125151 0)
(0.000316381 0.00545808 0)
(-8.53307e-05 -0.000455489 0)
(-0.000788185 7.07181e-05 0)
(-0.00222856 0.00141916 0)
(-0.00436863 0.0036114 0)
(-0.00740976 0.0064439 0)
(-0.0114424 0.00996409 0)
(-0.0167443 0.0141029 0)
(-0.0235195 0.0189968 0)
(-0.0321187 0.0247633 0)
(-0.0428241 0.0316111 0)
(-0.0559468 0.0396255 0)
(-0.0716088 0.0487599 0)
(-0.089774 0.0587124 0)
(-0.110116 0.0689836 0)
(-0.132116 0.0789141 0)
(-0.155071 0.0878195 0)
(-0.178245 0.0950807 0)
(-0.200917 0.100234 0)
(-0.222476 0.102993 0)
(-0.242417 0.103245 0)
(-0.260394 0.101028 0)
(-0.276194 0.0964996 0)
(-0.289756 0.0898922 0)
(-0.301129 0.081484 0)
(-0.310462 0.0715594 0)
(-0.317956 0.0603865 0)
(-0.323845 0.0481972 0)
(-0.328359 0.0351829 0)
(-0.331711 0.0214913 0)
(-0.33407 0.0072364 0)
(-0.33556 -0.0074933 0)
(-0.336235 -0.0226165 0)
(-0.336076 -0.0380428 0)
(-0.334973 -0.053647 0)
(-0.332713 -0.0692451 0)
(-0.328967 -0.084562 0)
(-0.323289 -0.0992049 0)
(-0.315127 -0.112637 0)
(-0.303867 -0.124173 0)
(-0.288901 -0.132995 0)
(-0.269747 -0.13822 0)
(-0.246194 -0.13901 0)
(-0.218471 -0.134744 0)
(-0.187365 -0.125212 0)
(-0.154277 -0.110798 0)
(-0.121082 -0.092561 0)
(-0.0898461 -0.0721399 0)
(-0.062353 -0.051436 0)
(-0.0397262 -0.0321735 0)
(-0.0222214 -0.0155374 0)
(-0.00947599 -0.00207982 0)
(-0.000766479 0.00814628 0)
(0.00460442 0.0153689 0)
(0.00736539 0.0199832 0)
(0.00806023 0.0224014 0)
(0.00733933 0.0230375 0)
(0.00562209 0.0220596 0)
(0.00356882 0.0194089 0)
(0.0015179 0.0144579 0)
(0.000234892 0.00633563 0)
(-0.000169623 2.18963e-05 0)
(-0.00131259 0.00141854 0)
(-0.00348926 0.00358349 0)
(-0.00652958 0.00667015 0)
(-0.0106891 0.0105372 0)
(-0.0160452 0.0153086 0)
(-0.0229614 0.0209585 0)
(-0.0316679 0.0276767 0)
(-0.0425743 0.0355987 0)
(-0.0559347 0.0448983 0)
(-0.0719847 0.0555322 0)
(-0.0906563 0.0672397 0)
(-0.111675 0.079456 0)
(-0.134446 0.0914365 0)
(-0.158233 0.102352 0)
(-0.182178 0.111453 0)
(-0.205481 0.118148 0)
(-0.227407 0.122068 0)
(-0.247397 0.123058 0)
(-0.265049 0.121167 0)
(-0.280176 0.116602 0)
(-0.292756 0.109681 0)
(-0.302936 0.100775 0)
(-0.310958 0.0902617 0)
(-0.317139 0.0784888 0)
(-0.321808 0.0657508 0)
(-0.325295 0.052277 0)
(-0.327888 0.0382346 0)
(-0.329845 0.0237328 0)
(-0.331363 0.00883672 0)
(-0.332597 -0.00642244 0)
(-0.333637 -0.0220298 0)
(-0.334516 -0.0379737 0)
(-0.335186 -0.0542232 0)
(-0.335508 -0.070707 0)
(-0.33522 -0.0872811 0)
(-0.333921 -0.103694 0)
(-0.331037 -0.119544 0)
(-0.325833 -0.134243 0)
(-0.317432 -0.146991 0)
(-0.304906 -0.156787 0)
(-0.287421 -0.162501 0)
(-0.264448 -0.163016 0)
(-0.236006 -0.157453 0)
(-0.202892 -0.145463 0)
(-0.166781 -0.127504 0)
(-0.130103 -0.104983 0)
(-0.0956013 -0.080129 0)
(-0.0656681 -0.0554978 0)
(-0.0416665 -0.033277 0)
(-0.0237646 -0.0147666 0)
(-0.0112156 -0.000335828 0)
(-0.0030211 0.0102353 0)
(0.00183959 0.0174455 0)
(0.00413961 0.021802 0)
(0.00465028 0.0237879 0)
(0.00389933 0.0236033 0)
(0.00257788 0.0212064 0)
(0.00109879 0.0159618 0)
(0.000156886 0.0070011 0)
(-0.000277894 0.000804322 0)
(-0.00195144 0.00342801 0)
(-0.00498431 0.00664015 0)
(-0.00904421 0.0108141 0)
(-0.0144543 0.015929 0)
(-0.0212744 0.0222083 0)
(-0.029958 0.0296782 0)
(-0.0407392 0.0385649 0)
(-0.0540499 0.0489787 0)
(-0.0700474 0.0609802 0)
(-0.0888147 0.0743076 0)
(-0.110025 0.0884136 0)
(-0.133141 0.10245 0)
(-0.157314 0.115464 0)
(-0.181641 0.126528 0)
(-0.205165 0.134904 0)
(-0.227075 0.140098 0)
(-0.246698 0.141904 0)
(-0.26362 0.140369 0)
(-0.277646 0.135763 0)
(-0.288835 0.128499 0)
(-0.29741 0.119066 0)
(-0.303733 0.10795 0)
(-0.308209 0.095592 0)
(-0.311264 0.0823559 0)
(-0.313283 0.0685179 0)
(-0.314611 0.0542679 0)
(-0.315524 0.0397239 0)
(-0.316252 0.0249431 0)
(-0.316966 0.00994044 0)
(-0.317803 -0.00530132 0)
(-0.318855 -0.0208163 0)
(-0.320187 -0.0366484 0)
(-0.321813 -0.0528358 0)
(-0.323699 -0.0693998 0)
(-0.325716 -0.0863195 0)
(-0.327622 -0.103503 0)
(-0.328999 -0.120741 0)
(-0.329221 -0.137649 0)
(-0.327413 -0.153611 0)
(-0.32247 -0.167724 0)
(-0.313128 -0.178791 0)
(-0.298147 -0.185382 0)
(-0.276578 -0.186009 0)
(-0.248132 -0.179424 0)
(-0.213528 -0.165036 0)
(-0.174717 -0.143336 0)
(-0.134762 -0.116155 0)
(-0.0972556 -0.0864934 0)
(-0.0652841 -0.0577615 0)
(-0.040485 -0.0326914 0)
(-0.0227442 -0.0126147 0)
(-0.0109167 0.00239807 0)
(-0.003571 0.0129504 0)
(0.000465775 0.0197464 0)
(0.00221727 0.0234287 0)
(0.00239318 0.0242946 0)
(0.0017483 0.0223525 0)
(0.000771759 0.0170115 0)
(0.000103999 0.00745423 0)
(-0.000409268 0.00194305 0)
(-0.00269455 0.006184 0)
(-0.00668357 0.0106784 0)
(-0.0118543 0.0161316 0)
(-0.0186113 0.0227115 0)
(-0.0269889 0.0307579 0)
(-0.0375251 0.0403456 0)
(-0.0504209 0.0516982 0)
(-0.0660785 0.0648347 0)
(-0.0844827 0.0796094 0)
(-0.1055 0.0954625 0)
(-0.128509 0.111523 0)
(-0.152724 0.126684 0)
(-0.177086 0.139847 0)
(-0.200592 0.150073 0)
(-0.222263 0.15672 0)
(-0.24138 0.159486 0)
(-0.25745 0.15841 0)
(-0.270324 0.153819 0)
(-0.280097 0.146236 0)
(-0.28711 0.136274 0)
(-0.291809 0.124547 0)
(-0.294712 0.111598 0)
(-0.296304 0.0978652 0)
(-0.297027 0.0836675 0)
(-0.297232 0.0692182 0)
(-0.297202 0.0546378 0)
(-0.297135 0.0399808 0)
(-0.297181 0.0252516 0)
(-0.297443 0.0104255 0)
(-0.298005 -0.00454317 0)
(-0.298931 -0.0197096 0)
(-0.300286 -0.0351376 0)
(-0.302121 -0.0508923 0)
(-0.304479 -0.0670398 0)
(-0.307366 -0.0836346 0)
(-0.310724 -0.100705 0)
(-0.314379 -0.118218 0)
(-0.317978 -0.136031 0)
(-0.320908 -0.153811 0)
(-0.322242 -0.17095 0)
(-0.320695 -0.186474 0)
(-0.314697 -0.198989 0)
(-0.302567 -0.206727 0)
(-0.282867 -0.207738 0)
(-0.254884 -0.200283 0)
(-0.219176 -0.183414 0)
(-0.177951 -0.157629 0)
(-0.135007 -0.125299 0)
(-0.0949206 -0.0904542 0)
(-0.0615816 -0.0575932 0)
(-0.0367363 -0.0300096 0)
(-0.0198477 -0.00889568 0)
(-0.00918176 0.00617678 0)
(-0.00301418 0.0161683 0)
(0.000108302 0.0220189 0)
(0.00119948 0.0242437 0)
(0.00115696 0.022979 0)
(0.000571059 0.0177406 0)
(8.08258e-05 0.00779104 0)
(-0.000565261 0.00351015 0)
(-0.00353665 0.0097922 0)
(-0.00856245 0.0158045 0)
(-0.0149087 0.0227262 0)
(-0.0230719 0.0309885 0)
(-0.033047 0.0410516 0)
(-0.0454382 0.0530176 0)
(-0.0603644 0.0670439 0)
(-0.0781387 0.0829739 0)
(-0.0985078 0.100365 0)
(-0.121086 0.118309 0)
(-0.144963 0.135619 0)
(-0.169145 0.15099 0)
(-0.192439 0.163269 0)
(-0.213833 0.171609 0)
(-0.232448 0.175577 0)
(-0.24779 0.175166 0)
(-0.259663 0.170749 0)
(-0.268257 0.162956 0)
(-0.273965 0.152544 0)
(-0.277363 0.140263 0)
(-0.279032 0.126773 0)
(-0.279546 0.112589 0)
(-0.279364 0.0980763 0)
(-0.278858 0.0834618 0)
(-0.278275 0.068864 0)
(-0.277789 0.0543218 0)
(-0.277491 0.0398267 0)
(-0.27744 0.0253404 0)
(-0.27766 0.0108141 0)
(-0.27818 -0.00380722 0)
(-0.279023 -0.0185775 0)
(-0.280236 -0.0335537 0)
(-0.281875 -0.0487949 0)
(-0.284019 -0.0643692 0)
(-0.28675 -0.0803521 0)
(-0.290145 -0.0968271 0)
(-0.29423 -0.113869 0)
(-0.298936 -0.131516 0)
(-0.304011 -0.149708 0)
(-0.308926 -0.168196 0)
(-0.312756 -0.186418 0)
(-0.314116 -0.203353 0)
(-0.311166 -0.21742 0)
(-0.301796 -0.226473 0)
(-0.284025 -0.228012 0)
(-0.256642 -0.219671 0)
(-0.219974 -0.200044 0)
(-0.176502 -0.169635 0)
(-0.130879 -0.131572 0)
(-0.0888427 -0.0912658 0)
(-0.0550486 -0.0545484 0)
(-0.0311116 -0.025144 0)
(-0.0157337 -0.00375766 0)
(-0.00665071 0.0106325 0)
(-0.00180125 0.0193966 0)
(0.000298864 0.0234354 0)
(0.000818504 0.0231479 0)
(0.00050995 0.0182358 0)
(9.11089e-05 0.0080704 0)
(-0.000739159 0.00554547 0)
(-0.00444414 0.0142995 0)
(-0.0105481 0.0220492 0)
(-0.0180884 0.030609 0)
(-0.0276594 0.0407474 0)
(-0.039197 0.0530329 0)
(-0.0533424 0.0675546 0)
(-0.0700779 0.0843235 0)
(-0.0895727 0.102923 0)
(-0.111292 0.122543 0)
(-0.134599 0.141918 0)
(-0.15833 0.15959 0)
(-0.181364 0.174151 0)
(-0.202474 0.184509 0)
(-0.22077 0.190034 0)
(-0.235601 0.190625 0)
(-0.246816 0.186661 0)
(-0.254573 0.178872 0)
(-0.259386 0.16816 0)
(-0.261877 0.155431 0)
(-0.262749 0.141475 0)
(-0.262603 0.1269 0)
(-0.261958 0.112117 0)
(-0.261164 0.0973685 0)
(-0.260466 0.0827612 0)
(-0.259978 0.0683148 0)
(-0.259758 0.0539955 0)
(-0.259799 0.039748 0)
(-0.260082 0.0255105 0)
(-0.260572 0.0112286 0)
(-0.261254 -0.00314507 0)
(-0.262118 -0.0176472 0)
(-0.263188 -0.0323119 0)
(-0.264508 -0.0471723 0)
(-0.266159 -0.0622721 0)
(-0.268245 -0.0776698 0)
(-0.270902 -0.0934489 0)
(-0.274267 -0.109718 0)
(-0.278461 -0.126602 0)
(-0.283521 -0.144219 0)
(-0.28932 -0.162607 0)
(-0.295432 -0.181625 0)
(-0.300992 -0.200778 0)
(-0.304557 -0.219026 0)
(-0.30407 -0.234594 0)
(-0.29701 -0.244919 0)
(-0.280847 -0.246847 0)
(-0.253835 -0.237278 0)
(-0.21606 -0.214246 0)
(-0.17036 -0.178374 0)
(-0.122437 -0.133889 0)
(-0.0793414 -0.0880866 0)
(-0.0463273 -0.0482674 0)
(-0.0243364 -0.0181439 0)
(-0.011105 0.00244717 0)
(-0.00386494 0.0152812 0)
(-0.000483586 0.0218299 0)
(0.000651407 0.0229463 0)
(0.000554597 0.018627 0)
(0.000127149 0.00838693 0)
(-0.000927628 0.00809664 0)
(-0.00539261 0.0197582 0)
(-0.0125819 0.0294491 0)
(-0.0212952 0.0397986 0)
(-0.0322212 0.0519811 0)
(-0.0452108 0.066642 0)
(-0.060905 0.0837994 0)
(-0.0790991 0.103227 0)
(-0.0997811 0.124173 0)
(-0.122125 0.145427 0)
(-0.145275 0.165398 0)
(-0.167889 0.182444 0)
(-0.188823 0.195177 0)
(-0.206939 0.202703 0)
(-0.221599 0.204747 0)
(-0.232487 0.201636 0)
(-0.239835 0.194165 0)
(-0.244128 0.183377 0)
(-0.246118 0.170353 0)
(-0.246535 0.156033 0)
(-0.246084 0.141139 0)
(-0.245279 0.126144 0)
(-0.244509 0.111308 0)
(-0.24397 0.0967303 0)
(-0.24377 0.0824019 0)
(-0.243902 0.0682607 0)
(-0.244332 0.0542234 0)
(-0.244984 0.0402107 0)
(-0.245796 0.0261563 0)
(-0.246698 0.0120138 0)
(-0.247653 -0.00224706 0)
(-0.248631 -0.0166405 0)
(-0.249638 -0.0311738 0)
(-0.250699 -0.0458499 0)
(-0.251878 -0.0606794 0)
(-0.253266 -0.0756865 0)
(-0.254999 -0.0909239 0)
(-0.257244 -0.106481 0)
(-0.260203 -0.122496 0)
(-0.264071 -0.13915 0)
(-0.268995 -0.156642 0)
(-0.274965 -0.175129 0)
(-0.281674 -0.194579 0)
(-0.28832 -0.214584 0)
(-0.293427 -0.234068 0)
(-0.294736 -0.251038 0)
(-0.289335 -0.262428 0)
(-0.274154 -0.264338 0)
(-0.246939 -0.252784 0)
(-0.207621 -0.225266 0)
(-0.159591 -0.182747 0)
(-0.109904 -0.131189 0)
(-0.0670201 -0.0803615 0)
(-0.0362843 -0.0388408 0)
(-0.0172442 -0.00955588 0)
(-0.00660426 0.00905606 0)
(-0.00143105 0.0191693 0)
(0.000514187 0.0223202 0)
(0.000650422 0.0189478 0)
(0.000179735 0.00877838 0)
(-0.00111676 0.0111647 0)
(-0.00632483 0.0261429 0)
(-0.0145536 0.0379449 0)
(-0.0243616 0.0501952 0)
(-0.0365212 0.0645299 0)
(-0.0507698 0.0816231 0)
(-0.0677107 0.101357 0)
(-0.0869144 0.123184 0)
(-0.108174 0.145975 0)
(-0.130392 0.16812 0)
(-0.152564 0.187779 0)
(-0.173261 0.203241 0)
(-0.191436 0.213282 0)
(-0.206159 0.217346 0)
(-0.217142 0.215623 0)
(-0.224438 0.208901 0)
(-0.228631 0.198351 0)
(-0.230435 0.185228 0)
(-0.230718 0.170662 0)
(-0.230186 0.155512 0)
(-0.229447 0.140342 0)
(-0.228858 0.125446 0)
(-0.228647 0.110917 0)
(-0.22886 0.0967229 0)
(-0.229489 0.0827663 0)
(-0.230441 0.0689335 0)
(-0.23163 0.0551195 0)
(-0.232943 0.0412431 0)
(-0.234306 0.0272484 0)
(-0.235637 0.013106 0)
(-0.236894 -0.00119382 0)
(-0.238039 -0.015643 0)
(-0.239069 -0.0302245 0)
(-0.23999 -0.0449146 0)
(-0.240843 -0.0596927 0)
(-0.241689 -0.0745473 0)
(-0.242637 -0.0894895 0)
(-0.243828 -0.104566 0)
(-0.245462 -0.119874 0)
(-0.247779 -0.135585 0)
(-0.251054 -0.151937 0)
(-0.255529 -0.16923 0)
(-0.261317 -0.187739 0)
(-0.268218 -0.207572 0)
(-0.275493 -0.228383 0)
(-0.281605 -0.249049 0)
(-0.284074 -0.267252 0)
(-0.279582 -0.279323 0)
(-0.264534 -0.280423 0)
(-0.236262 -0.265635 0)
(-0.194735 -0.231984 0)
(-0.144299 -0.181367 0)
(-0.0937343 -0.122409 0)
(-0.0528475 -0.0679083 0)
(-0.0259912 -0.0268816 0)
(-0.0106383 -0.000145344 0)
(-0.00290382 0.0150344 0)
(0.000218087 0.0211278 0)
(0.000720522 0.0191902 0)
(0.000234474 0.00927416 0)
(-0.00129891 0.0147471 0)
(-0.00720392 0.0334267 0)
(-0.0163871 0.0474838 0)
(-0.0271702 0.0617154 0)
(-0.0403868 0.0782606 0)
(-0.0556349 0.0977625 0)
(-0.0734466 0.119897 0)
(-0.0931517 0.143731 0)
(-0.11436 0.16774 0)
(-0.135758 0.189962 0)
(-0.156274 0.208416 0)
(-0.174501 0.22146 0)
(-0.1896 0.228184 0)
(-0.200935 0.228486 0)
(-0.208602 0.223074 0)
(-0.212992 0.213165 0)
(-0.214945 0.200204 0)
(-0.215281 0.185522 0)
(-0.214855 0.170173 0)
(-0.214253 0.15484 0)
(-0.213924 0.139886 0)
(-0.214046 0.125411 0)
(-0.2147 0.111363 0)
(-0.215814 0.0976097 0)
(-0.217304 0.0840033 0)
(-0.219031 0.0704093 0)
(-0.220891 0.0567247 0)
(-0.222769 0.0428814 0)
(-0.224592 0.028842 0)
(-0.226286 0.0145962 0)
(-0.227816 0.000153141 0)
(-0.229142 -0.0144617 0)
(-0.230259 -0.0292135 0)
(-0.23116 -0.0440596 0)
(-0.231866 -0.0589572 0)
(-0.23241 -0.0738671 0)
(-0.23286 -0.0887634 0)
(-0.233311 -0.103646 0)
(-0.233916 -0.118558 0)
(-0.234881 -0.133609 0)
(-0.23649 -0.148996 0)
(-0.239072 -0.165031 0)
(-0.242972 -0.182109 0)
(-0.24841 -0.200656 0)
(-0.255296 -0.220903 0)
(-0.262917 -0.242585 0)
(-0.269636 -0.264417 0)
(-0.272684 -0.283665 0)
(-0.268279 -0.295791 0)
(-0.252335 -0.294874 0)
(-0.221906 -0.274939 0)
(-0.177427 -0.232962 0)
(-0.124732 -0.172733 0)
(-0.0748461 -0.106935 0)
(-0.0382119 -0.0514403 0)
(-0.0165507 -0.0134983 0)
(-0.00526218 0.00875487 0)
(-0.000422266 0.0190516 0)
(0.000692098 0.0192293 0)
(0.000279664 0.00984293 0)
(-0.00145539 0.0187849 0)
(-0.00796135 0.0414944 0)
(-0.0179603 0.0579063 0)
(-0.029546 0.0741414 0)
(-0.0435862 0.0928686 0)
(-0.0595194 0.114637 0)
(-0.0777846 0.138864 0)
(-0.0974767 0.164188 0)
(-0.118058 0.188719 0)
(-0.138069 0.21022 0)
(-0.156465 0.226697 0)
(-0.171958 0.23672 0)
(-0.183996 0.239816 0)
(-0.192275 0.236406 0)
(-0.197252 0.227701 0)
(-0.199567 0.215255 0)
(-0.200197 0.200652 0)
(-0.199945 0.185162 0)
(-0.199559 0.169666 0)
(-0.199451 0.15462 0)
(-0.199894 0.14017 0)
(-0.200907 0.126251 0)
(-0.20246 0.112702 0)
(-0.204405 0.0993337 0)
(-0.206626 0.0859806 0)
(-0.208971 0.0725131 0)
(-0.211344 0.0588466 0)
(-0.213639 0.0449334 0)
(-0.215802 0.0307574 0)
(-0.21777 0.0163259 0)
(-0.219517 0.00166352 0)
(-0.221008 -0.0131915 0)
(-0.222238 -0.0281922 0)
(-0.223192 -0.0432844 0)
(-0.22388 -0.0584109 0)
(-0.224312 -0.0735148 0)
(-0.224524 -0.0885444 0)
(-0.224566 -0.103464 0)
(-0.224535 -0.118264 0)
(-0.224571 -0.132989 0)
(-0.224899 -0.147756 0)
(-0.225819 -0.162807 0)
(-0.227728 -0.178514 0)
(-0.23105 -0.195408 0)
(-0.236122 -0.214049 0)
(-0.24293 -0.234838 0)
(-0.250755 -0.257498 0)
(-0.257778 -0.280533 0)
(-0.260829 -0.300485 0)
(-0.255604 -0.311732 0)
(-0.237532 -0.306929 0)
(-0.203733 -0.279205 0)
(-0.155643 -0.226208 0)
(-0.10151 -0.155395 0)
(-0.0547594 -0.0851536 0)
(-0.0247762 -0.032446 0)
(-0.00882744 -0.00048607 0)
(-0.00155982 0.0156595 0)
(0.000506867 0.0188825 0)
(0.000305243 0.0104361 0)
(-0.00157814 0.0232125 0)
(-0.00856318 0.0502368 0)
(-0.0192084 0.0690778 0)
(-0.0313955 0.0873059 0)
(-0.0459931 0.108134 0)
(-0.0622714 0.131961 0)
(-0.0805668 0.157901 0)
(-0.0997678 0.184156 0)
(-0.11924 0.208522 0)
(-0.137459 0.228591 0)
(-0.15349 0.242494 0)
(-0.166243 0.249138 0)
(-0.175489 0.248578 0)
(-0.181245 0.241769 0)
(-0.184251 0.230352 0)
(-0.18529 0.216089 0)
(-0.18536 0.200564 0)
(-0.185156 0.18488 0)
(-0.185263 0.169682 0)
(-0.185908 0.155185 0)
(-0.187209 0.141349 0)
(-0.189066 0.127979 0)
(-0.191381 0.114854 0)
(-0.193975 0.101763 0)
(-0.196728 0.0885506 0)
(-0.199501 0.0751069 0)
(-0.202216 0.0613726 0)
(-0.204789 0.0473218 0)
(-0.207179 0.0329567 0)
(-0.209338 0.0182986 0)
(-0.211248 0.00338285 0)
(-0.212879 -0.0117441 0)
(-0.214226 -0.0270282 0)
(-0.215272 -0.0424088 0)
(-0.216021 -0.0578212 0)
(-0.216468 -0.0731993 0)
(-0.21663 -0.0884763 0)
(-0.216525 -0.103594 0)
(-0.216202 -0.118506 0)
(-0.215739 -0.133202 0)
(-0.215279 -0.147717 0)
(-0.215041 -0.162198 0)
(-0.215363 -0.176912 0)
(-0.21669 -0.192344 0)
(-0.21954 -0.209134 0)
(-0.224339 -0.228053 0)
(-0.231125 -0.249589 0)
(-0.239102 -0.273467 0)
(-0.246138 -0.297672 0)
(-0.248554 -0.317799 0)
(-0.241396 -0.326615 0)
(-0.219812 -0.315233 0)
(-0.181357 -0.276183 0)
(-0.129568 -0.209412 0)
(-0.075875 -0.128853 0)
(-0.0357932 -0.0588583 0)
(-0.0138053 -0.0136411 0)
(-0.00332667 0.0103761 0)
(0.000135958 0.0178897 0)
(0.000304524 0.0109704 0)
(-0.00164926 0.0279087 0)
(-0.00894877 0.0594564 0)
(-0.0200305 0.0807552 0)
(-0.032585 0.100903 0)
(-0.047448 0.123665 0)
(-0.063725 0.149247 0)
(-0.081653 0.176446 0)
(-0.0999586 0.203052 0)
(-0.117969 0.226623 0)
(-0.134171 0.244696 0)
(-0.147805 0.255651 0)
(-0.158021 0.258827 0)
(-0.164911 0.254844 0)
(-0.168756 0.245143 0)
(-0.170486 0.231688 0)
(-0.170918 0.216309 0)
(-0.170982 0.200471 0)
(-0.17121 0.185039 0)
(-0.172014 0.170404 0)
(-0.173452 0.15656 0)
(-0.175529 0.143321 0)
(-0.178072 0.130416 0)
(-0.180955 0.117598 0)
(-0.183997 0.104667 0)
(-0.187099 0.0914912 0)
(-0.190141 0.0779879 0)
(-0.19307 0.0641227 0)
(-0.195817 0.0498881 0)
(-0.198359 0.0353009 0)
(-0.200651 0.0203915 0)
(-0.202684 0.00520336 0)
(-0.204428 -0.010212 0)
(-0.20588 -0.0257953 0)
(-0.207022 -0.0414821 0)
(-0.207856 -0.0572031 0)
(-0.208372 -0.072888 0)
(-0.208578 -0.0884626 0)
(-0.208474 -0.103859 0)
(-0.208082 -0.119009 0)
(-0.207432 -0.133868 0)
(-0.206599 -0.148409 0)
(-0.205711 -0.162691 0)
(-0.205003 -0.176855 0)
(-0.204834 -0.19126 0)
(-0.205719 -0.20646 0)
(-0.208258 -0.223324 0)
(-0.21296 -0.242754 0)
(-0.219862 -0.265417 0)
(-0.227957 -0.290739 0)
(-0.234673 -0.316021 0)
(-0.235591 -0.335247 0)
(-0.225183 -0.339241 0)
(-0.198459 -0.317376 0)
(-0.154456 -0.262753 0)
(-0.099813 -0.180587 0)
(-0.0503511 -0.0944529 0)
(-0.0202303 -0.0319659 0)
(-0.00587972 0.0026071 0)
(-0.000428325 0.0159303 0)
(0.000272297 0.0113678 0)
(-0.00166567 0.0327555 0)
(-0.00910316 0.0689852 0)
(-0.0203988 0.0927572 0)
(-0.0330808 0.114733 0)
(-0.0479187 0.139235 0)
(-0.06387 0.166252 0)
(-0.0810855 0.19427 0)
(-0.0981843 0.220702 0)
(-0.114509 0.242966 0)
(-0.128625 0.258651 0)
(-0.139989 0.266488 0)
(-0.147998 0.266312 0)
(-0.153028 0.259295 0)
(-0.155549 0.247282 0)
(-0.156582 0.232429 0)
(-0.156893 0.216514 0)
(-0.157284 0.2008 0)
(-0.158109 0.185881 0)
(-0.159623 0.171907 0)
(-0.161757 0.158693 0)
(-0.164442 0.14596 0)
(-0.167473 0.133397 0)
(-0.17073 0.120768 0)
(-0.174047 0.107896 0)
(-0.177353 0.0946819 0)
(-0.18055 0.081068 0)
(-0.183607 0.0670403 0)
(-0.186467 0.0526041 0)
(-0.189114 0.0377854 0)
(-0.191509 0.0226201 0)
(-0.193642 0.00715644 0)
(-0.195483 -0.00855051 0)
(-0.197029 -0.0244369 0)
(-0.19826 -0.0404352 0)
(-0.199179 -0.0564719 0)
(-0.199776 -0.0724749 0)