/*--------------------------------*- C++ -*----------------------------------*\
| =========                 |                                                 |
| \\      /  F ield         | OpenFOAM: The Open Source CFD Toolbox           |
|  \\    /   O peration     | Version:  2406                                  |
|   \\  /    A nd           | Website:  www.openfoam.com                      |
|    \\/     M anipulation  |                                                 |
\*---------------------------------------------------------------------------*/
FoamFile
{
    version     2.0;
    format      ascii;
    arch        "LSB;label=32;scalar=64";
    class       surfaceScalarField;
    location    "8.7";
    object      phi;
}
// * * * * * * * * * * * * * * * * * * * * * * * * * * * * * * * * * * * * * //

dimensions      [0 3 -1 0 0 0 0];

oriented        oriented;

internalField   nonuniform List<scalar> 
28560
(
4.73749e-09
-4.73338e-09
3.6513e-09
1.08617e-09
-8.3456e-09
1.19972e-08
-3.15227e-08
2.31771e-08
-6.44272e-08
3.29045e-08
-1.05136e-07
4.07089e-08
-1.51777e-07
4.66411e-08
-2.02735e-07
5.09574e-08
-2.56703e-07
5.39684e-08
-3.12673e-07
5.59704e-08
-3.69895e-07
5.72216e-08
-4.27829e-07
5.79346e-08
-4.86107e-07
5.82777e-08
-5.44487e-07
5.83795e-08
-6.02822e-07
5.83355e-08
-6.61036e-07
5.82138e-08
-7.19097e-07
5.8061e-08
-7.77004e-07
5.79073e-08
-8.34775e-07
5.77706e-08
-8.92435e-07
5.76599e-08
-9.50012e-07
5.75778e-08
-1.00754e-06
5.75226e-08
-1.06502e-06
5.74897e-08
-1.1225e-06
5.74729e-08
-1.17996e-06
5.74648e-08
-1.23742e-06
5.74573e-08
-1.29486e-06
5.74422e-08
-1.35227e-06
5.7411e-08
-1.40963e-06
5.73553e-08
-1.46689e-06
5.72665e-08
-1.52403e-06
5.7136e-08
-1.58099e-06
5.69553e-08
-1.6377e-06
5.67156e-08
-1.69411e-06
5.64079e-08
-1.75013e-06
5.60235e-08
-1.80569e-06
5.5553e-08
-1.86067e-06
5.49875e-08
-1.91499e-06
5.43175e-08
-1.96852e-06
5.35338e-08
-2.02115e-06
5.26272e-08
-2.07274e-06
5.15884e-08
-2.12315e-06
5.04087e-08
-2.17223e-06
4.90793e-08
-2.21982e-06
4.75921e-08
-2.26576e-06
4.59394e-08
-2.30987e-06
4.41142e-08
-2.35198e-06
4.21102e-08
-2.39191e-06
3.99222e-08
-2.42945e-06
3.7546e-08
-2.46443e-06
3.49787e-08
-2.49665e-06
3.22185e-08
-2.52592e-06
2.92654e-08
-2.55204e-06
2.6121e-08
-2.57482e-06
2.27883e-08
-2.5941e-06
1.92727e-08
-2.60968e-06
1.5581e-08
-2.6214e-06
1.17223e-08
-2.62911e-06
7.70775e-09
-2.63266e-06
3.55253e-09
-2.63192e-06
-7.38748e-10
-2.62679e-06
-5.13028e-09
-2.61717e-06
-9.61775e-09
-2.603e-06
-1.41754e-08
-2.58422e-06
-1.87809e-08
-2.56081e-06
-2.34103e-08
-2.53277e-06
-2.8038e-08
-2.50013e-06
-3.26376e-08
-2.46295e-06
-3.7182e-08
-2.42131e-06
-4.16433e-08
-2.37531e-06
-4.59938e-08
-2.32511e-06
-5.02057e-08
-2.27085e-06
-5.42519e-08
-2.21275e-06
-5.81059e-08
-2.15101e-06
-6.17428e-08
-2.08587e-06
-6.5139e-08
-2.01759e-06
-6.82728e-08
-1.94647e-06
-7.11247e-08
-1.87279e-06
-7.36778e-08
-1.79687e-06
-7.59177e-08
-1.71904e-06
-7.78328e-08
-1.63963e-06
-7.94148e-08
-1.55897e-06
-8.0658e-08
-1.47741e-06
-8.15601e-08
-1.39529e-06
-8.21218e-08
-1.31294e-06
-8.23464e-08
-1.2307e-06
-8.22403e-08
-1.14889e-06
-8.18121e-08
-1.06782e-06
-8.10727e-08
-9.87781e-07
-8.00349e-08
-9.09068e-07
-7.87129e-08
-8.31946e-07
-7.71222e-08
-7.56667e-07
-7.52785e-08
-6.83469e-07
-7.31982e-08
-6.12572e-07
-7.08971e-08
-5.44181e-07
-6.83906e-08
-4.78488e-07
-6.56927e-08
-4.15672e-07
-6.28164e-08
-3.55899e-07
-5.97726e-08
-2.99329e-07
-5.65706e-08
-2.46111e-07
-5.32175e-08
-1.96393e-07
-4.97182e-08
-1.50317e-07
-4.60759e-08
-1.08025e-07
-4.22919e-08
-6.96588e-08
-3.83665e-08
-3.53595e-08
-3.42993e-08
-5.26886e-09
-3.00906e-08
2.04734e-08
-2.57422e-08
4.17333e-08
-2.12599e-08
5.8389e-08
-1.66557e-08
7.03408e-08
-1.19519e-08
7.75272e-08
-7.18639e-09
7.99648e-08
-2.43757e-09
7.76984e-08
2.26636e-09
7.09644e-08
6.73408e-09
6.02884e-08
1.0676e-08
4.64914e-08
1.37969e-08
3.09688e-08
1.55226e-08
1.58932e-08
1.50756e-08
4.57517e-09
1.1318e-08
4.57517e-09
-1.12894e-09
-3.60444e-09
-1.96966e-08
1.9654e-08
-6.4016e-08
5.63167e-08
-1.34122e-07
9.32825e-08
-2.27258e-07
1.2604e-07
-3.39553e-07
1.53004e-07
-4.67013e-07
1.74101e-07
-6.05997e-07
1.89941e-07
-7.53417e-07
2.01389e-07
-9.06778e-07
2.09332e-07
-1.06414e-06
2.14584e-07
-1.22405e-06
2.17843e-07
-1.38545e-06
2.19676e-07
-1.5476e-06
2.20533e-07
-1.71002e-06
2.20755e-07
-1.8724e-06
2.20593e-07
-2.03456e-06
2.20225e-07
-2.19643e-06
2.19771e-07
-2.35796e-06
2.19306e-07
-2.51918e-06
2.18875e-07
-2.6801e-06
2.18496e-07
-2.84074e-06
2.1817e-07
-3.00114e-06
2.17888e-07
-3.1613e-06
2.17631e-07
-3.32121e-06
2.17378e-07
-3.48086e-06
2.17103e-07
-3.64019e-06
2.16777e-07
-3.79916e-06
2.16373e-07
-3.95766e-06
2.1586e-07
-4.1156e-06
2.1521e-07
-4.27286e-06
2.14392e-07
-4.42928e-06
2.13375e-07
-4.58469e-06
2.12129e-07
-4.73891e-06
2.10622e-07
-4.89171e-06
2.08823e-07
-5.04286e-06
2.067e-07
-5.19209e-06
2.0422e-07
-5.33912e-06
2.01352e-07
-5.48365e-06
1.98062e-07
-5.62534e-06
1.94321e-07
-5.76385e-06
1.90095e-07
-5.8988e-06
1.85355e-07
-6.02979e-06
1.80072e-07
-6.15642e-06
1.74218e-07
-6.27825e-06
1.67769e-07
-6.39483e-06
1.60702e-07
-6.50572e-06
1.52997e-07
-6.61044e-06
1.44639e-07
-6.70851e-06
1.35614e-07
-6.79944e-06
1.25916e-07
-6.88276e-06
1.15541e-07
-6.95799e-06
1.04493e-07
-7.02465e-06
9.27792e-08
-7.08228e-06
8.04147e-08
-7.13042e-06
6.74204e-08
-7.16867e-06
5.38239e-08
-7.1966e-06
3.96596e-08
-7.21387e-06
2.49692e-08
-7.22012e-06
9.80144e-09
-7.21506e-06
-5.79061e-09
-7.19845e-06
-2.17429e-08
-7.17008e-06
-3.79864e-08
-7.12981e-06
-5.44487e-08
-7.07754e-06
-7.10496e-08
-7.01325e-06
-8.77046e-08
-6.93696e-06
-1.04325e-07
-6.84878e-06
-1.2082e-07
-6.74886e-06
-1.37095e-07
-6.63745e-06
-1.53055e-07
-6.51484e-06
-1.68605e-07
-6.3814e-06
-1.8365e-07
-6.23755e-06
-1.98098e-07
-6.08379e-06
-2.11861e-07
-5.92068e-06
-2.24853e-07
-5.74883e-06
-2.36995e-07
-5.56889e-06
-2.48215e-07
-5.38156e-06
-2.58447e-07
-5.18761e-06
-2.67635e-07
-4.98779e-06
-2.75731e-07
-4.78293e-06
-2.82696e-07
-4.57384e-06
-2.88502e-07
-4.36137e-06
-2.93131e-07
-4.14636e-06
-2.96575e-07
-3.92964e-06
-2.98835e-07
-3.71206e-06
-2.99924e-07
-3.49444e-06
-2.99861e-07
-3.27758e-06
-2.98674e-07
-3.06226e-06
-2.964e-07
-2.84921e-06
-2.9308e-07
-2.63916e-06
-2.8876e-07
-2.4328e-06
-2.83489e-07
-2.23075e-06
-2.77321e-07
-2.03365e-06
-2.70306e-07
-1.84205e-06
-2.62496e-07
-1.6565e-06
-2.5394e-07
-1.47751e-06
-2.44681e-07
-1.30556e-06
-2.34761e-07
-1.14112e-06
-2.24213e-07
-9.84631e-07
-2.13064e-07
-8.36513e-07
-2.01335e-07
-6.97191e-07
-1.8904e-07
-5.67081e-07
-1.76186e-07
-4.46599e-07
-1.62774e-07
-3.3616e-07
-1.48805e-07
-2.36182e-07
-1.34278e-07
-1.47078e-07
-1.19194e-07
-6.92542e-08
-1.03566e-07
-3.09101e-09
-8.74231e-08
5.10719e-08
-7.08186e-08
9.29672e-08
-5.38471e-08
1.22443e-07
-3.66619e-08
1.39505e-07
-1.95001e-08
1.44456e-07
-2.68457e-09
1.38008e-07
1.31826e-08
1.21334e-07
2.735e-08
9.6469e-08
3.86616e-08
6.65225e-08
4.5469e-08
3.60528e-08
4.55454e-08
1.12442e-08
3.61265e-08
1.58194e-08
-1.25075e-08
8.90335e-09
-5.79205e-08
6.50671e-08
-1.40021e-07
1.38417e-07
-2.57825e-07
2.11087e-07
-4.0769e-07
2.75906e-07
-5.84737e-07
3.30051e-07
-7.83826e-07
3.7319e-07
-1.00013e-06
4.06248e-07
-1.22943e-06
4.30689e-07
-1.46821e-06
4.48105e-07
-1.71363e-06
4.6001e-07
-1.96353e-06
4.67737e-07
-2.21625e-06
4.72401e-07
-2.47062e-06
4.74899e-07
-2.72579e-06
4.75928e-07
-2.98121e-06
4.76012e-07
-3.23651e-06
4.7553e-07
-3.49149e-06
4.74745e-07
-3.74601e-06
4.7383e-07
-4.00002e-06
4.72887e-07
-4.2535e-06
4.7197e-07
-4.50642e-06
4.71092e-07
-4.75878e-06
4.70244e-07
-5.01054e-06
4.69396e-07
-5.26167e-06
4.68507e-07
-5.5121e-06
4.67529e-07
-5.76173e-06
4.66407e-07
-6.01044e-06
4.65085e-07
-6.25808e-06
4.63503e-07
-6.50447e-06
4.61603e-07
-6.7494e-06
4.59321e-07
-6.99262e-06
4.56595e-07
-7.23386e-06
4.53363e-07
-7.47279e-06
4.49561e-07
-7.70909e-06
4.45124e-07
-7.94238e-06
4.39986e-07
-8.17224e-06
4.34083e-07
-8.39824e-06
4.2735e-07
-8.6199e-06
4.19721e-07
-8.83671e-06
4.11134e-07
-9.04814e-06
4.01525e-07
-9.25363e-06
3.90836e-07
-9.45256e-06
3.7901e-07
-9.64434e-06
3.65993e-07
-9.82831e-06
3.51739e-07
-1.00038e-05
3.36204e-07
-1.01702e-05
3.19352e-07
-1.03267e-05
3.01156e-07
-1.04727e-05
2.81594e-07
-1.06074e-05
2.60658e-07
-1.07302e-05
2.38346e-07
-1.08404e-05
2.14669e-07
-1.09373e-05
1.8965e-07
-1.10202e-05
1.63324e-07
-1.10885e-05
1.3574e-07
-1.11416e-05
1.06958e-07
-1.1179e-05
7.70547e-08
-1.12002e-05
4.61189e-08
-1.12046e-05
1.42531e-08
-1.1192e-05
-1.84246e-08
-1.11619e-05
-5.17882e-08
-1.11142e-05
-8.56932e-08
-1.10487e-05
-1.19988e-07
-1.09652e-05
-1.5451e-07
-1.08638e-05
-1.89086e-07
-1.07446e-05
-2.23538e-07
-1.06078e-05
-2.57681e-07
-1.04535e-05
-2.91326e-07
-1.02823e-05
-3.24284e-07
-1.00946e-05
-3.56363e-07
-9.89083e-06
-3.87377e-07
-9.67179e-06
-4.17142e-07
-9.43816e-06
-4.45484e-07
-9.19078e-06
-4.72235e-07
-8.93054e-06
-4.97241e-07
-8.65839e-06
-5.20358e-07
-8.37538e-06
-5.41461e-07
-8.08258e-06
-5.60437e-07
-7.78111e-06
-5.77196e-07
-7.47214e-06
-5.91661e-07
-7.15687e-06
-6.03779e-07
-6.83648e-06
-6.13515e-07
-6.5122e-06
-6.20855e-07
-6.18524e-06
-6.25801e-07
-5.85678e-06
-6.28377e-07
-5.52802e-06
-6.28623e-07
-5.2001e-06
-6.26594e-07
-4.87414e-06
-6.22359e-07
-4.55122e-06
-6.16e-07
-4.23238e-06
-6.07604e-07
-3.9186e-06
-5.97269e-07
-3.61083e-06
-5.85093e-07
-3.30996e-06
-5.71176e-07
-3.01684e-06
-5.55614e-07
-2.73228e-06
-5.385e-07
-2.45704e-06
-5.19918e-07
-2.19186e-06
-4.9994e-07
-1.93744e-06
-4.78631e-07
-1.69447e-06
-4.56037e-07
-1.46361e-06
-4.32194e-07
-1.24553e-06
-4.07125e-07
-1.04087e-06
-3.80839e-07
-8.50312e-07
-3.53337e-07
-6.74502e-07
-3.24616e-07
-5.14105e-07
-2.94674e-07
-3.69778e-07
-2.63521e-07
-2.42155e-07
-2.3119e-07
-1.31828e-07
-1.9775e-07
-3.93148e-08
-1.63332e-07
3.49885e-08
-1.2815e-07
9.08728e-08
-9.25463e-08
1.28402e-07
-5.70291e-08
1.48064e-07
-2.23464e-08
1.50866e-07
1.03806e-08
1.38558e-07
3.96575e-08
1.13925e-07
6.32945e-08
8.10276e-08
7.83666e-08
4.55275e-08
8.10455e-08
1.49691e-08
6.66849e-08
3.07885e-08
-2.4937e-08
3.38404e-08
-9.9068e-08
1.39198e-07
-2.20639e-07
2.59988e-07
-3.86088e-07
3.76535e-07
-5.90357e-07
4.80175e-07
-8.27617e-07
5.6731e-07
-1.09193e-06
6.37503e-07
-1.37772e-06
6.92038e-07
-1.68004e-06
7.33011e-07
-1.9947e-06
7.62767e-07
-2.31828e-06
7.83583e-07
-2.64805e-06
7.97507e-07
-2.98192e-06
8.06278e-07
-3.31835e-06
8.11323e-07
-3.65618e-06
8.13764e-07
-3.99463e-06
8.1446e-07
-4.33314e-06
8.1404e-07
-4.67135e-06
8.12953e-07
-5.00902e-06
8.11499e-07
-5.346e-06
8.09866e-07
-5.68218e-06
8.08155e-07
-6.0175e-06
8.06405e-07
-6.35186e-06
8.04611e-07
-6.6852e-06
8.02734e-07
-7.01741e-06
8.00716e-07
-7.34836e-06
7.98481e-07
-7.6779e-06
7.95947e-07
-8.00584e-06
7.93023e-07
-8.33195e-06
7.89615e-07
-8.65597e-06
7.85624e-07
-8.9776e-06
7.80951e-07
-9.2965e-06
7.75494e-07
-9.61229e-06
7.69151e-07
-9.92454e-06
7.61817e-07
-1.02328e-05
7.53387e-07
-1.05366e-05
7.43756e-07
-1.08353e-05
7.32817e-07
-1.11284e-05
7.20467e-07
-1.14153e-05
7.06601e-07
-1.16953e-05
6.91118e-07
-1.19677e-05
6.73919e-07
-1.22318e-05
6.54911e-07
-1.24868e-05
6.34005e-07
-1.27319e-05
6.1112e-07
-1.29663e-05
5.86183e-07
-1.31893e-05
5.59132e-07
-1.33998e-05
5.29913e-07
-1.35971e-05
4.98488e-07
-1.37804e-05
4.64833e-07
-1.39487e-05
4.28938e-07
-1.41011e-05
3.90811e-07
-1.42369e-05
3.50479e-07
-1.43553e-05
3.07987e-07
-1.44554e-05
2.63401e-07
-1.45364e-05
2.16809e-07
-1.45978e-05
1.68319e-07
-1.46388e-05
1.18063e-07
-1.46589e-05
6.61915e-08
-1.46575e-05
1.28803e-08
-1.46342e-05
-4.1676e-08
-1.45888e-05
-9.72622e-08
-1.45208e-05
-1.53644e-07
-1.44302e-05
-2.10571e-07
-1.4317e-05
-2.67775e-07
-1.41811e-05
-3.24979e-07
-1.40227e-05
-3.8189e-07
-1.38422e-05
-4.38212e-07
-1.36399e-05
-4.93641e-07
-1.34163e-05
-5.47873e-07
-1.31721e-05
-6.00604e-07
-1.29079e-05
-6.51538e-07
-1.26246e-05
-7.00383e-07
-1.23233e-05
-7.46864e-07
-1.20048e-05
-7.90717e-07
-1.16703e-05
-8.31699e-07
-1.13211e-05
-8.69587e-07
-1.09584e-05
-9.04182e-07
-1.05835e-05
-9.35314e-07
-1.01979e-05
-9.62837e-07
-9.80288e-06
-9.86639e-07
-9.40003e-06
-1.00663e-06
-8.99077e-06
-1.02277e-06
-8.57659e-06
-1.03503e-06
-8.15897e-06
-1.04342e-06
-7.73936e-06
-1.04798e-06
-7.31922e-06
-1.04877e-06
-6.89994e-06
-1.04587e-06
-6.48289e-06
-1.03941e-06
-6.06939e-06
-1.0295e-06
-5.66071e-06
-1.01628e-06
-5.25807e-06
-9.99911e-07
-4.86263e-06
-9.80535e-07
-4.47549e-06
-9.58311e-07
-4.09772e-06
-9.33386e-07
-3.73032e-06
-9.05902e-07
-3.37425e-06
-8.75985e-07
-3.03044e-06
-8.43746e-07
-2.6998e-06
-8.09276e-07
-2.38319e-06
-7.72646e-07
-2.08148e-06
-7.33903e-07
-1.79553e-06
-6.93077e-07
-1.52619e-06
-6.50177e-07
-1.27433e-06
-6.05199e-07
-1.04081e-06
-5.58139e-07
-8.26487e-07
-5.08993e-07
-6.32225e-07
-4.57783e-07
-4.58842e-07
-4.04573e-07
-3.071e-07
-3.49492e-07
-1.77656e-07
-2.92776e-07
-7.10022e-08
-2.34804e-07
1.26122e-08
-1.76161e-07
7.32906e-08
-1.17708e-07
1.11627e-07
-6.06832e-08
1.28837e-07
-6.8293e-09
1.2703e-07
4.14647e-08
1.09375e-07
8.09495e-08
8.04139e-08
1.07328e-07
4.63724e-08
1.15087e-07
1.56018e-08
9.74554e-08
4.63903e-08
-3.68147e-08
7.0655e-08
-1.38991e-07
2.41374e-07
-2.99315e-07
4.20312e-07
-5.11008e-07
5.88228e-07
-7.67129e-07
7.36296e-07
-1.06071e-06
8.60895e-07
-1.38507e-06
9.61858e-07
-1.73404e-06
1.04101e-06
-2.10218e-06
1.10116e-06
-2.48486e-06
1.14545e-06
-2.87824e-06
1.17696e-06
-3.27924e-06
1.1985e-06
-3.68544e-06
1.21248e-06
-4.09499e-06
1.22088e-06
-4.50652e-06
1.22529e-06
-4.91902e-06
1.22696e-06
-5.33177e-06
1.22679e-06
-5.74426e-06
1.22544e-06
-6.15614e-06
1.22337e-06
-6.56714e-06
1.22087e-06
-6.97708e-06
1.2181e-06
-7.3858e-06
1.21512e-06
-7.79315e-06
1.21196e-06
-8.19898e-06
1.20856e-06
-8.60312e-06
1.20485e-06
-9.00537e-06
1.20073e-06
-9.40551e-06
1.19609e-06
-9.80327e-06
1.19078e-06
-1.01983e-05
1.18469e-06
-1.05904e-05
1.17767e-06
-1.0979e-05
1.16958e-06
-1.13638e-05
1.16027e-06
-1.17442e-05
1.1496e-06
-1.21198e-05
1.13741e-06
-1.249e-05
1.12355e-06
-1.28541e-05
1.10788e-06
-1.32116e-05
1.09024e-06
-1.35616e-05
1.07048e-06
-1.39034e-05
1.04846e-06
-1.42363e-05
1.02403e-06
-1.45595e-05
9.97051e-07
-1.4872e-05
9.67401e-07
-1.51729e-05
9.34955e-07
-1.54614e-05
8.99603e-07
-1.57364e-05
8.61248e-07
-1.59971e-05
8.19808e-07
-1.62424e-05
7.75217e-07
-1.64714e-05
7.27429e-07
-1.6683e-05
6.76421e-07
-1.68762e-05
6.2219e-07
-1.70502e-05
5.6476e-07
-1.72039e-05
5.04182e-07
-1.73364e-05
4.40533e-07
-1.74469e-05
3.73921e-07
-1.75346e-05
3.04485e-07
-1.75987e-05
2.32392e-07
-1.76385e-05
1.57842e-07
-1.76533e-05
8.10647e-08
-1.76428e-05
2.32058e-09
-1.76063e-05
-7.81016e-08
-1.75437e-05
-1.59885e-07
-1.74547e-05
-2.42689e-07
-1.73391e-05
-3.26146e-07
-1.7197e-05
-4.09873e-07
-1.70285e-05
-4.93466e-07
-1.68339e-05
-5.7651e-07
-1.66135e-05
-6.58579e-07
-1.63679e-05
-7.39242e-07
-1.60977e-05
-8.18067e-07
-1.58037e-05
-8.94626e-07
-1.54867e-05
-9.685e-07
-1.51478e-05
-1.03928e-06
-1.47881e-05
-1.10659e-06
-1.44088e-05
-1.17004e-06
-1.40112e-05
-1.22931e-06
-1.35967e-05
-1.28409e-06
-1.31668e-05
-1.3341e-06
-1.2723e-05
-1.37911e-06
-1.22669e-05
-1.41891e-06
-1.18002e-05
-1.45336e-06
-1.13245e-05
-1.48234e-06
-1.08415e-05
-1.50578e-06
-1.03528e-05
-1.52367e-06
-9.86025e-06
-1.536e-06
-9.36538e-06
-1.54285e-06
-8.86986e-06
-1.54429e-06
-8.37526e-06
-1.54047e-06
-7.88315e-06
-1.53152e-06
-7.39501e-06
-1.51764e-06
-6.91228e-06
-1.49901e-06
-6.43635e-06
-1.47584e-06
-5.96853e-06
-1.44835e-06
-5.51009e-06
-1.41675e-06
-5.06224e-06
-1.38124e-06
-4.62612e-06
-1.34202e-06
-4.20286e-06
-1.29925e-06
-3.79352e-06
-1.25309e-06
-3.39914e-06
-1.20365e-06
-3.02076e-06
-1.15103e-06
-2.65937e-06
-1.09529e-06
-2.31599e-06
-1.03645e-06
-1.99164e-06
-9.74535e-07
-1.68731e-06
-9.09523e-07
-1.40405e-06
-8.41405e-07
-1.14285e-06
-7.70183e-07
-9.04745e-07
-6.95893e-07
-6.90679e-07
-6.18638e-07
-5.01545e-07
-5.38626e-07
-3.38104e-07
-4.56217e-07
-2.0092e-07
-3.71988e-07
-9.02725e-08
-2.86808e-07
-6.04363e-09
-2.01936e-07
5.24205e-08
-1.19147e-07
8.64714e-08
-4.08802e-08
9.83618e-08
2.95743e-08
9.14565e-08
8.78548e-08
7.04995e-08
1.28285e-07
4.19487e-08
1.43638e-07
1.4463e-08
1.24941e-07
6.08533e-08
-4.7631e-08
1.18286e-07
-1.75984e-07
3.69727e-07
-3.72962e-07
6.1729e-07
-6.28472e-07
8.43738e-07
-9.33443e-07
1.04127e-06
-1.27959e-06
1.20704e-06
-1.6594e-06
1.34166e-06
-2.06615e-06
1.44776e-06
-2.49402e-06
1.52902e-06
-2.93803e-06
1.58946e-06
-3.39408e-06
1.63301e-06
-3.85883e-06
1.66325e-06
-4.32964e-06
1.68328e-06
-4.80445e-06
1.69569e-06
-5.2817e-06
1.70255e-06
-5.76023e-06
1.70548e-06
-6.23915e-06
1.70572e-06
-6.71785e-06
1.70414e-06
-7.19584e-06
1.70136e-06
-7.67276e-06
1.69779e-06
-8.14834e-06
1.69367e-06
-8.62232e-06
1.68911e-06
-9.09448e-06
1.68413e-06
-9.5646e-06
1.67868e-06
-1.00324e-05
1.67268e-06
-1.04977e-05
1.66599e-06
-1.09601e-05
1.65847e-06
-1.14192e-05
1.64996e-06
-1.18748e-05
1.64027e-06
-1.23264e-05
1.62923e-06
-1.27734e-05
1.61663e-06
-1.32155e-05
1.6023e-06
-1.36519e-05
1.58603e-06
-1.40821e-05
1.56762e-06
-1.45054e-05
1.54687e-06
-1.49211e-05
1.52358e-06
-1.53284e-05
1.49755e-06
-1.57265e-05
1.46859e-06
-1.61146e-05
1.43651e-06
-1.64917e-05
1.40111e-06
-1.68568e-05
1.36223e-06
-1.72091e-05
1.31969e-06
-1.75475e-05
1.27334e-06
-1.7871e-05
1.22305e-06
-1.81784e-05
1.16869e-06
-1.84688e-05
1.11017e-06
-1.8741e-05
1.04741e-06
-1.89939e-05
9.80374e-07
-1.92265e-05
9.09032e-07
-1.94377e-05
8.33401e-07
-1.96265e-05
7.53528e-07
-1.97918e-05
6.69497e-07
-1.99327e-05
5.81429e-07
-2.00483e-05
4.89483e-07
-2.01376e-05
3.93858e-07
-2.02e-05
2.94794e-07
-2.02348e-05
1.92572e-07
-2.02412e-05
8.75108e-08
-2.02189e-05
-2.00312e-08
-2.01673e-05
-1.29658e-07
-2.00863e-05
-2.4094e-07
-1.99755e-05
-3.53414e-07
-1.98351e-05
-4.6659e-07
-1.9665e-05
-5.7995e-07
-1.94655e-05
-6.92959e-07
-1.9237e-05
-8.05064e-07
-1.89798e-05
-9.15701e-07
-1.86948e-05
-1.0243e-06
-1.83825e-05
-1.1303e-06
-1.8044e-05
-1.23314e-06
-1.76803e-05
-1.33226e-06
-1.72924e-05
-1.42714e-06
-1.68817e-05
-1.51727e-06
-1.64496e-05
-1.60219e-06
-1.59975e-05
-1.68144e-06
-1.55269e-05
-1.75464e-06
-1.50396e-05
-1.82144e-06
-1.45372e-05
-1.88152e-06
-1.40214e-05
-1.93465e-06
-1.34942e-05
-1.98063e-06
-1.29572e-05
-2.01931e-06
-1.24124e-05
-2.05062e-06
-1.18615e-05
-2.07453e-06
-1.13064e-05
-2.09106e-06
-1.0749e-05
-2.1003e-06
-1.01909e-05
-2.10237e-06
-9.63393e-06
-2.09744e-06
-9.07974e-06
-2.08571e-06
-8.52997e-06
-2.06741e-06
-7.98617e-06
-2.04281e-06
-7.44984e-06
-2.01217e-06
-6.92242e-06
-1.97578e-06
-6.40527e-06
-1.93389e-06
-5.89972e-06
-1.88679e-06
-5.40702e-06
-1.83472e-06
-4.92839e-06
-1.77789e-06
-4.46499e-06
-1.71649e-06
-4.01797e-06
-1.65067e-06
-3.58847e-06
-1.58054e-06
-3.17759e-06
-1.50617e-06
-2.78644e-06
-1.4276e-06
-2.41615e-06
-1.34482e-06
-2.06785e-06
-1.25783e-06
-1.74266e-06
-1.1666e-06
-1.44171e-06
-1.07113e-06
-1.16612e-06
-9.71489e-07
-9.16934e-07
-8.6782e-07
-6.9514e-07
-7.6042e-07
-5.01566e-07
-6.49792e-07
-3.36825e-07
-5.36729e-07
-2.01223e-07
-4.22409e-07
-9.46427e-08
-3.08517e-07
-1.64038e-08
-1.97386e-07
3.48927e-08
-9.21767e-08
6.15481e-08
2.91884e-09
6.69768e-08
8.24261e-08
5.59514e-08
1.3931e-07
3.49218e-08
1.64667e-07
1.24601e-08
1.47403e-07
7.33135e-08
-5.7295e-08
1.75581e-07
-2.0953e-07
5.21962e-07
-4.40407e-07
8.48167e-07
-7.36689e-07
1.14002e-06
-1.08713e-06
1.39171e-06
-1.48203e-06
1.60194e-06
-1.91296e-06
1.77259e-06
-2.37264e-06
1.90744e-06
-2.85484e-06
2.01122e-06
-3.35434e-06
2.08897e-06
-3.86683e-06
2.1455e-06
-4.38879e-06
2.18521e-06
-4.91742e-06
2.21191e-06
-5.45053e-06
2.2288e-06
-5.98642e-06
2.23844e-06
-6.5238e-06
2.24286e-06
-7.06167e-06
2.24359e-06
-7.5993e-06
2.24176e-06
-8.1361e-06
2.23817e-06
-8.67163e-06
2.23332e-06
-9.2055e-06
2.22755e-06
-9.7374e-06
2.22101e-06
-1.0267e-05
2.21374e-06
-1.0794e-05
2.20569e-06
-1.13181e-05
2.19677e-06
-1.1839e-05
2.18682e-06
-1.23561e-05
2.17565e-06
-1.28692e-05
2.16307e-06
-1.33778e-05
2.14885e-06
-1.38813e-05
2.13275e-06
-1.43793e-05
2.11455e-06
-1.4871e-05
2.094e-06
-1.53558e-05
2.07085e-06
-1.5833e-05
2.04484e-06
-1.63019e-05
2.01573e-06
-1.67616e-05
1.98327e-06
-1.72112e-05
1.9472e-06
-1.76499e-05
1.90728e-06
-1.80767e-05
1.86328e-06
-1.84905e-05
1.81496e-06
-1.88904e-05
1.76212e-06
-1.92753e-05
1.70454e-06
-1.9644e-05
1.64205e-06
-1.99954e-05
1.57449e-06
-2.03284e-05
1.50171e-06
-2.06419e-05
1.42361e-06
-2.09346e-05
1.3401e-06
-2.12054e-05
1.25116e-06
-2.14531e-05
1.15677e-06
-2.16766e-05
1.05696e-06
-2.18749e-05
9.51826e-07
-2.20469e-05
8.41482e-07
-2.21916e-05
7.26102e-07
-2.2308e-05
6.05909e-07
-2.23953e-05
4.81173e-07
-2.24528e-05
3.52216e-07
-2.24796e-05
2.1941e-07
-2.24753e-05
8.31739e-08
-2.24393e-05
-5.60242e-08
-2.23713e-05
-1.97672e-07
-2.2271e-05
-3.41215e-07
-2.21383e-05
-4.86061e-07
-2.19733e-05
-6.31582e-07
-2.17762e-05
-7.77123e-07
-2.15471e-05
-9.22005e-07
-2.12867e-05
-1.06553e-06
-2.09954e-05
-1.20699e-06
-2.0674e-05
-1.34567e-06
-2.03234e-05
-1.48087e-06
-1.99447e-05
-1.61188e-06
-1.95389e-05
-1.73802e-06
-1.91074e-05
-1.85864e-06
-1.86516e-05
-1.97311e-06
-1.81729e-05
-2.08085e-06
-1.7673e-05
-2.18133e-06
-1.71536e-05
-2.27404e-06
-1.66165e-05
-2.35857e-06
-1.60635e-05
-2.43455e-06
-1.54965e-05
-2.50168e-06
-1.49174e-05
-2.55972e-06
-1.43282e-05
-2.60851e-06
-1.37308e-05
-2.64796e-06
-1.31273e-05
-2.67804e-06
-1.25196e-05
-2.6988e-06
-1.19095e-05
-2.71034e-06
-1.12991e-05
-2.71283e-06
-1.069e-05
-2.70648e-06
-1.00842e-05
-2.69154e-06
-9.48328e-06
-2.66833e-06
-8.88894e-06
-2.63715e-06
-8.30276e-06
-2.59836e-06
-7.72625e-06
-2.55228e-06
-7.16086e-06
-2.49928e-06
-6.60798e-06
-2.43967e-06
-6.06894e-06
-2.37376e-06
-5.54502e-06
-2.30181e-06
-5.03745e-06
-2.22405e-06
-4.54744e-06
-2.14067e-06
-4.07619e-06
-2.05179e-06
-3.62487e-06
-1.95749e-06
-3.19467e-06
-1.8578e-06
-2.78676e-06
-1.75273e-06
-2.40234e-06
-1.64225e-06
-2.04261e-06
-1.52633e-06
-1.70876e-06
-1.40498e-06
-1.40196e-06
-1.27828e-06
-1.12334e-06
-1.14644e-06
-8.7392e-07
-1.00984e-06
-6.54571e-07
-8.69141e-07
-4.65941e-07
-7.25359e-07
-3.08354e-07
-5.79997e-07
-1.817e-07
-4.35171e-07
-8.5304e-08
-2.93782e-07
-1.77698e-08
-1.59711e-07
2.31885e-08
-3.80395e-08
4.09434e-08
6.46712e-08
4.01839e-08
1.4007e-07
2.71944e-08
1.77657e-07
1.02366e-08
1.64361e-07
8.35501e-08
-6.58745e-08
2.41455e-07
-2.39647e-07
6.95735e-07
-5.01439e-07
1.10996e-06
-8.35166e-07
1.47375e-06
-1.2275e-06
1.78405e-06
-1.66729e-06
2.04174e-06
-2.14517e-06
2.25046e-06
-2.65323e-06
2.4155e-06
-3.18488e-06
2.54288e-06
-3.73464e-06
2.63873e-06
-4.29802e-06
2.70888e-06
-4.87139e-06
2.75857e-06
-5.45183e-06
2.79236e-06
-6.03706e-06
2.81403e-06
-6.62528e-06
2.82666e-06
-7.2151e-06
2.83268e-06
-7.80545e-06
2.83394e-06
-8.39549e-06
2.8318e-06
-8.98455e-06
2.82723e-06
-9.5721e-06
2.82087e-06
-1.01577e-05
2.81313e-06
-1.07409e-05
2.80422e-06
-1.13213e-05
2.79418e-06
-1.18986e-05
2.78299e-06
-1.24724e-05
2.77052e-06
-1.30422e-05
2.75659e-06
-1.36075e-05
2.74099e-06
-1.41679e-05
2.72347e-06
-1.47228e-05
2.70378e-06
-1.52717e-05
2.68162e-06
-1.58139e-05
2.65672e-06
-1.63486e-05
2.62876e-06
-1.68752e-05
2.59747e-06
-1.73929e-05
2.56252e-06
-1.79008e-05
2.52361e-06
-1.8398e-05
2.48045e-06
-1.88835e-05
2.43274e-06
-1.93564e-05
2.38017e-06
-1.98156e-05
2.32248e-06
-2.026e-05
2.25938e-06
-2.06885e-05
2.19063e-06
-2.11e-05
2.11599e-06
-2.14932e-05
2.03526e-06
-2.1867e-05
1.94824e-06
-2.222e-05
1.8548e-06
-2.25512e-05
1.7548e-06
-2.28593e-05
1.64819e-06
-2.31431e-05
1.53492e-06
-2.34013e-05
1.41501e-06
-2.36329e-05
1.28854e-06
-2.38367e-05
1.1556e-06
-2.40116e-05
1.01639e-06
-2.41566e-05
8.71138e-07
-2.42709e-05
7.2013e-07
-2.43534e-05
5.63721e-07
-2.44035e-05
4.02323e-07
-2.44205e-05
2.36408e-07
-2.44038e-05
6.6506e-08
-2.43531e-05
-1.06798e-07
-2.42679e-05
-2.82866e-07
-2.41481e-05
-4.6101e-07
-2.39936e-05
-6.40501e-07
-2.38046e-05
-8.20568e-07
-2.35814e-05
-1.00041e-06
-2.33242e-05
-1.17919e-06
-2.30336e-05
-1.35607e-06
-2.27104e-05
-1.53019e-06
-2.23554e-05
-1.70068e-06
-2.19696e-05
-1.8667e-06
-2.15541e-05
-2.02739e-06
-2.11102e-05
-2.18195e-06
-2.06392e-05
-2.32957e-06
-2.01428e-05
-2.46953e-06
-1.96225e-05
-2.60112e-06
-1.90801e-05
-2.72371e-06
-1.85175e-05
-2.83671e-06
-1.79364e-05
-2.93962e-06
-1.7339e-05
-3.03202e-06
-1.67271e-05
-3.11354e-06
-1.61029e-05
-3.18392e-06
-1.54684e-05
-3.24298e-06
-1.48258e-05
-3.29061e-06
-1.4177e-05
-3.3268e-06
-1.35242e-05
-3.35161e-06
-1.28694e-05
-3.36518e-06
-1.22145e-05
-3.36771e-06
-1.15615e-05
-3.35948e-06
-1.09122e-05
-3.3408e-06
-1.02685e-05
-3.31205e-06
-9.63203e-06
-3.27361e-06
-9.00449e-06
-3.2259e-06
-8.38744e-06
-3.16934e-06
-7.78237e-06
-3.10435e-06
-7.19072e-06
-3.03132e-06
-6.61387e-06
-2.95061e-06
-6.05312e-06
-2.86256e-06
-5.50975e-06
-2.76742e-06
-4.98501e-06
-2.66541e-06
-4.48011e-06
-2.55669e-06
-3.99627e-06
-2.44133e-06
-3.53468e-06
-2.31939e-06
-3.09657e-06
-2.19084e-06
-2.68315e-06
-2.05567e-06
-2.29565e-06
-1.91383e-06
-1.9353e-06
-1.76534e-06
-1.60328e-06
-1.6103e-06
-1.30075e-06
-1.44897e-06
-1.02875e-06
-1.28184e-06
-7.88167e-07
-1.10972e-06
-5.79665e-07
-9.33862e-07
-4.03578e-07
-7.56083e-07
-2.59811e-07
-5.78938e-07
-1.47705e-07
-4.05888e-07
-6.58983e-08
-2.41518e-07
-1.21589e-08
-9.17789e-08
1.67946e-08
3.57176e-08
2.54998e-08
1.31365e-07
2.00059e-08
1.83151e-07
8.1856e-09
1.76181e-07
9.17357e-08
-7.34822e-08
3.14938e-07
-2.66561e-07
8.88814e-07
-5.56302e-07
1.3997e-06
-9.24097e-07
1.84154e-06
-1.35469e-06
2.21464e-06
-1.83553e-06
2.52258e-06
-2.3563e-06
2.77123e-06
-2.90848e-06
2.96768e-06
-3.48506e-06
3.11946e-06
-4.08032e-06
3.23399e-06
-4.68962e-06
3.31818e-06
-5.30921e-06
3.37816e-06
-5.9361e-06
3.41925e-06
-6.56794e-06
3.44586e-06
-7.20286e-06
3.46158e-06
-7.83941e-06
3.46923e-06
-8.47645e-06
3.47098e-06
-9.11307e-06
3.46842e-06
-9.74853e-06
3.46269e-06
-1.03822e-05
3.45457e-06
-1.10136e-05
3.44453e-06
-1.16422e-05
3.43283e-06
-1.22676e-05
3.41956e-06
-1.28893e-05
3.40467e-06
-1.35068e-05
3.38802e-06
-1.41196e-05
3.36943e-06
-1.47273e-05
3.34863e-06
-1.53291e-05
3.32534e-06
-1.59246e-05
3.29925e-06
-1.6513e-05
3.27004e-06
-1.70937e-05
3.23736e-06
-1.76658e-05
3.20087e-06
-1.82285e-05
3.16021e-06
-1.8781e-05
3.11502e-06
-1.93224e-05
3.06495e-06
-1.98515e-05
3.00965e-06
-2.03676e-05
2.94875e-06
-2.08693e-05
2.88194e-06
-2.13557e-05
2.80887e-06
-2.18256e-05
2.72925e-06
-2.22777e-05
2.64278e-06
-2.27109e-05
2.54919e-06
-2.3124e-05
2.44826e-06
-2.35155e-05
2.33979e-06
-2.38843e-05
2.22362e-06
-2.42291e-05
2.09962e-06
-2.45487e-05
1.96774e-06
-2.48417e-05
1.82795e-06
-2.5107e-05
1.68031e-06
-2.53434e-05
1.52491e-06
-2.55497e-05
1.36191e-06
-2.57249e-05
1.19156e-06
-2.58679e-05
1.01416e-06
-2.59778e-05
8.30063e-07
-2.60538e-05
6.39723e-07
-2.60952e-05
4.43649e-07
-2.61012e-05
2.4242e-07
-2.60713e-05
3.66827e-08
-2.60053e-05
-1.72852e-07
-2.59027e-05
-3.85414e-07
-2.57636e-05
-6.00177e-07
-2.55878e-05
-8.16264e-07
-2.53756e-05
-1.03276e-06
-2.51273e-05
-1.2487e-06
-2.48434e-05
-1.46311e-06
-2.45245e-05
-1.67498e-06
-2.41714e-05
-1.8833e-06
-2.3785e-05
-2.08705e-06
-2.33665e-05
-2.28523e-06
-2.29171e-05
-2.47684e-06
-2.24381e-05
-2.66094e-06
-2.1931e-05
-2.83659e-06
-2.13976e-05
-3.00295e-06
-2.08396e-05
-3.15918e-06
-2.02587e-05
-3.30455e-06
-1.96571e-05
-3.43839e-06
-1.90366e-05
-3.56012e-06
-1.83993e-05
-3.66925e-06
-1.77475e-05
-3.76537e-06
-1.70832e-05
-3.84818e-06
-1.64087e-05
-3.91748e-06
-1.57262e-05
-3.97315e-06
-1.50378e-05
-4.01521e-06
-1.43457e-05
-4.04373e-06
-1.3652e-05
-4.05888e-06
-1.29588e-05
-4.06093e-06
-1.2268e-05
-4.05021e-06
-1.15817e-05
-4.02711e-06
-1.09017e-05
-3.99206e-06
-1.02298e-05
-3.94554e-06
-9.5676e-06
-3.88806e-06
-8.91683e-06
-3.82011e-06
-8.27898e-06
-3.7422e-06
-7.65552e-06
-3.65478e-06
-7.04784e-06
-3.5583e-06
-6.45727e-06
-3.45313e-06
-5.88509e-06
-3.33959e-06
-5.33257e-06
-3.21794e-06
-4.80091e-06
-3.08835e-06
-4.29132e-06
-2.95092e-06
-3.80502e-06
-2.80569e-06
-3.34321e-06
-2.65266e-06
-2.9071e-06
-2.49177e-06
-2.49793e-06
-2.323e-06
-2.11689e-06
-2.14637e-06
-1.76519e-06
-1.962e-06
-1.44397e-06
-1.7702e-06
-1.15425e-06
-1.57156e-06
-8.96942e-07
-1.36703e-06
-6.72687e-07
-1.15812e-06
-4.81828e-07
-9.46942e-07
-3.2428e-07
-7.36486e-07
-1.99409e-07
-5.30759e-07
-1.05898e-07
-3.35029e-07
-4.15883e-08
-1.56089e-07
-3.30837e-09
-2.5623e-09
1.33198e-08
1.14736e-07
1.40911e-08
1.82379e-07
6.52411e-09
1.83748e-07
9.82598e-08
-8.02315e-08
3.95169e-07
-2.90559e-07
1.09914e-06
-6.05427e-07
1.71457e-06
-1.00401e-06
2.24012e-06
-1.4693e-06
2.67993e-06
-1.98746e-06
3.04074e-06
-2.54724e-06
3.33101e-06
-3.13948e-06
3.55992e-06
-3.7568e-06
3.73677e-06
-4.3932e-06
3.8704e-06
-5.0439e-06
3.96887e-06
-5.70504e-06
4.0393e-06
-6.37357e-06
4.08779e-06
-7.0471e-06
4.11939e-06
-7.72371e-06
4.13819e-06
-8.40189e-06
4.14742e-06
-9.08047e-06
4.14955e-06
-9.75847e-06
4.14642e-06
-1.04351e-05
4.13932e-06
-1.11097e-05
4.12917e-06
-1.17817e-05
4.1165e-06
-1.24505e-05
4.10162e-06
-1.31155e-05
4.08464e-06
-1.37764e-05
4.06552e-06
-1.44325e-05
4.0441e-06
-1.50832e-05
4.02016e-06
-1.5728e-05
3.99342e-06
-1.63662e-05
3.96356e-06
-1.69972e-05
3.93021e-06
-1.76201e-05
3.89299e-06
-1.82343e-05
3.85153e-06
-1.88388e-05
3.80542e-06
-1.94329e-05
3.75424e-06
-2.00155e-05
3.6976e-06
-2.05856e-05
3.63507e-06
-2.11422e-05
3.56626e-06
-2.16842e-05
3.49077e-06
-2.22105e-05
3.40822e-06
-2.27198e-05
3.31823e-06
-2.3211e-05
3.22046e-06
-2.36829e-05
3.11459e-06
-2.4134e-05
3.00033e-06
-2.45631e-05
2.87742e-06
-2.4969e-05
2.74566e-06
-2.53503e-05
2.60488e-06
-2.57056e-05
2.45497e-06
-2.60338e-05
2.29587e-06
-2.63334e-05
2.12759e-06
-2.66033e-05
1.95021e-06
-2.68423e-05
1.76387e-06
-2.70491e-05
1.56879e-06
-2.72228e-05
1.36527e-06
-2.73624e-05
1.15369e-06
-2.74668e-05
9.34491e-07
-2.75353e-05
7.08221e-07
-2.75671e-05
4.75491e-07
-2.75617e-05
2.36998e-07
-2.75185e-05
-6.49069e-09
-2.74373e-05
-2.54132e-07
-2.73177e-05
-5.05017e-07
-2.71597e-05
-7.58175e-07
-2.69634e-05
-1.01258e-06
-2.6729e-05
-1.26715e-06
-2.64569e-05
-1.52079e-06
-2.61476e-05
-1.77234e-06
-2.5802e-05
-2.02063e-06
-2.54208e-05
-2.26451e-06
-2.5005e-05
-2.50278e-06
-2.4556e-05
-2.73429e-06
-2.40749e-05
-2.95791e-06
-2.35633e-05
-3.17252e-06
-2.30228e-05
-3.37708e-06
-2.24552e-05
-3.57059e-06
-2.18622e-05
-3.75212e-06
-2.1246e-05
-3.92081e-06
-2.06085e-05
-4.07592e-06
-1.99518e-05
-4.21678e-06
-1.92782e-05
-4.34282e-06
-1.859e-05
-4.45361e-06
-1.78894e-05