/*--------------------------------*- C++ -*----------------------------------*\
| =========                 |                                                 |
| \\      /  F ield         | OpenFOAM: The Open Source CFD Toolbox           |
|  \\    /   O peration     | Version:  2406                                  |
|   \\  /    A nd           | Website:  www.openfoam.com                      |
|    \\/     M anipulation  |                                                 |
\*---------------------------------------------------------------------------*/
FoamFile
{
    version     2.0;
    format      ascii;
    arch        "LSB;label=32;scalar=64";
    class       surfaceScalarField;
    location    "31.7";
    object      phi;
}
// * * * * * * * * * * * * * * * * * * * * * * * * * * * * * * * * * * * * * //

dimensions      [0 3 -1 0 0 0 0];

oriented        oriented;

internalField   nonuniform List<scalar> 
7080
(
2.26588e-07
-2.26135e-07
1.33931e-06
-1.12255e-06
2.92661e-06
-1.58529e-06
4.55602e-06
-1.63887e-06
5.90149e-06
-1.34421e-06
6.80917e-06
-9.13961e-07
7.28971e-06
-4.78466e-07
7.42475e-06
-1.37767e-07
7.34217e-06
8.56646e-08
7.12391e-06
2.18367e-07
6.8114e-06
3.16598e-07
6.36473e-06
4.49319e-07
5.70213e-06
6.68408e-07
4.69663e-06
1.01138e-06
3.2153e-06
1.49023e-06
1.1151e-06
2.11048e-06
-1.73695e-06
2.86547e-06
-5.46886e-06
3.74756e-06
-1.01876e-05
4.73753e-06
-1.59761e-05
5.81013e-06
-2.28716e-05
6.92076e-06
-3.08471e-05
8.0045e-06
-3.97833e-05
8.96828e-06
-4.94523e-05
9.70281e-06
-5.9508e-05
1.00892e-05
-6.94951e-05
1.0018e-05
-7.887e-05
9.40119e-06
-8.70406e-05
8.19068e-06
-9.3411e-05
6.38289e-06
-9.74297e-05
4.0232e-06
-9.86318e-05
1.19826e-06
-9.66779e-05
-1.96587e-06
-9.13851e-05
-5.3125e-06
-8.27569e-05
-8.65505e-06
-7.10035e-05
-1.17862e-05
-5.65592e-05
-1.44823e-05
-4.00799e-05
-1.65208e-05
-2.24273e-05
-1.76968e-05
-4.61729e-06
-1.78544e-05
1.22526e-05
-1.69139e-05
2.71166e-05
-1.49044e-05
3.90608e-05
-1.19806e-05
4.74546e-05
-8.42235e-06
5.20391e-05
-4.60638e-06
5.29738e-05
-9.46051e-07
5.07906e-05
2.17901e-06
4.62911e-05
4.50562e-06
4.03754e-05
5.92552e-06
3.38933e-05
6.4993e-06
2.75082e-05
6.40051e-06
2.16662e-05
5.86189e-06
1.65856e-05
5.09419e-06
1.23318e-05
4.27166e-06
8.84839e-06
3.49198e-06
6.03552e-06
2.82782e-06
3.77307e-06
2.266e-06
1.98055e-06
1.80503e-06
6.85981e-07
1.29399e-06
-2.30668e-08
7.19104e-07
-2.29661e-08
1.06005e-06
-1.2768e-06
3.61765e-06
-3.6813e-06
6.89475e-06
-4.84748e-06
1.01181e-05
-4.86055e-06
1.27431e-05
-3.95766e-06
1.44508e-05
-2.62138e-06
1.51972e-05
-1.21921e-06
1.50501e-05
6.6983e-09
1.41577e-05
9.78295e-07
1.25934e-05
1.77713e-06
1.03515e-05
2.5543e-06
7.28153e-06
3.51058e-06
3.14689e-06
4.79376e-06
-2.36846e-06
6.51288e-06
-9.58965e-06
8.69494e-06
-1.88347e-05
1.13338e-05
-3.03623e-05
1.43672e-05
-4.43491e-05
1.77031e-05
-6.08252e-05
2.11779e-05
-7.96206e-05
2.45644e-05
-0.000100311
2.75648e-05
-0.000122227
2.98664e-05
-0.000144497
3.11784e-05
-0.000166143
3.12862e-05
-0.000186178
3.00615e-05
-0.000203691
2.74729e-05
-0.000217903
2.35632e-05
-0.000228193
1.84423e-05
-0.000234096
1.22634e-05
-0.000235303
5.22182e-06
-0.000231636
-2.45895e-06
-0.000223057
-1.05193e-05
-0.000209659
-1.86694e-05
-0.000191681
-2.65768e-05
-0.000169524
-3.38754e-05
-0.000143766
-4.0162e-05
-0.000115177
-4.5024e-05
-8.47241e-05
-4.80606e-05
-5.35471e-05
-4.8941e-05
-2.29231e-05
-4.74512e-05
5.818e-06
-4.35649e-05
3.13858e-05
-3.74793e-05
5.26605e-05
-2.96409e-05
6.88012e-05
-2.07089e-05
7.93592e-05
-1.14819e-05
8.43261e-05
-2.78517e-06
8.41582e-05
4.66339e-06
7.97036e-05
1.03554e-05
7.21009e-05
1.40732e-05
6.25799e-05
1.58855e-05
5.23031e-05
1.61074e-05
4.21836e-05
1.51794e-05
3.28517e-05
1.35792e-05
2.46194e-05
1.1696e-05
1.75937e-05
9.83796e-06
1.17221e-05
8.11506e-06
6.9489e-06
6.57096e-06
3.27985e-06
4.94499e-06
8.6642e-07
3.13232e-06
8.33164e-07
1.58442e-06
-2.86104e-06
5.00046e-06
-7.11259e-06
9.14574e-06
-8.99082e-06
1.2984e-05
-8.71164e-06
1.58768e-05
-6.85024e-06
1.74243e-05
-4.17657e-06
1.75495e-05
-1.34247e-06
1.62653e-05
1.2887e-06
1.36528e-05
3.59525e-06
9.6754e-06
5.75686e-06
4.18444e-06
8.05229e-06
-3.14226e-06
1.0844e-05
-1.27144e-05
1.43766e-05
-2.49957e-05
1.88065e-05
-4.0401e-05
2.41168e-05
-5.92382e-05
3.0191e-05
-8.15942e-05
3.67483e-05
-0.000107244
4.33819e-05
-0.000135573
4.95406e-05
-0.000165616
5.4645e-05
-0.000196175
5.81642e-05
-0.000225993
5.97309e-05
-0.000253915
5.91515e-05
-0.000278987
5.64114e-05
-0.000300484
5.16117e-05
-0.0003179
4.49383e-05
-0.000330903
3.66081e-05
-0.00033929
2.68613e-05
-0.000342944
1.59372e-05
-0.000341805
4.08942e-06
-0.000335853
-8.41955e-06
-0.000325103
-2.12917e-05
-0.000309618
-3.41912e-05
-0.000289529
-4.67161e-05
-0.000265064
-5.84022e-05
-0.000236588
-6.87094e-05
-0.000204636
-7.70537e-05
-0.000169949
-8.28302e-05
-0.000133478
-8.5494e-05
-9.63809e-05
-8.46277e-05
-5.99627e-05
-8.00553e-05
-2.55987e-05
-7.19064e-05
5.39111e-06
-6.06797e-05
3.18526e-05
-4.72059e-05
5.29228e-05
-3.25706e-05
6.80893e-05
-1.79574e-05
7.72505e-05
-4.48853e-06
8.07043e-05
6.91756e-06
7.91522e-05
1.5651e-05
7.36028e-05
2.14598e-05
6.52784e-05
2.44619e-05
5.53994e-05
2.50815e-05
4.50595e-05
2.39467e-05
3.50496e-05
2.17227e-05
2.58974e-05
1.90137e-05
1.78352e-05
1.61864e-05
1.10128e-05
1.34136e-05
5.51515e-06
1.04436e-05
1.66926e-06
6.99661e-06
2.50384e-06
1.90214e-06
-4.75389e-06
5.71781e-06
-1.09348e-05
1.00335e-05
-1.32931e-05
1.36296e-05
-1.23106e-05
1.58493e-05
-9.06117e-06
1.62808e-05
-4.61043e-06
1.48345e-05
1.07604e-07
1.14411e-05
4.67829e-06
6.04362e-06
8.99192e-06
-1.59184e-06
1.33864e-05
-1.18317e-05
1.82873e-05
-2.51947e-05
2.41983e-05
-4.22097e-05
3.13826e-05
-6.33267e-05
3.99112e-05
-8.87473e-05
4.95234e-05
-0.000118302
5.97277e-05
-0.00015133
6.97557e-05
-0.000186717
7.87434e-05
-0.000223049
8.58447e-05
-0.000258882
9.04455e-05
-0.000292947
9.21942e-05
-0.00032428
9.10248e-05
-0.00035222
8.70506e-05
-0.000376367
8.0516e-05
-0.000396498
7.17022e-05
-0.000412507
6.09103e-05
-0.000424345
4.84154e-05
-0.000431987
3.44807e-05
-0.000435404
1.93414e-05
-0.000434553
3.23643e-06
-0.00042937
-1.35939e-05
-0.000419775
-3.08662e-05
-0.000405686
-4.8249e-05
-0.000387042
-6.53188e-05
-0.000363834
-8.15588e-05
-0.000336156
-9.63295e-05
-0.000304249
-0.000108897
-0.000268565
-0.000118447
-0.00022981
-0.000124181
-0.000188975
-0.000125398
-0.000147315
-0.000121655
-0.000106289
-0.00011288
-6.74233e-05
-9.9502e-05
-3.21579e-05
-8.24404e-05
-1.6699e-06
-6.30377e-05
2.3219e-05
-4.2839e-05
4.20977e-05
-2.33678e-05
5.49137e-05
-5.91038e-06
6.19604e-05
8.58977e-06
6.38178e-05
1.95801e-05
6.13627e-05
2.68981e-05
5.56492e-05
3.07705e-05
4.78382e-05
3.17416e-05
3.89728e-05
3.05657e-05
2.99452e-05
2.80312e-05
2.13386e-05
2.47728e-05
1.36173e-05
2.11322e-05
7.0659e-06
1.6975e-05
2.25616e-06
1.1811e-05
4.74708e-06
2.06099e-06
-6.81185e-06
5.9021e-06
-1.47898e-05
9.82896e-06
-1.72138e-05
1.24883e-05
-1.49794e-05
1.32397e-05
-9.80909e-06
1.16919e-05
-3.06726e-06
7.74237e-06
4.06057e-06
1.21494e-06
1.12055e-05
-8.13382e-06
1.83455e-05
-2.07716e-05
2.60278e-05
-3.7271e-05
3.47937e-05
-5.82391e-05
4.51737e-05
-8.40866e-05
5.724e-05
-0.000114859
7.06954e-05
-0.000150049
8.47267e-05
-0.000188569
9.82641e-05
-0.000228897
0.000110101
-0.000269385
0.000119253
-0.000308567
0.00012505
-0.000345331
0.000127237
-0.000378946
0.000125838
-0.000408992
0.000121103
-0.00043527
0.000113361
-0.000457716
0.000102995
-0.000476344
9.03619e-05
-0.000491207
7.58004e-05
-0.000502364
5.9593e-05
-0.000509865
4.19944e-05
-0.000513731
2.32122e-05
-0.000513947
3.4488e-06
-0.000510449
-1.71044e-05
-0.000503121
-3.82156e-05
-0.000491793
-5.96068e-05
-0.000476253
-8.08956e-05
-0.00045627
-0.000101586
-0.000431633
-0.000121015
-0.000402214
-0.000138367
-0.00036805
-0.000152666
-0.000329432
-0.000162852
-0.000287006
-0.000167875
-0.000241827
-0.00016688
-0.000195364
-0.000159385
-0.000149395
-0.000145504
-0.000105817
-0.000126045
-6.6359e-05
-0.000102511
-3.23401e-05
-7.68664e-05
-4.50444e-06
-5.12013e-05
1.69248e-05
-2.73332e-05
3.21337e-05
-6.60426e-06
4.1544e-05
1.01838e-05
4.57962e-05
2.2666e-05
4.56871e-05
3.08939e-05
4.22058e-05
3.5243e-05
3.63695e-05
3.64122e-05
2.92071e-05
3.52124e-05
2.1535e-05
3.24492e-05
1.41019e-05
2.85837e-05
7.44837e-06
2.36253e-05
2.4033e-06
1.68761e-05
7.15007e-06
2.10155e-06
-8.90637e-06
5.57325e-06
-1.82699e-05
8.50083e-06
-2.01316e-05
9.49138e-06
-1.59747e-05
7.97301e-06
-8.28576e-06
3.59678e-06
1.3056e-06
-3.78174e-06
1.14399e-05
-1.44891e-05
2.19088e-05
-2.89902e-05
3.28439e-05
-4.79524e-05
4.49844e-05
-7.20028e-05
5.88382e-05
-0.000101527
7.46902e-05
-0.000136371
9.20753e-05
-0.000175715
0.000110029
-0.000218103
0.000127102
-0.000261737
0.000141884
-0.000304856
0.000153204
-0.000346038
0.000160416
-0.000384296
0.000163287
-0.000419042
0.000161961
-0.000449986
0.000156757
-0.000477039
0.00014813
-0.000500245
0.00013654
-0.000519734
0.000122457
-0.000535681
0.000106284
-0.000548287
8.83848e-05
-0.000557751
6.90406e-05
-0.000564253
4.84869e-05
-0.000567934
2.68891e-05
-0.000568874
4.39214e-06
-0.000567077
-1.8891e-05
-0.000562455
-4.28196e-05
-0.000554816
-6.72229e-05
-0.000543853
-9.18298e-05
-0.000529152
-0.000116254
-0.000510212
-0.000139918
-0.000486495
-0.000162045
-0.000457512
-0.000181607
-0.000422943
-0.00019738
-0.000382795
-0.000207984
-0.000337561
-0.000212076
-0.00028836
-0.000208553
-0.000236958
-0.000196877
-0.000185656
-0.000177326
-0.00013696
-0.000151191
-9.31457e-05
-0.000120674
-5.58e-05
-8.85453e-05
-2.56323e-05
-5.75078e-05
-2.55949e-06
-2.96846e-05
1.39359e-05
-6.32574e-06
2.45715e-05
1.20196e-05
3.01011e-05
2.53478e-05
3.13906e-05
3.39443e-05
2.93454e-05
3.84408e-05
2.49741e-05
3.95784e-05
1.91871e-05
3.82197e-05
1.29144e-05
3.48567e-05
6.92313e-06
2.95985e-05
2.23529e-06
2.157e-05
9.3732e-06
1.98165e-06
-1.08845e-05
4.63992e-06
-2.09371e-05
5.95177e-06
-2.14377e-05
4.5921e-06
-1.46193e-05
9.10775e-08
-3.78148e-06
-7.86744e-06
9.26377e-06
-1.95162e-05
2.30918e-05
-3.53529e-05
3.77482e-05
-5.60151e-05
5.35105e-05
-8.21824e-05
7.11572e-05
-0.000114198
9.08596e-05
-0.000151791
0.000112291
-0.000193897
0.000134189
-0.0002388
0.000154942
-0.0002845
0.000172812
-0.000329152
0.000186549
-0.000371333
0.000195399
-0.0004101
0.000199199
-0.000444913
0.000198116
-0.000475536
0.000192602
-0.000501949
0.000183188
-0.000524291
0.000170492
-0.000542811
0.00015508
-0.000557834
0.000137499
-0.000569723
0.000118188
-0.000578847
9.75227e-05
-0.00058556
7.57622e-05
-0.000590173
5.31041e-05
-0.000592939
2.96532e-05
-0.000594036
5.48245e-06
-0.000593554
-1.93864e-05
-0.000591473
-4.49183e-05
-0.000587648
-7.10712e-05
-0.000581782
-9.77232e-05
-0.000573407
-0.00012466
-0.000561874
-0.000151485
-0.000546361
-0.000177594
-0.000525922
-0.000202083
-0.000499595
-0.000223744
-0.000466568
-0.000241046
-0.00042642
-0.000252256
-0.000379387
-0.000255614
-0.000326604
-0.000249683
-0.000270213
-0.000233734
-0.000213218
-0.000208197
-0.000159028
-0.000174871
-0.000110717
-0.000136855
-7.03253e-05
-9.78979e-05
-3.84952e-05
-6.15065e-05
-1.47599e-05
-3.00542e-05
1.91191e-06
-4.63954e-06
1.25927e-05
1.46749e-05
1.83055e-05
2.82455e-05
1.99773e-05
3.67749e-05
1.85922e-05
4.09777e-05
1.50856e-05
4.17283e-05
1.04709e-05
3.94863e-05
5.67092e-06
3.43951e-05
1.80096e-06
2.54566e-05
1.1174e-05
1.61972e-06
-1.25019e-05
2.91799e-06
-2.22402e-05
1.94133e-06
-2.04586e-05
-2.44459e-06
-1.02355e-05
-1.05956e-05
4.36845e-06
-2.28207e-05
2.14871e-05
-3.94782e-05
3.97455e-05
-6.11936e-05
5.9461e-05
-8.86049e-05
8.09161e-05
-0.00012207
0.000104618
-0.000161251
0.000130034
-0.000204957
0.000155992
-0.00025129
0.000180513
-0.000298091
0.000201734
-0.000343399
0.00021811
-0.000385728
0.000228868
-0.000424097
0.000233754
-0.000457954
0.000233043
-0.000487086
0.000227232
-0.00051154
0.000217041
-0.00053157
0.000203202
-0.000547574
0.000186481
-0.000560045
0.000167535
-0.000569511
0.000146953
-0.000576501
0.000125167
-0.000581505
0.00010252
-0.000584957
7.92111e-05
-0.000587226
5.53751e-05
-0.000588611
3.10436e-05
-0.000589336
6.21849e-06
-0.000589549
-1.91578e-05
-0.000589311
-4.51366e-05
-0.000588574
-7.17847e-05
-0.000587155
-9.91158e-05
-0.000584693
-0.000127093
-0.000580605
-0.000155543
-0.000574047
-0.000184121
-0.000563895
-0.000212206
-0.000548777
-0.000238834
-0.000527184
-0.000262613
-0.000497694
-0.000281724
-0.000459297
-0.000293992
-0.000411811
-0.000297152
-0.000356289
-0.000289244
-0.000295249
-0.000269226
-0.00023256
-0.000237555
-0.000172782
-0.000196629
-0.00012008
-0.000150603
-7.70537e-05
-0.000104536
-4.42689e-05
-6.28478e-05
-2.06993e-05
-2.82153e-05
-4.74188e-06
-1.29364e-06
5.15827e-06
1.83398e-05
1.02582e-05
3.16633e-05
1.16852e-05
3.95476e-05
1.04489e-05
4.29525e-05
7.6123e-06
4.23232e-05
4.19083e-06
3.78033e-05
1.30392e-06
2.83472e-05
1.24689e-05
9.44112e-07
-1.34455e-05
2.99074e-07
-2.15933e-05
-3.58951e-06
-1.65705e-05
-1.15601e-05
-2.26026e-06
-2.38774e-05
1.6685e-05
-4.08695e-05
3.84854e-05
-6.30057e-05
6.18822e-05
-9.08863e-05
8.7349e-05
-0.000124859
0.000114891
-0.000164612
0.000144378
-0.000208924
0.00017435
-0.000255806
0.000202882
-0.000302963
0.000227675
-0.000348291
0.000247072
-0.000390184
0.00026001
-0.00042757
0.000266264
-0.000459861
0.000266054
-0.000486862
0.000260056
-0.000508709
0.000249091
-0.000525792
0.000234138
-0.00053868
0.000216101
-0.000548032
0.000195846
-0.00055453
0.000174044
-0.000558819
0.000151253
-0.000561474
0.000127829
-0.000562981
0.000104033
-0.000563741
7.99731e-05
-0.000564075
5.57077e-05
-0.000564237
3.12e-05
-0.000564427
6.39988e-06
-0.000564799
-1.87981e-05
-0.000565461
-4.44898e-05
-0.000566465
-7.07991e-05
-0.000567781
-9.78197e-05
-0.000569258
-0.000125638
-0.000570562
-0.000154261
-0.000571101
-0.000183605
-0.000569946
-0.000213384
-0.000565764
-0.000243038
-0.000556816
-0.000271582
-0.00054105
-0.00029751
-0.000516355
-0.000318706
-0.000480993
-0.00033253
-0.000434189
-0.000336061
-0.000376762
-0.000326663
-0.000311569
-0.000302754
-0.000243448
-0.00026475
-0.000178372
-0.000215679
-0.000121802
-0.0001611
-7.69757e-05
-0.00010767
-4.41918e-05
-6.09912e-05
-2.17246e-05
-2.37564e-05
-7.25457e-06
3.87901e-06
1.19879e-06
2.32135e-05
5.21704e-06
3.55391e-05
6.0562e-06
4.21147e-05
4.88389e-06
4.35058e-05
2.78704e-06
3.98987e-05
8.46321e-07
3.02989e-05
1.33161e-05
-1.26463e-07
-1.33247e-05
-3.31834e-06
-1.83952e-05
-1.06766e-05
-9.22265e-06
-2.26729e-05
9.74153e-06
-3.95205e-05
3.35222e-05
-6.15584e-05
6.05265e-05
-8.92685e-05
8.95822e-05
-0.000122985
0.000121066
-0.000162475
0.000154372
-0.00020658
0.000188482
-0.000253318
0.000221079
-0.000300283
0.000249842
-0.000345221
0.000272604
-0.000386353
0.000288199
-0.000422494
0.000296142
-0.000452994
0.000296757
-0.000477688
0.000290737
-0.000496805
0.000279166
-0.000510896
0.000263171
-0.000520699
0.000243933
-0.000527047
0.00022244
-0.000530754
0.000199545
-0.000532558
0.000175841
-0.000533077
0.000151768
-0.000532808
0.000127556
-0.000532123
0.000103348
-0.000531303
7.91545e-05
-0.000530553
5.49625e-05
-0.000530031
3.06851e-05
-0.000529866
6.24546e-06
-0.000530175
-1.84762e-05
-0.000531069
-4.35799e-05
-0.000532654
-6.91968e-05
-0.000535015
-9.54389e-05
-0.000538192
-0.00012244
-0.000542128
-0.000150303
-0.000546596
-0.000179115
-0.000551095
-0.000208862
-0.000554728
-0.000239383
-0.000556082
-0.000270208
-0.000553154
-0.000300419
-0.000543408
-0.000328437
-0.000524024
-0.000351901
-0.00049243
-0.000367647
-0.000447087
-0.000372
-0.000388419
-0.000361421
-0.000319552
-0.000333615
-0.00024641
-0.000288822
-0.000176599
-0.000230911
-0.000117077
-0.000167196
-7.15928e-05
-0.000106479
-3.99142e-05
-5.54419e-05
-1.93665e-05
-1.66724e-05
-6.96392e-06
1.08033e-05
-2.74529e-07
2.88474e-05
2.49318e-06
3.9339e-05
2.77143e-06
4.32271e-05
1.76819e-06
4.08934e-05
5.50847e-07
3.15174e-05
1.3861e-05
-1.59666e-06
-1.17343e-05
-7.83929e-06
-1.21329e-05
-1.90444e-05
1.96929e-06
-3.52916e-05
2.60065e-05
-5.67777e-05
5.49998e-05
-8.37905e-05
8.75545e-05
-0.000116656
0.000122443
-0.000155193
0.000159617
-0.000198437
0.000197614
-0.000244464
0.00023452
-0.000290858
0.000267474
-0.000335187
0.000294182
-0.000375507
0.000312927
-0.000410467
0.000323168
-0.000439355
0.000325035
-0.000462009
0.000319421
-0.000478767
0.000307501
-0.000490321
0.00029073
-0.000497593
0.000270449
-0.000501561
0.000247911
-0.000503166
0.000224051
-0.000503207
0.000199594
-0.000502325
0.000174963
-0.000500988
0.000150435
-0.000499519
0.000126088
-0.000498125
0.000101953
-0.000496933
7.79591e-05
-0.00049602
5.40448e-05
-0.000495444
3.01005e-05
-0.000495257
6.04843e-06
-0.000495527
-1.82195e-05
-0.000496341
-4.27811e-05
-0.000497812
-6.77429e-05
-0.000500074
-9.31943e-05
-0.000503274
-0.000119259
-0.00050754
-0.000146056
-0.000512938
-0.000173736
-0.000519385
-0.000202432
-0.00052654
-0.000232245
-0.00053363
-0.000263132
-0.00053928
-0.000294781
-0.000541353
-0.000326374
-0.00053693
-0.000356333
-0.000522527
-0.000382056
-0.000494693
-0.00039984
-0.000451005
-0.000405114
-0.000391357
-0.000393266
-0.000319122
-0.000361059
-0.000241443
-0.000308588
-0.000167824
-0.000240813
-0.000106759
-0.000167538
-6.21839e-05
-0.000100014
-3.28307e-05
-4.602e-05
-1.49758e-05
-7.04908e-06
-4.99488e-06
1.88725e-05
-1.97074e-07
3.45426e-05
1.38185e-06
4.16547e-05
1.20747e-06
4.10676e-05
4.35706e-07
3.22961e-05
1.4298e-05
-3.45927e-06
-8.29175e-06
-1.31362e-05
-2.43215e-06
-2.83856e-05
1.71899e-05
-4.89018e-05
4.65402e-05
-7.48665e-05
8.09421e-05
-0.000106403
0.000119101
-0.000143499
0.000159522
-0.000185317
0.000201439
-0.000230196
0.000242479
-0.000275711
0.000280037
-0.000319366
0.000311116
-0.000358977
0.000333792
-0.000393048
0.000346987
-0.00042073
0.000350847
-0.000441866
0.000346162
-0.000456845
0.000334397
-0.000466507
0.000317155
-0.000471913
0.000296132
-0.000474199
0.000272727
-0.000474395
0.000248104
-0.000473365
0.000223014
-0.000471747
0.000197973
-0.000469982
0.000173193
-0.000468329
0.000148781
-0.000466927
0.000124685
-0.000465824
0.000100852
-0.000465025
7.71626e-05
-0.000464511
5.35374e-05
-0.000464272
2.98679e-05
-0.000464307
6.09309e-06
-0.000464645
-1.78701e-05
-0.000465346
-4.20674e-05
-0.000466506
-6.65695e-05
-0.000468257
-9.14279e-05
-0.000470772
-0.000116729
-0.000474249
-0.000142563
-0.000478898
-0.000169072
-0.000484894
-0.000196422
-0.000492303
-0.000224822
-0.00050095
-0.000254473
-0.000510231
-0.000285488
-0.000518876
-0.000317719
-0.000524709
-0.00035049
-0.000524526
-0.000382232
-0.000514251
-0.000410109
-0.000489563
-0.000429798
-0.000447118
-0.00043571
-0.000386245
-0.000421934
-0.000310631
-0.000384205
-0.000228909
-0.000322538
-0.000152746
-0.000243703
-9.20398e-05
-0.000160722
-5.01738e-05
-8.78882e-05
-2.43276e-05
-3.28996e-05
-9.69223e-06
4.23473e-06
-2.32363e-06
2.71692e-05
6.17234e-07
3.87129e-05
1.08572e-06
4.05935e-05
5.01097e-07
3.28811e-05
1.47949e-05
-5.59162e-06
-2.71546e-06
-1.88565e-05
1.08747e-05
-3.80907e-05
3.63934e-05
-6.26282e-05
7.11117e-05
-9.26007e-05
0.000110896
-0.000127835
0.000154361
-0.000167856
0.000199532
-0.000211158
0.000244761
-0.000255584
0.000286899
-0.000298511
0.000322979
-0.000337645
0.000350248
-0.000371218
0.000367377
-0.000398273
0.000374043
-0.000418543
0.000371128
-0.000432469
0.00036009
-0.000440955
0.000342892
-0.000445215
0.000321418
-0.000446491
0.000297417
-0.000445927
0.000272165
-0.000444419
0.000246603
-0.000442622
0.000221219
-0.000440933
0.000196288
-0.000439567
0.000171828
-0.00043859
0.000147805
-0.00043799
0.000124083
-0.000437705
0.000100566
-0.000437667
7.71194e-05
-0.000437806
5.36712e-05
-0.000438077
3.01311e-05
-0.000438455
6.46241e-06
-0.000438948
-1.73886e-05
-0.000439589
-4.14372e-05
-0.000440453
-6.57191e-05
-0.000441645
-9.02495e-05
-0.000443316
-0.000115072
-0.00044566
-0.000140233
-0.000448917
-0.000165828
-0.000453359
-0.000191993
-0.000459261
-0.000218933
-0.000466821
-0.000246924
-0.000476034
-0.000276285
-0.000486471
-0.000307291
-0.00049699
-0.000339978
-0.000505409
-0.000373817
-0.000508289
-0.000407232
-0.000501003
-0.000437084
-0.000478406
-0.000458308
-0.00043626
-0.00046408
-0.000373429
-0.000447036
-0.00029418
-0.000401789
-0.000209066
-0.000328816
-0.000132196
-0.00023759
-7.42862e-05
-0.000145793
-3.70561e-05
-7.01266e-05
-1.56502e-05
-1.71684e-05
-4.62405e-06
1.61446e-05
8.13561e-08
3.40113e-05
1.20903e-06
3.94658e-05
6.77391e-07
3.34179e-05
1.54731e-05
-7.88014e-06
5.13613e-06
-2.46914e-05
2.77302e-05
-4.76449e-05
5.92972e-05
-7.57345e-05
9.92329e-05
-0.000108979
0.000144105
-0.000146811
0.000192212
-0.000188259
0.000240954
-0.000231276
0.000287788
-0.00027346
0.000329063
-0.000312266
0.00036179
-0.000345789
0.000383756
-0.000372782
0.000394372
-0.000392898
0.000394147
-0.000406473
0.000384702
-0.000414487
0.000368095
-0.000418212
0.000346616
-0.000419032
0.000322229
-0.000418156
0.000296539
-0.00041656
0.000270561
-0.000414889
0.000244931
-0.000413539
0.000219864
-0.000412667
0.000195415
-0.0004123
0.000171457
-0.000412365
0.000147871
-0.000412764
0.000124483
-0.000413381
0.000101187
-0.000414122
7.78628e-05
-0.000414903
5.44589e-05
-0.000415677
3.09107e-05
-0.000416412
7.20629e-06
-0.000417111
-1.66819e-05
-0.000417792
-4.07454e-05
-0.000418507
-6.49933e-05
-0.00041933
-8.94143e-05
-0.000420373
-0.000114017
-0.000421783
-0.000138812
-0.00042376
-0.00016384
-0.000426561
-0.000189181
-0.000430502
-0.000214982
-0.000435935
-0.000241483
-0.000443186
-0.000269026
-0.000452407
-0.000298063
-0.000463342
-0.000329037
-0.000474962
-0.000362193
-0.000485066
-0.000397124
-0.000489946
-0.000432201
-0.000484422
-0.00046383
-0.000462536
-0.000485964
-0.00041928
-0.000490293
-0.000353325
-0.000467746
-0.000270047
-0.000412099
-0.000182594
-0.000325045
-0.000107603
-0.000220786
-5.53163e-05
-0.000122411
-2.43352e-05
-4.81526e-05
-8.02416e-06
-1.68822e-07
-7.42775e-07
2.67283e-05
1.33074e-06
3.73884e-05
8.88303e-07
3.3861e-05
1.63582e-05
-1.01058e-05
1.52177e-05
-3.0162e-05
4.785e-05
-5.63364e-05
8.54231e-05
-8.72955e-05
0.000130242
-0.000122878
0.000179658
-0.000162079
0.000231448
-0.00020349
0.000282347
-0.00024471
0.000329034
-0.000283341
0.000367684
-0.000317116
0.000395584
-0.000344639
0.000411275
-0.000365244
0.000414992
-0.000379204
0.000408106
-0.000387393
0.000392903
-0.000391179
0.000371881
-0.00039199
0.000347437
-0.000391173
0.000321412
-0.000389738
0.000295111
-0.000388393
0.000269218
-0.000387505
0.000244049
-0.000387227
0.000219586
-0.00038753
0.000195721
-0.000388318
0.000172245
-0.000389446
0.000149
-0.00039078
0.000125815
-0.000392195
0.0001026
-0.000393598
7.92613e-05
-0.000394916
5.57729e-05
-0.00039611
3.20975e-05
-0.000397154
8.24405e-06
-0.000398052
-1.57927e-05
-0.000398817
-3.99882e-05
-0.000399488
-6.43321e-05
-0.000400115
-8.87977e-05
-0.000400772
-0.000113371
-0.000401557
-0.000138036
-0.000402611
-0.000162796
-0.000404121
-0.000187681
-0.000406349
-0.000212762
-0.000409637
-0.000238203
-0.000414404
-0.000264265
-0.000421088
-0.000291386
-0.000430001
-0.000320129
-0.000441041
-0.000351156
-0.000453277
-0.000384892
-0.000464411
-0.000421067
-0.000470387
-0.000457855
-0.000465366
-0.000490983
-0.000442591
-0.000513066
-0.000396462
-0.000513872
-0.00032598
-0.000482584
-0.000238503
-0.000412522
-0.000150642
-0.000308649
-8.10562e-05
-0.000191991
-3.71222e-05
-9.2084e-05
-1.34694e-05
-2.38196e-05
-2.41687e-06
1.56768e-05
1.17108e-06
3.38011e-05
1.04071e-06
3.39947e-05
1.73995e-05
-1.21232e-05
2.73025e-05
-3.49598e-05
7.0748e-05
-6.37165e-05
0.000114112
-9.67359e-05
0.000163305
-0.000133632
0.000216508
-0.000172987
0.000270829
-0.000213075
0.000322402
-0.000251357
0.00036733
-0.00028563
0.000401933
-0.000314042
0.000424003
-0.000335765
0.00043298
-0.000350718
0.000429949
-0.000359732
0.000417105
-0.000364068
0.000397241
-0.000365283
0.000373084
-0.00036476
0.000346914
-0.000363649
0.000320292
-0.000362677
0.000294139
-0.000362268
0.000268802
-0.00036254
0.000244321
-0.000363471
0.000220511
-0.000364914
0.000197165
-0.000366719
0.000174047
-0.000368717
0.000151
-0.00037078
0.000127878
-0.000372793
0.000104617
-0.000374686
8.11557e-05
-0.000376398
5.74909e-05
-0.000377907
3.36102e-05
-0.000379194
9.5385e-06
-0.000380269
-1.47114e-05
-0.000381144
-3.91047e-05
-0.000381851
-6.36171e-05
-0.000382425
-8.8215e-05
-0.000382918
-0.000112869
-0.000383389
-0.000137556
-0.000383927
-0.00016225
-0.000384646
-0.000186954
-0.000385723
-0.000211678
-0.000387407
-0.000236513
-0.000390061
-0.000261606
-0.000394153
-0.000287289
-0.000400232
-0.000314047
-0.000408746
-0.000342639
-0.000419745
-0.000373892
-0.000432324
-0.000408486
-0.000444012
-0.000446168
-0.000450227
-0.000484766
-0.000444351
-0.000518942
-0.000418809
-0.000539411
-0.000367755
-0.00053364
-0.000291351
-0.00048893
-0.000200242
-0.000399763
-0.000115329
-0.000276907
-5.52625e-05
-0.000152146
-2.16447e-05
-5.74366e-05
-5.3894e-06
-5.82843e-07
5.3014e-07
2.7881e-05
1.07484e-06
3.34486e-05
1.84728e-05
-1.372e-05
4.09919e-05
-3.86845e-05
9.57921e-05
-6.92561e-05
0.000144622
-0.000103452
0.000197563
-0.000140644
0.000253662
-0.000179077
0.000309304
-0.000216856
0.000360159
-0.000251483
0.000401987
-0.000281092
0.00043153
-0.000304312
0.000447246
-0.000320889
0.000449551
-0.000331271
0.000440349
-0.000336712
0.000422543
-0.000338679
0.000399222
-0.000338721
0.000373125
-0.00033803
0.000346234
-0.000337481
0.000319743
-0.000337506
0.000294172
-0.000338286
0.000269582
-0.000339758
0.000245799
-0.000341795
0.000222547
-0.0003442
0.000199575
-0.000346813
0.000176659
-0.000349475
0.000153663
-0.000352079
0.000130479
-0.00035453
0.000107068
-0.000356778
8.33994e-05
-0.000358778
5.94881e-05
-0.000360517
3.53437e-05
-0.000361985
1.10021e-05
-0.000363195
-1.35074e-05
-0.000364162
-3.81442e-05
-0.000364915
-6.28712e-05
-0.000365484
-8.76533e-05
-0.000365909
-0.000112451
-0.000366231
-0.000137241
-0.000366504
-0.000161984
-0.000366791
-0.000186673
-0.000367194
-0.000211281
-0.000367864
-0.000235849
-0.000369049
-0.000260425
-0.00037112
-0.000285222
-0.000374609
-0.000310561
-0.000380153
-0.000337097
-0.000388347
-0.000365701
-0.000399324
-0.000397509
-0.00041215
-0.000433345
-0.000423986
-0.000472928
-0.000429549
-0.00051338
-0.000421238
-0.000547716
-0.000390759
-0.000564119
-0.000332584
-0.000547101
-0.000249376
-0.00048298
-0.000156778
-0.000369503
-7.99056e-05
-0.000229022
-3.30455e-05
-0.000104281
-9.96258e-06
-2.36742e-05
-7.16872e-07
1.8641e-05
9.59924e-07
3.17699e-05
1.94347e-05
-1.4814e-05
5.57616e-05
-4.11899e-05
0.00012224
-7.27827e-05
0.000176136
-0.000107291
0.000232123
-0.000143858
0.000290176
-0.0001805
0.000345976
-0.000215295
0.000394916
-0.00024593
0.00043264
-0.000270955
0.000456527
-0.000289497
0.000465798
-0.000301826
0.000461859
-0.000308811
0.000447339
-0.000311962
0.000425678
-0.000312773
0.000400036
-0.000312643
0.000372981
-0.000312492
0.000346085
-0.000312913
0.000320152
-0.000314082
0.000295342
-0.000316005
0.000271497
-0.000318512
0.000248307
-0.000321434
0.000225462
-0.000324566
0.000202708
-0.000327768
0.000179857
-0.000330902
0.000156799
-0.000333889
0.000133464
-0.000336652
0.000109834
-0.000339156
8.59051e-05
-0.000341368
6.17041e-05
-0.000343281
3.72599e-05
-0.00034489
1.26161e-05
-0.00034621
-1.21829e-05
-0.000347256
-3.70919e-05
-0.000348059
-6.20618e-05
-0.000348649
-8.70577e-05
-0.000349063
-0.000112031
-0.000349333
-0.000136965
-0.0003495
-0.000161811
-0.000349598
-0.00018657
-0.000349681
-0.000211193
-0.000349819
-0.000235707
-0.000350153
-0.000260087
-0.000350915
-0.000284457
-0.000352508
-0.000308966
-0.000355512
-0.000334091
-0.000360688
-0.000360525
-0.000368731
-0.000389464
-0.00037984
-0.000422238
-0.000392861
-0.000459905
-0.000404403
-0.000501841
-0.00040816
-0.000543955
-0.000395455
-0.000576826
-0.000357499
-0.000585048
-0.000290192
-0.0005503
-0.000200581
-0.00045911
-0.000111238
-0.000318385
-4.84506e-05
-0.000167046
-1.62188e-05
-5.59159e-05
-2.68734e-06
5.11295e-06
7.09811e-07
2.83673e-05
2.01456e-05
-1.5282e-05
7.10105e-05
-4.22777e-05
0.000149322
-7.40874e-05
0.000207878
-0.000108099
0.000266202
-0.000143264
0.0003253
-0.000177487
0.000380245
-0.000208935
0.000426339
-0.000235576
0.000459314
-0.000256398
0.000477335
-0.000270996
0.000480421
-0.000280071
0.000470927
-0.000284773
0.000452062
-0.000286709
0.000427609
-0.000287256
0.0004006
-0.000287583
0.000373305
-0.000288326
0.00034684
-0.000289828
0.000321653
-0.000292078
0.000297603
-0.000294979
0.000274397
-0.000298311
0.000251647
-0.000301905
0.000229056
-0.000305576
0.000206384
-0.00030921
0.00018349
-0.000312695
0.000160286
-0.000315971
0.000136738
-0.000318976
0.00011284
-0.000321686
8.86118e-05
-0.00032407
6.40866e-05
-0.000326125
3.93111e-05
-0.000327847
1.43341e-05
-0.00032925
-1.07839e-05
-0.000330352
-3.59948e-05
-0.000331184
-6.12349e-05
-0.000331776
-8.64706e-05
-0.00033217
-0.000111643
-0.000332398
-0.000136742
-0.0003325
-0.000161713
-0.000332502
-0.000186574
-0.000332434
-0.000211264
-0.000332325
-0.00023582
-0.000332237
-0.000260178
-0.00033228
-0.000284416
-0.000332701
-0.000308547
-0.000333915
-0.000332878
-0.000336602
-0.00035784
-0.000341617
-0.000384449
-0.000349786
-0.000414071
-0.000361222
-0.000448467
-0.000374396
-0.000488671
-0.000384968
-0.000533378
-0.000385365
-0.000576431
-0.000365758
-0.000604645
-0.000317605
-0.000598455
-0.00023998
-0.000536736
-0.000147033
-0.000411342
-6.87325e-05
-0.000245345
-2.4307e-05
-0.000100327
-5.49649e-06
-1.37028e-05
3.26064e-07
2.25426e-05
2.04745e-05
-1.51453e-05
8.61099e-05
-4.20072e-05
0.000176257
-7.3302e-05
0.000239092
-0.000106129
0.000299082
-0.000139295
0.00035841
-0.000170699
0.000411681
-0.000198684
0.000454283
-0.000221549
0.000482198
-0.000238704
0.00049446
-0.000250146
0.000491874
-0.000256892
0.000477649
-0.000260232
0.000455408
-0.00026173
0.000429089
-0.000262569
0.000401441
-0.000263655
0.000374376
-0.000265371
0.000348558
-0.000267871
0.00032414
-0.000271025
0.000300757
-0.000274686
0.000278048
-0.000278631
0.000255591
-0.00028271
0.000233128
-0.000286766
0.000210441
-0.000290715
0.000187434
-0.000294462
0.000164035
-0.000297964
0.000140238
-0.000301168
0.000116045
-0.000304051
9.14951e-05
-0.000306585
6.66239e-05
-0.000308768
4.14955e-05
-0.000310592
1.61622e-05
-0.000312075
-9.29862e-06
-0.000313229