/*--------------------------------*- C++ -*----------------------------------*\
| =========                 |                                                 |
| \\      /  F ield         | OpenFOAM: The Open Source CFD Toolbox           |
|  \\    /   O peration     | Version:  2406                                  |
|   \\  /    A nd           | Website:  www.openfoam.com                      |
|    \\/     M anipulation  |                                                 |
\*---------------------------------------------------------------------------*/
FoamFile
{
    version     2.0;
    format      ascii;
    arch        "LSB;label=32;scalar=64";
    class       volScalarField;
    location    "39.15";
    object      p;
}
// * * * * * * * * * * * * * * * * * * * * * * * * * * * * * * * * * * * * * //

dimensions      [0 2 -2 0 0 0 0];

internalField   nonuniform List<scalar> 
14400
(
-3.11824e-09
8.43138e-06
1.91966e-05
2.70384e-05
2.85707e-05
2.16685e-05
5.36649e-06
-2.04021e-05
-5.50373e-05
-9.74936e-05
-0.000146493
-0.00020072
-0.000258984
-0.000320342
-0.000384182
-0.000450253
-0.000518667
-0.000589906
-0.000664698
-0.000743989
-0.000828873
-0.000920423
-0.00101987
-0.00112838
-0.00124703
-0.00137683
-0.00151875
-0.00167367
-0.00184244
-0.00202586
-0.00222463
-0.00243938
-0.0026706
-0.0029186
-0.00318345
-0.00346491
-0.00376242
-0.00407496
-0.00440109
-0.0047388
-0.00508554
-0.00543815
-0.00579286
-0.00614528
-0.00649043
-0.00682277
-0.0071363
-0.00742462
-0.00768106
-0.00789882
-0.00807111
-0.00819136
-0.00825336
-0.0082515
-0.00818091
-0.00803774
-0.00781925
-0.00752409
-0.00715238
-0.00670593
-0.00618832
-0.0056047
-0.00496212
-0.00427045
-0.00354071
-0.00278527
-0.00201838
-0.00125551
-0.000513039
0.000192161
0.000843207
0.00142373
0.00191847
0.00231382
0.00259843
0.00276371
0.00280428
0.00271825
0.00250741
0.0021772
0.00173656
0.00119751
0.000574691
-0.000115348
-0.000854843
-0.00162561
-0.00240978
-0.00319055
-0.00395268
-0.00468307
-0.00537136
-0.00600917
-0.00659039
-0.00711212
-0.00757357
-0.00797563
-0.00832078
-0.00861268
-0.00885582
-0.00905518
-0.00921595
-0.00934329
-0.00944213
-0.00951707
-0.00957227
-0.00961142
-0.00963771
-0.00965385
-0.0096621
-0.00966426
-0.00966172
-0.0096555
-0.00964631
-0.0096346
-0.00962071
-0.00960506
-0.0095884
-0.00957218
-0.00955894
-0.00955148
-8.36979e-06
9.2169e-08
9.99268e-06
1.59474e-05
1.58343e-05
7.88806e-06
-8.77497e-06
-3.42369e-05
-6.79791e-05
-0.000109076
-0.000156383
-0.000208716
-0.000265006
-0.000324407
-0.000386376
-0.000450703
-0.000517506
-0.000587194
-0.000660463
-0.000738185
-0.000821374
-0.000911185
-0.00100868
-0.00111492
-0.00123095
-0.00135776
-0.00149626
-0.00164735
-0.00181187
-0.00199061
-0.00218432
-0.00239366
-0.00261915
-0.00286117
-0.00311985
-0.00339507
-0.00368634
-0.00399281
-0.00431313
-0.00464547
-0.00498742
-0.00533598
-0.00568752
-0.00603781
-0.00638198
-0.00671462
-0.0070298
-0.00732116
-0.00758208
-0.00780575
-0.00798534
-0.00811422
-0.00818609
-0.00819522
-0.00813662
-0.00800625
-0.00780123
-0.00752
-0.00716252
-0.00673034
-0.00622675
-0.00565722
-0.00502891
-0.00435035
-0.00363245
-0.00288801
-0.00213117
-0.0013773
-0.000642692
5.58032e-05
0.000701302
0.00127741
0.00176878
0.00216177
0.00244493
0.00260962
0.00265037
0.00256528
0.00235613
0.0020284
0.00159108
0.00105631
0.000438803
-0.000244779
-0.000976602
-0.00173845
-0.00251249
-0.003282
-0.00403199
-0.00474956
-0.00542403
-0.00604766
-0.00661548
-0.00712465
-0.00757434
-0.00796579
-0.00830169
-0.00858584
-0.0088228
-0.00901752
-0.00917511
-0.0093006
-0.00939877
-0.00947402
-0.00953033
-0.00957119
-0.00959964
-0.00961823
-0.00962908
-0.00963392
-0.00963408
-0.00963056
-0.00962407
-0.00961509
-0.00960399
-0.00959119
-0.00957731
-0.00956353
-0.0095515
-0.00954399
-1.93679e-05
-9.88186e-06
1.76304e-07
4.6244e-06
2.93184e-06
-6.1741e-06
-2.34106e-05
-4.88043e-05
-8.18593e-05
-0.000121723
-0.00016735
-0.000217662
-0.000271699
-0.000328715
-0.000388242
-0.000450126
-0.000514509
-0.000581806
-0.000652668
-0.000727932
-0.000808545
-0.000895526
-0.000989899
-0.00109268
-0.00120484
-0.00132733
-0.00146104
-0.00160687
-0.00176567
-0.00193827
-0.00212549
-0.00232805
-0.00254661
-0.00278166
-0.00303351
-0.00330219
-0.00358744
-0.0038886
-0.00420455
-0.00453368
-0.00487378
-0.00522206
-0.00557504
-0.00592859
-0.00627794
-0.00661769
-0.00694188
-0.0072441
-0.00751757
-0.00775532
-0.00795036
-0.00809582
-0.00818517
-0.00821246
-0.00817245
-0.0080609
-0.0078747
-0.00761209
-0.00727284
-0.00685834
-0.00637162
-0.00581771
-0.0052041
-0.0045395
-0.0038343
-0.00310097
-0.00235359
-0.00160749
-0.000878962
-0.00018487
0.000457846
0.0010327
0.00152423
0.0019186
0.00220421
0.00237219
0.00241693
0.00233635
0.00213211
0.00180966
0.00137799
0.000849296
0.000238426
-0.000437799
-0.00116137
-0.00191389
-0.0026774
-0.00343508
-0.00417191
-0.00487504
-0.00553417
-0.00614183
-0.00669329
-0.00718595
-0.00761942
-0.00799537
-0.00831687
-0.00858803
-0.00881361
-0.00899875
-0.00914859
-0.00926813
-0.00936206
-0.00943462
-0.00948958
-0.00953023
-0.00955938
-0.00957937
-0.00959216
-0.00959931
-0.00960205
-0.0096013
-0.00959775
-0.00959185
-0.00958393
-0.00957428
-0.00956335
-0.00955176
-0.0095397
-0.00953077
-2.83495e-05
-1.66259e-05
-4.58409e-06
5.35743e-08
-2.10629e-06
-1.19272e-05
-2.98912e-05
-5.58398e-05
-8.91429e-05
-0.00012886
-0.000173891
-0.000223143
-0.000275666
-0.000330749
-0.000387981
-0.000447261
-0.000508798
-0.000573061
-0.000640728
-0.000712651
-0.000789776
-0.000873096
-0.000963612
-0.00106231
-0.00117012
-0.00128799
-0.00141681
-0.0015575
-0.00171099
-0.00187823
-0.00206017
-0.00225772
-0.00247175
-0.002703
-0.00295204
-0.0032192
-0.0035045
-0.00380756
-0.00412752
-0.00446296
-0.00481184
-0.00517143
-0.00553826
-0.0059081
-0.006276
-0.00663631
-0.00698274
-0.0073085
-0.00760643
-0.00786916
-0.00808929
-0.00825959
-0.00837322
-0.00842392
-0.00840626
-0.0083158
-0.00814927
-0.00790481
-0.00758208
-0.00718242
-0.00670893
-0.00616644
-0.00556185
-0.00490423
-0.00420413
-0.00347383
-0.00272729
-0.00197982
-0.00124775
-0.000547999
0.000102329
0.000686527
0.00118885
0.00159511
0.0018933
0.00207414
0.00213157
0.00206313
0.00187017
0.00155787
0.0011351
0.000614061
9.72218e-06
-0.000660855
-0.00137932
-0.00212689
-0.00288516
-0.00363691
-0.00436671
-0.00506149
-0.00571083
-0.00630714
-0.00684547
-0.00732339
-0.00774112
-0.00810065
-0.00840546
-0.0086601
-0.00886982
-0.00904012
-0.00917652
-0.00928423
-0.00936806
-0.0094323
-0.00948067
-0.00951634
-0.00954194
-0.00955966
-0.00957123
-0.00957805
-0.00958118
-0.0095814
-0.00957927
-0.00957511
-0.00956909
-0.00956126
-0.00955174
-0.00954062
-0.00952667
-0.00951524
-3.27485e-05
-1.88359e-05
-4.6812e-06
4.70501e-07
-2.01836e-06
-1.26995e-05
-3.17983e-05
-5.89006e-05
-9.31505e-05
-0.000133424
-0.000178482
-0.000227145
-0.00027843
-0.000331641
-0.00038642
-0.000442745
-0.00050091
-0.000561479
-0.000625218
-0.000693038
-0.00076593
-0.000844913
-0.000930995
-0.00102516
-0.00112836
-0.00124155
-0.0013657
-0.00150185
-0.00165109
-0.00181458
-0.00199356
-0.00218925
-0.00240288
-0.00263557
-0.00288828
-0.00316171
-0.00345623
-0.00377172
-0.00410752
-0.00446228
-0.00483392
-0.00521952
-0.00561529
-0.00601659
-0.00641794
-0.0068131
-0.00719519
-0.00755682
-0.00789028
-0.00818769
-0.00844123
-0.00864337
-0.00878701
-0.00886574
-0.00887403
-0.00880739
-0.00866255
-0.00843766
-0.00813236
-0.00774796
-0.00728755
-0.00675602
-0.00616006
-0.0055084
-0.00481152
-0.00408165
-0.00333256
-0.00257942
-0.00183849
-0.00112669
-0.000461225
0.000140987
0.000663867
0.00109279
0.00141519
0.00162116
0.00170398
0.00166049
0.00149142
0.00120139
0.000798871
0.000295779
-0.000292996
-0.000950306
-0.00165755
-0.00239557
-0.00314547
-0.0038895
-0.00461169
-0.00529843
-0.00593883
-0.00652489
-0.00705147
-0.00751618
-0.00791915
-0.00826252
-0.00855009
-0.00878683
-0.00897844
-0.00913093
-0.00925025
-0.00934206
-0.00941149
-0.00946304
-0.00950056
-0.00952722
-0.0095456
-0.00955773
-0.00956521
-0.00956922
-0.00957066
-0.0095701
-0.00956793
-0.00956428
-0.00955908
-0.00955211
-0.00954314
-0.00953174
-0.00951541
-0.0095013
-3.09921e-05
-1.52734e-05
6.06578e-07
6.07776e-06
2.99007e-06
-8.97024e-06
-2.97599e-05
-5.86588e-05
-9.4517e-05
-0.000135956
-0.000181539
-0.000229959
-0.000280173
-0.000331495
-0.000383631
-0.000436663
-0.000491012
-0.000547373
-0.000606641
-0.000669836
-0.000738038
-0.000812337
-0.000893798
-0.000983466
-0.00108238
-0.00119162
-0.00131234
-0.00144582
-0.00159345
-0.0017568
-0.00193753
-0.00213735
-0.00235799
-0.00260105
-0.00286796
-0.00315979
-0.00347714
-0.00382003
-0.0041877
-0.00457858
-0.00499014
-0.00541887
-0.00586028
-0.00630892
-0.00675848
-0.00720194
-0.00763167
-0.00803963
-0.00841759
-0.00875727
-0.00905062
-0.00928992
-0.00946804
-0.00957861
-0.00961615
-0.00957629
-0.00945587
-0.00925308
-0.00896763
-0.0086008
-0.00815555
-0.00763666
-0.00705067
-0.00640593
-0.0057126
-0.00498256
-0.00422927
-0.00346759
-0.00271351
-0.00198385
-0.00129576
-0.000666331
-0.000111955
0.000352232
0.000712989
0.000959577
0.00108432
0.00108306
0.000955504
0.000705341
0.000340201
-0.000128628
-0.000686688
-0.00131703
-0.00200102
-0.00271925
-0.00345242
-0.00418223
-0.00489209
-0.00556775
-0.00619766
-0.00677323
-0.00728883
-0.0077417
-0.00813163
-0.00846066
-0.00873261
-0.0089526
-0.00912662
-0.00926108
-0.00936238
-0.00943663
-0.00948941
-0.00952559
-0.00954929
-0.00956387
-0.00957197
-0.00957561
-0.0095763
-0.00957508
-0.00957266
-0.00956946
-0.00956563
-0.00956111
-0.00955559
-0.00954856
-0.00953944
-0.00952736
-0.0095087
-0.00949217
-2.21116e-05
-5.04884e-06
1.19871e-05
1.73136e-05
1.31123e-05
-7.22273e-07
-2.38569e-05
-5.52208e-05
-9.33148e-05
-0.000136456
-0.000182973
-0.000231409
-0.000280661
-0.000330062
-0.000379403
-0.000428902
-0.000479144
-0.000530995
-0.000585523
-0.000643906
-0.000707366
-0.000777126
-0.00085439
-0.000940365
-0.0010363
-0.00114354
-0.00126359
-0.00139816
-0.00154917
-0.00171875
-0.00190916
-0.00212276
-0.00236183
-0.00262848
-0.0029245
-0.00325113
-0.00360895
-0.00399767
-0.00441605
-0.00486178
-0.00533144
-0.00582051
-0.00632347
-0.00683385
-0.0073444
-0.00784727
-0.00833417
-0.00879659
-0.00922595
-0.00961382
-0.00995208
-0.0102331
-0.0104499
-0.0105962
-0.0106669
-0.0106577
-0.0105655
-0.0103888
-0.0101271
-0.00978178
-0.00935552
-0.00885285
-0.00827993
-0.00764471
-0.0069568
-0.00622753
-0.0054698
-0.00469793
-0.00392745
-0.00317482
-0.00245703
-0.00179114
-0.00119382
-0.000680696
-0.000265777
3.91947e-05
0.00022533
0.000287118
0.000222825
3.47216e-05
-0.000270883
-0.000683842
-0.00119059
-0.00177479
-0.0024181
-0.00310112
-0.00380431
-0.00450887
-0.00519762
-0.00585556
-0.0064704
-0.00703278
-0.00753634
-0.00797766
-0.00835597
-0.00867286
-0.00893182
-0.00913784
-0.00929689
-0.00941551
-0.00950037
-0.00955796
-0.00959425
-0.00961453
-0.00962332
-0.00962426
-0.00962023
-0.00961337
-0.00960519
-0.00959672
-0.00958856
-0.00958096
-0.00957393
-0.0095672
-0.00956024
-0.00955228
-0.00954244
-0.00952944
-0.00950881
-0.00949036
-5.33295e-06
1.25905e-05
3.01295e-05
3.46815e-05
2.86941e-05
1.2281e-05
-1.38997e-05
-4.83833e-05
-8.92794e-05
-0.00013457
-0.000182335
-0.000230972
-0.000279332
-0.000326796
-0.000373275
-0.000419158
-0.000465233
-0.000512584
-0.000562496
-0.000616361
-0.000675616
-0.000741709
-0.000816102
-0.000900312
-0.000995974
-0.00110491
-0.0012292
-0.00137122
-0.00153359
-0.00171919
-0.00193102
-0.00217206
-0.0024451
-0.00275257
-0.00309626
-0.0034772
-0.00389541
-0.00434981
-0.00483813
-0.00535688
-0.00590139
-0.00646591
-0.00704375
-0.00762745
-0.00820892
-0.00877967
-0.00933098
-0.00985409
-0.0103403
-0.0107813
-0.0111691
-0.0114963
-0.0117561
-0.0119427
-0.012051
-0.012077
-0.012018
-0.0118722
-0.0116393
-0.0113204
-0.0109181
-0.0104364
-0.00988101
-0.00925929
-0.00858015
-0.00785414
-0.00709337
-0.00631138
-0.00552295
-0.00474393
-0.00399087
-0.00328063
-0.00262994
-0.00205483
-0.00157005
-0.00118842
-0.000920263
-0.000772744
-0.000749457
-0.000850064
-0.00107016
-0.00140133
-0.00183152
-0.00234554
-0.00292582
-0.00355333
-0.00420854
-0.00487236
-0.005527
-0.00615675
-0.00674845
-0.00729182
-0.00777963
-0.00820756
-0.00857407
-0.00887999
-0.00912824
-0.00932328
-0.00947075
-0.00957703
-0.00964876
-0.00969255
-0.00971463
-0.00972063
-0.0097154
-0.00970298
-0.00968653
-0.00966844
-0.00965038
-0.00963344
-0.00961822
-0.00960494
-0.00959346
-0.00958341
-0.00957406
-0.00956445
-0.00955345
-0.00953947
-0.0095174
-0.00949767
2.01588e-05
3.84566e-05
5.5808e-05
5.88645e-05
5.03339e-05
3.05896e-05
6.617e-07
-3.75492e-05
-8.17333e-05
-0.000129527
-0.000178772
-0.000227742
-0.000275285
-0.00032087
-0.000364572
-0.000406996
-0.000449178
-0.000492469
-0.000538431
-0.000588747
-0.00064517
-0.000709505
-0.000783641
-0.000869609
-0.000969665
-0.00108636
-0.00122258
-0.00138157
-0.00156684
-0.00178207
-0.00203094
-0.00231689
-0.00264291
-0.00301127
-0.00342329
-0.00387916
-0.00437781
-0.00491684
-0.00549255
-0.0061
-0.00673316
-0.00738506
-0.00804797
-0.00871359
-0.00937326
-0.0100181
-0.0106392
-0.0112278
-0.0117752
-0.0122735
-0.0127147
-0.013092
-0.0133989
-0.0136297
-0.0137799
-0.0138456
-0.0138242
-0.0137142
-0.013515
-0.0132278
-0.0128546
-0.0123992
-0.0118667
-0.0112635
-0.0105979
-0.00987936
-0.00911902
-0.00832933
-0.00752409
-0.00671819
-0.00592741
-0.00516807
-0.00445669
-0.00380942
-0.00324159
-0.00276704
-0.00239753
-0.00214211
-0.00200656
-0.00199296
-0.0020994
-0.00231991
-0.00264464
-0.00306028
-0.00355068
-0.00409776
-0.0046824
-0.00528547
-0.00588879
-0.0064759
-0.00703273
-0.00754797
-0.0080133
-0.00842336
-0.00877556
-0.00906981
-0.00930812
-0.00949422
-0.00963309
-0.00973059
-0.00979306
-0.00982692
-0.00983839
-0.00983323
-0.00981655
-0.00979265
-0.00976504
-0.00973639
-0.00970862
-0.009683
-0.00966024
-0.0096406
-0.00962395
-0.00960984
-0.00959746
-0.00958571
-0.00957328
-0.00955836
-0.00953548
-0.00951516
5.53365e-05
7.35134e-05
8.99637e-05
9.07633e-05
7.89037e-05
5.50785e-05
2.07439e-05
-2.17282e-05
-6.95955e-05
-0.00012016
-0.000171057
-0.000220489
-0.00026735
-0.000311258
-0.000352505
-0.000391966
-0.000430983
-0.000471236
-0.000514646
-0.000563296
-0.000619395
-0.000685291
-0.000763519
-0.000856879
-0.00096851
-0.00110194
-0.00126107
-0.00145013
-0.00167352
-0.00193561
-0.00224046
-0.00259157
-0.00299156
-0.00344195
-0.00394294
-0.00449335
-0.00509051
-0.00573042
-0.00640776
-0.00711616
-0.00784829
-0.00859615
-0.00935121
-0.0101046
-0.0108473
-0.0115702
-0.0122645
-0.0129216
-0.0135329
-0.0140909
-0.014588
-0.0150177
-0.015374
-0.0156517
-0.0158465
-0.0159549
-0.0159745
-0.0159038
-0.0157425
-0.0154912
-0.015152
-0.014728
-0.0142238
-0.0136449
-0.0129986
-0.0122934
-0.0115392
-0.010747
-0.00992938
-0.00909997
-0.00827338
-0.007465
-0.00669065
-0.00596625
-0.0053073
-0.00472837
-0.00424251
-0.00386058
-0.00359072
-0.00343774
-0.00340277
-0.00348294
-0.00367142
-0.00395762
-0.0043277
-0.00476528
-0.00525235
-0.00577024
-0.00630065
-0.00682656
-0.00733298
-0.00780746
-0.00824044
-0.00862525
-0.00895807
-0.0092376
-0.00946476
-0.00964225
-0.00977417
-0.00986558
-0.00992219
-0.00994995
-0.00995479
-0.00994234
-0.00991771
-0.00988538
-0.00984907
-0.00981173
-0.00977556
-0.00974206
-0.00971216
-0.00968625
-0.00966429
-0.00964587
-0.00963018
-0.00961606
-0.00960212
-0.00958641
-0.00956335
-0.00954315
0.000101367
0.0001189
0.000133706
0.000131474
0.000115511
8.68983e-05
4.75724e-05
3.99363e-07
-5.14524e-05
-0.000104985
-0.000157686
-0.000207752
-0.000254198
-0.000296858
-0.00033631
-0.000373766
-0.000410944
-0.000449944
-0.000493161
-0.000543226
-0.000603
-0.000675602
-0.000764477
-0.000873461
-0.00100682
-0.00116923
-0.0013657
-0.00160139
-0.00188137
-0.0022103
-0.00259213
-0.00302976
-0.00352479
-0.00407734
-0.00468598
-0.00534772
-0.00605811
-0.00681142
-0.00760083
-0.00841863
-0.00925646
-0.0101055
-0.0109566
-0.0118007
-0.0126284
-0.0134308
-0.014199
-0.0149248
-0.0156001
-0.0162175
-0.0167702
-0.0172521
-0.0176576
-0.0179822
-0.018222
-0.0183738
-0.0184355
-0.0184059
-0.0182847
-0.0180724
-0.0177708
-0.0173826
-0.0169116
-0.0163629
-0.0157424
-0.0150576
-0.0143169
-0.01353
-0.0127078
-0.0118624
-0.0110069
-0.0101552
-0.00932202
-0.00852246
-0.00777166
-0.00708438
-0.00647447
-0.00595432
-0.00553421
-0.00522178
-0.00502141
-0.00493389
-0.00495614
-0.00508121
-0.00529857
-0.00559456
-0.00595323
-0.0063572
-0.00678866
-0.00723042
-0.00766673
-0.00808401
-0.00847128
-0.00882038
-0.00912595
-0.00938523
-0.00959775
-0.00976497
-0.00988981
-0.00997634
-0.0100294
-0.0100541
-0.0100558
-0.0100399
-0.0100111
-0.00997386
-0.00993203
-0.00988871
-0.00984632
-0.00980663
-0.00977079
-0.00973942
-0.00971265
-0.00969019
-0.00967131
-0.0096549
-0.00963956
-0.00962331
-0.00960073
-0.00958126
0.0001596
0.000175918
0.000188297
0.000182265
0.000161469
0.000127441
8.26394e-05
3.04302e-05
-2.56232e-05
-8.22841e-05
-0.000136968
-0.000187956
-0.000234469
-0.000276641
-0.000315416
-0.000352428
-0.000389868
-0.000430381
-0.000476991
-0.000533078
-0.000602389
-0.00068908
-0.000797769
-0.000933554
-0.00110197
-0.0013089
-0.00156029
-0.00186196
-0.00221916
-0.00263624
-0.00311633
-0.00366106
-0.00427037
-0.0049425
-0.00567404
-0.00646004
-0.00729426
-0.00816938
-0.0090772
-0.0100089
-0.0109554
-0.0119072
-0.0128548
-0.0137887
-0.0147
-0.0155795
-0.0164189
-0.0172102
-0.0179459
-0.0186192
-0.0192238
-0.0197544
-0.020206
-0.0205745
-0.0208568
-0.0210501
-0.0211527
-0.0211637
-0.0210827
-0.0209105
-0.0206485
-0.0202991
-0.0198656
-0.0193521
-0.0187637
-0.0181066
-0.017388
-0.0166158
-0.0157995
-0.0149491
-0.0140759
-0.0131922
-0.0123109
-0.0114457
-0.0106107
-0.00982027
-0.00908823
-0.00842785
-0.00785103
-0.00736782
-0.00698578
-0.00670948
-0.00654008
-0.00647503
-0.00650809
-0.00662952
-0.00682662
-0.00708445
-0.00738673
-0.00771684
-0.00805879
-0.00839809
-0.00872236
-0.00902175
-0.00928909
-0.00951985
-0.00971184
-0.00986495
-0.00998067
-0.0100618
-0.010112
-0.0101354
-0.0101367
-0.0101204
-0.0100908
-0.0100523
-0.0100083
-0.00996212
-0.00991623
-0.00987262
-0.00983269
-0.00979727
-0.00976674
-0.009741
-0.00971947
-0.00970115
-0.00968473
-0.0096683
-0.00964676
-0.00962857
0.000231512
0.000245988
0.000255116
0.000244546
0.000218259
0.000178292
0.000127647
7.01682e-05
9.75567e-06
-5.02002e-05
-0.000107144
-0.000159543
-0.000206925
-0.000249819
-0.000289634
-0.000328535
-0.000369319
-0.000415337
-0.000470449
-0.000539021
-0.000625946
-0.000736672
-0.000877196
-0.00105399
-0.00127385
-0.00154362
-0.00186986
-0.00225844
-0.00271413
-0.00324025
-0.00383839
-0.0045083
-0.00524782
-0.00605305
-0.00691848
-0.00783727
-0.00880149
-0.0098024
-0.0108307
-0.0118766
-0.0129305
-0.0139823
-0.0150225
-0.0160416
-0.0170307
-0.0179811
-0.0188849
-0.0197347
-0.0205237
-0.0212458
-0.0218955
-0.0224681
-0.0229596
-0.0233666
-0.0236863
-0.0239169
-0.0240568
-0.0241056
-0.0240631
-0.0239301
-0.0237079
-0.0233986
-0.023005
-0.0225306
-0.0219796
-0.021357
-0.0206686
-0.0199212
-0.019122
-0.0182796
-0.017403
-0.0165025
-0.0155891
-0.0146744
-0.0137709
-0.0128916
-0.0120496
-0.0112581
-0.0105297
-0.0098761
-0.00930735
-0.00883148
-0.00845381
-0.00817658
-0.00799854
-0.00791496
-0.0079177
-0.00799566
-0.00813549
-0.00832239
-0.00854111
-0.00877689
-0.00901628
-0.00924779
-0.00946227
-0.00965306
-0.0098159
-0.00994871
-0.0100512
-0.0101245
-0.010171
-0.0101936
-0.0101957
-0.0101812
-0.0101536
-0.0101167
-0.0100738
-0.0100278
-0.00998129
-0.00993636
-0.00989456
-0.00985697
-0.00982417
-0.00979629
-0.00977299
-0.00975342
-0.00973641
-0.00972021
-0.00970024
-0.00968374
0.000318639
0.000330584
0.000335603
0.000319804
0.00028747
0.000241165
0.000184428
0.00012153
5.6619e-05
-6.87072e-06
-6.6531e-05
-0.000121131
-0.00017062
-0.000216033
-0.000259366
-0.000303453
-0.000351869
-0.000408877
-0.000479412
-0.00056908
-0.000684163
-0.000831583
-0.00101879
-0.00125356
-0.00154367
-0.00189648
-0.00231853
-0.00281501
-0.00338944
-0.0040434
-0.00477638
-0.00558581
-0.00646723
-0.00741451
-0.00842013
-0.00947549
-0.0105712
-0.0116972
-0.0128433
-0.0139992
-0.0151545
-0.0162993
-0.0174238
-0.0185189
-0.0195761
-0.0205873
-0.0215452
-0.0224431
-0.0232752
-0.0240363
-0.0247217
-0.0253276
-0.0258508
-0.0262887
-0.0266392
-0.0269009
-0.027073
-0.0271552
-0.0271477
-0.0270513
-0.0268673
-0.0265977
-0.0262447
-0.0258114
-0.0253012
-0.0247182
-0.0240671
-0.0233529
-0.0225818
-0.0217601
-0.0208952
-0.0199949
-0.0190681
-0.0181242
-0.0171735
-0.016227
-0.0152961
-0.0143931
-0.0135301
-0.0127192
-0.0119721
-0.011299
-0.0107091
-0.0102088
-0.00980222
-0.00949015
-0.00927011
-0.00913629
-0.00907986
-0.00908952
-0.00915226
-0.00925429
-0.00938195
-0.00952257
-0.00966511
-0.00980064
-0.00992243
-0.010026
-0.0101088
-0.0101701
-0.0102102
-0.0102308
-0.0102338
-0.0102221
-0.0101982
-0.0101652
-0.0101259
-0.0100829
-0.0100385
-0.00999491
-0.00995364
-0.00991595
-0.00988265
-0.00985409
-0.00983015
-0.00981019
-0.00979324
-0.00977775
-0.00975974
-0.00974522
0.000422472
0.000431142
0.000431174
0.000409531
0.000370716
0.000317806
0.000254839
0.000186422
0.000116832
4.94191e-05
-1.3691e-05
-7.16995e-05
-0.0001251
-0.000175569
-0.000225834
-0.000279574
-0.00034135
-0.000416575
-0.000511504
-0.000633214
-0.000789536
-0.000988907
-0.00124011
-0.00155189
-0.00193249
-0.00238912
-0.00292748
-0.00355133
-0.00426222
-0.00505941
-0.0059399
-0.00689866
-0.00792887
-0.00902226
-0.0101694
-0.0113602
-0.0125838
-0.0138294
-0.0150859
-0.0163426
-0.017589
-0.0188152
-0.0200118
-0.0211702
-0.0222824
-0.0233412
-0.0243403
-0.025274
-0.0261373
-0.026926
-0.0276366
-0.0282659
-0.0288117
-0.0292721
-0.0296458
-0.029932
-0.0301301
-0.0302404
-0.0302634
-0.0301998
-0.0300512
-0.0298191
-0.0295058
-0.0291136
-0.0286457
-0.0281051
-0.0274956
-0.0268213
-0.0260867
-0.0252967
-0.0244567
-0.0235728
-0.0226513
-0.0216995
-0.0207252
-0.0197369
-0.0187441
-0.0177568
-0.0167857
-0.0158422
-0.0149379
-0.0140843
-0.0132925
-0.0125728
-0.0119335
-0.011381
-0.010919
-0.0105478
-0.0102646
-0.0100636
-0.00993583
-0.0098703
-0.00985468
-0.00987622
-0.00992265
-0.00998291
-0.0100477
-0.0101097
-0.0101636
-0.0102062
-0.0102356
-0.0102514
-0.010254
-0.0102448
-0.0102253
-0.0101977
-0.0101638
-0.010126
-0.0100862
-0.0100463
-0.0100079
-0.00997222
-0.00994031
-0.00991267
-0.00988937
-0.00987004
-0.00985386
-0.00983956
-0.00982381
-0.0098114
0.000544346
0.000548957
0.000543126
0.000515125
0.000469532
0.000409881
0.000340625
0.000266584
0.000192023
0.000120052
5.23735e-05
-1.07881e-05
-7.06144e-05
-0.000129574
-0.000191305
-0.00026054
-0.000343056
-0.000445657
-0.000576135
-0.000743176
-0.000956176
-0.00122492
-0.00155916
-0.00196804
-0.00245954
-0.00303988
-0.00371315
-0.00448092
-0.00534226
-0.00629374
-0.00732973
-0.00844268
-0.00962349
-0.0108619
-0.0121469
-0.0134668
-0.01481
-0.0161648
-0.0175197
-0.0188639
-0.0201871
-0.0214798
-0.0227333
-0.0239396
-0.0250919
-0.0261839
-0.0272104
-0.0281667
-0.0290489
-0.0298539
-0.030579
-0.0312222
-0.0317818
-0.0322568
-0.0326463
-0.0329502
-0.0331684
-0.0333014
-0.0333498
-0.0333147
-0.0331975
-0.0329999
-0.0327237
-0.0323711
-0.0319447
-0.031447
-0.0308811
-0.0302501
-0.0295575
-0.0288067
-0.0280019
-0.0271471
-0.0262469
-0.0253063
-0.0243308
-0.0233264
-0.0222999
-0.0212589
-0.0202118
-0.0191681
-0.018138
-0.0171327
-0.0161638
-0.0152433
-0.0143827
-0.0135929
-0.012883
-0.0122601
-0.0117281
-0.011288
-0.0109369
-0.010669
-0.0104754
-0.010345
-0.0102658
-0.0102254
-0.0102122
-0.0102161
-0.0102284
-0.0102429
-0.0102549
-0.0102613
-0.0102608
-0.0102527
-0.0102373
-0.0102153
-0.0101881
-0.0101571
-0.0101237
-0.0100896
-0.0100561
-0.0100245
-0.00999579
-0.00997069
-0.0099494
-0.00993174
-0.0099171
-0.00990445
-0.0098911
-0.00988082
0.000685296
0.000685058
0.000672519
0.000637758
0.000585233
0.000518817
0.000443249
0.00036341
0.000283381
0.000205874
0.000132008
6.12809e-05
-8.33538e-06
-8.02808e-05
-0.000159309
-0.000251428
-0.000363867
-0.000505023
-0.000684348
-0.000912133
-0.00119914
-0.00155612
-0.00199315
-0.00251903
-0.00314061
-0.00386234
-0.00468592
-0.00561026
-0.00663155
-0.00774355
-0.00893795
-0.0102048
-0.0115329
-0.0129102
-0.0143242
-0.0157624
-0.0172122
-0.0186616
-0.0200992
-0.0215145
-0.0228976
-0.0242399
-0.0255336
-0.0267719
-0.0279489
-0.0290598
-0.0301002
-0.0310668
-0.0319568
-0.0327679
-0.0334984
-0.034147
-0.0347129
-0.0351955
-0.0355946
-0.0359104
-0.0361433
-0.0362939
-0.0363631
-0.0363522
-0.0362624
-0.0360953
-0.0358529
-0.0355369
-0.0351497
-0.0346933
-0.0341704
-0.0335832
-0.0329345
-0.032227
-0.0314632
-0.0306462
-0.0297788
-0.0288641
-0.0279057
-0.0269072
-0.0258729
-0.0248077
-0.0237173
-0.0226087
-0.0214896
-0.0203695
-0.0192587
-0.0181692
-0.0171138
-0.0161058
-0.0151585
-0.0142845
-0.0134946
-0.012797
-0.0121967
-0.0116947
-0.0112881
-0.0109703
-0.0107313
-0.0105595
-0.0104419
-0.0103657
-0.0103193
-0.0102926
-0.0102776
-0.0102682
-0.0102599
-0.0102502
-0.0102373
-0.0102207
-0.0102005
-0.0101771
-0.0101515
-0.0101247
-0.0100978
-0.0100721
-0.0100484
-0.0100273
-0.0100094
-0.0099944
-0.00998202
-0.00997142
-0.00996052
-0.00995224
0.000845897
0.000840059
0.000820042
0.000778238
0.000718756
0.000645624
0.000563698
0.000477731
0.000391443
0.000306969
0.00022468
0.000143183
5.94223e-05
-3.1211e-05
-0.000134802
-0.00025886
-0.000412254
-0.000605088
-0.000848453
-0.00115403
-0.00153354
-0.00199803
-0.00255715
-0.00321846
-0.00398688
-0.00486431
-0.00584957
-0.00693853
-0.00812437
-0.00939802
-0.0107486
-0.012164
-0.013631
-0.0151363
-0.0166662
-0.0182074
-0.0197473
-0.0212739
-0.0227762
-0.0242444
-0.0256696
-0.0270443
-0.0283618
-0.0296168
-0.0308045
-0.0319214
-0.0329643
-0.0339308
-0.0348193
-0.0356283
-0.036357
-0.0370046
-0.0375709
-0.038056
-0.0384599
-0.0387832
-0.0390265
-0.0391906
-0.0392766
-0.0392858
-0.0392194
-0.0390791
-0.0388665
-0.0385834
-0.0382319
-0.0378137
-0.0373311
-0.0367859
-0.0361803
-0.0355163
-0.0347957
-0.0340204
-0.0331922
-0.0323129
-0.0313842
-0.030408
-0.0293863
-0.0283217
-0.0272172
-0.0260769
-0.0249056
-0.02371
-0.0224981
-0.02128
-0.0200676
-0.0188746
-0.0177162
-0.0166086
-0.0155678
-0.0146091
-0.0137452
-0.0129857
-0.0123357
-0.0117955
-0.0113606
-0.011022
-0.0107679
-0.0105842
-0.0104564
-0.010371
-0.0103159
-0.010281
-0.0102585
-0.0102428
-0.0102298
-0.0102172
-0.0102034
-0.0101879
-0.0101708
-0.0101525
-0.0101337
-0.0101152
-0.0100979
-0.0100823
-0.0100688
-0.0100575
-0.010048
-0.0100398
-0.0100313
-0.0100248
0.00102625
0.00101389
0.000985791
0.000936861
0.000870474
0.000790693
0.000702264
0.000609603
0.000515867
0.00042244
0.000328766
0.000232382
0.000129014
1.26739e-05
-0.000124265
-0.000290994
-0.000498127
-0.000757444
-0.00108146
-0.00148281
-0.00197352
-0.00256414
-0.003263
-0.00407559
-0.00500412
-0.00604743
-0.00720112
-0.00845785
-0.00980779
-0.0112392
-0.0127388
-0.0142925
-0.0158857
-0.017504
-0.019133
-0.0207593
-0.0223706
-0.0239554
-0.0255036
-0.0270065
-0.0284567
-0.0298477
-0.0311745
-0.0324329
-0.0336197
-0.0347321
-0.0357685
-0.0367273
-0.0376076
-0.0384088
-0.0391307
-0.039773
-0.040336
-0.0408201
-0.0412256
-0.0415533
-0.0418039
-0.0419785
-0.0420781
-0.042104
-0.0420576
-0.0419402
-0.0417537
-0.0414995
-0.0411796
-0.0407956
-0.0403494
-0.0398426
-0.0392771
-0.0386542
-0.0379755
-0.037242
-0.036455
-0.0356151
-0.034723
-0.0337791
-0.0327839
-0.0317379
-0.0306418
-0.0294971
-0.0283059
-0.0270715
-0.0257989
-0.0244951
-0.0231695
-0.0218341
-0.0205035
-0.0191948
-0.0179272
-0.0167207
-0.0155949
-0.0145677
-0.0136536
-0.0128618
-0.0121961
-0.0116539
-0.011227
-0.0109026
-0.010665
-0.0104978
-0.0103846
-0.010311
-0.010265
-0.010237
-0.0102199
-0.0102087
-0.0102001
-0.0101921
-0.0101837
-0.0101745
-0.0101647
-0.0101546
-0.0101448
-0.0101358
-0.0101278
-0.010121
-0.0101149
-0.0101094
-0.010103
-0.010098
0.00122579
0.00120578
0.00116907
0.00111313
0.00103999
0.000953586
0.000858329
0.000758072
0.000655212
0.000550191
0.000441346
0.000324954
0.000195323
4.48892e-05
-0.000135689
-0.000357383
-0.000632521
-0.000974342
-0.00139635
-0.0019115
-0.00253129
-0.0032649
-0.00411848
-0.00509467
-0.00619245
-0.00740723
-0.00873123
-0.0101539
-0.0116626
-0.0132431
-0.01488
-0.0165578
-0.0182609
-0.0199741
-0.0216833
-0.0233753
-0.0250385
-0.0266627
-0.028239
-0.02976
-0.0312199
-0.0326137
-0.0339378
-0.0351894
-0.0363662
-0.037467
-0.0384906
-0.0394367
-0.0403047
-0.0410949
-0.0418072
-0.042442
-0.0429997
-0.0434809
-0.0438863
-0.0442166
-0.0444727
-0.0446556
-0.0447665
-0.0448066
-0.0447771
-0.0446795
-0.0445154
-0.0442862
-0.0439938
-0.0436395
-0.0432252
-0.0427524
-0.0422224
-0.0416366
-0.0409962
-0.0403019
-0.0395543
-0.0387537
-0.0378999
-0.0369926
-0.0360312
-0.0350146
-0.033942
-0.0328126
-0.0316262
-0.030383
-0.029085
-0.0277355
-0.0263404
-0.0249084
-0.0234515
-0.0219853
-0.0205288
-0.0191042
-0.0177355
-0.0164474
-0.0152628
-0.0142015
-0.0132771
-0.0124967
-0.0118594
-0.011357
-0.0109756
-0.0106972
-0.0105025
-0.0103724
-0.0102899
-0.0102406
-0.0102135
-0.0102
-0.0101945
-0.0101929
-0.0101928
-0.0101928
-0.0101925
-0.0101915
-0.0101901
-0.0101885
-0.0101868
-0.010185
-0.0101829
-0.0101801
-0.0101757
-0.0101719
0.00144202
0.00141461
0.00136857
0.00130563
0.00122594
0.00113282
0.00103015
0.000920977
0.000806743
0.000686753
0.000558052
0.000415467
0.000251701
5.74491e-05
-0.00017844
-0.000468689
-0.000827133
-0.00126805
-0.0018053
-0.00245135
-0.00321628
-0.00410703
-0.00512679
-0.0062748
-0.00754644
-0.00893353
-0.0104249
-0.012007
-0.0136646
-0.0153813
-0.0171403
-0.0189248
-0.020719
-0.0225077
-0.0242772
-0.0260156
-0.0277123
-0.0293585
-0.030947
-0.0324721
-0.0339294
-0.0353155
-0.0366281
-0.0378655
-0.0390268
-0.0401113
-0.0411189
-0.0420496
-0.0429037
-0.0436814
-0.0443834
-0.04501
-0.0455619
-0.0460399
-0.0464445
-0.0467767
-0.0470374
-0.0472274
-0.047348
-0.0474002
-0.0473854
-0.0473048
-0.0471599
-0.0469523
-0.0466833
-0.0463546
-0.0459676
-0.0455238
-0.0450245
-0.0444708
-0.0438638
-0.043204
-0.0424919
-0.0417274
-0.0409102
-0.0400392
-0.0391133
-0.0381307
-0.0370894
-0.0359872
-0.0348219
-0.0335916
-0.0322952
-0.0309329
-0.0295068
-0.0280214
-0.0264849
-0.0249091
-0.0233106
-0.0217103
-0.0201335
-0.0186085
-0.0171649
-0.0158314
-0.0146327