/*--------------------------------*- C++ -*----------------------------------*\
| =========                 |                                                 |
| \\      /  F ield         | OpenFOAM: The Open Source CFD Toolbox           |
|  \\    /   O peration     | Version:  2406                                  |
|   \\  /    A nd           | Website:  www.openfoam.com                      |
|    \\/     M anipulation  |                                                 |
\*---------------------------------------------------------------------------*/
FoamFile
{
    version     2.0;
    format      ascii;
    arch        "LSB;label=32;scalar=64";
    class       volVectorField;
    location    "23.4";
    object      dU;
}
// * * * * * * * * * * * * * * * * * * * * * * * * * * * * * * * * * * * * * //

dimensions      [0 1 -1 0 0 0 0];

internalField   nonuniform List<vector> 
900
(
(7.91311e-06 -9.81542e-07 0)
(-8.03482e-06 -4.41218e-06 0)
(-3.39094e-05 -3.64458e-06 0)
(-4.2668e-05 -4.85288e-07 0)
(-4.99663e-05 4.36709e-06 0)
(-5.6326e-05 1.0103e-05 0)
(-7.14732e-05 1.61732e-05 0)
(-9.95158e-05 2.30941e-05 0)
(-0.000141789 4.23678e-05 0)
(-0.000169973 7.64952e-05 0)
(-0.000154563 9.13857e-05 0)
(-0.000100461 6.52407e-05 0)
(-3.75685e-05 1.82189e-05 0)
(1.23497e-05 -2.77561e-05 0)
(6.85095e-05 -6.51686e-05 0)
(0.000159732 -9.37856e-05 0)
(0.000297576 -0.000116979 0)
(0.000460219 -0.000137603 0)
(0.000621456 -0.00015753 0)
(0.000720877 -0.000175817 0)
(0.00071874 -0.000189437 0)
(0.000548184 -0.000195557 0)
(0.000233254 -0.000189892 0)
(-0.000167906 -0.000176127 0)
(-0.000446762 -0.000155362 0)
(-0.000474354 -0.000126546 0)
(-0.000280771 -8.96308e-05 0)
(-0.000102176 -4.00575e-05 0)
(-2.83073e-05 -6.94625e-06 0)
(2.26504e-05 4.54936e-06 0)
(5.17337e-06 8.11327e-06 0)
(-9.93551e-06 -1.48187e-06 0)
(-2.94683e-05 -4.29645e-06 0)
(-3.33759e-05 -3.7194e-06 0)
(-3.77321e-05 2.59818e-06 0)
(-4.33153e-05 1.0605e-05 0)
(-5.87302e-05 2.20673e-05 0)
(-7.63806e-05 3.36831e-05 0)
(-9.61093e-05 3.24346e-05 0)
(-0.000135783 7.02904e-06 0)
(-0.00018801 -4.31649e-05 0)
(-0.000198191 -0.000123515 0)
(-0.000151581 -0.000226505 0)
(-8.69468e-05 -0.00033001 0)
(-9.72027e-06 -0.000413887 0)
(9.815e-05 -0.000474485 0)
(0.000245591 -0.000520801 0)
(0.000412494 -0.000559792 0)
(0.00057648 -0.000596899 0)
(0.000682195 -0.000626061 0)
(0.000691819 -0.000637306 0)
(0.000539859 -0.000616913 0)
(0.00024413 -0.000550173 0)
(-0.000142663 -0.000454242 0)
(-0.000405073 -0.000339938 0)
(-0.000412336 -0.000257783 0)
(-0.000192588 -0.000194947 0)
(-1.53878e-05 -0.000136104 0)
(2.01158e-05 -9.29699e-05 0)
(3.53216e-05 -8.09049e-05 0)
(1.3695e-06 3.43663e-05 0)
(-1.76834e-05 1.86055e-05 0)
(-3.67701e-05 1.41162e-05 0)
(-3.57003e-05 1.13781e-05 0)
(-3.47242e-05 1.65515e-05 0)
(-3.74196e-05 1.76132e-05 0)
(-5.42167e-05 6.04716e-06 0)
(-0.000104558 -3.80953e-05 0)
(-0.000194667 -0.000122617 0)
(-0.000277828 -0.000248345 0)
(-0.000317682 -0.000384463 0)
(-0.000313293 -0.000507252 0)
(-0.000268539 -0.000622663 0)
(-0.000194413 -0.000729632 0)
(-9.16201e-05 -0.00081741 0)
(3.93915e-05 -0.000885945 0)
(0.000199548 -0.000948568 0)
(0.000370897 -0.0010107 0)
(0.000540306 -0.00107931 0)
(0.000663111 -0.00113745 0)
(0.000707251 -0.0011688 0)
(0.000610805 -0.00113439 0)
(0.000367546 -0.00100481 0)
(1.08831e-05 -0.00078395 0)
(-0.000278635 -0.000494007 0)
(-0.000347757 -0.000275038 0)
(-0.000162366 -0.000135891 0)
(1.8451e-06 -0.000125343 0)
(3.12228e-05 -0.000134829 0)
(3.66174e-05 -0.000144886 0)
(-6.04684e-06 5.69588e-05 0)
(-2.81742e-05 3.41827e-05 0)
(-4.27728e-05 3.29493e-05 0)
(-3.75717e-05 2.7502e-05 0)
(-3.80766e-05 2.22695e-05 0)
(-6.52001e-05 -1.12531e-05 0)
(-0.000134879 -8.58978e-05 0)
(-0.00023148 -0.000218238 0)
(-0.000331778 -0.00038102 0)
(-0.000418325 -0.000539333 0)
(-0.000462484 -0.000677308 0)
(-0.000447628 -0.000790466 0)
(-0.000381986 -0.000879753 0)
(-0.000287628 -0.00095016 0)
(-0.000171205 -0.00100926 0)
(-3.85935e-05 -0.00106481 0)
(0.000113713 -0.00113276 0)
(0.000272103 -0.00121439 0)
(0.000436424 -0.0013196 0)
(0.00057465 -0.00142415 0)
(0.000670872 -0.00151549 0)
(0.000672664 -0.00153094 0)
(0.000555304 -0.00143303 0)
(0.00032073 -0.00117463 0)
(5.49874e-05 -0.000776079 0)
(-9.21272e-05 -0.000372038 0)
(-5.27805e-05 -0.000104845 0)
(-1.12264e-05 -1.83163e-05 0)
(3.7002e-06 -0.000109258 0)
(2.72467e-05 -0.000128851 0)
(-1.82424e-05 9.73665e-05 0)
(-4.56337e-05 7.30017e-05 0)
(-5.8622e-05 7.60201e-05 0)
(-6.26558e-05 5.64179e-05 0)
(-9.11892e-05 1.40824e-05 0)
(-0.00016784 -8.56048e-05 0)
(-0.000285359 -0.000237953 0)
(-0.000419826 -0.000426232 0)
(-0.000529703 -0.000612485 0)
(-0.000583473 -0.000764803 0)
(-0.000574904 -0.0008642 0)
(-0.000519499 -0.00091899 0)
(-0.000430482 -0.000948337 0)
(-0.00032536 -0.000966338 0)
(-0.000207671 -0.000985647 0)
(-8.60917e-05 -0.00101236 0)
(4.67357e-05 -0.00106187 0)
(0.000178796 -0.0011319 0)
(0.000322291 -0.00123761 0)
(0.00045463 -0.0013556 0)
(0.000581996 -0.00148933 0)
(0.000666818 -0.00157304 0)
(0.00068739 -0.00158185 0)
(0.00061899 -0.00142394 0)
(0.000465031 -0.00109199 0)
(0.000266244 -0.000648048 0)
(0.000168072 -0.000248096 0)
(1.0429e-05 -3.34057e-05 0)
(-7.09635e-05 -0.000112618 0)
(2.06701e-05 -0.000145044 0)
(-3.06566e-05 0.00012128 0)
(-6.21135e-05 9.98771e-05 0)
(-8.4361e-05 0.000102027 0)
(-0.000124526 5.68717e-05 0)
(-0.00020383 -3.55589e-05 0)
(-0.000338873 -0.000197445 0)
(-0.000491612 -0.000397084 0)
(-0.000615615 -0.00059328 0)
(-0.000675619 -0.000737621 0)
(-0.000672519 -0.00081889 0)
(-0.000616888 -0.000847723 0)
(-0.000530311 -0.000842804 0)
(-0.000426361 -0.000824139 0)
(-0.000320798 -0.000804289 0)
(-0.000212443 -0.000795535 0)
(-0.000110156 -0.000799498 0)
(-2.15389e-06 -0.000828718 0)
(9.80411e-05 -0.000877027 0)
(0.000211384 -0.000962612 0)
(0.000317231 -0.00106503 0)
(0.000442094 -0.00120518 0)
(0.000561036 -0.00132762 0)
(0.000675421 -0.00143845 0)
(0.00076812 -0.00142978 0)
(0.000772701 -0.00128494 0)
(0.000680818 -0.000977826 0)
(0.000507064 -0.000493455 0)
(0.000121965 -0.000300955 0)
(-8.64142e-05 -2.55617e-05 0)
(3.21146e-06 -0.000239473 0)
(-4.43598e-05 0.000116626 0)
(-8.59042e-05 9.95951e-05 0)
(-0.000132962 8.8259e-05 0)
(-0.0002275 9.77041e-06 0)
(-0.000366652 -0.000129499 0)
(-0.000543526 -0.00032556 0)
(-0.000688145 -0.000520585 0)
(-0.000762558 -0.000667679 0)
(-0.000755027 -0.000744497 0)
(-0.000690986 -0.000761328 0)
(-0.000593732 -0.000739041 0)
(-0.000488176 -0.000700028 0)
(-0.000381366 -0.000662893 0)
(-0.000283682 -0.000634189 0)
(-0.000187911 -0.000621482 0)
(-0.000103424 -0.000620252 0)
(-1.51594e-05 -0.000639612 0)
(5.8957e-05 -0.000669177 0)
(0.000145343 -0.000727948 0)
(0.000218468 -0.000795567 0)
(0.000319708 -0.000904786 0)
(0.000425869 -0.00101023 0)
(0.000567911 -0.00115227 0)
(0.000742275 -0.00123144 0)
(0.000870536 -0.00127206 0)
(0.000989799 -0.00113935 0)
(0.000765752 -0.000816846 0)
(0.000431297 -0.000569371 0)
(1.84728e-05 -3.60524e-05 0)
(-0.000173839 -0.000367721 0)
(-5.57776e-05 5.32175e-05 0)
(-0.000115901 4.0926e-05 0)
(-0.000205817 1.26405e-05 0)
(-0.00036558 -8.90928e-05 0)
(-0.000552806 -0.000248162 0)
(-0.000735169 -0.000433025 0)
(-0.000833241 -0.000580512 0)
(-0.000836591 -0.000659498 0)
(-0.000764271 -0.000671984 0)
(-0.000658663 -0.000643916 0)
(-0.000542999 -0.000600319 0)
(-0.000436807 -0.000559133 0)
(-0.000338497 -0.000531725 0)
(-0.000253438 -0.000517134 0)
(-0.000169557 -0.000518482 0)
(-9.74178e-05 -0.000526183 0)
(-1.93877e-05 -0.000547822 0)
(4.09129e-05 -0.000568994 0)
(0.000113792 -0.000609885 0)
(0.000164559 -0.000647264 0)
(0.000244305 -0.000720493 0)
(0.000320857 -0.000787016 0)
(0.000450531 -0.000908806 0)
(0.000631555 -0.0010011 0)
(0.000833848 -0.00113307 0)
(0.00108595 -0.00112933 0)
(0.00100404 -0.00106267 0)
(0.000814699 -0.000690416 0)
(0.000109942 -0.000387576 0)
(-0.000289379 -0.000287846 0)
(-6.63442e-05 -5.86272e-05 0)
(-0.000152048 -6.68166e-05 0)
(-0.000289752 -0.000109216 0)
(-0.000503753 -0.000213461 0)
(-0.000715458 -0.000358774 0)
(-0.000873535 -0.000497755 0)
(-0.000909114 -0.000580878 0)
(-0.000847054 -0.000598444 0)
(-0.000728953 -0.000571423 0)
(-0.000603129 -0.000528185 0)
(-0.000486214 -0.000489964 0)
(-0.000390314 -0.000466638 0)
(-0.000304842 -0.000462394 0)
(-0.000232135 -0.000469896 0)
(-0.000156022 -0.000489868 0)
(-8.9616e-05 -0.000508771 0)
(-1.29015e-05 -0.000535053 0)
(4.35269e-05 -0.000550294 0)
(0.000113425 -0.000577777 0)
(0.000151471 -0.000590127 0)
(0.00021642 -0.000631824 0)
(0.000262955 -0.00065909 0)
(0.000365061 -0.000743453 0)
(0.000513107 -0.00081027 0)
(0.000723298 -0.000953011 0)
(0.00102522 -0.00102164 0)
(0.00115144 -0.00108089 0)
(0.00101799 -0.000793148 0)
(0.000371565 -0.000524833 0)
(-3.68558e-05 3.00462e-05 0)
(-7.36367e-05 -0.000188249 0)
(-0.000189526 -0.000190551 0)
(-0.000372871 -0.00023612 0)
(-0.000622698 -0.000324273 0)
(-0.000834355 -0.000434783 0)
(-0.000949314 -0.000517869 0)
(-0.000924562 -0.000544373 0)
(-0.000815427 -0.000522314 0)
(-0.000676262 -0.000480715 0)
(-0.000551518 -0.000443758 0)
(-0.000448181 -0.000425941 0)
(-0.000370336 -0.000428332 0)
(-0.000300161 -0.000450255 0)
(-0.000238379 -0.000479668 0)
(-0.00016514 -0.000517611 0)
(-9.70889e-05 -0.000546834 0)
(-1.17924e-05 -0.000578868 0)
(5.20956e-05 -0.000590059 0)
(0.000131461 -0.000608772 0)
(0.000169606 -0.000601452 0)
(0.000230444 -0.000618225 0)
(0.000254634 -0.000612016 0)
(0.000328657 -0.000657924 0)
(0.000430353 -0.00068759 0)
(0.000613118 -0.00080221 0)
(0.00093133 -0.000880163 0)
(0.00119558 -0.000984019 0)
(0.001306 -0.00084287 0)
(0.00085863 -0.000411935 0)
(0.000254839 0.000106406 0)
(-7.80896e-05 -0.000303155 0)
(-0.000219771 -0.000298607 0)
(-0.000436843 -0.000338378 0)
(-0.00070217 -0.000397559 0)
(-0.000899814 -0.000464746 0)
(-0.00097095 -0.00049559 0)
(-0.000900684 -0.000482669 0)
(-0.000766303 -0.000442607 0)
(-0.000624929 -0.00040554 0)
(-0.000514317 -0.000386389 0)
(-0.000431201 -0.000393661 0)
(-0.000374088 -0.00042038 0)
(-0.000318344 -0.000464732 0)
(-0.000264611 -0.000510916 0)
(-0.000188832 -0.000562761 0)
(-0.00011306 -0.000598722 0)
(-1.18048e-05 -0.000635453 0)
(6.69148e-05 -0.00064284 0)
(0.000163824 -0.000656458 0)
(0.00021112 -0.000635083 0)
(0.00027638 -0.000635644 0)
(0.00028835 -0.000606105 0)
(0.000339485 -0.0006223 0)
(0.000393599 -0.000621281 0)
(0.000532298 -0.000700167 0)
(0.000822563 -0.000766904 0)
(0.00115867 -0.000912275 0)
(0.00154234 -0.000911697 0)
(0.00124141 -0.000671155 0)
(0.000430715 -0.000357627 0)
(-7.80404e-05 -0.000375044 0)
(-0.00024127 -0.000363212 0)
(-0.00047897 -0.000392645 0)
(-0.000742753 -0.000423963 0)
(-0.00091859 -0.000454828 0)
(-0.000952079 -0.000450809 0)
(-0.000855263 -0.000419355 0)
(-0.000715477 -0.000379454 0)
(-0.000587755 -0.000357381 0)
(-0.000501021 -0.000358669 0)
(-0.000443847 -0.000387795 0)
(-0.00040957 -0.00043187 0)
(-0.000367372 -0.000491146 0)
(-0.00031846 -0.000546191 0)
(-0.000234869 -0.000605737 0)
(-0.00014573 -0.000642888 0)
(-2.20049e-05 -0.000681442 0)
(7.79235e-05 -0.000683664 0)
(0.000199164 -0.000693846 0)
(0.000263496 -0.000662231 0)
(0.000340789 -0.000653208 0)
(0.000350693 -0.000609207 0)
(0.000385775 -0.000606784 0)
(0.000398003 -0.000586057 0)
(0.000483094 -0.000635323 0)
(0.0007044 -0.000683384 0)
(0.00102556 -0.000840411 0)
(0.00151678 -0.000946648 0)
(0.00134995 -0.00100537 0)
(0.00052212 -0.000879474 0)
(-7.51744e-05 -0.000398636 0)
(-0.000251277 -0.000379503 0)
(-0.00049933 -0.000397553 0)
(-0.000752863 -0.000404207 0)
(-0.000908999 -0.000408757 0)
(-0.000917498 -0.000384099 0)
(-0.000809276 -0.000349258 0)
(-0.000676473 -0.00031833 0)
(-0.00056843 -0.00031392 0)
(-0.000508511 -0.000331675 0)
(-0.000476689 -0.000375516 0)
(-0.000463314 -0.000427672 0)
(-0.000430446 -0.000493114 0)
(-0.000382198 -0.000548448 0)
(-0.000286261 -0.00060924 0)
(-0.000180824 -0.000642498 0)
(-3.21881e-05 -0.00068044 0)
(9.04163e-05 -0.00067733 0)
(0.000237259 -0.000686197 0)
(0.000321119 -0.000649352 0)
(0.000413814 -0.000637371 0)
(0.000428905 -0.000588099 0)
(0.000455073 -0.000578525 0)
(0.000434784 -0.000548849 0)
(0.000469083 -0.000580421 0)
(0.000608385 -0.000609538 0)
(0.000868843 -0.000751652 0)
(0.00135291 -0.000891723 0)
(0.00126342 -0.00111118 0)
(0.00052754 -0.00111019 0)
(-6.80595e-05 -0.00037781 0)
(-0.000252199 -0.000353069 0)
(-0.000501024 -0.000361498 0)
(-0.000738564 -0.000353105 0)
(-0.0008781 -0.000343219 0)
(-0.000872507 -0.000312789 0)
(-0.000766728 -0.000284527 0)
(-0.000649712 -0.000267038 0)
(-0.000566519 -0.000278091 0)
(-0.000534616 -0.000305908 0)
(-0.000527883 -0.000355905 0)
(-0.000533676 -0.000406379 0)
(-0.000507724 -0.00046933 0)
(-0.000458014 -0.000516808 0)
(-0.000347905 -0.000573137 0)
(-0.000225239 -0.00059797 0)
(-5.10995e-05 -0.000632639 0)
(9.47046e-05 -0.000623192 0)
(0.000266957 -0.000630569 0)
(0.000370992 -0.000590895 0)
(0.000480245 -0.000578564 0)
(0.000505258 -0.000529106 0)
(0.000530116 -0.000520065 0)
(0.000489069 -0.000488923 0)
(0.000480015 -0.000514692 0)
(0.000535171 -0.000528628 0)
(0.000717078 -0.00064586 0)
(0.00113279 -0.000774068 0)
(0.00109229 -0.00105199 0)
(0.000499243 -0.00110748 0)
(-6.03162e-05 -0.000323891 0)
(-0.000245939 -0.000292954 0)
(-0.000493254 -0.000293251 0)
(-0.000715993 -0.000274045 0)
(-0.000845776 -0.000258282 0)
(-0.000836664 -0.00022793 0)
(-0.000738547 -0.000210492 0)
(-0.000639004 -0.000204272 0)
(-0.000577232 -0.000226159 0)
(-0.000570184 -0.000256006 0)
(-0.000583356 -0.000303868 0)
(-0.000604262 -0.000343827 0)
(-0.000580929 -0.000397024 0)
(-0.000527819 -0.000430429 0)
(-0.000402836 -0.00047807 0)
(-0.000263572 -0.000492019 0)
(-6.53048e-05 -0.00052232 0)
(0.000102487 -0.000507738 0)
(0.000297287 -0.00051477 0)
(0.000418624 -0.000476073 0)
(0.000540971 -0.000466093 0)
(0.000574656 -0.000420408 0)
(0.000602085 -0.000416514 0)
(0.000549409 -0.000389407 0)
(0.000510216 -0.000420619 0)
(0.000493623 -0.000425586 0)
(0.000598552 -0.00052054 0)
(0.000920908 -0.000610162 0)
(0.000895673 -0.00088028 0)
(0.000452656 -0.000950275 0)
(-4.81571e-05 -0.000256087 0)
(-0.000232509 -0.00022017 0)
(-0.000473318 -0.000211975 0)
(-0.000682317 -0.000187461 0)
(-0.00080705 -0.000168882 0)
(-0.000801163 -0.000143476 0)
(-0.000717562 -0.00013625 0)
(-0.000636418 -0.000139152 0)
(-0.000595234 -0.000166534 0)
(-0.000608888 -0.000191948 0)
(-0.000638403 -0.000231241 0)
(-0.000671726 -0.000253944 0)
(-0.000650645 -0.000292379 0)
(-0.000595817 -0.000307094 0)
(-0.000458992 -0.000343075 0)
(-0.000305865 -0.000344093 0)
(-8.62169e-05 -0.000368746 0)
(0.000102832 -0.000349575 0)
(0.000318531 -0.000356522 0)
(0.000455863 -0.000321066 0)
(0.000588402 -0.000314975 0)
(0.000628072 -0.00027429 0)
(0.000659814 -0.000275802 0)
(0.000600949 -0.000252726 0)
(0.000544828 -0.000293611 0)
(0.000470488 -0.000293532 0)
(0.000512373 -0.000375847 0)
(0.000742917 -0.000420392 0)
(0.000717198 -0.000660366 0)
(0.000411503 -0.000714714 0)
(-3.70592e-05 -0.000179735 0)
(-0.000213538 -0.0001363 0)
(-0.00044993 -0.00011931 0)
(-0.000649494 -8.74965e-05 0)
(-0.000774807 -6.86849e-05 0)
(-0.00077915 -4.49496e-05 0)
(-0.000708673 -4.65245e-05 0)
(-0.000642984 -5.28752e-05 0)
(-0.000613573 -8.20428e-05 0)
(-0.000641916 -9.81936e-05 0)
(-0.000681034 -0.000125339 0)
(-0.000724023 -0.000126849 0)
(-0.000703904 -0.000146838 0)
(-0.000648478 -0.000139372 0)
(-0.000502182 -0.000159998 0)
(-0.000337475 -0.000145816 0)
(-9.99518e-05 -0.000162083 0)
(0.000108675 -0.000138775 0)
(0.000342535 -0.000146357 0)
(0.000493836 -0.000117827 0)
(0.000633013 -0.000119664 0)
(0.000673848 -8.75519e-05 0)
(0.000708744 -9.66234e-05 0)
(0.000644682 -7.78506e-05 0)
(0.000582932 -0.000131356 0)
(0.000464911 -0.000129773 0)
(0.000458505 -0.00021093 0)
(0.000602657 -0.000212235 0)
(0.00056552 -0.000421953 0)
(0.000381712 -0.000446642 0)
(-1.95629e-05 -0.000116823 0)
(-0.000185867 -6.6997e-05 0)
(-0.000412738 -3.73416e-05 0)
(-0.00060611 1.07502e-06 0)
(-0.000735458 2.60997e-05 0)
(-0.000752952 4.89429e-05 0)
(-0.000700745 4.42155e-05 0)
(-0.00064895 3.65762e-05 0)
(-0.000629763 8.72035e-06 0)
(-0.000666784 4.05964e-06 0)
(-0.000711469 -9.31452e-06 0)
(-0.000761087 1.27839e-05 0)
(-0.000742539 1.29836e-05 0)
(-0.000688953 4.49731e-05 0)
(-0.000538288 4.16819e-05 0)
(-0.000366799 7.24145e-05 0)
(-0.00011777 6.58211e-05 0)
(0.000106112 9.29202e-05 0)
(0.000354018 8.34956e-05 0)
(0.000517438 0.000103066 0)
(0.000662548 8.9975e-05 0)
(0.000702254 0.000111949 0)
(0.000740557 9.41798e-05 0)
(0.000670652 0.000111281 0)
(0.000612481 4.65861e-05 0)
(0.000461528 5.06754e-05 0)
(0.000425362 -3.8564e-05 0)
(0.000493404 6.85647e-07 0)
(0.000443086 -0.000188863 0)
(0.000369838 -0.000173833 0)
(-4.9608e-06 -5.30442e-05 0)
(-0.000150826 5.77384e-06 0)
(-0.000369986 4.58678e-05 0)
(-0.000558955 9.78165e-05 0)
(-0.000695652 0.000127588 0)
(-0.00073362 0.000158122 0)
(-0.000696842 0.000151627 0)
(-0.000657841 0.000148129 0)
(-0.00063824 0.000121205 0)
(-0.000677472 0.000126881 0)
(-0.000719955 0.00012376 0)
(-0.000773743 0.00016573 0)
(-0.000756612 0.000184161 0)
(-0.000706771 0.000238817 0)
(-0.000555949 0.000254122 0)
(-0.000381443 0.000301228 0)
(-0.000127191 0.000306379 0)
(0.000106866 0.000337597 0)
(0.000363482 0.000327506 0)
(0.000535788 0.000338417 0)
(0.000686462 0.000313436 0)
(0.000723897 0.000325188 0)
(0.000766756 0.000297989 0)
(0.000689881 0.000315136 0)
(0.000641675 0.000240998 0)
(0.000463485 0.000248606 0)
(0.00041305 0.000144768 0)
(0.000410274 0.000219912 0)
(0.000347649 3.47145e-05 0)
(0.000379301 9.44069e-05 0)
(1.74314e-05 -1.32885e-05 0)
(-0.000108615 4.77349e-05 0)
(-0.000309654 0.000101827 0)
(-0.000495467 0.000165059 0)
(-0.000641089 0.000213088 0)
(-0.000699268 0.000252944 0)
(-0.000686612 0.000254056 0)
(-0.000660559 0.000254765 0)
(-0.000644386 0.000228825 0)
(-0.000681216 0.000241582 0)
(-0.000718636 0.000244121 0)
(-0.000771561 0.000301855 0)
(-0.000754745 0.000334367 0)
(-0.000708133 0.000408941 0)
(-0.000560624 0.000439741 0)
(-0.000387065 0.000501128 0)
(-0.000134894 0.000514436 0)
(0.000101678 0.000548427 0)
(0.000360201 0.000534526 0)
(0.000536049 0.000537994 0)
(0.000692326 0.000500377 0)
(0.000727831 0.000505215 0)
(0.000778538 0.000469411 0)
(0.000694615 0.000490304 0)
(0.000661799 0.000410011 0)
(0.000459091 0.000425675 0)
(0.000410261 0.000304948 0)
(0.000337679 0.000417343 0)
(0.000269664 0.00022764 0)
(0.000411361 0.000345111 0)
(2.87333e-05 3.79128e-05 0)
(-6.35879e-05 9.98566e-05 0)
(-0.000244294 0.000159499 0)
(-0.000418334 0.00024342 0)
(-0.000570779 0.000303016 0)
(-0.000660051 0.000364587 0)
(-0.00066982 0.000371225 0)
(-0.000664725 0.000381315 0)
(-0.000643901 0.000352528 0)
(-0.000674863 0.000366521 0)
(-0.000698772 0.00036519 0)
(-0.000747206 0.000426123 0)
(-0.000729176 0.000462819 0)
(-0.000686886 0.000546518 0)
(-0.00054692 0.000587051 0)
(-0.000378548 0.000656315 0)
(-0.000134543 0.00067602 0)
(9.84611e-05 0.000711209 0)
(0.000353921 0.00069606 0)
(0.000529343 0.000696717 0)
(0.000691538 0.000654486 0)
(0.000727205 0.000660063 0)
(0.000789811 0.000623724 0)
(0.000700376 0.00065363 0)
(0.000687326 0.000574544 0)
(0.00045898 0.000602744 0)
(0.000426717 0.000467663 0)
(0.000284817 0.000614876 0)
(0.000223746 0.000407687 0)
(0.00047836 0.000594077 0)
(4.67243e-05 5.78433e-05 0)
(-2.31719e-05 9.75715e-05 0)
(-0.000162135 0.00017514 0)
(-0.000322175 0.00026651 0)
(-0.000479539 0.000363267 0)
(-0.000593609 0.000445168 0)
(-0.000641576 0.000474913 0)
(-0.00066019 0.000494661 0)
(-0.0006502 0.000464469 0)
(-0.000675944 0.0004741 0)
(-0.00068842 0.000460229 0)
(-0.000725923 0.000514753 0)
(-0.000702844 0.000543818 0)
(-0.000659327 0.000628335 0)
(-0.000526165 0.000668353 0)
(-0.000363352 0.000741239 0)
(-0.000130081 0.000758966 0)
(9.47621e-05 0.000795727 0)
(0.000343891 0.000773832 0)
(0.000515028 0.000777128 0)
(0.000683756 0.000729176 0)
(0.000721407 0.00074226 0)
(0.000800192 0.000704307 0)
(0.00070642 0.000745711 0)
(0.00071587 0.000666944 0)
(0.000457643 0.000710713 0)
(0.000452661 0.000564272 0)
(0.000228264 0.000750029 0)
(0.000194639 0.000534571 0)
(0.000580256 0.000829523 0)
(3.41799e-05 8.91363e-05 0)
(9.5389e-06 0.000120578 0)
(-7.93733e-05 0.000199525 0)
(-0.000203192 0.000319277 0)
(-0.000349258 0.000430864 0)
(-0.000505507 0.000549562 0)
(-0.000586456 0.00059144 0)
(-0.0006527 0.000626689 0)
(-0.000652657 0.000590053 0)
(-0.000680691 0.000590958 0)
(-0.000676876 0.000556498 0)
(-0.000701167 0.000591443 0)
(-0.000669302 0.00060056 0)
(-0.000623422 0.000669765 0)
(-0.000497066 0.000699436 0)
(-0.00034322 0.00076431 0)
(-0.000123076 0.000777811 0)
(8.8918e-05 0.000811764 0)
(0.000329871 0.000790661 0)
(0.000495344 0.000798891 0)
(0.000671523 0.000760676 0)
(0.000715145 0.000785665 0)
(0.000813084 0.000761693 0)
(0.000718696 0.000817697 0)
(0.000753505 0.000754318 0)
(0.000465304 0.000821287 0)
(0.000503667 0.000680481 0)
(0.00020434 0.000905715 0)
(0.000246096 0.000686847 0)
(0.000757029 0.00113041 0)
(4.83341e-05 9.54898e-05 0)
(3.6256e-05 7.26392e-05 0)
(2.17674e-05 0.000177223 0)
(-6.78666e-05 0.000285362 0)
(-0.000205221 0.000453524 0)
(-0.000383726 0.000593833 0)
(-0.000522051 0.000677659 0)
(-0.000632073 0.000730753 0)
(-0.000668813 0.000699038 0)
(-0.000705185 0.000692453 0)
(-0.000697665 0.000634128 0)
(-0.000705982 0.000644763 0)
(-0.000663234 0.000623116 0)
(-0.000606589 0.000670269 0)
(-0.000481395 0.000676603 0)
(-0.000330192 0.000731411 0)
(-0.000119711 0.000729314 0)
(8.35218e-05 0.000765934 0)
(0.000318781 0.00073515 0)
(0.000482967 0.000758077 0)
(0.000670277 0.000714008 0)
(0.000725085 0.00075755 0)
(0.000847925 0.000722306 0)
(0.000754565 0.000793744 0)
(0.000818927 0.000721343 0)
(0.000494354 0.000811642 0)
(0.000581542 0.0006795 0)
(0.000183722 0.000940919 0)
(0.000361716 0.000787677 0)
(0.00101154 0.00151705 0)
(-9.8672e-06 7.18451e-05 0)
(3.88733e-05 9.86468e-05 0)
(0.000102757 0.000174381 0)
(8.55926e-05 0.000347395 0)
(1.19364e-06 0.000505854 0)
(-0.000228393 0.000684392 0)
(-0.000398108 0.000770801 0)
(-0.000590821 0.000841268 0)
(-0.000664043 0.000805495 0)
(-0.000731898 0.000792826 0)
(-0.000724579 0.000714039 0)
(-0.000724077 0.000700216 0)
(-0.000668814 0.000649885 0)
(-0.000602855 0.000668738 0)
(-0.000474518 0.000651328 0)
(-0.000328154 0.000685764 0)
(-0.000123288 0.000671734 0)
(6.77726e-05 0.000698694 0)
(0.00030069 0.000669906 0)
(0.000460543 0.000690746 0)
(0.000660583 0.000659324 0)
(0.000724131 0.000699702 0)
(0.000869961 0.00067985 0)
(0.000780102 0.000749858 0)
(0.000872042 0.000709526 0)
(0.000533838 0.000828392 0)
(0.000681541 0.000767852 0)
(0.000257067 0.00108723 0)
(0.000760614 0.00111253 0)
(0.00147841 0.00224418 0)
(6.37364e-05 0.000170416 0)
(9.31281e-05 3.06993e-05 0)
(0.000225828 0.000163505 0)
(0.000261435 0.000260064 0)
(0.000167499 0.000486731 0)
(-6.3737e-05 0.000655867 0)
(-0.00030594 0.000784913 0)
(-0.000544116 0.000865854 0)
(-0.000675393 0.000847904 0)
(-0.000767369 0.000837344 0)
(-0.000774772 0.000750893 0)
(-0.000765527 0.000720406 0)
(-0.000702674 0.000645673 0)
(-0.000620869 0.000641375 0)
(-0.00048819 0.000596384 0)
(-0.000334848 0.000616201 0)
(-0.000133814 0.000577921 0)
(5.97293e-05 0.000605552 0)
(0.000290891 0.000552638 0)
(0.000461655 0.000588176 0)
(0.000674942 0.000519675 0)
(0.000759805 0.000581626 0)
(0.000934792 0.000500739 0)
(0.000857921 0.00060279 0)
(0.000996954 0.000509583 0)
(0.000655281 0.000689921 0)
(0.000890103 0.000673585 0)
(0.000474245 0.00107708 0)
(0.00147322 0.0015018 0)
(0.00215599 0.00367498 0)
(-0.000158454 -0.00011321 0)
(-3.92004e-06 7.2348e-05 0)
(0.00027793 0.000133584 0)
(0.000386079 0.000419304 0)
(0.000417953 0.000573783 0)
(0.000119552 0.000733611 0)
(-0.000125828 0.000805285 0)
(-0.000464854 0.000865548 0)
(-0.000636344 0.000836651 0)
(-0.000780433 0.000820841 0)
(-0.000805699 0.000736742 0)
(-0.000801055 0.000698786 0)
(-0.00073198 0.000617577 0)
(-0.000641476 0.000598118 0)
(-0.000498534 0.000538644 0)
(-0.000346074 0.000541157 0)
(-0.00013805 0.000488586 0)
(4.3496e-05 0.000499263 0)
(0.00028502 0.000437912 0)
(0.000440552 0.000451399 0)
(0.000674853 0.000383734 0)
(0.000745603 0.000409886 0)
(0.00094937 0.000354229 0)
(0.000871534 0.000418325 0)
(0.00105242 0.000427676 0)
(0.000785257 0.000626323 0)
(0.00111536 0.000910056 0)
(0.00101681 0.00158949 0)
(0.00330014 0.00336396 0)
(0.0036776 0.00702375 0)
(0.000230079 0.000507084 0)
(0.000295789 -8.22798e-05 0)
(0.000509163 5.05234e-05 0)
(0.000659084 0.000133317 0)
(0.000480737 0.000403248 0)
(0.000204603 0.000544999 0)
(-0.000116349 0.000647958 0)
(-0.000443234 0.000690032 0)
(-0.000652575 0.000676532 0)
(-0.000798149 0.000660764 0)
(-0.000837235 0.000590657 0)
(-0.000826331 0.000555733 0)
(-0.000755115 0.000479116 0)
(-0.000652575 0.000454666 0)
(-0.000505991 0.000388921 0)
(-0.000344691 0.000382552 0)
(-0.000140109 0.000317072 0)
(4.88662e-05 0.000324761 0)
(0.000282457 0.000243176 0)
(0.000454464 0.000268835 0)
(0.000684904 0.000162644 0)
(0.000791055 0.000226714 0)
(0.00101115 9.87568e-05 0)
(0.00100199 0.000245134 0)
(0.00127307 0.000152772 0)
(0.00119031 0.000525859 0)
(0.00188374 0.000864067 0)
(0.00286109 0.00235533 0)
(0.00696037 0.00553836 0)
(0.00593386 0.0121528 0)
(-0.000774861 -0.00215531 0)
(-0.000502089 0.000201847 0)
(0.000441288 0.000485249 0)
(0.000698761 0.000463171 0)
(0.000810396 0.000548806 0)
(0.00037277 0.00055274 0)
(4.67674e-05 0.000512791 0)
(-0.000390733 0.000486047 0)
(-0.000617286 0.00044659 0)
(-0.000809783 0.000420643 0)
(-0.000856641 0.000377271 0)
(-0.000855473 0.000352062 0)
(-0.00077928 0.00030736 0)
(-0.000677406 0.000288786 0)
(-0.000519438 0.000244227 0)
(-0.000367947 0.000236951 0)
(-0.000148491 0.000186465 0)
(1.37415e-05 0.000190304 0)
(0.000271081 0.000127357 0)
(0.000396235 0.000143028 0)
(0.000667657 7.10033e-05 0)
(0.000707184 0.000104602 0)
(0.000991622 6.39121e-05 0)
(0.00093362 0.000158775 0)
(0.00133811 0.000387555 0)
(0.00148299 0.000922481 0)
(0.00290414 0.00273297 0)
(0.00540588 0.0062996 0)
(0.0127512 0.0148866 0)
(0.010166 0.0265447 0)
(0.00259404 -0.00292341 0)
(0.00296289 0.000473454 0)
(0.000753128 0.000538158 0)
(0.000676708 0.000765093 0)
(0.000522866 0.000537052 0)
(0.000119719 0.000510848 0)
(-0.000231635 0.000328368 0)
(-0.000549611 0.000284849 0)
(-0.000749302 0.000223479 0)
(-0.000893249 0.000200455 0)
(-0.000920444 0.000185705 0)
(-0.00090924 0.000171463 0)
(-0.000820619 0.00016624 0)
(-0.000721512 0.000153527 0)
(-0.000555137 0.000148894 0)
(-0.000409657 0.000135643 0)
(-0.000188692 0.000133011 0)
(-2.8294e-05 0.000114968 0)
(0.00022037 0.000122331 0)
(0.00036353 9.07712e-05 0)
(0.00061633 0.000128482 0)
(0.000732382 7.21025e-05 0)
(0.00101739 0.000196097 0)
(0.00125601 0.00013297 0)
(0.00198076 0.000558463 0)
(0.00350022 0.000795138 0)
(0.00721622 0.00256217 0)
(0.0145658 0.00507144 0)
(0.0269167 0.0118199 0)
(0.0179573 0.0189081 0)
)
;

boundaryField
{
    movingWall
    {
        type            fixedValue;
        value           uniform (1 0 0);
    }
    fixedWalls
    {
        type            noSlip;
    }
    frontAndBack
    {
        type            empty;
    }
}


// ************************************************************************* //
