/*--------------------------------*- C++ -*----------------------------------*\
| =========                 |                                                 |
| \\      /  F ield         | OpenFOAM: The Open Source CFD Toolbox           |
|  \\    /   O peration     | Version:  2406                                  |
|   \\  /    A nd           | Website:  www.openfoam.com                      |
|    \\/     M anipulation  |                                                 |
\*---------------------------------------------------------------------------*/
FoamFile
{
    version     2.0;
    format      ascii;
    arch        "LSB;label=32;scalar=64";
    class       volVectorField;
    location    "9.95";
    object      U;
}
// * * * * * * * * * * * * * * * * * * * * * * * * * * * * * * * * * * * * * //

dimensions      [0 1 -1 0 0 0 0];

internalField   nonuniform List<vector> 
14400
(
(3.05289e-06 -3.03982e-06 0)
(8.99022e-06 -1.25054e-06 0)
(3.15238e-06 2.23743e-06 0)
(-1.67008e-05 5.88145e-06 0)
(-5.01809e-05 9.01604e-06 0)
(-9.50705e-05 1.15033e-05 0)
(-0.000148905 1.33586e-05 0)
(-0.000209408 1.46754e-05 0)
(-0.000274656 1.55648e-05 0)
(-0.000343125 1.61309e-05 0)
(-0.000413662 1.64632e-05 0)
(-0.000485432 1.66347e-05 0)
(-0.000557859 1.67021e-05 0)
(-0.00063057 1.67084e-05 0)
(-0.000703349 1.66846e-05 0)
(-0.000776086 1.66523e-05 0)
(-0.000848753 1.66257e-05 0)
(-0.000921369 1.66134e-05 0)
(-0.000993985 1.66197e-05 0)
(-0.00106667 1.66461e-05 0)
(-0.00113949 1.66922e-05 0)
(-0.00121251 1.67559e-05 0)
(-0.00128579 1.68345e-05 0)
(-0.00135938 1.69248e-05 0)
(-0.00143332 1.70233e-05 0)
(-0.00150762 1.71263e-05 0)
(-0.00158229 1.72302e-05 0)
(-0.00165732 1.73311e-05 0)
(-0.00173269 1.74255e-05 0)
(-0.00180835 1.75094e-05 0)
(-0.00188425 1.75792e-05 0)
(-0.00196032 1.7631e-05 0)
(-0.00203647 1.76608e-05 0)
(-0.0021126 1.76648e-05 0)
(-0.00218857 1.76388e-05 0)
(-0.00226426 1.75787e-05 0)
(-0.00233951 1.74804e-05 0)
(-0.00241414 1.73396e-05 0)
(-0.00248797 1.71523e-05 0)
(-0.00256079 1.69141e-05 0)
(-0.00263237 1.66211e-05 0)
(-0.00270247 1.62692e-05 0)
(-0.00277084 1.58546e-05 0)
(-0.0028372 1.53738e-05 0)
(-0.00290127 1.48233e-05 0)
(-0.00296275 1.42002e-05 0)
(-0.00302134 1.35019e-05 0)
(-0.0030767 1.27262e-05 0)
(-0.00312853 1.18716e-05 0)
(-0.00317648 1.0937e-05 0)
(-0.00322024 9.92206e-06 0)
(-0.00325946 8.82707e-06 0)
(-0.00329381 7.65316e-06 0)
(-0.00332299 6.40222e-06 0)
(-0.00334669 5.07703e-06 0)
(-0.0033646 3.68117e-06 0)
(-0.00337645 2.21792e-06 0)
(-0.00338199 6.93951e-07 0)
(-0.003381 -8.75471e-07 0)
(-0.00337326 -2.49566e-06 0)
(-0.00335861 -4.15564e-06 0)
(-0.00333694 -5.84403e-06 0)
(-0.00330814 -7.551e-06 0)
(-0.00327217 -9.26585e-06 0)
(-0.00322903 -1.09772e-05 0)
(-0.00317877 -1.2673e-05 0)
(-0.00312149 -1.4341e-05 0)
(-0.00305733 -1.59687e-05 0)
(-0.00298649 -1.75434e-05 0)
(-0.00290923 -1.90525e-05 0)
(-0.00282583 -2.04837e-05 0)
(-0.00273665 -2.18251e-05 0)
(-0.00264209 -2.30656e-05 0)
(-0.00254258 -2.41947e-05 0)
(-0.0024386 -2.5203e-05 0)
(-0.00233066 -2.60823e-05 0)
(-0.00221931 -2.68256e-05 0)
(-0.00210512 -2.74274e-05 0)
(-0.00198867 -2.78838e-05 0)
(-0.00187056 -2.81922e-05 0)
(-0.00175141 -2.8352e-05 0)
(-0.00163181 -2.83639e-05 0)
(-0.00151236 -2.82303e-05 0)
(-0.00139367 -2.79552e-05 0)
(-0.00127629 -2.75438e-05 0)
(-0.00116077 -2.70027e-05 0)
(-0.00104764 -2.63397e-05 0)
(-0.000937371 -2.55633e-05 0)
(-0.000830425 -2.46828e-05 0)
(-0.000727213 -2.37082e-05 0)
(-0.000628107 -2.26495e-05 0)
(-0.000533442 -2.15169e-05 0)
(-0.00044351 -2.03206e-05 0)
(-0.000358564 -1.90704e-05 0)
(-0.000278822 -1.77755e-05 0)
(-0.000204461 -1.64446e-05 0)
(-0.000135629 -1.50857e-05 0)
(-7.24422e-05 -1.37057e-05 0)
(-1.49913e-05 -1.23109e-05 0)
(3.66571e-05 -1.09065e-05 0)
(8.2456e-05 -9.49702e-06 0)
(0.000122375 -8.08598e-06 0)
(0.000156397 -6.67624e-06 0)
(0.000184518 -5.27003e-06 0)
(0.000206744 -3.86935e-06 0)
(0.000223093 -2.47581e-06 0)
(0.000233597 -1.08847e-06 0)
(0.000238335 2.78798e-07 0)
(0.000237338 1.57522e-06 0)
(0.00023068 2.83869e-06 0)
(0.000218593 4.09718e-06 0)
(0.000201345 5.29177e-06 0)
(0.00017931 6.37006e-06 0)
(0.000153079 7.27281e-06 0)
(0.00012356 7.90583e-06 0)
(9.21288e-05 8.12352e-06 0)
(6.08168e-05 7.69307e-06 0)
(3.23678e-05 6.40033e-06 0)
(1.13028e-05 3.83019e-06 0)
(9.24626e-07 9.28442e-07 0)
(1.28736e-06 -8.98263e-06 0)
(-4.97004e-06 4.90833e-06 0)
(-4.01569e-05 3.28955e-05 0)
(-0.000108448 6.22257e-05 0)
(-0.000208433 8.84256e-05 0)
(-0.000335981 0.000109912 0)
(-0.000485973 0.000126557 0)
(-0.000653401 0.000138875 0)
(-0.000833836 0.000147609 0)
(-0.0010236 0.000153524 0)
(-0.00121978 0.000157318 0)
(-0.00142017 0.000159585 0)
(-0.00162318 0.000160807 0)
(-0.00182769 0.000161359 0)
(-0.00203298 0.000161524 0)
(-0.00223862 0.000161504 0)
(-0.0024444 0.00016144 0)
(-0.00265024 0.000161421 0)
(-0.00285617 0.000161501 0)
(-0.00306226 0.000161702 0)
(-0.00326863 0.000162031 0)
(-0.00347537 0.000162477 0)
(-0.00368258 0.000163023 0)
(-0.00389033 0.000163645 0)
(-0.00409869 0.000164313 0)
(-0.00430764 0.000164998 0)
(-0.00451719 0.000165668 0)
(-0.00472726 0.000166292 0)
(-0.00493776 0.000166835 0)
(-0.00514855 0.000167265 0)
(-0.00535945 0.000167547 0)
(-0.00557025 0.000167648 0)
(-0.00578069 0.000167532 0)
(-0.00599045 0.000167163 0)
(-0.0061992 0.000166505 0)
(-0.00640655 0.000165523 0)
(-0.00661206 0.000164179 0)
(-0.00681525 0.000162436 0)
(-0.00701561 0.000160258 0)
(-0.00721257 0.000157609 0)
(-0.00740553 0.000154453 0)
(-0.00759384 0.000150757 0)
(-0.00777683 0.000146489 0)
(-0.00795377 0.000141619 0)
(-0.00812392 0.000136119 0)
(-0.0082865 0.000129967 0)
(-0.00844071 0.000123142 0)
(-0.00858574 0.000115629 0)
(-0.00872076 0.000107417 0)
(-0.00884493 9.85014e-05 0)
(-0.00895742 8.88819e-05 0)
(-0.0090574 7.8566e-05 0)
(-0.00914407 6.75678e-05 0)
(-0.00921665 5.59084e-05 0)
(-0.00927437 4.36163e-05 0)
(-0.00931655 3.07277e-05 0)
(-0.00934252 1.7286e-05 0)
(-0.00935168 3.34414e-06 0)
(-0.00934352 -1.10266e-05 0)
(-0.00931758 -2.5774e-05 0)
(-0.00927351 -4.08199e-05 0)
(-0.00921105 -5.60805e-05 0)
(-0.00913002 -7.14671e-05 0)
(-0.00903037 -8.68857e-05 0)
(-0.00891217 -0.000102237 0)
(-0.00877559 -0.000117419 0)
(-0.00862092 -0.000132326 0)
(-0.00844859 -0.000146852 0)
(-0.00825914 -0.000160888 0)
(-0.00805323 -0.000174331 0)
(-0.00783166 -0.000187076 0)
(-0.00759531 -0.000199025 0)
(-0.00734521 -0.000210084 0)
(-0.00708245 -0.000220168 0)
(-0.00680824 -0.000229199 0)
(-0.00652387 -0.00023711 0)
(-0.00623069 -0.000243842 0)
(-0.00593011 -0.000249351 0)
(-0.00562358 -0.000253604 0)
(-0.0053126 -0.00025658 0)
(-0.00499865 -0.000258273 0)
(-0.00468325 -0.00025869 0)
(-0.00436787 -0.000257849 0)
(-0.00405396 -0.000255782 0)
(-0.00374296 -0.000252532 0)
(-0.00343621 -0.000248151 0)
(-0.00313501 -0.000242702 0)
(-0.00284059 -0.000236255 0)
(-0.00255409 -0.000228884 0)
(-0.00227655 -0.000220671 0)
(-0.00200896 -0.000211698 0)
(-0.00175216 -0.000202047 0)
(-0.00150695 -0.000191802 0)
(-0.00127401 -0.000181042 0)
(-0.00105393 -0.000169844 0)
(-0.000847236 -0.000158278 0)
(-0.000654362 -0.000146411 0)
(-0.000475676 -0.000134301 0)
(-0.000311484 -0.000121999 0)
(-0.000162038 -0.000109551 0)
(-2.75403e-05 -9.69939e-05 0)
(9.1846e-05 -8.43608e-05 0)
(0.000195995 -7.16794e-05 0)
(0.000284814 -5.89749e-05 0)
(0.000358243 -4.62725e-05 0)
(0.000416258 -3.36009e-05 0)
(0.000458882 -2.09973e-05 0)
(0.000486177 -8.5214e-06 0)
(0.000498309 3.72014e-06 0)
(0.000495617 1.56891e-05 0)
(0.000478545 2.7227e-05 0)
(0.000447775 3.80691e-05 0)
(0.000404398 4.78497e-05 0)
(0.000350005 5.60397e-05 0)
(0.000286908 6.18638e-05 0)
(0.000218404 6.4221e-05 0)
(0.000149073 6.16172e-05 0)
(8.45848e-05 5.22554e-05 0)
(3.43443e-05 3.44556e-05 0)
(3.79711e-06 1.12804e-05 0)
(-2.3437e-06 -2.91114e-06 0)
(-3.43312e-05 4.05725e-05 0)
(-0.000109829 0.000107194 0)
(-0.000232987 0.000175642 0)
(-0.000399938 0.00023743 0)
(-0.000605723 0.000289127 0)
(-0.000843809 0.000330148 0)
(-0.00110764 0.000361329 0)
(-0.00139124 0.000384121 0)
(-0.0016895 0.000400134 0)
(-0.00199826 0.000410904 0)
(-0.00231427 0.000417786 0)
(-0.00263507 0.00042191 0)
(-0.00295891 0.000424178 0)
(-0.00328456 0.000425285 0)
(-0.00361124 0.000425747 0)
(-0.00393849 0.000425927 0)
(-0.00426605 0.000426068 0)
(-0.00459386 0.000426321 0)
(-0.0049219 0.000426766 0)
(-0.00525025 0.000427431 0)
(-0.00557898 0.000428306 0)
(-0.00590817 0.000429357 0)
(-0.00623785 0.000430531 0)
(-0.00656804 0.000431766 0)
(-0.00689871 0.000432991 0)
(-0.00722978 0.00043413 0)
(-0.0075611 0.000435104 0)
(-0.0078925 0.000435833 0)
(-0.00822372 0.000436234 0)
(-0.00855444 0.000436222 0)
(-0.00888431 0.000435713 0)
(-0.00921289 0.000434619 0)
(-0.00953968 0.000432851 0)
(-0.00986413 0.000430321 0)
(-0.0101856 0.000426938 0)
(-0.0105035 0.000422612 0)
(-0.0108169 0.000417253 0)
(-0.0111251 0.000410773 0)
(-0.0114273 0.000403085 0)
(-0.0117224 0.000394105 0)
(-0.0120095 0.000383753 0)
(-0.0122877 0.000371955 0)
(-0.0125557 0.000358641 0)
(-0.0128124 0.000343752 0)
(-0.0130568 0.000327234 0)
(-0.0132876 0.000309046 0)
(-0.0135036 0.000289157 0)
(-0.0137036 0.000267549 0)
(-0.0138864 0.000244218 0)
(-0.0140508 0.000219174 0)
(-0.0141956 0.000192444 0)
(-0.0143197 0.000164071 0)
(-0.0144219 0.000134117 0)
(-0.0145012 0.00010266 0)
(-0.0145567 6.97992e-05 0)
(-0.0145874 3.56503e-05 0)
(-0.0145926 3.48585e-07 0)
(-0.0145715 -3.59553e-05 0)
(-0.0145237 -7.3087e-05 0)
(-0.0144486 -0.00011086 0)
(-0.0143459 -0.000149072 0)
(-0.0142156 -0.000187506 0)
(-0.0140575 -0.000225933 0)
(-0.013872 -0.000264112 0)
(-0.0136592 -0.000301798 0)
(-0.0134198 -0.000338737 0)
(-0.0131544 -0.000374676 0)
(-0.0128639 -0.000409361 0)
(-0.0125493 -0.000442544 0)
(-0.0122117 -0.000473981 0)
(-0.0118526 -0.000503441 0)
(-0.0114734 -0.000530709 0)
(-0.0110757 -0.000555582 0)
(-0.0106613 -0.000577882 0)
(-0.0102321 -0.000597451 0)
(-0.00978994 -0.000614159 0)
(-0.00933698 -0.000627901 0)
(-0.00887526 -0.000638603 0)
(-0.0084069 -0.000646218 0)
(-0.00793406 -0.000650732 0)
(-0.00745887 -0.000652161 0)
(-0.00698346 -0.000650549 0)
(-0.00650991 -0.00064597 0)
(-0.00604024 -0.000638523 0)
(-0.00557641 -0.000628331 0)
(-0.00512029 -0.000615537 0)
(-0.00467363 -0.000600302 0)
(-0.00423808 -0.000582802 0)
(-0.00381519 -0.000563221 0)
(-0.00340635 -0.00054175 0)
(-0.00301287 -0.000518582 0)
(-0.00263589 -0.000493907 0)
(-0.00227645 -0.000467911 0)
(-0.00193547 -0.00044077 0)
(-0.00161376 -0.000412651 0)
(-0.00131201 -0.000383704 0)
(-0.00103082 -0.000354067 0)
(-0.000770728 -0.000323861 0)
(-0.000532168 -0.00029319 0)
(-0.000315522 -0.000262147 0)
(-0.000121109 -0.00023081 0)
(5.07999e-05 -0.000199251 0)
(0.000199988 -0.000167535 0)
(0.00032629 -0.000135735 0)
(0.000429602 -0.000103934 0)
(0.000509894 -7.22392e-05 0)
(0.000567234 -4.0799e-05 0)
(0.000601875 -9.80109e-06 0)
(0.000614237 2.04575e-05 0)
(0.000604988 4.95069e-05 0)
(0.000575229 7.67438e-05 0)
(0.000526591 0.000101288 0)
(0.000461415 0.000121887 0)
(0.000383006 0.0001368 0)
(0.000295902 0.000143682 0)
(0.000206147 0.000139532 0)
(0.000120794 0.00012091 0)
(5.20479e-05 8.4653e-05 0)
(6.33632e-06 3.22165e-05 0)
(-6.43051e-06 1.83635e-05 0)
(-6.74827e-05 0.000112207 0)
(-0.000187179 0.00023258 0)
(-0.000368144 0.000352961 0)
(-0.000602379 0.000461585 0)
(-0.000883849 0.000553325 0)
(-0.00120486 0.000627136 0)
(-0.0015578 0.00068419 0)
(-0.0019357 0.000726717 0)
(-0.00233253 0.000757299 0)
(-0.00274329 0.000778472 0)
(-0.00316395 0.000792526 0)
(-0.00359146 0.000801406 0)
(-0.00402351 0.000806699 0)
(-0.00445848 0.000809645 0)
(-0.00489523 0.000811177 0)
(-0.00533305 0.000811971 0)
(-0.0057715 0.000812489 0)
(-0.00621034 0.000813026 0)
(-0.00664948 0.00081375 0)
(-0.00708887 0.000814729 0)
(-0.00752852 0.000815966 0)
(-0.00796842 0.000817411 0)
(-0.00840857 0.000818981 0)
(-0.0088489 0.00082057 0)
(-0.00928929 0.000822053 0)
(-0.00972958 0.0008233 0)
(-0.0101695 0.000824168 0)
(-0.0106089 0.000824513 0)
(-0.0110472 0.000824184 0)
(-0.011484 0.00082303 0)
(-0.0119189 0.000820894 0)
(-0.0123512 0.000817617 0)
(-0.0127802 0.000813041 0)
(-0.0132052 0.000807002 0)
(-0.0136253 0.000799339 0)
(-0.0140397 0.00078989 0)
(-0.0144473 0.000778495 0)
(-0.014847 0.000764995 0)
(-0.0152378 0.000749238 0)
(-0.0156183 0.000731078 0)
(-0.0159874 0.000710376 0)
(-0.0163437 0.000687005 0)
(-0.0166858 0.00066085 0)
(-0.0170123 0.000631809 0)
(-0.0173218 0.0005998 0)
(-0.0176127 0.000564759 0)
(-0.0178835 0.000526642 0)
(-0.0181328 0.000485431 0)
(-0.0183591 0.000441131 0)
(-0.0185609 0.000393778 0)
(-0.0187367 0.000343433 0)
(-0.0188852 0.000290189 0)
(-0.0190052 0.000234172 0)
(-0.0190953 0.000175538 0)
(-0.0191544 0.000114475 0)
(-0.0191816 5.12069e-05 0)
(-0.0191759 -1.40141e-05 0)
(-0.0191365 -8.09083e-05 0)
(-0.019063 -0.000149155 0)
(-0.0189549 -0.000218413 0)
(-0.0188118 -0.000288314 0)
(-0.0186338 -0.00035847 0)
(-0.0184209 -0.000428469 0)
(-0.0181735 -0.000497886 0)
(-0.0178921 -0.000566285 0)
(-0.0175774 -0.00063322 0)
(-0.0172304 -0.000698246 0)
(-0.0168522 -0.000760921 0)
(-0.0164441 -0.000820811 0)
(-0.0160076 -0.000877497 0)
(-0.0155446 -0.000930579 0)
(-0.0150568 -0.000979684 0)
(-0.0145462 -0.00102447 0)
(-0.0140152 -0.00106462 0)
(-0.0134659 -0.00109989 0)
(-0.0129007 -0.00113003 0)
(-0.0123223 -0.00115488 0)
(-0.0117331 -0.00117431 0)
(-0.0111357 -0.00118824 0)
(-0.0105327 -0.00119666 0)
(-0.00992678 -0.0011996 0)
(-0.00932048 -0.00119713 0)
(-0.00871634 -0.00118938 0)
(-0.00811681 -0.00117652 0)
(-0.00752428 -0.00115877 0)
(-0.006941 -0.00113637 0)
(-0.00636912 -0.00110961 0)
(-0.00581068 -0.00107878 0)
(-0.00526756 -0.0010442 0)
(-0.00474149 -0.00100621 0)
(-0.00423406 -0.000965124 0)
(-0.00374673 -0.000921279 0)
(-0.0032808 -0.000874993 0)
(-0.00283743 -0.000826569 0)
(-0.00241765 -0.000776292 0)
(-0.00202239 -0.000724423 0)
(-0.00165245 -0.000671198 0)
(-0.00130853 -0.000616824 0)
(-0.00099126 -0.000561486 0)
(-0.000701176 -0.000505343 0)
(-0.000438754 -0.000448535 0)
(-0.000204405 -0.000391192 0)
(1.5263e-06 -0.000333439 0)
(0.000178761 -0.000275412 0)
(0.000327105 -0.000217276 0)
(0.000446468 -0.000159245 0)
(0.000536903 -0.000101606 0)
(0.000598667 -4.47619e-05 0)
(0.000632261 1.06846e-05 0)
(0.000638553 6.39328e-05 0)
(0.000618911 0.000113851 0)
(0.000575339 0.00015886 0)
(0.000510677 0.000196799 0)
(0.000428853 0.000224761 0)
(0.000335135 0.000238961 0)
(0.000236397 0.000234693 0)
(0.000140513 0.000206583 0)
(6.17052e-05 0.000149332 0)
(7.62883e-06 6.05224e-05 0)
(-1.03645e-05 5.57824e-05 0)
(-0.0001004 0.000221523 0)
(-0.000264661 0.000409743 0)
(-0.000503568 0.000592194 0)
(-0.000804097 0.000755555 0)
(-0.00115869 0.000893872 0)
(-0.00155836 0.00100603 0)
(-0.00199458 0.00109369 0)
(-0.00245966 0.00115995 0)
(-0.00294691 0.00120841 0)
(-0.00345077 0.00124267 0)
(-0.00396672 0.00126601 0)
(-0.00449122 0.00128129 0)
(-0.0050216 0.00129084 0)
(-0.00555589 0.00129652 0)
(-0.00609268 0.00129975 0)
(-0.00663102 0.00130156 0)
(-0.00717028 0.00130268 0)
(-0.00771006 0.00130358 0)
(-0.00825012 0.00130454 0)
(-0.00879031 0.0013057 0)
(-0.00933053 0.00130707 0)
(-0.00987068 0.00130859 0)
(-0.0104106 0.00131016 0)
(-0.0109503 0.00131161 0)
(-0.0114893 0.00131277 0)
(-0.0120275 0.00131344 0)
(-0.0125646 0.00131341 0)
(-0.0131 0.00131245 0)
(-0.0136334 0.00131034 0)
(-0.014164 0.00130684 0)
(-0.0146912 0.00130171 0)
(-0.0152143 0.00129472 0)
(-0.0157323 0.00128561 0)
(-0.0162444 0.00127414 0)
(-0.0167495 0.00126006 0)
(-0.0172464 0.00124313 0)
(-0.0177339 0.00122311 0)
(-0.0182108 0.00119976 0)
(-0.0186757 0.00117285 0)
(-0.0191271 0.00114217 0)
(-0.0195635 0.00110752 0)
(-0.0199833 0.00106872 0)
(-0.0203849 0.0010256 0)
(-0.0207666 0.000978018 0)
(-0.0211268 0.000925876 0)
(-0.0214637 0.000869088 0)
(-0.0217756 0.00080761 0)
(-0.0220609 0.000741433 0)
(-0.0223177 0.000670589 0)
(-0.0225445 0.000595151 0)
(-0.0227397 0.000515238 0)
(-0.0229018 0.000431012 0)
(-0.0230294 0.000342686 0)
(-0.0231211 0.000250517 0)
(-0.0231758 0.000154812 0)
(-0.0231924 5.59262e-05 0)
(-0.02317 -4.57403e-05 0)
(-0.0231078 -0.000149742 0)
(-0.0230054 -0.000255591 0)
(-0.0228624 -0.000362762 0)
(-0.0226785 -0.00047069 0)
(-0.0224539 -0.000578784 0)
(-0.0221889 -0.000686423 0)
(-0.0218838 -0.000792968 0)
(-0.0215395 -0.000897765 0)
(-0.0211569 -0.00100015 0)
(-0.0207371 -0.00109947 0)
(-0.0202815 -0.00119506 0)
(-0.0197919 -0.00128629 0)
(-0.0192699 -0.00137254 0)
(-0.0187176 -0.00145323 0)
(-0.0181371 -0.00152781 0)
(-0.017531 -0.00159579 0)
(-0.0169016 -0.00165672 0)
(-0.0162516 -0.00171021 0)
(-0.0155838 -0.00175594 0)
(-0.014901 -0.00179368 0)
(-0.0142061 -0.00182322 0)
(-0.013502 -0.00184449 0)
(-0.0127918 -0.00185744 0)
(-0.0120783 -0.00186214 0)
(-0.0113645 -0.00185869 0)
(-0.0106532 -0.0018473 0)
(-0.00994722 -0.00182821 0)
(-0.00924918 -0.00180176 0)
(-0.00856165 -0.00176829 0)
(-0.00788708 -0.00172822 0)
(-0.00722773 -0.001682 0)
(-0.00658574 -0.00163009 0)
(-0.00596309 -0.00157297 0)
(-0.00536157 -0.00151112 0)
(-0.00478286 -0.00144504 0)
(-0.00422843 -0.00137517 0)
(-0.00369965 -0.00130198 0)
(-0.00319771 -0.00122586 0)
(-0.00272369 -0.00114722 0)
(-0.00227855 -0.00106638 0)
(-0.00186314 -0.000983649 0)
(-0.00147822 -0.000899305 0)
(-0.00112447 -0.000813579 0)
(-0.000802473 -0.000726681 0)
(-0.000512775 -0.000638808 0)
(-0.000255826 -0.000550156 0)
(-3.20041e-05 -0.000460944 0)
(0.000158415 -0.000371439 0)
(0.000315282 -0.000281991 0)
(0.000438621 -0.000193075 0)
(0.000528687 -0.00010535 0)
(0.000586044 -1.97376e-05 0)
(0.000611675 6.25067e-05 0)
(0.000607117 0.000139644 0)
(0.000574617 0.000209317 0)
(0.000517324 0.000268377 0)
(0.000439532 0.000312688 0)
(0.000346932 0.000336965 0)
(0.000246899 0.00033471 0)
(0.000147888 0.000298376 0)
(6.54035e-05 0.000219873 0)
(8.14048e-06 9.1933e-05 0)
(-1.40023e-05 0.000108548 0)
(-0.000131463 0.000367681 0)
(-0.000338743 0.000638299 0)
(-0.000633848 0.000892913 0)
(-0.000998468 0.00111831 0)
(-0.00142315 0.00130878 0)
(-0.00189743 0.00146375 0)
(-0.00241183 0.0015857 0)
(-0.00295796 0.00167875 0)
(-0.00352869 0.00174765 0)
(-0.00411801 0.00179711 0)
(-0.00472107 0.00183146 0)
(-0.00533403 0.0018545 0)
(-0.00595392 0.00186936 0)
(-0.00657853 0.00187856 0)
(-0.00720624 0.00188402 0)
(-0.00783589 0.00188719 0)
(-0.00846667 0.00188909 0)
(-0.00909804 0.00189038 0)
(-0.00972961 0.00189148 0)
(-0.0103611 0.00189259 0)
(-0.0109923 0.00189375 0)
(-0.011623 0.00189491 0)
(-0.0122529 0.00189593 0)
(-0.0128818 0.00189659 0)
(-0.0135094 0.00189666 0)
(-0.0141352 0.00189587 0)
(-0.0147588 0.00189392 0)
(-0.0153797 0.00189052 0)
(-0.0159971 0.00188533 0)
(-0.0166103 0.00187805 0)
(-0.0172186 0.00186833 0)
(-0.0178209 0.00185585 0)
(-0.0184162 0.00184025 0)
(-0.0190034 0.0018212 0)
(-0.0195813 0.00179836 0)
(-0.0201486 0.0017714 0)
(-0.0207037 0.00173998 0)
(-0.0212453 0.00170379 0)
(-0.0217717 0.00166253 0)
(-0.0222813 0.0016159 0)
(-0.0227724 0.00156365 0)
(-0.0232432 0.00150553 0)
(-0.0236918 0.00144135 0)
(-0.0241164 0.00137093 0)
(-0.0245152 0.00129415 0)
(-0.0248863 0.00121092 0)
(-0.0252277 0.0011212 0)
(-0.0255377 0.00102502 0)
(-0.0258144 0.000922444 0)
(-0.0260561 0.000813604 0)
(-0.0262611 0.000698695 0)
(-0.0264279 0.000577973 0)
(-0.0265549 0.000451757 0)
(-0.0266409 0.000320432 0)
(-0.0266846 0.000184446 0)
(-0.0266851 4.43112e-05 0)
(-0.0266414 -9.94003e-05 0)
(-0.026553 -0.000246058 0)
(-0.0264193 -0.000394976 0)
(-0.02624 -0.000545421 0)
(-0.0260152 -0.000696611 0)
(-0.0257451 -0.00084773 0)
(-0.02543 -0.000997927 0)
(-0.0250708 -0.00114633 0)
(-0.0246682 -0.00129205 0)
(-0.0242234 -0.00143418 0)
(-0.0237379 -0.00157185 0)
(-0.0232132 -0.00170416 0)
(-0.0226513 -0.00183027 0)
(-0.0220541 -0.00194935 0)
(-0.021424 -0.00206063 0)
(-0.0207634 -0.00216337 0)
(-0.020075 -0.00225693 0)
(-0.0193615 -0.00234072 0)
(-0.0186259 -0.00241422 0)
(-0.0178711 -0.00247702 0)
(-0.0171004 -0.00252881 0)
(-0.0163168 -0.00256934 0)
(-0.0155236 -0.0025985 0)
(-0.014724 -0.00261626 0)
(-0.0139212 -0.00262269 0)
(-0.0131183 -0.00261797 0)
(-0.0123184 -0.00260237 0)
(-0.0115246 -0.00257623 0)
(-0.0107397 -0.00253999 0)
(-0.00996647 -0.00249414 0)
(-0.00920756 -0.00243922 0)
(-0.00846543 -0.00237585 0)
(-0.00774237 -0.00230465 0)
(-0.00704053 -0.00222626 0)
(-0.00636185 -0.00214134 0)
(-0.00570812 -0.00205052 0)
(-0.00508099 -0.00195444 0)
(-0.0044819 -0.00185369 0)
(-0.00391218 -0.00174882 0)
(-0.00337301 -0.00164034 0)
(-0.00286545 -0.00152871 0)
(-0.00239045 -0.00141434 0)
(-0.00194886 -0.00129758 0)
(-0.00154144 -0.00117876 0)
(-0.00116889 -0.00105814 0)
(-0.00083181 -0.000936018 0)
(-0.000530744 -0.000812653 0)
(-0.000266136 -0.000688363 0)
(-3.83239e-05 -0.000563532 0)
(0.000152498 -0.000438669 0)
(0.000306327 -0.00031446 0)
(0.000423417 -0.000191851 0)
(0.000504368 -7.21375e-05 0)
(0.000550228 4.29149e-05 0)
(0.000562638 0.000150921 0)
(0.000543985 0.000248699 0)
(0.000497596 0.000332064 0)
(0.000427972 0.000395607 0)
(0.000341046 0.000432493 0)
(0.000244501 0.00043433 0)
(0.0001472 0.000391191 0)
(6.52992e-05 0.000291848 0)
(8.12879e-06 0.000124153 0)
(-1.73089e-05 0.000175503 0)
(-0.000160174 0.000548623 0)
(-0.000408006 0.000915984 0)
(-0.000756484 0.00125262 0)
(-0.00118211 0.00154688 0)
(-0.00167335 0.00179437 0)
(-0.0022181 0.00199576 0)
(-0.00280583 0.00215481 0)
(-0.0034275 0.00227693 0)
(-0.00407549 0.00236813 0)
(-0.00474352 0.00243433 0)
(-0.00542646 0.00248097 0)
(-0.00612026 0.0025128 0)
(-0.00682177 0.00253377 0)
(-0.00752858 0.00254709 0)
(-0.00823892 0.00255521 0)
(-0.00895146 0.00255999 0)
(-0.00966526 0.00256276 0)
(-0.0103796 0.00256439 0)
(-0.011094 0.00256544 0)
(-0.0118081 0.00256618 0)
(-0.0125214 0.00256671 0)
(-0.0132336 0.00256696 0)
(-0.0139445 0.00256675 0)
(-0.0146535 0.00256583 0)
(-0.0153603 0.00256389 0)
(-0.0160644 0.00256059 0)
(-0.016765 0.00255556 0)
(-0.0174615 0.00254839 0)
(-0.0181532 0.00253868 0)
(-0.0188391 0.002526 0)
(-0.0195183 0.00250991 0)
(-0.0201896 0.00248999 0)
(-0.0208518 0.00246579 0)
(-0.0215037 0.00243688 0)
(-0.0221438 0.0024028 0)
(-0.0227706 0.00236314 0)
(-0.0233826 0.00231748 0)
(-0.0239781 0.00226541 0)
(-0.0245553 0.00220656 0)
(-0.0251124 0.00214056 0)
(-0.0256474 0.0020671 0)
(-0.0261586 0.0019859 0)
(-0.0266438 0.00189671 0)
(-0.0271011 0.00179934 0)
(-0.0275284 0.00169366 0)
(-0.0279238 0.00157959 0)
(-0.0282854 0.00145712 0)
(-0.0286111 0.00132631 0)
(-0.0288991 0.00118729 0)
(-0.0291475 0.00104028 0)
(-0.0293548 0.00088555 0)
(-0.0295193 0.00072348 0)
(-0.0296395 0.000554518 0)
(-0.0297141 0.000379194 0)
(-0.0297421 0.000198119 0)
(-0.0297223 1.19835e-05 0)
(-0.0296541 -0.00017845 0)
(-0.0295369 -0.000372345 0)
(-0.0293702 -0.000568802 0)
(-0.0291541 -0.000766859 0)
(-0.0288887 -0.000965503 0)
(-0.0285741 -0.00116368 0)
(-0.0282112 -0.00136029 0)
(-0.0278007 -0.00155421 0)
(-0.0273438 -0.00174431 0)
(-0.0268417 -0.00192946 0)
(-0.0262961 -0.00210851 0)
(-0.0257089 -0.00228036 0)
(-0.0250821 -0.00244393 0)
(-0.0244179 -0.00259819 0)
(-0.0237189 -0.00274215 0)
(-0.0229878 -0.00287492 0)
(-0.0222275 -0.00299567 0)
(-0.0214409 -0.00310368 0)
(-0.0206311 -0.00319831 0)
(-0.0198015 -0.00327905 0)
(-0.0189554 -0.00334552 0)
(-0.0180962 -0.00339742 0)
(-0.0172272 -0.00343463 0)
(-0.0163519 -0.00345712 0)
(-0.0154738 -0.003465 0)
(-0.0145961 -0.00345851 0)
(-0.0137222 -0.00343799 0)
(-0.0128552 -0.00340389 0)
(-0.0119981 -0.00335678 0)
(-0.0111539 -0.00329728 0)
(-0.0103254 -0.00322611 0)
(-0.00951517 -0.00314402 0)
(-0.00872558 -0.00305182 0)
(-0.00795889 -0.00295034 0)
(-0.00721716 -0.00284039 0)
(-0.00650227 -0.0027228 0)
(-0.00581593 -0.00259836 0)
(-0.00515965 -0.00246782 0)
(-0.00453482 -0.00233188 0)
(-0.00394268 -0.00219118 0)
(-0.00338434 -0.00204629 0)
(-0.00286078 -0.00189774 0)
(-0.00237292 -0.00174596 0)
(-0.00192155 -0.00159136 0)
(-0.00150741 -0.0014343 0)
(-0.00113116 -0.00127512 0)
(-0.00079336 -0.00111418 0)
(-0.000494509 -0.000951907 0)
(-0.00023497 -0.000788801 0)
(-1.49604e-05 -0.000625545 0)
(0.000165504 -0.000463056 0)
(0.000306681 -0.000302585 0)
(0.000409187 -0.000145835 0)
(0.000474113 4.89946e-06 0)
(0.000503155 0.000146558 0)
(0.000498778 0.000275105 0)
(0.0004644 0.000385298 0)
(0.000404633 0.00047043 0)
(0.000325543 0.000522076 0)
(0.000234989 0.00052988 0)
(0.00014208 0.000481433 0)
(6.31601e-05 0.00036228 0)
(7.86042e-06 0.000155754 0)
(-2.03065e-05 0.000255438 0)
(-0.0001865 0.000761892 0)
(-0.00047206 0.00123981 0)
(-0.000870545 0.00166803 0)
(-0.00135356 0.00203767 0)
(-0.00190745 0.00234663 0)
(-0.00251837 0.00259754 0)
(-0.0031747 0.00279593 0)
(-0.00386668 0.0029488 0)
(-0.00458626 0.00306363 0)
(-0.00532686 0.00314764 0)
(-0.00608315 0.00320744 0)
(-0.00685093 0.00324876 0)
(-0.00762692 0.00327641 0)
(-0.00840859 0.00329425 0)
(-0.00919403 0.0033053 0)
(-0.00998182 0.00331182 0)
(-0.0107709 0.00331545 0)
(-0.0115603 0.00331729 0)
(-0.0123496 0.00331802 0)
(-0.0131382 0.00331802 0)
(-0.0139255 0.00331739 0)
(-0.0147112 0.00331608 0)
(-0.0154947 0.00331387 0)
(-0.0162756 0.00331048 0)
(-0.0170531 0.00330551 0)
(-0.0178268 0.00329855 0)
(-0.0185959 0.00328914 0)
(-0.0193594 0.00327677 0)
(-0.0201166 0.00326095 0)
(-0.0208662 0.00324115 0)
(-0.0216073 0.00321682 0)
(-0.0223386 0.00318742 0)
(-0.0230586 0.00315242 0)
(-0.023766 0.00311127 0)
(-0.0244591 0.00306343 0)
(-0.0251364 0.00300837 0)
(-0.0257961 0.0029456 0)
(-0.0264362 0.00287462 0)
(-0.0270551 0.00279498 0)
(-0.0276506 0.00270627 0)
(-0.0282207 0.00260811 0)
(-0.0287634 0.00250018 0)
(-0.0292766 0.00238222 0)
(-0.0297581 0.00225402 0)
(-0.0302059 0.00211545 0)
(-0.030618 0.00196646 0)
(-0.0309921 0.00180709 0)
(-0.0313265 0.00163744 0)
(-0.0316191 0.00145774 0)
(-0.0318681 0.00126827 0)
(-0.032072 0.00106946 0)
(-0.032229 0.000861779 0)
(-0.0323378 0.000645845 0)
(-0.0323971 0.000422347 0)
(-0.0324059 0.000192077 0)
(-0.0323632 -4.40821e-05 0)
(-0.0322684 -0.000285158 0)
(-0.032121 -0.000530098 0)
(-0.0319209 -0.000777771 0)
(-0.031668 -0.00102698 0)
(-0.0313625 -0.00127646 0)
(-0.0310051 -0.00152491 0)
(-0.0305964 -0.00177099 0)
(-0.0301374 -0.00201331 0)
(-0.0296296 -0.00225049 0)
(-0.0290743 -0.00248115 0)
(-0.0284734 -0.00270389 0)
(-0.0278289 -0.00291739 0)
(-0.0271431 -0.00312032 0)
(-0.0264183 -0.00331144 0)
(-0.0256575 -0.00348958 0)
(-0.0248633 -0.00365365 0)
(-0.0240389 -0.00380266 0)
(-0.0231874 -0.00393574 0)
(-0.0223123 -0.00405214 0)
(-0.021417 -0.00415126 0)
(-0.0205049 -0.00423262 0)
(-0.0195798 -0.00429593 0)
(-0.0186451 -0.00434101 0)
(-0.0177046 -0.00436787 0)
(-0.0167617 -0.00437666 0)
(-0.0158201 -0.00436767 0)
(-0.0148831 -0.00434134 0)
(-0.0139541 -0.00429824 0)
(-0.0130362 -0.00423907 0)
(-0.0121325 -0.00416461 0)
(-0.011246 -0.00407574 0)
(-0.0103792 -0.0039734 0)
(-0.00953463 -0.00385857 0)
(-0.0087147 -0.00373228 0)
(-0.00792148 -0.00359553 0)
(-0.00715687 -0.00344932 0)
(-0.00642262 -0.00329463 0)
(-0.00572028 -0.00313238 0)
(-0.00505125 -0.0029634 0)
(-0.00441677 -0.00278848 0)
(-0.00381795 -0.00260833 0)
(-0.00325578 -0.00242355 0)
(-0.00273117 -0.0022347 0)
(-0.00224491 -0.00204225 0)
(-0.00179774 -0.00184664 0)
(-0.0013903 -0.00164829 0)
(-0.00102318 -0.00144765 0)
(-0.000696847 -0.00124523 0)
(-0.00041168 -0.00104169 0)
(-0.000167891 -0.000837865 0)
(3.45139e-05 -0.000634924 0)
(0.000195803 -0.000434433 0)
(0.000316612 -0.000238512 0)
(0.000398055 -4.99959e-05 0)
(0.000441861 0.000127364 0)
(0.000450534 0.000288672 0)
(0.000427535 0.000427613 0)
(0.000377529 0.000536168 0)
(0.000306642 0.000604299 0)
(0.000222814 0.000619658 0)
(0.000135274 0.000567338 0)
(6.0265e-05 0.000429722 0)
(7.50353e-06 0.000186071 0)
(-2.30296e-05 0.000347211 0)
(-0.000210579 0.00100497 0)
(-0.000530982 0.00160654 0)
(-0.000975906 0.00213551 0)
(-0.00151244 0.00258676 0)
(-0.00212483 0.00296134 0)
(-0.00279754 0.00326454 0)
(-0.00351778 0.00350412 0)
(-0.00427506 0.00368904 0)
(-0.00506089 0.00382842 0)
(-0.00586839 0.00393095 0)
(-0.00669206 0.00400446 0)
(-0.00752758 0.0040557 0)
(-0.00837157 0.00409034 0)
(-0.00922143 0.00411293 0)
(-0.0100751 0.00412703 0)
(-0.0109312 0.0041353 0)
(-0.0117884 0.00413969 0)
(-0.0126458 0.00414151 0)
(-0.0135027 0.00414158 0)
(-0.0143585 0.00414036 0)
(-0.0152125 0.00413799 0)
(-0.0160641 0.00413441 0)
(-0.0169128 0.00412938 0)
(-0.0177579 0.00412254 0)
(-0.0185987 0.00411345 0)
(-0.0194344 0.0041016 0)
(-0.0202641 0.00408644 0)
(-0.0210869 0.00406739 0)
(-0.0219017 0.00404381 0)
(-0.0227073 0.0040151 0)
(-0.0235025 0.00398059 0)
(-0.0242858 0.00393965 0)
(-0.0250557 0.00389161 0)
(-0.0258107 0.00383584 0)
(-0.026549 0.0037717 0)
(-0.0272689 0.00369857 0)
(-0.0279684 0.00361587 0)
(-0.0286457 0.00352302 0)
(-0.0292986 0.0034195 0)
(-0.029925 0.00330486 0)
(-0.030523 0.00317866 0)
(-0.0310902 0.00304056 0)
(-0.0316245 0.00289027 0)
(-0.0321237 0.00272761 0)
(-0.0325856 0.00255246 0)
(-0.0330082 0.00236481 0)
(-0.0333894 0.00216475 0)
(-0.0337271 0.00195246 0)
(-0.0340195 0.00172824 0)
(-0.0342647 0.00149253 0)
(-0.0344611 0.00124584 0)
(-0.0346072 0.000988817 0)
(-0.0347015 0.00072223 0)
(-0.034743 0.000446951 0)
(-0.0347306 0.000163963 0)
(-0.0346636 -0.000125643 0)
(-0.0345413 -0.000420677 0)
(-0.0343635 -0.000719855 0)
(-0.03413 -0.00102181 0)
(-0.0338409 -0.00132509 0)
(-0.0334967 -0.0016282 0)
(-0.0330981 -0.00192956 0)
(-0.0326458 -0.00222758 0)
(-0.0321412 -0.00252061 0)
(-0.0315855 -0.00280702 0)
(-0.0309806 -0.00308516 0)
(-0.0303284 -0.00335341 0)
(-0.029631 -0.00361017 0)
(-0.0288908 -0.00385392 0)
(-0.0281106 -0.00408318 0)
(-0.0272932 -0.00429658 0)
(-0.0264416 -0.00449284 0)
(-0.025559 -0.00467082 0)
(-0.024649 -0.00482949 0)
(-0.0237149 -0.004968 0)
(-0.0227605 -0.00508563 0)
(-0.0217895 -0.00518185 0)
(-0.0208055 -0.00525632 0)
(-0.0198125 -0.00530886 0)
(-0.0188142 -0.0053395 0)
(-0.0178144 -0.00534842 0)
(-0.0168167 -0.005336 0)
(-0.0158247 -0.00530279 0)
(-0.014842 -0.00524948 0)
(-0.0138718 -0.00517691 0)
(-0.0129172 -0.00508604 0)
(-0.0119814 -0.00497792 0)
(-0.011067 -0.0048537 0)
(-0.0101766 -0.00471455 0)
(-0.00931253 -0.00456171 0)
(-0.00847701 -0.00439637 0)
(-0.00767195 -0.00421976 0)
(-0.00689907 -0.00403301 0)
(-0.00615992 -0.00383722 0)
(-0.00545586 -0.00363341 0)
(-0.00478812 -0.0034225 0)
(-0.00415775 -0.00320531 0)