/*--------------------------------*- C++ -*----------------------------------*\
| =========                 |                                                 |
| \\      /  F ield         | OpenFOAM: The Open Source CFD Toolbox           |
|  \\    /   O peration     | Version:  2406                                  |
|   \\  /    A nd           | Website:  www.openfoam.com                      |
|    \\/     M anipulation  |                                                 |
\*---------------------------------------------------------------------------*/
FoamFile
{
    version     2.0;
    format      ascii;
    arch        "LSB;label=32;scalar=64";
    class       volVectorField;
    location    "12.3";
    object      U;
}
// * * * * * * * * * * * * * * * * * * * * * * * * * * * * * * * * * * * * * //

dimensions      [0 1 -1 0 0 0 0];

internalField   nonuniform List<vector> 
3600
(
(1.95005e-05 -1.78567e-05 0)
(2.03729e-05 -3.01552e-07 0)
(-3.61974e-05 2.0427e-05 0)
(-0.00015238 3.9859e-05 0)
(-0.000313741 4.96048e-05 0)
(-0.000498643 5.58373e-05 0)
(-0.000701701 5.76276e-05 0)
(-0.000909843 5.94078e-05 0)
(-0.00112724 6.04176e-05 0)
(-0.00134812 6.26742e-05 0)
(-0.00157894 6.51165e-05 0)
(-0.0018164 6.85315e-05 0)
(-0.00206534 7.19644e-05 0)
(-0.00232269 7.57325e-05 0)
(-0.00259076 7.9119e-05 0)
(-0.00286597 8.22501e-05 0)
(-0.0031483 8.45976e-05 0)
(-0.00343344 8.6181e-05 0)
(-0.00371938 8.65928e-05 0)
(-0.004001 8.5784e-05 0)
(-0.0042746 8.34265e-05 0)
(-0.00453427 7.94347e-05 0)
(-0.00477499 7.35469e-05 0)
(-0.00499019 6.56794e-05 0)
(-0.00517393 5.56549e-05 0)
(-0.00531936 4.34503e-05 0)
(-0.00542033 2.90265e-05 0)
(-0.00547041 1.25052e-05 0)
(-0.00546424 -5.93501e-06 0)
(-0.00539698 -2.59377e-05 0)
(-0.00526547 -4.70387e-05 0)
(-0.00506793 -6.86018e-05 0)
(-0.00480492 -8.98819e-05 0)
(-0.00447903 -0.000110024 0)
(-0.00409566 -0.000128132 0)
(-0.00366237 -0.000143329 0)
(-0.00318939 -0.000154821 0)
(-0.00268851 -0.000161997 0)
(-0.00217334 -0.000164446 0)
(-0.00165764 -0.000162074 0)
(-0.00115577 -0.000155023 0)
(-0.000680373 -0.000143788 0)
(-0.00024354 -0.000128996 0)
(0.000146009 -0.000111567 0)
(0.000480484 -9.2332e-05 0)
(0.000756607 -7.23282e-05 0)
(0.000971214 -5.22344e-05 0)
(0.00112629 -3.29242e-05 0)
(0.00122195 -1.46616e-05 0)
(0.00126413 1.93938e-06 0)
(0.00125397 1.7111e-05 0)
(0.00120005 3.03469e-05 0)
(0.00110264 4.22679e-05 0)
(0.000972971 5.20176e-05 0)
(0.000810203 6.03067e-05 0)
(0.000630866 6.4965e-05 0)
(0.000436016 6.61952e-05 0)
(0.000253821 5.8384e-05 0)
(9.56332e-05 4.10193e-05 0)
(6.44216e-06 7.02808e-06 0)
(3.38126e-06 -2.17307e-05 0)
(-8.7612e-05 8.56708e-05 0)
(-0.000313497 0.000198913 0)
(-0.00065887 0.000303538 0)
(-0.00110516 0.000368268 0)
(-0.00160978 0.000412536 0)
(-0.0021609 0.000434854 0)
(-0.00273163 0.000451789 0)
(-0.00332493 0.000463457 0)
(-0.0039287 0.000477628 0)
(-0.00455113 0.000492077 0)
(-0.0051858 0.000509237 0)
(-0.00583896 0.00052614 0)
(-0.00650458 0.000543069 0)
(-0.00718453 0.000557363 0)
(-0.00787126 0.000568562 0)
(-0.00856217 0.000574491 0)
(-0.00924772 0.000574438 0)
(-0.0099215 0.000566655 0)
(-0.0105721 0.000550387 0)
(-0.0111901 0.000524271 0)
(-0.0117626 0.000487663 0)
(-0.0122782 0.000439609 0)
(-0.0127234 0.000379746 0)
(-0.0130859 0.000307657 0)
(-0.0133523 0.000223513 0)
(-0.013511 0.000127687 0)
(-0.0135506 2.12328e-05 0)
(-0.0134618 -9.43473e-05 0)
(-0.0132373 -0.000216781 0)
(-0.0128729 -0.000343207 0)
(-0.0123676 -0.000470042 0)
(-0.0117248 -0.000593207 0)
(-0.0109521 -0.000708213 0)
(-0.0100617 -0.00081047 0)
(-0.00907052 -0.000895567 0)
(-0.00799964 -0.000959603 0)
(-0.00687321 -0.000999571 0)
(-0.00571845 -0.00101355 0)
(-0.00456297 -0.00100104 0)
(-0.00343517 -0.000962857 0)
(-0.00236071 -0.000901322 0)
(-0.00136386 -0.000819699 0)
(-0.000463285 -0.000722386 0)
(0.000324721 -0.000613852 0)
(0.000991398 -0.000499101 0)
(0.00152936 -0.000382174 0)
(0.00193972 -0.000267276 0)
(0.00222197 -0.000156797 0)
(0.00238495 -5.35442e-05 0)
(0.00243145 4.2016e-05 0)
(0.00237579 0.00012783 0)
(0.00222124 0.000204521 0)
(0.00198806 0.000268739 0)
(0.00168028 0.00032046 0)
(0.00132937 0.000351582 0)
(0.000944517 0.000359625 0)
(0.000577714 0.000326661 0)
(0.000249435 0.000248287 0)
(4.00086e-05 9.51714e-05 0)
(-2.28992e-05 4.18657e-05 0)
(-0.000235995 0.000325434 0)
(-0.000666257 0.00060216 0)
(-0.00125632 0.000846236 0)
(-0.00198768 0.00100751 0)
(-0.00279686 0.00111765 0)
(-0.00367161 0.00117916 0)
(-0.0045739 0.00122269 0)
(-0.00550669 0.00125284 0)
(-0.00645203 0.00128416 0)
(-0.00741829 0.00131476 0)
(-0.00839538 0.00134841 0)
(-0.00938898 0.00138025 0)
(-0.0103898 0.00140966 0)
(-0.0113979 0.00143162 0)
(-0.0124021 0.00144417 0)
(-0.013397 0.00144299 0)
(-0.0143689 0.00142591 0)
(-0.0153079 0.0013895 0)
(-0.0161984 0.00133187 0)
(-0.0170272 0.00125054 0)
(-0.0177779 0.00114421 0)
(-0.0184357 0.0010114 0)
(-0.0189841 0.000851697 0)
(-0.0194083 0.000664867 0)
(-0.019693 0.00045178 0)
(-0.0198251 0.000213931 0)
(-0.019792 -4.58779e-05 0)
(-0.0195844 -0.000323795 0)
(-0.0191947 -0.000614463 0)
(-0.0186201 -0.000911268 0)
(-0.0178609 -0.00120619 0)
(-0.0169233 -0.00149022 0)
(-0.015818 -0.00175359 0)
(-0.014562 -0.00198639 0)
(-0.0131772 -0.00217917 0)
(-0.011691 -0.00232361 0)
(-0.0101346 -0.00241328 0)
(-0.00854285 -0.00244412 0)
(-0.00695129 -0.00241504 0)
(-0.00539643 -0.0023278 0)
(-0.00391167 -0.00218729 0)
(-0.00252851 -0.00200065 0)
(-0.0012718 -0.00177725 0)
(-0.000163048 -0.00152704 0)
(0.0007853 -0.00126078 0)
(0.00156314 -0.000987811 0)
(0.00217054 -0.000717188 0)
(0.00260648 -0.000455022 0)
(0.00288088 -0.000207252 0)
(0.00299741 2.37044e-05 0)
(0.00297319 0.000233718 0)
(0.00281324 0.000421872 0)
(0.0025427 0.000581575 0)
(0.00216849 0.000709199 0)
(0.00173064 0.000789525 0)
(0.00124243 0.000812714 0)
(0.000770531 0.000748973 0)
(0.00033933 0.000581787 0)
(5.88747e-05 0.000256205 0)
(-5.37287e-05 0.000191214 0)
(-0.000407716 0.000739886 0)
(-0.00106279 0.00123103 0)
(-0.00190639 0.00164132 0)
(-0.00292069 0.0019169 0)
(-0.00402044 0.00210379 0)
(-0.00519763 0.0022123 0)
(-0.0064041 0.0022868 0)
(-0.00764513 0.00233746 0)
(-0.00889648 0.00238528 0)
(-0.0101668 0.00242902 0)
(-0.0114412 0.0024736 0)
(-0.0127242 0.00251229 0)
(-0.0140025 0.00254336 0)
(-0.0152742 0.00255933 0)
(-0.0165242 0.0025566 0)
(-0.0177447 0.0025287 0)
(-0.0189188 0.00247209 0)
(-0.0200342 0.00238186 0)
(-0.021073 0.00225533 0)
(-0.0220207 0.00208934 0)
(-0.0228595 0.00188244 0)
(-0.0235746 0.00163317 0)
(-0.0241492 0.00134155 0)
(-0.0245692 0.00100799 0)
(-0.0248199 0.000634411 0)
(-0.024889 0.000223708 0)
(-0.0247647 -0.000219376 0)
(-0.0244384 -0.000688495 0)
(-0.0239032 -0.00117509 0)
(-0.0231564 -0.00166864 0)
(-0.0221992 -0.00215653 0)
(-0.0210381 -0.00262453 0)
(-0.019685 -0.00305722 0)
(-0.0181585 -0.00343893 0)
(-0.0164826 -0.00375457 0)
(-0.0146884 -0.00399084 0)
(-0.0128111 -0.00413727 0)
(-0.0108908 -0.00418715 0)
(-0.00896923 -0.00413843 0)
(-0.00708927 -0.00399374 0)
(-0.00529081 -0.0037607 0)
(-0.00361155 -0.00345079 0)
(-0.00208152 -0.00307906 0)
(-0.00072658 -0.00266182 0)
(0.000438096 -0.00221654 0)
(0.00140062 -0.00175877 0)
(0.00216093 -0.00130329 0)
(0.00271823 -0.000860567 0)
(0.00308414 -0.000440229 0)
(0.00326351 -4.70367e-05 0)
(0.00327615 0.000312434 0)
(0.00312838 0.000635307 0)
(0.00284904 0.000911344 0)
(0.0024462 0.00113258 0)
(0.00196546 0.00127646 0)
(0.00142095 0.00132451 0)
(0.000888666 0.00123483 0)
(0.00039452 0.000972402 0)
(6.95614e-05 0.000448706 0)
(-8.14632e-05 0.000430609 0)
(-0.000573241 0.00134619 0)
(-0.00145231 0.0021111 0)
(-0.00254652 0.0027181 0)
(-0.00383676 0.00312563 0)
(-0.00521339 0.00339781 0)
(-0.00667378 0.00355823 0)
(-0.00815949 0.00366502 0)
(-0.00967963 0.00373545 0)
(-0.0112036 0.00379631 0)
(-0.012741 0.00384743 0)
(-0.0142719 0.00389429 0)
(-0.0157999 0.00392843 0)
(-0.0173071 0.00394666 0)
(-0.0187899 0.00393918 0)
(-0.0202297 0.00390067 0)
(-0.0216171 0.00382285 0)
(-0.0229328 0.00370106 0)
(-0.024164 0.00352951 0)
(-0.0252921 0.00330531 0)
(-0.0263037 0.0030253 0)
(-0.0271821 0.00268851 0)
(-0.0279147 0.00229404 0)
(-0.0284871 0.00184265 0)
(-0.0288877 0.00133555 0)
(-0.029104 0.000775586 0)
(-0.0291253 0.000166774 0)
(-0.0289405 -0.000484628 0)
(-0.0285405 -0.00117024 0)
(-0.0279174 -0.00187871 0)
(-0.0270663 -0.00259589 0)
(-0.0259854 -0.00330455 0)
(-0.0246785 -0.00398498 0)
(-0.0231545 -0.00461546 0)
(-0.0214302 -0.00517351 0)
(-0.0195291 -0.00563713 0)
(-0.0174832 -0.00598649 0)
(-0.015331 -0.00620553 0)
(-0.0131181 -0.0062835 0)
(-0.010893 -0.00621633 0)
(-0.0087073 -0.00600701 0)
(-0.00660977 -0.00566603 0)
(-0.00464693 -0.00520998 0)
(-0.00285633 -0.00466092 0)
(-0.00126976 -0.00404325 0)
(9.41406e-05 -0.00338303 0)
(0.00122191 -0.00270383 0)
(0.00211435 -0.00202758 0)
(0.00277247 -0.00137026 0)
(0.00321137 -0.000745789 0)
(0.00343884 -0.000161667 0)
(0.00347877 0.000373144 0)
(0.00333965 0.000853627 0)
(0.00305415 0.00126608 0)
(0.00263111 0.00159758 0)
(0.00212043 0.0018181 0)
(0.00153628 0.00189886 0)
(0.000962094 0.00178464 0)
(0.00042575 0.00141746 0)
(7.39276e-05 0.000669074 0)
(-0.00010819 0.00075265 0)
(-0.000734041 0.00213144 0)
(-0.00182882 0.00322067 0)
(-0.00316224 0.00404472 0)
(-0.00471264 0.004591 0)
(-0.00634612 0.00494786 0)
(-0.00806592 0.00515759 0)
(-0.00980354 0.00529219 0)
(-0.0115727 0.00537683 0)
(-0.0133364 0.00544297 0)
(-0.0151057 0.00549142 0)
(-0.0168552 0.00552765 0)
(-0.0185879 0.00554149 0)
(-0.0202815 0.00552829 0)
(-0.0219312 0.00547628 0)
(-0.0235154 0.00537889 0)
(-0.0250242 0.00522673 0)
(-0.0264373 0.00501493 0)
(-0.0277433 0.00473785 0)
(-0.0289253 0.00439345 0)
(-0.0299734 0.00397961 0)
(-0.0308749 0.00349661 0)
(-0.0316221 0.00294455 0)
(-0.0322053 0.00232498 0)
(-0.0326173 0.00163942 0)
(-0.0328483 0.000890743 0)
(-0.0328893 8.28017e-05 0)
(-0.0327283 -0.000778164 0)
(-0.0323537 -0.00168336 0)
(-0.0317524 -0.00262018 0)
(-0.0309127 -0.00357214 0)
(-0.0298246 -0.00451823 0)
(-0.0284828 -0.00543349 0)
(-0.0268878 -0.00628944 0)
(-0.0250486 -0.00705557 0)
(-0.0229837 -0.00770096 0)
(-0.0207231 -0.00819669 0)
(-0.0183074 -0.00851822 0)
(-0.0157883 -0.0086479 0)
(-0.0132247 -0.00857717 0)
(-0.0106815 -0.00830775 0)
(-0.00822272 -0.00785241 0)
(-0.00591044 -0.00723348 0)
(-0.00379609 -0.00648179 0)
(-0.00192262 -0.00563235 0)
(-0.000315616 -0.00472272 0)
(0.00100831 -0.00378732 0)
(0.0020512 -0.00285758 0)
(0.00281768 -0.00195663 0)
(0.00332913 -0.00110351 0)
(0.0035994 -0.000308528 0)
(0.00365951 0.000417419 0)
(0.00352258 0.00106798 0)
(0.00322684 0.00162685 0)
(0.00278292 0.00207686 0)
(0.00224501 0.00238081 0)
(0.00162731 0.00249924 0)
(0.00101902 0.0023618 0)
(0.000449838 0.00188502 0)
(7.71328e-05 0.000897162 0)
(-0.000131766 0.00115595 0)
(-0.000880636 0.00309316 0)
(-0.00217466 0.00455804 0)
(-0.00372917 0.00562161 0)
(-0.00551928 0.00631461 0)
(-0.0073874 0.00675586 0)
(-0.00934213 0.00701168 0)
(-0.011305 0.0071686 0)
(-0.0132944 0.00726065 0)
(-0.0152672 0.00732308 0)
(-0.017236 0.00735777 0)
(-0.0191704 0.00736952 0)
(-0.0210731 0.00734676 0)
(-0.0229181 0.00728331 0)
(-0.0247 0.00716609 0)
(-0.0263953 0.00698789 0)
(-0.027995 0.00673938 0)
(-0.0294801 0.00641663 0)
(-0.0308431 0.00601567 0)
(-0.0320716 0.00553664 0)
(-0.0331629 0.00497967 0)
(-0.0341117 0.00434696 0)
(-0.0349186 0.00363978 0)
(-0.0355811 0.00285976 0)
(-0.0360981 0.00200737 0)
(-0.0364631 0.00108347 0)
(-0.0366675 8.91631e-05 0)
(-0.0366959 -0.000972184 0)
(-0.0365293 -0.00209427 0)
(-0.0361434 -0.00326597 0)
(-0.0355121 -0.00447059 0)
(-0.0346083 -0.00568479 0)
(-0.0334081 -0.00687868 0)
(-0.0318935 -0.00801604 0)
(-0.030057 -0.00905596 0)
(-0.0279042 -0.00995489 0)
(-0.0254577 -0.0106699 0)
(-0.0227578 -0.0111622 0)
(-0.0198634 -0.0114016 0)
(-0.0168486 -0.0113696 0)
(-0.0138001 -0.0110628 0)
(-0.0108084 -0.0104944 0)
(-0.00796409 -0.00969293 0)
(-0.00534546 -0.00870057 0)
(-0.00301824 -0.00756765 0)
(-0.00102368 -0.00634887 0)
(0.000613252 -0.00509529 0)
(0.00189441 -0.00385293 0)
(0.0028297 -0.00265575 0)
(0.00345084 -0.00152997 0)
(0.00378285 -0.000489269 0)
(0.00386928 0.000454164 0)
(0.00373273 0.00129398 0)
(0.00342087 0.00201288 0)
(0.00294895 0.00259086 0)
(0.00237724 0.00298427 0)
(0.00172111 0.00314312 0)
(0.00107588 0.00298045 0)
(0.000473084 0.0023861 0)
(7.99929e-05 0.00114067 0)
(-0.000153788 0.00162982 0)
(-0.0010163 0.00421041 0)
(-0.00249241 0.00609477 0)
(-0.00424805 0.00741477 0)
(-0.00625501 0.00825745 0)
(-0.00833386 0.00877884 0)
(-0.0104982 0.00907406 0)
(-0.0126602 0.00924498 0)
(-0.0148426 0.00933516 0)
(-0.0169966 0.00938289 0)
(-0.0191365 0.00939101 0)
(-0.0212272 0.00936324 0)
(-0.0232718 0.00928686 0)
(-0.0252409 0.00915451 0)
(-0.02713 0.00895274 0)
(-0.0289149 0.0086749 0)
(-0.0305902 0.0083134 0)
(-0.0321406 0.00786726 0)
(-0.0335665 0.00733628 0)
(-0.0348646 0.00672476 0)
(-0.0360444 0.00603657 0)
(-0.0371129 0.00527651 0)
(-0.0380837 0.00444654 0)
(-0.0389651 0.00354679 0)
(-0.0397639 0.00257386 0)
(-0.040477 0.00152279 0)
(-0.0410941 0.000387412 0)
(-0.0415915 -0.00083677 0)
(-0.041936 -0.002151 0)
(-0.0420828 -0.00355035 0)
(-0.0419796 -0.00502195 0)
(-0.041569 -0.00654289 0)
(-0.0407942 -0.00807946 0)
(-0.0396039 -0.00958678 0)
(-0.0379601 -0.0110103 0)
(-0.035843 -0.012288 0)
(-0.0332587 -0.0133553 0)
(-0.0302411 -0.0141497 0)
(-0.0268562 -0.0146178 0)
(-0.0231978 -0.0147217 0)
(-0.0193854 -0.0144445 0)
(-0.015552 -0.0137941 0)
(-0.011837 -0.0128038 0)
(-0.00836768 -0.0115301 0)
(-0.00525416 -0.0100453 0)
(-0.00257146 -0.00843075 0)
(-0.000365493 -0.00676452 0)
(0.00135928 -0.00511696 0)
(0.00261808 -0.00354033 0)
(0.0034578 -0.00207266 0)
(0.0039224 -0.000732641 0)
(0.00407685 0.000466952 0)
(0.00396175 0.00152213 0)
(0.00364146 0.00241752 0)
(0.00314139 0.00313324 0)
(0.00253177 0.00362126 0)
(0.00183152 0.00382222 0)
(0.00114355 0.00363179 0)
(0.000501741 0.00291202 0)
(8.42375e-05 0.00139333 0)
(-0.000173209 0.0021713 0)
(-0.00113765 0.00547423 0)
(-0.00277711 0.00781896 0)
(-0.00471292 0.00941214 0)
(-0.00691381 0.0104082 0)
(-0.00918042 0.0110067 0)
(-0.0115309 0.0113354 0)
(-0.0138686 0.0115126 0)
(-0.0162206 0.011592 0)
(-0.0185324 0.0116146 0)
(-0.0208204 0.011584 0)
(-0.0230455 0.0115029 0)
(-0.0252116 0.0113577 0)
(-0.0272873 0.0111407 0)
(-0.0292704 0.0108394 0)
(-0.0311387 0.0104496 0)
(-0.0328931 0.00996803 0)
(-0.0345272 0.00939948 0)
(-0.0360546 0.0087507 0)
(-0.0374885 0.00803275 0)
(-0.0388574 0.00725497 0)
(-0.040188 0.00642492 0)
(-0.0415127 0.00554378 0)
(-0.0428546 0.00460676 0)
(-0.0442303 0.00360165 0)
(-0.0456387 0.00251129 0)
(-0.0470631 0.00131503 0)
(-0.0484643 -7.25363e-06 0)
(-0.0497841 -0.00147211 0)
(-0.050943 -0.00308804 0)
(-0.0518465 -0.00485206 0)
(-0.0523883 -0.00674588 0)
(-0.0524594 -0.00873369 0)
(-0.0519561 -0.0107606 0)
(-0.0507912 -0.0127536 0)
(-0.0489034 -0.0146242 0)
(-0.0462685 -0.0162744 0)
(-0.0429052 -0.0176039 0)
(-0.0388814 -0.0185203 0)
(-0.0343131 -0.0189493 0)
(-0.0293616 -0.0188452 0)
(-0.0242204 -0.0181992 0)
(-0.0191032 -0.0170429 0)
(-0.0142187 -0.0154477 0)
(-0.00975584 -0.0135161 0)
(-0.00585646 -0.0113701 0)
(-0.00261382 -0.0091332 0)
(-5.52435e-05 -0.00691804 0)
(0.001834 -0.00481048 0)
(0.00311977 -0.0028708 0)
(0.00387529 -0.0011276 0)
(0.00420064 0.000405485 0)
(0.00416837 0.0017299 0)
(0.00387216 0.0028369 0)
(0.00335751 0.00371169 0)
(0.00271223 0.00430586 0)
(0.00196355 0.00455333 0)
(0.00122586 0.00433291 0)
(0.000537051 0.00347793 0)
(8.97289e-05 0.00166492 0)
(-0.000191068 0.00277092 0)
(-0.00124774 0.00686542 0)
(-0.00303358 0.00970538 0)
(-0.00513022 0.0115849 0)
(-0.00750368 0.0127358 0)
(-0.00993693 0.0134068 0)
(-0.0124523 0.0137621 0)
(-0.0149454 0.0139375 0)
(-0.0174473 0.0139971 0)
(-0.0198984 0.0139842 0)
(-0.0223175 0.0139037 0)
(-0.0246619 0.0137569 0)
(-0.0269377 0.0135305 0)
(-0.0291127 0.0132173 0)
(-0.0311893 0.0128082 0)
(-0.0331508 0.0123044 0)
(-0.0350101 0.0117109 0)
(-0.0367763 0.011043 0)
(-0.0384857 0.0103186 0)
(-0.0401772 0.0095591 0)
(-0.0419089 0.00878085 0)
(-0.0437358 0.00799333 0)
(-0.0457156 0.00719337 0)
(-0.0478897 0.00636515 0)
(-0.0502838 0.00547941 0)
(-0.0528949 0.00449695 0)
(-0.0556914 0.00337171 0)
(-0.058606 0.00205655 0)
(-0.0615393 0.000508458 0)
(-0.0643581 -0.00130467 0)
(-0.0669043 -0.00339795 0)
(-0.0690007 -0.0057631 0)
(-0.0704647 -0.00836396 0)
(-0.0711201 -0.0111334 0)
(-0.0708133 -0.0139736 0)
(-0.0694259 -0.0167592 0)
(-0.0668896 -0.0193445 0)
(-0.0631954 -0.0215736 0)
(-0.0584031 -0.0232942 0)
(-0.0526441 -0.0243728 0)
(-0.0461213 -0.0247112 0)
(-0.0390979 -0.0242618 0)
(-0.0318834 -0.0230382 0)
(-0.0248026 -0.0211191 0)
(-0.0181698 -0.0186415 0)
(-0.0122449 -0.0157851 0)
(-0.00721706 -0.0127446 0)
(-0.00317399 -0.00970603 0)
(-0.000122286 -0.00681749 0)
(0.00201916 -0.00418341 0)
(0.00336296 -0.00185462 0)
(0.00406262 0.000150907 0)
(0.00424397 0.00184341 0)
(0.00405014 0.00322787 0)
(0.00356347 0.00430276 0)
(0.00290221 0.00502667 0)
(0.00211063 0.00533193 0)
(0.0013211 0.00508296 0)
(0.000579195 0.00408378 0)
(9.67578e-05 0.00195447 0)
(-0.000206773 0.00342487 0)
(-0.00134549 0.00837365 0)
(-0.00326156 0.0117403 0)
(-0.00550106 0.0139184 0)
(-0.00802787 0.0152262 0)
(-0.0106093 0.0159666 0)
(-0.0132718 0.0163433 0)
(-0.0159039 0.0165102 0)
(-0.0185405 0.0165428 0)
(-0.0211179 0.0164863 0)
(-0.0236572 0.0163471 0)
(-0.0261136 0.0161257 0)
(-0.0284961 0.0158102 0)
(-0.0307744 0.0153964 0)
(-0.032959 0.0148819 0)
(-0.0350445 0.0142781 0)
(-0.0370639 0.0136047 0)
(-0.0390525 0.0128937 0)
(-0.0410815 0.0121804 0)
(-0.043229 0.0115 0)
(-0.045594 0.0108765 0)
(-0.0482689 0.0103175 0)
(-0.0513413 0.00980846 0)
(-0.0548703 0.00931202 0)
(-0.0588857 0.00876905 0)
(-0.0633711 0.00810387 0)
(-0.0682647 0.00722971 0)
(-0.073451 0.00605699 0)
(-0.0787654 0.00450193 0)
(-0.0839961 0.0024969 0)
(-0.0888973 5.45682e-07 0)
(-0.0932004 -0.00299244 0)
(-0.0966342 -0.00644425 0)
(-0.0989408 -0.0102699 0)
(-0.0998947 -0.0143376 0)
(-0.0993167 -0.0184736 0)
(-0.0970883 -0.0224708 0)
(-0.0931621 -0.0261012 0)
(-0.0875737 -0.0291323 0)
(-0.0804485 -0.0313463 0)
(-0.0720094 -0.0325631 0)
(-0.0625734 -0.0326631 0)
(-0.0525436 -0.0316096 0)
(-0.0423797 -0.0294636 0)
(-0.0325637 -0.0263858 0)
(-0.0235391 -0.0226223 0)
(-0.0156671 -0.0184692 0)
(-0.00916802 -0.0142308 0)
(-0.00412296 -0.0101675 0)
(-0.000461543 -0.00647077 0)
(0.00196883 -0.00324244 0)
(0.00339461 -0.00051736 0)
(0.00402373 0.00172442 0)
(0.00407891 0.00351091 0)
(0.00370577 0.00486633 0)
(0.00307396 0.00576873 0)
(0.0022595 0.00615798 0)
(0.00142366 0.00588996 0)
(0.000626127 0.00473998 0)
(0.000104832 0.00226926 0)
(-0.000221106 0.00412606 0)
(-0.00143353 0.00998434 0)
(-0.00346588 0.0139049 0)
(-0.00583275 0.016392 0)
(-0.00849635 0.0178579 0)
(-0.0112105 0.0186648 0)
(-0.0140054 0.0190583 0)
(-0.0167639 0.0192115 0)
(-0.0195245 0.0192115 0)
(-0.0222202 0.0191056 0)
(-0.024875 0.018902 0)
(-0.0274432 0.0186015 0)
(-0.0299386 0.0181959 0)
(-0.0323363 0.0176872 0)
(-0.0346607 0.0170857 0)
(-0.0369261 0.0164206 0)
(-0.0391977 0.0157352 0)
(-0.0415517 0.0150872 0)
(-0.0441102 0.014536 0)
(-0.0470046 0.0141328 0)
(-0.0503859 0.0139062 0)
(-0.0543887 0.0138542 0)
(-0.0591288 0.0139374 0)
(-0.0646746 0.0140807 0)
(-0.0710438 0.0141764 0)
(-0.0781852 0.0140923 0)
(-0.0859786 0.0136804 0)
(-0.0942282 0.0127899 0)
(-0.102672 0.0112807 0)
(-0.110991 0.00904033 0)
(-0.118833 0.0059989 0)
(-0.125833 0.00214248 0)
(-0.131638 -0.00247934 0)
(-0.135928 -0.00775136 0)
(-0.138428 -0.0134966 0)
(-0.138919 -0.0194836 0)
(-0.137245 -0.0254377 0)
(-0.133316 -0.0310528 0)
(-0.127122 -0.0360073 0)
(-0.118745 -0.0399833 0)
(-0.108377 -0.0426918 0)
(-0.0963292 -0.0439023 0)
(-0.0830477 -0.0434785 0)
(-0.0690969 -0.0414108 0)
(-0.0551334 -0.0378392 0)
(-0.041836 -0.0330557 0)
(-0.0298312 -0.0274719 0)
(-0.0195888 -0.0215603 0)
(-0.0113739 -0.0157679 0)
(-0.00520333 -0.0104511 0)
(-0.000915426 -0.00582335 0)
(0.00179742 -0.00197067 0)
(0.00325792 0.0011281 0)
(0.00380928 0.00353332 0)
(0.00369968 0.00531262 0)
(0.00318214 0.00648307 0)
(0.00238805 0.00700764 0)
(0.00152419 0.00674468 0)
(0.000675194 0.00544428 0)
(0.000113772 0.00260879 0)
(-0.000233651 0.00487012 0)
(-0.00151148 0.0116873 0)
(-0.00364739 0.0161862 0)
(-0.00612789 0.0189919 0)
(-0.00891412 0.0206179 0)
(-0.0117481 0.02149 0)
(-0.0146641 0.0218979 0)
(-0.0175399 0.0220346 0)
(-0.020418 0.0219992 0)
(-0.0232288 0.0218413 0)
(-0.0260001 0.0215723 0)
(-0.028687 0.0211944 0)
(-0.0313112 0.020707 0)
(-0.0338586 0.0201242 0)
(-0.0363757 0.0194776 0)
(-0.0389096 0.0188256 0)
(-0.0415731 0.0182475 0)
(-0.044502 0.017837 0)
(-0.0478857 0.0176827 0)
(-0.0519214 0.0178505 0)
(-0.0568162 0.0183639 0)
(-0.0627421 0.0191946 0)
(-0.0698289 0.0202576 0)
(-0.0781309 0.0214156 0)
(-0.0876218 0.0224861 0)
(-0.0981749 0.0232532 0)
(-0.109566 0.0234831 0)
(-0.121473 0.0229445 0)
(-0.133499 0.0214322 0)
(-0.145199 0.0187923 0)
(-0.156121 0.0149425 0)
(-0.165832 0.0098842 0)
(-0.173952 0.00370423 0)
(-0.180159 -0.00343193 0)
(-0.184192 -0.0112917 0)
(-0.185841 -0.0195873 0)
(-0.184946 -0.0279866 0)
(-0.181384 -0.0361214 0)
(-0.175085 -0.0435962 0)
(-0.166037 -0.0500007 0)
(-0.154322 -0.0549288 0)
(-0.140147 -0.0580091 0)
(-0.123884 -0.0589492 0)
(-0.106092 -0.057589 0)
(-0.0875243 -0.0539568 0)
(-0.0690781 -0.0483092 0)
(-0.0517079 -0.0411318 0)
(-0.0362729 -0.0330855 0)
(-0.0234032 -0.0248879 0)
(-0.0133709 -0.0171815 0)
(-0.00611257 -0.010409 0)
(-0.00127329 -0.00478886 0)
(0.00160694 -0.000333624 0)
(0.00304077 0.00305113 0)
(0.00343359 0.00549805 0)
(0.0031687 0.00709219 0)
(0.00246887 0.00784443 0)
(0.00161161 0.00763488 0)
(0.000723172 0.00619675 0)
(0.00012319 0.00297643 0)
(-0.000245053 0.00565247 0)
(-0.00158142 0.0134728 0)
(-0.00380988 0.018572 0)
(-0.00639233 0.0217055 0)
(-0.00928929 0.0234941 0)
(-0.0122328 0.0244314 0)
(-0.0152613 0.0248529 0)
(-0.0182485 0.0249728 0)
(-0.021241 0.0249023 0)
(-0.024168 0.0246942 0)
(-0.0270621 0.024364 0)
(-0.0298819 0.0239191 0)
(-0.0326613 0.0233716 0)
(-0.0354047 0.0227571 0)
(-0.038193 0.0221417 0)
(-0.0411223 0.0216282 0)
(-0.0443731 0.0213464 0)
(-0.048159 0.0214351 0)
(-0.0527499 0.0220126 0)
(-0.0584119 0.0231485 0)
(-0.0653994 0.0248415 0)
(-0.0739003 0.0270097 0)
(-0.0840246 0.0294909 0)
(-0.0957667 0.032051 0)
(-0.108999 0.0343967 0)
(-0.123454 0.0361953 0)
(-0.138738 0.0371027 0)
(-0.154353 0.0367989 0)
(-0.169746 0.0350273 0)
(-0.184366 0.031628 0)
(-0.197717 0.0265544 0)
(-0.209391 0.0198726 0)
(-0.219078 0.0117449 0)
(-0.226553 0.00240727 0)
(-0.231657 -0.00785215 0)
(-0.234265 -0.0187078 0)
(-0.23426 -0.0298037 0)
(-0.231515 -0.0407529 0)
(-0.225895 -0.0511333 0)
(-0.217262 -0.0604843 0)
(-0.205513 -0.0683111 0)
(-0.19063 -0.0741034 0)
(-0.172747 -0.0773762 0)
(-0.152229 -0.077736 0)
(-0.129727 -0.0749694 0)
(-0.106203 -0.0691409 0)
(-0.082876 -0.0606633 0)
(-0.0610692 -0.0503068 0)
(-0.0419867 -0.03909 0)
(-0.0264407 -0.0280837 0)
(-0.0147172 -0.0181558 0)
(-0.00655891 -0.00982933 0)
(-0.00139541 -0.00324979 0)
(0.00149872 0.00168529 0)
(0.00275613 0.00519292 0)
(0.00295639 0.00746566 0)
(0.00246668 0.00860013 0)
(0.00167258 0.00852951 0)
(0.000766918 0.00698659 0)
(0.000133073 0.00337052 0)
(-0.000254848 0.00646792 0)
(-0.00164267 0.0153304 0)
(-0.00395342 0.0210497 0)
(-0.00662725 0.0245195 0)
(-0.00962469 0.0264743 0)
(-0.0126693 0.0274785 0)
(-0.0158038 0.0279156 0)
(-0.0188989 0.0280211 0)
(-0.0220057 0.0279196 0)
(-0.0250534 0.0276678 0)
(-0.0280811 0.0272879 0)
(-0.0310548 0.0267972 0)
(-0.034027 0.0262295 0)
(-0.0370316 0.0256554 0)
(-0.0401994 0.0251932 0)
(-0.0436958 0.0250091 0)
(-0.0477884 0.0252973 0)
(-0.0527826 0.0262457 0)
(-0.0590309 0.0279913 0)
(-0.0668547 0.0305832 0)
(-0.0765258 0.0339605 0)
(-0.0882022 0.0379467 0)
(-0.101913 0.042257 0)
(-0.117517 0.0465125 0)
(-0.134698 0.0502638 0)
(-0.15296 0.0530287 0)
(-0.171676 0.0543453 0)
(-0.190152 0.0538332 0)
(-0.207718 0.0512471 0)
(-0.223809 0.0465024 0)
(-0.238011 0.0396692 0)
(-0.250069 0.0309394 0)
(-0.259867 0.0205851 0)
(-0.267381 0.00891933 0)
(-0.272635 -0.00373178 0)
(-0.275653 -0.0170418 0)
(-0.276416 -0.0306831 0)
(-0.274836 -0.0443145 0)
(-0.270741 -0.0575603 0)
(-0.263874 -0.0699873 0)
(-0.253922 -0.0810851 0)
(-0.240562 -0.0902607 0)
(-0.223552 -0.0968562 0)
(-0.202837 -0.100207 0)
(-0.178687 -0.0997412 0)
(-0.151807 -0.095132 0)
(-0.123401 -0.0864582 0)
(-0.0951106 -0.0743451 0)
(-0.0687888 -0.0599677 0)
(-0.0461006 -0.0448773 0)
(-0.0281163 -0.0306102 0)
(-0.0150446 -0.0183049 0)
(-0.00637823 -0.00847778 0)
(-0.00118613 -0.00112286 0)
(0.00146734 0.0040576 0)
(0.00244621 0.00741141 0)
(0.00233844 0.00917529 0)
(0.00169213 0.00938468 0)
(0.000803437 0.00780049 0)
(0.000143545 0.0037915 0)
(-0.000263591 0.00731401 0)
(-0.00169669 0.0172542 0)
(-0.00408026 0.0236124 0)
(-0.00683601 0.0274276 0)
(-0.00992486 0.0295535 0)
(-0.0130636 0.0306284 0)
(-0.0162991 0.0310855 0)
(-0.0195004 0.0311828 0)
(-0.0227235 0.0310585 0)
(-0.0258995 0.0307755 0)
(-0.0290762 0.0303665 0)
(-0.0322323 0.0298663 0)
(-0.0354475 0.0293435 0)
(-0.0387993 0.0289223 0)
(-0.0424871 0.0287952 0)
(-0.0467653 0.0292112 0)
(-0.0520035 0.0304375 0)
(-0.0586006 0.0327015 0)
(-0.0669745 0.0361312 0)
(-0.0774645 0.0407124 0)
(-0.0903027 0.0462725 0)
(-0.105542 0.0524825 0)
(-0.123038 0.0588725 0)
(-0.142403 0.0648588 0)
(-0.163027 0.0697925 0)
(-0.184116 0.0730347 0)
(-0.204799 0.074052 0)
(-0.224255 0.0725003 0)
(-0.241839 0.0682676 0)
(-0.257134 0.0614593 0)
(-0.269965 0.0523434 0)
(-0.280355 0.04128 0)
(-0.288464 0.0286576 0)
(-0.294521 0.0148472 0)
(-0.298766 0.000177785 0)
(-0.301391 -0.0150689 0)
(-0.302506 -0.0306477 0)
(-0.302105 -0.0463262 0)
(-0.30004 -0.0618517 0)
(-0.296006 -0.0769105 0)
(-0.289545 -0.091083 0)
(-0.280067 -0.103806 0)
(-0.266924 -0.114352 0)
(-0.249517 -0.121844 0)
(-0.227475 -0.125333 0)
(-0.20086 -0.123956 0)
(-0.17038 -0.117166 0)
(-0.137519 -0.105029 0)
(-0.104481 -0.0884505 0)
(-0.0738399 -0.0692126 0)
(-0.0479048 -0.0496185 0)
(-0.0280057 -0.0318361 0)
(-0.014197 -0.017228 0)
(-0.00552455 -0.00618213 0)
(-0.000709415 0.00159441 0)
(0.00150272 0.0066454 0)
(0.00202641 0.00942069 0)
(0.001651 0.0101319 0)
(0.000829436 0.00861467 0)
(0.000155112 0.00423721 0)
(-0.000270597 0.00818393 0)
(-0.00174184 0.0192319 0)
(-0.00418858 0.0262455 0)
(-0.00701685 0.0304152 0)
(-0.0101885 0.0327183 0)
(-0.0134149 0.0338697 0)
(-0.0167472 0.0343538 0)
(-0.0200539 0.034452 0)
(-0.0233965 0.034318 0)
(-0.0267099 0.034023 0)
(-0.0300544 0.0336166 0)
(-0.033428 0.0331618 0)
(-0.0369486 0.0327799 0)
(-0.0407541 0.0326725 0)
(-0.0451313 0.0331307 0)
(-0.0504393 0.0345005 0)
(-0.0571518 0.037118 0)
(-0.0657425 0.0412208 0)
(-0.0766516 0.0468779 0)
(-0.0901703 0.053948 0)
(-0.106404 0.0620748 0)
(-0.125195 0.0706987 0)
(-0.1461 0.0790883 0)
(-0.168374 0.0863985 0)
(-0.191041 0.0917737 0)
(-0.21302 0.0944866 0)
(-0.233324 0.0940707 0)
(-0.251206 0.0903875 0)
(-0.266253 0.0836054 0)
(-0.278378 0.0741124 0)
(-0.287755 0.0624092 0)
(-0.29473 0.0490124 0)
(-0.299729 0.0343893 0)
(-0.303187 0.0189222 0)
(-0.305497 0.00289881 0)
(-0.306972 -0.0134801 0)
(-0.307827 -0.0300816 0)
(-0.308155 -0.0468134 0)
(-0.307901 -0.063588 0)
(-0.306832 -0.0802776 0)
(-0.304508 -0.0966546 0)
(-0.300256 -0.112327 0)
(-0.293184 -0.126668 0)
(-0.282241 -0.13877 0)
(-0.266367 -0.147449 0)
(-0.244731 -0.151341 0)
(-0.217054 -0.149125 0)
(-0.18397 -0.139911 0)
(-0.147277 -0.123697 0)
(-0.109913 -0.101805 0)
(-0.0754239 -0.0768979 0)
(-0.0469236 -0.0523729 0)
(-0.025973 -0.0311324 0)
(-0.0122167 -0.014634 0)
(-0.00416016 -0.00291028 0)
(-6.41055e-05 0.00475983 0)
(0.00144976 0.00912322 0)
(0.00152216 0.0106746 0)
(0.000840048 0.0093971 0)
(0.000168309 0.00470662 0)
(-0.000276398 0.00907677 0)
(-0.00177902 0.0212604 0)
(-0.00427903 0.0289462 0)
(-0.00717039 0.0334807 0)
(-0.0104162 0.0359689 0)
(-0.0137238 0.0372051 0)
(-0.0171488 0.0377265 0)
(-0.0205602 0.0378389 0)
(-0.0240261 0.0377134 0)
(-0.0274879 0.0374341 0)
(-0.0310223 0.0370758 0)
(-0.0346552 0.0367455 0)
(-0.0385559 0.0366399 0)
(-0.042939 0.0370648 0)
(-0.0481938 0.0384312 0)
(-0.0547881 0.041185 0)
(-0.0632821 0.0457041 0)
(-0.0741796 0.0521817 0)
(-0.0878722 0.0605525 0)
(-0.10451 0.0704628 0)
(-0.123961 0.0812802 0)
(-0.145726 0.092123 0)
(-0.168952 0.101929 0)
(-0.192477 0.109587 0)
(-0.215014 0.114127 0)
(-0.235388 0.11492 0)
(-0.252755 0.111787 0)
(-0.266706 0.104972 0)
(-0.277258 0.0950179 0)
(-0.284741 0.0826047 0)
(-0.289678 0.0684157 0)
(-0.292654 0.053046 0)
(-0.294238 0.0369612 0)
(-0.294922 0.0204913 0)
(-0.295115 0.00384517 0)
(-0.295133 -0.0128676 0)
(-0.295213 -0.0296138 0)
(-0.295517 -0.046416 0)
(-0.296114 -0.063329 0)
(-0.29695 -0.080409 0)
(-0.297791 -0.0976611 0)
(-0.298152 -0.114968 0)
(-0.297228 -0.131984 0)
(-0.29386 -0.148029 0)
(-0.286579 -0.16198 0)
(-0.27377 -0.172258 0)
(-0.253999 -0.176921 0)
(-0.226496 -0.174012 0)
(-0.191714 -0.162104 0)
(-0.151808 -0.141124 0)
(-0.110649 -0.112995 0)
(-0.0730472 -0.0817317 0)
(-0.0430434 -0.0521972 0)
(-0.0221917 -0.0280348 0)
(-0.00942043 -0.0104638 0)
(-0.00252618 0.00117063 0)
(0.000489532 0.00797553 0)
(0.00126395 0.0108725 0)
(0.000826514 0.0100993 0)
(0.000183497 0.00519653 0)
(-0.000279953 0.00998281 0)
(-0.00180531 0.0233229 0)
(-0.00434738 0.0316953 0)
(-0.00729133 0.0366047 0)
(-0.0106017 0.0392872 0)
(-0.0139834 0.0406183 0)
(-0.0174962 0.0411896 0)
(-0.0210109 0.0413329 0)
(-0.0246028 0.0412398 0)
(-0.0282233 0.0410128 0)
(-0.0319707 0.0407641 0)
(-0.0359085 0.0406639 0)
(-0.0402701 0.0410112 0)
(-0.0453611 0.0422425 0)
(-0.0516792 0.0449004 0)
(-0.0597872 0.0495122 0)
(-0.0702893 0.0564438 0)
(-0.0836486 0.0657616 0)
(-0.100114 0.0771694 0)
(-0.119583 0.0899958 0)
(-0.141562 0.103228 0)
(-0.165112 0.115584 0)
(-0.188933 0.125667 0)
(-0.211542 0.132212 0)
(-0.231587 0.134374 0)
(-0.248118 0.13189 0)
(-0.260739 0.125074 0)
(-0.269572 0.114643 0)
(-0.27512 0.101488 0)
(-0.278076 0.0864819 0)
(-0.27917 0.0703604 0)
(-0.279044 0.0536705 0)
(-0.278212 0.0367795 0)
(-0.277048 0.0199074 0)
(-0.275818 0.00316839 0)
(-0.274715 -0.0133978 0)
(-0.273907 -0.029806 0)
(-0.273552 -0.0461204 0)
(-0.273814 -0.0624523 0)
(-0.274831 -0.0789601 0)