/*--------------------------------*- C++ -*----------------------------------*\
| =========                 |                                                 |
| \\      /  F ield         | OpenFOAM: The Open Source CFD Toolbox           |
|  \\    /   O peration     | Version:  2406                                  |
|   \\  /    A nd           | Website:  www.openfoam.com                      |
|    \\/     M anipulation  |                                                 |
\*---------------------------------------------------------------------------*/
FoamFile
{
    version     2.0;
    format      ascii;
    arch        "LSB;label=32;scalar=64";
    class       volScalarField;
    location    "37.6";
    object      p;
}
// * * * * * * * * * * * * * * * * * * * * * * * * * * * * * * * * * * * * * //

dimensions      [0 2 -2 0 0 0 0];

internalField   nonuniform List<scalar> 
14400
(
0.043228
0.0432402
0.0432501
0.0432618
0.0432633
0.0432591
0.0432429
0.0432187
0.0431842
0.0431429
0.0430943
0.043041
0.0429835
0.0429233
0.0428606
0.0427959
0.0427289
0.0426593
0.0425861
0.0425085
0.0424253
0.0423353
0.0422372
0.0421301
0.0420128
0.0418843
0.0417436
0.0415899
0.0414224
0.0412403
0.0410428
0.0408294
0.0405997
0.0403532
0.0400899
0.0398101
0.0395143
0.0392035
0.0388793
0.0385436
0.038199
0.0378487
0.0374964
0.0371466
0.0368042
0.0364748
0.0361644
0.0358794
0.0356266
0.0354127
0.0352445
0.0351287
0.0350715
0.0350785
0.0351546
0.0353038
0.0355288
0.035831
0.0362103
0.036665
0.0371916
0.0377846
0.0384367
0.0391387
0.0398796
0.0406464
0.041425
0.0421996
0.0429536
0.0436699
0.0443315
0.0449216
0.0454247
0.0458268
0.0461165
0.0462847
0.046326
0.0462383
0.0460232
0.0456863
0.0452365
0.0446861
0.0440499
0.0433447
0.0425889
0.0418008
0.0409989
0.0402004
0.039421
0.0386741
0.0379709
0.0373197
0.0367264
0.0361943
0.0357243
0.0353156
0.0349654
0.0346701
0.034425
0.0342249
0.0340644
0.0339382
0.0338411
0.0337685
0.0337158
0.0336794
0.0336559
0.0336427
0.033637
0.0336375
0.0336422
0.033651
0.0336618
0.0336761
0.0336913
0.0337101
0.0337278
0.0337476
0.0337614
0.0337708
0.0432158
0.0432279
0.0432322
0.0432394
0.0432363
0.0432298
0.0432126
0.0431893
0.0431569
0.0431186
0.0430736
0.0430244
0.0429708
0.0429144
0.042855
0.0427932
0.0427287
0.0426612
0.04259
0.0425142
0.0424329
0.0423452
0.0422498
0.042146
0.0420325
0.0419086
0.0417733
0.0416258
0.0414652
0.0412908
0.0411018
0.0408977
0.0406778
0.0404419
0.0401897
0.0399214
0.0396375
0.0393388
0.0390265
0.0387024
0.0383689
0.0380288
0.0376858
0.0373439
0.0370079
0.036683
0.0363752
0.0360906
0.0358357
0.0356173
0.035442
0.0353166
0.0352471
0.0352393
0.0352981
0.0354276
0.0356308
0.0359092
0.0362629
0.0366904
0.0371885
0.0377521
0.0383742
0.039046
0.0397567
0.0404939
0.0412436
0.0419905
0.0427186
0.043411
0.0440509
0.044622
0.0451091
0.0454985
0.0457788
0.0459413
0.0459806
0.0458947
0.0456853
0.0453578
0.0449212
0.0443875
0.0437713
0.0430893
0.0423591
0.041599
0.0408266
0.0400586
0.03931
0.0385937
0.03792
0.0372967
0.0367291
0.03622
0.0357701
0.0353781
0.0350415
0.0347564
0.0345184
0.0343225
0.0341637
0.034037
0.0339376
0.0338611
0.0338036
0.0337618
0.0337323
0.033713
0.0337012
0.0336959
0.0336948
0.0336982
0.0337037
0.0337128
0.0337223
0.0337355
0.0337469
0.0337616
0.0337703
0.03378
0.0432058
0.0432236
0.0432281
0.0432368
0.0432332
0.0432269
0.0432092
0.0431858
0.0431532
0.0431151
0.0430705
0.0430219
0.0429692
0.0429139
0.0428558
0.0427956
0.0427328
0.0426672
0.0425979
0.0425242
0.0424451
0.0423597
0.0422669
0.0421656
0.042055
0.0419342
0.0418022
0.0416581
0.0415013
0.0413307
0.0411457
0.0409456
0.0407296
0.0404973
0.0402484
0.0399828
0.039701
0.0394034
0.0390912
0.0387661
0.0384302
0.0380863
0.0377379
0.037389
0.0370445
0.0367098
0.0363906
0.0360935
0.0358251
0.0355924
0.0354023
0.0352618
0.0351772
0.0351547
0.0351993
0.0353153
0.035506
0.035773
0.0361166
0.0365355
0.0370265
0.0375845
0.0382026
0.038872
0.039582
0.04032
0.0410721
0.0418229
0.0425559
0.0432543
0.0439011
0.0444795
0.0449742
0.0453709
0.0456581
0.0458268
0.0458711
0.0457889
0.0455818
0.0452552
0.0448181
0.0442827
0.043664
0.0429789
0.0422457
0.0414829
0.0407087
0.0399403
0.0391928
0.0384793
0.0378103
0.0371935
0.0366341
0.0361346
0.0356952
0.0353144
0.0349891
0.0347152
0.0344877
0.0343015
0.0341513
0.034032
0.0339387
0.0338672
0.0338135
0.0337743
0.0337467
0.0337284
0.033717
0.0337116
0.03371
0.0337126
0.0337167
0.0337248
0.0337326
0.033745
0.0337549
0.0337705
0.033779
0.0337943
0.043193
0.0432157
0.043219
0.043228
0.0432225
0.0432154
0.0431965
0.043173
0.0431404
0.0431032
0.0430598
0.0430131
0.0429626
0.04291
0.0428548
0.0427977
0.0427381
0.0426758
0.04261
0.0425398
0.0424645
0.0423829
0.0422943
0.0421976
0.0420919
0.0419763
0.0418501
0.0417122
0.0415619
0.0413981
0.0412199
0.0410265
0.0408169
0.0405905
0.0403467
0.0400852
0.0398059
0.0395091
0.0391958
0.0388672
0.0385254
0.038173
0.0378134
0.0374508
0.03709
0.0367365
0.0363966
0.036077
0.0357846
0.0355269
0.0353112
0.0351446
0.035034
0.0349855
0.0350047
0.035096
0.0352627
0.0355068
0.0358285
0.0362268
0.0366985
0.0372388
0.0378409
0.0384961
0.0391938
0.0399217
0.040666
0.0414114
0.0421416
0.0428397
0.0434886
0.0440716
0.0445728
0.0449781
0.0452754
0.0454553
0.0455117
0.045442
0.0452475
0.0449333
0.0445084
0.0439848
0.0433775
0.0427037
0.0419817
0.0412304
0.0404683
0.0397127
0.0389791
0.0382807
0.037628
0.0370287
0.0364877
0.0360073
0.0355875
0.0352263
0.0349201
0.0346644
0.0344539
0.034283
0.0341461
0.0340382
0.0339542
0.03389
0.0338416
0.0338061
0.0337805
0.0337631
0.0337515
0.0337452
0.0337419
0.0337424
0.0337439
0.0337492
0.0337537
0.0337636
0.03377
0.0337853
0.0337922
0.0338136
0.0431886
0.0432166
0.0432208
0.0432319
0.0432259
0.0432188
0.0431986
0.0431742
0.0431404
0.0431024
0.0430586
0.043012
0.0429623
0.0429111
0.0428579
0.0428034
0.0427468
0.0426879
0.0426256
0.0425593
0.0424879
0.0424103
0.0423257
0.0422331
0.0421315
0.04202
0.0418977
0.0417636
0.0416166
0.0414555
0.0412792
0.0410864
0.040876
0.0406468
0.0403979
0.0401286
0.0398386
0.0395278
0.0391971
0.0388478
0.0384818
0.038102
0.0377123
0.0373171
0.036922
0.036533
0.0361569
0.0358012
0.0354734
0.0351814
0.034933
0.0347356
0.0345963
0.0345216
0.034517
0.034587
0.0347348
0.0349624
0.0352702
0.0356568
0.0361193
0.0366528
0.0372505
0.037904
0.0386027
0.0393344
0.0400853
0.0408402
0.041583
0.0422965
0.0429636
0.0435673
0.0440913
0.044521
0.0448437
0.0450493
0.0451311
0.0450858
0.044914
0.0446203
0.0442132
0.0437046
0.0431095
0.0424451
0.0417301
0.040984
0.0402257
0.0394732
0.0387427
0.038048
0.0374001
0.0368073
0.0362746
0.0358046
0.0353972
0.0350503
0.03476
0.0345213
0.0343284
0.0341753
0.0340558
0.0339644
0.0338956
0.033845
0.0338084
0.0337831
0.0337658
0.0337551
0.0337486
0.0337461
0.0337453
0.0337476
0.0337497
0.0337556
0.0337596
0.03377
0.0337758
0.0337935
0.0338007
0.0338292
0.0431876
0.0432194
0.0432234
0.0432354
0.043228
0.0432198
0.0431977
0.0431718
0.0431365
0.0430978
0.0430538
0.0430079
0.0429596
0.0429106
0.0428604
0.0428094
0.0427568
0.0427022
0.0426445
0.0425828
0.0425161
0.0424434
0.0423635
0.0422755
0.0421784
0.0420712
0.0419528
0.0418219
0.0416771
0.041517
0.0413399
0.041144
0.0409278
0.0406896
0.0404279
0.0401418
0.0398306
0.0394942
0.0391334
0.0387497
0.0383455
0.0379243
0.0374905
0.0370493
0.036607
0.0361706
0.0357476
0.0353459
0.0349737
0.0346392
0.0343504
0.034115
0.0339402
0.0338322
0.0337966
0.0338378
0.033959
0.034162
0.0344472
0.0348133
0.0352575
0.035775
0.0363595
0.0370025
0.0376941
0.0384225
0.0391741
0.0399343
0.0406869
0.0414153
0.0421022
0.0427306
0.0432839
0.0437471
0.0441068
0.0443521
0.0444753
0.0444722
0.0443424
0.0440895
0.0437212
0.0432487
0.0426865
0.0420516
0.0413627
0.0406393
0.0399009
0.0391658
0.0384508
0.0377703
0.0371359
0.0365562
0.0360371
0.0355812
0.0351888
0.0348578
0.0345845
0.0343636
0.034189
0.0340544
0.0339532
0.0338794
0.033827
0.0337915
0.0337684
0.0337547
0.0337471
0.0337444
0.0337441
0.0337463
0.0337487
0.0337532
0.0337563
0.0337627
0.0337662
0.0337766
0.0337813
0.0338003
0.0338074
0.0338416
0.043196
0.0432311
0.0432353
0.0432482
0.0432394
0.04323
0.0432055
0.0431774
0.0431398
0.0430995
0.0430543
0.0430084
0.0429608
0.0429135
0.0428659
0.0428182
0.0427694
0.0427191
0.0426659
0.0426088
0.0425466
0.0424782
0.0424022
0.0423176
0.0422232
0.0421177
0.0419996
0.0418672
0.0417186
0.0415519
0.0413646
0.0411546
0.0409196
0.0406574
0.0403663
0.040045
0.039693
0.0393105
0.0388987
0.0384598
0.0379972
0.0375154
0.0370197
0.0365166
0.0360131
0.0355172
0.0350371
0.034581
0.0341577
0.0337755
0.0334424
0.033166
0.0329535
0.0328108
0.0327434
0.0327553
0.0328498
0.0330284
0.0332915
0.033638
0.0340651
0.0345683
0.0351416
0.035777
0.0364651
0.0371944
0.0379521
0.0387239
0.0394943
0.0402468
0.0409644
0.0416299
0.0422267
0.0427391
0.0431529
0.0434563
0.0436404
0.0436996
0.043632
0.0434399
0.0431296
0.0427113
0.0421985
0.0416076
0.0409572
0.0402668
0.0395561
0.038844
0.0381479
0.037483
0.0368616
0.0362933
0.0357846
0.0353388
0.0349569
0.0346372
0.0343761
0.0341687
0.034009
0.0338902
0.0338056
0.0337488
0.0337134
0.0336943
0.0336868
0.0336873
0.0336925
0.033701
0.0337101
0.0337203
0.0337289
0.0337384
0.033745
0.0337543
0.0337594
0.0337716
0.0337767
0.033798
0.0338055
0.0338445
0.0432107
0.0432479
0.0432515
0.043264
0.0432531
0.0432414
0.0432138
0.0431829
0.0431427
0.0431005
0.0430544
0.0430085
0.042962
0.0429169
0.0428722
0.0428282
0.0427837
0.0427379
0.0426893
0.0426367
0.0425787
0.0425139
0.0424409
0.0423582
0.0422643
0.0421573
0.0420353
0.041896
0.0417367
0.0415546
0.0413469
0.0411104
0.0408426
0.0405408
0.0402034
0.0398293
0.0394183
0.0389716
0.0384912
0.0379807
0.0374445
0.0368883
0.0363187
0.0357431
0.0351695
0.0346062
0.034062
0.0335455
0.0330653
0.0326298
0.0322469
0.0319239
0.0316677
0.031484
0.031378
0.0313536
0.0314136
0.0315599
0.0317927
0.032111
0.0325124
0.0329928
0.0335466
0.0341665
0.0348436
0.0355676
0.0363263
0.0371061
0.0378925
0.0386694
0.0394204
0.0401286
0.0407772
0.0413502
0.0418327
0.0422119
0.0424773
0.0426218
0.0426417
0.0425372
0.0423128
0.0419768
0.0415414
0.0410218
0.0404357
0.0398021
0.0391409
0.038471
0.0378106
0.0371754
0.0365787
0.0360309
0.0355392
0.0351081
0.034739
0.0344312
0.0341817
0.0339859
0.0338382
0.0337321
0.0336609
0.033618
0.0335969
0.0335921
0.0335985
0.0336122
0.0336297
0.0336493
0.0336681
0.0336865
0.0337019
0.0337169
0.0337277
0.0337402
0.0337472
0.0337611
0.0337667
0.0337894
0.0337971
0.033839
0.0432353
0.0432739
0.0432768
0.0432884
0.0432749
0.0432603
0.043229
0.0431947
0.0431513
0.0431067
0.0430591
0.0430129
0.0429672
0.0429239
0.0428818
0.0428412
0.0428004
0.0427585
0.0427137
0.0426646
0.0426092
0.0425461
0.0424732
0.0423887
0.0422903
0.0421755
0.0420416
0.0418854
0.0417034
0.041492
0.0412476
0.0409666
0.0406462
0.0402841
0.0398789
0.0394303
0.0389394
0.0384085
0.0378412
0.0372423
0.0366178
0.0359745
0.0353202
0.0346629
0.0340114
0.0333743
0.0327606
0.032179
0.031638
0.0311458
0.0307099
0.0303374
0.0300347
0.0298075
0.0296603
0.0295969
0.0296201
0.0297314
0.0299313
0.0302188
0.0305918
0.0310466
0.0315783
0.0321803
0.0328445
0.0335614
0.03432
0.0351078
0.035911
0.0367148
0.0375033
0.0382602
0.038969
0.0396135
0.0401783
0.0406495
0.0410152
0.0412664
0.0413973
0.0414058
0.0412937
0.041067
0.0407357
0.0403131
0.0398154
0.039261
0.038669
0.0380587
0.0374485
0.0368549
0.0362921
0.0357716
0.0353017
0.0348879
0.0345326
0.0342361
0.0339963
0.0338093
0.0336702
0.0335729
0.0335111
0.0334783
0.0334681
0.0334748
0.0334929
0.0335186
0.0335476
0.0335781
0.033607
0.0336344
0.0336577
0.0336795
0.0336956
0.0337126
0.0337227
0.0337391
0.0337462
0.0337703
0.0337785
0.0338216
0.0432684
0.0433076
0.0433091
0.0433188
0.0433019
0.0432835
0.0432479
0.0432097
0.0431627
0.0431157
0.0430666
0.0430201
0.0429753
0.0429337
0.0428942
0.0428566
0.042819
0.0427801
0.0427379
0.0426904
0.0426355
0.0425708
0.042494
0.0424024
0.0422927
0.0421618
0.0420056
0.0418201
0.0416009
0.0413437
0.0410445
0.0406997
0.0403067
0.039864
0.0393712
0.0388296
0.0382415
0.037611
0.0369433
0.0362446
0.0355221
0.0347838
0.0340381
0.0332938
0.0325598
0.0318451
0.0311586
0.0305088
0.0299041
0.0293521
0.0288603
0.0284351
0.0280827
0.0278082
0.0276158
0.0275091
0.0274906
0.0275618
0.0277229
0.0279734
0.0283114
0.0287336
0.0292358
0.0298122
0.0304557
0.0311579
0.0319089
0.0326977
0.0335118
0.0343376
0.0351605
0.035965
0.0367354
0.0374557
0.0381103
0.0386847
0.0391658
0.0395426
0.0398071
0.0399543
0.0399832
0.0398966
0.0397014
0.0394083
0.0390312
0.0385866
0.0380926
0.0375681
0.0370314
0.0364997
0.0359881
0.0355091
0.0350722
0.0346843
0.034349
0.0340678
0.0338396
0.0336616
0.0335297
0.0334389
0.0333831
0.0333565
0.033353
0.0333671
0.0333932
0.0334273
0.033465
0.0335041
0.0335414
0.0335767
0.033607
0.033635
0.0336564
0.0336776
0.0336909
0.0337096
0.0337181
0.0337428
0.0337512
0.0337939
0.0433129
0.043352
0.0433517
0.0433586
0.0433378
0.0433148
0.0432746
0.0432319
0.0431812
0.0431313
0.0430806
0.0430335
0.042989
0.0429487
0.042911
0.0428753
0.0428394
0.0428018
0.0427597
0.0427109
0.0426523
0.042581
0.0424938
0.0423867
0.0422558
0.0420963
0.0419035
0.0416721
0.0413972
0.0410742
0.040699
0.0402688
0.0397819
0.0392382
0.0386388
0.0379869
0.0372865
0.0365435
0.0357645
0.0349571
0.0341296
0.0332908
0.0324496
0.0316151
0.0307966
0.030003
0.029243
0.0285248
0.0278566
0.0272455
0.0266985
0.0262215
0.0258202
0.0254991
0.0252622
0.0251125
0.0250521
0.0250825
0.0252039
0.0254158
0.0257164
0.026103
0.026572
0.0271184
0.0277361
0.0284178
0.0291552
0.0299384
0.0307566
0.0315978
0.0324489
0.0332959
0.0341242
0.0349186
0.0356639
0.0363454
0.0369491
0.0374627
0.0378759
0.0381811
0.0383738
0.0384534
0.0384229
0.0382895
0.0380638
0.0377596
0.0373929
0.0369813
0.0365427
0.0360945
0.0356524
0.0352301
0.0348386
0.0344861
0.0341779
0.0339169
0.0337032
0.0335356
0.0334108
0.0333249
0.0332729
0.0332495
0.0332493
0.033267
0.0332975
0.0333366
0.0333801
0.0334254
0.0334691
0.0335108
0.0335473
0.0335808
0.0336073
0.0336326
0.0336494
0.0336703
0.0336806
0.0337055
0.0337142
0.033755
0.0433689
0.0434068
0.0434042
0.0434073
0.0433819
0.0433538
0.0433084
0.0432608
0.0432062
0.0431534
0.0431009
0.043053
0.0430086
0.0429689
0.0429319
0.0428967
0.0428607
0.0428216
0.0427763
0.0427216
0.0426537
0.0425688
0.0424622
0.042329
0.0421638
0.0419608
0.0417142
0.0414181
0.0410675
0.0406578
0.040186
0.0396504
0.0390508
0.0383891
0.0376683
0.0368935
0.0360707
0.0352071
0.0343108
0.0333905
0.0324554
0.0315146
0.0305777
0.029654
0.0287525
0.0278821
0.0270512
0.0262678
0.0255392
0.0248724
0.0242733
0.0237476
0.0233
0.0229346
0.0226548
0.0224632
0.0223615
0.0223508
0.0224312
0.0226023
0.0228626
0.0232097
0.0236404
0.0241507
0.0247353
0.0253883
0.0261026
0.02687
0.0276813
0.0285264
0.029394
0.0302719
0.0311471
0.0320059
0.0328342
0.0336176
0.0343423
0.034995
0.0355638
0.0360386
0.036412
0.0366794
0.0368398
0.0368957
0.0368537
0.0367235
0.0365179
0.0362522
0.0359426
0.035606
0.0352583
0.0349141
0.0345859
0.0342834
0.0340137
0.0337815
0.0335887
0.0334354
0.03332
0.0332397
0.0331906
0.0331686
0.0331689
0.0331871
0.0332184
0.0332589
0.0333045
0.0333527
0.0333998
0.0334454
0.033486
0.0335236
0.0335538
0.0335823
0.0336019
0.0336244
0.0336361
0.0336606
0.0336693
0.0337069
0.0434386
0.0434744
0.043469
0.0434675
0.0434371
0.0434031
0.0433523
0.0432996
0.043241
0.043185
0.0431304
0.0430812
0.043036
0.0429955
0.0429576
0.0429205
0.0428813
0.0428368
0.0427832
0.0427163
0.0426313
0.0425228
0.0423851
0.0422118
0.0419962
0.0417315
0.0414114
0.0410299
0.0405823
0.0400653
0.039477
0.0388177
0.0380895
0.037296
0.0364428
0.0355364
0.0345847
0.0335964
0.0325806
0.031547
0.0305052
0.0294651
0.0284361
0.0274277
0.0264488
0.0255079
0.0246129
0.0237713
0.0229896
0.0222741
0.0216301
0.0210624
0.020575
0.0201714
0.0198541
0.0196253
0.0194863
0.0194378
0.0194799
0.0196118
0.0198322
0.0201392
0.0205299
0.021001
0.0215481
0.0221664
0.02285
0.0235924
0.024386
0.0252226
0.0260929
0.0269867
0.0278932
0.0288005
0.0296962
0.0305673
0.0314006
0.032183
0.0329019
0.0335456
0.0341041
0.0345694
0.0349364
0.0352029
0.0353703
0.0354436
0.035431
0.0353438
0.0351955
0.0350011
0.0347758
0.0345346
0.0342908
0.0340558
0.0338389
0.0336465
0.0334828
0.0333499
0.0332478
0.0331754
0.0331301
0.0331092
0.0331087
0.0331252
0.0331546
0.0331936
0.0332382
0.0332863
0.0333342
0.0333811
0.0334238
0.0334635
0.0334962
0.0335268
0.0335484
0.0335719
0.0335848
0.0336082
0.0336169
0.0336504
0.043523
0.0435553
0.0435467
0.0435396
0.0435039
0.0434635
0.0434071
0.0433491
0.0432863
0.043227
0.0431698
0.0431185
0.0430714
0.0430286
0.0429872
0.0429452
0.0428986
0.0428434
0.0427748
0.0426874
0.0425749
0.0424306
0.0422473
0.0420173
0.0417329
0.0413869
0.0409727
0.0404852
0.0399207
0.0392777
0.0385565
0.0377595
0.036891
0.0359571
0.0349652
0.0339236
0.0328417
0.0317294
0.0305968
0.0294542
0.0283117
0.0271792
0.0260665
0.0249824
0.0239357
0.0229343
0.0219853
0.0210955
0.0202706
0.019516
0.0188361
0.0182349
0.0177155
0.0172807
0.0169323
0.0166719
0.0165004
0.016418
0.0164245
0.0165193
0.016701
0.0169677
0.0173172
0.0177465
0.0182522
0.0188302
0.019476
0.0201842
0.0209492
0.0217642
0.0226221
0.0235149
0.0244339
0.0253696
0.0263116
0.027249
0.0281703
0.0290632
0.0299157
0.0307156
0.0314515
0.0321128
0.0326909
0.0331792
0.033574
0.0338745
0.0340835
0.034207
0.034254
0.0342359
0.0341659
0.0340578
0.0339254
0.0337811
0.0336359
0.0334988
0.0333762
0.0332726
0.0331903
0.0331301
0.0330913
0.0330724
0.0330711
0.0330849
0.0331106
0.0331457
0.0331868
0.0332318
0.0332776
0.0333232
0.0333653
0.0334051
0.0334384
0.0334694
0.033492
0.0335154
0.0335288
0.0335505
0.0335588
0.0335878
0.043624
0.0436515
0.0436392
0.0436257
0.0435844
0.0435373
0.0434753
0.0434118
0.0433447
0.0432815
0.0432212
0.0431665
0.0431157
0.0430679
0.0430199
0.0429684
0.0429088
0.0428359
0.0427435
0.0426248
0.0424721
0.0422771
0.0420311
0.0417257
0.0413526
0.0409047
0.0403762
0.0397633
0.0390644
0.0382801
0.0374132
0.0364686
0.0354529
0.0343744
0.0332423
0.0320665
0.0308578
0.0296269
0.0283847
0.0271419
0.0259088
0.0246954
0.0235108
0.0223638
0.0212622
0.0202131
0.0192229
0.0182973
0.0174412
0.0166588
0.0159538
0.015329
0.0147869
0.0143293
0.0139576
0.0136727
0.0134749
0.0133643
0.0133403
0.013402
0.0135482
0.0137772
0.0140869
0.0144748
0.0149381
0.0154734
0.0160771
0.0167453
0.0174732
0.0182562
0.0190886
0.0199646
0.0208776
0.0218205
0.0227854
0.0237637
0.0247461
0.0257224
0.0266819
0.0276134
0.0285051
0.0293457
0.0301241
0.0308304
0.0314562
0.0319955
0.0324448
0.032804
0.033076
0.033267
0.0333862
0.0334445
0.0334543
0.0334283
0.0333787
0.0333165
0.0332507
0.0331886
0.0331352
0.0330937
0.0330657
0.0330517
0.0330509
0.0330621
0.0330835
0.0331133
0.0331489
0.0331888
0.0332301
0.033272
0.0333114
0.033349
0.0333811
0.033411
0.0334332
0.0334556
0.0334688
0.0334884
0.0334961
0.0335203
0.0437425
0.0437636
0.0437474
0.0437266
0.0436796
0.0436255
0.0435579
0.0434888
0.0434172
0.0433494
0.0432848
0.0432252
0.0431682
0.0431121
0.043053
0.0429865
0.0429067
0.0428072
0.0426802
0.0425172
0.0423092
0.0420464
0.0417193
0.0413187
0.0408368
0.0402674
0.0396062
0.0388516
0.0380044
0.0370678
0.0360473
0.0349503
0.0337857
0.0325636
0.0312949
0.0299911
0.0286638
0.0273245
0.0259845
0.0246547
0.0233452
0.0220655
0.0208243
0.0196293
0.0184876
0.0174053
0.0163876
0.0154392
0.0145639
0.013765
0.013045
0.0124061
0.0118498
0.0113773
0.0109894
0.0106863
0.0104681
0.0103344
0.0102844
0.0103172
0.0104315
0.0106256
0.0108976
0.0112455
0.0116667
0.0121585
0.0127182
0.0133425
0.014028
0.0147711
0.015568
0.0164143
0.0173055
0.0182367
0.0192023
0.0201963
0.0212118
0.0222413
0.0232763
0.0243073
0.0253242
0.0263157
0.0272704
0.0281765
0.0290225
0.0297978
0.0304935
0.0311029
0.0316221
0.0320508
0.0323916
0.0326509
0.0328374
0.0329624
0.0330376
0.0330755
0.0330873
0.0330832
0.0330712
0.0330578
0.0330473
0.0330426
0.033045
0.0330552
0.0330726
0.0330966
0.0331256
0.0331587
0.0331935
0.0332296
0.0332641
0.0332975
0.0333264
0.0333536
0.033374
0.0333943
0.0334065
0.0334235
0.0334303
0.03345
0.0438798
0.0438928
0.0438725
0.0438438
0.0437911
0.0437298
0.0436567
0.0435816
0.0435051
0.0434318
0.0433614
0.0432943
0.0432279
0.0431592
0.0430833
0.0429945
0.0428856
0.0427485
0.0425739
0.0423517
0.0420714
0.0417223
0.0412945
0.0407792
0.0401696
0.0394612
0.038652
0.0377431
0.036738
0.0356428
0.0344657
0.0332164
0.031906
0.0305463
0.0291496
0.0277285
0.0262953
0.0248619
0.0234397
0.0220391
0.0206698
0.0193406
0.0180591
0.0168321
0.0156655
0.0145641
0.0135323
0.0125733
0.0116901
0.0108849
0.0101593
0.00951465
0.00895189
0.00847152
0.00807375
0.00775847
0.00752534
0.0073737
0.00730267
0.00731114
0.00739776
0.00756097
0.00779901
0.00810993
0.00849164
0.00894188
0.00945827
0.0100383
0.0106795
0.0113791
0.0121344
0.0129426
0.0138006
0.0147054
0.0156535
0.0166412
0.0176641
0.0187173
0.019795
0.0208904
0.0219957
0.0231014
0.0241972
0.0252714
0.0263111
0.0273034
0.0282351
0.0290939
0.0298694
0.0305536
0.0311418
0.0316333
0.0320311
0.0323419
0.0325756
0.0327439
0.0328595
0.0329348
0.0329813
0.0330088
0.0330252
0.0330365
0.0330467
0.0330585
0.0330734
0.0330921
0.0331142
0.0331395
0.0331666
0.0331953
0.0332231
0.0332506
0.0332746
0.0332975
0.0333148
0.0333321
0.0333425
0.0333566
0.0333623
0.0333779
0.0440363
0.0440395
0.044015
0.0439775
0.0439195
0.0438508
0.0437723
0.0436909
0.0436086
0.0435284
0.04345
0.0433723
0.0432923
0.0432054
0.0431057
0.0429858
0.0428371
0.0426496
0.0424126
0.0421145
0.0417438
0.0412895
0.0407421
0.040094
0.0393401
0.0384784
0.0375099
0.0364386
0.0352711
0.0340162
0.0326846
0.0312883
0.0298401
0.0283535
0.0268419
0.0253184
0.0237956
0.0222853
0.0207986
0.0193452
0.0179338
0.0165721
0.0152666
0.0140228
0.0128453
0.0117377
0.0107032
0.00974396
0.00886194
0.00805844
0.00733441
0.00669045
0.00612688
0.00564372
0.00524078
0.00491765
0.0046737
0.0045081
0.00441986
0.00440777
0.0044705
0.00460653
0.00481419
0.00509173
0.00543724
0.00584879
0.00632437
0.00686196
0.00745955
0.00811516
0.00882687
0.00959284
0.0104113
0.0112804
0.0121985
0.0131635
0.0141735
0.015226
0.0163176
0.0174447
0.0186019
0.019783
0.0209797
0.0221821
0.0233784
0.024555
0.0256968
0.0267881
0.027813
0.0287567
0.0296067
0.0303537
0.030993
0.0315244
0.0319524
0.032286
0.0325369
0.032719
0.0328462
0.0329322
0.0329885
0.0330252
0.0330495
0.0330673
0.0330823
0.0330971
0.0331127
0.0331301
0.0331486
0.0331687
0.0331885
0.0332085
0.0332262
0.0332434
0.0332564
0.0332697
0.0332775
0.0332886
0.033293
0.0333052
0.0442121
0.0442036
0.0441749
0.0441283
0.0440652
0.043989
0.0439051
0.0438166
0.0437276
0.0436384
0.0435492
0.0434569
0.043358
0.043246
0.0431139
0.0429525
0.0427515
0.0424993
0.0421837
0.041792
0.0413126
0.0407348
0.0400503
0.0392536
0.0383422
0.0373171
0.0361826
0.0349457
0.033616
0.032205
0.0307259
0.0291925
0.0276192
0.0260204
0.0244103
0.022802
0.0212081
0.0196398
0.0181072
0.0166189
0.0151826
0.0138043
0.0124894
0.0112419
0.0100652
0.00896178
0.00793355
0.00698191
0.00610782
0.00531187
0.0045944
0.00395547
0.00339495
0.00291253
0.00250772
0.00217989
0.00192825
0.00175188
0.0016497
0.00162051
0.00166296
0.0017756
0.00195686
0.0022051
0.00251858
0.00289557
0.00333431
0.00383307
0.00439021
0.00500419
0.00567362
0.0063973
0.0071742
0.00800352
0.00888463
0.00981704
0.0108003
0.0118338
0.0129169
0.0140481
0.0152252
0.0164449
0.0177022
0.0189901
0.0202993
0.0216179
0.0229314
0.0242229
0.0254735
0.0266636
0.0277737
0.0287865
0.0296878
0.0304686
0.0311254
0.0316607
0.0320829
0.0324044
0.0326405
0.0328077
0.0329217
0.0329967
0.0330445
0.0330746
0.0330937
0.033107
0.0331174
0.0331272
0.0331371
0.0331479
0.0331587
0.0331703
0.0331804
0.0331909
0.0331985
0.033207
0.0332117
0.0332196
0.0332226
0.0332321
0.0444063
0.0443844
0.0443517
0.0442954
0.0442277
0.0441438
0.0440542
0.0439577
0.0438604
0.0437596
0.043656
0.0435441
0.0434198
0.0432747
0.0431002
0.0428853
0.0426182
0.0422855
0.0418743
0.0413714
0.0407657
0.0400477
0.0392114
0.0382538
0.0371758
0.0359818
0.0346792
0.0332783
0.0317916
0.0302331
0.0286178
0.0269613
0.0252789
0.0235857
0.0218957
0.020222
0.0185762
0.0169686
0.0154078
0.0139013
0.012455
0.0110738
0.00976146
0.0085207
0.00735364
0.00626176
0.005246
0.00430695
0.00344487
0.0026598
0.00195158
0.00131992
0.000764386
0.00028443
-0.000120593
-0.000451439
-0.000708966
-0.000894143
-0.00100805
-0.00105187
-0.00102689
-0.000934513
-0.000776206
-0.000553515
-0.00026803
7.86463e-05
0.000484926
0.000949281
0.00147028
0.00204666
0.00267732
0.00336143
0.00409844
0.00488809
0.00573047
0.00662597
0.00757527
0.00857922
0.00963873
0.0107545
0.011927
0.0131555
0.0144384
0.0157722
0.017151
0.0185663
0.020006
0.0214547
0.0228936
0.0243008
0.0256526
0.0269247
0.0280945
0.0291428
0.030056
0.0308274
0.0314579
0.0319557
0.0323344
0.0326116
0.0328064
0.0329375
0.0330216
0.0330728
0.033102
0.0331174
0.0331248
0.0331282
0.0331297
0.0331312
0.0331325
0.0331348
0.0331365
0.0331394
0.0331408
0.033144
0.0331449
0.0331498
0.0331511
0.0331589
0.0446174
0.0445802
0.0445438
0.0444776
0.0444056
0.0443137
0.0442181
0.0441122
0.0440044
0.0438887
0.0437661
0.0436287
0.0434713
0.0432836
0.0430554
0.0427738
0.0424256
0.0419963
0.0414725
0.0408416
0.0400937
0.0392216
0.038222
0.0370954
0.0358461
0.034482
0.0330141
0.0314556
0.0298215
0.028128
0.0263916
0.024629
0.0228561
0.0210877
0.0193375
0.0176175
0.0159382
0.0143084
0.0127353
0.0112246
0.00978078
0.0084072
0.00710622
0.00587944
0.00472788
0.00365209
0.00265228
0.00172838
0.000880158
0.000107249
-0.00059081
-0.00121456
-0.00176459
-0.00224157
-0.00264622
-0.00297932
-0.00324175
-0.00343446
-0.00355847
-0.00361493
-0.00360506
-0.00353016
-0.00339161
-0.00319086
-0.0029294
-0.00260871
-0.00223027
-0.00179547
-0.00130562
-0.000761858
-0.000165111
0.000483956
0.001185
0.00193805
0.00274354
0.00360232
0.00451571
0.0054854
0.00651342
0.00760195
0.00875317
0.00996891
0.0112503
0.012597
0.0140071
0.0154759
0.0169954
0.0185538
0.0201346
0.021717
0.0232761
0.0247839
0.0262111
0.0275296
0.0287149
0.0297489
0.030622
0.0313338
0.0318926
0.0323143
0.0326192
0.0328296
0.0329675
0.0330522
0.0330998
0.0331229
0.0331305
0.0331294
0.0331235
0.0331159
0.0331076
0.0331003
0.0330931
0.0330879
0.0330824
0.03308
0.0330767
0.0330785
0.0330782
0.0330851
0.0448423
0.0447884
0.0447487
0.0446724
0.0445965
0.0444961
0.0443936
0.0442765
0.0441554
0.0440208
0.0438738
0.0437037
0.0435046
0.0432636
0.0429694
0.0426069
0.0421622
0.0416202
0.0409679
0.040194
0.0392907
0.0382538
0.0370835
0.0357839
0.0343632
0.0328327
0.0312067
0.029501
0.0277329
0.0259202
0.0240805
0.0222308
0.0203868
0.0185627
0.0167712
0.0150228
0.0133264
0.0116892
0.0101166
0.00861277
0.00718057
0.00582196
0.00453811
0.0033296
0.00219658
0.00113888
0.000156142
-0.000752137
-0.00158653
-0.00234765
-0.00303613
-0.00365263
-0.0041978
-0.00467235
-0.00507698
-0.00541246
-0.00567961
-0.00587932
-0.00601257
-0.00608038
-0.00608391
-0.00602436
-0.00590301
-0.00572121
-0.00548034
-0.00518179
-0.00482694
-0.00441711
-0.00395352
-0.00343724
-0.00286913
-0.00224981
-0.00157956
-0.000858292
-8.54671e-05
0.000739929
0.00161943
0.00255512
0.00354957
0.0046058
0.00572717
0.00691709
0.00817877
0.00951475
0.0109263
0.0124127
0.0139705
0.0155924
0.0172664
0.0189754
0.0206965
0.0224015
0.0240582
0.0256319
0.0270888
0.0283992
0.0295406
0.0305006
0.0312779
0.0318823
0.0323321
0.0326513
0.0328659
0.033001
0.0330787
0.0331171
0.0331298
0.0331271
0.0331153
0.0330995
0.0330818
0.0330649
0.0330485
0.0330349
0.0330222
0.0330139
0.0330062
0.0330051
0.0330031
0.0330098
0.0450773
0.0450052
0.0449627
0.0448761
0.0447965
0.044687
0.0445764
0.0444457
0.044308
0.0441495
0.0439718
0.0437611
0.0435105
0.0432046
0.0428311
0.0423734
0.0418171
0.0411473
0.0403523
0.0394228
0.0383542
0.0371456
0.0358014
0.0343293
0.0327415
0.0310525
0.0292795
0.0274406
0.0255549
0.023641
0.0217171
0.0197997
0.0179039
0.0160426
0.0142269
0.0124656
0.0107659
0.00913294
0.00757057
0.0060813
0.00466665
0.00332736
0.00206359
0.000875092
-0.000238638
-0.00127827
-0.00224455
-0.00313825
-0.00396013
-0.00471091
-0.00539131
-0.00600198
-0.00654359
-0.00701677
-0.00742221
-0.00776059
-0.00803265
-0.0082392
-0.00838111
-0.00845933
-0.0084749
-0.00842892
-0.00832257
-0.00815709
-0.00793377
-0.00765392
-0.00731882
-0.00692972
-0.0064878
-0.00599409
-0.00544945
-0.0048545
-0.00420955
-0.00351457
-0.00276909
-0.00197215
-0.00112224
-0.000217265
0.000745498
0.00176937
0.00285825
0.00401643
0.00524848
0.00655882
0.00795133
0.00942865
0.0109914
0.0126371
0.0143591
0.0161456
0.0179784
0.0198327
0.0216768
0.023474
0.0251842
0.0267678
0.0281895
0.0294228
0.0304532
0.0312793
0.0319129
0.0323758
0.0326962
0.0329041
0.033028
0.0330926
0.0331173
0.033117
0.0331018
0.0330791
0.0330527
0.0330265
0.033001
0.032979
0.0329589
0.0329447
0.0329324
0.0329285
0.0329247
0.0329319
0.0453172
0.0452258
0.045181
0.0450838
0.0450005
0.0448809
0.0447605
0.0446134
0.0444549
0.0442671
0.0440515
0.0437912
0.0434786
0.0430958
0.0426297
0.0420626
0.0413805
0.0405694
0.0396199
0.0385255
0.0372853
0.0359024
0.0343852
0.0327454
0.0309987
0.0291628
0.0272571
0.0253016
0.0233164
0.0213205
0.0193316
0.0173655
0.0154357
0.0135537
0.0117284
0.00996688
0.00827428
0.00665408
0.00510844
0.00363848
0.00224453
0.000926345
-0.000316696
-0.00148544
-0.00258085
-0.00360391
-0.00455558
-0.00543676
-0.00624827
-0.00699087
-0.00766523
-0.00827198
-0.0088117
-0.00928496
-0.00969235
-0.0100345
-0.0103119
-0.0105255
-0.0106758
-0.0107639
-0.0107906
-0.0107568
-0.0106638
-0.0105125
-0.0103043
-0.0100403
-0.00972172
-0.00934977
-0.00892555
-0.00845009
-0.00792425
-0.00734869
-0.00672379
-0.00604965
-0.00532592
-0.00455183
-0.00372607
-0.00284673
-0.00191126
-0.000916412
0.000141756
0.00126785
0.00246702
0.00374478
0.00510668
0.00655779
0.00810202
0.0097412
0.0114739
0.0132941
0.01519
0.0171423
0.019124
0.0211
0.0230287
0.0248642
0.0265611
0.0280789
0.0293872
0.0304699
0.0313269
0.0319727
0.0324338
0.0327429
0.0329344
0.0330401
0.0330866
0.0330949
0.0330797
0.033052
0.033018
0.032983
0.0329486
0.0329184
0.032891
0.032871
0.0328539
0.0328474
0.0328417
0.0328497
0.0455553
0.0454439
0.0453973
0.0452895
0.0452022
0.0450712
0.0449389
0.0447718
0.0445879
0.0443644
0.0441031
0.0437838
0.0433982
0.0429262
0.0423544
0.0416647