/*--------------------------------*- C++ -*----------------------------------*\
| =========                 |                                                 |
| \\      /  F ield         | OpenFOAM: The Open Source CFD Toolbox           |
|  \\    /   O peration     | Version:  2406                                  |
|   \\  /    A nd           | Website:  www.openfoam.com                      |
|    \\/     M anipulation  |                                                 |
\*---------------------------------------------------------------------------*/
FoamFile
{
    version     2.0;
    format      ascii;
    arch        "LSB;label=32;scalar=64";
    class       volScalarField;
    location    "6.45";
    object      p;
}
// * * * * * * * * * * * * * * * * * * * * * * * * * * * * * * * * * * * * * //

dimensions      [0 2 -2 0 0 0 0];

internalField   nonuniform List<scalar> 
3600
(
0.00920565
0.00919935
0.00919862
0.0091956
0.00920094
0.00920568
0.00921817
0.00923064
0.0092497
0.00926924
0.00929441
0.00932059
0.00935172
0.00938434
0.0094214
0.00946031
0.00950324
0.00954825
0.00959691
0.00964772
0.00970177
0.00975787
0.00981673
0.00987737
0.00994016
0.0100042
0.0100697
0.0101358
0.0102023
0.0102685
0.0103341
0.0103982
0.0104605
0.0105203
0.010577
0.01063
0.0106788
0.0107229
0.010762
0.0107957
0.0108239
0.0108465
0.0108635
0.0108749
0.0108813
0.0108827
0.0108798
0.0108729
0.0108627
0.0108497
0.0108346
0.0108178
0.0108003
0.0107822
0.0107646
0.0107479
0.0107332
0.0107215
0.0107135
0.010711
0.00921183
0.0092054
0.00920701
0.00920548
0.00921247
0.00921793
0.00923106
0.00924366
0.00926285
0.00928227
0.00930738
0.00933336
0.00936434
0.0093967
0.00943352
0.0094721
0.00951471
0.00955931
0.00960753
0.00965781
0.0097113
0.00976674
0.00982489
0.00988473
0.00994665
0.0100098
0.0100742
0.0101392
0.0102045
0.0102695
0.0103338
0.0103966
0.0104576
0.010516
0.0105714
0.0106231
0.0106706
0.0107135
0.0107515
0.0107842
0.0108115
0.0108332
0.0108495
0.0108605
0.0108664
0.0108676
0.0108646
0.0108577
0.0108477
0.010835
0.0108205
0.0108044
0.0107877
0.0107708
0.0107548
0.0107398
0.0107271
0.0107172
0.0107106
0.0107083
0.00921273
0.0092037
0.00920551
0.00920328
0.00921072
0.00921604
0.0092295
0.00924205
0.00926142
0.00928079
0.00930598
0.0093319
0.00936291
0.00939522
0.00943205
0.0094706
0.00951321
0.0095578
0.00960605
0.00965636
0.00970991
0.00976544
0.00982372
0.00988371
0.00994583
0.0100092
0.0100739
0.0101392
0.0102049
0.0102702
0.0103349
0.0103981
0.0104595
0.0105183
0.010574
0.0106259
0.0106737
0.0107168
0.0107548
0.0107874
0.0108145
0.0108359
0.0108518
0.0108623
0.0108676
0.0108681
0.0108644
0.0108568
0.0108461
0.0108327
0.0108174
0.0108007
0.0107835
0.010766
0.0107496
0.0107342
0.0107213
0.0107109
0.0107042
0.0107009
0.0092152
0.00920412
0.00920688
0.00920458
0.00921318
0.00921875
0.00923292
0.00924555
0.00926523
0.00928454
0.0093098
0.00933558
0.00936653
0.00939866
0.00943537
0.00947371
0.00951616
0.00956053
0.00960859
0.00965868
0.00971203
0.00976734
0.00982543
0.00988522
0.00994718
0.0100104
0.010075
0.0101401
0.0102057
0.0102709
0.0103355
0.0103986
0.0104598
0.0105185
0.010574
0.0106257
0.0106731
0.0107157
0.0107532
0.0107852
0.0108115
0.0108322
0.0108471
0.0108566
0.010861
0.0108605
0.0108557
0.0108472
0.0108356
0.0108214
0.0108055
0.0107883
0.0107709
0.0107534
0.0107372
0.0107221
0.0107098
0.0106995
0.0106932
0.010689
0.00920825
0.00919493
0.00919774
0.00919448
0.00920342
0.00920864
0.00922314
0.00923565
0.00925556
0.00927481
0.00930023
0.00932598
0.00935704
0.00938918
0.00942601
0.00946442
0.00950704
0.00955158
0.00959989
0.00965028
0.00970402
0.0097598
0.00981845
0.00987889
0.00994161
0.0100057
0.0100712
0.0101374
0.0102042
0.0102706
0.0103365
0.0104009
0.0104634
0.0105233
0.0105799
0.0106325
0.0106808
0.010724
0.0107618
0.0107938
0.0108199
0.0108401
0.0108542
0.0108627
0.0108657
0.0108638
0.0108574
0.0108473
0.010834
0.0108181
0.0108006
0.0107819
0.0107631
0.0107444
0.0107271
0.010711
0.0106979
0.0106867
0.0106799
0.0106748
0.00919988
0.00918512
0.00918839
0.00918475
0.00919439
0.00919959
0.00921462
0.00922713
0.00924735
0.00926656
0.00929213
0.00931782
0.00934896
0.00938104
0.00941792
0.00945632
0.00949902
0.00954362
0.0095921
0.00964267
0.00969669
0.00975281
0.00981191
0.00987288
0.00993624
0.010001
0.0100674
0.0101346
0.0102023
0.0102698
0.0103368
0.0104023
0.0104659
0.0105268
0.0105843
0.0106377
0.0106864
0.0107298
0.0107676
0.0107993
0.0108247
0.0108438
0.0108567
0.0108636
0.0108649
0.0108611
0.0108527
0.0108405
0.0108253
0.0108076
0.0107884
0.0107683
0.0107482
0.0107285
0.0107105
0.0106939
0.0106805
0.010669
0.0106621
0.0106566
0.00918089
0.00916482
0.00916814
0.0091638
0.00917365
0.00917852
0.00919379
0.00920616
0.0092266
0.00924578
0.00927155
0.00929729
0.00932865
0.00936088
0.00939804
0.00943672
0.00947983
0.00952488
0.00957395
0.00962519
0.00968006
0.00973714
0.00979738
0.00985965
0.0099245
0.00999094
0.0100592
0.0101283
0.0101981
0.0102679
0.0103371
0.010405
0.0104708
0.0105338
0.0105932
0.0106483
0.0106984
0.0107429
0.0107812
0.010813
0.010838
0.0108562
0.0108677
0.0108728
0.0108719
0.0108657
0.0108547
0.0108399
0.0108218
0.0108016
0.0107799
0.0107575
0.0107353
0.0107138
0.0106942
0.0106763
0.0106618
0.0106496
0.0106422
0.0106365
0.00915896
0.00914212
0.00914571
0.00914109
0.00915136
0.00915615
0.00917178
0.00918413
0.00920483
0.00922401
0.00924998
0.00927576
0.00930732
0.00933966
0.00937708
0.009416
0.00945949
0.00950496
0.0095546
0.00960652
0.00966222
0.00972028
0.00978169
0.00984529
0.00991167
0.00997983
0.01005
0.0101211
0.0101932
0.0102653
0.0103369
0.0104071
0.0104753
0.0105405
0.0106019
0.0106586
0.01071
0.0107553
0.0107939
0.0108254
0.0108496
0.0108665
0.010876
0.0108788
0.0108751
0.010866
0.0108517
0.0108337
0.0108125
0.0107893
0.0107648
0.01074
0.0107157
0.0106926
0.0106715
0.0106527
0.0106375
0.0106249
0.0106172
0.0106119
0.00912608
0.00910852
0.00911216
0.00910712
0.00911753
0.00912209
0.00913789
0.00915015
0.00917105
0.00919026
0.00921648
0.00924242
0.00927431
0.00930697
0.00934486
0.0093843
0.00942847
0.00947473
0.00952535
0.00957839
0.00963545
0.00969506
0.00975827
0.00982391
0.00989259
0.0099633
0.0100362
0.0101104
0.0101858
0.0102612
0.0103363
0.01041
0.0104815
0.0105499
0.0106143
0.0106736
0.010727
0.0107738
0.0108131
0.0108447
0.0108681
0.0108836
0.0108909
0.010891
0.010884
0.0108712
0.010853
0.010831
0.0108058
0.0107789
0.0107508
0.010723
0.0106958
0.0106705
0.0106474
0.0106272
0.0106107
0.0105977
0.0105895
0.0105846
0.00908949
0.00907153
0.00907534
0.00907014
0.00908081
0.00908532
0.00910136
0.00911361
0.00913473
0.00915399
0.00918043
0.00920651
0.00923869
0.00927162
0.00930995
0.00934986
0.0093947
0.00944172
0.00949332
0.0095475
0.00960595
0.00966717
0.00973227
0.00980007
0.0098712
0.00994465
0.0100206
0.0100981
0.0101769
0.010256
0.0103349
0.0104124
0.0104876
0.0105596
0.0106271
0.0106892
0.0107447
0.0107929
0.0108329
0.0108643
0.0108866
0.0109002
0.0109047
0.0109013
0.0108902
0.010873
0.0108501
0.0108235
0.0107936
0.0107625
0.0107305
0.0106994
0.0106692
0.0106418
0.0106167
0.0105955
0.0105778
0.0105647
0.0105561
0.0105521
0.00904174
0.00902335
0.0090272
0.00902173
0.0090325
0.00903685
0.00905303
0.00906524
0.00908654
0.00910588
0.0091326
0.00915891
0.0091915
0.00922487
0.00926382
0.00930444
0.00935019
0.00939828
0.00945119
0.00950691
0.00956718
0.00963051
0.00969805
0.00976863
0.00984289
0.00991983
0.00999962
0.0100813
0.0101646
0.0102484
0.0103321
0.0104145
0.0104946
0.0105711
0.0106428
0.0107086
0.010767
0.0108174
0.0108584
0.0108899
0.010911
0.0109224
0.0109236
0.0109162
0.0109002
0.0108778
0.0108492
0.0108172
0.0107817
0.0107457
0.0107089
0.010674
0.0106403
0.0106103
0.0105828
0.0105603
0.0105412
0.010528
0.0105189
0.0105158
0.00898999
0.00897136
0.00897532
0.00896975
0.00898067
0.00898499
0.00900131
0.0090135
0.00903495
0.00905433
0.00908125
0.00910771
0.00914062
0.00917432
0.00921378
0.00925501
0.00930158
0.00935066
0.00940482
0.00946204
0.00952412
0.00958957
0.00965961
0.00973307
0.00981063
0.00989128
0.00997519
0.0100614
0.0101495
0.0102385
0.0103276
0.0104155
0.0105009
0.0105827
0.0106591
0.010729
0.0107907
0.0108434
0.0108855
0.0109169
0.0109365
0.0109452
0.0109424
0.0109301
0.0109082
0.0108795
0.0108443
0.0108059
0.0107641
0.0107226
0.0106805
0.0106416
0.0106041
0.0105716
0.0105417
0.0105181
0.0104978
0.0104847
0.0104753
0.0104734
0.0089267
0.00890775
0.00891171
0.00890594
0.00891691
0.0089211
0.00893749
0.00894964
0.0089712
0.00899065
0.00901778
0.00904446
0.00907775
0.0091119
0.009152
0.00919398
0.00924154
0.00929182
0.00934746
0.00940644
0.00947063
0.00953858
0.00961154
0.00968837
0.00976978
0.00985478
0.00994355
0.0100351
0.010129
0.0102242
0.0103198
0.0104143
0.0105063
0.0105945
0.0106768
0.010752
0.010818
0.0108737
0.0109174
0.0109489
0.0109669
0.0109725
0.010965
0.0109469
0.0109181
0.0108822
0.0108391
0.0107933
0.0107441
0.0106963
0.0106484
0.0106048
0.0105632
0.010528
0.0104956
0.0104709
0.0104493
0.0104364
0.0104266
0.0104261
0.00885954
0.00884043
0.00884444
0.00883858
0.0088496
0.00885369
0.0088701
0.00888215
0.00890372
0.0089231
0.00895028
0.00897701
0.00901047
0.00904484
0.00908534
0.00912786
0.00917617
0.00922742
0.00928433
0.00934489
0.00941105
0.00948138
0.0095572
0.00963739
0.00972272
0.00981223
0.00990611
0.0100034
0.0101035
0.0102055
0.0103082
0.0104101
0.0105097
0.0106051
0.0106943
0.0107755
0.0108463
0.0109057
0.0109512
0.0109828
0.0109988
0.0110007
0.0109876
0.0109625
0.0109255
0.0108809
0.0108287
0.0107743
0.0107169
0.010662
0.0106077
0.0105595
0.0105137
0.0104759
0.0104412
0.0104157
0.010393
0.0103806
0.0103705
0.0103717
0.00878017
0.00876077
0.00876475
0.00875867
0.00876964
0.00877356
0.0087899
0.00880181
0.00882334
0.00884265
0.00886987
0.00889664
0.00893029
0.00896492
0.00900584
0.00904893
0.00909805
0.00915033
0.00920858
0.00927082
0.00933907
0.00941194
0.00949081
0.00957465
0.00966426
0.00975873
0.00985827
0.00996192
0.0100692
0.0101789
0.0102899
0.0104006
0.0105089
0.0106132
0.0107106
0.0107993
0.0108763
0.0109403
0.0109883
0.0110203
0.0110343
0.0110318
0.0110121
0.0109789
0.0109321
0.0108774
0.0108146
0.0107504
0.0106837
0.0106211
0.0105599
0.0105068
0.0104567
0.0104167
0.0103797
0.0103537
0.01033
0.0103184
0.0103081
0.0103111
0.00869751
0.00867799
0.00868196
0.00867574
0.00868663
0.00869033
0.00870649
0.00871811
0.00873938
0.00875838
0.00878533
0.00881183
0.00884529
0.0088798
0.00892073
0.00896398
0.00901345
0.00906633
0.00912548
0.00918897
0.0092589
0.00933395
0.00941556
0.0095028
0.0095965
0.00969587
0.00980114
0.0099114
0.0100262
0.0101442
0.0102642
0.0103845
0.0105028
0.010617
0.0107239
0.0108213
0.0109056
0.0109751
0.0110262
0.0110587
0.0110701
0.0110626
0.0110349
0.010992
0.0109337
0.0108671
0.0107921
0.0107168
0.0106396
0.0105689
0.0105005
0.0104427
0.0103887
0.0103468
0.0103081
0.0102822
0.0102579
0.0102476
0.0102373
0.0102425
0.00860158
0.0085818
0.00858566
0.00857917
0.00858987
0.00859324
0.00860913
0.00862039
0.00864134
0.00865997
0.0086866
0.00871279
0.008746
0.00878033
0.00882119
0.00886449
0.00891421
0.00896756
0.00902746
0.00909206
0.00916352
0.0092406
0.00932484
0.0094154
0.0095132
0.00961757
0.00972878
0.00984605
0.00996885
0.010096
0.0102261
0.0103573
0.010487
0.0106129
0.0107311
0.0108391
0.0109323
0.0110086
0.0110638
0.0110973
0.0111061
0.0110927
0.0110558
0.0110014
0.0109297
0.0108493
0.0107602
0.0106725
0.010584
0.0105046
0.0104292
0.010367
0.0103096
0.0102668
0.010227
0.0102019
0.0101776
0.010169
0.0101589
0.0101666
0.0085035
0.00848365
0.00848743
0.00848073
0.00849115
0.00849411
0.0085095
0.00852016
0.00854044
0.00855833
0.00858417
0.00860955
0.00864195
0.00867548
0.00871562
0.0087583
0.00880753
0.00886061
0.00892049
0.00898543
0.00905762
0.00913598
0.00922208
0.00931527
0.00941653
0.00952537
0.00964213
0.00976616
0.00989699
0.0100335
0.0101742
0.0103171
0.0104593
0.0105981
0.0107292
0.0108492
0.0109529
0.0110373
0.0110973
0.0111321
0.011138
0.0111178
0.0110703
0.0110025
0.010915
0.0108187
0.0107135
0.010612
0.0105113
0.0104233
0.010341
0.0102756
0.0102159
0.0101734
0.0101337
0.0101106
0.010087
0.0100807
0.0100712
0.0100816
0.00839069
0.00837059
0.00837416
0.00836708
0.0083771
0.00837952
0.00839432
0.00840428
0.00842382
0.00844087
0.00846585
0.00849031
0.00852177
0.00855437
0.00859358
0.00863539
0.00868385
0.0087363
0.00879575
0.00886054
0.00893293
0.00901198
0.00909935
0.00919454
0.00929867
0.00941143
0.00953329
0.00966382
0.0098026
0.0099487
0.0101004
0.0102559
0.0104119
0.0105653
0.0107109
0.0108448
0.0109606
0.0110547
0.0111209
0.0111578
0.0111612
0.011134
0.011075
0.0109925
0.0108876
0.0107733
0.0106502
0.0105334
0.0104197
0.0103232
0.0102348
0.0101676
0.0101071
0.0100667
0.0100286
0.0100088
0.00998682
0.00998364
0.00997509
0.00998835
0.00827756
0.00825748
0.00826087
0.00825348
0.00826296
0.00826469
0.00827859
0.00828749
0.00830579
0.00832147
0.00834492
0.00836776
0.00839746
0.00842826
0.00846559
0.00850554
0.00855213
0.00860282
0.00866062
0.00872401
0.00879528
0.00887366
0.00896088
0.00905666
0.00916223
0.00927754
0.00940319
0.00953904
0.00968478
0.0098397
0.0100021
0.01017
0.0103399
0.0105081
0.0106688
0.0108171
0.0109456
0.0110498
0.0111225
0.0111622
0.0111638
0.0111307
0.0110612
0.0109648
0.0108426
0.0107099
0.0105679
0.0104348
0.0103069
0.0102018
0.0101077
0.0100401
0.00998052
0.00994442
0.00990967
0.00989488
0.00987574
0.00987648
0.00986928
0.00988556
0.00814768
0.00812738
0.00813045
0.00812254
0.00813135
0.00813224
0.00814514
0.0081529
0.00816988
0.00818412
0.00820595
0.00822704
0.00825484
0.00828361
0.00831876
0.00835646
0.00840069
0.00844902
0.00850443
0.00856554
0.00863466
0.00871121
0.00879695
0.00889189
0.00899733
0.00911357
0.00924135
0.00938092
0.0095321
0.00969451
0.00986638
0.0100458
0.0102286
0.0104106
0.0105847
0.0107453
0.0108837
0.0109953
0.0110723
0.0111136
0.0111144
0.0110787
0.0110044
0.0109015
0.0107697
0.0106253
0.0104685
0.0103211
0.010179
0.0100645
0.00996402
0.00989645
0.0098386
0.00980851
0.00977869
0.0097705
0.00975527
0.00976059
0.0097551
0.00977423
0.00802027
0.00800011
0.00800287
0.00799455
0.00800251
0.00800237
0.00801384
0.00801998
0.00803498
0.00804705
0.00806638
0.00808477
0.00810956
0.00813514
0.00816683
0.0082009
0.00824127
0.00828563
0.0083369
0.00839388
0.00845884
0.00853139
0.00861333
0.00870494
0.00880762
0.00892201
0.00904903
0.00918934
0.00934292
0.00950966
0.00968761
0.00987454
0.0100652
0.0102541
0.0104326
0.0105936
0.0107275
0.01083
0.0108949
0.0109245
0.0109171
0.0108805
0.0108131
0.0107244
0.0106096
0.0104813
0.0103342
0.0101897
0.0100427
0.00992178
0.00981355
0.00974411
0.00968623
0.00966198
0.00963724
0.00963644
0.00962562
0.00963575
0.00963202
0.00965354
0.00787342
0.00785308
0.00785537
0.00784637
0.00785333
0.00785202
0.007862
0.00786647
0.00787948
0.00788935
0.00790614
0.00792177
0.00794341
0.00796559
0.00799346
0.00802344
0.00805928
0.00809883
0.00814489
0.00819643
0.00825559
0.00832226
0.00839815
0.00848386
0.0085808
0.00869005
0.00881262
0.00894963
0.00910107
0.00926694
0.00944445
0.00963015
0.00981606
0.00999376
0.0101504
0.0102762
0.01036
0.0104006
0.0103986
0.0103676
0.0103177
0.0102683
0.0102227
0.01019
0.0101558
0.01012
0.0100592
0.00998384
0.00987929
0.00977851
0.00967201
0.00960015
0.00953762
0.00951527
0.0094927
0.0094978
0.00949043
0.00950451
0.00950199
0.00952489
0.00773306
0.00771303
0.00771488
0.00770535
0.0077111
0.00770836
0.00771632
0.0077185
0.00772868
0.00773542
0.00774854
0.00776017
0.00777727
0.00779454
0.00781693
0.00784103
0.00787039
0.00790303
0.00794154
0.00798509
0.00803565
0.00809331
0.00815968
0.00823562
0.0083225
0.00842179
0.00853446
0.00866196
0.00880383
0.0089593
0.00912312
0.00928786
0.00943896
0.00955983
0.00962847
0.00962877
0.00954959
0.00940008
0.00920075
0.00899376
0.00881705
0.0087136
0.008698
0.00878122
0.00893437
0.00913492
0.00932478
0.00948104
0.00955784
0.00957694
0.00952879
0.00947615
0.00940945
0.00938243
0.0093545
0.00936035
0.00935266
0.00936791
0.00936495
0.00938753
0.0075696
0.00754944
0.00755066
0.00754029
0.0075447
0.00754044
0.00754639
0.00754634
0.0075538
0.00755754
0.00756711
0.00757483
0.00758738
0.00759964
0.00761626
0.00763404
0.00765618
0.00768094
0.00771055
0.00774442
0.00778417
0.00783016
0.00788367
0.00794591
0.00801794
0.0081016
0.00819751
0.00830706
0.00842819
0.00855745
0.00868317
0.00878816
0.00884246
0.00881143
0.00865534
0.00835152
0.00789899
0.00733966
0.00673881
0.00618816
0.00576381
0.00553948
0.00554304
0.00579219
0.00624577
0.00686037
0.00753439
0.00819201
0.00872288
0.00909817
0.0092797
0.0093428
0.00930869
0.00927934
0.00923693
0.00923379
0.0092183
0.00922918
0.00922251
0.00924234
0.00741828
0.00739864
0.00739929
0.0073883
0.00739112
0.00738504
0.00738831
0.00738529
0.00738895
0.00738853
0.00739313
0.00739542
0.00740168
0.00740709
0.00741592
0.00742519
0.00743773
0.007452
0.00746982
0.0074908
0.00751612
0.00754634
0.00758228
0.00762536
0.00767616
0.00773665
0.00780651
0.00788599
0.0079691
0.00804529
0.00808893
0.00806142
0.00790276
0.00754769
0.00693775
0.00606206
0.00496389
0.00375315
0.00255978
0.00152866
0.000764536
0.000361241
0.00035062
0.000760615
0.0015481
0.0026717
0.00400592
0.00543355
0.00676436
0.00787199
0.0086247
0.00905153
0.00918788
0.00920358
0.00914819
0.00912533
0.00909092
0.00908838
0.00907284
0.00908649
0.0072389
0.00721916
0.00721902
0.00720704
0.00720821
0.00720027
0.00720106
0.00719531
0.00719557
0.00719139
0.00719145
0.0071887
0.00718897
0.00718773
0.0071887
0.00718923
0.00719156
0.00719444
0.00719905
0.00720528
0.00721356
0.00722476
0.00723883
0.00725747
0.00728023
0.00730895
0.00734113
0.0073741
0.0073934
0.00737396
0.00726316
0.00698427
0.00643121
0.00550857
0.00416631
0.00245716
0.000516282
-0.00145458
-0.00327133
-0.00476411
-0.00583789
-0.00640774
-0.0064607
-0.00596112
-0.00494615
-0.00342087
-0.00148987
0.000749456
0.00307136
0.00525806
0.00702823
0.00824968
0.00887678
0.00910238
0.00908297
0.00903739
0.00897263
0.00894508
0.00891354
0.00891698
0.0070794
0.00706045
0.00705963
0.00704699
0.00704619
0.00703609
0.00703356
0.00702414
0.00701966
0.0070103
0.00700406
0.00699445
0.00698664
0.00697656
0.00696729
0.00695657
0.00694591
0.00693443
0.00692249
0.00691028
0.00689728
0.00688459
0.00687105
0.0068584
0.00684468
0.00683087
0.00681053
0.00677454
0.00669302
0.00651437
0.00614165
0.00544329
0.00426728
0.00252357
0.000238232
-0.0024069
-0.00515999
-0.00774984
-0.00999015
-0.0117386
-0.0129541
-0.0135876
-0.0136659
-0.0131547
-0.0120928
-0.0104357
-0.0082387
-0.00550675
-0.00240709
0.000858473
0.00390792
0.00638839
0.00800479
0.00880573
0.00899238
0.00895682
0.00885715
0.00879191
0.00873619
0.00872386
0.00688499
0.00686596
0.00686421
0.00685046
0.00684777
0.00683561
0.00683024
0.00681776
0.00680934
0.00679567
0.00678408
0.00676853
0.00675347
0.00673529
0.00671623
0.00669453
0.00667071
0.00664439
0.00661476
0.00658249
0.00654566
0.00650575
0.00645987
0.00640986
0.00635117
0.0062832
0.00619249
0.00605882
0.00582673
0.00540413
0.00463311
0.00332638
0.00131997
-0.00139418
-0.00463787
-0.00807205
-0.0113686
-0.0142564
-0.016613
-0.0183596
-0.0195248
-0.0200933
-0.0201338
-0.0196167
-0.0186039
-0.017022
-0.014903
-0.0121486
-0.00881488
-0.00495026
-0.000864859
0.00299719
0.00605898
0.00796181
0.00874432
0.00884678
0.00872643
0.00861843
0.0085293
0.00849502
0.00672099
0.00670306
0.00670055
0.00668617
0.00668121
0.0066666
0.00665734
0.00664063
0.00662661
0.00660686
0.00658776
0.00656407
0.00653927
0.00651048
0.00647889
0.00644343
0.00640341
0.0063591
0.00630826
0.00625212
0.00618702
0.00611483
0.00603046
0.00593562
0.00582218
0.00568648
0.00550447
0.00523827
0.00479567
0.00403034
0.00271817
0.000642153
-0.00230437
-0.00596545
-0.00998011
-0.0139006
-0.0174135
-0.0203208
-0.0225954
-0.0242132
-0.0252466
-0.0256848
-0.0256235
-0.0250336
-0.0240193
-0.0225082
-0.0205649
-0.0180391
-0.0149245
-0.0110829
-0.00662488
-0.00182576
0.00267756
0.00611894
0.00803504
0.0086301
0.00854885
0.00840292
0.00827635
0.0082078
0.00651252
0.00649448
0.00649094
0.00647541
0.00646845
0.00645176
0.00643954
0.00641972
0.00640155
0.00637733
0.00635243
0.00632239
0.0062895
0.00625174
0.00620891
0.00616086
0.00610529
0.00604341
0.00597101
0.00589027
0.0057951
0.00568816
0.00556118
0.00541594
0.00523904
0.0050226
0.00472708
0.00429099
0.00357434
0.00237115
0.000403095
-0.00252317
-0.00638393
-0.0108176
-0.0153271
-0.0194538
-0.0229859
-0.0258234
-0.028016
-0.0295466
-0.0304916
-0.0308088
-0.0306069
-0.0298495
-0.0286968
-0.027096
-0.0251892
-0.0228298
-0.0200359
-0.0165545
-0.0123254
-0.00731728
-0.00193441
0.00300053
0.00647755
0.00811342
0.00828814
0.00811045
0.00796192
0.00783888
0.00634862
0.00633202
0.00632771
0.00631167
0.00630224
0.00628299
0.00626644
0.00624201
0.00621753
0.0061866
0.00615321
0.00611413
0.00607017
0.00602054
0.00596337
0.00589977
0.00582545
0.00574289
0.00564553
0.00553673
0.00540748
0.0052614
0.00508639
0.00488416
0.00463462
0.00432405
0.00389325
0.00325145
0.00220457
0.000490871
-0.00219223
-0.00595615
-0.0106013
-0.0155835
-0.0203633
-0.0245633
-0.0281082
-0.0309691
-0.0332222
-0.034804
-0.0357616
-0.0359966
-0.0356283
-0.0346089
-0.0331668
-0.0312758
-0.0291788
-0.0267613
-0.0241261
-0.0209906
-0.0172344
-0.012573
-0.00704884
-0.00121925
0.00386265
0.00691201
0.00793068
0.00767879
0.00756693
0.00735538
0.00612683
0.00611001
0.00610465
0.00608751
0.00607618
0.00605512
0.00603584
0.00600872
0.00598033
0.00594538
0.00590633
0.00586122
0.00580904
0.00575049
0.00568151
0.00560489
0.00551373
0.00541238
0.00529108
0.00515516
0.00499165
0.00480601
0.00458087
0.00431877
0.00399055
0.0035766
0.00299349
0.00211983
0.000705278
-0.00155117
-0.00494281
-0.00945442
-0.0147144
-0.0200595
-0.0250052
-0.0292967
-0.032983
-0.0360491
-0.0385508
-0.0403331
-0.0414026
-0.0415899
-0.0410343
-0.0396696
-0.0378042
-0.0354363
-0.0329256
-0.0302005
-0.0274765
-0.0244851
-0.0211436
-0.0170247
-0.0119099
-0.00590222
0.000251835
0.00486377
0.00720871
0.00715038
0.00701035
0.00675273
0.0059686
0.00595361
0.00594752
0.00593014
0.00591626
0.00589271
0.00586883
0.005837
0.00580183
0.00575992
0.00571172
0.0056572
0.00559313
0.00552224
0.00543787
0.00534505
0.00523373
0.00511073
0.00496242
0.00479675
0.00459597
0.00436804
0.00408936
0.00376375
0.00335159
0.00282733
0.00208134
0.000962721
-0.000830112
-0.00361781
-0.0076561
-0.0127898
-0.018513
-0.0241186
-0.0292357
-0.0337292
-0.0377323
-0.0411886
-0.0441014
-0.0461995
-0.0474542
-0.0476202
-0.0468708
-0.045112
-0.0427392
-0.0397625
-0.0366644
-0.0334174
-0.0303639
-0.0272743
-0.0241482
-0.020512
-0.0160312
-0.0103866
-0.0039358
0.00204098
0.00569488
0.00663008
0.0061603
0.00602887
0.00573362
0.00571817
0.00571109
0.00569278
0.00567741
0.00565272
0.00562679
0.00559332
0.00555511
0.00551046
0.00545751
0.00539833
0.00532684
0.00524835
0.00515275
0.00504814
0.00492025
0.00477949
0.00460707
0.00441501
0.00417911
0.0039117
0.00358081
0.00319382
0.00269797
0.00206491
0.00115666
-0.000199582
-0.00235077
-0.00561487
-0.010202
-0.0158259
-0.0219047
-0.0277371
-0.0330891
-0.037907
-0.0423733
-0.0463426
-0.0497598
-0.0522242
-0.0536954
-0.0538471
-0.052908
-0.0507418
-0.0478394
-0.0441996
-0.0404275
-0.0365268
-0.0329708
-0.0295783
-0.0264447
-0.0231197
-0.0192388
-0.0142598
-0.00807394
-0.00140417
0.00349386
0.00584589
0.00513566
0.0051159
0.00558764
0.00557447
0.00556678
0.00554863
0.00553077
0.0055039
0.00547328
0.00543531
0.00539009
0.00533867
0.00527627
0.005208
0.00512433
0.00503405
0.00492287
0.00480291
0.00465484
0.00449368
0.00429443
0.00407437
0.00380164
0.00349431
0.00311064
0.00266333
0.00208527
0.00134846
0.000288012
-0.00128183
-0.00374371
-0.00739931
-0.0124189
-0.0184142
-0.0247795
-0.0308421
-0.0364942
-0.0417194
-0.0467225
-0.0512435
-0.0551805
-0.0580041
-0.0596891
-0.0598243
-0.0587139
-0.0561639
-0.0527678
-0.0484862
-0.0440428
-0.0394499
-0.035312
-0.0314925
-0.0281846
-0.0249889
-0.0215611
-0.0173205
-0.0117168
-0.00512664
0.000852745
0.0043091
0.00410894
0.00383922
0.00533839
0.00532431
0.00531579
0.00529709
0.00527848
0.00525169
0.00522032
0.00518259
0.00513598
0.00508417
0.00501881
0.00494853
0.00485928
0.00476431
0.00464376
0.00451523
0.00435256
0.00417739
0.00395634
0.00371453
0.00340977
0.00306922
0.00263807
0.0021389
0.00148681
0.000661819
-0.000528634
-0.00226747
-0.0049694
-0.0089067
-0.0142356
-0.0204937
-0.027098
-0.0333922
-0.0393763
-0.0450194
-0.0505482
-0.0555725
-0.059979
-0.0631071
-0.06498
-0.0650886
-0.0638352
-0.0609488
-0.0571374
-0.0522939
-0.0472572
-0.0420164
-0.0373087
-0.033021
-0.0294534
-0.026249
-0.0231233
-0.0195377
-0.0146602
-0.00867769
-0.00207555
0.00204993
0.00303576
0.00215452
0.00521236
0.00520103
0.00519211
0.00517413
0.0051532
0.0051248
0.00508877
0.00504711
0.00499338
0.00493549
0.00486062
0.00478227
0.004681
0.00457584
0.00444029
0.00429886
0.00411724
0.00392534
0.00367974
0.00341544
0.00307786
0.00270583
0.0022292
0.00168394
0.000965697
6.91251e-05
-0.00122344
-0.00307796
-0.00593515
-0.0100339
-0.0155444
-0.0219622
-0.0287559
-0.0352631
-0.0415605
-0.0475635
-0.0535302
-0.0589458
-0.0637244
-0.0670764
-0.0690996
-0.0691733
-0.067815
-0.0646593
-0.0605394
-0.0552552
-0.0497581
-0.0439784
-0.0387892
-0.0340683
-0.0302377
-0.0269463
-0.0240168
-0.0209422
-0.016829
-0.0116849
-0.00510308
-0.000630562
0.0015477
6.40808e-05
0.00494578
0.00493285
0.00492337
0.00490543
0.00488498
0.00485858
0.00482383
0.00478539
0.0047328
0.00467821
0.00460315
0.00452697
0.00442299
0.00431779
0.00417587
0.0040312
0.00383838
0.00363895
0.00337591
0.00309839
0.00273511
0.00234206
0.00182842
0.00125112
0.000480578
-0.000461683
-0.00182166
-0.0037268
-0.00664731
-0.0107766
-0.0163389
-0.0228038
-0.0297261
-0.0363935
-0.0429439
-0.0491904
-0.055456
-0.0611022
-0.0661258
-0.0695994
-0.0717289
-0.071759
-0.0703425
-0.0669948
-0.0626886
-0.0571028
-0.0513085
-0.0451381
-0.0396096
-0.034548
-0.0305194
-0.0271241
-0.0243387
-0.0216334
-0.018251
-0.0139779
-0.00800832
-0.0034984
-0.000683707
-0.00240035
0.00484864
0.00483901
0.00482937
0.00481292
0.00479038
0.00476321
0.00472383
0.00468233
0.00462249
0.00456294
0.00447829
0.00439571
0.00427997
0.00416716
0.00401115
0.00385749
0.00364765
0.00343731
0.00315325
0.00286193
0.0024721
0.00206097
0.00151324
0.000912329
9.97971e-05
-0.000866863
-0.00226218
-0.0041585
-0.00705367
-0.0110876
-0.0165676
-0.0229569
-0.029922
-0.0366714
-0.0433828
-0.049731
-0.0561279
-0.0618232
-0.0669446
-0.0704283
-0.0726149
-0.0725988
-0.0711792
-0.0677293
-0.0633674
-0.0576265
-0.051708
-0.0453119
-0.0396136
-0.0343374
-0.030219
-0.0267493
-0.0241032
-0.021659
-0.0189306
-0.0154568
-0.0104441
-0.00618598
-0.00331415
-0.00486256
0.00455874
0.00454643
0.00453665
0.00452114
0.00450088
0.00447865
0.00444348
0.00440962
0.00435446
0.00430356
0.00422242
0.00414797
0.00403321
0.00392687
0.00376824
0.00361869
0.00340182
0.00319282
0.00289662
0.00260366
0.00219583
0.00178004
0.001208
0.000600728
-0.000239183
-0.00120214
-0.00260138
-0.00442853
-0.0072197
-0.0110344
-0.0163006
-0.022471
-0.0293733
-0.0360982
-0.0428724
-0.0491756
-0.0555441
-0.0611032
-0.0661741
-0.0695463
-0.0717379
-0.0716676
-0.0703031
-0.0668383
-0.0625508
-0.0567918
-0.0509191
-0.044461
-0.0387759
-0.0334278
-0.0293551
-0.0258706
-0.023395
-0.0211377
-0.0189709
-0.0161657
-0.0121847
-0.00836555
-0.00571465
-0.00687035
0.00450104
0.00449267
0.004483
0.00447
0.00444783
0.00442598
0.00438596
0.00435021
0.00428726
0.00423284
0.00414156
0.00406287
0.00393618
0.00382556
0.00365338
0.00349986
0.00326762
0.00305504
0.00274121
0.00244516
0.00201702
0.00159917
0.00100441
0.000398801
-0.000460795
-0.00140247
-0.00278429
-0.00450105
-0.00712951
-0.0106269
-0.0155552
-0.0213582
-0.0280642
-0.0346426
-0.0413769
-0.0475153
-0.0537239
-0.0589937
-0.0638782
-0.0670274
-0.0691686
-0.0690353
-0.067775
-0.0643726
-0.0602725
-0.0546127
-0.0489353
-0.0425631
-0.0370647
-0.0317823
-0.0278918
-0.0244584
-0.0222016
-0.020083
-0.0183953
-0.0161129
-0.013081
-0.00976173
-0.00736937
-0.00805756
0.00417756
0.00416492
0.0041557
0.00414508
0.00412773
0.00411524
0.00408342
0.00406176
0.00400806
0.00396982
0.00388657
0.00382405
0.00370248
0.00360678
0.00343584
0.00329562
0.00306031
0.00285977
0.00253853
0.00225424
0.00181479
0.00141032
0.0008019
0.00021602
-0.000652285
-0.00154892
-0.00289688
-0.00446664
-0.00689699
-0.00999834
-0.0144903
-0.0197702
-0.0261345
-0.0324156
-0.0390145
-0.0448897
-0.0508641
-0.0557388
-0.0603495
-0.0631828
-0.0652313
-0.0650123
-0.063891
-0.0605942
-0.056769
-0.0512921
-0.0459433
-0.0397839
-0.0346415
-0.0295489
-0.0259802
-0.0226584
-0.0206854
-0.0186679
-0.0173998
-0.0154801
-0.0132404
-0.0103544
-0.00815183
-0.00835965
0.00417185
0.00416399
0.00415511
0.0041485
0.0041292
0.00411868
0.00408118
0.00405906
0.00399601
0.00395591
0.00386075
0.00379646
0.00366149
0.00356536
0.00338009
0.00324158
0.0029911
0.00279509
0.00245784
0.00218189
0.00172591
0.00133558
0.000711774
0.000150816
-0.000724221
-0.00156643
-0.00287608
-0.00428718
-0.00651105
-0.00918485
-0.0131788
-0.0178117
-0.0236797
-0.0294991
-0.0358457
-0.0413801
-0.047082
-0.0515228
-0.0558228
-0.0582944
-0.0602191
-0.0598912
-0.0589145
-0.055736
-0.0522334
-0.0469953
-0.0420804
-0.036236
-0.0315897
-0.0267784
-0.0236412
-0.0204643
-0.0188296
-0.016875
-0.015994
-0.0142965
-0.0127179
-0.0101583
-0.00807973
-0.00781296
0.00379855
0.00378405
0.00377649
0.00377461
0.00376369
0.00376928
0.00374523
0.00374664
0.00369844
0.00368502
0.00360289
0.00356541
0.00343958
0.00336898
0.00318806
0.0030738
0.00282284
0.00265091
0.00230886
0.00205887
0.00159498
0.00123582
0.000603613
8.53623e-05
-0.000790732
-0.00156029
-0.00283088
-0.00407156
-0.00610286
-0.00834275
-0.0118313
-0.0157292
-0.0209779
-0.026152
-0.0321166
-0.0372053
-0.0426194
-0.0466118
-0.0506252
-0.0527209
-0.0545296
-0.0540634
-0.0532381
-0.0501625
-0.0470283
-0.0420658
-0.0376984
-0.0322488
-0.0282369
-0.0237635
-0.0211659
-0.0181389
-0.0169117
-0.014967
-0.0144753
-0.0128469
-0.0118225
-0.00941662
-0.00739986
-0.00665534
0.00385986
0.00385137
0.00384432
0.00384899
0.00383559
0.00384562
0.00381371
0.00381651
0.00375536
0.00374189
0.00364369
0.00360712
0.00346395
0.00339706
0.00319849
0.00309202
0.00282334
0.00266433
0.00230459
0.00207418
0.00159316