/*--------------------------------*- C++ -*----------------------------------*\
| =========                 |                                                 |
| \\      /  F ield         | OpenFOAM: The Open Source CFD Toolbox           |
|  \\    /   O peration     | Version:  2406                                  |
|   \\  /    A nd           | Website:  www.openfoam.com                      |
|    \\/     M anipulation  |                                                 |
\*---------------------------------------------------------------------------*/
FoamFile
{
    version     2.0;
    format      ascii;
    arch        "LSB;label=32;scalar=64";
    class       surfaceScalarField;
    location    "6.45";
    object      phi;
}
// * * * * * * * * * * * * * * * * * * * * * * * * * * * * * * * * * * * * * //

dimensions      [0 3 -1 0 0 0 0];

oriented        oriented;

internalField   nonuniform List<scalar> 
7080
(
-6.75667e-09
6.72775e-09
-1.53644e-07
1.48821e-07
-4.08184e-07
2.5424e-07
-7.37038e-07
3.31087e-07
-1.10359e-06
3.6667e-07
-1.48803e-06
3.86732e-07
-1.8781e-06
3.90524e-07
-2.26743e-06
3.91495e-07
-2.65416e-06
3.87409e-07
-3.03642e-06
3.8424e-07
-3.41484e-06
3.79236e-07
-3.78822e-06
3.75189e-07
-4.1571e-06
3.698e-07
-4.52004e-06
3.64588e-07
-4.87692e-06
3.57864e-07
-5.22596e-06
3.5055e-07
-5.5664e-06
3.41422e-07
-5.89607e-06
3.31045e-07
-6.21361e-06
3.185e-07
-6.51651e-06
3.04116e-07
-6.8028e-06
2.87185e-07
-7.06964e-06
2.67891e-07
-7.31457e-06
2.45702e-07
-7.53445e-06
2.20739e-07
-7.72648e-06
1.92649e-07
-7.88742e-06
1.61572e-07
-8.01436e-06
1.27361e-07
-8.10424e-06
9.02546e-08
-8.15441e-06
5.03474e-08
-8.16235e-06
8.04201e-09
-8.12616e-06
-3.62988e-08
-8.04429e-06
-8.20773e-08
-7.91601e-06
-1.28666e-07
-7.74124e-06
-1.7529e-07
-7.52082e-06
-2.21114e-07
-7.25637e-06
-2.65264e-07
-6.95053e-06
-3.06812e-07
-6.60669e-06
-3.4492e-07
-6.22918e-06
-3.78727e-07
-5.82288e-06
-4.07597e-07
-5.39338e-06
-4.30902e-07
-4.94649e-06
-4.48354e-07
-4.48833e-06
-4.5968e-07
-4.02487e-06
-4.65006e-07
-3.562e-06
-4.64446e-07
-3.10508e-06
-4.58472e-07
-2.65918e-06
-4.47475e-07
-2.22864e-06
-4.32028e-07
-1.81761e-06
-4.12534e-07
-1.42978e-06
-3.89202e-07
-1.06909e-06
-3.62053e-07
-7.39999e-07
-3.30279e-07
-4.47924e-07
-2.93225e-07
-2.00312e-07
-2.48547e-07
-5.58739e-09
-1.95551e-07
1.24846e-07
-1.3104e-07
1.82806e-07
-5.83285e-08
1.61773e-07
2.07093e-08
8.16754e-08
8.02e-08
8.16111e-08
-1.53025e-07
1.5784e-07
-5.85592e-07
5.81486e-07
-1.23049e-06
8.95914e-07
-2.0245e-06
1.1243e-06
-2.90982e-06
1.24837e-06
-3.84469e-06
1.32013e-06
-4.80296e-06
1.34517e-06
-5.76706e-06
1.35375e-06
-6.72955e-06
1.34644e-06
-7.68398e-06
1.33662e-06
-8.62914e-06
1.32117e-06
-9.56165e-06
1.30555e-06
-1.0481e-05
1.28613e-06
-1.13839e-05
1.26531e-06
-1.2269e-05
1.24011e-06
-1.31323e-05
1.21168e-06
-1.39712e-05
1.17775e-06
-1.47811e-05
1.13883e-06
-1.55581e-05
1.09316e-06
-1.62968e-05
1.04086e-06
-1.69923e-05
9.80553e-07
-1.76383e-05
9.12191e-07
-1.82291e-05
8.34743e-07
-1.8758e-05
7.48174e-07
-1.92186e-05
6.51874e-07
-1.96041e-05
5.46025e-07
-1.99082e-05
4.30552e-07
-2.01246e-05
3.06048e-07
-2.02478e-05
1.73098e-07
-2.02726e-05
3.28578e-08
-2.01954e-05
-1.13347e-07
-2.00133e-05
-2.63742e-07
-1.97249e-05
-4.16282e-07
-1.93305e-05
-5.68657e-07
-1.8832e-05
-7.18281e-07
-1.82331e-05
-8.62558e-07
-1.75393e-05
-9.98696e-07
-1.67578e-05
-1.12422e-06
-1.58976e-05
-1.23658e-06
-1.49687e-05
-1.33389e-06
-1.39826e-05
-1.4143e-06
-1.29511e-05
-1.47692e-06
-1.18869e-05
-1.52094e-06
-1.08022e-05
-1.54663e-06
-9.70937e-06
-1.55425e-06
-8.61971e-06
-1.54504e-06
-7.54422e-06
-1.51996e-06
-6.49277e-06
-1.48049e-06
-5.47505e-06
-1.42741e-06
-4.50036e-06
-1.36112e-06
-3.57892e-06
-1.28095e-06
-2.72227e-06
-1.1845e-06
-1.94455e-06
-1.06884e-06
-1.26325e-06
-9.2793e-07
-6.98317e-07
-7.58981e-07
-2.72152e-07
-5.56008e-07
-1.3984e-09
-3.2831e-07
1.06431e-07
-8.67751e-08
8.00163e-08
1.06798e-07
1.6159e-07
-2.78834e-07
4.36836e-07
-9.54358e-07
1.26035e-06
-1.91749e-06
1.85889e-06
-3.07232e-06
2.28269e-06
-4.35096e-06
2.52781e-06
-5.69758e-06
2.6703e-06
-7.07985e-06
2.72881e-06
-8.47262e-06
2.74992e-06
-9.86505e-06
2.74057e-06
-1.12469e-05
2.72162e-06
-1.26151e-05
2.69131e-06
-1.39643e-05
2.65765e-06
-1.52926e-05
2.61641e-06
-1.65951e-05
2.57054e-06
-1.78691e-05
2.51607e-06
-1.91089e-05
2.45403e-06
-2.03104e-05
2.38121e-06
-2.1467e-05
2.29776e-06
-2.25731e-05
2.2011e-06
-2.3621e-05
2.09092e-06
-2.4604e-05
1.96517e-06
-2.55134e-05
1.82341e-06
-2.63413e-05
1.66414e-06
-2.70788e-05
1.4871e-06
-2.77173e-05
1.29154e-06
-2.82479e-05
1.07771e-06
-2.86624e-05
8.45807e-07
-2.89527e-05
5.96958e-07
-2.91118e-05
3.32536e-07
-2.91336e-05
5.47573e-08
-2.90134e-05
-2.33679e-07
-2.87482e-05
-5.294e-07
-2.83367e-05
-8.28453e-07
-2.77798e-05
-1.1265e-06
-2.70807e-05
-1.41867e-06
-2.62446e-05
-1.70015e-06
-2.52793e-05
-1.96578e-06
-2.41944e-05
-2.21101e-06
-2.3002e-05
-2.43119e-06
-2.17154e-05
-2.62287e-06
-2.03494e-05
-2.78274e-06
-1.89198e-05
-2.90917e-06
-1.74428e-05
-3.0007e-06
-1.59343e-05
-3.05785e-06
-1.44103e-05
-3.08101e-06
-1.28857e-05
-3.07246e-06
-1.13747e-05
-3.03371e-06
-9.89044e-06
-2.96739e-06
-8.44597e-06
-2.87449e-06
-7.0539e-06
-2.75561e-06
-5.72843e-06
-2.60878e-06
-4.48537e-06
-2.42964e-06
-3.34439e-06
-2.2118e-06
-2.32868e-06
-1.94524e-06
-1.4654e-06
-1.62371e-06
-7.82643e-07
-1.23974e-06
-3.03855e-07
-8.07903e-07
-3.8278e-08
-3.52688e-07
3.67977e-08
3.14395e-08
1.98379e-07
-3.8506e-07
8.19542e-07
-1.26463e-06
2.1411e-06
-2.48398e-06
3.07451e-06
-3.91825e-06
3.71717e-06
-5.49357e-06
4.09967e-06
-7.14599e-06
4.32213e-06
-8.84153e-06
4.42113e-06
-1.05505e-05
4.45777e-06
-1.22603e-05
4.44741e-06
-1.39576e-05
4.41763e-06
-1.56383e-05
4.36919e-06
-1.72945e-05
4.31234e-06
-1.89234e-05
4.24283e-06
-2.05184e-05
4.16399e-06
-2.20758e-05
4.07111e-06
-2.35883e-05
3.96495e-06
-2.50506e-05
3.84142e-06
-2.64546e-05
3.7002e-06
-2.77933e-05
3.5379e-06
-2.90575e-05
3.35371e-06
-3.02389e-05
3.1449e-06
-3.13274e-05
2.91061e-06
-3.23136e-05
2.64893e-06
-3.31869e-05
2.35941e-06
-3.39377e-05
2.04122e-06
-3.45556e-05
1.69482e-06
-3.50313e-05
1.32082e-06
-3.53559e-05
9.21063e-07
-3.55216e-05
4.9794e-07
-3.55219e-05
5.49767e-08
-3.5352e-05
-4.03463e-07
-3.50089e-05
-8.72111e-07
-3.4492e-05
-1.34477e-06
-3.3803e-05
-1.81476e-06
-3.29461e-05
-2.27458e-06
-3.19281e-05
-2.7169e-06
-3.07586e-05
-3.13388e-06
-2.94493e-05
-3.51864e-06
-2.80146e-05
-3.86421e-06
-2.64701e-05
-4.16546e-06
-2.48333e-05
-4.41744e-06
-2.31225e-05
-4.61782e-06
-2.13566e-05
-4.76447e-06
-1.95539e-05
-4.85827e-06
-1.77327e-05
-4.89987e-06
-1.59102e-05
-4.89271e-06
-1.41027e-05
-4.83899e-06
-1.23251e-05
-4.74269e-06
-1.05926e-05
-4.60491e-06
-8.91955e-06
-4.42662e-06
-7.32229e-06
-4.20417e-06
-5.81866e-06
-3.93145e-06
-4.43106e-06
-3.5979e-06
-3.18475e-06
-3.19008e-06
-2.11017e-06
-2.69724e-06
-1.23687e-06
-2.11199e-06
-5.92445e-07
-1.45185e-06
-1.8794e-07
-7.56547e-07
-1.22069e-08
-1.44319e-07
1.86531e-07
-4.56361e-07
1.27555e-06
-1.48969e-06
3.17852e-06
-2.90764e-06
4.49119e-06
-4.55941e-06
5.37259e-06
-6.36305e-06
5.9031e-06
-8.24746e-06
6.2098e-06
-1.01779e-05
6.35204e-06
-1.21218e-05
6.40456e-06
-1.40662e-05
6.39277e-06
-1.5996e-05
6.35005e-06
-1.79061e-05
6.28049e-06
-1.97875e-05
6.19608e-06
-2.16364e-05
6.09302e-06
-2.34449e-05
5.97473e-06
-2.52085e-05
5.836e-06
-2.69187e-05
5.67714e-06
-2.85692e-05
5.49331e-06
-3.01508e-05
5.2836e-06
-3.16555e-05
5.04385e-06
-3.30729e-05
4.77268e-06
-3.43935e-05
4.46672e-06
-3.56062e-05
4.12468e-06
-3.67005e-05
3.74424e-06
-3.76648e-05
3.32482e-06
-3.84884e-05
2.86557e-06
-3.916e-05
2.36724e-06
-3.96696e-05
1.83099e-06
-4.00076e-05
1.25948e-06
-4.01657e-05
6.56322e-07
-4.01372e-05
2.65294e-08
-3.99171e-05
-6.23638e-07
-3.95027e-05
-1.28678e-06
-3.88938e-05
-1.95417e-06
-3.80927e-05
-2.6165e-06
-3.71048e-05
-3.26336e-06
-3.59382e-05
-3.88458e-06
-3.46039e-05
-4.46934e-06
-3.31157e-05
-5.00821e-06
-3.14897e-05
-5.49163e-06
-2.97442e-05
-5.91261e-06
-2.78988e-05
-6.26447e-06
-2.59743e-05
-6.54415e-06
-2.39918e-05
-6.74886e-06
-2.19719e-05
-6.88002e-06
-1.99351e-05
-6.93861e-06
-1.79001e-05
-6.92963e-06
-1.58849e-05
-6.85604e-06
-1.39058e-05
-6.72363e-06
-1.19789e-05
-6.53365e-06
-1.01193e-05
-6.28789e-06
-8.3443e-06
-5.98082e-06
-6.67211e-06
-5.60507e-06
-5.12606e-06
-5.14536e-06
-3.7317e-06
-4.5855e-06
-2.52089e-06
-3.90917e-06
-1.52369e-06
-3.1098e-06
-7.71015e-07
-2.20537e-06
-2.76542e-07
-1.25112e-06
-3.83499e-08
-3.8324e-07
1.48177e-07
-5.1069e-07
1.78357e-06
-1.66127e-06
4.33123e-06
-3.23009e-06
6.05589e-06
-5.04657e-06
7.19015e-06
-7.02124e-06
7.87434e-06
-9.07774e-06
8.2665e-06
-1.1181e-05
8.45228e-06
-1.32967e-05
8.51992e-06
-1.54123e-05
8.50581e-06
-1.75115e-05
8.44842e-06
-1.95889e-05
8.35557e-06
-2.16342e-05
8.24052e-06
-2.36435e-05
8.10019e-06
-2.56077e-05
7.93788e-06
-2.75216e-05
7.74801e-06
-2.93759e-05
7.53033e-06
-3.11636e-05
7.27934e-06
-3.28745e-05
6.99343e-06
-3.44999e-05
6.66776e-06
-3.60285e-05
6.30026e-06
-3.74501e-05
5.887e-06
-3.87525e-05
5.42618e-06
-3.99245e-05
4.91515e-06
-4.09536e-05
4.35314e-06
-4.18282e-05
3.73935e-06
-4.25363e-05
3.07483e-06
-4.30672e-05
2.36135e-06
-4.34106e-05
1.60249e-06
-4.35577e-05
8.0315e-07
-4.35011e-05
-3.00271e-08
-4.3236e-05
-8.88721e-07
-4.27593e-05
-1.7632e-06
-4.20711e-05
-2.64199e-06
-4.11742e-05
-3.51287e-06
-4.00747e-05
-4.3622e-06
-3.87817e-05
-5.17669e-06
-3.73079e-05
-5.94219e-06
-3.56686e-05
-6.64638e-06
-3.38822e-05
-7.27681e-06
-3.19691e-05
-7.82444e-06
-2.99515e-05
-8.28062e-06
-2.78526e-05
-8.64154e-06
-2.56962e-05
-8.9037e-06
-2.35054e-05
-9.06928e-06
-2.13026e-05
-9.13974e-06
-1.91086e-05
-9.12204e-06
-1.69429e-05
-9.02019e-06
-1.48227e-05
-8.8423e-06
-1.27648e-05
-8.59004e-06
-1.07847e-05
-8.26659e-06
-8.8995e-06
-7.86468e-06
-7.12705e-06
-7.37623e-06
-5.49025e-06
-6.78112e-06
-4.01374e-06
-6.06092e-06
-2.72918e-06
-5.19304e-06
-1.66612e-06
-4.17198e-06
-8.56916e-07
-3.01431e-06
-3.16958e-07
-1.79031e-06
-4.89688e-08
-6.51406e-07
9.97516e-08
-5.45872e-07
2.32868e-06
-1.77989e-06
5.56981e-06
-3.45953e-06
7.7335e-06
-5.39945e-06
9.13388e-06
-7.50292e-06
9.97692e-06
-9.68884e-06
1.04556e-05
-1.19213e-05
1.06846e-05
-1.41648e-05
1.07662e-05
-1.64073e-05
1.07486e-05
-1.86316e-05
1.06751e-05
-2.08327e-05
1.05574e-05
-2.29997e-05
1.04096e-05
-2.51284e-05
1.02297e-05
-2.72091e-05
1.00204e-05
-2.92362e-05
9.77606e-06
-3.11998e-05
9.4956e-06
-3.30925e-05
9.17299e-06
-3.49034e-05
8.80579e-06
-3.66232e-05
8.38849e-06
-3.824e-05
7.91829e-06
-3.97428e-05
7.39065e-06
-4.11188e-05
6.8032e-06
-4.23558e-05
6.15292e-06
-4.34406e-05
5.4388e-06
-4.43608e-05
4.66008e-06
-4.51034e-05
3.81804e-06
-4.56567e-05
2.91507e-06
-4.60095e-05
1.95564e-06
-4.61522e-05
9.46014e-07
-4.60766e-05
-1.05493e-07
-4.5777e-05
-1.18835e-06
-4.52501e-05
-2.29034e-06
-4.44954e-05
-3.39695e-06
-4.3516e-05
-4.49278e-06
-4.23182e-05
-5.56054e-06
-4.09122e-05
-6.5834e-06
-3.93118e-05
-7.5434e-06
-3.75342e-05
-8.42489e-06
-3.56e-05
-9.21203e-06
-3.35322e-05
-9.89337e-06
-3.1356e-05
-1.0458e-05
-2.90977e-05
-1.09011e-05
-2.67841e-05
-1.12185e-05
-2.44414e-05
-1.14133e-05
-2.20947e-05
-1.14877e-05
-1.9767e-05
-1.14511e-05
-1.74795e-05
-1.1309e-05
-1.52507e-05
-1.10725e-05
-1.30978e-05
-1.07442e-05
-1.10362e-05
-1.03294e-05
-9.08262e-06
-9.81936e-06
-7.25387e-06
-9.20599e-06
-5.57177e-06
-8.46421e-06
-4.05969e-06
-7.57375e-06
-2.74839e-06
-6.50519e-06
-1.66667e-06
-5.25412e-06
-8.46882e-07
-3.83484e-06
-3.04572e-07
-2.33266e-06
-4.14392e-08
-9.15332e-07
5.82999e-08
-5.72858e-07
2.89873e-06
-1.86854e-06
6.86819e-06
-3.6299e-06
9.49049e-06
-5.66135e-06
1.1167e-05
-7.86033e-06
1.21724e-05
-1.01423e-05
1.27383e-05
-1.24705e-05
1.30099e-05
-1.48089e-05
1.31047e-05
-1.71458e-05
1.3083e-05
-1.94638e-05
1.29927e-05
-2.17582e-05
1.28497e-05
-2.40178e-05
1.26686e-05
-2.62383e-05
1.24484e-05
-2.84098e-05
1.21912e-05
-3.05266e-05
1.18912e-05
-3.25782e-05
1.15465e-05
-3.45571e-05
1.11504e-05
-3.64517e-05
1.06997e-05
-3.82525e-05
1.01881e-05
-3.99469e-05
9.61192e-06
-4.15234e-05
8.96606e-06
-4.29683e-05
8.24744e-06
-4.42688e-05
7.4526e-06
-4.54107e-05
6.58012e-06
-4.63805e-05
5.6292e-06
-4.71641e-05
4.60124e-06
-4.77487e-05
3.49915e-06
-4.81215e-05
2.32821e-06
-4.82717e-05
1.09601e-06
-4.81898e-05
-1.87433e-07
-4.78689e-05
-1.50931e-06
-4.73043e-05
-2.85472e-06
-4.64952e-05
-4.20588e-06
-4.54438e-05
-5.54382e-06
-4.41567e-05
-6.84715e-06
-4.26446e-05
-8.09493e-06
-4.09225e-05
-9.26476e-06
-3.90097e-05
-1.0337e-05
-3.6929e-05
-1.12918e-05
-3.47068e-05
-1.21147e-05
-3.23717e-05
-1.2792e-05
-2.9954e-05
-1.33178e-05
-2.74843e-05
-1.3687e-05
-2.49928e-05
-1.39039e-05
-2.25078e-05
-1.39715e-05
-2.00554e-05
-1.39024e-05
-1.76589e-05
-1.37043e-05
-1.5338e-05
-1.33923e-05
-1.31108e-05
-1.29703e-05
-1.09922e-05
-1.2447e-05
-8.9982e-06
-1.18124e-05
-7.14408e-06
-1.10593e-05
-5.44993e-06
-1.01576e-05
-3.93738e-06
-9.08557e-06
-2.63529e-06
-7.80674e-06
-1.57105e-06
-6.31773e-06
-7.75106e-07
-4.63054e-06
-2.61086e-07
-2.84606e-06
-2.51466e-08
-1.15136e-06
3.36546e-08
-5.90408e-07
3.48814e-06
-1.92995e-06
8.21256e-06
-3.75109e-06
1.13092e-05
-5.85094e-06
1.32708e-05
-8.12232e-06
1.44425e-05
-1.04779e-05
1.5097e-05
-1.288e-05
1.54115e-05
-1.52921e-05
1.55194e-05
-1.77027e-05
1.54937e-05
-2.00946e-05
1.53869e-05
-2.24636e-05
1.5219e-05
-2.47983e-05
1.50052e-05
-2.70947e-05
1.47454e-05
-2.93429e-05
1.4441e-05
-3.1537e-05
1.4086e-05
-3.36666e-05
1.36775e-05
-3.57238e-05
1.32083e-05
-3.76969e-05
1.2674e-05
-3.95759e-05
1.20678e-05
-4.13479e-05
1.13849e-05
-4.30007e-05
1.06195e-05
-4.45199e-05
9.76753e-06
-4.58918e-05
8.82504e-06
-4.7101e-05
7.79003e-06
-4.81328e-05
6.66143e-06
-4.89716e-05
5.44055e-06
-4.96028e-05
4.13065e-06
-5.00119e-05
2.73767e-06
-5.01861e-05
1.27041e-06
-5.0114e-05
-2.59464e-07
-4.97865e-05
-1.83679e-06
-4.91975e-05
-3.44385e-06
-4.83443e-05
-5.05924e-06
-4.72284e-05
-6.66e-06
-4.58559e-05
-8.21999e-06
-4.42378e-05
-9.71348e-06
-4.23904e-05
-1.11127e-05
-4.03348e-05
-1.23932e-05
-3.80971e-05
-1.35302e-05
-3.57073e-05
-1.45053e-05
-3.31987e-05
-1.53014e-05
-3.06063e-05
-1.59111e-05
-2.79661e-05
-1.6328e-05
-2.5313e-05
-1.6558e-05
-2.26799e-05
-1.66053e-05
-2.00966e-05
-1.64867e-05
-1.75892e-05
-1.62126e-05
-1.51792e-05
-1.58033e-05
-1.28851e-05
-1.52652e-05
-1.07217e-05
-1.46114e-05
-8.70332e-06
-1.38315e-05
-6.84371e-06
-1.29197e-05
-5.16055e-06
-1.18413e-05
-3.67325e-06
-1.05735e-05
-2.40812e-06
-9.0724e-06
-1.3904e-06
-7.33587e-06
-6.47123e-07
-5.37429e-06
-1.87859e-07
-3.30551e-06
5.3066e-10
-1.34029e-06
3.40784e-08
-6.04956e-07
4.0902e-06
-1.97803e-06
9.58864e-06
-3.84454e-06
1.31711e-05
-5.99662e-06
1.54248e-05
-8.32366e-06
1.6766e-05
-1.07364e-05
1.75108e-05
-1.31966e-05
1.78688e-05
-1.56675e-05
1.79906e-05
-1.81379e-05
1.79618e-05
-2.0591e-05
1.78399e-05
-2.30229e-05
1.76489e-05
-2.54225e-05
1.74045e-05
-2.77861e-05
1.71074e-05
-3.01039e-05
1.67583e-05
-3.23703e-05
1.63509e-05
-3.45747e-05
1.58813e-05
-3.67092e-05
1.53416e-05
-3.87621e-05
1.47263e-05
-4.07231e-05
1.40277e-05
-4.25786e-05
1.32399e-05
-4.4316e-05
1.2356e-05
-4.59202e-05
1.13711e-05
-4.73762e-05
1.02804e-05
-4.86675e-05
9.08086e-06
-4.97777e-05
7.77105e-06
-5.06894e-05
6.35184e-06
-5.13857e-05
4.82657e-06
-5.18498e-05
3.20157e-06
-5.20663e-05
1.48668e-06
-5.2021e-05
-3.04928e-07
-5.17021e-05
-2.15572e-06
-5.11009e-05
-4.045e-06
-5.02126e-05
-5.94742e-06
-4.90369e-05
-7.83548e-06
-4.7579e-05
-9.67757e-06
-4.58499e-05
-1.14422e-05
-4.3867e-05
-1.30952e-05
-4.16538e-05
-1.46059e-05
-3.924e-05
-1.59434e-05
-3.66603e-05
-1.70844e-05
-3.39535e-05
-1.80074e-05
-3.11613e-05
-1.87027e-05
-2.83259e-05
-1.91626e-05
-2.54888e-05
-1.93944e-05
-2.26888e-05
-1.94045e-05
-1.99603e-05
-1.92145e-05
-1.73331e-05
-1.88389e-05
-1.48308e-05
-1.8305e-05
-1.24723e-05
-1.76229e-05
-1.02718e-05
-1.68113e-05
-8.24179e-06
-1.58607e-05
-6.39347e-06
-1.47675e-05
-4.74122e-06
-1.34929e-05
-3.30149e-06
-1.20129e-05
-2.09692e-06
-1.02764e-05
-1.14965e-06
-8.28284e-06
-4.81652e-07
-6.04189e-06
-9.65963e-08
-3.6903e-06
3.07046e-08
-1.46739e-06
6.50953e-08
-6.14974e-07
4.70408e-06
-2.01363e-06
1.09923e-05
-3.91562e-06
1.50704e-05
-6.10926e-06
1.76225e-05
-8.48143e-06
1.91367e-05
-1.09415e-05
1.9974e-05
-1.34506e-05
2.03772e-05
-1.59719e-05
2.05146e-05
-1.84949e-05
2.04846e-05
-2.10027e-05
2.03498e-05
-2.34921e-05
2.01385e-05
-2.59525e-05
1.98667e-05
-2.83807e-05
1.9536e-05
-3.0767e-05
1.91461e-05
-3.31061e-05
1.86905e-05
-3.53877e-05
1.81642e-05
-3.7604e-05
1.75585e-05
-3.97431e-05
1.68665e-05
-4.17945e-05
1.60797e-05
-4.37444e-05
1.51907e-05
-4.55795e-05
1.41916e-05
-4.72837e-05
1.30761e-05
-4.8841e-05
1.18381e-05
-5.02332e-05
1.04737e-05
-5.1442e-05
8.98028e-06
-5.24478e-05
7.35805e-06
-5.32309e-05
5.61003e-06
-5.37716e-05
3.74254e-06
-5.40509e-05
1.76619e-06
-5.40512e-05
-3.04559e-07
-5.3757e-05
-2.44986e-06
-5.3156e-05
-4.64593e-06
-5.22404e-05
-6.86308e-06
-5.10074e-05
-9.06869e-06
-4.94604e-05
-1.12247e-05
-4.76102e-05
-1.32927e-05
-4.54751e-05
-1.52306e-05
-4.30813e-05
-1.70002e-05
-4.04626e-05
-1.85624e-05
-3.76598e-05
-1.98878e-05
-3.47188e-05
-2.09487e-05
-3.16895e-05
-2.17327e-05
-2.86226e-05
-2.22299e-05
-2.5568e-05
-2.24498e-05
-2.2572e-05
-2.2401e-05
-1.96754e-05
-2.2112e-05
-1.6912e-05
-2.16027e-05
-1.43083e-05
-2.09095e-05
-1.18835e-05
-2.00481e-05
-9.65058e-06
-1.9045e-05
-7.61928e-06
-1.78923e-05
-5.79724e-06
-1.65903e-05
-4.19445e-06
-1.50959e-05
-2.82334e-06
-1.33846e-05
-1.70179e-06
-1.13981e-05
-8.4777e-07
-9.13745e-06
-2.76879e-07
-6.61285e-06
1.48716e-08
-3.98256e-06
6.70176e-08
-1.51962e-06
1.31831e-07
-6.24526e-07
5.3256e-06
-2.04467e-06
1.24156e-05
-3.97609e-06
1.69971e-05
-6.20434e-06
1.98528e-05
-8.61448e-06
2.15431e-05
-1.11149e-05
2.24756e-05
-1.36667e-05
2.29261e-05
-1.62331e-05
2.30814e-05
-1.88039e-05
2.3053e-05
-2.1363e-05
2.29089e-05
-2.39077e-05
2.26812e-05
-2.64278e-05
2.23866e-05
-2.89208e-05
2.20273e-05
-3.13773e-05
2.16022e-05
-3.37926e-05
2.11044e-05
-3.61565e-05
2.05276e-05
-3.84616e-05
1.98623e-05
-4.06958e-05
1.91003e-05
-4.28487e-05
1.82316e-05
-4.49061e-05
1.72475e-05
-4.6854e-05
1.61387e-05
-4.86754e-05
1.4897e-05
-5.03531e-05
1.35151e-05
-5.1867e-05
1.19872e-05
-5.31967e-05
1.03094e-05
-5.43197e-05
8.48073e-06
-5.52134e-05
6.50327e-06
-5.58539e-05
4.38289e-06
-5.62185e-05
2.13047e-06
-5.62847e-05
-2.38527e-07
-5.60325e-05
-2.70213e-06
-5.5445e-05
-5.23341e-06
-5.45101e-05
-7.79801e-06
-5.32212e-05
-1.03574e-05
-5.15795e-05
-1.28662e-05
-4.95946e-05
-1.52774e-05
-4.72856e-05
-1.75393e-05
-4.46817e-05
-1.96039e-05
-4.18217e-05
-2.14219e-05
-3.87538e-05
-2.29554e-05
-3.55329e-05
-2.4169e-05
-3.22195e-05
-2.50458e-05
-2.88752e-05
-2.55735e-05
-2.5561e-05
-2.57636e-05
-2.23328e-05
-2.56285e-05
-1.92393e-05
-2.52051e-05
-1.63201e-05
-2.45212e-05
-1.36044e-05
-2.3625e-05
-1.11116e-05
-2.25402e-05
-8.85263e-06
-2.13037e-05
-6.83294e-06
-1.99112e-05
-5.05518e-06
-1.8368e-05
-3.52321e-06
-1.66271e-05
-2.244e-06
-1.46639e-05
-1.22919e-06
-1.24122e-05
-4.91435e-07
-9.87533e-06
-3.85631e-08
-7.065e-06
1.42452e-07
-4.16381e-06
1.07471e-07
-1.48396e-06
2.39331e-07
-6.31602e-07
5.95613e-06
-2.07e-06
1.38592e-05
-4.02703e-06
1.89514e-05
-6.28577e-06
2.21158e-05
-8.72997e-06
2.39858e-05
-1.12673e-05
2.50164e-05
-1.3859e-05
2.55169e-05
-1.64682e-05
2.56934e-05
-1.90857e-05
2.56703e-05
-2.16956e-05
2.5521e-05
-2.4296e-05
2.52818e-05
-2.68775e-05
2.49699e-05
-2.9438e-05
2.45882e-05
-3.19688e-05
2.41346e-05
-3.44659e-05
2.36019e-05
-3.69193e-05
2.29823e-05
-3.9322e-05
2.22655e-05
-4.16622e-05
2.14416e-05
-4.39295e-05
2.04994e-05
-4.61092e-05
1.94282e-05
-4.81871e-05
1.8217e-05
-5.01449e-05
1.68557e-05
-5.19642e-05
1.53348e-05
-5.3623e-05
1.36466e-05
-5.50984e-05
1.17852e-05
-5.63648e-05
9.74759e-06
-5.73957e-05
7.53446e-06
-5.81629e-05
5.15048e-06
-5.86385e-05
2.60623e-06
-5.87944e-05
-8.24142e-08
-5.86047e-05
-2.89166e-06
-5.80465e-05
-5.7915e-06
-5.71018e-05
-8.74264e-06
-5.57593e-05
-1.17e-05
-5.40162e-05
-1.46094e-05
-5.18802e-05
-1.74136e-05
-4.93707e-05
-2.00489e-05
-4.65201e-05
-2.24548e-05
-4.33732e-05
-2.4569e-05
-3.99871e-05
-2.6342e-05
-3.64284e-05
-2.77279e-05
-3.27709e-05
-2.87039e-05
-2.90907e-05
-2.92539e-05
-2.54629e-05
-2.93921e-05
-2.19562e-05
-2.91354e-05
-1.86297e-05
-2.85322e-05
-1.55298e-05
-2.76212e-05
-1.26891e-05
-2.64665e-05
-1.01265e-05
-2.51028e-05
-7.84961e-06
-2.35814e-05
-5.85758e-06
-2.19032e-05
-4.1459e-06
-2.00805e-05
-2.7101e-06
-1.80628e-05
-1.54973e-06
-1.58251e-05
-6.6857e-07
-1.32931e-05
-7.27271e-08
-1.04721e-05
2.38957e-07
-7.37622e-06
2.89793e-07
-4.21564e-06
1.5384e-07
-1.34746e-06
3.92635e-07
-6.39164e-07
6.5921e-06
-2.09418e-06
1.53173e-05
-4.07425e-06
2.09265e-05
-6.36057e-06
2.44042e-05
-8.83586e-06
2.64572e-05
-1.14075e-05
2.75891e-05
-1.40367e-05
2.8143e-05
-1.66873e-05
2.83445e-05
-1.93505e-05
2.83309e-05
-2.20112e-05
2.81818e-05
-2.46685e-05
2.7937e-05
-2.73133e-05
2.76145e-05
-2.99447e-05
2.72178e-05
-3.25545e-05
2.6744e-05
-3.51393e-05
2.61853e-05
-3.769e-05
2.55324e-05
-4.01999e-05
2.47742e-05
-4.26576e-05
2.38987e-05
-4.50527e-05
2.28935e-05
-4.73705e-05
2.17455e-05
-4.95963e-05
2.04419e-05
-5.1711e-05
1.89699e-05
-5.36947e-05
1.73178e-05
-5.55234e-05
1.54749e-05
-5.71716e-05
1.34328e-05
-5.86101e-05
1.11857e-05
-5.98082e-05
8.73212e-06
-6.07325e-05
6.07453e-06
-6.1349e-05
3.22237e-06
-6.16228e-05
1.91195e-07
-6.15206e-05
-2.994e-06
-6.10118e-05
-6.30043e-06
-6.00708e-05
-9.68371e-06
-5.86794e-05
-1.30915e-05
-5.68293e-05
-1.64593e-05
-5.45251e-05
-1.97178e-05
-5.17856e-05
-2.27882e-05
-4.86463e-05
-2.5594e-05
-4.51591e-05
-2.80559e-05
-4.13921e-05
-3.01089e-05
-3.7426e-05
-3.16935e-05
-3.33519e-05
-3.27779e-05
-2.92645e-05
-3.33408e-05
-2.52573e-05
-3.33992e-05
-2.14156e-05
-3.29764e-05
-1.78122e-05
-3.21356e-05
-1.45023e-05
-3.09304e-05
-1.15224e-05
-2.94464e-05
-8.89022e-06
-2.77342e-05
-6.60788e-06
-2.58639e-05
-4.66559e-06
-2.38446e-05
-3.0485e-06
-2.16978e-05
-1.74071e-06
-1.93696e-05
-7.31807e-07
-1.68344e-05
-1.56253e-08
-1.40082e-05
4.09613e-07
-1.0898e-05
5.55217e-07
-7.52062e-06
4.55726e-07
-4.11704e-06
2.05164e-07
-1.09559e-06
5.97466e-07
-6.44677e-07
7.23584e-06
-2.11458e-06
1.67928e-05
-4.11603e-06
2.29253e-05
-6.42824e-06
2.67209e-05
-8.93323e-06
2.89608e-05
-1.1538e-05
3.01975e-05
-1.42042e-05
3.08085e-05
-1.6896e-05
3.10393e-05
-1.96055e-05
3.10403e-05
-2.23183e-05
3.08969e-05
-2.50343e-05
3.06532e-05
-2.77454e-05
3.03276e-05
-3.04515e-05
2.99243e-05
-3.31454e-05
2.94395e-05
-3.58245e-05
2.88649e-05
-3.84804e-05
2.81897e-05
-4.11072e-05
2.74015e-05
-4.3694e-05
2.64867e-05
-4.62309e-05
2.54309e-05
-4.87031e-05
2.42187e-05
-5.10957e-05
2.28349e-05
-5.33888e-05
2.12639e-05
-5.55613e-05
1.94908e-05
-5.75873e-05
1.75014e-05
-5.94383e-05
1.52842e-05
-6.10815e-05
1.28295e-05
-6.24815e-05
1.01324e-05
-6.35988e-05
7.19227e-06
-6.43923e-05
4.01618e-06
-6.4819e-05
6.18201e-07
-6.48364e-05
-2.97637e-06
-6.44041e-05
-6.7326e-06
-6.34865e-05
-1.06011e-05
-6.20565e-05
-1.45215e-05
-6.0098e-05
-1.84178e-05
-5.76104e-05
-2.22055e-05
-5.46112e-05
-2.57873e-05
-5.11389e-05
-2.90666e-05
-4.72528e-05
-3.1942e-05
-4.30339e-05
-3.43282e-05
-3.85801e-05
-3.61472e-05
-3.40037e-05
-3.73548e-05
-2.94223e-05
-3.79222e-05
-2.49534e-05
-3.78687e-05
-2.07043e-05
-3.72255e-05
-1.67659e-05
-3.60747e-05
-1.32056e-05
-3.44906e-05
-1.00655e-05
-3.25873e-05
-7.3614e-06
-3.04381e-05
-5.0875e-06
-2.81387e-05
-3.22131e-06
-2.57104e-05
-1.73328e-06
-2.31869e-05
-5.91859e-07
-2.05104e-05
2.26836e-07
-1.76543e-05
7.41542e-07
-1.45221e-05
9.63437e-07
-1.11212e-05
9.15065e-07
-7.47115e-06
6.4292e-07
-3.84655e-06
2.62594e-07
-7.13918e-07
8.59176e-07
-6.50834e-07
7.8832e-06
-2.13429e-06
1.82792e-05
-4.15511e-06
2.49409e-05
-6.4911e-06
2.90588e-05
-9.0237e-06
3.14892e-05
-1.16598e-05
3.28345e-05
-1.43615e-05
3.35069e-05
-1.70937e-05
3.37717e-05
-1.9849e-05
3.37929e-05
-2.26142e-05
3.3662e-05
-2.53901e-05
3.34268e-05
-2.81696e-05
3.31067e-05
-3.09536e-05
3.27065e-05
-3.3736e-05
3.22213e-05
-3.65152e-05
3.16425e-05
-3.92838e-05
3.09577e-05
-4.20369e-05
3.01533e-05
-4.47644e-05
2.92135e-05
-4.74569e-05
2.81222e-05
-5.01e-05
2.68613e-05
-5.26789e-05
2.54128e-05
-5.51732e-05
2.37576e-05
-5.75606e-05
2.18774e-05
-5.98135e-05
1.97538e-05
-6.19006e-05
1.73708e-05
-6.37854e-05
1.47138e-05
-6.54269e-05
1.17735e-05
-6.67795e-05
8.54444e-06
-6.77936e-05
5.02992e-06
-6.84167e-05
1.24096e-06
-6.85951e-05
-2.79825e-06
-6.82763e-05
-7.05159e-06
-6.74126e-05
-1.1465e-05
-6.59648e-05
-1.59694e-05
-6.39072e-05
-2.04754e-05
-6.12326e-05
-2.48803e-05
-5.79556e-05
-2.90642e-05
-5.41174e-05
-3.2905e-05
-4.97846e-05
-3.62744e-05
-4.50514e-05
-3.90616e-05
-4.00333e-05
-4.11648e-05
-3.48655e-05
-4.25228e-05
-2.96921e-05
-4.30951e-05
-2.46601e-05
-4.29008e-05
-1.99059e-05
-4.1979e-05
-1.55468e-05
-4.04341e-05
-1.16693e-05
-3.83671e-05
-8.32601e-06
-3.5931e-05
-5.53202e-06
-3.3231e-05
-3.27184e-06
-3.03995e-05
-1.50562e-06
-2.74755e-05
-1.83004e-07
-2.45102e-05
7.49371e-07
-2.14415e-05
1.33421e-06
-1.82401e-05
1.60666e-06
-1.4793e-05
1.58943e-06
-1.11052e-05
1.31754e-06
-7.19743e-06
8.49905e-07
-3.38061e-06
3.25105e-07
-1.86995e-07
1.1835e-06
-6.54482e-07
8.53701e-06
-2.1496e-06
1.97802e-05
-4.18813e-06
2.6977e-05
-6.54638e-06
3.14219e-05
-9.10536e-06
3.4047e-05
-1.17719e-05
3.5505e-05
-1.45084e-05
3.6243e-05
-1.72806e-05
3.65471e-05
-2.0082e-05
3.65944e-05
-2.29002e-05
3.64828e-05
-2.57372e-05
3.62642e-05
-2.85869e-05
3.59587e-05
-3.14517e-05
3.55718e-05
-3.43264e-05
3.50979e-05
-3.72109e-05
3.45277e-05
-4.0099e-05
3.38473e-05
-4.29869e-05
3.30419e-05
-4.58657e-05
3.20936e-05
-4.87271e-05
3.09842e-05
-5.15574e-05
2.96927e-05
-5.43421e-05
2.81981e-05
-5.70609e-05
2.64773e-05
-5.96909e-05
2.4508e-05
-6.22027e-05
2.22664e-05
-6.45628e-05
1.97314e-05
-6.67305e-05
1.68822e-05
-6.86599e-05
1.37034e-05
-7.02979e-05
1.0183e-05
-7.1586e-05
6.31846e-06
-7.24605e-05
2.1158e-06
-7.28547e-05
-2.40362e-06
-7.27023e-05
-7.20377e-06
-7.19411e-05
-1.22259e-05
-7.05191e-05
-1.73913e-05
-6.84003e-05
-2.2594e-05
-6.5571e-05
-2.77095e-05
-6.20436e-05
-3.25914e-05
-5.78601e-05
-3.70886e-05
-5.30911e-05
-4.10433e-05
-4.78368e-05
-4.43162e-05
-4.22228e-05
-4.67787e-05
-3.64001e-05
-4.8346e-05
-3.05366e-05
-4.89583e-05
-2.48124e-05
-4.86256e-05
-1.94034e-05
-4.73877e-05
-1.44689e-05
-4.53695e-05
-1.0132e-05
-4.27035e-05
-6.47034e-06
-3.95936e-05
-3.50773e-06
-3.61929e-05
-1.22067e-06
-3.26877e-05
4.52223e-07
-2.91475e-05
1.59072e-06
-2.56501e-05
2.27977e-06
-2.21294e-05
2.58996e-06
-1.85519e-05
2.5796e-06
-1.47812e-05
2.28702e-06
-1.08146e-05
1.76185e-06
-6.67039e-06
1.07611e-06
-2.69735e-06
3.92638e-07
4.98759e-07
1.57481e-06
-6.58645e-07
9.19179e-06
-2.16332e-06
2.12875e-05
-4.21664e-06
2.90246e-05
-6.59413e-06
3.38009e-05
-9.17652e-06
3.66248e-05
-1.18707e-05
3.81997e-05
-1.46397e-05
3.90083e-05
-1.74497e-05
3.93571e-05
-2.02956e-05
3.94371e-05
-2.31657e-05
3.93525e-05
-2.60634e-05
3.91593e-05
-2.89839e-05
3.88785e-05
-3.19308e-05
3.85165e-05
-3.49004e-05
3.80667e-05
-3.78942e-05
3.75196e-05
-4.09073e-05
3.68596e-05
-4.39376e-05
3.60708e-05
-4.69778e-05
3.5133e-05
-5.00208e-05
3.40259e-05
-5.30543e-05
3.27255e-05
-5.60646e-05
3.12074e-05
-5.90321e-05
2.94442e-05
-6.19337e-05
2.74086e-05
-6.4739e-05
2.50711e-05
-6.74126e-05
2.24041e-05
-6.99102e-05
1.93793e-05
-7.21806e-05
1.59731e-05
-7.41633e-05
1.21652e-05
-7.57903e-05
7.94489e-06
-7.69858e-05
3.31086e-06
-7.76699e-05
-1.71993e-06
-7.77622e-05
-7.11185e-06
-7.71884e-05
-1.28e-05
-7.58881e-05
-1.8692e-05
-7.38211e-05
-2.4661e-05
-7.0974e-05
-3.0557e-05
-6.73588e-05
-3.62065e-05
-6.30138e-05
-4.14341e-05
-5.79969e-05
-4.606e-05
-5.23895e-05
-4.9924e-05
-4.62953e-05
-5.28726e-05
-3.98521e-05
-5.47896e-05
-3.32319e-05
-5.55781e-05
-2.66451e-05
-5.5213e-05
-2.03224e-05
-5.37096e-05
-1.44974e-05
-5.11951e-05
-9.3705e-06
-4.78293e-05
-5.08461e-06
-4.38803e-05
-1.70276e-06
-3.95735e-05
7.91384e-07
-3.51828e-05
2.48054e-06
-3.08351e-05
3.48559e-06
-2.66564e-05
3.93978e-06
-2.25818e-05
3.95902e-06
-1.85727e-05
3.63868e-06
-1.44587e-05
3.04209e-06
-1.02201e-05
2.23882e-06
-5.86453e-06
1.31619e-06
-1.77736e-06
4.63077e-07
1.35496e-06
2.03659e-06
-6.59349e-07
9.8509e-06
-2.17076e-06
2.28053e-05
-4.23628e-06
3.10882e-05
-6.63058e-06
3.62006e-05
-9.23421e-06
3.92277e-05
-1.19541e-05
4.0924e-05
-1.47537e-05
4.1808e-05
-1.76001e-05
4.22072e-05
-2.04889e-05
4.23265e-05
-2.34099e-05
4.22765e-05
-2.63675e-05
4.21177e-05
-2.93585e-05
4.1872e-05
-3.23878e-05
4.15468e-05
-3.54536e-05
4.11347e-05
-3.8559e-05
4.06259e-05
-4.1701e-05
4.00034e-05
-4.48796e-05
3.92503e-05
-4.80892e-05
3.83441e-05
-5.13248e-05
3.72625e-05
-5.45761e-05
3.59779e-05
-5.78308e-05
3.4463e-05
-6.10707e-05
3.26851e-05
-6.42733e-05
3.0612e-05
-6.74084e-05
2.82071e-05
-7.0439e-05
2.54354e-05
-7.33184e-05
2.22594e-05
-7.59904e-05
1.86458e-05
-7.83879e-05
1.45634e-05
-8.04337e-05
9.99125e-06
-8.20416e-05
4.91931e-06
-8.31217e-05
-6.39296e-07
-8.35875e-05
-6.64567e-06
-8.33659e-05
-1.30211e-05
-8.24075e-05
-1.96502e-05
-8.06905e-05
-2.63777e-05
-7.82185e-05
-3.30291e-05
-7.5006e-05
-3.94188e-05
-7.10658e-05
-4.53745e-05
-6.63966e-05
-5.07291e-05
-6.09919e-05
-5.53293e-05
-5.48569e-05
-5.90076e-05
-4.80452e-05
-6.16022e-05
-4.06837e-05
-6.29394e-05
-3.29969e-05
-6.2901e-05
-2.52923e-05
-6.14139e-05
-1.79361e-05
-5.85528e-05
-1.12888e-05
-5.44758e-05
-5.65014e-06
-4.95205e-05
-1.2004e-06
-4.40221e-05
2.01928e-06
-3.84042e-05
4.09609e-06
-3.29104e-05
5.20438e-06
-2.77666e-05
5.55426e-06
-2.29299e-05
5.34111e-06
-1.83619e-05
4.7272e-06
-1.38426e-05
3.82284e-06
-9.31841e-06
2.73124e-06
-4.77021e-06
1.56209e-06
-6.11645e-07
5.34161e-07
2.38622e-06
2.56891e-06
-6.60457e-07
1.05069e-05
-2.17531e-06
2.43222e-05
-4.2485e-06
3.31551e-05
-6.65489e-06
3.8608e-05
-9.275e-06
4.18427e-05
-1.20159e-05
4.36649e-05
-1.48418e-05
4.46295e-05
-1.77205e-05
4.50852e-05
-2.06485e-05
4.52509e-05
-2.36169e-05
4.52439e-05
-2.66315e-05
4.51293e-05
-2.96905e-05
4.49299e-05
-3.28008e-05
4.46545e-05
-3.59622e-05
4.42949e-05
-3.91799e-05
4.38414e-05
-4.24531e-05
4.32755e-05
-4.57841e-05
4.25795e-05
-4.91698e-05
4.17287e-05
-5.26078e-05
4.06989e-05
-5.60902e-05
3.94593e-05
-5.96075e-05
3.79789e-05
-6.31433e-05
3.622e-05
-6.66772e-05
3.41448e-05
-7.01798e-05
3.1709e-05
-7.36144e-05