/*--------------------------------*- C++ -*----------------------------------*\
| =========                 |                                                 |
| \\      /  F ield         | OpenFOAM: The Open Source CFD Toolbox           |
|  \\    /   O peration     | Version:  2406                                  |
|   \\  /    A nd           | Website:  www.openfoam.com                      |
|    \\/     M anipulation  |                                                 |
\*---------------------------------------------------------------------------*/
FoamFile
{
    version     2.0;
    format      ascii;
    arch        "LSB;label=32;scalar=64";
    class       volVectorField;
    location    "47.75";
    object      U;
}
// * * * * * * * * * * * * * * * * * * * * * * * * * * * * * * * * * * * * * //

dimensions      [0 1 -1 0 0 0 0];

internalField   nonuniform List<vector> 
14400
(
(-1.91473e-05 1.91054e-05 0)
(-4.00045e-06 -1.06776e-05 0)
(0.000107445 -4.383e-05 0)
(0.000302112 -7.35654e-05 0)
(0.000568238 -9.14669e-05 0)
(0.000871083 -0.00010152 0)
(0.00119442 -0.000102642 0)
(0.00151057 -9.80054e-05 0)
(0.00180776 -8.81706e-05 0)
(0.00206979 -7.56248e-05 0)
(0.00229237 -6.14697e-05 0)
(0.00247047 -4.75303e-05 0)
(0.00260697 -3.47085e-05 0)
(0.00270487 -2.40092e-05 0)
(0.00277135 -1.57645e-05 0)
(0.00281301 -1.01793e-05 0)
(0.00283757 -7.00284e-06 0)
(0.00285108 -5.8487e-06 0)
(0.00285867 -6.08577e-06 0)
(0.00286315 -7.04552e-06 0)
(0.00286551 -8.01247e-06 0)
(0.00286446 -8.35957e-06 0)
(0.00285708 -7.55921e-06 0)
(0.00283887 -5.24471e-06 0)
(0.00280442 -1.18962e-06 0)
(0.00274767 4.7019e-06 0)
(0.00266233 1.2449e-05 0)
(0.00254197 2.20342e-05 0)
(0.00238018 3.3449e-05 0)
(0.00217049 4.67139e-05 0)
(0.00190636 6.18863e-05 0)
(0.00158107 7.90483e-05 0)
(0.00118777 9.82882e-05 0)
(0.000719495 0.000119678 0)
(0.000169308 0.000143254 0)
(-0.000469548 0.000169001 0)
(-0.00120344 0.000196843 0)
(-0.00203811 0.000226636 0)
(-0.00297841 0.000258159 0)
(-0.00402807 0.000291118 0)
(-0.00518941 0.000325138 0)
(-0.00646312 0.000359766 0)
(-0.00784798 0.000394479 0)
(-0.00934072 0.000428685 0)
(-0.0109358 0.000461732 0)
(-0.0126253 0.000492922 0)
(-0.014399 0.000521524 0)
(-0.016244 0.000546783 0)
(-0.0181451 0.000567935 0)
(-0.0200849 0.000584224 0)
(-0.0220438 0.000594909 0)
(-0.0239999 0.000599278 0)
(-0.0259301 0.000596657 0)
(-0.0278094 0.000586421 0)
(-0.0296116 0.000568002 0)
(-0.0313098 0.000540905 0)
(-0.0328765 0.00050472 0)
(-0.034284 0.000459142 0)
(-0.0355049 0.000403988 0)
(-0.0365123 0.000339229 0)
(-0.0372807 0.000265013 0)
(-0.0377862 0.000181694 0)
(-0.0380071 8.98661e-05 0)
(-0.0379246 -9.61085e-06 0)
(-0.0375234 -0.000115586 0)
(-0.0367923 -0.000226603 0)
(-0.0357249 -0.000340887 0)
(-0.0343202 -0.00045636 0)
(-0.0325832 -0.000570661 0)
(-0.0305254 -0.00068119 0)
(-0.028165 -0.000785175 0)
(-0.0255276 -0.000879758 0)
(-0.0226452 -0.000962104 0)
(-0.0195571 -0.00102953 0)
(-0.0163084 -0.00107962 0)
(-0.0129495 -0.00111042 0)
(-0.00953504 -0.00112048 0)
(-0.00612225 -0.00110906 0)
(-0.00276947 -0.00107617 0)
(0.000465767 -0.00102261 0)
(0.00352862 -0.000949991 0)
(0.00636882 -0.000860685 0)
(0.00894243 -0.0007577 0)
(0.0112133 -0.000644545 0)
(0.0131545 -0.000525037 0)
(0.0147487 -0.000403098 0)
(0.0159887 -0.000282544 0)
(0.0168774 -0.000166887 0)
(0.0174271 -5.91683e-05 0)
(0.0176582 3.81598e-05 0)
(0.0175983 0.00012331 0)
(0.0172803 0.000195178 0)
(0.0167407 0.000253319 0)
(0.0160181 0.000297879 0)
(0.0151515 0.00032951 0)
(0.0141785 0.000349252 0)
(0.0131347 0.000358433 0)
(0.0120521 0.000358547 0)
(0.0109589 0.000351171 0)
(0.00987895 0.000337859 0)
(0.0088314 0.000320104 0)
(0.0078313 0.000299249 0)
(0.00688937 0.000276508 0)
(0.0060129 0.000252876 0)
(0.00520555 0.000229232 0)
(0.00446881 0.000206205 0)
(0.00380117 0.000184392 0)
(0.00320037 0.000164098 0)
(0.00266147 0.000145722 0)
(0.00218046 0.000129234 0)
(0.0017506 0.00011487 0)
(0.00136843 0.000102069 0)
(0.00102748 9.08294e-05 0)
(0.000728167 7.96272e-05 0)
(0.000467264 6.82155e-05 0)
(0.000252855 5.35912e-05 0)
(8.79063e-05 3.62184e-05 0)
(-1.30063e-05 1.25318e-05 0)
(-4.62192e-05 -9.31654e-06 0)
(-2.23954e-05 -2.19317e-05 0)
(9.36456e-06 4.73602e-06 0)
(0.000154358 -0.000157932 0)
(0.000499356 -0.000326266 0)
(0.00100563 -0.000476509 0)
(0.0016571 -0.000576272 0)
(0.00238738 -0.000633209 0)
(0.00316068 -0.000643809 0)
(0.00392028 -0.000619055 0)
(0.00463622 -0.000564239 0)
(0.0052734 -0.000490544 0)
(0.00581777 -0.000405706 0)
(0.00625696 -0.000318949 0)
(0.00659324 -0.000236494 0)
(0.00683138 -0.000163804 0)
(0.0069841 -0.0001036 0)
(0.00706426 -5.71143e-05 0)
(0.00708671 -2.34298e-05 0)
(0.00706341 -3.74952e-07 0)
(0.00700399 1.54699e-05 0)
(0.00691321 2.80388e-05 0)
(0.00679151 4.15029e-05 0)
(0.00663424 5.97142e-05 0)
(0.00643269 8.59671e-05 0)
(0.00617446 0.000122742 0)
(0.00584468 0.000171716 0)
(0.00542667 0.000233831 0)
(0.00490289 0.000309521 0)
(0.00425529 0.000398922 0)
(0.00346576 0.000502081 0)
(0.00251616 0.000619058 0)
(0.00138851 0.000749966 0)
(6.50135e-05 0.0008949 0)
(-0.00147164 0.00105384 0)
(-0.00323801 0.00122654 0)
(-0.00524934 0.00141241 0)
(-0.00751905 0.00161041 0)
(-0.0100581 0.00181903 0)
(-0.0128741 0.00203625 0)
(-0.015971 0.0022595 0)
(-0.0193482 0.00248571 0)
(-0.0229998 0.00271133 0)
(-0.0269145 0.00293234 0)
(-0.0310753 0.00314442 0)
(-0.0354588 0.00334294 0)
(-0.0400358 0.00352312 0)
(-0.044771 0.00368016 0)
(-0.0496237 0.00380932 0)
(-0.0545484 0.00390603 0)
(-0.0594949 0.00396605 0)
(-0.0644098 0.00398553 0)
(-0.0692367 0.00396106 0)
(-0.0739176 0.00388981 0)
(-0.0783937 0.0037695 0)
(-0.0826059 0.00359851 0)
(-0.0864962 0.00337586 0)
(-0.0900085 0.00310127 0)
(-0.0930887 0.00277517 0)
(-0.0956864 0.00239872 0)
(-0.0977548 0.00197385 0)
(-0.0992516 0.0015033 0)
(-0.10014 0.000990639 0)
(-0.100388 0.000440327 0)
(-0.0999716 -0.000142256 0)
(-0.0988721 -0.000750767 0)
(-0.0970791 -0.00137788 0)
(-0.0945901 -0.00201529 0)
(-0.0914112 -0.00265375 0)
(-0.0875578 -0.0032831 0)
(-0.0830547 -0.00389247 0)
(-0.0779365 -0.00447036 0)
(-0.0722479 -0.00500497 0)
(-0.0660438 -0.00548443 0)
(-0.0593885 -0.00589722 0)
(-0.0523562 -0.00623253 0)
(-0.045029 -0.00648075 0)
(-0.037497 -0.00663392 0)
(-0.029856 -0.00668617 0)
(-0.0222062 -0.00663413 0)
(-0.0146499 -0.00647729 0)
(-0.0072894 -0.00621817 0)
(-0.000224573 -0.00586248 0)
(0.00644998 -0.00541897 0)
(0.0126473 -0.00489927 0)
(0.0182906 -0.00431744 0)
(0.0233153 -0.00368946 0)
(0.0276712 -0.00303256 0)
(0.0313238 -0.00236445 0)
(0.0342549 -0.00170263 0)
(0.0364634 -0.00106354 0)
(0.0379647 -0.000461997 0)
(0.0387895 8.9453e-05 0)
(0.0389828 0.000580907 0)
(0.0386016 0.00100537 0)
(0.0377121 0.00135884 0)
(0.0363872 0.0016402 0)
(0.0347037 0.001851 0)
(0.0327389 0.00199507 0)
(0.0305682 0.00207809 0)
(0.0282626 0.00210712 0)
(0.0258869 0.00209 0)
(0.0234976 0.002035 0)
(0.0211432 0.00195026 0)
(0.0188624 0.00184357 0)
(0.0166855 0.00172199 0)
(0.014634 0.00159188 0)
(0.0127223 0.00145848 0)
(0.0109568 0.00132642 0)
(0.0093402 0.00119899 0)
(0.00786823 0.00107908 0)
(0.00653634 0.000967842 0)
(0.00533427 0.00086637 0)
(0.00425637 0.000772874 0)
(0.00329179 0.000686281 0)
(0.00244129 0.00060054 0)
(0.00169951 0.000512885 0)
(0.00108063 0.000412541 0)
(0.000587191 0.000300595 0)
(0.000243733 0.000167471 0)
(4.61223e-05 4.35308e-05 0)
(-9.52972e-06 -4.61886e-05 0)
(3.93179e-05 -0.000100975 0)
(0.000311728 -0.00049956 0)
(0.000871501 -0.000890952 0)
(0.00163625 -0.00123023 0)
(0.00258829 -0.00146265 0)
(0.00363628 -0.00159295 0)
(0.00473428 -0.001617 0)
(0.0058067 -0.00155421 0)
(0.00681268 -0.00141918 0)
(0.00770472 -0.00123558 0)
(0.00846191 -0.00102296 0)
(0.00906618 -0.000802062 0)
(0.00951792 -0.000588527 0)
(0.00982141 -0.000395068 0)
(0.00999091 -0.000228828 0)
(0.0100413 -9.27642e-05 0)
(0.00998983 1.49349e-05 0)
(0.00984989 9.95026e-05 0)
(0.00963153 0.000169075 0)
(0.00933817 0.000233292 0)
(0.00896709 0.000302359 0)
(0.00850855 0.000385868 0)
(0.00794704 0.000492079 0)
(0.00726188 0.000627362 0)
(0.00642885 0.000796128 0)
(0.00542116 0.001001 0)
(0.00421077 0.00124325 0)
(0.00276909 0.00152331 0)
(0.00106764 0.00184114 0)
(-0.000921545 0.00219648 0)
(-0.00322546 0.00258887 0)
(-0.00586964 0.00301752 0)
(-0.0088775 0.00348102 0)
(-0.0122695 0.00397707 0)
(-0.0160622 0.00450228 0)
(-0.0202671 0.00505191 0)
(-0.0248896 0.00561989 0)
(-0.0299282 0.00619869 0)
(-0.035373 0.00677947 0)
(-0.0412058 0.00735219 0)
(-0.0473988 0.00790579 0)
(-0.0539151 0.00842848 0)
(-0.0607088 0.00890806 0)
(-0.0677253 0.00933221 0)
(-0.0749024 0.00968894 0)
(-0.0821714 0.00996686 0)
(-0.0894585 0.0101556 0)
(-0.0966864 0.0102459 0)
(-0.103776 0.0102303 0)
(-0.110647 0.0101026 0)
(-0.117222 0.00985849 0)
(-0.123423 0.0094955 0)
(-0.12918 0.00901278 0)
(-0.134423 0.00841119 0)
(-0.13909 0.00769316 0)
(-0.143124 0.00686263 0)
(-0.146474 0.00592493 0)
(-0.149095 0.0048867 0)
(-0.150949 0.00375587 0)
(-0.152006 0.00254164 0)
(-0.152241 0.00125446 0)
(-0.151636 -9.39675e-05 0)
(-0.15018 -0.00149058 0)
(-0.147871 -0.00292099 0)
(-0.144711 -0.00436941 0)
(-0.140712 -0.00581868 0)
(-0.135894 -0.00725032 0)
(-0.130284 -0.00864461 0)
(-0.123917 -0.00998077 0)
(-0.116838 -0.0112373 0)
(-0.109101 -0.0123921 0)
(-0.100768 -0.0134235 0)
(-0.0919096 -0.01431 0)
(-0.0826072 -0.0150319 0)
(-0.0729487 -0.015571 0)
(-0.0630303 -0.0159124 0)
(-0.0529542 -0.0160444 0)
(-0.0428283 -0.0159599 0)
(-0.0327636 -0.0156563 0)
(-0.0228729 -0.0151369 0)
(-0.0132685 -0.0144104 0)
(-0.0040597 -0.0134911 0)
(0.00464945 -0.012399 0)
(0.0127626 -0.011159 0)
(0.0201937 -0.00980028 0)
(0.0268687 -0.00835523 0)
(0.032728 -0.0068584 0)
(0.037728 -0.00534524 0)
(0.0418419 -0.00385073 0)
(0.045061 -0.00240811 0)
(0.0473946 -0.00104769 0)
(0.0488697 0.000204254 0)
(0.0495302 0.00132634 0)
(0.0494353 0.00230273 0)
(0.0486575 0.00312346 0)
(0.0472796 0.00378455 0)
(0.0453919 0.00428768 0)
(0.0430886 0.0046397 0)
(0.0404646 0.00485186 0)
(0.0376118 0.00493876 0)
(0.0346163 0.0049174 0)
(0.0315565 0.00480595 0)
(0.0285 0.00462296 0)
(0.0255042 0.00438624 0)
(0.0226142 0.00411252 0)
(0.0198647 0.00381655 0)
(0.0172789 0.00351137 0)
(0.0148721 0.00320731 0)
(0.0126493 0.00291295 0)
(0.0106127 0.00263324 0)
(0.00875539 0.00237156 0)
(0.00707486 0.00212585 0)
(0.00556021 0.00189336 0)
(0.00421462 0.00166298 0)
(0.00303089 0.00142717 0)
(0.00202812 0.00116691 0)
(0.0012046 0.000881765 0)
(0.000596406 0.000558897 0)
(0.000190677 0.000248228 0)
(1.66261e-05 -7.10346e-06 0)
(6.56946e-05 -0.000282091 0)
(0.000452973 -0.000994047 0)
(0.00119904 -0.00165259 0)
(0.00217364 -0.00220235 0)
(0.00335637 -0.00257773 0)
(0.00463366 -0.00278078 0)
(0.005955 -0.00280897 0)
(0.00723149 -0.00269023 0)
(0.00841702 -0.00245002 0)
(0.009456 -0.00212561 0)
(0.0103238 -0.00174991 0)
(0.0109983 -0.00135651 0)
(0.011478 -0.000971629 0)
(0.0117654 -0.000616085 0)
(0.0118741 -0.000301908 0)
(0.0118177 -3.38391e-05 0)
(0.0116122 0.000191212 0)
(0.0112688 0.000382301 0)
(0.0107943 0.000553351 0)
(0.0101875 0.000720956 0)
(0.0094399 0.000902653 0)
(0.00853454 0.00111499 0)
(0.00744771 0.00137222 0)
(0.00614977 0.0016854 0)
(0.00460706 0.00206217 0)
(0.00278322 0.00250709 0)
(0.000640808 0.00302223 0)
(-0.00185768 0.00360795 0)
(-0.00474872 0.00426345 0)
(-0.00806692 0.00498709 0)
(-0.011844 0.00577629 0)
(-0.0161078 0.00662727 0)
(-0.0208809 0.0075346 0)
(-0.0261789 0.00849081 0)
(-0.0320097 0.00948599 0)
(-0.0383712 0.0105077 0)
(-0.0452505 0.011541 0)
(-0.052623 0.0125685 0)
(-0.0604514 0.0135708 0)
(-0.0686863 0.0145272 0)
(-0.0772662 0.0154159 0)
(-0.0861189 0.016215 0)
(-0.0951629 0.0169034 0)
(-0.10431 0.0174609 0)
(-0.113466 0.0178697 0)
(-0.122535 0.0181143 0)
(-0.131423 0.0181823 0)
(-0.140034 0.0180646 0)
(-0.14828 0.0177553 0)
(-0.156078 0.0172517 0)
(-0.16335 0.0165545 0)
(-0.170028 0.0156668 0)
(-0.17605 0.0145943 0)
(-0.181363 0.0133449 0)
(-0.185921 0.0119281 0)
(-0.189687 0.0103551 0)
(-0.19263 0.00863815 0)
(-0.194724 0.00679073 0)
(-0.195952 0.0048273 0)
(-0.196298 0.00276335 0)
(-0.195757 0.000615397 0)
(-0.194323 -0.00159888 0)
(-0.191999 -0.00386058 0)
(-0.188791 -0.00614939 0)
(-0.18471 -0.00844354 0)
(-0.179771 -0.0107196 0)
(-0.173997 -0.0129527 0)
(-0.167416 -0.0151162 0)
(-0.16006 -0.0171823 0)
(-0.151972 -0.0191217 0)
(-0.143198 -0.0209048 0)
(-0.133796 -0.0225015 0)
(-0.12383 -0.0238826 0)
(-0.113372 -0.0250199 0)
(-0.102503 -0.0258879 0)
(-0.0913128 -0.0264644 0)
(-0.0798974 -0.0267317 0)
(-0.0683595 -0.0266775 0)
(-0.056807 -0.026296 0)
(-0.0453511 -0.0255886 0)
(-0.0341048 -0.0245645 0)
(-0.0231801 -0.0232404 0)
(-0.0126868 -0.0216412 0)
(-0.00272927 -0.0197988 0)
(0.00659542 -0.0177514 0)
(0.0151995 -0.0155429 0)
(0.0230066 -0.0132208 0)
(0.0299532 -0.0108353 0)
(0.0359907 -0.00843725 0)
(0.0410856 -0.00607684 0)
(0.0452212 -0.00380179 0)
(0.048398 -0.00165584 0)
(0.0506336 0.000322592 0)
(0.0519629 0.00210164 0)
(0.052437 0.00365701 0)
(0.0521223 0.00497262 0)
(0.0510981 0.00604094 0)
(0.0494543 0.00686289 0)
(0.047288 0.00744733 0)
(0.0447004 0.00781004 0)
(0.0417924 0.00797257 0)
(0.0386617 0.0079605 0)
(0.0353988 0.00780202 0)
(0.0320855 0.00752609 0)
(0.0287915 0.00716134 0)
(0.0255753 0.00673438 0)
(0.0224813 0.0062696 0)
(0.0195441 0.00578746 0)
(0.0167845 0.00530523 0)
(0.0142179 0.00483453 0)
(0.0118472 0.00438342 0)
(0.00967823 0.00395173 0)
(0.00770413 0.00353647 0)
(0.00593377 0.0031231 0)
(0.00435907 0.00269975 0)
(0.00300516 0.0022405 0)
(0.00186482 0.00174118 0)
(0.000988773 0.00118463 0)
(0.000357476 0.000626798 0)
(4.76927e-05 0.000115751 0)
(8.24335e-05 -0.000531042 0)
(0.000556802 -0.00163633 0)
(0.001452 -0.00261029 0)
(0.00259308 -0.00339412 0)
(0.00395315 -0.00392025 0)
(0.00539583 -0.00418963 0)
(0.00686616 -0.00420498 0)
(0.0082639 -0.00400403 0)
(0.00954021 -0.00362557 0)
(0.0106342 -0.00312198 0)
(0.0115199 -0.00254135 0)
(0.0121728 -0.00193118 0)
(0.0125906 -0.00132923 0)
(0.0127741 -0.00076474 0)
(0.0127351 -0.000254617 0)
(0.0124844 0.000195141 0)
(0.0120342 0.000589756 0)
(0.0113909 0.000943298 0)
(0.0105548 0.00127683 0)
(0.00951741 0.00161531 0)
(0.00826159 0.0019849 0)
(0.00676115 0.00241015 0)
(0.00498275 0.00291204 0)
(0.00288709 0.00350666 0)
(0.000431262 0.0042049 0)
(-0.00242958 0.00501283 0)
(-0.00574025 0.0059326 0)
(-0.00954404 0.00696333 0)
(-0.0138812 0.00810178 0)
(-0.0187873 0.00934263 0)
(-0.0242917 0.0106783 0)
(-0.0304156 0.0120983 0)
(-0.0371703 0.013589 0)
(-0.0445549 0.0151329 0)
(-0.0525551 0.0167086 0)
(-0.0611416 0.0182907 0)
(-0.0702697 0.0198505 0)
(-0.079879 0.0213567 0)
(-0.0898947 0.022776 0)
(-0.100229 0.024075 0)
(-0.110784 0.0252209 0)
(-0.121454 0.026183 0)
(-0.132129 0.0269338 0)
(-0.142699 0.0274503 0)
(-0.153057 0.0277143 0)
(-0.1631 0.0277126 0)
(-0.172735 0.0274379 0)
(-0.181876 0.0268875 0)
(-0.190447 0.0260639 0)
(-0.198386 0.0249731 0)
(-0.205636 0.0236248 0)
(-0.212154 0.0220313 0)
(-0.217902 0.020207 0)
(-0.222853 0.0181677 0)
(-0.226984 0.0159301 0)
(-0.230279 0.0135117 0)
(-0.232725 0.0109305 0)
(-0.234313 0.00820485 0)
(-0.235039 0.00535358 0)
(-0.234899 0.00239602 0)
(-0.233891 -0.000647731 0)
(-0.232017 -0.00375658 0)
(-0.22928 -0.00690818 0)
(-0.225686 -0.0100787 0)
(-0.221241 -0.0132423 0)
(-0.215957 -0.0163714 0)
(-0.209848 -0.0194361 0)
(-0.202933 -0.0224043 0)
(-0.195236 -0.0252419 0)
(-0.186787 -0.0279128 0)
(-0.177622 -0.0303797 0)
(-0.167787 -0.0326045 0)
(-0.157333 -0.0345491 0)
(-0.146324 -0.0361768 0)
(-0.134829 -0.0374531 0)
(-0.122928 -0.0383473 0)
(-0.110712 -0.0388341 0)
(-0.0982762 -0.0388944 0)
(-0.0857254 -0.0385173 0)
(-0.0731691 -0.0377006 0)
(-0.0607202 -0.0364522 0)
(-0.0484933 -0.0347898 0)
(-0.0366015 -0.0327412 0)
(-0.025155 -0.030344 0)
(-0.014258 -0.0276441 0)
(-0.00400696 -0.0246949 0)
(0.00551138 -0.0215556 0)
(0.0142215 -0.0182891 0)
(0.0220601 -0.0149605 0)
(0.0289776 -0.0116351 0)
(0.0349382 -0.00837636 0)
(0.0399208 -0.00524457 0)
(0.0439197 -0.00229487 0)
(0.0469447 0.000424159 0)
(0.0490215 0.00287186 0)
(0.0501917 0.00501677 0)
(0.0505118 0.00683756 0)
(0.0500531 0.0083236 0)
(0.0488987 0.00947514 0)
(0.0471419 0.0103028 0)
(0.0448823 0.0108269 0)
(0.0422226 0.0110752 0)
(0.0392642 0.0110819 0)
(0.0361045 0.0108848 0)
(0.0328322 0.0105236 0)
(0.0295267 0.0100373 0)
(0.026254 0.00946313 0)
(0.0230697 0.00883392 0)
(0.0200134 0.00817834 0)
(0.0171184 0.00751762 0)
(0.0144011 0.00686713 0)
(0.0118804 0.00623138 0)
(0.00955719 0.00560908 0)
(0.00744934 0.0049845 0)
(0.00555046 0.00434192 0)
(0.00389448 0.00364982 0)
(0.00247116 0.00289729 0)
(0.00134981 0.00206104 0)
(0.000508317 0.00118958 0)
(7.42406e-05 0.000324003 0)
(9.52291e-05 -0.000821812 0)
(0.000638679 -0.00237869 0)
(0.001651 -0.00369781 0)
(0.00291927 -0.00472189 0)
(0.00440724 -0.0053891 0)
(0.00595681 -0.00570382 0)
(0.00750815 -0.0056785 0)
(0.00895119 -0.00536302 0)
(0.010236 -0.00481176 0)
(0.0112984 -0.00409322 0)
(0.0121134 -0.00327135 0)
(0.0126552 -0.00240746 0)
(0.0129219 -0.00155037 0)
(0.0129124 -0.000736793 0)
(0.0126361 1.26338e-05 0)
(0.0120994 0.000692018 0)
(0.0113088 0.00131012 0)
(0.0102626 0.00188739 0)
(0.0089526 0.00245324 0)
(0.00735975 0.0030419 0)
(0.00545621 0.00368868 0)
(0.00320485 0.00442626 0)
(0.000561946 0.00528195 0)
(-0.00252119 0.00627608 0)
(-0.0060953 0.0074216 0)
(-0.0102111 0.00872455 0)
(-0.0149168 0.0101851 0)
(-0.0202561 0.0117987 0)
(-0.026266 0.0135564 0)
(-0.0329744 0.0154454 0)
(-0.0403978 0.0174483 0)
(-0.048539 0.0195429 0)
(-0.0573847 0.0217016 0)
(-0.0669037 0.0238911 0)
(-0.0770464 0.0260733 0)
(-0.0877445 0.0282057 0)
(-0.098912 0.0302428 0)
(-0.110448 0.0321382 0)
(-0.12224 0.033846 0)
(-0.134167 0.0353233 0)
(-0.146105 0.0365316 0)
(-0.157932 0.0374389 0)
(-0.169532 0.0380198 0)
(-0.180794 0.038257 0)
(-0.191623 0.0381409 0)
(-0.201935 0.0376689 0)
(-0.211657 0.0368451 0)
(-0.220731 0.0356791 0)
(-0.229113 0.0341845 0)
(-0.236765 0.0323786 0)
(-0.243662 0.0302806 0)
(-0.249785 0.0279112 0)
(-0.25512 0.0252914 0)
(-0.259659 0.0224427 0)
(-0.263396 0.0193861 0)
(-0.266328 0.0161423 0)
(-0.268451 0.0127317 0)
(-0.269764 0.00917416 0)
(-0.270266 0.00548968 0)
(-0.269954 0.00169843 0)
(-0.268827 -0.00217879 0)
(-0.266883 -0.00612014 0)
(-0.264119 -0.0101023 0)
(-0.260534 -0.0141 0)
(-0.256129 -0.0180856 0)
(-0.250905 -0.0220291 0)
(-0.244866 -0.0258971 0)
(-0.23802 -0.0296536 0)
(-0.230378 -0.0332593 0)
(-0.221957 -0.0366722 0)
(-0.212782 -0.0398478 0)
(-0.202884 -0.0427402 0)
(-0.192302 -0.0453025 0)
(-0.181086 -0.0474885 0)
(-0.169295 -0.049254 0)
(-0.157 -0.0505587 0)
(-0.144282 -0.0513675 0)
(-0.131232 -0.0516529 0)
(-0.11795 -0.0513965 0)
(-0.104546 -0.0505905 0)
(-0.0911338 -0.049239 0)
(-0.0778316 -0.0473585 0)
(-0.0647586 -0.0449781 0)
(-0.0520317 -0.0421391 0)
(-0.0397634 -0.0388937 0)
(-0.028059 -0.0353034 0)
(-0.0170139 -0.0314373 0)
(-0.00671311 -0.0273697 0)
(0.00277091 -0.0231778 0)
(0.0113782 -0.0189396 0)
(0.0190618 -0.0147319 0)
(0.0257877 -0.0106287 0)
(0.0315346 -0.0066989 0)
(0.0362946 -0.00300573 0)
(0.040073 0.000395332 0)
(0.0428888 0.00345771 0)
(0.0447754 0.00614505 0)
(0.0457803 0.00843236 0)
(0.0459651 0.0103069 0)
(0.0454047 0.0117686 0)
(0.044185 0.0128298 0)
(0.0424006 0.0135141 0)
(0.040151 0.0138552 0)
(0.0375377 0.0138945 0)
(0.0346589 0.0136783 0)
(0.0316082 0.0132553 0)
(0.0284681 0.0126742 0)
(0.0253132 0.0119802 0)
(0.0222019 0.0112143 0)
(0.0191862 0.0104092 0)
(0.0162989 0.00958989 0)
(0.0135744 0.00876823 0)
(0.0110247 0.00794709 0)
(0.0086797 0.00711234 0)
(0.00653774 0.00624562 0)
(0.00464399 0.00531124 0)
(0.0029885 0.00428856 0)
(0.00166032 0.00314508 0)
(0.000638479 0.00190908 0)
(9.69289e-05 0.00060374 0)
(0.000104088 -0.0011512 0)
(0.00069981 -0.00321123 0)
(0.00180103 -0.0049019 0)
(0.00316167 -0.00617062 0)
(0.00473421 -0.00696572 0)
(0.00633968 -0.00729935 0)
(0.00791221 -0.00719825 0)
(0.009333 -0.00672782 0)
(0.0105517 -0.00596101 0)
(0.0115026 -0.00498408 0)
(0.0121627 -0.00387785 0)
(0.0125069 -0.0027173 0)
(0.0125338 -0.00156159 0)
(0.0122408 -0.000453503 0)
(0.0116344 0.000584344 0)
(0.010715 0.00154814 0)
(0.00948144 0.00245212 0)
(0.00792215 0.0033249 0)
(0.00601732 0.00420555 0)
(0.00373574 0.0051384 0)
(0.0010372 0.00616803 0)
(-0.00212693 0.00733459 0)
(-0.00581023 0.0086705 0)
(-0.0100689 0.0101984 0)
(-0.014958 0.0119309 0)
(-0.0205294 0.0138711 0)
(-0.0268279 0.0160136 0)
(-0.0338894 0.0183459 0)
(-0.0417373 0.0208487 0)
(-0.0503802 0.0234958 0)
(-0.0598087 0.0262542 0)
(-0.0699933 0.0290836 0)
(-0.0808832 0.0319366 0)
(-0.0924055 0.0347597 0)
(-0.104467 0.037495 0)
(-0.116956 0.0400818 0)
(-0.129749 0.0424601 0)
(-0.14271 0.0445726 0)
(-0.155704 0.046368 0)
(-0.168597 0.0478026 0)
(-0.181262 0.0488426 0)
(-0.193585 0.0494642 0)
(-0.205467 0.0496542 0)
(-0.216823 0.0494089 0)
(-0.227585 0.0487334 0)
(-0.2377 0.0476397 0)
(-0.247131 0.0461455 0)
(-0.255849 0.0442723 0)
(-0.263836 0.0420442 0)
(-0.271081 0.0394864 0)
(-0.27758 0.0366246 0)
(-0.283331 0.033484 0)
(-0.288332 0.030089 0)
(-0.292587 0.0264628 0)
(-0.296095 0.0226273 0)
(-0.298858 0.0186034 0)
(-0.300874 0.0144109 0)
(-0.302143 0.0100693 0)
(-0.302661 0.00559754 0)
(-0.302424 0.00101502 0)
(-0.301427 -0.00365818 0)
(-0.299662 -0.00840065 0)
(-0.297122 -0.0131892 0)
(-0.293799 -0.0179981 0)
(-0.289685 -0.0227989 0)
(-0.284773 -0.0275597 0)
(-0.279057 -0.0322448 0)
(-0.272533 -0.0368145 0)
(-0.2652 -0.041225 0)
(-0.257064 -0.0454287 0)
(-0.248132 -0.0493742 0)
(-0.238422 -0.0530074 0)
(-0.22796 -0.0562722 0)
(-0.216778 -0.059112 0)
(-0.204924 -0.0614716 0)
(-0.192456 -0.0632988 0)
(-0.179442 -0.0645469 0)
(-0.165968 -0.0651772 0)
(-0.152129 -0.065161 0)
(-0.138032 -0.064482 0)
(-0.123793 -0.0631379 0)
(-0.109537 -0.0611417 0)
(-0.0953918 -0.0585219 0)
(-0.081485 -0.0553225 0)
(-0.067942 -0.0516013 0)
(-0.0548813 -0.0474287 0)
(-0.0424115 -0.0428844 0)
(-0.0306293 -0.0380549 0)
(-0.0196178 -0.0330306 0)
(-0.00944574 -0.0279031 0)
(-0.000167602 -0.0227622 0)
(0.00817557 -0.0176945 0)
(0.0155553 -0.0127815 0)
(0.0219549 -0.00809828 0)
(0.0273687 -0.00371257 0)
(0.031802 0.000316525 0)
(0.0352715 0.00393956 0)
(0.0378058 0.00711805 0)
(0.0394458 0.0098257 0)
(0.0402459 0.0120494 0)
(0.0402726 0.0137901 0)
(0.0396046 0.0150622 0)
(0.0383296 0.0158935 0)
(0.0365428 0.0163229 0)
(0.0343415 0.0163984 0)
(0.0318241 0.0161737 0)
(0.0290822 0.0157056 0)
(0.0262035 0.0150499 0)
(0.0232615 0.0142591 0)
(0.020325 0.0133777 0)
(0.0174427 0.0124414 0)
(0.0146655 0.0114715 0)
(0.0120182 0.0104768 0)
(0.00954451 0.00944715 0)
(0.00725096 0.00836269 0)
(0.00519578 0.00718471 0)
(0.00337319 0.0058807 0)
(0.00189164 0.00440664 0)
(0.000734314 0.00276186 0)
(0.000112938 0.000943651 0)
(0.000112014 -0.0015053 0)
(0.000749942 -0.00410359 0)
(0.00191741 -0.00617856 0)
(0.00333871 -0.00768371 0)
(0.00495362 -0.00858146 0)
(0.00656394 -0.00889673 0)
(0.0080976 -0.00867557 0)
(0.00942863 -0.00800291 0)
(0.0105072 -0.00697334 0)
(0.011268 -0.00569248 0)
(0.0116909 -0.00425843 0)
(0.0117526 -0.00275906 0)
(0.0114525 -0.00126224 0)
(0.0107862 0.000185503 0)
(0.00975588 0.00156212 0)
(0.0083548 0.00286852 0)
(0.00657173 0.00412674 0)
(0.00438313 0.00537536 0)
(0.00175591 0.00666415 0)
(-0.00135472 0.00804754 0)
(-0.00500151 0.00957841 0)
(-0.00924351 0.0113025 0)
(-0.0141415 0.0132543 0)
(-0.019755 0.0154554 0)
(-0.0261375 0.0179139 0)
(-0.0333338 0.0206249 0)
(-0.0413764 0.0235726 0)
(-0.0502816 0.0267303 0)
(-0.0600472 0.0300618 0)
(-0.0706488 0.0335212 0)
(-0.0820385 0.0370534 0)
(-0.0941432 0.0405947 0)
(-0.106866 0.044075 0)
(-0.12009 0.0474195 0)
(-0.133679 0.0505527 0)
(-0.147489 0.0534017 0)
(-0.161371 0.0558997 0)
(-0.175178 0.0579896 0)
(-0.188774 0.0596258 0)
(-0.202037 0.0607761 0)
(-0.214862 0.0614212 0)
(-0.227162 0.0615546 0)
(-0.23887 0.0611806 0)
(-0.249936 0.0603129 0)
(-0.260327 0.058972 0)
(-0.270019 0.0571834 0)
(-0.279 0.0549756 0)
(-0.287267 0.0523785 0)
(-0.29482 0.0494224 0)
(-0.301663 0.0461368 0)
(-0.3078 0.0425497 0)
(-0.313238 0.0386876 0)
(-0.317982 0.0345748 0)
(-0.322037 0.0302341 0)
(-0.325406 0.0256863 0)
(-0.328091 0.0209509 0)
(-0.330092 0.0160462 0)
(-0.331407 0.0109899 0)
(-0.332033 0.00579925 0)
(-0.331964 0.00049202 0)
(-0.331192 -0.00491325 0)
(-0.32971 -0.0103965 0)
(-0.327505 -0.0159358 0)
(-0.324567 -0.0215061 0)
(-0.32088 -0.0270793 0)
(-0.316431 -0.0326232 0)
(-0.311206 -0.0381013 0)
(-0.305191 -0.043472 0)
(-0.298372 -0.0486886 0)
(-0.290741 -0.0536993 0)
(-0.282291 -0.0584473 0)
(-0.273023 -0.0628713 0)
(-0.262942 -0.0669064 0)
(-0.252065 -0.070486 0)
(-0.240418 -0.0735427 0)
(-0.228043 -0.0760115 0)
(-0.214993 -0.0778317 0)
(-0.201337 -0.0789503 0)
(-0.187161 -0.0793248 0)
(-0.172567 -0.0789259 0)
(-0.15767 -0.0777407 0)
(-0.142598 -0.0757741 0)
(-0.127488 -0.0730502 0)
(-0.112482 -0.0696124 0)
(-0.0977231 -0.0655224 0)
(-0.0833489 -0.0608578 0)
(-0.069489 -0.0557097 0)
(-0.0562599 -0.0501783 0)
(-0.0437621 -0.0443691 0)
(-0.0320788 -0.0383895 0)
(-0.0212755 -0.0323445 0)
(-0.0114006 -0.0263351 0)
(-0.00248716 -0.0204553 0)
(0.00544482 -0.0147915 0)
(0.0123865 -0.0094217 0)
(0.0183387 -0.00441487 0)
(0.023311 0.000169506 0)
(0.0273217 0.00428225 0)
(0.0303983 0.00788551 0)
(0.0325791 0.010954 0)
(0.0339129 0.0134762 0)
(0.0344609 0.0154552 0)
(0.0342947 0.0169087 0)
(0.0334967 0.0178684 0)
(0.0321555 0.0183784 0)
(0.0303658 0.0184923 0)
(0.0282204 0.0182702 0)
(0.0258131 0.0177746 0)
(0.0232265 0.0170668 0)
(0.0205423 0.0162018 0)
(0.0178226 0.0152256 0)
(0.0151333 0.0141696 0)
(0.0125123 0.0130498 0)
(0.0100182 0.0118616 0)
(0.00766747 0.0105848 0)
(0.00553228 0.00917845 0)
(0.00361422 0.0075971 0)
(0.00203883 0.00578351 0)
(0.000795705 0.00370282 0)
(0.000123122 0.00132229 0)
(0.000118784 -0.00188472 0)
(0.000789686 -0.0050487 0)
(0.00200285 -0.00751258 0)
(0.00345431 -0.00923822 0)
(0.0050702 -0.0102057 0)
(0.00663484 -0.0104577 0)
(0.00807025 -0.0100648 0)
(0.0092452 -0.0091356 0)
(0.0101116 -0.00778976 0)
(0.0106058 -0.00615383 0)
(0.0107119 -0.00434348 0)
(0.0104084 -0.00245829 0)
(0.00969567 -0.000572748 0)
(0.00856661 0.00126567 0)
(0.00701763 0.00303856 0)
(0.00503297 0.00475452 0)
(0.00258967 0.00644584 0)
(-0.000349487 0.0081626 0)
(-0.00383178 0.00996568 0)
(-0.0079153 0.0119187 0)
(-0.0126637 0.0140806 0)
(-0.0181429 0.0164991 0)
(-0.0244158 0.0192065 0)
(-0.0315379 0.0222179 0)
(-0.0395525 0.0255308 0)
(-0.0484869 0.0291264 0)
(-0.0583489 0.032971 0)
(-0.0691229 0.0370172 0)
(-0.0807681 0.0412048 0)
(-0.093216 0.0454624 0)
(-0.106371 0.0497087 0)
(-0.120113 0.0538557 0)
(-0.134301 0.0578119 0)
(-0.148781 0.0614873 0)
(-0.163392 0.0647977 0)
(-0.177975 0.0676691 0)
(-0.192382 0.0700413 0)
(-0.206478 0.0718695 0)
(-0.220151 0.0731255 0)
(-0.233307 0.0737966 0)
(-0.245876 0.0738841 0)
(-0.257807 0.0734011 0)
(-0.269067 0.0723695 0)
(-0.279636 0.0708176 0)
(-0.289504 0.0687779 0)
(-0.298672 0.0662846 0)
(-0.307143 0.0633724 0)
(-0.314926 0.0600755 0)
(-0.322029 0.0564262 0)
(-0.328463 0.052455 0)
(-0.334238 0.0481902 0)
(-0.339364 0.0436573 0)
(-0.343849 0.0388799 0)
(-0.347701 0.0338793 0)
(-0.350924 0.0286748 0)
(-0.353524 0.0232842 0)
(-0.355503 0.017724 0)
(-0.356862 0.0120099 0)
(-0.357599 0.00615736 0)
(-0.35771 0.00018192 0)
(-0.357189 -0.00589996 0)
(-0.356028 -0.0120704 0)
(-0.354215 -0.0183094 0)
(-0.351735 -0.0245941 0)
(-0.348572 -0.030898 0)
(-0.344706 -0.0371903 0)
(-0.340117 -0.0434352 0)
(-0.33478 -0.0495913 0)
(-0.328671 -0.0556108 0)
(-0.321768 -0.0614399 0)
(-0.314048 -0.0670178 0)
(-0.305491 -0.072278 0)
(-0.296084 -0.0771482 0)
(-0.28582 -0.0815521 0)
(-0.274702 -0.0854107 0)
(-0.262747 -0.088645 0)
(-0.249984 -0.0911787 0)
(-0.236462 -0.0929415 0)
(-0.222247 -0.093873 0)
(-0.207427 -0.0939264 0)
(-0.192109 -0.0930724 0)
(-0.176419 -0.0913018 0)
(-0.1605 -0.0886283 0)
(-0.144505 -0.0850894 0)
(-0.128597 -0.0807462 0)
(-0.112939 -0.0756815 0)
(-0.0976884 -0.0699963 0)
(-0.0829913 -0.0638058 0)
(-0.0689773 -0.0572336 0)
(-0.0557552 -0.050407 0)
(-0.0434113 -0.0434512 0)
(-0.0320091 -0.036486 0)
(-0.0215908 -0.029622 0)
(-0.0121805 -0.0229597 0)
(-0.00378718 -0.016588 0)
(0.00359139 -0.010585 0)
(0.00996613 -0.00501797 0)
(0.0153549 5.6532e-05 0)
(0.0197815 0.00459264 0)
(0.023277 0.00855602 0)
(0.0258795 0.011925 0)
(0.0276369 0.0146919 0)
(0.0286061 0.0168636 0)
(0.0288554 0.0184622 0)
(0.0284609 0.0195243 0)
(0.0275081 0.0200989 0)
(0.0260846 0.0202449 0)
(0.0242835 0.020027 0)
(0.0221908 0.0195115 0)
(0.0198952 0.0187615 0)
(0.0174685 0.0178312 0)
(0.0149887 0.0167615 0)
(0.0125059 0.0155755 0)
(0.0100921 0.0142749 0)
(0.00777546 0.0128397 0)
(0.00564147 0.0112275 0)
(0.00370154 0.00937978 0)
(0.00209488 0.00722573 0)
(0.000818886 0.004695 0)
(0.000126527 0.00172362 0)
(0.000125331 -0.00228215 0)
(0.000821626 -0.00602637 0)
(0.0020604 -0.00887082 0)
(0.0035105 -0.010788 0)
(0.00508368 -0.0117804 0)
(0.00654917 -0.011914 0)
(0.00782421 -0.0112894 0)
(0.00877489 -0.0100437 0)
(0.00935622 -0.00832436 0)
(0.00950816 -0.00628008 0)
(0.00921918 -0.00404363 0)
(0.0084701 -0.00172433 0)
(0.00726106 0.000599614 0)
(0.00558093 0.0028833 0)
(0.00341866 0.00511548 0)
(0.00074749 0.00731551 0)
(-0.00246881 0.00952804 0)
(-0.00628187 0.0118155 0)
(-0.0107526 0.014249 0)
(-0.0159501 0.0168988 0)
(-0.0219449 0.0198257 0)
(-0.0288036 0.023074 0)
(-0.0365832 0.0266674 0)
(-0.0453252 0.0306072 0)
(-0.0550515 0.0348731 0)
(-0.0657597 0.0394246 0)
(-0.0774205 0.0442028 0)
(-0.089975 0.0491326 0)
(-0.103334 0.0541253 0)
(-0.117381 0.0590811 0)
(-0.131972 0.0638941 0)
(-0.146946 0.0684563 0)
(-0.162134 0.0726645 0)
(-0.177362 0.0764249 0)
(-0.192468 0.0796584 0)
(-0.207304 0.0823039 0)
(-0.221742 0.0843196 0)
(-0.23568 0.0856828 0)
(-0.249039 0.0863882 0)
(-0.261761 0.0864455 0)
(-0.273809 0.0858759 0)
(-0.285163 0.084709 0)
(-0.295814 0.08298 0)
(-0.305761 0.080727 0)
(-0.31501 0.0779893 0)
(-0.323572 0.0748057 0)
(-0.33146 0.0712137 0)
(-0.338686 0.0672488 0)
(-0.345266 0.0629439 0)
(-0.351214 0.0583295 0)
(-0.356544 0.0534331 0)
(-0.36127 0.0482799 0)
(-0.365405 0.0428922 0)
(-0.368961 0.0372901 0)
(-0.371949 0.0314917 0)
(-0.374379 0.025513 0)
(-0.376257 0.0193687 0)
(-0.377589 0.0130724 0)
(-0.378379 0.00663709 0)
(-0.378625 7.57344e-05 0)