/*--------------------------------*- C++ -*----------------------------------*\
| =========                 |                                                 |
| \\      /  F ield         | OpenFOAM: The Open Source CFD Toolbox           |
|  \\    /   O peration     | Version:  2406                                  |
|   \\  /    A nd           | Website:  www.openfoam.com                      |
|    \\/     M anipulation  |                                                 |
\*---------------------------------------------------------------------------*/
FoamFile
{
    version     2.0;
    format      ascii;
    arch        "LSB;label=32;scalar=64";
    class       surfaceScalarField;
    location    "18.5";
    object      phi_0;
}
// * * * * * * * * * * * * * * * * * * * * * * * * * * * * * * * * * * * * * //

dimensions      [0 3 -1 0 0 0 0];

oriented        oriented;

internalField   nonuniform List<scalar> 
28560
(
8.26057e-09
-8.25535e-09
2.55756e-08
-1.73151e-08
4.59109e-08
-2.03353e-08
6.41949e-08
-1.8284e-08
7.78368e-08
-1.36419e-08
8.57871e-08
-7.95026e-09
8.78977e-08
-2.11066e-09
8.46687e-08
3.229e-09
7.68069e-08
7.8618e-09
6.49916e-08
1.18153e-08
4.98359e-08
1.51557e-08
3.18114e-08
1.80245e-08
1.12267e-08
2.05847e-08
-1.17705e-08
2.29972e-08
-3.7178e-08
2.54075e-08
-6.51167e-08
2.79387e-08
-9.58067e-08
3.069e-08
-1.29546e-07
3.37391e-08
-1.66691e-07
3.71449e-08
-2.07643e-07
4.09522e-08
-2.52839e-07
4.51961e-08
-3.02745e-07
4.99055e-08
-3.57851e-07
5.51066e-08
-4.18676e-07
6.08248e-08
-4.85763e-07
6.70866e-08
-5.59682e-07
7.39198e-08
-6.41036e-07
8.13535e-08
-7.30454e-07
8.94178e-08
-8.28596e-07
9.81421e-08
-9.3615e-07
1.07554e-07
-1.05383e-06
1.17676e-07
-1.18235e-06
1.28524e-07
-1.32246e-06
1.40106e-07
-1.47487e-06
1.52416e-07
-1.64031e-06
1.65433e-07
-1.81942e-06
1.79116e-07
-2.01282e-06
1.93402e-07
-2.22103e-06
2.08202e-07
-2.44443e-06
2.23399e-07
-2.68327e-06
2.38841e-07
-2.93761e-06
2.54342e-07
-3.20729e-06
2.6968e-07
-3.49188e-06
2.84592e-07
-3.79066e-06
2.98778e-07
-4.10255e-06
3.11896e-07
-4.42612e-06
3.23571e-07
-4.75952e-06
3.33391e-07
-5.10044e-06
3.4092e-07
-5.44613e-06
3.45698e-07
-5.79339e-06
3.47253e-07
-6.1385e-06
3.45113e-07
-6.47732e-06
3.38818e-07
-6.80525e-06
3.27933e-07
-7.11731e-06
3.12063e-07
-7.40819e-06
2.90874e-07
-7.67229e-06
2.64105e-07
-7.90388e-06
2.31588e-07
-8.09715e-06
1.93268e-07
-8.24637e-06
1.49214e-07
-8.34601e-06
9.9643e-08
-8.39115e-06
4.51432e-08
-8.37631e-06
-1.48385e-08
-8.29831e-06
-7.80009e-08
-8.15372e-06
-1.44593e-07
-7.94034e-06
-2.13379e-07
-7.6571e-06
-2.83239e-07
-7.30416e-06
-3.52938e-07
-6.88302e-06
-4.21144e-07
-6.39655e-06
-4.86472e-07
-5.84904e-06
-5.47509e-07
-5.24617e-06
-6.02864e-07
-4.59496e-06
-6.51213e-07
-3.90362e-06
-6.9134e-07
-3.18143e-06
-7.22192e-07
-2.43851e-06
-7.42921e-07
-1.68559e-06
-7.52921e-07
-9.33726e-07
-7.51861e-07
-1.94016e-07
-7.3971e-07
5.22726e-07
-7.16742e-07
1.20627e-06
-6.83539e-07
1.84724e-06
-6.4097e-07
2.4374e-06
-5.90161e-07
2.96985e-06
-5.32455e-07
3.43921e-06
-4.69358e-07
3.84169e-06
-4.02478e-07
4.17515e-06
-3.33465e-07
4.43909e-06
-2.63941e-07
4.63454e-06
-1.95449e-07
4.76394e-06
-1.29394e-07
4.83094e-06
-6.70017e-08
4.84073e-06
-9.78922e-09
4.79733e-06
4.34018e-08
4.70766e-06
8.96623e-08
4.57815e-06
1.29518e-07
4.41489e-06
1.63257e-07
4.22413e-06
1.90765e-07
4.01182e-06
2.12308e-07
3.78353e-06
2.28285e-07
3.54434e-06
2.39196e-07
3.29873e-06
2.4561e-07
3.05059e-06
2.48135e-07
2.8032e-06
2.4739e-07
2.55922e-06
2.43986e-07
2.32071e-06
2.38509e-07
2.0892e-06
2.31504e-07
1.86574e-06
2.23461e-07
1.65094e-06
2.14805e-07
1.44507e-06
2.05871e-07
1.24818e-06
1.9689e-07
1.06022e-06
1.87959e-07
8.8122e-07
1.79e-07
7.11502e-07
1.69718e-07
5.51952e-07
1.5955e-07
4.04335e-07
1.47617e-07
2.71638e-07
1.32697e-07
1.58329e-07
1.13309e-07
7.03359e-08
8.79931e-08
1.41429e-08
5.6193e-08
-5.91144e-09
2.00544e-08
-5.91144e-09
1.7537e-08
-2.57924e-08
5.18184e-08
-5.15964e-08
8.84019e-08
-5.69188e-08
1.1814e-07
-4.80219e-08
1.3575e-07
-3.12525e-08
1.38973e-07
-1.11731e-08
1.27564e-07
9.29907e-09
1.02316e-07
2.84766e-08
6.46101e-08
4.55677e-08
1.59731e-08
6.04524e-08
-4.22317e-08
7.33605e-08
-1.08938e-07
8.47306e-08
-1.83444e-07
9.50905e-08
-2.65423e-07
1.04977e-07
-3.54901e-07
1.14886e-07
-4.52212e-07
1.25249e-07
-5.57947e-07
1.36425e-07
-6.72909e-07
1.48701e-07
-7.98067e-07
1.62303e-07
-9.34526e-07
1.77411e-07
-1.0835e-06
1.94167e-07
-1.24629e-06
2.12695e-07
-1.42428e-06
2.33102e-07
-1.61895e-06
2.55492e-07
-1.83183e-06
2.79967e-07
-2.06454e-06
3.06629e-07
-2.31876e-06
3.3558e-07
-2.59626e-06
3.66918e-07
-2.89886e-06
4.00734e-07
-3.2284e-06
4.371e-07
-3.58679e-06
4.76068e-07
-3.97592e-06
5.17654e-07
-4.39765e-06
5.61834e-07
-4.85376e-06
6.08527e-07
-5.34591e-06
6.57584e-07
-5.87558e-06
7.0878e-07
-6.44398e-06
7.61799e-07
-7.05199e-06
8.16221e-07
-7.70011e-06
8.71515e-07
-8.3883e-06
9.27029e-07
-9.11594e-06
9.81982e-07
-9.88172e-06
1.03546e-06
-1.06836e-05
1.08643e-06
-1.15185e-05
1.1337e-06
-1.23826e-05
1.176e-06
-1.3271e-05
1.21193e-06
-1.41776e-05
1.24e-06
-1.50953e-05
1.25868e-06
-1.6016e-05
1.2664e-06
-1.69304e-05
1.26159e-06
-1.7828e-05
1.24275e-06
-1.86976e-05
1.20847e-06
-1.95272e-05
1.1575e-06
-2.03039e-05
1.08876e-06
-2.10145e-05
1.00144e-06
-2.16454e-05
8.95028e-07
-2.21832e-05
7.69359e-07
-2.26145e-05
6.24649e-07
-2.29269e-05
4.61538e-07
-2.31083e-05
2.81124e-07
-2.31482e-05
8.49987e-08
-2.30379e-05
-1.25121e-07
-2.27695e-05
-3.46389e-07
-2.23381e-05
-5.76036e-07
-2.17407e-05
-8.10807e-07
-2.09769e-05
-1.04704e-06
-2.0049e-05
-1.28081e-06
-1.89621e-05
-1.50798e-06
-1.77243e-05
-1.72432e-06
-1.63462e-05
-1.92558e-06
-1.48414e-05
-2.10763e-06
-1.32261e-05
-2.26657e-06
-1.15186e-05
-2.39884e-06
-9.73941e-06
-2.50138e-06
-7.91065e-06
-2.57168e-06
-6.0556e-06
-2.60796e-06
-4.19827e-06
-2.6092e-06
-2.36278e-06
-2.5752e-06
-5.72861e-07
-2.50666e-06
1.14874e-06
-2.40514e-06
2.7808e-06
-2.27303e-06
4.30416e-06
-2.11352e-06
5.70214e-06
-1.93044e-06
6.96096e-06
-1.72818e-06
8.07e-06
-1.51151e-06
9.02198e-06
-1.28544e-06
9.81304e-06
-1.055e-06
1.04427e-05
-8.25092e-07
1.09136e-05
-6.00302e-07
1.12314e-05
-3.84821e-07
1.14039e-05
-1.82258e-07
1.14418e-05
5.51457e-09
1.13576e-05
1.73821e-07
1.11638e-05
3.23335e-07
1.08745e-05
4.52518e-07
1.0504e-05
5.61258e-07
1.00664e-05
6.49975e-07
9.57506e-06
7.1959e-07
9.04283e-06
7.71429e-07
8.48132e-06
8.07117e-07
7.90097e-06
8.28485e-07
7.31088e-06
8.37481e-07
6.71878e-06
8.3609e-07
6.13102e-06
8.26261e-07
5.55268e-06
8.09847e-07
4.9876e-06
7.88543e-07
4.43858e-06
7.63828e-07
3.90755e-06
7.36892e-07
3.39588e-06
7.08565e-07
2.90462e-06
6.79215e-07
2.43498e-06
6.48639e-07
1.98877e-06
6.15933e-07
1.56895e-06
5.79371e-07
1.18025e-06
5.36316e-07
8.29698e-07
4.83246e-07
5.26907e-07
4.161e-07
2.83675e-07
3.31225e-07
1.1224e-07
2.27628e-07
2.09634e-08
1.11331e-07
1.5052e-08
2.06492e-08
-4.64416e-08
5.69663e-08
-8.79134e-08
9.11039e-08
-9.10563e-08
1.12528e-07
-6.94459e-08
1.1519e-07
-3.39146e-08
9.64161e-08
7.60083e-09
5.59095e-08
4.98057e-08
-5.27298e-09
8.9659e-08
-8.5376e-08
1.25671e-07
-1.82447e-07
1.57524e-07
-2.94715e-07
1.85628e-07
-4.20794e-07
2.1081e-07
-5.59791e-07
2.34088e-07
-7.11333e-07
2.56519e-07
-8.75542e-07
2.79094e-07
-1.05299e-06
3.02694e-07
-1.24462e-06
3.2806e-07
-1.45172e-06
3.55804e-07
-1.67584e-06
3.86419e-07
-1.91874e-06
4.20305e-07
-2.18236e-06
4.57789e-07
-2.46882e-06
4.99155e-07
-2.78037e-06
5.44653e-07
-3.1194e-06
5.9452e-07
-3.48841e-06
6.48981e-07
-3.89003e-06
7.08253e-07
-4.327e-06
7.72543e-07
-4.80212e-06
8.42038e-07
-5.31828e-06
9.16895e-07
-5.8784e-06
9.97223e-07
-6.4854e-06
1.08307e-06
-7.14214e-06
1.17439e-06
-7.85134e-06
1.27104e-06
-8.61555e-06
1.37274e-06
-9.43701e-06
1.47904e-06
-1.03176e-05
1.58934e-06
-1.12586e-05
1.70279e-06
-1.22607e-05
1.81834e-06
-1.33239e-05
1.93471e-06
-1.44472e-05
2.05032e-06
-1.56285e-05
2.16336e-06
-1.68648e-05
2.27175e-06
-1.81515e-05
2.37314e-06
-1.94828e-05
2.46497e-06
-2.08513e-05
2.54446e-06
-2.2248e-05
2.60867e-06
-2.36626e-05
2.65455e-06
-2.50829e-05
2.67901e-06
-2.64955e-05
2.67898e-06
-2.78854e-05
2.65153e-06
-2.92366e-05
2.59389e-06
-3.05317e-05
2.50362e-06
-3.17529e-05
2.37864e-06
-3.28815e-05
2.21738e-06
-3.38988e-05
2.01879e-06
-3.47863e-05
1.78251e-06
-3.55258e-05
1.50885e-06
-3.61e-05
1.19889e-06
-3.6493e-05
8.54497e-07
-3.66902e-05
4.78373e-07
-3.66792e-05
7.39227e-08
-3.64499e-05
-3.5437e-07
-3.59946e-05
-8.01693e-07
-3.53085e-05
-1.26216e-06
-3.43898e-05
-1.72946e-06
-3.32402e-05
-2.19671e-06
-3.18643e-05
-2.65665e-06
-3.02706e-05
-3.10174e-06
-2.84706e-05
-3.52433e-06
-2.64793e-05
-3.91682e-06
-2.43151e-05
-4.27189e-06
-2.1999e-05
-4.58261e-06
-1.95552e-05
-4.84269e-06
-1.70099e-05
-5.04667e-06
-1.43915e-05
-5.19009e-06
-1.17298e-05
-5.26966e-06
-9.05558e-06
-5.2834e-06
-6.40004e-06
-5.23074e-06
-3.79407e-06
-5.11263e-06
-1.26771e-06
-4.93151e-06
1.15056e-06
-4.6913e-06
3.43436e-06
-4.39732e-06
5.56006e-06
-4.05613e-06
7.50724e-06
-3.67536e-06
9.25915e-06
-3.26342e-06
1.0803e-05
-2.82931e-06
1.21302e-05
-2.38223e-06
1.32365e-05
-1.93135e-06
1.41217e-05
-1.48548e-06
1.47896e-05
-1.05276e-06
1.52478e-05
-6.40403e-07
1.55079e-05
-2.54599e-07
1.55826e-05
9.90945e-08
1.54881e-05
4.17792e-07
1.52421e-05
6.98586e-07
1.48629e-05
9.40426e-07
1.43696e-05
1.14331e-06
1.37809e-05
1.3083e-06
1.3115e-05
1.43733e-06
1.2389e-05
1.53304e-06
1.16189e-05
1.59862e-06
1.08188e-05
1.63759e-06
1.00012e-05
1.65369e-06
9.17678e-06
1.65066e-06
8.35448e-06
1.63215e-06
7.54148e-06
1.60154e-06
6.74349e-06
1.56182e-06
5.96493e-06
1.51545e-06
5.20933e-06
1.46417e-06
4.47972e-06
1.40883e-06
3.77918e-06
1.34918e-06
3.11145e-06
1.28367e-06
2.48159e-06
1.20922e-06
1.89669e-06
1.12122e-06
1.36636e-06
1.01358e-06
9.02907e-07
8.79549e-07
5.20912e-07
7.1322e-07
2.35552e-07
5.12988e-07
5.96212e-08
2.87262e-07
7.46731e-08
1.80317e-08
-6.44733e-08
4.52993e-08
-1.15181e-07
6.33341e-08
-1.09091e-07
6.15482e-08
-6.76599e-08
3.41879e-08
-6.55431e-09
-2.10716e-08
6.28603e-08
-1.04216e-07
1.3295e-07
-2.13801e-07
1.99244e-07
-3.47732e-07
2.59602e-07
-5.03781e-07
3.13572e-07
-6.7996e-07
3.61807e-07
-8.74758e-07
4.05608e-07
-1.08726e-06
4.46589e-07
-1.31717e-06
4.86434e-07
-1.56483e-06
5.26744e-07
-1.83108e-06
5.68954e-07
-2.11732e-06
6.14294e-07
-2.42531e-06
6.63794e-07
-2.75719e-06
7.18305e-07
-3.11542e-06
7.78528e-07
-3.50268e-06
8.45055e-07
-3.92192e-06
9.18396e-07
-4.37628e-06
9.99011e-07
-4.86908e-06
1.08732e-06
-5.40382e-06
1.18372e-06
-5.98415e-06
1.28858e-06
-6.61383e-06
1.40222e-06
-7.29673e-06
1.52494e-06
-8.03677e-06
1.65694e-06
-8.83786e-06
1.79831e-06
-9.70384e-06
1.94904e-06
-1.06384e-05
2.10893e-06
-1.16449e-05
2.27755e-06
-1.27264e-05
2.45425e-06
-1.38854e-05
2.63807e-06
-1.51238e-05
2.82772e-06
-1.64426e-05
3.02155e-06
-1.78417e-05
3.21749e-06
-1.93201e-05
3.41308e-06
-2.08752e-05
3.60542e-06
-2.2503e-05
3.79118e-06
-2.41979e-05
3.96662e-06
-2.59524e-05
4.12763e-06
-2.77572e-05
4.26978e-06
-2.96011e-05
4.38837e-06
-3.1471e-05
4.47856e-06
-3.33518e-05
4.53543e-06
-3.52269e-05
4.55411e-06
-3.70779e-05
4.52994e-06
-3.8885e-05
4.45858e-06
-4.06272e-05
4.33614e-06
-4.22829e-05
4.15934e-06
-4.38299e-05
3.92564e-06
-4.52459e-05
3.63334e-06
-4.65088e-05
3.28169e-06
-4.75972e-05
2.87098e-06
-4.8491e-05
2.4026e-06
-4.91712e-05
1.87909e-06
-4.96208e-05
1.3041e-06
-4.98249e-05
6.82465e-07
-4.9771e-05
2.00856e-08
-4.94495e-05
-6.75959e-07
-4.88534e-05
-1.39777e-06
-4.79791e-05
-2.13643e-06
-4.68263e-05
-2.88231e-06
-4.53979e-05
-3.62511e-06
-4.37004e-05
-4.35409e-06
-4.1744e-05
-5.0582e-06
-3.9542e-05
-5.72627e-06
-3.71115e-05
-6.3473e-06
-3.44728e-05
-6.91061e-06
-3.16493e-05
-7.40615e-06
-2.86672e-05
-7.82474e-06
-2.55556e-05
-8.1583e-06
-2.23456e-05
-8.40014e-06
-1.907e-05
-8.54518e-06
-1.57633e-05
-8.59015e-06
-1.24603e-05
-8.53374e-06
-9.19614e-06
-8.37678e-06
-6.00544e-06
-8.1222e-06
-2.92163e-06
-7.77511e-06
2.37145e-08
-7.34267e-06
2.80148e-06
-6.8339e-06
5.38564e-06
-6.25951e-06
7.75377e-06
-5.63156e-06
9.88754e-06
-4.96307e-06
1.1773e-05
-4.26768e-06
1.34008e-05
-3.55918e-06
1.47664e-05
-2.85109e-06
1.58699e-05
-2.15622e-06
1.67158e-05
-1.48633e-06
1.7313e-05
-8.51823e-07
1.76736e-05
-2.61472e-07
1.78134e-05
2.77939e-07
1.77507e-05
7.61366e-07
1.75053e-05
1.18575e-06
1.70988e-05
1.54988e-06
1.65528e-05
1.85424e-06
1.58893e-05
2.10083e-06
1.51294e-05
2.29293e-06
1.42933e-05
2.4348e-06
1.33994e-05
2.53149e-06
1.24646e-05
2.58848e-06
1.15037e-05
2.61149e-06
1.05297e-05
2.60616e-06
9.55341e-06
2.57787e-06
8.58379e-06
2.53144e-06
7.62834e-06
2.4709e-06
6.6933e-06
2.39921e-06
5.78417e-06
2.31796e-06
4.90628e-06
2.22706e-06
4.0655e-06
2.12445e-06
3.26887e-06
2.00586e-06
2.52534e-06
1.86474e-06
1.84634e-06
1.69259e-06
1.24603e-06
1.47986e-06
7.41238e-07
1.21801e-06
3.50898e-07
9.03328e-07
9.55824e-08
5.42577e-07
1.70256e-07
1.16255e-08
-7.60987e-08
2.13673e-08
-1.24923e-07
1.24317e-08
-1.00155e-07
-2.45916e-08
-3.06366e-08
-9.44354e-08
6.32895e-08
-1.98456e-07
1.66881e-07
-3.35907e-07
2.70401e-07
-5.04806e-07
3.68142e-07
-7.02671e-07
4.57467e-07
-9.27032e-07
5.37934e-07
-1.17579e-06
6.10568e-07
-1.44745e-06
6.77264e-07
-1.7412e-06
7.40335e-07
-2.05695e-06
8.02193e-07
-2.39536e-06
8.65146e-07
-2.75768e-06
9.31273e-07
-3.14577e-06
1.00239e-06
-3.56199e-06
1.08002e-06
-4.00915e-06
1.16546e-06
-4.49042e-06
1.2598e-06
-5.00933e-06
1.36397e-06
-5.56971e-06
1.47877e-06
-6.17563e-06
1.60494e-06
-6.83145e-06
1.74314e-06
-7.5417e-06
1.89397e-06
-8.31111e-06
2.05799e-06
-9.14454e-06
2.23565e-06
-1.00469e-05
2.42732e-06
-1.10232e-05
2.6332e-06
-1.20782e-05
2.85334e-06
-1.32167e-05
3.0875e-06
-1.44429e-05
3.33519e-06
-1.57609e-05
3.59552e-06
-1.71739e-05
3.86723e-06
-1.86843e-05
4.14853e-06
-2.02938e-05
4.43715e-06
-2.20025e-05
4.73023e-06
-2.38092e-05
5.02428e-06
-2.57114e-05
5.31524e-06
-2.77044e-05
5.59839e-06
-2.97816e-05
5.86845e-06
-3.19346e-05
6.1196e-06
-3.41525e-05
6.34554e-06
-3.64224e-05
6.53962e-06
-3.8729e-05
6.69498e-06
-4.10551e-05
6.80466e-06
-4.33814e-05
6.86179e-06
-4.56871e-05
6.85977e-06
-4.79496e-05
6.79247e-06
-5.01454e-05
6.65439e-06
-5.22502e-05
6.44086e-06
-5.4239e-05
6.14821e-06
-5.60873e-05
5.77387e-06
-5.77705e-05
5.31655e-06
-5.92651e-05
4.7763e-06
-6.05487e-05
4.15458e-06
-6.16004e-05
3.45429e-06
-6.24011e-05
2.67979e-06
-6.29338e-05
1.83686e-06
-6.31841e-05
9.32703e-07
-6.31398e-05
-2.41912e-08
-6.27918e-05
-1.024e-06
-6.21337e-05
-2.05585e-06
-6.11623e-05
-3.10778e-06
-5.98777e-05
-4.16695e-06
-5.8283e-05
-5.21977e-06
-5.6385e-05
-6.25213e-06
-5.41936e-05
-7.24955e-06
-5.17225e-05
-8.19743e-06
-4.89885e-05
-9.08131e-06
-4.60119e-05
-9.88716e-06
-4.28164e-05
-1.06016e-05
-3.94288e-05
-1.12124e-05
-3.58785e-05
-1.17086e-05
-3.21979e-05
-1.20808e-05
-2.84213e-05
-1.23217e-05
-2.4585e-05
-1.24264e-05
-2.07265e-05
-1.23922e-05
-1.6884e-05
-1.22194e-05
-1.30955e-05
-1.19107e-05
-9.39857e-06
-1.1472e-05
-5.82945e-06
-1.09118e-05
-2.42221e-06
-1.02411e-05
7.91789e-07
-9.47351e-06
3.78456e-06
-8.62433e-06
6.53206e-06
-7.71057e-06
9.01463e-06
-6.75025e-06
1.12174e-05
-5.76194e-06
1.31304e-05
-4.76413e-06
1.47489e-05
-3.77472e-06
1.60731e-05
-2.8105e-06
1.7108e-05
-1.88666e-06
1.78629e-05
-1.01641e-06
1.83515e-05
-2.10643e-07
1.85906e-05
5.22199e-07
1.86001e-05
1.17625e-06
1.84019e-05
1.74817e-06
1.8019e-05
2.23708e-06
1.74756e-05
2.64429e-06
1.67954e-05
2.97309e-06
1.60018e-05
3.22835e-06
1.51171e-05
3.41625e-06
1.41617e-05
3.54384e-06
1.31546e-05
3.61866e-06
1.21123e-05
3.64844e-06
1.10495e-05
3.64063e-06
9.97887e-06
3.60207e-06
8.91115e-06
3.53862e-06
7.85566e-06
3.4547e-06
6.82071e-06
3.35291e-06
5.81417e-06
3.23361e-06
4.84411e-06
3.09451e-06
3.91959e-06
2.93038e-06
3.05131e-06
2.73302e-06
2.25233e-06
2.49157e-06
1.53863e-06
2.19356e-06
9.29616e-07
1.82703e-06
4.48871e-07
1.38407e-06
1.25612e-07
8.65836e-07
2.95868e-07
2.37529e-09
-7.8474e-08
-1.16197e-08
-1.10928e-07
-5.60841e-08
-5.5691e-08
-1.38236e-07
5.15156e-08
-2.6092e-07
1.85974e-07
-4.24075e-07
3.30036e-07
-6.25863e-07
4.7219e-07
-8.63552e-07
6.05831e-07
-1.13418e-06
7.28096e-07
-1.43504e-06
8.38791e-07
-1.76397e-06
9.39502e-07
-2.11958e-06
1.03287e-06
-2.50127e-06
1.12203e-06
-2.9093e-06
1.21023e-06
-3.34474e-06
1.30058e-06
-3.80936e-06
1.3959e-06
-4.30563e-06
1.49865e-06
-4.83658e-06
1.61097e-06
-5.40578e-06
1.73466e-06
-6.01726e-06
1.87128e-06
-6.67546e-06
2.02217e-06
-7.38521e-06
2.18852e-06
-8.15166e-06
2.37139e-06
-8.98025e-06
2.57173e-06
-9.87669e-06
2.79041e-06
-1.08469e-05
3.02816e-06
-1.18968e-05
3.28556e-06
-1.30325e-05
3.56301e-06
-1.42599e-05
3.86067e-06
-1.55849e-05
4.17836e-06
-1.7013e-05
4.51554e-06
-1.8549e-05
4.87117e-06
-2.01971e-05
5.24369e-06
-2.19608e-05
5.63088e-06
-2.38421e-05
6.02984e-06
-2.58418e-05
6.43688e-06
-2.79591e-05
6.84752e-06
-3.01913e-05
7.25645e-06
-3.25336e-05
7.65751e-06
-3.49789e-05
8.04377e-06
-3.7518e-05
8.40757e-06
-4.01391e-05
8.74064e-06
-4.28278e-05
9.03424e-06
-4.55675e-05
9.2793e-06
-4.83392e-05
9.46668e-06
-5.11218e-05
9.58733e-06
-5.38926e-05
9.63257e-06
-5.66271e-05
9.5943e-06
-5.92999e-05
9.46524e-06
-6.18847e-05
9.23915e-06
-6.43548e-05
8.91102e-06
-6.66839e-05
8.47724e-06
-6.88457e-05
7.93572e-06
-7.08151e-05
7.28598e-06
-7.25681e-05
6.52924e-06
-7.40819e-05
5.6684e-06
-7.53357e-05
4.70808e-06
-7.63105e-05
3.65456e-06
-7.69894e-05
2.51577e-06
-7.73578e-05
1.30117e-06
-7.74037e-05
2.17015e-08
-7.71175e-05
-1.31024e-06
-7.64923e-05
-2.68109e-06
-7.5524e-05
-4.07606e-06
-7.42116e-05
-5.47933e-06
-7.25571e-05
-6.87424e-06
-7.05658e-05
-8.24347e-06
-6.82461e-05
-9.56922e-06
-6.56101e-05
-1.08334e-05
-6.26732e-05
-1.20182e-05
-5.94545e-05
-1.31059e-05
-5.59765e-05
-1.40797e-05
-5.22652e-05
-1.49237e-05
-4.835e-05
-1.56237e-05
-4.42635e-05
-1.61673e-05
-4.00409e-05
-1.65443e-05
-3.572e-05
-1.67473e-05
-3.13403e-05
-1.67718e-05
-2.69431e-05
-1.66166e-05
-2.25699e-05
-1.62839e-05
-1.82624e-05
-1.57795e-05
-1.40616e-05
-1.51126e-05
-1.00068e-05
-1.4296e-05
-6.13487e-06
-1.33454e-05
-2.47982e-06
-1.22794e-05
9.28275e-07
-1.11187e-05
4.06365e-06
-9.88563e-06
6.90537e-06
-8.60367e-06
9.43772e-06
-7.29648e-06
1.16504e-05
-5.98737e-06
1.35384e-05
-4.69857e-06
1.51024e-05
-3.45063e-06
1.63479e-05
-2.26191e-06
1.72853e-05
-1.14804e-06
1.79292e-05
-1.21732e-07
1.8298e-05
8.07512e-07
1.84127e-05
1.6334e-06
1.8297e-05
2.35281e-06
1.79757e-05
2.96559e-06
1.74745e-05
3.47428e-06
1.68191e-05
3.88377e-06
1.60345e-05
4.20082e-06
1.51447e-05
4.43364e-06
1.4172e-05
4.5914e-06
1.31367e-05
4.6837e-06
1.20573e-05
4.72006e-06
1.095e-05
4.70941e-06
9.82904e-06
4.65956e-06
8.7071e-06
4.57663e-06
7.5955e-06
4.46451e-06
6.50483e-06
4.32428e-06
5.4456e-06
4.15373e-06
4.42896e-06
3.94702e-06
3.46751e-06
3.69448e-06
2.5761e-06
3.38297e-06
1.77282e-06
2.99684e-06
1.08008e-06
2.51976e-06
5.26382e-07
1.93778e-06
1.48933e-07
1.24328e-06
4.44801e-07
-8.71498e-09
-6.9759e-08
-5.14865e-08
-6.81564e-08
-1.38439e-07
3.12618e-08
-2.73798e-07
1.86874e-07
-4.57987e-07
3.70162e-07
-6.89041e-07
5.61091e-07
-9.63723e-07
7.46871e-07
-1.27834e-06
9.20452e-07
-1.62937e-06
1.07912e-06
-2.01382e-06
1.22324e-06
-2.42952e-06
1.3552e-06
-2.87523e-06
1.47859e-06
-3.35071e-06
1.59751e-06
-3.85666e-06
1.71617e-06
-4.39467e-06
1.83859e-06
-4.96719e-06
1.96841e-06
-5.57739e-06
2.10885e-06
-6.22914e-06
2.26271e-06
-6.92689e-06
2.43242e-06
-7.67568e-06
2.62007e-06
-8.48101e-06
2.8275e-06
-9.34885e-06
3.05636e-06
-1.02856e-05
3.30809e-06
-1.12978e-05
3.584e-06
-1.23926e-05
3.88521e-06
-1.35771e-05
4.21264e-06
-1.48585e-05
4.56698e-06
-1.62441e-05
4.94858e-06
-1.77408e-05
5.35743e-06
-1.93555e-05
5.793e-06
-2.10941e-05
6.25419e-06
-2.29622e-05
6.73921e-06
-2.4964e-05
7.24548e-06
-2.71026e-05
7.7695e-06
-2.93796e-05
8.30682e-06
-3.17946e-05
8.85195e-06
-3.43454e-05
9.39833e-06
-3.70274e-05
9.93837e-06
-3.98333e-05
1.04634e-05
-4.27534e-05
1.09639e-05
-4.57755e-05
1.14296e-05
-4.88842e-05
1.18494e-05
-5.2062e-05
1.2212e-05
-5.52887e-05
1.2506e-05
-5.8542e-05
1.272e-05
-6.17977e-05
1.2843e-05
-6.503e-05
1.28649e-05
-6.82121e-05
1.27764e-05
-7.13163e-05
1.25694e-05
-7.43147e-05
1.22375e-05
-7.71794e-05
1.17758e-05
-7.98832e-05
1.1181e-05
-8.23992e-05
1.04518e-05
-8.47021e-05
9.58886e-06
-8.67675e-05
8.59463e-06
-8.85726e-05
7.47352e-06
-9.00964e-05
6.2318e-06
-9.13193e-05
4.87755e-06
-9.22242e-05
3.42058e-06
-9.27954e-05
1.87241e-06
-9.30198e-05
2.46127e-07
-9.28864e-05
-1.44366e-06
-9.23866e-05
-3.18093e-06
-9.15143e-05
-4.94834e-06
-9.02662e-05
-6.72738e-06
-8.8642e-05
-8.49848e-06
-8.66443e-05
-1.02412e-05
-8.4279e-05
-1.19345e-05
-8.15557e-05
-1.35568e-05
-7.84874e-05
-1.50865e-05
-7.50911e-05
-1.65023e-05
-7.13874e-05
-1.77833e-05
-6.74011e-05
-1.891e-05
-6.31607e-05
-1.98641e-05
-5.86986e-05
-2.06294e-05
-5.40507e-05
-2.11922e-05
-4.92561e-05
-2.1542e-05
-4.43565e-05
-2.16714e-05
-3.9396e-05
-2.15771e-05
-3.442e-05
-2.12598e-05
-2.94749e-05
-2.07246e-05
-2.46068e-05
-1.99807e-05
-1.98607e-05
-1.9042e-05
-1.528e-05
-1.79261e-05
-1.09051e-05
-1.66543e-05
-6.77285e-06
-1.52509e-05
-2.9158e-06
-1.37427e-05
6.38474e-07
-1.21579e-05
3.86785e-06
-1.05259e-05
6.75597e-06
-8.87548e-06
9.29238e-06
-7.23498e-06
1.14726e-05
-5.63084e-06
1.32978e-05
-4.08716e-06
1.47749e-05
-2.62507e-06
1.59154e-05
-1.26225e-06
1.67356e-05
-1.26643e-08
1.72553e-05
1.11364e-06
1.74977e-05
2.11047e-06
1.74878e-05
2.97542e-06
1.72526e-05
3.70957e-06
1.68192e-05
4.31708e-06
1.62153e-05
4.80474e-06
1.54675e-05
5.18145e-06
1.46013e-05
5.45757e-06
1.36407e-05
5.64434e-06
1.26075e-05
5.75321e-06
1.15218e-05
5.79517e-06
1.04013e-05
5.78004e-06
9.26212e-06
5.7158e-06
8.11879e-06
5.60784e-06
6.98482e-06
5.45825e-06
5.87333e-06
5.26522e-06
4.79781e-06
5.02254e-06
3.77298e-06
4.71931e-06
2.81581e-06
4.34014e-06
1.9468e-06
3.86585e-06
1.19158e-06
3.27497e-06
5.83271e-07
2.54609e-06
1.65749e-07
1.66081e-06
6.1055e-07
-2.13311e-08
-4.84279e-08
-9.67959e-08
7.30846e-09
-2.31931e-07
1.66397e-07
-4.27251e-07
3.82195e-07
-6.80215e-07
6.23126e-07
-9.86567e-07
8.67443e-07
-1.34139e-06
1.1017e-06
-1.73988e-06
1.31894e-06
-2.17782e-06
1.51706e-06
-2.65195e-06
1.69737e-06
-3.1601e-06
1.86336e-06
-3.7013e-06
2.01978e-06
-4.2757e-06
2.17191e-06
-4.88458e-06
2.32505e-06
-5.53022e-06
2.48423e-06
-6.21584e-06
2.65404e-06
-6.94551e-06
2.83853e-06
-7.72407e-06
3.04127e-06
-8.55706e-06
3.26541e-06
-9.45065e-06
3.51366e-06
-1.04116e-05
3.78846e-06
-1.14472e-05
4.09196e-06
-1.25652e-05
4.42607e-06
-1.37736e-05
4.79246e-06
-1.5081e-05
5.19253e-06
-1.64957e-05
5.62737e-06
-1.80264e-05
6.09769e-06
-1.96815e-05
6.60371e-06
-2.14692e-05
7.14506e-06
-2.33969e-05
7.72068e-06
-2.54713e-05
8.32864e-06
-2.76982e-05
8.96607e-06
-3.00817e-05
9.62901e-06
-3.26245e-05
1.03123e-05
-3.53272e-05
1.10095e-05
-3.8188e-05
1.17128e-05
-4.12029e-05
1.24132e-05
-4.4365e-05
1.31005e-05
-4.76645e-05
1.3763e-05
-5.10889e-05
1.43883e-05
-5.46226e-05
1.49632e-05
-5.82472e-05
1.5474e-05
-6.19419e-05
1.59068e-05
-6.56836e-05
1.62477e-05
-6.94469e-05
1.64833e-05
-7.32052e-05
1.66013e-05
-7.69306e-05
1.65902e-05
-8.05942e-05
1.644e-05
-8.41671e-05
1.61423e-05
-8.76203e-05
1.56908e-05
-9.09252e-05
1.50806e-05
-9.40537e-05
1.43095e-05
-9.69789e-05
1.33769e-05
-9.96746e-05
1.22846e-05
-0.000102116
1.10362e-05
-0.00010428
9.63746e-06
-0.000106144
8.0962e-06
-0.000107689
6.42201e-06
-0.000108895
4.62636e-06
-0.000109745
2.72252e-06
-0.000110224
7.25435e-07
-0.000110319
-1.34828e-06
-0.00011002
-3.48046e-06
-0.000109317
-5.65142e-06
-0.000108204
-7.84011e-06
-0.000106678
-1.00242e-05
-0.000104739
-1.21803e-05
-0.00010239
-1.42841e-05
-9.9636e-05
-1.63105e-05
-9.64883e-05
-1.82341e-05
-9.29609e-05
-2.00297e-05
-8.90719e-05
-2.16723e-05
-8.48442e-05
-2.31377e-05
-8.03048e-05
-2.44034e-05
-7.54854e-05
-2.54488e-05
-7.04218e-05
-2.62559e-05
-6.5154e-05
-2.68098e-05
-5.97256e-05
-2.70998e-05
-5.41837e-05
-2.71191e-05
-4.85774e-05
-2.68661e-05
-4.29579e-05
-2.63441e-05
-3.7377e-05
-2.55616e-05
-3.18863e-05
-2.45327e-05
-2.65361e-05
-2.32763e-05
-2.13744e-05
-2.1816e-05
-1.64458e-05
-2.01795e-05
-1.17906e-05
-1.83979e-05
-7.4438e-06
-1.65047e-05
-3.43497e-06
-1.45347e-05
2.12772e-07
-1.25232e-05
3.48277e-06
-1.0505e-05
6.36499e-06
-8.51306e-06
8.85587e-06
-6.57804e-06
1.09581e-05
-4.72729e-06
1.26802e-05
-2.98431e-06
1.40358e-05
-1.3683e-06
1.50433e-05
1.06101e-07
1.57249e-05
1.42888e-06
1.61058e-05
2.59457e-06
1.62133e-05
3.60205e-06
1.60763e-05
4.4541e-06
1.57241e-05
5.15691e-06
1.5186e-05
5.7195e-06
1.44906e-05
6.15304e-06
1.36649e-05
6.47006e-06
1.27344e-05
6.68372e-06
1.17226e-05
6.80696e-06
1.0651e-05
6.85163e-06
9.53914e-06
6.82764e-06
8.4049e-06
6.74207e-06
7.26489e-06
6.59826e-06
6.13506e-06
6.39506e-06
5.03148e-06
6.12612e-06
3.9713e-06
5.77949e-06
2.97389e-06
5.33754e-06
2.06238e-06
4.77736e-06
1.26559e-06
4.07177e-06
6.2067e-07
3.19101e-06
1.76583e-07
2.10489e-06
7.87132e-07
-3.52438e-08
-1.31841e-08
-1.4669e-07
1.18754e-07
-3.34759e-07
3.54466e-07
-5.95706e-07
6.43141e-07
-9.2356e-07
9.5098e-07
-1.31144e-06
1.25532e-06
-1.75251e-06
1.54277e-06
-2.24071e-06
1.80713e-06
-2.77108e-06
2.04743e-06
-3.34008e-06
2.26636e-06
-3.94558e-06
2.46887e-06
-4.58694e-06
2.66113e-06
-5.26483e-06
2.8498e-06
-5.98123e-06
3.04145e-06
-6.73925e-06
3.24226e-06
-7.54307e-06
3.45785e-06
-8.3978e-06
3.69326e-06
-9.30947e-06
3.95294e-06
-1.02849e-05
4.2408e-06
-1.13315e-05
4.56033e-06
-1.24577e-05
4.9146e-06
-1.36721e-05
5.30638e-06
-1.49841e-05
5.73805e-06
-1.64033e-05
6.21169e-06
-1.79397e-05
6.72895e-06
-1.96034e-05
7.29104e-06
-2.14043e-05
7.89857e-06
-2.3352e-05
8.55146e-06
-2.54558e-05
9.24882e-06
-2.77239e-05
9.98874e-06
-3.01634e-05
1.07682e-05
-3.27801e-05
1.15828e-05
-3.55779e-05
1.24268e-05
-3.85586e-05
1.3293e-05
-4.17215e-05
1.41724e-05
-4.50633e-05
1.50546e-05
-4.85776e-05
1.59276e-05
-5.22552e-05
1.6778e-05
-5.60835e-05
1.75912e-05
-6.00468e-05
1.83516e-05
-6.41267e-05
1.90431e-05
-6.83016e-05
1.9649e-05
-7.25478e-05
2.0153e-05
-7.68393e-05
2.05392e-05
-8.11486e-05
2.07926e-05
-8.54466e-05
2.08994e-05
-8.97037e-05
2.08473e-05
-9.38898e-05
2.0626e-05
-9.79744e-05
2.0227e-05
-0.000101928
1.96441e-05
-0.00010572
1.88731e-05
-0.000109323
1.79123e-05
-0.000112708
1.67622e-05
-0.000115849
1.54254e-05
-0.00011872
1.39068e-05
-0.000121296
1.22134e-05
-0.000123554
1.03542e-05
-0.000125472
8.34035e-06
-0.00012703
6.18474e-06
-0.00012821
3.90225e-06
-0.000128994
1.50952e-06
-0.000129367
-9.7499e-07
-0.000129317
-3.53118e-06
-0.000128831
-6.13722e-06
-0.000127901
-8.76973e-06
-0.000126522
-1.14039e-05
-0.000124689
-1.40134e-05
-0.000122402
-1.6571e-05
-0.000119664
-1.90481e-05
-0.000116482
-2.14159e-05
-0.000112867
-2.36449e-05
-0.000108834
-2.57057e-05
-0.000104401
-2.75698e-05
-9.95955e-05
-2.92095e-05
-9.44451e-05
-3.05992e-05
-8.89852e-05
-3.17158e-05
-8.32555e-05
-3.25395e-05
-7.73006e-05
-3.30546e-05
-7.11695e-05
-3.32502e-05
-6.4915e-05
-3.31206e-05
-5.85927e-05
-3.26664e-05
-5.22603e-05
-3.1894e-05
-4.59763e-05
-3.08167e-05
-3.97989e-05
-2.94537e-05
-3.37846e-05
-2.78303e-05
-2.79869e-05
-2.59773e-05
-2.24551e-05
-2.39297e-05
-1.72335e-05
-2.17263e-05
-1.23601e-05
-1.94081e-05
-7.86603e-06
-1.70173e-05
-3.7753e-06
-1.45957e-05
-1.04381e-07
-1.2184e-05
3.13768e-06
-9.8201e-06
5.94901e-06
-7.53863e-06
8.33451e-06
-5.36981e-06
1.03053e-05
-3.33904e-06
1.18778e-05
-1.46643e-06
1.30733e-05
2.33337e-07
1.39169e-05
1.75098e-06
1.44365e-05
3.08243e-06
1.46623e-05
4.22839e-06
1.46253e-05
5.19387e-06
1.43573e-05
5.9875e-06
1.38896e-05
6.62077e-06
1.32524e-05
7.10718e-06
1.24748e-05
7.46134e-06
1.15838e-05
7.69798e-06
1.06045e-05
7.83094e-06
9.56001e-06
7.87213e-06
8.47168e-06
7.8304e-06
7.35938e-06
7.71056e-06
6.24213e-06
7.51231e-06
5.13883e-06
7.22941e-06
4.06932e-06
6.84901e-06
3.05561e-06
6.35126e-06
2.12356e-06
5.70941e-06
1.30497e-06
4.89036e-06
6.40317e-07
3.85566e-06
1.82076e-07
2.56313e-06
9.69209e-07
-5.02931e-08
3.7109e-08
-2.00586e-07
2.69047e-07
-4.45668e-07
5.99548e-07
-7.77052e-07
9.74526e-07
-1.18496e-06
1.35889e-06
-1.65959e-06
1.72995e-06
-2.19202e-06
2.07521e-06
-2.77481e-06
2.38992e-06
-3.40226e-06
2.67488e-06
-4.07051e-06
2.93462e-06
-4.77758e-06
3.17594e-06
-5.52321e-06
3.40677e-06
-6.30875e-06
3.63534e-06
-7.137e-06
3.8697e-06
-8.01207e-06
4.11733e-06
-8.93927e-06
4.38505e-06
-9.92497e-06
4.67897e-06
-1.09766e-05
5.00454e-06
-1.21024e-05
5.36659e-06
-1.33115e-05
5.76943e-06
-1.46138e-05
6.21691e-06
-1.60198e-05
6.71239e-06
-1.75406e-05
7.25882e-06
-1.91875e-05
7.85865e-06
-2.09723e-05
8.51373e-06
-2.29065e-05
9.22529e-06
-2.50017e-05
9.99369e-06
-2.72686e-05
1.08184e-05
-2.97173e-05
1.16976e-05
-3.23568e-05
1.26283e-05
-3.51945e-05
1.36059e-05
-3.82359e-05
1.46242e-05
-4.14842e-05
1.56751e-05
-4.49401e-05
1.67489e-05
-4.86014e-05
1.78336e-05
-5.24626e-05
1.89158e-05
-5.65149e-05
1.998e-05
-6.07464e-05
2.10095e-05
-6.51414e-05
2.19862e-05
-6.96813e-05
2.28915e-05
-7.43443e-05
2.37061e-05
-7.91061e-05
2.44108e-05
-8.394e-05
2.49869e-05
-8.88175e-05
2.54166e-05
-9.37085e-05
2.56836e-05
-9.85821e-05
2.5773e-05
-0.000103407
2.56719e-05
-0.00010815
2.53698e-05
-0.000112782
2.48582e-05
-0.000117269
2.41313e-05
-0.000121581
2.31856e-05
-0.000125689
2.202e-05
-0.000129563
2.0636e-05
-0.000133175
1.90373e-05
-0.000136498
1.72299e-05
-0.000139507
1.52223e-05
-0.000142177
1.30247e-05
-0.000144487
1.06498e-05
-0.000146414
8.11193e-06
-0.000147939
5.4276e-06
-0.000149045
2.61508e-06
-0.000149714
-3.05444e-07
-0.000149933
-3.31222e-06
-0.000149689
-6.38147e-06
-0.000148971
-9.4879e-06
-0.00014777
-1.26045e-05
-0.000146081
-1.57028e-05
-0.000143899
-1.87526e-05
-0.000141225
-2.17228e-05
-0.00013806
-2.45809e-05
-0.000134411
-2.72938e-05
-0.000130289
-2.98279e-05
-0.000125708
-3.215e-05
-0.000120691
-3.42274e-05
-0.000115261
-3.60288e-05
-0.000109451
-3.75255e-05
-0.000103299
-3.86915e-05
-9.68486e-05
-3.95053e-05
-9.01489e-05
-3.995e-05
-8.32547e-05
-4.00148e-05
-7.62256e-05
-3.96955e-05
-6.91245e-05
-3.89951e-05
-6.2017e-05
-3.79243e-05
-5.49694e-05
-3.65013e-05
-4.80477e-05
-3.4752e-05
-4.13158e-05
-3.27091e-05
-3.48339e-05
-3.04117e-05
-2.86568e-05
-2.79033e-05
-2.28333e-05
-2.52316e-05
-1.74045e-05
-2.24461e-05
-1.24032e-05
-1.95969e-05
-7.85408e-06
-1.67331e-05
-3.7728e-06
-1.39014e-05
-1.66708e-07
-1.11447e-05
2.96483e-06
-8.50136e-06
5.62984e-06
-6.00405e-06
7.84287e-06
-3.67947e-06
9.62416e-06
-1.54795e-06