/*--------------------------------*- C++ -*----------------------------------*\
| =========                 |                                                 |
| \\      /  F ield         | OpenFOAM: The Open Source CFD Toolbox           |
|  \\    /   O peration     | Version:  2406                                  |
|   \\  /    A nd           | Website:  www.openfoam.com                      |
|    \\/     M anipulation  |                                                 |
\*---------------------------------------------------------------------------*/
FoamFile
{
    version     2.0;
    format      ascii;
    arch        "LSB;label=32;scalar=64";
    class       volVectorField;
    location    "24.95";
    object      U;
}
// * * * * * * * * * * * * * * * * * * * * * * * * * * * * * * * * * * * * * //

dimensions      [0 1 -1 0 0 0 0];

internalField   nonuniform List<vector> 
14400
(
(-8.57096e-06 8.52212e-06 0)
(1.50733e-05 -1.3316e-05 0)
(0.00010115 -3.28537e-05 0)
(0.000230515 -4.79657e-05 0)
(0.000394845 -5.54017e-05 0)
(0.000572114 -5.8748e-05 0)
(0.000756269 -5.80329e-05 0)
(0.000933949 -5.52845e-05 0)
(0.00110233 -5.07093e-05 0)
(0.00125462 -4.53751e-05 0)
(0.00139024 -3.94724e-05 0)
(0.00150655 -3.35739e-05 0)
(0.00160441 -2.78056e-05 0)
(0.00168359 -2.2451e-05 0)
(0.00174564 -1.75546e-05 0)
(0.00179147 -1.32165e-05 0)
(0.00182274 -9.40289e-06 0)
(0.0018406 -6.09159e-06 0)
(0.0018463 -3.18148e-06 0)
(0.00184059 -5.6615e-07 0)
(0.00182393 1.90702e-06 0)
(0.00179621 4.39703e-06 0)
(0.00175684 7.08476e-06 0)
(0.00170463 1.01487e-05 0)
(0.00163784 1.37683e-05 0)
(0.00155415 1.81088e-05 0)
(0.00145077 2.33214e-05 0)
(0.00132444 2.95353e-05 0)
(0.00117151 3.68602e-05 0)
(0.000988038 4.53843e-05 0)
(0.000769836 5.51781e-05 0)
(0.000512538 6.62957e-05 0)
(0.000211675 7.87763e-05 0)
(-0.000137265 9.26435e-05 0)
(-0.000538759 0.000107904 0)
(-0.000997172 0.000124541 0)
(-0.00151665 0.000142514 0)
(-0.00210102 0.000161747 0)
(-0.00275363 0.000182127 0)
(-0.00347724 0.000203498 0)
(-0.00427387 0.000225658 0)
(-0.00514458 0.000248354 0)
(-0.00608938 0.000271285 0)
(-0.00710707 0.000294102 0)
(-0.00819506 0.000316408 0)
(-0.00934929 0.000337766 0)
(-0.0105641 0.000357701 0)
(-0.0118322 0.00037571 0)
(-0.0131447 0.000391269 0)
(-0.0144909 0.000403842 0)
(-0.0158585 0.000412889 0)
(-0.0172337 0.00041788 0)
(-0.0186011 0.000418298 0)
(-0.0199441 0.00041366 0)
(-0.0212451 0.000403519 0)
(-0.0224853 0.000387479 0)
(-0.0236454 0.000365208 0)
(-0.0247057 0.000336452 0)
(-0.0256464 0.000301046 0)
(-0.0264479 0.000258935 0)
(-0.0270912 0.000210188 0)
(-0.0275584 0.000155018 0)
(-0.0278329 9.37959e-05 0)
(-0.0279001 2.70706e-05 0)
(-0.0277477 -4.4419e-05 0)
(-0.0273659 -0.000119735 0)
(-0.0267486 -0.000197736 0)
(-0.025893 -0.000277083 0)
(-0.0248007 -0.000356256 0)
(-0.0234773 -0.000433575 0)
(-0.0219336 -0.000507246 0)
(-0.0201848 -0.000575407 0)
(-0.0182511 -0.000636195 0)
(-0.0161573 -0.000687819 0)
(-0.0139326 -0.000728644 0)
(-0.01161 -0.000757273 0)
(-0.0092255 -0.000772628 0)
(-0.00681755 -0.000774029 0)
(-0.00442558 -0.000761249 0)
(-0.00208911 -0.000734551 0)
(0.000153549 -0.000694702 0)
(0.00226654 -0.000642953 0)
(0.00421764 -0.000580991 0)
(0.00597932 -0.000510861 0)
(0.00752964 -0.000434868 0)
(0.00885283 -0.000355455 0)
(0.00993974 -0.000275077 0)
(0.0107878 -0.000196083 0)
(0.0114008 -0.0001206 0)
(0.0117885 -5.04436e-05 0)
(0.0119656 1.29443e-05 0)
(0.0119511 6.8532e-05 0)
(0.011767 0.000115704 0)
(0.0114373 0.000154237 0)
(0.0109869 0.000184263 0)
(0.0104408 0.000206204 0)
(0.00982275 0.000220717 0)
(0.00915516 0.000228615 0)
(0.00845807 0.000230815 0)
(0.00774913 0.00022826 0)
(0.00704315 0.000221899 0)
(0.00635239 0.000212614 0)
(0.00568624 0.000201239 0)
(0.00505189 0.000188481 0)
(0.00445395 0.000175004 0)
(0.00389552 0.000161306 0)
(0.00337732 0.000147893 0)
(0.0028996 0.000135043 0)
(0.00246023 0.000123142 0)
(0.00205797 0.000112199 0)
(0.00168896 0.000102477 0)
(0.00135235 9.3537e-05 0)
(0.00104406 8.54655e-05 0)
(0.000766463 7.69935e-05 0)
(0.000517644 6.80112e-05 0)
(0.000306724 5.58521e-05 0)
(0.000136636 4.08478e-05 0)
(2.37426e-05 1.92615e-05 0)
(-2.7505e-05 -2.32018e-06 0)
(-1.85019e-05 -1.82122e-05 0)
(1.28966e-05 -1.48484e-05 0)
(0.000125579 -0.000126492 0)
(0.000361262 -0.000223286 0)
(0.00067905 -0.000298873 0)
(0.00106719 -0.000341977 0)
(0.00148478 -0.000362333 0)
(0.00191709 -0.000361431 0)
(0.00233702 -0.000346626 0)
(0.00273498 -0.000320644 0)
(0.00309618 -0.000288124 0)
(0.00341643 -0.000251267 0)
(0.0036894 -0.000212817 0)
(0.00391475 -0.000174163 0)
(0.00409119 -0.000136722 0)
(0.00422048 -0.000101112 0)
(0.00430369 -6.78086e-05 0)
(0.00434313 -3.67826e-05 0)
(0.00434024 -7.82455e-06 0)
(0.00429652 1.96091e-05 0)
(0.00421237 4.62246e-05 0)
(0.00408744 7.29414e-05 0)
(0.00392002 0.000100785 0)
(0.00370724 0.000130882 0)
(0.00344473 0.000164378 0)
(0.00312684 0.000202409 0)
(0.00274651 0.000246038 0)
(0.00229552 0.000296225 0)
(0.00176456 0.000353794 0)
(0.00114347 0.000419419 0)
(0.000421455 0.000493613 0)
(-0.000412725 0.000576732 0)
(-0.00137047 0.000668972 0)
(-0.00246312 0.000770365 0)
(-0.00370165 0.000880773 0)
(-0.00509645 0.000999864 0)
(-0.00665694 0.00112709 0)
(-0.00839127 0.00126167 0)
(-0.0103059 0.00140252 0)
(-0.0124054 0.00154831 0)
(-0.0146916 0.00169734 0)
(-0.0171638 0.00184765 0)
(-0.019818 0.00199693 0)
(-0.0226466 0.00214261 0)
(-0.0256383 0.00228187 0)
(-0.028778 0.00241166 0)
(-0.0320463 0.0025288 0)
(-0.0354201 0.00263004 0)
(-0.0388722 0.00271208 0)
(-0.0423719 0.00277171 0)
(-0.045885 0.00280585 0)
(-0.0493748 0.00281163 0)
(-0.0528017 0.00278645 0)
(-0.0561248 0.00272806 0)
(-0.0593017 0.00263462 0)
(-0.0622894 0.00250473 0)
(-0.0650452 0.0023375 0)
(-0.067527 0.00213257 0)
(-0.0696942 0.00189017 0)
(-0.0715084 0.00161115 0)
(-0.0729336 0.001297 0)
(-0.0739375 0.000949894 0)
(-0.0744914 0.000572704 0)
(-0.0745715 0.000169037 0)
(-0.0741587 -0.000256762 0)
(-0.0732397 -0.000699603 0)
(-0.0718073 -0.00115367 0)
(-0.0698608 -0.00161244 0)
(-0.0674065 -0.00206878 0)
(-0.0644581 -0.00251497 0)
(-0.0610367 -0.00294291 0)
(-0.0571711 -0.00334423 0)
(-0.0528978 -0.0037105 0)
(-0.0482608 -0.00403349 0)
(-0.0433112 -0.00430539 0)
(-0.0381067 -0.00451918 0)
(-0.0327108 -0.00466887 0)
(-0.0271918 -0.0047498 0)
(-0.0216215 -0.00475896 0)
(-0.016074 -0.00469518 0)
(-0.0106236 -0.0045593 0)
(-0.00534367 -0.00435428 0)
(-0.00030425 -0.00408518 0)
(0.0044294 -0.00375902 0)
(0.00879877 -0.00338459 0)
(0.0127537 -0.00297213 0)
(0.0162536 -0.00253289 0)
(0.0192688 -0.00207869 0)
(0.0217813 -0.00162141 0)
(0.0237847 -0.00117247 0)
(0.0252843 -0.000742396 0)
(0.0262966 -0.000340361 0)
(0.026848 2.60899e-05 0)
(0.0269736 0.000351275 0)
(0.0267157 0.000631457 0)
(0.0261212 0.000864831 0)
(0.0252405 0.00105139 0)
(0.0241251 0.00119272 0)
(0.0228257 0.00129173 0)
(0.0213908 0.00135233 0)
(0.0198654 0.00137912 0)
(0.0182899 0.0013771 0)
(0.0166993 0.00135135 0)
(0.0151232 0.00130691 0)
(0.0135858 0.00124842 0)
(0.012105 0.00118029 0)
(0.0106948 0.00110624 0)
(0.00936342 0.00102971 0)
(0.00811636 0.000953232 0)
(0.0069541 0.000879161 0)
(0.00587724 0.000808468 0)
(0.00488144 0.000742204 0)
(0.00396673 0.000679003 0)
(0.00312798 0.000618221 0)
(0.00237073 0.000554927 0)
(0.00169367 0.000487022 0)
(0.00111419 0.000405113 0)
(0.000636917 0.00030965 0)
(0.000290483 0.000190531 0)
(7.40949e-05 7.19467e-05 0)
(-2.2764e-06 -2.7385e-05 0)
(3.18205e-05 -9.96066e-05 0)
(0.000220599 -0.000361639 0)
(0.000579163 -0.000582346 0)
(0.00103878 -0.000750584 0)
(0.00158698 -0.000851206 0)
(0.00216965 -0.000897711 0)
(0.00276818 -0.000895678 0)
(0.00334692 -0.000858461 0)
(0.00389212 -0.000793849 0)
(0.00438361 -0.000711368 0)
(0.0048142 -0.000617105 0)
(0.00517445 -0.000517029 0)
(0.00546222 -0.000414934 0)
(0.00567451 -0.000313978 0)
(0.005812 -0.000215879 0)
(0.00587466 -0.000121652 0)
(0.00586385 -3.13083e-05 0)
(0.00577987 5.57685e-05 0)
(0.00562286 0.000140912 0)
(0.00539145 0.000225954 0)
(0.00508309 0.000313206 0)
(0.00469331 0.000405289 0)
(0.00421588 0.000505046 0)
(0.00364248 0.000615384 0)
(0.0029629 0.000739157 0)
(0.002165 0.000879028 0)
(0.00123506 0.00103736 0)
(0.000157929 0.00121615 0)
(-0.00108254 0.00141693 0)
(-0.00250314 0.00164077 0)
(-0.00412084 0.00188823 0)
(-0.00595235 0.00215936 0)
(-0.00801362 0.00245366 0)
(-0.0103193 0.00277004 0)
(-0.0128821 0.0031068 0)
(-0.0157125 0.00346152 0)
(-0.0188177 0.00383106 0)
(-0.0222013 0.00421149 0)
(-0.0258625 0.00459805 0)
(-0.0297958 0.00498521 0)
(-0.0339904 0.00536665 0)
(-0.0384296 0.00573539 0)
(-0.0430911 0.0060839 0)
(-0.0479464 0.00640424 0)
(-0.0529612 0.00668824 0)
(-0.0580961 0.00692774 0)
(-0.0633063 0.00711474 0)
(-0.0685429 0.00724168 0)
(-0.0737535 0.00730156 0)
(-0.078883 0.00728821 0)
(-0.083875 0.00719637 0)
(-0.088672 0.00702188 0)
(-0.0932171 0.00676174 0)
(-0.0974546 0.00641418 0)
(-0.101331 0.00597872 0)
(-0.104795 0.00545617 0)
(-0.1078 0.00484861 0)
(-0.110302 0.00415944 0)
(-0.112264 0.00339329 0)
(-0.11365 0.00255605 0)
(-0.114433 0.00165484 0)
(-0.114591 0.000698003 0)
(-0.114106 -0.000304931 0)
(-0.112967 -0.00134325 0)
(-0.111171 -0.00240509 0)
(-0.10872 -0.0034775 0)
(-0.105623 -0.00454649 0)
(-0.101895 -0.00559717 0)
(-0.0975607 -0.00661392 0)
(-0.0926501 -0.00758055 0)
(-0.0872013 -0.00848061 0)
(-0.0812594 -0.00929773 0)
(-0.074877 -0.010016 0)
(-0.0681137 -0.0106204 0)
(-0.0610355 -0.0110973 0)
(-0.0537144 -0.011435 0)
(-0.0462276 -0.0116243 0)
(-0.0386564 -0.0116588 0)
(-0.0310851 -0.0115357 0)
(-0.0235993 -0.0112558 0)
(-0.0162847 -0.0108236 0)
(-0.009225 -0.0102481 0)
(-0.00250029 -0.00954191 0)
(0.0038149 -0.00872132 0)
(0.00965336 -0.00780587 0)
(0.014957 -0.00681763 0)
(0.0196781 -0.00578046 0)
(0.0237809 -0.00471913 0)
(0.0272424 -0.00365839 0)
(0.0300527 -0.00262203 0)
(0.0322153 -0.00163196 0)
(0.0337469 -0.000707456 0)
(0.0346761 0.000135525 0)
(0.0350427 0.000884776 0)
(0.0348955 0.00153211 0)
(0.0342907 0.00207338 0)
(0.0332896 0.00250831 0)
(0.0319563 0.00284008 0)
(0.0303551 0.00307486 0)
(0.0285491 0.00322115 0)
(0.0265973 0.00328914 0)
(0.0245544 0.00329 0)
(0.0224681 0.00323536 0)
(0.0203803 0.00313663 0)
(0.0183245 0.00300483 0)
(0.0163285 0.00284989 0)
(0.0144118 0.00268092 0)
(0.0125895 0.00250524 0)
(0.0108692 0.00232919 0)
(0.00925737 0.00215642 0)
(0.00775348 0.00198958 0)
(0.00636147 0.00182699 0)
(0.00507783 0.00166655 0)
(0.00391213 0.00149926 0)
(0.00286346 0.001319 0)
(0.00195553 0.00110945 0)
(0.00119111 0.000869047 0)
(0.000610793 0.000584188 0)
(0.00020732 0.000293334 0)
(2.2475e-05 2.8397e-05 0)
(4.65599e-05 -0.000226566 0)
(0.000295936 -0.000678251 0)
(0.000748303 -0.00104205 0)
(0.00130875 -0.00130973 0)
(0.00196432 -0.00146998 0)
(0.00265082 -0.00154026 0)
(0.00334876 -0.00153147 0)
(0.00401696 -0.00146268 0)
(0.00463973 -0.00134724 0)
(0.00519311 -0.00119972 0)
(0.00566779 -0.00103049 0)
(0.00605157 -0.000849013 0)
(0.00634036 -0.000661746 0)
(0.00652891 -0.000473743 0)
(0.00661601 -0.000287905 0)
(0.00659953 -0.000105769 0)
(0.0064787 7.27171e-05 0)
(0.00625144 0.000248775 0)
(0.00591528 0.00042481 0)
(0.00546582 0.00060413 0)
(0.0048971 0.000790848 0)
(0.00420075 0.000989618 0)
(0.00336622 0.00120545 0)
(0.0023804 0.00144343 0)
(0.00122796 0.00170851 0)
(-0.000108648 0.00200522 0)
(-0.00164868 0.00233748 0)
(-0.00341274 0.00270846 0)
(-0.0054222 0.00312037 0)
(-0.00769853 0.00357444 0)
(-0.0102626 0.00407082 0)
(-0.0131341 0.00460852 0)
(-0.0163302 0.00518534 0)
(-0.0198656 0.00579781 0)
(-0.0237506 0.0064411 0)
(-0.0279913 0.00710898 0)
(-0.0325879 0.00779373 0)
(-0.0375343 0.00848616 0)
(-0.0428176 0.00917568 0)
(-0.0484173 0.0098504 0)
(-0.0543054 0.0104974 0)
(-0.0604462 0.0111028 0)
(-0.0667964 0.0116526 0)
(-0.0733064 0.0121324 0)
(-0.0799202 0.0125283 0)
(-0.0865774 0.0128272 0)
(-0.0932137 0.0130169 0)
(-0.0997626 0.013087 0)
(-0.106157 0.0130286 0)
(-0.11233 0.012835 0)
(-0.118216 0.0125013 0)
(-0.123753 0.012025 0)
(-0.128883 0.0114056 0)
(-0.133552 0.0106447 0)
(-0.137709 0.00974577 0)
(-0.141311 0.00871418 0)
(-0.144319 0.00755696 0)
(-0.1467 0.00628269 0)
(-0.148426 0.00490141 0)
(-0.149475 0.00342449 0)
(-0.149829 0.00186465 0)
(-0.149478 0.000235824 0)
(-0.148413 -0.00144678 0)
(-0.146634 -0.00316672 0)
(-0.144143 -0.00490634 0)
(-0.140949 -0.00664677 0)
(-0.137067 -0.008368 0)
(-0.132515 -0.010049 0)
(-0.127319 -0.0116677 0)
(-0.121511 -0.0132016 0)
(-0.115127 -0.0146276 0)
(-0.108211 -0.0159227 0)
(-0.100815 -0.0170645 0)
(-0.0929944 -0.0180316 0)
(-0.0848135 -0.0188044 0)
(-0.0763418 -0.0193657 0)
(-0.0676543 -0.0197014 0)
(-0.0588314 -0.0198012 0)
(-0.049957 -0.0196596 0)
(-0.0411182 -0.0192758 0)
(-0.0324033 -0.0186547 0)
(-0.0239005 -0.0178068 0)
(-0.0156961 -0.016748 0)
(-0.00787279 -0.0155001 0)
(-0.000507929 -0.0140895 0)
(0.00632839 -0.0125468 0)
(0.0125749 -0.0109059 0)
(0.0181805 -0.00920317 0)
(0.0231057 -0.00747553 0)
(0.0273237 -0.0057598 0)
(0.0308206 -0.00409118 0)
(0.0335961 -0.00250203 0)
(0.0356634 -0.00102082 0)
(0.0370483 0.000328773 0)
(0.0377888 0.0015286 0)
(0.0379334 0.00256637 0)
(0.0375392 0.0034358 0)
(0.0366703 0.0041364 0)
(0.0353948 0.00467303 0)
(0.0337831 0.00505509 0)
(0.0319049 0.00529578 0)
(0.0298275 0.00541097 0)
(0.0276133 0.00541834 0)
(0.0253193 0.00533623 0)
(0.0229945 0.00518307 0)
(0.0206813 0.00497625 0)
(0.0184128 0.00473204 0)
(0.0162167 0.00446425 0)
(0.014111 0.0041848 0)
(0.0121116 0.0039016 0)
(0.0102249 0.00362019 0)
(0.00846189 0.00333977 0)
(0.00682283 0.00305765 0)
(0.0053229 0.00276179 0)
(0.00396161 0.00244228 0)
(0.00276905 0.00207707 0)
(0.00174453 0.00166095 0)
(0.000941996 0.00117624 0)
(0.00034921 0.000663873 0)
(4.9193e-05 0.000157113 0)
(5.44218e-05 -0.000389023 0)
(0.000342636 -0.00106775 0)
(0.000858142 -0.00159396 0)
(0.00148439 -0.00196783 0)
(0.00220617 -0.00218784 0)
(0.00295033 -0.00227646 0)
(0.00369681 -0.00225175 0)
(0.00440034 -0.00213865 0)
(0.00504435 -0.00195678 0)
(0.00560226 -0.00172584 0)
(0.00606331 -0.00146086 0)
(0.00641296 -0.00117487 0)
(0.0066452 -0.000877129 0)
(0.00675237 -0.00057458 0)
(0.00673088 -0.000271268 0)
(0.00657582 3.09035e-05 0)
(0.00628352 0.000332263 0)
(0.00584859 0.000634944 0)
(0.00526492 0.000942789 0)
(0.00452409 0.00126102 0)
(0.00361568 0.001596 0)
(0.00252653 0.00195488 0)
(0.00124089 0.00234528 0)
(-0.000259718 0.00277482 0)
(-0.00199618 0.00325077 0)
(-0.00399148 0.00377962 0)
(-0.00627004 0.00436672 0)
(-0.00885707 0.00501603 0)
(-0.0117777 0.00572982 0)
(-0.015056 0.00650853 0)
(-0.0187139 0.00735064 0)
(-0.0227702 0.0082525 0)
(-0.0272394 0.00920831 0)
(-0.0321305 0.01021 0)
(-0.0374458 0.011247 0)
(-0.0431802 0.0123067 0)
(-0.0493201 0.0133738 0)
(-0.0558428 0.0144313 0)
(-0.0627165 0.01546 0)
(-0.0698999 0.0164395 0)
(-0.0773431 0.0173485 0)
(-0.084988 0.0181655 0)
(-0.0927701 0.0188693 0)
(-0.10062 0.0194398 0)
(-0.108463 0.0198587 0)
(-0.116226 0.0201099 0)
(-0.123832 0.0201802 0)
(-0.131211 0.0200593 0)
(-0.138291 0.0197403 0)
(-0.145007 0.0192192 0)
(-0.1513 0.0184955 0)
(-0.157116 0.0175712 0)
(-0.162406 0.0164514 0)
(-0.167129 0.0151432 0)
(-0.171248 0.0136559 0)
(-0.174735 0.0120005 0)
(-0.177563 0.0101895 0)
(-0.179712 0.00823683 0)
(-0.181167 0.00615738 0)
(-0.181914 0.00396731 0)
(-0.181946 0.0016838 0)
(-0.181257 -0.000674835 0)
(-0.179845 -0.00308916 0)
(-0.177711 -0.00553849 0)
(-0.17486 -0.00800083 0)
(-0.171299 -0.0104528 0)
(-0.167041 -0.0128696 0)
(-0.1621 -0.0152252 0)
(-0.156498 -0.0174922 0)
(-0.150259 -0.019642 0)
(-0.143415 -0.0216457 0)
(-0.136002 -0.0234737 0)
(-0.128064 -0.025097 0)
(-0.11965 -0.0264875 0)
(-0.110818 -0.0276188 0)
(-0.101632 -0.0284672 0)
(-0.0921612 -0.029013 0)
(-0.0824832 -0.0292407 0)
(-0.0726798 -0.0291405 0)
(-0.0628372 -0.0287088 0)
(-0.0530451 -0.0279491 0)
(-0.0433942 -0.0268721 0)
(-0.0339753 -0.0254959 0)
(-0.0248772 -0.0238458 0)
(-0.0161848 -0.021954 0)
(-0.00797729 -0.0198585 0)
(-0.000326677 -0.0176023 0)
(0.00670404 -0.0152319 0)
(0.0130621 -0.0127961 0)
(0.018706 -0.0103441 0)
(0.0236065 -0.00792437 0)
(0.0277471 -0.00558266 0)
(0.0311244 -0.00336092 0)
(0.0337483 -0.0012958 0)
(0.035641 0.000582367 0)
(0.0368374 0.00225038 0)
(0.0373831 0.00369271 0)
(0.0373334 0.0049016 0)
(0.0367511 0.00587693 0)
(0.0357049 0.00662557 0)
(0.0342664 0.00716062 0)
(0.0325083 0.00750015 0)
(0.0305014 0.00766609 0)
(0.0283133 0.00768267 0)
(0.0260052 0.00757543 0)
(0.0236329 0.00736956 0)
(0.0212428 0.00708933 0)
(0.0188757 0.0067563 0)
(0.0165614 0.00638938 0)
(0.0143276 0.00600234 0)
(0.0121897 0.00560498 0)
(0.0101677 0.00519902 0)
(0.00826755 0.00478209 0)
(0.00651155 0.00434056 0)
(0.00490089 0.00386082 0)
(0.00347334 0.00331612 0)
(0.00222638 0.00269506 0)
(0.00122963 0.00197467 0)
(0.00046935 0.0011872 0)
(7.01954e-05 0.000357181 0)
(5.9208e-05 -0.00056737 0)
(0.000371229 -0.00149339 0)
(0.000923359 -0.00218869 0)
(0.00158399 -0.00266555 0)
(0.00233464 -0.00293676 0)
(0.0030953 -0.00303198 0)
(0.00384522 -0.0029781 0)
(0.00453629 -0.00280613 0)
(0.0051515 -0.00254218 0)
(0.0056624 -0.00221083 0)
(0.00605709 -0.00183155 0)
(0.00631901 -0.00142055 0)
(0.00644012 -0.00098965 0)
(0.00641017 -0.000547297 0)
(0.00622271 -9.83794e-05 0)
(0.00586954 0.000355186 0)
(0.00534332 0.000814356 0)
(0.00463453 0.00128255 0)
(0.00373256 0.00176544 0)
(0.00262406 0.00227053 0)
(0.00129332 0.00280678 0)
(-0.000278415 0.00338413 0)
(-0.00211262 0.00401295 0)
(-0.00423352 0.0047034 0)
(-0.00666747 0.00546489 0)
(-0.00944238 0.00630539 0)
(-0.0125868 0.00723098 0)
(-0.0161287 0.00824533 0)
(-0.0200945 0.00934938 0)
(-0.0245077 0.010541 0)
(-0.029387 0.0118149 0)
(-0.0347455 0.0131624 0)
(-0.040589 0.0145713 0)
(-0.0469146 0.0160259 0)
(-0.05371 0.0175072 0)
(-0.060952 0.0189929 0)
(-0.068607 0.0204581 0)
(-0.0766301 0.0218753 0)
(-0.0849665 0.0232156 0)
(-0.0935518 0.0244495 0)
(-0.102314 0.0255479 0)
(-0.111177 0.0264829 0)
(-0.120059 0.0272289 0)
(-0.128877 0.0277634 0)
(-0.137553 0.0280679 0)
(-0.146007 0.0281281 0)
(-0.154168 0.0279339 0)
(-0.161968 0.0274801 0)
(-0.169348 0.0267653 0)
(-0.176257 0.0257923 0)
(-0.182647 0.0245671 0)
(-0.188482 0.0230986 0)
(-0.193729 0.0213981 0)
(-0.198362 0.0194788 0)
(-0.202359 0.0173554 0)
(-0.205703 0.0150434 0)
(-0.20838 0.0125597 0)
(-0.210379 0.00992146 0)
(-0.21169 0.0071468 0)
(-0.212307 0.00425446 0)
(-0.212223 0.00126398 0)
(-0.211435 -0.00180417 0)
(-0.20994 -0.00492835 0)
(-0.207736 -0.00808563 0)
(-0.204824 -0.0112515 0)
(-0.201208 -0.0143999 0)
(-0.196891 -0.0175027 0)
(-0.191882 -0.0205301 0)
(-0.186194 -0.0234504 0)
(-0.179843 -0.0262304 0)
(-0.172851 -0.0288353 0)
(-0.165245 -0.0312296 0)
(-0.15706 -0.0333776 0)
(-0.148337 -0.0352442 0)
(-0.139125 -0.0367957 0)
(-0.129481 -0.0380014 0)
(-0.119469 -0.0388342 0)
(-0.109161 -0.0392722 0)
(-0.0986386 -0.0392998 0)
(-0.0879855 -0.038909 0)
(-0.0772928 -0.0380997 0)
(-0.0666545 -0.0368811 0)
(-0.056166 -0.0352716 0)
(-0.0459222 -0.0332984 0)
(-0.0360157 -0.0309978 0)
(-0.0265346 -0.0284136 0)
(-0.0175603 -0.0255962 0)
(-0.00916641 -0.022601 0)
(-0.00141682 -0.0194871 0)
(0.00563515 -0.0163148 0)
(0.0119477 -0.0131446 0)
(0.017491 -0.0100347 0)
(0.0222479 -0.00703974 0)
(0.0262135 -0.00420923 0)
(0.0293956 -0.00158601 0)
(0.0318142 0.000794724 0)
(0.0335011 0.00290636 0)
(0.0344991 0.00473136 0)
(0.0348604 0.00626151 0)
(0.0346461 0.00749759 0)
(0.0339227 0.00844891 0)
(0.0327617 0.00913212 0)
(0.0312357 0.00957013 0)
(0.0294175 0.00979037 0)
(0.0273758 0.0098234 0)
(0.0251764 0.00970087 0)
(0.0228768 0.00945443 0)
(0.02053 0.0091134 0)
(0.0181777 0.00870416 0)
(0.0158594 0.00824734 0)
(0.0136011 0.00775821 0)
(0.0114331 0.00724253 0)
(0.00936862 0.00669961 0)
(0.00743853 0.00611593 0)
(0.0056474 0.00547481 0)
(0.0040417 0.00474564 0)
(0.00261934 0.00390846 0)
(0.00146557 0.0029324 0)
(0.000567999 0.00183105 0)
(8.71905e-05 0.000611682 0)
(6.09888e-05 -0.000758308 0)
(0.000383129 -0.00194491 0)
(0.000948852 -0.00281215 0)
(0.00161652 -0.00338702 0)
(0.00236394 -0.00369912 0)
(0.00310599 -0.00378709 0)
(0.00382076 -0.00368804 0)
(0.00445818 -0.0034396 0)
(0.00500073 -0.00307468 0)
(0.00541863 -0.00262252 0)
(0.00569887 -0.00210687 0)
(0.00582301 -0.00154675 0)
(0.00578089 -0.000956143 0)
(0.00555943 -0.000344596 0)
(0.00514899 0.00028259 0)
(0.00453754 0.000923941 0)
(0.00371349 0.00158149 0)
(0.00266254 0.00226041 0)
(0.00136887 0.00296862 0)
(-0.000186518 0.0037163 0)
(-0.00202519 0.00451532 0)
(-0.00417194 0.00537856 0)
(-0.00665409 0.00631908 0)
(-0.00950137 0.0073493 0)
(-0.0127448 0.0084801 0)
(-0.0164159 0.00972 0)
(-0.0205451 0.0110744 0)
(-0.0251604 0.0125448 0)
(-0.0302856 0.0141288 0)
(-0.0359386 0.0158189 0)
(-0.0421299 0.0176033 0)
(-0.0488607 0.019465 0)
(-0.0561213 0.0213822 0)
(-0.0638908 0.0233286 0)
(-0.0721356 0.0252738 0)
(-0.0808097 0.0271836 0)
(-0.0898554 0.0290217 0)
(-0.0992042 0.0307501 0)
(-0.108779 0.0323309 0)
(-0.118497 0.0337273 0)
(-0.128269 0.0349053 0)
(-0.138009 0.035835 0)
(-0.147631 0.036491 0)
(-0.157052 0.0368537 0)
(-0.166198 0.0369091 0)
(-0.175 0.0366492 0)
(-0.183399 0.0360714 0)
(-0.191343 0.0351782 0)
(-0.198791 0.0339761 0)
(-0.205706 0.0324754 0)
(-0.212062 0.030689 0)
(-0.217834 0.028632 0)
(-0.223005 0.0263208 0)
(-0.22756 0.0237728 0)
(-0.231488 0.0210062 0)
(-0.23478 0.0180391 0)
(-0.237426 0.0148903 0)
(-0.239421 0.0115785 0)
(-0.240755 0.00812287 0)
(-0.241424 0.00454295 0)
(-0.241419 0.000859012 0)
(-0.240735 -0.00290772 0)
(-0.239366 -0.00673476 0)
(-0.237306 -0.010598 0)
(-0.234549 -0.0144716 0)
(-0.231092 -0.0183273 0)
(-0.226933 -0.0221346 0)
(-0.222072 -0.0258607 0)
(-0.216512 -0.0294698 0)
(-0.21026 -0.032924 0)
(-0.203328 -0.0361833 0)
(-0.195733 -0.0392058 0)
(-0.187498 -0.0419487 0)
(-0.178656 -0.0443693 0)
(-0.169245 -0.0464256 0)
(-0.159314 -0.0480782 0)
(-0.148919 -0.0492916 0)
(-0.138129 -0.0500355 0)
(-0.127018 -0.0502865 0)
(-0.115671 -0.05003 0)
(-0.10418 -0.0492607 0)
(-0.0926424 -0.0479844 0)
(-0.0811594 -0.0462177 0)
(-0.0698339 -0.043989 0)
(-0.0587678 -0.0413372 0)
(-0.0480597 -0.0383114 0)
(-0.0378024 -0.0349692 0)
(-0.0280809 -0.0313749 0)
(-0.0189707 -0.0275977 0)
(-0.0105361 -0.0237092 0)
(-0.00282992 -0.0197817 0)
(0.00410742 -0.0158856 0)
(0.0102478 -0.012088 0)
(0.0155755 -0.00845077 0)
(0.020087 -0.0050289 0)
(0.0237903 -0.0018695 0)
(0.0267053 0.000989404 0)
(0.0288626 0.00351961 0)
(0.0303033 0.00570326 0)
(0.0310778 0.00753296 0)
(0.0312447 0.00901154 0)
(0.0308693 0.0101513 0)
(0.0300209 0.0109731 0)
(0.0287722 0.0115044 0)
(0.0271947 0.0117784 0)
(0.0253597 0.011831 0)
(0.0233323 0.0116998 0)
(0.0211748 0.011421 0)
(0.0189393 0.0110281 0)
(0.0166764 0.0105491 0)
(0.0144222 0.0100052 0)
(0.0122179 0.00940745 0)
(0.0100849 0.00875789 0)
(0.00806362 0.00804443 0)
(0.00616383 0.00724781 0)
(0.00444154 0.00633412 0)
(0.00289776 0.00527305 0)
(0.00163237 0.00402383 0)
(0.000636414 0.00257514 0)
(9.82713e-05 0.000911002 0)
(6.15216e-05 -0.000950819 0)
(0.000384201 -0.00239851 0)
(0.000944354 -0.00343137 0)
(0.00159472 -0.00409237 0)
(0.0023092 -0.00442951 0)
(0.00299973 -0.00449218 0)
(0.00364311 -0.00432876 0)
(0.00418817 -0.00398395 0)
(0.00461681 -0.00349751 0)
(0.00489828 -0.00290305 0)
(0.00501831 -0.00222813 0)
(0.0049566 -0.001494 0)
(0.00470054 -0.00071623 0)
(0.004234 9.51537e-05 0)
(0.00354364 0.000935009 0)
(0.00261318 0.00180287 0)
(0.00142615 0.00270238 0)
(-3.70925e-05 0.00364095 0)
(-0.00179816 0.00462913 0)
(-0.0038821 0.00568008 0)
(-0.00631665 0.00680863 0)
(-0.00913255 0.00803041 0)
(-0.0123626 0.00936071 0)
(-0.0160408 0.0108133 0)
(-0.0202014 0.0123992 0)
(-0.0248768 0.0141257 0)
(-0.030096 0.0159953 0)
(-0.0358828 0.0180046 0)
(-0.0422532 0.0201446 0)
(-0.0492142 0.0223994 0)
(-0.0567613 0.024747 0)
(-0.0648774 0.0271586 0)
(-0.0735319 0.0295998 0)
(-0.08268 0.0320312 0)
(-0.0922635 0.0344092 0)
(-0.102212 0.0366877 0)
(-0.112445 0.0388195 0)
(-0.122873 0.0407586 0)
(-0.133405 0.0424614 0)
(-0.143945 0.0438889 0)
(-0.154403 0.0450078 0)
(-0.164692 0.0457915 0)
(-0.174732 0.0462207 0)
(-0.184453 0.0462833 0)
(-0.193795 0.0459742 0)
(-0.202705 0.0452947 0)
(-0.211143 0.0442512 0)
(-0.219076 0.0428545 0)
(-0.226476 0.041119 0)
(-0.233324 0.0390611 0)
(-0.239605 0.0366992 0)
(-0.245306 0.0340523 0)
(-0.250419 0.0311401 0)
(-0.254937 0.0279821 0)
(-0.258853 0.0245977 0)
(-0.26216 0.0210061 0)
(-0.264854 0.0172262 0)
(-0.266928 0.0132769 0)
(-0.268375 0.00917711 0)
(-0.269188 0.00494603 0)
(-0.26936 0.000603627 0)
(-0.268881 -0.00382914 0)
(-0.267745 -0.00832987 0)
(-0.26594 -0.0128744 0)
(-0.263457 -0.0174362 0)
(-0.260288 -0.0219864 0)
(-0.256424 -0.0264929 0)
(-0.251857 -0.0309208 0)
(-0.246581 -0.0352315 0)
(-0.240594 -0.0393835 0)
(-0.233897 -0.043332 0)
(-0.226495 -0.0470294 0)
(-0.218399 -0.0504262 0)
(-0.209628 -0.0534718 0)
(-0.200208 -0.0561157 0)
(-0.190177 -0.0583087 0)
(-0.17958 -0.0600053 0)
(-0.168475 -0.0611649 0)
(-0.156932 -0.0617542 0)
(-0.145031 -0.061749 0)
(-0.132862 -0.061136 0)
(-0.120525 -0.0599146 0)
(-0.108128 -0.0580972 0)
(-0.0957822 -0.0557104 0)
(-0.0836003 -0.0527944 0)
(-0.0716949 -0.0494019 0)
(-0.0601733 -0.045597 0)
(-0.0491357 -0.0414528 0)
(-0.0386721 -0.0370489 0)
(-0.0288609 -0.0324689 0)
(-0.0197672 -0.0277974 0)
(-0.0114427 -0.0231177 0)
(-0.00392506 -0.0185097 0)
(0.00276099 -0.0140475 0)
(0.00860352 -0.0097982 0)
(0.0136025 -0.00582033 0)
(0.0177691 -0.002163 0)
(0.021125 0.00113503 0)
(0.023702 0.00404597 0)
(0.0255413 0.0065533 0)
(0.0266925 0.00865186 0)
(0.0272135 0.0103475 0)
(0.0271676 0.0116562 0)
(0.0266236 0.0126031 0)
(0.0256519 0.0132206 0)
(0.0243252 0.0135466 0)
(0.0227123 0.0136221 0)
(0.0208819 0.0134884 0)
(0.0188936 0.0131852 0)
(0.0168074 0.012747 0)
(0.0146685 0.0122013 0)
(0.0125283 0.0115647 0)
(0.0104168 0.0108427 0)
(0.00838411 0.0100257 0)
(0.00644686 0.00909235 0)
(0.00467061 0.00800577 0)
(0.00306156 0.00672425 0)
(0.00173182 0.00519565 0)
(0.000677347 0.0033802 0)
(0.000104792 0.00123619 0)
(6.06432e-05 -0.00114345 0)
(0.000375084 -0.00284592 0)
(0.000912698 -0.00403253 0)
(0.00152362 -0.00476377 0)
(0.00217796 -0.00510709 0)
(0.0027866 -0.00512377 0)
(0.00332494 -0.00487421 0)
(0.00374158 -0.00441045 0)
(0.00401764 -0.00377906 0)
(0.0041216 -0.00301766 0)
(0.00403768 -0.00215713 0)
(0.00374359 -0.00122034 0)
(0.00322392 -0.000223825 0)
(0.00245914 0.000822556 0)
(0.00143178 0.00191444 0)
(0.000120824 0.00305297 0)
(-0.00149549 0.00424393 0)
(-0.00344258 0.00549741 0)
(-0.00574813 0.00682693 0)
(-0.00844334 0.00824865 0)
(-0.0115618 0.00978019 0)
(-0.0151396 0.0114394 0)
(-0.0192135 0.0132426 0)
(-0.0238201 0.0152034 0)
(-0.0289936 0.017331 0)
(-0.0347637 0.0196286 0)
(-0.0411534 0.0220927 0)
(-0.0481767 0.0247118 0)
(-0.0558362 0.0274663 0)
(-0.0641212 0.0303283 0)
(-0.0730067 0.0332619 0)
(-0.0824519 0.036224 0)
(-0.0924011 0.0391657 0)
(-0.102784 0.0420332 0)
(-0.113519 0.0447709 0)
(-0.124513 0.0473225 0)
(-0.135669 0.0496342 0)
(-0.146888 0.0516565 0)
(-0.158072 0.0533464 0)
(-0.169127 0.0546684 0)
(-0.179969 0.0555957 0)
(-0.190524 0.0561105 0)
(-0.200725 0.0562033 0)
(-0.210522 0.0558725 0)
(-0.219869 0.0551233 0)
(-0.228735 0.0539661 0)
(-0.237092 0.0524156 0)
(-0.244922 0.0504897 0)
(-0.252212 0.0482081 0)
(-0.25895 0.0455917 0)
(-0.26513 0.0426618 0)
(-0.270746 0.0394398 0)
(-0.275795 0.0359465 0)
(-0.280273 0.0322022 0)
(-0.284177 0.0282267 0)
(-0.287503 0.024039 0)
(-0.290249 0.0196576 0)
(-0.29241 0.015101 0)
(-0.293981 0.0103871 0)
(-0.294956 0.00553458 0)
(-0.295328 0.000562337 0)
(-0.295089 -0.0045095 0)
(-0.29423 -0.00965938 0)
(-0.292739 -0.0148638 0)
(-0.290604 -0.0200969 0)
(-0.287812 -0.0253299 0)
(-0.28435 -0.0305305 0)
(-0.280202 -0.0356628 0)
(-0.275355 -0.040687 0)
(-0.269796 -0.0455589 0)
(-0.263513 -0.0502302 0)
(-0.256499 -0.0546487 0)
(-0.248751 -0.0587588 0)
(-0.240271 -0.0625024 0)
(-0.231071 -0.06582 0)
(-0.221169 -0.0686525 0)
(-0.210597 -0.0709427 0)
(-0.199399 -0.072638 0)
(-0.187632 -0.0736924 0)
(-0.175366 -0.0740691 0)
(-0.162688 -0.0737432 0)
(-0.149695 -0.0727038 0)
(-0.136498 -0.0709553 0)
(-0.123217 -0.0685192 0)
(-0.109977 -0.0654335 0)
(-0.0969053 -0.0617529 0)
(-0.0841287 -0.0575466 0)
(-0.0717674 -0.0528962 0)
(-0.0599318 -0.0478926 0)
(-0.0487197 -0.0426327 0)
(-0.0382141 -0.0372157 0)
(-0.0284816 -0.0317399 0)
(-0.0195723 -0.0262998 0)
(-0.0115204 -0.0209835 0)
(-0.00434518 -0.0158711 0)
(0.00194734 -0.0110331 0)
(0.00736321 -0.00652934 0)
(0.0119192 -0.00240882 0)
(0.0156417 0.00129125 0)
(0.0185659 0.00454555 0)
(0.0207352 0.00734077 0)
(0.0222008 0.00967552 0)
(0.02302 0.0115599 0)
(0.0232568 0.0130144 0)
(0.0229781 0.014069 0)
(0.022255 0.0147606 0)
(0.0211572 0.0151316 0)
(0.0197563 0.0152265 0)
(0.018117 0.0150893 0)
(0.0163056 0.0147599 0)
(0.0143753 0.0142712 0)
(0.012386 0.0136456 0)
(0.0103762 0.0128919 0)
(0.00840527 0.0120034 0)
(0.00649758 0.0109572 0)
(0.00472772 0.00971363 0)
(0.00310873 0.00821947 0)
(0.00176205 0.00641077 0)
(0.00068929 0.00421888 0)
(0.000106205 0.00157577 0)
(5.89224e-05 -0.00132953 0)
(0.000357689 -0.00327089 0)
(0.000857107 -0.00459182 0)
(0.00140755 -0.00537123 0)
(0.00197543 -0.00569706 0)
(0.00247251 -0.00564337 0)
(0.00287292 -0.00528297 0)
(0.0031259 -0.00467529 0)
(0.00321158 -0.00387341 0)
(0.0030979 -0.00291838 0)
(0.00276714 -0.00184377 0)
(0.00219485 -0.000673288 0)
(0.00136233 0.000576259 0)
(0.000246297 0.00189591 0)
(-0.00117532 0.00328275 0)
(-0.00292863 0.00474012 0)
(-0.00504107 0.00627642 0)
(-0.00754398 0.00790475 0)
(-0.0104711 0.00964163 0)
(-0.0138593 0.011506 0)
(-0.0177473 0.0135175 0)
(-0.0221746 0.0156949 0)
(-0.0271801 0.018054 0)
(-0.0327994 0.0206057 0)
(-0.0390628 0.0233542 0)
(-0.0459924 0.0262953 0)
(-0.0535997 0.0294155 0)
(-0.0618828 0.0326912 0)
(-0.0708249 0.0360884 0)
(-0.0803925 0.0395639 0)
(-0.0905352 0.0430655 0)
(-0.101186 0.0465342 0)
(-0.112265 0.0499066 0)
(-0.123678 0.0531171 0)
(-0.135323 0.0561009 0)
(-0.147097 0.058797 0)
(-0.158894 0.0611507 0)
(-0.170613 0.0631158 0)
(-0.182164 0.0646557 0)
(-0.193463 0.0657443 0)
(-0.204441 0.0663655 0)
(-0.215039 0.066513 0)
(-0.225209 0.0661886 0)
(-0.234916 0.0654013 0)
(-0.244131 0.0641653 0)
(-0.252834 0.0624987 0)
(-0.261012 0.0604225 0)
(-0.268653 0.0579593 0)