/*--------------------------------*- C++ -*----------------------------------*\
| =========                 |                                                 |
| \\      /  F ield         | OpenFOAM: The Open Source CFD Toolbox           |
|  \\    /   O peration     | Version:  2406                                  |
|   \\  /    A nd           | Website:  www.openfoam.com                      |
|    \\/     M anipulation  |                                                 |
\*---------------------------------------------------------------------------*/
FoamFile
{
    version     2.0;
    format      ascii;
    arch        "LSB;label=32;scalar=64";
    class       surfaceScalarField;
    location    "36.9";
    object      phi;
}
// * * * * * * * * * * * * * * * * * * * * * * * * * * * * * * * * * * * * * //

dimensions      [0 3 -1 0 0 0 0];

oriented        oriented;

internalField   nonuniform List<scalar> 
28560
(
-1.5383e-08
1.53721e-08
3.32336e-08
-5.08414e-08
1.53453e-07
-1.20692e-07
3.33721e-07
-1.83225e-07
5.55318e-07
-2.2331e-07
7.98224e-07
-2.4617e-07
1.04598e-06
-2.50073e-07
1.28334e-06
-2.40383e-07
1.50002e-06
-2.18914e-07
1.68811e-06
-1.90475e-07
1.84429e-06
-1.57904e-07
1.96766e-06
-1.2497e-07
2.06054e-06
-9.39693e-08
2.12673e-06
-6.70762e-08
2.17145e-06
-4.52496e-08
2.20004e-06
-2.89623e-08
2.21768e-06
-1.77835e-08
2.22848e-06
-1.08491e-08
2.23536e-06
-6.78454e-09
2.23958e-06
-4.05101e-09
2.24088e-06
-1.01312e-09
2.23747e-06
3.81437e-09
2.22635e-06
1.16956e-08
2.20357e-06
2.35614e-08
2.16459e-06
4.00284e-08
2.10454e-06
6.14261e-08
2.0184e-06
8.78976e-08
1.90113e-06
1.19487e-07
1.74764e-06
1.56229e-07
1.55276e-06
1.98196e-07
1.31122e-06
2.45507e-07
1.01761e-06
2.98307e-07
6.66366e-07
3.56723e-07
2.51885e-07
4.20811e-07
-2.31384e-07
4.90511e-07
-7.88786e-07
5.65611e-07
-1.42528e-06
6.45719e-07
-2.14525e-06
7.30245e-07
-2.95229e-06
8.18394e-07
-3.84901e-06
9.0916e-07
-4.83682e-06
1.00133e-06
-5.91573e-06
1.09349e-06
-7.0842e-06
1.18405e-06
-8.33895e-06
1.27127e-06
-9.67486e-06
1.35328e-06
-1.10849e-05
1.42814e-06
-1.25601e-05
1.49386e-06
-1.40894e-05
1.54846e-06
-1.566e-05
1.59e-06
-1.72572e-05
1.61663e-06
-1.88646e-05
1.62664e-06
-2.04641e-05
1.61844e-06
-2.20365e-05
1.59068e-06
-2.35613e-05
1.54217e-06
-2.50171e-05
1.47201e-06
-2.63818e-05
1.37953e-06
-2.76329e-05
1.26436e-06
-2.87479e-05
1.12642e-06
-2.97046e-05
9.65981e-07
-3.04814e-05
7.83688e-07
-3.10575e-05
5.80577e-07
-3.14138e-05
3.5812e-07
-3.1533e-05
1.18263e-07
-3.14003e-05
-1.36545e-07
-3.10038e-05
-4.03324e-07
-3.03349e-05
-6.78551e-07
-2.93895e-05
-9.58157e-07
-2.81675e-05
-1.23756e-06
-2.66741e-05
-1.51169e-06
-2.49199e-05
-1.77511e-06
-2.29211e-05
-2.02209e-06
-2.06997e-05
-2.2468e-06
-1.82835e-05
-2.44346e-06
-1.57058e-05
-2.60658e-06
-1.30046e-05
-2.73117e-06
-1.02222e-05
-2.81302e-06
-7.40433e-06
-2.84895e-06
-4.59828e-06
-2.83697e-06
-1.8521e-06
-2.77655e-06
7.87175e-07
-2.66865e-06
3.27507e-06
-2.51586e-06
5.57121e-06
-2.32229e-06
7.64073e-06
-2.0935e-06
9.45547e-06
-1.83624e-06
1.09949e-05
-1.55819e-06
1.22466e-05
-1.2676e-06
1.32067e-05
-9.72888e-07
1.38792e-05
-6.82265e-07
1.42758e-05
-4.03353e-07
1.44148e-05
-1.42859e-07
1.432e-05
9.36817e-08
1.40192e-05
3.0208e-07
1.35432e-05
4.79575e-07
1.29238e-05
6.24827e-07
1.21929e-05
7.37833e-07
1.13814e-05
8.19765e-07
1.05177e-05
8.72779e-07
9.62754e-06
8.99765e-07
8.73337e-06
9.04129e-07
7.85386e-06
8.89527e-07
7.00405e-06
8.59697e-07
6.19539e-06
8.18221e-07
5.43606e-06
7.68476e-07
4.73123e-06
7.13421e-07
4.08357e-06
6.55711e-07
3.49348e-06
5.97463e-07
2.95975e-06
5.40561e-07
2.47958e-06
4.86262e-07
2.04947e-06
4.35779e-07
1.66492e-06
3.89448e-07
1.32178e-06
3.47809e-07
1.0157e-06
3.09879e-07
7.44199e-07
2.75331e-07
5.05865e-07
2.41072e-07
3.02896e-07
2.06025e-07
1.40069e-07
1.64397e-07
2.53494e-08
1.16892e-07
-3.18703e-08
5.76302e-08
-3.35482e-08
2.85851e-09
-3.36009e-08
4.88086e-08
-3.12101e-08
2.37992e-07
-2.39991e-07
5.70197e-07
-4.48525e-07
1.02069e-06
-6.31141e-07
1.55738e-06
-7.54525e-07
2.13978e-06
-8.2429e-07
2.733e-06
-8.37623e-07
3.30343e-06
-8.06211e-07
3.82676e-06
-7.37318e-07
4.28404e-06
-6.43868e-07
4.66554e-06
-5.3576e-07
4.96726e-06
-4.23978e-07
5.19199e-06
-3.16441e-07
5.34623e-06
-2.19781e-07
5.43967e-06
-1.37551e-07
5.48261e-06
-7.12563e-08
5.48506e-06
-1.98566e-08
5.4549e-06
1.93871e-08
5.39729e-06
5.0739e-08
5.31376e-06
7.91922e-08
5.20224e-06
1.10033e-07
5.05715e-06
1.482e-07
4.86991e-06
1.97938e-07
4.62958e-06
2.62502e-07
4.3236e-06
3.44137e-07
3.93839e-06
4.44178e-07
3.45982e-06
5.63294e-07
2.87354e-06
7.01754e-07
2.16513e-06
8.59661e-07
1.3202e-06
1.03708e-06
3.24394e-07
1.23404e-06
-8.36407e-07
1.4505e-06
-2.17592e-06
1.68617e-06
-3.7071e-06
1.94034e-06
-5.44175e-06
2.21181e-06
-7.38998e-06
2.49869e-06
-9.55971e-06
2.7984e-06
-1.19561e-05
3.10761e-06
-1.4581e-05
3.42225e-06
-1.74324e-05
3.73754e-06
-2.05042e-05
4.04807e-06
-2.37856e-05
4.34791e-06
-2.72612e-05
4.63071e-06
-3.09104e-05
4.88988e-06
-3.4708e-05
5.11877e-06
-3.86242e-05
5.3108e-06
-4.26247e-05
5.45973e-06
-4.66714e-05
5.55972e-06
-5.07228e-05
5.60557e-06
-5.47349e-05
5.59278e-06
-5.86616e-05
5.51766e-06
-6.24555e-05
5.37741e-06
-6.60687e-05
5.17012e-06
-6.94534e-05
4.8948e-06
-7.25628e-05
4.55138e-06
-7.53514e-05
4.14069e-06
-7.7776e-05
3.66446e-06
-7.97958e-05
3.12527e-06
-8.13735e-05
2.52658e-06
-8.24753e-05
1.87275e-06
-8.30719e-05
1.16902e-06
-8.31385e-05
4.21561e-07
-8.26557e-05
-3.6249e-07
-8.16098e-05
-1.175e-06
-7.99932e-05
-2.00684e-06
-7.78054e-05
-2.84782e-06
-7.50526e-05
-3.6868e-06
-7.17489e-05
-4.51167e-06
-6.79163e-05
-5.30953e-06
-6.35849e-05
-6.06684e-06
-5.87931e-05
-6.76963e-06
-5.35877e-05
-7.40387e-06
-4.80235e-05
-7.95581e-06
-4.2163e-05
-8.41241e-06
-3.60754e-05
-8.76186e-06
-2.98361e-05
-8.99405e-06
-2.35251e-05
-9.10114e-06
-1.72255e-05
-9.07799e-06
-1.10219e-05
-8.9226e-06
-4.99856e-06
-8.63644e-06
7.63059e-07
-8.22463e-06
6.18606e-06
-7.69594e-06
1.12004e-05
-7.06267e-06
1.57449e-05
-6.34029e-06
1.9769e-05
-5.54697e-06
2.3234e-05
-4.70288e-06
2.61146e-05
-3.82945e-06
2.8399e-05
-2.9485e-06
3.00897e-05
-2.08143e-06
3.12022e-05
-1.2483e-06
3.17651e-05
-4.67112e-07
3.18177e-05
2.46827e-07
3.14092e-05
8.81448e-07
3.05956e-05
1.42821e-06
2.94382e-05
1.88224e-06
2.80004e-05
2.24228e-06
2.63458e-05
2.51042e-06
2.45359e-05
2.69166e-06
2.26281e-05
2.79345e-06
2.0674e-05
2.82496e-06
1.87188e-05
2.79655e-06
1.68002e-05
2.719e-06
1.49485e-05
2.60312e-06
1.31868e-05
2.45909e-06
1.15312e-05
2.29638e-06
9.9917e-06
2.12317e-06
8.573e-06
1.94671e-06
7.27513e-06
1.77258e-06
6.09513e-06
1.60552e-06
5.02705e-06
1.44805e-06
4.06461e-06
1.30208e-06
3.20078e-06
1.16599e-06
2.4316e-06
1.03825e-06
1.75492e-06
9.11575e-07
1.17506e-06
7.8161e-07
6.99308e-07
6.3553e-07
3.40587e-07
4.73607e-07
1.09252e-07
2.86074e-07
4.28009e-09
1.07989e-07
-3.04804e-08
1.13818e-07
-1.44589e-07
4.36209e-07
-5.66715e-07
9.52838e-07
-9.65171e-07
1.6195e-06
-1.30237e-06
2.39522e-06
-1.53257e-06
3.22538e-06
-1.65917e-06
4.06432e-06
-1.67989e-06
4.86667e-06
-1.6129e-06
5.59932e-06
-1.47324e-06
6.23579e-06
-1.28379e-06
6.76155e-06
-1.06408e-06
7.16961e-06
-8.34405e-07
7.46184e-06
-6.10333e-07
7.64506e-06
-4.04362e-07
7.73026e-06
-2.23608e-07
7.7293e-06
-7.09054e-08
7.6535e-06
5.56363e-08
7.51133e-06
1.61425e-07
7.30733e-06
2.54786e-07
7.04108e-06
3.45611e-07
6.7071e-06
4.44363e-07
6.29491e-06
5.60907e-07
5.78984e-06
7.03758e-07
5.17387e-06
8.79528e-07
4.42659e-06
1.09284e-06
3.52617e-06
1.34649e-06
2.45003e-06
1.64189e-06
1.17539e-06
1.9795e-06
-3.20312e-07
2.35923e-06
-2.05915e-06
2.78063e-06
-4.06233e-06
3.24288e-06
-6.34973e-06
3.74463e-06
-8.93934e-06
4.28367e-06
-1.18465e-05
4.85669e-06
-1.50833e-05
5.45902e-06
-1.86571e-05
6.08445e-06
-2.25704e-05
6.72519e-06
-2.68197e-05
7.37193e-06
-3.13947e-05
8.01389e-06
-3.6278e-05
8.63912e-06
-4.14448e-05
9.23475e-06
-4.68628e-05
9.78735e-06
-5.24925e-05
1.02833e-05
-5.82877e-05
1.07094e-05
-6.41964e-05
1.1053e-05
-7.01616e-05
1.13026e-05
-7.61225e-05
1.14481e-05
-8.2016e-05
1.14812e-05
-8.77776e-05
1.13955e-05
-9.33428e-05
1.11863e-05
-9.86483e-05
1.08511e-05
-0.000103633
1.03894e-05
-0.000108238
9.80208e-06
-0.000112411
9.09201e-06
-0.000116099
8.26337e-06
-0.000119259
7.32168e-06
-0.00012185
6.27365e-06
-0.000123835
5.12703e-06
-0.000125186
3.89064e-06
-0.000125878
2.57424e-06
-0.000125892
1.18861e-06
-0.000125214
-2.54449e-07
-0.000123837
-1.74204e-06
-0.000121758
-3.26012e-06
-0.000118982
-4.79343e-06
-0.00011552
-6.32547e-06
-0.000111388
-7.83848e-06
-0.00010661
-9.31351e-06
-0.000101217
-1.07305e-05
-9.52467e-05
-1.20687e-05
-8.87453e-05
-1.33064e-05
-8.17655e-05
-1.44223e-05
-7.43678e-05
-1.53949e-05
-6.66198e-05
-1.6204e-05
-5.85959e-05
-1.6831e-05
-5.03766e-05
-1.72596e-05
-4.20476e-05
-1.74769e-05
-3.36986e-05
-1.74735e-05
-2.54217e-05
-1.72451e-05
-1.73103e-05
-1.6792e-05
-9.45652e-06
-1.61203e-05
-1.94989e-06
-1.52417e-05
5.12502e-06
-1.41734e-05
1.16905e-05
-1.29378e-05
1.76777e-05
-1.15621e-05
2.30283e-05
-1.00771e-05
2.76961e-05
-8.51638e-06
3.16485e-05
-6.91543e-06
3.4867e-05
-5.31002e-06
3.7348e-05
-3.73517e-06
3.91029e-05
-2.22392e-06
4.01577e-05
-8.06188e-07
4.05519e-05
4.92254e-07
4.03373e-05
1.65058e-06
3.95761e-05
2.65355e-06
3.83383e-05
3.49185e-06
3.66997e-05
4.16223e-06
3.47382e-05
4.66716e-06
3.25318e-05
5.01443e-06
3.01551e-05
5.21625e-06
2.76778e-05
5.28838e-06
2.51619e-05
5.24887e-06
2.26613e-05
5.11713e-06
2.02204e-05
4.91265e-06
1.78742e-05
4.65442e-06
1.56484e-05
4.35981e-06
1.35606e-05
4.04458e-06
1.16204e-05
3.72175e-06
9.83195e-06
3.40231e-06
8.19387e-06
3.09336e-06
6.70293e-06
2.79985e-06
5.35357e-06
2.52094e-06
4.1432e-06
2.25423e-06
3.06994e-06
1.98879e-06
2.13991e-06
1.71619e-06
1.36045e-06
1.41705e-06
7.48384e-07
1.08929e-06
3.14068e-07
7.20143e-07
6.90691e-08
3.56048e-07
3.79221e-08
1.72074e-07
-3.13729e-07
6.12192e-07
-1.00939e-06
1.2833e-06
-1.63172e-06
2.11989e-06
-2.13901e-06
3.07279e-06
-2.48156e-06
4.07659e-06
-2.66143e-06
5.07926e-06
-2.67908e-06
6.028e-06
-2.55954e-06
6.88467e-06
-2.32702e-06
7.61806e-06
-2.01522e-06
8.21059e-06
-1.65449e-06
8.65284e-06
-1.27522e-06
8.94525e-06
-9.01394e-07
9.09355e-06
-5.51788e-07
9.1079e-06
-2.37232e-07
8.9991e-06
3.82958e-08
8.77701e-06
2.78008e-07
8.4478e-06
4.90717e-07
8.01285e-06
6.89727e-07
7.46748e-06
8.90834e-07
6.80092e-06
1.11067e-06
5.99653e-06
1.36489e-06
5.03274e-06
1.66698e-06
3.88408e-06
2.02738e-06
2.52252e-06
2.45332e-06
9.18535e-07
2.94906e-06
-9.57888e-07
3.51649e-06
-3.13643e-06
4.15574e-06
-5.64573e-06
4.86568e-06
-8.51267e-06
5.6441e-06
-1.17616e-05
6.48763e-06
-1.54133e-05
7.39139e-06
-1.9484e-05
8.34859e-06
-2.39841e-05
9.35014e-06
-2.89171e-05
1.03844e-05
-3.42784e-05
1.1437e-05
-4.00543e-05
1.24913e-05
-4.62213e-05
1.35281e-05
-5.27462e-05
1.45267e-05
-5.95857e-05
1.54653e-05
-6.66871e-05
1.63218e-05
-7.39895e-05
1.70743e-05
-8.14252e-05
1.77024e-05
-8.89209e-05
1.81877e-05
-9.64004e-05
1.85141e-05
-0.000103786
1.86688e-05
-0.000111
1.86424e-05
-0.000117967
1.84288e-05
-0.000124617
1.80251e-05
-0.000130883
1.74317e-05
-0.000136703
1.66517e-05
-0.000142024
1.56908e-05
-0.000146797
1.45563e-05
-0.000150979
1.32573e-05
-0.000154536
1.18044e-05
-0.000157438
1.02088e-05
-0.00015966
8.48269e-06
-0.000161183
6.63899e-06
-0.000161992
4.69116e-06
-0.000162077
2.65333e-06
-0.000161432
5.40389e-07
-0.000160055
-1.63194e-06
-0.000157948
-3.8469e-06
-0.000155116
-6.08655e-06
-0.00015157
-8.33163e-06
-0.000147323
-1.05614e-05
-0.000142393
-1.27535e-05
-0.000136806
-1.4884e-05
-0.000130589
-1.69276e-05
-0.000123778
-1.88577e-05
-0.000116413
-2.06464e-05
-0.000108542
-2.22658e-05
-0.000100221
-2.36876e-05
-9.15101e-05
-2.48848e-05
-8.24781e-05
-2.58319e-05
-7.31999e-05
-2.6506e-05
-6.37563e-05
-2.68884e-05
-5.42332e-05
-2.69648e-05
-4.47204e-05
-2.67266e-05
-3.53102e-05
-2.61719e-05
-2.60959e-05
-2.53059e-05
-1.71697e-05
-2.4141e-05
-8.62121e-06
-2.26972e-05
-5.35287e-07
-2.10016e-05
7.00963e-06
-1.90876e-05
1.39433e-05
-1.69943e-05
2.02053e-05
-1.47649e-05
2.57462e-05
-1.2446e-05
3.05288e-05
-1.00854e-05
3.45293e-05
-7.73126e-06
3.77374e-05
-5.43041e-06
4.01571e-05
-3.22691e-06
4.1807e-05
-1.16083e-06
4.27193e-05
7.33025e-07
4.29399e-05
2.42613e-06
4.25265e-05
3.89713e-06
4.15471e-05
5.13247e-06
4.00778e-05
6.12665e-06
3.82e-05
6.88215e-06
3.5997e-05
7.40888e-06
3.35518e-05
7.72336e-06
3.09434e-05
7.84732e-06
2.82447e-05
7.80635e-06
2.55201e-05
7.62817e-06
2.28249e-05
7.34131e-06
2.02035e-05
6.97335e-06
1.76907e-05
6.55032e-06
1.53109e-05
6.09489e-06
1.30809e-05
5.62665e-06
1.1009e-05
5.15975e-06
9.09999e-06
4.70435e-06
7.35384e-06
4.2625e-06
5.7724e-06
3.83249e-06
4.35583e-06
3.40142e-06
3.11295e-06
2.95737e-06
2.0508e-06
2.47562e-06
1.19079e-06
1.94957e-06
5.44965e-07
1.36212e-06
1.447e-07
7.5896e-07
1.80256e-07
2.12892e-07
-5.24857e-07
7.45169e-07
-1.54721e-06
1.53912e-06
-2.42322e-06
2.50783e-06
-3.11169e-06
3.5919e-06
-3.56551e-06
4.71514e-06
-3.78778e-06
5.81994e-06
-3.78486e-06
6.84786e-06
-3.58997e-06
7.75778e-06
-3.23823e-06
8.5157e-06
-2.77506e-06
9.1026e-06
-2.24252e-06
9.50759e-06
-1.68151e-06
9.73001e-06
-1.1246e-06
9.77405e-06
-5.96608e-07
9.64801e-06
-1.11642e-07
9.36003e-06
3.25892e-07
8.91648e-06
7.21393e-07
8.31901e-06
1.08808e-06
7.56353e-06
1.44523e-06
6.63898e-06
1.81547e-06
5.5275e-06
2.22235e-06
4.20488e-06
2.6878e-06
2.64182e-06
3.23048e-06
8.05267e-07
3.86454e-06
-1.34002e-06
4.59942e-06
-3.83005e-06
5.44016e-06
-6.70031e-06
6.38811e-06
-9.98458e-06
7.44172e-06
-1.37137e-05
8.59697e-06
-1.79146e-05
9.84753e-06
-2.26083e-05
1.11845e-05
-2.78092e-05
1.25959e-05
-3.35228e-05
1.40665e-05
-3.97447e-05
1.5577e-05
-4.64592e-05
1.71046e-05
-5.36383e-05
1.86226e-05
-6.12415e-05
2.01018e-05
-6.92162e-05
2.15109e-05
-7.74984e-05
2.28178e-05
-8.60141e-05
2.39908e-05
-9.46819e-05
2.50002e-05
-0.000103415
2.58189e-05
-0.000112125
2.6424e-05
-0.000120721
2.67973e-05
-0.00012912
2.69256e-05
-0.000137238
2.6801e-05
-0.000145002
2.64204e-05
-0.000152345
2.57855e-05
-0.000159207
2.49017e-05
-0.000165539
2.37777e-05
-0.000171298
2.24246e-05
-0.000176449
2.08556e-05
-0.000180965
1.90848e-05
-0.000184823
1.71273e-05
-0.000188006
1.49986e-05
-0.000190501
1.27142e-05
-0.0001923
1.02898e-05
-0.000193395
7.74108e-06
-0.000193782
5.08385e-06
-0.000193459
2.33419e-06
-0.000192426
-4.9129e-07
-0.000190683
-3.37522e-06
-0.000188233
-6.29914e-06
-0.00018508
-9.24324e-06
-0.000181232
-1.2186e-05
-0.000176698
-1.51041e-05
-0.00017149
-1.7972e-05
-0.000165625
-2.0762e-05
-0.000159122
-2.34444e-05
-0.000152009
-2.59872e-05
-0.000144316
-2.8357e-05
-0.000136082
-3.05191e-05
-0.000127352
-3.24383e-05
-0.000118178
-3.40801e-05
-0.00010862
-3.54112e-05
-9.87473e-05
-3.64014e-05
-8.86337e-05
-3.70245e-05
-7.8361e-05
-3.72598e-05
-6.80163e-05
-3.70932e-05
-5.76907e-05
-3.65187e-05
-4.74778e-05
-3.55389e-05
-3.7472e-05
-3.41657e-05
-2.77662e-05
-3.24203e-05
-1.84501e-05
-3.03332e-05
-9.60838e-06
-2.7943e-05
-1.31857e-06
-2.52957e-05
6.34997e-06
-2.2443e-05
1.33374e-05
-1.94409e-05
1.95945e-05
-1.63478e-05
2.50831e-05
-1.32231e-05
2.97769e-05
-1.01255e-05
3.3662e-05
-7.11149e-06
3.6737e-05
-4.23375e-06
3.90137e-05
-1.54016e-06
4.05168e-05
9.27605e-07
4.12843e-05
3.13519e-06
4.13665e-05
5.05661e-06
4.08249e-05
6.67503e-06
3.97309e-05
7.98332e-06
3.81629e-05
8.98407e-06
3.62043e-05
9.68925e-06
3.39394e-05
1.01192e-05
3.14514e-05
1.03012e-05
2.88182e-05
1.02677e-05
2.61113e-05
1.00543e-05
2.33924e-05
9.6978e-06
2.07137e-05
9.23416e-06
1.81166e-05
8.6966e-06
1.5633e-05
8.11472e-06
1.32846e-05
7.5117e-06
1.10878e-05
6.90493e-06
9.05121e-06
6.3017e-06
7.18416e-06
5.70285e-06
5.49128e-06
5.09572e-06
3.98626e-06
4.46561e-06
2.678e-06
3.78368e-06
1.59511e-06
3.0362e-06
7.54835e-07
2.19967e-06
2.11456e-07
1.30761e-06
3.89677e-07
2.4461e-07
-7.66042e-07
8.4897e-07
-2.1562e-06
1.73717e-06
-3.30642e-06
2.80282e-06
-4.17923e-06
3.97536e-06
-4.73481e-06
5.16819e-06
-4.98081e-06
6.31853e-06
-4.93284e-06
7.36357e-06
-4.63445e-06
8.26062e-06
-4.13354e-06
8.97447e-06
-3.48816e-06
9.48588e-06
-2.7527e-06
9.78341e-06
-1.97841e-06
9.86557e-06
-1.20598e-06
9.73476e-06
-4.65372e-07
9.39645e-06
2.27103e-07
8.85466e-06
8.67892e-07
8.11037e-06
1.46587e-06
7.15864e-06
2.03986e-06
5.98777e-06
2.61611e-06
4.57837e-06
3.22478e-06
2.90398e-06
3.8966e-06
9.31882e-07
4.65966e-06
-1.37515e-06
5.53718e-06
-4.05715e-06
6.54608e-06
-7.155e-06
7.69665e-06
-1.07087e-05
8.99303e-06
-1.47556e-05
1.0434e-05
-1.93287e-05
1.20136e-05
-2.44552e-05
1.37219e-05
-3.01543e-05
1.55447e-05
-3.64354e-05
1.74632e-05
-4.3296e-05
1.94538e-05
-5.07204e-05
2.14878e-05
-5.86785e-05
2.35315e-05
-6.71249e-05
2.55467e-05
-7.59996e-05
2.74925e-05
-8.52289e-05
2.93258e-05
-9.47279e-05
3.1004e-05
-0.000104403
3.24864e-05
-0.000114156
3.37364e-05
-0.000123886
3.47225e-05
-0.000133495
3.54198e-05
-0.00014289
3.58104e-05
-0.000151986
3.5884e-05
-0.000160707
3.56366e-05
-0.000168987
3.50708e-05
-0.000176771
3.41943e-05
-0.000184014
3.30189e-05
-0.000190682
3.15594e-05
-0.000196747
2.98331e-05
-0.00020219
2.7858e-05
-0.000206997
2.56529e-05
-0.000211157
2.32365e-05
-0.000214665
2.06271e-05
-0.000217517
1.78425e-05
-0.000219709
1.48997e-05
-0.00022124
1.18152e-05
-0.000222108
8.605e-06
-0.000222312
5.2849e-06
-0.000221851
1.87088e-06
-0.000220722
-1.6206e-06
-0.000218924
-5.17222e-06
-0.000216456
-8.76535e-06
-0.000213316
-1.23796e-05
-0.000209504
-1.59926e-05
-0.000205022
-1.95793e-05
-0.000199874
-2.31122e-05
-0.000194066
-2.65606e-05
-0.000187609
-2.98908e-05
-0.000180518
-3.30665e-05
-0.000172813
-3.60486e-05
-0.000164523
-3.87959e-05
-0.00015568
-4.12659e-05
-0.000146329
-4.34162e-05
-0.00013652
-4.52048e-05
-0.000126312
-4.65928e-05
-0.000115776
-4.7545e-05
-0.000104987
-4.80325e-05
-9.4031e-05
-4.80337e-05
-8.29983e-05
-4.75364e-05
-7.19842e-05
-4.65387e-05
-6.10865e-05
-4.505e-05
-5.0403e-05
-4.30916e-05
-4.00294e-05
-4.06958e-05
-3.00569e-05
-3.79058e-05
-2.05704e-05
-3.47739e-05
-1.16464e-05
-3.13601e-05
-3.35246e-06
-2.77294e-05
4.25436e-06
-2.39506e-05
1.11274e-05
-2.00936e-05
1.72306e-05
-1.62276e-05
2.25389e-05
-1.24198e-05
2.70375e-05
-8.73367e-06
3.07231e-05
-5.22794e-06
3.36031e-05
-1.95545e-06
3.56966e-05
1.03793e-06
3.70345e-05
3.7144e-06
3.76595e-05
6.04528e-06
3.76259e-05
8.01202e-06
3.6998e-05
9.60682e-06
3.58492e-05
1.0833e-05
3.42588e-05
1.17046e-05
3.23096e-05
1.22456e-05
3.00846e-05
1.24881e-05
2.76637e-05
1.24709e-05
2.51211e-05
1.22363e-05
2.25235e-05
1.18282e-05
1.99273e-05
1.12892e-05
1.73802e-05
1.0659e-05
1.49186e-05
9.9703e-06
1.25721e-05
9.24926e-06
1.03608e-05
8.51029e-06
8.30391e-06
7.75857e-06
6.413e-06
6.9839e-06
4.70889e-06
6.16982e-06
3.20479e-06
5.28448e-06
1.93824e-06
4.3049e-06
9.34009e-07
3.19881e-06
2.68441e-07
1.97838e-06
6.5465e-07
2.67402e-07
-1.03071e-06
9.25497e-07
-2.82069e-06
1.88233e-06
-4.25927e-06
3.01356e-06
-5.31441e-06
4.23694e-06
-5.95673e-06
5.45547e-06
-6.20184e-06
6.60108e-06
-6.07824e-06
7.60735e-06
-5.64243e-06
8.43085e-06
-4.95733e-06
9.03632e-06
-4.09482e-06
9.40531e-06
-3.1221e-06
9.52657e-06
-2.10044e-06
9.39805e-06
-1.0778e-06
9.0201e-06
-8.78939e-08
8.39459e-06
8.52404e-07
7.52011e-06
1.74213e-06
6.39063e-06
2.59527e-06
4.99276e-06
3.43764e-06
3.30548e-06
4.30342e-06
1.29966e-06
5.23065e-06
-1.06061e-06
6.25699e-06
-3.81656e-06
7.41578e-06
-7.01243e-06
8.73331e-06
-1.06932e-05
1.02272e-05
-1.49022e-05
1.19061e-05
-1.9679e-05
1.37704e-05
-2.5057e-05
1.58127e-05
-3.10614e-05
1.8019e-05
-3.77068e-05
2.03686e-05
-4.49951e-05
2.28344e-05
-5.2913e-05
2.53829e-05
-6.14309e-05
2.79738e-05
-7.05016e-05
3.05609e-05
-8.00605e-05
3.30932e-05
-9.00274e-05
3.55167e-05
-0.000100308
3.77769e-05
-0.0001108
3.9821e-05
-0.000121392
4.16007e-05
-0.000131975
4.30743e-05
-0.000142442
4.42085e-05
-0.000152693
4.49791e-05
-0.000162639
4.53713e-05
-0.000172201
4.53795e-05
-0.000181317
4.5006e-05
-0.000189933
4.42599e-05
-0.000198011
4.31558e-05
-0.000205522
4.17119e-05
-0.000212445
3.99492e-05
-0.000218768
3.78896e-05
-0.000224484
3.55557e-05
-0.000229589
3.29697e-05
-0.000234082
3.01529e-05
-0.000237965
2.71253e-05
-0.000241239
2.39059e-05
-0.000243903
2.05123e-05
-0.00024596
1.69608e-05
-0.000247409
1.32671e-05
-0.000248247
9.44607e-06
-0.000248473
5.51232e-06
-0.000248082
1.48065e-06
-0.000247069
-2.63354e-06
-0.000245428
-6.81381e-06
-0.000243154
-1.10422e-05
-0.000240238
-1.52985e-05
-0.000236674
-1.95603e-05
-0.000232457
-2.3802e-05
-0.00022758
-2.79946e-05
-0.000222043
-3.21054e-05
-0.000215843
-3.60979e-05
-0.000208987
-3.99318e-05
-0.000201482
-4.35631e-05
-0.000193343
-4.69445e-05
-0.000184593
-5.00263e-05
-0.000175263
-5.27575e-05
-0.000165392
-5.50871e-05
-0.00015503
-5.69658e-05
-0.000144238
-5.83481e-05
-0.000133088
-5.91941e-05
-0.00012166
-5.94725e-05
-0.000110045
-5.91619e-05
-9.83407e-05
-5.82531e-05
-8.66499e-05
-5.67503e-05
-7.5078e-05
-5.46721e-05
-6.37301e-05
-5.20514e-05
-5.2708e-05
-4.89348e-05
-4.21071e-05
-4.53806e-05
-3.20147e-05
-4.14574e-05
-2.25072e-05
-3.72407e-05
-1.36502e-05
-3.28105e-05
-5.49711e-06
-2.82485e-05
1.90997e-06
-2.36356e-05
8.53998e-06
-1.90498e-05
1.4372e-05
-1.45649e-05
1.93948e-05
-1.02491e-05
2.3606e-05
-6.16455e-06
2.70127e-05
-2.3662e-06
2.96315e-05
1.09861e-06
3.1489e-05
4.19113e-06
3.26222e-05
6.88227e-06
3.3079e-05
9.15355e-06
3.29176e-05
1.0998e-05
3.22051e-05
1.24206e-05
3.1016e-05
1.34381e-05
2.94293e-05
1.40781e-05
2.75258e-05
1.43775e-05
2.53846e-05
1.43803e-05
2.30809e-05
1.41346e-05
2.06825e-05
1.369e-05
1.82498e-05
1.3094e-05
1.58328e-05
1.2389e-05
1.34746e-05
1.16096e-05
1.12074e-05
1.07785e-05
9.06175e-06
9.90643e-06
7.05842e-06
8.98724e-06
5.22732e-06
8.00363e-06
3.58852e-06
6.92169e-06
2.1898e-06
5.70775e-06
1.06489e-06
4.31916e-06
3.09198e-07
2.74099e-06
9.60646e-07
2.86117e-07
-1.31313e-06
9.8435e-07
-3.52483e-06
1.98743e-06
-5.25698e-06
3.15437e-06
-6.48429e-06
4.39124e-06
-7.19057e-06
5.59139e-06
-7.4031e-06
6.68195e-06
-7.16694e-06
7.59386e-06
-6.55456e-06
8.28395e-06
-5.64621e-06
8.71796e-06
-4.5287e-06
8.87897e-06
-3.28233e-06
8.75636e-06
-1.97762e-06
8.34745e-06
-6.68404e-07
7.64997e-06
6.09756e-07
6.6611e-06
1.84155e-06
5.37259e-06
3.03074e-06
3.76973e-06
4.19825e-06
1.82918e-06
5.37821e-06
-4.807e-07
6.61331e-06
-3.19933e-06
7.94922e-06
-6.37176e-06
9.42934e-06
-1.00464e-05
1.10902e-05
-1.42717e-05
1.29585e-05
-1.90939e-05
1.50491e-05
-2.45534e-05
1.73652e-05
-3.06824e-05
1.9899e-05
-3.75025e-05
2.26323e-05
-4.50217e-05
2.55374e-05
-5.32318e-05
2.85778e-05
-6.21067e-05
3.17083e-05
-7.16009e-05
3.48758e-05
-8.16487e-05
3.80201e-05
-9.21663e-05
4.10767e-05
-0.000103053
4.39783e-05
-0.000114198
4.66593e-05
-0.000125482
4.9058e-05
-0.000136784
5.11203e-05
-0.000147989
5.28019e-05
-0.000158988
5.407e-05
-0.000169686
5.49033e-05
-0.000180003
5.52921e-05
-0.000189873
5.52371e-05
-0.000199246
5.47476e-05
-0.000208084
5.38397e-05
-0.000216364
5.25345e-05
-0.000224069
5.08561e-05
-0.000231192
4.88306e-05
-0.000237732
4.64841e-05
-0.00024369
4.38425e-05
-0.00024907
4.09307e-05
-0.000253876
3.77717e-05
-0.000258115
3.43871e-05
-0.00026179
3.07966e-05
-0.000264906
2.70181e-05
-0.000267465
2.3068e-05
-0.000269468
1.89613e-05
-0.000270915
1.47122e-05
-0.000271804
1.03339e-05
-0.000272132
5.83942e-06
-0.000271894
1.24202e-06
-0.000271083
-3.44453e-06
-0.00026969
-8.20529e-06
-0.000267707
-1.30236e-05
-0.000265122
-1.78808e-05
-0.000261924
-2.2755e-05
-0.000258101
-2.76212e-05
-0.00025364
-3.24506e-05
-0.00024853
-3.721e-05
-0.000242761
-4.18612e-05
-0.000236325
-4.63617e-05
-0.000229217
-5.06637e-05
-0.000221439
-5.4715e-05
-0.000212998
-5.84596e-05
-0.000203909
-6.18384e-05
-0.000194197
-6.4791e-05
-0.000183898
-6.72572e-05
-0.000173058
-6.91792e-05
-0.00016174
-7.05045e-05
-0.000150016
-7.11884e-05
-0.000137974
-7.1197e-05
-0.00012571
-7.05095e-05
-0.000113333
-6.91208e-05
-0.000100956
-6.70428e-05
-8.86967e-05
-6.43053e-05
-7.6671e-05
-6.09555e-05
-6.4991e-05
-5.70564e-05
-5.37603e-05
-5.26847e-05
-4.3071e-05
-4.79272e-05
-3.30023e-05
-4.28772e-05
-2.36185e-05
-3.76309e-05
-1.49697e-05
-3.22837e-05
-7.09245e-06
-2.6927e-05
-1.10946e-08
-2.16467e-05
6.26029e-06
-1.65215e-05
1.17165e-05
-1.16221e-05
1.636e-05
-7.01146e-06
2.02006e-05
-2.74406e-06
2.32556e-05
1.13391e-06
2.55502e-05
4.5853e-06
2.71185e-05
7.5828e-06
2.8004e-05
1.011e-05
2.82598e-05
1.21624e-05
2.79479e-05
1.37476e-05
2.71378e-05
1.48859e-05
2.59044e-05
1.56088e-05
2.4325e-05
1.59575e-05
2.24771e-05
1.59808e-05
2.04341e-05
1.5731e-05
1.82654e-05
1.52614e-05
1.60311e-05
1.46215e-05
1.37863e-05
1.38536e-05
1.15747e-05
1.29884e-05
9.43861e-06
1.20424e-05
7.40894e-06
1.10148e-05
5.52588e-06
9.88778e-06
3.8181e-06
8.62625e-06
2.34379e-06
7.18531e-06
1.14597e-06
5.51116e-06
3.34517e-07
3.55919e-06
1.29112e-06
3.00746e-07
-1.61057e-06
1.02671e-06
-4.25768e-06
2.05498e-06
-6.28039e-06
3.22852e-06
-7.66183e-06
4.44212e-06
-8.402e-06
5.58036e-06
-8.54359e-06
6.56634e-06
-8.15209e-06
7.32952e-06
-7.31908e-06
7.82794e-06
-6.14442e-06
8.02925e-06
-4.73084e-06
7.91854e-06
-3.17166e-06
7.4859e-06
-1.5455e-06
6.72763e-06
8.97673e-08
5.63796e-06
1.69913e-06
4.20813e-06
3.2713e-06
2.42163e-06
4.81708e-06
2.53753e-07
6.36609e-06
-2.32983e-06
7.96174e-06
-5.3716e-06
9.6551e-06
-8.9206e-06
1.14982e-05
-1.30291e-05
1.35379e-05
-1.77493e-05
1.58105e-05
-2.31293e-05
1.83387e-05
-2.92102e-05
2.11302e-05
-3.6022e-05
2.41773e-05
-4.35811e-05
2.74584e-05
-5.18871e-05
3.09387e-05
-6.09206e-05
3.45714e-05
-7.06409e-05
3.82988e-05
-8.09854e-05
4.20537e-05
-9.18703e-05
4.57616e-05
-0.000103193
4.93436e-05
-0.000114835
5.272e-05
-0.000126669
5.58145e-05
-0.000138567
5.85582e-05
-0.0001504
6.08933e-05
-0.000162052
6.27746e-05
-0.00017342
6.41717e-05
-0.000184415
6.50679e-05
-0.000194969
6.54596e-05
-0.000205028
6.53543e-05
-0.000214556
6.47683e-05
-0.00022353
6.37241e-05
-0.000231935
6.22487e-05
-0.000239769
6.03712e-05
-0.000247031
5.81219e-05
-0.000253728
5.55304e-05
-0.000259866
5.26254e-05
-0.000265454
4.94339e-05
-0.000270501
4.5981e-05
-0.000275016
4.22895e-05
-0.000279006
3.83802e-05
-0.000282479
3.42719e-05
-0.00028544
2.99814e-05
-0.000287894
2.55237e-05
-0.000289843
2.09125e-05
-0.00029129
1.61603e-05
-0.000292234
1.12788e-05
-0.000292674
6.27905e-06
-0.000292604
1.17243e-06
-0.00029202
-4.02937e-06
-0.000290913
-9.31361e-06
-0.000289272
-1.46659e-05
-0.000287086
-2.00696e-05
-0.000284338
-2.55053e-05
-0.000281013
-3.09498e-05
-0.000277091
-3.6376e-05
-0.000272554
-4.17517e-05
-0.00026738
-4.70395e-05
-0.00026155
-5.21961e-05
-0.000255047
-5.71722e-05
-0.000247855
-6.19126e-05
-0.000239964
-6.63564e-05
-0.00023137
-7.04381e-05
-0.000222079
-7.40882e-05
-0.000212106
-7.72359e-05
-0.000201481
-7.98104e-05
-0.000190247
-8.17447e-05
-0.000178463
-8.29779e-05
-0.000166205
-8.34597e-05
-0.000153567
-8.31529e-05
-0.000140655
-8.20374e-05
-0.000127589
-8.01128e-05
-0.000114499
-7.73998e-05
-0.000101517
-7.3941e-05
-8.8776e-05
-6.98002e-05
-7.64034e-05
-6.50598e-05
-6.45152e-05
-5.98173e-05
-5.32132e-05
-5.41807e-05
-4.25814e-05
-4.82637e-05
-3.26855e-05
-4.218e-05
-2.35728e-05
-3.60398e-05
-1.52739e-05
-2.99453e-05
-7.80528e-06
-2.39895e-05
-1.17194e-06
-1.82545e-05
4.62967e-06
-1.28119e-05
9.60986e-06
-7.72282e-06
1.37844e-05
-3.0391e-06
1.71746e-05
1.19682e-06
1.98073e-05
4.95178e-06
2.17165e-05
8.20255e-06
2.29438e-05
1.09367e-05
2.35393e-05
1.31538e-05
2.35611e-05
1.48657e-05
2.30747e-05
1.60967e-05
2.21509e-05
1.68827e-05
2.08641e-05
1.72691e-05
1.92882e-05
1.7308e-05
1.74963e-05
1.70547e-05
1.55553e-05
1.65632e-05
1.35288e-05
1.58814e-05
1.14704e-05
1.50469e-05
9.43312e-06
1.40814e-05
7.45819e-06
1.2989e-05
5.59622e-06
1.17522e-05
3.88544e-06
1.03348e-05
2.39386e-06
8.68111e-06
1.17318e-06
6.7265e-06
3.42622e-07
4.39723e-06
1.63003e-06
3.12713e-07
-1.91945e-06
1.0549e-06
-5.00648e-06
2.0872e-06
-7.30712e-06
3.23709e-06
-8.8152e-06
4.38878e-06
-9.55076e-06
5.41953e-06
-9.57591e-06
6.24978e-06
-8.9807e-06
6.809e-06
-7.87891e-06
7.05753e-06
-6.39201e-06
6.96574e-06
-4.63922e-06
6.52092e-06
-2.72627e-06
5.71359e-06
-7.38183e-07
4.53813e-06
1.26557e-06
2.98405e-06
3.25325e-06
1.03525e-06
5.22029e-06
-1.33436e-06
7.18673e-06
-4.16042e-06
9.19222e-06
-7.48832e-06
1.12896e-05
-1.13704e-05
1.35372e-05
-1.58629e-05
1.59907e-05
-2.10213e-05
1.86963e-05
-2.68963e-05
2.16854e-05
-3.35287e-05
2.49711e-05
-4.09462e-05
2.85475e-05
-4.91592e-05
3.23902e-05
-5.81584e-05
3.64573e-05
-6.79118e-05
4.06919e-05
-7.83639e-05
4.50231e-05
-8.94351e-05
4.93694e-05
-0.000101023
5.36415e-05
-0.000113009
5.77463e-05
-0.000125258
6.1592e-05
-0.000137632
6.50932e-05
-0.000149994
6.81751e-05
-0.000162214
7.07772e-05
-0.000174178
7.28555e-05
-0.000185788
7.4383e-05
-0.000196966
7.53483e-05
-0.000207654
7.57542e-05
-0.000217811
7.56147e-05
-0.000227411
7.49525e-05
-0.000236441
7.37959e-05
-0.000244896
7.21769e-05
-0.000252778
7.0129e-05
-0.000260096
6.7686e-05
-0.000266857
6.48809e-05
-0.000273074
6.17449e-05
-0.000278758
5.83076e-05
-0.000283923
5.45962e-05
-0.000288579
5.06355e-05
-0.00029274
4.64481e-05
-0.000296416
4.20543e-05
-0.000299618
3.74719e-05
-0.000302354
3.27168e-05
-0.000304635
2.78029e-05
-0.000306466
2.27427e-05
-0.000307853
1.75468e-05
-0.0003088
1.22251e-05
-0.000309308
6.7867e-06
-0.000309375
1.24045e-06
-0.000309
-4.40457e-06
-0.000308174
-1.01385e-05
-0.000306888
-1.595e-05
-0.00030513
-2.18259e-05
-0.000302883
-2.77499e-05
-0.000300128
-3.37025e-05
-0.000296842
-3.96598e-05
-0.000292998
-4.55926e-05
-0.000288568
-5.14662e-05
-0.000283521
-5.72392e-05
-0.000277826
-6.28632e-05
-0.000271452
-6.82826e-05
-0.00026437
-7.34343e-05
-0.000256555
-7.82484e-05
-0.00024799
-8.26489e-05
-0.000238666
-8.65555e-05
-0.000228587
-8.98852e-05
-0.000217772
-9.25558e-05
-0.000206257
-9.44889e-05
-0.000194099
-9.5614e-05
-0.000181375
-9.58733e-05
-0.000168183
-9.52256e-05
-0.000154642
-9.36506e-05
-0.000140887
-9.11522e-05
-0.000127065
-8.77606e-05
-0.00011333
-8.35328e-05
-9.98369e-05
-7.85511e-05
-8.67331e-05
-7.29197e-05
-7.41528e-05
-6.676e-05
-6.22117e-05
-6.02041e-05
-5.10029e-05
-5.33885e-05
-4.05958e-05
-4.64468e-05
-3.10364e-05
-3.95049e-05
-2.23497e-05
-3.26767e-05
-1.45434e-05
-2.60615e-05
-7.61209e-06
-1.9744e-05
-1.54121e-06
-1.37947e-05
3.68984e-06
-8.27123e-06
8.10571e-06
-3.22019e-06
1.17344e-05
1.32195e-06
1.46074e-05
5.32828e-06