/*--------------------------------*- C++ -*----------------------------------*\
| =========                 |                                                 |
| \\      /  F ield         | OpenFOAM: The Open Source CFD Toolbox           |
|  \\    /   O peration     | Version:  2406                                  |
|   \\  /    A nd           | Website:  www.openfoam.com                      |
|    \\/     M anipulation  |                                                 |
\*---------------------------------------------------------------------------*/
FoamFile
{
    version     2.0;
    format      ascii;
    arch        "LSB;label=32;scalar=64";
    class       volScalarField;
    location    "42.6";
    object      p;
}
// * * * * * * * * * * * * * * * * * * * * * * * * * * * * * * * * * * * * * //

dimensions      [0 2 -2 0 0 0 0];

internalField   nonuniform List<scalar> 
3600
(
-6.59975e-09
1.19639e-05
8.39452e-06
-2.65594e-05
-9.15568e-05
-0.000180599
-0.000286359
-0.000403737
-0.000531819
-0.000673425
-0.000833961
-0.00102043
-0.00123953
-0.00149723
-0.00179864
-0.00214783
-0.0025471
-0.00299588
-0.0034893
-0.00401653
-0.00455933
-0.00509118
-0.00557744
-0.00597725
-0.00624719
-0.00634621
-0.00624054
-0.00590779
-0.00533974
-0.00454598
-0.00355715
-0.00243283
-0.00124453
-8.97918e-05
0.000920299
0.00167114
0.00205962
0.0020107
0.00149302
0.000528741
-0.000806063
-0.00239264
-0.00408997
-0.00575958
-0.00728735
-0.00860348
-0.00966149
-0.0104618
-0.0110307
-0.0114084
-0.0116393
-0.0117653
-0.0118219
-0.0118358
-0.0118256
-0.011803
-0.0117746
-0.0117438
-0.0117133
-0.0116915
-1.12734e-05
1.15577e-06
-1.81985e-06
-3.75657e-05
-0.000101807
-0.000187873
-0.000288604
-0.00039927
-0.00051921
-0.000651653
-0.000802356
-0.000977624
-0.00118371
-0.00142639
-0.00171099
-0.00204235
-0.00242406
-0.00285726
-0.00333898
-0.00386052
-0.00440687
-0.00495595
-0.00547709
-0.00593036
-0.0062691
-0.00644558
-0.00641737
-0.00615371
-0.0056434
-0.00489711
-0.00394353
-0.00282993
-0.00163932
-0.000473673
0.000553621
0.00132513
0.00173406
0.00170134
0.00119205
0.000226343
-0.00111906
-0.00272114
-0.00443156
-0.00610332
-0.00761403
-0.00887902
-0.00987326
-0.0106043
-0.011106
-0.0114268
-0.0116174
-0.0117201
-0.0117669
-0.01178
-0.0117744
-0.011759
-0.0117389
-0.011716
-0.0116893
-0.0116682
-1.16542e-05
7.25506e-07
-3.54117e-06
-4.33389e-05
-0.000109854
-0.000194437
-0.000289375
-0.00039046
-0.000498124
-0.000616641
-0.000752217
-0.000911428
-0.00110067
-0.00132646
-0.00159599
-0.00191716
-0.00229784
-0.00274466
-0.00326089
-0.0038429
-0.004476
-0.00513236
-0.00577241
-0.00634807
-0.00680712
-0.00709845
-0.00717747
-0.00701113
-0.00658319
-0.00590039
-0.00499687
-0.00392201
-0.00274862
-0.00157545
-0.000517313
0.000305412
0.000781269
0.000824259
0.000390971
-0.0005066
-0.00179708
-0.00335809
-0.00503669
-0.00667722
-0.00814834
-0.00936303
-0.0102894
-0.0109408
-0.0113563
-0.0115937
-0.0117116
-0.0117576
-0.0117654
-0.0117558
-0.0117399
-0.0117228
-0.0117062
-0.011689
-0.0116643
-0.0116426
1.33434e-05
2.52349e-05
1.71557e-05
-3.08308e-05
-0.000104456
-0.000191365
-0.000282273
-0.000373492
-0.000467267
-0.00057009
-0.000690222
-0.000836266
-0.00101729
-0.00124406
-0.00153015
-0.00189187
-0.00234618
-0.00290598
-0.00357425
-0.00433995
-0.00517674
-0.006044
-0.00689032
-0.00765858
-0.00829145
-0.00873654
-0.00895079
-0.00890327
-0.00857803
-0.00797927
-0.00713546
-0.00609608
-0.00493004
-0.0037278
-0.0025983
-0.00165996
-0.00102767
-0.000796755
-0.00102549
-0.00171993
-0.00282609
-0.00423412
-0.00579574
-0.00735172
-0.00876208
-0.00992976
-0.0108107
-0.0114053
-0.0117543
-0.0119177
-0.0119583
-0.011931
-0.0118764
-0.011819
-0.0117704
-0.0117336
-0.0117069
-0.0116858
-0.0116579
-0.0116336
6.83894e-05
7.60985e-05
5.87837e-05
-2.14939e-06
-8.64245e-05
-0.000177637
-0.000265359
-0.000347238
-0.000428599
-0.000519611
-0.000632727
-0.000781976
-0.000984198
-0.00126079
-0.0016376
-0.00214115
-0.00279183
-0.00359684
-0.00454582
-0.00561038
-0.00674704
-0.00790179
-0.00901484
-0.0100251
-0.0108747
-0.011513
-0.0118997
-0.0120064
-0.0118181
-0.0113378
-0.0105892
-0.00961258
-0.00846801
-0.00723494
-0.00601063
-0.00490487
-0.00403061
-0.00349055
-0.00336073
-0.00367397
-0.00440761
-0.00548094
-0.00676611
-0.00811189
-0.0093741
-0.0104429
-0.0112576
-0.0118059
-0.0121161
-0.0122387
-0.0122328
-0.0121542
-0.0120476
-0.0119429
-0.0118556
-0.0117904
-0.0117453
-0.011714
-0.0116808
-0.0116545
0.000160643
0.000159633
0.000127388
4.94387e-05
-4.79123e-05
-0.000144966
-0.000231594
-0.000308611
-0.00038613
-0.000480491
-0.000612432
-0.0008075
-0.00109728
-0.0015183
-0.00210648
-0.00288831
-0.00387301
-0.00504861
-0.00638307
-0.00782839
-0.00932612
-0.0108128
-0.0122245
-0.0135005
-0.0145862
-0.0154355
-0.016013
-0.0162942
-0.0162664
-0.015932
-0.0153107
-0.0144323
-0.0133433
-0.0121075
-0.0108046
-0.00952757
-0.00837768
-0.00745611
-0.0068513
-0.00662381
-0.00679149
-0.00731977
-0.00812259
-0.00907677
-0.0100475
-0.0109171
-0.011607
-0.0120845
-0.0123579
-0.0124616
-0.012442
-0.0123469
-0.012218
-0.0120866
-0.0119717
-0.0118821
-0.0118184
-0.0117753
-0.0117372
-0.0117105
0.000298772
0.000284517
0.000232224
0.000134402
2.23711e-05
-8.29734e-05
-0.000174238
-0.000257942
-0.000352065
-0.000483625
-0.000687944
-0.0010085
-0.00149401
-0.00219057
-0.00313086
-0.00432523
-0.00575862
-0.00739317
-0.0091741
-0.0110365
-0.0129112
-0.01473
-0.0164292
-0.0179526
-0.0192526
-0.0202915
-0.0210414
-0.0214851
-0.0216161
-0.0214375
-0.0209606
-0.0202096
-0.0192194
-0.0180355
-0.0167156
-0.0153285
-0.0139533
-0.0126755
-0.0115808
-0.0107446
-0.0102202
-0.0100254
-0.0101348
-0.0104805
-0.0109643
-0.01148
-0.0119375
-0.0122798
-0.0124869
-0.0125678
-0.0125491
-0.0124629
-0.0123411
-0.0122099
-0.0120886
-0.0119885
-0.011914
-0.0118631
-0.0118231
-0.0117977
0.000491585
0.000460146
0.000383961
0.000264692
0.000136159
1.70863e-05
-9.12588e-05
-0.000204782
-0.000354158
-0.00058323
-0.000947363
-0.00150838
-0.00232396
-0.00343409
-0.00485083
-0.00655547
-0.00850271
-0.0106285
-0.0128585
-0.0151156
-0.0173256
-0.0194217
-0.0213464
-0.0230531
-0.0245056
-0.0256774
-0.0265508
-0.0271173
-0.0273771
-0.0273358
-0.027001
-0.0263917
-0.0255333
-0.0244565
-0.0231983
-0.0218022
-0.0203194
-0.0188084
-0.0173337
-0.0159634
-0.0147631
-0.0137876
-0.0130704
-0.0126158
-0.0123946
-0.0123493
-0.0124067
-0.0124966
-0.0125673
-0.0125917
-0.0125645
-0.0124946
-0.0123972
-0.0122881
-0.0121817
-0.0120891
-0.0120167
-0.011966
-0.0119288
-0.011907
0.000745944
0.000693908
0.000591597
0.000450648
0.000301489
0.000157288
8.78001e-06
-0.000174377
-0.000441388
-0.000857563
-0.00149742
-0.00243125
-0.00370823
-0.00534368
-0.00731572
-0.00957073
-0.0120334
-0.0146177
-0.0172361
-0.0198072
-0.0222604
-0.0245379
-0.0265949
-0.0283988
-0.0299271
-0.0311657
-0.0321068
-0.0327494
-0.0330986
-0.0331621
-0.0329485
-0.0324732
-0.0317547
-0.0308134
-0.0296719
-0.0283544
-0.0268873
-0.0253006
-0.0236289
-0.0219137
-0.0202049
-0.0185606
-0.0170444
-0.0157183
-0.0146321
-0.0138116
-0.013249
-0.0129025
-0.0127084
-0.012601
-0.0125291
-0.0124634
-0.0123928
-0.0123171
-0.012241
-0.0121715
-0.0121146
-0.0120737
-0.0120445
-0.0120283
0.00106242
0.000988772
0.000859247
0.000695026
0.000516834
0.000327022
0.000100729
-0.000212194
-0.000683539
-0.00139861
-0.00244049
-0.00386945
-0.00570652
-0.00792826
-0.0104729
-0.013253
-0.0161688
-0.0191212
-0.0220202
-0.0247912
-0.0273761
-0.029733
-0.0318335
-0.03366
-0.0352028
-0.0364578
-0.0374252
-0.0381088
-0.0385152
-0.0386532
-0.0385338
-0.0381697
-0.0375749
-0.0367642
-0.035752
-0.0345514
-0.0331735
-0.0316279
-0.0299236
-0.0280723
-0.0260928
-0.0240177
-0.0218993
-0.0198141
-0.0178598
-0.0161426
-0.014753
-0.0137368
-0.0130764
-0.0126982
-0.0125041
-0.0124069
-0.0123507
-0.0123085
-0.0122701
-0.0122342
-0.0122035
-0.0121807
-0.0121638
-0.0121542
0.00143061
0.001338
0.00118078
0.00098831
0.000765263
0.000497406
0.00013909
-0.000383201
-0.00116239
-0.00229345
-0.00384938
-0.00585995
-0.00830304
-0.0111104
-0.0141821
-0.0174042
-0.0206644
-0.0238635
-0.0269218
-0.0297811
-0.0324022
-0.0347616
-0.0368466
-0.0386521
-0.0401774
-0.0414249
-0.0423989
-0.0431053
-0.0435509
-0.0437441
-0.0436959
-0.0434172
-0.0429195
-0.0422145
-0.0413128
-0.0402226
-0.0389484
-0.03749
-0.0358426
-0.0339975
-0.0319468
-0.0296897
-0.027243
-0.0246549
-0.022016
-0.0194632
-0.0171644
-0.0152798
-0.0139071
-0.0130411
-0.0125794
-0.012376
-0.0123031
-0.0122837
-0.0122823
-0.0122844
-0.0122861
-0.0122871
-0.0122848
-0.0122821
0.00182801
0.00171946
0.00153342
0.00130284
0.00100983
0.000618611
5.92049e-05
-0.000764217
-0.00195651
-0.00360445
-0.00575011
-0.00837684
-0.0114127
-0.014747
-0.0182509
-0.0217976
-0.0252772
-0.0286039
-0.0317183
-0.0345839
-0.0371811
-0.0395024
-0.0415471
-0.0433179
-0.0448192
-0.0460559
-0.0470336
-0.0477581
-0.0482355
-0.048473
-0.0484799
-0.0482655
-0.0478396
-0.047212
-0.0463916
-0.0453848
-0.0441944
-0.042818
-0.0412467
-0.0394645
-0.0374498
-0.0351792
-0.0326361
-0.0298248
-0.0267899
-0.0236373
-0.0205443
-0.0177438
-0.0154663
-0.0138545
-0.0128978
-0.0124446
-0.0122895
-0.0122687
-0.0122961
-0.0123352
-0.0123709
-0.0123978
-0.0124109
-0.0124148
0.0022151
0.0020938
0.00187525
0.00159022
0.00119276
0.000622322
-0.000215321
-0.00143083
-0.00312498
-0.00535585
-0.00811777
-0.01134
-0.0149033
-0.0186644
-0.0224807
-0.0262289
-0.0298152
-0.0331773
-0.0362795
-0.0391063
-0.0416545
-0.0439276
-0.0459317
-0.0476733
-0.0491583
-0.0503917
-0.0513783
-0.0521228
-0.05263
-0.0529058
-0.0529573
-0.0527921
-0.0524185
-0.0518449
-0.0510791
-0.0501269
-0.0489915
-0.0476714
-0.046159
-0.0444392
-0.0424887
-0.0402766
-0.0377682
-0.0349349
-0.0317709
-0.0283193
-0.0247026
-0.0211416
-0.0179366
-0.015387
-0.0136664
-0.0127337
-0.0123653
-0.0122926
-0.0123317
-0.0124016
-0.0124693
-0.0125216
-0.0125495
-0.0125597
0.00253606
0.00240379
0.00214548
0.00178334
0.00124006
0.000429931
-0.000760402
-0.00244309
-0.00469578
-0.00753037
-0.0108844
-0.0146346
-0.0186245
-0.022694
-0.0267035
-0.0305475
-0.0341576
-0.0374975
-0.0405539
-0.0433275
-0.0458259
-0.0480585
-0.0500341
-0.0517598
-0.0532407
-0.0544808
-0.0554833
-0.0562514
-0.0567884
-0.0570989
-0.0571879
-0.0570617
-0.0567269
-0.0561908
-0.0554599
-0.05454
-0.0534347
-0.0521442
-0.0506643
-0.048984
-0.0470845
-0.0449377
-0.0425063
-0.0397476
-0.0366233
-0.0331198
-0.0292814
-0.0252512
-0.0212998
-0.0178002
-0.0151151
-0.0134247
-0.0126224
-0.0123913
-0.0124085
-0.0124979
-0.0125934
-0.0126689
-0.0127109
-0.0127276
0.0027224
0.0025785
0.00226958
0.00180353
0.00107111
-3.51979e-05
-0.001638
-0.00383445
-0.00666175
-0.0100749
-0.0139544
-0.0181339
-0.0224349
-0.0266977
-0.0308001
-0.0346632
-0.0382466
-0.0415375
-0.0445397
-0.0472644
-0.0497245
-0.0519314
-0.0538935
-0.0556168
-0.0571049
-0.05836
-0.0593839
-0.0601781
-0.0607449
-0.0610873
-0.061209
-0.0611149
-0.0608102
-0.0603008
-0.0595925
-0.0586905
-0.0575986
-0.0563185
-0.0548488
-0.0531833
-0.0513095
-0.0492067
-0.0468439
-0.0441793
-0.0411634
-0.0377494
-0.0339181
-0.0297189
-0.0253239
-0.0210649
-0.0173951
-0.0147276
-0.0132091
-0.0126233
-0.0125466
-0.0126355
-0.0127534
-0.0128505
-0.0129066
-0.0129308
0.00270035
0.00254145
0.00216879
0.00157162
0.00061127
-0.000834737
-0.00288536
-0.00560681
-0.00898386
-0.012912
-0.0172223
-0.0217194
-0.0262198
-0.0305785
-0.0347003
-0.0385353
-0.0420683
-0.0453045
-0.0482584
-0.0509466
-0.0533832
-0.0555789
-0.0575405
-0.0592719
-0.0607749
-0.0620504
-0.0630985
-0.0639199
-0.0645155
-0.0648872
-0.0650378
-0.0649707
-0.0646903
-0.0642012
-0.0635083
-0.0626163
-0.0615288
-0.0602484
-0.0587756
-0.0571077
-0.0552381
-0.0531536
-0.0508328
-0.0482428
-0.0453378
-0.0420616
-0.0383596
-0.0342084
-0.0296695
-0.0249582
-0.020486
-0.0167925
-0.0143118
-0.0130963
-0.0127739
-0.0128262
-0.0129561
-0.0130757
-0.0131478
-0.013182
0.00240059
0.00222137
0.00177182
0.00102035
-0.000195913
-0.00200518
-0.00450947
-0.0077318
-0.0115995
-0.0159533
-0.0205873
-0.025293
-0.0298968
-0.0342786
-0.0383725
-0.0421558
-0.0456324
-0.0488193
-0.0517366
-0.0544018
-0.056828
-0.0590237
-0.0609937
-0.0627397
-0.0642621
-0.0655604
-0.0666337
-0.0674817
-0.0681044
-0.068503
-0.0686791
-0.0686354
-0.0683752
-0.0679022
-0.0672207
-0.0663345
-0.0652474
-0.0639621
-0.0624803
-0.0608018
-0.0589235
-0.0568388
-0.0545348
-0.0519896
-0.0491685
-0.046021
-0.0424832
-0.038492
-0.0340237
-0.0291631
-0.0241916
-0.0196248
-0.0160844
-0.0139681
-0.0131536
-0.013083
-0.0132089
-0.0133516
-0.0134444
-0.0134925
0.00176863
0.00156309
0.00102612
0.000105096
-0.0013798
-0.00355266
-0.00648728
-0.0101567
-0.0144325
-0.0191106
-0.0239625
-0.0287816
-0.0334144
-0.0377697
-0.0418098
-0.0455333
-0.0489571
-0.0521045
-0.0549967
-0.0576501
-0.0600753
-0.0622783
-0.0642617
-0.0660257
-0.0675693
-0.0688908
-0.0699888
-0.0708621
-0.0715102
-0.0719331
-0.072132
-0.0721086
-0.0718655
-0.0714058
-0.070733
-0.0698508
-0.0687626
-0.0674713
-0.0659793
-0.0642877
-0.062396
-0.0603016
-0.0579982
-0.0554731
-0.0527039
-0.0496528
-0.0462631
-0.0424607
-0.0381743
-0.033386
-0.0282247
-0.0230713
-0.0185701
-0.0153942
-0.0138069
-0.0134278
-0.0135273
-0.0136847
-0.013807
-0.0138735
0.000773365
0.000536176
-9.40219e-05
-0.00118945
-0.00293878
-0.00545309
-0.00877047
-0.0128129
-0.0174027
-0.0223039
-0.0272793
-0.0321352
-0.036744
-0.0410431
-0.045018
-0.0486823
-0.0520607
-0.055178
-0.0580544
-0.0607035
-0.0631333
-0.0653474
-0.0673465
-0.0691294
-0.0706942
-0.0720385
-0.0731601
-0.0740573
-0.0747286
-0.0751738
-0.075393
-0.0753875
-0.0751591
-0.0747105
-0.0740447
-0.0731652
-0.0720754
-0.0707784
-0.069277
-0.0675733
-0.0656682
-0.0635617
-0.0612514
-0.0587315
-0.0559895
-0.0530013
-0.0497242
-0.0460917
-0.0420175
-0.0374229
-0.0323098
-0.0268844
-0.0216728
-0.0174577
-0.0148806
-0.0139323
-0.0139279
-0.0140888
-0.0142453
-0.0143375
-0.00058805
-0.000860478
-0.00158386
-0.00284763
-0.00484148
-0.00765685
-0.0112928
-0.0156239
-0.0204333
-0.0254654
-0.0304864
-0.0353223
-0.0398728
-0.0440999
-0.0480068
-0.0516166
-0.0549568
-0.0580515
-0.0609181
-0.0635673
-0.0660043
-0.0682308
-0.0702459
-0.0720474
-0.0736326
-0.0749986
-0.0761426
-0.077062
-0.0777551
-0.0782206
-0.0784583
-0.0784686
-0.0782529
-0.0778136
-0.0771534
-0.0762756
-0.0751838
-0.0738817
-0.0723723
-0.0706584
-0.0687423
-0.066625
-0.0643068
-0.0617859
-0.0590569
-0.0561064
-0.0529069
-0.0494075
-0.0455281
-0.0411671
-0.0362447
-0.0308088
-0.0251965
-0.020128
-0.0164876
-0.0147242
-0.0144191
-0.0145911
-0.0147716
-0.0149004
-0.00228971
-0.00259866
-0.00340931
-0.00482573
-0.00703194
-0.0100959
-0.0139782
-0.0185128
-0.0234548
-0.0285405
-0.0335471
-0.0383241
-0.0427959
-0.0469447
-0.0507855
-0.0543461
-0.0576541
-0.0607311
-0.0635912
-0.0662421
-0.0686868
-0.0709253
-0.0729555
-0.0747746
-0.0763792
-0.0777656
-0.0789306
-0.079871
-0.0805842
-0.0810686
-0.0813231
-0.0813476
-0.0811432
-0.0807116
-0.0800557
-0.0791789
-0.078085
-0.0767779
-0.0752616
-0.0735397
-0.071615
-0.0694899
-0.067166
-0.0646438
-0.0619219
-0.0589948
-0.0558468
-0.0524443
-0.0487237
-0.0445859
-0.0399135
-0.0346418
-0.0289144
-0.0232743
-0.0186594
-0.0159152
-0.0150607
-0.0152187
-0.0154057
-0.0155777
-0.00428048
-0.00462483
-0.00551188
-0.00705825
-0.00943703
-0.0126915
-0.0167476
-0.0214072
-0.0264076
-0.0314859
-0.0364357
-0.0411291
-0.0455122
-0.0495818
-0.0533602
-0.0568764
-0.0601562
-0.063218
-0.0660727
-0.0687253
-0.0711769
-0.0734262
-0.0754702
-0.0773055
-0.078928
-0.0803336
-0.0815183
-0.0824783
-0.0832105
-0.0837124
-0.0839823
-0.0840197
-0.0838251
-0.0834003
-0.0827478
-0.0818712
-0.0807748
-0.0794631
-0.0779407
-0.0762121
-0.0742812
-0.0721513
-0.0698249
-0.0673038
-0.0645891
-0.0616794
-0.0585678
-0.0552348
-0.0516359
-0.0476887
-0.0432702
-0.0382536
-0.0326267
-0.0267106
-0.021332
-0.0175759
-0.0159812
-0.0159655
-0.0161778
-0.0163852
-0.00649031
-0.00686674
-0.00781593
-0.00946558
-0.0119743
-0.0153618
-0.0195248
-0.0242419
-0.0292416
-0.0342682
-0.0391331
-0.0437297
-0.0480209
-0.0520135
-0.0557334
-0.059209
-0.062463
-0.0655104
-0.0683593
-0.0710125
-0.0734695
-0.0757279
-0.0777842
-0.0796341
-0.0812731
-0.0826964
-0.0838995
-0.0848779
-0.0856277
-0.0861457
-0.0864298
-0.0864789
-0.0862932
-0.0858741
-0.0852244
-0.0843476
-0.0832485
-0.0819323
-0.0804045
-0.0786704
-0.076735
-0.0746027
-0.0722769
-0.0697605
-0.0670554
-0.0641629
-0.0610812
-0.057801
-0.0542948
-0.0505015
-0.0463124
-0.0415792
-0.0361857
-0.0302459
-0.0243814
-0.0197346
-0.0172804
-0.0168355
-0.0171221
-0.0173447
-0.00883791
-0.00924136
-0.0102366
-0.0119618
-0.0145591
-0.0180273
-0.0222398
-0.0269605
-0.0319157
-0.0368608
-0.041625
-0.0461194
-0.0503199
-0.0542393
-0.0579046
-0.0613421
-0.0645714
-0.0676043
-0.0704464
-0.0730985
-0.075559
-0.0778247
-0.0798913
-0.0817541
-0.083408
-0.0848476
-0.0860676
-0.0870629
-0.0878289
-0.0883619
-0.088659
-0.0887188
-0.088541
-0.088127
-0.0874793
-0.0866021
-0.0855004
-0.0841799
-0.0826471
-0.0809085
-0.07897
-0.0768372
-0.0745146
-0.072006
-0.0693141
-0.0664414
-0.0633889
-0.0601537
-0.0567212
-0.0530512
-0.0490578
-0.0445974
-0.0395005
-0.0337235
-0.0276548
-0.0223238
-0.0189636
-0.0179153
-0.0182676
-0.0184796
-0.0112381
-0.0116624
-0.0126867
-0.0144613
-0.0171105
-0.0206148
-0.0248311
-0.0295151
-0.0343963
-0.0392426
-0.0438993
-0.048292
-0.0524055
-0.0562562
-0.0598704
-0.0632718
-0.0664768
-0.0694945
-0.0723282
-0.0749774
-0.0774395
-0.0797104
-0.0817855
-0.0836594
-0.0853264
-0.0867805
-0.0880158
-0.0890264
-0.0898072
-0.0903537
-0.0906626
-0.0907319
-0.0905613
-0.0901517
-0.0895059
-0.0886281
-0.0875237
-0.0861994
-0.0846623
-0.0829199
-0.0809795
-0.0788477
-0.0765304
-0.0740322
-0.0713568
-0.0685073
-0.0654862
-0.0622942
-0.0589258
-0.0553577
-0.0515277
-0.0473122
-0.0425288
-0.0370339
-0.0309914
-0.0252039
-0.0210055
-0.0193027
-0.019582
-0.0198005
-0.0136088
-0.0140467
-0.015083
-0.0168841
-0.019555
-0.0230605
-0.0272464
-0.0318663
-0.036656
-0.0413958
-0.0459452
-0.0502406
-0.0542728
-0.0580597
-0.061626
-0.0649927
-0.0681735
-0.071175
-0.0739988
-0.0766432
-0.0791049
-0.0813791
-0.0834606
-0.0853436
-0.0870218
-0.0884886
-0.0897372
-0.0907614
-0.0915553
-0.0921138
-0.0924332
-0.0925111
-0.0923466
-0.0919409
-0.0912967
-0.0904183
-0.0893117
-0.087984
-0.0864432
-0.0846979
-0.0827565
-0.080627
-0.0783164
-0.0758307
-0.0731746
-0.0703517
-0.0673653
-0.0642181
-0.0609104
-0.0574312
-0.0537394
-0.0497378
-0.0452587
-0.040105
-0.0342517
-0.0282441
-0.0233927
-0.0210282
-0.021006
-0.0212968
-0.0158756
-0.0163175
-0.0173501
-0.0191606
-0.0218299
-0.0253101
-0.0294423
-0.033982
-0.0386726
-0.0433059
-0.0477528
-0.0519579
-0.0559156
-0.0596437
-0.0631653
-0.0664988
-0.0696553
-0.0726397
-0.0754522
-0.0780901
-0.0805494
-0.082825
-0.084911
-0.086801
-0.0884883
-0.0899655
-0.0912256
-0.0922614
-0.0930665
-0.0936354
-0.0939638
-0.094049
-0.09389
-0.0934876
-0.0928447
-0.0919657
-0.0908571
-0.0895266
-0.0879829
-0.0862355
-0.084294
-0.0821678
-0.0798652
-0.0773935
-0.0747585
-0.0719648
-0.0690163
-0.0659169
-0.0626703
-0.0592735
-0.0557026
-0.0518889
-0.0476911
-0.0428923
-0.0373366
-0.0313386
-0.0260722
-0.0230612
-0.0225652
-0.0229713
-0.0179778
-0.0184079
-0.0194261
-0.0212336
-0.0238834
-0.02732
-0.0313846
-0.0358368
-0.040428
-0.0449602
-0.0493131
-0.0534367
-0.0573272
-0.061002
-0.0644821
-0.0677838
-0.0709163
-0.0738829
-0.0766828
-0.0793127
-0.0817679
-0.0840428
-0.0861312
-0.0880261
-0.0897203
-0.0912058
-0.0924751
-0.0935204
-0.0943348
-0.0949123
-0.0952483
-0.0953396
-0.095185
-0.0947853
-0.0941433
-0.0932639
-0.0921536
-0.0908207
-0.0892747
-0.087526
-0.0855853
-0.0834631
-0.0811693
-0.0787125
-0.0760999
-0.0733371
-0.0704289
-0.0673802
-0.0641963
-0.0608798
-0.0574201
-0.0537737
-0.049829
-0.0453745
-0.0401843
-0.0343856
-0.028928
-0.0253389
-0.0243357
-0.0248641
-0.0198617
-0.0202699
-0.0212657
-0.0230585
-0.0256744
-0.0290562
-0.033047
-0.0374112
-0.0419081
-0.0463484
-0.0506178
-0.0546698
-0.0585011
-0.0621282
-0.0655702
-0.0688418
-0.0719507
-0.0748991
-0.0776855
-0.0803061
-0.0827556
-0.085028
-0.0871168
-0.0890144
-0.0907132
-0.0922048
-0.093481
-0.0945336
-0.0953553
-0.0959396
-0.0962815
-0.0963776
-0.0962265
-0.0958288
-0.0951874
-0.0943073
-0.0931955
-0.0918606
-0.0903128
-0.0885634
-0.0866241
-0.0845065
-0.0822219
-0.0797804
-0.0771906
-0.0744595
-0.071593
-0.0685968
-0.0654775
-0.0622411
-0.0588875
-0.055393
-0.0516744
-0.047544
-0.0427541
-0.0372849
-0.0318229
-0.0277964
-0.0263766
-0.0269674
-0.0214887
-0.0218674
-0.0228335
-0.0245993
-0.0271729
-0.030495
-0.0344107
-0.0386907
-0.0431022
-0.0474619
-0.0516598
-0.0556506
-0.0594311
-0.0630162
-0.0664239
-0.0696673
-0.0727534
-0.0756836
-0.0784559
-0.081066
-0.0835084
-0.0857768
-0.087864
-0.0897624
-0.0914636
-0.092959
-0.0942399
-0.0952977
-0.0961246
-0.0967139
-0.09706
-0.0971596
-0.0970108
-0.0966144
-0.0959731
-0.0950922
-0.0939787
-0.092642
-0.0910928
-0.0893429
-0.0874051
-0.0852923
-0.0830169
-0.0805905
-0.0780232
-0.0753235
-0.0724986
-0.0695554
-0.0665014
-0.0633456
-0.0600948
-0.0567405
-0.0532257
-0.0493963
-0.0450126
-0.0399474
-0.0346393
-0.0303722
-0.0286539
-0.0292193
-0.0228356
-0.0231766
-0.0241016
-0.0258321
-0.0283607
-0.0316213
-0.0354633
-0.0396658
-0.0440024
-0.0482943
-0.0524331
-0.0563737
-0.0601117
-0.0636609
-0.0670382
-0.0702558
-0.0733202
-0.0762325
-0.0789904
-0.0815893
-0.0840235
-0.0862864
-0.0883704
-0.0902677
-0.0919694
-0.0934665
-0.09475
-0.0958109
-0.0966411
-0.0972335
-0.0975824
-0.0976839
-0.0975364
-0.0971404
-0.0964986
-0.0956163
-0.0945011
-0.0931624
-0.0916115
-0.0898612
-0.0879248
-0.0858163
-0.0835494
-0.0811372
-0.0785911
-0.0759214
-0.0731367
-0.0702453
-0.067256
-0.0641799
-0.0610289
-0.0578058
-0.0544767
-0.0509237
-0.0469306
-0.0423034
-0.0372764
-0.0329628
-0.0310539
-0.0315136
-0.0238906
-0.0241851
-0.0250585
-0.026748
-0.0292281
-0.0324269
-0.0361989
-0.0403317
-0.0446045
-0.0488412
-0.0529334
-0.0568345
-0.0605386
-0.0640581
-0.067409
-0.0706034
-0.0736476
-0.0765427
-0.0792862
-0.0818736
-0.0842988
-0.0865551
-0.0886347
-0.0905292
-0.0922297
-0.0937268
-0.095011
-0.0960732
-0.096905
-0.0974988
-0.0978489
-0.0979512
-0.0978038
-0.0974071
-0.096764
-0.0958799
-0.0947623
-0.0934211
-0.0918682
-0.0901167
-0.0881809
-0.0860757
-0.083816
-0.081416
-0.078889
-0.0762466
-0.0734994
-0.0706569
-0.0677296
-0.0647304
-0.0616752
-0.0585753
-0.0554163
-0.0521141
-0.0484839
-0.0442998
-0.0396415
-0.0354368
-0.0334256
-0.0337311
-0.0246532
-0.0248928
-0.0257057
-0.0273477
-0.0297755
-0.0329117
-0.0366174
-0.040688
-0.0449074
-0.0491006
-0.0531578
-0.0570298
-0.0607082
-0.0642042
-0.0675333
-0.0707074
-0.0737332
-0.0766121
-0.0793417
-0.0819175
-0.0843334
-0.0865825
-0.0886567
-0.0905474
-0.0922454
-0.093741
-0.0950246
-0.0960866
-0.0969184
-0.0975123
-0.0978623
-0.0979641
-0.0978157
-0.0974174
-0.0967721
-0.0958852
-0.0947644
-0.0934199
-0.0918639
-0.0901101
-0.0881734
-0.0860697
-0.0838149
-0.0814245
-0.0789131
-0.0762942
-0.0735799
-0.0707816
-0.0679114
-0.0649842
-0.0620189
-0.0590337
-0.05603
-0.0529529
-0.0496519
-0.0458957
-0.0416547
-0.0376671
-0.0356273
-0.0357654
-0.0251341
-0.0253102
-0.0260551
-0.0276414
-0.0300114
-0.0330833
-0.0367246
-0.0407384
-0.0449126
-0.0490724
-0.053105
-0.0569574
-0.0606182
-0.0640969
-0.0674086
-0.0705657
-0.0735753
-0.0764393
-0.0791558
-0.0817206
-0.0841274
-0.0863691
-0.0884375
-0.0903239
-0.0920187
-0.093512
-0.0947939
-0.0958547
-0.0966855
-0.0972785
-0.0976273
-0.0977276
-0.0975772
-0.0971763
-0.0965278
-0.095637
-0.0945119
-0.0931628
-0.0916022
-0.0898443
-0.0879046
-0.0857997
-0.0835466
-0.0811619
-0.0786617
-0.0760609
-0.0733735
-0.0706126
-0.0677924
-0.0649297
-0.0620464
-0.0591657
-0.0563021
-0.0534245
-0.050417
-0.0470592
-0.0432508
-0.0395496
-0.0375471
-0.0375315
-0.0253524
-0.0254598
-0.026129
-0.0276485
-0.0299526
-0.0329558
-0.0365315
-0.0404904
-0.0446247
-0.0487586
-0.0527751
-0.0566164
-0.0602671
-0.0637346
-0.0670335
-0.0701769
-0.0731728
-0.0760237
-0.0787286
-0.0812833
-0.0836816
-0.0859165
-0.0879796
-0.0898617
-0.0915532
-0.093044
-0.0943239
-0.0953831
-0.0962123
-0.0968037
-0.0971506
-0.0972486
-0.0970954
-0.096691
-0.0960382
-0.0951424
-0.0940115
-0.0926562
-0.0910889
-0.0893245
-0.0873789
-0.0852693
-0.0830136
-0.0806296
-0.0781347
-0.0755453
-0.072877
-0.070145
-0.0673655
-0.0645574
-0.0617453
-0.0589569
-0.0562171
-0.0535142
-0.0507643
-0.0477673
-0.0443825
-0.0410077
-0.0391038
-0.0389632
-0.025335
-0.0253733
-0.0259595
-0.0273976
-0.0296235
-0.0325497
-0.0360544
-0.0399561
-0.0440514
-0.0481634
-0.05217
-0.0560069
-0.059654
-0.063116
-0.0664069
-0.0695403
-0.0725252
-0.0753655
-0.0780605
-0.0806067
-0.0829981
-0.0852274
-0.0872861
-0.0891649
-0.0908539
-0.0923428
-0.0936211
-0.0946788
-0.0955066
-0.0960962
-0.096441
-0.0965363
-0.0963796
-0.0959709
-0.0953128
-0.0944106
-0.0932724
-0.0919087
-0.0903324
-0.0885583
-0.086603
-0.0844844
-0.082221
-0.0798316
-0.0773347
-0.0747483
-0.0720898
-0.0693761
-0.0666257
-0.0638596
-0.0611056
-0.0583951
-0.0557615
-0.0532086
-0.0506812
-0.0480034
-0.045019
-0.0419906
-0.0402384
-0.040007
-0.0251155
-0.0250894
-0.0255856
-0.0269242
-0.0290551
-0.0318914
-0.0353147
-0.0391514
-0.0432035
-0.0472933
-0.0512926
-0.0551298
-0.0587785
-0.0622402
-0.0655277
-0.068655
-0.0716324
-0.0744647
-0.0771525
-0.0796925
-0.082079
-0.0843048
-0.0863612
-0.0882386
-0.0899267
-0.0914152
-0.0926932
-0.0937505
-0.0945776
-0.0951661
-0.095509
-0.0956016
-0.0954411
-0.0950274
-0.094363
-0.0934531
-0.0923057
-0.0909313
-0.0893429
-0.0875556
-0.0855864
-0.0834534
-0.0811759
-0.0787737
-0.0762664
-0.0736733
-0.0710134
-0.0683056
-0.0655705
-0.0628317
-0.06012
-0.0574702
-0.0549235
-0.0524961
-0.0501574
-0.0477569
-0.0451425
-0.0424663
-0.0409056
-0.0406155
-0.0247324
-0.0246515
-0.0250512
-0.0262701
-0.0282847
-0.0310128
-0.0343387
-0.0380966
-0.0420953
-0.046157
-0.0501474
-0.0539864
-0.0576404
-0.0611062
-0.0643948
-0.0675202
-0.0704938
-0.0733218
-0.0760055
-0.0785425
-0.0809273
-0.0831527
-0.0852097
-0.0870885
-0.0887785
-0.090269
-0.0915489
-0.0926078
-0.0934359
-0.0940244
-0.0943664
-0.0944568
-0.0942927
-0.0938737
-0.0932022
-0.0922832
-0.0911247
-0.089737
-0.0881332
-0.0863285
-0.0843402
-0.0821867
-0.0798881
-0.0774646
-0.0749371
-0.072326
-0.0696519
-0.0669356
-0.0642002
-0.0614716
-0.058784
-0.0561754
-0.0536947
-0.0513675
-0.0491844
-0.04702
-0.0447409
-0.0424086
-0.0410666
-0.0407448
-0.0242268
-0.0241042
-0.0244026
-0.025481
-0.0273544
-0.0299507
-0.0331569
-0.0368158
-0.0407442
-0.0447657
-0.0487403
-0.0525788
-0.0562392
-0.0597123
-0.0630061
-0.0661342
-0.0691085
-0.0719364
-0.0746203
-0.0771585
-0.0795458
-0.0817749
-0.0838367
-0.0857209
-0.0874167
-0.0889129
-0.090198
-0.0912614
-0.0920929
-0.0926837
-0.0930264
-0.0931157
-0.0929485
-0.0925242
-0.091845
-0.0909158
-0.0897441
-0.0883404
-0.0867176
-0.084891
-0.0828779
-0.0806973
-0.0783693
-0.0759151
-0.0733564
-0.0707145
-0.068012
-0.0652711
-0.0625176
-0.0597802
-0.0570964
-0.0545074
-0.0520707
-0.0498169
-0.0477558
-0.0457869
-0.0438027
-0.0417886
-0.0406838
-0.0403542
-0.0236391
-0.0234896
-0.0236852
-0.024605
-0.0263101
-0.0287458
-0.0318042
-0.0353372
-0.0391712
-0.0431331
-0.0470786
-0.0509095
-0.0545741
-0.0580559
-0.0613587
-0.0644941
-0.0674742
-0.0703074
-0.072997
-0.0755418
-0.0779372
-0.0801755
-0.0822475
-0.0841426
-0.0858492
-0.0873559
-0.0886507
-0.0897226
-0.0905612
-0.0911571
-0.0915029
-0.0915929
-0.0914238
-0.0909947
-0.0903076
-0.0893669
-0.0881803
-0.0867578
-0.0851123
-0.0832589
-0.081215
-0.0789998
-0.0766337
-0.0741383
-0.0715362
-0.0688497
-0.0661027
-0.0633196
-0.0605286
-0.0577612
-0.0550587
-0.0524672
-0.0500508
-0.0478413
-0.0458699
-0.0440567
-0.0423209
-0.0405847
-0.0397233
-0.0394033
-0.0230063
-0.0228434
-0.022941
-0.0236899
-0.0251995
-0.0274419
-0.0303192
-0.0336931
-0.0374011
-0.041276
-0.0451716
-0.0489815
-0.052644
-0.0561335
-0.0594476
-0.0625952
-0.0655873
-0.0684323
-0.0711345
-0.073693
-0.0761035
-0.0783581
-0.0804473
-0.08236
-0.0840841
-0.0856074
-0.0869177
-0.0880033
-0.0888534
-0.0894585
-0.0898106
-0.0899039
-0.0897346
-0.0893018
-0.0886068
-0.0876541
-0.0864508
-0.0850068
-0.0833347
-0.0814495
-0.0793686
-0.0771108
-0.0746972
-0.0721494
-0.0694907
-0.0667444
-0.063936
-0.0610914
-0.0582419
-0.0554216
-0.0526769
-0.0500585
-0.0476354
-0.0454409
-0.0435325
-0.0418356
-0.0402975
-0.0387898
-0.0381676
-0.0378519
-0.0223595
-0.022194
-0.0222058
-0.0227799
-0.0240702
-0.0260852
-0.0287438
-0.0319195
-0.0354623
-0.0392143
-0.0430307
-0.046799
-0.0504472
-0.0539396
-0.0572661
-0.0604305
-0.0634414
-0.0663065
-0.06903
-0.0716112
-0.0740457
-0.0763257
-0.0784409
-0.0803797
-0.0821293
-0.083677
-0.0850098
-0.0861156
-0.086983
-0.0876022
-0.0879648
-0.0880647
-0.0878977
-0.0874626
-0.0867605
-0.0857954
-0.084574
-0.0831061
-0.0814037
-0.0794817
-0.0773571
-0.0750487
-0.0725776
-0.0699656
-0.0672365
-0.0644143
-0.0615261
-0.0585996
-0.0556693
-0.0527722
-0.0499606
-0.0472884
-0.0448298
-0.0426231
-0.040754
-0.0391335
-0.0377437
-0.0364102
-0.0360055
-0.0356693
-0.0217233
-0.0215624
-0.0215076
-0.0219129
-0.0229673
-0.0247225
-0.0271226
-0.0300559
-0.0333873
-0.0369718
-0.0406703
-0.0443674
-0.0479821
-0.051468
-0.0548052
-0.0579904
-0.0610278
-0.0639228
-0.0666784
-0.0692937
-0.0717637
-0.0740802
-0.0762323
-0.0782076
-0.0799927
-0.081574
-0.0829379
-0.0840716
-0.0849633
-0.0856026
-0.0859809
-0.0860915
-0.0859301
-0.085495
-0.0847869
-0.0838095
-0.0825692
-0.081075
-0.0793389
-0.0773751
-0.0752004
-0.0728332
-0.0702945
-0.067606
-0.064792
-0.0618772
-0.0588901
-0.0558604
-0.0528259
-0.0498274
-0.0469229
-0.04417
-0.0416503
-0.0394073
-0.0375426
-0.0359561
-0.034675
-0.0334608
-0.0332361
-0.0328377
-0.0211161
-0.0209644
-0.0208652
-0.0211176
-0.0219308
-0.0234
-0.0255016
-0.0281446
-0.0312121
-0.034576
-0.0381079
-0.0416942
-0.0452477
-0.0487113
-0.0520538
-0.0552623
-0.0583343
-0.0612708
-0.064072
-0.0667354
-0.0692552
-0.0716221
-0.0738245
-0.0758491
-0.0776816
-0.0793076
-0.0807127
-0.0818835
-0.0828077
-0.0834743
-0.0838744
-0.0840008
-0.0838491
-0.0834168
-0.0827047
-0.0817157
-0.0804559
-0.0789338
-0.0771608
-0.0751506
-0.0729194
-0.0704852
-0.0678687
-0.0650914
-0.0621778
-0.0591532