/*--------------------------------*- C++ -*----------------------------------*\
| =========                 |                                                 |
| \\      /  F ield         | OpenFOAM: The Open Source CFD Toolbox           |
|  \\    /   O peration     | Version:  2406                                  |
|   \\  /    A nd           | Website:  www.openfoam.com                      |
|    \\/     M anipulation  |                                                 |
\*---------------------------------------------------------------------------*/
FoamFile
{
    version     2.0;
    format      ascii;
    arch        "LSB;label=32;scalar=64";
    class       volVectorField;
    location    "37.05";
    object      Uold;
}
// * * * * * * * * * * * * * * * * * * * * * * * * * * * * * * * * * * * * * //

dimensions      [0 1 -1 0 0 0 0];

internalField   nonuniform List<vector> 
14400
(
(-1.74081e-05 1.73573e-05 0)
(-1.85323e-06 -1.05962e-05 0)
(0.000103262 -4.12307e-05 0)
(0.000284788 -6.85059e-05 0)
(0.000531814 -8.47965e-05 0)
(0.000812127 -9.39122e-05 0)
(0.00111113 -9.49041e-05 0)
(0.00140353 -9.07162e-05 0)
(0.00167883 -8.18439e-05 0)
(0.00192234 -7.05453e-05 0)
(0.00213023 -5.77916e-05 0)
(0.0022979 -4.52244e-05 0)
(0.0024279 -3.36416e-05 0)
(0.00252285 -2.39465e-05 0)
(0.00258914 -1.64319e-05 0)
(0.0026326 -1.12816e-05 0)
(0.00266007 -8.26528e-06 0)
(0.00267688 -7.0315e-06 0)
(0.00268751 -7.00607e-06 0)
(0.00269432 -7.58224e-06 0)
(0.00269801 -8.11079e-06 0)
(0.00269723 -8.02404e-06 0)
(0.00268912 -6.84471e-06 0)
(0.0026694 -4.24154e-06 0)
(0.00263299 -9.32407e-09 0)
(0.00257417 5.94031e-06 0)
(0.00248702 1.36285e-05 0)
(0.00236547 2.30454e-05 0)
(0.00220347 3.4192e-05 0)
(0.00199486 4.70972e-05 0)
(0.00173339 6.18251e-05 0)
(0.00141261 7.84618e-05 0)
(0.00102592 9.70991e-05 0)
(0.000566615 0.000117812 0)
(2.79541e-05 0.00014064 0)
(-0.000596631 0.000165575 0)
(-0.00131336 0.000192548 0)
(-0.00212786 0.000221427 0)
(-0.00304495 0.000252008 0)
(-0.00406839 0.000284013 0)
(-0.00520059 0.000317089 0)
(-0.00644244 0.00035081 0)
(-0.007793 0.000384679 0)
(-0.00924938 0.000418133 0)
(-0.0108065 0.000450552 0)
(-0.0124571 0.000481269 0)
(-0.0141915 0.000509582 0)
(-0.0159977 0.000534764 0)
(-0.0178613 0.000556081 0)
(-0.0197657 0.000572797 0)
(-0.0216921 0.000584194 0)
(-0.02362 0.000589576 0)
(-0.0255267 0.000588282 0)
(-0.0273884 0.000579693 0)
(-0.0291798 0.000563246 0)
(-0.0308748 0.00053844 0)
(-0.0324466 0.000504851 0)
(-0.0338682 0.000462152 0)
(-0.0351127 0.000410129 0)
(-0.0361535 0.000348707 0)
(-0.0369654 0.000277974 0)
(-0.0375244 0.000198214 0)
(-0.0378085 0.000109936 0)
(-0.0377985 1.39001e-05 0)
(-0.0374783 -8.88511e-05 0)
(-0.0368356 -0.000196977 0)
(-0.0358628 -0.000308825 0)
(-0.0345573 -0.000422436 0)
(-0.0329224 -0.000535563 0)
(-0.0309674 -0.000645705 0)
(-0.0287086 -0.000750169 0)
(-0.026169 -0.00084615 0)
(-0.0233786 -0.000930831 0)
(-0.0203742 -0.00100151 0)
(-0.0171987 -0.00105571 0)
(-0.0139006 -0.00109135 0)
(-0.0105328 -0.00110687 0)
(-0.00715143 -0.00110133 0)
(-0.00381388 -0.00107451 0)
(-0.000577393 -0.00102701 0)
(0.00250294 -0.000960197 0)
(0.00537606 -0.000876218 0)
(0.00799673 -0.000777885 0)
(0.0103271 -0.000668546 0)
(0.0123379 -0.000551909 0)
(0.0140096 -0.000431836 0)
(0.0153324 -0.000312142 0)
(0.0163066 -0.00019639 0)
(0.0169418 -8.77196e-05 0)
(0.0172564 1.12834e-05 0)
(0.0172757 9.86761e-05 0)
(0.0170311 0.000173188 0)
(0.0165578 0.000234212 0)
(0.0158937 0.000281743 0)
(0.0150772 0.000316301 0)
(0.0141461 0.000338822 0)
(0.0131359 0.000350552 0)
(0.0120795 0.000352932 0)
(0.0110055 0.000347509 0)
(0.00993872 0.000335826 0)
(0.00889924 0.000319386 0)
(0.00790299 0.00029955 0)
(0.00696155 0.000277562 0)
(0.00608301 0.00025445 0)
(0.00527174 0.000231131 0)
(0.00452984 0.00020827 0)
(0.00385631 0.0001865 0)
(0.00324927 0.000166157 0)
(0.00270407 0.000147677 0)
(0.00221692 0.000131055 0)
(0.00178113 0.000116556 0)
(0.00139336 0.000103634 0)
(0.00104703 9.23014e-05 0)
(0.000742648 8.1013e-05 0)
(0.000476938 6.95067e-05 0)
(0.000258237 5.46984e-05 0)
(8.97011e-05 3.70238e-05 0)
(-1.35443e-05 1.28148e-05 0)
(-4.75351e-05 -9.59007e-06 0)
(-2.30066e-05 -2.25375e-05 0)
(9.4284e-06 2.50322e-06 0)
(0.000146417 -0.000149503 0)
(0.000468963 -0.00030494 0)
(0.000939581 -0.000442794 0)
(0.00154334 -0.000533824 0)
(0.00221875 -0.000585608 0)
(0.00293337 -0.000595169 0)
(0.00363531 -0.00057271 0)
(0.00429757 -0.000523044 0)
(0.00488813 -0.000456317 0)
(0.00539432 -0.000379457 0)
(0.00580473 -0.000300762 0)
(0.0061213 -0.000225793 0)
(0.00634807 -0.000159452 0)
(0.00649629 -0.000104159 0)
(0.00657728 -6.1e-05 0)
(0.0066041 -2.91151e-05 0)
(0.00658715 -6.51049e-06 0)
(0.00653469 9.93971e-06 0)
(0.0064505 2.38232e-05 0)
(0.00633443 3.89402e-05 0)
(0.00618167 5.87958e-05 0)
(0.00598371 8.63878e-05 0)
(0.00572865 0.000123975 0)
(0.00540234 0.000173091 0)
(0.00498896 0.000234612 0)
(0.00447187 0.00030896 0)
(0.00383394 0.0003963 0)
(0.00305788 0.000496722 0)
(0.00212639 0.000610341 0)
(0.00102219 0.000737318 0)
(-0.00027186 0.0008778 0)
(-0.00177252 0.00103182 0)
(-0.00349587 0.00119919 0)
(-0.00545685 0.00137939 0)
(-0.00766869 0.00157147 0)
(-0.0101423 0.00177404 0)
(-0.0128855 0.0019852 0)
(-0.0159027 0.00220252 0)
(-0.0191936 0.00242312 0)
(-0.0227536 0.0026436 0)
(-0.0265724 0.00286016 0)
(-0.0306342 0.00306866 0)
(-0.0349173 0.00326466 0)
(-0.0393942 0.00344357 0)
(-0.0440317 0.00360074 0)
(-0.0487911 0.00373157 0)
(-0.0536288 0.00383161 0)
(-0.0584969 0.0038967 0)
(-0.0633439 0.003923 0)
(-0.0681155 0.00390715 0)
(-0.0727555 0.00384625 0)
(-0.0772065 0.00373796 0)
(-0.081411 0.00358056 0)
(-0.0853121 0.00337291 0)
(-0.0888543 0.00311455 0)
(-0.0919843 0.00280568 0)
(-0.0946515 0.0024472 0)
(-0.0968093 0.00204076 0)
(-0.0984148 0.00158877 0)
(-0.0994303 0.00109444 0)
(-0.0998232 0.000561847 0)
(-0.0995671 -4.02325e-06 0)
(-0.0986422 -0.00059725 0)
(-0.0970358 -0.00121094 0)
(-0.094743 -0.0018372 0)
(-0.0917673 -0.00246719 0)
(-0.0881212 -0.00309115 0)
(-0.0838262 -0.00369853 0)
(-0.0789138 -0.00427812 0)
(-0.0734253 -0.00481831 0)
(-0.067412 -0.00530731 0)
(-0.060935 -0.0057336 0)
(-0.0540649 -0.00608621 0)
(-0.046881 -0.00635525 0)
(-0.0394703 -0.00653232 0)
(-0.0319262 -0.006611 0)
(-0.0243469 -0.00658723 0)
(-0.0168333 -0.00645971 0)
(-0.00948711 -0.00623011 0)
(-0.00240783 -0.00590322 0)
(0.00430922 -0.00548692 0)
(0.0105757 -0.004992 0)
(0.0163128 -0.00443177 0)
(0.0214534 -0.00382161 0)
(0.0259439 -0.00317829 0)
(0.0297459 -0.0025193 0)
(0.0328375 -0.00186205 0)
(0.0352132 -0.00122316 0)
(0.036884 -0.000617746 0)
(0.0378768 -5.88493e-05 0)
(0.0382327 0.000443028 0)
(0.0380051 0.000880216 0)
(0.0372576 0.00124799 0)
(0.0360609 0.00154452 0)
(0.0344903 0.0017707 0)
(0.0326223 0.00192979 0)
(0.0305322 0.00202698 0)
(0.0282915 0.00206894 0)
(0.0259658 0.00206329 0)
(0.0236132 0.00201814 0)
(0.0212836 0.00194159 0)
(0.0190175 0.00184149 0)
(0.016847 0.001725 0)
(0.0147952 0.00159864 0)
(0.0128781 0.00146784 0)
(0.0111037 0.00133741 0)
(0.00947543 0.00121085 0)
(0.00799024 0.00109126 0)
(0.00664423 0.000979955 0)
(0.00542762 0.000878213 0)
(0.00433513 0.000784342 0)
(0.00335608 0.000697336 0)
(0.00249153 0.000611075 0)
(0.00173626 0.000522695 0)
(0.0011051 0.000421126 0)
(0.000601017 0.000307322 0)
(0.000249645 0.000171429 0)
(4.72185e-05 4.45038e-05 0)
(-9.77338e-06 -4.7486e-05 0)
(3.73578e-05 -9.77099e-05 0)
(0.000292754 -0.000469274 0)
(0.000814378 -0.000830494 0)
(0.00152402 -0.00114173 0)
(0.00240528 -0.00135391 0)
(0.00337362 -0.0014724 0)
(0.00438735 -0.00149397 0)
(0.0053772 -0.00143664 0)
(0.00630617 -0.00131377 0)
(0.00713082 -0.0011468 0)
(0.00783213 -0.000953352 0)
(0.00839337 -0.000752092 0)
(0.00881464 -0.00055705 0)
(0.00909938 -0.000379631 0)
(0.00926011 -0.000226198 0)
(0.0093098 -9.93386e-05 0)
(0.00926339 2.68402e-06 0)
(0.00913241 8.47046e-05 0)
(0.00892517 0.000154188 0)
(0.00864392 0.000219956 0)
(0.00828524 0.000291334 0)
(0.00783929 0.000377079 0)
(0.00729095 0.000484733 0)
(0.00662034 0.000620123 0)
(0.0058043 0.000787302 0)
(0.00481733 0.000988717 0)
(0.00363269 0.00122561 0)
(0.00222309 0.00149846 0)
(0.000561274 0.00180736 0)
(-0.00137962 0.0021522 0)
(-0.00362563 0.00253268 0)
(-0.00620151 0.00294819 0)
(-0.00913009 0.00339754 0)
(-0.0124315 0.00387867 0)
(-0.0161223 0.00438845 0)
(-0.0202142 0.00492251 0)
(-0.0247134 0.00547512 0)
(-0.0296191 0.00603922 0)
(-0.0349232 0.00660642 0)
(-0.0406089 0.00716716 0)
(-0.0466508 0.0077109 0)
(-0.0530144 0.00822632 0)
(-0.0596565 0.00870169 0)
(-0.0665255 0.00912509 0)
(-0.073562 0.00948484 0)
(-0.0807005 0.00976983 0)
(-0.0878698 0.00996979 0)
(-0.0949954 0.0100756 0)
(-0.102 0.0100796 0)
(-0.108807 0.00997548 0)
(-0.115338 0.00975874 0)
(-0.12152 0.00942649 0)
(-0.12728 0.0089775 0)
(-0.13255 0.00841215 0)
(-0.137268 0.00773236 0)
(-0.141378 0.0069415 0)
(-0.144826 0.00604431 0)
(-0.147568 0.00504683 0)
(-0.149565 0.00395636 0)
(-0.150784 0.00278142 0)
(-0.151199 0.0015318 0)
(-0.150791 0.000218549 0)
(-0.149547 -0.00114598 0)
(-0.147462 -0.00254807 0)
(-0.144536 -0.00397262 0)
(-0.140779 -0.00540312 0)
(-0.136207 -0.0068217 0)
(-0.130846 -0.00820921 0)
(-0.124727 -0.00954536 0)
(-0.117893 -0.010809 0)
(-0.110393 -0.0119784 0)
(-0.102287 -0.0130318 0)
(-0.0936428 -0.0139478 0)
(-0.084538 -0.0147062 0)
(-0.0750579 -0.0152886 0)
(-0.0652955 -0.0156791 0)
(-0.0553507 -0.0158651 0)
(-0.045329 -0.0158383 0)
(-0.0353398 -0.015595 0)
(-0.0254945 -0.0151367 0)
(-0.0159048 -0.0144705 0)
(-0.00667976 -0.0136094 0)
(0.00207585 -0.0125716 0)
(0.0102645 -0.0113806 0)
(0.0177982 -0.0100643 0)
(0.0246006 -0.00865399 0)
(0.0306089 -0.00718356 0)
(0.0357758 -0.00568796 0)
(0.0400708 -0.00420207 0)
(0.0434809 -0.00275938 0)
(0.0460108 -0.00139074 0)
(0.0476832 -0.000123267 0)
(0.0485377 0.00102059 0)
(0.0486295 0.00202372 0)
(0.0480274 0.0028748 0)
(0.0468111 0.00356843 0)
(0.0450686 0.00410493 0)
(0.0428925 0.00448988 0)
(0.0403767 0.00473344 0)
(0.0376133 0.00484935 0)
(0.0346889 0.00485396 0)
(0.0316829 0.00476507 0)
(0.0286648 0.00460105 0)
(0.0256938 0.00437976 0)
(0.022817 0.00411814 0)
(0.0200714 0.00383124 0)
(0.0174818 0.00353253 0)
(0.0150656 0.00323277 0)
(0.0128291 0.00294102 0)
(0.0107758 0.00266267 0)
(0.00889989 0.00240151 0)
(0.00719951 0.00215576 0)
(0.0056643 0.00192282 0)
(0.00429812 0.0016915 0)
(0.00309418 0.00145402 0)
(0.00207253 0.00119086 0)
(0.0012321 0.000901259 0)
(0.00061052 0.000572025 0)
(0.00019531 0.000254193 0)
(1.70805e-05 -7.40148e-06 0)
(6.18709e-05 -0.000267882 0)
(0.000423617 -0.000930488 0)
(0.00111726 -0.0015379 0)
(0.00202016 -0.00204192 0)
(0.00311349 -0.00238445 0)
(0.00429223 -0.00256879 0)
(0.00551055 -0.00259349 0)
(0.00668689 -0.00248446 0)
(0.00777935 -0.00226496 0)
(0.00873695 -0.00196878 0)
(0.00953713 -0.00162562 0)
(0.0101592 -0.00126573 0)
(0.0106014 -0.000912673 0)
(0.0108654 -0.000585135 0)
(0.0109629 -0.000293836 0)
(0.0109055 -4.28877e-05 0)
(0.0107068 0.000170701 0)
(0.0103761 0.000355337 0)
(0.00991843 0.000523835 0)
(0.00933152 0.000691423 0)
(0.00860623 0.000874168 0)
(0.00772581 0.00108722 0)
(0.00666722 0.00134363 0)
(0.00540195 0.00165354 0)
(0.00389774 0.00202401 0)
(0.00211984 0.00245931 0)
(3.24022e-05 0.00296148 0)
(-0.00240053 0.00353101 0)
(-0.00521404 0.00416737 0)
(-0.0084416 0.00486922 0)
(-0.0121141 0.0056344 0)
(-0.0162587 0.00645957 0)
(-0.0208978 0.00733983 0)
(-0.0260475 0.00826829 0)
(-0.0317164 0.00923575 0)
(-0.0379037 0.0102305 0)
(-0.0445984 0.0112385 0)
(-0.0517783 0.0122432 0)
(-0.0594091 0.0132263 0)
(-0.0674446 0.0141676 0)
(-0.0758269 0.0150465 0)
(-0.0844875 0.0158416 0)
(-0.0933488 0.0165323 0)
(-0.102326 0.017099 0)
(-0.111328 0.0175239 0)
(-0.120263 0.0177917 0)
(-0.129037 0.0178896 0)
(-0.137558 0.0178082 0)
(-0.145739 0.017541 0)
(-0.153497 0.0170848 0)
(-0.160754 0.0164394 0)
(-0.167443 0.0156072 0)
(-0.1735 0.0145932 0)
(-0.178873 0.0134043 0)
(-0.183514 0.0120493 0)
(-0.187385 0.0105385 0)
(-0.190453 0.00888338 0)
(-0.192692 0.0070967 0)
(-0.194082 0.00519213 0)
(-0.194609 0.0031844 0)
(-0.194262 0.00108927 0)
(-0.193037 -0.00107635 0)
(-0.190934 -0.00329432 0)
(-0.187957 -0.00554513 0)
(-0.184116 -0.00780777 0)
(-0.179426 -0.0100596 0)
(-0.173905 -0.0122765 0)
(-0.167579 -0.0144324 0)
(-0.16048 -0.0165002 0)
(-0.152647 -0.0184512 0)
(-0.144124 -0.020256 0)
(-0.134966 -0.0218848 0)
(-0.125234 -0.0233082 0)
(-0.114998 -0.0244978 0)
(-0.104335 -0.0254276 0)
(-0.0933317 -0.0260744 0)
(-0.0820822 -0.0264192 0)
(-0.0706864 -0.0264485 0)
(-0.05925 -0.0261547 0)
(-0.0478825 -0.0255371 0)
(-0.0366954 -0.0246029 0)
(-0.0258003 -0.0233667 0)
(-0.0153065 -0.021851 0)
(-0.00531876 -0.0200859 0)
(0.00406472 -0.0181077 0)
(0.0127547 -0.0159585 0)
(0.0206726 -0.0136847 0)
(0.0277527 -0.0113355 0)
(0.0339429 -0.00896137 0)
(0.0392066 -0.00661228 0)
(0.0435235 -0.00433628 0)
(0.04689 -0.00217785 0)
(0.0493197 -0.000176478 0)
(0.0508434 0.00163457 0)
(0.051508 0.00322933 0)
(0.0513761 0.00458986 0)
(0.0505234 0.00570668 0)
(0.049037 0.00657874 0)
(0.0470115 0.00721302 0)
(0.0445466 0.00762368 0)
(0.0417422 0.00783086 0)
(0.0386962 0.00785911 0)
(0.0354996 0.00773594 0)
(0.0322356 0.00748998 0)
(0.0289755 0.00714983 0)
(0.0257797 0.0067424 0)
(0.0226948 0.00629252 0)
(0.0197575 0.00582128 0)
(0.0169903 0.00534665 0)
(0.0144105 0.00488096 0)
(0.0120222 0.00443293 0)
(0.00983261 0.00400286 0)
(0.00783579 0.00358808 0)
(0.00604168 0.00317399 0)
(0.00444287 0.00274839 0)
(0.00306585 0.00228469 0)
(0.00190411 0.00177824 0)
(0.00101038 0.00121144 0)
(0.000365521 0.000641421 0)
(4.88539e-05 0.00011842 0)
(7.73868e-05 -0.000500955 0)
(0.000519359 -0.00152816 0)
(0.00134987 -0.00242577 0)
(0.00240498 -0.00314378 0)
(0.00365994 -0.00362334 0)
(0.00498885 -0.0038672 0)
(0.00634184 -0.00387905 0)
(0.00762693 -0.00369373 0)
(0.00879963 -0.00334668 0)
(0.00980385 -0.00288532 0)
(0.0106157 -0.00235309 0)
(0.0112119 -0.00179279 0)
(0.0115899 -0.00123841 0)
(0.0117494 -0.000716176 0)
(0.0117002 -0.000241163 0)
(0.0114513 0.00018149 0)
(0.0110126 0.000556832 0)
(0.0103884 0.000897962 0)
(0.00957781 0.00122431 0)
(0.00857145 0.00155884 0)
(0.00735202 0.00192557 0)
(0.00589389 0.00234703 0)
(0.00416482 0.00284248 0)
(0.002127 0.00342673 0)
(-0.000260719 0.00410989 0)
(-0.00304137 0.00489768 0)
(-0.00625801 0.00579229 0)
(-0.00995242 0.00679315 0)
(-0.0141636 0.00789754 0)
(-0.0189262 0.00910081 0)
(-0.0242694 0.0103961 0)
(-0.0302146 0.0117741 0)
(-0.0367739 0.0132219 0)
(-0.0439479 0.0147235 0)
(-0.0517247 0.0162586 0)
(-0.0600778 0.0178033 0)
(-0.0689661 0.0193304 0)
(-0.0783334 0.0208097 0)
(-0.0881091 0.0222095 0)
(-0.09821 0.0234974 0)
(-0.108542 0.0246415 0)
(-0.119004 0.0256115 0)
(-0.12949 0.0263805 0)
(-0.139893 0.0269251 0)
(-0.150106 0.0272268 0)
(-0.16003 0.0272719 0)
(-0.169571 0.027052 0)
(-0.178643 0.0265637 0)
(-0.187172 0.0258081 0)
(-0.195092 0.0247904 0)
(-0.202348 0.023519 0)
(-0.208893 0.0220053 0)
(-0.21469 0.0202625 0)
(-0.21971 0.0183057 0)
(-0.223928 0.0161506 0)
(-0.227328 0.013814 0)
(-0.229896 0.0113131 0)
(-0.231623 0.00866555 0)
(-0.232503 0.00588937 0)
(-0.232531 0.0030032 0)
(-0.231706 2.63628e-05 0)
(-0.230028 -0.00302086 0)
(-0.227501 -0.00611695 0)
(-0.224127 -0.00923891 0)
(-0.219913 -0.0123619 0)
(-0.214871 -0.0154593 0)
(-0.209011 -0.018502 0)
(-0.202353 -0.0214588 0)
(-0.194917 -0.0242965 0)
(-0.186732 -0.0269798 0)
(-0.177833 -0.0294718 0)
(-0.16826 -0.0317349 0)
(-0.158065 -0.033731 0)
(-0.147305 -0.0354233 0)
(-0.136049 -0.0367766 0)
(-0.124374 -0.0377595 0)
(-0.112364 -0.0383451 0)
(-0.100116 -0.0385127 0)
(-0.0877291 -0.0382493 0)
(-0.0753115 -0.0375504 0)
(-0.062974 -0.0364211 0)
(-0.0508298 -0.0348765 0)
(-0.0389915 -0.0329417 0)
(-0.0275688 -0.0306514 0)
(-0.0166665 -0.0280494 0)
(-0.00638205 -0.0251867 0)
(0.0031964 -0.0221208 0)
(0.0119913 -0.0189133 0)
(0.0199373 -0.0156284 0)
(0.026982 -0.0123309 0)
(0.0330868 -0.00908441 0)
(0.0382276 -0.00594966 0)
(0.0423953 -0.00298267 0)
(0.0455963 -0.00023334 0)
(0.0478524 0.00225603 0)
(0.0492016 0.00445199 0)
(0.0496968 0.00633099 0)
(0.0494055 0.00788002 0)
(0.0484077 0.0090969 0)
(0.0467938 0.00998992 0)
(0.0446612 0.0105771 0)
(0.0421113 0.0108846 0)
(0.0392446 0.010945 0)
(0.0361588 0.0107953 0)
(0.0329432 0.0104746 0)
(0.0296786 0.0100219 0)
(0.0264324 0.00947455 0)
(0.0232623 0.00886622 0)
(0.0202098 0.0082263 0)
(0.0173099 0.0075769 0)
(0.014581 0.00693429 0)
(0.0120434 0.00630368 0)
(0.00969943 0.0056842 0)
(0.00756831 0.00506017 0)
(0.00564469 0.00441546 0)
(0.00396416 0.00371784 0)
(0.00251737 0.00295565 0)
(0.00137601 0.00210519 0)
(0.000518485 0.00121588 0)
(7.58348e-05 0.000331234 0)
(8.91477e-05 -0.000772444 0)
(0.000594084 -0.00221725 0)
(0.0015308 -0.00343171 0)
(0.00270051 -0.00436865 0)
(0.00406997 -0.00497579 0)
(0.00549358 -0.00525943 0)
(0.00691704 -0.00523244 0)
(0.00823944 -0.00494067 0)
(0.00941507 -0.00443368 0)
(0.0103847 -0.00377339 0)
(0.0111248 -0.00301756 0)
(0.011611 -0.00222145 0)
(0.0118403 -0.00142902 0)
(0.0118107 -0.000673232 0)
(0.0115294 2.7546e-05 0)
(0.0110011 0.000668385 0)
(0.01023 0.00125769 0)
(0.00921316 0.00181451 0)
(0.00794121 0.00236603 0)
(0.00639499 0.00294379 0)
(0.00454704 0.00358029 0)
(0.00236136 0.00430555 0)
(-0.000204229 0.00514475 0)
(-0.00319652 0.00611666 0)
(-0.00666431 0.00723336 0)
(-0.0106564 0.00850063 0)
(-0.0152196 0.00991895 0)
(-0.0203962 0.0114843 0)
(-0.0262227 0.013189 0)
(-0.032727 0.0150212 0)
(-0.0399266 0.0169651 0)
(-0.0478256 0.0190001 0)
(-0.0564135 0.0211004 0)
(-0.0656624 0.0232349 0)
(-0.0755267 0.0253674 0)
(-0.085943 0.0274573 0)
(-0.0968303 0.0294612 0)
(-0.108093 0.0313341 0)
(-0.119623 0.0330316 0)
(-0.131305 0.0345115 0)
(-0.143017 0.0357357 0)
(-0.154642 0.0366719 0)
(-0.166063 0.0372943 0)
(-0.177173 0.0375846 0)
(-0.187875 0.0375319 0)
(-0.198084 0.0371324 0)
(-0.207729 0.0363887 0)
(-0.216748 0.0353088 0)
(-0.225096 0.0339054 0)
(-0.232735 0.0321942 0)
(-0.239637 0.0301935 0)
(-0.245782 0.0279228 0)
(-0.251157 0.0254026 0)
(-0.255752 0.0226534 0)
(-0.25956 0.0196956 0)
(-0.262578 0.0165494 0)
(-0.264803 0.0132343 0)
(-0.266234 0.00976969 0)
(-0.266869 0.0061749 0)
(-0.266705 0.00246936 0)
(-0.265741 -0.00132691 0)
(-0.263975 -0.00519292 0)
(-0.261405 -0.00910629 0)
(-0.258029 -0.0130428 0)
(-0.253846 -0.0169759 0)
(-0.248858 -0.0208767 0)
(-0.243068 -0.024713 0)
(-0.236481 -0.0284499 0)
(-0.229109 -0.0320493 0)
(-0.220965 -0.0354701 0)
(-0.212073 -0.0386689 0)
(-0.20246 -0.0416002 0)
(-0.192164 -0.0442176 0)
(-0.181231 -0.0464749 0)
(-0.169717 -0.0483276 0)
(-0.157689 -0.0497342 0)
(-0.145224 -0.0506584 0)
(-0.132411 -0.0510708 0)
(-0.119346 -0.0509507 0)
(-0.106135 -0.0502875 0)
(-0.0928905 -0.0490821 0)
(-0.0797279 -0.0473478 0)
(-0.0667651 -0.0451104 0)
(-0.0541185 -0.0424077 0)
(-0.0419006 -0.0392889 0)
(-0.030217 -0.035813 0)
(-0.0191647 -0.0320467 0)
(-0.00883019 -0.0280625 0)
(0.000712018 -0.0239366 0)
(0.00939971 -0.0197463 0)
(0.0171835 -0.0155683 0)
(0.0240267 -0.0114765 0)
(0.0299056 -0.00754104 0)
(0.0348094 -0.00382595 0)
(0.0387405 -0.00038824 0)
(0.0417149 0.00272368 0)
(0.0437626 0.00547129 0)
(0.0449278 0.00782719 0)
(0.0452687 0.00977602 0)
(0.044857 0.0113149 0)
(0.0437754 0.0124535 0)
(0.0421162 0.013213 0)
(0.0399768 0.0136249 0)
(0.0374576 0.0137288 0)
(0.0346563 0.0135699 0)
(0.0316666 0.0131963 0)
(0.0285719 0.0126563 0)
(0.0254481 0.0119959 0)
(0.0223552 0.0112564 0)
(0.0193469 0.0104716 0)
(0.0164577 0.00966738 0)
(0.013724 0.00885647 0)
(0.0111591 0.00804226 0)
(0.00879485 0.00721076 0)
(0.0066308 0.0063432 0)
(0.00471406 0.00540313 0)
(0.00303578 0.00436897 0)
(0.00168762 0.00320777 0)
(0.000649299 0.00194831 0)
(9.86846e-05 0.000616279 0)
(9.71123e-05 -0.00107905 0)
(0.000648682 -0.00298774 0)
(0.00166415 -0.00454221 0)
(0.00291474 -0.00570117 0)
(0.00435699 -0.00642313 0)
(0.00582656 -0.0067218 0)
(0.00726374 -0.00662337 0)
(0.00855962 -0.0061876 0)
(0.00966792 -0.00548078 0)
(0.0105278 -0.00458074 0)
(0.0111171 -0.00356042 0)
(0.0114116 -0.00248739 0)
(0.0114086 -0.00141496 0)
(0.0111041 -0.000381535 0)
(0.0105024 0.000592791 0)
(0.00960236 0.00150509 0)
(0.0084009 0.00236889 0)
(0.00688567 0.00321082 0)
(0.00503651 0.00406704 0)
(0.00282271 0.00497845 0)
(0.000205199 0.00598613 0)
(-0.00286291 0.00712709 0)
(-0.00643318 0.00843126 0)
(-0.0105597 0.0099197 0)
(-0.0152957 0.0116042 0)
(-0.0206912 0.0134879 0)
(-0.0267904 0.0155664 0)
(-0.0336288 0.0178282 0)
(-0.0412304 0.0202559 0)
(-0.0496054 0.0228254 0)
(-0.058747 0.025506 0)
(-0.0686294 0.0282601 0)
(-0.0792063 0.031043 0)
(-0.0904102 0.0338041 0)
(-0.102154 0.0364878 0)
(-0.114331 0.039036 0)
(-0.126823 0.0413903 0)
(-0.139501 0.0434947 0)
(-0.152232 0.0452983 0)
(-0.164885 0.0467574 0)
(-0.177336 0.0478375 0)
(-0.189471 0.0485135 0)
(-0.201189 0.0487706 0)
(-0.212406 0.0486036 0)
(-0.223052 0.0480156 0)
(-0.233072 0.0470171 0)
(-0.242426 0.045624 0)
(-0.251086 0.0438566 0)
(-0.259031 0.0417377 0)
(-0.26625 0.0392916 0)
(-0.272738 0.0365433 0)
(-0.278492 0.0335172 0)
(-0.283512 0.0302371 0)
(-0.287799 0.0267256 0)
(-0.291355 0.0230042 0)
(-0.294182 0.0190933 0)
(-0.296277 0.0150121 0)
(-0.297642 0.0107795 0)
(-0.298273 0.00641375 0)
(-0.298166 0.00193347 0)
(-0.297315 -0.00264211 0)
(-0.295714 -0.00729259 0)
(-0.293356 -0.0119958 0)
(-0.290232 -0.0167274 0)
(-0.286335 -0.02146 0)
(-0.281656 -0.0261632 0)
(-0.276189 -0.0308026 0)
(-0.269929 -0.0353401 0)
(-0.262874 -0.0397334 0)
(-0.255028 -0.043936 0)
(-0.246397 -0.047898 0)
(-0.236996 -0.0515661 0)
(-0.226847 -0.0548849 0)
(-0.215982 -0.0577983 0)
(-0.204443 -0.0602507 0)
(-0.192285 -0.0621894 0)
(-0.179574 -0.0635664 0)
(-0.166389 -0.0643409 0)
(-0.152822 -0.0644817 0)
(-0.138976 -0.0639695 0)
(-0.124965 -0.0627983 0)
(-0.110909 -0.0609772 0)
(-0.0969338 -0.0585306 0)
(-0.0831662 -0.0554984 0)
(-0.0697306 -0.0519348 0)
(-0.0567455 -0.0479065 0)
(-0.0443208 -0.0434905 0)
(-0.0325545 -0.0387712 0)
(-0.0215319 -0.0338374 0)
(-0.0113242 -0.0287797 0)
(-0.00198842 -0.0236879 0)
(0.00643185 -0.0186488 0)
(0.0139057 -0.0137446 0)
(0.0204139 -0.00905142 0)
(0.0259484 -0.00463837 0)
(0.0305122 -0.000566232 0)
(0.0341194 0.00311358 0)
(0.0367958 0.00636031 0)
(0.0385794 0.00914512 0)
(0.0395215 0.0114522 0)
(0.0396855 0.0132793 0)
(0.0391472 0.0146384 0)
(0.0379915 0.0155543 0)
(0.0363115 0.0160635 0)
(0.0342029 0.0162121 0)
(0.0317631 0.0160526 0)
(0.0290836 0.015641 0)
(0.0262527 0.015033 0)
(0.0233445 0.0142814 0)
(0.0204293 0.0134313 0)
(0.0175573 0.0125194 0)
(0.0147811 0.0115678 0)
(0.0121272 0.0105859 0)
(0.00964122 0.00956377 0)
(0.00733114 0.00848099 0)
(0.00525733 0.00729818 0)
(0.00341533 0.00598169 0)
(0.00191625 0.00448708 0)
(0.000744132 0.00281372 0)
(0.000114542 0.000961492 0)
(0.000104026 -0.00140734 0)
(0.000691999 -0.00381029 0)
(0.00176375 -0.00571495 0)
(0.00306422 -0.00708732 0)
(0.0045385 -0.00790021 0)
(0.00600528 -0.0081793 0)
(0.00739919 -0.00796849 0)
(0.00860488 -0.00734493 0)
(0.00957629 -0.00639429 0)
(0.0102524 -0.00521164 0)
(0.0106136 -0.00388545 0)
(0.0106363 -0.00249484 0)
(0.0103185 -0.00110102 0)
(0.00965394 0.000254249 0)
(0.00864261 0.00155143 0)
(0.00727637 0.002792 0)
(0.00554284 0.00399671 0)
(0.00341826 0.00520141 0)
(0.000870062 0.00645217 0)
(-0.0021452 0.00779929 0)
(-0.00567837 0.00929157 0)
(-0.00978625 0.0109712 0)
(-0.0145274 0.0128704 0)
(-0.019959 0.0150091 0)
(-0.0261335 0.0173951 0)
(-0.0330949 0.0200245 0)
(-0.0408758 0.0228828 0)
(-0.049494 0.0259457 0)
(-0.0589498 0.0291799 0)
(-0.0692225 0.0325426 0)
(-0.080269 0.0359821 0)
(-0.0920221 0.0394385 0)
(-0.104391 0.0428448 0)
(-0.117266 0.0461296 0)
(-0.130517 0.0492199 0)
(-0.144005 0.0520444 0)
(-0.157585 0.0545374 0)
(-0.171115 0.0566416 0)
(-0.18446 0.0583109 0)
(-0.197497 0.0595115 0)
(-0.210121 0.0602223 0)
(-0.222244 0.0604347 0)
(-0.233796 0.060151 0)
(-0.244727 0.0593827 0)
(-0.255 0.0581486 0)
(-0.26459 0.0564727 0)
(-0.273485 0.0543821 0)
(-0.28168 0.051906 0)
(-0.289175 0.0490736 0)
(-0.295973 0.0459139 0)
(-0.30208 0.0424543 0)
(-0.307502 0.0387209 0)
(-0.312245 0.0347376 0)
(-0.316314 0.0305267 0)
(-0.319713 0.0261086 0)
(-0.322444 0.0215023 0)
(-0.324508 0.0167255 0)
(-0.325904 0.0117952 0)
(-0.326628 0.00672793 0)
(-0.326675 0.00154067 0)
(-0.326038 -0.00374903 0)
(-0.324709 -0.00912223 0)
(-0.322675 -0.014558 0)
(-0.319927 -0.0200329 0)
(-0.316448 -0.02552 0)
(-0.312227 -0.0309888 0)
(-0.307247 -0.0364044 0)
(-0.301495 -0.0417268 0)
(-0.294957 -0.0469112 0)
(-0.287622 -0.0519074 0)
(-0.279483 -0.05666 0)
(-0.270538 -0.0611093 0)
(-0.260792 -0.0651917 0)
(-0.250259 -0.0688409 0)
(-0.238961 -0.0719902 0)
(-0.226936 -0.0745741 0)
(-0.214233 -0.0765309 0)
(-0.200917 -0.0778059 0)
(-0.18707 -0.0783539 0)
(-0.172788 -0.0781426 0)
(-0.158182 -0.077155 0)
(-0.143375 -0.0753915 0)
(-0.128501 -0.0728714 0)
(-0.113699 -0.0696332 0)
(-0.09911 -0.0657337 0)
(-0.084871 -0.0612463 0)
(-0.0711117 -0.0562583 0)
(-0.0579499 -0.0508669 0)
(-0.0454884 -0.0451757 0)
(-0.033813 -0.0392909 0)
(-0.0229922 -0.0333172 0)
(-0.0130774 -0.0273558 0)
(-0.00410474 -0.0215016 0)
(0.00390307 -0.0158423 0)
(0.0109348 -0.0104574 0)
(0.016989 -0.00541755 0)
(0.022073 -0.000784038 0)
(0.0262032 0.00339181 0)
(0.0294047 0.00706981 0)
(0.0317133 0.0102221 0)
(0.033175 0.0128344 0)
(0.0338483 0.0149067 0)
(0.0338019 0.0164538 0)
(0.0331156 0.0175048 0)
(0.0318756 0.018101 0)
(0.0301748 0.0182942 0)
(0.0281051 0.0181431 0)
(0.0257596 0.0177095 0)
(0.0232211 0.0170543 0)
(0.020572 0.016233 0)
(0.0178754 0.015292 0)
(0.0151987 0.0142635 0)
(0.0125816 0.0131639 0)
(0.0100841 0.0119888 0)
(0.00772466 0.0107174 0)
(0.0055775 0.00930827 0)
(0.00364574 0.00771446 0)
(0.0020574 0.00587847 0)
(0.000803111 0.00376514 0)
(0.000124325 0.00134453 0)
(0.000109668 -0.00175729 0)
(0.000724525 -0.0046771 0)
(0.00183197 -0.00693427 0)
(0.00315245 -0.00850413 0)
(0.00461883 -0.00937711 0)
(0.00603464 -0.00959511 0)
(0.00732909 -0.00922425 0)
(0.00838212 -0.00836275 0)
(0.00914876 -0.00711849 0)
(0.00956934 -0.00560512 0)
(0.00962709 -0.00392684 0)
(0.00930014 -0.00217331 0)
(0.00858632 -0.000411723 0)
(0.00747671 0.00131531 0)
(0.00596562 0.0029916 0)
(0.00403626 0.00462566 0)
(0.0016652 0.00624768 0)
(-0.0011841 0.00790418 0)
(-0.00455749 0.00965148 0)
(-0.00851087 0.0115485 0)
(-0.0131053 0.0136496 0)
(-0.0184044 0.0159991 0)
(-0.0244687 0.0186272 0)
(-0.0313523 0.0215481 0)
(-0.0390983 0.02476 0)
(-0.0477347 0.0282458 0)
(-0.0572714 0.0319748 0)
(-0.0676967 0.0359029 0)
(-0.0789744 0.0399742 0)
(-0.0910422 0.0441215 0)
(-0.103812 0.048268 0)
(-0.11717 0.0523297 0)
(-0.130982 0.0562186 0)
(-0.145102 0.0598474 0)
(-0.159373 0.0631333 0)
(-0.173641 0.0660028 0)
(-0.187757 0.068395 0)
(-0.20159 0.0702638 0)
(-0.215024 0.0715786 0)
(-0.227966 0.0723245 0)
(-0.240342 0.0725003 0)
(-0.2521 0.0721167 0)
(-0.263203 0.0711937 0)
(-0.273631 0.0697578 0)
(-0.283374 0.0678399 0)
(-0.292429 0.0654735 0)
(-0.300801 0.0626924 0)
(-0.308498 0.0595299 0)
(-0.31553 0.0560181 0)
(-0.321907 0.0521869 0)
(-0.32764 0.0480641 0)
(-0.332738 0.0436751 0)
(-0.337212 0.0390428 0)
(-0.341067 0.0341881 0)
(-0.344311 0.0291298 0)
(-0.346948 0.0238852 0)
(-0.34898 0.0184702 0)
(-0.350409 0.0128996 0)
(-0.351234 0.00718831 0)
(-0.35145 0.00135091 0)
(-0.351052 -0.00459711 0)
(-0.350031 -0.010639 0)
(-0.348376 -0.0167558 0)
(-0.346073 -0.0229262 0)
(-0.343105 -0.0291251 0)
(-0.339454 -0.0353233 0)
(-0.335098 -0.0414869 0)
(-0.330014 -0.0475761 0)
(-0.324179 -0.0535453 0)
(-0.317568 -0.0593424 0)
(-0.310158 -0.0649089 0)
(-0.301929 -0.0701799 0)
(-0.292867 -0.0750848 0)
(-0.282962 -0.0795485 0)
(-0.272216 -0.083493 0)
(-0.26064 -0.0868394 0)
(-0.248262 -0.089511 0)
(-0.235126 -0.0914363 0)
(-0.221292 -0.0925526 0)
(-0.206844 -0.0928101 0)
(-0.191881 -0.0921752 0)
(-0.176525 -0.090634 0)
(-0.160913 -0.0881948 0)
(-0.145194 -0.0848891 0)
(-0.129526 -0.0807723 0)
(-0.114071 -0.0759215 0)
(-0.0989846 -0.0704328 0)
(-0.084413 -0.0644172 0)
(-0.0704876 -0.0579956 0)
(-0.0573198 -0.0512932 0)
(-0.0449992 -0.0444348 0)
(-0.0335933 -0.0375402 0)
(-0.023148 -0.0307213 0)
(-0.0136911 -0.0240798 0)
(-0.00523479 -0.0177069 0)
(0.00222052 -0.0116825 0)
(0.0086834 -0.00607594 0)
(0.0141697 -0.000945957 0)
(0.0187015 0.00365936 0)
(0.0223077 0.00770331 0)
(0.0250244 0.0111617 0)
(0.0268971 0.0140238 0)
(0.0279802 0.0162939 0)
(0.0283394 0.017991 0)
(0.0280482 0.019149 0)
(0.0271899 0.0198143 0)
(0.0258504 0.0200438 0)
(0.0241214 0.019901 0)
(0.0220884 0.0194513 0)
(0.01984 0.0187574 0)
(0.0174485 0.0178738 0)
(0.0149931 0.0168417 0)
(0.0125251 0.0156844 0)
(0.010118 0.0144037 0)
(0.00780194 0.0129787 0)
(0.00566428 0.0113667 0)
(0.00371809 0.0095075 0)
(0.00210474 0.00733028 0)
(0.000822734 0.00476429 0)
(0.000127124 0.00174874 0)
(0.000114897 -0.00212151 0)
(0.00074866 -0.00556816 0)
(0.0018717 -0.00816787 0)
(0.00318153 -0.0099073 0)
(0.00459819 -0.0107987 0)
(0.0059124 -0.0109048 0)
(0.00704892 -0.0103189 0)
(0.00788526 -0.00916399 0)
(0.00837875 -0.00757276 0)
(0.00847247 -0.00567838 0)
(0.00815307 -0.00360034 0)
(0.00740016 -0.00143703 0)
(0.00621087 0.000740939 0)
(0.0045722 0.00289327 0)
(0.00247123 0.00501023 0)
(-0.000119204 0.00711019 0)
(-0.00323497 0.00923468 0)
(-0.00692603 0.0114416 0)
(-0.011251 0.0137967 0)
(-0.0162762 0.0163653 0)
(-0.0220691 0.0192035 0)
(-0.0286944 0.0223527 0)
(-0.0362073 0.0258352 0)
(-0.0446495 0.0296528 0)
(-0.0540442 0.0337872 0)
(-0.0643922 0.0382009 0)
(-0.0756687 0.0428395 0)
(-0.0878211 0.0476329 0)
(-0.100767 0.0524976 0)
(-0.114398 0.057339 0)
(-0.128579 0.0620556 0)
(-0.143156 0.0665435 0)
(-0.157965 0.0707016 0)
(-0.172839 0.0744374 0)
(-0.187617 0.0776717 0)
(-0.202151 0.080342 0)
(-0.216314 0.0824042 0)
(-0.230001 0.0838329 0)
(-0.243132 0.0846202 0)
(-0.255645 0.0847729 0)
(-0.267503 0.0843099 0)
(-0.278683 0.0832589 0)
(-0.289173 0.0816534 0)
(-0.298974 0.0795304 0)
(-0.308092 0.0769282 0)
(-0.316536 0.0738851 0)
(-0.324319 0.0704379 0)
(-0.331457 0.0666216 0)
(-0.337962 0.0624687 0)
(-0.343851 0.0580091 0)
(-0.349137 0.0532701 0)
(-0.353834 0.0482762 0)
(-0.357956 0.0430493 0)
(-0.361515 0.0376089 0)
(-0.364521 0.0319726 0)
(-0.366983 0.0261559 0)
(-0.368909 0.0201728 0)
(-0.370304 0.0140363 0)