/*--------------------------------*- C++ -*----------------------------------*\
| =========                 |                                                 |
| \\      /  F ield         | OpenFOAM: The Open Source CFD Toolbox           |
|  \\    /   O peration     | Version:  2406                                  |
|   \\  /    A nd           | Website:  www.openfoam.com                      |
|    \\/     M anipulation  |                                                 |
\*---------------------------------------------------------------------------*/
FoamFile
{
    version     2.0;
    format      ascii;
    arch        "LSB;label=32;scalar=64";
    class       surfaceScalarField;
    location    "41.35";
    object      phi_0;
}
// * * * * * * * * * * * * * * * * * * * * * * * * * * * * * * * * * * * * * //

dimensions      [0 3 -1 0 0 0 0];

oriented        oriented;

internalField   nonuniform List<scalar> 
28560
(
-4.15005e-09
4.1625e-09
4.88223e-08
-5.29723e-08
1.75968e-07
-1.27146e-07
3.6479e-07
-1.88822e-07
5.96741e-07
-2.31951e-07
8.5217e-07
-2.55429e-07
1.11289e-06
-2.60717e-07
1.36349e-06
-2.50601e-07
1.59212e-06
-2.28629e-07
1.79077e-06
-1.98656e-07
1.95526e-06
-1.64491e-07
2.08484e-06
-1.29578e-07
2.18159e-06
-9.67495e-08
2.24966e-06
-6.80715e-08
2.29444e-06
-4.478e-08
2.32175e-06
-2.73096e-08
2.3372e-06
-1.54477e-08
2.34521e-06
-8.00898e-09
2.34899e-06
-3.77605e-09
2.35006e-06
-1.07726e-09
2.34851e-06
1.54836e-09
2.34285e-06
5.6678e-09
2.33005e-06
1.27939e-08
2.30617e-06
2.38869e-08
2.26654e-06
3.96227e-08
2.20616e-06
6.03882e-08
2.11979e-06
8.63612e-08
2.00219e-06
1.17606e-07
1.84803e-06
1.54154e-07
1.65197e-06
1.96061e-07
1.40855e-06
2.43418e-07
1.11222e-06
2.96339e-07
7.57298e-07
3.54918e-07
3.38114e-07
4.19183e-07
-1.5094e-07
4.89054e-07
-7.15241e-07
5.64301e-07
-1.35976e-06
6.44518e-07
-2.08886e-06
7.29105e-07
-2.90612e-06
8.17258e-07
-3.81408e-06
9.07962e-07
-4.81408e-06
9.99995e-07
-5.90602e-06
1.09194e-06
-7.08822e-06
1.1822e-06
-8.35726e-06
1.26904e-06
-9.70786e-06
1.35059e-06
-1.11328e-05
1.42491e-06
-1.26228e-05
1.49001e-06
-1.41667e-05
1.54392e-06
-1.57514e-05
1.5847e-06
-1.73619e-05
1.61053e-06
-1.89816e-05
1.61967e-06
-2.05922e-05
1.61059e-06
-2.21741e-05
1.58191e-06
-2.37066e-05
1.5325e-06
-2.5168e-05
1.46145e-06
-2.65362e-05
1.36813e-06
-2.77883e-05
1.25218e-06
-2.89019e-05
1.11357e-06
-2.98546e-05
9.52665e-07
-3.06247e-05
7.70155e-07
-3.11926e-05
5.67847e-07
-3.15391e-05
3.46493e-07
-3.1644e-05
1.04962e-07
-3.14942e-05
-1.49819e-07
-3.10801e-05
-4.14126e-07
-3.03925e-05
-6.8761e-07
-2.94273e-05
-9.65203e-07
-2.81851e-05
-1.24222e-06
-2.66715e-05
-1.5136e-06
-2.48975e-05
-1.77392e-06
-2.288e-05
-2.01751e-06
-2.06414e-05
-2.23859e-06
-1.821e-05
-2.43146e-06
-1.56192e-05
-2.59072e-06
-1.29077e-05
-2.71151e-06
-1.0118e-05
-2.78972e-06
-7.29573e-06
-2.82228e-06
-4.48838e-06
-2.80736e-06
-1.74387e-06
-2.74451e-06
8.90973e-07
-2.63484e-06
3.37198e-06
-2.48101e-06
5.65918e-06
-2.2872e-06
7.71819e-06
-2.05901e-06
9.52137e-06
-1.80318e-06
1.10487e-05
-1.52736e-06
1.22884e-05
-1.2397e-06
1.3237e-05
-9.48529e-07
1.38989e-05
-6.61937e-07
1.42863e-05
-3.87453e-07
1.4419e-05
-1.32617e-07
1.43185e-05
1.00463e-07
1.4012e-05
3.06449e-07
1.35328e-05
4.79221e-07
1.29125e-05
6.20318e-07
1.21821e-05
7.30404e-07
1.13721e-05
8.10021e-07
1.05108e-05
8.61309e-07
9.62365e-06
8.87131e-07
8.7328e-06
8.90846e-07
7.85673e-06
8.76071e-07
7.01027e-06
8.46462e-07
6.20472e-06
8.0555e-07
5.44811e-06
7.56607e-07
4.74555e-06
7.0256e-07
4.09961e-06
6.45941e-07
3.51073e-06
5.88877e-07
2.97764e-06
5.33094e-07
2.4977e-06
4.79932e-07
2.06735e-06
4.30351e-07
1.68244e-06
3.84909e-07
1.33874e-06
3.43705e-07
1.03245e-06
3.06291e-07
7.6088e-07
2.71569e-07
5.23169e-07
2.37711e-07
3.20978e-07
2.02191e-07
1.58869e-07
1.62109e-07
4.38291e-08
1.1504e-07
-1.71406e-08
6.09697e-08
-2.36433e-08
6.50277e-09
-2.36433e-08
5.02366e-08
-4.60741e-08
2.46866e-07
-2.49601e-07
5.99554e-07
-4.79835e-07
1.08271e-06
-6.71976e-07
1.6582e-06
-8.07447e-07
2.28427e-06
-8.81492e-07
2.92085e-06
-8.97299e-07
3.53304e-06
-8.62787e-07
4.09309e-06
-7.88684e-07
4.58145e-06
-6.87018e-07
4.98684e-06
-5.69878e-07
5.30561e-06
-4.48345e-07
5.54052e-06
-3.31666e-07
5.69916e-06
-2.26706e-07
5.79205e-06
-1.37675e-07
5.83088e-06
-6.614e-08
5.82675e-06
-1.13158e-08
5.78882e-06
2.99184e-08
5.72318e-06
6.18665e-08
5.63226e-06
8.98457e-08
5.51438e-06
1.19431e-07
5.3641e-06
1.55942e-07
5.1729e-06
2.04e-07
4.92961e-06
2.6717e-07
4.6213e-06
3.47931e-07
4.23391e-06
4.47784e-07
3.75278e-06
5.67492e-07
3.16303e-06
7.07351e-07
2.44975e-06
8.67432e-07
1.59808e-06
1.04774e-06
5.93277e-07
1.24822e-06
-5.79116e-07
1.46873e-06
-1.93308e-06
1.70889e-06
-3.4818e-06
1.9679e-06
-5.23719e-06
2.24445e-06
-7.20948e-06
2.53658e-06
-9.40657e-06
2.84161e-06
-1.18336e-05
3.15611e-06
-1.44922e-05
3.47588e-06
-1.73803e-05
3.79604e-06
-2.04913e-05
4.11105e-06
-2.38142e-05
4.41485e-06
-2.7333e-05
4.70098e-06
-3.10267e-05
4.96276e-06
-3.48695e-05
5.19341e-06
-3.8831e-05
5.38632e-06
-4.28761e-05
5.53514e-06
-4.69662e-05
5.63403e-06
-5.10592e-05
5.67774e-06
-5.51105e-05
5.66176e-06
-5.90732e-05
5.58243e-06
-6.28996e-05
5.43695e-06
-6.65412e-05
5.22347e-06
-6.99497e-05
4.94105e-06
-7.30779e-05
4.58969e-06
-7.58801e-05
4.17032e-06
-7.83127e-05
3.68474e-06
-8.03348e-05
3.13568e-06
-8.19089e-05
2.52675e-06
-8.30013e-05
1.86256e-06
-8.3582e-05
1.14855e-06
-8.36274e-05
3.91848e-07
-8.31194e-05
-4.02949e-07
-8.20423e-05
-1.22699e-06
-8.03886e-05
-2.06784e-06
-7.81591e-05
-2.91706e-06
-7.53608e-05
-3.7635e-06
-7.20082e-05
-4.5948e-06
-6.8124e-05
-5.39786e-06
-6.37389e-05
-6.15899e-06
-5.88923e-05
-6.86416e-06
-5.36317e-05
-7.4992e-06
-4.80128e-05
-8.05032e-06
-4.20991e-05
-8.50446e-06
-3.59608e-05
-8.84981e-06
-2.96741e-05
-9.07636e-06
-2.33201e-05
-9.17635e-06
-1.69826e-05
-9.14481e-06
-1.07472e-05
-8.97996e-06
-4.6985e-06
-8.6835e-06
1.08132e-06
-8.26082e-06
6.51514e-06
-7.72102e-06
1.15328e-05
-7.07671e-06
1.60734e-05
-6.34369e-06
2.00864e-05
-5.54044e-06
2.35342e-05
-4.68743e-06
2.6392e-05
-3.80634e-06
2.86492e-05
-2.91919e-06
3.03094e-05
-2.04758e-06
3.13883e-05
-1.21157e-06
3.19168e-05
-4.27997e-07
3.19366e-05
2.86591e-07
3.14972e-05
9.18621e-07
3.06548e-05
1.46277e-06
2.94717e-05
1.91346e-06
2.80121e-05
2.26961e-06
2.63399e-05
2.53356e-06
2.45164e-05
2.7106e-06
2.25989e-05
2.80837e-06
2.06387e-05
2.83625e-06
1.86805e-05
2.8047e-06
1.67614e-05
2.72459e-06
1.49113e-05
2.60671e-06
1.31526e-05
2.46128e-06
1.15009e-05
2.29762e-06
9.96588e-06
2.12394e-06
8.55172e-06
1.94725e-06
7.25841e-06
1.77323e-06
6.08255e-06
1.60621e-06
5.01843e-06
1.44903e-06
4.05926e-06
1.30287e-06
3.19854e-06
1.16701e-06
2.43155e-06
1.03856e-06
1.75688e-06
9.12381e-07
1.17773e-06
7.81335e-07
7.02407e-07
6.37435e-07
3.43076e-07
4.7437e-07
1.11416e-07
2.9263e-07
9.63102e-09
1.08288e-07
-1.40123e-08
1.19514e-07
-1.65588e-07
4.65255e-07
-5.95343e-07
1.01456e-06
-1.02914e-06
1.72903e-06
-1.38645e-06
2.55865e-06
-1.63707e-06
3.44909e-06
-1.77193e-06
4.34774e-06
-1.79595e-06
5.20806e-06
-1.72311e-06
5.99244e-06
-1.57306e-06
6.67362e-06
-1.36819e-06
7.23496e-06
-1.13122e-06
7.66974e-06
-8.83124e-07
7.9796e-06
-6.4153e-07
8.17251e-06
-4.19619e-07
8.2604e-06
-2.25558e-07
8.25666e-06
-6.24066e-08
8.17394e-06
7.14078e-08
8.02224e-06
1.81618e-07
7.80726e-06
2.76844e-07
7.52959e-06
3.67523e-07
7.18429e-06
4.64723e-07
6.76123e-06
5.79002e-07
6.24573e-06
7.19507e-07
5.61947e-06
8.9343e-07
4.86157e-06
1.10582e-06
3.94956e-06
1.3598e-06
2.86015e-06
1.65691e-06
1.56985e-06
1.99765e-06
5.54036e-08
2.38188e-06
-1.70585e-06
2.80899e-06
-3.73562e-06
3.27799e-06
-6.05418e-06
3.7873e-06
-8.67981e-06
4.33451e-06
-1.1628e-05
4.9161e-06
-1.49107e-05
5.52716e-06
-1.85354e-05
6.16128e-06
-2.25043e-05
6.81044e-06
-2.68132e-05
7.46509e-06
-3.14516e-05
8.11422e-06
-3.64012e-05
8.74564e-06
-4.16364e-05
9.34628e-06
-4.71241e-05
9.90249e-06
-5.28236e-05
1.04005e-05
-5.86879e-05
1.0827e-05
-6.46637e-05
1.11692e-05
-7.06931e-05
1.14157e-05
-7.67143e-05
1.15564e-05
-8.26632e-05
1.15829e-05
-8.84745e-05
1.1489e-05
-9.4083e-05
1.12703e-05
-9.94249e-05
1.09243e-05
-0.000104439
1.04506e-05
-0.000109065
9.85045e-06
-0.000113251
9.12684e-06
-0.000116946
8.28416e-06
-0.000120104
7.32813e-06
-0.000122684
6.26566e-06
-0.000124654
5.10472e-06
-0.000125981
3.85429e-06
-0.000126643
2.52439e-06
-0.00012662
1.12593e-06
-0.000125899
-3.29379e-07
-0.000124475
-1.82726e-06
-0.000122346
-3.35618e-06
-0.000119515
-4.89853e-06
-0.000115994
-6.43787e-06
-0.000111801
-7.9566e-06
-0.00010696
-9.43569e-06
-0.000101503
-1.0855e-05
-9.54683e-05
-1.21936e-05
-8.89025e-05
-1.34299e-05
-8.18593e-05
-1.45424e-05
-7.43999e-05
-1.55097e-05
-6.65928e-05
-1.63116e-05
-5.85131e-05
-1.69295e-05
-5.0242e-05
-1.73475e-05
-4.18659e-05
-1.75524e-05
-3.34751e-05
-1.75356e-05
-2.51626e-05
-1.72925e-05
-1.70219e-05
-1.68242e-05
-9.14578e-06
-1.61369e-05
-1.62398e-06
-1.52428e-05
5.45881e-06
-1.41595e-05
1.2025e-05
-1.29098e-05
1.80058e-05
-1.15213e-05
2.33434e-05
-1.00251e-05
2.79924e-05
-8.45526e-06
3.19206e-05
-6.84741e-06
3.51105e-05
-5.23749e-06
3.75594e-05
-3.66045e-06
3.92807e-05
-2.14929e-06
4.0302e-05
-7.34725e-07
4.06628e-05
5.57821e-07
4.04156e-05
1.70992e-06
3.96244e-05
2.70472e-06
3.836e-05
3.53402e-06
3.66985e-05
4.19499e-06
3.47185e-05
4.69061e-06
3.24978e-05
5.02909e-06
3.01111e-05
5.223e-06
2.76274e-05
5.28833e-06
2.51087e-05
5.24333e-06
2.2608e-05
5.1074e-06
2.01692e-05
4.90006e-06
1.78267e-05
4.64011e-06
1.56058e-05
4.34485e-06
1.35234e-05
4.02967e-06
1.1589e-05
3.70759e-06
9.80624e-06
3.38902e-06
8.17394e-06
3.08134e-06
6.68822e-06
2.78859e-06
5.34426e-06
2.51097e-06
4.13835e-06
2.24448e-06
3.06985e-06
1.98088e-06
2.14281e-06
1.70837e-06
1.36657e-06
1.41368e-06
7.54671e-07
1.08627e-06
3.21083e-07
7.26217e-07
7.32158e-08
3.56156e-07
5.92035e-08
1.76966e-07
-3.42554e-07
6.49628e-07
-1.068e-06
1.36347e-06
-1.74298e-06
2.26218e-06
-2.28516e-06
3.28347e-06
-2.65836e-06
4.3632e-06
-2.85166e-06
5.44031e-06
-2.87305e-06
6.461e-06
-2.7438e-06
7.38168e-06
-2.49374e-06
8.17042e-06
-2.15693e-06
8.80719e-06
-1.76799e-06
9.28295e-06
-1.35888e-06
9.59786e-06
-9.56445e-07
9.75899e-06
-5.80741e-07
9.77752e-06
-2.4409e-07
9.66606e-06
4.90542e-08
9.43588e-06
3.01585e-07
9.09483e-06
5.22663e-07
8.64554e-06
7.2614e-07
8.08435e-06
9.28706e-07
7.4011e-06
1.14798e-06
6.57938e-06
1.40072e-06
5.59748e-06
1.70141e-06
4.42953e-06
2.06138e-06
3.04682e-06
2.48853e-06
1.41905e-06
2.98756e-06
-4.84617e-07
3.56057e-06
-2.69467e-06
4.2077e-06
-5.24046e-06
4.92766e-06
-8.14945e-06
5.71798e-06
-1.14464e-05
6.57493e-06
-1.51524e-05
7.49325e-06
-1.92836e-05
8.46575e-06
-2.38504e-05
9.4829e-06
-2.88558e-05
1.05326e-05
-3.42948e-05
1.16002e-05
-4.01527e-05
1.26684e-05
-4.64053e-05
1.37177e-05
-5.30181e-05
1.4727e-05
-5.99467e-05
1.56742e-05
-6.71371e-05
1.65367e-05
-7.45272e-05
1.72926e-05
-8.20478e-05
1.79212e-05
-8.96247e-05
1.84039e-05
-9.71805e-05
1.8725e-05
-0.000104636
1.88715e-05
-0.000111914
1.88342e-05
-0.000118938
1.86073e-05
-0.000125638
1.81881e-05
-0.000131945
1.75774e-05
-0.000137799
1.67785e-05
-0.000143146
1.57972e-05
-0.000147936
1.46414e-05
-0.00015213
1.33203e-05
-0.000155691
1.18447e-05
-0.000158589
1.02262e-05
-0.0001608
8.47715e-06
-0.000162306
6.61061e-06
-0.000163092
4.64031e-06
-0.000163148
2.58058e-06
-0.000162469
4.46517e-07
-0.000161052
-1.74626e-06
-0.000158899
-3.98027e-06
-0.000156017
-6.23793e-06
-0.000152416
-8.49952e-06
-0.00014811
-1.0744e-05
-0.000143118
-1.29488e-05
-0.000137464
-1.50898e-05
-0.000131177
-1.71416e-05
-0.000124293
-1.90773e-05
-0.000116854
-2.08689e-05
-0.000108909
-2.24883e-05
-0.000100511
-2.39071e-05
-9.17245e-05
-2.50982e-05
-8.2618e-05
-2.60361e-05
-7.32674e-05
-2.6698e-05
-6.37546e-05
-2.70652e-05
-5.41665e-05
-2.71237e-05
-4.45938e-05
-2.68652e-05
-3.51298e-05
-2.62882e-05
-2.58685e-05
-2.53982e-05
-1.69031e-05
-2.42083e-05
-8.32352e-06
-2.27391e-05
-2.15176e-07
-2.10182e-05
7.34333e-06
-1.90798e-05
1.42818e-05
-1.69635e-05
2.054e-05
-1.47134e-05
2.6069e-05
-1.23764e-05
3.08324e-05
-1.00009e-05
3.48074e-05
-7.63541e-06
3.79851e-05
-5.32701e-06
4.03705e-05
-3.1201e-06
4.19828e-05
-1.05451e-06
4.28571e-05
8.35636e-07
4.30399e-05
2.52185e-06
4.25906e-05
3.9834e-06
4.15781e-05
5.20741e-06
4.00796e-05
6.18911e-06
3.8177e-05
6.9317e-06
3.59542e-05
7.44581e-06
3.3494e-05
7.7485e-06
3.08754e-05
7.86199e-06
2.81706e-05
7.81213e-06
2.54439e-05
7.62684e-06
2.27494e-05
7.33457e-06
2.01313e-05
6.96292e-06
1.76235e-05
6.53749e-06
1.52502e-05
6.08094e-06
1.3027e-05
5.61217e-06
1.09628e-05
5.14556e-06
9.06115e-06
4.69022e-06
7.32286e-06
4.24926e-06
5.74811e-06
3.81923e-06
4.33888e-06
3.39011e-06
3.1009e-06
2.94635e-06
2.04488e-06
2.4697e-06
1.18659e-06
1.94456e-06
5.45504e-07
1.3673e-06
1.42619e-07
7.5904e-07
2.01823e-07
2.21088e-07
-5.63642e-07
7.94768e-07
-1.64169e-06
1.64028e-06
-2.58849e-06
2.68212e-06
-3.327e-06
3.84458e-06
-3.82082e-06
5.05389e-06
-4.06097e-06
6.24197e-06
-4.06113e-06
7.34995e-06
-3.85179e-06
8.33065e-06
-3.47444e-06
9.14971e-06
-2.97599e-06
9.78541e-06
-2.4037e-06
1.02275e-05
-1.80093e-06
1.04749e-05
-1.20385e-06
1.05332e-05
-6.39114e-07
1.04119e-05
-1.22706e-07
1.01206e-05
3.40284e-07
9.6673e-06
7.54916e-07
9.0551e-06
1.13486e-06
8.28107e-06
1.50017e-06
7.33506e-06
1.87472e-06
6.19962e-06
2.28341e-06
4.85065e-06
2.74969e-06
3.25851e-06
3.29355e-06
1.38958e-06
3.93031e-06
-7.9216e-07
4.67027e-06
-3.32358e-06
5.51898e-06
-6.24101e-06
6.47801e-06
-9.579e-06
7.54569e-06
-1.3369e-05
8.71771e-06
-1.76383e-05
9.98723e-06
-2.24081e-05
1.13448e-05
-2.76927e-05
1.27778e-05
-3.34971e-05
1.42702e-05
-3.98164e-05
1.58021e-05
-4.66337e-05
1.73499e-05
-5.39199e-05
1.88864e-05
-6.16332e-05
2.03816e-05
-6.97192e-05
2.18038e-05
-7.81123e-05
2.31202e-05
-8.6737e-05
2.42989e-05
-9.55102e-05
2.53098e-05
-0.000104344
2.6126e-05
-0.000113147
2.67246e-05
-0.000121831
2.70875e-05
-0.000130307
2.72018e-05
-0.000138496
2.706e-05
-0.000146321
2.66595e-05
-0.000153716
2.60022e-05
-0.000160622
2.50942e-05
-0.000166989
2.39444e-05
-0.000172775
2.25644e-05
-0.000177945
2.09676e-05
-0.000182473
1.91686e-05
-0.000186335
1.71826e-05
-0.000189515
1.50253e-05
-0.000192002
1.27126e-05
-0.000193785
1.02603e-05
-0.000194859
7.68418e-06
-0.000195219
5.00028e-06
-0.000194863
2.22482e-06
-0.000193791
-6.25397e-07
-0.000192004
-3.53297e-06
-0.000189505
-6.4792e-06
-0.000186299
-9.44409e-06
-0.000182393
-1.24059e-05
-0.000177796
-1.5341e-05
-0.000172521
-1.82238e-05
-0.000166584
-2.10263e-05
-0.000160007
-2.37184e-05
-0.000152817
-2.62681e-05
-0.000145044
-2.86417e-05
-0.000136728
-3.08043e-05
-0.000127914
-3.27207e-05
-0.000118657
-3.43559e-05
-0.000109016
-3.56769e-05
-9.90604e-05
-3.66533e-05
-8.88665e-05
-3.72591e-05
-7.85166e-05
-3.74737e-05
-6.80984e-05
-3.72833e-05
-5.77043e-05
-3.66823e-05
-4.74286e-05
-3.56739e-05
-3.73664e-05
-3.42704e-05
-2.76116e-05
-3.24939e-05
-1.82544e-05
-3.03754e-05
-9.37966e-06
-2.79545e-05
-1.06541e-06
-2.52778e-05
6.61898e-06
-2.23978e-05
1.36138e-05
-1.93713e-05
1.98702e-05
-1.62572e-05
2.53504e-05
-1.31157e-05
3.00291e-05
-1.00057e-05
3.3893e-05
-6.98394e-06
3.69417e-05
-4.10323e-06
3.91885e-05
-1.41117e-06
4.06595e-05
1.05088e-06
4.13938e-05
3.24909e-06
4.14431e-05
5.15813e-06
4.08702e-05
6.76201e-06
3.97474e-05
8.05445e-06
3.81543e-05
9.03897e-06
3.61744e-05
9.72835e-06
3.38928e-05
1.01436e-05
3.13923e-05
1.03126e-05
2.87509e-05
1.02682e-05
2.60394e-05
1.00461e-05
2.33194e-05
9.68296e-06
2.06422e-05
9.21464e-06
1.8049e-05
8.67422e-06
1.55705e-05
8.09059e-06
1.3229e-05
7.48704e-06
1.10393e-05
6.87992e-06
9.01117e-06
6.27744e-06
7.15159e-06
5.6788e-06
5.46762e-06
5.07408e-06
3.96867e-06
4.44531e-06
2.6687e-06
3.76966e-06
1.58801e-06
3.02525e-06
7.54761e-07
2.20055e-06
2.0707e-07
1.30673e-06
4.08893e-07
2.54378e-07
-8.1802e-07
9.06191e-07
-2.2935e-06
1.85336e-06
-3.53566e-06
3.00183e-06
-4.47548e-06
4.26184e-06
-5.08082e-06
5.54961e-06
-5.34875e-06
6.79045e-06
-5.30196e-06
7.92146e-06
-4.9828e-06
8.8934e-06
-4.44638e-06
9.67109e-06
-3.75367e-06
1.02326e-05
-2.9652e-06
1.05674e-05
-2.13574e-06
1.06738e-05
-1.31023e-06
1.05557e-05
-5.21079e-07
1.02198e-05
2.13263e-07
9.67166e-06
8.88394e-07
8.91368e-06
1.5129e-06
7.94231e-06
2.10622e-06
6.74675e-06
2.69573e-06
5.30829e-06
3.31318e-06
3.60059e-06
3.99111e-06
1.59078e-06
4.75951e-06
-7.58948e-07
5.64327e-06
-3.48935e-06
6.66071e-06
-6.64217e-06
7.82309e-06
-1.02582e-05
9.13505e-06
-1.43756e-05
1.05954e-05
-1.9028e-05
1.2198e-05
-2.42426e-05
1.39323e-05
-3.00385e-05
1.57831e-05
-3.64247e-05
1.7731e-05
-4.3398e-05
1.97511e-05
-5.09416e-05
2.18138e-05
-5.90238e-05
2.38843e-05
-6.75975e-05
2.59237e-05
-7.66009e-05
2.78898e-05
-8.59584e-05
2.97392e-05
-9.55832e-05
3.14285e-05
-0.00010538
3.29169e-05
-0.000115248
3.41673e-05
-0.000125087
3.51485e-05
-0.000134797
3.58359e-05
-0.000144284
3.6212e-05
-0.000153464
3.62668e-05
-0.000162259
3.5997e-05
-0.000170604
3.54057e-05
-0.000178446
3.45011e-05
-0.000185739
3.32956e-05
-0.00019245
3.18045e-05
-0.000198551
3.00452e-05
-0.000204023
2.80363e-05
-0.000208852
2.57967e-05
-0.000213029
2.33455e-05
-0.000216547
2.07011e-05
-0.000219403
1.78814e-05
-0.000221594
1.49037e-05
-0.000223118
1.17844e-05
-0.000223974
8.53988e-06
-0.00022416
5.18601e-06
-0.000223674
1.73895e-06
-0.000222515
-1.78471e-06
-0.00022068
-5.36747e-06
-0.000218169
-8.99046e-06
-0.00021498
-1.26331e-05
-0.000211113
-1.62727e-05
-0.00020657
-1.98841e-05
-0.000201355
-2.34392e-05
-0.000195474
-2.69071e-05
-0.000188938
-3.0254e-05
-0.000181763
-3.3443e-05
-0.00017397
-3.64347e-05
-0.000165587
-3.91877e-05
-0.000156648
-4.16592e-05
-0.000147198
-4.38063e-05
-0.000137288
-4.55873e-05
-0.000126978
-4.69627e-05
-0.00011634
-4.78975e-05
-0.000105451
-4.83629e-05
-9.43965e-05
-4.83375e-05
-8.32694e-05
-4.78095e-05
-7.21658e-05
-4.67775e-05
-6.11847e-05
-4.52516e-05
-5.04249e-05
-4.32537e-05
-3.9983e-05
-4.08172e-05
-2.99512e-05
-3.79863e-05
-2.04148e-05
-3.48142e-05
-1.14508e-05
-3.13618e-05
-3.12674e-06
-2.76953e-05
4.50033e-06
-2.38843e-05
1.1384e-05
-1.99994e-05
1.74889e-05
-1.61106e-05
2.27904e-05
-1.22854e-05
2.72749e-05
-8.58771e-06
3.09399e-05
-5.07618e-06
3.37943e-05
-1.8035e-06
3.58585e-05
1.18487e-06
3.71648e-05
3.85176e-06
3.77576e-05
6.1693e-06
3.76921e-05
8.11988e-06
3.70343e-05
9.69677e-06
3.58584e-05
1.09043e-05
3.42445e-05
1.17575e-05
3.22759e-05
1.22812e-05
3.00357e-05
1.25083e-05
2.7604e-05
1.24778e-05
2.50547e-05
1.22323e-05
2.24537e-05
1.18156e-05
1.98577e-05
1.12703e-05
1.73129e-05
1.06354e-05
1.48561e-05
9.94377e-06
1.25155e-05
9.22054e-06
1.03121e-05
8.48083e-06
8.26245e-06
7.72849e-06
6.38099e-06
6.95554e-06
4.68327e-06
6.14303e-06
3.18894e-06
5.264e-06
1.92514e-06
4.28904e-06
9.30606e-07
3.19509e-06
2.60938e-07
1.9764e-06
6.69832e-07
2.80141e-07
-1.09816e-06
9.91899e-07
-3.00526e-06
2.01472e-06
-4.55848e-06
3.23697e-06
-5.69773e-06
4.55474e-06
-6.39859e-06
5.87414e-06
-6.66815e-06
7.11409e-06
-6.54191e-06
8.20847e-06
-6.07718e-06
9.1071e-06
-5.34501e-06
9.77527e-06
-4.42184e-06
1.0192e-05
-3.38193e-06
1.03474e-05
-2.29112e-06
1.02393e-05
-1.20216e-06
9.86992e-06
-1.51684e-07
9.24205e-06
8.4114e-07
8.35599e-06
1.77445e-06
7.20677e-06
2.66212e-06
5.78216e-06
3.53083e-06
4.06166e-06
4.41623e-06
2.01645e-06
5.3584e-06
-3.89617e-07
6.39718e-06
-3.19826e-06
7.56815e-06
-6.45449e-06
8.8995e-06
-1.02041e-05
1.04104e-05
-1.44914e-05
1.21103e-05
-1.93563e-05
1.4e-05
-2.48329e-05
1.60719e-05
-3.09461e-05
1.83113e-05
-3.77104e-05
2.06966e-05
-4.51267e-05
2.31994e-05
-5.31805e-05
2.57848e-05
-6.18404e-05
2.84111e-05
-7.10573e-05
3.10307e-05
-8.07645e-05
3.35915e-05
-9.08793e-05
3.60385e-05
-0.000101306
3.83161e-05
-0.000111938
4.03712e-05
-0.000122664
4.21552e-05
-0.000133374
4.36265e-05
-0.000143959
4.4752e-05
-0.000154318
4.5508e-05
-0.000164363
4.58805e-05
-0.000174015
4.58644e-05
-0.000183211
4.54629e-05
-0.0001919
4.46857e-05
-0.000200042
4.3548e-05
-0.00020761
4.20686e-05
-0.000214583
4.02687e-05
-0.000220949
3.81709e-05
-0.000226702
3.57979e-05
-0.000231838
3.31722e-05
-0.000236356
3.03151e-05
-0.000240258
2.7247e-05
-0.000243544
2.3987e-05
-0.000246215
2.05527e-05
-0.000248272
1.69607e-05
-0.000249714
1.32268e-05
-0.00025054
9.36583e-06
-0.000250747
5.39275e-06
-0.000250331
1.32248e-06
-0.000249286
-2.82945e-06
-0.000247607
-7.04639e-06
-0.000245287
-1.13101e-05
-0.00024232
-1.56003e-05
-0.000238699
-1.98942e-05
-0.000234417
-2.41658e-05
-0.00022947
-2.8386e-05
-0.000223856
-3.25216e-05
-0.000217574
-3.65359e-05
-0.000210629
-4.0388e-05
-0.00020303
-4.40337e-05
-0.000194792
-4.74253e-05
-0.000185938
-5.05126e-05
-0.0001765
-5.32444e-05
-0.000166518
-5.55693e-05
-0.000156043
-5.74378e-05
-0.000145137
-5.88042e-05
-0.000133871
-5.96287e-05
-0.000122328
-5.988e-05
-0.000110601
-5.95371e-05
-9.8787e-05
-5.85911e-05
-8.69916e-05
-5.7047e-05
-7.53211e-05
-5.49241e-05
-6.38819e-05
-5.22565e-05
-5.27767e-05
-4.90915e-05
-4.21019e-05
-4.5489e-05
-3.19453e-05
-4.15184e-05
-2.23841e-05
-3.72566e-05
-1.34838e-05
-3.27846e-05
-5.29799e-06
-2.81852e-05
2.13158e-06
-2.35401e-05
8.77424e-06
-1.89281e-05
1.46097e-05
-1.44232e-05
1.96275e-05
-1.0094e-05
2.38265e-05
-6.00249e-06
2.72149e-05
-2.20346e-06
2.98104e-05
1.25624e-06
3.16411e-05
4.33861e-06
3.27455e-05
7.01546e-06
3.31729e-05
9.26937e-06
3.29827e-05
1.10945e-05
3.22432e-05
1.2497e-05
3.10299e-05
1.34946e-05
2.94225e-05
1.41158e-05
2.7502e-05
1.43983e-05
2.53479e-05
1.43863e-05
2.30351e-05
1.41284e-05
2.06314e-05
1.3674e-05
1.81964e-05
1.30704e-05
1.57804e-05
1.23597e-05
1.34249e-05
1.15761e-05
1.11633e-05
1.07425e-05
9.02301e-06
9.86876e-06
7.02811e-06
8.95044e-06
5.20238e-06
7.96876e-06
3.57327e-06
6.89311e-06
2.17652e-06
5.68579e-06
1.06199e-06
4.30961e-06
3.01012e-07
2.73738e-06
9.70844e-07
3.00951e-07
-1.39911e-06
1.05843e-06
-3.76274e-06
2.13422e-06
-5.63426e-06
3.3997e-06
-6.9632e-06
4.73712e-06
-7.73602e-06
6.04279e-06
-7.97382e-06
7.22982e-06
-7.72894e-06
8.22978e-06
-7.07714e-06
8.99268e-06
-6.10791e-06
9.48538e-06
-4.91454e-06
9.68876e-06
-3.58531e-06
9.59405e-06
-2.19641e-06
9.19875e-06
-8.0686e-07
8.50259e-06
5.44476e-07
7.50372e-06
1.84001e-06
6.19549e-06
3.08268e-06
4.56401e-06
4.2936e-06
2.58669e-06
5.50814e-06
2.32038e-07
6.77089e-06
-2.53952e-06
8.12995e-06
-5.77365e-06
9.63131e-06
-9.51948e-06
1.1314e-05
-1.38265e-05
1.32065e-05
-1.87416e-05
1.53254e-05
-2.43057e-05
1.76744e-05
-3.05513e-05
2.02457e-05
-3.74997e-05
2.30203e-05
-4.51579e-05
2.59695e-05
-5.35165e-05
2.90552e-05
-6.25477e-05
3.22306e-05
-7.22035e-05
3.54405e-05
-8.24159e-05
3.86235e-05
-9.30983e-05
4.17131e-05
-0.000104148
4.46411e-05
-0.00011545
4.7341e-05
-0.000126885
4.97506e-05
-0.000138329
5.18158e-05
-0.000149667
5.34927e-05
-0.000160789
5.47488e-05
-0.000171601
5.55638e-05
-0.000182022
5.59288e-05
-0.000191987
5.58454e-05
-0.000201446
5.53235e-05
-0.000210363
5.43801e-05
-0.000218714
5.30369e-05
-0.000226485
5.13184e-05
-0.000233667
4.92511e-05
-0.00024026
4.68615e-05
-0.000246265
4.41757e-05
-0.000251686
4.12187e-05
-0.000256527
3.80138e-05
-0.000260795
3.45828e-05
-0.000264493
3.09453e-05
-0.000267626
2.71195e-05
-0.000270195
2.3122e-05
-0.000272202
1.8968e-05
-0.000273647
1.46715e-05
-0.000274527
1.02462e-05
-0.00027484
5.70524e-06
-0.000274579
1.06195e-06
-0.000273739
-3.66968e-06
-0.000272311
-8.47451e-06
-0.000270286
-1.33357e-05
-0.000267652
-1.82341e-05
-0.000264398
-2.31479e-05
-0.000260512
-2.80517e-05
-0.000255982
-3.29163e-05
-0.000250795
-3.7708e-05
-0.000244943
-4.23886e-05
-0.000238416
-4.69147e-05
-0.000231211
-5.12384e-05
-0.00022333
-5.53069e-05
-0.000214779
-5.90637e-05
-0.000205574
-6.24494e-05
-0.00019574
-6.54028e-05
-0.000185314
-6.78635e-05
-0.000174345
-6.97735e-05
-0.000162894
-7.10799e-05
-0.000151036
-7.17381e-05
-0.000138859
-7.17142e-05
-0.000126462
-7.09877e-05
-0.000113955
-6.95542e-05
-0.000101452
-6.74264e-05
-8.9074e-05
-6.46349e-05
-7.69373e-05
-6.12282e-05
-6.51555e-05
-5.72707e-05
-5.38334e-05
-5.28405e-05
-4.30641e-05
-4.80259e-05
-3.2927e-05
-4.29217e-05
-2.3487e-05
-3.76253e-05
-1.4794e-05
-3.22331e-05
-6.88426e-06
-2.68378e-05
2.18406e-07
-2.15259e-05
6.50069e-06
-1.63763e-05
1.19583e-05
-1.14601e-05
1.65949e-05
-6.84006e-06
2.04215e-05
-2.57036e-06
2.34567e-05
1.30343e-06
2.57272e-05
4.745e-06
2.72685e-05
7.72807e-06
2.81256e-05
1.02374e-05
2.83529e-05
1.22696e-05
2.80138e-05
1.38337e-05
2.71787e-05
1.49509e-05
2.59233e-05
1.56537e-05
2.43255e-05
1.59841e-05
2.24628e-05
1.59911e-05
2.04092e-05
1.57276e-05
1.82331e-05
1.52465e-05
1.59954e-05
1.45974e-05
1.37493e-05
1.38222e-05
1.15401e-05
1.29517e-05
9.40651e-06
1.20023e-05
7.38313e-06
1.09738e-05
5.50349e-06
9.84841e-06
3.80426e-06
8.59234e-06
2.33065e-06
7.1594e-06
1.14314e-06
5.49713e-06
3.25681e-07
3.55484e-06
1.29652e-06
3.18325e-07
-1.71744e-06
1.10959e-06
-4.55401e-06
2.21728e-06
-6.74196e-06
3.49607e-06
-8.24199e-06
4.8149e-06
-9.05485e-06
6.06105e-06
-9.21997e-06
7.14294e-06
-8.81082e-06
7.99103e-06
-7.92523e-06
8.55675e-06
-6.67363e-06
8.80953e-06
-5.16733e-06
8.73274e-06
-3.50852e-06
8.31884e-06
-1.78251e-06
7.56456e-06
-5.25831e-08
6.46632e-06
1.64272e-06
5.01625e-06
3.29007e-06
3.19924e-06
4.89969e-06
9.91002e-07
6.50184e-06
-1.64244e-06
8.14159e-06
-4.74396e-06
9.87241e-06
-8.36316e-06
1.17491e-05
-1.25532e-05
1.38214e-05
-1.73673e-05
1.6128e-05
-2.28544e-05
1.86937e-05
-2.9056e-05
2.15269e-05
-3.6002e-05
2.46205e-05
-4.37082e-05
2.79519e-05
-5.21731e-05
3.14851e-05
-6.13752e-05
3.51716e-05
-7.12715e-05
3.89516e-05
-8.17967e-05
4.27557e-05
-9.28637e-05
4.65075e-05
-0.000104367
5.01263e-05
-0.000116185
5.35312e-05
-0.000128189
5.6645e-05
-0.000140246
5.93988e-05
-0.00015223
6.17346e-05
-0.000164023
6.36082e-05
-0.00017552
6.49897e-05
-0.000186635
6.58636e-05
-0.000197298
6.62273e-05
-0.000207459
6.60893e-05
-0.00021708
6.54666e-05
-0.000226139
6.43825e-05
-0.000234623
6.28645e-05
-0.000242529
6.09423e-05
-0.000249856
5.86464e-05
-0.000256612
5.60067e-05
-0.000262803
5.30521e-05
-0.000268437
4.981e-05
-0.000273524
4.63054e-05
-0.000278071
4.25615e-05
-0.000282088
3.85993e-05
-0.00028558
3.44376e-05
-0.000288554
3.00934e-05
-0.000291014
2.55821e-05
-0.000292964
2.09173e-05
-0.000294404
1.61118e-05
-0.000295335
1.11774e-05
-0.000295755
6.12539e-06
-0.00029566
9.67195e-07
-0.000295045
-4.28526e-06
-0.0002939
-9.61908e-06
-0.000292216
-1.50197e-05
-0.00028998
-2.04703e-05
-0.000287177
-2.59511e-05
-0.00028379
-3.14389e-05
-0.0002798
-3.69061e-05
-0.000275188
-4.23202e-05
-0.000269933
-4.76434e-05
-0.000264016
-5.28321e-05
-0.000257417
-5.78365e-05
-0.000250124
-6.26008e-05
-0.000242124
-6.70637e-05
-0.000233414
-7.1159e-05
-0.000224
-7.48168e-05
-0.000213898
-7.79655e-05
-0.000203138
-8.0534e-05
-0.000191763
-8.24547e-05
-0.000179834
-8.36666e-05
-0.00016743
-8.4119e-05
-0.000154642
-8.3775e-05
-0.000141582
-8.26148e-05
-0.00012837
-8.06385e-05
-0.000115137
-7.78678e-05
-0.000102018
-7.43465e-05
-8.91493e-05
-7.01398e-05
-7.66582e-05
-6.53316e-05
-6.46628e-05
-6.00213e-05
-5.32659e-05
-5.43186e-05
-4.25523e-05
-4.83389e-05
-3.2588e-05
-4.21974e-05
-2.34202e-05
-3.60056e-05
-1.50793e-05
-2.98668e-05
-7.58095e-06
-2.38746e-05
-9.29438e-07
-1.81116e-05
4.87989e-06
-1.26494e-05
9.85853e-06
-7.54899e-06
1.40236e-05
-2.86164e-06
1.73977e-05
1.37091e-06
2.00093e-05
5.11645e-06
2.18938e-05
8.35289e-06
2.30944e-05
1.10691e-05
2.36623e-05
1.32657e-05
2.36573e-05
1.4956e-05
2.31456e-05
1.61653e-05
2.21993e-05
1.69304e-05
2.08929e-05
1.72975e-05
1.93013e-05
1.73192e-05
1.74969e-05
1.70509e-05
1.55475e-05
1.65467e-05
1.35151e-05
1.58546e-05
1.14549e-05
1.50119e-05
9.4163e-06
1.40409e-05
7.44438e-06
1.29457e-05
5.58282e-06
1.171e-05
3.8781e-06
1.02971e-05
2.38485e-06
8.65265e-06
1.17276e-06
6.70922e-06
3.34654e-07
4.39294e-06
1.63118e-06
3.32726e-07
-2.05016e-06
1.14624e-06
-5.36752e-06
2.2645e-06
-7.86021e-06
3.52555e-06
-9.50304e-06
4.7859e-06
-1.03152e-05
5.92513e-06
-1.03592e-05
6.84851e-06
-9.7342e-06
7.487e-06
-8.56372e-06
7.7947e-06
-6.98133e-06
7.74451e-06
-5.11714e-06
7.32253e-06
-3.08654e-06
6.52218e-06
-9.82159e-07
5.33853e-06
1.13107e-06
3.76338e-06
3.21788e-06
1.78138e-06
5.27207e-06
-6.32453e-07
7.31353e-06
-3.51375e-06
9.38313e-06
-6.90803e-06
1.15359e-05
-1.08685e-05
1.38328e-05
-1.54522e-05
1.63329e-05
-2.07159e-05
1.90851e-05
-2.67108e-05
2.2123e-05
-3.34785e-05
2.54613e-05
-4.10461e-05
2.90946e-05
-4.94233e-05
3.29977e-05
-5.8599e-05
3.71275e-05
-6.85388e-05
4.14249e-05
-7.91841e-05
4.58169e-05
-9.04518e-05
5.02193e-05
-0.000102237
5.45406e-05
-0.000114415
5.86859e-05
-0.000126851
6.25621e-05
-0.000139403
6.60831e-05
-0.000151932
6.91741e-05
-0.000164308
7.17751e-05
-0.000176417
7.3843e-05
-0.00018816
7.53518e-05
-0.000199462
7.62915e-05
-0.000210264
7.66658e-05
-0.000220527
7.64898e-05
-0.000230224
7.5787e-05
-0.000239344
7.45864e-05
-0.000247882
7.29205e-05
-0.000255841
7.08232e-05
-0.000263227
6.83286e-05
-0.000270051
6.54699e-05
-0.000276323
6.22788e-05
-0.000282055
5.87849e-05
-0.000287261
5.50157e-05
-0.000291952
5.09964e-05
-0.00029614
4.67497e-05
-0.000299837
4.22961e-05
-0.000303053
3.76536e-05
-0.000305798
3.28384e-05
-0.000308081
2.78646e-05
-0.000309908
2.27446e-05
-0.000311286
1.74895e-05
-0.000312217
1.21092e-05
-0.000312705
6.61285e-06
-0.000312747
1.00946e-06
-0.000312341
-4.69165e-06
-0.000311479
-1.04806e-05
-0.000310153
-1.6346e-05
-0.000308349
-2.22742e-05
-0.000306051
-2.82491e-05
-0.000303239
-3.42508e-05
-0.00029989
-4.02551e-05
-0.000295978
-4.62326e-05
-0.000291473
-5.21483e-05
-0.000286345
-5.79603e-05
-0.000280561
-6.36199e-05
-0.000274091
-6.90707e-05
-0.000266906
-7.42494e-05
-0.000258979
-7.90852e-05
-0.000250295
-8.35016e-05
-0.000240843
-8.74175e-05
-0.000230627
-9.07493e-05
-0.000219668
-9.34139e-05
-0.000208002
-9.53325e-05
-0.000195687
-9.64343e-05
-0.000182801
-9.6661e-05
-0.000169444
-9.59713e-05
-0.000155737
-9.43455e-05
-0.000141817
-9.1788e-05
-0.000127834
-8.833e-05
-0.000113944
-8.40299e-05
-0.000100304
-7.89716e-05
-8.70635e-05
-7.32614e-05
-7.43594e-05
-6.70227e-05
-6.23084e-05
-6.03899e-05
-5.10045e-05
-5.35013e-05
-4.05176e-05
-4.64925e-05
-3.08935e-05
-3.94909e-05
-2.21568e-05
-3.26113e-05
-1.43144e-05
-2.5954e-05
-7.35982e-06
-1.9604e-05
-1.27714e-06
-1.36317e-05
3.95561e-06
-8.09439e-06
8.36455e-06
-3.03803e-06
1.19792e-05
1.50183e-06