/*--------------------------------*- C++ -*----------------------------------*\
| =========                 |                                                 |
| \\      /  F ield         | OpenFOAM: The Open Source CFD Toolbox           |
|  \\    /   O peration     | Version:  2406                                  |
|   \\  /    A nd           | Website:  www.openfoam.com                      |
|    \\/     M anipulation  |                                                 |
\*---------------------------------------------------------------------------*/
FoamFile
{
    version     2.0;
    format      ascii;
    arch        "LSB;label=32;scalar=64";
    class       volVectorField;
    location    "41.35";
    object      U;
}
// * * * * * * * * * * * * * * * * * * * * * * * * * * * * * * * * * * * * * //

dimensions      [0 1 -1 0 0 0 0];

internalField   nonuniform List<vector> 
14400
(
(-7.20406e-06 7.10144e-06 0)
(1.44721e-05 -1.13728e-05 0)
(0.000123862 -3.5321e-05 0)
(0.000316405 -5.47465e-05 0)
(0.000571872 -6.81368e-05 0)
(0.000867231 -7.52858e-05 0)
(0.00117949 -7.68109e-05 0)
(0.00148835 -7.36463e-05 0)
(0.00177738 -6.69325e-05 0)
(0.00203466 -5.78821e-05 0)
(0.00225289 -4.76778e-05 0)
(0.00242919 -3.7376e-05 0)
(0.00256448 -2.78339e-05 0)
(0.00266261 -1.96662e-05 0)
(0.00272943 -1.32267e-05 0)
(0.00277179 -8.61055e-06 0)
(0.00279666 -5.73807e-06 0)
(0.00281014 -4.45056e-06 0)
(0.00281684 -4.32687e-06 0)
(0.00281963 -4.7908e-06 0)
(0.00281946 -5.14628e-06 0)
(0.00281548 -4.89091e-06 0)
(0.00280494 -3.75963e-06 0)
(0.0027836 -1.50722e-06 0)
(0.00274623 2.04632e-06 0)
(0.00268701 6.9943e-06 0)
(0.00259975 1.33717e-05 0)
(0.00247817 2.11856e-05 0)
(0.00231592 3.04402e-05 0)
(0.0021066 4.11536e-05 0)
(0.00184374 5.33619e-05 0)
(0.00152074 6.71142e-05 0)
(0.00113084 8.246e-05 0)
(0.000667237 9.9435e-05 0)
(0.000123128 0.000118048 0)
(-0.000508099 0.000138268 0)
(-0.00123268 0.000160022 0)
(-0.00205625 0.00018318 0)
(-0.0029836 0.000207563 0)
(-0.00401844 0.000232932 0)
(-0.00516312 0.000258996 0)
(-0.00641842 0.000285406 0)
(-0.00778329 0.000311767 0)
(-0.00925471 0.000337633 0)
(-0.0108274 0.000362524 0)
(-0.012494 0.000385924 0)
(-0.0142445 0.000407298 0)
(-0.0160667 0.000426094 0)
(-0.017946 0.000441755 0)
(-0.0198656 0.000453726 0)
(-0.0218063 0.000461463 0)
(-0.0237474 0.00046444 0)
(-0.0256659 0.000462154 0)
(-0.0275378 0.000454136 0)
(-0.0293375 0.000439955 0)
(-0.0310386 0.00041923 0)
(-0.0326143 0.000391634 0)
(-0.0340371 0.000356918 0)
(-0.0352802 0.000314911 0)
(-0.036317 0.000265446 0)
(-0.0371228 0.000208727 0)
(-0.0376743 0.000146439 0)
(-0.0379477 7.93708e-05 0)
(-0.0379226 5.10396e-06 0)
(-0.0375855 -7.5975e-05 0)
(-0.0369255 -0.000161021 0)
(-0.0359341 -0.000248488 0)
(-0.0346091 -0.000337018 0)
(-0.0329543 -0.000424915 0)
(-0.0309797 -0.000510282 0)
(-0.0287018 -0.00059107 0)
(-0.0261442 -0.000665133 0)
(-0.0233375 -0.000730318 0)
(-0.0203187 -0.000784561 0)
(-0.0171311 -0.000825982 0)
(-0.0138237 -0.000852999 0)
(-0.0104493 -0.000864429 0)
(-0.00706428 -0.000859579 0)
(-0.00372592 -0.000838319 0)
(-0.000491368 -0.000801121 0)
(0.00258457 -0.000749075 0)
(0.00545117 -0.00068385 0)
(0.00806364 -0.000607623 0)
(0.0103846 -0.000522976 0)
(0.0123854 -0.000432752 0)
(0.0140468 -0.000339901 0)
(0.0153596 -0.000247317 0)
(0.0163246 -0.000157669 0)
(0.0169518 -7.31981e-05 0)
(0.0172607 3.83068e-06 0)
(0.0172762 7.02752e-05 0)
(0.0170275 0.000126085 0)
(0.0165511 0.000173215 0)
(0.0158865 0.000211199 0)
(0.0150714 0.000239179 0)
(0.0141427 0.000257785 0)
(0.0131357 0.00026806 0)
(0.012083 0.000271104 0)
(0.0110131 0.00026808 0)
(0.00995044 0.000260156 0)
(0.00891493 0.000248453 0)
(0.00792225 0.000234011 0)
(0.00698396 0.000217759 0)
(0.00610787 0.000200504 0)
(0.00529855 0.000182928 0)
(0.00455772 0.000165588 0)
(0.00388484 0.000148928 0)
(0.0032775 0.000133286 0)
(0.00273192 0.000118897 0)
(0.00224341 0.000105887 0)
(0.00180687 9.42579e-05 0)
(0.00141738 8.38513e-05 0)
(0.00107096 7.43118e-05 0)
(0.00076535 6.5053e-05 0)
(0.000500929 5.52471e-05 0)
(0.000281388 4.39157e-05 0)
(0.000113866 3.01826e-05 0)
(7.4933e-06 1.37838e-05 0)
(-3.27101e-05 -3.26962e-06 0)
(-1.31875e-05 -1.32089e-05 0)
(1.01852e-05 -1.35568e-05 0)
(0.000154224 -0.000158811 0)
(0.00048381 -0.000336138 0)
(0.000992387 -0.000484287 0)
(0.00163375 -0.000588394 0)
(0.00236099 -0.000645255 0)
(0.00312434 -0.000657825 0)
(0.00387837 -0.000632509 0)
(0.00458528 -0.000577708 0)
(0.00521663 -0.000502691 0)
(0.00575394 -0.000416695 0)
(0.00618841 -0.000328127 0)
(0.00651974 -0.000243955 0)
(0.0067544 -0.000169305 0)
(0.00690354 -0.000107282 0)
(0.00698077 -5.89852e-05 0)
(0.00699998 -2.37333e-05 0)
(0.00697354 5.55561e-07 0)
(0.00691073 1.72403e-05 0)
(0.00681672 3.0373e-05 0)
(0.00669198 4.42575e-05 0)
(0.00653217 6.28513e-05 0)
(0.0063288 8.94257e-05 0)
(0.00606995 0.000126531 0)
(0.00574106 0.000175923 0)
(0.00532583 0.00023864 0)
(0.00480695 0.000315186 0)
(0.00416667 0.000405754 0)
(0.00338711 0.000510414 0)
(0.00245037 0.000629237 0)
(0.00133869 0.000762328 0)
(3.45281e-05 0.00090978 0)
(-0.00147923 0.00107158 0)
(-0.00321892 0.00124748 0)
(-0.0051997 0.00143691 0)
(-0.00743492 0.00163889 0)
(-0.00993555 0.00185193 0)
(-0.0127095 0.00207406 0)
(-0.0157609 0.00230274 0)
(-0.0190895 0.00253493 0)
(-0.0226904 0.00276709 0)
(-0.0265528 0.00299522 0)
(-0.0306606 0.00321496 0)
(-0.0349917 0.00342166 0)
(-0.0395179 0.00361048 0)
(-0.0442054 0.00377651 0)
(-0.0490149 0.0039149 0)
(-0.0539022 0.00402093 0)
(-0.0588187 0.0040902 0)
(-0.0637123 0.00411862 0)
(-0.0685279 0.00410261 0)
(-0.0732087 0.00403909 0)
(-0.0776968 0.00392557 0)
(-0.0819341 0.00376019 0)
(-0.0858632 0.00354175 0)
(-0.0894283 0.00326975 0)
(-0.0925755 0.0029444 0)
(-0.0952542 0.00256665 0)
(-0.0974174 0.00213826 0)
(-0.0990221 0.00166177 0)
(-0.10003 0.00114073 0)
(-0.100409 0.00058059 0)
(-0.100134 -1.24466e-05 0)
(-0.0991844 -0.000634702 0)
(-0.0975462 -0.00127954 0)
(-0.0952158 -0.00193747 0)
(-0.0921975 -0.00259896 0)
(-0.0885041 -0.00325359 0)
(-0.0841578 -0.00389018 0)
(-0.0791909 -0.00449691 0)
(-0.0736452 -0.00506156 0)
(-0.0675729 -0.00557176 0)
(-0.0610361 -0.00601545 0)
(-0.0541064 -0.00638119 0)
(-0.0468639 -0.00665869 0)
(-0.039397 -0.00683927 0)
(-0.0318 -0.00691633 0)
(-0.0241721 -0.00688578 0)
(-0.0166154 -0.00674644 0)
(-0.00923221 -0.00650026 0)
(-0.00212297 -0.00615245 0)
(0.00461647 -0.00571147 0)
(0.0108974 -0.00518879 0)
(0.0166409 -0.00459854 0)
(0.0217798 -0.00395694 0)
(0.0262611 -0.00328167 0)
(0.0300471 -0.00259112 0)
(0.0331168 -0.00190356 0)
(0.0354657 -0.00123641 0)
(0.0371056 -0.000605679 0)
(0.0380645 -2.61382e-05 0)
(0.0383864 0.000492292 0)
(0.0381266 0.000944111 0)
(0.0373484 0.00132407 0)
(0.0361234 0.00162932 0)
(0.034528 0.00186087 0)
(0.0326393 0.00202242 0)
(0.0305327 0.00211964 0)
(0.0282798 0.00215966 0)
(0.0259459 0.00215059 0)
(0.0235886 0.00210094 0)
(0.0212571 0.00201922 0)
(0.0189916 0.00191355 0)
(0.0168235 0.00179141 0)
(0.0147753 0.00165942 0)
(0.0128622 0.00152328 0)
(0.0110924 0.00138774 0)
(0.0094682 0.00125656 0)
(0.00798742 0.00113252 0)
(0.00664442 0.00101737 0)
(0.0054315 0.000911646 0)
(0.00434047 0.000814501 0)
(0.00336436 0.000723474 0)
(0.00249925 0.000634361 0)
(0.00174606 0.000541354 0)
(0.00111169 0.00043787 0)
(0.000608858 0.000318571 0)
(0.000252048 0.000183766 0)
(5.29268e-05 4.74405e-05 0)
(-2.16284e-06 -3.1717e-05 0)
(3.23167e-05 -0.000116823 0)
(0.000321129 -0.000484032 0)
(0.000856083 -0.000874517 0)
(0.00162505 -0.00119893 0)
(0.0025594 -0.00142748 0)
(0.0035996 -0.00155174 0)
(0.00468066 -0.00157644 0)
(0.00574247 -0.00151455 0)
(0.00673419 -0.00138402 0)
(0.00761679 -0.00120518 0)
(0.00836398 -0.000998574 0)
(0.00896192 -0.000783119 0)
(0.00940785 -0.000574673 0)
(0.00970787 -0.000385056 0)
(0.0098743 -0.000221573 0)
(0.0099227 -8.69675e-05 0)
(0.00986901 2.02477e-05 0)
(0.00972709 0.00010508 0)
(0.00950656 0.000175185 0)
(0.00921128 0.0002398 0)
(0.00883864 0.000308632 0)
(0.00837954 0.000390967 0)
(0.00781893 0.000494888 0)
(0.00713686 0.000626706 0)
(0.00630968 0.000790837 0)
(0.00531122 0.000989987 0)
(0.00411391 0.00122553 0)
(0.00268962 0.00149797 0)
(0.00101025 0.00180732 0)
(-0.000951809 0.00215333 0)
(-0.00322323 0.00253555 0)
(-0.0058293 0.00295318 0)
(-0.00879324 0.00340485 0)
(-0.0121354 0.00388837 0)
(-0.0158725 0.00440045 0)
(-0.0200162 0.00493662 0)
(-0.0245724 0.00549102 0)
(-0.0295402 0.00605648 0)
(-0.0349108 0.00662453 0)
(-0.0406668 0.0071855 0)
(-0.0467822 0.00772877 0)
(-0.0532216 0.00824294 0)
(-0.0599406 0.00871622 0)
(-0.0668865 0.00913668 0)
(-0.073999 0.00949264 0)
(-0.0812113 0.00977301 0)
(-0.0884513 0.0099676 0)
(-0.0956432 0.0100674 0)
(-0.102709 0.0100649 0)
(-0.109571 0.00995392 0)
(-0.116151 0.0097302 0)
(-0.122373 0.00939105 0)
(-0.128166 0.00893544 0)
(-0.133462 0.008364 0)
(-0.138197 0.00767885 0)
(-0.142315 0.00688356 0)
(-0.145764 0.00598306 0)
(-0.148499 0.00498354 0)
(-0.150481 0.00389245 0)
(-0.151678 0.00271847 0)
(-0.152064 0.00147133 0)
(-0.151618 0.000161605 0)
(-0.150332 -0.00119793 0)
(-0.1482 -0.00259231 0)
(-0.145222 -0.00400729 0)
(-0.141409 -0.00542713 0)
(-0.136778 -0.00683409 0)
(-0.131353 -0.00820908 0)
(-0.125169 -0.00953195 0)
(-0.118267 -0.0107817 0)
(-0.110699 -0.0119369 0)
(-0.102525 -0.012976 0)
(-0.0938134 -0.0138779 0)
(-0.0846426 -0.0146227 0)
(-0.0750985 -0.0151922 0)
(-0.0652752 -0.0155709 0)
(-0.0552734 -0.0157465 0)
(-0.0451994 -0.0157109 0)
(-0.0351632 -0.0154605 0)
(-0.025277 -0.0149973 0)
(-0.015653 -0.0143284 0)
(-0.00640096 -0.0134668 0)
(0.0023742 -0.012431 0)
(0.0105748 -0.0112443 0)
(0.0181126 -0.00993456 0)
(0.0249117 -0.00853305 0)
(0.0309096 -0.0070734 0)
(0.0360597 -0.00559038 0)
(0.0403322 -0.00411867 0)
(0.0437147 -0.00269137 0)
(0.0462137 -0.0013383 0)
(0.0478541 -8.60343e-05 0)
(0.0486763 0.00104268 0)
(0.0487356 0.00203059 0)
(0.0481022 0.00286745 0)
(0.0468575 0.00354829 0)
(0.0450902 0.00407365 0)
(0.0428933 0.00444934 0)
(0.0403612 0.00468563 0)
(0.0375856 0.00479632 0)
(0.0346534 0.00479768 0)
(0.0316432 0.00470744 0)
(0.0286241 0.0045437 0)
(0.0256545 0.00432415 0)
(0.0227812 0.00406534 0)
(0.02004 0.00378218 0)
(0.017456 0.00348761 0)
(0.015045 0.00319241 0)
(0.0128145 0.00290493 0)
(0.0107659 0.00263094 0)
(0.00889582 0.00237324 0)
(0.00719874 0.00213124 0)
(0.00566922 0.00190067 0)
(0.00430435 0.00167339 0)
(0.00310598 0.00143801 0)
(0.00208221 0.00118181 0)
(0.00124718 0.000894797 0)
(0.000615427 0.000577667 0)
(0.000210042 0.000254551 0)
(1.78303e-05 1.66681e-05 0)
(4.99436e-05 -0.000297248 0)
(0.000461291 -0.000981045 0)
(0.00117053 -0.00164146 0)
(0.00215261 -0.0021792 0)
(0.00331395 -0.00255344 0)
(0.00458402 -0.00275161 0)
(0.00588692 -0.00278113 0)
(0.00715303 -0.00266295 0)
(0.00832355 -0.00242655 0)
(0.00935307 -0.00210569 0)
(0.0102105 -0.00173462 0)
(0.0108785 -0.00134505 0)
(0.0113522 -0.000963621 0)
(0.0116363 -0.000610255 0)
(0.0117421 -0.000297285 0)
(0.0116844 -2.92997e-05 0)
(0.0114779 0.00019634 0)
(0.0111343 0.00038841 0)
(0.0106601 0.000560239 0)
(0.0100548 0.000727972 0)
(0.00931017 0.000908685 0)
(0.0084101 0.00111866 0)
(0.00733157 0.00137202 0)
(0.00604582 0.00167982 0)
(0.00451992 0.00204985 0)
(0.00271829 0.00248683 0)
(0.00060408 0.00299304 0)
(-0.00185961 0.00356899 0)
(-0.0047088 0.004214 0)
(-0.0079777 0.00492651 0)
(-0.0116978 0.00570403 0)
(-0.0158966 0.00654288 0)
(-0.0205969 0.00743785 0)
(-0.0258147 0.0083817 0)
(-0.0315581 0.00936492 0)
(-0.0378262 0.0103755 0)
(-0.0446072 0.0113989 0)
(-0.051878 0.0124184 0)
(-0.0596033 0.0134151 0)
(-0.0677356 0.0143687 0)
(-0.0762158 0.015258 0)
(-0.0849742 0.0160615 0)
(-0.0939316 0.0167581 0)
(-0.103002 0.017328 0)
(-0.112093 0.0177534 0)
(-0.121112 0.0180186 0)
(-0.129964 0.0181112 0)
(-0.138557 0.0180216 0)
(-0.146801 0.0177436 0)
(-0.154615 0.0172741 0)
(-0.16192 0.016613 0)
(-0.168648 0.0157631 0)
(-0.174738 0.0147295 0)
(-0.180134 0.0135195 0)
(-0.184792 0.012142 0)
(-0.188671 0.0106075 0)
(-0.19174 0.00892784 0)
(-0.193973 0.00711593 0)
(-0.19535 0.00518572 0)
(-0.195856 0.00315223 0)
(-0.195483 0.00103153 0)
(-0.194225 -0.0011597 0)
(-0.192082 -0.00340377 0)
(-0.18906 -0.00567989 0)
(-0.185169 -0.00796632 0)
(-0.180422 -0.0102404 0)
(-0.17484 -0.0124778 0)
(-0.168448 -0.0146523 0)
(-0.161278 -0.0167362 0)
(-0.15337 -0.0187008 0)
(-0.14477 -0.0205162 0)
(-0.135531 -0.0221523 0)
(-0.125716 -0.0235795 0)
(-0.115395 -0.0247693 0)
(-0.104648 -0.0256952 0)
(-0.093562 -0.0263342 0)
(-0.0822311 -0.0266674 0)
(-0.070757 -0.0266811 0)
(-0.0592465 -0.0263681 0)
(-0.0478102 -0.0257282 0)
(-0.0365608 -0.0247689 0)
(-0.0256108 -0.0235055 0)
(-0.0150703 -0.0219612 0)
(-0.00504507 -0.0201667 0)
(0.00436643 -0.0181592 0)
(0.0130746 -0.0159818 0)
(0.021001 -0.0136815 0)
(0.0280798 -0.0113082 0)
(0.0342599 -0.00891317 0)
(0.0395054 -0.0065467 0)
(0.0437973 -0.00425699 0)
(0.0471333 -0.00208901 0)
(0.0495279 -8.28005e-05 0)
(0.0510137 0.00172876 0)
(0.0516398 0.00332065 0)
(0.0514701 0.00467552 0)
(0.0505818 0.00578446 0)
(0.0490631 0.00664715 0)
(0.0470096 0.00727129 0)
(0.0445216 0.00767172 0)
(0.0416994 0.00786912 0)
(0.0386405 0.00788855 0)
(0.035436 0.00775775 0)
(0.0321681 0.0075056 0)
(0.0289078 0.00716062 0)
(0.0257144 0.00674977 0)
(0.0226345 0.0062975 0)
(0.0197028 0.00582496 0)
(0.0169431 0.00534941 0)
(0.0143698 0.00488355 0)
(0.01199 0.00443492 0)
(0.00980611 0.00400513 0)
(0.00781821 0.00358941 0)
(0.00602729 0.00317654 0)
(0.00443773 0.00274989 0)
(0.00305939 0.00229048 0)
(0.00190839 0.00178282 0)
(0.00100107 0.00122541 0)
(0.000379756 0.000645896 0)
(3.94038e-05 0.000146184 0)
(6.31299e-05 -0.000537974 0)
(0.000570366 -0.00161253 0)
(0.00141959 -0.00258159 0)
(0.00257034 -0.00334885 0)
(0.00390382 -0.00386999 0)
(0.0053375 -0.00413244 0)
(0.00678561 -0.00414872 0)
(0.00817131 -0.00394955 0)
(0.00943065 -0.00357748 0)
(0.0105147 -0.0030809 0)
(0.0113898 -0.00250885 0)
(0.0120372 -0.00190653 0)
(0.0124503 -0.00131176 0)
(0.0126325 -0.000752683 0)
(0.0125931 -0.000246403 0)
(0.012344 0.000201194 0)
(0.0118963 0.000594702 0)
(0.0112569 0.000947652 0)
(0.0104261 0.00128023 0)
(0.00939611 0.00161665 0)
(0.0081504 0.00198234 0)
(0.00666385 0.00240139 0)
(0.00490401 0.00289451 0)
(0.00283269 0.00347775 0)
(0.000407842 0.00416216 0)
(-0.00241447 0.00495408 0)
(-0.00567839 0.00585592 0)
(-0.00942661 0.00686706 0)
(-0.0136989 0.00798453 0)
(-0.0185308 0.00920322 0)
(-0.0239515 0.0105158 0)
(-0.0299826 0.0119122 0)
(-0.0366359 0.0133792 0)
(-0.0439117 0.0148999 0)
(-0.0517971 0.0164537 0)
(-0.0602646 0.018016 0)
(-0.0692716 0.019559 0)
(-0.0787603 0.021052 0)
(-0.0886586 0.0224629 0)
(-0.0988814 0.0237587 0)
(-0.109333 0.0249072 0)
(-0.119911 0.0258781 0)
(-0.130507 0.0266442 0)
(-0.141012 0.0271823 0)
(-0.151322 0.027474 0)
(-0.161333 0.027506 0)
(-0.170952 0.0272702 0)
(-0.180093 0.0267635 0)
(-0.188682 0.0259875 0)
(-0.196653 0.0249477 0)
(-0.203951 0.0236531 0)
(-0.210529 0.0221154 0)
(-0.216351 0.0203481 0)
(-0.221388 0.0183665 0)
(-0.225616 0.0161868 0)
(-0.229017 0.0138257 0)
(-0.23158 0.0113009 0)
(-0.233295 0.00862997 0)
(-0.234156 0.00583126 0)
(-0.234158 0.00292347 0)
(-0.233302 -7.38649e-05 0)
(-0.231586 -0.00314023 0)
(-0.229014 -0.00625416 0)
(-0.22559 -0.00939285 0)
(-0.221321 -0.012531 0)
(-0.216217 -0.0156416 0)
(-0.210292 -0.0186957 0)
(-0.203562 -0.0216618 0)
(-0.196051 -0.0245066 0)
(-0.187786 -0.0271946 0)
(-0.178802 -0.029689 0)
(-0.169142 -0.0319517 0)
(-0.158857 -0.0339449 0)
(-0.148005 -0.0356313 0)
(-0.136656 -0.036976 0)
(-0.124888 -0.0379474 0)
(-0.112786 -0.0385186 0)
(-0.100447 -0.0386694 0)
(-0.0879723 -0.0383866 0)
(-0.0754707 -0.0376663 0)
(-0.0630543 -0.0365138 0)
(-0.0508372 -0.0349447 0)
(-0.038933 -0.0329846 0)
(-0.0274524 -0.0306691 0)
(-0.0165008 -0.0280423 0)
(-0.00617611 -0.0251562 0)
(0.00343296 -0.0220688 0)
(0.0122488 -0.0188424 0)
(0.0202062 -0.0155417 0)
(0.027253 -0.0122322 0)
(0.0333514 -0.0089777 0)
(0.038478 -0.00583941 0)
(0.0426246 -0.00287316 0)
(0.045799 -0.00012825 0)
(0.0480247 0.00235314 0)
(0.0493409 0.0045381 0)
(0.0498023 0.00640382 0)
(0.0494778 0.00793815 0)
(0.0484488 0.00913976 0)
(0.0468067 0.0100178 0)
(0.04465 0.010591 0)
(0.0420802 0.0108861 0)
(0.0391986 0.0109362 0)
(0.036102 0.0107785 0)
(0.0328802 0.0104519 0)
(0.0296127 0.00999553 0)
(0.0263674 0.00944632 0)
(0.0231997 0.00883776 0)
(0.0201527 0.0081984 0)
(0.0172581 0.00755062 0)
(0.0145376 0.0069094 0)
(0.0120057 0.0062812 0)
(0.0096721 0.00566312 0)
(0.00754481 0.00504291 0)
(0.00563337 0.00440021 0)
(0.00395165 0.00371031 0)
(0.00252018 0.00295093 0)
(0.00136042 0.00211361 0)
(0.000537788 0.00121895 0)
(5.91453e-05 0.000357322 0)
(7.28507e-05 -0.00082464 0)
(0.000653449 -0.00235088 0)
(0.00161138 -0.00366129 0)
(0.00289067 -0.00466804 0)
(0.00434835 -0.00532942 0)
(0.00588882 -0.00563767 0)
(0.00741643 -0.00561408 0)
(0.00884804 -0.00530189 0)
(0.0101161 -0.00475876 0)
(0.0111701 -0.0040492 0)
(0.0119759 -0.0032378 0)
(0.0125145 -0.00238349 0)
(0.0127788 -0.00153502 0)
(0.0127708 -0.000728039 0)
(0.0124973 1.65817e-05 0)
(0.0119661 0.0006929 0)
(0.0111824 0.00130886 0)
(0.0101458 0.00188412 0)
(0.00884782 0.00244696 0)
(0.00727081 0.00303067 0)
(0.00538762 0.00366969 0)
(0.00316251 0.00439615 0)
(0.000552789 0.00523714 0)
(-0.00248898 0.00621306 0)
(-0.00601261 0.00733714 0)
(-0.0100679 0.00861585 0)
(-0.0147025 0.0100499 0)
(-0.0199597 0.011635 0)
(-0.0258762 0.0133629 0)
(-0.0324803 0.0152211 0)
(-0.0397891 0.017193 0)
(-0.0478062 0.0192571 0)
(-0.05652 0.0213867 0)
(-0.0659014 0.0235495 0)
(-0.0759032 0.0257086 0)
(-0.08646 0.0278226 0)
(-0.0974889 0.0298472 0)
(-0.108892 0.0317368 0)
(-0.12056 0.0334464 0)
(-0.132375 0.0349333 0)
(-0.144214 0.0361596 0)
(-0.155958 0.0370926 0)
(-0.16749 0.037707 0)
(-0.178702 0.0379848 0)
(-0.189498 0.0379154 0)
(-0.199792 0.0374956 0)
(-0.209511 0.0367284 0)
(-0.218598 0.0356224 0)
(-0.227005 0.0341906 0)
(-0.234695 0.0324492 0)
(-0.241642 0.0304167 0)
(-0.247824 0.0281131 0)
(-0.253229 0.025559 0)
(-0.257847 0.0227752 0)
(-0.261672 0.0197823 0)
(-0.264701 0.0166005 0)
(-0.26693 0.0132496 0)
(-0.268358 0.00974918 0)
(-0.268983 0.00611865 0)
(-0.268803 0.00237762 0)
(-0.267816 -0.0014537 0)
(-0.26602 -0.00535406 0)
(-0.263413 -0.00930082 0)
(-0.259993 -0.0132696 0)
(-0.255759 -0.0172335 0)
(-0.250713 -0.0211633 0)
(-0.244857 -0.0250265 0)
(-0.238198 -0.0287879 0)
(-0.230746 -0.0324088 0)
(-0.222517 -0.0358479 0)
(-0.213532 -0.0390613 0)
(-0.203822 -0.0420031 0)
(-0.193423 -0.0446267 0)
(-0.182382 -0.0468854 0)
(-0.170757 -0.0487344 0)
(-0.158615 -0.0501321 0)
(-0.146035 -0.0510421 0)
(-0.133106 -0.0514351 0)
(-0.119927 -0.0512904 0)
(-0.106603 -0.0505977 0)
(-0.0932501 -0.0493585 0)
(-0.0799841 -0.0475868 0)
(-0.0669246 -0.0453089 0)
(-0.0541893 -0.0425639 0)
(-0.0418915 -0.0394019 0)
(-0.0301382 -0.0358829 0)
(-0.0190269 -0.0320749 0)
(-0.00864454 -0.0280516 0)
(0.000934055 -0.0238901 0)
(0.00964676 -0.0196687 0)
(0.0174445 -0.0154648 0)
(0.0242912 -0.0113533 0)
(0.0301641 -0.00740421 0)
(0.0350533 -0.00368176 0)
(0.0389628 -0.000242776 0)
(0.04191 0.0028648 0)
(0.0439266 0.00560322 0)
(0.0450584 0.00794604 0)
(0.0453655 0.00987897 0)
(0.0449209 0.0114003 0)
(0.0438088 0.0125209 0)
(0.0421223 0.0132629 0)
(0.03996 0.0136587 0)
(0.0374223 0.0137485 0)
(0.0346073 0.0135778 0)
(0.031608 0.0131949 0)
(0.0285086 0.012648 0)
(0.0253826 0.0119828 0)
(0.0222918 0.0112401 0)
(0.019286 0.0104538 0)
(0.016404 0.00964837 0)
(0.0136749 0.00883772 0)
(0.0111208 0.00802339 0)
(0.00875996 0.00719437 0)
(0.00660995 0.00632829 0)
(0.00469155 0.00539521 0)
(0.00303258 0.00436451 0)
(0.00166252 0.00321593 0)
(0.000670231 0.00195361 0)
(7.55336e-05 0.000640079 0)
(8.03483e-05 -0.00114625 0)
(0.000717576 -0.00317139 0)
(0.00175797 -0.00484686 0)
(0.00313022 -0.00609514 0)
(0.00466859 -0.00688181 0)
(0.00626389 -0.00720877 0)
(0.00781063 -0.00711034 0)
(0.00922 -0.00664583 0)
(0.0104221 -0.00589054 0)
(0.0113662 -0.00492671 0)
(0.0120193 -0.00383515 0)
(0.0123633 -0.00268831 0)
(0.0123915 -0.00154499 0)
(0.0121044 -0.000446881 0)
(0.0115057 0.000583133 0)
(0.0105975 0.00154098 0)
(0.0093775 0.00243983 0)
(0.00783561 0.00330714 0)
(0.00595225 0.00418057 0)
(0.00369776 0.00510319 0)
(0.00103294 0.00611854 0)
(-0.00208925 0.00726616 0)
(-0.00572122 0.00857824 0)
(-0.00991785 0.0100777 0)
(-0.0147335 0.0117774 0)
(-0.0202192 0.0136813 0)
(-0.0264195 0.0157847 0)
(-0.0333703 0.0180758 0)
(-0.0410956 0.0205362 0)
(-0.0496048 0.0231407 0)
(-0.0588902 0.0258574 0)
(-0.0689245 0.0286472 0)
(-0.0796594 0.0314642 0)
(-0.0910252 0.0342565 0)
(-0.102932 0.0369673 0)
(-0.115272 0.0395377 0)
(-0.127924 0.0419084 0)
(-0.140756 0.044023 0)
(-0.153635 0.0458304 0)
(-0.166427 0.047287 0)
(-0.179008 0.0483584 0)
(-0.191263 0.0490202 0)
(-0.203092 0.0492582 0)
(-0.21441 0.0490677 0)
(-0.225148 0.0484526 0)
(-0.235252 0.047424 0)
(-0.244681 0.0459985 0)
(-0.253408 0.0441967 0)
(-0.261413 0.0420419 0)
(-0.268685 0.0395589 0)
(-0.275219 0.0367728 0)
(-0.281011 0.0337082 0)
(-0.286063 0.0303893 0)
(-0.290375 0.0268388 0)
(-0.29395 0.0230783 0)
(-0.296787 0.0191283 0)
(-0.298886 0.0150083 0)
(-0.300248 0.0107372 0)
(-0.300868 0.00633354 0)
(-0.300743 0.001816 0)
(-0.299867 -0.00279602 0)
(-0.298233 -0.00748196 0)
(-0.295835 -0.0122195 0)
(-0.292664 -0.0169839 0)
(-0.288712 -0.0217478 0)
(-0.283971 -0.0264803 0)
(-0.278434 -0.0311469 0)
(-0.272097 -0.0357091 0)
(-0.264959 -0.0401244 0)
(-0.257022 -0.0443459 0)
(-0.248294 -0.0483233 0)
(-0.238789 -0.052003 0)
(-0.22853 -0.0553293 0)
(-0.217549 -0.0582456 0)
(-0.20589 -0.0606961 0)
(-0.193607 -0.0626278 0)
(-0.180768 -0.0639924 0)
(-0.167453 -0.0647491 0)
(-0.153755 -0.0648669 0)
(-0.139778 -0.0643263 0)
(-0.125638 -0.0631219 0)
(-0.111456 -0.0612633 0)
(-0.0973607 -0.0587756 0)
(-0.0834789 -0.0556995 0)
(-0.069937 -0.0520903 0)
(-0.0568549 -0.0480159 0)
(-0.0443435 -0.0435544 0)
(-0.0325019 -0.0387914 0)
(-0.021416 -0.033817 0)
(-0.011157 -0.0287229 0)
(-0.00178229 -0.0235998 0)
(0.00666491 -0.0185353 0)
(0.0141541 -0.013612 0)
(0.020667 -0.00890658 0)
(0.0261966 -0.00448791 0)
(0.0307471 -0.000416556 0)
(0.034334 0.00325664 0)
(0.0369847 0.00649178 0)
(0.0387391 0.00926106 0)
(0.0396499 0.0115498 0)
(0.0397825 0.0133573 0)
(0.0392137 0.0146964 0)
(0.0380301 0.0155931 0)
(0.0363253 0.0160848 0)
(0.0341963 0.0162183 0)
(0.0317397 0.0160463 0)
(0.0290487 0.015625 0)
(0.026209 0.0150098 0)
(0.0232975 0.0142531 0)
(0.02038 0.0134 0)
(0.0175116 0.0124862 0)
(0.0147368 0.0115343 0)
(0.0120919 0.0105526 0)
(0.00960733 0.00953325 0)
(0.00731131 0.00845357 0)
(0.00523411 0.00727892 0)
(0.00341323 0.00596911 0)
(0.00188817 0.00448826 0)
(0.000768981 0.00281711 0)
(8.76471e-05 0.000979519 0)
(8.65132e-05 -0.00149549 0)
(0.000768399 -0.00405481 0)
(0.00186929 -0.00610923 0)
(0.00330234 -0.00759224 0)
(0.00488019 -0.0084806 0)
(0.00648017 -0.00879061 0)
(0.00798749 -0.00857432 0)
(0.00930857 -0.00791106 0)
(0.0103724 -0.00689675 0)
(0.0111295 -0.00563302 0)
(0.011549 -0.00421739 0)
(0.0116149 -0.00273522 0)
(0.0113208 -0.00125383 0)
(0.0106659 0.000181127 0)
(0.00964934 0.00154721 0)
(0.0082665 0.0028447 0)
(0.00650534 0.00409427 0)
(0.00434412 0.00533296 0)
(0.00175033 0.00660883 0)
(-0.00131888 0.0079749 0)
(-0.00491503 0.00948293 0)
(-0.00909544 0.0111781 0)
(-0.0139198 0.013095 0)
(-0.0194463 0.0152556 0)
(-0.0257281 0.0176687 0)
(-0.0328097 0.0203307 0)
(-0.0407239 0.0232267 0)
(-0.0494878 0.0263316 0)
(-0.0591007 0.0296102 0)
(-0.0695402 0.0330185 0)
(-0.0807612 0.0365029 0)
(-0.0926939 0.0400017 0)
(-0.105245 0.0434465 0)
(-0.118301 0.0467643 0)
(-0.13173 0.049881 0)
(-0.145391 0.0527245 0)
(-0.159137 0.0552288 0)
(-0.172824 0.0573366 0)
(-0.186315 0.0590021 0)
(-0.199489 0.0601918 0)
(-0.21224 0.0608857 0)
(-0.22448 0.0610756 0)
(-0.236141 0.0607648 0)
(-0.247171 0.0599656 0)
(-0.257535 0.0586973 0)
(-0.267209 0.0569844 0)
(-0.276182 0.0548546 0)
(-0.284447 0.0523374 0)
(-0.292005 0.0494623 0)
(-0.29886 0.0462584 0)
(-0.305016 0.0427534 0)
(-0.310481 0.0389736 0)
(-0.31526 0.0349431 0)
(-0.319358 0.0306842 0)
(-0.322779 0.0262176 0)
(-0.325525 0.0215624 0)
(-0.327596 0.0167364 0)
(-0.328992 0.0117568 0)
(-0.329708 0.00664047 0)
(-0.32974 0.00140442 0)
(-0.329081 -0.00393355 0)
(-0.327721 -0.00935428 0)
(-0.32565 -0.0148366 0)
(-0.322856 -0.0203568 0)
(-0.319326 -0.0258877 0)
(-0.315044 -0.0313985 0)
(-0.309996 -0.0368537 0)
(-0.304167 -0.0422132 0)
(-0.297545 -0.0474315 0)
(-0.290118 -0.0524581 0)
(-0.28188 -0.0572372 0)
(-0.272827 -0.0617084 0)
(-0.262966 -0.0658076 0)
(-0.252309 -0.0694681 0)
(-0.240882 -0.0726224 0)
(-0.22872 -0.0752048 0)
(-0.215874 -0.077153 0)
(-0.202411 -0.0784122 0)
(-0.188413 -0.0789369 0)
(-0.173978 -0.0786949 0)
(-0.159218 -0.0776695 0)
(-0.144258 -0.0758615 0)
(-0.129235 -0.0732911 0)
(-0.114288 -0.0699976 0)
(-0.0995616 -0.0660393 0)
(-0.0851938 -0.0614908 0)
(-0.0713163 -0.056441 0)
(-0.0580482 -0.0509887 0)
(-0.0454934 -0.0452393 0)
(-0.0337384 -0.0393001 0)
(-0.0228521 -0.0332776 0)
(-0.012886 -0.027274 0)
(-0.00387577 -0.021385 0)
(0.00415649 -0.015699 0)
(0.0112005 -0.0102957 0)
(0.0172559 -0.0052456 0)
(0.0223316 -0.000609722 0)
(0.0264453 0.0035614 0)
(0.029624 0.00722859 0)
(0.031905 0.0103652 0)
(0.0333365 0.0129584 0)
(0.0339783 0.0150095 0)
(0.033901 0.0165348 0)
(0.0331853 0.0175645 0)
(0.0319192 0.0181409 0)
(0.0301954 0.0183166 0)
(0.0281075 0.0181506 0)
(0.0257469 0.0177047 0)
(0.0231992 0.0170398 0)
(0.0205423 0.0162112 0)
(0.0178446 0.0152647 0)
(0.0151652 0.0142328 0)
(0.0125541 0.0131312 0)
(0.0100549 0.0119569 0)
(0.00770811 0.0106881 0)
(0.00555514 0.00928593 0)
(0.0036447 0.00770011 0)
(0.0020272 0.00587688 0)
(0.000829885 0.00376965 0)
(9.50351e-05 0.00135794 0)
(9.18655e-05 -0.00186749 0)
(0.000809228 -0.00498573 0)
(0.001951 -0.00742239 0)
(0.00341407 -0.00912328 0)
(0.00499041 -0.0100802 0)
(0.00654452 -0.0103286 0)
(0.00795343 -0.00994356 0)
(0.00912022 -0.00902852 0)
(0.00997425 -0.00770309 0)
(0.0104687 -0.00608988 0)
(0.0105758 -0.00430323 0)
(0.0102819 -0.00244027 0)
(0.00958131 -0.000574741 0)
(0.00847045 0.00124651 0)
(0.00694303 0.00300447 0)
(0.00498565 0.00470668 0)
(0.00257487 0.00638368 0)
(-0.000324306 0.00808361 0)
(-0.00375821 0.00986538 0)
(-0.00778274 0.0117911 0)
(-0.0124601 0.0139185 0)
(-0.0178547 0.016295 0)
(-0.0240285 0.0189534 0)
(-0.0310361 0.0219095 0)
(-0.038921 0.0251622 0)
(-0.0477111 0.0286943 0)
(-0.0574154 0.0324738 0)
(-0.0680203 0.0364551 0)
(-0.0794876 0.0405803 0)
(-0.091752 0.04478 0)
(-0.104722 0.0489753 0)
(-0.118281 0.0530802 0)
(-0.132293 0.0570052 0)
(-0.146606 0.0606617 0)
(-0.161063 0.0639663 0)
(-0.175507 0.0668454 0)
(-0.18979 0.0692382 0)
(-0.203778 0.0710991 0)
(-0.217357 0.0723987 0)
(-0.230433 0.0731227 0)
(-0.242934 0.0732711 0)
(-0.254808 0.0728554 0)
(-0.266018 0.0718962 0)
(-0.276546 0.0704208 0)
(-0.28638 0.0684608 0)
(-0.295519 0.0660498 0)
(-0.303968 0.063222 0)
(-0.311735 0.0600112 0)
(-0.318828 0.0564495 0)
(-0.32526 0.0525672 0)
(-0.331039 0.0483922 0)
(-0.336177 0.04395 0)
(-0.340681 0.039264 0)
(-0.34456 0.0343551 0)
(-0.34782 0.0292423 0)
(-0.350465 0.0239431 0)
(-0.352499 0.0184735 0)
(-0.353922 0.0128488 0)
(-0.354733 0.00708369 0)
(-0.354929 0.00119312 0)
(-0.354504 -0.00480728 0)
(-0.353449 -0.0109006 0)
(-0.351754 -0.0170677 0)
(-0.349404 -0.0232871 0)
(-0.346382 -0.0295334 0)
(-0.342671 -0.0357772 0)
(-0.338247 -0.0419843 0)
(-0.333089 -0.0481146 0)
(-0.327172 -0.0541222 0)
(-0.320472 -0.0599545 0)
(-0.312965 -0.0655526 0)
(-0.304631 -0.070851 0)
(-0.295456 -0.0757787 0)
(-0.28543 -0.0802599 0)
(-0.274554 -0.084216 0)
(-0.262842 -0.0875676 0)
(-0.250319 -0.0902372 0)
(-0.23703 -0.0921529 0)
(-0.223037 -0.0932517 0)
(-0.208424 -0.0934834 0)
(-0.193294 -0.0928144 0)
(-0.177767 -0.091231 0)
(-0.161984 -0.0887421 0)
(-0.146097 -0.08538 0)
(-0.130266 -0.0812012 0)
(-0.114653 -0.0762842 0)
(-0.0994181 -0.0707267 0)
(-0.0847093 -0.0646417 0)
(-0.0706596 -0.0581517 0)
(-0.0573818 -0.051384 0)
(-0.0449665 -0.044465 0)
(-0.0334814 -0.037516 0)
(-0.0229729 -0.0306502 0)
(-0.0134679 -0.0239702 0)
(-0.0049781 -0.0175676 0)
(0.00249712 -0.0115227 0)
(0.00896773 -0.00590449 0)
(0.014451 -0.000771284 0)
(0.0189707 0.00382972 0)
(0.0225573 0.00786293 0)
(0.0252491 0.0113055 0)
(0.027093 0.0141482 0)
(0.0281457 0.0163967 0)
(0.0284739 0.0180715 0)
(0.0281533 0.0192075 0)
(0.0272673 0.0198524 0)
(0.0259042 0.0200637 0)
(0.0241541 0.0199051 0)
(0.0221058 0.0194422 0)
(0.0198437 0.0187376 0)
(0.0174458 0.0178458 0)
(0.0149824 0.0168077 0)
(0.0125162 0.0156469 0)
(0.0101033 0.0143656 0)
(0.0077967 0.0129433 0)
(0.00564986 0.0113379 0)
(0.00372297 0.0094888 0)
(0.00207723 0.00732394 0)
(0.000852105 0.00476837 0)
(9.76369e-05 0.00175648 0)
(9.65743e-05 -0.00225856 0)
(0.000840979 -0.00595035 0)
(0.0020041 -0.00876124 0)
(0.00346558 -0.010652 0)
(0.00499767 -0.0116338 0)
(0.00645331 -0.0117672 0)
(0.00770311 -0.0111549 0)
(0.00864872 -0.00992918 0)
(0.00922164 -0.00823624 0)
(0.00937892 -0.0062208 0)
(0.00909685 -0.00401358 0)
(0.00836403 -0.00172167 0)
(0.00717436 0.000577571 0)
(0.00552066 0.00283938 0)
(0.00338929 0.00505158 0)
(0.000756314 0.00723189 0)
(-0.0024146 0.00942283 0)
(-0.00617238 0.0116845 0)
(-0.0105767 0.0140858 0)
(-0.0156944 0.0166957 0)
(-0.0215945 0.019574 0)
(-0.0283424 0.0227652 0)
(-0.0359946 0.0262937 0)
(-0.0445928 0.0301626 0)
(-0.0541597 0.0343535 0)
(-0.0646948 0.0388281 0)
(-0.076171 0.04353 0)
(-0.0885327 0.0483868 0)
(-0.101695 0.0533125 0)
(-0.115544 0.05821 0)
(-0.129942 0.0629755 0)
(-0.144732 0.0675035 0)
(-0.159746 0.0716917 0)
(-0.174815 0.075447 0)
(-0.189777 0.0786904 0)
(-0.204484 0.0813598 0)
(-0.218809 0.083412 0)
(-0.232646 0.0848228 0)
(-0.245916 0.0855852 0)
(-0.258559 0.0857071 0)
(-0.270538 0.0852084 0)
(-0.28183 0.0841174 0)
(-0.292425 0.0824683 0)
(-0.302322 0.0802985 0)
(-0.311528 0.0776467 0)
(-0.320052 0.0745515 0)
(-0.327908 0.07105 0)
(-0.335109 0.0671774 0)
(-0.34167 0.0629665 0)
(-0.347606 0.0584475 0)
(-0.352932 0.0536478 0)
(-0.357661 0.0485923 0)
(-0.361807 0.043303 0)
(-0.365383 0.0377999 0)
(-0.368398 0.0321006 0)
(-0.370863 0.0262207 0)
(-0.372785 0.0201746 0)
(-0.37417 0.0139753 0)
(-0.375022 0.00763531 0)