/*--------------------------------*- C++ -*----------------------------------*\
| =========                 |                                                 |
| \\      /  F ield         | OpenFOAM: The Open Source CFD Toolbox           |
|  \\    /   O peration     | Version:  2406                                  |
|   \\  /    A nd           | Website:  www.openfoam.com                      |
|    \\/     M anipulation  |                                                 |
\*---------------------------------------------------------------------------*/
FoamFile
{
    version     2.0;
    format      ascii;
    arch        "LSB;label=32;scalar=64";
    class       volVectorField;
    location    "12.5";
    object      U;
}
// * * * * * * * * * * * * * * * * * * * * * * * * * * * * * * * * * * * * * //

dimensions      [0 1 -1 0 0 0 0];

internalField   nonuniform List<vector> 
16384
(
(4.3306e-06 -4.29533e-06 0)
(1.61164e-05 -4.74259e-06 0)
(2.25293e-05 -3.12063e-06 0)
(1.85033e-05 -9.80676e-07 0)
(2.6258e-06 9.52429e-07 0)
(-2.41063e-05 2.54267e-06 0)
(-5.99245e-05 3.74549e-06 0)
(-0.000102924 4.57585e-06 0)
(-0.000151345 5.10405e-06 0)
(-0.000203674 5.40828e-06 0)
(-0.000258709 5.557e-06 0)
(-0.000315556 5.60654e-06 0)
(-0.000373591 5.60137e-06 0)
(-0.000432423 5.57505e-06 0)
(-0.000491842 5.55165e-06 0)
(-0.000551778 5.54738e-06 0)
(-0.00061226 5.5723e-06 0)
(-0.00067339 5.63182e-06 0)
(-0.000735308 5.728e-06 0)
(-0.000798179 5.8606e-06 0)
(-0.000862176 6.02778e-06 0)
(-0.000927468 6.22677e-06 0)
(-0.000994212 6.45426e-06 0)
(-0.00106255 6.70682e-06 0)
(-0.00113261 6.98101e-06 0)
(-0.00120448 7.2736e-06 0)
(-0.00127826 7.58147e-06 0)
(-0.001354 7.9017e-06 0)
(-0.00143174 8.2315e-06 0)
(-0.00151149 8.5682e-06 0)
(-0.00159325 8.90926e-06 0)
(-0.001677 9.25217e-06 0)
(-0.00176268 9.59444e-06 0)
(-0.00185023 9.93353e-06 0)
(-0.00193954 1.02668e-05 0)
(-0.00203052 1.05916e-05 0)
(-0.002123 1.0905e-05 0)
(-0.00221685 1.12041e-05 0)
(-0.00231186 1.14857e-05 0)
(-0.00240783 1.17463e-05 0)
(-0.00250452 1.19826e-05 0)
(-0.00260167 1.21905e-05 0)
(-0.00269899 1.2366e-05 0)
(-0.00279616 1.25049e-05 0)
(-0.00289284 1.26025e-05 0)
(-0.00298866 1.26541e-05 0)
(-0.00308322 1.26545e-05 0)
(-0.00317608 1.25984e-05 0)
(-0.00326679 1.24804e-05 0)
(-0.00335486 1.2295e-05 0)
(-0.00343978 1.20363e-05 0)
(-0.003521 1.16988e-05 0)
(-0.00359797 1.12768e-05 0)
(-0.00367009 1.07652e-05 0)
(-0.00373675 1.01588e-05 0)
(-0.00379733 9.45334e-06 0)
(-0.00385119 8.64496e-06 0)
(-0.00389769 7.73093e-06 0)
(-0.00393619 6.70979e-06 0)
(-0.00396606 5.58219e-06 0)
(-0.00398667 4.3518e-06 0)
(-0.00399745 3.02025e-06 0)
(-0.00399782 1.55537e-06 0)
(-0.00398724 1.25471e-09 0)
(-0.00396529 -1.63493e-06 0)
(-0.00393155 -3.34578e-06 0)
(-0.00388573 -5.12047e-06 0)
(-0.00382757 -6.94515e-06 0)
(-0.00375697 -8.8035e-06 0)
(-0.0036739 -1.06771e-05 0)
(-0.00357845 -1.25459e-05 0)
(-0.00347084 -1.43882e-05 0)
(-0.00335143 -1.61814e-05 0)
(-0.00322069 -1.79019e-05 0)
(-0.00307923 -1.95262e-05 0)
(-0.0029278 -2.10313e-05 0)
(-0.00276726 -2.23948e-05 0)
(-0.00259859 -2.35961e-05 0)
(-0.00242289 -2.46163e-05 0)
(-0.00224133 -2.54395e-05 0)
(-0.00205517 -2.60527e-05 0)
(-0.00186573 -2.64461e-05 0)
(-0.00167439 -2.66139e-05 0)
(-0.00148251 -2.65544e-05 0)
(-0.00129148 -2.62696e-05 0)
(-0.00110266 -2.57658e-05 0)
(-0.000917364 -2.5053e-05 0)
(-0.000736857 -2.41447e-05 0)
(-0.00056231 -2.30575e-05 0)
(-0.000394803 -2.18105e-05 0)
(-0.000235304 -2.04236e-05 0)
(-8.46439e-05 -1.89222e-05 0)
(5.64269e-05 -1.73468e-05 0)
(0.000187319 -1.56897e-05 0)
(0.00030761 -1.39877e-05 0)
(0.000416971 -1.22676e-05 0)
(0.000515208 -1.0549e-05 0)
(0.000602255 -8.85251e-06 0)
(0.000678158 -7.19487e-06 0)
(0.000743066 -5.59112e-06 0)
(0.000797218 -4.05385e-06 0)
(0.000840928 -2.59313e-06 0)
(0.000874576 -1.21637e-06 0)
(0.000898593 7.16445e-08 0)
(0.000913445 1.26897e-06 0)
(0.000919629 2.37504e-06 0)
(0.000917639 3.38724e-06 0)
(0.000907988 4.30444e-06 0)
(0.000891193 5.14165e-06 0)
(0.00086774 5.90099e-06 0)
(0.000838107 6.58761e-06 0)
(0.000802751 7.20785e-06 0)
(0.000762114 7.76816e-06 0)
(0.00071662 8.27458e-06 0)
(0.000666689 8.73206e-06 0)
(0.000612743 9.14353e-06 0)
(0.000555231 9.5085e-06 0)
(0.000494655 9.82116e-06 0)
(0.000431609 1.00674e-05 0)
(0.000366839 1.02201e-05 0)
(0.000301314 1.02332e-05 0)
(0.000236331 1.00314e-05 0)
(0.000173636 9.49802e-06 0)
(0.000115572 8.45929e-06 0)
(6.52019e-05 6.67145e-06 0)
(2.62708e-05 3.84357e-06 0)
(2.40938e-06 1.20371e-08 0)
(-3.16762e-06 -3.16546e-06 0)
(4.9105e-06 -1.62064e-05 0)
(1.57554e-05 -1.55621e-05 0)
(9.40267e-06 7.30667e-07 0)
(-2.2326e-05 2.23982e-05 0)
(-8.19583e-05 4.41255e-05 0)
(-0.000167691 6.34213e-05 0)
(-0.0002761 7.9334e-05 0)
(-0.00040312 9.17488e-05 0)
(-0.00054476 0.000101011 0)
(-0.000697472 0.000107654 0)
(-0.000858319 0.000112259 0)
(-0.00102501 0.000115374 0)
(-0.00119589 0.00011748 0)
(-0.0013698 0.000118974 0)
(-0.00154606 0.000120169 0)
(-0.00172435 0.000121303 0)
(-0.00190458 0.000122543 0)
(-0.00208689 0.000124001 0)
(-0.00227153 0.000125743 0)
(-0.00245881 0.000127802 0)
(-0.00264909 0.000130184 0)
(-0.00284274 0.000132876 0)
(-0.0030401 0.000135855 0)
(-0.00324148 0.000139087 0)
(-0.00344715 0.000142534 0)
(-0.00365733 0.000146157 0)
(-0.00387218 0.000149912 0)
(-0.00409181 0.000153757 0)
(-0.00431627 0.00015765 0)
(-0.00454555 0.000161547 0)
(-0.00477958 0.000165406 0)
(-0.00501823 0.000169183 0)
(-0.00526131 0.000172835 0)
(-0.00550858 0.000176318 0)
(-0.00575972 0.000179587 0)
(-0.00601435 0.000182598 0)
(-0.00627203 0.000185303 0)
(-0.00653227 0.000187656 0)
(-0.0067945 0.000189608 0)
(-0.00705808 0.00019111 0)
(-0.00732232 0.000192112 0)
(-0.00758645 0.000192561 0)
(-0.00784964 0.000192406 0)
(-0.008111 0.000191592 0)
(-0.00836955 0.000190066 0)
(-0.00862428 0.000187773 0)
(-0.00887407 0.000184657 0)
(-0.00911776 0.000180663 0)
(-0.00935414 0.000175737 0)
(-0.00958191 0.000169826 0)
(-0.00979972 0.000162878 0)
(-0.0100062 0.000154844 0)
(-0.0101999 0.000145681 0)
(-0.0103792 0.000135349 0)
(-0.0105428 0.000123816 0)
(-0.0106891 0.000111057 0)
(-0.0108164 9.70574e-05 0)
(-0.0109233 8.18133e-05 0)
(-0.0110082 6.53346e-05 0)
(-0.0110697 4.76448e-05 0)
(-0.0111062 2.87803e-05 0)
(-0.0111166 8.79777e-06 0)
(-0.0110995 -1.2153e-05 0)
(-0.0110536 -3.40419e-05 0)
(-0.0109781 -5.67531e-05 0)
(-0.0108722 -8.01386e-05 0)
(-0.0107353 -0.000104033 0)
(-0.0105669 -0.000128252 0)
(-0.010367 -0.000152594 0)
(-0.0101356 -0.00017684 0)
(-0.00987311 -0.000200757 0)
(-0.00958027 -0.000224104 0)
(-0.00925804 -0.000246629 0)
(-0.00890773 -0.000268081 0)
(-0.00853093 -0.000288207 0)
(-0.00812955 -0.000306765 0)
(-0.00770576 -0.000323524 0)
(-0.00726201 -0.00033827 0)
(-0.00680099 -0.000350811 0)
(-0.00632559 -0.000360984 0)
(-0.00583888 -0.000368657 0)
(-0.00534408 -0.000373732 0)
(-0.00484447 -0.00037615 0)
(-0.00434342 -0.000375891 0)
(-0.00384425 -0.000372976 0)
(-0.00335027 -0.000367466 0)
(-0.00286468 -0.00035946 0)
(-0.00239054 -0.000349094 0)
(-0.00193073 -0.000336536 0)
(-0.00148792 -0.000321983 0)
(-0.00106454 -0.000305655 0)
(-0.000662699 -0.000287792 0)
(-0.000284266 -0.000268665 0)
(6.92158e-05 -0.0002485 0)
(0.000396521 -0.000227561 0)
(0.000696736 -0.000206104 0)
(0.000969248 -0.00018437 0)
(0.00121374 -0.000162596 0)
(0.00143015 -0.000140985 0)
(0.0016187 -0.000119723 0)
(0.0017798 -9.89752e-05 0)
(0.00191407 -7.88783e-05 0)
(0.00202232 -5.95458e-05 0)
(0.00210545 -4.10652e-05 0)
(0.0021645 -2.35008e-05 0)
(0.00220058 -6.89737e-06 0)
(0.00221481 8.71863e-06 0)
(0.00220841 2.33861e-05 0)
(0.0021826 3.70861e-05 0)
(0.00213854 4.98408e-05 0)
(0.00207739 6.16827e-05 0)
(0.00200032 7.26447e-05 0)
(0.00190844 8.2755e-05 0)
(0.00180289 9.20306e-05 0)
(0.00168481 0.000100468 0)
(0.00155536 0.000108032 0)
(0.00141585 0.000114641 0)
(0.00126772 0.000120147 0)
(0.00111268 0.000124308 0)
(0.000952846 0.000126762 0)
(0.000790845 0.000126983 0)
(0.000630042 0.000124242 0)
(0.000474722 0.000117578 0)
(0.000330272 0.000105811 0)
(0.000203225 8.76845e-05 0)
(0.000101021 6.23725e-05 0)
(3.118e-05 3.11251e-05 0)
(1.075e-08 2.40566e-06 0)
(3.36067e-06 -2.28922e-05 0)
(-1.28608e-06 -9.20069e-06 0)
(-3.68274e-05 3.4749e-05 0)
(-0.00011029 8.94962e-05 0)
(-0.000223554 0.000144432 0)
(-0.000374178 0.000193952 0)
(-0.000557633 0.000235672 0)
(-0.000768545 0.000269109 0)
(-0.00100154 0.000294854 0)
(-0.00125173 0.000314019 0)
(-0.00151498 0.000327909 0)
(-0.00178798 0.000337817 0)
(-0.00206823 0.000344916 0)
(-0.00235398 0.000350206 0)
(-0.0026441 0.000354496 0)
(-0.00293795 0.00035841 0)
(-0.00323529 0.000362405 0)
(-0.00353618 0.000366799 0)
(-0.00384086 0.000371789 0)
(-0.0041497 0.000377482 0)
(-0.00446312 0.000383915 0)
(-0.00478158 0.000391071 0)
(-0.0051055 0.0003989 0)
(-0.00543526 0.000407322 0)
(-0.00577121 0.000416242 0)
(-0.00611358 0.000425556 0)
(-0.00646256 0.000435151 0)
(-0.00681824 0.000444913 0)
(-0.00718062 0.000454723 0)
(-0.00754961 0.000464462 0)
(-0.00792503 0.00047401 0)
(-0.0083066 0.000483246 0)
(-0.00869395 0.000492047 0)
(-0.00908662 0.000500291 0)
(-0.00948404 0.000507852 0)
(-0.00988555 0.000514604 0)
(-0.0102904 0.00052042 0)
(-0.0106977 0.000525169 0)
(-0.0111066 0.000528722 0)
(-0.0115159 0.000530945 0)
(-0.0119246 0.000531705 0)
(-0.0123314 0.000530868 0)
(-0.012735 0.000528298 0)
(-0.0131339 0.00052386 0)
(-0.0135266 0.000517416 0)
(-0.0139115 0.000508834 0)
(-0.014287 0.000497977 0)
(-0.0146512 0.000484717 0)
(-0.0150024 0.000468924 0)
(-0.0153385 0.000450478 0)
(-0.0156575 0.000429264 0)
(-0.0159575 0.000405177 0)
(-0.0162363 0.000378125 0)
(-0.0164918 0.000348031 0)
(-0.0167218 0.000314836 0)
(-0.0169242 0.000278503 0)
(-0.0170966 0.000239022 0)
(-0.0172371 0.000196413 0)
(-0.0173435 0.000150728 0)
(-0.0174138 0.000102057 0)
(-0.0174461 5.05265e-05 0)
(-0.0174386 -3.69062e-06 0)
(-0.0173895 -6.02554e-05 0)
(-0.0172977 -0.000118998 0)
(-0.0171617 -0.000179602 0)
(-0.0169807 -0.000241687 0)
(-0.016754 -0.000304821 0)
(-0.0164812 -0.000368532 0)
(-0.0161623 -0.000432304 0)
(-0.0157977 -0.000495586 0)
(-0.0153882 -0.000557795 0)
(-0.0149348 -0.000618326 0)
(-0.0144393 -0.00067656 0)
(-0.0139034 -0.000731877 0)
(-0.0133298 -0.000783663 0)
(-0.012721 -0.000831326 0)
(-0.0120804 -0.000874304 0)
(-0.0114114 -0.000912081 0)
(-0.0107179 -0.000944196 0)
(-0.010004 -0.000970256 0)
(-0.00927412 -0.000989942 0)
(-0.00853271 -0.00100302 0)
(-0.00778445 -0.00100935 0)
(-0.00703408 -0.00100889 0)
(-0.00628631 -0.00100168 0)
(-0.0055458 -0.000987872 0)
(-0.00481707 -0.000967703 0)
(-0.00410448 -0.000941499 0)
(-0.00341212 -0.000909668 0)
(-0.00274382 -0.000872685 0)
(-0.00210305 -0.000831087 0)
(-0.00149292 -0.000785456 0)
(-0.000916154 -0.000736411 0)
(-0.000375043 -0.00068458 0)
(0.000128538 -0.000630599 0)
(0.000593146 -0.000575083 0)
(0.00101775 -0.000518625 0)
(0.00140174 -0.000461846 0)
(0.00174489 -0.000405253 0)
(0.00204732 -0.000349324 0)
(0.00230947 -0.000294486 0)
(0.00253207 -0.000241103 0)
(0.00271608 -0.000189482 0)
(0.00286268 -0.000139864 0)
(0.00297322 -9.24358e-05 0)
(0.00304915 -4.73282e-05 0)
(0.00309207 -4.61822e-06 0)
(0.00310358 3.56949e-05 0)
(0.00308529 7.35813e-05 0)
(0.0030389 0.000109069 0)
(0.00296606 0.000142205 0)
(0.00286844 0.000173034 0)
(0.00274768 0.00020159 0)
(0.00260547 0.00022787 0)
(0.00244353 0.00025182 0)
(0.00226369 0.000273297 0)
(0.00206795 0.00029204 0)
(0.00185859 0.000307618 0)
(0.00163829 0.000319384 0)
(0.00141024 0.000326407 0)
(0.00117842 0.000327409 0)
(0.000947688 0.000320709 0)
(0.000724059 0.000304221 0)
(0.00051479 0.000275559 0)
(0.000328353 0.000232417 0)
(0.000174204 0.000173524 0)
(6.27265e-05 0.000101047 0)
(3.86529e-06 2.63302e-05 0)
(1.07232e-06 -1.83248e-05 0)
(-2.60582e-05 2.49614e-05 0)
(-9.99107e-05 0.000109789 0)
(-0.000224231 0.000209348 0)
(-0.000398549 0.000308033 0)
(-0.000619157 0.000397307 0)
(-0.000880447 0.000473295 0)
(-0.00117603 0.00053508 0)
(-0.00149958 0.000583496 0)
(-0.00184529 0.000620311 0)
(-0.0022082 0.000647671 0)
(-0.0025843 0.000667761 0)
(-0.00297049 0.000682603 0)
(-0.00336452 0.000693949 0)
(-0.00376491 0.000703238 0)
(-0.00417075 0.000711602 0)
(-0.00458162 0.000719881 0)
(-0.00499745 0.000728668 0)
(-0.00541843 0.000738347 0)
(-0.0058449 0.000749134 0)
(-0.00627727 0.000761115 0)
(-0.00671601 0.000774278 0)
(-0.00716153 0.000788539 0)
(-0.00761424 0.000803764 0)
(-0.00807444 0.000819784 0)
(-0.00854237 0.000836409 0)
(-0.00901814 0.000853431 0)
(-0.00950177 0.000870634 0)
(-0.00999317 0.000887797 0)
(-0.0104921 0.000904692 0)
(-0.0109982 0.00092109 0)
(-0.0115111 0.00093676 0)
(-0.0120301 0.000951469 0)
(-0.0125546 0.00096498 0)
(-0.0130837 0.000977057 0)
(-0.0136164 0.000987461 0)
(-0.0141516 0.000995952 0)
(-0.0146882 0.00100229 0)
(-0.0152248 0.00100623 0)
(-0.0157599 0.00100754 0)
(-0.0162921 0.00100596 0)
(-0.0168195 0.00100127 0)
(-0.0173405 0.000993216 0)
(-0.0178532 0.000981569 0)
(-0.0183554 0.000966094 0)
(-0.0188453 0.00094656 0)
(-0.0193205 0.000922745 0)
(-0.0197788 0.000894432 0)
(-0.0202179 0.000861416 0)
(-0.0206354 0.000823503 0)
(-0.0210288 0.000780517 0)
(-0.0213955 0.000732299 0)
(-0.021733 0.000678716 0)
(-0.0220388 0.000619666 0)
(-0.0223102 0.00055508 0)
(-0.0225446 0.000484929 0)
(-0.0227395 0.000409233 0)
(-0.0228924 0.000328067 0)
(-0.023001 0.000241564 0)
(-0.0230628 0.000149927 0)
(-0.0230757 5.3436e-05 0)
(-0.0230378 -4.75752e-05 0)
(-0.0229473 -0.000152676 0)
(-0.0228026 -0.000261331 0)
(-0.0226025 -0.000372948 0)
(-0.022346 -0.000486847 0)
(-0.0220326 -0.000602263 0)
(-0.0216621 -0.000718354 0)
(-0.0212347 -0.000834208 0)
(-0.020751 -0.00094885 0)
(-0.0202122 -0.00106126 0)
(-0.0196197 -0.00117038 0)
(-0.0189757 -0.00127515 0)
(-0.0182827 -0.00137447 0)
(-0.0175437 -0.0014673 0)
(-0.0167622 -0.00155261 0)
(-0.0159421 -0.00162944 0)
(-0.0150876 -0.00169691 0)
(-0.0142036 -0.00175423 0)
(-0.0132949 -0.00180073 0)
(-0.0123668 -0.00183586 0)
(-0.0114249 -0.00185922 0)
(-0.0104747 -0.00187059 0)
(-0.00952197 -0.00186986 0)
(-0.00857233 -0.00185714 0)
(-0.00763143 -0.00183266 0)
(-0.00670473 -0.00179684 0)
(-0.00579751 -0.00175024 0)
(-0.00491475 -0.00169355 0)
(-0.00406113 -0.00162758 0)
(-0.0032409 -0.00155327 0)
(-0.00245791 -0.00147162 0)
(-0.00171556 -0.00138369 0)
(-0.00101672 -0.00129057 0)
(-0.000363782 -0.00119339 0)
(0.000241375 -0.00109324 0)
(0.000797312 -0.00099109 0)
(0.00130313 -0.000888119 0)
(0.00175845 -0.000785191 0)
(0.00216322 -0.000683165 0)
(0.00251782 -0.000582812 0)
(0.00282299 -0.0004848 0)
(0.00307974 -0.000389691 0)
(0.00328939 -0.000297941 0)
(0.00345342 -0.000209903 0)
(0.00357352 -0.000125832 0)
(0.00365149 -4.58948e-05 0)
(0.00368921 2.97943e-05 0)
(0.00368863 0.000101222 0)
(0.00365173 0.000168398 0)
(0.00358051 0.000231356 0)
(0.00347701 0.000290133 0)
(0.00334326 0.000344736 0)
(0.00318138 0.000395109 0)
(0.00299354 0.000441096 0)
(0.0027821 0.000482384 0)
(0.00254964 0.00051845 0)
(0.00229909 0.000548481 0)
(0.00203388 0.000571299 0)
(0.00175807 0.000585267 0)
(0.00147657 0.000588208 0)
(0.00119529 0.000577353 0)
(0.00092139 0.000549372 0)
(0.000663304 0.000500582 0)
(0.000430761 0.000427502 0)
(0.000234801 0.000328025 0)
(8.86999e-05 0.000203901 0)
(6.74389e-06 6.55686e-05 0)
(-1.28908e-06 3.86717e-07 0)
(-5.40197e-05 9.303e-05 0)
(-0.000171126 0.000232951 0)
(-0.000351676 0.000388284 0)
(-0.00059188 0.000539665 0)
(-0.000886104 0.000676236 0)
(-0.00122742 0.000792962 0)
(-0.00160843 0.000888661 0)
(-0.00202198 0.000964524 0)
(-0.00246161 0.00102305 0)
(-0.00292177 0.00106732 0)
(-0.00339796 0.00110049 0)
(-0.00388665 0.00112552 0)
(-0.00438526 0.001145 0)
(-0.00489203 0.00116109 0)
(-0.00540583 0.00117549 0)
(-0.00592607 0.00118948 0)
(-0.00645258 0.00120399 0)
(-0.00698543 0.00121962 0)
(-0.00752489 0.00123671 0)
(-0.00807132 0.00125542 0)
(-0.00862513 0.00127574 0)
(-0.0091867 0.00129755 0)
(-0.00975635 0.00132066 0)
(-0.0103343 0.00134481 0)
(-0.0109208 0.0013697 0)
(-0.0115157 0.00139501 0)
(-0.012119 0.00142041 0)
(-0.0127304 0.00144553 0)
(-0.0133496 0.00147003 0)
(-0.0139759 0.00149353 0)
(-0.0146088 0.00151566 0)
(-0.0152473 0.00153606 0)
(-0.0158905 0.00155434 0)
(-0.0165373 0.00157014 0)
(-0.0171863 0.00158308 0)
(-0.0178362 0.00159279 0)
(-0.0184854 0.00159889 0)
(-0.0191321 0.00160101 0)
(-0.0197747 0.00159878 0)
(-0.0204111 0.00159186 0)
(-0.0210392 0.00157987 0)
(-0.0216569 0.00156246 0)
(-0.0222619 0.00153931 0)
(-0.0228518 0.00151007 0)
(-0.0234242 0.00147442 0)
(-0.0239764 0.00143205 0)
(-0.024506 0.00138267 0)
(-0.0250101 0.001326 0)
(-0.0254861 0.0012618 0)
(-0.0259311 0.00118982 0)
(-0.0263424 0.00110989 0)
(-0.0267171 0.00102185 0)
(-0.0270523 0.000925578 0)
(-0.0273453 0.000821031 0)
(-0.0275933 0.000708213 0)
(-0.0277935 0.0005872 0)
(-0.0279433 0.00045815 0)
(-0.0280401 0.00032131 0)
(-0.0280815 0.000177019 0)
(-0.0280654 2.57261e-05 0)
(-0.0279897 -0.000131938 0)
(-0.0278526 -0.000295386 0)
(-0.0276526 -0.00046379 0)
(-0.0273885 -0.000636224 0)
(-0.0270595 -0.000811647 0)
(-0.0266652 -0.000988904 0)
(-0.0262054 -0.00116673 0)
(-0.0256807 -0.00134376 0)
(-0.025092 -0.00151856 0)
(-0.0244405 -0.0016896 0)
(-0.0237283 -0.00185534 0)
(-0.0229577 -0.00201419 0)
(-0.0221317 -0.00216458 0)
(-0.0212537 -0.00230495 0)
(-0.0203278 -0.00243382 0)
(-0.0193583 -0.00254978 0)
(-0.0183501 -0.00265153 0)
(-0.0173085 -0.00273793 0)
(-0.0162391 -0.002808 0)
(-0.0151479 -0.00286094 0)
(-0.0140409 -0.00289618 0)
(-0.0129246 -0.00291336 0)
(-0.0118052 -0.00291235 0)
(-0.0106893 -0.00289328 0)
(-0.00958312 -0.00285651 0)
(-0.00849286 -0.00280262 0)
(-0.00742451 -0.00273243 0)
(-0.00638373 -0.00264696 0)
(-0.00537583 -0.0025474 0)
(-0.00440572 -0.00243511 0)
(-0.0034778 -0.00231155 0)
(-0.00259601 -0.00217829 0)
(-0.00176371 -0.00203695 0)
(-0.000983737 -0.00188919 0)
(-0.000258244 -0.00173663 0)
(0.000410895 -0.00158085 0)
(0.00102252 -0.00142338 0)
(0.00157616 -0.00126564 0)
(0.00207158 -0.00110894 0)
(0.00250908 -0.000954439 0)
(0.00288934 -0.000803162 0)
(0.00321342 -0.000655975 0)
(0.00348267 -0.000513594 0)
(0.00369869 -0.000376581 0)
(0.00386328 -0.000245357 0)
(0.0039784 -0.000120213 0)
(0.00404611 -1.34003e-06 0)
(0.00406856 0.000111179 0)
(0.00404796 0.000217317 0)
(0.00398657 0.000317077 0)
(0.00388666 0.00041046 0)
(0.00375057 0.000497418 0)
(0.00358074 0.00057781 0)
(0.0033797 0.00065133 0)
(0.00315019 0.000717447 0)
(0.00289525 0.000775312 0)
(0.0026183 0.000823663 0)
(0.00232333 0.000860716 0)
(0.002015 0.000884058 0)
(0.00169889 0.000890546 0)
(0.00138165 0.000876266 0)
(0.00107118 0.000836591 0)
(0.000776769 0.000766446 0)
(0.000509146 0.00066091 0)
(0.000280837 0.000516388 0)
(0.000107891 0.000332711 0)
(8.60238e-06 0.000116681 0)
(-3.64156e-06 3.40478e-05 0)
(-8.30228e-05 0.000197399 0)
(-0.000245578 0.000407767 0)
(-0.000485138 0.000630075 0)
(-0.000793931 0.000842597 0)
(-0.0011639 0.00103306 0)
(-0.00158649 0.00119584 0)
(-0.00205318 0.00132986 0)
(-0.00255603 0.00143689 0)
(-0.00308798 0.0015203 0)
(-0.00364305 0.0015842 0)
(-0.00421637 0.00163281 0)
(-0.00480415 0.00167007 0)
(-0.00540357 0.00169949 0)
(-0.00601266 0.00172395 0)
(-0.00663014 0.0017458 0)
(-0.00725529 0.00176678 0)
(-0.00788781 0.00178817 0)
(-0.00852767 0.00181081 0)
(-0.00917505 0.00183519 0)
(-0.00983021 0.00186152 0)
(-0.0104935 0.00188982 0)
(-0.0111651 0.00191992 0)
(-0.0118453 0.00195156 0)
(-0.0125343 0.00198438 0)
(-0.0132319 0.00201796 0)
(-0.0139382 0.00205184 0)
(-0.0146528 0.00208554 0)
(-0.0153752 0.00211857 0)
(-0.0161049 0.00215039 0)
(-0.0168411 0.00218049 0)
(-0.0175829 0.00220834 0)
(-0.0183291 0.0022334 0)
(-0.0190785 0.00225515 0)
(-0.0198297 0.00227305 0)
(-0.020581 0.00228658 0)
(-0.0213307 0.00229522 0)
(-0.0220769 0.00229844 0)
(-0.0228176 0.00229575 0)
(-0.0235506 0.00228664 0)
(-0.0242736 0.00227064 0)
(-0.0249842 0.00224728 0)
(-0.02568 0.0022161 0)
(-0.0263584 0.00217666 0)
(-0.0270167 0.00212855 0)
(-0.0276521 0.00207136 0)
(-0.0282619 0.00200472 0)
(-0.0288432 0.00192826 0)
(-0.0293931 0.00184168 0)
(-0.0299088 0.00174467 0)
(-0.0303872 0.00163698 0)
(-0.0308254 0.00151841 0)
(-0.0312205 0.0013888 0)
(-0.0315696 0.00124806 0)
(-0.0318698 0.00109618 0)
(-0.0321182 0.000933207 0)
(-0.032312 0.000759313 0)
(-0.0324487 0.000574761 0)
(-0.0325257 0.000379932 0)
(-0.0325406 0.000175334 0)
(-0.0324911 -3.83891e-05 0)
(-0.0323753 -0.000260381 0)
(-0.0321916 -0.000489759 0)
(-0.0319385 -0.0007254 0)
(-0.0316148 -0.000966033 0)
(-0.0312198 -0.00121023 0)
(-0.0307532 -0.00145643 0)
(-0.0302151 -0.00170292 0)
(-0.029606 -0.00194785 0)
(-0.0289269 -0.00218929 0)
(-0.0281795 -0.00242519 0)
(-0.0273659 -0.00265349 0)
(-0.0264886 -0.00287205 0)
(-0.025551 -0.00307878 0)
(-0.0245567 -0.00327159 0)
(-0.0235099 -0.00344849 0)
(-0.0224156 -0.0036076 0)
(-0.0212789 -0.00374719 0)
(-0.0201056 -0.00386573 0)
(-0.0189016 -0.00396189 0)
(-0.0176735 -0.0040346 0)
(-0.0164279 -0.00408308 0)
(-0.0151717 -0.00410684 0)
(-0.0139118 -0.0041057 0)
(-0.0126552 -0.00407982 0)
(-0.0114089 -0.00402964 0)
(-0.0101797 -0.00395596 0)
(-0.00897405 -0.00385985 0)
(-0.00779832 -0.00374267 0)
(-0.00665838 -0.00360601 0)
(-0.00555965 -0.00345168 0)
(-0.00450707 -0.00328166 0)
(-0.00350504 -0.00309807 0)
(-0.00255735 -0.0029031 0)
(-0.0016672 -0.00269896 0)
(-0.000837142 -0.00248789 0)
(-6.92049e-05 -0.00227213 0)
(0.000635229 -0.00205359 0)
(0.00127541 -0.00183431 0)
(0.00185107 -0.00161611 0)
(0.00236243 -0.00140058 0)
(0.00281016 -0.00118914 0)
(0.00319535 -0.000982999 0)
(0.00351939 -0.000783171 0)
(0.00378396 -0.000590457 0)
(0.00399098 -0.000405472 0)
(0.00414255 -0.000228652 0)
(0.00424087 -6.02893e-05 0)
(0.00428826 9.94492e-05 0)
(0.00428712 0.000250478 0)
(0.00423988 0.000392752 0)
(0.00414904 0.000526216 0)
(0.00401717 0.000650746 0)
(0.00384693 0.000766081 0)
(0.00364113 0.00087174 0)
(0.00340281 0.000966933 0)
(0.00313533 0.00105044 0)
(0.00284248 0.00112052 0)
(0.00252862 0.00117473 0)
(0.00219888 0.00120983 0)
(0.00185928 0.00122169 0)
(0.00151696 0.00120521 0)
(0.0011804 0.00115438 0)
(0.000859543 0.00106259 0)
(0.000566029 0.000923132 0)
(0.000313759 0.000730243 0)
(0.000121158 0.000480684 0)
(9.72263e-06 0.000176129 0)
(-5.91563e-06 8.26702e-05 0)
(-0.000111994 0.00033889 0)
(-0.000320606 0.000635713 0)
(-0.000620183 0.000936489 0)
(-0.000998635 0.00121845 0)
(-0.00144514 0.0014689 0)
(-0.00194929 0.00168236 0)
(-0.00250128 0.0018583 0)
(-0.00309233 0.00199941 0)
(-0.0037148 0.00211015 0)
(-0.00436235 0.00219577 0)
(-0.00502983 0.00226164 0)
(-0.00571325 0.00231276 0)
(-0.00640964 0.00235355 0)
(-0.00711691 0.00238769 0)
(-0.00783367 0.00241816 0)
(-0.00855908 0.00244719 0)
(-0.00929274 0.0024764 0)
(-0.0100345 0.00250689 0)
(-0.0107845 0.00253928 0)
(-0.0115428 0.00257387 0)
(-0.0123096 0.00261066 0)
(-0.0130851 0.00264945 0)
(-0.0138693 0.00268987 0)
(-0.0146622 0.00273146 0)
(-0.0154637 0.00277367 0)
(-0.0162734 0.00281588 0)
(-0.0170908 0.00285746 0)
(-0.0179154 0.00289772 0)
(-0.0187461 0.00293598 0)
(-0.0195821 0.00297154 0)
(-0.020422 0.00300368 0)
(-0.0212646 0.00303171 0)
(-0.0221081 0.00305491 0)
(-0.022951 0.0030726 0)
(-0.0237913 0.00308409 0)
(-0.024627 0.0030887 0)
(-0.0254557 0.00308577 0)
(-0.0262753 0.00307467 0)
(-0.0270833 0.00305478 0)
(-0.0278771 0.00302552 0)
(-0.0286541 0.0029863 0)
(-0.0294116 0.0029366 0)
(-0.0301467 0.0028759 0)
(-0.0308567 0.00280371 0)
(-0.0315387 0.00271958 0)
(-0.0321898 0.0026231 0)
(-0.032807 0.00251387 0)
(-0.0333874 0.00239154 0)
(-0.0339281 0.00225582 0)
(-0.0344261 0.00210645 0)
(-0.0348784 0.00194323 0)
(-0.0352823 0.00176603 0)
(-0.0356348 0.00157479 0)
(-0.0359331 0.00136955 0)
(-0.0361745 0.00115045 0)
(-0.0363562 0.000917738 0)
(-0.0364758 0.000671794 0)
(-0.0365306 0.000413148 0)
(-0.0365185 0.000142486 0)
(-0.0364373 -0.000139344 0)
(-0.036285 -0.000431334 0)
(-0.03606 -0.000732228 0)
(-0.0357609 -0.00104061 0)
(-0.0353867 -0.00135487 0)
(-0.0349365 -0.00167321 0)
(-0.03441 -0.00199363 0)
(-0.0338074 -0.00231398 0)
(-0.0331291 -0.00263192 0)
(-0.0323763 -0.00294501 0)
(-0.0315506 -0.00325067 0)
(-0.030654 -0.00354628 0)
(-0.0296892 -0.00382917 0)
(-0.0286595 -0.00409665 0)
(-0.0275689 -0.0043461 0)
(-0.0264216 -0.00457499 0)
(-0.0252227 -0.00478094 0)
(-0.0239776 -0.00496172 0)
(-0.0226923 -0.00511537 0)
(-0.0213734 -0.0052402 0)
(-0.0200274 -0.00533482 0)
(-0.0186617 -0.0053982 0)
(-0.0172835 -0.00542969 0)
(-0.0159003 -0.00542902 0)
(-0.0145196 -0.00539635 0)
(-0.0131491 -0.00533224 0)
(-0.0117962 -0.00523765 0)
(-0.0104679 -0.00511392 0)
(-0.00917124 -0.00496276 0)
(-0.00791263 -0.00478618 0)
(-0.00669809 -0.00458649 0)
(-0.0055331 -0.00436622 0)
(-0.00442253 -0.00412805 0)
(-0.00337062 -0.00387481 0)
(-0.00238095 -0.00360935 0)
(-0.00145641 -0.00333454 0)
(-0.000599241 -0.00305321 0)
(0.000188996 -0.002768 0)
(0.00090735 -0.00248142 0)
(0.00155549 -0.00219588 0)
(0.00213365 -0.00191346 0)
(0.00264252 -0.001636 0)
(0.00308323 -0.00136511 0)
(0.00345729 -0.00110212 0)
(0.0037665 -0.000848099 0)
(0.00401292 -0.000603868 0)
(0.00419881 -0.00037003 0)
(0.00432655 -0.000146995 0)
(0.00439865 6.49801e-05 0)
(0.00441767 0.000265743 0)
(0.00438625 0.00045519 0)
(0.00430707 0.000633199 0)
(0.00418289 0.000799556 0)
(0.00401659 0.000953866 0)
(0.00381118 0.00109545 0)
(0.00356994 0.00122325 0)
(0.00329645 0.00133564 0)
(0.00299478 0.00143037 0)
(0.00266955 0.00150431 0)
(0.00232619 0.0015534 0)
(0.00197106 0.00157245 0)
(0.00161166 0.00155513 0)
(0.00125691 0.00149397 0)
(0.000917323 0.00138062 0)
(0.000605345 0.00120625 0)
(0.000336079 0.000962398 0)
(0.000129813 0.000642022 0)
(1.03455e-05 0.000241071 0)
(-8.07987e-06 0.000146024 0)
(-0.000140428 0.000517382 0)
(-0.000394794 0.000916955 0)
(-0.000754228 0.00130787 0)
(-0.00120221 0.00166753 0)
(-0.00172498 0.00198379 0)
(-0.00231008 0.00225206 0)
(-0.00294633 0.00247297 0)
(-0.00362401 0.00265047 0)
(-0.00433492 0.00279038 0)
(-0.00507233 0.00289927 0)
(-0.00583088 0.00298374 0)
(-0.00660644 0.00304992 0)
(-0.00739594 0.00310318 0)
(-0.0081972 0.00314801 0)
(-0.00900877 0.003188 0)
(-0.00982972 0.00322588 0)
(-0.0106595 0.00326363 0)
(-0.011498 0.00330257 0)
(-0.0123451 0.00334346 0)
(-0.0132008 0.00338665 0)
(-0.0140652 0.00343214 0)
(-0.0149382 0.00347966 0)
(-0.0158198 0.00352875 0)
(-0.0167097 0.00357882 0)
(-0.0176075 0.00362916 0)
(-0.0185128 0.003679 0)
(-0.0194248 0.00372751 0)
(-0.0203426 0.00377384 0)
(-0.0212651 0.0038171 0)
(-0.0221909 0.0038564 0)
(-0.0231187 0.00389084 0)
(-0.0240467 0.00391955 0)
(-0.0249731 0.00394163 0)
(-0.0258959 0.00395623 0)
(-0.0268127 0.00396249 0)
(-0.0277215 0.00395961 0)
(-0.0286196 0.0039468 0)
(-0.0295046 0.00392329 0)
(-0.0303737 0.00388839 0)
(-0.0312242 0.0038414 0)
(-0.0320534 0.00378169 0)
(-0.0328584 0.00370866 0)
(-0.0336364 0.00362177 0)
(-0.0343844 0.00352049 0)
(-0.0350997 0.00340435 0)
(-0.0357793 0.00327292 0)
(-0.0364203 0.00312582 0)
(-0.03702 0.0029627 0)
(-0.0375755 0.00278328 0)
(-0.038084 0.00258731 0)
(-0.0385428 0.00237464 0)
(-0.0389491 0.00214515 0)
(-0.0393002 0.00189886 0)
(-0.0395935 0.00163583 0)
(-0.0398265 0.00135629 0)
(-0.0399965 0.00106057 0)
(-0.0401011 0.00074915 0)
(-0.0401379 0.000422692 0)
(-0.0401048 8.20347e-05 0)
(-0.0399997 -0.000271787 0)
(-0.0398205 -0.000637543 0)
(-0.0395656 -0.00101375 0)
(-0.0392335 -0.00139869 0)
(-0.0388231 -0.00179044 0)
(-0.0383334 -0.00218682 0)
(-0.037764 -0.00258545 0)
(-0.0371148 -0.00298372 0)
(-0.0363861 -0.00337882 0)
(-0.0355787 -0.00376779 0)
(-0.0346941 -0.00414753 0)
(-0.0337341 -0.00451483 0)
(-0.0327013 -0.00486644 0)
(-0.0315989 -0.00519909 0)
(-0.0304306 -0.00550956 0)
(-0.0292007 -0.00579473 0)
(-0.0279144 -0.00605165 0)
(-0.0265771 -0.00627758 0)
(-0.0251951 -0.00647004 0)
(-0.023775 -0.00662689 0)
(-0.0223239 -0.00674638 0)
(-0.0208496 -0.00682718 0)
(-0.0193597 -0.0068684 0)
(-0.0178623 -0.00686965 0)
(-0.0163657 -0.00683106 0)
(-0.0148781 -0.00675324 0)
(-0.0134076 -0.00663732 0)
(-0.0119621 -0.0064849 0)
(-0.0105493 -0.00629805 0)
(-0.00917625 -0.00607924 0)
(-0.00784977 -0.00583127 0)
(-0.00657595 -0.00555727 0)
(-0.00536028 -0.00526058 0)
(-0.00420751 -0.00494469 0)
(-0.00312168 -0.00461316 0)
(-0.00210606 -0.00426957 0)
(-0.00116317 -0.00391744 0)
(-0.000294719 -0.00356011 0)
(0.000498148 -0.00320077 0)
(0.00121505 -0.00284236 0)
(0.0018563 -0.00248753 0)
(0.00242264 -0.00213863 0)
(0.00291535 -0.00179767 0)
(0.00333608 -0.00146635 0)
(0.00368687 -0.001146 0)
(0.00396998 -0.000837699 0)
(0.00418792 -0.000542207 0)
(0.00434332 -0.000260061 0)
(0.0044389 8.39054e-06 0)
(0.00447748 0.000262931 0)
(0.00446192 0.000503398 0)
(0.00439512 0.000729607 0)
(0.00428004 0.000941254 0)
(0.00411976 0.00113781 0)
(0.00391749 0.0013184 0)
(0.00367668 0.00148167 0)
(0.00340113 0.00162561 0)
(0.00309508 0.00174742 0)
(0.00276336 0.0018433 0)
(0.00241162 0.00190831 0)
(0.00204645 0.0019362 0)
(0.00167564 0.00191933 0)
(0.00130848 0.00184867 0)
(0.000955974 0.00171393 0)
(0.000631264 0.00150392 0)
(0.000350431 0.00120707 0)
(0.000135121 0.000812196 0)
(1.06486e-05 0.000309419 0)
(-1.01475e-05 0.000223753 0)
(-0.000168121 0.000732253 0)
(-0.0004674 0.00125086 0)
(-0.000885781 0.00174359 0)
(-0.00140233 0.00218913 0)
(-0.00200026 0.00257683 0)
(-0.00266498 0.00290376 0)
(-0.00338384 0.00317227 0)
(-0.00414614 0.00338803 0)
(-0.00494305 0.0035585 0)
(-0.0057675 0.00369176 0)
(-0.0066139 0.00379577 0)
(-0.00747802 0.00387784 0)
(-0.00835673 0.00394434 0)
(-0.00924778 0.00400055 0)
(-0.0101497 0.00405069 0)
(-0.0110614 0.00409799 0)
(-0.0119824 0.00414474 0)
(-0.0129124 0.00419247 0)
(-0.0138511 0.00424209 0)
(-0.0147985 0.00429396 0)
(-0.0157544 0.00434806 0)
(-0.0167186 0.00440405 0)
(-0.0176909 0.00446136 0)
(-0.0186708 0.00451924 0)
(-0.0196577 0.00457683 0)
(-0.0206508 0.00463317 0)
(-0.0216492 0.00468724 0)
(-0.0226518 0.00473799 0)
(-0.023657 0.00478434 0)
(-0.0246634 0.00482519 0)
(-0.0256692 0.00485947 0)
(-0.0266724 0.0048861 0)
(-0.0276709 0.00490402 0)
(-0.0286625 0.00491222 0)
(-0.0296446 0.0049097 0)
(-0.0306148 0.00489553 0)
(-0.0315704 0.0048688 0)
(-0.0325087 0.00482869 0)
(-0.0334268 0.0047744 0)
(-0.0343221 0.00470521 0)
(-0.0351917 0.00462046 0)
(-0.0360327 0.00451952 0)
(-0.0368423 0.00440186 0)
(-0.0376178 0.00426695 0)