/*--------------------------------*- C++ -*----------------------------------*\
| =========                 |                                                 |
| \\      /  F ield         | OpenFOAM: The Open Source CFD Toolbox           |
|  \\    /   O peration     | Version:  2406                                  |
|   \\  /    A nd           | Website:  www.openfoam.com                      |
|    \\/     M anipulation  |                                                 |
\*---------------------------------------------------------------------------*/
FoamFile
{
    version     2.0;
    format      ascii;
    arch        "LSB;label=32;scalar=64";
    class       volVectorField;
    location    "1.7";
    object      U_0;
}
// * * * * * * * * * * * * * * * * * * * * * * * * * * * * * * * * * * * * * //

dimensions      [0 1 -1 0 0 0 0];

internalField   nonuniform List<vector> 
14400
(
(1.07672e-06 -1.07006e-06 0)
(1.0035e-06 4.15757e-07 0)
(-6.76598e-06 2.53673e-06 0)
(-2.22676e-05 4.37379e-06 0)
(-4.40852e-05 5.74834e-06 0)
(-7.04976e-05 6.67612e-06 0)
(-9.99477e-05 7.24778e-06 0)
(-0.000131233 7.56445e-06 0)
(-0.000163512 7.71489e-06 0)
(-0.000196241 7.76572e-06 0)
(-0.000229101 7.76227e-06 0)
(-0.000261915 7.7324e-06 0)
(-0.000294599 7.69155e-06 0)
(-0.000327113 7.64719e-06 0)
(-0.000359442 7.60221e-06 0)
(-0.00039158 7.55718e-06 0)
(-0.000423522 7.51171e-06 0)
(-0.000455262 7.46512e-06 0)
(-0.000486791 7.41676e-06 0)
(-0.000518099 7.3661e-06 0)
(-0.000549175 7.31272e-06 0)
(-0.000580006 7.25633e-06 0)
(-0.000610577 7.19671e-06 0)
(-0.000640874 7.13369e-06 0)
(-0.000670881 7.06714e-06 0)
(-0.000700584 6.99692e-06 0)
(-0.000729966 6.92295e-06 0)
(-0.000759011 6.84513e-06 0)
(-0.000787702 6.76336e-06 0)
(-0.000816021 6.67757e-06 0)
(-0.000843952 6.58766e-06 0)
(-0.000871477 6.49356e-06 0)
(-0.000898578 6.39517e-06 0)
(-0.000925236 6.29243e-06 0)
(-0.000951433 6.18524e-06 0)
(-0.000977151 6.07353e-06 0)
(-0.00100237 5.95722e-06 0)
(-0.00102707 5.83622e-06 0)
(-0.00105123 5.71047e-06 0)
(-0.00107484 5.57988e-06 0)
(-0.00109786 5.44438e-06 0)
(-0.00112029 5.30389e-06 0)
(-0.0011421 5.15835e-06 0)
(-0.00116326 5.00768e-06 0)
(-0.00118377 4.85183e-06 0)
(-0.00120359 4.69074e-06 0)
(-0.00122271 4.52433e-06 0)
(-0.0012411 4.35258e-06 0)
(-0.00125874 4.17543e-06 0)
(-0.00127562 3.99283e-06 0)
(-0.0012917 3.80477e-06 0)
(-0.00130697 3.61121e-06 0)
(-0.0013214 3.41214e-06 0)
(-0.00133497 3.20754e-06 0)
(-0.00134766 2.99742e-06 0)
(-0.00135944 2.78179e-06 0)
(-0.00137031 2.56067e-06 0)
(-0.00138022 2.33408e-06 0)
(-0.00138917 2.10206e-06 0)
(-0.00139712 1.86467e-06 0)
(-0.00140407 1.62195e-06 0)
(-0.00140998 1.37395e-06 0)
(-0.00141484 1.12073e-06 0)
(-0.00141863 8.62115e-07 0)
(-0.00142133 5.98172e-07 0)
(-0.00142292 3.32679e-07 0)
(-0.00142338 6.92028e-08 0)
(-0.00142269 -2.08145e-07 0)
(-0.00142084 -4.90367e-07 0)
(-0.00141782 -7.75202e-07 0)
(-0.00141361 -1.06337e-06 0)
(-0.00140819 -1.35481e-06 0)
(-0.00140155 -1.64927e-06 0)
(-0.00139368 -1.9465e-06 0)
(-0.00138457 -2.24622e-06 0)
(-0.00137422 -2.54808e-06 0)
(-0.00136261 -2.85176e-06 0)
(-0.00134973 -3.15689e-06 0)
(-0.0013356 -3.46307e-06 0)
(-0.00132019 -3.76991e-06 0)
(-0.00130352 -4.07699e-06 0)
(-0.00128558 -4.38387e-06 0)
(-0.00126637 -4.69011e-06 0)
(-0.0012459 -4.99523e-06 0)
(-0.00122417 -5.29877e-06 0)
(-0.0012012 -5.60024e-06 0)
(-0.00117698 -5.89913e-06 0)
(-0.00115155 -6.19496e-06 0)
(-0.0011249 -6.4872e-06 0)
(-0.00109706 -6.77534e-06 0)
(-0.00106804 -7.05887e-06 0)
(-0.00103786 -7.33727e-06 0)
(-0.00100655 -7.61001e-06 0)
(-0.000974136 -7.8766e-06 0)
(-0.000940635 -8.13653e-06 0)
(-0.00090608 -8.38931e-06 0)
(-0.000870501 -8.63447e-06 0)
(-0.000833931 -8.87156e-06 0)
(-0.000796404 -9.10017e-06 0)
(-0.000757955 -9.31994e-06 0)
(-0.000718622 -9.53056e-06 0)
(-0.000678442 -9.73183e-06 0)
(-0.000637455 -9.92363e-06 0)
(-0.000595701 -1.0106e-05 0)
(-0.000553218 -1.02789e-05 0)
(-0.000510048 -1.04423e-05 0)
(-0.000466234 -1.05955e-05 0)
(-0.000421825 -1.07364e-05 0)
(-0.000376888 -1.08597e-05 0)
(-0.000331522 -1.09549e-05 0)
(-0.000285891 -1.10017e-05 0)
(-0.000240269 -1.0966e-05 0)
(-0.000195106 -1.07935e-05 0)
(-0.000151114 -1.04049e-05 0)
(-0.000109367 -9.69187e-06 0)
(-7.139e-05 -8.52348e-06 0)
(-3.91987e-05 -6.75899e-06 0)
(-1.51232e-05 -4.32957e-06 0)
(-1.51767e-06 -1.3304e-06 0)
(9.94899e-07 9.93824e-07 0)
(-4.19269e-07 -9.86322e-07 0)
(-1.0772e-05 1.07356e-05 0)
(-3.82319e-05 2.70056e-05 0)
(-8.30001e-05 4.15055e-05 0)
(-0.000141853 5.27445e-05 0)
(-0.000211431 6.06399e-05 0)
(-0.000288433 6.57268e-05 0)
(-0.000370172 6.87143e-05 0)
(-0.000454666 7.02682e-05 0)
(-0.00054057 7.09176e-05 0)
(-0.000627033 7.10386e-05 0)
(-0.00071355 7.08746e-05 0)
(-0.000799839 7.05684e-05 0)
(-0.000885749 7.01955e-05 0)
(-0.0009712 6.9791e-05 0)
(-0.00105614 6.93675e-05 0)
(-0.00114055 6.89271e-05 0)
(-0.00122438 6.84674e-05 0)
(-0.00130761 6.79852e-05 0)
(-0.0013902 6.74773e-05 0)
(-0.00147211 6.69411e-05 0)
(-0.00155332 6.63746e-05 0)
(-0.00163377 6.57763e-05 0)
(-0.00171342 6.51448e-05 0)
(-0.00179224 6.44793e-05 0)
(-0.00187019 6.37789e-05 0)
(-0.0019472 6.30429e-05 0)
(-0.00202325 6.22706e-05 0)
(-0.00209828 6.14614e-05 0)
(-0.00217226 6.06146e-05 0)
(-0.00224513 5.97298e-05 0)
(-0.00231684 5.88064e-05 0)
(-0.00238735 5.78437e-05 0)
(-0.00245662 5.68413e-05 0)
(-0.00252459 5.57986e-05 0)
(-0.00259121 5.47151e-05 0)
(-0.00265643 5.35902e-05 0)
(-0.00272021 5.24234e-05 0)
(-0.00278249 5.12142e-05 0)
(-0.00284323 4.99622e-05 0)
(-0.00290236 4.86668e-05 0)
(-0.00295985 4.73277e-05 0)
(-0.00301563 4.59442e-05 0)
(-0.00306966 4.45162e-05 0)
(-0.00312189 4.30432e-05 0)
(-0.00317225 4.15247e-05 0)
(-0.0032207 3.99607e-05 0)
(-0.00326718 3.83507e-05 0)
(-0.00331164 3.66946e-05 0)
(-0.00335403 3.49922e-05 0)
(-0.00339429 3.32435e-05 0)
(-0.00343236 3.14482e-05 0)
(-0.00346821 2.96066e-05 0)
(-0.00350177 2.77187e-05 0)
(-0.00353299 2.57847e-05 0)
(-0.00356181 2.38047e-05 0)
(-0.00358819 2.17793e-05 0)
(-0.00361208 1.97088e-05 0)
(-0.00363342 1.75937e-05 0)
(-0.00365216 1.54346e-05 0)
(-0.00366826 1.32324e-05 0)
(-0.00368167 1.09878e-05 0)
(-0.00369234 8.70177e-06 0)
(-0.00370022 6.37534e-06 0)
(-0.00370527 4.00971e-06 0)
(-0.00370746 1.60848e-06 0)
(-0.00370673 -8.21597e-07 0)
(-0.00370306 -3.29317e-06 0)
(-0.0036964 -5.79846e-06 0)
(-0.00368672 -8.33413e-06 0)
(-0.00367399 -1.08981e-05 0)
(-0.00365818 -1.3488e-05 0)
(-0.00363926 -1.61016e-05 0)
(-0.00361722 -1.87362e-05 0)
(-0.00359202 -2.13893e-05 0)
(-0.00356366 -2.40579e-05 0)
(-0.00353212 -2.6739e-05 0)
(-0.00349738 -2.94296e-05 0)
(-0.00345945 -3.21263e-05 0)
(-0.00341832 -3.48257e-05 0)
(-0.00337399 -3.75243e-05 0)
(-0.00332647 -4.02183e-05 0)
(-0.00327576 -4.2904e-05 0)
(-0.00322189 -4.55775e-05 0)
(-0.00316487 -4.82348e-05 0)
(-0.00310473 -5.08717e-05 0)
(-0.00304149 -5.34843e-05 0)
(-0.00297518 -5.60681e-05 0)
(-0.00290585 -5.8619e-05 0)
(-0.00283353 -6.11326e-05 0)
(-0.00275828 -6.36046e-05 0)
(-0.00268015 -6.60307e-05 0)
(-0.0025992 -6.84066e-05 0)
(-0.00251548 -7.0728e-05 0)
(-0.00242906 -7.29907e-05 0)
(-0.00234003 -7.51906e-05 0)
(-0.00224845 -7.73237e-05 0)
(-0.0021544 -7.93862e-05 0)
(-0.00205797 -8.13747e-05 0)
(-0.00195926 -8.32859e-05 0)
(-0.00185835 -8.5117e-05 0)
(-0.00175533 -8.68659e-05 0)
(-0.00165032 -8.85309e-05 0)
(-0.0015434 -9.01107e-05 0)
(-0.00143469 -9.16033e-05 0)
(-0.0013243 -9.30044e-05 0)
(-0.00121235 -9.4303e-05 0)
(-0.00109898 -9.54732e-05 0)
(-0.000984397 -9.64613e-05 0)
(-0.0008689 -9.71644e-05 0)
(-0.00075295 -9.74015e-05 0)
(-0.000637282 -9.6877e-05 0)
(-0.00052305 -9.51427e-05 0)
(-0.000411991 -9.15687e-05 0)
(-0.000306605 -8.53421e-05 0)
(-0.000210279 -7.55388e-05 0)
(-0.000127261 -6.13169e-05 0)
(-6.20396e-05 -4.23821e-05 0)
(-1.98146e-05 -1.99238e-05 0)
(-1.3065e-06 -1.49659e-06 0)
(-2.57006e-06 6.84736e-06 0)
(-2.72576e-05 3.82741e-05 0)
(-7.54907e-05 7.50977e-05 0)
(-0.000147138 0.000107804 0)
(-0.000237268 0.000133581 0)
(-0.000341859 0.000152139 0)
(-0.000456741 0.00016446 0)
(-0.000578419 0.000171976 0)
(-0.000704227 0.0001761 0)
(-0.000832288 0.000178005 0)
(-0.000961357 0.000178552 0)
(-0.00109066 0.000178322 0)
(-0.00121973 0.000177669 0)
(-0.00134831 0.000176791 0)
(-0.00147622 0.000175789 0)
(-0.00160338 0.000174707 0)
(-0.00172971 0.000173559 0)
(-0.00185514 0.000172348 0)
(-0.00197962 0.000171069 0)
(-0.00210309 0.000169717 0)
(-0.0022255 0.000168288 0)
(-0.00234677 0.000166778 0)
(-0.00246684 0.000165184 0)
(-0.00258566 0.000163503 0)
(-0.00270315 0.000161734 0)
(-0.00281924 0.000159875 0)
(-0.00293388 0.000157924 0)
(-0.00304699 0.000155881 0)
(-0.0031585 0.000153743 0)
(-0.00326834 0.00015151 0)
(-0.00337645 0.00014918 0)
(-0.00348275 0.000146753 0)
(-0.00358717 0.000144228 0)
(-0.00368964 0.000141603 0)
(-0.00379008 0.000138877 0)
(-0.00388843 0.000136049 0)
(-0.00398462 0.000133119 0)
(-0.00407856 0.000130085 0)
(-0.00417019 0.000126947 0)
(-0.00425942 0.000123703 0)
(-0.0043462 0.000120353 0)
(-0.00443043 0.000116896 0)
(-0.00451205 0.000113331 0)
(-0.00459098 0.000109658 0)
(-0.00466714 0.000105876 0)
(-0.00474047 0.000101984 0)
(-0.00481088 9.79819e-05 0)
(-0.00487829 9.38698e-05 0)
(-0.00494264 8.96472e-05 0)
(-0.00500385 8.53141e-05 0)
(-0.00506183 8.08705e-05 0)
(-0.00511653 7.63166e-05 0)
(-0.00516785 7.16528e-05 0)
(-0.00521574 6.68796e-05 0)
(-0.00526011 6.19977e-05 0)
(-0.00530089 5.70081e-05 0)
(-0.00533801 5.19118e-05 0)
(-0.00537141 4.67102e-05 0)
(-0.00540101 4.14049e-05 0)
(-0.00542674 3.59976e-05 0)
(-0.00544854 3.04905e-05 0)
(-0.00546634 2.48858e-05 0)
(-0.00548009 1.91863e-05 0)
(-0.00548971 1.3395e-05 0)
(-0.00549516 7.51531e-06 0)
(-0.00549637 1.5499e-06 0)
(-0.0054933 -4.50039e-06 0)
(-0.00548589 -1.06234e-05 0)
(-0.00547409 -1.68196e-05 0)
(-0.00545787 -2.30843e-05 0)
(-0.00543718 -2.94122e-05 0)
(-0.00541198 -3.57974e-05 0)
(-0.00538224 -4.2234e-05 0)
(-0.00534794 -4.87159e-05 0)
(-0.00530905 -5.52364e-05 0)
(-0.00526555 -6.17888e-05 0)
(-0.00521742 -6.83657e-05 0)
(-0.00516466 -7.49597e-05 0)
(-0.00510726 -8.15629e-05 0)
(-0.00504522 -8.8167e-05 0)
(-0.00497856 -9.47637e-05 0)
(-0.00490727 -0.000101344 0)
(-0.00483139 -0.000107899 0)
(-0.00475094 -0.00011442 0)
(-0.00466594 -0.000120897 0)
(-0.00457644 -0.000127321 0)
(-0.00448247 -0.000133681 0)
(-0.0043841 -0.000139967 0)
(-0.00428137 -0.00014617 0)
(-0.00417436 -0.00015228 0)
(-0.00406313 -0.000158286 0)
(-0.00394776 -0.000164177 0)
(-0.00382834 -0.000169945 0)
(-0.00370496 -0.000175578 0)
(-0.00357771 -0.000181067 0)
(-0.00344671 -0.000186403 0)
(-0.00331205 -0.000191575 0)
(-0.00317387 -0.000196575 0)
(-0.00303228 -0.000201394 0)
(-0.00288742 -0.000206025 0)
(-0.00273941 -0.000210461 0)
(-0.0025884 -0.000214694 0)
(-0.00243454 -0.000218721 0)
(-0.00227796 -0.000222535 0)
(-0.00211884 -0.000226127 0)
(-0.00195733 -0.00022948 0)
(-0.00179364 -0.000232558 0)
(-0.001628 -0.000235286 0)
(-0.00146073 -0.000237519 0)
(-0.00129231 -0.000238994 0)
(-0.00112345 -0.000239267 0)
(-0.000955227 -0.00023764 0)
(-0.000789305 -0.000233087 0)
(-0.000628079 -0.000224212 0)
(-0.000474894 -0.00020929 0)
(-0.00033414 -0.000186453 0)
(-0.000211145 -0.000154125 0)
(-0.000111232 -0.000111897 0)
(-4.19081e-05 -6.20059e-05 0)
(-4.25146e-06 -1.49432e-05 0)
(-4.46348e-06 2.25781e-05 0)
(-4.21857e-05 8.3451e-05 0)
(-0.000109124 0.000146974 0)
(-0.000204185 0.000202532 0)
(-0.000320421 0.000246501 0)
(-0.0004533 0.000278552 0)
(-0.000598131 0.000300208 0)
(-0.000750986 0.000313721 0)
(-0.000908833 0.00032137 0)
(-0.0010695 0.000325091 0)
(-0.0012315 0.00032634 0)
(-0.00139387 0.00032612 0)
(-0.00155604 0.000325059 0)
(-0.00171762 0.000323526 0)
(-0.0018784 0.000321713 0)
(-0.00203823 0.000319713 0)
(-0.00219699 0.000317566 0)
(-0.00235459 0.00031528 0)
(-0.00251096 0.000312856 0)
(-0.002666 0.000310288 0)
(-0.00281963 0.000307571 0)
(-0.00297178 0.000304699 0)
(-0.00312236 0.000301668 0)
(-0.00327128 0.000298475 0)
(-0.00341847 0.000295116 0)
(-0.00356383 0.00029159 0)
(-0.00370727 0.000287894 0)
(-0.00384872 0.000284026 0)
(-0.00398808 0.000279984 0)
(-0.00412527 0.000275766 0)
(-0.00426019 0.000271372 0)
(-0.00439276 0.000266799 0)
(-0.00452289 0.000262046 0)
(-0.00465048 0.000257111 0)
(-0.00477546 0.000251993 0)
(-0.00489772 0.00024669 0)
(-0.00501718 0.000241202 0)
(-0.00513375 0.000235526 0)
(-0.00524733 0.000229663 0)
(-0.00535784 0.000223609 0)
(-0.00546518 0.000217365 0)
(-0.00556926 0.000210929 0)
(-0.00567 0.000204301 0)
(-0.00576729 0.00019748 0)
(-0.00586104 0.000190465 0)
(-0.00595117 0.000183255 0)
(-0.00603759 0.00017585 0)
(-0.00612019 0.000168251 0)
(-0.0061989 0.000160457 0)
(-0.00627362 0.000152468 0)
(-0.00634427 0.000144286 0)
(-0.00641074 0.00013591 0)
(-0.00647296 0.000127342 0)
(-0.00653084 0.000118583 0)
(-0.00658429 0.000109634 0)
(-0.00663323 0.000100499 0)
(-0.00667757 9.11784e-05 0)
(-0.00671722 8.16758e-05 0)
(-0.00675212 7.19941e-05 0)
(-0.00678218 6.21369e-05 0)
(-0.00680733 5.21082e-05 0)
(-0.00682748 4.19124e-05 0)
(-0.00684257 3.15545e-05 0)
(-0.00685254 2.10401e-05 0)
(-0.0068573 1.03754e-05 0)
(-0.00685681 -4.33448e-07 0)
(-0.00685099 -1.13828e-05 0)
(-0.0068398 -2.24607e-05 0)
(-0.00682318 -3.36596e-05 0)
(-0.00680108 -4.49715e-05 0)
(-0.00677346 -5.63872e-05 0)
(-0.00674028 -6.78967e-05 0)
(-0.00670151 -7.94896e-05 0)
(-0.00665711 -9.11549e-05 0)
(-0.00660706 -0.000102881 0)
(-0.00655135 -0.000114656 0)
(-0.00648995 -0.000126466 0)
(-0.00642287 -0.000138299 0)
(-0.0063501 -0.000150141 0)
(-0.00627166 -0.000161976 0)
(-0.00618754 -0.000173792 0)
(-0.00609778 -0.000185571 0)
(-0.0060024 -0.000197298 0)
(-0.00590143 -0.000208958 0)
(-0.00579492 -0.000220533 0)
(-0.00568292 -0.000232007 0)
(-0.00556547 -0.000243362 0)
(-0.00544266 -0.000254581 0)
(-0.00531455 -0.000265647 0)
(-0.00518122 -0.000276542 0)
(-0.00504277 -0.000287247 0)
(-0.00489928 -0.000297746 0)
(-0.00475088 -0.00030802 0)
(-0.00459766 -0.000318053 0)
(-0.00443975 -0.000327826 0)
(-0.00427728 -0.000337323 0)
(-0.00411038 -0.000346527 0)
(-0.00393921 -0.000355423 0)
(-0.00376391 -0.000363995 0)
(-0.00358464 -0.00037223 0)
(-0.00340157 -0.000380114 0)
(-0.00321486 -0.000387637 0)
(-0.0030247 -0.000394785 0)
(-0.00283127 -0.000401545 0)
(-0.00263477 -0.000407896 0)
(-0.00243542 -0.000413799 0)
(-0.00223347 -0.000419179 0)
(-0.00202923 -0.00042389 0)
(-0.00182311 -0.000427657 0)
(-0.00161572 -0.000430007 0)
(-0.00140793 -0.000430156 0)
(-0.00120106 -0.000426901 0)
(-0.000997048 -0.000418509 0)
(-0.000798661 -0.000402684 0)
(-0.000609682 -0.000376643 0)
(-0.000435014 -0.000337452 0)
(-0.000280601 -0.000282677 0)
(-0.00015236 -0.00021155 0)
(-6.02799e-05 -0.000126647 0)
(-6.59506e-06 -3.86075e-05 0)
(-5.91604e-06 4.48863e-05 0)
(-5.40247e-05 0.000143268 0)
(-0.000136229 0.000238028 0)
(-0.000250352 0.000319177 0)
(-0.000387488 0.000383151 0)
(-0.000542563 0.000430003 0)
(-0.000710484 0.000461968 0)
(-0.000887064 0.000482195 0)
(-0.00106908 0.000493874 0)
(-0.00125422 0.000499734 0)
(-0.00144087 0.000501862 0)
(-0.00162799 0.000501712 0)
(-0.00181488 0.000500218 0)
(-0.00200114 0.000497933 0)
(-0.00218648 0.000495163 0)
(-0.00237072 0.000492062 0)
(-0.00255371 0.000488698 0)
(-0.00273534 0.000485096 0)
(-0.00291549 0.000481262 0)
(-0.00309407 0.000477193 0)
(-0.00327098 0.000472884 0)
(-0.00344612 0.000468329 0)
(-0.00361939 0.000463522 0)
(-0.00379069 0.00045846 0)
(-0.00395992 0.00045314 0)
(-0.00412697 0.000447557 0)
(-0.00429175 0.00044171 0)
(-0.00445416 0.000435596 0)
(-0.00461409 0.000429213 0)
(-0.00477144 0.000422559 0)
(-0.00492612 0.000415631 0)
(-0.005078 0.000408429 0)
(-0.005227 0.000400949 0)
(-0.00537302 0.000393191 0)
(-0.00551594 0.000385152 0)
(-0.00565566 0.000376832 0)
(-0.00579208 0.000368228 0)
(-0.00592511 0.000359339 0)
(-0.00605462 0.000350164 0)
(-0.00618053 0.000340702 0)
(-0.00630272 0.000330951 0)
(-0.0064211 0.000320911 0)
(-0.00653556 0.00031058 0)
(-0.00664599 0.000299959 0)
(-0.00675231 0.000289046 0)
(-0.00685439 0.000277841 0)
(-0.00695215 0.000266345 0)
(-0.00704548 0.000254558 0)
(-0.00713428 0.00024248 0)
(-0.00721845 0.000230112 0)
(-0.00729788 0.000217456 0)
(-0.0073725 0.000204513 0)
(-0.00744219 0.000191285 0)
(-0.00750685 0.000177775 0)
(-0.00756641 0.000163986 0)
(-0.00762076 0.000149921 0)
(-0.00766981 0.000135584 0)
(-0.00771347 0.00012098 0)
(-0.00775166 0.000106113 0)
(-0.00778429 9.099e-05 0)
(-0.00781127 7.56165e-05 0)
(-0.00783254 5.99999e-05 0)
(-0.00784801 4.41479e-05 0)
(-0.0078576 2.80689e-05 0)
(-0.00786126 1.17719e-05 0)
(-0.0078589 -4.73329e-06 0)
(-0.00785048 -2.14344e-05 0)
(-0.00783592 -3.83217e-05 0)
(-0.00781518 -5.53823e-05 0)
(-0.0077882 -7.26029e-05 0)
(-0.00775494 -8.99693e-05 0)
(-0.00771537 -0.000107467 0)
(-0.00766944 -0.000125079 0)
(-0.00761712 -0.000142791 0)
(-0.00755841 -0.000160583 0)
(-0.00749327 -0.000178439 0)
(-0.0074217 -0.000196338 0)
(-0.0073437 -0.000214261 0)
(-0.00725927 -0.000232187 0)
(-0.00716842 -0.000250095 0)
(-0.00707118 -0.000267963 0)
(-0.00696756 -0.000285768 0)
(-0.0068576 -0.000303486 0)
(-0.00674134 -0.000321094 0)
(-0.00661885 -0.000338566 0)
(-0.00649016 -0.000355878 0)
(-0.00635536 -0.000373005 0)
(-0.00621452 -0.00038992 0)
(-0.00606772 -0.000406598 0)
(-0.00591505 -0.000423012 0)
(-0.00575663 -0.000439136 0)
(-0.00559256 -0.000454945 0)
(-0.00542296 -0.000470411 0)
(-0.00524797 -0.000485509 0)
(-0.00506771 -0.000500213 0)
(-0.00488235 -0.000514498 0)
(-0.00469202 -0.00052834 0)
(-0.0044969 -0.000541716 0)
(-0.00429715 -0.000554602 0)
(-0.00409296 -0.000566977 0)
(-0.00388452 -0.000578821 0)
(-0.00367201 -0.000590115 0)
(-0.00345564 -0.000600839 0)
(-0.00323563 -0.000610967 0)
(-0.0030122 -0.000620461 0)
(-0.00278561 -0.000629256 0)
(-0.00255614 -0.000637227 0)
(-0.00232417 -0.000644139 0)
(-0.00209018 -0.000649576 0)
(-0.00185482 -0.000652822 0)
(-0.00161909 -0.000652726 0)
(-0.00138442 -0.000647543 0)
(-0.0011529 -0.0006348 0)
(-0.000927471 -0.000611256 0)
(-0.000712128 -0.000573032 0)
(-0.000512071 -0.000516044 0)
(-0.000333703 -0.000436804 0)
(-0.000183555 -0.000333688 0)
(-7.39062e-05 -0.000208526 0)
(-8.26676e-06 -7.00653e-05 0)
(-6.93325e-06 7.2116e-05 0)
(-6.26214e-05 0.000214524 0)
(-0.00015637 0.000344463 0)
(-0.000285071 0.000453483 0)
(-0.00043817 0.000538788 0)
(-0.000610041 0.000601247 0)
(-0.000795222 0.000644045 0)
(-0.000989338 0.000671343 0)
(-0.00118907 0.000687291 0)
(-0.00139202 0.000695443 0)
(-0.00159654 0.000698529 0)
(-0.00180154 0.000698466 0)
(-0.00200631 0.0006965 0)
(-0.00221037 0.000693385 0)
(-0.00241343 0.000689543 0)
(-0.00261527 0.000685194 0)
(-0.00281573 0.000680443 0)
(-0.00301467 0.000675334 0)
(-0.00321197 0.000669881 0)
(-0.0034075 0.000664085 0)
(-0.00360116 0.000657941 0)
(-0.00379284 0.000651445 0)
(-0.00398241 0.000644592 0)
(-0.00416977 0.000637377 0)
(-0.00435481 0.000629797 0)
(-0.00453742 0.000621848 0)
(-0.00471747 0.000613527 0)
(-0.00489487 0.000604832 0)
(-0.0050695 0.00059576 0)
(-0.00524124 0.000586309 0)
(-0.00540999 0.000576477 0)
(-0.00557563 0.000566262 0)
(-0.00573804 0.000555662 0)
(-0.00589713 0.000544675 0)
(-0.00605276 0.000533299 0)
(-0.00620484 0.000521534 0)
(-0.00635325 0.000509377 0)
(-0.00649788 0.000496827 0)
(-0.00663861 0.000483883 0)
(-0.00677534 0.000470543 0)
(-0.00690795 0.000456808 0)
(-0.00703633 0.000442675 0)
(-0.00716037 0.000428145 0)
(-0.00727996 0.000413217 0)
(-0.00739499 0.000397892 0)
(-0.00750536 0.000382169 0)
(-0.00761095 0.00036605 0)
(-0.00771165 0.000349535 0)
(-0.00780736 0.000332625 0)
(-0.00789797 0.000315323 0)
(-0.00798339 0.000297631 0)
(-0.00806349 0.000279552 0)
(-0.00813819 0.000261089 0)
(-0.00820738 0.000242245 0)
(-0.00827096 0.000223026 0)
(-0.00832883 0.000203436 0)
(-0.0083809 0.000183483 0)
(-0.00842708 0.000163171 0)
(-0.00846727 0.000142509 0)
(-0.00850139 0.000121505 0)
(-0.00852935 0.000100168 0)
(-0.00855107 7.85073e-05 0)
(-0.00856647 5.65349e-05 0)
(-0.00857547 3.42623e-05 0)
(-0.008578 1.17022e-05 0)
(-0.00857399 -1.11315e-05 0)
(-0.00856338 -3.42235e-05 0)
(-0.00854611 -5.75582e-05 0)
(-0.00852212 -8.11185e-05 0)
(-0.00849137 -0.000104886 0)
(-0.0084538 -0.000128842 0)
(-0.00840939 -0.000152965 0)
(-0.00835809 -0.000177234 0)
(-0.00829988 -0.000201626 0)
(-0.00823475 -0.000226118 0)
(-0.00816267 -0.000250684 0)
(-0.00808363 -0.000275299 0)
(-0.00799765 -0.000299936 0)
(-0.00790473 -0.000324566 0)
(-0.00780487 -0.00034916 0)
(-0.00769811 -0.000373689 0)
(-0.00758448 -0.000398121 0)
(-0.00746402 -0.000422425 0)
(-0.00733678 -0.000446568 0)
(-0.00720281 -0.000470517 0)
(-0.00706218 -0.000494239 0)
(-0.00691496 -0.000517699 0)
(-0.00676124 -0.000540862 0)
(-0.00660112 -0.000563693 0)
(-0.0064347 -0.000586158 0)
(-0.00626208 -0.000608219 0)
(-0.0060834 -0.000629843 0)
(-0.00589878 -0.000650994 0)
(-0.00570836 -0.000671637 0)
(-0.0055123 -0.000691737 0)
(-0.00531075 -0.00071126 0)
(-0.00510388 -0.000730175 0)
(-0.00489186 -0.000748447 0)
(-0.00467488 -0.000766047 0)
(-0.00445315 -0.000782945 0)
(-0.00422685 -0.000799113 0)
(-0.00399619 -0.000814521 0)
(-0.00376141 -0.000829141 0)
(-0.00352274 -0.000842933 0)
(-0.00328042 -0.00085584 0)
(-0.00303473 -0.000867762 0)
(-0.002786 -0.000878522 0)
(-0.00253462 -0.000887791 0)
(-0.00228109 -0.000894997 0)
(-0.00202615 -0.000899176 0)
(-0.00177081 -0.000898795 0)
(-0.00151656 -0.000891555 0)
(-0.00126555 -0.000874226 0)
(-0.0010208 -0.000842594 0)
(-0.000786418 -0.000791628 0)
(-0.000567824 -0.000715965 0)
(-0.000371831 -0.000610794 0)
(-0.000205596 -0.00047313 0)
(-8.3251e-05 -0.000303234 0)
(-9.35818e-06 -0.000107011 0)
(-7.59611e-06 0.000102739 0)
(-6.84428e-05 0.000294004 0)
(-0.000170384 0.000462253 0)
(-0.000309632 0.000600957 0)
(-0.000474374 0.000708561 0)
(-0.00065848 0.000787115 0)
(-0.000856154 0.000840984 0)
(-0.00106285 0.000875469 0)
(-0.00127519 0.000895744 0)
(-0.00149074 0.000906213 0)
(-0.00170783 0.000910256 0)
(-0.00192537 0.000910257 0)
(-0.00214264 0.000907775 0)
(-0.00235914 0.000903761 0)
(-0.00257458 0.000898758 0)
(-0.00278871 0.000893054 0)
(-0.00300136 0.000886792 0)
(-0.00321237 0.000880034 0)
(-0.00342162 0.000872807 0)
(-0.00362897 0.000865115 0)
(-0.0038343 0.000856958 0)
(-0.00403748 0.000848332 0)
(-0.0042384 0.000839231 0)
(-0.00443694 0.000829652 0)
(-0.00463297 0.000819592 0)
(-0.00482638 0.000809046 0)
(-0.00501704 0.000798013 0)
(-0.00520483 0.000786489 0)
(-0.00538964 0.000774471 0)
(-0.00557135 0.000761959 0)
(-0.00574984 0.000748949 0)
(-0.00592498 0.00073544 0)
(-0.00609666 0.00072143 0)
(-0.00626476 0.000706917 0)
(-0.00642917 0.000691901 0)
(-0.00658975 0.000676378 0)
(-0.00674641 0.000660349 0)
(-0.006899 0.000643811 0)
(-0.00704743 0.000626765 0)
(-0.00719157 0.000609208 0)
(-0.00733131 0.000591142 0)
(-0.00746652 0.000572564 0)
(-0.0075971 0.000553477 0)
(-0.00772293 0.000533878 0)
(-0.00784389 0.00051377 0)
(-0.00795987 0.000493154 0)
(-0.00807076 0.00047203 0)
(-0.00817645 0.000450401 0)
(-0.00827682 0.000428269 0)
(-0.00837176 0.000405637 0)
(-0.00846118 0.000382509 0)
(-0.00854495 0.000358888 0)
(-0.00862298 0.00033478 0)
(-0.00869516 0.00031019 0)
(-0.00876138 0.000285125 0)
(-0.00882156 0.000259592 0)
(-0.00887558 0.000233598 0)
(-0.00892336 0.000207153 0)
(-0.0089648 0.000180267 0)
(-0.00899981 0.000152951 0)
(-0.0090283 0.000125217 0)
(-0.00905019 9.70774e-05 0)
(-0.00906541 6.85476e-05 0)
(-0.00907386 3.96429e-05 0)
(-0.00907548 1.03801e-05 0)
(-0.0090702 -1.92229e-05 0)
(-0.00905796 -4.91465e-05 0)
(-0.00903869 -7.93701e-05 0)
(-0.00901234 -0.000109871 0)
(-0.00897886 -0.000140627 0)
(-0.00893821 -0.000171612 0)
(-0.00889035 -0.000202801 0)
(-0.00883524 -0.000234164 0)
(-0.00877286 -0.000265674 0)
(-0.0087032 -0.0002973 0)
(-0.00862623 -0.00032901 0)
(-0.00854196 -0.00036077 0)
(-0.00845038 -0.000392547 0)
(-0.00835152 -0.000424303 0)
(-0.00824538 -0.000456003 0)
(-0.00813199 -0.000487608 0)
(-0.00801139 -0.000519078 0)
(-0.00788362 -0.000550373 0)
(-0.00774874 -0.000581453 0)
(-0.0076068 -0.000612273 0)
(-0.00745789 -0.000642793 0)
(-0.00730207 -0.000672968 0)
(-0.00713944 -0.000702753 0)
(-0.0069701 -0.000732105 0)
(-0.00679416 -0.000760979 0)
(-0.00661174 -0.000789329 0)
(-0.00642296 -0.000817111 0)
(-0.00622797 -0.00084428 0)
(-0.00602691 -0.000870791 0)
(-0.00581994 -0.000896601 0)
(-0.00560723 -0.000921666 0)
(-0.00538896 -0.000945945 0)
(-0.0051653 -0.000969396 0)
(-0.00493646 -0.000991979 0)
(-0.00470264 -0.00101366 0)
(-0.00446406 -0.00103439 0)
(-0.00422093 -0.00105414 0)
(-0.00397349 -0.00107287 0)
(-0.00372199 -0.00109052 0)
(-0.0034667 -0.00110702 0)
(-0.00320789 -0.00112222 0)
(-0.00294593 -0.00113591 0)
(-0.0026812 -0.00114764 0)
(-0.00241426 -0.0011567 0)
(-0.00214582 -0.00116186 0)
(-0.00187693 -0.00116122 0)
(-0.00160909 -0.00115192 0)
(-0.00134447 -0.00112996 0)
(-0.00108611 -0.00109013 0)
(-0.000838233 -0.00102616 0)
(-0.000606428 -0.00093129 0)
(-0.000397888 -0.000799112 0)
(-0.000220342 -0.000624878 0)
(-8.92878e-05 -0.000406762 0)
(-1.00278e-05 -0.00014753 0)
(-7.99945e-06 0.000135552 0)
(-7.2151e-05 0.000379045 0)
(-0.000179602 0.00058797 0)
(-0.000326121 0.00075778 0)
(-0.000499014 0.000888435 0)
(-0.000691731 0.00098342 0)
(-0.000898188 0.00104847 0)
(-0.00111369 0.00109015 0)
(-0.00133479 0.00111471 0)
(-0.00155903 0.00112745 0)
(-0.00178476 0.00113241 0)
(-0.00201089 0.00113242 0)
(-0.00223667 0.00112937 0)
(-0.00246165 0.0011244 0)
(-0.0026855 0.00111817 0)
(-0.00290799 0.00111103 0)
(-0.00312892 0.00110317 0)
(-0.00334814 0.00109466 0)
(-0.0035655 0.00108555 0)
(-0.00378087 0.00107585 0)
(-0.00399413 0.00106555 0)
(-0.00420513 0.00105466 0)
(-0.00441375 0.00104317 0)
(-0.00461987 0.00103108 0)
(-0.00482335 0.00101838 0)
(-0.00502409 0.00100508 0)
(-0.00522194 0.000991166 0)
(-0.00541678 0.000976639 0)
(-0.00560849 0.000961496 0)
(-0.00579695 0.000945735 0)
(-0.00598203 0.000929356 0)
(-0.00616361 0.000912356 0)
(-0.00634156 0.000894734 0)
(-0.00651577 0.000876488 0)
(-0.0066861 0.000857617 0)
(-0.00685244 0.00083812 0)
(-0.00701466 0.000817995 0)
(-0.00717264 0.000797244 0)
(-0.00732627 0.000775863 0)
(-0.00747542 0.000753855 0)
(-0.00761996 0.000731217 0)
(-0.00775979 0.000707951 0)
(-0.00789478 0.000684058 0)
(-0.00802482 0.000659537 0)
(-0.00814978 0.000634392 0)
(-0.00826955 0.000608623 0)
(-0.00838402 0.000582233 0)
(-0.00849307 0.000555225 0)
(-0.00859659 0.000527602 0)
(-0.00869446 0.000499369 0)
(-0.00878657 0.00047053 0)
(-0.00887282 0.000441091 0)
(-0.0089531 0.00041106 0)
(-0.00902729 0.000380442 0)
(-0.00909531 0.000349247 0)
(-0.00915704 0.000317484 0)
(-0.00921239 0.000285162 0)
(-0.00926125 0.000252295 0)
(-0.00930354 0.000218893 0)
(-0.00933916 0.000184973 0)
(-0.00936803 0.000150547 0)
(-0.00939006 0.000115634 0)
(-0.00940516 8.02505e-05 0)
(-0.00941326 4.44166e-05 0)
(-0.00941429 8.15318e-06 0)
(-0.00940817 -2.85174e-05 0)
(-0.00939484 -6.55711e-05 0)
(-0.00937425 -0.000102982 0)
(-0.00934632 -0.000140723 0)
(-0.00931103 -0.000178766 0)
(-0.00926831 -0.000217079 0)
(-0.00921814 -0.000255629 0)
(-0.00916049 -0.000294384 0)
(-0.00909532 -0.000333307 0)
(-0.00902261 -0.000372361 0)
(-0.00894237 -0.000411507 0)
(-0.00885458 -0.000450704 0)
(-0.00875925 -0.000489909 0)
(-0.00865638 -0.000529079 0)
(-0.00854601 -0.000568169 0)
(-0.00842816 -0.000607131 0)
(-0.00830286 -0.000645918 0)
(-0.00817016 -0.00068448 0)
(-0.00803013 -0.000722767 0)
(-0.00788282 -0.000760727 0)
(-0.0077283 -0.000798309 0)
(-0.00756667 -0.000835458 0)
(-0.00739801 -0.000872121 0)
(-0.00722243 -0.000908244 0)
(-0.00704004 -0.000943771 0)
(-0.00685097 -0.000978649 0)
(-0.00665534 -0.00101282 0)
(-0.00645331 -0.00104624 0)
(-0.00624503 -0.00107884 0)
(-0.00603065 -0.00111057 0)
(-0.00581036 -0.00114138 0)
(-0.00558433 -0.00117123 0)
(-0.00535276 -0.00120005 0)
(-0.00511584 -0.0012278 0)
(-0.0048738 -0.00125443 0)
(-0.00462685 -0.00127989 0)
(-0.00437522 -0.00130414 0)
(-0.00411915 -0.00132712 0)
(-0.00385891 -0.00134877 0)
(-0.00359476 -0.00136897 0)
(-0.00332702 -0.00138757 0)
(-0.00305601 -0.00140427 0)
(-0.00278217 -0.00141856 0)
(-0.00250603 -0.00142954 0)
(-0.00222832 -0.00143576 0)
(-0.00195008 -0.00143493 0)
(-0.00167282 -0.00142363 0)
(-0.00139871 -0.00139707 0)
(-0.00113083 -0.00134903 0)
(-0.000873455 -0.00127194 0)
(-0.00063237 -0.00115746 0)
(-0.000415098 -0.00099742 0)
(-0.000229835 -0.000785015 0)
(-9.30191e-05 -0.00051607 0)
(-1.04166e-05 -0.00019025 0)
(-8.22934e-06 0.000169694 0)
(-7.43905e-05 0.000467657 0)
(-0.00018539 0.00071897 0)
(-0.000336736 0.000920982 0)
(-0.000515158 0.00107529 0)
(-0.000713785 0.00118697 0)
(-0.000926294 0.00126327 0)
(-0.00114786 0.00131211 0)
(-0.00137496 0.0013409 0)
(-0.00160514 0.00135584 0)
(-0.00183673 0.00136164 0)
(-0.00206865 0.00136161 0)
(-0.00230018 0.00135794 0)
(-0.00253086 0.00135196 0)
(-0.00276036 0.00134445 0)
(-0.00298844 0.00133582 0)
(-0.00321492 0.00132629 0)
(-0.00343964 0.00131598 0)
(-0.00366245 0.00130491 0)
(-0.0038832 0.00129311 0)
(-0.00410177 0.00128059 0)
(-0.00431801 0.00126734 0)
(-0.0045318 0.00125337 0)
(-0.00474301 0.00123867 0)
(-0.0049515 0.00122323 0)
(-0.00515715 0.00120706 0)
(-0.00535984 0.00119015 0)
(-0.00555942 0.0011725 0)
(-0.00575578 0.00115411 0)
(-0.00594878 0.00113498 0)
(-0.0061383 0.0011151 0)
(-0.00632421 0.00109448 0)
(-0.00650639 0.00107311 0)
(-0.00668471 0.00105099 0)
(-0.00685905 0.00102812 0)
(-0.00702928 0.00100451 0)
(-0.00719527 0.000980139 0)
(-0.0073569 0.000955022 0)
(-0.00751406 0.000929154 0)
(-0.0076666 0.000902536 0)
(-0.00781443 0.000875168 0)
(-0.0079574 0.000847052 0)
(-0.00809541 0.000818188 0)
(-0.00822833 0.000788579 0)
(-0.00835603 0.000758227 0)
(-0.00847842 0.000727134 0)
(-0.00859536 0.000695304 0)
(-0.00870674 0.000662741 0)
(-0.00881244 0.00062945 0)
(-0.00891236 0.000595437 0)
(-0.00900637 0.000560706 0)
(-0.00909437 0.000525267 0)
(-0.00917625 0.000489127 0)
(-0.00925191 0.000452296 0)
(-0.00932123 0.000414783 0)
(-0.00938411 0.0003766 0)
(-0.00944046 0.000337761 0)
(-0.00949017 0.000298279 0)
(-0.00953314 0.000258169 0)
(-0.0095693 0.00021745 0)
(-0.00959854 0.000176138 0)
(-0.00962078 0.000134254 0)
(-0.00963593 9.18199e-05 0)
(-0.00964392 4.8859e-05 0)
(-0.00964468 5.39627e-06 0)
(-0.00963813 -3.85413e-05 0)
(-0.0096242 -8.29249e-05 0)
(-0.00960285 -0.000127724 0)