/*--------------------------------*- C++ -*----------------------------------*\
| =========                 |                                                 |
| \\      /  F ield         | OpenFOAM: The Open Source CFD Toolbox           |
|  \\    /   O peration     | Version:  2406                                  |
|   \\  /    A nd           | Website:  www.openfoam.com                      |
|    \\/     M anipulation  |                                                 |
\*---------------------------------------------------------------------------*/
FoamFile
{
    version     2.0;
    format      ascii;
    arch        "LSB;label=32;scalar=64";
    class       surfaceScalarField;
    location    "45.25";
    object      phi;
}
// * * * * * * * * * * * * * * * * * * * * * * * * * * * * * * * * * * * * * //

dimensions      [0 3 -1 0 0 0 0];

oriented        oriented;

internalField   nonuniform List<scalar> 
32512
(
-9.70205e-09
9.66108e-09
2.62129e-08
-3.59151e-08
1.18593e-07
-9.23811e-08
2.60704e-07
-1.4211e-07
4.39664e-07
-1.7896e-07
6.41281e-07
-2.01617e-07
8.51981e-07
-2.107e-07
1.05981e-06
-2.07824e-07
1.25501e-06
-1.952e-07
1.43038e-06
-1.75373e-07
1.58137e-06
-1.50987e-07
1.70594e-06
-1.24576e-07
1.80432e-06
-9.83757e-08
1.87851e-06
-7.41913e-08
1.93182e-06
-5.33133e-08
1.96831e-06
-3.64884e-08
1.99225e-06
-2.39357e-08
2.00765e-06
-1.54016e-08
2.01789e-06
-1.02402e-08
2.0254e-06
-7.51287e-09
2.03153e-06
-6.13406e-09
2.03649e-06
-4.95953e-09
2.03922e-06
-2.72744e-09
2.03766e-06
1.56233e-09
2.02935e-06
8.30691e-09
2.01096e-06
1.83888e-08
1.9789e-06
3.20658e-08
1.92941e-06
4.94927e-08
1.85868e-06
7.07261e-08
1.76291e-06
9.57729e-08
1.63825e-06
1.24656e-07
1.48083e-06
1.5742e-07
1.28668e-06
1.94151e-07
1.05172e-06
2.34956e-07
7.71794e-07
2.7993e-07
4.42651e-07
3.29143e-07
6.00678e-08
3.82583e-07
-3.80069e-07
4.40137e-07
-8.81671e-07
5.01602e-07
-1.4483e-06
5.66631e-07
-2.08305e-06
6.34744e-07
-2.78837e-06
7.05324e-07
-3.56599e-06
7.77617e-07
-4.41672e-06
8.50733e-07
-5.34038e-06
9.23659e-07
-6.33565e-06
9.9527e-07
-7.4e-06
1.06435e-06
-8.5296e-06
1.12961e-06
-9.71931e-06
1.1897e-06
-1.09626e-05
1.24329e-06
-1.22516e-05
1.289e-06
-1.35771e-05
1.32552e-06
-1.49287e-05
1.35159e-06
-1.62947e-05
1.36602e-06
-1.76624e-05
1.36772e-06
-1.90182e-05
1.35571e-06
-2.03473e-05
1.32916e-06
-2.16347e-05
1.28735e-06
-2.28644e-05
1.22974e-06
-2.40203e-05
1.15595e-06
-2.50861e-05
1.06575e-06
-2.60453e-05
9.59151e-07
-2.68816e-05
8.36371e-07
-2.75795e-05
6.97914e-07
-2.8124e-05
5.445e-07
-2.8501e-05
3.76955e-07
-2.86973e-05
1.9633e-07
-2.87057e-05
8.36641e-09
-2.85015e-05
-2.04169e-07
-2.80887e-05
-4.12805e-07
-2.74608e-05
-6.27945e-07
-2.66139e-05
-8.46826e-07
-2.55486e-05
-1.06535e-06
-2.42685e-05
-1.28006e-06
-2.27813e-05
-1.48726e-06
-2.10982e-05
-1.68308e-06
-1.92347e-05
-1.86353e-06
-1.72101e-05
-2.02459e-06
-1.50477e-05
-2.16237e-06
-1.27745e-05
-2.27321e-06
-1.04206e-05
-2.35385e-06
-8.01906e-06
-2.40159e-06
-5.60465e-06
-2.41441e-06
-3.21352e-06
-2.39112e-06
-8.8195e-07
-2.33157e-06
1.35498e-06
-2.23693e-06
3.46369e-06
-2.10871e-06
5.41339e-06
-1.9497e-06
7.17733e-06
-1.76394e-06
8.73387e-06
-1.55654e-06
1.00666e-05
-1.33274e-06
1.11651e-05
-1.0985e-06
1.20251e-05
-8.59935e-07
1.26482e-05
-6.23113e-07
1.3042e-05
-3.93783e-07
1.32192e-05
-1.77222e-07
1.31965e-05
2.26259e-08
1.29953e-05
2.01258e-07
1.26385e-05
3.56742e-07
1.21508e-05
4.87787e-07
1.15571e-05
5.9364e-07
1.08826e-05
6.74542e-07
1.01509e-05
7.31659e-07
9.38409e-06
7.66833e-07
8.6017e-06
7.82387e-07
7.82075e-06
7.80952e-07
7.05543e-06
7.65316e-07
6.31715e-06
7.38279e-07
5.61462e-06
7.02536e-07
4.95403e-06
6.60584e-07
4.33937e-06
6.14662e-07
3.77265e-06
5.66717e-07
3.25426e-06
5.1839e-07
2.78324e-06
4.71029e-07
2.35754e-06
4.25691e-07
1.97438e-06
3.83161e-07
1.63044e-06
3.43944e-07
1.3222e-06
3.08237e-07
1.04632e-06
2.75878e-07
8.00039e-07
2.46284e-07
5.8166e-07
2.18379e-07
3.9109e-07
1.9057e-07
2.30282e-07
1.60808e-07
1.03415e-07
1.26867e-07
1.62625e-08
8.71528e-08
-2.6332e-08
4.25946e-08
-2.54069e-08
-9.25149e-10
-2.54069e-08
3.40049e-08
-2.43441e-08
1.77612e-07
-1.79522e-07
4.4148e-07
-3.56249e-07
8.10336e-07
-5.10966e-07
1.25844e-06
-6.2706e-07
1.75613e-06
-6.99314e-07
2.27382e-06
-7.28388e-07
2.78452e-06
-7.18524e-07
3.26557e-06
-6.76254e-07
3.69964e-06
-6.09439e-07
4.0751e-06
-5.26444e-07
4.38592e-06
-4.35397e-07
4.63112e-06
-3.4358e-07
4.81389e-06
-2.56956e-07
4.94044e-06
-1.79867e-07
5.01886e-06
-1.1491e-07
5.05787e-06
-6.29482e-08
5.06574e-06
-2.32664e-08
5.04933e-06
6.16847e-09
5.01337e-06
2.84528e-08
4.96e-06
4.72324e-08
4.8886e-06
6.64414e-08
4.79596e-06
8.99118e-08
4.67652e-06
1.20999e-07
4.52248e-06
1.62348e-07
4.32485e-06
2.16016e-07
4.07362e-06
2.83296e-07
3.75822e-06
3.64899e-07
3.3678e-06
4.61146e-07
2.89144e-06
5.72134e-07
2.31818e-06
6.97915e-07
1.63708e-06
8.38518e-07
8.37227e-07
9.94004e-07
-9.22035e-08
1.16439e-06
-1.16183e-06
1.34956e-06
-2.38181e-06
1.54913e-06
-3.76166e-06
1.76243e-06
-5.30986e-06
1.98834e-06
-7.03355e-06
2.22529e-06
-8.93812e-06
2.4712e-06
-1.10269e-05
2.72348e-06
-1.33006e-05
2.97907e-06
-1.57574e-05
3.23441e-06
-1.83922e-05
3.48558e-06
-2.11969e-05
3.72829e-06
-2.41596e-05
3.95804e-06
-2.72655e-05
4.17017e-06
-3.04958e-05
4.35998e-06
-3.3829e-05
4.52288e-06
-3.72402e-05
4.65444e-06
-4.07017e-05
4.75055e-06
-4.41836e-05
4.80746e-06
-4.7654e-05
4.8219e-06
-5.1079e-05
4.79109e-06
-5.44241e-05
4.71281e-06
-5.76538e-05
4.58542e-06
-6.07325e-05
4.40783e-06
-6.36247e-05
4.17956e-06
-6.62956e-05
3.90067e-06
-6.87115e-05
3.57178e-06
-7.08398e-05
3.19408e-06
-7.265e-05
2.7693e-06
-7.41134e-05
2.29986e-06
-7.52044e-05
1.78882e-06
-7.58994e-05
1.23959e-06
-7.61787e-05
6.56212e-07
-7.60372e-05
5.48317e-08
-7.54308e-05
-5.98029e-07
-7.43746e-05
-1.26034e-06
-7.28545e-05
-1.93299e-06
-7.08719e-05
-2.61054e-06
-6.84327e-05
-3.28603e-06
-6.5547e-05
-3.95105e-06
-6.22306e-05
-4.59647e-06
-5.85051e-05
-5.21268e-06
-5.43985e-05
-5.78974e-06
-4.99445e-05
-6.31755e-06
-4.5183e-05
-6.78604e-06
-4.01599e-05
-7.18547e-06
-3.49264e-05
-7.50671e-06
-2.95387e-05
-7.74158e-06
-2.40571e-05
-7.88316e-06
-1.85453e-05
-7.92619e-06
-1.30691e-05
-7.86734e-06
-7.69511e-06
-7.70557e-06
-2.48968e-06
-7.44236e-06
2.48357e-06
-7.08196e-06
7.16468e-06
-6.63081e-06
1.14972e-05
-6.09643e-06
1.54333e-05
-5.49267e-06
1.89325e-05
-4.83195e-06
2.19635e-05
-4.12946e-06
2.45049e-05
-3.40138e-06
2.65461e-05
-2.66435e-06
2.80872e-05
-1.93487e-06
2.91387e-05
-1.22874e-06
2.97217e-05
-5.60352e-07
2.9864e-05
5.89992e-08
2.96059e-05
6.14797e-07
2.89888e-05
1.10491e-06
2.80609e-05
1.52151e-06
2.68732e-05
1.86232e-06
2.54772e-05
2.12761e-06
2.3924e-05
2.32007e-06
2.22619e-05
2.44442e-06
2.05359e-05
2.50699e-06
1.87859e-05
2.51528e-06
1.70467e-05
2.47749e-06
1.53472e-05
2.40203e-06
1.37106e-05
2.29722e-06
1.21543e-05
2.17092e-06
1.06908e-05
2.03029e-06
9.32746e-06
1.8817e-06
8.06793e-06
1.73056e-06
6.91225e-06
1.58137e-06
5.85781e-06
1.43761e-06
4.90003e-06
1.30172e-06
4.03326e-06
1.17501e-06
3.25164e-06
1.0575e-06
2.55017e-06
9.47755e-07
1.92578e-06
8.42776e-07
1.37834e-06
7.38011e-07
9.11409e-07
6.27735e-07
5.32218e-07
5.06057e-07
2.50285e-07
3.69085e-07
7.38886e-08
2.18991e-07
1.01001e-09
7.19535e-08
-2.43969e-08
8.66155e-08
-1.1096e-07
3.4498e-07
-4.37885e-07
7.63869e-07
-7.75138e-07
1.31848e-06
-1.06558e-06
1.97427e-06
-1.28285e-06
2.69218e-06
-1.41723e-06
3.43295e-06
-1.46916e-06
4.16034e-06
-1.44591e-06
4.84347e-06
-1.35939e-06
5.45827e-06
-1.22424e-06
5.98806e-06
-1.05623e-06
6.42351e-06
-8.70841e-07
6.76192e-06
-6.81997e-07
7.00617e-06
-5.01201e-07
7.1632e-06
-3.36901e-07
7.24249e-06
-1.94199e-07
7.25438e-06
-7.48404e-08
7.2086e-06
2.25173e-08
7.11296e-06
1.01811e-07
6.9723e-06
1.69112e-07
6.78787e-06
2.3166e-07
6.55706e-06
2.97251e-07
6.27351e-06
3.73466e-07
5.92745e-06
4.67056e-07
5.50625e-06
5.8355e-07
4.99521e-06
7.27058e-07
4.37819e-06
9.00308e-07
3.63823e-06
1.10486e-06
2.75793e-06
1.34144e-06
1.7199e-06
1.61017e-06
5.06781e-07
1.91103e-06
-8.98391e-07
2.24369e-06
-2.51206e-06
2.60768e-06
-4.3499e-06
3.00222e-06
-6.42639e-06
3.42605e-06
-8.75447e-06
3.8772e-06
-1.13449e-05
4.35285e-06
-1.42057e-05
4.84916e-06
-1.73416e-05
5.36123e-06
-2.07535e-05
5.8831e-06
-2.44378e-05
6.40776e-06
-2.83861e-05
6.92731e-06
-3.25847e-05
7.43307e-06
-3.70149e-05
7.91578e-06
-4.16525e-05
8.36588e-06
-4.64682e-05
8.77374e-06
-5.1428e-05
9.12994e-06
-5.64935e-05
9.42553e-06
-6.16229e-05
9.65227e-06
-6.67714e-05
9.80288e-06
-7.1892e-05
9.87114e-06
-7.69366e-05
9.85206e-06
-8.18566e-05
9.74191e-06
-8.66037e-05
9.53824e-06
-9.11308e-05
9.23985e-06
-9.5392e-05
8.84669e-06
-9.93441e-05
8.35985e-06
-0.000102946
7.78139e-06
-0.000106159
7.11427e-06
-0.00010895
6.36227e-06
-0.000111286
5.5299e-06
-0.000113139
4.62245e-06
-0.000114485
3.64597e-06
-0.000115303
2.60723e-06
-0.000115578
1.51369e-06
-0.0001153
3.78504e-07
-0.000114439
-8.05759e-07
-0.000113014
-2.02344e-06
-0.000111015
-3.25901e-06
-0.000108446
-4.50255e-06
-0.000105313
-5.74314e-06
-0.00010163
-6.96857e-06
-9.7416e-05
-8.16548e-06
-9.26929e-05
-9.31959e-06
-8.74897e-05
-1.04159e-05
-8.18406e-05
-1.14389e-05
-7.57854e-05
-1.23727e-05
-6.93697e-05
-1.32017e-05
-6.26447e-05
-1.39105e-05
-5.56669e-05
-1.44846e-05
-4.84977e-05
-1.49108e-05
-4.12031e-05
-1.51777e-05
-3.38528e-05
-1.52765e-05
-2.65191e-05
-1.5201e-05
-1.92763e-05
-1.49484e-05
-1.21991e-05
-1.45196e-05
-5.36158e-06
-1.39195e-05
1.16456e-06
-1.31569e-05
7.31417e-06
-1.2246e-05
1.30228e-05
-1.12013e-05
1.82352e-05
-1.00444e-05
2.2905e-05
-8.79925e-06
2.69946e-05
-7.49095e-06
3.0477e-05
-6.14672e-06
3.33363e-05
-4.79419e-06
3.55684e-05
-3.4609e-06
3.71809e-05
-2.17277e-06
3.81942e-05
-9.54328e-07
3.86386e-05
1.70358e-07
3.85513e-05
1.19222e-06
3.79818e-05
2.09099e-06
3.69856e-05
2.85856e-06
3.56229e-05
3.49028e-06
3.3957e-05
3.98595e-06
3.20519e-05
4.34958e-06
2.997e-05
4.58884e-06
2.77709e-05
4.71446e-06
2.55089e-05
4.73943e-06
2.32327e-05
4.67827e-06
2.09837e-05
4.54618e-06
1.87963e-05
4.35832e-06
1.66974e-05
4.12924e-06
1.47067e-05
3.87234e-06
1.28377e-05
3.59958e-06
1.10979e-05
3.32118e-06
9.49005e-06
3.04543e-06
8.01322e-06
2.77854e-06
6.66388e-06
2.52435e-06
5.43731e-06
2.28407e-06
4.32903e-06
2.05604e-06
3.33624e-06
1.83556e-06
2.4592e-06
1.61505e-06
1.70205e-06
1.38488e-06
1.07293e-06
1.13518e-06
5.8262e-07
8.59397e-07
2.41183e-07
5.60429e-07
5.16731e-08
2.61464e-07
2.72763e-08
1.32449e-07
-2.43409e-07
4.91812e-07
-7.97248e-07
1.04409e-06
-1.32742e-06
1.75127e-06
-1.77275e-06
2.56962e-06
-2.1012e-06
3.45243e-06
-2.30005e-06
4.35361e-06
-2.37033e-06
5.23083e-06
-2.32313e-06
6.04798e-06
-2.17654e-06
6.7767e-06
-1.95296e-06
7.39704e-06
-1.67658e-06
7.89733e-06
-1.37113e-06
8.27338e-06
-1.05805e-06
8.52721e-06
-7.55031e-07
8.66538e-06
-4.75069e-07
8.69715e-06
-2.25972e-07
8.63259e-06
-1.02791e-08
8.48092e-06
1.74191e-07
8.24876e-06
3.33973e-07
7.93919e-06
4.78675e-07
7.55089e-06
6.19965e-07
7.07782e-06
7.70322e-07
6.5094e-06
9.41881e-07
5.831e-06
1.14546e-06
5.02462e-06
1.38993e-06
4.06981e-06
1.68187e-06
2.94448e-06
2.02564e-06
1.62571e-06
2.42364e-06
9.02726e-08
2.87688e-06
-1.68486e-06
3.38531e-06
-3.72188e-06
3.94805e-06
-6.04194e-06
4.56376e-06
-8.66463e-06
5.23036e-06
-1.16073e-05
5.94489e-06
-1.48844e-05
6.70318e-06
-1.85069e-05
7.49963e-06
-2.24809e-05
8.32691e-06
-2.68077e-05
9.17592e-06
-3.14822e-05
1.00358e-05
-3.6493e-05
1.08939e-05
-4.18215e-05
1.17362e-05
-4.7442e-05
1.25478e-05
-5.33218e-05
1.33129e-05
-5.94216e-05
1.40155e-05
-6.56959e-05
1.46402e-05
-7.20945e-05
1.51723e-05
-7.85628e-05
1.55983e-05
-8.50437e-05
1.59065e-05
-9.14787e-05
1.60873e-05
-9.78089e-05
1.6133e-05
-0.000103976
1.60386e-05
-0.000109925
1.58008e-05
-0.000115602
1.54189e-05
-0.000120958
1.48937e-05
-0.000125946
1.4228e-05
-0.000130525
1.3426e-05
-0.000134658
1.2493e-05
-0.000138312
1.14354e-05
-0.000141458
1.02604e-05
-0.000144072
8.97596e-06
-0.000146132
7.59036e-06
-0.000147622
6.11256e-06
-0.000148529
4.55204e-06
-0.00014884
2.91912e-06
-0.000148553
1.2263e-06
-0.000147658
-5.16912e-07
-0.00014615
-2.31319e-06
-0.00014404
-4.13376e-06
-0.00014133
-5.96885e-06
-0.000138028
-7.80485e-06
-0.000134144
-9.62679e-06
-0.000129694
-1.14186e-05
-0.000124697
-1.31628e-05
-0.000119175
-1.48412e-05
-0.000113157
-1.64342e-05
-0.000106674
-1.79216e-05
-9.97642e-05
-1.92827e-05
-9.24693e-05
-2.04966e-05
-8.4837e-05
-2.15428e-05
-7.692e-05
-2.24015e-05
-6.87762e-05
-2.30546e-05
-6.04681e-05
-2.34859e-05
-5.20623e-05
-2.36823e-05
-4.36293e-05
-2.3634e-05
-3.52421e-05
-2.33356e-05
-2.69753e-05
-2.27863e-05
-1.89043e-05
-2.19905e-05
-1.11032e-05
-2.0958e-05
-3.6451e-06
-1.97042e-05
3.40321e-06
-1.82496e-05
9.97842e-06
-1.66196e-05
1.60227e-05
-1.48435e-05
2.14869e-05
-1.29552e-05
2.63312e-05
-1.0991e-05
3.05251e-05
-8.98804e-06
3.40485e-05
-6.98439e-06
3.68928e-05
-5.017e-06
3.90604e-05
-3.12195e-06
4.05631e-05
-1.33239e-06
4.14337e-05
3.21674e-07
4.16997e-05
1.82494e-06
4.14095e-05
3.14882e-06
4.0617e-05
4.28278e-06
3.9383e-05
5.21991e-06
3.77732e-05
5.9594e-06
3.58558e-05
6.50629e-06
3.36993e-05
6.87093e-06
3.13705e-05
7.06818e-06
2.89324e-05
7.11642e-06
2.64421e-05
7.03642e-06
2.39502e-05
6.85028e-06
2.14992e-05
6.58024e-06
1.91237e-05
6.24783e-06
1.68503e-05
5.87299e-06
1.4698e-05
5.47348e-06
1.26791e-05
5.06432e-06
1.08003e-05
4.65732e-06
9.06407e-06
4.26059e-06
7.47005e-06
3.87809e-06
6.01693e-06
3.50917e-06
4.70405e-06
3.14844e-06
3.53306e-06
2.78605e-06
2.50907e-06
2.40887e-06
1.64124e-06
2.003e-06
9.42287e-07
1.55835e-06
4.26853e-07
1.07586e-06
1.08922e-07
5.79395e-07
1.36199e-07
1.68481e-07
-4.1189e-07
6.10759e-07
-1.23953e-06
1.27304e-06
-1.9897e-06
2.1031e-06
-2.60281e-06
3.04706e-06
-3.04517e-06
4.05067e-06
-3.30365e-06
5.06193e-06
-3.3816e-06
6.03398e-06
-3.29518e-06
6.92723e-06
-3.06978e-06
7.71072e-06
-2.73645e-06
8.36265e-06
-2.32851e-06
8.87002e-06
-1.8785e-06
9.22765e-06
-1.41568e-06
9.4367e-06
-9.64078e-07
9.50278e-06
-5.41151e-07
9.43397e-06
-1.5716e-07
9.23878e-06
1.84913e-07
8.92415e-06
4.88821e-07
8.49397e-06
7.64153e-07
7.94776e-06
1.02488e-06
7.27996e-06
1.28777e-06
6.47968e-06
1.5706e-06
5.531e-06
1.89056e-06
4.41364e-06
2.26283e-06
3.10376e-06
2.6998e-06
1.57518e-06
3.21045e-06
-1.99747e-07
3.80056e-06
-2.24915e-06
4.47304e-06
-4.60071e-06
5.22844e-06
-7.28102e-06
6.06562e-06
-1.03149e-05
6.98192e-06
-1.37245e-05
7.97333e-06
-1.75284e-05
9.03425e-06
-2.17407e-05
1.01572e-05
-2.63701e-05
1.13326e-05
-3.14185e-05
1.2548e-05
-3.68804e-05
1.37888e-05
-4.27419e-05
1.50374e-05
-4.89803e-05
1.62742e-05
-5.55639e-05
1.74774e-05
-6.24521e-05
1.86245e-05
-6.95965e-05
1.96922e-05
-7.69413e-05
2.06577e-05
-8.44253e-05
2.14995e-05
-9.19832e-05
2.21981e-05
-9.95474e-05
2.27365e-05
-0.00010705
2.31008e-05
-0.000114424
2.32807e-05
-0.000121606
2.32691e-05
-0.000128535
2.30624e-05
-0.000135157
2.26601e-05
-0.000141421
2.20646e-05
-0.000147282
2.12806e-05
-0.000152703
2.03148e-05
-0.000157651
1.91753e-05
-0.000162096
1.78715e-05
-0.000166017
1.64134e-05
-0.000169393
1.48118e-05
-0.00017221
1.30776e-05
-0.000174456
1.12218e-05
-0.000176121
9.2557e-06
-0.000177199
7.19053e-06
-0.000177685
5.03773e-06
-0.000177576
2.80954e-06
-0.000176874
5.24682e-07
-0.000175567
-1.82396e-06
-0.000173669
-4.2109e-06
-0.000171181
-6.62178e-06
-0.000168107
-9.04247e-06
-0.000164455
-1.14573e-05
-0.000160233
-1.38491e-05
-0.000155452
-1.6199e-05
-0.000150128
-1.84868e-05
-0.000144279
-2.06907e-05
-0.000137926
-2.27875e-05
-0.000131094
-2.47529e-05
-0.000123816
-2.65614e-05
-0.000116125
-2.81873e-05
-0.000108063
-2.96047e-05
-9.96758e-05
-3.07885e-05
-9.10154e-05
-3.1715e-05
-8.21385e-05
-3.23628e-05
-7.31073e-05
-3.27136e-05
-6.39881e-05
-3.27532e-05
-5.48514e-05
-3.24723e-05
-4.57702e-05
-3.18675e-05
-3.68193e-05
-3.09413e-05
-2.80741e-05
-2.97033e-05
-1.96086e-05
-2.81696e-05
-1.1495e-05
-2.63632e-05
-3.80134e-06
-2.43133e-05
3.41033e-06
-2.20552e-05
1.00835e-05
-1.96283e-05
1.61681e-05
-1.70757e-05
2.16234e-05
-1.44433e-05
2.64178e-05
-1.17788e-05
3.05289e-05
-9.12802e-06
3.39445e-05
-6.53757e-06
3.66624e-05
-4.05034e-06
3.86899e-05
-1.70582e-06
4.00547e-05
4.60199e-07
4.07777e-05
2.42574e-06
4.09017e-05
4.15884e-06
4.04755e-05
5.64607e-06
3.95561e-05
6.87877e-06
3.82067e-05
7.85571e-06
3.64947e-05
8.58296e-06
3.44896e-05
9.07328e-06
3.22607e-05
9.34529e-06
2.98749e-05
9.42229e-06
2.73942e-05
9.33093e-06
2.48748e-05
9.09969e-06
2.23651e-05
8.75751e-06
1.99056e-05
8.33246e-06
1.75285e-05
7.85055e-06
1.52582e-05
7.3347e-06
1.31117e-05
6.8038e-06
1.11004e-05
6.27189e-06
9.23119e-06
5.74729e-06
7.50837e-06
5.23198e-06
5.93549e-06
4.72132e-06
4.51723e-06
4.20431e-06
3.26104e-06
3.66506e-06
2.17844e-06
3.0856e-06
1.28583e-06
2.45097e-06
6.04973e-07
1.75672e-06
1.63913e-07
1.02045e-06
3.00111e-07
1.96156e-07
-6.08046e-07
7.0445e-07
-1.74782e-06
1.45463e-06
-2.73988e-06
2.38066e-06
-3.52884e-06
3.41804e-06
-4.08254e-06
4.5046e-06
-4.39021e-06
5.58271e-06
-4.45971e-06
6.60164e-06
-4.31411e-06
7.51935e-06
-3.98749e-06
8.30348e-06
-3.52059e-06
8.9315e-06
-2.95652e-06
9.38998e-06
-2.33699e-06
9.67335e-06
-1.69905e-06
9.78205e-06
-1.07278e-06
9.7205e-06
-4.79601e-07
9.4949e-06
6.84457e-08
9.11104e-06
5.68774e-07
8.57237e-06
1.02748e-06
7.87842e-06
1.45811e-06
7.02355e-06
1.87975e-06
5.99646e-06
2.31486e-06
4.78011e-06
2.78695e-06
3.3522e-06
3.31846e-06
1.68634e-06
3.92869e-06
-2.47298e-07
4.63344e-06
-2.48022e-06
5.44338e-06
-5.04451e-06
6.36485e-06
-7.97168e-06
7.40021e-06
-1.12916e-05
8.54837e-06
-1.50314e-05
9.80541e-06
-1.92143e-05
1.11648e-05
-2.38584e-05
1.26174e-05
-2.89754e-05
1.41513e-05
-3.45695e-05
1.57513e-05
-4.06356e-05
1.73987e-05
-4.71589e-05
1.90714e-05
-5.41139e-05
2.07438e-05
-6.14643e-05
2.23877e-05
-6.91629e-05
2.39728e-05
-7.71535e-05
2.5468e-05
-8.53711e-05
2.68422e-05
-9.3745e-05
2.8066e-05
-0.0001022
2.91128e-05
-0.00011066
2.99594e-05
-0.000119049
3.0587e-05
-0.000127294
3.09814e-05
-0.000135326
3.11334e-05
-0.000143084
3.10386e-05
-0.000150512
3.06968e-05
-0.000157561
3.01115e-05
-0.000164191
2.92896e-05
-0.000170366
2.82402e-05
-0.00017606
2.69746e-05
-0.000181251
2.55051e-05
-0.00018592
2.38448e-05
-0.000190056
2.20072e-05
-0.000193648
2.00059e-05
-0.000196691
1.78542e-05
-0.000199178
1.5565e-05
-0.000201107
1.3151e-05
-0.000202476
1.06244e-05
-0.000203283
7.99735e-06
-0.000203527
5.28161e-06
-0.000203207
2.48998e-06
-0.000202323
-3.58955e-07
-0.000200873
-3.27441e-06
-0.000198861
-6.22329e-06
-0.000196286
-9.19635e-06
-0.00019315
-1.21784e-05
-0.000189455
-1.51522e-05
-0.000185205
-1.80991e-05
-0.000180406
-2.09984e-05
-0.000175065
-2.38277e-05
-0.000169193
-2.65623e-05
-0.000162805
-2.91756e-05
-0.000155919
-3.16393e-05
-0.000148557
-3.39235e-05
-0.000140747
-3.59973e-05
-0.000132522
-3.78295e-05
-0.000123921
-3.93891e-05
-0.00011499
-4.06461e-05
-0.00010578
-4.15731e-05
-9.63479e-05
-4.21456e-05
-8.6757e-05
-4.2344e-05
-7.70754e-05
-4.2154e-05
-6.73751e-05
-4.15678e-05
-5.77313e-05
-4.05852e-05
-4.82206e-05
-3.9214e-05
-3.89199e-05
-3.74703e-05
-2.99045e-05
-3.53786e-05
-2.12466e-05
-3.29711e-05
-1.30145e-05
-3.02873e-05
-5.27028e-06
-2.73725e-05
1.93094e-06
-2.42769e-05
8.54231e-06
-2.10546e-05
1.45237e-05
-1.77602e-05
1.98419e-05
-1.44462e-05
2.44771e-05
-1.11728e-05
2.84156e-05
-7.98887e-06
3.1653e-05
-4.94324e-06
3.41936e-05
-2.0804e-06
3.60594e-05
5.59995e-07
3.72674e-05
2.9508e-06
3.7854e-05
5.05948e-06
3.78624e-05
6.87044e-06
3.73439e-05
8.37416e-06
3.63573e-05
9.56957e-06
3.49666e-05
1.0464e-05
3.32394e-05
1.10725e-05
3.12443e-05
1.14174e-05
2.9049e-05
1.15262e-05
2.67176e-05
1.1431e-05
2.43092e-05
1.11659e-05
2.1876e-05
1.07657e-05
1.94624e-05
1.02641e-05
1.71052e-05
9.69195e-06
1.4833e-05
9.07597e-06
1.26678e-05
8.43715e-06
1.06255e-05
7.78958e-06
8.71807e-06
7.13938e-06
6.9553e-06
6.48408e-06
5.34675e-06
5.81287e-06
3.90397e-06
5.10784e-06
2.64258e-06
4.34699e-06
1.58439e-06
3.50916e-06
7.59807e-07
2.5813e-06
2.11381e-07
1.56888e-06
5.11492e-07
2.17756e-07
-8.25802e-07
7.78082e-07
-2.30815e-06
1.59664e-06
-3.55844e-06
2.5943e-06
-4.5265e-06
3.69581e-06
-5.18405e-06
4.83091e-06
-5.52531e-06
5.93639e-06
-5.56519e-06
6.95808e-06
-5.33579e-06
7.85222e-06
-4.88162e-06
8.58594e-06
-4.25431e-06
9.13689e-06
-3.50747e-06
9.492e-06
-2.6921e-06
9.64577e-06
-1.85283e-06
9.59812e-06
-1.02512e-06
9.35201e-06
-2.33495e-07
8.9111e-06
5.09359e-07
8.27754e-06
1.20233e-06
7.45e-06
1.85502e-06
6.42219e-06
2.48592e-06
5.18193e-06
3.12001e-06
3.71089e-06
3.7859e-06
1.98492e-06
4.51293e-06
-2.5061e-08
5.32844e-06
-2.35216e-06
6.25579e-06
-5.03092e-06
7.3122e-06
-8.09685e-06
8.5093e-06
-1.15844e-05
9.85244e-06
-1.55257e-05
1.13415e-05
-1.99487e-05
1.29714e-05
-2.48762e-05
1.47329e-05
-3.03239e-05
1.66126e-05
-3.62993e-05
1.85928e-05
-4.27996e-05
2.06516e-05
-4.98107e-05
2.27624e-05
-5.73062e-05
2.48942e-05
-6.52469e-05
2.70122e-05
-7.35815e-05
2.90784e-05
-8.22472e-05
3.10534e-05
-9.11715e-05
3.28972e-05
-0.000100275
3.45717e-05
-0.000109475
3.60417e-05
-0.000118686
3.72768e-05
-0.000127825
3.82518e-05
-0.000136813
3.89481e-05
-0.00014558
3.93533e-05
-0.000154059
3.94611e-05
-0.000162197
3.9271e-05
-0.000169946
3.87876e-05
-0.000177268
3.80193e-05
-0.000184134
3.69777e-05
-0.000190522
3.56768e-05
-0.000196413
3.41319e-05
-0.000201798
3.23593e-05
-0.000206668
3.03754e-05
-0.00021102
2.81963e-05
-0.00021485
2.58378e-05
-0.000218159
2.33147e-05
-0.000220947
2.06413e-05
-0.000223213
1.7831e-05
-0.000224958
1.48962e-05
-0.000226182
1.1849e-05
-0.000226886
8.7008e-06
-0.000227067
5.46298e-06
-0.000226725
2.14823e-06
-0.000225853
-1.23187e-06
-0.000224456
-4.6713e-06
-0.000222527
-8.15151e-06
-0.000220065
-1.1659e-05
-0.000217065
-1.51786e-05
-0.000213524
-1.86927e-05
-0.000209441
-2.21817e-05
-0.000204816
-2.56239e-05
-0.000199649
-2.89948e-05
-0.000193944
-3.22676e-05
-0.000187707
-3.54127e-05
-0.000180948
-3.83982e-05
-0.000173681
-4.11899e-05
-0.000165926
-4.3752e-05
-0.000157708
-4.60476e-05
-0.000149058
-4.80393e-05
-0.000140014
-4.96906e-05
-0.00013062
-5.09668e-05
-0.000120929
-5.18366e-05
-0.000111
-5.2273e-05
-0.000100899
-5.22553e-05
-9.06964e-05
-5.17701e-05
-8.04691e-05
-5.08124e-05
-7.02962e-05
-4.93869e-05
-6.02585e-05
-4.75081e-05
-5.04364e-05
-4.52007e-05
-4.09083e-05
-4.24992e-05
-3.17486e-05
-3.94471e-05
-2.30259e-05
-3.60952e-05
-1.4802e-05
-3.25008e-05
-7.13162e-06
-2.8725e-05
-6.08799e-08
-2.4831e-05
6.37944e-06
-2.08865e-05
1.21549e-05
-1.69483e-05
1.72468e-05
-1.30808e-05
2.1644e-05
-9.34046e-06
2.53428e-05
-5.77921e-06
2.83468e-05
-2.44393e-06
3.06735e-05
6.24089e-07
3.23387e-05
3.39426e-06
3.33734e-05
5.8357e-06
3.38157e-05
7.93187e-06
3.37118e-05
9.67351e-06
3.31152e-05
1.10605e-05
3.20858e-05
1.21019e-05
3.06877e-05
1.28155e-05
2.89872e-05
1.32267e-05
2.70508e-05
1.33675e-05
2.49426e-05
1.32741e-05
2.27225e-05
1.29858e-05
2.04447e-05
1.25419e-05
1.81562e-05
1.19805e-05
1.58967e-05
1.13354e-05
1.36988e-05
1.06351e-05
1.15883e-05
9.90004e-06
9.58618e-06
9.14153e-06
7.70973e-06
8.36054e-06
5.97512e-06
7.54748e-06
4.3997e-06
6.68326e-06
3.00479e-06
5.7419e-06
1.81887e-06
4.69508e-06
8.81474e-07
3.51869e-06
2.48434e-07
2.20192e-06
7.59926e-07
2.35232e-07
-1.06103e-06
8.3648e-07
-2.9094e-06
1.70641e-06
-4.42837e-06
2.7533e-06
-5.57339e-06
3.89129e-06
-6.32204e-06
5.04206e-06
-6.67609e-06
6.13703e-06
-6.66016e-06
7.11907e-06
-6.31783e-06
7.94338e-06
-5.70593e-06
8.57739e-06
-4.88832e-06
8.99967e-06
-3.92975e-06
9.19811e-06
-2.89054e-06
9.16765e-06
-1.82236e-06
8.90764e-06
-7.65117e-07
8.41924e-06
2.54904e-07
7.70287e-06
1.22573e-06
6.756e-06
2.14921e-06
5.57127e-06
3.03975e-06
4.13536e-06
3.92183e-06
2.42838e-06
4.82699e-06
4.24097e-07
5.79019e-06
-1.90927e-06
6.84629e-06
-4.60746e-06
8.02663e-06
-7.70836e-06
9.35669e-06
-1.12505e-05
1.08543e-05
-1.52704e-05
1.25293e-05
-1.98015e-05
1.43835e-05
-2.48715e-05
1.64115e-05
-3.05012e-05
1.86011e-05
-3.67024e-05
2.09341e-05
-4.34761e-05
2.33863e-05
-5.08109e-05
2.59277e-05
-5.86819e-05
2.85226e-05
-6.70496e-05
3.113e-05
-7.58602e-05
3.37048e-05
-8.50468e-05
3.61988e-05
-9.45314e-05
3.8563e-05
-0.000104228
4.07495e-05
-0.000114044
4.27136e-05
-0.000123888
4.4416e-05
-0.00013367
4.58238e-05
-0.000143306
4.69121e-05
-0.000152718
4.76639e-05
-0.00016184
4.80701e-05
-0.000170615
4.81287e-05
-0.000178998
4.78443e-05
-0.000186954
4.72264e-05
-0.000194455
4.62884e-05
-0.000201482
4.50469e-05
-0.000208025
4.352e-05
-0.000214075
4.17268e-05
-0.000219629
3.96867e-05
-0.000224689
3.74188e-05
-0.000229255
3.49413e-05
-0.00023333
3.22714e-05
-0.000236917
2.94253e-05
-0.000240021
2.6418e-05
-0.000242642
2.32631e-05
-0.000244785
1.99733e-05
-0.000246449
1.65604e-05
-0.000247635
1.30352e-05
-0.000248342
9.40807e-06
-0.000248569
5.68936e-06
-0.00024831
1.88987e-06
-0.000247562
-1.97969e-06
-0.000246324
-5.90968e-06
-0.000244588
-9.88734e-06
-0.000242348
-1.38992e-05
-0.000239597
-1.79299e-05
-0.000236327
-2.19622e-05
-0.000232532
-2.59764e-05
-0.000228206
-2.995e-05
-0.000223344
-3.38577e-05
-0.00021794
-3.7671e-05
-0.000211995
-4.13582e-05
-0.000205508
-4.48844e-05
-0.000198487
-4.82118e-05
-0.000190939
-5.12999e-05
-0.00018288
-5.41063e-05
-0.000174332
-5.65873e-05
-0.000165323
-5.86994e-05
-0.00015589
-6.04001e-05
-0.000146077
-6.16495e-05
-0.000135937
-6.24124e-05
-0.000125533
-6.26595e-05
-0.000114934
-6.23695e-05
-0.000104216
-6.15306e-05
-9.34609e-05
-6.01417e-05
-8.27553e-05
-5.82136e-05
-7.21865e-05
-5.57695e-05
-6.18413e-05
-5.28445e-05
-5.18034e-05
-4.94849e-05
-4.21514e-05
-4.57472e-05
-3.29564e-05
-4.16958e-05
-2.42809e-05
-3.74005e-05
-1.61771e-05
-3.29349e-05
-8.69025e-06
-2.83733e-05
-1.85092e-06
-2.37876e-05
4.31641e-06
-1.92481e-05
9.79594e-06
-1.482e-05
1.45799e-05
-1.05631e-05
1.86673e-05
-6.53137e-06
2.20636e-05
-2.77217e-06
2.47842e-05
6.73622e-07
2.68457e-05
3.77423e-06
2.82756e-05
6.50195e-06
2.91083e-05
8.84078e-06
2.93858e-05
1.0783e-05
2.91573e-05
1.23305e-05
2.84782e-05
1.34946e-05
2.74088e-05
1.42961e-05
2.60125e-05
1.47638e-05
2.43535e-05
1.49332e-05
2.24944e-05
1.48448e-05
2.04949e-05
1.45414e-05
1.84096e-05
1.40658e-05
1.62867e-05
1.34583e-05
1.41683e-05
1.27535e-05
1.20899e-05
1.19785e-05
1.00813e-05
1.11501e-05
8.16831e-06
1.02735e-05
6.37485e-06
9.34095e-06
4.72524e-06
8.33286e-06
3.24767e-06
7.21947e-06
1.97794e-06
5.96481e-06
9.64267e-07
4.53236e-06
2.73503e-07
2.89268e-06
1.03343e-06
2.49889e-07
-1.31092e-06
8.82956e-07
-3.54246e-06
1.78889e-06
-5.33431e-06
2.86362e-06
-6.64811e-06
4.01087e-06
-7.46929e-06
5.14461e-06
-7.80983e-06
6.19137e-06
-7.70692e-06
7.09173e-06
-7.21818e-06
7.80063e-06
-6.41484e-06
8.28656e-06
-5.37425e-06
8.52967e-06
-4.17286e-06
8.51923e-06
-2.8801e-06
8.2507e-06
-1.55383e-06
7.72268e-06
-2.37093e-07
6.93386e-06
1.04372e-06
5.88062e-06
2.27896e-06
4.55465e-06
3.47518e-06
2.94145e-06
4.65294e-06
1.01965e-06
5.84364e-06
-1.23911e-06
7.08575e-06
-3.86914e-06
8.42021e-06
-6.90914e-06
9.88629e-06
-1.04002e-05
1.15177e-05
-1.43833e-05
1.33398e-05
-1.88971e-05
1.53681e-05
-2.39752e-05
1.76074e-05
-2.96445e-05
2.00528e-05
-3.59225e-05
2.26894e-05
-4.28155e-05
2.54941e-05
-5.03169e-05
2.84355e-05
-5.84053e-05
3.14746e-05
-6.70433e-05
3.45657e-05
-7.61778e-05
3.76571e-05
-8.57403e-05
4.06925e-05
-9.56491e-05
4.36136e-05
-0.000105812
4.63621e-05
-0.000116132
4.88827e-05
-0.000126508
5.11256e-05
-0.000136843
5.30485e-05
-0.000147045
5.46181e-05
-0.000157032
5.58109e-05
-0.000166733
5.66129e-05
-0.000176089
5.70194e-05
-0.000185052
5.70335e-05
-0.000193588
5.66646e-05
-0.000201671
5.59274e-05
-0.000209285
5.48402e-05
-0.00021642
5.34237e-05
-0.000223073
5.16998e-05
-0.000229244
4.96908e-05
-0.000234936
4.74187e-05
-0.000240154
4.49046e-05
-0.000244903
4.21684e-05
-0.000249191
3.92289e-05
-0.000253023
3.6103e-05
-0.000256404
3.28066e-05
-0.000259339
2.93537e-05
-0.000261834
2.57572e-05
-0.000263889
2.20287e-05
-0.000265507
1.81788e-05
-0.000266689
1.42173e-05
-0.000267434
1.01532e-05
-0.000267741
5.99538e-06
-0.000267602
1.75169e-06
-0.000267018
-2.56395e-06
-0.000265983
-6.94448e-06
-0.00026449
-1.13805e-05
-0.00026253
-1.58592e-05
-0.000260094
-2.03661e-05
-0.000257171
-2.48848e-05
-0.000253752
-2.93962e-05
-0.000249823
-3.38783e-05
-0.000245375
-3.83059e-05
-0.000240396
-4.265e-05
-0.000234876
-4.68776e-05
-0.000228809
-5.09522e-05
-0.000222187
-5.4833e-05
-0.000215011
-5.8476e-05
-0.000207283
-6.1834e-05
-0.000199014
-6.48573e-05
-0.000190218
-6.74952e-05
-0.000180921
-6.9697e-05
-0.000171157
-7.14138e-05
-0.000160969
-7.26001e-05
-0.000150412
-7.32165e-05
-0.00013955
-7.32312e-05
-0.000128458
-7.26224e-05
-0.00011722
-7.13805e-05
-0.000105924
-6.95091e-05
-9.46672e-05
-6.70265e-05
-8.3546e-05
-6.39656e-05
-7.26569e-05
-6.0374e-05
-6.20923e-05
-5.63119e-05
-5.19375e-05
-5.18506e-05
-4.22685e-05
-4.70694e-05
-3.31505e-05
-4.20529e-05
-2.46365e-05
-3.68873e-05
-1.67666e-05
-3.16574e-05
-9.57e-06
-2.64447e-05
-3.0651e-06
-2.13249e-05
2.73843e-06
-1.63667e-05
7.83846e-06
-1.16314e-05
1.2239e-05
-7.17276e-06
1.59496e-05
-3.03695e-06
1.89863e-05
7.37573e-07
2.13679e-05
4.12028e-06
2.3121e-05
7.08769e-06
2.4278e-05
9.62603e-06
2.48781e-05
1.17304e-05
2.4967e-05
1.34057e-05
2.45967e-05
1.46664e-05
2.3824e-05
1.55365e-05
2.2709e-05
1.60482e-05
2.13132e-05
1.62406e-05
1.96974e-05
1.61572e-05
1.792e-05
1.58432e-05
1.60352e-05
1.5343e-05
1.40922e-05
1.46966e-05
1.21344e-05
1.39363e-05
1.02002e-05
1.30843e-05
8.32378e-06
1.21499e-05
6.53708e-06
1.11277e-05
4.87208e-06
9.99786e-06
3.36435e-06
8.72721e-06
2.05703e-06
7.27213e-06
1.00595e-06
5.58344e-06
2.86019e-07
3.61261e-06
1.31945e-06
2.62355e-07
-1.57328e-06
9.19012e-07
-4.19912e-06
1.84606e-06
-6.26136e-06
2.92708e-06
-7.72913e-06
4.05574e-06
-8.59795e-06
5.1389e-06
-8.89299e-06
6.09901e-06
-8.66704e-06
6.87529e-06
-7.99446e-06
7.42333e-06
-6.96288e-06
7.71344e-06
-5.66436e-06
7.72786e-06
-4.18727e-06
7.45742e-06
-2.60967e-06
6.898e-06
-9.94401e-07
6.04677e-06
6.14133e-07
4.89938e-06
2.19112e-06
3.44699e-06
3.73135e-06
1.6745e-06
5.24767e-06
-4.40633e-07
6.76808e-06
-2.92853e-06
8.33154e-06
-5.82582e-06
9.98303e-06
-9.1741e-06
1.17685e-05
-1.30174e-05
1.37296e-05
-1.73994e-05
1.58997e-05
-2.23604e-05
1.83008e-05
-2.79342e-05
2.09419e-05
-3.4146e-05
2.38192e-05
-4.10094e-05
2.69161e-05
-4.85244e-05
3.02044e-05
-5.66755e-05
3.36453e-05
-6.54305e-05
3.71905e-05