/*--------------------------------*- C++ -*----------------------------------*\
| =========                 |                                                 |
| \\      /  F ield         | OpenFOAM: The Open Source CFD Toolbox           |
|  \\    /   O peration     | Version:  2406                                  |
|   \\  /    A nd           | Website:  www.openfoam.com                      |
|    \\/     M anipulation  |                                                 |
\*---------------------------------------------------------------------------*/
FoamFile
{
    version     2.0;
    format      ascii;
    arch        "LSB;label=32;scalar=64";
    class       volVectorField;
    location    "46.2";
    object      U;
}
// * * * * * * * * * * * * * * * * * * * * * * * * * * * * * * * * * * * * * //

dimensions      [0 1 -1 0 0 0 0];

internalField   nonuniform List<vector> 
3600
(
(-1.16891e-05 -4.48436e-07 0)
(0.000489342 -0.000248492 0)
(0.00151675 -0.000380546 0)
(0.00266968 -0.000400843 0)
(0.00376099 -0.000321975 0)
(0.00453957 -0.000215142 0)
(0.00504176 -0.000115293 0)
(0.0052578 -5.31705e-05 0)
(0.00532638 -2.78534e-05 0)
(0.00528553 -2.9437e-05 0)
(0.00520081 -3.7168e-05 0)
(0.00503171 -3.42589e-05 0)
(0.00473827 -8.8145e-06 0)
(0.00422458 4.33298e-05 0)
(0.00341042 0.000123133 0)
(0.00219536 0.000231182 0)
(0.000494413 0.000369663 0)
(-0.00178358 0.000538305 0)
(-0.00471329 0.000728857 0)
(-0.00836125 0.000928121 0)
(-0.0127644 0.00113 0)
(-0.0179199 0.001342 0)
(-0.0237601 0.00157501 0)
(-0.0301427 0.00182397 0)
(-0.0368408 0.0020563 0)
(-0.0435489 0.00221812 0)
(-0.0498979 0.0022517 0)
(-0.0554859 0.0021124 0)
(-0.0599105 0.00177773 0)
(-0.0628022 0.00124904 0)
(-0.0638512 0.000548844 0)
(-0.0628308 -0.000282775 0)
(-0.059616 -0.00119166 0)
(-0.0541999 -0.00211239 0)
(-0.0467076 -0.00297166 0)
(-0.037405 -0.00369231 0)
(-0.0267024 -0.00419971 0)
(-0.0151417 -0.00443003 0)
(-0.0033748 -0.00434069 0)
(0.00788878 -0.00392115 0)
(0.0179381 -0.00320148 0)
(0.0261519 -0.00225606 0)
(0.0320653 -0.00119715 0)
(0.0354568 -0.000159861 0)
(0.0363617 0.000725852 0)
(0.0350901 0.00136243 0)
(0.0321358 0.00171186 0)
(0.0281152 0.00179715 0)
(0.023612 0.00169016 0)
(0.0191354 0.00147406 0)
(0.0150068 0.00122157 0)
(0.0114324 0.000975271 0)
(0.00844153 0.000760509 0)
(0.00604108 0.000581766 0)
(0.00411766 0.000445434 0)
(0.00263127 0.000338221 0)
(0.0014515 0.000257219 0)
(0.000603249 0.000158908 0)
(5.98082e-05 4.66131e-05 0)
(-8.43259e-05 -9.02258e-05 0)
(0.000205064 -0.000467245 0)
(0.00151607 -0.00156958 0)
(0.00368961 -0.0021164 0)
(0.0059857 -0.00214913 0)
(0.00809799 -0.00175126 0)
(0.00958775 -0.00118119 0)
(0.0104657 -0.000609481 0)
(0.0106825 -0.000160616 0)
(0.0104113 0.000150756 0)
(0.00967984 0.000373983 0)
(0.00853658 0.000599067 0)
(0.0068607 0.000913504 0)
(0.00450948 0.00137754 0)
(0.00124979 0.00202092 0)
(-0.00313401 0.00284947 0)
(-0.00887373 0.00385674 0)
(-0.0161531 0.00502327 0)
(-0.0251174 0.00631995 0)
(-0.0358083 0.00770817 0)
(-0.0481289 0.00913395 0)
(-0.0617922 0.0105072 0)
(-0.0763338 0.0116954 0)
(-0.0911463 0.0125428 0)
(-0.105556 0.0129049 0)
(-0.118891 0.0126744 0)
(-0.13055 0.0117933 0)
(-0.140031 0.0102535 0)
(-0.146946 0.00809155 0)
(-0.151012 0.00538005 0)
(-0.152043 0.00221967 0)
(-0.14994 -0.00126695 0)
(-0.144682 -0.0049378 0)
(-0.136327 -0.00863302 0)
(-0.125021 -0.0121747 0)
(-0.111006 -0.0153693 0)
(-0.0946299 -0.0180131 0)
(-0.0763627 -0.0199045 0)
(-0.0567932 -0.0208615 0)
(-0.0366285 -0.0207491 0)
(-0.0166617 -0.0195058 0)
(0.00226003 -0.0171723 0)
(0.0193113 -0.0139064 0)
(0.0337407 -0.00998163 0)
(0.0449714 -0.0057625 0)
(0.0526314 -0.00165375 0)
(0.0566393 0.00195826 0)
(0.0571719 0.00477829 0)
(0.0547103 0.00664368 0)
(0.0499163 0.00755687 0)
(0.0436226 0.00765357 0)
(0.0366104 0.00716422 0)
(0.02961 0.00632819 0)
(0.0230769 0.0053613 0)
(0.0173494 0.00440231 0)
(0.012465 0.00355031 0)
(0.00848127 0.002813 0)
(0.00523299 0.00219147 0)
(0.00277386 0.00155247 0)
(0.000992536 0.000881015 0)
(9.7779e-05 8.7625e-05 0)
(0.000343767 -0.00144683 0)
(0.00215817 -0.00377329 0)
(0.00499398 -0.00484972 0)
(0.00780285 -0.00477429 0)
(0.0102244 -0.00381313 0)
(0.0117274 -0.00244525 0)
(0.0123206 -0.00104131 0)
(0.0119182 0.00017056 0)
(0.0106602 0.00115644 0)
(0.0084984 0.0020378 0)
(0.00538105 0.00300774 0)
(0.00106097 0.00426113 0)
(-0.00473209 0.00592487 0)
(-0.0123444 0.00805781 0)
(-0.0220685 0.0106514 0)
(-0.0341507 0.0136537 0)
(-0.0486733 0.0169631 0)
(-0.065501 0.0204154 0)
(-0.0841993 0.0237546 0)
(-0.104081 0.0266534 0)
(-0.124294 0.02878 0)
(-0.143972 0.0298765 0)
(-0.162339 0.0297958 0)
(-0.178782 0.0285007 0)
(-0.192852 0.0260364 0)
(-0.204251 0.0225012 0)
(-0.212794 0.0180223 0)
(-0.218379 0.0127425 0)
(-0.220948 0.00681285 0)
(-0.220479 0.000393077 0)
(-0.216965 -0.00634631 0)
(-0.210417 -0.0132169 0)
(-0.200872 -0.0200063 0)
(-0.1884 -0.0264708 0)
(-0.173134 -0.0323341 0)
(-0.155281 -0.0372906 0)
(-0.135157 -0.0410215 0)
(-0.1132 -0.0432193 0)
(-0.0899878 -0.04363 0)
(-0.0662213 -0.042097 0)
(-0.0427103 -0.0386121 0)
(-0.0203082 -0.0333452 0)
(0.000140351 -0.026656 0)
(0.0178981 -0.0190629 0)
(0.0323697 -0.0111833 0)
(0.0431868 -0.00365363 0)
(0.050178 0.0029587 0)
(0.0534442 0.00821606 0)
(0.053284 0.0118734 0)
(0.0502795 0.0138895 0)
(0.0451334 0.0144386 0)
(0.0387125 0.0138414 0)
(0.0317507 0.0125054 0)
(0.0249466 0.0108037 0)
(0.0186467 0.0090469 0)
(0.0131752 0.00738391 0)
(0.0084899 0.00587514 0)
(0.00477717 0.0043547 0)
(0.0019021 0.00273073 0)
(0.000291086 0.000795092 0)
(0.000437863 -0.00266474 0)
(0.00255476 -0.00632719 0)
(0.00566127 -0.00781467 0)
(0.00845314 -0.00737547 0)
(0.0105522 -0.00557937 0)
(0.0114043 -0.00314006 0)
(0.011043 -0.000625705 0)
(0.00934357 0.00167828 0)
(0.00636238 0.00376029 0)
(0.00190904 0.00585316 0)
(-0.00423426 0.00826723 0)
(-0.0124686 0.0112931 0)
(-0.0231656 0.0150842 0)
(-0.0366802 0.0196651 0)
(-0.0531715 0.0249214 0)
(-0.0725455 0.0306124 0)
(-0.094324 0.0363351 0)
(-0.117697 0.0415671 0)
(-0.141644 0.0457721 0)
(-0.16516 0.0485382 0)
(-0.187397 0.0496372 0)
(-0.207747 0.0490189 0)
(-0.225818 0.0467565 0)
(-0.241389 0.0429964 0)
(-0.254353 0.0379131 0)
(-0.264672 0.0316866 0)
(-0.272337 0.0244876 0)
(-0.277352 0.0164764 0)
(-0.27971 0.00780466 0)
(-0.279394 -0.00137503 0)
(-0.27637 -0.0109 0)
(-0.27059 -0.0205826 0)
(-0.262 -0.0301991 0)
(-0.250555 -0.0394745 0)
(-0.236241 -0.0480774 0)
(-0.219094 -0.0556184 0)
(-0.199246 -0.0616657 0)
(-0.176946 -0.0657736 0)
(-0.152607 -0.0675366 0)
(-0.126814 -0.0666524 0)
(-0.10033 -0.0629997 0)
(-0.074046 -0.056695 0)
(-0.048921 -0.0481255 0)
(-0.0258588 -0.0379177 0)
(-0.00562919 -0.0268617 0)
(0.0112383 -0.0157938 0)
(0.0244242 -0.00548526 0)
(0.0338532 0.00342825 0)
(0.0395818 0.0104982 0)
(0.0418899 0.0154728 0)
(0.0411722 0.0183356 0)
(0.0380827 0.0192883 0)
(0.0332923 0.0187319 0)
(0.0276183 0.0171537 0)
(0.0216218 0.0150451 0)
(0.0159083 0.0127523 0)
(0.0106436 0.0104624 0)
(0.00623162 0.00806567 0)
(0.00260748 0.00536253 0)
(0.000447043 0.0019644 0)
(0.000500782 -0.00411443 0)
(0.00275201 -0.00914822 0)
(0.00579903 -0.0108269 0)
(0.00813087 -0.00966481 0)
(0.00936722 -0.00666615 0)
(0.00897854 -0.00279832 0)
(0.0070234 0.00118656 0)
(0.00332785 0.00501513 0)
(-0.00218099 0.00875761 0)
(-0.00986989 0.0128008 0)
(-0.0201272 0.0175609 0)
(-0.0334355 0.0233627 0)
(-0.0500983 0.0302711 0)
(-0.0701825 0.0381053 0)
(-0.0933154 0.046404 0)
(-0.118703 0.0544959 0)
(-0.145225 0.0616128 0)
(-0.171717 0.0671028 0)
(-0.197188 0.0705465 0)
(-0.220934 0.0717855 0)
(-0.242523 0.0708538 0)
(-0.261732 0.0679111 0)
(-0.278475 0.0631732 0)
(-0.292745 0.0568749 0)
(-0.304579 0.0492383 0)
(-0.314029 0.0404654 0)
(-0.321149 0.03073 0)
(-0.325984 0.0201852 0)
(-0.328559 0.00896739 0)
(-0.328875 -0.00278976 0)
(-0.326898 -0.0149442 0)
(-0.322563 -0.0273266 0)
(-0.315767 -0.0397246 0)
(-0.306376 -0.0518618 0)
(-0.29424 -0.0633846 0)
(-0.279212 -0.0738505 0)
(-0.261189 -0.0827356 0)
(-0.240157 -0.0894565 0)
(-0.216256 -0.0934268 0)
(-0.189834 -0.0941333 0)
(-0.161502 -0.0912455 0)
(-0.132133 -0.0847164 0)
(-0.102825 -0.0748673 0)
(-0.0747675 -0.0623912 0)
(-0.0490836 -0.0482774 0)
(-0.0266313 -0.033639 0)
(-0.00793275 -0.0195264 0)
(0.0068634 -0.00679047 0)
(0.0178039 0.00396615 0)
(0.0251148 0.0123605 0)
(0.029043 0.018227 0)
(0.0300307 0.0216144 0)
(0.0285485 0.0228051 0)
(0.0253123 0.0222649 0)
(0.0208978 0.0205501 0)
(0.0160489 0.0181612 0)
(0.011101 0.0154083 0)
(0.00667287 0.012288 0)
(0.00284163 0.00848669 0)
(0.000495534 0.00342518 0)
(0.000552411 -0.00563077 0)
(0.0027678 -0.0118361 0)
(0.00537534 -0.0133017 0)
(0.00676048 -0.0109492 0)
(0.00657485 -0.00633611 0)
(0.00436498 -0.000673414 0)
(0.000185176 0.00516466 0)
(-0.00621875 0.0110144 0)
(-0.015097 0.0170896 0)
(-0.0269771 0.0239269 0)
(-0.0423157 0.0319496 0)
(-0.06144 0.0413345 0)
(-0.0842372 0.0518075 0)
(-0.110111 0.0627189 0)
(-0.137972 0.073129 0)
(-0.166524 0.0820938 0)
(-0.19454 0.0888762 0)
(-0.221094 0.0930811 0)
(-0.245585 0.0946064 0)
(-0.267691 0.0935684 0)
(-0.287273 0.0901971 0)
(-0.30432 0.0847797 0)
(-0.318893 0.0776058 0)
(-0.3311 0.0689508 0)
(-0.341073 0.0590548 0)
(-0.348952 0.0481234 0)
(-0.354878 0.0363225 0)
(-0.358975 0.0237876 0)
(-0.36134 0.0106266 0)
(-0.362034 -0.00306401 0)
(-0.361071 -0.0171887 0)
(-0.358406 -0.0316304 0)
(-0.353928 -0.046233 0)
(-0.347454 -0.0607722 0)
(-0.338731 -0.0749346 0)
(-0.327444 -0.0882912 0)
(-0.313244 -0.100289 0)
(-0.295792 -0.110254 0)
(-0.27484 -0.11743 0)
(-0.250319 -0.121052 0)
(-0.222452 -0.120473 0)
(-0.191844 -0.115304 0)
(-0.159531 -0.105584 0)
(-0.126912 -0.0918706 0)
(-0.0955875 -0.0752446 0)
(-0.0670505 -0.0571382 0)
(-0.0424106 -0.039051 0)
(-0.0221722 -0.0222452 0)
(-0.00634376 -0.00758155 0)
(0.00541661 0.00445252 0)
(0.0134714 0.0136405 0)
(0.0182609 0.0199576 0)
(0.0201537 0.0235708 0)
(0.0197289 0.0248526 0)
(0.0174759 0.0243129 0)
(0.0141388 0.0225079 0)
(0.0101426 0.0198086 0)
(0.00624579 0.0163035 0)
(0.00268605 0.0115735 0)
(0.000464406 0.00488433 0)
(0.000575848 -0.00719758 0)
(0.00252615 -0.0142031 0)
(0.0042664 -0.0149222 0)
(0.00422034 -0.0108509 0)
(0.00209744 -0.00417803 0)
(-0.00245044 0.00369544 0)
(-0.00943104 0.0118655 0)
(-0.0192023 0.0203674 0)
(-0.032183 0.0295665 0)
(-0.0489217 0.0400419 0)
(-0.0696846 0.0519973 0)
(-0.0942923 0.0651718 0)
(-0.121939 0.078718 0)
(-0.151357 0.091509 0)
(-0.181107 0.102416 0)
(-0.209938 0.110644 0)
(-0.236941 0.115783 0)
(-0.261566 0.117784 0)
(-0.283526 0.116809 0)
(-0.302728 0.113159 0)
(-0.319206 0.10718 0)
(-0.333082 0.0992382 0)
(-0.344542 0.0896728 0)
(-0.353811 0.0787931 0)
(-0.361132 0.0668556 0)
(-0.366746 0.0540684 0)
(-0.37088 0.0405848 0)
(-0.373735 0.026516 0)
(-0.375471 0.0119336 0)
(-0.376206 -0.00311169 0)
(-0.376002 -0.0185812 0)
(-0.37486 -0.0344248 0)
(-0.372705 -0.0505648 0)
(-0.369369 -0.066864 0)
(-0.364584 -0.0831015 0)
(-0.357962 -0.0989332 0)
(-0.349005 -0.113867 0)
(-0.337115 -0.127234 0)
(-0.321665 -0.138203 0)
(-0.302081 -0.14581 0)
(-0.277998 -0.149073 0)
(-0.249423 -0.147143 0)
(-0.216916 -0.139531 0)
(-0.181676 -0.126324 0)
(-0.145514 -0.108347 0)
(-0.110591 -0.0871457 0)
(-0.0789862 -0.0647212 0)
(-0.0521634 -0.0430594 0)
(-0.0307072 -0.0236654 0)
(-0.0143544 -0.00736747 0)
(-0.00249058 0.00555599 0)
(0.00559718 0.0151289 0)
(0.0104285 0.0215291 0)
(0.0125817 0.0250899 0)
(0.0124975 0.02625 0)
(0.0108642 0.0255493 0)
(0.00813742 0.0233485 0)
(0.00512575 0.0197779 0)
(0.00220063 0.0143325 0)
(0.000362844 0.00618213 0)
(0.000547415 -0.00860332 0)
(0.00192223 -0.0157736 0)
(0.00230141 -0.01509 0)
(0.000335398 -0.00875408 0)
(-0.00420713 0.00041258 0)
(-0.0115571 0.0109231 0)
(-0.0218504 0.0219522 0)
(-0.035524 0.0337676 0)
(-0.0530554 0.0467807 0)
(-0.0747445 0.0613655 0)
(-0.100354 0.0772039 0)
(-0.128987 0.0934039 0)
(-0.159242 0.108621 0)
(-0.18958 0.121595 0)
(-0.218687 0.131405 0)
(-0.245632 0.137629 0)
(-0.269851 0.140215 0)
(-0.291062 0.139385 0)
(-0.309192 0.135495 0)
(-0.324321 0.128985 0)
(-0.336651 0.120307 0)
(-0.346461 0.109901 0)
(-0.354081 0.0981518 0)
(-0.359853 0.0853897 0)
(-0.364113 0.0718664 0)
(-0.367163 0.0577697 0)
(-0.369273 0.0432195 0)
(-0.370665 0.0282878 0)
(-0.371523 0.0130009 0)
(-0.371982 -0.00263906 0)
(-0.37214 -0.0186496 0)
(-0.372041 -0.0350456 0)
(-0.371673 -0.0518302 0)
(-0.370944 -0.0689653 0)
(-0.369665 -0.0863516 0)
(-0.36751 -0.103785 0)
(-0.364001 -0.12092 0)
(-0.358472 -0.137221 0)
(-0.350092 -0.151927 0)
(-0.337903 -0.164037 0)
(-0.32095 -0.17236 0)
(-0.298468 -0.175624 0)
(-0.270146 -0.172697 0)
(-0.236392 -0.162883 0)
(-0.198549 -0.146251 0)
(-0.15888 -0.12388 0)
(-0.120273 -0.0978651 0)
(-0.0855503 -0.0709198 0)
(-0.056706 -0.0456532 0)
(-0.0343573 -0.0238504 0)
(-0.0179897 -0.00623904 0)
(-0.00652437 0.00720189 0)
(0.000990743 0.0168005 0)
(0.00538808 0.022995 0)
(0.00722542 0.0262315 0)
(0.00718763 0.0270268 0)
(0.00576144 0.0256964 0)
(0.00374494 0.0223612 0)
(0.00160322 0.0164622 0)
(0.000244992 0.00714965 0)
(0.000434332 -0.00968522 0)
(0.000860159 -0.016187 0)
(-0.000614491 -0.0134068 0)
(-0.0049174 -0.00430611 0)
(-0.0122589 0.00776069 0)
(-0.0227542 0.0213507 0)
(-0.0367028 0.0357894 0)
(-0.0545045 0.0514926 0)
(-0.0764809 0.0686783 0)
(-0.102393 0.0872098 0)
(-0.131354 0.106076 0)
(-0.161878 0.123863 0)
(-0.192354 0.139082 0)
(-0.221363 0.150707 0)
(-0.247922 0.158208 0)
(-0.271411 0.161543 0)
(-0.29154 0.160949 0)
(-0.308251 0.156873 0)
(-0.321694 0.149843 0)
(-0.332153 0.140435 0)
(-0.340023 0.129188 0)
(-0.34573 0.116591 0)
(-0.34971 0.103037 0)
(-0.352359 0.0888376 0)
(-0.354029 0.074204 0)
(-0.355009 0.0592785 0)
(-0.355537 0.0441327 0)
(-0.355796 0.0287948 0)
(-0.355937 0.0132516 0)
(-0.356075 -0.00252902 0)
(-0.356304 -0.018599 0)
(-0.356689 -0.0350112 0)
(-0.357276 -0.0518186 0)
(-0.358059 -0.0690537 0)
(-0.358977 -0.0867181 0)
(-0.359865 -0.104747 0)
(-0.360417 -0.122978 0)
(-0.360125 -0.141089 0)
(-0.358239 -0.158542 0)
(-0.353737 -0.174511 0)
(-0.345365 -0.187856 0)
(-0.331754 -0.197132 0)
(-0.311672 -0.200732 0)
(-0.284365 -0.197135 0)
(-0.249989 -0.185323 0)
(-0.209944 -0.165248 0)
(-0.166985 -0.138238 0)
(-0.124823 -0.107044 0)
(-0.087224 -0.0752935 0)
(-0.0567544 -0.046382 0)
(-0.0340794 -0.0223821 0)
(-0.0182194 -0.0038125 0)
(-0.00769371 0.00975366 0)
(-0.00112908 0.0190294 0)
(0.00240846 0.024648 0)
(0.00375621 0.0271953 0)
(0.00349797 0.0269773 0)
(0.00241642 0.0240929 0)
(0.00103625 0.0179761 0)
(0.000138345 0.00781467 0)
(0.000204585 -0.0101157 0)
(-0.000728447 -0.0149139 0)
(-0.00450841 -0.00936063 0)
(-0.0114709 0.00292506 0)
(-0.0218751 0.0182494 0)
(-0.0357059 0.0353211 0)
(-0.0533956 0.053598 0)
(-0.0751062 0.0734282 0)
(-0.100783 0.0945484 0)
(-0.129508 0.11613 0)
(-0.159882 0.136572 0)
(-0.190154 0.154272 0)
(-0.218858 0.167952 0)
(-0.24486 0.176993 0)
(-0.267512 0.18127 0)
(-0.286466 0.18107 0)
(-0.301714 0.176899 0)
(-0.313452 0.169423 0)
(-0.322085 0.159335 0)
(-0.328096 0.147314 0)
(-0.332028 0.133939 0)
(-0.33438 0.11969 0)
(-0.335608 0.104914 0)
(-0.336074 0.0898575 0)
(-0.336072 0.074662 0)
(-0.335812 0.0594059 0)
(-0.335457 0.0441061 0)
(-0.335117 0.0287507 0)
(-0.334887 0.0132969 0)
(-0.334835 -0.00230624 0)
(-0.335033 -0.0181244 0)
(-0.335543 -0.0342221 0)
(-0.336433 -0.0506705 0)
(-0.337757 -0.0675326 0)
(-0.339556 -0.0848662 0)
(-0.341817 -0.1027 0)
(-0.344449 -0.121021 0)
(-0.347207 -0.139717 0)
(-0.349638 -0.158529 0)
(-0.350977 -0.176955 0)
(-0.350102 -0.194153 0)
(-0.345513 -0.208864 0)
(-0.335456 -0.219394 0)
(-0.318178 -0.223732 0)
(-0.292401 -0.219865 0)
(-0.257891 -0.206306 0)
(-0.216035 -0.182785 0)
(-0.170069 -0.150876 0)
(-0.124677 -0.11415 0)
(-0.0846731 -0.0774178 0)
(-0.0532642 -0.0450155 0)
(-0.0309294 -0.0192361 0)
(-0.0161635 -0.000203043 0)
(-0.00692498 0.013045 0)
(-0.00161631 0.0215442 0)
(0.000996183 0.0261401 0)
(0.00173195 0.0272553 0)
(0.00142024 0.0250148 0)
(0.000641962 0.0189086 0)
(7.51892e-05 0.00820627 0)
(-0.000159409 -0.00961688 0)
(-0.00282654 -0.0115945 0)
(-0.00923912 -0.00269548 0)
(-0.0190281 0.0130768 0)
(-0.0325808 0.0319351 0)
(-0.0497018 0.0527709 0)
(-0.0708599 0.0750479 0)
(-0.095768 0.0987672 0)
(-0.123891 0.122994 0)
(-0.153711 0.146254 0)
(-0.183609 0.16666 0)
(-0.211877 0.182761 0)
(-0.237364 0.193683 0)
(-0.259244 0.199244 0)
(-0.277202 0.199699 0)
(-0.291186 0.195657 0)
(-0.301508 0.187889 0)
(-0.308625 0.177255 0)
(-0.313164 0.164558 0)
(-0.315723 0.150505 0)
(-0.316895 0.13564 0)
(-0.317143 0.120365 0)
(-0.316853 0.104934 0)
(-0.316282 0.0894996 0)
(-0.315623 0.0741232 0)
(-0.314981 0.0588213 0)
(-0.314435 0.0435671 0)
(-0.314023 0.0283228 0)
(-0.313785 0.0130328 0)
(-0.313746 -0.00235548 0)
(-0.313952 -0.0179032 0)
(-0.314447 -0.0336662 0)
(-0.315301 -0.0497081 0)
(-0.316585 -0.066089 0)
(-0.318388 -0.0828778 0)
(-0.320783 -0.100138 0)
(-0.323829 -0.117931 0)
(-0.327506 -0.136285 0)
(-0.331674 -0.155164 0)
(-0.335965 -0.174386 0)
(-0.339682 -0.193528 0)
(-0.341679 -0.211775 0)
(-0.340306 -0.227791 0)
(-0.333466 -0.239637 0)
(-0.318905 -0.24486 0)
(-0.294749 -0.240846 0)
(-0.2603 -0.225505 0)
(-0.21685 -0.198249 0)
(-0.168163 -0.160945 0)
(-0.120007 -0.118257 0)
(-0.0783957 -0.0765024 0)
(-0.0470042 -0.0410709 0)
(-0.0258738 -0.0142174 0)
(-0.0127115 0.00460535 0)
(-0.00508243 0.0169044 0)
(-0.00107943 0.0240386 0)
(0.000559929 0.0267669 0)
(0.000847342 0.0253736 0)
(0.0004608 0.0194866 0)
(6.00939e-05 0.00847517 0)
(-0.000661178 -0.0078419 0)
(-0.0053623 -0.00585759 0)
(-0.014588 0.006825 0)
(-0.0272143 0.0262643 0)
(-0.0438114 0.0488183 0)
(-0.0639148 0.073488 0)
(-0.0879102 0.0995464 0)
(-0.114932 0.126416 0)
(-0.144026 0.152487 0)
(-0.173291 0.175875 0)
(-0.201184 0.194745 0)
(-0.226204 0.208014 0)
(-0.24758 0.215281 0)
(-0.264793 0.216795 0)
(-0.277901 0.213191 0)
(-0.287165 0.205394 0)
(-0.293207 0.194402 0)
(-0.296673 0.181194 0)
(-0.298303 0.166588 0)
(-0.29869 0.151228 0)
(-0.298368 0.135551 0)
(-0.297679 0.119837 0)
(-0.296891 0.104226 0)
(-0.296131 0.0887757 0)
(-0.295492 0.0734798 0)
(-0.294988 0.0583093 0)
(-0.294639 0.0432115 0)
(-0.294431 0.0281384 0)
(-0.294374 0.0130342 0)
(-0.294466 -0.00214591 0)
(-0.294736 -0.0174516 0)
(-0.29521 -0.0329235 0)
(-0.29595 -0.0486096 0)
(-0.297017 -0.0645544 0)
(-0.298507 -0.0808154 0)
(-0.300519 -0.0974544 0)
(-0.303171 -0.114551 0)
(-0.306559 -0.132188 0)
(-0.310746 -0.150446 0)
(-0.315675 -0.169359 0)
(-0.321093 -0.188842 0)
(-0.32639 -0.208561 0)
(-0.330461 -0.227755 0)
(-0.331563 -0.245026 0)
(-0.327336 -0.258186 0)
(-0.315049 -0.264294 0)
(-0.292239 -0.260026 0)
(-0.257694 -0.242573 0)
(-0.212624 -0.210967 0)
(-0.161413 -0.167555 0)
(-0.111121 -0.118488 0)
(-0.0689897 -0.0720241 0)
(-0.0388528 -0.0344837 0)
(-0.01977 -0.0075942 0)
(-0.00867533 0.010117 0)
(-0.00277513 0.0207068 0)
(-0.000125526 0.0255496 0)
(0.000671351 0.0253109 0)
(0.000488746 0.0198707 0)
(9.28658e-05 0.00872122 0)
(-0.00126979 -0.00457022 0)
(-0.0081564 0.00241652 0)
(-0.0201804 0.0191401 0)
(-0.0354674 0.042273 0)
(-0.0547889 0.0685002 0)
(-0.0773097 0.0967775 0)
(-0.103246 0.126004 0)
(-0.131146 0.154924 0)
(-0.159813 0.181424 0)
(-0.1872 0.203498 0)
(-0.212036 0.219623 0)
(-0.233103 0.229188 0)
(-0.25003 0.232283 0)
(-0.262631 0.229587 0)
(-0.271348 0.222111 0)
(-0.276718 0.211039 0)
(-0.279581 0.197507 0)
(-0.280648 0.182494 0)
(-0.280647 0.166735 0)
(-0.280059 0.150737 0)
(-0.279288 0.134786 0)
(-0.278523 0.119031 0)
(-0.27791 0.103506 0)
(-0.277462 0.0881984 0)
(-0.2772 0.0730557 0)
(-0.277081 0.0580276 0)
(-0.277096 0.0430545 0)
(-0.277203 0.0280918 0)
(-0.277403 0.0130926 0)
(-0.27768 -0.00197509 0)
(-0.278057 -0.0171466 0)
(-0.278545 -0.0324461 0)
(-0.279193 -0.0479043 0)
(-0.280046 -0.0635462 0)
(-0.281185 -0.0794096 0)
(-0.282695 -0.0955365 0)
(-0.284698 -0.111992 0)
(-0.287322 -0.128862 0)
(-0.290715 -0.146261 0)
(-0.294991 -0.164318 0)
(-0.300192 -0.183147 0)
(-0.306158 -0.202763 0)
(-0.312389 -0.222932 0)
(-0.317823 -0.242948 0)
(-0.320669 -0.261343 0)
(-0.318328 -0.275654 0)
(-0.307641 -0.282366 0)
(-0.285571 -0.277356 0)
(-0.250445 -0.256977 0)
(-0.203485 -0.219964 0)
(-0.149926 -0.169458 0)
(-0.0983725 -0.113797 0)
(-0.0572203 -0.0635189 0)
(-0.0297204 -0.0253791 0)
(-0.013465 0.000178794 0)
(-0.00472296 0.0157383 0)
(-0.000669566 0.0235541 0)
(0.00071407 0.0249592 0)
(0.000648638 0.0202455 0)
(0.000156419 0.0090711 0)
(-0.00194167 0.000370085 0)
(-0.0110175 0.0132655 0)
(-0.0256584 0.0341285 0)
(-0.0432775 0.0608479 0)
(-0.0648242 0.0905404 0)
(-0.0890168 0.121924 0)
(-0.115884 0.153416 0)
(-0.143481 0.18312 0)
(-0.170581 0.208682 0)
(-0.195178 0.228237 0)
(-0.216382 0.240738 0)
(-0.233279 0.24608 0)
(-0.245923 0.244859 0)
(-0.25445 0.238171 0)
(-0.259646 0.227346 0)
(-0.262213 0.21372 0)
(-0.263087 0.198441 0)
(-0.262908 0.182383 0)
(-0.262301 0.166119 0)
(-0.261572 0.14998 0)
(-0.260985 0.134106 0)
(-0.260583 0.11853 0)
(-0.260423 0.103212 0)
(-0.26044 0.0880962 0)
(-0.260625 0.0731124 0)
(-0.260904 0.0582068 0)
(-0.261265 0.0433255 0)
(-0.26166 0.0284337 0)
(-0.262096 0.013496 0)
(-0.26255 -0.00150807 0)
(-0.263047 -0.0166026 0)
(-0.263591 -0.0318002 0)
(-0.264222 -0.0471197 0)
(-0.264964 -0.0625724 0)
(-0.265881 -0.078179 0)
(-0.267026 -0.0939611 0)
(-0.268496 -0.109959 0)
(-0.270396 -0.126233 0)
(-0.272876 -0.142879 0)
(-0.276101 -0.160037 0)
(-0.28025 -0.177889 0)
(-0.285435 -0.196633 0)
(-0.291606 -0.216384 0)
(-0.298348 -0.237013 0)
(-0.304647 -0.257843 0)
(-0.308634 -0.277302 0)
(-0.307473 -0.292542 0)
(-0.297576 -0.299379 0)
(-0.275391 -0.292724 0)
(-0.2389 -0.268098 0)
(-0.189588 -0.224105 0)
(-0.133951 -0.165428 0)
(-0.0824316 -0.103468 0)
(-0.0441578 -0.051171 0)
(-0.0206222 -0.0144913 0)
(-0.00770657 0.00826587 0)
(-0.00153625 0.0204054 0)
(0.000725522 0.0242284 0)
(0.000838377 0.0206392 0)
(0.000231956 0.00956091 0)
(-0.00260336 0.0069597 0)
(-0.0136888 0.0264658 0)
(-0.0305921 0.0513933 0)
(-0.0500721 0.0814245 0)
(-0.0732097 0.114152 0)
(-0.0982492 0.147895 0)
(-0.125075 0.180581 0)
(-0.1514 0.209824 0)
(-0.176147 0.233296 0)
(-0.197471 0.249456 0)
(-0.214908 0.257823 0)
(-0.227851 0.258806 0)
(-0.236776 0.253503 0)
(-0.242084 0.243362 0)
(-0.244803 0.229928 0)
(-0.245669 0.214551 0)
(-0.245589 0.198277 0)
(-0.245045 0.181789 0)
(-0.244514 0.165471 0)
(-0.244123 0.149483 0)
(-0.244016 0.133842 0)
(-0.244131 0.118501 0)
(-0.244476 0.103381 0)
(-0.244947 0.0884104 0)
(-0.245528 0.0735213 0)
(-0.246141 0.0586678 0)
(-0.246783 0.0438088 0)
(-0.247409 0.0289215 0)
(-0.248034 0.0139821 0)
(-0.248637 -0.00101982 0)
(-0.249247 -0.0160992 0)
(-0.249861 -0.0312609 0)
(-0.250516 -0.0465156 0)
(-0.251224 -0.0618663 0)
(-0.252032 -0.0773232 0)
(-0.252969 -0.0928936 0)
(-0.2541 -0.108597 0)
(-0.25549 -0.124465 0)
(-0.257251 -0.140559 0)
(-0.259521 -0.156982 0)
(-0.262495 -0.173899 0)
(-0.266387 -0.191549 0)
(-0.271397 -0.210211 0)
(-0.27756 -0.230122 0)
(-0.284554 -0.25124 0)
(-0.291371 -0.272912 0)
(-0.296024 -0.293343 0)
(-0.295373 -0.30919 0)
(-0.285374 -0.315347 0)
(-0.262022 -0.305665 0)
(-0.223165 -0.274799 0)
(-0.171024 -0.221836 0)
(-0.113918 -0.154098 0)
(-0.0644127 -0.087262 0)
(-0.0311614 -0.0358018 0)
(-0.0124931 -0.00283237 0)
(-0.00321262 0.0155197 0)
(0.00043264 0.0228906 0)
(0.000941756 0.0210003 0)
(0.000297443 0.0101999 0)
(-0.00319354 0.0150758 0)
(-0.0159804 0.0417206 0)
(-0.0346842 0.070531 0)
(-0.0554774 0.103498 0)
(-0.0795186 0.138698 0)
(-0.104608 0.173943 0)
(-0.130567 0.206755 0)
(-0.154925 0.234447 0)
(-0.176879 0.254948 0)
(-0.194807 0.267161 0)
(-0.208682 0.271212 0)
(-0.218188 0.268013 0)
(-0.224171 0.259121 0)
(-0.2272 0.246227 0)
(-0.228419 0.230955 0)
(-0.228481 0.214544 0)
(-0.228182 0.197855 0)
(-0.227808 0.181348 0)
(-0.227689 0.165225 0)
(-0.227805 0.149503 0)
(-0.228224 0.134122 0)
(-0.228819 0.118989 0)
(-0.229584 0.104016 0)
(-0.230405 0.0891335 0)
(-0.231277 0.0742867 0)
(-0.232126 0.0594419 0)
(-0.232965 0.0445717 0)
(-0.233752 0.0296635 0)
(-0.234513 0.014703 0)
(-0.235229 -0.000313654 0)
(-0.235933 -0.0153955 0)
(-0.23662 -0.0305434 0)
(-0.237325 -0.0457642 0)
(-0.238054 -0.0610578 0)
(-0.238842 -0.0764297 0)
(-0.239703 -0.091881 0)
(-0.24068 -0.10742 0)
(-0.241801 -0.123058 0)
(-0.243137 -0.138825 0)
(-0.244771 -0.154781 0)
(-0.246852 -0.171035 0)
(-0.249573 -0.187784 0)
(-0.253199 -0.205309 0)
(-0.257986 -0.223994 0)
(-0.26407 -0.244174 0)
(-0.271181 -0.265925 0)
(-0.278291 -0.288513 0)
(-0.283205 -0.309849 0)
(-0.282383 -0.325782 0)
(-0.271278 -0.330095 0)
(-0.245508 -0.315299 0)
(-0.203193 -0.275542 0)
(-0.147938 -0.21133 0)
(-0.0907378 -0.134593 0)
(-0.0460091 -0.0660672 0)
(-0.0196118 -0.0189701 0)
(-0.00608615 0.00804549 0)
(-0.000367854 0.0205057 0)
(0.000876106 0.0211251 0)
(0.00033939 0.0109164 0)
(-0.00364221 0.0244227 0)
(-0.0176937 0.0585366 0)
(-0.0376477 0.0909337 0)
(-0.0591628 0.126339 0)
(-0.0834263 0.163323 0)
(-0.10787 0.199165 0)
(-0.132341 0.231123 0)
(-0.15432 0.2564 0)
(-0.173351 0.273356 0)
(-0.188056 0.281394 0)
(-0.198821 0.281259 0)
(-0.20558 0.274318 0)
(-0.209458 0.2625 0)
(-0.21108 0.247601 0)
(-0.211592 0.231197 0)
(-0.211486 0.214319 0)
(-0.211414 0.197609 0)
(-0.211471 0.181309 0)
(-0.211876 0.165474 0)
(-0.212502 0.150022 0)
(-0.213384 0.134852 0)
(-0.214366 0.119857 0)
(-0.215452 0.104958 0)
(-0.216528 0.0900964 0)
(-0.21761 0.0752343 0)
(-0.218627 0.0603504 0)
(-0.219609 0.0454296 0)
(-0.220515 0.0304672 0)
(-0.22138 0.0154569 0)
(-0.222184 0.000399677 0)
(-0.222963 -0.0147087 0)
(-0.223711 -0.0298663 0)
(-0.224464 -0.0450774 0)
(-0.225222 -0.060341 0)
(-0.22602 -0.0756612 0)
(-0.226861 -0.0910382 0)
(-0.227776 -0.106475 0)
(-0.228773 -0.121977 0)
(-0.229891 -0.137552 0)
(-0.231167 -0.153231 0)
(-0.23269 -0.169069 0)
(-0.234588 -0.185195 0)
(-0.237083 -0.201821 0)
(-0.240464 -0.219314 0)
(-0.245063 -0.238128 0)
(-0.251077 -0.25876 0)
(-0.258272 -0.281301 0)
(-0.265514 -0.304938 0)
(-0.270288 -0.326963 0)
(-0.268538 -0.342204 0)
(-0.255135 -0.342823 0)
(-0.225569 -0.320036 0)
(-0.178743 -0.267998 0)
(-0.120781 -0.190657 0)
(-0.0660306 -0.107148 0)
(-0.0293891 -0.0419537 0)
(-0.0104213 -0.00292604 0)
(-0.00179164 0.0165268 0)
(0.000602815 0.020768 0)
(0.000351691 0.0116296 0)
(-0.00391372 0.0346374 0)
(-0.0187415 0.0764284 0)
(-0.0393772 0.112096 0)
(-0.0610459 0.149426 0)
(-0.0849242 0.187515 0)
(-0.108178 0.22314 0)
(-0.130754 0.253454 0)
(-0.15019 0.275718 0)
(-0.166396 0.288837 0)
(-0.178235 0.292733 0)
(-0.18646 0.288749 0)
(-0.191184 0.278635 0)
(-0.19371 0.264572 0)
(-0.194613 0.248326 0)
(-0.194964 0.231329 0)
(-0.19506 0.214354 0)
(-0.195413 0.19783 0)
(-0.195963 0.181809 0)
(-0.196858 0.166249 0)
(-0.197908 0.151007 0)
(-0.199145 0.135975 0)
(-0.200407 0.121047 0)
(-0.201717 0.106164 0)
(-0.202968 0.0912793 0)
(-0.204195 0.076372 0)
(-0.205332 0.0614291 0)
(-0.206418 0.0464459 0)
(-0.207414 0.0314221 0)
(-0.20836 0.0163576 0)
(-0.209234 0.00125625 0)
(-0.210076 -0.0138824 0)
(-0.210877 -0.0290553 0)
(-0.211674 -0.0442648 0)
(-0.212466 -0.0595105 0)
(-0.213287 -0.0747966 0)
(-0.214138 -0.090126 0)
(-0.215044 -0.105502 0)
(-0.216004 -0.120929 0)
(-0.217041 -0.136409 0)
(-0.218158 -0.151955 0)
(-0.219398 -0.167584 0)
(-0.220822 -0.183368 0)
(-0.222575 -0.199424 0)
(-0.224879 -0.216035 0)
(-0.22808 -0.233603 0)
(-0.232562 -0.25276 0)
(-0.238584 -0.274061 0)
(-0.24588 -0.297693 0)
(-0.253094 -0.322437 0)
(-0.257252 -0.3448 0)
(-0.253592 -0.35793 0)
(-0.2365 -0.352153 0)
(-0.201601 -0.317361 0)
(-0.149737 -0.249335 0)
(-0.0906075 -0.158712 0)
(-0.0425722 -0.0740438 0)
(-0.0162373 -0.0184883 0)
(-0.00395886 0.0102989 0)
(0.000138246 0.0196159 0)
(0.000329949 0.0122381 0)
(-0.00397658 0.0452637 0)
(-0.0190515 0.0947962 0)
(-0.0397999 0.133381 0)
(-0.0610958 0.172086 0)
(-0.0840746 0.210604 0)
(-0.105748 0.245297 0)
(-0.126213 0.27337 0)
(-0.143136 0.292266 0)
(-0.156775 0.301502 0)
(-0.166214 0.301505 0)
(-0.172498 0.294165 0)
(-0.175845 0.281507 0)
(-0.177627 0.265844 0)
(-0.178303 0.248796 0)
(-0.178825 0.231595 0)
(-0.1793 0.214746 0)
(-0.180128 0.198494 0)
(-0.181134 0.182748 0)
(-0.182435 0.167409 0)
(-0.183812 0.152306 0)
(-0.185312 0.137344 0)
(-0.186775 0.122426 0)
(-0.188249 0.107514 0)
(-0.189631 0.0925728 0)
(-0.190971 0.0775951 0)
(-0.192205 0.0625733 0)
(-0.193381 0.0475106 0)
(-0.194455 0.0324099 0)
(-0.195473 0.0172765 0)
(-0.196409 0.00211638 0)
(-0.197306 -0.0130668 0)
(-0.19815 -0.0282686 0)
(-0.198982 -0.0434887 0)
(-0.199799 -0.0587276 0)
(-0.200635 -0.0739887 0)
(-0.20149 -0.0892786 0)
(-0.202392 -0.104602 0)
(-0.203337 -0.119969 0)
(-0.204342 -0.135381 0)
(-0.205397 -0.150852 0)
(-0.206519 -0.166375 0)
(-0.207717 -0.181993 0)
(-0.209063 -0.197743 0)
(-0.210687 -0.213808 0)
(-0.212854 -0.230462 0)
(-0.215947 -0.248288 0)
(-0.220425 -0.267978 0)
(-0.226571 -0.290322 0)
(-0.233993 -0.315294 0)
(-0.240973 -0.341207 0)
(-0.243807 -0.363012 0)
(-0.237004 -0.371796 0)
(-0.214489 -0.355497 0)
(-0.17299 -0.303686 0)
(-0.116449 -0.216665 0)
(-0.0599915 -0.116676 0)
(-0.0235486 -0.0403471 0)
(-0.00700075 0.00127243 0)
(-0.000517679 0.0172853 0)
(0.000282968 0.0126755 0)
(-0.00383675 0.0558593 0)
(-0.0186552 0.113142 0)
(-0.0389987 0.154351 0)
(-0.0594806 0.193959 0)
(-0.0811669 0.232354 0)
(-0.101024 0.265594 0)
(-0.119317 0.291059 0)
(-0.133887 0.306471 0)
(-0.145297 0.311972 0)
(-0.152819 0.30846 0)
(-0.157704 0.2983 0)
(-0.160201 0.283681 0)
(-0.161671 0.266935 0)
(-0.162416 0.249465 0)
(-0.163261 0.23228 0)
(-0.164153 0.215641 0)
(-0.165409 0.19965 0)
(-0.166788 0.184115 0)
(-0.168395 0.16892 0)
(-0.170007 0.153883 0)
(-0.171691 0.138932 0)
(-0.173296 0.123981 0)
(-0.174889 0.109013 0)
(-0.17637 0.0939978 0)
(-0.177802 0.0789399 0)
(-0.179118 0.0638335 0)
(-0.180371 0.0486881 0)
(-0.181517 0.0335081 0)
(-0.1826 0.0183033 0)
(-0.183595 0.00308107 0)
(-0.184544 -0.0121509 0)
(-0.185432 -0.0273875 0)
(-0.186299 -0.0426257 0)
(-0.18714 -0.0578668 0)
(-0.187993 -0.073113 0)
(-0.188856 -0.0883747 0)
(-0.18976 -0.103657 0)
(-0.190701 -0.11898 0)
(-0.191696 -0.134343 0)
(-0.192733 -0.14977 0)
(-0.193817 -0.165247 0)
(-0.194931 -0.180805 0)
(-0.196101 -0.196432 0)
(-0.197373 -0.212237 0)
(-0.198907 -0.22835 0)
(-0.200987 -0.245219 0)
(-0.204073 -0.263451 0)
(-0.208684 -0.284068 0)