/*--------------------------------*- C++ -*----------------------------------*\
| =========                 |                                                 |
| \\      /  F ield         | OpenFOAM: The Open Source CFD Toolbox           |
|  \\    /   O peration     | Version:  2406                                  |
|   \\  /    A nd           | Website:  www.openfoam.com                      |
|    \\/     M anipulation  |                                                 |
\*---------------------------------------------------------------------------*/
FoamFile
{
    version     2.0;
    format      ascii;
    arch        "LSB;label=32;scalar=64";
    class       surfaceScalarField;
    location    "76.5";
    object      phi_0;
}
// * * * * * * * * * * * * * * * * * * * * * * * * * * * * * * * * * * * * * //

dimensions      [0 3 -1 0 0 0 0];

oriented        oriented;

internalField   nonuniform List<scalar> 
8064
(
2.55867e-07
-2.55816e-07
1.22297e-06
-9.671e-07
2.65937e-06
-1.4364e-06
4.20417e-06
-1.5448e-06
5.56314e-06
-1.35898e-06
6.57806e-06
-1.01491e-06
7.22302e-06
-6.44962e-07
7.56447e-06
-3.41457e-07
7.7077e-06
-1.43231e-07
7.74689e-06
-3.91832e-08
7.72708e-06
1.98085e-08
7.64254e-06
8.45416e-08
7.43411e-06
2.08426e-07
7.01194e-06
4.22168e-07
6.269e-06
7.42941e-07
5.09294e-06
1.17606e-06
3.36649e-06
1.72645e-06
9.6907e-07
2.39741e-06
-2.2192e-06
3.18827e-06
-6.30925e-06
4.09006e-06
-1.13932e-05
5.08396e-06
-1.75279e-05
6.13468e-06
-2.47172e-05
7.18929e-06
-3.28958e-05
8.17862e-06
-4.19187e-05
9.02292e-06
-5.15573e-05
9.63857e-06
-6.15016e-05
9.94431e-06
-7.13701e-05
9.86849e-06
-8.07277e-05
9.35759e-06
-8.9112e-05
8.38431e-06
-9.6065e-05
6.95296e-06
-0.000101162
5.09739e-06
-0.000104037
2.87427e-06
-0.000104446
4.09306e-07
-0.000101984
-2.46215e-06
-9.65839e-05
-5.39984e-06
-8.82788e-05
-8.30515e-06
-7.72194e-05
-1.10594e-05
-6.37081e-05
-1.35112e-05
-4.82112e-05
-1.54969e-05
-3.13599e-05
-1.68514e-05
-1.39361e-05
-1.74238e-05
3.16538e-06
-1.71015e-05
1.90956e-05
-1.59303e-05
3.28625e-05
-1.37669e-05
4.37481e-05
-1.08856e-05
5.11738e-05
-7.42561e-06
5.49652e-05
-3.79148e-06
5.52891e-05
-3.23866e-07
5.25937e-05
2.69538e-06
4.76492e-05
4.94451e-06
4.13035e-05
6.34572e-06
3.43976e-05
6.90588e-06
2.76265e-05
6.77111e-06
2.14622e-05
6.16427e-06
1.61518e-05
5.31044e-06
1.1761e-05
4.39077e-06
8.2349e-06
3.52613e-06
5.45553e-06
2.77937e-06
3.29276e-06
2.16277e-06
1.65276e-06
1.64e-06
5.24381e-07
1.12838e-06
-1.76357e-08
5.42018e-07
-1.76344e-08
9.07957e-07
-1.16377e-06
3.23377e-06
-3.29292e-06
6.36147e-06
-4.5641e-06
9.60518e-06
-4.78851e-06
1.24141e-05
-4.16787e-06
1.44688e-05
-3.06961e-06
1.56808e-05
-1.85694e-06
1.61258e-05
-7.86458e-07
1.59485e-05
3.39927e-08
1.52711e-05
6.38228e-07
1.41297e-05
1.16125e-06
1.24411e-05
1.77317e-06
1.00205e-05
2.62902e-06
6.61402e-06
3.82861e-06
1.92757e-06
5.42939e-06
-4.34338e-06
7.44701e-06
-1.24922e-05
9.87529e-06
-2.27824e-05
1.26876e-05
-3.54138e-05
1.58196e-05
-5.04741e-05
1.91504e-05
-6.7884e-05
2.24938e-05
-8.73553e-05
2.56059e-05
-0.000108383
2.82174e-05
-0.000130281
3.00763e-05
-0.000152243
3.09844e-05
-0.000173423
3.08188e-05
-0.000193012
2.95331e-05
-0.000210289
2.71456e-05
-0.000224652
2.37209e-05
-0.000235622
1.93545e-05
-0.000242836
1.41672e-05
-0.000246052
8.31306e-06
-0.000245205
2.02684e-06
-0.000239942
-4.85313e-06
-0.00023041
-1.19944e-05
-0.000216678
-1.91322e-05
-0.000198915
-2.60681e-05
-0.000177417
-3.25573e-05
-0.000152613
-3.83144e-05
-0.000125084
-4.30265e-05
-9.5566e-05
-4.63692e-05
-6.49563e-05
-4.80335e-05
-3.42882e-05
-4.77696e-05
-4.76905e-06
-4.54494e-05
2.26041e-05
-4.11401e-05
4.6585e-05
-3.48665e-05
6.60481e-05
-2.68887e-05
8.03809e-05
-1.81244e-05
8.91898e-05
-9.13277e-06
9.2654e-05
-7.68762e-07
9.09981e-05
6.60043e-06
8.51249e-05
1.22188e-05
7.61738e-05
1.5857e-05
6.54098e-05
1.75351e-05
5.40315e-05
1.75426e-05
4.30086e-05
1.63334e-05
3.29931e-05
1.44062e-05
2.43115e-05
1.22078e-05
1.70397e-05
1.00511e-05
1.11056e-05
8.09686e-06
6.40468e-06
6.34091e-06
2.90911e-06
4.62396e-06
7.25516e-07
2.72561e-06
7.07882e-07
1.40485e-06
-2.56862e-06
4.6322e-06
-6.52027e-06
8.70597e-06
-8.63787e-06
1.27319e-05
-8.81447e-06
1.60384e-05
-7.47433e-06
1.82425e-05
-5.27375e-06
1.92227e-05
-2.8371e-06
1.90268e-05
-5.906e-07
1.77565e-05
1.30435e-06
1.54619e-05
2.93277e-06
1.20663e-05
4.55688e-06
7.34578e-06
6.49369e-06
9.47512e-07
9.02729e-06
-7.56168e-06
1.23378e-05
-1.86266e-05
1.64943e-05
-3.26642e-05
2.14847e-05
-4.99954e-05
2.72065e-05
-7.07562e-05
3.34485e-05
-9.48008e-05
3.98642e-05
-0.000121635
4.59847e-05
-0.000150431
5.12896e-05
-0.000180132
5.53068e-05
-0.000209609
5.7695e-05
-0.000237811
5.82784e-05
-0.000263857
5.70304e-05
-0.00028707
5.40313e-05
-0.000306961
4.94241e-05
-0.000323196
4.33807e-05
-0.000335555
3.60798e-05
-0.000343897
2.7697e-05
-0.000348143
1.84123e-05
-0.000348271
8.4416e-06
-0.00034425
-1.99384e-06
-0.00033606
-1.30437e-05
-0.000323824
-2.42301e-05
-0.000307588
-3.53681e-05
-0.000287455
-4.62017e-05
-0.000263608
-5.64039e-05
-0.000236327
-6.55955e-05
-0.000206011
-7.33425e-05
-0.000173203
-7.91768e-05
-0.000138609
-8.26279e-05
-0.000103097
-8.32813e-05
-6.76927e-05
-8.08539e-05
-3.36045e-05
-7.52282e-05
-1.99725e-06
-6.64738e-05
2.63135e-05
-5.51994e-05
4.9996e-05
-4.18069e-05
6.83247e-05
-2.74615e-05
8.08542e-05
-1.32983e-05
8.79192e-05
-4.64548e-07
8.93859e-05
1.07522e-05
8.60779e-05
1.91649e-05
7.89807e-05
2.46323e-05
6.92775e-05
2.72458e-05
5.81949e-05
2.7416e-05
4.68289e-05
2.57723e-05
3.60167e-05
2.302e-05
2.62795e-05
1.97883e-05
1.78659e-05
1.65104e-05
1.08653e-05
1.33416e-05
5.359e-06
1.01302e-05
1.56884e-06
6.51578e-06
2.27672e-06
1.73515e-06
-4.30376e-06
5.50192e-06
-1.0287e-05
9.98897e-06
-1.31249e-05
1.41141e-05
-1.29396e-05
1.71388e-05
-1.0499e-05
1.86752e-05
-6.81011e-06
1.86006e-05
-2.76253e-06
1.69224e-05
1.08756e-06
1.36494e-05
4.57741e-06
8.68394e-06
7.89821e-06
1.75654e-06
1.14843e-05
-7.5695e-06
1.58197e-05
-1.98209e-05
2.12787e-05
-3.55421e-05
2.80591e-05
-5.51913e-05
3.61434e-05
-7.90063e-05
4.52997e-05
-0.000106866
5.50663e-05
-0.000138187
6.47689e-05
-0.000171937
7.36141e-05
-0.000206804
8.08526e-05
-0.000241443
8.59278e-05
-0.000274676
8.85402e-05
-0.000305606
8.86251e-05
-0.000333614
8.62868e-05
-0.000358314
8.17303e-05
-0.000379491
7.52079e-05
-0.000397046
6.6979e-05
-0.000410951
5.72857e-05
-0.000421212
4.63414e-05
-0.000427846
3.43309e-05
-0.000430862
2.14276e-05
-0.000430238
7.8183e-06
-0.000425904
-6.32821e-06
-0.000418016
-2.09313e-05
-0.000406477
-3.57695e-05
-0.000391233
-5.06123e-05
-0.000372261
-6.51736e-05
-0.000349577
-7.90875e-05
-0.000323267
-9.19063e-05
-0.000293512
-0.000103097
-0.00026063
-0.000112059
-0.000225107
-0.000118151
-0.000187628
-0.00012076
-0.000149091
-0.000119391
-0.000110582
-0.000113737
-7.32557e-05
-0.0001038
-3.84694e-05
-8.99857e-05
-7.2661e-06
-7.30102e-05
1.94152e-05
-5.41428e-05
4.07474e-05
-3.46305e-05
5.62413e-05
-1.59585e-05
6.63338e-05
6.59743e-07
7.09728e-05
1.45258e-05
7.08034e-05
2.48018e-05
6.66438e-05
3.14054e-05
5.95129e-05
3.45468e-05
5.05183e-05
3.47669e-05
4.07062e-05
3.28321e-05
3.09323e-05
2.95622e-05
2.18059e-05
2.56368e-05
1.3731e-05
2.14166e-05
7.03342e-06
1.68278e-05
2.16459e-06
1.13846e-05
4.44132e-06
1.95984e-06
-6.2636e-06
5.97096e-06
-1.42982e-05
1.03996e-05
-1.75536e-05
1.40056e-05
-1.65456e-05
1.60302e-05
-1.25237e-05
1.61195e-05
-6.89933e-06
1.41666e-05
-8.09627e-07
1.01074e-05
5.14677e-06
3.82257e-06
1.08622e-05
-5.01841e-06
1.67392e-05
-1.69194e-05
2.33852e-05
-3.24933e-05
3.13936e-05
-5.23408e-05
4.11262e-05
-7.68698e-05
5.25881e-05
-0.000106114
6.53877e-05
-0.000139577
7.87625e-05
-0.000176199
9.16882e-05
-0.00021452
0.00010309
-0.000252986
0.000112081
-0.000290241
0.000118107
-0.000325273
0.00012096
-0.000357428
0.000120696
-0.000386346
0.000117543
-0.000411869
0.00011181
-0.00043397
0.000103832
-0.000452694
9.39317e-05
-0.000468118
8.24024e-05
-0.000480324
6.94925e-05
-0.00048939
5.54076e-05
-0.000495374
4.03149e-05
-0.000498296
2.43489e-05
-0.000498069
7.59116e-06
-0.000494743
-9.65336e-06
-0.000488366
-2.73088e-05
-0.000478795
-4.53403e-05
-0.000465895
-6.35123e-05
-0.000449532
-8.15373e-05
-0.000429571
-9.90475e-05
-0.00040591
-0.000115568
-0.0003785
-0.000130508
-0.000347393
-0.000143166
-0.000312797
-0.000152746
-0.000275137
-0.000158421
-0.000235092
-0.000159436
-0.00019362
-0.000155209
-0.000151932
-0.000145488
-0.000111447
-0.00013047
-7.35652e-05
-0.000110892
-3.9653e-05
-8.8055e-05
-1.06755e-05
-6.3608e-05
1.27414e-05
-3.93754e-05
3.03714e-05
-1.69702e-05
4.25031e-05
2.39413e-06
4.94193e-05
1.78855e-05
5.16744e-05
2.91503e-05
4.99934e-05
3.62279e-05
4.52643e-05
3.94959e-05
3.84609e-05
3.96356e-05
3.05309e-05
3.74922e-05
2.22994e-05
3.38683e-05
1.44424e-05
2.92735e-05
7.56211e-06
2.37081e-05
2.36903e-06
1.65777e-05
6.81034e-06
2.09924e-06
-8.36285e-06
6.05662e-06
-1.82555e-05
9.93611e-06
-2.14331e-05
1.23996e-05
-1.90091e-05
1.2723e-05
-1.28471e-05
1.06163e-05
-4.79259e-06
5.9536e-06
3.85303e-06
-1.39804e-06
1.24984e-05
-1.17961e-05
2.12602e-05
-2.57845e-05
3.07277e-05
-4.4048e-05
4.16487e-05
-6.721e-05
5.45555e-05
-9.55885e-05
6.95047e-05
-0.00012897
8.59691e-05
-0.000166483
0.000102902
-0.000206684
0.000118963
-0.000247846
0.00013285
-0.000288344
0.000143588
-0.000326914
0.00015065
-0.000362723
0.000153917
-0.000395314
0.000153551
-0.000424493
0.000149875
-0.000450241
0.00014329
-0.000472638
0.000134207
-0.000491816
0.00012301
-0.000507927
0.000110043
-0.000521125
9.56001e-05
-0.000531553
7.99208e-05
-0.000539342
6.31965e-05
-0.000544598
4.5571e-05
-0.000547379
2.71294e-05
-0.000547631
7.84377e-06
-0.000545477
-1.18073e-05
-0.000540914
-3.18721e-05
-0.000533798
-5.2456e-05
-0.000523965
-7.33459e-05
-0.000511201
-9.4301e-05
-0.000495253
-0.000114996
-0.000475835
-0.000134986
-0.000452657
-0.000153685
-0.000425473
-0.00017035
-0.00039413
-0.000184088
-0.000358654
-0.000193898
-0.000319336
-0.000198753
-0.000276843
-0.000197702
-0.00023224
-0.000190091
-0.000186991
-0.000175719
-0.00014284
-0.000155043
-0.000101629
-0.000129265
-6.49667e-05
-0.000100271
-3.39752e-05
-7.03668e-05
-9.12468e-06
-4.18208e-05
9.66957e-06
-1.64001e-05
2.2811e-05
4.74411e-06
3.08878e-05
2.10735e-05
3.45052e-05
3.26104e-05
3.43703e-05
3.96309e-05
3.12921e-05
4.27137e-05
2.61525e-05
4.26317e-05
1.98343e-05
4.01865e-05
1.3175e-05
3.59328e-05
6.99078e-06
2.98923e-05
2.19049e-06
2.1378e-05
9.00083e-06
2.12373e-06
-1.04866e-05
5.66281e-06
-2.17946e-05
8.44264e-06
-2.42129e-05
9.1167e-06
-1.96832e-05
7.04981e-06
-1.07802e-05
2.02352e-06
2.33695e-07
-6.13752e-06
1.20141e-05
-1.77189e-05
2.40798e-05
-3.32714e-05
3.68128e-05
-5.35079e-05
5.09642e-05
-7.90572e-05
6.7198e-05
-0.000110156
8.56546e-05
-0.000146385
0.000105733
-0.000186581
0.000126165
-0.000229026
0.000145346
-0.000271834
0.000161771
-0.000313362
0.000174379
-0.000352429
0.000182655
-0.00038832
0.000186541
-0.000420688
0.000186285
-0.000449437
0.0001823
-0.000474628
0.000175066
-0.00049641
0.000165073
-0.000514985
0.000152781
-0.000530579
0.000138604
-0.000543429
0.000122893
-0.000553767
0.000105939
-0.000561814
8.79673e-05
-0.000567768
6.91505e-05
-0.000571798
4.96009e-05
-0.000574028
2.93594e-05
-0.000574527
8.343e-06
-0.000573379
-1.29556e-05
-0.000570583
-3.46682e-05
-0.000566052
-5.69867e-05
-0.000559633
-7.97649e-05
-0.00055109
-0.000102844
-0.000540101
-0.000125984
-0.000526256
-0.000148832
-0.000509066
-0.000170875
-0.000487998
-0.000191419
-0.000462522
-0.000209563
-0.000432203
-0.000224218
-0.00039681
-0.000234146
-0.000356445
-0.000238067
-0.000311702
-0.000234834
-0.00026379
-0.000223632
-0.000214518
-0.000204315
-0.000166171
-0.000177612
-0.000121176
-0.000145265
-8.16394e-05
-0.000109904
-4.88776e-05
-7.45825e-05
-2.31913e-05
-4.20865e-05
-4.13266e-06
-1.43145e-05
9.06238e-06
7.87848e-06
1.72624e-05
2.44104e-05
2.12445e-05
3.56488e-05
2.17369e-05
4.22213e-05
1.95451e-05
4.48235e-05
1.55304e-05
4.42013e-05
1.0592e-05
4.08712e-05
5.66479e-06
3.48196e-05
1.75163e-06
2.52911e-05
1.07525e-05
1.97e-06
-1.24566e-05
4.63035e-06
-2.4455e-05
5.70045e-06
-2.5283e-05
3.93251e-06
-1.79152e-05
-1.16432e-06
-5.68338e-06
-9.79306e-06
8.86244e-06
-2.21696e-05
2.43906e-05
-3.87792e-05
4.06894e-05
-6.02896e-05
5.83232e-05
-8.73191e-05
7.79937e-05
-0.000120062
9.9941e-05
-0.000157979
0.000123571
-0.000199726
0.000147481
-0.000243405
0.000169845
-0.000287018
0.000188959
-0.000328892
0.000203645
-0.000367869
0.000213356
-0.000403286
0.000218072
-0.000434852
0.000218106
-0.000462519
0.000213952
-0.000486398
0.000206179
-0.000506702
0.00019537
-0.000523705
0.000182076
-0.00053772
0.000166796
-0.000549073
0.000149957
-0.000558088
0.000131909
-0.000565075
0.000112925
-0.000570316
9.32084e-05
-0.00057406
7.28946e-05
-0.000576519
5.20594e-05
-0.000577871
3.07112e-05
-0.00057828
8.75197e-06
-0.000577792
-1.34435e-05
-0.000576416
-3.60443e-05
-0.00057414
-5.92623e-05
-0.000570871
-8.30338e-05
-0.00056642
-0.000107295
-0.000560485
-0.000131919
-0.000552637
-0.00015668
-0.000542307
-0.000181206
-0.000528787
-0.000204938
-0.000511263
-0.000227088
-0.000488871
-0.00024661
-0.000460812
-0.000262205
-0.000426506
-0.000272373
-0.000385803
-0.000275537
-0.000339172
-0.000270263
-0.00028795
-0.000255537
-0.000234382
-0.00023118
-0.000181451
-0.000198196
-0.000132405
-0.00015895
-9.00175e-05
-0.00011697
-5.58574e-05
-7.62466e-05
-3.00173e-05
-4.01546e-05
-1.15442e-05
-1.05946e-05
8.77425e-07
1.19888e-05
8.37293e-06
2.81533e-05
1.19333e-05
3.86609e-05
1.23955e-05
4.43613e-05
1.06153e-05
4.59816e-05
7.5073e-06
4.39791e-05
4.04218e-06
3.82847e-05
1.21811e-06
2.81152e-05
1.19706e-05
1.56023e-06
-1.40168e-05
2.7957e-06
-2.56904e-05
1.50606e-06
-2.39934e-05
-3.28591e-06
-1.31232e-05
-1.19726e-05
3.00329e-06
-2.4749e-05
2.16388e-05
-4.1932e-05
4.15736e-05
-6.40888e-05
6.28462e-05
-9.17943e-05
8.60288e-05
-0.000125237
0.000111437
-0.000163855
0.000138559
-0.000206235
0.000165952
-0.000250378
0.000191624
-0.00029419
0.000213656
-0.000335931
0.0002307
-0.000374413
0.000242126
-0.000408969
0.000247913
-0.000439321
0.000248424
-0.000465448
0.000244234
-0.00048751
0.000236014
-0.000505786
0.000224455
-0.000520636
0.000210219
-0.000532464
0.000193904
-0.000541688
0.00017602
-0.000548719
0.000156987
-0.000553937
0.000137127
-0.000557685
0.000116674
-0.000560261
9.57849e-05
-0.000561918
7.45509e-05
-0.000562863
5.30044e-05
-0.000563282
3.11305e-05
-0.000563382
8.85254e-06
-0.000563174
-1.36516e-05
-0.000562674
-3.65447e-05
-0.000561951
-5.99854e-05
-0.000560992
-8.3993e-05
-0.000559701
-0.000108586
-0.00055788
-0.00013374
-0.000555199
-0.00015936
-0.000551164
-0.000185241
-0.000545081
-0.000211021
-0.000536049
-0.00023612
-0.00052297
-0.000259688
-0.000504621
-0.000280554
-0.00047978
-0.000297214
-0.00044744
-0.000307877
-0.000407092
-0.000310611
-0.000359032
-0.000303597
-0.000304681
-0.000285531
-0.000246777
-0.000256101
-0.000189156
-0.000216571
-0.000136094
-0.000170032
-9.11924e-05
-0.000121148
-5.62772e-05
-7.50698e-05
-3.10554e-05
-3.58163e-05
-1.39442e-05
-5.1225e-06
-3.00818e-06
1.72173e-05
3.23587e-06
3.24169e-05
5.94051e-06
4.16566e-05
6.09048e-06
4.58316e-05
4.63505e-06
4.54346e-05
2.53968e-06
4.03801e-05
7.39467e-07
2.99154e-05
1.271e-05
8.23752e-07
-1.48406e-05
2.27079e-08
-2.48894e-05
-4.1587e-06
-1.9812e-05
-1.24994e-05
-4.78256e-06
-2.52259e-05
1.57298e-05
-4.2526e-05
3.8939e-05
-6.47924e-05
6.384e-05
-9.25087e-05
9.05625e-05
-0.000125872
0.000119392
-0.000164376
0.000149941
-0.000206648
0.00018083
-0.000250662
0.000209965
-0.000294241
0.000235203
-0.000335546
0.000254962
-0.000373309
0.000268463
-0.00040682
0.000275636
-0.000435785
0.000276878
-0.000460203
0.000272842
-0.000480283
0.000264314
-0.000496381
0.000252111
-0.000508947
0.000237022
-0.000518484
0.000219756
-0.0005255
0.000200919
-0.000530478
0.000180999
-0.000533856
0.000160365
-0.000536012
0.000139282
-0.000537261
0.000117923
-0.000537862
9.63852e-05
-0.000538018
7.47069e-05
-0.000537895
5.28815e-05
-0.000537639
3.08749e-05
-0.000537429
8.64182e-06
-0.000537254
-1.3826e-05
-0.000537158
-3.66408e-05
-0.000537243
-5.98999e-05
-0.000537558
-8.36781e-05
-0.000538106
-0.000108039
-0.000538822
-0.000133023
-0.000539548
-0.000158635
-0.000539977
-0.000184812
-0.000539608
-0.000211389
-0.000537689
-0.000238039
-0.000533178
-0.0002642
-0.000524734
-0.000288999
-0.000510779
-0.000311169
-0.000489643
-0.000329013
-0.000459824
-0.000340429
-0.000420362
-0.000343059
-0.000371292
-0.000334601
-0.000314079
-0.000313314
-0.000251981
-0.000278668
-0.000189841
-0.000232172
-0.000133163
-0.000177826
-8.64773e-05
-0.000121755
-5.17378e-05
-7.05558e-05
-2.80101e-05
-2.88502e-05
-1.29015e-05
2.10868e-06
-3.88672e-06
2.34021e-05
8.2909e-07
3.69408e-05
2.57804e-06
4.40826e-05
2.45632e-06
4.55563e-05
1.44508e-06
4.13913e-05
4.16171e-07
3.09443e-05
1.31262e-05
-2.84212e-07
-1.45564e-05
-3.63112e-06
-2.15425e-05
-1.12446e-05
-1.21985e-05
-2.34878e-05
7.46068e-06
-4.04745e-05
3.27165e-05
-6.2405e-05
6.08695e-05
-8.96147e-05
9.10496e-05
-0.00012229
0.000123238
-0.000160033
0.000157135
-0.000201598
0.000191507
-0.000245018
0.00022425
-0.000288066
0.000253013
-0.000328781
0.000275919
-0.000365777
0.000291958
-0.000398261
0.000300946
-0.000425903
0.000303279
-0.000448715
0.000299689
-0.000466953
0.00029108
-0.000481049
0.000278411
-0.000491551
0.000262613
-0.000499056
0.000244526
-0.000504156
0.000224856
-0.000507399
0.000204163
-0.000509265
0.000182865
-0.00051015
0.000161249
-0.000510367
0.000139499
-0.000510157
0.000117713
-0.000509698
9.59266e-05
-0.000509122
7.41304e-05
-0.000508529
5.22887e-05
-0.000508009
3.0355e-05
-0.000507658
8.2911e-06
-0.000507489
-1.39948e-05
-0.000507553
-3.65768e-05
-0.000507937
-5.95163e-05
-0.00050872
-8.28952e-05
-0.000509972
-0.000106787
-0.000511736
-0.000131259
-0.000514007
-0.000156364
-0.00051669
-0.00018213
-0.000519545
-0.000208534
-0.000522117
-0.000235466
-0.000523659
-0.000262658
-0.000523059
-0.000289599
-0.000518798
-0.000315429
-0.000508988
-0.000338822
-0.000491518
-0.000357899
-0.000464353
-0.000370225
-0.000426009
-0.000372945
-0.00037617
-0.000363153
-0.000316316
-0.000338522
-0.000250257
-0.000298232
-0.00018401
-0.000244073
-0.0001245
-0.000181266
-7.71802e-05
-0.000117876
-4.38127e-05
-6.22177e-05
-2.24658e-05
-1.92382e-05
-9.81953e-06
1.07559e-05
-2.91842e-06
3.00397e-05
2.68903e-07
4.08953e-05
1.17129e-06
4.46539e-05
8.86717e-07
4.16759e-05
2.90718e-07
3.15403e-05
1.34169e-05
-1.76327e-06
-1.27931e-05
-8.14864e-06
-1.51571e-05
-1.95083e-05
-8.38822e-07
-3.57663e-05
2.37186e-05
-5.69927e-05
5.39429e-05
-8.33178e-05
8.71947e-05
-0.000114867
0.000122599
-0.000151356
0.000159726
-0.000191738
0.000197517
-0.00023419
0.00023396
-0.000276495
0.000266555
-0.000316576
0.000293094
-0.000352893
0.000312236
-0.00038453
0.000323595
-0.000411102
0.000327517
-0.00043261
0.000324788
-0.00044935
0.000316429
-0.000461826
0.000303556
-0.000470674
0.000287258
-0.000476579
0.000268519
-0.000480213
0.000248159
-0.000482178
0.000226822
-0.000482987
0.000204971
-0.000483041
0.00018292
-0.000482645
0.000160853
-0.000482013
0.000138867
-0.000481287
0.000116988
-0.00048056
9.51996e-05
-0.00047989
7.34604e-05
-0.000479318
5.17161e-05
-0.000478877
2.99143e-05
-0.000478609
8.02274e-06
-0.000478524
-1.40797e-05
-0.000478671
-3.64295e-05
-0.00047912
-5.90674e-05
-0.000479952
-8.20635e-05
-0.000481259
-0.00010548
-0.00048314
-0.000129378
-0.000485679
-0.000153824
-0.000488929
-0.00017888
-0.000492863
-0.000204601
-0.000497321
-0.000231008
-0.000501927
-0.000258052
-0.000505985
-0.000285541
-0.000508374
-0.000313041
-0.000507467
-0.000339728
-0.00050113
-0.000364236
-0.000486847
-0.000384508
-0.00046205
-0.000397742
-0.000424695
-0.000400508
-0.000374051
-0.000389166
-0.000311608
-0.000360675
-0.000241824
-0.000313857
-0.00017211
-0.00025098
-0.000110979
-0.000179007
-6.46039e-05
-0.000108593
-3.39626e-05
-4.98795e-05
-1.57842e-05
-7.42255e-06
-5.87174e-06
2.01273e-05
-1.07035e-06
3.60939e-05
6.99738e-07
4.28838e-05
8.37344e-07
4.15383e-05
3.52021e-07
3.20257e-05
1.37689e-05
-3.57372e-06
-9.21937e-06
-1.3333e-05
-5.39783e-06
-2.84476e-05
1.42758e-05
-4.86596e-05
4.39307e-05
-7.38346e-05
7.91178e-05
-0.000103976
0.000117336
-0.00013887
0.000157493
-0.000177699
0.000198556
-0.000218874
0.000238691
-0.000260266
0.000275352
-0.00029972
0.000306009
-0.000335524
0.000328898
-0.000366603
0.000343314
-0.000392471
0.000349463
-0.000413099
0.000348146
-0.000428799
0.000340487
-0.000440128
0.000327759
-0.000447799
0.000311226
-0.000452577
0.000292036
-0.000455203
0.000271145
-0.000456332
0.000249288
-0.000456499
0.000226989
-0.000456112
0.000204584
-0.000455459
0.000182266
-0.000454727
0.000160121
-0.000454025
0.000138165
-0.00045341
0.000116372
-0.000452902
9.46914e-05
-0.000452505
7.30643e-05
-0.000452221
5.14321e-05
-0.00045205
2.97432e-05
-0.000451992
7.96486e-06
-0.000452068
-1.40044e-05
-0.000452312
-3.61856e-05
-0.000452773
-5.8606e-05
-0.000453522
-8.13148e-05
-0.000454647
-0.000104354
-0.000456255
-0.00012777
-0.000458464
-0.000151615
-0.000461394
-0.000175951
-0.000465142
-0.000200853
-0.000469746
-0.000226404
-0.000475123
-0.000252675
-0.000480976
-0.000279688
-0.000486682
-0.000307335
-0.000491146
-0.000335264
-0.000492682
-0.0003627
-0.00048896
-0.00038823
-0.00047711
-0.000409592
-0.000454059
-0.000423559
-0.000417199
-0.000426026
-0.00036539
-0.000412483
-0.000300183
-0.000379065
-0.000226891
-0.000324271
-0.000154634
-0.000251264
-9.36165e-05
-0.000169611
-5.01646e-05
-9.33313e-05
-2.36109e-05
-3.39763e-05
-9.11922e-06
5.63563e-06
-2.04366e-06
2.90184e-05
7.20797e-07
4.01194e-05
1.14081e-06
4.11183e-05
5.4788e-07
3.26186e-05
1.43168e-05
-5.59236e-06
-3.62701e-06
-1.87601e-05
7.76986e-06
-3.7586e-05
3.31017e-05
-6.13992e-05
6.77439e-05
-8.99683e-05
0.000107687
-0.000123068
0.000150436
-0.000160083
0.000194507
-0.000199713
0.000238186
-0.000240024
0.000279003
-0.000278855
0.000314182
-0.00031433
0.000341484
-0.000345176
0.000359745
-0.000370764
0.000368902
-0.000390992
0.000369691
-0.000406153
0.000363307
-0.000416835
0.000351169
-0.000423806
0.000334729
-0.0004279
0.000315321
-0.000429924
0.00029406
-0.000430578
0.000271799
-0.000430423
0.000249134
-0.000429871
0.000226438
-0.000429199
0.000203912
-0.000428569
0.000181636
-0.000428062
0.000159615
-0.000427705
0.000137809
-0.000427492
0.000116159
-0.000427401
9.46004e-05
-0.000427409
7.30721e-05
-0.000427496
5.15193e-05
-0.000427649
2.98963e-05
-0.000427854
8.16999e-06
-0.000428132
-1.37264e-05
-0.000428508
-3.58101e-05
-0.000429013
-5.81007e-05
-0.0004297
-8.06271e-05
-0.000430641
-0.000103414
-0.000431926
-0.000126486
-0.000433664
-0.000149876
-0.000435987
-0.000173628
-0.000439036
-0.000197804
-0.000442946
-0.000222493
-0.000447812
-0.00024781
-0.00045362
-0.00027388
-0.000460153
-0.000300801
-0.000466856
-0.000328562
-0.000472664
-0.000356892
-0.000475843
-0.000385051
-0.000473889
-0.000411546
-0.000463601
-0.000433847
-0.000441434
-0.000448193
-0.000404257
-0.00044966
-0.000350594
-0.000432728
-0.00028223
-0.000392635
-0.000205718
-0.000327775
-0.000132309
-0.00024302
-7.37766e-05
-0.000151864
-3.54398e-05
-7.23131e-05
-1.40426e-05
-1.57616e-05
-3.50078e-06
1.84766e-05
7.47455e-07
3.58711e-05
1.55479e-06
4.03109e-05
8.00378e-07
3.3373e-05
1.51172e-05
-7.65323e-06
4.02622e-06
-2.41071e-05
2.42237e-05
-4.62997e-05
5.52943e-05
-7.31953e-05
9.46395e-05
-0.000104412
0.000138904
-0.000139456
0.000185479
-0.000177322
0.000232373
-0.000216362
0.000277226
-0.000254515
0.000317155
-0.000289797
0.000349464
-0.000320719
0.000372406
-0.000346451
0.000385477
-0.000366765
0.000389216
-0.000381897
0.000384823
-0.000392426
0.000373836
-0.000399149
0.000357893
-0.000402958
0.000338538
-0.000404716
0.000317079
-0.000405173
0.000294517
-0.00040492
0.000271546
-0.00040438
0.000248594
-0.000403821
0.000225879
-0.000403392
0.000203482
-0.00040315
0.000181395
-0.0004031
0.000159565
-0.000403217
0.000137925
-0.000403462
0.000116404
-0.000403798
9.49361e-05
-0.000404193
7.34671e-05
-0.000404625
5.19511e-05
-0.000405079
3.03508e-05
-0.000405545
8.63541e-06
-0.000406038
-1.32332e-05
-0.000406576
-3.5272e-05
-0.000407181
-5.74955e-05
-0.000407889
-7.99191e-05
-0.000408748
-0.000102554
-0.000409823
-0.000125412
-0.000411195
-0.000148504
-0.000412971
-0.000171852
-0.000415283
-0.000195493
-0.000418285
-0.000219491
-0.000422145
-0.00024395
-0.000427007
-0.000269018
-0.000432928
-0.000294881
-0.000439766
-0.000321724
-0.000447026
-0.000349632
-0.00045366
-0.000378417
-0.000457858
-0.000407348
-0.000456916
-0.000434788
-0.000447292
-0.000457818
-0.000424981
-0.000471971
-0.000386404
-0.000471304
-0.000329916
-0.000449123
-0.000257888
-0.000399803
-0.000178743
-0.000322165
-0.000106344
-0.000224264
-5.33044e-05
-0.000125352
-2.20516e-05
-4.70145e-05
-6.34396e-06
2.76898e-06
2.36574e-07
2.92906e-05
1.80992e-06
3.87376e-05
1.02504e-06
3.41579e-05
1.61422e-05
-9.6006e-06
1.36268e-05
-2.90297e-05
4.36528e-05
-5.40594e-05
8.03241e-05
-8.33591e-05
0.000123939
-0.000116364
0.000171909
-0.000152305
0.000221419
-0.000189862
0.000269931
-0.000227198
0.000314562
-0.000262318
0.000352275
-0.000293541
0.000380686
-0.000319791
0.000398657
-0.000340652
0.000406337
-0.000356246
0.00040481
-0.000367098
0.000395676
-0.000374004
0.000380741
-0.000377887
0.000361776
-0.000379666
0.000340317
-0.000380142
0.000317555
-0.000379946
0.000294321
-0.000379521
0.000271121
-0.00037914
0.000248212
-0.000378942
0.000225681
-0.000378972
0.000203512
-0.000379219
0.000181641
-0.000379642
0.000159989
-0.000380195
0.000138478
-0.00038083
0.000117039
-0.000381511
9.56174e-05
-0.000382212
7.41681e-05
-0.000382917
5.26555e-05
-0.000383616
3.10504e-05
-0.000384308
9.32708e-06
-0.000385004
-1.25373e-05
-0.000385718
-3.4558e-05
-0.000386466
-5.67471e-05
-0.000387272
-7.91133e-05
-0.000388165
-0.000101662
-0.000389183
-0.000124393
-0.000390378
-0.000147309
-0.000391818
-0.000170412
-0.000393598
-0.000193713
-0.000395843
-0.000217245
-0.000398718
-0.000241075
-0.000402413
-0.000265322
-0.000407121
-0.000290173
-0.000412966
-0.000315879
-0.000419883
-0.000342715
-0.000427426
-0.000370874
-0.000434533
-0.000400241
-0.000439271
-0.000430051
-0.00043867
-0.000458419
-0.000428788
-0.000481853
-0.000405162
-0.00049493
-0.000363872
-0.000490413
-0.000303403
-0.000460273
-0.000227313
-0.000398255
-0.000146826
-0.00030475
-7.87049e-05
-0.000193474
-3.43937e-05
-9.13258e-05
-1.13295e-05
-2.02952e-05
-1.24292e-06
1.9204e-05
1.68704e-06
3.58076e-05
1.15531e-06
3.46896e-05
1.72975e-05
-1.13138e-05
2.49407e-05
-3.31979e-05
6.55369e-05
-6.04224e-05
0.000107549
-9.13662e-05
0.000154883
-0.000125277
0.00020582
-0.000161142
0.000257284
-0.000197435
0.000306224
-0.000232282
0.000349409
-0.000263889
0.000383882
-0.000290929
0.000407726
-0.00031273
0.000420458
-0.000329237
0.000422844
-0.000340866
0.00041644
-0.000348366
0.000403176
-0.000352667
0.000385042
-0.000354728
0.000363837
-0.000355406
0.000340995
-0.000355383
0.000317532
-0.000355137
0.000294074
-0.000354958
0.000270942
-0.000354988
0.000248242
-0.000355267
0.00022596
-0.000355773
0.000204018
-0.000356459
0.000182327
-0.000357268
0.000160798
-0.00035815
0.00013936
-0.000359067
0.000117956
-0.000359992
9.6542e-05
-0.000360908
7.50845e-05
-0.000361809
5.35566e-05
-0.000362695
3.19356e-05
-0.000363569
1.0201e-05
-0.000364442
-1.16642e-05
-0.000365326
-3.36736e-05
-0.000366235
-5.58381e-05
-0.000367184
-7.81649e-05
-0.000368188
-0.000100657
-0.000369269
-0.000123313
-0.000370451
-0.000146127
-0.00037177
-0.000169093
-0.000373278
-0.000192205
-0.000375055
-0.000215467
-0.000377221
-0.00023891
-0.00037994
-0.000262603
-0.000383427
-0.000286686
-0.000387921
-0.000311385
-0.000393611
-0.000337026
-0.000400498
-0.000363987
-0.000408171
-0.000392568
-0.000415513
-0.000422709
-0.00042039
-0.000453541
-0.000419472
-0.000482772
-0.000408332
-0.00050607
-0.000382048
-0.000516697
-0.000336533
-0.000505787
-0.000270895
-0.000463893
-0.000190872
-0.000384773
-0.000111651
-0.000272694
-5.22005e-05
-0.000150777
-1.90195e-05
-5.34762e-05
-3.9962e-06
4.18067e-06
1.05685e-06
3.07546e-05
1.15768e-06
3.45888e-05
1.84552e-05
-1.26453e-05
3.75859e-05
-3.63619e-05
8.92536e-05
-6.50755e-05
0.000136262
-9.689e-05
0.000186698
-0.000130877
0.000239807
-0.00016584
0.000292248
-0.000200157
0.00034054
-0.000232047
0.000381299
-0.000259984
0.00041182
-0.000283008
0.00043075
-0.000300809
0.000438258
-0.000313632
0.000435667
-0.000322125
0.000424933
-0.000327183
0.000408234
-0.000329784
0.000387644
-0.000330842
0.000364894
-0.000331097
0.00034125
-0.000331079
0.000317514
-0.000331112
0.000294108
-0.000331355
0.000271185
-0.000331852
0.000248739
-0.000332578
0.000226686
-0.00033348
0.00020492
-0.000334497
0.000183344
-0.000335577
0.000161878
-0.000336679
0.000140463
-0.000337779
0.000119056
-0.000338862
9.76245e-05
-0.000339922
7.61446e-05
-0.000340961
5.45957e-05
-0.000341985
3.29595e-05
-0.000343003
1.12188e-05
-0.000344025
-1.06415e-05
-0.000345064
-3.26346e-05
-0.000346131
-5.47716e-05
-0.000347235
-7.70606e-05
-0.000348386
-9.95055e-05
-0.000349593
-0.000122106
-0.000350865
-0.000144856
-0.000352212
-0.000167745
-0.000353656
-0.000190761
-0.000355232
-0.000213892
-0.000357005
-0.000237136
-0.000359087
-0.000260521
-0.000361649
-0.000284124
-0.000364929
-0.000308105
-0.00036921
-0.000332744
-0.000374745
-0.000358452
-0.00038159
-0.000385723
-0.00038933
-0.000414969
-0.000396728
-0.000446144
-0.000401347
-0.000478153
-0.00039937
-0.000508047
-0.000385799
-0.000530267
-0.000355292
-0.000536295
-0.000303911
-0.000515275
-0.000232175
-0.000456509
-0.000149556
-0.000355313
-7.62221e-05
-0.00022411
-2.99354e-05
-9.97628e-05
-8.18821e-06
-1.75666e-05
-1.39187e-07
2.27055e-05
1.0318e-06
3.34178e-05
1.9487e-05
-1.35034e-05
5.10894e-05
-3.83674e-05
0.000114118
-6.78529e-05
0.000165748
-9.9804e-05
0.000218649
-0.00013314
0.000273144
-0.000166555
0.000325662
-0.000198429
0.000372413
-0.000227158
0.000410028
-0.000251513
0.000436176
-0.000270877
0.000450114
-0.000285248
0.000452629
-0.000295109
0.000445528
-0.000301267
0.00043109
-0.000304683
0.00041165
-0.00030631
0.000389271
-0.000306958
0.000365542
-0.000307223
0.000341515
-0.000307481
0.000317772
-0.000307925
0.000294551
-0.000308613