/*--------------------------------*- C++ -*----------------------------------*\
| =========                 |                                                 |
| \\      /  F ield         | OpenFOAM: The Open Source CFD Toolbox           |
|  \\    /   O peration     | Version:  2406                                  |
|   \\  /    A nd           | Website:  www.openfoam.com                      |
|    \\/     M anipulation  |                                                 |
\*---------------------------------------------------------------------------*/
FoamFile
{
    version     2.0;
    format      ascii;
    arch        "LSB;label=32;scalar=64";
    class       surfaceScalarField;
    location    "20";
    object      phi;
}
// * * * * * * * * * * * * * * * * * * * * * * * * * * * * * * * * * * * * * //

dimensions      [0 3 -1 0 0 0 0];

oriented        oriented;

internalField   nonuniform List<scalar> 
7080
(
1.89539e-07
-1.8962e-07
5.13512e-07
-3.2556e-07
8.31218e-07
-3.17639e-07
1.07368e-06
-2.42979e-07
1.2479e-06
-1.74444e-07
1.35736e-06
-1.09159e-07
1.4178e-06
-6.05829e-08
1.42447e-06
-5.76008e-09
1.37345e-06
5.11979e-08
1.24927e-06
1.25658e-07
1.0391e-06
2.10912e-07
7.27034e-07
3.1419e-07
3.00402e-07
4.28185e-07
-2.53459e-07
5.56767e-07
-9.4567e-07
6.94744e-07
-1.78704e-06
8.45172e-07
-2.78772e-06
1.00429e-06
-3.9555e-06
1.17253e-06
-5.29409e-06
1.34324e-06
-6.7986e-06
1.5101e-06
-8.45269e-06
1.65955e-06
-1.02235e-05
1.77688e-06
-1.20599e-05
1.842e-06
-1.38893e-05
1.83505e-06
-1.56191e-05
1.73466e-06
-1.71386e-05
1.52359e-06
-1.83246e-05
1.18867e-06
-1.90496e-05
7.26178e-07
-1.91925e-05
1.42107e-07
-1.86512e-05
-5.44061e-07
-1.73554e-05
-1.30082e-06
-1.52788e-05
-2.0838e-06
-1.24478e-05
-2.84015e-06
-8.94769e-06
-3.51098e-06
-4.92141e-06
-4.03845e-06
-5.63878e-07
-4.37062e-06
3.89231e-06
-4.46939e-06
8.19475e-06
-4.31549e-06
1.20967e-05
-3.91375e-06
1.53802e-05
-3.29418e-06
1.78821e-05
-2.5102e-06
1.95084e-05
-1.6328e-06
2.02451e-05
-7.40102e-07
2.01511e-05
9.23286e-08
1.93479e-05
8.04577e-07
1.79934e-05
1.35666e-06
1.6263e-05
1.73527e-06
1.43211e-05
1.94633e-06
1.23123e-05
2.01543e-06
1.03445e-05
1.97264e-06
8.49569e-06
1.85592e-06
6.80622e-06
1.69352e-06
5.29521e-06
1.51785e-06
3.95729e-06
1.34058e-06
2.78262e-06
1.18104e-06
1.76509e-06
1.0186e-06
9.18177e-07
8.52585e-07
3.03614e-07
6.14113e-07
-2.02542e-08
3.28365e-07
-2.02923e-08
3.36029e-07
-5.23998e-07
8.05021e-07
-7.94291e-07
1.20539e-06
-7.16526e-07
1.4399e-06
-4.76925e-07
1.52016e-06
-2.54584e-07
1.45104e-06
-3.98039e-08
1.2523e-06
1.37175e-07
9.11693e-07
3.34453e-07
4.12271e-07
5.48638e-07
-2.82781e-07
8.19353e-07
-1.21067e-06
1.13567e-06
-2.41398e-06
1.51479e-06
-3.93137e-06
1.94101e-06
-5.79943e-06
2.4204e-06
-8.04978e-06
2.93883e-06
-1.07082e-05
3.49722e-06
-1.37925e-05
4.08044e-06
-1.73067e-05
4.67829e-06
-2.1236e-05
5.26253e-06
-2.55372e-05
5.80102e-06
-3.01331e-05
6.24409e-06
-3.49055e-05
6.53793e-06
-3.96949e-05
6.61971e-06
-4.43021e-05
6.43147e-06
-4.84979e-05
5.92034e-06
-5.20338e-05
5.05148e-06
-5.46602e-05
3.80921e-06
-5.61431e-05
2.20648e-06
-5.62833e-05
2.83236e-07
-5.4933e-05
-1.88931e-06
-5.20099e-05
-4.21464e-06
-4.75083e-05
-6.57182e-06
-4.15053e-05
-8.82559e-06
-3.41637e-05
-1.08315e-05
-2.57289e-05
-1.24496e-05
-1.65209e-05
-1.35532e-05
-6.91965e-06
-1.40447e-05
2.65467e-06
-1.38647e-05
1.17703e-05
-1.30059e-05
2.00128e-05
-1.15165e-05
2.70219e-05
-9.50254e-06
3.25197e-05
-7.11887e-06
3.63408e-05
-4.55368e-06
3.84416e-05
-2.00645e-06
3.8906e-05
3.38894e-07
3.79222e-05
2.33449e-06
3.57612e-05
3.88878e-06
3.27301e-05
4.96656e-06
2.91441e-05
5.59125e-06
2.52822e-05
5.82195e-06
2.1379e-05
5.74908e-06
1.75997e-05
5.46043e-06
1.40583e-05
5.05103e-06
1.08101e-05
4.5776e-06
7.88922e-06
4.09624e-06
5.31652e-06
3.58147e-06
3.14112e-06
3.02521e-06
1.4519e-06
2.29521e-06
3.63069e-07
1.41732e-06
3.38273e-07
3.06763e-07
-8.31287e-07
6.39636e-07
-1.12838e-06
8.05196e-07
-8.82637e-07
7.23041e-07
-3.94916e-07
4.19991e-07
4.79229e-08
-9.27545e-08
4.73863e-07
-7.99713e-07
8.44118e-07
-1.72489e-06
1.26145e-06
-2.90557e-06
1.73011e-06
-4.40306e-06
2.31959e-06
-6.28376e-06
3.01829e-06
-8.6199e-06
3.85479e-06
-1.14801e-05
4.80454e-06
-1.49274e-05
5.87291e-06
-1.90155e-05
7.03189e-06
-2.37835e-05
8.27195e-06
-2.92514e-05
9.55508e-06
-3.54093e-05
1.08445e-05
-4.22095e-05
1.20711e-05
-4.95544e-05
1.31555e-05
-5.7292e-05
1.39913e-05
-6.52126e-05
1.44687e-05
-7.30558e-05
1.44727e-05
-8.0521e-05
1.39063e-05
-8.72856e-05
1.26933e-05
-9.30232e-05
1.07963e-05
-9.74249e-05
8.21569e-06
-0.000100215
4.99931e-06
-0.000101169
1.23612e-06
-0.000100122
-2.94094e-06
-9.69794e-05
-7.36508e-06
-9.1726e-05
-1.18371e-05
-8.44284e-05
-1.61386e-05
-7.52406e-05
-2.00378e-05
-6.44044e-05
-2.33068e-05
-5.22479e-05
-2.57324e-05
-3.91767e-05
-2.71391e-05
-2.56623e-05
-2.7402e-05
-1.22181e-05
-2.64711e-05
6.26108e-07
-2.43794e-05
1.23632e-05
-2.12546e-05
2.25429e-05
-1.73101e-05
3.08148e-05
-1.28322e-05
3.69529e-05
-8.1479e-06
4.08822e-05
-3.58897e-06
4.26729e-05
5.47256e-07
4.25348e-05
4.03419e-06
4.07749e-05
6.73402e-06
3.77672e-05
8.60942e-06
3.38924e-05
9.70547e-06
2.95139e-05
1.01389e-05
2.49285e-05
1.00537e-05
2.03751e-05
9.61525e-06
1.60096e-05
8.94894e-06
1.19514e-05
8.1644e-06
8.27587e-06
7.26022e-06
5.08795e-06
6.22226e-06
2.50445e-06
4.87864e-06
7.28604e-07
3.2015e-06
1.06722e-06
1.70381e-07
-1.00151e-06
1.76254e-07
-1.13346e-06
-1.14316e-07
-5.92464e-07
-7.27146e-07
2.18812e-07
-1.61303e-06
9.32567e-07
-2.75366e-06
1.61498e-06
-4.14742e-06
2.23592e-06
-5.83874e-06
2.95254e-06
-7.8959e-06
3.78464e-06
-1.0413e-05
4.83547e-06
-1.3494e-05
6.09592e-06
-1.72474e-05
7.60588e-06
-2.17779e-05
9.33066e-06
-2.71788e-05
1.12702e-05
-3.35277e-05
1.33754e-05
-4.08751e-05
1.56143e-05
-4.92366e-05
1.791e-05
-5.85771e-05
2.01786e-05
-6.88018e-05
2.22882e-05
-7.9745e-05
2.40912e-05
-9.11715e-05
2.54095e-05
-0.000102782
2.60712e-05
-0.000114229
2.59118e-05
-0.000125135
2.48055e-05
-0.000135116
2.26669e-05
-0.000143793
1.94689e-05
-0.000150819
1.52378e-05
-0.000155881
1.00607e-05
-0.000158718
4.07518e-06
-0.000159127
-2.5281e-06
-0.000156967
-9.51795e-06
-0.000152171
-1.66227e-05
-0.000144752
-2.35447e-05
-0.000134809
-2.99644e-05
-0.000122539
-3.55603e-05
-0.000108234
-4.00192e-05
-9.22877e-05
-4.3066e-05
-7.51906e-05
-4.44808e-05
-5.75107e-05
-4.41339e-05
-3.98726e-05
-4.20026e-05
-2.29184e-05
-3.81962e-05
-7.26688e-06
-3.29527e-05
6.53968e-06
-2.66324e-05
1.80744e-05
-1.96803e-05
2.70676e-05
-1.25821e-05
3.34173e-05
-5.80595e-06
3.71973e-05
2.49778e-07
3.86271e-05
5.29683e-06
3.80491e-05
9.18088e-06
3.58675e-05
1.18778e-05
3.25187e-05
1.34811e-05
2.8404e-05
1.41588e-05
2.38863e-05
1.41276e-05
1.92406e-05
1.35854e-05
1.46989e-05
1.2703e-05
1.04189e-05
1.15312e-05
6.58242e-06
1.00585e-05
3.35273e-06
8.09907e-06
1.03296e-06
5.52412e-06
2.09431e-06
-2.56398e-08
-9.76706e-07
-4.65408e-07
-6.92007e-07
-1.35295e-06
2.93476e-07
-2.63728e-06
1.50522e-06
-4.24236e-06
2.53649e-06
-6.14373e-06
3.51882e-06
-8.36306e-06
4.45485e-06
-1.09759e-05
5.56832e-06
-1.40954e-05
6.90463e-06
-1.78607e-05
8.60413e-06
-2.24257e-05
1.06625e-05
-2.79444e-05
1.31286e-05
-3.4565e-05
1.59539e-05
-4.2415e-05
1.91249e-05
-5.1596e-05
2.25603e-05
-6.21648e-05
2.61886e-05
-7.41224e-05
2.98726e-05
-8.73935e-05
3.3456e-05
-0.000101819
3.672e-05
-0.000117151
3.94297e-05
-0.00013306
4.13252e-05
-0.000149152
4.21705e-05
-0.000164991
4.17574e-05
-0.000180119
3.99404e-05
-0.000194082
3.66349e-05
-0.000206443
3.18347e-05
-0.000216802
2.56003e-05
-0.000224805
1.8065e-05
-0.00023015
9.41934e-06
-0.000232593
-8.76091e-08
-0.000231954
-1.0163e-05
-0.000228116
-2.04683e-05
-0.000221036
-3.06341e-05
-0.000210753
-4.02592e-05
-0.000197395
-4.89304e-05
-0.000181199
-5.62295e-05
-0.000162515
-6.17647e-05
-0.000141818
-6.51917e-05
-0.000119706
-6.62586e-05
-9.68859e-05
-6.48349e-05
-7.41356e-05
-6.09561e-05
-5.22608e-05
-5.48352e-05
-3.20247e-05
-4.68731e-05
-1.40873e-05
-3.76205e-05
1.06058e-06
-2.77294e-05
1.31256e-05
-1.78693e-05
2.2032e-05
-8.65209e-06
2.78942e-05
-5.61019e-07
3.09961e-05
6.08601e-06
3.17278e-05
1.11513e-05
3.05572e-05
1.46597e-05
2.79535e-05
1.67671e-05
2.43784e-05
1.77109e-05
2.02169e-05
1.77499e-05
1.58171e-05
1.71111e-05
1.14362e-05
1.59127e-05
7.35125e-06
1.41523e-05
3.79999e-06
1.16477e-05
1.18665e-06
8.14727e-06
3.28011e-06
-2.69703e-07
-7.08909e-07
-1.25059e-06
2.91749e-07
-2.84516e-06
1.8845e-06
-4.90948e-06
3.57178e-06
-7.34108e-06
4.96463e-06
-1.01163e-05
6.29538e-06
-1.32943e-05
7.62926e-06
-1.69964e-05
9.27068e-06
-2.13969e-05
1.13015e-05
-2.66944e-05
1.39008e-05
-3.31049e-05
1.7069e-05
-4.08359e-05
2.08578e-05
-5.00837e-05
2.51973e-05
-6.10085e-05
3.00468e-05
-7.37283e-05
3.52751e-05
-8.82891e-05
4.07456e-05
-0.000104653
4.62307e-05
-0.000122671
5.14699e-05
-0.000142087
5.61301e-05
-0.000162532
5.98702e-05
-0.000183554
6.23406e-05
-0.000204632
6.32439e-05
-0.00022522
6.23406e-05
-0.000244771
5.94869e-05
-0.000262766
5.46259e-05
-0.000278734
4.78007e-05
-0.000292268
3.91323e-05
-0.000303021
2.88187e-05
-0.000310712
1.7112e-05
-0.000315114
4.31746e-06
-0.000316047
-9.22382e-06
-0.000313379
-2.31289e-05
-0.00030702
-3.69843e-05
-0.000296931
-5.03375e-05
-0.00028314
-6.27098e-05
-0.000265762
-7.35952e-05
-0.000245026
-8.24877e-05
-0.000221305
-8.88996e-05
-0.000195138
-9.24134e-05
-0.00016724
-9.2723e-05
-0.000138485
-8.97027e-05
-0.000109866
-8.34479e-05
-8.24145e-05
-7.43193e-05
-5.7107e-05
-6.29261e-05
-3.47505e-05
-5.00853e-05
-1.591e-05
-3.67119e-05
-8.5843e-07
-2.37058e-05
1.04e-05
-1.18242e-05
1.80973e-05
-1.61494e-06
2.26182e-05
6.62396e-06
2.44604e-05
1.28137e-05
2.41494e-05
1.70711e-05
2.22286e-05
1.96289e-05
1.91801e-05
2.0791e-05
1.54607e-05
2.08295e-05
1.14323e-05
1.99332e-05
7.47275e-06
1.81134e-05
3.90819e-06
1.5203e-05
1.22834e-06
1.08316e-05
4.50239e-06
-5.49941e-07
-1.60879e-07
-2.14182e-06
1.88932e-06
-4.52156e-06
4.2603e-06
-7.44465e-06
6.49998e-06
-1.07882e-05
8.30559e-06
-1.45413e-05
1.00531e-05
-1.88173e-05
1.1904e-05
-2.38008e-05
1.42586e-05
-2.97447e-05
1.72454e-05
-3.69197e-05
2.10803e-05
-4.56138e-05
2.57642e-05
-5.60908e-05
3.13393e-05
-6.85917e-05
3.77004e-05
-8.32968e-05
4.47566e-05
-0.000100316
5.22976e-05
-0.000119648
6.00825e-05
-0.000141165
6.77512e-05
-0.000164586
7.48968e-05
-0.000189493
8.10412e-05
-0.000215338
8.5721e-05
-0.000241495
8.85022e-05
-0.000267298
8.90519e-05
-0.000292098
8.71442e-05
-0.000315297
8.26904e-05
-0.000336385
7.57169e-05
-0.000354944
6.63622e-05
-0.000370651
5.48403e-05
-0.000383263
4.143e-05
-0.000392596
2.64435e-05
-0.000398508
1.02255e-05
-0.000400872
-6.86424e-06
-0.000399569
-2.44384e-05
-0.000394474
-4.20873e-05
-0.000385461
-5.93592e-05
-0.000372417
-7.57625e-05
-0.000355272
-9.07504e-05
-0.000334032
-0.000103737
-0.00030884
-0.000114101
-0.000280021
-0.00012124
-0.000248141
-0.00012461
-0.000214033
-0.000123817
-0.000178787
-0.000118698
-0.000143695
-0.000109414
-0.00011013
-9.64926e-05
-7.93801e-05
-8.08354e-05
-5.24781e-05
-6.36135e-05
-3.00665e-05
-4.61146e-05
-1.23673e-05
-2.95213e-05
7.80447e-07
-1.47579e-05
9.79079e-06
-2.38349e-06
1.5241e-05
7.36927e-06
1.77522e-05
1.45624e-05
1.79687e-05
1.94187e-05
1.64754e-05
2.22855e-05
1.38348e-05
2.3477e-05
1.05149e-05
2.32524e-05
6.99294e-06
2.16431e-05
3.68787e-06
1.85045e-05
1.15506e-06
1.33737e-05
5.65612e-06
-8.72744e-07
7.0743e-07
-3.14519e-06
4.16789e-06
-6.38308e-06
7.49059e-06
-1.02389e-05
1.03602e-05
-1.45809e-05
1.26413e-05
-1.94281e-05
1.49029e-05
-2.49687e-05
1.7439e-05
-3.14688e-05
2.07598e-05
-3.92753e-05
2.50467e-05
-4.87396e-05
3.05443e-05
-6.02226e-05
3.72422e-05
-7.40367e-05
4.5152e-05
-9.04482e-05
5.4107e-05
-0.000109622
6.39284e-05
-0.000131608
7.42784e-05
-0.000156281
8.47531e-05
-0.000183337
9.48024e-05
-0.000212271
0.000103828
-0.000242422
0.000111188
-0.000273016
0.000116312
-0.00030325
0.000118732
-0.000332357
0.000118155
-0.000359669
0.000114452
-0.000384652
0.00010767
-0.000406918
9.79806e-05
-0.000426217
8.56588e-05
-0.00044241
7.10313e-05
-0.000455437
5.44574e-05
-0.000465287
3.62935e-05
-0.000471955
1.68945e-05
-0.000475417
-3.40012e-06
-0.000475604
-2.42472e-05
-0.00047239
-4.52977e-05
-0.000465578
-6.61659e-05
-0.000454915
-8.64194e-05
-0.000440111
-0.000105548
-0.000420883
-0.000122959
-0.000397013
-0.000137964
-0.000368437
-0.000149809
-0.000335338
-0.000157702
-0.000298237
-0.000160912
-0.000258065
-0.000158866
-0.000216172
-0.000151303
-0.000174258
-0.000138405
-0.000134185
-0.000120907
-9.77181e-05
-0.000100082
-6.62209e-05
-7.76128e-05
-4.04572e-05
-5.52882e-05
-2.05336e-05
-3.46836e-05
-6.0507e-06
-1.68709e-05
3.70559e-06
-2.38912e-06
9.54262e-06
8.7202e-06
1.22826e-05
1.66774e-05
1.2664e-05
2.18985e-05
1.1379e-05
2.4762e-05
9.01362e-06
2.56113e-05
6.14411e-06
2.45147e-05
3.28042e-06
2.13603e-05
1.02589e-06
1.56326e-05
6.67682e-06
-1.23178e-06
1.93572e-06
-4.24272e-06
7.18942e-06
-8.39834e-06
1.1639e-05
-1.32511e-05
1.52218e-05
-1.86775e-05
1.80631e-05
-2.47469e-05
2.09797e-05
-3.17443e-05
2.44339e-05
-4.00333e-05
2.90553e-05
-5.00639e-05
3.50767e-05
-6.22667e-05
4.27529e-05
-7.70628e-05
5.2039e-05
-9.4786e-05
6.28806e-05
-0.000115683
7.50059e-05
-0.000139836
8.80862e-05
-0.000167138
0.000101584
-0.000197235
0.000114855
-0.000229533
0.000127103
-0.000263217
0.000137516
-0.000297347
0.000145321
-0.000330949
0.000149918
-0.000363125
0.00015091
-0.000393121
0.000148154
-0.000420388
0.000141721
-0.00044458
0.000131864
-0.000465545
0.000118946
-0.000483285
0.000103399
-0.000497914
8.56583e-05
-0.000509604
6.6145e-05
-0.000518545
4.52311e-05
-0.000524903
2.32483e-05
-0.000528787
4.78334e-07
-0.000530221
-2.28199e-05
-0.000529122
-4.64039e-05
-0.000525287
-7.00095e-05
-0.000518382
-9.33328e-05
-0.000507953
-0.000115985
-0.000493449
-0.000137472
-0.000474272
-0.000157149
-0.000449866
-0.000174223
-0.000419828
-0.000187747
-0.000384065
-0.00019668
-0.000342951
-0.000199984
-0.000297457
-0.000196798
-0.000249221
-0.000186642
-0.000200457
-0.000169669
-0.000153714
-0.000146824
-0.00011143
-0.000119894
-7.54635e-05
-9.12539e-05
-4.67214e-05
-6.34225e-05
-2.51449e-05
-3.8446e-05
-9.95672e-06
-1.75733e-05
-7.53719e-08
-1.15987e-06
5.63354e-06
1.09731e-05
8.17535e-06
1.93571e-05
8.44672e-06
2.44959e-05
7.19133e-06
2.68656e-05
5.10065e-06
2.66117e-05
2.77856e-06
2.36792e-05
8.6962e-07
1.7549e-05
7.5453e-06
-1.63561e-06
3.564e-06
-5.4471e-06
1.10111e-05
-1.05828e-05
1.67623e-05
-1.65027e-05
2.11489e-05
-2.31124e-05
2.46631e-05
-3.05541e-05
2.84257e-05
-3.92286e-05
3.31004e-05
-4.96071e-05
3.94357e-05
-6.224e-05
4.77025e-05
-7.76196e-05
5.81328e-05
-9.61946e-05
7.06077e-05
-0.000118266
8.4951e-05
-0.000143982
0.000100716
-0.000173231
0.000117334
-0.000205629
0.000133976
-0.000240465
0.000149689
-0.000276773
0.000163407
-0.000313414
0.000174154
-0.000349225
0.000181128
-0.000383147
0.000183836
-0.000414336
0.000182095
-0.000442218
0.000176033
-0.000466501
0.000166001
-0.000487144
0.000152505
-0.00050431
0.00013611
-0.000518295
0.000117383
-0.000529471
9.68338e-05
-0.000538228
7.49025e-05
-0.000544931
5.19368e-05
-0.000549891
2.82113e-05
-0.000553335
3.92545e-06
-0.000555386
-2.07644e-05
-0.000556048
-4.57377e-05
-0.00055518
-7.08719e-05
-0.000552483
-9.6025e-05
-0.000547475
-0.000120988
-0.00053949
-0.000145453
-0.000527686
-0.000168951
-0.000511095
-0.000190812
-0.000488719
-0.000210121
-0.000459688
-0.000225709
-0.000423476
-0.000236196
-0.000380152
-0.000240121
-0.000330627
-0.000236167
-0.000276802
-0.000223493
-0.00022152
-0.000202106
-0.000168214
-0.000173199
-0.000120259
-0.00013921
-8.01654e-05
-0.000103517
-4.9023e-05
-6.95913e-05
-2.64767e-05
-4.01208e-05
-1.12675e-05
-1.63728e-05
-1.82251e-06
1.52738e-06
3.30572e-06
1.42247e-05
5.36071e-06
2.24413e-05
5.3336e-06
2.68877e-05
4.07899e-06
2.78681e-05
2.31473e-06
2.54372e-05
7.38607e-07
1.91286e-05
8.27992e-06
-2.07414e-06
5.63271e-06
-6.73549e-06
1.56887e-05
-1.29021e-05
2.29178e-05
-1.99528e-05
2.82127e-05
-2.78456e-05
3.25489e-05
-3.68165e-05
3.74071e-05
-4.73958e-05
4.3676e-05
-6.01599e-05
5.22085e-05
-7.57411e-05
6.32824e-05
-9.46549e-05
7.70541e-05
-0.000117317
9.32704e-05
-0.00014391
0.00011155
-0.000174366
0.000131174
-0.000208252
0.000151226
-0.000244779
0.000170505
-0.00028281
0.000187724
-0.000321012
0.000201611
-0.000358008
0.000211154
-0.000392572
0.000215694
-0.00042375
0.000215018
-0.000450952
0.000209299
-0.000473945
0.000199028
-0.000492819
0.000184875
-0.0005079
0.000167588
-0.000519671
0.000147881
-0.00052868
0.000126393
-0.000535481
0.000103636
-0.000540586
8.00074e-05
-0.000544437
5.57868e-05
-0.000547392
3.1166e-05
-0.000549725
6.25731e-06
-0.000551617
-1.88737e-05
-0.000553153
-4.42038e-05
-0.000554305
-6.97222e-05
-0.000554908
-9.54241e-05
-0.000554625
-0.000121273
-0.000552905
-0.000147176
-0.000548941
-0.000172917
-0.000541656
-0.000198101
-0.000529721
-0.00022206
-0.00051165
-0.000243784
-0.000485988
-0.000261862
-0.000451603
-0.00027451
-0.000408065
-0.000279708
-0.000356059
-0.000275501
-0.000297684
-0.000260481
-0.000236488
-0.000234393
-0.000177022
-0.000198675
-0.000123856
-0.000156681
-8.03259e-05
-0.00011312
-4.76398e-05
-7.28043e-05
-2.49963e-05
-3.90155e-05
-1.04725e-05
-1.29934e-05
-2.00374e-06
5.75608e-06
2.21236e-06
1.82289e-05
3.57185e-06
2.55273e-05
3.1922e-06
2.82525e-05
1.95666e-06
2.66703e-05
6.54862e-07
2.04361e-05
8.9339e-06
-2.55371e-06
8.17587e-06
-8.11452e-06
2.12644e-05
-1.53629e-05
3.01483e-05
-2.36112e-05
3.64714e-05
-3.28924e-05
4.18166e-05
-4.3552e-05
4.80728e-05
-5.62512e-05
5.63644e-05
-7.1653e-05
6.76133e-05
-9.04317e-05
8.2052e-05
-0.000113064
9.96871e-05
-0.000139846
0.000120045
-0.000170726
0.00014243
-0.000205294
0.000165735
-0.000242675
0.000188605
-0.000281615
0.000209439
-0.000320575
0.000226683
-0.000357982
0.000239013
-0.000392418
0.000245588
-0.000422832
0.000246103
-0.000448609
0.000240792
-0.000469597
0.000230284
-0.000486026
0.000215456
-0.000498406
0.000197254
-0.000507398
0.000176581
-0.000513713
0.000154197
-0.000518024
0.000130705
-0.000520922
0.000106535
-0.000522892
8.19808e-05
-0.000524319
5.72161e-05
-0.000525492
3.23428e-05
-0.000526631
7.40023e-06
-0.000527898
-1.76022e-05
-0.000529408
-4.26879e-05
-0.000531229
-6.78958e-05
-0.000533362
-9.32864e-05
-0.000535703
-0.000118927
-0.000537994
-0.000144878
-0.000539744
-0.000171161
-0.000540148
-0.000197691
-0.000538012
-0.000224192
-0.000531729
-0.000250063
-0.000519336
-0.000274253
-0.000498717
-0.000295129
-0.00046797
-0.000310456
-0.00042595
-0.000317522
-0.000372904
-0.00031353
-0.000311022
-0.000296277
-0.000244624
-0.000265074
-0.000179612
-0.000221693
-0.000122038
-0.000170694
-7.61423e-05
-0.000118701
-4.30852e-05
-7.20747e-05
-2.13241e-05
-3.47552e-05
-8.20457e-06
-7.36621e-06
-1.13359e-06
1.1158e-05
1.91753e-06
2.24727e-05
2.49725e-06
2.76742e-05
1.75375e-06
2.74091e-05
6.4094e-07
2.15517e-05
9.57177e-06
-3.0553e-06
1.12236e-05
-9.54267e-06
2.77742e-05
-1.79028e-05
3.84929e-05
-2.73971e-05
4.59836e-05
-3.81531e-05
5.25632e-05
-5.06319e-05
6.05654e-05
-6.56135e-05
7.13409e-05
-8.38097e-05
8.58206e-05
-0.000105876
0.000104116
-0.000132164
0.000125984
-0.000162742
0.000150623
-0.000197204
0.0001769
-0.00023469
0.000203222
-0.000273834
0.000227755
-0.000312961
0.000248569
-0.000350288
0.000264013
-0.00038423
0.000272957
-0.000413607
0.000274969
-0.000437797
0.000270294
-0.000456715
0.000259715
-0.000470752
0.000244322
-0.000480596
0.000225304
-0.000487097
0.000203756
-0.000491106
0.000180591
-0.000493392
0.000156483
-0.000494579
0.000131893
-0.00049514
0.000107096
-0.000495403
8.22437e-05
-0.00049559
5.7401e-05
-0.000495841
3.25923e-05
-0.000496259
7.8153e-06
-0.000496927
-1.69366e-05
-0.000497936
-4.16823e-05
-0.000499386
-6.64493e-05
-0.000501386
-9.12891e-05
-0.000504034
-0.000116282
-0.000507372
-0.000141542
-0.000511319
-0.000167215
-0.000515571
-0.000193441
-0.000519464
-0.000220299
-0.000521845
-0.000247682
-0.000520958
-0.000275139
-0.000514444
-0.000301642
-0.000499509
-0.000325391
-0.000473365
-0.000343666
-0.000433949
-0.000352948
-0.000380855
-0.000349372
-0.000316248
-0.000329682
-0.000245301
-0.000292639
-0.000175549
-0.000240445
-0.000114768
-0.000179479
-6.80421e-05
-0.000118799
-3.60543e-05
-6.67412e-05
-1.62505e-05
-2.71695e-05
-5.15397e-06
6.36439e-08
1.61523e-07
1.71567e-05
1.91522e-06
2.59238e-05
1.68061e-06
2.76416e-05
6.89944e-07
2.2547e-05
1.02608e-05
-3.58037e-06
1.47901e-05
-1.10132e-05
3.52269e-05
-2.05051e-05
4.79612e-05
-3.12831e-05
5.67753e-05
-4.358e-05
6.48425e-05
-5.79656e-05
7.4959e-05
-7.53067e-05
8.86683e-05
-9.6307e-05
0.000106825
-0.000121524
0.000129322
-0.00015109
0.000155551
-0.000184738
0.000184262
-0.000221616
0.000213777
-0.000260374
0.000241972
-0.00029921
0.00026659
-0.000336201
0.000285553
-0.000369567
0.000297377
-0.000398009
0.000301394
-0.000420846
0.000297805
-0.000438063
0.000287508
-0.000450177
0.000271828
-0.000458068
0.00025221
-0.000462751
0.000229987
-0.000465222
0.000206226
-0.000466321
0.00018169
-0.000466691
0.000156852
-0.00046676
0.000131963
-0.000466782
0.000107117
-0.000466869
8.23317e-05
-0.000467053
5.75854e-05
-0.00046732
3.2861e-05
-0.000467654
8.15083e-06
-0.000468056
-1.65327e-05
-0.000468566
-4.11702e-05
-0.000469272
-6.57422e-05
-0.000470312
-9.0247e-05
-0.000471873
-0.000114718
-0.000474175
-0.000139239
-0.000477427
-0.000163962
-0.000481763
-0.000189103
-0.000487122
-0.000214938
-0.000493085
-0.000241717
-0.000498659
-0.000269562
-0.000502085
-0.000298214
-0.000500717
-0.000326756
-0.00049114
-0.000353241
-0.000469629
-0.000374458
-0.000433066
-0.000385937
-0.000380234
-0.000382517
-0.000313217
-0.000359659
-0.000238208
-0.000315456
-0.000164712
-0.000252976
-0.000102412
-0.000181098
-5.68241e-05
-0.00011233
-2.75324e-05
-5.64621e-05
-1.06376e-05
-1.68321e-05
-2.098e-06
8.61516e-06
1.26299e-06
2.25635e-05
1.66731e-06
2.72337e-05
7.85472e-07
2.34313e-05
1.10438e-05
-4.09706e-06
1.88776e-05
-1.24571e-05
4.36154e-05
-2.30638e-05
5.85481e-05
-3.51222e-05
6.88563e-05
-4.8972e-05
7.86804e-05
-6.52706e-05
9.12747e-05
-8.49245e-05
0.000108316
-0.00010856
0.000130474
-0.000136549
0.000157309
-0.000168712
0.000187725
-0.000204367
0.000219917
-0.000242184
0.000251604
-0.000280382
0.00028017
-0.000316894
0.000303108
-0.000349798
0.000318459
-0.000377614
0.000325199
-0.000399583
0.000323365
-0.000415681
0.000313907
-0.000426535
0.000298364
-0.000433169
0.000278465
-0.000436769
0.000255812
-0.000438452
0.000231672
-0.000439136
0.00020691
-0.000439468
0.000182024
-0.000439839
0.000157222
-0.000440412
0.000132537
-0.000441206
0.00010791
-0.000442139
8.32638e-05
-0.000443095
5.85401e-05
-0.000443956
3.37202e-05
-0.000444631
8.82305e-06
-0.000445067
-1.60983e-05
-0.000445268
-4.09714e-05
-0.000445293
-6.57202e-05
-0.000445265
-9.02776e-05
-0.000445374
-0.000114612
-0.000445882
-0.000138733
-0.000447109
-0.000162737
-0.000449414
-0.0001868
-0.000453126
-0.000211228
-0.000458434
-0.000236411
-0.000465185
-0.000262813
-0.000472619
-0.00029078
-0.000479058
-0.000320317
-0.000481677
-0.000350621
-0.000476501
-0.000379631
-0.000458889
-0.000403548
-0.000424612
-0.000416792
-0.000371608
-0.000412665
-0.000301973
-0.000385093
-0.000223256
-0.000331694
-0.00014737
-0.000256983
-8.58391e-05
-0.000173859
-4.37352e-05
-9.85633e-05
-1.86384e-05
-4.19287e-05
-5.45924e-06
-4.56349e-06
2.37098e-07
1.68686e-05
1.58112e-06
2.58883e-05
8.88327e-07
2.41277e-05
1.19313e-05
-4.60126e-06
2.34616e-05
-1.38525e-05
5.28911e-05
-2.55352e-05
7.02016e-05
-3.88405e-05
8.21783e-05
-5.42023e-05
9.40209e-05
-7.23291e-05
0.000109411
-9.41058e-05
0.000130076
-0.000120006
0.000156379
-0.000150142
0.000187433
-0.000183956
0.00022154
-0.00022033
0.00025628
-0.000257508
0.000288781
-0.00029343
0.000316083
-0.000326
0.000335677
-0.000353578
0.00034603
-0.00037522
0.000346839
-0.000390847
0.000338987
-0.0004011
0.000324159
-0.000407123
0.000304383
-0.000410232
0.000281573
-0.000411677
0.000257254
-0.000412446
0.00023244
-0.000413213
0.000207675
-0.000414326
0.000183137
-0.000415891
0.000158785
-0.000417831
0.000134477
-0.000419981
0.00011006
-0.000422138
8.54217e-05
-0.000424111
6.0513e-05
-0.000425736
3.53465e-05
-0.000426899
9.98731e-06
-0.000427532
-1.54634e-05
-0.000427622
-4.08806e-05
-0.000427203
-6.61377e-05
-0.000426369
-9.11104e-05
-0.000425271
-0.000115708
-0.000424136
-0.000139867
-0.000423268
-0.000163605
-0.00042306
-0.000187007
-0.00042398
-0.000210307
-0.000426529
-0.000233861
-0.000431115
-0.000258226
-0.00043785
-0.000284045
-0.000446203
-0.000311964
-0.000454605
-0.00034222
-0.000460064
-0.00037417
-0.000458087
-0.000405524
-0.000443122
-0.000431755
-0.000409886
-0.000445901
-0.000355587
-0.000439392
-0.000282682
-0.000404605
-0.000200681
-0.000338984
-0.000124392
-0.00025015
-6.65999e-05
-0.000156351
-3.03063e-05
-7.82237e-05
-1.06126e-05
-2.42571e-05
-1.52098e-06
7.77582e-06
1.26795e-06
2.30977e-05
9.56022e-07
2.44409e-05
1.28857e-05
-5.04816e-06
2.84986e-05
-1.51038e-05
6.29809e-05
-2.77709e-05
8.28453e-05
-4.22275e-05
9.66617e-05
-5.89774e-05
0.000110757
-7.87338e-05
0.000129188
-0.000102297
0.000153632
-0.000129921
0.000184019
-0.000161405
0.000218913
-0.000195792
0.000255939
-0.000231568
0.000292056
-0.000266681
0.000323905
-0.000299002
0.000348404
-0.000326656
0.000363339
-0.000348506
0.000367881
-0.000364272
0.000362612
-0.00037455
0.000349266
-0.000380503
0.000330118
-0.000383572
0.000307454
-0.000385114
0.000283119
-0.00038622
0.000258361
-0.000387594
0.000233817
-0.000389586
0.000209668
-0.000392247
0.0001858
-0.000395442
0.00016198
-0.000398929
0.000137965
-0.000402447
0.000113577
-0.000405744
8.87186e-05
-0.000408616
6.33845e-05
-0.000410906
3.76358e-05
-0.00041251
1.15903e-05
-0.000413369
-1.46057e-05
-0.00041347
-4.07816e-05
-0.000412836
-6.67729e-05
-0.000411536
-9.24121e-05
-0.000409677
-0.000117568
-0.000407424
-0.000142121
-0.000405005
-0.000166025
-0.000402742
-0.000189272
-0.000401061
-0.000211989
-0.000400517
-0.000234407
-0.000401744
-0.000257
-0.000405364
-0.000280426
-0.000411723
-0.000305605
-0.000420509
-0.000333434
-0.000430203
-0.000364476
-0.000437596
-0.000398131
-0.000437588
-0.00043176
-0.000423721
-0.000459767
-0.000389748
-0.000473361
-0.000332507
-0.000461849
-0.000255498
-0.000415994
-0.000171147
-0.000334506
-9.74757e-05
-0.000230019
-4.68034e-05
-0.000128894
-1.82294e-05
-5.28281e-05
-4.38014e-06
-6.07554e-06
5.71292e-07
1.81474e-05
9.44373e-07
2.40685e-05
1.38302e-05
-5.43148e-06
3.39101e-05
-1.61821e-05
7.37592e-05
-2.97119e-05
9.63414e-05
-4.51807e-05
0.000112149
-6.31248e-05
0.000128677
-8.42097e-05
0.000150283
-0.000109092
0.000178495
-0.000137764
0.000212697
-0.000169691
0.000250825
-0.000203554
0.000289803
-0.000237545
0.000326036
-0.000269493
0.000355851
-0.000297413
0.000376315
-0.000319858
0.000385783
-0.000336308
0.000384324
-0.000347143
0.000373446
-0.000353499
0.000355615
-0.000356845
0.000333463
-0.00035867
0.000309273
-0.000360159
0.000284606
-0.000362106
0.000260304
-0.000364876
0.000236586
-0.000368513
0.000213301
-0.000372831
0.000190117
-0.000377545
0.000166693
-0.000382339
0.000142759
-0.000386926
0.000118163
-0.000391065
9.2858e-05
-0.000394577
6.68969e-05
-0.000397333
4.03923e-05
-0.000399253
1.35115e-05
-0.000400297
-1.35611e-05
-0.00040046
-4.06174e-05
-0.000399767
-6.74656e-05
-0.000398271
-9.39063e-05
-0.000396053
-0.000119785
-0.000393228
-0.000144946
-0.000389947
-0.000169306
-0.000386428
-0.000192789
-0.000382977
-0.000215439
-0.000380036
-0.000237347
-0.000378202
-0.000258834
-0.000378237
-0.000280391
-0.000380944
-0.000302898
-0.00038691
-0.000327469
-0.000395982
-0.000355404
-0.000406624
-0.000387491
-0.000415237
-0.000423145
-0.000415978
-0.000459026
-0.000401392
-0.000487943
-0.000364491
-0.000498752
-0.000302354
-0.00047813
-0.000220703
-0.000416165
-0.00013612
-0.000314602
-6.9289e-05
-0.000195726
-2.88794e-05
-9.32296e-05
-8.6659e-06
-2.62958e-05
-6.34847e-07
1.01191e-05
8.24274e-07
2.26066e-05
1.46549e-05
-5.69915e-06
3.95972e-05
-1.69785e-05
8.50767e-05
-3.11919e-05
0.000110529
-4.74671e-05
0.000128454
-6.63299e-05
0.000147525
-8.83494e-05
0.000172325
-0.000113995
0.000204133
-0.000142981
0.000241701
-0.000174462
0.000282303
-0.000206832
0.000322188
-0.000238131
0.000357334
-0.000266246
0.000383977
-0.000289521
0.000399592
-0.000307048
0.000403318
-0.000318931
0.000396209
-0.000326096
0.000380619
-0.000330011
0.000359533
-0.000332224
0.000335681
-0.000334065
0.000311117
-0.000336426
0.000286972
-0.000339756
0.000263635
-0.00034411
0.000240943
-0.000349301
0.000218493
-0.000355003
0.000195821
-0.000360869
0.00017256
-0.000366576
0.000148467
-0.000371865
0.000123451
-0.000376531
9.75252e-05
-0.000380434
7.07992e-05
-0.000383473
4.34311e-05
-0.000385592
1.56302e-05
-0.000386764
-1.23895e-05
-0.000386995
-4.03873e-05
-0.000386311
-6.81503e-05
-0.000384766
-9.54518e-05
-0.000382428
-0.000122123
-0.000379389
-0.000147985
-0.000375756
-0.000172941
-0.000371668
-0.000196876
-0.000367315
-0.000219793
-0.000362983
-0.000241679
-0.000359096
-0.000262722
-0.000356298
-0.00028319
-0.000355439
-0.000303757
-0.000357515
-0.000325394
-0.000363301
-0.000349617
-0.000372772
-0.000378022
-0.000384197
-0.000411719
-0.0003934
-0.000449826
-0.000393521
-0.000487815
-0.000376092
-0.000516182
-0.000333718
-0.000520496
-0.000264836
-0.000485058
-0.000179059
-0.000400375
-9.83634e-05
-0.000276435
-4.32552e-05
-0.000148318
-1.46111e-05
-5.49488e-05
-2.48262e-06
-2.00342e-06
5.80604e-07
1.95385e-05
1.5238e-05
-5.85048e-06
4.54259e-05
-1.74736e-05
9.67288e-05
-3.21636e-05
0.000125183
-4.9e-05
0.00014531
-6.84513e-05
0.00016695
-9.09502e-05
0.000194835
-0.000116757
0.00022992
-0.000145325
0.000270273
-0.000175552
0.000312514
-0.00020566
0.000352296
-0.000233679
0.00038534
-0.000257714
0.00040801
-0.000276546
0.000418414
-0.000289828
0.000416598
-0.000298201
0.000404574
-0.000302956
0.000385372
-0.000305685
0.000362255
-0.000307815
0.00033781
-0.000310406
0.000313701
-0.00031401
0.000290573
-0.000318767
0.000268389
-0.000324502
0.000246676
-0.000330892
0.000224879
-0.000337558
0.000202485
-0.00034416
0.00017916
-0.000350411
0.000154718
-0.000356099
0.000129138
-0.000361062
0.000102488
-0.00036519
7.49264e-05
-0.000368403
4.66443e-05
-0.000370658
1.78849e-05
-0.000371933
-1.11142e-05
-0.000372237