/*--------------------------------*- C++ -*----------------------------------*\
| =========                 |                                                 |
| \\      /  F ield         | OpenFOAM: The Open Source CFD Toolbox           |
|  \\    /   O peration     | Version:  2406                                  |
|   \\  /    A nd           | Website:  www.openfoam.com                      |
|    \\/     M anipulation  |                                                 |
\*---------------------------------------------------------------------------*/
FoamFile
{
    version     2.0;
    format      ascii;
    arch        "LSB;label=32;scalar=64";
    class       volVectorField;
    location    "45";
    object      U_0;
}
// * * * * * * * * * * * * * * * * * * * * * * * * * * * * * * * * * * * * * //

dimensions      [0 1 -1 0 0 0 0];

internalField   nonuniform List<vector> 
3600
(
(6.0994e-05 -6.45946e-05 0)
(0.000590882 -0.000195466 0)
(0.00154601 -0.000286434 0)
(0.00268408 -0.0002916 0)
(0.00371931 -0.00024152 0)
(0.00450794 -0.000166877 0)
(0.00501075 -9.7247e-05 0)
(0.00527071 -4.92565e-05 0)
(0.00536425 -2.64031e-05 0)
(0.00535856 -1.91916e-05 0)
(0.00528539 -1.40239e-05 0)
(0.00512893 1.0727e-07 0)
(0.00483397 3.05149e-05 0)
(0.0043226 8.03144e-05 0)
(0.00350662 0.000150066 0)
(0.0022938 0.000239754 0)
(0.000590496 0.000349065 0)
(-0.00169508 0.000476069 0)
(-0.00464688 0.000616054 0)
(-0.00833096 0.000762994 0)
(-0.0127816 0.000915265 0)
(-0.0179865 0.00107868 0)
(-0.0238733 0.00125992 0)
(-0.0302984 0.00145397 0)
(-0.0370412 0.00163693 0)
(-0.0438068 0.00176917 0)
(-0.0502409 0.00180584 0)
(-0.0559573 0.00171412 0)
(-0.0605652 0.0014884 0)
(-0.0636837 0.00112918 0)
(-0.0649867 0.000626172 0)
(-0.0642316 -2.4577e-05 0)
(-0.061329 -0.00074465 0)
(-0.0562181 -0.00147926 0)
(-0.0490102 -0.00217605 0)
(-0.039947 -0.00277552 0)
(-0.0294193 -0.00321797 0)
(-0.0179522 -0.00344965 0)
(-0.00618356 -0.0034321 0)
(0.00518127 -0.0031512 0)
(0.0154347 -0.00262437 0)
(0.0239445 -0.00190615 0)
(0.030235 -0.00108355 0)
(0.0340522 -0.000260082 0)
(0.0354333 0.000454615 0)
(0.0346029 0.000942879 0)
(0.0320062 0.00121559 0)
(0.0282527 0.00131188 0)
(0.023936 0.0012716 0)
(0.0195458 0.00114167 0)
(0.0154354 0.000973158 0)
(0.0118151 0.000800947 0)
(0.00876871 0.000642816 0)
(0.00628927 0.000506652 0)
(0.00431672 0.000394811 0)
(0.00276974 0.000305301 0)
(0.0015752 0.000229779 0)
(0.000692313 0.00015505 0)
(0.000152762 6.05664e-05 0)
(-1.62364e-05 -2.06228e-05 0)
(0.000176696 -0.000579252 0)
(0.00155467 -0.00158901 0)
(0.00364079 -0.00217054 0)
(0.00601032 -0.00219286 0)
(0.00810141 -0.00181263 0)
(0.00963528 -0.00124485 0)
(0.0105113 -0.000678535 0)
(0.0107708 -0.000225929 0)
(0.0105175 8.97903e-05 0)
(0.00983396 0.000320592 0)
(0.00872374 0.00055526 0)
(0.00709555 0.000880458 0)
(0.00477971 0.00135737 0)
(0.00155924 0.00201708 0)
(-0.00279971 0.00287 0)
(-0.00852531 0.00391525 0)
(-0.0158189 0.00514238 0)
(-0.0248271 0.00652813 0)
(-0.0356032 0.00803099 0)
(-0.0480607 0.00958193 0)
(-0.0619322 0.0110721 0)
(-0.0767604 0.0123568 0)
(-0.0919323 0.0132779 0)
(-0.106752 0.0136912 0)
(-0.120527 0.0134876 0)
(-0.132635 0.0126051 0)
(-0.142561 0.0110324 0)
(-0.149899 0.00880671 0)
(-0.154368 0.00600753 0)
(-0.155789 0.00274167 0)
(-0.154071 -0.000867596 0)
(-0.149125 -0.00469489 0)
(-0.141038 -0.00856645 0)
(-0.129944 -0.0123042 0)
(-0.116084 -0.0157028 0)
(-0.0997851 -0.018554 0)
(-0.0815033 -0.020647 0)
(-0.0618127 -0.021791 0)
(-0.0414084 -0.0218374 0)
(-0.0210813 -0.0207109 0)
(-0.0016797 -0.0184365 0)
(0.015949 -0.01516 0)
(0.0310301 -0.0111475 0)
(0.0429344 -0.00676511 0)
(0.0512384 -0.00242883 0)
(0.0558149 0.00142619 0)
(0.0568435 0.00449304 0)
(0.0547477 0.00660532 0)
(0.0501903 0.00772692 0)
(0.0439953 0.00796527 0)
(0.0370076 0.00754037 0)
(0.0299536 0.00670899 0)
(0.0233622 0.0057012 0)
(0.0175409 0.00468666 0)
(0.0126055 0.00376654 0)
(0.00854122 0.00297735 0)
(0.00527774 0.00229215 0)
(0.00274573 0.00162868 0)
(0.00101914 0.000883127 0)
(9.96325e-05 0.00018091 0)
(0.000275711 -0.00150605 0)
(0.0022328 -0.00369338 0)
(0.00491645 -0.00476804 0)
(0.0077964 -0.00467852 0)
(0.0101682 -0.00375633 0)
(0.0117122 -0.00243187 0)
(0.012302 -0.00107392 0)
(0.011951 0.000106385 0)
(0.0107163 0.00107828 0)
(0.00860424 0.00195737 0)
(0.00551161 0.00293381 0)
(0.00121864 0.00419294 0)
(-0.00457829 0.00586146 0)
(-0.0122162 0.00799566 0)
(-0.0220127 0.0105956 0)
(-0.03421 0.0136183 0)
(-0.0489044 0.0169715 0)
(-0.0659636 0.0204858 0)
(-0.0849596 0.0238925 0)
(-0.105183 0.0268504 0)
(-0.125755 0.0290207 0)
(-0.145782 0.0301456 0)
(-0.164481 0.0300873 0)
(-0.181237 0.0288207 0)
(-0.19561 0.0264022 0)
(-0.207306 0.0229364 0)
(-0.216142 0.0185512 0)
(-0.22201 0.0133812 0)
(-0.224854 0.00756459 0)
(-0.224651 0.00125546 0)
(-0.221417 -0.00537545 0)
(-0.215153 -0.0121508 0)
(-0.205883 -0.0188905 0)
(-0.193668 -0.025362 0)
(-0.17863 -0.0312956 0)
(-0.160962 -0.0363889 0)
(-0.140962 -0.0403219 0)
(-0.119048 -0.0427826 0)
(-0.0957728 -0.0435033 0)
(-0.0718266 -0.0423096 0)
(-0.0480077 -0.0391669 0)
(-0.0251773 -0.0342185 0)
(-0.00419112 -0.0277949 0)
(0.0141753 -0.02039 0)
(0.0292986 -0.0125987 0)
(0.040774 -0.00503217 0)
(0.0484236 0.00171452 0)
(0.0522947 0.007178 0)
(0.0526615 0.0110835 0)
(0.0500596 0.0133622 0)
(0.045215 0.0141429 0)
(0.0389513 0.0137235 0)
(0.0320716 0.012496 0)
(0.025241 0.0108519 0)
(0.0189178 0.00910425 0)
(0.0133519 0.00744156 0)
(0.00864423 0.00590438 0)
(0.0048016 0.00439205 0)
(0.00199795 0.0027166 0)
(0.000240845 0.000895569 0)
(0.000335583 -0.00273615 0)
(0.00263161 -0.0063117 0)
(0.0055509 -0.00780116 0)
(0.00843953 -0.00736733 0)
(0.0104953 -0.00560604 0)
(0.0114035 -0.00320868 0)
(0.0110437 -0.000727542 0)
(0.00939794 0.00155142 0)
(0.00643477 0.00363059 0)
(0.0020213 0.00573143 0)
(-0.00411233 0.00817152 0)
(-0.012342 0.0112341 0)
(-0.0230771 0.015084 0)
(-0.0366698 0.0197476 0)
(-0.0533107 0.0251199 0)
(-0.0729095 0.0309529 0)
(-0.0949963 0.0368324 0)
(-0.118731 0.0422143 0)
(-0.14306 0.0465502 0)
(-0.166946 0.0494218 0)
(-0.189531 0.0506015 0)
(-0.210199 0.0500384 0)
(-0.228558 0.0478073 0)
(-0.244392 0.0440567 0)
(-0.257601 0.0389679 0)
(-0.268154 0.0327275 0)
(-0.276052 0.025512 0)
(-0.281301 0.017482 0)
(-0.283897 0.00878612 0)
(-0.283822 -0.000426965 0)
(-0.281051 -0.00999915 0)
(-0.275537 -0.0197464 0)
(-0.267227 -0.0294509 0)
(-0.256062 -0.0388531 0)
(-0.242016 -0.0476314 0)
(-0.225113 -0.0554052 0)
(-0.205461 -0.0617429 0)
(-0.183291 -0.0661944 0)
(-0.158984 -0.0683369 0)
(-0.133103 -0.0678433 0)
(-0.106393 -0.0645556 0)
(-0.0797434 -0.0585527 0)
(-0.0541234 -0.0501852 0)
(-0.0304721 -0.040057 0)
(-0.00958966 -0.0289488 0)
(0.00794616 -0.0177057 0)
(0.0217861 -0.00713009 0)
(0.0318213 0.00210787 0)
(0.0381205 0.00952911 0)
(0.0409169 0.0148562 0)
(0.0406203 0.0180328 0)
(0.0378237 0.0192364 0)
(0.033253 0.0188465 0)
(0.0276652 0.017359 0)
(0.0217361 0.0152704 0)
(0.0159784 0.0129649 0)
(0.0107356 0.0106264 0)
(0.00618725 0.00819959 0)
(0.0026884 0.00542335 0)
(0.000341024 0.00205993 0)
(0.000380175 -0.0041323 0)
(0.00283689 -0.00909402 0)
(0.00566607 -0.0107483 0)
(0.00809798 -0.00961454 0)
(0.00928513 -0.00665712 0)
(0.0089521 -0.00285666 0)
(0.00699408 0.00108524 0)
(0.00334165 0.004876 0)
(-0.00216867 0.00861781 0)
(-0.0098553 0.0126761 0)
(-0.0201621 0.0174842 0)
(-0.033554 0.0233558 0)
(-0.0503728 0.0303733 0)
(-0.0706804 0.0383488 0)
(-0.0941177 0.0468178 0)
(-0.119859 0.0550815 0)
(-0.146753 0.062354 0)
(-0.173593 0.0679655 0)
(-0.199365 0.0714959 0)
(-0.223352 0.0727868 0)
(-0.245122 0.0718822 0)
(-0.264463 0.0689505 0)
(-0.281303 0.0642191 0)
(-0.295653 0.0579291 0)
(-0.30756 0.0503098 0)
(-0.317089 0.0415658 0)
(-0.324303 0.0318741 0)
(-0.329254 0.0213862 0)
(-0.331966 0.010236 0)
(-0.332441 -0.00144882 0)
(-0.330663 -0.013536 0)
(-0.32657 -0.0258763 0)
(-0.320059 -0.0382655 0)
(-0.310996 -0.0504464 0)
(-0.299223 -0.0620824 0)
(-0.284582 -0.0727505 0)
(-0.26695 -0.0819388 0)
(-0.246285 -0.0890688 0)
(-0.222686 -0.0935432 0)
(-0.196458 -0.0948224 0)
(-0.168166 -0.0925282 0)
(-0.138652 -0.0865534 0)
(-0.109 -0.0771511 0)
(-0.0804206 -0.0649606 0)
(-0.0540794 -0.050943 0)
(-0.0309092 -0.0362224 0)
(-0.0114857 -0.0218874 0)
(0.0039884 -0.00882459 0)
(0.0155682 0.0023142 0)
(0.0234442 0.0111132 0)
(0.0278917 0.0173718 0)
(0.02929 0.0211105 0)
(0.0281552 0.0225818 0)
(0.0251228 0.0222385 0)
(0.0208761 0.0206375 0)
(0.0160498 0.0182976 0)
(0.0111735 0.0155475 0)
(0.00661834 0.0124101 0)
(0.00293856 0.00856892 0)
(0.000377882 0.00347482 0)
(0.000408484 -0.00562598 0)
(0.00284456 -0.0118097 0)
(0.00523107 -0.013234 0)
(0.00672625 -0.0109437 0)
(0.0065052 -0.00637018 0)
(0.00435476 -0.000786695 0)
(0.000172433 0.00502128 0)
(-0.00620458 0.0108457 0)
(-0.0151098 0.0169521 0)
(-0.0270329 0.0238462 0)
(-0.0424822 0.0319821 0)
(-0.0617747 0.0415185 0)
(-0.0848252 0.0521927 0)
(-0.111013 0.0633233 0)
(-0.139227 0.0739507 0)
(-0.168115 0.0830949 0)
(-0.196421 0.0900094 0)
(-0.223197 0.0942927 0)
(-0.247841 0.0958545 0)
(-0.27004 0.0948187 0)
(-0.289676 0.0914291 0)
(-0.306751 0.0859797 0)
(-0.321342 0.0787712 0)
(-0.333564 0.0700852 0)
(-0.343556 0.0601694 0)
(-0.351466 0.0492317 0)
(-0.357437 0.0374413 0)
(-0.361597 0.0249331 0)
(-0.364044 0.011813 0)
(-0.36484 -0.00183412 0)
(-0.364015 -0.0159231 0)
(-0.361536 -0.0303394 0)
(-0.357289 -0.0449411 0)
(-0.351105 -0.059518 0)
(-0.342734 -0.0737772 0)
(-0.331866 -0.0873098 0)
(-0.318141 -0.0995839 0)
(-0.301205 -0.10994 0)
(-0.280771 -0.117626 0)
(-0.256719 -0.121865 0)
(-0.229202 -0.121969 0)
(-0.198757 -0.11749 0)
(-0.166357 -0.108377 0)
(-0.133378 -0.0951007 0)
(-0.101443 -0.0786711 0)
(-0.0721282 -0.0605036 0)
(-0.0466447 -0.0421363 0)
(-0.02561 -0.0249083 0)
(-0.00906616 -0.00976258 0)
(0.00329503 0.00276265 0)
(0.0118855 0.0124183 0)
(0.0171111 0.0191582 0)
(0.0193957 0.0231297 0)
(0.0192375 0.0246831 0)
(0.0172219 0.0243304 0)
(0.0139738 0.0226228 0)
(0.0101051 0.0199689 0)
(0.00612881 0.0164489 0)
(0.00275065 0.011702 0)
(0.000350984 0.0049076 0)
(0.000411858 -0.00711983 0)
(0.00258221 -0.0141567 0)
(0.00411627 -0.0148083 0)
(0.0041721 -0.0108353 0)
(0.00202285 -0.00419786 0)
(-0.00248045 0.00358323 0)
(-0.00947667 0.0117387 0)
(-0.0192607 0.020231 0)
(-0.0323184 0.0295009 0)
(-0.0491785 0.040084 0)
(-0.0701428 0.0522213 0)
(-0.0950174 0.0656125 0)
(-0.122987 0.0794038 0)
(-0.152734 0.0924144 0)
(-0.182777 0.103496 0)
(-0.211825 0.111828 0)
(-0.238962 0.117013 0)
(-0.263641 0.119006 0)
(-0.285596 0.117993 0)
(-0.30475 0.114286 0)
(-0.321153 0.108251 0)
(-0.334943 0.100261 0)
(-0.346313 0.0906684 0)
(-0.355496 0.0797841 0)
(-0.362739 0.0678695 0)
(-0.368288 0.0551303 0)
(-0.372372 0.0417207 0)
(-0.375191 0.0277493 0)
(-0.376915 0.0132841 0)
(-0.377666 -0.00163985 0)
(-0.377507 -0.0169945 0)
(-0.37645 -0.0327273 0)
(-0.374433 -0.0487781 0)
(-0.371306 -0.0650256 0)
(-0.366814 -0.0812729 0)
(-0.360588 -0.0972007 0)
(-0.35214 -0.112344 0)
(-0.340875 -0.126063 0)
(-0.326148 -0.137542 0)
(-0.307345 -0.145825 0)
(-0.284028 -0.149908 0)
(-0.256107 -0.148891 0)
(-0.224019 -0.142191 0)
(-0.188865 -0.129775 0)
(-0.152392 -0.11234 0)
(-0.11679 -0.0913366 0)
(-0.0842477 -0.0687515 0)
(-0.0564113 -0.0466499 0)
(-0.0340085 -0.0266707 0)
(-0.0168797 -0.00975964 0)
(-0.00438098 0.0037397 0)
(0.00419648 0.0138273 0)
(0.00945207 0.0206752 0)
(0.0119092 0.0245944 0)
(0.0121001 0.0260325 0)
(0.0106031 0.0255023 0)
(0.00803815 0.0234151 0)
(0.0049951 0.0198602 0)
(0.00225114 0.0144377 0)
(0.000280467 0.00615833 0)
(0.000373167 -0.00846734 0)
(0.00194453 -0.0157565 0)
(0.00216745 -0.014984 0)
(0.000287185 -0.0087863 0)
(-0.0042607 0.000359297 0)
(-0.0115872 0.0107809 0)
(-0.0219089 0.0218342 0)
(-0.0356439 0.033685 0)
(-0.053303 0.0468405 0)
(-0.0751869 0.0616103 0)
(-0.101058 0.0777067 0)
(-0.129994 0.0941677 0)
(-0.160546 0.10963 0)
(-0.191128 0.122778 0)
(-0.220392 0.132689 0)
(-0.247404 0.138937 0)
(-0.271616 0.141496 0)
(-0.292765 0.140602 0)
(-0.310799 0.136637 0)
(-0.325817 0.130053 0)
(-0.338032 0.121314 0)
(-0.347731 0.110865 0)
(-0.355248 0.0990955 0)
(-0.360929 0.0863336 0)
(-0.365107 0.0728335 0)
(-0.368085 0.0587791 0)
(-0.370127 0.0442918 0)
(-0.371455 0.0294403 0)
(-0.372258 0.0142508 0)
(-0.372679 -0.00128045 0)
(-0.372801 -0.0171729 0)
(-0.372679 -0.0334492 0)
(-0.372317 -0.0501191 0)
(-0.37164 -0.0671596 0)
(-0.370482 -0.0844878 0)
(-0.368546 -0.101926 0)
(-0.36538 -0.119158 0)
(-0.360351 -0.135684 0)
(-0.352644 -0.150777 0)
(-0.341301 -0.163468 0)
(-0.325331 -0.172574 0)
(-0.303885 -0.176805 0)
(-0.27652 -0.174964 0)
(-0.243479 -0.166236 0)
(-0.205934 -0.150528 0)
(-0.166043 -0.128746 0)
(-0.126695 -0.102857 0)
(-0.090875 -0.0755663 0)
(-0.060819 -0.0496189 0)
(-0.0373974 -0.027008 0)
(-0.0201812 -0.00862783 0)
(-0.00810871 0.00547253 0)
(-0.000123448 0.0156215 0)
(0.0046016 0.0222517 0)
(0.00672464 0.0258365 0)
(0.00684946 0.0268589 0)
(0.00559982 0.0256931 0)
(0.00359939 0.0224003 0)
(0.00162681 0.0165516 0)
(0.000195438 0.00711406 0)
(0.000275689 -0.0094558 0)
(0.000835174 -0.0161682 0)
(-0.000724169 -0.0132736 0)
(-0.00498394 -0.00434312 0)
(-0.012311 0.00772621 0)
(-0.0228258 0.021243 0)
(-0.0368252 0.0357556 0)
(-0.0547504 0.0515492 0)
(-0.0769028 0.0689476 0)
(-0.103065 0.08772 0)
(-0.1323 0.106871 0)
(-0.163093 0.124893 0)
(-0.193765 0.140288 0)
(-0.222887 0.15199 0)
(-0.24946 0.159496 0)
(-0.272893 0.162773 0)
(-0.292912 0.162096 0)
(-0.30949 0.157924 0)
(-0.322785 0.150812 0)
(-0.333103 0.141338 0)
(-0.340837 0.130053 0)
(-0.346422 0.117441 0)
(-0.350293 0.103901 0)
(-0.352848 0.0897343 0)
(-0.354432 0.0751568 0)
(-0.355333 0.0603049 0)
(-0.355779 0.0452516 0)
(-0.355954 0.0300196 0)
(-0.356008 0.0145977 0)
(-0.35606 -0.00104523 0)
(-0.356191 -0.0169568 0)
(-0.356476 -0.0332045 0)
(-0.356965 -0.0498426 0)
(-0.357673 -0.0669167 0)
(-0.358554 -0.0844387 0)
(-0.359472 -0.102369 0)
(-0.360156 -0.12057 0)
(-0.360142 -0.138761 0)
(-0.358724 -0.156447 0)
(-0.354921 -0.172853 0)
(-0.347496 -0.186877 0)
(-0.335059 -0.197098 0)
(-0.31629 -0.201886 0)
(-0.290283 -0.199643 0)
(-0.256964 -0.189195 0)
(-0.217494 -0.170279 0)
(-0.17444 -0.143979 0)
(-0.131495 -0.112872 0)
(-0.092611 -0.0805887 0)
(-0.0607253 -0.0507349 0)
(-0.0368165 -0.0256959 0)
(-0.0200666 -0.00620763 0)
(-0.00891974 0.00809638 0)
(-0.00195441 0.0179333 0)
(0.00189019 0.0239913 0)
(0.00341943 0.0268353 0)
(0.00333551 0.0268382 0)
(0.00229859 0.0240379 0)
(0.0010567 0.0180016 0)
(0.000122597 0.00776251 0)
(9.66253e-05 -0.00980169 0)
(-0.000807148 -0.0149343 0)
(-0.00456456 -0.00924695 0)
(-0.0115459 0.00285092 0)
(-0.0219059 0.0182104 0)
(-0.0358076 0.0352425 0)
(-0.0535641 0.0536579 0)
(-0.0754558 0.0736457 0)
(-0.10133 0.095042 0)
(-0.13032 0.116893 0)
(-0.160916 0.137601 0)
(-0.191371 0.155472 0)
(-0.220146 0.16924 0)
(-0.246144 0.178272 0)
(-0.268709 0.182488 0)
(-0.287545 0.182191 0)
(-0.302647 0.177924 0)
(-0.314248 0.170359 0)
(-0.32275 0.160207 0)
(-0.328657 0.148142 0)
(-0.332503 0.13475 0)
(-0.334796 0.120501 0)
(-0.33598 0.105744 0)
(-0.336419 0.0907176 0)
(-0.336392 0.0755651 0)
(-0.336109 0.0603599 0)
(-0.335718 0.0451225 0)
(-0.335329 0.0298365 0)
(-0.335026 0.0144641 0)
(-0.334879 -0.00104187 0)
(-0.334951 -0.0167393 0)
(-0.335313 -0.0327011 0)
(-0.336029 -0.0489938 0)
(-0.337168 -0.0656875 0)
(-0.33878 -0.0828418 0)
(-0.340877 -0.100501 0)
(-0.343394 -0.118669 0)
(-0.346134 -0.13727 0)
(-0.348692 -0.156086 0)
(-0.35037 -0.174676 0)
(-0.350108 -0.192265 0)
(-0.346456 -0.20766 0)
(-0.337657 -0.219208 0)
(-0.321891 -0.224893 0)
(-0.297702 -0.222611 0)
(-0.264585 -0.210685 0)
(-0.223593 -0.188555 0)
(-0.177686 -0.157464 0)
(-0.131468 -0.120747 0)
(-0.0900032 -0.0832274 0)
(-0.0569724 -0.049575 0)
(-0.0333089 -0.0225169 0)
(-0.0176231 -0.00243334 0)
(-0.00781896 0.0115857 0)
(-0.00213811 0.0206511 0)
(0.000685888 0.0256241 0)
(0.00159163 0.0270116 0)
(0.00133829 0.0248983 0)
(0.00066552 0.0188952 0)
(7.90849e-05 0.00817302 0)
(-0.000192175 -0.00920332 0)
(-0.00298554 -0.0116244 0)
(-0.00923077 -0.00257453 0)
(-0.0191339 0.0130144 0)
(-0.0326141 0.0319511 0)
(-0.0498682 0.0527975 0)
(-0.0710985 0.0752787 0)
(-0.0962302 0.0992102 0)
(-0.124534 0.123737 0)
(-0.154589 0.147243 0)
(-0.184616 0.167846 0)
(-0.212964 0.184025 0)
(-0.23841 0.194944 0)
(-0.26021 0.20043 0)
(-0.278029 0.200786 0)
(-0.291881 0.196637 0)
(-0.302064 0.188783 0)
(-0.309077 0.178082 0)
(-0.313529 0.165349 0)
(-0.316044 0.151281 0)
(-0.317191 0.136425 0)
(-0.317446 0.121171 0)
(-0.317173 0.105775 0)
(-0.316632 0.0903802 0)
(-0.315996 0.0750507 0)
(-0.315369 0.0597977 0)
(-0.314817 0.044599 0)
(-0.314377 0.029414 0)
(-0.314076 0.0141937 0)
(-0.313941 -0.00111383 0)
(-0.314011 -0.0165636 0)
(-0.31434 -0.0322112 0)
(-0.314989 -0.0481155 0)
(-0.31604 -0.0643386 0)
(-0.317584 -0.0809475 0)
(-0.319713 -0.0980128 0)
(-0.322498 -0.115603 0)
(-0.325955 -0.133767 0)
(-0.329983 -0.152498 0)
(-0.334274 -0.171665 0)
(-0.338206 -0.190911 0)
(-0.340716 -0.20951 0)
(-0.340228 -0.226216 0)
(-0.334681 -0.239164 0)
(-0.321769 -0.245913 0)
(-0.299444 -0.243757 0)
(-0.266688 -0.23037 0)
(-0.224374 -0.204781 0)
(-0.175875 -0.168416 0)
(-0.126827 -0.125615 0)
(-0.0835442 -0.082758 0)
(-0.0503604 -0.0457355 0)
(-0.027837 -0.0173848 0)
(-0.0137989 0.00256999 0)
(-0.00564158 0.0156629 0)
(-0.00135526 0.0233102 0)
(0.00046621 0.0263889 0)
(0.000814439 0.0251829 0)
(0.000504472 0.0194269 0)
(7.06677e-05 0.00846074 0)
(-0.000581388 -0.00737199 0)
(-0.0056024 -0.00591057 0)
(-0.0144852 0.00692428 0)
(-0.0273346 0.0261965 0)
(-0.0438193 0.0488702 0)
(-0.0641165 0.0736058 0)
(-0.0881702 0.0999204 0)
(-0.115438 0.127035 0)
(-0.144662 0.153396 0)
(-0.174108 0.176978 0)
(-0.202027 0.195963 0)
(-0.227051 0.209233 0)
(-0.248318 0.216442 0)
(-0.265431 0.217855 0)
(-0.2784 0.214154 0)
(-0.28757 0.20627 0)
(-0.293524 0.195223 0)
(-0.296962 0.181983 0)
(-0.298586 0.167373 0)
(-0.29902 0.152025 0)
(-0.298761 0.136375 0)
(-0.298168 0.120691 0)
(-0.297475 0.105113 0)
(-0.296817 0.0896892 0)
(-0.296259 0.0744168 0)
(-0.295822 0.059262 0)
(-0.295505 0.0441787 0)
(-0.295299 0.0291184 0)
(-0.295199 0.0140343 0)
(-0.295207 -0.00111846 0)
(-0.295345 -0.0163818 0)
(-0.295647 -0.0317927 0)
(-0.296165 -0.0473919 0)
(-0.296971 -0.0632227 0)
(-0.298158 -0.0793373 0)
(-0.299837 -0.0957986 0)
(-0.302131 -0.112685 0)
(-0.30516 -0.130089 0)
(-0.309009 -0.148106 0)
(-0.31367 -0.166798 0)
(-0.318946 -0.186133 0)
(-0.324315 -0.205853 0)
(-0.328768 -0.225303 0)
(-0.330667 -0.24321 0)
(-0.327712 -0.257497 0)
(-0.317153 -0.265266 0)
(-0.296353 -0.263109 0)
(-0.263752 -0.247923 0)
(-0.220045 -0.218255 0)
(-0.169107 -0.175847 0)
(-0.117798 -0.126454 0)
(-0.0737773 -0.0784767 0)
(-0.041726 -0.0390088 0)
(-0.0212999 -0.0104724 0)
(-0.00940403 0.00840349 0)
(-0.00307921 0.0197297 0)
(-0.000195659 0.0250477 0)
(0.000669615 0.0250772 0)
(0.000552177 0.0198041 0)
(9.31335e-05 0.00874804 0)
(-0.00105029 -0.0040593 0)
(-0.00849111 0.00237501 0)
(-0.0199913 0.0192488 0)
(-0.0356268 0.0422551 0)
(-0.0547883 0.0686471 0)
(-0.0775591 0.0970526 0)
(-0.103518 0.126567 0)
(-0.131664 0.155737 0)
(-0.160385 0.182477 0)
(-0.187892 0.204672 0)
(-0.212666 0.220832 0)
(-0.233694 0.23034 0)
(-0.250483 0.233347 0)
(-0.263002 0.230551 0)
(-0.27161 0.222997 0)
(-0.276947 0.211872 0)
(-0.279789 0.198321 0)
(-0.280909 0.183314 0)
(-0.280979 0.167586 0)
(-0.280516 0.151627 0)
(-0.279876 0.135725 0)
(-0.279268 0.120011 0)
(-0.278795 0.104522 0)
(-0.278488 0.0892335 0)
(-0.278333 0.0741 0)
(-0.278301 0.0590668 0)
(-0.278358 0.0440824 0)
(-0.278475 0.0291028 0)
(-0.278635 0.0140911 0)
(-0.278834 -0.000984077 0)
(-0.27908 -0.0161487 0)
(-0.279399 -0.0314248 0)
(-0.279829 -0.0468347 0)
(-0.280426 -0.0624023 0)
(-0.281264 -0.0781587 0)
(-0.282437 -0.094146 0)
(-0.284066 -0.110425 0)
(-0.286291 -0.127083 0)
(-0.289269 -0.144236 0)
(-0.293143 -0.162028 0)
(-0.297989 -0.180597 0)
(-0.303716 -0.200008 0)
(-0.309908 -0.220112 0)
(-0.315622 -0.240322 0)
(-0.319184 -0.259328 0)
(-0.31809 -0.27481 0)
(-0.309177 -0.283343 0)
(-0.289252 -0.280712 0)
(-0.256256 -0.262934 0)
(-0.210808 -0.228092 0)
(-0.157509 -0.178571 0)
(-0.104724 -0.122206 0)
(-0.0614465 -0.0699207 0)
(-0.0320246 -0.0295691 0)
(-0.0145609 -0.00229447 0)
(-0.00516459 0.0143616 0)
(-0.000766424 0.0228653 0)
(0.000715757 0.0246625 0)
(0.000728339 0.0201766 0)
(0.000135163 0.00913103 0)
(-0.00156244 0.000873548 0)
(-0.0114332 0.0132258 0)
(-0.0253609 0.0342197 0)
(-0.0434483 0.0608586 0)
(-0.0647737 0.0907405 0)
(-0.0892627 0.122299 0)
(-0.116099 0.154078 0)
(-0.143932 0.184014 0)
(-0.171006 0.209753 0)
(-0.195682 0.22937 0)
(-0.216768 0.241851 0)
(-0.233627 0.247119 0)
(-0.246141 0.245817 0)
(-0.254638 0.239059 0)
(-0.25978 0.228196 0)
(-0.262397 0.214564 0)
(-0.263325 0.199311 0)
(-0.263286 0.1833 0)
(-0.262824 0.167098 0)
(-0.262295 0.151022 0)
(-0.261895 0.135205 0)
(-0.261702 0.119667 0)
(-0.261718 0.104367 0)
(-0.261908 0.0892443 0)
(-0.262219 0.0742338 0)
(-0.262602 0.0592805 0)
(-0.263016 0.0443402 0)
(-0.26343 0.0293802 0)
(-0.263829 0.014376 0)
(-0.264208 -0.000690194 0)
(-0.264577 -0.0158309 0)
(-0.264953 -0.0310569 0)
(-0.265365 -0.0463771 0)
(-0.265852 -0.0618011 0)
(-0.266467 -0.0773423 0)
(-0.267277 -0.0930217 0)
(-0.268371 -0.108874 0)
(-0.269864 -0.124959 0)
(-0.271905 -0.14137 0)
(-0.274673 -0.15825 0)
(-0.27836 -0.17579 0)
(-0.283122 -0.19421 0)
(-0.288967 -0.213681 0)
(-0.29558 -0.234159 0)
(-0.302074 -0.255117 0)
(-0.30672 -0.275156 0)
(-0.306793 -0.291633 0)
(-0.29872 -0.300463 0)
(-0.278787 -0.296488 0)
(-0.244553 -0.274773 0)
(-0.196814 -0.233123 0)
(-0.141289 -0.175221 0)
(-0.0882188 -0.111983 0)
(-0.0476282 -0.0571485 0)
(-0.0223214 -0.0180876 0)
(-0.00843606 0.00629391 0)
(-0.00174538 0.0194508 0)
(0.00068395 0.0238475 0)
(0.000917605 0.020583 0)
(0.000181688 0.00965512 0)
(-0.00206786 0.00743078 0)
(-0.0141912 0.0264572 0)
(-0.0302089 0.0514966 0)
(-0.0502718 0.0815154 0)
(-0.073121 0.114454 0)
(-0.0984943 0.148418 0)
(-0.125224 0.181371 0)
(-0.151771 0.210816 0)
(-0.176419 0.234396 0)
(-0.197801 0.250573 0)
(-0.215088 0.258885 0)
(-0.228022 0.2598 0)
(-0.236841 0.254434 0)
(-0.242183 0.244264 0)
(-0.244905 0.230831 0)
(-0.245896 0.215495 0)
(-0.245932 0.199287 0)
(-0.245595 0.182883 0)
(-0.245257 0.166653 0)
(-0.245109 0.150742 0)
(-0.245216 0.135159 0)
(-0.245562 0.119847 0)
(-0.246092 0.104728 0)
(-0.246742 0.0897266 0)
(-0.247449 0.0747811 0)
(-0.248166 0.0598468 0)
(-0.248857 0.0448929 0)
(-0.2495 0.0298998 0)
(-0.250086 0.0148554 0)
(-0.250614 -0.000247465 0)
(-0.251095 -0.0154132 0)
(-0.251545 -0.0306424 0)
(-0.251987 -0.0459366 0)
(-0.252449 -0.0612971 0)
(-0.252967 -0.076727 0)
(-0.253586 -0.0922333 0)
(-0.254362 -0.107831 0)
(-0.25537 -0.123551 0)
(-0.256716 -0.13945 0)
(-0.258544 -0.15563 0)
(-0.261049 -0.172255 0)
(-0.264461 -0.189567 0)
(-0.269009 -0.207868 0)
(-0.274796 -0.227442 0)
(-0.281599 -0.248357 0)
(-0.288559 -0.270115 0)
(-0.293847 -0.291155 0)
(-0.294447 -0.308349 0)
(-0.286335 -0.316752 0)
(-0.265321 -0.31007 0)
(-0.228792 -0.282422 0)
(-0.178148 -0.231804 0)
(-0.120843 -0.16437 0)
(-0.0693531 -0.095434 0)
(-0.0337454 -0.0410031 0)
(-0.0136436 -0.00570868 0)
(-0.0036254 0.0141411 0)
(0.000301917 0.0223447 0)
(0.00100371 0.0209283 0)
(0.000218201 0.0103062 0)
(-0.00251296 0.0154724 0)
(-0.0165439 0.0417284 0)
(-0.0342027 0.0706125 0)
(-0.0556707 0.103627 0)
(-0.0793508 0.139028 0)
(-0.104802 0.174518 0)
(-0.1306 0.207552 0)
(-0.15517 0.235415 0)
(-0.176969 0.255969 0)
(-0.194963 0.268184 0)
(-0.208685 0.272178 0)
(-0.21823 0.268947 0)
(-0.224148 0.26003 0)
(-0.227281 0.247161 0)
(-0.228559 0.231941 0)
(-0.228816 0.215623 0)
(-0.228684 0.19904 0)
(-0.228569 0.18265 0)
(-0.228676 0.16663 0)
(-0.229065 0.150991 0)
(-0.229712 0.135658 0)
(-0.230551 0.120536 0)
(-0.231507 0.105536 0)
(-0.232511 0.0905872 0)
(-0.233511 0.0756432 0)
(-0.234468 0.0606733 0)
(-0.235356 0.0456604 0)
(-0.236164 0.0305968 0)
(-0.236887 0.0154804 0)
(-0.237531 0.000312311 0)
(-0.238108 -0.0149052 0)
(-0.238631 -0.0301675 0)
(-0.239122 -0.0454712 0)
(-0.239605 -0.0608135 0)
(-0.240105 -0.0761927 0)
(-0.240651 -0.0916093 0)
(-0.241279 -0.107068 0)
(-0.242031 -0.12258 0)
(-0.24297 -0.138175 0)
(-0.244187 -0.15391 0)
(-0.24582 -0.169893 0)
(-0.248071 -0.186313 0)
(-0.251206 -0.203462 0)
(-0.255515 -0.221729 0)
(-0.26119 -0.241518 0)
(-0.268079 -0.263002 0)
(-0.275313 -0.285668 0)
(-0.280878 -0.307667 0)
(-0.28137 -0.325154 0)
(-0.272235 -0.332022 0)
(-0.248887 -0.320621 0)
(-0.208887 -0.284286 0)
(-0.154907 -0.222192 0)
(-0.0969731 -0.144887 0)
(-0.049828 -0.0732967 0)
(-0.0213071 -0.0231513 0)
(-0.00678078 0.00606179 0)
(-0.000629541 0.0196952 0)
(0.00090464 0.0210014 0)
(0.000236037 0.0110206 0)
(-0.00285022 0.0247271 0)
(-0.0183144 0.0585809 0)
(-0.0370977 0.0910209 0)
(-0.0593618 0.126549 0)
(-0.0831983 0.163725 0)
(-0.108026 0.19984 0)
(-0.132277 0.231975 0)
(-0.154467 0.257404 0)
(-0.173303 0.274372 0)
(-0.188094 0.282417 0)
(-0.198714 0.282233 0)
(-0.205564 0.275301 0)
(-0.209412 0.263494 0)
(-0.211199 0.24867 0)
(-0.211811 0.232358 0)
(-0.211949 0.215614 0)
(-0.212071 0.199038 0)
(-0.212414 0.182874 0)
(-0.213053 0.167146 0)
(-0.21396 0.151772 0)
(-0.215067 0.136636 0)
(-0.216291 0.121631 0)
(-0.21756 0.106677 0)
(-0.218816 0.0917193 0)
(-0.22002 0.0767262 0)
(-0.221144 0.0616815 0)
(-0.222173 0.0465799 0)
(-0.223101 0.0314229 0)
(-0.223929 0.0162156 0)
(-0.224666 0.000965467 0)
(-0.225321 -0.0143189 0)
(-0.225911 -0.0296308 0)
(-0.226455 -0.0449635 0)
(-0.226975 -0.0603121 0)
(-0.227491 -0.0756734 0)
(-0.228026 -0.0910461 0)
(-0.228604 -0.106431 0)
(-0.229248 -0.121833 0)
(-0.229991 -0.137263 0)
(-0.230879 -0.152749 0)
(-0.23199 -0.168349 0)
(-0.233458 -0.184182 0)
(-0.235492 -0.200463 0)
(-0.238392 -0.217542 0)
(-0.242507 -0.235909 0)
(-0.248104 -0.256093 0)
(-0.255071 -0.278354 0)
(-0.262454 -0.30208 0)
(-0.267943 -0.324927 0)
(-0.267601 -0.341996 0)
(-0.256284 -0.345616 0)
(-0.229178 -0.326598 0)
(-0.184581 -0.278042 0)
(-0.127419 -0.202174 0)
(-0.0712242 -0.116703 0)
(-0.0318982 -0.047873 0)
(-0.0114091 -0.00579655 0)
(-0.00221863 0.0153152 0)
(0.000592019 0.0205214 0)
(0.000233826 0.011709 0)
(-0.00304527 0.0348221 0)
(-0.019387 0.0764832 0)
(-0.0387545 0.112144 0)
(-0.0612177 0.149654 0)
(-0.0846091 0.187897 0)
(-0.108262 0.223805 0)
(-0.130567 0.254242 0)
(-0.150221 0.27665 0)
(-0.166211 0.289758 0)
(-0.178172 0.293691 0)
(-0.18627 0.289686 0)
(-0.191139 0.279636 0)
(-0.193669 0.26563 0)
(-0.194788 0.249516 0)
(-0.195268 0.232653 0)
(-0.195643 0.215855 0)
(-0.196204 0.199488 0)
(-0.197055 0.18362 0)
(-0.198181 0.168168 0)
(-0.199514 0.152997 0)
(-0.200969 0.13798 0)
(-0.20247 0.12302 0)
(-0.203957 0.108053 0)
(-0.205389 0.0930397 0)
(-0.206736 0.077964 0)
(-0.207983 0.0628205 0)
(-0.209119 0.0476127 0)
(-0.210144 0.0323489 0)
(-0.211059 0.01704 0)
(-0.211873 0.00169812 0)
(-0.212597 -0.0136645 0)
(-0.213247 -0.0290372 0)
(-0.213841 -0.044411 0)
(-0.214398 -0.0597797 0)
(-0.214939 -0.07514 0)
(-0.215486 -0.0904911 0)
(-0.216057 -0.105835 0)
(-0.216668 -0.121176 0)
(-0.217335 -0.13652 0)
(-0.218078 -0.15188 0)
(-0.218931 -0.167282 0)
(-0.21996 -0.182787 0)
(-0.221294 -0.198524 0)
(-0.223157 -0.214744 0)
(-0.225885 -0.231872 0)
(-0.229893 -0.250518 0)
(-0.235506 -0.271351 0)
(-0.242598 -0.294674 0)
(-0.250022 -0.319619 0)
(-0.254999 -0.34302 0)
(-0.252899 -0.358433 0)
(-0.237987 -0.356156 0)
(-0.205591 -0.325491 0)
(-0.155642 -0.260652 0)
(-0.0966467 -0.170216 0)
(-0.0462527 -0.0820371 0)
(-0.0175767 -0.0226533 0)
(-0.00454186 0.0085505 0)
(7.61535e-05 0.0191625 0)
(0.000213965 0.0122818 0)
(-0.00308043 0.0453237 0)
(-0.0197112 0.0948767 0)
(-0.0391372 0.133419 0)
(-0.0612539 0.172375 0)
(-0.0837036 0.21102 0)
(-0.105788 0.246021 0)
(-0.125946 0.274178 0)
(-0.143098 0.293232 0)
(-0.15651 0.302448 0)
(-0.166105 0.302528 0)
(-0.172278 0.295191 0)
(-0.17581 0.282647 0)
(-0.177619 0.267073 0)
(-0.178544 0.250202 0)
(-0.179205 0.233161 0)
(-0.179973 0.216516 0)
(-0.181003 0.200429 0)
(-0.182308 0.184839 0)
(-0.183826 0.169598 0)
(-0.185476 0.154553 0)
(-0.187178 0.139586 0)
(-0.188871 0.124614 0)
(-0.190511 0.109591 0)
(-0.192068 0.0944945 0)
(-0.193525 0.079317 0)
(-0.194869 0.0640618 0)
(-0.196097 0.0487384 0)
(-0.197205 0.0333598 0)
(-0.198199 0.0179417 0)
(-0.199084 0.00250019 0)
(-0.199873 -0.012949 0)
(-0.200579 -0.0283919 0)
(-0.201219 -0.0438171 0)
(-0.201812 -0.0592167 0)
(-0.20238 -0.0745872 0)
(-0.202943 -0.0899288 0)
(-0.203519 -0.105246 0)
(-0.204124 -0.120546 0)
(-0.204769 -0.135838 0)
(-0.205462 -0.151131 0)
(-0.206213 -0.16644 0)
(-0.207043 -0.181791 0)
(-0.20801 -0.197246 0)
(-0.209243 -0.212952 0)
(-0.210985 -0.229205 0)
(-0.213623 -0.246531 0)
(-0.217639 -0.265697 0)
(-0.223397 -0.287515 0)
(-0.230676 -0.312251 0)
(-0.237968 -0.338505 0)
(-0.241798 -0.361768 0)
(-0.236693 -0.373382 0)
(-0.21649 -0.361183 0)
(-0.17738 -0.313603 0)
(-0.122282 -0.228885 0)
(-0.0648379 -0.127041 0)
(-0.0255829 -0.0461316 0)
(-0.00763322 -0.00130426 0)
(-0.000659476 0.0165666 0)
(0.000188838 0.0126592 0)
(-0.00295444 0.0557784 0)
(-0.0192957 0.113212 0)
(-0.038298 0.154328 0)
(-0.0595989 0.194233 0)
(-0.0807266 0.232707 0)
(-0.100996 0.266266 0)
(-0.118958 0.291775 0)
(-0.133771 0.307364 0)
(-0.144954 0.312848 0)
(-0.152664 0.309464 0)
(-0.157454 0.29934 0)
(-0.160171 0.284891 0)
(-0.161682 0.268271 0)
(-0.162698 0.251026 0)
(-0.163683 0.23403 0)
(-0.164871 0.217622 0)
(-0.166317 0.201806 0)
(-0.167983 0.186435 0)
(-0.169791 0.171331 0)
(-0.171663 0.156345 0)
(-0.173534 0.141372 0)
(-0.17536 0.12635 0)
(-0.177109 0.111248 0)
(-0.178763 0.0960519 0)
(-0.180308 0.0807634 0)
(-0.181736 0.0653905 0)
(-0.183044 0.0499466 0)
(-0.184231 0.0344489 0)
(-0.185298 0.0189164 0)
(-0.186253 0.00336896 0)
(-0.187105 -0.0121741 0)
(-0.187867 -0.0276956 0)
(-0.188555 -0.0431814 0)
(-0.189187 -0.0586219 0)
(-0.189784 -0.0740127 0)
(-0.190367 -0.0893547 0)
(-0.190954 -0.104654 0)
(-0.191562 -0.119923 0)
(-0.192204 -0.135174 0)
(-0.192885 -0.150423 0)
(-0.193607 -0.165682 0)
(-0.194369 -0.180967 0)
(-0.195184 -0.196302 0)
(-0.196105 -0.211758 0)
(-0.197267 -0.227503 0)
(-0.198948 -0.243906 0)
(-0.201597 -0.261632 0)
(-0.205765 -0.281644 0)