/*--------------------------------*- C++ -*----------------------------------*\
| =========                 |                                                 |
| \\      /  F ield         | OpenFOAM: The Open Source CFD Toolbox           |
|  \\    /   O peration     | Version:  2406                                  |
|   \\  /    A nd           | Website:  www.openfoam.com                      |
|    \\/     M anipulation  |                                                 |
\*---------------------------------------------------------------------------*/
FoamFile
{
    version     2.0;
    format      ascii;
    arch        "LSB;label=32;scalar=64";
    class       volVectorField;
    location    "31.5";
    object      U;
}
// * * * * * * * * * * * * * * * * * * * * * * * * * * * * * * * * * * * * * //

dimensions      [0 1 -1 0 0 0 0];

internalField   nonuniform List<vector> 
16384
(
(-1.2877e-05 1.27539e-05 0)
(8.9187e-07 1.39936e-06 0)
(8.2946e-05 -1.31455e-05 0)
(0.000226062 -2.4848e-05 0)
(0.000416617 -3.26776e-05 0)
(0.000638556 -3.70121e-05 0)
(0.000876334 -3.84444e-05 0)
(0.00111621 -3.75751e-05 0)
(0.00134683 -3.4991e-05 0)
(0.00155951 -3.12567e-05 0)
(0.0017483 -2.69008e-05 0)
(0.00190988 -2.23957e-05 0)
(0.00204329 -1.81369e-05 0)
(0.00214954 -1.4428e-05 0)
(0.00223113 -1.14737e-05 0)
(0.00229155 -9.38187e-06 0)
(0.00233478 -8.17074e-06 0)
(0.00236478 -7.7808e-06 0)
(0.00238509 -8.09321e-06 0)
(0.00239855 -8.92943e-06 0)
(0.00240703 -1.01192e-05 0)
(0.00241125 -1.15505e-05 0)
(0.00241078 -1.29771e-05 0)
(0.00240429 -1.41749e-05 0)
(0.0023895 -1.50665e-05 0)
(0.00236339 -1.55878e-05 0)
(0.0023224 -1.5691e-05 0)
(0.00226264 -1.53518e-05 0)
(0.00217997 -1.45599e-05 0)
(0.00207013 -1.33072e-05 0)
(0.00192874 -1.15769e-05 0)
(0.00175131 -9.34497e-06 0)
(0.00153325 -6.55703e-06 0)
(0.0012698 -3.15947e-06 0)
(0.000956125 9.19104e-07 0)
(0.000587266 5.75522e-06 0)
(0.000158256 1.14223e-05 0)
(-0.000335819 1.79854e-05 0)
(-0.000899691 2.55151e-05 0)
(-0.00153778 3.4058e-05 0)
(-0.00225404 4.36473e-05 0)
(-0.00305186 5.42987e-05 0)
(-0.00393381 6.60054e-05 0)
(-0.0049016 7.87354e-05 0)
(-0.00595583 9.24278e-05 0)
(-0.00709592 0.000106991 0)
(-0.00831995 0.000122301 0)
(-0.00962458 0.000138198 0)
(-0.011005 0.000154491 0)
(-0.0124547 0.000170952 0)
(-0.0139658 0.000187321 0)
(-0.0155287 0.00020331 0)
(-0.0171324 0.000218602 0)
(-0.0187644 0.000232856 0)
(-0.0204107 0.000245711 0)
(-0.0220562 0.000256793 0)
(-0.0236847 0.000265716 0)
(-0.0252788 0.000272095 0)
(-0.0268206 0.000275545 0)
(-0.0282913 0.000275695 0)
(-0.0296716 0.000272193 0)
(-0.0309423 0.000264718 0)
(-0.0320838 0.000252994 0)
(-0.0330769 0.000236841 0)
(-0.0339031 0.000216224 0)
(-0.0345448 0.000191188 0)
(-0.0349856 0.000161478 0)
(-0.0352102 0.000126639 0)
(-0.0352021 8.87785e-05 0)
(-0.0349469 4.57439e-05 0)
(-0.0344389 -3.54585e-06 0)
(-0.0336732 -5.56124e-05 0)
(-0.0326452 -0.000109342 0)
(-0.0313552 -0.000164071 0)
(-0.0298081 -0.000218827 0)
(-0.0280128 -0.000272439 0)
(-0.0259831 -0.000323606 0)
(-0.0237375 -0.000370954 0)
(-0.0212992 -0.000413087 0)
(-0.0186961 -0.000448646 0)
(-0.0159605 -0.000476376 0)
(-0.0131286 -0.000495192 0)
(-0.0102395 -0.000504246 0)
(-0.0073352 -0.000502954 0)
(-0.00445847 -0.000491028 0)
(-0.00165159 -0.000468907 0)
(0.00104172 -0.00043812 0)
(0.00358113 -0.000397517 0)
(0.00593182 -0.000349709 0)
(0.00806163 -0.000296352 0)
(0.0099444 -0.000239195 0)
(0.0115607 -0.000180243 0)
(0.0128981 -0.000121403 0)
(0.0139514 -6.45925e-05 0)
(0.0147226 -1.14622e-05 0)
(0.0152206 3.66057e-05 0)
(0.0154604 7.85523e-05 0)
(0.015462 0.000113635 0)
(0.0152499 0.000141634 0)
(0.0148516 0.000162551 0)
(0.0142962 0.000176779 0)
(0.0136134 0.000184833 0)
(0.0128326 0.000187439 0)
(0.011982 0.000185442 0)
(0.0110874 0.000179719 0)
(0.0101721 0.00017113 0)
(0.00925631 0.000160478 0)
(0.00835686 0.000148485 0)
(0.00748737 0.00013577 0)
(0.00665828 0.000122848 0)
(0.0058771 0.000110129 0)
(0.00514868 9.79249e-05 0)
(0.00447557 8.64678e-05 0)
(0.00385838 7.59198e-05 0)
(0.00329608 6.6389e-05 0)
(0.00278637 5.79391e-05 0)
(0.002326 5.05928e-05 0)
(0.00191117 4.43258e-05 0)
(0.00153791 3.90503e-05 0)
(0.00120263 3.45879e-05 0)
(0.000902689 3.0635e-05 0)
(0.000637106 2.67264e-05 0)
(0.00040725 2.22038e-05 0)
(0.000217284 1.62291e-05 0)
(7.38519e-05 8.05628e-06 0)
(-1.43802e-05 -2.37204e-06 0)
(-4.26584e-05 -1.39289e-05 0)
(-1.89975e-05 -1.90942e-05 0)
(-2.20883e-06 -6.06119e-07 0)
(0.000100434 -0.000103272 0)
(0.000348784 -0.000224025 0)
(0.000726409 -0.000327053 0)
(0.00120537 -0.000401733 0)
(0.0017527 -0.00044655 0)
(0.00233509 -0.000463604 0)
(0.00292188 -0.000456708 0)
(0.00348689 -0.000430561 0)
(0.00400938 -0.000390248 0)
(0.0044745 -0.000340855 0)
(0.00487315 -0.000287136 0)
(0.00520155 -0.000233238 0)
(0.00546045 -0.000182497 0)
(0.00565406 -0.00013731 0)
(0.005789 -9.90972e-05 0)
(0.00587308 -6.83304e-05 0)
(0.00591423 -4.46239e-05 0)
(0.0059195 -2.68946e-05 0)
(0.00589427 -1.34946e-05 0)
(0.00584164 -2.44397e-06 0)
(0.00576219 8.319e-06 0)
(0.00565387 2.09295e-05 0)
(0.00551201 3.73304e-05 0)
(0.00532969 5.90706e-05 0)
(0.00509821 8.73604e-05 0)
(0.00480743 0.000123076 0)
(0.00444623 0.000166803 0)
(0.00400279 0.000218922 0)
(0.00346491 0.000279693 0)
(0.00282006 0.000349335 0)
(0.00205561 0.000428039 0)
(0.00115879 0.000516074 0)
(0.000116812 0.000613635 0)
(-0.00108294 0.000720884 0)
(-0.00245277 0.00083788 0)
(-0.00400438 0.00096452 0)
(-0.00574853 0.00110048 0)
(-0.00769469 0.00124521 0)
(-0.0098506 0.00139787 0)
(-0.0122219 0.0015573 0)
(-0.0148116 0.00172207 0)
(-0.0176198 0.0018904 0)
(-0.0206435 0.00206025 0)
(-0.0238759 0.00222927 0)
(-0.0273064 0.00239487 0)
(-0.0309205 0.00255426 0)
(-0.0346999 0.00270449 0)
(-0.0386221 0.00284248 0)
(-0.0426611 0.00296514 0)
(-0.0467871 0.00306938 0)
(-0.0509675 0.00315221 0)
(-0.0551665 0.00321076 0)
(-0.0593462 0.00324235 0)
(-0.0634669 0.00324457 0)
(-0.0674875 0.00321527 0)
(-0.0713659 0.0031526 0)
(-0.0750601 0.00305507 0)
(-0.0785278 0.00292156 0)
(-0.0817278 0.00275131 0)
(-0.0846198 0.00254398 0)
(-0.087165 0.00229965 0)
(-0.0893269 0.00201888 0)
(-0.091071 0.00170281 0)
(-0.0923663 0.00135308 0)
(-0.0931858 0.000971378 0)
(-0.0935063 0.000559556 0)
(-0.0933054 0.000123014 0)
(-0.0925634 -0.000330741 0)
(-0.0912685 -0.00080331 0)
(-0.0894154 -0.00129066 0)
(-0.0870046 -0.00178487 0)
(-0.0840424 -0.00227931 0)
(-0.0805411 -0.00276686 0)
(-0.0765195 -0.0032398 0)
(-0.072004 -0.00369001 0)
(-0.067028 -0.00410911 0)
(-0.0616327 -0.00448859 0)
(-0.0558663 -0.00482013 0)
(-0.0497843 -0.00509575 0)
(-0.0434487 -0.00530821 0)
(-0.0369275 -0.00545124 0)
(-0.0302937 -0.00551985 0)
(-0.0236241 -0.00551065 0)
(-0.0169982 -0.00542208 0)
(-0.010496 -0.00525485 0)
(-0.00419698 -0.00501279 0)
(0.00182051 -0.0046988 0)
(0.00748418 -0.00432058 0)
(0.0127288 -0.00388748 0)
(0.0174958 -0.00341009 0)
(0.0217369 -0.00290091 0)
(0.0254148 -0.00237239 0)
(0.0285044 -0.00183794 0)
(0.0309933 -0.00131045 0)
(0.0328821 -0.000802166 0)
(0.0341838 -0.000324138 0)
(0.0349235 0.000114174 0)
(0.035137 0.000505619 0)
(0.0348694 0.000845345 0)
(0.0341728 0.00113027 0)
(0.0331042 0.00135921 0)
(0.0317242 0.00153312 0)
(0.0300945 0.00165478 0)
(0.0282754 0.0017284 0)
(0.0263243 0.0017592 0)
(0.0242945 0.00175306 0)
(0.0222332 0.00171615 0)
(0.0201815 0.00165463 0)
(0.0181737 0.00157443 0)
(0.0162371 0.00148101 0)
(0.0143927 0.00137928 0)
(0.012655 0.0012735 0)
(0.011033 0.00116728 0)
(0.00953121 0.00106353 0)
(0.00814968 0.000964543 0)
(0.00688555 0.000871865 0)
(0.00573374 0.000786285 0)
(0.00468809 0.00070768 0)
(0.00374264 0.000634859 0)
(0.002893 0.000565414 0)
(0.00213779 0.000495673 0)
(0.00147992 0.000420893 0)
(0.000927272 0.00033599 0)
(0.000492058 0.000237342 0)
(0.000188082 0.000126734 0)
(2.28841e-05 1.81301e-05 0)
(-1.32218e-05 -4.27907e-05 0)
(1.1162e-05 -7.90545e-05 0)
(0.000215136 -0.000348955 0)
(0.000619326 -0.000630088 0)
(0.00119269 -0.000868002 0)
(0.00189539 -0.0010421 0)
(0.00268435 -0.00114744 0)
(0.00351591 -0.00118709 0)
(0.00434919 -0.0011687 0)
(0.00514869 -0.00110262 0)
(0.00588574 -0.00100051 0)
(0.00653922 -0.000874313 0)
(0.00709553 -0.000735386 0)
(0.00754807 -0.000593748 0)
(0.00789622 -0.00045756 0)
(0.00814407 -0.000332784 0)
(0.00829889 -0.000223031 0)
(0.00836957 -0.000129598 0)
(0.00836513 -5.16652e-05 0)
(0.0082934 1.34237e-05 0)
(0.00815987 6.96431e-05 0)
(0.00796685 0.000121926 0)
(0.00771303 0.000175638 0)
(0.00739333 0.000236057 0)
(0.00699906 0.000308024 0)
(0.00651825 0.000395685 0)
(0.00593633 0.000502324 0)
(0.00523663 0.000630359 0)
(0.00440102 0.000781462 0)
(0.00341041 0.000956723 0)
(0.00224513 0.00115684 0)
(0.000885295 0.00138229 0)
(-0.000688902 0.00163339 0)
(-0.00249699 0.00191028 0)
(-0.00455796 0.00221294 0)
(-0.0068897 0.00254099 0)
(-0.00950865 0.00289359 0)
(-0.0124292 0.00326933 0)
(-0.0156632 0.00366606 0)
(-0.0192189 0.00408088 0)
(-0.0231008 0.00451003 0)
(-0.0273086 0.0049489 0)
(-0.0318369 0.00539208 0)
(-0.0366745 0.00583335 0)
(-0.0418045 0.00626586 0)
(-0.0472036 0.00668218 0)
(-0.0528426 0.00707453 0)
(-0.0586862 0.00743489 0)
(-0.0646939 0.00775524 0)
(-0.0708203 0.00802776 0)
(-0.0770156 0.00824499 0)
(-0.083227 0.00840008 0)
(-0.0893991 0.00848685 0)
(-0.0954751 0.00850001 0)
(-0.101397 0.0084352 0)
(-0.107109 0.00828904 0)
(-0.112554 0.00805919 0)
(-0.117678 0.00774432 0)
(-0.122429 0.0073441 0)
(-0.126758 0.00685914 0)
(-0.130619 0.00629095 0)
(-0.133971 0.00564191 0)
(-0.136774 0.00491524 0)
(-0.138994 0.00411504 0)
(-0.140603 0.00324618 0)
(-0.141574 0.00231405 0)
(-0.141888 0.00132436 0)
(-0.141526 0.000284858 0)
(-0.140473 -0.000788497 0)
(-0.138724 -0.00189152 0)
(-0.136281 -0.00301612 0)
(-0.133146 -0.00415089 0)
(-0.129327 -0.00528443 0)
(-0.124839 -0.00640349 0)
(-0.119706 -0.00749388 0)
(-0.113954 -0.00854068 0)
(-0.107619 -0.00952844 0)
(-0.100742 -0.0104413 0)
(-0.093372 -0.0112636 0)
(-0.0855647 -0.0119796 0)
(-0.0773827 -0.0125746 0)
(-0.0688948 -0.0130351 0)
(-0.0601763 -0.013349 0)
(-0.0513076 -0.0135068 0)
(-0.0423734 -0.0135015 0)
(-0.0334621 -0.0133294 0)
(-0.0246638 -0.0129906 0)
(-0.0160691 -0.012489 0)
(-0.00776777 -0.0118327 0)
(0.0001536 -0.0110326 0)
(0.00761369 -0.010105 0)
(0.0145371 -0.00906823 0)
(0.0208577 -0.00794642 0)
(0.0265196 -0.00676277 0)
(0.0314779 -0.00554421 0)
(0.035701 -0.004317 0)
(0.0391708 -0.0031074 0)
(0.0418835 -0.00194038 0)
(0.0438495 -0.000838722 0)
(0.0450937 0.000177798 0)
(0.0456533 0.00109254 0)
(0.0455765 0.00189397 0)
(0.044922 0.0025745 0)
(0.043757 0.00313037 0)
(0.0421542 0.00356221 0)
(0.0401895 0.00387466 0)
(0.0379392 0.00407567 0)
(0.0354779 0.00417579 0)
(0.0328758 0.00418741 0)
(0.0301976 0.004124 0)
(0.0275004 0.00399945 0)
(0.0248332 0.00382737 0)
(0.0222363 0.00362066 0)
(0.0197413 0.0033911 0)
(0.0173715 0.0031491 0)
(0.0151425 0.00290351 0)
(0.0130633 0.00266147 0)
(0.0111372 0.00242829 0)
(0.00936357 0.00220715 0)
(0.00773885 0.00199889 0)
(0.00625877 0.00180164 0)
(0.00492006 0.00161064 0)
(0.00372231 0.00141833 0)
(0.00266962 0.00121502 0)
(0.00177134 0.000990707 0)
(0.00104144 0.000738745 0)
(0.00049592 0.000462646 0)
(0.000148106 0.000188573 0)
(3.98962e-07 -9.06392e-06 0)
(2.15043e-05 -0.000214635 0)
(0.000313076 -0.000719022 0)
(0.000850634 -0.00120102 0)
(0.00158482 -0.00160026 0)
(0.00246252 -0.00189011 0)
(0.0034319 -0.00206324 0)
(0.00444188 -0.00212416 0)
(0.00544488 -0.002085 0)
(0.00639942 -0.00196265 0)
(0.00727175 -0.00177652 0)
(0.00803663 -0.00154673 0)
(0.00867729 -0.00129251 0)
(0.00918483 -0.00103092 0)
(0.00955704 -0.000775951 0)
(0.00979695 -0.000537839 0)
(0.00991108 -0.000322808 0)
(0.00990761 -0.000133077 0)
(0.00979472 3.28235e-05 0)
(0.00957885 0.000179573 0)
(0.00926353 0.000314262 0)
(0.0088484 0.000445636 0)
(0.00832862 0.000583223 0)
(0.00769475 0.000736482 0)
(0.00693294 0.00091412 0)
(0.0060255 0.00112361 0)
(0.00495152 0.00137091 0)
(0.00368772 0.00166043 0)
(0.00220914 0.00199521 0)
(0.000489893 0.00237715 0)
(-0.00149626 0.0028073 0)
(-0.00377536 0.00328611 0)
(-0.00637269 0.00381348 0)
(-0.00931222 0.0043887 0)
(-0.012616 0.00501041 0)
(-0.0163034 0.00567631 0)
(-0.0203903 0.00638294 0)
(-0.0248878 0.00712548 0)
(-0.0298021 0.00789759 0)
(-0.0351328 0.00869133 0)
(-0.0408726 0.00949716 0)
(-0.0470064 0.010304 0)
(-0.0535111 0.0110995 0)
(-0.0603554 0.0118702 0)
(-0.0674998 0.0126018 0)
(-0.0748973 0.0132797 0)
(-0.0824943 0.0138892 0)
(-0.090231 0.0144163 0)
(-0.0980435 0.0148475 0)
(-0.105864 0.0151708 0)
(-0.113625 0.0153759 0)
(-0.121255 0.0154538 0)
(-0.128687 0.015398 0)
(-0.135855 0.0152035 0)
(-0.142694 0.0148677 0)
(-0.149147 0.0143897 0)
(-0.155158 0.0137702 0)
(-0.160677 0.0130118 0)
(-0.165658 0.0121184 0)
(-0.170062 0.0110949 0)
(-0.173853 0.0099476 0)
(-0.177 0.00868349 0)
(-0.179478 0.00731055 0)
(-0.181265 0.0058375 0)
(-0.182343 0.00427365 0)
(-0.182701 0.00262877 0)
(-0.182329 0.000914442 0)
(-0.181215 -0.000853177 0)
(-0.179358 -0.00266328 0)
(-0.176767 -0.00450648 0)
(-0.173443 -0.00636511 0)
(-0.169396 -0.00822287 0)
(-0.16464 -0.0100626 0)
(-0.159192 -0.0118658 0)
(-0.153077 -0.0136129 0)
(-0.146322 -0.0152828 0)
(-0.138961 -0.0168541 0)
(-0.131034 -0.0183045 0)
(-0.122588 -0.0196116 0)
(-0.113673 -0.0207533 0)
(-0.104349 -0.0217083 0)
(-0.0946812 -0.0224567 0)
(-0.0847398 -0.022981 0)
(-0.0746019 -0.0232664 0)
(-0.0643494 -0.0233017 0)
(-0.0540684 -0.02308 0)
(-0.0438482 -0.0225994 0)
(-0.0337802 -0.0218635 0)
(-0.023956 -0.0208813 0)
(-0.0144663 -0.0196677 0)
(-0.00539747 -0.0182432 0)
(0.0031653 -0.0166337 0)
(0.011146 -0.01487 0)
(0.0184772 -0.0129851 0)
(0.0250987 -0.0110193 0)
(0.0309636 -0.00901044 0)
(0.0360357 -0.00699848 0)
(0.0402922 -0.00502247 0)
(0.043724 -0.0031195 0)
(0.0463354 -0.00132368 0)
(0.0481462 0.000334448 0)
(0.0491893 0.00182923 0)
(0.0495084 0.00314331 0)
(0.0491597 0.00426448 0)
(0.0482098 0.00518626 0)
(0.0467332 0.00590881 0)
(0.0448091 0.00643842 0)
(0.0425198 0.00678667 0)
(0.0399473 0.00696951 0)
(0.0371711 0.00700614 0)
(0.0342655 0.00691785 0)
(0.0312982 0.00672692 0)
(0.0283284 0.00645553 0)
(0.025406 0.00612492 0)
(0.0225714 0.00575462 0)
(0.0198555 0.00536193 0)
(0.0172805 0.00496138 0)
(0.0148609 0.00456432 0)
(0.0126047 0.00417839 0)
(0.0105154 0.00380702 0)
(0.00859395 0.00344894 0)
(0.00684099 0.00309791 0)
(0.00525881 0.002743 0)
(0.00385342 0.0023698 0)
(0.00263571 0.00196325 0)
(0.00162145 0.00151291 0)
(0.000830443 0.0010218 0)
(0.00028718 0.000521378 0)
(1.47783e-05 9.781e-05 0)
(2.85447e-05 -0.000395618 0)
(0.000389031 -0.00119049 0)
(0.00103408 -0.00190446 0)
(0.00189599 -0.00248048 0)
(0.00290768 -0.00289111 0)
(0.00400832 -0.00312936 0)
(0.00514026 -0.00320267 0)
(0.0062507 -0.00312866 0)
(0.00729405 -0.00293161 0)
(0.00823332 -0.00263947 0)
(0.00904073 -0.00228123 0)
(0.0096975 -0.00188459 0)
(0.0101931 -0.00147419 0)
(0.010524 -0.00107011 0)
(0.0106916 -0.000687042 0)
(0.0107011 -0.000333765 0)
(0.0105586 -1.31695e-05 0)
(0.0102699 0.000277276 0)
(0.00983836 0.0005448 0)
(0.00926388 0.000800316 0)
(0.00854161 0.00105713 0)
(0.00766159 0.00132966 0)
(0.00660864 0.00163222 0)
(0.0053627 0.00197793 0)
(0.00389957 0.00237801 0)
(0.00219171 0.00284135 0)
(0.000209273 0.00337444 0)
(-0.00207895 0.00398155 0)
(-0.0047046 0.00466508 0)
(-0.00769891 0.00542588 0)
(-0.0110918 0.00626348 0)
(-0.0149109 0.00717618 0)
(-0.0191809 0.00816087 0)
(-0.023922 0.00921286 0)
(-0.0291491 0.0103255 0)
(-0.0348705 0.01149 0)
(-0.0410865 0.012695 0)
(-0.0477889 0.0139266 0)
(-0.0549594 0.0151685 0)
(-0.06257 0.0164021 0)
(-0.070582 0.0176068 0)
(-0.0789469 0.018761 0)
(-0.087607 0.0198419 0)
(-0.0964965 0.020827 0)
(-0.105543 0.0216946 0)
(-0.114671 0.0224241 0)
(-0.1238 0.0229975 0)
(-0.13285 0.023399 0)
(-0.141743 0.0236162 0)
(-0.150404 0.0236398 0)
(-0.158761 0.0234636 0)
(-0.166748 0.0230847 0)
(-0.174305 0.0225033 0)
(-0.181379 0.021722 0)
(-0.187923 0.0207457 0)
(-0.193897 0.0195812 0)
(-0.199265 0.0182369 0)
(-0.203999 0.0167222 0)
(-0.208075 0.0150476 0)
(-0.211473 0.013224 0)
(-0.214177 0.0112632 0)
(-0.216175 0.00917723 0)
(-0.217458 0.00697846 0)
(-0.218019 0.00467972 0)
(-0.217855 0.00229453 0)
(-0.21696 -0.00016161 0)
(-0.215335 -0.00267086 0)
(-0.212984 -0.00522517 0)
(-0.209911 -0.00780456 0)
(-0.206121 -0.0103908 0)
(-0.201623 -0.0129641 0)
(-0.196427 -0.0155035 0)
(-0.190549 -0.0179866 0)
(-0.184006 -0.0203892 0)
(-0.176821 -0.0226859 0)
(-0.169021 -0.0248496 0)
(-0.160639 -0.0268527 0)
(-0.151711 -0.0286667 0)
(-0.142283 -0.0302634 0)
(-0.132405 -0.0316151 0)
(-0.122133 -0.0326955 0)
(-0.111532 -0.0334808 0)
(-0.100672 -0.0339505 0)
(-0.0896294 -0.0340883 0)
(-0.0784856 -0.0338829 0)
(-0.0673272 -0.0333293 0)
(-0.0562436 -0.0324289 0)
(-0.0453266 -0.0311903 0)
(-0.0346679 -0.0296298 0)
(-0.024358 -0.0277708 0)
(-0.0144851 -0.0256447 0)
(-0.00513042 -0.0232866 0)
(0.00362718 -0.02074 0)
(0.0117191 -0.0180516 0)
(0.0190887 -0.015271 0)
(0.0256857 -0.0124505 0)
(0.0314725 -0.00964129 0)
(0.0364236 -0.00689376 0)
(0.0405258 -0.00425546 0)
(0.0437781 -0.00176951 0)
(0.0461952 0.000524723 0)
(0.0478041 0.00259445 0)
(0.0486417 0.00441686 0)
(0.0487583 0.00597565 0)
(0.0482153 0.00726221 0)
(0.0470834 0.00827634 0)
(0.0454399 0.00902583 0)
(0.0433668 0.00952565 0)
(0.0409476 0.00979676 0)
(0.0382655 0.00986478 0)
(0.0353996 0.00975851 0)
(0.0324235 0.00950835 0)
(0.0294029 0.00914486 0)
(0.0263948 0.00869742 0)
(0.0234461 0.00819308 0)
(0.0205943 0.00765552 0)
(0.0178677 0.00710412 0)
(0.0152865 0.00655301 0)
(0.0128645 0.0060102 0)
(0.0106109 0.00547684 0)
(0.00853284 0.00494683 0)
(0.00663744 0.00440715 0)
(0.00493442 0.00383949 0)
(0.0034377 0.0032238 0)
(0.00216657 0.00254439 0)
(0.00114723 0.00179967 0)
(0.000418904 0.00101725 0)
(2.80211e-05 0.000278008 0)
(3.33046e-05 -0.000610646 0)
(0.000445963 -0.00174081 0)
(0.00117407 -0.00271144 0)
(0.00213317 -0.00347363 0)
(0.0032426 -0.00400352 0)
(0.00443222 -0.0042976 0)
(0.00563787 -0.00436838 0)
(0.00680217 -0.00424049 0)
(0.00787637 -0.00394673 0)
(0.00882141 -0.00352438 0)
(0.00960809 -0.00301181 0)
(0.0102166 -0.00244554 0)
(0.0106355 -0.00185782 0)
(0.01086 -0.00127474 0)
(0.0108902 -0.000715091 0)
(0.0107289 -0.000189761 0)
(0.0103794 0.000298206 0)
(0.00984384 0.000753158 0)
(0.00912118 0.00118566 0)
(0.00820591 0.00161113 0)
(0.00708719 0.00204811 0)
(0.00574845 0.00251649 0)
(0.00416757 0.00303583 0)
(0.00231745 0.00362388 0)
(0.000166936 0.00429563 0)
(-0.002318 0.00506266 0)
(-0.00517307 0.0059331 0)
(-0.0084344 0.00691178 0)
(-0.0121373 0.0080006 0)
(-0.016315 0.00919889 0)
(-0.0209976 0.0105036 0)
(-0.0262103 0.0119092 0)
(-0.0319723 0.0134076 0)
(-0.0382952 0.0149878 0)
(-0.0451816 0.0166352 0)
(-0.0526232 0.0183319 0)
(-0.0606008 0.0200563 0)
(-0.0690823 0.0217836 0)
(-0.0780238 0.0234856 0)
(-0.0873689 0.0251324 0)
(-0.0970509 0.0266925 0)
(-0.106993 0.0281343 0)
(-0.117113 0.0294271 0)
(-0.127322 0.0305424 0)
(-0.137532 0.0314548 0)
(-0.147652 0.0321425 0)
(-0.157598 0.0325887 0)
(-0.167288 0.0327808 0)
(-0.176649 0.0327114 0)
(-0.185614 0.0323773 0)
(-0.194126 0.0317798 0)
(-0.202133 0.0309235 0)
(-0.209596 0.029816 0)
(-0.216478 0.0284675 0)
(-0.222752 0.0268898 0)
(-0.228397 0.0250959 0)
(-0.233396 0.0230996 0)
(-0.237735 0.0209152 0)
(-0.241405 0.0185572 0)
(-0.244399 0.01604 0)
(-0.246713 0.013378 0)
(-0.248343 0.0105854 0)
(-0.249286 0.00767644 0)
(-0.249542 0.00466558 0)
(-0.249107 0.00156843 0)
(-0.247979 -0.00159903 0)
(-0.24616 -0.00482304 0)
(-0.243653 -0.00808714 0)
(-0.240455 -0.0113722 0)
(-0.236571 -0.0146584 0)
(-0.232001 -0.0179243 0)
(-0.226752 -0.0211462 0)
(-0.22083 -0.0242989 0)
(-0.214245 -0.0273546 0)
(-0.207012 -0.0302837 0)
(-0.199149 -0.0330546 0)
(-0.190677 -0.0356342 0)
(-0.181627 -0.0379883 0)
(-0.172031 -0.0400821 0)
(-0.161932 -0.0418814 0)
(-0.151378 -0.0433529 0)
(-0.140425 -0.0444657 0)
(-0.129137 -0.0451925 0)
(-0.117584 -0.0455107 0)
(-0.105844 -0.0454034 0)
(-0.0940005 -0.0448609 0)
(-0.0821423 -0.0438813 0)
(-0.0703613 -0.0424714 0)
(-0.0587515 -0.0406471 0)
(-0.0474069 -0.0384336 0)
(-0.0364196 -0.0358648 0)
(-0.0258778 -0.0329822 0)
(-0.0158652 -0.0298365 0)
(-0.00645706 -0.0264797 0)
(0.00227915 -0.0229727 0)
(0.0102851 -0.0193769 0)
(0.0175139 -0.0157547 0)
(0.0239284 -0.0121682 0)
(0.0295028 -0.00867686 0)
(0.0342225 -0.00533602 0)
(0.0380841 -0.00219567 0)
(0.0410986 0.00069823 0)
(0.0432878 0.00330811 0)
(0.0446826 0.00560687 0)
(0.0453271 0.00757548 0)
(0.0452766 0.00920409 0)
(0.0445957 0.0104927 0)
(0.0433573 0.0114508 0)
(0.0416399 0.0120966 0)
(0.0395256 0.0124557 0)
(0.0370969 0.0125597 0)
(0.0344347 0.012444 0)
(0.031615 0.0121467 0)
(0.0287072 0.0117057 0)
(0.0257725 0.0111577 0)
(0.022863 0.0105361 0)
(0.0200211 0.00986925 0)
(0.0172807 0.00917944 0)
(0.0146676 0.00848105 0)
(0.0122015 0.00777952 0)
(0.0098984 0.00707069 0)
(0.00777248 0.00634103 0)
(0.00583919 0.00556936 0)
(0.00411757 0.00473059 0)
(0.00263255 0.00380208 0)
(0.00141872 0.00277325 0)
(0.000531179 0.00165949 0)
(3.89365e-05 0.00052286 0)
(3.67317e-05 -0.000850803 0)
(0.000488386 -0.00235057 0)
(0.00127831 -0.00359601 0)
(0.00230716 -0.00454844 0)
(0.00348145 -0.00519077 0)
(0.00472179 -0.0055259 0)
(0.0059575 -0.00557391 0)
(0.00712696 -0.0053683 0)
(0.00817889 -0.00495178 0)
(0.00907295 -0.00437188 0)
(0.00977938 -0.00367691 0)
(0.0102781 -0.00291231 0)
(0.0105573 -0.00211774 0)
(0.0106112 -0.00132483 0)
(0.0104382 -0.000555806 0)
(0.0100384 0.000177196 0)
(0.00941159 0.000871971 0)
(0.00855504 0.00153559 0)
(0.0074618 0.00218287 0)
(0.00611965 0.0028345 0)
(0.00451036 0.0035149 0)
(0.00260961 0.00424976 0)
(0.000387535 0.00506396 0)
(-0.00219036 0.00597966 0)
(-0.00516185 0.00701503 0)
(-0.00856653 0.00818352 0)
(-0.0124442 0.00949372 0)
(-0.0168332 0.0109495 0)
(-0.021769 0.0125504 0)
(-0.0272823 0.0142919 0)
(-0.0333973 0.0161655 0)
(-0.0401301 0.0181587 0)
(-0.0474866 0.0202547 0)
(-0.0554613 0.0224318 0)
(-0.0640349 0.0246639 0)
(-0.0731746 0.0269198 0)
(-0.0828325 0.0291643 0)
(-0.0929472 0.0313589 0)
(-0.103444 0.0334628 0)
(-0.114239 0.0354346 0)
(-0.125238 0.0372337 0)
(-0.136343 0.0388222 0)
(-0.147457 0.0401662 0)
(-0.158481 0.0412369 0)
(-0.169324 0.0420116 0)
(-0.1799 0.0424741 0)
(-0.190134 0.0426147 0)
(-0.199959 0.0424295 0)
(-0.209319 0.0419205 0)
(-0.218167 0.0410941 0)
(-0.226468 0.0399607 0)
(-0.234192 0.0385335 0)
(-0.241319 0.0368278 0)
(-0.247833 0.0348603 0)
(-0.253723 0.0326483 0)
(-0.258985 0.0302094 0)
(-0.263613 0.0275609 0)
(-0.267606 0.0247195 0)
(-0.270962 0.0217016 0)
(-0.273683 0.0185228 0)
(-0.275768 0.0151981 0)
(-0.277216 0.0117418 0)
(-0.278026 0.00816812 0)
(-0.278197 0.00449153 0)
(-0.277725 0.000727626 0)
(-0.276609 -0.00310773 0)
(-0.274845 -0.00700307 0)
(-0.272431 -0.0109391 0)
(-0.269361 -0.0148974 0)
(-0.265633 -0.0188573 0)
(-0.261242 -0.0227962 0)
(-0.256187 -0.0266887 0)
(-0.250467 -0.0305072 0)
(-0.244084 -0.0342212 0)
(-0.237042 -0.0377972 0)
(-0.22935 -0.0411993 0)
(-0.22102 -0.0443894 0)
(-0.212071 -0.0473272 0)
(-0.202527 -0.0499714 0)
(-0.19242 -0.0522805 0)
(-0.181788 -0.0542136 0)
(-0.170678 -0.055732 0)
(-0.159148 -0.0568002 0)
(-0.14726 -0.0573877 0)
(-0.135089 -0.0574707 0)
(-0.122715 -0.057033 0)
(-0.110226 -0.0560677 0)
(-0.097715 -0.0545781 0)
(-0.08528 -0.0525786 0)
(-0.0730195 -0.0500944 0)
(-0.0610322 -0.0471617 0)
(-0.0494137 -0.0438268 0)
(-0.0382554 -0.0401452 0)
(-0.0276409 -0.0361787 0)
(-0.017646 -0.0319959 0)
(-0.00833651 -0.0276675 0)
(0.000232309 -0.0232668 0)
(0.0080156 -0.018866 0)
(0.0149798 -0.0145355 0)
(0.0211016 -0.0103416 0)
(0.026368 -0.00634545 0)
(0.0307763 -0.00260176 0)
(0.0343355 0.000839975 0)
(0.0370646 0.00393971 0)
(0.0389907 0.00666799 0)
(0.0401529 0.00900461 0)
(0.0406008 0.0109398 0)
(0.0403933 0.0124745 0)
(0.0395978 0.0136205 0)
(0.0382884 0.0143992 0)
(0.0365435 0.0148408 0)
(0.0344437 0.014982 0)
(0.0320686 0.0148647 0)
(0.0294947 0.0145331 0)
(0.0267928 0.0140314 0)
(0.0240264 0.0134019 0)
(0.0212508 0.0126822 0)
(0.0185124 0.0119031 0)
(0.0158497 0.0110866 0)
(0.0132939 0.0102437 0)
(0.010871 0.00937405 0)
(0.00860435 0.00846489 0)
(0.0065169 0.00749317 0)
(0.00463481 0.00642881 0)
(0.00299041 0.00524079 0)
(0.00162784 0.00390592 0)
(0.000617218 0.00242104 0)
(4.70269e-05 0.000820099 0)
(3.9482e-05 -0.00110969 0)
(0.000520175 -0.00300398 0)
(0.00135386 -0.00453538 0)
(0.00242771 -0.00567632 0)
(0.00363629 -0.00641881 0)
(0.00489122 -0.00677493 0)
(0.00611562 -0.00677479 0)
(0.00724396 -0.00646293 0)
(0.00822303 -0.00589352 0)
(0.00901186 -0.00512541 0)
(0.00958083 -0.0042173 0)
(0.00991016 -0.00322356 0)
(0.0099879 -0.00219083 0)
(0.00980754 -0.0011555 0)
(0.00936552 -0.000142171 0)
(0.00865874 0.000836918 0)
(0.00768235 0.00178173 0)
(0.00642767 0.00270316 0)
(0.00488071 0.00362131 0)
(0.00302133 0.00456291 0)
(0.000822886 0.00555866 0)
(-0.00174734 0.00664009 0)
(-0.00472708 0.00783695 0)
(-0.00815766 0.00917491 0)
(-0.0120821 0.0106741 0)
(-0.0165434 0.012348 0)
(-0.021582 0.0142037 0)
(-0.0272345 0.0162415 0)
(-0.0335308 0.0184555 0)
(-0.0404926 0.020834 0)
(-0.0481309 0.0233592 0)
(-0.056444 0.0260072 0)
(-0.065416 0.0287479 0)
(-0.075015 0.0315452 0)
(-0.0851926 0.0343572 0)
(-0.0958844 0.0371372 0)
(-0.107011 0.039835 0)
(-0.118481 0.0423988 0)
(-0.130193 0.0447776 0)
(-0.14204 0.0469226 0)
(-0.153915 0.0487902 0)
(-0.165712 0.0503428 0)
(-0.177333 0.0515507 0)
(-0.188687 0.0523923 0)
(-0.199695 0.0528543 0)
(-0.21029 0.0529314 0)
(-0.220416 0.0526251 0)
(-0.230031 0.0519431 0)
(-0.2391 0.0508979 0)
(-0.247601 0.0495057 0)
(-0.255518 0.047785 0)
(-0.26284 0.045756 0)
(-0.269563 0.0434395 0)
(-0.275687 0.0408565 0)
(-0.281211 0.0380271 0)
(-0.286138 0.034971 0)
(-0.290472 0.0317066 0)
(-0.294216 0.0282511 0)
(-0.297373 0.0246208 0)
(-0.299945 0.0208307 0)
(-0.301932 0.0168951 0)
(-0.303335 0.0128274 0)
(-0.304152 0.00864072 0)
(-0.30438 0.00434849 0)
(-0.304013 -3.49389e-05 0)
(-0.303048 -0.00449527 0)
(-0.301482 -0.00902036 0)
(-0.299304 -0.0135921 0)
(-0.296507 -0.0181926 0)
(-0.293083 -0.022801 0)
(-0.289022 -0.0273941 0)
(-0.284316 -0.0319457 0)
(-0.278957 -0.0364266 0)
(-0.27294 -0.0408039 0)
(-0.266259 -0.0450412 0)
(-0.258914 -0.0490989 0)
(-0.250906 -0.0529341 0)
(-0.242243 -0.0565008 0)
(-0.232937 -0.0597514 0)
(-0.223007 -0.0626368 0)
(-0.212482 -0.0651079 0)
(-0.201397 -0.067117 0)
(-0.189799 -0.0686195 0)
(-0.177742 -0.0695755 0)
(-0.165293 -0.069952 0)
(-0.152529 -0.0697243 0)
(-0.139536 -0.0688782 0)
(-0.126407 -0.0674112 0)
(-0.113244 -0.0653338 0)
(-0.100151 -0.0626697 0)
(-0.0872361 -0.0594559 0)
(-0.0746053 -0.0557422 0)
(-0.0623609 -0.0515895 0)
(-0.0505987 -0.0470679 0)
(-0.0394057 -0.042255 0)
(-0.0288581 -0.0372325 0)
(-0.0190208 -0.0320842 0)
(-0.00994598 -0.0268937 0)
(-0.00167408 -0.0217418 0)
(0.00576597 -0.0167056 0)
(0.0123559 -0.0118563 0)
(0.018087 -0.00725828 0)
(0.0229599 -0.00296863 0)
(0.0269846 0.000962375 0)
(0.0301794 0.00449461 0)
(0.0325706 0.00759825 0)
(0.0341939 0.0102538 0)
(0.0350949 0.012453 0)
(0.0353277 0.0141988 0)
(0.0349548 0.0155058 0)
(0.0340457 0.0163992 0)
(0.0326748 0.0169133 0)
(0.0309195 0.0170899 0)
(0.0288571 0.016976 0)
(0.026563 0.0166209 0)
(0.0241079 0.0160735 0)
(0.0215561 0.0153792 0)
(0.018965 0.014577 0)
(0.016384 0.0136966 0)
(0.0138558 0.0127556 0)
(0.011417 0.011758 0)
(0.00910063 0.0106932 0)
(0.00693886 0.00953716 0)
(0.00496627 0.00825482 0)
(0.00322375 0.00680588 0)
(0.00176515 0.00515227 0)
(0.000673498 0.00326839 0)
(5.21327e-05 0.00115472 0)
(4.19462e-05 -0.00138279 0)
(0.000543922 -0.00368817 0)
(0.00140554 -0.00550936 0)
(0.00250138 -0.0068306 0)
(0.00371479 -0.00765508 0)
(0.004949 -0.00800659 0)
(0.00612138 -0.00792788 0)
(0.00716317 -0.00747669 0)
(0.00801985 -0.00672036 0)
(0.0086505 -0.00573006 0)
(0.0090262 -0.00457535 0)
(0.00912789 -0.00331933 0)
(0.00894372 -0.00201491 0)
(0.00846618 -0.000702131 0)
(0.00768934 0.000593322 0)
(0.00660616 0.00186066 0)
(0.00520624 0.00310338 0)
(0.00347389 0.00433759 0)
(0.00138697 0.00558964 0)
(-0.00108337 0.00689294 0)
(-0.00397263 0.00828442 0)
(-0.00732183 0.00980094 0)
(-0.0111756 0.011476 0)
(-0.0155804 0.013337 0)
(-0.0205817 0.0154038 0)
(-0.0262218 0.0176874 0)
(-0.0325374 0.0201897 0)
(-0.0395567 0.0229041 0)
(-0.0472972 0.0258152 0)
(-0.0557635 0.0288994 0)
(-0.0649448 0.0321249 0)
(-0.0748133 0.0354519 0)
(-0.0853229 0.0388332 0)
(-0.0964095 0.042215 0)
(-0.107992 0.0455382 0)
(-0.119974 0.0487408 0)
(-0.132247 0.0517604 0)
(-0.144699 0.0545367 0)
(-0.157211 0.0570144 0)
(-0.169671 0.0591456 0)
(-0.181971 0.0608913 0)
(-0.194015 0.0622227 0)
(-0.205718 0.0631211 0)
(-0.217011 0.0635777 0)
(-0.227836 0.0635926 0)
(-0.238151 0.0631735 0)
(-0.247925 0.0623342 0)
(-0.257136 0.061093 0)
(-0.265772 0.0594714 0)
(-0.273827 0.0574928 0)
(-0.281301 0.0551815 0)
(-0.288196 0.0525617 0)
(-0.294517 0.0496571 0)
(-0.300271 0.0464902 0)
(-0.305464 0.0430821 0)
(-0.310103 0.0394525 0)
(-0.314194 0.0356194 0)
(-0.317743 0.0315994 0)
(-0.320754 0.0274075 0)
(-0.32323 0.0230577 0)
(-0.325172 0.0185628 0)
(-0.326581 0.0139348 0)
(-0.327456 0.00918557 0)
(-0.327791 0.00432705 0)
(-0.327583 -0.000628236 0)
(-0.326827 -0.00566825 0)
(-0.325518 -0.0107798 0)
(-0.323645 -0.0159472 0)
(-0.321197 -0.0211532 0)
(-0.318163 -0.0263779 0)
(-0.314529 -0.0315984 0)
(-0.310283 -0.0367886 0)
(-0.305409 -0.0419184 0)
(-0.299895 -0.046954 0)
(-0.293727 -0.0518572 0)
(-0.286894 -0.0565853 0)
(-0.279386 -0.0610918 0)
(-0.271198 -0.065326 0)
(-0.26233 -0.0692341 0)
(-0.252786 -0.0727598 0)
(-0.242579 -0.0758456 0)
(-0.231732 -0.0784345 0)
(-0.220276 -0.0804713 0)
(-0.208253 -0.0819052 0)
(-0.19572 -0.0826917 0)
(-0.182745 -0.0827951 0)
(-0.169406 -0.0821908 0)
(-0.155798 -0.0808674 0)
(-0.142022 -0.0788279 0)
(-0.128189 -0.0760917 0)
(-0.114417 -0.0726941 0)
(-0.100823 -0.0686862 0)
(-0.0875261 -0.0641335 0)
(-0.0746375 -0.0591139 0)
(-0.0622617 -0.0537149 0)
(-0.0504911 -0.04803 0)
(-0.0394048 -0.0421562 0)
(-0.0290671 -0.03619 0)
(-0.0195276 -0.0302252 0)
(-0.0108217 -0.0243504 0)
(-0.00297184 -0.0186473 0)
(0.00401043 -0.0131901 0)
(0.0101231 -0.0080443 0)
(0.0153725 -0.00326699 0)
(0.0197726 0.00109368 0)
(0.0233438 0.00499921 0)
(0.0261136 0.00842196 0)