/*--------------------------------*- C++ -*----------------------------------*\
| =========                 |                                                 |
| \\      /  F ield         | OpenFOAM: The Open Source CFD Toolbox           |
|  \\    /   O peration     | Version:  2406                                  |
|   \\  /    A nd           | Website:  www.openfoam.com                      |
|    \\/     M anipulation  |                                                 |
\*---------------------------------------------------------------------------*/
FoamFile
{
    version     2.0;
    format      ascii;
    arch        "LSB;label=32;scalar=64";
    class       surfaceScalarField;
    location    "11.8";
    object      phi;
}
// * * * * * * * * * * * * * * * * * * * * * * * * * * * * * * * * * * * * * //

dimensions      [0 3 -1 0 0 0 0];

oriented        oriented;

internalField   nonuniform List<scalar> 
7080
(
4.95817e-08
-4.96657e-08
8.75258e-09
4.21285e-08
-1.35384e-07
1.43827e-07
-3.72918e-07
2.39449e-07
-6.65277e-07
2.92341e-07
-9.91068e-07
3.27995e-07
-1.33238e-06
3.4161e-07
-1.68337e-06
3.53202e-07
-2.04216e-06
3.59335e-07
-2.41003e-06
3.70009e-07
-2.78962e-06
3.80358e-07
-3.18236e-06
3.94801e-07
-3.59005e-06
4.08673e-07
-4.01209e-06
4.24029e-07
-4.44803e-06
4.37091e-07
-4.89495e-06
4.48857e-07
-5.35004e-06
4.5636e-07
-5.80822e-06
4.60016e-07
-6.2644e-06
4.57474e-07
-6.71154e-06
4.48826e-07
-7.14254e-06
4.32232e-07
-7.54877e-06
4.07676e-07
-7.92155e-06
3.73815e-07
-8.25117e-06
3.3073e-07
-8.5281e-06
2.77649e-07
-8.7424e-06
2.14975e-07
-8.88478e-06
1.42662e-07
-8.94634e-06
6.17073e-08
-8.91959e-06
-2.69986e-08
-8.79844e-06
-1.2161e-07
-8.57911e-06
-2.2015e-07
-8.26035e-06
-3.1984e-07
-7.84403e-06
-4.17709e-07
-7.33537e-06
-5.10312e-07
-6.74307e-06
-5.94175e-07
-6.07931e-06
-6.65884e-07
-5.3592e-06
-7.22331e-07
-4.60051e-06
-7.61111e-07
-3.82244e-06
-7.80435e-07
-3.04517e-06
-7.79773e-07
-2.28821e-06
-7.59256e-07
-1.57006e-06
-7.20534e-07
-9.06532e-07
-6.65527e-07
-3.11023e-07
-5.97602e-07
2.07036e-07
-5.19608e-07
6.40956e-07
-4.35613e-07
9.88153e-07
-3.4819e-07
1.24798e-06
-2.61077e-07
1.42317e-06
-1.75588e-07
1.51696e-06
-9.46323e-08
1.5351e-06
-1.79319e-08
1.48261e-06
5.20002e-08
1.36688e-06
1.16498e-07
1.19487e-06
1.7175e-07
9.77454e-07
2.18669e-07
7.28385e-07
2.48861e-07
4.6895e-07
2.60986e-07
2.31269e-07
2.37306e-07
5.63552e-08
1.76447e-07
5.6307e-08
-4.20843e-08
-8.8063e-09
-3.08433e-07
3.08738e-07
-7.97492e-07
6.30363e-07
-1.47869e-06
9.20176e-07
-2.2897e-06
1.10007e-06
-3.18481e-06
1.22193e-06
-4.12797e-06
1.28122e-06
-5.10056e-06
1.32416e-06
-6.09426e-06
1.34947e-06
-7.10659e-06
1.38037e-06
-8.13919e-06
1.40942e-06
-9.19212e-06
1.44546e-06
-1.02662e-05
1.47928e-06
-1.13583e-05
1.51357e-06
-1.24648e-05
1.54006e-06
-1.35777e-05
1.55901e-06
-1.46884e-05
1.56361e-06
-1.57842e-05
1.5531e-06
-1.68521e-05
1.52207e-06
-1.78755e-05
1.46951e-06
-1.88376e-05
1.39138e-06
-1.97193e-05
1.287e-06
-2.05017e-05
1.1538e-06
-2.11647e-05
9.91904e-07
-2.16892e-05
8.00446e-07
-2.20561e-05
5.8087e-07
-2.22486e-05
3.34345e-07
-2.22512e-05
6.42127e-08
-2.2052e-05
-2.25847e-07
-2.16425e-05
-5.30083e-07
-2.10191e-05
-8.42023e-07
-2.01833e-05
-1.15344e-06
-1.91428e-05
-1.45545e-06
-1.79116e-05
-1.7382e-06
-1.65102e-05
-1.99181e-06
-1.49653e-05
-2.20672e-06
-1.33087e-05
-2.37439e-06
-1.15771e-05
-2.48813e-06
-9.80938e-06
-2.54329e-06
-8.04613e-06
-2.53831e-06
-6.32663e-06
-2.47397e-06
-4.68815e-06
-2.35465e-06
-3.16312e-06
-2.18623e-06
-1.77931e-06
-1.97775e-06
-5.57379e-07
-1.73797e-06
4.87518e-07
-1.47782e-06
1.34764e-06
-1.20565e-06
2.01954e-06
-9.31377e-07
2.506e-06
-6.6033e-07
2.81177e-06
-3.99901e-07
2.94638e-06
-1.51678e-07
2.91959e-06
7.82365e-08
2.74629e-06
2.8997e-07
2.44253e-06
4.74046e-07
2.03329e-06
6.2766e-07
1.54953e-06
7.30499e-07
1.03729e-06
7.72965e-07
5.54325e-07
7.17902e-07
1.76214e-07
5.54705e-07
2.31044e-07
-1.7668e-07
1.67754e-07
-7.28338e-07
8.63118e-07
-1.60794e-06
1.50951e-06
-2.74572e-06
2.06118e-06
-4.0627e-06
2.41748e-06
-5.49399e-06
2.6567e-06
-6.99426e-06
2.78257e-06
-8.53486e-06
2.86825e-06
-1.01029e-05
2.91907e-06
-1.16909e-05
2.97177e-06
-1.32978e-05
3.01822e-06
-1.49202e-05
3.07117e-06
-1.65559e-05
3.11723e-06
-1.81978e-05
3.15877e-06
-1.98381e-05
3.18281e-06
-2.14637e-05
3.18787e-06
-2.30606e-05
3.16299e-06
-2.46099e-05
3.10557e-06
-2.60923e-05
3.00705e-06
-2.7485e-05
2.86513e-06
-2.87652e-05
2.6739e-06
-2.9908e-05
2.4323e-06
-3.08895e-05
2.13727e-06
-3.16853e-05
1.78967e-06
-3.2273e-05
1.38945e-06
-3.26309e-05
9.39993e-07
-3.27407e-05
4.44719e-07
-3.25866e-05
-8.97236e-08
-3.2157e-05
-6.55784e-07
-3.14452e-05
-1.24276e-06
-3.04501e-05
-1.83854e-06
-2.91772e-05
-2.42827e-06
-2.76392e-05
-2.99591e-06
-2.58564e-05
-3.52391e-06
-2.38569e-05
-3.99471e-06
-2.1676e-05
-4.39135e-06
-1.93556e-05
-4.69875e-06
-1.6943e-05
-4.90506e-06
-1.44884e-05
-5.0021e-06
-1.20441e-05
-4.98705e-06
-9.66065e-06
-4.86151e-06
-7.38629e-06
-4.63316e-06
-5.26323e-06
-4.31293e-06
-3.3277e-06
-3.91689e-06
-1.60719e-06
-3.46136e-06
-1.22061e-07
-2.9658e-06
1.11655e-06
-2.4462e-06
2.10321e-06
-1.92007e-06
2.84023e-06
-1.39827e-06
3.33274e-06
-8.93644e-07
3.59199e-06
-4.10854e-07
3.62995e-06
3.97171e-08
3.46553e-06
4.55371e-07
3.11959e-06
8.19898e-07
2.62527e-06
1.12371e-06
2.02266e-06
1.33317e-06
1.37248e-06
1.4254e-06
7.46226e-07
1.34387e-06
2.45843e-07
1.05748e-06
4.76994e-07
-3.3306e-07
4.9871e-07
-1.20303e-06
1.73466e-06
-2.49471e-06
2.79761e-06
-4.08926e-06
3.6564e-06
-5.89248e-06
4.21719e-06
-7.82449e-06
4.58852e-06
-9.83634e-06
4.79102e-06
-1.18922e-05
4.92334e-06
-1.39766e-05
5.00013e-06
-1.60763e-05
5.07024e-06
-1.81871e-05
5.12591e-06
-2.03004e-05
5.1829e-06
-2.24103e-05
5.22411e-06
-2.45044e-05
5.25098e-06
-2.65704e-05
5.24595e-06
-2.85901e-05
5.20551e-06
-3.05447e-05
5.11478e-06
-3.24106e-05
4.96941e-06
-3.41645e-05
4.75829e-06
-3.57798e-05
4.47841e-06
-3.72311e-05
4.12292e-06
-3.84919e-05
3.69133e-06
-3.95377e-05
3.1811e-06
-4.03441e-05
2.59472e-06
-4.08898e-05
1.93383e-06
-4.11548e-05
1.20429e-06
-4.11228e-05
4.12133e-07
-4.07801e-05
-4.3253e-07
-4.01174e-05
-1.31827e-06
-3.91298e-05
-2.22952e-06
-3.78187e-05
-3.14856e-06
-3.61915e-05
-4.0539e-06
-3.42633e-05
-4.92209e-06
-3.20574e-05
-5.72743e-06
-2.96054e-05
-6.44395e-06
-2.69474e-05
-7.04639e-06
-2.41308e-05
-7.51207e-06
-2.12097e-05
-7.82284e-06
-1.82421e-05
-7.9661e-06
-1.52887e-05
-7.93707e-06
-1.24088e-05
-7.73793e-06
-9.65889e-06
-7.37989e-06
-7.08893e-06
-6.87967e-06
-4.74166e-06
-6.26153e-06
-2.64948e-06
-5.55083e-06
-8.36156e-07
-4.7772e-06
6.85476e-07
-3.96575e-06
1.90947e-06
-3.14295e-06
2.83892e-06
-2.32627e-06
3.48023e-06
-1.53468e-06
3.84678e-06
-7.76523e-07
3.95264e-06
-6.66873e-08
3.8198e-06
5.88672e-07
3.47202e-06
1.16639e-06
2.94717e-06
1.64883e-06
2.28967e-06
1.98879e-06
1.56778e-06
2.14771e-06
8.6051e-07
2.04877e-06
2.86568e-07
1.63229e-06
7.62035e-07
-4.77346e-07
9.75252e-07
-1.65692e-06
2.91861e-06
-3.35132e-06
4.49005e-06
-5.38824e-06
5.69728e-06
-7.65416e-06
6.48233e-06
-1.00535e-05
6.99143e-06
-1.25346e-05
7.27218e-06
-1.50559e-05
7.448e-06
-1.76005e-05
7.54539e-06
-2.01504e-05
7.62327e-06
-2.26985e-05
7.67507e-06
-2.52309e-05
7.7182e-06
-2.77377e-05
7.73232e-06
-3.02013e-05
7.7173e-06
-3.26052e-05
7.65153e-06
-3.49265e-05
7.52941e-06
-3.71428e-05
7.33289e-06
-3.92274e-05
7.05646e-06
-4.11549e-05
6.68757e-06
-4.28979e-05
6.22359e-06
-4.44314e-05
5.65812e-06
-4.57306e-05
4.99239e-06
-4.67737e-05
4.22554e-06
-4.754e-05
3.36243e-06
-4.80119e-05
2.40671e-06
-4.81733e-05
1.36655e-06
-4.80109e-05
2.50055e-07
-4.7513e-05
-9.30219e-07
-4.66715e-05
-2.16011e-06
-4.54811e-05
-3.42043e-06
-4.39418e-05
-4.68889e-06
-4.2059e-05
-5.93804e-06
-3.98456e-05
-7.13717e-06
-3.7323e-05
-8.25201e-06
-3.45222e-05
-9.24701e-06
-3.14842e-05
-1.00869e-05
-2.82598e-05
-1.07391e-05
-2.49086e-05
-1.11769e-05
-2.14966e-05
-1.13809e-05
-1.80942e-05
-1.13425e-05
-1.47714e-05
-1.10634e-05
-1.1596e-05
-1.05582e-05
-8.62789e-06
-9.8502e-06
-5.91821e-06
-8.97373e-06
-3.50528e-06
-7.96565e-06
-1.41617e-06
-6.86838e-06
3.35691e-07
-5.71884e-06
1.74579e-06
-4.55461e-06
2.82039e-06
-3.40139e-06
3.56967e-06
-2.28506e-06
4.01134e-06
-1.21799e-06
4.16317e-06
-2.19235e-07
4.05091e-06
7.0183e-07
3.70104e-06
1.51574e-06
3.15479e-06
2.1966e-06
2.45936e-06
2.68363e-06
1.68822e-06
2.92093e-06
9.27037e-07
2.80893e-06
3.06961e-07
2.25484e-06
1.06869e-06
-6.15781e-07
1.58801e-06
-2.09087e-06
4.39692e-06
-4.16576e-06
6.56003e-06
-6.61618e-06
8.14966e-06
-9.3084e-06
9.17046e-06
-1.21322e-05
9.81607e-06
-1.50341e-05
1.01705e-05
-1.79678e-05
1.03817e-05
-2.09157e-05
1.04901e-05
-2.38555e-05
1.05625e-05
-2.67771e-05
1.05939e-05
-2.96618e-05
1.06019e-05
-3.24956e-05
1.05635e-05
-3.52561e-05
1.04766e-05
-3.79233e-05
1.03162e-05
-4.04703e-05
1.0075e-05
-4.28728e-05
9.7331e-06
-4.51027e-05
9.28481e-06
-4.71351e-05
8.71789e-06
-4.89446e-05
8.03167e-06
-5.05103e-05
7.22196e-06
-5.18123e-05
6.29317e-06
-5.28355e-05
5.2472e-06
-5.35656e-05
4.09156e-06
-5.39914e-05
2.83156e-06
-5.41018e-05
1.47635e-06
-5.38864e-05
3.41491e-08
-5.3334e-05
-1.48264e-06
-5.2434e-05
-3.05995e-06
-5.11762e-05
-4.67777e-06
-4.95527e-05
-6.31162e-06
-4.75598e-05
-7.9298e-06
-4.52007e-05
-9.49497e-06
-4.24874e-05
-1.09637e-05
-3.94437e-05
-1.22889e-05
-3.61064e-05
-1.34221e-05
-3.25265e-05
-1.43168e-05
-2.87687e-05
-1.49325e-05
-2.49091e-05
-1.52382e-05
-2.10321e-05
-1.52172e-05
-1.72255e-05
-1.48676e-05
-1.35754e-05
-1.42062e-05
-1.01594e-05
-1.32639e-05
-7.04398e-06
-1.20874e-05
-4.27821e-06
-1.07294e-05
-1.89523e-06
-9.25011e-06
9.05619e-08
-7.70303e-06
1.67773e-06
-6.14111e-06
2.87885e-06
-4.60129e-06
3.71184e-06
-3.118e-06
4.20279e-06
-1.70804e-06
4.37683e-06
-3.9386e-07
4.26621e-06
8.13161e-07
3.90192e-06
1.87883e-06
3.32898e-06
2.77027e-06
2.59718e-06
3.41366e-06
1.7835e-06
3.7356e-06
9.78817e-07
3.61126e-06
3.22566e-07
2.91254e-06
1.38978e-06
-7.3786e-07
2.3243e-06
-2.48042e-06
6.14546e-06
-4.90136e-06
8.97756e-06
-7.72822e-06
1.09815e-05
-1.08067e-05
1.2247e-05
-1.40122e-05
1.30256e-05
-1.72886e-05
1.34462e-05
-2.05855e-05
1.3682e-05
-2.38845e-05
1.37892e-05
-2.71595e-05
1.38405e-05
-3.03983e-05
1.38331e-05
-3.35773e-05
1.37836e-05
-3.66796e-05
1.36668e-05
-3.96787e-05
1.34781e-05
-4.25518e-05
1.31905e-05
-4.527e-05
1.27955e-05
-4.78086e-05
1.22729e-05
-5.01403e-05
1.16187e-05
-5.22443e-05
1.08231e-05
-5.41005e-05
9.88972e-06
-5.56962e-05
8.81887e-06
-5.70213e-05
7.61977e-06
-5.80712e-05
6.29808e-06
-5.88421e-05
4.86363e-06
-5.93317e-05
3.32182e-06
-5.95344e-05
1.67977e-06
-5.94417e-05
-5.82784e-08
-5.90391e-05
-1.88505e-06
-5.83075e-05
-3.7918e-06
-5.72228e-05
-5.76285e-06
-5.57592e-05
-7.77587e-06
-5.38919e-05
-9.79801e-06
-5.16014e-05
-1.17867e-05
-4.8878e-05
-1.36884e-05
-4.57269e-05
-1.54416e-05
-4.21721e-05
-1.69787e-05
-3.82592e-05
-1.82315e-05
-3.40568e-05
-1.91368e-05
-2.96546e-05
-1.96423e-05
-2.516e-05
-1.97139e-05
-2.06902e-05
-1.93392e-05
-1.63653e-05
-1.85331e-05
-1.22969e-05
-1.73338e-05
-8.58181e-06
-1.58044e-05
-5.29236e-06
-1.40201e-05
-2.4761e-06
-1.20679e-05
-1.52168e-07
-1.00277e-05
1.68162e-06
-7.97616e-06
3.04808e-06
-5.96795e-06
3.97887e-06
-4.0498e-06
4.51536e-06
-2.24418e-06
4.69663e-06
-5.75977e-07
4.56707e-06
9.43633e-07
4.16645e-06
2.27862e-06
3.54647e-06
3.39173e-06
2.76133e-06
4.19775e-06
1.89246e-06
4.60653e-06
1.0361e-06
4.46608e-06
3.39498e-07
3.61168e-06
1.72864e-06
-8.50493e-07
3.17098e-06
-2.83581e-06
8.13546e-06
-5.56841e-06
1.1704e-05
-8.73264e-06
1.41488e-05
-1.2155e-05
1.56646e-05
-1.56981e-05
1.65704e-05
-1.93034e-05
1.70476e-05
-2.29165e-05
1.72959e-05
-2.65189e-05
1.73882e-05
-3.00807e-05
1.74024e-05
-3.35879e-05
1.73375e-05
-3.70132e-05
1.72084e-05
-4.03371e-05
1.69881e-05
-4.35298e-05
1.667e-05
-4.65676e-05
1.6226e-05
-4.94208e-05
1.56477e-05
-5.2067e-05
1.4917e-05
-5.44833e-05
1.4034e-05
-5.6657e-05
1.29949e-05
-5.85792e-05
1.18108e-05
-6.02518e-05
1.04899e-05
-6.16812e-05
9.04823e-06
-6.28804e-05
7.49601e-06
-6.38614e-05
5.84388e-06
-6.46342e-05
4.09373e-06
-6.51997e-05
2.24484e-06
-6.55485e-05
2.90008e-07
-6.56564e-05
-1.77727e-06
-6.54856e-05
-3.96254e-06
-6.49851e-05
-6.26311e-06
-6.40943e-05
-8.66623e-06
-6.27483e-05
-1.11434e-05
-6.08847e-05
-1.36494e-05
-5.8452e-05
-1.61201e-05
-5.54179e-05
-1.84745e-05
-5.1778e-05
-2.06174e-05
-4.75616e-05
-2.24465e-05
-4.28368e-05
-2.38602e-05
-3.77099e-05
-2.47676e-05
-3.23218e-05
-2.51006e-05
-2.68379e-05
-2.48215e-05
-2.14366e-05
-2.39331e-05
-1.62918e-05
-2.2477e-05
-1.1559e-05
-2.05361e-05
-7.3594e-06
-1.82183e-05
-3.77407e-06
-1.56525e-05
-8.38184e-07
-1.29623e-05
1.45091e-06
-1.02649e-05
3.13009e-06
-7.64604e-06
4.25337e-06
-5.17326e-06
4.88852e-06
-2.87838e-06
5.09995e-06
-7.88101e-07
4.95451e-06
1.09e-06
4.5089e-06
2.72299e-06
3.82758e-06
4.07412e-06
2.97295e-06
5.05057e-06
2.03325e-06
5.54769e-06
1.11112e-06
5.38575e-06
3.63018e-07
4.36172e-06
2.09018e-06
-9.48687e-07
4.11747e-06
-3.14862e-06
1.03428e-05
-6.15703e-06
1.47077e-05
-9.6199e-06
1.76176e-05
-1.33463e-05
1.93882e-05
-1.71871e-05
2.04159e-05
-2.10815e-05
2.09405e-05
-2.49713e-05
2.11895e-05
-2.88375e-05
2.12539e-05
-3.26475e-05
2.12155e-05
-3.63858e-05
2.10759e-05
-4.00221e-05
2.08474e-05
-4.35354e-05
2.0502e-05
-4.68941e-05
2.00312e-05
-5.00751e-05
1.94077e-05
-5.30507e-05
1.86254e-05
-5.58043e-05
1.76716e-05
-5.83231e-05
1.65546e-05
-6.06091e-05
1.5282e-05
-6.26738e-05
1.38772e-05
-6.4544e-05
1.23611e-05
-6.62534e-05
1.0759e-05
-6.78421e-05
9.08551e-06
-6.93455e-05
7.34831e-06
-7.07899e-05
5.53862e-06
-7.21819e-05
3.63753e-06
-7.35056e-05
1.61386e-06
-7.47161e-05
-5.66533e-07
-7.57412e-05
-2.93761e-06
-7.64815e-05
-5.52299e-06
-7.68174e-05
-8.33089e-06
-7.66159e-05
-1.13455e-05
-7.5743e-05
-1.45232e-05
-7.40759e-05
-1.77883e-05
-7.15177e-05
-2.10337e-05
-6.80119e-05
-2.41245e-05
-6.35541e-05
-2.69056e-05
-5.82015e-05
-2.92143e-05
-5.2076e-05
-3.08945e-05
-4.5362e-05
-3.18161e-05
-3.8295e-05
-3.18899e-05
-3.11448e-05
-3.10849e-05
-2.41894e-05
-2.94336e-05
-1.76901e-05
-2.70368e-05
-1.18623e-05
-2.40468e-05
-6.85979e-06
-2.06563e-05
-2.76054e-06
-1.7062e-05
4.25663e-07
-1.34522e-05
2.7502e-06
-9.97053e-06
4.30025e-06
-6.72429e-06
5.18677e-06
-3.76439e-06
5.51841e-06
-1.12071e-06
5.40234e-06
1.20708e-06
4.92714e-06
3.19709e-06
4.18162e-06
4.8212e-06
3.24433e-06
5.98642e-06
2.21614e-06
6.57806e-06
1.2096e-06
6.39024e-06
3.94524e-07
5.17957e-06
2.48374e-06
-1.03818e-06
5.15115e-06
-3.4297e-06
1.27401e-05
-6.68254e-06
1.79532e-05
-1.04092e-05
2.13482e-05
-1.44033e-05
2.33767e-05
-1.8506e-05
2.45211e-05
-2.26543e-05
2.50843e-05
-2.67871e-05
2.53235e-05
-3.08852e-05
2.53484e-05
-3.49135e-05
2.52443e-05
-3.8856e-05
2.50153e-05
-4.26798e-05
2.46711e-05
-4.6364e-05
2.41835e-05
-4.98766e-05
2.35433e-05
-5.31974e-05
2.27263e-05
-5.63048e-05
2.1732e-05
-5.91943e-05
2.05591e-05
-6.18714e-05
1.92307e-05
-6.43652e-05
1.7774e-05
-6.67217e-05
1.62328e-05
-6.90084e-05
1.46463e-05
-7.13017e-05
1.30514e-05
-7.36817e-05
1.14643e-05
-7.62152e-05
9.88111e-06
-7.89467e-05
8.26933e-06
-8.18843e-05
6.57464e-06
-8.49934e-05
4.7224e-06
-8.81902e-05
2.63017e-06
-9.13434e-05
2.15402e-07
-9.4276e-05
-2.59034e-06
-9.67753e-05
-5.83141e-06
-9.86051e-05
-9.51525e-06
-9.95235e-05
-1.36044e-05
-9.93018e-05
-1.80093e-05
-9.77471e-05
-2.25877e-05
-9.47226e-05
-2.71482e-05
-9.01667e-05
-3.14605e-05
-8.41085e-05
-3.52716e-05
-7.66759e-05
-3.83261e-05
-6.8098e-05
-4.03933e-05
-5.86945e-05
-4.12923e-05
-4.8858e-05
-4.09207e-05
-3.9019e-05
-3.92716e-05
-2.96076e-05
-3.64478e-05
-2.10048e-05
-3.26486e-05
-1.35054e-05
-2.81554e-05
-7.28684e-06
-2.32796e-05
-2.40667e-06
-1.83324e-05
1.18874e-06
-1.3565e-05
3.62787e-06
-9.1638e-06
5.08708e-06
-5.22262e-06
5.74785e-06
-1.7823e-06
5.78681e-06
1.16921e-06
5.34975e-06
3.6328e-06
4.57003e-06
5.6023e-06
3.55667e-06
6.99783e-06
2.43338e-06
7.70325e-06
1.32927e-06
7.49162e-06
4.33817e-07
6.07752e-06
2.91598e-06
-1.11573e-06
6.26426e-06
-3.67579e-06
1.53088e-05
-7.14389e-06
2.14158e-05
-1.1103e-05
2.53141e-05
-1.53336e-05
2.76039e-05
-1.96684e-05
2.88611e-05
-2.40426e-05
2.94565e-05
-2.83927e-05
2.96778e-05
-3.26997e-05
2.96545e-05
-3.69269e-05
2.94749e-05
-4.10579e-05
2.91461e-05
-4.5059e-05
2.86751e-05
-4.89102e-05
2.8035e-05
-5.25819e-05
2.72175e-05
-5.60609e-05
2.62059e-05
-5.93381e-05
2.50114e-05
-6.2431e-05
2.36528e-05
-6.53779e-05
2.21795e-05
-6.82535e-05
2.06505e-05
-7.11595e-05
1.91404e-05
-7.42253e-05
1.7713e-05
-7.75884e-05
1.64159e-05
-8.1381e-05
1.52576e-05
-8.57055e-05
1.42066e-05
-9.06199e-05
1.31842e-05
-9.61189e-05
1.20743e-05
-0.000102127
1.07312e-05
-0.000108493
8.99594e-06
-0.000114989
6.71163e-06
-0.000121322
3.74291e-06
-0.000127147
-6.70911e-09
-0.000132086
-4.57633e-06
-0.000135756
-9.9346e-06
-0.000137796
-1.59705e-05
-0.000137891
-2.24924e-05
-0.000135807
-2.92333e-05
-0.000131403
-3.58646e-05
-0.00012466
-4.20154e-05
-0.000115688
-4.72978e-05
-0.000104743
-5.13399e-05
-9.22155e-05
-5.38201e-05
-7.86276e-05
-5.45097e-05
-6.45935e-05
-5.33064e-05
-5.0773e-05
-5.02694e-05
-3.78014e-05
-4.56208e-05
-2.62196e-05
-3.97384e-05
-1.64063e-05
-3.30931e-05
-8.54791e-06
-2.61919e-05
-2.63432e-06
-1.94784e-05
1.4956e-06
-1.32947e-05
4.10458e-06
-7.83096e-06
5.48517e-06
-3.16398e-06
5.92736e-06
7.28149e-07
5.6747e-06
3.88412e-06
4.9387e-06
6.34001e-06
3.8835e-06
8.05123e-06
2.67344e-06
8.91574e-06
1.46588e-06
8.6966e-06
4.79697e-07
7.06688e-06
3.39437e-06
-1.18646e-06
7.44559e-06
-3.8967e-06
1.80257e-05
-7.55566e-06
2.50664e-05
-1.17208e-05
2.94839e-05
-1.61614e-05
3.20382e-05
-2.07035e-05
3.3406e-05
-2.52811e-05
3.40292e-05
-2.98293e-05
3.42276e-05
-3.43295e-05
3.41507e-05
-3.87443e-05
3.38903e-05
-4.30578e-05
3.34563e-05
-4.72368e-05
3.2854e-05
-5.12642e-05
3.20596e-05
-5.51166e-05
3.10695e-05
-5.87941e-05
2.9881e-05
-6.23107e-05
2.85273e-05
-6.57223e-05
2.70622e-05
-6.91218e-05
2.55782e-05
-7.2656e-05
2.41828e-05
-7.65095e-05
2.2993e-05
-8.08979e-05
2.20998e-05
-8.60353e-05
2.15523e-05
-9.21107e-05
2.13318e-05
-9.92546e-05
2.13497e-05
-0.000107518
2.1447e-05
-0.000116854
2.14091e-05
-0.000127105
2.09819e-05
-0.000138005
1.98961e-05
-0.000149185
1.78916e-05
-0.000160189
1.47467e-05
-0.0001705
1.03049e-05
-0.000179576
4.50013e-06
-0.000186881
-2.62765e-06
-0.000191925
-1.09255e-05
-0.000194285
-2.01314e-05
-0.000193631
-2.98855e-05
-0.000189746
-3.97473e-05
-0.000182543
-4.92169e-05
-0.00017208
-5.77591e-05
-0.000158582
-6.48361e-05
-0.000142456
-6.99444e-05
-0.000124298
-7.26673e-05
-0.000104876
-7.2727e-05
-8.50954e-05
-7.00492e-05
-6.59165e-05
-6.47988e-05
-4.82498e-05
-5.74051e-05
-3.28327e-05
-4.85095e-05
-2.01354e-05
-3.88895e-05
-1.03086e-05
-2.93043e-05
-3.21728e-06
-2.03867e-05
1.48703e-06
-1.25343e-05
4.24778e-06
-5.92569e-06
5.52729e-06
-5.50126e-07
5.7272e-06
3.68274e-06
5.18946e-06
6.8794e-06
4.17307e-06
9.06547e-06
2.91161e-06
1.01795e-05
1.60978e-06
9.99531e-06
5.29934e-07
8.14985e-06
3.92254e-06
-1.24733e-06
8.69006e-06
-4.08995e-06
2.0878e-05
-7.91799e-06
2.88883e-05
-1.22665e-05
3.38401e-05
-1.68955e-05
3.66634e-05
-2.16255e-05
3.81419e-05
-2.63901e-05
3.87917e-05
-3.11239e-05
3.8966e-05
-3.58092e-05
3.8835e-05
-4.04085e-05
3.84934e-05
-4.49079e-05
3.79555e-05
-4.92763e-05
3.72256e-05
-5.35029e-05
3.62865e-05
-5.75765e-05
3.51457e-05
-6.15209e-05
3.3826e-05
-6.53905e-05
3.23993e-05
-6.93033e-05
3.09759e-05
-7.34378e-05
2.97148e-05
-7.80449e-05
2.87909e-05
-8.34213e-05
2.83712e-05
-8.98864e-05
2.8566e-05
-9.77342e-05
2.94016e-05
-0.000107197
3.0795e-05
-0.000118402
3.2556e-05
-0.00013135
3.43964e-05
-0.000145895
3.5955e-05
-0.000161738
3.68246e-05
-0.00017843
3.65892e-05
-0.000195402
3.48639e-05
-0.000211993
3.13387e-05
-0.000227505
2.58172e-05
-0.000241246
1.82423e-05
-0.000252578
8.70567e-06
-0.000260943
-2.55991e-06
-0.000265876
-1.51978e-05
-0.000267011
-2.87499e-05
-0.000264082
-4.26751e-05
-0.000256931
-5.63675e-05
-0.000245519
-6.91696e-05
-0.00022996
-8.0394e-05
-0.000210555
-8.93481e-05
-0.000187836
-9.53863e-05
-0.000162592
-9.79698e-05
-0.000135877
-9.67638e-05
-0.000108953
-9.17222e-05
-8.31797e-05
-8.31794e-05
-5.98317e-05
-7.18573e-05
-3.99064e-05
-5.88158e-05
-2.39555e-05
-4.5255e-05
-1.20411e-05
-3.23022e-05
-3.80095e-06
-2.07738e-05
1.3746e-06
-1.11024e-05
4.18693e-06
-3.36125e-06
5.2786e-06
2.58957e-06
5.19944e-06
6.9604e-06
4.36449e-06
9.89832e-06
3.12127e-06
1.14255e-05
1.75173e-06
1.13618e-05
5.82687e-07
9.32255e-06
4.50358e-06
-1.3032e-06
9.9875e-06
-4.26398e-06
2.38459e-05
-8.24273e-06
3.28577e-05
-1.27556e-05
3.83578e-05
-1.75548e-05
4.14556e-05
-2.24572e-05
4.30472e-05
-2.73968e-05
4.37259e-05
-3.23083e-05
4.3879e-05
-3.71757e-05
4.3698e-05
-4.1963e-05
4.32813e-05
-4.66591e-05
4.26479e-05
-5.12379e-05
4.18043e-05
-5.57002e-05
4.07457e-05
-6.00561e-05
3.95011e-05
-6.43694e-05
3.81367e-05
-6.87594e-05
3.67884e-05
-7.3439e-05
3.56531e-05
-7.87087e-05
3.49835e-05
-8.49566e-05
3.50367e-05
-9.2611e-05
3.60245e-05
-0.000102095
3.80483e-05
-0.000113759
4.10647e-05
-0.000127833
4.48677e-05
-0.00014438
4.91017e-05
-0.00016327
5.32857e-05
-0.000184167
5.68519e-05
-0.000206536
5.91929e-05
-0.000229668
5.97212e-05
-0.00025274
5.79363e-05
-0.000274886
5.34858e-05
-0.000295276
4.62074e-05
-0.00031317
3.61371e-05
-0.000327955
2.34918e-05
-0.000339145
8.63073e-06
-0.000346361
-7.98123e-06
-0.000349303
-2.58072e-05
-0.000347725
-4.42527e-05
-0.000341417
-6.26744e-05
-0.000330216
-8.03697e-05
-0.000314032
-9.65774e-05
-0.000292907
-0.000110471
-0.000267097
-0.000121194
-0.000237163
-0.000127902
-0.000204046
-0.000129879
-0.000169101
-0.000126665
-0.000134044
-0.000118235
-0.000100772
-0.000105128
-7.10739e-05
-8.85143e-05
-4.62844e-05
-7.00437e-05
-2.70349e-05
-5.15524e-05
-1.31934e-05
-3.46143e-05
-4.06314e-06
-2.02338e-05
1.34172e-06
-8.76485e-06
4.00573e-06
-7.59813e-08
4.79544e-06
6.17249e-06
4.37239e-06
1.03191e-05
3.26546e-06
1.25351e-05
1.87928e-06
1.27445e-05
6.35841e-07
1.05697e-05
5.13743e-06
-1.35021e-06
1.13348e-05
-4.4147e-06
2.69211e-05
-8.52748e-06
3.6964e-05
-1.31881e-05
4.30269e-05
-1.81429e-05
4.64066e-05
-2.3206e-05
4.81168e-05
-2.83126e-05
4.88303e-05
-3.33983e-05
4.89699e-05
-3.84499e-05
4.87487e-05
-4.34337e-05
4.82693e-05
-4.8344e-05
4.75581e-05
-5.31638e-05
4.66277e-05
-5.79129e-05
4.54953e-05
-6.26376e-05
4.42288e-05
-6.74648e-05
4.29647e-05
-7.26113e-05
4.19376e-05
-7.84241e-05
4.1467e-05
-8.53613e-05
4.19231e-05
-9.39689e-05
4.36456e-05
-0.000104802
4.686e-05
-0.000118354
5.16011e-05
-0.000134967
5.76799e-05
-0.000154783
6.46845e-05
-0.000177689
7.20092e-05
-0.000203303
7.8901e-05
-0.000230971
8.45217e-05
-0.000259811
8.80334e-05
-0.000288789
8.86998e-05
-0.000316838
8.59868e-05
-0.000342979
7.9627e-05
-0.000366405
6.96325e-05
-0.000386521
5.62524e-05
-0.000402938
3.99071e-05
-0.000415422
2.11131e-05
-0.000423836
4.30056e-07
-0.000428069
-2.1577e-05
-0.000427984
-4.43403e-05
-0.000423379
-6.72823e-05
-0.000413975
-8.97766e-05
-0.000399435
-0.00011112
-0.000379427
-0.000130481
-0.000353722
-0.0001469
-0.000322341
-0.000159283
-0.000285723
-0.000166498
-0.000244882
-0.000167504
-0.000201501
-0.000161615
-0.000157879
-0.000148748
-0.000116666
-0.000129728
-8.03709e-05
-0.000106337
-5.07931e-05
-8.11311e-05
-2.85949e-05
-5.68118e-05
-1.33217e-05
-3.55082e-05
-3.76936e-06
-1.8316e-05
1.48137e-06
-5.32822e-06
3.75635e-06
3.89935e-06
4.09361e-06
9.9796e-06
3.30348e-06
1.33281e-05
1.98093e-06
1.40636e-05
6.8838e-07
1.18663e-05
5.8239e-06
-1.39322e-06
1.27216e-05
-4.54921e-06
3.00845e-05
-8.78078e-06
4.11853e-05
-1.35741e-05
4.78252e-05
-1.86714e-05
5.14961e-05
-2.3885e-05
5.33334e-05
-2.91525e-05
5.40917e-05
-3.44112e-05
5.423e-05
-3.96517e-05
5.39842e-05
-4.48444e-05
5.34625e-05
-4.99921e-05
5.27016e-05
-5.50928e-05
5.1728e-05
-6.0197e-05
5.0596e-05
-6.54066e-05
4.94377e-05
-7.09422e-05
4.84971e-05
-7.71562e-05
4.81505e-05
-8.45669e-05
4.88748e-05
-9.38122e-05
5.1167e-05
-0.000105589
5.54199e-05
-0.000120535
6.18044e-05
-0.00013913
7.01942e-05
-0.0001616
8.01483e-05
-0.000187856
9.09395e-05
-0.000217456
0.000101608
-0.000249597
0.000111042
-0.00028317
0.000118094
-0.00031687
0.000121733
-0.000349374
0.000121203
-0.000379518
0.000116129
-0.000406428
0.000106536
-0.000429575
9.27768e-05
-0.00044874
7.54157e-05
-0.00046395
5.51142e-05
-0.000475372
3.25314e-05
-0.000483217
8.27183e-06
-0.000487654
-1.71435e-05
-0.000488736
-4.32609e-05
-0.00048635
-6.96726e-05
-0.000480178
-9.59524e-05
-0.000469696
-0.000121606
-0.000454207
-0.000145974
-0.000432921
-0.00016819
-0.000405115
-0.000187092
-0.000370348
-0.000201268
-0.000328745
-0.000209107
-0.000281288
-0.000209072
-0.00023001
-0.000200024
-0.000177976
-0.000181761
-0.000128879
-0.000155432
-8.62497e-05
-0.000123761
-5.24607e-05
-9.05996e-05
-2.81213e-05
-5.98486e-05
-1.22117e-05
-3.42245e-05
-2.89492e-06
-1.46465e-05
1.77333e-06
-7.67276e-07
3.38584e-06
8.36489e-06
3.18004e-06
1.35366e-05
2.0416e-06
1.51984e-05
7.39338e-07
1.31726e-05
6.56113e-06
-1.42676e-06
1.41457e-05
-4.66032e-06
3.33296e-05
-8.99564e-06
4.55142e-05
-1.39077e-05
5.27466e-05
-1.91358e-05
5.67204e-05
-2.44916e-05
5.86965e-05
-2.99155e-05
5.95136e-05
-3.53477e-05
5.9668e-05
-4.07836e-05
5.94195e-05
-4.62002e-05
5.88839e-05
-5.16126e-05
5.81142e-05
-5.70427e-05
5.71622e-05
-6.25873e-05
5.61414e-05
-6.84303e-05
5.52842e-05
-7.49206e-05
5.49887e-05
-8.25844e-05
5.58175e-05
-9.21349e-05
5.84269e-05
-0.000104382
6.34176e-05
-0.000120122
7.11615e-05
-0.000139977
8.16621e-05
-0.000164282
9.45e-05
-0.000192977
0.000108846
-0.000225561
0.000123525
-0.000261064
0.000137112
-0.000298108
0.000148087
-0.000335062
0.000155048
-0.000370285
0.000156956
-0.000402391
0.000153308
-0.000430429
0.000144167
-0.000453947
0.000130052
-0.000472935
0.000111763
-0.000487715
9.0194e-05
-0.000498801
6.61989e-05
-0.000506774
4.05031e-05
-0.00051218
1.36771e-05
-0.000515453
-1.38714e-05
-0.000516856
-4.18583e-05
-0.000516431
-7.00984e-05
-0.000513955
-9.84295e-05
-0.000508896
-0.000126666
-0.000500397
-0.000154477
-0.000487284
-0.000181307
-0.000468163
-0.000206216
-0.000441607
-0.000227828
-0.000406479
-0.000244239
-0.000362363
-0.000253192
-0.000310057
-0.000252331
-0.000251963
-0.000239855
-0.000192136
-0.000215257
-0.000135701
-0.000180194
-8.75444e-05
-0.000138755
-5.06995e-05
-9.66939e-05
-2.54527e-05
-5.94704e-05
-9.96338e-06
-3.0137e-05
-1.58503e-06
-9.14426e-06
2.05284e-06
4.72512e-06
2.82099e-06
1.2771e-05
2.042e-06
1.5974e-05
7.87931e-07
1.44307e-05
7.34709e-06
-1.45612e-06
1.55947e-05
-4.75424e-06
3.6635e-05
-9.17768e-06
4.99265e-05
-1.41936e-05
5.77673e-05
-1.95397e-05
6.2058e-05
-2.50284e-05
6.41878e-05
-3.06035e-05
6.50818e-05
-3.6209e-05
6.52746e-05
-4.1847e-05
6.50519e-05
-4.75037e-05
6.45406e-05
-5.32125e-05
6.38183e-05
-5.90303e-05
6.29792e-05
-6.51202e-05
6.22272e-05
-7.17771e-05
6.19398e-05
-7.9513e-05
6.27209e-05
-8.90526e-05
6.53554e-05
-0.000101299
7.067e-05
-0.000117182
7.92985e-05
-0.00013749
9.14661e-05
-0.000162682
0.000106852
-0.000192765
0.000124581
-0.000227195
0.000143274
-0.000264846
0.000161175
-0.000304065
0.00017633
-0.000342867
0.000186887
-0.000379261
0.00019144
-0.000411611
0.000189304
-0.000438886
0.000180581
-0.000460724
0.000166003
-0.000477341
0.000146669
-0.000489358
0.00012378
-0.000497604
9.84407e-05
-0.000502959
7.1556e-05
-0.000506245
4.3791e-05
-0.00050816
1.5596e-05
-0.000509257
-1.27716e-05
-0.000509922
-4.11895e-05
-0.00051036
-6.96568e-05
-0.000510555
-9.82298e-05
-0.000510207
-0.000127011
-0.000508646
-0.000156034
-0.00050475
-0.000185201
-0.000496905
-0.000214061
-0.000483052
-0.000241683
-0.000460912
-0.00026638
-0.000428408
-0.0002857
-0.000384318
-0.000296425
-0.000329061
-0.000295116
-0.000265406
-0.000278913
-0.000198669
-0.000246931
-0.000135872
-0.00020155
-8.36121e-05
-0.000148953
-4.54461e-05
-9.76353e-05
-2.0906e-05
-5.46777e-05
-6.9437e-06
-2.31058e-05
-1.9679e-07
-2.02337e-06
2.11212e-06
1.04641e-05
1.94971e-06
1.61333e-05
8.31097e-07
1.5553e-05
8.17623e-06
-1.47361e-06
1.7066e-05
-4.81988e-06
3.99939e-05
-9.31438e-06
5.44149e-05
-1.44187e-05
6.28818e-05
-1.98702e-05
6.75062e-05
-2.54823e-05
6.9808e-05
-3.12027e-05
7.08008e-05
-3.69807e-05
7.10591e-05
-4.2826e-05
7.08971e-05
-4.87381e-05
7.04582e-05
-5.47758e-05
6.98567e-05
-6.1045e-05
6.92531e-05
-6.77976e-05
6.89811e-05
-7.54693e-05
6.96156e-05
-8.47604e-05
7.20139e-05
-9.65945e-05
7.71932e-05
-0.000112017
8.60948e-05
-0.000131971
9.92563e-05
-0.000157084
0.000116581
-0.000187461
0.000137233
-0.000222577
0.000159698
-0.000261196
0.000181896
-0.000301436
0.000201416
-0.000340979
0.000215875
-0.000377489
0.000223397
-0.00040907
0.000223022
-0.000434612
0.000214847
-0.000453862
0.000199832
-0.000467286
0.000179428
-0.000475805
0.00015519
-0.000480536
0.000128513
-0.00048257
0.000100477
-0.000482855
7.18439e-05
-0.000482146
4.30845e-05
-0.000481018
1.44714e-05
-0.00047991
-1.38766e-05
-0.00047917
-4.1927e-05
-0.000479076
-6.97473e-05
-0.000479837
-9.74659e-05
-0.000481521
-0.000125323
-0.000483958
-0.000153593
-0.000486562
-0.000182592
-0.000488163
-0.000212455
-0.000486844
-0.000242999
-0.000479928
-0.000273293
-0.000464181
-0.000301448
-0.000436366
-0.000324241
-0.000394157
-0.000337327
-0.000337379
-0.000335695
-0.000269174
-0.000315139
-0.000196472
-0.000274253
-0.000128735
-0.000216689
-7.44778e-05
-0.000151891
-3.72931e-05
-9.18617e-05
-1.51707e-05
-4.5228e-05
-3.7847e-06
-1.34103e-05
8.81802e-07
5.79889e-06
1.71184e-06
1.53008e-05
8.6141e-07
1.64066e-05
9.03606e-06
-1.48562e-06
1.85437e-05
-4.86354e-06
4.33785e-05
-9.40958e-06
5.89488e-05
-1.45837e-05
6.80601e-05
-2.01241e-05
7.30371e-05
-2.58464e-05
7.55321e-05
-3.17027e-05
7.66495e-05
-3.76483e-05
7.70051e-05
-4.37033e-05
7.69457e-05
-4.98845e-05
7.66387e-05
-5.62849e-05
7.62517e-05
-6.30747e-05
7.60415e-05
-7.06164e-05
7.6518e-05
-7.95085e-05
7.85058e-05
-9.06442e-05
8.31452e-05
-0.000105108
9.16547e-05
-0.000123992
0.000104975
-0.000148102
0.000123364
-0.000177719
0.000146194
-0.000212403
0.000171914
-0.000250909
0.000198202
-0.000291214
0.000222198
-0.000330748
0.000240946
-0.000366855
0.00025198
-0.000397386
0.000253925
-0.000421128
0.000246763
-0.000437935
0.000231654
-0.000448531
0.000210428
-0.00045416
0.000185056
-0.000456214
0.000157245
-0.000455961
0.000128261
-0.000454386
9.89029e-05
-0.000452159
6.96175e-05
-0.000449684
4.06095e-05