/*--------------------------------*- C++ -*----------------------------------*\
| =========                 |                                                 |
| \\      /  F ield         | OpenFOAM: The Open Source CFD Toolbox           |
|  \\    /   O peration     | Version:  2406                                  |
|   \\  /    A nd           | Website:  www.openfoam.com                      |
|    \\/     M anipulation  |                                                 |
\*---------------------------------------------------------------------------*/
FoamFile
{
    version     2.0;
    format      ascii;
    arch        "LSB;label=32;scalar=64";
    class       volVectorField;
    location    "13";
    object      U;
}
// * * * * * * * * * * * * * * * * * * * * * * * * * * * * * * * * * * * * * //

dimensions      [0 1 -1 0 0 0 0];

internalField   nonuniform List<vector> 
3600
(
(3.43737e-06 -3.42289e-06 0)
(-2.90405e-05 1.38535e-05 0)
(-0.000138127 3.3842e-05 0)
(-0.000312467 4.75285e-05 0)
(-0.000529622 5.59255e-05 0)
(-0.000773047 6.04751e-05 0)
(-0.00103138 6.29007e-05 0)
(-0.00129864 6.4445e-05 0)
(-0.00157266 6.58901e-05 0)
(-0.00185352 6.76097e-05 0)
(-0.0021422 6.96966e-05 0)
(-0.00243976 7.2073e-05 0)
(-0.00274682 7.45747e-05 0)
(-0.00306331 7.70014e-05 0)
(-0.00338832 7.91435e-05 0)
(-0.00372014 8.07922e-05 0)
(-0.00405621 8.17421e-05 0)
(-0.00439315 8.1789e-05 0)
(-0.00472676 8.07282e-05 0)
(-0.00505205 7.8353e-05 0)
(-0.00536322 7.44554e-05 0)
(-0.00565373 6.88283e-05 0)
(-0.00591628 6.12729e-05 0)
(-0.00614296 5.16093e-05 0)
(-0.00632532 3.96931e-05 0)
(-0.00645463 2.54365e-05 0)
(-0.00652212 8.84373e-06 0)
(-0.00651935 -9.95885e-06 0)
(-0.00643877 -3.07541e-05 0)
(-0.00627426 -5.30883e-05 0)
(-0.0060217 -7.63428e-05 0)
(-0.00567965 -9.972e-05 0)
(-0.00524995 -0.000122259 0)
(-0.00473811 -0.000142885 0)
(-0.00415356 -0.000160484 0)
(-0.00350955 -0.000174 0)
(-0.00282281 -0.000182533 0)
(-0.00211273 -0.00018545 0)
(-0.00140036 -0.00018246 0)
(-0.00070712 -0.000173667 0)
(-5.34562e-05 -0.000159572 0)
(0.000542457 -0.000141026 0)
(0.0010658 -0.000119139 0)
(0.00150584 -9.51607e-05 0)
(0.00185628 -7.03521e-05 0)
(0.00211514 -4.58633e-05 0)
(0.00228433 -2.26209e-05 0)
(0.00236909 -1.26604e-06 0)
(0.00237675 1.72963e-05 0)
(0.00231513 3.25801e-05 0)
(0.00219323 4.55447e-05 0)
(0.00202051 5.65411e-05 0)
(0.00180555 6.55765e-05 0)
(0.00155627 7.26294e-05 0)
(0.00128057 7.7607e-05 0)
(0.000987527 8.00568e-05 0)
(0.000689325 7.84228e-05 0)
(0.000402736 7.0924e-05 0)
(0.000168994 5.07439e-05 0)
(2.30352e-05 2.29418e-05 0)
(-1.56886e-05 3.09187e-05 0)
(-0.000180731 0.0001709 0)
(-0.000510152 0.000319625 0)
(-0.00098643 0.000429157 0)
(-0.0015602 0.000500618 0)
(-0.00219937 0.000543563 0)
(-0.00287937 0.000569061 0)
(-0.0035858 0.000586124 0)
(-0.00431195 0.000600761 0)
(-0.00505592 0.000616118 0)
(-0.00581805 0.000633198 0)
(-0.00659906 0.000651616 0)
(-0.00739887 0.000670208 0)
(-0.00821595 0.000687431 0)
(-0.00904698 0.000701598 0)
(-0.00988675 0.000710991 0)
(-0.0107282 0.000713908 0)
(-0.0115622 0.000708679 0)
(-0.0123782 0.000693676 0)
(-0.0131637 0.00066732 0)
(-0.0139048 0.000628104 0)
(-0.014586 0.000574619 0)
(-0.015191 0.000505617 0)
(-0.0157022 0.000420087 0)
(-0.0161019 0.000317373 0)
(-0.0163719 0.000197318 0)
(-0.0164949 6.04472e-05 0)
(-0.016455 -9.18406e-05 0)
(-0.0162385 -0.000257224 0)
(-0.0158349 -0.000432148 0)
(-0.0152384 -0.000611897 0)
(-0.0144486 -0.000790631 0)
(-0.0134715 -0.00096158 0)
(-0.01232 -0.00111739 0)
(-0.0110146 -0.00125058 0)
(-0.00958265 -0.00135416 0)
(-0.00805781 -0.00142221 0)
(-0.00647874 -0.00145052 0)
(-0.0048872 -0.00143706 0)
(-0.00332588 -0.00138227 0)
(-0.00183599 -0.00128912 0)
(-0.000455006 -0.00116286 0)
(0.000785397 -0.00101051 0)
(0.00186083 -0.000840234 0)
(0.00275501 -0.000660471 0)
(0.00345988 -0.000479238 0)
(0.00397503 -0.000303473 0)
(0.00430635 -0.000138646 0)
(0.00446466 1.12041e-05 0)
(0.00446488 0.000143999 0)
(0.00432361 0.000259774 0)
(0.0040576 0.000358782 0)
(0.00368401 0.000441536 0)
(0.00322032 0.000508138 0)
(0.00268515 0.000557354 0)
(0.00210009 0.000585186 0)
(0.00149317 0.000582285 0)
(0.000899306 0.000530501 0)
(0.000401279 0.000397823 0)
(5.17059e-05 0.000169857 0)
(-4.1537e-05 0.000155513 0)
(-0.00037206 0.000516445 0)
(-0.000930205 0.000851458 0)
(-0.00169158 0.00110057 0)
(-0.00258318 0.00126844 0)
(-0.003566 0.0013743 0)
(-0.00460825 0.00144052 0)
(-0.00569029 0.00148585 0)
(-0.00680167 0.00152319 0)
(-0.00793792 0.00155959 0)
(-0.00909732 0.00159749 0)
(-0.0102787 0.00163624 0)
(-0.0114799 0.00167336 0)
(-0.0126968 0.00170543 0)
(-0.0139232 0.00172861 0)
(-0.0151501 0.00173898 0)
(-0.0163663 0.00173268 0)
(-0.017558 0.00170599 0)
(-0.0187096 0.00165537 0)
(-0.0198033 0.00157754 0)
(-0.02082 0.00146951 0)
(-0.0217391 0.00132865 0)
(-0.0225391 0.00115281 0)
(-0.023198 0.000940446 0)
(-0.0236938 0.000690891 0)
(-0.0240048 0.000404585 0)
(-0.0241109 8.3417e-05 0)
(-0.0239938 -0.000268947 0)
(-0.0236387 -0.000646773 0)
(-0.023035 -0.0010421 0)
(-0.0221775 -0.00144464 0)
(-0.0210679 -0.00184197 0)
(-0.0197156 -0.00221996 0)
(-0.0181381 -0.00256341 0)
(-0.0163619 -0.00285705 0)
(-0.0144218 -0.0030866 0)
(-0.0123599 -0.00323999 0)
(-0.010225 -0.00330853 0)
(-0.00806928 -0.00328784 0)
(-0.00594681 -0.00317852 0)
(-0.00391013 -0.0029862 0)
(-0.00200759 -0.00272122 0)
(-0.000280803 -0.00239768 0)
(0.00123735 -0.00203215 0)
(0.00252391 -0.00164213 0)
(0.00356612 -0.00124448 0)
(0.00436088 -0.000854144 0)
(0.00491337 -0.000483154 0)
(0.00523556 -0.000139932 0)
(0.00534426 0.000170459 0)
(0.00525879 0.00044513 0)
(0.00499991 0.000683555 0)
(0.00458952 0.000885895 0)
(0.00405034 0.00105143 0)
(0.00340723 0.00117653 0)
(0.00268926 0.00125199 0)
(0.00193378 0.00125875 0)
(0.00118421 0.00116163 0)
(0.00054504 0.000900521 0)
(7.3284e-05 0.000408683 0)
(-6.64892e-05 0.0003772 0)
(-0.000563131 0.0010705 0)
(-0.00135095 0.00165411 0)
(-0.00239098 0.00208218 0)
(-0.0035821 0.00237288 0)
(-0.00487948 0.00256 0)
(-0.0062464 0.00267986 0)
(-0.00766011 0.00276261 0)
(-0.00910771 0.00282904 0)
(-0.0105824 0.00289059 0)
(-0.0120803 0.00295127 0)
(-0.0135974 0.00301002 0)
(-0.015129 0.0030627 0)
(-0.0166678 0.00310357 0)
(-0.0182042 0.00312618 0)
(-0.0197258 0.00312398 0)
(-0.0212176 0.0030906 0)
(-0.0226625 0.00302006 0)
(-0.0240413 0.00290689 0)
(-0.0253335 0.0027462 0)
(-0.0265173 0.00253374 0)
(-0.0275704 0.00226601 0)
(-0.0284699 0.00194034 0)
(-0.0291931 0.00155513 0)
(-0.0297175 0.00111013 0)
(-0.0300213 0.000606842 0)
(-0.0300844 4.89981e-05 0)
(-0.0298888 -0.000556898 0)
(-0.0294195 -0.00120127 0)
(-0.0286659 -0.00187104 0)
(-0.0276227 -0.00254964 0)
(-0.0262916 -0.00321717 0)
(-0.024682 -0.00385107 0)
(-0.0228123 -0.00442712 0)
(-0.0207105 -0.00492082 0)
(-0.0184139 -0.00530912 0)
(-0.0159695 -0.00557228 0)
(-0.0134314 -0.00569574 0)
(-0.0108599 -0.00567173 0)
(-0.0083177 -0.00550037 0)
(-0.00586719 -0.00518999 0)
(-0.00356653 -0.00475672 0)
(-0.00146643 -0.00422308 0)
(0.000392515 -0.00361593 0)
(0.0019816 -0.002964 0)
(0.00328456 -0.00229528 0)
(0.00429691 -0.00163479 0)
(0.00502441 -0.00100284 0)
(0.00548091 -0.000414226 0)
(0.00568564 0.000121563 0)
(0.00566128 0.000599595 0)
(0.00543221 0.00101822 0)
(0.00502348 0.00137672 0)
(0.00446115 0.00167279 0)
(0.00377365 0.00189954 0)
(0.00299403 0.00204148 0)
(0.00216437 0.00206825 0)
(0.00133263 0.00192486 0)
(0.000617602 0.00151693 0)
(8.2918e-05 0.000707655 0)
(-9.02481e-05 0.000691896 0)
(-0.00074688 0.00182305 0)
(-0.00175798 0.0027086 0)
(-0.00306659 0.00334212 0)
(-0.00454111 0.00376931 0)
(-0.00613008 0.00404546 0)
(-0.00779235 0.0042238 0)
(-0.00950301 0.0043468 0)
(-0.0112474 0.00444318 0)
(-0.0130169 0.00452852 0)
(-0.0148051 0.00460808 0)
(-0.0166055 0.00468009 0)
(-0.0184101 0.00473849 0)
(-0.0202087 0.00477506 0)
(-0.0219883 0.00478071 0)
(-0.0237336 0.00474633 0)
(-0.0254271 0.00466333 0)
(-0.0270496 0.00452392 0)
(-0.0285807 0.00432126 0)
(-0.0299995 0.0040496 0)
(-0.0312849 0.00370418 0)
(-0.0324161 0.00328133 0)
(-0.0333721 0.00277844 0)
(-0.0341326 0.00219421 0)
(-0.0346776 0.00152895 0)
(-0.0349873 0.000785076 0)
(-0.0350425 -3.225e-05 0)
(-0.0348254 -0.000914246 0)
(-0.0343198 -0.00184827 0)
(-0.0335124 -0.00281688 0)
(-0.0323938 -0.00379785 0)
(-0.0309606 -0.00476424 0)
(-0.0292165 -0.00568509 0)
(-0.0271746 -0.00652661 0)
(-0.0248584 -0.00725395 0)
(-0.022303 -0.00783358 0)
(-0.0195555 -0.00823588 0)
(-0.0166744 -0.00843803 0)
(-0.0137274 -0.00842651 0)
(-0.0107884 -0.00819909 0)
(-0.00793331 -0.00776578 0)
(-0.00523491 -0.00714846 0)
(-0.00275823 -0.00637914 0)
(-0.000556073 -0.005497 0)
(0.00133384 -0.00454461 0)
(0.00289013 -0.00356388 0)
(0.00410712 -0.00259245 0)
(0.00499269 -0.00166103 0)
(0.00556508 -0.00079201 0)
(0.00584938 4.16895e-07 0)
(0.00587428 0.000709186 0)
(0.00566967 0.0013316 0)
(0.00526543 0.00186649 0)
(0.00469139 0.0023104 0)
(0.00397899 0.00265339 0)
(0.00316389 0.00287355 0)
(0.00229104 0.0029286 0)
(0.00141158 0.00274197 0)
(0.00065378 0.00218009 0)
(8.7696e-05 0.00103025 0)
(-0.000112522 0.00109531 0)
(-0.000920089 0.00276751 0)
(-0.0021427 0.00400798 0)
(-0.00370488 0.00487115 0)
(-0.00544433 0.00544446 0)
(-0.00730233 0.00581273 0)
(-0.0092332 0.00604979 0)
(-0.0112101 0.0062117 0)
(-0.013217 0.0063351 0)
(-0.0152436 0.00643927 0)
(-0.0172812 0.00653024 0)
(-0.0193207 0.00660513 0)
(-0.0213514 0.00665585 0)
(-0.0233599 0.00667171 0)
(-0.025331 0.00664124 0)
(-0.0272474 0.0065533 0)
(-0.0290904 0.00639781 0)
(-0.0308412 0.00616614 0)
(-0.0324808 0.00585126 0)
(-0.0339912 0.00544764 0)
(-0.0353556 0.00495108 0)
(-0.0365582 0.00435848 0)
(-0.0375839 0.00366767 0)
(-0.0384179 0.00287754 0)
(-0.0390449 0.00198829 0)
(-0.0394485 0.00100211 0)
(-0.0396105 -7.59856e-05 0)
(-0.0395116 -0.00123739 0)
(-0.0391311 -0.00246808 0)
(-0.0384474 -0.00374864 0)
(-0.0374406 -0.00505321 0)
(-0.0360932 -0.00634918 0)
(-0.0343939 -0.00759773 0)
(-0.0323399 -0.00875487 0)
(-0.0299408 -0.00977343 0)
(-0.0272208 -0.0106061 0)
(-0.0242216 -0.0112088 0)
(-0.0210027 -0.0115453 0)
(-0.0176406 -0.0115911 0)
(-0.0142251 -0.0113369 0)
(-0.010854 -0.0107913 0)
(-0.00762605 -0.00998086 0)
(-0.00463297 -0.00894824 0)
(-0.00195186 -0.00774825 0)
(0.000360461 -0.00644213 0)
(0.00227056 -0.00509119 0)
(0.00376829 -0.00375092 0)
(0.00486391 -0.00246657 0)
(0.0055832 -0.00127079 0)
(0.00596175 -0.000183601 0)
(0.00603969 0.000785559 0)
(0.00585761 0.00163425 0)
(0.00545433 0.00236232 0)
(0.00486647 0.00296665 0)
(0.00413024 0.00343536 0)
(0.00328457 0.00374068 0)
(0.00237722 0.00382805 0)
(0.00146226 0.0035976 0)
(0.000674869 0.00287324 0)
(8.99157e-05 0.00136571 0)
(-0.000133269 0.00158167 0)
(-0.00108094 0.00389167 0)
(-0.0024998 0.00553658 0)
(-0.00429664 0.00665079 0)
(-0.0062798 0.00737683 0)
(-0.00838317 0.00783704 0)
(-0.0105565 0.00812984 0)
(-0.012771 0.0083262 0)
(-0.0150094 0.00847078 0)
(-0.0172598 0.00858609 0)
(-0.0195115 0.00867843 0)
(-0.0217532 0.00874357 0)
(-0.0239716 0.00877132 0)
(-0.0261514 0.00874888 0)
(-0.0282759 0.00866306 0)
(-0.0303276 0.00850172 0)
(-0.0322892 0.00825467 0)
(-0.0341448 0.00791404 0)
(-0.0358808 0.00747428 0)
(-0.0374865 0.00693173 0)
(-0.0389539 0.00628401 0)
(-0.0402773 0.00552931 0)
(-0.0414517 0.00466591 0)
(-0.0424717 0.00369199 0)
(-0.0433296 0.00260592 0)
(-0.0440135 0.00140703 0)
(-0.0445061 9.67098e-05 0)
(-0.044783 -0.00132033 0)
(-0.0448132 -0.0028335 0)
(-0.0445593 -0.00442561 0)
(-0.043979 -0.00607136 0)
(-0.0430277 -0.00773565 0)
(-0.0416635 -0.00937334 0)
(-0.0398518 -0.0109297 0)
(-0.0375723 -0.0123424 0)
(-0.0348248 -0.0135446 0)
(-0.0316348 -0.0144702 0)
(-0.0280568 -0.0150598 0)
(-0.0241756 -0.0152676 0)
(-0.0201029 -0.0150678 0)
(-0.0159707 -0.0144597 0)
(-0.0119213 -0.0134704 0)
(-0.00809467 -0.012153 0)
(-0.00461483 -0.0105824 0)
(-0.00157872 -0.00884606 0)
(0.000951519 -0.00703483 0)
(0.00295083 -0.00523221 0)
(0.00442806 -0.00350675 0)
(0.00541859 -0.00190753 0)
(0.00597484 -0.000463658 0)
(0.0061569 0.000812718 0)
(0.00602504 0.00192082 0)
(0.00563513 0.00286419 0)
(0.00503709 0.00364299 0)
(0.00427663 0.00424599 0)
(0.00339905 0.00464121 0)
(0.00245666 0.0047623 0)
(0.00150734 0.00448517 0)
(0.000692557 0.0035893 0)
(9.15475e-05 0.00170957 0)
(-0.000152383 0.00214464 0)
(-0.00122829 0.00518118 0)
(-0.00282617 0.00727561 0)
(-0.00483648 0.00865961 0)
(-0.00704042 0.00954301 0)
(-0.00936485 0.0100932 0)
(-0.011755 0.0104369 0)
(-0.0141803 0.0106614 0)
(-0.0166221 0.0108196 0)
(-0.0190672 0.0109368 0)
(-0.0215032 0.0110193 0)
(-0.0239169 0.0110613 0)
(-0.0262934 0.0110509 0)
(-0.0286167 0.0109738 0)
(-0.0308704 0.0108164 0)
(-0.033039 0.0105672 0)
(-0.03511 0.0102181 0)
(-0.037075 0.00976431 0)
(-0.038931 0.00920438 0)
(-0.0406804 0.00853866 0)
(-0.0423309 0.0077681 0)
(-0.0438932 0.0068928 0)
(-0.0453788 0.00591084 0)
(-0.0467969 0.00481779 0)
(-0.0481507 0.00360686 0)
(-0.049434 0.00226978 0)
(-0.0506286 0.0007984 0)
(-0.0517004 -0.000813292 0)
(-0.0525987 -0.00256667 0)
(-0.0532574 -0.00445348 0)
(-0.0535953 -0.00645707 0)
(-0.0535204 -0.00854508 0)
(-0.0529379 -0.0106691 0)
(-0.0517591 -0.0127636 0)
(-0.0499119 -0.0147464 0)
(-0.0473524 -0.0165233 0)
(-0.0440743 -0.0179935 0)
(-0.040117 -0.0190594 0)
(-0.0355696 -0.0196369 0)
(-0.0305692 -0.0196663 0)
(-0.0252944 -0.0191227 0)
(-0.0199522 -0.0180224 0)
(-0.0147599 -0.0164249 0)
(-0.00992314 -0.0144278 0)
(-0.00561483 -0.0121557 0)
(-0.00195809 -0.00974474 0)
(0.000982867 -0.0073249 0)
(0.00320195 -0.00500536 0)
(0.00474154 -0.00286509 0)
(0.00567714 -0.000950404 0)
(0.0061007 0.000721012 0)
(0.00610639 0.00215145 0)
(0.00578104 0.0033521 0)
(0.00519975 0.00433143 0)
(0.00442697 0.00508363 0)
(0.00352091 0.00557617 0)
(0.00254273 0.00573284 0)
(0.00155674 0.00540558 0)
(0.000712145 0.00432856 0)
(9.3375e-05 0.00206151 0)
(-0.000169772 0.0027775 0)
(-0.00136153 0.00662067 0)
(-0.00312042 0.00920492 0)
(-0.00532226 0.010875 0)
(-0.00772367 0.0119191 0)
(-0.0102451 0.0125563 0)
(-0.0128277 0.0129453 0)
(-0.0154392 0.0131911 0)
(-0.0180596 0.0133547 0)
(-0.0206746 0.0134642 0)
(-0.0232706 0.0135258 0)
(-0.0258335 0.0135323 0)
(-0.0283477 0.0134706 0)
(-0.0307981 0.0133265 0)
(-0.0331712 0.0130876 0)
(-0.0354573 0.0127459 0)
(-0.0376535 0.0122987 0)
(-0.0397651 0.011748 0)
(-0.0418073 0.0110997 0)
(-0.0438045 0.0103613 0)
(-0.045789 0.00953875 0)
(-0.0477969 0.00863431 0)
(-0.049864 0.00764426 0)
(-0.0520202 0.00655793 0)
(-0.054283 0.00535764 0)
(-0.0566521 0.00401971 0)
(-0.0591034 0.00251661 0)
(-0.0615842 0.000820387 0)
(-0.0640083 -0.00109407 0)
(-0.0662601 -0.00324396 0)
(-0.0681962 -0.00562769 0)
(-0.0696496 -0.00822424 0)
(-0.0704468 -0.0109864 0)
(-0.0704195 -0.0138363 0)
(-0.069422 -0.0166657 0)
(-0.0673477 -0.019341 0)
(-0.0641432 -0.0217112 0)
(-0.0598201 -0.0236203 0)
(-0.0544623 -0.0249222 0)
(-0.0482281 -0.0254983 0)
(-0.0413461 -0.0252743 0)
(-0.0341023 -0.0242345 0)
(-0.0268184 -0.0224298 0)
(-0.0198217 -0.0199768 0)
(-0.0134108 -0.017046 0)
(-0.00782244 -0.0138393 0)
(-0.00320686 -0.0105623 0)
(0.000381299 -0.0073956 0)
(0.00297507 -0.00447522 0)
(0.00467342 -0.00188336 0)
(0.00561308 0.000347591 0)
(0.00594191 0.00222225 0)
(0.00579913 0.00376443 0)
(0.00530476 0.00499868 0)
(0.00455793 0.00593271 0)
(0.00364171 0.00654026 0)
(0.00263432 0.00673979 0)
(0.00161185 0.00636135 0)
(0.000734947 0.005094 0)
(9.56214e-05 0.002423 0)
(-0.000185375 0.00347329 0)
(-0.00148047 0.00819448 0)
(-0.00338246 0.0113041 0)
(-0.0057542 0.0132745 0)
(-0.00833051 0.0144818 0)
(-0.0110263 0.0152031 0)
(-0.0137789 0.0156319 0)
(-0.0165546 0.0158921 0)
(-0.0193324 0.0160534 0)
(-0.0220974 0.0161466 0)
(-0.0248353 0.0161776 0)
(-0.0275318 0.0161388 0)
(-0.0301727 0.0160171 0)
(-0.032746 0.0158003 0)
(-0.0352448 0.0154806 0)
(-0.0376706 0.0150575 0)
(-0.040037 0.0145384 0)
(-0.0423724 0.0139377 0)
(-0.0447207 0.0132734 0)
(-0.0471399 0.0125635 0)
(-0.0496984 0.0118208 0)
(-0.0524686 0.0110489 0)
(-0.0555189 0.0102389 0)
(-0.0589049 0.00936713 0)
(-0.0626593 0.00839539 0)
(-0.0667822 0.00727169 0)
(-0.0712309 0.00593324 0)
(-0.0759136 0.00431197 0)
(-0.0806867 0.00234133 0)
(-0.0853506 -3.53031e-05 0)
(-0.0896658 -0.00284696 0)
(-0.0933675 -0.00609036 0)
(-0.0961812 -0.00971911 0)
(-0.0978448 -0.0136382 0)
(-0.098132 -0.017703 0)
(-0.0968692 -0.0217267 0)
(-0.0939504 -0.0254914 0)
(-0.0893487 -0.0287621 0)
(-0.0831271 -0.0313076 0)
(-0.0754453 -0.0329217 0)
(-0.0665631 -0.0334484 0)
(-0.0568337 -0.0328054 0)
(-0.0466873 -0.0310037 0)
(-0.0365989 -0.0281575 0)
(-0.0270428 -0.024478 0)
(-0.0184378 -0.0202495 0)
(-0.0110961 -0.0157885 0)
(-0.0051889 -0.0113952 0)
(-0.00073903 -0.00731108 0)
(0.00235645 -0.00369356 0)
(0.00428417 -0.000613387 0)
(0.00526736 0.00192826 0)
(0.00552687 0.00397166 0)
(0.00525704 0.00556799 0)
(0.00461715 0.00675133 0)
(0.00373479 0.00751333 0)
(0.00271931 0.0077758 0)
(0.00166808 0.00735196 0)
(0.000759769 0.00588786 0)
(9.82055e-05 0.00279562 0)
(-0.000199165 0.00422498 0)
(-0.00158529 0.00988715 0)
(-0.0036131 0.0135534 0)
(-0.00613419 0.0158363 0)
(-0.00886427 0.0172091 0)
(-0.0117135 0.0180118 0)
(-0.0146162 0.0184756 0)
(-0.0175374 0.0187445 0)
(-0.0204555 0.0188972 0)
(-0.0233554 0.0189673 0)
(-0.026223 0.0189612 0)
(-0.0290455 0.0188717 0)
(-0.0318119 0.0186881 0)
(-0.0345171 0.0184033 0)
(-0.0371661 0.0180191 0)
(-0.0397791 0.0175488 0)
(-0.0423966 0.0170171 0)
(-0.045082 0.0164576 0)
(-0.047922 0.0159067 0)
(-0.0510223 0.0153965 0)
(-0.0545001 0.0149474 0)
(-0.058474 0.014561 0)
(-0.0630508 0.0142158 0)
(-0.0683109 0.0138635 0)
(-0.0742933 0.0134286 0)
(-0.0809796 0.0128099 0)
(-0.0882801 0.0118851 0)
(-0.0960259 0.0105201 0)
(-0.10397 0.00858505 0)
(-0.111795 0.00597123 0)
(-0.119138 0.00260861 0)
(-0.125622 -0.00151195 0)
(-0.130881 -0.00633127 0)
(-0.134582 -0.0117256 0)
(-0.136444 -0.0175002 0)
(-0.136252 -0.0234012 0)
(-0.133858 -0.0291341 0)
(-0.129193 -0.0343776 0)
(-0.122277 -0.0388036 0)
(-0.113228 -0.0420986 0)
(-0.102284 -0.043994 0)
(-0.0898093 -0.0442981 0)
(-0.0762967 -0.0429309 0)
(-0.0623488 -0.0399528 0)
(-0.0486338 -0.0355785 0)
(-0.0358149 -0.0301638 0)
(-0.0244641 -0.0241614 0)
(-0.0149811 -0.0180491 0)
(-0.00754397 -0.0122497 0)
(-0.00211005 -0.00706837 0)
(0.00153493 -0.00266752 0)
(0.0037018 0.000918958 0)
(0.00472556 0.00374408 0)
(0.00491417 0.00589718 0)
(0.00452402 0.00745679 0)
(0.00375735 0.00845098 0)
(0.00277696 0.00881991 0)
(0.00171682 0.00836987 0)
(0.000784008 0.00670923 0)
(0.000100919 0.00318019 0)
(-0.00021115 0.00502563 0)
(-0.00167639 0.0116838 0)
(-0.00381371 0.015934 0)
(-0.00646502 0.0185404 0)
(-0.00932959 0.0200809 0)
(-0.0123138 0.0209632 0)
(-0.0153493 0.0214587 0)
(-0.0184003 0.0217322 0)
(-0.0214455 0.0218721 0)
(-0.02447 0.0219153 0)
(-0.0274613 0.0218698 0)
(-0.0304096 0.0217306 0)
(-0.0333108 0.0214927 0)
(-0.0361714 0.0211597 0)
(-0.0390159 0.0207501 0)
(-0.0418938 0.0202998 0)
(-0.0448859 0.0198608 0)
(-0.0481061 0.0194944 0)
(-0.0516996 0.0192619 0)
(-0.0558339 0.0192121 0)
(-0.060686 0.0193698 0)
(-0.0664244 0.0197267 0)
(-0.07319 0.0202338 0)
(-0.0810725 0.0207968 0)
(-0.0900869 0.0212749 0)
(-0.100152 0.0214842 0)
(-0.111074 0.0212087 0)
(-0.122546 0.02022 0)
(-0.134166 0.0183063 0)
(-0.145472 0.0153042 0)
(-0.155983 0.0111244 0)
(-0.165247 0.0057715 0)
(-0.172873 -0.000652824 0)
(-0.178533 -0.00796258 0)
(-0.181955 -0.0159072 0)
(-0.182932 -0.0241637 0)
(-0.181311 -0.032378 0)
(-0.17698 -0.040157 0)
(-0.169888 -0.0470898 0)
(-0.160053 -0.0527592 0)
(-0.147606 -0.0567698 0)
(-0.132815 -0.0587828 0)
(-0.116123 -0.058564 0)
(-0.0981624 -0.0560376 0)
(-0.0797368 -0.0513332 0)
(-0.0617599 -0.0448095 0)
(-0.0451458 -0.0370322 0)
(-0.0306678 -0.0286946 0)
(-0.0188281 -0.0204941 0)
(-0.00978854 -0.0130016 0)
(-0.00339235 -0.0065756 0)
(0.000737352 -0.0013501 0)
(0.00307357 0.00271514 0)
(0.0040834 0.00575317 0)
(0.00416954 0.00790923 0)
(0.0036519 0.00927464 0)
(0.00277973 0.00983174 0)
(0.00174693 0.00939727 0)
(0.000804545 0.0075525 0)
(0.000103564 0.00357638 0)
(-0.000221351 0.00586848 0)
(-0.00175426 0.0135703 0)
(-0.00398582 0.0184284 0)
(-0.00674973 0.0213683 0)
(-0.00973139 0.0230792 0)
(-0.0128341 0.0240407 0)
(-0.0159877 0.024566 0)
(-0.0191563 0.0248425 0)
(-0.022319 0.0249684 0)
(-0.0254624 0.024985 0)
(-0.0285769 0.0249033 0)
(-0.0316588 0.0247242 0)
(-0.0347147 0.0244532 0)
(-0.0377702 0.0241124 0)
(-0.0408794 0.0237476 0)
(-0.0441348 0.0234295 0)
(-0.0476734 0.023249 0)
(-0.0516771 0.0233052 0)
(-0.0563644 0.0236882 0)
(-0.0619744 0.0244614 0)
(-0.0687451 0.0256448 0)
(-0.0768855 0.0272013 0)
(-0.0865443 0.0290264 0)
(-0.0977756 0.0309422 0)
(-0.110505 0.0326969 0)
(-0.124506 0.0339765 0)
(-0.139395 0.0344323 0)
(-0.154661 0.0337237 0)
(-0.169722 0.0315705 0)
(-0.183999 0.0277978 0)
(-0.196974 0.022359 0)
(-0.208232 0.0153312 0)
(-0.217463 0.00689601 0)
(-0.224452 -0.00267791 0)
(-0.229031 -0.0130702 0)
(-0.231059 -0.023942 0)
(-0.230423 -0.0349045 0)
(-0.226976 -0.0455446 0)
(-0.220582 -0.0554119 0)
(-0.211109 -0.0640243 0)
(-0.198489 -0.0708778 0)
(-0.182761 -0.0754762 0)
(-0.164153 -0.0773807 0)
(-0.143136 -0.0762837 0)
(-0.120477 -0.0720957 0)
(-0.0972208 -0.065029 0)
(-0.0746084 -0.0556395 0)
(-0.0538992 -0.0447916 0)
(-0.0361399 -0.0335189 0)
(-0.0219531 -0.0228098 0)
(-0.0114441 -0.0133997 0)
(-0.00427376 -0.00566646 0)
(0.000157286 0.000340921 0)
(0.00251717 0.0047831 0)
(0.00341524 0.00789292 0)
(0.00334697 0.00986042 0)
(0.00269477 0.0107456 0)
(0.0017461 0.0104034 0)
(0.000818524 0.00840658 0)
(0.00010608 0.00398286 0)
(-0.000229785 0.00674692 0)
(-0.00181936 0.0155333 0)
(-0.00413081 0.0210203 0)
(-0.0069911 0.0243032 0)
(-0.0100742 0.026188 0)
(-0.0132811 0.0272296 0)
(-0.0165405 0.0277853 0)
(-0.0198169 0.0280657 0)
(-0.0230906 0.02818 0)
(-0.0263511 0.0281752 0)
(-0.0295938 0.0280682 0)
(-0.0328243 0.02787 0)
(-0.0360665 0.0276049 0)
(-0.0393738 0.0273247 0)
(-0.0428433 0.0271162 0)
(-0.0466264 0.0271 0)
(-0.0509341 0.0274188 0)
(-0.0560309 0.0282166 0)
(-0.0622173 0.0296115 0)
(-0.0698026 0.0316699 0)
(-0.0790685 0.0343836 0)
(-0.0902276 0.0376508 0)
(-0.103375 0.0412617 0)
(-0.11844 0.0448928 0)
(-0.135149 0.0481163 0)
(-0.153019 0.0504368 0)
(-0.171397 0.0513566 0)
(-0.189553 0.0504578 0)
(-0.206788 0.0474733 0)
(-0.222529 0.0423191 0)
(-0.236371 0.0350823 0)
(-0.248079 0.0259768 0)
(-0.257543 0.0152919 0)
(-0.264738 0.00336063 0)
(-0.269689 -0.00945954 0)
(-0.27239 -0.022831 0)
(-0.272787 -0.0364079 0)
(-0.270747 -0.0498203 0)
(-0.266059 -0.0626533 0)
(-0.258436 -0.0744314 0)
(-0.247565 -0.0846061 0)
(-0.233158 -0.0925631 0)
(-0.215058 -0.0976566 0)
(-0.193345 -0.0992842 0)
(-0.168461 -0.0969987 0)
(-0.141295 -0.090657 0)
(-0.113195 -0.0805594 0)
(-0.0858466 -0.0675328 0)
(-0.0609925 -0.0528691 0)
(-0.0400521 -0.038081 0)
(-0.0237786 -0.0245314 0)
(-0.0121495 -0.0131123 0)
(-0.00455025 -0.00414709 0)
(-9.8517e-05 0.00247971 0)
(0.00208816 0.00709402 0)
(0.00275593 0.0100264 0)
(0.00248432 0.0114638 0)
(0.00170164 0.0113419 0)
(0.000823925 0.00925452 0)
(0.000108641 0.00439783 0)
(-0.000236451 0.0076545 0)
(-0.00187194 0.01756 0)
(-0.00424967 0.0236947 0)
(-0.00719123 0.0273298 0)
(-0.0103615 0.029393 0)
(-0.0136598 0.0305174 0)
(-0.0170144 0.0311065 0)
(-0.0203909 0.0313949 0)
(-0.0237719 0.0315041 0)
(-0.027151 0.0314892 0)
(-0.0305314 0.0313767 0)
(-0.0339331 0.0311951 0)
(-0.0374045 0.0309982 0)
(-0.0410389 0.0308823 0)
(-0.0449912 0.0309929 0)
(-0.049489 0.0315168 0)
(-0.0548318 0.0326594 0)
(-0.0613743 0.0346096 0)
(-0.0694941 0.0375009 0)
(-0.0795471 0.0413747 0)
(-0.091812 0.0461496 0)
(-0.106428 0.0515952 0)
(-0.123326 0.0573163 0)
(-0.142178 0.0627578 0)
(-0.162378 0.0672504 0)
(-0.183103 0.0701043 0)
(-0.20344 0.0707354 0)
(-0.222548 0.0687751 0)
(-0.239784 0.0641163 0)
(-0.254759 0.0568876 0)
(-0.26733 0.047383 0)
(-0.27755 0.0359832 0)
(-0.285589 0.023085 0)
(-0.291656 0.00905796 0)
(-0.295965 -0.00576888 0)
(-0.298687 -0.0211081 0)
(-0.299873 -0.0367103 0)
(-0.299437 -0.0523099 0)
(-0.297159 -0.0676146 0)
(-0.29266 -0.0822482 0)
(-0.285431 -0.0957204 0)
(-0.274865 -0.107398 0)
(-0.260353 -0.116504 0)
(-0.241411 -0.122165 0)
(-0.217862 -0.12351 0)
(-0.190033 -0.119854 0)
(-0.158923 -0.110929 0)
(-0.126256 -0.0971316 0)
(-0.0943158 -0.0796677 0)
(-0.0655176 -0.0604493 0)
(-0.0417693 -0.0416595 0)
(-0.023933 -0.0251155 0)
(-0.0117351 -0.0118034 0)
(-0.00417161 -0.00186536 0)
(-3.29801e-05 0.00507081 0)
(0.00177105 0.00951572 0)
(0.00210378 0.0118488 0)
(0.00160016 0.0121479 0)
(0.000819683 0.0100735 0)
(0.000111681 0.00481972 0)
(-0.000241315 0.00858477 0)
(-0.00191203 0.019638 0)
(-0.00434284 0.0264371 0)
(-0.00735125 0.0304338 0)
(-0.0105953 0.0326812 0)
(-0.0139734 0.0338932 0)
(-0.0174139 0.034521 0)
(-0.0208843 0.034825 0)
(-0.0243705 0.0349406 0)
(-0.0278721 0.0349338 0)
(-0.0314039 0.0348468 0)
(-0.0350059 0.0347354 0)
(-0.0387609 0.0346975 0)
(-0.042815 0.0348929 0)
(-0.0473969 0.0355449 0)
(-0.0528243 0.0369212 0)
(-0.0594922 0.0392929 0)
(-0.0678384 0.0428814 0)
(-0.07829 0.0478031 0)
(-0.0911949 0.054021 0)
(-0.106741 0.061303 0)
(-0.12487 0.0691915 0)
(-0.145201 0.0769988 0)
(-0.167003 0.0838578 0)
(-0.189267 0.088849 0)
(-0.210872 0.0911825 0)
(-0.230808 0.0903641 0)
(-0.248346 0.0862665 0)
(-0.263107 0.0790892 0)
(-0.275046 0.0692512 0)
(-0.284369 0.0572707 0)
(-0.291438 0.0436682 0)
(-0.29668 0.0289057 0)
(-0.300511 0.013346 0)
(-0.303299 -0.00276084 0)
(-0.30533 -0.0192315 0)
(-0.306748 -0.0359171 0)
(-0.307574 -0.052724 0)
(-0.307655 -0.0695202 0)
(-0.306653 -0.0861236 0)
(-0.304016 -0.102207 0)
(-0.298979 -0.117265 0)
(-0.2906 -0.130546 0)
(-0.27786 -0.14105 0)
(-0.259836 -0.147565 0)
(-0.235962 -0.148823 0)
(-0.206345 -0.143756 0)
(-0.172058 -0.13188 0)
(-0.135281 -0.113703 0)
(-0.0990953 -0.0909797 0)
(-0.0668083 -0.0665286 0)
(-0.0409241 -0.0434479 0)
(-0.0223128 -0.0240427 0)
(-0.0102545 -0.00922933 0)
(-0.0032464 0.00120944 0)
(0.000249275 0.00797211 0)
(0.00149543 0.011711 0)
(0.00142526 0.0127336 0)
(0.000804935 0.0108343 0)
(0.000115794 0.00524792 0)
(-0.000244301 0.00953116 0)
(-0.00193933 0.0217549 0)
(-0.00441002 0.0292335 0)
(-0.0074711 0.0336014 0)
(-0.0107759 0.0360401 0)
(-0.0142227 0.0373467 0)
(-0.0177404 0.0380215 0)
(-0.021299 0.0383522 0)
(-0.0248891 0.0384907 0)
(-0.028519 0.0385183 0)
(-0.0322188 0.0385012 0)
(-0.036056 0.0385352 0)
(-0.0401584 0.0387811 0)
(-0.0447387 0.039483 0)
(-0.0501122 0.0409608 0)
(-0.0566937 0.0435705 0)
(-0.0649662 0.0476384 0)
(-0.0754212 0.0533839 0)
(-0.0884776 0.0608462 0)
(-0.104383 0.0698218 0)
(-0.123107 0.0798136 0)
(-0.144238 0.0900114 0)
(-0.166945 0.0993401 0)
(-0.190039 0.106616 0)
(-0.21219 0.110793 0)
(-0.232199 0.111209 0)
(-0.249236 0.107695 0)
(-0.26293 0.100533 0)
(-0.273328 0.0903001 0)
(-0.280793 0.0776959 0)
(-0.285859 0.0634049 0)
(-0.289117 0.0480085 0)
(-0.29113 0.031954 0)
(-0.292404 0.0155453 0)
(-0.293338 -0.00105812 0)
(-0.294212 -0.0177782 0)
(-0.295233 -0.0345867 0)
(-0.296518 -0.0515325 0)
(-0.298045 -0.0686526 0)
(-0.299648 -0.0859689 0)
(-0.300936 -0.1034 0)
(-0.30126 -0.120695 0)
(-0.299653 -0.137335 0)
(-0.29485 -0.15244 0)
(-0.285373 -0.164724 0)
(-0.269757 -0.172529 0)
(-0.246906 -0.174017 0)
(-0.216573 -0.167562 0)
(-0.179854 -0.152345 0)
(-0.139472 -0.129034 0)
(-0.0995347 -0.100202 0)
(-0.0644929 -0.0699891 0)
(-0.0374766 -0.0426761 0)
(-0.0191107 -0.0209478 0)
(-0.0079721 -0.00534286 0)
(-0.00201264 0.00490006 0)
(0.000576201 0.0107896 0)
(0.00115203 0.0129799 0)
(0.000777038 0.0114986 0)
(0.000121445 0.00568292 0)
(-0.000245292 0.0104868 0)
(-0.00195322 0.0238983 0)
(-0.00445024 0.0320696 0)
(-0.00754955 0.036819 0)
(-0.0109021 0.0394577 0)
(-0.0144061 0.0408678 0)
(-0.0179921 0.0416005 0)
(-0.0216331 0.0419729 0)
(-0.0253261 0.0421564 0)
(-0.0290904 0.042254 0)
(-0.0329767 0.0423661 0)
(-0.0370877 0.0426453 0)
(-0.0416071 0.0433362 0)
(-0.0468258 0.0447892 0)
(-0.0531526 0.0474332 0)
(-0.0610928 0.0517065 0)
(-0.0711897 0.0579578 0)
(-0.0839325 0.0663416 0)
(-0.0996416 0.0767253 0)
(-0.11834 0.088614 0)
(-0.139632 0.101107 0)
(-0.162628 0.112935 0)
(-0.186008 0.12263 0)
(-0.208247 0.128838 0)
(-0.227956 0.130658 0)
(-0.244188 0.127835 0)
(-0.256567 0.120717 0)
(-0.265239 0.110055 0)
(-0.27072 0.0967617 0)
(-0.273713 0.0817166 0)
(-0.274947 0.0656473 0)
(-0.275071 0.0490858 0)
(-0.274606 0.0323759 0)
(-0.273965 0.0157088 0)
(-0.273449 -0.000825977 0)
(-0.273234 -0.0172206 0)
(-0.273495 -0.0335531 0)
(-0.274388 -0.0499188 0)
(-0.276024 -0.0664654 0)
(-0.278454 -0.0833497 0)
(-0.281598 -0.100719 0)
(-0.285157 -0.118627 0)
(-0.288501 -0.136931 0)
(-0.290567 -0.155142 0)
(-0.289814 -0.172265 0)
(-0.284296 -0.186687 0)
(-0.271918 -0.196184 0)
(-0.250915 -0.198164 0)
(-0.220552 -0.190227 0)
(-0.181895 -0.171096 0)
(-0.138332 -0.14171 0)
(-0.0952811 -0.10591 0)
(-0.058561 -0.0697215 0)
(-0.031767 -0.0387855 0)
(-0.0148018 -0.0157656 0)
(-0.00531072 -0.000390823 0)
(-0.000779785 0.00872094 0)
(0.000738289 0.0127218 0)
(0.000728298 0.0120135 0)
(0.000128678 0.00612544 0)
(-0.000244127 0.0114445 0)
(-0.00195274 0.0260548 0)
(-0.00446177 0.0349307 0)
(-0.00758416 0.0400724 0)
(-0.0109707 0.0429214 0)
(-0.01452 0.044446 0)
(-0.0181643 0.0452503 0)
(-0.0218811 0.0456829 0)
(-0.0256748 0.0459394 0)
(-0.0295789 0.0461522 0)
(-0.0336699 0.0464693 0)
(-0.0380939 0.0471192 0)
(-0.0430994 0.0484529 0)
(-0.0490621 0.0509443 0)
(-0.0564802 0.0551325 0)
(-0.065926 0.0615115 0)
(-0.0779522 0.0703912 0)
(-0.0929629 0.0817654 0)
(-0.111067 0.0952015 0)
(-0.131934 0.109768 0)
(-0.15469 0.124046 0)
(-0.177951 0.136291 0)
(-0.200045 0.144798 0)
(-0.219399 0.148344 0)
(-0.234926 0.146497 0)
(-0.246217 0.139624 0)
(-0.253503 0.128649 0)
(-0.257454 0.114722 0)
(-0.258941 0.0989462 0)
(-0.258826 0.0822086 0)
(-0.257825 0.0651279 0)
(-0.256448 0.0480767 0)
(-0.255017 0.0312374 0)
(-0.253714 0.0146733 0)
(-0.252622 -0.00159418 0)
(-0.2518 -0.0175818 0)
(-0.251342 -0.0333688 0)
(-0.251359 -0.0490342 0)
(-0.252041 -0.0647175 0)
(-0.253605 -0.0806094 0)
(-0.256263 -0.0969674 0)
(-0.260134 -0.114074 0)
(-0.265109 -0.132158 0)
(-0.27069 -0.151242 0)
(-0.275812 -0.170926 0)
(-0.278723 -0.190128 0)
(-0.277017 -0.206878 0)
(-0.267914 -0.218263 0)
(-0.248876 -0.22072 0)
(-0.218585 -0.210848 0)