/*--------------------------------*- C++ -*----------------------------------*\
| =========                 |                                                 |
| \\      /  F ield         | OpenFOAM: The Open Source CFD Toolbox           |
|  \\    /   O peration     | Version:  2406                                  |
|   \\  /    A nd           | Website:  www.openfoam.com                      |
|    \\/     M anipulation  |                                                 |
\*---------------------------------------------------------------------------*/
FoamFile
{
    version     2.0;
    format      ascii;
    arch        "LSB;label=32;scalar=64";
    class       volVectorField;
    location    "24.5";
    object      U;
}
// * * * * * * * * * * * * * * * * * * * * * * * * * * * * * * * * * * * * * //

dimensions      [0 1 -1 0 0 0 0];

internalField   nonuniform List<vector> 
3600
(
(9.01858e-06 -1.02525e-05 0)
(0.000118866 -5.39942e-05 0)
(0.000315647 -7.40862e-05 0)
(0.000516328 -7.41153e-05 0)
(0.00070001 -6.18793e-05 0)
(0.000821371 -4.43931e-05 0)
(0.000887775 -2.85679e-05 0)
(0.000888793 -1.53861e-05 0)
(0.000839847 -6.97891e-06 0)
(0.000739144 -1.06014e-07 0)
(0.000589187 6.68186e-06 0)
(0.000375712 1.85416e-05 0)
(7.70565e-05 3.80777e-05 0)
(-0.000340411 6.93869e-05 0)
(-0.000917713 0.000113389 0)
(-0.00169817 0.000171472 0)
(-0.00272705 0.000242829 0)
(-0.00404453 0.000327505 0)
(-0.00568867 0.000424168 0)
(-0.00768682 0.000531547 0)
(-0.0100568 0.000646103 0)
(-0.0127951 0.000763089 0)
(-0.0158749 0.000875512 0)
(-0.0192336 0.000975411 0)
(-0.0227716 0.00105232 0)
(-0.0263442 0.00109308 0)
(-0.0297692 0.00108082 0)
(-0.0328297 0.000997569 0)
(-0.0352925 0.00082739 0)
(-0.0369221 0.000561578 0)
(-0.0375063 0.000201638 0)
(-0.0368723 -0.000238204 0)
(-0.0349125 -0.000731693 0)
(-0.0315955 -0.00124162 0)
(-0.0269855 -0.00172345 0)
(-0.0212414 -0.00212899 0)
(-0.0146256 -0.0024122 0)
(-0.00748167 -0.00253502 0)
(-0.000227013 -0.0024743 0)
(0.00669862 -0.0022276 0)
(0.0128562 -0.00181673 0)
(0.0178821 -0.00128795 0)
(0.0215064 -0.000705233 0)
(0.0236217 -0.00014063 0)
(0.0242581 0.000342266 0)
(0.0236121 0.000699252 0)
(0.0219571 0.000915996 0)
(0.0196439 0.00100299 0)
(0.0169776 0.000990345 0)
(0.0142514 0.000911538 0)
(0.011635 0.000799541 0)
(0.00927684 0.000676211 0)
(0.00719553 0.00055998 0)
(0.00543604 0.000456994 0)
(0.00392806 0.000376267 0)
(0.00268222 0.00030961 0)
(0.00161452 0.000256818 0)
(0.000777234 0.000181217 0)
(0.000182543 8.11804e-05 0)
(-5.51731e-05 -6.05721e-05 0)
(5.27651e-05 -0.000117737 0)
(0.000301968 -0.000299565 0)
(0.000677387 -0.000370403 0)
(0.00102902 -0.000344301 0)
(0.00131201 -0.000255669 0)
(0.00144001 -0.000128872 0)
(0.00140521 4.06365e-06 0)
(0.00117753 0.000137973 0)
(0.000762965 0.000263099 0)
(0.000143499 0.000394253 0)
(-0.000699159 0.000541193 0)
(-0.00181182 0.000729683 0)
(-0.00326081 0.000976062 0)
(-0.00513429 0.00130088 0)
(-0.00753527 0.0017104 0)
(-0.0105673 0.00220864 0)
(-0.0143294 0.00278738 0)
(-0.018897 0.00343615 0)
(-0.0243183 0.00413408 0)
(-0.0305915 0.00485442 0)
(-0.0376591 0.00555716 0)
(-0.0453846 0.00619237 0)
(-0.0535548 0.00669672 0)
(-0.061874 0.00699993 0)
(-0.0699894 0.00702854 0)
(-0.0775091 0.0067184 0)
(-0.0840409 0.00602245 0)
(-0.0892144 0.00492103 0)
(-0.0927114 0.00342375 0)
(-0.0942752 0.0015724 0)
(-0.0937279 -0.00056302 0)
(-0.0909683 -0.00288538 0)
(-0.0859842 -0.00527662 0)
(-0.0788472 -0.00760027 0)
(-0.0697259 -0.00970976 0)
(-0.0588777 -0.0114542 0)
(-0.0466629 -0.0126918 0)
(-0.0335234 -0.0133017 0)
(-0.0199898 -0.0132028 0)
(-0.00663442 -0.0123689 0)
(0.00593484 -0.0108438 0)
(0.0171542 -0.00874617 0)
(0.0265148 -0.00626354 0)
(0.0336625 -0.00363232 0)
(0.0383838 -0.00110143 0)
(0.0406954 0.00110459 0)
(0.0407683 0.00282802 0)
(0.0389834 0.00399449 0)
(0.0357774 0.00462134 0)
(0.0316844 0.0047898 0)
(0.0271351 0.00462292 0)
(0.0225558 0.00424259 0)
(0.0181667 0.00376331 0)
(0.0141861 0.00326008 0)
(0.0106155 0.00279578 0)
(0.00754089 0.00237025 0)
(0.00486791 0.00198478 0)
(0.00270778 0.00152622 0)
(0.0010431 0.000968351 0)
(0.00011788 0.000202738 0)
(7.45818e-05 -0.000318476 0)
(0.000374612 -0.000678127 0)
(0.000792107 -0.000792663 0)
(0.00112964 -0.000687722 0)
(0.00132501 -0.000441732 0)
(0.00126685 -9.64537e-05 0)
(0.000927346 0.000281562 0)
(0.000255353 0.000683082 0)
(-0.000768728 0.00109025 0)
(-0.00219059 0.00153621 0)
(-0.00406703 0.00204747 0)
(-0.00648803 0.00268193 0)
(-0.00957345 0.00347937 0)
(-0.0134635 0.00448275 0)
(-0.0183107 0.00570229 0)
(-0.0242495 0.00713444 0)
(-0.0313861 0.0087429 0)
(-0.0397623 0.0104742 0)
(-0.0493452 0.0122435 0)
(-0.0599935 0.0139428 0)
(-0.0714595 0.0154343 0)
(-0.0833843 0.0165661 0)
(-0.0953382 0.0171834 0)
(-0.106851 0.0171561 0)
(-0.117468 0.0163915 0)
(-0.126772 0.0148485 0)
(-0.134419 0.0125336 0)
(-0.140128 0.00949938 0)
(-0.143695 0.00583296 0)
(-0.14497 0.00165333 0)
(-0.143866 -0.00289675 0)
(-0.140337 -0.00764933 0)
(-0.134394 -0.0124162 0)
(-0.126096 -0.0169866 0)
(-0.115571 -0.0211346 0)
(-0.103014 -0.0246225 0)
(-0.088714 -0.0272187 0)
(-0.0730432 -0.0287127 0)
(-0.0564797 -0.0289457 0)
(-0.0395735 -0.0278339 0)
(-0.0229521 -0.0254008 0)
(-0.00724855 -0.0217885 0)
(0.00690695 -0.0172629 0)
(0.0189907 -0.0121889 0)
(0.0285799 -0.00698951 0)
(0.035461 -0.00208899 0)
(0.0395729 0.0021504 0)
(0.0411012 0.00547432 0)
(0.0403487 0.00777068 0)
(0.0378146 0.00906451 0)
(0.033985 0.00949843 0)
(0.02943 0.00927864 0)
(0.0245435 0.00863755 0)
(0.0197374 0.00777343 0)
(0.0151594 0.0068502 0)
(0.0110346 0.00592844 0)
(0.00732581 0.00502251 0)
(0.00423866 0.00397306 0)
(0.0017453 0.00267476 0)
(0.000267168 0.000904446 0)
(7.72062e-05 -0.000519807 0)
(0.000345498 -0.00102125 0)
(0.000669687 -0.00112084 0)
(0.0008312 -0.000857402 0)
(0.000754289 -0.000363455 0)
(0.00031467 0.000309264 0)
(-0.000539777 0.00106169 0)
(-0.00188418 0.00188839 0)
(-0.00377797 0.00276852 0)
(-0.00630703 0.00376145 0)
(-0.009584 0.00491655 0)
(-0.0137527 0.00632825 0)
(-0.0189911 0.00805759 0)
(-0.025479 0.0101591 0)
(-0.033387 0.012625 0)
(-0.0428228 0.0154107 0)
(-0.0538169 0.0184072 0)
(-0.0662726 0.0214644 0)
(-0.0799668 0.0243773 0)
(-0.0945353 0.0269136 0)
(-0.109523 0.0288265 0)
(-0.124421 0.0299006 0)
(-0.13874 0.029972 0)
(-0.152039 0.0289519 0)
(-0.163957 0.0268173 0)
(-0.174207 0.0236058 0)
(-0.182573 0.0193949 0)
(-0.188885 0.0142957 0)
(-0.193017 0.00843916 0)
(-0.194862 0.00197825 0)
(-0.194342 -0.00491641 0)
(-0.19139 -0.0120484 0)
(-0.185968 -0.0191963 0)
(-0.178062 -0.0261052 0)
(-0.167707 -0.0324914 0)
(-0.154991 -0.0380427 0)
(-0.14009 -0.042438 0)
(-0.123268 -0.0453643 0)
(-0.104918 -0.0465581 0)
(-0.085538 -0.0458398 0)
(-0.0657529 -0.0431637 0)
(-0.0462494 -0.0386434 0)
(-0.0277627 -0.032573 0)
(-0.0109655 -0.0254019 0)
(0.00354692 -0.0176913 0)
(0.015377 -0.0100383 0)
(0.0242786 -0.00299603 0)
(0.0302541 0.00299374 0)
(0.0334315 0.0076501 0)
(0.0341668 0.0108698 0)
(0.0328543 0.0127207 0)
(0.0300535 0.0134044 0)
(0.0262163 0.0132055 0)
(0.0218816 0.012422 0)
(0.0173349 0.0113216 0)
(0.0129597 0.0100621 0)
(0.00881908 0.00869626 0)
(0.00524148 0.00706428 0)
(0.00222935 0.00494216 0)
(0.000371941 0.0019405 0)
(6.41102e-05 -0.000707255 0)
(0.000225773 -0.00128111 0)
(0.000336004 -0.00128084 0)
(0.000180023 -0.000758583 0)
(-0.000334784 9.61713e-05 0)
(-0.00133806 0.00123018 0)
(-0.00291437 0.00251698 0)
(-0.0051648 0.00396516 0)
(-0.00820105 0.00555936 0)
(-0.0121571 0.00739509 0)
(-0.0172127 0.00955045 0)
(-0.0235647 0.0121551 0)
(-0.0314368 0.0152773 0)
(-0.0410108 0.0189534 0)
(-0.0524138 0.0231121 0)
(-0.0656411 0.0276095 0)
(-0.0805538 0.0322004 0)
(-0.0968384 0.0365849 0)
(-0.114058 0.0404172 0)
(-0.13168 0.0433716 0)
(-0.149172 0.0451729 0)
(-0.16604 0.0456401 0)
(-0.181877 0.0446806 0)
(-0.196353 0.0422882 0)
(-0.209222 0.038514 0)
(-0.220291 0.0334556 0)
(-0.229424 0.0272346 0)
(-0.236505 0.019994 0)
(-0.24145 0.0118863 0)
(-0.244179 0.00308086 0)
(-0.244624 -0.00623958 0)
(-0.242708 -0.0158655 0)
(-0.238362 -0.025559 0)
(-0.231509 -0.0350386 0)
(-0.222094 -0.0439806 0)
(-0.210083 -0.0520117 0)
(-0.195504 -0.0587263 0)
(-0.178466 -0.0637011 0)
(-0.15921 -0.066542 0)
(-0.138118 -0.0669286 0)
(-0.115754 -0.0646862 0)
(-0.0928328 -0.0598357 0)
(-0.0702024 -0.0526429 0)
(-0.0487307 -0.0436089 0)
(-0.0292475 -0.03343 0)
(-0.0123856 -0.0228946 0)
(0.0014177 -0.0127742 0)
(0.0120211 -0.00371645 0)
(0.0194468 0.00381609 0)
(0.0239566 0.00957656 0)
(0.0258601 0.0135224 0)
(0.025656 0.0157984 0)
(0.023776 0.016678 0)
(0.0207984 0.0165124 0)
(0.0170858 0.0156415 0)
(0.0131413 0.0143251 0)
(0.00913313 0.0126608 0)
(0.00551564 0.010519 0)
(0.00236498 0.0075427 0)
(0.000396492 0.00316469 0)
(3.71608e-05 -0.000800132 0)
(1.65678e-05 -0.00130522 0)
(-0.000212623 -0.00107917 0)
(-0.000833822 -0.000173612 0)
(-0.00195922 0.00117271 0)
(-0.00371665 0.00291826 0)
(-0.00623397 0.00492041 0)
(-0.00964159 0.00721488 0)
(-0.0141165 0.00980239 0)
(-0.0198453 0.0128216 0)
(-0.0270767 0.0163764 0)
(-0.0360425 0.0206121 0)
(-0.0469724 0.0255643 0)
(-0.0599802 0.0311926 0)
(-0.0750622 0.0372935 0)
(-0.092011 0.0435606 0)
(-0.110462 0.0495764 0)
(-0.129893 0.0549037 0)
(-0.149732 0.0591242 0)
(-0.169401 0.0619171 0)
(-0.188405 0.0630682 0)
(-0.206322 0.0624844 0)
(-0.222839 0.0601611 0)
(-0.237711 0.0561704 0)
(-0.250781 0.0506267 0)
(-0.26194 0.0436786 0)
(-0.271139 0.0354849 0)
(-0.278349 0.0262141 0)
(-0.283571 0.0160312 0)
(-0.286797 0.00510674 0)
(-0.288015 -0.00638634 0)
(-0.287179 -0.0182551 0)
(-0.284217 -0.0302815 0)
(-0.279012 -0.0422001 0)
(-0.271421 -0.0536915 0)
(-0.261272 -0.0643645 0)
(-0.248409 -0.0737632 0)
(-0.232712 -0.0813714 0)
(-0.214169 -0.0866559 0)
(-0.192918 -0.0891131 0)
(-0.169326 -0.0883598 0)
(-0.144 -0.0842136 0)
(-0.117822 -0.0767899 0)
(-0.0918463 -0.0665377 0)
(-0.0672214 -0.0542344 0)
(-0.0449684 -0.0408724 0)
(-0.0258782 -0.0275076 0)
(-0.0103428 -0.0150721 0)
(0.0015423 -0.0042652 0)
(0.0100025 0.00450291 0)
(0.0153426 0.0110739 0)
(0.018048 0.0155231 0)
(0.0185379 0.0180785 0)
(0.0173935 0.0190999 0)
(0.0150133 0.018955 0)
(0.0119697 0.01798 0)
(0.00852294 0.0163059 0)
(0.00522617 0.0138407 0)
(0.00225045 0.0101031 0)
(0.000372379 0.00437001 0)
(-2.33947e-06 -0.000788961 0)
(-0.000277349 -0.00104335 0)
(-0.000963404 -0.000437221 0)
(-0.00218584 0.000996189 0)
(-0.00408205 0.0029868 0)
(-0.0067736 0.00552197 0)
(-0.0104447 0.00845732 0)
(-0.0152568 0.0118685 0)
(-0.0214607 0.0157813 0)
(-0.0292887 0.0203772 0)
(-0.0390416 0.0257681 0)
(-0.0509396 0.0320727 0)
(-0.0651508 0.0392294 0)
(-0.0816343 0.0470444 0)
(-0.100181 0.0551182 0)
(-0.120342 0.0629546 0)
(-0.141557 0.0699924 0)
(-0.163169 0.0757328 0)
(-0.184565 0.0797736 0)
(-0.205183 0.0818651 0)
(-0.224579 0.0818852 0)
(-0.242398 0.0798377 0)
(-0.25841 0.0758088 0)
(-0.272469 0.069955 0)
(-0.284535 0.062464 0)
(-0.294626 0.0535447 0)
(-0.302826 0.0433983 0)
(-0.309233 0.0322178 0)
(-0.313964 0.0201723 0)
(-0.317108 0.00741907 0)
(-0.318732 -0.00589948 0)
(-0.318842 -0.0196333 0)
(-0.317393 -0.0336176 0)
(-0.314256 -0.0476428 0)
(-0.309234 -0.0614424 0)
(-0.302046 -0.0746617 0)
(-0.292365 -0.086852 0)
(-0.279825 -0.0974567 0)
(-0.264102 -0.105837 0)
(-0.24497 -0.111307 0)
(-0.222422 -0.113225 0)
(-0.196742 -0.111096 0)
(-0.168612 -0.104717 0)
(-0.139098 -0.094292 0)
(-0.109602 -0.0805112 0)
(-0.0816354 -0.0644936 0)
(-0.056589 -0.0476293 0)
(-0.0354042 -0.0312891 0)
(-0.0185127 -0.0165841 0)
(-0.00579343 -0.0042018 0)
(0.0031169 0.00554903 0)
(0.00879433 0.0126887 0)
(0.0117367 0.0174155 0)
(0.0125657 0.0200972 0)
(0.0117233 0.0211091 0)
(0.00982344 0.0208384 0)
(0.00720367 0.0194333 0)
(0.00448168 0.0168317 0)
(0.00192296 0.012456 0)
(0.000304601 0.00546985 0)
(-5.8903e-05 -0.000593357 0)
(-0.000670995 -0.000347087 0)
(-0.00193901 0.000827212 0)
(-0.00390268 0.00295435 0)
(-0.00673175 0.00576284 0)
(-0.0105382 0.00929063 0)
(-0.0155756 0.0134078 0)
(-0.0220355 0.0182394 0)
(-0.0302432 0.0238377 0)
(-0.0404549 0.0304094 0)
(-0.0529835 0.0380316 0)
(-0.0679669 0.0467266 0)
(-0.0854287 0.0562543 0)
(-0.105097 0.0662023 0)
(-0.126525 0.0759537 0)
(-0.149045 0.0848568 0)
(-0.171956 0.0922823 0)
(-0.194533 0.0977494 0)
(-0.216157 0.10093 0)
(-0.236293 0.101678 0)
(-0.254568 0.0999914 0)
(-0.270726 0.0959965 0)
(-0.284678 0.0899002 0)
(-0.296435 0.0819678 0)
(-0.306128 0.0724734 0)
(-0.313938 0.0616872 0)
(-0.320094 0.0498426 0)
(-0.32482 0.0371395 0)
(-0.328337 0.0237308 0)
(-0.330818 0.00973858 0)
(-0.3324 -0.00474663 0)
(-0.333146 -0.0196407 0)
(-0.333058 -0.0348581 0)
(-0.332038 -0.0502798 0)
(-0.329898 -0.0657365 0)
(-0.326324 -0.0809703 0)
(-0.3209 -0.0956142 0)
(-0.313088 -0.109157 0)
(-0.30229 -0.120943 0)
(-0.287894 -0.130174 0)
(-0.269404 -0.135975 0)
(-0.246562 -0.137492 0)
(-0.219531 -0.134059 0)
(-0.189009 -0.125384 0)
(-0.156314 -0.111754 0)
(-0.123258 -0.0941207 0)
(-0.0919067 -0.074054 0)
(-0.064095 -0.0534395 0)
(-0.0410613 -0.0340645 0)
(-0.0231621 -0.0171956 0)
(-0.0101092 -0.00348113 0)
(-0.00118297 0.00699418 0)
(0.00432118 0.0144268 0)
(0.00717187 0.0192302 0)
(0.00792379 0.0218072 0)
(0.00725081 0.0225904 0)
(0.00557231 0.0217402 0)
(0.00354515 0.0192142 0)
(0.00151926 0.0143773 0)
(0.000227558 0.00634129 0)
(-0.00013248 -0.000193506 0)
(-0.00116258 0.000841832 0)
(-0.00312999 0.00279204 0)
(-0.00596034 0.00579104 0)
(-0.00986622 0.00960807 0)
(-0.0149474 0.0143554 0)
(-0.0215375 0.0199327 0)
(-0.0298497 0.0265158 0)
(-0.040271 0.0341717 0)
(-0.0530384 0.0430916 0)
(-0.0684155 0.0532507 0)
(-0.0863747 0.0644891 0)
(-0.106725 0.0763188 0)
(-0.12893 0.088081 0)
(-0.152317 0.0989717 0)
(-0.176047 0.108251 0)
(-0.199332 0.115295 0)
(-0.221413 0.119697 0)
(-0.241704 0.12125 0)
(-0.259753 0.119959 0)
(-0.275334 0.115985 0)
(-0.288373 0.109619 0)
(-0.298987 0.10121 0)
(-0.307386 0.0911332 0)
(-0.313877 0.0797341 0)
(-0.318776 0.0673183 0)
(-0.322421 0.0541233 0)
(-0.325103 0.0403309 0)
(-0.327092 0.0260584 0)
(-0.328594 0.0113821 0)
(-0.32978 -0.00366324 0)
(-0.330749 -0.0190581 0)
(-0.331552 -0.0347938 0)
(-0.332151 -0.050843 0)
(-0.332429 -0.0671465 0)
(-0.332144 -0.0835745 0)
(-0.33092 -0.0999 0)
(-0.328209 -0.115748 0)
(-0.323306 -0.130567 0)
(-0.315354 -0.143588 0)
(-0.303436 -0.153845 0)
(-0.286697 -0.160217 0)
(-0.264563 -0.161573 0)
(-0.236965 -0.156976 0)
(-0.204589 -0.14598 0)
(-0.168983 -0.128906 0)
(-0.132497 -0.107032 0)
(-0.09785 -0.0824885 0)
(-0.0675203 -0.0578413 0)
(-0.0430128 -0.0353597 0)
(-0.0246456 -0.016496 0)
(-0.0117412 -0.00170514 0)
(-0.00331738 0.00916029 0)
(0.00168552 0.0166163 0)
(0.00406207 0.0211604 0)
(0.0046204 0.0233099 0)
(0.00389576 0.0232623 0)
(0.00258549 0.0210011 0)
(0.00111306 0.0158812 0)
(0.000153748 0.00701289 0)
(-0.000229398 0.000501468 0)
(-0.0017685 0.00267528 0)
(-0.00455467 0.00563037 0)
(-0.00837199 0.00969191 0)
(-0.0134875 0.0147249 0)
(-0.0199851 0.0209384 0)
(-0.0282834 0.0282708 0)
(-0.0385979 0.0369356 0)
(-0.051348 0.0469812 0)
(-0.0666915 0.0585167 0)
(-0.0847699 0.0713311 0)
(-0.105316 0.0850035 0)
(-0.127887 0.0987628 0)
(-0.151681 0.111725 0)
(-0.175843 0.12296 0)
(-0.199409 0.131716 0)
(-0.221559 0.137441 0)
(-0.241566 0.139875 0)
(-0.258974 0.139 0)
(-0.273521 0.135038 0)
(-0.285223 0.128362 0)
(-0.294252 0.11944 0)
(-0.300951 0.108752 0)
(-0.305705 0.0967468 0)
(-0.308948 0.0837973 0)
(-0.311061 0.0701993 0)
(-0.312411 0.0561555 0)
(-0.313279 0.0418014 0)
(-0.313917 0.0272028 0)
(-0.314502 0.0123856 0)
(-0.315187 -0.00266461 0)
(-0.31607 -0.0179777 0)
(-0.317229 -0.0336002 0)
(-0.318685 -0.0495724 0)
(-0.320417 -0.0659246 0)
(-0.322311 -0.0826461 0)
(-0.324146 -0.0996641 0)
(-0.32553 -0.116792 0)
(-0.32587 -0.13368 0)
(-0.324326 -0.149749 0)
(-0.319828 -0.164143 0)
(-0.311129 -0.175703 0)
(-0.296982 -0.183021 0)
(-0.276386 -0.184595 0)
(-0.248954 -0.179116 0)
(-0.215256 -0.165866 0)
(-0.177086 -0.145171 0)
(-0.137376 -0.118677 0)
(-0.0996978 -0.0892814 0)
(-0.0672404 -0.0603981 0)
(-0.0418455 -0.034927 0)
(-0.0235743 -0.0143598 0)
(-0.0113666 0.00107647 0)
(-0.00377668 0.0119764 0)
(0.000393426 0.0190227 0)
(0.00221738 0.0229073 0)
(0.00242181 0.0239324 0)
(0.00178132 0.0221427 0)
(0.000796897 0.0169374 0)
(0.000104825 0.00747423 0)
(-0.000347079 0.00151981 0)
(-0.00247481 0.00520755 0)
(-0.00617886 0.00939926 0)
(-0.0110753 0.0147119 0)
(-0.0174986 0.0211715 0)
(-0.0255099 0.029101 0)
(-0.0356094 0.0384758 0)
(-0.047983 0.0495157 0)
(-0.0630381 0.0621962 0)
(-0.0807814 0.0764597 0)
(-0.101166 0.0918266 0)
(-0.123637 0.107564 0)
(-0.147499 0.122624 0)
(-0.171719 0.135952 0)
(-0.195318 0.146572 0)
(-0.217278 0.1538 0)
(-0.236849 0.157253 0)
(-0.253459 0.156903 0)
(-0.266905 0.153006 0)
(-0.277211 0.146046 0)
(-0.284683 0.136604 0)
(-0.289731 0.125297 0)
(-0.292875 0.112672 0)
(-0.294593 0.0991883 0)
(-0.295352 0.0851837 0)
(-0.295509 0.070895 0)
(-0.295374 0.0564569 0)
(-0.295152 0.0419407 0)
(-0.295018 0.0273575 0)
(-0.295074 0.0126914 0)
(-0.295422 -0.0021027 0)
(-0.296124 -0.0170768 0)
(-0.297255 -0.0322979 0)
(-0.298867 -0.0478325 0)
(-0.301013 -0.063753 0)
(-0.303703 -0.0801204 0)
(-0.306898 -0.0969755 0)
(-0.310436 -0.114302 0)
(-0.313997 -0.13198 0)
(-0.317003 -0.149714 0)
(-0.31857 -0.166941 0)
(-0.317459 -0.182736 0)
(-0.312133 -0.19576 0)
(-0.300912 -0.204277 0)
(-0.282313 -0.206334 0)
(-0.255508 -0.20012 0)
(-0.220881 -0.184543 0)
(-0.180429 -0.159878 0)
(-0.137785 -0.128278 0)
(-0.0974857 -0.0936142 0)
(-0.0635727 -0.0604587 0)
(-0.038054 -0.0322967 0)
(-0.0206055 -0.0106006 0)
(-0.00955203 0.0049717 0)
(-0.00315766 0.0153191 0)
(8.97728e-05 0.0214419 0)
(0.00123014 0.0238665 0)
(0.00119827 0.02278 0)
(0.000599209 0.0176893 0)
(8.38654e-05 0.0078296 0)
(-0.000490247 0.00295563 0)
(-0.00328612 0.00857748 0)
(-0.00799425 0.0142425 0)
(-0.0140414 0.020995 0)
(-0.0218395 0.0290951 0)
(-0.0314149 0.0389853 0)
(-0.0433341 0.0506612 0)
(-0.0577103 0.0642946 0)
(-0.0748847 0.0797141 0)
(-0.094647 0.0966054 0)
(-0.116716 0.114159 0)
(-0.14024 0.131318 0)
(-0.1643 0.146808 0)
(-0.187698 0.159482 0)
(-0.20942 0.168424 0)
(-0.228514 0.17313 0)
(-0.244434 0.173496 0)
(-0.256894 0.169823 0)
(-0.26603 0.162679 0)
(-0.272174 0.152798 0)
(-0.275893 0.140922 0)
(-0.27775 0.127729 0)
(-0.278342 0.113754 0)
(-0.278134 0.0993936 0)
(-0.277532 0.0848947 0)
(-0.276794 0.0704003 0)
(-0.27612 0.0559607 0)
(-0.275606 0.0415809 0)
(-0.27533 0.0272255 0)
(-0.275314 0.0128514 0)
(-0.275598 -0.00159813 0)
(-0.2762 -0.0161756 0)
(-0.277174 -0.0309417 0)
(-0.278573 -0.0459567 0)
(-0.280484 -0.0612936 0)
(-0.282986 -0.0770319 0)
(-0.286169 -0.0932625 0)
(-0.290065 -0.11007 0)
(-0.294628 -0.127509 0)
(-0.29963 -0.145543 0)
(-0.304584 -0.163959 0)
(-0.308613 -0.182243 0)
(-0.310391 -0.199437 0)
(-0.308122 -0.214023 0)
(-0.299716 -0.223905 0)
(-0.283149 -0.226587 0)
(-0.257092 -0.219637 0)
(-0.221659 -0.201462 0)
(-0.179074 -0.172305 0)
(-0.133774 -0.134981 0)
(-0.0914582 -0.0947573 0)
(-0.0569913 -0.0575398 0)
(-0.0323301 -0.0274232 0)
(-0.016391 -0.00534404 0)
(-0.00695067 0.00955691 0)
(-0.00189268 0.018705 0)
(0.000299319 0.0230122 0)
(0.000851275 0.0229448 0)
(0.000534668 0.0181992 0)
(9.54051e-05 0.00812223 0)
(-0.000650466 0.00482751 0)
(-0.00416488 0.0128039 0)
(-0.00992376 0.020161 0)
(-0.0171473 0.0285216 0)
(-0.0263317 0.0384529 0)
(-0.0374506 0.050508 0)
(-0.051112 0.0646693 0)
(-0.067306 0.08099 0)
(-0.0862535 0.0990723 0)
(-0.107477 0.118268 0)
(-0.130446 0.137412 0)
(-0.154037 0.155152 0)
(-0.177181 0.17007 0)
(-0.198607 0.181041 0)
(-0.217399 0.187334 0)
(-0.232807 0.188756 0)
(-0.244619 0.185582 0)
(-0.252902 0.178482 0)
(-0.258139 0.168314 0)
(-0.260912 0.155989 0)
(-0.261939 0.142308 0)
(-0.261823 0.127912 0)
(-0.26112 0.113242 0)
(-0.260192 0.0985734 0)
(-0.259319 0.0840307 0)
(-0.258623 0.0696544 0)
(-0.258183 0.0554171 0)
(-0.25799 0.0412727 0)
(-0.258041 0.0271589 0)
(-0.258292 0.0130247 0)
(-0.258738 -0.0011804 0)
(-0.259359 -0.0154925 0)
(-0.26019 -0.0299491 0)
(-0.261265 -0.0445845 0)
(-0.262675 -0.0594459 0)
(-0.264518 -0.0745945 0)
(-0.266938 -0.0901178 0)
(-0.270075 -0.10613 0)
(-0.274063 -0.122766 0)
(-0.278955 -0.140155 0)
(-0.284653 -0.158361 0)
(-0.290769 -0.177279 0)
(-0.296496 -0.196466 0)
(-0.300454 -0.214954 0)
(-0.300647 -0.231046 0)
(-0.294587 -0.242245 0)
(-0.27971 -0.245421 0)
(-0.254146 -0.237388 0)
(-0.217732 -0.215984 0)
(-0.172998 -0.181463 0)
(-0.125378 -0.137706 0)
(-0.0818988 -0.0917874 0)
(-0.048118 -0.0512769 0)
(-0.0253934 -0.020268 0)
(-0.0116485 0.00103373 0)
(-0.00408866 0.014411 0)
(-0.000550564 0.0213302 0)
(0.000655254 0.0227286 0)
(0.000567336 0.0186045 0)
(0.000131106 0.00845505 0)
(-0.000828614 0.00721126 0)
(-0.00509846 0.0179815 0)
(-0.0119271 0.0272389 0)
(-0.0203185 0.0373624 0)
(-0.030851 0.0492962 0)
(-0.0434219 0.0636768 0)
(-0.0586472 0.0804227 0)
(-0.0763452 0.0993842 0)
(-0.0965757 0.119862 0)
(-0.118572 0.140824 0)
(-0.141579 0.160763 0)
(-0.164262 0.178109 0)
(-0.185501 0.191419 0)
(-0.20408 0.199727 0)
(-0.219315 0.202632 0)
(-0.230778 0.20036 0)
(-0.238649 0.193613 0)
(-0.243337 0.183399 0)
(-0.245595 0.17078 0)
(-0.246131 0.156727 0)
(-0.245693 0.141987 0)
(-0.244802 0.127079 0)
(-0.243891 0.112291 0)
(-0.243167 0.0977504 0)
(-0.242767 0.0834623 0)
(-0.242681 0.0693789 0)
(-0.242896 0.0554184 0)
(-0.243325 0.0415071 0)
(-0.243917 0.0275762 0)
(-0.244592 0.0135813 0)
(-0.245321 -0.000511328 0)
(-0.246064 -0.0147157 0)
(-0.246837 -0.029042 0)
(-0.247655 -0.0434945 0)
(-0.248591 -0.0580859 0)
(-0.24973 -0.0728434 0)
(-0.251216 -0.087821 0)
(-0.253214 -0.103113 0)
(-0.255934 -0.118859 0)
(-0.25958 -0.135252 0)
(-0.264316 -0.1525 0)
(-0.270159 -0.170784 0)
(-0.276843 -0.19011 0)
(-0.283626 -0.210127 0)
(-0.2891 -0.229841 0)
(-0.291084 -0.247351 0)
(-0.286705 -0.25968 0)
(-0.272877 -0.26295 0)
(-0.247199 -0.25311 0)
(-0.209333 -0.227375 0)
(-0.162289 -0.186304 0)
(-0.112821 -0.135345 0)
(-0.0694027 -0.0841751 0)
(-0.0378308 -0.0416868 0)
(-0.0181059 -0.0114647 0)
(-0.00701425 0.00789883 0)
(-0.00159803 0.0185242 0)
(0.000472696 0.0220463 0)
(0.000645414 0.0189137 0)
(0.000182871 0.00885045 0)
(-0.00100861 0.0100892 0)
(-0.0060237 0.0240585 0)
(-0.0138864 0.0353875 0)
(-0.0233789 0.0473864 0)
(-0.035154 0.0614347 0)
(-0.0490059 0.078209 0)
(-0.0655227 0.0975055 0)
(-0.0843112 0.118892 0)
(-0.105248 0.141312 0)
(-0.127286 0.163341 0)
(-0.149502 0.183189 0)
(-0.170442 0.199171 0)
(-0.189056 0.209965 0)
(-0.204309 0.214916 0)
(-0.21586 0.21407 0)
(-0.223651 0.208128 0)
(-0.228239 0.198188 0)
(-0.230287 0.185499 0)
(-0.230689 0.171203 0)
(-0.230151 0.156205 0)
(-0.229333 0.141104 0)
(-0.2286 0.126238 0)
(-0.228223 0.111722 0)
(-0.228247 0.0975473 0)
(-0.228688 0.0836227 0)
(-0.229442 0.0698436 0)
(-0.230437 0.0561033 0)
(-0.231546 0.0423244 0)
(-0.232705 0.0284482 0)
(-0.23382 0.014447 0)
(-0.234858 0.000308477 0)
(-0.235773 -0.0139592 0)
(-0.236569 -0.0283406 0)
(-0.237245 -0.0428138 0)
(-0.237852 -0.0573591 0)
(-0.238444 -0.0719683 0)
(-0.239137 -0.0866523 0)
(-0.240069 -0.101462 0)
(-0.241447 -0.116495 0)
(-0.243514 -0.131928 0)
(-0.246554 -0.148002 0)
(-0.250824 -0.165033 0)
(-0.256464 -0.183314 0)
(-0.263318 -0.202997 0)
(-0.270704 -0.223802 0)
(-0.277171 -0.244692 0)
(-0.280312 -0.263469 0)
(-0.276873 -0.276555 0)
(-0.263229 -0.279168 0)
(-0.236568 -0.26626 0)
(-0.196531 -0.234569 0)
(-0.147036 -0.185381 0)
(-0.0965189 -0.12683 0)
(-0.0549247 -0.0715891 0)
(-0.0272265 -0.0294423 0)
(-0.011279 -0.00169792 0)
(-0.00319836 0.0141744 0)
(0.000117717 0.0207595 0)
(0.000692863 0.0191268 0)
(0.000236281 0.00934667 0)
(-0.00118759 0.0134931 0)
(-0.00691588 0.0310588 0)
(-0.0157432 0.0446114 0)
(-0.0262322 0.058574 0)
(-0.0390906 0.0748074 0)
(-0.0539843 0.0939726 0)
(-0.0714401 0.115678 0)
(-0.0908335 0.139137 0)
(-0.11186 0.162913 0)
(-0.13324 0.185212 0)
(-0.153957 0.204063 0)
(-0.172548 0.217807 0)
(-0.188148 0.225397 0)
(-0.200005 0.226614 0)
(-0.208167 0.222026 0)
(-0.212931 0.212785 0)
(-0.215139 0.200295 0)
(-0.215583 0.185911 0)
(-0.215168 0.170719 0)
(-0.214485 0.155456 0)
(-0.214039 0.140519 0)
(-0.214008 0.126045 0)
(-0.214509 0.111997 0)
(-0.215456 0.098259 0)
(-0.216786 0.0846824 0)
(-0.218341 0.071139 0)
(-0.220031 0.0575238 0)
(-0.221721 0.0437716 0)
(-0.223353 0.0298433 0)
(-0.22484 0.0157302 0)
(-0.226155 0.00144035 0)
(-0.227252 -0.013001 0)
(-0.228134 -0.0275594 0)
(-0.228788 -0.0421949 0)
(-0.229245 -0.0568642 0)
(-0.229531 -0.0715328 0)
(-0.229721 -0.0861731 0)
(-0.229908 -0.100791 0)
(-0.230251 -0.115426 0)
(-0.230953 -0.130195 0)
(-0.232305 -0.145291 0)
(-0.234644 -0.161037 0)
(-0.238325 -0.177834 0)
(-0.243602 -0.196135 0)
(-0.250419 -0.216214 0)
(-0.258142 -0.237878 0)
(-0.265205 -0.259957 0)
(-0.268945 -0.279832 0)
(-0.265621 -0.293107 0)
(-0.251142 -0.293865 0)
(-0.222362 -0.276034 0)
(-0.179362 -0.236104 0)
(-0.127459 -0.177232 0)
(-0.0773676 -0.111392 0)
(-0.0398685 -0.0548225 0)
(-0.0174507 -0.0155869 0)
(-0.00570358 0.00758074 0)
(-0.000588254 0.0185255 0)
(0.00064066 0.0191002 0)
(0.000280822 0.00990072 0)
(-0.0013435 0.0173464 0)
(-0.00769662 0.0388388 0)
(-0.0173615 0.0547165 0)
(-0.0286867 0.0706692 0)
(-0.0424112 0.0890692 0)
(-0.0580514 0.110502 0)
(-0.0760489 0.134337 0)
(-0.0955465 0.159385 0)
(-0.116087 0.183842 0)
(-0.136218 0.205613 0)
(-0.154928 0.222668 0)
(-0.170846 0.233517 0)
(-0.183386 0.237526 0)
(-0.192124 0.234998 0)
(-0.197489 0.227021 0)
(-0.200049 0.215114 0)
(-0.200814 0.200853 0)
(-0.200576 0.185555 0)
(-0.200143 0.17014 0)
(-0.19993 0.155118 0)
(-0.200261 0.140664 0)
(-0.201145 0.126739 0)
(-0.202576 0.113188 0)
(-0.204388 0.0998319 0)
(-0.206478 0.0865037 0)
(-0.208674 0.0730784 0)
(-0.210893 0.05947 0)
(-0.213013 0.0456344 0)
(-0.21499 0.0315553 0)
(-0.216751 0.0172419 0)
(-0.218281 0.00271946 0)
(-0.219538 -0.0119743 0)
(-0.220527 -0.0267916 0)
(-0.221227 -0.0416818 0)
(-0.22166 -0.056586 0)
(-0.221827 -0.0714537 0)
(-0.221775 -0.0862298 0)
(-0.221548 -0.100887 0)
(-0.22125 -0.115409 0)
(-0.221018 -0.12985 0)
(-0.221079 -0.144319 0)
(-0.221739 -0.159068 0)
(-0.223397 -0.174465 0)
(-0.226499 -0.191061 0)
(-0.231395 -0.209434 0)
(-0.238134 -0.230037 0)
(-0.246049 -0.252686 0)
(-0.253438 -0.275998 0)
(-0.257202 -0.296689 0)
(-0.253123 -0.309233 0)
(-0.23656 -0.306355 0)
(-0.204438 -0.280902 0)
(-0.157726 -0.230034 0)
(-0.104136 -0.160207 0)
(-0.0568467 -0.0894147 0)
(-0.0259576 -0.0352238 0)
(-0.00942698 -0.00206755 0)
(-0.00179551 0.0149171 0)
(0.000432548 0.0186619 0)
(0.000306125 0.0104741 0)
(-0.00147311 0.021622 0)
(-0.00834324 0.0473459 0)
(-0.0186913 0.0656333 0)
(-0.0306642 0.0835771 0)
(-0.0450015 0.104082 0)
(-0.0610598 0.127599 0)
(-0.0791829 0.153212 0)
(-0.0983035 0.179311 0)
(-0.117856 0.203765 0)
(-0.136297 0.224273 0)
(-0.152707 0.238886 0)
(-0.165893 0.246421 0)
(-0.175593 0.246761 0)
(-0.181715 0.240752 0)
(-0.184996 0.229945 0)
(-0.186172 0.216096 0)
(-0.186294 0.200808 0)
(-0.186053 0.185241 0)
(-0.186099 0.170082 0)
(-0.186652 0.155591 0)
(-0.18787 0.141744 0)
(-0.189631 0.128366 0)
(-0.19186 0.115236 0)
(-0.194349 0.10215 0)
(-0.196996 0.0889512 0)
(-0.199636 0.0755349 0)
(-0.20221 0.0618423 0)
(-0.204612 0.047851 0)
(-0.206819 0.0335657 0)
(-0.208769 0.019009 0)
(-0.210458 0.00421909 0)
(-0.211848 -0.0107591 0)
(-0.212947 -0.0258688 0)
(-0.213731 -0.0410548 0)
(-0.214216 -0.056249 0)
(-0.214393 -0.0713943 0)
(-0.214287 -0.0864186 0)
(-0.21391 -0.101276 0)
(-0.213319 -0.115909 0)
(-0.212587 -0.130322 0)
(-0.211858 -0.144538 0)
(-0.211355 -0.158714 0)
(-0.211414 -0.173108 0)
(-0.212493 -0.188218 0)
(-0.215111 -0.20469 0)
(-0.219742 -0.223325 0)
(-0.226447 -0.244678 0)
(-0.23454 -0.268559 0)
(-0.241955 -0.293134 0)
(-0.245157 -0.31413 0)
(-0.239197 -0.324503 0)
(-0.219192 -0.31527 0)
(-0.182368 -0.278715 0)
(-0.131776 -0.213883 0)
(-0.0782262 -0.133786 0)
(-0.0373046 -0.0624904 0)
(-0.0145614 -0.0157511 0)
(-0.00364087 0.00934219 0)
(4.10573e-05 0.0175381 0)
(0.000305375 0.0109763 0)
(-0.00155347 0.0261784 0)
(-0.00878071 0.0563468 0)
(-0.0196116 0.0770728 0)
(-0.0320061 0.0969382 0)
(-0.0466743 0.11939 0)
(-0.0628122 0.144702 0)
(-0.0806654 0.171657 0)
(-0.0989957 0.198232 0)
(-0.117183 0.222042 0)
(-0.133673 0.240689 0)
(-0.147707 0.252438 0)
(-0.158324 0.25652 0)
(-0.165595 0.253383 0)
(-0.169708 0.244382 0)
(-0.171617 0.231423 0)
(-0.17211 0.216358 0)
(-0.172184 0.200688 0)
(-0.172365 0.185335 0)
(-0.173124 0.170724 0)
(-0.174502 0.156883 0)
(-0.176534 0.143637 0)
(-0.179017 0.130721 0)
(-0.181846 0.117892 0)
(-0.184808 0.104953 0)
(-0.187823 0.0917741 0)
(-0.190746 0.0782775 0)
(-0.193541 0.064432 0)
(-0.196121 0.050234 0)
(-0.198479 0.0357045 0)
(-0.200558 0.0208757 0)
(-0.202363 0.00579558 0)
(-0.203855 -0.00948649 0)
(-0.205048 -0.0249062 0)
(-0.205915 -0.0404068 0)
(-0.206474 -0.0559131 0)
(-0.206708 -0.0713675 0)
(-0.206638 -0.086688 0)
(-0.206256 -0.101823 0)
(-0.205593 -0.116691 0)
(-0.204672 -0.131266 0)
(-0.203571 -0.145504 0)
(-0.202418 -0.159479 0)
(-0.201442 -0.173317 0)
(-0.201018 -0.187389 0)
(-0.201646 -0.202245 0)
(-0.203968 -0.21877 0)
(-0.20849 -0.237911 0)
(-0.215344 -0.260388 0)
(-0.223562 -0.285787 0)
(-0.230736 -0.311537 0)
(-0.232494 -0.331883 0)
(-0.223394 -0.337685 0)
(-0.198261 -0.318307 0)
(-0.155804 -0.26619 0)
(-0.102018 -0.185619 0)
(-0.0521977 -0.0989479 0)
(-0.0211527 -0.0347577 0)
(-0.00628382 0.00122263 0)
(-0.000546803 0.0154108 0)
(0.000273903 0.0113381 0)
(-0.0015861 0.0309368 0)
(-0.00900422 0.0657339 0)
(-0.020106 0.0889247 0)
(-0.0326888 0.110632 0)
(-0.0474014 0.134854 0)
(-0.0632936 0.161661 0)
(-0.0805223 0.189525 0)
(-0.0977303 0.216048 0)
(-0.114298 0.238675 0)
(-0.128731 0.255026 0)
(-0.140479 0.263692 0)
(-0.148833 0.264389 0)
(-0.154162 0.258137 0)
(-0.156864 0.246719 0)
(-0.158006 0.232266 0)
(-0.158337 0.216595 0)
(-0.158729 0.201009 0)
(-0.159524 0.186154 0)
(-0.161026 0.172204 0)
(-0.163137 0.158996 0)
(-0.165815 0.146252 0)
(-0.168819 0.133671 0)
(-0.172047 0.121017 0)
(-0.175306 0.108118 0)
(-0.178542 0.0948778 0)
(-0.181633 0.0812449 0)
(-0.184566 0.0672107 0)
(-0.187263 0.052784 0)
(-0.189729 0.0379977 0)
(-0.191906 0.0228887 0)
(-0.193804 0.00751285 0)
(-0.195383 -0.00807811 0)
(-0.196657 -0.0238126 0)
(-0.197598 -0.039633 0)
(-0.198228 -0.0554574 0)