/*--------------------------------*- C++ -*----------------------------------*\
| =========                 |                                                 |
| \\      /  F ield         | OpenFOAM: The Open Source CFD Toolbox           |
|  \\    /   O peration     | Version:  2406                                  |
|   \\  /    A nd           | Website:  www.openfoam.com                      |
|    \\/     M anipulation  |                                                 |
\*---------------------------------------------------------------------------*/
FoamFile
{
    version     2.0;
    format      ascii;
    arch        "LSB;label=32;scalar=64";
    class       volVectorField;
    location    "14.8";
    object      Uold;
}
// * * * * * * * * * * * * * * * * * * * * * * * * * * * * * * * * * * * * * //

dimensions      [0 1 -1 0 0 0 0];

internalField   nonuniform List<vector> 
3600
(
(2.09285e-05 -1.90032e-05 0)
(-7.32543e-06 1.2454e-05 0)
(-0.000121393 3.943e-05 0)
(-0.000302851 6.09928e-05 0)
(-0.00053446 6.98176e-05 0)
(-0.000786242 7.53375e-05 0)
(-0.00105765 7.62045e-05 0)
(-0.00133206 7.76835e-05 0)
(-0.00161787 7.83028e-05 0)
(-0.00190656 8.04048e-05 0)
(-0.00220705 8.2457e-05 0)
(-0.00251358 8.54477e-05 0)
(-0.00283207 8.81443e-05 0)
(-0.00315719 9.10227e-05 0)
(-0.00349149 9.32229e-05 0)
(-0.00382944 9.5e-05 0)
(-0.00417074 9.57342e-05 0)
(-0.00450929 9.54932e-05 0)
(-0.00484218 9.37237e-05 0)
(-0.00516206 9.02716e-05 0)
(-0.00546317 8.45259e-05 0)
(-0.00573603 7.61094e-05 0)
(-0.00597157 6.43351e-05 0)
(-0.00615755 4.87065e-05 0)
(-0.00628166 2.86023e-05 0)
(-0.00632938 3.67071e-06 0)
(-0.00628663 -2.63221e-05 0)
(-0.00613895 -6.11704e-05 0)
(-0.00587409 -0.000100291 0)
(-0.00548215 -0.000142501 0)
(-0.00495816 -0.00018609 0)
(-0.00430251 -0.000228763 0)
(-0.00352316 -0.000267826 0)
(-0.00263536 -0.000300354 0)
(-0.0016628 -0.000323502 0)
(-0.000635761 -0.000334859 0)
(0.000409193 -0.000332753 0)
(0.00143312 -0.000316609 0)
(0.00239579 -0.000287005 0)
(0.00326116 -0.000245827 0)
(0.0039976 -0.000195864 0)
(0.00458383 -0.000140763 0)
(0.00500602 -8.41847e-05 0)
(0.0052635 -2.98573e-05 0)
(0.00536137 1.94759e-05 0)
(0.00531684 6.14917e-05 0)
(0.00514682 9.5418e-05 0)
(0.00487789 0.000120691 0)
(0.00452835 0.000138396 0)
(0.00412562 0.000149035 0)
(0.00368089 0.000154817 0)
(0.00321819 0.000156258 0)
(0.00273747 0.000156055 0)
(0.00226048 0.000153624 0)
(0.00177663 0.000151621 0)
(0.00131279 0.000146026 0)
(0.00085753 0.000137421 0)
(0.000462558 0.000111698 0)
(0.000144892 6.74705e-05 0)
(-5.75999e-06 -5.86754e-06 0)
(-9.87487e-06 6.34584e-06 0)
(-0.000184376 0.000178909 0)
(-0.000545125 0.000322939 0)
(-0.001041 0.000440327 0)
(-0.00165108 0.000506139 0)
(-0.00231913 0.000551121 0)
(-0.00304109 0.000573783 0)
(-0.00378493 0.000593315 0)
(-0.00456052 0.000607828 0)
(-0.00535197 0.000625617 0)
(-0.00617119 0.000642841 0)
(-0.0070078 0.000662034 0)
(-0.00786895 0.000679176 0)
(-0.0087443 0.000694647 0)
(-0.00963476 0.000705202 0)
(-0.0105284 0.000710491 0)
(-0.0114203 0.000707901 0)
(-0.0122965 0.00069653 0)
(-0.0131468 0.000673838 0)
(-0.013954 0.000638189 0)
(-0.0147024 0.000586717 0)
(-0.0153705 0.000517092 0)
(-0.0159368 0.00042627 0)
(-0.0163749 0.000311879 0)
(-0.0166586 0.000171636 0)
(-0.0167588 4.53753e-06 0)
(-0.0166479 -0.000189279 0)
(-0.0162993 -0.000407543 0)
(-0.0156916 -0.000645867 0)
(-0.0148087 -0.000897136 0)
(-0.0136447 -0.00115178 0)
(-0.0122036 -0.00139781 0)
(-0.0105032 -0.00162167 0)
(-0.00857458 -0.00180904 0)
(-0.00646306 -0.00194621 0)
(-0.0042259 -0.00202148 0)
(-0.00193149 -0.00202658 0)
(0.000346479 -0.00195794 0)
(0.00253095 -0.00181734 0)
(0.00454988 -0.0016123 0)
(0.00633742 -0.00135508 0)
(0.0078435 -0.00106209 0)
(0.00903096 -0.000751223 0)
(0.00988502 -0.000440964 0)
(0.0104036 -0.000147088 0)
(0.0106073 0.000117115 0)
(0.0105211 0.000343874 0)
(0.0101889 0.00052841 0)
(0.00964599 0.000671916 0)
(0.00894352 0.000776402 0)
(0.00811017 0.000849025 0)
(0.00719378 0.000893947 0)
(0.00620671 0.000920179 0)
(0.00519336 0.000928277 0)
(0.00415026 0.000924726 0)
(0.00313173 0.000896971 0)
(0.00213305 0.000841015 0)
(0.00125002 0.000712093 0)
(0.00050743 0.000497541 0)
(7.08163e-05 0.000146813 0)
(-4.58342e-05 0.000133739 0)
(-0.000379433 0.000559354 0)
(-0.000997958 0.000905153 0)
(-0.00179571 0.00117932 0)
(-0.00275426 0.00134922 0)
(-0.00379378 0.00146646 0)
(-0.00491272 0.00153575 0)
(-0.00606733 0.00159167 0)
(-0.00726938 0.00163576 0)
(-0.00849664 0.00168249 0)
(-0.00976183 0.00172693 0)
(-0.0110498 0.00177216 0)
(-0.0123669 0.00181118 0)
(-0.0136978 0.00184293 0)
(-0.0150407 0.00186122 0)
(-0.0163784 0.0018639 0)
(-0.0177023 0.00184576 0)
(-0.0189924 0.0018039 0)
(-0.020234 0.00173311 0)
(-0.0214036 0.00162928 0)
(-0.0224803 0.00148654 0)
(-0.0234359 0.00129968 0)
(-0.0242428 0.00106269 0)
(-0.024868 0.000770838 0)
(-0.0252788 0.00042018 0)
(-0.0254396 9.49774e-06 0)
(-0.0253174 -0.000459576 0)
(-0.0248802 -0.000980979 0)
(-0.0241022 -0.00154407 0)
(-0.0229643 -0.00213277 0)
(-0.0214584 -0.00272606 0)
(-0.0195883 -0.00329826 0)
(-0.0173731 -0.00382062 0)
(-0.0148473 -0.00426294 0)
(-0.0120628 -0.0045962 0)
(-0.00908614 -0.00479515 0)
(-0.0059988 -0.0048412 0)
(-0.00289097 -0.00472479 0)
(0.000140316 -0.00444721 0)
(0.00300064 -0.00402128 0)
(0.00560023 -0.00347049 0)
(0.00786557 -0.00282733 0)
(0.00973779 -0.00212941 0)
(0.0111845 -0.00141644 0)
(0.0121904 -0.000724828 0)
(0.0127694 -8.5958e-05 0)
(0.0129447 0.000478529 0)
(0.0127647 0.000954831 0)
(0.0122719 0.00134034 0)
(0.0115296 0.00163749 0)
(0.0105774 0.00185747 0)
(0.00947802 0.00200994 0)
(0.0082542 0.00211012 0)
(0.00696589 0.00216228 0)
(0.00561723 0.002174 0)
(0.00428122 0.00212566 0)
(0.00295733 0.00199968 0)
(0.00177085 0.00172327 0)
(0.000746885 0.00124975 0)
(0.000121159 0.000479288 0)
(-8.37203e-05 0.000366059 0)
(-0.000587397 0.00114898 0)
(-0.00147202 0.00175321 0)
(-0.00256671 0.00221388 0)
(-0.0038566 0.00250935 0)
(-0.00523789 0.00271442 0)
(-0.00671635 0.00284384 0)
(-0.00823723 0.00294691 0)
(-0.00981629 0.00302931 0)
(-0.0114241 0.00311104 0)
(-0.0130741 0.00318604 0)
(-0.0147454 0.00325745 0)
(-0.0164427 0.00331518 0)
(-0.018146 0.00335654 0)
(-0.0198516 0.00337239 0)
(-0.0215384 0.0033589 0)
(-0.0231961 0.00330847 0)
(-0.0248027 0.00321645 0)
(-0.0263427 0.00307526 0)
(-0.0277916 0.00287856 0)
(-0.0291285 0.00261767 0)
(-0.0303247 0.00228469 0)
(-0.0313527 0.00187078 0)
(-0.0321789 0.00136889 0)
(-0.0327698 0.000773446 0)
(-0.0330878 8.28864e-05 0)
(-0.033097 -0.000699962 0)
(-0.0327608 -0.00156576 0)
(-0.032047 -0.00249831 0)
(-0.0309282 -0.00347337 0)
(-0.0293861 -0.00445917 0)
(-0.0274134 -0.00541673 0)
(-0.0250179 -0.00630188 0)
(-0.0222237 -0.00706744 0)
(-0.0190756 -0.00766691 0)
(-0.0156371 -0.00805823 0)
(-0.0119927 -0.00820835 0)
(-0.0082423 -0.00809711 0)
(-0.00449948 -0.00772069 0)
(-0.000881243 -0.00709343 0)
(0.00249558 -0.00624746 0)
(0.00552861 -0.00523069 0)
(0.00813065 -0.00410163 0)
(0.0102448 -0.00292425 0)
(0.0118363 -0.00175994 0)
(0.012907 -0.000663246 0)
(0.0134742 0.000325237 0)
(0.0135875 0.00117811 0)
(0.0132942 0.00188536 0)
(0.0126674 0.00244731 0)
(0.0117567 0.00287765 0)
(0.0106374 0.00319095 0)
(0.00934178 0.00340831 0)
(0.00794314 0.00353837 0)
(0.0064518 0.00358946 0)
(0.00495523 0.00353699 0)
(0.00345395 0.00334795 0)
(0.00209336 0.00292367 0)
(0.000897102 0.00216573 0)
(0.000151381 0.000903593 0)
(-0.000117039 0.000708673 0)
(-0.000785158 0.00196888 0)
(-0.00193308 0.00289844 0)
(-0.00331984 0.0035799 0)
(-0.00493134 0.00402206 0)
(-0.00663661 0.0043274 0)
(-0.00844984 0.00452667 0)
(-0.0103047 0.00468339 0)
(-0.0122224 0.00480886 0)
(-0.0141659 0.00492734 0)
(-0.0161502 0.00503196 0)
(-0.0181481 0.00512523 0)
(-0.0201643 0.00519439 0)
(-0.0221746 0.00523522 0)
(-0.0241758 0.00523655 0)
(-0.0261461 0.00519352 0)
(-0.0280781 0.00509726 0)
(-0.0299525 0.0049422 0)
(-0.0317591 0.00471924 0)
(-0.033479 0.00442027 0)
(-0.035098 0.00403409 0)
(-0.0365936 0.00354987 0)
(-0.0379445 0.00295537 0)
(-0.0391212 0.00224013 0)
(-0.0400926 0.00139525 0)
(-0.0408199 0.000416539 0)
(-0.0412617 -0.000694822 0)
(-0.0413707 -0.00192949 0)
(-0.0410986 -0.0032691 0)
(-0.0403961 -0.00468435 0)
(-0.0392185 -0.00613499 0)
(-0.0375289 -0.00756959 0)
(-0.0353048 -0.0089275 0)
(-0.0325424 -0.0101413 0)
(-0.0292634 -0.0111414 0)
(-0.0255173 -0.0118613 0)
(-0.0213847 -0.0122443 0)
(-0.0169745 -0.0122501 0)
(-0.012422 -0.0118606 0)
(-0.00787768 -0.0110842 0)
(-0.00350092 -0.00995746 0)
(0.000558347 -0.00854291 0)
(0.00416527 -0.00692313 0)
(0.00722038 -0.00519283 0)
(0.00965539 -0.00344722 0)
(0.0114504 -0.00177354 0)
(0.0126127 -0.000240471 0)
(0.0131934 0.00110377 0)
(0.0132488 0.00223647 0)
(0.0128666 0.00315326 0)
(0.0121122 0.00386909 0)
(0.0110788 0.0044044 0)
(0.0098118 0.00478679 0)
(0.00839969 0.00503164 0)
(0.00686038 0.00514811 0)
(0.00529417 0.00510899 0)
(0.00370386 0.00486318 0)
(0.00225147 0.00428595 0)
(0.000963647 0.00321541 0)
(0.000160969 0.00139647 0)
(-0.000150584 0.00115001 0)
(-0.000983193 0.00299997 0)
(-0.00239061 0.00431145 0)
(-0.00406227 0.00523638 0)
(-0.00598317 0.00583377 0)
(-0.00799474 0.00624096 0)
(-0.0101199 0.00651025 0)
(-0.0122804 0.00671914 0)
(-0.0145038 0.006885 0)
(-0.0167451 0.00703503 0)
(-0.0190215 0.00716166 0)
(-0.0213004 0.00726662 0)
(-0.0235879 0.0073356 0)
(-0.0258584 0.00736409 0)
(-0.0281131 0.00734093 0)
(-0.0303345 0.00726233 0)
(-0.0325246 0.00712035 0)
(-0.0346736 0.00691043 0)
(-0.0367853 0.00662356 0)
(-0.038854 0.00625083 0)
(-0.0408806 0.00577883 0)
(-0.0428562 0.00519323 0)
(-0.0447718 0.00447678 0)
(-0.0466061 0.00361267 0)
(-0.0483313 0.00258443 0)
(-0.0499043 0.00137944 0)
(-0.0512706 -9.75675e-06 0)
(-0.0523597 -0.00158171 0)
(-0.0530897 -0.00332384 0)
(-0.0533683 -0.00520895 0)
(-0.0531008 -0.00719362 0)
(-0.0521963 -0.00921657 0)
(-0.0505788 -0.0111998 0)
(-0.0481956 -0.0130511 0)
(-0.0450287 -0.0146693 0)
(-0.0411002 -0.0159516 0)
(-0.0364799 -0.0168033 0)
(-0.0312841 -0.0171477 0)
(-0.025675 -0.0169364 0)
(-0.019849 -0.0161578 0)
(-0.0140279 -0.014842 0)
(-0.00843572 -0.013061 0)
(-0.00328562 -0.0109227 0)
(0.00124854 -0.00856012 0)
(0.00503598 -0.00611488 0)
(0.00801277 -0.00372237 0)
(0.0101629 -0.00149466 0)
(0.0115343 0.000486173 0)
(0.0121958 0.00217552 0)
(0.0122587 0.0035592 0)
(0.0118157 0.00465194 0)
(0.0109888 0.00548121 0)
(0.00984788 0.00608371 0)
(0.00850387 0.00648499 0)
(0.00698911 0.006698 0)
(0.00541883 0.00669563 0)
(0.00380238 0.00640927 0)
(0.00231488 0.00568662 0)
(0.0009892 0.0042977 0)
(0.000163442 0.00189822 0)
(-0.000182004 0.00169588 0)
(-0.00117246 0.0042513 0)
(-0.00282948 0.00600391 0)
(-0.00477431 0.00719748 0)
(-0.00699022 0.00795938 0)
(-0.00929061 0.0084693 0)
(-0.0117066 0.00880686 0)
(-0.0141481 0.00906384 0)
(-0.0166488 0.00926463 0)
(-0.0191563 0.00943854 0)
(-0.0216915 0.00957808 0)
(-0.0242177 0.00968484 0)
(-0.0267463 0.00974518 0)
(-0.0292543 0.00975677 0)
(-0.0317538 0.00971177 0)
(-0.0342387 0.00961066 0)
(-0.036729 0.00944968 0)
(-0.0392345 0.00922779 0)
(-0.0417824 0.00893791 0)
(-0.0443904 0.00857101 0)
(-0.0470839 0.00811095 0)
(-0.0498753 0.00753761 0)
(-0.0527729 0.00682458 0)
(-0.0557647 0.00594218 0)
(-0.0588223 0.00485748 0)
(-0.0618879 0.00353835 0)
(-0.0648772 0.00195615 0)
(-0.0676735 9.16487e-05 0)
(-0.0701346 -0.00206 0)
(-0.0720966 -0.00448261 0)
(-0.0733876 -0.00713442 0)
(-0.0738387 -0.00994447 0)
(-0.0733012 -0.0128127 0)
(-0.0716591 -0.0156128 0)
(-0.0688432 -0.0181989 0)
(-0.0648403 -0.0204157 0)
(-0.0597018 -0.0221113 0)
(-0.0535464 -0.0231512 0)
(-0.0465611 -0.0234347 0)
(-0.0389925 -0.022908 0)
(-0.0311373 -0.0215765 0)
(-0.0233166 -0.019509 0)
(-0.0158559 -0.0168351 0)
(-0.00904561 -0.0137331 0)
(-0.00312384 -0.0104081 0)
(0.00176026 -0.00706778 0)
(0.00553626 -0.00389474 0)
(0.00823174 -0.00102965 0)
(0.00992453 0.00144211 0)
(0.0107574 0.00348524 0)
(0.0108657 0.00511 0)
(0.010418 0.00635235 0)
(0.00952645 0.00726261 0)
(0.0083389 0.00788277 0)
(0.00691488 0.00823531 0)
(0.00539205 0.00829796 0)
(0.00379393 0.00798734 0)
(0.00230992 0.00712384 0)
(0.000982583 0.00541036 0)
(0.000159396 0.00241218 0)
(-0.000213399 0.00233584 0)
(-0.00135731 0.00570303 0)
(-0.00325317 0.00794841 0)
(-0.0054573 0.00942937 0)
(-0.007951 0.0103589 0)
(-0.010521 0.0109671 0)
(-0.0132063 0.0113662 0)
(-0.0159053 0.011663 0)
(-0.0186582 0.0118897 0)
(-0.0214062 0.0120776 0)
(-0.0241755 0.0122207 0)
(-0.026929 0.0123225 0)
(-0.0296878 0.0123736 0)
(-0.0324381 0.0123781 0)
(-0.0352113 0.0123363 0)
(-0.0380224 0.0122578 0)
(-0.0409209 0.0121472 0)
(-0.0439475 0.0120102 0)
(-0.0471646 0.0118437 0)
(-0.0506246 0.0116386 0)
(-0.0543861 0.0113739 0)
(-0.0584886 0.0110188 0)
(-0.0629581 0.010529 0)
(-0.0677855 0.00984978 0)
(-0.0729264 0.00891564 0)
(-0.0782843 0.00765649 0)
(-0.0837144 0.00600347 0)
(-0.0890191 0.0038996 0)
(-0.0939632 0.00131019 0)
(-0.0982847 -0.0017657 0)
(-0.101718 -0.0052875 0)
(-0.104011 -0.00916841 0)
(-0.104945 -0.0132764 0)
(-0.104347 -0.0174388 0)
(-0.1021 -0.0214522 0)
(-0.0981548 -0.0250941 0)
(-0.0925365 -0.0281388 0)
(-0.0853495 -0.0303746 0)
(-0.0767853 -0.0316239 0)
(-0.0671202 -0.0317632 0)
(-0.0567125 -0.0307436 0)
(-0.045981 -0.0286034 0)
(-0.0353822 -0.0254755 0)
(-0.0253626 -0.0215777 0)
(-0.016323 -0.0171905 0)
(-0.00856086 -0.0126216 0)
(-0.00225932 -0.00816274 0)
(0.00254511 -0.00405434 0)
(0.00591661 -0.000458111 0)
(0.00802636 0.00254489 0)
(0.00906489 0.00494836 0)
(0.00926836 0.00679484 0)
(0.0088155 0.00815387 0)
(0.00791302 0.00909272 0)
(0.00666739 0.00965333 0)
(0.00525189 0.00982642 0)
(0.00371581 0.00952046 0)
(0.00226685 0.00853147 0)
(0.000962179 0.00650008 0)
(0.000154178 0.00290792 0)
(-0.000242894 0.00307248 0)
(-0.00153151 0.0073549 0)
(-0.00365169 0.0101427 0)
(-0.00609808 0.0119296 0)
(-0.0088504 0.0130303 0)
(-0.0116701 0.0137328 0)
(-0.0146039 0.014187 0)
(-0.0175393 0.0145154 0)
(-0.0205236 0.0147598 0)
(-0.0234935 0.0149542 0)
(-0.0264835 0.015097 0)
(-0.0294608 0.0151972 0)
(-0.0324629 0.0152553 0)
(-0.0354945 0.0152878 0)
(-0.0386167 0.0153101 0)
(-0.0418783 0.0153464 0)
(-0.0453707 0.0154151 0)
(-0.0491791 0.0155315 0)
(-0.0534129 0.0156975 0)
(-0.0581685 0.0159017 0)
(-0.0635427 0.0161121 0)
(-0.0695994 0.0162757 0)
(-0.0763701 0.0163137 0)
(-0.0838238 0.0161233 0)
(-0.0918634 0.0155808 0)
(-0.100309 0.0145517 0)
(-0.108908 0.0129053 0)
(-0.117344 0.0105341 0)
(-0.125266 0.00737229 0)
(-0.132314 0.00341067 0)
(-0.13815 -0.00129538 0)
(-0.142473 -0.00662549 0)
(-0.145033 -0.0124006 0)
(-0.145631 -0.0183923 0)
(-0.144128 -0.0243346 0)
(-0.140442 -0.0299358 0)
(-0.134556 -0.0348933 0)
(-0.12653 -0.0389096 0)
(-0.116515 -0.0417134 0)
(-0.104762 -0.0430836 0)
(-0.0916374 -0.0428788 0)
(-0.0776159 -0.0410628 0)
(-0.0632658 -0.037728 0)
(-0.049203 -0.0331005 0)
(-0.03604 -0.0275264 0)
(-0.0243009 -0.0214316 0)
(-0.0143722 -0.0152613 0)
(-0.00643816 -0.00941582 0)
(-0.000507078 -0.00419367 0)
(0.00359245 0.000229829 0)
(0.00610656 0.00380241 0)
(0.00735726 0.00656223 0)
(0.00761842 0.00860118 0)
(0.00718467 0.0100229 0)
(0.00623657 0.0109032 0)
(0.00500359 0.0112589 0)
(0.0035773 0.0110019 0)
(0.00219316 0.00991135 0)
(0.000930026 0.0075741 0)
(0.000147123 0.00339551 0)
(-0.000271445 0.00389601 0)
(-0.00169672 0.00918761 0)
(-0.00402612 0.0125615 0)
(-0.00669709 0.0146688 0)
(-0.00968816 0.0159413 0)
(-0.0127377 0.0167324 0)
(-0.0159002 0.0172341 0)
(-0.0190535 0.0175862 0)
(-0.0222535 0.0178419 0)
(-0.0254348 0.01804 0)
(-0.0286446 0.0181882 0)
(-0.0318608 0.0183066 0)
(-0.0351464 0.0184134 0)
(-0.0385355 0.0185456 0)
(-0.0421318 0.0187419 0)
(-0.0460318 0.0190481 0)
(-0.0503828 0.0195011 0)
(-0.0553261 0.020128 0)
(-0.0610273 0.0209336 0)
(-0.0676287 0.0218968 0)
(-0.0752576 0.0229599 0)
(-0.0839807 0.0240248 0)
(-0.0937964 0.024947 0)
(-0.104597 0.0255399 0)
(-0.116168 0.0255856 0)
(-0.128182 0.0248594 0)
(-0.140237 0.0231589 0)
(-0.151885 0.0203364 0)
(-0.162687 0.0163219 0)
(-0.172242 0.0111337 0)
(-0.180213 0.00487438 0)
(-0.186325 -0.00228053 0)
(-0.190361 -0.0100977 0)
(-0.192149 -0.0182984 0)
(-0.19155 -0.0265694 0)
(-0.188458 -0.0345697 0)
(-0.182798 -0.0419385 0)
(-0.174546 -0.0483045 0)
(-0.163746 -0.0533022 0)
(-0.150541 -0.0565954 0)
(-0.135209 -0.0579109 0)
(-0.118179 -0.0570795 0)
(-0.10005 -0.0540801 0)
(-0.0815611 -0.0490731 0)
(-0.0635435 -0.0424143 0)
(-0.0468158 -0.0346288 0)
(-0.0320839 -0.0263437 0)
(-0.0198163 -0.0181894 0)
(-0.010213 -0.0106931 0)
(-0.00318017 -0.00421074 0)
(0.00155459 0.00109791 0)
(0.00440577 0.00523491 0)
(0.00577092 0.00830883 0)
(0.00606757 0.0104702 0)
(0.00558551 0.0118469 0)
(0.00463873 0.0125017 0)
(0.00338374 0.0123672 0)
(0.00209825 0.0112188 0)
(0.000893468 0.00860183 0)
(0.000140598 0.00385883 0)
(-0.000297647 0.00480462 0)
(-0.00184868 0.0111934 0)
(-0.00437012 0.0151934 0)
(-0.00724659 0.0176348 0)
(-0.0104561 0.0190804 0)
(-0.0137162 0.019956 0)
(-0.0170895 0.0204996 0)
(-0.0204461 0.0208707 0)
(-0.0238517 0.0211367 0)
(-0.0272433 0.0213455 0)
(-0.0306864 0.0215202 0)
(-0.0341782 0.0217006 0)
(-0.0378177 0.0219329 0)
(-0.0416816 0.0222846 0)
(-0.0459306 0.0228269 0)
(-0.0507221 0.0236341 0)
(-0.0562712 0.0247645 0)
(-0.0627821 0.0262549 0)
(-0.0704746 0.0281033 0)
(-0.0795224 0.0302597 0)
(-0.09005 0.0326102 0)
(-0.102071 0.034969 0)
(-0.115473 0.0370762 0)
(-0.129985 0.0386141 0)
(-0.145195 0.0392407 0)
(-0.160585 0.0386386 0)
(-0.175608 0.0365658 0)
(-0.189747 0.0328913 0)
(-0.202568 0.0276043 0)
(-0.213737 0.0208018 0)
(-0.223016 0.0126648 0)
(-0.230241 0.00343226 0)
(-0.235295 -0.00661853 0)
(-0.238079 -0.017184 0)
(-0.238492 -0.0279387 0)
(-0.236415 -0.0385334 0)
(-0.231714 -0.0485915 0)
(-0.224249 -0.0577059 0)
(-0.213902 -0.0654439 0)
(-0.200618 -0.0713609 0)
(-0.184462 -0.0750324 0)
(-0.165674 -0.0761009 0)
(-0.14472 -0.0743416 0)
(-0.122322 -0.0697322 0)
(-0.0994365 -0.0625145 0)
(-0.0771723 -0.0532169 0)
(-0.0566495 -0.0426152 0)
(-0.0387996 -0.0316177 0)
(-0.02422 -0.021096 0)
(-0.0130654 -0.0117271 0)
(-0.00513228 -0.00389772 0)
(6.18499e-05 0.00228496 0)
(0.00306023 0.00691909 0)
(0.00444385 0.0102066 0)
(0.00465622 0.0123491 0)
(0.00413402 0.0134816 0)
(0.00312915 0.0135829 0)
(0.00198287 0.0124448 0)
(0.000853415 0.00958849 0)
(0.000134372 0.00430768 0)
(-0.000322113 0.00578918 0)
(-0.00198843 0.0133543 0)
(-0.0046847 0.0180161 0)
(-0.00774803 0.0208033 0)
(-0.0111566 0.0224231 0)
(-0.0146097 0.0233798 0)
(-0.0181783 0.0239626 0)
(-0.0217275 0.0243525 0)
(-0.0253354 0.0246361 0)
(-0.0289467 0.0248759 0)
(-0.0326517 0.02512 0)
(-0.0364775 0.0254387 0)
(-0.0405714 0.0259183 0)
(-0.0450664 0.0266683 0)
(-0.0501931 0.0278014 0)
(-0.0561808 0.029424 0)
(-0.0633163 0.031614 0)
(-0.0718609 0.0344056 0)
(-0.0820666 0.0377666 0)
(-0.0940929 0.0415781 0)
(-0.107988 0.0456142 0)
(-0.123614 0.0495356 0)
(-0.140638 0.0529063 0)
(-0.158533 0.0552432 0)
(-0.176654 0.0560911 0)
(-0.194327 0.0551019 0)
(-0.210955 0.0520855 0)
(-0.226077 0.0470184 0)
(-0.23939 0.0400175 0)
(-0.25073 0.0312974 0)
(-0.260046 0.0211283 0)
(-0.267349 0.00980301 0)
(-0.272672 -0.00238353 0)
(-0.276031 -0.0151405 0)
(-0.277396 -0.0281772 0)
(-0.276669 -0.0411904 0)
(-0.273676 -0.0538475 0)
(-0.268173 -0.0657679 0)
(-0.259863 -0.0765102 0)
(-0.248444 -0.0855688 0)
(-0.233669 -0.0923896 0)
(-0.215429 -0.0964097 0)
(-0.193854 -0.0971294 0)
(-0.169401 -0.0942114 0)
(-0.142919 -0.0875994 0)
(-0.115634 -0.0776227 0)
(-0.0890408 -0.0650426 0)
(-0.0646635 -0.0509892 0)
(-0.0437686 -0.0367618 0)
(-0.0270734 -0.0235507 0)
(-0.0146811 -0.0121833 0)
(-0.00615204 -0.00303415 0)
(-0.000803352 0.00390769 0)
(0.00215207 0.00888244 0)
(0.00336863 0.0121867 0)
(0.00345716 0.0140625 0)
(0.00280624 0.0145699 0)
(0.00185019 0.0135468 0)
(0.000814617 0.0105137 0)
(0.000130251 0.00473494 0)
(-0.000343728 0.00684399 0)
(-0.00211282 0.0156571 0)
(-0.00496551 0.0210128 0)
(-0.00819658 0.0241571 0)
(-0.011785 0.0259533 0)
(-0.0154146 0.0269908 0)
(-0.0191657 0.0276138 0)
(-0.0229008 0.0280293 0)
(-0.0267141 0.0283485 0)
(-0.0305641 0.0286573 0)
(-0.0345747 0.0290402 0)
(-0.0388141 0.0296118 0)
(-0.0434907 0.0305124 0)
(-0.0488063 0.0319044 0)
(-0.0550707 0.0339475 0)
(-0.062587 0.0367783 0)
(-0.0717039 0.0404803 0)
(-0.0827109 0.0450561 0)
(-0.0958368 0.0503942 0)
(-0.111139 0.0562364 0)
(-0.128474 0.0621614 0)
(-0.147425 0.0676003 0)
(-0.167346 0.0719035 0)
(-0.187431 0.0744503 0)
(-0.206866 0.0747665 0)
(-0.22495 0.0725991 0)
(-0.241191 0.0679267 0)
(-0.255314 0.0609153 0)
(-0.267252 0.0518529 0)
(-0.277085 0.0410838 0)
(-0.284988 0.0289567 0)
(-0.291171 0.0157929 0)
(-0.295835 0.00187203 0)
(-0.299127 -0.012567 0)
(-0.301111 -0.0273127 0)
(-0.301746 -0.042159 0)
(-0.300873 -0.0568775 0)
(-0.298197 -0.0711859 0)
(-0.293306 -0.0847166 0)
(-0.28568 -0.0969902 0)
(-0.274755 -0.107404 0)
(-0.259996 -0.115244 0)
(-0.241026 -0.119739 0)
(-0.217772 -0.120159 0)
(-0.190619 -0.11597 0)
(-0.160533 -0.107027 0)
(-0.129076 -0.0937502 0)
(-0.0982503 -0.0772198 0)
(-0.0701527 -0.0590681 0)
(-0.0464695 -0.0411458 0)
(-0.0280764 -0.0250372 0)
(-0.014898 -0.0117014 0)
(-0.00622143 -0.00140916 0)
(-0.00103041 0.00605325 0)
(0.00161173 0.0110894 0)
(0.00256106 0.0140934 0)
(0.00240074 0.0152542 0)
(0.00169996 0.014499 0)
(0.00077945 0.0113791 0)
(0.000128943 0.00515125 0)
(-0.000362994 0.00796075 0)
(-0.00222269 0.0180858 0)
(-0.00521351 0.0241648 0)
(-0.00859388 0.0276775 0)
(-0.0123441 0.0296542 0)
(-0.0161357 0.0307753 0)
(-0.0200588 0.0314454 0)
(-0.0239776 0.0319021 0)
(-0.0280057 0.0322895 0)
(-0.0321232 0.0327277 0)
(-0.0364966 0.0333522 0)
(-0.0412466 0.0343369 0)
(-0.0466539 0.0358895 0)
(-0.0529973 0.0382329 0)
(-0.0606659 0.0415724 0)
(-0.0700243 0.0460591 0)
(-0.0814504 0.051749 0)
(-0.0952007 0.0585564 0)
(-0.111385 0.0662072 0)
(-0.129832 0.0742046 0)
(-0.150074 0.081841 0)
(-0.171327 0.0882769 0)
(-0.192624 0.0926923 0)
(-0.21298 0.0944535 0)
(-0.231579 0.0932274 0)
(-0.247873 0.0889977 0)
(-0.261618 0.0820042 0)
(-0.272831 0.0726461 0)
(-0.281732 0.0613861 0)
(-0.288652 0.0486757 0)
(-0.293977 0.034908 0)
(-0.298077 0.0203952 0)
(-0.30128 0.00536714 0)
(-0.303832 -0.0100178 0)
(-0.305883 -0.0256523 0)
(-0.307471 -0.0414542 0)
(-0.308503 -0.0573354 0)
(-0.308733 -0.0731645 0)
(-0.307752 -0.0887248 0)
(-0.304969 -0.103668 0)
(-0.299631 -0.117469 0)
(-0.290864 -0.129402 0)
(-0.277776 -0.138538 0)
(-0.259618 -0.143809 0)
(-0.236002 -0.144144 0)
(-0.207154 -0.138699 0)
(-0.174128 -0.127159 0)
(-0.138881 -0.110047 0)
(-0.104086 -0.088881 0)
(-0.0725829 -0.0660183 0)
(-0.0466105 -0.0440579 0)
(-0.0271284 -0.0250521 0)
(-0.013791 -0.00999775 0)
(-0.00543828 0.00108096 0)
(-0.00078254 0.00866364 0)
(0.00137315 0.0133475 0)
(0.00188932 0.015516 0)
(0.00153049 0.015248 0)
(0.000751814 0.0121692 0)
(0.000132348 0.00555796 0)
(-0.000378815 0.0091302 0)
(-0.00231494 0.0206223 0)
(-0.00542437 0.027451 0)
(-0.00893493 0.0313433 0)
(-0.0128289 0.0335067 0)
(-0.0167686 0.0347182 0)
(-0.0208547 0.0354482 0)
(-0.0249572 0.0359717 0)
(-0.0292138 0.0364754 0)
(-0.0336339 0.0371275 0)
(-0.038436 0.0381304 0)
(-0.0438037 0.0397328 0)
(-0.0500967 0.0422205 0)
(-0.0576708 0.045877 0)
(-0.0669809 0.0509384 0)
(-0.0784192 0.057535 0)
(-0.0923297 0.0656335 0)
(-0.108839 0.0749674 0)
(-0.127811 0.0849874 0)
(-0.148717 0.0948528 0)
(-0.170681 0.103523 0)
(-0.192566 0.109941 0)
(-0.21322 0.113268 0)
(-0.23168 0.113053 0)
(-0.247339 0.109273 0)
(-0.259965 0.102251 0)
(-0.269666 0.0925267 0)
(-0.276785 0.0807187 0)
(-0.281806 0.0674184 0)
(-0.285248 0.0531255 0)
(-0.287615 0.0382198 0)
(-0.289341 0.0229603 0)
(-0.290781 0.00750014 0)
(-0.292203 -0.00809152 0)
(-0.293793 -0.0238062 0)
(-0.295646 -0.0396728 0)
(-0.297765 -0.0557325 0)
(-0.300034 -0.0720095 0)
(-0.302183 -0.0884707 0)
(-0.303747 -0.104974 0)
(-0.304028 -0.121203 0)
(-0.302072 -0.136595 0)
(-0.296703 -0.150285 0)
(-0.286622 -0.161082 0)
(-0.270611 -0.167527 0)
(-0.247844 -0.168081 0)
(-0.218267 -0.161444 0)
(-0.182972 -0.147038 0)
(-0.144374 -0.125501 0)
(-0.105988 -0.0989875 0)
(-0.0716163 -0.0708776 0)
(-0.0441024 -0.0447695 0)
(-0.0243793 -0.0231723 0)
(-0.011578 -0.00691414 0)
(-0.00407619 0.00437434 0)
(-0.000225611 0.0115275 0)
(0.00122768 0.0152087 0)
(0.00133143 0.0157388 0)
(0.000732267 0.0128795 0)
(0.00014155 0.00596864 0)
(-0.000391655 0.0103447 0)
(-0.00239014 0.0232522 0)
(-0.00559833 0.0308555 0)
(-0.00922018 0.0351405 0)
(-0.0132403 0.0375001 0)
(-0.0173149 0.0388139 0)
(-0.0215567 0.0396245 0)
(-0.0258455 0.0402527 0)
(-0.0303477 0.0409401 0)
(-0.0351103 0.0419182 0)
(-0.0404109 0.0434736 0)
(-0.0465029 0.0459428 0)
(-0.0538242 0.0496929 0)
(-0.0627953 0.0550549 0)
(-0.0739042 0.0622606 0)
(-0.087512 0.0713557 0)
(-0.103837 0.0821214 0)
(-0.122758 0.0939898 0)
(-0.143771 0.106021 0)
(-0.165918 0.116975 0)
(-0.187948 0.125534 0)
(-0.208528 0.130598 0)
(-0.226554 0.131538 0)
(-0.241326 0.128284 0)
(-0.252627 0.121239 0)
(-0.260639 0.111098 0)
(-0.26584 0.0986647 0)
(-0.268844 0.0846976 0)
(-0.270298 0.069824 0)
(-0.270782 0.0545048 0)
(-0.270781 0.0390399 0)
(-0.270664 0.0235948 0)
(-0.270708 0.00823372 0)
(-0.271107 -0.00705083 0)
(-0.27201 -0.0223158 0)
(-0.273523 -0.037653 0)
(-0.275724 -0.0531778 0)
(-0.278638 -0.0690174 0)
(-0.28221 -0.0852874 0)
(-0.286241 -0.102054 0)
(-0.290319 -0.119268 0)
(-0.293734 -0.136676 0)
(-0.295416 -0.153706 0)
(-0.29392 -0.169361 0)
(-0.287526 -0.182151 0)
(-0.274469 -0.190144 0)
(-0.253358 -0.191173 0)
(-0.223735 -0.183328 0)
(-0.186664 -0.16565 0)
(-0.145098 -0.138968 0)
(-0.103603 -0.106352 0)
(-0.0671458 -0.0726466 0)
(-0.0391505 -0.0426651 0)
(-0.0201912 -0.0191797 0)
(-0.00867441 -0.0025553 0)
(-0.00242989 0.00819526 0)
(0.000336181 0.0141095 0)
(0.00107818 0.0158783 0)
(0.000717496 0.0134879 0)
(0.000157594 0.00639056 0)
(-0.000400207 0.011591 0)
(-0.00244437 0.025952 0)
(-0.00572952 0.034352 0)
(-0.00944214 0.0390432 0)
(-0.0135696 0.0416109 0)
(-0.017765 0.0430431 0)
(-0.0221539 0.0439622 0)
(-0.0266306 0.044744 0)
(-0.0313944 0.0456995 0)
(-0.0365366 0.0471397 0)
(-0.0423992 0.049451 0)
(-0.049306 0.0530649 0)
(-0.0577623 0.0584214 0)
(-0.0682254 0.0658678 0)
(-0.081164 0.0755711 0)
(-0.0968266 0.0873986 0)
(-0.115201 0.100824 0)
(-0.135809 0.114855 0)
(-0.157717 0.128093 0)
(-0.179581 0.138949 0)
(-0.199941 0.146011 0)
(-0.217521 0.148388 0)
(-0.231523 0.145895 0)
(-0.241699 0.138977 0)
(-0.248309 0.12849 0)
(-0.251945 0.115443 0)
(-0.253368 0.100792 0)
(-0.253328 0.0853065 0)
(-0.252482 0.0695345 0)
(-0.251321 0.0538092 0)
(-0.250186 0.0382976 0)
(-0.249283 0.0230517 0)
(-0.24873 0.00805534 0)
(-0.248599 -0.00674586 0)
(-0.248951 -0.0214281 0)
(-0.24986 -0.0360868 0)
(-0.251428 -0.0508406 0)
(-0.253779 -0.065839 0)
(-0.257038 -0.0812616 0)
(-0.261281 -0.0973072 0)
(-0.266465 -0.11415 0)
(-0.272315 -0.131869 0)
(-0.278203 -0.150311 0)
(-0.283022 -0.168944 0)
(-0.285124 -0.186654 0)
(-0.282374 -0.201635 0)
(-0.272415 -0.21137 0)
(-0.253193 -0.212929 0)
(-0.223739 -0.203587 0)
(-0.185071 -0.181942 0)
(-0.140794 -0.149143 0)
(-0.0968029 -0.109682 0)
(-0.0593787 -0.0703996 0)
(-0.0322652 -0.0373789 0)
(-0.0151588 -0.0132104 0)
(-0.00553985 0.00273179 0)
(-0.00091818 0.0119045 0)
(0.000721868 0.0155366 0)
(0.000695241 0.0139643 0)
(0.000179954 0.00683528 0)
(-0.000404986 0.0128616 0)
(-0.00247802 0.028708 0)
(-0.00581724 0.0379267 0)
(-0.0095994 0.0430402 0)
(-0.0138145 0.0458322 0)
(-0.018116 0.0474051 0)
(-0.0226429 0.048469 0)
(-0.027308 0.0494666 0)
(-0.0323472 0.050793 0)
(-0.0379005 0.0528553 0)
(-0.0443744 0.0561508 0)
(-0.0521552 0.0612035 0)
(-0.0617927 0.0685016 0)
(-0.0737371 0.0783541 0)
(-0.0883694 0.0907749 0)
(-0.105737 0.105335 0)
(-0.125504 0.121076 0)
(-0.146786 0.136504 0)
(-0.16826 0.149795 0)
(-0.188353 0.159182 0)
(-0.20565 0.163428 0)
(-0.219193 0.162118 0)
(-0.228679 0.155667 0)
(-0.234389 0.145066 0)
(-0.237031 0.131549 0)
(-0.237488 0.116297 0)
(-0.236639 0.100254 0)
(-0.2352 0.0840643 0)
(-0.233679 0.0680887 0)
(-0.232365 0.0524754 0)
(-0.231382 0.0372405 0)
(-0.230735 0.0223351 0)
(-0.230382 0.00769263 0)
(-0.230267 -0.00674859 0)
(-0.230368 -0.0210407 0)
(-0.23071 -0.0352356 0)
(-0.231386 -0.0494006 0)
(-0.232553 -0.0636405 0)
(-0.234433 -0.0781141 0)
(-0.237283 -0.0930497 0)
(-0.241345 -0.108733 0)
(-0.246759 -0.125474 0)
(-0.253435 -0.143503 0)
(-0.260872 -0.162824 0)
(-0.267984 -0.182962 0)
(-0.272962 -0.202717 0)
(-0.27328 -0.219901 0)
(-0.265974 -0.231332 0)
(-0.248277 -0.233098 0)
(-0.218686 -0.221531 0)
(-0.178218 -0.19473 0)
(-0.131402 -0.154562 0)
(-0.0857585 -0.107675 0)
(-0.0489424 -0.0635044 0)
(-0.0242849 -0.0290727 0)
(-0.00997728 -0.00574199 0)
(-0.00273586 0.00812835 0)
(0.00018267 0.0145078 0)
(0.000642381 0.0142434 0)
(0.000206494 0.00730318 0)
(-0.000404339 0.0141386 0)
(-0.00248594 0.0314894 0)
(-0.00585339 0.0415452 0)
(-0.00968104 0.0470977 0)
(-0.0139614 0.0501323 0)
(-0.018351 0.0518718 0)
(-0.0230025 0.0531229 0)
(-0.0278507 0.0544072 0)
(-0.0331697 0.0562193 0)
(-0.0391496 0.0590755 0)
(-0.0462554 0.0635879 0)
(-0.0549199 0.0703571 0)
(-0.0657023 0.0798756 0)
(-0.0789914 0.0923377 0)
(-0.0950078 0.107498 0)
(-0.113522 0.124513 0)
(-0.133831 0.141903 0)
(-0.154673 0.157678 0)
(-0.174477 0.169736 0)
(-0.191675 0.176396 0)
(-0.205147 0.17688 0)
(-0.21444 0.171438 0)
(-0.219815 0.161133 0)
(-0.222032 0.147419 0)
(-0.222107 0.13174 0)
(-0.221029 0.115261 0)
(-0.219606 0.0987519 0)
(-0.218361 0.0826099 0)
(-0.217552 0.0669546 0)
(-0.217218 0.0517409 0)
(-0.217268 0.03686 0)
(-0.21754 0.0222038 0)
(-0.217875 0.0076992 0)
(-0.218137 -0.00668571 0)
(-0.218248 -0.0209491 0)
(-0.218197 -0.0350743 0)
(-0.218049 -0.0490512 0)
(-0.217951 -0.0629045 0)
(-0.218141 -0.0767183 0)
(-0.218938 -0.0906698 0)
(-0.220732 -0.105042 0)
(-0.223927 -0.120235 0)
(-0.228852 -0.136712 0)
(-0.2356 -0.154907 0)
(-0.243813 -0.174986 0)
(-0.252428 -0.196573 0)
(-0.259474 -0.218314 0)
(-0.262034 -0.237591 0)
(-0.256524 -0.250337 0)
(-0.239492 -0.25152 0)
(-0.20895 -0.236327 0)
(-0.16619 -0.202582 0)
(-0.117034 -0.153561 0)
(-0.0710968 -0.0992295 0)
(-0.0369368 -0.0520183 0)
(-0.0162613 -0.0184059 0)
(-0.00538746 0.00213287 0)
(-0.000653055 0.0124914 0)
(0.000522465 0.0142216 0)
(0.000232654 0.00778574 0)