/*--------------------------------*- C++ -*----------------------------------*\
| =========                 |                                                 |
| \\      /  F ield         | OpenFOAM: The Open Source CFD Toolbox           |
|  \\    /   O peration     | Version:  2406                                  |
|   \\  /    A nd           | Website:  www.openfoam.com                      |
|    \\/     M anipulation  |                                                 |
\*---------------------------------------------------------------------------*/
FoamFile
{
    version     2.0;
    format      ascii;
    arch        "LSB;label=32;scalar=64";
    class       volVectorField;
    location    "45.55";
    object      U_0;
}
// * * * * * * * * * * * * * * * * * * * * * * * * * * * * * * * * * * * * * //

dimensions      [0 1 -1 0 0 0 0];

internalField   nonuniform List<vector> 
14400
(
(-6.77504e-06 6.66191e-06 0)
(1.62098e-05 -1.17081e-05 0)
(0.000125993 -3.53854e-05 0)
(0.000317677 -5.44917e-05 0)
(0.000571136 -6.76303e-05 0)
(0.000863709 -7.4634e-05 0)
(0.00117284 -7.61266e-05 0)
(0.00147864 -7.303e-05 0)
(0.00176505 -6.64648e-05 0)
(0.00202041 -5.76224e-05 0)
(0.00223763 -4.76644e-05 0)
(0.00241395 -3.76285e-05 0)
(0.00255034 -2.83557e-05 0)
(0.00265064 -2.04453e-05 0)
(0.00272066 -1.42363e-05 0)
(0.00276709 -9.80745e-06 0)
(0.00279674 -7.05156e-06 0)
(0.00281551 -5.79103e-06 0)
(0.00282776 -5.58687e-06 0)
(0.00283615 -5.93095e-06 0)
(0.00284124 -6.30593e-06 0)
(0.00284166 -6.06616e-06 0)
(0.00283461 -4.69723e-06 0)
(0.00281584 -2.13866e-06 0)
(0.00277992 1.70703e-06 0)
(0.00272097 6.92999e-06 0)
(0.00263284 1.35618e-05 0)
(0.00250929 2.16105e-05 0)
(0.002344 3.10882e-05 0)
(0.00213058 4.20245e-05 0)
(0.00186251 5.4468e-05 0)
(0.00153312 6.84786e-05 0)
(0.00113554 8.41133e-05 0)
(0.000662819 0.000101411 0)
(0.000108041 0.000120381 0)
(-0.000535532 0.000140988 0)
(-0.00127423 0.000163151 0)
(-0.00211373 0.000186734 0)
(-0.00305886 0.000211545 0)
(-0.00411325 0.000237335 0)
(-0.00527916 0.000263797 0)
(-0.00655718 0.00029057 0)
(-0.00794603 0.00031724 0)
(-0.00944234 0.000343347 0)
(-0.0110405 0.000368392 0)
(-0.0127325 0.000391844 0)
(-0.0145079 0.000413149 0)
(-0.0163539 0.000431743 0)
(-0.0182553 0.000447053 0)
(-0.0201944 0.000458514 0)
(-0.0221515 0.00046557 0)
(-0.024105 0.000467688 0)
(-0.0260314 0.000464359 0)
(-0.0279057 0.000455112 0)
(-0.0297019 0.00043952 0)
(-0.0313929 0.000417204 0)
(-0.0329513 0.00038785 0)
(-0.0343494 0.000351227 0)
(-0.0355598 0.000307183 0)
(-0.036556 0.000255561 0)
(-0.0373135 0.000196815 0)
(-0.037809 0.000133157 0)
(-0.0380177 6.44654e-05 0)
(-0.0379208 -1.29118e-05 0)
(-0.0375075 -9.60594e-05 0)
(-0.0367653 -0.00018256 0)
(-0.0356878 -0.000271202 0)
(-0.0342742 -0.000360499 0)
(-0.0325298 -0.00044869 0)
(-0.0304664 -0.000533823 0)
(-0.0281025 -0.000613803 0)
(-0.0254635 -0.000686462 0)
(-0.022582 -0.00074965 0)
(-0.0194968 -0.000801325 0)
(-0.0162531 -0.000839668 0)
(-0.012901 -0.000863178 0)
(-0.00949498 -0.000870782 0)
(-0.00609182 -0.000861915 0)
(-0.00274943 -0.000836592 0)
(0.000475162 -0.000795437 0)
(0.00352761 -0.000739685 0)
(0.00635814 -0.00067114 0)
(0.00892327 -0.000592092 0)
(0.0111873 -0.000505204 0)
(0.0131234 -0.000413368 0)
(0.0147144 -0.000319543 0)
(0.0159534 -0.000226596 0)
(0.0168429 -0.000137131 0)
(0.017395 -5.32182e-05 0)
(0.0176315 2.2686e-05 0)
(0.0175773 8.68076e-05 0)
(0.017263 0.000141126 0)
(0.0167277 0.000186967 0)
(0.0160101 0.000223129 0)
(0.0151481 0.000249248 0)
(0.014179 0.000266116 0)
(0.013138 0.000274776 0)
(0.0120572 0.000276347 0)
(0.0109648 0.000272007 0)
(0.00988477 0.000262928 0)
(0.00883648 0.000250229 0)
(0.00783504 0.000234942 0)
(0.00689147 0.000217987 0)
(0.00601303 0.000200158 0)
(0.0052038 0.000182122 0)
(0.00446505 0.000164423 0)
(0.00379584 0.000147489 0)
(0.00319341 0.000131644 0)
(0.0026537 0.00011711 0)
(0.00217176 0.000104 0)
(0.00174231 9.23033e-05 0)
(0.00136029 8.1849e-05 0)
(0.00102162 7.22709e-05 0)
(0.000724003 6.29758e-05 0)
(0.000467766 5.314e-05 0)
(0.000256505 4.18092e-05 0)
(9.71209e-05 2.81713e-05 0)
(-1.70882e-06 1.20291e-05 0)
(-3.61639e-05 -4.43537e-06 0)
(-1.3558e-05 -1.35742e-05 0)
(1.05433e-05 -1.53381e-05 0)
(0.000155495 -0.000159968 0)
(0.000483643 -0.000334954 0)
(0.000988031 -0.00048058 0)
(0.0016227 -0.000582709 0)
(0.00234155 -0.000638424 0)
(0.00309572 -0.000650724 0)
(0.00384071 -0.000625931 0)
(0.0045395 -0.0005723 0)
(0.00516426 -0.000498942 0)
(0.005697 -0.00041494 0)
(0.00612924 -0.000328557 0)
(0.00646082 -0.000246633 0)
(0.00669825 -0.000174171 0)
(0.00685257 -0.000114155 0)
(0.00693714 -6.75624e-05 0)
(0.00696546 -3.35815e-05 0)
(0.00694937 -1.00049e-05 0)
(0.00689749 6.5572e-06 0)
(0.00681418 2.01707e-05 0)
(0.00669918 3.50158e-05 0)
(0.00654762 5.50852e-05 0)
(0.00635025 8.37298e-05 0)
(0.00609453 0.00012325 0)
(0.00576562 0.000175218 0)
(0.00534702 0.00024055 0)
(0.00482136 0.000319678 0)
(0.00417085 0.000412778 0)
(0.00337754 0.000519956 0)
(0.00242348 0.000641354 0)
(0.00129075 0.000777151 0)
(-3.83792e-05 0.00092751 0)
(-0.00158127 0.00109245 0)
(-0.00335449 0.00127175 0)
(-0.00537338 0.0014648 0)
(-0.00765139 0.00167055 0)
(-0.0101995 0.00188745 0)
(-0.0130254 0.00211341 0)
(-0.0161329 0.00234578 0)
(-0.0195214 0.00258137 0)
(-0.023185 0.0028165 0)
(-0.0271123 0.00304702 0)
(-0.0312859 0.0032684 0)
(-0.0356825 0.00347584 0)
(-0.0402725 0.00366435 0)
(-0.0450206 0.00382891 0)
(-0.0498858 0.00396453 0)
(-0.0548224 0.00406644 0)
(-0.05978 0.00413014 0)
(-0.0647049 0.00415156 0)
(-0.0695407 0.0041271 0)
(-0.0742292 0.00405373 0)
(-0.0787113 0.00392904 0)
(-0.0829279 0.00375128 0)
(-0.0868209 0.00351939 0)
(-0.090334 0.00323305 0)
(-0.0934132 0.00289266 0)
(-0.0960077 0.00249943 0)
(-0.0980709 0.0020554 0)
(-0.0995604 0.00156339 0)
(-0.100438 0.00102736 0)
(-0.100675 0.000453447 0)
(-0.100247 -0.000152199 0)
(-0.0991325 -0.000786973 0)
(-0.0973215 -0.00144174 0)
(-0.0948126 -0.00210736 0)
(-0.0916122 -0.00277389 0)
(-0.0877358 -0.00343067 0)
(-0.0832083 -0.00406626 0)
(-0.0780647 -0.00466865 0)
(-0.0723497 -0.00522548 0)
(-0.0661186 -0.00572441 0)
(-0.0594361 -0.00615342 0)
(-0.0523765 -0.00650131 0)
(-0.0450225 -0.00675812 0)
(-0.0374644 -0.00691563 0)
(-0.0297983 -0.0069678 0)
(-0.0221249 -0.00691124 0)
(-0.0145468 -0.00674548 0)
(-0.00716657 -0.00647325 0)
(-8.42452e-05 -0.00610054 0)
(0.00660532 -0.00563654 0)
(0.012815 -0.00509337 0)
(0.0184679 -0.00448571 0)
(0.0234995 -0.00383018 0)
(0.0278595 -0.00314467 0)
(0.0315134 -0.00244766 0)
(0.0344433 -0.00175731 0)
(0.036648 -0.00109081 0)
(0.0381421 -0.000463899 0)
(0.0389568 0.000108456 0)
(0.0391394 0.000618639 0)
(0.0387464 0.00106076 0)
(0.037843 0.00142944 0)
(0.0365027 0.00172267 0)
(0.034803 0.00194201 0)
(0.0328215 0.0020915 0)
(0.030634 0.0021771 0)
(0.0283119 0.0022062 0)
(0.0259202 0.00218705 0)
(0.0235161 0.00212829 0)
(0.0211479 0.00203849 0)
(0.018855 0.00192578 0)
(0.0166676 0.00179761 0)
(0.0146074 0.00166055 0)
(0.0126885 0.00152023 0)
(0.0109182 0.0013813 0)
(0.00929781 0.00124743 0)
(0.00782443 0.0011213 0)
(0.00649168 0.00100455 0)
(0.00529127 0.000897616 0)
(0.00421451 0.000799549 0)
(0.00325405 0.000707796 0)
(0.00240569 0.0006181 0)
(0.00167006 0.000524681 0)
(0.00105372 0.000421131 0)
(0.000568767 0.000302507 0)
(0.000228754 0.000169764 0)
(4.30879e-05 3.77004e-05 0)
(-3.332e-06 -3.52101e-05 0)
(3.24653e-05 -0.000119162 0)
(0.000320452 -0.000483905 0)
(0.000851161 -0.000868904 0)
(0.00161222 -0.00118768 0)
(0.00253547 -0.00141183 0)
(0.00356237 -0.0015335 0)
(0.00462911 -0.00155755 0)
(0.00567669 -0.00149678 0)
(0.0066553 -0.00136882 0)
(0.00752673 -0.00119368 0)
(0.00826532 -0.000991574 0)
(0.00885767 -0.000781108 0)
(0.00930129 -0.000577845 0)
(0.00960234 -0.000393323 0)
(0.00977301 -0.000234555 0)
(0.00982853 -0.000103993 0)
(0.00978433 1.39549e-07 0)
(0.00965345 8.31391e-05 0)
(0.00944458 0.000152823 0)
(0.00916051 0.000218584 0)
(0.00879751 0.000290195 0)
(0.0083454 0.000376757 0)
(0.00778815 0.000486018 0)
(0.00710493 0.000624043 0)
(0.0062715 0.000794943 0)
(0.00526127 0.00100115 0)
(0.00404641 0.00124387 0)
(0.00259858 0.00152354 0)
(0.000889483 0.00184023 0)
(-0.00110867 0.00219381 0)
(-0.00342281 0.00258395 0)
(-0.00607846 0.00300994 0)
(-0.00909905 0.00347044 0)
(-0.0125051 0.00396319 0)
(-0.0163131 0.00448477 0)
(-0.0205347 0.00503047 0)
(-0.0251752 0.00559418 0)
(-0.0302328 0.0061684 0)
(-0.0356978 0.00674426 0)
(-0.0415513 0.00731175 0)
(-0.0477655 0.00785983 0)
(-0.0543032 0.00837674 0)
(-0.0611178 0.00885031 0)
(-0.0681544 0.00926833 0)
(-0.0753503 0.00961886 0)
(-0.0826364 0.00989064 0)
(-0.0899383 0.0100734 0)
(-0.0971785 0.0101581 0)
(-0.104277 0.0101373 0)
(-0.111154 0.0100051 0)
(-0.117732 0.00975729 0)
(-0.123932 0.00939165 0)
(-0.129684 0.00890747 0)
(-0.134919 0.00830579 0)
(-0.139574 0.00758917 0)
(-0.143593 0.00676167 0)
(-0.146925 0.0058287 0)
(-0.149525 0.00479697 0)
(-0.151356 0.00367447 0)
(-0.152388 0.00247042 0)
(-0.152595 0.00119488 0)
(-0.151959 -0.000141132 0)
(-0.150473 -0.00152319 0)
(-0.148133 -0.00293643 0)
(-0.144943 -0.00436662 0)
(-0.140913 -0.0057972 0)
(-0.136064 -0.00720985 0)
(-0.130423 -0.00858506 0)
(-0.124027 -0.00990234 0)
(-0.11692 -0.0111405 0)
(-0.109156 -0.0122779 0)
(-0.100797 -0.013293 0)
(-0.091915 -0.0141651 0)
(-0.0825907 -0.0148745 0)
(-0.0729123 -0.0154036 0)
(-0.0629758 -0.0157377 0)
(-0.0528837 -0.0158654 0)
(-0.0427435 -0.0157797 0)
(-0.0326664 -0.0154783 0)
(-0.0227649 -0.0149644 0)
(-0.0131512 -0.0142464 0)
(-0.0039343 -0.0133386 0)
(0.00478188 -0.0122606 0)
(0.0129012 -0.0110367 0)
(0.0203378 -0.00969571 0)
(0.0270177 -0.00826931 0)
(0.0328814 -0.00679146 0)
(0.0378852 -0.00529701 0)
(0.0420021 -0.00382044 0)
(0.0452228 -0.0023944 0)
(0.0475572 -0.00104774 0)
(0.049033 0.000193195 0)
(0.0496925 0.00130598 0)
(0.0495939 0.00227496 0)
(0.0488101 0.00309053 0)
(0.0474239 0.00374842 0)
(0.0455258 0.00424997 0)
(0.0432101 0.00460165 0)
(0.0405719 0.00481436 0)
(0.0377036 0.0049024 0)
(0.034692 0.00488248 0)
(0.0316157 0.00477263 0)
(0.0285431 0.00459117 0)
(0.0255319 0.00435591 0)
(0.0226279 0.0040834 0)
(0.0198658 0.00378853 0)
(0.0172696 0.00348413 0)
(0.0148538 0.00318082 0)
(0.012625 0.00288678 0)
(0.0105832 0.00260756 0)
(0.00872432 0.00234574 0)
(0.00704191 0.00210051 0)
(0.00552985 0.00186739 0)
(0.00418462 0.00163811 0)
(0.00300756 0.00140134 0)
(0.00200613 0.00114466 0)
(0.00119362 0.000858862 0)
(0.000583411 0.000545853 0)
(0.000195802 0.00023134 0)
(1.60108e-05 7.26479e-06 0)
(4.98578e-05 -0.000299159 0)
(0.000458607 -0.000977299 0)
(0.00116092 -0.00162816 0)
(0.00213168 -0.00215642 0)
(0.00327811 -0.00252329 0)
(0.00453078 -0.00271712 0)
(0.00581508 -0.00274548 0)
(0.00706264 -0.00262904 0)
(0.00821575 -0.00239684 0)
(0.00922992 -0.00208209 0)
(0.0100747 -0.00171853 0)
(0.0107335 -0.00133733 0)
(0.0112015 -0.000964664 0)
(0.0114835 -0.000619948 0)
(0.0115909 -0.000314996 0)
(0.0115378 -5.38574e-05 0)
(0.0113383 0.000166643 0)
(0.0110033 0.000355778 0)
(0.0105379 0.000527294 0)
(0.00994032 0.00069756 0)
(0.00920083 0.000883682 0)
(0.00830195 0.00110172 0)
(0.00721934 0.00136538 0)
(0.00592317 0.00168521 0)
(0.00437965 0.00206845 0)
(0.00255256 0.00251937 0)
(0.000404593 0.00303996 0)
(-0.00210152 0.00363062 0)
(-0.00500211 0.0042907 0)
(-0.00833165 0.00501875 0)
(-0.0121218 0.00581239 0)
(-0.0164004 0.00666799 0)
(-0.0211898 0.0075802 0)
(-0.0265059 0.00854154 0)
(-0.0323562 0.00954208 0)
(-0.0387385 0.0105693 0)
(-0.0456398 0.011608 0)
(-0.0530349 0.0126408 0)
(-0.0608864 0.013648 0)
(-0.0691443 0.0146088 0)
(-0.0777467 0.0155011 0)
(-0.0866207 0.0163029 0)
(-0.0956846 0.0169929 0)
(-0.104849 0.0175508 0)
(-0.11402 0.0179586 0)
(-0.123103 0.0182009 0)
(-0.131999 0.0182652 0)
(-0.140617 0.0181425 0)
(-0.148866 0.0178269 0)
(-0.156663 0.017316 0)
(-0.163931 0.0166103 0)
(-0.170602 0.0157134 0)
(-0.176614 0.0146309 0)
(-0.181914 0.0133709 0)
(-0.186458 0.011943 0)
(-0.190207 0.0103584 0)
(-0.19313 0.00862956 0)
(-0.195204 0.00677008 0)
(-0.196409 0.00479451 0)
(-0.196732 0.00271849 0)
(-0.196166 0.000558678 0)
(-0.194707 -0.00166754 0)
(-0.192356 -0.003942 0)
(-0.18912 -0.00624273 0)
(-0.185011 -0.00854785 0)
(-0.180045 -0.0108341 0)
(-0.174243 -0.0130764 0)
(-0.167632 -0.0152481 0)
(-0.160248 -0.0173213 0)
(-0.152131 -0.0192665 0)
(-0.143329 -0.021054 0)
(-0.133898 -0.0226536 0)
(-0.123905 -0.024036 0)
(-0.11342 -0.025173 0)
(-0.102526 -0.0260391 0)
(-0.091311 -0.0266121 0)
(-0.0798727 -0.0268743 0)
(-0.0683136 -0.0268136 0)
(-0.0567416 -0.0264245 0)
(-0.0452681 -0.0257084 0)
(-0.034006 -0.0246748 0)
(-0.0230675 -0.0233406 0)
(-0.0125621 -0.0217307 0)
(-0.00259401 -0.0198773 0)
(0.00673968 -0.0178189 0)
(0.0153514 -0.0155992 0)
(0.023165 -0.0132659 0)
(0.0301172 -0.0108692 0)
(0.0361591 -0.00845992 0)
(0.0412576 -0.00608811 0)
(0.0453963 -0.00380126 0)
(0.0485747 -0.00164397 0)
(0.05081 0.000344815 0)
(0.0521373 0.00213355 0)
(0.0526077 0.00369802 0)
(0.052287 0.00502183 0)
(0.0512545 0.00609709 0)
(0.0496 0.00692448 0)
(0.0474209 0.00751262 0)
(0.0448186 0.00787724 0)
(0.0418945 0.00803983 0)
(0.0387466 0.0080261 0)
(0.0354664 0.00786438 0)
(0.0321359 0.00758394 0)
(0.0288257 0.00721359 0)
(0.0255943 0.00678042 0)
(0.0224873 0.00630887 0)
(0.0195385 0.00581999 0)
(0.0167703 0.00533084 0)
(0.014196 0.00485386 0)
(0.0118215 0.00439625 0)
(0.00964813 0.00395928 0)
(0.00767501 0.00353785 0)
(0.00590227 0.00312052 0)
(0.00433352 0.00269069 0)
(0.00297778 0.00222984 0)
(0.00185014 0.00172358 0)
(0.00096571 0.00117224 0)
(0.000363706 0.000605963 0)
(3.73226e-05 0.000129078 0)
(6.2859e-05 -0.000538571 0)
(0.000566051 -0.00160305 0)
(0.0014061 -0.00255776 0)
(0.00254269 -0.00331127 0)
(0.00385811 -0.00382182 0)
(0.00527105 -0.004078 0)
(0.00669709 -0.0040925 0)
(0.0080607 -0.00389567 0)
(0.00929902 -0.00352939 0)
(0.010364 -0.00304136 0)
(0.0112229 -0.00247988 0)
(0.0118573 -0.00188942 0)
(0.012261 -0.00130711 0)
(0.0124374 -0.000760327 0)
(0.0123956 -0.000265405 0)
(0.0121471 0.000172618 0)
(0.011702 0.000559185 0)
(0.0110661 0.000908607 0)
(0.0102382 0.00124172 0)
(0.00920883 0.00158308 0)
(0.00795973 0.00195817 0)
(0.00646411 0.00239078 0)
(0.00468796 0.00290101 0)
(0.00259181 0.00350418 0)
(0.000132601 0.00421052 0)
(-0.00273439 0.00502572 0)
(-0.00605389 0.00595176 0)
(-0.00986902 0.0069878 0)
(-0.0142199 0.00813081 0)
(-0.0191421 0.00937571 0)
(-0.0246649 0.0107151 0)
(-0.0308095 0.0121387 0)
(-0.0375869 0.0136329 0)
(-0.0449961 0.0151802 0)
(-0.0530225 0.016759 0)
(-0.0616364 0.0183437 0)
(-0.0707923 0.0199055 0)
(-0.0804295 0.0214127 0)
(-0.0904724 0.022832 0)
(-0.100832 0.0241296 0)
(-0.111411 0.0252726 0)
(-0.122101 0.0262304 0)
(-0.132793 0.0269754 0)
(-0.143376 0.0274847 0)
(-0.153743 0.0277401 0)
(-0.16379 0.027729 0)
(-0.173424 0.027444 0)
(-0.18256 0.0268829 0)
(-0.191122 0.0260482 0)
(-0.199047 0.0249466 0)
(-0.20628 0.0235878 0)
(-0.212777 0.0219843 0)
(-0.218502 0.0201508 0)
(-0.223427 0.018103 0)
(-0.22753 0.015858 0)
(-0.230795 0.0134333 0)
(-0.23321 0.0108469 0)
(-0.234766 0.00811717 0)
(-0.235459 0.005263 0)
(-0.235286 0.00230368 0)
(-0.234245 -0.000740536 0)
(-0.232339 -0.00384839 0)
(-0.229569 -0.0069983 0)
(-0.225943 -0.0101662 0)
(-0.221467 -0.0133263 0)
(-0.216153 -0.0164508 0)
(-0.210015 -0.0195099 0)
(-0.203072 -0.0224718 0)
(-0.195349 -0.0253024 0)
(-0.186875 -0.0279657 0)
(-0.177687 -0.0304246 0)
(-0.16783 -0.0326411 0)
(-0.157357 -0.0345773 0)
(-0.14633 -0.0361966 0)
(-0.134819 -0.0374649 0)
(-0.122905 -0.0383515 0)
(-0.110678 -0.0388313 0)
(-0.0982326 -0.0388856 0)
(-0.0856745 -0.0385035 0)
(-0.0731127 -0.0376832 0)
(-0.0606599 -0.0364324 0)
(-0.0484302 -0.0347689 0)
(-0.0365367 -0.0327207 0)
(-0.0250889 -0.030325 0)
(-0.0141907 -0.0276276 0)
(-0.00393807 -0.0246818 0)
(0.00558256 -0.0215461 0)
(0.0142959 -0.0182832 0)
(0.0221391 -0.0149578 0)
(0.0290623 -0.0116347 0)
(0.0350298 -0.00837725 0)
(0.0400201 -0.00524569 0)
(0.0440268 -0.00229451 0)
(0.0470595 0.000427643 0)
(0.0491432 0.00287972 0)
(0.0503187 0.00502992 0)
(0.0506421 0.00685647 0)
(0.0501841 0.00834829 0)
(0.0490275 0.00950508 0)
(0.0472655 0.0103371 0)
(0.0449979 0.010864 0)
(0.0423276 0.0111138 0)
(0.0393568 0.0111203 0)
(0.0361831 0.0109214 0)
(0.0328963 0.0105569 0)
(0.029576 0.0100662 0)
(0.0262897 0.00948661 0)
(0.0230921 0.00885162 0)
(0.0200252 0.00818973 0)
(0.0171197 0.00752308 0)
(0.0143962 0.00686632 0)
(0.0118679 0.00622546 0)
(0.00954353 0.00559721 0)
(0.00743 0.00496898 0)
(0.00553591 0.00432043 0)
(0.00387414 0.00362739 0)
(0.00246411 0.00286896 0)
(0.00132596 0.0020391 0)
(0.000521948 0.00116192 0)
(5.70614e-05 0.000332151 0)
(7.24426e-05 -0.000823253 0)
(0.000647877 -0.002334 0)
(0.00159483 -0.00362461 0)
(0.00285761 -0.00461293 0)
(0.00429463 -0.00526028 0)
(0.00581161 -0.00556021 0)
(0.00731431 -0.00553412 0)
(0.00872087 -0.00522476 0)
(0.00996488 -0.00468895 0)
(0.0109967 -0.00399026 0)
(0.0117828 -0.00319238 0)
(0.0123048 -0.00235328 0)
(0.0125559 -0.00152079 0)
(0.0125379 -0.000729525 0)
(0.0122574 7.47788e-07 0)
(0.0117215 0.000665281 0)
(0.0109343 0.00127323 0)
(0.00989385 0.00184537 0)
(0.00859002 0.00241088 0)
(0.00700315 0.00300353 0)
(0.00510409 0.00365781 0)
(0.0028552 0.00440542 0)
(0.000212105 0.00527259 0)
(-0.00287401 0.00627871 0)
(-0.00645403 0.00743592 0)
(-0.0105786 0.00874982 0)
(-0.0152958 0.0102204 0)
(-0.0206492 0.0118432 0)
(-0.0266758 0.0136094 0)
(-0.0334033 0.0155065 0)
(-0.0408481 0.0175174 0)
(-0.0490128 0.0196198 0)
(-0.0578835 0.021786 0)
(-0.0674287 0.0239828 0)
(-0.0775981 0.0261716 0)
(-0.0883225 0.0283095 0)
(-0.0995154 0.0303509 0)
(-0.111075 0.0322488 0)
(-0.122887 0.0339573 0)
(-0.134832 0.0354332 0)
(-0.146783 0.036638 0)
(-0.158619 0.0375395 0)
(-0.170223 0.0381127 0)
(-0.181484 0.0383405 0)
(-0.192308 0.0382133 0)
(-0.20261 0.0377291 0)
(-0.212318 0.0368922 0)
(-0.221375 0.0357125 0)
(-0.229736 0.034204 0)
(-0.237366 0.0323841 0)
(-0.244238 0.0302722 0)
(-0.250334 0.0278891 0)
(-0.255642 0.0252561 0)
(-0.260153 0.0223947 0)
(-0.263862 0.0193259 0)
(-0.266765 0.0160705 0)
(-0.26886 0.0126489 0)
(-0.270146 0.00908097 0)
(-0.270621 0.00538675 0)
(-0.270282 0.00158644 0)
(-0.269129 -0.00229914 0)
(-0.267158 -0.00624821 0)
(-0.264369 -0.0102372 0)
(-0.26076 -0.014241 0)
(-0.256332 -0.0182318 0)
(-0.251085 -0.0221794 0)
(-0.245023 -0.0260506 0)
(-0.238155 -0.029809 0)
(-0.230492 -0.0334153 0)
(-0.222051 -0.0368276 0)
(-0.212856 -0.0400012 0)
(-0.202939 -0.0428902 0)
(-0.19234 -0.0454478 0)
(-0.181108 -0.0476278 0)
(-0.169303 -0.0493861 0)
(-0.156995 -0.0506825 0)
(-0.144266 -0.0514822 0)
(-0.131208 -0.0517578 0)
(-0.11792 -0.0514912 0)
(-0.104511 -0.050675 0)
(-0.0910971 -0.0493135 0)
(-0.0777948 -0.0474235 0)
(-0.0647231 -0.0450343 0)
(-0.0519989 -0.0421874 0)
(-0.039734 -0.0389349 0)
(-0.028033 -0.0353384 0)
(-0.0169912 -0.0314669 0)
(-0.00669254 -0.0273943 0)
(0.00279074 -0.0231976 0)
(0.0113991 -0.0189545 0)
(0.0190858 -0.0147416 0)
(0.0258168 -0.0106323 0)
(0.0315706 -0.0066955 0)
(0.036339 -0.00299429 0)
(0.0401266 0.00041572 0)
(0.0429519 0.00348767 0)
(0.0448474 0.0061848 0)
(0.0458599 0.00848162 0)
(0.0460504 0.0103648 0)
(0.0454932 0.0118338 0)
(0.0442738 0.0129003 0)
(0.0424869 0.0135877 0)
(0.0402322 0.0139295 0)
(0.0376112 0.0139671 0)
(0.0347234 0.0137469 0)
(0.0316618 0.0133181 0)
(0.0285112 0.0127294 0)
(0.0253447 0.012027 0)
(0.0222239 0.0112519 0)
(0.0191977 0.0104378 0)
(0.0163038 0.00960903 0)
(0.0135705 0.00877908 0)
(0.0110187 0.00794901 0)
(0.0086656 0.00710746 0)
(0.00652772 0.006232 0)
(0.0046248 0.00529332 0)
(0.00298349 0.00426241 0)
(0.00163194 0.003122 0)
(0.000656009 0.00188072 0)
(7.3642e-05 0.00060729 0)
(7.98276e-05 -0.00114236 0)
(0.000710954 -0.00314575 0)
(0.00173881 -0.00479539 0)
(0.00309253 -0.00602021 0)
(0.00460798 -0.00678922 0)
(0.0061774 -0.00710568 0)
(0.00769676 -0.00700397 0)
(0.00907853 -0.00654267 0)
(0.0102539 -0.00579606 0)
(0.0111729 -0.00484525 0)
(0.0118033 -0.00376991 0)
(0.0121272 -0.00264133 0)
(0.0121382 -0.00151709 0)
(0.0118366 -0.000437563 0)
(0.0112255 0.000575856 0)
(0.0103062 0.00152069 0)
(0.00907486 0.00241174 0)
(0.00751962 0.00327793 0)
(0.00561884 0.00415805 0)
(0.00334058 0.00509578 0)
(0.000643458 0.00613462 0)
(-0.00252159 0.00731345 0)
(-0.00620866 0.00866334 0)
(-0.010474 0.0102058 0)
(-0.0153728 0.0119524 0)
(-0.0209567 0.0139057 0)
(-0.0272706 0.0160602 0)
(-0.0343501 0.0184035 0)
(-0.0422187 0.0209163 0)
(-0.0508845 0.0235728 0)
(-0.060338 0.0263399 0)
(-0.0705491 0.0291772 0)
(-0.0814662 0.0320372 0)
(-0.0930158 0.034866 0)
(-0.105103 0.0376053 0)
(-0.117617 0.040194 0)
(-0.13043 0.0425718 0)
(-0.143409 0.0446812 0)
(-0.156415 0.0464707 0)
(-0.169315 0.0478969 0)
(-0.181982 0.048926 0)
(-0.194301 0.0495346 0)
(-0.206174 0.0497098 0)
(-0.217515 0.0494486 0)
(-0.228258 0.0487563 0)
(-0.238351 0.0476454 0)
(-0.247755 0.0461341 0)
(-0.256444 0.0442441 0)
(-0.2644 0.0419998 0)
(-0.271614 0.0394268 0)
(-0.278079 0.0365509 0)
(-0.283796 0.0333974 0)
(-0.288763 0.0299907 0)
(-0.292984 0.026354 0)
(-0.296459 0.0225095 0)
(-0.299189 0.0184778 0)
(-0.301173 0.014279 0)
(-0.302411 0.00993217 0)
(-0.3029 0.00545652 0)
(-0.302634 0.000871349 0)
(-0.301609 -0.0038033 0)
(-0.299818 -0.00854618 0)
(-0.297253 -0.013334 0)
(-0.293906 -0.0181412 0)
(-0.289769 -0.0229391 0)
(-0.284836 -0.027696 0)
(-0.2791 -0.0323761 0)
(-0.272558 -0.0369399 0)
(-0.265208 -0.0413435 0)
(-0.257056 -0.0455394 0)
(-0.248111 -0.0494762 0)
(-0.238389 -0.0530999 0)
(-0.227916 -0.0563545 0)
(-0.216726 -0.0591837 0)
(-0.204866 -0.0615322 0)
(-0.192393 -0.0633481 0)
(-0.179378 -0.0645852 0)
(-0.165905 -0.0652048 0)
(-0.152069 -0.0651786 0)
(-0.137977 -0.0644907 0)
(-0.123747 -0.063139 0)
(-0.109502 -0.0611368 0)
(-0.0953686 -0.0585128 0)
(-0.0814752 -0.055311 0)
(-0.0679463 -0.0515895 0)
(-0.0548996 -0.0474183 0)
(-0.042443 -0.0428767 0)
(-0.0306725 -0.038051 0)
(-0.0196703 -0.0330311 0)
(-0.00950448 -0.0279076 0)
(-0.000229197 -0.0227701 0)
(0.00811478 -0.0177045 0)
(0.015499 -0.0127918 0)
(0.0219065 -0.00810678 0)
(0.0273312 -0.00371697 0)
(0.0317776 0.000318325 0)
(0.0352617 0.00394931 0)
(0.0378108 0.00713696 0)
(0.0394651 0.00985425 0)
(0.0402778 0.0120874 0)
(0.040315 0.0138363 0)
(0.0396544 0.0151151 0)
(0.038384 0.0159508 0)
(0.0365984 0.0163821 0)
(0.0343958 0.0164568 0)
(0.0318741 0.016229 0)
(0.0291268 0.0157557 0)
(0.0262404 0.0150931 0)
(0.0232916 0.0142941 0)
(0.020346 0.0134042 0)
(0.0174581 0.0124587 0)
(0.0146717 0.0114802 0)
(0.0120221 0.0104765 0)
(0.00953879 0.00943936 0)
(0.00724899 0.00834611 0)
(0.00518192 0.00716275 0)
(0.00337393 0.00585093 0)
(0.00186326 0.0043782 0)
(0.000757221 0.00273073 0)
(8.60614e-05 0.000940127 0)
(8.58791e-05 -0.00148862 0)
(0.000760745 -0.00401918 0)
(0.00184761 -0.00604119 0)
(0.00326018 -0.00749542 0)
(0.00481298 -0.00836233 0)
(0.00638487 -0.00865959 0)
(0.00786252 -0.00843914 0)
(0.00915363 -0.00777938 0)
(0.0101882 -0.00677496 0)
(0.0109175 -0.00552615 0)
(0.0113113 -0.00412909 0)
(0.0113536 -0.00266774 0)
(0.0110382 -0.00120791 0)
(0.0103638 0.000206456 0)
(0.0093287 0.00155483 0)
(0.00792701 0.00283956 0)
(0.00614488 0.00408337 0)
(0.00395841 0.00532511 0)
(0.00133265 0.00661419 0)
(-0.00177771 0.00800422 0)
(-0.00542648 0.00954675 0)
(-0.00967296 0.011286 0)
(-0.0145783 0.0132549 0)
(-0.0202018 0.0154738 0)
(-0.0265971 0.0179496 0)
(-0.0338089 0.020677 0)
(-0.0418692 0.0236399 0)
(-0.0507945 0.0268118 0)
(-0.0605821 0.0301564 0)
(-0.0712073 0.0336278 0)
(-0.0826213 0.0371708 0)
(-0.0947503 0.0407216 0)
(-0.107497 0.0442095 0)
(-0.120741 0.0475593 0)
(-0.134348 0.050695 0)
(-0.148172 0.0535435 0)
(-0.162061 0.0560377 0)
(-0.175871 0.0581206 0)
(-0.189465 0.0597469 0)
(-0.202718 0.0608844 0)
(-0.215528 0.0615145 0)
(-0.227808 0.061631 0)
(-0.239491 0.0612389 0)
(-0.250529 0.0603524 0)
(-0.260888 0.0589923 0)
(-0.270546 0.0571846 0)
(-0.279492 0.0549581 0)
(-0.287723 0.0523431 0)
(-0.29524 0.04937 0)
(-0.302047 0.0460684 0)
(-0.308149 0.0424664 0)
(-0.313552 0.0385905 0)
(-0.318264 0.0344651 0)
(-0.322287 0.0301129 0)
(-0.325626 0.0255548 0)
(-0.328283 0.02081 0)
(-0.330257 0.0158971 0)
(-0.331547 0.0108334 0)
(-0.33215 0.00563631 0)
(-0.332059 0.000323582 0)
(-0.331267 -0.00508625 0)
(-0.329766 -0.0105733 0)
(-0.327544 -0.0161153 0)
(-0.324589 -0.0216876 0)
(-0.320887 -0.0272617 0)
(-0.316424 -0.0328055 0)
(-0.311186 -0.0382824 0)
(-0.305158 -0.0436507 0)
(-0.298329 -0.0488636 0)
(-0.290687 -0.0538693 0)
(-0.282228 -0.0586108 0)
(-0.272951 -0.0630269 0)
(-0.262863 -0.0670527 0)
(-0.25198 -0.0706215 0)
(-0.24033 -0.0736663 0)
(-0.227952 -0.076122 0)
(-0.214902 -0.0779283 0)
(-0.201248 -0.0790324 0)
(-0.187077 -0.0793923 0)
(-0.17249 -0.0789791 0)
(-0.157604 -0.0777804 0)
(-0.142545 -0.0758015 0)
(-0.127451 -0.0730671 0)
(-0.112463 -0.0696208 0)
(-0.0977239 -0.0655245 0)
(-0.0833707 -0.0608562 0)
(-0.0695319 -0.0557064 0)
(-0.0563231 -0.0501753 0)
(-0.043844 -0.044368 0)
(-0.0321767 -0.0383911 0)
(-0.0213859 -0.0323491 0)
(-0.0115193 -0.0263421 0)
(-0.00260952 -0.0204634 0)
(0.00532355 -0.0147989 0)
(0.012271 -0.00942627 0)
(0.0182332 -0.00441428 0)
(0.0232188 0.000177438 0)
(0.0272454 0.00429928 0)
(0.0303395 0.00791279 0)
(0.0325378 0.0109919 0)
(0.0338886 0.0135242 0)
(0.0344517 0.015512 0)
(0.0342984 0.0169723 0)
(0.0335101 0.0179362 0)
(0.032176 0.0184476 0)
(0.0303897 0.01856 0)
(0.0282459 0.0183338 0)
(0.0258366 0.017832 0)
(0.0232482 0.017116 0)
(0.0205585 0.016242 0)
(0.017836 0.0152558 0)
(0.015139 0.0141899 0)
(0.0125172 0.0130598 0)
(0.0100134 0.0118622 0)
(0.00766706 0.0105752 0)
(0.00551882 0.00916072 0)
(0.00361628 0.00757052 0)
(0.00200868 0.00575468 0)
(0.000820949 0.00367274 0)
(9.38069e-05 0.00131326 0)
(9.1098e-05 -0.00185713 0)
(0.000800415 -0.00493884 0)
(0.00192656 -0.00733602 0)
(0.00336714 -0.00900251 0)
(0.00491624 -0.00993401 0)
(0.00644002 -0.0101674 0)
(0.007817 -0.00977729 0)
(0.00895151 -0.00886594 0)
(0.00977382 -0.00755142 0)
(0.0102377 -0.00595474 0)
(0.010316 -0.0041886 0)
(0.00999493 -0.00234842 0)
(0.00926846 -0.000506047 0)
(0.00813242 0.00129379 0)
(0.00657924 0.0030345 0)
(0.00459377 0.00472617 0)
(0.00215034 0.00640182 0)
(-0.0007886 0.00811172 0)
(-0.00427208 0.00991619 0)
(-0.00835858 0.0118778 0)
(-0.0131125 0.0140537 0)
(-0.0185999 0.0164899 0)
(-0.0248838 0.019217 0)
(-0.0320194 0.0222486 0)
(-0.0400497 0.025581 0)
(-0.0490021 0.0291951 0)
(-0.0588838 0.0330567 0)
(-0.0696791 0.0371182 0)
(-0.0813465 0.0413197 0)
(-0.0938166 0.0455892 0)
(-0.106993 0.0498452 0)
(-0.120755 0.0539992 0)
(-0.134959 0.0579593 0)
(-0.149451 0.0616351 0)
(-0.164069 0.0649422 0)
(-0.178652 0.0678064 0)
(-0.193053 0.0701677 0)
(-0.207137 0.0719817 0)
(-0.220791 0.0732206 0)
(-0.233923 0.0738723 0)
(-0.246463 0.0739389 0)
(-0.258361 0.0734339 0)
(-0.269584 0.07238 0)
(-0.280113 0.070806 0)
(-0.289941 0.0687446 0)
(-0.299068 0.0662306 0)
(-0.307497 0.0632991 0)
(-0.315239 0.0599841 0)
(-0.322302 0.0563184 0)
(-0.328697 0.0523324 0)
(-0.334435 0.0480543 0)
(-0.339525 0.0435099 0)
(-0.343977 0.0387226 0)
(-0.347796 0.0337136 0)
(-0.35099 0.0285022 0)
(-0.353562 0.0231061 0)
(-0.355516 0.0175416 0)
(-0.356851 0.0118245 0)
(-0.357566 0.00597004 0)
(-0.357658 -6.22942e-06 0)
(-0.357119 -0.00608783 0)
(-0.355942 -0.0122571 0)
(-0.354114 -0.0184939 0)
(-0.351621 -0.0247755 0)
(-0.348447 -0.0310754 0)
(-0.344571 -0.0373627 0)
(-0.339972 -0.0436016 0)
(-0.334628 -0.0497507 0)
(-0.328513 -0.0557622 0)
(-0.321605 -0.061582 0)
(-0.313881 -0.0671497 0)
(-0.305321 -0.0723984 0)
(-0.295912 -0.0772561 0)
(-0.285648 -0.0816464 0)
(-0.274532 -0.0854904 0)
(-0.262579 -0.0887094 0)
(-0.249822 -0.0912272 0)
(-0.236307 -0.0929739 0)
(-0.222102 -0.0938896 0)
(-0.207295 -0.093928 0)
(-0.191993 -0.09306 0)
(-0.176322 -0.0912772 0)
(-0.160425 -0.0885938 0)
(-0.144455 -0.0850478 0)
(-0.128574 -0.0807005 0)
(-0.112945 -0.0756348 0)
(-0.0977236 -0.0699519 0)
(-0.0830562 -0.0637665 0)
(-0.0690706 -0.0572018 0)
(-0.0558747 -0.0503844 0)
(-0.0435536 -0.0434386 0)
(-0.0321697 -0.0364831 0)
(-0.0217645 -0.0296279 0)
(-0.0123614 -0.0229721 0)
(-0.00396948 -0.0166044 0)
(0.00341355 -0.0106023 0)
(0.00979811 -0.00503277 0)
(0.0152012 4.72238e-05 0)
(0.0196457 0.00459135 0)
(0.0231612 0.00856455 0)
(0.0257849 0.0119442 0)
(0.027563 0.0147216 0)
(0.028552 0.0169027 0)
(0.0288185 0.0185088 0)
(0.0284388 0.0195759 0)
(0.0274971 0.0201527 0)
(0.0260825 0.0202981 0)
(0.024286 0.0200769 0)
(0.0221971 0.019556 0)
(0.0199006 0.0187987 0)
(0.017475 0.01786 0)
(0.0149903 0.0167812 0)
(0.0125089 0.0155856 0)
(0.0100866 0.0142754 0)
(0.00777563 0.0128303 0)
(0.00562868 0.0112087 0)
(0.00370506 0.00935247 0)
(0.00206497 0.00719365 0)
(0.000845959 0.00466404 0)
(9.67663e-05 0.00170793 0)
(9.56426e-05 -0.00224411 0)
(0.00083079 -0.00589076 0)
(0.00197648 -0.00865458 0)
(0.00341324 -0.0105051 0)
(0.00491576 -0.0114575 0)
(0.00633871 -0.0115735 0)
(0.00755423 -0.0109552 0)
(0.00846516 -0.0097333 0)
(0.00900383 -0.0080521 0)
(0.0091278 -0.00605446 0)
(0.00881352 -0.00386913 0)
(0.00804942 -0.00160115 0)
(0.00682878 0.000674454 0)
(0.00514326 0.00291556 0)
(0.00297752 0.00511295 0)
(0.000305381 0.00728741 0)
(-0.00291219 0.00948432 0)
(-0.00672701 0.011766 0)
(-0.0112016 0.0142029 0)
(-0.0164052 0.0168638 0)
(-0.0224087 0.0198075 0)
(-0.0292787 0.0230763 0)
(-0.0370717 0.0266919 0)
(-0.0458293 0.0306543 0)
(-0.0555726 0.0349419 0)
(-0.0662991 0.0395136 0)
(-0.0779788 0.0443102 0)
(-0.0905524 0.0492563 0)
(-0.10393 0.0542628 0)
(-0.117992 0.0592296 0)
(-0.132597 0.0640501 0)
(-0.14758 0.0686161 0)
(-0.162771 0.0728238 0)
(-0.177998 0.0765793 0)
(-0.193094 0.0798036 0)
(-0.207914 0.0824359 0)
(-0.222329 0.0844348 0)
(-0.236238 0.0857782 0)
(-0.249562 0.0864618 0)
(-0.262245 0.0864958 0)
(-0.274252 0.0859021 0)
(-0.285561 0.0847111 0)
(-0.296166 0.0829583 0)
(-0.306066 0.0806825 0)
(-0.31527 0.0779231 0)
(-0.323786 0.0747194 0)
(-0.33163 0.0711089 0)
(-0.338814 0.0671272 0)
(-0.345354 0.0628073 0)
(-0.351265 0.0581796 0)
(-0.35656 0.0532716 0)
(-0.361254 0.0481084 0)
(-0.36536 0.0427122 0)
(-0.36889 0.037103 0)
(-0.371854 0.0312988 0)
(-0.374262 0.0253154 0)
(-0.376121 0.0191674 0)
(-0.377437 0.0128684 0)
(-0.378212 0.00643125 0)