/*--------------------------------*- C++ -*----------------------------------*\
| =========                 |                                                 |
| \\      /  F ield         | OpenFOAM: The Open Source CFD Toolbox           |
|  \\    /   O peration     | Version:  2406                                  |
|   \\  /    A nd           | Website:  www.openfoam.com                      |
|    \\/     M anipulation  |                                                 |
\*---------------------------------------------------------------------------*/
FoamFile
{
    version     2.0;
    format      ascii;
    arch        "LSB;label=32;scalar=64";
    class       volVectorField;
    location    "6.5";
    object      U;
}
// * * * * * * * * * * * * * * * * * * * * * * * * * * * * * * * * * * * * * //

dimensions      [0 1 -1 0 0 0 0];

internalField   nonuniform List<vector> 
16384
(
(3.08205e-06 -3.07612e-06 0)
(5.74234e-06 -1.83047e-06 0)
(-1.82133e-06 3.45328e-07 0)
(-2.06618e-05 2.41599e-06 0)
(-4.95048e-05 4.04564e-06 0)
(-8.65834e-05 5.214e-06 0)
(-0.000130072 6.01053e-06 0)
(-0.000178354 6.53047e-06 0)
(-0.000230107 6.85166e-06 0)
(-0.000284292 7.03374e-06 0)
(-0.000340115 7.12099e-06 0)
(-0.000396982 7.1456e-06 0)
(-0.000454462 7.13066e-06 0)
(-0.000512245 7.09244e-06 0)
(-0.000570116 7.04208e-06 0)
(-0.00062793 6.98694e-06 0)
(-0.000685595 6.93167e-06 0)
(-0.000743054 6.87904e-06 0)
(-0.000800273 6.83051e-06 0)
(-0.000857237 6.78668e-06 0)
(-0.00091394 6.74753e-06 0)
(-0.000970379 6.71258e-06 0)
(-0.00102656 6.68114e-06 0)
(-0.00108247 6.65239e-06 0)
(-0.00113812 6.6255e-06 0)
(-0.0011935 6.5997e-06 0)
(-0.0012486 6.57421e-06 0)
(-0.00130341 6.54831e-06 0)
(-0.00135792 6.52129e-06 0)
(-0.0014121 6.49249e-06 0)
(-0.00146593 6.46131e-06 0)
(-0.00151939 6.42719e-06 0)
(-0.00157244 6.38962e-06 0)
(-0.00162505 6.34806e-06 0)
(-0.00167718 6.30198e-06 0)
(-0.00172879 6.25086e-06 0)
(-0.00177983 6.1942e-06 0)
(-0.00183025 6.13147e-06 0)
(-0.00188002 6.06218e-06 0)
(-0.00192905 5.98576e-06 0)
(-0.00197731 5.90167e-06 0)
(-0.00202472 5.80936e-06 0)
(-0.00207123 5.70834e-06 0)
(-0.00211675 5.59808e-06 0)
(-0.00216121 5.47802e-06 0)
(-0.00220455 5.34754e-06 0)
(-0.00224668 5.2061e-06 0)
(-0.00228751 5.0532e-06 0)
(-0.00232697 4.88842e-06 0)
(-0.00236495 4.71132e-06 0)
(-0.00240138 4.52142e-06 0)
(-0.00243615 4.31827e-06 0)
(-0.00246917 4.10147e-06 0)
(-0.00250035 3.87075e-06 0)
(-0.00252958 3.6259e-06 0)
(-0.00255676 3.36675e-06 0)
(-0.00258181 3.09321e-06 0)
(-0.00260461 2.80525e-06 0)
(-0.00262507 2.50297e-06 0)
(-0.0026431 2.18655e-06 0)
(-0.0026586 1.85622e-06 0)
(-0.00267147 1.51235e-06 0)
(-0.00268164 1.15545e-06 0)
(-0.00268902 7.86223e-07 0)
(-0.00269353 4.05939e-07 0)
(-0.0026951 1.78869e-08 0)
(-0.00269367 -3.85686e-07 0)
(-0.00268918 -7.95487e-07 0)
(-0.00268158 -1.21217e-06 0)
(-0.00267083 -1.6345e-06 0)
(-0.0026569 -2.06103e-06 0)
(-0.00263978 -2.49017e-06 0)
(-0.00261946 -2.92027e-06 0)
(-0.00259594 -3.34956e-06 0)
(-0.00256923 -3.77617e-06 0)
(-0.00253937 -4.19817e-06 0)
(-0.00250639 -4.61359e-06 0)
(-0.00247035 -5.02047e-06 0)
(-0.00243131 -5.41685e-06 0)
(-0.00238935 -5.80081e-06 0)
(-0.00234456 -6.17046e-06 0)
(-0.00229705 -6.52403e-06 0)
(-0.00224692 -6.85983e-06 0)
(-0.00219429 -7.17627e-06 0)
(-0.00213931 -7.47185e-06 0)
(-0.00208211 -7.7452e-06 0)
(-0.00202284 -7.99514e-06 0)
(-0.00196166 -8.22072e-06 0)
(-0.00189874 -8.42121e-06 0)
(-0.00183423 -8.59603e-06 0)
(-0.00176832 -8.74476e-06 0)
(-0.00170117 -8.86716e-06 0)
(-0.00163296 -8.9632e-06 0)
(-0.00156386 -9.03306e-06 0)
(-0.00149406 -9.07712e-06 0)
(-0.00142371 -9.09589e-06 0)
(-0.001353 -9.08998e-06 0)
(-0.00128208 -9.06009e-06 0)
(-0.00121113 -9.00702e-06 0)
(-0.00114031 -8.93159e-06 0)
(-0.00106976 -8.83461e-06 0)
(-0.000999655 -8.71683e-06 0)
(-0.000930133 -8.57887e-06 0)
(-0.00086135 -8.4212e-06 0)
(-0.000793459 -8.24408e-06 0)
(-0.000726614 -8.04747e-06 0)
(-0.000660973 -7.83103e-06 0)
(-0.000596704 -7.59401e-06 0)
(-0.000533983 -7.33518e-06 0)
(-0.000473004 -7.05282e-06 0)
(-0.000413974 -6.74462e-06 0)
(-0.000357123 -6.40765e-06 0)
(-0.000302709 -6.03833e-06 0)
(-0.000251016 -5.63232e-06 0)
(-0.000202361 -5.18455e-06 0)
(-0.000157097 -4.68913e-06 0)
(-0.000115614 -4.13944e-06 0)
(-7.83356e-05 -3.52802e-06 0)
(-4.57145e-05 -2.84669e-06 0)
(-1.82162e-05 -2.08965e-06 0)
(3.68607e-06 -1.26072e-06 0)
(1.95625e-05 -3.5594e-07 0)
(2.91012e-05 6.32307e-07 0)
(3.2235e-05 1.62755e-06 0)
(2.92763e-05 2.5137e-06 0)
(2.12834e-05 3.1218e-06 0)
(1.06843e-05 3.05697e-06 0)
(1.80963e-06 1.82272e-06 0)
(1.86588e-06 -5.76676e-06 0)
(-7.23651e-06 7.18077e-06 0)
(-4.03833e-05 2.75434e-05 0)
(-9.87245e-05 4.78936e-05 0)
(-0.000180195 6.54972e-05 0)
(-0.000281366 7.96816e-05 0)
(-0.000398499 9.06139e-05 0)
(-0.000528094 9.87568e-05 0)
(-0.000667123 0.000104634 0)
(-0.000813085 0.000108733 0)
(-0.000963981 0.000111474 0)
(-0.00111825 0.000113201 0)
(-0.00127471 0.000114187 0)
(-0.00143248 0.000114645 0)
(-0.00159091 0.000114737 0)
(-0.00174953 0.000114582 0)
(-0.00190803 0.000114267 0)
(-0.00206619 0.000113855 0)
(-0.00222386 0.000113386 0)
(-0.00238096 0.000112888 0)
(-0.00253741 0.000112377 0)
(-0.00269318 0.00011186 0)
(-0.00284824 0.000111339 0)
(-0.00300257 0.000110813 0)
(-0.00315615 0.000110278 0)
(-0.00330893 0.000109727 0)
(-0.00346089 0.000109154 0)
(-0.00361198 0.000108553 0)
(-0.00376214 0.000107915 0)
(-0.00391132 0.000107233 0)
(-0.00405945 0.0001065 0)
(-0.00420644 0.000105709 0)
(-0.00435221 0.000104853 0)
(-0.00449665 0.000103925 0)
(-0.00463966 0.000102917 0)
(-0.00478113 0.000101824 0)
(-0.00492093 0.000100637 0)
(-0.00505891 9.93501e-05 0)
(-0.00519495 9.79566e-05 0)
(-0.00532889 9.64494e-05 0)
(-0.00546056 9.48214e-05 0)
(-0.0055898 9.30657e-05 0)
(-0.00571642 9.11755e-05 0)
(-0.00584024 8.91441e-05 0)
(-0.00596107 8.69648e-05 0)
(-0.00607869 8.46311e-05 0)
(-0.0061929 8.21367e-05 0)
(-0.00630347 7.94757e-05 0)
(-0.00641017 7.66425e-05 0)
(-0.00651278 7.36321e-05 0)
(-0.00661106 7.04398e-05 0)
(-0.00670475 6.70617e-05 0)
(-0.00679361 6.34944e-05 0)
(-0.00687739 5.97352e-05 0)
(-0.00695583 5.57826e-05 0)
(-0.00702868 5.16358e-05 0)
(-0.00709569 4.72952e-05 0)
(-0.0071566 4.27622e-05 0)
(-0.00721116 3.80394e-05 0)
(-0.00725912 3.31308e-05 0)
(-0.00730026 2.80417e-05 0)
(-0.00733434 2.27787e-05 0)
(-0.00736115 1.73496e-05 0)
(-0.00738047 1.17641e-05 0)
(-0.00739212 6.03305e-06 0)
(-0.00739593 1.68435e-07 0)
(-0.00739174 -5.80256e-06 0)
(-0.00737938 -1.18791e-05 0)
(-0.00735877 -1.80423e-05 0)
(-0.0073298 -2.42723e-05 0)
(-0.00729242 -3.05488e-05 0)
(-0.00724658 -3.68507e-05 0)
(-0.00719227 -4.31559e-05 0)
(-0.00712949 -4.94415e-05 0)
(-0.00705831 -5.56842e-05 0)
(-0.00697879 -6.18598e-05 0)
(-0.00689104 -6.79439e-05 0)
(-0.00679521 -7.39124e-05 0)
(-0.00669146 -7.97408e-05 0)
(-0.00657999 -8.54055e-05 0)
(-0.00646102 -9.08833e-05 0)
(-0.00633483 -9.61519e-05 0)
(-0.0062017 -0.00010119 0)
(-0.00606193 -0.000105979 0)
(-0.00591587 -0.000110499 0)
(-0.00576388 -0.000114734 0)
(-0.00560632 -0.000118671 0)
(-0.0054436 -0.000122295 0)
(-0.00527613 -0.000125597 0)
(-0.00510432 -0.000128569 0)
(-0.00492862 -0.000131204 0)
(-0.00474945 -0.0001335 0)
(-0.00456726 -0.000135453 0)
(-0.00438249 -0.000137066 0)
(-0.00419559 -0.000138339 0)
(-0.00400698 -0.000139277 0)
(-0.00381711 -0.000139884 0)
(-0.0036264 -0.000140168 0)
(-0.00343527 -0.000140132 0)
(-0.00324414 -0.000139786 0)
(-0.00305342 -0.000139133 0)
(-0.0028635 -0.000138178 0)
(-0.0026748 -0.000136923 0)
(-0.00248771 -0.00013537 0)
(-0.00230264 -0.000133513 0)
(-0.00212001 -0.000131346 0)
(-0.00194024 -0.000128855 0)
(-0.0017638 -0.000126023 0)
(-0.00159118 -0.000122824 0)
(-0.00142289 -0.000119227 0)
(-0.00125952 -0.000115194 0)
(-0.0011017 -0.000110678 0)
(-0.000950127 -0.000105625 0)
(-0.000805579 -9.99741e-05 0)
(-0.000668915 -9.36605e-05 0)
(-0.000541079 -8.6615e-05 0)
(-0.000423096 -7.87695e-05 0)
(-0.000316068 -7.00638e-05 0)
(-0.000221146 -6.04551e-05 0)
(-0.000139492 -4.99371e-05 0)
(-7.22111e-05 -3.85735e-05 0)
(-2.0225e-05 -2.65175e-05 0)
(1.58198e-05 -1.40972e-05 0)
(3.58877e-05 -1.93645e-06 0)
(4.09527e-05 8.86529e-06 0)
(3.34416e-05 1.655e-05 0)
(1.82506e-05 1.83462e-05 0)
(2.99527e-06 1.0652e-05 0)
(-3.47675e-07 1.85374e-06 0)
(-2.82129e-05 4.04492e-05 0)
(-9.21616e-05 9.0781e-05 0)
(-0.000191203 0.000140338 0)
(-0.00032211 0.000183976 0)
(-0.000480554 0.000220092 0)
(-0.000661812 0.000248746 0)
(-0.00086133 0.000270738 0)
(-0.00107504 0.00028712 0)
(-0.00129948 0.000298954 0)
(-0.0015318 0.000307207 0)
(-0.00176972 0.000312707 0)
(-0.00201145 0.000316135 0)
(-0.00225562 0.000318036 0)
(-0.0025012 0.000318837 0)
(-0.00274743 0.000318862 0)
(-0.00299375 0.000318355 0)
(-0.00323977 0.000317493 0)
(-0.00348521 0.0003164 0)
(-0.00372988 0.00031516 0)
(-0.00397365 0.000313825 0)
(-0.0042164 0.000312427 0)
(-0.00445808 0.000310979 0)
(-0.0046986 0.000309484 0)
(-0.00493791 0.000307935 0)
(-0.00517594 0.000306322 0)
(-0.00541262 0.000304628 0)
(-0.00564786 0.000302839 0)
(-0.00588158 0.000300936 0)
(-0.00611366 0.0002989 0)
(-0.00634398 0.000296713 0)
(-0.00657242 0.000294356 0)
(-0.00679883 0.000291812 0)
(-0.00702306 0.000289061 0)
(-0.00724493 0.000286085 0)
(-0.00746425 0.000282867 0)
(-0.00768083 0.000279388 0)
(-0.00789446 0.000275629 0)
(-0.00810492 0.000271572 0)
(-0.00831197 0.0002672 0)
(-0.00851535 0.000262494 0)
(-0.0087148 0.000257436 0)
(-0.00891005 0.000252008 0)
(-0.00910082 0.000246193 0)
(-0.00928679 0.000239974 0)
(-0.00946766 0.000233334 0)
(-0.0096431 0.000226258 0)
(-0.00981278 0.000218731 0)
(-0.00997635 0.000210738 0)
(-0.0101335 0.000202267 0)
(-0.0102838 0.000193308 0)
(-0.0104269 0.00018385 0)
(-0.0105624 0.000173886 0)
(-0.0106901 0.000163412 0)
(-0.0108094 0.000152423 0)
(-0.01092 0.000140919 0)
(-0.0110216 0.000128902 0)
(-0.0111137 0.000116378 0)
(-0.0111961 0.000103356 0)
(-0.0112683 8.98458e-05 0)
(-0.01133 7.58642e-05 0)
(-0.0113808 6.14298e-05 0)
(-0.0114205 4.65652e-05 0)
(-0.0114488 3.12962e-05 0)
(-0.0114654 1.56517e-05 0)
(-0.01147 -3.34641e-07 0)
(-0.0114624 -1.65985e-05 0)
(-0.0114425 -3.31245e-05 0)
(-0.01141 -4.98657e-05 0)
(-0.0113648 -6.6771e-05 0)
(-0.011307 -8.37871e-05 0)
(-0.0112363 -0.000100859 0)
(-0.0111528 -0.000117928 0)
(-0.0110566 -0.000134935 0)
(-0.0109476 -0.000151819 0)
(-0.0108261 -0.000168517 0)
(-0.0106923 -0.000184967 0)
(-0.0105462 -0.000201105 0)
(-0.0103882 -0.000216869 0)
(-0.0102186 -0.000232198 0)
(-0.0100377 -0.000247032 0)
(-0.00984587 -0.000261315 0)
(-0.00964359 -0.000274991 0)
(-0.0094313 -0.000288011 0)
(-0.0092095 -0.000300327 0)
(-0.00897869 -0.000311898 0)
(-0.00873945 -0.000322686 0)
(-0.00849235 -0.000332658 0)
(-0.00823798 -0.000341788 0)
(-0.00797696 -0.000350054 0)
(-0.00770992 -0.000357441 0)
(-0.0074375 -0.000363939 0)
(-0.00716033 -0.000369542 0)
(-0.00687908 -0.000374251 0)
(-0.00659437 -0.00037807 0)
(-0.00630686 -0.000381006 0)
(-0.00601717 -0.000383072 0)
(-0.00572594 -0.00038428 0)
(-0.00543378 -0.000384644 0)
(-0.00514131 -0.000384177 0)
(-0.00484914 -0.000382891 0)
(-0.00455786 -0.000380793 0)
(-0.00426807 -0.000377886 0)
(-0.00398039 -0.000374164 0)
(-0.00369542 -0.000369613 0)
(-0.0034138 -0.000364208 0)
(-0.00313619 -0.00035791 0)
(-0.0028633 -0.000350664 0)
(-0.00259586 -0.000342401 0)
(-0.00233469 -0.000333032 0)
(-0.00208067 -0.000322449 0)
(-0.00183477 -0.000310527 0)
(-0.00159807 -0.00029712 0)
(-0.00137175 -0.000282071 0)
(-0.0011571 -0.000265211 0)
(-0.000955544 -0.000246368 0)
(-0.00076861 -0.000225382 0)
(-0.000597914 -0.000202123 0)
(-0.000445122 -0.000176523 0)
(-0.000311886 -0.000148621 0)
(-0.000199736 -0.000118632 0)
(-0.000109918 -8.70444e-05 0)
(-4.31915e-05 -5.47958e-05 0)
(5.10854e-07 -2.3406e-05 0)
(2.25061e-05 4.61874e-06 0)
(2.59082e-05 2.54502e-05 0)
(1.65784e-05 3.34994e-05 0)
(3.01947e-06 2.11081e-05 0)
(-2.55159e-06 2.12901e-05 0)
(-5.01131e-05 0.000100167 0)
(-0.000145482 0.000190594 0)
(-0.00028446 0.000277612 0)
(-0.000461877 0.000354463 0)
(-0.000672437 0.000418815 0)
(-0.000910703 0.00047066 0)
(-0.00117146 0.000511136 0)
(-0.00145 0.000541854 0)
(-0.00174224 0.00056451 0)
(-0.00204478 0.000580696 0)
(-0.00235482 0.000591815 0)
(-0.00267014 0.000599046 0)
(-0.00298898 0.000603353 0)
(-0.00331 0.000605505 0)
(-0.00363218 0.000606098 0)
(-0.00395476 0.000605585 0)
(-0.00427717 0.000604303 0)
(-0.00459901 0.000602493 0)
(-0.00491997 0.000600323 0)
(-0.00523984 0.000597903 0)
(-0.00555844 0.000595302 0)
(-0.00587563 0.000592553 0)
(-0.00619131 0.000589669 0)
(-0.00650536 0.000586646 0)
(-0.00681767 0.000583468 0)
(-0.00712813 0.000580113 0)
(-0.00743661 0.000576552 0)
(-0.00774297 0.000572755 0)
(-0.00804707 0.000568691 0)
(-0.00834873 0.000564325 0)
(-0.00864779 0.000559626 0)
(-0.00894403 0.00055456 0)
(-0.00923725 0.000549093 0)
(-0.00952721 0.000543192 0)
(-0.00981368 0.000536824 0)
(-0.0100964 0.000529955 0)
(-0.010375 0.000522552 0)
(-0.0106494 0.000514582 0)
(-0.010919 0.000506012 0)
(-0.0111837 0.000496809 0)
(-0.0114431 0.00048694 0)
(-0.0116968 0.000476374 0)
(-0.0119445 0.000465078 0)
(-0.0121857 0.000453023 0)
(-0.01242 0.000440179 0)
(-0.0126471 0.000426519 0)
(-0.0128665 0.000412016 0)
(-0.0130778 0.000396646 0)
(-0.0132805 0.000380389 0)
(-0.0134741 0.000363225 0)
(-0.0136583 0.000345138 0)
(-0.0138325 0.000326117 0)
(-0.0139962 0.000306154 0)
(-0.014149 0.000285245 0)
(-0.0142904 0.000263391 0)
(-0.0144199 0.000240599 0)
(-0.0145372 0.00021688 0)
(-0.0146416 0.000192253 0)
(-0.0147328 0.000166741 0)
(-0.0148104 0.000140374 0)
(-0.0148739 0.000113189 0)
(-0.014923 8.52299e-05 0)
(-0.0149574 5.65473e-05 0)
(-0.0149765 2.71982e-05 0)
(-0.0149803 -2.74996e-06 0)
(-0.0149684 -3.32249e-05 0)
(-0.0149406 -6.41487e-05 0)
(-0.0148967 -9.54399e-05 0)
(-0.0148366 -0.000127008 0)
(-0.0147602 -0.000158757 0)
(-0.0146674 -0.000190586 0)
(-0.0145583 -0.000222391 0)
(-0.0144329 -0.000254063 0)
(-0.0142913 -0.00028549 0)
(-0.0141337 -0.00031656 0)
(-0.0139603 -0.00034716 0)
(-0.0137715 -0.000377176 0)
(-0.0135674 -0.000406496 0)
(-0.0133486 -0.000435011 0)
(-0.0131155 -0.000462612 0)
(-0.0128685 -0.000489199 0)
(-0.0126081 -0.000514675 0)
(-0.0123351 -0.000538949 0)
(-0.0120499 -0.000561937 0)
(-0.0117532 -0.000583564 0)
(-0.0114458 -0.000603765 0)
(-0.0111283 -0.000622481 0)
(-0.0108015 -0.000639664 0)
(-0.0104662 -0.000655277 0)
(-0.0101231 -0.00066929 0)
(-0.00977307 -0.000681686 0)
(-0.00941684 -0.000692456 0)
(-0.00905523 -0.000701597 0)
(-0.00868905 -0.000709118 0)
(-0.00831909 -0.00071503 0)
(-0.00794614 -0.000719352 0)
(-0.00757098 -0.000722106 0)
(-0.00719439 -0.000723312 0)
(-0.00681712 -0.000722991 0)
(-0.00643994 -0.000721161 0)
(-0.00606361 -0.000717829 0)
(-0.00568887 -0.000712995 0)
(-0.00531651 -0.000706645 0)
(-0.0049473 -0.000698745 0)
(-0.00458204 -0.000689243 0)
(-0.00422159 -0.000678061 0)
(-0.00386684 -0.000665095 0)
(-0.00351875 -0.00065021 0)
(-0.00317836 -0.000633237 0)
(-0.0028468 -0.000613975 0)
(-0.00252532 -0.000592193 0)
(-0.00221529 -0.000567625 0)
(-0.00191821 -0.000539986 0)
(-0.00163571 -0.000508975 0)
(-0.00136959 -0.000474295 0)
(-0.00112174 -0.000435681 0)
(-0.000894161 -0.000392931 0)
(-0.000688885 -0.000345972 0)
(-0.000507903 -0.000294932 0)
(-0.000353027 -0.000240266 0)
(-0.000225712 -0.000182915 0)
(-0.000126809 -0.000124538 0)
(-5.62337e-05 -6.78018e-05 0)
(-1.25617e-05 -1.68013e-05 0)
(7.46524e-06 2.24823e-05 0)
(9.71377e-06 4.16361e-05 0)
(2.41752e-06 2.91372e-05 0)
(-4.42278e-06 5.18122e-05 0)
(-7.0302e-05 0.000185491 0)
(-0.000195409 0.0003255 0)
(-0.000372015 0.000456782 0)
(-0.000592587 0.000572191 0)
(-0.000850635 0.000669242 0)
(-0.00114 0.000748109 0)
(-0.00145493 0.000810372 0)
(-0.00179028 0.000858237 0)
(-0.00214157 0.000894065 0)
(-0.00250502 0.000920107 0)
(-0.00287748 0.000938376 0)
(-0.00325644 0.000950597 0)
(-0.00363985 0.000958197 0)
(-0.00402614 0.000962333 0)
(-0.00441407 0.000963912 0)
(-0.00480272 0.000963637 0)
(-0.00519138 0.000962034 0)
(-0.0055795 0.000959489 0)
(-0.00596669 0.000956275 0)
(-0.00635265 0.000952576 0)
(-0.00673713 0.000948508 0)
(-0.00711993 0.000944138 0)
(-0.00750088 0.000939493 0)
(-0.00787982 0.000934577 0)
(-0.00825659 0.00092937 0)
(-0.00863104 0.000923844 0)
(-0.009003 0.00091796 0)
(-0.00937228 0.000911674 0)
(-0.00973869 0.000904939 0)
(-0.010102 0.000897706 0)
(-0.010462 0.000889924 0)
(-0.0108185 0.000881543 0)
(-0.0111711 0.000872513 0)
(-0.0115197 0.000862781 0)
(-0.0118638 0.000852298 0)
(-0.0122032 0.000841011 0)
(-0.0125375 0.000828871 0)
(-0.0128663 0.000815825 0)
(-0.0131894 0.000801824 0)
(-0.0135063 0.000786816 0)
(-0.0138165 0.000770754 0)
(-0.0141197 0.000753588 0)
(-0.0144154 0.00073527 0)
(-0.0147032 0.000715756 0)
(-0.0149825 0.000695001 0)
(-0.0152529 0.000672964 0)
(-0.0155138 0.000649607 0)
(-0.0157647 0.000624894 0)
(-0.0160052 0.000598795 0)
(-0.0162347 0.000571284 0)
(-0.0164525 0.000542339 0)
(-0.0166583 0.000511943 0)
(-0.0168513 0.000480089 0)
(-0.0170312 0.000446772 0)
(-0.0171972 0.000411999 0)
(-0.017349 0.000375782 0)
(-0.0174859 0.000338142 0)
(-0.0176074 0.000299111 0)
(-0.0177131 0.000258727 0)
(-0.0178024 0.000217042 0)
(-0.0178749 0.000174114 0)
(-0.0179302 0.000130016 0)
(-0.0179679 8.48262e-05 0)
(-0.0179875 3.86384e-05 0)
(-0.0179888 -8.44493e-06 0)
(-0.0179715 -5.63169e-05 0)
(-0.0179354 -0.000104851 0)
(-0.0178802 -0.000153916 0)
(-0.0178059 -0.000203374 0)
(-0.0177123 -0.000253075 0)
(-0.0175993 -0.000302866 0)
(-0.0174672 -0.000352586 0)
(-0.0173158 -0.000402068 0)
(-0.0171455 -0.000451143 0)
(-0.0169563 -0.000499638 0)
(-0.0167487 -0.000547382 0)
(-0.0165228 -0.000594202 0)
(-0.0162792 -0.000639927 0)
(-0.0160183 -0.000684393 0)
(-0.0157405 -0.000727437 0)
(-0.0154466 -0.000768906 0)
(-0.0151371 -0.000808654 0)
(-0.0148126 -0.000846545 0)
(-0.014474 -0.000882454 0)
(-0.014122 -0.000916268 0)
(-0.0137573 -0.000947887 0)
(-0.0133808 -0.000977226 0)
(-0.0129935 -0.00100421 0)
(-0.012596 -0.00102879 0)
(-0.0121895 -0.00105092 0)
(-0.0117747 -0.00107057 0)
(-0.0113526 -0.00108772 0)
(-0.010924 -0.00110238 0)
(-0.01049 -0.00111456 0)
(-0.0100515 -0.00112426 0)
(-0.00960923 -0.00113153 0)
(-0.00916424 -0.00113638 0)
(-0.00871738 -0.00113885 0)
(-0.00826952 -0.00113896 0)
(-0.00782156 -0.00113674 0)
(-0.00737436 -0.00113219 0)
(-0.0069288 -0.00112531 0)
(-0.00648578 -0.00111607 0)
(-0.0060462 -0.0011044 0)
(-0.00561102 -0.00109023 0)
(-0.00518122 -0.00107342 0)
(-0.00475785 -0.00105381 0)
(-0.00434204 -0.00103118 0)
(-0.00393501 -0.00100527 0)
(-0.00353809 -0.000975764 0)
(-0.00315272 -0.000942308 0)
(-0.00278052 -0.000904498 0)
(-0.00242321 -0.000861899 0)
(-0.0020827 -0.000814065 0)
(-0.00176104 -0.000760564 0)
(-0.00146038 -0.000701018 0)
(-0.00118301 -0.000635166 0)
(-0.000931208 -0.000562946 0)
(-0.000707192 -0.000484618 0)
(-0.000512972 -0.000400928 0)
(-0.000350157 -0.000313331 0)
(-0.000219708 -0.000224286 0)
(-0.000121628 -0.000137629 0)
(-5.45998e-05 -5.90348e-05 0)
(-1.55714e-05 3.47684e-06 0)
(7.39686e-07 3.89685e-05 0)
(1.61504e-06 3.27861e-05 0)
(-5.92761e-06 9.21832e-05 0)
(-8.80182e-05 0.000294204 0)
(-0.000240133 0.000492859 0)
(-0.00045116 0.000674629 0)
(-0.000711119 0.000833112 0)
(-0.00101218 0.000966361 0)
(-0.00134737 0.00107511 0)
(-0.00171044 0.00116156 0)
(-0.00209583 0.00122863 0)
(-0.0024988 0.00127938 0)
(-0.00291531 0.00131673 0)
(-0.00334198 0.00134335 0)
(-0.00377607 0.00136152 0)
(-0.00421537 0.00137316 0)
(-0.00465812 0.00137983 0)
(-0.00510294 0.00138278 0)
(-0.00554874 0.00138298 0)
(-0.00599471 0.00138117 0)
(-0.00644021 0.0013779 0)
(-0.00688474 0.00137356 0)
(-0.00732791 0.00136843 0)
(-0.00776943 0.00136267 0)
(-0.00820903 0.00135639 0)
(-0.00864647 0.00134965 0)
(-0.00908156 0.00134245 0)
(-0.00951409 0.00133478 0)
(-0.00994385 0.00132661 0)
(-0.0103706 0.00131788 0)
(-0.0107942 0.00130854 0)
(-0.0112143 0.00129852 0)
(-0.0116308 0.00128776 0)
(-0.0120432 0.00127619 0)
(-0.0124514 0.00126374 0)
(-0.012855 0.00125034 0)
(-0.0132537 0.00123592 0)
(-0.0136472 0.00122041 0)
(-0.0140349 0.00120373 0)
(-0.0144167 0.00118583 0)
(-0.014792 0.00116662 0)
(-0.0151604 0.00114603 0)
(-0.0155214 0.00112401 0)
(-0.0158747 0.00110047 0)
(-0.0162196 0.00107536 0)
(-0.0165557 0.0010486 0)
(-0.0168825 0.00102014 0)
(-0.0171993 0.000989916 0)
(-0.0175057 0.000957874 0)
(-0.0178011 0.000923962 0)
(-0.0180849 0.000888134 0)
(-0.0183564 0.00085035 0)
(-0.0186151 0.000810576 0)
(-0.0188604 0.000768785 0)
(-0.0190917 0.00072496 0)
(-0.0193083 0.00067909 0)
(-0.0195097 0.000631177 0)
(-0.0196951 0.000581232 0)
(-0.0198642 0.000529276 0)
(-0.0200162 0.000475344 0)
(-0.0201505 0.000419484 0)
(-0.0202667 0.000361755 0)
(-0.0203643 0.000302231 0)
(-0.0204426 0.000241001 0)
(-0.0205014 0.000178166 0)
(-0.02054 0.000113844 0)
(-0.0205582 4.8165e-05 0)
(-0.0205557 -1.87243e-05 0)
(-0.020532 -8.66698e-05 0)
(-0.020487 -0.000155495 0)
(-0.0204205 -0.000225015 0)
(-0.0203324 -0.000295034 0)
(-0.0202225 -0.000365345 0)
(-0.020091 -0.000435732 0)
(-0.0199378 -0.00050597 0)
(-0.019763 -0.000575829 0)
(-0.0195669 -0.000645074 0)
(-0.0193498 -0.000713467 0)
(-0.0191119 -0.000780769 0)
(-0.0188537 -0.000846745 0)
(-0.0185756 -0.00091116 0)
(-0.0182781 -0.000973785 0)
(-0.0179619 -0.0010344 0)
(-0.0176277 -0.0010928 0)
(-0.017276 -0.00114877 0)
(-0.0169077 -0.00120215 0)
(-0.0165237 -0.00125275 0)
(-0.0161246 -0.00130042 0)
(-0.0157115 -0.00134503 0)
(-0.0152853 -0.00138646 0)
(-0.0148469 -0.00142461 0)
(-0.0143973 -0.00145942 0)
(-0.0139375 -0.00149081 0)
(-0.0134685 -0.00151877 0)
(-0.0129913 -0.00154325 0)
(-0.012507 -0.00156428 0)
(-0.0120164 -0.00158184 0)
(-0.0115207 -0.00159598 0)
(-0.0110209 -0.00160672 0)
(-0.0105179 -0.00161411 0)
(-0.0100127 -0.00161817 0)
(-0.0095063 -0.00161895 0)
(-0.00899965 -0.00161647 0)
(-0.00849372 -0.00161073 0)
(-0.00798948 -0.00160171 0)
(-0.00748792 -0.00158938 0)
(-0.00699005 -0.00157364 0)
(-0.00649693 -0.00155436 0)
(-0.00600965 -0.00153135 0)
(-0.00552939 -0.00150439 0)
(-0.00505738 -0.00147317 0)
(-0.004595 -0.0014373 0)
(-0.0041437 -0.00139637 0)
(-0.0037051 -0.00134987 0)
(-0.00328096 -0.00129724 0)
(-0.0028732 -0.0012379 0)
(-0.00248388 -0.00117124 0)
(-0.00211525 -0.0010967 0)
(-0.00176966 -0.00101378 0)
(-0.00144955 -0.000922173 0)
(-0.0011574 -0.000821845 0)
(-0.000895564 -0.000713207 0)
(-0.00066621 -0.000597322 0)
(-0.000471077 -0.000476178 0)
(-0.000311266 -0.000353038 0)
(-0.000186956 -0.00023286 0)
(-9.70873e-05 -0.000122784 0)
(-3.90424e-05 -3.26469e-05 0)
(-8.4023e-06 2.44716e-05 0)
(8.45551e-07 3.1559e-05 0)
(-7.1304e-06 0.000141029 0)
(-0.000103239 0.000423618 0)
(-0.000279285 0.00068941 0)
(-0.000521146 0.000927493 0)
(-0.000816526 0.00113311 0)
(-0.00115621 0.00130551 0)
(-0.00153237 0.00144639 0)
(-0.00193819 0.00155885 0)
(-0.00236778 0.00164662 0)
(-0.00281611 0.00171355 0)
(-0.00327896 0.00176329 0)
(-0.00375281 0.00179914 0)
(-0.00423477 0.00182399 0)
(-0.00472248 0.00184024 0)
(-0.00521408 0.00184988 0)
(-0.00570806 0.00185452 0)
(-0.00620326 0.00185539 0)
(-0.00669874 0.00185348 0)
(-0.0071938 0.0018495 0)
(-0.00768785 0.00184397 0)
(-0.00818045 0.00183725 0)
(-0.00867123 0.0018296 0)
(-0.00915986 0.00182116 0)
(-0.00964607 0.00181201 0)
(-0.0101296 0.00180218 0)
(-0.0106102 0.00179164 0)
(-0.0110876 0.00178037 0)
(-0.0115616 0.0017683 0)
(-0.0120319 0.00175537 0)
(-0.0124982 0.00174149 0)
(-0.0129603 0.00172658 0)
(-0.0134177 0.00171056 0)
(-0.0138702 0.00169333 0)
(-0.0143174 0.0016748 0)
(-0.014759 0.00165488 0)
(-0.0151944 0.00163349 0)
(-0.0156234 0.00161052 0)
(-0.0160455 0.00158589 0)
(-0.0164601 0.0015595 0)
(-0.0168669 0.00153127 0)
(-0.0172653 0.0015011 0)
(-0.0176547 0.00146891 0)
(-0.0180347 0.00143461 0)
(-0.0184046 0.00139812 0)
(-0.018764 0.00135935 0)
(-0.0191121 0.00131824 0)
(-0.0194484 0.00127472 0)
(-0.0197722 0.00122871 0)
(-0.0200829 0.00118017 0)
(-0.0203798 0.00112904 0)
(-0.0206624 0.00107529 0)
(-0.0209298 0.00101888 0)
(-0.0211815 0.000959801 0)
(-0.0214169 0.000898036 0)
(-0.0216351 0.000833593 0)
(-0.0218357 0.000766493 0)
(-0.0220179 0.000696771 0)
(-0.0221812 0.000624477 0)
(-0.0223249 0.000549677 0)
(-0.0224484 0.000472457 0)
(-0.0225512 0.000392918 0)
(-0.0226329 0.00031118 0)
(-0.0226928 0.000227382 0)
(-0.0227306 0.000141683 0)
(-0.0227458 5.42569e-05 0)
(-0.0227382 -3.47013e-05 0)
(-0.0227073 -0.000124983 0)
(-0.0226531 -0.000216357 0)
(-0.0225753 -0.000308579 0)
(-0.0224737 -0.000401391 0)
(-0.0223485 -0.00049452 0)
(-0.0221994 -0.000587683 0)
(-0.0220268 -0.000680587 0)
(-0.0218306 -0.000772931 0)
(-0.0216113 -0.000864409 0)
(-0.021369 -0.000954713 0)
(-0.0211041 -0.00104353 0)
(-0.0208172 -0.00113056 0)
(-0.0205087 -0.0012155 0)
(-0.0201793 -0.00129805 0)
(-0.0198295 -0.00137794 0)
(-0.0194602 -0.00145488 0)
(-0.0190721 -0.00152863 0)
(-0.018666 -0.00159894 0)
(-0.0182428 -0.00166561 0)
(-0.0178035 -0.00172843 0)
(-0.0173491 -0.00178724 0)
(-0.0168805 -0.00184189 0)
(-0.0163988 -0.00189225 0)
(-0.015905 -0.00193823 0)
(-0.0154003 -0.00197976 0)
(-0.0148856 -0.0020168 0)
(-0.0143622 -0.00204931 0)
(-0.013831 -0.00207731 0)
(-0.0132932 -0.0021008 0)
(-0.0127498 -0.00211981 0)
(-0.012202 -0.0021344 0)
(-0.0116507 -0.00214461 0)
(-0.0110971 -0.00215048 0)
(-0.0105422 -0.00215205 0)
(-0.009987 -0.00214935 0)
(-0.00943255 -0.00214239 0)
(-0.0088799 -0.00213113 0)
(-0.00833011 -0.00211551 0)
(-0.00778426 -0.00209541 0)
(-0.00724349 -0.00207064 0)
(-0.00670898 -0.00204098 0)
(-0.00618198 -0.00200609 0)
(-0.00566383 -0.00196558 0)
(-0.00515598 -0.00191896 0)
(-0.00466 -0.00186567 0)
(-0.00417762 -0.00180506 0)
(-0.0037107 -0.00173642 0)
(-0.00326127 -0.00165899 0)
(-0.00283154 -0.00157202 0)
(-0.00242386 -0.00147479 0)
(-0.0020407 -0.00136672 0)
(-0.00168463 -0.00124743 0)
(-0.00135822 -0.00111693 0)
(-0.00106398 -0.000975791 0)
(-0.000804152 -0.000825393 0)
(-0.000580627 -0.000668242 0)
(-0.000394667 -0.000508363 0)
(-0.000246687 -0.000351747 0)
(-0.000135973 -0.000206853 0)
(-6.04479e-05 -8.50931e-05 0)
(-1.66448e-05 -1.30692e-06 0)
(1.90231e-07 2.57429e-05 0)
(-8.09962e-06 0.000197069 0)
(-0.000116199 0.000571037 0)
(-0.000313134 0.000911739 0)
(-0.000582215 0.00121155 0)
(-0.000909067 0.00146804 0)
(-0.00128314 0.0016822 0)
(-0.00169574 0.00185709 0)
(-0.00213945 0.00199697 0)
(-0.00260804 0.00210655 0)
(-0.00309622 0.00219056 0)
(-0.00359962 0.00225343 0)
(-0.00411458 0.00229915 0)
(-0.00463813 0.00233118 0)
(-0.00516782 0.00235246 0)
(-0.00570168 0.00236539 0)
(-0.00623816 0.00237194 0)
(-0.00677601 0.00237364 0)
(-0.00731422 0.00237169 0)
(-0.00785202 0.00236699 0)
(-0.00838878 0.0023602 0)
(-0.00892398 0.00235178 0)
(-0.0094572 0.00234205 0)
(-0.00998807 0.00233121 0)
(-0.0105163 0.00231937 0)
(-0.0110415 0.00230657 0)
(-0.0115635 0.00229279 0)
(-0.0120819 0.00227801 0)
(-0.0125964 0.00226215 0)
(-0.0131068 0.00224512 0)
(-0.0136128 0.00222685 0)
(-0.0141139 0.00220721 0)
(-0.0146098 0.00218611 0)
(-0.0151002 0.00216344 0)
(-0.0155846 0.00213908 0)
(-0.0160627 0.00211292 0)
(-0.016534 0.00208485 0)
(-0.016998 0.00205475 0)
(-0.0174542 0.00202251 0)
(-0.0179022 0.00198801 0)
(-0.0183414 0.00195115 0)
(-0.0187712 0.00191181 0)
(-0.0191911 0.00186988 0)
(-0.0196005 0.00182526 0)
(-0.0199987 0.00177785 0)
(-0.0203852 0.00172756 0)
(-0.0207593 0.00167428 0)
(-0.0211203 0.00161794 0)
(-0.0214675 0.00155846 0)
(-0.0218003 0.00149577 0)
(-0.022118 0.00142982 0)
(-0.0224198 0.00136056 0)
(-0.0227051 0.00128796 0)
(-0.0229731 0.00121199 0)
(-0.0232232 0.00113267 0)
(-0.0234547 0.00104999 0)
(-0.0236668 0.000963996 0)
(-0.023859 0.000874729 0)
(-0.0240304 0.000782262 0)
(-0.0241807 0.000686685 0)
(-0.024309 0.000588109 0)
(-0.0244148 0.000486669 0)
(-0.0244977 0.000382521 0)
(-0.0245571 0.000275845 0)
(-0.0245926 0.000166843 0)
(-0.0246037 5.57419e-05 0)
(-0.0245902 -5.72124e-05 0)
(-0.0245517 -0.000171752 0)
(-0.024488 -0.000287586 0)
(-0.0243989 -0.000404405 0)
(-0.0242844 -0.000521883 0)
(-0.0241444 -0.00063968 0)
(-0.023979 -0.000757438 0)
(-0.0237883 -0.00087479 0)
(-0.0235725 -0.000991363 0)
(-0.0233318 -0.00110677 0)
(-0.0230667 -0.00122064 0)
(-0.0227776 -0.00133257 0)
(-0.022465 -0.0014422 0)
(-0.0221294 -0.00154914 0)
(-0.0217716 -0.00165303 0)
(-0.0213922 -0.00175353 0)
(-0.020992 -0.0018503 0)
(-0.0205719 -0.00194303 0)
(-0.0201329 -0.00203142 0)
(-0.0196757 -0.00211522 0)
(-0.0192016 -0.00219419 0)
(-0.0187114 -0.00226811 0)
(-0.0182064 -0.00233681 0)
(-0.0176875 -0.00240014 0)
(-0.017156 -0.00245798 0)
(-0.0166129 -0.00251026 0)
(-0.0160595 -0.00255692 0)
(-0.0154968 -0.00259793 0)
(-0.0149261 -0.0026333 0)
(-0.0143485 -0.00266304 0)
(-0.0137651 -0.00268721 0)
(-0.0131771 -0.00270584 0)
(-0.0125856 -0.002719 0)
(-0.0119917 -0.00272674 0)
(-0.0113965 -0.00272912 0)
(-0.0108011 -0.00272616 0)
(-0.0102065 -0.00271786 0)
(-0.00961402 -0.00270419 0)
(-0.0090246 -0.00268504 0)
(-0.00843942 -0.00266027 0)
(-0.00785967 -0.00262966 0)
(-0.00728659 -0.00259289 0)
(-0.00672149 -0.00254957 0)
(-0.00616577 -0.00249919 0)
(-0.00562095 -0.00244115 0)
(-0.00508867 -0.00237475 0)
(-0.0045707 -0.00229919 0)
(-0.00406901 -0.0022136 0)
(-0.00358568 -0.00211707 0)
(-0.003123 -0.00200867 0)
(-0.00268338 -0.00188755 0)
(-0.00226939 -0.00175301 0)
(-0.00188365 -0.00160464 0)
(-0.00152882 -0.00144249 0)
(-0.00120748 -0.00126726 0)
(-0.000922 -0.00108065 0)
(-0.000674377 -0.000885627 0)
(-0.000466063 -0.00068693 0)
(-0.000297734 -0.000491478 0)
(-0.000169056 -0.000308893 0)
(-7.84991e-05 -0.00015195 0)
(-2.3471e-05 -3.69473e-05 0)
(-3.10129e-07 1.60231e-05 0)
(-8.8892e-06 0.000259193 0)
(-0.000127196 0.000733972 0)
(-0.000342199 0.00115657 0)
(-0.000635066 0.00152308 0)
(-0.000989613 0.00183389 0)
(-0.00139406 0.00209215 0)
(-0.00183887 0.00230269 0)
(-0.00231606 0.00247114 0)
(-0.002819 0.00260338 0)
(-0.00334217 0.00270512 0)
(-0.00388105 0.00278164 0)
(-0.00443187 0.00283764 0)
(-0.00499157 0.00287721 0)
(-0.00555766 0.00290378 0)
(-0.00612812 0.00292022 0)
(-0.00670132 0.00292882 0)
(-0.00727597 0.00293144 0)
(-0.00785103 0.00292948 0)
(-0.00842567 0.00292404 0)
(-0.0089992 0.00291591 0)
(-0.00957107 0.00290566 0)
(-0.0101408 0.00289368 0)
(-0.010708 0.00288023 0)
(-0.0112723 0.00286543 0)
(-0.0118334 0.00284935 0)
(-0.0123909 0.002832 0)