/*--------------------------------*- C++ -*----------------------------------*\
| =========                 |                                                 |
| \\      /  F ield         | OpenFOAM: The Open Source CFD Toolbox           |
|  \\    /   O peration     | Version:  2406                                  |
|   \\  /    A nd           | Website:  www.openfoam.com                      |
|    \\/     M anipulation  |                                                 |
\*---------------------------------------------------------------------------*/
FoamFile
{
    version     2.0;
    format      ascii;
    arch        "LSB;label=32;scalar=64";
    class       volVectorField;
    location    "5";
    object      U_0;
}
// * * * * * * * * * * * * * * * * * * * * * * * * * * * * * * * * * * * * * //

dimensions      [0 1 -1 0 0 0 0];

internalField   nonuniform List<vector> 
1024
(
(-8.06436e-05 7.41859e-05 0)
(-0.000588874 0.000145525 0)
(-0.0013294 0.000177878 0)
(-0.00214315 0.0001894 0)
(-0.00298289 0.000194125 0)
(-0.00383507 0.000198242 0)
(-0.00469806 0.000203211 0)
(-0.00557256 0.000209021 0)
(-0.00645857 0.000215317 0)
(-0.00735456 0.000221639 0)
(-0.00825707 0.00022743 0)
(-0.00916027 0.000231999 0)
(-0.0100555 0.000234471 0)
(-0.0109305 0.00023375 0)
(-0.0117692 0.0002285 0)
(-0.0125506 0.000217147 0)
(-0.0132488 0.000197922 0)
(-0.0138328 0.000168989 0)
(-0.0142669 0.000128672 0)
(-0.0145123 7.5735e-05 0)
(-0.014528 9.57184e-06 0)
(-0.0142762 -6.93384e-05 0)
(-0.0137271 -0.00015741 0)
(-0.012863 -0.000249781 0)
(-0.0116847 -0.000339718 0)
(-0.0102154 -0.00041919 0)
(-0.00850224 -0.000479908 0)
(-0.00661692 -0.000513935 0)
(-0.00465718 -0.000512103 0)
(-0.00275419 -0.000458572 0)
(-0.00107776 -0.000333304 0)
(-7.96141e-05 -0.000115443 0)
(-0.00017116 0.000600064 0)
(-0.0012429 0.0011824 0)
(-0.00269698 0.00143039 0)
(-0.0042889 0.00152035 0)
(-0.00592524 0.00155451 0)
(-0.00757966 0.00157468 0)
(-0.00924583 0.00159311 0)
(-0.0109213 0.00161125 0)
(-0.0126028 0.00162721 0)
(-0.0142845 0.00163796 0)
(-0.0159574 0.0016397 0)
(-0.0176084 0.00162777 0)
(-0.0192195 0.00159654 0)
(-0.0207668 0.00153938 0)
(-0.0222201 0.00144864 0)
(-0.0235417 0.00131593 0)
(-0.0246868 0.00113252 0)
(-0.0256032 0.000890222 0)
(-0.0262331 0.000582514 0)
(-0.0265154 0.000205956 0)
(-0.0263885 -0.000238255 0)
(-0.0257959 -0.000741448 0)
(-0.0246962 -0.00128518 0)
(-0.0230691 -0.00184225 0)
(-0.0209224 -0.00237749 0)
(-0.0182979 -0.00285074 0)
(-0.0152739 -0.00322036 0)
(-0.0119656 -0.00344376 0)
(-0.00852709 -0.00346815 0)
(-0.00516329 -0.00320155 0)
(-0.00216604 -0.00246582 0)
(-0.000193485 -0.00101826 0)
(-0.000219727 0.00141716 0)
(-0.00156917 0.00267634 0)
(-0.00335037 0.00318542 0)
(-0.00529249 0.00337042 0)
(-0.00728313 0.00343879 0)
(-0.0092913 0.00347342 0)
(-0.0113081 0.00349954 0)
(-0.0133286 0.00352072 0)
(-0.0153474 0.00353349 0)
(-0.0173563 0.00353178 0)
(-0.0193437 0.00350782 0)
(-0.0212934 0.00345211 0)
(-0.0231839 0.00335331 0)
(-0.0249871 0.00319818 0)
(-0.026668 0.0029718 0)
(-0.0281833 0.00265805 0)
(-0.0294816 0.00224063 0)
(-0.0305038 0.00170466 0)
(-0.0311843 0.00103894 0)
(-0.0314541 0.000238633 0)
(-0.0312428 -0.00069172 0)
(-0.0304856 -0.00173231 0)
(-0.0291341 -0.00284667 0)
(-0.0271642 -0.00398048 0)
(-0.024586 -0.00506388 0)
(-0.0214512 -0.00601711 0)
(-0.0178576 -0.00675748 0)
(-0.0139491 -0.00720132 0)
(-0.00991407 -0.00724743 0)
(-0.00599437 -0.00672024 0)
(-0.00252687 -0.00526668 0)
(-0.000217542 -0.00229814 0)
(-0.000239822 0.00234052 0)
(-0.00170599 0.00435602 0)
(-0.00362716 0.00515072 0)
(-0.00571741 0.00543705 0)
(-0.00785596 0.00554024 0)
(-0.0100112 0.00558776 0)
(-0.012174 0.00561867 0)
(-0.0143393 0.00563892 0)
(-0.0165014 0.00564352 0)
(-0.0186521 0.00562339 0)
(-0.0207798 0.00556673 0)
(-0.0228685 0.00545907 0)
(-0.0248967 0.00528309 0)
(-0.0268365 0.00501862 0)
(-0.0286522 0.00464289 0)
(-0.0302996 0.00413132 0)
(-0.0317251 0.00345901 0)
(-0.0328658 0.00260305 0)
(-0.0336503 0.00154594 0)
(-0.0340013 0.000279968 0)
(-0.0338362 -0.00118775 0)
(-0.0330742 -0.00282915 0)
(-0.0316508 -0.00458761 0)
(-0.0295274 -0.00637827 0)
(-0.0267054 -0.00808915 0)
(-0.0232404 -0.00958937 0)
(-0.0192515 -0.0107417 0)
(-0.0149223 -0.0114105 0)
(-0.0104903 -0.0114411 0)
(-0.00624679 -0.0105752 0)
(-0.00256546 -0.00828578 0)
(-0.000187256 -0.00363594 0)
(-0.000244373 0.00330602 0)
(-0.00174965 0.00610839 0)
(-0.00372228 0.00719829 0)
(-0.0058686 0.00758774 0)
(-0.00806404 0.00772609 0)
(-0.0102775 0.00778714 0)
(-0.0125012 0.00782406 0)
(-0.0147312 0.00784525 0)
(-0.0169632 0.00784441 0)
(-0.0191907 0.00780968 0)
(-0.0214043 0.00772545 0)
(-0.0235903 0.00757243 0)
(-0.0257297 0.00732736 0)
(-0.0277969 0.0069629 0)
(-0.0297584 0.00644786 0)
(-0.031571 0.00574812 0)
(-0.0331802 0.00482832 0)
(-0.0345195 0.00365487 0)
(-0.0355098 0.00220046 0)
(-0.0360609 0.000450491 0)
(-0.0360719 -0.00158961 0)
(-0.0354358 -0.00388868 0)
(-0.0340557 -0.00637123 0)
(-0.031863 -0.00891792 0)
(-0.0288365 -0.0113632 0)
(-0.0250292 -0.0135056 0)
(-0.0205894 -0.0151282 0)
(-0.0157643 -0.0160217 0)
(-0.0108767 -0.0159705 0)
(-0.00630258 -0.0146447 0)
(-0.0024626 -0.0113723 0)
(-0.00012335 -0.00492082 0)
(-0.000242051 0.00428001 0)
(-0.00175119 0.00788116 0)
(-0.00373565 0.00927246 0)
(-0.00589813 0.00976763 0)
(-0.00811251 0.00994346 0)
(-0.0103487 0.0100215 0)
(-0.0126006 0.0100695 0)
(-0.0148664 0.0100987 0)
(-0.0171444 0.0101017 0)
(-0.0194313 0.0100643 0)
(-0.021721 0.00996748 0)
(-0.0240039 0.00978746 0)
(-0.0262653 0.00949517 0)
(-0.0284842 0.00905588 0)
(-0.0306309 0.00842924 0)
(-0.0326651 0.00756997 0)
(-0.0345329 0.00642956 0)
(-0.0361643 0.00495956 0)
(-0.0374706 0.00311714 0)
(-0.0383446 0.000873525 0)
(-0.038661 -0.00177615 0)
(-0.0382736 -0.00480509 0)
(-0.0370344 -0.00812394 0)
(-0.0348232 -0.0115756 0)
(-0.0315741 -0.0149253 0)
(-0.0273248 -0.0178685 0)
(-0.0222615 -0.0200634 0)
(-0.016734 -0.0211845 0)
(-0.0112111 -0.0209398 0)
(-0.00621541 -0.0189546 0)
(-0.00223209 -0.0144791 0)
(-2.3327e-05 -0.0060845 0)
(-0.000236385 0.00524672 0)
(-0.00173318 0.00965072 0)
(-0.00371173 0.011349 0)
(-0.00587303 0.0119538 0)
(-0.00809042 0.0121713 0)
(-0.0103349 0.012272 0)
(-0.0126025 0.012339 0)
(-0.0148942 0.0123866 0)
(-0.0172115 0.0124073 0)
(-0.0195551 0.0123849 0)
(-0.0219237 0.0122977 0)
(-0.0243133 0.0121179 0)
(-0.0267153 0.0118109 0)
(-0.0291152 0.0113346 0)
(-0.0314899 0.0106388 0)
(-0.0338044 0.00966526 0)
(-0.0360077 0.0083491 0)
(-0.0380284 0.00662173 0)
(-0.0397686 0.00441702 0)
(-0.0411015 0.00168158 0)
(-0.0418723 -0.0016135 0)
(-0.0418829 -0.00546121 0)
(-0.0409097 -0.00976703 0)
(-0.0387483 -0.0143383 0)
(-0.0352509 -0.0188524 0)
(-0.03041 -0.0228526 0)
(-0.024453 -0.0257923 0)
(-0.0178905 -0.0271476 0)
(-0.0114421 -0.0265188 0)
(-0.00588807 -0.0235472 0)
(-0.0018044 -0.0175382 0)
(0.000127385 -0.00703511 0)
(-0.000228498 0.00619807 0)
(-0.00170389 0.0114055 0)
(-0.00366709 0.0134161 0)
(-0.00581811 0.0141357 0)
(-0.00803011 0.0144 0)
(-0.0102753 0.0145302 0)
(-0.0125518 0.0146255 0)
(-0.0148638 0.0147044 0)
(-0.0172167 0.0147595 0)
(-0.019616 0.0147737 0)
(-0.0220664 0.0147234 0)
(-0.0245706 0.0145778 0)
(-0.0271283 0.0142975 0)
(-0.0297341 0.0138335 0)
(-0.0323744 0.0131253 0)
(-0.0350235 0.0121004 0)
(-0.0376383 0.0106742 0)
(-0.04015 0.00875192 0)
(-0.0424552 0.00623343 0)
(-0.04441 0.00302352 0)
(-0.0458294 -0.000948309 0)
(-0.0464478 -0.00569713 0)
(-0.0459352 -0.0111751 0)
(-0.0439592 -0.0171616 0)
(-0.0402243 -0.0232291 0)
(-0.0346146 -0.028697 0)
(-0.0273821 -0.0326766 0)
(-0.0192766 -0.0342859 0)
(-0.0114471 -0.0329507 0)
(-0.00513208 -0.0284563 0)
(-0.00105386 -0.0204091 0)
(0.000350864 -0.00762564 0)
(-0.000218623 0.00712843 0)
(-0.00166545 0.0131378 0)
(-0.00360612 0.0154665 0)
(-0.0057398 0.016306 0)
(-0.00793945 0.0166228 0)
(-0.0101783 0.0167897 0)
(-0.0124568 0.0169234 0)
(-0.0147823 0.0170472 0)
(-0.0171647 0.0171549 0)
(-0.0196148 0.0172298 0)
(-0.0221442 0.0172475 0)
(-0.024764 0.0171754 0)
(-0.0274841 0.0169711 0)
(-0.0303112 0.0165794 0)
(-0.0332453 0.0159307 0)
(-0.0362758 0.0149377 0)
(-0.0393742 0.0134938 0)
(-0.0424844 0.0114724 0)
(-0.0455088 0.00872894 0)
(-0.0482906 0.00510971 0)
(-0.0505962 0.000476693 0)
(-0.0521145 -0.00525599 0)
(-0.0523938 -0.0121228 0)
(-0.0508794 -0.0199168 0)
(-0.0470323 -0.028108 0)
(-0.0405097 -0.0357014 0)
(-0.0315247 -0.0412371 0)
(-0.0211456 -0.0431701 0)
(-0.0112085 -0.0406054 0)
(-0.00374376 -0.0337204 0)
(0.000182601 -0.022851 0)
(0.000669382 -0.00762299 0)
(-0.000206711 0.00803249 0)
(-0.00161783 0.0148408 0)
(-0.00352876 0.017493 0)
(-0.00563772 0.0184578 0)
(-0.00781719 0.0188323 0)
(-0.0100411 0.0190429 0)
(-0.0123122 0.0192245 0)
(-0.014641 0.0194067 0)
(-0.0170419 0.0195857 0)
(-0.0195316 0.0197461 0)
(-0.0221292 0.0198648 0)
(-0.0248556 0.0199095 0)
(-0.0277329 0.0198366 0)
(-0.0307829 0.0195876 0)
(-0.0340244 0.0190857 0)
(-0.0374684 0.0182305 0)
(-0.0411111 0.0168936 0)
(-0.0449217 0.0149134 0)
(-0.0488237 0.0120923 0)
(-0.0526667 0.00819978 0)
(-0.0561989 0.00298905 0)
(-0.059055 -0.00376845 0)
(-0.0606392 -0.0122194 0)
(-0.0601196 -0.0222935 0)
(-0.056575 -0.0334024 0)
(-0.0492491 -0.0441438 0)
(-0.0381619 -0.0521433 0)
(-0.0246819 -0.0546582 0)
(-0.0115131 -0.0501506 0)
(-0.001902 -0.0394998 0)
(0.00200908 -0.0245996 0)
(0.00110133 -0.0066995 0)
(-0.000192679 0.00890463 0)
(-0.0015605 0.0165069 0)
(-0.00343384 0.019488 0)
(-0.00550972 0.020583 0)
(-0.00765967 0.0210197 0)
(-0.0098579 0.0212795 0)
(-0.0121089 0.0215174 0)
(-0.0144264 0.02177 0)
(-0.016829 0.0220375 0)
(-0.0193395 0.0223076 0)
(-0.0219849 0.0225604 0)
(-0.0247966 0.0227665 0)
(-0.0278106 0.0228845 0)
(-0.031067 0.0228564 0)
(-0.0346077 0.0226027 0)
(-0.0384738 0.0220145 0)
(-0.042698 0.0209454 0)
(-0.0472932 0.0192001 0)
(-0.0522304 0.016523 0)
(-0.0574023 0.0125878 0)
(-0.062577 0.00699897 0)
(-0.0673572 -0.000668352 0)
(-0.0710588 -0.0107774 0)
(-0.0725674 -0.0235876 0)
(-0.0704429 -0.0385707 0)
(-0.0632996 -0.0538913 0)
(-0.0506518 -0.0658801 0)
(-0.0337799 -0.0698708 0)
(-0.0158197 -0.0630832 0)
(-0.00146963 -0.0468491 0)
(0.00407312 -0.0256902 0)
(0.00166257 -0.00454346 0)
(-0.000176528 0.00973899 0)
(-0.00149322 0.0181281 0)
(-0.00332057 0.021443 0)
(-0.00535409 0.0226722 0)
(-0.00746371 0.0231739 0)
(-0.00962323 0.0234866 0)
(-0.0118384 0.0237866 0)
(-0.0141255 0.024119 0)
(-0.0165072 0.0244893 0)
(-0.0190116 0.0248904 0)
(-0.0216736 0.0253077 0)
(-0.0245352 0.0257182 0)
(-0.0276472 0.0260866 0)
(-0.0310695 0.0263613 0)
(-0.034872 0.0264669 0)
(-0.0391326 0.026295 0)
(-0.0439343 0.0256911 0)
(-0.0493554 0.0244366 0)
(-0.0554511 0.0222247 0)
(-0.062213 0.018632 0)
(-0.0695007 0.0130922 0)
(-0.0769715 0.00490376 0)
(-0.0840449 -0.00668276 0)
(-0.0894885 -0.0222761 0)
(-0.0913378 -0.0418723 0)
(-0.0873136 -0.0633382 0)
(-0.0757078 -0.0815403 0)
(-0.056686 -0.0893352 0)
(-0.0323804 -0.082078 0)
(-0.00805344 -0.0593012 0)
(0.00490431 -0.0278898 0)
(0.00225673 -0.00121891 0)
(-0.000158394 0.0105298 0)
(-0.00141633 0.0196962 0)
(-0.00318926 0.023349 0)
(-0.00517068 0.0247148 0)
(-0.00722811 0.0252823 0)
(-0.00933411 0.0256486 0)
(-0.0114949 0.026013 0)
(-0.0137286 0.0264305 0)
(-0.0160607 0.0269131 0)
(-0.0185242 0.0274609 0)
(-0.0211606 0.0280675 0)
(-0.0240218 0.0287194 0)
(-0.0271723 0.0293928 0)
(-0.0306925 0.0300488 0)
(-0.0346811 0.0306263 0)
(-0.0392585 0.0310308 0)
(-0.0445685 0.0311178 0)
(-0.050777 0.0306684 0)
(-0.0580635 0.0293522 0)
(-0.0665934 0.0266777 0)
(-0.0764629 0.0219353 0)
(-0.0876226 0.0141533 0)
(-0.0997856 0.0021055 0)
(-0.112219 -0.01548 0)
(-0.122586 -0.039429 0)
(-0.126544 -0.0683077 0)
(-0.119821 -0.0957372 0)
(-0.100872 -0.111818 0)
(-0.069781 -0.109916 0)
(-0.030803 -0.0838417 0)
(0.00116233 -0.036221 0)
(0.00311164 0.00199594 0)
(-0.0001386 0.0112716 0)
(-0.00133109 0.0212035 0)
(-0.00304183 0.025197 0)
(-0.00496161 0.0267002 0)
(-0.00695463 0.0273313 0)
(-0.00899119 0.0277481 0)
(-0.011077 0.0281745 0)
(-0.0132308 0.0286766 0)
(-0.0154801 0.0292744 0)
(-0.0178608 0.0299768 0)
(-0.0204193 0.0307878 0)
(-0.0232149 0.0317072 0)
(-0.0263236 0.0327276 0)
(-0.0298431 0.0338311 0)
(-0.0338989 0.034982 0)
(-0.0386528 0.0361167 0)
(-0.0443133 0.0371268 0)
(-0.0511475 0.0378312 0)
(-0.059494 0.0379318 0)
(-0.0697658 0.0369499 0)
(-0.0824547 0.0341608 0)
(-0.0981883 0.0285351 0)
(-0.117674 0.0185081 0)
(-0.140708 0.00143533 0)
(-0.163589 -0.0260683 0)
(-0.177468 -0.0649086 0)
(-0.17555 -0.106907 0)
(-0.158038 -0.137175 0)
(-0.123368 -0.148942 0)
(-0.0735054 -0.127376 0)
(-0.014509 -0.0592506 0)
(0.00493108 0.00309669 0)
(-0.000117682 0.0119601 0)
(-0.00123984 0.0226432 0)
(-0.00288218 0.0269789 0)
(-0.00473191 0.0286177 0)
(-0.00664882 0.0293067 0)
(-0.00859984 0.0297665 0)
(-0.010589 0.0302469 0)
(-0.0126347 0.0308262 0)
(-0.0147644 0.0315335 0)
(-0.0170151 0.0323875 0)
(-0.0194352 0.033405 0)
(-0.0220878 0.0346016 0)
(-0.0250556 0.0359913 0)
(-0.0284472 0.0375837 0)
(-0.032407 0.0393808 0)
(-0.0371291 0.0413692 0)
(-0.0428769 0.0435076 0)
(-0.0500131 0.0457048 0)
(-0.059044 0.047783 0)
(-0.0706709 0.0494258 0)
(-0.0858804 0.0501405 0)
(-0.106226 0.0491699 0)
(-0.133781 0.0445407 0)
(-0.168082 0.0303363 0)
(-0.200058 -0.0031414 0)
(-0.215927 -0.0595076 0)
(-0.214332 -0.120117 0)
(-0.201516 -0.165951 0)
(-0.172119 -0.196299 0)
(-0.12514 -0.187688 0)
(-0.0538541 -0.113811 0)
(0.00765275 -0.00738318 0)
(-9.64284e-05 0.0125929 0)
(-0.0011462 0.0240112 0)
(-0.00271662 0.0286884 0)
(-0.00449002 0.0304582 0)
(-0.00632061 0.0311953 0)
(-0.00817092 0.0316852 0)
(-0.0100423 0.0322051 0)
(-0.011951 0.0328462 0)
(-0.0139231 0.0336473 0)
(-0.0159941 0.0346376 0)
(-0.0182109 0.0358473 0)
(-0.0206357 0.0373097 0)
(-0.0233504 0.0390625 0)
(-0.026465 0.0411484 0)
(-0.0301286 0.0436157 0)
(-0.0345472 0.0465178 0)
(-0.0400109 0.0499104 0)
(-0.0469383 0.053847 0)
(-0.0559526 0.058374 0)
(-0.0679757 0.0635258 0)
(-0.0843409 0.0692845 0)
(-0.107177 0.0750866 0)
(-0.139123 0.077156 0)
(-0.177221 0.0634207 0)
(-0.206952 0.0185789 0)
(-0.215178 -0.0562647 0)
(-0.212888 -0.129057 0)
(-0.207804 -0.1868 0)
(-0.190831 -0.235252 0)
(-0.161402 -0.249905 0)
(-0.105531 -0.19981 0)
(0.00169062 -0.0387716 0)
(-7.59125e-05 0.01317 0)
(-0.00105533 0.0253065 0)
(-0.00255421 0.0303224 0)
(-0.00424827 0.0322146 0)
(-0.00598497 0.0329852 0)
(-0.00772147 0.0334867 0)
(-0.00945539 0.0340248 0)
(-0.0112 0.0347039 0)
(-0.0129778 0.0355724 0)
(-0.0148204 0.03667 0)
(-0.0167697 0.0380396 0)
(-0.0188811 0.0397317 0)
(-0.0212278 0.0418077 0)
(-0.0239083 0.0443441 0)
(-0.0270576 0.0474382 0)
(-0.0308643 0.0512174 0)
(-0.0355983 0.0558514 0)
(-0.0416582 0.0615759 0)
(-0.0496554 0.0687335 0)
(-0.060519 0.0778129 0)
(-0.0754917 0.0892017 0)
(-0.0962312 0.101641 0)
(-0.124586 0.1079 0)
(-0.155534 0.0907341 0)
(-0.175334 0.0349661 0)
(-0.177138 -0.0498778 0)
(-0.176348 -0.127355 0)
(-0.17454 -0.191208 0)
(-0.167551 -0.248747 0)
(-0.156265 -0.288386 0)
(-0.124505 -0.275262 0)
(-0.0250993 -0.101667 0)
(-5.75425e-05 0.0136948 0)
(-0.00097413 0.0265328 0)
(-0.00240714 0.0318818 0)
(-0.00402336 0.0338836 0)
(-0.00566223 0.0346678 0)
(-0.007275 0.0351561 0)
(-0.00885501 0.0356839 0)
(-0.0104115 0.0363688 0)
(-0.0119624 0.0372681 0)
(-0.0135329 0.0384303 0)
(-0.0151567 0.0399095 0)
(-0.0168772 0.0417705 0)
(-0.0187508 0.0440945 0)
(-0.0208522 0.0469864 0)
(-0.0232814 0.0505855 0)
(-0.0261758 0.0550833 0)
(-0.0297284 0.060751 0)
(-0.0342162 0.0679871 0)
(-0.0400508 0.0773895 0)
(-0.0478412 0.0897751 0)
(-0.0582844 0.105607 0)
(-0.0720972 0.122425 0)
(-0.0908376 0.129961 0)
(-0.110502 0.108827 0)
(-0.122137 0.0461433 0)
(-0.122992 -0.0434694 0)
(-0.124656 -0.124598 0)
(-0.123716 -0.190939 0)
(-0.122353 -0.2472 0)
(-0.120964 -0.300535 0)
(-0.108343 -0.32809 0)
(-0.0437394 -0.202785 0)
(-4.31381e-05 0.0141756 0)
(-0.00091163 0.0277004 0)
(-0.0022913 0.0333732 0)
(-0.00383683 0.0354661 0)
(-0.00537849 0.0362379 0)
(-0.00686161 0.0366819 0)
(-0.00827531 0.0371642 0)
(-0.0096246 0.0378149 0)
(-0.010922 0.0386991 0)
(-0.0121855 0.039872 0)
(-0.0134377 0.0413952 0)
(-0.0147067 0.0433429 0)
(-0.0160264 0.0458087 0)
(-0.0174381 0.0489147 0)
(-0.0189925 0.0528249 0)
(-0.0207517 0.0577666 0)
(-0.0227918 0.0640652 0)
(-0.0252027 0.0721987 0)
(-0.0280848 0.0828676 0)
(-0.0315444 0.0969656 0)
(-0.0355954 0.114854 0)
(-0.0401571 0.133435 0)
(-0.0470306 0.141252 0)
(-0.0549628 0.119046 0)
(-0.061268 0.055094 0)
(-0.0654668 -0.0360864 0)
(-0.0727253 -0.122409 0)
(-0.0767686 -0.193003 0)
(-0.0822775 -0.247234 0)
(-0.0862298 -0.30267 0)
(-0.0836819 -0.357288 0)
(-0.0303599 -0.278564 0)
(-3.51175e-05 0.0146266 0)
(-0.000879615 0.0288276 0)
(-0.002227 0.0348106 0)
(-0.00371572 0.0369691 0)
(-0.00516585 0.0376953 0)
(-0.00651773 0.0380574 0)
(-0.00775727 0.0384524 0)
(-0.00888596 0.0390226 0)
(-0.0099113 0.0398389 0)
(-0.0108436 0.0409604 0)
(-0.0116944 0.0424516 0)
(-0.0124749 0.0443899 0)
(-0.0131945 0.0468717 0)
(-0.0138586 0.0500216 0)
(-0.0144645 0.0540053 0)
(-0.0149943 0.059049 0)
(-0.0154017 0.0654693 0)
(-0.0155876 0.0737193 0)
(-0.015352 0.084438 0)
(-0.0143302 0.0983815 0)
(-0.0119473 0.115766 0)
(-0.00753375 0.133963 0)
(-0.00274684 0.142392 0)
(0.00117423 0.122749 0)
(0.000654359 0.0625161 0)
(-0.00568615 -0.0246019 0)
(-0.0174238 -0.111347 0)
(-0.0269948 -0.183536 0)
(-0.0411322 -0.237384 0)
(-0.053066 -0.295157 0)
(-0.0632398 -0.371246 0)
(-0.0217153 -0.325696 0)
(-3.66621e-05 0.0150697 0)
(-0.000893332 0.0299424 0)
(-0.00223997 0.0362147 0)
(-0.00369353 0.0384036 0)
(-0.00506305 0.0390428 0)
(-0.00628611 0.0392785 0)
(-0.00734776 0.0395394 0)
(-0.00824788 0.0399786 0)
(-0.00899049 0.0406704 0)
(-0.00957967 0.0416747 0)
(-0.0100168 0.0430546 0)
(-0.010298 0.0448836 0)
(-0.0104103 0.0472514 0)
(-0.0103272 0.050271 0)
(-0.0099999 0.0540881 0)
(-0.00934488 0.0588945 0)
(-0.00821931 0.0649449 0)
(-0.00638231 0.0725763 0)
(-0.00343419 0.0822464 0)
(0.0012553 0.0944762 0)
(0.00877807 0.109318 0)
(0.0202298 0.124844 0)
(0.0341821 0.133017 0)
(0.047297 0.118283 0)
(0.0539794 0.0664048 0)
(0.0506065 -0.0125243 0)
(0.0371444 -0.0949654 0)
(0.0222267 -0.164717 0)
(-0.00178863 -0.215299 0)
(-0.022214 -0.27392 0)
(-0.0448269 -0.372521 0)
(-0.0150322 -0.364607 0)
(-5.28261e-05 0.0155382 0)
(-0.000974361 0.031089 0)
(-0.00236435 0.0376222 0)
(-0.00381188 0.0397944 0)
(-0.00511529 0.0402936 0)
(-0.00621433 0.0403497 0)
(-0.00709712 0.0404234 0)
(-0.00776505 0.0406774 0)
(-0.0082213 0.0411872 0)
(-0.00846624 0.0420096 0)
(-0.00849402 0.043202 0)
(-0.00828914 0.0448282 0)
(-0.00782214 0.0469636 0)
(-0.00704328 0.0496989 0)
(-0.00587292 0.0531444 0)
(-0.00418821 0.0574371 0)
(-0.00180201 0.0627305 0)
(0.00159707 0.0692571 0)
(0.00652619 0.077232 0)
(0.0136942 0.0868502 0)
(0.0241361 0.0979507 0)
(0.0389834 0.1089 0)
(0.0574419 0.114382 0)
(0.0762283 0.103347 0)
(0.0886099 0.0630632 0)
(0.0894433 -0.00329814 0)
(0.0763284 -0.0775616 0)
(0.0571233 -0.143077 0)
(0.0230207 -0.189978 0)
(-0.00392788 -0.249748 0)
(-0.0345008 -0.366182 0)
(-0.00872538 -0.387033 0)
(-8.93951e-05 0.0160773 0)
(-0.00114889 0.0323169 0)
(-0.00264167 0.0390591 0)
(-0.00412281 0.0411446 0)
(-0.00537906 0.0414397 0)
(-0.00635926 0.0412598 0)
(-0.00706159 0.0410943 0)
(-0.00749441 0.041112 0)
(-0.00766429 0.0413869 0)
(-0.00757139 0.0419698 0)
(-0.00720627 0.0429088 0)
(-0.00654669 0.0442543 0)
(-0.00555359 0.0460624 0)
(-0.00416573 0.0483963 0)
(-0.00228994 0.051324 0)
(0.000198602 0.0549191 0)
(0.00353553 0.0592744 0)
(0.00802516 0.0644737 0)
(0.0140889 0.0705395 0)
(0.0223643 0.0773529 0)
(0.0336481 0.084512 0)
(0.0487446 0.090664 0)
(0.0672767 0.0924468 0)
(0.0871507 0.0831751 0)
(0.101736 0.0535564 0)
(0.106611 0.00234234 0)
(0.095243 -0.0586959 0)
(0.0748332 -0.115436 0)
(0.0364757 -0.158346 0)
(0.00744496 -0.22229 0)
(-0.0292062 -0.358946 0)
(-0.00644446 -0.410151 0)
(-0.000162382 0.0167634 0)
(-0.00147057 0.033736 0)
(-0.00314287 0.040639 0)
(-0.00469336 0.0425549 0)
(-0.00591045 0.0425538 0)
(-0.00676997 0.0420538 0)
(-0.0072875 0.0415775 0)
(-0.00748279 0.0412984 0)
(-0.00736925 0.0412844 0)
(-0.00695036 0.0415759 0)
(-0.006217 0.0422075 0)
(-0.00514501 0.043213 0)
(-0.00369265 0.0446275 0)
(-0.001799 0.0464862 0)
(0.000625669 0.0488135 0)
(0.00372687 0.0516512 0)
(0.00769793 0.0550228 0)
(0.0127784 0.058869 0)
(0.0193014 0.0630956 0)
(0.0277026 0.0674374 0)
(0.0384736 0.071361 0)
(0.0520592 0.0737501 0)
(0.0681349 0.0724993 0)
(0.0857001 0.0638137 0)
(0.0993136 0.0421569 0)
(0.105632 0.00503694 0)
(0.0960734 -0.0421031 0)
(0.0779523 -0.0883737 0)
(0.0399945 -0.124866 0)
(0.0137536 -0.189052 0)
(-0.0267285 -0.344898 0)
(-0.00266683 -0.426967 0)
(-0.000284184 0.0176836 0)
(-0.00196203 0.0353707 0)
(-0.00391226 0.0422424 0)
(-0.0056072 0.0438141 0)
(-0.00681435 0.043434 0)
(-0.0075455 0.0425798 0)
(-0.00785714 0.0417738 0)
(-0.0077963 0.0411792 0)
(-0.00739157 0.0408539 0)
(-0.00665353 0.0408277 0)
(-0.00557579 0.0411217 0)
(-0.00413521 0.041754 0)
(-0.0022916 0.0427402 0)
(5.14272e-06 0.0440893 0)
(0.00285441 0.0458063 0)
(0.00637743 0.0478947 0)
(0.0107057 0.050303 0)
(0.0160215 0.0529343 0)
(0.022542 0.0556161 0)
(0.0305128 0.0580358 0)
(0.0401511 0.0596717 0)
(0.0516219 0.0596487 0)
(0.0644509 0.0566248 0)
(0.0782402 0.0484431 0)
(0.0887734 0.0321744 0)
(0.0945638 0.00592369 0)
(0.0866939 -0.028242 0)
(0.0715308 -0.0639722 0)
(0.0355613 -0.0951007 0)
(0.013416 -0.16254 0)
(-0.0290181 -0.338676 0)
(-0.00182187 -0.448223 0)
(-0.000480363 0.018913 0)
(-0.00290971 0.0375739 0)
(-0.00521433 0.0444897 0)
(-0.00698813 0.0456686 0)
(-0.00809352 0.0446925 0)
(-0.00864926 0.0432569 0)
(-0.00873635 0.0419427 0)
(-0.00841653 0.0409112 0)
(-0.00772795 0.0401968 0)
(-0.00668858 0.039802 0)
(-0.00529706 0.0397236 0)
(-0.00353419 0.0399578 0)
(-0.00136717 0.0405 0)
(0.00125424 0.0413357 0)
(0.00441306 0.0424648 0)
(0.00819672 0.0438393 0)
(0.012696 0.0453933 0)
(0.0180242 0.0470095 0)
(0.0242944 0.0484993 0)
(0.0316038 0.0495655 0)
(0.0399742 0.0497694 0)
(0.0493853 0.0484722 0)
(0.0592244 0.0448101 0)
(0.0693597 0.0376169 0)
(0.0765751 0.0253827 0)
(0.0806065 0.00719193 0)
(0.0738883 -0.0164226 0)
(0.0621332 -0.0422198 0)
(0.0307571 -0.067067 0)
(0.0144635 -0.135055 0)
(-0.0297136 -0.327036 0)
(0.00146008 -0.466552 0)
(-0.000844321 0.0215839 0)
(-0.00370082 0.0401686 0)
(-0.00688439 0.0459728 0)
(-0.00901714 0.0460246 0)
(-0.0101352 0.0445021 0)
(-0.01045 0.0427642 0)
(-0.0102037 0.0412268 0)
(-0.00952761 0.0399708 0)
(-0.00849246 0.039006 0)
(-0.00712462 0.0383277 0)
(-0.00542211 0.0379282 0)
(-0.0033639 0.0377977 0)
(-0.000921337 0.037924 0)
(0.00195932 0.0382831 0)
(0.00534263 0.0388635 0)
(0.00928304 0.0396054 0)
(0.0138405 0.0404413 0)
(0.0190709 0.041256 0)
(0.0250066 0.0418836 0)
(0.0316426 0.0420788 0)
(0.0388802 0.0415105 0)
(0.0465873 0.0397439 0)
(0.0541259 0.0362335 0)
(0.0614177 0.030412 0)
(0.0659839 0.0214647 0)
(0.0681657 0.00915805 0)
(0.062105 -0.00642482 0)
(0.0529275 -0.0242012 0)
(0.026484 -0.0435235 0)
(0.0167798 -0.109318 0)
(-0.0285859 -0.319334 0)
(0.006118 -0.485026 0)
(-0.00187705 0.0213642 0)
(-0.00729722 0.0439705 0)
(-0.00941527 0.0505848 0)
(-0.0114317 0.0502764 0)
(-0.012185 0.0473977 0)
(-0.0122238 0.0443955 0)
(-0.0116921 0.0418227 0)
(-0.0107407 0.0397665 0)
(-0.00943475 0.0381776 0)
(-0.0078027 0.0369856 0)
(-0.0058462 0.0361306 0)
(-0.00354826 0.03556 0)
(-0.000887484 0.0352352 0)
(0.00218835 0.0351154 0)
(0.00572678 0.0351733 0)
(0.00975874 0.0353452 0)
(0.0143181 0.0355782 0)
(0.0194178 0.0357665 0)
(0.0250374 0.0357914 0)
(0.031107 0.0354673 0)
(0.0374638 0.0345756 0)
(0.0439117 0.0328399 0)
(0.0498592 0.0299396 0)
(0.0551879 0.0256183 0)
(0.0580104 0.0194299 0)
(0.0589347 0.0115286 0)
(0.0533658 0.00170008 0)
(0.0462597 -0.00980509 0)
(0.0249419 -0.0257421 0)
(0.0235154 -0.0877904 0)
(-0.0202336 -0.314373 0)
(0.0154318 -0.499872 0)
(-0.00122537 0.0359728 0)
(-0.00840512 0.0478511 0)
(-0.0165746 0.0490243 0)
(-0.0175582 0.045548 0)
(-0.0172013 0.0425336 0)
(-0.0158828 0.0399521 0)
(-0.0143613 0.0379649 0)
(-0.0126983 0.0363915 0)
(-0.0109031 0.0351176 0)
(-0.00892836 0.0340657 0)
(-0.00671779 0.0332019 0)
(-0.00421398 0.0324938 0)
(-0.00137249 0.0319356 0)
(0.00186614 0.0314905 0)
(0.00553793 0.0311661 0)
(0.0096596 0.0308949 0)
(0.0142414 0.0306732 0)
(0.0192648 0.0304023 0)
(0.024679 0.0300377 0)
(0.0303792 0.0294395 0)
(0.0361845 0.0284974 0)
(0.0418781 0.0270698 0)
(0.0469522 0.0249582 0)
(0.051273 0.0221837 0)
(0.053415 0.0183449 0)
(0.0540645 0.0139606 0)
(0.0497078 0.00828931 0)
(0.0452859 0.000794475 0)
(0.0296431 -0.0156877 0)
(0.0380605 -0.0726927 0)
(0.00302322 -0.308331 0)
(0.0345405 -0.50584 0)
(-0.00297059 0.0201101 0)
(-0.00967215 0.0598597 0)
(-0.00719524 0.0618155 0)
(-0.0130649 0.0565466 0)
(-0.015182 0.0503973 0)
(-0.0167759 0.0457954 0)
(-0.0170283 0.0420843 0)
(-0.0162395 0.0390477 0)
(-0.0145342 0.036546 0)
(-0.0120798 0.0344397 0)
(-0.00898229 0.0326861 0)
(-0.0053197 0.0311682 0)
(-0.00118467 0.0298978 0)
(0.00344967 0.0287636 0)
(0.00845992 0.027824 0)
(0.0139409 0.0269308 0)
(0.0196655 0.0261929 0)
(0.0258519 0.0254202 0)
(0.032105 0.0247213 0)
(0.0386903 0.0238842 0)
(0.0451008 0.0230086 0)
(0.0514815 0.0218543 0)
(0.0572835 0.0205438 0)
(0.0624539 0.0189089 0)
(0.0661258 0.0169925 0)
(0.0686057 0.0148742 0)
(0.0669283 0.0119671 0)
(0.0684292 0.00664094 0)
(0.0584709 -0.0165485 0)
(0.0768642 -0.0745288 0)
(0.0527243 -0.303181 0)
(0.0676164 -0.492764 0)
(-0.0758978 0.0713416 0)
(-0.0653596 0.0471264 0)
(-0.0716965 0.0474535 0)
(-0.0544158 0.0433814 0)
(-0.0431146 0.0387119 0)
(-0.0290318 0.0348925 0)
(-0.0158136 0.0316517 0)
(-0.00270232 0.0290273 0)
(0.00983913 0.0269359 0)
(0.0222935 0.0251299 0)
(0.0340111 0.023648 0)
(0.0459976 0.022278 0)
(0.0569526 0.0211667 0)
(0.0686656 0.0200797 0)
(0.0788929 0.019238 0)
(0.090526 0.0183233 0)
(0.100043 0.0176725 0)
(0.111654 0.0168745 0)
(0.120537 0.0163169 0)
(0.132011 0.0156058 0)
(0.140171 0.0150108 0)
(0.151346 0.0144429 0)
(0.158181 0.0136594 0)
(0.168754 0.0135504 0)
(0.172849 0.0122815 0)
(0.182898 0.0128348 0)
(0.182507 0.00801718 0)
(0.193447 0.00322264 0)
(0.182564 -0.0276601 0)
(0.198144 -0.0853279 0)
(0.161185 -0.257588 0)
(0.131945 -0.402494 0)
(0.104919 0.111086 0)
(0.127669 0.0740778 0)
(0.185689 0.0530979 0)
(0.23353 0.0407113 0)
(0.270133 0.0327839 0)
(0.301602 0.0270378 0)
(0.327936 0.0227148 0)
(0.352664 0.0193327 0)
(0.373331 0.0167258 0)
(0.39406 0.0145812 0)
(0.410744 0.0129221 0)
(0.428928 0.0114408 0)
(0.442557 0.010342 0)
(0.459165 0.00923338 0)
(0.470245 0.00850735 0)
(0.485962 0.00760528 0)
(0.494743 0.00716459 0)
(0.510105 0.00635222 0)
(0.516631 0.00615573 0)
(0.532122 0.0053407 0)
(0.536233 0.00538582 0)
(0.552301 0.00448213 0)
(0.553626 0.0048358 0)
(0.570596 0.00378698 0)
(0.568236 0.00460634 0)
(0.585806 0.00320077 0)
(0.576865 0.00407725 0)
(0.590819 -0.000141648 0)
(0.56166 -0.00451908 0)
(0.547528 -0.0251061 0)
(0.433367 -0.0610234 0)
(0.281006 -0.115927 0)
)
;

boundaryField
{
    movingWall
    {
        type            fixedValue;
        value           uniform (1 0 0);
    }
    fixedWalls
    {
        type            noSlip;
    }
    frontAndBack
    {
        type            empty;
    }
}


// ************************************************************************* //
