/*--------------------------------*- C++ -*----------------------------------*\
| =========                 |                                                 |
| \\      /  F ield         | OpenFOAM: The Open Source CFD Toolbox           |
|  \\    /   O peration     | Version:  2406                                  |
|   \\  /    A nd           | Website:  www.openfoam.com                      |
|    \\/     M anipulation  |                                                 |
\*---------------------------------------------------------------------------*/
FoamFile
{
    version     2.0;
    format      ascii;
    arch        "LSB;label=32;scalar=64";
    class       volScalarField;
    location    "44.15";
    object      p;
}
// * * * * * * * * * * * * * * * * * * * * * * * * * * * * * * * * * * * * * //

dimensions      [0 2 -2 0 0 0 0];

internalField   nonuniform List<scalar> 
3600
(
0.0409924
0.0410264
0.0410095
0.0409865
0.0409054
0.0408184
0.0406967
0.0405778
0.0404378
0.0402943
0.0401244
0.0399338
0.0397045
0.0394383
0.0391238
0.0387619
0.0383473
0.0378837
0.037374
0.0368306
0.0362715
0.0357264
0.0352323
0.0348322
0.0345698
0.0344845
0.0346076
0.0349579
0.0355394
0.0363381
0.0373197
0.0384276
0.0395837
0.0406908
0.0416397
0.0423208
0.0426371
0.0425221
0.041951
0.0409535
0.0396061
0.0380295
0.036357
0.0347254
0.0332368
0.0319688
0.0309466
0.0301789
0.0296311
0.0292767
0.0290575
0.0289484
0.0288947
0.0288936
0.0289
0.0289344
0.0289551
0.0289996
0.0290211
0.0290564
0.0409605
0.0409954
0.0409707
0.0409477
0.0408703
0.0407931
0.0406831
0.0405776
0.0404507
0.0403208
0.0401657
0.0399922
0.0397836
0.0395421
0.0392564
0.0389265
0.038545
0.0381131
0.0376326
0.0371143
0.0365735
0.0360331
0.0355233
0.0350826
0.0347554
0.0345857
0.034612
0.03486
0.0353401
0.0360428
0.0369374
0.0379695
0.0390629
0.0401213
0.0410359
0.0416963
0.0420041
0.041891
0.0413306
0.040352
0.0390329
0.0374969
0.0358807
0.0343231
0.0329252
0.0317596
0.0308419
0.0301696
0.0296977
0.0293945
0.0292011
0.029098
0.0290359
0.0290195
0.0290064
0.0290221
0.0290228
0.0290515
0.0290564
0.029092
0.0409693
0.0410144
0.0409866
0.0409607
0.0408769
0.0407966
0.0406872
0.0405866
0.0404684
0.0403489
0.0402053
0.0400428
0.0398448
0.0396115
0.0393303
0.0389975
0.0386035
0.0381449
0.0376176
0.0370256
0.0363832
0.0357198
0.0350781
0.0345086
0.0340649
0.0337954
0.0337409
0.0339276
0.0343658
0.0350455
0.0359357
0.0369815
0.0381062
0.0392128
0.040191
0.0409269
0.0413167
0.0412846
0.0407952
0.0398695
0.0385804
0.0370517
0.0354263
0.033854
0.0324481
0.0312915
0.030405
0.0297857
0.0293823
0.0291543
0.0290324
0.0289899
0.028973
0.0289876
0.0289925
0.0290192
0.0290225
0.0290556
0.0290586
0.0291084
0.0409827
0.0410315
0.040996
0.0409627
0.0408726
0.0407924
0.0406904
0.0406031
0.0405033
0.0404034
0.0402803
0.0401355
0.0399512
0.0397224
0.0394315
0.0390661
0.0386079
0.0380454
0.0373756
0.0366108
0.0357791
0.0349204
0.0340853
0.0333285
0.0327069
0.0322708
0.0320626
0.0321095
0.0324238
0.0329975
0.0338038
0.0347925
0.0358937
0.0370161
0.0380546
0.0388968
0.0394358
0.0395864
0.0392993
0.0385783
0.0374798
0.0361157
0.0346241
0.0331569
0.0318356
0.0307524
0.0299362
0.0293893
0.0290615
0.0289103
0.0288619
0.0288846
0.0289197
0.0289722
0.0289997
0.029039
0.029044
0.0290781
0.0290753
0.0291339
0.0410456
0.0410928
0.0410465
0.0409983
0.0408957
0.0408072
0.0407063
0.0406242
0.0405349
0.040443
0.0403242
0.0401714
0.0399617
0.039677
0.0392899
0.0387754
0.0381142
0.0373007
0.0363469
0.0352804
0.034146
0.0329973
0.0318962
0.0309025
0.0300743
0.0294591
0.0290963
0.0290098
0.0292113
0.0296936
0.0304345
0.0313906
0.0325011
0.0336851
0.034847
0.0358801
0.0366771
0.0371433
0.0372107
0.0368559
0.036106
0.0350456
0.0337958
0.0325035
0.0312969
0.0302824
0.0295061
0.0289857
0.0286833
0.0285646
0.0285584
0.0286313
0.028719
0.0288206
0.0288889
0.0289596
0.0289853
0.0290337
0.0290363
0.0291023
0.0411378
0.0411748
0.0411146
0.0410468
0.0409336
0.0408385
0.0407424
0.040666
0.0405845
0.0404906
0.0403564
0.040159
0.0398647
0.0394374
0.0388428
0.0380546
0.0370668
0.0358899
0.0345587
0.033119
0.0316314
0.0301562
0.0287587
0.0274964
0.026425
0.0255876
0.0250206
0.024745
0.0247725
0.0250981
0.0257054
0.0265607
0.027617
0.0288093
0.0300596
0.0312764
0.0323619
0.0332201
0.0337687
0.0339552
0.0337667
0.0332436
0.0324683
0.0315621
0.0306458
0.0298326
0.0291853
0.0287409
0.0284798
0.0283827
0.0283909
0.0284788
0.0285859
0.0287099
0.0288012
0.0288913
0.0289318
0.028988
0.0289943
0.0290583
0.0412879
0.0413056
0.0412287
0.0411344
0.0410079
0.0408983
0.0407978
0.040709
0.0406099
0.040473
0.0402638
0.0399347
0.0394408
0.0387321
0.037782
0.0365768
0.0351372
0.0334974
0.0317166
0.0298557
0.0279874
0.0261765
0.0244902
0.0229815
0.0217004
0.0206808
0.0199515
0.0195258
0.0194117
0.0196027
0.0200863
0.0208362
0.0218186
0.0229861
0.0242822
0.0256379
0.026976
0.028213
0.0292665
0.0300653
0.0305596
0.0307366
0.0306212
0.0302838
0.0298146
0.0293196
0.0288758
0.0285449
0.0283354
0.0282521
0.028256
0.0283344
0.0284368
0.0285629
0.0286644
0.0287667
0.0288216
0.0288859
0.0288994
0.0289576
0.041496
0.0414846
0.0413923
0.0412689
0.0411321
0.041004
0.0408915
0.0407696
0.040618
0.0403801
0.0400116
0.0394387
0.0386154
0.0374924
0.0360684
0.0343544
0.0324039
0.0302737
0.0280445
0.0257874
0.0235818
0.0214894
0.019572
0.0178716
0.0164282
0.0152639
0.0143988
0.0138382
0.013586
0.0136334
0.0139707
0.0145773
0.0154307
0.0164989
0.0177467
0.0191296
0.020598
0.0220938
0.0235535
0.02491
0.026098
0.0270647
0.0277749
0.0282273
0.0284471
0.0284961
0.0284391
0.0283515
0.0282738
0.0282445
0.0282562
0.0283176
0.0283962
0.0284991
0.0285862
0.0286788
0.0287324
0.0287923
0.0288072
0.0288538
0.0417719
0.0417212
0.0416147
0.0414564
0.0413051
0.041142
0.0409917
0.0407911
0.0405205
0.0400863
0.0394383
0.0384844
0.0371957
0.0355407
0.0335575
0.0312867
0.0288157
0.0262204
0.0235979
0.0210213
0.0185694
0.0162932
0.0142437
0.012448
0.0109332
0.00970814
0.00878345
0.00815567
0.00782413
0.00777699
0.0080051
0.00849047
0.00921756
0.0101642
0.0113102
0.0126305
0.0141004
0.0156898
0.017365
0.019084
0.0207954
0.0224398
0.0239496
0.0252625
0.026325
0.0271175
0.0276465
0.0279648
0.0281298
0.0282178
0.0282673
0.0283213
0.0283744
0.0284452
0.0285064
0.0285774
0.0286204
0.0286698
0.0286832
0.0287179
0.0421222
0.0420244
0.0419094
0.0417136
0.0415438
0.0413254
0.0411024
0.0407631
0.0402883
0.0395461
0.0384937
0.0370373
0.0351864
0.03294
0.0303821
0.0275817
0.0246552
0.0216874
0.0187815
0.016001
0.0134142
0.0110539
0.00895661
0.0071325
0.00559773
0.00434988
0.00339364
0.00271991
0.00232613
0.00219889
0.00233033
0.00270417
0.00330919
0.00412863
0.00515096
0.00636214
0.00775333
0.00931465
0.0110383
0.0129118
0.0149149
0.0170125
0.0191468
0.0212372
0.0231791
0.0248676
0.0262118
0.0271798
0.0277919
0.0281355
0.0282995
0.0283804
0.0284187
0.0284548
0.0284805
0.0285171
0.0285366
0.0285656
0.0285708
0.0285935
0.0425249
0.0423733
0.042253
0.0420102
0.0418052
0.0414941
0.0411417
0.0405794
0.039794
0.0386233
0.0370518
0.0350034
0.0325413
0.0297006
0.0266106
0.0233608
0.0200859
0.0168667
0.0137998
0.010929
0.00830659
0.00594495
0.00386693
0.00206837
0.000557701
-0.000675367
-0.00162921
-0.00231641
-0.00273974
-0.00291343
-0.00284396
-0.00254666
-0.00203023
-0.00130908
-0.00039081
0.000715101
0.00200681
0.00348408
0.00515372
0.00702382
0.0091024
0.0113883
0.0138604
0.0164653
0.0191037
0.0216339
0.0238835
0.0257016
0.0269992
0.0278028
0.0282154
0.0283915
0.0284444
0.0284565
0.0284484
0.0284478
0.0284392
0.0284446
0.0284387
0.0284527
0.0429743
0.0427671
0.0426451
0.0423454
0.0420827
0.0416332
0.0410829
0.040205
0.0390034
0.0373026
0.0351366
0.0324616
0.0294024
0.0260268
0.0225013
0.0189216
0.0154255
0.012075
0.00895064
0.00607089
0.00347132
0.00114553
-0.000893116
-0.00265875
-0.0041461
-0.00536955
-0.0063272
-0.00703266
-0.00748704
-0.00770413
-0.00768822
-0.00745351
-0.00700646
-0.00636006
-0.00551997
-0.00449431
-0.00328311
-0.00188441
-0.000287294
0.00152393
0.00357147
0.00587757
0.00845661
0.0112998
0.0143552
0.0175084
0.020573
0.0233157
0.0255113
0.027038
0.0279223
0.0283295
0.0284577
0.028468
0.0284323
0.028394
0.0283538
0.0283329
0.0283128
0.0283202
0.0434031
0.043139
0.0430117
0.0426354
0.0422782
0.0416311
0.0408031
0.0395164
0.0378085
0.0355106
0.032723
0.0294414
0.0258503
0.0220402
0.0181999
0.0144144
0.0108112
0.00742365
0.00431277
0.0014724
-0.00107462
-0.0033486
-0.00534055
-0.00707046
-0.00853289
-0.00974412
-0.0107005
-0.011416
-0.0118896
-0.0121347
-0.0121535
-0.0119594
-0.0115572
-0.010959
-0.0101694
-0.00919643
-0.00804049
-0.00670056
-0.00516693
-0.00342419
-0.0014477
0.000793438
0.00333325
0.006198
0.00938903
0.0128548
0.0164632
0.0199838
0.0231146
0.0255672
0.0271891
0.0280481
0.0283715
0.0284272
0.0283813
0.0283114
0.0282422
0.0281965
0.0281623
0.0281657
0.0437821
0.0434639
0.0433244
0.0428503
0.0423573
0.0414523
0.0402713
0.0385003
0.0362289
0.033313
0.0299283
0.0261086
0.0220876
0.0179628
0.0139282
0.0100431
0.00641559
0.00304753
-1.75829e-05
-0.00280628
-0.00530271
-0.00753616
-0.00949762
-0.0112099
-0.0126651
-0.01388
-0.0148482
-0.0155833
-0.016082
-0.0163569
-0.0164082
-0.0162482
-0.01588
-0.0153147
-0.0145563
-0.0136126
-0.0124849
-0.0111741
-0.0096739
-0.007973
-0.00605117
-0.00387946
-0.00142011
0.00136876
0.00452382
0.00805224
0.0119028
0.0159181
0.0198208
0.0232339
0.0258115
0.0273991
0.0281316
0.0283268
0.0283029
0.0282115
0.0281163
0.0280471
0.027999
0.027998
0.0440026
0.0436316
0.0434646
0.0428651
0.0421892
0.0409692
0.0393738
0.0370725
0.0342217
0.0307146
0.0268006
0.0225434
0.0182101
0.0138876
0.00976069
0.00585414
0.00225461
-0.00106502
-0.00407309
-0.00681068
-0.00926349
-0.0114658
-0.0134058
-0.0151074
-0.0165595
-0.0177791
-0.0187572
-0.0195074
-0.0200242
-0.0203202
-0.0203937
-0.0202566
-0.0199104
-0.0193656
-0.0186253
-0.017697
-0.0165829
-0.0152849
-0.0138001
-0.0121215
-0.0102354
-0.00811915
-0.00574066
-0.00305732
-1.87919e-05
0.00341758
0.0072685
0.01147
0.0158423
0.0200362
0.0236081
0.0261544
0.0275744
0.0280944
0.0281544
0.0280628
0.0279476
0.0278556
0.027795
0.0277877
0.0440261
0.0436064
0.0433949
0.042646
0.0417469
0.0401701
0.0381238
0.0352821
0.031877
0.0278436
0.0234963
0.0189147
0.0143818
0.00995908
0.00581277
0.0019308
-0.00161853
-0.00488576
-0.00784481
-0.010546
-0.0129727
-0.0151615
-0.0170962
-0.0188016
-0.0202627
-0.0214967
-0.0224921
-0.0232625
-0.0238008
-0.0241189
-0.0242139
-0.0240968
-0.0237682
-0.0232376
-0.0225078
-0.0215855
-0.0204734
-0.0191741
-0.0176875
-0.0160094
-0.0141326
-0.0120416
-0.00971381
-0.00711454
-0.00419584
-0.000903193
0.00281957
0.00698324
0.0115223
0.0161961
0.0205946
0.0241728
0.0265302
0.0276529
0.027926
0.0278701
0.0277464
0.0276281
0.0275547
0.0275365
0.0437354
0.0432688
0.0429928
0.0420734
0.0409195
0.0389643
0.0364607
0.0331056
0.0292067
0.0247392
0.0200677
0.0152729
0.0106378
0.0061895
0.00207225
-0.00175965
-0.00525066
-0.00846815
-0.0113863
-0.0140607
-0.0164699
-0.0186517
-0.0205853
-0.0222957
-0.0237648
-0.0250104
-0.0260189
-0.0268042
-0.0273576
-0.0276912
-0.027801
-0.0276974
-0.0273805
-0.0268588
-0.0261352
-0.0252153
-0.0241027
-0.0227995
-0.0213078
-0.0196248
-0.0177482
-0.0156674
-0.0133693
-0.0108287
-0.00800816
-0.00485749
-0.00130755
0.00269455
0.00717532
0.0120196
0.0169481
0.0214157
0.0248356
0.0268219
0.0275644
0.0275983
0.0274949
0.0273448
0.027256
0.0272208
0.0431199
0.0426116
0.0422552
0.0411549
0.0397316
0.037401
0.0344632
0.0306511
0.0263419
0.0215441
0.0166551
0.0117434
0.00708017
0.00265471
-0.00140899
-0.00518434
-0.00862248
-0.0118017
-0.0146928
-0.0173538
-0.0197576
-0.0219425
-0.0238834
-0.0256056
-0.0270884
-0.0283499
-0.0293748
-0.0301771
-0.0307471
-0.0310963
-0.0312202
-0.0311286
-0.0308212
-0.0303056
-0.0295849
-0.0286639
-0.0275473
-0.0262361
-0.0247348
-0.0230405
-0.0211551
-0.0190707
-0.0167819
-0.0142717
-0.0115151
-0.00847349
-0.00508267
-0.00127692
0.00302495
0.00781064
0.0129578
0.0180363
0.0224399
0.0254603
0.026961
0.0272467
0.0271803
0.0270136
0.0268979
0.0268406
0.0420982
0.0415523
0.0411027
0.0398205
0.0381293
0.0354488
0.0321246
0.0279328
0.0233086
0.0182841
0.0132731
0.00832253
0.00368472
-0.000686582
-0.00468383
-0.00840088
-0.0117907
-0.0149377
-0.0178075
-0.0204588
-0.0228591
-0.0250468
-0.0269932
-0.0287242
-0.0302168
-0.0314897
-0.0325262
-0.0333404
-0.0339219
-0.0342817
-0.0344152
-0.0343311
-0.0340297
-0.0335172
-0.0327979
-0.031875
-0.030755
-0.0294375
-0.0279295
-0.0262269
-0.024335
-0.0222465
-0.0199617
-0.0174687
-0.0147534
-0.0117895
-0.00852606
-0.00490351
-0.000819872
0.00377529
0.00889397
0.0142722
0.019409
0.0234849
0.0259298
0.0267791
0.0267608
0.0266165
0.0264606
0.0263759
0.0407189
0.0401438
0.0395959
0.0381434
0.0362027
0.0332169
0.0295708
0.0250873
0.0202437
0.015087
0.0100322
0.00509978
0.000520742
-0.00378159
-0.00771136
-0.0113761
-0.014727
-0.0178511
-0.0207081
-0.0233565
-0.0257589
-0.0279539
-0.0299096
-0.0316525
-0.0331578
-0.0344444
-0.0354945
-0.0363221
-0.0369161
-0.0372869
-0.0374298
-0.0373524
-0.0370558
-0.0365446
-0.0358249
-0.034898
-0.0337729
-0.0324474
-0.0309317
-0.0292197
-0.0273207
-0.025226
-0.022941
-0.0204555
-0.0177643
-0.0148505
-0.0116783
-0.00820315
-0.0043246
3.12546e-05
0.00497108
0.0103791
0.015949
0.0208995
0.0243914
0.0260519
0.0262578
0.026113
0.0259522
0.0258142
0.0389569
0.0383606
0.0377146
0.0361113
0.0339511
0.0307159
0.0268199
0.022132
0.0171559
0.0119455
0.00690623
0.00203202
-0.00246773
-0.00669285
-0.0105552
-0.01417
-0.017485
-0.0205876
-0.0234318
-0.0260754
-0.0284772
-0.0306755
-0.0326366
-0.0343869
-0.0359006
-0.0371963
-0.038256
-0.0390925
-0.0396953
-0.0400731
-0.0402223
-0.0401485
-0.0398545
-0.0393428
-0.0386218
-0.0376905
-0.0365612
-0.0352292
-0.0337085
-0.0319906
-0.0300888
-0.0279921
-0.0257104
-0.0232327
-0.0205607
-0.0176829
-0.0145765
-0.0112135
-0.00750708
-0.00338656
0.00130612
0.00655831
0.0122815
0.0178097
0.0223266
0.0248851
0.0256689
0.0254548
0.0253594
0.0251296
0.0369202
0.0363147
0.035577
0.033851
0.0315102
0.0280879
0.0240154
0.0192053
0.0141718
0.00897066
0.0039895
-0.00080167
-0.0052132
-0.00936087
-0.0131611
-0.0167321
-0.0200178
-0.0231036
-0.0259391
-0.0285808
-0.0309846
-0.0331884
-0.0351571
-0.0369168
-0.0384411
-0.0397477
-0.0408188
-0.0416656
-0.0422784
-0.0426638
-0.0428197
-0.0427493
-0.0424576
-0.0419444
-0.0412213
-0.0402843
-0.0391501
-0.0378102
-0.0362842
-0.0345596
-0.0326556
-0.0305573
-0.0282802
-0.0258101
-0.0231549
-0.0203044
-0.0172466
-0.0139667
-0.0103958
-0.00647986
-0.00204665
0.00295313
0.00860386
0.0144205
0.0197558
0.0232523
0.0248619
0.0246738
0.0246312
0.0243209
0.0346269
0.0340233
0.0332032
0.0313839
0.0289029
0.025353
0.0211693
0.0163053
0.0112717
0.00612419
0.0012276
-0.00346649
-0.0077863
-0.0118566
-0.015597
-0.0191248
-0.0223807
-0.0254473
-0.0282708
-0.030906
-0.0333073
-0.0355116
-0.0374834
-0.0392477
-0.0407783
-0.0420915
-0.0431701
-0.0440234
-0.0446429
-0.0450328
-0.0451931
-0.0451236
-0.0448329
-0.0443169
-0.0435916
-0.0426487
-0.0415104
-0.0401637
-0.0386344
-0.0369053
-0.0350024
-0.0329057
-0.0306375
-0.0281787
-0.0255435
-0.0227196
-0.0197038
-0.0164893
-0.013025
-0.0092775
-0.00508476
-0.000369463
0.00505793
0.0109264
0.0167653
0.0211896
0.0236459
0.0238096
0.0236953
0.0233821
0.0322183
0.0316303
0.0307405
0.0288599
0.0262799
0.0226591
0.0184226
0.013562
0.00857298
0.00351109
-0.00128498
-0.005876
-0.0101062
-0.0141033
-0.0177896
-0.0212786
-0.0245086
-0.0275584
-0.0303723
-0.0330028
-0.0354035
-0.03761
-0.0395868
-0.0413574
-0.0428963
-0.0442177
-0.0453055
-0.0461665
-0.0467941
-0.0471891
-0.0473547
-0.0472865
-0.0469973
-0.0464784
-0.0457511
-0.0448019
-0.0436595
-0.0423054
-0.0407729
-0.0390388
-0.0371375
-0.0350426
-0.0327847
-0.0303384
-0.0277253
-0.0249283
-0.021952
-0.0187929
-0.0154147
-0.0118044
-0.0078193
-0.00338456
0.00174557
0.00748093
0.0135282
0.0187379
0.0219812
0.0228241
0.0225485
0.0222981
0.0297256
0.0291642
0.0282169
0.0263022
0.0236576
0.0200107
0.0157644
0.0109466
0.00602862
0.00106876
-0.00362197
-0.00810989
-0.0122541
-0.0161806
-0.0198144
-0.0232635
-0.0264655
-0.0294944
-0.0322945
-0.0349148
-0.0373102
-0.0395135
-0.0414907
-0.0432626
-0.0448055
-0.0461305
-0.0472239
-0.0480886
-0.0487214
-0.0491184
-0.0492872
-0.0492182
-0.0489297
-0.0484067
-0.0476776
-0.046722
-0.0455768
-0.044216
-0.0426823
-0.0409445
-0.0390472
-0.0369558
-0.0347114
-0.0322801
-0.0296929
-0.0269256
-0.0239909
-0.0208843
-0.0175809
-0.0140857
-0.0102748
-0.00610026
-0.00128387
0.00418422
0.0102228
0.0159454
0.0199335
0.0215661
0.0212303
0.0210192
0.027293
0.0267712
0.0257802
0.0238579
0.0211802
0.0175466
0.013326
0.00858202
0.00375402
-0.00109377
-0.00567874
-0.0100669
-0.0141316
-0.0179928
-0.0215796
-0.0249923
-0.0281696
-0.0311798
-0.0339684
-0.0365806
-0.0389728
-0.0411747
-0.0431544
-0.0449292
-0.0464781
-0.047808
-0.0489087
-0.0497783
-0.0504177
-0.0508177
-0.050991
-0.0509218
-0.0506351
-0.0501086
-0.0493788
-0.048417
-0.04727
-0.0459025
-0.0443684
-0.0426267
-0.0407343
-0.0386462
-0.0364163
-0.0340003
-0.0314412
-0.0287048
-0.0258141
-0.0227593
-0.0195258
-0.0161313
-0.0124675
-0.00852664
-0.00400995
0.00111056
0.00699263
0.012918
0.0175927
0.019933
0.0198025
0.0195223
0.0249375
0.0244644
0.0234407
0.0215292
0.0188395
0.0152439
0.0110683
0.00641206
0.0016778
-0.00305956
-0.00754602
-0.0118413
-0.0158332
-0.0196326
-0.0231738
-0.0265487
-0.0296989
-0.0326862
-0.0354589
-0.0380576
-0.0404419
-0.0426369
-0.0446144
-0.0463869
-0.0479374
-0.0492676
-0.0503718
-0.0512422
-0.0518853
-0.052285
-0.052461
-0.0523894
-0.0521038
-0.0515725
-0.0508423
-0.0498741
-0.0487265
-0.0473526
-0.04582
-0.0440748
-0.0421894
-0.0401051
-0.037892
-0.0354918
-0.0329635
-0.0302594
-0.0274162
-0.0244141
-0.0212503
-0.017948
-0.0144132
-0.0106789
-0.00643759
-0.00169512
0.0039284
0.00979521
0.0150271
0.0179321
0.0182709
0.017808
0.0227871
0.0223739
0.0213301
0.0194477
0.0167654
0.0132295
0.00911515
0.00455782
-8.0288e-05
-0.0047097
-0.0091049
-0.0133149
-0.017242
-0.0209856
-0.024487
-0.0278281
-0.030955
-0.0339223
-0.0366825
-0.0392703
-0.0416494
-0.0438399
-0.0458177
-0.0475898
-0.0491441
-0.050476
-0.0515858
-0.052458
-0.0531068
-0.0535071
-0.0536877
-0.0536146
-0.0533317
-0.0527964
-0.0520676
-0.0510935
-0.0499469
-0.0485668
-0.0470371
-0.0452885
-0.0434112
-0.04133
-0.0391346
-0.0367493
-0.0342532
-0.0315808
-0.0287875
-0.0258381
-0.022746
-0.0195302
-0.0161147
-0.012562
-0.00857257
-0.00420282
0.00108979
0.0067152
0.0122965
0.0156291
0.0165622
0.0158782
0.020829
0.0204822
0.0194275
0.0175837
0.0149176
0.0114494
0.00739816
0.00293692
-0.00161475
-0.00614777
-0.0104649
-0.0146
-0.0184706
-0.0221625
-0.0256261
-0.0289321
-0.0320338
-0.0349771
-0.0377208
-0.0402926
-0.0426621
-0.0448427
-0.0468162
-0.0485826
-0.0501365
-0.0514652
-0.0525768
-0.0534469
-0.0540984
-0.0544961
-0.0546793
-0.0546022
-0.0543214
-0.0537804
-0.0530532
-0.0520723
-0.0509277
-0.049541
-0.0480155
-0.0462629
-0.0443951
-0.0423164
-0.0401399
-0.0377683
-0.0353055
-0.0326634
-0.0299222
-0.0270245
-0.0240068
-0.0208733
-0.0175727
-0.0141803
-0.0104231
-0.00640005
-0.00148432
0.00378807
0.00947457
0.0131055
0.0145973
0.0137452
0.0191698
0.0188985
0.0178452
0.0160522
0.013413
0.0100221
0.00603866
0.00167377
-0.00279698
-0.00724173
-0.0114909
-0.0155602
-0.0193831
-0.0230302
-0.0264621
-0.0297382
-0.0328194
-0.035743
-0.0384745
-0.041034
-0.0433978
-0.0455714
-0.047544
-0.0493072
-0.0508636
-0.052191
-0.0533071
-0.0541764
-0.0548332
-0.0552294
-0.0554178
-0.0553376
-0.0550613
-0.0545155
-0.0537921
-0.0528048
-0.0516641
-0.0502708
-0.0487513
-0.0469941
-0.0451369
-0.0430592
-0.0409022
-0.038542
-0.0361127
-0.0334981
-0.0308096
-0.0279608
-0.0250195
-0.021964
-0.018777
-0.0155272
-0.0119865
-0.00827642
-0.00375913
0.00109971
0.00666598
0.0104624
0.0123862
0.0114672
0.0177615
0.0175695
0.0165263
0.0147883
0.0121774
0.00886218
0.00493936
0.000659682
-0.00374572
-0.00811794
-0.0123147
-0.01633
-0.0201141
-0.0237212
-0.0271239
-0.0303694
-0.0334287
-0.036329
-0.039045
-0.0415873
-0.0439413
-0.0461028
-0.0480703
-0.0498251
-0.0513802
-0.0527016
-0.053819
-0.0546834
-0.055343
-0.0557342
-0.0559261
-0.0558401
-0.0555674
-0.0550144
-0.0542947
-0.0532992
-0.052163
-0.0507614
-0.0492482
-0.0474846
-0.0456384
-0.0435592
-0.0414217
-0.0390695
-0.036673
-0.0340816
-0.0314453
-0.028641
-0.0257764
-0.0227935
-0.0197189
-0.0165966
-0.0132584
-0.00982603
-0.00570638
-0.00128502
0.00399067
0.00781965
0.0100337
0.00914315
0.0166937
0.0165875
0.0155681
0.0138953
0.0113205
0.00808559
0.00422444
2.69413e-05
-0.00431991
-0.00862853
-0.0127827
-0.0167534
-0.0205074
-0.024082
-0.0274625
-0.0306835
-0.033727
-0.0366094
-0.0393156
-0.0418457
-0.044195
-0.0463485
-0.0483157
-0.0500654
-0.0516232
-0.0529413
-0.0540636
-0.0549251
-0.0555909
-0.0559789
-0.0561773
-0.0560868
-0.0558206
-0.0552613
-0.0545479
-0.0535444
-0.0524147
-0.0510042
-0.049499
-0.0477273
-0.045893
-0.0438095
-0.0416912
-0.0393429
-0.0369782
-0.0344046
-0.0318187
-0.0290525
-0.0262633
-0.023346
-0.0203819
-0.0173735
-0.014225
-0.0110367
-0.00729791
-0.00331207
0.00156528
0.00530568
0.00768896
0.0068892
0.0158826
0.015862
0.0148762
0.0132719
0.0107335
0.0075742
0.00376628
-0.000361372
-0.00466517
-0.00892591
-0.0130528
-0.0169905
-0.0207237
-0.0242705
-0.0276318
-0.0308279
-0.0338546
-0.0367158
-0.0394092
-0.0419225
-0.0442637
-0.0464045
-0.0483679
-0.0501079
-0.0516656
-0.0529759
-0.0541007
-0.0549554
-0.0556256
-0.0560067
-0.0562106
-0.0561122
-0.0558519
-0.0552832
-0.0545757
-0.0535612
-0.0524377
-0.0510149
-0.0495174
-0.0477338
-0.0459104
-0.0438178
-0.0417171
-0.0393665
-0.037031
-0.0344675
-0.0319286
-0.0291917
-0.0264743
-0.0236129
-0.0207551
-0.0178464
-0.0148742
-0.0118976
-0.00851247
-0.00494067
-0.00051625
0.00303758
0.00549126
0.00480974
0.0154105
0.0154771
0.014541
0.0130171
0.0105259
0.00744801
0.0036975
-0.000360619
-0.00462423
-0.0088432
-0.0129499
-0.0168629
-0.0205831
-0.0241101
-0.0274598
-0.0306382
-0.0336554
-0.0365022
-0.0391901
-0.0416929
-0.0440329
-0.0461664
-0.0481323
-0.0498672
-0.0514303
-0.0527366
-0.0538691
-0.0547199
-0.0553991
-0.0557754
-0.055989
-0.0558842
-0.0556334
-0.055056
-0.0543576
-0.0533317
-0.0522168
-0.0507804
-0.0492919
-0.0474934
-0.0456812
-0.0435749
-0.0414908
-0.0391314
-0.0368223
-0.0342605
-0.0317643
-0.0290463
-0.0263955
-0.0235785
-0.0208208
-0.0179966
-0.0151873
-0.0123918
-0.0093284
-0.00613654
-0.0021824
0.0011141
0.00355314
0.00299226
0.0151556
0.0153027
0.0144279
0.0129898
0.0105513
0.00755299
0.00385665
-0.000139715
-0.00437356
-0.00856272
-0.0126616
-0.0165599
-0.0202756
-0.0237872
-0.0271282
-0.0302882
-0.0332952
-0.0361243
-0.0388044
-0.0412924
-0.0436287
-0.0457506
-0.0477169
-0.0494426
-0.0510097
-0.0523082
-0.0534472
-0.0542905
-0.0549781
-0.055346
-0.0555689
-0.0554539
-0.0552125
-0.0546223
-0.0539326
-0.0528908
-0.0517839
-0.0503286
-0.0488478
-0.0470282
-0.0452251
-0.0430976
-0.0410266
-0.0386492
-0.0363617
-0.0337902
-0.0313302
-0.0286177
-0.0260256
-0.0232378
-0.0205713
-0.0178136
-0.0151523
-0.0125069
-0.00973153
-0.00687679
-0.00338547
-0.000389726
0.00195888
0.00150617
0.0152057
0.0154268
0.0146316
0.0132946
0.0109279
0.00802062
0.0043911
0.000463446
-0.00373516
-0.00789446
-0.0119875
-0.0158764
-0.0195939
-0.0230978
-0.0264381
-0.0295883
-0.0325938
-0.0354135
-0.0380947
-0.0405757
-0.0429171
-0.0450345
-0.0470096
-0.0487322
-0.0503108
-0.0516064
-0.0527591
-0.0535986
-0.0543009
-0.0546633
-0.054901
-0.0547776
-0.0545502
-0.0539478
-0.0532707
-0.0522122
-0.051116
-0.0496393
-0.0481677
-0.0463227
-0.0445285
-0.0423731
-0.0403133
-0.0379087
-0.0356387
-0.0330455
-0.0306153
-0.0278935
-0.0253515
-0.0225758
-0.0199902
-0.017279
-0.0147504
-0.0122245
-0.00970455
-0.00714018
-0.0040896
-0.00141411
0.000777418
0.000413545
0.0153953
0.0156744
0.0149721
0.0137445
0.0114657
0.00865511
0.00509959
0.00124221
-0.00292178
-0.00705535
-0.011149
-0.0150345
-0.0187601
-0.0222592
-0.0256015
-0.0287405
-0.0317441
-0.0345508
-0.0372317
-0.0397017
-0.0420471
-0.0441561
-0.0461398
-0.0478558
-0.0494466
-0.0507362
-0.0519033
-0.052736
-0.0534539
-0.0538074
-0.0540607
-0.0539248
-0.053712
-0.0530925
-0.0524278
-0.0513467
-0.0502603
-0.0487551
-0.0472908
-0.0454115
-0.0436232
-0.0414291
-0.0393759
-0.036931
-0.034672
-0.0320412
-0.0296321
-0.0268824
-0.0243795
-0.0215945
-0.0190767
-0.0163884
-0.0139754
-0.0115368
-0.00923996
-0.00691598
-0.00427378
-0.0019163
6.39943e-05
-0.000231963
0.0158356
0.0161572
0.0155651
0.0144642
0.0123038
0.00960993
0.00615275
0.00238307
-0.00172898
-0.00582719
-0.00991517
-0.0137976
-0.0175344
-0.0210354
-0.0243881
-0.0275254
-0.0305376
-0.0333414
-0.0360332
-0.0385017
-0.0408624
-0.0429719
-0.0449748
-0.0466921
-0.048305
-0.0495951
-0.0507858
-0.0516167
-0.0523585
-0.0527065
-0.0529827
-0.0528365
-0.0526443
-0.0520082
-0.051361
-0.0502559
-0.049183
-0.0476456
-0.0461907
-0.0442712
-0.0424888
-0.0402473
-0.0381983
-0.035701
-0.033448
-0.0307641
-0.028368
-0.0255707
-0.023096
-0.0202789
-0.0178156
-0.0151243
-0.0128102
-0.0104262
-0.0083229
-0.00618928
-0.00391805
-0.00185903
-0.000128567
-0.000374976
0.0163078
0.0166496
0.0161779
0.015214
0.0131991
0.0106389
0.00730047
0.00363345
-0.000413461
-0.00446779
-0.00854669
-0.0124243
-0.0161742
-0.0196767
-0.0230415
-0.0261748
-0.029196
-0.0319929
-0.0346957
-0.037159
-0.0395359
-0.0416427
-0.0436672
-0.0453833
-0.0470215
-0.0483096
-0.0495275
-0.0503539
-0.051123
-0.051462
-0.0517639
-0.0516027
-0.0514333
-0.0507745
-0.0501458
-0.0490091
-0.0479495
-0.0463706
-0.0449234
-0.0429521
-0.0411722
-0.0388691
-0.036819
-0.0342523
-0.0319976
-0.0292399
-0.0268465
-0.0239777
-0.0215181
-0.0186414
-0.0162174
-0.0134928
-0.0112596
-0.00889442
-0.0069557
-0.0049602
-0.00301729
-0.00122045
0.000241039
3.10349e-05
0.0169765
0.0173215
0.0169754
0.0161641
0.0143303
0.0119339
0.00874935
0.00521456
0.00126348
-0.00272442
-0.00677655
-0.0106411
-0.0144019
-0.0179102
-0.0212953
-0.024435
-0.027478
-0.0302804
-0.0330083
-0.0354783
-0.0378857
-0.0400008
-0.0420606
-0.0437848
-0.0454612
-0.0467553
-0.0480122
-0.0488403
-0.0496472
-0.0499817
-0.0503187
-0.050145
-0.0500064
-0.0493255
-0.0487219
-0.0475518
-0.0465106
-0.0448858
-0.0434494
-0.041419
-0.0396424
-0.037267
-0.0352139
-0.0325628
-0.0303012
-0.0274502
-0.0250511
-0.022086
-0.0196298
-0.0166646
-0.0142656
-0.0114758
-0.00930708
-0.00692437
-0.00512507
-0.00321679
-0.00155985
2.21171e-05
0.00121501
0.00103591
0.0175559
0.0178871
0.0176614
0.0170121
0.0153882
0.0131854
0.0101872
0.00681601
0.00299008
-0.000904787
-0.00491199
-0.00874835
-0.012514
-0.016021
-0.0194262
-0.022568
-0.0256344
-0.0284384
-0.0311944
-0.0336679
-0.0361103
-0.0382315
-0.0403324
-0.0420634
-0.0437848
-0.0450834
-0.0463863
-0.0472137
-0.0480651
-0.0483913
-0.0487691
-0.0485774
-0.0484741
-0.0477636
-0.0471881
-0.0459752
-0.0449536
-0.0432711
-0.0418451
-0.0397408
-0.0379653
-0.0354995
-0.0334387
-0.0306816
-0.0284059
-0.0254358
-0.0230206
-0.0199295
-0.0174637
-0.0143763
-0.0119876
-0.00909597
-0.00697552
-0.00453467
-0.00285114
-0.000975555
0.000439878
0.00186776
0.00281396
0.00266936
0.0183075
0.0186182
0.0184938
0.0180122
0.0166214
0.0146481
0.0118763
0.00870948
0.00505114
0.00128686
-0.00264364
-0.00643097
-0.0101905
-0.0136948
-0.0171267
-0.0202813
-0.0233868
-0.0262075
-0.02901
-0.0315021
-0.0339977
-0.0361386
-0.0382982
-0.0400476
-0.0418302
-0.0431428
-0.0445065
-0.0453406
-0.0462498
-0.0465731
-0.0470034
-0.0467969
-0.046739
-0.0459999
-0.0454612
-0.0442036
-0.0432087
-0.0414636
-0.040053
-0.0378666
-0.0360945
-0.0335259
-0.0314569
-0.028576
-0.0262822
-0.0231693
-0.0207304
-0.0174834
-0.0149972
-0.0117524
-0.00936136
-0.00632919
-0.00424431
-0.00170376
-0.000119071
0.00177635
0.00298715
0.00432587
0.0050615
0.00496492
0.0188498
0.0191342
0.0190894
0.018776
0.0176344
0.015928
0.0134228
0.0105089
0.00706402
0.00347974
-0.000336186
-0.00403842
-0.00777201
-0.0112544
-0.0147084
-0.0178673
-0.0210155
-0.0238492
-0.0267058
-0.0292152
-0.0317741
-0.0339343
-0.036164
-0.0379315
-0.0397875
-0.0411132
-0.0425495
-0.0433881
-0.0443658
-0.0446819
-0.0451742
-0.0449462
-0.0449416
-0.0441645
-0.0436687
-0.0423543
-0.0413904
-0.0395677
-0.0381749
-0.0358879
-0.0341195
-0.0314257
-0.0293463
-0.026315
-0.023998
-0.020711
-0.0182408
-0.0148017
-0.0122858
-0.0088432
-0.00644049
-0.00322426
-0.0011665
0.00152107
0.00301935
0.00499444
0.00603557
0.00736351
0.00794015
0.0079164
0.0195937
0.0198546
0.0198575
0.0196938
0.0187957
0.01738
0.0151761
0.0125608
0.00937886
0.00602593
0.00237109
-0.00120878
-0.00489276
-0.00834177
-0.01182
-0.014992
-0.0182009
-0.0210656
-0.0240002
-0.0265459
-0.0291924
-0.031389
-0.0337112
-0.0355113
-0.0374608
-0.0388113
-0.0403383
-0.0411904
-0.0422529
-0.0425682
-0.0431369
-0.0428915
-0.042953
-0.0421392
-0.0416975
-0.040325
-0.0394015
-0.0374965
-0.0361289
-0.0337327
-0.031973
-0.0291403
-0.0270523
-0.0238507
-0.0215089
-0.0180207
-0.0155138
-0.0118477
-0.00929413
-0.00561176
-0.0031894
0.000257864
0.00229308
0.00517772
0.00659195
0.00870483
0.00959311
0.0109855
0.0114508
0.0115341
0.020007
0.0202404
0.0202756
0.0202436
0.0195874
0.0184909
0.0166309
0.0143769
0.0115197
0.00847305
0.00504054
0.00164768
-0.00194665
-0.00532263
-0.00881137
-0.0119793
-0.015254
-0.0181455
-0.0211728
-0.0237563
-0.0265088
-0.0287447
-0.0311792
-0.0330138
-0.0350761
-0.0364514
-0.0380873
-0.0389502
-0.0401139
-0.0404227
-0.0410824
-0.0408104
-0.0409506
-0.0400879
-0.0397111
-0.0382647
-0.0373906
-0.0353838
-0.0340487
-0.0315198
-0.0297741
-0.0267748
-0.0246813
-0.0212768
-0.018911
-0.0151838
-0.0126398
-0.00870382
-0.00611251
-0.00214316
0.000295928
0.00402552
0.00603035
0.00916969
0.0104915
0.0128152
0.0135614
0.0151159
0.0155228
0.0157622
0.0207169
0.0209271
0.020971
0.0210271
0.0205703
0.0197791
0.0182742
0.0164185
0.0139341
0.0112528
0.00809995
0.00494789
0.0014816
-0.00179506
-0.00528793
-0.00845426
-0.011813
-0.0147504
-0.0178999
-0.0205449
-0.0234348
-0.0257317
-0.0283073
-0.0301947
-0.0323952
-0.0338097
-0.0355766
-0.0364614
-0.0377457
-0.0380563
-0.038824
-0.0385311
-0.0387652
-0.0378565
-0.0375579
-0.0360377
-0.0352248
-0.0331131
-0.0318202
-0.0291513
-0.0274271
-0.0242483
-0.0221542
-0.0185268
-0.0161389