/*--------------------------------*- C++ -*----------------------------------*\
| =========                 |                                                 |
| \\      /  F ield         | OpenFOAM: The Open Source CFD Toolbox           |
|  \\    /   O peration     | Version:  2406                                  |
|   \\  /    A nd           | Website:  www.openfoam.com                      |
|    \\/     M anipulation  |                                                 |
\*---------------------------------------------------------------------------*/
FoamFile
{
    version     2.0;
    format      ascii;
    arch        "LSB;label=32;scalar=64";
    class       volVectorField;
    location    "40.65";
    object      Uold;
}
// * * * * * * * * * * * * * * * * * * * * * * * * * * * * * * * * * * * * * //

dimensions      [0 1 -1 0 0 0 0];

internalField   nonuniform List<vector> 
14400
(
(-1.87951e-05 1.87505e-05 0)
(-3.10506e-06 -1.08963e-05 0)
(0.000108021 -4.36491e-05 0)
(0.00030104 -7.28869e-05 0)
(0.000564231 -9.03854e-05 0)
(0.000863171 -0.000100155 0)
(0.00118202 -0.000101172 0)
(0.00149363 -9.65826e-05 0)
(0.00178658 -8.69346e-05 0)
(0.00204509 -7.46607e-05 0)
(0.00226499 -6.08193e-05 0)
(0.00244137 -4.718e-05 0)
(0.00257698 -3.46073e-05 0)
(0.00267466 -2.40743e-05 0)
(0.00274133 -1.5901e-05 0)
(0.0027833 -1.02912e-05 0)
(0.00280804 -7.0083e-06 0)
(0.00282137 -5.68785e-06 0)
(0.00282832 -5.72829e-06 0)
(0.00283162 -6.49158e-06 0)
(0.00283233 -7.29081e-06 0)
(0.00282926 -7.5207e-06 0)
(0.00281967 -6.66679e-06 0)
(0.00279927 -4.36567e-06 0)
(0.00276286 -3.86044e-07 0)
(0.00270456 5.37809e-06 0)
(0.00261824 1.29574e-05 0)
(0.00249762 2.23438e-05 0)
(0.00233638 3.3534e-05 0)
(0.00212816 4.65491e-05 0)
(0.00186652 6.14433e-05 0)
(0.00154485 7.82935e-05 0)
(0.00115642 9.71827e-05 0)
(0.000694397 0.000118179 0)
(0.000151979 0.000141318 0)
(-0.000477474 0.000166584 0)
(-0.00120022 0.000193908 0)
(-0.00202192 0.000223149 0)
(-0.00294738 0.000254098 0)
(-0.00398033 0.000286471 0)
(-0.00512314 0.000319907 0)
(-0.00637659 0.000353972 0)
(-0.00773965 0.00038816 0)
(-0.00920929 0.000421898 0)
(-0.0107803 0.000454559 0)
(-0.0124451 0.000485467 0)
(-0.0141939 0.000513911 0)
(-0.0160144 0.00053916 0)
(-0.0178919 0.000560472 0)
(-0.0198098 0.000577108 0)
(-0.0217488 0.000588346 0)
(-0.0236882 0.00059349 0)
(-0.0256051 0.000591876 0)
(-0.0274755 0.000582888 0)
(-0.0292739 0.000565964 0)
(-0.030974 0.000540607 0)
(-0.0325488 0.000506401 0)
(-0.0339713 0.000463027 0)
(-0.0352143 0.00041028 0)
(-0.0362514 0.000348099 0)
(-0.0370573 0.000276589 0)
(-0.0376081 0.000196051 0)
(-0.037882 0.000107015 0)
(-0.0378598 1.02642e-05 0)
(-0.0375258 -9.31355e-05 0)
(-0.0368679 -0.000201819 0)
(-0.0358788 -0.00031411 0)
(-0.0345563 -0.000428028 0)
(-0.0329041 -0.000541305 0)
(-0.0309321 -0.000651426 0)
(-0.0286569 -0.000755687 0)
(-0.026102 -0.000851281 0)
(-0.0232978 -0.000935395 0)
(-0.0202816 -0.00100534 0)
(-0.0170967 -0.00105866 0)
(-0.013792 -0.0010933 0)
(-0.0104205 -0.00110774 0)
(-0.00703846 -0.00110107 0)
(-0.00370343 -0.00107314 0)
(-0.000472549 -0.00102458 0)
(0.00259928 -0.000956811 0)
(0.0054613 -0.000872019 0)
(0.00806866 -0.000773054 0)
(0.010384 -0.00066329 0)
(0.0123787 -0.00054645 0)
(0.0140336 -0.000426401 0)
(0.0153397 -0.000306944 0)
(0.0162979 -0.000191622 0)
(0.0169182 -8.35426e-05 0)
(0.0172196 1.47496e-05 0)
(0.0172278 0.000101355 0)
(0.0169743 0.000175049 0)
(0.0164946 0.000235265 0)
(0.0158265 0.000282037 0)
(0.0150084 0.000315916 0)
(0.0140777 0.000337857 0)
(0.01307 0.000349123 0)
(0.0120175 0.000351159 0)
(0.0109486 0.00034551 0)
(0.00988781 0.000333711 0)
(0.00885478 0.000317253 0)
(0.00786517 0.00029748 0)
(0.00693027 0.000275622 0)
(0.00605797 0.000252689 0)
(0.00525247 0.000229583 0)
(0.00451574 0.000206955 0)
(0.00384672 0.000185424 0)
(0.00324349 0.000165316 0)
(0.00270143 0.000147054 0)
(0.00221677 0.000130624 0)
(0.00178294 0.000116282 0)
(0.00139664 0.00010348 0)
(0.00105144 9.22348e-05 0)
(0.000747861 8.1021e-05 0)
(0.000482645 6.96004e-05 0)
(0.00026406 5.4934e-05 0)
(9.50486e-05 3.74668e-05 0)
(-9.32276e-06 1.35172e-05 0)
(-4.52206e-05 -8.76748e-06 0)
(-2.2478e-05 -2.20213e-05 0)
(9.61341e-06 3.82266e-06 0)
(0.000154237 -0.000157705 0)
(0.000496723 -0.000323868 0)
(0.000997814 -0.000471551 0)
(0.00164145 -0.000569174 0)
(0.00236194 -0.000624612 0)
(0.00312427 -0.000634625 0)
(0.0038728 -0.000610132 0)
(0.00457843 -0.000556345 0)
(0.00520685 -0.000484191 0)
(0.0057444 -0.000401159 0)
(0.00617894 -0.000316185 0)
(0.00651257 -0.000235267 0)
(0.00674973 -0.000163691 0)
(0.0069026 -0.000104091 0)
(0.00698349 -5.76843e-05 0)
(0.00700668 -2.36215e-05 0)
(0.00698369 1.47489e-07 0)
(0.00692386 1.6879e-05 0)
(0.00683188 3.03312e-05 0)
(0.00670828 4.45093e-05 0)
(0.00654871 6.31322e-05 0)
(0.00634489 8.94084e-05 0)
(0.00608493 0.000125785 0)
(0.00575447 0.000173949 0)
(0.00533733 0.000234886 0)
(0.00481642 0.000309083 0)
(0.00417409 0.000396724 0)
(0.00339256 0.000497886 0)
(0.00245405 0.000612643 0)
(0.00134084 0.000741102 0)
(3.54594e-05 0.000883349 0)
(-0.00147913 0.00103936 0)
(-0.00321919 0.00120889 0)
(-0.00519978 0.00139135 0)
(-0.00743416 0.00158578 0)
(-0.00993316 0.0017907 0)
(-0.0127046 0.00200416 0)
(-0.0157524 0.00222371 0)
(-0.0190764 0.00244638 0)
(-0.0226712 0.00266872 0)
(-0.0265263 0.00288687 0)
(-0.0306254 0.00309663 0)
(-0.0349461 0.00329352 0)
(-0.0394604 0.00347289 0)
(-0.0441345 0.00363007 0)
(-0.048929 0.00376042 0)
(-0.0537997 0.0038595 0)
(-0.0586981 0.00392312 0)
(-0.0635722 0.00394748 0)
(-0.0683673 0.00392921 0)
(-0.0730265 0.00386546 0)
(-0.0774923 0.00375394 0)
(-0.0817068 0.00359295 0)
(-0.085613 0.00338142 0)
(-0.0891553 0.00311896 0)
(-0.0922804 0.00280583 0)
(-0.0949379 0.00244302 0)
(-0.0970812 0.00203225 0)
(-0.0986678 0.00157601 0)
(-0.0996602 0.00107761 0)
(-0.100026 0.000541204 0)
(-0.0997401 -2.81283e-05 0)
(-0.0987824 -0.000624381 0)
(-0.097141 -0.00124057 0)
(-0.0948118 -0.00186875 0)
(-0.0917987 -0.00249998 0)
(-0.088115 -0.00312447 0)
(-0.0837831 -0.00373159 0)
(-0.0788349 -0.00431014 0)
(-0.0733126 -0.00484846 0)
(-0.0672682 -0.00533481 0)
(-0.0607635 -0.00575768 0)
(-0.0538695 -0.00610619 0)
(-0.0466664 -0.00637051 0)
(-0.0392414 -0.00654239 0)
(-0.0316884 -0.00661553 0)
(-0.0241059 -0.00658603 0)
(-0.0165949 -0.00645278 0)
(-0.00925702 -0.00621763 0)
(-0.00219167 -0.00588556 0)
(0.00450617 -0.00546466 0)
(0.0107487 -0.00496586 0)
(0.0164577 -0.00440264 0)
(0.0215668 -0.00379049 0)
(0.0260234 -0.00314625 0)
(0.0297902 -0.00248743 0)
(0.0328463 -0.00183143 0)
(0.0351872 -0.00119477 0)
(0.0368251 -0.00059246 0)
(0.0377879 -3.73594e-05 0)
(0.0381174 0.000460226 0)
(0.0378679 0.000892843 0)
(0.0371034 0.00125599 0)
(0.0358948 0.00154806 0)
(0.0343174 0.00177011 0)
(0.0324475 0.00192557 0)
(0.0303599 0.00201972 0)
(0.0281256 0.00205931 0)
(0.0258095 0.00205196 0)
(0.0234689 0.00200577 0)
(0.0211528 0.00192878 0)
(0.0189012 0.00182876 0)
(0.0167456 0.00171278 0)
(0.0147084 0.00158726 0)
(0.0128052 0.00145753 0)
(0.0110435 0.00132832 0)
(0.0094269 0.00120303 0)
(0.00795204 0.00108468 0)
(0.00661505 0.000974526 0)
(0.00540627 0.000873783 0)
(0.00432053 0.000780751 0)
(0.00334729 0.000694444 0)
(0.00248769 0.000608842 0)
(0.00173646 0.000521194 0)
(0.00110827 0.000420614 0)
(0.000605759 0.000308074 0)
(0.000254391 0.000173646 0)
(5.02771e-05 4.76104e-05 0)
(-8.93838e-06 -4.51682e-05 0)
(3.92816e-05 -0.000101753 0)
(0.000309865 -0.000496955 0)
(0.000864373 -0.000883064 0)
(0.00162029 -0.00121643 0)
(0.00255997 -0.0014439 0)
(0.00359316 -0.0015708 0)
(0.00467497 -0.00159356 0)
(0.00573128 -0.00153151 0)
(0.00672234 -0.00139903 0)
(0.00760172 -0.00121922 0)
(0.00834906 -0.00101106 0)
(0.00894658 -0.000794629 0)
(0.0093945 -0.000585022 0)
(0.00969664 -0.000394537 0)
(0.00986664 -0.000230092 0)
(0.00991865 -9.46077e-05 0)
(0.00986914 1.35785e-05 0)
(0.00973102 9.94096e-05 0)
(0.00951399 0.00017063 0)
(0.00922142 0.000236452 0)
(0.0088508 0.000306675 0)
(0.00839287 0.000390561 0)
(0.00783275 0.00049615 0)
(0.00715053 0.000629717 0)
(0.00632278 0.000795683 0)
(0.00532349 0.000996757 0)
(0.00412532 0.00123434 0)
(0.0027003 0.00150896 0)
(0.00102051 0.00182066 0)
(-0.000941491 0.00216923 0)
(-0.00321225 0.00255425 0)
(-0.0058169 0.00297493 0)
(-0.00877853 0.00342989 0)
(-0.0121174 0.00391692 0)
(-0.0158498 0.00443273 0)
(-0.0199876 0.00497278 0)
(-0.0245363 0.00553117 0)
(-0.029495 0.00610068 0)
(-0.0348546 0.00667275 0)
(-0.0405977 0.00723768 0)
(-0.0466982 0.00778475 0)
(-0.0531207 0.00830253 0)
(-0.0598209 0.00877914 0)
(-0.0667462 0.00920261 0)
(-0.0738364 0.0095612 0)
(-0.0810249 0.00984375 0)
(-0.08824 0.01004 0)
(-0.0954063 0.010141 0)
(-0.102446 0.0101389 0)
(-0.109282 0.0100278 0)
(-0.115836 0.0098031 0)
(-0.122033 0.00946216 0)
(-0.127802 0.00900388 0)
(-0.133075 0.0084288 0)
(-0.13779 0.00773901 0)
(-0.141889 0.00693804 0)
(-0.145322 0.0060308 0)
(-0.148043 0.00502349 0)
(-0.150014 0.00392356 0)
(-0.151202 0.00273971 0)
(-0.151583 0.00148184 0)
(-0.151136 0.000161163 0)
(-0.149851 -0.00120984 0)
(-0.147722 -0.00261733 0)
(-0.144751 -0.00404608 0)
(-0.140948 -0.00547948 0)
(-0.136329 -0.00689958 0)
(-0.130921 -0.00828714 0)
(-0.124756 -0.00962183 0)
(-0.117876 -0.0108825 0)
(-0.110334 -0.0120473 0)
(-0.102188 -0.0130947 0)
(-0.0935069 -0.0140033 0)
(-0.0843692 -0.0147529 0)
(-0.0748607 -0.0153253 0)
(-0.0650748 -0.0157049 0)
(-0.0551121 -0.0158794 0)
(-0.0450783 -0.0158405 0)
(-0.035083 -0.015585 0)
(-0.0252381 -0.0151146 0)
(-0.015655 -0.014437 0)
(-0.00644305 -0.0135653 0)
(0.00229352 -0.0125182 0)
(0.0104575 -0.0113194 0)
(0.0179614 -0.00999715 0)
(0.0247296 -0.00858297 0)
(0.0307003 -0.00711085 0)
(0.0358271 -0.00561584 0)
(0.0400807 -0.00413277 0)
(0.0434493 -0.00269502 0)
(0.0459389 -0.00133318 0)
(0.0475735 -7.40688e-05 0)
(0.0483938 0.00106027 0)
(0.0484559 0.00205318 0)
(0.0478295 0.00289382 0)
(0.0465949 0.00357725 0)
(0.0448403 0.00410424 0)
(0.0426582 0.00448072 0)
(0.0401423 0.00471712 0)
(0.037384 0.00482734 0)
(0.0344693 0.00482781 0)
(0.0314766 0.00473629 0)
(0.0284744 0.00457103 0)
(0.025521 0.00434972 0)
(0.0226628 0.00408908 0)
(0.0199358 0.00380395 0)
(0.0173645 0.00350753 0)
(0.0149656 0.00321037 0)
(0.0127452 0.00292129 0)
(0.0107068 0.00264551 0)
(0.00884436 0.00238668 0)
(0.00715619 0.00214298 0)
(0.00563201 0.00191184 0)
(0.00427567 0.00168228 0)
(0.00308031 0.00144677 0)
(0.00206571 0.00118617 0)
(0.00123042 0.000899724 0)
(0.000611711 0.000574084 0)
(0.000197001 0.000258823 0)
(1.76974e-05 -3.29837e-06 0)
(6.5307e-05 -0.000281728 0)
(0.000449026 -0.0009868 0)
(0.00118677 -0.00163605 0)
(0.00214881 -0.00217597 0)
(0.00331491 -0.00254327 0)
(0.00457304 -0.00274096 0)
(0.00587393 -0.00276734 0)
(0.00713044 -0.00265019 0)
(0.00829774 -0.00241457 0)
(0.00932147 -0.00209686 0)
(0.0101776 -0.00172898 0)
(0.0108443 -0.00134343 0)
(0.0113198 -0.000965548 0)
(0.0116062 -0.000615457 0)
(0.0117164 -0.000304824 0)
(0.0116631 -3.83295e-05 0)
(0.0114617 0.000186858 0)
(0.0111227 0.000379297 0)
(0.0106528 0.000552241 0)
(0.0100508 0.000721552 0)
(0.0093085 0.000904076 0)
(0.00840968 0.0011158 0)
(0.00733153 0.00137059 0)
(0.00604539 0.00167934 0)
(0.00451862 0.00204971 0)
(0.00271587 0.00248637 0)
(0.000600582 0.00299162 0)
(-0.00186392 0.00356601 0)
(-0.00471341 0.0042089 0)
(-0.00798189 0.00491875 0)
(-0.0117006 0.00569312 0)
(-0.0158971 0.00652833 0)
(-0.0205936 0.00741914 0)
(-0.0258062 0.00835831 0)
(-0.0315427 0.00933631 0)
(-0.037802 0.0103411 0)
(-0.0445721 0.0113582 0)
(-0.0518298 0.0123709 0)
(-0.0595396 0.0133605 0)
(-0.0676541 0.0143066 0)
(-0.0761141 0.0151883 0)
(-0.0848499 0.0159841 0)
(-0.0937826 0.0166734 0)
(-0.102826 0.0172364 0)
(-0.111889 0.0176554 0)
(-0.120878 0.0179152 0)
(-0.129699 0.0180033 0)
(-0.13826 0.0179103 0)
(-0.146473 0.0176301 0)
(-0.154254 0.0171597 0)
(-0.161528 0.0164992 0)
(-0.168226 0.0156513 0)
(-0.174286 0.0146212 0)
(-0.179655 0.0134161 0)
(-0.184286 0.012045 0)
(-0.188141 0.0105183 0)
(-0.191189 0.00884796 0)
(-0.193402 0.00704667 0)
(-0.194763 0.00512835 0)
(-0.195255 0.00310788 0)
(-0.194871 0.00100118 0)
(-0.193606 -0.00117473 0)
(-0.191459 -0.00340155 0)
(-0.188437 -0.00565965 0)
(-0.184549 -0.0079279 0)
(-0.179809 -0.0101836 0)
(-0.174238 -0.0124023 0)
(-0.167861 -0.0145582 0)
(-0.160711 -0.0166239 0)
(-0.152827 -0.0185707 0)
(-0.144254 -0.0203692 0)
(-0.135048 -0.0219896 0)
(-0.125269 -0.0234026 0)
(-0.114988 -0.0245801 0)
(-0.104284 -0.0254959 0)
(-0.0932444 -0.0261272 0)
(-0.0819623 -0.0264554 0)
(-0.0705388 -0.0264672 0)
(-0.0590801 -0.0261553 0)
(-0.0476961 -0.0255197 0)
(-0.0364986 -0.0245677 0)
(-0.0255996 -0.0233147 0)
(-0.0151083 -0.0217836 0)
(-0.00512955 -0.0200048 0)
(0.00423866 -0.0180152 0)
(0.0129074 -0.0158572 0)
(0.0207988 -0.0135777 0)
(0.0278475 -0.0112259 0)
(0.0340026 -0.00885245 0)
(0.0392284 -0.00650736 0)
(0.0435057 -0.0042385 0)
(0.0468322 -0.00209004 0)
(0.0492229 -0.000101058 0)
(0.0507097 0.00169576 0)
(0.051341 0.00327511 0)
(0.0511803 0.00461975 0)
(0.0503044 0.00572091 0)
(0.0488007 0.00657822 0)
(0.0467643 0.00719926 0)
(0.0442946 0.00759862 0)
(0.0414914 0.00779674 0)
(0.0384519 0.00781829 0)
(0.0352662 0.00769076 0)
(0.0320166 0.0074426 0)
(0.0287734 0.00710217 0)
(0.0255963 0.00669601 0)
(0.0225308 0.00624858 0)
(0.0196131 0.00578057 0)
(0.016865 0.00530958 0)
(0.0143036 0.00484759 0)
(0.0119329 0.00440307 0)
(0.00975973 0.00397623 0)
(0.00777831 0.00356443 0)
(0.00599837 0.00315335 0)
(0.00441242 0.00273118 0)
(0.0030465 0.00227185 0)
(0.00189377 0.00177081 0)
(0.00100634 0.00121021 0)
(0.00036496 0.00064522 0)
(4.90383e-05 0.000123152 0)
(8.17472e-05 -0.000528504 0)
(0.000550863 -0.00162193 0)
(0.00143463 -0.00258151 0)
(0.00255942 -0.00335091 0)
(0.00389872 -0.00386553 0)
(0.00531822 -0.00412765 0)
(0.00676444 -0.00414101 0)
(0.00813918 -0.0039431 0)
(0.00939499 -0.00357204 0)
(0.0104723 -0.00307889 0)
(0.0113457 -0.00251028 0)
(0.0119909 -0.00191217 0)
(0.0124054 -0.00132104 0)
(0.0125894 -0.000765162 0)
(0.0125538 -0.000260943 0)
(0.0123089 0.000185663 0)
(0.011866 0.000579466 0)
(0.0112311 0.000933776 0)
(0.0104045 0.00126865 0)
(0.00937782 0.00160795 0)
(0.00813469 0.00197682 0)
(0.00664981 0.00239899 0)
(0.00489099 0.0028949 0)
(0.00282015 0.0034804 0)
(0.000395604 0.00416643 0)
(-0.00242634 0.00495927 0)
(-0.00568948 0.00586137 0)
(-0.00943623 0.00687219 0)
(-0.0137061 0.00798878 0)
(-0.0185342 0.00920609 0)
(-0.0239496 0.0105168 0)
(-0.0299736 0.0119109 0)
(-0.0366177 0.0133751 0)
(-0.0438819 0.0148926 0)
(-0.0517531 0.0164426 0)
(-0.0602036 0.0180007 0)
(-0.0691908 0.019539 0)
(-0.0786569 0.021027 0)
(-0.0885297 0.0224326 0)
(-0.0987244 0.0237231 0)
(-0.109146 0.0248664 0)
(-0.119691 0.0258323 0)
(-0.130253 0.0265938 0)
(-0.140724 0.0271279 0)
(-0.150998 0.0274162 0)
(-0.160974 0.0274455 0)
(-0.170558 0.0272076 0)
(-0.179666 0.0266997 0)
(-0.188223 0.0259233 0)
(-0.196163 0.0248838 0)
(-0.203433 0.0235901 0)
(-0.209985 0.0220539 0)
(-0.215784 0.0202888 0)
(-0.2208 0.0183099 0)
(-0.22501 0.0161332 0)
(-0.228396 0.0137758 0)
(-0.230947 0.011255 0)
(-0.232651 0.00858845 0)
(-0.233504 0.0057945 0)
(-0.233502 0.00289185 0)
(-0.232643 -0.000100036 0)
(-0.230928 -0.00316074 0)
(-0.228359 -0.0062686 0)
(-0.22494 -0.00940049 0)
(-0.22068 -0.0125315 0)
(-0.215587 -0.0156346 0)
(-0.209674 -0.0186808 0)
(-0.202961 -0.0216387 0)
(-0.195468 -0.0244751 0)
(-0.187225 -0.0271544 0)
(-0.178266 -0.0296398 0)
(-0.168633 -0.0318935 0)
(-0.158378 -0.0338778 0)
(-0.14756 -0.0355557 0)
(-0.136247 -0.0368922 0)
(-0.124517 -0.0378562 0)
(-0.112456 -0.0384209 0)
(-0.100159 -0.0385663 0)
(-0.0877289 -0.0382796 0)
(-0.0752726 -0.0375568 0)
(-0.0629021 -0.0364036 0)
(-0.050731 -0.0348357 0)
(-0.0388723 -0.0328787 0)
(-0.027436 -0.030568 0)
(-0.0165271 -0.0279479 0)
(-0.00624293 -0.0250701 0)
(0.00332835 -0.0219924 0)
(0.0121096 -0.018777 0)
(0.0200359 -0.0154882 0)
(0.0270555 -0.0121912 0)
(0.0331307 -0.00894938 0)
(0.0382385 -0.00582339 0)
(0.042371 -0.00286889 0)
(0.0455358 -0.000135255 0)
(0.0477562 0.00233591 0)
(0.0490714 0.00451199 0)
(0.0495358 0.00637035 0)
(0.049218 0.00789891 0)
(0.0481987 0.00909639 0)
(0.0465691 0.00997187 0)
(0.0444267 0.010544 0)
(0.041873 0.0108393 0)
(0.039008 0.0108906 0)
(0.0359288 0.0107349 0)
(0.0327239 0.010411 0)
(0.0294732 0.00995753 0)
(0.0262434 0.0094115 0)
(0.0230912 0.00880594 0)
(0.0200574 0.00816972 0)
(0.0171767 0.00752448 0)
(0.0144667 0.00688608 0)
(0.0119477 0.00625954 0)
(0.00962171 0.00564403 0)
(0.00750768 0.00502419 0)
(0.00560002 0.00438442 0)
(0.00393377 0.00369311 0)
(0.0024992 0.00293884 0)
(0.00136711 0.00209756 0)
(0.000515792 0.00121649 0)
(7.56032e-05 0.000335451 0)
(9.42492e-05 -0.000816145 0)
(0.000630716 -0.00235472 0)
(0.00162844 -0.00365342 0)
(0.00287669 -0.00465805 0)
(0.00433987 -0.00531034 0)
(0.00586262 -0.00561631 0)
(0.00738678 -0.00558949 0)
(0.0088047 -0.00527933 0)
(0.0100678 -0.00473916 0)
(0.0111134 -0.00403564 0)
(0.0119167 -0.00323075 0)
(0.0124524 -0.00238378 0)
(0.0127178 -0.0015419 0)
(0.0127115 -0.000740616 0)
(0.0124419 3.95341e-09 0)
(0.0119148 0.000674038 0)
(0.011136 0.00128962 0)
(0.0101038 0.00186611 0)
(0.00880996 0.00243152 0)
(0.00723619 0.00301861 0)
(0.00535553 0.00366135 0)
(0.00313211 0.00439132 0)
(0.000523597 0.0052352 0)
(-0.00251728 0.00621307 0)
(-0.00603993 0.00733798 0)
(-0.0100939 0.00861634 0)
(-0.0147263 0.0100488 0)
(-0.0199803 0.0116313 0)
(-0.0258922 0.0133555 0)
(-0.0324898 0.0152091 0)
(-0.0397901 0.0171754 0)
(-0.0477965 0.0192329 0)
(-0.056497 0.0213549 0)
(-0.0658622 0.0235094 0)
(-0.075845 0.0256593 0)
(-0.0863797 0.0277634 0)
(-0.0973836 0.0297776 0)
(-0.108759 0.0316565 0)
(-0.120397 0.0333554 0)
(-0.132179 0.034832 0)
(-0.143984 0.0360485 0)
(-0.155693 0.0369726 0)
(-0.167189 0.0375791 0)
(-0.178365 0.0378502 0)
(-0.189125 0.0377755 0)
(-0.199384 0.0373517 0)
(-0.20907 0.0365821 0)
(-0.218125 0.0354753 0)
(-0.226501 0.0340442 0)
(-0.234162 0.0323049 0)
(-0.241082 0.0302761 0)
(-0.247239 0.0279776 0)
(-0.252621 0.02543 0)
(-0.257218 0.022654 0)
(-0.261024 0.0196701 0)
(-0.264035 0.0164986 0)
(-0.266249 0.0131593 0)
(-0.267664 0.00967154 0)
(-0.268278 0.00605478 0)
(-0.268089 0.00232861 0)
(-0.267095 -0.00148682 0)
(-0.265294 -0.00537037 0)
(-0.262684 -0.00929948 0)
(-0.259264 -0.0132498 0)
(-0.255033 -0.0171945 0)
(-0.249992 -0.0211045 0)
(-0.244144 -0.0249476 0)
(-0.237496 -0.0286886 0)
(-0.230059 -0.0322891 0)
(-0.221849 -0.0357081 0)
(-0.212886 -0.0389018 0)
(-0.203201 -0.0418249 0)
(-0.192831 -0.0444308 0)
(-0.181823 -0.0466734 0)
(-0.170234 -0.0485082 0)
(-0.158132 -0.0498941 0)
(-0.145595 -0.050795 0)
(-0.132711 -0.0511819 0)
(-0.119579 -0.0510344 0)
(-0.106305 -0.0503424 0)
(-0.093002 -0.0491077 0)
(-0.0797865 -0.047344 0)
(-0.0667771 -0.0450777 0)
(-0.0540908 -0.0423476 0)
(-0.0418404 -0.0392036 0)
(-0.030132 -0.0357051 0)
(-0.0190628 -0.0319198 0)
(-0.00871917 -0.0279206 0)
(0.000824413 -0.0237841 0)
(0.00950609 -0.019588 0)
(0.0172769 -0.0154092 0)
(0.0241011 -0.0113218 0)
(0.0299558 -0.00739555 0)
(0.0348312 -0.00369416 0)
(0.0387311 -0.000274052 0)
(0.0416728 0.00281716 0)
(0.0436878 0.00554192 0)
(0.0448218 0.00787389 0)
(0.0451343 0.00979883 0)
(0.044698 0.0113149 0)
(0.0435966 0.0124328 0)
(0.0419229 0.0131744 0)
(0.0397745 0.0135717 0)
(0.0372519 0.0136645 0)
(0.0344521 0.0134981 0)
(0.0314685 0.0131201 0)
(0.0283836 0.0125788 0)
(0.0252727 0.0119191 0)
(0.0221949 0.0111821 0)
(0.0192033 0.0104008 0)
(0.0163318 0.00960049 0)
(0.0136164 0.00879376 0)
(0.01107 0.00798394 0)
(0.00872376 0.0071574 0)
(0.0065771 0.00629598 0)
(0.00467636 0.00536397 0)
(0.00301225 0.00434017 0)
(0.0016753 0.00319124 0)
(0.000645069 0.00194369 0)
(9.81503e-05 0.000618922 0)
(0.000102822 -0.0011414 0)
(0.000689801 -0.00317511 0)
(0.00177321 -0.00483831 0)
(0.0031101 -0.00608211 0)
(0.00465398 -0.006859 0)
(0.00622934 -0.00718296 0)
(0.00777228 -0.00708177 0)
(0.00916671 -0.00662002 0)
(0.0103637 -0.00586908 0)
(0.0112988 -0.00491278 0)
(0.0119493 -0.00382937 0)
(0.0122902 -0.00269134 0)
(0.0123194 -0.00155586 0)
(0.0120337 -0.000464314 0)
(0.0114385 0.000561232 0)
(0.010534 0.00151677 0)
(0.00931842 0.00241558 0)
(0.00778046 0.0032848 0)
(0.00590084 0.00416166 0)
(0.00364932 0.00508862 0)
(0.000987029 0.00610858 0)
(-0.00213311 0.00726047 0)
(-0.00576308 0.00857597 0)
(-0.00995753 0.0100776 0)
(-0.0147704 0.0117782 0)
(-0.0202522 0.0136815 0)
(-0.0264473 0.0157828 0)
(-0.033391 0.0180706 0)
(-0.0411071 0.0205264 0)
(-0.0496046 0.0231251 0)
(-0.0588755 0.0258348 0)
(-0.0688923 0.0286166 0)
(-0.0796063 0.0314246 0)
(-0.090948 0.034207 0)
(-0.102827 0.0369075 0)
(-0.115137 0.039467 0)
(-0.127756 0.0418268 0)
(-0.140552 0.0439307 0)
(-0.153394 0.0457279 0)
(-0.166148 0.0471751 0)
(-0.178691 0.0482382 0)
(-0.190907 0.0488929 0)
(-0.202699 0.0491252 0)
(-0.21398 0.0489305 0)
(-0.224684 0.0483126 0)
(-0.234755 0.0472826 0)
(-0.244154 0.0458572 0)
(-0.252853 0.0440568 0)
(-0.260832 0.0419047 0)
(-0.268081 0.0394255 0)
(-0.274593 0.0366442 0)
(-0.280367 0.0335855 0)
(-0.285402 0.0302733 0)
(-0.289699 0.0267302 0)
(-0.29326 0.022978 0)
(-0.296086 0.0190369 0)
(-0.298176 0.0149264 0)
(-0.29953 0.0106655 0)
(-0.300144 0.00627253 0)
(-0.300014 0.00176631 0)
(-0.299136 -0.00283378 0)
(-0.297501 -0.00750715 0)
(-0.295103 -0.0122314 0)
(-0.291934 -0.016982 0)
(-0.287986 -0.0217313 0)
(-0.28325 -0.0264487 0)
(-0.277721 -0.0310995 0)
(-0.271394 -0.0356455 0)
(-0.264268 -0.0400439 0)
(-0.256345 -0.0442483 0)
(-0.247634 -0.0482083 0)
(-0.238149 -0.0518707 0)
(-0.227913 -0.05518 0)
(-0.216958 -0.05808 0)
(-0.205328 -0.0605152 0)
(-0.193077 -0.0624329 0)
(-0.180272 -0.0637853 0)
(-0.166995 -0.0645322 0)
(-0.153337 -0.0646427 0)
(-0.139403 -0.0640979 0)
(-0.125308 -0.0628925 0)
(-0.111172 -0.0610363 0)
(-0.097123 -0.0585545 0)
(-0.0832878 -0.0554879 0)
(-0.069792 -0.0518913 0)
(-0.0567547 -0.0478324 0)
(-0.0442863 -0.043389 0)
(-0.0324853 -0.0386462 0)
(-0.0214371 -0.0336935 0)
(-0.0112128 -0.028622 0)
(-0.00186927 -0.0235219 0)
(0.00655038 -0.0184803 0)
(0.0140158 -0.0135792 0)
(0.0205088 -0.00889483 0)
(0.0260223 -0.00449569 0)
(0.0305605 -0.00044196 0)
(0.0341389 0.00321583 0)
(0.0367848 0.00643799 0)
(0.0385378 0.00919687 0)
(0.0394506 0.0114778 0)
(0.0395879 0.01328 0)
(0.0390266 0.0146162 0)
(0.0378525 0.0155122 0)
(0.0361591 0.016005 0)
(0.0340422 0.016141 0)
(0.0315992 0.0159726 0)
(0.0289211 0.0155557 0)
(0.0260957 0.0149452 0)
(0.0231965 0.0141934 0)
(0.0202932 0.013345 0)
(0.0174352 0.0124357 0)
(0.0146746 0.0114875 0)
(0.0120373 0.0105097 0)
(0.00956841 0.00949269 0)
(0.00727527 0.00841684 0)
(0.00521745 0.00724354 0)
(0.00338994 0.00593967 0)
(0.00190262 0.00446034 0)
(0.000739269 0.00280275 0)
(0.000113874 0.000961984 0)
(0.000110429 -0.00149037 0)
(0.000737741 -0.00405276 0)
(0.00188407 -0.00609226 0)
(0.00327793 -0.00756679 0)
(0.00486055 -0.00844343 0)
(0.006438 -0.008749 0)
(0.00794045 -0.00853036 0)
(0.00924495 -0.00787105 0)
(0.010303 -0.0068634 0)
(0.0110505 -0.00560987 0)
(0.0114674 -0.00420538 0)
(0.01153 -0.00273481 0)
(0.0112371 -0.00126377 0)
(0.0105835 0.000162655 0)
(0.00957056 0.00152285 0)
(0.00819117 0.00281723 0)
(0.00643413 0.00406646 0)
(0.00427644 0.00530714 0)
(0.00168601 0.00658675 0)
(-0.00138049 0.00795748 0)
(-0.00497411 0.00947029 0)
(-0.00915211 0.0111696 0)
(-0.0139736 0.0130893 0)
(-0.0194966 0.0152512 0)
(-0.0257737 0.0176636 0)
(-0.032849 0.020323 0)
(-0.0407548 0.0232145 0)
(-0.0495081 0.026313 0)
(-0.0591074 0.0295836 0)
(-0.0695306 0.0329822 0)
(-0.0807318 0.0364555 0)
(-0.0926414 0.039942 0)
(-0.105166 0.0433733 0)
(-0.118193 0.0466769 0)
(-0.131589 0.0497789 0)
(-0.145215 0.0526078 0)
(-0.158925 0.0550978 0)
(-0.172573 0.0571922 0)
(-0.186027 0.0588452 0)
(-0.199163 0.0600241 0)
(-0.211876 0.0607086 0)
(-0.22408 0.060891 0)
(-0.235706 0.0605745 0)
(-0.246704 0.0597715 0)
(-0.257038 0.0585013 0)
(-0.266684 0.0567883 0)
(-0.27563 0.0546602 0)
(-0.283871 0.0521462 0)
(-0.291407 0.049276 0)
(-0.298241 0.0460783 0)
(-0.30438 0.042581 0)
(-0.309827 0.03881 0)
(-0.314591 0.0347895 0)
(-0.318675 0.0305417 0)
(-0.322082 0.0260872 0)
(-0.324817 0.0214451 0)
(-0.326878 0.0166331 0)
(-0.328264 0.0116685 0)
(-0.328972 0.00656809 0)
(-0.328997 0.00134882 0)
(-0.328332 -0.00397147 0)
(-0.326968 -0.00937362 0)
(-0.324894 -0.0148365 0)
(-0.322098 -0.0203363 0)
(-0.318567 -0.0258461 0)
(-0.314287 -0.0313349 0)
(-0.309242 -0.0367675 0)
(-0.303418 -0.0421038 0)
(-0.296804 -0.0472986 0)
(-0.289387 -0.0523015 0)
(-0.28116 -0.0570568 0)
(-0.272123 -0.0615047 0)
(-0.26228 -0.0655812 0)
(-0.251645 -0.0692202 0)
(-0.240242 -0.0723547 0)
(-0.228109 -0.0749193 0)
(-0.215295 -0.0768525 0)
(-0.201868 -0.0780997 0)
(-0.187909 -0.0786161 0)
(-0.173516 -0.07837 0)
(-0.1588 -0.0773448 0)
(-0.143887 -0.0755416 0)
(-0.128911 -0.0729807 0)
(-0.114013 -0.0697012 0)
(-0.0993351 -0.0657611 0)
(-0.085015 -0.0612348 0)
(-0.0711835 -0.0562102 0)
(-0.0579593 -0.0507858 0)
(-0.0454455 -0.0450659 0)
(-0.0337284 -0.0391574 0)
(-0.0228763 -0.0331659 0)
(-0.0129407 -0.0271927 0)
(-0.00395725 -0.0213331 0)
(0.00405207 -0.0156749 0)
(0.0110768 -0.0102973 0)
(0.0171167 -0.00527039 0)
(0.0221804 -0.000654917 0)
(0.0262856 0.00349881 0)
(0.029459 0.00715177 0)
(0.0317379 0.0102774 0)
(0.0331701 0.0128626 0)
(0.0338153 0.0149088 0)
(0.0337436 0.0164319 0)
(0.0330358 0.0174617 0)
(0.0317787 0.0180404 0)
(0.0300657 0.0182198 0)
(0.0279885 0.0180586 0)
(0.0256403 0.0176183 0)
(0.0231034 0.0169593 0)
(0.0204596 0.0161365 0)
(0.0177715 0.0151957 0)
(0.0151059 0.0141688 0)
(0.0125018 0.0130722 0)
(0.0100184 0.0119018 0)
(0.00767368 0.0106375 0)
(0.00554078 0.00923884 0)
(0.00362221 0.00765955 0)
(0.0020447 0.0058416 0)
(0.000798561 0.00374773 0)
(0.000123695 0.00134275 0)
(0.000116845 -0.00186352 0)
(0.000775145 -0.00498039 0)
(0.00196377 -0.00739994 0)
(0.00338419 -0.00908917 0)
(0.00496453 -0.0100333 0)
(0.0064942 -0.0102767 0)
(0.00789774 -0.00989035 0)
(0.00904719 -0.00898074 0)
(0.00989561 -0.00766429 0)
(0.0103805 -0.00606359 0)
(0.0104855 -0.00429044 0)
(0.0101887 -0.00244103 0)
(0.0094895 -0.000587416 0)
(0.00838002 0.00122431 0)
(0.00685604 0.0029759 0)
(0.00490174 0.00467499 0)
(0.00249459 0.00635198 0)
(-0.000401572 0.00805443 0)
(-0.0038325 0.00984046 0)
(-0.0078544 0.0117712 0)
(-0.0125289 0.0139035 0)
(-0.0179202 0.0162839 0)
(-0.0240895 0.0189444 0)
(-0.0310913 0.0219006 0)
(-0.0389683 0.0251511 0)
(-0.0477482 0.0286787 0)
(-0.0574395 0.0324514 0)
(-0.0680283 0.0364239 0)
(-0.079476 0.0405383 0)
(-0.0917174 0.0447256 0)
(-0.104661 0.048907 0)
(-0.11819 0.0529969 0)
(-0.132169 0.0569063 0)
(-0.146446 0.0605468 0)
(-0.160865 0.0638356 0)
(-0.17527 0.0666996 0)
(-0.189513 0.0690783 0)
(-0.203462 0.0709267 0)
(-0.217002 0.0722153 0)
(-0.230041 0.0729304 0)
(-0.242507 0.0730718 0)
(-0.254347 0.0726512 0)
(-0.265527 0.0716892 0)
(-0.276026 0.0702129 0)
(-0.285835 0.0682538 0)
(-0.294951 0.0658454 0)
(-0.303379 0.0630218 0)
(-0.311127 0.0598166 0)
(-0.318203 0.0562617 0)
(-0.32462 0.0523872 0)
(-0.330386 0.0482211 0)
(-0.335512 0.0437887 0)
(-0.340006 0.0391131 0)
(-0.343876 0.0342154 0)
(-0.347128 0.0291144 0)
(-0.349767 0.0238276 0)
(-0.351795 0.0183711 0)
(-0.353214 0.0127599 0)
(-0.354021 0.00700901 0)
(-0.354214 0.00113328 0)
(-0.353786 -0.00485162 0)
(-0.35273 -0.0109287 0)
(-0.351033 -0.0170789 0)
(-0.348683 -0.0232804 0)
(-0.345662 -0.029508 0)
(-0.341951 -0.0357324 0)
(-0.33753 -0.041919 0)
(-0.332374 -0.0480281 0)
(-0.326461 -0.0540137 0)
(-0.319765 -0.0598233 0)
(-0.312265 -0.0653982 0)
(-0.303941 -0.0706732 0)
(-0.294776 -0.0755774 0)
(-0.284764 -0.0800356 0)
(-0.273904 -0.0839695 0)
(-0.26221 -0.0873003 0)
(-0.24971 -0.0899512 0)
(-0.236447 -0.0918506 0)
(-0.222485 -0.0929363 0)
(-0.207905 -0.0931587 0)
(-0.192812 -0.0924846 0)
(-0.177326 -0.0909009 0)
(-0.161586 -0.0884164 0)
(-0.145744 -0.0850639 0)
(-0.129958 -0.0808993 0)
(-0.114393 -0.0760011 0)
(-0.0992043 -0.0704665 0)
(-0.0845408 -0.0644076 0)
(-0.0705344 -0.0579464 0)
(-0.0572974 -0.0512092 0)
(-0.0449197 -0.0443214 0)
(-0.0334689 -0.0374039 0)
(-0.022991 -0.0305688 0)
(-0.013513 -0.0239184 0)
(-0.00504649 -0.0175435 0)
(0.00240903 -0.0115241 0)
(0.00886338 -0.00592881 0)
(0.0143338 -0.000815668 0)
(0.0188438 0.0037683 0)
(0.0224239 0.00778762 0)
(0.0251121 0.0112194 0)
(0.0269552 0.0140544 0)
(0.0280095 0.0162981 0)
(0.0283418 0.0179707 0)
(0.0280268 0.0191069 0)
(0.0271486 0.0197538 0)
(0.0257937 0.0199684 0)
(0.0240539 0.0198143 0)
(0.0220147 0.0193565 0)
(0.0197644 0.0186573 0)
(0.017375 0.0177706 0)
(0.0149248 0.0167375 0)
(0.0124648 0.0155812 0)
(0.0100675 0.014304 0)
(0.00776236 0.0128858 0)
(0.00563571 0.0112848 0)
(0.0036999 0.00944157 0)
(0.00209508 0.00728473 0)
(0.000819391 0.00474141 0)
(0.00012669 0.00174507 0)
(0.000122991 -0.00225347 0)
(0.000804577 -0.00593776 0)
(0.00201539 -0.00872831 0)
(0.00343109 -0.0106035 0)
(0.004966 -0.0115712 0)
(0.00639533 -0.0116988 0)
(0.00763901 -0.0110866 0)
(0.00856661 -0.00986841 0)
(0.00913402 -0.00818743 0)
(0.00928199 -0.00618745 0)
(0.00899829 -0.00399674 0)
(0.00826303 -0.00172085 0)
(0.00707523 0.000564456 0)
(0.00542307 0.00281541 0)
(0.0032951 0.00502044 0)
(0.000664937 0.00719736 0)
(-0.00250271 0.00938829 0)
(-0.00625785 0.0116526 0)
(-0.0106594 0.0140582 0)
(-0.0157742 0.0166728 0)
(-0.0216707 0.0195553 0)
(-0.0284139 0.0227491 0)
(-0.0360596 0.026278 0)
(-0.0446492 0.0301447 0)
(-0.0542047 0.0343306 0)
(-0.0647253 0.0387974 0)
(-0.0761837 0.043489 0)
(-0.0885241 0.0483332 0)
(-0.101661 0.0532441 0)
(-0.115482 0.0581252 0)
(-0.129848 0.0628731 0)
(-0.144603 0.0673827 0)
(-0.15958 0.0715522 0)
(-0.17461 0.0752893 0)
(-0.189533 0.0785154 0)
(-0.2042 0.0811687 0)
(-0.218486 0.0832067 0)
(-0.232287 0.0846053 0)
(-0.245521 0.0853577 0)
(-0.258132 0.0854721 0)
(-0.27008 0.0849681 0)
(-0.281344 0.0838741 0)
(-0.291914 0.0822242 0)
(-0.301788 0.0800556 0)
(-0.310973 0.0774069 0)
(-0.319479 0.0743164 0)
(-0.327319 0.0708212 0)
(-0.334506 0.0669562 0)
(-0.341054 0.0627542 0)
(-0.34698 0.0582451 0)
(-0.352296 0.0534563 0)
(-0.357016 0.0484125 0)
(-0.361155 0.0431358 0)
(-0.364724 0.037646 0)
(-0.367733 0.0319606 0)
(-0.370193 0.0260954 0)
(-0.372111 0.0200647 0)
(-0.373492 0.0138814 0)