/*--------------------------------*- C++ -*----------------------------------*\
| =========                 |                                                 |
| \\      /  F ield         | OpenFOAM: The Open Source CFD Toolbox           |
|  \\    /   O peration     | Version:  2406                                  |
|   \\  /    A nd           | Website:  www.openfoam.com                      |
|    \\/     M anipulation  |                                                 |
\*---------------------------------------------------------------------------*/
FoamFile
{
    version     2.0;
    format      ascii;
    arch        "LSB;label=32;scalar=64";
    class       volScalarField;
    location    "45.1";
    object      p;
}
// * * * * * * * * * * * * * * * * * * * * * * * * * * * * * * * * * * * * * //

dimensions      [0 2 -2 0 0 0 0];

internalField   nonuniform List<scalar> 
3600
(
0.0409673
0.041001
0.040986
0.0409603
0.0408802
0.0407889
0.0406674
0.0405447
0.0404054
0.0402597
0.0400911
0.0398997
0.0396721
0.0394062
0.0390939
0.0387339
0.0383229
0.0378633
0.0373592
0.0368219
0.03627
0.0357321
0.0352447
0.03485
0.0345908
0.034506
0.0346261
0.0349699
0.0355411
0.0363259
0.0372904
0.0383791
0.0395151
0.0406031
0.0415362
0.0422069
0.0425206
0.0424115
0.0418559
0.0408812
0.039563
0.038017
0.0363754
0.0347689
0.0333009
0.0320442
0.0310286
0.0302587
0.0297067
0.0293414
0.0291131
0.0289902
0.0289279
0.0289139
0.0289147
0.0289391
0.0289574
0.0289954
0.0290167
0.0290501
0.040935
0.0409697
0.0409465
0.0409208
0.040844
0.0407625
0.0406527
0.0405434
0.0404171
0.0402848
0.0401307
0.039956
0.0397485
0.039507
0.0392229
0.0388942
0.0385155
0.0380869
0.0376108
0.0370975
0.0365621
0.0360274
0.0355231
0.0350877
0.0347647
0.0345977
0.034624
0.0348693
0.0353432
0.0360365
0.0369185
0.0379361
0.0390139
0.0400574
0.0409599
0.0416129
0.0419202
0.0418142
0.0412692
0.0403122
0.0390199
0.0375111
0.0359213
0.0343837
0.033001
0.0318413
0.0309251
0.0302463
0.029767
0.029451
0.029248
0.0291312
0.0290615
0.0290334
0.0290158
0.0290225
0.0290217
0.0290446
0.0290498
0.0290834
0.0409427
0.0409881
0.0409618
0.0409331
0.0408499
0.0407657
0.0406566
0.0405529
0.0404357
0.0403146
0.0401723
0.0400092
0.0398124
0.0395793
0.0392996
0.0389685
0.0385777
0.0381232
0.0376017
0.0370173
0.0363842
0.0357315
0.0351006
0.0345413
0.0341053
0.0338405
0.0337865
0.0339693
0.034399
0.035066
0.0359396
0.0369664
0.0380708
0.0391579
0.0401196
0.0408442
0.0412304
0.0412031
0.040728
0.0398242
0.0385636
0.0370649
0.0354694
0.0339209
0.0325337
0.0313855
0.0305018
0.0298759
0.029464
0.029221
0.0290871
0.0290288
0.0290025
0.0290043
0.029004
0.0290211
0.0290227
0.0290495
0.0290529
0.0291003
0.0409564
0.0410055
0.040971
0.0409344
0.0408438
0.040759
0.0406565
0.0405659
0.0404664
0.0403649
0.0402424
0.0400967
0.039913
0.0396842
0.0393945
0.039031
0.0385766
0.0380198
0.0373578
0.0366033
0.035783
0.0349367
0.0341134
0.0333681
0.032756
0.0323276
0.032124
0.0321725
0.0324846
0.033053
0.0338503
0.0348281
0.0359165
0.0370264
0.038054
0.0388888
0.0394256
0.0395802
0.0393042
0.0385995
0.037522
0.0361788
0.034707
0.0332535
0.0319411
0.0308577
0.0300373
0.0294786
0.0291383
0.0289698
0.0289076
0.0289136
0.0289389
0.0289786
0.0290014
0.0290318
0.0290361
0.0290644
0.0290627
0.0291188
0.0410195
0.0410674
0.0410216
0.0409701
0.0408664
0.040774
0.0406724
0.0405882
0.0404994
0.0404071
0.0402892
0.0401366
0.0399278
0.0396447
0.0392606
0.0387518
0.038099
0.0372976
0.0363583
0.0353092
0.034193
0.0330633
0.0319795
0.0310015
0.030185
0.0295782
0.0292187
0.0291317
0.0293278
0.0298013
0.0305295
0.0314709
0.0325648
0.0337325
0.0348795
0.035901
0.0366913
0.0371568
0.0372304
0.0368874
0.0361544
0.0351121
0.0338805
0.0326012
0.0314037
0.03039
0.0296107
0.02908
0.0287663
0.0286309
0.0286109
0.0286665
0.028743
0.0288307
0.0288931
0.0289541
0.0289783
0.0290205
0.029024
0.0290874
0.0411126
0.0411501
0.0410891
0.0410174
0.0409013
0.0408018
0.0407036
0.040625
0.0405429
0.0404487
0.0403146
0.0401182
0.0398253
0.039402
0.0388133
0.0380353
0.03706
0.0358998
0.0345864
0.0331668
0.0316981
0.0302421
0.0288613
0.0276147
0.026556
0.0257296
0.02517
0.0248997
0.0249286
0.0252533
0.0258564
0.0267056
0.0277536
0.0289373
0.0301788
0.0313881
0.0324685
0.0333245
0.0338747
0.0340654
0.0338838
0.0333666
0.0325962
0.0316895
0.0307691
0.0299451
0.0292852
0.0288235
0.0285467
0.0284313
0.0284255
0.0284974
0.0285946
0.0287063
0.0287926
0.0288743
0.0289139
0.0289651
0.0289726
0.0290346
0.0412662
0.0412848
0.0412059
0.041108
0.0409773
0.0408646
0.0407612
0.0406719
0.0405717
0.0404364
0.0402276
0.0399025
0.0394126
0.0387135
0.0377748
0.0365871
0.0351664
0.0335498
0.0317915
0.0299548
0.0281081
0.0263186
0.0246499
0.0231571
0.0218872
0.0208765
0.0201515
0.0197277
0.0196115
0.0197985
0.0202749
0.0210166
0.0219891
0.0231468
0.0244333
0.0257808
0.0271125
0.0283454
0.0293974
0.0301966
0.0306929
0.0308709
0.0307554
0.0304133
0.0299364
0.0294279
0.0289696
0.0286205
0.0283954
0.0282948
0.0282857
0.0283499
0.0284434
0.0285585
0.0286551
0.0287496
0.0288033
0.0288627
0.0288771
0.0289337
0.0414769
0.0414663
0.0413697
0.0412426
0.041099
0.0409683
0.0408505
0.0407288
0.0405743
0.0403393
0.0399712
0.0394057
0.0385892
0.0374809
0.036072
0.0343794
0.0324494
0.0303432
0.0281353
0.025901
0.0237145
0.0216415
0.0197397
0.0180549
0.0166235
0.0154707
0.0146135
0.01406
0.0138113
0.0138612
0.014198
0.0148033
0.0156534
0.0167183
0.0179619
0.0193413
0.0208064
0.0222996
0.0237569
0.0251106
0.0262947
0.0272541
0.0279539
0.0283897
0.0285892
0.0286123
0.0285292
0.0284143
0.0283141
0.028264
0.0282615
0.02831
0.0283813
0.0284762
0.0285604
0.0286478
0.0287011
0.028758
0.028774
0.02882
0.0417622
0.0417126
0.0415998
0.0414393
0.041279
0.0411154
0.0409579
0.0407597
0.0404854
0.0400573
0.0394111
0.0384696
0.0371916
0.0355572
0.0335928
0.0313474
0.0288984
0.0263286
0.0237271
0.0211732
0.0187393
0.0164818
0.0144466
0.012665
0.0111601
0.0099444
0.00902497
0.00840168
0.00807094
0.0080238
0.00824897
0.00873103
0.00945305
0.010395
0.0115361
0.0128526
0.0143193
0.0159067
0.0175803
0.0192973
0.0210053
0.0226425
0.0241409
0.0254355
0.0264748
0.0272376
0.0277361
0.0280229
0.0281619
0.0282275
0.028262
0.0283043
0.0283508
0.0284159
0.0284752
0.0285428
0.0285859
0.0286334
0.0286478
0.0286825
0.0421191
0.0420225
0.0418983
0.0417012
0.0415189
0.0413014
0.041068
0.0407327
0.0402522
0.0395189
0.0384688
0.0370289
0.0351901
0.0329668
0.030427
0.0276515
0.024744
0.0217997
0.0189116
0.016152
0.0135814
0.0112397
0.00915717
0.00734958
0.00582771
0.00459367
0.00364754
0.00298384
0.00259629
0.00247453
0.0026079
0.00298286
0.00358631
0.00440386
0.00542289
0.00663119
0.00801922
0.00957805
0.011299
0.0131693
0.0151674
0.0172563
0.0193767
0.0214453
0.0233583
0.0250094
0.026313
0.0272389
0.0278147
0.0281287
0.0282728
0.0283411
0.0283729
0.0284057
0.0284311
0.0284671
0.0284881
0.0285172
0.0285238
0.0285472
0.0425395
0.0423899
0.0422576
0.0420162
0.0417954
0.0414879
0.041122
0.0405665
0.0397739
0.0386157
0.0370474
0.0350191
0.0325697
0.0297537
0.0266806
0.0234556
0.0201981
0.0170019
0.0139516
0.0111018
0.00849531
0.00615301
0.00408992
0.00230866
0.00081111
-0.000407699
-0.00135155
-0.00202877
-0.00244646
-0.00261533
-0.00254507
-0.00224803
-0.00173504
-0.00101792
-0.000105509
0.000994804
0.00228052
0.00375274
0.00541768
0.00728359
0.00935738
0.0116365
0.014098
0.0166857
0.0192991
0.0217946
0.0240024
0.0257743
0.0270286
0.0277958
0.0281828
0.0283442
0.0283893
0.0283996
0.0283914
0.0283924
0.0283858
0.0283926
0.0283882
0.0284032
0.043001
0.0427964
0.0426589
0.0423629
0.0420798
0.041636
0.0410681
0.0401989
0.0389877
0.0373018
0.0351375
0.0324838
0.0294345
0.0260826
0.0225705
0.019014
0.0155326
0.0122045
0.00909596
0.0062385
0.00365628
0.00135308
-0.000667061
-0.00241039
-0.00387945
-0.00508255
-0.00602425
-0.00671348
-0.00715649
-0.00736334
-0.00734215
-0.00710403
-0.006658
-0.00601446
-0.00518052
-0.00416217
-0.00296005
-0.00157066
1.66795e-05
0.00181846
0.00385632
0.00615222
0.00871876
0.0115455
0.0145775
0.0176985
0.0207209
0.0234134
0.0255564
0.0270358
0.0278835
0.0282694
0.0283862
0.0283952
0.0283595
0.028325
0.0282876
0.0282697
0.0282514
0.0282601
0.0434558
0.0431959
0.0430499
0.0426806
0.0422988
0.0416598
0.0408101
0.039534
0.037814
0.0355325
0.0327442
0.0294841
0.0258999
0.0221126
0.0182832
0.0145207
0.0109309
0.00756665
0.00447188
0.00165561
-0.000872742
-0.00312173
-0.00509328
-0.00679834
-0.00824043
-0.00942895
-0.0103675
-0.0110649
-0.0115257
-0.0117594
-0.0117723
-0.0115747
-0.0111739
-0.0105797
-0.00979817
-0.00883521
-0.00769175
-0.00636519
-0.00484584
-0.00311713
-0.00115454
0.00107345
0.00359963
0.00644994
0.00962222
0.0130636
0.0166372
0.0201135
0.0231908
0.0255893
0.0271638
0.0279917
0.0282971
0.0283501
0.0283029
0.0282382
0.0281716
0.02813
0.0280975
0.0281021
0.0438511
0.0435382
0.0433765
0.0429119
0.042389
0.0414937
0.0402863
0.0385268
0.0362393
0.0333399
0.0299506
0.0261509
0.022133
0.0180299
0.0140036
0.0101415
0.00652687
0.00318363
0.000135948
-0.00262545
-0.00510009
-0.00730385
-0.00924017
-0.0109217
-0.0123507
-0.0135363
-0.0144803
-0.0151908
-0.0156709
-0.0159288
-0.0159695
-0.0158021
-0.0154327
-0.01487
-0.0141196
-0.0131874
-0.0120751
-0.0107821
-0.00930189
-0.0076218
-0.00572128
-0.00357001
-0.00113086
0.0016394
0.00477414
0.00828121
0.0121023
0.0160808
0.0199332
0.0232898
0.025809
0.0273518
0.0280547
0.0282419
0.0282146
0.0281292
0.0280363
0.027972
0.0279256
0.0279259
0.0441027
0.0437389
0.0435465
0.0429591
0.0422488
0.0410394
0.0394127
0.0371229
0.0342517
0.03076
0.0268371
0.0225985
0.018265
0.0139638
0.00984357
0.00596063
0.00237368
-0.000919655
-0.00390955
-0.00661765
-0.00904695
-0.0112167
-0.0131291
-0.0147967
-0.0162197
-0.0174067
-0.0183576
-0.01908
-0.0195755
-0.0198519
-0.0199128
-0.0197666
-0.0194182
-0.0188757
-0.0181438
-0.0172284
-0.0161316
-0.0148545
-0.0133936
-0.0117403
-0.00988061
-0.00779014
-0.00543701
-0.002776
0.000240157
0.00365732
0.00748404
0.011659
0.0159904
0.0201352
0.0236452
0.0261364
0.0275115
0.0280136
0.0280655
0.0279798
0.0278656
0.0277791
0.0277195
0.0277136
0.0441418
0.0437304
0.0434903
0.0427549
0.0418166
0.0402503
0.0381679
0.0353367
0.0319066
0.0278869
0.0235265
0.0189623
0.0144266
0.0100251
0.00588435
0.00202699
-0.00150957
-0.00474845
-0.00768765
-0.010356
-0.0127558
-0.0149073
-0.0168096
-0.0184751
-0.0199011
-0.021096
-0.022058
-0.0227943
-0.0233051
-0.023598
-0.0236753
-0.023545
-0.023211
-0.0226808
-0.0219583
-0.0210493
-0.0199563
-0.0186809
-0.0172222
-0.015575
-0.013731
-0.011673
-0.00937832
-0.0068086
-0.00391886
-0.000648771
0.00304916
0.00719205
0.0116985
0.0163339
0.020675
0.0241923
0.0264908
0.0275792
0.0278351
0.0277836
0.027659
0.0275469
0.0274738
0.0274573
0.0438807
0.0434238
0.0431169
0.0422117
0.0410147
0.0390689
0.0365247
0.0331779
0.0292494
0.0247937
0.0201055
0.0153272
0.0106871
0.00625996
0.00214697
-0.00166001
-0.00513891
-0.00832721
-0.0112252
-0.013865
-0.0162459
-0.0183878
-0.0202865
-0.0219537
-0.0233847
-0.0245875
-0.025559
-0.0263064
-0.0268288
-0.0271337
-0.0272226
-0.0271031
-0.0267784
-0.0262556
-0.0255383
-0.0246317
-0.0235387
-0.0222611
-0.0207994
-0.0191505
-0.0173104
-0.015267
-0.0130071
-0.0105011
-0.00771507
-0.00459051
-0.00106785
0.00291682
0.00737094
0.0121901
0.017071
0.0214835
0.0248356
0.0267713
0.0274812
0.0275146
0.0274079
0.0272642
0.0271753
0.0271421
0.0432738
0.0427754
0.0423861
0.0412995
0.0398296
0.0375065
0.0345242
0.0307182
0.0263758
0.0215882
0.01668
0.0117844
0.00711463
0.00271043
-0.00135003
-0.00509999
-0.00852617
-0.0116748
-0.0145444
-0.017168
-0.0195406
-0.0216814
-0.0235829
-0.0252567
-0.0266959
-0.0279087
-0.0288905
-0.0296488
-0.0301816
-0.0304965
-0.0305942
-0.0304821
-0.0301629
-0.0296434
-0.0289271
-0.0280189
-0.0269219
-0.0256381
-0.0241692
-0.0225127
-0.0206681
-0.0186264
-0.0163818
-0.0139126
-0.0111976
-0.00818805
-0.00483052
-0.00104362
0.00323244
0.00800281
0.013112
0.0181492
0.022482
0.0254428
0.0268901
0.0271639
0.027092
0.026931
0.0268153
0.0267604
0.0422739
0.0417381
0.0412547
0.039985
0.0382447
0.0355692
0.0321972
0.028009
0.0233486
0.0183327
0.0133005
0.00836538
0.00371937
-0.000631487
-0.00462736
-0.00831991
-0.0116992
-0.0148159
-0.0176645
-0.0202776
-0.0226457
-0.0247876
-0.0266927
-0.0283726
-0.0298187
-0.0310395
-0.0320292
-0.0327954
-0.0333356
-0.0336571
-0.0337602
-0.0336522
-0.0333354
-0.0328166
-0.0320993
-0.0311882
-0.0300871
-0.0287975
-0.0273225
-0.0256595
-0.0238105
-0.0217675
-0.0195302
-0.017082
-0.0144131
-0.0114857
-0.00826111
-0.00466001
-0.000604117
0.00398144
0.00907108
0.0144226
0.0194979
0.0235099
0.025887
0.0267035
0.0266768
0.0265363
0.0263805
0.0262987
0.0408916
0.0403256
0.0397438
0.0383013
0.0363101
0.0333264
0.0296305
0.0251483
0.0202669
0.0151175
0.0100405
0.00512295
0.000534375
-0.00374842
-0.00767834
-0.0113192
-0.0146603
-0.0177537
-0.0205888
-0.0231972
-0.0255654
-0.0277114
-0.0296224
-0.0313099
-0.032764
-0.0339933
-0.034991
-0.0357648
-0.0363114
-0.0366381
-0.0367447
-0.0366384
-0.0363217
-0.0358008
-0.0350798
-0.0341633
-0.0330559
-0.031759
-0.0302771
-0.0286071
-0.0267534
-0.0247077
-0.0224739
-0.0200373
-0.0173976
-0.0145251
-0.0113982
-0.00794862
-0.00410312
0.000245106
0.00515945
0.0105546
0.0160761
0.0209665
0.0243847
0.0259902
0.0261756
0.026036
0.025872
0.0257395
0.0391404
0.0385524
0.0378732
0.0362772
0.0340664
0.0308299
0.0268833
0.0221943
0.0171796
0.0119753
0.00691295
0.00205211
-0.00245912
-0.00666694
-0.010532
-0.0141252
-0.0174327
-0.0205059
-0.0233295
-0.0259336
-0.0283011
-0.03045
-0.0323652
-0.0340586
-0.0355188
-0.0367544
-0.037758
-0.0385371
-0.0390879
-0.0394174
-0.0395254
-0.0394187
-0.0391
-0.0385754
-0.0378496
-0.0369269
-0.0358132
-0.0345094
-0.0330219
-0.0313468
-0.0294911
-0.0274451
-0.0252164
-0.0227898
-0.0201721
-0.0173382
-0.0142817
-0.0109474
-0.00727981
-0.00316666
0.00149905
0.00675185
0.0124343
0.0179219
0.0223587
0.0248529
0.0255917
0.025386
0.0252817
0.0250615
0.0370884
0.0364895
0.0357201
0.0339976
0.0316071
0.0281799
0.0240571
0.0192435
0.0141717
0.00897517
0.00397043
-0.000809115
-0.00523377
-0.0093664
-0.0131714
-0.0167227
-0.020002
-0.0230594
-0.0258744
-0.0284762
-0.0308447
-0.0329975
-0.034918
-0.0366178
-0.0380847
-0.0393271
-0.0403368
-0.0411211
-0.0416756
-0.0420072
-0.0421156
-0.0420072
-0.0416851
-0.0411551
-0.040423
-0.0394924
-0.038371
-0.0370591
-0.0355655
-0.0338851
-0.0320279
-0.0299825
-0.0277603
-0.0253437
-0.0227457
-0.0199415
-0.0169379
-0.0136896
-0.0101634
-0.00625664
-0.00185441
0.00315495
0.00876886
0.0145712
0.01982
0.0232588
0.0247945
0.0246104
0.0245584
0.0242581
0.0347961
0.0341973
0.033348
0.0315284
0.029
0.0254418
0.0212093
0.0163393
0.0112683
0.00612361
0.00120292
-0.00348237
-0.00781766
-0.0118766
-0.0156249
-0.0191365
-0.022389
-0.0254299
-0.0282351
-0.0308325
-0.0331997
-0.0353541
-0.0372776
-0.0389818
-0.0404533
-0.0417005
-0.0427145
-0.0435021
-0.0440588
-0.0443909
-0.0444983
-0.0443869
-0.0440605
-0.0435242
-0.0427852
-0.0418464
-0.0407176
-0.0393977
-0.0378989
-0.0362141
-0.0343574
-0.0323145
-0.0301015
-0.0276973
-0.0251204
-0.0223437
-0.0193843
-0.0162029
-0.0127876
-0.00905147
-0.00489343
-0.000166134
0.00523025
0.0111023
0.0168619
0.0212381
0.0236018
0.0237524
0.0236352
0.0233263
0.032363
0.0317772
0.030861
0.0289755
0.0263509
0.0227176
0.0184344
0.013565
0.00853963
0.00347793
-0.00134268
-0.00592807
-0.0101756
-0.0141649
-0.0178614
-0.0213372
-0.0245657
-0.0275919
-0.0303887
-0.0329824
-0.0353492
-0.0375058
-0.039433
-0.0411421
-0.0426189
-0.0438713
-0.04489
-0.045681
-0.0462399
-0.0465724
-0.0466786
-0.0465637
-0.0462326
-0.0456894
-0.044943
-0.0439951
-0.0428583
-0.0415299
-0.0400255
-0.0383359
-0.0364799
-0.0344399
-0.0322375
-0.029847
-0.027293
-0.024544
-0.021626
-0.0185005
-0.0151749
-0.0115777
-0.0076312
-0.00318589
0.00191979
0.00766474
0.0136564
0.0188179
0.0219695
0.0227727
0.0225007
0.0222478
0.0298652
0.0293039
0.0283339
0.0264101
0.0237248
0.0200617
0.015772
0.0109424
0.00598995
0.00102724
-0.00368855
-0.00817504
-0.0123393
-0.0162628
-0.0199103
-0.023351
-0.0265549
-0.0295647
-0.0323506
-0.034938
-0.0373017
-0.0394577
-0.0413863
-0.0430979
-0.044578
-0.0458336
-0.0468551
-0.047648
-0.0482078
-0.0485394
-0.0486436
-0.0485245
-0.0481884
-0.0476379
-0.0468844
-0.0459277
-0.0447835
-0.0434467
-0.0419376
-0.0402439
-0.0383896
-0.0363534
-0.0341632
-0.0317879
-0.0292596
-0.0265398
-0.0236638
-0.0205897
-0.0173414
-0.0138589
-0.0100913
-0.00590659
-0.00111273
0.00436777
0.0103766
0.0160477
0.0199612
0.0215271
0.0211935
0.0209786
0.0274029
0.0268785
0.0258682
0.0239316
0.0212172
0.0175625
0.0133013
0.00854142
0.00368023
-0.0011744
-0.00578502
-0.0101762
-0.0142628
-0.0181256
-0.0217285
-0.0251369
-0.0283185
-0.0313129
-0.0340893
-0.0366712
-0.0390327
-0.041189
-0.0431197
-0.0448345
-0.0463184
-0.0475777
-0.0486027
-0.0493978
-0.0499591
-0.05029
-0.0503926
-0.0502695
-0.0499288
-0.0493713
-0.0486109
-0.0476453
-0.046494
-0.0451488
-0.0436353
-0.0419369
-0.0400847
-0.0380519
-0.0358745
-0.0335148
-0.0310136
-0.0283243
-0.0254923
-0.0224682
-0.0192918
-0.0159074
-0.0122928
-0.00833866
-0.00385007
0.00129112
0.00715643
0.0130388
0.0176565
0.0199139
0.0197736
0.0194957
0.0250409
0.0245633
0.0235242
0.0215942
0.0188728
0.015252
0.0110398
0.00636396
0.00159856
-0.0031499
-0.00766257
-0.0119661
-0.0159826
-0.0197893
-0.0233504
-0.0267268
-0.0298853
-0.0328625
-0.0356269
-0.0382005
-0.0405573
-0.042711
-0.0446414
-0.0463568
-0.0478425
-0.0491034
-0.0501302
-0.050926
-0.0514876
-0.0518169
-0.0519174
-0.0517899
-0.0514447
-0.0508801
-0.0501136
-0.0491394
-0.0479819
-0.0466289
-0.0451117
-0.0434092
-0.0415597
-0.0395304
-0.0373666
-0.0350224
-0.0325498
-0.0298916
-0.0271059
-0.0241318
-0.0210261
-0.0177295
-0.0142498
-0.0104959
-0.00629401
-0.00151611
0.00408617
0.00993647
0.0151164
0.0179408
0.0182504
0.0177999
0.0228597
0.0224393
0.0213836
0.0194772
0.0167672
0.0132004
0.00905231
0.00446998
-0.000198166
-0.00484398
-0.00926603
-0.0134897
-0.0174432
-0.0211993
-0.024723
-0.0280704
-0.0312082
-0.0341699
-0.0369241
-0.0394907
-0.0418441
-0.0439964
-0.0459276
-0.0476446
-0.0491331
-0.0503963
-0.0514259
-0.052223
-0.0527859
-0.0531143
-0.0532139
-0.0530826
-0.0527339
-0.0521629
-0.0513912
-0.0504089
-0.049246
-0.0478852
-0.0463651
-0.044658
-0.0428115
-0.0407849
-0.0386347
-0.0363051
-0.0338613
-0.0312338
-0.0284958
-0.0255718
-0.0225373
-0.0193226
-0.0159666
-0.0123868
-0.00844954
-0.0040272
0.0012287
0.0068755
0.0123961
0.0156688
0.0165508
0.0158882
0.0208978
0.0205424
0.0194797
0.0176078
0.0149192
0.0114156
0.00733489
0.00284409
-0.00173558
-0.00629023
-0.0106347
-0.0147894
-0.0186888
-0.0223998
-0.0258891
-0.0292084
-0.0323251
-0.0352697
-0.0380117
-0.040569
-0.0429165
-0.0450646
-0.0469942
-0.0487103
-0.0501995
-0.0514631
-0.0524939
-0.053291
-0.0538543
-0.054181
-0.0542792
-0.0541439
-0.0537921
-0.0532148
-0.0524386
-0.0514485
-0.0502812
-0.0489128
-0.0473905
-0.0456787
-0.0438356
-0.0418109
-0.0396741
-0.0373578
-0.0349425
-0.0323445
-0.0296546
-0.02678
-0.0238176
-0.0206808
-0.0174418
-0.0140154
-0.0103209
-0.00623064
-0.00136934
0.00396168
0.009573
0.013175
0.0145963
0.01377
0.0192094
0.0189274
0.017869
0.0160425
0.0133842
0.00995172
0.00594115
0.00154022
-0.00295778
-0.0074304
-0.0117075
-0.0158023
-0.0196554
-0.0233272
-0.0267869
-0.0300817
-0.0331804
-0.0361105
-0.0388428
-0.0413928
-0.0437365
-0.0458823
-0.0478121
-0.0495288
-0.0510202
-0.0522855
-0.0533191
-0.0541173
-0.0546826
-0.0550087
-0.0551073
-0.0549691
-0.0546156
-0.0540329
-0.0532536
-0.0522563
-0.0510854
-0.0497095
-0.0481855
-0.0464684
-0.0446287
-0.0426044
-0.0404803
-0.0381748
-0.035787
-0.0332156
-0.0305731
-0.0277457
-0.0248555
-0.0217933
-0.0186669
-0.0153779
-0.011906
-0.00811895
-0.00366985
0.00127601
0.00675508
0.0105542
0.0123931
0.0114997
0.0178031
0.0175998
0.0165551
0.0147801
0.0121551
0.00879361
0.00484765
0.000526797
-0.00390387
-0.00830975
-0.0125346
-0.0165818
-0.0203981
-0.0240367
-0.0274706
-0.0307422
-0.0338231
-0.0367377
-0.0394587
-0.0419994
-0.0443372
-0.0464784
-0.0484061
-0.0501213
-0.0516132
-0.0528784
-0.0539135
-0.0547117
-0.0552783
-0.0556032
-0.0557021
-0.0555606
-0.055206
-0.0546177
-0.0538359
-0.0528312
-0.0516575
-0.0502736
-0.0487483
-0.0470247
-0.045188
-0.0431621
-0.0410496
-0.0387521
-0.0363896
-0.0338412
-0.0312439
-0.0284599
-0.0256404
-0.0226486
-0.0196309
-0.0164663
-0.0131987
-0.0096844
-0.00564129
-0.00111569
0.0040663
0.00792369
0.010044
0.00917615
0.0167089
0.0165899
0.0155713
0.0138569
0.0112705
0.00798298
0.00410041
-0.000145307
-0.004517
-0.008866
-0.0130487
-0.0170572
-0.0208444
-0.0244561
-0.0278692
-0.031122
-0.0341889
-0.0370916
-0.0398047
-0.0423391
-0.0446741
-0.0468132
-0.0487417
-0.0504576
-0.0519525
-0.0532197
-0.0542587
-0.0550587
-0.055629
-0.0559544
-0.0560558
-0.0559125
-0.0555586
-0.0549659
-0.0541831
-0.0531714
-0.0519959
-0.0506035
-0.049077
-0.0473456
-0.0455111
-0.0434811
-0.0413783
-0.0390847
-0.0367448
-0.0342141
-0.0316586
-0.0289122
-0.0261603
-0.0232328
-0.0203194
-0.0172671
-0.0141871
-0.0109153
-0.00725658
-0.00315806
0.00162383
0.0054114
0.00769651
0.00691565
0.0159078
0.0158748
0.0148928
0.0132447
0.0106987
0.00748283
0.0036569
-0.000524104
-0.0048509
-0.00915792
-0.0133131
-0.0172951
-0.0210628
-0.0246539
-0.0280504
-0.031286
-0.0343397
-0.0372297
-0.039934
-0.0424604
-0.044791
-0.0469263
-0.0488541
-0.050569
-0.0520659
-0.0533337
-0.0543761
-0.055177
-0.0557508
-0.0560761
-0.0561802
-0.0560346
-0.0556819
-0.0550842
-0.0543008
-0.0532814
-0.0521041
-0.0507019
-0.0491737
-0.047432
-0.0455984
-0.0435606
-0.041465
-0.0391702
-0.0368491
-0.0343295
-0.0318109
-0.0290944
-0.0264049
-0.0235334
-0.0207182
-0.0177654
-0.0148571
-0.0117977
-0.00849284
-0.00480564
-0.000476208
0.00313816
0.00549204
0.00482633
0.0154115
0.0154655
0.0145346
0.0129639
0.0104664
0.00732645
0.0035588
-0.000559437
-0.00484595
-0.00911782
-0.0132529
-0.0172159
-0.0209707
-0.0245474
-0.0279326
-0.0311562
-0.0342012
-0.037083
-0.0397828
-0.0423055
-0.0446359
-0.0467712
-0.0487023
-0.0504197
-0.0519222
-0.0531937
-0.0542429
-0.0550474
-0.0556281
-0.0559555
-0.0560652
-0.0559192
-0.0555701
-0.0549684
-0.0541863
-0.0531592
-0.0519809
-0.0505677
-0.0490376
-0.0472831
-0.0454488
-0.043399
-0.0413075
-0.0390055
-0.0366985
-0.0341819
-0.031694
-0.0289977
-0.0263635
-0.0235371
-0.0208122
-0.0179445
-0.015192
-0.0123153
-0.00933006
-0.00602264
-0.00216201
0.00120557
0.00354524
0.0029983
0.0151765
0.0153123
0.0144447
0.0129598
0.0105173
0.00745449
0.00374342
-0.000317425
-0.00457259
-0.00882017
-0.0129469
-0.0169014
-0.0206522
-0.0242204
-0.0275985
-0.030812
-0.0338492
-0.0367224
-0.0394173
-0.0419352
-0.0442646
-0.0463988
-0.0483326
-0.0500518
-0.0515597
-0.0528345
-0.0538907
-0.0546985
-0.0552864
-0.0556156
-0.0557316
-0.0555845
-0.0552396
-0.0546329
-0.0538521
-0.0528157
-0.0516359
-0.0502091
-0.0486756
-0.0469044
-0.0450668
-0.0429994
-0.0409078
-0.038591
-0.0362922
-0.0337689
-0.0313041
-0.028616
-0.026028
-0.0232332
-0.0205882
-0.017789
-0.015176
-0.0124518
-0.00975106
-0.00678194
-0.0033826
-0.000306556
0.00194484
0.00150559
0.0152026
0.0154134
0.0146258
0.0132416
0.0108708
0.00789578
0.00425137
0.000253901
-0.00396625
-0.0081898
-0.0123103
-0.0162607
-0.0200122
-0.0235776
-0.0269539
-0.0301628
-0.0331977
-0.036068
-0.0387635
-0.041282
-0.0436162
-0.0457545
-0.0476967
-0.0494223
-0.050941
-0.0522232
-0.0532914
-0.054106
-0.0547057
-0.0550396
-0.0551657
-0.0550197
-0.0546819
-0.0540714
-0.053294
-0.0522479
-0.0510674
-0.0496252
-0.0480876
-0.0462959
-0.0444525
-0.0423616
-0.0402657
-0.0379257
-0.0356286
-0.0330875
-0.030637
-0.0279432
-0.0253907
-0.0226112
-0.0200339
-0.017284
-0.0147935
-0.0121914
-0.00974075
-0.00706309
-0.00410227
-0.00133724
0.000761284
0.000411621
0.0154232
0.0156939
0.0149997
0.0137275
0.0114449
0.00856665
0.00499721
0.00106729
-0.00311713
-0.00731961
-0.0114398
-0.0153926
-0.0191515
-0.022719
-0.0260973
-0.0293034
-0.0323373
-0.0352044
-0.0379008
-0.0404194
-0.0427587
-0.0449009
-0.0468523
-0.0485846
-0.0501154
-0.0514055
-0.0524872
-0.0533091
-0.0539221
-0.0542607
-0.0543982
-0.0542526
-0.0539227
-0.0533069
-0.0525329
-0.0514745
-0.0502924
-0.0488308
-0.0472868
-0.0454689
-0.0436159
-0.0414938
-0.0393877
-0.0370143
-0.034711
-0.0321389
-0.0296924
-0.0269768
-0.0244472
-0.021664
-0.0191403
-0.0164178
-0.0140316
-0.0115204
-0.00928667
-0.00685091
-0.0042961
-0.00183993
5.3651e-05
-0.000226116
0.0158352
0.0161498
0.0155658
0.0144234
0.0122581
0.00949687
0.00602498
0.00218
-0.00195267
-0.00612419
-0.0102377
-0.0141917
-0.0179594
-0.0215331
-0.0249185
-0.0281281
-0.0311675
-0.0340384
-0.0367429
-0.0392686
-0.0416205
-0.0437736
-0.0457416
-0.0474871
-0.0490372
-0.0503409
-0.0514426
-0.0522766
-0.0529086
-0.0532558
-0.0534095
-0.0532669
-0.052949
-0.0523289
-0.0515608
-0.0504897
-0.049307
-0.0478233
-0.0462722
-0.0444233
-0.0425578
-0.0403967
-0.0382752
-0.0358576
-0.03354
-0.0309227
-0.0284693
-0.025714
-0.0231938
-0.0203856
-0.0178997
-0.01518
-0.0128795
-0.010427
-0.00837889
-0.00613435
-0.00394694
-0.00177919
-0.000126731
-0.000353896
0.0163499
0.0166863
0.0162221
0.0152212
0.0132007
0.0105756
0.00722242
0.0034792
-0.000587457
-0.00471879
-0.00882157
-0.0127763
-0.0165549
-0.0201372
-0.0235326
-0.0267472
-0.0297936
-0.0326688
-0.0353826
-0.0379159
-0.0402823
-0.0424473
-0.0444347
-0.0461949
-0.0477675
-0.0490865
-0.0502117
-0.0510589
-0.0517132
-0.0520693
-0.0522417
-0.0521016
-0.0517969
-0.0511706
-0.0504089
-0.0493215
-0.0481371
-0.0466261
-0.0450652
-0.0431777
-0.041295
-0.0390849
-0.036941
-0.0344661
-0.0321246
-0.0294454
-0.0269726
-0.0241571
-0.0216312
-0.0187739
-0.0163089
-0.0135648
-0.0113308
-0.00890309
-0.00701122
-0.00490646
-0.00304443
-0.00112896
0.000264526
7.80897e-05
0.0169789
0.0173192
0.016982
0.016139
0.0143007
0.0118427
0.00864405
0.00503303
0.00106337
-0.00300424
-0.00707767
-0.0110229
-0.0148079
-0.0183999
-0.0218096
-0.0250359
-0.0280977
-0.0309858
-0.0337185
-0.0362687
-0.0386595
-0.0408453
-0.0428621
-0.0446453
-0.04625
-0.0475914
-0.0487488
-0.0496154
-0.0502994
-0.0506692
-0.0508668
-0.0507321
-0.0504458
-0.0498147
-0.0490628
-0.0479585
-0.0467742
-0.0452328
-0.0436615
-0.0417297
-0.0398269
-0.0375588
-0.0353867
-0.0328416
-0.0304673
-0.027709
-0.0252045
-0.0223071
-0.0197601
-0.0168278
-0.0143662
-0.0115682
-0.00938189
-0.00694387
-0.00518147
-0.00316459
-0.001585
0.00012758
0.00126338
0.00111355
0.0176141
0.0179405
0.0177232
0.0170453
0.0154178
0.013156
0.0101446
0.00669675
0.00285407
-0.0011241
-0.00514949
-0.00907253
-0.0128579
-0.0164566
-0.0198812
-0.0231197
-0.0261994
-0.0291019
-0.0318571
-0.034426
-0.0368459
-0.0390553
-0.0411069
-0.0429164
-0.044559
-0.0459261
-0.0471215
-0.0480097
-0.0487287
-0.0491132
-0.04934
-0.0492104
-0.0489451
-0.048307
-0.047566
-0.0464406
-0.0452556
-0.0436774
-0.0420932
-0.0401079
-0.0381801
-0.0358416
-0.0336338
-0.0310025
-0.0285845
-0.0257271
-0.023177
-0.020173
-0.0175883
-0.0145523
-0.0120762
-0.00919215
-0.0070352
-0.00454969
-0.0028931
-0.000911357
0.000427139
0.00199734
0.0028945
0.0027867
0.0183065
0.0186121
0.0184998
0.0179951
0.0166073
0.0145799
0.0118004
0.00855854
0.00488858
0.00103942
-0.00290327
-0.00678077
-0.010552
-0.0141526
-0.0175939
-0.0208516
-0.0239594
-0.0268877
-0.0296783
-0.0322783
-0.0347408
-0.0369855
-0.0390852
-0.0409315
-0.0426245
-0.0440263
-0.0452709
-0.0461883
-0.0469521
-0.0473569
-0.0476212
-0.0475003
-0.0472628
-0.0466193
-0.0458943
-0.044747
-0.0435645
-0.041946
-0.0403498
-0.0383044
-0.0363496
-0.0339305
-0.0316817
-0.0289495
-0.0264791
-0.0235026
-0.0208944
-0.0177589
-0.0151209
-0.0119514
-0.00944404
-0.00644021
-0.00429659
-0.00172496
-0.000155101
0.00184515
0.0029792
0.00447656
0.00516806
0.00511847
0.0189225
0.0192008
0.0191669
0.0188297
0.0176936
0.015933
0.0134237
0.0104322
0.00698015
0.00330554
-0.000516378
-0.00431679
-0.00805398
-0.011643
-0.0150967
-0.0183715
-0.0215113
-0.0244683
-0.0273018
-0.0299377
-0.0324517
-0.0347373
-0.0368948
-0.0387834
-0.0405367
-0.041978
-0.043281
-0.044231
-0.0450475
-0.0454744
-0.0457826
-0.0456702
-0.045465
-0.0448137
-0.0441072
-0.0429332
-0.0417536
-0.0400874
-0.0384773
-0.0363612
-0.034375
-0.0318611
-0.0295637
-0.026712
-0.0241783
-0.0210594
-0.0183788
-0.0150833
-0.0123757
-0.00903961
-0.00648459
-0.0033245
-0.00118021
0.00151871
0.00301573
0.00509009
0.00604884
0.00755054
0.0080772
0.00811366
0.0195806
0.0198344
0.0198534
0.0196707
0.0187903
0.0173265
0.0151313
0.0124407
0.00926369
0.00581888
0.00217026
-0.00151227
-0.00518613
-0.00874829
-0.0122105
-0.0155073
-0.0186909
-0.0216912
-0.0245854
-0.0272739
-0.0298584
-0.0322004
-0.0344336
-0.0363781
-0.0382078
-0.0396999
-0.0410757
-0.0420672
-0.042949
-0.0434045
-0.0437674
-0.0436677
-0.0435038
-0.0428464
-0.0421657
-0.0409642
-0.0397928
-0.0380753
-0.0364541
-0.0342605
-0.0322429
-0.029623
-0.0272737
-0.0242866
-0.0216823
-0.0183992
-0.0156355
-0.0121524
-0.00936184
-0.00582644
-0.00321068
0.000142917
0.00229724
0.00516621
0.00659693
0.00880318
0.00960482
0.0111946
0.0115971
0.0117598
0.0200944
0.0203188
0.0203682
0.0203112
0.0196743
0.0185239
0.0166784
0.0143417
0.0114978
0.00834923
0.00493415
0.00142619
-0.00214405
-0.00564808
-0.0091046
-0.0124149
-0.0156464
-0.0186939
-0.021662
-0.024412
-0.0270831
-0.0294914
-0.0318167
-0.0338259
-0.0357474
-0.0372973
-0.0387597
-0.0397974
-0.0407563
-0.0412427
-0.0416698
-0.0415824
-0.0414672
-0.0408006
-0.0401507
-0.0389161
-0.0377556
-0.035978
-0.034346
-0.0320626
-0.0300111
-0.027269
-0.024862
-0.0217184
-0.0190345
-0.0155611
-0.0127019
-0.00899974
-0.00611253
-0.00234137
0.000347027
0.00393493
0.00610536
0.00919141
0.0105555
0.0129566
0.0136069
0.0153765
0.0156874
0.0160299
0.0206844
0.0208839
0.0209492
0.0209829
0.0205629
0.0197236
0.0182552
0.0163189
0.0138699
0.0110837
0.00797019
0.00469589
0.00127645
-0.0021387
-0.0055753
-0.00889769
-0.0121883
-0.0152992
-0.0183643
-0.0211975
-0.0239811
-0.0264765
-0.0289182
-0.0310097
-0.0330445
-0.0346662
-0.0362337
-0.0373282
-0.0383801
-0.0389049
-0.0394098
-0.0393394
-0.0392845
-0.0386111
-0.0380017
-0.0367333
-0.0355918
-0.0337506
-0.0321137
-0.0297335
-0.0276514
-0.0247759
-0.0223117
-0.0189953
-0.0162287
-0.0125428
-0.00958224
-0.00563254