/*--------------------------------*- C++ -*----------------------------------*\
| =========                 |                                                 |
| \\      /  F ield         | OpenFOAM: The Open Source CFD Toolbox           |
|  \\    /   O peration     | Version:  2406                                  |
|   \\  /    A nd           | Website:  www.openfoam.com                      |
|    \\/     M anipulation  |                                                 |
\*---------------------------------------------------------------------------*/
FoamFile
{
    version     2.0;
    format      ascii;
    arch        "LSB;label=32;scalar=64";
    class       volVectorField;
    location    "38.8";
    object      dU;
}
// * * * * * * * * * * * * * * * * * * * * * * * * * * * * * * * * * * * * * //

dimensions      [0 1 -1 0 0 0 0];

internalField   nonuniform List<vector> 
900
(
(1.36163e-05 -2.42209e-06 0)
(-8.71867e-06 -6.66964e-06 0)
(-4.18044e-05 -5.73549e-06 0)
(-4.76931e-05 -1.25503e-06 0)
(-5.35672e-05 5.1596e-06 0)
(-6.12697e-05 1.2655e-05 0)
(-8.44394e-05 1.92183e-05 0)
(-0.000129974 2.70331e-05 0)
(-0.000192836 6.25674e-05 0)
(-0.000213656 0.000114011 0)
(-0.000160063 0.000108509 0)
(-6.84024e-05 4.30787e-05 0)
(-4.04255e-06 -2.9262e-05 0)
(2.75327e-05 -8.64434e-05 0)
(9.28288e-05 -0.000126191 0)
(0.000229696 -0.000153473 0)
(0.00042821 -0.000174856 0)
(0.000639387 -0.000194145 0)
(0.000812889 -0.000212594 0)
(0.000864156 -0.000228765 0)
(0.000752689 -0.000237788 0)
(0.000423451 -0.000238559 0)
(-3.40609e-05 -0.000226735 0)
(-0.00049092 -0.000209589 0)
(-0.000675134 -0.000186492 0)
(-0.000535828 -0.000150177 0)
(-0.000246615 -0.000101833 0)
(-7.11291e-05 -3.66947e-05 0)
(-2.08031e-05 -1.39961e-06 0)
(3.0513e-05 1.32144e-05 0)
(9.43144e-06 6.70283e-06 0)
(-1.34078e-05 -4.46555e-06 0)
(-3.86514e-05 -1.03543e-05 0)
(-3.85148e-05 -9.16021e-06 0)
(-4.12407e-05 9.93519e-07 0)
(-4.89245e-05 1.28998e-05 0)
(-7.24273e-05 2.97625e-05 0)
(-9.08192e-05 4.51964e-05 0)
(-0.000114171 3.27125e-05 0)
(-0.000183181 -1.57315e-05 0)
(-0.000250558 -0.00010557 0)
(-0.000220298 -0.000248072 0)
(-0.000139565 -0.000412456 0)
(-7.21987e-05 -0.000552319 0)
(2.29414e-05 -0.000645212 0)
(0.000177808 -0.000702105 0)
(0.00038374 -0.000740563 0)
(0.000597308 -0.000771432 0)
(0.00077341 -0.000797939 0)
(0.00083377 -0.000811584 0)
(0.000737568 -0.000795929 0)
(0.000429291 -0.000740986 0)
(-9.63737e-06 -0.000632521 0)
(-0.00045401 -0.000506187 0)
(-0.000615768 -0.000379447 0)
(-0.000447727 -0.000291466 0)
(-0.000129593 -0.00023151 0)
(3.12293e-05 -0.000142552 0)
(2.94766e-05 -9.87005e-05 0)
(4.50382e-05 -8.1817e-05 0)
(3.59986e-06 3.80338e-05 0)
(-2.65966e-05 1.85816e-05 0)
(-4.95928e-05 6.27119e-06 0)
(-3.9098e-05 2.00428e-06 0)
(-3.52392e-05 1.19456e-05 0)
(-3.84812e-05 1.66217e-05 0)
(-6.25409e-05 -4.91068e-06 0)
(-0.000146199 -7.99188e-05 0)
(-0.000281075 -0.000220921 0)
(-0.000377959 -0.000422853 0)
(-0.00041134 -0.00062135 0)
(-0.000387442 -0.000802318 0)
(-0.000315794 -0.000982599 0)
(-0.00021112 -0.00113433 0)
(-6.3337e-05 -0.00123931 0)
(0.000126599 -0.0013113 0)
(0.000349018 -0.00137134 0)
(0.000570033 -0.00142785 0)
(0.000758638 -0.00148306 0)
(0.000850417 -0.00151301 0)
(0.000806296 -0.00149003 0)
(0.000569335 -0.00137374 0)
(0.000184102 -0.00113565 0)
(-0.000250519 -0.000814921 0)
(-0.000462825 -0.000455703 0)
(-0.000379022 -0.000239911 0)
(-8.74661e-05 -0.000122358 0)
(6.69347e-05 -0.000121695 0)
(4.17254e-05 -0.000138835 0)
(4.75518e-05 -0.000144447 0)
(-8.40712e-06 7.13056e-05 0)
(-4.45591e-05 3.94498e-05 0)
(-5.71126e-05 2.66915e-05 0)
(-3.62607e-05 1.64971e-05 0)
(-3.46557e-05 9.08887e-06 0)
(-8.19017e-05 -4.19468e-05 0)
(-0.00019362 -0.0001624 0)
(-0.000332547 -0.00037411 0)
(-0.000475126 -0.000620293 0)
(-0.000592422 -0.000856856 0)
(-0.000633437 -0.00106817 0)
(-0.000583145 -0.00124217 0)
(-0.000473121 -0.00138002 0)
(-0.000331612 -0.00148274 0)
(-0.000158665 -0.00156014 0)
(3.88881e-05 -0.0016271 0)
(0.00025786 -0.0017032 0)
(0.000473776 -0.00178963 0)
(0.000673731 -0.0018905 0)
(0.000809662 -0.00197079 0)
(0.00085711 -0.0020045 0)
(0.000761725 -0.00191747 0)
(0.000525769 -0.00167199 0)
(0.000204525 -0.00124947 0)
(-5.14619e-05 -0.000709512 0)
(-0.000106692 -0.000278818 0)
(6.03523e-06 -2.50051e-05 0)
(2.43985e-05 -1.0508e-05 0)
(1.01055e-05 -0.000103262 0)
(3.9816e-05 -0.000121808 0)
(-2.77457e-05 0.000138017 0)
(-7.19065e-05 0.000100148 0)
(-7.58907e-05 8.81686e-05 0)
(-6.46882e-05 5.07871e-05 0)
(-0.000110519 -1.86034e-05 0)
(-0.000234072 -0.000174883 0)
(-0.000417246 -0.000410721 0)
(-0.000616603 -0.000697899 0)
(-0.000766272 -0.000981178 0)
(-0.000824131 -0.0012083 0)
(-0.000794126 -0.00135777 0)
(-0.000697319 -0.0014499 0)
(-0.000555812 -0.00150932 0)
(-0.000392439 -0.00154774 0)
(-0.00021068 -0.00158061 0)
(-2.09649e-05 -0.00161822 0)
(0.000180686 -0.00167893 0)
(0.00037569 -0.00175898 0)
(0.000568983 -0.00186962 0)
(0.000725992 -0.0019764 0)
(0.000846762 -0.00207164 0)
(0.000885952 -0.00207222 0)
(0.000832638 -0.00195121 0)
(0.000689679 -0.00162041 0)
(0.000488036 -0.00112151 0)
(0.000300597 -0.000575683 0)
(0.000195867 -0.000185409 0)
(4.08578e-06 1.49572e-05 0)
(-6.45898e-05 -0.000135306 0)
(2.96124e-05 -0.000121942 0)
(-4.67406e-05 0.000199988 0)
(-9.67257e-05 0.000162795 0)
(-0.000112642 0.00014442 0)
(-0.00015613 5.95787e-05 0)
(-0.000280192 -9.42537e-05 0)
(-0.000492818 -0.000349595 0)
(-0.000725679 -0.000658308 0)
(-0.000901821 -0.000955324 0)
(-0.000980026 -0.00117278 0)
(-0.000963644 -0.00130349 0)
(-0.000871109 -0.00136348 0)
(-0.00073305 -0.00137686 0)
(-0.000571411 -0.00137087 0)
(-0.00040509 -0.00135955 0)
(-0.000232758 -0.00135941 0)
(-6.41285e-05 -0.00137278 0)
(0.000111612 -0.00141497 0)
(0.00027701 -0.00147599 0)
(0.000449826 -0.00157271 0)
(0.000600568 -0.00167462 0)
(0.000753472 -0.00179647 0)
(0.000872729 -0.001867 0)
(0.000965838 -0.00189027 0)
(0.00101894 -0.00174656 0)
(0.000973893 -0.00145509 0)
(0.000813128 -0.00101437 0)
(0.000595414 -0.000462728 0)
(8.90393e-05 -0.00026233 0)
(-0.000121212 -5.68917e-05 0)
(5.33281e-05 -0.000186669 0)
(-6.63626e-05 0.000226291 0)
(-0.000131794 0.000192682 0)
(-0.000187877 0.000149277 0)
(-0.000317667 5.00018e-06 0)
(-0.00053517 -0.000227327 0)
(-0.000806417 -0.000539173 0)
(-0.0010208 -0.000840351 0)
(-0.0011235 -0.00106801 0)
(-0.00110787 -0.00119589 0)
(-0.00101122 -0.00124039 0)
(-0.000866983 -0.00123074 0)
(-0.000707112 -0.00119648 0)
(-0.000542669 -0.00116257 0)
(-0.00038626 -0.00113608 0)
(-0.000229665 -0.00112942 0)
(-8.26022e-05 -0.00113599 0)
(7.11207e-05 -0.00116862 0)
(0.000211164 -0.0012107 0)
(0.000363313 -0.00128228 0)
(0.000495069 -0.00135317 0)
(0.000647716 -0.00145403 0)
(0.000785735 -0.00152885 0)
(0.000946851 -0.00161725 0)
(0.00111769 -0.00160851 0)
(0.00121049 -0.0015489 0)
(0.00127899 -0.00129771 0)
(0.000933275 -0.00084392 0)
(0.000413596 -0.000616093 0)
(1.7025e-05 7.97789e-05 0)
(-9.94711e-05 -0.000340703 0)
(-8.27296e-05 0.00015927 0)
(-0.000179899 0.000130693 0)
(-0.000310303 5.98089e-05 0)
(-0.00054544 -0.000125252 0)
(-0.000833631 -0.000391524 0)
(-0.00110568 -0.000688423 0)
(-0.00124702 -0.000922515 0)
(-0.00125016 -0.00105643 0)
(-0.00114941 -0.00109724 0)
(-0.00099916 -0.00107971 0)
(-0.000830687 -0.00103586 0)
(-0.000669714 -0.000988819 0)
(-0.000515586 -0.000956104 0)
(-0.000375604 -0.000936778 0)
(-0.000235116 -0.000939893 0)
(-0.000105168 -0.000952113 0)
(3.49698e-05 -0.000986476 0)
(0.000160323 -0.0010208 0)
(0.000302789 -0.00107827 0)
(0.000422504 -0.00112502 0)
(0.000570571 -0.00119978 0)
(0.000702068 -0.0012519 0)
(0.000879864 -0.00134216 0)
(0.00108204 -0.00138185 0)
(0.00128099 -0.00145366 0)
(0.00151545 -0.00135399 0)
(0.00126855 -0.00121047 0)
(0.00100246 -0.000736643 0)
(0.000153859 -0.000299424 0)
(-0.000363453 -0.000333091 0)
(-9.82827e-05 -3.9977e-06 0)
(-0.00023934 -2.78596e-05 0)
(-0.000454446 -0.000118359 0)
(-0.000779151 -0.000305976 0)
(-0.00110197 -0.000548752 0)
(-0.00133235 -0.000775867 0)
(-0.00138109 -0.000916634 0)
(-0.00129459 -0.000964131 0)
(-0.001132 -0.000946008 0)
(-0.000952858 -0.00089694 0)
(-0.0007793 -0.000844656 0)
(-0.000628403 -0.000802694 0)
(-0.000488226 -0.000781449 0)
(-0.000364222 -0.000773331 0)
(-0.000236541 -0.000786215 0)
(-0.000119748 -0.000802561 0)
(1.13318e-05 -0.000837902 0)
(0.000126095 -0.000866104 0)
(0.000262672 -0.000914532 0)
(0.000373267 -0.00094534 0)
(0.000516996 -0.00100232 0)
(0.000636768 -0.00103386 0)
(0.000809093 -0.00110879 0)
(0.000998435 -0.00115302 0)
(0.00123281 -0.00126396 0)
(0.00152307 -0.00127707 0)
(0.00155174 -0.00130719 0)
(0.00131686 -0.000875843 0)
(0.000416224 -0.000646342 0)
(-0.000133031 8.75642e-06 0)
(-0.000110625 -0.000209274 0)
(-0.000303643 -0.000225137 0)
(-0.000598955 -0.000315243 0)
(-0.000983457 -0.00047195 0)
(-0.00130349 -0.000655583 0)
(-0.00146721 -0.00079508 0)
(-0.00142996 -0.000850724 0)
(-0.00127924 -0.000835913 0)
(-0.00108446 -0.000785218 0)
(-0.000899081 -0.000726224 0)
(-0.000733901 -0.000679832 0)
(-0.00059795 -0.000649327 0)
(-0.000471599 -0.000641312 0)
(-0.000361014 -0.000643134 0)
(-0.000242375 -0.000664089 0)
(-0.000134716 -0.000683302 0)
(-8.1944e-06 -0.000720124 0)
(0.000100669 -0.000744412 0)
(0.000236107 -0.000788083 0)
(0.000342133 -0.000808584 0)
(0.000484227 -0.000853952 0)
(0.000593286 -0.000869136 0)
(0.000754893 -0.000925934 0)
(0.000919151 -0.000955666 0)
(0.00114843 -0.00106061 0)
(0.00146832 -0.00111348 0)
(0.00167413 -0.00119778 0)
(0.00166787 -0.000970708 0)
(0.0010354 -0.000487226 0)
(0.000284269 0.000184013 0)
(-0.000118878 -0.000402253 0)
(-0.000355994 -0.000407726 0)
(-0.0007119 -0.000481821 0)
(-0.00112542 -0.000585597 0)
(-0.0014233 -0.000695388 0)
(-0.00152168 -0.000751161 0)
(-0.00141901 -0.000742397 0)
(-0.00122997 -0.000689844 0)
(-0.00102236 -0.000626532 0)
(-0.000842513 -0.000569346 0)
(-0.000689623 -0.000533634 0)
(-0.000568407 -0.000513682 0)
(-0.000453518 -0.000515804 0)
(-0.000354147 -0.000523091 0)
(-0.000242534 -0.000548232 0)
(-0.000142969 -0.000567191 0)
(-2.02092e-05 -0.000604116 0)
(8.31945e-05 -0.000625025 0)
(0.000218197 -0.000666905 0)
(0.000321269 -0.000682636 0)
(0.000463958 -0.000724366 0)
(0.000566693 -0.000732439 0)
(0.000719489 -0.000779241 0)
(0.000857618 -0.00079725 0)
(0.00106668 -0.000888889 0)
(0.00137893 -0.00095758 0)
(0.00169513 -0.00110927 0)
(0.00203492 -0.00106754 0)
(0.00156963 -0.000744269 0)
(0.000531042 -0.000362954 0)
(-0.00012149 -0.000526803 0)
(-0.000394979 -0.000521395 0)
(-0.000787465 -0.000572852 0)
(-0.00120185 -0.00062448 0)
(-0.00146656 -0.000669942 0)
(-0.00150941 -0.000664737 0)
(-0.00136703 -0.00061781 0)
(-0.00116298 -0.000549138 0)
(-0.000958719 -0.000486542 0)
(-0.00079197 -0.000437127 0)
(-0.000653412 -0.000412725 0)
(-0.000545767 -0.000400715 0)
(-0.000440398 -0.00040973 0)
(-0.000350151 -0.00041879 0)
(-0.000243737 -0.000445371 0)
(-0.000150727 -0.00046159 0)
(-3.04886e-05 -0.000496968 0)
(6.84216e-05 -0.000513147 0)
(0.000203357 -0.000552452 0)
(0.000303759 -0.000563341 0)
(0.000446765 -0.000602529 0)
(0.000544571 -0.000606685 0)
(0.000690006 -0.000649438 0)
(0.000805018 -0.000661327 0)
(0.000980494 -0.000742334 0)
(0.00123996 -0.000815555 0)
(0.00156174 -0.00101249 0)
(0.00204581 -0.00113915 0)
(0.0017451 -0.00121222 0)
(0.000660403 -0.00108199 0)
(-0.000119485 -0.000571798 0)
(-0.000414755 -0.000555656 0)
(-0.000825919 -0.000584132 0)
(-0.00122712 -0.000590202 0)
(-0.00146129 -0.000587338 0)
(-0.00146559 -0.000542745 0)
(-0.00130134 -0.000478685 0)
(-0.00109447 -0.000407293 0)
(-0.000897515 -0.000352714 0)
(-0.000744177 -0.00031272 0)
(-0.000617203 -0.000298669 0)
(-0.000520867 -0.000292133 0)
(-0.000422829 -0.000305763 0)
(-0.000340565 -0.000314416 0)
(-0.000238477 -0.000341108 0)
(-0.000151554 -0.000353605 0)
(-3.34474e-05 -0.000387084 0)
(6.13308e-05 -0.000398477 0)
(0.00019616 -0.000435456 0)
(0.000293992 -0.000442101 0)
(0.000436575 -0.0004792 0)
(0.000529356 -0.000480435 0)
(0.00066765 -0.000520888 0)
(0.000762489 -0.000529378 0)
(0.000906309 -0.000603138 0)
(0.00110016 -0.000669854 0)
(0.00136442 -0.00087288 0)
(0.00184586 -0.00106976 0)
(0.00164017 -0.00136005 0)
(0.000661909 -0.00140343 0)
(-0.000112086 -0.000539512 0)
(-0.000421113 -0.000515967 0)
(-0.000833406 -0.000525932 0)
(-0.00120974 -0.000501851 0)
(-0.00141689 -0.000469248 0)
(-0.00139655 -0.000406829 0)
(-0.00122749 -0.000341397 0)
(-0.00102773 -0.000277472 0)
(-0.000843561 -0.000235426 0)
(-0.000704316 -0.000205868 0)
(-0.000588388 -0.000201331 0)
(-0.00050206 -0.000198396 0)
(-0.000410357 -0.000215022 0)
(-0.000335023 -0.000221355 0)
(-0.000236344 -0.000246821 0)
(-0.000154373 -0.000253886 0)
(-3.73981e-05 -0.000283971 0)
(5.44666e-05 -0.000288745 0)
(0.000189684 -0.000321494 0)
(0.00028556 -0.000322132 0)
(0.00042728 -0.00035529 0)
(0.000514937 -0.000352067 0)
(0.000645687 -0.000389044 0)
(0.000721829 -0.000392884 0)
(0.000835328 -0.000459168 0)
(0.000962276 -0.000513351 0)
(0.001153 -0.000700705 0)
(0.00156431 -0.00090462 0)
(0.00142508 -0.00127631 0)
(0.000620022 -0.0013919 0)
(-0.000103339 -0.000452969 0)
(-0.000415846 -0.000422159 0)
(-0.00082383 -0.000417631 0)
(-0.00117576 -0.000372574 0)
(-0.00136449 -0.000324713 0)
(-0.00133307 -0.000256096 0)
(-0.0011651 -0.000198784 0)
(-0.000973565 -0.000145922 0)
(-0.000797811 -0.000118376 0)
(-0.000669113 -9.87175e-05 0)
(-0.000560201 -0.000103104 0)
(-0.000481997 -0.000102793 0)
(-0.000394923 -0.000121838 0)
(-0.000325665 -0.00012529 0)
(-0.000229535 -0.000149115 0)
(-0.00015162 -0.000150165 0)
(-3.49715e-05 -0.000176067 0)
(5.52529e-05 -0.000173434 0)
(0.00019151 -0.000200736 0)
(0.000286253 -0.000194476 0)
(0.000426947 -0.000222285 0)
(0.000509073 -0.000213445 0)
(0.000632503 -0.000245596 0)
(0.000691884 -0.000243129 0)
(0.000781654 -0.000302219 0)
(0.000850843 -0.000338562 0)
(0.000964194 -0.000499326 0)
(0.00127337 -0.000669096 0)
(0.00116604 -0.00103571 0)
(0.000551001 -0.0011732 0)
(-8.94666e-05 -0.000341029 0)
(-0.000401624 -0.000305119 0)
(-0.000796776 -0.000286687 0)
(-0.00112303 -0.000229813 0)
(-0.00129887 -0.000173308 0)
(-0.00126463 -0.000107422 0)
(-0.0011069 -6.21171e-05 0)
(-0.000926916 -2.37479e-05 0)
(-0.000762365 -1.18766e-05 0)
(-0.000643702 -2.46684e-06 0)
(-0.000541763 -1.59886e-05 0)
(-0.000470778 -1.77152e-05 0)
(-0.000387823 -3.90383e-05 0)
(-0.000323774 -3.86298e-05 0)
(-0.000229424 -6.02102e-05 0)
(-0.000154302 -5.39525e-05 0)
(-3.69567e-05 -7.43629e-05 0)
(5.32604e-05 -6.26836e-05 0)
(0.000191653 -8.25649e-05 0)
(0.000286767 -6.75182e-05 0)
(0.000427327 -8.76879e-05 0)
(0.000504445 -7.0879e-05 0)
(0.000621245 -9.5427e-05 0)
(0.000664167 -8.30324e-05 0)
(0.000736003 -0.0001328 0)
(0.00075845 -0.000148407 0)
(0.000814985 -0.000282619 0)
(0.00102874 -0.000401213 0)
(0.000932006 -0.000727407 0)
(0.000488077 -0.000847047 0)
(-7.6339e-05 -0.000224181 0)
(-0.000378299 -0.000180165 0)
(-0.000762589 -0.000147208 0)
(-0.00107002 -7.76605e-05 0)
(-0.0012413 -1.70181e-05 0)
(-0.00121505 4.73268e-05 0)
(-0.00106798 7.93231e-05 0)
(-0.000898343 0.000105045 0)
(-0.000737969 0.000100923 0)
(-0.000625314 0.00010048 0)
(-0.000525924 7.71969e-05 0)
(-0.000460548 7.29636e-05 0)
(-0.000380275 4.89016e-05 0)
(-0.000320751 5.28402e-05 0)
(-0.000227521 3.37689e-05 0)
(-0.000154051 4.74471e-05 0)
(-3.51995e-05 3.3535e-05 0)
(5.65697e-05 5.48738e-05 0)
(0.00019817 4.39685e-05 0)
(0.000295219 6.86506e-05 0)
(0.000437091 5.74898e-05 0)
(0.000510426 8.31899e-05 0)
(0.000623012 6.71474e-05 0)
(0.000651252 9.13974e-05 0)
(0.000711214 5.15658e-05 0)
(0.000694374 5.87105e-05 0)
(0.000705715 -5.29976e-05 0)
(0.000828926 -0.000118665 0)
(0.000730207 -0.000400624 0)
(0.00043777 -0.000486619 0)
(-5.52083e-05 -0.000130104 0)
(-0.000342797 -7.83248e-05 0)
(-0.000709927 -2.42552e-05 0)
(-0.00100244 5.75065e-05 0)
(-0.00117428 0.00012936 0)
(-0.00116062 0.00019299 0)
(-0.00103282 0.000216416 0)
(-0.000876316 0.000229735 0)
(-0.000725004 0.000209933 0)
(-0.000618667 0.000199213 0)
(-0.000522911 0.000164753 0)
(-0.000462269 0.000157457 0)
(-0.0003842 0.000129256 0)
(-0.00032788 0.000136508 0)
(-0.00023485 0.000119242 0)
(-0.000161607 0.000140498 0)
(-4.03199e-05 0.000133026 0)
(5.43515e-05 0.000164345 0)
(0.000200205 0.000162889 0)
(0.000300459 0.000197965 0)
(0.000445278 0.000196789 0)
(0.00051596 0.000232973 0)
(0.000627066 0.000226877 0)
(0.000641572 0.000265623 0)
(0.000696291 0.000237228 0)
(0.000647314 0.00026912 0)
(0.000633745 0.000175004 0)
(0.000680811 0.000161903 0)
(0.000572408 -8.29111e-05 0)
(0.00040893 -0.000124321 0)
(-3.49751e-05 -5.21945e-05 0)
(-0.000291563 1.13216e-05 0)
(-0.000644143 8.52442e-05 0)
(-0.000928543 0.000188102 0)
(-0.00110835 0.000270408 0)
(-0.00112085 0.00034354 0)
(-0.00101351 0.000360753 0)
(-0.000873434 0.00036722 0)
(-0.000724393 0.00033199 0)
(-0.000621193 0.000310849 0)
(-0.000523914 0.00026342 0)
(-0.000466092 0.000250685 0)
(-0.000388685 0.000216634 0)
(-0.000334904 0.000224938 0)
(-0.000241792 0.000208829 0)
(-0.000167903 0.000236068 0)
(-4.37467e-05 0.000235267 0)
(5.51379e-05 0.000275552 0)
(0.000206235 0.000284218 0)
(0.000311325 0.000329609 0)
(0.000461381 0.000339361 0)
(0.000531817 0.000386949 0)
(0.000645736 0.000391858 0)
(0.000649047 0.000446595 0)
(0.000704073 0.000430721 0)
(0.00062454 0.000487944 0)
(0.000596384 0.000406706 0)
(0.000571403 0.000440364 0)
(0.000451861 0.000216011 0)
(0.000403997 0.000223663 0)
(-2.57255e-06 -4.80159e-06 0)
(-0.000225578 6.44688e-05 0)
(-0.000552742 0.000159291 0)
(-0.000832635 0.000282273 0)
(-0.0010246 0.000391565 0)
(-0.00106469 0.000479667 0)
(-0.000991091 0.000503685 0)
(-0.000872089 0.000507238 0)
(-0.000735349 0.000458908 0)
(-0.00063687 0.000426931 0)
(-0.000540373 0.000363507 0)
(-0.000483726 0.00034298 0)
(-0.000406015 0.000298962 0)
(-0.000352485 0.000306023 0)
(-0.000257804 0.000287472 0)
(-0.000181369 0.000318805 0)
(-5.31242e-05 0.000321413 0)
(5.09774e-05 0.000369041 0)
(0.000208255 0.00038476 0)
(0.000318751 0.00043955 0)
(0.000475854 0.000458157 0)
(0.000547303 0.000517634 0)
(0.000667771 0.000533263 0)
(0.000661677 0.000605556 0)
(0.000723056 0.000603254 0)
(0.000614541 0.000687882 0)
(0.000585664 0.000617582 0)
(0.000491218 0.000698823 0)
(0.000363303 0.00048444 0)
(0.000425277 0.000552016 0)
(2.44404e-05 5.65914e-05 0)
(-0.000147379 0.000127432 0)
(-0.000447891 0.000222228 0)
(-0.000715172 0.000374854 0)
(-0.000920887 0.000503414 0)
(-0.00100663 0.000622318 0)
(-0.000970117 0.000654529 0)
(-0.000886343 0.000664039 0)
(-0.000758634 0.000603598 0)
(-0.000665053 0.000560938 0)
(-0.000563495 0.000479386 0)
(-0.000504951 0.000446872 0)
(-0.000423914 0.000389857 0)
(-0.000369187 0.000390487 0)
(-0.000272315 0.000367436 0)
(-0.000192787 0.000398211 0)
(-6.04042e-05 0.000403236 0)
(4.96362e-05 0.000454572 0)
(0.000213668 0.000477154 0)
(0.000331087 0.000539532 0)
(0.000497525 0.000568304 0)
(0.000573358 0.00064048 0)
(0.000705382 0.00067021 0)
(0.000693961 0.000762404 0)
(0.000767638 0.000777895 0)
(0.000628668 0.000890974 0)
(0.000608598 0.000831648 0)
(0.000441164 0.000957175 0)
(0.00031356 0.000736973 0)
(0.000481976 0.000875395 0)
(6.14035e-05 9.71632e-05 0)
(-7.79503e-05 0.000138539 0)
(-0.00032856 0.000238794 0)
(-0.000574368 0.000406006 0)
(-0.000792424 0.000584284 0)
(-0.000916308 0.000738273 0)
(-0.000937565 0.000802343 0)
(-0.000894226 0.000826109 0)
(-0.000793695 0.00076044 0)
(-0.00070841 0.000708611 0)
(-0.000606139 0.000605014 0)
(-0.000542373 0.00055687 0)
(-0.000455639 0.000479203 0)
(-0.000394957 0.000468729 0)
(-0.000293068 0.00043303 0)
(-0.000207255 0.000459725 0)
(-6.88771e-05 0.000459079 0)
(4.84911e-05 0.000511985 0)
(0.00022076 0.000533264 0)
(0.000345698 0.00060218 0)
(0.0005239 0.000633891 0)
(0.000605985 0.000718507 0)
(0.000753861 0.000757389 0)
(0.000739582 0.000869038 0)
(0.000830221 0.000899911 0)
(0.000657676 0.00104131 0)
(0.00065542 0.000994073 0)
(0.000401571 0.00116926 0)
(0.000291895 0.000948704 0)
(0.000576861 0.00119555 0)
(6.35398e-05 0.000149532 0)
(-1.90083e-05 0.000159313 0)
(-0.000203508 0.000252608 0)
(-0.000395781 0.000447121 0)
(-0.000609592 0.000654354 0)
(-0.000797668 0.000862992 0)
(-0.000876862 0.000951912 0)
(-0.000906008 0.000999758 0)
(-0.000836865 0.000929742 0)
(-0.0007699 0.000870844 0)
(-0.00066365 0.00074605 0)
(-0.000591498 0.000679152 0)
(-0.000493064 0.00057993 0)
(-0.00042238 0.000551953 0)
(-0.000311833 0.000502203 0)
(-0.000218277 0.000517108 0)
(-7.27598e-05 0.000510401 0)
(5.19013e-05 0.000557389 0)
(0.000232679 0.000579223 0)
(0.000365997 0.00064874 0)
(0.000557191 0.000688529 0)
(0.000649323 0.00078268 0)
(0.000816335 0.000839059 0)
(0.000804685 0.00097116 0)
(0.000917781 0.00102803 0)
(0.000712892 0.00120186 0)
(0.00074286 0.00117893 0)
(0.000402794 0.00140829 0)
(0.000351604 0.00118855 0)
(0.000744849 0.00158555 0)
(7.22251e-05 0.000157498 0)
(1.80332e-05 8.80936e-05 0)
(-6.17505e-05 0.000211396 0)
(-0.00020074 0.000392509 0)
(-0.000403565 0.000684011 0)
(-0.000635484 0.0009348 0)
(-0.0008032 0.00108281 0)
(-0.000902689 0.0011611 0)
(-0.000891755 0.0011003 0)
(-0.000847624 0.00103996 0)
(-0.00074669 0.00089401 0)
(-0.000662614 0.000807695 0)
(-0.000550095 0.000679755 0)
(-0.000460977 0.000631217 0)
(-0.000337122 0.000556686 0)
(-0.000228929 0.000558223 0)
(-7.32928e-05 0.000532485 0)
(6.25949e-05 0.000575012 0)
(0.000254051 0.000581971 0)
(0.000398387 0.000655767 0)
(0.000606162 0.000684534 0)
(0.000711504 0.00079109 0)
(0.000904091 0.000841473 0)
(0.000898617 0.000992113 0)
(0.00104113 0.00105177 0)
(0.000801034 0.00125152 0)
(0.000871325 0.00125178 0)
(0.000419165 0.00153843 0)
(0.000482779 0.00138894 0)
(0.000994468 0.00207316 0)
(-3.24695e-06 0.000139191 0)
(3.35741e-05 0.00010787 0)
(8.50733e-05 0.000196127 0)
(5.06408e-05 0.000431112 0)
(-9.76739e-05 0.000725719 0)
(-0.000423696 0.00103007 0)
(-0.000662862 0.00119516 0)
(-0.000885805 0.00130258 0)
(-0.000939555 0.00124658 0)
(-0.000943479 0.0011882 0)
(-0.000852563 0.0010307 0)
(-0.000760403 0.000928582 0)
(-0.000628607 0.000781747 0)
(-0.000517178 0.000711422 0)
(-0.000371374 0.000619298 0)
(-0.000246089 0.000600217 0)
(-7.37794e-05 0.000562086 0)
(7.19221e-05 0.000587298 0)
(0.000277091 0.000588869 0)
(0.000429108 0.000649186 0)
(0.000653474 0.000681803 0)
(0.000770216 0.000780193 0)
(0.000986149 0.000846436 0)
(0.000990891 0.000999767 0)
(0.00116245 0.00109332 0)
(0.000908606 0.00132417 0)
(0.00104131 0.00140461 0)
(0.000544195 0.00178698 0)
(0.000898203 0.00181466 0)
(0.0014541 0.00290103 0)
(4.3203e-05 0.000224906 0)
(7.73333e-05 1.74689e-05 0)
(0.000251498 0.000166248 0)
(0.000306489 0.000350367 0)
(0.000165957 0.000729749 0)
(-0.000196076 0.00103041 0)
(-0.000553066 0.00124365 0)
(-0.000861117 0.00136248 0)
(-0.00100187 0.00132512 0)
(-0.00104638 0.00127299 0)
(-0.000977488 0.00111366 0)
(-0.000876622 0.00100299 0)
(-0.000730223 0.000841279 0)
(-0.000590784 0.000755163 0)
(-0.000423087 0.000641851 0)
(-0.000271605 0.000609351 0)
(-8.23392e-05 0.000546275 0)
(8.29467e-05 0.000565698 0)
(0.000301454 0.00053667 0)
(0.000471174 0.00060097 0)
(0.000714139 0.000592138 0)
(0.000853207 0.000703864 0)
(0.00110322 0.000712186 0)
(0.00113036 0.000887731 0)
(0.00135727 0.000923367 0)
(0.00111166 0.00120103 0)
(0.00134615 0.00132402 0)
(0.000831296 0.00182546 0)
(0.00162393 0.00225936 0)
(0.00212521 0.00437958 0)
(-0.000209664 1.25354e-05 0)
(-2.41093e-05 0.000108337 0)
(0.000414122 0.000167671 0)
(0.000598391 0.000547784 0)
(0.000557846 0.000817242 0)
(6.20711e-05 0.00108981 0)
(-0.000358104 0.00122995 0)
(-0.0008248 0.00132677 0)
(-0.00103924 0.00128726 0)
(-0.00115504 0.00123919 0)
(-0.00111255 0.00109894 0)
(-0.0010158 0.000992538 0)
(-0.000854524 0.000841811 0)
(-0.000693807 0.000750109 0)
(-0.000495909 0.000635833 0)
(-0.000324923 0.000589102 0)
(-0.000106304 0.000517587 0)
(6.6698e-05 0.000515333 0)
(0.000310741 0.000475686 0)
(0.000477792 0.000508333 0)
(0.000746645 0.000493051 0)
(0.000879853 0.000559699 0)
(0.00116133 0.000580597 0)
(0.00119675 0.000707791 0)
(0.00147499 0.0008228 0)
(0.00131238 0.00111563 0)
(0.00167895 0.00153371 0)
(0.00146525 0.00234899 0)
(0.00346599 0.00413667 0)
(0.00362904 0.00771986 0)
(0.00014035 0.000724866 0)
(0.0002333 1.66535e-05 0)
(0.000688714 0.000150164 0)
(0.000945102 0.000327755 0)
(0.000688644 0.000699521 0)
(0.000193304 0.00090904 0)
(-0.000340048 0.00105012 0)
(-0.00082664 0.00109885 0)
(-0.00110639 0.00106933 0)
(-0.00124577 0.00102038 0)
(-0.0012281 0.000906885 0)
(-0.00113235 0.00081593 0)
(-0.000966975 0.000689024 0)
(-0.000788655 0.000607721 0)
(-0.00057521 0.000503498 0)
(-0.000381561 0.000458506 0)
(-0.000149645 0.000380634 0)
(4.5205e-05 0.000375823 0)
(0.000296054 0.000311054 0)
(0.00048855 0.000344681 0)
(0.000764817 0.000277544 0)
(0.000941147 0.000359757 0)
(0.00125335 0.000287258 0)
(0.00137655 0.000463788 0)
(0.00177036 0.000445518 0)
(0.00183004 0.00089203 0)
(0.00259058 0.00132805 0)
(0.00341263 0.00295371 0)
(0.00710856 0.00610141 0)
(0.00584764 0.012581 0)
(-0.000935257 -0.00219775 0)
(-0.000599145 0.000272727 0)
(0.000732016 0.000699764 0)
(0.00114911 0.000680171 0)
(0.0011299 0.000784589 0)
(0.000395706 0.000770972 0)
(-0.000185517 0.000724174 0)
(-0.000823502 0.000691076 0)
(-0.0011333 0.000650644 0)
(-0.0013307 0.000613685 0)
(-0.00132726 0.000556557 0)
(-0.00124092 0.00050492 0)
(-0.00106762 0.00043792 0)
(-0.000881762 0.000388912 0)
(-0.0006458 0.000325277 0)
(-0.000446433 0.000295268 0)
(-0.000186473 0.000238385 0)
(1.53939e-06 0.000231775 0)
(0.000284632 0.00017727 0)
(0.000451953 0.000192594 0)
(0.000769879 0.000139812 0)
(0.000901743 0.000179538 0)
(0.00127631 0.000162699 0)
(0.00136906 0.000274425 0)
(0.0019113 0.00052574 0)
(0.00220324 0.00110256 0)
(0.00371931 0.00290479 0)
(0.00601825 0.0064617 0)
(0.0128228 0.0148531 0)
(0.0100094 0.0263293 0)
(0.00261222 -0.00308849 0)
(0.00317047 0.000490598 0)
(0.00111781 0.000695382 0)
(0.00103232 0.000865097 0)
(0.000786999 0.000579588 0)
(0.000134452 0.000511667 0)
(-0.000427398 0.00030768 0)
(-0.000911104 0.000267871 0)
(-0.00119838 0.000222955 0)
(-0.00135499 0.000210902 0)
(-0.00135231 0.000208206 0)
(-0.00126399 0.000196443 0)
(-0.00109367 0.000193964 0)
(-0.000907378 0.000177601 0)
(-0.000671397 0.000171784 0)
(-0.000465526 0.00015292 0)
(-0.000207207 0.000149436 0)
(-5.03535e-06 0.000127065 0)
(0.000269835 0.000134701 0)
(0.000468797 0.000102782 0)
(0.000771174 0.000140048 0)
(0.000986316 9.01871e-05 0)
(0.00136842 0.000210684 0)
(0.0017565 0.000165059 0)
(0.00261941 0.000584257 0)
(0.0042504 0.000842995 0)
(0.00797486 0.002579 0)
(0.0149901 0.0050267 0)
(0.0267452 0.0116178 0)
(0.0176926 0.0186108 0)
)
;

boundaryField
{
    movingWall
    {
        type            fixedValue;
        value           uniform (1 0 0);
    }
    fixedWalls
    {
        type            noSlip;
    }
    frontAndBack
    {
        type            empty;
    }
}


// ************************************************************************* //
