/*--------------------------------*- C++ -*----------------------------------*\
| =========                 |                                                 |
| \\      /  F ield         | OpenFOAM: The Open Source CFD Toolbox           |
|  \\    /   O peration     | Version:  2406                                  |
|   \\  /    A nd           | Website:  www.openfoam.com                      |
|    \\/     M anipulation  |                                                 |
\*---------------------------------------------------------------------------*/
FoamFile
{
    version     2.0;
    format      ascii;
    arch        "LSB;label=32;scalar=64";
    class       volScalarField;
    location    "85.5";
    object      p;
}
// * * * * * * * * * * * * * * * * * * * * * * * * * * * * * * * * * * * * * //

dimensions      [0 2 -2 0 0 0 0];

internalField   nonuniform List<scalar> 
4096
(
-3.62188e-07
2.39915e-05
2.73106e-05
2.36846e-06
-5.25095e-05
-0.000132068
-0.000228063
-0.000333659
-0.000445629
-0.000564738
-0.000695177
-0.000842961
-0.00101495
-0.00121752
-0.00145626
-0.00173587
-0.0020603
-0.00243232
-0.00285287
-0.00332016
-0.003828
-0.00436488
-0.00491269
-0.00544641
-0.00593482
-0.00634213
-0.00663059
-0.00676353
-0.00670867
-0.0064412
-0.00594657
-0.00522288
-0.00428259
-0.00315231
-0.00186955
-0.0005055
0.000858269
0.00212772
0.00320227
0.0039837
0.00438784
0.00435825
0.00387805
0.00296609
0.00169973
0.000186135
-0.00144865
-0.00307134
-0.00457195
-0.0058734
-0.00693189
-0.00774123
-0.00832072
-0.00870703
-0.00894384
-0.00907343
-0.00913163
-0.00914587
-0.00913527
-0.00911184
-0.00908203
-0.00904888
-0.00901554
-0.00898685
-2.21048e-05
2.81135e-06
4.6942e-06
-2.12153e-05
-7.46215e-05
-0.000150028
-0.000239862
-0.000338106
-0.000442188
-0.000553124
-0.000674864
-0.000813184
-0.000974143
-0.00116336
-0.00138591
-0.00164615
-0.00194843
-0.0022961
-0.00269105
-0.00313249
-0.00361568
-0.00413124
-0.00466482
-0.00519652
-0.00569981
-0.00614117
-0.00648153
-0.0066798
-0.00669756
-0.00650394
-0.00608002
-0.00542097
-0.00453362
-0.00343461
-0.00218262
-0.000841886
0.000507857
0.00177159
0.00284675
0.00363275
0.004043
0.00401892
0.00354204
0.00263503
0.00135583
-0.000164041
-0.00179904
-0.0034042
-0.00486736
-0.00610892
-0.00710133
-0.00783683
-0.00834437
-0.00867233
-0.00887034
-0.00898031
-0.00903402
-0.00905385
-0.00905425
-0.00904399
-0.00902769
-0.00900693
-0.00898173
-0.00895339
-3.01833e-05
-2.00922e-06
-9.42403e-07
-3.0098e-05
-8.61958e-05
-0.000161655
-0.000247996
-0.000339257
-0.000433569
-0.000532849
-0.00064187
-0.00076665
-0.000913329
-0.00108706
-0.00129359
-0.00153797
-0.00182599
-0.0021636
-0.00255627
-0.00300818
-0.00352047
-0.00408812
-0.00469658
-0.0053204
-0.00592466
-0.00646806
-0.00690641
-0.00719617
-0.00729794
-0.00717995
-0.00682089
-0.00621181
-0.0053586
-0.00429215
-0.0030642
-0.00173564
-0.000385326
0.000892889
0.00199614
0.00282194
0.00328001
0.00330625
0.00287535
0.00200622
0.000765031
-0.000730249
-0.0023626
-0.00395191
-0.00539242
-0.00659442
-0.00751447
-0.00817773
-0.00860523
-0.00885219
-0.00897764
-0.00902969
-0.00904231
-0.00903656
-0.00902404
-0.00901004
-0.00899587
-0.00897972
-0.00895644
-0.00892355
-1.88313e-05
1.22042e-05
1.06427e-05
-2.53459e-05
-8.85431e-05
-0.000167843
-0.000252777
-0.00033717
-0.000420025
-0.000504819
-0.00059812
-0.000707024
-0.00083919
-0.00100117
-0.00120044
-0.00144608
-0.00174943
-0.00212364
-0.00258135
-0.00313053
-0.00377016
-0.00448781
-0.00525926
-0.00604971
-0.00681628
-0.00751173
-0.00808849
-0.00850223
-0.00871418
-0.00869238
-0.00841323
-0.00786614
-0.00706302
-0.00604263
-0.00484484
-0.00352659
-0.00216338
-0.000845548
0.000326316
0.00124961
0.00183042
0.00199674
0.00171182
0.000983289
-0.000131276
-0.00152704
-0.00307247
-0.00461042
-0.00601813
-0.00718764
-0.00807722
-0.00867142
-0.00902606
-0.00919324
-0.00923668
-0.00921227
-0.00916037
-0.00910545
-0.00905911
-0.00902441
-0.00899952
-0.00897909
-0.00895291
-0.00891477
1.74331e-05
4.78631e-05
3.94071e-05
-8.10878e-06
-8.24689e-05
-0.000168284
-0.000252926
-0.000330618
-0.000401319
-0.000471493
-0.000550376
-0.000648279
-0.00077557
-0.00094382
-0.00116734
-0.00146409
-0.00185449
-0.00235739
-0.00298476
-0.00373742
-0.00460296
-0.00555603
-0.00656051
-0.00757239
-0.00854307
-0.00942293
-0.0101647
-0.0107258
-0.0110696
-0.0111648
-0.0109877
-0.0105296
-0.00980942
-0.00885785
-0.00770949
-0.0064146
-0.00504071
-0.00367046
-0.00239793
-0.00132235
-0.000539134
-0.000128434
-0.000141453
-0.000588681
-0.00143324
-0.00259047
-0.00393725
-0.00532811
-0.00662783
-0.00772602
-0.00856293
-0.00912529
-0.00943518
-0.00955315
-0.00954156
-0.00945847
-0.00934919
-0.00924328
-0.00915576
-0.00909096
-0.00904652
-0.00901526
-0.00898375
-0.0089428
8.48301e-05
0.000109986
8.96043e-05
2.59109e-05
-6.28479e-05
-0.000156989
-0.000242828
-0.000314646
-0.000375528
-0.000436806
-0.000511401
-0.000615125
-0.00076604
-0.00098575
-0.00129988
-0.0017358
-0.00231747
-0.00305934
-0.00396217
-0.00501168
-0.00617982
-0.00742763
-0.00870905
-0.00997418
-0.0111723
-0.0122546
-0.0131761
-0.013898
-0.0143871
-0.0146151
-0.0145611
-0.0142198
-0.0136098
-0.0127537
-0.0116794
-0.010429
-0.00905937
-0.00764178
-0.00625934
-0.00500314
-0.00396531
-0.00322919
-0.00285834
-0.00288517
-0.00330182
-0.00405433
-0.00504619
-0.00615169
-0.00723916
-0.00819392
-0.00894062
-0.00945065
-0.00973286
-0.00982928
-0.00979655
-0.00968804
-0.00954826
-0.00940936
-0.0092901
-0.00919817
-0.00913335
-0.00908933
-0.00905231
-0.00901167
0.000191626
0.000206207
0.000169
8.53571e-05
-1.99052e-05
-0.000123412
-0.00021233
-0.000282715
-0.000343351
-0.000410248
-0.000504452
-0.000651753
-0.000882687
-0.00123179
-0.001734
-0.00241829
-0.00330098
-0.00438172
-0.00564281
-0.00705201
-0.00856668
-0.0101376
-0.0117123
-0.013238
-0.0146647
-0.0159462
-0.0170425
-0.0179195
-0.0185496
-0.0189115
-0.0189913
-0.0187862
-0.0183057
-0.0175656
-0.0165899
-0.0154121
-0.0140775
-0.0126425
-0.0111747
-0.00975062
-0.00845219
-0.00736007
-0.00654523
-0.00605821
-0.00591868
-0.00611037
-0.00657826
-0.00723248
-0.00796327
-0.00866199
-0.00924334
-0.00965907
-0.00989953
-0.00998575
-0.00995249
-0.00984727
-0.00970681
-0.00956127
-0.0094301
-0.00932407
-0.00924625
-0.00919315
-0.00915322
-0.0091161
0.000347634
0.00034607
0.000287898
0.000181666
5.84487e-05
-5.79315e-05
-0.000153153
-0.000232373
-0.000310377
-0.000412025
-0.000570327
-0.000825211
-0.00122111
-0.00180161
-0.00260157
-0.00363953
-0.00491364
-0.00640229
-0.00806821
-0.00986305
-0.0117322
-0.0136191
-0.0154685
-0.0172286
-0.0188529
-0.0203011
-0.0215396
-0.0225413
-0.0232861
-0.0237615
-0.0239622
-0.0238877
-0.0235391
-0.0229262
-0.0220689
-0.020994
-0.0197355
-0.0183347
-0.0168412
-0.0153122
-0.0138117
-0.0124077
-0.0111674
-0.0101501
-0.00939881
-0.0089321
-0.00873866
-0.00877861
-0.00898591
-0.00927917
-0.00957842
-0.00982169
-0.0099748
-0.0100314
-0.0100055
-0.00992024
-0.00979968
-0.00967125
-0.00954975
-0.00944689
-0.00936838
-0.00931388
-0.00927551
-0.00924448
0.000562506
0.000539764
0.000457511
0.00032698
0.000184977
5.41317e-05
-5.96192e-05
-0.000167029
-0.000293805
-0.000478142
-0.000768281
-0.00121858
-0.00188221
-0.00280121
-0.00399747
-0.00546842
-0.0071886
-0.00911433
-0.01119
-0.0133541
-0.0155444
-0.0177017
-0.0197722
-0.0217093
-0.0234736
-0.0250333
-0.0263631
-0.0274441
-0.0282644
-0.0288198
-0.0291121
-0.0291433
-0.0289094
-0.0284164
-0.0276824
-0.0267288
-0.02558
-0.0242643
-0.0228143
-0.0212677
-0.019667
-0.0180599
-0.0164978
-0.015033
-0.0137158
-0.012588
-0.0116779
-0.0109945
-0.0105277
-0.0102483
-0.0101097
-0.0100573
-0.0100403
-0.0100213
-0.00998055
-0.00991487
-0.00982762
-0.00973087
-0.00963616
-0.00955264
-0.0094866
-0.0094398
-0.00940792
-0.00938447
0.000843023
0.000795334
0.000685929
0.000532978
0.000369949
0.000214467
6.45609e-05
-0.000102154
-0.000325807
-0.000660599
-0.0011696
-0.00191571
-0.00294941
-0.00429766
-0.00595864
-0.0079033
-0.0100811
-0.0124282
-0.0148749
-0.0173521
-0.0197956
-0.0221492
-0.0243658
-0.0264074
-0.0282449
-0.0298561
-0.031225
-0.0323409
-0.033199
-0.0338004
-0.034151
-0.0342546
-0.0341079
-0.0337172
-0.0330978
-0.0322663
-0.03124
-0.0300379
-0.0286801
-0.0271884
-0.0255867
-0.0239013
-0.0221619
-0.0204024
-0.0186614
-0.0169821
-0.0154112
-0.0139957
-0.0127781
-0.0117897
-0.0110449
-0.0105322
-0.0102128
-0.0100309
-0.00992888
-0.00986169
-0.00980514
-0.00974697
-0.00968983
-0.00963751
-0.00959487
-0.00956395
-0.00954268
-0.009527
0.00118986
0.00111368
0.000979265
0.000803392
0.000613004
0.000417463
0.000202878
-6.85775e-05
-0.000453707
-0.00102198
-0.00184522
-0.0029832
-0.00446977
-0.00630574
-0.00845962
-0.0108744
-0.0134775
-0.0161901
-0.0189354
-0.0216434
-0.024255
-0.0267224
-0.0290092
-0.0310886
-0.0329422
-0.0345577
-0.0359273
-0.037047
-0.0379169
-0.038541
-0.0389257
-0.0390761
-0.0389938
-0.0386856
-0.0381629
-0.0374386
-0.036526
-0.035438
-0.0341874
-0.032786
-0.0312447
-0.0295736
-0.0277833
-0.0258865
-0.0239009
-0.0218529
-0.019782
-0.0177439
-0.0158115
-0.014068
-0.0125943
-0.0114505
-0.0106539
-0.0101681
-0.00991523
-0.00980361
-0.00975796
-0.00973685
-0.00972092
-0.00970659
-0.00969436
-0.009685
-0.00967694
-0.00966819
0.00159409
0.0014898
0.00133056
0.00113046
0.000901304
0.000641825
0.000322232
-0.000112672
-0.000735577
-0.00162548
-0.00285157
-0.00445642
-0.00644574
-0.00878762
-0.0114196
-0.0142604
-0.0172218
-0.0202181
-0.0231731
-0.0260239
-0.0287218
-0.0312315
-0.0335291
-0.0355991
-0.0374329
-0.0390259
-0.0403764
-0.0414853
-0.0423552
-0.0429911
-0.0433987
-0.0435834
-0.0435496
-0.0433047
-0.042858
-0.0422198
-0.0414006
-0.0404101
-0.039257
-0.0379477
-0.0364862
-0.0348733
-0.0331077
-0.031186
-0.0291065
-0.0268734
-0.0245039
-0.0220366
-0.0195399
-0.017116
-0.0148938
-0.013007
-0.0115588
-0.0105847
-0.0100345
-0.00979177
-0.00972191
-0.00972385
-0.00974616
-0.00977082
-0.00979181
-0.00980663
-0.00981272
-0.00980953
0.00203434
0.00190482
0.00172434
0.00149047
0.0012046
0.000848237
0.000373237
-0.000292267
-0.00123179
-0.00252333
-0.00421967
-0.00633415
-0.00883723
-0.0116628
-0.0147216
-0.0179155
-0.0211492
-0.0243392
-0.0274178
-0.0303348
-0.0330555
-0.0355581
-0.0378303
-0.0398666
-0.0416654
-0.0432272
-0.0445543
-0.0456496
-0.0465171
-0.0471614
-0.0475874
-0.0477999
-0.0478052
-0.0476101
-0.0472222
-0.0466502
-0.0459026
-0.0449873
-0.0439111
-0.0426781
-0.0412896
-0.0397424
-0.0380294
-0.0361392
-0.0340581
-0.0317729
-0.0292779
-0.026584
-0.0237321
-0.020806
-0.0179399
-0.0153109
-0.0131054
-0.0114636
-0.0104239
-0.0099037
-0.00973272
-0.00973078
-0.00978341
-0.00984409
-0.00989739
-0.00993629
-0.00995615
-0.00995731
0.00247366
0.00232428
0.00211728
0.00184081
0.00147457
0.000981194
0.000294895
-0.000668767
-0.00199497
-0.0037477
-0.00595096
-0.00858126
-0.0115717
-0.0148261
-0.0182364
-0.0216967
-0.0251144
-0.0284159
-0.0315479
-0.0344755
-0.0371786
-0.0396475
-0.0418795
-0.0438754
-0.0456383
-0.0471717
-0.0484793
-0.049565
-0.0504326
-0.0510863
-0.0515297
-0.0517675
-0.0518057
-0.0516506
-0.0513086
-0.0507867
-0.0500922
-0.0492319
-0.0482113
-0.047034
-0.0457004
-0.0442072
-0.0425459
-0.0407031
-0.0386599
-0.0363947
-0.0338862
-0.0311215
-0.0281086
-0.0248933
-0.0215777
-0.0183317
-0.0153824
-0.012967
-0.0112512
-0.0102566
-0.00984645
-0.00978287
-0.009849
-0.00993994
-0.0100224
-0.0100837
-0.0101164
-0.0101214
0.00286397
0.00269684
0.00245911
0.00212467
0.00164884
0.000975104
2.2857e-05
-0.00129755
-0.00306136
-0.00530625
-0.00801935
-0.0111371
-0.0145589
-0.0181666
-0.0218427
-0.0254835
-0.0290071
-0.0323553
-0.0354917
-0.0383965
-0.0410623
-0.0434887
-0.0456792
-0.0476388
-0.0493725
-0.0508849
-0.0521801
-0.0532617
-0.0541332
-0.0547978
-0.0552588
-0.0555201
-0.055587
-0.0554648
-0.0551591
-0.0546757
-0.0540207
-0.0531999
-0.0522181
-0.0510785
-0.0497819
-0.0483256
-0.0467028
-0.0449012
-0.0429026
-0.0406834
-0.0382158
-0.0354728
-0.0324367
-0.029115
-0.0255614
-0.0219009
-0.0183438
-0.015171
-0.0126656
-0.0110003
-0.0101543
-0.00991097
-0.00995691
-0.0100694
-0.010177
-0.0102593
-0.0103041
-0.0103137
0.00314267
0.00295755
0.00268413
0.00227394
0.0016581
0.000763124
-0.000500955
-0.00221934
-0.00444578
-0.00718312
-0.0103772
-0.0139269
-0.0177055
-0.0215824
-0.0254406
-0.0291868
-0.0327553
-0.0361055
-0.0392171
-0.0420836
-0.0447068
-0.0470925
-0.0492477
-0.0511791
-0.0528922
-0.0543915
-0.0556808
-0.056763
-0.0576411
-0.0583177
-0.0587959
-0.0590788
-0.0591708
-0.0590764
-0.0588003
-0.0583474
-0.0577228
-0.0569313
-0.0559768
-0.0548624
-0.0535891
-0.0521554
-0.0505564
-0.0487828
-0.0468197
-0.044646
-0.0422345
-0.0395531
-0.0365701
-0.0332647
-0.0296459
-0.0257799
-0.0218208
-0.0180277
-0.0147392
-0.0122745
-0.0107851
-0.0101744
-0.0101186
-0.01024
-0.0103694
-0.0104718
-0.0105301
-0.0105462
0.003242
0.00304123
0.00272406
0.00221947
0.001436
0.00028694
-0.0013197
-0.00345459
-0.00614121
-0.00934255
-0.0129637
-0.0168726
-0.0209256
-0.0249897
-0.0289567
-0.0327492
-0.0363198
-0.0396449
-0.042718
-0.0455423
-0.0481258
-0.0504774
-0.0526055
-0.0545169
-0.0562167
-0.057709
-0.0589966
-0.0600822
-0.0609682
-0.061657
-0.0621509
-0.0624531
-0.062567
-0.0624964
-0.0622452
-0.0618175
-0.0612175
-0.060449
-0.0595152
-0.0584188
-0.0571607
-0.0557404
-0.0541546
-0.052397
-0.0504567
-0.0483174
-0.0459561
-0.0433428
-0.0404417
-0.0372169
-0.0336454
-0.0297407
-0.0255873
-0.0213789
-0.017435
-0.0141545
-0.0118719
-0.0106775
-0.0103586
-0.0104574
-0.0106051
-0.0107287
-0.010804
-0.0108301
0.00310377
0.00288582
0.00251617
0.00190069
0.000928584
-0.000494933
-0.00245586
-0.00500185
-0.008121
-0.0117348
-0.0157128
-0.0199005
-0.0241473
-0.0283259
-0.0323427
-0.0361388
-0.0396845
-0.0429708
-0.0460016
-0.0487863
-0.051336
-0.0536609
-0.0557691
-0.0576668
-0.0593583
-0.060847
-0.0621353
-0.0632253
-0.0641191
-0.0648188
-0.0653267
-0.0656456
-0.0657783
-0.065728
-0.0654982
-0.0650921
-0.064513
-0.0637639
-0.0628475
-0.0617657
-0.0605193
-0.0591082
-0.0575303
-0.0557814
-0.0538542
-0.0517373
-0.0494134
-0.0468581
-0.0440387
-0.0409155
-0.0374482
-0.0336126
-0.029431
-0.0250159
-0.0206159
-0.0166255
-0.0134998
-0.0115465
-0.0107471
-0.0107243
-0.010891
-0.0110364
-0.0111345
-0.0111752
0.00267847
0.00244116
0.0020117
0.00127362
0.00010138
-0.00160199
-0.00390916
-0.00683943
-0.010343
-0.0143027
-0.0185598
-0.022947
-0.0273148
-0.0315479
-0.0355705
-0.0393418
-0.0428476
-0.0460901
-0.0490799
-0.0518298
-0.054352
-0.0566561
-0.0587495
-0.0606374
-0.0623233
-0.0638099
-0.0650992
-0.0661932
-0.0670937
-0.0678028
-0.0683226
-0.0686555
-0.0688042
-0.0687714
-0.06856
-0.0681726
-0.067612
-0.0668804
-0.0659798
-0.0649115
-0.0636762
-0.0622736
-0.0607024
-0.0589597
-0.0570408
-0.0549381
-0.0526398
-0.0501283
-0.0473773
-0.0443509
-0.0410043
-0.0372923
-0.0331916
-0.0287404
-0.0240951
-0.0195806
-0.0156796
-0.0128802
-0.0114019
-0.0110605
-0.0112378
-0.0114039
-0.0115298
-0.0115916
0.00193485
0.00167609
0.00118222
0.000316256
-0.00105676
-0.00303029
-0.005658
-0.00892866
-0.0127548
-0.0169865
-0.0214454
-0.0259594
-0.030387
-0.0346285
-0.0386261
-0.0423554
-0.0458143
-0.0490126
-0.0519648
-0.0546848
-0.0571841
-0.0594715
-0.0615531
-0.063433
-0.0651141
-0.0665986
-0.0678884
-0.0689852
-0.0698909
-0.0706074
-0.0711368
-0.0714814
-0.0716436
-0.0716257
-0.0714302
-0.0710593
-0.0705153
-0.0697998
-0.0689143
-0.0678596
-0.0666361
-0.0652433
-0.0636801
-0.0619444
-0.060033
-0.0579411
-0.0556612
-0.0531815
-0.0504833
-0.047538
-0.0443048
-0.0407321
-0.0367696
-0.0323993
-0.0276884
-0.0228607
-0.0183452
-0.0147156
-0.0124334
-0.0115517
-0.0116453
-0.0118455
-0.0120007
-0.0120916
0.000863508
0.000582072
2.27135e-05
-0.000969506
-0.00253331
-0.00475386
-0.00766308
-0.0112187
-0.0152991
-0.0197288
-0.024318
-0.0288966
-0.0333354
-0.0375516
-0.0415041
-0.0451819
-0.0485916
-0.0517476
-0.0546657
-0.0573594
-0.059839
-0.0621118
-0.0641827
-0.0660549
-0.0677309
-0.0692125
-0.0705016
-0.0715998
-0.0725091
-0.0732312
-0.0737683
-0.0741224
-0.0742958
-0.0742906
-0.0741089
-0.0737527
-0.0732236
-0.0725231
-0.0716522
-0.0706114
-0.0694008
-0.0680197
-0.0664669
-0.0647408
-0.062839
-0.0607582
-0.0584938
-0.0560387
-0.0533808
-0.0504996
-0.0473626
-0.0439217
-0.0401165
-0.0358929
-0.0312473
-0.0262981
-0.0213716
-0.0170287
-0.013904
-0.0123247
-0.0121147
-0.0123847
-0.0125619
-0.0126908
-0.000522805
-0.000826164
-0.00144844
-0.0025587
-0.00429431
-0.00672872
-0.00987189
-0.0136517
-0.0179179
-0.0224767
-0.027134
-0.0317269
-0.0361404
-0.0403083
-0.0442036
-0.0478255
-0.0511862
-0.0543022
-0.0571889
-0.0598587
-0.0623201
-0.064579
-0.0666391
-0.0685032
-0.0701732
-0.0716509
-0.072938
-0.0740363
-0.0749475
-0.0756737
-0.0762166
-0.0765785
-0.0767613
-0.0767668
-0.0765971
-0.0762537
-0.0757381
-0.0750515
-0.0741947
-0.073168
-0.0719711
-0.0706034
-0.0690636
-0.0673502
-0.0654611
-0.0633939
-0.0611458
-0.0587127
-0.0560873
-0.0532569
-0.050198
-0.0468713
-0.0432184
-0.0391685
-0.0346689
-0.0297482
-0.0246127
-0.0197376
-0.0158231
-0.0134611
-0.0127189
-0.0130313
-0.0132331
-0.0134023
-0.00219021
-0.00251246
-0.00319192
-0.00440674
-0.00628886
-0.00889823
-0.012224
-0.0161673
-0.0205553
-0.0251831
-0.0298576
-0.0344261
-0.0387886
-0.0428934
-0.0467252
-0.0502898
-0.0536028
-0.0566808
-0.0595381
-0.062185
-0.0646287
-0.0668734
-0.0689223
-0.0707774
-0.0724404
-0.0739131
-0.0751971
-0.0762941
-0.0772061
-0.0779349
-0.0784824
-0.0788504
-0.0790409
-0.0790555
-0.0788961
-0.078564
-0.0780606
-0.0773869
-0.0765435
-0.0755306
-0.0743479
-0.0729948
-0.0714701
-0.0697721
-0.067899
-0.0658489
-0.0636197
-0.0612091
-0.0586133
-0.0558252
-0.0528298
-0.0495983
-0.0460813
-0.0422063
-0.0378928
-0.0331028
-0.0279302
-0.0227248
-0.0181536
-0.0149928
-0.0136042
-0.0137686
-0.0140388
-0.014244
-0.00408734
-0.00442421
-0.0051524
-0.00645482
-0.00845471
-0.0111984
-0.0146561
-0.0187063
-0.0231602
-0.0278073
-0.0324594
-0.0369758
-0.0412703
-0.0453037
-0.0490692
-0.0525771
-0.0558439
-0.0588856
-0.0617144
-0.064339
-0.0667646
-0.0689947
-0.0710315
-0.0728767
-0.0745318
-0.0759985
-0.0772785
-0.0783735
-0.0792852
-0.0800156
-0.0805663
-0.0809392
-0.0811361
-0.0811584
-0.0810079
-0.0806857
-0.0801932
-0.0795312
-0.0787004
-0.0777009
-0.0765325
-0.0751947
-0.0736862
-0.0720057
-0.0701514
-0.0681216
-0.0659146
-0.0635289
-0.0609629
-0.0582132
-0.0552718
-0.0521198
-0.0487195
-0.0450063
-0.0408909
-0.0362908
-0.0312099
-0.0258642
-0.0208182
-0.0169263
-0.0148519
-0.0145958
-0.0150209
-0.0152369
-0.00615132
-0.00649746
-0.00726427
-0.00863575
-0.010724
-0.0135628
-0.0171055
-0.0212134
-0.0256867
-0.0303144
-0.0349155
-0.0393611
-0.0435777
-0.047536
-0.0512351
-0.0546876
-0.0579101
-0.0609167
-0.0637177
-0.0663198
-0.0687271
-0.0709419
-0.0729658
-0.0748004
-0.076447
-0.0779071
-0.0791824
-0.0802746
-0.0811854
-0.0819165
-0.0824696
-0.0828464
-0.0830484
-0.0830772
-0.0829342
-0.0826208
-0.0821379
-0.0814866
-0.0806674
-0.0796806
-0.0785262
-0.0772036
-0.0757121
-0.0740503
-0.0722167
-0.0702098
-0.0680279
-0.0656702
-0.0631359
-0.0604242
-0.0575319
-0.0544484
-0.0511478
-0.0475784
-0.0436549
-0.0392722
-0.0343685
-0.0290401
-0.0237131
-0.0192186
-0.0164429
-0.0156077
-0.0161786
-0.0164045
-0.00831342
-0.00866243
-0.00945716
-0.0108793
-0.0130282
-0.0159263
-0.0195136
-0.0236384
-0.0280952
-0.0326751
-0.0372058
-0.0415698
-0.0457041
-0.0495869
-0.0532211
-0.0566205
-0.0598003
-0.0627728
-0.0655464
-0.0681261
-0.0705147
-0.0727137
-0.0747244
-0.0765479
-0.0781856
-0.0796388
-0.0809091
-0.0819981
-0.0829074
-0.0836387
-0.0841934
-0.0845731
-0.0847794
-0.0848136
-0.0846771
-0.0843711
-0.0838967
-0.0832549
-0.0824463
-0.0814714
-0.0803302
-0.0790226
-0.077548
-0.0759053
-0.0740935
-0.072111
-0.0699566
-0.0676295
-0.0651296
-0.0624573
-0.0596125
-0.0565911
-0.0533777
-0.0499343
-0.0461879
-0.0420291
-0.0373518
-0.0321583
-0.026727
-0.0217851
-0.018337
-0.0169292
-0.017479
-0.0177557
-0.0105042
-0.0108489
-0.011661
-0.0131169
-0.0153018
-0.0182287
-0.0218274
-0.0259375
-0.0303513
-0.0348646
-0.0393137
-0.0435913
-0.0476429
-0.0514522
-0.0550244
-0.0583732
-0.0615122
-0.0644518
-0.0671986
-0.069756
-0.0721257
-0.0743089
-0.0763062
-0.0781187
-0.0797474
-0.0811936
-0.0824588
-0.0835445
-0.084452
-0.0851829
-0.0857387
-0.0861207
-0.0863303
-0.086369
-0.086238
-0.0859384
-0.0854714
-0.084838
-0.0840389
-0.0830747
-0.0819459
-0.0806524
-0.079194
-0.0775703
-0.0757803
-0.073823
-0.0716975
-0.069403
-0.0669397
-0.0643088
-0.0615122
-0.0585501
-0.0554154
-0.0520836
-0.0484974
-0.0445551
-0.0401282
-0.0351484
-0.0297592
-0.0245402
-0.0205253
-0.0186007
-0.0188806
-0.01929
-0.0126575
-0.0129903
-0.0138102
-0.015285
-0.0174851
-0.0204161
-0.0240004
-0.028073
-0.0324265
-0.0368622
-0.0412249
-0.045416
-0.0493876
-0.0531272
-0.0566412
-0.0599424
-0.0630428
-0.0659509
-0.0686716
-0.0712071
-0.0735585
-0.0757261
-0.0777103
-0.079512
-0.081132
-0.0825715
-0.0838318
-0.0849141
-0.0858198
-0.0865502
-0.0871066
-0.0874903
-0.0877027
-0.087745
-0.0876185
-0.0873242
-0.0868635
-0.0862372
-0.0854464
-0.0844918
-0.083374
-0.0820935
-0.0806505
-0.0790448
-0.0772761
-0.0753438
-0.0732473
-0.0709864
-0.0685613
-0.0659737
-0.0632266
-0.0603231
-0.0572626
-0.0540319
-0.0505898
-0.0468502
-0.0426798
-0.03796
-0.0327277
-0.0274066
-0.0229869
-0.0205795
-0.020386
-0.0210036
-0.0147135
-0.0150289
-0.0158464
-0.0173275
-0.0195261
-0.0224422
-0.0259938
-0.0300136
-0.0342969
-0.0386507
-0.0429273
-0.0470352
-0.0509318
-0.054607
-0.0580672
-0.0613242
-0.0643885
-0.0672668
-0.0699627
-0.0724773
-0.0748111
-0.0769638
-0.0789357
-0.0807272
-0.0823392
-0.0837724
-0.0850281
-0.0861073
-0.0870113
-0.0877411
-0.0882979
-0.088683
-0.0888976
-0.0889428
-0.0888199
-0.08853
-0.0880743
-0.087454
-0.0866701
-0.0857236
-0.0846155
-0.0833465
-0.0819173
-0.0803282
-0.0785795
-0.0766712
-0.0746032
-0.0723757
-0.0699893
-0.0674461
-0.0647497
-0.0619052
-0.0589165
-0.0557796
-0.0524686
-0.0489155
-0.0449953
-0.0405593
-0.0355673
-0.0303007
-0.0256419
-0.0227881
-0.0220669
-0.0228913
-0.0166165
-0.0169164
-0.0177204
-0.0191973
-0.0213815
-0.0242691
-0.0277754
-0.0317338
-0.0359431
-0.0402158
-0.0444103
-0.0484412
-0.0522694
-0.0558862
-0.0592977
-0.0625146
-0.0655456
-0.0683963
-0.071069
-0.0735642
-0.0758816
-0.0780206
-0.0799812
-0.0817636
-0.0833684
-0.0847962
-0.0860479
-0.0871246
-0.088027
-0.0887564
-0.0893136
-0.0896998
-0.0899161
-0.0899635
-0.0898434
-0.0895568
-0.0891051
-0.0884894
-0.087711
-0.0867711
-0.085671
-0.0844117
-0.0829944
-0.08142
-0.0796894
-0.0778033
-0.0757621
-0.0735668
-0.0712185
-0.0687196
-0.0660744
-0.0632891
-0.060371
-0.0573233
-0.054133
-0.0507505
-0.047067
-0.0429241
-0.0382265
-0.0331357
-0.0283812
-0.0251457
-0.023993
-0.0249475
-0.0183289
-0.0186034
-0.0193934
-0.0208568
-0.023017
-0.0258669
-0.0293204
-0.0332132
-0.0373499
-0.0415455
-0.0456648
-0.0496266
-0.0533943
-0.0569597
-0.0603282
-0.0635093
-0.0665104
-0.0693361
-0.0719878
-0.0744654
-0.076768
-0.0788949
-0.0808457
-0.0826203
-0.0842191
-0.0856425
-0.0868912
-0.0879659
-0.0888674
-0.0895966
-0.0901543
-0.0905415
-0.0907591
-0.0908083
-0.0906902
-0.090406
-0.089957
-0.0893445
-0.08857
-0.087635
-0.0865408
-0.0852892
-0.0838815
-0.0823195
-0.0806045
-0.078738
-0.0767213
-0.0745559
-0.0722438
-0.0697879
-0.0671931
-0.0644665
-0.061618
-0.0586559
-0.0555779
-0.0523518
-0.0488889
-0.0450367
-0.0406622
-0.0358323
-0.0311094
-0.0276077
-0.0261499
-0.0271391
-0.019822
-0.020058
-0.0208329
-0.0222764
-0.0244071
-0.0272139
-0.0306102
-0.0344359
-0.0385055
-0.04263
-0.0466827
-0.050585
-0.0543011
-0.0578227
-0.0611543
-0.0643042
-0.0672793
-0.070083
-0.0727163
-0.0751786
-0.0774685
-0.0795852
-0.081528
-0.0832965
-0.0848907
-0.0863111
-0.0875578
-0.0886316
-0.0895329
-0.0902624
-0.0908208
-0.0912089
-0.0914277
-0.0914782
-0.0913614
-0.0910786
-0.0906311
-0.0900204
-0.0892481
-0.0883159
-0.0872256
-0.0859791
-0.0845785
-0.0830259
-0.0813234
-0.0794733
-0.0774778
-0.0753392
-0.0730602
-0.0706447
-0.0680981
-0.0654286
-0.0626476
-0.0597679
-0.0567953
-0.053713
-0.0504538
-0.0468806
-0.0428383
-0.0383236
-0.0337447
-0.0301169
-0.0284586
-0.029394
-0.0210755
-0.0212655
-0.022015
-0.0234355
-0.0255351
-0.0282962
-0.0316339
-0.0353925
-0.0394002
-0.0434602
-0.0474573
-0.0513109
-0.0549849
-0.0584707
-0.0617718
-0.0648958
-0.0678488
-0.070634
-0.0732518
-0.0757013
-0.0779811
-0.0800899
-0.0820267
-0.083791
-0.0853826
-0.0868014
-0.0880477
-0.0891216
-0.0900236
-0.0907541
-0.0913137
-0.091703
-0.0919229
-0.0919742
-0.0918581
-0.0915757
-0.0911286
-0.0905181
-0.0897461
-0.0888146
-0.0877257
-0.0864816
-0.085085
-0.0835385
-0.0818449
-0.0800074
-0.0780289
-0.0759129
-0.0736629
-0.0712837
-0.0687817
-0.0661661
-0.0634496
-0.0606481
-0.0577745
-0.0548247
-0.0517521
-0.0484398
-0.0447255
-0.0405553
-0.0362086
-0.0325805
-0.0308058
-0.0316215
-0.0220779
-0.0222162
-0.0229307
-0.0243218
-0.02639
-0.0291079
-0.0323899
-0.0360862
-0.0400231
-0.0440302
-0.047983
-0.0517995
-0.0554418
-0.0589
-0.0621772
-0.0652805
-0.0682157
-0.070986
-0.0735916
-0.0760314
-0.0783038
-0.0804072
-0.0823406
-0.0841029
-0.0856939
-0.0871131
-0.0883605
-0.0894361
-0.09034
-0.0910724
-0.0916339
-0.0920247
-0.0922457
-0.0922977
-0.0921816
-0.0918987
-0.0914506
-0.0908387
-0.0900652
-0.089132
-0.0880417
-0.086797
-0.0854009
-0.0838567
-0.0821679
-0.0803384
-0.0783721
-0.0762735
-0.0740473
-0.0716992
-0.0692367
-0.06667
-0.0640134
-0.061285
-0.0585034
-0.055675
-0.0527717
-0.0496989
-0.0462993
-0.0424832
-0.0384288
-0.0348986
-0.0330732
-0.0337347
-0.0228267
-0.0229078
-0.02358
-0.0249344
-0.0269661
-0.0296394
-0.0328677
-0.0365069
-0.0403863
-0.0443474
-0.0482633
-0.0520508
-0.0556695
-0.0591075
-0.0623671
-0.0654551
-0.0683773
-0.0711366
-0.0737334
-0.0761666
-0.0784346
-0.0805355
-0.0824681
-0.0842311
-0.0858238
-0.0872455
-0.088496
-0.089575
-0.0904822
-0.0912178
-0.0917819
-0.0921749
-0.0923972
-0.0924496
-0.0923331
-0.0920489
-0.0915985
-0.0909836
-0.0902063
-0.089269
-0.0881744
-0.0869257
-0.0855263
-0.0839802
-0.0822914
-0.0804647
-0.0785051
-0.0764179
-0.0742091
-0.0718856
-0.069456
-0.0669318
-0.0643286
-0.0616667
-0.0589691
-0.056251
-0.0535
-0.0506437
-0.0475386
-0.0440713
-0.0403427
-0.0369819
-0.0351596
-0.0356597
-0.0233279
-0.0233476
-0.0239708
-0.0252808
-0.0272689
-0.0298935
-0.0330685
-0.0366558
-0.0404894
-0.0444128
-0.0482992
-0.0520647
-0.0556667
-0.0590912
-0.0623392
-0.0654171
-0.0683305
-0.0710828
-0.0736745
-0.0761046
-0.0783714
-0.0804731
-0.0824078
-0.0841743
-0.0857714
-0.0871982
-0.0884541
-0.0895383
-0.0904507
-0.0911909
-0.0917588
-0.0921546
-0.0923786
-0.0924315
-0.0923142
-0.0920278
-0.0915738
-0.0909542
-0.0901709
-0.0892269
-0.0881249
-0.0868685
-0.0854617
-0.0839088
-0.0822148
-0.0803851
-0.0784258
-0.0763432
-0.0741445
-0.0718378
-0.0694331
-0.0669433
-0.0643854
-0.0617818
-0.0591588
-0.0565392
-0.0539234
-0.0512605
-0.0484253
-0.0452905
-0.0418998
-0.0387575
-0.0369862
-0.0373365
-0.0235947
-0.0235513
-0.024119
-0.0253758
-0.0273124
-0.0298831
-0.0330032
-0.0365404
-0.0403333
-0.0442253
-0.0480892
-0.0518398
-0.0554318
-0.0588489
-0.0620909
-0.0651636
-0.0680729
-0.0708222
-0.0734125
-0.0758431
-0.0781123
-0.0802179
-0.0821582
-0.0839313
-0.0855358
-0.0869705
-0.0882342
-0.0893262
-0.0902457
-0.0909921
-0.0915652
-0.0919649
-0.0921912
-0.0922448
-0.0921264
-0.0918371
-0.0913784
-0.0907522
-0.0899609
-0.0890073
-0.0878945
-0.0866266
-0.0852079
-0.0836428
-0.081938
-0.0800991
-0.078133
-0.0760472
-0.0738501
-0.0715513
-0.0691621
-0.066697
-0.0641747
-0.0616193
-0.0590603
-0.0565264
-0.054029
-0.0515364
-0.0489436
-0.0461175
-0.0430613
-0.0401696
-0.0384938
-0.0387165
-0.0236471
-0.0235421
-0.0240476
-0.0252409
-0.0271164
-0.0296263
-0.0326871
-0.0361717
-0.0399235
-0.0437868
-0.0476332
-0.0513746
-0.0549626
-0.0583783
-0.0616197
-0.0646922
-0.0676016
-0.0703521
-0.072945
-0.0753798
-0.0776549
-0.0797682
-0.0817175
-0.0835007
-0.0851159
-0.0865616
-0.0878363
-0.0889387
-0.0898676
-0.0906224
-0.0912023
-0.0916071
-0.0918366
-0.0918912
-0.0917716
-0.0914788
-0.0910142
-0.0903799
-0.0895782
-0.088612
-0.0874851
-0.0862014
-0.0847658
-0.0831837
-0.0814617
-0.0796066
-0.0776262
-0.0755284
-0.0733239
-0.071023
-0.0686383
-0.0661866
-0.0636882
-0.0611691
-0.058662
-0.0562
-0.053804
-0.0514587
-0.0490798
-0.0465347
-0.0437983
-0.0411763
-0.0396374
-0.0397584
-0.0235106
-0.0233496
-0.0237858
-0.0249029
-0.0267051
-0.0291445
-0.032138
-0.0355636
-0.0392699
-0.0431033
-0.0469337
-0.0506696
-0.0542583
-0.0576775
-0.0609232
-0.0640001
-0.0669141
-0.0696698
-0.0722692
-0.0747121
-0.076997
-0.0791218
-0.081084
-0.0828811
-0.0845108
-0.085971
-0.0872599
-0.0883757
-0.089317
-0.0900825
-0.0906713
-0.0910827
-0.0913165
-0.0913728
-0.0912521
-0.0909553
-0.0904838
-0.0898396
-0.0890252
-0.0880437
-0.0868989
-0.0855952
-0.0841378
-0.0825327
-0.0807869
-0.0789081
-0.0769048
-0.0747866
-0.0725647
-0.0702508
-0.0678585
-0.0654077
-0.0629189
-0.0604225
-0.0579532
-0.0555484
-0.0532366
-0.0510161
-0.0488224
-0.0465288
-0.0440909
-0.0417477
-0.0403803
-0.0404253
-0.023215
-0.0230076
-0.023367
-0.0243937
-0.0261072
-0.0284626
-0.0313771
-0.0347333
-0.0383859
-0.0421839
-0.0459961
-0.0497268
-0.0533186
-0.0567448
-0.059999
-0.0630844
-0.0660071
-0.0687722
-0.0713821
-0.0738371
-0.076136
-0.0782765
-0.0802557
-0.0820708
-0.0837191
-0.0851979
-0.0865048
-0.0876376
-0.0885943
-0.0893734
-0.0899734
-0.0903935
-0.090633
-0.0906918
-0.0905703
-0.0902692
-0.08979
-0.0891344
-0.0883051
-0.0873053
-0.0861389
-0.0848107
-0.0833262
-0.081692
-0.0799154
-0.078005
-0.0759702
-0.0738215
-0.0715712
-0.0692325
-0.0668215
-0.0643584
-0.0618627
-0.0593739
-0.0569252
-0.0545611
-0.0523162
-0.0501988
-0.048162
-0.0460899
-0.0439268
-0.0418637
-0.0406907
-0.0406824
-0.0227925
-0.0225518
-0.0228278
-0.0237486
-0.0253555
-0.0276097
-0.0304291
-0.0337014
-0.0372875
-0.0410402
-0.0448276
-0.0485498
-0.0521441
-0.0555789
-0.0588443
-0.0619419
-0.0648773
-0.0676557
-0.0702803
-0.0727518
-0.0750691
-0.0772297
-0.0792306
-0.0810684
-0.0827399
-0.0842417
-0.0855708
-0.0867245
-0.0877004
-0.0884962
-0.0891104
-0.0895414
-0.0897884
-0.089851
-0.0897293
-0.089424
-0.0889362
-0.0882679
-0.0874215
-0.0864005
-0.0852089
-0.0838517
-0.0823348
-0.080665
-0.0788504