/*--------------------------------*- C++ -*----------------------------------*\
| =========                 |                                                 |
| \\      /  F ield         | OpenFOAM: The Open Source CFD Toolbox           |
|  \\    /   O peration     | Version:  2406                                  |
|   \\  /    A nd           | Website:  www.openfoam.com                      |
|    \\/     M anipulation  |                                                 |
\*---------------------------------------------------------------------------*/
FoamFile
{
    version     2.0;
    format      ascii;
    arch        "LSB;label=32;scalar=64";
    class       surfaceScalarField;
    location    "35";
    object      phi_0;
}
// * * * * * * * * * * * * * * * * * * * * * * * * * * * * * * * * * * * * * //

dimensions      [0 3 -1 0 0 0 0];

oriented        oriented;

internalField   nonuniform List<scalar> 
1740
(
6.3269e-06
-6.32689e-06
1.57841e-05
-9.45721e-06
2.24709e-05
-6.68676e-06
2.48658e-05
-2.39492e-06
2.43621e-05
5.03638e-07
2.1731e-05
2.63116e-06
1.58761e-05
5.85492e-06
4.0751e-06
1.1801e-05
-1.98656e-05
2.39407e-05
-6.15043e-05
4.16387e-05
-0.000120872
5.93681e-05
-0.000192021
7.11488e-05
-0.000262363
7.03422e-05
-0.000319004
5.66406e-05
-0.000352786
3.37821e-05
-0.000357895
5.10884e-06
-0.000331714
-2.61809e-05
-0.000274123
-5.75915e-05
-0.000189089
-8.50338e-05
-8.54933e-05
-0.000103596
2.12881e-05
-0.000106781
0.000112742
-9.14537e-05
0.00016979
-5.70484e-05
0.000181891
-1.21009e-05
0.0001536
2.82913e-05
0.000106233
4.73669e-05
6.08497e-05
4.53831e-05
2.80597e-05
3.279e-05
8.37429e-06
1.96854e-05
8.37429e-06
1.1082e-05
-1.74089e-05
2.61135e-05
-2.44887e-05
3.32171e-05
-1.37904e-05
3.0056e-05
7.66204e-07
1.68128e-05
1.37468e-05
-9.43986e-06
2.88838e-05
-5.75584e-05
5.39735e-05
-0.000137604
9.18465e-05
-0.000247366
0.000133703
-0.000370437
0.000164709
-0.000486173
0.000175104
-0.000580238
0.000165214
-0.000647711
0.000137815
-0.000687825
9.67537e-05
-0.000700349
4.63061e-05
-0.000685296
-9.94355e-06
-0.000641341
-7.01362e-05
-0.000569456
-0.000129476
-0.000470683
-0.000183807
-0.00034857
-0.000225709
-0.000211369
-0.000243982
-7.42295e-05
-0.000228594
4.36335e-05
-0.000174911
0.000122019
-9.04862e-05
0.000151523
-1.21271e-06
0.000139364
5.95259e-05
0.000101807
8.29396e-05
5.73754e-05
7.72219e-05
1.96762e-05
5.73847e-05
2.80505e-05
1.22915e-05
-2.97003e-05
2.29327e-05
-3.513e-05
1.90303e-05
-9.88795e-06
-2.54138e-06
2.23379e-05
-4.69045e-05
5.81099e-05
-0.000124879
0.000106858
-0.000241972
0.000171067
-0.000384736
0.000234611
-0.0005273
0.000276267
-0.000651888
0.000289297
-0.00075228
0.000275496
-0.00082705
0.000239984
-0.00087789
0.000188655
-0.000907412
0.000126277
-0.000917009
5.59028e-05
-0.000906418
-2.0535e-05
-0.000876363
-0.000100191
-0.000823548
-0.000182291
-0.000745315
-0.000262039
-0.000639684
-0.000331341
-0.000507402
-0.000376264
-0.000355495
-0.0003805
-0.000200125
-0.000330281
-6.57239e-05
-0.000224888
2.4291e-05
-9.12275e-05
6.35819e-05
2.0235e-05
6.65158e-05
8.00056e-05
4.6415e-05
9.73228e-05
1.79772e-05
8.58224e-05
4.60277e-05
8.92079e-06
-3.86211e-05
6.21217e-06
-3.24213e-05
-1.97076e-05
1.60318e-05
-7.44263e-05
7.70566e-05
-0.000167478
0.000151161
-0.000300758
0.000240138
-0.000455325
0.000325633
-0.00060342
0.000382706
-0.000728787
0.000401634
-0.000826352
0.000386863
-0.000897415
0.000346559
-0.000946175
0.000288744
-0.000977212
0.000219692
-0.000994548
0.000143612
-0.001001
6.23555e-05
-0.000997858
-2.3677e-05
-0.000985277
-0.000112773
-0.000960746
-0.000206822
-0.000919349
-0.000303436
-0.000854181
-0.000396508
-0.000756488
-0.000473957
-0.00062034
-0.000516649
-0.000449391
-0.000501231
-0.000265842
-0.000408436
-0.000110138
-0.000246932
-1.88995e-05
-7.1003e-05
1.54712e-05
4.56349e-05
1.98235e-05
9.29705e-05
8.70433e-06
9.69416e-05
5.4732e-05
-1.52961e-06
-3.70915e-05
-2.68777e-05
-7.07325e-06
-8.46417e-05
7.37958e-05
-0.00018027
0.000172685
-0.00031448
0.000285371
-0.000469174
0.000394833
-0.000615653
0.000472112
-0.000734968
0.000502021
-0.000822852
0.000489518
-0.000881592
0.000445602
-0.000916701
0.000381668
-0.000935024
0.000307067
-0.000942838
0.000227506
-0.000945095
0.000145869
-0.000945527
6.2787e-05
-0.000947258
-2.19452e-05
-0.000948914
-0.000111118
-0.000950692
-0.000205043
-0.000949205
-0.000304924
-0.000936606
-0.000409108
-0.000899132
-0.000511431
-0.000819303
-0.000596478
-0.000682231
-0.000638302
-0.000486955
-0.000603713
-0.000267231
-0.000466655
-9.40253e-05
-0.000244209
-1.74405e-05
-3.09499e-05
1.74134e-06
7.37887e-05
2.8494e-06
9.58336e-05
5.75814e-05
-1.92648e-05
-1.78267e-05
-7.3322e-05
4.69839e-05
-0.000163696
0.00016417
-0.000289601
0.000298589
-0.000437127
0.000432898
-0.000578553
0.000536258
-0.000691293
0.000584853
-0.000768811
0.000579539
-0.000814178
0.000534885
-0.000834471
0.000465895
-0.00083869
0.000385887
-0.000834515
0.000302893
-0.000827603
0.000220594
-0.000821404
0.00013967
-0.000818084
5.94675e-05
-0.000818761
-2.12684e-05
-0.000824616
-0.000105263
-0.000836718
-0.00019294
-0.000855326
-0.000286316
-0.000877377
-0.000387057
-0.000893808
-0.000495
-0.000886521
-0.000603765
-0.000827999
-0.000696823
-0.000690962
-0.00074075
-0.000470308
-0.00068731
-0.000217243
-0.000497275
-4.71369e-05
-0.000201056
-1.32274e-06
2.79745e-05
2.62944e-06
9.18814e-05
6.02108e-05
-4.16156e-05
2.3789e-05
-0.000122842
0.00012821
-0.000236213
0.000277541
-0.000371768
0.000434144
-0.000506818
0.000567948
-0.000616244
0.000645685
-0.000688762
0.000657371
-0.000726937
0.000617713
-0.000739057
0.000547006
-0.000735831
0.000462668
-0.00072661
0.000376666
-0.000717143
0.000293426
-0.000710256
0.000213706
-0.000706538
0.000135952
-0.000705765
5.86948e-05
-0.000707114
-1.99191e-05
-0.000712047
-0.00010033
-0.000721369
-0.000183619
-0.000737048
-0.000270637
-0.000761326
-0.000362778
-0.000793945
-0.000462381
-0.000826608
-0.000571102
-0.000838226
-0.000685205
-0.00079325
-0.000785726
-0.000651748
-0.000828811
-0.000405597
-0.000743425
-0.000130955
-0.000475697
-7.60049e-08
-0.000102905
4.584e-06
8.72214e-05
6.47948e-05
-6.13512e-05
8.51402e-05
-0.000160698
0.000227556
-0.000282217
0.00039906
-0.000409616
0.000561543
-0.000519227
0.000677559
-0.000594047
0.000720505
-0.000632781
0.000696105
-0.000643996
0.000628928
-0.000639145
0.000542155
-0.000629194
0.000452717
-0.00062062
0.000368092
-0.000615858
0.000288664
-0.00061485
0.000212698
-0.000616466
0.000137568
-0.000619527
6.1756e-05
-0.000623574
-1.58724e-05
-0.000628554
-9.535e-05
-0.000635277
-0.000176896
-0.000645346
-0.000260568
-0.000661147
-0.000346977
-0.000685593
-0.000437935
-0.000719601
-0.000537094
-0.000756778
-0.000648027
-0.000774551
-0.000767953
-0.000729576
-0.000873787
-0.000568998
-0.000904004
-0.000291073
-0.000753622
-3.93171e-05
-0.000354661
8.52885e-06
3.93754e-05
7.33237e-05
-7.36817e-05
0.000158822
-0.000180024
0.000333899
-0.000297121
0.000516158
-0.0004064
0.000670823
-0.000488321
0.000759479
-0.000534476
0.000766659
-0.000550583
0.000712213
-0.000548259
0.000626603
-0.000539352
0.000533248
-0.000532044
0.000445409
-0.00052907
0.000365118
-0.000530352
0.000289946
-0.000534467
0.000216813
-0.000540039
0.00014314
-0.000545967
6.76841e-05
-0.000551762
-1.00767e-05
-0.000557138
-8.99747e-05
-0.000562553
-0.000171481
-0.000569085
-0.000254036
-0.000578592
-0.000337471
-0.000593883
-0.000422643
-0.000618399
-0.000512579
-0.000653377
-0.000613049
-0.000691063
-0.000730266
-0.000704853
-0.000859997
-0.000643801
-0.000965056
-0.000452186
-0.000945237
-0.000138153
-0.000668694
1.28111e-05
-0.000111589
8.61348e-05
-7.57932e-05
0.000234615
-0.000178713
0.000436819
-0.000282848
0.000620293
-0.00037088
0.000758854
-0.000428873
0.000817473
-0.000455345
0.000793131
-0.000459749
0.000716616
-0.000454051
0.000620906
-0.000448066
0.000527262
-0.000446322
0.000443665
-0.00044909
0.000367886
-0.000455264
0.00029612
-0.000463268
0.000224818
-0.000471941
0.000151812
-0.000480455
7.61986e-05
-0.000487971
-2.56038e-06
-0.000494556
-8.33902e-05
-0.000499951
-0.000166086
-0.000504598
-0.000249389
-0.000509556
-0.000332513
-0.00051685
-0.000415349
-0.000530168
-0.000499261
-0.000554416
-0.000588801
-0.000591395
-0.000693287
-0.000630393
-0.000820999
-0.000631681
-0.000963769
-0.000525851
-0.00105107
-0.000276047
-0.000918497
-1.15412e-05
-0.000376095
7.45936e-05
-6.85612e-05
0.000303176
-0.000160627
0.000528885
-0.000248065
0.000707731
-0.000316249
0.000827038
-0.000356433
0.000857657
-0.000371453
0.000808151
-0.000371647
0.00071681
-0.000367547
0.000616807
-0.000366039
0.000525753
-0.000368946
0.000446573
-0.000375543
0.000374483
-0.00038455
0.000305127
-0.000394696
0.000234964
-0.000405112
0.000162228
-0.000414981
8.60676e-05
-0.000424074
6.53293e-06
-0.000431642
-7.58225e-05
-0.0004379
-0.000159828
-0.000443005
-0.000244284
-0.000447399
-0.000328119
-0.000451873
-0.000410875
-0.000458152
-0.000492982
-0.000470729
-0.000576224
-0.000495427
-0.000668589
-0.000534434
-0.000781992
-0.00056656
-0.000931642
-0.000540826
-0.0010768
-0.00038287
-0.00107645
-7.13693e-05
-0.000687596
3.22432e-06
-5.41191e-05
0.000357295
-0.000130665
0.00060543
-0.00020003
0.000777097
-0.000250829
0.000877837
-0.000278474
0.000885302
-0.000287704
0.000817381
-0.000287883
0.000716989
-0.00028712
0.000616044
-0.000289595
0.000528229
-0.000295637
0.000452615
-0.000304354
0.0003832
-0.000314705
0.000315478
-0.000325844
0.000246103
-0.000337149
0.000173533
-0.000348055
9.69735e-05
-0.000358009
1.64873e-05
-0.00036659
-6.72416e-05
-0.000373517
-0.000152901
-0.000378912
-0.000238889
-0.000383238
-0.000323793
-0.000387388
-0.000406725
-0.000392153
-0.000488217
-0.000399956
-0.000568421
-0.000414268
-0.000654277
-0.000442402
-0.000753858
-0.000482865
-0.00089118
-0.000502149
-0.00105752
-0.000408242
-0.00117036
-0.000150619
-0.000945218
-0.000147395
-3.53177e-05
0.000392613
-9.39699e-05
0.000664082
-0.00014572
0.000828847
-0.000182447
0.000914564
-0.000202098
0.000904953
-0.000209313
0.000824596
-0.000211191
0.000718866
-0.000213311
0.000618164
-0.000217989
0.000532907
-0.000225141
0.000459766
-0.000234186
0.000392244
-0.0002445
0.000325793
-0.000255627
0.00025723
-0.000267137
0.000185043
-0.000278535
0.000108372
-0.00028926
2.72119e-05
-0.000298826
-5.76752e-05
-0.000306926
-0.000144802
-0.000313495
-0.00023232
-0.000318575
-0.000318712
-0.00032317
-0.00040213
-0.000327368
-0.000484019
-0.000332955
-0.000562834
-0.000341431
-0.000645801
-0.000360695
-0.000734595
-0.000396973
-0.000854901
-0.000435768
-0.00101872
-0.000402543
-0.00120359
-0.000224438
-0.00112332
-0.000371833
-1.46174e-05
0.00040723
-5.39713e-05
0.000703436
-8.88896e-05
0.000863765
-0.000113725
0.000939399
-0.000127635
0.000918864
-0.000134032
0.000830993
-0.000137615
0.00072245
-0.000141684
0.000622233
-0.00014738
0.000538603
-0.000154617
0.000467003
-0.000163142
0.000400769
-0.000172689
0.000335339
-0.00018307
0.000267611
-0.000194013
0.000195987
-0.000205147
0.000119506
-0.000216021
3.80857e-05
-0.000226182
-4.75143e-05
-0.000235265
-0.000135719
-0.000243352
-0.000224233
-0.000250129
-0.000311935
-0.000256681
-0.000395578
-0.000262715
-0.000477985
-0.000269453
-0.000556096
-0.00027636
-0.000638894
-0.000289827
-0.000721127
-0.000314986
-0.000829742
-0.000353931
-0.000979777
-0.000356809
-0.00120071
-0.000238932
-0.0012412
-0.000610765
6.40022e-06
0.00040083
-1.26506e-05
0.000722487
-3.27781e-05
0.000883892
-4.77195e-05
0.00095434
-5.75716e-05
0.000928716
-6.42388e-05
0.00083766
-6.9563e-05
0.000727774
-7.46244e-05
0.000627294
-8.00344e-05
0.000544013
-8.59746e-05
0.000472944
-9.26641e-05
0.000407459
-0.000100225
0.000342899
-0.000108751
0.000276137
-0.000118179
0.000205415
-0.000128313
0.000129639
-0.000138869
4.86418e-05
-0.000149507
-3.68767e-05
-0.000159746
-0.000125479
-0.000169642
-0.000214337
-0.000178745
-0.000302832
-0.000187383
-0.00038694
-0.000195837
-0.000469531
-0.00020463
-0.000547304
-0.00021352
-0.000630004
-0.000225493
-0.000709155
-0.00024364
-0.000811594
-0.000278359
-0.000945058
-0.00029885
-0.00118022
-0.000217062
-0.00132299
-0.000827827
2.6939e-05
0.000373891
2.7339e-05
0.000722087
2.17077e-05
0.000889524
1.61927e-05
0.000959855
1.06073e-05
0.000934301
4.51421e-06
0.000843753
-1.47897e-06
0.000733767
-7.02276e-06
0.000632838
-1.1759e-05
0.000548749
-1.61392e-05
0.000477324
-2.07546e-05
0.000412074
-2.60491e-05
0.000348194
-3.23414e-05
0.000282429
-3.97737e-05
0.000212848
-4.83957e-05
0.000138261
-5.80402e-05
5.82863e-05
-6.88341e-05
-2.60827e-05
-7.9943e-05
-0.00011437
-9.2021e-05
-0.000202259
-0.000103971
-0.000290881
-0.000116209
-0.000374702
-0.000128476
-0.000457264
-0.000140691
-0.000535089
-0.000152655
-0.00061804
-0.000164714
-0.000697095
-0.000179282
-0.000797026
-0.000207878
-0.000916462
-0.000234992
-0.0011531
-0.00018526
-0.00137272
-0.00101309
4.47204e-05
0.000329171
6.49903e-05
0.000701817
7.35912e-05
0.000880923
7.70811e-05
0.000956366
7.48272e-05
0.000936555
6.8556e-05
0.000850024
6.15474e-05
0.000740776
5.60944e-05
0.000638291
5.26635e-05
0.00055218
5.05987e-05
0.000479389
4.89303e-05
0.000413743
4.68517e-05
0.000350273
4.37419e-05
0.000285539
3.9192e-05
0.000217398
3.28201e-05
0.000144633
2.45171e-05
6.65893e-05
1.43057e-05
-1.58713e-05
1.46572e-06
-0.000101531
-1.14851e-05
-0.000189309
-2.74109e-05
-0.000274956
-4.26976e-05
-0.000359416
-5.92703e-05
-0.000440691
-7.64057e-05
-0.000517953
-9.26915e-05
-0.000601754
-0.000108847
-0.000680939
-0.000124903
-0.000780971
-0.00015068
-0.000890686
-0.000180234
-0.00112355
-0.000153301
-0.00139965
-0.00116639
5.84571e-05
0.000270714
9.85325e-05
0.000661742
0.000121625
0.000857831
0.000134911
0.000943079
0.00013808
0.000933386
0.000133787
0.000854318
0.000127111
0.000747451
0.00012182
0.000643582
0.000119313
0.000554687
0.000119056
0.000479646
0.00011987
0.000412928
0.000120652
0.000349491
0.000120454
0.000285736
0.00011863
0.000219222
0.000114444
0.000148819
0.000107582
7.3451e-05
9.77404e-05
-6.02916e-06
8.49175e-05
-8.87076e-05
6.90332e-05
-0.000173424
5.04483e-05
-0.000256371
3.11423e-05
-0.00034011
7.67384e-06
-0.000417223
-1.1256e-05
-0.000499023
-3.46999e-05
-0.000578311
-5.51916e-05
-0.000660448
-7.40168e-05
-0.000762145
-9.9697e-05
-0.000865005
-0.000132514
-0.00109073
-0.00012597
-0.0014062
-0.00129236
6.61105e-05
0.000204603
0.000125816
0.000602037
0.000164145
0.000819501
0.000187729
0.000919496
0.000196988
0.000924126
0.000194981
0.000856325
0.000188406
0.000754027
0.00018295
0.000649038
0.000181141
0.000556497
0.000182764
0.000478023
0.000186392
0.0004093
0.00019052
0.000345362
0.000193737
0.000282519
0.000195149
0.00021781
0.000193711
0.000150258
0.000188769
7.83927e-05
0.000179724
3.01551e-06
0.000166528
-7.55114e-05
0.000148938
-0.000155834
0.000128124
-0.000235557
0.000103673
-0.000315659
7.78034e-05
-0.000391353
5.08561e-05
-0.000472076
2.12745e-05
-0.000548729
-1.59605e-06
-0.000637577
-3.0457e-05
-0.000733284
-5.96789e-05
-0.000835783
-9.58329e-05
-0.00105458
-0.000103575
-0.00139845
-0.00139593
6.57283e-05
0.000138875
0.000144217
0.000523548
0.000199703
0.000764015
0.000235934
0.000883265
0.000254339
0.000905722
0.000258132
0.000852531
0.000254225
0.000757934
0.000249482
0.000653781
0.000247879
0.0005581
0.000250202
0.0004757
0.000255276
0.000404226
0.00026152
0.000339118
0.000267112
0.000276927
0.000270826
0.000214096
0.000271423
0.00014966
0.000267831
8.19847e-05
0.000259504
1.13433e-05
0.000245897
-6.19051e-05
0.000226981
-0.000136917
0.000203414
-0.00021199
0.000175258
-0.000287503
0.00014508
-0.000361175
0.000111843
-0.000438838
7.87782e-05
-0.000515665
4.56438e-05
-0.000604443
1.02105e-05
-0.000697851
-2.23102e-05
-0.000803263
-6.49847e-05
-0.0010119
-8.70818e-05
-0.00137636
-0.00148302
5.66947e-05
8.21802e-05
0.000151714
0.000428529
0.000224944
0.000690785
0.000274833
0.000833377
0.000303743
0.000876811
0.000314447
0.000841827
0.00031411
0.000758271
0.000310694
0.000657198
0.000309524
0.000559269
0.000312563
0.000472661
0.000319022
0.000397767
0.000327355
0.000330785
0.000335473
0.000268809
0.00034165
0.000207919
0.000344481
0.000146829
0.000342686
8.37805e-05
0.000335332
1.86965e-05
0.000321909
-4.84814e-05
0.000302226
-0.000117235
0.000276683
-0.000186447
0.0002459
-0.00025672
0.000211431
-0.000326706
0.000173424
-0.000400832
0.00013443
-0.00047667
9.30934e-05
-0.000563106
5.153e-05
-0.000656288
1.02433e-05
-0.000761976
-4.09938e-05
-0.000960666
-7.57778e-05
-0.00134157
-0.00155879
4.31354e-05
3.90448e-05
0.000147113
0.000324551
0.000237794
0.000600104
0.000304203
0.000766967
0.00034776
0.000833254
0.000370947
0.00081864
0.000379259
0.000749959
0.000380391
0.000656066
0.000380809
0.00055885
0.00038403
0.00046944
0.000390346
0.000391451
0.000398768
0.000322362
0.000407475
0.000260103
0.000414473
0.000200922
0.000418152
0.00014315
0.000417006
8.49256e-05
0.000410055
2.56479e-05
0.000396456
-3.48826e-05
0.000376072
-9.68514e-05
0.000348999
-0.000159374
0.000316014
-0.000223735
0.000278004
-0.000288697
0.000235853
-0.000358681
0.00019082
-0.000431637
0.000142624
-0.00051491
9.22131e-05
-0.000605877
3.97813e-05
-0.000709544
-1.87513e-05
-0.000902133
-6.5756e-05
-0.00129457
-0.00162455
2.85635e-05
1.04813e-05
0.000129876
0.000223238
0.000233459
0.00049652
0.000315532
0.000684894
0.000374183
0.000774603
0.000411324
0.000781499
0.000431169
0.000730114
0.000440526
0.00064671
0.000445726
0.00055365
0.000451253
0.000463914
0.000458689
0.000384015
0.00046776
0.000313291
0.000477171
0.000250692
0.00048501
0.000193082
0.000489632
0.000138529
0.000489389
8.51687e-05
0.000483243
3.17938e-05
0.000470129
-2.17693e-05
0.000449941
-7.6663e-05
0.000422353
-0.000131786
0.000388194
-0.000189576
0.000347541
-0.000248043
0.000301528
-0.000312669
0.00024993
-0.000380038
0.000193691
-0.000458672
0.000132361
-0.000544547
6.96312e-05
-0.000646814
8.55927e-08
-0.000832588
-5.23351e-05
-0.00124215
-0.00167688
1.68577e-05
-6.37644e-06
0.000101739
0.000138358
0.000211701
0.000386558
0.000309395
0.0005872
0.000387576
0.000696422
0.000445316
0.000723759
0.000483535
0.000691895
0.000507708
0.000622537
0.000522832
0.000538526
0.000533752
0.000452994
0.000543491
0.000374276
0.000552883
0.000303899
0.000561634
0.000241942
0.000568512
0.000186203
0.000572244
0.000134797
0.000571244
8.6169e-05
0.000564564
3.84737e-05
0.000551082
-8.28737e-06
0.000530463
-5.6044e-05
0.000502109
-0.000103432
0.000466644
-0.00015411
0.000423362
-0.000204762
0.000373303
-0.00026261
0.000314664
-0.000321399
0.000249591
-0.000393599
0.000175694
-0.00047065
0.000102692
-0.000573812
2.77939e-05
-0.00075769
-3.85955e-05
-0.00117576
-0.00171548
8.44502e-06
-1.48215e-05
6.85498e-05
7.82529e-05
0.000166405
0.000288703
0.000271329
0.000482276
0.000366583
0.000601168
0.000443982
0.00064636
0.000504865
0.000631011
0.000549854
0.000577548
0.000581646
0.000506733
0.000604819
0.000429821
0.000622595
0.0003565
0.000636743
0.000289751
0.000647977
0.000230707
0.000656045
0.000178136
0.000660254
0.000130588
0.000659534
8.68889e-05
0.000653037
4.49704e-05
0.00063978
4.96991e-06
0.00061932
-3.5584e-05
0.000590793
-7.49047e-05
0.000554318
-0.000117635
0.000508646
-0.00015909
0.000454082
-0.000208046
0.00038808
-0.000255397
0.000312661
-0.00031818
0.000223783
-0.000381771
0.000137512
-0.000487541
4.46114e-05
-0.00066479
-3.51828e-05
-0.00109596
-0.00175066
-2.08166e-06
-1.27398e-05
3.07433e-05
4.54279e-05
0.000104586
0.00021486
0.000214699
0.000372164
0.000324668
0.000491199
0.000428519
0.000542509
0.000517926
0.000541605
0.000588942
0.000506532
0.000644075
0.0004516
0.000685859
0.000388038
0.000716835
0.000325524
0.000739691
0.000266895
0.000755865
0.000214533
0.000766431
0.00016757
0.000771145
0.000125874
0.000770165
8.78686e-05
0.000762586
5.25491e-05
0.000748062
1.94943e-05
0.000725823
-1.33455e-05
0.000695539
-4.46205e-05
0.000655904
-7.79997e-05
0.000606496
-0.000109682
0.000545933
-0.000147482
0.000473024
-0.000182488
0.000388341
-0.000233497
0.000288453
-0.000281883
0.000188119
-0.000387207
7.36825e-05
-0.000550353
-2.03231e-05
-0.00100196
-0.00177099
-3.84377e-05
2.56979e-05
-3.46141e-05
4.16043e-05
7.82939e-06
0.000172416
0.000108903
0.00027109
0.000224418
0.000375684
0.000354035
0.000412892
0.000470753
0.000424886
0.000571849
0.000405437
0.00065574
0.000367708
0.000722876
0.000320902
0.000773967
0.000274433
0.000813329
0.000227533
0.000841013
0.000186849
0.000860552
0.000148031
0.000870619
0.000115807
0.000873961
8.45265e-05
0.000868107
5.84028e-05
0.000855582
3.20194e-05
0.000833249
8.98791e-06
0.000803394
-1.4766e-05
0.000762448
-3.70533e-05
0.000712024
-5.92583e-05
0.000648604
-8.40627e-05
0.000573422
-0.000107306
0.00048428
-0.000144356
0.000383584
-0.000181186
0.000272632
-0.000276256
0.000158685
-0.000436405
5.00415e-05
-0.000893315
-0.00172094
-0.00014219
0.000167888
-0.000137773
3.71871e-05
-9.99913e-05
0.000134635
3.38272e-06
0.000167716
0.000133119
0.000245948
0.000286713
0.000259298
0.000425914
0.000285686
0.000559118
0.000272233
0.000669148
0.000257678
0.000761979
0.00022807
0.000834179
0.000202233
0.000891772
0.000169941
0.000933015
0.000145606
0.000963277
0.000117769
0.000980688
9.83963e-05
0.000989592
7.56232e-05
0.000987326
6.06681e-05
0.000977622
4.17231e-05
0.000957168
2.94421e-05
0.000928956
1.34463e-05
0.000890546
1.35664e-06
0.000843348
-1.20604e-05
0.000784167
-2.48817e-05
0.000715864
-3.90026e-05
0.000631649
-6.01404e-05
0.00054163
-9.11676e-05
0.000430803
-0.000165429
0.000335251
-0.000340853
0.000197824
-0.000755888
-0.00152312
-0.000117135
0.000285023
-0.000214346
0.000134398
-0.000199971
0.00012026
-0.000129253
9.6998e-05
1.51513e-05
0.000101543
0.000167322
0.000107127
0.000335285
0.000117722
0.000486431
0.000121087
0.000623054
0.000121055
0.000738961
0.000112164
0.000836223
0.000104971
0.000914618
9.15463e-05
0.000977318
8.29058e-05
0.0010258
6.92815e-05
0.00106183
6.23701e-05
0.00108757
4.98858e-05
0.00110296
4.52727e-05
0.001111
3.36878e-05
0.00110923
3.12112e-05
0.00110283
1.98512e-05
0.00108486
1.9318e-05
0.0010654
7.40525e-06
0.00103205
8.46678e-06
0.000999939
-6.89241e-06
0.000945242
-5.4427e-06
0.000888613
-3.45393e-05
0.000782243
-5.9059e-05
0.000654027
-0.000212636
0.000406285
-0.000508146
-0.00111684
0.000285023
0.000419421
0.000539681
0.000636679
0.000738223
0.00084535
0.000963072
0.00108416
0.00120521
0.00131738
0.00142235
0.0015139
0.0015968
0.00166608
0.00172845
0.00177834
0.00182361
0.0018573
0.00188851
0.00190836
0.00192768
0.00193508
0.00194355
0.00193666
0.00193122
0.00189668
0.00183762
0.00162498
0.00111684
)
;

boundaryField
{
    movingWall
    {
        type            calculated;
        value           uniform 0;
    }
    fixedWalls
    {
        type            calculated;
        value           uniform 0;
    }
    frontAndBack
    {
        type            empty;
    }
}


// ************************************************************************* //
