/*--------------------------------*- C++ -*----------------------------------*\
| =========                 |                                                 |
| \\      /  F ield         | OpenFOAM: The Open Source CFD Toolbox           |
|  \\    /   O peration     | Version:  2406                                  |
|   \\  /    A nd           | Website:  www.openfoam.com                      |
|    \\/     M anipulation  |                                                 |
\*---------------------------------------------------------------------------*/
FoamFile
{
    version     2.0;
    format      ascii;
    arch        "LSB;label=32;scalar=64";
    class       surfaceScalarField;
    location    "24.6";
    object      phi;
}
// * * * * * * * * * * * * * * * * * * * * * * * * * * * * * * * * * * * * * //

dimensions      [0 3 -1 0 0 0 0];

oriented        oriented;

internalField   nonuniform List<scalar> 
28560
(
6.97101e-09
-6.96848e-09
5.43083e-08
-4.73373e-08
1.43904e-07
-8.95959e-08
2.63289e-07
-1.19385e-07
4.00369e-07
-1.3708e-07
5.44954e-07
-1.44585e-07
6.89216e-07
-1.44263e-07
8.27457e-07
-1.3824e-07
9.55757e-07
-1.283e-07
1.07162e-06
-1.15862e-07
1.17365e-06
-1.02031e-07
1.26129e-06
-8.76378e-08
1.33458e-06
-7.32877e-08
1.39397e-06
-5.93955e-08
1.44019e-06
-4.62187e-08
1.47407e-06
-3.38819e-08
1.49654e-06
-2.24725e-08
1.50835e-06
-1.18069e-08
1.50976e-06
-1.41195e-09
1.50152e-06
8.2436e-09
1.48358e-06
1.79438e-08
1.45559e-06
2.79867e-08
1.41684e-06
3.87451e-08
1.36621e-06
5.06331e-08
1.30214e-06
6.40707e-08
1.22267e-06
7.94675e-08
1.12547e-06
9.72063e-08
1.00784e-06
1.1763e-07
8.66801e-07
1.41035e-07
6.99137e-07
1.67663e-07
5.01435e-07
1.97702e-07
2.70152e-07
2.31283e-07
1.67477e-09
2.68477e-07
-3.07622e-07
3.09297e-07
-6.61307e-07
3.53684e-07
-1.06281e-06
4.01503e-07
-1.51534e-06
4.5253e-07
-2.02178e-06
5.0644e-07
-2.58457e-06
5.62796e-07
-3.20562e-06
6.21043e-07
-3.88611e-06
6.80497e-07
-4.62646e-06
7.40346e-07
-5.42611e-06
7.99654e-07
-6.28348e-06
8.57369e-07
-7.19582e-06
9.12332e-07
-8.15911e-06
9.63299e-07
-9.16807e-06
1.00896e-06
-1.0216e-05
1.04796e-06
-1.1295e-05
1.07893e-06
-1.23955e-05
1.10053e-06
-1.35069e-05
1.11145e-06
-1.46174e-05
1.11046e-06
-1.57139e-05
1.09644e-06
-1.67823e-05
1.06841e-06
-1.78078e-05
1.02554e-06
-1.8775e-05
9.6719e-07
-1.96679e-05
8.92955e-07
-2.04706e-05
8.02655e-07
-2.1167e-05
6.96396e-07
-2.17416e-05
5.74591e-07
-2.21796e-05
4.37986e-07
-2.24679e-05
2.88311e-07
-2.25931e-05
1.25215e-07
-2.25423e-05
-5.08125e-08
-2.23105e-05
-2.31791e-07
-2.18903e-05
-4.20187e-07
-2.12784e-05
-6.11938e-07
-2.04745e-05
-8.03825e-07
-1.94822e-05
-9.92367e-07
-1.83083e-05
-1.17388e-06
-1.69638e-05
-1.34454e-06
-1.54633e-05
-1.50047e-06
-1.38254e-05
-1.6379e-06
-1.20721e-05
-1.75325e-06
-1.02288e-05
-1.8433e-06
-8.3235e-06
-1.90534e-06
-6.38617e-06
-1.93733e-06
-4.44817e-06
-1.938e-06
-2.54123e-06
-1.90695e-06
-6.96474e-07
-1.84475e-06
1.05649e-06
-1.75297e-06
2.6906e-06
-1.6341e-06
4.18215e-06
-1.49156e-06
5.51162e-06
-1.32947e-06
6.6642e-06
-1.15258e-06
7.6302e-06
-9.65998e-07
8.40518e-06
-7.74977e-07
8.98987e-06
-5.8469e-07
9.38987e-06
-4.00001e-07
9.61515e-06
-2.25279e-07
9.68013e-06
-6.49835e-08
9.59911e-06
8.10197e-08
9.39108e-06
2.08038e-07
9.07688e-06
3.14194e-07
8.67595e-06
4.00927e-07
8.20756e-06
4.68389e-07
7.69015e-06
5.17418e-07
7.14064e-06
5.4951e-07
6.57412e-06
5.66515e-07
6.00362e-06
5.70502e-07
5.43999e-06
5.63629e-07
4.89196e-06
5.48032e-07
4.36621e-06
5.2575e-07
3.86755e-06
4.98663e-07
3.39909e-06
4.68458e-07
2.96248e-06
4.36605e-07
2.55813e-06
4.04351e-07
2.18543e-06
3.72706e-07
1.843e-06
3.42427e-07
1.52902e-06
3.13975e-07
1.24156e-06
2.87467e-07
9.78968e-07
2.62589e-07
7.4045e-07
2.38518e-07
5.26604e-07
2.13847e-07
3.40022e-07
1.86582e-07
1.85679e-07
1.54343e-07
7.0735e-08
1.14944e-07
2.83779e-09
6.78972e-08
-1.46901e-08
1.75279e-08
-1.46901e-08
4.67976e-08
-5.3766e-08
1.90476e-07
-1.91016e-07
4.19308e-07
-3.18428e-07
7.097e-07
-4.09777e-07
1.03743e-06
-4.64805e-07
1.38123e-06
-4.8839e-07
1.72386e-06
-4.86894e-07
2.05211e-06
-4.66493e-07
2.3564e-06
-4.3259e-07
2.63018e-06
-3.8964e-07
2.86933e-06
-3.41181e-07
3.07162e-06
-2.89922e-07
3.23618e-06
-2.37851e-07
3.36312e-06
-1.86338e-07
3.45314e-06
-1.36234e-07
3.5072e-06
-8.79405e-08
3.5262e-06
-4.14759e-08
3.51108e-06
3.30931e-09
3.46218e-06
4.74904e-08
3.37901e-06
9.14108e-08
3.26061e-06
1.36346e-07
3.10504e-06
1.83557e-07
2.90938e-06
2.34409e-07
2.66966e-06
2.90345e-07
2.38092e-06
3.52817e-07
2.03716e-06
4.23226e-07
1.6315e-06
5.02865e-07
1.15626e-06
5.92866e-07
6.03131e-07
6.94169e-07
-3.66916e-08
8.07486e-07
-7.72278e-07
9.33288e-07
-1.61278e-06
1.07179e-06
-2.56723e-06
1.22293e-06
-3.64428e-06
1.38634e-06
-4.85196e-06
1.56137e-06
-6.19742e-06
1.74697e-06
-7.68663e-06
1.94173e-06
-9.32404e-06
2.14385e-06
-1.11123e-05
2.35104e-06
-1.30519e-05
2.56063e-06
-1.51408e-05
2.76947e-06
-1.73745e-05
2.97403e-06
-1.97453e-05
3.17041e-06
-2.22424e-05
3.35442e-06
-2.48517e-05
3.52166e-06
-2.7556e-05
3.6676e-06
-3.03347e-05
3.78771e-06
-3.31644e-05
3.87758e-06
-3.60184e-05
3.93298e-06
-3.88679e-05
3.95002e-06
-4.16817e-05
3.92523e-06
-4.44269e-05
3.85565e-06
-4.70693e-05
3.73892e-06
-4.95742e-05
3.57331e-06
-5.19065e-05
3.35781e-06
-5.40315e-05
3.09213e-06
-5.59153e-05
2.77676e-06
-5.75256e-05
2.41298e-06
-5.8832e-05
2.00284e-06
-5.98067e-05
1.54928e-06
-6.04248e-05
1.05606e-06
-6.0664e-05
5.27554e-07
-6.05104e-05
-2.83666e-08
-5.99477e-05
-6.13546e-07
-5.89675e-05
-1.212e-06
-5.75681e-05
-1.81956e-06
-5.57521e-05
-2.42792e-06
-5.35281e-05
-3.0279e-06
-5.09105e-05
-3.60992e-06
-4.79203e-05
-4.16406e-06
-4.45846e-05
-4.68022e-06
-4.09368e-05
-5.14835e-06
-3.7016e-05
-5.55872e-06
-3.2867e-05
-5.90218e-06
-2.85398e-05
-6.17056e-06
-2.40882e-05
-6.35689e-06
-1.95697e-05
-6.45582e-06
-1.50438e-05
-6.46388e-06
-1.0571e-05
-6.37973e-06
-6.21141e-06
-6.20439e-06
-2.02309e-06
-5.94129e-06
1.93914e-06
-5.59633e-06
5.62536e-06
-5.17778e-06
8.99188e-06
-4.69598e-06
1.20024e-05
-4.16312e-06
1.46291e-05
-3.59272e-06
1.68533e-05
-2.99917e-06
1.86658e-05
-2.39714e-06
2.00668e-05
-1.801e-06
2.10658e-05
-1.22434e-06
2.16801e-05
-6.79266e-07
2.19362e-05
-1.75104e-07
2.18664e-05
2.77867e-07
2.1506e-05
6.74624e-07
2.08948e-05
1.01213e-06
2.00742e-05
1.28894e-06
1.90857e-05
1.50591e-06
1.79694e-05
1.66583e-06
1.6763e-05
1.77296e-06
1.55007e-05
1.83273e-06
1.42131e-05
1.85128e-06
1.2926e-05
1.83512e-06
1.1661e-05
1.79081e-06
1.04349e-05
1.72469e-06
9.26068e-06
1.64271e-06
8.14706e-06
1.55022e-06
7.09949e-06
1.45192e-06
6.12047e-06
1.35173e-06
5.2102e-06
1.2527e-06
4.36734e-06
1.15684e-06
3.58984e-06
1.06497e-06
2.87596e-06
9.76465e-07
2.22541e-06
8.89067e-07
1.6405e-06
7.98754e-07
1.1272e-06
6.99885e-07
6.95589e-07
5.85954e-07
3.59146e-07
4.51388e-07
1.31578e-07
2.95465e-07
1.97627e-08
1.29343e-07
5.07261e-09
8.8379e-08
-1.42145e-07
3.16397e-07
-4.19033e-07
6.51215e-07
-6.53246e-07
1.06148e-06
-8.20045e-07
1.51695e-06
-9.20271e-07
1.99073e-06
-9.6217e-07
2.46041e-06
-9.56576e-07
2.90826e-06
-9.14344e-07
3.3209e-06
-8.4523e-07
3.68871e-06
-7.57452e-07
4.00517e-06
-6.57632e-07
4.26614e-06
-5.50892e-07
4.46929e-06
-4.41008e-07
4.61354e-06
-3.30588e-07
4.69854e-06
-2.21229e-07
4.72427e-06
-1.13672e-07
4.69057e-06
-7.7752e-09
4.59707e-06
9.68116e-08
4.44278e-06
2.01772e-07
4.22552e-06
3.08674e-07
3.94212e-06
4.1975e-07
3.5881e-06
5.37579e-07
3.15754e-06
6.64961e-07
2.64307e-06
8.04817e-07
2.03583e-06
9.60058e-07
1.32561e-06
1.13345e-06
5.00971e-07
1.3275e-06
-4.50481e-07
1.54432e-06
-1.54187e-06
1.78556e-06
-2.78669e-06
2.05231e-06
-4.19848e-06
2.34508e-06
-5.79039e-06
2.6637e-06
-7.5748e-06
3.00734e-06
-9.56284e-06
3.37438e-06
-1.17639e-05
3.76244e-06
-1.41852e-05
4.16827e-06
-1.68312e-05
4.58774e-06
-1.97032e-05
5.01577e-06
-2.27985e-05
5.44642e-06
-2.61107e-05
5.87285e-06
-2.96287e-05
6.28745e-06
-3.33367e-05
6.68197e-06
-3.72139e-05
7.04769e-06
-4.12351e-05
7.37562e-06
-4.53702e-05
7.65673e-06
-4.95848e-05
7.88222e-06
-5.38409e-05
8.04376e-06
-5.8097e-05
8.13368e-06
-6.23093e-05
8.14526e-06
-6.64321e-05
8.07283e-06
-7.04188e-05
7.91195e-06
-7.42226e-05
7.6595e-06
-7.77974e-05
7.31372e-06
-8.10983e-05
6.87423e-06
-8.40826e-05
6.34202e-06
-8.67098e-05
5.71941e-06
-8.89431e-05
5.01001e-06
-9.07488e-05
4.21868e-06
-9.20974e-05
3.35143e-06
-9.29635e-05
2.41542e-06
-9.33264e-05
1.41893e-06
-9.31698e-05
3.71004e-07
-9.24815e-05
-7.16701e-07
-9.12595e-05
-1.83557e-06
-8.95001e-05
-2.97135e-06
-8.72089e-05
-4.11074e-06
-8.43969e-05
-5.23999e-06
-8.10805e-05
-6.34425e-06
-7.72824e-05
-7.40802e-06
-7.30311e-05
-8.41537e-06
-6.83612e-05
-9.35017e-06
-6.33131e-05
-1.01965e-05
-5.79331e-05
-1.09387e-05
-5.2273e-05
-1.15623e-05
-4.63896e-05
-1.2054e-05
-4.0344e-05
-1.24024e-05
-3.42013e-05
-1.25985e-05
-2.80291e-05
-1.26361e-05
-2.18968e-05
-1.25121e-05
-1.58741e-05
-1.22271e-05
-1.00299e-05
-1.17855e-05
-4.43053e-06
-1.11957e-05
8.61343e-07
-1.04696e-05
5.78858e-06
-9.62322e-06
1.03008e-05
-8.67531e-06
1.43556e-05
-7.64752e-06
1.79198e-05
-6.56339e-06
2.09702e-05
-5.4476e-06
2.34944e-05
-4.32512e-06
2.54903e-05
-3.22024e-06
2.69667e-05
-2.15567e-06
2.79434e-05
-1.15189e-06
2.84488e-05
-2.27476e-07
2.85182e-05
6.05188e-07
2.81951e-05
1.33523e-06
2.75275e-05
1.95656e-06
2.65663e-05
2.46714e-06
2.53635e-05
2.86856e-06
2.39708e-05
3.16566e-06
2.24375e-05
3.36603e-06
2.08095e-05
3.47932e-06
1.9128e-05
3.51659e-06
1.74292e-05
3.48967e-06
1.57433e-05
3.41057e-06
1.4095e-05
3.29097e-06
1.25034e-05
3.14184e-06
1.09823e-05
2.97306e-06
9.54086e-06
2.79314e-06
8.18464e-06
2.60892e-06
6.91624e-06
2.42524e-06
5.73666e-06
2.24455e-06
4.64661e-06
2.06652e-06
3.64795e-06
1.88773e-06
2.74515e-06
1.70155e-06
1.94644e-06
1.49859e-06
1.26433e-06
1.26807e-06
7.14817e-07
1.0009e-06
3.1468e-07
6.95602e-07
7.62964e-08
3.67726e-07
8.1369e-08
1.18131e-07
-2.60276e-07
4.08274e-07
-7.09176e-07
8.1955e-07
-1.06452e-06
1.31162e-06
-1.31212e-06
1.84917e-06
-1.45782e-06
2.40178e-06
-1.51478e-06
2.94413e-06
-1.49893e-06
3.45592e-06
-1.42613e-06
3.9214e-06
-1.31072e-06
4.32884e-06
-1.16489e-06
4.66973e-06
-9.98528e-07
4.93816e-06
-8.19317e-07
5.13006e-06
-6.32911e-07
5.24266e-06
-4.4319e-07
5.27392e-06
-2.52482e-07
5.22201e-06
-6.17613e-08
5.08503e-06
1.29202e-07
4.86024e-06
3.21604e-07
4.54429e-06
5.17717e-07
4.13245e-06
7.2052e-07
3.6185e-06
9.33697e-07
2.99461e-06
1.16147e-06
2.25115e-06
1.40841e-06
1.37674e-06
1.67923e-06
3.58256e-07
1.97854e-06
-8.18927e-07
2.31063e-06
-2.17068e-06
2.67925e-06
-3.71373e-06
3.08737e-06
-5.46522e-06
3.53705e-06
-7.44217e-06
4.02925e-06
-9.66087e-06
4.56378e-06
-1.21363e-05
5.13913e-06
-1.48814e-05
5.75242e-06
-1.79063e-05
6.39934e-06
-2.1218e-05
7.07406e-06
-2.48189e-05
7.7692e-06
-2.8707e-05
8.47582e-06
-3.28747e-05
9.18349e-06
-3.73087e-05
9.88042e-06
-4.19895e-05
1.05536e-05
-4.68913e-05
1.11893e-05
-5.19824e-05
1.17731e-05
-5.72251e-05
1.22904e-05
-6.25765e-05
1.2727e-05
-6.79893e-05
1.30696e-05
-7.34127e-05
1.33057e-05
-7.87935e-05
1.34245e-05
-8.4077e-05
1.34171e-05
-8.92083e-05
1.32765e-05
-9.41332e-05
1.29978e-05
-9.87996e-05
1.25783e-05
-0.000103158
1.20175e-05
-0.000107161
1.13168e-05
-0.000110766
1.04797e-05
-0.000113935
9.51121e-06
-0.000116634
8.41809e-06
-0.000118832
7.2084e-06
-0.000120505
5.89149e-06
-0.000121632
4.47786e-06
-0.000122195
2.97909e-06
-0.000122184
1.40775e-06
-0.000121591
-2.22496e-07
-0.00012041
-1.89716e-06
-0.000118645
-3.60074e-06
-0.0001163
-5.31647e-06
-0.000113384
-7.02665e-06
-0.000109911
-8.71259e-06
-0.000105901
-1.03548e-05
-0.000101376
-1.19328e-05
-9.63655e-05
-1.34258e-05
-9.09034e-05
-1.48123e-05
-8.50288e-05
-1.6071e-05
-7.87864e-05
-1.71811e-05
-7.22262e-05
-1.81226e-05
-6.5403e-05
-1.88772e-05
-5.83767e-05
-1.94287e-05
-5.12115e-05
-1.97638e-05
-4.39747e-05
-1.98728e-05
-3.67367e-05
-1.975e-05
-2.95694e-05
-1.93945e-05
-2.25448e-05
-1.88101e-05
-1.57342e-05
-1.80062e-05
-9.20644e-06
-1.69974e-05
-3.02653e-06
-1.58031e-05
2.74585e-06
-1.44477e-05
8.05765e-06
-1.29593e-05
1.28638e-05
-1.13695e-05
1.7128e-05
-9.71187e-06
2.08242e-05
-8.02131e-06
2.39366e-05
-6.33264e-06
2.64605e-05
-4.67956e-06
2.84022e-05
-3.09357e-06
2.97777e-05
-1.60301e-06
3.06144e-05
-2.31529e-07
3.09481e-05
1.00156e-06
3.08222e-05
2.08245e-06
3.02865e-05
3.00289e-06
2.93949e-05
3.76012e-06
2.8204e-05
4.3566e-06
2.67706e-05
4.79944e-06
2.51502e-05
5.09966e-06
2.33955e-05
5.27133e-06
2.15545e-05
5.33063e-06
1.96701e-05
5.29496e-06
1.77791e-05
5.18203e-06
1.59118e-05
5.00907e-06
1.40927e-05
4.79221e-06
1.23401e-05
4.54574e-06
1.06674e-05
4.2816e-06
9.08394e-06
4.0087e-06
7.59616e-06
3.73232e-06
6.2092e-06
3.45347e-06
4.92849e-06
3.16844e-06
3.76129e-06
2.86875e-06
2.71811e-06
2.54177e-06
1.81352e-06
2.17265e-06
1.06621e-06
1.74821e-06
4.98128e-07
1.26369e-06
1.33333e-07
7.32521e-07
2.14702e-07
1.37203e-07
-3.97479e-07
4.67807e-07
-1.03978e-06
9.28147e-07
-1.52486e-06
1.46959e-06
-1.85356e-06
2.05209e-06
-2.04031e-06
2.64244e-06
-2.10513e-06
3.21346e-06
-2.06995e-06
3.7433e-06
-1.95597e-06
4.21478e-06
-1.7822e-06
4.61466e-06
-1.56477e-06
4.93288e-06
-1.31674e-06
5.16178e-06
-1.04822e-06
5.29547e-06
-7.66602e-07
5.32917e-06
-4.76889e-07
5.25864e-06
-1.81959e-07
5.07971e-06
1.17169e-07
4.78779e-06
4.21122e-07
4.3774e-06
7.31995e-07
3.84192e-06
1.0532e-06
3.17317e-06
1.38927e-06
2.36119e-06
1.74568e-06
1.39408e-06
2.12858e-06
2.57941e-07
2.54455e-06
-1.06305e-06
3.00022e-06
-2.58646e-06
3.50195e-06
-4.33124e-06
4.05542e-06
-6.31726e-06
4.66527e-06
-8.56469e-06
5.3348e-06
-1.10933e-05
6.06568e-06
-1.39217e-05
6.85768e-06
-1.70665e-05
7.70855e-06
-2.05412e-05
8.61381e-06
-2.43555e-05
9.56671e-06
-2.85142e-05
1.05581e-05
-3.30166e-05
1.15764e-05
-3.78553e-05
1.26079e-05
-4.3016e-05
1.36365e-05
-4.8477e-05
1.46444e-05
-5.42088e-05
1.56122e-05
-6.01748e-05
1.65196e-05
-6.63313e-05
1.73458e-05
-7.26287e-05
1.80705e-05
-7.90124e-05
1.86741e-05
-8.54242e-05
1.91388e-05
-9.18036e-05
1.94489e-05
-9.80893e-05
1.95914e-05
-0.000104221
1.9556e-05
-0.000110139
1.93358e-05
-0.00011579
1.89267e-05
-0.00012112
1.83278e-05
-0.000126082
1.7541e-05
-0.000130635
1.65705e-05
-0.000134741
1.54227e-05
-0.000138368
1.41061e-05
-0.000141487
1.26304e-05
-0.000144076
1.10069e-05
-0.000146115
9.24767e-06
-0.000147589
7.36588e-06
-0.000148487
5.37549e-06
-0.000148799
3.2912e-06
-0.00014852
1.12855e-06
-0.000147646
-1.09607e-06
-0.000146178
-3.36544e-06
-0.000144117
-5.66123e-06
-0.00014147
-7.96382e-06
-0.000138244
-1.02525e-05
-0.000134451
-1.25054e-05
-0.000130107
-1.46993e-05
-0.00012523
-1.68097e-05
-0.000119845
-1.88113e-05
-0.000113979
-2.0678e-05
-0.000107667
-2.23833e-05
-0.000100947
-2.39011e-05
-9.38636e-05
-2.52057e-05
-8.64674e-05
-2.62733e-05
-7.88139e-05
-2.70822e-05
-7.09638e-05
-2.7614e-05
-6.29824e-05
-2.78542e-05
-5.49391e-05
-2.77934e-05
-4.69059e-05
-2.74276e-05
-3.89568e-05
-2.67592e-05
-3.1166e-05
-2.5797e-05
-2.36068e-05
-2.45566e-05
-1.63498e-05
-2.30601e-05
-9.46193e-06
-2.13356e-05
-3.00436e-06
-1.94169e-05
2.96831e-06
-1.73422e-05
8.40942e-06
-1.5153e-05
1.32812e-05
-1.28931e-05
1.75555e-05
-1.06069e-05
2.12145e-05
-8.33856e-06
2.42509e-05
-6.12996e-06
2.66679e-05
-4.02004e-06
2.84797e-05
-2.04331e-06
2.97103e-05
-2.29034e-07
3.03931e-05
1.39966e-06
3.05698e-05
2.82617e-06
3.02891e-05
4.04083e-06
2.96049e-05
5.04083e-06
2.85745e-05
5.82983e-06
2.72567e-05
6.4174e-06
2.571e-05
6.81805e-06
2.39904e-05
7.05023e-06
2.21502e-05
7.13514e-06
2.02367e-05
7.09556e-06
1.82912e-05
6.9546e-06
1.63487e-05
6.7347e-06
1.44379e-05
6.45648e-06
1.25818e-05
6.13778e-06
1.07978e-05
5.79262e-06
9.09994e-06
5.43023e-06
7.49927e-06
5.05414e-06
6.00617e-06
4.66154e-06
4.63183e-06
4.2431e-06
3.38988e-06
3.78372e-06
2.29789e-06
3.26464e-06
1.37856e-06
2.66753e-06
6.61126e-07
1.98112e-06
1.8355e-07
1.2101e-06
3.98251e-07
1.47824e-07
-5.45303e-07
5.00532e-07
-1.39249e-06
9.8585e-07
-2.01018e-06
1.54851e-06
-2.41622e-06
2.14436e-06
-2.63616e-06
2.73784e-06
-2.69862e-06
3.3004e-06
-2.6325e-06
3.80916e-06
-2.46473e-06
4.24601e-06
-2.21905e-06
4.59658e-06
-1.91534e-06
4.84943e-06
-1.56958e-06
4.99524e-06
-1.19403e-06
5.02614e-06
-7.97504e-07
4.93508e-06
-3.85828e-07
4.71525e-06
3.78716e-08
4.35958e-06
4.72836e-07
3.86028e-06
9.20424e-07
3.20839e-06
1.38388e-06
2.39344e-06
1.86815e-06
1.40314e-06
2.37958e-06
2.2314e-07
2.92567e-06
-1.16301e-06
3.51473e-06
-2.77384e-06
4.15538e-06
-4.62972e-06
4.8561e-06
-6.75246e-06
5.62469e-06
-9.16472e-06
6.46768e-06
-1.18893e-05
7.38983e-06
-1.49481e-05
8.39364e-06
-1.83614e-05
9.47896e-06
-2.21464e-05
1.06427e-05
-2.63162e-05
1.18784e-05
-3.08789e-05
1.31765e-05
-3.58359e-05
1.45237e-05
-4.11816e-05
1.59038e-05
-4.69022e-05
1.7297e-05
-5.29751e-05
1.86808e-05
-5.9369e-05
2.00304e-05
-6.60439e-05
2.13194e-05
-7.29519e-05
2.25203e-05
-8.00382e-05
2.36059e-05
-8.72423e-05
2.45499e-05
-9.44999e-05
2.53281e-05
-0.000101745
2.59189e-05
-0.00010891
2.63044e-05
-0.000115932
2.64704e-05
-0.000122747
2.64069e-05
-0.0001293
2.61081e-05
-0.000135536
2.55721e-05
-0.00014141
2.48006e-05
-0.00014688
2.37984e-05
-0.000151913
2.25732e-05
-0.000156477
2.11347e-05
-0.000160548
1.94941e-05
-0.000164106
1.76642e-05
-0.000167135
1.56586e-05
-0.000169619
1.34916e-05
-0.000171549
1.11779e-05
-0.000172916
8.7328e-06
-0.000173713
6.17203e-06
-0.000173933
3.51178e-06
-0.000173574
7.68937e-07
-0.000172631
-2.03894e-06
-0.000171103
-4.89316e-06
-0.000168991
-7.77395e-06
-0.000166294
-1.06601e-05
-0.000163018
-1.35287e-05
-0.000159168
-1.63556e-05
-0.000154753
-1.91144e-05
-0.000149785
-2.17774e-05
-0.000144281
-2.43152e-05
-0.000138262
-2.66971e-05
-0.000131754
-2.88914e-05
-0.000124789
-3.08663e-05
-0.000117404
-3.25903e-05
-0.000109644
-3.4033e-05
-0.00010156
-3.51664e-05
-9.32084e-05
-3.59656e-05
-8.46521e-05
-3.64105e-05
-7.59594e-05
-3.64861e-05
-6.72029e-05
-3.61841e-05
-5.84585e-05
-3.55036e-05
-4.98039e-05
-3.44517e-05
-4.13171e-05
-3.30435e-05
-3.30746e-05
-3.13025e-05
-2.51502e-05
-2.926e-05
-1.76129e-05
-2.69542e-05
-1.05255e-05
-2.44295e-05
-3.9439e-06
-2.17346e-05
2.08472e-06
-1.89217e-05
7.5221e-06
-1.60443e-05
1.23397e-05
-1.31562e-05
1.65192e-05
-1.03094e-05
2.00521e-05
-7.55299e-06
2.29406e-05
-4.93185e-06
2.51969e-05
-2.48533e-06
2.6843e-05
-2.46397e-07
2.791e-05
1.75921e-06
2.84374e-05
3.51342e-06
2.8472e-05
5.00621e-06
2.80663e-05
6.23547e-06
2.72771e-05
7.20664e-06
2.61632e-05
7.93199e-06
2.47837e-05
8.42964e-06
2.31966e-05
8.7223e-06
2.14563e-05
8.8359e-06
1.96128e-05
8.7981e-06
1.77107e-05
8.6368e-06
1.57885e-05
8.37865e-06
1.38787e-05
8.04754e-06
1.20082e-05
7.66313e-06
1.0199e-05
7.23946e-06
8.46954e-06
6.78359e-06
6.83637e-06
6.29471e-06
5.31577e-06
5.76369e-06
3.9258e-06
5.17369e-06
2.68831e-06
4.50213e-06
1.63144e-06
3.7244e-06
7.92729e-07
2.81984e-06
2.23686e-07
1.77914e-06
6.21937e-07
1.52204e-07
-6.97507e-07
5.12094e-07
-1.75238e-06
1.00171e-06
-2.49979e-06
1.5609e-06
-2.97541e-06
2.1423e-06
-3.21756e-06
2.70852e-06
-3.26484e-06
3.22992e-06
-3.15391e-06
3.68297e-06
-2.91778e-06
4.0488e-06
-2.58488e-06
4.31209e-06
-2.17863e-06
4.46007e-06
-1.71756e-06
4.4817e-06
-1.21565e-06
4.36696e-06
-6.82761e-07
4.10623e-06
-1.25098e-07
3.68975e-06
4.5435e-07
3.10712e-06
1.05547e-06
2.34683e-06
1.68071e-06
1.39589e-06
2.33483e-06
2.39455e-07
3.02459e-06
-1.1394e-06
3.75843e-06
-2.75977e-06
4.54605e-06
-4.64291e-06
5.39787e-06
-6.81193e-06
6.3244e-06
-9.29136e-06
7.33554e-06
-1.21064e-05
8.43977e-06
-1.52822e-05
9.64344e-06
-1.88423e-05
1.095e-05
-2.2808e-05
1.23593e-05
-2.71964e-05
1.38674e-05
-3.20195e-05
1.54657e-05
-3.72824e-05
1.71413e-05
-4.29824e-05
1.88765e-05
-4.91078e-05
2.06492e-05
-5.56372e-05
2.24332e-05
-6.25391e-05
2.41989e-05
-6.97721e-05
2.59138e-05
-7.72857e-05
2.7544e-05
-8.50212e-05
2.90549e-05
-9.29136e-05
3.04127e-05
-0.000100894
3.15861e-05
-0.00010889
3.25465e-05
-0.000116832
3.32699e-05
-0.00012465
3.37371e-05
-0.00013228
3.39342e-05
-0.000139662
3.38524e-05
-0.000146743
3.34882e-05
-0.000153478
3.28423e-05
-0.000159825
3.19198e-05
-0.000165753
3.07287e-05
-0.000171235
2.92799e-05
-0.000176248
2.7586e-05
-0.000180774
2.5661e-05
-0.0001848
2.35198e-05
-0.000188313
2.11778e-05
-0.000191305
1.86506e-05
-0.000193768
1.59539e-05
-0.000195693
1.31035e-05
-0.000197076
1.01153e-05
-0.000197909
7.0054e-06
-0.000198188
3.79026e-06
-0.000197906
4.86987e-07
-0.000197058
-2.88667e-06
-0.00019564
-6.31154e-06
-0.000193646
-9.76724e-06
-0.000191075
-1.32317e-05
-0.000187923
-1.66807e-05
-0.00018419
-2.00883e-05
-0.000179878
-2.3426e-05
-0.000174993
-2.6663e-05
-0.000169542
-2.97664e-05
-0.000163538
-3.27011e-05
-0.000156998
-3.54306e-05
-0.000149947
-3.79172e-05
-0.000142415
-4.01229e-05
-0.000134437
-4.20104e-05
-0.000126059
-4.35443e-05
-0.000117333
-4.46922e-05
-0.000108317
-4.54262e-05
-9.90788e-05
-4.57245e-05
-8.96905e-05
-4.55724e-05
-8.02302e-05
-4.49639e-05
-7.07798e-05
-4.39021e-05
-6.1423e-05
-4.24003e-05
-5.22435e-05
-4.04819e-05
-4.33235e-05
-3.81801e-05
-3.47408e-05
-3.55369e-05
-2.65679e-05
-3.26024e-05
-1.887e-05
-2.94326e-05
-1.17037e-05
-2.6088e-05
-5.11636e-06
-2.26317e-05
8.54451e-07
-1.9127e-05
6.18133e-06
-1.56363e-05
1.0847e-05
-1.22187e-05
1.48442e-05
-8.92906e-06
1.81756e-05
-5.81669e-06
2.08532e-05
-2.92405e-06
2.28985e-05
-2.86097e-07
2.43415e-05
2.07042e-06
2.52203e-05
4.12744e-06
2.558e-05
5.87575e-06
2.54717e-05
7.31491e-06
2.49509e-05
8.45279e-06
2.40758e-05
9.30478e-06
2.29054e-05
9.89271e-06
2.14979e-05
1.02434e-05
1.99089e-05
1.03871e-05
1.81902e-05
1.03556e-05
1.63883e-05
1.01805e-05
1.45446e-05
9.89127e-06
1.26946e-05
9.5131e-06
1.08689e-05
9.06513e-06
9.09389e-06
8.55864e-06
7.39299e-06
7.99562e-06
5.78871e-06
7.36797e-06
4.30468e-06
6.65772e-06
2.96828e-06
5.83853e-06
1.81395e-06
4.87874e-06
8.8757e-07
3.74622e-06
2.52349e-07
2.41436e-06
8.74287e-07
1.51895e-07
-8.49401e-07
5.06756e-07
-2.10724e-06
9.82782e-07
-2.97582e-06
1.5165e-06
-3.50913e-06
2.05833e-06
-3.75939e-06
2.56961e-06
-3.77613e-06
3.02006e-06
-3.60435e-06
3.38563e-06
-3.28335e-06
3.64684e-06
-2.84609e-06
3.78741e-06
-2.3192e-06
3.79316e-06
-1.72331e-06
3.65115e-06
-1.07365e-06
3.34897e-06
-3.80582e-07
2.87413e-06
3.49745e-07
2.21353e-06
1.11495e-06
1.35301e-06
1.91598e-06
2.76934e-07
2.75679e-06
-1.0322e-06
3.64396e-06
-2.59396e-06
4.58635e-06
-4.43016e-06
5.59463e-06
-6.56475e-06
6.68064e-06
-9.02354e-06
7.85666e-06
-1.18337e-05
9.13454e-06
-1.50228e-05
1.05246e-05
-1.86179e-05
1.20349e-05
-2.2644e-05
1.36696e-05
-2.7123e-05
1.54289e-05
-3.20713e-05
1.73076e-05
-3.74989e-05
1.9295e-05
-4.34076e-05
2.13744e-05
-4.97895e-05
2.35232e-05
-5.66263e-05
2.57133e-05
-6.38884e-05
2.79112e-05
-7.1535e-05
3.00798e-05
-7.95147e-05
3.21786e-05
-8.77668e-05
3.4166e-05
-9.62232e-05
3.60004e-05
-0.000104811
3.76422e-05
-0.000113453
3.9055e-05
-0.000122074
4.02075e-05
-0.000130602
4.10739e-05
-0.000138967
4.1635e-05
-0.000147107
4.18777e-05
-0.000154969
4.17955e-05
-0.000162504
4.13876e-05
-0.000169673
4.06578e-05
-0.000176446
3.96145e-05
-0.000182795
3.82688e-05
-0.0001887
3.66344e-05
-0.000194147
3.47265e-05
-0.000199122
3.25614e-05
-0.000203617
3.01555e-05
-0.000207623
2.75257e-05
-0.000211133
2.46884e-05
-0.000214143
2.16602e-05
-0.000216646
1.84569e-05
-0.000218637
1.50944e-05
-0.00022011
1.15883e-05
-0.000221059
7.95449e-06
-0.000221477
4.20897e-06
-0.000221359
3.68451e-07
-0.000220696
-3.54971e-06
-0.000219481
-7.52662e-06
-0.000217706
-1.1542e-05
-0.000215364
-1.55736e-05
-0.000212448
-1.9597e-05
-0.000208951
-2.35851e-05
-0.000204869
-2.75082e-05
-0.000200198
-3.13334e-05
-0.00019494
-3.50252e-05
-0.000189096
-3.85449e-05
-0.000182675
-4.18514e-05
-0.000175691
-4.49017e-05
-0.000168162
-4.76514e-05
-0.000160117
-5.00558e-05
-0.00015159
-5.20712e-05
-0.000142625
-5.36565e-05
-0.000133277
-5.47748e-05
-0.000123606
-5.53949e-05
-0.000113685
-5.54935e-05
-0.000103593
-5.50567e-05
-9.34134e-05
-5.40812e-05
-8.32379e-05
-5.25758e-05
-7.31585e-05
-5.05613e-05
-6.32675e-05
-4.80711e-05
-5.36546e-05
-4.51498e-05
-4.44044e-05
-4.18526e-05
-3.55943e-05
-3.82427e-05
-2.72927e-05
-3.43896e-05
-1.95577e-05
-3.03666e-05
-1.24365e-05
-2.62482e-05
-5.96503e-06
-2.21077e-05
-1.68224e-07
-1.80155e-05
4.9396e-06
-1.40369e-05
9.35417e-06
-1.02313e-05
1.30807e-05
-6.65056e-06
1.61333e-05
-3.33871e-06
1.85346e-05
-3.30877e-07
2.03151e-05
2.3469e-06
2.15128e-05
4.67806e-06
2.21722e-05
6.65554e-06
2.23434e-05
8.28161e-06
2.20809e-05
9.5673e-06
2.1442e-05
1.05316e-05
2.04852e-05
1.12001e-05
1.92687e-05
1.16036e-05
1.78483e-05
1.1776e-05
1.62766e-05
1.17522e-05
1.46019e-05
1.1566e-05
1.28673e-05
1.12476e-05
1.11114e-05
1.0821e-05
9.36822e-06
1.03018e-05
7.66865e-06
9.69519e-06
6.04202e-06
8.99461e-06
4.51834e-06
8.1814e-06
3.1313e-06
7.22558e-06
1.92197e-06
6.08807e-06
9.43855e-07
4.72433e-06
2.69191e-07
3.08903e-06
1.14348e-06
1.47817e-07
-9.97219e-07
4.87178e-07
-2.4466e-06
9.33633e-07
-3.42227e-06
1.42168e-06
-3.99718e-06
1.90055e-06
-4.23826e-06
2.33101e-06
-4.20659e-06
2.68249e-06
-3.95583e-06
2.93062e-06
-3.53149e-06
3.05535e-06
-2.97082e-06
3.03934e-06
-2.30318e-06
2.86682e-06
-1.55079e-06
2.5227e-06
-7.29523e-07
1.99185e-06
1.50266e-07
1.25856e-06
1.08303e-06
3.0605e-07
2.06746e-06
-8.83982e-07
3.10601e-06
-2.33166e-06
4.20447e-06
-4.05924e-06
5.37153e-06
-6.09118e-06
6.61829e-06
-8.4541e-06
7.95754e-06
-1.11764e-05
9.40296e-06
-1.42878e-05
1.0968e-05
-1.7818e-05
1.26648e-05
-2.17959e-05
1.45025e-05
-2.62477e-05
1.64867e-05
-3.11953e-05
1.86172e-05
-3.66544e-05
2.0888e-05
-4.26326e-05
2.32858e-05
-4.91276e-05
2.57901e-05
-5.61263e-05
2.8373e-05
-6.3603e-05
3.1e-05
-7.15201e-05
3.36303e-05
-7.98274e-05
3.62186e-05
-8.84642e-05
3.87166e-05
-9.73606e-05
4.10749e-05
-0.00010644
4.32454e-05
-0.000115622
4.51828e-05
-0.000124827
4.6847e-05
-0.000133976
4.82041e-05
-0.000142996
4.92277e-05
-0.000151821
4.98989e-05
-0.000160393
5.02066e-05
-0.000168662
5.01465e-05
-0.000176587
4.97207e-05
-0.000184136
4.89361e-05
-0.000191282
4.78041e-05
-0.000198006
4.63386e-05
-0.000204293
4.45558e-05
-0.000210132
4.24732e-05
-0.000215514
4.01088e-05
-0.000220433
3.74808e-05
-0.000224885
3.46073e-05
-0.000228865
3.15059e-05
-0.00023237
2.81935e-05
-0.000235397
2.46867e-05
-0.000237942
2.10015e-05
-0.000240001
1.71533e-05
-0.00024157
1.31573e-05
-0.000242644
9.02864e-06
-0.000243217
4.7826e-06
-0.000243284
4.34958e-07
-0.000242836
-3.99778e-06
-0.000241865
-8.49781e-06
-0.000240361
-1.30458e-05
-0.000238314
-1.76203e-05
-0.000235714
-2.21976e-05
-0.000232548
-2.67509e-05
-0.000228805
-3.12505e-05
-0.000224476
-3.56628e-05
-0.00021955
-3.99508e-05
-0.000214022
-4.40737e-05
-0.000207886
-4.7987e-05
-0.000201145
-5.1643e-05
-0.000193805
-5.49917e-05
-0.000185879
-5.79811e-05
-0.000177391
-6.05591e-05
-0.000168373
-6.2675e-05
-0.000158867
-6.4281e-05
-0.000148927
-6.53348e-05
-0.000138619
-6.58016e-05
-0.000128019
-6.56563e-05
-0.000117215
-6.48857e-05
-0.0001063
-6.34901e-05
-9.53771e-05
-6.14846e-05
-8.4549e-05
-5.88992e-05
-7.39201e-05
-5.57787e-05
-6.3591e-05
-5.21817e-05
-5.36557e-05
-4.81779e-05
-4.4199e-05
-4.38463e-05
-3.52943e-05
-3.92714e-05
-2.70018e-05
-3.45406e-05
-1.93689e-05
-2.97407e-05
-1.24291e-05
-2.49552e-05
-6.20394e-06
-2.02621e-05
-7.03015e-07
-1.57322e-05
4.07429e-06
-1.14279e-05
8.13789e-06
-7.40231e-06
1.15061e-05
-3.69904e-06
1.42046e-05
-3.51678e-07
1.62665e-05
2.61619e-06
1.7731e-05
5.19107e-06
1.86432e-05
7.36939e-06
1.90533e-05
9.1572e-06
1.90154e-05
1.05695e-05
1.85863e-05
1.16293e-05
1.78239e-05
1.23659e-05
1.67861e-05
1.28137e-05
1.55289e-05
1.30094e-05
1.41053e-05
1.29896e-05
1.25647e-05
1.27883e-05
1.09522e-05
1.24335e-05
9.3091e-06
1.19449e-05
7.6734e-06
1.13309e-05
6.08143e-06
1.05866e-05
4.56999e-06
9.69284e-06
3.17928e-06
8.61629e-06
1.95683e-06
7.31051e-06
9.62509e-07
5.71864e-06
2.74625e-07
3.77691e-06
1.4181e-06
1.40361e-07
-1.13758e-06
4.54583e-07
-2.76082e-06
8.56483e-07
-3.82417e-06
1.27969e-06
-4.42039e-06
1.67322e-06
-4.63179e-06
1.99798e-06
-4.53134e-06
2.22352e-06
-4.18137e-06
2.32537e-06
-3.63334e-06
2.28283e-06
-2.92828e-06
2.07734e-06
-2.0977e-06
1.69129e-06
-1.16474e-06
1.1071e-06
-1.45335e-07
3.06606e-07
9.50761e-07
-7.29483e-07
2.11912e-06
-2.02199e-06
3.35997e-06
-3.59359e-06
4.67762e-06
-5.46911e-06
6.07999e-06
-7.67558e-06
7.578e-06
-1.02422e-05
9.18486e-06
-1.31998e-05
1.09151e-05
-1.65803e-05
1.27835e-05
-2.04158e-05
1.48035e-05
-2.47365e-05
1.69855e-05
-2.95699e-05
1.93359e-05
-3.49376e-05
2.18544e-05
-4.08543e-05
2.4534e-05
-4.73251e-05
2.73587e-05
-5.43436e-05
3.03043e-05
-6.18911e-05
3.33375e-05
-6.99349e-05
3.64169e-05
-7.84293e-05
3.94943e-05
-8.73154e-05
4.25164e-05
-9.65237e-05
4.54269e-05
-0.000105976
4.81689e-05
-0.000115589
5.06878e-05
-0.000125277
5.29335e-05
-0.000134957
5.48624e-05
-0.000144549
5.64389e-05
-0.000153981
5.76362e-05
-0.000163189
5.84363e-05
-0.00017212
5.88299e-05
-0.000180729
5.88153e-05
-0.00018898
5.8397e-05
-0.000196844
5.7585e-05
-0.000204301
5.63929e-05
-0.000211334
5.48376e-05
-0.000217933
5.29374e-05
-0.000224089
5.07118e-05
-0.000229797
4.81811e-05
-0.000235053
4.5365e-05
-0.000239856
4.22832e-05
-0.000244203
3.89549e-05
-0.000248096
3.53982e-05
-0.000251533
3.16308e-05
-0.000254515
2.76691e-05
-0.000257043
2.35291e-05
-0.000259115
1.92258e-05
-0.000260732
1.47738e-05
-0.00026189
1.01874e-05
-0.000262588
5.48053e-06
-0.000262821
6.67659e-07
-0.000262583
-4.23631e-06
-0.000261865
-9.21544e-06
-0.000260658
-1.42523e-05
-0.000258951
-1.93275e-05
-0.00025673
-2.44191e-05
-0.000253978
-2.95023e-05
-0.00025068
-3.45486e-05
-0.000246817
-3.95257e-05
-0.000242371
-4.43967e-05
-0.000237325
-4.91203e-05
-0.000231661
-5.36504e-05
-0.000225368
-5.79366e-05
-0.000218435
-6.1924e-05
-0.000210862
-6.55547e-05
-0.000202652
-6.87687e-05
-0.000193822
-7.15052e-05
-0.000184398
-7.3705e-05
-0.00017442
-7.53128e-05
-0.000163942
-7.62797e-05
-0.000153032
-7.6566e-05
-0.000141774
-7.61443e-05
-0.000130262
-7.50019e-05
-0.000118604
-7.31426e-05
-0.000106914
-7.05885e-05
-9.5313e-05
-6.73801e-05
-8.3919e-05
-6.35756e-05
-7.28478e-05
-5.92491e-05
-6.22063e-05
-5.44878e-05
-5.20894e-05
-4.93883e-05
-4.25776e-05
-4.40524e-05
-3.37352e-05
-3.85832e-05
-2.56095e-05
-3.30809e-05
-1.8232e-05
-2.76396e-05
-1.16193e-05
-2.23449e-05
-5.77497e-06
-1.72722e-05
-6.91674e-07
-1.24856e-05
3.64732e-06
-8.03803e-06
7.26649e-06
-3.97085e-06