/*--------------------------------*- C++ -*----------------------------------*\
| =========                 |                                                 |
| \\      /  F ield         | OpenFOAM: The Open Source CFD Toolbox           |
|  \\    /   O peration     | Version:  2406                                  |
|   \\  /    A nd           | Website:  www.openfoam.com                      |
|    \\/     M anipulation  |                                                 |
\*---------------------------------------------------------------------------*/
FoamFile
{
    version     2.0;
    format      ascii;
    arch        "LSB;label=32;scalar=64";
    class       volScalarField;
    location    "28.35";
    object      p;
}
// * * * * * * * * * * * * * * * * * * * * * * * * * * * * * * * * * * * * * //

dimensions      [0 2 -2 0 0 0 0];

internalField   nonuniform List<scalar> 
14400
(
-1.13572e-08
6.3764e-06
1.41345e-05
1.92265e-05
1.92468e-05
1.27469e-05
-8.83692e-07
-2.165e-05
-4.91356e-05
-8.26561e-05
-0.000121394
-0.000164516
-0.000211266
-0.000261041
-0.000313436
-0.000368266
-0.000425577
-0.00048566
-0.000548971
-0.000616072
-0.000687675
-0.000764603
-0.000847688
-0.000937761
-0.00103564
-0.0011421
-0.00125787
-0.00138365
-0.00152008
-0.00166774
-0.00182715
-0.00199876
-0.00218291
-0.0023798
-0.00258945
-0.00281169
-0.00304606
-0.00329179
-0.00354777
-0.00381249
-0.004084
-0.00435991
-0.0046373
-0.00491282
-0.00518258
-0.00544228
-0.00568718
-0.00591219
-0.00611196
-0.00628095
-0.00641359
-0.00650437
-0.00654802
-0.00653966
-0.00647494
-0.00635025
-0.00616285
-0.00591104
-0.00559433
-0.00521353
-0.00477095
-0.00427044
-0.00371706
-0.00311769
-0.00248222
-0.00181986
-0.00114223
-0.000462111
0.000206804
0.00085021
0.00145356
0.00200252
0.00248341
0.00288374
0.00319268
0.00340153
0.00350414
0.00349724
0.00338064
0.0031573
0.00283325
0.00241737
0.00192104
0.00135758
0.00074172
8.89301e-05
-0.000585244
-0.0012658
-0.00193883
-0.00259196
-0.00321475
-0.00379951
-0.00433924
-0.00482991
-0.00526978
-0.00565861
-0.0059976
-0.00628915
-0.00653653
-0.0067436
-0.00691455
-0.00705366
-0.00716516
-0.00725303
-0.00732099
-0.00737239
-0.00741018
-0.00743692
-0.00745477
-0.00746549
-0.00747049
-0.00747082
-0.0074672
-0.00746013
-0.00744999
-0.00743719
-0.00742248
-0.0074073
-0.00739417
-0.00738639
-6.36429e-06
4.44062e-08
7.19781e-06
1.0894e-05
9.71376e-06
2.46996e-06
-1.14024e-05
-3.19292e-05
-5.87568e-05
-9.12863e-05
-0.00012879
-0.000170521
-0.000215798
-0.00026408
-0.000315004
-0.000368416
-0.000424364
-0.000483081
-0.000544999
-0.00061071
-0.000680896
-0.000756284
-0.000837655
-0.000925798
-0.00102149
-0.00112547
-0.00123845
-0.00136111
-0.00149408
-0.00163794
-0.00179323
-0.00196042
-0.00213987
-0.00233182
-0.00253637
-0.00275338
-0.00298248
-0.003223
-0.00347394
-0.00373388
-0.00400102
-0.00427306
-0.00454725
-0.00482033
-0.00508854
-0.00534768
-0.00559309
-0.00581976
-0.00602238
-0.00619544
-0.00633336
-0.00643061
-0.00648187
-0.00648219
-0.00642711
-0.00631292
-0.00613674
-0.00589672
-0.00559222
-0.0052239
-0.00479382
-0.00430569
-0.00376522
-0.00317846
-0.00255386
-0.00190189
-0.001234
-0.000562791
9.8152e-05
0.000734579
0.00133197
0.001876
0.00235295
0.00275029
0.00305713
0.00326474
0.00336691
0.00336034
0.00324482
0.00302332
0.00270192
0.00228956
0.00179768
0.00123968
0.000630341
-1.48354e-05
-0.000680323
-0.00135119
-0.00201369
-0.00265571
-0.00326704
-0.00383922
-0.00436672
-0.00484612
-0.00527543
-0.00565457
-0.005985
-0.00626924
-0.00651063
-0.00671305
-0.00688062
-0.00701753
-0.00712787
-0.0072155
-0.00728395
-0.00733643
-0.00737573
-0.0074043
-0.00742417
-0.00743703
-0.00744424
-0.00744682
-0.00744552
-0.00744086
-0.00743325
-0.00742311
-0.00741108
-0.00739832
-0.00738641
-0.00737858
-1.42667e-05
-7.1481e-06
9.78545e-08
2.64323e-06
2.90755e-07
-7.78402e-06
-2.2036e-05
-4.24635e-05
-6.874e-05
-0.000100326
-0.000136563
-0.000176778
-0.000220359
-0.000266824
-0.000315857
-0.000367335
-0.000421325
-0.000478065
-0.000537964
-0.000601569
-0.000669515
-0.000742496
-0.000821246
-0.000906507
-0.000999008
-0.00109946
-0.00120855
-0.00132695
-0.00145527
-0.00159415
-0.00174414
-0.00190576
-0.00207947
-0.00226559
-0.00246432
-0.00267567
-0.00289941
-0.00313503
-0.00338169
-0.00363818
-0.00390283
-0.00417353
-0.00444768
-0.00472214
-0.00499325
-0.00525686
-0.00550835
-0.00574268
-0.00595449
-0.00613818
-0.00628805
-0.0063984
-0.00646377
-0.00647899
-0.00643945
-0.00634122
-0.00618124
-0.00595748
-0.00566909
-0.00531658
-0.0049019
-0.00442827
-0.00390074
-0.00332724
-0.00271508
-0.00207409
-0.00141573
-0.000752625
-9.8334e-05
0.000532901
0.00112654
0.00166818
0.00214404
0.00254146
0.00284942
0.00305902
0.00316391
0.00316064
0.00304889
0.00283159
0.00251477
0.00210742
0.00162105
0.0010692
0.000466766
-0.000170607
-0.000827271
-0.00148821
-0.00213965
-0.00276947
-0.00336757
-0.003926
-0.0044395
-0.0049047
-0.00531988
-0.00568541
-0.00600307
-0.00627567
-0.00650675
-0.00670032
-0.00686059
-0.00699174
-0.00709778
-0.00718245
-0.00724914
-0.00730087
-0.00734027
-0.0073696
-0.00739075
-0.00740529
-0.00741448
-0.00741929
-0.00742043
-0.00741843
-0.00741366
-0.00740643
-0.00739721
-0.00738662
-0.0073747
-0.00736551
-2.00123e-05
-1.12916e-05
-2.6459e-06
-3.16982e-08
-2.7612e-06
-1.13415e-05
-2.60564e-05
-4.67822e-05
-7.31139e-05
-0.000104467
-0.000140161
-0.000179517
-0.00022193
-0.00026694
-0.000314255
-0.000363778
-0.000415611
-0.000470024
-0.000527436
-0.000588395
-0.000653537
-0.000723553
-0.000799164
-0.000881091
-0.000970052
-0.00106675
-0.00117186
-0.00128608
-0.00141008
-0.00154454
-0.00169012
-0.00184747
-0.00201718
-0.00219975
-0.00239558
-0.00260489
-0.00282767
-0.00306364
-0.00331216
-0.0035722
-0.00384227
-0.00412037
-0.00440394
-0.00468985
-0.00497436
-0.0052532
-0.00552155
-0.00577412
-0.00600528
-0.00620912
-0.00637962
-0.00651079
-0.00659685
-0.00663238
-0.00661253
-0.00653315
-0.00639102
-0.00618395
-0.00591097
-0.00557249
-0.0051704
-0.00470801
-0.00419002
-0.0036236
-0.00301704
-0.00237999
-0.00172369
-0.0010607
-0.000404636
0.000230218
0.000829205
0.00137775
0.00186185
0.00226856
0.00258654
0.00280651
0.00292178
0.00292856
0.00282623
0.00261746
0.00230817
0.0019073
0.00142642
0.000879225
0.000280906
-0.00035258
-0.00100522
-0.00166163
-0.00230768
-0.00293098
-0.00352128
-0.00407071
-0.00457376
-0.00502679
-0.0054289
-0.00578071
-0.00608429
-0.00634284
-0.0065603
-0.00674103
-0.00688951
-0.00701014
-0.00710707
-0.00718408
-0.00724455
-0.00729143
-0.00732721
-0.00735402
-0.00737361
-0.00738741
-0.00739655
-0.00740188
-0.00740403
-0.00740341
-0.00740022
-0.00739459
-0.00738665
-0.00737648
-0.00736271
-0.0073511
-2.16052e-05
-1.13805e-05
-1.30782e-06
1.59217e-06
-1.40426e-06
-1.05607e-05
-2.59787e-05
-4.73706e-05
-7.4198e-05
-0.000105774
-0.000141343
-0.000180176
-0.000221648
-0.000265298
-0.000310856
-0.000358262
-0.00040765
-0.000459341
-0.000513805
-0.000571625
-0.000633468
-0.000700048
-0.0007721
-0.000850359
-0.000935558
-0.00102843
-0.0011297
-0.00124013
-0.00136051
-0.00149165
-0.00163441
-0.00178964
-0.0019582
-0.00214086
-0.00233831
-0.00255106
-0.00277938
-0.00302325
-0.00328223
-0.00355542
-0.0038414
-0.0041381
-0.00444285
-0.00475227
-0.00506233
-0.00536835
-0.00566509
-0.0059468
-0.00620738
-0.00644049
-0.00663973
-0.00679875
-0.0069115
-0.00697233
-0.00697622
-0.00691892
-0.00679712
-0.00660857
-0.00635228
-0.00602858
-0.00563929
-0.00518773
-0.00467878
-0.004119
-0.00351661
-0.00288132
-0.00222428
-0.00155792
-0.000895754
-0.000252098
0.000358329
0.000920797
0.00142104
0.00184577
0.0021832
0.00242356
0.00255959
0.00258694
0.00250443
0.00231426
0.00202194
0.00163615
0.00116834
0.00063224
4.32072e-05
-0.000582497
-0.00122846
-0.00187883
-0.002519
-0.00313612
-0.00371951
-0.00426091
-0.00475449
-0.00519684
-0.00558684
-0.00592527
-0.00621446
-0.00645795
-0.00666006
-0.00682556
-0.00695935
-0.00706617
-0.00715045
-0.00721618
-0.00726686
-0.00730545
-0.00733445
-0.00735587
-0.00737136
-0.00738221
-0.0073894
-0.00739365
-0.00739543
-0.00739499
-0.00739235
-0.00738737
-0.00737985
-0.00736938
-0.00735333
-0.00733918
-1.78155e-05
-6.44067e-06
4.70541e-06
7.73653e-06
4.30087e-06
-5.68385e-06
-2.21392e-05
-4.45911e-05
-7.23311e-05
-0.00010453
-0.00014032
-0.000178897
-0.000219594
-0.000261941
-0.000305691
-0.000350826
-0.000397542
-0.000446228
-0.000497423
-0.000551782
-0.000610034
-0.000672949
-0.000741317
-0.000815933
-0.000897596
-0.000987129
-0.00108539
-0.0011933
-0.00131185
-0.00144212
-0.00158527
-0.0017425
-0.00191501
-0.00210398
-0.00231044
-0.00253525
-0.00277895
-0.00304168
-0.0033231
-0.00362225
-0.00393752
-0.00426654
-0.0046062
-0.00495259
-0.00530109
-0.00564642
-0.0059827
-0.00630364
-0.00660261
-0.00687284
-0.00710759
-0.00730028
-0.00744467
-0.00753505
-0.00756636
-0.00753434
-0.00743572
-0.00726828
-0.00703103
-0.0067243
-0.00634981
-0.00591076
-0.00541195
-0.00485974
-0.00426203
-0.00362827
-0.00296937
-0.00229754
-0.00162608
-0.000969179
-0.000341528
0.000242049
0.000767053
0.00121981
0.00158802
0.00186125
0.00203147
0.0020935
0.00204533
0.00188832
0.00162728
0.00127029
0.000828372
0.000315039
-0.000254384
-0.000863472
-0.00149548
-0.00213412
-0.00276424
-0.0033724
-0.00394736
-0.00448029
-0.00496493
-0.00539755
-0.00577674
-0.00610313
-0.00637912
-0.00660838
-0.00679548
-0.00694553
-0.00706379
-0.0071554
-0.00722517
-0.00727739
-0.0073158
-0.00734353
-0.00736316
-0.00737671
-0.00738577
-0.00739154
-0.00739487
-0.00739635
-0.00739629
-0.00739477
-0.00739159
-0.00738637
-0.0073786
-0.00736742
-0.00734921
-0.00733283
-7.91186e-06
4.20606e-06
1.59473e-05
1.87701e-05
1.45588e-05
3.37887e-06
-1.45109e-05
-3.84336e-05
-6.74854e-05
-0.000100668
-0.00013698
-0.000175524
-0.000215585
-0.000256684
-0.000298605
-0.000341386
-0.000385306
-0.000430845
-0.000478643
-0.000529457
-0.000584118
-0.000643499
-0.000708501
-0.000780041
-0.000859074
-0.000946608
-0.00104374
-0.00115169
-0.00127179
-0.00140553
-0.0015545
-0.00172037
-0.00190481
-0.00210941
-0.00233558
-0.00258442
-0.0028566
-0.00315226
-0.00347082
-0.00381099
-0.0041706
-0.00454667
-0.00493531
-0.00533187
-0.00573095
-0.00612652
-0.00651208
-0.00688078
-0.00722559
-0.00753944
-0.00781539
-0.00804677
-0.00822736
-0.00835149
-0.00841417
-0.00841127
-0.00833958
-0.00819695
-0.00798241
-0.00769622
-0.00734
-0.00691677
-0.00643104
-0.00588884
-0.0052977
-0.00466662
-0.00400607
-0.00332783
-0.00264482
-0.00197093
-0.00132066
-0.000708814
-0.000150045
0.000341615
0.00075328
0.00107375
0.00129404
0.00140786
0.00141201
0.00130669
0.00109554
0.000785625
0.000387166
-8.69283e-05
-0.000621665
-0.0012007
-0.00180712
-0.00242428
-0.00303649
-0.00362972
-0.00419202
-0.00471388
-0.0051884
-0.00561124
-0.0059805
-0.00629645
-0.00656119
-0.00677828
-0.00695232
-0.00708853
-0.00719243
-0.00726945
-0.00732475
-0.00736297
-0.00738816
-0.00740373
-0.00741242
-0.00741639
-0.00741727
-0.00741622
-0.00741405
-0.00741122
-0.00740793
-0.0074041
-0.00739936
-0.00739309
-0.00738451
-0.00737242
-0.00735242
-0.00733434
8.63706e-06
2.10825e-05
3.28922e-05
3.50613e-05
2.96386e-05
1.6829e-05
-2.92108e-06
-2.87184e-05
-5.94475e-05
-9.39257e-05
-0.000131009
-0.000169702
-0.000209248
-0.00024917
-0.000289295
-0.000329741
-0.000370891
-0.000413348
-0.000457885
-0.000505404
-0.000556886
-0.000613374
-0.000675953
-0.000745767
-0.000824036
-0.000912098
-0.00101144
-0.00112373
-0.00125082
-0.00139474
-0.00155765
-0.00174174
-0.00194916
-0.00218186
-0.00244149
-0.00272916
-0.0030454
-0.00338994
-0.00376165
-0.00415847
-0.0045774
-0.00501451
-0.00546501
-0.00592333
-0.00638328
-0.00683818
-0.00728098
-0.00770445
-0.0081013
-0.00846433
-0.00878659
-0.00906148
-0.00928288
-0.00944527
-0.00954384
-0.00957459
-0.00953443
-0.00942128
-0.00923413
-0.00897317
-0.00863981
-0.00823684
-0.00776838
-0.00723996
-0.0066586
-0.0060327
-0.00537208
-0.00468789
-0.00399245
-0.00329913
-0.00262204
-0.00197575
-0.00137494
-0.000833898
-0.000366044
1.65876e-05
0.000303912
0.000488308
0.000565076
0.000532788
0.000393492
0.000152742
-0.000180579
-0.000594635
-0.00107519
-0.00160634
-0.00217126
-0.00275312
-0.00333579
-0.00390461
-0.00444688
-0.00495232
-0.00541318
-0.00582436
-0.00618322
-0.00648942
-0.00674452
-0.00695169
-0.00711525
-0.0072403
-0.00733236
-0.00739699
-0.00743956
-0.007465
-0.00747766
-0.00748123
-0.00747872
-0.00747249
-0.0074643
-0.0074554
-0.00744661
-0.00743835
-0.00743075
-0.00742363
-0.00741647
-0.00740849
-0.00739871
-0.00738566
-0.00736439
-0.00734522
3.23323e-05
4.46974e-05
5.60375e-05
5.70591e-05
4.99434e-05
3.50448e-05
1.30108e-05
-1.5038e-05
-4.77658e-05
-8.38015e-05
-0.00012186
-0.000160863
-0.00020002
-0.000238881
-0.00027734
-0.000315621
-0.000354242
-0.000393965
-0.000435743
-0.000480673
-0.00052996
-0.000584899
-0.000646877
-0.000717389
-0.000798082
-0.000890789
-0.000997565
-0.0011207
-0.00126271
-0.00142627
-0.00161414
-0.00182901
-0.00207339
-0.00234936
-0.00265849
-0.00300156
-0.0033785
-0.00378828
-0.0042288
-0.00469697
-0.00518869
-0.00569898
-0.0062221
-0.00675166
-0.00728078
-0.00780224
-0.00830867
-0.00879259
-0.00924665
-0.00966368
-0.0100368
-0.0103596
-0.0106262
-0.0108313
-0.0109702
-0.0110391
-0.0110352
-0.0109562
-0.0108013
-0.0105705
-0.010265
-0.00988726
-0.00944091
-0.00893095
-0.00836371
-0.00774684
-0.00708934
-0.00640151
-0.00569483
-0.00498188
-0.00427611
-0.00359162
-0.00294282
-0.00234406
-0.00180914
-0.00135086
-0.000980407
-0.000706888
-0.000536761
-0.000473434
-0.000516942
-0.000663805
-0.000907075
-0.0012366
-0.00163947
-0.00210072
-0.00260404
-0.00313268
-0.00367025
-0.00420153
-0.00471307
-0.00519366
-0.00563463
-0.00602989
-0.0063759
-0.00667144
-0.00691732
-0.00711604
-0.00727138
-0.00738805
-0.00747129
-0.00752656
-0.00755923
-0.00757436
-0.00757649
-0.00756957
-0.00755686
-0.00754097
-0.00752385
-0.00750693
-0.0074911
-0.00747685
-0.00746432
-0.00745327
-0.00744313
-0.00743301
-0.00742179
-0.00740782
-0.00738588
-0.00736629
6.37259e-05
7.56101e-05
8.59451e-05
8.53143e-05
7.60185e-05
5.85811e-05
3.38673e-05
3.23291e-06
-3.17653e-05
-6.95751e-05
-0.000108786
-0.000148254
-0.00018719
-0.000225194
-0.000262263
-0.000298764
-0.000335391
-0.000373112
-0.000413118
-0.000456778
-0.000505616
-0.0005613
-0.000625658
-0.000700711
-0.000788708
-0.000892168
-0.00101389
-0.00115692
-0.00132451
-0.00151999
-0.00174663
-0.00200743
-0.00230495
-0.00264104
-0.00301675
-0.00343208
-0.00388598
-0.00437625
-0.0048996
-0.00545173
-0.0060274
-0.00662063
-0.00722481
-0.00783286
-0.0084374
-0.00903087
-0.00960568
-0.0101543
-0.0106694
-0.011144
-0.0115715
-0.0119455
-0.0122605
-0.0125115
-0.0126941
-0.0128047
-0.0128405
-0.0127996
-0.012681
-0.0124847
-0.0122116
-0.0118639
-0.0114446
-0.0109582
-0.0104103
-0.00980755
-0.00915803
-0.00847098
-0.00775681
-0.00702703
-0.00629412
-0.00557135
-0.00487255
-0.00421177
-0.00360289
-0.0030592
-0.00259287
-0.00221442
-0.00193217
-0.00175177
-0.00167572
-0.00170318
-0.00182976
-0.00204772
-0.00234622
-0.00271189
-0.00312954
-0.00358298
-0.00405591
-0.00453271
-0.00499924
-0.00544333
-0.00585522
-0.00622768
-0.00655604
-0.00683798
-0.00707332
-0.00726366
-0.00741199
-0.00752236
-0.0075995
-0.00764847
-0.00767444
-0.00768235
-0.00767679
-0.00766183
-0.00764092
-0.0076169
-0.00759194
-0.00756767
-0.00754515
-0.00752501
-0.00750744
-0.00749226
-0.00747892
-0.00746648
-0.00745376
-0.00743903
-0.00741701
-0.00739763
0.000103444
0.000114443
0.000123237
0.000120457
0.000108514
8.81226e-05
6.03802e-05
2.68796e-05
-1.06101e-05
-5.03741e-05
-9.09032e-05
-0.000131025
-0.000169983
-0.000207474
-0.000243639
-0.000279037
-0.00031459
-0.00035154
-0.000391397
-0.000435904
-0.000487029
-0.000546965
-0.000618159
-0.000703343
-0.000805562
-0.000928184
-0.00107487
-0.00124948
-0.00145596
-0.00169815
-0.00197956
-0.00230313
-0.00267104
-0.00308446
-0.00354342
-0.00404678
-0.00459214
-0.00517597
-0.00579366
-0.0064397
-0.0071078
-0.00779108
-0.00848222
-0.00917364
-0.00985758
-0.0105263
-0.0111721
-0.0117876
-0.0123655
-0.0128991
-0.013382
-0.0138084
-0.0141729
-0.0144709
-0.0146985
-0.0148522
-0.0149296
-0.0149289
-0.0148491
-0.0146903
-0.0144531
-0.0141393
-0.0137517
-0.013294
-0.0127709
-0.0121883
-0.0115531
-0.0108733
-0.010158
-0.00941753
-0.00866297
-0.00790643
-0.00716074
-0.00643918
-0.00575529
-0.00512241
-0.0045533
-0.00405961
-0.00365138
-0.00333649
-0.00312016
-0.00300452
-0.00298839
-0.00306714
-0.00323283
-0.00347458
-0.00377914
-0.00413161
-0.00451632
-0.0049177
-0.00532109
-0.00571345
-0.00608382
-0.00642367
-0.00672697
-0.00699007
-0.00721154
-0.00739181
-0.00753286
-0.00763782
-0.00771065
-0.00775581
-0.00777796
-0.00778175
-0.0077716
-0.00775152
-0.00772504
-0.00769513
-0.00766416
-0.00763396
-0.0076058
-0.00758046
-0.00755831
-0.00753927
-0.00752287
-0.00750821
-0.00749412
-0.00747886
-0.00745735
-0.00743875
0.000152176
0.000161868
0.000168579
0.000163174
0.000148156
0.000124448
9.33885e-05
5.67996e-05
1.66425e-05
-2.52363e-05
-6.72684e-05
-0.000108296
-0.00014765
-0.000185172
-0.000221205
-0.000256559
-0.000292462
-0.000330514
-0.000372652
-0.000421127
-0.000478509
-0.000547696
-0.000631943
-0.000734881
-0.000860506
-0.00101314
-0.00119731
-0.00141761
-0.00167847
-0.00198391
-0.00233726
-0.00274095
-0.00319624
-0.00370315
-0.00426036
-0.00486525
-0.00551395
-0.00620151
-0.00692205
-0.00766892
-0.00843492
-0.00921242
-0.00999354
-0.0107703
-0.0115348
-0.0122791
-0.0129956
-0.013677
-0.0143165
-0.0149076
-0.0154442
-0.0159211
-0.0163333
-0.0166768
-0.0169478
-0.0171437
-0.017262
-0.0173014
-0.017261
-0.0171408
-0.0169414
-0.0166644
-0.0163121
-0.0158875
-0.0153946
-0.0148384
-0.0142246
-0.0135599
-0.0128521
-0.0121099
-0.011343
-0.0105617
-0.00977768
-0.00900286
-0.00824986
-0.00753152
-0.00686059
-0.00624931
-0.00570898
-0.00524939
-0.00487833
-0.00460108
-0.00441996
-0.00433409
-0.00433924
-0.00442798
-0.00459
-0.00481272
-0.00508198
-0.00538295
-0.00570098
-0.00602238
-0.00633511
-0.00662923
-0.00689713
-0.00713357
-0.00733556
-0.00750211
-0.00763386
-0.00773281
-0.00780188
-0.00784469
-0.00786519
-0.00786749
-0.00785561
-0.00783334
-0.00780412
-0.00777093
-0.00773625
-0.00770206
-0.00766983
-0.00764055
-0.00761476
-0.00759255
-0.00757358
-0.00755706
-0.00754191
-0.00752646
-0.00750598
-0.00748863
0.000210637
0.000218579
0.000222655
0.00021418
0.000195712
0.000168389
0.00013379
9.39458e-05
5.09765e-05
6.81669e-06
-3.69582e-05
-7.92635e-05
-0.000119575
-0.000157946
-0.000194993
-0.000231859
-0.000270168
-0.000311996
-0.000359843
-0.000416634
-0.000485717
-0.000570888
-0.00067639
-0.000806891
-0.000967415
-0.00116321
-0.00139955
-0.00168149
-0.00201356
-0.0023995
-0.00284195
-0.00334226
-0.00390039
-0.00451481
-0.0051826
-0.00589952
-0.0066602
-0.00745832
-0.00828682
-0.00913805
-0.010004
-0.0108765
-0.0117471
-0.0126077
-0.0134502
-0.0142668
-0.0150502
-0.0157932
-0.0164895
-0.0171331
-0.0177185
-0.0182409
-0.0186961
-0.0190806
-0.0193912
-0.0196256
-0.0197819
-0.0198591
-0.0198565
-0.0197742
-0.0196128
-0.0193737
-0.0190587
-0.0186705
-0.0182123
-0.0176882
-0.0171028
-0.0164616
-0.015771
-0.0150379
-0.0142703
-0.0134771
-0.0126679
-0.011853
-0.0110436
-0.0102513
-0.00948818
-0.00876632
-0.00809749
-0.00749276
-0.00696195
-0.00651313
-0.00615215
-0.0058821
-0.00570305
-0.00561187
-0.0056023
-0.00566522
-0.00578922
-0.00596129
-0.00616766
-0.00639464
-0.00662946
-0.00686087
-0.00707958
-0.00727853
-0.00745287
-0.00759979
-0.00771833
-0.00780899
-0.00787342
-0.00791412
-0.00793411
-0.00793674
-0.00792543
-0.00790356
-0.00787428
-0.00784044
-0.00780452
-0.00776857
-0.00773422
-0.00770262
-0.0076745
-0.00765016
-0.00762943
-0.00761167
-0.00759593
-0.00758068
-0.00756168
-0.00754595
0.000279517
0.000285238
0.000286119
0.000274167
0.000251937
0.000220776
0.00018248
0.000139258
9.334e-05
4.66918e-05
8.3174e-07
-4.32971e-05
-8.53897e-05
-0.000125791
-0.000165478
-0.000206026
-0.00024958
-0.000298832
-0.000357013
-0.000427896
-0.000515802
-0.000625591
-0.000762618
-0.000932641
-0.00114165
-0.00139566
-0.00170035
-0.00206083
-0.00248121
-0.0029644
-0.00351183
-0.00412335
-0.00479721
-0.00553014
-0.00631749
-0.0071534
-0.00803105
-0.00894282
-0.00988059
-0.0108358
-0.0117999
-0.0127641
-0.0137198
-0.0146588
-0.015573
-0.0164549
-0.0172975
-0.0180943
-0.0188394
-0.0195275
-0.0201538
-0.0207142
-0.0212052
-0.0216239
-0.0219679
-0.0222353
-0.0224249
-0.0225357
-0.0225676
-0.0225207
-0.0223957
-0.0221938
-0.0219167
-0.0215666
-0.0211461
-0.0206584
-0.0201074
-0.0194973
-0.018833
-0.0181201
-0.0173648
-0.0165741
-0.0157556
-0.0149177
-0.0140698
-0.0132216
-0.0123838
-0.0115675
-0.0107839
-0.0100446
-0.00936032
-0.00874129
-0.00819624
-0.007732
-0.00735305
-0.00706106
-0.00685467
-0.00672943
-0.00667802
-0.00669066
-0.00675578
-0.00686081
-0.00699304
-0.00714039
-0.00729208
-0.0074391
-0.00757448
-0.00769327
-0.00779246
-0.00787071
-0.00792803
-0.00796551
-0.00798499
-0.0079888
-0.00797959
-0.00796009
-0.00793301
-0.00790093
-0.00786617
-0.00783075
-0.00779635
-0.00776428
-0.00773541
-0.00771024
-0.00768878
-0.00767058
-0.00765484
-0.00764023
-0.00762307
-0.0076092
0.000359412
0.000362418
0.00035954
0.000343755
0.000317524
0.00028237
0.000240279
0.00019358
0.000144553
9.51239e-05
4.66774e-05
-6.60051e-08
-4.51076e-05
-8.91786e-05
-0.000133724
-0.00018088
-0.000233454
-0.000294923
-0.000369428
-0.000461774
-0.000577415
-0.000722383
-0.000903177
-0.00112656
-0.00139927
-0.00172771
-0.00211754
-0.00257333
-0.00309825
-0.00369381
-0.00435979
-0.0050942
-0.00589339
-0.00675223
-0.00766432
-0.00862224
-0.00961777
-0.0106422
-0.0116863
-0.0127411
-0.0137972
-0.0148458
-0.0158782
-0.0168861
-0.0178621
-0.0187989
-0.0196902
-0.0205301
-0.0213135
-0.0220359
-0.0226933
-0.0232825
-0.0238006
-0.0242456
-0.0246155
-0.0249092
-0.0251259
-0.0252651
-0.0253268
-0.0253115
-0.02522
-0.0250533
-0.0248129
-0.0245009
-0.0241192
-0.0236707
-0.023158
-0.0225848
-0.0219545
-0.0212715
-0.0205403
-0.0197661
-0.0189547
-0.0181124
-0.0172463
-0.0163642
-0.0154746
-0.0145869
-0.0137111
-0.0128577
-0.0120378
-0.0112621
-0.0105414
-0.00988538
-0.00930232
-0.0087986
-0.00837812
-0.00804192
-0.007788
-0.00761135
-0.00750424
-0.00745681
-0.00745774
-0.00749515
-0.00755739
-0.00763377
-0.00771512
-0.00779405
-0.0078651
-0.00792463
-0.00797058
-0.00800225
-0.00801995
-0.00802476
-0.00801827
-0.0080024
-0.00797923
-0.00795089
-0.00791941
-0.00788666
-0.00785429
-0.00782364
-0.00779572
-0.00777116
-0.00775015
-0.00773243
-0.00771737
-0.00770384
-0.00768877
-0.00767687
0.000450746
0.000450536
0.00044334
0.000423418
0.000393023
0.000353794
0.000307847
0.000257567
0.000205205
0.000152562
0.000100804
5.03336e-05
7.41465e-07
-4.92028e-05
-0.000101542
-0.000159118
-0.000225572
-0.00030534
-0.000403652
-0.000526501
-0.000680564
-0.000873061
-0.00111152
-0.00140345
-0.00175596
-0.00217534
-0.00266664
-0.00323334
-0.00387707
-0.00459754
-0.00539252
-0.00625798
-0.00718827
-0.00817638
-0.00921422
-0.0102929
-0.0114029
-0.0125346
-0.013678
-0.0148235
-0.0159616
-0.0170835
-0.0181805
-0.0192451
-0.02027
-0.021249
-0.0221763
-0.0230472
-0.0238572
-0.0246027
-0.0252809
-0.0258891
-0.0264253
-0.0268881
-0.0272764
-0.0275895
-0.0278269
-0.0279888
-0.0280753
-0.0280872
-0.0280252
-0.0278905
-0.0276846
-0.027409
-0.0270656
-0.0266566
-0.0261842
-0.0256511
-0.02506
-0.0244139
-0.0237161
-0.0229703
-0.0221803
-0.0213508
-0.0204864
-0.0195929
-0.0186764
-0.0177441
-0.0168038
-0.0158645
-0.0149358
-0.0140281
-0.0131526
-0.0123205
-0.0115427
-0.0108294
-0.0101893
-0.00962912
-0.0091529
-0.00876163
-0.0084531
-0.00822199
-0.00806028
-0.00795792
-0.00790365
-0.00788591
-0.00789366
-0.00791705
-0.00794786
-0.00797967
-0.00800786
-0.00802941
-0.00804269
-0.00804715
-0.00804306
-0.00803128
-0.00801308
-0.00798995
-0.00796349
-0.00793528
-0.00790682
-0.00787943
-0.00785413
-0.00783166
-0.00781234
-0.00779607
-0.00778238
-0.00777036
-0.00775754
-0.00774761
0.000553687
0.000549757
0.000537727
0.000513417
0.000478764
0.000435431
0.000385583
0.000331574
0.000275533
0.000219047
0.000162957
0.000107243
5.09698e-05
-7.72257e-06
-7.16226e-05
-0.000144446
-0.00023084
-0.000336375
-0.000467514
-0.000631522
-0.000836299
-0.00109011
-0.00140125
-0.00177756
-0.00222598
-0.00275211
-0.00335977
-0.00405077
-0.00482479
-0.00567939
-0.00661012
-0.0076108
-0.00867378
-0.00979024
-0.0109505
-0.0121443
-0.0133611
-0.0145905
-0.015822
-0.0170458
-0.0182526
-0.0194336
-0.020581
-0.0216878
-0.0227476
-0.023755
-0.0247053
-0.0255947
-0.0264197
-0.0271777
-0.0278667
-0.0284848
-0.0290308
-0.029504
-0.0299037
-0.0302297
-0.0304821
-0.0306612
-0.0307676
-0.030802
-0.0307655
-0.0306591
-0.0304842
-0.0302424
-0.0299352
-0.0295644
-0.0291319
-0.0286398
-0.02809
-0.0274847
-0.0268262
-0.0261169
-0.0253592
-0.024556
-0.0237102
-0.0228253
-0.0219053
-0.0209548
-0.0199792
-0.0189851
-0.0179799
-0.0169726
-0.015973
-0.0149923
-0.0140424
-0.0131358
-0.0122848
-0.0115009
-0.0107941
-0.0101718
-0.00963863
-0.00919559
-0.00884001
-0.00856584
-0.00836417
-0.00822409
-0.00813373
-0.00808123
-0.0080556
-0.00804731
-0.00804861
-0.00805363
-0.00805822
-0.00805973
-0.0080567
-0.00804865
-0.00803577
-0.00801875
-0.00799857
-0.00797642
-0.00795351
-0.007931
-0.0079099
-0.00789093
-0.00787451
-0.00786064
-0.00784901
-0.0078389
-0.00782835
-0.00782028
0.000668154
0.000659844
0.000642565
0.00061373
0.000574767
0.000527328
0.000473513
0.000415537
0.000355305
0.000294079
0.000232268
0.000169305
0.0001036
3.25124e-05
-4.76538e-05
-0.000141659
-0.000255325
-0.000395494
-0.000569942
-0.000787191
-0.00105622
-0.00138605
-0.00178531
-0.00226162
-0.00282116
-0.00346817
-0.00420471
-0.00503047
-0.00594281
-0.00693693
-0.00800609
-0.00914193
-0.0103349
-0.0115744
-0.0128494
-0.0141485
-0.0154605
-0.0167744
-0.0180797
-0.0193668
-0.0206266
-0.0218513
-0.0230338
-0.0241679
-0.0252484
-0.026271
-0.027232
-0.0281286
-0.0289584
-0.0297197
-0.030411
-0.0310315
-0.0315805
-0.0320578
-0.0324633
-0.0327971
-0.0330597
-0.0332516
-0.0333735
-0.0334264
-0.0334113
-0.0333293
-0.0331819
-0.0329703
-0.0326962
-0.0323609
-0.0319662
-0.0315135
-0.0310046
-0.0304409
-0.029824
-0.0291553
-0.0284363
-0.0276685
-0.0268533
-0.0259925
-0.0250879
-0.0241419
-0.0231575
-0.0221386
-0.0210901
-0.0200182
-0.0189307
-0.0178371
-0.0167485
-0.0156776
-0.0146386
-0.013646
-0.0127146
-0.0118578
-0.0110873
-0.0104115
-0.00983491
-0.0093578
-0.00897608
-0.00868179
-0.00846405
-0.00831021
-0.00820709
-0.00814208
-0.00810394
-0.00808333
-0.00807293
-0.00806734
-0.00806289
-0.0080573
-0.00804938
-0.00803876
-0.00802565
-0.00801066
-0.0079946
-0.00797838
-0.00796284
-0.00794866
-0.00793625
-0.00792567
-0.00791672
-0.00790884
-0.00790051
-0.00789412
0.000793562
0.000780356
0.00075724
0.000723853
0.000680628
0.000629087
0.000571176
0.000508855
0.000443688
0.000376496
0.00030713
0.000234347
0.00015575
6.77646e-05
-3.4383e-05
-0.000156659
-0.000306192
-0.000491174
-0.000720671
-0.00100431
-0.00135186
-0.00177266
-0.00227509
-0.00286596
-0.00355
-0.00432958
-0.00520448
-0.00617192
-0.00722675
-0.00836169
-0.0095677
-0.0108344
-0.0121503
-0.0135034
-0.0148816
-0.0162727
-0.0176652
-0.0190479
-0.0204108
-0.0217446
-0.0230414
-0.0242941
-0.0254967
-0.0266442
-0.0277327
-0.0287589
-0.0297203
-0.0306149
-0.0314413
-0.0321986
-0.0328861
-0.0335035
-0.0340506
-0.0345277
-0.034935
-0.0352729
-0.0355421
-0.0357434
-0.0358774
-0.0359454
-0.0359482
-0.0358871
-0.0357635
-0.0355785
-0.0353337
-0.0350303
-0.0346698
-0.0342536
-0.033783
-0.033259
-0.0326829
-0.0320554
-0.0313772
-0.0306491
-0.0298713
-0.0290442
-0.0281682
-0.0272438
-0.0262717
-0.0252534
-0.0241911
-0.0230881
-0.0219493
-0.0207813
-0.0195932
-0.0183961
-0.0172035
-0.016031
-0.014896
-0.0138164
-0.0128099
-0.0118922
-0.0110762
-0.0103702
-0.00977752
-0.00929582
-0.00891792
-0.0086325
-0.00842564
-0.00828233
-0.00818791
-0.0081291
-0.00809475
-0.00807599
-0.00806622
-0.00806079
-0.00805669
-0.00805216
-0.0080464
-0.00803924
-0.00803098
-0.00802213
-0.00801329
-0.00800499
-0.00799754
-0.00799104
-0.0079853
-0.0079799
-0.00797368
-0.00796871
0.000928583
0.000910226
0.000880869
0.00084285
0.000795416
0.00073975
0.000677505
0.000610266
0.000539129
0.000464349
0.000385085
0.000299271
0.000203553
9.32559e-05
-3.76248e-05
-0.000196392
-0.000391553
-0.000632627
-0.000929824
-0.00129359
-0.00173402
-0.00226023
-0.00287972
-0.0035978
-0.00441722
-0.00533793
-0.00635711
-0.0074693
-0.00866671
-0.0099396
-0.0112767
-0.0126658
-0.0140938
-0.0155476
-0.0170144
-0.0184817
-0.0199379
-0.0213725
-0.0227761
-0.0241405
-0.0254586
-0.0267249
-0.0279344
-0.0290837
-0.0301697
-0.0311903
-0.0321441
-0.0330301
-0.0338475
-0.034596
-0.0352757
-0.0358866
-0.036429
-0.0369033
-0.0373101
-0.0376499
-0.0379236
-0.0381319
-0.0382757
-0.0383561
-0.038374
-0.0383308
-0.0382275
-0.0380656
-0.0378462
-0.0375708
-0.0372405
-0.0368566
-0.0364203
-0.0359324
-0.0353939
-0.0348052
-0.0341666
-0.0334783
-0.0327399
-0.031951
-0.0311107
-0.0302183
-0.0292729
-0.0282738
-0.0272209
-0.0261147
-0.024957
-0.0237515
-0.0225036
-0.0212216
-0.0199168
-0.0186033
-0.0172986
-0.0160227
-0.0147969
-0.0136434
-0.0125825
-0.0116317
-0.0108032
-0.0101033
-0.00953156
-0.00908095
-0.00873928
-0.00849081
-0.0083182
-0.00820433
-0.00813366
-0.00809309
-0.00807225
-0.0080634
-0.00806106
-0.00806165
-0.00806298
-0.00806392
-0.00806403
-0.00806333
-0.00806205
-0.00806047
-0.00805878
-0.00805698
-0.00805489
-0.00805217
-0.00804787
-0.00804405
0.00107162
0.0010477
0.00101181
0.000969174
0.000917577
0.000857689
0.000790719
0.000717741
0.000639254
0.000554811
0.000462738
0.000359996
0.000242117
0.000103175
-6.4191e-05
-0.000268692
-0.000520199
-0.000829419
-0.00120742
-0.00166502
-0.00221211
-0.00285692
-0.00360541
-0.00446081
-0.00542337
-0.00649027
-0.00765585
-0.00891185
-0.0102479
-0.0116518
-0.0131105
-0.0146099
-0.0161361
-0.0176751
-0.0192139
-0.0207402
-0.022243
-0.0237126
-0.0251409
-0.0265208
-0.0278467
-0.0291144
-0.0303202
-0.031462
-0.0325378
-0.0335465
-0.0344877
-0.0353608
-0.0361661
-0.0369035
-0.0375735
-0.0381765
-0.038713
-0.0391837
-0.039589
-0.0399299
-0.040207
-0.0404211
-0.0405732
-0.0406642
-0.0406952
-0.0406672
-0.0405816
-0.0404394
-0.0402419
-0.0399903
-0.039686
-0.0393299
-0.0389232
-0.0384667