/*--------------------------------*- C++ -*----------------------------------*\
| =========                 |                                                 |
| \\      /  F ield         | OpenFOAM: The Open Source CFD Toolbox           |
|  \\    /   O peration     | Version:  2406                                  |
|   \\  /    A nd           | Website:  www.openfoam.com                      |
|    \\/     M anipulation  |                                                 |
\*---------------------------------------------------------------------------*/
FoamFile
{
    version     2.0;
    format      ascii;
    arch        "LSB;label=32;scalar=64";
    class       volVectorField;
    location    "40.25";
    object      Uold;
}
// * * * * * * * * * * * * * * * * * * * * * * * * * * * * * * * * * * * * * //

dimensions      [0 1 -1 0 0 0 0];

internalField   nonuniform List<vector> 
14400
(
(-1.86324e-05 1.8586e-05 0)
(-2.30661e-06 -1.11932e-05 0)
(0.000109538 -4.38998e-05 0)
(0.000302936 -7.30092e-05 0)
(0.000566158 -9.03749e-05 0)
(0.000864776 -0.000100044 0)
(0.0011831 -0.000101011 0)
(0.00149411 -9.64248e-05 0)
(0.00178657 -8.68275e-05 0)
(0.00204477 -7.46377e-05 0)
(0.00226466 -6.08993e-05 0)
(0.00244135 -4.73656e-05 0)
(0.00257758 -3.48882e-05 0)
(0.00267616 -2.44291e-05 0)
(0.00274392 -1.63021e-05 0)
(0.0027871 -1.07077e-05 0)
(0.00281306 -7.40982e-06 0)
(0.00282755 -6.04724e-06 0)
(0.00283551 -6.0242e-06 0)
(0.00283963 -6.70991e-06 0)
(0.0028409 -7.42564e-06 0)
(0.00283817 -7.57402e-06 0)
(0.00282867 -6.64737e-06 0)
(0.00280816 -4.28705e-06 0)
(0.00277147 -2.6409e-07 0)
(0.00271279 5.5277e-06 0)
(0.002626 1.31211e-05 0)
(0.00250488 2.25114e-05 0)
(0.00234313 3.3699e-05 0)
(0.0021344 4.6708e-05 0)
(0.00187227 6.15948e-05 0)
(0.00155014 7.84371e-05 0)
(0.00116128 9.7318e-05 0)
(0.000698857 0.000118305 0)
(0.000156084 0.000141432 0)
(-0.000473669 0.000166684 0)
(-0.00119664 0.000193988 0)
(-0.00201848 0.000223204 0)
(-0.00294397 0.000254122 0)
(-0.00397681 0.000286456 0)
(-0.00511935 0.000319846 0)
(-0.00637234 0.000353857 0)
(-0.00773473 0.000387981 0)
(-0.00920345 0.000421647 0)
(-0.0107732 0.000454228 0)
(-0.0124366 0.000485049 0)
(-0.0141836 0.0005134 0)
(-0.016002 0.00053855 0)
(-0.0178771 0.000559761 0)
(-0.0197922 0.000576295 0)
(-0.0217282 0.000587433 0)
(-0.0236642 0.000592481 0)
(-0.0255776 0.000590778 0)
(-0.0274442 0.000581713 0)
(-0.0292386 0.000564725 0)
(-0.0309346 0.000539322 0)
(-0.0325053 0.000505091 0)
(-0.0339237 0.000461717 0)
(-0.0351628 0.000408999 0)
(-0.0361962 0.00034688 0)
(-0.0369987 0.000275467 0)
(-0.0375466 0.000195065 0)
(-0.037818 0.000106205 0)
(-0.0377941 9.67264e-06 0)
(-0.037459 -9.3467e-05 0)
(-0.0368009 -0.00020185 0)
(-0.0358126 -0.000313804 0)
(-0.0344919 -0.000427354 0)
(-0.0328425 -0.000540239 0)
(-0.0308744 -0.000649953 0)
(-0.0286043 -0.000753805 0)
(-0.0260554 -0.000849001 0)
(-0.0232584 -0.000932742 0)
(-0.0202503 -0.00100235 0)
(-0.0170743 -0.00105539 0)
(-0.013779 -0.00108983 0)
(-0.0104175 -0.00110414 0)
(-0.00704563 -0.00109745 0)
(-0.00372077 -0.00106958 0)
(-0.00049981 -0.00102118 0)
(0.0025626 -0.000953668 0)
(0.00541593 -0.000869218 0)
(0.00801555 -0.000770667 0)
(0.0103243 -0.000661372 0)
(0.0123136 -0.000545033 0)
(0.0139645 -0.000425497 0)
(0.015268 -0.000306544 0)
(0.0162248 -0.000191695 0)
(0.0168452 -8.40412e-05 0)
(0.0171478 1.38851e-05 0)
(0.0171582 0.000100193 0)
(0.0169078 0.000173662 0)
(0.0164318 0.000233725 0)
(0.015768 0.00028041 0)
(0.0149543 0.000314261 0)
(0.0140283 0.000336225 0)
(0.0130252 0.000347554 0)
(0.0119772 0.000349681 0)
(0.0109126 0.000344143 0)
(0.00985582 0.000332467 0)
(0.00882646 0.000316134 0)
(0.00784018 0.000296485 0)
(0.00690827 0.000274744 0)
(0.00603863 0.000251919 0)
(0.00523549 0.00022891 0)
(0.00450084 0.000206367 0)
(0.00383365 0.000184909 0)
(0.00323206 0.000164863 0)
(0.00269146 0.000146652 0)
(0.00220811 0.000130262 0)
(0.00177548 0.000115949 0)
(0.0013903 0.000103167 0)
(0.00104616 9.19313e-05 0)
(0.000743612 8.07215e-05 0)
(0.000479418 6.92998e-05 0)
(0.000261809 5.4643e-05 0)
(9.37306e-05 3.72027e-05 0)
(-9.88439e-06 1.33315e-05 0)
(-4.52668e-05 -8.83614e-06 0)
(-2.24055e-05 -2.19501e-05 0)
(9.9137e-06 3.02183e-06 0)
(0.000155454 -0.000158901 0)
(0.000498754 -0.000324728 0)
(0.000999943 -0.000471729 0)
(0.00164294 -0.000568663 0)
(0.00236208 -0.000623574 0)
(0.00312265 -0.000633332 0)
(0.00386931 -0.000608868 0)
(0.00457327 -0.000555376 0)
(0.00520049 -0.000483714 0)
(0.00573751 -0.000401292 0)
(0.00617226 -0.000316959 0)
(0.00650686 -0.000236637 0)
(0.00674565 -0.000165546 0)
(0.00690068 -0.000106278 0)
(0.00698406 -6.00272e-05 0)
(0.00700986 -2.594e-05 0)
(0.0069894 -1.98183e-06 0)
(0.00693186 1.50734e-05 0)
(0.00684175 2.89436e-05 0)
(0.00671954 4.35877e-05 0)
(0.00656084 6.26793e-05 0)
(0.00635737 8.93869e-05 0)
(0.00609729 0.000126128 0)
(0.00576633 0.000174574 0)
(0.0053484 0.000235707 0)
(0.0048265 0.000310021 0)
(0.00418307 0.000397717 0)
(0.00340039 0.000498887 0)
(0.00246073 0.000613622 0)
(0.00134641 0.000742037 0)
(3.9995e-05 0.000884224 0)
(-0.00147553 0.00104016 0)
(-0.0032164 0.00120959 0)
(-0.00519763 0.00139194 0)
(-0.00743242 0.0015862 0)
(-0.00993157 0.00179093 0)
(-0.0127028 0.00200416 0)
(-0.0157501 0.00222342 0)
(-0.019073 0.00244575 0)
(-0.0226663 0.00266769 0)
(-0.0265193 0.00288539 0)
(-0.0306155 0.00309465 0)
(-0.0349327 0.00329099 0)
(-0.0394428 0.00346978 0)
(-0.0441118 0.00362635 0)
(-0.0489006 0.00375607 0)
(-0.0537648 0.00385451 0)
(-0.058656 0.00391752 0)
(-0.0635223 0.00394129 0)
(-0.0683089 0.00392248 0)
(-0.0729593 0.00385826 0)
(-0.0774159 0.00374636 0)
(-0.081621 0.00358508 0)
(-0.0855178 0.00337339 0)
(-0.0890508 0.0031109 0)
(-0.0921669 0.00279789 0)
(-0.0948159 0.00243537 0)
(-0.0969512 0.00202505 0)
(-0.0985307 0.00156944 0)
(-0.099517 0.00107186 0)
(-0.0998782 0.000536458 0)
(-0.0995885 -3.16884e-05 0)
(-0.0986286 -0.000626579 0)
(-0.0969867 -0.00124124 0)
(-0.0946587 -0.00186774 0)
(-0.0916487 -0.00249717 0)
(-0.0879699 -0.00311976 0)
(-0.0836447 -0.00372493 0)
(-0.0787053 -0.00430149 0)
(-0.0731936 -0.00483786 0)
(-0.0671617 -0.00532234 0)
(-0.0606711 -0.00574348 0)
(-0.0537929 -0.00609044 0)
(-0.0466068 -0.00635348 0)
(-0.0391999 -0.00652437 0)
(-0.0316659 -0.00659688 0)
(-0.0241029 -0.00656714 0)
(-0.0166116 -0.00643405 0)
(-0.00929305 -0.0061995 0)
(-0.0022465 -0.00586846 0)
(0.00443354 -0.00544896 0)
(0.0106596 -0.00495193 0)
(0.0163538 -0.00439077 0)
(0.0214501 -0.00378091 0)
(0.0258961 -0.00313909 0)
(0.0296546 -0.00248275 0)
(0.0327048 -0.00182918 0)
(0.0350423 -0.00119484 0)
(0.0366792 -0.000594642 0)
(0.0376431 -4.13984e-05 0)
(0.0379758 0.000454634 0)
(0.0377313 0.000886027 0)
(0.0369731 0.00124829 0)
(0.035772 0.00153979 0)
(0.0342028 0.00176158 0)
(0.0323416 0.00191704 0)
(0.0302629 0.0020114 0)
(0.0280374 0.00205138 0)
(0.0257298 0.00204453 0)
(0.0233973 0.00199891 0)
(0.0210888 0.00192253 0)
(0.0188442 0.00182312 0)
(0.0166949 0.00170773 0)
(0.0146635 0.00158276 0)
(0.0127654 0.00145353 0)
(0.0110084 0.00132475 0)
(0.009396 0.00119984 0)
(0.00792494 0.0010818 0)
(0.00659142 0.000971905 0)
(0.00538584 0.000871357 0)
(0.0043031 0.000778467 0)
(0.00333271 0.000692251 0)
(0.00247584 0.000606713 0)
(0.00172728 0.000519117 0)
(0.00110161 0.000418643 0)
(0.00060147 0.000306304 0)
(0.000252084 0.000172286 0)
(4.94837e-05 4.68377e-05 0)
(-9.01101e-06 -4.52171e-05 0)
(3.95657e-05 -0.000103314 0)
(0.000310866 -0.000499002 0)
(0.000865681 -0.000884161 0)
(0.00162089 -0.0012159 0)
(0.00255885 -0.00144177 0)
(0.00358942 -0.00156746 0)
(0.0046681 -0.00158966 0)
(0.00572117 -0.00152771 0)
(0.00670931 -0.00139597 0)
(0.00758644 -0.00121738 0)
(0.00833247 -0.00101073 0)
(0.00892975 -0.000795905 0)
(0.00937847 -0.000587807 0)
(0.00968239 -0.00039858 0)
(0.00985494 -0.000235032 0)
(0.00991002 -0.000100021 0)
(0.0098638 8.13008e-06 0)
(0.00972895 9.43329e-05 0)
(0.00951489 0.000166263 0)
(0.0092248 0.000233038 0)
(0.00885604 0.000304347 0)
(0.00839928 0.000389343 0)
(0.00783966 0.000495967 0)
(0.00715733 0.000630423 0)
(0.00632895 0.000797088 0)
(0.00532864 0.000998662 0)
(0.00412918 0.00123656 0)
(0.00270271 0.00151133 0)
(0.00102142 0.00182307 0)
(-0.000942077 0.00217159 0)
(-0.00321425 0.00255648 0)
(-0.00582017 0.00297697 0)
(-0.00878285 0.00343168 0)
(-0.0121225 0.00391839 0)
(-0.0158554 0.00443379 0)
(-0.0199931 0.00497332 0)
(-0.0245413 0.00553108 0)
(-0.0294987 0.00609982 0)
(-0.0348564 0.00667099 0)
(-0.0405967 0.00723488 0)
(-0.0466935 0.00778078 0)
(-0.0531113 0.00829726 0)
(-0.0598057 0.00877247 0)
(-0.0667241 0.00919445 0)
(-0.0738064 0.00955149 0)
(-0.080986 0.00983249 0)
(-0.0881912 0.0100272 0)
(-0.0953467 0.0101267 0)
(-0.102375 0.0101233 0)
(-0.109199 0.0100109 0)
(-0.11574 0.00978523 0)
(-0.121925 0.00944349 0)
(-0.127681 0.00898467 0)
(-0.132942 0.00840934 0)
(-0.137644 0.00771962 0)
(-0.141732 0.00691906 0)
(-0.145154 0.00601257 0)
(-0.147865 0.00500637 0)
(-0.149827 0.00390792 0)
(-0.151007 0.0027259 0)
(-0.151382 0.00147023 0)
(-0.150931 0.000152094 0)
(-0.149643 -0.00121604 0)
(-0.147513 -0.00262034 0)
(-0.144542 -0.00404564 0)
(-0.140742 -0.00547536 0)
(-0.136128 -0.00689157 0)
(-0.130726 -0.00827512 0)
(-0.12457 -0.00960572 0)
(-0.117702 -0.0108623 0)
(-0.110172 -0.0120232 0)
(-0.102041 -0.0130667 0)
(-0.0933765 -0.0139718 0)
(-0.0842571 -0.0147183 0)
(-0.0747683 -0.0152881 0)
(-0.0650035 -0.0156656 0)
(-0.0550627 -0.0158386 0)
(-0.0450516 -0.015799 0)
(-0.0350794 -0.0155436 0)
(-0.0252574 -0.0150742 0)
(-0.015697 -0.0143984 0)
(-0.00650691 -0.0135292 0)
(0.0022089 -0.0124854 0)
(0.0103537 -0.0112906 0)
(0.0178402 -0.00997274 0)
(0.0245931 -0.00856343 0)
(0.0305509 -0.0070964 0)
(0.0356675 -0.00560655 0)
(0.0399135 -0.00412855 0)
(0.0432772 -0.00269559 0)
(0.0457646 -0.00133815 0)
(0.0473996 -8.29128e-05 0)
(0.0482226 0.00104817 0)
(0.0482896 0.00203849 0)
(0.0476698 0.00287723 0)
(0.0464434 0.00355942 0)
(0.0446979 0.0040858 0)
(0.0425258 0.00446222 0)
(0.0400202 0.00469902 0)
(0.0372723 0.00481001 0)
(0.0343677 0.0048115 0)
(0.0313847 0.00472116 0)
(0.0283918 0.00455717 0)
(0.0254471 0.00433714 0)
(0.0225968 0.00407772 0)
(0.0198771 0.00379373 0)
(0.0173124 0.00349834 0)
(0.0149196 0.00320207 0)
(0.0127048 0.00291375 0)
(0.0106715 0.0026386 0)
(0.00881377 0.00238026 0)
(0.00713003 0.00213693 0)
(0.00561008 0.00190604 0)
(0.00425777 0.00167668 0)
(0.00306632 0.00144135 0)
(0.00205541 0.00118104 0)
(0.0012236 0.000895115 0)
(0.000607855 0.000570411 0)
(0.000195519 0.000256503 0)
(1.74841e-05 -3.90111e-06 0)
(6.55076e-05 -0.000283804 0)
(0.000449502 -0.000989113 0)
(0.00118672 -0.00163652 0)
(0.00214699 -0.00217365 0)
(0.0033101 -0.00253831 0)
(0.00456427 -0.00273405 0)
(0.00586065 -0.00275955 0)
(0.00711263 -0.00264267 0)
(0.00827583 -0.00240837 0)
(0.00929631 -0.00209278 0)
(0.0101504 -0.00172751 0)
(0.0108162 -0.00134474 0)
(0.0112921 -0.000969491 0)
(0.0115802 -0.000621619 0)
(0.0116928 -0.000312605 0)
(0.0116427 -4.70163e-05 0)
(0.0114448 0.000178007 0)
(0.0111093 0.000370976 0)
(0.0106426 0.000545032 0)
(0.0100432 0.000715879 0)
(0.00930289 0.000900177 0)
(0.0084053 0.00111372 0)
(0.00732763 0.00137023 0)
(0.0060413 0.00168046 0)
(0.00451378 0.002052 0)
(0.00270986 0.00248951 0)
(0.000593129 0.00299529 0)
(-0.00187297 0.00356994 0)
(-0.00472409 0.00421287 0)
(-0.00799414 0.00492259 0)
(-0.0117143 0.00569667 0)
(-0.0159118 0.00653145 0)
(-0.0206091 0.00742168 0)
(-0.0258219 0.00836011 0)
(-0.031558 0.00933716 0)
(-0.0378161 0.0103408 0)
(-0.0445842 0.0113565 0)
(-0.0518388 0.0123676 0)
(-0.0595444 0.0133552 0)
(-0.0676535 0.0142993 0)
(-0.0761068 0.0151786 0)
(-0.0848346 0.015972 0)
(-0.0937579 0.0166586 0)
(-0.102791 0.017219 0)
(-0.111842 0.0176354 0)
(-0.120818 0.0178926 0)
(-0.129626 0.0179783 0)
(-0.138172 0.0178832 0)
(-0.14637 0.0176011 0)
(-0.154137 0.0171292 0)
(-0.161397 0.0164676 0)
(-0.16808 0.015619 0)
(-0.174126 0.0145887 0)
(-0.179481 0.0133838 0)
(-0.1841 0.0120135 0)
(-0.187943 0.0104881 0)
(-0.19098 0.00881954 0)
(-0.193184 0.00702055 0)
(-0.194536 0.00510502 0)
(-0.195022 0.00308782 0)
(-0.194633 0.000984852 0)
(-0.193364 -0.00118688 0)
(-0.191215 -0.00340912 0)
(-0.188193 -0.00566226 0)
(-0.184306 -0.00792521 0)
(-0.179569 -0.0101753 0)
(-0.174003 -0.0123883 0)
(-0.167634 -0.0145382 0)
(-0.160493 -0.0165979 0)
(-0.15262 -0.0185387 0)
(-0.14406 -0.0203313 0)
(-0.134868 -0.0219462 0)
(-0.125106 -0.023354 0)
(-0.114843 -0.0245267 0)
(-0.10416 -0.0254385 0)
(-0.0931405 -0.0260667 0)
(-0.0818805 -0.0263926 0)
(-0.0704801 -0.026403 0)
(-0.059045 -0.0260909 0)
(-0.047685 -0.0254563 0)
(-0.0365114 -0.0245064 0)
(-0.0256358 -0.0232567 0)
(-0.0151671 -0.02173 0)
(-0.00520986 -0.0199566 0)
(0.00413836 -0.0179732 0)
(0.012789 -0.0158222 0)
(0.0206642 -0.01355 0)
(0.0276992 -0.0112059 0)
(0.0338431 -0.00884009 0)
(0.0390603 -0.00650246 0)
(0.0433316 -0.00424063 0)
(0.0466549 -0.0020986 0)
(0.0490449 -0.000115261 0)
(0.0505335 0.00167682 0)
(0.0511687 0.00325239 0)
(0.051014 0.00459426 0)
(0.0501455 0.00569363 0)
(0.0486505 0.00655005 0)
(0.0466238 0.00717101 0)
(0.0441643 0.00757097 0)
(0.0413716 0.0077702 0)
(0.0383424 0.00779326 0)
(0.0351669 0.00766746 0)
(0.031927 0.00742116 0)
(0.028693 0.00708258 0)
(0.0255244 0.00667821 0)
(0.0224668 0.00623242 0)
(0.0195564 0.00576588 0)
(0.016815 0.00529616 0)
(0.0142599 0.00483524 0)
(0.011895 0.00439156 0)
(0.0097273 0.00396538 0)
(0.00775107 0.00355405 0)
(0.00597609 0.00314334 0)
(0.00439492 0.00272154 0)
(0.00303351 0.00226274 0)
(0.00188504 0.00176259 0)
(0.00100128 0.0012035 0)
(0.000362932 0.000640765 0)
(4.87137e-05 0.000121679 0)
(8.18551e-05 -0.000530839 0)
(0.000550742 -0.00162384 0)
(0.00143304 -0.00258034 0)
(0.00255491 -0.00334556 0)
(0.00388987 -0.00385634 0)
(0.00530403 -0.00411573 0)
(0.0067444 -0.00412797 0)
(0.00811339 -0.00393059 0)
(0.00936404 -0.0035616 0)
(0.0104372 -0.00307167 0)
(0.0113078 -0.002507 0)
(0.0119516 -0.00191305 0)
(0.0123662 -0.00132587 0)
(0.0125515 -0.000773336 0)
(0.0125182 -0.00027158 0)
(0.0122763 0.000173608 0)
(0.0118368 0.00056708 0)
(0.0112052 0.00092208 0)
(0.0103816 0.0012585 0)
(0.00935747 0.00159997 0)
(0.00811612 0.00197136 0)
(0.00663226 0.00239613 0)
(0.00487371 0.00289448 0)
(0.00280249 0.00348209 0)
(0.000377028 0.00416978 0)
(-0.00244621 0.0049638 0)
(-0.00571086 0.00586663 0)
(-0.00945921 0.00687776 0)
(-0.0137306 0.00799433 0)
(-0.0185601 0.00921133 0)
(-0.0239765 0.0105215 0)
(-0.030001 0.0119147 0)
(-0.0366449 0.0133778 0)
(-0.0439082 0.0148938 0)
(-0.0517774 0.016442 0)
(-0.0602249 0.0179978 0)
(-0.0692077 0.0195336 0)
(-0.078668 0.0210187 0)
(-0.0885336 0.0224211 0)
(-0.0987195 0.023708 0)
(-0.109131 0.0248475 0)
(-0.119664 0.0258096 0)
(-0.130213 0.0265673 0)
(-0.14067 0.0270976 0)
(-0.150929 0.0273822 0)
(-0.16089 0.0274082 0)
(-0.170458 0.0271674 0)
(-0.17955 0.026657 0)
(-0.188091 0.0258786 0)
(-0.196015 0.0248377 0)
(-0.20327 0.0235433 0)
(-0.209808 0.022007 0)
(-0.215593 0.0202423 0)
(-0.220595 0.0182645 0)
(-0.224793 0.0160897 0)
(-0.228169 0.0137347 0)
(-0.230709 0.0112168 0)
(-0.232406 0.00855389 0)
(-0.233251 0.0057641 0)
(-0.233243 0.00286616 0)
(-0.23238 -0.000120488 0)
(-0.230662 -0.00317545 0)
(-0.228091 -0.00627712 0)
(-0.224672 -0.00940237 0)
(-0.220413 -0.0125263 0)
(-0.215323 -0.0156221 0)
(-0.209415 -0.0186607 0)
(-0.202708 -0.0216108 0)
(-0.195223 -0.0244393 0)
(-0.18699 -0.0271107 0)
(-0.178042 -0.0295884 0)
(-0.168424 -0.0318347 0)
(-0.158184 -0.0338121 0)
(-0.147383 -0.0354835 0)
(-0.136088 -0.0368146 0)
(-0.124378 -0.0377739 0)
(-0.112339 -0.0383353 0)
(-0.100064 -0.0384785 0)
(-0.0876573 -0.038191 0)
(-0.0752249 -0.0374689 0)
(-0.0628786 -0.036318 0)
(-0.0507315 -0.0347538 0)
(-0.0388964 -0.032802 0)
(-0.0274829 -0.0304979 0)
(-0.0165956 -0.0278856 0)
(-0.00633152 -0.0250165 0)
(0.00322145 -0.0219484 0)
(0.0119864 -0.0187429 0)
(0.0198987 -0.0154644 0)
(0.0269067 -0.0121774 0)
(0.0329729 -0.00894528 0)
(0.0380742 -0.00582835 0)
(0.0422027 -0.00288206 0)
(0.045366 -0.000155595 0)
(0.0475873 0.00230959 0)
(0.0489056 0.00448096 0)
(0.0493749 0.00633588 0)
(0.0490636 0.00786226 0)
(0.0480522 0.00905871 0)
(0.0464315 0.00993418 0)
(0.0442987 0.0105071 0)
(0.0417548 0.0108039 0)
(0.0388998 0.0108572 0)
(0.0358304 0.0107037 0)
(0.0326349 0.0103822 0)
(0.0293933 0.00993106 0)
(0.026172 0.00938728 0)
(0.0230277 0.00878376 0)
(0.0200014 0.00814935 0)
(0.0171276 0.00750564 0)
(0.0144242 0.00686851 0)
(0.0119113 0.00624295 0)
(0.00959111 0.0056282 0)
(0.00748261 0.00500896 0)
(0.00558028 0.00436977 0)
(0.00391907 0.00367928 0)
(0.00248926 0.00292631 0)
(0.0013613 0.00208719 0)
(0.000513436 0.00120939 0)
(7.52196e-05 0.000332852 0)
(9.42672e-05 -0.000818424 0)
(0.000629974 -0.00235545 0)
(0.00162525 -0.00364951 0)
(0.00286936 -0.00464839 0)
(0.00432683 -0.00529559 0)
(0.00584291 -0.00559808 0)
(0.00735998 -0.00557001 0)
(0.00877108 -0.00526082 0)
(0.0100282 -0.00472363 0)
(0.0110689 -0.0040246 0)
(0.0118689 -0.00322511 0)
(0.0124028 -0.0023838 0)
(0.012668 -0.00154726 0)
(0.0126627 -0.000750485 0)
(0.0123951 -1.31886e-05 0)
(0.0118707 0.000658921 0)
(0.011095 0.00127402 0)
(0.0100657 0.00185139 0)
(0.0087745 0.0024188 0)
(0.00720276 0.00300871 0)
(0.00532341 0.0036547 0)
(0.00310058 0.00438802 0)
(0.000491959 0.00523501 0)
(-0.0025496 0.00621554 0)
(-0.00607335 0.00734252 0)
(-0.0101287 0.00862231 0)
(-0.0147626 0.0100556 0)
(-0.0200179 0.0116384 0)
(-0.0259309 0.0133623 0)
(-0.0325293 0.0152152 0)
(-0.0398298 0.0171804 0)
(-0.0478354 0.0192363 0)
(-0.0565342 0.0213562 0)
(-0.0658966 0.0235082 0)
(-0.0758751 0.025655 0)
(-0.086404 0.0277555 0)
(-0.0974005 0.0297656 0)
(-0.108767 0.03164 0)
(-0.120394 0.0333341 0)
(-0.132164 0.0348057 0)
(-0.143956 0.036017 0)
(-0.155649 0.036936 0)
(-0.16713 0.0375376 0)
(-0.178289 0.0378041 0)
(-0.189032 0.0377252 0)
(-0.199274 0.0372979 0)
(-0.208944 0.0365254 0)
(-0.217982 0.0354163 0)
(-0.226342 0.0339836 0)
(-0.233988 0.0322436 0)
(-0.240893 0.0302147 0)
(-0.247036 0.0279169 0)
(-0.252405 0.0253707 0)
(-0.256991 0.0225969 0)
(-0.260786 0.0196159 0)
(-0.263788 0.0164479 0)
(-0.265993 0.0131127 0)
(-0.2674 0.00962966 0)
(-0.268007 0.00601825 0)
(-0.267813 0.00229801 0)
(-0.266815 -0.00151093 0)
(-0.265011 -0.00538746 0)
(-0.262399 -0.00930903 0)
(-0.258978 -0.0132513 0)
(-0.254748 -0.0171876 0)
(-0.249709 -0.0210888 0)
(-0.243865 -0.0249227 0)
(-0.237223 -0.0286542 0)
(-0.229792 -0.0322452 0)
(-0.22159 -0.0356546 0)
(-0.212637 -0.0388389 0)
(-0.202964 -0.0417527 0)
(-0.192607 -0.0443499 0)
(-0.181615 -0.0465845 0)
(-0.170043 -0.0484122 0)
(-0.157959 -0.0497921 0)
(-0.145442 -0.0506882 0)
(-0.13258 -0.0510718 0)
(-0.11947 -0.0509227 0)
(-0.10622 -0.0502309 0)
(-0.0929405 -0.0489982 0)
(-0.0797492 -0.0472383 0)
(-0.0667639 -0.0449777 0)
(-0.0541011 -0.042255 0)
(-0.0418734 -0.0391199 0)
(-0.0301865 -0.0356317 0)
(-0.0191372 -0.0318576 0)
(-0.0088117 -0.0278704 0)
(0.00071575 -0.0237462 0)
(0.0093835 -0.0195626 0)
(0.0171428 -0.0153959 0)
(0.0239578 -0.0113201 0)
(0.0298057 -0.00740447 0)
(0.0346768 -0.00371264 0)
(0.0385747 -0.000300785 0)
(0.0415167 0.00278361 0)
(0.043534 0.00550307 0)
(0.0446721 0.00783124 0)
(0.0449902 0.00975383 0)
(0.0445609 0.0112689 0)
(0.0434675 0.0123869 0)
(0.0418025 0.0131296 0)
(0.0396633 0.0135287 0)
(0.0371499 0.0136239 0)
(0.0343593 0.0134601 0)
(0.0313847 0.0130849 0)
(0.0283085 0.0125462 0)
(0.0252058 0.0118891 0)
(0.0221357 0.0111544 0)
(0.0191514 0.010375 0)
(0.0162868 0.00957642 0)
(0.0135778 0.00877103 0)
(0.0110376 0.00796227 0)
(0.00869722 0.00713658 0)
(0.0065562 0.006276 0)
(0.00466076 0.0053451 0)
(0.00300167 0.00432303 0)
(0.00166909 0.00317692 0)
(0.00064254 0.00193372 0)
(9.77367e-05 0.000615088 0)
(0.000102754 -0.00114334 0)
(0.000688433 -0.00317389 0)
(0.00176837 -0.00483053 0)
(0.00309988 -0.00606681 0)
(0.0046367 -0.00683732 0)
(0.00620411 -0.00715714 0)
(0.00773882 -0.00705471 0)
(0.00912551 -0.00659457 0)
(0.0103157 -0.00584776 0)
(0.0112456 -0.00489741 0)
(0.0118925 -0.00382102 0)
(0.0122314 -0.00269025 0)
(0.0122601 -0.00156154 0)
(0.0119752 -0.000475666 0)
(0.0113818 0.000545739 0)
(0.0104797 0.00149891 0)
(0.00926669 0.00239718 0)
(0.00773111 0.00326753 0)
(0.00585344 0.0041469 0)
(0.00360327 0.00507734 0)
(0.000941636 0.00610128 0)
(-0.00217851 0.00725719 0)
(-0.00580906 0.00857639 0)
(-0.0100045 0.0100811 0)
(-0.0148186 0.0117841 0)
(-0.0203017 0.0136888 0)
(-0.026498 0.0157909 0)
(-0.0334426 0.0180787 0)
(-0.041159 0.0205337 0)
(-0.0496561 0.0231311 0)
(-0.0589257 0.0258388 0)
(-0.0689398 0.0286178 0)
(-0.0796499 0.0314225 0)
(-0.090986 0.0342009 0)
(-0.102858 0.0368966 0)
(-0.115159 0.0394509 0)
(-0.127766 0.0418049 0)
(-0.140551 0.0439026 0)
(-0.153378 0.0456934 0)
(-0.166117 0.0471342 0)
(-0.178643 0.0481911 0)
(-0.190843 0.0488399 0)
(-0.202617 0.0490667 0)
(-0.213881 0.0488671 0)
(-0.224567 0.0482451 0)
(-0.234621 0.0472118 0)
(-0.244004 0.0457839 0)
(-0.252686 0.0439818 0)
(-0.260651 0.041829 0)
(-0.267886 0.0393498 0)
(-0.274385 0.0365694 0)
(-0.280146 0.0335123 0)
(-0.28517 0.0302025 0)
(-0.289457 0.0266625 0)
(-0.293009 0.0229141 0)
(-0.295826 0.0189774 0)
(-0.297909 0.0148721 0)
(-0.299256 0.0106169 0)
(-0.299864 0.00623028 0)
(-0.29973 0.00173101 0)
(-0.298847 -0.00286155 0)
(-0.297209 -0.0075268 0)
(-0.294809 -0.0122424 0)
(-0.291639 -0.0169838 0)
(-0.287691 -0.0217234 0)
(-0.282956 -0.0264306 0)
(-0.27743 -0.0310709 0)
(-0.271106 -0.0356059 0)
(-0.263985 -0.0399932 0)
(-0.256069 -0.0441864 0)
(-0.247365 -0.0481353 0)
(-0.23789 -0.0517868 0)
(-0.227665 -0.0550857 0)
(-0.216724 -0.0579759 0)
(-0.205108 -0.0604022 0)
(-0.192874 -0.0623121 0)
(-0.180087 -0.0636583 0)
(-0.16683 -0.0644006 0)
(-0.153193 -0.0645083 0)
(-0.139282 -0.0639628 0)
(-0.125209 -0.0627589 0)
(-0.111098 -0.0609063 0)
(-0.0970724 -0.0584304 0)
(-0.0832613 -0.0553716 0)
(-0.0697889 -0.0517849 0)
(-0.0567742 -0.0477375 0)
(-0.0443271 -0.0433069 0)
(-0.0325458 -0.0385779 0)
(-0.0215155 -0.0336396 0)
(-0.0113071 -0.0285828 0)
(-0.00197719 -0.0234972 0)
(0.00643109 -0.0184694 0)
(0.0138875 -0.0135815 0)
(0.0203738 -0.00890898 0)
(0.0258829 -0.00452037 0)
(0.0304189 -0.000475604 0)
(0.0339971 0.0031749 0)
(0.0366449 0.00639148 0)
(0.0384014 0.00914647 0)
(0.0393192 0.0114252 0)
(0.0394628 0.0132265 0)
(0.0389088 0.0145631 0)
(0.0377426 0.0154604 0)
(0.0360575 0.0159554 0)
(0.0339492 0.0160941 0)
(0.0315147 0.0159286 0)
(0.0288451 0.0155147 0)
(0.0260277 0.0149072 0)
(0.0231363 0.0141581 0)
(0.0202403 0.0133121 0)
(0.0173893 0.0124049 0)
(0.0146354 0.0114584 0)
(0.0120044 0.0104819 0)
(0.00954143 0.00946604 0)
(0.00725403 0.0083913 0)
(0.0052016 0.00721941 0)
(0.00337921 0.00591771 0)
(0.00189631 0.00444191 0)
(0.000736706 0.00278977 0)
(0.000113458 0.000956849 0)
(0.000110269 -0.00149165 0)
(0.000735708 -0.00404876 0)
(0.00187751 -0.00607946 0)
(0.00326473 -0.00754454 0)
(0.00483894 -0.00841351 0)
(0.00640722 -0.00871443 0)
(0.00790042 -0.00849479 0)
(0.00919647 -0.007838 0)
(0.0102474 -0.00683586 0)
(0.0109894 -0.00558993 0)
(0.0114026 -0.00419419 0)
(0.0114632 -0.0027325 0)
(0.0111698 -0.00126963 0)
(0.0105169 0.000150051 0)
(0.00950547 0.00150542 0)
(0.00812801 0.00279714 0)
(0.00637291 0.00404589 0)
(0.00421687 0.00528806 0)
(0.00162758 0.00657074 0)
(-0.0014384 0.0079456 0)
(-0.00503213 0.00946303 0)
(-0.00921079 0.0111669 0)
(-0.0140333 0.0130908 0)
(-0.0195576 0.0152559 0)
(-0.0258358 0.0176707 0)
(-0.0329122 0.0203314 0)
(-0.0408185 0.0232233 0)
(-0.0495716 0.0263211 0)
(-0.05917 0.0295903 0)
(-0.0695909 0.0329864 0)
(-0.0807886 0.0364564 0)
(-0.092693 0.0399387 0)
(-0.105211 0.0433649 0)
(-0.118228 0.0466626 0)
(-0.131614 0.0497581 0)
(-0.145228 0.0525799 0)
(-0.158923 0.0550624 0)
(-0.172556 0.0571492 0)
(-0.185992 0.0587947 0)
(-0.199111 0.0599662 0)
(-0.211806 0.0606439 0)
(-0.223993 0.0608202 0)
(-0.235601 0.0604983 0)
(-0.246582 0.0596908 0)
(-0.256899 0.058417 0)
(-0.266529 0.0567013 0)
(-0.27546 0.0545716 0)
(-0.283687 0.0520568 0)
(-0.29121 0.0491866 0)
(-0.298032 0.04599 0)
(-0.304159 0.0424945 0)
(-0.309596 0.038726 0)
(-0.31435 0.0347088 0)
(-0.318425 0.030465 0)
(-0.321825 0.0260151 0)
(-0.324552 0.0213782 0)
(-0.326607 0.0165722 0)
(-0.327987 0.0116141 0)
(-0.328691 0.00652083 0)
(-0.328712 0.0013093 0)
(-0.328043 -0.00400264 0)
(-0.326676 -0.00939586 0)
(-0.3246 -0.0148492 0)
(-0.321803 -0.0203389 0)
(-0.318271 -0.025838 0)
(-0.313991 -0.0313156 0)
(-0.308947 -0.0367366 0)
(-0.303126 -0.0420608 0)
(-0.296515 -0.0472432 0)
(-0.289102 -0.0522335 0)
(-0.280882 -0.0569763 0)
(-0.271851 -0.0614117 0)
(-0.262017 -0.0654761 0)
(-0.251392 -0.0691036 0)
(-0.240001 -0.0722275 0)
(-0.227882 -0.0747826 0)
(-0.215084 -0.0767078 0)
(-0.201674 -0.0779488 0)
(-0.187734 -0.0784611 0)
(-0.173361 -0.0782129 0)
(-0.158667 -0.0771882 0)
(-0.143777 -0.075388 0)
(-0.128825 -0.0728326 0)
(-0.113951 -0.0695612 0)
(-0.0992963 -0.0656314 0)
(-0.0849995 -0.0611174 0)
(-0.0711904 -0.056107 0)
(-0.0579873 -0.0506979 0)
(-0.045493 -0.0449943 0)
(-0.0337935 -0.0391025 0)
(-0.022957 -0.0331276 0)
(-0.0130348 -0.0271706 0)
(-0.00406243 -0.0213264 0)
(0.00393809 -0.0156824 0)
(0.0109563 -0.0103175 0)
(0.0169919 -0.00530176 0)
(0.0220534 -0.000695605 0)
(0.0261583 0.00345069 0)
(0.0293332 0.00709809 0)
(0.0316153 0.01022 0)
(0.033052 0.0128031 0)
(0.033703 0.0148488 0)
(0.0336379 0.0163726 0)
(0.0329373 0.0174042 0)
(0.0316879 0.0179853 0)
(0.0299828 0.0181676 0)
(0.0279135 0.0180096 0)
(0.0255731 0.0175724 0)
(0.0230437 0.0169165 0)
(0.0204072 0.0160965 0)
(0.017726 0.0151581 0)
(0.015067 0.0141332 0)
(0.0124691 0.0130382 0)
(0.00999171 0.0118693 0)
(0.00765269 0.0106064 0)
(0.00552515 0.00920947 0)
(0.00361164 0.00763281 0)
(0.00203851 0.00581907 0)
(0.000796051 0.00373177 0)
(0.000123291 0.00133633 0)
(0.000116583 -0.0018638 0)
(0.000772391 -0.00497276 0)
(0.00195536 -0.00738091 0)
(0.00336786 -0.00905862 0)
(0.00493847 -0.00999384 0)
(0.00645785 -0.0102323 0)
(0.00785129 -0.00984548 0)
(0.00899178 -0.0089396 0)
(0.0098328 -0.0076303 0)
(0.0103122 -0.00603904 0)
(0.0104136 -0.00427647 0)
(0.010115 -0.00243758 0)
(0.0094154 -0.000593451 0)
(0.00830656 0.00121062 0)
(0.00678383 0.00295688 0)
(0.00483096 0.00465321 0)
(0.00242506 0.00632994 0)
(-0.000470297 0.00803435 0)
(-0.00390099 0.00982405 0)
(-0.00792326 0.0117595 0)
(-0.0125986 0.013897 0)
(-0.0179911 0.0162823 0)
(-0.0241618 0.0189471 0)
(-0.0311648 0.0219065 0)
(-0.0390427 0.0251591 0)
(-0.0478228 0.0286875 0)
(-0.0575134 0.0324598 0)
(-0.0681006 0.0364307 0)
(-0.0795452 0.0405424 0)
(-0.091782 0.0447257 0)
(-0.104719 0.0489021 0)
(-0.11824 0.052986 0)
(-0.132208 0.0568883 0)
(-0.146473 0.060521 0)
(-0.160878 0.0638015 0)
(-0.175267 0.0666567 0)
(-0.189494 0.0690266 0)
(-0.203425 0.0708664 0)
(-0.216947 0.0721469 0)
(-0.229967 0.0728544 0)
(-0.242415 0.0729891 0)
(-0.254238 0.0725627 0)
(-0.265401 0.0715958 0)
(-0.275884 0.0701158 0)
(-0.285677 0.068154 0)
(-0.294779 0.0657439 0)
(-0.303194 0.0629196 0)
(-0.31093 0.0597145 0)
(-0.317996 0.0561607 0)
(-0.324402 0.0522881 0)
(-0.330159 0.0481246 0)
(-0.335276 0.0436956 0)
(-0.339763 0.0390242 0)
(-0.343626 0.0341311 0)
(-0.346872 0.0290356 0)
(-0.349506 0.0237547 0)
(-0.351529 0.0183047 0)
(-0.352943 0.0127008 0)
(-0.353746 0.00695761 0)
(-0.353936 0.00109022 0)
(-0.353506 -0.00488573 0)
(-0.352447 -0.0109532 0)
(-0.350749 -0.0170933 0)
(-0.348397 -0.023284 0)
(-0.345375 -0.0295003 0)
(-0.341664 -0.0357127 0)
(-0.337242 -0.0418869 0)
(-0.332088 -0.0479831 0)
(-0.326176 -0.0539553 0)
(-0.319483 -0.0597513 0)
(-0.311987 -0.0653123 0)
(-0.303666 -0.0705735 0)
(-0.294508 -0.0754642 0)
(-0.284502 -0.0799093 0)
(-0.273651 -0.0838309 0)
(-0.261968 -0.0871505 0)
(-0.24948 -0.0897915 0)
(-0.236231 -0.0916829 0)
(-0.222285 -0.0927627 0)
(-0.207723 -0.0929815 0)
(-0.192649 -0.0923065 0)
(-0.177184 -0.0907246 0)
(-0.161466 -0.088245 0)
(-0.145647 -0.0849001 0)
(-0.129885 -0.0807459 0)
(-0.114343 -0.0758606 0)
(-0.0991777 -0.0703409 0)
(-0.0845365 -0.0642987 0)
(-0.0705509 -0.0578554 0)
(-0.0573331 -0.0511367 0)
(-0.0449729 -0.0442677 0)
(-0.0335373 -0.0373686 0)
(-0.0230724 -0.0305512 0)
(-0.0136052 -0.0239172 0)
(-0.00514724 -0.0175574 0)
(0.00230199 -0.0115512 0)
(0.00875217 -0.00596733 0)
(0.0142204 -0.000863539 0)
(0.0187301 0.00371313 0)
(0.0223117 0.00772715 0)
(0.0250027 0.0111555 0)
(0.0268501 0.0139889 0)
(0.0279096 0.0162324 0)
(0.028248 0.0179061 0)
(0.0279398 0.0190444 0)
(0.0270687 0.019694 0)
(0.0257211 0.0199118 0)
(0.0239886 0.019761 0)
(0.0219566 0.0193064 0)
(0.0197133 0.0186102 0)
(0.0173306 0.0177263 0)
(0.0148869 0.0166956 0)
(0.012433 0.0155412 0)
(0.0100415 0.0142657 0)
(0.007742 0.0128492 0)
(0.00562059 0.0112502 0)
(0.00368971 0.00941012 0)
(0.00208914 0.00725818 0)
(0.000817 0.00472254 0)
(0.000126312 0.00173742 0)
(0.000122611 -0.00225239 0)
(0.000801027 -0.00592557 0)
(0.002005 -0.00870181 0)
(0.00341148 -0.0105633 0)
(0.00493539 -0.0115211 0)
(0.00635343 -0.0116437 0)
(0.00758635 -0.0110319 0)
(0.00850469 -0.00981894 0)
(0.00906472 -0.00814702 0)
(0.00920744 -0.0061585 0)
(0.00892047 -0.00398023 0)
(0.00818367 -0.00171644 0)
(0.00699561 0.000558228 0)
(0.00534402 0.00280082 0)
(0.00321696 0.00500026 0)
(0.000587643 0.00717453 0)
(-0.00257954 0.00936562 0)
(-0.00633476 0.0116324 0)
(-0.0107369 0.0140423 0)
(-0.015853 0.0166622 0)
(-0.021751 0.0195501 0)
(-0.0284958 0.0227489 0)
(-0.0361428 0.0262819 0)
(-0.0447331 0.0301514 0)
(-0.0542886 0.0343387 0)
(-0.0648082 0.0388054 0)
(-0.0762642 0.0434954 0)
(-0.0886007 0.0483365 0)
(-0.101732 0.053243 0)
(-0.115545 0.0581183 0)
(-0.129901 0.0628592 0)
(-0.144644 0.0673606 0)
(-0.159607 0.0715212 0)
(-0.174623 0.0752487 0)
(-0.189528 0.0784649 0)
(-0.204178 0.0811085 0)
(-0.218446 0.0831369 0)
(-0.232227 0.0845266 0)
(-0.245443 0.0852709 0)
(-0.258036 0.0853781 0)
(-0.269968 0.084868 0)
(-0.281215 0.083769 0)
(-0.291769 0.0821152 0)
(-0.30163 0.0799439 0)
(-0.310802 0.0772936 0)
(-0.319296 0.0742024 0)
(-0.327125 0.0707075 0)
(-0.334302 0.0668437 0)
(-0.340842 0.0626437 0)
(-0.346759 0.0581374 0)
(-0.352069 0.0533522 0)
(-0.356783 0.0483125 0)
(-0.360916 0.0430407 0)
(-0.36448 0.0375563 0)
(-0.367486 0.0318769 0)
(-0.369942 0.0260182 0)
(-0.371856 0.0199946 0)
(-0.373235 0.0138189 0)