/*--------------------------------*- C++ -*----------------------------------*\
| =========                 |                                                 |
| \\      /  F ield         | OpenFOAM: The Open Source CFD Toolbox           |
|  \\    /   O peration     | Version:  2406                                  |
|   \\  /    A nd           | Website:  www.openfoam.com                      |
|    \\/     M anipulation  |                                                 |
\*---------------------------------------------------------------------------*/
FoamFile
{
    version     2.0;
    format      ascii;
    arch        "LSB;label=32;scalar=64";
    class       volScalarField;
    location    "10.75";
    object      p;
}
// * * * * * * * * * * * * * * * * * * * * * * * * * * * * * * * * * * * * * //

dimensions      [0 2 -2 0 0 0 0];

internalField   nonuniform List<scalar> 
14400
(
-1.09027e-08
-1.52796e-06
-4.51794e-06
-8.44683e-06
-1.26576e-05
-1.67137e-05
-2.03352e-05
-2.33631e-05
-2.57263e-05
-2.74107e-05
-2.8437e-05
-2.88438e-05
-2.86768e-05
-2.79803e-05
-2.67937e-05
-2.5148e-05
-2.30654e-05
-2.05587e-05
-1.76317e-05
-1.42801e-05
-1.04921e-05
-6.2497e-06
-1.52934e-06
3.69715e-06
9.46185e-06
1.58002e-05
2.27501e-05
3.0352e-05
3.86476e-05
4.76802e-05
5.74937e-05
6.81325e-05
7.96412e-05
9.20639e-05
0.000105444
0.000119823
0.000135241
0.000151736
0.000169343
0.000188095
0.000208018
0.000229135
0.000251465
0.000275019
0.000299803
0.000325816
0.000353047
0.00038148
0.000411086
0.00044183
0.000473664
0.000506532
0.000540366
0.000575086
0.0006106
0.000646807
0.000683593
0.000720838
0.000758398
0.000796131
0.000833884
0.000871492
0.000908785
0.000945588
0.00098172
0.001017
0.00105124
0.00108426
0.00111589
0.00114595
0.00117428
0.00120072
0.00122514
0.0012474
0.0012674
0.00128504
0.00130026
0.00131299
0.00132321
0.0013309
0.00133609
0.0013388
0.00133909
0.00133704
0.00133273
0.00132628
0.00131781
0.00130748
0.00129541
0.00128179
0.00126678
0.00125054
0.00123327
0.00121512
0.00119629
0.00117695
0.00115725
0.00113738
0.00111748
0.00109772
0.00107822
0.00105914
0.00104059
0.00102269
0.00100556
0.000989294
0.000973993
0.00095976
0.000946672
0.000934808
0.00092425
0.000915072
0.000907346
0.000901137
0.000896493
0.000893433
0.000891911
0.000891767
0.000892695
0.000893797
1.50076e-06
-3.35535e-08
-2.74841e-06
-6.19267e-06
-9.86844e-06
-1.34071e-05
-1.65707e-05
-1.92181e-05
-2.12791e-05
-2.27325e-05
-2.3588e-05
-2.38726e-05
-2.36203e-05
-2.2866e-05
-2.16407e-05
-1.9969e-05
-1.78681e-05
-1.53472e-05
-1.24076e-05
-9.04361e-06
-5.24271e-06
-9.86554e-07
3.74824e-06
8.9894e-06
1.47684e-05
2.11196e-05
2.80804e-05
3.56897e-05
4.39886e-05
5.30191e-05
6.28241e-05
7.34469e-05
8.49307e-05
9.73185e-05
0.000110652
0.000124973
0.00014032
0.000156729
0.000174235
0.000192869
0.000212656
0.00023362
0.000255777
0.000279139
0.000303711
0.00032949
0.000356468
0.000384626
0.000413937
0.000444366
0.000475865
0.000508379
0.000541841
0.000576171
0.000611282
0.000647071
0.000683428
0.000720227
0.000757339
0.000794619
0.000831913
0.000869063
0.000905901
0.000942252
0.00097794
0.00101279
0.00104661
0.00107923
0.00111047
0.00114017
0.00116816
0.00119429
0.00121842
0.00124043
0.00126021
0.00127766
0.00129272
0.00130533
0.00131547
0.00132312
0.0013283
0.00133103
0.00133138
0.00132941
0.00132523
0.00131894
0.00131066
0.00130053
0.0012887
0.00127534
0.0012606
0.00124467
0.0012277
0.00120989
0.0011914
0.0011724
0.00115306
0.00113355
0.00111402
0.00109463
0.00107551
0.00105679
0.00103861
0.00102109
0.00100433
0.000988432
0.000973503
0.000959616
0.00094686
0.000935312
0.000925045
0.000916123
0.000908608
0.000902547
0.000897976
0.000894898
0.00089326
0.000892933
0.000893793
0.000894896
4.52739e-06
2.64841e-06
-1.21166e-07
-3.18794e-06
-6.34357e-06
-9.33583e-06
-1.19859e-05
-1.41849e-05
-1.58745e-05
-1.70323e-05
-1.76603e-05
-1.77748e-05
-1.73989e-05
-1.65571e-05
-1.52713e-05
-1.35587e-05
-1.14304e-05
-8.89122e-06
-5.93926e-06
-2.5665e-06
1.24083e-06
5.50166e-06
1.02395e-05
1.54818e-05
2.12594e-05
2.76061e-05
3.45581e-05
4.21535e-05
5.04319e-05
5.94344e-05
6.92025e-05
7.97784e-05
9.12041e-05
0.000103521
0.00011677
0.000130992
0.000146223
0.000162499
0.000179853
0.000198316
0.000217912
0.000238664
0.000260587
0.000283693
0.000307987
0.000333466
0.00036012
0.000387933
0.000416877
0.000446918
0.000478009
0.000510096
0.000543114
0.000576984
0.00061162
0.000646922
0.000682783
0.000719078
0.00075568
0.000792448
0.000829231
0.000865873
0.000902207
0.000938065
0.00097327
0.00100765
0.00104102
0.00107321
0.00110404
0.00113335
0.00116098
0.00118678
0.00121061
0.00123235
0.00125189
0.00126914
0.00128404
0.00129652
0.00130656
0.00131415
0.0013193
0.00132205
0.00132244
0.00132056
0.00131649
0.00131034
0.00130223
0.00129231
0.00128071
0.0012676
0.00125315
0.00123751
0.00122087
0.00120339
0.00118525
0.00116662
0.00114766
0.00112855
0.00110942
0.00109043
0.00107173
0.00105343
0.00103568
0.00101858
0.00100224
0.000986773
0.000972255
0.000958775
0.000946412
0.000935238
0.000925313
0.000916695
0.000909428
0.000903546
0.000899069
0.000895988
0.000894251
0.000893772
0.000894647
0.000895832
8.55933e-06
6.08148e-06
2.80258e-06
-3.08477e-07
-3.3026e-06
-6.02716e-06
-8.36312e-06
-1.02452e-05
-1.16415e-05
-1.25427e-05
-1.29559e-05
-1.2897e-05
-1.23861e-05
-1.14427e-05
-1.00838e-05
-8.32154e-06
-6.1628e-06
-3.60851e-06
-6.53815e-07
2.7117e-06
6.50351e-06
1.07417e-05
1.54504e-05
2.06575e-05
2.63938e-05
3.2693e-05
3.95908e-05
4.71248e-05
5.53343e-05
6.42595e-05
7.39413e-05
8.44212e-05
9.57405e-05
0.00010794
0.000121061
0.000135141
0.000150218
0.000166327
0.000183501
0.000201769
0.000221157
0.000241687
0.000263375
0.000286232
0.000310263
0.000335467
0.000361835
0.00038935
0.000417987
0.000447711
0.000478479
0.000510237
0.000542921
0.000576454
0.000610752
0.000645717
0.000681242
0.000717208
0.000753485
0.000789935
0.00082641
0.000862753
0.0008988
0.000934383
0.000969327
0.00100346
0.0010366
0.00106857
0.0010992
0.00112833
0.00115578
0.00118143
0.00120512
0.00122673
0.00124616
0.00126331
0.00127811
0.00129052
0.0013005
0.00130804
0.00131315
0.00131587
0.00131625
0.00131437
0.00131031
0.00130418
0.00129611
0.00128624
0.00127471
0.00126168
0.00124732
0.0012318
0.00121528
0.00119795
0.00117996
0.00116151
0.00114274
0.00112383
0.00110492
0.00108616
0.0010677
0.00104967
0.00103218
0.00101536
0.000999304
0.000984119
0.000969889
0.000956698
0.000944617
0.000933711
0.000924035
0.000915638
0.000908556
0.000902816
0.000898432
0.000895401
0.000893683
0.000893241
0.000894319
0.000895717
1.29005e-05
9.71971e-06
5.74694e-06
2.39856e-06
-6.09574e-07
-3.2093e-06
-5.33823e-06
-6.97738e-06
-8.12712e-06
-8.79753e-06
-9.00664e-06
-8.77578e-06
-8.12603e-06
-7.07583e-06
-5.63941e-06
-3.82579e-06
-1.63846e-06
9.24722e-07
3.87138e-06
7.21422e-06
1.09706e-05
1.5162e-05
1.98136e-05
2.49539e-05
3.06141e-05
3.68281e-05
4.36317e-05
5.10623e-05
5.91591e-05
6.79618e-05
7.75114e-05
8.78487e-05
9.90151e-05
0.000111051
0.000123997
0.000137892
0.000152772
0.000168674
0.000185631
0.000203671
0.000222821
0.000243103
0.000264534
0.000287127
0.000310887
0.000335814
0.000361901
0.000389132
0.000417482
0.000446921
0.000477404
0.00050888
0.000541287
0.000574551
0.000608588
0.000643302
0.000678586
0.000714325
0.00075039
0.000786642
0.000822934
0.000859112
0.00089501
0.000930461
0.00096529
0.00099932
0.00103237
0.00106427
0.00109485
0.00112392
0.00115134
0.00117695
0.00120061
0.0012222
0.0012416
0.00125873
0.00127351
0.00128589
0.00129584
0.00130334
0.00130842
0.00131109
0.00131143
0.00130949
0.00130538
0.00129921
0.00129109
0.00128118
0.00126961
0.00125655
0.00124217
0.00122664
0.00121012
0.00119281
0.00117486
0.00115645
0.00113775
0.00111892
0.00110012
0.00108148
0.00106316
0.00104528
0.00102797
0.00101133
0.000995476
0.000980499
0.000966485
0.000953513
0.000941649
0.000930953
0.000921476
0.000913258
0.000906331
0.000900716
0.000896426
0.000893465
0.000891806
0.000891442
0.000892701
0.000894267
1.70083e-05
1.30831e-05
8.33989e-06
4.64854e-06
1.51625e-06
-1.05817e-06
-3.06257e-06
-4.52259e-06
-5.47196e-06
-5.94294e-06
-5.96798e-06
-5.57695e-06
-4.79526e-06
-3.64268e-06
-2.13287e-06
-2.73212e-07
1.93502e-06
4.49641e-06
7.42086e-06
1.07232e-05
1.44224e-05
1.85417e-05
2.31074e-05
2.81488e-05
3.36979e-05
3.9789e-05
4.64582e-05
5.37433e-05
6.16834e-05
7.03186e-05
7.96898e-05
8.9838e-05
0.000100805
0.000112631
0.000125357
0.000139022
0.000153663
0.000169318
0.000186019
0.000203796
0.000222678
0.000242687
0.000263841
0.000286154
0.000309635
0.000334283
0.000360092
0.000387051
0.000415135
0.000444315
0.000474551
0.000505791
0.000537976
0.000571033
0.00060488
0.000639423
0.000674558
0.000710167
0.000746124
0.000782291
0.000818522
0.000854659
0.000890539
0.000925992
0.000960843
0.000994912
0.00102802
0.00105999
0.00109063
0.00111979
0.0011473
0.001173
0.00119674
0.00121841
0.00123788
0.00125506
0.00126989
0.00128229
0.00129225
0.00129974
0.00130478
0.00130741
0.00130768
0.00130567
0.00130146
0.00129518
0.00128695
0.00127691
0.00126522
0.00125203
0.00123753
0.00122188
0.00120526
0.00118785
0.00116983
0.00115136
0.00113262
0.00111377
0.00109497
0.00107635
0.00105807
0.00104026
0.00102303
0.00100649
0.000990756
0.000975913
0.000962045
0.000949226
0.00093752
0.000926982
0.000917656
0.000909579
0.000902778
0.000897269
0.000893068
0.00089018
0.000888588
0.0008883
0.000889677
0.000891344
2.04273e-05
1.57606e-05
1.02275e-05
6.13768e-06
2.81294e-06
1.9464e-07
-1.74873e-06
-3.08378e-06
-3.87654e-06
-4.18212e-06
-4.04885e-06
-3.51708e-06
-2.61839e-06
-1.37573e-06
1.96176e-07
2.09027e-06
4.3065e-06
6.85108e-06
9.73572e-06
1.2977e-05
1.65956e-05
2.0616e-05
2.50659e-05
2.99757e-05
3.53782e-05
4.13085e-05
4.78032e-05
5.49007e-05
6.26406e-05
7.10634e-05
8.02105e-05
9.01236e-05
0.000100845
0.000112415
0.000124876
0.000138268
0.00015263
0.000167998
0.000184407
0.00020189
0.000220475
0.000240186
0.000261045
0.000283066
0.000306259
0.000330627
0.000356167
0.000382866
0.000410706
0.000439657
0.000469682
0.000500732
0.000532748
0.000565661
0.00059939
0.000633842
0.000668913
0.000704488
0.00074044
0.000776632
0.000812916
0.000849134
0.000885123
0.000920708
0.000955714
0.000989957
0.00102325
0.00105542
0.00108628
0.00111566
0.00114337
0.00116928
0.00119322
0.00121507
0.0012347
0.00125203
0.00126696
0.00127945
0.00128946
0.00129698
0.00130201
0.0013046
0.00130479
0.00130267
0.00129834
0.0012919
0.0012835
0.00127327
0.00126137
0.00124798
0.00123327
0.00121741
0.00120059
0.00118299
0.00116479
0.00114616
0.00112728
0.00110831
0.00108941
0.00107073
0.0010524
0.00103456
0.00101733
0.00100082
0.000985132
0.000970353
0.000956564
0.000943837
0.000932232
0.0009218
0.00091258
0.000904606
0.0008979
0.000892477
0.00088835
0.000885527
0.000883996
0.000883766
0.000885208
0.000886921
2.27697e-05
1.7389e-05
1.10826e-05
6.57555e-06
3.0237e-06
3.19377e-07
-1.60705e-06
-2.8592e-06
-3.53317e-06
-3.70612e-06
-3.44245e-06
-2.79355e-06
-1.79818e-06
-4.83567e-07
1.13346e-06
3.04522e-06
5.25205e-06
7.76109e-06
1.05853e-05
1.37427e-05
1.72555e-05
2.11494e-05
2.54533e-05
3.01987e-05
3.54195e-05
4.11515e-05
4.74325e-05
5.43014e-05
6.17987e-05
6.99658e-05
7.88448e-05
8.84784e-05
9.89095e-05
0.000110181
0.000122335
0.000135413
0.000149455
0.000164501
0.000180585
0.000197743
0.000216005
0.000235398
0.000255945
0.000277662
0.000300563
0.000324652
0.000349929
0.000376384
0.000404
0.000432752
0.000462602
0.000493506
0.000525406
0.000558234
0.000591912
0.000626348
0.000661438
0.000697069
0.000733112
0.000769432
0.000805878
0.000842292
0.000878508
0.000914349
0.000949636
0.000984182
0.0010178
0.0010503
0.0010815
0.00111121
0.00113927
0.0011655
0.00118975
0.00121188
0.00123178
0.00124933
0.00126445
0.00127709
0.00128721
0.00129478
0.00129983
0.00130238
0.0013025
0.00130027
0.00129578
0.00128915
0.00128052
0.00127005
0.00125789
0.00124422
0.00122922
0.00121307
0.00119596
0.00117809
0.00115962
0.00114074
0.00112163
0.00110246
0.00108338
0.00106454
0.00104609
0.00102815
0.00101085
0.000994292
0.00097858
0.000963802
0.000950034
0.000937344
0.000925788
0.000915415
0.00090626
0.000898353
0.000891713
0.000886353
0.000882284
0.000879513
0.000878028
0.000877837
0.000879304
0.000881026
2.36977e-05
1.76419e-05
1.05978e-05
5.67821e-06
1.88743e-06
-9.25244e-07
-2.86341e-06
-4.06409e-06
-4.65086e-06
-4.7214e-06
-4.3554e-06
-3.61514e-06
-2.54683e-06
-1.18239e-06
4.58639e-07
2.36736e-06
4.54383e-06
6.99562e-06
9.73653e-06
1.27856e-05
1.61662e-05
1.99052e-05
2.40327e-05
2.85814e-05
3.35861e-05
3.90839e-05
4.51133e-05
5.17145e-05
5.8929e-05
6.67993e-05
7.53689e-05
8.46816e-05
9.47818e-05
0.000105714
0.000117521
0.000130248
0.000143936
0.000158626
0.000174356
0.000191163
0.000209081
0.000228137
0.000248359
0.000269765
0.000292371
0.000316185
0.000341209
0.000367435
0.000394851
0.000423432
0.000453144
0.000483945
0.000515779
0.00054858
0.00058227
0.00061676
0.000651947
0.000687717
0.000723943
0.000760486
0.000797197
0.000833914
0.00087047
0.000906684
0.000942372
0.000977344
0.00101141
0.00104436
0.00107603
0.00110621
0.00113472
0.00116139
0.00118606
0.00120858
0.00122883
0.0012467
0.00126209
0.00127494
0.00128522
0.00129289
0.00129799
0.00130053
0.00130058
0.00129822
0.00129355
0.00128671
0.00127782
0.00126705
0.00125457
0.00124056
0.0012252
0.0012087
0.00119123
0.00117299
0.00115418
0.00113498
0.00111556
0.00109611
0.00107677
0.00105771
0.00103906
0.00102096
0.00100352
0.000986858
0.000971068
0.000956235
0.000942436
0.000929734
0.000918183
0.000907828
0.000898702
0.00089083
0.000884228
0.000878909
0.00087488
0.000872146
0.000870694
0.000870526
0.000871995
0.000873708
2.29086e-05
1.62211e-05
8.48374e-06
3.16886e-06
-8.58947e-07
-3.78956e-06
-5.75742e-06
-6.92995e-06
-7.45574e-06
-7.45119e-06
-7.01009e-06
-6.20498e-06
-5.08924e-06
-3.69954e-06
-2.05831e-06
-1.76068e-07
1.94661e-06
4.31731e-06
6.95033e-06
9.86543e-06
1.30869e-05
1.66427e-05
2.05639e-05
2.48843e-05
2.964e-05
3.4869e-05
4.06112e-05
4.69081e-05
5.38025e-05
6.13383e-05
6.95604e-05
7.85146e-05
8.82467e-05
9.88031e-05
0.00011023
0.000122572
0.000135875
0.000150182
0.000165534
0.000181969
0.000199525
0.000218232
0.00023812
0.000259212
0.000281525
0.000305071
0.000329854
0.000355871
0.00038311
0.000411551
0.000441162
0.000471901
0.000503717
0.000536545
0.000570309
0.00060492
0.000640277
0.000676265
0.000712758
0.000749615
0.000786687
0.000823809
0.00086081
0.000897507
0.000933711
0.000969226
0.00100385
0.00103739
0.00106964
0.0011004
0.00112949
0.00115671
0.00118191
0.00120493
0.00122564
0.0012439
0.00125964
0.00127278
0.00128327
0.0012911
0.00129628
0.00129883
0.00129882
0.00129633
0.00129148
0.00128439
0.00127521
0.00126411
0.00125126
0.00123685
0.00122107
0.00120414
0.00118624
0.00116758
0.00114835
0.00112875
0.00110896
0.00108915
0.0010695
0.00105015
0.00103124
0.00101292
0.000995291
0.000978471
0.000962551
0.000947617
0.000933742
0.000920987
0.000909402
0.000899029
0.000889899
0.000882034
0.000875447
0.000870148
0.000866143
0.000863433
0.000862003
0.000861851
0.000863316
0.000865016
2.01248e-05
1.285e-05
4.46709e-06
-1.21895e-06
-5.4738e-06
-8.52382e-06
-1.0532e-05
-1.16936e-05
-1.21801e-05
-1.21248e-05
-1.16343e-05
-1.07905e-05
-9.6534e-06
-8.26408e-06
-6.64791e-06
-4.81711e-06
-2.77309e-06
-5.08488e-07
1.9912e-06
4.74625e-06
7.78165e-06
1.11263e-05
1.48122e-05
1.88743e-05
2.33498e-05
2.8278e-05
3.37003e-05
3.96594e-05
4.61998e-05
5.33671e-05
6.12082e-05
6.97705e-05
7.91024e-05
8.92524e-05
0.000100269
0.0001122
0.000125094
0.000138995
0.000153949
0.000169997
0.000187179
0.00020553
0.000225081
0.00024586
0.000267886
0.000291174
0.000315733
0.000341561
0.000368649
0.00039698
0.000426525
0.000457245
0.000489089
0.000521996
0.00055589
0.000590685
0.000626279
0.000662558
0.000699396
0.000736652
0.000774174
0.000811796
0.000849342
0.000886627
0.000923455
0.000959626
0.000994932
0.00102917
0.00106212
0.00109358
0.00112336
0.00115126
0.0011771
0.00120072
0.00122198
0.00124074
0.00125691
0.0012704
0.00128118
0.00128921
0.0012945
0.00129709
0.00129704
0.00129443
0.00128938
0.00128203
0.00127253
0.00126105
0.00124778
0.00123292
0.00121668
0.00119925
0.00118086
0.00116171
0.00114201
0.00112194
0.00110171
0.0010815
0.00106146
0.00104177
0.00102255
0.00100396
0.000986092
0.000969068
0.000952978
0.000937903
0.000923915
0.000911071
0.00089942
0.000889
0.000879839
0.000871956
0.000865364
0.000860068
0.000856073
0.000853379
0.000851965
0.000851827
0.000853294
0.000854991
1.50887e-05
7.26988e-06
-1.71072e-06
-7.74083e-06
-1.22084e-05
-1.53745e-05
-1.74287e-05
-1.85923e-05
-1.90576e-05
-1.89732e-05
-1.84572e-05
-1.75999e-05
-1.64671e-05
-1.51039e-05
-1.35384e-05
-1.17845e-05
-9.84448e-06
-7.71131e-06
-5.37045e-06
-2.80127e-06
2.18046e-08
3.1284e-06
6.55156e-06
1.03272e-05
1.44938e-05
1.90921e-05
2.41647e-05
2.97563e-05
3.59129e-05
4.26823e-05
5.01133e-05
5.82559e-05
6.71607e-05
7.6879e-05
8.74619e-05
9.89606e-05
0.000111426
0.000124906
0.000139449
0.000155101
0.000171903
0.000189895
0.000209111
0.000229582
0.000251331
0.000274376
0.000298727
0.000324388
0.000351353
0.000379604
0.000409118
0.000439857
0.000471773
0.000504806
0.000538882
0.000573917
0.000609809
0.000646446
0.000683701
0.000721432
0.000759486
0.000797694
0.000835879
0.000873848
0.000911404
0.000948337
0.000984434
0.00101948
0.00105325
0.00108553
0.00111612
0.00114481
0.00117141
0.00119574
0.00121765
0.001237
0.00125368
0.00126762
0.00127874
0.00128702
0.00129248
0.00129513
0.00129505
0.00129233
0.00128708
0.00127945
0.00126961
0.00125772
0.001244
0.00122864
0.00121187
0.0011939
0.00117496
0.00115526
0.00113501
0.00111443
0.00109371
0.00107302
0.00105256
0.00103247
0.0010129
0.000993988
0.000975846
0.000958582
0.000942286
0.000927039
0.000912907
0.000899947
0.000888204
0.000877713
0.000868498
0.000860579
0.000853965
0.000848659
0.000844665
0.000841981
0.000840584
0.000840465
0.00084195
0.000843659
7.55823e-06
-7.62908e-07
-1.02948e-05
-1.66413e-05
-2.13055e-05
-2.45817e-05
-2.66849e-05
-2.78605e-05
-2.83199e-05
-2.82257e-05
-2.77063e-05
-2.68591e-05
-2.57552e-05
-2.44433e-05
-2.29537e-05
-2.13017e-05
-1.94907e-05
-1.75138e-05
-1.53566e-05
-1.29982e-05
-1.04125e-05
-7.5692e-06
-4.43429e-06
-9.70793e-07
2.86102e-06
7.10328e-06
1.18003e-05
1.69985e-05
2.27461e-05
2.90928e-05
3.609e-05
4.37901e-05
5.22466e-05
6.15135e-05
7.16453e-05
8.26962e-05
9.472e-05
0.000107769
0.000121895
0.000137146
0.000153568
0.000171204
0.000190091
0.000210264
0.000231748
0.000254566
0.00027873
0.000304247
0.000331112
0.000359313
0.000388828
0.000419621
0.000451646
0.000484847
0.00051915
0.000554473
0.000590717
0.000627769
0.000665502
0.000703776
0.000742434
0.000781307
0.000820214
0.000858959
0.000897337
0.000935134
0.000972127
0.00100809
0.0010428
0.00107602
0.00110753
0.00113713
0.00116459
0.00118975
0.00121242
0.00123246
0.00124975
0.0012642
0.00127575
0.00128435
0.00129002
0.00129278
0.0012927
0.00128987
0.00128442
0.0012765
0.00126629
0.00125396
0.00123974
0.00122384
0.0012065
0.00118793
0.00116838
0.00114808
0.00112724
0.00110608
0.00108481
0.00106362
0.00104268
0.00102215
0.00100219
0.000982923
0.000964471
0.000946935
0.000930407
0.000914962
0.000900665
0.000887567
0.000875713
0.000865132
0.00085585
0.00084788
0.000841232
0.000835908
0.00083191
0.000829233
0.000827856
0.000827766
0.000829291
0.000831033
-2.69438e-06
-1.14784e-05
-2.15173e-05
-2.81532e-05
-3.29978e-05
-3.63772e-05
-3.85308e-05
-3.97264e-05
-4.01932e-05
-4.01066e-05
-3.96038e-05
-3.87889e-05
-3.77372e-05
-3.65003e-05
-3.51107e-05
-3.35849e-05
-3.19268e-05
-3.01301e-05
-2.81802e-05
-2.60561e-05
-2.37312e-05
-2.11744e-05
-1.83509e-05
-1.52226e-05
-1.17484e-05
-7.88469e-06
-3.58536e-06
1.19792e-06
6.51552e-06
1.24197e-05
1.89642e-05
2.62045e-05
3.4197e-05
4.29988e-05
5.26677e-05
6.32614e-05
7.4837e-05
8.74508e-05
0.000101157
0.000116009
0.000132055
0.000149341
0.000167909
0.000187796
0.00020903
0.000231638
0.000255634
0.000281028
0.000307818
0.000335994
0.000365536
0.000396412
0.000428578
0.000461979
0.000496545
0.000532195
0.000568832
0.000606344
0.000644606
0.000683477
0.0007228
0.000762406
0.000802107
0.000841708
0.000880995
0.000919749
0.000957739
0.000994729
0.00103048
0.00106475
0.00109731
0.00112793
0.00115639
0.00118248
0.00120603
0.00122687
0.00124488
0.00125994
0.00127199
0.00128098
0.00128692
0.00128983
0.00128978
0.00128687
0.00128123
0.00127301
0.00126241
0.00124962
0.00123487
0.00121839
0.00120042
0.00118121
0.001161
0.00114004
0.00111856
0.00109678
0.00107491
0.00105316
0.0010317
0.0010107
0.000990311
0.000970664
0.000951876
0.000934048
0.000917267
0.000901606
0.000887127
0.000873879
0.000861899
0.000851219
0.000841857
0.000833829
0.00082714
0.000821793
0.000817788
0.000815122
0.000813771
0.000813723
0.000815313
0.000817111
-1.58842e-05
-2.50938e-05
-3.55981e-05
-4.24981e-05
-4.75074e-05
-5.0983e-05
-5.31876e-05
-5.44102e-05
-5.48963e-05
-5.48329e-05
-5.43652e-05
-5.36029e-05
-5.2625e-05
-5.14856e-05
-5.02186e-05
-4.88417e-05
-4.73591e-05
-4.57649e-05
-4.40444e-05
-4.21763e-05
-4.01335e-05
-3.78842e-05
-3.53927e-05
-3.26198e-05
-2.95229e-05
-2.60568e-05
-2.21735e-05
-1.78227e-05
-1.29515e-05
-7.50515e-06
-1.42703e-06
5.34117e-06
1.28591e-05
2.11872e-05
3.03868e-05
4.05189e-05
5.16444e-05
6.38231e-05
7.71132e-05
9.15705e-05
0.000107248
0.000124195
0.000142455
0.000162069
0.000183069
0.000205482
0.000229328
0.000254617
0.00028135
0.00030952
0.000339109
0.000370088
0.000402415
0.000436038
0.000470889
0.000506891
0.000543947
0.00058195
0.000620774
0.000660281
0.000700314
0.000740701
0.000781256
0.000821777
0.000862049
0.000901842
0.000940921
0.000979037
0.00101594
0.00105138
0.0010851
0.00111687
0.00114644
0.0011736
0.00119816
0.00121992
0.00123875
0.00125454
0.00126719
0.00127666
0.00128294
0.00128606
0.00128609
0.00128313
0.00127731
0.00126881
0.00125781
0.00124454
0.00122923
0.00121213
0.0011935
0.00117359
0.00115268
0.00113101
0.00110883
0.00108638
0.00106387
0.00104152
0.00101951
0.000998008
0.000977165
0.000957113
0.00093797
0.000919833
0.000902786
0.000886899
0.00087223
0.000858822
0.000846712
0.000835926
0.000826481
0.00081839
0.000811658
0.000806287
0.000802277
0.000799627
0.000798312
0.000798321
0.000800001
0.000801879
-3.22141e-05
-4.18142e-05
-5.27449e-05
-5.98853e-05
-6.50449e-05
-6.86103e-05
-7.08665e-05
-7.21223e-05
-7.26386e-05
-7.26127e-05
-7.2197e-05
-7.15061e-05
-7.06219e-05
-6.96006e-05
-6.84774e-05
-6.72703e-05
-6.59842e-05
-6.46131e-05
-6.31422e-05
-6.15498e-05
-5.98083e-05
-5.78852e-05
-5.57438e-05
-5.33435e-05
-5.06405e-05
-4.75878e-05
-4.41353e-05
-4.02305e-05
-3.58181e-05
-3.08407e-05
-2.52385e-05
-1.89503e-05
-1.1913e-05
-4.0627e-06
4.66534e-06
1.43359e-05
2.50134e-05
3.67612e-05
4.9641e-05
6.3712e-05
7.90304e-05
9.56483e-05
0.000113613
0.000132967
0.000153746
0.000175979
0.000199687
0.000224882
0.00025157
0.000279744
0.000309389
0.000340477
0.000372971
0.00040682
0.000441961
0.000478318
0.0005158
0.0005543
0.000593698
0.000633856
0.000674619
0.000715817
0.000757262
0.00079875
0.00084006
0.00088096
0.000921204
0.000960536
0.000998693
0.00103541
0.00107042
0.00110346
0.00113429
0.00116266
0.00118835
0.00121118
0.00123098
0.00124762
0.001261
0.00127106
0.00127779
0.00128121
0.00128138
0.00127842
0.00127247
0.0012637
0.00125231
0.00123855
0.00122266
0.00120491
0.00118558
0.00116494
0.00114327
0.00112085
0.00109793
0.00107476
0.00105158
0.00102859
0.001006
0.000983963
0.000962643
0.00094217
0.000922658
0.000904203
0.000886884
0.000870767
0.000855904
0.000842337
0.000830097
0.000819205
0.000809678
0.000801525
0.000794752
0.000789359
0.00078535
0.000782722
0.000781454
0.000781536
0.000783331
0.000785311
-5.18746e-05
-6.18327e-05
-7.31534e-05
-8.05124e-05
-8.58093e-05
-8.9459e-05
-9.17675e-05
-9.30627e-05
-9.36192e-05
-9.3644e-05
-9.32959e-05
-9.26935e-05
-9.19214e-05
-9.10373e-05
-9.0077e-05
-8.90592e-05
-8.79887e-05
-8.68594e-05
-8.56565e-05
-8.43576e-05
-8.29345e-05
-8.1354e-05
-7.95782e-05
-7.75654e-05
-7.52701e-05
-7.26435e-05
-6.96335e-05
-6.61851e-05
-6.22406e-05
-5.77395e-05
-5.26193e-05
-4.68153e-05
-4.02611e-05
-3.28893e-05
-2.46317e-05
-1.54198e-05
-5.18559e-06
6.13763e-06
1.86149e-05
3.23086e-05
4.72778e-05
6.35774e-05
8.12573e-05
0.000100362
0.000120928
0.000142988
0.000166563
0.000191669
0.00021831
0.000246484
0.000276176
0.000307362
0.000340007
0.000374064
0.000409473
0.000446162
0.000484045
0.000523019
0.000562968
0.000603759
0.000645239
0.000687241
0.000729578
0.000772045
0.000814421
0.000856467
0.000897931
0.000938549
0.000978046
0.00101614
0.00105256
0.00108701
0.00111924
0.00114897
0.00117598
0.00120005
0.00122099
0.00123865
0.00125292
0.00126373
0.00127105
0.00127489
0.00127533
0.00127246
0.00126644
0.00125745
0.00124571
0.00123147
0.001215
0.00119659
0.00117653
0.00115512
0.00113266
0.00110944
0.00108574
0.00106181
0.00103792
0.00101426
0.00099105
0.00096846
0.000946646
0.000925738
0.000905849
0.000887071
0.00086948
0.000853135
0.000838083
0.000824362
0.000811996
0.000801004
0.0007914
0.000783191
0.000776382
0.000770974
0.000766972
0.000764376
0.000763165
0.000763335
0.000765269
0.000767373
-7.50446e-05
-8.53302e-05
-9.7007e-05
-0.000104565
-0.000109988
-0.000113717
-0.000116079
-0.00011742
-0.000118026
-0.000118114
-0.000117848
-0.00011735
-0.000116707
-0.000115977
-0.000115198
-0.000114387
-0.000113549
-0.000112679
-0.000111761
-0.000110771
-0.000109682
-0.000108458
-0.000107062
-0.000105449
-0.000103573
-0.000101383
-9.88245e-05
-9.58404e-05
-9.23701e-05
-8.83504e-05
-8.37155e-05
-7.83975e-05
-7.23267e-05
-6.5432e-05
-5.76417e-05
-4.8884e-05
-3.90874e-05
-2.81818e-05
-1.60993e-05
-2.77472e-06
1.18535e-05
2.78423e-05
4.52434e-05
6.41025e-05
8.44584e-05
0.000106343
0.000129779
0.000154783
0.000181361
0.000209511
0.00023922
0.000270466
0.000303216
0.000337428
0.000373047
0.000410003
0.000448218
0.000487595
0.000528024
0.000569376
0.000611507
0.000654253
0.000697431
0.000740839
0.000784256
0.000827441
0.000870139
0.000912078
0.000952975
0.000992537
0.00103047
0.00106647
0.00110025
0.00113154
0.00116006
0.00118558
0.00120789
0.00122681
0.0012422
0.00125399
0.00126211
0.00126658
0.00126746
0.00126484
0.00125889
0.00124978
0.00123777
0.0012231
0.00120608
0.00118701
0.00116622
0.00114402
0.00112073
0.00109668
0.00107216
0.00104744
0.00102278
0.000998427
0.000974574
0.000951406
0.000929081
0.000907728
0.000887458
0.000868358
0.000850497
0.000833931
0.0008187
0.000804834
0.000792353
0.000781273
0.000771601
0.000763345
0.000756508
0.000751093
0.000747106
0.00074455
0.000743409
0.000743682
0.000745776
0.000748021
-0.000101891
-0.000112476
-0.000124478
-0.000132217
-0.000137755
-0.000141561
-0.000143978
-0.00014537
-0.000146036
-0.000146199
-0.000146028
-0.00014565
-0.000145151
-0.000144592
-0.00014401
-0.000143422
-0.000142834
-0.000142238
-0.00014162
-0.000140954
-0.000140212
-0.000139359
-0.000138354
-0.000137152
-0.000135705
-0.00013396
-0.000131861
-0.000129347
-0.000126356
-0.000122821
-0.000118674
-0.000113842
-0.000108254
-0.000101835
-9.45085e-05
-8.62006e-05
-7.68365e-05
-6.63431e-05
-5.46498e-05
-4.16893e-05
-2.73981e-05
-1.17181e-05
5.40347e-06
2.40126e-05
4.41482e-05
6.58416e-05
8.91161e-05
0.000113987
0.000140459
0.000168532
0.000198193
0.000229422
0.000262189
0.000296455
0.000332169
0.000369269
0.000407682
0.00044732
0.00048808
0.000529844
0.000572476
0.00061582
0.000659701
0.000703923
0.000748272
0.000792509
0.00083638
0.000879611
0.000921912
0.000962983
0.00100251
0.00104019
0.0010757
0.00110874
0.00113903
0.00116628
0.00119026
0.00121077
0.00122763
0.00124073
0.00125
0.00125542
0.00125704
0.00125495
0.00124929
0.00124028
0.00122815
0.00121319
0.0011957
0.00117604
0.00115453
0.00113155
0.00110743
0.00108251
0.00105713
0.00103157
0.00100613
0.00098103
0.000956504
0.000932734
0.00090988
0.000888071
0.000867415
0.000847994
0.000829872
0.000813094
0.000797696
0.000783699
0.000771118
0.000759962
0.000750236
0.000741944
0.000735089
0.000729676
0.000725712
0.000723206
0.000722145
0.000722532
0.000724804
0.000727207
-0.00013257
-0.000143427
-0.000155725
-0.000163629
-0.000169275
-0.000173154
-0.00017563
-0.000177079
-0.000177813
-0.000178062
-0.000178001
-0.000177756
-0.000177417
-0.000177044
-0.000176674
-0.000176325
-0.000176001
-0.000175695
-0.00017539
-0.000175062
-0.00017468
-0.000174209
-0.000173606
-0.000172826
-0.000171817
-0.000170525
-0.000168892
-0.000166855
-0.000164348
-0.000161302
-0.000157644
-0.0001533
-0.000148195
-0.00014225
-0.000135386
-0.000127526
-0.000118592
-0.000108509
-9.72035e-05
-8.46076e-05
-7.06568e-05
-5.52924e-05
-3.84623e-05
-2.01215e-05
-2.32673e-07
2.12335e-05
4.4298e-05
6.89735e-05
9.52641e-05
0.000123166
0.000152667
0.000183747
0.000216379
0.000250525
0.00028614
0.000323169
0.000361546
0.000401194
0.000442021
0.00048392
0.000526768
0.000570424
0.000614725
0.000659491
0.000704517
0.000749578
0.000794427
0.000838797
0.000882401
0.000924937
0.000966089
0.00100553
0.00104293
0.00107797
0.00111031
0.00113967
0.00116575
0.00118832
0.00120715
0.0012221
0.00123305
0.00123994
0.00124281
0.00124171
0.00123678
0.00122824
0.00121631
0.00120131
0.00118357
0.00116345
0.00114134
0.00111762
0.00109268
0.00106691
0.00104064
0.00101422
0.000987934
0.000962059
0.000936821
0.000912417
0.000889009
0.000866728
0.000845678
0.000825934
0.000807554
0.000790575
0.000775022
0.000760909
0.000748243
0.000737027
0.000727261
0.000718945
0.000712084
0.000706681
0.000702748
0.0007003
0.000699326
0.000699837
0.000702302
0.000704875
-0.000167226
-0.00017833
-0.000190897
-0.000198952
-0.000204697
-0.000208649
-0.000211186
-0.0002127
-0.000213512
-0.000213859
-0.000213919
-0.000213821
-0.000213656
-0.000213483
-0.000213341
-0.000213245
-0.0002132
-0.000213197
-0.00021322
-0.000213243
-0.000213235
-0.000213158
-0.000212969
-0.00021262
-0.000212059
-0.00021123
-0.000210071
-0.000208517
-0.000206499
-0.000203946
-0.000200782
-0.00019693
-0.00019231
-0.000186841
-0.000180442
-0.000173031
-0.00016453
-0.000154862
-0.000143951
-0.000131729
-0.000118133
-0.000103104
-8.65935e-05
-6.85591e-05
-4.89674e-05
-2.77938e-05
-5.02236e-06
1.93544e-05
4.53358e-05
7.29137e-05
0.000102073
0.000132791
0.000165041
0.000198787
0.000233988
0.000270595
0.000308552
0.00034779
0.000388234
0.000429791
0.000472357
0.00051581
0.000560012
0.000604804