/*--------------------------------*- C++ -*----------------------------------*\
| =========                 |                                                 |
| \\      /  F ield         | OpenFOAM: The Open Source CFD Toolbox           |
|  \\    /   O peration     | Version:  2406                                  |
|   \\  /    A nd           | Website:  www.openfoam.com                      |
|    \\/     M anipulation  |                                                 |
\*---------------------------------------------------------------------------*/
FoamFile
{
    version     2.0;
    format      ascii;
    arch        "LSB;label=32;scalar=64";
    class       surfaceScalarField;
    location    "9.35";
    object      phi;
}
// * * * * * * * * * * * * * * * * * * * * * * * * * * * * * * * * * * * * * //

dimensions      [0 3 -1 0 0 0 0];

oriented        oriented;

internalField   nonuniform List<scalar> 
28560
(
6.93208e-09
-6.9373e-09
7.27247e-09
-1.3464e-10
-3.77095e-09
1.11351e-08
-2.7111e-08
2.37634e-08
-6.08345e-08
3.40425e-08
-1.02808e-07
4.25713e-08
-1.51004e-07
4.87183e-08
-2.03613e-07
5.33136e-08
-2.59321e-07
5.6359e-08
-3.16999e-07
5.84348e-08
-3.75928e-07
5.96502e-08
-4.35511e-07
6.03604e-08
-4.95418e-07
6.06595e-08
-5.55385e-07
6.07486e-08
-6.15305e-07
6.06845e-08
-6.75099e-07
6.05716e-08
-7.34766e-07
6.04354e-08
-7.94315e-07
6.03232e-08
-8.53788e-07
6.02405e-08
-9.1322e-07
6.02037e-08
-9.72659e-07
6.02074e-08
-1.03214e-06
6.02527e-08
-1.0917e-06
6.03297e-08
-1.15136e-06
6.04321e-08
-1.21114e-06
6.05489e-08
-1.27104e-06
6.06711e-08
-1.33105e-06
6.07873e-08
-1.39117e-06
6.08877e-08
-1.45136e-06
6.09611e-08
-1.51158e-06
6.0997e-08
-1.5718e-06
6.09843e-08
-1.63194e-06
6.09124e-08
-1.69195e-06
6.07698e-08
-1.75173e-06
6.05454e-08
-1.8112e-06
6.02277e-08
-1.87026e-06
5.98049e-08
-1.92878e-06
5.92654e-08
-1.98665e-06
5.85972e-08
-2.04372e-06
5.77885e-08
-2.09984e-06
5.68276e-08
-2.15485e-06
5.57028e-08
-2.20858e-06
5.4403e-08
-2.26085e-06
5.29174e-08
-2.31145e-06
5.12357e-08
-2.36019e-06
4.93488e-08
-2.40686e-06
4.7248e-08
-2.45124e-06
4.49261e-08
-2.4931e-06
4.23772e-08
-2.53221e-06
3.95966e-08
-2.56835e-06
3.65816e-08
-2.60127e-06
3.33311e-08
-2.63076e-06
2.98462e-08
-2.65658e-06
2.61301e-08
-2.6785e-06
2.21884e-08
-2.69632e-06
1.80289e-08
-2.70982e-06
1.36621e-08
-2.71882e-06
9.10118e-09
-2.72314e-06
4.3617e-09
-2.72261e-06
-5.3798e-10
-2.71711e-06
-5.57696e-09
-2.70652e-06
-1.07318e-08
-2.69075e-06
-1.59769e-08
-2.66973e-06
-2.1284e-08
-2.64344e-06
-2.66233e-08
-2.61187e-06
-3.19631e-08
-2.57506e-06
-3.72701e-08
-2.53308e-06
-4.25102e-08
-2.48601e-06
-4.76485e-08
-2.43401e-06
-5.26497e-08
-2.37723e-06
-5.74788e-08
-2.31589e-06
-6.21013e-08
-2.25022e-06
-6.64838e-08
-2.18049e-06
-7.05944e-08
-2.10699e-06
-7.44035e-08
-2.03006e-06
-7.78835e-08
-1.95003e-06
-8.10099e-08
-1.86729e-06
-8.37615e-08
-1.78222e-06
-8.61204e-08
-1.69522e-06
-8.80729e-08
-1.60671e-06
-8.96088e-08
-1.5171e-06
-9.07223e-08
-1.4268e-06
-9.14118e-08
-1.33624e-06
-9.16796e-08
-1.24583e-06
-9.15319e-08
-1.15597e-06
-9.09789e-08
-1.06705e-06
-9.0034e-08
-9.79425e-07
-8.87138e-08
-8.93463e-07
-8.70375e-08
-8.09489e-07
-8.50264e-08
-7.27812e-07
-8.27034e-08
-6.48716e-07
-8.00928e-08
-5.72461e-07
-7.7219e-08
-4.99282e-07
-7.41067e-08
-4.29392e-07
-7.07799e-08
-3.62979e-07
-6.72617e-08
-3.00212e-07
-6.35736e-08
-2.41237e-07
-5.97353e-08
-1.86186e-07
-5.57644e-08
-1.35175e-07
-5.1676e-08
-8.83074e-08
-4.74835e-08
-4.5674e-08
-4.31966e-08
-7.36125e-09
-3.88249e-08
2.65561e-08
-3.43735e-08
5.60019e-08
-2.98499e-08
8.09143e-08
-2.52563e-08
1.01224e-07
-2.06025e-08
1.16887e-07
-1.58903e-08
1.27846e-07
-1.11397e-08
1.34097e-07
-6.3572e-09
1.35615e-07
-1.58939e-09
1.32491e-07
3.14292e-09
1.24787e-07
7.73144e-09
1.12813e-07
1.21168e-08
9.68654e-08
1.60436e-08
7.77743e-08
1.9349e-08
5.64655e-08
2.14125e-08
3.49814e-08
2.18266e-08
1.58031e-08
1.91875e-08
2.98566e-09
1.32002e-08
2.98467e-09
2.59874e-10
-7.40065e-09
-1.87047e-08
1.88459e-08
-6.3304e-08
5.51822e-08
-1.3446e-07
9.45095e-08
-2.29619e-07
1.28291e-07
-3.44745e-07
1.56855e-07
-4.75871e-07
1.78664e-07
-6.19022e-07
1.95326e-07
-7.71098e-07
2.07097e-07
-9.29343e-07
2.15375e-07
-1.09182e-06
2.20715e-07
-1.25692e-06
2.24078e-07
-1.42362e-06
2.25921e-07
-1.59112e-06
2.26827e-07
-1.75896e-06
2.27085e-07
-1.92683e-06
2.27014e-07
-2.0946e-06
2.26764e-07
-2.26219e-06
2.26487e-07
-2.42962e-06
2.2624e-07
-2.59693e-06
2.26077e-07
-2.76415e-06
2.26005e-07
-2.93135e-06
2.26026e-07
-3.09858e-06
2.26122e-07
-3.26584e-06
2.26269e-07
-3.43317e-06
2.26438e-07
-3.60053e-06
2.26598e-07
-3.76788e-06
2.26711e-07
-3.93518e-06
2.26744e-07
-4.10231e-06
2.26659e-07
-4.26916e-06
2.26418e-07
-4.43559e-06
2.25985e-07
-4.60143e-06
2.25319e-07
-4.76646e-06
2.24383e-07
-4.93047e-06
2.23137e-07
-5.09318e-06
2.2154e-07
-5.25432e-06
2.19552e-07
-5.41357e-06
2.17132e-07
-5.57057e-06
2.1424e-07
-5.72495e-06
2.10835e-07
-5.87631e-06
2.06876e-07
-6.02422e-06
2.02326e-07
-6.16822e-06
1.97146e-07
-6.30782e-06
1.91301e-07
-6.44251e-06
1.84757e-07
-6.57178e-06
1.77485e-07
-6.69507e-06
1.69458e-07
-6.81182e-06
1.60654e-07
-6.92146e-06
1.51055e-07
-7.02341e-06
1.4065e-07
-7.11709e-06
1.29431e-07
-7.20191e-06
1.174e-07
-7.27729e-06
1.04565e-07
-7.34269e-06
9.09402e-08
-7.39754e-06
7.65494e-08
-7.44133e-06
6.14239e-08
-7.47357e-06
4.56039e-08
-7.4938e-06
2.91383e-08
-7.5016e-06
1.20847e-08
-7.49662e-06
-5.49069e-09
-7.47854e-06
-2.35131e-08
-7.44712e-06
-4.18998e-08
-7.40215e-06
-6.05603e-08
-7.34354e-06
-7.93972e-08
-7.27124e-06
-9.8307e-08
-7.18529e-06
-1.17181e-07
-7.08579e-06
-1.35906e-07
-6.97296e-06
-1.54365e-07
-6.84708e-06
-1.72442e-07
-6.70851e-06
-1.90017e-07
-6.5577e-06
-2.06973e-07
-6.3952e-06
-2.23196e-07
-6.22159e-06
-2.38574e-07
-6.03758e-06
-2.53003e-07
-5.84391e-06
-2.66383e-07
-5.6414e-06
-2.78625e-07
-5.43092e-06
-2.89648e-07
-5.2134e-06
-2.99383e-07
-4.98979e-06
-3.07772e-07
-4.7611e-06
-3.14768e-07
-4.52833e-06
-3.2034e-07
-4.29252e-06
-3.24469e-07
-4.0547e-06
-3.27148e-07
-3.81591e-06
-3.28386e-07
-3.57715e-06
-3.28203e-07
-3.33942e-06
-3.2663e-07
-3.10368e-06
-3.23712e-07
-2.87086e-06
-3.19502e-07
-2.64184e-06
-3.14062e-07
-2.41745e-06
-3.0746e-07
-2.19847e-06
-2.99771e-07
-1.98564e-06
-2.91072e-07
-1.77963e-06
-2.81443e-07
-1.58105e-06
-2.70962e-07
-1.39047e-06
-2.59706e-07
-1.20841e-06
-2.4775e-07
-1.03532e-06
-2.35163e-07
-8.71641e-07
-2.22006e-07
-7.17745e-07
-2.08338e-07
-5.73983e-07
-1.94206e-07
-4.40677e-07
-1.79652e-07
-3.18122e-07
-1.64708e-07
-2.06599e-07
-1.49405e-07
-1.06366e-07
-1.33762e-07
-1.76748e-08
-1.17802e-07
5.92519e-08
-1.01543e-07
1.24192e-07
-8.50157e-08
1.7698e-07
-6.82492e-08
2.17455e-07
-5.13074e-08
2.45577e-07
-3.42608e-08
2.61327e-07
-1.72556e-08
2.64941e-07
-4.55783e-10
2.56723e-07
1.58106e-08
2.37504e-07
3.11786e-08
2.08274e-07
4.49275e-08
1.71082e-07
5.62793e-08
1.28293e-07
6.36949e-08
8.4199e-08
6.56981e-08
4.33821e-08
5.94189e-08
1.31099e-08
4.34738e-08
1.57117e-08
-1.15108e-08
3.98838e-09
-5.68424e-08
6.47446e-08
-1.40533e-07
1.3884e-07
-2.61148e-07
2.15826e-07
-4.15634e-07
2.83186e-07
-5.98436e-07
3.40541e-07
-8.04577e-07
3.85543e-07
-1.02865e-06
4.20422e-07
-1.26646e-06
4.45845e-07
-1.5141e-06
4.64105e-07
-1.76875e-06
4.76412e-07
-2.02802e-06
4.84476e-07
-2.29031e-06
4.89298e-07
-2.55432e-06
4.91976e-07
-2.81928e-06
4.9316e-07
-3.08461e-06
4.93476e-07
-3.35001e-06
4.93278e-07
-3.61527e-06
4.92874e-07
-3.88033e-06
4.92419e-07
-4.14516e-06
4.92031e-07
-4.40978e-06
4.91743e-07
-4.6742e-06
4.9157e-07
-4.93844e-06
4.91484e-07
-5.2025e-06
4.91446e-07
-5.46634e-06
4.91401e-07
-5.7299e-06
4.91285e-07
-5.99309e-06
4.91029e-07
-6.25578e-06
4.90562e-07
-6.51781e-06
4.89808e-07
-6.77896e-06
4.88692e-07
-7.03898e-06
4.87133e-07
-7.2976e-06
4.85054e-07
-7.55447e-06
4.82374e-07
-7.80924e-06
4.7901e-07
-8.06147e-06
4.7488e-07
-8.31073e-06
4.69901e-07
-8.55651e-06
4.6399e-07
-8.79826e-06
4.57064e-07
-9.03542e-06
4.4904e-07
-9.26735e-06
4.39838e-07
-9.49339e-06
4.29381e-07
-9.71286e-06
4.17593e-07
-9.92501e-06
4.04406e-07
-1.01291e-05
3.89755e-07
-1.03243e-05
3.73583e-07
-1.05098e-05
3.5584e-07
-1.06849e-05
3.36486e-07
-1.08485e-05
3.15491e-07
-1.1e-05
2.92837e-07
-1.11385e-05
2.68518e-07
-1.1263e-05
2.42543e-07
-1.13729e-05
2.14934e-07
-1.14672e-05
1.8573e-07
-1.15452e-05
1.54986e-07
-1.16063e-05
1.22773e-07
-1.16496e-05
8.91816e-08
-1.16747e-05
5.43171e-08
-1.16808e-05
1.83034e-08
-1.16676e-05
-1.87185e-08
-1.16346e-05
-5.65914e-08
-1.15816e-05
-9.51425e-08
-1.15083e-05
-1.34184e-07
-1.14145e-05
-1.73517e-07
-1.13004e-05
-2.12927e-07
-1.1166e-05
-2.52194e-07
-1.10115e-05
-2.91089e-07
-1.08372e-05
-3.29378e-07
-1.06437e-05
-3.66824e-07
-1.04315e-05
-4.0319e-07
-1.02012e-05
-4.38243e-07
-9.95379e-06
-4.71755e-07
-9.69004e-06
-5.03506e-07
-9.41102e-06
-5.33289e-07
-9.11782e-06
-5.60911e-07
-8.81164e-06
-5.86195e-07
-8.49375e-06
-6.08984e-07
-8.16548e-06
-6.29142e-07
-7.82824e-06
-6.46556e-07
-7.48344e-06
-6.61139e-07
-7.13255e-06
-6.72828e-07
-6.77705e-06
-6.81586e-07
-6.41843e-06
-6.87405e-07
-6.05816e-06
-6.90299e-07
-5.69769e-06
-6.90309e-07
-5.33845e-06
-6.87499e-07
-4.98183e-06
-6.81954e-07
-4.62915e-06
-6.73778e-07
-4.28169e-06
-6.63094e-07
-3.94065e-06
-6.50033e-07
-3.60718e-06
-6.34741e-07
-3.28234e-06
-6.17369e-07
-2.96712e-06
-5.9807e-07
-2.66243e-06
-5.76998e-07
-2.36913e-06
-5.54302e-07
-2.08799e-06
-5.30124e-07
-1.81973e-06
-5.04599e-07
-1.565e-06
-4.77847e-07
-1.3244e-06
-4.49975e-07
-1.09849e-06
-4.21077e-07
-8.87803e-07
-3.91232e-07
-6.92823e-07
-3.60503e-07
-5.14022e-07
-3.28946e-07
-3.51837e-07
-2.96605e-07
-2.06698e-07
-2.63523e-07
-7.89899e-08
-2.29745e-07
3.0912e-08
-1.95336e-07
1.22715e-07
-1.60376e-07
1.96157e-07
-1.25002e-07
2.51147e-07
-8.93999e-08
2.87672e-07
-5.38726e-08
3.06072e-07
-1.88262e-08
3.06846e-07
1.50882e-08
2.91203e-07
4.70261e-08
2.60632e-07
7.56517e-08
2.17974e-07
9.93006e-08
1.66448e-07
1.15383e-07
1.11663e-07
1.20975e-07
5.93037e-08
1.11772e-07
1.90139e-08
8.43493e-08
3.47112e-08
-2.5462e-08
2.90047e-08
-1.00699e-07
1.40477e-07
-2.26242e-07
2.63649e-07
-3.96851e-07
3.86484e-07
-6.08687e-07
4.94324e-07
-8.54753e-07
5.86293e-07
-1.12956e-06
6.59605e-07
-1.42672e-06
7.17039e-07
-1.74143e-06
7.59771e-07
-2.06899e-06
7.90984e-07
-2.406e-06
8.12625e-07
-2.74948e-06
8.27213e-07
-3.09738e-06
8.36382e-07
-3.448e-06
8.41818e-07
-3.80026e-06
8.44611e-07
-4.15332e-06
8.45752e-07
-4.5067e-06
8.45854e-07
-4.86005e-06
8.45426e-07
-5.21318e-06
8.44748e-07
-5.56597e-06
8.44027e-07
-5.91837e-06
8.43341e-07
-6.27032e-06
8.42727e-07
-6.62178e-06
8.42152e-07
-6.9727e-06
8.41564e-07
-7.32297e-06
8.40877e-07
-7.67248e-06
8.39997e-07
-8.02106e-06
8.38813e-07
-8.36851e-06
8.3721e-07
-8.71457e-06
8.35067e-07
-9.05893e-06
8.3226e-07
-9.40126e-06
8.2866e-07
-9.74114e-06
8.24139e-07
-1.00781e-05
8.18563e-07
-1.04117e-05
8.118e-07
-1.07413e-05
8.03715e-07
-1.10664e-05
7.94172e-07
-1.13862e-05
7.83037e-07
-1.17e-05
7.70176e-07
-1.20072e-05
7.55456e-07
-1.23068e-05
7.38751e-07
-1.25981e-05
7.19937e-07
-1.28801e-05
6.98897e-07
-1.31519e-05
6.75524e-07
-1.34125e-05
6.49719e-07
-1.3661e-05
6.21397e-07
-1.38962e-05
5.90485e-07
-1.41172e-05
5.56926e-07
-1.43229e-05
5.20682e-07
-1.45123e-05
4.81733e-07
-1.46843e-05
4.40082e-07
-1.4838e-05
3.95752e-07
-1.49722e-05
3.48794e-07
-1.50861e-05
2.99281e-07
-1.51787e-05
2.47315e-07
-1.52491e-05
1.93023e-07
-1.52967e-05
1.36561e-07
-1.53206e-05
7.81125e-08
-1.53202e-05
1.78877e-08
-1.5295e-05
-4.38766e-08
-1.52446e-05
-1.06918e-07
-1.51687e-05
-1.70951e-07
-1.5067e-05
-2.35666e-07
-1.49395e-05
-3.00737e-07
-1.47862e-05
-3.65819e-07
-1.46075e-05
-4.30554e-07
-1.44035e-05
-4.94573e-07
-1.41748e-05
-5.575e-07
-1.39221e-05
-6.1896e-07
-1.3646e-05
-6.78574e-07
-1.33476e-05
-7.35974e-07
-1.30278e-05
-7.908e-07
-1.26877e-05
-8.42706e-07
-1.23287e-05
-8.91368e-07
-1.19522e-05
-9.36483e-07
-1.15597e-05
-9.77776e-07
-1.11526e-05
-1.015e-06
-1.07328e-05
-1.04795e-06
-1.03018e-05
-1.07646e-06
-9.86145e-06
-1.10037e-06
-9.41354e-06
-1.11961e-06
-8.95987e-06
-1.13412e-06
-8.50224e-06
-1.14388e-06
-8.04246e-06
-1.14893e-06
-7.58229e-06
-1.14932e-06
-7.12348e-06
-1.14516e-06
-6.6677e-06
-1.13659e-06
-6.21659e-06
-1.12377e-06
-5.77169e-06
-1.10688e-06
-5.33449e-06
-1.08615e-06
-4.90638e-06
-1.06179e-06
-4.48867e-06
-1.03405e-06
-4.08261e-06
-1.00315e-06
-3.68931e-06
-9.69336e-07
-3.30985e-06
-9.32846e-07
-2.94521e-06
-8.93895e-07
-2.59629e-06
-8.52691e-07
-2.26393e-06
-8.09418e-07
-1.94893e-06
-7.64242e-07
-1.65202e-06
-7.17306e-07
-1.37389e-06
-6.68729e-07
-1.11521e-06
-6.18609e-07
-8.76601e-07
-5.67031e-07
-6.58672e-07
-5.14064e-07
-4.62005e-07
-4.59782e-07
-2.87132e-07
-4.04262e-07
-1.34562e-07
-3.47617e-07
-4.69899e-09
-2.89998e-07
1.02107e-07
-2.31642e-07
1.85723e-07
-1.72888e-07
2.46138e-07
-1.14249e-07
2.83775e-07
-5.64393e-08
2.99282e-07
-5.09866e-10
2.94133e-07
5.21207e-08
2.70147e-07
9.94167e-08
2.30644e-07
1.38728e-07
1.79299e-07
1.66379e-07
1.22396e-07
1.7789e-07
6.62007e-08
1.67467e-07
2.17151e-08
1.29072e-07
5.60798e-08
-3.82269e-08
6.68368e-08
-1.42645e-07
2.45908e-07
-3.09476e-07
4.29945e-07
-5.29056e-07
6.068e-07
-7.96223e-07
7.6143e-07
-1.10225e-06
8.92942e-07
-1.44111e-06
9.98701e-07
-1.80559e-06
1.08211e-06
-2.19047e-06
1.14505e-06
-2.59047e-06
1.19159e-06
-3.00186e-06
1.22451e-06
-3.42121e-06
1.24715e-06
-3.84615e-06
1.26186e-06
-4.27468e-06
1.27094e-06
-4.70548e-06
1.27597e-06
-5.1375e-06
1.27835e-06
-5.57008e-06
1.279e-06
-6.00272e-06
1.27864e-06
-6.43511e-06
1.27771e-06
-6.86703e-06
1.27652e-06
-7.29834e-06
1.27522e-06
-7.72889e-06
1.27385e-06
-8.15857e-06
1.27241e-06
-8.58724e-06
1.27081e-06
-9.01474e-06
1.26895e-06
-9.44087e-06
1.2667e-06
-9.86537e-06
1.26389e-06
-1.0288e-05
1.26037e-06
-1.07083e-05
1.25597e-06
-1.1126e-05
1.2505e-06
-1.15405e-05
1.24379e-06
-1.19514e-05
1.23563e-06
-1.23582e-05
1.22585e-06
-1.276e-05
1.21424e-06
-1.31564e-05
1.20062e-06
-1.35464e-05
1.18479e-06
-1.39294e-05
1.16656e-06
-1.43044e-05
1.14573e-06
-1.46706e-05
1.12213e-06
-1.50269e-05
1.09556e-06
-1.53723e-05
1.06586e-06
-1.57058e-05
1.03287e-06
-1.60262e-05
9.96444e-07
-1.63325e-05
9.5644e-07
-1.66234e-05
9.12751e-07
-1.68977e-05
8.65284e-07
-1.71544e-05
8.13971e-07
-1.73921e-05
7.5877e-07
-1.76097e-05
6.99668e-07
-1.78059e-05
6.36683e-07
-1.79798e-05
5.69868e-07
-1.813e-05
4.9931e-07
-1.82556e-05
4.25133e-07
-1.83556e-05
3.47497e-07
-1.84291e-05
2.66605e-07
-1.84751e-05
1.82695e-07
-1.84929e-05
9.60441e-08
-1.8482e-05
6.96873e-09
-1.84417e-05
-8.41794e-08
-1.83717e-05
-1.77013e-07
-1.82716e-05
-2.71115e-07
-1.81414e-05
-3.66034e-07
-1.7981e-05
-4.61298e-07
-1.77907e-05
-5.56411e-07
-1.75707e-05
-6.50859e-07
-1.73215e-05
-7.44115e-07
-1.70437e-05
-8.35648e-07
-1.67382e-05
-9.24922e-07
-1.64058e-05
-1.01141e-06
-1.60478e-05
-1.09458e-06
-1.56652e-05
-1.17395e-06
-1.52595e-05
-1.24901e-06
-1.48321e-05
-1.31933e-06
-1.43848e-05
-1.38448e-06
-1.39192e-05
-1.44409e-06
-1.34371e-05
-1.49781e-06
-1.29405e-05
-1.54535e-06
-1.24312e-05
-1.58649e-06
-1.19114e-05
-1.62104e-06
-1.13829e-05
-1.64887e-06
-1.08479e-05
-1.66991e-06
-1.03085e-05
-1.68415e-06
-9.76661e-06
-1.69164e-06
-9.22429e-06
-1.69247e-06
-8.68349e-06
-1.68678e-06
-8.14613e-06
-1.67477e-06
-7.61402e-06
-1.65668e-06
-7.08894e-06
-1.63276e-06
-6.57254e-06
-1.60332e-06
-6.06643e-06
-1.56867e-06
-5.57208e-06
-1.52913e-06
-5.09089e-06
-1.48504e-06
-4.62418e-06
-1.43674e-06
-4.17314e-06
-1.38454e-06
-3.73891e-06
-1.32875e-06
-3.32255e-06
-1.26965e-06
-2.92503e-06
-1.2075e-06
-2.54728e-06
-1.14252e-06
-2.19017e-06
-1.07491e-06
-1.85453e-06
-1.00482e-06
-1.54115e-06
-9.32407e-07
-1.25079e-06
-8.57768e-07
-9.84181e-07
-7.81007e-07
-7.42034e-07
-7.02227e-07
-5.24998e-07
-6.2155e-07
-3.33689e-07
-5.39143e-07
-1.68605e-07
-4.55246e-07
-3.01653e-08
-3.70219e-07
8.14561e-08
-2.84582e-07
1.66242e-07
-1.99097e-07
2.2466e-07
-1.14834e-07
2.57443e-07
-3.3295e-08
2.6622e-07
4.34668e-08
2.52995e-07
1.12666e-07
2.21342e-07
1.70611e-07
1.75204e-07
2.12497e-07
1.2124e-07
2.32213e-07
6.61663e-08
2.22346e-07
2.17374e-08
1.74031e-07
7.76953e-08
-5.02273e-08
1.16374e-07
-1.82589e-07
3.79318e-07
-3.89105e-07
6.35436e-07
-6.55658e-07
8.73815e-07
-9.75456e-07
1.08056e-06
-1.3379e-06
1.25545e-06
-1.7364e-06
1.39667e-06
-2.16292e-06
1.50847e-06
-2.61198e-06
1.59363e-06
-3.07785e-06
1.65718e-06
-3.55657e-06
1.70277e-06
-4.04439e-06
1.73462e-06
-4.53876e-06
1.75579e-06
-5.03743e-06
1.76922e-06
-5.53891e-06
1.77702e-06
-6.04195e-06
1.781e-06
-6.54575e-06
1.78238e-06
-7.04968e-06
1.78216e-06
-7.5533e-06
1.78092e-06
-8.05629e-06
1.77911e-06
-8.5584e-06
1.77691e-06
-9.05941e-06
1.77445e-06
-9.5591e-06
1.77168e-06
-1.00572e-05
1.76855e-06
-1.05536e-05
1.7649e-06
-1.10479e-05
1.76057e-06
-1.15398e-05
1.75535e-06
-1.20288e-05
1.74904e-06
-1.25147e-05
1.7414e-06
-1.29968e-05
1.7322e-06
-1.34746e-05
1.72118e-06
-1.39475e-05
1.7081e-06
-1.44148e-05
1.69271e-06
-1.48757e-05
1.67474e-06
-1.53294e-05
1.65394e-06
-1.5775e-05
1.63004e-06
-1.62117e-05
1.60281e-06
-1.66383e-05
1.57197e-06
-1.70538e-05
1.5373e-06
-1.74572e-05
1.49856e-06
-1.78472e-05
1.45552e-06
-1.82227e-05
1.40799e-06
-1.85824e-05
1.35577e-06
-1.8925e-05
1.2987e-06
-1.92492e-05
1.23666e-06
-1.95537e-05
1.16952e-06
-1.98373e-05
1.09722e-06
-2.00985e-05
1.01973e-06
-2.03361e-05
9.37036e-07
-2.05489e-05
8.49194e-07
-2.07355e-05
7.56292e-07
-2.08948e-05
6.58468e-07
-2.10258e-05
5.5591e-07
-2.11273e-05
4.48853e-07
-2.11984e-05
3.37584e-07
-2.12382e-05
2.22443e-07
-2.1246e-05
1.03815e-07
-2.12212e-05
-1.78623e-08
-2.11633e-05
-1.42107e-07
-2.10718e-05
-2.68392e-07
-2.09467e-05
-3.96152e-07
-2.07879e-05
-5.24783e-07
-2.05954e-05
-6.5365e-07
-2.03695e-05
-7.82095e-07
-2.01107e-05
-9.09435e-07
-1.98196e-05
-1.03498e-06
-1.94969e-05
-1.15802e-06
-1.91437e-05
-1.27786e-06
-1.8761e-05
-1.39381e-06
-1.835e-05
-1.50518e-06
-1.79122e-05
-1.61133e-06
-1.74492e-05
-1.71163e-06
-1.69626e-05
-1.80549e-06
-1.64542e-05
-1.89238e-06
-1.5926e-05
-1.9718e-06
-1.53799e-05
-2.04334e-06
-1.48181e-05
-2.10661e-06
-1.42427e-05
-2.16133e-06
-1.36559e-05
-2.20726e-06
-1.306e-05
-2.24425e-06
-1.24571e-05
-2.27222e-06
-1.18495e-05
-2.29116e-06
-1.12394e-05
-2.30113e-06
-1.0629e-05
-2.30227e-06
-1.00204e-05
-2.29477e-06
-9.41574e-06
-2.27889e-06
-8.8169e-06
-2.25494e-06
-8.22583e-06
-2.22327e-06
-7.64433e-06
-2.18426e-06
-7.07413e-06
-2.13833e-06
-6.51683e-06
-2.0859e-06
-5.97395e-06
-2.02742e-06
-5.4469e-06
-1.9633e-06
-4.93701e-06
-1.89396e-06
-4.44551e-06
-1.81981e-06
-3.97354e-06
-1.7412e-06
-3.52218e-06
-1.65845e-06
-3.09246e-06
-1.57187e-06
-2.68532e-06
-1.48169e-06
-2.30171e-06
-1.38812e-06
-1.94249e-06
-1.29133e-06
-1.60852e-06
-1.19147e-06
-1.30062e-06
-1.08866e-06
-1.0196e-06
-9.83046e-07
-7.66171e-07
-8.74791e-07
-5.41039e-07
-7.64128e-07
-3.44762e-07
-6.51394e-07
-1.77812e-07
-5.37087e-07
-4.03891e-08
-4.21931e-07
6.74844e-08
-3.06957e-07
1.46299e-07
-1.93619e-07
1.96841e-07
-8.38984e-08
2.20816e-07
1.9497e-08
2.20332e-07
1.13007e-07
1.9907e-07
1.91897e-07
1.61116e-07
2.50204e-07
1.13249e-07
2.80202e-07
6.24512e-08
2.72738e-07
2.05973e-08
2.16203e-07
9.80086e-08
-6.07742e-08
1.76467e-07
-2.18755e-07
5.38749e-07
-4.62249e-07
8.77948e-07
-7.72943e-07
1.18539e-06
-1.14226e-06
1.44949e-06
-1.55763e-06
1.67139e-06
-2.01176e-06
1.85073e-06
-2.49576e-06
1.9929e-06
-3.00387e-06
2.10185e-06
-3.52998e-06
2.18366e-06
-4.06998e-06
2.24298e-06
-4.6199e-06
2.28487e-06
-5.17704e-06
2.31318e-06
-5.73898e-06
2.33148e-06
-6.30411e-06
2.34243e-06
-6.87105e-06
2.34824e-06
-7.43888e-06
2.35049e-06
-8.00683e-06
2.35041e-06
-8.57438e-06
2.34876e-06
-9.14109e-06
2.34611e-06
-9.70661e-06
2.34273e-06
-1.02706e-05
2.33876e-06
-1.08329e-05
2.33419e-06
-1.1393e-05
2.32894e-06
-1.19506e-05
2.32284e-06
-1.25054e-05
2.31567e-06
-1.30569e-05
2.3072e-06
-1.36048e-05
2.29714e-06
-1.41483e-05
2.28523e-06
-1.46869e-05
2.27114e-06
-1.522e-05
2.25458e-06
-1.57469e-05
2.23522e-06
-1.62666e-05
2.21275e-06
-1.67784e-05
2.18684e-06
-1.72814e-05
2.15716e-06
-1.77744e-05
2.12339e-06
-1.82565e-05
2.08521e-06
-1.87266e-05
2.04231e-06
-1.91834e-05
1.99439e-06
-1.96258e-05
1.94116e-06
-2.00523e-05
1.88236e-06
-2.04618e-05
1.81774e-06
-2.08529e-05
1.74708e-06
-2.12241e-05
1.67018e-06
-2.15742e-05
1.5869e-06
-2.19015e-05
1.49713e-06
-2.22049e-05
1.40079e-06
-2.24828e-05
1.29785e-06
-2.2734e-05
1.18836e-06
-2.2957e-05
1.07239e-06
-2.31506e-05
9.50076e-07
-2.33137e-05
8.21631e-07
-2.3445e-05
6.87311e-07
-2.35435e-05
5.47441e-07
-2.36082e-05
4.02409e-07
-2.36384e-05
2.52665e-07
-2.36332e-05
9.87202e-08
-2.35922e-05
-5.88564e-08
-2.35149e-05
-2.19439e-07
-2.3401e-05
-3.82348e-07
-2.32503e-05
-5.46857e-07
-2.3063e-05
-7.12199e-07
-2.28392e-05
-8.77568e-07
-2.25793e-05
-1.04213e-06
-2.22839e-05
-1.20502e-06
-2.19536e-05
-1.36538e-06
-2.15895e-05
-1.52232e-06
-2.11926e-05
-1.67498e-06
-2.07642e-05
-1.82248e-06
-2.03056e-05
-1.964e-06
-1.98185e-05
-2.09871e-06
-1.93046e-05
-2.22586e-06
-1.87657e-05
-2.34472e-06
-1.82038e-05
-2.45462e-06
-1.7621e-05
-2.55499e-06
-1.70194e-05
-2.64528e-06
-1.64013e-05
-2.72506e-06
-1.57691e-05
-2.79397e-06
-1.5125e-05
-2.85173e-06
-1.44715e-05
-2.89817e-06
-1.3811e-05
-2.93319e-06
-1.31458e-05
-2.9568e-06
-1.24782e-05
-2.96909e-06
-1.18107e-05
-2.97023e-06
-1.11454e-05
-2.96047e-06
-1.04846e-05
-2.94015e-06
-9.83026e-06
-2.90965e-06
-9.18452e-06
-2.86942e-06
-8.54924e-06
-2.81994e-06
-7.92623e-06
-2.76173e-06
-7.31718e-06
-2.69532e-06
-6.7237e-06
-2.62126e-06
-6.14727e-06
-2.54008e-06
-5.58928e-06
-2.4523e-06
-5.05101e-06
-2.3584e-06
-4.53368e-06
-2.25883e-06
-4.03842e-06
-2.154e-06
-3.5663e-06
-2.04426e-06
-3.11834e-06
-1.9299e-06
-2.6955e-06
-1.81119e-06
-2.29873e-06
-1.68832e-06
-1.92893e-06
-1.56147e-06
-1.58696e-06
-1.4308e-06
-1.27368e-06
-1.29648e-06
-9.8987e-07
-1.15873e-06
-7.36262e-07
-1.01785e-06
-5.13457e-07
-8.74281e-07
-3.21954e-07
-7.28666e-07
-1.61973e-07
-5.81944e-07
-3.35392e-08
-4.35434e-07
6.38435e-08
-2.9098e-07
1.30988e-07
-1.51065e-07
1.69622e-07
-1.90545e-08
1.81904e-07
1.00697e-07
1.71535e-07
2.02425e-07
1.42679e-07
2.78975e-07
1.02108e-07
3.21045e-07
5.69359e-08
3.17673e-07
1.88387e-08
2.54734e-07
1.16699e-07
-7.03954e-08
2.45961e-07
-2.51911e-07
7.21796e-07
-5.296e-07
1.15432e-06
-8.81328e-07
1.5379e-06
-1.29674e-06
1.86417e-06
-1.76133e-06
2.13629e-06
-2.267e-06
2.35594e-06
-2.80404e-06
2.52999e-06
-3.36638e-06
2.66385e-06
-3.94756e-06
2.76477e-06
-4.54334e-06
2.83848e-06
-5.14958e-06
2.89096e-06
-5.76349e-06
2.92684e-06
-6.38253e-06
2.95035e-06
-7.00501e-06
2.96467e-06
-7.62942e-06
2.97246e-06
-8.25477e-06
2.97562e-06
-8.88019e-06
2.97562e-06
-9.50506e-06
2.97342e-06
-1.01288e-05
2.96968e-06
-1.07511e-05
2.96477e-06
-1.13714e-05
2.95887e-06
-1.19894e-05
2.95198e-06
-1.26047e-05
2.944e-06
-1.32168e-05
2.93473e-06
-1.38252e-05
2.92393e-06
-1.44296e-05
2.91131e-06
-1.50292e-05
2.89654e-06
-1.56234e-05
2.87927e-06
-1.62116e-05
2.85914e-06
-1.6793e-05
2.83576e-06
-1.73668e-05
2.80876e-06
-1.7932e-05
2.77773e-06
-1.84876e-05
2.7423e-06
-1.90327e-05
2.70206e-06
-1.95662e-05
2.65662e-06
-2.00868e-05
2.6056e-06
-2.05933e-05
2.54864e-06
-2.10845e-05
2.48537e-06
-2.15589e-05
2.41545e-06
-2.20153e-05
2.33858e-06
-2.24523e-05
2.25447e-06
-2.28682e-05
2.16287e-06
-2.32618e-05
2.06357e-06
-2.36315e-05
1.95642e-06
-2.39758e-05
1.84129e-06
-2.42933e-05
1.71812e-06
-2.45825e-05
1.58692e-06
-2.4842e-05
1.44776e-06
-2.50705e-05
1.30076e-06
-2.52666e-05
1.14612e-06
-2.54292e-05
9.84129e-07
-2.55571e-05
8.15125e-07
-2.56493e-05
6.39536e-07
-2.57048e-05
4.57861e-07
-2.57228e-05
2.70673e-07
-2.57028e-05
7.86159e-08
-2.5644e-05
-1.17595e-07
-2.55463e-05
-3.17179e-07
-2.54093e-05
-5.19299e-07
-2.52331e-05
-7.23057e-07
-2.50177e-05
-9.27512e-07
-2.47635e-05
-1.13168e-06
-2.4471e-05
-1.33454e-06
-2.41408e-05
-1.53507e-06
-2.37739e-05
-1.73219e-06
-2.33712e-05
-1.92486e-06
-2.2934e-05
-2.11202e-06
-2.24637e-05
-2.29264e-06
-2.19618e-05
-2.46571e-06
-2.143e-05
-2.63027e-06
-2.08703e-05
-2.7854e-06
-2.02845e-05
-2.93024e-06
-1.96749e-05
-3.06401e-06
-1.90436e-05
-3.18601e-06
-1.8393e-05
-3.29562e-06
-1.77255e-05
-3.39232e-06
-1.70435e-05
-3.47569e-06
-1.63495e-05
-3.54541e-06
-1.56461e-05
-3.6013e-06
-1.49357e-05
-3.64324e-06
-1.4221e-05
-3.67126e-06
-1.35043e-05
-3.68548e-06
-1.27881e-05
-3.68613e-06
-1.20747e-05
-3.67352e-06
-1.13665e-05
-3.64806e-06
-1.06657e-05
-3.61022e-06
-9.97423e-06
-3.56056e-06
-9.29423e-06
-3.49966e-06
-8.62752e-06
-3.42816e-06
-7.97587e-06
-3.34671e-06
-7.34091e-06
-3.25596e-06
-6.72418e-06
-3.15656e-06
-6.12709e-06
-3.04914e-06
-5.55098e-06
-2.93428e-06
-4.99707e-06
-2.81252e-06
-4.46653e-06
-2.68434e-06
-3.96042e-06
-2.55017e-06
-3.47979e-06
-2.41035e-06
-3.02563e-06
-2.26519e-06
-2.59887e-06
-2.11492e-06
-2.20045e-06
-1.95975e-06
-1.83124e-06
-1.79988e-06
-1.4921e-06
-1.63551e-06
-1.18384e-06
-1.4669e-06
-9.0719e-07
-1.29442e-06
-6.6277e-07
-1.11863e-06
-4.51082e-07
-9.40316e-07
-2.72348e-07
-7.60633e-07
-1.26589e-07
-5.81194e-07
-1.33063e-08
-4.04234e-07
6.83262e-08
-2.32743e-07
1.20034e-07
-7.07336e-08
1.43992e-07
7.66372e-08
1.43869e-07
2.02607e-07
1.23854e-07
2.98808e-07
9.06094e-08
3.54438e-07
5.12633e-08
3.56699e-07
1.71071e-08
2.89195e-07
1.33587e-07
-7.89202e-08
3.23957e-07
-2.81719e-07
9.26422e-07
-5.90633e-07
1.46189e-06
-9.80099e-07
1.92842e-06
-1.43807e-06
2.32152e-06
-1.94817e-06
2.64698e-06
-2.50147e-06
2.90899e-06
-3.08738e-06
3.11628e-06
-3.69954e-06
3.27596e-06
-4.33112e-06
3.39661e-06
-4.97776e-06
3.48517e-06
-5.63516e-06
3.54857e-06
-6.30049e-06
3.59226e-06
-6.97111e-06
3.62116e-06
-7.64528e-06
3.63896e-06
-8.32141e-06
3.64876e-06
-8.99843e-06
3.65279e-06
-9.6754e-06
3.65275e-06
-1.03516e-05
3.64978e-06
-1.10265e-05
3.64468e-06
-1.16994e-05
3.63787e-06
-1.237e-05
3.62958e-06
-1.30377e-05
3.61982e-06
-1.3702e-05
3.60848e-06
-1.43625e-05
3.59534e-06
-1.50185e-05
3.58011e-06
-1.56695e-05
3.56245e-06
-1.63147e-05
3.54197e-06
-1.69536e-05
3.51827e-06
-1.75852e-05
3.49091e-06
-1.82088e-05
3.45946e-06
-1.88233e-05
3.42345e-06
-1.94279e-05
3.38242e-06
-2.00213e-05
3.33591e-06
-2.06026e-05
3.28346e-06
-2.11704e-05
3.22461e-06
-2.17236e-05
3.15892e-06
-2.22608e-05
3.08596e-06
-2.27806e-05
3.00531e-06
-2.32816e-05
2.91659e-06
-2.37623e-05
2.81945e-06
-2.42213e-05
2.71358e-06
-2.4657e-05
2.5987e-06
-2.50679e-05
2.47459e-06
-2.54524e-05
2.34107e-06
-2.58091e-05
2.19806e-06
-2.61364e-05
2.0455e-06
-2.64328e-05
1.88343e-06
-2.66969e-05
1.71196e-06
-2.69273e-05
1.53129e-06
-2.71228e-05
1.34167e-06
-2.72821e-05
1.14348e-06
-2.74041e-05
9.37157e-07
-2.74877e-05
7.23237e-07
-2.75322e-05
5.02339e-07
-2.75366e-05
2.7517e-07
-2.75005e-05
4.25181e-08
-2.74234e-05
-1.9475e-07
-2.73049e-05
-4.35693e-07
-2.71449e-05
-6.79301e-07
-2.69435e-05
-9.24505e-07
-2.67008e-05
-1.17018e-06
-2.64174e-05
-1.41516e-06
-2.60938e-05
-1.65823e-06
-2.57308e-05
-1.89818e-06
-2.53293e-05
-2.13376e-06
-2.48905e-05
-2.36372e-06
-2.44158e-05
-2.58684e-06
-2.39067e-05
-2.80191e-06
-2.33648e-05
-3.00774e-06
-2.2792e-05
-3.20321e-06
-2.21903e-05
-3.38725e-06
-2.15618e-05
-3.55888e-06
-2.09088e-05
-3.71718e-06
-2.02337e-05
-3.86134e-06
-1.95388e-05
-3.99065e-06
-1.88268e-05
-4.1045e-06
-1.81003e-05
-4.20243e-06
-1.73618e-05
-4.28409e-06
-1.66141e-05
-4.34924e-06
-1.58597e-05
-4.39781e-06
-1.51014e-05
-4.42981e-06
-1.43417e-05
-4.44542e-06
-1.35831e-05
-4.44491e-06
-1.28282e-05
-4.42868e-06
-1.20792e-05
-4.39721e-06
-1.13385e-05
-4.35109e-06
-1.06083e-05
-4.29098e-06
-9.89062e-06
-4.21758e-06
-9.18733e-06
-4.13164e-06
-8.50028e-06
-4.03396e-06
-7.83112e-06
-3.9253e-06
-7.18142e-06
-3.80644e-06
-6.5526e-06
-3.67813e-06
-5.946e-06
-3.54104e-06
-5.36285e-06
-3.39583e-06
-4.80428e-06
-3.24306e-06
-4.27138e-06
-3.08321e-06
-3.76515e-06
-2.91671e-06
-3.28657e-06
-2.74389e-06
-2.83655e-06
-2.56505e-06
-2.416e-06
-2.38041e-06
-2.02578e-06
-2.19019e-06
-1.66673e-06
-1.99464e-06
-1.33963e-06
-1.79406e-06
-1.04521e-06
-1.58891e-06
-7.84066e-07
-1.37982e-06
-5.56679e-07
-1.16775e-06
-3.63264e-07
-9.5406e-07
-2.03829e-07
-7.40661e-07
-7.78717e-08
-5.30171e-07
1.54425e-08
-3.26087e-07
7.78234e-08
-1.33053e-07
1.11447e-07
4.2967e-08
1.1993e-07
1.94243e-07
1.07453e-07
3.11183e-07
8.05476e-08
3.81556e-07
4.62941e-08
3.90724e-07
1.55987e-08
3.20238e-07
1.49043e-07
-8.66659e-08
4.09542e-07
-3.08791e-07
1.15047e-06
-6.46159e-07
1.79768e-06
-1.07016e-06
2.35345e-06
-1.56717e-06
2.81771e-06
-2.11907e-06
3.19936e-06
-2.71612e-06
3.50557e-06
-3.34688e-06
3.74723e-06
-4.00464e-06
3.93344e-06
-4.68222e-06
4.07424e-06
-5.37516e-06
4.17791e-06
-6.07901e-06
4.25238e-06
-6.79089e-06
4.30399e-06
-7.5081e-06
4.3383e-06
-8.22886e-06
4.35958e-06
-8.95152e-06
4.37133e-06
-9.67496e-06
4.37611e-06
-1.03982e-05
4.37585e-06
-1.11204e-05
4.37188e-06
-1.18409e-05
4.3651e-06
-1.25592e-05
4.35601e-06
-1.32745e-05
4.34486e-06
-1.39865e-05
4.33168e-06
-1.46945e-05
4.31635e-06
-1.53979e-05
4.29862e-06
-1.6096e-05
4.27816e-06
-1.67883e-05
4.25457e-06
-1.74738e-05
4.22743e-06
-1.81519e-05
4.19624e-06
-1.88216e-05
4.16053e-06
-1.9482e-05
4.11977e-06
-2.01321e-05
4.07344e-06
-2.07708e-05
4.021e-06
-2.1397e-05
3.96193e-06
-2.20093e-05
3.8957e-06
-2.26066e-05
3.82179e-06
-2.31875e-05
3.73968e-06
-2.37505e-05
3.6489e-06
-2.42943e-05
3.54899e-06
-2.48173e-05
3.4395e-06
-2.5318e-05
3.32007e-06
-2.57948e-05
3.19034e-06
-2.62463e-05
3.05002e-06
-2.66706e-05
2.89889e-06
-2.70664e-05
2.73677e-06
-2.7432e-05
2.56359e-06
-2.77659e-05
2.37933e-06
-2.80666e-05
2.18406e-06
-2.83327e-05
1.97795e-06
-2.85627e-05
1.76125e-06
-2.87554e-05
1.53431e-06
-2.89096e-05
1.2976e-06
-2.90241e-05
1.05165e-06
-2.9098e-05
7.97118e-07
-2.91304e-05
5.34759e-07
-2.91207e-05
2.65413e-07
-2.90682e-05
-9.9787e-09
-2.89726e-05
-2.90391e-07
-2.88336e-05
-5.74714e-07
-2.86511e-05
-8.61765e-07
-2.84253e-05
-1.15029e-06
-2.81564e-05
-1.43898e-06
-2.78451e-05
-1.72648e-06
-2.74919e-05
-2.01139e-06
-2.70977e-05
-2.2923e-06
-2.66636e-05
-2.56776e-06
-2.61909e-05
-2.83635e-06
-2.5681e-05
-3.09665e-06
-2.51356e-05
-3.34726e-06
-2.45564e-05
-3.58684e-06
-2.39454e-05
-3.8141e-06
-2.33047e-05
-4.02782e-06
-2.26366e-05
-4.22686e-06
-2.19435e-05
-4.41018e-06
-2.12278e-05
-4.57686e-06
-2.04923e-05
-4.72609e-06
-1.97394e-05
-4.85719e-06
-1.89721e-05
-4.96964e-06
-1.8193e-05
-5.06304e-06
-1.74049e-05
-5.13715e-06
-1.66107e-05
-5.19188e-06