/*--------------------------------*- C++ -*----------------------------------*\
| =========                 |                                                 |
| \\      /  F ield         | OpenFOAM: The Open Source CFD Toolbox           |
|  \\    /   O peration     | Version:  2406                                  |
|   \\  /    A nd           | Website:  www.openfoam.com                      |
|    \\/     M anipulation  |                                                 |
\*---------------------------------------------------------------------------*/
FoamFile
{
    version     2.0;
    format      ascii;
    arch        "LSB;label=32;scalar=64";
    class       volScalarField;
    location    "0.3";
    object      error_velocity_mag_squ;
}
// * * * * * * * * * * * * * * * * * * * * * * * * * * * * * * * * * * * * * //

dimensions      [0 2 -2 0 0 0 0];

internalField   nonuniform List<scalar> 
16384
(
6.3142202316e-10
3.13533950292e-09
8.04637972257e-09
1.51548591402e-08
2.41658053615e-08
3.47114515731e-08
4.63670802097e-08
5.86684774955e-08
7.11307821244e-08
8.32673512681e-08
9.4608059109e-08
1.04717468296e-07
1.13211269748e-07
1.19770341817e-07
1.24151585256e-07
1.26196510493e-07
1.25836923113e-07
1.23096033084e-07
1.1808685276e-07
1.11007636613e-07
1.02133307234e-07
9.18045516308e-08
8.0415055224e-08
6.83963739695e-08
5.62015776978e-08
4.4288708211e-08
3.31039410253e-08
2.30649501275e-08
1.45456616974e-08
7.86290666886e-09
3.26499655419e-09
9.22615659748e-10
9.22623425212e-10
3.26500875267e-09
7.86289304002e-09
1.45456338868e-08
2.30649701732e-08
3.31040140993e-08
4.42887352676e-08
5.62015204498e-08
6.8396360514e-08
8.04151761876e-08
9.18047331323e-08
1.02133511551e-07
1.11007888125e-07
1.18087058064e-07
1.23096170648e-07
1.25837152246e-07
1.26196798446e-07
1.24151824264e-07
1.19770601163e-07
1.13211427673e-07
1.04717372574e-07
9.46078631441e-08
8.32672697936e-08
7.11308446774e-08
5.86685065169e-08
4.6367055881e-08
3.47114520325e-08
2.41658177208e-08
1.5154863879e-08
8.04638675385e-09
3.13534320885e-09
6.31422055387e-10
6.31421187131e-10
3.131298317e-09
8.03803922194e-09
1.5147486449e-08
2.41684462335e-08
3.47373068222e-08
4.64329909445e-08
5.87942361289e-08
7.13380361148e-08
8.35785455166e-08
9.50457719829e-08
1.05303395354e-07
1.13965055723e-07
1.2070853094e-07
1.25287320308e-07
1.2753924329e-07
1.27391757503e-07
1.2486386942e-07
1.20064617824e-07
1.1318823691e-07
1.04506201018e-07
9.43565050375e-08
8.31306108261e-08
7.12585430818e-08
5.91926680777e-08
4.73907808055e-08
3.62991176402e-08
2.63358824271e-08
1.78758712363e-08
1.1236757377e-08
6.66750233138e-09
4.33928922855e-09
4.33928617224e-09
6.66749515926e-09
1.12367548514e-08
1.78758944985e-08
2.63359340965e-08
3.62991760181e-08
4.73908323037e-08
5.91927343427e-08
7.12586517929e-08
8.31307749964e-08
9.43567481746e-08
1.0450652243e-07
1.13188538754e-07
1.20064778493e-07
1.24863839839e-07
1.27391514082e-07
1.27538855757e-07
1.25286987628e-07
1.20708315883e-07
1.13964938884e-07
1.0530338207e-07
9.50457900178e-08
8.35785593581e-08
7.13380394071e-08
5.87942317237e-08
4.64329914849e-08
3.47373042627e-08
2.4168443527e-08
1.51474827308e-08
8.03803692893e-09
3.13129686713e-09
6.31422273477e-10
3.13129618737e-09
5.56810973115e-09
1.04167259135e-08
1.74657894333e-08
2.64200480208e-08
3.69091163725e-08
4.85059430849e-08
6.07442745505e-08
7.31371537658e-08
8.51960534766e-08
9.64499673e-08
1.06462997744e-07
1.14850196616e-07
1.21292171461e-07
1.25546857184e-07
1.27457080159e-07
1.26955722243e-07
1.24067880963e-07
1.18908889257e-07
1.11679114901e-07
1.02655848236e-07
9.21822654441e-08
8.0654241386e-08
6.85054606596e-08
5.61911088594e-08
4.41708659994e-08
3.2892029818e-08
2.2773279579e-08
1.41894764468e-08
7.45804652072e-09
2.8275451647e-09
4.68800866603e-10
4.6880527842e-10
2.82756114853e-09
7.45807183103e-09
1.41895136676e-08
2.27733351871e-08
3.28921150613e-08
4.4170988239e-08
5.61912487511e-08
6.85055639975e-08
8.06542764591e-08
9.21822892452e-08
1.02655944399e-07
1.11679279419e-07
1.18909063904e-07
1.24068035885e-07
1.26955832064e-07
1.27457186635e-07
1.25547037446e-07
1.21292287494e-07
1.14850131434e-07
1.0646297432e-07
9.6450070221e-08
8.51961059195e-08
7.31371198861e-08
6.07442625792e-08
4.85059647062e-08
3.69091325118e-08
2.64200694838e-08
1.74657964726e-08
1.04167305068e-08
5.56811355602e-09
3.13129417249e-09
3.13533458565e-09
5.5681090582e-09
1.04111541383e-08
1.74760056509e-08
2.64750619435e-08
3.7048497864e-08
4.87779210875e-08
6.12035251991e-08
7.38425587159e-08
8.62082512902e-08
9.78285834003e-08
1.0826422119e-07
1.17124960616e-07
1.24084104098e-07
1.28890259131e-07
1.31376152428e-07
1.31464185833e-07
1.29168563203e-07
1.24593954866e-07
1.17930809244e-07
1.09447525342e-07
9.94798141612e-08
8.84176488247e-08
7.66902903987e-08
6.47499733641e-08
5.30548716249e-08
4.20519651933e-08
3.21604297408e-08
2.37561346801e-08
1.7157784276e-08
1.2615201932e-08
1.03001773506e-08
1.03001869471e-08
1.26152282555e-08
1.71577995585e-08
2.37561331674e-08
3.21604330761e-08
4.20519820728e-08
5.30548743249e-08
6.47499353199e-08
7.66902202527e-08
8.84175470153e-08
9.94796632964e-08
1.09447369617e-07
1.17930727654e-07
1.24593970892e-07
1.29168696567e-07
1.31464417351e-07
1.31376306951e-07
1.28890247174e-07
1.24084055825e-07
1.17124927926e-07
1.08264194209e-07
9.78285545872e-08
8.62082270849e-08
7.38425752071e-08
6.1203520916e-08
4.87779024185e-08
3.70484977314e-08
2.64750550118e-08
1.74760037661e-08
1.04111521611e-08
5.56810878943e-09
3.13534035724e-09
8.03803621646e-09
1.04111490095e-08
1.51964324585e-08
2.21807512918e-08
3.10725285371e-08
4.14995793142e-08
5.30339528104e-08
6.52082164451e-08
7.75346002839e-08
8.95236205373e-08
1.00703212083e-07
1.10636806528e-07
1.18939228026e-07
1.2529055352e-07
1.29447957895e-07
1.31254193191e-07
1.30642537287e-07
1.27638688615e-07
1.22358840787e-07
1.15004298308e-07
1.05853603372e-07
9.52517427336e-08
8.35966926146e-08
7.13243436122e-08
5.88922061476e-08
4.67623276639e-08
3.53843089057e-08
2.51790480807e-08
1.65234469338e-08
9.73663943262e-09
5.06847991868e-09
2.69067599438e-09
2.69066707647e-09
5.0684723647e-09
9.73665735985e-09
1.65234831655e-08
2.51790503568e-08
3.53842661859e-08
4.67623196677e-08
5.88922970914e-08
7.13244695946e-08
8.35967468769e-08
9.52516898103e-08
1.05853464329e-07
1.15004142166e-07
1.22358774434e-07
1.27638675391e-07
1.30642393754e-07
1.31253903229e-07
1.29447659651e-07
1.25290344493e-07
1.1893920126e-07
1.10636937531e-07
1.00703293292e-07
8.95235766111e-08
7.75345635941e-08
6.52082460863e-08
5.30339647866e-08
4.14996004544e-08
3.1072526461e-08
2.21807498149e-08
1.51964341132e-08
1.04111578391e-08
8.03802907656e-09
8.04636858109e-09
1.04167225319e-08
1.51964308948e-08
2.22197319625e-08
3.12025268968e-08
4.17882806494e-08
5.35606904072e-08
6.60606278681e-08
7.88048210388e-08
9.13048428868e-08
1.03085959234e-07
1.13705194598e-07
1.2276795365e-07
1.29942610021e-07
1.34972534387e-07
1.37685148859e-07
1.37997735242e-07
1.35919778793e-07
1.3155183835e-07
1.25081017564e-07
1.1677322081e-07
1.06962516379e-07
9.60380315387e-08
8.44289294335e-08
7.25880159189e-08
6.09745843437e-08
5.00371227986e-08
4.01965197241e-08
3.18303769225e-08
2.52589993561e-08
2.07335600632e-08
1.84268315639e-08
1.8426828386e-08
2.07335523038e-08
2.52589925904e-08
3.1830357641e-08
4.01964760284e-08
5.00370647735e-08
6.09745339793e-08
7.2587971618e-08
8.44288752362e-08
9.60379620093e-08
1.069624096e-07
1.16773031915e-07
1.2508075277e-07
1.31551566194e-07
1.35919564523e-07
1.3799765232e-07
1.37685229552e-07
1.34972688494e-07
1.29942736064e-07
1.22767995739e-07
1.13705170777e-07
1.03085926755e-07
9.13048005942e-08
7.88047829706e-08
6.60606148881e-08
5.3560680916e-08
4.17882620374e-08
3.12025259562e-08
2.22197287758e-08
1.51964262656e-08
1.04167259065e-08
8.04638444521e-09
1.51474813635e-08
1.74760019188e-08
2.22197273595e-08
2.91590237131e-08
3.80074891235e-08
4.83901265423e-08
5.98778210647e-08
7.20017579949e-08
8.42729062831e-08
9.62010900294e-08
1.07313442731e-07
1.17172387115e-07
1.25392318847e-07
1.31653381051e-07
1.35712722623e-07
1.37413289562e-07
1.36688843031e-07
1.33565604342e-07
1.28160519053e-07
1.2067615806e-07
1.11392649041e-07
1.0065677267e-07
8.88685393493e-08
7.64660128141e-08
6.39090343525e-08
5.16622561652e-08
4.01780225829e-08
2.98797774797e-08
2.11466440457e-08
1.42997159472e-08
9.59050127487e-09
7.19187525239e-09
7.1918608689e-09
9.59046254731e-09
1.42996795944e-08
2.11466289226e-08
2.98797690485e-08
4.01779886521e-08
5.16621839624e-08
6.39089440825e-08
7.64659486064e-08
8.88685325017e-08
1.00656795035e-07
1.11392619971e-07
1.20676045842e-07
1.28160387837e-07
1.33565524208e-07
1.36688825326e-07
1.37413313083e-07
1.35712746933e-07
1.31653394351e-07
1.25392337078e-07
1.17172324542e-07
1.07313324402e-07
9.62010709398e-08
8.42729598792e-08
7.20017723464e-08
5.98778167828e-08
4.83901234145e-08
3.80074798655e-08
2.91590352075e-08
2.22197318424e-08
1.74760122766e-08
1.51474714317e-08
1.51548334365e-08
1.74657829253e-08
2.21807428858e-08
2.91590329768e-08
3.81202832182e-08
4.87113481271e-08
6.05184301906e-08
7.30833472148e-08
8.59224927819e-08
9.85459307829e-08
1.10476326132e-07
1.21267146533e-07
1.30519473862e-07
1.3789681611e-07
1.43137384421e-07
1.46063412042e-07
1.46587196927e-07
1.44713645736e-07
1.4053933546e-07
1.34248098218e-07
1.2610334427e-07
1.16437481864e-07
1.05638830626e-07
9.41365532642e-08
8.23841559619e-08
7.08421934013e-08
5.99608217983e-08
5.01628344307e-08
4.18278001252e-08
3.52778775216e-08
3.07657975465e-08
2.84654544735e-08
2.84654458616e-08
3.07657715652e-08
3.52778508841e-08
4.18277869895e-08
5.01628349794e-08
5.99608259284e-08
7.08421949897e-08
8.23841698122e-08
9.41366079051e-08
1.05638949861e-07
1.16437674484e-07
1.26103589102e-07
1.34248333399e-07
1.4053949965e-07
1.44713701092e-07
1.46587113405e-07
1.46063232617e-07
1.43137233804e-07
1.37896758298e-07
1.30519480184e-07
1.2126713871e-07
1.10476330212e-07
9.85459358667e-08
8.59224722265e-08
7.30833304632e-08
6.05184201391e-08
4.87113407219e-08
3.81202823974e-08
2.91590264128e-08
2.21807424667e-08
1.74657894944e-08
1.515485656e-08
2.41684458327e-08
2.64750491499e-08
3.12025212017e-08
3.81202776902e-08
4.69480311107e-08
5.7307161882e-08
6.87674429621e-08
8.08584893104e-08
9.30899277571e-08
1.04970353156e-07
1.16026125612e-07
1.25819111054e-07
1.33963011072e-07
1.40137648415e-07
1.44100486088e-07
1.45694880542e-07
1.44855181007e-07
1.41608529314e-07
1.36073185023e-07
1.28453462503e-07
1.19031448711e-07
1.08155969998e-07
9.62292787886e-08
8.36919269299e-08
7.10063717144e-08
5.86398993254e-08
4.70473995064e-08
3.66546824407e-08
2.78430167615e-08
2.09353856357e-08
1.61848331093e-08
1.37652889494e-08
1.37653021658e-08
1.61848420376e-08
2.09353656673e-08
2.78429665108e-08
3.66546356909e-08
4.70473723054e-08
5.86398544276e-08
7.10062638712e-08
8.36917714303e-08
9.62291465706e-08
1.08155906998e-07
1.1903143567e-07
1.28453436455e-07
1.36073104591e-07
1.41608424474e-07
1.44855130322e-07
1.45694918995e-07
1.44100562959e-07
1.40137666286e-07
1.33962935867e-07
1.25819029854e-07
1.16026114354e-07
1.04970388346e-07
9.30899458995e-08
8.08584821988e-08
6.8767441745e-08
5.73071572798e-08
4.69480605204e-08
3.81202862037e-08
3.12025255981e-08
2.64750764122e-08
2.41684290792e-08
2.41657713943e-08
2.6420048143e-08
3.10725160419e-08
3.80074752419e-08
4.69480547115e-08
5.75438854544e-08
6.93835951436e-08
8.20098224175e-08
9.49384710622e-08
1.07677977194e-07
1.19748339606e-07
1.3069946893e-07
1.40128186459e-07
1.47693256594e-07
1.53127900382e-07
1.56249361992e-07
1.56965132786e-07
1.55275762206e-07
1.51274075685e-07
1.45140861045e-07
1.37137334682e-07
1.27594600866e-07
1.16900549297e-07
1.05484716358e-07
9.38016802314e-08
8.23136278355e-08
7.14727289954e-08
6.17039844655e-08
5.33891665976e-08
4.68524406529e-08
4.23481857689e-08
4.00514647291e-08
4.00514706794e-08
4.23482011938e-08
4.68524521262e-08
5.33891679905e-08
6.17039784219e-08
7.14727208133e-08
8.23136091884e-08
9.38016343719e-08
1.05484635615e-07
1.16900437738e-07
1.27594463861e-07
1.37137193033e-07
1.45140760947e-07
1.51274068561e-07
1.55275851673e-07
1.5696523181e-07
1.56249402739e-07
1.53127908395e-07
1.47693246271e-07
1.40128134682e-07
1.30699414348e-07
1.19748335566e-07
1.07677979092e-07
9.49384545534e-08
8.20098225716e-08
6.93835838952e-08
5.75438805414e-08
4.69480539369e-08
3.800747405e-08
3.10725061113e-08
2.64200604577e-08
2.41658256385e-08
3.47373006654e-08
3.70485009223e-08
4.17882771781e-08
4.87113433116e-08
5.7543874833e-08
6.79023398359e-08
7.93559349223e-08
9.14324376952e-08
1.03640352597e-07
1.15487189176e-07
1.26498473652e-07
1.36235597271e-07
1.44312036606e-07
1.50407534306e-07
1.54279699596e-07
1.55772317165e-07
1.54820612636e-07
1.51452967951e-07
1.45789170941e-07
1.38035322848e-07
1.28475524836e-07
1.17460854902e-07
1.05396067977e-07
9.27243921656e-08
7.99109810304e-08
6.74257040283e-08
5.57259142825e-08
4.52397645e-08
3.63506572394e-08
2.93833585912e-08
2.4592264651e-08
2.21522202859e-08
2.21522363784e-08
2.45923016923e-08
2.93833909427e-08
3.63506646243e-08
4.52397508201e-08
5.57258921633e-08
6.74256824797e-08
7.99109583743e-08
9.27243577884e-08
1.05396010689e-07
1.17460785105e-07
1.28475480336e-07
1.38035323914e-07
1.45789188632e-07
1.51452963319e-07
1.54820582091e-07
1.55772276158e-07
1.54279675128e-07
1.5040754175e-07
1.44312054174e-07
1.36235641669e-07
1.26498527072e-07
1.15487219964e-07
1.03640365681e-07
9.14324481048e-08
7.9355943661e-08
6.79023731511e-08
5.75438972125e-08
4.87113511443e-08
4.17882735058e-08
3.70485238351e-08
3.4737291805e-08
3.47113842283e-08
3.69091011019e-08
4.14995897818e-08
4.8390119208e-08
5.73071520963e-08
6.79023566302e-08
7.97667205355e-08
9.24438202392e-08
1.05449238442e-07
1.18290042985e-07
1.30483884335e-07
1.41577473283e-07
1.51163737752e-07
1.58897060983e-07
1.64506012667e-07
1.67803113264e-07
1.68691378061e-07
1.67167242897e-07
1.63319954018e-07
1.57327503905e-07
1.49449118314e-07
1.40014756604e-07
1.29411994532e-07
1.1807082005e-07
1.06446921609e-07
9.5004107389e-08
8.41965091464e-08
7.44512467395e-08
6.61521835718e-08
5.96253867541e-08
5.51268089757e-08
5.28326326371e-08
5.28326398893e-08
5.51268354481e-08
5.96254367093e-08
6.61522527431e-08
7.4451327561e-08
8.41965981166e-08
9.5004206399e-08
1.06447032806e-07
1.18070939321e-07
1.29412114774e-07
1.40014855465e-07
1.49449157699e-07
1.57327474734e-07
1.63319901165e-07
1.67167193728e-07
1.68691330187e-07
1.67803077353e-07
1.64506026594e-07
1.58897104702e-07
1.51163707933e-07
1.41577452003e-07
1.30483893332e-07
1.18290018187e-07
1.05449210863e-07
9.24438164534e-08
7.9766705289e-08
6.7902356059e-08
5.73071542649e-08
4.83901041161e-08
4.1499568381e-08
3.69091424041e-08
3.47114585909e-08
4.64329758337e-08
4.87779294699e-08
5.35606923022e-08
6.05184277489e-08
6.93835822938e-08
7.97667057276e-08
9.12364962223e-08
1.03318928009e-07
1.15521408024e-07
1.27350534802e-07
1.38331206662e-07
1.48024439422e-07
1.56043609896e-07
1.62068702534e-07
1.65857676448e-07
1.67255056509e-07
1.66197137731e-07
1.62713611714e-07
1.56925837302e-07
1.49041750304e-07
1.39347571933e-07
1.28196760997e-07
1.15996630924e-07
1.03193050032e-07
9.02538371364e-08
7.76515058525e-08
6.58459568817e-08
5.52677136868e-08
4.6302270569e-08
3.92761274984e-08
3.44450158899e-08
3.19847078243e-08
3.19847011445e-08
3.44450134352e-08
3.92761533724e-08
4.63023391092e-08
5.52678200771e-08
6.58460863972e-08
7.76516562887e-08
9.02540154407e-08
1.03193246397e-07
1.159968207e-07
1.28196928407e-07
1.39347730168e-07
1.49041921062e-07
1.56926011118e-07
1.62713764972e-07
1.66197256663e-07
1.67255128576e-07
1.65857701967e-07
1.62068722844e-07
1.56043644352e-07
1.48024457196e-07
1.38331216654e-07
1.27350528819e-07
1.15521397831e-07
1.03318925012e-07
9.12365025142e-08
7.97667147747e-08
6.93835934222e-08
6.05184217539e-08
5.35606657472e-08
4.8777963698e-08
4.64329878635e-08
4.63669573467e-08
4.85059147495e-08
5.30339598641e-08
5.98778180346e-08
6.87674397762e-08
7.93559206595e-08
9.12365060617e-08
1.03953827774e-07
1.17023302951e-07
1.2995082788e-07
1.42251945223e-07
1.53470422559e-07
1.63195570974e-07
1.71077674389e-07
1.76840926294e-07
1.80293492733e-07
1.81334117e-07
1.79955375368e-07
1.7624330905e-07
1.70373295586e-07
1.62602733712e-07
1.53260557538e-07
1.42734120785e-07
1.31453926944e-07
1.19876816064e-07
1.08468248938e-07
9.76843496421e-08
8.79544040485e-08
7.96644348329e-08
7.31424887974e-08
6.86461564206e-08
6.63527875199e-08
6.63527696202e-08
6.86461051269e-08
7.3142409398e-08
7.96643346797e-08
8.79542906419e-08
9.7684229089e-08
1.08468122861e-07
1.19876697887e-07
1.31453835058e-07
1.42734068241e-07
1.53260542114e-07
1.62602744631e-07
1.70373335373e-07
1.76243383881e-07
1.79955442377e-07
1.81334093624e-07
1.80293442965e-07
1.76840947306e-07
1.71077683157e-07
1.63195509272e-07
1.53470394508e-07
1.4225195616e-07
1.29950779327e-07
1.17023276766e-07
1.03953815924e-07
9.12364896044e-08
7.93559101354e-08
6.87674357154e-08
5.98777952258e-08
5.30339602747e-08
4.8505978671e-08
4.63670326885e-08
5.87942172416e-08
6.12034794315e-08
6.60606169708e-08
7.30833609577e-08
8.20098058908e-08
9.24438010682e-08
1.03953805216e-07
1.16063795373e-07
1.28280275904e-07
1.40109016925e-07
1.5107446145e-07
1.60737447662e-07
1.68711410199e-07
1.74676664765e-07
1.78391842571e-07
1.7970241641e-07
1.78545824799e-07
1.74953192891e-07
1.69047586925e-07
1.61038900256e-07
1.51215556862e-07
1.39933416503e-07
1.27602334751e-07
1.14670804837e-07
1.01609315616e-07
8.88930255172e-08
7.69843653729e-08
6.63161923651e-08
5.72760774577e-08
5.01922867241e-08
4.5321941907e-08
4.28417700548e-08
4.28417619927e-08
4.53219091222e-08
5.01922366545e-08
5.72760110961e-08
6.63161098559e-08
7.69842697371e-08
8.88929267882e-08
1.01609224828e-07
1.14670721214e-07
1.27602252964e-07
1.39933330798e-07
1.51215465414e-07
1.610388057e-07
1.69047482359e-07
1.74953078926e-07
1.78545712052e-07
1.79702307111e-07
1.78391731274e-07
1.7467654861e-07
1.68711307861e-07
1.60737365254e-07
1.51074419298e-07
1.40108985776e-07
1.28280259543e-07
1.1606380166e-07
1.03953819305e-07
9.24438155933e-08
8.20098342062e-08
7.30833446127e-08
6.60605886679e-08
6.12036017897e-08
5.87942673303e-08
5.86683630301e-08
6.07441747138e-08
6.52082515453e-08
7.20017862201e-08
8.08584832655e-08
9.14324121898e-08
1.0331891591e-07
1.16063808664e-07
1.29182537238e-07
1.42180091365e-07
1.54570231989e-07
1.65894153391e-07
1.7573793819e-07
1.83748168827e-07
1.89645087387e-07
1.93232761925e-07
1.94406085333e-07
1.93154118589e-07
1.89559744599e-07
1.83795907406e-07
1.76118279353e-07
1.66854835493e-07
1.56392721565e-07
1.45162940436e-07
1.33623447627e-07
1.22241310556e-07
1.11474598981e-07
1.01754705976e-07
9.34697497532e-08
8.6949683828e-08
8.24536697874e-08
8.01601772048e-08
8.01601769222e-08
8.24536640918e-08
8.69496665883e-08
9.34697140039e-08
1.01754648883e-07
1.11474520042e-07
1.22241206791e-07
1.33623318178e-07
1.45162788464e-07
1.56392552575e-07
1.66854638243e-07
1.7611805172e-07
1.83795690571e-07
1.89559586182e-07
1.93153998683e-07
1.94405963249e-07
1.93232662712e-07
1.89645061484e-07
1.83748112122e-07
1.75737849037e-07
1.65894149949e-07
1.54570250811e-07
1.42180040724e-07
1.29182535025e-07
1.16063810469e-07
1.03318918057e-07
9.14324236997e-08
8.08584950709e-08
7.20017613305e-08
6.52081954287e-08
6.07442636994e-08
5.86685869609e-08
7.13380123161e-08
7.38425147915e-08
7.8804808252e-08
8.59224759806e-08
9.49384770843e-08
1.05449220286e-07
1.1702330036e-07
1.29182519852e-07
1.41432715712e-07
1.53278941612e-07
1.64245337121e-07
1.73892699311e-07
1.81834762755e-07
1.87752336561e-07
1.91404876421e-07
1.92638881376e-07
1.9139308855e-07
1.87700201558e-07
1.81685093829e-07
1.73559685492e-07
1.63614627163e-07
1.52208189447e-07
1.39752755166e-07
1.26699418556e-07
1.13521295456e-07
1.00696129877e-07
8.86888372827e-08
7.79345677165e-08
6.88229365421e-08
6.16839320335e-08
5.67760229826e-08
5.42768529149e-08
5.42768604794e-08
5.67760387771e-08
6.16839358585e-08
6.88229093005e-08
7.7934503506e-08
8.86887370572e-08
1.00696003445e-07
1.13521153999e-07
1.26699279479e-07
1.39752630554e-07
1.52208084493e-07
1.63614541175e-07
1.7355961863e-07
1.81685048876e-07
1.8770018108e-07
1.91393095306e-07
1.92638910062e-07
1.91404925609e-07
1.87752397627e-07
1.81834821645e-07
1.73892770934e-07
1.64245411782e-07
1.53279007625e-07
1.41432780355e-07
1.29182588451e-07
1.1702333361e-07
1.05449253651e-07
9.49385023379e-08
8.59224860603e-08
7.88047404052e-08
7.38426748236e-08
7.1338129338e-08
7.1130631712e-08
7.31369607437e-08
7.75345876691e-08
8.42730106565e-08
9.30899665041e-08
1.03640327589e-07
1.15521386167e-07
1.2828028416e-07
1.41432725814e-07
1.54483081219e-07
1.66943662171e-07
1.78353444434e-07
1.88295649898e-07
1.9641352407e-07
2.02423653957e-07
2.06126424093e-07
2.07413080509e-07
2.06269296865e-07
2.02775144109e-07
1.97101276962e-07
1.8950175661e-07
1.80303666355e-07
1.69893985233e-07
1.58704223531e-07
1.47193430493e-07
1.35830224098e-07
1.25074536948e-07
1.1535976997e-07
1.07076030795e-07
1.00555089005e-07
9.60576038336e-08
9.37631148459e-08
9.37631420884e-08
9.60576917358e-08
1.00555233305e-07
1.07076228967e-07
1.15360011801e-07
1.25074811273e-07
1.3583051797e-07
1.47193739937e-07
1.58704548578e-07
1.69894310614e-07
1.80303959944e-07
1.89501998775e-07
1.9710148549e-07
2.02775332435e-07
2.06269412582e-07
2.07413096486e-07
2.06126483185e-07
2.02423766782e-07
1.96413535588e-07
1.88295611137e-07
1.78353505185e-07
1.66943676576e-07
1.54483041318e-07
1.41432746344e-07
1.28280294541e-07
1.15521390358e-07
1.03640333136e-07
9.30899586268e-08
8.42729533932e-08
7.7534506428e-08
7.3137134404e-08
7.11309274687e-08
8.35786236671e-08
8.62082426261e-08
9.1304780137e-08
9.85459110949e-08
1.07677977292e-07
1.1829001049e-07
1.2995081038e-07
1.42180083891e-07
1.54483073642e-07
1.66364305657e-07
1.77347814157e-07
1.86994535992e-07
1.94918600187e-07
2.00801520346e-07
2.04403682014e-07
2.05572725168e-07
2.04248812809e-07
2.00466296963e-07
1.94351902698e-07
1.86119601681e-07
1.76062285497e-07
1.64540609203e-07
1.51969443594e-07
1.3880242375e-07
1.25515223235e-07
1.12588103842e-07
1.00488365563e-07
8.96533534981e-08
8.0474620496e-08
7.32837838549e-08
6.8340585391e-08
6.58235494907e-08
6.5823557968e-08
6.83406271837e-08
7.3283861258e-08
8.04747431774e-08
8.96535251714e-08
1.00488573238e-07
1.12588329545e-07
1.25515451957e-07
1.38802648734e-07
1.51969669267e-07
1.64540837367e-07
1.76062506295e-07
1.86119810194e-07
1.94352097397e-07
2.00466478937e-07
2.04248979767e-07
2.05572859107e-07
2.04403784071e-07
2.00801606653e-07
1.94918652645e-07
1.86994566995e-07
1.77347839753e-07
1.66364311271e-07
1.54483066182e-07
1.42180079986e-07
1.29950807074e-07
1.18290011397e-07
1.07677992871e-07
9.85458974172e-08
9.13046880393e-08
8.62084242694e-08
8.35787593803e-08
8.32669665087e-08
8.51958216018e-08
8.95236172414e-08
9.62011819846e-08
1.04970444168e-07
1.15487178884e-07
1.27350502888e-07
1.40109024426e-07
1.53278947871e-07
1.66364317035e-07
1.78876336299e-07
1.903521298e-07
2.00372440537e-07
2.0857754085e-07
2.14680754686e-07
2.18479043654e-07
2.19860330123e-07
2.18807249126e-07
2.15397148761e-07
2.09798528506e-07
2.02263920636e-07
1.93119547136e-07
1.8275219356e-07
1.71593809502e-07
1.60104430863e-07
1.48754109296e-07
1.38004514205e-07
1.28290942435e-07
1.20005391319e-07
1.13481360129e-07
1.08980940654e-07
1.06684690608e-07
1.066846681e-07
1.08980874026e-07
1.13481255268e-07
1.20005256754e-07
1.28290787006e-07
1.38004346109e-07
1.4875393764e-07
1.60104272086e-07
1.71593678189e-07
1.82752093577e-07
1.93119462152e-07
2.0226384988e-07
2.09798507746e-07
2.15397179859e-07
2.18807248654e-07
2.19860268141e-07
2.18479043544e-07
2.14680790171e-07
2.08577461524e-07
2.003723549e-07
1.90352168384e-07
1.78876282583e-07
1.66364246095e-07
1.53278944916e-07
1.40109001193e-07
1.27350500494e-07
1.15487203733e-07
1.04970403171e-07
9.62010050399e-08
8.95235850935e-08
8.51961427766e-08
8.32672201603e-08
9.50458797882e-08
9.78286050761e-08
1.03085870694e-07
1.10476330495e-07
1.19748308899e-07
1.30483881997e-07
1.42251926854e-07
1.54570219539e-07
1.669436403e-07
1.78876323349e-07
1.89892327197e-07
1.99552928596e-07
2.07472797948e-07
2.13334287043e-07
2.16898796813e-07
2.18015241034e-07
2.16625257165e-07
2.12764875328e-07
2.06562690825e-07
1.98234727392e-07
1.8807607449e-07
1.76449702488e-07
1.63772891667e-07
1.50501741133e-07
1.37114376687e-07
1.24093433096e-07
1.11908462762e-07
1.00998886484e-07
9.17581031905e-08
8.45192889852e-08
7.95433947787e-08
7.70097776252e-08
7.70097578137e-08
7.95433413189e-08
8.4519214567e-08
9.17580233357e-08
1.00998804807e-07
1.11908377552e-07
1.24093349446e-07
1.37114295488e-07
1.50501657656e-07
1.63772798107e-07
1.76449594727e-07
1.88075948667e-07
1.98234584168e-07
2.0656253083e-07
2.12764702003e-07
2.1662507798e-07
2.1801504988e-07
2.16898606755e-07
2.13334122648e-07
2.07472658185e-07
1.99552810023e-07
1.89892255739e-07
1.78876262913e-07
1.66943614967e-07
1.54570219469e-07
1.42251945904e-07
1.30483869088e-07
1.19748400787e-07
1.10476309993e-07
1.03085722374e-07
9.78288391149e-08
9.50461942352e-08
9.46074598821e-08
9.64495771294e-08
1.00703322298e-07
1.07313523488e-07
1.16026232242e-07
1.26498489091e-07
1.38331162997e-07
1.51074459441e-07
1.64245338291e-07
1.77347822058e-07
1.89892347716e-07
2.01414554862e-07
2.11493073745e-07
2.1976557568e-07
2.25942438742e-07
2.29817549384e-07
2.31275766024e-07
2.30296822227e-07
2.26955570444e-07
2.21418471009e-07
2.13936572623e-07
2.04835241889e-07
1.94501034123e-07
1.83366265458e-07
1.71891870961e-07
1.60549221436e-07
1.49801598899e-07
1.40086062565e-07
1.31796368538e-07
1.25267627543e-07
1.20763268231e-07
1.18464802781e-07
1.1846478875e-07
1.20763216825e-07
1.25267541845e-07
1.31796251007e-07
1.40085912385e-07
1.49801415861e-07
1.60549009215e-07
1.71891644177e-07
1.83366036456e-07
1.94500800653e-07
2.04834991488e-07
2.1393631518e-07
2.21418256189e-07
2.26955407559e-07
2.30296635865e-07
2.31275589485e-07
2.29817493225e-07
2.25942416995e-07
2.19765444596e-07
2.11493021631e-07
2.01414610189e-07
1.89892285551e-07
1.77347789419e-07
1.64245391149e-07
1.51074473589e-07
1.3833120414e-07
1.26498534459e-07
1.16026115063e-07
1.07313186584e-07
1.00703386714e-07
9.64501915237e-08
9.46077278273e-08
1.05303347693e-07
1.08264286857e-07
1.13705145529e-07
1.21267154985e-07
1.30699450018e-07
1.41577478475e-07
1.5347041024e-07
1.65894148328e-07
1.7835344453e-07
1.9035212443e-07
2.01414548607e-07
2.11102406913e-07
2.19031092746e-07
2.24883872243e-07
2.28423296157e-07
2.29499591321e-07
2.28055904276e-07
2.24129950806e-07
2.17852181051e-07
2.09440612805e-07
1.99192451472e-07
1.87472896229e-07
1.74701524407e-07
1.61336762634e-07
1.47859034315e-07
1.34753212659e-07
1.22490977765e-07
1.11513721211e-07
1.02216579615e-07
9.49341743258e-08
8.99285800028e-08
8.73799201925e-08
8.73799065818e-08
8.9928538063e-08
9.49341081761e-08
1.02216486822e-07
1.11513594014e-07
1.22490812902e-07
1.34753023445e-07
1.4785884527e-07
1.6133659021e-07
1.74701372986e-07
1.87472761486e-07
1.99192333531e-07
2.09440516066e-07
2.17852107044e-07
2.24129900198e-07
2.28055877717e-07
2.29499579207e-07
2.28423305938e-07
2.24883921517e-07
2.19031158898e-07
2.11102481147e-07
2.01414645073e-07
1.90352213218e-07
1.7835351975e-07
1.65894234484e-07
1.53470493836e-07
1.41577476137e-07
1.3069956528e-07
1.21267132232e-07
1.13704805542e-07
1.08264533205e-07
1.05304110645e-07
1.04716883888e-07
1.06462179388e-07
1.1063689457e-07
1.17172639691e-07
1.25819262541e-07
1.36235639717e-07
1.48024381351e-07
1.60737411605e-07
1.73892698141e-07
1.86994540072e-07
1.99552941752e-07
2.11102411023e-07
2.21219820457e-07
2.29540583911e-07
2.35772477227e-07
2.39706580784e-07
2.41224941351e-07
2.4030464462e-07
2.37018164846e-07
2.31530012936e-07
2.24089809655e-07
2.15022056235e-07
2.04713029877e-07
1.93595324484e-07
1.82130645341e-07
1.70791532138e-07
1.60042728338e-07
1.50322892007e-07
1.42027395348e-07
1.35492831703e-07
1.30983865809e-07
1.28682893913e-07
1.28682923693e-07
1.3098395683e-07
1.35492975417e-07
1.42027584109e-07
1.50323114214e-07
1.60042969363e-07
1.7079178199e-07
1.82130897643e-07
1.9359558153e-07
2.04713271947e-07
2.15022254595e-07
2.24089971459e-07
2.31530182508e-07
2.37018314072e-07
2.40304693217e-07
2.41224952019e-07
2.39706691666e-07
2.35772557325e-07
2.2954050842e-07
2.21219868262e-07
2.11102509958e-07
1.99552890694e-07
1.86994552829e-07
1.7389277497e-07
1.60737415115e-07
1.48024421753e-07
1.36235647746e-07
1.25819040191e-07
1.17172199247e-07
1.1063703872e-07
1.06463169013e-07
1.0471720739e-07
1.1396487228e-07
1.17124995646e-07
1.22767987155e-07
1.30519418811e-07
1.40128165575e-07
1.51163724351e-07
1.63195565832e-07
1.75737919954e-07
1.88295655119e-07
2.00372425023e-07
2.11493071186e-07
2.2121982016e-07
2.29168913746e-07
2.35024624718e-07
2.3855071854e-07
2.39598768343e-07
2.38113447084e-07
2.34134122542e-07
2.27793050174e-07
2.19310159134e-07
2.08984675574e-07
1.97183897253e-07
1.84329551678e-07
1.70882229334e-07
1.57324505556e-07
1.44143346119e-07
1.31812409482e-07
1.20774893134e-07
1.11427511377e-07
1.04106212804e-07
9.90741059939e-08
9.65120275311e-08
9.65120422043e-08
9.90741571405e-08
1.04106297987e-07
1.11427634038e-07
1.20775050401e-07
1.31812589961e-07
1.44143537094e-07
1.57324703724e-07
1.708824347e-07
1.84329766094e-07
1.97184121488e-07
2.08984905607e-07
2.19310390147e-07
2.27793277215e-07
2.3413434101e-07
2.38113647837e-07
2.3959894217e-07
2.38550866275e-07
2.35024768657e-07
2.29169023279e-07
2.21219898257e-07
2.11493138189e-07
2.0037247547e-07
1.88295660096e-07
1.75737952286e-07
1.6319558768e-07
1.51163654964e-07
1.40128260313e-07
1.30519453029e-07
1.22767360395e-07
1.17125307183e-07
1.13966171203e-07
1.13210925043e-07
1.14848963465e-07
1.18938990539e-07
1.25392760657e-07
1.33963331851e-07
1.44312125707e-07
1.56043548265e-07
1.68711343975e-07
1.81834739554e-07
1.94918601614e-07
2.07472818253e-07
2.19031102719e-07
2.29168915361e-07
2.37519743855e-07
2.43789063654e-07
2.47765442207e-07
2.49328349199e-07
2.4845238859e-07
2.45207803574e-07
2.39757239575e-07
2.32348906753e-07
2.23306413473e-07
2.13015681835e-07
2.01909469955e-07
1.90450112895e-07