/*--------------------------------*- C++ -*----------------------------------*\
| =========                 |                                                 |
| \\      /  F ield         | OpenFOAM: The Open Source CFD Toolbox           |
|  \\    /   O peration     | Version:  2406                                  |
|   \\  /    A nd           | Website:  www.openfoam.com                      |
|    \\/     M anipulation  |                                                 |
\*---------------------------------------------------------------------------*/
FoamFile
{
    version     2.0;
    format      ascii;
    arch        "LSB;label=32;scalar=64";
    class       volVectorField;
    location    "0.3";
    object      error_velocity;
}
// * * * * * * * * * * * * * * * * * * * * * * * * * * * * * * * * * * * * * //

dimensions      [0 1 -1 0 0 0 0];

internalField   nonuniform List<vector> 
16384
(
(-2.02360639594e-05 -1.48971050406e-05 0)
(-5.51970964731e-05 -9.41382195811e-06 0)
(-8.96119445962e-05 -4.00987633961e-06 0)
(-0.000123098890298 1.23383450307e-06 0)
(-0.000155327712402 6.25356870129e-06 0)
(-0.000185985299419 1.0996361819e-05 0)
(-0.000214777614607 1.54161108403e-05 0)
(-0.000241431699569 1.94733648535e-05 0)
(-0.000265698163585 2.31358594381e-05 0)
(-0.000287352588117 2.63788053289e-05 0)
(-0.000306196506088 2.91849065218e-05 0)
(-0.000322059603373 3.15448913681e-05 0)
(-0.000334801215406 3.34576734298e-05 0)
(-0.000344311192007 3.49305722233e-05 0)
(-0.000350509854499 3.59781483067e-05 0)
(-0.000353348807577 3.66214510565e-05 0)
(-0.00035281178969 3.68885370938e-05 0)
(-0.000348913718493 3.68137220441e-05 0)
(-0.000341700512198 3.64364202987e-05 0)
(-0.000331249106418 3.5800364674e-05 0)
(-0.000317665917599 3.49524252461e-05 0)
(-0.000301085573354 3.39415548937e-05 0)
(-0.000281670079896 3.28180029191e-05 0)
(-0.000259606977478 3.16321231379e-05 0)
(-0.000235107226117 3.04330400286e-05 0)
(-0.000208403730075 2.92676186572e-05 0)
(-0.000179749422284 2.81795353758e-05 0)
(-0.000149414397718 2.72082318832e-05 0)
(-0.000117683210843 2.6387943898e-05 0)
(-8.48528152843e-05 2.57469688931e-05 0)
(-5.12303054258e-05 2.5307160255e-05 0)
(-1.71299242876e-05 2.50834876692e-05 0)
(1.71301155096e-05 2.50835118721e-05 0)
(5.12303678681e-05 2.53072748586e-05 0)
(8.48526985673e-05 2.57470888815e-05 0)
(0.000117683064802 2.63880682446e-05 0)
(0.000149414429167 2.72084275512e-05 0)
(0.00017974957743 2.81798423177e-05 0)
(0.000208403742302 2.92679938153e-05 0)
(0.000235107057211 3.04334043351e-05 0)
(0.000259606917643 3.1632401515e-05 0)
(0.000281670283627 3.28180972791e-05 0)
(0.000301085892437 3.39413981395e-05 0)
(0.000317666276127 3.4952089538e-05 0)
(0.000331249529986 3.57999582258e-05 0)
(0.000341700866912 3.64359110636e-05 0)
(0.00034891398316 3.68130819625e-05 0)
(0.000352812184303 3.68878686469e-05 0)
(0.000353349271134 3.6620909811e-05 0)
(0.000350510211215 3.59779946295e-05 0)
(0.000344311536889 3.49308850197e-05 0)
(0.000334801420158 3.34579845956e-05 0)
(0.0003220594558 3.15448807859e-05 0)
(0.000306196199095 2.91847700611e-05 0)
(0.00028735245181 2.63787458494e-05 0)
(0.000265698275193 2.31359295607e-05 0)
(0.000241431755129 1.9473421169e-05 0)
(0.000214777558289 1.54161063989e-05 0)
(0.000185985301834 1.09963418521e-05 0)
(0.000155327752943 6.25354989739e-06 0)
(0.000123098909536 1.2338354998e-06 0)
(8.96119836338e-05 -4.00988067936e-06 0)
(5.51971300135e-05 -9.41382213146e-06 0)
(2.02360710056e-05 -1.48970965508e-05 0)
(-1.48970997862e-05 -2.02360471706e-05 0)
(-4.98849539623e-05 -2.53532973236e-05 0)
(-8.43542677267e-05 -3.03709851376e-05 0)
(-0.00011791632921 -3.52594066103e-05 0)
(-0.000150236162991 -3.9969257727e-05 0)
(-0.00018100032389 -4.44543538232e-05 0)
(-0.000209914160429 -4.86727459263e-05 0)
(-0.000236704000284 -5.25875686666e-05 0)
(-0.00026111916612 -5.61677594294e-05 0)
(-0.000282933816709 -5.93885584871e-05 0)
(-0.000301948615632 -6.22318688517e-05 0)
(-0.000317992221342 -6.46864941065e-05 0)
(-0.000330922542104 -6.67482348125e-05 0)
(-0.000340627739899 -6.84198344858e-05 0)
(-0.000347026979006 -6.97108036852e-05 0)
(-0.000350070905412 -7.0637132405e-05 0)
(-0.000349741825794 -7.12208732982e-05 0)
(-0.000346053617003 -7.14896046959e-05 0)
(-0.000339051375013 -7.14757506093e-05 0)
(-0.000328810802611 -7.1215819849e-05 0)
(-0.00031543732715 -7.07495134884e-05 0)
(-0.000299064980128 -7.01187756482e-05 0)
(-0.000279855063236 -6.93668105596e-05 0)
(-0.000257994588977 -6.85371077609e-05 0)
(-0.000233694483067 -6.7672421722e-05 0)
(-0.000207187607623 -6.68137414986e-05 0)
(-0.000178726632202 -6.59993074341e-05 0)
(-0.000148581736372 -6.52636962153e-05 0)
(-0.000117038142546 -6.46370205512e-05 0)
(-8.43935455386e-05 -6.41442659048e-05 0)
(-5.09554540265e-05 -6.38047336514e-05 0)
(-1.70384723934e-05 -6.36315934662e-05 0)
(1.70386045054e-05 -6.36315340751e-05 0)
(5.09555704595e-05 -6.38045844623e-05 0)
(8.43936286498e-05 -6.41441368697e-05 0)
(0.00011703824853 -6.46370085913e-05 0)
(0.000148581877303 -6.52637712191e-05 0)
(0.000178726769734 -6.59993772594e-05 0)
(0.0002071877124 -6.68138019734e-05 0)
(0.000233694578535 -6.76725816415e-05 0)
(0.000257994713821 -6.85374308921e-05 0)
(0.000279855244741 -6.93672616391e-05 0)
(0.00029906525398 -7.0119341385e-05 0)
(0.000315437691935 -7.07501585625e-05 0)
(0.000328811144416 -7.12163609132e-05 0)
(0.000339051553625 -7.14760272901e-05 0)
(0.000346053575109 -7.14896005956e-05 0)
(0.000349741542093 -7.12205575434e-05 0)
(0.000350070461386 -7.06365898236e-05 0)
(0.000347026575224 -6.97104276024e-05 0)
(0.000340627425366 -6.84198287869e-05 0)
(0.000330922327411 -6.6748423987e-05 0)
(0.000317992160478 -6.46866906246e-05 0)
(0.000301948623791 -6.22319741666e-05 0)
(0.000282933828881 -5.93886170299e-05 0)
(0.000261119165499 -5.61677916242e-05 0)
(0.000236704005364 -5.25875039196e-05 0)
(0.000209914164102 -4.8672735634e-05 0)
(0.000181000307354 -4.44543923661e-05 0)
(0.000150236158039 -3.99692424815e-05 0)
(0.000117916314541 -3.52594029444e-05 0)
(8.4354250436e-05 -3.03709954121e-05 0)
(4.98849365486e-05 -2.53533029932e-05 0)
(1.48971086485e-05 -2.02360674883e-05 0)
(-2.53533071419e-05 -4.98849276269e-05 0)
(-6.00977264788e-05 -4.42309055212e-05 0)
(-9.44686962172e-05 -3.86314813141e-05 0)
(-0.000127919944146 -3.32005620907e-05 0)
(-0.000160109469068 -2.80179573779e-05 0)
(-0.000190718475476 -2.31425902757e-05 0)
(-0.000219451765418 -1.86243319334e-05 0)
(-0.000246036330484 -1.45051243539e-05 4.15572068258e-29)
(-0.000270222324744 -1.08189174952e-05 -4.15572068258e-29)
(-0.000291784906861 -7.59088959401e-06 0)
(-0.000310526266521 -4.83788182171e-06 0)
(-0.000326276571909 -2.56833941326e-06 0)
(-0.000338894651627 -7.82121834964e-07 0)
(-0.000348269853151 5.29949517047e-07 0)
(-0.000354323209421 1.38580297682e-06 0)
(-0.000357006724602 1.81073134842e-06 0)
(-0.000356303728995 1.83710301116e-06 0)
(-0.000352229498214 1.50384535302e-06 0)
(-0.00034483062264 8.54954424145e-07 0)
(-0.000334184247343 -6.1061124268e-08 0)
(-0.000320397296087 -1.19201342696e-06 0)
(-0.000303605166062 -2.48366354094e-06 0)
(-0.000283970386479 -3.88084896985e-06 0)
(-0.00026168123495 -5.32840827427e-06 0)
(-0.000236949867857 -6.77266431925e-06 0)
(-0.000210010085489 -8.16271967319e-06 0)
(-0.000181115173532 -9.45112345141e-06 0)
(-0.000150535810806 -1.0594774366e-05 0)
(-0.000118557699823 -1.15563082123e-05 0)
(-8.54788270988e-05 -1.23051468314e-05 0)
(-5.16066574862e-05 -1.28178807843e-05 0)
(-1.725559005e-05 -1.30784356339e-05 0)
(1.72556414863e-05 -1.30785364363e-05 0)
(5.16067459286e-05 -1.28181481968e-05 0)
(8.54789365629e-05 -1.23054148694e-05 0)
(0.000118557845714 -1.15564219026e-05 0)
(0.000150535991961 -1.05948247455e-05 0)
(0.000181115397166 -9.45134756725e-06 0)
(0.000210010359616 -8.16315458307e-06 0)
(0.000236950151594 -6.77306509067e-06 0)
(0.000261681428211 -5.32861398495e-06 0)
(0.000283970446379 -3.88098470738e-06 0)
(0.000303605203714 -2.48385240198e-06 0)
(0.000320397445375 -1.19222325112e-06 0)
(0.000334184493452 -6.12796989818e-08 0)
(0.000344830876287 8.54788052007e-07 0)
(0.000352229717717 1.50394212461e-06 0)
(0.000356303881237 1.83746541627e-06 0)
(0.000357006871875 1.81109595443e-06 0)
(0.000354323462775 1.3860641418e-06 0)
(0.000348270019701 5.29973147811e-07 0)
(0.000338894554687 -7.82455843451e-07 0)
(0.000326276533094 -2.5687101779e-06 0)
(0.000310526431047 -4.83795847117e-06 0)
(0.000291785000741 -7.59073526974e-06 0)
(0.000270222266376 -1.08188095784e-05 0)
(0.000246036300856 -1.45052142435e-05 0)
(0.000219451807665 -1.86244145889e-05 0)
(0.000190718517524 -2.31425924499e-05 0)
(0.000160109538193 -2.80179453827e-05 0)
(0.00012791996356 -3.32005932983e-05 0)
(9.44687215307e-05 -3.86314788626e-05 0)
(6.00977497005e-05 -4.42309172068e-05 0)
(2.53533143806e-05 -4.98849037527e-05 0)
(-9.41380629521e-06 -5.51970546015e-05 0)
(-4.42309218277e-05 -6.00977088787e-05 0)
(-7.87498743521e-05 -6.48815183841e-05 0)
(-0.000112419011481 -6.95555282382e-05 0)
(-0.000144870730213 -7.40778878694e-05 0)
(-0.000175786587752 -7.84064629372e-05 0)
(-0.000204869237691 -8.25016153504e-05 0)
(-0.000231842813289 -8.63274876576e-05 0)
(-0.00025645461417 -8.9853155686e-05 0)
(-0.000278476803419 -9.3053324754e-05 0)
(-0.000297708061941 -9.59087756961e-05 0)
(-0.000313975080138 -9.84066575089e-05 0)
(-0.000327133826406 -0.000100540639727 0)
(-0.000337070581772 -0.000102310932955 0)
(-0.000343702703996 -0.000103724203526 0)
(-0.000346979123469 -0.000104793321853 0)
(-0.000346880566461 -0.000105537000357 0)
(-0.000343419499179 -0.000105979294141 0)
(-0.000336639791398 -0.000106148978864 0)
(-0.000326616119546 -0.000106078837173 0)
(-0.000313453119663 -0.000105804853931 0)
(-0.000297284305991 -0.00010536534332 0)
(-0.00027827074592 -0.000104800003767 0)
(-0.000256599474011 -0.000104148933436 0)
(-0.00023248167448 -0.000103451652452 0)
(-0.000206150669639 -0.000102746158236 0)
(-0.000177859724202 -0.000102068034664 0)
(-0.000147879717449 -0.000101449588014 0)
(-0.000116496694069 -0.000100919051478 0)
(-8.40092694253e-05 -0.000100499885207 0)
(-5.0725914716e-05 -0.000100210196628 0)
(-1.69621648564e-05 -0.000100062292168 0)
(1.69621787772e-05 -0.000100062337761 0)
(5.07258802992e-05 -0.000100210345391 0)
(8.40091655232e-05 -0.000100500048092 0)
(0.000116496560294 -0.000100919198407 0)
(0.000147879617684 -0.000101449749875 0)
(0.000177859658801 -0.000102068231317 0)
(0.000206150581356 -0.000102746348507 0)
(0.000232481533169 -0.000103451786138 0)
(0.000256599299228 -0.000104149027304 0)
(0.000278270517121 -0.000104800125556 0)
(0.000297283966333 -0.000105365585737 0)
(0.000313452707306 -0.000105805339658 0)
(0.000326615728748 -0.000106079655864 0)
(0.00033663946952 -0.000106150075146 0)
(0.000343419326585 -0.000105980482616 0)
(0.000346880585947 -0.000105538033164 0)
(0.00034697915588 -0.000104793951812 0)
(0.00034370263004 -0.00010372439095 0)
(0.000337070539064 -0.000102310837745 0)
(0.000327133846317 -0.000100540412371 0)
(0.00031397507824 -9.84065264783e-05 0)
(0.000297708010409 -9.5908785445e-05 0)
(0.000278476742929 -9.30533757188e-05 0)
(0.000256454635601 -8.98531862873e-05 0)
(0.000231842802321 -8.63274923062e-05 0)
(0.000204869179607 -8.25016464416e-05 0)
(0.000175786601238 -7.84064318575e-05 0)
(0.000144870721054 -7.40778589927e-05 0)
(0.000112418992769 -6.95555449327e-05 0)
(7.87498612779e-05 -6.4881519016e-05 0)
(4.42309059855e-05 -6.00977183022e-05 0)
(9.41381868154e-06 -5.51971047707e-05 0)
(-3.03709876604e-05 -8.43542490038e-05 0)
(-6.48815126859e-05 -7.87498464828e-05 0)
(-9.92069619274e-05 -7.31738420726e-05 0)
(-0.000132628965784 -6.77518171469e-05 0)
(-0.000164793841017 -6.25741040693e-05 0)
(-0.000195371276263 -5.77030651323e-05 0)
(-0.000224064068263 -5.31906582374e-05 0)
(-0.000250598029164 -4.90799778358e-05 0)
(-0.000274723326342 -4.54058834034e-05 0)
(-0.000296214802021 -4.21949238796e-05 0)
(-0.000314874180168 -3.94647025329e-05 0)
(-0.000330531699759 -3.72236750287e-05 0)
(-0.000343046619836 -3.54717443303e-05 0)
(-0.000352307912519 -3.42007060857e-05 0)
(-0.00035823574853 -3.3393208446e-05 0)
(-0.000360781986111 -3.30235020733e-05 0)
(-0.000359930069394 -3.30587723977e-05 0)
(-0.000355695291406 -3.34596516144e-05 0)
(-0.00034812426132 -3.41809810757e-05 0)
(-0.000337293876366 -3.51729906828e-05 0)
(-0.000323310888728 -3.63823116715e-05 0)
(-0.000306311016027 -3.7753201115e-05 0)
(-0.000286457299958 -3.92289168284e-05 0)
(-0.000263938523566 -4.07529065232e-05 0)
(-0.000238967490345 -4.22699030742e-05 0)
(-0.000211778801568 -4.37271868575e-05 0)
(-0.000182626595305 -4.50758870448e-05 0)
(-0.000151782565833 -4.62720303195e-05 0)
(-0.000119533672278 -4.72773531991e-05 0)
(-8.6179290796e-05 -4.8060058994e-05 0)
(-5.20282943897e-05 -4.85956428251e-05 0)
(-1.73964254896e-05 -4.8867579995e-05 0)
(1.73962539712e-05 -4.8867549808e-05 0)
(5.20282279179e-05 -4.85956362694e-05 0)
(8.6179396987e-05 -4.80600550853e-05 0)
(0.000119533821948 -4.72773579632e-05 0)
(0.000151782568308 -4.62720467939e-05 0)
(0.000182626472612 -4.5075910276e-05 0)
(0.000211778777931 -4.3727209903e-05 0)
(0.00023896767569 -4.22699310011e-05 0)
(0.000263938759617 -4.0752923409e-05 0)
(0.00028645740454 -3.922884476e-05 0)
(0.000306310958963 -3.7752963189e-05 0)
(0.00032331071679 -3.63819287281e-05 0)
(0.00033729369143 -3.51725445107e-05 0)
(0.000348124211514 -3.4180517721e-05 0)
(0.000355695314159 -3.3459212136e-05 0)
(0.000359929901978 -3.30584242891e-05 0)
(0.000360781606712 -3.30232567645e-05 0)
(0.00035823534073 -3.33931175952e-05 0)
(0.000352307604245 -3.42008257861e-05 0)
(0.000343046575512 -3.5471795686e-05 0)
(0.000330531930911 -3.72233821559e-05 0)
(0.00031487434672 -3.94644025607e-05 0)
(0.000296214731996 -4.21948949475e-05 0)
(0.000274723238788 -4.54060091158e-05 0)
(0.000250598074098 -4.90800503746e-05 0)
(0.000224064095681 -5.31906553192e-05 0)
(0.000195371339347 -5.77030347205e-05 0)
(0.000164793827729 -6.25741224741e-05 0)
(0.000132628939979 -6.77518567644e-05 0)
(9.92069806186e-05 -7.31738280382e-05 0)
(6.48815498899e-05 -7.87498718921e-05 0)
(3.0371004392e-05 -8.43542006588e-05 0)
(-4.00986006849e-06 -8.96118831591e-05 0)
(-3.86314804929e-05 -9.44686786551e-05 0)
(-7.31738406904e-05 -9.9206955066e-05 0)
(-0.000106941968263 -0.000103841934624 0)
(-0.000139523362454 -0.000108331704621 0)
(-0.000170592220789 -0.0001126346965 0)
(-0.000199847549423 -0.000116711813441 0)
(-0.000227010687991 -0.000120527073333 0)
(-0.000251826635303 -0.000124049049939 0)
(-0.00027406536512 -0.000127251791848 0)
(-0.000293523341444 -0.000130115361358 0)
(-0.000310024984328 -0.000132626180261 0)
(-0.00032342395843 -0.000134777211591 0)
(-0.00033360424093 -0.000136568006702 0)
(-0.000340480932611 -0.000138004597443 0)
(-0.000344000791452 -0.000139099260742 0)
(-0.000344142528544 -0.000139870137231 0)
(-0.000340916798095 -0.000140340712445 0)
(-0.000334365922356 -0.000140539205623 0)
(-0.000324563348597 -0.000140497865859 0)
(-0.000311612817838 -0.000140252174916 0)
(-0.00029564725181 -0.000139839975959 0)
(-0.000276827370424 -0.000139300533103 0)
(-0.000255340103886 -0.000138673576363 0)
(-0.0002313967959 -0.000137998328853 0)
(-0.000205231203296 -0.000137312554188 0)
(-0.000177097297701 -0.000136651637186 0)
(-0.000147266890443 -0.000136047722155 0)
(-0.000116027104092 -0.000135528919565 0)
(-8.36777474951e-05 -0.000135118592097 0)
(-5.05286228683e-05 -0.000134834781619 0)
(-1.6896718222e-05 -0.000134689763818 0)
(1.68966117371e-05 -0.000134689765379 0)
(5.05285629841e-05 -0.000134834775287 0)
(8.3677752722e-05 -0.000135118563824 0)
(0.000116027107782 -0.000135528845272 0)
(0.000147266848716 -0.000136047606732 0)
(0.000177097238582 -0.000136651501493 0)
(0.000205231179706 -0.000137312406052 0)
(0.000231396811565 -0.000137998142072 0)
(0.000255340134431 -0.000138673324705 0)
(0.000276827423878 -0.000139300177309 0)
(0.000295647325801 -0.000139839437737 0)
(0.000311612867597 -0.00014025139095 0)
(0.000324563362757 -0.000140496890804 0)
(0.000334365932551 -0.000140538213107 0)
(0.000340916814964 -0.000140339908072 0)
(0.000344142597175 -0.000139869671946 0)
(0.00034400096868 -0.000139099112505 0)
(0.000340481159549 -0.000138004595886 0)
(0.000333604416017 -0.000136568040469 0)
(0.000323424002417 -0.000134777262177 0)
(0.000310024942969 -0.000132626187136 0)
(0.000293523298697 -0.00013011533298 0)
(0.000274065308946 -0.000127251746654 0)
(0.000251826582666 -0.000124049003355 0)
(0.000227010653858 -0.000120527083774 0)
(0.000199847532767 -0.000116711801301 0)
(0.000170592187584 -0.00011263466417 0)
(0.000139523336679 -0.000108331733477 0)
(0.000106941954901 -0.000103841933042 0)
(7.31738167269e-05 -9.92069494099e-05 0)
(3.86314649187e-05 -9.44687028848e-05 0)
(4.00987887776e-06 -8.96119708331e-05 0)
(-3.52594305031e-05 -0.000117916300502 0)
(-6.95555349093e-05 -0.000112418990754 0)
(-0.000103841889853 -0.000106941990216 0)
(-0.000137238130997 -0.000101610625003 0)
(-0.000169386128079 -9.65185409023e-05 0)
(-0.000199940096103 -9.17283190324e-05 0)
(-0.000228600067408 -8.72916390363e-05 0)
(-0.00025509025848 -8.32509340698e-05 0)
(-0.000279160110066 -7.96400604674e-05 0)
(-0.000300584766474 -7.64845617979e-05 0)
(-0.000319165733858 -7.38016060889e-05 0)
(-0.000334732588295 -7.15994514524e-05 0)
(-0.000347144718551 -6.98774872822e-05 0)
(-0.000356291651214 -6.86268192963e-05 0)
(-0.000362093560308 -6.78304961392e-05 0)
(-0.000364502324622 -6.74636561956e-05 0)
(-0.000363501549622 -6.74941957025e-05 0)
(-0.000359106428401 -6.78835578302e-05 0)
(-0.000351363469432 -6.85873997254e-05 0)
(-0.000340349817304 -6.9556882627e-05 0)
(-0.000326172534652 -7.07398521306e-05 0)
(-0.000308967621965 -7.20817677824e-05 0)
(-0.000288898483507 -7.35269037599e-05 0)
(-0.000266154195848 -7.5019709722e-05 0)
(-0.000240947863072 -7.65059581571e-05 0)
(-0.000213514783548 -7.79339038666e-05 0)
(-0.000184110225381 -7.9255583355e-05 0)
(-0.000153006966785 -8.04278906542e-05 0)
(-0.000120492808104 -8.14133112024e-05 0)
(-8.68680624874e-05 -8.21806282945e-05 0)
(-5.24429542384e-05 -8.2705730307e-05 0)
(-1.75347897483e-05 -8.29723231016e-05 0)
(1.75348252116e-05 -8.29722289305e-05 0)
(5.24429485287e-05 -8.27054997985e-05 0)
(8.68680640516e-05 -8.21804054646e-05 0)
(0.000120492791379 -8.1413243077e-05 0)
(0.000153006916306 -8.04279342699e-05 0)
(0.000184110139086 -7.92555697586e-05 0)
(0.000213514666571 -7.79337611146e-05 0)
(0.000240947725549 -7.65058013166e-05 0)
(0.000266154082513 -7.50196838696e-05 0)
(0.000288898440295 -7.3527026982e-05 0)
(0.000308967606509 -7.20819891752e-05 0)
(0.000326172431011 -7.07401245348e-05 0)
(0.000340349598044 -6.95571488335e-05 0)
(0.000351363229993 -6.85876697795e-05 0)
(0.000359106246323 -6.78839307904e-05 0)
(0.000363501437566 -6.74946680377e-05 0)
(0.000364502283567 -6.74640523317e-05 0)
(0.000362093553672 -6.78307107592e-05 0)
(0.000356291670032 -6.86268184922e-05 0)
(0.000347144779859 -6.9877313158e-05 0)
(0.000334732526128 -7.1599305123e-05 0)
(0.000319165537249 -7.38016546823e-05 0)
(0.000300584700456 -7.64846964532e-05 0)
(0.000279160191706 -7.96401107843e-05 0)
(0.000255090290801 -8.32509212282e-05 0)
(0.000228600065405 -8.72916197559e-05 0)
(0.000199940101032 -9.17282912407e-05 0)
(0.000169386052884 -9.65186249068e-05 0)
(0.000137238190475 -0.000101610601232 0)
(0.000103841952025 -0.000106941950805 0)
(6.95555557975e-05 -0.000112419023899 0)
(3.52594301282e-05 -0.000117916258501 0)
(1.2338628817e-06 -0.000123098785611 0)
(-3.32005889438e-05 -0.000127919911738 0)
(-6.77518612165e-05 -0.000132628911582 0)
(-0.000101610613276 -0.00013723817343 0)
(-0.000134315842389 -0.000141702285449 0)
(-0.00016553397578 -0.000145978940227 0)
(-0.000194960193964 -0.000150029840232 0)
(-0.000222312476149 -0.000153819732685 0)
(-0.000247333041852 -0.000157317701452 0)
(-0.00026978929474 -0.000160498184497 0)
(-0.000289475151617 -0.000163341552361 0)
(-0.000306212472447 -0.000165834460386 0)
(-0.000319852373462 -0.000167970036176 0)
(-0.000330276342079 -0.000169747913016 0)
(-0.000337397101274 -0.000171174123258 0)
(-0.000341159215152 -0.000172260854401 0)
(-0.000341539406942 -0.000173026097549 0)
(-0.000338546567428 -0.000173493133635 0)
(-0.000332221515803 -0.00017368995336 0)
(-0.000322636439754 -0.000173648570282 0)
(-0.00030989406005 -0.000173404197802 0)
(-0.000294126540778 -0.00017299439261 0)
(-0.000275494144881 -0.000172458130463 0)
(-0.000254183651818 -0.000171834875426 0)
(-0.000230406536006 -0.000171163618003 0)
(-0.000204396944576 -0.000170481912382 0)
(-0.000176409492824 -0.000169824947049 0)
(-0.000146716897037 -0.000169224662962 0)
(-0.000115607456571 -0.000168708968672 0)
(-8.33824125768e-05 -0.000168301071876 0)
(-5.0353176252e-05 -0.000168018913185 0)
(-1.68384865353e-05 -0.000167874714727 0)
(1.6838504845e-05 -0.000167874687241 0)
(5.03531767809e-05 -0.00016801883571 0)
(8.33823971841e-05 -0.000168301000365 0)
(0.000115607451746 -0.000168708933048 0)
(0.000146716912572 -0.000169224651114 0)
(0.000176409510509 -0.000169824940838 0)
(0.000204396937405 -0.000170481925637 0)
(0.000230406513673 -0.000171163688524 0)
(0.000254183657521 -0.000171835025983 0)
(0.000275494215217 -0.000172458363796 0)
(0.000294126688348 -0.000172994698432 0)
(0.000309894275459 -0.000173404518798 0)
(0.000322636667607 -0.000173648824109 0)
(0.000332221679109 -0.000173690113651 0)
(0.000338546620301 -0.000173493189997 0)
(0.000341539316172 -0.000173026035364 0)
(0.000341158990607 -0.000172260778311 0)
(0.000337396862355 -0.000171174154232 0)
(0.000330276198413 -0.000169748022255 0)
(0.00031985233398 -0.000167970130175 0)
(0.000306212460085 -0.000165834459623 0)
(0.000289475155317 -0.000163341558295 0)
(0.000269789312446 -0.000160498170571 0)
(0.000247333021515 -0.000157317668095 0)
(0.000222312447724 -0.000153819719316 0)
(0.00019496018741 -0.00015002981525 0)
(0.000165533950063 -0.000145978944025 0)
(0.000134315841479 -0.000141702283415 0)
(0.000101610595149 -0.000137238162936 0)
(6.77518318539e-05 -0.000132628925002 0)
(3.32005873317e-05 -0.000127919937833 0)
(-1.23384175144e-06 -0.000123098879745 0)
(-3.99692587013e-05 -0.000150236161398 0)
(-7.40779186221e-05 -0.000144870670332 0)
(-0.000108331754931 -0.000139523302983 0)
(-0.000141702217098 -0.000134315893921 0)
(-0.000173835483035 -0.000129341624965 0)
(-0.000204368855177 -0.000124661673805 0)
(-0.000232999271273 -0.000120327812863 0)
(-0.000259449150229 -0.000116381389215 0)
(-0.000283466958559 -0.000112855709481 0)
(-0.000304827342894 -0.000109775426124 0)
(-0.000323331929557 -0.000107156842715 0)
(-0.000338810366608 -0.00010500784034 0)
(-0.000351121597332 -0.000103327803415 0)
(-0.000360155111501 -0.000102107512332 0)
(-0.000365831561468 -0.000101329930042 0)
(-0.000368103059683 -0.000100970381764 0)
(-0.000366953320194 -0.000100997236624 0)
(-0.000362397710516 -0.000101372721809 0)
(-0.000354483042854 -0.000102053698377 0)
(-0.00034328701799 -0.000102992649168 0)
(-0.000328917262241 -0.00010413876949 0)
(-0.000311510171828 -0.00010543900059 0)
(-0.000291229577025 -0.000106839188757 0)
(-0.000268265162586 -0.000108285407477 0)
(-0.000242830712926 -0.000109725186599 0)
(-0.000215162236689 -0.000111108556055 0)
(-0.000185515792431 -0.000112389013097 0)
(-0.000154165023414 -0.000113524570012 0)
(-0.000121398619483 -0.000114478783839 0)
(-8.75178320383e-05 -0.000115221589605 0)
(-5.28339056109e-05 -0.000115729907661 0)
(-1.76652651656e-05 -0.000115988048333 0)
(1.76653710277e-05 -0.000115988089183 0)
(5.28338968904e-05 -0.000115729950216 0)
(8.75176873125e-05 -0.00011522161288 0)
(0.000121398425698 -0.000114478769861 0)
(0.000154164899918 -0.000113524531816 0)
(0.00018551573267 -0.00011238899073 0)
(0.000215162123308 -0.000111108573572 0)
(0.000242830481171 -0.000109725208068 0)
(0.0002682648879 -0.000108285369973 0)
(0.000291229382452 -0.000106839100366 0)
(0.00031151008871 -0.000105438947407 0)
(0.000328917228527 -0.000104138813357 0)
(0.000343286948636 -0.000102992753878 0)
(0.000354482905913 -0.000102053779975 0)
(0.000362397564038 -0.000101372728353 0)
(0.000366953277025 -0.000100997142548 0)
(0.000368103157798 -0.000100970214492 0)
(0.000365831709119 -0.000101329776287 0)
(0.000360155160734 -0.000102107426187 0)
(0.000351121494193 -0.000103327789981 0)
(0.000338810218141 -0.000105007932733 0)
(0.000323331893806 -0.00010715689806 0)
(0.0003048274109 -0.000109775397561 0)
(0.000283467012409 -0.000112855654602 0)
(0.000259449145952 -0.000116381368199 0)
(0.000232999283861 -0.00012032778343 0)
(0.000204368810959 -0.000124661727837 0)
(0.000173835546941 -0.000129341652765 0)
(0.000141702305865 -0.000134315831964 0)
(0.000108331720588 -0.000139523345403 0)
(7.40779111973e-05 -0.000144870768221 0)
(3.99692842209e-05 -0.000150236098851 0)
(6.25358318654e-06 -0.000155327602478 0)
(-2.8017940908e-05 -0.000160109472331 0)
(-6.25741235953e-05 -0.000164793795691 0)
(-9.65186334077e-05 -0.000169386034392 0)
(-0.000129341659438 -0.000173835525268 0)
(-0.000160702202547 -0.000178097410287 0)
(-0.000190292244796 -0.00018213307419 0)
(-0.000217826335887 -0.00018590726132 0)
(-0.000243043807646 -0.000189388961207 0)
(-0.000265709489408 -0.000192552445925 0)
(-0.0002856148138 -0.00019537788448 0)
(-0.000302579191808 -0.00019785171623 0)
(-0.00031645132115 -0.000199966866759 0)
(-0.000327110331058 -0.000201722799677 0)
(-0.00033446667518 -0.000203125438032 0)
(-0.000338462770859 -0.000204186960244 0)
(-0.000339073328435 -0.000204925378442 0)
(-0.000336305427168 -0.000205364120196 0)
(-0.000330198281068 -0.000205531435223 0)
(-0.000320822697194 -0.000205459626228 0)
(-0.00030828029223 -0.000205184297899 0)
(-0.000292702426054 -0.000204743475226 0)
(-0.000274248862201 -0.000204176665852 0)
(-0.000253106196328 -0.00020352388002 0)
(-0.000229486042418 -0.00020282464487 0)
(-0.00020362301693 -0.000202117032463 0)
(-0.000175772503508 -0.000201436729536 0)
(-0.00014620825019 -0.000200816164792 0)
(-0.000115219814433 -0.000200283701183 0)
(-8.31098742359e-05 -0.000199862926671 0)
(-5.01914203686e-05 -0.000199572059894 0)
(-1.67848673463e-05 -0.000199423501517 0)
(1.67848847901e-05 -0.000199423514967 0)
(5.01914335297e-05 -0.000199572095229 0)
(8.31098779135e-05 -0.000199862953844 0)
(0.000115219806686 -0.000200283709118 0)
(0.000146208241078 -0.000200816156379 0)
(0.000175772501891 -0.000201436710637 0)
(0.000203623014373 -0.00020211698891 0)
(0.000229486017985 -0.000202824559463 0)
(0.000253106128886 -0.000203523765531 0)
(0.000274248734621 -0.000204176564025 0)
(0.000292702229408 -0.000204743421777 0)
(0.000308280054094 -0.000205184310515 0)
(0.000320822472449 -0.00020545973357 0)
(0.000330198146597 -0.000205531633926 0)
(0.000336305438859 -0.000205364318874 0)
(0.00033907341706 -0.000204925473413 0)
(0.000338462839735 -0.000204186945854 0)
(0.000334466735732 -0.000203125358053 0)
(0.00032711038237 -0.000201722690883 0)
(0.000316451317135 -0.000199966743649 0)
(0.000302579128384 -0.000197851675287 0)
(0.000285614791891 -0.00019537790617 0)
(0.000265709498945 -0.000192552437696 0)
(0.000243043769564 -0.000189388966493 0)
(0.000217826318129 -0.000185907282542 0)
(0.00019029222331 -0.000182133065759 0)
(0.000160702170289 -0.000178097425602 0)
(0.00012934163837 -0.000173835538716 0)
(9.65186114981e-05 -0.000169386043358 0)
(6.25741078203e-05 -0.00016479377155 0)
(2.80179422499e-05 -0.000160109510554 0)
(-6.25355973805e-06 -0.000155327778034 0)
(-4.4454307819e-05 -0.000181000318181 0)
(-7.84064067242e-05 -0.000175786621524 0)
(-0.000112634753868 -0.000170592172737 0)
(-0.000145978985968 -0.000165533920897 0)
(-0.000178097371195 -0.000160702212823 0)
(-0.000208609275205 -0.000156155403795 0)
(-0.000237210377998 -0.000151944632984 0)
(-0.000263620459307 -0.000148110401828 0)
(-0.000287587435047 -0.000144685243892 0)
(-0.000308885380686 -0.000141693368844 0)
(-0.000327315672643 -0.000139150724375 0)
(-0.000342708067594 -0.000137064866677 0)
(-0.000354921671558 -0.000135435016389 0)
(-0.000363845875587 -0.000134252423161 0)
(-0.000369401320876 -0.000133500425957 0)
(-0.00037154019004 -0.00013315481347 0)
(-0.000370246476577 -0.00013318468087 0)
(-0.000365535923647 -0.00013355319717 0)
(-0.000357455739073 -0.000134218350251 0)
(-0.000346084051991 -0.00013513382924 0)
(-0.00033152893577 -0.000136250099387 0)
(-0.000313927263798 -0.000137515555287 0)
(-0.000293443457698 -0.000138877662393 0)
(-0.000270267948696 -0.000140284097721 0)
(-0.000244615321195 -0.000141683893463 0)
(-0.000216722286759 -0.000143028509221 0)
(-0.000186845562244 -0.000144272832342 0)
(-0.000155259578069 -0.000145376160074 0)
(-0.000122253980444 -0.000146303183509 0)
(-8.81309933036e-05 -0.0001470247823 0)
(-5.32027286538e-05 -0.000147518589726 0)
(-1.77884317445e-05 -0.000147769387838 0)
(1.77883783728e-05 -0.000147769448714 0)
(5.32027228697e-05 -0.00014751871736 0)
(8.81310360347e-05 -0.000147024866707 0)
(0.000122254066648 -0.000146303136714 0)
(0.000155259666002 -0.000145376019113 0)
(0.000186845598863 -0.000144272708261 0)
(0.000216722272119 -0.000143028456075 0)
(0.000244615303351 -0.000141683844318 0)
(0.000270267957801 -0.000140283957651 0)
(0.000293443479306 -0.000138877410483 0)
(0.000313927286961 -0.000137515248631 0)
(0.000331528986424 -0.000136249812831 0)
(0.000346084140084 -0.000135133607576 0)
(0.000357455822667 -0.000134218193526 0)
(0.000365535965806 -0.000133553064441 0)
(0.000370246488329 -0.000133184533529 0)
(0.000371540182354 -0.000133154680934 0)
(0.000369401301843 -0.000133500386982 0)
(0.000363845858263 -0.000134252497836 0)
(0.000354921665999 -0.000135435095817 0)
(0.000342708123853 -0.00013706488797 0)
(0.000327315744773 -0.000139150746658 0)
(0.000308885414739 -0.000141693403253 0)
(0.000287587440126 -0.000144685279013 0)
(0.000263620455448 -0.000148110443839 0)
(0.000237210367193 -0.000151944678608 0)
(0.000208609307853 -0.000156155466853 0)
(0.000178097434211 -0.000160702212617 0)
(0.000145978956033 -0.000165533970954 0)
(0.000112634699016 -0.00017059219819 0)
(7.84064789899e-05 -0.000175786654464 0)
(4.44543872342e-05 -0.0001810002742 0)
(1.09963804097e-05 -0.000185985117271 0)