/*--------------------------------*- C++ -*----------------------------------*\
| =========                 |                                                 |
| \\      /  F ield         | OpenFOAM: The Open Source CFD Toolbox           |
|  \\    /   O peration     | Version:  2406                                  |
|   \\  /    A nd           | Website:  www.openfoam.com                      |
|    \\/     M anipulation  |                                                 |
\*---------------------------------------------------------------------------*/
FoamFile
{
    version     2.0;
    format      ascii;
    arch        "LSB;label=32;scalar=64";
    class       volVectorField;
    location    "47.55";
    object      U_0;
}
// * * * * * * * * * * * * * * * * * * * * * * * * * * * * * * * * * * * * * //

dimensions      [0 1 -1 0 0 0 0];

internalField   nonuniform List<vector> 
14400
(
(-7.13775e-06 7.02556e-06 0)
(1.55382e-05 -1.17406e-05 0)
(0.000127122 -3.60073e-05 0)
(0.000322829 -5.56528e-05 0)
(0.000582117 -6.91833e-05 0)
(0.000881692 -7.64003e-05 0)
(0.00119831 -7.79317e-05 0)
(0.00151147 -7.47225e-05 0)
(0.00180455 -6.79274e-05 0)
(0.00206553 -5.87757e-05 0)
(0.00228706 -4.84667e-05 0)
(0.00246628 -3.80717e-05 0)
(0.00260417 -2.84591e-05 0)
(0.00270467 -2.02499e-05 0)
(0.00277376 -1.37981e-05 0)
(0.00281838 -9.19257e-06 0)
(0.00284558 -6.3363e-06 0)
(0.00286151 -5.05634e-06 0)
(0.00287082 -4.91253e-06 0)
(0.00287637 -5.38801e-06 0)
(0.00287885 -5.90124e-06 0)
(0.00287724 -5.64626e-06 0)
(0.00286887 -4.40948e-06 0)
(0.00284931 -2.03158e-06 0)
(0.0028132 1.65832e-06 0)
(0.00275461 6.75365e-06 0)
(0.0026673 1.32873e-05 0)
(0.00254491 2.12664e-05 0)
(0.00238103 3.06979e-05 0)
(0.0021692 4.16041e-05 0)
(0.00190286 5.40262e-05 0)
(0.0015753 6.80176e-05 0)
(0.00117966 8.36307e-05 0)
(0.000709025 0.000100902 0)
(0.000156475 0.000119838 0)
(-0.000484692 0.000140407 0)
(-0.00122078 0.000162526 0)
(-0.00205747 0.000186062 0)
(-0.00299953 0.000210823 0)
(-0.00405063 0.000236563 0)
(-0.00521302 0.000262976 0)
(-0.0064873 0.000289703 0)
(-0.0078722 0.000316333 0)
(-0.00936439 0.000342406 0)
(-0.0109583 0.000367427 0)
(-0.012646 0.000390867 0)
(-0.0144171 0.000412175 0)
(-0.0162589 0.000430787 0)
(-0.0181562 0.000446134 0)
(-0.0200915 0.000457651 0)
(-0.0220452 0.000464786 0)
(-0.0239956 0.000467004 0)
(-0.0259195 0.000463801 0)
(-0.0277921 0.000454704 0)
(-0.0295872 0.000439286 0)
(-0.031278 0.000417171 0)
(-0.0328372 0.000388042 0)
(-0.034237 0.000351668 0)
(-0.0354504 0.000307896 0)
(-0.0364507 0.000256566 0)
(-0.0372134 0.00019811 0)
(-0.0377153 0.000134668 0)
(-0.037932 6.62317e-05 0)
(-0.0378442 -1.06438e-05 0)
(-0.037441 -9.3417e-05 0)
(-0.0367102 -0.000179615 0)
(-0.035645 -0.000267974 0)
(-0.0342447 -0.000357024 0)
(-0.0325143 -0.000445014 0)
(-0.0304655 -0.000530002 0)
(-0.0281165 -0.000609902 0)
(-0.0254927 -0.000682555 0)
(-0.022626 -0.000745815 0)
(-0.0195553 -0.000797645 0)
(-0.0163253 -0.000836224 0)
(-0.0129861 -0.000860048 0)
(-0.00959175 -0.000868036 0)
(-0.00619887 -0.000859613 0)
(-0.00286519 -0.000834779 0)
(0.000352373 -0.000794143 0)
(0.00339957 -0.000738923 0)
(0.00622667 -0.000670906 0)
(0.00879017 -0.000592366 0)
(0.0110543 -0.000505954 0)
(0.0129922 -0.00041455 0)
(0.0145866 -0.000321106 0)
(0.0158302 -0.000228485 0)
(0.0167257 -0.000139293 0)
(0.0172849 -5.56148e-05 0)
(0.0175293 2.01232e-05 0)
(0.0174837 8.42736e-05 0)
(0.0171788 0.000138563 0)
(0.016653 0.000184368 0)
(0.0159453 0.00022058 0)
(0.0150931 0.000246795 0)
(0.0141337 0.00026379 0)
(0.013102 0.000272606 0)
(0.0120301 0.000274358 0)
(0.0109461 0.000270217 0)
(0.00987363 0.000261351 0)
(0.00883215 0.000248874 0)
(0.00783667 0.00023381 0)
(0.00689816 0.000217075 0)
(0.0060239 0.00019946 0)
(0.00521797 0.000181626 0)
(0.00448169 0.000164115 0)
(0.00381416 0.000147353 0)
(0.0032127 0.000131662 0)
(0.0026733 0.000117263 0)
(0.00219112 0.000104268 0)
(0.00176094 9.26671e-05 0)
(0.00137779 8.22909e-05 0)
(0.00103766 7.27783e-05 0)
(0.000738279 6.35426e-05 0)
(0.000480008 5.37674e-05 0)
(0.000266438 4.25003e-05 0)
(0.000104482 2.89135e-05 0)
(2.88886e-06 1.27885e-05 0)
(-3.40446e-05 -3.79598e-06 0)
(-1.32148e-05 -1.32326e-05 0)
(1.05227e-05 -1.46146e-05 0)
(0.000157535 -0.000162234 0)
(0.000492395 -0.000341747 0)
(0.00100827 -0.0004915 0)
(0.00165826 -0.000596655 0)
(0.00239495 -0.000654047 0)
(0.00316804 -0.000666682 0)
(0.00393166 -0.000641042 0)
(0.00464763 -0.000585629 0)
(0.00528726 -0.000509835 0)
(0.00583196 -0.000423024 0)
(0.00627294 -0.000333718 0)
(0.00661003 -0.000248973 0)
(0.00684988 -0.000173965 0)
(0.0070039 -0.000111805 0)
(0.00708589 -6.35578e-05 0)
(0.00710991 -2.84647e-05 0)
(0.00708837 -4.34001e-06 0)
(0.00703051 1.2251e-05 0)
(0.00694126 2.5425e-05 0)
(0.00682094 3.94686e-05 0)
(0.00666492 5.85945e-05 0)
(0.00646418 8.60474e-05 0)
(0.00620648 0.00012431 0)
(0.00587693 0.000175091 0)
(0.00545894 0.000239387 0)
(0.00493495 0.000317671 0)
(0.00428698 0.000410123 0)
(0.00349694 0.00051682 0)
(0.0025467 0.000637853 0)
(0.00141828 0.000773353 0)
(9.38906e-05 0.000923429 0)
(-0.0014438 0.00108807 0)
(-0.00321134 0.00126702 0)
(-0.00522401 0.00145968 0)
(-0.00749522 0.00166499 0)
(-0.0100359 0.00188142 0)
(-0.0128537 0.00210687 0)
(-0.0159525 0.00233873 0)
(-0.0193317 0.00257382 0)
(-0.0229854 0.00280848 0)
(-0.0269023 0.00303857 0)
(-0.0310652 0.00325961 0)
(-0.0354509 0.00346681 0)
(-0.04003 0.00365521 0)
(-0.0447673 0.00381979 0)
(-0.0496222 0.0039556 0)
(-0.0545491 0.00405788 0)
(-0.0594979 0.00412216 0)
(-0.0644151 0.00414435 0)
(-0.0692447 0.00412087 0)
(-0.0739284 0.00404869 0)
(-0.0784076 0.0039254 0)
(-0.0826233 0.00374922 0)
(-0.0865176 0.00351911 0)
(-0.0900342 0.00323471 0)
(-0.0931192 0.00289642 0)
(-0.095722 0.00250541 0)
(-0.097796 0.00206369 0)
(-0.0992988 0.00157407 0)
(-0.100193 0.00104047 0)
(-0.100447 0.000468915 0)
(-0.100039 -0.000134447 0)
(-0.0989472 -0.00076681 0)
(-0.0971608 -0.0014194 0)
(-0.094678 -0.00208303 0)
(-0.0915053 -0.00274781 0)
(-0.0876579 -0.00340312 0)
(-0.0831603 -0.00403758 0)
(-0.0780471 -0.00463922 0)
(-0.0723629 -0.00519573 0)
(-0.0661625 -0.00569477 0)
(-0.0595101 -0.00612436 0)
(-0.0524798 -0.00647331 0)
(-0.0451539 -0.00673164 0)
(-0.0376222 -0.00689111 0)
(-0.0299807 -0.00694564 0)
(-0.0223296 -0.00689178 0)
(-0.0147713 -0.006729 0)
(-0.00740825 -0.00645995 0)
(-0.000340257 -0.00609054 0)
(0.00633789 -0.00562989 0)
(0.0125391 -0.00509005 0)
(0.0181865 -0.00448562 0)
(0.0232154 -0.00383316 0)
(0.0275756 -0.00315055 0)
(0.0312325 -0.00245619 0)
(0.0341679 -0.00176825 0)
(0.0363807 -0.00110389 0)
(0.0378852 -0.000478829 0)
(0.0387125 9.20893e-05 0)
(0.0389097 0.000601018 0)
(0.0385329 0.00104217 0)
(0.0376474 0.00141025 0)
(0.0363262 0.00170324 0)
(0.0346463 0.0019227 0)
(0.0326852 0.00207264 0)
(0.0305181 0.00215903 0)
(0.0282161 0.00218921 0)
(0.0258437 0.00217139 0)
(0.0234578 0.00211417 0)
(0.0211064 0.00202604 0)
(0.0188286 0.00191509 0)
(0.0166544 0.00178871 0)
(0.0146057 0.00165342 0)
(0.0126962 0.00151481 0)
(0.0109333 0.00137748 0)
(0.00931863 0.00124509 0)
(0.00784921 0.00112029 0)
(0.00651887 0.00100469 0)
(0.0053195 0.000898749 0)
(0.00424261 0.000801516 0)
(0.003281 0.000710478 0)
(0.0024306 0.000621425 0)
(0.0016921 0.000528628 0)
(0.0010721 0.000425689 0)
(0.00058277 0.000307571 0)
(0.000237816 0.000174958 0)
(4.74614e-05 4.21119e-05 0)
(-2.71568e-06 -3.30851e-05 0)
(3.29319e-05 -0.000119926 0)
(0.000326389 -0.000492629 0)
(0.000868873 -0.000887741 0)
(0.00164797 -0.00121558 0)
(0.00259406 -0.00144639 0)
(0.00364699 -0.00157178 0)
(0.00474108 -0.00159658 0)
(0.00581561 -0.00153393 0)
(0.00681927 -0.00140199 0)
(0.0077127 -0.00122136 0)
(0.00846945 -0.00101286 0)
(0.0090757 -0.000795675 0)
(0.00952883 -0.000585841 0)
(0.00983519 -0.000395294 0)
(0.0100074 -0.00023135 0)
(0.0100611 -9.66716e-05 0)
(0.0100127 1.03883e-05 0)
(0.00987575 9.50693e-05 0)
(0.00965989 0.000165244 0)
(0.00936863 0.000230403 0)
(0.00899896 0.000300483 0)
(0.00854122 0.000384761 0)
(0.00797974 0.000491379 0)
(0.00729398 0.000626636 0)
(0.00645974 0.000794867 0)
(0.00545033 0.000998682 0)
(0.00423777 0.00123938 0)
(0.00279351 0.00151742 0)
(0.00108909 0.00183281 0)
(-0.00090344 0.00218532 0)
(-0.00321108 0.00257452 0)
(-0.00585938 0.00299959 0)
(-0.00887176 0.00345912 0)
(-0.0122687 0.00395081 0)
(-0.0160666 0.00447123 0)
(-0.0202771 0.00501569 0)
(-0.0249056 0.00557811 0)
(-0.0299502 0.00615102 0)
(-0.0354013 0.00672563 0)
(-0.0412403 0.00729196 0)
(-0.0474395 0.00783904 0)
(-0.0539618 0.00835519 0)
(-0.060761 0.00882829 0)
(-0.0677826 0.00924617 0)
(-0.0749642 0.00959697 0)
(-0.082237 0.00986945 0)
(-0.089527 0.0100534 0)
(-0.096757 0.0101397 0)
(-0.103848 0.010121 0)
(-0.110719 0.00999143 0)
(-0.117293 0.00974673 0)
(-0.123493 0.00938456 0)
(-0.129247 0.00890423 0)
(-0.134487 0.00830672 0)
(-0.139151 0.00759455 0)
(-0.14318 0.00677172 0)
(-0.146526 0.00584357 0)
(-0.149143 0.00481677 0)
(-0.150994 0.00369923 0)
(-0.152048 0.00250012 0)
(-0.152279 0.00122946 0)
(-0.15167 -0.000101784 0)
(-0.150213 -0.00147939 0)
(-0.147904 -0.00288852 0)
(-0.144745 -0.0043149 0)
(-0.140749 -0.00574209 0)
(-0.135934 -0.00715186 0)
(-0.130328 -0.00852476 0)
(-0.123968 -0.00984038 0)
(-0.116896 -0.0110776 0)
(-0.109167 -0.0122148 0)
(-0.100843 -0.0132305 0)
(-0.0919959 -0.014104 0)
(-0.0827045 -0.0148157 0)
(-0.0730576 -0.0153478 0)
(-0.0631509 -0.0156857 0)
(-0.0530865 -0.0158178 0)
(-0.0429718 -0.0157371 0)
(-0.0329177 -0.0154412 0)
(-0.0230366 -0.0149331 0)
(-0.0134406 -0.0142211 0)
(-0.00423874 -0.0133195 0)
(0.00446516 -0.0122476 0)
(0.012575 -0.0110298 0)
(0.0200046 -0.00969466 0)
(0.0266802 -0.00827387 0)
(0.0325423 -0.00680136 0)
(0.0375469 -0.00531194 0)
(0.0416672 -0.00384008 0)
(0.0448938 -0.0024184 0)
(0.0472366 -0.0010758 0)
(0.0487234 0.000161485 0)
(0.0493964 0.00127116 0)
(0.0493137 0.00223758 0)
(0.0485481 0.0030512 0)
(0.0471823 0.00370785 0)
(0.0453062 0.00420892 0)
(0.0430139 0.00456092 0)
(0.0403998 0.00477473 0)
(0.037556 0.00486463 0)
(0.0345686 0.00484723 0)
(0.0315155 0.00474045 0)
(0.028465 0.00456249 0)
(0.0254739 0.004331 0)
(0.0225881 0.00406241 0)
(0.0198418 0.00377145 0)
(0.017259 0.00347087 0)
(0.0148542 0.00317115 0)
(0.0126341 0.00288042 0)
(0.0105987 0.00260416 0)
(0.00874427 0.00234492 0)
(0.0070645 0.00210193 0)
(0.0055535 0.00187074 0)
(0.00420792 0.00164322 0)
(0.00302922 0.0014081 0)
(0.00202491 0.001153 0)
(0.00120842 0.000868537 0)
(0.000593309 0.000556085 0)
(0.000200787 0.000240343 0)
(1.6744e-05 1.18345e-05 0)
(5.07367e-05 -0.000303232 0)
(0.000467952 -0.000996664 0)
(0.00118647 -0.00166475 0)
(0.0021808 -0.00220812 0)
(0.00335614 -0.00258599 0)
(0.00464116 -0.0027859 0)
(0.00595914 -0.00281542 0)
(0.00723976 -0.00269577 0)
(0.00842367 -0.00245682 0)
(0.00946509 -0.00213276 0)
(0.0103327 -0.00175833 0)
(0.0110094 -0.00136564 0)
(0.0114902 -0.000981654 0)
(0.0117802 -0.000626462 0)
(0.0118911 -0.000312402 0)
(0.0118376 -4.39047e-05 0)
(0.0116347 0.000181963 0)
(0.0112941 0.000374366 0)
(0.0108218 0.00054707 0)
(0.010217 0.000716617 0)
(0.00947071 0.000900406 0)
(0.00856609 0.00111489 0)
(0.00747928 0.00137423 0)
(0.00618072 0.00168946 0)
(0.00463671 0.0020682 0)
(0.00281099 0.00251502 0)
(0.00066612 0.00303205 0)
(-0.00183535 0.00361973 0)
(-0.00472989 0.00427732 0)
(-0.00805208 0.0050032 0)
(-0.0118336 0.00579484 0)
(-0.0161023 0.00664845 0)
(-0.0208806 0.00755859 0)
(-0.0261843 0.00851774 0)
(-0.0320209 0.00951598 0)
(-0.0383884 0.0105408 0)
(-0.0452737 0.0115772 0)
(-0.052652 0.0126078 0)
(-0.0604861 0.0136131 0)
(-0.0687263 0.0145722 0)
(-0.077311 0.0154634 0)
(-0.086168 0.0162647 0)
(-0.0952158 0.0169548 0)
(-0.104366 0.0175136 0)
(-0.113525 0.0179231 0)
(-0.122596 0.0181679 0)
(-0.131485 0.0182356 0)
(-0.140098 0.018117 0)
(-0.148345 0.0178063 0)
(-0.156144 0.017301 0)
(-0.163417 0.0166015 0)
(-0.170095 0.0157111 0)
(-0.176119 0.0146356 0)
(-0.181433 0.0133829 0)
(-0.185993 0.0119624 0)
(-0.189762 0.0103854 0)
(-0.192707 0.00866409 0)
(-0.194805 0.00681207 0)
(-0.196036 0.00484383 0)
(-0.196387 0.00277491 0)
(-0.195851 0.000621907 0)
(-0.194422 -0.00159787 0)
(-0.192103 -0.00386628 0)
(-0.1889 -0.00616154 0)
(-0.184825 -0.00846178 0)
(-0.179893 -0.0107438 0)
(-0.174125 -0.0129827 0)
(-0.16755 -0.0151518 0)
(-0.1602 -0.0172232 0)
(-0.152117 -0.0191678 0)
(-0.143348 -0.0209556 0)
(-0.133951 -0.0225567 0)
(-0.123989 -0.0239416 0)
(-0.113535 -0.0250823 0)
(-0.102669 -0.0259531 0)
(-0.0914816 -0.0265318 0)
(-0.0800684 -0.0268005 0)
(-0.0685321 -0.0267472 0)
(-0.0569806 -0.026366 0)
(-0.0455254 -0.0256583 0)
(-0.0342791 -0.0246332 0)
(-0.0233541 -0.0233077 0)
(-0.01286 -0.0217065 0)
(-0.00290123 -0.0198616 0)
(0.00642519 -0.0178113 0)
(0.0150315 -0.0155995 0)
(0.0228413 -0.0132737 0)
(0.0297913 -0.0108842 0)
(0.0358326 -0.00848181 0)
(0.0409321 -0.00611664 0)
(0.0450735 -0.00383618 0)
(0.0482566 -0.00168491 0)
(0.0504987 0.000298262 0)
(0.0518352 0.00208188 0)
(0.0523171 0.00364189 0)
(0.0520105 0.0049621 0)
(0.0509947 0.00603479 0)
(0.0493592 0.00686078 0)
(0.0472012 0.00744882 0)
(0.0446214 0.00781466 0)
(0.041721 0.00797973 0)
(0.0385972 0.00796967 0)
(0.0353408 0.0078126 0)
(0.0320333 0.00753759 0)
(0.0287447 0.00717319 0)
(0.025533 0.00674625 0)
(0.0224436 0.00628098 0)
(0.01951 0.00579821 0)
(0.0167545 0.00531481 0)
(0.0141906 0.0048431 0)
(0.0118241 0.00439019 0)
(0.00965663 0.00395736 0)
(0.0076875 0.00353957 0)
(0.00591699 0.00312554 0)
(0.00434884 0.00269881 0)
(0.00299216 0.0022409 0)
(0.00186216 0.00173716 0)
(0.000974131 0.00118715 0)
(0.000368134 0.000619529 0)
(3.79913e-05 0.000136216 0)
(6.40514e-05 -0.000547416 0)
(0.000578113 -0.00163647 0)
(0.00143805 -0.00261666 0)
(0.00260283 -0.00339189 0)
(0.00395207 -0.00391801 0)
(0.0054023 -0.00418262 0)
(0.00686678 -0.0041985 0)
(0.00826786 -0.00399679 0)
(0.00954098 -0.0036206 0)
(0.0106368 -0.00311901 0)
(0.0115216 -0.00254172 0)
(0.0121766 -0.0019345 0)
(0.0125955 -0.00133564 0)
(0.0127817 -0.000773469 0)
(0.012745 -0.000265068 0)
(0.0124974 0.000183951 0)
(0.01205 0.00057865 0)
(0.0114093 0.000933164 0)
(0.0105753 0.00126834 0)
(0.00953942 0.00160898 0)
(0.0082842 0.00198097 0)
(0.00678355 0.00240868 0)
(0.00500397 0.00291287 0)
(0.00290624 0.00350951 0)
(0.000447429 0.00420941 0)
(-0.00241724 0.00501866 0)
(-0.00573258 0.00593942 0)
(-0.00954184 0.0069709 0)
(-0.0138852 0.00810993 0)
(-0.0187984 0.00935122 0)
(-0.0243105 0.0106872 0)
(-0.0304429 0.0121074 0)
(-0.0372066 0.0135981 0)
(-0.0446007 0.0151419 0)
(-0.0526108 0.0167171 0)
(-0.0612073 0.0182984 0)
(-0.0703453 0.0198571 0)
(-0.0799643 0.0213616 0)
(-0.0899891 0.0227788 0)
(-0.100332 0.0240753 0)
(-0.110894 0.0252181 0)
(-0.121571 0.0261767 0)
(-0.132251 0.0269238 0)
(-0.142826 0.0274364 0)
(-0.153187 0.0276963 0)
(-0.163232 0.0276908 0)
(-0.172868 0.0274124 0)
(-0.182008 0.0268588 0)
(-0.190579 0.0260324 0)
(-0.198515 0.0249397 0)
(-0.205762 0.0235902 0)
(-0.212277 0.0219963 0)
(-0.218022 0.0201726 0)
(-0.222969 0.0181346 0)
(-0.227096 0.0158994 0)
(-0.230386 0.0134842 0)
(-0.232828 0.0109072 0)
(-0.234413 0.00818654 0)
(-0.235135 0.00534106 0)
(-0.234991 0.00239001 0)
(-0.233981 -0.000646432 0)
(-0.232105 -0.00374709 0)
(-0.229367 -0.00689036 0)
(-0.225772 -0.0100523 0)
(-0.221328 -0.0132072 0)
(-0.216046 -0.0163274 0)
(-0.209939 -0.0193831 0)
(-0.203027 -0.0223426 0)
(-0.195334 -0.0251719 0)
(-0.18689 -0.0278352 0)
(-0.177732 -0.0302953 0)
(-0.167903 -0.0325142 0)
(-0.157457 -0.0344543 0)
(-0.146455 -0.0360788 0)
(-0.134968 -0.0373535 0)
(-0.123076 -0.0382477 0)
(-0.110868 -0.0387362 0)
(-0.09844 -0.0388 0)
(-0.0858971 -0.0384282 0)
(-0.0733481 -0.0376185 0)
(-0.0609059 -0.0363785 0)
(-0.0486846 -0.0347258 0)
(-0.0367975 -0.0326882 0)
(-0.0253544 -0.0303026 0)
(-0.0144594 -0.027615 0)
(-0.00420899 -0.0246783 0)
(0.00531024 -0.0215512 0)
(0.0140227 -0.0182965 0)
(0.0218653 -0.014979 0)
(0.0287883 -0.0116635 0)
(0.0347558 -0.00841354 0)
(0.0397466 -0.00528937 0)
(0.0437546 -0.00234552 0)
(0.0467897 0.000369513 0)
(0.0488774 0.00281487 0)
(0.0500588 0.00495898 0)
(0.0503904 0.00678039 0)
(0.0499431 0.00826829 0)
(0.0487998 0.00942269 0)
(0.0470535 0.010254 0)
(0.0448038 0.010782 0)
(0.0421531 0.0110347 0)
(0.0392029 0.0110457 0)
(0.0360503 0.0108527 0)
(0.0327845 0.0104953 0)
(0.0294844 0.0100125 0)
(0.0262169 0.00944114 0)
(0.0230364 0.00881447 0)
(0.0199846 0.00816066 0)
(0.0170921 0.0075016 0)
(0.0143794 0.00685176 0)
(0.0118598 0.00621712 0)
(0.00954217 0.00559444 0)
(0.00743347 0.0049713 0)
(0.00554244 0.00432753 0)
(0.00388202 0.00363903 0)
(0.00247172 0.00288457 0)
(0.00133182 0.00205716 0)
(0.000525265 0.00117894 0)
(5.75963e-05 0.000341398 0)
(7.38806e-05 -0.00083802 0)
(0.000662156 -0.00238431 0)
(0.00163211 -0.00370969 0)
(0.00292699 -0.00472686 0)
(0.00440193 -0.00539444 0)
(0.00596013 -0.00570496 0)
(0.00750482 -0.00568011 0)
(0.00895194 -0.00536377 0)
(0.0102333 -0.00481442 0)
(0.011298 -0.00409748 0)
(0.0121118 -0.00327846 0)
(0.0126557 -0.00241702 0)
(0.0129231 -0.00156247 0)
(0.012916 -0.000750652 0)
(0.0126415 -2.3429e-06 0)
(0.0121073 0.000676958 0)
(0.0113186 0.00129589 0)
(0.0102744 0.00187499 0)
(0.00896547 0.00244343 0)
(0.00737318 0.00303531 0)
(0.00546922 0.00368568 0)
(0.00321659 0.00442699 0)
(0.000571379 0.00528637 0)
(-0.00251501 0.00628404 0)
(-0.00609338 0.00743286 0)
(-0.0102144 0.00873891 0)
(-0.0149262 0.0102024 0)
(-0.0202725 0.0118189 0)
(-0.0262902 0.0135795 0)
(-0.0330071 0.0154713 0)
(-0.0404397 0.0174771 0)
(-0.0485905 0.0195746 0)
(-0.057446 0.0217359 0)
(-0.0669749 0.0239279 0)
(-0.0771273 0.0261123 0)
(-0.0878346 0.0282463 0)
(-0.0990106 0.0302846 0)
(-0.110554 0.0321805 0)
(-0.122353 0.0338882 0)
(-0.134285 0.0353647 0)
(-0.146228 0.0365717 0)
(-0.158058 0.037477 0)
(-0.169659 0.0380555 0)
(-0.180922 0.03829 0)
(-0.191751 0.038171 0)
(-0.202062 0.037696 0)
(-0.211783 0.0368693 0)
(-0.220856 0.0357005 0)
(-0.229236 0.0342034 0)
(-0.236886 0.0323951 0)
(-0.243782 0.030295 0)
(-0.249903 0.0279236 0)
(-0.255237 0.0253022 0)
(-0.259776 0.0224521 0)
(-0.263512 0.0193942 0)
(-0.266444 0.0161494 0)
(-0.268568 0.0127378 0)
(-0.269883 0.00917951 0)
(-0.270387 0.00549435 0)
(-0.270077 0.00170255 0)
(-0.268952 -0.00217513 0)
(-0.267011 -0.00611693 0)
(-0.26425 -0.0100994 0)
(-0.260669 -0.0140973 0)
(-0.256268 -0.0180832 0)
(-0.251048 -0.0220267 0)
(-0.245014 -0.0258949 0)
(-0.238172 -0.0296514 0)
(-0.230534 -0.0332571 0)
(-0.222118 -0.0366701 0)
(-0.212947 -0.0398459 0)
(-0.203053 -0.0427386 0)
(-0.192475 -0.0453014 0)
(-0.181263 -0.0474882 0)
(-0.169476 -0.0492549 0)
(-0.157184 -0.0505609 0)
(-0.144469 -0.0513715 0)
(-0.131422 -0.051659 0)
(-0.118143 -0.0514051 0)
(-0.104741 -0.050602 0)
(-0.0913303 -0.0492536 0)
(-0.0780293 -0.0473765 0)
(-0.0649568 -0.0449997 0)
(-0.05223 -0.0421644 0)
(-0.0399612 -0.0389227 0)
(-0.0282556 -0.0353361 0)
(-0.0172087 -0.0314735 0)
(-0.00690532 -0.027409 0)
(0.00258207 -0.0232198 0)
(0.0111936 -0.0189839 0)
(0.0188822 -0.014778 0)
(0.025614 -0.0106759 0)
(0.0313676 -0.00674655 0)
(0.0361352 -0.00305296 0)
(0.0399218 0.000349306 0)
(0.0427466 0.00341363 0)
(0.0446426 0.00610362 0)
(0.0456573 0.00839418 0)
(0.0458521 0.0102725 0)
(0.0453016 0.0117381 0)
(0.0440916 0.0128034 0)
(0.0423164 0.0134918 0)
(0.0400756 0.0138367 0)
(0.0374702 0.0138794 0)
(0.034599 0.0136661 0)
(0.0315546 0.0132456 0)
(0.0284209 0.0126662 0)
(0.0252708 0.0119736 0)
(0.0221652 0.0112083 0)
(0.0191527 0.0104036 0)
(0.016271 0.00958379 0)
(0.0135479 0.008762 0)
(0.0110048 0.00793938 0)
(0.00865848 0.00710472 0)
(0.00652571 0.0062358 0)
(0.00462617 0.00530337 0)
(0.00298655 0.00427807 0)
(0.00163508 0.00314146 0)
(0.000658109 0.00189986 0)
(7.40218e-05 0.000618056 0)
(8.14874e-05 -0.00116402 0)
(0.000727237 -0.00321539 0)
(0.00178091 -0.00491003 0)
(0.0031702 -0.00617121 0)
(0.00472708 -0.00696506 0)
(0.00634092 -0.0072939 0)
(0.00790491 -0.00719274 0)
(0.00932921 -0.00672178 0)
(0.0105433 -0.00595747 0)
(0.011496 -0.00498326 0)
(0.0121544 -0.00388109 0)
(0.0125004 -0.00272434 0)
(0.0125276 -0.00157241 0)
(0.0122369 -0.00046715 0)
(0.0116319 0.000568815 0)
(0.0107146 0.00153208 0)
(0.00948228 0.00243681 0)
(0.00792404 0.00331163 0)
(0.00601924 0.00419537 0)
(0.00373689 0.00513212 0)
(0.00103637 0.00616611 0)
(-0.00213082 0.00733722 0)
(-0.00581844 0.00867757 0)
(-0.0100825 0.0102097 0)
(-0.0149784 0.011946 0)
(-0.0205575 0.0138897 0)
(-0.0268649 0.0160354 0)
(-0.0339363 0.0183707 0)
(-0.0417951 0.0208761 0)
(-0.0504496 0.0235257 0)
(-0.0598903 0.0262862 0)
(-0.0700875 0.0291173 0)
(-0.0809899 0.0319714 0)
(-0.0925244 0.034795 0)
(-0.104597 0.0375299 0)
(-0.117097 0.0401155 0)
(-0.129899 0.0424916 0)
(-0.142869 0.044601 0)
(-0.155869 0.0463925 0)
(-0.168767 0.0478226 0)
(-0.181436 0.0488575 0)
(-0.193761 0.0494738 0)
(-0.205643 0.0496583 0)
(-0.216998 0.0494077 0)
(-0.227759 0.0487272 0)
(-0.237872 0.047629 0)
(-0.2473 0.0461308 0)
(-0.256014 0.0442542 0)
(-0.263997 0.0420234 0)
(-0.271239 0.0394638 0)
(-0.277734 0.0366009 0)
(-0.28348 0.03346 0)
(-0.288477 0.0300654 0)
(-0.292728 0.0264404 0)
(-0.296232 0.0226069 0)
(-0.298991 0.0185857 0)
(-0.301004 0.0143967 0)
(-0.30227 0.0100592 0)
(-0.302785 0.00559219 0)
(-0.302546 0.00101508 0)
(-0.301547 -0.00365213 0)
(-0.299781 -0.00838822 0)
(-0.29724 -0.01317 0)
(-0.293917 -0.0179718 0)
(-0.289804 -0.0227653 0)
(-0.284893 -0.0275187 0)
(-0.279178 -0.0321964 0)
(-0.272657 -0.0367589 0)
(-0.265328 -0.0411627 0)
(-0.257195 -0.0453602 0)
(-0.248269 -0.0493002 0)
(-0.238564 -0.0529288 0)
(-0.228107 -0.0561901 0)
(-0.216932 -0.0590278 0)
(-0.205085 -0.0613865 0)
(-0.192623 -0.0632143 0)
(-0.179616 -0.0644647 0)
(-0.166149 -0.0650989 0)
(-0.152316 -0.0650881 0)
(-0.138225 -0.0644159 0)
(-0.123992 -0.0630801 0)
(-0.109741 -0.0610933 0)
(-0.0955991 -0.0584839 0)
(-0.0816951 -0.0552955 0)
(-0.0681538 -0.051586 0)
(-0.0550936 -0.0474251 0)
(-0.0426232 -0.0428924 0)
(-0.0308393 -0.0380741 0)
(-0.0198248 -0.0330605 0)
(-0.00964845 -0.0279426 0)
(-0.000364916 -0.0228103 0)
(0.00798473 -0.0177499 0)
(0.015372 -0.0128429 0)
(0.02178 -0.00816409 0)
(0.0272031 -0.0037812 0)
(0.0316465 0.000246643 0)
(0.0351267 0.00386993 0)
(0.037672 0.00705007 0)
(0.0393233 0.00976058 0)
(0.0401345 0.0119882 0)
(0.0401722 0.0137334 0)
(0.0395147 0.0150106 0)
(0.0382497 0.0158471 0)
(0.036472 0.0162817 0)
(0.0342793 0.016362 0)
(0.0317691 0.0161417 0)
(0.0290343 0.0156774 0)
(0.026161 0.015025 0)
(0.0232251 0.0142366 0)
(0.0202921 0.0133573 0)
(0.0174158 0.0124221 0)
(0.0146399 0.0114533 0)
(0.0119995 0.0104585 0)
(0.00952404 0.00942996 0)
(0.00724057 0.0083449 0)
(0.00517825 0.00716947 0)
(0.00337339 0.00586491 0)
(0.0018642 0.00439751 0)
(0.00075831 0.00275077 0)
(8.63089e-05 0.000951846 0)
(8.77714e-05 -0.00151811 0)
(0.00077906 -0.00411049 0)
(0.00189448 -0.00618853 0)
(0.00334589 -0.00768687 0)
(0.00494324 -0.00858297 0)
(0.00656214 -0.00889385 0)
(0.00808627 -0.00867257 0)
(0.00942093 -0.00799973 0)
(0.0104945 -0.00697277 0)
(0.0112571 -0.0056949 0)
(0.0116781 -0.004265 0)
(0.0117414 -0.0027695 0)
(0.0114412 -0.00127633 0)
(0.0107767 0.000168824 0)
(0.00974701 0.00154402 0)
(0.00834707 0.00285053 0)
(0.00656407 0.00411035 0)
(0.00437515 0.00536203 0)
(0.00174637 0.00665508 0)
(-0.00136678 0.00804366 0)
(-0.00501743 0.00958027 0)
(-0.00926447 0.0113103 0)
(-0.0141689 0.0132681 0)
(-0.0197898 0.015475 0)
(-0.0261811 0.0179388 0)
(-0.0333874 0.020655 0)
(-0.0414408 0.0236075 0)
(-0.0503578 0.0267698 0)
(-0.0601358 0.0301056 0)
(-0.0707502 0.0335688 0)
(-0.0821527 0.0371043 0)
(-0.0942699 0.0406483 0)
(-0.107005 0.0441303 0)
(-0.120239 0.0474756 0)
(-0.133838 0.0506085 0)
(-0.147655 0.053456 0)
(-0.161543 0.0559516 0)
(-0.175354 0.0580382 0)
(-0.188953 0.0596703 0)
(-0.202217 0.060816 0)
(-0.215041 0.0614561 0)
(-0.22734 0.0615844 0)
(-0.239046 0.0612055 0)
(-0.250109 0.060333 0)
(-0.260495 0.0589876 0)
(-0.270184 0.0571948 0)
(-0.279162 0.0549833 0)
(-0.287425 0.0523831 0)
(-0.294975 0.0494243 0)
(-0.301814 0.0461364 0)
(-0.307948 0.0425475 0)
(-0.313384 0.038684 0)
(-0.318126 0.0345703 0)
(-0.322179 0.030229 0)
(-0.325547 0.0256811 0)
(-0.328231 0.020946 0)
(-0.330232 0.0160419 0)
(-0.331548 0.0109865 0)
(-0.332174 0.0057972 0)
(-0.332106 0.000491605 0)
(-0.331336 -0.00491169 0)
(-0.329855 -0.0103928 0)
(-0.327653 -0.0159295 0)
(-0.324717 -0.0214972 0)
(-0.321033 -0.0270676 0)
(-0.316588 -0.0326087 0)
(-0.311366 -0.0380838 0)
(-0.305354 -0.0434516 0)
(-0.298539 -0.0486654 0)
(-0.290912 -0.0536736 0)
(-0.282467 -0.0584193 0)
(-0.273202 -0.0628414 0)
(-0.263125 -0.0668753 0)
(-0.252253 -0.0704542 0)
(-0.240611 -0.0735111 0)
(-0.22824 -0.0759808 0)
(-0.215193 -0.0778029 0)
(-0.201541 -0.0789244 0)
(-0.187369 -0.0793026 0)
(-0.172778 -0.0789084 0)
(-0.157883 -0.0777288 0)
(-0.142813 -0.0757684 0)
(-0.127704 -0.0730514 0)
(-0.112699 -0.0696208 0)
(-0.0979392 -0.0655383 0)
(-0.0835638 -0.0608813 0)
(-0.0697018 -0.0557406 0)
(-0.0564698 -0.0502163 0)
(-0.0439683 -0.0444138 0)
(-0.0322807 -0.0384401 0)
(-0.0214722 -0.0324004 0)
(-0.0115914 -0.0263954 0)
(-0.00267131 -0.020519 0)
(0.005268 -0.0148575 0)
(0.0122178 -0.009489 0)
(0.0181787 -0.00448227 0)
(0.0231604 0.000103136 0)
(0.0271809 0.00421799 0)
(0.0302679 0.00782434 0)
(0.0324591 0.0108967 0)
(0.0338036 0.0134235 0)
(0.034362 0.0154074 0)
(0.0342061 0.016866 0)
(0.0334176 0.0178308 0)
(0.0320857 0.0183455 0)
(0.0303039 0.0184637 0)
(0.0281666 0.0182453 0)
(0.0257653 0.0177528 0)
(0.0231858 0.0170473 0)
(0.0205056 0.0161841 0)
(0.0177925 0.0152088 0)
(0.0151048 0.0141534 0)
(0.0124915 0.0130334 0)
(0.00999533 0.0118456 0)
(0.00765551 0.0105681 0)
(0.00551249 0.0091631 0)
(0.0036137 0.00758177 0)
(0.00200832 0.00577279 0)
(0.000821416 0.00369282 0)
(9.39685e-05 0.00132551 0)
(9.32547e-05 -0.00189548 0)
(0.000820939 -0.00505418 0)
(0.00197844 -0.00751913 0)
(0.00346101 -0.00923753 0)
(0.00505747 -0.0102021 0)
(0.00663032 -0.0104497 0)
(0.00805487 -0.0100564 0)
(0.00923303 -0.00912765 0)
(0.0100935 -0.00778503 0)
(0.0105893 -0.00615308 0)
(0.010693 -0.00434776 0)
(0.0103909 -0.00246734 0)
(0.00967764 -0.000586088 0)
(0.00854975 0.00124932 0)
(0.0070006 0.00302074 0)
(0.00501605 0.00473705 0)
(0.00257148 0.00643054 0)
(-0.00036961 0.00815119 0)
(-0.00385536 0.00995956 0)
(-0.00794352 0.011919 0)
(-0.0126981 0.0140878 0)
(-0.0181848 0.0165134 0)
(-0.0244667 0.0192279 0)
(-0.0315991 0.0222461 0)
(-0.0396251 0.0255654 0)
(-0.048572 0.0291669 0)
(-0.0584474 0.0330168 0)
(-0.0692355 0.0370678 0)
(-0.080895 0.0412595 0)
(-0.0933571 0.0455202 0)
(-0.106526 0.0497687 0)
(-0.120281 0.0539166 0)
(-0.13448 0.0578724 0)
(-0.14897 0.061546 0)
(-0.163589 0.0648533 0)
(-0.178178 0.0677204 0)
(-0.192588 0.0700872 0)
(-0.206686 0.0719093 0)
(-0.220359 0.0731586 0)
(-0.233514 0.0738228 0)
(-0.246081 0.0739035 0)
(-0.258009 0.0734137 0)
(-0.269265 0.0723758 0)
(-0.27983 0.0708181 0)
(-0.289694 0.0687731 0)
(-0.298857 0.0662751 0)
(-0.307323 0.063359 0)
(-0.315101 0.0600587 0)
(-0.3222 0.0564069 0)
(-0.32863 0.052434 0)
(-0.334401 0.048168 0)
(-0.339523 0.0436348 0)
(-0.344004 0.0388578 0)
(-0.347852 0.0338584 0)
(-0.351072 0.0286557 0)
(-0.353669 0.0232676 0)
(-0.355646 0.0177106 0)
(-0.357002 0.0120004 0)
(-0.357737 0.00615224 0)
(-0.357847 0.000181815 0)
(-0.357325 -0.00589446 0)
(-0.356164 -0.0120589 0)
(-0.35435 -0.0182915 0)
(-0.351871 -0.0245695 0)
(-0.348709 -0.0308665 0)
(-0.344845 -0.0371518 0)
(-0.340257 -0.0433897 0)
(-0.334923 -0.0495389 0)
(-0.328818 -0.055552 0)
(-0.321919 -0.0613749 0)
(-0.314203 -0.0669475 0)
(-0.305651 -0.0722032 0)
(-0.296249 -0.07707 0)
(-0.285991 -0.0814717 0)
(-0.27488 -0.0853294 0)
(-0.262931 -0.0885644 0)
(-0.250175 -0.0911004 0)
(-0.236659 -0.0928672 0)
(-0.222451 -0.0938043 0)
(-0.207637 -0.0938651 0)
(-0.192324 -0.0930198 0)
(-0.176639 -0.0912593 0)
(-0.160722 -0.0885969 0)
(-0.14473 -0.0850699 0)
(-0.128823 -0.0807391 0)
(-0.113164 -0.0756869 0)
(-0.097912 -0.070014 0)
(-0.0832121 -0.0638353 0)
(-0.0691941 -0.0572743 0)
(-0.0559671 -0.0504579 0)
(-0.0436174 -0.0435112 0)
(-0.0322085 -0.0365537 0)
(-0.0217829 -0.0296962 0)
(-0.0123645 -0.0230388 0)
(-0.00396262 -0.0166706 0)
(0.00342513 -0.0106695 0)
(0.00980958 -0.00510288 0)
(0.0152085 -2.73164e-05 0)
(0.0196457 0.0045112 0)
(0.023152 0.00847819 0)
(0.0257655 0.0118518 0)
(0.0275336 0.014624 0)
(0.0285136 0.0168015 0)
(0.0287729 0.0184062 0)
(0.0283882 0.0194742 0)
(0.027444 0.0200544 0)
(0.0260292 0.0202054 0)
(0.0242347 0.0199919 0)
(0.0221496 0.0194802 0)
(0.0198584 0.018733 0)
(0.0174388 0.0178049 0)
(0.0149607 0.0167368 0)
(0.012486 0.0155518 0)
(0.01007 0.0142521 0)
(0.00776467 0.0128175 0)
(0.00562244 0.0112066 0)
(0.00370234 0.00936069 0)
(0.0020644 0.0072102 0)
(0.000846275 0.00468379 0)
(9.68995e-05 0.00172051 0)
(9.81041e-05 -0.00229244 0)
(0.000853756 -0.00603268 0)
(0.00203368 -0.00887656 0)
(0.00351551 -0.0107866 0)
(0.00506784 -0.0117754 0)
(0.00654133 -0.0119049 0)
(0.00780473 -0.0112801 0)
(0.00875851 -0.0100355 0)
(0.00933361 -0.00831987 0)
(0.00948704 -0.0062802 0)
(0.00919531 -0.00404909 0)
(0.00844733 -0.00173477 0)
(0.00723716 0.000585048 0)
(0.00555742 0.00286613 0)
(0.00339384 0.00509758 0)
(0.000721363 0.00729895 0)
(-0.00249795 0.00951491 0)
(-0.00631494 0.0118077 0)
(-0.0107913 0.014248 0)
(-0.0159959 0.0169057 0)
(-0.0219993 0.0198412 0)
(-0.0288681 0.0230982 0)
(-0.036659 0.0267001 0)
(-0.0454136 0.0306481 0)
(-0.0551534 0.0349217 0)
(-0.0658759 0.0394802 0)
(-0.0775514 0.0442646 0)
(-0.0901207 0.0491997 0)
(-0.103494 0.0541965 0)
(-0.117554 0.0591553 0)
(-0.132157 0.0639696 0)
(-0.147142 0.0685316 0)
(-0.162338 0.072738 0)
(-0.177572 0.076495 0)
(-0.192682 0.0797239 0)
(-0.20752 0.0823637 0)
(-0.221958 0.0843729 0)
(-0.235894 0.085729 0)
(-0.249249 0.0864272 0)
(-0.261968 0.0864773 0)
(-0.274012 0.0859007 0)
(-0.285361 0.0847272 0)
(-0.296006 0.082992 0)
(-0.305947 0.0807333 0)
(-0.315192 0.0779905 0)
(-0.323749 0.0748025 0)
(-0.331631 0.0712067 0)
(-0.338853 0.0672386 0)
(-0.345429 0.0629311 0)
(-0.351373 0.0583147 0)
(-0.3567 0.0534171 0)
(-0.361424 0.0482631 0)
(-0.365557 0.0428752 0)
(-0.369111 0.0372735 0)
(-0.372098 0.031476 0)
(-0.374527 0.0254987 0)
(-0.376404 0.0193564 0)
(-0.377737 0.0130624 0)
(-0.378526 0.00662997 0)