/*--------------------------------*- C++ -*----------------------------------*\
| =========                 |                                                 |
| \\      /  F ield         | OpenFOAM: The Open Source CFD Toolbox           |
|  \\    /   O peration     | Version:  2406                                  |
|   \\  /    A nd           | Website:  www.openfoam.com                      |
|    \\/     M anipulation  |                                                 |
\*---------------------------------------------------------------------------*/
FoamFile
{
    version     2.0;
    format      ascii;
    arch        "LSB;label=32;scalar=64";
    class       volScalarField;
    location    "39.4";
    object      p;
}
// * * * * * * * * * * * * * * * * * * * * * * * * * * * * * * * * * * * * * //

dimensions      [0 2 -2 0 0 0 0];

internalField   nonuniform List<scalar> 
3600
(
-2.9596e-09
1.58394e-05
1.87177e-05
-8.03717e-06
-6.34615e-05
-0.000140989
-0.00023235
-0.000331679
-0.000437749
-0.000553519
-0.000685603
-0.000841886
-0.00103004
-0.0012566
-0.00152674
-0.00184413
-0.00221069
-0.00262574
-0.00308471
-0.00357762
-0.00408758
-0.00458988
-0.00505193
-0.00543469
-0.00569585
-0.00579433
-0.00569514
-0.00537358
-0.00481808
-0.00403417
-0.00304759
-0.00190943
-0.000689138
0.000521787
0.00161498
0.0024756
0.00299607
0.00309266
0.00272186
0.00189223
0.000667312
-0.000842758
-0.00250019
-0.00416417
-0.00571426
-0.00706893
-0.00817839
-0.00903423
-0.0096572
-0.0100846
-0.010359
-0.0105218
-0.0106084
-0.0106462
-0.0106546
-0.0106462
-0.010628
-0.010604
-0.0105765
-0.0105554
-1.49473e-05
1.48468e-06
4.98911e-06
-2.25638e-05
-7.70844e-05
-0.000151252
-0.000236939
-0.000328714
-0.000425848
-0.000532125
-0.000654016
-0.000799198
-0.000974954
-0.00118747
-0.00144186
-0.00174238
-0.00209208
-0.00249186
-0.00293907
-0.00342574
-0.0039378
-0.00445451
-0.00494716
-0.00537832
-0.00570349
-0.00587597
-0.00585278
-0.00560084
-0.00510462
-0.00436949
-0.00341951
-0.00229732
-0.00107775
0.000142498
0.00125224
0.00213384
0.00267606
0.00279104
0.00243139
0.00160304
0.000369512
-0.00115563
-0.00282757
-0.00449666
-0.00603345
-0.00734596
-0.00839616
-0.0091854
-0.00974296
-0.0101139
-0.010347
-0.0104847
-0.0105595
-0.0105948
-0.0106063
-0.010604
-0.0105934
-0.0105768
-0.0105531
-0.0105328
-2.2273e-05
-5.48267e-06
-3.10455e-06
-3.49649e-05
-9.19781e-05
-0.00016452
-0.00024376
-0.000324813
-0.000408193
-0.000499048
-0.000604886
-0.000733761
-0.000893075
-0.00108946
-0.00132943
-0.00161982
-0.0019675
-0.00237842
-0.00285565
-0.00339638
-0.00398793
-0.00460533
-0.00521186
-0.00576195
-0.00620516
-0.00649105
-0.00657429
-0.00641978
-0.00600801
-0.00534003
-0.00444171
-0.00336036
-0.00216228
-0.00093954
0.00019647
0.00112562
0.00173239
0.00192234
0.00163953
0.000881217
-0.00029549
-0.00177876
-0.00342007
-0.00506147
-0.00656401
-0.00783063
-0.00881804
-0.00953082
-0.0100046
-0.0102933
-0.0104538
-0.0105341
-0.0105686
-0.0105794
-0.0105789
-0.0105732
-0.0105649
-0.0105533
-0.0105314
-0.0105107
-7.35958e-06
9.42159e-06
8.05513e-06
-3.27484e-05
-9.77853e-05
-0.000173139
-0.000248035
-0.000318025
-0.000385649
-0.000458665
-0.000547166
-0.00066146
-0.000811421
-0.00100732
-0.00126116
-0.00158727
-0.00200097
-0.00251479
-0.00313287
-0.00384656
-0.00463269
-0.00545408
-0.00626243
-0.00700287
-0.00761919
-0.00805897
-0.00827805
-0.00824347
-0.00793595
-0.0073546
-0.00652149
-0.00548154
-0.00429817
-0.00305592
-0.00185938
-0.000825624
-7.22032e-05
0.000298341
0.000216099
-0.000339668
-0.0013301
-0.00265744
-0.00417955
-0.00573603
-0.0071792
-0.00840073
-0.0093449
-0.0100048
-0.0104143
-0.0106303
-0.0107146
-0.010722
-0.0106939
-0.010656
-0.0106214
-0.0105945
-0.0105749
-0.0105584
-0.0105328
-0.0105095
3.48818e-05
4.7743e-05
3.67352e-05
-1.84523e-05
-9.56762e-05
-0.000176222
-0.000247764
-0.000307153
-0.000360263
-0.000418908
-0.000497632
-0.000611981
-0.000778816
-0.00101788
-0.0013525
-0.00180713
-0.00240171
-0.00314489
-0.00402926
-0.00503012
-0.00610756
-0.00721062
-0.00828193
-0.00926203
-0.0100936
-0.0107255
-0.0111168
-0.0112373
-0.0110678
-0.0106059
-0.00987439
-0.00890709
-0.00775756
-0.00650007
-0.00522736
-0.00404678
-0.0030719
-0.00241029
-0.00214742
-0.00232937
-0.00294855
-0.00393786
-0.0051781
-0.00651929
-0.00781113
-0.0089327
-0.00981118
-0.0104248
-0.0107951
-0.0109698
-0.011007
-0.0109626
-0.010882
-0.010796
-0.0107217
-0.0106653
-0.010626
-0.0105983
-0.0105669
-0.0105414
0.000112367
0.000116397
8.94187e-05
1.50438e-05
-7.73263e-05
-0.000164875
-0.000235262
-0.000288525
-0.000335519
-0.000394311
-0.000487328
-0.000640597
-0.000884402
-0.0012529
-0.00178007
-0.0024923
-0.00340074
-0.00449687
-0.00575258
-0.00712361
-0.00855457
-0.00998428
-0.0113504
-0.0125931
-0.0136579
-0.0144984
-0.0150784
-0.0153718
-0.0153626
-0.0150489
-0.0144501
-0.0135901
-0.01251
-0.0112689
-0.00994183
-0.00861851
-0.00739902
-0.00638642
-0.00567508
-0.00533556
-0.00539879
-0.00584389
-0.00659579
-0.00753621
-0.00852775
-0.00944383
-0.0101938
-0.0107342
-0.0110657
-0.0112192
-0.0112403
-0.0111771
-0.0110723
-0.0109581
-0.0108551
-0.0107732
-0.0107141
-0.0106737
-0.0106368
-0.0106106
0.000235114
0.000225241
0.00017643
7.93594e-05
-3.01541e-05
-0.000127291
-0.000202238
-0.000260768
-0.000321463
-0.000412423
-0.000569357
-0.000834738
-0.00125541
-0.00187622
-0.00273053
-0.0038315
-0.00516816
-0.00670698
-0.00839701
-0.0101763
-0.0119778
-0.0137348
-0.0153844
-0.0168705
-0.0181457
-0.0191717
-0.0199196
-0.0203707
-0.0205179
-0.0203629
-0.0199104
-0.0191832
-0.0182131
-0.0170416
-0.0157221
-0.01432
-0.012912
-0.0115831
-0.010421
-0.0095071
-0.00890312
-0.00863807
-0.0086975
-0.00902125
-0.00951335
-0.0100632
-0.0105715
-0.0109705
-0.0112315
-0.0113588
-0.0113771
-0.0113194
-0.0112186
-0.0111022
-0.0109908
-0.010897
-0.0108261
-0.010777
-0.0107376
-0.0107124
0.000413917
0.000385636
0.00031032
0.00018851
5.98701e-05
-5.22243e-05
-0.000143898
-0.000230051
-0.000341167
-0.000520686
-0.000822737
-0.00130757
-0.0020324
-0.00303904
-0.00434361
-0.00593253
-0.00776551
-0.0097826
-0.0119124
-0.0140797
-0.0162115
-0.0182412
-0.0201117
-0.0217761
-0.0231983
-0.0243513
-0.0252164
-0.0257839
-0.0260546
-0.0260333
-0.0257228
-0.0251402
-0.0243093
-0.0232578
-0.0220197
-0.0206359
-0.0191551
-0.0176341
-0.0161373
-0.0147344
-0.0134948
-0.0124793
-0.011729
-0.0112554
-0.0110344
-0.0110093
-0.011103
-0.0112382
-0.0113551
-0.0114204
-0.0114261
-0.0113808
-0.0113006
-0.0112032
-0.0111043
-0.0110161
-0.010946
-0.0108963
-0.010859
-0.010837
0.000658389
0.000607787
0.000503101
0.000355881
0.000204234
6.62154e-05
-6.43829e-05
-0.000216029
-0.0004362
-0.000788098
-0.00134436
-0.00217518
-0.00333259
-0.00483744
-0.00667441
-0.008796
-0.0111316
-0.0135982
-0.0161101
-0.0185865
-0.0209567
-0.0231629
-0.0251597
-0.0269145
-0.0284049
-0.0296164
-0.0305411
-0.0311776
-0.0315308
-0.031608
-0.0314157
-0.0309675
-0.0302802
-0.0293726
-0.028265
-0.0269798
-0.025542
-0.0239799
-0.0223273
-0.0206253
-0.0189243
-0.0172837
-0.0157693
-0.0144462
-0.0133677
-0.0125621
-0.0120226
-0.0117062
-0.0115457
-0.0114706
-0.0114259
-0.0113804
-0.0113234
-0.0112561
-0.0111849
-0.0111177
-0.0110617
-0.0110208
-0.010991
-0.0109742
0.000973143
0.000897597
0.000762549
0.000588863
0.000406203
0.000222681
1.73572e-05
-0.000256565
-0.0006674
-0.00129757
-0.00222963
-0.00352716
-0.00521795
-0.00728679
-0.00967953
-0.0123143
-0.015095
-0.0179239
-0.0207117
-0.0233829
-0.025879
-0.0281573
-0.0301894
-0.0319576
-0.0334525
-0.0346705
-0.0356121
-0.0362813
-0.0366845
-0.0368301
-0.0367283
-0.0363903
-0.0358289
-0.0350575
-0.0340889
-0.032935
-0.031606
-0.0301105
-0.0284569
-0.0266564
-0.0247272
-0.0227007
-0.0206282
-0.0185842
-0.0166651
-0.0149764
-0.0136097
-0.0126131
-0.0119717
-0.0116129
-0.0114369
-0.0113545
-0.0113083
-0.0112715
-0.0112354
-0.0111998
-0.0111685
-0.0111448
-0.0111267
-0.0111163
0.00135065
0.00125356
0.00108734
0.000882844
0.000654468
0.000394667
6.318e-05
-0.000408397
-0.00110851
-0.00213031
-0.00354956
-0.00540339
-0.00767936
-0.0103184
-0.0132278
-0.0162979
-0.0194181
-0.0224891
-0.0254307
-0.0281832
-0.0307069
-0.0329777
-0.0349832
-0.0367189
-0.0381849
-0.0393846
-0.0403228
-0.0410062
-0.0414416
-0.0416371
-0.0416031
-0.0413498
-0.0408874
-0.0402266
-0.0393767
-0.0383447
-0.0371345
-0.0357451
-0.0341714
-0.0324046
-0.0304362
-0.0282642
-0.0259036
-0.0233986
-0.0208346
-0.0183428
-0.0160872
-0.0142279
-0.0128672
-0.0120071
-0.0115509
-0.0113538
-0.0112862
-0.0112695
-0.0112683
-0.0112691
-0.0112689
-0.0112681
-0.0112644
-0.0112608
0.00177303
0.00165758
0.00145972
0.00121562
0.000917987
0.00053888
1.54572e-05
-0.000741707
-0.00183353
-0.00334788
-0.00533368
-0.00778477
-0.0106401
-0.0137976
-0.0171339
-0.0205247
-0.0238599
-0.0270528
-0.0300426
-0.0327915
-0.0352798
-0.0375001
-0.0394525
-0.0411409
-0.0425711
-0.0437491
-0.0446815
-0.0453748
-0.0458354
-0.0460707
-0.0460893
-0.0459
-0.0455117
-0.0449332
-0.0441721
-0.0432339
-0.0421205
-0.0408287
-0.0393491
-0.0376657
-0.0357564
-0.0335973
-0.0311702
-0.0284762
-0.0255544
-0.0225026
-0.0194893
-0.0167404
-0.014486
-0.0128763
-0.011913
-0.0114541
-0.0112969
-0.0112753
-0.0113013
-0.0113378
-0.0113708
-0.0113955
-0.0114071
-0.0114103
0.00220428
0.0020742
0.00184212
0.0015436
0.00114409
0.000592262
-0.000197427
-0.00132912
-0.00290183
-0.00497861
-0.007564
-0.0105993
-0.0139754
-0.0175562
-0.0212023
-0.0247909
-0.0282272
-0.0314472
-0.0344143
-0.0371122
-0.0395382
-0.0416968
-0.0435956
-0.0452425
-0.0466451
-0.0478098
-0.0487424
-0.0494485
-0.0499335
-0.0502032
-0.0502646
-0.0501247
-0.0497911
-0.0492712
-0.0485718
-0.0476977
-0.046651
-0.0454292
-0.044024
-0.0424199
-0.0405928
-0.0385114
-0.03614
-0.033448
-0.0304254
-0.0271089
-0.0236108
-0.0201405
-0.0169896
-0.0144574
-0.0127284
-0.0117787
-0.0113974
-0.0113184
-0.0113539
-0.0114206
-0.0114853
-0.0115353
-0.011562
-0.0115718
0.00259094
0.00244898
0.00217672
0.00180271
0.00126175
0.000478704
-0.000650359
-0.00223228
-0.00434619
-0.00701243
-0.0101806
-0.0137392
-0.0175403
-0.0214284
-0.0252652
-0.0289447
-0.0323969
-0.0355842
-0.0384931
-0.0411246
-0.0434875
-0.0455928
-0.0474509
-0.0490709
-0.0504597
-0.0516225
-0.0525639
-0.0532877
-0.053798
-0.0540994
-0.054197
-0.0540965
-0.053804
-0.0533258
-0.0526677
-0.0518342
-0.0508278
-0.0496477
-0.0482885
-0.0467383
-0.0449775
-0.0429769
-0.0406983
-0.0380975
-0.0351337
-0.0317888
-0.0280997
-0.0241982
-0.0203416
-0.0168931
-0.0142169
-0.0125084
-0.0116824
-0.0114358
-0.0114459
-0.0115314
-0.0116243
-0.0116979
-0.0117393
-0.0117561
0.00286521
0.00271169
0.00238971
0.00191479
0.00119037
0.000120431
-0.00140845
-0.00349033
-0.00616714
-0.00940457
-0.0130954
-0.0170833
-0.021196
-0.0252765
-0.0292025
-0.0328943
-0.0363102
-0.0394372
-0.0422794
-0.0448495
-0.0471621
-0.0492304
-0.0510651
-0.0526737
-0.0540618
-0.055233
-0.0561901
-0.0569356
-0.0574723
-0.0578035
-0.0579328
-0.0578648
-0.0576044
-0.0571566
-0.0565262
-0.0557175
-0.0547331
-0.0535735
-0.052236
-0.050713
-0.0489908
-0.0470473
-0.0448502
-0.0423562
-0.0395138
-0.0362737
-0.0326117
-0.0285692
-0.024306
-0.0201396
-0.0165135
-0.0138449
-0.0123008
-0.011689
-0.0115986
-0.0116823
-0.0117977
-0.011894
-0.0119504
-0.0119753
0.00295174
0.0027842
0.0024004
0.00179826
0.000852028
-0.000548935
-0.00251549
-0.00511328
-0.00833424
-0.0120853
-0.0162084
-0.0205161
-0.024829
-0.0290035
-0.0329437
-0.0365994
-0.0399549
-0.0430162
-0.0457992
-0.0483222
-0.0506016
-0.0526502
-0.0544767
-0.056087
-0.0574845
-0.0586713
-0.0596488
-0.0604183
-0.0609814
-0.0613404
-0.0614979
-0.0614575
-0.0612228
-0.060798
-0.0601872
-0.0593937
-0.0584204
-0.0572683
-0.0559366
-0.0544212
-0.0527137
-0.0507995
-0.0486552
-0.0462462
-0.0435249
-0.0404328
-0.0369124
-0.0329354
-0.0285547
-0.0239726
-0.0195857
-0.0159249
-0.0134331
-0.0121879
-0.0118424
-0.0118859
-0.0120134
-0.0121331
-0.0122064
-0.0122419
0.00277749
0.00259122
0.0021331
0.00138077
0.000184221
-0.00157318
-0.00398688
-0.00708149
-0.0107927
-0.014972
-0.0194224
-0.0239413
-0.0283576
-0.0325518
-0.0364582
-0.0400539
-0.0433441
-0.046347
-0.0490848
-0.0515772
-0.0538395
-0.0558826
-0.0577128
-0.0593339
-0.0607476
-0.0619545
-0.0629549
-0.0637491
-0.0643378
-0.0647226
-0.0649052
-0.0648882
-0.0646747
-0.064268
-0.0636712
-0.0628875
-0.0619193
-0.060768
-0.0594338
-0.0579148
-0.0562065
-0.0543003
-0.0521813
-0.0498256
-0.0471962
-0.0442407
-0.0408926
-0.0370859
-0.0327917
-0.028086
-0.0232363
-0.0187431
-0.0152226
-0.013087
-0.0122434
-0.0121569
-0.0122796
-0.0124227
-0.0125178
-0.0125677
0.00228244
0.00207176
0.00152893
0.000610759
-0.000850119
-0.00296684
-0.00580819
-0.00935016
-0.0134726
-0.0179808
-0.022653
-0.027287
-0.0317311
-0.0358949
-0.0397415
-0.0432705
-0.046501
-0.0494581
-0.0521654
-0.0546416
-0.0568997
-0.0589476
-0.0607896
-0.0624275
-0.0638613
-0.0650907
-0.066115
-0.0669337
-0.0675469
-0.0679552
-0.06816
-0.0681632
-0.0679672
-0.0675746
-0.0669882
-0.0662107
-0.0652443
-0.0640906
-0.0627503
-0.0612228
-0.059506
-0.0575954
-0.0554826
-0.053153
-0.0505816
-0.0477285
-0.0445344
-0.0409229
-0.0368197
-0.0322016
-0.0271878
-0.0221449
-0.0177026
-0.0145335
-0.0129224
-0.0125199
-0.0126129
-0.0127703
-0.0128953
-0.012964
0.00142893
0.00118854
0.00055493
-0.000534774
-0.00225746
-0.00471402
-0.00793866
-0.0118567
-0.0162982
-0.0210343
-0.0258332
-0.0305045
-0.0349226
-0.0390264
-0.042803
-0.0462683
-0.0494492
-0.0523732
-0.0550628
-0.057534
-0.0597969
-0.0618567
-0.0637156
-0.0653737
-0.06683
-0.068083
-0.0691314
-0.069974
-0.0706102
-0.0710402
-0.0712646
-0.071285
-0.0711031
-0.0707214
-0.0701423
-0.0693683
-0.0684016
-0.0672439
-0.0658963
-0.0643589
-0.0626311
-0.0607107
-0.0585937
-0.0562723
-0.0537316
-0.0509452
-0.0478677
-0.0444304
-0.0405444
-0.0361282
-0.0311781
-0.0258898
-0.020774
-0.0166015
-0.0140199
-0.013048
-0.0130298
-0.0131906
-0.0133492
-0.0134438
0.000207387
-6.64805e-05
-0.000791335
-0.00204753
-0.00401376
-0.00677194
-0.0103179
-0.0145292
-0.0191954
-0.0240665
-0.028913
-0.033564
-0.0379218
-0.0419508
-0.0456569
-0.0490657
-0.0522078
-0.0551098
-0.0577914
-0.0602655
-0.062539
-0.0646151
-0.066494
-0.0681744
-0.0696544
-0.0709317
-0.0720041
-0.0728699
-0.0735278
-0.0739776
-0.0742194
-0.0742542
-0.0740836
-0.0737098
-0.0731352
-0.0723622
-0.0713932
-0.0702302
-0.0688747
-0.0673274
-0.0655884
-0.0636573
-0.0615322
-0.0592097
-0.0566823
-0.0539346
-0.0509366
-0.0476347
-0.0439465
-0.039768
-0.0350165
-0.0297339
-0.0242454
-0.0192556
-0.0156409
-0.0138652
-0.0135407
-0.0137103
-0.0138922
-0.014023
-0.00136235
-0.00167129
-0.00248206
-0.00389001
-0.00606891
-0.00907764
-0.0128737
-0.0172934
-0.0220966
-0.0270242
-0.0318573
-0.0364489
-0.0407268
-0.0446766
-0.0483165
-0.0516775
-0.0547902
-0.0576786
-0.060359
-0.0628411
-0.0651291
-0.067224
-0.0691248
-0.0708288
-0.0723333
-0.0736351
-0.0747314
-0.0756197
-0.0762984
-0.0767664
-0.0770235
-0.0770704
-0.0769085
-0.07654
-0.0759671
-0.0751926
-0.0742193
-0.0730495
-0.0716853
-0.070128
-0.0683786
-0.0664374
-0.0643039
-0.0619772
-0.0594543
-0.0567278
-0.0537802
-0.0505751
-0.0470466
-0.043093
-0.0385949
-0.0334847
-0.0278988
-0.0223668
-0.0178111
-0.0150768
-0.014207
-0.014355
-0.014544
-0.0147171
-0.00323398
-0.00357722
-0.00446357
-0.00600127
-0.00835388
-0.0115558
-0.0155296
-0.0200785
-0.0249434
-0.0298654
-0.0346422
-0.0391501
-0.0433397
-0.0472116
-0.050792
-0.0541132
-0.0572039
-0.0600848
-0.0627685
-0.0652618
-0.0675665
-0.069682
-0.0716057
-0.0733343
-0.0748638
-0.0761904
-0.0773104
-0.0782208
-0.0789192
-0.079404
-0.0796747
-0.0797317
-0.0795763
-0.0792104
-0.0786367
-0.0778584
-0.0768785
-0.0757001
-0.074326
-0.0727584
-0.0709989
-0.0690485
-0.0669078
-0.064577
-0.0620557
-0.0593413
-0.0564257
-0.0532872
-0.0498789
-0.0461155
-0.0418719
-0.0370197
-0.0315432
-0.0257549
-0.0204658
-0.0167489
-0.0151517
-0.0151189
-0.0153342
-0.0155416
-0.00534074
-0.00571533
-0.00666342
-0.00830463
-0.0107886
-0.0141263
-0.0182104
-0.02282
-0.0276865
-0.032558
-0.0372506
-0.0416626
-0.0457624
-0.0495613
-0.0530891
-0.0563774
-0.0594518
-0.0623292
-0.0650192
-0.0675255
-0.0698483
-0.0719854
-0.0739329
-0.0756866
-0.0772415
-0.078593
-0.0797367
-0.0806686
-0.0813859
-0.0818865
-0.0821694
-0.0822347
-0.0820835
-0.0817182
-0.0811414
-0.0803569
-0.0793682
-0.0781793
-0.0767939
-0.0752149
-0.073445
-0.071486
-0.0693392
-0.0670057
-0.0644862
-0.0617809
-0.0588876
-0.0557956
-0.0524754
-0.0488631
-0.0448475
-0.0402782
-0.035038
-0.0292367
-0.0234841
-0.0189049
-0.0164676
-0.0160111
-0.0162951
-0.0165181
-0.00760307
-0.00800425
-0.00899828
-0.0107155
-0.0132895
-0.0167102
-0.0208466
-0.0254621
-0.0302857
-0.0350767
-0.0396698
-0.0439822
-0.0479955
-0.0517277
-0.0552095
-0.0584706
-0.0615327
-0.0644095
-0.0671074
-0.069628
-0.0719697
-0.0741289
-0.0761008
-0.07788
-0.0794606
-0.0808371
-0.0820042
-0.0829573
-0.0836928
-0.0842081
-0.0845018
-0.0845739
-0.0844254
-0.0840585
-0.0834767
-0.0826837
-0.0816843
-0.080483
-0.0790844
-0.0774927
-0.0757116
-0.0737439
-0.0715917
-0.0692567
-0.0667405
-0.0640446
-0.06117
-0.0581134
-0.0548591
-0.0513644
-0.0475406
-0.0432416
-0.038297
-0.032662
-0.0267179
-0.0214776
-0.0181593
-0.0171134
-0.017454
-0.0176684
-0.00993625
-0.010358
-0.0113815
-0.0131485
-0.0157755
-0.0192343
-0.0233765
-0.027957
-0.0327079
-0.0374014
-0.0418895
-0.0461043
-0.0500372
-0.0537095
-0.0571515
-0.0603898
-0.0634427
-0.0663207
-0.0690276
-0.0715632
-0.0739243
-0.076106
-0.0781025
-0.0799073
-0.0815137
-0.0829151
-0.0841054
-0.0850792
-0.0858323
-0.0863614
-0.0866649
-0.0867424
-0.0865949
-0.086225
-0.0856362
-0.0848331
-0.0838209
-0.0826053
-0.0811919
-0.079586
-0.0777925
-0.0758154
-0.0736578
-0.0713222
-0.0688107
-0.0661256
-0.0632696
-0.0602438
-0.0570424
-0.0536406
-0.0499738
-0.0459149
-0.0412802
-0.0359256
-0.0300125
-0.0243327
-0.0202014
-0.0185161
-0.0187787
-0.0190013
-0.0122574
-0.0126928
-0.013729
-0.0155228
-0.0181724
-0.0216338
-0.0257473
-0.0302653
-0.0349261
-0.0395154
-0.0438998
-0.0480232
-0.0518832
-0.0555027
-0.0589104
-0.0621296
-0.0651757
-0.0680562
-0.0707728
-0.0733237
-0.0757043
-0.0779086
-0.0799298
-0.0817602
-0.0833922
-0.0848183
-0.0860314
-0.0870254
-0.0877953
-0.0883375
-0.0886497
-0.0887315
-0.0885838
-0.0882094
-0.0876122
-0.0867973
-0.0857708
-0.0845392
-0.0831093
-0.0814877
-0.0796805
-0.077693
-0.0755294
-0.0731933
-0.0706875
-0.0680148
-0.0651787
-0.0621829
-0.0590281
-0.0557032
-0.052165
-0.0483131
-0.0439767
-0.0389583
-0.0332338
-0.0273435
-0.0225781
-0.0202463
-0.020215
-0.0205063
-0.0144906
-0.0149309
-0.015964
-0.0177671
-0.020416
-0.0238536
-0.0279151
-0.0323545
-0.0369183
-0.0414043
-0.0456913
-0.0497319
-0.0535276
-0.0571013
-0.0604795
-0.063683
-0.0667241
-0.069608
-0.0723348
-0.074901
-0.0773011
-0.0795279
-0.0815734
-0.0834291
-0.0850864
-0.0865367
-0.0877721
-0.0887857
-0.0895718
-0.0901261
-0.0904462
-0.0905313
-0.0903824
-0.0900023
-0.0893955
-0.0885676
-0.0875253
-0.0862764
-0.0848286
-0.0831898
-0.0813674
-0.0793682
-0.0771978
-0.0748607
-0.0723608
-0.0697016
-0.066887
-0.0639221
-0.060812
-0.0575545
-0.0541248
-0.0504509
-0.0463878
-0.0417174
-0.036286
-0.0304065
-0.0252362
-0.0222751
-0.0217864
-0.0221853
-0.0165723
-0.0170039
-0.018022
-0.0198223
-0.022453
-0.0258487
-0.0298445
-0.0341987
-0.0386661
-0.0430553
-0.0472547
-0.0512228
-0.0549629
-0.0584976
-0.0618512
-0.0650417
-0.0680793
-0.0709674
-0.0737045
-0.076286
-0.0787052
-0.080954
-0.0830234
-0.0849038
-0.0865857
-0.0880595
-0.0893166
-0.090349
-0.0911505
-0.0917163
-0.0920434
-0.092131
-0.09198
-0.0915934
-0.0909759
-0.0901339
-0.0890749
-0.0878074
-0.0863405
-0.0846832
-0.0828443
-0.0808321
-0.0786535
-0.0763145
-0.0738201
-0.0711746
-0.0683825
-0.06545
-0.0623843
-0.0591898
-0.055856
-0.0523369
-0.0485168
-0.0441822
-0.0391083
-0.0334226
-0.0280644
-0.0245414
-0.023561
-0.0240741
-0.0184487
-0.0188594
-0.0198548
-0.021642
-0.0242407
-0.0275836
-0.031508
-0.0357774
-0.0401546
-0.0444574
-0.0485809
-0.0524874
-0.0561812
-0.0596834
-0.0630166
-0.0661968
-0.0692323
-0.0721252
-0.0748726
-0.077469
-0.0799067
-0.0821768
-0.0842692
-0.0861735
-0.0878791
-0.0893756
-0.0906534
-0.0917039
-0.09252
-0.0930964
-0.0934299
-0.0935192
-0.0933654
-0.0929715
-0.0923428
-0.0914859
-0.0904093
-0.0891224
-0.0876353
-0.0859583
-0.0841017
-0.082075
-0.0798868
-0.0775446
-0.0750546
-0.0724221
-0.0696528
-0.0667533
-0.0637325
-0.060599
-0.0573536
-0.0539714
-0.0503655
-0.0463448
-0.0416607
-0.0362947
-0.0309302
-0.0269804
-0.0255918
-0.0261632
-0.0200778
-0.0204593
-0.0214269
-0.023189
-0.0257468
-0.0290325
-0.0328853
-0.0370749
-0.0413718
-0.0456006
-0.0496612
-0.0535176
-0.0571738
-0.0606501
-0.0639671
-0.0671394
-0.070174
-0.0730719
-0.0758294
-0.0784401
-0.0808956
-0.0831859
-0.0853003
-0.0872274
-0.0889556
-0.0904737
-0.0917712
-0.0928388
-0.0936687
-0.0942551
-0.0945942
-0.0946847
-0.0945275
-0.0941259
-0.0934853
-0.0926131
-0.0915183
-0.0902113
-0.0887031
-0.0870054
-0.0851298
-0.0830872
-0.0808878
-0.0785405
-0.0760532
-0.0734324
-0.0706848
-0.067818
-0.064842
-0.0617686
-0.0586068
-0.0553479
-0.0519318
-0.0482001
-0.0439101
-0.0389362
-0.0337192
-0.0295305
-0.0278458
-0.0283935
-0.0214341
-0.0217791
-0.0227075
-0.0244357
-0.0269507
-0.0301785
-0.0339624
-0.0380799
-0.0423082
-0.0464768
-0.0504877
-0.0543053
-0.0579329
-0.0613892
-0.0646939
-0.0678606
-0.0708954
-0.0737985
-0.0765657
-0.0791899
-0.081662
-0.0839714
-0.0861065
-0.0880549
-0.0898044
-0.0913429
-0.092659
-0.0937426
-0.0945855
-0.0951811
-0.0955253
-0.0956166
-0.0954557
-0.095046
-0.0943932
-0.0935053
-0.0923919
-0.0910642
-0.0895343
-0.087815
-0.0859191
-0.0838591
-0.0816466
-0.0792923
-0.0768053
-0.0741938
-0.0714658
-0.0686301
-0.0656976
-0.0626828
-0.0596005
-0.0564544
-0.0532083
-0.0497397
-0.0458274
-0.0412787
-0.0363324
-0.032092
-0.0302153
-0.0306633
-0.0225042
-0.0228036
-0.0236818
-0.0253711
-0.0278411
-0.0310118
-0.0347313
-0.0387854
-0.0429574
-0.0470795
-0.0510537
-0.0548435
-0.0584507
-0.061893
-0.0651891
-0.0683522
-0.0713879
-0.0742963
-0.0770726
-0.0797093
-0.0821968
-0.0845238
-0.086678
-0.0886463
-0.0904157
-0.0919731
-0.0933066
-0.0944053
-0.0952603
-0.0958644
-0.0962133
-0.0963049
-0.0961401
-0.0957222
-0.0950572
-0.0941534
-0.0930212
-0.0916724
-0.0901202
-0.0883783
-0.0864609
-0.0843818
-0.0821542
-0.0797901
-0.0773005
-0.0746952
-0.0719835
-0.0691756
-0.0662839
-0.0633247
-0.0603175
-0.0572754
-0.0541826
-0.0509503
-0.0473879
-0.0432694
-0.0386792
-0.0345378
-0.0325565
-0.0328579
-0.0232853
-0.0235304
-0.0243495
-0.0259943
-0.0284161
-0.0315298
-0.0351897
-0.0391891
-0.0433162
-0.047404
-0.0513535
-0.0551258
-0.0587205
-0.0621543
-0.0654454
-0.0686066
-0.071644
-0.0745574
-0.0773421
-0.0799902
-0.0824916
-0.0848346
-0.0870063
-0.0889929
-0.0907805
-0.0923556
-0.0937053
-0.0948181
-0.0956843
-0.0962964
-0.0966496
-0.0967414
-0.0965725
-0.0961464
-0.0954692
-0.0945496
-0.0933985
-0.0920283
-0.0904532
-0.0886878
-0.0867476
-0.0846475
-0.0824022
-0.0800254
-0.0775296
-0.0749263
-0.0722264
-0.0694416
-0.066586
-0.0636778
-0.0607398
-0.0577929
-0.0548382
-0.051816
-0.0485699
-0.0448666
-0.0406802
-0.0367447
-0.0347319
-0.0348731
-0.0237866
-0.0239684
-0.0247207
-0.0263131
-0.028682
-0.0317376
-0.0353408
-0.0392923
-0.0433836
-0.047448
-0.0513833
-0.0551472
-0.0587368
-0.0621671
-0.0654562
-0.0686173
-0.0716569
-0.0745749
-0.0773671
-0.0800253
-0.0825393
-0.0848967
-0.0870842
-0.0890875
-0.0908919
-0.0924832
-0.093848
-0.0949739
-0.0958507
-0.0964704
-0.0968276
-0.0969196
-0.0967468
-0.0963127
-0.0956235
-0.0946882
-0.0935181
-0.0921263
-0.0905276
-0.0887378
-0.0867731
-0.0846499
-0.0823841
-0.079991
-0.0774846
-0.0748781
-0.0721842
-0.0694162
-0.0665902
-0.063726
-0.0608499
-0.0579885
-0.0551565
-0.0523191
-0.0493538
-0.046037
-0.0422702
-0.0386096
-0.0366311
-0.0366236
-0.0240259
-0.0241383
-0.0248161
-0.0263453
-0.0286535
-0.0316474
-0.0351936
-0.0391001
-0.0431617
-0.0472105
-0.0511403
-0.0549038
-0.0584946
-0.0619262
-0.0652162
-0.0683787
-0.0714207
-0.0743431
-0.0771418
-0.0798089
-0.0823339
-0.0847043
-0.0869061
-0.0889246
-0.0907445
-0.0923509
-0.0937297
-0.0948681
-0.0957551
-0.0963821
-0.0967432
-0.0968355
-0.0966591
-0.0962174
-0.0955165
-0.0945658
-0.0933767
-0.091963
-0.0903402
-0.0885246
-0.0865337
-0.0843848
-0.0820952
-0.0796814
-0.0771592
-0.0745433
-0.0718484
-0.0690894
-0.0662844
-0.0634554
-0.0606315
-0.0578442
-0.0551193
-0.0524422
-0.0497225
-0.0467555
-0.0434005
-0.0400555
-0.0381719
-0.0380425
-0.0240289
-0.0240709
-0.0246666
-0.0261177
-0.0283532
-0.0312777
-0.0347622
-0.038622
-0.0426556
-0.0466934
-0.0506237
-0.054393
-0.0579904
-0.0614272
-0.0647208
-0.0678859
-0.0709308
-0.0738572
-0.0766617
-0.0793366
-0.0818714
-0.0842534
-0.0864683
-0.0885008
-0.0903352
-0.0919559
-0.0933481
-0.0944985
-0.0953954
-0.0960297
-0.0963951
-0.0964881
-0.0963085
-0.0958597
-0.0951477
-0.0941818
-0.0929738
-0.091538
-0.0898901
-0.0880474
-0.0860281
-0.0838505
-0.0815331
-0.0790938
-0.0765496
-0.0739171
-0.0712126
-0.068453
-0.0656586
-0.0628535
-0.0600701
-0.0573438
-0.0547096
-0.0521691
-0.0496608
-0.0470033
-0.0440382
-0.0410298
-0.0392938
-0.0390748
-0.0238284
-0.0238045
-0.0243104
-0.025665
-0.0278108
-0.030653
-0.0340659
-0.0378719
-0.041874
-0.0459007
-0.0498341
-0.0536131
-0.0572212
-0.0606665
-0.0639661
-0.0671351
-0.0701833
-0.0731136
-0.0759233
-0.0786052
-0.0811491
-0.0835418
-0.085769
-0.0878149
-0.0896631
-0.0912977
-0.0927032
-0.0938656
-0.0947726
-0.0954147
-0.0957848
-0.0958791
-0.0956972
-0.0952419
-0.0945193
-0.0935387
-0.0923119
-0.0908535
-0.0891796
-0.0873081
-0.0852579
-0.0830482
-0.0806984
-0.0782276
-0.0756544
-0.0729968
-0.0702729
-0.0675017
-0.0647055
-0.0619111
-0.059154
-0.0564735
-0.0539123
-0.0514851
-0.0491558
-0.0467672
-0.0441636
-0.0414988
-0.0399499
-0.0396721
-0.0234628
-0.0233824
-0.0237915
-0.0250283
-0.0270624
-0.0298038
-0.0331291
-0.0368678
-0.0408286
-0.0448389
-0.0487737
-0.0525634
-0.0561845
-0.059641
-0.0629485
-0.0661229
-0.0691751
-0.0721095
-0.0749243
-0.0776131
-0.0801657
-0.0825691
-0.0848085
-0.0868677
-0.08873
-0.0903787
-0.0917979
-0.0929728
-0.0938908
-0.0945414
-0.0949172
-0.0950139
-0.0948306
-0.0943698
-0.0936374
-0.0926424
-0.0913969
-0.0899154
-0.0882143
-0.0863121
-0.084228
-0.081982
-0.0795946
-0.0770857
-0.0744754
-0.071783
-0.0690285
-0.0662329
-0.0634209
-0.060622
-0.057875
-0.0552223
-0.0527153
-0.0503782
-0.0481963
-0.0460372
-0.0437624
-0.041435
-0.0401006
-0.0397898
-0.0229732
-0.0228498
-0.0231565
-0.0242534
-0.0261498
-0.028766
-0.031981
-0.0356321
-0.039535
-0.043517
-0.0474464
-0.0512442
-0.0548783
-0.0583474
-0.0616646
-0.064846
-0.0679034
-0.0708427
-0.0736634
-0.0763597
-0.0789216
-0.0813364
-0.0835888
-0.0856623
-0.0875397
-0.0892037
-0.0906378
-0.0918266
-0.0927567
-0.0934173
-0.0938003
-0.0939008
-0.0937174
-0.0932523
-0.0925109
-0.0915022
-0.090238
-0.0887327
-0.0870032
-0.0850678
-0.0829464
-0.0806596
-0.0782285
-0.0756741
-0.0730174
-0.0702793
-0.0674817
-0.0646473
-0.0618038
-0.0589834
-0.0562285
-0.0535838
-0.0511113
-0.0488399
-0.0467739
-0.0448056
-0.0428216
-0.0408083
-0.0397077
-0.0393869
-0.0224005
-0.0222494
-0.0224515
-0.0233887
-0.0251188
-0.0275797
-0.0306555
-0.0341918
-0.0380126
-0.0419472
-0.0458581
-0.0496565
-0.0533006
-0.0567821
-0.0601105
-0.0633006
-0.0663653
-0.0693114
-0.0721396
-0.0748451
-0.0774183
-0.0798463
-0.0821138
-0.0842037
-0.0860983
-0.0877798
-0.089231
-0.0904359
-0.0913805
-0.0920532
-0.0924453
-0.0925515
-0.0923698
-0.0919017
-0.0911525
-0.0901306
-0.0888477
-0.087318
-0.0855584
-0.0835873
-0.0814249
-0.079092
-0.0766105
-0.0740021
-0.0712889
-0.068493
-0.0656381
-0.0627491
-0.0598567
-0.0569957
-0.0542124
-0.0515571
-0.0490976
-0.0468651
-0.0448847
-0.0430696
-0.0413324
-0.0395955
-0.0387361
-0.0384235
-0.021782
-0.0216175
-0.021719
-0.0224829
-0.0240176
-0.0262889
-0.0291907
-0.032578
-0.0362848
-0.0401446
-0.0440164
-0.0478022
-0.0514494
-0.0549409
-0.058281
-0.0614822
-0.0645569
-0.067513
-0.0703521
-0.0730702
-0.0756581
-0.0781028
-0.0803888
-0.0824987
-0.0844141
-0.0861166
-0.0875882
-0.0888124
-0.0897745
-0.0904622
-0.0908663
-0.0909806
-0.0908027
-0.0903335
-0.0895778
-0.0885435
-0.0872419
-0.0856871
-0.0838956
-0.0818859
-0.0796782
-0.0772936
-0.0747543
-0.0720825
-0.0693016
-0.0664346
-0.0635073
-0.0605465
-0.0575861
-0.054664
-0.0518313
-0.0491437
-0.0466733
-0.0444528
-0.0425337
-0.0408348
-0.039296
-0.0377882
-0.0371677
-0.0368594
-0.0211493
-0.0209825
-0.0209958
-0.0215815
-0.0228949
-0.0249401
-0.0276285
-0.0308265
-0.0343794
-0.0381283
-0.0419319
-0.0456844
-0.0493223
-0.0528185
-0.0561697
-0.0593843
-0.0624731
-0.0654441
-0.0682994
-0.0710354
-0.0736434
-0.0761104
-0.0784204
-0.0805556
-0.082497
-0.0842254
-0.0857222
-0.0869702
-0.0879539
-0.0886605
-0.0890799
-0.0892054
-0.0890339
-0.0885658
-0.0878052
-0.0867594
-0.0854394
-0.0838586
-0.0820334
-0.079982
-0.0777244
-0.0752819
-0.0726768
-0.0699318
-0.067071
-0.0641188
-0.0611026
-0.0580515
-0.055003
-0.0519981
-0.0490942
-0.0463503
-0.0438429
-0.0416099
-0.0397315
-0.0381111
-0.0367233
-0.0353923
-0.0349919
-0.0346645
-0.0205271
-0.0203654
-0.0203103
-0.0207233
-0.0217969
-0.0235813
-0.0260142
-0.0289769
-0.0323284
-0.0359214
-0.039618
-0.0433079
-0.0469176
-0.0504086
-0.0537682
-0.0569984
-0.0601068
-0.0630995
-0.0659787
-0.0687407
-0.0713768
-0.073874
-0.0762157
-0.0783836
-0.080358
-0.0821191
-0.0836474
-0.0849249
-0.0859356
-0.0866659
-0.087105
-0.0872455
-0.0870837
-0.0866193
-0.0858557
-0.0847996
-0.0834614
-0.081854
-0.0799932
-0.0778968
-0.0755846
-0.0730776
-0.0703982
-0.0675694
-0.0646161
-0.0615634
-0.0584411
-0.0552805
-0.0521228
-0.0490131
-0.0460148
-0.0431904
-0.0406237
-0.0383575
-0.0364869
-0.0349047
-0.0336305
-0.0324238
-0.0322086
-0.0318215
-0.0199339
-0.0197818
-0.0196815
-0.0199377
-0.0207651
-0.0222602
-0.0243951
-0.0270723
-0.0301683
-0.0335511
-0.0370918
-0.0406799
-0.044234
-0.0477041
-0.0510663
-0.0543137
-0.0574478
-0.0604716
-0.0633852
-0.0661844
-0.0688599
-0.071398
-0.073782
-0.0759925
-0.0780093
-0.0798117
-0.0813795
-0.082694
-0.0837383
-0.0844982
-0.0849622
-0.0851223
-0.0849741
-0.0845164
-0.0837522
-0.0826873
-0.0813315
-0.0796968
-0.0777987
-0.075654
-0.0732824
-0.0707041
-0.0679418
-0.0650183