/*--------------------------------*- C++ -*----------------------------------*\
| =========                 |                                                 |
| \\      /  F ield         | OpenFOAM: The Open Source CFD Toolbox           |
|  \\    /   O peration     | Version:  2406                                  |
|   \\  /    A nd           | Website:  www.openfoam.com                      |
|    \\/     M anipulation  |                                                 |
\*---------------------------------------------------------------------------*/
FoamFile
{
    version     2.0;
    format      ascii;
    arch        "LSB;label=32;scalar=64";
    class       volScalarField;
    location    "26.75";
    object      p;
}
// * * * * * * * * * * * * * * * * * * * * * * * * * * * * * * * * * * * * * //

dimensions      [0 2 -2 0 0 0 0];

internalField   nonuniform List<scalar> 
16384
(
-2.01909e-07
7.53741e-06
1.6169e-05
2.24939e-05
2.40808e-05
1.95315e-05
8.21075e-06
-9.96429e-06
-3.46875e-05
-6.53998e-05
-0.000101391
-0.000141896
-0.000186169
-0.000233546
-0.000283489
-0.000335615
-0.000389715
-0.000445753
-0.00050386
-0.000564322
-0.000627577
-0.000694132
-0.000764601
-0.00083965
-0.000919972
-0.00100627
-0.00109922
-0.00119951
-0.00130775
-0.00142454
-0.00155043
-0.00168591
-0.00183142
-0.00198734
-0.00215397
-0.00233149
-0.00251998
-0.00271937
-0.00292939
-0.00314957
-0.00337921
-0.00361733
-0.00386265
-0.00411357
-0.00436816
-0.0046241
-0.00487876
-0.00512913
-0.00537186
-0.0056033
-0.00581953
-0.0060164
-0.00618959
-0.00633471
-0.00644733
-0.00652315
-0.00655801
-0.00654804
-0.00648978
-0.00638026
-0.00621712
-0.00599869
-0.00572417
-0.00539362
-0.00500811
-0.00456979
-0.00408193
-0.00354901
-0.00297649
-0.00236986
-0.00173918
-0.00109229
-0.000438909
0.000210399
0.000844522
0.00145203
0.00202146
0.00254159
0.00300179
0.00339235
0.00370481
0.00393234
0.00406993
0.00411471
0.00406606
0.00392575
0.00369791
0.00338802
0.00300528
0.00255924
0.00206088
0.00152226
0.000955773
0.0003737
-0.000212213
-0.000791126
-0.00135342
-0.00189094
-0.00239715
-0.00286709
-0.00329749
-0.00368657
-0.00403383
-0.00433998
-0.00460666
-0.00483622
-0.00503153
-0.00519575
-0.00533219
-0.00544414
-0.0055348
-0.00560719
-0.00566408
-0.00570794
-0.00574097
-0.00576507
-0.00578183
-0.00579253
-0.0057982
-0.00579956
-0.00579715
-0.0057913
-0.00578231
-0.00577056
-0.00575678
-0.00574232
-0.00572929
-0.00572162
-7.7084e-06
2.04213e-09
7.05075e-06
1.13044e-05
1.11184e-05
5.38636e-06
-6.46168e-06
-2.45447e-05
-4.8647e-05
-7.83127e-05
-0.000112941
-0.00015187
-0.000194446
-0.000240083
-0.000288302
-0.000338764
-0.000391282
-0.000445828
-0.000502523
-0.000561636
-0.000623539
-0.000688732
-0.000757775
-0.000831281
-0.000909894
-0.00099427
-0.00108506
-0.00118288
-0.00128835
-0.00140203
-0.00152446
-0.00165613
-0.00179747
-0.00194887
-0.00211063
-0.00228298
-0.00246602
-0.00265971
-0.00286384
-0.00307801
-0.00330159
-0.00353368
-0.00377309
-0.00401833
-0.00426758
-0.00451864
-0.00476898
-0.00501572
-0.00525562
-0.00548512
-0.00570041
-0.00589741
-0.00607188
-0.00621945
-0.00633577
-0.0064165
-0.0064575
-0.00645488
-0.00640512
-0.0063052
-0.00615266
-0.00594578
-0.00568362
-0.00536613
-0.0049943
-0.00457026
-0.00409744
-0.00357988
-0.00302001
-0.00242833
-0.00181088
-0.00117678
-0.000535781
0.000101766
0.00072491
0.00132236
0.00188273
0.0023949
0.0028483
0.00323328
0.00354144
0.00376595
0.00390185
0.00394628
0.00389864
0.0037607
0.00353666
0.0032329
0.00285532
0.00241771
0.00192883
0.00140082
0.000846067
0.000276696
-0.000295747
-0.000860667
-0.00140873
-0.00193209
-0.00242451
-0.00288117
-0.00329925
-0.0036771
-0.00401445
-0.00431212
-0.00457182
-0.00479589
-0.00498713
-0.00514862
-0.00528353
-0.00539501
-0.00548609
-0.00555963
-0.00561821
-0.00566418
-0.0056996
-0.00572625
-0.00574564
-0.00575901
-0.00576733
-0.00577138
-0.0057717
-0.00576871
-0.00576274
-0.0057542
-0.00574372
-0.00573234
-0.00572168
-0.00571395
-1.62442e-05
-6.93937e-06
1.65419e-07
3.53709e-06
2.32232e-06
-4.22646e-06
-1.65435e-05
-3.47177e-05
-5.85449e-05
-8.76063e-05
-0.000121351
-0.000159169
-0.000200456
-0.00024467
-0.000291373
-0.000340254
-0.000391149
-0.000444039
-0.000499044
-0.000556425
-0.00061655
-0.000679883
-0.000746959
-0.000818362
-0.000894704
-0.000976609
-0.0010647
-0.00115957
-0.00126181
-0.00137199
-0.00149062
-0.00161821
-0.00175522
-0.00190206
-0.00205909
-0.00222656
-0.00240466
-0.00259343
-0.00279275
-0.00300233
-0.00322164
-0.00344991
-0.00368607
-0.00392875
-0.00417624
-0.00442648
-0.004677
-0.00492502
-0.00516735
-0.00540049
-0.0056206
-0.00582361
-0.00600523
-0.00616104
-0.00628659
-0.00637745
-0.00642936
-0.0064383
-0.00640062
-0.00631316
-0.00617334
-0.00597928
-0.00572991
-0.00542505
-0.00506564
-0.00465368
-0.00419176
-0.00368239
-0.0031345
-0.00255302
-0.00194512
-0.00131947
-0.00068573
-5.43035e-05
0.000563828
0.00115734
0.00171483
0.00222512
0.00267757
0.00306243
0.00337123
0.00359702
0.00373475
0.00378148
0.00373653
0.00360159
0.00338075
0.00308029
0.00270805
0.00227445
0.00179063
0.00126843
0.000720293
0.00015836
-0.000405778
-0.00096153
-0.00149961
-0.00201225
-0.00249329
-0.00293842
-0.00334512
-0.00371179
-0.00403828
-0.00432571
-0.00457603
-0.00479174
-0.00497576
-0.0051312
-0.00526125
-0.005369
-0.00545741
-0.00552923
-0.00558692
-0.00563271
-0.00566852
-0.00569603
-0.00571663
-0.0057315
-0.00574156
-0.00574755
-0.00574999
-0.00574928
-0.00574574
-0.00573967
-0.00573148
-0.00572172
-0.00571106
-0.00570069
-2.29627e-05
-1.14486e-05
-3.28425e-06
1.49117e-07
-1.44234e-06
-8.48935e-06
-2.12676e-05
-3.97688e-05
-6.37305e-05
-9.27032e-05
-0.00012612
-0.000163367
-0.000203843
-0.000247018
-0.00029247
-0.000339905
-0.000389174
-0.000440275
-0.000493354
-0.000548669
-0.000606597
-0.000667601
-0.000732214
-0.000801011
-0.000874594
-0.000953575
-0.00103856
-0.00113015
-0.00122893
-0.00133546
-0.0014503
-0.00157397
-0.00170699
-0.00184985
-0.00200297
-0.00216674
-0.00234145
-0.00252727
-0.00272424
-0.0029322
-0.0031508
-0.00337939
-0.00361705
-0.00386255
-0.00411424
-0.00437013
-0.00462781
-0.00488446
-0.00513685
-0.00538138
-0.00561411
-0.00583078
-0.00602695
-0.00619799
-0.00633923
-0.00644607
-0.00651402
-0.00653889
-0.00651686
-0.00644461
-0.00631943
-0.00613931
-0.00590306
-0.00561047
-0.00526244
-0.00486074
-0.00440752
-0.00390666
-0.00336494
-0.00278843
-0.00218443
-0.00156146
-0.000929063
-0.000297615
0.000321886
0.000918059
0.00147941
0.00199461
0.00245288
0.00284429
0.0031601
0.00339317
0.00353819
0.00359201
0.00355375
0.00342495
0.00320955
0.00291378
0.00254587
0.00211593
0.00163537
0.00111606
0.0005712
1.28483e-05
-0.000547079
-0.00109779
-0.00162984
-0.00213539
-0.00260836
-0.00304439
-0.0034402
-0.00379627
-0.00411162
-0.00438766
-0.00462667
-0.0048315
-0.00500529
-0.00515136
-0.00527304
-0.00537352
-0.0054558
-0.00552258
-0.00557631
-0.00561911
-0.00565282
-0.00567899
-0.00569892
-0.00571369
-0.00572415
-0.00573093
-0.00573451
-0.00573521
-0.00573321
-0.00572863
-0.00572161
-0.00571218
-0.00570016
-0.00568651
-2.58096e-05
-1.22436e-05
-2.86892e-06
9.01987e-07
-8.75121e-07
-8.39692e-06
-2.17783e-05
-4.08847e-05
-6.53563e-05
-9.46671e-05
-0.00012819
-0.000165266
-0.000205271
-0.000247662
-0.000292016
-0.000338052
-0.000385638
-0.000434797
-0.000485695
-0.000538622
-0.000593979
-0.000652252
-0.000713989
-0.00077978
-0.000850239
-0.000925987
-0.00100764
-0.00109583
-0.00119114
-0.00129421
-0.00140563
-0.00152602
-0.001656
-0.00179618
-0.00194714
-0.00210943
-0.00228354
-0.00246982
-0.00266852
-0.00287966
-0.00310306
-0.00333824
-0.00358438
-0.00384029
-0.00410436
-0.00437454
-0.00464831
-0.00492269
-0.00519423
-0.00545909
-0.00571303
-0.00595151
-0.00616978
-0.00636293
-0.00652603
-0.00665421
-0.00674281
-0.00678746
-0.0067842
-0.0067296
-0.00662089
-0.00645598
-0.00623365
-0.00595367
-0.0056169
-0.00522489
-0.00477912
-0.00428579
-0.00374951
-0.00317656
-0.00257437
-0.00195145
-0.0013173
-0.000682233
-5.72464e-05
0.000546247
0.00111667
0.00164256
0.00211293
0.00251759
0.00284753
0.00309525
0.00325508
0.00332348
0.00329924
0.00318357
0.00298015
0.00269502
0.00233636
0.00191427
0.00144023
0.000926617
0.000386377
-0.000167873
-0.00072367
-0.00127006
-0.00179723
-0.00229707
-0.0027633
-0.00319153
-0.00357911
-0.00392385
-0.00422805
-0.00449233
-0.00471909
-0.00491149
-0.00507303
-0.00520732
-0.00531794
-0.00540827
-0.00548146
-0.0055403
-0.00558725
-0.00562442
-0.00565359
-0.00567625
-0.00569359
-0.00570658
-0.00571598
-0.00572232
-0.00572596
-0.00572709
-0.00572575
-0.00572186
-0.00571522
-0.00570544
-0.00569158
-0.00567454
-2.36425e-05
-8.45301e-06
1.90104e-06
5.91888e-06
3.85701e-06
-4.30893e-06
-1.85452e-05
-3.85805e-05
-6.39313e-05
-9.39628e-05
-0.000127959
-0.000165193
-0.000204993
-0.000246789
-0.000290148
-0.000334802
-0.000380641
-0.000427716
-0.000476232
-0.000526523
-0.000579035
-0.000634296
-0.000692894
-0.000755459
-0.000822641
-0.000895101
-0.000973507
-0.00105853
-0.00115086
-0.0012512
-0.00136028
-0.00147887
-0.00160777
-0.00174778
-0.00189974
-0.00206442
-0.00224255
-0.00243476
-0.00264149
-0.00286296
-0.00309913
-0.00334959
-0.00361354
-0.0038897
-0.00417631
-0.00447108
-0.0047712
-0.00507332
-0.00537363
-0.00566786
-0.00595138
-0.00621929
-0.00646646
-0.00668772
-0.00687787
-0.00703187
-0.00714491
-0.00721253
-0.00723073
-0.00719605
-0.00710572
-0.00695767
-0.00675071
-0.00648456
-0.00615994
-0.00577844
-0.00534171
-0.00485554
-0.00432468
-0.00375517
-0.00315426
-0.00253033
-0.00189273
-0.00125168
-0.000618074
-3.29687e-06
0.000581035
0.00112336
0.00161249
0.00203795
0.00239037
0.0026618
0.00284609
0.00293915
0.00293921
0.00284698
0.00266566
0.00240089
0.0020606
0.00165468
0.00119459
0.000692841
0.000162535
-0.000383257
-0.000931927
-0.00147206
-0.00199315
-0.00248693
-0.00294661
-0.0033675
-0.00374678
-0.00408316
-0.00437647
-0.00462954
-0.00484437
-0.00502426
-0.00517299
-0.0052945
-0.00539265
-0.0054711
-0.00553322
-0.00558198
-0.00561996
-0.00564932
-0.00567185
-0.00568901
-0.00570193
-0.00571149
-0.00571835
-0.00572294
-0.00572549
-0.00572606
-0.00572452
-0.00572058
-0.00571377
-0.00570329
-0.00568759
-0.00566752
-1.58127e-05
5.11156e-07
1.14744e-05
1.5466e-05
1.28619e-05
3.76802e-06
-1.16456e-05
-3.29631e-05
-5.95576e-05
-9.06645e-05
-0.00012546
-0.000163135
-0.000202953
-0.000244308
-0.000286752
-0.000330061
-0.000374117
-0.000419023
-0.000465039
-0.000512562
-0.000562099
-0.000614244
-0.000669656
-0.000729032
-0.000793098
-0.000862597
-0.000938293
-0.00102098
-0.00111147
-0.00121067
-0.0013195
-0.00143898
-0.00157016
-0.00171417
-0.00187212
-0.00204511
-0.00223414
-0.00244008
-0.00266355
-0.0029049
-0.00316409
-0.00344063
-0.00373352
-0.00404121
-0.00436156
-0.00469184
-0.00502872
-0.00536838
-0.00570647
-0.00603826
-0.0063587
-0.0066625
-0.00694426
-0.00719855
-0.00742005
-0.00760362
-0.00774441
-0.00783797
-0.00788033
-0.00786811
-0.00779856
-0.00766973
-0.00748045
-0.00723037
-0.00691969
-0.00654948
-0.00612472
-0.00564796
-0.00512405
-0.00455902
-0.00395994
-0.00333495
-0.00269314
-0.00204448
-0.00139969
-0.000770017
-0.000167027
0.000397664
0.000912702
0.00136733
0.00175176
0.00205752
0.00227781
0.00240785
0.0024451
0.00238952
0.00224356
0.00201222
0.00170288
0.00132501
0.000889834
0.000409786
-0.000101959
-0.000632081
-0.00116765
-0.00169667
-0.00220835
-0.00269403
-0.00314596
-0.00355929
-0.00393073
-0.00425884
-0.00454372
-0.00478655
-0.0049907
-0.00515922
-0.00529599
-0.00540518
-0.00549091
-0.00555714
-0.00560748
-0.00564514
-0.00567288
-0.00569301
-0.00570739
-0.0057175
-0.00572449
-0.00572919
-0.00573217
-0.00573378
-0.00573414
-0.0057332
-0.00573065
-0.00572602
-0.00571861
-0.00570728
-0.00568999
-0.00566753
-1.88406e-06
1.5103e-05
2.62509e-05
2.98528e-05
2.63597e-05
1.5985e-05
-9.66968e-07
-2.3927e-05
-5.21129e-05
-8.46196e-05
-0.000120504
-0.000158859
-0.000198887
-0.000239935
-0.000281517
-0.000323569
-0.000365867
-0.000408607
-0.000452128
-0.000496903
-0.000543537
-0.000592709
-0.000645188
-0.00070178
-0.000763333
-0.000830734
-0.000904915
-0.000986866
-0.00107765
-0.00117843
-0.00129045
-0.00141506
-0.00155369
-0.00170781
-0.00187891
-0.00206838
-0.00227748
-0.00250723
-0.00275832
-0.00303102
-0.00332509
-0.00363973
-0.0039735
-0.00432434
-0.0046895
-0.00506565
-0.00544887
-0.00583473
-0.00621837
-0.00659461
-0.00695801
-0.00730303
-0.00762406
-0.00791556
-0.00817218
-0.00838877
-0.00856057
-0.0086832
-0.00875281
-0.0087661
-0.00872044
-0.00861393
-0.00844544
-0.00821448
-0.00792126
-0.00756726
-0.00715611
-0.00669103
-0.00617643
-0.00561794
-0.00502225
-0.00439711
-0.00375123
-0.00309421
-0.00243643
-0.0017889
-0.001163
-0.000570308
-2.2277e-05
0.000470085
0.00089656
0.00124809
0.00151714
0.00169805
0.00178732
0.00178387
0.00168914
0.00150717
0.00124445
0.00090975
0.000513745
6.85567e-05
-0.000412759
-0.000916793
-0.00143036
-0.00194102
-0.00243757
-0.00291046
-0.00335181
-0.00375595
-0.00411894
-0.00443894
-0.00471575
-0.00495054
-0.00514556
-0.00530451
-0.00543112
-0.0055296
-0.00560425
-0.00565921
-0.00569834
-0.00572508
-0.00574242
-0.00575284
-0.00575837
-0.00576058
-0.00576066
-0.00575946
-0.00575754
-0.00575518
-0.00575245
-0.00574916
-0.00574491
-0.00573907
-0.00573076
-0.00571855
-0.00570006
-0.00567601
1.85299e-05
3.5739e-05
4.66383e-05
4.94463e-05
4.46711e-05
3.26307e-05
1.37698e-05
-1.11817e-05
-4.12808e-05
-7.54746e-05
-0.000112694
-0.000151937
-0.000192345
-0.000233259
-0.000274273
-0.000314984
-0.000355592
-0.000396289
-0.000437489
-0.000479743
-0.000523816
-0.0005705
-0.000620706
-0.000675413
-0.000735663
-0.000802566
-0.000877315
-0.000961206
-0.00105565
-0.00116219
-0.0012825
-0.00141835
-0.0015716
-0.00174412
-0.00193771
-0.00215401
-0.00239438
-0.00265984
-0.0029509
-0.00326749
-0.00360893
-0.00397383
-0.0043601
-0.00476496
-0.00518497
-0.00561609
-0.00605378
-0.00649305
-0.0069286
-0.00735487
-0.00776619
-0.00815683
-0.00852112
-0.00885352
-0.00914872
-0.00940169
-0.00960778
-0.00976277
-0.00986294
-0.00990513
-0.00988682
-0.00980619
-0.00966206
-0.00945386
-0.00918182
-0.0088476
-0.00845393
-0.008004
-0.00750193
-0.00695289
-0.0063631
-0.00573976
-0.00509106
-0.0044261
-0.00375476
-0.00308763
-0.00243578
-0.00181059
-0.00122349
-0.000685661
-0.000207679
0.000200805
0.000531459
0.000777623
0.000934648
0.00100017
0.000974323
0.000859809
0.000661897
0.000388257
4.86644e-05
-0.000345408
-0.000781301
-0.00124573
-0.00172541
-0.00220757
-0.00268052
-0.00313404
-0.00355969
-0.00395097
-0.00430337
-0.00461432
-0.00488303
-0.00511028
-0.00529805
-0.00544928
-0.00556786
-0.00565785
-0.00572353
-0.00576913
-0.00579866
-0.00581573
-0.00582353
-0.00582476
-0.00582162
-0.00581584
-0.0058087
-0.00580114
-0.00579374
-0.00578679
-0.00578032
-0.0057741
-0.00576765
-0.00576023
-0.00575082
-0.00573781
-0.00571859
-0.00569375
4.58439e-05
6.28639e-05
7.30861e-05
7.4681e-05
6.82168e-05
5.4124e-05
3.29963e-05
5.72886e-06
-2.65701e-05
-6.26964e-05
-0.000101457
-0.000141763
-0.000182702
-0.000223593
-0.000264009
-0.000303744
-0.000342924
-0.000381875
-0.000421137
-0.000461425
-0.000503623
-0.000548731
-0.000597867
-0.000652252
-0.000713207
-0.000782171
-0.000860712
-0.00095055
-0.00105356
-0.00117178
-0.00130738
-0.00146261
-0.00163975
-0.00184101
-0.00206838
-0.00232357
-0.00260784
-0.00292189
-0.00326579
-0.00363889
-0.00403976
-0.00446625
-0.00491545
-0.0053838
-0.0058671
-0.00636067
-0.00685939
-0.00735781
-0.00785029
-0.00833103
-0.00879421
-0.00923405
-0.00964491
-0.0100213
-0.0103581
-0.0106504
-0.0108937
-0.011084
-0.0112178
-0.011292
-0.0113042
-0.0112528
-0.0111365
-0.0109546
-0.0107072
-0.0103963
-0.0100241
-0.00959332
-0.00910761
-0.00857169
-0.0079912
-0.00737273
-0.00672381
-0.00605286
-0.00536911
-0.00468254
-0.00400372
-0.00334364
-0.00271352
-0.00212453
-0.00158749
-0.00111255
-0.000708805
-0.000383957
-0.000143926
7.45529e-06
6.87085e-05
4.0879e-05
-7.2405e-05
-0.000265004
-0.000528478
-0.000852436
-0.00122499
-0.00163331
-0.00206423
-0.00250483
-0.002943
-0.00336793
-0.00377043
-0.00414321
-0.00448094
-0.00478025
-0.00503959
-0.00525904
-0.00544006
-0.00558514
-0.00569759
-0.00578133
-0.00584043
-0.00587906
-0.00590121
-0.00591061
-0.00591057
-0.00590396
-0.00589314
-0.00588002
-0.00586605
-0.00585225
-0.00583932
-0.00582758
-0.00581711
-0.00580767
-0.00579874
-0.00578954
-0.00577896
-0.0057653
-0.00574581
-0.005721
8.05409e-05
9.69711e-05
0.000106091
0.000106057
9.7506e-05
8.09934e-05
5.72686e-05
2.73976e-05
-7.34429e-06
-4.56068e-05
-8.60839e-05
-0.000127612
-0.000169243
-0.000210299
-0.00025038
-0.000289393
-0.000327534
-0.000365261
-0.000403273
-0.000442476
-0.000483961
-0.000528982
-0.000578947
-0.000635413
-0.000700092
-0.00077487
-0.000861813
-0.000963182
-0.00108142
-0.00121912
-0.00137898
-0.0015637
-0.00177587
-0.00201788
-0.00229171
-0.00259885
-0.00294015
-0.00331573
-0.00372492
-0.00416622
-0.00463734
-0.00513521
-0.00565609
-0.00619561
-0.00674889
-0.00731067
-0.00787537
-0.00843719
-0.00899025
-0.00952863
-0.0100464
-0.010538
-0.0109976
-0.0114201
-0.0118005
-0.012134
-0.0124165
-0.012644
-0.0128134
-0.0129218
-0.0129669
-0.0129471
-0.0128613
-0.0127087
-0.0124894
-0.0122051
-0.0118579
-0.01145
-0.0109847
-0.010466
-0.00989898
-0.00928952
-0.00864436
-0.0079711
-0.00727816
-0.0065747
-0.00587057
-0.00517614
-0.00450219
-0.00385961
-0.00325925
-0.00271155
-0.00222623
-0.00181193
-0.00147586
-0.00122341
-0.00105786
-0.000980137
-0.000988632
-0.00107919
-0.00124523
-0.00147794
-0.00176671
-0.00209962
-0.002464
-0.00284704
-0.0032364
-0.00362073
-0.00399014
-0.00433644
-0.00465337
-0.00493659
-0.00518363
-0.0053937
-0.00556748
-0.00570679
-0.0058144
-0.00589366
-0.00594837
-0.0059824
-0.00599963
-0.00600371
-0.00599801
-0.00598546
-0.00596859
-0.00594943
-0.0059296
-0.00591028
-0.00589226
-0.00587601
-0.00586165
-0.005849
-0.00583758
-0.00582659
-0.0058149
-0.00580079
-0.00578152
-0.00575744
0.000123171
0.000138601
0.000146196
0.000144128
0.000133117
0.000113849
8.72381e-05
5.45231e-05
1.71417e-05
-2.34231e-05
-6.57684e-05
-0.000108677
-0.000151193
-0.000192657
-0.000232752
-0.000271488
-0.000309197
-0.00034651
-0.00038433
-0.000423808
-0.00046632
-0.000513456
-0.000567014
-0.000628999
-0.00070164
-0.000787388
-0.000888926
-0.00100914
-0.0011511
-0.00131796
-0.00151286
-0.00173882
-0.00199857
-0.00229438
-0.00262792
-0.00300016
-0.00341123
-0.0038604
-0.00434604
-0.00486568
-0.00541606
-0.0059932
-0.00659251
-0.00720893
-0.00783696
-0.00847087
-0.00910472
-0.00973248
-0.0103481
-0.0109457
-0.0115193
-0.0120633
-0.0125724
-0.0130414
-0.0134656
-0.0138406
-0.0141625
-0.0144277
-0.0146331
-0.0147763
-0.0148551
-0.0148681
-0.0148142
-0.0146928
-0.0145039
-0.0142489
-0.0139297
-0.0135481
-0.013107
-0.0126099
-0.012061
-0.0114656
-0.0108294
-0.0101592
-0.00946236
-0.00874714
-0.00802238
-0.00729761
-0.00658283
-0.00588841
-0.00522488
-0.00460266
-0.00403183
-0.00352173
-0.0030807
-0.00271561
-0.00243161
-0.00223173
-0.00211673
-0.00208484
-0.00213183
-0.00225108
-0.00243388
-0.00266977
-0.00294713
-0.0032537
-0.00357725
-0.0039061
-0.00422971
-0.00453901
-0.00482669
-0.0050873
-0.00531728
-0.00551476
-0.00567943
-0.00581227
-0.00591526
-0.00599103
-0.00604295
-0.00607439
-0.00608895
-0.00609009
-0.00608105
-0.00606477
-0.00604383
-0.00602037
-0.00599613
-0.00597245
-0.00595027
-0.00593017
-0.00591241
-0.0058969
-0.00588321
-0.00587062
-0.00585802
-0.00584372
-0.0058251
-0.00580238
0.000174328
0.000188325
0.000193971
0.000189486
0.000175672
0.000153357
0.000123622
8.78751e-05
4.77011e-05
4.69709e-06
-3.966e-05
-8.4124e-05
-0.00012777
-0.000169994
-0.000210591
-0.000249719
-0.000287892
-0.00032597
-0.000365123
-0.000406823
-0.00045282
-0.000505143
-0.000566095
-0.000638255
-0.000724486
-0.000827917
-0.000951919
-0.00110005
-0.00127596
-0.00148327
-0.00172542
-0.00200549
-0.00232602
-0.00268888
-0.00309511
-0.00354482
-0.00403719
-0.00457043
-0.00514184
-0.00574792
-0.00638443
-0.00704651
-0.00772884
-0.0084257
-0.00913111
-0.00983896
-0.010543
-0.0112371
-0.0119152
-0.0125713
-0.0131996
-0.0137949
-0.0143518
-0.0148656
-0.0153318
-0.0157465
-0.0161061
-0.0164072
-0.0166473
-0.0168241
-0.0169357
-0.0169809
-0.0169589
-0.0168692
-0.0167118
-0.0164878
-0.0161987
-0.0158462
-0.0154327
-0.0149611
-0.0144351
-0.0138591
-0.013238
-0.0125774
-0.0118838
-0.0111642
-0.0104264
-0.00967864
-0.00893005
-0.00819007
-0.00746854
-0.0067755
-0.00612094
-0.00551457
-0.00496546
-0.00448174
-0.00407025
-0.00373612
-0.00348255
-0.00331047
-0.00321845
-0.00320262
-0.00325679
-0.00337273
-0.00354054
-0.00374917
-0.00398699
-0.00424243
-0.00450455
-0.00476348
-0.00501085
-0.00524001
-0.00544609
-0.00562596
-0.00577809
-0.00590236
-0.00599976
-0.00607214
-0.00612202
-0.00615221
-0.00616591
-0.00616616
-0.00615598
-0.00613818
-0.00611529
-0.00608948
-0.00606258
-0.00603605
-0.00601096
-0.00598804
-0.00596769
-0.00594993
-0.00593445
-0.00592062
-0.00590741
-0.00589323
-0.00587564
-0.00585475
0.000234622
0.000246719
0.000249988
0.000242722
0.000225805
0.000200205
0.000167167
0.000128251
8.51698e-05
3.96023e-05
-6.9239e-06
-5.31809e-05
-9.8281e-05
-0.000141758
-0.000183551
-0.000224015
-0.000263913
-0.000304394
-0.000346983
-0.00039356
-0.000446358
-0.000507962
-0.000581302
-0.00066965
-0.0007766
-0.000906023
-0.001062
-0.00124869
-0.00147022
-0.00173046
-0.00203287
-0.00238026
-0.00277469
-0.00321725
-0.00370803
-0.00424608
-0.00482943
-0.00545512
-0.00611936
-0.00681761
-0.00754469
-0.00829496
-0.00906242
-0.00984081
-0.0106238
-0.0114048
-0.0121776
-0.012936
-0.0136738
-0.0143853
-0.0150649
-0.0157075
-0.0163082
-0.0168628
-0.017367
-0.0178174
-0.0182108
-0.0185444
-0.0188158
-0.0190233
-0.0191652
-0.0192406
-0.0192489
-0.0191898
-0.0190637
-0.018871
-0.018613
-0.0182913
-0.0179079
-0.0174653
-0.0169665
-0.0164152
-0.0158153
-0.0151715
-0.0144892
-0.0137741
-0.0130327
-0.0122722
-0.0115002
-0.0107251
-0.00995562
-0.00920098
-0.00847063
-0.00777412
-0.00712078
-0.00651952
-0.00597845
-0.00550454
-0.00510329
-0.00477837
-0.00453138
-0.00436162
-0.00426606
-0.00423941
-0.00427431
-0.00436174
-0.00449148
-0.00465268
-0.00483448
-0.00502656
-0.00521963
-0.00540578
-0.00557873
-0.00573387
-0.00586823
-0.00598031
-0.00606987
-0.0061377
-0.00618536
-0.00621494
-0.00622889
-0.00622981
-0.00622034
-0.00620302
-0.00618022
-0.00615405
-0.00612635
-0.00609865
-0.00607213
-0.00604766
-0.00602575
-0.00600659
-0.00599
-0.00597544
-0.00596202
-0.00594829
-0.00593205
-0.00591333
0.000304632
0.000314323
0.000314782
0.000304403
0.000284133
0.000255072
0.000218607
0.000176426
0.000130355
8.20807e-05
3.32079e-05
-1.51377e-05
-6.218e-05
-0.000107601
-0.000151551
-0.000194651
-0.00023798
-0.000283067
-0.000331881
-0.000386826
-0.000450734
-0.000526864
-0.000618888
-0.00073086
-0.000867158
-0.00103239
-0.00123127
-0.00146841
-0.00174816
-0.00207436
-0.00245012
-0.00287767
-0.00335819
-0.00389172
-0.00447717
-0.00511236
-0.00579405
-0.00651812
-0.00727967
-0.00807317
-0.00889259
-0.00973157
-0.0105835
-0.0114417
-0.0122996
-0.0131504
-0.0139877
-0.0148054
-0.0155976
-0.0163587
-0.0170835
-0.0177674
-0.0184058
-0.0189949
-0.0195312
-0.0200115
-0.0204332
-0.0207941
-0.0210921
-0.0213259
-0.0214943
-0.0215965
-0.0216322
-0.0216015
-0.021505
-0.0213427
-0.0211156
-0.0208252
-0.0204732
-0.020062
-0.0195937
-0.0190715
-0.0184984
-0.0178783
-0.0172153
-0.016514
-0.0157797
-0.015018
-0.0142353
-0.0134384
-0.0126348
-0.0118325
-0.0110399
-0.0102657
-0.0095191
-0.00880904
-0.00814432
-0.0075332
-0.00698304
-0.00649996
-0.00608851
-0.00575134
-0.00548897
-0.00529965
-0.00517941
-0.00512216
-0.00512004
-0.00516385
-0.00524363
-0.00534918
-0.00547068
-0.00559918
-0.00572696
-0.0058478
-0.00595702
-0.0060515
-0.00612948
-0.00619037
-0.00623457
-0.00626318
-0.0062778
-0.00628035
-0.00627293
-0.00625772
-0.0062368
-0.00621212
-0.00618544
-0.00615829
-0.00613192
-0.00610729
-0.00608505
-0.0060655
-0.00604859
-0.00603394
-0.00602077
-0.00600783
-0.00599319
-0.00597681
0.000384855
0.000391595
0.00038881
0.000375024
0.00035121
0.000318568
0.000278607
0.000233081
0.00018393
0.000132857
8.13482e-05
3.04705e-05
-1.91704e-05
-6.74785e-05
-0.000114885
-0.000162349
-0.000211357
-0.000263916
-0.000322552
-0.000390304
-0.000470726
-0.00056786
-0.000686201
-0.000830624
-0.00100627
-0.00121839
-0.00147214
-0.00177233
-0.00212323
-0.00252825
-0.00298983
-0.00350921
-0.00408642
-0.00472023
-0.00540821
-0.00614683
-0.00693159
-0.00775721
-0.0086177
-0.00950664
-0.0104172
-0.0113425
-0.0122753
-0.0132087
-0.0141358
-0.01505
-0.0159449
-0.0168145
-0.0176533
-0.0184561
-0.0192181
-0.0199351
-0.0206034
-0.0212194
-0.0217804
-0.0222836
-0.0227271
-0.0231091
-0.023428
-0.0236829
-0.023873
-0.0239979
-0.0240573
-0.0240519
-0.0239821
-0.023848
-0.0236504
-0.0233907
-0.0230705
-0.0226916
-0.022256
-0.0217659
-0.021224
-0.0206331
-0.0199965
-0.0193175
-0.0186003
-0.0178492
-0.017069
-0.0162651
-0.0154433
-0.0146102
-0.0137728
-0.0129386
-0.0121157
-0.0113127
-0.0105382
-0.00980095
-0.00910952
-0.00847186
-0.007895
-0.00738471
-0.00694509
-0.0065783
-0.00628433
-0.00606091
-0.00590357
-0.00580588
-0.00575982
-0.00575629
-0.00578568
-0.00583849
-0.00590583
-0.00597985
-0.00605405
-0.00612338
-0.00618424
-0.00623437
-0.00627267
-0.00629895
-0.00631378
-0.00631824
-0.00631368
-0.00630175
-0.00628414
-0.00626254
-0.00623854
-0.00621359
-0.00618894
-0.0061656
-0.00614429
-0.00612543
-0.00610911
-0.00609506
-0.00608265
-0.00607082
-0.00605794
-0.00604393
0.000475644
0.00047886
0.000472409
0.000454967
0.000427465
0.000391177
0.000347669
0.000298815
0.000246483
0.000192374
0.000137859
8.38458e-05
3.0709e-05
-2.17499e-05
-7.43213e-05
-0.000128396
-0.000185965
-0.000249624
-0.000322574
-0.000408609
-0.000512104
-0.000637961
-0.000791527
-0.000978464
-0.00120456
-0.00147551
-0.00179662
-0.00217259
-0.00260717
-0.00310303
-0.00366151
-0.00428262
-0.004965
-0.00570597
-0.00650168
-0.00734724
-0.0082369
-0.00916422
-0.0101223
-0.0111038
-0.0121013
-0.0131073
-0.0141145
-0.0151156
-0.0161038
-0.0170725
-0.0180157
-0.0189277
-0.0198035
-0.0206383
-0.0214282
-0.0221693
-0.0228586
-0.0234933
-0.024071
-0.0245899
-0.0250482
-0.0254449
-0.0257788
-0.0260494
-0.0262562
-0.0263991
-0.0264783
-0.0264943
-0.0264478
-0.0263392
-0.0261688
-0.0259382
-0.0256487
-0.0253019
-0.0248994
-0.0244431
-0.0239349
-0.0233771
-0.022772
-0.0221222
-0.0214306
-0.0207003
-0.0199348
-0.019138
-0.0183141
-0.017468
-0.016605
-0.0157312
-0.0148532
-0.0139782
-0.0131142
-0.0122696
-0.0114532
-0.0106738
-0.00994013
-0.00926046
-0.00864206
-0.00809085
-0.00761102
-0.0072047
-0.00687169
-0.00660947
-0.00641323
-0.00627621
-0.00619016
-0.00614592
-0.00613402
-0.00614534
-0.00617157
-0.00620557
-0.00624162
-0.0062754
-0.00630394
-0.00632546
-0.00633916
-0.00634497
-0.00634345
-0.00633547
-0.00632222
-0.00630496
-0.00628506
-0.00626379
-0.00624232
-0.00622164
-0.00620253
-0.00618548
-0.00617066
-0.00615792
-0.00614678
-0.00613637
-0.00612533
-0.00611359
0.000577158
0.00057625
0.000565735
0.000544443
0.000513128
0.000473209
0.000426195
0.000373943
0.000318289
0.000260837
0.000202786
0.00014481
8.69799e-05
2.87196e-05
-3.12125e-05
-9.47386e-05
-0.000164468
-0.0002437
-0.000336423
-0.000447287
-0.000581558
-0.000745018
-0.00094382
-0.00118428
-0.00147263
-0.00181469
-0.0022156
-0.0026795
-0.00320929
-0.00380647
-0.00447104
-0.00520151
-0.00599498
-0.00684724
-0.00775298
-0.00870597
-0.00969925
-0.0107253
-0.0117764
-0.0128446
-0.0139218
-0.0150003
-0.0160726
-0.0171315
-0.0181704
-0.019183
-0.0201637
-0.0211074
-0.0220096
-0.0228664
-0.0236743
-0.0244303
-0.0251319
-0.0257771
-0.026364
-0.0268914
-0.0273581
-0.0277634
-0.0281068
-0.0283879
-0.0286067
-0.0287633
-0.0288581
-0.0288918
-0.0288651
-0.0287786
-0.0286326
-0.0284286
-0.0281679
-0.0278517
-0.0274816
-0.0270589
-0.0265852
-0.0260622
-0.0254917
-0.0248755
-0.0242156
-0.023514
-0.022773
-0.0219952
-0.0211833
-0.0203407
-0.0194709
-0.0185782
-0.0176674
-0.0167443
-0.0158152
-0.0148875
-0.0139691
-0.013069
-0.0121964
-0.011361
-0.0105723
-0.00983948
-0.00917058
-0.00857218
-0.00804889
-0.00760296
-0.00723402
-0.00693907
-0.00671264
-0.00654725
-0.00643396
-0.00636308
-0.00632489
-0.00631026
-0.00631112
-0.00632078
-0.006334
-0.00634696
-0.00635711
-0.006363
-0.00636398
-0.00636007
-0.00635173
-0.00633974
-0.00632505
-0.0063087
-0.0062917
-0.00627497
-0.00625925
-0.00624505
-0.00623263
-0.00622191
-0.00621252
-0.00620377
-0.00619458
-0.0061849
0.000689289
0.000683642
0.000668685
0.000643348
0.000608306
0.000564751
0.000514227
0.000458505
0.00039931
0.000338072
0.000275752
0.00021271
0.000148628
8.24625e-05
1.24175e-05
-6.40706e-05
-0.000150342
-0.000250514
-0.000369457
-0.000512741
-0.000686538
-0.000897457
-0.00115232
-0.00145788
-0.00182048
-0.00224573
-0.00273817
-0.003301
-0.00393588
-0.00464284
-0.00542031
-0.00626513
-0.00717276
-0.00813746
-0.00915247
-0.0102103
-0.0113028
-0.0124217
-0.0135584
-0.0147045
-0.0158517
-0.0169921
-0.0181183
-0.0192235
-0.0203013
-0.0213461
-0.0223529
-0.0233173
-0.0242356
-0.0251044
-0.025921
-0.0266833
-0.0273893
-0.0280377
-0.0286272
-0.029157
-0.0296265
-0.0300354
-0.0303835
-0.0306708
-0.0308976
-0.0310641
-0.0311709
-0.0312188
-0.0312085
-0.0311408
-0.0310162
-0.0308361
-0.0306014
-0.0303136
-0.0299737
-0.0295831
-0.029143
-0.0286548
-0.0281197
-0.0275389
-0.0269138
-0.0262457
-0.025536
-0.0247859
-0.0239971
-0.0231714
-0.0223109
-0.021418
-0.0204957
-0.019548
-0.0185792
-0.017595
-0.016602
-0.0156079
-0.0146215
-0.0136526
-0.012712
-0.0118108
-0.0109599
-0.01017
-0.00945039
-0.00880839
-0.00824898
-0.0077742
-0.00738293
-0.007071
-0.00683152
-0.00665553
-0.00653277
-0.00645259
-0.00640468
-0.00637974
-0.00636989
-0.00636881
-0.00637176
-0.00637542
-0.00637768
-0.00637737
-0.00637405
-0.00636782
-0.00635915
-0.00634871
-0.00633724
-0.00632555
-0.00631428
-0.00630392
-0.00629471
-0.00628665
-0.00627946
-0.00627258
-0.00626518
-0.00625727
0.000811609
0.000800633
0.000780842
0.000751409
0.000712637
0.000665517
0.000611482
0.000552162
0.000489086
0.000423439
0.000355863
0.000286321
0.000214013
0.000137325
5.37984e-05
-3.98831e-05
-0.0001479
-0.000275279
-0.000427835
-0.00061207
-0.000835005
-0.00110393
-0.00142611
-0.00180842