/*--------------------------------*- C++ -*----------------------------------*\
| =========                 |                                                 |
| \\      /  F ield         | OpenFOAM: The Open Source CFD Toolbox           |
|  \\    /   O peration     | Version:  2406                                  |
|   \\  /    A nd           | Website:  www.openfoam.com                      |
|    \\/     M anipulation  |                                                 |
\*---------------------------------------------------------------------------*/
FoamFile
{
    version     2.0;
    format      ascii;
    arch        "LSB;label=32;scalar=64";
    class       surfaceScalarField;
    location    "25.35";
    object      phi;
}
// * * * * * * * * * * * * * * * * * * * * * * * * * * * * * * * * * * * * * //

dimensions      [0 3 -1 0 0 0 0];

oriented        oriented;

internalField   nonuniform List<scalar> 
7080
(
1.45661e-07
-1.45623e-07
5.01145e-07
-3.57738e-07
9.35629e-07
-4.34252e-07
1.34995e-06
-4.1578e-07
1.6972e-06
-3.47338e-07
1.94814e-06
-2.51384e-07
2.10588e-06
-1.57572e-07
2.17117e-06
-6.46719e-08
2.15156e-06
2.04091e-08
2.03582e-06
1.17471e-07
1.80138e-06
2.36266e-07
1.40312e-06
4.01416e-07
7.84079e-07
6.22559e-07
-1.24668e-07
9.13994e-07
-1.39521e-06
1.27659e-06
-3.10267e-06
1.7156e-06
-5.32212e-06
2.22884e-06
-8.12688e-06
2.81649e-06
-1.15822e-05
3.46857e-06
-1.57355e-05
4.16898e-06
-2.06044e-05
4.88616e-06
-2.61617e-05
5.5767e-06
-3.23207e-05
6.17962e-06
-3.89212e-05
6.62208e-06
-4.57212e-05
6.82124e-06
-5.23983e-05
6.69708e-06
-5.85621e-05
6.18064e-06
-6.37776e-05
5.22836e-06
-6.75985e-05
3.82835e-06
-6.96053e-05
2.00848e-06
-6.94448e-05
-1.65201e-07
-6.68676e-05
-2.5882e-06
-6.17595e-05
-5.12522e-06
-5.41679e-05
-7.61423e-06
-4.43171e-05
-9.87808e-06
-3.26149e-05
-1.17334e-05
-1.96398e-05
-1.30088e-05
-6.11369e-06
-1.35614e-05
7.15259e-06
-1.3301e-05
1.93285e-05
-1.22097e-05
2.96573e-05
-1.03586e-05
3.75436e-05
-7.91236e-06
4.26394e-05
-5.11486e-06
4.48858e-05
-2.26002e-06
4.45199e-05
3.60766e-07
4.20141e-05
2.50556e-06
3.79888e-05
4.0328e-06
3.30881e-05
4.9099e-06
2.78917e-05
5.2111e-06
2.28353e-05
5.06867e-06
1.82087e-05
4.64278e-06
1.41498e-05
4.06932e-06
1.07006e-05
3.46404e-06
7.81795e-06
2.88935e-06
5.43142e-06
2.39941e-06
3.45692e-06
1.97723e-06
1.8481e-06
1.62e-06
6.5692e-07
1.1905e-06
-1.0032e-08
6.76143e-07
-9.97871e-09
3.60135e-07
-5.03592e-07
1.02599e-06
-1.02367e-06
1.77531e-06
-1.18086e-06
2.43003e-06
-1.06988e-06
2.89611e-06
-8.12042e-07
3.09875e-06
-4.5384e-07
3.0142e-06
-7.34089e-08
2.61446e-06
3.3404e-07
1.87698e-06
7.55576e-07
7.43209e-07
1.24842e-06
-8.75135e-07
1.84995e-06
-3.11217e-06
2.63291e-06
-6.13097e-06
3.63329e-06
-1.01176e-05
4.89098e-06
-1.52617e-05
6.40767e-06
-2.17449e-05
8.18333e-06
-2.97235e-05
1.01881e-05
-3.93085e-05
1.23789e-05
-5.05367e-05
1.46702e-05
-6.3338e-05
1.69405e-05
-7.75028e-05
1.90172e-05
-9.26611e-05
2.06984e-05
-0.000108287
2.17656e-05
-0.000123727
2.20214e-05
-0.000138256
2.13094e-05
-0.000151136
1.9539e-05
-0.000161674
1.66866e-05
-0.00016927
1.27998e-05
-0.000173441
7.98452e-06
-0.000173838
2.40282e-06
-0.000170253
-3.73999e-06
-0.000162623
-1.01952e-05
-0.000151033
-1.66807e-05
-0.000135721
-2.28798e-05
-0.000117087
-2.84556e-05
-9.56996e-05
-3.3058e-05
-7.22875e-05
-3.63522e-05
-4.77353e-05
-3.80432e-05
-2.30443e-05
-3.79217e-05
7.10865e-07
-3.58991e-05
2.24627e-05
-3.20508e-05
4.12297e-05
-2.66304e-05
5.62204e-05
-2.00675e-05
6.69091e-05
-1.29256e-05
7.31111e-05
-5.83019e-06
7.49958e-05
6.17151e-07
7.30789e-05
5.93771e-06
6.81312e-05
9.83518e-06
6.10804e-05
1.22379e-05
5.28509e-05
1.32689e-05
4.42658e-05
1.32032e-05
3.59356e-05
1.23715e-05
2.82676e-05
1.11126e-05
2.14469e-05
9.68635e-06
1.55327e-05
8.30096e-06
1.04837e-05
7.00657e-06
6.28463e-06
5.81302e-06
2.99092e-06
4.46799e-06
7.94335e-07
2.87266e-06
7.75019e-07
4.3373e-07
-9.37385e-07
1.16148e-06
-1.75391e-06
1.90484e-06
-1.92418e-06
2.43284e-06
-1.59929e-06
2.62048e-06
-9.99928e-07
2.3545e-06
-1.8772e-07
1.57483e-06
7.06853e-07
2.07886e-07
1.70284e-06
-1.82502e-06
2.79051e-06
-4.65521e-06
4.0824e-06
-8.46109e-06
5.65995e-06
-1.34801e-05
7.65828e-06
-1.99835e-05
1.0144e-05
-2.82567e-05
1.31743e-05
-3.85643e-05
1.67269e-05
-5.11173e-05
2.07515e-05
-6.60316e-05
2.51198e-05
-8.32788e-05
2.96473e-05
-0.000102637
3.40527e-05
-0.000123662
3.79929e-05
-0.000145697
4.10811e-05
-0.000167926
4.29602e-05
-0.000189469
4.33428e-05
-0.000209468
4.20558e-05
-0.000227159
3.90357e-05
-0.000241912
3.43251e-05
-0.000253238
2.80408e-05
-0.000260778
2.03613e-05
-0.000264284
1.1503e-05
-0.000263599
1.72058e-06
-0.000258645
-8.7021e-06
-0.000249419
-1.94405e-05
-0.000235998
-3.01322e-05
-0.000218554
-4.0365e-05
-0.000197373
-4.9687e-05
-0.00017288
-5.76086e-05
-0.000145656
-6.36377e-05
-0.000116455
-6.7309e-05
-8.61881e-05
-6.82518e-05
-5.59056e-05
-6.6242e-05
-2.67316e-05
-6.12782e-05
2.04418e-07
-5.36118e-05
2.38714e-05
-4.37678e-05
4.34184e-05
-3.24954e-05
5.82686e-05
-2.06897e-05
6.81585e-05
-9.27315e-06
7.31797e-05
9.27334e-07
7.37508e-05
9.27884e-06
7.05915e-05
1.54193e-05
6.46053e-05
1.92754e-05
5.67852e-05
2.10482e-05
4.80432e-05
2.11321e-05
3.91487e-05
2.00302e-05
3.06222e-05
1.82265e-05
2.28045e-05
1.61389e-05
1.58382e-05
1.39803e-05
9.85097e-06
1.18181e-05
4.95511e-06
9.36443e-06
1.49912e-06
6.34521e-06
2.27531e-06
4.02451e-07
-1.33889e-06
9.83199e-07
-2.33528e-06
1.43866e-06
-2.37863e-06
1.51351e-06
-1.67411e-06
1.06088e-06
-5.47659e-07
-6.77598e-08
9.40626e-07
-1.98032e-06
2.61762e-06
-4.81523e-06
4.53637e-06
-8.7355e-06
6.70741e-06
-1.39736e-05
9.31745e-06
-2.08211e-05
1.25022e-05
-2.96247e-05
1.64565e-05
-4.07436e-05
2.12549e-05
-5.45043e-05
2.69265e-05
-7.11413e-05
3.33526e-05
-9.07328e-05
4.03304e-05
-0.000113136
4.75079e-05
-0.000137941
5.44344e-05
-0.000164468
6.05594e-05
-0.000191838
6.53398e-05
-0.000219083
6.83019e-05
-0.000245276
6.91269e-05
-0.000269613
6.76518e-05
-0.000291452
6.38677e-05
-0.000310313
5.78696e-05
-0.000325844
4.98316e-05
-0.000337789
3.99659e-05
-0.000345958
2.85161e-05
-0.000350202
1.57386e-05
-0.000350396
1.91512e-06
-0.000346438
-1.26509e-05
-0.00033825
-2.76108e-05
-0.000325788
-4.25678e-05
-0.000309066
-5.70535e-05
-0.000288179
-7.05328e-05
-0.000263344
-8.23964e-05
-0.000234935
-9.19961e-05
-0.000203516
-9.86747e-05
-0.000169866
-0.00010185
-0.00013497
-0.000101088
-9.99882e-05
-9.62154e-05
-6.61771e-05
-8.73854e-05
-3.47785e-05
-7.51362e-05
-6.90615e-06
-6.03479e-05
1.6575e-05
-4.41587e-05
3.51011e-05
-2.77977e-05
4.84502e-05
-1.24255e-05
5.67096e-05
1.007e-06
6.02739e-05
1.18419e-05
5.97754e-05
1.97546e-05
5.60567e-05
2.47515e-05
5.00317e-05
2.71366e-05
4.26241e-05
2.74249e-05
3.46009e-05
2.62307e-05
2.65924e-05
2.41394e-05
1.89925e-05
2.15626e-05
1.21487e-05
1.866e-05
6.30732e-06
1.5188e-05
2.00583e-06
1.06511e-05
4.26961e-06
2.83662e-07
-1.62236e-06
5.34813e-07
-2.58647e-06
4.59146e-07
-2.30302e-06
-2.0301e-07
-1.01092e-06
-1.62033e-06
8.6956e-07
-3.97974e-06
3.30221e-06
-7.4509e-06
6.08952e-06
-1.22546e-05
9.3435e-06
-1.86611e-05
1.3116e-05
-2.70209e-05
1.76821e-05
-3.77408e-05
2.32261e-05
-5.12468e-05
2.99692e-05
-6.79139e-05
3.79286e-05
-8.79852e-05
4.7007e-05
-0.000111489
5.68659e-05
-0.000138164
6.70174e-05
-0.000167429
7.67865e-05
-0.000198425
8.54461e-05
-0.000230132
9.22843e-05
-0.000261526
9.67532e-05
-0.000291699
9.84956e-05
-0.000319922
9.73728e-05
-0.000345651
9.34028e-05
-0.000368492
8.67312e-05
-0.000388168
7.75674e-05
-0.000404486
6.6168e-05
-0.000417303
5.27978e-05
-0.000426511
3.77333e-05
-0.000432013
2.12444e-05
-0.000433715
3.6136e-06
-0.00043151
-1.48661e-05
-0.000425277
-3.38598e-05
-0.000414885
-5.29831e-05
-0.000400202
-7.1765e-05
-0.000381126
-8.96434e-05
-0.000357619
-0.000105941
-0.000329768
-0.000119887
-0.000297845
-0.000130639
-0.000262367
-0.000137368
-0.000224151
-0.000139343
-0.000184314
-0.000136086
-0.000144239
-0.000127491
-0.000105445
-0.000113953
-6.94313e-05
-9.6379e-05
-3.74717e-05
-7.61268e-05
-1.04813e-05
-5.47916e-05
1.10635e-05
-3.39654e-05
2.70678e-05
-1.49903e-05
3.77641e-05
1.15918e-06
4.36063e-05
1.39242e-05
4.52598e-05
2.3115e-05
4.35084e-05
2.88994e-05
3.92455e-05
3.17048e-05
3.33144e-05
3.21698e-05
2.65173e-05
3.09527e-05
1.94564e-05
2.86266e-05
1.27023e-05
2.54306e-05
6.68821e-06
2.11988e-05
2.14449e-06
1.52128e-05
6.41361e-06
7.8531e-08
-1.70201e-06
-1.90583e-07
-2.31659e-06
-1.0525e-06
-1.44337e-06
-2.74761e-06
6.85023e-07
-5.46658e-06
3.58548e-06
-9.44142e-06
7.27713e-06
-1.49218e-05
1.15661e-05
-2.22298e-05
1.66502e-05
-3.17595e-05
2.26408e-05
-4.39772e-05
2.98969e-05
-5.937e-05
3.86127e-05
-7.83579e-05
4.89524e-05
-0.000101192
6.07553e-05
-0.000127847
7.3655e-05
-0.000157954
8.69628e-05
-0.000190785
9.98389e-05
-0.000225343
0.000111331
-0.000260506
0.000120596
-0.000295206
0.000126969
-0.000328532
0.000130064
-0.000359777
0.000129723
-0.000388424
0.000126002
-0.000414119
0.000119079
-0.00043664
0.000109234
-0.000455867
9.67779e-05
-0.000471762
8.20473e-05
-0.000484334
6.53578e-05
-0.000493619
4.70116e-05
-0.000499654
2.72762e-05
-0.000502447
6.40834e-06
-0.000501957
-1.5348e-05
-0.000498082
-3.77223e-05
-0.000490642
-6.04054e-05
-0.000479385
-8.29993e-05
-0.000464002
-0.000105
-0.000444162
-0.000125752
-0.000419569
-0.000144448
-0.000390052
-0.000160125
-0.000355662
-0.000171725
-0.000316795
-0.000178179
-0.000274277
-0.000178575
-0.000229411
-0.000172333
-0.000183915
-0.000159428
-0.00013976
-0.00014052
-9.88765e-05
-0.000117001
-6.28543e-05
-9.08118e-05
-3.26909e-05
-6.41295e-05
-8.7587e-06
-3.89299e-05
9.09741e-06
-1.67039e-05
2.13314e-05
1.67776e-06
2.85905e-05
1.58471e-05
3.15993e-05
2.58765e-05
3.11925e-05
3.21042e-05
2.82019e-05
3.51461e-05
2.34937e-05
3.56568e-05
1.78032e-05
3.43026e-05
1.18735e-05
3.1361e-05
6.3221e-06
2.67338e-05
2.02596e-06
1.95149e-05
8.42864e-06
-2.12433e-07
-1.49026e-06
-1.18717e-06
-1.33747e-06
-3.07631e-06
4.43532e-07
-6.08066e-06
3.69405e-06
-1.04181e-05
7.92163e-06
-1.63764e-05
1.32404e-05
-2.43028e-05
1.94926e-05
-3.46296e-05
2.69826e-05
-4.78691e-05
3.58821e-05
-6.45602e-05
4.65942e-05
-8.51789e-05
5.9235e-05
-0.000109996
7.37772e-05
-0.000138967
8.97314e-05
-0.00017164
0.000106336
-0.000207179
0.00012251
-0.000244464
0.000137134
-0.000282274
0.000149152
-0.000319457
0.000157792
-0.000355044
0.000162567
-0.000388275
0.000163309
-0.00041861
0.000160071
-0.000445701
0.000153106
-0.000469377
0.000142768
-0.000489615
0.000129485
-0.000506515
0.000113687
-0.000520251
9.57926e-05
-0.000531047
7.61584e-05
-0.000539127
5.50938e-05
-0.000544692
3.2838e-05
-0.000547881
9.59178e-06
-0.000548757
-1.4484e-05
-0.000547271
-3.92226e-05
-0.000543258
-6.44386e-05
-0.000536409
-8.98702e-05
-0.000526281
-0.000115154
-0.0005123
-0.00013976
-0.000493808
-0.000162969
-0.000470136
-0.000183826
-0.000440727
-0.000201163
-0.000405294
-0.000213639
-0.000364007
-0.000219885
-0.000317667
-0.000218693
-0.000267794
-0.000209315
-0.000216591
-0.000191735
-0.00016668
-0.000166918
-0.000120673
-0.000136823
-8.06357e-05
-0.000104164
-4.77302e-05
-7.18327e-05
-2.21387e-05
-4.22875e-05
-3.36959e-06
-1.70853e-05
9.41144e-06
3.07722e-06
1.70893e-05
1.8205e-05
2.0577e-05
2.86286e-05
2.07381e-05
3.49896e-05
1.84726e-05
3.79348e-05
1.45959e-05
3.81804e-05
9.96365e-06
3.60066e-05
5.34064e-06
3.13533e-05
1.68451e-06
2.31862e-05
1.01126e-05
-6.08878e-07
-8.85657e-07
-2.49268e-06
5.50833e-07
-5.66008e-06
3.60358e-06
-1.02533e-05
8.2906e-06
-1.65261e-05
1.41876e-05
-2.48331e-05
2.15489e-05
-3.56312e-05
3.02841e-05
-4.9456e-05
4.08069e-05
-6.68993e-05
5.33185e-05
-8.84827e-05
6.81755e-05
-0.000114532
8.52772e-05
-0.000145002
0.000104243
-0.00017941
0.000124131
-0.000216828
0.000143748
-0.000256028
0.000161701
-0.000295658
0.000176757
-0.000334444
0.000187927
-0.000371288
0.000194627
-0.000405338
0.000196606
-0.000435993
0.000193952
-0.000462909
0.000186974
-0.000485977
0.000176163
-0.000505298
0.000162077
-0.000521127
0.000145305
-0.000533827
0.000126379
-0.000543808
0.000105768
-0.000551486
8.38331e-05
-0.000557245
6.08536e-05
-0.000561413
3.70093e-05
-0.000564237
1.2423e-05
-0.000565869
-1.28416e-05
-0.000566345
-3.87319e-05
-0.000565568
-6.51988e-05
-0.000563279
-9.21408e-05
-0.000559031
-0.000119381
-0.000552174
-0.000146596
-0.000541849
-0.000173273
-0.00052702
-0.000198633
-0.000506565
-0.000221598
-0.000479422
-0.000240763
-0.000444827
-0.000254463
-0.000402591
-0.000260915
-0.00035339
-0.000258504
-0.000298962
-0.000246153
-0.000242091
-0.000223781
-0.000186279
-0.000192632
-0.000135061
-0.00015538
-9.11947e-05
-0.000115703
-5.60286e-05
-7.7457e-05
-2.95034e-05
-4.36185e-05
-1.06284e-05
-1.58028e-05
1.86079e-06
5.70605e-06
9.20555e-06
2.12796e-05
1.24778e-05
3.1707e-05
1.26921e-05
3.77184e-05
1.0758e-05
4.01037e-05
7.61258e-06
3.91529e-05
4.12677e-06
3.48268e-05
1.27767e-06
2.60394e-05
1.1382e-05
-1.11038e-06
2.21957e-07
-4.09642e-06
3.54791e-06
-8.76854e-06
8.26914e-06
-1.5195e-05
1.47269e-05
-2.36775e-05
2.26662e-05
-3.46448e-05
3.2525e-05
-4.86615e-05
4.42993e-05
-6.63294e-05
5.84831e-05
-8.82404e-05
7.52303e-05
-0.000114768
9.47107e-05
-0.000145933
0.000116445
-0.000181247
0.000139566
-0.000219749
0.000162637
-0.000260098
0.000184105
-0.00030081
0.000202419
-0.000340437
0.000216393
-0.00037773
0.000225226
-0.000411701
0.000228606
-0.000441684
0.000226597
-0.000467338
0.000219615
-0.000488637
0.000208282
-0.000505815
0.00019335
-0.000519297
0.000175566
-0.000529616
0.000155632
-0.000537351
0.000134119
-0.000543062
0.000111483
-0.00054726
8.80335e-05
-0.000550386
6.39796e-05
-0.000552801
3.94209e-05
-0.000554782
1.43989e-05
-0.000556525
-1.11069e-05
-0.000558134
-3.71333e-05
-0.00055961
-6.37362e-05
-0.00056082
-9.09447e-05
-0.000561466
-0.000118751
-0.000561029
-0.00014705
-0.000558724
-0.000175595
-0.000553465
-0.00020391
-0.000543869
-0.000231211
-0.000528336
-0.000256314
-0.000505225
-0.000277591
-0.000473158
-0.000292997
-0.000431428
-0.000300246
-0.000380451
-0.000297141
-0.000322116
-0.000282121
-0.00025987
-0.000254881
-0.000198287
-0.000216963
-0.000142099
-0.00017189
-9.4904e-05
-0.000124646
-5.82526e-05
-8.02667e-05
-3.16607e-05
-4.23876e-05
-1.35364e-05
-1.24146e-05
-2.05889e-06
9.81026e-06
4.33016e-06
2.53205e-05
6.95313e-06
3.51043e-05
6.91051e-06
4.01469e-05
5.24497e-06
4.08279e-05
2.91385e-06
3.71559e-05
8.82233e-07
2.80814e-05
1.22645e-05
-1.73593e-06
1.94935e-06
-6.02226e-06
7.84482e-06
-1.24142e-05
1.46466e-05
-2.08944e-05
2.32145e-05
-3.1824e-05
3.35839e-05
-4.57033e-05
4.64083e-05
-6.31795e-05
6.17653e-05
-8.48522e-05
8.01568e-05
-0.0001112
0.000101569
-0.000142305
0.000125815
-0.000177766
0.000151897
-0.000216599
0.000178397
-0.000257412
0.000203441
-0.000298565
0.000225254
-0.000338442
0.000242288
-0.000375601
0.000253546
-0.000408917
0.000258534
-0.000437645
0.000257328
-0.000461461
0.000250404
-0.000480428
0.000238575
-0.000494929
0.000222776
-0.000505561
0.000203976
-0.000513029
0.000183029
-0.00051805
0.00016065
-0.000521294
0.000137361
-0.000523343
0.000113531
-0.000524675
8.93669e-05
-0.00052567
6.4979e-05
-0.000526624
4.03811e-05
-0.000527762
1.55458e-05
-0.000529256
-9.60242e-06
-0.000531229
-3.51476e-05
-0.000533755
-6.11957e-05
-0.000536841
-8.78428e-05
-0.000540393
-0.000115183
-0.000544158
-0.000143267
-0.000547654
-0.000172081
-0.000550081
-0.000201466
-0.000550235
-0.000231041
-0.000546472
-0.000260062
-0.000536748
-0.000287302
-0.000518805
-0.00031093
-0.000490538
-0.000328505
-0.000450551
-0.000337124
-0.000398818
-0.000333851
-0.000337284
-0.000316414
-0.00027009
-0.000284156
-0.000203091
-0.000238891
-0.000142456
-0.000185282
-9.27597e-05
-0.000129967
-5.56022e-05
-7.95479e-05
-2.9884e-05
-3.81392e-05
-1.32326e-05
-6.84384e-06
-3.31379e-06
1.53947e-05
1.79459e-06
2.99943e-05
3.57522e-06
3.83589e-05
3.27368e-06
4.11297e-05
1.95969e-06
3.84618e-05
6.00663e-07
2.94421e-05
1.28596e-05
-2.46776e-06
4.41116e-06
-8.21471e-06
1.36116e-05
-1.64866e-05
2.29056e-05
-2.71725e-05
3.39169e-05
-4.07001e-05
4.7104e-05
-5.76234e-05
6.3345e-05
-7.86221e-05
8.27604e-05
-0.000104197
0.000105743
-0.000134588
0.000131959
-0.00016947
0.000160707
-0.000207961
0.000190389
-0.000248618
0.000219062
-0.000289716
0.000244542
-0.000329448
0.000264993
-0.000366196
0.00027904
-0.00039867
0.000286027
-0.000426051
0.00028592
-0.000448013
0.000279297
-0.000464719
0.000267115
-0.000476695
0.000250559
-0.000484716
0.000230802
-0.000489642
0.000208908
-0.000492321
0.000185711
-0.000493497
0.00016183
-0.000493786
0.000137651
-0.000493652
0.000113399
-0.00049344
8.91521e-05
-0.000493384
6.49197e-05
-0.000493651
4.06427e-05
-0.000494362
1.625e-05
-0.000495619
-8.35497e-06
-0.000497516
-3.32612e-05
-0.000500152
-5.85728e-05
-0.000503618
-8.43896e-05
-0.000507985
-0.000110829
-0.000513261
-0.000138005
-0.000519322
-0.000166032
-0.000525819
-0.000194981
-0.000532054
-0.000224817
-0.000536839
-0.000255286
-0.000538393
-0.000285756
-0.000534318
-0.000315013
-0.000521757
-0.000341071
-0.000497813
-0.000361074
-0.000460249
-0.000371419
-0.000408425
-0.000368242
-0.000344222
-0.00034836
-0.000272524
-0.000310589
-0.000200669
-0.000257134
-0.000136506
-0.000194127
-8.55557e-05
-0.000130493
-4.91823e-05
-7.451e-05
-2.53255e-05
-3.06956e-05
-1.08113e-05
8.82421e-07
-2.79086e-06
2.19795e-05
8.80438e-07
3.46883e-05
1.83689e-06
4.01794e-05
1.34932e-06
3.89486e-05
4.56673e-07
3.03414e-05
1.33171e-05
-3.30955e-06
7.70699e-06
-1.06543e-05
2.0975e-05
-2.09242e-05
3.31521e-05
-3.39089e-05
4.69144e-05
-5.00986e-05
6.3276e-05
-7.00631e-05
8.33166e-05
-9.44418e-05
0.000107125
-0.00012353
0.000134835
-0.000157224
0.000165641
-0.000194728
0.000198212
-0.000234697
0.000230348
-0.000275316
0.00025968
-0.000314666
0.000283883
-0.000350921
0.000301246
-0.000382644
0.000310755
-0.00040889
0.000312269
-0.00042933
0.000306353
-0.000444184
0.000294148
-0.000454127
0.000277052
-0.000460082
0.000256511
-0.000463071
0.000233786
-0.000464049
0.000209884
-0.000463832
0.000185492
-0.000463045
0.000161042
-0.00046213
0.000136735
-0.000461365
0.000112635
-0.000460911
8.86992e-05
-0.000460841
6.48544e-05
-0.000461191
4.09971e-05
-0.000461975
1.70413e-05
-0.000463221
-7.10162e-06
-0.000464975
-3.14976e-05
-0.000467321
-5.62173e-05
-0.000470374
-8.13255e-05
-0.000474283
-0.000106909
-0.000479205
-0.000133071
-0.000485273
-0.000159954
-0.00049252
-0.000187722
-0.000500781
-0.000216545
-0.00050953
-0.000246528
-0.000517696
-0.000277581
-0.000523473
-0.000309228
-0.000524218
-0.000340319
-0.00051654
-0.000368747
-0.000496735
-0.000391221
-0.000461636
-0.000403339
-0.000409863
-0.000400135
-0.000343167
-0.000377287
-0.000267277
-0.000333026
-0.000191288
-0.000270119
-0.000124902
-0.00019688
-7.43603e-05
-0.000125055
-4.02079e-05
-6.48499e-05
-1.91571e-05
-2.01726e-05
-7.23357e-06
1.00544e-05
-1.30316e-06
2.87533e-05
9.30739e-07
3.79451e-05
1.10771e-06
3.87663e-05
4.65267e-07
3.09847e-05
1.37785e-05
-4.21399e-06
1.19111e-05
-1.32196e-05
3.00108e-05
-2.55165e-05
4.54284e-05
-4.07895e-05
6.22115e-05
-5.95756e-05
8.205e-05
-8.24068e-05
0.000106167
-0.000109799
0.00013451
-0.000141744
0.000166795
-0.000177726
0.000201621
-0.000216481
0.000236979
-0.000256279
0.000270145
-0.000295067
0.000298478
-0.000330895
0.000319713
-0.000362113
0.000332472
-0.000387661
0.000336305
-0.000407121
0.000331737
-0.000420756
0.000319991
-0.000429325
0.000302724
-0.000433905
0.000281635
-0.000435645
0.000258257
-0.000435619
0.000233762
-0.000434696
0.000208964
-0.000433517
0.000184314
-0.000432489
0.000160016
-0.000431835
0.00013608
-0.000431632
0.000112431
-0.000431875
8.89386e-05
-0.000432507
6.54826e-05
-0.000433462
4.19468e-05
-0.000434682
1.82549e-05
-0.000436137
-5.65455e-06
-0.000437833
-2.98107e-05
-0.000439821
-5.42384e-05
-0.000442204
-7.89528e-05
-0.000445138
-0.000103985
-0.000448827
-0.000129392
-0.000453519
-0.000155272
-0.000459463
-0.000181788
-0.000466854
-0.000209163
-0.000475715
-0.000237675
-0.000485725
-0.000267578
-0.000495976
-0.000298981
-0.000504717
-0.000331582
-0.000509137
-0.000364329
-0.000505381
-0.000394977
-0.000488962
-0.000419759
-0.00045576
-0.000433337
-0.000403612
-0.000429436
-0.000334195
-0.000402444
-0.00025432
-0.000349993
-0.000175195
-0.000276003
-0.000108443
-0.000191803
-6.0373e-05
-0.000112917
-2.99534e-05
-5.05901e-05
-1.24586e-05
-7.4376e-06
-3.46569e-06
1.97615e-05
3.09471e-07
3.41737e-05
1.11977e-06
3.79556e-05
5.84716e-07
3.15246e-05
1.43638e-05
-5.16428e-06
1.70562e-05
-1.58454e-05
4.07194e-05
-3.01334e-05
5.96836e-05
-4.75994e-05
7.96964e-05
-6.87949e-05
0.000103221
-9.41507e-05
0.000131533
-0.000123979
0.00016432
-0.000157906
0.000200727
-0.000194993
0.000238694
-0.000233569
0.000275556
-0.000271639
0.000308204
-0.000307081
0.000333919
-0.000338104
0.000350726
-0.000363424
0.000357791
-0.000382523
0.000355396
-0.000395594
0.000344806
-0.000403461
0.000327852
-0.000407288
0.000306549
-0.000408365
0.000282706
-0.000407857
0.000257747
-0.00040671
0.000232612
-0.000405577
0.00020783
-0.000404852
0.000183586
-0.000404702
0.000159866
-0.000405149
0.000136525
-0.000406111
0.000113396
-0.000407471
9.03005e-05
-0.000409094
6.71095e-05
-0.000410863
4.37196e-05
-0.000412682
2.00797e-05
-0.000414493
-3.83737e-06
-0.000416273
-2.80232e-05
-0.000418045
-5.24586e-05
-0.000419877
-7.71124e-05
-0.000421893
-0.000101961
-0.000424276
-0.000127
-0.000427278
-0.000152262
-0.00043121
-0.000177849
-0.000436427
-0.000203939
-0.000443266
-0.00023083
-0.000451935
-0.000258903
-0.000462315
-0.000288598
-0.000473676
-0.000320218
-0.000484328
-0.000353674
-0.000491324
-0.000387979
-0.000490363
-0.000420716
-0.000476206
-0.000447492
-0.000443803
-0.000461838
-0.000390301
-0.000455949
-0.000317535
-0.000422763
-0.000233863
-0.000359679
-0.000153067
-0.000272601
-8.84299e-05
-0.000177554
-4.51334e-05
-9.38869e-05
-1.96981e-05
-3.28753e-05
-6.32302e-06
6.384e-06
-4.03952e-07
2.82536e-05
1.21348e-06
3.63344e-05
7.64062e-07
3.19749e-05
1.51249e-05
-6.08374e-06
2.31261e-05
-1.83545e-05
5.30306e-05
-3.44909e-05
7.57915e-05
-5.39376e-05
9.91748e-05
-7.72202e-05
0.000126487
-0.000104606
0.000158942
-0.000136143
0.000195848
-0.000171067
0.000235669
-0.000208056
0.00027568
-0.000245136
0.00031265
-0.000280207
0.000343273
-0.000311252
0.000364975
-0.000336819
0.000376294
-0.000356145
0.000377126
-0.000369325
0.000368578
-0.000377121
0.00035261
-0.000380777
0.000331511
-0.000381664
0.000307442
-0.000381072
0.000282115
-0.00038001
0.000256689
-0.00037918
0.000231783
-0.000378963
0.000207615
-0.000379503
0.000184126
-0.000380764
0.000161129
-0.000382624
0.000138383
-0.000384905
0.000115676
-0.000387433
9.28261e-05
-0.000390047
6.97201e-05
-0.000392616
4.62841e-05
-0.000395038
2.24975e-05
-0.00039725
-1.63218e-06
-0.000399214
-2.60655e-05
-0.000400932
-5.0748e-05
-0.000402438
-7.56138e-05
-0.000403812
-0.000100594
-0.000405183
-0.000125636
-0.000406748
-0.000150704
-0.00040878
-0.000175824
-0.00041164
-0.000201085
-0.000415767
-0.000226709
-0.000421633
-0.000253042
-0.000429621
-0.000280614
-0.000439813
-0.000310029
-0.000451638
-0.000341851
-0.000463451
-0.000376168
-0.00047211
-0.000412058
-0.000472832
-0.00044677
-0.000459593
-0.000475074
-0.000426494
-0.000489047
-0.000370211
-0.000479045
-0.000293251
-0.000436642
-0.000206267
-0.000359585
-0.000126085
-0.000257737
-6.6699e-05
-0.000153266
-3.02929e-05
-6.92804e-05
-1.07374e-05
-1.31697e-05
-1.69329e-06
1.92108e-05
1.15545e-06
3.34858e-05
9.27024e-07
3.22067e-05
1.60523e-05
-6.94377e-06
3.00456e-05
-2.06628e-05
6.67852e-05
-3.84386e-05
9.35254e-05
-5.95717e-05
0.000120332
-8.45137e-05
0.0001514
-0.000113319
0.000187762
-0.000145743
0.00022825
-0.000180655
0.000270588
-0.000216432
0.00031144
-0.000250934
0.000347155
-0.000282118
0.000374443
-0.000308237
0.000391095
-0.000328319
0.000396365
-0.000342183
0.000390989
-0.000350502
0.000376888
-0.000354469
0.000356576
-0.000355552
0.000332586
-0.000355119
0.000307008
-0.000354296
0.000281287
-0.00035383
0.000256222
-0.000354137
0.000232086
-0.000355341
0.000208818
-0.000357386
0.000186169
-0.000360101
0.000163844
-0.000363282
0.000141564
-0.000366717
0.000119113
-0.000370225
9.63359e-05
-0.000373651
7.31492e-05
-0.000376878
4.95146e-05
-0.000379817
2.54406e-05
-0.000382408
9.63783e-07
-0.000384614
-2.38539e-05
-0.000386423
-4.89328e-05
-0.000387845
-7.41853e-05
-0.000388921
-9.95125e-05
-0.000389723
-0.000124828
-0.000390377
-0.000150044
-0.000391071
-0.000175125
-0.000392088
-0.000200064
-0.000393814
-0.000224978
-0.000396761
-0.000250091
-0.000401515
-0.000275857
-0.000408634
-0.000302908
-0.000418383
-0.000332101
-0.000430337
-0.000364213
-0.000442824
-0.00039957
-0.000452418
-0.000437175
-0.000453717
-0.000473773
-0.000439868
-0.000502896
-0.000404212
-0.000514698
-0.000343403
-0.000497454
-0.000261464
-0.000441528
-0.000172425
-0.00034678
-9.63e-05
-0.00022939
-4.5513e-05
-0.000120066
-1.74974e-05
-4.11857e-05
-4.01758e-06
5.72804e-06
7.36002e-07
2.8731e-05
1.01144e-06
3.19307e-05
1.7062e-05
-7.65419e-06
3.76829e-05
-2.25786e-05
8.17586e-05
-4.16886e-05
0.0001126
-6.41206e-05
0.000142803
-9.02085e-05
0.000177467
-0.000119764
0.000217346
-0.000152252
0.000260726
-0.000186232
0.000304589
-0.000219893
0.000345095
-0.00025107
0.000378347
-0.000277923
0.000401294
-0.000299104
0.000412289
-0.000314184
0.000411445
-0.000323541
0.000400356
-0.000328301
0.00038165
-0.000329905
0.000358188
-0.000329845
0.000332527
-0.00032933
0.000306499
-0.000329221
0.000281179
-0.000329969
0.000256975
-0.00033173
0.000233849
-0.000334425
0.000211516
-0.000337869
0.000189613
-0.000341822
0.000167799
-0.000346059
0.000145799
-0.000350373
0.000123426
-0.000354604
0.000100565
-0.000358622
7.71654e-05
-0.000362335
5.32233e-05
-0.000365668
2.87703e-05
-0.000368574
3.86596e-06
-0.000371019
-2.14136e-05
-0.000372986
-4.69712e-05
-0.000374469
-7.27076e-05
-0.000375482
-9.85042e-05
-0.000376058
-0.000124257
-0.000376263
-0.000149844
-0.000376203
-0.000175189
-0.00037606
-0.000200211
-0.000376109
-0.000224934
-0.000376762
-0.00024944
-0.000378583
-0.000274039
-0.000382276
-0.000299217
-0.000388548
-0.000325831
-0.000397847
-0.000354916
-0.000409828
-0.000387589
-0.000422713
-0.000424292
-0.000432611
-0.000463874
-0.000433339
-0.000502167
-0.000417109
-0.000530924
-0.000376738
-0.000537824
-0.000309565
-0.000508701
-0.000222452
-0.000433898
-0.000134112
-0.00031773
-6.66259e-05
-0.000187549
-2.71906e-05
-8.06132e-05
-7.76594e-06
-1.37012e-05
-2.06418e-07
2.11752e-05
9.68698e-07
3.0755e-05
1.80322e-05
-8.19389e-06
4.58487e-05
-2.40411e-05
9.76469e-05
-4.41373e-05
0.000132648
-6.74359e-05
0.00016613
-9.41156e-05
0.000204113
-0.000123742
0.000246989
-0.000155523
0.000292481
-0.000187797
0.000336871
-0.00021868
0.000375959
-0.000246118
0.000405789
-0.00026859
0.000423751
-0.000285214
0.000428914
-0.000296089
0.000422309
-0.000302056
0.000406322
-0.000304529
0.000384113
-0.000305008
0.000358667
-0.000304857
0.000332368
-0.000305026
0.000306667
-0.000306086
0.000282233
-0.000308217
0.000259105
-0.000311374
0.000237
-0.000315345
0.000215487
-0.000319889
0.000194154
-0.000324749
0.00017266
-0.000329719
0.000150768
-0.000334621
0.00012833
-0.000339331
0.000105275
-0.000343744
8.15814e-05
-0.000347792
5.72735e-05
-0.000351417
3.23984e-05
-0.00035458
7.0322e-06
-0.000357248
-1.87409e-05
-0.000359405
-4.48107e-05
-0.000361035
-7.10728e-05
-0.00036214
-9.73944e-05
-0.000362727
-0.000123666
-0.000362824
-0.000149743
-0.000362479
-0.000175531
-0.000361787
-0.000200899
-0.000360906
-0.000225812
-0.000360113
-0.00025023
-0.000359832
-0.000274318
-0.000360692
-0.000298355
-0.000363497
-0.000323025
-0.00036912
-0.000349292
-0.000378132
-0.000378577
-0.00039022
-0.000412206
-0.000403306
-0.000450786
-0.000412845
-0.000492631
-0.000411613
-0.000532151
-0.000390892
-0.000558547
-0.000343372
-0.000556215
-0.000268311
-0.000508972
-0.000177225
-0.000408813
-9.45135e-05
-0.000270275
-4.04469e-05
-0.00013466
-1.31693e-05
-4.09908e-05
-1.7963e-06
9.80701e-06
7.85794e-07
2.81675e-05
1.88188e-05
-8.48287e-06
5.43132e-05
-2.48928e-05
0.000114111
-4.55672e-05
0.000153284
-6.92591e-05
0.000189864
-9.59681e-05
0.0002308
-0.000125032
0.000276083
-0.000155454
0.000322892
-0.00018545
0.00036689
-0.000213176
0.000403678
-0.000236792
0.000429423
-0.000255162
0.000442119
-0.000267874
0.00044164
-0.000275489
0.000429924
-0.000279165
0.00041001
-0.000280435
0.000385384
-0.000280712
0.000358953
-0.000281131
0.000332788
-0.000282356
0.000307899
-0.000284687
0.000284565
-0.000288096
0.000262519
-0.000292404
0.000241309
-0.000297341
0.000220428
-0.000302655
0.000199468
-0.000308114
0.000178121
-0.000313548
0.000156201
-0.000318817
0.0001336
-0.000323827
0.000110284
-0.0003285
8.62537e-05
-0.000332782
6.15534e-05
-0.000336624
3.62381e-05
-0.000339991
1.03963e-05
-0.000342851
-1.58838e-05
-0.000345185
-4.24801e-05
-0.000346976
-6.92854e-05
-0.00034822
-9.61538e-05
-0.000348915
-0.000122975
-0.000349071
-0.00014959
-0.000348705
-0.000175901
-0.000347858
-0.000201748
-0.000346603
-0.00022707
-0.000345092
-0.000251743
-0.000343585
-0.000275828
-0.000342539
-0.000299402
-0.000342637
-0.000322928
-0.000344818
-0.000347112
-0.000350085
-0.00037331
-0.000359125
-0.000403167
-0.000371478
-0.000438432
-0.00038458
-0.000479532
-0.000392864
-0.000523861
-0.000387905
-0.000563508
-0.000360123
-0.000583986
-0.000303015
-0.000566088
-0.000219564
-0.000492261
-0.000128364
-0.000361491
-5.81983e-05
-0.000204809
-2.03163e-05
-7.88719e-05
-4.18206e-06
-6.32619e-06
4.697e-07
2.35122e-05
1.92915e-05
-8.52632e-06
6.28096e-05
-2.51316e-05
0.000130759
-4.59714e-05
0.000174073
-6.95908e-05
0.000213513
-9.5799e-05
0.000256972
-0.000123743
0.000304043
-0.000152292
0.000351414
-0.000179633
0.000394239
-0.000204054
0.000428079
-0.000224004
0.000449376
-0.000238747
0.000456846
-0.0002483
0.000451194
-0.00025357
0.000435181
-0.000255887
0.000412325
-0.000256758
0.000386244
-0.000257409
0.000359603
-0.000258709
0.000334078
-0.000261051
0.00031024
-0.000264521
0.000288027
-0.000268947
0.000266944
-0.000274089
0.000246446
-0.000279666
0.000226004
-0.000285453
0.000205252
-0.000291259
0.000183927
-0.000296955
0.000161895
-0.000302437
0.000139082
-0.000307637
0.000115483
-0.000312491
9.11091e-05
-0.000316953
6.60164e-05
-0.000320975
4.02621e-05
-0.000324521
1.39446e-05