/*--------------------------------*- C++ -*----------------------------------*\
| =========                 |                                                 |
| \\      /  F ield         | OpenFOAM: The Open Source CFD Toolbox           |
|  \\    /   O peration     | Version:  2406                                  |
|   \\  /    A nd           | Website:  www.openfoam.com                      |
|    \\/     M anipulation  |                                                 |
\*---------------------------------------------------------------------------*/
FoamFile
{
    version     2.0;
    format      ascii;
    arch        "LSB;label=32;scalar=64";
    class       volScalarField;
    location    "15.8";
    object      p;
}
// * * * * * * * * * * * * * * * * * * * * * * * * * * * * * * * * * * * * * //

dimensions      [0 2 -2 0 0 0 0];

internalField   nonuniform List<scalar> 
14400
(
-1.14081e-08
-4.4618e-07
-2.29442e-06
-5.83803e-06
-1.06878e-05
-1.64905e-05
-2.29971e-05
-3.00043e-05
-3.73764e-05
-4.50369e-05
-5.29511e-05
-6.11118e-05
-6.95268e-05
-7.82088e-05
-8.71678e-05
-9.64067e-05
-0.000105918
-0.000115682
-0.000125669
-0.000135835
-0.000146127
-0.000156482
-0.000166829
-0.000177089
-0.000187176
-0.000196998
-0.000206455
-0.000215444
-0.000223852
-0.000231563
-0.000238453
-0.000244389
-0.000249235
-0.000252844
-0.000255064
-0.000255732
-0.000254683
-0.000251739
-0.00024672
-0.000239436
-0.000229695
-0.000217301
-0.000202055
-0.000183759
-0.000162221
-0.000137252
-0.000108676
-7.63333e-05
-4.0083e-05
1.8708e-07
4.45559e-05
9.30617e-05
0.000145694
0.000202388
0.000263013
0.000327369
0.000395178
0.000466078
0.00053962
0.000615296
0.000692427
0.000770325
0.000848193
0.00092516
0.00100029
0.00107261
0.00114111
0.00120476
0.00126257
0.00131358
0.00135687
0.00139165
0.00141721
0.001433
0.0014386
0.00143379
0.00141849
0.00139282
0.0013571
0.0013118
0.00125754
0.00119511
0.00112539
0.00104937
0.000968107
0.000882687
0.000794207
0.000703748
0.000612348
0.000520984
0.000430552
0.000341863
0.00025562
0.000172356
9.26611e-05
1.69035e-05
-5.46495e-05
-0.000121796
-0.000184418
-0.000242473
-0.000295977
-0.000345
-0.00038965
-0.000430065
-0.000466402
-0.000498827
-0.000527509
-0.00055261
-0.000574278
-0.000592643
-0.000607815
-0.000619886
-0.000628934
-0.000635038
-0.000638309
-0.000638935
-0.000637262
-0.000633916
-0.000629913
-0.000626943
4.14035e-07
-3.51882e-08
-1.72544e-06
-4.99508e-06
-9.45989e-06
-1.48577e-05
-2.09511e-05
-2.75676e-05
-3.45895e-05
-4.19448e-05
-4.95963e-05
-5.75299e-05
-6.5745e-05
-7.42452e-05
-8.30326e-05
-9.21031e-05
-0.000101444
-0.000111032
-0.000120833
-0.000130804
-0.000140891
-0.000151031
-0.000161155
-0.000171182
-0.00018103
-0.000190606
-0.000199814
-0.000208549
-0.000216701
-0.000224155
-0.000230788
-0.00023647
-0.000241065
-0.000244429
-0.000246412
-0.000246856
-0.000245596
-0.000242462
-0.000237274
-0.000229852
-0.000220006
-0.000207548
-0.000192284
-0.000174025
-0.000152584
-0.00012778
-9.9445e-05
-6.7424e-05
-3.15842e-05
8.18155e-06
5.19475e-05
9.97485e-05
0.000151572
0.000207352
0.000266961
0.0003302
0.000396799
0.000466405
0.00053858
0.00061278
0.000688425
0.000764798
0.000841119
0.000916536
0.000990136
0.00106096
0.00112801
0.00119031
0.00124685
0.00129669
0.00133895
0.00137284
0.00139767
0.00141288
0.00141809
0.00141305
0.00139771
0.00137219
0.00133679
0.00129198
0.00123839
0.00117678
0.00110803
0.00103311
0.000953055
0.000868941
0.00078184
0.000692813
0.000602875
0.000512982
0.000424009
0.000336737
0.000251851
0.000169984
9.1558e-05
1.69499e-05
-5.35385e-05
-0.000119713
-0.000181462
-0.000238741
-0.000291566
-0.00034
-0.000384148
-0.000424142
-0.000460133
-0.000492282
-0.000520755
-0.00054571
-0.000567297
-0.000585652
-0.000600893
-0.000613123
-0.000622437
-0.000628934
-0.000632738
-0.000634037
-0.000633151
-0.000630591
-0.000626946
-0.00062397
2.30896e-06
1.62682e-06
-1.28628e-07
-3.24313e-06
-7.38355e-06
-1.23592e-05
-1.79997e-05
-2.41715e-05
-3.07796e-05
-3.77633e-05
-4.5087e-05
-5.27328e-05
-6.06924e-05
-6.89613e-05
-7.75331e-05
-8.63964e-05
-9.55323e-05
-0.000104913
-0.000114502
-0.000124253
-0.000134113
-0.000144018
-0.000153898
-0.000163677
-0.00017327
-0.000182589
-0.000191537
-0.000200012
-0.000207906
-0.000215104
-0.000221486
-0.000226925
-0.000231285
-0.000234428
-0.000236205
-0.000236463
-0.000235042
-0.000231775
-0.000226489
-0.000219009
-0.000209154
-0.00019674
-0.000181583
-0.000163499
-0.00014231
-0.000117842
-8.9932e-05
-5.84331e-05
-2.32168e-05
1.58203e-05
5.87501e-05
0.000105606
0.000156378
0.000211003
0.000269357
0.00033125
0.000396421
0.000464529
0.000535149
0.000607761
0.000681779
0.00075652
0.000831219
0.000905041
0.000977091
0.00104643
0.00111207
0.00117305
0.00122838
0.00127713
0.00131842
0.00135148
0.00137563
0.00139031
0.00139513
0.00138987
0.00137446
0.00134903
0.00131389
0.00126949
0.00121646
0.00115555
0.00108765
0.00101372
0.00093478
0.000851885
0.000766101
0.00067847
0.000589992
0.000501603
0.000414158
0.000328425
0.000245072
0.000164674
8.7666e-05
1.44292e-05
-5.47625e-05
-0.000119727
-0.000180358
-0.000236616
-0.000288518
-0.000336128
-0.000379549
-0.00041891
-0.00045436
-0.000486056
-0.000514164
-0.000538841
-0.000560242
-0.000578506
-0.000593762
-0.000606128
-0.000615711
-0.000622626
-0.000626998
-0.000628996
-0.000628881
-0.000626991
-0.000623331
-0.00061997
6.0256e-06
4.92444e-06
2.83009e-06
-3.85405e-07
-4.47333e-06
-9.27501e-06
-1.46671e-05
-2.05531e-05
-2.68651e-05
-3.35602e-05
-4.0614e-05
-4.80135e-05
-5.57512e-05
-6.38209e-05
-7.22129e-05
-8.09121e-05
-8.98958e-05
-9.91332e-05
-0.000108585
-0.000118203
-0.000127933
-0.000137711
-0.000147467
-0.000157125
-0.000166602
-0.00017581
-0.000184654
-0.000193033
-0.000200842
-0.000207967
-0.000214289
-0.000219684
-0.000224021
-0.000227161
-0.000228961
-0.000229269
-0.000227931
-0.000224783
-0.000219658
-0.000212383
-0.000202784
-0.00019068
-0.000175893
-0.000158242
-0.000137552
-0.000113651
-8.63783e-05
-5.55857e-05
-2.11432e-05
1.70557e-05
5.90881e-05
0.000104995
0.000154774
0.000208371
0.000265677
0.000326514
0.000390633
0.000457706
0.000527323
0.000598988
0.000672112
0.000746026
0.000819975
0.000893131
0.000964602
0.00103344
0.00109868
0.00115933
0.0012144
0.00126296
0.00130411
0.00133707
0.00136114
0.00137576
0.00138053
0.00137522
0.00135977
0.00133429
0.00129909
0.00125465
0.00120159
0.00114068
0.00107281
0.000998962
0.000920167
0.000837496
0.000752022
0.000664792
0.000576812
0.000489015
0.000402255
0.000317292
0.000234781
0.000155273
7.92177e-05
6.97048e-06
-6.12199e-05
-0.000125184
-0.00018483
-0.000240129
-0.000291112
-0.000337852
-0.000380461
-0.000419074
-0.000453846
-0.000484942
-0.000512529
-0.000536773
-0.000557833
-0.000575854
-0.000590973
-0.000603309
-0.000612974
-0.000620073
-0.000624707
-0.000626993
-0.000627109
-0.000625223
-0.000620874
-0.000616697
1.12182e-05
9.52592e-06
6.83041e-06
3.34506e-06
-8.40718e-07
-5.60627e-06
-1.08625e-05
-1.65502e-05
-2.2632e-05
-2.90871e-05
-3.59067e-05
-4.30877e-05
-5.06283e-05
-5.8524e-05
-6.67651e-05
-7.53349e-05
-8.42083e-05
-9.33525e-05
-0.000102726
-0.000112279
-0.000121956
-0.000131692
-0.000141418
-0.000151058
-0.000160531
-0.000169748
-0.000178616
-0.000187037
-0.000194906
-0.000202113
-0.000208541
-0.000214067
-0.000218563
-0.000221895
-0.000223922
-0.000224496
-0.000223466
-0.000220673
-0.000215954
-0.000209141
-0.000200061
-0.000188538
-0.000174396
-0.000157456
-0.000137542
-0.000114482
-8.81121e-05
-5.82786e-05
-2.4845e-05
1.23042e-05
5.32571e-05
9.80675e-05
0.000146748
0.000199261
0.000255513
0.000315345
0.000378525
0.000444743
0.000513602
0.00058462
0.00065722
0.00073074
0.000804428
0.000877457
0.000948928
0.00101789
0.00108335
0.00114431
0.00119976
0.00124874
0.00129034
0.00132374
0.00134821
0.00136319
0.00136825
0.00136313
0.00134778
0.00132229
0.00128699
0.00124234
0.001189
0.00112775
0.0010595
0.000985259
0.000906085
0.000823076
0.000737329
0.000649917
0.000561862
0.000474111
0.000387528
0.000302872
0.000220799
0.000141854
6.64743e-05
-5.00778e-06
-7.23543e-05
-0.000135415
-0.000194117
-0.000248453
-0.000298471
-0.000344261
-0.000385949
-0.000423687
-0.000457641
-0.000487987
-0.000514902
-0.00053856
-0.000559129
-0.000576761
-0.000591595
-0.000603754
-0.000613343
-0.000620451
-0.000625147
-0.000627493
-0.000627583
-0.000625457
-0.000620301
-0.000615293
1.75369e-05
1.51316e-05
1.16588e-05
7.757e-06
3.3511e-06
-1.48381e-06
-6.69369e-06
-1.22571e-05
-1.8169e-05
-2.44337e-05
-3.10608e-05
-3.80605e-05
-4.54394e-05
-5.31979e-05
-6.13283e-05
-6.9814e-05
-7.86295e-05
-8.77401e-05
-9.7103e-05
-0.000106668
-0.000116377
-0.000126166
-0.000135967
-0.000145702
-0.000155291
-0.000164649
-0.000173683
-0.000182296
-0.000190387
-0.000197846
-0.00020456
-0.00021041
-0.000215269
-0.000219008
-0.000221489
-0.00022257
-0.000222101
-0.00021993
-0.000215897
-0.000209836
-0.000201579
-0.000190952
-0.000177777
-0.000161878
-0.000143073
-0.000121188
-9.60514e-05
-6.75002e-05
-3.53859e-05
4.20977e-07
4.00252e-05
8.34993e-05
0.000130876
0.00018214
0.00023722
0.000295979
0.000358207
0.000423614
0.000491822
0.000562361
0.000634669
0.000708087
0.000781867
0.000855176
0.000927106
0.000996691
0.00106292
0.00112476
0.00118118
0.00123118
0.00127382
0.00130823
0.00133366
0.0013495
0.00135529
0.00135077
0.00133582
0.00131057
0.00127531
0.00123052
0.00117687
0.00111516
0.00104634
0.000971441
0.00089156
0.000807835
0.000721403
0.000633374
0.0005448
0.000456659
0.000369832
0.000285095
0.000203108
0.000124416
4.94483e-05
-2.14741e-05
-8.81307e-05
-0.000150392
-0.000208207
-0.000261591
-0.000310617
-0.000355397
-0.00039608
-0.000432835
-0.000465847
-0.000495309
-0.000521411
-0.000544341
-0.000564273
-0.00058137
-0.000595773
-0.000607605
-0.000616963
-0.000623919
-0.00062851
-0.000630746
-0.000630659
-0.000628191
-0.000622274
-0.000616539
2.46488e-05
2.14256e-05
1.7051e-05
1.26278e-05
7.90779e-06
2.92033e-06
-2.31649e-06
-7.81989e-06
-1.36187e-05
-1.97438e-05
-2.62254e-05
-3.3089e-05
-4.03516e-05
-4.80203e-05
-5.60912e-05
-6.45496e-05
-7.33699e-05
-8.25174e-05
-9.19483e-05
-0.000101612
-0.000111449
-0.000121397
-0.000131385
-0.00014134
-0.000151181
-0.000160823
-0.000170177
-0.000179148
-0.000187636
-0.000195535
-0.000202736
-0.000209121
-0.000214571
-0.000218958
-0.00022215
-0.000224008
-0.00022439
-0.000223146
-0.000220121
-0.000215154
-0.000208077
-0.000198718
-0.000186901
-0.000172443
-0.000155162
-0.000134873
-0.000111395
-8.45517e-05
-5.41787e-05
-2.01269e-05
1.77302e-05
5.94896e-05
0.00010521
0.000154905
0.00020853
0.000265976
0.000327062
0.000391523
0.000459002
0.00052905
0.000601118
0.000674557
0.000748623
0.000822479
0.000895207
0.000965822
0.00103329
0.00109655
0.00115452
0.00120617
0.00125051
0.00128662
0.00131369
0.00133108
0.00133827
0.00133494
0.00132098
0.00129645
0.00126166
0.00121707
0.00116336
0.00110136
0.00103203
0.00095644
0.000875746
0.000791129
0.000703776
0.000614845
0.000525438
0.000436573
0.000349165
0.000264015
0.000181803
0.00010308
2.82775e-05
-4.22924e-05
-0.000108424
-0.000170006
-0.000227012
-0.000279482
-0.000327517
-0.000371256
-0.000410873
-0.000446563
-0.000478535
-0.000506999
-0.000532166
-0.000554237
-0.0005734
-0.000589825
-0.000603659
-0.000615024
-0.000624009
-0.000630671
-0.00063502
-0.000637025
-0.000636668
-0.000633824
-0.000627252
-0.000620923
3.21941e-05
2.80808e-05
2.27168e-05
1.77009e-05
1.26016e-05
7.40169e-06
2.08236e-06
-3.41353e-06
-9.14963e-06
-1.51844e-05
-2.15698e-05
-2.83475e-05
-3.55463e-05
-4.3181e-05
-5.12527e-05
-5.9749e-05
-6.86461e-05
-7.79091e-05
-8.74946e-05
-9.73511e-05
-0.000107421
-0.00011764
-0.000127939
-0.000138245
-0.00014848
-0.00015856
-0.000168399
-0.000177903
-0.000186977
-0.000195519
-0.000203422
-0.000210576
-0.000216865
-0.000222166
-0.000226355
-0.000229298
-0.00023086
-0.000230896
-0.000229257
-0.000225785
-0.000220316
-0.000212681
-0.0002027
-0.000190189
-0.000174957
-0.000156813
-0.000135559
-0.000111006
-8.2967e-05
-5.12696e-05
-1.57603e-05
2.3688e-05
6.71669e-05
0.000114723
0.000166349
0.000221973
0.000281447
0.000344541
0.000410931
0.000480196
0.000551809
0.00062514
0.000699456
0.000773922
0.000847617
0.000919542
0.000988637
0.00105381
0.00111394
0.00116794
0.00121476
0.00125342
0.00128305
0.00130293
0.00131248
0.00131132
0.00129927
0.00127637
0.00124286
0.00119921
0.00114608
0.00108431
0.00101488
0.000938916
0.000857605
0.000772187
0.000683912
0.000594
0.000503613
0.000413828
0.000325609
0.0002398
0.000157111
7.81135e-05
3.24925e-06
-6.71689e-05
-0.000132944
-0.000193981
-0.000250276
-0.000301896
-0.000348967
-0.000391662
-0.000430184
-0.000464756
-0.000495613
-0.000522992
-0.000547124
-0.000568228
-0.000586507
-0.000602141
-0.000615285
-0.00062606
-0.000634552
-0.000640806
-0.000644809
-0.000646502
-0.000645829
-0.000642621
-0.00063552
-0.000628735
3.98076e-05
3.47561e-05
2.83447e-05
2.26904e-05
1.71701e-05
1.17175e-05
6.27517e-06
7.44708e-07
-4.97318e-06
-1.0965e-05
-1.73048e-05
-2.40508e-05
-3.12439e-05
-3.89072e-05
-4.7047e-05
-5.56545e-05
-6.47074e-05
-7.41722e-05
-8.40057e-05
-9.4157e-05
-0.000104569
-0.000115178
-0.000125917
-0.000136714
-0.000147492
-0.000158171
-0.000168668
-0.000178893
-0.000188754
-0.000198156
-0.000206996
-0.000215172
-0.000222574
-0.000229089
-0.000234599
-0.00023898
-0.000242105
-0.000243837
-0.000244034
-0.000242547
-0.000239215
-0.00023387
-0.000226336
-0.000216423
-0.000203936
-0.000188671
-0.00017042
-0.00014897
-0.000124115
-9.56523e-05
-6.33973e-05
-2.71865e-05
1.31119e-05
5.75882e-05
0.000106281
0.000159165
0.000216143
0.000277032
0.000341557
0.000409339
0.000479895
0.000552626
0.000626828
0.000701686
0.000776285
0.000849623
0.000920624
0.000988164
0.00105109
0.00110825
0.00115852
0.00120085
0.00123428
0.00125799
0.00127132
0.00127378
0.00126512
0.00124528
0.00121444
0.00117304
0.00112168
0.00106121
0.000992624
0.000917056
0.000835748
0.00075
0.00066113
0.000570436
0.000479156
0.000388442
0.000299329
0.000212722
0.00012938
4.99139e-05
-2.52112e-05
-9.56696e-05
-0.000161263
-0.000221907
-0.000277613
-0.000328474
-0.000374644
-0.000416327
-0.000453758
-0.000487192
-0.000516895
-0.000543131
-0.000566156
-0.000586211
-0.000603516
-0.000618265
-0.00063062
-0.000640708
-0.000648613
-0.000654371
-0.000657956
-0.000659287
-0.000658283
-0.000654744
-0.000647242
-0.00064013
4.71175e-05
4.1097e-05
3.36022e-05
2.72835e-05
2.13181e-05
1.55875e-05
9.99327e-06
4.39419e-06
-1.3454e-06
-7.34011e-06
-1.36859e-05
-2.04575e-05
-2.77075e-05
-3.54673e-05
-4.37488e-05
-5.25467e-05
-6.18411e-05
-7.15997e-05
-8.17805e-05
-9.23338e-05
-0.000103203
-0.000114327
-0.00012564
-0.000137072
-0.00014855
-0.000159997
-0.000171334
-0.000182477
-0.000193341
-0.000203837
-0.000213872
-0.000223351
-0.000232176
-0.000240245
-0.000247452
-0.000253687
-0.000258832
-0.000262765
-0.000265356
-0.000266464
-0.000265939
-0.000263619
-0.00025933
-0.000252884
-0.000244082
-0.000232709
-0.000218545
-0.000201358
-0.000180915
-0.000156984
-0.000129342
-9.77809e-05
-6.21201e-05
-2.22129e-05
2.20399e-05
7.06797e-05
0.000123677
0.000180922
0.00024221
0.000307234
0.000375578
0.000446709
0.000519973
0.000594603
0.000669715
0.000744324
0.000817355
0.000887662
0.000954054
0.00101532
0.00107026
0.00111773
0.00115665
0.00118608
0.00120522
0.00121345
0.00121038
0.00119582
0.00116986
0.00113282
0.00108524
0.00102791
0.000961821
0.000888107
0.000808045
0.000722991
0.000634338
0.000543471
0.000451725
0.00036035
0.000270476
0.000183093
9.90378e-05
1.89828e-05
-5.65602e-05
-0.000127234
-0.000192825
-0.000253245
-0.000308514
-0.000358744
-0.000404115
-0.00044486
-0.000481247
-0.000513565
-0.000542114
-0.000567187
-0.000589069
-0.000608025
-0.000624297
-0.000638094
-0.000649592
-0.000658922
-0.000666172
-0.000671374
-0.000674494
-0.000675437
-0.000674106
-0.00067028
-0.00066249
-0.000655166
5.37412e-05
4.67328e-05
3.81349e-05
3.11409e-05
2.47196e-05
1.8697e-05
1.29306e-05
7.2349e-06
1.43732e-06
-4.60482e-06
-1.10088e-05
-1.78653e-05
-2.52381e-05
-3.31664e-05
-4.16676e-05
-5.07398e-05
-6.03655e-05
-7.05144e-05
-8.1146e-05
-9.22121e-05
-0.000103658
-0.000115425
-0.00012745
-0.000139666
-0.000152005
-0.000164396
-0.000176766
-0.000189039
-0.000201138
-0.000212985
-0.000224501
-0.000235603
-0.000246208
-0.000256231
-0.000265583
-0.000274172
-0.000281901
-0.000288666
-0.000294354
-0.000298844
-0.000302001
-0.000303675
-0.000303704
-0.000301905
-0.00029808
-0.000292012
-0.000283468
-0.0002722
-0.000257947
-0.000240443
-0.00021942
-0.000194617
-0.000165789
-0.000132715
-9.52124e-05
-5.3148e-05
-6.45109e-06
4.4873e-05
0.00010073
0.000160925
0.000225149
0.000292974
0.000363845
0.000437075
0.00051185
0.000587234
0.000662177
0.000735533
0.000806084
0.000872562
0.000933681
0.000988176
0.00103484
0.00107255
0.00110033
0.00111738
0.00112309
0.0011171
0.00109931
0.00106985
0.00102917
0.000977928
0.000917042
0.000847628
0.000770965
0.000688451
0.000601552
0.00051175
0.000420494
0.000329157
0.000238997
0.000151125
6.64886e-05
-1.41424e-05
-9.01776e-05
-0.0001612
-0.000226955
-0.000287331
-0.000342344
-0.00039211
-0.000436828
-0.000476757
-0.000512197
-0.000543471
-0.000570911
-0.000594845
-0.00061559
-0.000633438
-0.000648654
-0.000661469
-0.000672071
-0.000680604
-0.000687159
-0.000691773
-0.000694406
-0.000694955
-0.000693311
-0.000689246
-0.000681269
-0.000673828
5.92814e-05
5.12755e-05
4.15668e-05
3.38972e-05
2.70193e-05
2.06986e-05
1.47459e-05
8.93006e-06
3.04079e-06
-3.09221e-06
-9.60696e-06
-1.66089e-05
-2.41724e-05
-3.23438e-05
-4.11453e-05
-5.05786e-05
-6.06284e-05
-7.12667e-05
-8.24549e-05
-9.41469e-05
-0.000106291
-0.000118831
-0.000131709
-0.000144864
-0.000158232
-0.000171752
-0.000185359
-0.00019899
-0.000212581
-0.000226069
-0.000239392
-0.000252488
-0.000265295
-0.000277753
-0.000289799
-0.000301368
-0.000312391
-0.000322794
-0.000332494
-0.000341398
-0.000349398
-0.000356371
-0.000362175
-0.000366644
-0.000369592
-0.000370805
-0.000370044
-0.000367047
-0.000361527
-0.000353177
-0.000341675
-0.000326691
-0.000307895
-0.000284966
-0.000257604
-0.000225546
-0.000188577
-0.000146548
-9.93916e-05
-4.71358e-05
1.00773e-05
7.19803e-05
0.000138172
0.000208104
0.000281079
0.000356254
0.000432643
0.000509131
0.000584489
0.000657401
0.000726493
0.000790367
0.00084764
0.000896991
0.000937203
0.000967206
0.000986124
0.000993309
0.000988375
0.000971219
0.000942031
0.000901297
0.00084978
0.000788501
0.000718693
0.000641763
0.000559231
0.000472676
0.000383675
0.000293754
0.000204334
0.000116692
3.19356e-05
-4.9021e-05
-0.000125461
-0.000196866
-0.000262902
-0.000323404
-0.000378354
-0.000427858
-0.000472117
-0.000511408
-0.000546054
-0.00057641
-0.000602842
-0.000625715
-0.000645377
-0.000662153
-0.000676333
-0.000688173
-0.000697878
-0.000705607
-0.000711462
-0.000715481
-0.000717626
-0.000717792
-0.000715865
-0.000711606
-0.000703531
-0.000696053
6.33246e-05
5.43191e-05
4.35006e-05
3.51631e-05
2.78342e-05
2.12148e-05
1.5066e-05
9.10914e-06
3.09621e-06
-3.17035e-06
-9.84829e-06
-1.70569e-05
-2.48799e-05
-3.33702e-05
-4.25541e-05
-5.24363e-05
-6.30041e-05
-7.42317e-05
-8.60829e-05
-9.85149e-05
-0.00011148
-0.000124926
-0.000138802
-0.000153053
-0.000167628
-0.000182474
-0.000197541
-0.000212783
-0.000228155
-0.000243617
-0.000259132
-0.000274666
-0.00029019
-0.000305678
-0.000321105
-0.000336448
-0.000351681
-0.000366775
-0.000381692
-0.000396385
-0.000410792
-0.000424832
-0.000438401
-0.000451368
-0.000463571
-0.000474811
-0.000484854
-0.000493423
-0.000500203
-0.000504838
-0.000506938
-0.000506079
-0.000501813
-0.00049368
-0.000481217
-0.000463975
-0.000441534
-0.000413527
-0.000379653
-0.000339703
-0.00029358
-0.000241315
-0.00018309
-0.000119247
-5.03012e-05
2.30536e-05
9.9944e-05
0.000179324
0.000259989
0.000340591
0.000419671
0.000495691
0.000567072
0.000632241
0.000689684
0.000737992
0.00077592
0.000802432
0.000816748
0.000818381
0.000807164
0.000783264
0.00074718
0.00069973
0.000642016
0.000575384
0.000501366
0.000421615
0.000337843
0.000251747
0.000164953
7.89576e-05
-4.91241e-06
-8.55319e-05
-0.000161994
-0.000233615
-0.000299926
-0.00036066
-0.000415727
-0.000465186
-0.000509218
-0.000548097
-0.000582162
-0.00061179
-0.00063738
-0.000659328
-0.00067802
-0.000693811
-0.000707025
-0.000717942
-0.000726791
-0.000733747
-0.000738925
-0.000742372
-0.000744053
-0.000743865
-0.00074169
-0.000737289
-0.00072919
-0.000721741
6.54404e-05
5.54387e-05
4.35185e-05
3.45259e-05
2.67563e-05
1.9841e-05
1.34884e-05
7.37131e-06
1.20375e-06
-5.23849e-06
-1.21318e-05
-1.96081e-05
-2.77596e-05
-3.66444e-05
-4.62925e-05
-5.67113e-05
-6.78905e-05
-7.98069e-05
-9.24275e-05
-0.000105713
-0.000119622
-0.00013411
-0.000149132
-0.000164647
-0.000180616
-0.000197004
-0.00021378
-0.000230922
-0.000248413
-0.000266244
-0.000284415
-0.000302933
-0.000321815
-0.000341086
-0.000360777
-0.000380923
-0.000401563
-0.000422735
-0.000444471
-0.000466794
-0.000489714
-0.000513217
-0.00053726
-0.000561769
-0.000586623
-0.000611655
-0.000636638
-0.000661285
-0.000685245
-0.000708095
-0.000729346
-0.000748445
-0.00076478
-0.000777693
-0.000786493
-0.000790471
-0.000788926
-0.000781189
-0.000766642
-0.000744754
-0.000715103
-0.000677404
-0.000631537
-0.000577563
-0.000515746
-0.000446566
-0.000370725
-0.000289148
-0.000202978
-0.000113561
-2.242e-05
6.87674e-05
0.000158214
0.000244069
0.000324467
0.000397589
0.000461725
0.000515337
0.000557116
0.000586042
0.000601429
0.000602958
0.000590701
0.000565117
0.000527038
0.000477635
0.000418363
0.000350893
0.000277044
0.000198692
0.000117701
3.58399e-05
-4.52709e-05
-0.000124214
-0.000199804
-0.000271108
-0.000337441
-0.000398362
-0.000453643
-0.000503249
-0.000547299
-0.000586035
-0.000619786
-0.000648941
-0.000673918
-0.000695146
-0.000713042
-0.000727999
-0.000740371
-0.000750468
-0.000758546
-0.000764801
-0.000769362
-0.00077229
-0.000773556
-0.000773061
-0.000770686
-0.000766193
-0.000758136
-0.00075077
6.51814e-05
5.41919e-05
4.11835e-05
3.15521e-05
2.33545e-05
1.61477e-05
9.58482e-06
3.28896e-06
-3.06374e-06
-9.72331e-06
-1.68837e-05
-2.46882e-05
-3.3236e-05
-4.259e-05
-5.27829e-05
-6.38245e-05
-7.57071e-05
-8.84103e-05
-0.000101906
-0.00011616
-0.000131137
-0.000146805
-0.00016313
-0.000180088
-0.000197659
-0.000215831
-0.000234603
-0.000253984
-0.000273999
-0.000294681
-0.000316083
-0.000338272
-0.000361327
-0.000385348
-0.000410443
-0.000436736
-0.000464359
-0.000493447
-0.000524135
-0.000556552
-0.00059081
-0.000626994
-0.000665157
-0.000705301
-0.000747372
-0.000791241
-0.000836695
-0.000883427
-0.000931027
-0.000978974
-0.00102663
-0.00107327
-0.00111803
-0.00115998
-0.00119812
-0.00123138
-0.0012587
-0.001279
-0.00129126
-0.00129453
-0.00128799
-0.00127093
-0.00124288
-0.00120352
-0.00115282
-0.00109095
-0.00101841
-0.000935927
-0.000844538
-0.00074554
-0.000640487
-0.000531166
-0.000419561
-0.000307808
-0.000198147
-9.28586e-05
5.80778e-06
9.57031e-05
0.000174858
0.000241556
0.000294407
0.000332408
0.000354986
0.000362032
0.000353906
0.000331419
0.000295796
0.000248613
0.000191715
0.000127129
5.69602e-05
-1.67017e-05
-9.18713e-05
-0.000166742
-0.000239744
-0.000309578
-0.000375235
-0.000435993
-0.0004914
-0.000541245
-0.000585522
-0.00062439
-0.000658134
-0.000687125
-0.000711788
-0.000732569
-0.000749915
-0.000764252
-0.000775968
-0.000785405
-0.000792848
-0.000798517
-0.000802562
-0.000805056
-0.000805982
-0.000805246
-0.000802731
-0.000798202
-0.000790245
-0.000783006
6.20845e-05
5.01193e-05
3.60404e-05
2.57892e-05
1.71774e-05
9.68397e-06
2.9044e-06
-3.58879e-06
-1.0157e-05
-1.70752e-05
-2.45536e-05
-3.27455e-05
-4.17563e-05
-5.16521e-05
-6.24683e-05
-7.42168e-05
-8.68927e-05
-0.000100479
-0.000114954
-0.000130291
-0.000146467
-0.00016346
-0.000181258
-0.000199857
-0.000219264
-0.000239503
-0.00026061
-0.000282642
-0.000305676
-0.000329812
-0.000355172
-0.000381903
-0.00041018
-0.000440201
-0.00047219
-0.000506393
-0.000543072
-0.000582504
-0.00062497
-0.000670745
-0.000720085
-0.000773217
-0.000830316
-0.000891491
-0.000956765
-0.00102605
-0.00109914
-0.00117568
-0.00125516
-0.00133689
-0.00142003
-0.00150357
-0.00158632
-0.00166698
-0.00174411
-0.00181622
-0.00188173
-0.00193909
-0.00198678
-0.00202334
-0.00204748
-0.00205802
-0.00205403
-0.00203481
-0.00199992
-0.00194923
-0.00188292
-0.00180152
-0.00170587
-0.00159717
-0.00147694
-0.00134704
-0.00120958
-0.00106697
-0.000921788
-0.000776786
-0.000634789
-0.000498621
-0.000371018
-0.000254537
-0.000151455
-6.36822e-05
7.31985e-06
6.06062e-05
9.5791e-05
0.000113065
0.000113181
9.7413e-05
6.74807e-05
2.54527e-05
-2.63671e-05
-8.55624e-05
-0.000149725
-0.000216564
-0.000284001
-0.000350233
-0.00041378
-0.000473501
-0.000528586
-0.000578537
-0.000623126
-0.000662354
-0.000696399
-0.000725574
-0.000750276
-0.000770951
-0.000788064
-0.000802066
-0.000813378
-0.000822377
-0.000829377
-0.000834626
-0.000838296
-0.000840478
-0.000841168
-0.000840279
-0.000837698
-0.000833194
-0.00082539
-0.000818313
5.56723e-05
4.27469e-05
2.76186e-05
1.67676e-05
7.75581e-06
-1.96709e-08
-7.023e-06
-1.37326e-05
-2.05469e-05
-2.77646e-05
-3.5611e-05
-4.42483e-05
-5.37866e-05
-6.4295e-05
-7.58106e-05
-8.83479e-05
-0.000101905
-0.000116471
-0.000132031
-0.00014857
-0.000166079
-0.000184557
-0.000204016
-0.000224482
-0.000246003
-0.000268645
-0.000292501
-0.000317692
-0.000344369
-0.000372717
-0.000402959
-0.000435355
-0.000470206
-0.000507853
-0.000548675
-0.000593089
-0.000641541
-0.000694499
-0.000752441
-0.000815841
-0.000885147
-0.000960764
-0.00104302
-0.00113215
-0.00122825
-0.00133126
-0.00144093
-0.0015568
-0.00167819
-0.00180416
-0.00193354
-0.00206492
-0.00219668
-0.00232701
-0.00245393
-0.00257537
-0.00268921
-0.0027933
-0.00288555
-0.00296396
-0.00302668
-0.00307207
-0.0030987
-0.00310544
-0.00309146
-0.00305626
-0.00299971
-0.00292204
-0.00282388
-0.00270627
-0.00257062
-0.00241874
-0.00225284
-0.00207546
-0.00188948
-0.00169803
-0.00150448
-0.00131232
-0.0011251
-0.000946281
-0.000779185
-0.000626823
-0.000491794
-0.000376177
-0.000281433
-0.000208338
-0.000156952
-0.000126623
-0.000116031
-0.000123278
-0.000146009
-0.000181547
-0.000227059
-0.000279703
-0.00033677
-0.0003958
-0.000454663
-0.000511619
-0.000565326
-0.000614836
-0.000659564
-0.000699234
-0.00073383
-0.000763532
-0.00078866
-0.000809626
-0.000826887
-0.00084091
-0.000852142
-0.000860988
-0.000867797
-0.000872845
-0.000876329
-0.00087836
-0.000878949
-0.000878019
-0.000875463
-0.000871053
-0.00086345
-0.000856565
4.5455e-05
3.15875e-05
1.54337e-05
4.00363e-06
-5.39446e-06
-1.34484e-05
-2.06837e-05
-2.76295e-05
-3.47208e-05
-4.22788e-05
-5.05425e-05
-5.96816e-05
-6.98102e-05
-8.09995e-05
-9.32887e-05
-0.000106695
-0.000121221
-0.000136863
-0.000153617
-0.000171484
-0.000190474
-0.000210616
-0.000231954
-0.000254557
-0.000278523
-0.000303983
-0.000331102
-0.000360088
-0.000391195
-0.000424724
-0.000461033
-0.000500537
-0.000543708
-0.000591082
-0.000643251
-0.00070086
-0.000764601
-0.000835196
-0.00091338
-0.000999879
-0.00109538
-0.00120049
-0.00131572
-0.00144139
-0.00157768
-0.00172447
-0.00188142
-0.00204784
-0.00222275
-0.00240484
-0.00259245
-0.00278364
-0.0029762
-0.00316768
-0.00335547
-0.00353683
-0.00370897
-0.00386915
-0.00401465
-0.00414292
-0.0042516
-0.00433854
-0.00440188
-0.00444006
-0.00445189
-0.00443652
-0.00439348
-0.00432272
-0.00422461
-0.00409994
-0.00394996
-0.00377633
-0.0035812
-0.00336713
-0.00313712
-0.00289456
-0.00264322
-0.00238713
-0.00213058
-0.00187793
-0.00163356
-0.00140172
-0.00118633
-0.000990888
-0.000818266
-0.000670614
-0.00054924
-0.000454555
-0.000386062
-0.000342403
-0.000321461
-0.000320509
-0.00033639
-0.000365719
-0.00040508
-0.000451208
-0.000501136
-0.000552302
-0.000602609
-0.000650448
-0.000694678
-0.000734585
-0.000769817
-0.000800318
-0.000826251
-0.000847935
-0.000865781
-0.000880246
-0.000891788
-0.000900836
-0.000907769
-0.000912891
-0.000916428
-0.000918512
-0.000919171
-0.000918339
-0.000915914
-0.000911677
-0.000904324
-0.000897656
3.09324e-05
1.61437e-05
-1.00995e-06
-1.29982e-05
-2.27698e-05
-3.11002e-05
-3.85769e-05
-4.57802e-05
-5.318e-05
-6.1119e-05
-6.98485e-05
-7.95448e-05
-9.0325e-05
-0.000102262
-0.000115398
-0.000129752
-0.000145336
-0.000162154
-0.000180219
-0.000199553
-0.000220195
-0.000242208
-0.000265684
-0.00029075
-0.000317573
-0.000346365
-0.000377393
-0.000410979
-0.000447515
-0.000487459
-0.000531351
-0.000579811
-0.000633545
-0.000693344
-0.000760082
-0.000834706
-0.000918223
-0.00101168
-0.00111612
-0.00123258
-0.001362
-0.00150522
-0.00166288
-0.0018354
-0.00202289
-0.00222512
-0.00244147
-0.00267091
-0.00291198
-0.00316278
-0.00342103
-0.00368408
-0.00394897
-0.00421252
-0.00447135
-0.00472204
-0.00496111
-0.00518518
-0.005391
-0.00557549
-0.00573583
-0.00586947
-0.0059742
-0.00604813
-0.00608975
-0.00609793
-0.00607194
-0.00601143
-0.0059165
-0.00578769
-0.00562595
-0.00543273
-0.00520995
-0.00496002
-0.00468585
-0.00439086
-0.00407896
-0.00375451
-0.00342228
-0.00308739
-0.00275516
-0.00243101
-0.00212027
-0.00182801
-0.00155881
-0.00131658
-0.00110436
-0.00092416
-0.000776875
-0.00066224
-0.000578874
-0.000524399
-0.000495624
-0.000488778
-0.000499769
-0.000524445
-0.000558825
-0.000599295
-0.000642736
-0.000686604
-0.000728947
-0.000768378
-0.000804019
-0.000835417
-0.000862457
-0.000885274
-0.000904171
-0.000919551
-0.000931857
-0.000941528
-0.000948962
-0.000954494
-0.000958375
-0.00096076
-0.000961696
-0.000961129
-0.000958965
-0.00095499
-0.000947936
-0.000941505
1.15966e-05
-4.09045e-06
-2.22164e-05
-3.47425e-05
-4.48762e-05
-5.34827e-05
-6.12124e-05
-6.86956e-05
-7.64365e-05
-8.47976e-05
-9.40414e-05
-0.00010435
-0.000115842
-0.000128594
-0.000142649
-0.000158034
-0.000174768
-0.000192872
-0.000212378
-0.000233338
-0.000255829
-0.000279963
-0.000305895
-0.000333826
-0.000364016
-0.000396788
-0.000432538
-0.000471745
-0.000514978
-0.000562908
-0.000616311
-0.000676081
-0.000743227
-0.000818875
-0.000904259
-0.00100071
-0.00110961
-0.00123241
-0.00137052
-0.00152529
-0.00169793
-0.00188947
-0.00210062
-0.00233175
-0.00258281
-0.00285323
-0.00314196
-0.00344736
-0.0037673
-0.00409909
-0.00443962
-0.00478537
-0.00513253
-0.00547708
-0.00581487
-0.00614175
-0.00645363
-0.00674659
-0.0070169
-0.00726112
-0.0074761