/*--------------------------------*- C++ -*----------------------------------*\
| =========                 |                                                 |
| \\      /  F ield         | OpenFOAM: The Open Source CFD Toolbox           |
|  \\    /   O peration     | Version:  2406                                  |
|   \\  /    A nd           | Website:  www.openfoam.com                      |
|    \\/     M anipulation  |                                                 |
\*---------------------------------------------------------------------------*/
FoamFile
{
    version     2.0;
    format      ascii;
    arch        "LSB;label=32;scalar=64";
    class       surfaceScalarField;
    location    "15.8";
    object      phi;
}
// * * * * * * * * * * * * * * * * * * * * * * * * * * * * * * * * * * * * * //

dimensions      [0 3 -1 0 0 0 0];

oriented        oriented;

internalField   nonuniform List<scalar> 
28560
(
8.25675e-09
-8.25395e-09
2.16793e-08
-1.34227e-08
3.34472e-08
-1.17677e-08
3.93818e-08
-5.93442e-09
3.78506e-08
1.53133e-09
2.89236e-08
8.92699e-09
1.32501e-08
1.56735e-08
-8.14083e-09
2.13909e-08
-3.41761e-08
2.60352e-08
-6.38953e-08
2.97192e-08
-9.65272e-08
3.26319e-08
-1.31515e-07
3.49873e-08
-1.68506e-07
3.6991e-08
-2.07328e-07
3.88226e-08
-2.47955e-07
4.06267e-08
-2.90467e-07
4.25117e-08
-3.35018e-07
4.45515e-08
-3.81809e-07
4.67912e-08
-4.31062e-07
4.92523e-08
-4.83001e-07
5.19396e-08
-5.37847e-07
5.48458e-08
-5.95804e-07
5.7957e-08
-6.5706e-07
6.12558e-08
-7.21784e-07
6.47242e-08
-7.90129e-07
6.8345e-08
-8.62232e-07
7.21029e-08
-9.38216e-07
7.59844e-08
-1.01819e-06
7.99776e-08
-1.10227e-06
8.40718e-08
-1.19052e-06
8.8256e-08
-1.28304e-06
9.25185e-08
-1.37989e-06
9.68455e-08
-1.48111e-06
1.0122e-07
-1.58673e-06
1.05621e-07
-1.69675e-06
1.10022e-07
-1.81114e-06
1.1439e-07
-1.92982e-06
1.18685e-07
-2.05268e-06
1.2286e-07
-2.17954e-06
1.26858e-07
-2.31015e-06
1.30612e-07
-2.4442e-06
1.34049e-07
-2.58128e-06
1.37081e-07
-2.7209e-06
1.39614e-07
-2.86244e-06
1.41542e-07
-3.00519e-06
1.42751e-07
-3.14831e-06
1.43119e-07
-3.29083e-06
1.42516e-07
-3.43163e-06
1.40809e-07
-3.5695e-06
1.37861e-07
-3.70303e-06
1.33536e-07
-3.83073e-06
1.27702e-07
-3.95097e-06
1.20237e-07
-4.062e-06
1.1103e-07
-4.16199e-06
9.99875e-08
-4.24903e-06
8.704e-08
-4.32118e-06
7.21467e-08
-4.37648e-06
5.53005e-08
-4.41301e-06
3.65331e-08
-4.42902e-06
1.60084e-08
-4.42252e-06
-6.49879e-09
-4.3922e-06
-3.03181e-08
-4.33666e-06
-5.55421e-08
-4.25483e-06
-8.18247e-08
-4.14599e-06
-1.08842e-07
-4.00977e-06
-1.36225e-07
-3.8462e-06
-1.63563e-07
-3.65579e-06
-1.90416e-07
-3.43947e-06
-2.1632e-07
-3.19867e-06
-2.40802e-07
-2.93528e-06
-2.63389e-07
-2.65165e-06
-2.83625e-07
-2.35057e-06
-3.01083e-07
-2.03519e-06
-3.15383e-07
-1.70899e-06
-3.262e-07
-1.3757e-06
-3.33282e-07
-1.03925e-06
-3.36459e-07
-7.036e-07
-3.35646e-07
-3.72747e-07
-3.30854e-07
-5.05591e-08
-3.22188e-07
2.59285e-07
-3.09844e-07
5.53389e-07
-2.94104e-07
8.28718e-07
-2.75329e-07
1.08266e-06
-2.53939e-07
1.31306e-06
-2.30406e-07
1.5183e-06
-2.05235e-07
1.69724e-06
-1.78945e-07
1.8493e-06
-1.52053e-07
1.97436e-06
-1.25059e-07
2.07278e-06
-9.84295e-08
2.14537e-06
-7.25868e-08
2.19327e-06
-4.78999e-08
2.21795e-06
-2.4675e-08
2.22128e-06
-3.33551e-09
2.20465e-06
1.66275e-08
2.1704e-06
3.42502e-08
2.12059e-06
4.9817e-08
2.05716e-06
6.343e-08
1.98208e-06
7.50737e-08
1.89724e-06
8.48417e-08
1.80438e-06
9.28594e-08
1.7051e-06
9.92779e-08
1.60084e-06
1.04265e-07
1.49284e-06
1.07996e-07
1.3822e-06
1.10648e-07
1.26981e-06
1.12388e-07
1.15644e-06
1.1337e-07
1.04272e-06
1.13722e-07
9.29182e-07
1.13534e-07
8.16333e-07
1.1285e-07
7.04686e-07
1.11647e-07
5.94871e-07
1.09815e-07
4.87736e-07
1.07135e-07
3.8449e-07
1.03245e-07
2.8688e-07
9.76104e-08
1.97382e-07
8.94985e-08
1.19373e-07
7.80088e-08
5.71688e-08
6.2204e-08
1.55657e-08
4.16031e-08
-1.62929e-09
1.7195e-08
-1.62929e-09
1.36235e-08
-2.18776e-08
3.41313e-08
-3.39299e-08
4.69159e-08
-2.45519e-08
4.46149e-08
-3.63325e-09
2.41068e-08
2.20395e-08
-1.49409e-08
4.79747e-08
-7.10561e-08
7.17887e-08
-1.42037e-07
9.23721e-08
-2.25485e-07
1.09483e-07
-3.19172e-07
1.23407e-07
-4.21247e-07
1.34707e-07
-5.30314e-07
1.44055e-07
-6.45442e-07
1.52119e-07
-7.6612e-07
1.595e-07
-8.92182e-07
1.66689e-07
-1.02374e-06
1.74067e-07
-1.16109e-06
1.81899e-07
-1.30465e-06
1.90353e-07
-1.45491e-06
1.99519e-07
-1.6124e-06
2.09422e-07
-1.7776e-06
2.2005e-07
-1.951e-06
2.3136e-07
-2.13305e-06
2.43297e-07
-2.32412e-06
2.55801e-07
-2.52459e-06
2.68813e-07
-2.73476e-06
2.82276e-07
-2.95492e-06
2.96142e-07
-3.18531e-06
3.10365e-07
-3.42614e-06
3.249e-07
-3.67758e-06
3.39703e-07
-3.93979e-06
3.54726e-07
-4.21286e-06
3.69911e-07
-4.49683e-06
3.85189e-07
-4.79168e-06
4.00474e-07
-5.09732e-06
4.15661e-07
-5.41355e-06
4.30621e-07
-5.74006e-06
4.45199e-07
-6.07641e-06
4.5921e-07
-6.422e-06
4.7244e-07
-6.77602e-06
4.84641e-07
-7.13751e-06
4.9553e-07
-7.50522e-06
5.04792e-07
-7.87768e-06
5.12078e-07
-8.25315e-06
5.17009e-07
-8.62957e-06
5.19177e-07
-9.0046e-06
5.18151e-07
-9.37557e-06
5.13484e-07
-9.73948e-06
5.04718e-07
-1.0093e-05
4.91396e-07
-1.04326e-05
4.73074e-07
-1.07542e-05
4.49329e-07
-1.10537e-05
4.1978e-07
-1.13268e-05
3.84098e-07
-1.15688e-05
3.42025e-07
-1.17752e-05
2.93391e-07
-1.19412e-05
2.3813e-07
-1.20622e-05
1.76294e-07
-1.21337e-05
1.08077e-07
-1.21515e-05
3.38279e-08
-1.2112e-05
-4.60607e-08
-1.20115e-05
-1.30817e-07
-1.18473e-05
-2.19675e-07
-1.16175e-05
-3.11679e-07
-1.13206e-05
-4.05707e-07
-1.09563e-05
-5.00508e-07
-1.05252e-05
-5.94716e-07
-1.00287e-05
-6.8688e-07
-9.46954e-06
-7.75492e-07
-8.85131e-06
-8.59024e-07
-8.17874e-06
-9.35966e-07
-7.45749e-06
-1.00487e-06
-6.6942e-06
-1.06438e-06
-5.89628e-06
-1.1133e-06
-5.07187e-06
-1.15061e-06
-4.22965e-06
-1.17551e-06
-3.37866e-06
-1.18745e-06
-2.52816e-06
-1.18615e-06
-1.68739e-06
-1.17162e-06
-8.654e-07
-1.14418e-06
-7.08531e-08
-1.10439e-06
6.88166e-07
-1.05312e-06
1.40431e-06
-9.91475e-07
2.07113e-06
-9.20754e-07
2.68316e-06
-8.42435e-07
3.23604e-06
-7.58113e-07
3.72654e-06
-6.6945e-07
4.15261e-06
-5.78121e-07
4.51332e-06
-4.85769e-07
4.80884e-06
-3.93953e-07
5.04036e-06
-3.04109e-07
5.20998e-06
-2.17515e-07
5.32058e-06
-1.35276e-07
5.37552e-06
-5.82779e-08
5.37916e-06
1.29851e-08
5.33579e-06
7.76215e-08
5.24993e-06
1.35678e-07
5.12636e-06
1.87e-07
4.96976e-06
2.31669e-07
4.7847e-06
2.6991e-07
4.57549e-06
3.02071e-07
4.34617e-06
3.28596e-07
4.10044e-06
3.49994e-07
3.84162e-06
3.66812e-07
3.57266e-06
3.79605e-07
3.29614e-06
3.88911e-07
3.01429e-06
3.95216e-07
2.72909e-06
3.98923e-07
2.44231e-06
4.00313e-07
2.15566e-06
3.99501e-07
1.87093e-06
3.96383e-07
1.59017e-06
3.90575e-07
1.31595e-06
3.81346e-07
1.05166e-06
3.6754e-07
8.01747e-07
3.47524e-07
5.72074e-07
3.19172e-07
3.70056e-07
2.80026e-07
2.0449e-07
2.2777e-07
8.4596e-08
1.61497e-07
1.75087e-08
8.42823e-08
1.58794e-08
1.19109e-08
-3.37882e-08
2.40739e-08
-4.60927e-08
2.08366e-08
-2.13145e-08
-5.87518e-09
2.30786e-08
-5.93766e-08
7.55409e-08
-1.39812e-07
1.2841e-07
-2.45266e-07
1.77242e-07
-3.72816e-07
2.19923e-07
-5.1925e-07
2.55917e-07
-6.81532e-07
2.85688e-07
-8.57085e-07
3.1026e-07
-1.04392e-06
3.30894e-07
-1.24068e-06
3.4887e-07
-1.44653e-06
3.65358e-07
-1.66118e-06
3.81334e-07
-1.88467e-06
3.97557e-07
-2.11734e-06
4.14572e-07
-2.35972e-06
4.3273e-07
-2.61243e-06
4.52226e-07
-2.87613e-06
4.7313e-07
-3.15151e-06
4.95425e-07
-3.43919e-06
5.19041e-07
-3.73977e-06
5.43873e-07
-4.05377e-06
5.69806e-07
-4.38168e-06
5.96722e-07
-4.72391e-06
6.24511e-07
-5.08084e-06
6.5307e-07
-5.45278e-06
6.82304e-07
-5.84e-06
7.12119e-07
-6.24271e-06
7.42416e-07
-6.66108e-06
7.73089e-07
-7.09517e-06
8.04008e-07
-7.545e-06
8.35018e-07
-8.01046e-06
8.65928e-07
-8.4913e-06
8.96504e-07
-8.98714e-06
9.26461e-07
-9.4974e-06
9.55458e-07
-1.00213e-05
9.83093e-07
-1.05577e-05
1.0089e-06
-1.11054e-05
1.03234e-06
-1.16627e-05
1.05281e-06
-1.22276e-05
1.06965e-06
-1.27976e-05
1.08211e-06
-1.337e-05
1.0894e-06
-1.39415e-05
1.09069e-06
-1.45085e-05
1.0851e-06
-1.50667e-05
1.07171e-06
-1.56116e-05
1.04962e-06
-1.61381e-05
1.01793e-06
-1.66408e-05
9.75785e-07
-1.71139e-05
9.2239e-07
-1.75512e-05
8.57047e-07
-1.79462e-05
7.79178e-07
-1.82926e-05
6.88366e-07
-1.85836e-05
5.84375e-07
-1.88126e-05
4.67189e-07
-1.89734e-05
3.37033e-07
-1.90597e-05
1.94404e-07
-1.90659e-05
4.00639e-08
-1.89871e-05
-1.24884e-07
-1.88188e-05
-2.99094e-07
-1.85576e-05
-4.8086e-07
-1.82011e-05
-6.68227e-07
-1.77478e-05
-8.58963e-07
-1.71977e-05
-1.0506e-06
-1.6552e-05
-1.24048e-06
-1.58131e-05
-1.42579e-06
-1.49849e-05
-1.60363e-06
-1.40728e-05
-1.77111e-06
-1.30835e-05
-1.92535e-06
-1.20247e-05
-2.0636e-06
-1.09058e-05
-2.18333e-06
-9.73683e-06
-2.28226e-06
-8.52899e-06
-2.35846e-06
-7.29408e-06
-2.41041e-06
-6.04449e-06
-2.43704e-06
-4.79285e-06
-2.43779e-06
-3.55186e-06
-2.41261e-06
-2.33402e-06
-2.36202e-06
-1.15138e-06
-2.28703e-06
-1.53255e-08
-2.18918e-06
1.06368e-06
-2.07048e-06
2.07625e-06
-1.93332e-06
3.01427e-06
-1.78045e-06
3.87102e-06
-1.61486e-06
4.64126e-06
-1.4397e-06
5.32131e-06
-1.25817e-06
5.90899e-06
-1.07345e-06
6.40366e-06
-8.88622e-07
6.80609e-06
-7.06533e-07
7.11835e-06
-5.29778e-07
7.34369e-06
-3.6062e-07
7.48635e-06
-2.00934e-07
7.55157e-06
-5.22401e-08
7.54489e-06
8.43043e-08
7.47251e-06
2.08062e-07
7.34085e-06
3.18656e-07
7.15643e-06
4.16096e-07
6.92565e-06
5.00681e-07
6.65476e-06
5.72965e-07
6.34965e-06
6.3371e-07
6.01582e-06
6.83823e-07
5.65832e-06
7.24306e-07
5.28174e-06
7.56193e-07
4.89015e-06
7.80494e-07
4.48724e-06
7.98126e-07
4.07632e-06
8.09845e-07
3.66046e-06
8.16173e-07
3.24266e-06
8.17303e-07
2.82603e-06
8.13012e-07
2.41406e-06
8.02543e-07
2.01091e-06
7.845e-07
1.62171e-06
7.56743e-07
1.2529e-06
7.16328e-07
9.12514e-07
6.5956e-07
6.10207e-07
5.82333e-07
3.57014e-07
4.80963e-07
1.64443e-07
3.54068e-07
4.28397e-08
2.05886e-07
5.8719e-08
5.09092e-09
-3.88789e-08
-8.05957e-10
-4.01956e-08
-3.19136e-08
9.79323e-09
-9.51764e-08
8.63415e-08
-1.93081e-07
1.73445e-07
-3.24999e-07
2.60329e-07
-4.88352e-07
3.40596e-07
-6.79571e-07
4.11141e-07
-8.94825e-07
4.71171e-07
-1.13052e-06
5.21379e-07
-1.38358e-06
5.63323e-07
-1.65163e-06
5.98941e-07
-1.93298e-06
6.30223e-07
-2.22662e-06
6.58996e-07
-2.53208e-06
6.868e-07
-2.84937e-06
7.14846e-07
-3.17881e-06
7.44007e-07
-3.52094e-06
7.74858e-07
-3.87643e-06
8.07723e-07
-4.24603e-06
8.42731e-07
-4.63048e-06
8.79871e-07
-5.03048e-06
9.19041e-07
-5.44669e-06
9.60089e-07
-5.87973e-06
1.00284e-06
-6.33012e-06
1.04711e-06
-6.79834e-06
1.09273e-06
-7.28481e-06
1.13955e-06
-7.78991e-06
1.1874e-06
-8.31392e-06
1.23613e-06
-8.8571e-06
1.28559e-06
-9.4196e-06
1.33559e-06
-1.00015e-05
1.38591e-06
-1.06028e-05
1.43628e-06
-1.12232e-05
1.48637e-06
-1.18625e-05
1.53576e-06
-1.252e-05
1.58397e-06
-1.31949e-05
1.63041e-06
-1.38862e-05
1.67437e-06
-1.45923e-05
1.71504e-06
-1.53115e-05
1.75153e-06
-1.60415e-05
1.78279e-06
-1.67796e-05
1.8077e-06
-1.75225e-05
1.82501e-06
-1.82665e-05
1.83342e-06
-1.90073e-05
1.83153e-06
-1.97401e-05
1.8179e-06
-2.04595e-05
1.79108e-06
-2.11595e-05
1.7496e-06
-2.18336e-05
1.69205e-06
-2.24749e-05
1.61711e-06
-2.30761e-05
1.52358e-06
-2.36295e-05
1.41042e-06
-2.41271e-05
1.27683e-06
-2.4561e-05
1.12225e-06
-2.49231e-05
9.46458e-07
-2.52055e-05
7.49569e-07
-2.54005e-05
5.32097e-07
-2.55011e-05
2.94972e-07
-2.55006e-05
3.95698e-08
-2.53932e-05
-2.3227e-07
-2.51741e-05
-5.18261e-07
-2.48393e-05
-8.15662e-07
-2.43862e-05
-1.12131e-06
-2.38135e-05
-1.43165e-06
-2.31213e-05
-1.7428e-06
-2.23112e-05
-2.05059e-06
-2.13863e-05
-2.35066e-06
-2.03514e-05
-2.63854e-06
-1.92128e-05
-2.90973e-06
-1.79783e-05
-3.15982e-06
-1.66573e-05
-3.38459e-06
-1.52605e-05
-3.58013e-06
-1.37999e-05
-3.74292e-06
-1.22884e-05
-3.86996e-06
-1.07399e-05
-3.95885e-06
-9.1691e-06
-4.00786e-06
-7.59086e-06
-4.01603e-06
-6.02031e-06
-3.98317e-06
-4.47243e-06
-3.90989e-06
-2.96184e-06
-3.79763e-06
-1.50243e-06
-3.64858e-06
-1.07227e-07
-3.46569e-06
1.21195e-06
-3.2525e-06
2.44463e-06
-3.01313e-06
3.58189e-06
-2.75212e-06
4.61648e-06
-2.47429e-06
5.54293e-06
-2.18461e-06
6.35755e-06
-1.88807e-06
7.05844e-06
-1.58952e-06
7.64545e-06
-1.29354e-06
8.12005e-06
-1.00437e-06
8.48519e-06
-7.25764e-07
8.74518e-06
-4.60923e-07
8.90543e-06
-2.12486e-07
8.97218e-06
1.75551e-08
8.95249e-06
2.2775e-07
8.85379e-06
4.17355e-07
8.68379e-06
5.86093e-07
8.45026e-06
7.34213e-07
8.16083e-06
8.62393e-07
7.82288e-06
9.7166e-07
7.4434e-06
1.06331e-06
7.0289e-06
1.1388e-06
6.58541e-06
1.19969e-06
6.11841e-06
1.24749e-06
5.63293e-06
1.28361e-06
5.13357e-06
1.3092e-06
4.62469e-06
1.32505e-06
4.11053e-06
1.33146e-06
3.59548e-06
1.32806e-06
3.08431e-06
1.31372e-06
2.58249e-06
1.28632e-06
2.09652e-06
1.2427e-06
1.63426e-06
1.17859e-06
1.20513e-06
1.0887e-06
8.20237e-07
9.67223e-07
4.92323e-07
8.08877e-07
2.35474e-07
6.10917e-07
6.50524e-08
3.76308e-07
1.23771e-07
-4.74944e-09
-3.41294e-08
-3.55331e-08
-9.4118e-09
-1.03116e-07
7.73757e-08
-2.12274e-07
1.955e-07
-3.63773e-07
3.24945e-07
-5.5568e-07
4.52235e-07
-7.84439e-07
5.69355e-07
-1.04574e-06
6.72444e-07
-1.33518e-06
7.6061e-07
-1.64871e-06
8.34907e-07
-1.98291e-06
8.97523e-07
-2.33513e-06
9.51159e-07
-2.70348e-06
9.9858e-07
-3.08682e-06
1.04233e-06
-3.48457e-06
1.08456e-06
-3.89668e-06
1.12696e-06
-4.32343e-06
1.17076e-06
-4.76535e-06
1.21678e-06
-5.22311e-06
1.26548e-06
-5.69744e-06
1.31706e-06
-6.18909e-06
1.37152e-06
-6.69878e-06
1.42873e-06
-7.22719e-06
1.48851e-06
-7.77496e-06
1.5506e-06
-8.34264e-06
1.61479e-06
-8.93076e-06
1.68085e-06
-9.53979e-06
1.74857e-06
-1.01701e-05
1.81774e-06
-1.08222e-05
1.88816e-06
-1.14962e-05
1.9596e-06
-1.21924e-05
2.03179e-06
-1.29109e-05
2.10442e-06
-1.36517e-05
2.17708e-06
-1.44146e-05
2.24926e-06
-1.51991e-05
2.32035e-06
-1.60048e-05
2.38959e-06
-1.68304e-05
2.45607e-06
-1.76748e-05
2.51875e-06
-1.85362e-05
2.57639e-06
-1.94122e-05
2.62761e-06
-2.03003e-05
2.67087e-06
-2.11971e-05
2.70448e-06
-2.20987e-05
2.7266e-06
-2.30006e-05
2.73529e-06
-2.38976e-05
2.72852e-06
-2.47838e-05
2.7042e-06
-2.5653e-05
2.66023e-06
-2.6498e-05
2.59455e-06
-2.73111e-05
2.50518e-06
-2.80843e-05
2.39029e-06
-2.88089e-05
2.24823e-06
-2.94762e-05
2.07766e-06
-3.00769e-05
1.87754e-06
-3.06018e-05
1.64723e-06
-3.10419e-05
1.38656e-06
-3.13882e-05
1.09584e-06
-3.16321e-05
7.75953e-07
-3.17655e-05
4.28361e-07
-3.1781e-05
5.51285e-08
-3.16723e-05
-3.41039e-07
-3.14337e-05
-7.56839e-07
-3.1061e-05
-1.18836e-06
-3.05511e-05
-1.63113e-06
-2.99026e-05
-2.08017e-06
-2.91154e-05
-2.53005e-06
-2.8191e-05
-2.97499e-06
-2.71327e-05
-3.40895e-06
-2.59455e-05
-3.82572e-06
-2.46361e-05
-4.2191e-06
-2.3213e-05
-4.58297e-06
-2.16861e-05
-4.91149e-06
-2.0067e-05
-5.19919e-06
-1.83688e-05
-5.44112e-06
-1.66057e-05
-5.63304e-06
-1.47931e-05
-5.77146e-06
-1.29471e-05
-5.85384e-06
-1.10846e-05
-5.8786e-06
-9.22251e-06
-5.84524e-06
-7.37804e-06
-5.75435e-06
-5.56802e-06
-5.60765e-06
-3.8087e-06
-5.40791e-06
-2.11546e-06
-5.15892e-06
-5.02545e-07
-4.86542e-06
1.01722e-06
-4.53289e-06
2.43261e-06
-4.16751e-06
3.73421e-06
-3.7759e-06
4.91454e-06
-3.36494e-06
5.9681e-06
-2.94163e-06
6.89144e-06
-2.51286e-06
7.6831e-06
-2.0852e-06
8.34353e-06
-1.66481e-06
8.875e-06
-1.25723e-06
9.28136e-06
-8.67283e-07
9.56789e-06
-4.99014e-07
9.74106e-06
-1.55623e-07
9.80827e-06
1.6054e-07
9.77764e-06
4.47991e-07
9.65771e-06
7.06024e-07
9.45725e-06
9.34669e-07
9.18505e-06
1.13459e-06
8.84971e-06
1.307e-06
8.45949e-06
1.45352e-06
8.02226e-06
1.57604e-06
7.54533e-06
1.67661e-06
7.03552e-06
1.7573e-06
6.49913e-06
1.82e-06
5.94203e-06
1.8663e-06
5.3698e-06
1.89728e-06
4.78789e-06
1.91338e-06
4.20183e-06
1.91413e-06
3.61753e-06
1.89801e-06
3.0416e-06
1.86226e-06
2.4816e-06
1.8027e-06
1.94644e-06
1.71375e-06
1.44662e-06
1.58852e-06
9.94484e-07
1.41936e-06
6.04503e-07
1.19886e-06
2.93725e-07
9.21695e-07
8.28538e-08
5.87179e-07
2.06625e-07
-1.63369e-08
-1.77925e-08
-7.65761e-08
5.08274e-08
-1.87002e-07
1.87801e-07
-3.49194e-07
3.57692e-07
-5.61541e-07
5.37292e-07
-8.20344e-07
7.11038e-07
-1.12077e-06
8.69784e-07
-1.45762e-06
1.00929e-06
-1.82585e-06
1.12884e-06
-2.22101e-06
1.23006e-06
-2.63939e-06
1.3159e-06
-3.07815e-06
1.38993e-06
-3.5353e-06
1.45573e-06
-4.00959e-06
1.51662e-06
-4.5004e-06
1.57537e-06
-5.00761e-06
1.63417e-06
-5.53146e-06
1.69461e-06
-6.07243e-06
1.75775e-06
-6.63115e-06
1.8242e-06
-7.20832e-06
1.89423e-06
-7.80465e-06
1.96785e-06
-8.42085e-06
2.04493e-06
-9.05758e-06
2.12524e-06
-9.71548e-06
2.20851e-06
-1.03952e-05
2.29448e-06
-1.10972e-05
2.38289e-06
-1.18221e-05
2.4735e-06
-1.25705e-05
2.56609e-06
-1.33427e-05
2.66042e-06
-1.41393e-05
2.75619e-06
-1.49606e-05
2.85309e-06
-1.58069e-05
2.95067e-06
-1.66782e-05
3.04839e-06
-1.75745e-05
3.14556e-06
-1.84955e-05
3.24131e-06
-1.94404e-05
3.33457e-06
-2.04084e-05
3.42409e-06
-2.13981e-05
3.50837e-06
-2.24074e-05
3.5857e-06
-2.34339e-05
3.65415e-06
-2.44746e-05
3.71157e-06
-2.55258e-05
3.75562e-06
-2.65829e-05
3.78379e-06
-2.7641e-05
3.7934e-06
-2.86942e-05
3.78169e-06
-2.97359e-05
3.74586e-06
-3.07588e-05
3.6831e-06
-3.17549e-05
3.59067e-06
-3.27156e-05
3.46596e-06
-3.3632e-05
3.3066e-06
-3.44942e-05
3.1105e-06
-3.52925e-05
2.87595e-06
-3.60167e-05
2.60168e-06
-3.66564e-05
2.28699e-06
-3.72016e-05
1.93173e-06
-3.76422e-05
1.53647e-06
-3.79687e-05
1.10245e-06
-3.8172e-05
6.31687e-07
-3.82439e-05
1.26968e-07
-3.81768e-05
-4.08117e-07
-3.79644e-05
-9.69217e-07
-3.76016e-05
-1.55121e-06
-3.70844e-05
-2.14829e-06
-3.64106e-05
-2.75397e-06
-3.55795e-05
-3.36123e-06
-3.45919e-05
-3.96257e-06
-3.34506e-05
-4.55018e-06
-3.21604e-05
-5.11601e-06
-3.07275e-05
-5.65197e-06
-2.91604e-05
-6.15007e-06
-2.74692e-05
-6.60263e-06
-2.5666e-05
-7.0024e-06
-2.37644e-05
-7.34278e-06
-2.17794e-05
-7.61798e-06
-1.97277e-05
-7.82319e-06
-1.76268e-05
-7.95474e-06
-1.54952e-05
-8.01021e-06
-1.33519e-05
-7.98851e-06
-1.12163e-05
-7.89e-06
-9.10745e-06
-7.71645e-06
-7.04428e-06
-7.47108e-06
-5.04478e-06
-7.15842e-06
-3.12588e-06
-6.78431e-06
-1.30312e-06
-6.35565e-06
4.09631e-07
-5.88027e-06
2.00043e-06
-5.36669e-06
3.4594e-06
-4.82391e-06
4.77889e-06
-4.26113e-06
5.95353e-06
-3.6875e-06
6.98023e-06
-3.11189e-06
7.85809e-06
-2.54268e-06
8.58836e-06
-1.9875e-06
9.1742e-06
-1.45313e-06
9.62052e-06
-9.45333e-07
9.93371e-06
-4.6881e-07
1.01214e-05
-2.71237e-08
1.01921e-05
3.77279e-07
1.01551e-05
7.43023e-07
1.002e-05
1.06973e-06
9.7967e-06
1.35792e-06
9.49487e-06
1.60884e-06
9.12403e-06
1.82436e-06
8.6933e-06
2.00677e-06
8.21131e-06
2.15861e-06
7.68616e-06
2.28245e-06
7.12544e-06
2.38072e-06
6.53626e-06
2.45548e-06
5.9254e-06
2.50815e-06
5.29945e-06
2.53933e-06
4.66505e-06
2.54852e-06
4.02916e-06
2.5339e-06
3.39933e-06
2.49208e-06
2.78408e-06
2.41795e-06
2.19322e-06
2.30461e-06
1.63823e-06
2.14351e-06
1.13269e-06
1.9249e-06
6.92931e-07
1.63862e-06
3.38983e-07
1.27564e-06
9.63415e-08
8.2982e-07
3.02967e-07
-2.91513e-08
1.13588e-08
-1.21957e-07
1.43633e-07
-2.79753e-07
3.45597e-07
-5.00299e-07
5.78239e-07
-7.79061e-07
8.16054e-07
-1.11017e-06
1.04215e-06
-1.48725e-06
1.24686e-06
-1.90402e-06
1.42606e-06
-2.35475e-06
1.57958e-06
-2.83454e-06
1.70986e-06
-3.33945e-06
1.82081e-06
-3.86649e-06
1.91696e-06
-4.41358e-06
2.00282e-06
-4.97943e-06
2.08247e-06
-5.5634e-06
2.15933e-06
-6.16531e-06
2.23608e-06
-6.78537e-06
2.31467e-06
-7.424e-06
2.39637e-06
-8.08175e-06
2.48196e-06
-8.75928e-06
2.57176e-06
-9.45725e-06
2.66582e-06
-1.01763e-05
2.76401e-06
-1.09172e-05
2.86611e-06
-1.16805e-05
2.97184e-06
-1.2467e-05
3.08094e-06
-1.32773e-05
3.19319e-06
-1.41121e-05
3.30834e-06
-1.49722e-05
3.42619e-06
-1.58583e-05
3.54649e-06
-1.67711e-05
3.66895e-06
-1.77112e-05
3.79317e-06
-1.86791e-05
3.91864e-06
-1.96754e-05
4.04465e-06
-2.07001e-05
4.17031e-06
-2.17533e-05
4.29448e-06
-2.28345e-05
4.41574e-06
-2.39428e-05
4.53243e-06
-2.5077e-05
4.64255e-06
-2.62351e-05
4.74384e-06
-2.74147e-05
4.83373e-06
-2.86125e-05
4.90938e-06
-2.98246e-05
4.96772e-06
-3.10463e-05
5.00544e-06
-3.22719e-05
5.01907e-06
-3.34953e-05
5.00503e-06
-3.47091e-05
4.9597e-06
-3.59055e-05
4.87947e-06
-3.70757e-05
4.76086e-06
-3.82103e-05
4.60056e-06
-3.92993e-05
4.3956e-06
-4.03321e-05
4.14334e-06
-4.12979e-05
3.84169e-06
-4.21853e-05
3.48909e-06
-4.2983e-05
3.08468e-06
-4.36796e-05
2.62834e-06
-4.42639e-05
2.12078e-06
-4.4725e-05
1.56358e-06
-4.50526e-05
9.59253e-07
-4.52369e-05
3.11265e-07
-4.5269e-05
-3.75959e-07
-4.51412e-05
-1.09704e-06
-4.48467e-05
-1.84568e-06
-4.43803e-05
-2.6147e-06
-4.37382e-05
-3.39613e-06
-4.29181e-05
-4.18127e-06
-4.19198e-05
-4.96084e-06
-4.07449e-05
-5.72511e-06
-3.93969e-05
-6.46404e-06
-3.78814e-05
-7.16745e-06
-3.62062e-05
-7.82525e-06
-3.43812e-05
-8.42762e-06
-3.24184e-05
-8.96523e-06
-3.03317e-05
-9.42946e-06
-2.81371e-05
-9.81265e-06
-2.5852e-05
-1.01083e-05
-2.34956e-05
-1.03111e-05
-2.10882e-05
-1.04176e-05
-1.8651e-05
-1.04257e-05
-1.6206e-05
-1.03351e-05
-1.3775e-05
-1.01474e-05
-1.138e-05
-9.86611e-06
-9.0421e-06
-9.4963e-06
-6.78162e-06
-9.0448e-06
-4.61738e-06
-8.51989e-06
-2.56651e-06
-7.93113e-06
-6.44108e-07
-7.28909e-06
1.13702e-06
-6.60504e-06
2.76652e-06
-5.89063e-06
4.23662e-06
-5.1576e-06
5.54219e-06
-4.41746e-06
6.68065e-06
-3.68114e-06
7.65194e-06
-2.95879e-06
8.4583e-06
-2.25949e-06
9.10409e-06
-1.59112e-06
9.5955e-06
-9.60224e-07
9.9403e-06
-3.71915e-07
1.01475e-05
1.70111e-07
1.02269e-05
6.63552e-07
1.01893e-05
1.10741e-06
1.00453e-05
1.50186e-06
9.80607e-06
1.84809e-06
9.48231e-06
2.14812e-06
9.08451e-06
2.40457e-06
8.62268e-06
2.62044e-06
8.10628e-06
2.79884e-06
7.54426e-06
2.94275e-06
6.94501e-06
3.05473e-06
6.31654e-06
3.13661e-06
5.66661e-06
3.18925e-06
5.00295e-06
3.21219e-06
4.3335e-06
3.20335e-06
3.66678e-06
3.15881e-06
3.01216e-06
3.07256e-06
2.38034e-06
2.93642e-06
1.78382e-06
2.74004e-06
1.23746e-06
2.47126e-06
7.59429e-07
2.11665e-06
3.72513e-07
1.66256e-06
1.06096e-07
1.09624e-06
4.09063e-07
-4.27791e-08
5.41379e-08
-1.70362e-07
2.71216e-07
-3.78797e-07
5.54031e-07
-6.61595e-07
8.61038e-07
-1.01091e-06
1.16537e-06
-1.41839e-06
1.44963e-06
-1.87587e-06
1.70434e-06
-2.37586e-06
1.92604e-06
-2.91184e-06
2.11556e-06
-3.47845e-06
2.27647e-06
-4.07148e-06
2.41384e-06
-4.68783e-06
2.53331e-06
-5.32537e-06
2.64036e-06
-5.98278e-06
2.73988e-06
-6.6594e-06
2.83595e-06
-7.35503e-06
2.93171e-06
-8.06982e-06
3.02946e-06
-8.80414e-06
3.13069e-06
-9.55848e-06
3.2363e-06
-1.03334e-05
3.34671e-06
-1.11296e-05
3.46202e-06
-1.19478e-05
3.58213e-06
-1.27885e-05
3.70686e-06
-1.36527e-05
3.836e-06
-1.45411e-05
3.96935e-06
-1.54546e-05
4.10676e-06
-1.63944e-05
4.24807e-06
-1.73613e-05
4.39315e-06
-1.83567e-05
4.54181e-06
-1.93815e-05
4.69378e-06
-2.0437e-05
4.84865e-06
-2.15242e-05
5.00582e-06
-2.2644e-05
5.16446e-06
-2.37971e-05
5.32344e-06
-2.49839e-05
5.48133e-06
-2.62046e-05
5.63635e-06
-2.74585e-05
5.78633e-06
-2.87447e-05
5.92875e-06
-3.00615e-05
6.06069e-06
-3.14067e-05
6.17886e-06
-3.27769e-05
6.27967e-06
-3.41684e-05
6.35916e-06
-3.55761e-05
6.41318e-06
-3.69944e-05
6.43732e-06
-3.84164e-05
6.42708e-06
-3.98346e-05
6.37792e-06
-4.12405e-05
6.28531e-06
-4.26245e-05
6.14491e-06
-4.39766e-05
5.95261e-06
-4.52857e-05
5.7047e-06
-4.65402e-05
5.3979e-06
-4.77281e-05
5.02959e-06
-4.88369e-05
4.5978e-06
-4.98536e-05
4.1014e-06
-5.07654e-05
3.54014e-06
-5.15594e-05
2.91478e-06
-5.22229e-05
2.22709e-06
-5.27436e-05
1.47998e-06
-5.31098e-05
6.77467e-07
-5.33105e-05
-1.7526e-07
-5.33357e-05
-1.07187e-06
-5.31765e-05
-2.00491e-06
-5.28253e-05
-2.96587e-06
-5.22762e-05
-3.94523e-06
-5.15249e-05
-4.93257e-06
-5.0569e-05
-5.91669e-06
-4.94083e-05
-6.8858e-06
-4.80448e-05
-7.82762e-06
-4.64826e-05
-8.72965e-06
-4.47284e-05
-9.57936e-06
-4.27916e-05
-1.03645e-05
-4.06837e-05
-1.10731e-05
-3.84189e-05
-1.16943e-05
-3.60137e-05
-1.22179e-05
-3.34867e-05
-1.26352e-05
-3.08587e-05
-1.29391e-05
-2.81521e-05
-1.31242e-05
-2.53907e-05
-1.3187e-05
-2.25994e-05
-1.31264e-05
-1.98035e-05
-1.29433e-05
-1.70286e-05
-1.2641e-05
-1.42998e-05
-1.2225e-05
-1.16416e-05
-1.1703e-05
-9.07688e-06
-1.10846e-05
-6.62692e-06
-1.03811e-05
-4.31078e-06
-9.60522e-06
-2.14504e-06
-8.77078e-06
-1.43467e-07
-7.8922e-06
1.68311e-06
-6.98418e-06
3.32691e-06
-6.06126e-06
4.78322e-06
-5.13745e-06
6.05029e-06
-4.22585e-06
7.12917e-06
-3.33837e-06
8.02349e-06
-2.48545e-06
8.73919e-06
-1.67592e-06
9.28413e-06
-9.16858e-07
9.66781e-06
-2.13569e-07
9.90095e-06
4.3041e-07
9.99516e-06
1.0132e-06
9.96257e-06
1.53445e-06
9.81553e-06
1.99512e-06
9.56636e-06
2.39729e-06
9.22707e-06
2.74386e-06
8.80924e-06
3.03827e-06
8.3239e-06
3.28419e-06
7.78146e-06
3.48519e-06
7.19178e-06
3.64441e-06
6.5642e-06
3.76419e-06
5.90773e-06
3.84573e-06
5.23123e-06
3.88868e-06
4.54372e-06
3.89086e-06
3.85466e-06
3.84787e-06
3.17435e-06
3.75287e-06
2.51443e-06
3.59634e-06
1.88844e-06
3.36604e-06
1.31256e-06
3.04713e-06
8.06705e-07
2.6225e-06
3.95987e-07
2.07328e-06
1.12754e-07
1.37947e-06
5.21817e-07
-5.69979e-08
1.11136e-07
-2.20948e-07
4.35166e-07
-4.8236e-07
8.15444e-07
-8.302e-07
1.20888e-06
-1.25302e-06
1.58819e-06
-1.73976e-06
1.93637e-06
-2.28029e-06
2.24487e-06
-2.86577e-06
2.51153e-06
-3.48884e-06
2.73863e-06
-4.14361e-06
2.93124e-06
-4.82562e-06
3.09585e-06
-5.53164e-06
3.23933e-06
-6.25951e-06
3.36822e-06
-7.00789e-06
3.48827e-06
-7.77612e-06
3.60417e-06
-8.56396e-06
3.71956e-06
-9.37153e-06
3.83703e-06
-1.01991e-05
3.9583e-06
-1.10472e-05
4.08441e-06
-1.19164e-05
4.21586e-06
-1.28072e-05
4.35286e-06
-1.37205e-05
4.49541e-06
-1.46571e-05
4.64342e-06
-1.56179e-05
4.79682e-06
-1.66041e-05
4.95557e-06
-1.7617e-05
5.11967e-06
-1.86581e-05
5.28914e-06
-1.9729e-05
5.46402e-06
-2.08314e-05
5.64422e-06
-2.19672e-05
5.82958e-06
-2.31382e-05
6.0197e-06
-2.43463e-05
6.21395e-06
-2.55932e-05
6.41135e-06
-2.68804e-05
6.61057e-06
-2.82089e-05
6.80983e-06
-2.95795e-05
7.00694e-06
-3.09923e-05
7.19919e-06
-3.2447e-05
7.38342e-06
-3.39423e-05
7.556e-06
-3.54763e-05
7.71283e-06
-3.7046e-05
7.84941e-06
-3.86477e-05
7.96083e-06
-4.02764e-05
8.04191e-06
-4.19263e-05
8.08722e-06
-4.35904e-05
8.09115e-06
-4.52606e-05
8.04809e-06
-4.69277e-05
7.95246e-06
-4.85817e-05
7.79887e-06
-5.02113e-05
7.58223e-06
-5.18045e-05
7.29788e-06
-5.33483e-05
6.94176e-06
-5.48292e-05
6.51048e-06
-5.62329e-05
6.00148e-06
-5.75447e-05
5.41315e-06
-5.87495e-05
4.74494e-06
-5.98321e-05
3.99743e-06
-6.07775e-05
3.17245e-06
-6.15706e-05
2.27312e-06
-6.21971e-05
1.3039e-06
-6.2643e-05
2.70641e-07
-6.28954e-05
-8.19443e-07
-6.29425e-05
-1.95779e-06
-6.27739e-05
-3.13451e-06
-6.23806e-05
-4.33848e-06
-6.17557e-05
-5.55746e-06
-6.08943e-05
-6.77817e-06
-5.97935e-05
-7.98653e-06
-5.84533e-05
-9.1678e-06
-5.68762e-05
-1.03068e-05
-5.50673e-05
-1.13882e-05
-5.30349e-05
-1.23969e-05
-5.079e-05
-1.3318e-05
-4.83468e-05
-1.41375e-05
-4.57223e-05
-1.48424e-05
-4.29362e-05
-1.54213e-05
-4.00109e-05
-1.58644e-05
-3.69712e-05
-1.61639e-05
-3.38437e-05
-1.63145e-05
-3.06567e-05
-1.63134e-05
-2.74396e-05
-1.61604e-05
-2.42224e-05
-1.58583e-05
-2.10349e-05
-1.54125e-05
-1.79066e-05
-1.48314e-05
-1.48655e-05
-1.41257e-05
-1.19381e-05
-1.33085e-05
-9.14853e-06
-1.23948e-05
-6.51805e-06
-1.14013e-05
-4.06489e-06
-1.03454e-05
-1.80386e-06
-9.24521e-06
2.53832e-07
-8.11896e-06
2.10062e-06
-6.98424e-06
3.73251e-06
-5.85775e-06
5.14896e-06
-4.75482e-06
6.35261e-06
-3.6891e-06
7.34896e-06
-2.67227e-06
8.146e-06
-1.71389e-06
8.75377e-06
-8.21338e-07
9.18396e-06
2.1815e-10
9.44945e-06
7.47703e-07
9.56392e-06
1.41998e-06
9.54143e-06
2.01762e-06
9.39609e-06
2.54263e-06
9.14182e-06
2.99813e-06
8.79206e-06
3.38802e-06
8.3597e-06
3.71655e-06
7.85691e-06
3.98798e-06
7.29521e-06
4.20611e-06
6.68551e-06
4.3739e-06
6.03823e-06
4.49301e-06
5.36354e-06
4.56337e-06
4.67161e-06
4.58279e-06
3.97297e-06
4.54651e-06
3.27897e-06
4.44687e-06
2.60225e-06
4.27306e-06
1.95746e-06
4.01083e-06
1.36209e-06
3.64251e-06
8.37623e-07
3.14697e-06
4.11069e-07
2.49983e-06
1.16898e-07
1.67364e-06
6.38714e-07
-7.16675e-08
1.82803e-07
-2.73137e-07
6.36635e-07
-5.89175e-07
1.13148e-06
-1.00397e-06
1.62368e-06
-1.50229e-06
2.08651e-06
-2.07017e-06
2.50425e-06
-2.69541e-06
2.87011e-06
-3.36774e-06
3.18386e-06
-4.07888e-06
3.44977e-06
-4.8224e-06
3.67476e-06
-5.59355e-06
3.867e-06
-6.38899e-06
4.03477e-06
-7.2065e-06
4.18573e-06
-8.04475e-06
4.32652e-06
-8.90305e-06
4.46248e-06
-9.78117e-06
4.59768e-06
-1.06792e-05
4.73504e-06
-1.15974e-05
4.8765e-06
-1.25362e-05
5.02323e-06
-1.34962e-05
5.1759e-06
-1.44782e-05
5.33484e-06
-1.5483e-05
5.50022e-06
-1.65118e-05
5.67219e-06
-1.75659e-05
5.85089e-06
-1.86469e-05
6.03656e-06
-1.97567e-05
6.22948e-06
-2.08975e-05
6.42997e-06
-2.20718e-05
6.63828e-06
-2.32821e-05
6.8546e-06
-2.45314e-05
7.07888e-06
-2.58226e-05
7.31082e-06
-2.71584e-05
7.54977e-06
-2.85416e-05
7.79462e-06
-2.99749e-05
8.04381e-06
-3.14602e-05
8.29521e-06
-3.29994e-05
8.54612e-06
-3.45935e-05
8.79325e-06
-3.62428e-05
9.03271e-06
-3.79468e-05
9.26002e-06
-3.97041e-05
9.47016e-06
-4.15123e-05
9.65757e-06
-4.33677e-05
9.81625e-06
-4.52656e-05
9.93981e-06
-4.72e-05
1.00216e-05
-4.91635e-05
1.00547e-05
-5.11477e-05
1.00322e-05
-5.31425e-05
9.94732e-06
-5.51369e-05
9.79326e-06
-5.71185e-05
9.56374e-06
-5.90735e-05
9.25292e-06
-6.09874e-05
8.85562e-06
-6.28443e-05
8.36746e-06
-6.46279e-05
7.78501e-06
-6.63207e-05
7.10595e-06
-6.79049e-05
6.32915e-06
-6.93623e-05
5.45484e-06
-7.06745e-05
4.48472e-06
-7.18234e-05
3.42198e-06
-7.27909e-05
2.27143e-06
-7.35598e-05
1.03951e-06
-7.41135e-05
-2.65712e-07
-7.44368e-05
-1.6345e-06
-7.45158e-05
-3.05555e-06
-7.43382e-05
-4.51602e-06
-7.3894e-05
-6.00167e-06
-7.31752e-05
-7.49698e-06
-7.21764e-05
-8.98533e-06
-7.0895e-05
-1.04492e-05
-6.93313e-05
-1.18705e-05
-6.74889e-05
-1.32307e-05
-6.53744e-05
-1.45113e-05
-6.29983e-05
-1.56941e-05
-6.03743e-05
-1.67615e-05
-5.75196e-05
-1.76971e-05
-5.44549e-05
-1.8486e-05
-5.12042e-05
-1.91152e-05
-4.77943e-05
-1.95738e-05
-4.42551e-05
-1.98538e-05
-4.06184e-05
-1.99501e-05
-3.69179e-05
-1.98609e-05
-3.31887e-05
-1.95875e-05
-2.9466e-05
-1.91352e-05
-2.57852e-05
-1.85122e-05
-2.21806e-05
-1.77303e-05
-1.86848e-05
-1.68042e-05
-1.53283e-05
-1.57514e-05
-1.21383e-05
-1.45912e-05
-9.13881e-06
-1.33449e-05
-6.34974e-06
-1.20343e-05
-3.78687e-06
-1.06818e-05
-1.46159e-06
-9.30952e-06
6.19057e-07
-7.93839e-06
2.45226e-06
-6.58802e-06
4.03918e-06
-5.27602e-06
5.38459e-06
-4.01768e-06
6.49646e-06
-2.82576e-06
7.38541e-06
-1.71029e-06