/*--------------------------------*- C++ -*----------------------------------*\
| =========                 |                                                 |
| \\      /  F ield         | OpenFOAM: The Open Source CFD Toolbox           |
|  \\    /   O peration     | Version:  2406                                  |
|   \\  /    A nd           | Website:  www.openfoam.com                      |
|    \\/     M anipulation  |                                                 |
\*---------------------------------------------------------------------------*/
FoamFile
{
    version     2.0;
    format      ascii;
    arch        "LSB;label=32;scalar=64";
    class       surfaceScalarField;
    location    "39.6";
    object      phi;
}
// * * * * * * * * * * * * * * * * * * * * * * * * * * * * * * * * * * * * * //

dimensions      [0 3 -1 0 0 0 0];

oriented        oriented;

internalField   nonuniform List<scalar> 
7080
(
2.72507e-07
-2.71321e-07
1.53245e-06
-1.29691e-06
3.35689e-06
-1.8232e-06
5.20376e-06
-1.87717e-06
6.72553e-06
-1.52575e-06
7.73419e-06
-1.02612e-06
8.26613e-06
-5.32402e-07
8.42648e-06
-1.6552e-07
8.36946e-06
6.15805e-08
8.18627e-06
1.8666e-07
7.90656e-06
2.89369e-07
7.47242e-06
4.45727e-07
6.77681e-06
7.13627e-07
5.67781e-06
1.12256e-06
4.02662e-06
1.68338e-06
1.67211e-06
2.39566e-06
-1.52891e-06
3.25274e-06
-5.70828e-06
4.2415e-06
-1.09776e-05
5.34285e-06
-1.74179e-05
6.52685e-06
-2.50579e-05
7.74178e-06
-3.38467e-05
8.9052e-06
-4.36257e-05
9.906e-06
-5.411e-05
1.06142e-05
-6.48817e-05
1.08953e-05
-7.54038e-05
1.06307e-05
-8.50551e-05
9.73811e-06
-9.31808e-05
8.18594e-06
-9.91468e-05
5.99726e-06
-0.000102391
3.24528e-06
-0.000102465
4.5744e-08
-9.90701e-05
-3.4502e-06
-9.20898e-05
-7.06147e-06
-8.16116e-05
-1.05816e-05
-6.79495e-05
-1.37844e-05
-5.16527e-05
-1.6434e-05
-3.35001e-05
-1.83005e-05
-1.44708e-05
-1.91834e-05
4.31578e-06
-1.89418e-05
2.16912e-05
-1.75261e-05
3.65589e-05
-1.50072e-05
4.8027e-05
-1.15901e-05
5.55349e-05
-7.60518e-06
5.89379e-05
-3.47103e-06
5.85311e-05
3.72446e-07
5.49878e-05
3.54157e-06
4.92284e-05
5.7887e-06
4.224e-05
7.03965e-06
3.49116e-05
7.396e-06
2.79103e-05
7.07182e-06
2.16535e-05
6.32858e-06
1.63211e-05
5.39326e-06
1.19376e-05
4.44152e-06
8.41025e-06
3.56857e-06
5.61744e-06
2.83607e-06
3.41057e-06
2.22848e-06
1.71323e-06
1.73063e-06
5.16907e-07
1.20038e-06
-7.56021e-08
6.20073e-07
-7.58305e-08
1.21595e-06
-1.45059e-06
4.10609e-06
-4.18968e-06
7.84767e-06
-5.51091e-06
1.14903e-05
-5.50551e-06
1.44464e-05
-4.44278e-06
1.63424e-05
-2.91112e-06
1.71676e-05
-1.34029e-06
1.70234e-05
-2.20113e-08
1.60921e-05
9.92365e-07
1.44518e-05
1.81562e-06
1.20643e-05
2.66239e-06
8.7335e-06
3.75214e-06
4.16576e-06
5.24862e-06
-1.99632e-06
7.23826e-06
-1.01155e-05
9.74129e-06
-2.05293e-05
1.27297e-05
-3.35083e-05
1.61333e-05
-4.92111e-05
1.98278e-05
-6.76117e-05
2.36099e-05
-8.84285e-05
2.71897e-05
-0.000111087
3.02215e-05
-0.000134745
3.23598e-05
-0.000158381
3.33181e-05
-0.000180902
3.29061e-05
-0.000201264
3.1039e-05
-0.000218551
2.77262e-05
-0.000232018
2.30531e-05
-0.000241098
1.71629e-05
-0.000245393
1.0242e-05
-0.000244652
2.51102e-06
-0.000238765
-5.77898e-06
-0.000227754
-1.43456e-05
-0.00021178
-2.28712e-05
-0.000191156
-3.09993e-05
-0.000166363
-3.83351e-05
-0.000138072
-4.44554e-05
-0.000107154
-4.89312e-05
-7.46754e-05
-5.1366e-05
-4.18745e-05
-5.14487e-05
-1.01042e-05
-4.90158e-05
1.92547e-05
-4.41103e-05
4.49026e-05
-3.70197e-05
6.57462e-05
-2.82786e-05
8.10105e-05
-1.86231e-05
9.03331e-05
-8.89922e-06
9.381e-05
5.39861e-08
9.20031e-05
7.53335e-06
8.58732e-05
1.30661e-05
7.66633e-05
1.64812e-05
6.57016e-05
1.78986e-05
5.42184e-05
1.76857e-05
4.31633e-05
1.63298e-05
3.31655e-05
1.43436e-05
2.45064e-05
1.21388e-05
1.72576e-05
1.00239e-05
1.13085e-05
8.11267e-06
6.58493e-06
6.42519e-06
3.0202e-06
4.71546e-06
7.71384e-07
2.86995e-06
6.68054e-07
1.81569e-06
-3.26257e-06
5.68993e-06
-8.12097e-06
1.0424e-05
-1.02407e-05
1.47523e-05
-9.8775e-06
1.79884e-05
-7.68602e-06
1.96801e-05
-4.62745e-06
1.97899e-05
-1.45277e-06
1.83637e-05
1.39681e-06
1.55014e-05
3.86006e-06
1.11459e-05
6.17663e-06
5.08459e-06
8.73793e-06
-3.07691e-06
1.19322e-05
-1.38219e-05
1.60222e-05
-2.7659e-05
2.11137e-05
-4.50272e-05
2.71623e-05
-6.62099e-05
3.39813e-05
-9.12063e-05
4.12163e-05
-0.000119616
4.83386e-05
-0.000150595
5.47008e-05
-0.00018294
5.96584e-05
-0.000215275
6.26946e-05
-0.000246258
6.34956e-05
-0.000274731
6.19557e-05
-0.000299793
5.81357e-05
-0.000320802
5.22054e-05
-0.000337332
4.43927e-05
-0.000349121
3.49489e-05
-0.000356019
2.4132e-05
-0.000357948
1.2202e-05
-0.000354874
-5.73766e-07
-0.000346797
-1.39094e-05
-0.000333753
-2.74847e-05
-0.000315829
-4.09285e-05
-0.000293191
-5.38039e-05
-0.00026612
-6.56013e-05
-0.000235049
-7.57432e-05
-0.000200602
-8.36102e-05
-0.000163617
-8.8589e-05
-0.000125151
-9.01486e-05
-8.64573e-05
-8.79325e-05
-4.89108e-05
-8.18567e-05
-1.39163e-05
-7.21826e-05
1.72183e-05
-5.95416e-05
4.33959e-05
-4.48852e-05
6.38291e-05
-2.93699e-05
7.80881e-05
-1.42001e-05
8.61368e-05
-4.72015e-07
8.83322e-05
1.094e-05
8.54286e-05
1.94734e-05
7.85064e-05
2.49131e-05
6.88673e-05
2.74197e-05
5.78169e-05
2.74626e-05
4.65126e-05
2.57281e-05
3.57755e-05
2.29348e-05
2.61378e-05
1.97244e-05
1.77907e-05
1.64916e-05
1.08663e-05
1.34016e-05
5.3605e-06
1.0222e-05
1.61033e-06
6.6711e-06
2.2743e-06
2.20267e-06
-5.43092e-06
6.57276e-06
-1.25191e-05
1.15365e-05
-1.5157e-05
1.56002e-05
-1.39475e-05
1.80627e-05
-1.012e-05
1.84768e-05
-5.04135e-06
1.67996e-05
2.37063e-07
1.29837e-05
5.20993e-06
6.95463e-06
9.88943e-06
-1.58529e-06
1.47078e-05
-1.31037e-05
2.02464e-05
-2.8205e-05
2.70161e-05
-4.7475e-05
3.52701e-05
-7.13503e-05
4.49588e-05
-9.99363e-05
5.57098e-05
-0.000132848
6.68429e-05
-0.000169128
7.74325e-05
-0.000207351
8.64852e-05
-0.00024589
9.31545e-05
-0.000283219
9.68942e-05
-0.000318112
9.74861e-05
-0.000349704
9.49792e-05
-0.000377451
8.95927e-05
-0.000401052
8.16311e-05
-0.000420363
7.14217e-05
-0.000435328
5.92807e-05
-0.000445932
4.5498e-05
-0.000452168
3.03369e-05
-0.000454014
1.4043e-05
-0.000451426
-3.14032e-06
-0.000444336
-2.09512e-05
-0.000432663
-3.9085e-05
-0.000416325
-5.71687e-05
-0.000395274
-7.47354e-05
-0.000369531
-9.12067e-05
-0.000339235
-0.000105887
-0.000304703
-0.00011798
-0.000266482
-0.000126643
-0.000225398
-0.000131068
-0.000182565
-0.000130609
-0.000139351
-0.000124927
-9.72886e-05
-0.000114123
-5.79176e-05
-9.88141e-05
-2.26209e-05
-8.01115e-05
7.53049e-06
-5.94791e-05
3.18434e-05
-3.85006e-05
5.00047e-05
-1.86454e-05
6.20181e-05
-1.10915e-06
6.81867e-05
1.32559e-05
6.90953e-05
2.39428e-05
6.56364e-05
3.08188e-05
5.89147e-05
3.41203e-05
5.01588e-05
3.4434e-05
4.0478e-05
3.25608e-05
3.08163e-05
2.93558e-05
2.1757e-05
2.55038e-05
1.37748e-05
2.13786e-05
7.07371e-06
1.6872e-05
2.25691e-06
1.15133e-05
4.49814e-06
2.42328e-06
-7.83849e-06
6.87948e-06
-1.70298e-05
1.14332e-05
-1.96878e-05
1.4427e-05
-1.69739e-05
1.51957e-05
-1.08826e-05
1.33416e-05
-3.20353e-06
8.81132e-06
4.77003e-06
1.42367e-06
1.25927e-05
-9.13364e-06
2.04518e-05
-2.34365e-05
2.90145e-05
-4.21675e-05
3.89881e-05
-6.59716e-05
5.08338e-05
-9.51976e-05
6.45166e-05
-0.000129685
7.94723e-05
-0.000168598
9.46548e-05
-0.000210471
0.000108754
-0.000253487
0.000120494
-0.000295876
0.000128927
-0.00033621
0.000133547
-0.000373505
0.000134253
-0.000407175
0.000131225
-0.000436927
0.000124802
-0.000462657
0.000115391
-0.000484368
0.000103404
-0.00050212
8.92224e-05
-0.000515989
7.31834e-05
-0.00052605
5.55744e-05
-0.000532355
3.66391e-05
-0.000534922
1.6589e-05
-0.000533724
-4.37752e-06
-0.000528678
-2.6052e-05
-0.000519647
-4.81867e-05
-0.000506438
-7.04618e-05
-0.00048882
-9.24489e-05
-0.000466552
-0.000113579
-0.000439434
-0.000133115
-0.000407374
-0.000150153
-0.000370482
-0.000163646
-0.00032917
-0.000172489
-0.000284234
-0.000175646
-0.000236905
-0.000172347
-0.000188816
-0.000162291
-0.000141855
-0.000145838
-9.79308e-05
-0.000124082
-5.86738e-05
-9.87635e-05
-2.52108e-05
-7.19729e-05
1.91806e-06
-4.57642e-05
2.26433e-05
-2.1811e-05
3.72039e-05
-1.26697e-06
4.60055e-05
1.51818e-05
4.96389e-05
2.72328e-05
4.88765e-05
3.49216e-05
4.4717e-05
3.86377e-05
3.82188e-05
3.90854e-05
3.04696e-05
3.71444e-05
2.23111e-05
3.36704e-05
1.45345e-05
2.91965e-05
7.62288e-06
2.37642e-05
2.46946e-06
1.67223e-05
6.95328e-06
2.52276e-06
-1.03322e-05
6.62091e-06
-2.11644e-05
1.00595e-05
-2.30879e-05
1.11444e-05
-1.80726e-05
9.31053e-06
-9.02941e-06
4.23233e-06
1.87026e-06
-4.20198e-06
1.32118e-05
-1.63687e-05
2.47555e-05
-3.28521e-05
3.69348e-05
-5.4432e-05
5.05881e-05
-8.1768e-05
6.63178e-05
-0.000115114
8.4169e-05
-0.000154016
0.000103406
-0.000197234
0.000122671
-0.000242908
0.000140305
-0.000288996
0.000154813
-0.000333703
0.000165168
-0.000375716
0.000170903
-0.000414216
0.000172007
-0.000448772
0.000168767
-0.000479223
0.00016163
-0.000505577
0.00015111
-0.000527951
0.000137721
-0.000546524
0.000121939
-0.000561512
0.00010418
-0.000573139
8.47913e-05
-0.000581619
6.40471e-05
-0.000587135
4.2159e-05
-0.000589817
1.92871e-05
-0.000589727
-4.43961e-06
-0.000586843
-2.88996e-05
-0.000581037
-5.39469e-05
-0.000572071
-7.93751e-05
-0.000559588
-0.000104873
-0.000543123
-0.000129981
-0.000522133
-0.000154039
-0.000496059
-0.000176159
-0.000464426
-0.000195211
-0.000426983
-0.000209864
-0.000383871
-0.000218692
-0.000335789
-0.000220366
-0.000284105
-0.000213918
-0.000230839
-0.000199055
-0.000178473
-0.000176413
-0.000129555
-0.00014766
-8.62131e-05
-0.000115308
-4.97509e-05
-8.22308e-05
-2.05584e-05
-5.10202e-05
1.66281e-06
-2.35087e-05
1.75022e-05
-6.86061e-07
2.76288e-05
1.70819e-05
3.27177e-05
2.98016e-05
3.35705e-05
3.77652e-05
3.1073e-05
4.15525e-05
2.6257e-05
4.19514e-05
2.00516e-05
3.98439e-05
1.34427e-05
3.58139e-05
7.16393e-06
2.99989e-05
2.32657e-06
2.15934e-05
9.25005e-06
2.42651e-06
-1.27433e-05
5.6306e-06
-2.44094e-05
7.20705e-06
-2.46429e-05
5.57775e-06
-1.64633e-05
3.16157e-07
-3.76087e-06
-8.84933e-06
1.10276e-05
-2.21588e-05
2.65244e-05
-4.02051e-05
4.28006e-05
-6.37514e-05
6.04854e-05
-9.34964e-05
8.0337e-05
-0.000129614
0.000102443
-0.000171451
0.000126014
-0.000217459
0.000149425
-0.000265509
0.000170733
-0.0003134
0.000188211
-0.00035931
0.00020074
-0.000401969
0.000207847
-0.000440623
0.000209578
-0.000474903
0.000206307
-0.000504712
0.000198595
-0.000530144
0.000187081
-0.000551428
0.000172412
-0.000568886
0.000155193
-0.000582893
0.000135955
-0.000593845
0.000115136
-0.00060213
9.30725e-05
-0.000608101
7.00075e-05
-0.00061206
4.61e-05
-0.00061424
2.14423e-05
-0.000614792
-3.91868e-06
-0.000613771
-2.99589e-05
-0.000611113
-5.66478e-05
-0.000606621
-8.39166e-05
-0.000599932
-0.000111616
-0.000590504
-0.000139466
-0.000577607
-0.000166998
-0.000560338
-0.000193491
-0.000537695
-0.000217918
-0.000508696
-0.000238925
-0.000472586
-0.000254861
-0.000429093
-0.00026391
-0.000378713
-0.000264341
-0.000322928
-0.000254871
-0.000264252
-0.000235109
-0.00020598
-0.000205941
-0.000151607
-0.000169684
-0.000104022
-0.000129811
-6.48526e-05
-9.01827e-05
-3.42951e-05
-5.4052e-05
-1.1586e-05
-2.33819e-05
4.37615e-06
1.14067e-06
1.45945e-05
1.95975e-05
1.99729e-05
3.24099e-05
2.13489e-05
4.01851e-05
1.96705e-05
4.36542e-05
1.5858e-05
4.36542e-05
1.09707e-05
4.07314e-05
5.91086e-06
3.50373e-05
1.8925e-06
2.56556e-05
1.11285e-05
2.04146e-06
-1.477e-05
3.69936e-06
-2.60878e-05
2.61802e-06
-2.35433e-05
-2.49387e-06
-1.1357e-05
-1.19252e-05
5.67696e-06
-2.59363e-05
2.50371e-05
-4.49429e-05
4.55315e-05
-6.96696e-05
6.75254e-05
-0.000100788
9.16015e-05
-0.000138465
0.000118011
-0.000181945
0.000145918
-0.000229507
0.000173569
-0.000278824
0.000198734
-0.000327555
0.000219454
-0.000373793
0.000234438
-0.00041623
0.000243165
-0.000454093
0.000245696
-0.000487022
0.000242493
-0.000514968
0.000234239
-0.00053812
0.000221736
-0.000556847
0.000205798
-0.000571634
0.000187193
-0.000583028
0.000166586
-0.000591589
0.000144521
-0.00059785
0.000121408
-0.000602292
9.75322e-05
-0.000605331
7.30702e-05
-0.000607311
4.81099e-05
-0.000608504
2.26705e-05
-0.000609107
-3.27507e-06
-0.000609238
-2.97824e-05
-0.000608924
-5.69134e-05
-0.000608074
-8.47144e-05
-0.000606452
-0.000113185
-0.000603626
-0.00014224
-0.000598922
-0.00017165
-0.000591389
-0.000200976
-0.000579785
-0.00022948
-0.000562633
-0.000256042
-0.000538363
-0.000279102
-0.000505575
-0.000296677
-0.000463413
-0.000306487
-0.000412005
-0.000306266
-0.000352854
-0.000294248
-0.000288998
-0.000269786
-0.000224734
-0.000233941
-0.000164784
-0.000189759
-0.000113072
-0.0001419
-7.16421e-05
-9.5489e-05
-4.04547e-05
-5.45832e-05
-1.81224e-05
-2.12011e-05
-2.97121e-06
4.4298e-06
6.44299e-06
2.29895e-05
1.12374e-05
3.53733e-05
1.24358e-05
4.24558e-05
1.09827e-05
4.50869e-05
7.95512e-06
4.37692e-05
4.3462e-06
3.86168e-05
1.36056e-06
2.86662e-05
1.24696e-05
1.25466e-06
-1.60252e-05
6.52402e-07
-2.54902e-05
-3.83104e-06
-1.90614e-05
-1.30604e-05
-2.12519e-06
-2.72367e-05
1.98502e-05
-4.66448e-05
4.44492e-05
-7.18375e-05
7.07232e-05
-0.000103432
9.91251e-05
-0.000141618
0.000129788
-0.00018565
0.000162048
-0.000233758
0.000194028
-0.000283493
0.000223308
-0.000332366
0.00024761
-0.000378336
0.000265427
-0.000419991
0.000276097
-0.000456495
0.000279673
-0.000487479
0.000276684
-0.000512952
0.00026797
-0.000533224
0.000254515
-0.000548822
0.000237338
-0.000560408
0.000217387
-0.000568693
0.00019548
-0.000574374
0.000172266
-0.000578083
0.000148227
-0.000580368
0.000123686
-0.000581681
9.8834e-05
-0.000582386
7.37602e-05
-0.000582772
4.84772e-05
-0.000583067
2.29429e-05
-0.000583448
-2.91892e-06
-0.000584051
-2.92072e-05
-0.000584964
-5.60293e-05
-0.000586215
-8.34924e-05
-0.000587743
-0.000111686
-0.000589349
-0.000140662
-0.000590627
-0.000170398
-0.000590888
-0.000200739
-0.000589074
-0.000231315
-0.000583702
-0.000261433
-0.00057288
-0.000289945
-0.00055444
-0.000315139
-0.000526248
-0.000334701
-0.000486703
-0.000345833
-0.000435377
-0.000345593
-0.000373644
-0.00033153
-0.000305041
-0.000302547
-0.000235004
-0.000259792
-0.000169745
-0.000207152
-0.000114428
-0.000150796
-7.15441e-05
-9.74618e-05
-4.06287e-05
-5.21063e-05
-1.9547e-05
-1.66486e-05
-5.9532e-06
9.40803e-06
1.99776e-06
2.74228e-05
5.72761e-06
3.87405e-05
6.3715e-06
4.44381e-05
5.0636e-06
4.50957e-05
2.85032e-06
4.08157e-05
8.66732e-07
3.06755e-05
1.3328e-05
-1.53828e-08
-1.60231e-05
-3.58393e-06
-2.18962e-05
-1.20962e-05
-1.05701e-05
-2.59038e-05
1.17005e-05
-4.51896e-05
3.91224e-05
-7.02397e-05
6.95079e-05
-0.000101585
0.00010206
-0.000139406
0.000136949
-0.000183092
0.000173468
-0.00023092
0.000209876
-0.000280417
0.000243519
-0.000328944
0.000271833
-0.000374294
0.000292956
-0.000414901
0.000306031
-0.000449839
0.000311031
-0.00047872
0.000308553
-0.00050162
0.000299584
-0.000518978
0.00028533
-0.000531495
0.000267034
-0.000540007
0.000245855
-0.00054538
0.000222767
-0.000548423
0.000198532
-0.000549837
0.000173691
-0.00055019
0.000148593
-0.000549923
0.000123433
-0.000549364
9.82928e-05
-0.000548756
7.31714e-05
-0.000548278
4.80208e-05
-0.00054807
2.27594e-05
-0.000548254
-2.7095e-06
-0.00054894
-2.8494e-05
-0.000550235
-5.47056e-05
-0.000552237
-8.14603e-05
-0.00055502
-0.000108873
-0.000558598
-0.000137054
-0.000562871
-0.000166094
-0.000567544
-0.000196035
-0.000572016
-0.000226814
-0.000575246
-0.000258174
-0.000575643
-0.000289521
-0.000571007
-0.000319751
-0.000558628
-0.000347064
-0.000535607
-0.000368844
-0.000499476
-0.000381723
-0.000449063
-0.000381948
-0.000385446
-0.00036617
-0.000312607
-0.000332635
-0.000237253
-0.000282508
-0.000167324
-0.000220724
-0.000109373
-0.000155417
-6.61712e-05
-9.53085e-05
-3.65712e-05
-4.62582e-05
-1.7507e-05
-9.65647e-06
-6.01006e-06
1.5915e-05
1.73694e-07
3.25599e-05
2.66776e-06
4.19314e-05
2.81289e-06
4.49584e-05
1.74203e-06
4.18697e-05
5.33432e-07
3.18979e-05
1.38512e-05
-1.79255e-06
-1.42628e-05
-8.91609e-06
-1.4714e-05
-2.1867e-05
2.33393e-06
-4.0462e-05
3.03323e-05
-6.49175e-05
6.35552e-05
-9.54178e-05
0.000100029
-0.000132237
0.00013887
-0.000174843
0.000179567
-0.000221751
0.000220373
-0.000270508
0.000258639
-0.000318407
0.000291416
-0.000363028
0.000316457
-0.000402635
0.000332562
-0.00043617
0.000339568
-0.000463219
0.00033808
-0.000483906
0.000329241
-0.000498803
0.000314481
-0.000508772
0.0002953
-0.00051482
0.000273081
-0.000517949
0.000248982
-0.00051906
0.000223874
-0.000518893
0.00019836
-0.000518015
0.000172804
-0.000516827
0.000147394
-0.000515597
0.00012219
-0.000514495
9.71748e-05
-0.000513626
7.22835e-05
-0.000513057
4.74314e-05
-0.000512844
2.25236e-05
-0.000513045
-2.53341e-06
-0.000513731
-2.78334e-05
-0.000514997
-5.3467e-05
-0.000516956
-7.95284e-05
-0.000519741
-0.000106115
-0.000523485
-0.000133337
-0.000528293
-0.00016131
-0.000534188
-0.000190162
-0.000541022
-0.00022
-0.000548347
-0.000250865
-0.000555243
-0.000282635
-0.000560137
-0.000314863
-0.000560661
-0.000346541
-0.000553671
-0.000375834
-0.000535545
-0.00039985
-0.000502888
-0.000414608
-0.000453654
-0.000415411
-0.000388487
-0.000397809
-0.000311792
-0.000359207
-0.000231706
-0.000300806
-0.000158143
-0.000228976
-9.90154e-05
-0.000154426
-5.70001e-05
-8.82725e-05
-2.98185e-05
-3.68299e-05
-1.34255e-05
-4.817e-07
-4.31541e-06
2.34596e-05
1.9335e-08
3.75909e-05
1.39227e-06
4.35971e-05
1.14704e-06
4.21053e-05
4.0183e-07
3.26576e-05
1.42483e-05
-4.0306e-06
-1.02848e-05
-1.51108e-05
-3.53782e-06
-3.2662e-05
1.98071e-05
-5.5985e-05
5.37092e-05
-8.53271e-05
9.28581e-05
-0.000120607
0.000135332
-0.000161629
0.000179871
-0.000207048
0.000224996
-0.000254687
0.000268
-0.00030175
0.000305704
-0.000345688
0.000335347
-0.000384515
0.000355285
-0.000417037
0.000365081
-0.000442751
0.000365284
-0.000461816
0.000357145
-0.000474892
0.00034232
-0.000482993
0.000322584
-0.000487269
0.00029958
-0.000488849
0.000274665
-0.000488708
0.000248846
-0.000487617
0.000222788
-0.000486124
0.000196873
-0.000484588
0.000171275
-0.000483213
0.000146028
-0.000482101
0.000121088
-0.000481286
9.63721e-05
-0.00048077
7.17817e-05
-0.000480547
4.72233e-05
-0.000480615
2.26084e-05
-0.000480992
-2.13895e-06
-0.000481718
-2.70886e-05
-0.000482863
-5.23023e-05
-0.00048453
-7.78427e-05
-0.000486852
-0.000103775
-0.000489993
-0.000130177
-0.000494138
-0.000157148
-0.000499471
-0.000184816
-0.000506121
-0.000213336
-0.000514086
-0.00024289
-0.000523085
-0.000273627
-0.000532362
-0.000305577
-0.000540437
-0.000338457
-0.000544877
-0.000371384
-0.000542213
-0.000402505
-0.000528173
-0.00042864
-0.000498452
-0.00044513
-0.000450079
-0.000446186
-0.000383228
-0.000426069
-0.000302817
-0.000381226
-0.000218686
-0.000313113
-0.000142938
-0.000230169
-8.46011e-05
-0.000146611
-4.54781e-05
-7.59477e-05
-2.17429e-05
-2.42261e-05
-8.47124e-06
1.01929e-05
-1.86794e-06
3.09775e-05
7.09975e-07
4.10268e-05
1.04356e-06
4.17595e-05
4.66375e-07
3.32455e-05
1.47078e-05
-6.58968e-06
-3.76695e-06
-2.17612e-05
1.17707e-05
-4.37783e-05
4.17177e-05
-7.14638e-05
8.14725e-05
-0.000105041
0.000126388
-0.000144003
0.000174333
-0.00018758
0.000223428
-0.000233708
0.000271142
-0.000279828
0.00031411
-0.000323166
0.000349051
-0.000361572
0.000373749
-0.000393593
0.000387312
-0.000418636
0.000390123
-0.000436795
0.000383447
-0.000448802
0.000369151
-0.000455764
0.000349284
-0.00045897
0.000325789
-0.00045965
0.00030026
-0.000458859
0.00027387
-0.000457386
0.000247369
-0.000455769
0.000221165
-0.000454324
0.000195421
-0.000453202
0.000170144
-0.000452443
0.00014526
-0.000452028
0.000120662
-0.000451904
9.62372e-05
-0.000452021
7.18852e-05
-0.000452334
4.75215e-05
-0.000452817
2.30758e-05
-0.000453467
-1.5058e-06
-0.000454304
-2.62686e-05
-0.000455376
-5.12476e-05
-0.00045676
-7.64768e-05
-0.000458563
-0.000101989
-0.000460929
-0.000127828
-0.000464042
-0.000154051
-0.000468121
-0.000180752
-0.000473407
-0.000208063
-0.000480129
-0.00023618
-0.000488415
-0.00026535
-0.000498153
-0.000295848
-0.000508756
-0.000327859
-0.000518864
-0.000361278
-0.000526021
-0.000395347
-0.000526486
-0.000428171
-0.000515398
-0.000456211
-0.000487587
-0.000473992
-0.000439201
-0.000474456
-0.000370052
-0.000450381
-0.000285853
-0.000397323
-0.000198576
-0.000317444
-0.000122688
-0.0002225
-6.75622e-05
-0.000131057
-3.30635e-05
-5.87309e-05
-1.35863e-05
-9.27574e-06
-3.71394e-06
2.10963e-05
3.90258e-07
3.69332e-05
1.25322e-06
4.08855e-05
6.65332e-07
3.38471e-05
1.53676e-05
-9.28347e-06
5.42345e-06
-2.84174e-05
3.10767e-05
-5.45073e-05
6.76674e-05
-8.59288e-05
0.000112987
-0.000122798
0.000163191
-0.000164083
0.000215658
-0.000208468
0.00026778
-0.000253393
0.000316084
-0.000296239
0.000356937
-0.000334508
0.000387328
-0.000366588
0.000405818
-0.000391613
0.000412342
-0.00040962
0.000408125
-0.00042128
0.00039511
-0.000427788
0.000375658
-0.000430512
0.000352011
-0.000430803
0.000326079
-0.000429773
0.000299232
-0.000428258
0.000272356
-0.000426785
0.0002459
-0.000425647
0.00022003
-0.000424947
0.000194726
-0.000424683
0.000169886
-0.000424792
0.000145375
-0.000425188
0.000121065
-0.000425788
9.68463e-05
-0.000426524
7.26309e-05
-0.000427346
4.83544e-05
-0.000428226
2.3968e-05
-0.000429157
-5.61609e-07
-0.000430153
-2.52597e-05
-0.000431246
-5.01418e-05
-0.000432488
-7.5222e-05
-0.000433954
-0.00010051
-0.000435748
-0.000126022
-0.000438007
-0.000151781
-0.000440914
-0.000177835
-0.000444701
-0.000204267
-0.000449651
-0.000231223
-0.00045607
-0.000258927
-0.00046421
-0.000287704
-0.000474117
-0.000317949
-0.000485372
-0.000350022
-0.000496718
-0.000384
-0.000505657
-0.00041923
-0.000508156
-0.000453708
-0.000498767
-0.000483374
-0.000471495
-0.000501722
-0.000421749
-0.000500127
-0.000349281
-0.000469802
-0.000261158
-0.000405578
-0.000172123
-0.000311544
-9.88697e-05
-0.000204299
-4.96522e-05
-0.000107947
-2.1209e-05
-3.77121e-05
-6.49012e-06
6.36507e-06
-1.17213e-07
3.05702e-05
1.50705e-06
3.92471e-05
9.10663e-07
3.44572e-05
1.62709e-05
-1.18691e-05
1.71848e-05
-3.45594e-05
5.39755e-05
-6.4083e-05
9.70268e-05
-9.83899e-05
0.00014741
-0.000137412
0.000202141
-0.000179584
0.000257885
-0.000223178
0.000311341
-0.000265396
0.000358327
-0.000303817
0.000395342
-0.000336379
0.000419906
-0.000362068
0.0004315
-0.000380623
0.000430907
-0.000392677
0.000420177
-0.000399365
0.000401804
-0.000402159
0.00037845
-0.000402471
0.000352325
-0.000401523
0.000325129
-0.000400186
0.000297895
-0.000399018
0.000271185
-0.000398288
0.000245168
-0.000398083
0.00021982
-0.00039836
0.000194999
-0.000399029
0.00017055
-0.000399977
0.000146318
-0.000401104
0.000122185
-0.000402323
9.80585e-05
-0.000403575
7.38744e-05
-0.000404819
4.95891e-05
-0.000406034
2.51739e-05
-0.000407219
6.12404e-07
-0.000408383
-2.41059e-05
-0.000409552
-4.89835e-05
-0.000410763
-7.4022e-05
-0.000412065
-9.9218e-05
-0.000413525
-0.000124571
-0.000415233
-0.000150083
-0.000417309
-0.000175767
-0.000419924
-0.00020166
-0.000423308
-0.000227844
-0.000427771
-0.00025447
-0.00043368
-0.000281799
-0.000441404
-0.00031023
-0.000451142
-0.000340287
-0.000462628
-0.000372516
-0.000474684
-0.000407174
-0.0004847
-0.000443692
-0.000488262
-0.000479807
-0.000479251
-0.000510726
-0.000450884
-0.000528483
-0.000398056
-0.000522631
-0.000321034
-0.00048261
-0.000229137
-0.000403456
-0.000140648
-0.000292787
-7.36143e-05
-0.000174972
-3.27709e-05
-7.85386e-05
-1.11953e-05
-1.52257e-05
-1.4045e-06
2.07913e-05
1.50884e-06
3.63193e-05
1.10516e-06
3.48756e-05
1.73695e-05
-1.41317e-05
3.11923e-05
-3.97675e-05
7.9844e-05
-7.19271e-05
0.000128995
-0.000108152
0.000183761
-0.000148144
0.000242046
-0.000189879
0.000299676
-0.000231392
0.000352809
-0.000269886
0.000396845
-0.000303313
0.000428745
-0.000330126
0.00044673
-0.000349919
0.000451281
-0.000363003
0.000443998
-0.0003705
0.000427666
-0.000373826
0.000405133
-0.000374523
0.000379142
-0.00037387
0.000351674
-0.000372845
0.000324101
-0.000372028
0.000297079
-0.000371719
0.000270874
-0.000371979
0.00024543
-0.000372758
0.0002206
-0.000373937
0.000196181
-0.000375391
0.000172007
-0.000377002
0.000147934
-0.00037868
0.000123867
-0.000380354
9.97384e-05
-0.000381979
7.55067e-05
-0.00038353
5.11473e-05
-0.000384997
2.66483e-05
-0.000386381
2.00555e-06
-0.000387698
-2.27806e-05
-0.000388968
-4.77048e-05
-0.00039022
-7.27614e-05
-0.000391489
-9.79408e-05
-0.000392817
-0.000123235
-0.000394256
-0.000148635
-0.000395879
-0.000174139
-0.000397784
-0.00019975
-0.000400122
-0.000225501
-0.000403117
-0.000251471
-0.000407091
-0.000277823
-0.000412466
-0.000304855
-0.000419709
-0.000333044
-0.000429163
-0.000363063
-0.000440696
-0.000395643
-0.000453149
-0.000431241
-0.000463701
-0.000469254
-0.000467399
-0.000507026
-0.000457335
-0.000538537
-0.00042596
-0.000553999
-0.000368064
-0.000540504
-0.000285323
-0.000486221
-0.000190651
-0.000387462
-0.000106421
-0.000259223
-4.95255e-05
-0.000135389
-1.85795e-05
-4.61914e-05
-3.96354e-06
6.18595e-06
1.02806e-06
3.13138e-05
1.17562e-06
3.47394e-05
1.85394e-05
-1.58668e-05
4.69275e-05
-4.36684e-05
0.000107902
-7.75592e-05
0.000162681
-0.00011469
0.000221035
-0.000154527
0.000281792
-0.000194714
0.000339928
-0.00023323
0.000391281
-0.000267462
0.000431111
-0.000295828
0.000457091
-0.000317319
0.000468241
-0.0003321
0.000466053
-0.000340953
0.000452866
-0.00034533
0.000432038
-0.000346733
0.000406546
-0.000346606
0.000379012
-0.000345982
0.000351054
-0.000345557
0.000323673
-0.00034564
0.000297165
-0.000346331
0.000271563
-0.000347556
0.000246655
-0.000349198
0.000222239
-0.000351108
0.000198091
-0.000353169
0.000174064
-0.000355274
0.000150037
-0.000357356
0.000125945
-0.000359361
0.000101739
-0.000361262
7.74019e-05
-0.000363041
5.29217e-05
-0.000364699
2.82998e-05
-0.000366241
3.54143e-06
-0.000367684
-2.1345e-05
-0.000369047
-4.63483e-05
-0.000370356
-7.14585e-05
-0.00037164
-9.66632e-05
-0.000372929
-0.000121953
-0.000374254
-0.000147315
-0.000375656
-0.000172741
-0.000377185
-0.000198225
-0.000378922
-0.000223768
-0.000380996
-0.000249399
-0.000383624
-0.000275196
-0.000387143
-0.000301338
-0.000392025
-0.000328162
-0.000398836
-0.000356254
-0.000408042
-0.000386437
-0.000419598
-0.000419687
-0.000432279
-0.000456573
-0.000442885
-0.000496422
-0.000445724
-0.00053569
-0.000432936
-0.000566778
-0.000396351
-0.000577076
-0.000331293
-0.000551286
-0.000242288
-0.000476487
-0.000147515
-0.000354016
-7.2754e-05
-0.00021013
-2.91049e-05
-8.98201e-05
-8.12764e-06
-1.48017e-05
-5.86189e-08
2.32417e-05
1.0895e-06
3.35946e-05
1.96268e-05
-1.69514e-05
6.3738e-05
-4.60636e-05
0.000137281
-8.07673e-05
0.000197165
-0.000117851
0.000258266
-0.000156573
0.000320412
-0.000194388
0.000377808
-0.000229369
0.000426209
-0.000259208
0.000460981
-0.000282822
0.000480675
-0.000299709
0.000485145
-0.000310523
0.000476851
-0.000316384
0.000458735
-0.000318892
0.000434534
-0.000319478
0.000407136
-0.000319376
0.0003789
-0.000319333
0.000351014
-0.000319785
0.000324119
-0.000320832
0.000298213
-0.000322441
0.000273169
-0.000324469
0.000248685
-0.000326779
0.000224549
-0.000329231
0.000200546
-0.000331727
0.000176561
-0.000334183
0.000152497
-0.000336552
0.000128316
-0.000338795
0.000103987
-0.000340896
7.95073e-05
-0.000342847
5.48772e-05
-0.00034465
3.01079e-05
-0.000346315
5.2116e-06
-0.000347859
-1.97964e-05
-0.000349301
-4.49004e-05
-0.000350668
-7.00866e-05
-0.000351984
-9.53412e-05
-0.000353278
-0.000120654
-0.000354573
-0.000146015
-0.000355894
-0.000171417
-0.000357263
-0.000196851
-0.000358716
-0.000222313
-0.00036031
-0.000247803
-0.000362159
-0.000273346
-0.000364471
-0.000299025
-0.000367604
-0.000325028
-0.00037209
-0.000351769
-0.000378596
-0.000379931
-0.000387695
-0.000410592
-0.000399366
-0.000444901
-0.000412163
-0.000483632
-0.000422276
-0.000525572
-0.000423006
-0.000566046
-0.000405455
-0.00059461
-0.000361132
-0.0005956
-0.000287121
-0.000550521
-0.000192732
-0.000448413
-0.000103156
-0.000299752
-4.34661e-05
-0.000149438
-1.39745e-05
-4.43114e-05
-1.83875e-06
1.11037e-05
8.66048e-07
3.08883e-05
2.04935e-05
-1.73069e-05
8.09041e-05
-4.68434e-05
0.000167092
-8.14724e-05
0.000231574
-0.000117656
0.000294604
-0.00015449
0.000357145
-0.000189383
0.000412773
-0.000220609
0.000457385
-0.000246229
0.000486641
-0.000265639
0.000500062
-0.000278782
0.000498314
-0.000286684
0.000484742
-0.000290646
0.000462714
-0.000292265
0.000436147
-0.000292792
0.000407675
-0.000293203
0.000379308
-0.00029398
0.000351798
-0.000295348
0.000325485
-0.000297265
0.000300136
-0.000299632
0.000275535
-0.000302284
0.00025134
-0.000305095
0.000227358
-0.000307946
0.000203397
-0.000310762
0.000179375
-0.000313482
0.000155216
-0.000316073
0.000130903
-0.000318506
0.000106418
-0.000320774
8.1771e-05
-0.000322868
5.69682e-05
-0.000324794
3.20304e-05
-0.000326562
6.97546e-06
-0.000328188
-1.81746e-05
-0.000329692
-4.33997e-05
-0.000331101
-6.86821e-05
-0.000332439
-9.40063e-05
-0.000333735
-0.000119362
-0.000335012
-0.000144741
-0.000336292
-0.00017014
-0.000337588
-0.000195557
-0.000338916
-0.000220987
-0.00034029
-0.00024643
-0.000341754
-0.000271883
-0.000343403
-0.000297376
-0.000345448
-0.000322982
-0.000348275
-0.000348944
-0.00035249
-0.000375714
-0.00035887
-0.000404215
-0.000368075
-0.000435693
-0.000380002
-0.000471712
-0.000392763
-0.000512807
-0.000401605
-0.000557209
-0.000398551
-0.000597647
-0.000373668
-0.000620472
-0.000319
-0.00060518
-0.000235178
-0.000532271
-0.000139213
-0.000395735
-6.27048e-05
-0.000225952
-2.15146e-05
-8.54296e-05
-4.41157e-06
-6.04942e-06
5.33808e-07
2.59542e-05
2.10265e-05
-1.69381e-05
9.76996e-05
-4.60548e-05
0.00019648
-7.98155e-05
0.000265112
-0.0001144
0.00032934
-0.000148792
0.00039143
-0.000180472
0.000444522
-0.000207977
0.000484834
-0.000229755
0.000508453
-0.000245625
0.0005159
-0.000255887
0.000508596
-0.000261803
0.000490636
-0.000264722
0.000465643
-0.000266125
0.000437534
-0.000267028
0.000408582
-0.000268157
0.000380424
-0.000269771
0.000353415
-0.000271952
0.000327657
-0.000274576
0.000302762
-0.000277523
0.000278476
-0.000280633
0.000254451
-0.000283806
0.000230529
-0.000286946
0.000206538
-0.000290002
0.00018243
-0.000292925
0.000158141
-0.000295693
0.000133672
-0.000298284
0.000109012
-0.000300691
8.41801e-05
-0.000302909
5.91892e-05
-0.000304943
3.4067e-05
-0.000306801
8.83704e-06
-0.0003085
-1.64723e-05
-0.00031006
-4.18366e-05
-0.000311505