/*--------------------------------*- C++ -*----------------------------------*\
| =========                 |                                                 |
| \\      /  F ield         | OpenFOAM: The Open Source CFD Toolbox           |
|  \\    /   O peration     | Version:  2406                                  |
|   \\  /    A nd           | Website:  www.openfoam.com                      |
|    \\/     M anipulation  |                                                 |
\*---------------------------------------------------------------------------*/
FoamFile
{
    version     2.0;
    format      ascii;
    arch        "LSB;label=32;scalar=64";
    class       surfaceScalarField;
    location    "7.85";
    object      phi;
}
// * * * * * * * * * * * * * * * * * * * * * * * * * * * * * * * * * * * * * //

dimensions      [0 3 -1 0 0 0 0];

oriented        oriented;

internalField   nonuniform List<scalar> 
28560
(
4.17356e-09
-4.16908e-09
2.4556e-09
1.71792e-09
-9.81929e-09
1.22747e-08
-3.27086e-08
2.28893e-08
-6.4745e-08
3.20364e-08
-1.04073e-07
3.93282e-08
-1.48922e-07
4.48485e-08
-1.97779e-07
4.88569e-08
-2.49431e-07
5.16524e-08
-3.02945e-07
5.35135e-08
-3.57623e-07
5.46787e-08
-4.12966e-07
5.53424e-08
-4.68622e-07
5.56567e-08
-5.2436e-07
5.57375e-08
-5.8003e-07
5.56704e-08
-6.35547e-07
5.55167e-08
-6.90865e-07
5.53185e-08
-7.45969e-07
5.51034e-08
-8.00857e-07
5.48885e-08
-8.5554e-07
5.46828e-08
-9.1003e-07
5.44896e-08
-9.64339e-07
5.43089e-08
-1.01848e-06
5.41377e-08
-1.07245e-06
5.39716e-08
-1.12625e-06
5.38053e-08
-1.17989e-06
5.36329e-08
-1.23333e-06
5.34482e-08
-1.28658e-06
5.3245e-08
-1.3396e-06
5.3017e-08
-1.39235e-06
5.27582e-08
-1.44482e-06
5.24622e-08
-1.49694e-06
5.21228e-08
-1.54867e-06
5.1734e-08
-1.59996e-06
5.12893e-08
-1.65075e-06
5.07827e-08
-1.70095e-06
5.02077e-08
-1.75051e-06
4.95579e-08
-1.79934e-06
4.8827e-08
-1.84735e-06
4.80085e-08
-1.89444e-06
4.70962e-08
-1.94053e-06
4.60836e-08
-1.98549e-06
4.49646e-08
-2.02922e-06
4.37332e-08
-2.07161e-06
4.23838e-08
-2.11252e-06
4.09109e-08
-2.15183e-06
3.93096e-08
-2.1894e-06
3.75754e-08
-2.22511e-06
3.57044e-08
-2.2588e-06
3.36936e-08
-2.29034e-06
3.15406e-08
-2.31959e-06
2.92438e-08
-2.34639e-06
2.68028e-08
-2.37061e-06
2.42182e-08
-2.3921e-06
2.14916e-08
-2.41072e-06
1.86262e-08
-2.42635e-06
1.5626e-08
-2.43885e-06
1.24969e-08
-2.44809e-06
9.24571e-09
-2.45397e-06
5.88104e-09
-2.45639e-06
2.41454e-09
-2.45524e-06
-1.1502e-09
-2.45045e-06
-4.78847e-09
-2.44196e-06
-8.49461e-09
-2.4297e-06
-1.22511e-08
-2.41366e-06
-1.60416e-08
-2.39381e-06
-1.98486e-08
-2.37016e-06
-2.36537e-08
-2.34272e-06
-2.74381e-08
-2.31154e-06
-3.1182e-08
-2.27668e-06
-3.48656e-08
-2.23821e-06
-3.84689e-08
-2.19623e-06
-4.19721e-08
-2.15088e-06
-4.53556e-08
-2.10228e-06
-4.86006e-08
-2.05059e-06
-5.1689e-08
-1.99599e-06
-5.46036e-08
-1.93866e-06
-5.73289e-08
-1.87881e-06
-5.98505e-08
-1.81665e-06
-6.21558e-08
-1.75242e-06
-6.4234e-08
-1.68634e-06
-6.6076e-08
-1.61866e-06
-6.76751e-08
-1.54964e-06
-6.90261e-08
-1.47951e-06
-7.01264e-08
-1.40854e-06
-7.09749e-08
-1.33696e-06
-7.15727e-08
-1.26504e-06
-7.19225e-08
-1.19301e-06
-7.20286e-08
-1.12112e-06
-7.18969e-08
-1.04958e-06
-7.15342e-08
-9.78635e-07
-7.0948e-08
-9.08488e-07
-7.01465e-08
-8.3935e-07
-6.9138e-08
-7.7142e-07
-6.79305e-08
-7.04888e-07
-6.65316e-08
-6.39941e-07
-6.49475e-08
-5.76757e-07
-6.31836e-08
-5.15514e-07
-6.12434e-08
-4.56385e-07
-5.91282e-08
-3.99548e-07
-5.68376e-08
-3.45179e-07
-5.43684e-08
-2.93464e-07
-5.17155e-08
-2.44593e-07
-4.88711e-08
-1.98767e-07
-4.58256e-08
-1.56199e-07
-4.25679e-08
-1.17113e-07
-3.9086e-08
-8.17447e-08
-3.53686e-08
-5.03383e-08
-3.14064e-08
-2.31437e-08
-2.71946e-08
-4.073e-10
-2.27364e-08
1.76406e-08
-1.80479e-08
3.08065e-08
-1.3166e-08
3.89657e-08
-8.15917e-09
4.21222e-08
-3.15648e-09
4.04385e-08
1.68362e-09
3.43845e-08
6.05402e-09
2.50266e-08
9.35793e-09
1.41128e-08
1.09139e-08
4.61678e-09
9.49617e-09
4.61696e-09
-1.76509e-09
-2.40403e-09
-2.08677e-08
2.08204e-08
-6.46345e-08
5.60415e-08
-1.32797e-07
9.10514e-08
-2.22569e-07
1.21809e-07
-3.30219e-07
1.46978e-07
-4.51964e-07
1.66594e-07
-5.84396e-07
1.81288e-07
-7.24641e-07
1.91898e-07
-8.70386e-07
1.99259e-07
-1.01983e-06
2.04125e-07
-1.17162e-06
2.07133e-07
-1.32477e-06
2.088e-07
-1.47856e-06
2.0953e-07
-1.63252e-06
2.0963e-07
-1.78633e-06
2.09326e-07
-1.93979e-06
2.08779e-07
-2.09278e-06
2.08099e-07
-2.24525e-06
2.07358e-07
-2.39717e-06
2.06597e-07
-2.54852e-06
2.05838e-07
-2.69929e-06
2.05086e-07
-2.84949e-06
2.04336e-07
-2.9991e-06
2.03578e-07
-3.14809e-06
2.02795e-07
-3.29642e-06
2.0197e-07
-3.44406e-06
2.01082e-07
-3.59092e-06
2.0011e-07
-3.73694e-06
1.99033e-07
-3.88201e-06
1.9783e-07
-4.02602e-06
1.96478e-07
-4.16886e-06
1.94957e-07
-4.31037e-06
1.93244e-07
-4.4504e-06
1.91318e-07
-4.58877e-06
1.89156e-07
-4.7253e-06
1.86737e-07
-4.85978e-06
1.84038e-07
-4.99199e-06
1.81037e-07
-5.1217e-06
1.77713e-07
-5.24864e-06
1.74042e-07
-5.37256e-06
1.70003e-07
-5.49317e-06
1.65577e-07
-5.61018e-06
1.60742e-07
-5.72328e-06
1.5548e-07
-5.83214e-06
1.49773e-07
-5.93644e-06
1.43605e-07
-6.03582e-06
1.36963e-07
-6.12995e-06
1.29833e-07
-6.21847e-06
1.22207e-07
-6.30101e-06
1.14079e-07
-6.37721e-06
1.05445e-07
-6.44671e-06
9.63054e-08
-6.50916e-06
8.66646e-08
-6.56419e-06
7.65308e-08
-6.61148e-06
6.59164e-08
-6.6507e-06
5.48385e-08
-6.68152e-06
4.33189e-08
-6.70366e-06
3.1384e-08
-6.71684e-06
1.90654e-08
-6.72083e-06
6.40002e-09
-6.7154e-06
-6.57434e-09
-6.70038e-06
-1.98082e-08
-6.67563e-06
-3.32527e-08
-6.64102e-06
-4.68543e-08
-6.59651e-06
-6.0555e-08
-6.54206e-06
-7.42936e-08
-6.47771e-06
-8.80061e-08
-6.40352e-06
-1.01626e-07
-6.31962e-06
-1.15087e-07
-6.22616e-06
-1.28319e-07
-6.12338e-06
-1.41255e-07
-6.01153e-06
-1.53825e-07
-5.89092e-06
-1.65965e-07
-5.76191e-06
-1.77608e-07
-5.6249e-06
-1.88695e-07
-5.48034e-06
-1.99167e-07
-5.3287e-06
-2.08972e-07
-5.17049e-06
-2.18061e-07
-5.00625e-06
-2.26391e-07
-4.83656e-06
-2.33927e-07
-4.662e-06
-2.40637e-07
-4.48317e-06
-2.465e-07
-4.3007e-06
-2.51498e-07
-4.1152e-06
-2.55622e-07
-3.92731e-06
-2.58868e-07
-3.73764e-06
-2.61239e-07
-3.54682e-06
-2.62744e-07
-3.35545e-06
-2.63398e-07
-3.16413e-06
-2.63217e-07
-2.97344e-06
-2.62226e-07
-2.78394e-06
-2.60446e-07
-2.59619e-06
-2.57906e-07
-2.41069e-06
-2.54629e-07
-2.22798e-06
-2.50642e-07
-2.04855e-06
-2.45966e-07
-1.87288e-06
-2.4062e-07
-1.70144e-06
-2.34619e-07
-1.53472e-06
-2.27969e-07
-1.37317e-06
-2.20673e-07
-1.21729e-06
-2.12722e-07
-1.06755e-06
-2.04103e-07
-9.24476e-07
-1.94792e-07
-7.88589e-07
-1.84758e-07
-6.60449e-07
-1.73965e-07
-5.40645e-07
-1.62372e-07
-4.29795e-07
-1.49936e-07
-3.28544e-07
-1.3662e-07
-2.37555e-07
-1.22395e-07
-1.57493e-07
-1.07256e-07
-8.90011e-08
-9.12283e-08
-3.26591e-08
-7.43899e-08
1.10708e-08
-5.68959e-08
4.1928e-08
-3.90163e-08
5.99595e-08
-2.1188e-08
6.57105e-08
-4.06733e-09
6.04936e-08
1.12709e-08
4.65542e-08
2.32972e-08
2.76691e-08
2.97987e-08
9.42945e-09
2.77355e-08
1.40465e-08
-1.2737e-08
1.03328e-08
-5.74524e-08
6.55357e-08
-1.37085e-07
1.35674e-07
-2.50353e-07
2.04319e-07
-3.9362e-07
2.65076e-07
-5.62197e-07
3.15555e-07
-7.51229e-07
3.55627e-07
-9.56203e-07
3.86262e-07
-1.17319e-06
4.08883e-07
-1.39892e-06
4.2499e-07
-1.63078e-06
4.35986e-07
-1.86674e-06
4.43091e-07
-2.10526e-06
4.47317e-07
-2.3452e-06
4.49476e-07
-2.58577e-06
4.50194e-07
-2.82638e-06
4.49944e-07
-3.06667e-06
4.49069e-07
-3.30638e-06
4.47809e-07
-3.54535e-06
4.46327e-07
-3.78348e-06
4.44722e-07
-4.02069e-06
4.43049e-07
-4.25693e-06
4.4133e-07
-4.49216e-06
4.39565e-07
-4.72632e-06
4.37737e-07
-4.95935e-06
4.35819e-07
-5.19115e-06
4.33777e-07
-5.42164e-06
4.31572e-07
-5.6507e-06
4.29163e-07
-5.87817e-06
4.26509e-07
-6.10391e-06
4.23567e-07
-6.32772e-06
4.20292e-07
-6.54941e-06
4.1664e-07
-6.76873e-06
4.12567e-07
-6.98544e-06
4.08029e-07
-7.19927e-06
4.02981e-07
-7.40991e-06
3.97378e-07
-7.61704e-06
3.91174e-07
-7.82033e-06
3.84326e-07
-8.01941e-06
3.76789e-07
-8.21389e-06
3.68519e-07
-8.40336e-06
3.59474e-07
-8.58739e-06
3.49612e-07
-8.76554e-06
3.38894e-07
-8.93735e-06
3.27284e-07
-9.10232e-06
3.14748e-07
-9.25997e-06
3.01255e-07
-9.40979e-06
2.8678e-07
-9.55126e-06
2.71302e-07
-9.68385e-06
2.54803e-07
-9.80705e-06
2.37276e-07
-9.92032e-06
2.18717e-07
-1.00231e-05
1.9913e-07
-1.0115e-05
1.78527e-07
-1.01954e-05
1.56929e-07
-1.02639e-05
1.34365e-07
-1.03199e-05
1.10873e-07
-1.03631e-05
8.65022e-08
-1.0393e-05
6.1309e-08
-1.04093e-05
3.53608e-08
-1.04116e-05
8.73391e-09
-1.03997e-05
-1.84847e-08
-1.03733e-05
-4.62015e-08
-1.03323e-05
-7.43116e-08
-1.02764e-05
-1.02704e-07
-1.02057e-05
-1.31261e-07
-1.01201e-05
-1.59856e-07
-1.00198e-05
-1.88362e-07
-9.90477e-06
-2.16643e-07
-9.7753e-06
-2.44564e-07
-9.63163e-06
-2.71987e-07
-9.47411e-06
-2.98775e-07
-9.30314e-06
-3.24792e-07
-9.1192e-06
-3.49906e-07
-8.92282e-06
-3.7399e-07
-8.71459e-06
-3.96922e-07
-8.49517e-06
-4.18588e-07
-8.26526e-06
-4.38883e-07
-8.02561e-06
-4.57714e-07
-7.777e-06
-4.74997e-07
-7.52027e-06
-4.9066e-07
-7.25626e-06
-5.04645e-07
-6.98585e-06
-5.16907e-07
-6.70994e-06
-5.27414e-07
-6.42941e-06
-5.36146e-07
-6.14518e-06
-5.43098e-07
-5.85815e-06
-5.48275e-07
-5.5692e-06
-5.51696e-07
-5.27921e-06
-5.53386e-07
-4.98904e-06
-5.53381e-07
-4.69955e-06
-5.51724e-07
-4.41153e-06
-5.48459e-07
-4.1258e-06
-5.43636e-07
-3.84313e-06
-5.37304e-07
-3.56426e-06
-5.29507e-07
-3.28994e-06
-5.20287e-07
-3.02089e-06
-5.09675e-07
-2.75781e-06
-4.97694e-07
-2.50143e-06
-4.84354e-07
-2.25245e-06
-4.6965e-07
-2.01161e-06
-4.53562e-07
-1.77966e-06
-4.36054e-07
-1.55738e-06
-4.17072e-07
-1.34558e-06
-3.9655e-07
-1.14514e-06
-3.74409e-07
-9.56949e-07
-3.50564e-07
-7.81955e-07
-3.24929e-07
-6.21142e-07
-2.97433e-07
-4.75508e-07
-2.68029e-07
-3.46046e-07
-2.36719e-07
-2.33696e-07
-2.03579e-07
-1.39288e-07
-1.68798e-07
-6.34551e-08
-1.32728e-07
-6.517e-09
-9.59545e-08
3.16775e-08
-5.93825e-08
5.19762e-08
-2.4366e-08
5.61617e-08
7.0855e-09
4.7247e-08
3.22121e-08
2.99157e-08
4.71301e-08
1.08558e-08
4.67952e-08
2.49024e-08
-2.44219e-08
3.47547e-08
-9.60124e-08
1.37126e-07
-2.12447e-07
2.52108e-07
-3.70015e-07
3.61888e-07
-5.63775e-07
4.58835e-07
-7.88166e-07
5.39946e-07
-1.0376e-06
6.05065e-07
-1.30689e-06
6.55543e-07
-1.59142e-06
6.93416e-07
-1.88732e-06
7.2089e-07
-2.19141e-06
7.40074e-07
-2.50116e-06
7.52842e-07
-2.81462e-06
7.60776e-07
-3.1303e-06
7.65162e-07
-3.44712e-06
7.67014e-07
-3.76428e-06
7.67105e-07
-4.08122e-06
7.66007e-07
-4.39754e-06
7.64131e-07
-4.71297e-06
7.61756e-07
-5.02731e-06
7.59062e-07
-5.34042e-06
7.56154e-07
-5.65217e-06
7.53083e-07
-5.96246e-06
7.49857e-07
-6.27118e-06
7.46459e-07
-6.57822e-06
7.42851e-07
-6.88342e-06
7.38983e-07
-7.18665e-06
7.34796e-07
-7.48771e-06
7.30226e-07
-7.78641e-06
7.25207e-07
-8.08251e-06
7.19668e-07
-8.37576e-06
7.1354e-07
-8.66587e-06
7.06751e-07
-8.95253e-06
6.99229e-07
-9.2354e-06
6.90902e-07
-9.51412e-06
6.81696e-07
-9.78828e-06
6.71541e-07
-1.00575e-05
6.60362e-07
-1.03212e-05
6.48088e-07
-1.05791e-05
6.34648e-07
-1.08305e-05
6.19973e-07
-1.10751e-05
6.03994e-07
-1.13121e-05
5.86647e-07
-1.15411e-05
5.67872e-07
-1.17614e-05
5.4761e-07
-1.19725e-05
5.25811e-07
-1.21736e-05
5.0243e-07
-1.23643e-05
4.77428e-07
-1.25438e-05
4.50775e-07
-1.27114e-05
4.22451e-07
-1.28666e-05
3.92445e-07
-1.30086e-05
3.60758e-07
-1.31369e-05
3.27402e-07
-1.32508e-05
2.92404e-07
-1.33496e-05
2.55802e-07
-1.34329e-05
2.17651e-07
-1.35001e-05
1.78018e-07
-1.35506e-05
1.36987e-07
-1.35839e-05
9.46565e-08
-1.35997e-05
5.11414e-08
-1.35975e-05
6.57085e-09
-1.35771e-05
-3.89114e-08
-1.35381e-05
-8.51472e-08
-1.34805e-05
-1.31965e-07
-1.3404e-05
-1.79183e-07
-1.33087e-05
-2.26605e-07
-1.31945e-05
-2.74029e-07
-1.30616e-05
-3.21245e-07
-1.29102e-05
-3.68036e-07
-1.27406e-05
-4.14182e-07
-1.25531e-05
-4.59463e-07
-1.23482e-05
-5.03659e-07
-1.21265e-05
-5.46553e-07
-1.18885e-05
-5.87934e-07
-1.16348e-05
-6.276e-07
-1.13664e-05
-6.65359e-07
-1.1084e-05
-7.01031e-07
-1.07884e-05
-7.34452e-07
-1.04806e-05
-7.65472e-07
-1.01617e-05
-7.93962e-07
-9.83252e-06
-8.1981e-07
-9.49424e-06
-8.42925e-07
-9.14791e-06
-8.63238e-07
-8.79463e-06
-8.80698e-07
-8.43549e-06
-8.95279e-07
-8.07162e-06
-9.0697e-07
-7.70412e-06
-9.15783e-07
-7.33407e-06
-9.21745e-07
-6.96255e-06
-9.24899e-07
-6.59063e-06
-9.253e-07
-6.21934e-06
-9.23014e-07
-5.84969e-06
-9.18112e-07
-5.48266e-06
-9.10668e-07
-5.11921e-06
-9.00756e-07
-4.76027e-06
-8.88444e-07
-4.40677e-06
-8.73791e-07
-4.0596e-06
-8.56842e-07
-3.71967e-06
-8.37627e-07
-3.38787e-06
-8.16153e-07
-3.06511e-06
-7.92406e-07
-2.75233e-06
-7.66343e-07
-2.45048e-06
-7.379e-07
-2.16057e-06
-7.06982e-07
-1.88365e-06
-6.73476e-07
-1.62081e-06
-6.37249e-07
-1.37321e-06
-5.98162e-07
-1.14206e-06
-5.56081e-07
-9.28598e-07
-5.10895e-07
-7.34084e-07
-4.62543e-07
-5.59755e-07
-4.11048e-07
-4.06769e-07
-3.56564e-07
-2.76133e-07
-2.99434e-07
-1.68595e-07
-2.40267e-07
-8.4508e-08
-1.80041e-07
-2.36573e-08
-1.20233e-07
1.49607e-08
-6.29841e-08
3.33556e-08
-1.13094e-08
3.49111e-08
3.06566e-08
2.46252e-08
5.7416e-08
9.57707e-09
6.18433e-08
3.44794e-08
-3.53767e-08
7.01314e-08
-1.32755e-07
2.34505e-07
-2.8473e-07
4.04082e-07
-4.84619e-07
5.61778e-07
-7.2576e-07
6.99976e-07
-1.00157e-06
8.1576e-07
-1.3058e-06
9.09289e-07
-1.63271e-06
9.82457e-07
-1.97728e-06
1.03798e-06
-2.3352e-06
1.07882e-06
-2.70294e-06
1.10781e-06
-3.07762e-06
1.12752e-06
-3.45699e-06
1.14014e-06
-3.8393e-06
1.14747e-06
-4.22322e-06
1.15094e-06
-4.60779e-06
1.15167e-06
-4.99226e-06
1.15048e-06
-5.37611e-06
1.14798e-06
-5.75894e-06
1.14459e-06
-6.14047e-06
1.14059e-06
-6.52047e-06
1.13615e-06
-6.89874e-06
1.13135e-06
-7.2751e-06
1.12622e-06
-7.6494e-06
1.12075e-06
-8.02143e-06
1.11489e-06
-8.39101e-06
1.10856e-06
-8.75792e-06
1.10171e-06
-9.12192e-06
1.09423e-06
-9.48274e-06
1.08602e-06
-9.84008e-06
1.077e-06
-1.01936e-05
1.06707e-06
-1.0543e-05
1.05611e-06
-1.08878e-05
1.04403e-06
-1.12276e-05
1.03073e-06
-1.1562e-05
1.01609e-06
-1.18905e-05
1.00002e-06
-1.22125e-05
9.8241e-07
-1.25276e-05
9.6316e-07
-1.28351e-05
9.42169e-07
-1.31345e-05
9.19339e-07
-1.34251e-05
8.94576e-07
-1.37062e-05
8.67789e-07
-1.39772e-05
8.38896e-07
-1.42374e-05
8.07817e-07
-1.44861e-05
7.74484e-07
-1.47225e-05
7.38838e-07
-1.49459e-05
7.00829e-07
-1.51556e-05
6.60421e-07
-1.53507e-05
6.17592e-07
-1.55306e-05
5.72334e-07
-1.56945e-05
5.24655e-07
-1.58417e-05
4.74582e-07
-1.59714e-05
4.22161e-07
-1.60831e-05
3.67455e-07
-1.6176e-05
3.10551e-07
-1.62495e-05
2.51556e-07
-1.63031e-05
1.90597e-07
-1.63363e-05
1.27825e-07
-1.63486e-05
6.34109e-08
-1.63395e-05
-2.45273e-09
-1.63089e-05
-6.95531e-08
-1.62564e-05
-1.37658e-07
-1.61818e-05
-2.06516e-07
-1.60852e-05
-2.75861e-07
-1.59663e-05
-3.45413e-07
-1.58255e-05
-4.14877e-07
-1.56628e-05
-4.83952e-07
-1.54785e-05
-5.52327e-07
-1.5273e-05
-6.19688e-07
-1.50467e-05
-6.85722e-07
-1.48003e-05
-7.50116e-07
-1.45343e-05
-8.12563e-07
-1.42494e-05
-8.72767e-07
-1.39466e-05
-9.30442e-07
-1.36266e-05
-9.85319e-07
-1.32905e-05
-1.03715e-06
-1.29393e-05
-1.0857e-06
-1.2574e-05
-1.13076e-06
-1.21958e-05
-1.17215e-06
-1.18059e-05
-1.20973e-06
-1.14054e-05
-1.24336e-06
-1.09957e-05
-1.27295e-06
-1.0578e-05
-1.29844e-06
-1.01535e-05
-1.31978e-06
-9.7235e-06
-1.33696e-06
-9.28927e-06
-1.35002e-06
-8.85204e-06
-1.35897e-06
-8.41305e-06
-1.3639e-06
-7.97349e-06
-1.36486e-06
-7.53454e-06
-1.36196e-06
-7.09736e-06
-1.3553e-06
-6.66306e-06
-1.34497e-06
-6.23274e-06
-1.33107e-06
-5.80748e-06
-1.31371e-06
-5.38832e-06
-1.29295e-06
-4.9763e-06
-1.26886e-06
-4.57247e-06
-1.24146e-06
-4.17786e-06
-1.21076e-06
-3.79354e-06
-1.17673e-06
-3.42058e-06
-1.1393e-06
-3.0601e-06
-1.09837e-06
-2.71329e-06
-1.0538e-06
-2.38134e-06
-1.00542e-06
-2.06557e-06
-9.53027e-07
-1.7673e-06
-8.96433e-07
-1.48793e-06
-8.35446e-07
-1.22891e-06
-7.69917e-07
-9.91673e-07
-6.99777e-07
-7.77638e-07
-6.25084e-07
-5.88113e-07
-5.46089e-07
-4.24228e-07
-4.63319e-07
-2.86811e-07
-3.77683e-07
-1.76252e-07
-2.90601e-07
-9.23197e-08
-2.04165e-07
-3.39665e-08
-1.21337e-07
9.06501e-10
-4.61825e-08
1.56902e-08
1.58728e-08
1.54061e-08
5.77002e-08
6.99746e-09
7.02519e-08
4.14769e-08
-4.51653e-08
1.15297e-07
-1.66196e-07
3.55535e-07
-3.51238e-07
5.89125e-07
-5.90598e-07
8.01138e-07
-8.75692e-07
9.8507e-07
-1.19876e-06
1.13883e-06
-1.55283e-06
1.26335e-06
-1.93167e-06
1.3613e-06
-2.32991e-06
1.43622e-06
-2.74296e-06
1.49187e-06
-3.16702e-06
1.53187e-06
-3.599e-06
1.5595e-06
-4.03643e-06
1.57757e-06
-4.47738e-06
1.58842e-06
-4.92035e-06
1.59391e-06
-5.3642e-06
1.59552e-06
-5.80807e-06
1.59435e-06
-6.25132e-06
1.59123e-06
-6.69344e-06
1.58672e-06
-7.13406e-06
1.58121e-06
-7.57285e-06
1.57494e-06
-8.00956e-06
1.56806e-06
-8.44393e-06
1.56059e-06
-8.87572e-06
1.55254e-06
-9.30469e-06
1.54386e-06
-9.73058e-06
1.53446e-06
-1.01531e-05
1.52424e-06
-1.0572e-05
1.51309e-06
-1.09868e-05
1.50089e-06
-1.13973e-05
1.4875e-06
-1.18031e-05
1.4728e-06
-1.22036e-05
1.45666e-06
-1.25985e-05
1.43892e-06
-1.29872e-05
1.41946e-06
-1.33693e-05
1.39814e-06
-1.37441e-05
1.37482e-06
-1.41111e-05
1.34937e-06
-1.44696e-05
1.32165e-06
-1.48189e-05
1.29152e-06
-1.51584e-05
1.25887e-06
-1.54874e-05
1.22356e-06
-1.58051e-05
1.18549e-06
-1.61108e-05
1.14454e-06
-1.64036e-05
1.10062e-06
-1.66827e-05
1.05365e-06
-1.69474e-05
1.00355e-06
-1.71969e-05
9.50258e-07
-1.74302e-05
8.93744e-07
-1.76466e-05
8.33984e-07
-1.78452e-05
7.70976e-07
-1.80253e-05
7.04743e-07
-1.81861e-05
6.35331e-07
-1.83267e-05
5.62811e-07
-1.84465e-05
4.8728e-07
-1.85448e-05
4.08864e-07
-1.8621e-05
3.27714e-07
-1.86744e-05
2.44013e-07
-1.87046e-05
1.57969e-07
-1.8711e-05
6.98208e-08
-1.86933e-05
-2.01669e-08
-1.86511e-05
-1.11703e-07
-1.85843e-05
-2.04471e-07
-1.84927e-05
-2.98132e-07
-1.83762e-05
-3.92327e-07
-1.82349e-05
-4.86679e-07
-1.8069e-05
-5.80795e-07
-1.78787e-05
-6.74271e-07
-1.76643e-05
-7.66697e-07
-1.74264e-05
-8.57656e-07
-1.71654e-05
-9.46734e-07
-1.6882e-05
-1.03352e-06
-1.65769e-05
-1.11761e-06
-1.62511e-05
-1.19862e-06
-1.59053e-05
-1.27617e-06
-1.55407e-05
-1.34991e-06
-1.51584e-05
-1.41952e-06
-1.47594e-05
-1.4847e-06
-1.43449e-05
-1.54518e-06
-1.39164e-05
-1.60073e-06
-1.34749e-05
-1.65116e-06
-1.3022e-05
-1.6963e-06
-1.25589e-05
-1.73604e-06
-1.2087e-05
-1.7703e-06
-1.16078e-05
-1.79902e-06
-1.11225e-05
-1.8222e-06
-1.06327e-05
-1.83988e-06
-1.01396e-05
-1.85209e-06
-9.64452e-06
-1.85894e-06
-9.14888e-06
-1.86051e-06
-8.65391e-06
-1.85693e-06
-8.16088e-06
-1.84833e-06
-7.671e-06
-1.83484e-06
-7.18548e-06
-1.8166e-06
-6.70548e-06
-1.79371e-06
-6.23216e-06
-1.76627e-06
-5.76666e-06
-1.73436e-06
-5.31011e-06
-1.698e-06
-4.86367e-06
-1.6572e-06
-4.42849e-06
-1.61191e-06
-4.00577e-06
-1.56202e-06
-3.59674e-06
-1.5074e-06
-3.2027e-06
-1.44784e-06
-2.82499e-06
-1.38313e-06
-2.46502e-06
-1.31299e-06
-2.12429e-06
-1.23717e-06
-1.80431e-06
-1.15543e-06
-1.50665e-06
-1.06757e-06
-1.2329e-06
-9.73531e-07
-9.84574e-07
-8.7341e-07
-7.6309e-07
-7.67572e-07
-5.69661e-07
-6.56748e-07
-4.05177e-07
-5.42167e-07
-2.70069e-07
-4.2571e-07
-1.64136e-07
-3.10098e-07
-8.63624e-08
-1.99111e-07
-3.47107e-08
-9.78341e-08
-5.89441e-09
-1.29436e-08
4.83977e-09
4.69661e-08
3.96633e-09
7.11253e-08
4.54432e-08
-5.37421e-08
1.69039e-07
-1.95967e-07
4.9776e-07
-4.1108e-07
8.04237e-07
-6.8658e-07
1.07664e-06
-1.01195e-06
1.31044e-06
-1.37819e-06
1.50507e-06
-1.7775e-06
1.66266e-06
-2.20319e-06
1.78699e-06
-2.64954e-06
1.88256e-06
-3.11172e-06
1.95405e-06
-3.58577e-06
2.00592e-06
-4.06842e-06
2.04216e-06
-4.55707e-06
2.06623e-06
-5.04966e-06
2.081e-06
-5.54456e-06
2.08881e-06
-6.04052e-06
2.09148e-06
-6.53658e-06
2.09041e-06
-7.03199e-06
2.08663e-06
-7.52616e-06
2.08088e-06
-8.01861e-06
2.07367e-06
-8.50897e-06
2.0653e-06
-8.99688e-06
2.05597e-06
-9.48204e-06
2.04575e-06
-9.96414e-06
2.03464e-06
-1.04429e-05
2.02258e-06
-1.09179e-05
2.00948e-06
-1.13889e-05
1.99523e-06
-1.18555e-05
1.97967e-06
-1.23172e-05
1.96267e-06
-1.27738e-05
1.94405e-06
-1.32247e-05
1.92366e-06
-1.36693e-05
1.90132e-06
-1.41073e-05
1.87687e-06
-1.45379e-05
1.85012e-06
-1.49607e-05
1.82091e-06
-1.53749e-05
1.78907e-06
-1.578e-05
1.75442e-06
-1.61751e-05
1.71679e-06
-1.65596e-05
1.67603e-06
-1.69327e-05
1.63197e-06
-1.72937e-05
1.58447e-06
-1.76416e-05
1.53338e-06
-1.79756e-05
1.47859e-06
-1.82949e-05
1.41996e-06
-1.85987e-05
1.3574e-06
-1.8886e-05
1.29083e-06
-1.91559e-05
1.22019e-06
-1.94076e-05
1.14544e-06
-1.96402e-05
1.06656e-06
-1.98528e-05
9.83556e-07
-2.00445e-05
8.9648e-07
-2.02146e-05
8.05398e-07
-2.03622e-05
7.10414e-07
-2.04865e-05
6.11665e-07
-2.0587e-05
5.0932e-07
-2.06629e-05
4.03587e-07
-2.07136e-05
2.94707e-07
-2.07386e-05
1.82957e-07
-2.07374e-05
6.86495e-08
-2.07097e-05
-4.78708e-08
-2.06552e-05
-1.66226e-07
-2.05736e-05
-2.86008e-07
-2.0465e-05
-4.06782e-07
-2.03292e-05
-5.28089e-07
-2.01664e-05
-6.49446e-07
-1.99769e-05
-7.70356e-07
-1.97608e-05
-8.90308e-07
-1.95188e-05
-1.00878e-06
-1.92512e-05
-1.12526e-06
-1.89587e-05
-1.23921e-06
-1.86421e-05
-1.35012e-06
-1.83022e-05
-1.4575e-06
-1.794e-05
-1.56085e-06
-1.75564e-05
-1.65971e-06
-1.71527e-05
-1.75366e-06
-1.67299e-05
-1.84228e-06
-1.62894e-05
-1.9252e-06
-1.58325e-05
-2.00211e-06
-1.53605e-05
-2.07272e-06
-1.48749e-05
-2.13679e-06
-1.4377e-05
-2.19413e-06
-1.38685e-05
-2.24459e-06
-1.33507e-05
-2.28808e-06
-1.28252e-05
-2.32456e-06
-1.22934e-05
-2.35401e-06
-1.17568e-05
-2.37648e-06
-1.12168e-05
-2.39204e-06
-1.0675e-05
-2.40079e-06
-1.01326e-05
-2.40288e-06
-9.59108e-06
-2.39844e-06
-9.05176e-06
-2.38765e-06
-8.51592e-06
-2.37068e-06
-7.98485e-06
-2.34767e-06
-7.45978e-06
-2.31877e-06
-6.94195e-06
-2.28411e-06
-6.43255e-06
-2.24376e-06
-5.9328e-06
-2.19775e-06
-5.44391e-06
-2.14609e-06
-4.96712e-06
-2.0887e-06
-4.5037e-06
-2.02544e-06
-4.05497e-06
-1.95614e-06
-3.62228e-06
-1.88053e-06
-3.20707e-06
-1.79834e-06
-2.81083e-06
-1.70922e-06
-2.43514e-06
-1.61287e-06
-2.0816e-06
-1.50896e-06
-1.75187e-06
-1.3973e-06
-1.4476e-06
-1.2778e-06
-1.17039e-06
-1.15062e-06
-9.21715e-07
-1.01625e-06
-7.02848e-07
-8.75616e-07
-5.14727e-07
-7.30288e-07
-3.57832e-07
-5.82605e-07
-2.32023e-07
-4.35907e-07
-1.3637e-07
-2.94764e-07
-6.89717e-08
-1.65232e-07
-2.6776e-08
-5.51392e-08
-5.41267e-09
2.56027e-08
1.00454e-09
6.47081e-08
4.64477e-08
-6.12042e-08
2.30243e-07
-2.22191e-07
6.58747e-07
-4.64254e-07
1.0463e-06
-7.72403e-07
1.38479e-06
-1.1343e-06
1.67234e-06
-1.53967e-06
1.91044e-06
-1.97991e-06
2.1029e-06
-2.44778e-06
2.25487e-06
-2.93725e-06
2.37203e-06
-3.44327e-06
2.46008e-06
-3.96173e-06
2.52437e-06
-4.48924e-06
2.56967e-06
-5.02312e-06
2.6001e-06
-5.5612e-06
2.61908e-06
-6.10178e-06
2.62939e-06
-6.64352e-06
2.63323e-06
-7.18538e-06
2.63227e-06
-7.72653e-06
2.62778e-06
-8.26631e-06
2.62066e-06
-8.80417e-06
2.61153e-06
-9.33966e-06
2.60079e-06
-9.87236e-06
2.58867e-06
-1.04019e-05
2.57529e-06
-1.09279e-05
2.56065e-06
-1.145e-05
2.54469e-06
-1.19678e-05
2.52731e-06
-1.2481e-05
2.50837e-06
-1.2989e-05
2.4877e-06
-1.34915e-05
2.46512e-06
-1.39878e-05
2.44044e-06
-1.44776e-05
2.41347e-06
-1.49603e-05
2.38398e-06
-1.54352e-05
2.35179e-06
-1.59018e-05
2.31668e-06
-1.63593e-05
2.27844e-06
-1.68071e-05
2.23686e-06
-1.72444e-05
2.19173e-06
-1.76705e-05
2.14287e-06
-1.80845e-05
2.09006e-06
-1.84857e-05
2.03313e-06
-1.88731e-05
1.97191e-06
-1.9246e-05
1.90621e-06
-1.96033e-05
1.8359e-06
-1.99442e-05
1.76084e-06
-2.02677e-05
1.68093e-06
-2.05729e-05
1.59607e-06
-2.08589e-05
1.50619e-06
-2.11247e-05
1.41127e-06
-2.13695e-05
1.31129e-06
-2.15922e-05
1.20629e-06
-2.17921e-05
1.09633e-06
-2.19682e-05
9.81509e-07
-2.21197e-05
8.61968e-07
-2.2246e-05
7.37891e-07
-2.23461e-05
6.09499e-07
-2.24196e-05
4.77061e-07
-2.24658e-05
3.40884e-07
-2.24842e-05
2.0132e-07
-2.24743e-05
5.87609e-08
-2.24358e-05
-8.63593e-08
-2.23684e-05
-2.3357e-07
-2.22721e-05
-3.82366e-07
-2.21466e-05
-5.32209e-07
-2.19922e-05
-6.82531e-07
-2.18089e-05
-8.32743e-07
-2.1597e-05
-9.82234e-07
-2.1357e-05
-1.13038e-06
-2.10892e-05
-1.27655e-06
-2.07943e-05
-1.4201e-06
-2.04731e-05
-1.56041e-06
-2.01264e-05
-1.69686e-06
-1.97551e-05
-1.82883e-06
-1.93602e-05
-1.95574e-06
-1.89429e-05
-2.07704e-06
-1.85043e-05
-2.19221e-06
-1.80458e-05
-2.30077e-06
-1.75687e-05
-2.40227e-06
-1.70745e-05
-2.49634e-06
-1.65646e-05
-2.58263e-06
-1.60405e-05
-2.66088e-06
-1.55038e-05
-2.73085e-06
-1.4956e-05
-2.79238e-06
-1.43987e-05
-2.84536e-06
-1.38336e-05
-2.88975e-06
-1.3262e-05
-2.92554e-06
-1.26857e-05
-2.9528e-06
-1.21061e-05
-2.97161e-06
-1.15248e-05
-2.98211e-06
-1.09432e-05
-2.98448e-06
-1.03628e-05
-2.97889e-06
-9.78487e-06
-2.96554e-06
-9.21089e-06
-2.94465e-06
-8.64216e-06
-2.9164e-06
-8.07996e-06
-2.88097e-06
-7.52558e-06
-2.83849e-06
-6.98027e-06
-2.78907e-06
-6.44528e-06
-2.73274e-06
-5.92187e-06
-2.6695e-06
-5.41133e-06
-2.59924e-06
-4.91497e-06
-2.5218e-06
-4.43415e-06
-2.43696e-06
-3.97027e-06
-2.34441e-06
-3.52482e-06
-2.24379e-06
-3.09932e-06
-2.13472e-06
-2.6954e-06
-2.01679e-06
-2.31471e-06
-1.88965e-06
-1.95895e-06
-1.75306e-06
-1.6298e-06
-1.60695e-06
-1.32891e-06
-1.45152e-06
-1.05778e-06
-1.28737e-06
-8.17729e-07
-1.11567e-06
-6.09729e-07
-9.38288e-07
-4.34314e-07
-7.58019e-07
-2.91423e-07
-5.78798e-07
-1.80242e-07
-4.05945e-07
-9.90513e-08
-2.46423e-07
-4.50704e-08
-1.0912e-07
-1.43247e-08
-5.14299e-09
-1.50627e-09
5.18897e-08
4.49415e-08
-6.76863e-08
2.97929e-07
-2.45173e-07
8.36233e-07
-5.11172e-07
1.3123e-06
-8.48527e-07
1.72214e-06
-1.24324e-06
2.06705e-06
-1.68384e-06
2.35104e-06
-2.16091e-06
2.57997e-06
-2.66666e-06
2.76063e-06
-3.19473e-06
2.90009e-06
-3.73985e-06
3.00521e-06
-4.29777e-06
3.08229e-06
-4.86503e-06
3.13693e-06
-5.43885e-06
3.17392e-06
-6.01702e-06
3.19725e-06
-6.59778e-06
3.21015e-06
-7.17972e-06
3.21517e-06
-7.76176e-06
3.21431e-06
-8.34299e-06
3.20902e-06
-8.9227e-06
3.20037e-06
-9.50029e-06
3.18912e-06
-1.00752e-05
3.17573e-06
-1.06471e-05
3.1605e-06
-1.12153e-05
3.14357e-06
-1.17796e-05
3.12495e-06
-1.23395e-05
3.10459e-06
-1.28946e-05
3.08237e-06
-1.34444e-05
3.05813e-06
-1.39883e-05
3.03167e-06
-1.4526e-05
3.0028e-06
-1.50569e-05
2.97128e-06
-1.55803e-05
2.93688e-06
-1.60956e-05
2.89936e-06
-1.66023e-05
2.85848e-06
-1.70997e-05
2.81399e-06
-1.75869e-05
2.76565e-06
-1.80632e-05
2.71321e-06
-1.85279e-05
2.65644e-06
-1.89802e-05
2.59509e-06
-1.9419e-05
2.52895e-06
-1.98437e-05
2.4578e-06
-2.02532e-05
2.38143e-06
-2.06467e-05
2.29967e-06
-2.10231e-05
2.21233e-06
-2.13816e-05
2.11929e-06
-2.1721e-05
2.0204e-06
-2.20406e-05
1.91559e-06
-2.23392e-05
1.80479e-06
-2.26159e-05
1.68796e-06
-2.28697e-05
1.56513e-06
-2.30997e-05
1.43633e-06
-2.33051e-05
1.30166e-06
-2.34848e-05
1.16126e-06
-2.36382e-05
1.01531e-06
-2.37643e-05
8.64045e-07
-2.38626e-05
7.07741e-07
-2.39322e-05
5.46733e-07
-2.39728e-05
3.81403e-07
-2.39836e-05
2.12182e-07
-2.39644e-05
3.95503e-08
-2.39148e-05
-1.35967e-07
-2.38346e-05
-3.13799e-07
-2.37236e-05
-4.93336e-07
-2.35819e-05
-6.73931e-07
-2.34095e-05
-8.54905e-07
-2.32067e-05
-1.03555e-06
-2.29738e-05
-1.21515e-06
-2.27112e-05
-1.39295e-06
-2.24196e-05
-1.5682e-06
-2.20995e-05
-1.74015e-06
-2.17519e-05
-1.90806e-06
-2.13775e-05
-2.07119e-06
-2.09775e-05
-2.22884e-06
-2.0553e-05
-2.3803e-06
-2.01051e-05
-2.52494e-06
-1.96351e-05
-2.66215e-06
-1.91445e-05
-2.79136e-06
-1.86347e-05
-2.91206e-06
-1.81073e-05
-3.02382e-06
-1.75637e-05
-3.12624e-06
-1.70055e-05
-3.219e-06
-1.64345e-05
-3.30185e-06
-1.58523e-05
-3.37461e-06
-1.52605e-05
-3.43716e-06
-1.46608e-05
-3.48945e-06
-1.40548e-05
-3.5315e-06
-1.34442e-05
-3.56338e-06
-1.28307e-05
-3.5852e-06
-1.22156e-05
-3.59715e-06
-1.16007e-05
-3.59942e-06
-1.09873e-05
-3.59224e-06
-1.0377e-05
-3.57586e-06
-9.77113e-06
-3.55052e-06
-9.17107e-06
-3.51646e-06
-8.57817e-06
-3.47387e-06
-7.99373e-06
-3.42293e-06
-7.41904e-06
-3.36376e-06
-6.85539e-06
-3.2964e-06
-6.30405e-06
-3.22083e-06
-5.76633e-06
-3.13695e-06
-5.24356e-06
-3.04457e-06
-4.73712e-06
-2.9434e-06
-4.24843e-06
-2.8331e-06
-3.77899e-06
-2.71324e-06
-3.33034e-06
-2.58336e-06
-2.90411e-06
-2.44301e-06
-2.50198e-06
-2.29179e-06
-2.12564e-06
-2.12941e-06
-1.77679e-06
-1.9558e-06
-1.45709e-06
-1.77122e-06
-1.16806e-06
-1.5764e-06
-9.11023e-07
-1.3727e-06
-6.86999e-07
-1.16231e-06
-4.96569e-07
-9.48448e-07
-3.39754e-07
-7.35614e-07
-2.15866e-07
-5.29833e-07
-1.23368e-07
-3.38921e-07
-5.97433e-08
-1.72745e-07
-2.1376e-08
-4.35103e-08
-3.44402e-09
3.39577e-08
4.14975e-08
-7.3319e-08
3.71248e-07
-2.65267e-07
1.02818e-06
-5.52398e-07
1.59943e-06
-9.157e-07
2.08544e-06
-1.3397e-06
2.49105e-06
-1.81183e-06
2.82317e-06
-2.32187e-06
3.09001e-06
-2.86152e-06
3.30028e-06
-3.42406e-06
3.46262e-06
-4.00401e-06
3.58516e-06
-4.59699e-06
3.67527e-06
-5.19945e-06
3.7394e-06
-5.80856e-06
3.78303e-06
-6.42207e-06
3.81075e-06
-7.03816e-06
3.82624e-06
-7.65541e-06
3.83243e-06
-8.27268e-06
3.83157e-06
-8.88903e-06
3.82536e-06
-9.50369e-06
3.81503e-06
-1.0116e-05
3.80144e-06
-1.07254e-05
3.78515e-06
-1.13314e-05
3.76649e-06
-1.19335e-05
3.74565e-06
-1.25312e-05
3.72264e-06
-1.3124e-05
3.69741e-06
-1.37115e-05
3.66983e-06
-1.42931e-05
3.63972e-06
-1.48682e-05
3.60686e-06
-1.54365e-05
3.57102e-06
-1.59971e-05
3.53194e-06
-1.65496e-05
3.48935e-06
-1.70932e-05
3.44298e-06
-1.76273e-05
3.39253e-06
-1.8151e-05
3.33774e-06
-1.86637e-05
3.27833e-06
-1.91645e-05
3.214e-06
-1.96525e-05
3.1445e-06
-2.0127e-05
3.06954e-06
-2.05869e-05
2.98888e-06
-2.10314e-05
2.90228e-06
-2.14595e-05
2.80951e-06
-2.18702e-05
2.71035e-06
-2.22625e-05
2.60463e-06
-2.26353e-05
2.49218e-06
-2.29878e-05
2.37288e-06
-2.33189e-05
2.24664e-06
-2.36275e-05
2.11339e-06
-2.39126e-05
1.97311e-06
-2.41733e-05
1.82584e-06
-2.44087e-05
1.67165e-06
-2.46177e-05
1.51066e-06
-2.47994e-05
1.34304e-06
-2.49532e-05
1.16904e-06
-2.5078e-05
9.88927e-07
-2.51734e-05
8.03057e-07
-2.52385e-05
6.11829e-07
-2.52728e-05
4.15704e-07
-2.52758e-05
2.15198e-07
-2.52471e-05
1.08821e-08
-2.51865e-05
-1.96618e-07
-2.50936e-05
-4.0663e-07
-2.49685e-05
-6.18433e-07
-2.48112e-05
-8.31267e-07
-2.46218e-05
-1.04434e-06
-2.44005e-05
-1.25681e-06
-2.41478e-05
-1.46785e-06
-2.38642e-05
-1.67659e-06
-2.35502e-05
-1.88214e-06
-2.32067e-05
-2.08365e-06
-2.28345e-05
-2.28023e-06
-2.24347e-05
-2.47106e-06
-2.20082e-05
-2.6553e-06
-2.15564e-05
-2.83216e-06
-2.10804e-05
-3.00089e-06
-2.05818e-05
-3.1608e-06
-2.00619e-05
-3.31125e-06
-1.95223e-05
-3.45165e-06
-1.89646e-05
-3.58149e-06