/*--------------------------------*- C++ -*----------------------------------*\
| =========                 |                                                 |
| \\      /  F ield         | OpenFOAM: The Open Source CFD Toolbox           |
|  \\    /   O peration     | Version:  2406                                  |
|   \\  /    A nd           | Website:  www.openfoam.com                      |
|    \\/     M anipulation  |                                                 |
\*---------------------------------------------------------------------------*/
FoamFile
{
    version     2.0;
    format      ascii;
    arch        "LSB;label=32;scalar=64";
    class       volVectorField;
    location    "7.85";
    object      U;
}
// * * * * * * * * * * * * * * * * * * * * * * * * * * * * * * * * * * * * * //

dimensions      [0 1 -1 0 0 0 0];

internalField   nonuniform List<vector> 
14400
(
(2.36338e-06 -2.35344e-06 0)
(5.56139e-06 -4.01667e-07 0)
(-2.7489e-06 2.91764e-06 0)
(-2.39878e-05 6.18399e-06 0)
(-5.72248e-05 8.92311e-06 0)
(-0.000100335 1.10593e-05 0)
(-0.000151094 1.26404e-05 0)
(-0.000207523 1.37611e-05 0)
(-0.000267988 1.4522e-05 0)
(-0.000331209 1.50118e-05 0)
(-0.000396212 1.53043e-05 0)
(-0.000462287 1.54579e-05 0)
(-0.000528928 1.55173e-05 0)
(-0.000595792 1.55161e-05 0)
(-0.000662653 1.54784e-05 0)
(-0.000729375 1.54211e-05 0)
(-0.00079588 1.53558e-05 0)
(-0.000862133 1.52897e-05 0)
(-0.000928128 1.52268e-05 0)
(-0.000993868 1.51694e-05 0)
(-0.00105937 1.51178e-05 0)
(-0.00112465 1.50717e-05 0)
(-0.00118971 1.50298e-05 0)
(-0.00125458 1.49908e-05 0)
(-0.00131925 1.49527e-05 0)
(-0.00138371 1.4914e-05 0)
(-0.00144796 1.48726e-05 0)
(-0.00151198 1.48267e-05 0)
(-0.00157574 1.47744e-05 0)
(-0.00163921 1.4714e-05 0)
(-0.00170235 1.46436e-05 0)
(-0.00176511 1.45614e-05 0)
(-0.00182743 1.44656e-05 0)
(-0.00188925 1.43544e-05 0)
(-0.00195051 1.4226e-05 0)
(-0.00201111 1.40785e-05 0)
(-0.00207098 1.39101e-05 0)
(-0.00213003 1.37188e-05 0)
(-0.00218814 1.35028e-05 0)
(-0.00224522 1.32602e-05 0)
(-0.00230114 1.29891e-05 0)
(-0.00235579 1.26877e-05 0)
(-0.00240902 1.23543e-05 0)
(-0.00246071 1.1987e-05 0)
(-0.00251071 1.15842e-05 0)
(-0.00255886 1.11446e-05 0)
(-0.00260501 1.06665e-05 0)
(-0.002649 1.0149e-05 0)
(-0.00269066 9.5909e-06 0)
(-0.00272982 8.99151e-06 0)
(-0.00276631 8.35027e-06 0)
(-0.00279996 7.66696e-06 0)
(-0.0028306 6.94164e-06 0)
(-0.00285804 6.17472e-06 0)
(-0.00288213 5.36697e-06 0)
(-0.00290271 4.51952e-06 0)
(-0.0029196 3.63393e-06 0)
(-0.00293266 2.71213e-06 0)
(-0.00294175 1.75637e-06 0)
(-0.00294675 7.70133e-07 0)
(-0.00294752 -2.42037e-07 0)
(-0.00294396 -1.28056e-06 0)
(-0.002936 -2.33926e-06 0)
(-0.00292356 -3.41316e-06 0)
(-0.00290659 -4.49777e-06 0)
(-0.00288506 -5.58803e-06 0)
(-0.00285896 -6.67857e-06 0)
(-0.0028283 -7.76379e-06 0)
(-0.00279312 -8.83795e-06 0)
(-0.00275348 -9.89516e-06 0)
(-0.00270946 -1.09295e-05 0)
(-0.00266118 -1.19351e-05 0)
(-0.00260877 -1.29062e-05 0)
(-0.00255237 -1.38372e-05 0)
(-0.00249217 -1.47226e-05 0)
(-0.00242837 -1.55574e-05 0)
(-0.00236118 -1.6337e-05 0)
(-0.00229084 -1.70569e-05 0)
(-0.0022176 -1.77136e-05 0)
(-0.00214173 -1.83037e-05 0)
(-0.00206351 -1.88246e-05 0)
(-0.00198322 -1.92743e-05 0)
(-0.00190117 -1.96512e-05 0)
(-0.00181764 -1.99545e-05 0)
(-0.00173294 -2.01841e-05 0)
(-0.00164737 -2.03402e-05 0)
(-0.00156124 -2.04237e-05 0)
(-0.00147483 -2.04361e-05 0)
(-0.00138844 -2.0379e-05 0)
(-0.00130235 -2.02546e-05 0)
(-0.00121683 -2.00653e-05 0)
(-0.00113214 -1.98136e-05 0)
(-0.00104854 -1.95022e-05 0)
(-0.000966266 -1.91335e-05 0)
(-0.000885561 -1.87101e-05 0)
(-0.000806646 -1.82339e-05 0)
(-0.000729741 -1.77069e-05 0)
(-0.000655058 -1.71301e-05 0)
(-0.000582809 -1.65045e-05 0)
(-0.000513203 -1.583e-05 0)
(-0.000446453 -1.5106e-05 0)
(-0.000382774 -1.43313e-05 0)
(-0.000322393 -1.3504e-05 0)
(-0.000265544 -1.26213e-05 0)
(-0.000212475 -1.16803e-05 0)
(-0.000163448 -1.06777e-05 0)
(-0.000118739 -9.60992e-06 0)
(-7.86366e-05 -8.47416e-06 0)
(-4.34382e-05 -7.26849e-06 0)
(-1.3443e-05 -5.9929e-06 0)
(1.10608e-05 -4.65069e-06 0)
(2.98148e-05 -3.25036e-06 0)
(4.2622e-05 -1.80765e-06 0)
(4.94041e-05 -3.56844e-07 0)
(5.02455e-05 1.02282e-06 0)
(4.55029e-05 2.24482e-06 0)
(3.60609e-05 3.18498e-06 0)
(2.34218e-05 3.63135e-06 0)
(1.08749e-05 3.07993e-06 0)
(1.67574e-06 1.68106e-06 0)
(4.11577e-07 -5.54388e-06 0)
(-9.84887e-06 9.75783e-06 0)
(-4.7349e-05 3.59795e-05 0)
(-0.000114935 6.21882e-05 0)
(-0.00021023 8.50155e-05 0)
(-0.000329281 0.000103458 0)
(-0.000467474 0.00011763 0)
(-0.000620457 0.000128087 0)
(-0.000784451 0.000135513 0)
(-0.000956351 0.000140565 0)
(-0.0011337 0.000143823 0)
(-0.00131461 0.000145766 0)
(-0.0014977 0.000146774 0)
(-0.00168194 0.000147144 0)
(-0.00186665 0.000147095 0)
(-0.00205135 0.000146789 0)
(-0.00223573 0.000146338 0)
(-0.00241962 0.000145817 0)
(-0.0026029 0.000145273 0)
(-0.00278554 0.000144734 0)
(-0.00296749 0.000144212 0)
(-0.00314877 0.000143707 0)
(-0.00332936 0.000143216 0)
(-0.00350924 0.000142728 0)
(-0.0036884 0.000142231 0)
(-0.00386681 0.000141711 0)
(-0.0040444 0.000141152 0)
(-0.00422111 0.000140539 0)
(-0.00439685 0.000139857 0)
(-0.00457152 0.000139089 0)
(-0.00474499 0.00013822 0)
(-0.00491712 0.000137235 0)
(-0.00508775 0.000136116 0)
(-0.00525669 0.000134849 0)
(-0.00542376 0.000133418 0)
(-0.00558874 0.000131806 0)
(-0.00575137 0.000129997 0)
(-0.00591142 0.000127975 0)
(-0.00606861 0.000125724 0)
(-0.00622264 0.000123228 0)
(-0.0063732 0.000120471 0)
(-0.00651996 0.000117437 0)
(-0.00666258 0.000114112 0)
(-0.00680069 0.000110481 0)
(-0.00693391 0.000106532 0)
(-0.00706186 0.000102251 0)
(-0.00718412 9.76293e-05 0)
(-0.00730028 9.26563e-05 0)
(-0.00740992 8.7325e-05 0)
(-0.00751261 8.16301e-05 0)
(-0.0076079 7.55686e-05 0)
(-0.00769538 6.91398e-05 0)
(-0.0077746 6.23461e-05 0)
(-0.00784515 5.51926e-05 0)
(-0.0079066 4.76877e-05 0)
(-0.00795855 3.9843e-05 0)
(-0.00800061 3.16735e-05 0)
(-0.00803243 2.31977e-05 0)
(-0.00805366 1.44379e-05 0)
(-0.008064 5.42008e-06 0)
(-0.00806317 -3.82467e-06 0)
(-0.00805092 -1.32677e-05 0)
(-0.00802708 -2.28713e-05 0)
(-0.00799147 -3.25961e-05 0)
(-0.00794401 -4.24001e-05 0)
(-0.00788463 -5.22388e-05 0)
(-0.00781335 -6.20659e-05 0)
(-0.00773021 -7.18331e-05 0)
(-0.00763533 -8.14909e-05 0)
(-0.00752889 -9.09892e-05 0)
(-0.00741111 -0.000100278 0)
(-0.00728228 -0.000109306 0)
(-0.00714275 -0.000118026 0)
(-0.00699293 -0.000126389 0)
(-0.00683326 -0.000134351 0)
(-0.00666424 -0.000141869 0)
(-0.00648645 -0.000148903 0)
(-0.00630045 -0.000155418 0)
(-0.0061069 -0.000161383 0)
(-0.00590646 -0.00016677 0)
(-0.00569982 -0.000171557 0)
(-0.00548769 -0.000175726 0)
(-0.00527082 -0.000179266 0)
(-0.00504995 -0.000182169 0)
(-0.00482582 -0.000184433 0)
(-0.00459919 -0.00018606 0)
(-0.00437081 -0.000187057 0)
(-0.0041414 -0.000187434 0)
(-0.0039117 -0.000187205 0)
(-0.00368241 -0.000186388 0)
(-0.00345421 -0.000185 0)
(-0.00322778 -0.000183061 0)
(-0.00300375 -0.000180591 0)
(-0.00278275 -0.000177609 0)
(-0.00256539 -0.000174133 0)
(-0.00235225 -0.000170178 0)
(-0.00214392 -0.000165755 0)
(-0.00194095 -0.000160872 0)
(-0.00174392 -0.000155531 0)
(-0.00155339 -0.000149729 0)
(-0.00136994 -0.000143456 0)
(-0.00119418 -0.000136697 0)
(-0.00102672 -0.000129431 0)
(-0.000868218 -0.000121633 0)
(-0.000719361 -0.000113273 0)
(-0.000580873 -0.00010432 0)
(-0.000453514 -9.47471e-05 0)
(-0.000338069 -8.45312e-05 0)
(-0.000235339 -7.36639e-05 0)
(-0.000146113 -6.21586e-05 0)
(-7.11304e-05 -5.00641e-05 0)
(-1.10273e-05 -3.74831e-05 0)
(3.37491e-05 -2.46005e-05 0)
(6.30451e-05 -1.17276e-05 0)
(7.71919e-05 6.2269e-07 0)
(7.7271e-05 1.16867e-05 0)
(6.53619e-05 2.02934e-05 0)
(4.47064e-05 2.46301e-05 0)
(2.20287e-05 2.21337e-05 0)
(3.04151e-06 1.08513e-05 0)
(-3.02274e-06 2.98489e-06 0)
(-3.71037e-05 4.76264e-05 0)
(-0.000111047 0.000109085 0)
(-0.000227647 0.00016981 0)
(-0.000382213 0.000223435 0)
(-0.000570061 0.000267705 0)
(-0.00078535 0.000302563 0)
(-0.0010224 0.000328968 0)
(-0.00127611 0.000348268 0)
(-0.00154218 0.000361849 0)
(-0.00181708 0.000370988 0)
(-0.00209804 0.000376778 0)
(-0.00238292 0.00038012 0)
(-0.00267014 0.000381725 0)
(-0.00295854 0.000382139 0)
(-0.00324732 0.000381769 0)
(-0.00353591 0.000380908 0)
(-0.00382394 0.00037976 0)
(-0.00411116 0.000378458 0)
(-0.00439743 0.000377084 0)
(-0.00468264 0.00037568 0)
(-0.00496672 0.000374262 0)
(-0.00524962 0.000372825 0)
(-0.00553126 0.000371353 0)
(-0.00581158 0.000369819 0)
(-0.00609049 0.000368193 0)
(-0.00636788 0.00036644 0)
(-0.00664363 0.000364524 0)
(-0.00691757 0.000362408 0)
(-0.00718952 0.000360054 0)
(-0.00745928 0.000357424 0)
(-0.00772661 0.000354479 0)
(-0.00799125 0.00035118 0)
(-0.00825291 0.00034749 0)
(-0.00851128 0.000343369 0)
(-0.008766 0.000338777 0)
(-0.00901672 0.000333676 0)
(-0.00926303 0.000328026 0)
(-0.0095045 0.000321788 0)
(-0.0097407 0.000314925 0)
(-0.00997113 0.000307399 0)
(-0.0101953 0.000299172 0)
(-0.0104127 0.000290211 0)
(-0.0106227 0.000280483 0)
(-0.0108249 0.000269956 0)
(-0.0110185 0.000258605 0)
(-0.0112031 0.000246405 0)
(-0.0113779 0.000233337 0)
(-0.0115424 0.000219384 0)
(-0.011696 0.000204539 0)
(-0.011838 0.000188795 0)
(-0.0119677 0.000172157 0)
(-0.0120846 0.000154632 0)
(-0.012188 0.000136236 0)
(-0.0122774 0.000116995 0)
(-0.0123521 9.69384e-05 0)
(-0.0124117 7.6108e-05 0)
(-0.0124557 5.45517e-05 0)
(-0.0124834 3.23268e-05 0)
(-0.0124947 9.49859e-06 0)
(-0.012489 -1.38596e-05 0)
(-0.012466 -3.76644e-05 0)
(-0.0124256 -6.18277e-05 0)
(-0.0123674 -8.62529e-05 0)
(-0.0122915 -0.000110837 0)
(-0.0121977 -0.000135472 0)
(-0.0120862 -0.000160044 0)
(-0.0119569 -0.000184437 0)
(-0.0118102 -0.000208531 0)
(-0.0116463 -0.000232207 0)
(-0.0114655 -0.000255342 0)
(-0.0112683 -0.000277819 0)
(-0.0110553 -0.000299521 0)
(-0.010827 -0.000320335 0)
(-0.0105842 -0.000340155 0)
(-0.0103275 -0.000358879 0)
(-0.0100578 -0.000376415 0)
(-0.00977593 -0.000392679 0)
(-0.00948285 -0.000407598 0)
(-0.00917952 -0.000421107 0)
(-0.00886694 -0.000433156 0)
(-0.00854616 -0.000443703 0)
(-0.00821824 -0.00045272 0)
(-0.00788424 -0.00046019 0)
(-0.00754525 -0.000466108 0)
(-0.00720235 -0.000470478 0)
(-0.00685663 -0.000473315 0)
(-0.00650913 -0.000474645 0)
(-0.00616091 -0.000474498 0)
(-0.00581299 -0.000472912 0)
(-0.00546636 -0.000469928 0)
(-0.005122 -0.000465591 0)
(-0.00478084 -0.000459944 0)
(-0.00444381 -0.000453028 0)
(-0.00411178 -0.000444882 0)
(-0.00378565 -0.000435535 0)
(-0.00346627 -0.00042501 0)
(-0.00315448 -0.000413318 0)
(-0.00285116 -0.000400457 0)
(-0.00255716 -0.000386412 0)
(-0.00227337 -0.000371154 0)
(-0.00200071 -0.000354639 0)
(-0.00174014 -0.000336811 0)
(-0.00149267 -0.000317603 0)
(-0.00125935 -0.00029694 0)
(-0.00104129 -0.000274749 0)
(-0.000839657 -0.000250964 0)
(-0.000655638 -0.000225542 0)
(-0.000490432 -0.000198476 0)
(-0.000345208 -0.000169825 0)
(-0.000221037 -0.00013974 0)
(-0.000118814 -0.000108515 0)
(-3.91287e-05 -7.66457e-05 0)
(1.7887e-05 -4.49168e-05 0)
(5.28025e-05 -1.45149e-05 0)
(6.71593e-05 1.27864e-05 0)
(6.37891e-05 3.43797e-05 0)
(4.68913e-05 4.6669e-05 0)
(2.46101e-05 4.48296e-05 0)
(3.58111e-06 2.32953e-05 0)
(-6.60619e-06 2.53085e-05 0)
(-6.59683e-05 0.000117575 0)
(-0.000177853 0.000227198 0)
(-0.000343703 0.000333241 0)
(-0.000555264 0.000427086 0)
(-0.000806997 0.000505398 0)
(-0.00109212 0.000567959 0)
(-0.0014041 0.000616152 0)
(-0.00173703 0.000652042 0)
(-0.00208581 0.000677854 0)
(-0.00244623 0.000695689 0)
(-0.00281486 0.000707398 0)
(-0.00318904 0.000714532 0)
(-0.00356672 0.000718341 0)
(-0.00394636 0.000719804 0)
(-0.00432685 0.000719661 0)
(-0.00470737 0.000718457 0)
(-0.00508738 0.000716576 0)
(-0.00546646 0.00071428 0)
(-0.00584435 0.000711733 0)
(-0.00622083 0.000709031 0)
(-0.00659576 0.000706213 0)
(-0.00696901 0.000703285 0)
(-0.00734043 0.000700225 0)
(-0.0077099 0.000696994 0)
(-0.00807727 0.000693541 0)
(-0.00844235 0.000689808 0)
(-0.00880495 0.000685733 0)
(-0.00916484 0.00068125 0)
(-0.00952176 0.000676292 0)
(-0.00987541 0.000670792 0)
(-0.0102255 0.000664681 0)
(-0.0105716 0.00065789 0)
(-0.0109134 0.000650349 0)
(-0.0112504 0.000641988 0)
(-0.0115822 0.000632737 0)
(-0.0119082 0.000622527 0)
(-0.0122281 0.000611288 0)
(-0.0125411 0.000598951 0)
(-0.0128468 0.000585448 0)
(-0.0131444 0.000570715 0)
(-0.0134335 0.000554688 0)
(-0.0137132 0.000537306 0)
(-0.0139828 0.000518515 0)
(-0.0142418 0.000498262 0)
(-0.0144892 0.000476503 0)
(-0.0147244 0.000453199 0)
(-0.0149466 0.000428319 0)
(-0.0151549 0.000401841 0)
(-0.0153487 0.000373752 0)
(-0.0155271 0.00034405 0)
(-0.0156894 0.000312745 0)
(-0.0158348 0.000279857 0)
(-0.0159625 0.000245424 0)
(-0.0160719 0.000209491 0)
(-0.0161623 0.000172124 0)
(-0.0162329 0.000133399 0)
(-0.0162833 9.34075e-05 0)
(-0.0163128 5.22582e-05 0)
(-0.016321 1.00724e-05 0)
(-0.0163075 -3.30144e-05 0)
(-0.0162719 -7.68509e-05 0)
(-0.016214 -0.000121275 0)
(-0.0161335 -0.00016611 0)
(-0.0160304 -0.000211173 0)
(-0.0159047 -0.000256268 0)
(-0.0157565 -0.000301192 0)
(-0.0155859 -0.000345737 0)
(-0.0153932 -0.000389693 0)
(-0.0151789 -0.000432844 0)
(-0.0149434 -0.00047498 0)
(-0.0146873 -0.000515889 0)
(-0.0144114 -0.000555367 0)
(-0.0141163 -0.000593219 0)
(-0.0138029 -0.000629256 0)
(-0.0134723 -0.000663304 0)
(-0.0131253 -0.000695202 0)
(-0.0127632 -0.000724805 0)
(-0.012387 -0.000751985 0)
(-0.011998 -0.000776633 0)
(-0.0115973 -0.000798661 0)
(-0.0111864 -0.000817998 0)
(-0.0107665 -0.000834596 0)
(-0.0103389 -0.000848428 0)
(-0.0099049 -0.000859482 0)
(-0.00946591 -0.000867771 0)
(-0.00902321 -0.000873319 0)
(-0.00857811 -0.000876169 0)
(-0.00813189 -0.000876374 0)
(-0.00768581 -0.000873999 0)
(-0.0072411 -0.000869113 0)
(-0.00679894 -0.00086179 0)
(-0.00636051 -0.000852103 0)
(-0.00592694 -0.000840121 0)
(-0.00549934 -0.000825902 0)
(-0.0050788 -0.000809494 0)
(-0.00466641 -0.000790928 0)
(-0.00426323 -0.000770215 0)
(-0.00387036 -0.000747344 0)
(-0.0034889 -0.00072228 0)
(-0.00311998 -0.000694961 0)
(-0.00276477 -0.000665303 0)
(-0.00242451 -0.000633196 0)
(-0.00210048 -0.000598518 0)
(-0.00179404 -0.000561132 0)
(-0.0015066 -0.00052091 0)
(-0.00123965 -0.00047774 0)
(-0.000994672 -0.000431558 0)
(-0.000773183 -0.000382377 0)
(-0.000576626 -0.000330331 0)
(-0.000406315 -0.000275734 0)
(-0.000263319 -0.000219154 0)
(-0.000148323 -0.00016152 0)
(-6.14394e-05 -0.000104254 0)
(-1.96949e-06 -4.94409e-05 0)
(3.18571e-05 -7.79834e-08 0)
(4.32442e-05 3.96555e-05 0)
(3.68275e-05 6.41589e-05 0)
(2.10813e-05 6.61075e-05 0)
(3.19856e-06 3.59742e-05 0)
(-9.88926e-06 6.13577e-05 0)
(-9.32707e-05 0.000219234 0)
(-0.000241797 0.000388532 0)
(-0.000455029 0.000548047 0)
(-0.000720569 0.000688445 0)
(-0.00103169 0.000806058 0)
(-0.00138062 0.000900826 0)
(-0.00176012 0.000974661 0)
(-0.00216371 0.0010304 0)
(-0.00258579 0.00107113 0)
(-0.00302167 0.00109983 0)
(-0.0034675 0.00111915 0)
(-0.00392022 0.00113135 0)
(-0.00437745 0.00113828 0)
(-0.00483736 0.00114141 0)
(-0.00529858 0.00114186 0)
(-0.00576009 0.00114046 0)
(-0.00622115 0.00113784 0)
(-0.00668121 0.0011344 0)
(-0.00713986 0.00113041 0)
(-0.00759681 0.00112604 0)
(-0.0080518 0.00112138 0)
(-0.0085046 0.00111643 0)
(-0.00895502 0.00111118 0)
(-0.00940285 0.00110559 0)
(-0.00984785 0.00109957 0)
(-0.0102898 0.00109304 0)
(-0.0107284 0.00108593 0)
(-0.0111633 0.00107812 0)
(-0.0115942 0.00106952 0)
(-0.0120208 0.00106002 0)
(-0.0124426 0.00104953 0)
(-0.0128592 0.00103794 0)
(-0.01327 0.00102514 0)
(-0.0136746 0.00101102 0)
(-0.0140724 0.000995488 0)
(-0.0144628 0.000978431 0)
(-0.0148451 0.000959746 0)
(-0.0152188 0.00093933 0)
(-0.015583 0.000917084 0)
(-0.0159371 0.00089291 0)
(-0.0162802 0.000866715 0)
(-0.0166116 0.000838412 0)
(-0.0169305 0.000807922 0)
(-0.0172359 0.00077517 0)
(-0.0175271 0.000740095 0)
(-0.0178031 0.000702643 0)
(-0.018063 0.000662775 0)
(-0.018306 0.000620463 0)
(-0.0185311 0.000575697 0)
(-0.0187375 0.000528481 0)
(-0.0189243 0.000478838 0)
(-0.0190905 0.00042681 0)
(-0.0192355 0.000372457 0)
(-0.0193583 0.000315863 0)
(-0.0194582 0.000257131 0)
(-0.0195346 0.000196387 0)
(-0.0195868 0.000133779 0)
(-0.0196141 6.94759e-05 0)
(-0.0196161 3.67069e-06 0)
(-0.0195923 -6.34243e-05 0)
(-0.0195425 -0.000131577 0)
(-0.0194663 -0.000200535 0)
(-0.0193635 -0.000270031 0)
(-0.0192342 -0.00033978 0)
(-0.0190784 -0.000409487 0)
(-0.0188962 -0.000478845 0)
(-0.018688 -0.00054754 0)
(-0.0184541 -0.000615253 0)
(-0.0181949 -0.000681663 0)
(-0.0179112 -0.000746454 0)
(-0.0176036 -0.000809312 0)
(-0.017273 -0.000869933 0)
(-0.0169203 -0.000928026 0)
(-0.0165464 -0.000983314 0)
(-0.0161526 -0.00103554 0)
(-0.0157401 -0.00108447 0)
(-0.01531 -0.00112988 0)
(-0.0148637 -0.0011716 0)
(-0.0144027 -0.00120946 0)
(-0.0139283 -0.00124334 0)
(-0.013442 -0.00127312 0)
(-0.0129453 -0.00129876 0)
(-0.0124398 -0.0013202 0)
(-0.0119269 -0.00133744 0)
(-0.0114082 -0.00135048 0)
(-0.0108851 -0.00135938 0)
(-0.0103592 -0.00136419 0)
(-0.00983191 -0.00136499 0)
(-0.00930463 -0.00136188 0)
(-0.00877879 -0.00135496 0)
(-0.00825573 -0.00134433 0)
(-0.0077368 -0.0013301 0)
(-0.00722329 -0.00131237 0)
(-0.00671648 -0.00129121 0)
(-0.00621762 -0.00126669 0)
(-0.00572796 -0.00123884 0)
(-0.00524874 -0.00120768 0)
(-0.00478122 -0.00117317 0)
(-0.00432668 -0.00113525 0)
(-0.00388645 -0.00109383 0)
(-0.0034619 -0.00104875 0)
(-0.00305445 -0.00099986 0)
(-0.00266562 -0.000946955 0)
(-0.00229699 -0.000889834 0)
(-0.00195019 -0.000828305 0)
(-0.00162694 -0.000762212 0)
(-0.00132897 -0.000691475 0)
(-0.001058 -0.000616142 0)
(-0.000815676 -0.000536452 0)
(-0.000603476 -0.000452924 0)
(-0.000422595 -0.000366465 0)
(-0.000273787 -0.000278507 0)
(-0.000157176 -0.00019119 0)
(-7.20259e-05 -0.000107573 0)
(-1.64966e-05 -3.19085e-05 0)
(1.2709e-05 3.00613e-05 0)
(2.03181e-05 7.07428e-05 0)
(1.44275e-05 8.0399e-05 0)
(2.44204e-06 4.60323e-05 0)
(-1.27798e-05 0.000109878 0)
(-0.000117893 0.000350651 0)
(-0.000300361 0.00059117 0)
(-0.000557785 0.00081206 0)
(-0.000873569 0.0010047 0)
(-0.00123954 0.00116597 0)
(-0.00164681 0.00129646 0)
(-0.00208743 0.00139887 0)
(-0.00255443 0.00147692 0)
(-0.00304182 0.00153463 0)
(-0.00354461 0.00157588 0)
(-0.00405864 0.00160416 0)
(-0.00458062 0.00162248 0)
(-0.00510789 0.00163331 0)
(-0.00563844 0.00163863 0)
(-0.00617067 0.00164 0)
(-0.00670342 0.00163857 0)
(-0.00723577 0.0016352 0)
(-0.00776706 0.00163048 0)
(-0.00829676 0.0016248 0)
(-0.00882444 0.00161842 0)
(-0.00934978 0.00161146 0)
(-0.00987246 0.00160397 0)
(-0.0103922 0.00159593 0)
(-0.0109087 0.00158729 0)
(-0.0114216 0.00157795 0)
(-0.0119307 0.0015678 0)
(-0.0124356 0.00155674 0)
(-0.0129359 0.00154462 0)
(-0.0134312 0.00153131 0)
(-0.013921 0.00151667 0)
(-0.0144048 0.00150056 0)
(-0.0148822 0.00148284 0)
(-0.0153524 0.00146335 0)
(-0.015815 0.00144196 0)
(-0.0162692 0.00141853 0)
(-0.0167143 0.0013929 0)
(-0.0171497 0.00136493 0)
(-0.0175745 0.0013345 0)
(-0.0179879 0.00130145 0)
(-0.0183891 0.00126566 0)
(-0.0187773 0.00122702 0)
(-0.0191514 0.00118539 0)
(-0.0195106 0.00114069 0)
(-0.0198539 0.00109281 0)
(-0.0201803 0.00104167 0)
(-0.0204889 0.000987222 0)
(-0.0207787 0.000929405 0)
(-0.0210487 0.000868197 0)
(-0.0212978 0.000803592 0)
(-0.0215252 0.000735607 0)
(-0.0217298 0.000664286 0)
(-0.0219107 0.000589698 0)
(-0.0220671 0.000511937 0)
(-0.0221981 0.000431131 0)
(-0.0223029 0.000347432 0)
(-0.0223807 0.000261027 0)
(-0.0224309 0.000172128 0)
(-0.0224529 8.0981e-05 0)
(-0.0224462 -1.21414e-05 0)
(-0.0224103 -0.000106938 0)
(-0.022345 -0.000203081 0)
(-0.0222499 -0.000300218 0)
(-0.0221251 -0.000397974 0)
(-0.0219704 -0.000495956 0)
(-0.0217861 -0.000593754 0)
(-0.0215723 -0.000690945 0)
(-0.0213294 -0.000787097 0)
(-0.0210579 -0.000881774 0)
(-0.0207585 -0.000974538 0)
(-0.0204317 -0.00106496 0)
(-0.0200785 -0.00115261 0)
(-0.0196998 -0.00123708 0)
(-0.0192968 -0.00131797 0)
(-0.0188704 -0.00139492 0)
(-0.0184221 -0.00146757 0)
(-0.0179531 -0.00153562 0)
(-0.0174648 -0.00159877 0)
(-0.0169588 -0.00165678 0)
(-0.0164366 -0.00170945 0)
(-0.0158998 -0.00175659 0)
(-0.0153499 -0.00179808 0)
(-0.0147888 -0.00183384 0)
(-0.0142179 -0.0018638 0)
(-0.013639 -0.00188797 0)
(-0.0130537 -0.00190636 0)
(-0.0124637 -0.00191904 0)
(-0.0118706 -0.00192609 0)
(-0.011276 -0.00192761 0)
(-0.0106815 -0.00192374 0)
(-0.0100885 -0.00191462 0)
(-0.00949856 -0.00190037 0)
(-0.00891314 -0.00188114 0)
(-0.00833366 -0.00185706 0)
(-0.0077615 -0.00182822 0)
(-0.00719803 -0.00179471 0)
(-0.00664463 -0.00175657 0)
(-0.00610267 -0.00171379 0)
(-0.00557352 -0.00166632 0)
(-0.00505859 -0.00161408 0)
(-0.00455936 -0.00155691 0)
(-0.00407732 -0.0014946 0)
(-0.00361406 -0.00142693 0)
(-0.00317124 -0.00135362 0)
(-0.00275059 -0.00127439 0)
(-0.00235393 -0.00118899 0)
(-0.00198311 -0.00109721 0)
(-0.00164003 -0.000998968 0)
(-0.00132656 -0.00089436 0)
(-0.00104447 -0.000783753 0)
(-0.000795354 -0.000667899 0)
(-0.000580499 -0.000548079 0)
(-0.000400716 -0.000426272 0)
(-0.000256172 -0.000305368 0)
(-0.000146165 -0.000189414 0)
(-6.88948e-05 -8.39086e-05 0)
(-2.11862e-05 3.87739e-06 0)
(1.56588e-06 6.44837e-05 0)
(6.72921e-06 8.59865e-05 0)
(1.55903e-06 5.26207e-05 0)
(-1.52833e-05 0.000169402 0)
(-0.000139641 0.000508985 0)
(-0.000352806 0.00083174 0)
(-0.000650583 0.0011215 0)
(-0.00101243 0.00137155 0)
(-0.0014286 0.00158017 0)
(-0.00188901 0.00174916 0)
(-0.00238495 0.00188232 0)
(-0.00290895 0.00198445 0)
(-0.00345472 0.00206061 0)
(-0.004017 0.00211563 0)
(-0.00459145 0.00215387 0)
(-0.00517458 0.00217908 0)
(-0.00576359 0.00219441 0)
(-0.0063563 0.00220235 0)
(-0.00695098 0.0022049 0)
(-0.00754632 0.00220355 0)
(-0.00814129 0.00219941 0)
(-0.00873511 0.00219327 0)
(-0.00932715 0.00218567 0)
(-0.00991689 0.00217693 0)
(-0.0105039 0.00216725 0)
(-0.0110878 0.00215671 0)
(-0.0116682 0.00214528 0)
(-0.0122447 0.00213292 0)
(-0.012817 0.00211951 0)
(-0.0133847 0.00210493 0)
(-0.0139473 0.00208901 0)
(-0.0145044 0.00207161 0)
(-0.0150554 0.00205254 0)
(-0.0156 0.00203162 0)
(-0.0161374 0.00200867 0)
(-0.016667 0.00198352 0)
(-0.0171883 0.00195596 0)
(-0.0177004 0.00192582 0)
(-0.0182027 0.00189291 0)
(-0.0186944 0.00185704 0)
(-0.0191746 0.00181804 0)
(-0.0196425 0.00177573 0)
(-0.0200972 0.00172993 0)
(-0.0205377 0.00168049 0)
(-0.0209631 0.00162724 0)
(-0.0213724 0.00157005 0)
(-0.0217646 0.0015088 0)
(-0.0221386 0.00144336 0)
(-0.0224933 0.00137364 0)
(-0.0228278 0.00129958 0)
(-0.0231409 0.00122112 0)
(-0.0234316 0.00113825 0)
(-0.0236988 0.00105096 0)
(-0.0239415 0.000959302 0)
(-0.0241587 0.000863335 0)
(-0.0243495 0.000763165 0)
(-0.0245128 0.000658932 0)
(-0.0246478 0.000550813 0)
(-0.0247537 0.000439022 0)
(-0.0248297 0.000323812 0)
(-0.0248752 0.000205473 0)
(-0.0248895 8.4335e-05 0)
(-0.0248722 -3.92379e-05 0)
(-0.0248229 -0.000164845 0)
(-0.0247413 -0.000292054 0)
(-0.0246272 -0.0004204 0)
(-0.0244806 -0.000549393 0)
(-0.0243014 -0.000678519 0)
(-0.02409 -0.000807246 0)
(-0.0238466 -0.000935024 0)
(-0.0235716 -0.0010613 0)
(-0.0232657 -0.0011855 0)
(-0.0229296 -0.00130707 0)
(-0.022564 -0.00142546 0)
(-0.02217 -0.00154013 0)
(-0.0217486 -0.00165054 0)
(-0.0213009 -0.00175621 0)
(-0.0208284 -0.00185665 0)
(-0.0203323 -0.00195143 0)
(-0.0198142 -0.00204015 0)
(-0.0192755 -0.00212246 0)
(-0.0187179 -0.00219804 0)
(-0.0181432 -0.00226665 0)
(-0.0175529 -0.00232805 0)
(-0.0169488 -0.00238211 0)
(-0.0163328 -0.0024287 0)
(-0.0157066 -0.00246779 0)
(-0.015072 -0.00249934 0)
(-0.0144307 -0.00252342 0)
(-0.0137845 -0.00254008 0)
(-0.0131353 -0.00254945 0)
(-0.0124845 -0.00255167 0)
(-0.011834 -0.0025469 0)
(-0.0111853 -0.00253531 0)
(-0.01054 -0.00251709 0)
(-0.00989966 -0.0024924 0)
(-0.00926579 -0.00246141 0)
(-0.00863986 -0.00242423 0)
(-0.00802334 -0.00238096 0)
(-0.00741767 -0.00233165 0)
(-0.0068243 -0.00227628 0)
(-0.00624471 -0.00221478 0)
(-0.00568039 -0.00214702 0)
(-0.0051329 -0.0020728 0)
(-0.00460383 -0.00199184 0)
(-0.00409487 -0.00190385 0)
(-0.00360778 -0.00180846 0)
(-0.00314438 -0.00170532 0)
(-0.0027066 -0.00159411 0)
(-0.00229639 -0.00147459 0)
(-0.00191574 -0.00134667 0)
(-0.00156661 -0.00121049 0)
(-0.00125087 -0.00106657 0)
(-0.000970175 -0.000915918 0)
(-0.000725867 -0.000760196 0)
(-0.000518823 -0.000601945 0)
(-0.000349271 -0.000444803 0)
(-0.000216595 -0.000293784 0)
(-0.000119126 -0.000155585 0)
(-5.3915e-05 -3.89224e-05 0)
(-1.65979e-05 4.50787e-05 0)
(-6.87276e-07 8.2554e-05 0)
(7.37568e-07 5.55561e-05 0)
(-1.74435e-05 0.000238528 0)
(-0.000158679 0.000691269 0)
(-0.000399221 0.00110652 0)
(-0.000733321 0.00147222 0)
(-0.00113687 0.00178448 0)
(-0.00159858 0.00204374 0)
(-0.00210712 0.00225353 0)
(-0.00265298 0.00241913 0)
(-0.00322821 0.00254665 0)
(-0.00382618 0.00264229 0)
(-0.00444143 0.00271192 0)
(-0.00506946 0.00276079 0)
(-0.00570665 0.00279345 0)
(-0.00635011 0.00281367 0)
(-0.00699753 0.00282452 0)
(-0.0076471 0.00282842 0)
(-0.0082974 0.00282721 0)
(-0.00894731 0.00282226 0)
(-0.00959596 0.00281455 0)
(-0.0102426 0.00280478 0)
(-0.0108867 0.00279335 0)
(-0.0115277 0.00278054 0)
(-0.0121651 0.00276643 0)
(-0.0127985 0.00275105 0)
(-0.0134274 0.00273432 0)
(-0.0140514 0.00271612 0)
(-0.01467 0.0026963 0)
(-0.0152828 0.00267466 0)
(-0.0158891 0.00265103 0)
(-0.0164885 0.00262517 0)
(-0.0170803 0.00259688 0)
(-0.0176639 0.00256593 0)
(-0.0182385 0.00253209 0)
(-0.0188035 0.00249513 0)
(-0.0193581 0.00245483 0)
(-0.0199014 0.00241095 0)
(-0.0204325 0.00236327 0)
(-0.0209507 0.00231157 0)
(-0.0214549 0.00225563 0)
(-0.0219441 0.00219525 0)
(-0.0224174 0.00213023 0)
(-0.0228737 0.00206039 0)
(-0.0233119 0.00198557 0)
(-0.023731 0.0019056 0)
(-0.0241298 0.00182037 0)
(-0.0245072 0.00172978 0)
(-0.0248621 0.00163373 0)
(-0.0251933 0.0015322 0)
(-0.0254998 0.00142517 0)
(-0.0257804 0.00131265 0)
(-0.0260341 0.00119471 0)
(-0.0262598 0.00107146 0)
(-0.0264565 0.000943044 0)
(-0.0266233 0.000809643 0)
(-0.0267592 0.000671498 0)
(-0.0268635 0.000528891 0)
(-0.0269354 0.000382152 0)
(-0.0269742 0.000231657 0)
(-0.0269793 7.78269e-05 0)
(-0.0269503 -7.88714e-05 0)
(-0.0268869 -0.00023793 0)
(-0.0267887 -0.000398802 0)
(-0.0266556 -0.000560903 0)
(-0.0264877 -0.00072362 0)
(-0.026285 -0.000886309 0)
(-0.0260478 -0.00104831 0)
(-0.0257766 -0.00120893 0)
(-0.0254718 -0.00136749 0)
(-0.0251341 -0.0015233 0)
(-0.0247644 -0.00167566 0)
(-0.0243635 -0.00182389 0)
(-0.0239325 -0.00196732 0)
(-0.0234726 -0.00210532 0)
(-0.0229851 -0.00223727 0)
(-0.0224714 -0.00236261 0)
(-0.021933 -0.00248079 0)
(-0.0213714 -0.00259135 0)
(-0.0207884 -0.00269384 0)
(-0.0201857 -0.00278791 0)
(-0.0195651 -0.00287323 0)
(-0.0189284 -0.00294957 0)
(-0.0182774 -0.00301673 0)
(-0.0176142 -0.00307459 0)
(-0.0169404 -0.0031231 0)
(-0.0162582 -0.00316225 0)
(-0.0155692 -0.0031921 0)
(-0.0148755 -0.00321275 0)
(-0.0141787 -0.00322434 0)
(-0.0134807 -0.00322705 0)
(-0.0127833 -0.00322109 0)
(-0.0120881 -0.00320668 0)
(-0.0113968 -0.00318403 0)
(-0.0107109 -0.00315335 0)
(-0.0100322 -0.00311484 0)
(-0.00936206 -0.00306865 0)
(-0.00870205 -0.00301488 0)
(-0.00805368 -0.00295358 0)
(-0.00741846 -0.00288474 0)
(-0.0067979 -0.00280826 0)
(-0.00619356 -0.00272396 0)
(-0.00560704 -0.0026316 0)
(-0.00504 -0.00253083 0)
(-0.00449418 -0.00242127 0)
(-0.00397137 -0.00230248 0)
(-0.00347348 -0.00217405 0)
(-0.00300246 -0.00203557 0)
(-0.00256033 -0.00188676 0)
(-0.00214913 -0.00172754 0)
(-0.00177087 -0.00155812 0)
(-0.00142744 -0.00137916 0)
(-0.00112055 -0.00119192 0)
(-0.000851598 -0.000998453 0)
(-0.000621506 -0.000801852 0)
(-0.000430579 -0.000606485 0)
(-0.000278316 -0.00041829 0)
(-0.000163224 -0.000245089 0)
(-8.26247e-05 -9.6926e-05 0)
(-3.24493e-05 1.35708e-05 0)
(-7.10359e-06 7.08352e-05 0)
(2.61176e-08 5.5173e-05 0)
(-1.931e-05 0.000316 0)
(-0.000175289 0.000894677 0)
(-0.000440043 0.00141179 0)
(-0.000806527 0.00186003 0)
(-0.00124749 0.00223899 0)
(-0.00175017 0.00255189 0)
(-0.00230204 0.0028045 0)
(-0.00289279 0.00300393 0)
(-0.00351394 0.00315781 0)
(-0.00415856 0.00327365 0)
(-0.00482096 0.00335844 0)
(-0.00549653 0.00341838 0)
(-0.00618154 0.0034588 0)
(-0.00687303 0.00348417 0)
(-0.00756861 0.00349809 0)
(-0.00826642 0.00350341 0)
(-0.00896495 0.00350233 0)
(-0.00966303 0.00349648 0)
(-0.0103597 0.00348704 0)
(-0.0110542 0.00347484 0)
(-0.0117457 0.00346041 0)
(-0.0124339 0.00344405 0)
(-0.013118 0.00342591 0)
(-0.0137976 0.00340602 0)
(-0.0144722 0.0033843 0)
(-0.0151412 0.00336062 0)
(-0.0158042 0.0033348 0)
(-0.0164605 0.00330662 0)
(-0.0171096 0.00327586 0)
(-0.0177508 0.00324225 0)
(-0.0183834 0.00320555 0)
(-0.0190068 0.00316548 0)
(-0.0196201 0.00312177 0)
(-0.0202227 0.00307416 0)
(-0.0208135 0.00302236 0)
(-0.0213917 0.00296611 0)
(-0.0219565 0.00290514 0)
(-0.0225068 0.00283919 0)
(-0.0230416 0.00276801 0)
(-0.0235598 0.00269136 0)
(-0.0240605 0.002609 0)
(-0.0245424 0.00252073 0)
(-0.0250045 0.00242637 0)
(-0.0254456 0.00232573 0)
(-0.0258645 0.00221868 0)
(-0.02626 0.00210511 0)
(-0.0266311 0.00198494 0)
(-0.0269764 0.00185814 0)
(-0.0272948 0.0017247 0)
(-0.0275853 0.00158467 0)
(-0.0278467 0.00143815 0)
(-0.0280778 0.00128528 0)
(-0.0282778 0.00112624 0)
(-0.0284456 0.000961299 0)
(-0.0285804 0.000790744 0)
(-0.0286812 0.000614937 0)
(-0.0287474 0.000434292 0)
(-0.0287783 0.000249279 0)
(-0.0287734 6.04188e-05 0)
(-0.0287321 -0.000131713 0)
(-0.0286542 -0.000326493 0)
(-0.0285395 -0.000523252 0)
(-0.0283879 -0.000721281 0)
(-0.0281994 -0.000919832 0)
(-0.0279743 -0.00111813 0)
(-0.0277128 -0.00131537 0)
(-0.0274154 -0.00151073 0)
(-0.0270828 -0.0017034 0)
(-0.0267157 -0.00189252 0)
(-0.0263149 -0.00207728 0)
(-0.0258816 -0.00225687 0)
(-0.0254168 -0.00243049 0)
(-0.0249219 -0.00259738 0)
(-0.0243982 -0.00275683 0)
(-0.0238473 -0.00290815 0)
(-0.0232708 -0.00305071 0)
(-0.0226703 -0.00318396 0)
(-0.0220477 -0.00330739 0)
(-0.0214049 -0.00342056 0)
(-0.0207436 -0.00352313 0)
(-0.0200659 -0.0036148 0)
(-0.0193737 -0.00369536 0)
(-0.018669 -0.00376468 0)
(-0.0179538 -0.0038227 0)
(-0.0172302 -0.00386943 0)
(-0.0165 -0.00390494 0)
(-0.0157653 -0.00392937 0)
(-0.0150279 -0.0039429 0)
(-0.0142897 -0.00394575 0)
(-0.0135525 -0.00393816 0)
(-0.012818 -0.00392041 0)
(-0.0120881 -0.00389276 0)
(-0.0113643 -0.00385546 0)
(-0.0106484 -0.00380875 0)
(-0.00994178 -0.00375281 0)