/*--------------------------------*- C++ -*----------------------------------*\
| =========                 |                                                 |
| \\      /  F ield         | OpenFOAM: The Open Source CFD Toolbox           |
|  \\    /   O peration     | Version:  2406                                  |
|   \\  /    A nd           | Website:  www.openfoam.com                      |
|    \\/     M anipulation  |                                                 |
\*---------------------------------------------------------------------------*/
FoamFile
{
    version     2.0;
    format      ascii;
    arch        "LSB;label=32;scalar=64";
    class       volVectorField;
    location    "64";
    object      U;
}
// * * * * * * * * * * * * * * * * * * * * * * * * * * * * * * * * * * * * * //

dimensions      [0 1 -1 0 0 0 0];

internalField   nonuniform List<vector> 
1024
(
(0.000492708 -0.000491489 0)
(0.00344767 -0.00084231 0)
(0.00664979 -0.000617895 0)
(0.0084695 -0.000283836 0)
(0.00905564 -0.000196439 0)
(0.00906159 -0.000368637 0)
(0.00886235 -0.000593135 0)
(0.00824698 -0.000877095 0)
(0.00641788 -0.00165178 0)
(0.0020028 -0.00272428 0)
(-0.00704298 -0.00250752 0)
(-0.0213892 0.0008088 0)
(-0.0405203 0.00584449 0)
(-0.0625828 0.00978617 0)
(-0.0837739 0.0111124 0)
(-0.100788 0.0101519 0)
(-0.111824 0.00780329 0)
(-0.116029 0.00479432 0)
(-0.113037 0.00160017 0)
(-0.102229 -0.00177617 0)
(-0.084162 -0.00503441 0)
(-0.0597126 -0.0077328 0)
(-0.0310393 -0.00926904 0)
(-0.000612138 -0.0091123 0)
(0.0276185 -0.00726594 0)
(0.0475464 -0.00156076 0)
(0.0554905 0.00494114 0)
(0.0494583 0.00792295 0)
(0.0340636 0.00685657 0)
(0.0188962 0.00424056 0)
(0.00783757 0.00206403 0)
(0.00107802 0.000824175 0)
(0.000973838 -0.00341389 0)
(0.00657877 -0.00587663 0)
(0.0116589 -0.00449948 0)
(0.0140126 -0.00199276 0)
(0.0135301 -0.000222249 0)
(0.01067 0.000635024 0)
(0.00496912 0.00146805 0)
(-0.00585945 0.00336875 0)
(-0.024698 0.00823394 0)
(-0.0533999 0.0174807 0)
(-0.0892714 0.028095 0)
(-0.125038 0.0354189 0)
(-0.156074 0.0375183 0)
(-0.181113 0.0348885 0)
(-0.19952 0.0285018 0)
(-0.21094 0.0196576 0)
(-0.215175 0.00931423 0)
(-0.212251 -0.00184604 0)
(-0.202466 -0.013388 0)
(-0.185529 -0.0248544 0)
(-0.161676 -0.0354904 0)
(-0.131391 -0.0442191 0)
(-0.0960735 -0.0494936 0)
(-0.0571456 -0.0494505 0)
(-0.0164711 -0.042549 0)
(0.0184995 -0.0271092 0)
(0.0431515 -0.00485578 0)
(0.0523738 0.01366 0)
(0.046097 0.0221175 0)
(0.0316555 0.0217084 0)
(0.0153939 0.0165609 0)
(0.00228431 0.00842609 0)
(0.00145945 -0.00774484 0)
(0.00772608 -0.0120092 0)
(0.0116001 -0.0080579 0)
(0.0113745 -0.00192117 0)
(0.00651358 0.00324962 0)
(-0.00401373 0.00827078 0)
(-0.0228877 0.0163408 0)
(-0.053349 0.0303353 0)
(-0.0937796 0.0475046 0)
(-0.13605 0.0605429 0)
(-0.173968 0.0664499 0)
(-0.205664 0.0662205 0)
(-0.230553 0.0608625 0)
(-0.249063 0.0515267 0)
(-0.261582 0.0391809 0)
(-0.268553 0.0247651 0)
(-0.270246 0.00883124 0)
(-0.266878 -0.00824988 0)
(-0.258452 -0.0261665 0)
(-0.244747 -0.0442583 0)
(-0.225419 -0.0616133 0)
(-0.200307 -0.0766569 0)
(-0.169389 -0.08702 0)
(-0.132788 -0.0895911 0)
(-0.0911203 -0.0815335 0)
(-0.0479115 -0.0610177 0)
(-0.00788539 -0.0272955 0)
(0.0181858 0.00589799 0)
(0.0251971 0.0259876 0)
(0.0211455 0.0322815 0)
(0.0113864 0.0295901 0)
(0.00134475 0.0170311 0)
(0.00189766 -0.0125878 0)
(0.00678465 -0.0167643 0)
(0.00679734 -0.00823028 0)
(0.0006545 0.00338558 0)
(-0.0130138 0.015439 0)
(-0.0369671 0.0309155 0)
(-0.0730512 0.0519707 0)
(-0.117119 0.0740672 0)
(-0.161024 0.0899977 0)
(-0.19892 0.0970281 0)
(-0.22937 0.0962167 0)
(-0.252875 0.0893719 0)
(-0.270186 0.0779283 0)
(-0.282382 0.0632883 0)
(-0.290179 0.0463478 0)
(-0.294269 0.0277499 0)
(-0.295047 0.00770017 0)
(-0.292831 -0.01366 0)
(-0.287556 -0.0361345 0)
(-0.278947 -0.0593393 0)
(-0.266438 -0.0824951 0)
(-0.249335 -0.104065 0)
(-0.226703 -0.121351 0)
(-0.197392 -0.130382 0)
(-0.160022 -0.126485 0)
(-0.114625 -0.105437 0)
(-0.0642226 -0.0654758 0)
(-0.0192579 -0.0162798 0)
(0.00261268 0.0193824 0)
(0.00692323 0.0348893 0)
(0.00452103 0.0361934 0)
(5.44725e-05 0.0213332 0)
(0.00190768 -0.0164725 0)
(0.00261619 -0.0172218 0)
(-0.0040413 -0.00170317 0)
(-0.0191327 0.0185001 0)
(-0.0446143 0.0417261 0)
(-0.0814649 0.0689488 0)
(-0.125623 0.0961894 0)
(-0.169019 0.116283 0)
(-0.205442 0.125649 0)
(-0.233714 0.125493 0)
(-0.25462 0.118073 0)
(-0.269196 0.105369 0)
(-0.278794 0.0890983 0)
(-0.284622 0.0705821 0)
(-0.287682 0.0505963 0)
(-0.288816 0.0295454 0)
(-0.288562 0.00742158 0)
(-0.287236 -0.0158495 0)
(-0.284792 -0.0403338 0)
(-0.281203 -0.0660777 0)
(-0.276044 -0.0928099 0)
(-0.268491 -0.119563 0)
(-0.25703 -0.144113 0)
(-0.239399 -0.162443 0)
(-0.212587 -0.168665 0)
(-0.17349 -0.155892 0)
(-0.121076 -0.118357 0)
(-0.060978 -0.0583905 0)
(-0.0139895 0.00133087 0)
(-0.000612284 0.0312766 0)
(0.000917212 0.0374868 0)
(-0.0002359 0.0222981 0)
(0.000899422 -0.0169075 0)
(-0.00550155 -0.0105751 0)
(-0.020558 0.0144512 0)
(-0.0452109 0.0452543 0)
(-0.0799732 0.0786863 0)
(-0.121805 0.111532 0)
(-0.163657 0.137075 0)
(-0.198578 0.150524 0)
(-0.224451 0.152131 0)
(-0.242479 0.144823 0)
(-0.25388 0.131279 0)
(-0.260267 0.113775 0)
(-0.263168 0.0940378 0)
(-0.263801 0.0731332 0)
(-0.263175 0.0516214 0)
(-0.261993 0.0296788 0)
(-0.26073 0.00722248 0)
(-0.25956 -0.0159367 0)
(-0.258596 -0.0401717 0)
(-0.258043 -0.0658937 0)
(-0.257915 -0.0933372 0)
(-0.257821 -0.12228 0)
(-0.256584 -0.151569 0)
(-0.251756 -0.178354 0)
(-0.239423 -0.197293 0)
(-0.214585 -0.200279 0)
(-0.172431 -0.177553 0)
(-0.111594 -0.121928 0)
(-0.0412345 -0.0406931 0)
(-0.0011423 0.0190292 0)
(0.0015608 0.0365249 0)
(0.000383657 0.0224463 0)
(-0.0013017 -0.0117461 0)
(-0.0158724 0.00476972 0)
(-0.0386779 0.0397737 0)
(-0.0702277 0.07941 0)
(-0.108509 0.118322 0)
(-0.148198 0.150495 0)
(-0.182228 0.170002 0)
(-0.206783 0.175291 0)
(-0.22276 0.169226 0)
(-0.231942 0.155565 0)
(-0.235953 0.137179 0)
(-0.236764 0.11643 0)
(-0.235725 0.0946947 0)
(-0.233902 0.072699 0)
(-0.231929 0.0507044 0)
(-0.23017 0.0287044 0)
(-0.228779 0.00657735 0)
(-0.227759 -0.0158941 0)
(-0.227298 -0.0391481 0)
(-0.227586 -0.0636056 0)
(-0.228921 -0.0896967 0)
(-0.231479 -0.117722 0)
(-0.235041 -0.147615 0)
(-0.238288 -0.178288 0)
(-0.238096 -0.206568 0)
(-0.229226 -0.225897 0)
(-0.204847 -0.225412 0)
(-0.158612 -0.191091 0)
(-0.088744 -0.112524 0)
(-0.00906031 -0.00841538 0)
(0.00603358 0.0356171 0)
(0.000838332 0.0245177 0)
(-0.00353844 3.59814e-06 0)
(-0.0252618 0.0278549 0)
(-0.0535149 0.0706739 0)
(-0.0880475 0.115545 0)
(-0.125173 0.15501 0)
(-0.15884 0.182473 0)
(-0.183737 0.194079 0)
(-0.199223 0.191179 0)
(-0.207534 0.178422 0)
(-0.210579 0.159785 0)
(-0.21039 0.138186 0)
(-0.208792 0.115658 0)
(-0.206723 0.093069 0)
(-0.204835 0.0708103 0)
(-0.203262 0.0488456 0)
(-0.202074 0.0270386 0)
(-0.201192 0.00518898 0)
(-0.200621 -0.0169474 0)
(-0.200497 -0.0396592 0)
(-0.200955 -0.0632098 0)
(-0.20229 -0.087908 0)
(-0.204824 -0.114094 0)
(-0.208785 -0.142114 0)
(-0.213925 -0.17209 0)
(-0.218862 -0.203207 0)
(-0.22019 -0.232105 0)
(-0.211793 -0.250618 0)
(-0.18535 -0.243745 0)
(-0.132831 -0.190213 0)
(-0.0487927 -0.0753762 0)
(0.0108047 0.0252033 0)
(0.00078306 0.0287159 0)
(-0.00514049 0.0172359 0)
(-0.0315434 0.0555941 0)
(-0.0623495 0.103285 0)
(-0.096666 0.14973 0)
(-0.129801 0.186255 0)
(-0.156245 0.206977 0)
(-0.173141 0.210311 0)
(-0.181941 0.200218 0)
(-0.185232 0.182262 0)
(-0.184999 0.160302 0)
(-0.183336 0.137046 0)
(-0.18147 0.113923 0)
(-0.179838 0.0913529 0)
(-0.17867 0.0694052 0)
(-0.177841 0.0478243 0)
(-0.177322 0.0263937 0)
(-0.176993 0.0048501 0)
(-0.176872 -0.0170256 0)
(-0.177038 -0.0394354 0)
(-0.177617 -0.0625478 0)
(-0.178824 -0.086541 0)
(-0.180947 -0.111618 0)
(-0.18431 -0.138096 0)
(-0.189103 -0.166437 0)
(-0.194942 -0.197033 0)
(-0.20015 -0.229139 0)
(-0.200804 -0.258446 0)
(-0.189841 -0.273564 0)
(-0.158128 -0.252686 0)
(-0.0968632 -0.165746 0)
(0.00547841 -0.00561405 0)
(0.0064994 0.0356755 0)
(-0.00586724 0.0372488 0)
(-0.0341986 0.0849737 0)
(-0.064913 0.134946 0)
(-0.0966866 0.18018 0)
(-0.124544 0.211761 0)
(-0.144312 0.224968 0)
(-0.155217 0.220655 0)
(-0.159719 0.204803 0)
(-0.160334 0.18319 0)
(-0.159003 0.159346 0)
(-0.157455 0.135508 0)
(-0.1562 0.112462 0)
(-0.155365 0.090245 0)
(-0.154932 0.0686551 0)
(-0.154731 0.0473649 0)
(-0.154728 0.0261573 0)
(-0.154837 0.00480081 0)
(-0.155107 -0.0168704 0)
(-0.155581 -0.0390171 0)
(-0.156321 -0.0617431 0)
(-0.157436 -0.0851481 0)
(-0.159093 -0.109337 0)
(-0.161566 -0.134531 0)
(-0.16525 -0.161218 0)
(-0.170459 -0.19027 0)
(-0.176753 -0.222524 0)
(-0.181826 -0.256821 0)
(-0.180345 -0.285817 0)
(-0.163815 -0.290618 0)
(-0.121183 -0.235932 0)
(-0.0314907 -0.0750053 0)
(0.0206421 0.0382764 0)
(-0.00555861 0.057642 0)
(-0.0333058 0.113639 0)
(-0.0619133 0.163906 0)
(-0.0898375 0.206182 0)
(-0.112356 0.231908 0)
(-0.126754 0.237791 0)
(-0.133629 0.227032 0)
(-0.135751 0.206894 0)
(-0.135362 0.182931 0)
(-0.13418 0.158209 0)
(-0.133333 0.134381 0)
(-0.132832 0.111653 0)
(-0.132694 0.0897896 0)
(-0.132797 0.0684625 0)
(-0.133035 0.0473674 0)
(-0.133402 0.0263081 0)
(-0.133874 0.00507955 0)
(-0.13451 -0.0164742 0)
(-0.135344 -0.0384868 0)
(-0.136414 -0.0610591 0)
(-0.137744 -0.0842509 0)
(-0.139361 -0.108076 0)
(-0.141335 -0.132566 0)
(-0.143899 -0.157953 0)
(-0.147568 -0.185013 0)
(-0.152945 -0.215344 0)
(-0.159598 -0.250517 0)
(-0.164018 -0.28805 0)
(-0.158431 -0.313487 0)
(-0.130361 -0.292485 0)
(-0.0735716 -0.17118 0)
(0.0252663 0.0273807 0)
(-0.00436127 0.0766265 0)
(-0.029538 0.140035 0)
(-0.0547156 0.189355 0)
(-0.0782573 0.227844 0)
(-0.0959353 0.247667 0)
(-0.10633 0.247031 0)
(-0.110737 0.231146 0)
(-0.111797 0.207947 0)
(-0.111377 0.18256 0)
(-0.110826 0.157533 0)
(-0.110709 0.133932 0)
(-0.11081 0.111515 0)
(-0.111141 0.0899103 0)
(-0.111562 0.0687618 0)
(-0.112057 0.0478176 0)
(-0.112645 0.0269057 0)
(-0.113354 0.00585209 0)
(-0.114235 -0.0154881 0)
(-0.11533 -0.0372628 0)
(-0.116672 -0.0595969 0)
(-0.118269 -0.0825848 0)
(-0.120099 -0.106265 0)
(-0.122122 -0.130618 0)
(-0.124354 -0.155643 0)
(-0.127061 -0.181635 0)
(-0.130929 -0.209781 0)
(-0.13676 -0.242538 0)
(-0.14328 -0.281668 0)
(-0.145137 -0.319676 0)
(-0.130213 -0.326924 0)
(-0.0936062 -0.242693 0)
(0.0075571 -0.00118676 0)
(-0.00256682 0.0925694 0)
(-0.0237551 0.162926 0)
(-0.0447295 0.210774 0)
(-0.063795 0.245315 0)
(-0.0773392 0.259717 0)
(-0.0848992 0.253695 0)
(-0.0879199 0.23396 0)
(-0.0886868 0.208682 0)
(-0.088653 0.182489 0)
(-0.0887763 0.157436 0)
(-0.0892167 0.13406 0)
(-0.0897328 0.111838 0)
(-0.0903575 0.090362 0)
(-0.0909883 0.0692929 0)
(-0.0916779 0.0484302 0)
(-0.0924575 0.02762 0)
(-0.0933764 0.0067078 0)
(-0.0944796 -0.0144516 0)
(-0.0958104 -0.0360144 0)
(-0.0973879 -0.0581169 0)
(-0.0992109 -0.0808751 0)
(-0.10124 -0.104361 0)
(-0.103395 -0.128584 0)
(-0.105597 -0.153504 0)
(-0.107937 -0.179176 0)
(-0.110882 -0.206291 0)
(-0.115526 -0.237084 0)
(-0.122033 -0.275334 0)
(-0.128031 -0.320077 0)
(-0.122877 -0.348751 0)
(-0.10104 -0.294269 0)
(-0.0209686 -0.0514299 0)
(-0.00044802 0.10427 0)
(-0.016712 0.181407 0)
(-0.0330916 0.227961 0)
(-0.0478526 0.258981 0)
(-0.0579252 0.268967 0)
(-0.0634675 0.258835 0)
(-0.0657658 0.236332 0)
(-0.0666159 0.209639 0)
(-0.0670677 0.182948 0)
(-0.0677353 0.1579 0)
(-0.0685525 0.134627 0)
(-0.0693372 0.112475 0)
(-0.0701493 0.0910382 0)
(-0.0709365 0.0700138 0)
(-0.0717857 0.0492352 0)
(-0.0727323 0.0285547 0)
(-0.073832 0.00781967 0)
(-0.0751235 -0.0131274 0)
(-0.0766484 -0.0344504 0)
(-0.0784292 -0.0563081 0)
(-0.0804698 -0.0788487 0)
(-0.0827357 -0.102189 0)
(-0.0851351 -0.126375 0)
(-0.0875159 -0.151337 0)
(-0.0898038 -0.176909 0)
(-0.0921472 -0.203219 0)
(-0.0955633 -0.231794 0)
(-0.10076 -0.267243 0)
(-0.108063 -0.314066 0)
(-0.107438 -0.360258 0)
(-0.0950646 -0.342552 0)
(-0.0335046 -0.128817 0)
(0.00178313 0.111097 0)
(-0.00898816 0.195055 0)
(-0.020665 0.240933 0)
(-0.0313304 0.269144 0)
(-0.0384679 0.275776 0)
(-0.0425798 0.262707 0)
(-0.0445254 0.238341 0)
(-0.0455891 0.210726 0)
(-0.0464546 0.183725 0)
(-0.047485 0.15867 0)
(-0.0485215 0.135424 0)
(-0.0494634 0.113284 0)
(-0.0503918 0.0918584 0)
(-0.0512986 0.0708761 0)
(-0.0522804 0.0501855 0)
(-0.0533746 0.0296378 0)
(-0.0546345 0.00907662 0)
(-0.0560959 -0.0116621 0)
(-0.0577968 -0.0327469 0)
(-0.0597589 -0.0543461 0)
(-0.0619888 -0.0766281 0)
(-0.0644638 -0.0997552 0)
(-0.0671186 -0.123852 0)
(-0.0698002 -0.14895 0)
(-0.0724003 -0.174894 0)
(-0.0747922 -0.2015 0)
(-0.0777968 -0.229373 0)
(-0.0817305 -0.26248 0)
(-0.0891962 -0.307959 0)
(-0.0904207 -0.362983 0)
(-0.0836034 -0.373393 0)
(-0.0299039 -0.196147 0)
(0.0039714 0.112656 0)
(-0.0010072 0.203568 0)
(-0.00801255 0.249781 0)
(-0.0148453 0.276134 0)
(-0.0194189 0.2807 0)
(-0.0223671 0.265886 0)
(-0.0240897 0.240415 0)
(-0.0253526 0.212193 0)
(-0.0265195 0.184933 0)
(-0.0277684 0.159776 0)
(-0.0289204 0.136448 0)
(-0.0299461 0.114252 0)
(-0.0309424 0.0928064 0)
(-0.0319343 0.0718615 0)
(-0.0330173 0.0512668 0)
(-0.0342332 0.0308672 0)
(-0.0356338 0.0104979 0)
(-0.037256 -0.0100156 0)
(-0.0391346 -0.0308503 0)
(-0.0412923 -0.0521855 0)
(-0.043739 -0.074205 0)
(-0.0464538 -0.0970959 0)
(-0.0493907 -0.121017 0)
(-0.0523817 -0.146053 0)
(-0.0553392 -0.172072 0)
(-0.0579082 -0.198768 0)
(-0.0608853 -0.226098 0)
(-0.0637643 -0.257227 0)
(-0.0709006 -0.301171 0)
(-0.0729763 -0.363966 0)
(-0.0719492 -0.400081 0)
(-0.0255733 -0.251784 0)
(0.00605625 0.109183 0)
(0.00692455 0.206982 0)
(0.00438345 0.25465 0)
(0.00125311 0.280198 0)
(-0.000939792 0.283714 0)
(-0.00287986 0.268103 0)
(-0.00439189 0.242156 0)
(-0.00578956 0.213614 0)
(-0.00712956 0.186161 0)
(-0.00847071 0.160869 0)
(-0.00964431 0.137439 0)
(-0.0106773 0.115199 0)
(-0.0116789 0.0937669 0)
(-0.0127007 0.0728983 0)
(-0.0138361 0.0524349 0)
(-0.0151342 0.0322144 0)
(-0.0166471 0.0120646 0)
(-0.0184148 -0.00819587 0)
(-0.0204691 -0.0287523 0)
(-0.0228338 -0.049792 0)
(-0.0255257 -0.0715146 0)
(-0.0285248 -0.094139 0)
(-0.0318246 -0.11788 0)
(-0.0352485 -0.14292 0)
(-0.0388056 -0.169222 0)
(-0.0419161 -0.196476 0)
(-0.0455063 -0.224106 0)
(-0.0480037 -0.253916 0)
(-0.0551091 -0.294657 0)
(-0.0573855 -0.359968 0)
(-0.0610874 -0.416933 0)
(-0.0209801 -0.299673 0)
(0.00776284 0.100874 0)
(0.0145087 0.205126 0)
(0.0163021 0.255529 0)
(0.0166349 0.281488 0)
(0.0167647 0.285098 0)
(0.0160004 0.269743 0)
(0.0148591 0.243934 0)
(0.0134605 0.215323 0)
(0.0120471 0.187695 0)
(0.0106798 0.162193 0)
(0.00953337 0.138579 0)
(0.00854537 0.116242 0)
(0.00758992 0.0947998 0)
(0.00659005 0.0740029 0)
(0.0054499 0.0536806 0)
(0.00410995 0.033661 0)
(0.00251367 0.0137626 0)
(0.000613535 -0.00620622 0)
(-0.00162207 -0.0264421 0)
(-0.00421653 -0.0471453 0)
(-0.00719731 -0.0685244 0)
(-0.0105303 -0.0908131 0)
(-0.0142504 -0.114246 0)
(-0.0181336 -0.139042 0)
(-0.0223276 -0.165238 0)
(-0.026039 -0.19259 0)
(-0.0305314 -0.220422 0)
(-0.0330669 -0.249653 0)
(-0.0407915 -0.288391 0)
(-0.0436717 -0.356169 0)
(-0.052243 -0.430394 0)
(-0.0171778 -0.339117 0)
(0.00873341 0.0881556 0)
(0.0213265 0.197942 0)
(0.0274496 0.252301 0)
(0.0311528 0.279804 0)
(0.0336144 0.284619 0)
(0.0342239 0.270393 0)
(0.0336528 0.245226 0)
(0.0324146 0.216738 0)
(0.031037 0.188949 0)
(0.0297179 0.163217 0)
(0.0286589 0.139426 0)
(0.0277907 0.117035 0)
(0.0269627 0.0956449 0)
(0.0260659 0.0749905 0)
(0.0249929 0.0548801 0)
(0.0236694 0.0351298 0)
(0.0220319 0.0155483 0)
(0.0200235 -0.00406424 0)
(0.017608 -0.0239122 0)
(0.0147649 -0.0442096 0)
(0.0114508 -0.06518 0)
(0.00771874 -0.0870807 0)
(0.00347508 -0.110185 0)
(-0.00100367 -0.134751 0)
(-0.006031 -0.160925 0)
(-0.0106152 -0.188458 0)
(-0.0164854 -0.216651 0)
(-0.0195569 -0.245351 0)
(-0.0285182 -0.28133 0)
(-0.0318785 -0.348603 0)
(-0.0448733 -0.437314 0)
(-0.0139672 -0.373262 0)
(0.00856008 0.0719536 0)
(0.026812 0.185523 0)
(0.0373902 0.244862 0)
(0.0445584 0.275112 0)
(0.049529 0.282336 0)
(0.0518248 0.270259 0)
(0.0521588 0.246432 0)
(0.0513372 0.218394 0)
(0.0501547 0.190497 0)
(0.0489747 0.164459 0)
(0.0480545 0.140399 0)
(0.0473528 0.117882 0)
(0.046705 0.0965087 0)
(0.0459685 0.0759872 0)
(0.0450163 0.0561008 0)
(0.0437556 0.0366501 0)
(0.0421133 0.0174337 0)
(0.0400179 -0.00176154 0)
(0.0374258 -0.0211469 0)
(0.0343215 -0.040954 0)
(0.0306345 -0.0614235 0)
(0.0264508 -0.0828263 0)
(0.0216238 -0.105454 0)
(0.0164935 -0.129564 0)
(0.0105781 -0.155356 0)
(0.0050294 -0.182611 0)
(-0.00239201 -0.210841 0)
(-0.00642783 -0.239175 0)
(-0.0174665 -0.273812 0)
(-0.0215518 -0.340878 0)
(-0.0390817 -0.441575 0)
(-0.0113461 -0.401941 0)
(0.00688296 0.0538538 0)
(0.0302791 0.168038 0)
(0.045601 0.233066 0)
(0.0565318 0.267112 0)
(0.0642785 0.277598 0)
(0.0685512 0.26842 0)
(0.0701172 0.246514 0)
(0.0699943 0.219276 0)
(0.0692172 0.191425 0)
(0.0683323 0.165123 0)
(0.0676655 0.140814 0)
(0.0672292 0.118211 0)
(0.0668591 0.0969231 0)
(0.0663801 0.0766285 0)
(0.0656389 0.0570748 0)
(0.0645185 0.0380378 0)
(0.0629304 0.0193028 0)
(0.0607921 0.000639052 0)
(0.0580439 -0.0181668 0)
(0.0546807 -0.0373654 0)
(0.0505917 -0.0572154 0)
(0.0459135 -0.0780014 0)
(0.0404002 -0.100038 0)
(0.0344909 -0.123624 0)
(0.0275114 -0.148997 0)
(0.0207389 -0.175952 0)
(0.0115956 -0.20402 0)
(0.00604591 -0.231643 0)
(-0.00770078 -0.264438 0)
(-0.0122817 -0.329368 0)
(-0.0342938 -0.441079 0)
(-0.0090349 -0.427214 0)
(0.00385215 0.0361164 0)
(0.0310201 0.145853 0)
(0.051458 0.216754 0)
(0.0664829 0.255738 0)
(0.0774133 0.270475 0)
(0.0841836 0.265095 0)
(0.0875426 0.2459 0)
(0.0886026 0.220015 0)
(0.088582 0.192494 0)
(0.0882277 0.165993 0)
(0.0879617 0.141385 0)
(0.0878765 0.118613 0)
(0.0878429 0.0973486 0)
(0.0876733 0.0772521 0)
(0.0871905 0.058036 0)
(0.086255 0.0394459 0)
(0.0847532 0.0212481 0)
(0.0826079 0.0031987 0)
(0.0797202 -0.0149364 0)
(0.076109 -0.0334191 0)
(0.0716022 -0.0525239 0)
(0.0664068 -0.0725421 0)
(0.060152 -0.093807 0)
(0.0534037 -0.116597 0)
(0.0452309 -0.141162 0)
(0.0371338 -0.167343 0)
(0.026194 -0.19474 0)
(0.0185494 -0.221706 0)
(0.00153262 -0.25346 0)
(-0.0036164 -0.316718 0)
(-0.0304968 -0.438284 0)
(-0.00690229 -0.449048 0)
(0.000531796 0.0208292 0)
(0.0286331 0.119598 0)
(0.0543999 0.195787 0)
(0.0737822 0.240361 0)
(0.0881941 0.259867 0)
(0.0978746 0.258788 0)
(0.103584 0.24288 0)
(0.106422 0.218906 0)
(0.107676 0.192152 0)
(0.108251 0.16574 0)
(0.108685 0.140996 0)
(0.109162 0.118158 0)
(0.109617 0.0970096 0)
(0.109879 0.0772207 0)
(0.10976 0.0584749 0)
(0.109109 0.0404817 0)
(0.107777 0.0229808 0)
(0.105697 0.00570944 0)
(0.102708 -0.0115888 0)
(0.0988875 -0.0291818 0)
(0.0939709 -0.0473632 0)
(0.0882543 -0.0664241 0)
(0.0811958 -0.0867142 0)
(0.0735073 -0.108495 0)
(0.0639604 -0.132057 0)
(0.0542937 -0.157206 0)
(0.0412232 -0.183629 0)
(0.0310123 -0.209672 0)
(0.0104633 -0.239792 0)
(0.00471586 -0.300324 0)
(-0.0273802 -0.431784 0)
(-0.00476975 -0.468749 0)
(-0.00155932 0.00901413 0)
(0.0231847 0.090546 0)
(0.0538264 0.170371 0)
(0.0775174 0.221145 0)
(0.0957964 0.246186 0)
(0.109057 0.250038 0)
(0.117933 0.238101 0)
(0.123415 0.216725 0)
(0.126733 0.191295 0)
(0.128864 0.165337 0)
(0.130443 0.140634 0)
(0.131769 0.117771 0)
(0.132877 0.0967226 0)
(0.133662 0.0772168 0)
(0.133957 0.0589359 0)
(0.133627 0.0415615 0)
(0.132484 0.0248049 0)
(0.130501 0.00838447 0)
(0.127434 -0.00797529 0)
(0.123432 -0.0245579 0)
(0.118102 -0.0416704 0)
(0.111855 -0.0595857 0)
(0.103932 -0.0786637 0)
(0.0952229 -0.0991172 0)
(0.0841424 -0.121244 0)
(0.0727182 -0.144799 0)
(0.0572265 -0.169661 0)
(0.0440502 -0.194425 0)
(0.0196737 -0.223346 0)
(0.0129187 -0.281826 0)
(-0.0249082 -0.423317 0)
(-0.00245072 -0.486141 0)
(-0.00166478 0.000797722 0)
(0.0160718 0.0615435 0)
(0.0492456 0.141227 0)
(0.0767885 0.197185 0)
(0.0988192 0.227623 0)
(0.115945 0.236502 0)
(0.128702 0.228884 0)
(0.137784 0.210732 0)
(0.144177 0.187358 0)
(0.148785 0.162527 0)
(0.152275 0.138389 0)
(0.15504 0.115875 0)
(0.157226 0.0951873 0)
(0.158839 0.0761677 0)
(0.159754 0.0585319 0)
(0.159909 0.0419578 0)
(0.159071 0.0261297 0)
(0.157299 0.0107581 0)
(0.154209 -0.00446958 0)
(0.150077 -0.0198119 0)
(0.144344 -0.0355958 0)
(0.137565 -0.0520706 0)
(0.128699 -0.0696058 0)
(0.118848 -0.0883467 0)
(0.106006 -0.108631 0)
(0.0925356 -0.130175 0)
(0.0741977 -0.153087 0)
(0.0576904 -0.176157 0)
(0.029474 -0.203636 0)
(0.0211199 -0.259415 0)
(-0.0227512 -0.411751 0)
(0.000429076 -0.501535 0)
(-0.000480796 -0.00444234 0)
(0.0097377 0.0372299 0)
(0.0403278 0.110611 0)
(0.0704881 0.170533 0)
(0.0964664 0.205892 0)
(0.117949 0.219624 0)
(0.135371 0.216466 0)
(0.149154 0.201982 0)
(0.159856 0.181318 0)
(0.168113 0.158307 0)
(0.174511 0.135331 0)
(0.179497 0.113593 0)
(0.183324 0.0935388 0)
(0.186153 0.0751648 0)
(0.187918 0.0582632 0)
(0.188703 0.0425515 0)
(0.188223 0.0277052 0)
(0.186687 0.0134506 0)
(0.183566 -0.000551218 0)
(0.179313 -0.0145166 0)
(0.173107 -0.0288023 0)
(0.165719 -0.0436067 0)
(0.155751 -0.0593022 0)
(0.144596 -0.0759398 0)
(0.129732 -0.0939038 0)
(0.113958 -0.11284 0)
(0.0924155 -0.133178 0)
(0.072383 -0.154077 0)
(0.0404201 -0.180696 0)
(0.0297736 -0.234426 0)
(-0.0200505 -0.397981 0)
(0.00457225 -0.513916 0)
(0.000906458 -0.00794274 0)
(0.00562041 0.020263 0)
(0.0277535 0.0808216 0)
(0.0575384 0.139988 0)
(0.0860277 0.178353 0)
(0.111966 0.195909 0)
(0.134658 0.196986 0)
(0.15409 0.186498 0)
(0.170319 0.169262 0)
(0.183552 0.148982 0)
(0.194137 0.128092 0)
(0.202506 0.107963 0)
(0.208946 0.0892279 0)
(0.213789 0.0720521 0)
(0.217004 0.0563233 0)
(0.218882 0.0418356 0)
(0.219082 0.0282822 0)
(0.21802 0.0154295 0)
(0.214998 0.00294093 0)
(0.210692 -0.00934645 0)
(0.203976 -0.0217937 0)
(0.195946 -0.0345187 0)
(0.184732 -0.0479074 0)
(0.172155 -0.0618954 0)
(0.155027 -0.0769567 0)
(0.136792 -0.0926793 0)
(0.111789 -0.11002 0)
(0.0883311 -0.128506 0)
(0.0526897 -0.154793 0)
(0.0394595 -0.207395 0)
(-0.0148248 -0.382151 0)
(0.0112421 -0.522496 0)
(0.00177232 -0.0126139 0)
(0.00146572 0.0121225 0)
(0.0123828 0.0599682 0)
(0.0384767 0.113692 0)
(0.0682939 0.150467 0)
(0.0984204 0.169362 0)
(0.12696 0.173347 0)
(0.15285 0.166431 0)
(0.17567 0.152859 0)
(0.195034 0.13594 0)
(0.210949 0.117944 0)
(0.223768 0.100238 0)
(0.233734 0.0835516 0)
(0.241349 0.068165 0)
(0.246574 0.0540782 0)
(0.249959 0.0411634 0)
(0.25107 0.0291879 0)
(0.250631 0.0179509 0)
(0.247737 0.00718098 0)
(0.243407 -0.00327314 0)
(0.236066 -0.013671 0)
(0.227346 -0.0240376 0)
(0.214699 -0.0347976 0)
(0.2007 -0.0457453 0)
(0.181226 -0.0575101 0)
(0.160821 -0.069601 0)
(0.132597 -0.0836844 0)
(0.106517 -0.0996198 0)
(0.0676793 -0.126653 0)
(0.0523532 -0.179167 0)
(-0.0031616 -0.364836 0)
(0.0226713 -0.526036 0)
(0.0018225 -0.00852186 0)
(-0.00180054 0.00823857 0)
(-0.00912005 0.0436659 0)
(0.0095279 0.0848909 0)
(0.0379206 0.117349 0)
(0.072178 0.134762 0)
(0.106593 0.140324 0)
(0.139364 0.136754 0)
(0.169315 0.127254 0)
(0.1956 0.114437 0)
(0.21775 0.100271 0)
(0.236069 0.0860044 0)
(0.250591 0.0723787 0)
(0.262033 0.0597252 0)
(0.270148 0.0481229 0)
(0.27591 0.0375345 0)
(0.278535 0.0277897 0)
(0.279353 0.0187869 0)
(0.276882 0.0102714 0)
(0.272995 0.00219782 0)
(0.265288 -0.00574819 0)
(0.256401 -0.0133727 0)
(0.24266 -0.0211351 0)
(0.228116 -0.0286564 0)
(0.207072 -0.0368255 0)
(0.186159 -0.0450511 0)
(0.15609 -0.055904 0)
(0.129896 -0.0694532 0)
(0.089465 -0.0977968 0)
(0.0739526 -0.152015 0)
(0.0206023 -0.345128 0)
(0.041533 -0.520828 0)
(-0.0167185 -0.0192378 0)
(-0.0314928 0.0271856 0)
(-0.0327223 0.0534389 0)
(-0.0249846 0.0753053 0)
(0.00438608 0.0912325 0)
(0.0409872 0.101678 0)
(0.0812452 0.104738 0)
(0.120769 0.102693 0)
(0.157809 0.096812 0)
(0.190692 0.0882984 0)
(0.218833 0.0785907 0)
(0.242424 0.0685023 0)
(0.261223 0.058739 0)
(0.276387 0.0495332 0)
(0.287119 0.0410813 0)
(0.295331 0.0333491 0)
(0.299301 0.026298 0)
(0.301763 0.0198542 0)
(0.299807 0.013872 0)
(0.297201 0.00838543 0)
(0.289611 0.00314719 0)
(0.282286 -0.00161397 0)
(0.268888 -0.00633813 0)
(0.256795 -0.0106132 0)
(0.236645 -0.0155625 0)
(0.219756 -0.0203954 0)
(0.191267 -0.0286158 0)
(0.171246 -0.0400176 0)
(0.132386 -0.070567 0)
(0.119824 -0.128129 0)
(0.0681945 -0.317563 0)
(0.0734312 -0.492424 0)
(-0.0901143 0.0514618 0)
(-0.102287 0.0199715 0)
(-0.117991 0.0336358 0)
(-0.0887006 0.0375581 0)
(-0.0601633 0.0466499 0)
(-0.0150603 0.053247 0)
(0.0288636 0.0564415 0)
(0.0738751 0.0571509 0)
(0.116057 0.0555966 0)
(0.155303 0.052191 0)
(0.189261 0.0479047 0)
(0.21999 0.0430579 0)
(0.244574 0.0381681 0)
(0.267139 0.033363 0)
(0.283317 0.02885 0)
(0.299112 0.0246681 0)
(0.308184 0.0207846 0)
(0.318629 0.0173058 0)
(0.321639 0.0139778 0)
(0.327913 0.0111645 0)
(0.325496 0.00828407 0)
(0.328444 0.00614842 0)
(0.320538 0.00351131 0)
(0.320526 0.00207114 0)
(0.306314 -0.00079321 0)
(0.303901 -0.00209927 0)
(0.281447 -0.00838173 0)
(0.276743 -0.0162174 0)
(0.241379 -0.0460693 0)
(0.23382 -0.101629 0)
(0.169971 -0.253439 0)
(0.133857 -0.394109 0)
(0.10253 0.118959 0)
(0.119757 0.0756643 0)
(0.165712 0.047837 0)
(0.206845 0.0296706 0)
(0.236213 0.0205603 0)
(0.267409 0.015741 0)
(0.298744 0.0136836 0)
(0.333729 0.0127228 0)
(0.366717 0.012166 0)
(0.401997 0.0115751 0)
(0.431966 0.0110129 0)
(0.463346 0.0102547 0)
(0.487189 0.00956521 0)
(0.513309 0.00865601 0)
(0.530511 0.00796404 0)
(0.551792 0.00701001 0)
(0.56279 0.00643721 0)
(0.580228 0.00547994 0)
(0.585609 0.00509872 0)
(0.600295 0.00411737 0)
(0.60047 0.00397098 0)
(0.613422 0.00289325 0)
(0.608452 0.00306127 0)
(0.620488 0.00183979 0)
(0.609823 0.00248932 0)
(0.621002 0.000848352 0)
(0.601699 0.00142975 0)
(0.607626 -0.00302051 0)
(0.56601 -0.00756181 0)
(0.542863 -0.0277214 0)
(0.419509 -0.0610436 0)
(0.273756 -0.114879 0)
)
;

boundaryField
{
    movingWall
    {
        type            fixedValue;
        value           uniform (1 0 0);
    }
    fixedWalls
    {
        type            noSlip;
    }
    frontAndBack
    {
        type            empty;
    }
}


// ************************************************************************* //
