/*--------------------------------*- C++ -*----------------------------------*\
| =========                 |                                                 |
| \\      /  F ield         | OpenFOAM: The Open Source CFD Toolbox           |
|  \\    /   O peration     | Version:  2406                                  |
|   \\  /    A nd           | Website:  www.openfoam.com                      |
|    \\/     M anipulation  |                                                 |
\*---------------------------------------------------------------------------*/
FoamFile
{
    version     2.0;
    format      ascii;
    arch        "LSB;label=32;scalar=64";
    class       volScalarField;
    location    "21.4";
    object      p;
}
// * * * * * * * * * * * * * * * * * * * * * * * * * * * * * * * * * * * * * //

dimensions      [0 2 -2 0 0 0 0];

internalField   nonuniform List<scalar> 
14400
(
0.0329136
0.0329173
0.032917
0.0329157
0.0329096
0.0329011
0.0328886
0.0328735
0.0328552
0.0328345
0.0328111
0.0327853
0.0327571
0.0327267
0.0326938
0.0326586
0.0326211
0.0325812
0.0325389
0.0324941
0.0324469
0.0323971
0.0323446
0.0322894
0.0322314
0.0321705
0.0321065
0.0320393
0.0319687
0.0318948
0.0318174
0.0317364
0.0316519
0.031564
0.0314727
0.0313783
0.031281
0.0311815
0.0310802
0.0309779
0.0308755
0.030774
0.0306748
0.0305792
0.0304889
0.0304056
0.0303313
0.0302681
0.0302182
0.0301838
0.0301671
0.0301703
0.0301955
0.0302444
0.0303186
0.0304193
0.0305472
0.0307025
0.0308847
0.0310928
0.031325
0.0315786
0.0318504
0.0321362
0.0324313
0.0327303
0.0330273
0.0333158
0.0335894
0.0338414
0.0340654
0.0342551
0.0344052
0.0345109
0.0345685
0.0345753
0.0345301
0.0344329
0.0342851
0.0340895
0.03385
0.0335718
0.0332607
0.0329232
0.0325663
0.0321971
0.0318223
0.0314485
0.0310817
0.0307269
0.0303885
0.0300701
0.029774
0.029502
0.0292549
0.0290329
0.0288356
0.0286618
0.0285104
0.0283797
0.028268
0.0281735
0.0280942
0.0280284
0.0279744
0.0279307
0.0278957
0.0278683
0.0278472
0.0278319
0.027821
0.0278149
0.027812
0.0278136
0.0278175
0.0278259
0.027835
0.0278475
0.0278566
0.0278642
0.03291
0.0329136
0.0329122
0.0329102
0.0329037
0.0328954
0.0328832
0.0328687
0.032851
0.032831
0.0328083
0.0327833
0.0327559
0.0327261
0.0326941
0.0326598
0.0326232
0.0325843
0.0325432
0.0324997
0.0324538
0.0324055
0.0323548
0.0323015
0.0322455
0.0321868
0.0321252
0.0320607
0.0319931
0.0319223
0.0318483
0.031771
0.0316904
0.0316066
0.0315197
0.0314298
0.0313374
0.0312427
0.0311463
0.0310489
0.0309513
0.0308545
0.0307595
0.0306679
0.0305809
0.0305004
0.0304281
0.0303661
0.0303163
0.0302809
0.0302621
0.0302619
0.0302824
0.0303253
0.0303922
0.0304842
0.0306022
0.0307463
0.0309163
0.0311111
0.0313292
0.031568
0.0318245
0.0320948
0.0323742
0.0326577
0.0329395
0.0332136
0.0334735
0.0337128
0.0339254
0.0341053
0.0342471
0.0343463
0.0343993
0.0344035
0.0343577
0.034262
0.0341179
0.0339279
0.0336959
0.0334269
0.0331266
0.0328013
0.0324577
0.0321026
0.0317425
0.0313836
0.0310316
0.0306912
0.0303667
0.0300611
0.0297768
0.0295154
0.0292775
0.0290633
0.0288723
0.0287036
0.0285559
0.0284277
0.0283174
0.0282233
0.0281437
0.028077
0.0280216
0.0279761
0.027939
0.0279094
0.027886
0.0278683
0.027855
0.0278464
0.0278409
0.0278397
0.0278403
0.0278452
0.02785
0.0278588
0.027864
0.0278718
0.0329103
0.0329151
0.0329136
0.0329119
0.0329053
0.0328969
0.0328848
0.0328704
0.0328528
0.032833
0.0328105
0.0327857
0.0327585
0.0327291
0.0326974
0.0326634
0.0326273
0.0325889
0.0325482
0.0325053
0.0324601
0.0324126
0.0323627
0.0323103
0.0322553
0.0321976
0.0321372
0.0320739
0.0320076
0.0319382
0.0318655
0.0317897
0.0317105
0.0316281
0.0315426
0.031454
0.0313627
0.031269
0.0311733
0.0310764
0.0309789
0.0308818
0.0307861
0.0306933
0.0306047
0.030522
0.030447
0.0303816
0.0303281
0.0302885
0.0302651
0.03026
0.0302753
0.0303128
0.0303743
0.030461
0.0305738
0.030713
0.0308785
0.0310692
0.0312837
0.0315196
0.0317737
0.0320422
0.0323207
0.0326037
0.0328857
0.0331604
0.0334215
0.0336623
0.0338766
0.0340583
0.0342019
0.0343028
0.0343572
0.0343625
0.0343175
0.0342221
0.0340778
0.0338873
0.0336545
0.0333844
0.033083
0.0327566
0.0324121
0.0320564
0.0316962
0.0313378
0.0309868
0.0306481
0.0303259
0.0300232
0.0297423
0.0294846
0.0292508
0.0290407
0.0288538
0.028689
0.0285451
0.0284204
0.0283132
0.0282219
0.0281447
0.02808
0.0280261
0.0279819
0.0279457
0.0279167
0.0278936
0.0278761
0.0278627
0.0278539
0.0278479
0.0278463
0.027846
0.0278506
0.0278545
0.0278641
0.0278692
0.0278811
0.0329117
0.032917
0.0329151
0.0329132
0.0329064
0.032898
0.0328859
0.0328717
0.0328545
0.0328351
0.032813
0.0327888
0.0327621
0.0327333
0.0327023
0.0326691
0.0326338
0.0325963
0.0325567
0.0325149
0.032471
0.0324249
0.0323765
0.0323258
0.0322727
0.0322171
0.0321589
0.0320979
0.032034
0.0319672
0.0318973
0.0318241
0.0317477
0.031668
0.0315851
0.0314989
0.0314098
0.031318
0.0312238
0.0311277
0.0310305
0.030933
0.0308362
0.0307412
0.0306496
0.030563
0.030483
0.0304118
0.0303514
0.0303041
0.0302722
0.0302578
0.0302633
0.0302906
0.0303414
0.0304174
0.0305193
0.0306479
0.0308029
0.0309836
0.0311885
0.0314154
0.0316614
0.0319225
0.0321944
0.0324719
0.0327493
0.0330204
0.0332788
0.0335179
0.0337315
0.0339132
0.0340576
0.0341599
0.0342163
0.0342241
0.0341818
0.0340894
0.0339484
0.0337612
0.0335319
0.0332655
0.032968
0.0326457
0.0323057
0.0319549
0.0316
0.0312475
0.0309029
0.0305711
0.0302563
0.0299613
0.0296884
0.0294388
0.0292131
0.0290109
0.0288315
0.0286739
0.0285364
0.0284176
0.0283155
0.0282285
0.0281549
0.0280931
0.0280415
0.0279988
0.0279637
0.0279354
0.0279124
0.0278948
0.0278807
0.0278712
0.0278638
0.0278609
0.0278588
0.027862
0.0278638
0.0278733
0.0278773
0.0278933
0.0329181
0.0329236
0.0329216
0.0329196
0.0329126
0.0329041
0.0328919
0.0328777
0.0328606
0.0328412
0.0328194
0.0327953
0.032769
0.0327405
0.0327098
0.0326771
0.0326422
0.0326053
0.0325664
0.0325254
0.0324823
0.0324371
0.0323898
0.0323402
0.0322883
0.0322339
0.0321769
0.0321172
0.0320547
0.031989
0.0319201
0.0318478
0.031772
0.0316926
0.0316095
0.0315226
0.0314322
0.0313383
0.0312412
0.0311414
0.0310394
0.0309361
0.0308325
0.0307296
0.0306292
0.0305327
0.030442
0.0303595
0.0302872
0.0302276
0.0301831
0.0301563
0.0301496
0.0301651
0.0302047
0.0302703
0.0303627
0.0304829
0.0306306
0.0308053
0.0310055
0.0312291
0.0314731
0.0317337
0.0320064
0.032286
0.0325668
0.0328425
0.0331066
0.0333523
0.0335731
0.0337627
0.0339152
0.0340257
0.0340901
0.0341055
0.0340701
0.0339839
0.033848
0.033665
0.0334387
0.0331744
0.0328779
0.032556
0.0322158
0.0318645
0.031509
0.031156
0.0308114
0.0304804
0.0301669
0.0298743
0.0296046
0.0293591
0.0291382
0.0289416
0.0287683
0.0286171
0.0284862
0.0283738
0.0282781
0.0281972
0.0281291
0.0280724
0.0280253
0.0279866
0.0279548
0.0279293
0.0279086
0.0278927
0.0278799
0.0278713
0.0278644
0.0278619
0.0278596
0.0278634
0.0278649
0.0278762
0.0278806
0.0279013
0.0329272
0.0329321
0.0329298
0.0329274
0.0329201
0.0329113
0.032899
0.0328848
0.0328678
0.0328486
0.0328271
0.0328033
0.0327774
0.0327494
0.0327193
0.0326871
0.032653
0.0326169
0.0325788
0.0325388
0.0324968
0.0324528
0.0324067
0.0323585
0.032308
0.0322551
0.0321997
0.0321414
0.0320802
0.0320157
0.0319477
0.031876
0.0318003
0.0317204
0.0316361
0.0315472
0.0314537
0.0313557
0.0312533
0.0311468
0.0310368
0.030924
0.0308095
0.0306944
0.0305804
0.0304692
0.0303628
0.0302637
0.0301742
0.030097
0.0300347
0.0299902
0.0299659
0.0299644
0.0299878
0.0300377
0.0301157
0.0302224
0.030358
0.0305219
0.0307129
0.0309288
0.0311668
0.0314232
0.0316936
0.0319728
0.032255
0.032534
0.0328033
0.033056
0.0332854
0.033485
0.0336488
0.0337715
0.0338488
0.0338774
0.0338553
0.033782
0.0336584
0.0334868
0.0332711
0.0330161
0.0327279
0.0324131
0.032079
0.031733
0.0313822
0.0310335
0.030693
0.0303661
0.030057
0.0297692
0.0295048
0.0292652
0.0290507
0.0288609
0.0286949
0.0285512
0.0284279
0.0283231
0.0282347
0.0281607
0.0280992
0.0280484
0.0280065
0.0279725
0.0279447
0.0279226
0.0279045
0.0278908
0.0278795
0.027872
0.0278655
0.0278634
0.0278608
0.0278647
0.0278656
0.0278779
0.0278822
0.0279066
0.0329408
0.0329447
0.0329421
0.032939
0.0329314
0.0329223
0.0329098
0.0328955
0.0328784
0.0328593
0.0328378
0.0328143
0.0327886
0.0327608
0.0327311
0.0326993
0.0326657
0.0326301
0.0325926
0.0325533
0.032512
0.0324688
0.0324235
0.0323761
0.0323264
0.0322741
0.0322192
0.0321612
0.0320998
0.0320348
0.0319657
0.0318921
0.0318136
0.0317299
0.0316406
0.0315454
0.0314441
0.0313365
0.0312229
0.0311034
0.0309787
0.0308494
0.0307167
0.030582
0.030447
0.0303138
0.0301846
0.030062
0.0299489
0.0298481
0.0297626
0.0296954
0.0296493
0.029627
0.0296307
0.0296626
0.0297239
0.0298157
0.0299383
0.0300911
0.0302731
0.0304823
0.0307158
0.0309702
0.031241
0.0315232
0.031811
0.0320983
0.0323784
0.0326443
0.0328891
0.0331063
0.0332893
0.0334326
0.0335313
0.0335818
0.0335816
0.0335296
0.0334264
0.0332739
0.0330755
0.0328358
0.0325609
0.0322573
0.0319324
0.0315936
0.0312486
0.0309043
0.0305673
0.0302433
0.029937
0.0296518
0.0293905
0.0291545
0.0289442
0.0287593
0.0285989
0.0284613
0.0283447
0.028247
0.0281658
0.0280991
0.0280447
0.0280007
0.0279653
0.0279372
0.0279147
0.0278973
0.0278833
0.027873
0.0278645
0.0278594
0.0278546
0.027854
0.0278523
0.0278573
0.0278586
0.0278725
0.0278772
0.0279046
0.0329574
0.0329598
0.0329567
0.0329527
0.0329447
0.032935
0.0329225
0.0329079
0.0328908
0.0328717
0.0328505
0.0328271
0.0328017
0.0327743
0.0327449
0.0327136
0.0326804
0.0326454
0.0326085
0.0325698
0.0325292
0.0324866
0.032442
0.0323952
0.0323459
0.0322938
0.0322387
0.0321801
0.0321175
0.0320505
0.0319785
0.0319009
0.0318171
0.0317265
0.0316286
0.0315229
0.031409
0.0312868
0.0311562
0.0310176
0.0308716
0.0307189
0.030561
0.0303993
0.030236
0.0300733
0.0299139
0.0297607
0.0296167
0.0294852
0.0293695
0.0292727
0.029198
0.0291482
0.0291258
0.029133
0.0291716
0.0292424
0.0293461
0.0294824
0.0296503
0.029848
0.030073
0.030322
0.0305906
0.0308741
0.0311668
0.0314627
0.031755
0.0320369
0.0323013
0.0325413
0.0327502
0.032922
0.0330513
0.0331338
0.0331665
0.0331476
0.033077
0.0329559
0.0327871
0.032575
0.032325
0.0320436
0.0317379
0.0314156
0.0310844
0.0307515
0.0304239
0.0301075
0.0298076
0.029528
0.0292716
0.0290403
0.0288348
0.028655
0.0285
0.0283682
0.0282578
0.0281666
0.0280922
0.0280324
0.0279848
0.0279475
0.0279185
0.0278964
0.0278794
0.0278669
0.0278573
0.0278508
0.0278454
0.0278429
0.0278401
0.0278411
0.0278403
0.0278463
0.0278479
0.0278627
0.0278677
0.0278969
0.0329776
0.0329782
0.0329747
0.0329695
0.0329612
0.0329509
0.0329381
0.0329232
0.0329061
0.032887
0.0328658
0.0328425
0.0328172
0.03279
0.0327609
0.0327298
0.0326969
0.0326621
0.0326256
0.0325871
0.0325467
0.0325043
0.0324596
0.0324125
0.0323625
0.0323093
0.0322524
0.0321912
0.0321251
0.0320532
0.031975
0.0318894
0.0317957
0.031693
0.0315807
0.031458
0.0313245
0.0311799
0.0310243
0.0308579
0.0306817
0.0304966
0.0303042
0.0301064
0.0299057
0.0297047
0.0295064
0.029314
0.0291311
0.0289611
0.0288077
0.0286742
0.0285641
0.0284805
0.0284261
0.0284033
0.0284139
0.0284592
0.02854
0.0286563
0.0288072
0.0289912
0.0292062
0.0294488
0.0297153
0.030001
0.0303005
0.0306078
0.0309164
0.0312194
0.0315097
0.0317801
0.0320236
0.0322338
0.0324046
0.0325312
0.0326095
0.032637
0.0326126
0.0325367
0.0324112
0.0322397
0.032027
0.0317792
0.0315033
0.0312066
0.0308969
0.0305819
0.0302688
0.029964
0.0296732
0.0294007
0.0291502
0.0289237
0.0287225
0.0285467
0.0283958
0.0282685
0.0281628
0.0280768
0.0280079
0.027954
0.0279125
0.0278814
0.0278585
0.0278423
0.027831
0.0278239
0.027819
0.0278169
0.0278153
0.027816
0.0278158
0.0278191
0.0278199
0.0278273
0.0278297
0.0278455
0.0278508
0.0278811
0.0330007
0.0329991
0.032995
0.0329885
0.0329797
0.0329687
0.0329557
0.0329405
0.0329234
0.0329042
0.0328831
0.0328599
0.0328347
0.0328076
0.0327786
0.0327477
0.032715
0.0326804
0.0326438
0.0326054
0.0325648
0.0325219
0.0324765
0.0324281
0.0323763
0.0323205
0.03226
0.032194
0.0321216
0.0320417
0.0319533
0.0318552
0.0317465
0.0316259
0.0314926
0.0313458
0.0311848
0.0310096
0.0308201
0.030617
0.0304013
0.0301742
0.0299379
0.0296945
0.0294468
0.029198
0.0289515
0.0287109
0.0284801
0.0282628
0.028063
0.0278845
0.0277309
0.0276055
0.0275114
0.0274511
0.0274267
0.0274397
0.0274912
0.0275813
0.0277097
0.027875
0.0280753
0.0283079
0.0285692
0.0288549
0.0291599
0.0294786
0.0298046
0.0301312
0.0304514
0.0307578
0.0310433
0.0313008
0.0315239
0.0317067
0.0318445
0.0319335
0.0319715
0.0319578
0.031893
0.0317797
0.0316217
0.0314243
0.0311938
0.0309374
0.0306626
0.0303772
0.0300887
0.029804
0.0295292
0.0292695
0.0290288
0.02881
0.0286148
0.0284441
0.0282975
0.0281741
0.0280724
0.0279905
0.0279259
0.0278766
0.0278399
0.0278139
0.0277962
0.0277852
0.0277789
0.0277765
0.0277762
0.0277782
0.0277802
0.0277842
0.0277867
0.0277921
0.0277946
0.0278032
0.0278064
0.0278227
0.0278282
0.0278584
0.0330268
0.0330227
0.033018
0.03301
0.0330008
0.032989
0.0329758
0.0329602
0.0329431
0.0329237
0.0329026
0.0328794
0.0328543
0.0328271
0.0327981
0.0327671
0.0327342
0.0326993
0.0326624
0.0326233
0.0325817
0.0325375
0.0324901
0.032439
0.0323835
0.0323228
0.0322559
0.0321817
0.032099
0.0320063
0.0319024
0.0317858
0.031655
0.0315088
0.0313461
0.031166
0.0309681
0.0307521
0.0305184
0.0302678
0.0300017
0.0297219
0.0294308
0.0291311
0.0288262
0.0285195
0.0282149
0.0279165
0.0276286
0.0273554
0.027101
0.0268696
0.0266651
0.026491
0.0263506
0.0262468
0.0261818
0.0261574
0.0261747
0.0262344
0.0263362
0.0264792
0.0266618
0.0268817
0.0271356
0.0274198
0.0277295
0.0280596
0.028404
0.0287564
0.0291098
0.0294569
0.0297906
0.0301034
0.0303883
0.0306388
0.0308491
0.0310143
0.0311309
0.0311967
0.0312108
0.0311744
0.0310898
0.0309611
0.0307938
0.0305941
0.0303695
0.0301273
0.0298753
0.0296208
0.0293704
0.0291299
0.0289041
0.0286966
0.0285099
0.0283455
0.0282037
0.0280841
0.0279856
0.0279067
0.0278452
0.027799
0.0277658
0.0277435
0.0277298
0.0277229
0.0277209
0.0277227
0.0277265
0.0277323
0.0277379
0.027745
0.0277503
0.027758
0.0277623
0.0277722
0.0277764
0.0277929
0.0277987
0.0278282
0.0330551
0.0330484
0.033043
0.0330333
0.0330237
0.033011
0.0329977
0.0329817
0.0329645
0.032945
0.0329239
0.0329005
0.0328754
0.0328481
0.0328188
0.0327875
0.0327541
0.0327185
0.0326807
0.0326402
0.0325968
0.0325499
0.0324991
0.0324434
0.0323819
0.0323134
0.0322367
0.0321503
0.0320524
0.0319414
0.0318156
0.0316731
0.0315124
0.0313318
0.0311304
0.0309071
0.0306617
0.0303941
0.0301052
0.029796
0.0294685
0.0291249
0.0287681
0.0284015
0.0280288
0.0276542
0.027282
0.0269168
0.0265632
0.0262258
0.0259092
0.0256178
0.0253556
0.0251266
0.0249341
0.0247812
0.0246704
0.0246035
0.0245819
0.0246065
0.0246772
0.0247935
0.0249541
0.0251571
0.0253998
0.0256788
0.02599
0.0263288
0.0266896
0.0270665
0.027453
0.0278422
0.0282268
0.0285994
0.0289528
0.0292796
0.0295733
0.029828
0.0300385
0.030201
0.0303131
0.0303738
0.0303839
0.0303457
0.0302631
0.0301412
0.0299865
0.0298059
0.029607
0.0293972
0.0291836
0.0289728
0.0287703
0.0285807
0.0284075
0.0282528
0.028118
0.0280034
0.0279084
0.0278321
0.0277728
0.0277287
0.0276976
0.0276776
0.0276664
0.0276623
0.0276632
0.0276682
0.0276751
0.0276839
0.0276925
0.0277022
0.0277099
0.0277195
0.0277254
0.0277363
0.0277413
0.0277577
0.0277636
0.0277916
0.0330857
0.0330759
0.0330698
0.0330583
0.0330484
0.0330348
0.0330213
0.0330049
0.0329877
0.032968
0.0329467
0.0329231
0.0328978
0.0328701
0.0328403
0.0328083
0.0327739
0.032737
0.0326973
0.0326544
0.0326078
0.0325568
0.0325003
0.0324375
0.0323668
0.0322868
0.0321958
0.0320917
0.0319726
0.0318363
0.0316806
0.0315036
0.0313033
0.0310783
0.0308272
0.0305495
0.030245
0.0299141
0.029558
0.0291785
0.0287779
0.0283592
0.027926
0.0274821
0.0270321
0.0265806
0.0261324
0.0256928
0.0252667
0.0248591
0.024475
0.0241188
0.023795
0.0235075
0.0232599
0.0230551
0.0228959
0.0227841
0.0227212
0.0227082
0.0227453
0.0228321
0.0229678
0.0231508
0.0233788
0.023649
0.023958
0.0243016
0.0246752
0.0250733
0.0254901
0.0259192
0.0263538
0.0267867
0.0272105
0.0276177
0.0280012
0.028354
0.0286697
0.0289429
0.0291693
0.0293458
0.029471
0.029545
0.0295696
0.0295481
0.0294854
0.0293875
0.0292612
0.0291137
0.0289525
0.0287846
0.0286165
0.0284536
0.0283005
0.0281607
0.0280364
0.027929
0.0278388
0.0277655
0.0277081
0.0276652
0.0276351
0.0276161
0.027606
0.0276034
0.027606
0.0276128
0.0276218
0.0276328
0.0276436
0.0276554
0.027665
0.0276761
0.0276835
0.0276952
0.0277009
0.0277169
0.0277227
0.0277488
0.0331177
0.0331046
0.0330979
0.0330845
0.0330742
0.0330597
0.0330461
0.0330293
0.033012
0.032992
0.0329706
0.0329466
0.0329208
0.0328924
0.0328619
0.0328286
0.0327927
0.0327537
0.0327112
0.0326645
0.032613
0.0325556
0.032491
0.0324178
0.0323341
0.0322379
0.032127
0.0319991
0.0318514
0.0316816
0.0314872
0.0312658
0.0310155
0.0307348
0.0304226
0.0300786
0.029703
0.029297
0.0288621
0.0284008
0.0279163
0.0274122
0.0268929
0.0263631
0.0258278
0.0252925
0.0247625
0.0242435
0.0237409
0.02326
0.0228059
0.0223833
0.0219967
0.0216499
0.0213466
0.0210896
0.0208816
0.0207244
0.0206195
0.0205679
0.0205698
0.0206252
0.0207333
0.020893
0.0211025
0.0213594
0.021661
0.0220038
0.0223839
0.0227968
0.0232374
0.0237002
0.024179
0.0246672
0.0251578
0.0256436
0.0261171
0.0265707
0.0269973
0.0273899
0.0277426
0.0280501
0.0283085
0.0285153
0.0286697
0.0287727
0.0288267
0.0288358
0.0288056
0.0287426
0.0286537
0.0285463
0.0284275
0.0283038
0.0281811
0.0280639
0.027956
0.0278599
0.0277771
0.0277083
0.0276534
0.0276117
0.0275819
0.0275629
0.0275527
0.0275501
0.027553
0.0275604
0.0275702
0.0275822
0.0275941
0.0276071
0.0276179
0.02763
0.0276383
0.0276502
0.0276564
0.0276717
0.0276773
0.0277011
0.0331508
0.0331341
0.0331267
0.0331114
0.0331008
0.0330854
0.0330716
0.0330544
0.033037
0.0330166
0.0329949
0.0329704
0.0329439
0.0329145
0.0328826
0.0328475
0.0328092
0.0327669
0.0327202
0.0326681
0.0326095
0.032543
0.0324669
0.0323792
0.0322776
0.0321595
0.0320222
0.0318627
0.0316781
0.0314654
0.0312219
0.0309452
0.0306334
0.0302851
0.0298997
0.0294773
0.0290187
0.0285257
0.0280008
0.0274474
0.0268694
0.0262715
0.0256587
0.0250368
0.0244114
0.0237886
0.0231744
0.0225748
0.0219955
0.021442
0.0209195
0.0204326
0.0199858
0.0195827
0.0192267
0.0189206
0.0186666
0.0184666
0.0183217
0.018233
0.0182006
0.0182246
0.0183043
0.0184389
0.018627
0.0188667
0.0191558
0.0194917
0.0198713
0.0202908
0.0207463
0.0212332
0.0217463
0.02228
0.022828
0.0233838
0.0239402
0.0244897
0.0250247
0.0255375
0.0260206
0.026467
0.0268704
0.0272256
0.027529
0.0277782
0.0279728
0.0281142
0.0282057
0.0282518
0.0282587
0.0282332
0.0281826
0.0281144
0.0280353
0.0279515
0.0278683
0.0277896
0.0277186
0.0276572
0.0276064
0.0275666
0.0275372
0.0275176
0.0275065
0.0275027
0.0275047
0.0275113
0.0275207
0.0275326
0.0275446
0.0275577
0.0275689
0.0275812
0.0275899
0.0276017
0.0276081
0.0276223
0.0276277
0.027649
0.0331842
0.0331636
0.0331555
0.0331381
0.0331273
0.033111
0.0330972
0.0330795
0.0330619
0.0330411
0.0330189
0.0329936
0.032966
0.0329352
0.0329013
0.0328636
0.0328218
0.032775
0.0327224
0.0326626
0.0325942
0.0325152
0.0324235
0.0323164
0.0321911
0.0320444
0.031873
0.0316734
0.0314422
0.0311763
0.0308727
0.0305292
0.0301439
0.029716
0.0292453
0.0287328
0.02818
0.0275897
0.0269655
0.0263116
0.0256332
0.0249358
0.0242256
0.023509
0.0227925
0.0220826
0.0213859
0.0207086
0.0200565
0.0194352
0.0188496
0.0183043
0.0178032
0.0173498
0.016947
0.0165974
0.0163026
0.0160644
0.0158836
0.015761
0.0156966
0.0156906
0.0157422
0.0158509
0.0160155
0.0162346
0.0165066
0.0168294
0.0172007
0.0176178
0.0180777
0.0185768
0.0191113
0.0196767
0.0202679
0.0208794
0.021505
0.0221378
0.0227705
0.0233952
0.0240039
0.0245881
0.02514
0.0256517
0.0261166
0.0265291
0.0268852
0.0271828
0.0274217
0.0276039
0.0277331
0.0278149
0.027856
0.0278638
0.027846
0.0278103
0.0277634
0.0277113
0.0276587
0.0276093
0.0275657
0.0275295
0.0275012
0.0274812
0.0274686
0.027463
0.0274628
0.0274675
0.0274753
0.0274857
0.0274966
0.0275089
0.0275195
0.0275313
0.0275397
0.0275508
0.0275569
0.0275698
0.0275748
0.0275935
0.0332171
0.0331923
0.0331836
0.0331641
0.0331531
0.0331359
0.033122
0.0331038
0.033086
0.0330645
0.0330417
0.0330152
0.0329862
0.0329532
0.0329166
0.0328752
0.0328287
0.0327756
0.0327148
0.0326446
0.032563
0.0324675
0.0323552
0.032223
0.0320672
0.0318841
0.0316699
0.0314205
0.0311323
0.0308019
0.0304266
0.0300043
0.0295336
0.0290144
0.0284472
0.027834
0.0271775
0.0264816
0.0257511
0.0249916
0.0242092
0.0234106
0.022603
0.0217935
0.0209892
0.0201972
0.019424
0.0186761
0.0179592
0.0172784
0.0166386
0.0160438
0.0154974
0.0150024
0.0145613
0.0141759
0.0138478
0.0135779
0.013367
0.0132155
0.0131232
0.0130901
0.0131157
0.0131992
0.0133398
0.0135365
0.0137878
0.0140925
0.0144489
0.0148551
0.015309
0.0158083
0.0163502
0.0169317
0.017549
0.018198
0.0188739
0.019571
0.0202829
0.0210026
0.0217221
0.0224328
0.0231256
0.0237911
0.0244203
0.0250043
0.0255355
0.0260079
0.026417
0.0267608
0.0270397
0.0272564
0.0274158
0.0275244
0.0275902
0.0276214
0.0276264
0.0276132
0.0275884
0.0275581
0.0275265
0.0274971
0.0274718
0.0274521
0.0274382
0.0274302
0.0274273
0.0274291
0.027434
0.0274419
0.0274506
0.0274609
0.0274701
0.0274804
0.0274878
0.0274977
0.0275031
0.0275146
0.0275189
0.0275353
0.0332486
0.0332194
0.0332101
0.0331884
0.0331772
0.033159
0.0331452
0.0331264
0.0331083
0.0330859
0.0330621
0.033034
0.033003
0.0329672
0.0329269
0.0328805
0.0328275
0.032766
0.0326945
0.0326106
0.0325117
0.0323948
0.0322562
0.032092
0.0318981
0.0316699
0.0314032
0.0310936
0.0307374
0.0303312
0.0298725
0.0293597
0.0287924
0.0281711
0.0274978
0.0267755
0.0260083
0.0252017
0.0243616
0.023495
0.0226093
0.0217122
0.0208117
0.0199155
0.0190311
0.0181658
0.0173261
0.0165182
0.0157474
0.0150185
0.0143356
0.0137021
0.013121
0.0125945
0.0121245
0.0117122
0.0113587
0.0110645
0.01083
0.0106551
0.0105397
0.0104834
0.0104856
0.0105458
0.010663
0.0108365
0.0110653
0.0113484
0.0116847
0.0120731
0.0125123
0.0130009
0.0135372
0.0141196
0.0147457
0.0154128
0.0161178
0.0168567
0.0176246
0.0184159
0.0192236
0.0200399
0.0208558
0.0216614
0.0224459
0.0231985
0.0239083
0.0245651
0.0251602
0.0256868
0.0261406
0.02652
0.0268265
0.0270642
0.0272398
0.0273615
0.0274387
0.0274809
0.0274972
0.0274957
0.0274833
0.0274656
0.0274465
0.027429
0.0274146
0.0274044
0.0273982
0.0273963
0.0273975
0.0274018
0.0274073
0.0274146
0.0274213
0.0274293
0.027435
0.0274431
0.0274473
0.0274571
0.0274608
0.027475
0.0332776
0.0332437
0.0332338
0.0332099
0.0331987
0.0331795
0.0331656
0.033146
0.0331275
0.033104
0.0330788
0.0330487
0.0330149
0.0329753
0.03293
0.0328771
0.0328156
0.0327431
0.0326576
0.0325561
0.0324352
0.0322912
0.0321196
0.0319159
0.0316752
0.0313925
0.0310631
0.0306825
0.0302469
0.0297535
0.0292001
0.0285862
0.0279123
0.0271803
0.0263935
0.0255566
0.0246752
0.0237563
0.0228074
0.0218368
0.0208529
0.0198644
0.0188797
0.017907
0.016954
0.0160275
0.015134
0.0142789
0.0134672
0.0127027
0.0119889
0.0113286
0.0107237
0.010176
0.00968664
0.00925629
0.00888542
0.00857418
0.00832249
0.00813008
0.00799652
0.00792126
0.00790369
0.00794309
0.00803875
0.00818993
0.00839589
0.00865591
0.00896931
0.00933543
0.00975364
0.0102233
0.0107437
0.0113142
0.0119338
0.0126012
0.0133149
0.0140727
0.0148716
0.0157078
0.0165763
0.0174706
0.0183832
0.0193046
0.0202241
0.0211298
0.0220089
0.0228479
0.0236342
0.0243559
0.0250033
0.0255695
0.0260507
0.026447
0.0267618
0.0270018
0.027176
0.0272949
0.0273696
0.0274106
0.0274276
0.0274289
0.0274209
0.0274087
0.0273955
0.0273838
0.0273746
0.0273686
0.0273654
0.0273652
0.0273664
0.0273698
0.0273731
0.027378
0.0273812
0.027387
0.0273897
0.0273977
0.0274004
0.0274128
0.0333029
0.033264
0.0332536
0.0332274
0.0332161
0.0331959
0.033182
0.0331615
0.0331423
0.0331173
0.0330903
0.0330574
0.03302
0.0329755
0.0329237
0.0328623
0.0327898
0.0327033
0.0326001
0.0324763
0.0323281
0.0321505
0.0319386
0.0316871
0.0313903
0.0310431
0.0306404
0.0301778
0.029652
0.0290605
0.0284025
0.0276783
0.0268901
0.0260412
0.0251369
0.0241834
0.0231882
0.0221598
0.0211073
0.0200399
0.0189671
0.017898
0.0168415
0.0158055
0.0147976
0.0138241
0.0128908
0.0120024
0.0111629
0.0103755
0.00964268
0.00896639
0.00834797
0.00778832
0.00728798
0.00684716
0.00646584
0.00614376
0.00588053
0.00567561
0.00552838
0.00543816
0.00540423
0.00542587
0.00550234
0.00563297
0.00581714
0.0060543
0.006344
0.00668591
0.00707981
0.00752559
0.00802325
0.00857286
0.00917447
0.00982809
0.0105335
0.0112902
0.0120971
0.0129524
0.0138532
0.0147955
0.0157735
0.0167798
0.0178049
0.0188375
0.0198642
0.0208702
0.0218397
0.0227568
0.0236064
0.0243756
0.0250543
0.0256365
0.0261206
0.0265093
0.0268095
0.0270312
0.0271865
0.0272881
0.0273485
0.0273791
0.0273895
0.0273873
0.0273784
0.0273668
0.0273551
0.0273451
0.0273371
0.0273317
0.027328
0.0273265
0.0273255
0.0273266
0.0273266
0.0273296
0.0273303
0.0273363
0.0273381
0.0273489
0.0333231
0.0332791
0.0332681
0.0332395
0.0332283
0.033207
0.0331929
0.0331714
0.0331511
0.0331242
0.0330948
0.0330583
0.0330163
0.0329654
0.0329054
0.0328331
0.0327468
0.0326427
0.0325174
0.0323662
0.0321843
0.0319661
0.0317058
0.0313975
0.0310351
0.0306131
0.0301266
0.0295716
0.0289453
0.0282464
0.0274754
0.0266342
0.0257266
0.0247582
0.0237358
0.0226678
0.0215634
0.0204325
0.0192854
0.0181324
0.0169832
0.0158474
0.0147335
0.0136492
0.0126013
0.0115953
0.0106362
0.00972764
0.00887273
0.00807371
0.0073322
0.00664929
0.00602563
0.0054615
0.00495689
0.00451157
0.00412513
0.00379702
0.00352662
0.00331319
0.003156
0.00305426
0.00300719
0.00301402
0.00307404
0.00318658
0.00335106
0.00356702
0.00383412
0.00415218
0.0045212
0.00494139
0.00541312
0.00593698
0.0065137
0.00714415
0.00782921
0.00856968
0.00936608
0.0102185
0.0111263
0.0120878
0.0130998
0.0141575
0.0152538
0.0163795
0.0175223
0.0186679
0.0197993
0.0208981
0.0219452
0.0229219
0.0238115
0.0246007
0.0252808
0.0258486
0.0263061
0.0266607
0.0269237
0.0271089
0.0272312
0.0273054
0.0273443
0.0273594
0.0273592
0.0273506
0.0273379
0.0273243
0.0273114
0.0273005
0.0272911
0.0272842
0.0272781
0.0272746
0.0272709
0.0272706
0.0272689
0.0272728
0.0272735
0.0272833
0.0333366
0.0332873
0.0332758
0.0332449
0.0332337
0.0332112
0.0331967
0.0331739
0.0331522
0.0331229
0.0330903
0.0330493
0.0330012
0.0329423
0.0328719
0.0327862
0.0326827
0.0325569
0.0324045
0.0322201
0.0319978
0.0317313
0.0314142
0.0310397
0.0306019
0.0300952
0.0295149
0.0288578
0.0281224
0.0273086
0.0264187
0.0254566
0.0244281
0.0233409
0.0222041
0.0210276
0.0198224
0.0185997
0.0173706
0.0161457
0.0149351
0.0137479
0.012592
0.0114745
0.010401
0.00937616
0.00840377
0.00748655
0.00662649
0.00582493
0.00508267
0.00440007
0.00377716
0.00321371
0.0027093
0.00226336
0.00187524
0.00154419
0.00126944
0.00105019
0.000885613
0.000774897
0.000717238
0.000711865
0.000758051
0.000855137
0.00100255
0.00119984
0.00144669
0.00174297
0.00208873
0.00248428
0.00293017
0.0034272
0.00397649
0.00457937
0.00523741
0.00595231
0.00672581
0.00755948
0.00845454
0.0094115
0.0104299
0.0115076
0.0126408
0.0138231
0.0150452
0.0162947
0.0175558
0.0188097
0.0200351
0.0212096
0.0223105
0.0233172
0.0242129
0.024986
0.0256315
0.026151
0.0265527
0.0268494
0.0270572
0.0271936
0.0272753
0.0273177
0.0273331
0.0273316
0.0273202
0.0273044
0.027287
0.0272704
0.0272549
0.027242
0.0272303
0.0272217
0.0272136
0.0272096
0.0272051
0.0272069
0.0272064
0.0272154
0.0333419
0.033287
0.0332752
0.0332418
0.0332306
0.0332068
0.0331918
0.0331673
0.0331437
0.0331112
0.0330746
0.0330278
0.0329723
0.0329035
0.0328202
0.0327179
0.0325934
0.0324413
0.0322565
0.0320323
0.0317624
0.0314396
0.0310567
0.030607
0.0300843
0.0294833
0.0288002
0.0280331
0.0271817
0.026248
0.0252362
0.0241526
0.0230053
0.0218041
0.02056
0.0192848
0.0179907
0.0166896
0.0153932
0.0141119
0.0128555
0.0116323
0.0104493
0.00931248
0.00822628
0.00719424
0.00621886
0.00530186
0.00444427
0.00364658
0.00290887
0.00223092
0.00161228
0.00105237
0.000550471
0.000105841
-0.000282319
-0.000614818
-0.000892473
-0.0011161
-0.00128651
-0.00140449
-0.00147084
-0.0014863
-0.00145158
-0.00136734
-0.00123417
-0.00105254
-0.00082279
-0.000545115
-0.000219495
0.000154326
0.000576876
0.00104899
0.00157184
0.00214694
0.00277615
0.00346167
0.00420592
0.0050115
0.00588096
0.0068166
0.00782013
0.00889225
0.0100322
0.0112369
0.0125009
0.0138153
0.0151671
0.0165396
0.0179121
0.0192604
0.0205582
0.0217789
0.0228977
0.0238939
0.024753
0.0254684
0.0260415
0.0264814
0.0268032
0.0270257
0.027169
0.0272524
0.0272931
0.027305
0.027299
0.027283
0.0272621
0.0272401
0.0272184
0.027199
0.0271812
0.027167
0.027154
0.027146
0.0271384
0.027138
0.0271361
0.0271446
0.0333371
0.0332766
0.0332643
0.0332284
0.0332172
0.0331919
0.0331761
0.0331494
0.0331234
0.033087
0.0330453
0.0329914
0.0329266
0.0328456
0.0327466
0.0326243
0.0324747
0.0322912
0.0320679
0.0317974
0.0314723
0.0310848
0.0306275
0.0300935
0.0294769
0.0287733
0.0279801
0.0270967
0.0261251
0.0250693
0.0239359
0.0227337
0.0214732
0.0201662
0.0188255
0.0174642
0.0160953
0.0147311
0.0133829
0.012061
0.0107739
0.0095291
0.00833228
0.00718798
0.00609949
0.00506908
0.00409813
0.00318738
0.00233699
0.00154679
0.000816288
0.000144839
-0.000468312
-0.00102397
-0.00152298
-0.00196614
-0.00235426
-0.00268814
-0.00296854
-0.0031962
-0.00337187
-0.00349627
-0.00357012
-0.00359412
-0.00356895
-0.00349526
-0.00337363
-0.00320459
-0.00298855
-0.00272579
-0.00241639
-0.00206024
-0.00165696
-0.00120586
-0.00070589
-0.000155619
0.000446807
0.00110367
0.00181768
0.0025919
0.0034297
0.00433453
0.00530973
0.00635816
0.00748176
0.00868093
0.00995391
0.0112959
0.0126984
0.0141485
0.0156282
0.0171148
0.0185813
0.0199975
0.0213323
0.0225566
0.0236456
0.024582
0.0253576
0.0259742
0.0264423
0.0267797
0.0270083
0.0271513
0.0272305
0.027265
0.0272699
0.0272572
0.0272345
0.0272078
0.0271801
0.0271541
0.0271298
0.0271096
0.0270914
0.027079
0.027068
0.0270653
0.0270619
0.0270702
0.0333202
0.033254
0.0332414
0.0332029
0.0331916
0.0331645
0.0331476
0.0331183
0.0330891
0.0330479
0.0329998
0.0329373
0.0328612
0.0327654
0.0326476
0.0325014
0.0323219
0.0321016
0.0318337
0.0315097
0.0311217
0.0306614
0.0301213
0.0294947
0.0287766
0.0279635
0.0270546
0.0260513
0.0249578
0.0237809
0.0225296
0.0212152
0.0198503
0.0184487
0.0170245
0.0155916
0.0141632