/*--------------------------------*- C++ -*----------------------------------*\
| =========                 |                                                 |
| \\      /  F ield         | OpenFOAM: The Open Source CFD Toolbox           |
|  \\    /   O peration     | Version:  2406                                  |
|   \\  /    A nd           | Website:  www.openfoam.com                      |
|    \\/     M anipulation  |                                                 |
\*---------------------------------------------------------------------------*/
FoamFile
{
    version     2.0;
    format      ascii;
    arch        "LSB;label=32;scalar=64";
    class       volVectorField;
    location    "37.2";
    object      U;
}
// * * * * * * * * * * * * * * * * * * * * * * * * * * * * * * * * * * * * * //

dimensions      [0 1 -1 0 0 0 0];

internalField   nonuniform List<vector> 
3600
(
(-2.5751e-06 -9.99959e-06 0)
(0.000503152 -0.000237643 0)
(0.00146848 -0.000354001 0)
(0.00254224 -0.000370257 0)
(0.00356069 -0.000303781 0)
(0.00430484 -0.000213756 0)
(0.00481555 -0.000130388 0)
(0.00506807 -7.67202e-05 0)
(0.00518803 -5.32787e-05 0)
(0.00518876 -5.06262e-05 0)
(0.00513421 -5.33051e-05 0)
(0.00497591 -4.63621e-05 0)
(0.00468728 -2.05123e-05 0)
(0.00417371 2.96879e-05 0)
(0.00336677 0.000105356 0)
(0.00216472 0.000208581 0)
(0.000488719 0.00034106 0)
(-0.00175445 0.000503108 0)
(-0.00463522 0.000686032 0)
(-0.00822053 0.000876843 0)
(-0.0125437 0.0010682 0)
(-0.0176018 0.00126718 0)
(-0.0233253 0.00148483 0)
(-0.0295739 0.00171892 0)
(-0.0361247 0.00194052 0)
(-0.0426811 0.00209991 0)
(-0.0488868 0.00214178 0)
(-0.0543544 0.00202286 0)
(-0.0586978 0.00172016 0)
(-0.0615617 0.00123393 0)
(-0.0626502 0.000584243 0)
(-0.0617453 -0.000191435 0)
(-0.0587289 -0.00104267 0)
(-0.0535928 -0.00190782 0)
(-0.046458 -0.00271826 0)
(-0.0375752 -0.0034013 0)
(-0.0273363 -0.00388714 0)
(-0.0162522 -0.00411564 0)
(-0.00494406 -0.00404693 0)
(0.00591911 -0.00367054 0)
(0.0156579 -0.00301387 0)
(0.0236843 -0.002145 0)
(0.0295449 -0.00116704 0)
(0.0330231 -0.0002042 0)
(0.0341301 0.000623602 0)
(0.0331483 0.00122542 0)
(0.0305221 0.00156393 0)
(0.026833 0.00165743 0)
(0.0226241 0.00156944 0)
(0.018395 0.00137557 0)
(0.0144543 0.00114328 0)
(0.0110233 0.000913412 0)
(0.00813297 0.000711007 0)
(0.00580894 0.000541388 0)
(0.00394154 0.000411599 0)
(0.00249989 0.000308913 0)
(0.00136222 0.000231055 0)
(0.000545345 0.000135102 0)
(4.33421e-05 2.73643e-05 0)
(-9.17071e-05 -9.87594e-05 0)
(0.000200184 -0.000483369 0)
(0.00145554 -0.00149196 0)
(0.00346092 -0.00197021 0)
(0.00556595 -0.00198768 0)
(0.00750508 -0.00163987 0)
(0.00889313 -0.00114195 0)
(0.00974943 -0.000640798 0)
(0.010004 -0.000230417 0)
(0.00980681 7.253e-05 0)
(0.00914724 0.000314899 0)
(0.00806682 0.000565164 0)
(0.00643389 0.000901298 0)
(0.00412426 0.00137183 0)
(0.000909936 0.00201052 0)
(-0.00340679 0.00282366 0)
(-0.00905561 0.00381145 0)
(-0.0162096 0.00495418 0)
(-0.0250135 0.00622596 0)
(-0.0355037 0.00758611 0)
(-0.0475871 0.00898268 0)
(-0.0609806 0.010326 0)
(-0.0752321 0.0114883 0)
(-0.0897487 0.012316 0)
(-0.103875 0.0126691 0)
(-0.116957 0.0124421 0)
(-0.128408 0.011581 0)
(-0.137739 0.0100786 0)
(-0.144571 0.00797318 0)
(-0.14863 0.00533578 0)
(-0.149735 0.00226607 0)
(-0.147791 -0.00111734 0)
(-0.142778 -0.00467593 0)
(-0.134757 -0.00825642 0)
(-0.123869 -0.0116872 0)
(-0.110351 -0.0147843 0)
(-0.0945377 -0.017353 0)
(-0.0768831 -0.0192028 0)
(-0.0579487 -0.0201608 0)
(-0.038416 -0.0200997 0)
(-0.0190378 -0.0189597 0)
(-0.000630432 -0.0167781 0)
(0.0160224 -0.0137 0)
(0.0301903 -0.00998042 0)
(0.0413216 -0.0059594 0)
(0.049039 -0.00201772 0)
(0.0532578 0.00147881 0)
(0.0541177 0.0042447 0)
(0.0520699 0.00611647 0)
(0.047719 0.00708232 0)
(0.0418639 0.00725898 0)
(0.0352392 0.00685553 0)
(0.0285675 0.00609757 0)
(0.0222903 0.00519269 0)
(0.0167629 0.00427866 0)
(0.0120297 0.00345677 0)
(0.0081638 0.00273695 0)
(0.00501688 0.00212562 0)
(0.00263507 0.0014916 0)
(0.000938623 0.000833629 0)
(7.85867e-05 7.15895e-05 0)
(0.000325312 -0.00142082 0)
(0.00202093 -0.00353089 0)
(0.00459401 -0.00446568 0)
(0.00712801 -0.00437428 0)
(0.00931273 -0.00353003 0)
(0.0106765 -0.00232764 0)
(0.0112311 -0.00108468 0)
(0.0108648 2.97967e-05 0)
(0.00968899 0.000980935 0)
(0.00761681 0.00188336 0)
(0.00459063 0.00288753 0)
(0.000357525 0.00416761 0)
(-0.00533268 0.00582804 0)
(-0.0128192 0.00793495 0)
(-0.0223788 0.0104807 0)
(-0.0342551 0.0134249 0)
(-0.0485232 0.0166644 0)
(-0.0650517 0.0200429 0)
(-0.0834114 0.0233066 0)
(-0.10293 0.0261398 0)
(-0.122772 0.0282153 0)
(-0.14209 0.029284 0)
(-0.160124 0.0292005 0)
(-0.176271 0.0279327 0)
(-0.190093 0.0255247 0)
(-0.2013 0.022077 0)
(-0.209713 0.0177138 0)
(-0.215231 0.0125779 0)
(-0.217803 0.00681619 0)
(-0.217408 0.000586294 0)
(-0.214044 -0.0059476 0)
(-0.207724 -0.0126018 0)
(-0.198488 -0.0191737 0)
(-0.186406 -0.0254287 0)
(-0.17161 -0.0311054 0)
(-0.154298 -0.0359123 0)
(-0.13478 -0.0395492 0)
(-0.113471 -0.0417239 0)
(-0.0909276 -0.0421978 0)
(-0.0678143 -0.0408195 0)
(-0.0449116 -0.0375794 0)
(-0.0230293 -0.0326306 0)
(-0.00298815 -0.0263066 0)
(0.0145066 -0.0190884 0)
(0.0288618 -0.0115553 0)
(0.0397182 -0.00430763 0)
(0.0468817 0.00211113 0)
(0.050441 0.00727565 0)
(0.0506508 0.0109338 0)
(0.0480656 0.0130272 0)
(0.0433354 0.013699 0)
(0.0373041 0.0132416 0)
(0.0306723 0.0120362 0)
(0.0241409 0.0104423 0)
(0.0180539 0.00876574 0)
(0.0127491 0.00715591 0)
(0.00820191 0.00568162 0)
(0.00459415 0.00418178 0)
(0.00182758 0.00259147 0)
(0.000265662 0.000728523 0)
(0.00040474 -0.00255535 0)
(0.00233666 -0.0058422 0)
(0.00509781 -0.00711736 0)
(0.00755966 -0.00668349 0)
(0.00939812 -0.00509432 0)
(0.0101133 -0.00292618 0)
(0.00972452 -0.000666608 0)
(0.00807419 0.00148286 0)
(0.00518717 0.00350244 0)
(0.000844845 0.00560978 0)
(-0.00516759 0.00804933 0)
(-0.0132455 0.0110834 0)
(-0.0237407 0.0148366 0)
(-0.0370018 0.0193475 0)
(-0.0531805 0.0245042 0)
(-0.0721877 0.0300846 0)
(-0.0935546 0.0356898 0)
(-0.11649 0.0408158 0)
(-0.139993 0.0449317 0)
(-0.163078 0.0476383 0)
(-0.184913 0.0487081 0)
(-0.204899 0.0480966 0)
(-0.222655 0.0458742 0)
(-0.237964 0.0421896 0)
(-0.250723 0.0372133 0)
(-0.260894 0.0311265 0)
(-0.268471 0.0240955 0)
(-0.273454 0.0162814 0)
(-0.275841 0.00783157 0)
(-0.275612 -0.0011019 0)
(-0.272737 -0.0103624 0)
(-0.267169 -0.019766 0)
(-0.25886 -0.029099 0)
(-0.247766 -0.038096 0)
(-0.233876 -0.0464434 0)
(-0.217226 -0.0537687 0)
(-0.197946 -0.0596652 0)
(-0.176271 -0.0637084 0)
(-0.1526 -0.0655164 0)
(-0.127487 -0.0647981 0)
(-0.101666 -0.0614359 0)
(-0.0759831 -0.0555286 0)
(-0.0513667 -0.0474328 0)
(-0.0286819 -0.0377272 0)
(-0.00869094 -0.0271527 0)
(0.00808871 -0.0164977 0)
(0.0213171 -0.00650162 0)
(0.0309128 0.00222035 0)
(0.0368991 0.00921844 0)
(0.0395417 0.0142312 0)
(0.0391914 0.0172118 0)
(0.0364814 0.0183317 0)
(0.0320404 0.0179538 0)
(0.0266761 0.0165405 0)
(0.0209327 0.0145656 0)
(0.0154216 0.0123706 0)
(0.010321 0.0101468 0)
(0.00603138 0.00779351 0)
(0.00252637 0.00514564 0)
(0.00041928 0.00186031 0)
(0.000452876 -0.00388265 0)
(0.00245162 -0.00834894 0)
(0.00508497 -0.00976073 0)
(0.007063 -0.0086655 0)
(0.00805543 -0.00600044 0)
(0.007571 -0.00252908 0)
(0.00562968 0.00110242 0)
(0.00201809 0.00472043 0)
(-0.00336742 0.00836784 0)
(-0.010903 0.0124019 0)
(-0.0209627 0.0171504 0)
(-0.0340126 0.0229103 0)
(-0.0503455 0.029719 0)
(-0.070031 0.0374215 0)
(-0.0927103 0.0455651 0)
(-0.11761 0.0535086 0)
(-0.143634 0.0604916 0)
(-0.16964 0.0658813 0)
(-0.194653 0.0692584 0)
(-0.217981 0.0704743 0)
(-0.239203 0.0695587 0)
(-0.258099 0.0666756 0)
(-0.274587 0.062034 0)
(-0.288657 0.05587 0)
(-0.300346 0.0483991 0)
(-0.309701 0.0398242 0)
(-0.316777 0.0303141 0)
(-0.321611 0.0200235 0)
(-0.324231 0.00908401 0)
(-0.324633 -0.00236921 0)
(-0.322788 -0.0142001 0)
(-0.318628 -0.0262408 0)
(-0.312059 -0.0382896 0)
(-0.302949 -0.0500785 0)
(-0.291158 -0.0612731 0)
(-0.27654 -0.0714496 0)
(-0.259003 -0.0801139 0)
(-0.238527 -0.0867102 0)
(-0.215251 -0.0906849 0)
(-0.189499 -0.0915458 0)
(-0.16186 -0.0889756 0)
(-0.133159 -0.0829137 0)
(-0.104454 -0.0736493 0)
(-0.0768823 -0.0618159 0)
(-0.0515459 -0.0483372 0)
(-0.029283 -0.0342601 0)
(-0.0106378 -0.020592 0)
(0.0042289 -0.00815758 0)
(0.0153285 0.00243885 0)
(0.0228776 0.0108086 0)
(0.0270904 0.0167567 0)
(0.0283983 0.0203063 0)
(0.0272332 0.0216959 0)
(0.0242989 0.0213614 0)
(0.0201452 0.0198275 0)
(0.0155145 0.0175834 0)
(0.0107467 0.0149331 0)
(0.00645516 0.0118856 0)
(0.00275389 0.00816604 0)
(0.000466653 0.00326737 0)
(0.000485129 -0.00521717 0)
(0.00237696 -0.0106411 0)
(0.00452484 -0.0118203 0)
(0.00556807 -0.00964574 0)
(0.00519264 -0.00552354 0)
(0.00295682 -0.000386509 0)
(-0.00114899 0.0050112 0)
(-0.00741749 0.010605 0)
(-0.0161208 0.0165473 0)
(-0.0277708 0.0233277 0)
(-0.0428038 0.0312673 0)
(-0.0615311 0.0405291 0)
(-0.0838523 0.0508241 0)
(-0.109193 0.0615463 0)
(-0.1365 0.0717695 0)
(-0.164501 0.0805821 0)
(-0.191998 0.0872472 0)
(-0.218076 0.0913855 0)
(-0.242152 0.092889 0)
(-0.263904 0.0918813 0)
(-0.283205 0.0885833 0)
(-0.300036 0.0832841 0)
(-0.31446 0.076263 0)
(-0.326572 0.0677961 0)
(-0.336501 0.0581146 0)
(-0.344378 0.0474259 0)
(-0.350338 0.0358896 0)
(-0.354494 0.0236445 0)
(-0.356945 0.0107943 0)
(-0.357744 -0.00256077 0)
(-0.356908 -0.0163299 0)
(-0.354388 -0.0303949 0)
(-0.350083 -0.0446083 0)
(-0.343812 -0.0587515 0)
(-0.335336 -0.0725292 0)
(-0.324344 -0.0855298 0)
(-0.310508 -0.0972324 0)
(-0.293493 -0.106993 0)
(-0.273066 -0.114099 0)
(-0.249147 -0.117818 0)
(-0.221952 -0.117529 0)
(-0.192044 -0.112846 0)
(-0.160415 -0.103781 0)
(-0.128394 -0.0908309 0)
(-0.0975358 -0.0749924 0)
(-0.0692891 -0.0576045 0)
(-0.0447749 -0.040101 0)
(-0.0245183 -0.0237052 0)
(-0.00857864 -0.00928383 0)
(0.00336463 0.00266596 0)
(0.0116432 0.0118924 0)
(0.0166952 0.018351 0)
(0.0188596 0.022163 0)
(0.0187089 0.0236735 0)
(0.0167045 0.0233494 0)
(0.0135857 0.0217312 0)
(0.00977508 0.0191706 0)
(0.00602271 0.0157708 0)
(0.00259768 0.011153 0)
(0.000436675 0.00467921 0)
(0.000489098 -0.00655981 0)
(0.00205606 -0.0125745 0)
(0.00333007 -0.013044 0)
(0.00299754 -0.00931767 0)
(0.000774218 -0.00331843 0)
(-0.00370873 0.00390215 0)
(-0.0105403 0.0115558 0)
(-0.0201035 0.0197565 0)
(-0.0328244 0.0287652 0)
(-0.049215 0.0391045 0)
(-0.0695331 0.0508803 0)
(-0.0936012 0.0638483 0)
(-0.120659 0.0771632 0)
(-0.149472 0.0897519 0)
(-0.178646 0.10049 0)
(-0.206943 0.108608 0)
(-0.233484 0.113689 0)
(-0.257718 0.115694 0)
(-0.279376 0.114776 0)
(-0.298356 0.111237 0)
(-0.314691 0.105409 0)
(-0.328489 0.0976561 0)
(-0.339929 0.0883035 0)
(-0.349215 0.0776609 0)
(-0.356587 0.0659747 0)
(-0.362268 0.0534575 0)
(-0.366485 0.040257 0)
(-0.369424 0.026491 0)
(-0.371251 0.0122282 0)
(-0.372075 -0.00247393 0)
(-0.371964 -0.01758 0)
(-0.370916 -0.0330356 0)
(-0.368864 -0.04877 0)
(-0.365643 -0.0646483 0)
(-0.361 -0.0804651 0)
(-0.354553 -0.0958908 0)
(-0.345826 -0.110463 0)
(-0.334236 -0.123546 0)
(-0.319178 -0.134353 0)
(-0.300089 -0.141965 0)
(-0.276612 -0.145443 0)
(-0.248731 -0.143962 0)
(-0.216969 -0.137028 0)
(-0.18245 -0.124675 0)
(-0.14691 -0.107641 0)
(-0.112427 -0.0873446 0)
(-0.0810552 -0.0656817 0)
(-0.0542665 -0.0445641 0)
(-0.032716 -0.0254975 0)
(-0.0161954 -0.00933262 0)
(-0.00413841 0.00359495 0)
(0.00416589 0.0132883 0)
(0.0092194 0.0198755 0)
(0.0116047 0.023671 0)
(0.0117399 0.0250641 0)
(0.01031 0.0245782 0)
(0.00776448 0.0225433 0)
(0.00490023 0.0191065 0)
(0.0021124 0.0138054 0)
(0.000337387 0.00592707 0)
(0.000441506 -0.0076775 0)
(0.00139283 -0.0136726 0)
(0.00134701 -0.0128427 0)
(-0.000812161 -0.00706386 0)
(-0.00534289 0.00124037 0)
(-0.0125284 0.0109856 0)
(-0.0225875 0.0214321 0)
(-0.0359586 0.0328902 0)
(-0.0531148 0.045628 0)
(-0.0743165 0.0599735 0)
(-0.0993516 0.0755362 0)
(-0.127349 0.0914745 0)
(-0.156975 0.106451 0)
(-0.186715 0.119252 0)
(-0.2153 0.128945 0)
(-0.2418 0.135132 0)
(-0.26568 0.137742 0)
(-0.286646 0.137006 0)
(-0.304632 0.133257 0)
(-0.319695 0.126936 0)
(-0.332029 0.118471 0)
(-0.341885 0.108302 0)
(-0.349589 0.0968002 0)
(-0.355457 0.0842979 0)
(-0.359824 0.0710387 0)
(-0.362976 0.0572181 0)
(-0.365183 0.0429518 0)
(-0.366657 0.0283211 0)
(-0.367589 0.0133503 0)
(-0.368106 -0.00194951 0)
(-0.368314 -0.0175982 0)
(-0.368254 -0.0336044 0)
(-0.367925 -0.0499767 0)
(-0.367235 -0.0666768 0)
(-0.366008 -0.0836179 0)
(-0.363927 -0.100606 0)
(-0.360531 -0.117324 0)
(-0.355173 -0.13326 0)
(-0.347048 -0.147702 0)
(-0.335222 -0.159697 0)
(-0.318768 -0.168111 0)
(-0.296922 -0.171717 0)
(-0.26936 -0.169413 0)
(-0.23643 -0.160479 0)
(-0.199387 -0.144912 0)
(-0.160375 -0.123654 0)
(-0.122188 -0.0986424 0)
(-0.0876029 -0.0724501 0)
(-0.0586722 -0.0476408 0)
(-0.0361107 -0.0260225 0)
(-0.0195066 -0.00842043 0)
(-0.00781385 0.00514153 0)
(-9.26346e-05 0.0149247 0)
(0.00450757 0.0213591 0)
(0.00653449 0.0248386 0)
(0.00667795 0.025868 0)
(0.00541821 0.0247248 0)
(0.00354139 0.0215498 0)
(0.00152724 0.0158306 0)
(0.000225018 0.00684877 0)
(0.000318306 -0.00845211 0)
(0.000319647 -0.0136577 0)
(-0.00148177 -0.0109058 0)
(-0.00585028 -0.00260421 0)
(-0.0130502 0.00841909 0)
(-0.0232725 0.0211465 0)
(-0.0368843 0.034935 0)
(-0.0542633 0.0502049 0)
(-0.0757317 0.0670136 0)
(-0.101029 0.0852134 0)
(-0.129338 0.103752 0)
(-0.159203 0.121283 0)
(-0.189088 0.136311 0)
(-0.217583 0.147844 0)
(-0.243744 0.155329 0)
(-0.266942 0.158739 0)
(-0.286907 0.158282 0)
(-0.303547 0.154404 0)
(-0.317011 0.147603 0)
(-0.327544 0.138451 0)
(-0.335533 0.127464 0)
(-0.34137 0.115133 0)
(-0.345493 0.101838 0)
(-0.34827 0.0878974 0)
(-0.350062 0.0735177 0)
(-0.351136 0.0588521 0)
(-0.351742 0.0439694 0)
(-0.352049 0.0289104 0)
(-0.352219 0.0136609 0)
(-0.352358 -0.00179997 0)
(-0.352573 -0.0175256 0)
(-0.352926 -0.0335605 0)
(-0.353472 -0.0499624 0)
(-0.354209 -0.0667614 0)
(-0.355092 -0.0839699 0)
(-0.355957 -0.101531 0)
(-0.356521 -0.119302 0)
(-0.356287 -0.136986 0)
(-0.354536 -0.154083 0)
(-0.350269 -0.169814 0)
(-0.342272 -0.1831 0)
(-0.329199 -0.192559 0)
(-0.309837 -0.19664 0)
(-0.283406 -0.193846 0)
(-0.249994 -0.183131 0)
(-0.210871 -0.164336 0)
(-0.168641 -0.138609 0)
(-0.126879 -0.10848 0)
(-0.0893176 -0.0774299 0)
(-0.0586127 -0.0488127 0)
(-0.0356045 -0.0248269 0)
(-0.0194347 -0.00609767 0)
(-0.00866492 0.00768152 0)
(-0.00189716 0.0172169 0)
(0.00181113 0.0230879 0)
(0.00331846 0.0258807 0)
(0.0032061 0.0258632 0)
(0.00224923 0.0231597 0)
(0.000978434 0.0172575 0)
(0.000124953 0.00748098 0)
(9.00606e-05 -0.0085534 0)
(-0.0012272 -0.012011 0)
(-0.00518836 -0.00671695 0)
(-0.0120714 0.00452291 0)
(-0.0221982 0.0186438 0)
(-0.0356434 0.034768 0)
(-0.0528815 0.0523186 0)
(-0.0740441 0.0716259 0)
(-0.0991016 0.0922768 0)
(-0.127143 0.113476 0)
(-0.156864 0.133599 0)
(-0.186537 0.151104 0)
(-0.214762 0.164686 0)
(-0.240398 0.173749 0)
(-0.262831 0.178131 0)
(-0.281681 0.178125 0)
(-0.296945 0.174193 0)
(-0.308768 0.166995 0)
(-0.31755 0.157188 0)
(-0.323729 0.145452 0)
(-0.327847 0.132347 0)
(-0.330371 0.118361 0)
(-0.331765 0.103831 0)
(-0.332369 0.0890161 0)
(-0.332488 0.0740527 0)
(-0.332314 0.0590329 0)
(-0.332021 0.0439712 0)
(-0.331704 0.0288697 0)
(-0.331468 0.0136848 0)
(-0.331372 -0.00162098 0)
(-0.331499 -0.0171141 0)
(-0.331906 -0.0328488 0)
(-0.332677 -0.0488994 0)
(-0.333864 -0.0653249 0)
(-0.335528 -0.082192 0)
(-0.337661 -0.0995351 0)
(-0.340192 -0.117358 0)
(-0.34289 -0.135569 0)
(-0.345328 -0.153943 0)
(-0.346765 -0.172015 0)
(-0.34612 -0.189002 0)
(-0.341928 -0.20371 0)
(-0.332476 -0.21452 0)
(-0.316026 -0.219486 0)
(-0.291278 -0.216622 0)
(-0.257903 -0.204395 0)
(-0.217129 -0.182392 0)
(-0.171977 -0.151934 0)
(-0.12696 -0.116323 0)
(-0.086859 -0.0801708 0)
(-0.0550459 -0.0478677 0)
(-0.0322451 -0.0218718 0)
(-0.0171081 -0.00254418 0)
(-0.00760182 0.0110283 0)
(-0.00210552 0.019813 0)
(0.000659734 0.024676 0)
(0.00152062 0.0260083 0)
(0.0013115 0.0239721 0)
(0.000612887 0.0181176 0)
(7.04361e-05 0.00784946 0)
(-0.000251726 -0.00777354 0)
(-0.00321334 -0.00846591 0)
(-0.00962131 -9.62614e-05 0)
(-0.0191757 0.0143962 0)
(-0.0323108 0.0319143 0)
(-0.0489294 0.0517246 0)
(-0.0695185 0.0731959 0)
(-0.0937725 0.0963157 0)
(-0.121215 0.120027 0)
(-0.150355 0.142925 0)
(-0.179674 0.163088 0)
(-0.207467 0.179112 0)
(-0.232643 0.190073 0)
(-0.254342 0.195803 0)
(-0.272277 0.196499 0)
(-0.286334 0.192765 0)
(-0.296823 0.185319 0)
(-0.304139 0.175016 0)
(-0.308911 0.162627 0)
(-0.311693 0.148868 0)
(-0.313091 0.134266 0)
(-0.313538 0.119241 0)
(-0.313439 0.104035 0)
(-0.313025 0.0888167 0)
(-0.312504 0.0736418 0)
(-0.311957 0.0585414 0)
(-0.311478 0.0434859 0)
(-0.311081 0.0284531 0)
(-0.310819 0.0133879 0)
(-0.3107 -0.0017467 0)
(-0.310787 -0.0170103 0)
(-0.311112 -0.0324459 0)
(-0.311764 -0.0481176 0)
(-0.312813 -0.0640791 0)
(-0.314369 -0.0804054 0)
(-0.316512 -0.0971638 0)
(-0.319326 -0.114431 0)
(-0.322802 -0.132251 0)
(-0.32683 -0.150615 0)
(-0.331063 -0.169379 0)
(-0.334846 -0.188164 0)
(-0.337064 -0.206219 0)
(-0.336121 -0.222284 0)
(-0.329961 -0.234504 0)
(-0.316358 -0.240504 0)
(-0.293405 -0.237698 0)
(-0.260294 -0.223941 0)
(-0.218103 -0.198444 0)
(-0.170326 -0.162761 0)
(-0.122503 -0.121175 0)
(-0.0806403 -0.0798344 0)
(-0.0486688 -0.0442145 0)
(-0.0269695 -0.0169474 0)
(-0.0133953 0.00233215 0)
(-0.00550563 0.014997 0)
(-0.00132552 0.0224463 0)
(0.000429421 0.0254202 0)
(0.000799536 0.0242593 0)
(0.000460385 0.01866 0)
(6.32235e-05 0.00811901 0)
(-0.000712079 -0.00577559 0)
(-0.00558254 -0.00264518 0)
(-0.0145991 0.00922812 0)
(-0.0268403 0.027184 0)
(-0.0428833 0.0482867 0)
(-0.0623739 0.071863 0)
(-0.0857015 0.0970496 0)
(-0.11201 0.123282 0)
(-0.140431 0.148858 0)
(-0.169092 0.171968 0)
(-0.196542 0.190724 0)
(-0.221259 0.204068 0)
(-0.242519 0.21153 0)
(-0.259745 0.213353 0)
(-0.273005 0.210103 0)
(-0.28248 0.202689 0)
(-0.288792 0.19206 0)
(-0.292526 0.179197 0)
(-0.294438 0.164896 0)
(-0.295085 0.149818 0)
(-0.295024 0.134389 0)
(-0.29457 0.118907 0)
(-0.294014 0.1035 0)
(-0.293452 0.0882424 0)
(-0.292992 0.0731179 0)
(-0.29262 0.0581128 0)
(-0.292367 0.0431709 0)
(-0.29219 0.0282614 0)
(-0.292113 0.0133303 0)
(-0.292112 -0.00164911 0)
(-0.292231 -0.0167222 0)
(-0.292487 -0.0319139 0)
(-0.292958 -0.0472693 0)
(-0.293704 -0.0628238 0)
(-0.294846 -0.0786379 0)
(-0.296485 -0.0947744 0)
(-0.298769 -0.111325 0)
(-0.301807 -0.128387 0)
(-0.305692 -0.146066 0)
(-0.31039 -0.164426 0)
(-0.315684 -0.183423 0)
(-0.320997 -0.202777 0)
(-0.325277 -0.221796 0)
(-0.326832 -0.239168 0)
(-0.323358 -0.252806 0)
(-0.312151 -0.25985 0)
(-0.290717 -0.257022 0)
(-0.25771 -0.241422 0)
(-0.214073 -0.211846 0)
(-0.163841 -0.170188 0)
(-0.113799 -0.122174 0)
(-0.071223 -0.0758325 0)
(-0.0403443 -0.0378325 0)
(-0.0206297 -0.0102907 0)
(-0.00912713 0.00794089 0)
(-0.00297432 0.0189503 0)
(-0.000192567 0.0240996 0)
(0.00067875 0.0241393 0)
(0.000514856 0.0190269 0)
(0.000103377 0.00837585 0)
(-0.0012574 -0.00241121 0)
(-0.00815777 0.00549979 0)
(-0.0197613 0.0211424 0)
(-0.0345227 0.0426227 0)
(-0.0531641 0.0673117 0)
(-0.0749819 0.0944475 0)
(-0.100189 0.122774 0)
(-0.127375 0.151084 0)
(-0.155438 0.17718 0)
(-0.182351 0.199124 0)
(-0.206916 0.215306 0)
(-0.227868 0.225123 0)
(-0.24487 0.22857 0)
(-0.257649 0.226309 0)
(-0.266648 0.219268 0)
(-0.272318 0.208623 0)
(-0.275513 0.195467 0)
(-0.276889 0.180801 0)
(-0.277211 0.165341 0)
(-0.276922 0.149618 0)
(-0.276464 0.133909 0)
(-0.275992 0.118375 0)
(-0.275674 0.103038 0)
(-0.275488 0.0878963 0)
(-0.275467 0.0728875 0)
(-0.275531 0.0579757 0)
(-0.275681 0.0430989 0)
(-0.275845 0.0282315 0)
(-0.276036 0.0133315 0)
(-0.276213 -0.00161207 0)
(-0.276416 -0.0166264 0)
(-0.276644 -0.0317167 0)
(-0.276966 -0.0469069 0)
(-0.277423 -0.06221 0)
(-0.278121 -0.0776626 0)
(-0.27915 -0.0933059 0)
(-0.280662 -0.109214 0)
(-0.282796 -0.125484 0)
(-0.285734 -0.142252 0)
(-0.289609 -0.159674 0)
(-0.2945 -0.177902 0)
(-0.300278 -0.196995 0)
(-0.306488 -0.216781 0)
(-0.312121 -0.236632 0)
(-0.315447 -0.25518 0)
(-0.31393 -0.270069 0)
(-0.304444 -0.277895 0)
(-0.283921 -0.274562 0)
(-0.250521 -0.256337 0)
(-0.205142 -0.221597 0)
(-0.152585 -0.172958 0)
(-0.101137 -0.118143 0)
(-0.0593221 -0.067659 0)
(-0.030972 -0.0287043 0)
(-0.0140984 -0.00239502 0)
(-0.00497073 0.0137645 0)
(-0.000728346 0.0219972 0)
(0.000746968 0.0237533 0)
(0.000687513 0.0194146 0)
(0.000171284 0.00875629 0)
(-0.00185429 0.00249513 0)
(-0.0107813 0.0160475 0)
(-0.0248036 0.035591 0)
(-0.0417764 0.0605332 0)
(-0.0625368 0.0886326 0)
(-0.0859668 0.118862 0)
(-0.112088 0.149478 0)
(-0.139027 0.178667 0)
(-0.16564 0.203976 0)
(-0.189923 0.223588 0)
(-0.211039 0.236334 0)
(-0.228002 0.242099 0)
(-0.240881 0.241362 0)
(-0.249704 0.235191 0)
(-0.255263 0.224838 0)
(-0.258179 0.211648 0)
(-0.259419 0.19674 0)
(-0.259581 0.181021 0)
(-0.259338 0.165052 0)
(-0.258961 0.149191 0)
(-0.258752 0.133558 0)
(-0.258714 0.118199 0)
(-0.258924 0.103053 0)
(-0.259274 0.088075 0)
(-0.259764 0.073183 0)
(-0.260281 0.0583379 0)
(-0.260822 0.0434853 0)
(-0.261305 0.0286117 0)
(-0.261748 0.0136896 0)
(-0.262106 -0.00127724 0)
(-0.26242 -0.0163007 0)
(-0.262677 -0.0313716 0)
(-0.262941 -0.0464976 0)
(-0.263231 -0.0616752 0)
(-0.263635 -0.0769203 0)
(-0.264213 -0.0922512 0)
(-0.26509 -0.107713 0)
(-0.266383 -0.123377 0)
(-0.268276 -0.139356 0)
(-0.270951 -0.155818 0)
(-0.274624 -0.172974 0)
(-0.279433 -0.191066 0)
(-0.28537 -0.210259 0)
(-0.292065 -0.230494 0)
(-0.298561 -0.251182 0)
(-0.30306 -0.270858 0)
(-0.302792 -0.286811 0)
(-0.294217 -0.29496 0)
(-0.273732 -0.290275 0)
(-0.239131 -0.268099 0)
(-0.191494 -0.226637 0)
(-0.136797 -0.169787 0)
(-0.085149 -0.108376 0)
(-0.0459971 -0.0553669 0)
(-0.0216015 -0.0176806 0)
(-0.0081234 0.00594411 0)
(-0.00166072 0.0186758 0)
(0.000743947 0.022965 0)
(0.000873349 0.0198152 0)
(0.000248361 0.00927404 0)
(-0.00243282 0.008877 0)
(-0.0132067 0.0287329 0)
(-0.0293145 0.0521397 0)
(-0.0480517 0.0803086 0)
(-0.0703258 0.111422 0)
(-0.0945826 0.144045 0)
(-0.120693 0.175945 0)
(-0.146457 0.204832 0)
(-0.170861 0.22825 0)
(-0.192038 0.24468 0)
(-0.209556 0.253484 0)
(-0.222714 0.255042 0)
(-0.231985 0.250318 0)
(-0.237658 0.240741 0)
(-0.24078 0.227789 0)
(-0.242016 0.212845 0)
(-0.242328 0.19694 0)
(-0.24216 0.180798 0)
(-0.242045 0.16479 0)
(-0.24207 0.149095 0)
(-0.242416 0.133706 0)
(-0.242972 0.11858 0)
(-0.243762 0.103615 0)
(-0.244633 0.0887461 0)
(-0.245581 0.0738952 0)
(-0.246481 0.0590321 0)
(-0.247343 0.0441184 0)
(-0.248084 0.0291549 0)
(-0.248733 0.0141304 0)
(-0.249245 -0.000938901 0)
(-0.249664 -0.0160511 0)
(-0.249974 -0.0311863 0)
(-0.250232 -0.0463394 0)
(-0.250444 -0.0614964 0)
(-0.250685 -0.0766574 0)
(-0.250985 -0.0918251 0)
(-0.251441 -0.107019 0)
(-0.25213 -0.122282 0)
(-0.253196 -0.137687 0)
(-0.254794 -0.153365 0)
(-0.257155 -0.169506 0)
(-0.260517 -0.186392 0)
(-0.265113 -0.204345 0)
(-0.271021 -0.223662 0)
(-0.277963 -0.244378 0)
(-0.284999 -0.265936 0)
(-0.29021 -0.286676 0)
(-0.290543 -0.303387 0)
(-0.281984 -0.311114 0)
(-0.260487 -0.303698 0)
(-0.223643 -0.27563 0)
(-0.1732 -0.225331 0)
(-0.116855 -0.15928 0)
(-0.0669006 -0.0923876 0)
(-0.0326304 -0.0398285 0)
(-0.0131963 -0.00564842 0)
(-0.00348597 0.013533 0)
(0.000389287 0.0215358 0)
(0.000951867 0.0201752 0)
(0.000311601 0.00994176 0)
(-0.00294607 0.0166463 0)
(-0.0152802 0.0433321 0)
(-0.0330454 0.0704747 0)
(-0.053029 0.101544 0)
(-0.0761608 0.135155 0)
(-0.100484 0.169369 0)
(-0.125791 0.201542 0)
(-0.149708 0.229083 0)
(-0.171465 0.249755 0)
(-0.189402 0.262449 0)
(-0.203495 0.267107 0)
(-0.213318 0.264597 0)
(-0.219709 0.256336 0)
(-0.223131 0.244016 0)
(-0.224765 0.229219 0)
(-0.225207 0.213235 0)
(-0.225324 0.196921 0)
(-0.225365 0.18078 0)
(-0.225718 0.164993 0)
(-0.226315 0.149588 0)
(-0.227257 0.134471 0)
(-0.228359 0.119549 0)
(-0.229634 0.104708 0)
(-0.23091 0.0898846 0)
(-0.232198 0.0750154 0)
(-0.233374 0.0600843 0)
(-0.234467 0.0450702 0)
(-0.235395 0.0299862 0)
(-0.236201 0.0148344 0)
(-0.236837 -0.00035993 0)
(-0.237354 -0.0155845 0)
(-0.237731 -0.0308132 0)
(-0.238025 -0.046032 0)
(-0.238233 -0.0612219 0)
(-0.238419 -0.0763732 0)
(-0.238597 -0.0914811 0)
(-0.238842 -0.106549 0)
(-0.239193 -0.121599 0)
(-0.239753 -0.136669 0)
(-0.240623 -0.151847 0)
(-0.241983 -0.167265 0)
(-0.244051 -0.183161 0)
(-0.247122 -0.199855 0)
(-0.251488 -0.217786 0)
(-0.257316 -0.237354 0)
(-0.264399 -0.258713 0)
(-0.27176 -0.281257 0)
(-0.277307 -0.303019 0)
(-0.27756 -0.320047 0)
(-0.268037 -0.32621 0)
(-0.244249 -0.314073 0)
(-0.204029 -0.277378 0)
(-0.150376 -0.215919 0)
(-0.093612 -0.140334 0)
(-0.0480667 -0.0711171 0)
(-0.0206749 -0.0224843 0)
(-0.00657145 0.00566804 0)
(-0.000508296 0.0189763 0)
(0.000847184 0.0202536 0)
(0.00034923 0.0106649 0)
(-0.00332646 0.0254918 0)
(-0.0168055 0.0593288 0)
(-0.0357129 0.0899538 0)
(-0.0563811 0.123464 0)
(-0.0797234 0.158925 0)
(-0.103448 0.193876 0)
(-0.127356 0.225393 0)
(-0.149021 0.250761 0)
(-0.167991 0.268124 0)
(-0.18283 0.276846 0)
(-0.19391 0.277458 0)
(-0.201042 0.271281 0)
(-0.205348 0.260114 0)
(-0.207362 0.245782 0)
(-0.208286 0.229846 0)
(-0.208567 0.213405 0)
(-0.208938 0.197098 0)
(-0.209451 0.181202 0)
(-0.210382 0.165743 0)
(-0.211547 0.150637 0)
(-0.213011 0.135745 0)
(-0.214553 0.120952 0)
(-0.216197 0.106155 0)
(-0.217769 0.0913021 0)
(-0.219303 0.0763493 0)
(-0.220678 0.061294 0)
(-0.22194 0.046132 0)
(-0.22301 0.0308853 0)
(-0.223938 0.0155687 0)
(-0.224675 0.000213767 0)
(-0.225277 -0.0151572 0)
(-0.225717 -0.0305138 0)
(-0.226055 -0.0458336 0)
(-0.22628 -0.061095 0)
(-0.226455 -0.0762811 0)
(-0.226583 -0.0913852 0)
(-0.226727 -0.1064 0)
(-0.226904 -0.121341 0)
(-0.227187 -0.13622 0)
(-0.227629 -0.151098 0)
(-0.228352 -0.166048 0)
(-0.229506 -0.181244 0)
(-0.231341 -0.19693 0)
(-0.234177 -0.213529 0)
(-0.238369 -0.231553 0)
(-0.244166 -0.251563 0)
(-0.251369 -0.27376 0)
(-0.258939 -0.297435 0)
(-0.264423 -0.320084 0)
(-0.263887 -0.336668 0)
(-0.252193 -0.339544 0)
(-0.224739 -0.319761 0)
(-0.179998 -0.271086 0)
(-0.12341 -0.196202 0)
(-0.0685947 -0.113115 0)
(-0.0308731 -0.04638 0)
(-0.0111414 -0.00582219 0)
(-0.00205308 0.0147368 0)
(0.000528877 0.0198078 0)
(0.000355653 0.0113692 0)
(-0.00355031 0.0351113 0)
(-0.0177219 0.0763288 0)
(-0.037243 0.110177 0)
(-0.0580567 0.145665 0)
(-0.081029 0.182341 0)
(-0.103631 0.217262 0)
(-0.125737 0.247367 0)
(-0.144977 0.269975 0)
(-0.161229 0.283725 0)
(-0.173293 0.288477 0)
(-0.181882 0.28534 0)
(-0.186996 0.276024 0)
(-0.189938 0.262607 0)
(-0.191214 0.246916 0)
(-0.191967 0.230388 0)
(-0.192457 0.213873 0)
(-0.193276 0.197794 0)
(-0.194318 0.182225 0)
(-0.19578 0.167084 0)
(-0.19741 0.152216 0)
(-0.199267 0.137469 0)
(-0.201121 0.122729 0)
(-0.203017 0.107913 0)
(-0.204788 0.0929818 0)
(-0.20649 0.0779132 0)
(-0.208006 0.0627132 0)
(-0.209394 0.0473912 0)
(-0.210574 0.0319749 0)
(-0.211605 0.0164894 0)
(-0.212432 0.000969792 0)
(-0.213116 -0.0145527 0)
(-0.213624 -0.0300454 0)
(-0.214018 -0.0454781 0)
(-0.214283 -0.0608289 0)
(-0.214481 -0.0760744 0)
(-0.21461 -0.0912101 0)
(-0.214728 -0.106222 0)
(-0.214841 -0.121127 0)
(-0.215005 -0.135923 0)
(-0.215242 -0.150657 0)
(-0.215625 -0.165359 0)
(-0.216241 -0.180149 0)
(-0.217255 -0.195176 0)
(-0.218925 -0.210777 0)
(-0.221608 -0.227408 0)
(-0.225738 -0.245758 0)
(-0.231586 -0.266476 0)
(-0.238975 -0.289829 0)
(-0.246586 -0.314789 0)
(-0.25159 -0.337993 0)
(-0.249263 -0.352866 0)
(-0.234046 -0.349733 0)
(-0.201318 -0.318404 0)
(-0.151434 -0.253734 0)
(-0.0932375 -0.165028 0)
(-0.0445358 -0.0795198 0)
(-0.0171779 -0.0220876 0)
(-0.0043574 0.0081495 0)
(2.1019e-05 0.0184996 0)
(0.000328357 0.0119423 0)
(-0.003583 0.0450511 0)
(-0.0179455 0.0937097 0)
(-0.0375464 0.13046 0)
(-0.0580031 0.167404 0)
(-0.0801138 0.204654 0)
(-0.101214 0.238861 0)
(-0.1213 0.266977 0)
(-0.138127 0.286474 0)
(-0.151892 0.296549 0)
(-0.161609 0.29755 0)
(-0.168271 0.291123 0)
(-0.171993 0.279274 0)
(-0.174162 0.264243 0)
(-0.175185 0.247745 0)
(-0.176095 0.231031 0)
(-0.176968 0.214686 0)
(-0.178279 0.198936 0)
(-0.179801 0.183698 0)
(-0.181694 0.168823 0)
(-0.183672 0.154119 0)
(-0.185808 0.139446 0)
(-0.187875 0.124697 0)
(-0.189945 0.109816 0)
(-0.191856 0.0947725 0)
(-0.193682 0.0795626 0)
(-0.195307 0.0641976 0)
(-0.196799 0.0486987 0)
(-0.198074 0.0330966 0)
(-0.199196 0.0174262 0)
(-0.200107 0.00172528 0)
(-0.200867 -0.0139656 0)
(-0.201441 -0.0296118 0)
(-0.201891 -0.0451744 0)
(-0.202199 -0.0606316 0)
(-0.202427 -0.0759523 0)
(-0.202569 -0.0911357 0)
(-0.202685 -0.106162 0)
(-0.202777 -0.121054 0)
(-0.202893 -0.135802 0)
(-0.203042 -0.150457 0)
(-0.20327 -0.165021 0)
(-0.203616 -0.179587 0)
(-0.20417 -0.194224 0)
(-0.205099 -0.209172 0)
(-0.206671 -0.224756 0)
(-0.209321 -0.241612 0)
(-0.213499 -0.260521 0)
(-0.219573 -0.282328 0)
(-0.227155 -0.307182 0)
(-0.234672 -0.333492 0)
(-0.238464 -0.356523 0)
(-0.233182 -0.367436 0)
(-0.212652 -0.354345 0)
(-0.173341 -0.306225 0)
(-0.118491 -0.222399 0)
(-0.0622875 -0.12298 0)
(-0.0247492 -0.0448648 0)
(-0.00752943 -0.00130947 0)
(-0.000687019 0.0159481 0)
(0.000281838 0.0123299 0)
(-0.00343795 0.054939 0)
(-0.0175235 0.111071 0)
(-0.0367205 0.150479 0)
(-0.0563988 0.188447 0)
(-0.0772686 0.22575 0)
(-0.0966291 0.258743 0)
(-0.114621 0.284508 0)
(-0.12917 0.300759 0)
(-0.140749 0.307277 0)
(-0.148565 0.304868 0)
(-0.153809 0.295651 0)
(-0.156644 0.281831 0)
(-0.158458 0.265701 0)
(-0.15952 0.248785 0)
(-0.160736 0.232121 0)
(-0.162024 0.216038 0)
(-0.163767 0.200611 0)
(-0.165666 0.18564 0)
(-0.167869 0.170949 0)
(-0.170078 0.15633 0)
(-0.172393 0.141667 0)
(-0.174593 0.126864 0)
(-0.176773 0.111889 0)
(-0.178778 0.0967171 0)
(-0.180693 0.0813592 0)
(-0.182403 0.0658277 0)
(-0.18398 0.0501538 0)
(-0.18534 0.0343684 0)
(-0.186547 0.0185159 0)
(-0.187539 0.00263475 0)
(-0.18838 -0.013225 0)
(-0.189029 -0.0290283 0)
(-0.189548 -0.0447269 0)
(-0.189916 -0.0603006 0)
(-0.190195 -0.0757095 0)
(-0.190376 -0.0909576 0)
(-0.190519 -0.106017 0)
(-0.190623 -0.120921 0)
(-0.190738 -0.135652 0)
(-0.190868 -0.150272 0)
(-0.191045 -0.16477 0)
(-0.191286 -0.179233 0)
(-0.191629 -0.193675 0)
(-0.192165 -0.208269 0)
(-0.193051 -0.223195 0)
(-0.194628 -0.238956 0)
(-0.197328 -0.256241 0)