/*--------------------------------*- C++ -*----------------------------------*\
| =========                 |                                                 |
| \\      /  F ield         | OpenFOAM: The Open Source CFD Toolbox           |
|  \\    /   O peration     | Version:  2406                                  |
|   \\  /    A nd           | Website:  www.openfoam.com                      |
|    \\/     M anipulation  |                                                 |
\*---------------------------------------------------------------------------*/
FoamFile
{
    version     2.0;
    format      ascii;
    arch        "LSB;label=32;scalar=64";
    class       surfaceScalarField;
    location    "38.55";
    object      phi_0;
}
// * * * * * * * * * * * * * * * * * * * * * * * * * * * * * * * * * * * * * //

dimensions      [0 3 -1 0 0 0 0];

oriented        oriented;

internalField   nonuniform List<scalar> 
28560
(
-2.18355e-09
2.18493e-09
5.15538e-08
-5.37373e-08
1.76732e-07
-1.25178e-07
3.60569e-07
-1.83838e-07
5.85048e-07
-2.24479e-07
8.31434e-07
-2.46386e-07
1.08258e-06
-2.51146e-07
1.32407e-06
-2.41494e-07
1.54488e-06
-2.20809e-07
1.7376e-06
-1.92714e-07
1.89835e-06
-1.60755e-07
2.02647e-06
-1.28123e-07
2.1239e-06
-9.74306e-08
2.19448e-06
-7.0573e-08
2.24315e-06
-4.86684e-08
2.27523e-06
-3.2082e-08
2.29582e-06
-2.0591e-08
2.30892e-06
-1.30989e-08
2.31731e-06
-8.39229e-09
2.32231e-06
-5.00292e-09
2.32345e-06
-1.13194e-09
2.31936e-06
4.08731e-09
2.30713e-06
1.22321e-08
2.28284e-06
2.42862e-08
2.24203e-06
4.08129e-08
2.17986e-06
6.21629e-08
2.09135e-06
8.85121e-08
1.9714e-06
1.19948e-07
1.81486e-06
1.5654e-07
1.61648e-06
1.98384e-07
1.37087e-06
2.45609e-07
1.07252e-06
2.98353e-07
7.15792e-07
3.56725e-07
2.95033e-07
4.20759e-07
-1.95337e-07
4.9037e-07
-7.6066e-07
5.65323e-07
-1.40587e-06
6.45205e-07
-2.13527e-06
7.29409e-07
-2.9524e-06
8.17122e-07
-3.85972e-06
9.07325e-07
-4.85851e-06
9.98791e-07
-5.94862e-06
1.0901e-06
-7.12828e-06
1.17967e-06
-8.39402e-06
1.26574e-06
-9.74048e-06
1.34646e-06
-1.11604e-05
1.4199e-06
-1.26445e-05
1.48407e-06
-1.41815e-05
1.53702e-06
-1.57583e-05
1.57683e-06
-1.736e-05
1.60168e-06
-1.89699e-05
1.60987e-06
-2.05697e-05
1.59987e-06
-2.21401e-05
1.57035e-06
-2.36603e-05
1.52017e-06
-2.51087e-05
1.44847e-06
-2.64633e-05
1.35462e-06
-2.77016e-05
1.23831e-06
-2.88012e-05
1.09953e-06
-2.97398e-05
9.38657e-07
-3.04962e-05
7.56413e-07
-3.10509e-05
5.54656e-07
-3.1385e-05
3.34067e-07
-3.14783e-05
9.33249e-08
-3.13186e-05
-1.59732e-07
-3.0896e-05
-4.22526e-07
-3.02019e-05
-6.94096e-07
-2.92325e-05
-9.69493e-07
-2.79884e-05
-1.24407e-06
-2.64756e-05
-1.51279e-06
-2.47053e-05
-1.77028e-06
-2.26944e-05
-2.01095e-06
-2.04653e-05
-2.22907e-06
-1.80463e-05
-2.41903e-06
-1.54707e-05
-2.57553e-06
-1.2777e-05
-2.69379e-06
-1.00071e-05
-2.76981e-06
-7.20653e-06
-2.80061e-06
-4.4221e-06
-2.78443e-06
-1.7012e-06
-2.7209e-06
9.09959e-07
-2.61116e-06
3.36783e-06
-2.45787e-06
5.63305e-06
-2.26522e-06
7.67178e-06
-2.03873e-06
9.45685e-06
-1.78507e-06
1.09686e-05
-1.51179e-06
1.21956e-05
-1.22692e-06
1.31342e-05
-9.38646e-07
1.37891e-05
-6.54925e-07
1.41723e-05
-3.83162e-07
1.43031e-05
-1.30793e-07
1.42029e-05
1.00168e-07
1.38986e-05
3.04362e-07
1.34228e-05
4.75763e-07
1.28069e-05
6.15908e-07
1.20815e-05
7.25382e-07
1.12768e-05
8.04687e-07
1.04209e-05
8.55904e-07
9.53909e-06
8.8183e-07
8.65333e-06
8.85763e-07
7.78206e-06
8.71266e-07
6.94011e-06
8.41951e-07
6.13879e-06
8.01316e-07
5.38618e-06
7.5261e-07
4.68744e-06
6.98747e-07
4.04518e-06
6.42258e-07
3.45991e-06
5.85269e-07
2.9304e-06
5.29512e-07
2.45406e-06
4.76337e-07
2.02735e-06
4.26714e-07
1.64614e-06
3.81208e-07
1.30621e-06
3.39925e-07
1.0038e-06
3.02417e-07
7.36216e-07
2.6758e-07
5.02632e-07
2.33584e-07
3.04716e-07
1.97916e-07
1.4699e-07
1.57727e-07
3.62706e-08
1.10719e-07
-2.08187e-08
5.70893e-08
-2.46654e-08
3.84667e-09
-2.46654e-08
5.12326e-08
-4.90477e-08
2.45586e-07
-2.4809e-07
5.89527e-07
-4.69119e-07
1.05731e-06
-6.51626e-07
1.61206e-06
-7.79219e-07
2.21397e-06
-8.48298e-07
2.82528e-06
-8.62454e-07
3.41325e-06
-8.29471e-07
3.95202e-06
-7.59575e-07
4.42338e-06
-6.64072e-07
4.81686e-06
-5.54236e-07
5.12908e-06
-4.40347e-07
5.36259e-06
-3.30942e-07
5.52434e-06
-2.32314e-07
5.62394e-06
-1.48271e-07
5.672e-06
-8.01441e-08
5.67844e-06
-2.70285e-08
5.65141e-06
1.39313e-08
5.59591e-06
4.7101e-08
5.51357e-06
7.73428e-08
5.40246e-06
1.09976e-07
5.2567e-06
1.49844e-07
5.06772e-06
2.01218e-07
4.82461e-06
2.67396e-07
4.51478e-06
3.50641e-07
4.12461e-06
4.52337e-07
3.63989e-06
5.73232e-07
3.04615e-06
7.13683e-07
2.32882e-06
8.7387e-07
1.47329e-06
1.05391e-06
4.6502e-07
1.25388e-06
-7.10322e-07
1.4737e-06
-2.06662e-06
1.71302e-06
-3.61694e-06
1.97108e-06
-5.37313e-06
2.24657e-06
-7.3453e-06
2.53749e-06
-9.54124e-06
2.84115e-06
-1.19659e-05
3.15409e-06
-1.46209e-05
3.47211e-06
-1.75039e-05
3.79031e-06
-2.06083e-05
4.10315e-06
-2.39227e-05
4.40458e-06
-2.74312e-05
4.68814e-06
-3.11126e-05
4.94716e-06
-3.49411e-05
5.17492e-06
-3.8886e-05
5.36483e-06
-4.29125e-05
5.51059e-06
-4.69819e-05
5.60642e-06
-5.10522e-05
5.64713e-06
-5.50788e-05
5.62827e-06
-5.90152e-05
5.54626e-06
-6.28137e-05
5.39835e-06
-6.64261e-05
5.18277e-06
-6.98046e-05
4.89864e-06
-7.29021e-05
4.54603e-06
-7.56734e-05
4.1259e-06
-7.80752e-05
3.64014e-06
-8.00672e-05
3.09148e-06
-8.16122e-05
2.48362e-06
-8.26769e-05
1.82117e-06
-8.32319e-05
1.1096e-06
-8.3254e-05
3.56199e-07
-8.27256e-05
-4.35046e-07
-8.16311e-05
-1.25428e-06
-7.99638e-05
-2.08981e-06
-7.77248e-05
-2.93306e-06
-7.49214e-05
-3.77291e-06
-7.15684e-05
-4.59707e-06
-6.76886e-05
-5.39255e-06
-6.33131e-05
-6.14579e-06
-5.84812e-05
-6.84289e-06
-5.32404e-05
-7.46988e-06
-4.76463e-05
-8.01314e-06
-4.1762e-05
-8.45983e-06
-3.56574e-05
-8.79837e-06
-2.94082e-05
-9.01897e-06
-2.30947e-05
-9.1141e-06
-1.68002e-05
-9.07897e-06
-1.06091e-05
-8.91197e-06
-4.60536e-06
-8.6149e-06
1.12999e-06
-8.19322e-06
6.52077e-06
-7.656e-06
1.14978e-05
-7.01577e-06
1.60009e-05
-6.28818e-06
1.99806e-05
-5.49145e-06
2.33994e-05
-4.64579e-06
2.62334e-05
-3.77255e-06
2.84718e-05
-2.89341e-06
3.01183e-05
-2.02961e-06
3.11884e-05
-1.20093e-06
3.17125e-05
-4.23932e-07
3.17319e-05
2.8501e-07
3.12952e-05
9.12487e-07
3.04579e-05
1.45318e-06
2.92818e-05
1.90146e-06
2.78303e-05
2.25617e-06
2.61668e-05
2.51947e-06
2.43521e-05
2.69647e-06
2.24432e-05
2.79464e-06
2.04913e-05
2.82318e-06
1.85409e-05
2.79238e-06
1.66292e-05
2.71301e-06
1.4786e-05
2.59577e-06
1.3034e-05
2.45081e-06
1.13888e-05
2.28743e-06
9.8602e-06
2.11387e-06
8.45259e-06
1.93712e-06
7.16602e-06
1.76291e-06
5.99713e-06
1.5956e-06
4.94029e-06
1.43806e-06
3.98872e-06
1.2915e-06
3.13594e-06
1.15519e-06
2.37727e-06
1.02625e-06
1.71132e-06
8.99535e-07
1.14128e-06
7.67952e-07
6.75336e-07
6.23672e-07
3.25317e-07
4.60739e-07
1.02161e-07
2.80245e-07
6.9158e-09
9.9092e-08
-1.77496e-08
1.18298e-07
-1.67346e-07
4.56113e-07
-5.85906e-07
9.88681e-07
-1.00169e-06
1.67781e-06
-1.34075e-06
2.47521e-06
-1.57662e-06
3.32918e-06
-1.70227e-06
4.19007e-06
-1.72335e-06
5.0142e-06
-1.6536e-06
5.76638e-06
-1.51176e-06
6.42117e-06
-1.31886e-06
6.96306e-06
-1.09613e-06
7.38573e-06
-8.63019e-07
7.69061e-06
-6.3582e-07
7.8849e-06
-4.26607e-07
7.97938e-06
-2.42746e-07
7.98606e-06
-8.68201e-08
7.91606e-06
4.29687e-08
7.77787e-06
1.52121e-07
7.57595e-06
2.49022e-07
7.30978e-06
3.43513e-07
6.97377e-06
4.45981e-07
6.55736e-06
5.66252e-07
6.0458e-06
7.12778e-07
5.42103e-06
8.9217e-07
4.6626e-06
1.10907e-06
3.74857e-06
1.36637e-06
2.65622e-06
1.66558e-06
1.3626e-06
2.0073e-06
-1.55107e-07
2.39157e-06
-1.91921e-06
2.81801e-06
-3.95113e-06
3.28581e-06
-6.27095e-06
3.79352e-06
-8.89675e-06
4.33881e-06
-1.18439e-05
4.9182e-06
-1.51241e-05
5.52676e-06
-1.87446e-05
6.15805e-06
-2.27075e-05
6.80403e-06
-2.70085e-05
7.45511e-06
-3.16367e-05
8.10027e-06
-3.65737e-05
8.72733e-06
-4.17937e-05
9.3232e-06
-4.72635e-05
9.87431e-06
-5.29423e-05
1.0367e-05
-5.87829e-05
1.07878e-05
-6.47323e-05
1.11243e-05
-7.07324e-05
1.13649e-05
-7.67217e-05
1.14999e-05
-8.26363e-05
1.1521e-05
-8.8411e-05
1.14219e-05
-9.39812e-05
1.11985e-05
-9.92833e-05
1.08483e-05
-0.000104256
1.03712e-05
-0.000108842
9.76836e-06
-0.000112986
9.04293e-06
-0.000116639
8.19935e-06
-0.000119757
7.24342e-06
-0.000122299
6.18208e-06
-0.000124231
5.02334e-06
-0.000125523
3.77622e-06
-0.000126153
2.45074e-06
-0.000126101
1.05779e-06
-0.000125354
-3.90641e-07
-0.000123908
-1.88097e-06
-0.000121762
-3.40098e-06
-0.000118918
-4.93339e-06
-0.000115389
-6.46185e-06
-0.000111193
-7.96882e-06
-0.000106355
-9.43541e-06
-0.000100906
-1.08416e-05
-9.4885e-05
-1.21667e-05
-8.83386e-05
-1.33893e-05
-8.13205e-05
-1.4488e-05
-7.38916e-05
-1.5442e-05
-6.61201e-05
-1.62313e-05
-5.80809e-05
-1.68376e-05
-4.98546e-05
-1.72453e-05
-4.15269e-05
-1.74418e-05
-3.31875e-05
-1.74184e-05
-2.49283e-05
-1.71712e-05
-1.6842e-05
-1.67011e-05
-9.02042e-06
-1.60148e-05
-1.55211e-06
-1.51243e-05
5.47928e-06
-1.40472e-05
1.19971e-05
-1.2806e-05
1.79336e-05
-1.1428e-05
2.32317e-05
-9.9439e-06
2.78465e-05
-8.38732e-06
3.17463e-05
-6.79329e-06
3.49139e-05
-5.19719e-06
3.73464e-05
-3.63342e-06
3.9057e-05
-2.13451e-06
4.00727e-05
-7.30748e-07
4.04325e-05
5.52719e-07
4.01881e-05
1.6976e-06
3.94025e-05
2.68708e-06
3.81458e-05
3.51284e-06
3.64934e-05
4.17185e-06
3.45231e-05
4.6668e-06
3.23122e-05
5.00556e-06
2.9935e-05
5.20039e-06
2.74604e-05
5.26696e-06
2.49501e-05
5.22325e-06
2.24574e-05
5.08847e-06
2.00262e-05
4.88203e-06
1.7691e-05
4.62261e-06
1.54774e-05
4.32753e-06
1.34023e-05
4.01218e-06
1.14756e-05
3.68966e-06
9.70076e-06
3.37041e-06
8.07689e-06
3.06192e-06
6.60013e-06
2.76826e-06
5.26567e-06
2.48965e-06
4.06983e-06
2.22209e-06
3.012e-06
1.95737e-06
2.09619e-06
1.68376e-06
1.33158e-06
1.38828e-06
7.31321e-07
1.061e-06
3.08539e-07
7.03028e-07
6.92373e-08
3.38393e-07
5.14877e-08
1.73373e-07
-3.40719e-07
6.32364e-07
-1.0449e-06
1.32158e-06
-1.6909e-06
2.18565e-06
-2.20483e-06
3.16466e-06
-2.55563e-06
4.19762e-06
-2.73523e-06
5.22689e-06
-2.75261e-06
6.20192e-06
-2.62864e-06
7.08186e-06
-2.39169e-06
7.83681e-06
-2.07381e-06
8.44799e-06
-1.7073e-06
8.90681e-06
-1.32184e-06
9.21321e-06
-9.4222e-07
9.37339e-06
-5.86789e-07
9.39727e-06
-2.66621e-07
9.29586e-06
1.45922e-08
9.07875e-06
2.60074e-07
8.75208e-06
4.78793e-07
8.31701e-06
6.84093e-07
7.7687e-06
8.91817e-07
7.09616e-06
1.11853e-06
6.28255e-06
1.37986e-06
5.30611e-06
1.68922e-06
4.14124e-06
2.05704e-06
2.75972e-06
2.4906e-06
1.13184e-06
2.99425e-06
-7.72623e-07
3.57004e-06
-2.98358e-06
4.21826e-06
-5.52988e-06
4.93788e-06
-8.43861e-06
5.72674e-06
-1.17342e-05
6.58137e-06
-1.54374e-05
7.49669e-06
-1.95642e-05
8.46562e-06
-2.41246e-05
9.47865e-06
-2.91216e-05
1.05237e-05
-3.45495e-05
1.1586e-05
-4.03939e-05
1.26483e-05
-4.663e-05
1.36912e-05
-5.32231e-05
1.46934e-05
-6.01288e-05
1.5633e-05
-6.72929e-05
1.64873e-05
-7.46532e-05
1.72346e-05
-8.21406e-05
1.78544e-05
-8.96811e-05
1.83283e-05
-9.71974e-05
1.86405e-05
-0.000104611
1.87786e-05
-0.000111844
1.87333e-05
-0.000118822
1.84989e-05
-0.000125474
1.80731e-05
-0.000131732
1.74568e-05
-0.000137537
1.66533e-05
-0.000142834
1.56687e-05
-0.000147577
1.45108e-05
-0.000151723
1.3189e-05
-0.000155237
1.1714e-05
-0.000158092
1.00976e-05
-0.000160262
8.35199e-06
-0.000161729
6.4904e-06
-0.000162479
4.52648e-06
-0.000162503
2.47457e-06
-0.000161795
3.49783e-07
-0.000160353
-1.83229e-06
-0.00015818
-4.05428e-06
-0.000155282
-6.29854e-06
-0.00015167
-8.54543e-06
-0.000147358
-1.0774e-05
-0.000142365
-1.29618e-05
-0.000136716
-1.50849e-05
-0.000130439
-1.7118e-05
-0.000123572
-1.90343e-05
-0.000116154
-2.08065e-05
-0.000108236
-2.24064e-05
-9.98718e-05
-2.38062e-05
-9.1124e-05
-2.49792e-05
-8.20614e-05
-2.59002e-05
-7.27595e-05
-2.65472e-05
-6.32997e-05
-2.69016e-05
-5.3768e-05
-2.69501e-05
-4.42545e-05
-2.66847e-05
-3.48514e-05
-2.61042e-05
-2.56517e-05
-2.52145e-05
-1.67475e-05
-2.40285e-05
-8.2277e-06
-2.2567e-05
-1.76481e-07
-2.08572e-05
7.32858e-06
-1.8933e-05
1.42182e-05
-1.68335e-05
2.0433e-05
-1.46021e-05
2.59247e-05
-1.2285e-05
3.06573e-05
-9.92975e-06
3.4608e-05
-7.58414e-06
3.7768e-05
-5.29451e-06
4.01418e-05
-3.10461e-06
4.17483e-05
-1.05378e-06
4.26217e-05
8.24216e-07
4.28078e-05
2.50102e-06
4.23648e-05
3.95586e-06
4.1361e-05
5.17566e-06
3.98725e-05
6.1553e-06
3.79805e-05
6.89754e-06
3.57684e-05
7.41251e-06
3.33185e-05
7.7168e-06
3.07096e-05
7.83219e-06
2.80139e-05
7.78416e-06
2.52955e-05
7.60039e-06
2.2609e-05
7.30915e-06
1.99986e-05
6.93796e-06
1.74983e-05
6.51243e-06
1.51327e-05
6.0553e-06
1.29175e-05
5.58555e-06
1.08618e-05
5.11769e-06
8.96913e-06
4.6609e-06
7.24044e-06
4.21834e-06
5.67595e-06
3.78658e-06
4.27766e-06
3.35565e-06
3.05129e-06
2.91014e-06
2.00739e-06
2.43218e-06
1.16134e-06
1.90706e-06
5.31773e-07
1.33259e-06
1.38187e-07
7.31979e-07
1.89675e-07
2.15353e-07
-5.56072e-07
7.70063e-07
-1.59961e-06
1.5836e-06
-2.50444e-06
2.58235e-06
-3.20357e-06
3.69366e-06
-3.66694e-06
4.84749e-06
-3.88906e-06
5.97961e-06
-3.88473e-06
7.03466e-06
-3.68369e-06
7.96832e-06
-3.32535e-06
8.74831e-06
-2.8538e-06
9.35413e-06
-2.31312e-06
9.77587e-06
-1.74359e-06
1.00122e-05
-1.17854e-06
1.00677e-05
-6.42349e-07
9.95042e-06
-1.49294e-07
9.66842e-06
2.96594e-07
9.22771e-06
7.00788e-07
8.62976e-06
1.07674e-06
7.87006e-06
1.44379e-06
6.93728e-06
1.8246e-06
5.81317e-06
2.24264e-06
4.47326e-06
2.71978e-06
2.88792e-06
3.27455e-06
1.02388e-06
3.92108e-06
-1.15434e-06
4.66882e-06
-3.683e-06
5.52291e-06
-6.59781e-06
6.48485e-06
-9.93275e-06
7.55319e-06
-1.37188e-05
8.72394e-06
-1.79827e-05
9.99067e-06
-2.27455e-05
1.13442e-05
-2.8021e-05
1.27721e-05
-3.3814e-05
1.42586e-05
-4.0119e-05
1.57837e-05
-4.69191e-05
1.73238e-05
-5.41849e-05
1.88518e-05
-6.18741e-05
2.03376e-05
-6.99324e-05
2.17495e-05
-7.82939e-05
2.30549e-05
-8.6883e-05
2.42221e-05
-9.56168e-05
2.52211e-05
-0.000104407
2.60252e-05
-0.000113165
2.66116e-05
-0.000121799
2.69627e-05
-0.000130224
2.70658e-05
-0.000138359
2.69136e-05
-0.00014613
2.65037e-05
-0.000153469
2.58382e-05
-0.000160319
2.49234e-05
-0.000166631
2.37683e-05
-0.000172362
2.23846e-05
-0.000177479
2.07858e-05
-0.000181955
1.89864e-05
-0.000185768
1.70018e-05
-0.000188901
1.48476e-05
-0.000191343
1.25397e-05
-0.000193085
1.00938e-05
-0.000194121
7.52587e-06
-0.000194446
4.85178e-06
-0.000194059
2.08779e-06
-0.00019296
-7.4932e-07
-0.00019115
-3.64217e-06
-0.000188632
-6.57211e-06
-0.000185412
-9.51913e-06
-0.000181496
-1.24616e-05
-0.000176894
-1.53759e-05
-0.000171619
-1.82365e-05
-0.000165688
-2.10157e-05
-0.000159122
-2.36836e-05
-0.000151948
-2.62083e-05
-0.000144198
-2.85565e-05
-0.000135911
-3.06937e-05
-0.000127132
-3.2585e-05
-0.000117915
-3.41962e-05
-0.000108321
-3.54946e-05
-9.84173e-05
-3.64507e-05
-8.82801e-05
-3.70387e-05
-7.79913e-05
-3.72389e-05
-6.76378e-05
-3.70381e-05
-5.7311e-05
-3.64311e-05
-4.71043e-05
-3.54212e-05
-3.71116e-05
-3.40212e-05
-2.74254e-05
-3.22531e-05
-1.81348e-05
-3.01478e-05
-9.32343e-06
-2.77444e-05
-1.06816e-06
-2.50888e-05
6.56265e-06
-2.22329e-05
1.35102e-05
-1.92325e-05
1.9726e-05
-1.61456e-05
2.51731e-05
-1.30312e-05
2.9826e-05
-9.94736e-06
3.36712e-05
-6.94983e-06
3.67081e-05
-4.09071e-06
3.89493e-05
-1.41702e-06
4.04201e-05
1.03022e-06
4.11587e-05
3.21726e-06
4.12157e-05
5.11865e-06
4.0653e-05
6.71804e-06
3.95419e-05
8.00865e-06
3.7961e-05
8.99339e-06
3.59934e-05
9.68439e-06
3.37236e-05
1.0102e-05
3.12341e-05
1.02737e-05
2.86029e-05
1.02316e-05
2.59008e-05
1.00113e-05
2.31894e-05
9.64929e-06
2.05206e-05
9.18132e-06
1.79353e-05
8.64052e-06
1.5465e-05
8.0559e-06
1.31318e-05
7.45088e-06
1.09508e-05
6.84194e-06
8.93174e-06
6.23736e-06
7.0819e-06
5.63642e-06
5.40833e-06
5.02923e-06
3.92043e-06
4.39803e-06
2.63208e-06
3.72053e-06
1.56322e-06
2.97592e-06
7.412e-07
2.15461e-06
2.02657e-07
1.27052e-06
3.92332e-07
2.46735e-07
-8.02806e-07
8.74713e-07
-2.22759e-06
1.7831e-06
-3.41283e-06
2.88071e-06
-4.30118e-06
4.08167e-06
-4.8679e-06
5.3066e-06
-5.11399e-06
6.48502e-06
-5.06315e-06
7.55777e-06
-4.75643e-06
8.47849e-06
-4.24607e-06
9.21397e-06
-3.58928e-06
9.74332e-06
-2.84248e-06
1.00562e-05
-2.05648e-06
1.01504e-05
-1.27269e-06
1.00287e-05
-5.20648e-07
9.69605e-06
1.83319e-07
9.15654e-06
8.361e-07
8.41058e-06
1.44675e-06
7.45292e-06
2.03441e-06
6.27128e-06
2.62542e-06
4.84587e-06
3.25001e-06
3.14971e-06
3.9388e-06
1.1497e-06
4.71978e-06
-1.19177e-06
5.61603e-06
-3.91505e-06
6.64435e-06
-7.06128e-06
7.81505e-06
-1.06707e-05
9.1323e-06
-1.47807e-05
1.05949e-05
-1.94244e-05
1.21969e-05
-2.46287e-05
1.39282e-05
-3.04122e-05
1.57742e-05
-3.67835e-05
1.77155e-05
-4.37391e-05
1.97277e-05
-5.12617e-05
2.17812e-05
-5.93193e-05
2.38413e-05
-6.78646e-05
2.58691e-05
-7.68355e-05
2.78226e-05
-8.61562e-05
2.96583e-05
-9.57399e-05
3.13332e-05
-0.000105491
3.28064e-05
-0.000115311
3.40414e-05
-0.000125097
3.50072e-05
-0.000134751
3.56794e-05
-0.00014418
3.60409e-05
-0.000153299
3.6082e-05
-0.000162033
3.57997e-05
-0.000170317
3.51974e-05
-0.000178097
3.42835e-05
-0.000185329
3.30704e-05
-0.000191979
3.15736e-05
-0.000198022
2.98106e-05
-0.000203437
2.77999e-05
-0.000208212
2.55606e-05
-0.000212337
2.31116e-05
-0.000215807
2.04713e-05
-0.000218617
1.76577e-05
-0.000220765
1.46878e-05
-0.000222249
1.15783e-05
-0.000223069
8.34533e-06
-0.000223222
5.00478e-06
-0.000222707
1.57281e-06
-0.000221522
-1.93402e-06
-0.000219666
-5.49818e-06
-0.000217137
-9.10083e-06
-0.000213935
-1.27214e-05
-0.000210059
-1.63373e-05
-0.000205512
-1.99232e-05
-0.000200297
-2.34512e-05
-0.000194422
-2.68908e-05
-0.000187898
-3.0208e-05
-0.00018074
-3.33663e-05
-0.00017297
-3.63268e-05
-0.000164615
-3.90482e-05
-0.000155712
-4.14885e-05
-0.000146303
-4.36053e-05
-0.00013644
-4.53574e-05
-0.000126184
-4.67062e-05
-0.000115606
-4.76175e-05
-0.000104781
-4.80632e-05
-9.37968e-05
-4.80226e-05
-8.27433e-05
-4.74846e-05
-7.1716e-05
-4.64484e-05
-6.08128e-05
-4.49244e-05
-5.01313e-05
-4.29347e-05
-3.97666e-05
-4.05125e-05
-2.98093e-05
-3.77016e-05
-2.03436e-05
-3.45546e-05
-1.1445e-05
-3.11315e-05
-3.18007e-06
-2.74974e-05
4.39508e-06
-2.37208e-05
1.12347e-05
-1.98708e-05
1.73037e-05
-1.60164e-05
2.25776e-05
-1.22237e-05
2.70426e-05
-8.5557e-06
3.06957e-05
-5.07013e-06
3.35451e-05
-1.81913e-06
3.56102e-05
1.15213e-06
3.69224e-05
3.80646e-06
3.75247e-05
6.11573e-06
3.74715e-05
8.06183e-06
3.68276e-05
9.63734e-06
3.56662e-05
1.08458e-05
3.40667e-05
1.17015e-05
3.2112e-05
1.22284e-05
2.98848e-05
1.24588e-05
2.74649e-05
1.24311e-05
2.49265e-05
1.21877e-05
2.23355e-05
1.17723e-05
1.97487e-05
1.12273e-05
1.72127e-05
1.05918e-05
1.47646e-05
9.89898e-06
1.24326e-05
9.17392e-06
1.02381e-05
8.43192e-06
8.1976e-06
7.67691e-06
6.32582e-06
6.90101e-06
4.63835e-06
6.08551e-06
3.15477e-06
5.20411e-06
1.90195e-06
4.22874e-06
9.17889e-07
3.13866e-06
2.56785e-07
1.93163e-06
6.49117e-07
2.7067e-07
-1.07348e-06
9.53927e-07
-2.91084e-06
1.93147e-06
-4.39037e-06
3.09558e-06
-5.46529e-06
4.34721e-06
-6.11953e-06
5.59753e-06
-6.36431e-06
6.77011e-06
-6.23573e-06
7.8027e-06
-5.78902e-06
8.64794e-06
-5.09131e-06
9.27286e-06
-4.2142e-06
9.65721e-06
-3.22683e-06
9.79094e-06
-2.19021e-06
9.67109e-06
-1.15284e-06
9.29841e-06
-1.47972e-07
8.67406e-06
8.07668e-07
7.79649e-06
1.71367e-06
6.65891e-06
2.58433e-06
5.24747e-06
3.44585e-06
3.54037e-06
4.33252e-06
1.50795e-06
5.28243e-06
-8.86323e-07
6.33307e-06
-3.68413e-06
7.51759e-06
-6.93014e-06
8.86203e-06
-1.06696e-05
1.03838e-05
-1.49461e-05
1.20915e-05
-1.9799e-05
1.39853e-05
-2.52618e-05
1.60577e-05
-3.13592e-05
1.82943e-05
-3.81049e-05
2.06739e-05
-4.54995e-05
2.31688e-05
-5.35283e-05
2.57443e-05
-6.21594e-05
2.83589e-05
-7.13435e-05
3.09652e-05
-8.10134e-05
3.35113e-05
-9.10865e-05
3.59421e-05
-0.000101466
3.82026e-05
-0.000112048
4.02396e-05
-0.000122719
4.20049e-05
-0.00013337
4.34574e-05
-0.000143893
4.45642e-05
-0.000154188
4.53022e-05
-0.000164166
4.56576e-05
-0.000173751
4.56258e-05
-0.00018288
4.52102e-05
-0.000191501
4.44209e-05
-0.000199576
4.3273e-05
-0.000207078
4.17856e-05
-0.000213988
3.99801e-05
-0.000220293
3.78788e-05
-0.000225988
3.55047e-05
-0.000231068
3.288e-05
-0.000235533
3.00261e-05
-0.000239385
2.69634e-05
-0.000242624
2.37108e-05
-0.000245253
2.02858e-05
-0.00024727
1.67051e-05
-0.000248676
1.29842e-05
-0.000249468
9.1382e-06
-0.000249646
5.18185e-06
-0.000249203
1.13013e-06
-0.000248135
-3.00145e-06
-0.000246437
-7.19621e-06
-0.000244102
-1.14359e-05
-0.000241124
-1.57002e-05
-0.000237494
-1.99664e-05
-0.000233209
-2.42084e-05
-0.000228263
-2.83972e-05
-0.000222654
-3.24997e-05
-0.000216383
-3.64794e-05
-0.000209454
-4.02957e-05
-0.000201876
-4.39045e-05
-0.000193666
-4.72586e-05
-0.000184846
-5.03084e-05
-0.000175448
-5.30033e-05
-0.000165512
-5.52927e-05
-0.000155091
-5.71278e-05
-0.000144244
-5.84639e-05
-0.000133045
-5.92623e-05
-0.000121575
-5.94925e-05
-0.000109925
-5.91343e-05
-9.8194e-05
-5.81798e-05
-8.6484e-05
-5.66344e-05
-7.49007e-05
-5.45179e-05
-6.3549e-05
-5.18642e-05
-5.253e-05
-4.87206e-05
-4.19385e-05
-4.51461e-05
-3.18606e-05
-4.12094e-05
-2.2372e-05
-3.6986e-05
-1.3537e-05
-3.25557e-05
-5.40825e-06
-2.79996e-05
1.97318e-06
-2.33978e-05
8.57699e-06
-1.88276e-05
1.43829e-05
-1.43617e-05
1.93803e-05
-1.00674e-05
2.35672e-05
-6.00604e-06
2.6951e-05
-2.23173e-06
2.95486e-05
1.20885e-06
3.13868e-05
4.27756e-06
3.25029e-05
6.94577e-06
3.29448e-05
9.19539e-06
3.27709e-05
1.10197e-05
3.20485e-05
1.24239e-05
3.08522e-05
1.34247e-05
2.9261e-05
1.405e-05
2.73557e-05
1.43364e-05
2.52156e-05
1.43279e-05
2.29154e-05
1.40725e-05
2.05232e-05
1.36195e-05
1.80987e-05
1.30163e-05
1.56925e-05
1.23052e-05
1.33463e-05
1.15202e-05
1.10937e-05
1.06845e-05
8.9625e-06
9.8081e-06
6.97689e-06
8.88662e-06
5.16079e-06
7.9016e-06
3.54169e-06
6.82321e-06
2.1551e-06
5.61533e-06
1.05026e-06
4.2435e-06
2.97181e-07
2.68471e-06
9.46298e-07
2.8958e-07
-1.36306e-06
1.01383e-06
-3.63509e-06
2.03791e-06
-5.41445e-06
3.23833e-06
-6.66571e-06
4.50321e-06
-7.38441e-06
5.73463e-06
-7.59574e-06
6.85079e-06
-7.35189e-06
7.78718e-06
-6.72541e-06
8.49645e-06
-5.80059e-06
8.94686e-06
-4.66461e-06
9.11957e-06
-3.39954e-06
9.00522e-06
-2.07585e-06
8.60009e-06
-7.47704e-07
7.90225e-06
5.49868e-07
6.90799e-06
1.80193e-06
5.60877e-06
3.01289e-06
3.98896e-06
4.20415e-06
2.02456e-06
5.41025e-06
-3.16927e-07
6.67401e-06
-3.07557e-06
8.04107e-06
-6.29708e-06
9.55458e-06
-1.00302e-05
1.12508e-05
-1.4324e-05
1.31558e-05
-1.92245e-05
1.52843e-05
-2.4772e-05
1.76391e-05
-3.09987e-05
2.02119e-05
-3.79251e-05
2.29841e-05
-4.5558e-05
2.59272e-05
-5.38877e-05
2.90037e-05
-6.2886e-05
3.21671e-05
-7.25045e-05
3.53628e-05
-8.26751e-05
3.85295e-05
-9.33108e-05
4.1601e-05
-0.000104309
4.45095e-05
-0.000115556
4.71886e-05
-0.00012693
4.95766e-05
-0.00013831
5.16198e-05
-0.00014958
5.32747e-05
-0.000160631
5.45093e-05
-0.000171371
5.53038e-05
-0.000181718
5.56497e-05
-0.00019161
5.55488e-05
-0.000200996
5.50117e-05
-0.000209841
5.40554e-05
-0.000218122
5.27017e-05
-0.000225824
5.09753e-05
-0.000232941
4.89027e-05
-0.000239471
4.65104e-05
-0.000245417
4.38244e-05
-0.000250782
4.08696e-05
-0.000255571
3.76693e-05
-0.00025979
3.4245e-05
-0.000263443
3.06164e-05
-0.000266533
2.68015e-05
-0.000269065
2.28168e-05
-0.000271037
1.86775e-05
-0.00027245
1.43975e-05
-0.000273302
9.99043e-06
-0.00027359
5.46942e-06
-0.000273308
8.47844e-07
-0.000272449
-3.86029e-06
-0.000271005
-8.63982e-06
-0.000268967
-1.34738e-05
-0.000266324
-1.83432e-05
-0.000263065
-2.3226e-05
-0.000259176
-2.80968e-05
-0.000254647
-3.29264e-05
-0.000249466
-3.76812e-05
-0.000243622
-4.2323e-05
-0.000237109
-4.68087e-05
-0.000229923
-5.10906e-05
-0.000222065
-5.51163e-05
-0.000213544
-5.88298e-05
-0.000204375
-6.21722e-05
-0.000194584
-6.50835e-05
-0.000184208
-6.75038e-05
-0.000173296
-6.93762e-05
-0.000161909
-7.06491e-05
-0.000150123
-7.12789e-05
-0.000138025
-7.12329e-05
-0.000125713
-7.04918e-05
-0.000113295
-6.90518e-05
-0.000100887
-6.69264e-05
-8.86043e-05
-6.41466e-05
-7.65642e-05
-6.07607e-05
-6.48777e-05
-5.68326e-05
-5.36476e-05
-5.24395e-05
-4.29652e-05
-4.76684e-05
-3.29083e-05
-4.26126e-05
-2.35402e-05
-3.73677e-05
-1.49098e-05
-3.20282e-05
-7.05262e-06
-2.66848e-05
7.93921e-09
-2.14222e-05
6.25851e-06
-1.6318e-05
1.16944e-05
-1.1442e-05
1.63186e-05
-6.85594e-06
2.01412e-05
-2.61372e-06
2.31796e-05
1.23922e-06
2.54591e-05
4.66626e-06
2.7014e-05
7.64051e-06
2.78878e-05
1.01458e-05
2.81339e-05
1.21778e-05
2.78143e-05
1.37444e-05
2.69986e-05
1.48656e-05
2.57618e-05
1.55732e-05
2.41815e-05
1.59082e-05
2.23347e-05
1.59193e-05
2.02955e-05
1.56587e-05
1.81324e-05
1.51795e-05
1.59065e-05
1.45311e-05
1.36711e-05
1.37555e-05
1.14719e-05
1.28837e-05
9.34798e-06
1.19321e-05
7.33408e-06
1.09005e-05
5.46397e-06
9.77171e-06
3.77444e-06
8.51274e-06
2.31054e-06
7.07923e-06
1.13218e-06
5.42187e-06
3.22119e-07
3.49477e-06
1.26842e-06
3.04871e-07
-1.66793e-06
1.05794e-06
-4.38816e-06
2.10745e-06
-6.46396e-06
3.31453e-06
-7.87279e-06
4.55511e-06
-8.625e-06
5.723e-06
-8.76363e-06
6.732e-06
-8.3609e-06
7.5165e-06
-7.50991e-06
8.03024e-06
-6.31432e-06
8.24355e-06
-4.87792e-06
8.13955e-06
-3.29553e-06
7.70958e-06
-1.64589e-06
6.94873e-06
1.31458e-08
5.85145e-06
1.64715e-06
4.40788e-06
3.2455e-06
2.60103e-06
4.81975e-06
4.05042e-07
6.40013e-06
-2.21518e-06
8.03047e-06
-5.30309e-06
9.76192e-06
-8.90838e-06
1.16464e-05
-1.30839e-05
1.37301e-05
-1.78821e-05
1.60489e-05
-2.33512e-05
1.86249e-05
-2.9532e-05
2.1465e-05
-3.64538e-05
2.45609e-05
-4.4132e-05
2.78901e-05
-5.25647e-05
3.14167e-05
-6.17302e-05
3.50927e-05
-7.15853e-05
3.88587e-05
-8.20644e-05
4.26461e-05
-9.30803e-05
4.63787e-05
-0.000104527
4.99763e-05
-0.000116284
5.33582e-05
-0.000128223
5.64478e-05
-0.000140211
5.91767e-05
-0.000152121
6.14873e-05
-0.000163838
6.3336e-05
-0.000175257
6.46936e-05
-0.000186292
6.55449e-05
-0.000196876
6.5888e-05
-0.000206958
6.57315e-05
-0.000216502
6.50928e-05
-0.000225486
6.39956e-05
-0.000233898
6.24673e-05
-0.000241734
6.05377e-05
-0.000248996
5.82373e-05
-0.000255689
5.55961e-05
-0.000261822
5.26428e-05
-0.000267402
4.94044e-05
-0.000272438
4.59061e-05
-0.00027694
4.21708e-05
-0.000280914
3.82193e-05
-0.000284368
3.40704e-05
-0.000287308
2.97409e-05
-0.000289737
2.52459e-05
-0.000291658
2.05993e-05
-0.000293074
1.58135e-05
-0.000293984
1.09003e-05
-0.000294386
5.87113e-06
-0.000294276
7.37371e-07
-0.000293647
-4.489e-06
-0.000292492
-9.79504e-06
-0.000290799
-1.51661e-05
-0.000288557
-2.05853e-05
-0.000285751
-2.60327e-05
-0.000282362
-3.14851e-05
-0.000278374
-3.69147e-05
-0.000273766
-4.22891e-05
-0.000268519
-4.75705e-05
-0.000262612
-5.27154e-05
-0.000256028
-5.76741e-05
-0.000248753
-6.23913e-05
-0.000240777
-6.6806e-05
-0.000232097
-7.08525e-05
-0.000222718
-7.44618e-05
-0.000212659
-7.75632e-05
-0.000201948
-8.00867e-05
-0.000190632
-8.1966e-05
-0.000178769
-8.31413e-05
-0.000166439
-8.35635e-05
-0.000153733
-8.31969e-05
-0.000140762
-8.2023e-05
-0.000127646
-8.00429e-05
-0.000114514
-7.72789e-05
-0.000101499
-7.37752e-05
-8.87349e-05
-6.95967e-05
-7.63477e-05
-6.48267e-05
-6.44528e-05
-5.95632e-05
-5.3151e-05
-5.39145e-05
-4.2525e-05
-4.79936e-05
-3.26393e-05
-4.19139e-05
-2.35398e-05
-3.57843e-05
-1.52558e-05
-2.97061e-05
-7.80297e-06
-2.37709e-05
-1.18546e-06
-1.80595e-05
4.60087e-06
-1.26423e-05
9.56667e-06
-7.57953e-06
1.3728e-05
-2.92211e-06
1.71061e-05
1.28813e-06
1.97281e-05
5.0185e-06
2.16279e-05
8.24605e-06
2.28472e-05
1.09586e-05
2.34359e-05
1.31556e-05
2.34525e-05
1.48491e-05
2.29624e-05
1.60633e-05
2.20367e-05
1.68339e-05
2.07496e-05
1.72063e-05
1.91757e-05
1.72327e-05
1.73872e-05
1.69679e-05
1.54522e-05
1.64661e-05
1.34327e-05
1.5775e-05
1.13842e-05
1.49321e-05
9.35647e-06
1.39598e-05
7.39488e-06
1.28621e-05
5.5434e-06
1.16232e-05
3.84866e-06
1.02075e-05
2.36518e-06
8.56271e-06
1.16214e-06
6.62491e-06
3.31241e-07
4.32567e-06
1.59966e-06
3.1696e-07
-1.98489e-06
1.08702e-06
-5.15822e-06
2.14057e-06
-7.51751e-06
3.32365e-06
-9.05586e-06
4.50089e-06
-9.80224e-06
5.55912e-06
-9.82185e-06
6.40923e-06
-9.211e-06
6.98587e-06
-8.08656e-06
7.24504e-06
-6.57349e-06
7.1599e-06
-4.79279e-06
6.71568e-06
-2.8513e-06
5.9041e-06
-8.34319e-07
4.71817e-06
1.19908e-06
3.14745e-06
3.21787e-06
1.17451e-06
5.21843e-06
-1.2274e-06
7.22166e-06
-4.0952e-06
9.26793e-06
-7.47512e-06
1.14104e-05
-1.14204e-05
1.37072e-05
-1.59879e-05
1.62138e-05
-2.12333e-05
1.89756e-05
-2.72073e-05
2.20229e-05
-3.39502e-05
2.53679e-05
-4.14888e-05
2.90036e-05
-4.98322e-05
3.29043e-05
-5.89688e-05
3.70268e-05
-6.88644e-05
4.13123e-05
-7.94601e-05
4.56884e-05
-9.06729e-05
5.00716e-05
-0.000102398
5.43708e-05
-0.000114511
5.84917e-05
-0.000126876
6.23418e-05
-0.000139353
6.58355e-05
-0.000151804
6.88985e-05
-0.000164099
7.14716e-05
-0.000176124
7.35123e-05
-0.000187783
7.49951e-05
-0.000199
7.59106e-05
-0.000209718
7.62632e-05
-0.000219899
7.60681e-05
-0.000229516
7.53493e-05
-0.000238559
7.41358e-05
-0.000247024
7.24603e-05
-0.000254914
7.03568e-05
-0.000262235
6.78592e-05
-0.000268998
6.50007e-05
-0.000275215
6.18127e-05
-0.000280897
5.83247e-05
-0.000286057
5.45641e-05
-0.000290706
5.05556e-05
-0.000294857
4.63219e-05
-0.000298521
4.18832e-05
-0.000301708
3.72575e-05
-0.000304428
3.24607e-05
-0.000306689
2.75067e-05
-0.000308498
2.2408e-05
-0.00030986
1.71755e-05
-0.000310779
1.18191e-05
-0.000311256
6.34799e-06
-0.000311289
7.71156e-07
-0.000310876
-4.90195e-06
-0.00031001
-1.06614e-05
-0.00030868
-1.64957e-05
-0.000306875
-2.23911e-05
-0.000304576
-2.83312e-05
-0.000301765
-3.42961e-05
-0.000298418
-4.02614e-05
-0.00029451
-4.61978e-05
-0.00029001
-5.20699e-05
-0.00028489
-5.78361e-05
-0.000279116
-6.34476e-05
-0.000272659
-6.88483e-05
-0.00026549
-7.39751e-05
-0.000257585
-7.87578e-05
-0.000248926
-8.31206e-05
-0.000239506
-8.69831e-05
-0.00022933
-9.0263e-05
-0.000218417
-9.28784e-05
-0.000206807
-9.47519e-05
-0.000194556
-9.58143e-05
-0.000181744
-9.60091e-05
-0.00016847
-9.52965e-05
-0.000154855
-9.36581e-05
-0.000141034
-9.10997e-05
-0.000127156
-8.76531e-05
-0.000113376
-8.33769e-05
-9.98481e-05
-7.83548e-05
-8.67194e-05
-7.26919e-05
-7.41236e-05
-6.65103e-05
-6.21752e-05
-5.9942e-05
-5.0966e-05
-5.31231e-05
-4.0564e-05
-4.61864e-05
-3.10135e-05
-3.92566e-05
-2.23381e-05
-3.24462e-05
-1.45444e-05
-2.58532e-05
-7.62603e-06
-1.95607e-05
-1.56764e-06
-1.36379e-05
3.65179e-06
-8.14154e-06
8.05715e-06
-3.11723e-06