/*--------------------------------*- C++ -*----------------------------------*\
| =========                 |                                                 |
| \\      /  F ield         | OpenFOAM: The Open Source CFD Toolbox           |
|  \\    /   O peration     | Version:  2406                                  |
|   \\  /    A nd           | Website:  www.openfoam.com                      |
|    \\/     M anipulation  |                                                 |
\*---------------------------------------------------------------------------*/
FoamFile
{
    version     2.0;
    format      ascii;
    arch        "LSB;label=32;scalar=64";
    class       surfaceScalarField;
    location    "2.35";
    object      phi_0;
}
// * * * * * * * * * * * * * * * * * * * * * * * * * * * * * * * * * * * * * //

dimensions      [0 3 -1 0 0 0 0];

oriented        oriented;

internalField   nonuniform List<scalar> 
28560
(
1.36314e-09
-1.3557e-09
-1.61111e-09
2.97422e-09
-1.09997e-08
9.38855e-09
-2.62667e-08
1.5267e-08
-4.62745e-08
2.00079e-08
-6.98128e-08
2.35383e-08
-9.58187e-08
2.60059e-08
-1.23444e-07
2.76251e-08
-1.52056e-07
2.86121e-08
-1.8121e-07
2.91539e-08
-2.1061e-07
2.93998e-08
-2.4007e-07
2.94602e-08
-2.69482e-07
2.94119e-08
-2.98786e-07
2.93041e-08
-3.27952e-07
2.91664e-08
-3.56967e-07
2.90145e-08
-3.85822e-07
2.88558e-08
-4.14515e-07
2.86928e-08
-4.4304e-07
2.85252e-08
-4.71392e-07
2.83518e-08
-4.99563e-07
2.81712e-08
-5.27545e-07
2.79818e-08
-5.55328e-07
2.77824e-08
-5.82899e-07
2.75719e-08
-6.10249e-07
2.73493e-08
-6.37363e-07
2.7114e-08
-6.64228e-07
2.68652e-08
-6.9083e-07
2.66023e-08
-7.17155e-07
2.63247e-08
-7.43187e-07
2.60319e-08
-7.6891e-07
2.57234e-08
-7.94309e-07
2.53986e-08
-8.19366e-07
2.50571e-08
-8.44064e-07
2.46983e-08
-8.68386e-07
2.43218e-08
-8.92313e-07
2.39269e-08
-9.15826e-07
2.35134e-08
-9.38907e-07
2.30806e-08
-9.61535e-07
2.2628e-08
-9.8369e-07
2.21552e-08
-1.00535e-06
2.16617e-08
-1.0265e-06
2.11471e-08
-1.04711e-06
2.06109e-08
-1.06716e-06
2.00526e-08
-1.08663e-06
1.94719e-08
-1.1055e-06
1.88684e-08
-1.12374e-06
1.82416e-08
-1.14134e-06
1.75913e-08
-1.15825e-06
1.69172e-08
-1.17447e-06
1.62188e-08
-1.18997e-06
1.54961e-08
-1.20472e-06
1.47488e-08
-1.21869e-06
1.39768e-08
-1.23187e-06
1.31799e-08
-1.24423e-06
1.23581e-08
-1.25574e-06
1.15113e-08
-1.26638e-06
1.06397e-08
-1.27613e-06
9.74337e-09
-1.28495e-06
8.82246e-09
-1.29283e-06
7.87724e-09
-1.29973e-06
6.90804e-09
-1.30565e-06
5.91526e-09
-1.31055e-06
4.89936e-09
-1.31441e-06
3.86092e-09
-1.31721e-06
2.80057e-09
-1.31893e-06
1.71897e-09
-1.31955e-06
6.20904e-10
-1.31904e-06
-5.06154e-10
-1.3174e-06
-1.64336e-09
-1.3146e-06
-2.80012e-09
-1.31063e-06
-3.97312e-09
-1.30547e-06
-5.16104e-09
-1.2991e-06
-6.36248e-09
-1.29153e-06
-7.57596e-09
-1.28273e-06
-8.79993e-09
-1.27269e-06
-1.00328e-08
-1.26142e-06
-1.12728e-08
-1.2489e-06
-1.25183e-08
-1.23514e-06
-1.37672e-08
-1.22012e-06
-1.50178e-08
-1.20385e-06
-1.62681e-08
-1.18633e-06
-1.75159e-08
-1.16758e-06
-1.87593e-08
-1.14758e-06
-1.9996e-08
-1.12636e-06
-2.12239e-08
-1.10391e-06
-2.24409e-08
-1.08027e-06
-2.36447e-08
-1.05544e-06
-2.48331e-08
-1.02943e-06
-2.60038e-08
-1.00228e-06
-2.71547e-08
-9.73994e-07
-2.82836e-08
-9.44606e-07
-2.93884e-08
-9.14139e-07
-3.04669e-08
-8.82622e-07
-3.15171e-08
-8.50085e-07
-3.25371e-08
-8.1656e-07
-3.3525e-08
-7.82081e-07
-3.44791e-08
-7.46683e-07
-3.5398e-08
-7.10403e-07
-3.62801e-08
-6.73278e-07
-3.71244e-08
-6.35348e-07
-3.79299e-08
-5.96653e-07
-3.86954e-08
-5.57234e-07
-3.94194e-08
-5.17134e-07
-4.00997e-08
-4.76403e-07
-4.07313e-08
-4.35098e-07
-4.13053e-08
-3.93292e-07
-4.18055e-08
-3.51088e-07
-4.22041e-08
-3.08632e-07
-4.24562e-08
-2.66139e-07
-4.24925e-08
-2.23928e-07
-4.22114e-08
-1.82457e-07
-4.14709e-08
-1.42375e-07
-4.00817e-08
-1.0457e-07
-3.78047e-08
-7.02161e-08
-3.43544e-08
-4.07867e-08
-2.94294e-08
-1.8001e-08
-2.27857e-08
-3.56004e-09
-1.44409e-08
1.54239e-09
-5.10243e-09
1.5424e-09
-2.99465e-09
1.63892e-09
-1.78067e-08
1.77863e-08
-4.69116e-08
3.84935e-08
-8.91893e-08
5.75447e-08
-1.4243e-07
7.3249e-08
-2.04161e-07
8.52686e-08
-2.72079e-07
9.39238e-08
-3.4425e-07
9.97964e-08
-4.19162e-07
1.03524e-07
-4.95701e-07
1.05692e-07
-5.73086e-07
1.06785e-07
-6.50802e-07
1.07176e-07
-7.28521e-07
1.07131e-07
-8.06047e-07
1.0683e-07
-8.83264e-07
1.06383e-07
-9.60105e-07
1.05856e-07
-1.03653e-06
1.05281e-07
-1.11251e-06
1.04672e-07
-1.18802e-06
1.04035e-07
-1.26304e-06
1.03368e-07
-1.33753e-06
1.02668e-07
-1.41148e-06
1.01932e-07
-1.48486e-06
1.01155e-07
-1.55762e-06
1.00335e-07
-1.62974e-06
9.94686e-08
-1.70118e-06
9.8554e-08
-1.7719e-06
9.75888e-08
-1.84187e-06
9.6571e-08
-1.91105e-06
9.54989e-08
-1.97938e-06
9.43707e-08
-2.04685e-06
9.31847e-08
-2.11339e-06
9.19393e-08
-2.17896e-06
9.06329e-08
-2.24353e-06
8.92637e-08
-2.30704e-06
8.78304e-08
-2.36944e-06
8.63311e-08
-2.43069e-06
8.47645e-08
-2.49074e-06
8.31289e-08
-2.54953e-06
8.14227e-08
-2.60702e-06
7.96446e-08
-2.66315e-06
7.77929e-08
-2.71787e-06
7.58662e-08
-2.77113e-06
7.38632e-08
-2.82286e-06
7.17825e-08
-2.87301e-06
6.96229e-08
-2.92152e-06
6.7383e-08
-2.96834e-06
6.50618e-08
-3.01341e-06
6.26583e-08
-3.05666e-06
6.01716e-08
-3.09805e-06
5.76007e-08
-3.13749e-06
5.49451e-08
-3.17495e-06
5.22042e-08
-3.21035e-06
4.93776e-08
-3.24364e-06
4.6465e-08
-3.27474e-06
4.34665e-08
-3.30361e-06
4.03821e-08
-3.33019e-06
3.72122e-08
-3.3544e-06
3.39573e-08
-3.3762e-06
3.06181e-08
-3.39552e-06
2.71958e-08
-3.4123e-06
2.36915e-08
-3.42649e-06
2.01068e-08
-3.43803e-06
1.64433e-08
-3.44688e-06
1.27032e-08
-3.45296e-06
8.88884e-09
-3.45625e-06
5.00278e-09
-3.45668e-06
1.04924e-09
-3.45421e-06
-2.97301e-09
-3.4488e-06
-7.05494e-09
-3.4404e-06
-1.11952e-08
-3.42899e-06
-1.53897e-08
-3.41451e-06
-1.96339e-08
-3.39695e-06
-2.39229e-08
-3.37628e-06
-2.82518e-08
-3.35246e-06
-3.2615e-08
-3.32549e-06
-3.70072e-08
-3.29534e-06
-4.14222e-08
-3.262e-06
-4.58541e-08
-3.22547e-06
-5.02963e-08
-3.18575e-06
-5.47423e-08
-3.14283e-06
-5.91852e-08
-3.09673e-06
-6.36179e-08
-3.04746e-06
-6.80334e-08
-2.99503e-06
-7.24242e-08
-2.93947e-06
-7.67829e-08
-2.88081e-06
-8.11019e-08
-2.81908e-06
-8.53736e-08
-2.75432e-06
-8.95903e-08
-2.68658e-06
-9.37444e-08
-2.61591e-06
-9.78283e-08
-2.54236e-06
-1.01834e-07
-2.46599e-06
-1.05755e-07
-2.38687e-06
-1.09584e-07
-2.30508e-06
-1.13312e-07
-2.22068e-06
-1.16935e-07
-2.13376e-06
-1.20444e-07
-2.04441e-06
-1.23835e-07
-1.9527e-06
-1.27101e-07
-1.85875e-06
-1.30237e-07
-1.76263e-06
-1.33239e-07
-1.66446e-06
-1.36102e-07
-1.56434e-06
-1.3882e-07
-1.46237e-06
-1.41386e-07
-1.35868e-06
-1.43789e-07
-1.25341e-06
-1.46006e-07
-1.14671e-06
-1.48e-07
-1.03881e-06
-1.49708e-07
-9.29986e-07
-1.51025e-07
-8.20657e-07
-1.51786e-07
-7.11405e-07
-1.51744e-07
-6.03066e-07
-1.5055e-07
-4.9681e-07
-1.47727e-07
-3.94233e-07
-1.42659e-07
-2.97441e-07
-1.34597e-07
-2.09098e-07
-1.22697e-07
-1.32393e-07
-1.06134e-07
-7.08339e-08
-8.43446e-08
-2.77199e-08
-5.7555e-08
-5.03083e-09
-2.77915e-08
-3.48843e-09
-9.5099e-09
1.11488e-08
-3.88153e-08
4.70918e-08
-8.76169e-08
8.7295e-08
-1.54049e-07
1.23977e-07
-2.3531e-07
1.5451e-07
-3.28303e-07
1.78261e-07
-4.30073e-07
1.95694e-07
-5.3806e-07
2.07783e-07
-6.50194e-07
2.15659e-07
-7.64901e-07
2.20399e-07
-8.81042e-07
2.22926e-07
-9.97831e-07
2.23965e-07
-1.11475e-06
2.2405e-07
-1.23147e-06
2.23546e-07
-1.34777e-06
2.2269e-07
-1.46354e-06
2.21624e-07
-1.57868e-06
2.20424e-07
-1.69314e-06
2.1913e-07
-1.80686e-06
2.17757e-07
-1.9198e-06
2.16307e-07
-2.03191e-06
2.14779e-07
-2.14315e-06
2.13166e-07
-2.25345e-06
2.11463e-07
-2.36278e-06
2.09665e-07
-2.47108e-06
2.07768e-07
-2.5783e-06
2.05766e-07
-2.68436e-06
2.03656e-07
-2.78923e-06
2.01434e-07
-2.89283e-06
1.99097e-07
-2.9951e-06
1.96642e-07
-3.09598e-06
1.94065e-07
-3.1954e-06
1.91363e-07
-3.2933e-06
1.88534e-07
-3.38961e-06
1.85574e-07
-3.48426e-06
1.8248e-07
-3.57718e-06
1.79249e-07
-3.66829e-06
1.75879e-07
-3.75753e-06
1.72366e-07
-3.84482e-06
1.68708e-07
-3.93007e-06
1.64901e-07
-4.01322e-06
1.60944e-07
-4.09419e-06
1.56832e-07
-4.17289e-06
1.52565e-07
-4.24925e-06
1.48139e-07
-4.32318e-06
1.43552e-07
-4.3946e-06
1.38801e-07
-4.46342e-06
1.33886e-07
-4.52956e-06
1.28803e-07
-4.59295e-06
1.23552e-07
-4.65348e-06
1.18131e-07
-4.71107e-06
1.12539e-07
-4.76564e-06
1.06775e-07
-4.8171e-06
1.00838e-07
-4.86536e-06
9.47282e-08
-4.91034e-06
8.84461e-08
-4.95195e-06
8.19919e-08
-4.99011e-06
7.53664e-08
-5.02472e-06
6.85711e-08
-5.05571e-06
6.16076e-08
-5.08299e-06
5.44783e-08
-5.10649e-06
4.71857e-08
-5.12611e-06
3.97333e-08
-5.14179e-06
3.21247e-08
-5.15346e-06
2.43642e-08
-5.16102e-06
1.64568e-08
-5.16443e-06
8.40847e-09
-5.1636e-06
2.20624e-10
-5.15848e-06
-8.08951e-09
-5.14901e-06
-1.65256e-08
-5.13513e-06
-2.50748e-08
-5.11679e-06
-3.37293e-08
-5.09395e-06
-4.24804e-08
-5.06655e-06
-5.13181e-08
-5.03457e-06
-6.02325e-08
-4.99797e-06
-6.92126e-08
-4.95673e-06
-7.82471e-08
-4.91083e-06
-8.73241e-08
-4.86026e-06
-9.64313e-08
-4.805e-06
-1.05556e-07
-4.74505e-06
-1.14684e-07
-4.68044e-06
-1.23803e-07
-4.61116e-06
-1.32897e-07
-4.53724e-06
-1.41953e-07
-4.45871e-06
-1.50956e-07
-4.3756e-06
-1.59891e-07
-4.28796e-06
-1.68742e-07
-4.19584e-06
-1.77495e-07
-4.09929e-06
-1.86134e-07
-3.99839e-06
-1.94644e-07
-3.89321e-06
-2.03009e-07
-3.78383e-06
-2.11214e-07
-3.67035e-06
-2.19244e-07
-3.55284e-06
-2.27085e-07
-3.43143e-06
-2.34722e-07
-3.30623e-06
-2.42142e-07
-3.17734e-06
-2.49331e-07
-3.0449e-06
-2.56277e-07
-2.90903e-06
-2.62968e-07
-2.76988e-06
-2.69393e-07
-2.62757e-06
-2.75541e-07
-2.48227e-06
-2.81402e-07
-2.33413e-06
-2.86962e-07
-2.18332e-06
-2.92202e-07
-2.03001e-06
-2.97094e-07
-1.87443e-06
-3.01586e-07
-1.71684e-06
-3.05595e-07
-1.55756e-06
-3.08981e-07
-1.39707e-06
-3.11521e-07
-1.23598e-06
-3.12876e-07
-1.07518e-06
-3.12547e-07
-9.15889e-07
-3.09837e-07
-7.59796e-07
-3.0382e-07
-6.09128e-07
-2.93327e-07
-4.66746e-07
-2.76979e-07
-3.36165e-07
-2.53279e-07
-2.21459e-07
-2.2084e-07
-1.26994e-07
-1.7881e-07
-5.68851e-08
-1.27664e-07
-1.41583e-08
-7.05184e-08
-1.76468e-08
-1.5597e-08
2.67458e-08
-5.85193e-08
9.00141e-08
-1.25494e-07
1.5427e-07
-2.13313e-07
2.11796e-07
-3.18469e-07
2.59666e-07
-4.37394e-07
2.97186e-07
-5.66743e-07
3.25044e-07
-7.036e-07
3.4464e-07
-8.45573e-07
3.57631e-07
-9.90803e-07
3.6563e-07
-1.13792e-06
3.70042e-07
-1.28595e-06
3.71994e-07
-1.43423e-06
3.7233e-07
-1.58232e-06
3.71637e-07
-1.72993e-06
3.70306e-07
-1.87689e-06
3.68575e-07
-2.02304e-06
3.66582e-07
-2.16831e-06
3.644e-07
-2.31262e-06
3.62061e-07
-2.45589e-06
3.59576e-07
-2.59806e-06
3.56946e-07
-2.73905e-06
3.54165e-07
-2.87882e-06
3.51226e-07
-3.01728e-06
3.48123e-07
-3.15436e-06
3.44849e-07
-3.28999e-06
3.41397e-07
-3.4241e-06
3.37763e-07
-3.5566e-06
3.3394e-07
-3.68743e-06
3.29923e-07
-3.81649e-06
3.25708e-07
-3.94372e-06
3.21289e-07
-4.06902e-06
3.16663e-07
-4.19231e-06
3.11825e-07
-4.3135e-06
3.06769e-07
-4.43251e-06
3.01493e-07
-4.54925e-06
2.9599e-07
-4.66363e-06
2.90257e-07
-4.77556e-06
2.84289e-07
-4.88493e-06
2.78083e-07
-4.99166e-06
2.71634e-07
-5.09566e-06
2.64937e-07
-5.19681e-06
2.57989e-07
-5.29504e-06
2.50787e-07
-5.39022e-06
2.43326e-07
-5.48228e-06
2.35604e-07
-5.57109e-06
2.27616e-07
-5.65657e-06
2.19361e-07
-5.7386e-06
2.10835e-07
-5.81708e-06
2.02037e-07
-5.89192e-06
1.92965e-07
-5.96299e-06
1.83616e-07
-6.03021e-06
1.73991e-07
-6.09346e-06
1.64088e-07
-6.15264e-06
1.53908e-07
-6.20764e-06
1.43451e-07
-6.25837e-06
1.32718e-07
-6.30472e-06
1.21712e-07
-6.34658e-06
1.10434e-07
-6.38386e-06
9.88878e-08
-6.41646e-06
8.70774e-08
-6.44428e-06
7.50074e-08
-6.46723e-06
6.26832e-08
-6.48522e-06
5.01112e-08
-6.49815e-06
3.72986e-08
-6.50595e-06
2.42536e-08
-6.50852e-06
1.09849e-08
-6.50581e-06
-2.498e-09
-6.49771e-06
-1.61822e-08
-6.48418e-06
-3.00581e-08
-6.46514e-06
-4.41122e-08
-6.44054e-06
-5.83307e-08
-6.41032e-06
-7.26989e-08
-6.37444e-06
-8.72012e-08
-6.33285e-06
-1.01821e-07
-6.28552e-06
-1.16541e-07
-6.23243e-06
-1.31343e-07
-6.17354e-06
-1.46207e-07
-6.10886e-06
-1.61114e-07
-6.03837e-06
-1.76043e-07
-5.96208e-06
-1.90973e-07
-5.88001e-06
-2.0588e-07
-5.79216e-06
-2.20744e-07
-5.69857e-06
-2.35539e-07
-5.59929e-06
-2.50244e-07
-5.49434e-06
-2.64833e-07
-5.3838e-06
-2.79282e-07
-5.26773e-06
-2.93568e-07
-5.1462e-06
-3.07664e-07
-5.0193e-06
-3.21547e-07
-4.88712e-06
-3.35192e-07
-4.74975e-06
-3.48575e-07
-4.60733e-06
-3.61671e-07
-4.45995e-06
-3.74457e-07
-4.30777e-06
-3.86911e-07
-4.1509e-06
-3.99009e-07
-3.9895e-06
-4.10731e-07
-3.82372e-06
-4.22056e-07
-3.65372e-06
-4.32964e-07
-3.47968e-06
-4.43438e-07
-3.30176e-06
-4.53457e-07
-3.12016e-06
-4.63003e-07
-2.93507e-06
-4.7205e-07
-2.74671e-06
-4.80564e-07
-2.55531e-06
-4.88491e-07
-2.36115e-06
-4.95742e-07
-2.16458e-06
-5.02172e-07
-1.96601e-06
-5.07543e-07
-1.76605e-06
-5.1149e-07
-1.56546e-06
-5.13458e-07
-1.36536e-06
-5.12652e-07
-1.16722e-06
-5.07975e-07
-9.73046e-07
-4.97993e-07
-7.85446e-07
-4.80927e-07
-6.07709e-07
-4.54716e-07
-4.43816e-07
-4.17172e-07
-2.98346e-07
-3.6631e-07
-1.76265e-07
-3.0089e-07
-8.25989e-08
-2.2133e-07
-2.21316e-08
-1.30986e-07
-3.97783e-08
-2.0644e-08
4.73898e-08
-7.51934e-08
1.44563e-07
-1.57844e-07
2.3692e-07
-2.6392e-07
3.17872e-07
-3.89096e-07
3.84841e-07
-5.29336e-07
4.37426e-07
-6.81e-07
4.76707e-07
-8.40946e-07
5.04587e-07
-1.0066e-06
5.23284e-07
-1.17594e-06
5.34971e-07
-1.34746e-06
5.41563e-07
-1.52007e-06
5.44607e-07
-1.69302e-06
5.45276e-07
-1.86578e-06
5.44402e-07
-2.03802e-06
5.42542e-07
-2.20949e-06
5.40047e-07
-2.38003e-06
5.37124e-07
-2.54952e-06
5.33886e-07
-2.71785e-06
5.30388e-07
-2.88492e-06
5.26654e-07
-3.05067e-06
5.22689e-07
-3.21499e-06
5.1849e-07
-3.37781e-06
5.14049e-07
-3.53905e-06
5.09359e-07
-3.69861e-06
5.04412e-07
-3.85641e-06
4.99199e-07
-4.01237e-06
4.93714e-07
-4.16638e-06
4.87949e-07
-4.31835e-06
4.81899e-07
-4.4682e-06
4.75555e-07
-4.61582e-06
4.68913e-07
-4.76113e-06
4.61966e-07
-4.90401e-06
4.54708e-07
-5.04437e-06
4.47132e-07
-5.18211e-06
4.39234e-07
-5.31713e-06
4.31006e-07
-5.44932e-06
4.22444e-07
-5.57857e-06
4.13541e-07
-5.70478e-06
4.04292e-07
-5.82783e-06
3.94691e-07
-5.94763e-06
3.84733e-07
-6.06405e-06
3.74413e-07
-6.17699e-06
3.63726e-07
-6.28633e-06
3.52667e-07
-6.39196e-06
3.41232e-07
-6.49376e-06
3.29417e-07
-6.59162e-06
3.17218e-07
-6.68542e-06
3.04633e-07
-6.77504e-06
2.91658e-07
-6.86037e-06
2.78291e-07
-6.94128e-06
2.64531e-07
-7.01767e-06
2.50376e-07
-7.0894e-06
2.35827e-07
-7.15638e-06
2.20884e-07
-7.21848e-06
2.05548e-07
-7.27558e-06
1.89822e-07
-7.32758e-06
1.73707e-07
-7.37435e-06
1.57209e-07
-7.4158e-06
1.40332e-07
-7.4518e-06
1.23083e-07
-7.48226e-06
1.05467e-07
-7.50707e-06
8.74942e-08
-7.52613e-06
6.91731e-08
-7.53935e-06
5.05144e-08
-7.54663e-06
3.153e-08
-7.54788e-06
1.2233e-08
-7.54301e-06
-7.36208e-09
-7.53195e-06
-2.72394e-08
-7.51463e-06
-4.7382e-08
-7.49097e-06
-6.77715e-08
-7.46091e-06
-8.8388e-08
-7.4244e-06
-1.09211e-07
-7.38139e-06
-1.30217e-07
-7.33182e-06
-1.51382e-07
-7.27568e-06
-1.72683e-07
-7.21293e-06
-1.94092e-07
-7.14356e-06
-2.15583e-07
-7.06755e-06
-2.37126e-07
-6.9849e-06
-2.58692e-07
-6.89562e-06
-2.80251e-07
-6.79973e-06
-3.01771e-07
-6.69725e-06
-3.23219e-07
-6.58823e-06
-3.44564e-07
-6.4727e-06
-3.6577e-07
-6.35073e-06
-3.86805e-07
-6.22238e-06
-4.07633e-07
-6.08773e-06
-4.28219e-07
-5.94686e-06
-4.48529e-07
-5.79988e-06
-4.68527e-07
-5.6469e-06
-4.8818e-07
-5.48802e-06
-5.07451e-07
-5.32338e-06
-5.26308e-07
-5.15313e-06
-5.44716e-07
-4.97739e-06
-5.62642e-07
-4.79635e-06
-5.80056e-07
-4.61015e-06
-5.96926e-07
-4.41898e-06
-6.13224e-07
-4.22303e-06
-6.28919e-07
-4.02248e-06
-6.43985e-07
-3.81754e-06
-6.58394e-07
-3.60843e-06
-6.72114e-07
-3.39538e-06
-6.85105e-07
-3.17863e-06
-6.97315e-07
-2.95846e-06
-7.08658e-07
-2.7352e-06
-7.19e-07
-2.50925e-06
-7.28123e-07
-2.28111e-06
-7.35683e-07
-2.05145e-06
-7.41149e-07
-1.82117e-06
-7.43737e-07
-1.5915e-06
-7.42329e-07
-1.36407e-06
-7.35404e-07
-1.14107e-06
-7.20992e-07
-9.25319e-07
-6.9668e-07
-7.20339e-07
-6.59696e-07
-5.30388e-07
-6.07122e-07
-3.60415e-07
-5.36283e-07
-2.15955e-07
-4.45351e-07
-1.03046e-07
-3.34239e-07
-2.83098e-08
-2.05722e-07
-6.80882e-08
-2.45484e-08
7.19382e-08
-8.84118e-08
2.08427e-07
-1.8387e-07
3.32378e-07
-3.04921e-07
4.38923e-07
-4.46421e-07
5.26341e-07
-6.03858e-07
5.94864e-07
-7.73315e-07
6.46164e-07
-9.51483e-07
6.82754e-07
-1.13567e-06
7.07471e-07
-1.32377e-06
7.23074e-07
-1.51421e-06
7.31997e-07
-1.70582e-06
7.36223e-07
-1.89781e-06
7.37262e-07
-2.0896e-06
7.36196e-07
-2.28082e-06
7.33758e-07
-2.47119e-06
7.30414e-07
-2.66051e-06
7.26448e-07
-2.84864e-06
7.22016e-07
-3.03545e-06
7.17203e-07
-3.22084e-06
7.12044e-07
-3.40471e-06
7.06552e-07
-3.58695e-06
7.00728e-07
-3.76746e-06
6.94565e-07
-3.94616e-06
6.88056e-07
-4.12294e-06
6.8119e-07
-4.2977e-06
6.73959e-07
-4.47034e-06
6.66355e-07
-4.64076e-06
6.58368e-07
-4.80885e-06
6.49992e-07
-4.97451e-06
6.41218e-07
-5.13764e-06
6.32038e-07
-5.29812e-06
6.22445e-07
-5.45584e-06
6.12432e-07
-5.6107e-06
6.0199e-07
-5.76258e-06
5.91113e-07
-5.91136e-06
5.79793e-07
-6.05694e-06
5.68024e-07
-6.1992e-06
5.55797e-07
-6.33801e-06
5.43107e-07
-6.47327e-06
5.29946e-07
-6.60485e-06
5.16308e-07
-6.73262e-06
5.02187e-07
-6.85647e-06
4.87577e-07
-6.97628e-06
4.72472e-07
-7.09191e-06
4.56867e-07
-7.20325e-06
4.40758e-07
-7.31017e-06
4.24139e-07
-7.41255e-06
4.07008e-07
-7.51025e-06
3.89362e-07
-7.60316e-06
3.71197e-07
-7.69114e-06
3.52514e-07
-7.77408e-06
3.3331e-07
-7.85183e-06
3.13586e-07
-7.92429e-06
2.93344e-07
-7.99133e-06
2.72585e-07
-8.05282e-06
2.51313e-07
-8.10865e-06
2.29532e-07
-8.15868e-06
2.07248e-07
-8.20282e-06
1.84468e-07
-8.24094e-06
1.612e-07
-8.27292e-06
1.37454e-07
-8.29867e-06
1.13242e-07
-8.31808e-06
8.85765e-08
-8.33103e-06
6.34715e-08
-8.33745e-06
3.79432e-08
-8.33722e-06
1.20094e-08
-8.33027e-06
-1.43104e-08
-8.31652e-06
-4.09951e-08
-8.29588e-06
-6.8022e-08
-8.26828e-06
-9.53662e-08
-8.23367e-06
-1.23002e-07
-8.19198e-06
-1.509e-07
-8.14317e-06
-1.79031e-07
-8.08718e-06
-2.07365e-07
-8.024e-06
-2.35866e-07
-7.95359e-06
-2.64502e-07
-7.87594e-06
-2.93235e-07
-7.79104e-06
-3.22027e-07
-7.69889e-06
-3.50841e-07
-7.59951e-06
-3.79634e-07
-7.49291e-06
-4.08367e-07
-7.37913e-06
-4.36995e-07
-7.25822e-06
-4.65477e-07
-7.13022e-06
-4.93766e-07
-6.99521e-06
-5.21819e-07
-6.85325e-06
-5.49589e-07
-6.70444e-06
-5.77032e-07
-6.54887e-06
-6.041e-07
-6.38665e-06
-6.30748e-07
-6.2179e-06
-6.5693e-07
-6.04275e-06
-6.826e-07
-5.86134e-06
-7.07714e-07
-5.67383e-06
-7.32226e-07
-5.48038e-06
-7.56095e-07
-5.28116e-06
-7.79278e-07
-5.07635e-06
-8.01734e-07
-4.86615e-06
-8.23424e-07
-4.65076e-06
-8.4431e-07
-4.43039e-06
-8.64353e-07
-4.20527e-06
-8.83515e-07
-3.97563e-06
-9.0175e-07
-3.74173e-06
-9.19005e-07
-3.50385e-06
-9.35201e-07
-3.26228e-06
-9.50221e-07
-3.0174e-06
-9.6388e-07
-2.76964e-06
-9.75883e-07
-2.51956e-06
-9.8577e-07
-2.26787e-06
-9.9284e-07
-2.01554e-06
-9.96067e-07
-1.76386e-06
-9.94002e-07
-1.51458e-06
-9.8469e-07
-1.26995e-06
-9.65617e-07
-1.03292e-06
-9.33714e-07
-8.07143e-07
-8.85471e-07
-5.97089e-07
-8.17176e-07
-4.08035e-07
-7.25338e-07
-2.46086e-07
-6.07299e-07
-1.18262e-07
-4.62062e-07
-3.27601e-08
-2.91224e-07
-1.00848e-07
-2.7423e-08
9.93612e-08
-9.839e-08
2.79394e-07
-2.03844e-07
4.37832e-07
-3.36714e-07
5.71794e-07
-4.91125e-07
6.80752e-07
-6.6211e-07
7.65849e-07
-8.45483e-07
8.29537e-07
-1.03779e-06
8.75057e-07
-1.23624e-06
9.05928e-07
-1.4387e-06
9.2553e-07
-1.64354e-06
9.36835e-07
-1.84958e-06
9.42263e-07
-2.05598e-06
9.43667e-07
-2.26217e-06
9.42379e-07
-2.46772e-06
9.3931e-07
-2.67235e-06
9.35045e-07
-2.87584e-06
9.29942e-07
-3.07804e-06
9.24208e-07
-3.27879e-06
9.17953e-07
-3.47797e-06
9.1123e-07
-3.67548e-06
9.0406e-07
-3.8712e-06
8.96447e-07
-4.06502e-06
8.88387e-07
-4.25684e-06
8.79872e-07
-4.44654e-06
8.70892e-07
-4.63402e-06
8.61439e-07
-4.81917e-06
8.51502e-07
-5.00187e-06
8.41071e-07
-5.18201e-06
8.30138e-07
-5.35949e-06
8.18693e-07
-5.53418e-06
8.06727e-07
-5.70596e-06
7.94232e-07
-5.87473e-06
7.81199e-07
-6.04036e-06
7.67619e-07
-6.20273e-06
7.53483e-07
-6.36172e-06
7.38783e-07
-6.51721e-06
7.23511e-07
-6.66907e-06
7.07657e-07
-6.81718e-06
6.91216e-07
-6.96141e-06
6.74177e-07
-7.10163e-06
6.56535e-07
-7.23773e-06
6.38281e-07
-7.36956e-06
6.19409e-07
-7.497e-06
5.99912e-07
-7.61992e-06
5.79785e-07
-7.73818e-06
5.59022e-07
-7.85166e-06
5.37619e-07
-7.96022e-06
5.15571e-07
-8.06374e-06
4.92876e-07
-8.16207e-06
4.6953e-07
-8.25509e-06
4.45534e-07
-8.34267e-06
4.20886e-07
-8.42467e-06
3.95587e-07
-8.50096e-06
3.6964e-07
-8.57142e-06
3.43047e-07
-8.63592e-06
3.15814e-07
-8.69434e-06
2.87946e-07
-8.74654e-06
2.59451e-07
-8.79241e-06
2.30339e-07
-8.83184e-06
2.00621e-07
-8.86469e-06
1.70309e-07
-8.89087e-06
1.39418e-07
-8.91025e-06
1.07965e-07
-8.92275e-06
7.59678e-08
-8.92825e-06
4.34474e-08
-8.92667e-06
1.04264e-08
-8.91791e-06
-2.30705e-08
-8.90189e-06
-5.70164e-08
-8.87853e-06
-9.13823e-08
-8.84776e-06
-1.26137e-07
-8.80951e-06
-1.61247e-07
-8.76374e-06
-1.96677e-07
-8.71038e-06
-2.3239e-07
-8.6494e-06
-2.68345e-07
-8.58076e-06
-3.045e-07
-8.50445e-06
-3.40813e-07
-8.42045e-06
-3.77238e-07
-8.32875e-06
-4.13726e-07
-8.22936e-06
-4.5023e-07
-8.1223e-06
-4.86698e-07
-8.00759e-06
-5.23078e-07
-7.88527e-06
-5.59316e-07
-7.75538e-06
-5.95359e-07
-7.618e-06
-6.31151e-07
-7.47318e-06
-6.66635e-07
-7.32102e-06
-7.01754e-07
-7.1616e-06
-7.36451e-07
-6.99503e-06
-7.70668e-07
-6.82143e-06
-8.04348e-07
-6.64093e-06
-8.37433e-07
-6.45366e-06
-8.69866e-07
-6.25978e-06
-9.01591e-07
-6.05946e-06
-9.32553e-07
-5.85285e-06
-9.62697e-07
-5.64016e-06
-9.91971e-07
-5.42157e-06
-1.02032e-06
-5.1973e-06
-1.0477e-06
-4.96754e-06
-1.07406e-06
-4.73255e-06
-1.09935e-06
-4.49254e-06
-1.12352e-06
-4.24778e-06
-1.14651e-06
-3.99854e-06
-1.16825e-06
-3.74511e-06
-1.18863e-06
-3.48782e-06
-1.20751e-06
-3.22705e-06
-1.22464e-06
-2.96328e-06
-1.23966e-06
-2.69708e-06
-1.25197e-06
-2.4292e-06
-1.26072e-06
-2.16064e-06
-1.26462e-06
-1.89274e-06
-1.26191e-06
-1.62726e-06
-1.25017e-06
-1.36652e-06
-1.22635e-06
-1.11352e-06
-1.18671e-06
-8.72039e-07
-1.12695e-06
-6.46714e-07
-1.0425e-06
-4.43143e-07
-9.28909e-07
-2.67969e-07
-7.82473e-07
-1.29056e-07
-6.00975e-07
-3.58049e-08
-3.84475e-07
-1.36653e-07
-2.94521e-08
1.28813e-07
-1.05617e-07
3.55559e-07
-2.1857e-07
5.50785e-07
-3.60443e-07
7.13667e-07
-5.24761e-07
8.4507e-07
-7.06152e-07
9.4724e-07
-9.00182e-07
1.02357e-06
-1.10325e-06
1.07813e-06
-1.31251e-06
1.11519e-06
-1.52577e-06
1.13879e-06
-1.74139e-06
1.15246e-06
-1.95819e-06
1.15906e-06
-2.17532e-06
1.1608e-06
-2.39219e-06
1.15924e-06
-2.60837e-06
1.15549e-06
-2.82357e-06
1.15024e-06
-3.03755e-06
1.14393e-06
-3.25015e-06
1.1368e-06
-3.4612e-06
1.12901e-06
-3.67059e-06
1.12062e-06
-3.87818e-06
1.11165e-06
-4.08386e-06
1.10212e-06
-4.2875e-06
1.09203e-06
-4.489e-06
1.08137e-06
-4.68823e-06
1.07013e-06
-4.88509e-06
1.05829e-06
-5.07945e-06
1.04586e-06
-5.2712e-06
1.03282e-06
-5.46021e-06
1.01915e-06
-5.64637e-06
1.00485e-06
-5.82955e-06
9.89911e-07
-6.00964e-06
9.74319e-07
-6.1865e-06
9.58065e-07
-6.36002e-06
9.4114e-07
-6.53007e-06
9.23533e-07
-6.69652e-06
9.05235e-07
-6.85925e-06
8.86237e-07
-7.01812e-06
8.66529e-07
-7.17301e-06
8.46102e-07
-7.32378e-06
8.24947e-07
-7.4703e-06
8.03056e-07
-7.61244e-06
7.80421e-07
-7.75007e-06
7.57034e-07
-7.88304e-06
7.32887e-07
-8.01123e-06
7.07975e-07
-8.1345e-06
6.82292e-07
-8.25271e-06
6.55832e-07
-8.36573e-06
6.28591e-07
-8.47343e-06
6.00567e-07
-8.57565e-06
5.71757e-07
-8.67228e-06
5.4216e-07
-8.76317e-06
5.11775e-07
-8.84819e-06
4.80606e-07
-8.9272e-06
4.48655e-07
-9.00008e-06
4.15926e-07
-9.06669e-06
3.82426e-07
-9.12691e-06
3.48163e-07
-9.18061e-06
3.13146e-07
-9.22765e-06
2.77387e-07
-9.26793e-06
2.40901e-07
-9.30133e-06
2.03703e-07
-9.32772e-06
1.65811e-07
-9.347e-06
1.27246e-07
-9.35907e-06
8.80312e-08
-9.36381e-06
4.81911e-08
-9.36114e-06
7.7537e-09
-9.35096e-06
-3.32506e-08
-9.33318e-06
-7.4789e-08
-9.30774e-06
-1.16826e-07
-9.27455e-06
-1.59324e-07
-9.23356e-06
-2.02241e-07
-9.1847e-06
-2.45535e-07
-9.12793e-06
-2.89161e-07
-9.06321e-06
-3.33069e-07
-8.9905e-06
-3.77209e-07
-8.90978e-06
-4.21528e-07
-8.82105e-06
-4.65971e-07
-8.7243e-06
-5.1048e-07
-8.61953e-06
-5.54996e-07
-8.50677e-06
-5.99458e-07
-8.38604e-06
-6.43802e-07
-8.2574e-06
-6.87964e-07
-8.12088e-06
-7.31878e-07
-7.97655e-06
-7.75476e-07
-7.8245e-06
-8.18691e-07
-7.6648e-06
-8.61453e-07
-7.49755e-06
-9.03694e-07
-7.32288e-06
-9.45344e-07
-7.14089e-06
-9.86333e-07
-6.95174e-06
-1.02659e-06
-6.75555e-06
-1.06605e-06
-6.5525e-06
-1.10464e-06
-6.34275e-06
-1.1423e-06
-6.12649e-06
-1.17896e-06
-5.9039e-06
-1.21456e-06
-5.67519e-06
-1.24903e-06
-5.44059e-06
-1.28231e-06
-5.2003e-06
-1.31435e-06
-4.95458e-06
-1.34507e-06
-4.70367e-06
-1.37443e-06
-4.44784e-06
-1.40234e-06
-4.18737e-06
-1.42872e-06
-3.92257e-06
-1.45343e-06
-3.65378e-06
-1.4763e-06
-3.3814e-06
-1.49702e-06
-3.10592e-06
-1.51514e-06
-2.82792e-06
-1.52997e-06
-2.54817e-06
-1.54046e-06
-2.26769e-06
-1.5451e-06
-1.98783e-06
-1.54177e-06
-1.71036e-06
-1.52764e-06
-1.43764e-06
-1.49907e-06
-1.17271e-06
-1.45164e-06
-9.19448e-07
-1.38022e-06
-6.82667e-07
-1.27928e-06
-4.68259e-07
-1.14332e-06
-2.83337e-07
-9.67395e-07
-1.36437e-07
-7.47875e-07
-3.78044e-08
-4.83108e-07
-1.74458e-07
-3.08308e-08
1.59644e-07
-1.10664e-07
4.35392e-07
-2.29054e-07
6.69174e-07
-3.77573e-07
8.62186e-07
-5.49287e-07
1.01678e-06
-7.38488e-07
1.13644e-06
-9.4052e-07
1.2256e-06
-1.15165e-06
1.28926e-06
-1.36897e-06
1.3325e-06
-1.59025e-06
1.36007e-06
-1.81384e-06
1.37605e-06
-2.03856e-06
1.38378e-06
-2.26355e-06
1.38579e-06
-2.48824e-06
1.38393e-06
-2.71218e-06
1.37944e-06
-2.93509e-06
1.37315e-06
-3.15672e-06
1.36556e-06
-3.3769e-06
1.35698e-06
-3.59547e-06
1.34758e-06
-3.81229e-06
1.33743e-06
-4.02722e-06
1.32659e-06
-4.24015e-06
1.31505e-06
-4.45095e-06
1.30283e-06
-4.6595e-06
1.28992e-06
-4.86568e-06
1.2763e-06
-5.06936e-06
1.26198e-06
-5.27043e-06
1.24693e-06
-5.46876e-06
1.23114e-06
-5.66422e-06
1.21462e-06
-5.8567e-06
1.19733e-06
-6.04607e-06
1.17928e-06
-6.2322e-06
1.16045e-06
-6.41496e-06
1.14083e-06
-6.59422e-06
1.1204e-06
-6.76986e-06
1.09917e-06
-6.94175e-06
1.07712e-06
-7.10974e-06
1.05423e-06
-7.27372e-06
1.0305e-06
-7.43354e-06
1.00592e-06
-7.58907e-06
9.80479e-07
-7.74018e-06
9.54164e-07
-7.88672e-06
9.26967e-07
-8.02857e-06
8.98882e-07
-8.16558e-06
8.69899e-07
-8.29762e-06
8.40013e-07
-8.42454e-06
8.09217e-07
-8.54622e-06
7.77505e-07
-8.6625e-06
7.44873e-07
-8.77325e-06
7.11318e-07
-8.87833e-06
6.76839e-07
-8.97761e-06
6.41433e-07
-9.07093e-06
6.05104e-07
-9.15818e-06
5.67851e-07
-9.2392e-06
5.29681e-07
-9.31388e-06
4.90598e-07
-9.38206e-06
4.50611e-07
-9.44363e-06
4.0973e-07
-9.49845e-06
3.67966e-07
-9.5464e-06
3.25334e-07
-9.58735e-06
2.81851e-07
-9.62118e-06
2.37535e-07
-9.64778e-06
1.9241e-07
-9.66703e-06
1.46499e-07
-9.67883e-06
9.98293e-08
-9.68307e-06
5.24316e-08
-9.67965e-06
4.33865e-09
-9.66849e-06
-4.44135e-08
-9.64949e-06
-9.37858e-08
-9.62258e-06
-1.43736e-07
-9.58769e-06
-1.9422e-07
-9.54474e-06
-2.45188e-07
-9.49369e-06
-2.96591e-07
-9.43447e-06
-3.48373e-07
-9.36706e-06
-4.00478e-07
-9.29143e-06
-4.52846e-07
-9.20754e-06
-5.05414e-07
-9.1154e-06
-5.58117e-07
-9.01499e-06
-6.10888e-07
-8.90633e-06
-6.63656e-07
-8.78944e-06
-7.16349e-07
-8.66435e-06
-7.68892e-07
-8.5311e-06
-8.2121e-07
-8.38975e-06
-8.73225e-07
-8.24037e-06
-9.24858e-07
-8.08303e-06
-9.76028e-07
-7.91783e-06
-1.02665e-06
-7.74487e-06
-1.07666e-06
-7.56426e-06
-1.12595e-06
-7.37614e-06
-1.17446e-06
-7.18064e-06
-1.22209e-06
-6.97792e-06
-1.26877e-06
-6.76814e-06
-1.31443e-06
-6.55147e-06
-1.35897e-06
-6.32811e-06
-1.40232e-06
-6.09826e-06
-1.44441e-06
-5.86212e-06
-1.48517e-06
-5.61992e-06
-1.52451e-06
-5.37189e-06
-1.56237e-06
-5.11828e-06
-1.59868e-06
-4.85935e-06
-1.63336e-06
-4.59537e-06
-1.66632e-06
-4.32663e-06
-1.69746e-06
-4.05346e-06
-1.72661e-06
-3.7762e-06
-1.75356e-06
-3.49526e-06
-1.77795e-06
-3.21114e-06
-1.79927e-06
-2.92442e-06
-1.81669e-06
-2.63589e-06
-1.82899e-06
-2.34657e-06
-1.83443e-06
-2.05779e-06
-1.83055e-06
-1.77136e-06
-1.81407e-06
-1.48966e-06
-1.78078e-06
-1.21578e-06
-1.72552e-06
-9.53672e-07
-1.64232e-06
-7.08333e-07
-1.52462e-06
-4.85913e-07
-1.36574e-06
-2.93913e-07
-1.1594e-06
-1.41368e-07
-9.0042e-07
-3.90795e-08
-5.85396e-07
-2.13537e-07
-3.17356e-08
1.9138e-07
-1.14081e-07
5.17738e-07
-2.36304e-07
7.91397e-07
-3.89609e-07
1.01549e-06
-5.66726e-07
1.1939e-06
-7.61683e-07
1.3314e-06
-9.69637e-07
1.43355e-06
-1.18674e-06
1.50636e-06
-1.41001e-06
1.55577e-06
-1.63719e-06
1.58725e-06
-1.86663e-06
1.60549e-06
-2.09713e-06
1.61428e-06
-2.32786e-06
1.61652e-06
-2.55823e-06
1.61429e-06
-2.78781e-06
1.60902e-06
-3.0163e-06
1.60164e-06
-3.24347e-06
1.59274e-06
-3.46914e-06
1.58265e-06
-3.69315e-06
1.57158e-06
-3.91535e-06
1.55963e-06
-4.1356e-06
1.54684e-06
-4.35379e-06
1.53324e-06
-4.56978e-06
1.51882e-06
-4.78344e-06
1.50358e-06
-4.99466e-06
1.48752e-06
-5.2033e-06
1.47062e-06
-5.40924e-06
1.45287e-06
-5.61236e-06
1.43426e-06
-5.81252e-06
1.41478e-06
-6.0096e-06
1.39441e-06
-6.20348e-06
1.37315e-06
-6.39401e-06
1.35098e-06
-6.58108e-06
1.32789e-06
-6.76455e-06
1.30387e-06
-6.94429e-06
1.27891e-06
-7.12016e-06
1.25299e-06
-7.29203e-06
1.2261e-06
-7.45976e-06
1.19824e-06
-7.62322e-06
1.16938e-06
-7.78227e-06
1.13953e-06
-7.93678e-06
1.10867e-06
-8.0866e-06
1.07679e-06
-8.23159e-06
1.04388e-06
-8.37162e-06
1.00993e-06
-8.50655e-06
9.74937e-07
-8.63622e-06
9.38893e-07
-8.76051e-06
9.01793e-07
-8.87927e-06
8.63632e-07
-8.99236e-06
8.24407e-07
-9.09964e-06
7.84115e-07
-9.20096e-06
7.42757e-07
-9.29619e-06
7.00334e-07
-9.38519e-06
6.5685e-07
-9.46782e-06
6.12309e-07
-9.54394e-06
5.66719e-07
-9.61342e-06
5.20089e-07
-9.67612e-06
4.72432e-07
-9.73191e-06
4.23761e-07
-9.78067e-06
3.74094e-07
-9.82227e-06
3.2345e-07
-9.85659e-06
2.71851e-07
-9.8835e-06
2.19324e-07
-9.9029e-06
1.65897e-07
-9.91467e-06
1.11601e-07
-9.91871e-06
5.64722e-08
-9.91492e-06
5.48537e-10
-9.90321e-06
-5.61282e-08
-9.88348e-06
-1.13513e-07
-9.85566e-06
-1.71556e-07
-9.81967e-06
-2.30207e-07
-9.77545e-06
-2.89408e-07
-9.72294e-06
-3.49102e-07
-9.66209e-06
-4.09225e-07
-9.59285e-06
-4.69712e-07
-9.51521e-06
-5.30493e-07
-9.42913e-06
-5.91495e-07
-9.3346e-06
-6.52645e-07
-9.23162e-06