/*--------------------------------*- C++ -*----------------------------------*\
| =========                 |                                                 |
| \\      /  F ield         | OpenFOAM: The Open Source CFD Toolbox           |
|  \\    /   O peration     | Version:  2406                                  |
|   \\  /    A nd           | Website:  www.openfoam.com                      |
|    \\/     M anipulation  |                                                 |
\*---------------------------------------------------------------------------*/
FoamFile
{
    version     2.0;
    format      ascii;
    arch        "LSB;label=32;scalar=64";
    class       volVectorField;
    location    "27.9";
    object      Uold;
}
// * * * * * * * * * * * * * * * * * * * * * * * * * * * * * * * * * * * * * //

dimensions      [0 1 -1 0 0 0 0];

internalField   nonuniform List<vector> 
3600
(
(4.26683e-05 -4.32813e-05 0)
(0.000404581 -0.000169034 0)
(0.000999267 -0.000216182 0)
(0.00160247 -0.000215197 0)
(0.0021804 -0.000187243 0)
(0.00264064 -0.000152107 0)
(0.00300591 -0.000117467 0)
(0.00324724 -8.64748e-05 0)
(0.00338856 -5.96067e-05 0)
(0.00341487 -3.46432e-05 0)
(0.00333095 -9.6589e-06 0)
(0.00311438 1.90148e-05 0)
(0.00274585 5.44515e-05 0)
(0.00218604 0.000101119 0)
(0.00139045 0.000162716 0)
(0.000300944 0.000243007 0)
(-0.00114369 0.000343977 0)
(-0.00300586 0.000466302 0)
(-0.00533993 0.000607494 0)
(-0.00818642 0.000762009 0)
(-0.0115635 0.00092232 0)
(-0.0154572 0.00108241 0)
(-0.0198098 0.00123755 0)
(-0.0245093 0.00138018 0)
(-0.029385 0.00149376 0)
(-0.0342088 0.00155154 0)
(-0.0387066 0.00152127 0)
(-0.042576 0.00137414 0)
(-0.0455112 0.00109263 0)
(-0.0472286 0.00067532 0)
(-0.0474926 0.000137661 0)
(-0.0461372 -0.000489309 0)
(-0.0430847 -0.00116191 0)
(-0.0383595 -0.00182696 0)
(-0.0320982 -0.00242604 0)
(-0.0245519 -0.00290014 0)
(-0.0160829 -0.00319595 0)
(-0.00714537 -0.00327273 0)
(0.00173885 -0.00310999 0)
(0.0100291 -0.00271404 0)
(0.017212 -0.00212156 0)
(0.0228699 -0.00139866 0)
(0.0267235 -0.000632283 0)
(0.0286849 8.35316e-05 0)
(0.0288507 0.000668101 0)
(0.027501 0.00106986 0)
(0.0250201 0.00127879 0)
(0.0218541 0.00131987 0)
(0.0184016 0.00124215 0)
(0.0150037 0.00109562 0)
(0.011867 0.000923459 0)
(0.00913157 0.000751241 0)
(0.00681314 0.000597289 0)
(0.0049244 0.000465974 0)
(0.00338243 0.000364472 0)
(0.00216791 0.0002825 0)
(0.00118597 0.000217911 0)
(0.000473081 0.000133255 0)
(2.33335e-05 3.33738e-05 0)
(-7.98478e-05 -8.38457e-05 0)
(0.000168503 -0.00040414 0)
(0.000931267 -0.000931332 0)
(0.00203817 -0.0011149 0)
(0.00311941 -0.00108197 0)
(0.00411163 -0.000927034 0)
(0.00485221 -0.000715045 0)
(0.00534503 -0.000485376 0)
(0.00552119 -0.000246644 0)
(0.00538152 -2.94249e-06 0)
(0.00486968 0.00026023 0)
(0.00394719 0.00055416 0)
(0.0025316 0.000900227 0)
(0.00053508 0.00131554 0)
(-0.00216213 0.00182213 0)
(-0.00568903 0.00243514 0)
(-0.0101851 0.00316497 0)
(-0.0157757 0.00400703 0)
(-0.0225541 0.00494343 0)
(-0.030553 0.00593956 0)
(-0.0397169 0.00694742 0)
(-0.0498766 0.00790121 0)
(-0.0607372 0.00871611 0)
(-0.071892 0.00929009 0)
(-0.0828554 0.00951868 0)
(-0.0931108 0.00931209 0)
(-0.102157 0.00861097 0)
(-0.109545 0.00739314 0)
(-0.114906 0.00567546 0)
(-0.117954 0.00350989 0)
(-0.118495 0.000979151 0)
(-0.116422 -0.00180914 0)
(-0.111712 -0.00472625 0)
(-0.104427 -0.00762681 0)
(-0.0947191 -0.010352 0)
(-0.0828338 -0.0127357 0)
(-0.069113 -0.0146121 0)
(-0.054 -0.0158289 0)
(-0.0380299 -0.0162622 0)
(-0.0218201 -0.0158375 0)
(-0.00603562 -0.0145467 0)
(0.00864152 -0.0124641 0)
(0.021576 -0.00975013 0)
(0.0322185 -0.00664141 0)
(0.0401816 -0.00342568 0)
(0.0452567 -0.000399576 0)
(0.0474731 0.00217432 0)
(0.0470596 0.00411599 0)
(0.0444658 0.00534811 0)
(0.0402455 0.00590709 0)
(0.0350433 0.005909 0)
(0.0294223 0.00552044 0)
(0.0238912 0.00490177 0)
(0.0187445 0.00419655 0)
(0.0142104 0.00349551 0)
(0.0102969 0.00286868 0)
(0.00705488 0.00231505 0)
(0.00436465 0.00183135 0)
(0.00230183 0.00130144 0)
(0.000806031 0.000721279 0)
(7.11796e-05 4.3947e-05 0)
(0.000223152 -0.00100222 0)
(0.00113213 -0.00203968 0)
(0.00238689 -0.00236703 0)
(0.0035308 -0.00222871 0)
(0.00448445 -0.00183555 0)
(0.00504994 -0.00129308 0)
(0.00520228 -0.00068376 0)
(0.00483293 -1.3523e-05 0)
(0.00389305 0.000713404 0)
(0.00226833 0.0015363 0)
(-0.000151158 0.00248586 0)
(-0.00352495 0.00361332 0)
(-0.00802486 0.00495752 0)
(-0.0138472 0.00656048 0)
(-0.0211805 0.00843948 0)
(-0.0301822 0.0105867 0)
(-0.0409336 0.0129466 0)
(-0.0533918 0.015417 0)
(-0.0673475 0.0178396 0)
(-0.0824103 0.0200103 0)
(-0.0980399 0.0216979 0)
(-0.113611 0.0226866 0)
(-0.128495 0.0228118 0)
(-0.142124 0.0219828 0)
(-0.15403 0.0201808 0)
(-0.163856 0.017448 0)
(-0.171345 0.0138696 0)
(-0.17632 0.009562 0)
(-0.178671 0.00466254 0)
(-0.178334 -0.000673644 0)
(-0.175284 -0.00627531 0)
(-0.169532 -0.0119525 0)
(-0.161129 -0.0174959 0)
(-0.150176 -0.0226748 0)
(-0.136838 -0.0272416 0)
(-0.121358 -0.0309389 0)
(-0.104071 -0.0335175 0)
(-0.0854166 -0.0347586 0)
(-0.0659351 -0.0345062 0)
(-0.046253 -0.0326978 0)
(-0.0270603 -0.0293947 0)
(-0.00905463 -0.0247942 0)
(0.00709692 -0.0192267 0)
(0.020834 -0.0131244 0)
(0.0317236 -0.00697194 0)
(0.0395293 -0.00124685 0)
(0.0441879 0.00364574 0)
(0.0458705 0.00741717 0)
(0.0449098 0.00993769 0)
(0.0418474 0.011234 0)
(0.0372763 0.0114807 0)
(0.0318716 0.0109361 0)
(0.0261598 0.00989825 0)
(0.0206329 0.00862346 0)
(0.0155077 0.00732082 0)
(0.0110178 0.00607463 0)
(0.00712217 0.00490765 0)
(0.00400083 0.00366235 0)
(0.0015759 0.00227271 0)
(0.000233774 0.000619483 0)
(0.000237235 -0.00162955 0)
(0.00112492 -0.00312789 0)
(0.00225481 -0.0035047 0)
(0.00314431 -0.00314227 0)
(0.00369957 -0.00238324 0)
(0.00370634 -0.00135714 0)
(0.00309796 -0.000179296 0)
(0.00171886 0.00116334 0)
(-0.000552554 0.00267766 0)
(-0.00390551 0.00443888 0)
(-0.00854069 0.00650349 0)
(-0.0147001 0.00895287 0)
(-0.0226291 0.0118359 0)
(-0.0325547 0.0151847 0)
(-0.0446314 0.0189645 0)
(-0.0588761 0.0230681 0)
(-0.0751085 0.0272825 0)
(-0.092918 0.031304 0)
(-0.1117 0.0347684 0)
(-0.130744 0.0373269 0)
(-0.149346 0.0387082 0)
(-0.166897 0.0387581 0)
(-0.182926 0.0374324 0)
(-0.197092 0.0347746 0)
(-0.209168 0.0308832 0)
(-0.219002 0.0258893 0)
(-0.226494 0.0199379 0)
(-0.231573 0.0131828 0)
(-0.234182 0.00578259 0)
(-0.23427 -0.00209374 0)
(-0.231791 -0.0102627 0)
(-0.226703 -0.0185169 0)
(-0.218981 -0.026619 0)
(-0.208622 -0.034295 0)
(-0.195669 -0.0412353 0)
(-0.180229 -0.0471002 0)
(-0.1625 -0.0515402 0)
(-0.14279 -0.0542235 0)
(-0.121539 -0.0548807 0)
(-0.0993146 -0.0533502 0)
(-0.0768068 -0.0496284 0)
(-0.054773 -0.0438971 0)
(-0.0339905 -0.0365315 0)
(-0.015164 -0.0280643 0)
(0.00111874 -0.0191253 0)
(0.0144618 -0.0103605 0)
(0.0246327 -0.00235513 0)
(0.031608 0.00441973 0)
(0.0354942 0.00965352 0)
(0.0366056 0.0132091 0)
(0.0353495 0.015142 0)
(0.0323173 0.0156664 0)
(0.0280626 0.0151205 0)
(0.0232179 0.0138733 0)
(0.0181802 0.0122722 0)
(0.0133956 0.0105354 0)
(0.00896758 0.00875578 0)
(0.00523683 0.00679474 0)
(0.0021712 0.00448651 0)
(0.000364131 0.00158344 0)
(0.000221791 -0.00225183 0)
(0.000954873 -0.00409987 0)
(0.00174611 -0.00438691 0)
(0.00213298 -0.00364405 0)
(0.00199664 -0.00234697 0)
(0.00111472 -0.000628869 0)
(-0.000640814 0.00137648 0)
(-0.00347977 0.00371989 0)
(-0.0076152 0.00643121 0)
(-0.0133153 0.00962973 0)
(-0.0208688 0.0133946 0)
(-0.0305669 0.0178189 0)
(-0.0426593 0.0229173 0)
(-0.0572769 0.0286336 0)
(-0.074359 0.0347663 0)
(-0.0935773 0.0409751 0)
(-0.11435 0.04679 0)
(-0.135916 0.0517114 0)
(-0.157492 0.055305 0)
(-0.178377 0.0572833 0)
(-0.198037 0.0575129 0)
(-0.216089 0.0559929 0)
(-0.232287 0.0528089 0)
(-0.246472 0.0481001 0)
(-0.258552 0.042028 0)
(-0.268467 0.0347624 0)
(-0.276183 0.0264705 0)
(-0.281671 0.0173163 0)
(-0.284902 0.00746171 0)
(-0.28584 -0.00292509 0)
(-0.284433 -0.0136625 0)
(-0.280614 -0.0245416 0)
(-0.274303 -0.0353167 0)
(-0.265406 -0.0456919 0)
(-0.253844 -0.0553165 0)
(-0.239561 -0.0637843 0)
(-0.22257 -0.0706492 0)
(-0.20298 -0.0754527 0)
(-0.18105 -0.0777758 0)
(-0.157213 -0.0772998 0)
(-0.132103 -0.0738834 0)
(-0.106528 -0.0676209 0)
(-0.0814181 -0.05888 0)
(-0.0577158 -0.0482786 0)
(-0.0362682 -0.0366138 0)
(-0.0176974 -0.02474 0)
(-0.00238412 -0.0134514 0)
(0.00956027 -0.00339711 0)
(0.018173 0.00496034 0)
(0.0236668 0.0113459 0)
(0.0263098 0.015683 0)
(0.0265503 0.0180829 0)
(0.0248412 0.0188296 0)
(0.0218011 0.0183176 0)
(0.0178886 0.0169695 0)
(0.0136858 0.0151261 0)
(0.00943468 0.0129571 0)
(0.00564212 0.0103826 0)
(0.00237894 0.00712498 0)
(0.00040633 0.00279392 0)
(0.00018523 -0.0027426 0)
(0.000638845 -0.00470595 0)
(0.000878489 -0.00469462 0)
(0.000516037 -0.00337418 0)
(-0.00060476 -0.00133143 0)
(-0.00270768 0.00132597 0)
(-0.00600697 0.00446901 0)
(-0.0107723 0.00820347 0)
(-0.0173196 0.0125884 0)
(-0.0259798 0.0177776 0)
(-0.0370911 0.023841 0)
(-0.0509036 0.0308186 0)
(-0.0675292 0.0385881 0)
(-0.0868131 0.0468708 0)
(-0.108311 0.0551758 0)
(-0.131295 0.062893 0)
(-0.154915 0.0693967 0)
(-0.178338 0.0741955 0)
(-0.200888 0.0769853 0)
(-0.222062 0.077655 0)
(-0.241527 0.0762332 0)
(-0.25907 0.0728456 0)
(-0.274578 0.0676672 0)
(-0.287997 0.0608985 0)
(-0.299329 0.0527411 0)
(-0.308605 0.0433899 0)
(-0.315878 0.0330233 0)
(-0.321201 0.0218059 0)
(-0.324622 0.00988782 0)
(-0.326161 -0.00258377 0)
(-0.32581 -0.015457 0)
(-0.323508 -0.0285571 0)
(-0.319152 -0.0416726 0)
(-0.312581 -0.0545341 0)
(-0.303595 -0.0668013 0)
(-0.291962 -0.0780491 0)
(-0.277461 -0.0877725 0)
(-0.259921 -0.0954022 0)
(-0.239291 -0.100352 0)
(-0.21571 -0.102085 0)
(-0.189578 -0.100217 0)
(-0.161595 -0.0946109 0)
(-0.132762 -0.0854804 0)
(-0.104279 -0.0734154 0)
(-0.0774042 -0.0593446 0)
(-0.0532255 -0.0443873 0)
(-0.0325044 -0.0296596 0)
(-0.0155638 -0.0160919 0)
(-0.00240396 -0.00433935 0)
(0.00722708 0.005209 0)
(0.0136225 0.0123892 0)
(0.017193 0.0172277 0)
(0.0183179 0.019924 0)
(0.0175476 0.0208312 0)
(0.0153238 0.0203694 0)
(0.0122729 0.0189451 0)
(0.00873387 0.0167742 0)
(0.00533427 0.0138361 0)
(0.00226924 0.00975136 0)
(0.000384775 0.00401136 0)
(0.000121506 -0.00306743 0)
(0.000161389 -0.0048359 0)
(-0.000359896 -0.00427222 0)
(-0.00170512 -0.00214339 0)
(-0.0040859 0.000896346 0)
(-0.0077249 0.00480041 0)
(-0.0129455 0.00946737 0)
(-0.0200704 0.0150646 0)
(-0.0295054 0.0216685 0)
(-0.0415877 0.0294274 0)
(-0.0566118 0.0383259 0)
(-0.0746404 0.0482335 0)
(-0.095484 0.0587533 0)
(-0.118585 0.069284 0)
(-0.143136 0.0790592 0)
(-0.168196 0.0873484 0)
(-0.192903 0.093579 0)
(-0.216552 0.0974237 0)
(-0.238644 0.0987647 0)
(-0.25883 0.097653 0)
(-0.276914 0.0942426 0)
(-0.292797 0.0887561 0)
(-0.30648 0.0814439 0)
(-0.318031 0.072566 0)
(-0.327574 0.0623671 0)
(-0.33526 0.0510693 0)
(-0.341256 0.0388604 0)
(-0.345715 0.0258977 0)
(-0.348771 0.0123088 0)
(-0.350517 -0.00179562 0)
(-0.350997 -0.0163125 0)
(-0.350191 -0.0311258 0)
(-0.348007 -0.0460909 0)
(-0.344268 -0.061007 0)
(-0.338711 -0.0755979 0)
(-0.330981 -0.0894839 0)
(-0.320657 -0.10217 0)
(-0.307281 -0.113041 0)
(-0.290433 -0.121385 0)
(-0.269813 -0.126447 0)
(-0.245369 -0.127533 0)
(-0.21741 -0.124134 0)
(-0.186703 -0.116094 0)
(-0.15448 -0.103731 0)
(-0.122344 -0.0879053 0)
(-0.0920067 -0.0699343 0)
(-0.0649742 -0.0513652 0)
(-0.0422011 -0.0336459 0)
(-0.0240092 -0.0178553 0)
(-0.0101567 -0.00461218 0)
(-0.000187839 0.00584369 0)
(0.00646078 0.0135246 0)
(0.0102486 0.0186038 0)
(0.0117255 0.021404 0)
(0.0113231 0.022311 0)
(0.00966321 0.0217453 0)
(0.00714286 0.0199279 0)
(0.00444897 0.0168734 0)
(0.00188906 0.0121266 0)
(0.000306529 0.0051077 0)
(2.29868e-05 -0.00309838 0)
(-0.000504101 -0.00425267 0)
(-0.00200853 -0.00283477 0)
(-0.00457244 0.000363067 0)
(-0.00848641 0.00468724 0)
(-0.0139674 0.0101895 0)
(-0.0214621 0.0168109 0)
(-0.031318 0.0247636 0)
(-0.0439853 0.0340973 0)
(-0.059707 0.0448681 0)
(-0.0786029 0.0568547 0)
(-0.100401 0.0696236 0)
(-0.12453 0.0824262 0)
(-0.150077 0.0943809 0)
(-0.176058 0.104611 0)
(-0.20152 0.112459 0)
(-0.225724 0.11753 0)
(-0.248102 0.11969 0)
(-0.268292 0.118994 0)
(-0.286072 0.115638 0)
(-0.301383 0.109902 0)
(-0.314276 0.102117 0)
(-0.324913 0.0926213 0)
(-0.333511 0.0817358 0)
(-0.340333 0.069741 0)
(-0.345644 0.0568703 0)
(-0.349704 0.0433015 0)
(-0.352734 0.0291663 0)
(-0.354929 0.0145531 0)
(-0.356429 -0.000476997 0)
(-0.357327 -0.0158814 0)
(-0.357652 -0.0316159 0)
(-0.357364 -0.0476206 0)
(-0.35633 -0.0637932 0)
(-0.354317 -0.0799663 0)
(-0.350961 -0.0958721 0)
(-0.345768 -0.111114 0)
(-0.33811 -0.125136 0)
(-0.327269 -0.137211 0)
(-0.312505 -0.146461 0)
(-0.293194 -0.151919 0)
(-0.268989 -0.152655 0)
(-0.240024 -0.147959 0)
(-0.207071 -0.137569 0)
(-0.171624 -0.121875 0)
(-0.135767 -0.102026 0)
(-0.101847 -0.0798291 0)
(-0.0719231 -0.0573883 0)
(-0.047281 -0.0365871 0)
(-0.0281786 -0.0186703 0)
(-0.0141415 -0.00416293 0)
(-0.00433451 0.00692427 0)
(0.00199161 0.0148274 0)
(0.00555534 0.0199175 0)
(0.0068809 0.0225828 0)
(0.00660933 0.0232436 0)
(0.00519112 0.0221039 0)
(0.00332664 0.0191856 0)
(0.00141019 0.0139948 0)
(0.00021406 0.00594328 0)
(-0.000118205 -0.00275674 0)
(-0.00137311 -0.00280574 0)
(-0.00407176 -0.000207815 0)
(-0.008064 0.0043354 0)
(-0.0137466 0.0102606 0)
(-0.0213203 0.0177466 0)
(-0.0313509 0.0267717 0)
(-0.0441529 0.0375429 0)
(-0.0601401 0.0499989 0)
(-0.0793361 0.0639801 0)
(-0.101569 0.0789355 0)
(-0.12617 0.0940591 0)
(-0.152244 0.1083 0)
(-0.178681 0.120654 0)
(-0.204491 0.130311 0)
(-0.228808 0.136792 0)
(-0.251025 0.139906 0)
(-0.270705 0.139713 0)
(-0.287643 0.136444 0)
(-0.301795 0.130462 0)
(-0.313303 0.122188 0)
(-0.322406 0.112065 0)
(-0.329437 0.100501 0)
(-0.334743 0.0878529 0)
(-0.338682 0.0744053 0)
(-0.341568 0.0603722 0)
(-0.343686 0.0458982 0)
(-0.345265 0.031075 0)
(-0.346496 0.0159472 0)
(-0.347522 0.000531223 0)
(-0.348452 -0.0151794 0)
(-0.349348 -0.0311957 0)
(-0.350231 -0.0475269 0)
(-0.351054 -0.0641585 0)
(-0.35169 -0.0810365 0)
(-0.351891 -0.0980329 0)
(-0.351262 -0.114913 0)
(-0.349215 -0.131286 0)
(-0.344966 -0.146562 0)
(-0.337544 -0.159916 0)
(-0.325877 -0.170295 0)
(-0.308939 -0.176475 0)
(-0.285995 -0.177215 0)
(-0.25688 -0.171499 0)
(-0.222294 -0.158858 0)
(-0.183955 -0.139692 0)
(-0.144516 -0.115472 0)
(-0.107087 -0.08862 0)
(-0.0744701 -0.0619802 0)
(-0.0483072 -0.0379967 0)
(-0.0288036 -0.0180803 0)
(-0.0150707 -0.00256906 0)
(-0.00594115 0.00883235 0)
(-0.000306796 0.0166604 0)
(0.00263357 0.0214186 0)
(0.00364411 0.0235816 0)
(0.00327004 0.023361 0)
(0.002218 0.0207811 0)
(0.000945161 0.0153556 0)
(0.000128535 0.00653641 0)
(-0.000309333 -0.00189511 0)
(-0.00245713 -0.000266153 0)
(-0.00654594 0.00385262 0)
(-0.0121467 0.0100247 0)
(-0.0197882 0.0178812 0)
(-0.0296312 0.0277346 0)
(-0.0423316 0.039565 0)
(-0.0580868 0.0534837 0)
(-0.0771773 0.0692047 0)
(-0.0992991 0.0862299 0)
(-0.123943 0.103614 0)
(-0.150083 0.120218 0)
(-0.176643 0.134833 0)
(-0.202457 0.146495 0)
(-0.226623 0.15457 0)
(-0.248388 0.158798 0)
(-0.267311 0.159212 0)
(-0.283141 0.156096 0)
(-0.295913 0.149895 0)
(-0.305818 0.141149 0)
(-0.313224 0.130414 0)
(-0.318541 0.118207 0)
(-0.322226 0.104962 0)
(-0.324682 0.0910206 0)
(-0.326281 0.0766268 0)
(-0.327309 0.0619419 0)
(-0.328009 0.0470558 0)
(-0.32855 0.0320104 0)
(-0.329075 0.0168085 0)
(-0.329683 0.0014324 0)
(-0.330463 -0.0141536 0)
(-0.331478 -0.0299895 0)
(-0.33279 -0.0461209 0)
(-0.334423 -0.0625857 0)
(-0.336375 -0.0794096 0)
(-0.338562 -0.0965827 0)
(-0.340797 -0.114035 0)
(-0.342713 -0.131586 0)
(-0.343722 -0.14889 0)
(-0.342949 -0.16536 0)
(-0.339231 -0.180104 0)
(-0.331169 -0.191894 0)
(-0.317305 -0.199215 0)
(-0.296414 -0.200426 0)
(-0.267916 -0.19408 0)
(-0.232311 -0.17937 0)
(-0.1915 -0.156632 0)
(-0.148743 -0.127699 0)
(-0.108082 -0.0957873 0)
(-0.0731723 -0.0647142 0)
(-0.0460684 -0.0376073 0)
(-0.0267353 -0.015981 0)
(-0.0138355 0.000141313 0)
(-0.00572117 0.011478 0)
(-0.00108347 0.018804 0)
(0.0011465 0.0227804 0)
(0.00170765 0.0237145 0)
(0.0013566 0.0216704 0)
(0.000611394 0.0162239 0)
(7.64661e-05 0.00690454 0)
(-0.000549657 -0.00041294 0)
(-0.00373182 0.00350361 0)
(-0.0093575 0.00947179 0)
(-0.0166825 0.0175413 0)
(-0.0263858 0.0276433 0)
(-0.0385495 0.0401982 0)
(-0.0538688 0.0551192 0)
(-0.0723293 0.0723047 0)
(-0.0939961 0.091133 0)
(-0.118185 0.110691 0)
(-0.144087 0.129665 0)
(-0.170429 0.146698 0)
(-0.196087 0.160585 0)
(-0.219938 0.170518 0)
(-0.241222 0.176098 0)
(-0.25936 0.177328 0)
(-0.274159 0.174515 0)
(-0.285637 0.168204 0)
(-0.294117 0.159058 0)
(-0.300025 0.147769 0)
(-0.303906 0.134966 0)
(-0.306264 0.121174 0)
(-0.307582 0.106785 0)
(-0.30823 0.0920733 0)
(-0.308514 0.0772035 0)
(-0.308629 0.0622635 0)
(-0.308726 0.0472815 0)
(-0.308886 0.0322542 0)
(-0.309176 0.0171545 0)
(-0.309635 0.00194896 0)
(-0.310312 -0.0134039 0)
(-0.31125 -0.0289446 0)
(-0.312514 -0.0447194 0)
(-0.314166 -0.060775 0)
(-0.316282 -0.0771646 0)
(-0.318907 -0.0939368 0)
(-0.32205 -0.111129 0)
(-0.325611 -0.128733 0)
(-0.32933 -0.146653 0)
(-0.332681 -0.16462 0)
(-0.334798 -0.182101 0)
(-0.334401 -0.19818 0)
(-0.329826 -0.211479 0)
(-0.319181 -0.22017 0)
(-0.300699 -0.222136 0)
(-0.273265 -0.215367 0)
(-0.237072 -0.198582 0)
(-0.194137 -0.171985 0)
(-0.148399 -0.137849 0)
(-0.10496 -0.100451 0)
(-0.0684581 -0.0648568 0)
(-0.0412177 -0.0349467 0)
(-0.0227866 -0.0121591 0)
(-0.0111778 0.0040168 0)
(-0.00439375 0.01471 0)
(-0.000830159 0.0209614 0)
(0.000607022 0.0233377 0)
(0.000829316 0.0220418 0)
(0.000447253 0.0167774 0)
(6.27786e-05 0.00716704 0)
(-0.000836669 0.0018216 0)
(-0.00516527 0.00866424 0)
(-0.0124205 0.0167883 0)
(-0.0215183 0.0269983 0)
(-0.0332902 0.0396189 0)
(-0.0476868 0.055115 0)
(-0.0653791 0.0732377 0)
(-0.0860604 0.0935504 0)
(-0.10954 0.11502 0)
(-0.13477 0.136315 0)
(-0.160733 0.155851 0)
(-0.186031 0.172203 0)
(-0.209599 0.184297 0)
(-0.230431 0.191567 0)
(-0.24799 0.193918 0)
(-0.261954 0.191672 0)
(-0.272455 0.185454 0)
(-0.279809 0.176066 0)
(-0.284597 0.164344 0)
(-0.287402 0.151051 0)
(-0.288847 0.136806 0)
(-0.28942 0.122063 0)
(-0.289541 0.107119 0)
(-0.289474 0.0921395 0)
(-0.289411 0.0771963 0)
(-0.289433 0.0623018 0)
(-0.289595 0.0474309 0)
(-0.289893 0.0325483 0)
(-0.290331 0.0176125 0)
(-0.290894 0.0025894 0)
(-0.291597 -0.0125531 0)
(-0.292457 -0.02784 0)
(-0.293528 -0.0432995 0)
(-0.294873 -0.0589615 0)
(-0.296594 -0.0748695 0)
(-0.298793 -0.0910789 0)
(-0.30159 -0.107663 0)
(-0.305065 -0.124702 0)
(-0.309234 -0.142259 0)
(-0.313949 -0.160331 0)
(-0.318805 -0.178757 0)
(-0.323002 -0.197088 0)
(-0.325231 -0.214421 0)
(-0.32363 -0.229254 0)
(-0.315918 -0.239423 0)
(-0.299764 -0.242266 0)
(-0.273461 -0.235078 0)
(-0.236806 -0.215977 0)
(-0.191922 -0.184989 0)
(-0.143519 -0.145022 0)
(-0.0979463 -0.101775 0)
(-0.0608286 -0.0618934 0)
(-0.0344994 -0.0299062 0)
(-0.0176968 -0.00679423 0)
(-0.00781184 0.00863372 0)
(-0.00249602 0.0179672 0)
(-9.27154e-05 0.0222528 0)
(0.000631046 0.0220054 0)
(0.000457415 0.0171449 0)
(8.92367e-05 0.0074051 0)
(-0.00115405 0.00487272 0)
(-0.00667877 0.0152586 0)
(-0.015571 0.0257962 0)
(-0.026394 0.0383338 0)
(-0.0401181 0.0536576 0)
(-0.056505 0.0721829 0)
(-0.076143 0.0934 0)
(-0.0983848 0.116441 0)
(-0.122794 0.139847 0)
(-0.148023 0.161925 0)
(-0.172961 0.180959 0)
(-0.196191 0.195588 0)
(-0.216803 0.204983 0)
(-0.233987 0.208897 0)
(-0.247512 0.207607 0)
(-0.257379 0.201801 0)
(-0.264056 0.192409 0)
(-0.268104 0.180429 0)
(-0.270265 0.166773 0)
(-0.271163 0.152174 0)
(-0.271388 0.137158 0)
(-0.271322 0.122049 0)
(-0.271264 0.107012 0)
(-0.271337 0.092101 0)
(-0.27162 0.0773003 0)
(-0.272088 0.062564 0)
(-0.272723 0.0478341 0)
(-0.273459 0.0330625 0)
(-0.274262 0.0182095 0)
(-0.275085 0.0032533 0)
(-0.275921 -0.0118193 0)
(-0.276765 -0.0270097 0)
(-0.277657 -0.0423196 0)
(-0.278646 -0.057751 0)
(-0.279825 -0.07332 0)
(-0.281304 -0.0890591 0)
(-0.283235 -0.105031 0)
(-0.285775 -0.121331 0)
(-0.289087 -0.138085 0)
(-0.293275 -0.155431 0)
(-0.298321 -0.173469 0)
(-0.303942 -0.192158 0)
(-0.309444 -0.211153 0)
(-0.313529 -0.229589 0)
(-0.314206 -0.245838 0)
(-0.308842 -0.257386 0)
(-0.294569 -0.260931 0)
(-0.269069 -0.252968 0)
(-0.231737 -0.23089 0)
(-0.18487 -0.194623 0)
(-0.134137 -0.148019 0)
(-0.08733 -0.0987827 0)
(-0.0509364 -0.0553717 0)
(-0.0266999 -0.0225265 0)
(-0.0122298 -0.000270538 0)
(-0.00435569 0.0134607 0)
(-0.000657403 0.0204206 0)
(0.000629226 0.0216737 0)
(0.000585545 0.0174833 0)
(0.000143529 0.00772689 0)
(-0.0014861 0.00879663 0)
(-0.00819952 0.0233121 0)
(-0.0186612 0.0364715 0)
(-0.0310783 0.0514637 0)
(-0.0465285 0.0695772 0)
(-0.064533 0.0910658 0)
(-0.0855573 0.115071 0)
(-0.108608 0.140241 0)
(-0.133055 0.164726 0)
(-0.157342 0.186583 0)
(-0.180378 0.204104 0)
(-0.200821 0.216118 0)
(-0.218 0.222139 0)
(-0.231374 0.222315 0)
(-0.241077 0.217346 0)
(-0.247423 0.20827 0)
(-0.251154 0.196254 0)
(-0.252965 0.18238 0)
(-0.253642 0.167528 0)
(-0.253735 0.152312 0)
(-0.253722 0.137101 0)
(-0.253831 0.122067 0)
(-0.254223 0.107242 0)
(-0.254896 0.0925835 0)
(-0.255837 0.0780139 0)
(-0.256952 0.0634532 0)
(-0.25818 0.0488326 0)
(-0.259426 0.0341065 0)
(-0.260641 0.019248 0)
(-0.261767 0.00425233 0)
(-0.262788 -0.010873 0)
(-0.263687 -0.0261069 0)
(-0.264492 -0.0414268 0)
(-0.265231 -0.0568076 0)
(-0.265979 -0.0722358 0)
(-0.266823 -0.0877119 0)
(-0.267898 -0.103266 0)
(-0.269363 -0.118966 0)
(-0.271423 -0.134932 0)
(-0.27429 -0.151339 0)
(-0.278165 -0.168401 0)
(-0.283133 -0.186329 0)
(-0.289041 -0.205204 0)
(-0.295291 -0.224796 0)
(-0.300614 -0.244255 0)
(-0.30289 -0.261811 0)
(-0.29917 -0.27451 0)
(-0.286068 -0.27833 0)
(-0.260695 -0.26881 0)
(-0.22214 -0.242616 0)
(-0.173069 -0.19975 0)
(-0.120451 -0.145669 0)
(-0.073696 -0.0907961 0)
(-0.0397023 -0.0453573 0)
(-0.0187188 -0.0133994 0)
(-0.00709039 0.00669526 0)
(-0.00147573 0.0175262 0)
(0.000620839 0.0209771 0)
(0.000750698 0.0178246 0)
(0.000211268 0.00816939 0)
(-0.00180266 0.0135608 0)
(-0.00961376 0.0327169 0)
(-0.0214836 0.0486351 0)
(-0.0352695 0.0661167 0)
(-0.0521145 0.0869679 0)
(-0.0712662 0.111174 0)
(-0.0930516 0.137478 0)
(-0.116164 0.164036 0)
(-0.139853 0.188699 0)
(-0.162455 0.209392 0)
(-0.182993 0.224553 0)
(-0.200284 0.233309 0)
(-0.213963 0.235602 0)
(-0.223802 0.232026 0)
(-0.230288 0.2237 0)
(-0.233982 0.211933 0)
(-0.235788 0.198019 0)
(-0.236415 0.183003 0)
(-0.236582 0.167635 0)
(-0.236696 0.15235 0)
(-0.237083 0.13734 0)
(-0.23782 0.122626 0)
(-0.238949 0.108136 0)
(-0.240374 0.0937596 0)
(-0.242029 0.0793864 0)
(-0.243784 0.0649274 0)
(-0.245565 0.0503204 0)
(-0.247271 0.0355336 0)
(-0.248856 0.0205586 0)
(-0.25026 0.0054095 0)
(-0.251469 -0.0098865 0)
(-0.252463 -0.0252893 0)
(-0.25326 -0.040756 0)
(-0.253873 -0.0562405 0)
(-0.254357 -0.0717046 0)
(-0.254769 -0.0871199 0)
(-0.25521 -0.102481 0)
(-0.255804 -0.117817 0)
(-0.256731 -0.133203 0)
(-0.258207 -0.148785 0)
(-0.260503 -0.164786 0)
(-0.263887 -0.181508 0)
(-0.268559 -0.199273 0)
(-0.274476 -0.218309 0)
(-0.28113 -0.238476 0)
(-0.287246 -0.258932 0)
(-0.290549 -0.277653 0)
(-0.287738 -0.291148 0)
(-0.27492 -0.294463 0)
(-0.24873 -0.28211 0)
(-0.208144 -0.250041 0)
(-0.15662 -0.198896 0)
(-0.102875 -0.136732 0)
(-0.0580448 -0.0775281 0)
(-0.0283019 -0.0324934 0)
(-0.0114301 -0.00335176 0)
(-0.00299405 0.0130544 0)
(0.00036368 0.0197225 0)
(0.000852135 0.0181328 0)
(0.000273518 0.00874786 0)
(-0.00208173 0.0191021 0)
(-0.0108402 0.0433398 0)
(-0.0238919 0.0620988 0)
(-0.0387585 0.082033 0)
(-0.056601 0.105466 0)
(-0.0763846 0.132026 0)
(-0.0983063 0.160037 0)
(-0.120807 0.187204 0)
(-0.143099 0.211187 0)
(-0.163506 0.229906 0)
(-0.181243 0.242073 0)
(-0.195345 0.2472 0)
(-0.205794 0.245723 0)
(-0.212661 0.238683 0)
(-0.216723 0.227554 0)
(-0.218682 0.213804 0)
(-0.219485 0.198724 0)
(-0.219752 0.183223 0)
(-0.220071 0.167858 0)
(-0.220679 0.152862 0)
(-0.221756 0.138263 0)
(-0.223251 0.123959 0)
(-0.225129 0.109809 0)
(-0.22724 0.0956669 0)
(-0.229497 0.0814171 0)
(-0.231763 0.0669779 0)
(-0.233971 0.0523042 0)
(-0.236025 0.0373821 0)
(-0.237893 0.0222219 0)
(-0.239518 0.00685438 0)
(-0.240893 -0.00867744 0)
(-0.241995 -0.0243193 0)
(-0.242839 -0.0400137 0)
(-0.24343 -0.0557002 0)
(-0.243807 -0.0713235 0)
(-0.244002 -0.0868352 0)
(-0.244088 -0.102203 0)
(-0.244144 -0.11742 0)
(-0.2443 -0.132514 0)
(-0.244724 -0.147576 0)
(-0.245654 -0.162771 0)
(-0.247387 -0.178379 0)
(-0.250267 -0.194779 0)
(-0.254584 -0.212432 0)
(-0.260408 -0.231691 0)
(-0.267291 -0.252535 0)
(-0.273906 -0.274022 0)
(-0.277747 -0.29379 0)
(-0.275082 -0.307526 0)
(-0.261517 -0.309176 0)
(-0.23332 -0.292035 0)
(-0.189779 -0.251704 0)
(-0.135724 -0.190401 0)
(-0.0823014 -0.120404 0)
(-0.0418731 -0.0596882 0)
(-0.0179633 -0.0180098 0)
(-0.00560278 0.00622063 0)
(-0.000348032 0.0175156 0)
(0.000807849 0.0182342 0)
(0.000316877 0.00940619 0)
(-0.00229134 0.0252685 0)
(-0.011773 0.0549252 0)
(-0.0257116 0.0765352 0)
(-0.0413149 0.0987875 0)
(-0.0597163 0.12452 0)
(-0.0796148 0.152954 0)
(-0.101104 0.182017 0)
(-0.12245 0.209032 0)
(-0.142902 0.231591 0)
(-0.160849 0.247726 0)
(-0.175757 0.256524 0)
(-0.186911 0.25795 0)
(-0.194627 0.25295 0)
(-0.199227 0.242963 0)
(-0.201679 0.229711 0)
(-0.202713 0.214692 0)
(-0.203223 0.19909 0)
(-0.203679 0.183603 0)
(-0.204517 0.168578 0)
(-0.20581 0.154051 0)
(-0.207625 0.139922 0)
(-0.209824 0.126005 0)
(-0.212332 0.112123 0)
(-0.214979 0.0981222 0)
(-0.217683 0.0839001 0)
(-0.220314 0.0693921 0)
(-0.222821 0.054574 0)
(-0.225121 0.0394498 0)
(-0.227192 0.0240468 0)
(-0.228983 0.00840917 0)
(-0.230493 -0.00740699 0)
(-0.231698 -0.0233364 0)
(-0.232611 -0.0393104 0)
(-0.23323 -0.055258 0)
(-0.233587 -0.0711119 0)
(-0.233702 -0.086811 0)
(-0.233624 -0.102305 0)
(-0.233403 -0.117564 0)
(-0.233126 -0.13258 0)
(-0.232901 -0.147395 0)
(-0.232902 -0.162103 0)
(-0.233366 -0.176911 0)
(-0.234625 -0.192138 0)
(-0.237073 -0.208279 0)
(-0.241097 -0.225905 0)
(-0.24685 -0.24555 0)
(-0.253908 -0.267219 0)
(-0.260822 -0.289846 0)
(-0.264726 -0.310418 0)
(-0.261379 -0.323577 0)
(-0.245838 -0.321754 0)
(-0.214316 -0.297102 0)
(-0.166931 -0.245492 0)
(-0.110914 -0.172546 0)
(-0.0602704 -0.0969169 0)
(-0.0270646 -0.0389119 0)
(-0.00959832 -0.00387373 0)
(-0.00165197 0.0138478 0)
(0.00056788 0.0178988 0)
(0.000333013 0.010072 0)
(-0.00241625 0.0318845 0)
(-0.012362 0.0672187 0)
(-0.0268613 0.0916555 0)
(-0.042841 0.116045 0)
(-0.0613656 0.143745 0)
(-0.0809067 0.17355 0)
(-0.101491 0.20304 0)
(-0.121286 0.229243 0)
(-0.139645 0.249797 0)
(-0.155084 0.262951 0)
(-0.167339 0.268246 0)
(-0.175953 0.266128 0)
(-0.181531 0.258034 0)
(-0.184561 0.245708 0)
(-0.186097 0.230997 0)
(-0.186811 0.215318 0)
(-0.187482 0.199669 0)
(-0.188409 0.18451 0)
(-0.189882 0.169983 0)
(-0.191846 0.155968 0)
(-0.194295 0.14227 0)
(-0.197042 0.128658 0)
(-0.200005 0.114951 0)
(-0.203015 0.101003 0)
(-0.206009 0.0867351 0)
(-0.208872 0.0721011 0)
(-0.211572 0.0570971 0)
(-0.214035 0.041741 0)
(-0.216248 0.0260731 0)
(-0.218167 0.0101474 0)
(-0.21979 -0.00597043 0)
(-0.221091 -0.0222069 0)
(-0.222085 -0.0384842 0)
(-0.222766 -0.0547235 0)
(-0.223159 -0.0708483 0)
(-0.223277 -0.0867894 0)
(-0.22316 -0.102486 0)
(-0.22284 -0.117894 0)
(-0.222375 -0.132983 0)
(-0.22183 -0.147763 0)
(-0.221317 -0.16227 0)
(-0.220992 -0.176634 0)
(-0.221108 -0.191073 0)
(-0.222015 -0.206001 0)
(-0.224174 -0.221986 0)
(-0.228042 -0.2398 0)
(-0.233835 -0.260066 0)
(-0.241092 -0.282857 0)
(-0.248108 -0.306681 0)
(-0.251543 -0.32767 0)
(-0.246471 -0.338837 0)
(-0.227557 -0.330896 0)
(-0.191261 -0.295003 0)
(-0.139662 -0.228833 0)
(-0.0833162 -0.144475 0)
(-0.0392921 -0.0681345 0)
(-0.0150939 -0.018266 0)
(-0.00366316 0.0080838 0)
(0.000126406 0.0168274 0)
(0.000318206 0.0106467 0)
(-0.00243612 0.0387095 0)
(-0.0125456 0.0798713 0)
(-0.0272521 0.107059 0)
(-0.0432421 0.133336 0)
(-0.0614767 0.162604 0)
(-0.0802534 0.193253 0)
(-0.0995699 0.222588 0)
(-0.117572 0.247435 0)
(-0.133758 0.265583 0)
(-0.14681 0.275578 0)
(-0.156735 0.27746 0)
(-0.163302 0.272148 0)
(-0.167334 0.261503 0)
(-0.1694 0.247462 0)
(-0.170551 0.231888 0)
(-0.171341 0.216025 0)
(-0.172408 0.200649 0)
(-0.173892 0.185984 0)
(-0.175967 0.172 0)
(-0.178489 0.158457 0)
(-0.181413 0.145109 0)
(-0.184538 0.131707 0)
(-0.187793 0.118086 0)
(-0.191023 0.104119 0)
(-0.194189 0.0897493 0)
(-0.197192 0.0749505 0)
(-0.200013 0.0597337 0)
(-0.202587 0.0441268 0)
(-0.204907 0.0281796 0)
(-0.206927 0.0119527 0)
(-0.208647 -0.0044798 0)
(-0.210039 -0.0210373 0)
(-0.211115 -0.0376332 0)
(-0.211865 -0.0541812 0)
(-0.212315 -0.070596 0)
(-0.212472 -0.0868024 0)
(-0.212374 -0.102731 0)
(-0.212044 -0.118333 0)
(-0.211529 -0.133566 0)
(-0.210868 -0.148423 0)
(-0.210132 -0.162905 0)
(-0.209408 -0.177089 0)
(-0.208862 -0.191093 0)
(-0.208741 -0.205217 0)
(-0.209441 -0.219907 0)
(-0.211476 -0.235936 0)
(-0.215377 -0.254178 0)
(-0.221382 -0.275476 0)
(-0.228871 -0.299685 0)
(-0.235752 -0.324749 0)
(-0.237952 -0.345254 0)
(-0.229889 -0.352189 0)
(-0.205901 -0.334195 0)
(-0.163696 -0.282411 0)
(-0.108391 -0.199267 0)
(-0.0554361 -0.107276 0)
(-0.0220819 -0.038431 0)
(-0.00651986 -0.000369927 0)
(-0.000512034 0.0146606 0)
(0.000274149 0.0110523 0)
(-0.00235163 0.0455104 0)
(-0.012325 0.092583 0)
(-0.0268933 0.122447 0)
(-0.0425551 0.150366 0)
(-0.060139 0.180821 0)
(-0.0778314 0.211855 0)
(-0.0956329 0.240571 0)
(-0.111733 0.263682 0)
(-0.125797 0.279212 0)
(-0.13669 0.286053 0)
(-0.144666 0.284763 0)
(-0.149673 0.276696 0)
(-0.152671 0.264046 0)
(-0.154233 0.248839 0)
(-0.155345 0.232856 0)
(-0.156416 0.217121 0)
(-0.157946 0.202182 0)
(-0.159943 0.188051 0)
(-0.162499 0.174567 0)
(-0.165418 0.161408 0)
(-0.168648 0.148311 0)
(-0.171991 0.135031 0)
(-0.175399 0.121426 0)
(-0.178736 0.107393 0)
(-0.181985 0.0928954 0)
(-0.185059 0.0779195 0)
(-0.187951 0.0624874 0)
(-0.1906 0.0466322 0)
(-0.193001 0.0304098 0)
(-0.195106 0.0138852 0)
(-0.196916 -0.00286083 0)
(-0.198397 -0.0197415 0)
(-0.19956 -0.0366615 0)
(-0.200393 -0.0535273 0)
(-0.200918 -0.0702447 0)
(-0.201141 -0.0867324 0)
(-0.201099 -0.102913 0)
(-0.200811 -0.118736 0)
(-0.200322 -0.13415 0)
(-0.199659 -0.149146 0)
(-0.198875 -0.163706 0)
(-0.198015 -0.17788 0)
(-0.197176 -0.191715 0)