/*--------------------------------*- C++ -*----------------------------------*\
| =========                 |                                                 |
| \\      /  F ield         | OpenFOAM: The Open Source CFD Toolbox           |
|  \\    /   O peration     | Version:  2406                                  |
|   \\  /    A nd           | Website:  www.openfoam.com                      |
|    \\/     M anipulation  |                                                 |
\*---------------------------------------------------------------------------*/
FoamFile
{
    version     2.0;
    format      ascii;
    arch        "LSB;label=32;scalar=64";
    class       volVectorField;
    location    "9.2";
    object      U_0;
}
// * * * * * * * * * * * * * * * * * * * * * * * * * * * * * * * * * * * * * //

dimensions      [0 1 -1 0 0 0 0];

internalField   nonuniform List<vector> 
14400
(
(2.77394e-06 -2.76157e-06 0)
(7.44071e-06 -8.55669e-07 0)
(2.07803e-07 2.6305e-06 0)
(-2.07848e-05 6.16935e-06 0)
(-5.48971e-05 9.17708e-06 0)
(-9.99159e-05 1.15471e-05 0)
(-0.000153446 1.33104e-05 0)
(-0.000213312 1.45622e-05 0)
(-0.00027769 1.54102e-05 0)
(-0.000345142 1.5953e-05 0)
(-0.000414574 1.62742e-05 0)
(-0.000485192 1.64414e-05 0)
(-0.000556442 1.65069e-05 0)
(-0.000627956 1.65103e-05 0)
(-0.000699509 1.64801e-05 0)
(-0.000770976 1.64363e-05 0)
(-0.000842307 1.63922e-05 0)
(-0.000913499 1.6356e-05 0)
(-0.000984576 1.63321e-05 0)
(-0.00105558 1.63224e-05 0)
(-0.00112656 1.63266e-05 0)
(-0.00119755 1.63437e-05 0)
(-0.00126861 1.63715e-05 0)
(-0.00133976 1.64075e-05 0)
(-0.00141102 1.6449e-05 0)
(-0.00148242 1.64931e-05 0)
(-0.00155394 1.65368e-05 0)
(-0.00162557 1.65773e-05 0)
(-0.00169729 1.66115e-05 0)
(-0.00176907 1.66365e-05 0)
(-0.00184085 1.66493e-05 0)
(-0.00191258 1.66469e-05 0)
(-0.00198418 1.66263e-05 0)
(-0.00205556 1.65844e-05 0)
(-0.00212663 1.6518e-05 0)
(-0.00219727 1.6424e-05 0)
(-0.00226735 1.62991e-05 0)
(-0.00233675 1.61399e-05 0)
(-0.0024053 1.59433e-05 0)
(-0.00247284 1.57059e-05 0)
(-0.00253919 1.54246e-05 0)
(-0.00260416 1.5096e-05 0)
(-0.00266754 1.47172e-05 0)
(-0.00272911 1.42852e-05 0)
(-0.00278865 1.37973e-05 0)
(-0.00284592 1.3251e-05 0)
(-0.00290067 1.2644e-05 0)
(-0.00295264 1.19746e-05 0)
(-0.00300157 1.12412e-05 0)
(-0.0030472 1.04428e-05 0)
(-0.00308925 9.57887e-06 0)
(-0.00312746 8.64929e-06 0)
(-0.00316155 7.65467e-06 0)
(-0.00319126 6.5962e-06 0)
(-0.00321634 5.47569e-06 0)
(-0.00323654 4.2957e-06 0)
(-0.00325161 3.0594e-06 0)
(-0.00326135 1.76976e-06 0)
(-0.00326556 4.32413e-07 0)
(-0.00326405 -9.4142e-07 0)
(-0.00325666 -2.35347e-06 0)
(-0.00324328 -3.79577e-06 0)
(-0.00322381 -5.25924e-06 0)
(-0.00319817 -6.73587e-06 0)
(-0.00316635 -8.21701e-06 0)
(-0.00312833 -9.69355e-06 0)
(-0.00308418 -1.1156e-05 0)
(-0.00303397 -1.25947e-05 0)
(-0.00297783 -1.39997e-05 0)
(-0.00291592 -1.53611e-05 0)
(-0.00284843 -1.66692e-05 0)
(-0.00277562 -1.79145e-05 0)
(-0.00269776 -1.90878e-05 0)
(-0.00261517 -2.01804e-05 0)
(-0.0025282 -2.11843e-05 0)
(-0.00243721 -2.20924e-05 0)
(-0.00234264 -2.28982e-05 0)
(-0.00224489 -2.35963e-05 0)
(-0.00214442 -2.41824e-05 0)
(-0.0020417 -2.46531e-05 0)
(-0.00193721 -2.50066e-05 0)
(-0.00183141 -2.52417e-05 0)
(-0.00172481 -2.53587e-05 0)
(-0.00161787 -2.5359e-05 0)
(-0.00151108 -2.5245e-05 0)
(-0.00140488 -2.50202e-05 0)
(-0.00129974 -2.4689e-05 0)
(-0.00119608 -2.42563e-05 0)
(-0.0010943 -2.37281e-05 0)
(-0.000994784 -2.31105e-05 0)
(-0.000897895 -2.24103e-05 0)
(-0.000803961 -2.16342e-05 0)
(-0.000713287 -2.07891e-05 0)
(-0.00062615 -1.98817e-05 0)
(-0.000542801 -1.89186e-05 0)
(-0.000463467 -1.79057e-05 0)
(-0.000388353 -1.68488e-05 0)
(-0.000317641 -1.57528e-05 0)
(-0.000251496 -1.4622e-05 0)
(-0.000190069 -1.34602e-05 0)
(-0.000133495 -1.22703e-05 0)
(-8.19004e-05 -1.10547e-05 0)
(-3.54036e-05 -9.81526e-06 0)
(5.88433e-06 -8.55335e-06 0)
(4.18575e-05 -7.27015e-06 0)
(7.24161e-05 -5.96679e-06 0)
(9.74678e-05 -4.64465e-06 0)
(0.000116931 -3.3062e-06 0)
(0.000130742 -1.95455e-06 0)
(0.000138866 -5.86232e-07 0)
(0.000141369 7.67878e-07 0)
(0.00013825 2.00713e-06 0)
(0.000129655 3.22829e-06 0)
(0.000116031 4.38101e-06 0)
(9.7972e-05 5.34694e-06 0)
(7.64661e-05 5.99823e-06 0)
(5.31025e-05 6.12585e-06 0)
(3.01486e-05 5.52099e-06 0)
(1.17606e-05 3.71369e-06 0)
(1.32826e-06 1.33292e-06 0)
(8.78815e-07 -7.4279e-06 0)
(-7.54724e-06 7.46758e-06 0)
(-4.46942e-05 3.51833e-05 0)
(-0.000114159 6.3603e-05 0)
(-0.000214042 8.87148e-05 0)
(-0.000340233 0.000109189 0)
(-0.000487765 0.000125007 0)
(-0.000651853 0.000136709 0)
(-0.000828291 0.000145018 0)
(-0.0010136 0.000150661 0)
(-0.00120502 0.000154292 0)
(-0.00140044 0.000156462 0)
(-0.00159834 0.000157617 0)
(-0.00179762 0.000158101 0)
(-0.00199756 0.000158176 0)
(-0.0021977 0.000158029 0)
(-0.00239777 0.000157792 0)
(-0.00259766 0.00015755 0)
(-0.00279733 0.000157355 0)
(-0.0029968 0.000157233 0)
(-0.00319613 0.000157193 0)
(-0.00339537 0.000157231 0)
(-0.00359458 0.000157333 0)
(-0.00379379 0.000157482 0)
(-0.00399303 0.000157657 0)
(-0.0041923 0.000157834 0)
(-0.00439156 0.000157989 0)
(-0.00459074 0.000158097 0)
(-0.00478977 0.000158131 0)
(-0.00498852 0.000158066 0)
(-0.00518683 0.000157876 0)
(-0.00538453 0.000157534 0)
(-0.0055814 0.000157013 0)
(-0.00577719 0.000156285 0)
(-0.00597163 0.000155324 0)
(-0.00616439 0.000154099 0)
(-0.00635513 0.000152584 0)
(-0.00654346 0.00015075 0)
(-0.00672899 0.000148567 0)
(-0.00691124 0.000146009 0)
(-0.00708976 0.000143047 0)
(-0.00726402 0.000139654 0)
(-0.00743348 0.000135804 0)
(-0.00759757 0.000131474 0)
(-0.0077557 0.000126641 0)
(-0.00790724 0.000121284 0)
(-0.00805156 0.000115388 0)
(-0.008188 0.000108937 0)
(-0.0083159 0.000101921 0)
(-0.00843456 9.43335e-05 0)
(-0.00854333 8.61725e-05 0)
(-0.00864152 7.74406e-05 0)
(-0.00872847 6.81455e-05 0)
(-0.00880353 5.83008e-05 0)
(-0.00886606 4.79254e-05 0)
(-0.00891547 3.70444e-05 0)
(-0.0089512 2.56889e-05 0)
(-0.00897273 1.38954e-05 0)
(-0.00897958 1.70792e-06 0)
(-0.00897135 -1.08142e-05 0)
(-0.00894769 -2.36277e-05 0)
(-0.00890832 -3.66693e-05 0)
(-0.00885303 -4.98712e-05 0)
(-0.00878171 -6.3162e-05 0)
(-0.00869433 -7.64664e-05 0)
(-0.00859094 -8.97057e-05 0)
(-0.00847169 -0.000102799 0)
(-0.00833683 -0.000115662 0)
(-0.00818671 -0.000128213 0)
(-0.00802176 -0.000140366 0)
(-0.00784251 -0.000152041 0)
(-0.0076496 -0.000163156 0)
(-0.00744375 -0.000173636 0)
(-0.00722575 -0.000183408 0)
(-0.00699649 -0.000192406 0)
(-0.00675691 -0.00020057 0)
(-0.00650804 -0.000207846 0)
(-0.00625095 -0.000214191 0)
(-0.00598675 -0.000219567 0)
(-0.0057166 -0.000223948 0)
(-0.00544167 -0.000227317 0)
(-0.00516315 -0.000229665 0)
(-0.00488225 -0.000230994 0)
(-0.00460014 -0.000231314 0)
(-0.00431801 -0.000230645 0)
(-0.00403699 -0.000229014 0)
(-0.00375819 -0.000226457 0)
(-0.00348269 -0.000223013 0)
(-0.00321151 -0.00021873 0)
(-0.00294561 -0.000213658 0)
(-0.00268589 -0.00020785 0)
(-0.00243322 -0.00020136 0)
(-0.00218836 -0.000194245 0)
(-0.00195207 -0.000186557 0)
(-0.00172499 -0.000178349 0)
(-0.00150774 -0.000169669 0)
(-0.00130089 -0.000160561 0)
(-0.00110496 -0.000151066 0)
(-0.000920415 -0.000141216 0)
(-0.000747704 -0.000131042 0)
(-0.00058724 -0.000120567 0)
(-0.000439415 -0.000109809 0)
(-0.000304602 -9.87827e-05 0)
(-0.000183159 -8.75018e-05 0)
(-7.54294e-05 -7.59784e-05 0)
(1.82643e-05 -6.42277e-05 0)
(9.76236e-05 -5.22716e-05 0)
(0.00016239 -4.01438e-05 0)
(0.000212368 -2.78971e-05 0)
(0.000247449 -1.56131e-05 0)
(0.000267622 -3.42979e-06 0)
(0.00027317 8.40715e-06 0)
(0.000264667 1.97105e-05 0)
(0.000243013 3.00261e-05 0)
(0.000209793 3.86716e-05 0)
(0.000167478 4.46753e-05 0)
(0.000119705 4.66465e-05 0)
(7.12536e-05 4.27383e-05 0)
(3.06768e-05 3.07991e-05 0)
(3.67536e-06 1.1735e-05 0)
(-2.74101e-06 3.9615e-08 0)
(-3.65221e-05 4.50591e-05 0)
(-0.000112965 0.000110559 0)
(-0.00023565 0.000176678 0)
(-0.000400235 0.000235814 0)
(-0.000601812 0.000285039 0)
(-0.000834065 0.000324001 0)
(-0.00109073 0.000353599 0)
(-0.00136615 0.000375252 0)
(-0.00165548 0.000390488 0)
(-0.00195477 0.000400747 0)
(-0.00226092 0.000407285 0)
(-0.00257157 0.000411148 0)
(-0.00288502 0.00041317 0)
(-0.00320003 0.000413992 0)
(-0.0035158 0.000414091 0)
(-0.0038318 0.000413808 0)
(-0.00414773 0.000413375 0)
(-0.00446343 0.000412938 0)
(-0.00477883 0.000412579 0)
(-0.00509393 0.000412337 0)
(-0.00540874 0.000412212 0)
(-0.00572328 0.000412185 0)
(-0.00603754 0.000412219 0)
(-0.00635151 0.000412266 0)
(-0.00666514 0.000412274 0)
(-0.00697834 0.000412185 0)
(-0.00729097 0.000411938 0)
(-0.00760286 0.000411471 0)
(-0.00791381 0.000410721 0)
(-0.00822354 0.000409623 0)
(-0.00853176 0.000408111 0)
(-0.0088381 0.000406119 0)
(-0.00914217 0.000403579 0)
(-0.00944351 0.000400423 0)
(-0.00974163 0.000396582 0)
(-0.010036 0.000391986 0)
(-0.010326 0.000386566 0)
(-0.010611 0.000380252 0)
(-0.0108902 0.000372978 0)
(-0.0111631 0.000364677 0)
(-0.0114287 0.000355286 0)
(-0.0116863 0.000344744 0)
(-0.011935 0.000332995 0)
(-0.0121739 0.000319989 0)
(-0.0124021 0.00030568 0)
(-0.0126186 0.000290032 0)
(-0.0128226 0.000273014 0)
(-0.0130129 0.000254607 0)
(-0.0131886 0.0002348 0)
(-0.0133487 0.000213595 0)
(-0.0134923 0.000191005 0)
(-0.0136184 0.000167055 0)
(-0.0137261 0.000141784 0)
(-0.0138145 0.000115246 0)
(-0.0138827 8.75091e-05 0)
(-0.0139301 5.86544e-05 0)
(-0.0139558 2.87791e-05 0)
(-0.0139593 -2.00528e-06 0)
(-0.0139399 -3.35721e-05 0)
(-0.0138974 -6.57831e-05 0)
(-0.0138312 -9.84866e-05 0)
(-0.0137413 -0.000131519 0)
(-0.0136274 -0.000164706 0)
(-0.0134896 -0.000197864 0)
(-0.0133281 -0.000230804 0)
(-0.013143 -0.000263329 0)
(-0.012935 -0.000295242 0)
(-0.0127044 -0.000326341 0)
(-0.0124519 -0.000356429 0)
(-0.0121785 -0.00038531 0)
(-0.011885 -0.000412798 0)
(-0.0115725 -0.00043871 0)
(-0.0112422 -0.00046288 0)
(-0.0108953 -0.000485151 0)
(-0.0105334 -0.000505383 0)
(-0.0101578 -0.000523454 0)
(-0.0097701 -0.000539261 0)
(-0.00937192 -0.000552718 0)
(-0.00896491 -0.000563766 0)
(-0.00855077 -0.000572363 0)
(-0.0081312 -0.000578491 0)
(-0.00770791 -0.000582154 0)
(-0.00728261 -0.000583377 0)
(-0.00685697 -0.000582204 0)
(-0.00643264 -0.0005787 0)
(-0.00601121 -0.000572944 0)
(-0.00559422 -0.000565032 0)
(-0.00518314 -0.000555069 0)
(-0.00477936 -0.000543171 0)
(-0.00438422 -0.000529462 0)
(-0.00399894 -0.000514066 0)
(-0.00362468 -0.000497108 0)
(-0.00326253 -0.000478713 0)
(-0.00291349 -0.000458997 0)
(-0.00257848 -0.000438072 0)
(-0.00225835 -0.000416036 0)
(-0.00195393 -0.00039298 0)
(-0.00166594 -0.000368979 0)
(-0.00139511 -0.000344098 0)
(-0.00114209 -0.00031839 0)
(-0.000907526 -0.000291895 0)
(-0.000692038 -0.00026465 0)
(-0.00049622 -0.000236685 0)
(-0.000320641 -0.000208034 0)
(-0.000165843 -0.000178742 0)
(-3.23188e-05 -0.000148874 0)
(7.95034e-05 -0.000118531 0)
(0.000169301 -8.78688e-05 0)
(0.000236901 -5.71225e-05 0)
(0.000282348 -2.66347e-05 0)
(0.000306047 3.12872e-06 0)
(0.000308825 3.13824e-05 0)
(0.000292094 5.70652e-05 0)
(0.000258163 7.86784e-05 0)
(0.000210451 9.41132e-05 0)
(0.000153804 0.000100514 0)
(9.42231e-05 9.42745e-05 0)
(4.25526e-05 7.13418e-05 0)
(5.45274e-06 2.99854e-05 0)
(-6.67771e-06 2.23444e-05 0)
(-6.83402e-05 0.000117515 0)
(-0.00018695 0.000235207 0)
(-0.000364624 0.000351165 0)
(-0.00059307 0.000454953 0)
(-0.000866391 0.000542214 0)
(-0.00117719 0.000612264 0)
(-0.00151822 0.000666378 0)
(-0.00188288 0.000706733 0)
(-0.00226547 0.000735778 0)
(-0.00266123 0.000755887 0)
(-0.00306636 0.000769184 0)
(-0.00347788 0.000777472 0)
(-0.00389357 0.000782212 0)
(-0.00431181 0.000784553 0)
(-0.00473144 0.000785362 0)
(-0.00515169 0.000785268 0)
(-0.00557205 0.000784712 0)
(-0.00599221 0.000783981 0)
(-0.00641199 0.000783247 0)
(-0.00683126 0.000782593 0)
(-0.00724997 0.000782042 0)
(-0.00766807 0.00078157 0)
(-0.00808547 0.00078112 0)
(-0.00850211 0.000780616 0)
(-0.00891784 0.000779967 0)
(-0.00933251 0.000779073 0)
(-0.00974589 0.000777827 0)
(-0.0101577 0.000776119 0)
(-0.0105677 0.000773835 0)
(-0.0109754 0.000770857 0)
(-0.0113805 0.000767069 0)
(-0.0117824 0.000762349 0)
(-0.0121806 0.000756575 0)
(-0.0125744 0.000749624 0)
(-0.0129633 0.000741372 0)
(-0.0133464 0.000731695 0)
(-0.0137231 0.000720469 0)
(-0.0140923 0.000707572 0)
(-0.0144534 0.000692885 0)
(-0.0148052 0.000676291 0)
(-0.0151468 0.000657681 0)
(-0.0154771 0.000636952 0)
(-0.0157951 0.000614007 0)
(-0.0160996 0.000588762 0)
(-0.0163894 0.000561144 0)
(-0.0166633 0.000531092 0)
(-0.0169202 0.000498564 0)
(-0.0171588 0.000463532 0)
(-0.0173779 0.000425988 0)
(-0.0175764 0.000385943 0)
(-0.0177529 0.000343432 0)
(-0.0179064 0.000298513 0)
(-0.0180359 0.000251265 0)
(-0.0181401 0.000201795 0)
(-0.0182182 0.000150235 0)
(-0.0182692 9.67408e-05 0)
(-0.0182924 4.14967e-05 0)
(-0.018287 -1.52902e-05 0)
(-0.0182524 -7.33919e-05 0)
(-0.0181882 -0.000132549 0)
(-0.018094 -0.000192485 0)
(-0.0179696 -0.000252905 0)
(-0.017815 -0.000313497 0)
(-0.0176303 -0.000373933 0)
(-0.0174157 -0.000433874 0)
(-0.0171717 -0.000492975 0)
(-0.0168988 -0.000550884 0)
(-0.0165978 -0.000607251 0)
(-0.0162696 -0.000661728 0)
(-0.0159153 -0.000713976 0)
(-0.0155361 -0.000763666 0)
(-0.0151333 -0.000810488 0)
(-0.0147085 -0.000854149 0)
(-0.0142632 -0.000894382 0)
(-0.0137992 -0.000930947 0)
(-0.0133184 -0.000963633 0)
(-0.0128226 -0.000992264 0)
(-0.0123138 -0.0010167 0)
(-0.0117941 -0.00103683 0)
(-0.0112655 -0.0010526 0)
(-0.0107301 -0.00106396 0)
(-0.01019 -0.00107094 0)
(-0.0096473 -0.00107358 0)
(-0.009104 -0.00107195 0)
(-0.00856213 -0.00106616 0)
(-0.00802362 -0.00105636 0)
(-0.00749035 -0.00104271 0)
(-0.00696411 -0.00102538 0)
(-0.00644662 -0.00100459 0)
(-0.0059395 -0.000980537 0)
(-0.00544427 -0.000953437 0)
(-0.00496238 -0.000923504 0)
(-0.00449515 -0.000890948 0)
(-0.00404386 -0.00085597 0)
(-0.00360965 -0.000818755 0)
(-0.00319364 -0.000779472 0)
(-0.00279685 -0.000738271 0)
(-0.00242024 -0.000695279 0)
(-0.00206475 -0.000650602 0)
(-0.00173125 -0.000604327 0)
(-0.0014206 -0.000556525 0)
(-0.00113363 -0.000507253 0)
(-0.000871123 -0.00045657 0)
(-0.000633864 -0.00040454 0)
(-0.000422576 -0.000351251 0)
(-0.000237924 -0.000296836 0)
(-8.04809e-05 -0.000241496 0)
(4.93235e-05 -0.000185534 0)
(0.000151264 -0.000129403 0)
(0.00022541 -7.37569e-05 0)
(0.000272238 -1.9533e-05 0)
(0.000292776 3.19154e-05 0)
(0.000288787 7.87368e-05 0)
(0.00026301 0.000118374 0)
(0.000219411 0.000147371 0)
(0.000163491 0.000161207 0)
(0.000101922 0.000154264 0)
(4.69101e-05 0.000120101 0)
(6.0738e-06 5.28257e-05 0)
(-1.03911e-05 5.99965e-05 0)
(-9.93337e-05 0.000225637 0)
(-0.000259762 0.000408714 0)
(-0.000491698 0.000583946 0)
(-0.000782133 0.000739736 0)
(-0.00112377 0.000871125 0)
(-0.00150804 0.000977459 0)
(-0.00192685 0.00106053 0)
(-0.00237293 0.00112333 0)
(-0.00283999 0.00116929 0)
(-0.00332272 0.00120175 0)
(-0.00381684 0.00122379 0)
(-0.00431895 0.00123801 0)
(-0.00482643 0.00124658 0)
(-0.00533735 0.00125122 0)
(-0.00585027 0.00125325 0)
(-0.00636419 0.00125364 0)
(-0.00687841 0.00125307 0)
(-0.00739245 0.00125201 0)
(-0.00790599 0.00125075 0)
(-0.00841881 0.00124943 0)
(-0.00893074 0.0012481 0)
(-0.00944163 0.00124676 0)
(-0.00995132 0.00124531 0)
(-0.0104596 0.00124367 0)
(-0.0109664 0.00124169 0)
(-0.0114712 0.00123923 0)
(-0.0119739 0.00123612 0)
(-0.0124741 0.00123222 0)
(-0.0129714 0.00122733 0)
(-0.0134651 0.00122128 0)
(-0.0139549 0.0012139 0)
(-0.0144401 0.001205 0)
(-0.0149199 0.00119439 0)
(-0.0153936 0.00118188 0)
(-0.0158604 0.0011673 0)
(-0.0163195 0.00115044 0)
(-0.0167697 0.00113113 0)
(-0.0172102 0.00110919 0)
(-0.0176398 0.00108442 0)
(-0.0180574 0.00105667 0)
(-0.0184617 0.00102577 0)
(-0.0188516 0.00099158 0)
(-0.0192258 0.000953953 0)
(-0.0195829 0.000912774 0)
(-0.0199215 0.000867943 0)
(-0.0202403 0.000819382 0)
(-0.020538 0.000767038 0)
(-0.020813 0.000710883 0)
(-0.0210641 0.00065092 0)
(-0.0212898 0.000587184 0)
(-0.0214889 0.000519741 0)
(-0.0216601 0.000448695 0)
(-0.0218021 0.000374185 0)
(-0.0219138 0.000296387 0)
(-0.0219942 0.000215515 0)
(-0.0220424 0.000131822 0)
(-0.0220573 4.5598e-05 0)
(-0.0220384 -4.28306e-05 0)
(-0.021985 -0.000133103 0)
(-0.0218968 -0.000224825 0)
(-0.0217733 -0.000317571 0)
(-0.0216145 -0.00041089 0)
(-0.0214204 -0.000504305 0)
(-0.0211913 -0.000597322 0)
(-0.0209275 -0.000689432 0)
(-0.0206296 -0.000780115 0)
(-0.0202984 -0.000868848 0)
(-0.0199347 -0.000955108 0)
(-0.0195398 -0.00103838 0)
(-0.0191149 -0.00111816 0)
(-0.0186615 -0.00119398 0)
(-0.0181811 -0.00126536 0)
(-0.0176756 -0.00133189 0)
(-0.0171467 -0.00139317 0)
(-0.0165966 -0.00144886 0)
(-0.0160272 -0.00149864 0)
(-0.0154409 -0.00154228 0)
(-0.0148399 -0.00157955 0)
(-0.0142264 -0.00161033 0)
(-0.0136029 -0.0016345 0)
(-0.0129717 -0.00165204 0)
(-0.0123352 -0.00166296 0)
(-0.0116957 -0.00166733 0)
(-0.0110556 -0.00166527 0)
(-0.010417 -0.00165695 0)
(-0.00978226 -0.00164256 0)
(-0.0091534 -0.00162236 0)
(-0.00853249 -0.00159662 0)
(-0.00792145 -0.00156561 0)
(-0.00732212 -0.00152966 0)
(-0.00673624 -0.00148907 0)
(-0.00616544 -0.00144415 0)
(-0.00561126 -0.00139521 0)
(-0.00507512 -0.00134255 0)
(-0.00455838 -0.00128642 0)
(-0.00406231 -0.00122706 0)
(-0.0035881 -0.0011647 0)
(-0.0031369 -0.00109952 0)
(-0.00270978 -0.00103166 0)
(-0.00230781 -0.000961242 0)
(-0.00193199 -0.000888372 0)
(-0.00158332 -0.000813133 0)
(-0.00126276 -0.00073561 0)
(-0.000971241 -0.000655908 0)
(-0.000709631 -0.00057417 0)
(-0.000478734 -0.000490616 0)
(-0.000279234 -0.000405575 0)
(-0.000111647 -0.00031954 0)
(2.37572e-05 -0.000233233 0)
(0.000127049 -0.000147686 0)
(0.000198765 -6.43554e-05 0)
(0.00024006 1.47496e-05 0)
(0.000252884 8.68876e-05 0)
(0.000240221 0.000148377 0)
(0.00020633 0.000194364 0)
(0.000157049 0.000218613 0)
(9.94468e-05 0.000213375 0)
(4.63448e-05 0.000169458 0)
(6.0657e-06 7.64272e-05 0)
(-1.3763e-05 0.000111991 0)
(-0.000128098 0.000368106 0)
(-0.000328292 0.000630045 0)
(-0.000612116 0.000873859 0)
(-0.000961669 0.00108838 0)
(-0.00136793 0.00126904 0)
(-0.00182097 0.0014158 0)
(-0.00231186 0.00153124 0)
(-0.0028327 0.00161937 0)
(-0.00337675 0.00168462 0)
(-0.00393834 0.00173141 0)
(-0.00451285 0.00176377 0)
(-0.00509657 0.00178517 0)
(-0.00568664 0.00179852 0)
(-0.00628086 0.00180614 0)
(-0.00687759 0.00180985 0)
(-0.00747563 0.00181097 0)
(-0.00807411 0.00181048 0)
(-0.00867241 0.00180903 0)
(-0.00927006 0.00180705 0)
(-0.00986673 0.00180477 0)
(-0.0104621 0.00180226 0)
(-0.011056 0.00179954 0)
(-0.0116481 0.0017965 0)
(-0.0122381 0.00179302 0)
(-0.0128258 0.00178892 0)
(-0.0134107 0.001784 0)
(-0.0139925 0.00177806 0)
(-0.0145706 0.00177085 0)
(-0.0151446 0.00176214 0)
(-0.0157138 0.00175169 0)
(-0.0162775 0.00173925 0)
(-0.0168351 0.00172457 0)
(-0.0173856 0.00170738 0)
(-0.0179281 0.00168743 0)
(-0.0184618 0.00166447 0)
(-0.0189854 0.00163823 0)
(-0.019498 0.00160846 0)
(-0.0199984 0.00157491 0)
(-0.0204853 0.00153736 0)
(-0.0209573 0.00149556 0)
(-0.0214132 0.0014493 0)
(-0.0218515 0.0013984 0)
(-0.0222708 0.00134267 0)
(-0.0226696 0.00128196 0)
(-0.0230464 0.00121616 0)
(-0.0233997 0.00114517 0)
(-0.0237279 0.00106893 0)
(-0.0240295 0.000987434 0)
(-0.0243031 0.000900702 0)
(-0.0245472 0.000808801 0)
(-0.0247603 0.000711848 0)
(-0.0249411 0.000610004 0)
(-0.0250884 0.000503485 0)
(-0.025201 0.000392552 0)
(-0.0252777 0.000277523 0)
(-0.0253177 0.000158764 0)
(-0.02532 3.66902e-05 0)
(-0.0252839 -8.8233e-05 0)
(-0.025209 -0.000215495 0)
(-0.0250949 -0.000344543 0)
(-0.0249413 -0.000474783 0)
(-0.0247482 -0.00060559 0)
(-0.0245157 -0.000736306 0)
(-0.0242442 -0.000866251 0)
(-0.0239343 -0.000994729 0)
(-0.0235866 -0.00112103 0)
(-0.0232022 -0.00124445 0)
(-0.022782 -0.00136427 0)
(-0.0223275 -0.0014798 0)
(-0.0218401 -0.00159037 0)
(-0.0213214 -0.00169533 0)
(-0.0207733 -0.00179407 0)
(-0.0201978 -0.00188602 0)
(-0.0195969 -0.00197066 0)
(-0.0189729 -0.00204753 0)
(-0.0183281 -0.00211623 0)
(-0.0176649 -0.00217642 0)
(-0.0169859 -0.00222785 0)
(-0.0162935 -0.00227032 0)
(-0.0155904 -0.00230372 0)
(-0.0148791 -0.00232799 0)
(-0.0141622 -0.00234318 0)
(-0.0134422 -0.00234938 0)
(-0.0127217 -0.00234676 0)
(-0.0120032 -0.00233555 0)
(-0.0112889 -0.00231602 0)
(-0.0105812 -0.00228851 0)
(-0.00988233 -0.00225337 0)
(-0.00919432 -0.00221101 0)
(-0.00851918 -0.00216183 0)
(-0.0078588 -0.00210626 0)
(-0.00721494 -0.0020447 0)
(-0.00658927 -0.00197757 0)
(-0.00598335 -0.00190525 0)
(-0.00539865 -0.00182809 0)
(-0.00483656 -0.00174642 0)
(-0.00429839 -0.0016605 0)
(-0.00378539 -0.00157059 0)
(-0.00329878 -0.00147686 0)
(-0.00283971 -0.00137949 0)
(-0.00240931 -0.00127859 0)
(-0.0020087 -0.00117428 0)
(-0.00163894 -0.00106669 0)
(-0.00130108 -0.000955948 0)
(-0.000996091 -0.000842276 0)
(-0.00072487 -0.00072599 0)
(-0.000488182 -0.000607569 0)
(-0.000286602 -0.000487726 0)
(-0.000120435 -0.000367486 0)
(1.03883e-05 -0.000248302 0)
(0.000106434 -0.000132185 0)
(0.000168921 -2.18706e-05 0)
(0.000199895 7.89753e-05 0)
(0.000202455 0.000165518 0)
(0.000180991 0.000231482 0)
(0.000141488 0.000268875 0)
(9.12133e-05 0.000267749 0)
(4.3058e-05 0.000216041 0)
(5.68137e-06 9.90532e-05 0)
(-1.67764e-05 0.000177024 0)
(-0.000154263 0.000542509 0)
(-0.0003914 0.000896443 0)
(-0.000723829 0.00121784 0)
(-0.00112892 0.00149731 0)
(-0.00159576 0.0017317 0)
(-0.00211295 0.00192219 0)
(-0.00267061 0.00207262 0)
(-0.00326025 0.00218816 0)
(-0.00387472 0.00227445 0)
(-0.00450806 0.002337 0)
(-0.0051554 0.00238085 0)
(-0.00581285 0.00241037 0)
(-0.00647734 0.00242923 0)
(-0.0071465 0.00244037 0)
(-0.00781854 0.00244609 0)
(-0.00849209 0.00244813 0)
(-0.00916616 0.00244775 0)
(-0.00983998 0.00244582 0)
(-0.010513 0.0024429 0)
(-0.0111847 0.0024393 0)
(-0.0118547 0.00243516 0)
(-0.0125226 0.0024305 0)
(-0.0131881 0.00242521 0)
(-0.0138509 0.00241912 0)
(-0.0145104 0.00241203 0)
(-0.0151662 0.00240369 0)
(-0.0158178 0.00239381 0)
(-0.0164647 0.00238211 0)
(-0.017106 0.00236828 0)
(-0.0177412 0.00235199 0)
(-0.0183695 0.00233294 0)
(-0.0189898 0.00231079 0)
(-0.0196014 0.00228521 0)
(-0.0202031 0.00225586 0)
(-0.0207939 0.00222242 0)
(-0.0213726 0.00218455 0)
(-0.0219379 0.00214194 0)
(-0.0224885 0.00209426 0)
(-0.023023 0.00204122 0)
(-0.0235399 0.00198254 0)
(-0.0240379 0.00191794 0)
(-0.0245152 0.0018472 0)
(-0.0249705 0.0017701 0)
(-0.025402 0.00168646 0)
(-0.0258081 0.00159615 0)
(-0.0261873 0.00149908 0)
(-0.0265378 0.00139519 0)
(-0.0268581 0.00128449 0)
(-0.0271466 0.00116704 0)
(-0.0274018 0.00104295 0)
(-0.0276223 0.000912401 0)
(-0.0278066 0.000775629 0)
(-0.0279535 0.000632937 0)
(-0.0280617 0.000484694 0)
(-0.0281302 0.000331331 0)
(-0.028158 0.000173346 0)
(-0.0281444 1.12978e-05 0)
(-0.0280887 -0.000154194 0)
(-0.0279904 -0.000322455 0)
(-0.0278493 -0.000492755 0)
(-0.0276651 -0.000664321 0)
(-0.027438 -0.000836335 0)
(-0.0271683 -0.00100795 0)
(-0.0268564 -0.00117828 0)
(-0.026503 -0.00134643 0)
(-0.026109 -0.00151151 0)
(-0.0256755 -0.00167259 0)
(-0.0252038 -0.00182877 0)
(-0.0246953 -0.00197919 0)
(-0.0241517 -0.00212297 0)
(-0.0235748 -0.00225931 0)
(-0.0229667 -0.00238744 0)
(-0.0223296 -0.00250664 0)
(-0.0216656 -0.00261626 0)
(-0.0209772 -0.00271573 0)
(-0.020267 -0.00280456 0)
(-0.0195376 -0.00288232 0)
(-0.0187916 -0.0029487 0)
(-0.0180318 -0.00300347 0)
(-0.0172608 -0.00304649 0)
(-0.0164816 -0.00307772 0)
(-0.0156968 -0.0030972 0)
(-0.0149091 -0.00310508 0)
(-0.0141213 -0.00310158 0)
(-0.0133359 -0.00308699 0)
(-0.0125554 -0.00306167 0)
(-0.0117822 -0.00302605 0)
(-0.0110188 -0.0029806 0)
(-0.0102672 -0.00292582 0)
(-0.00952965 -0.00286223 0)
(-0.00880807 -0.00279036 0)
(-0.00810432 -0.00271075 0)
(-0.00742016 -0.0026239 0)
(-0.00675723 -0.00253031 0)
(-0.00611708 -0.00243041 0)
(-0.00550115 -0.0023246 0)
(-0.00491085 -0.00221323 0)
(-0.00434748 -0.00209659 0)
(-0.00381232 -0.00197492 0)
(-0.00330659 -0.00184842 0)
(-0.0028315 -0.00171723 0)
(-0.00238822 -0.00158151 0)
(-0.00197788 -0.0014414 0)
(-0.00160159 -0.0012971 0)
(-0.00126039 -0.00114889 0)
(-0.00095523 -0.000997197 0)
(-0.000686915 -0.00084267 0)
(-0.000456057 -0.000686253 0)
(-0.000262978 -0.000529301 0)
(-0.000107616 -0.000373707 0)
(1.06095e-05 -0.000222062 0)
(9.29417e-05 -7.78507e-05 0)
(0.000141461 5.43247e-05 0)
(0.000159303 0.000168468 0)
(0.000150886 0.000256878 0)
(0.000122215 0.00030981 0)
(8.06061e-05 0.00031512 0)
(3.86747e-05 0.000257938 0)
(5.16162e-06 0.000119789 0)
(-1.9462e-05 0.000253791 0)
(-0.000177873 0.000746145 0)
(-0.000448883 0.00120458 0)
(-0.000826227 0.0016122 0)
(-0.00128288 0.00196252 0)
(-0.00180601 0.00225466 0)
(-0.0023827 0.00249172 0)
(-0.00300207 0.00267917 0)
(-0.00365499 0.00282369 0)
(-0.00433392 0.00293225 0)
(-0.00503263 0.00301155 0)
(-0.00574606 0.0030677 0)
(-0.00647019 0.00310599 0)
(-0.00720181 0.00313085 0)
(-0.00793843 0.00314586 0)
(-0.00867815 0.00315382 0)
(-0.00941949 0.00315688 0)
(-0.0101613 0.00315658 0)
(-0.0109028 0.003154 0)
(-0.0116432 0.00314986 0)
(-0.0123819 0.00314457 0)
(-0.0131185 0.0031383 0)
(-0.0138525 0.0031311 0)
(-0.0145833 0.00312284 0)
(-0.0153107 0.00311334 0)
(-0.0160339 0.00310235 0)
(-0.0167524 0.00308955 0)
(-0.0174657 0.00307461 0)
(-0.0181729 0.00305717 0)
(-0.0188734 0.00303686 0)
(-0.0195663 0.00301327 0)
(-0.0202507 0.00298601 0)
(-0.0209256 0.00295468 0)
(-0.0215899 0.00291887 0)
(-0.0222425 0.00287816 0)
(-0.0228821 0.00283214 0)
(-0.0235074 0.00278043 0)
(-0.0241171 0.00272261 0)
(-0.0247098 0.00265832 0)
(-0.0252838 0.00258718 0)
(-0.0258377 0.00250887 0)
(-0.0263698 0.00242308 0)
(-0.0268786 0.00232952 0)
(-0.0273622 0.00222795 0)
(-0.0278191 0.00211819 0)
(-0.0282475 0.00200009 0)
(-0.0286457 0.00187356 0)
(-0.029012 0.00173857 0)
(-0.0293448 0.00159515 0)
(-0.0296424 0.00144341 0)
(-0.0299033 0.00128352 0)
(-0.030126 0.00111573 0)
(-0.0303091 0.000940376 0)
(-0.0304514 0.000757858 0)
(-0.0305515 0.000568662 0)
(-0.0306086 0.000373353 0)
(-0.0306217 0.000172572 0)
(-0.03059 -3.29657e-05 0)
(-0.030513 -0.000242473 0)
(-0.0303903 -0.000455096 0)
(-0.0302217 -0.000669921 0)
(-0.0300071 -0.000885977 0)
(-0.0297467 -0.00110225 0)
(-0.029441 -0.00131768 0)
(-0.0290906 -0.00153119 0)
(-0.0286961 -0.00174167 0)
(-0.0282588 -0.00194801 0)
(-0.0277798 -0.00214909 0)
(-0.0272605 -0.00234382 0)
(-0.0267026 -0.00253112 0)
(-0.0261079 -0.00270996 0)
(-0.0254785 -0.00287934 0)
(-0.0248164 -0.00303834 0)
(-0.0241241 -0.0031861 0)
(-0.0234039 -0.00332183 0)
(-0.0226585 -0.00344485 0)
(-0.0218906 -0.00355456 0)
(-0.0211029 -0.00365048 0)
(-0.0202983 -0.00373223 0)
(-0.0194797 -0.00379954 0)
(-0.01865 -0.00385226 0)
(-0.0178121 -0.00389036 0)
(-0.016969 -0.0039139 0)
(-0.0161234 -0.00392307 0)
(-0.0152782 -0.00391816 0)
(-0.0144361 -0.00389953 0)
(-0.0135997 -0.00386765 0)
(-0.0127716 -0.00382303 0)
(-0.0119542 -0.00376626 0)
(-0.0111498 -0.00369796 0)
(-0.0103606 -0.00361877 0)
(-0.00958856 -0.00352935 0)
(-0.00883571 -0.00343035 0)
(-0.00810379 -0.00332239 0)
(-0.00739451 -0.00320607 0)
(-0.00670945 -0.00308191 0)
(-0.00605009 -0.00295042 0)
(-0.00541784 -0.00281199 0)
(-0.00481405 -0.00266698 0)
(-0.00424001 -0.00251568 0)
(-0.00369698 -0.00235832 0)
(-0.00318616 -0.00219507 0)
(-0.00270875 -0.00202612 0)
(-0.00226592 -0.00185164 0)
(-0.00185878 -0.00167187 0)
(-0.00148839 -0.00148719 0)
(-0.00115572 -0.00129813 0)
(-0.000861592 -0.0011055 0)
(-0.000606622 -0.0009105 0)
(-0.000391137 -0.000714818 0)
(-0.000215073 -0.000520799 0)
(-7.78458e-05 -0.000331625 0)
(2.17917e-05 -0.000151527 0)
(8.59196e-05 1.39548e-05 0)
(0.00011766 0.000157672 0)
(0.000121401 0.000270515 0)
(0.000103089 0.000341012 0)
(6.99882e-05 0.000354888 0)
(3.42783e-05 0.000294607 0)
(4.64549e-06 0.000138387 0)
(-2.18604e-05 0.000341082 0)
(-0.000199123 0.000976326 0)
(-0.000500955 0.00155096 0)
(-0.000919432 0.00205302 0)
(-0.00142353 0.00247977 0)
(-0.00199858 0.00283342 0)
(-0.00263014 0.00311954 0)
(-0.0033063 0.00334572 0)
(-0.00401729 0.0035204 0)
(-0.00475517 0.00365208 0)
(-0.00551343 0.0037488 0)
(-0.00628688 0.00381777 0)
(-0.00707135 0.00386522 0)
(-0.00786356 0.00389637 0)
(-0.00866094 0.00391544 0)
(-0.00946148 0.00392574 0)
(-0.0102636 0.0039298 0)
(-0.0110662 0.00392947 0)
(-0.0118682 0.00392604 0)
(-0.0126688 0.00392037 0)
(-0.0134674 0.00391295 0)
(-0.0142634 0.00390404 0)
(-0.0150561 0.00389366 0)
(-0.0158451 0.00388171 0)
(-0.0166297 0.00386797 0)
(-0.0174094 0.00385213 0)
(-0.0181833 0.00383383 0)
(-0.0189509 0.00381268 0)
(-0.0197113 0.00378825 0)
(-0.0204637 0.00376009 0)
(-0.021207 0.00372772 0)
(-0.0219403 0.00369067 0)
(-0.0226625 0.00364846 0)
(-0.0233723 0.00360059 0)
(-0.0240686 0.00354659 0)
(-0.02475 0.00348595 0)
(-0.025415 0.00341822 0)
(-0.0260622 0.00334293 0)
(-0.0266901 0.00325963 0)
(-0.027297 0.0031679 0)
(-0.0278813 0.00306737 0)
(-0.0284412 0.00295766 0)
(-0.0289751 0.00283849 0)
(-0.0294812 0.00270958 0)
(-0.0299576 0.00257074 0)
(-0.0304027 0.00242181 0)
(-0.0308147 0.00226272 0)
(-0.0311918 0.00209347 0)
(-0.0315324 0.00191414 0)
(-0.0318348 0.00172489 0)
(-0.0320974 0.00152597 0)
(-0.0323187 0.0013177 0)
(-0.0324974 0.00110053 0)
(-0.0326322 0.000874969 0)
(-0.0327219 0.000641636 0)
(-0.0327656 0.000401238 0)
(-0.0327623 0.000154572 0)
(-0.0327114 -9.74793e-05 0)
(-0.0326124 -0.00035395 0)
(-0.0324651 -0.000613798 0)
(-0.0322691 -0.000875913 0)
(-0.0320247 -0.00113912 0)
(-0.0317321 -0.0014022 0)
(-0.0313919 -0.00166389 0)
(-0.0310047 -0.00192288 0)
(-0.0305716 -0.00217785 0)
(-0.0300935 -0.00242749 0)
(-0.029572 -0.00267047 0)
(-0.0290086 -0.00290548 0)
(-0.028405 -0.00313126 0)
(-0.0277633 -0.00334658 0)
(-0.0270856 -0.00355028 0)
(-0.0263742 -0.00374126 0)
(-0.0256316 -0.00391852 0)
(-0.0248605 -0.00408115 0)
(-0.0240635 -0.00422833 0)
(-0.0232436 -0.00435939 0)
(-0.0224037 -0.00447376 0)
(-0.0215468 -0.00457101 0)
(-0.0206759 -0.00465084 0)
(-0.0197942 -0.00471308 0)
(-0.0189045 -0.00475772 0)
(-0.0180101 -0.00478486 0)
(-0.017114 -0.00479472 0)
(-0.0162189 -0.00478767 0)
(-0.0153278 -0.00476417 0)
(-0.0144435 -0.00472476 0)
(-0.0135685 -0.0046701 0)
(-0.0127054 -0.00460089 0)
(-0.0118565 -0.00451786 0)
(-0.0110241 -0.00442182 0)
(-0.0102103 -0.00431353 0)
(-0.00941695 -0.00419378 0)
(-0.00864602 -0.00406332 0)
(-0.00789914 -0.00392285 0)
(-0.00717791 -0.00377301 0)
(-0.00648382 -0.00361438 0)