/*--------------------------------*- C++ -*----------------------------------*\
| =========                 |                                                 |
| \\      /  F ield         | OpenFOAM: The Open Source CFD Toolbox           |
|  \\    /   O peration     | Version:  2406                                  |
|   \\  /    A nd           | Website:  www.openfoam.com                      |
|    \\/     M anipulation  |                                                 |
\*---------------------------------------------------------------------------*/
FoamFile
{
    version     2.0;
    format      ascii;
    arch        "LSB;label=32;scalar=64";
    class       surfaceScalarField;
    location    "14.3";
    object      phi;
}
// * * * * * * * * * * * * * * * * * * * * * * * * * * * * * * * * * * * * * //

dimensions      [0 3 -1 0 0 0 0];

oriented        oriented;

internalField   nonuniform List<scalar> 
7080
(
2.15022e-08
-2.16811e-08
-9.4518e-08
1.19347e-07
-3.34561e-07
2.39636e-07
-6.70613e-07
3.40157e-07
-1.06383e-06
3.93909e-07
-1.49048e-06
4.31026e-07
-1.93699e-06
4.48115e-07
-2.39663e-06
4.63943e-07
-2.86992e-06
4.75559e-07
-3.35708e-06
4.91363e-07
-3.86138e-06
5.07093e-07
-4.38286e-06
5.25643e-07
-4.9225e-06
5.42875e-07
-5.47786e-06
5.59536e-07
-6.04669e-06
5.72365e-07
-6.62388e-06
5.81334e-07
-7.20413e-06
5.83912e-07
-7.77971e-06
5.7957e-07
-8.34222e-06
5.66056e-07
-8.8809e-06
5.42288e-07
-9.38371e-06
5.05947e-07
-9.8362e-06
4.55431e-07
-1.02222e-05
3.88362e-07
-1.05234e-05
3.0303e-07
-1.07198e-05
1.97569e-07
-1.07905e-05
7.1124e-08
-1.07146e-05
-7.65019e-08
-1.04721e-05
-2.43893e-07
-1.00465e-05
-4.28158e-07
-9.4259e-06
-6.24284e-07
-8.60528e-06
-8.25377e-07
-7.58857e-06
-1.02254e-06
-6.38989e-06
-1.20549e-06
-5.03447e-06
-1.36311e-06
-3.55829e-06
-1.4845e-06
-2.00704e-06
-1.56007e-06
-4.33341e-07
-1.58264e-06
1.10628e-06
-1.54857e-06
2.55601e-06
-1.45821e-06
3.86446e-06
-1.31644e-06
4.98934e-06
-1.13184e-06
5.89962e-06
-9.16416e-07
6.57835e-06
-6.8341e-07
7.02154e-06
-4.46987e-07
7.23862e-06
-2.19174e-07
7.24789e-06
-1.0758e-08
7.0762e-06
1.72037e-07
6.75215e-06
3.24478e-07
6.30735e-06
4.47185e-07
5.76865e-06
5.40385e-07
5.16297e-06
6.09653e-07
4.50846e-06
6.56745e-07
3.82428e-06
6.89413e-07
3.11994e-06
7.06431e-07
2.41143e-06
7.14769e-07
1.71051e-06
7.02109e-07
1.04955e-06
6.67905e-07
4.80228e-07
5.68722e-07
9.2966e-08
3.94202e-07
9.29133e-08
-1.22252e-07
9.73782e-08
-5.46175e-07
5.43824e-07
-1.22909e-06
9.16622e-07
-2.11356e-06
1.22297e-06
-3.13835e-06
1.41173e-06
-4.25518e-06
1.54434e-06
-5.4357e-06
1.62133e-06
-6.6615e-06
1.68503e-06
-7.92883e-06
1.73552e-06
-9.23441e-06
1.79138e-06
-1.05809e-05
1.84607e-06
-1.19657e-05
1.90421e-06
-1.33875e-05
1.95705e-06
-1.48386e-05
2.00381e-06
-1.63106e-05
2.03666e-06
-1.77897e-05
2.05326e-06
-1.92606e-05
2.04714e-06
-2.07033e-05
2.01518e-06
-2.20959e-05
1.95147e-06
-2.3412e-05
1.85194e-06
-2.46228e-05
1.71049e-06
-2.56949e-05
1.52221e-06
-2.65922e-05
1.28115e-06
-2.72753e-05
9.82817e-07
-2.77031e-05
6.23244e-07
-2.78337e-05
2.01178e-07
-2.76269e-05
-2.82098e-07
-2.70468e-05
-8.20907e-07
-2.60647e-05
-1.40516e-06
-2.46624e-05
-2.01926e-06
-2.28359e-05
-2.64254e-06
-2.05975e-05
-3.24944e-06
-1.79786e-05
-3.81098e-06
-1.50303e-05
-4.29638e-06
-1.18228e-05
-4.6757e-06
-8.4433e-06
-4.92242e-06
-4.99194e-06
-5.01645e-06
-1.57662e-06
-4.94663e-06
1.69422e-06
-4.7124e-06
4.7179e-06
-4.32488e-06
7.40547e-06
-3.80567e-06
9.68621e-06
-3.18573e-06
1.15133e-05
-2.50109e-06
1.28637e-05
-1.79067e-06
1.37394e-05
-1.09021e-06
1.41621e-05
-4.31688e-07
1.41719e-05
1.62618e-07
1.38172e-05
6.76757e-07
1.3155e-05
1.10657e-06
1.22383e-05
1.45134e-06
1.11223e-05
1.72081e-06
9.84983e-06
1.92115e-06
8.46627e-06
2.0673e-06
7.00312e-06
2.15988e-06
5.50428e-06
2.20832e-06
4.00752e-06
2.1881e-06
2.58682e-06
2.08523e-06
1.332e-06
1.81254e-06
4.03051e-07
1.32329e-06
4.89051e-07
-2.83249e-07
3.80087e-07
-1.03634e-06
1.30323e-06
-2.16279e-06
2.04208e-06
-3.56101e-06
2.62786e-06
-5.15586e-06
3.00802e-06
-6.88081e-06
3.27604e-06
-8.7009e-06
3.44448e-06
-1.0589e-05
3.5798e-06
-1.25383e-05
3.68894e-06
-1.45408e-05
3.80049e-06
-1.65965e-05
3.90669e-06
-1.86985e-05
4.01276e-06
-2.08409e-05
4.10501e-06
-2.30101e-05
4.17974e-06
-2.51915e-05
4.22396e-06
-2.73635e-05
4.23193e-06
-2.9503e-05
4.19277e-06
-3.15815e-05
4.1001e-06
-3.35683e-05
3.94404e-06
-3.54276e-05
3.71707e-06
-3.71212e-05
3.40907e-06
-3.86058e-05
3.0115e-06
-3.98356e-05
2.51467e-06
-4.07613e-05
1.91132e-06
-4.13321e-05
1.19567e-06
-4.14972e-05
3.66665e-07
-4.12085e-05
-5.7191e-07
-4.04234e-05
-1.60873e-06
-3.91084e-05
-2.7247e-06
-3.72425e-05
-3.89146e-06
-3.48211e-05
-5.07205e-06
-3.18591e-05
-6.22127e-06
-2.83934e-05
-7.28812e-06
-2.44843e-05
-8.21834e-06
-2.02152e-05
-8.95867e-06
-1.5691e-05
-9.46115e-06
-1.10342e-05
-9.68815e-06
-6.37881e-06
-9.61667e-06
-1.86325e-06
-9.2419e-06
2.37792e-06
-8.57908e-06
6.22367e-06
-7.66279e-06
9.57293e-06
-6.54489e-06
1.23527e-05
-5.2885e-06
1.45192e-05
-3.96315e-06
1.60611e-05
-2.63562e-06
1.69937e-05
-1.36647e-06
1.73581e-05
-2.01374e-07
1.72092e-05
8.26682e-07
1.66155e-05
1.70387e-06
1.5644e-05
2.42596e-06
1.43661e-05
3.00477e-06
1.28404e-05
3.45111e-06
1.11297e-05
3.78592e-06
9.28068e-06
4.01311e-06
7.35687e-06
4.14139e-06
5.41181e-06
4.13611e-06
3.54617e-06
3.96127e-06
1.86873e-06
3.48967e-06
5.96015e-07
2.60706e-06
1.08539e-06
-4.5675e-07
8.32331e-07
-1.55872e-06
2.40923e-06
-3.13549e-06
3.61142e-06
-5.03286e-06
4.5266e-06
-7.16252e-06
5.1311e-06
-9.44316e-06
5.55586e-06
-1.18379e-05
5.83321e-06
-1.43132e-05
6.05279e-06
-1.686e-05
6.23008e-06
-1.94649e-05
6.40219e-06
-2.21241e-05
6.5603e-06
-2.48244e-05
6.70921e-06
-2.75552e-05
6.8303e-06
-3.02965e-05
6.9167e-06
-3.30286e-05
6.95062e-06
-3.57246e-05
6.92336e-06
-3.83575e-05
6.82046e-06
-4.08952e-05
6.63315e-06
-4.33044e-05
6.34849e-06
-4.55478e-05
5.95625e-06
-4.75857e-05
5.4429e-06
-4.9374e-05
4.79648e-06
-5.08658e-05
4.00366e-06
-5.20105e-05
3.05402e-06
-5.27554e-05
1.9394e-06
-5.30468e-05
6.57924e-07
-5.28323e-05
-7.85424e-07
-5.20635e-05
-2.37535e-06
-5.06991e-05
-4.0856e-06
-4.87088e-05
-5.8769e-06
-4.60772e-05
-7.69747e-06
-4.28079e-05
-9.48315e-06
-3.89271e-05
-1.11603e-05
-3.44872e-05
-1.26487e-05
-2.95676e-05
-1.38678e-05
-2.4276e-05
-1.47419e-05
-1.87447e-05
-1.52084e-05
-1.31262e-05
-1.52243e-05
-7.58476e-06
-1.47727e-05
-2.28731e-06
-1.38669e-05
2.60944e-06
-1.25507e-05
6.96845e-06
-1.08966e-05
1.0684e-05
-8.99779e-06
1.36856e-05
-6.96039e-06
1.59434e-05
-4.89007e-06
1.74627e-05
-2.88451e-06
1.82828e-05
-1.0208e-06
1.84634e-05
6.4445e-07
1.80831e-05
2.08291e-06
1.7221e-05
3.28413e-06
1.59628e-05
4.26051e-06
1.43805e-05
5.0277e-06
1.25511e-05
5.6126e-06
1.05331e-05
6.02385e-06
8.4037e-06
6.26882e-06
6.22592e-06
6.30513e-06
4.11598e-06
6.07156e-06
2.19342e-06
5.40159e-06
7.11667e-07
4.09276e-06
1.79004e-06
-6.18618e-07
1.44838e-06
-2.06453e-06
3.86437e-06
-4.08782e-06
5.62997e-06
-6.47487e-06
6.92107e-06
-9.11906e-06
7.7737e-06
-1.19227e-05
8.36559e-06
-1.48475e-05
8.75845e-06
-1.78541e-05
9.06473e-06
-2.09324e-05
9.31018e-06
-2.40636e-05
9.53829e-06
-2.72401e-05
9.73935e-06
-3.04429e-05
9.9167e-06
-3.3657e-05
1.00475e-05
-3.68581e-05
1.01223e-05
-4.00242e-05
1.01203e-05
-4.3128e-05
1.00315e-05
-4.61443e-05
9.84043e-06
-4.90449e-05
9.53781e-06
-5.18026e-05
9.10971e-06
-5.43873e-05
8.54449e-06
-5.67674e-05
7.82593e-06
-5.89066e-05
6.9385e-06
-6.07651e-05
5.86417e-06
-6.22968e-05
4.58733e-06
-6.3451e-05
3.09433e-06
-6.41713e-05
1.37826e-06
-6.43978e-05
-5.59924e-07
-6.40679e-05
-2.70709e-06
-6.31201e-05
-5.03635e-06
-6.14971e-05
-7.5038e-06
-5.91517e-05
-1.00479e-05
-5.60524e-05
-1.25885e-05
-5.21905e-05
-1.50291e-05
-4.7587e-05
-1.72599e-05
-4.22983e-05
-1.91647e-05
-3.64204e-05
-2.06285e-05
-3.00889e-05
-2.15487e-05
-2.34758e-05
-2.18461e-05
-1.67813e-05
-2.14756e-05
-1.02211e-05
-2.04348e-05
-4.0103e-06
-1.87683e-05
1.65311e-06
-1.65661e-05
6.60628e-06
-1.39556e-05
1.07313e-05
-1.10894e-05
1.39653e-05
-8.12628e-06
1.6296e-05
-5.21689e-06
1.77601e-05
-2.48478e-06
1.84266e-05
-2.20254e-08
1.83913e-05
2.12046e-06
1.77544e-05
3.92223e-06
1.66235e-05
5.39545e-06
1.50902e-05
6.56266e-06
1.32492e-05
7.45905e-06
1.11724e-05
8.10189e-06
8.94944e-06
8.49881e-06
6.65158e-06
8.60255e-06
4.40768e-06
8.3244e-06
2.34939e-06
7.45607e-06
7.58175e-07
5.6952e-06
2.54657e-06
-7.80902e-07
2.22326e-06
-2.56767e-06
5.65922e-06
-5.02859e-06
8.08123e-06
-7.88987e-06
9.78685e-06
-1.10246e-05
1.09014e-05
-1.43185e-05
1.16612e-05
-1.77324e-05
1.21667e-05
-2.12212e-05
1.25534e-05
-2.47742e-05
1.28585e-05
-2.83671e-05
1.31299e-05
-3.19891e-05
1.33572e-05
-3.56164e-05
1.35419e-05
-3.92318e-05
1.3659e-05
-4.28103e-05
1.36983e-05
-4.63334e-05
1.36396e-05
-4.97799e-05
1.34753e-05
-5.31356e-05
1.31927e-05
-5.63862e-05
1.27856e-05
-5.95216e-05
1.2242e-05
-6.25299e-05
1.15503e-05
-6.53986e-05
1.06921e-05
-6.81088e-05
9.64685e-06
-7.06355e-05
8.38913e-06
-7.29425e-05
6.89327e-06
-7.49821e-05
5.13326e-06
-7.66918e-05
3.08806e-06
-7.79946e-05
7.43512e-07
-7.87983e-05
-1.90191e-06
-7.89989e-05
-4.83363e-06
-7.84846e-05
-8.01513e-06
-7.71443e-05
-1.13846e-05
-7.48773e-05
-1.48512e-05
-7.16059e-05
-1.82954e-05
-6.72889e-05
-2.15714e-05
-6.19334e-05
-2.45143e-05
-5.56049e-05
-2.69508e-05
-4.84326e-05
-2.87148e-05
-4.06093e-05
-2.96633e-05
-3.23829e-05
-2.9696e-05
-2.40429e-05
-2.87695e-05
-1.58967e-05
-2.69094e-05
-8.2457e-06
-2.4213e-05
-1.35478e-06
-2.08428e-05
4.56822e-06
-1.70099e-05
9.3925e-06
-1.29483e-05
1.30651e-05
-8.88879e-06
1.56102e-05
-5.02911e-06
1.71077e-05
-1.52057e-06
1.76813e-05
1.54668e-06
1.74675e-05
4.13337e-06
1.66128e-05
6.24941e-06
1.52441e-05
7.92731e-06
1.34864e-05
9.21616e-06
1.14341e-05
1.01487e-05
9.19491e-06
1.07385e-05
6.85201e-06
1.09382e-05
4.54638e-06
1.06329e-05
2.42194e-06
9.57057e-06
7.77794e-07
7.34568e-06
3.31781e-06
-9.3398e-07
3.15253e-06
-3.04661e-06
7.78417e-06
-5.9259e-06
1.09522e-05
-9.23879e-06
1.31086e-05
-1.28369e-05
1.44953e-05
-1.65888e-05
1.54196e-05
-2.04535e-05
1.60298e-05
-2.43805e-05
1.64854e-05
-2.83584e-05
1.68363e-05
-3.23581e-05
1.71337e-05
-3.63674e-05
1.73675e-05
-4.03601e-05
1.75383e-05
-4.43216e-05
1.76221e-05
-4.82321e-05
1.76122e-05
-5.20849e-05
1.74944e-05
-5.58757e-05
1.72693e-05
-5.96133e-05
1.69325e-05
-6.33105e-05
1.64856e-05
-6.6988e-05
1.59216e-05
-7.06659e-05
1.52306e-05
-7.43632e-05
1.4391e-05
-7.80891e-05
1.33744e-05
-8.18407e-05
1.21418e-05
-8.55946e-05
1.06481e-05
-8.9303e-05
8.8419e-06
-9.28868e-05
6.67167e-06
-9.62328e-05
4.08873e-06
-9.9192e-05
1.05598e-06
-0.000101583
-2.44457e-06
-0.0001032
-6.40091e-06
-0.000103825
-1.07625e-05
-0.000103248
-1.54321e-05
-0.000101284
-2.02633e-05
-9.77974e-05
-2.50622e-05
-9.27202e-05
-2.95962e-05
-8.60678e-05
-3.36082e-05
-7.79504e-05
-3.68372e-05
-6.85771e-05
-3.90418e-05
-5.82506e-05
-4.00274e-05
-4.73535e-05
-3.96715e-05
-3.63208e-05
-3.79463e-05
-2.56069e-05
-3.4931e-05
-1.56408e-05
-3.0812e-05
-6.787e-06
-2.58665e-05
6.92808e-07
-2.04296e-05
6.65496e-06
-1.48525e-05
1.10802e-05
-9.45425e-06
1.4049e-05
-4.48986e-06
1.57206e-05
-1.23383e-07
1.62882e-05
3.56585e-06
1.5963e-05
6.57754e-06
1.49338e-05
8.95656e-06
1.33796e-05
1.07746e-05
1.14365e-05
1.20911e-05
9.24391e-06
1.2937e-05
6.90712e-06
1.32726e-05
4.58484e-06
1.29632e-05
2.43657e-06
1.17132e-05
7.76061e-07
9.01694e-06
4.09103e-06
-1.08311e-06
4.22815e-06
-3.50701e-06
1.02199e-05
-6.78203e-06
1.42152e-05
-1.0519e-05
1.68528e-05
-1.45485e-05
1.85168e-05
-1.87234e-05
1.95982e-05
-2.30004e-05
2.0301e-05
-2.73239e-05
2.08103e-05
-3.16822e-05
2.11903e-05
-3.60431e-05
2.14947e-05
-4.03953e-05
2.1716e-05
-4.47147e-05
2.18569e-05
-4.89957e-05
2.19e-05
-5.32332e-05
2.18485e-05
-5.74441e-05
2.17025e-05
-6.16549e-05
2.14785e-05
-6.59131e-05
2.11882e-05
-7.02755e-05
2.08463e-05
-7.48103e-05
2.04542e-05
-7.95852e-05
2.0004e-05
-8.46642e-05
1.94684e-05
-9.00949e-05
1.8804e-05
-9.59008e-05
1.79466e-05
-0.000102068
1.68149e-05
-0.000108536
1.53094e-05
-0.000115184
1.33203e-05
-0.000121829
1.07342e-05
-0.000128221
7.44864e-06
-0.000134052
3.38869e-06
-0.000138977
-1.4741e-06
-0.000142631
-7.10565e-06
-0.000144662
-1.33971e-05
-0.00014476
-2.01618e-05
-0.000142679
-2.7139e-05
-0.000138264
-3.40065e-05
-0.000131468
-4.03992e-05
-0.000122367
-4.59338e-05
-0.000111167
-5.02372e-05
-9.82089e-05
-5.29812e-05
-8.39596e-05
-5.39171e-05
-6.899e-05
-5.29126e-05
-5.39389e-05
-4.99796e-05
-3.94574e-05
-4.52913e-05
-2.61477e-05
-3.91751e-05
-1.44951e-05
-3.20808e-05
-4.82359e-06
-2.45239e-05
2.73355e-06
-1.70107e-05
8.21605e-06
-9.9733e-06
1.18082e-05
-3.71524e-06
1.37746e-05
1.59752e-06
1.44216e-05
5.93077e-06
1.40375e-05
9.33755e-06
1.2891e-05
1.19218e-05
1.11914e-05
1.37862e-05
9.13366e-06
1.49967e-05
6.86291e-06
1.55371e-05
4.56628e-06
1.52641e-05
2.42521e-06
1.38451e-05
7.68599e-07
1.0681e-05
4.85371e-06
-1.22189e-06
5.44344e-06
-3.93581e-06
1.29491e-05
-7.57817e-06
1.78461e-05
-1.17071e-05
2.09923e-05
-1.6134e-05
2.29374e-05
-2.06963e-05
2.41676e-05
-2.53488e-05
2.49503e-05
-3.00313e-05
2.54979e-05
-3.47329e-05
2.58906e-05
-3.94207e-05
2.61863e-05
-4.40884e-05
2.63836e-05
-4.8721e-05
2.64927e-05
-5.33314e-05
2.65111e-05
-5.79422e-05
2.6462e-05
-6.26093e-05
2.63707e-05
-6.74082e-05
2.62798e-05
-7.24444e-05
2.62257e-05
-7.78379e-05
2.62418e-05
-8.37229e-05
2.63405e-05
-9.02304e-05
2.65132e-05
-9.74805e-05
2.67195e-05
-0.000105562
2.68871e-05
-0.00011452
2.69047e-05
-0.000124328
2.66236e-05
-0.000134877
2.58583e-05
-0.000145955
2.43984e-05
-0.000157247
2.20257e-05
-0.000168341
1.85426e-05
-0.000178755
1.38022e-05
-0.000187969
7.73946e-06
-0.000195466
3.90534e-07
-0.000200766
-8.09748e-06
-0.000203457
-1.74712e-05
-0.000203215
-2.73827e-05
-0.000199814
-3.74084e-05
-0.000193146
-4.70684e-05
-0.000183229
-5.58514e-05
-0.000170227
-6.32404e-05
-0.000154461
-6.87484e-05
-0.000136422
-7.19577e-05
-0.000116766
-7.257e-05
-9.62924e-05
-7.04545e-05
-7.58923e-05
-6.56926e-05
-5.64705e-05
-5.85986e-05
-3.88438e-05
-4.97083e-05
-2.36483e-05
-3.97208e-05
-1.12596e-05
-2.93993e-05
-1.77734e-06
-1.94564e-05
4.95396e-06
-1.04454e-05
9.26108e-06
-2.71019e-06
1.15705e-05
3.62365e-06
1.23127e-05
8.59451e-06
1.1895e-05
1.23429e-05
1.06449e-05
1.50347e-05
8.84984e-06
1.67968e-05
6.72266e-06
1.76609e-05
4.49819e-06
1.74957e-05
2.39187e-06
1.5945e-05
7.54728e-07
1.23282e-05
5.60496e-06
-1.35284e-06
6.78745e-06
-4.33587e-06
1.59472e-05
-8.31644e-06
2.18123e-05
-1.28046e-05
2.549e-05
-1.75941e-05
2.77177e-05
-2.2509e-05
2.90878e-05
-2.75027e-05
2.99379e-05
-3.25119e-05
3.05098e-05
-3.75282e-05
3.09025e-05
-4.25217e-05
3.11808e-05
-4.74973e-05
3.13559e-05
-5.24584e-05
3.14539e-05
-5.74495e-05
3.14995e-05
-6.25372e-05
3.1549e-05
-6.7836e-05
3.16672e-05
-7.34917e-05
3.19346e-05
-7.96894e-05
3.24213e-05
-8.66322e-05
3.31836e-05
-9.45364e-05
3.42431e-05
-0.000103607
3.55823e-05
-0.000114019
3.71303e-05
-0.000125889
3.87566e-05
-0.000139246
4.02615e-05
-0.000153999
4.13763e-05
-0.000169912
4.17714e-05
-0.000186595
4.10832e-05
-0.000203523
3.89547e-05
-0.000220067
3.50881e-05
-0.000235554
2.92919e-05
-0.000249326
2.15137e-05
-0.00026078
1.18481e-05
-0.0002694
5.26217e-07
-0.000274762
-1.21057e-05
-0.000276532
-2.56096e-05
-0.00027446
-3.94764e-05
-0.000268383
-5.31406e-05
-0.000258236
-6.59945e-05
-0.000244069
-7.74031e-05
-0.000226084
-8.67285e-05
-0.000204673
-9.33648e-05
-0.000180446
-9.67934e-05
-0.000154248
-9.66491e-05
-0.000127137
-9.28004e-05
-0.000100318
-8.54165e-05
-7.50169e-05
-7.50075e-05
-5.23361e-05
-6.24016e-05
-3.30876e-05
-4.86471e-05
-1.7697e-05
-3.48479e-05
-6.17404e-06
-2.19678e-05
1.8041e-06
-1.069e-05
6.78022e-06
-1.35168e-06
9.36565e-06
6.00648e-06
1.01629e-05
1.15471e-05
9.67689e-06
1.55169e-05
8.33919e-06
1.81371e-05
6.47081e-06
1.95237e-05
4.38296e-06
1.95885e-05
2.34428e-06
1.79753e-05
7.39928e-07
1.39405e-05
6.33955e-06
-1.4718e-06
8.25108e-06
-4.69968e-06
1.9193e-05
-8.98724e-06
2.60859e-05
-1.38009e-05
3.03158e-05
-1.89189e-05
3.28278e-05
-2.41538e-05
3.43305e-05
-2.94588e-05
3.52385e-05
-3.47689e-05
3.58253e-05
-4.00814e-05
3.62129e-05
-4.53748e-05
3.64781e-05
-5.06739e-05
3.66542e-05
-5.60128e-05
3.67958e-05
-6.14843e-05
3.6971e-05
-6.72189e-05
3.72861e-05
-7.34126e-05
3.78616e-05
-8.03039e-05
3.8828e-05
-8.81775e-05
4.02959e-05
-9.73353e-05
4.23432e-05
-0.000108082
4.49909e-05
-0.000120689
4.81904e-05
-0.00013536
5.18023e-05
-0.000152185
5.55826e-05
-0.000171094
5.91708e-05
-0.000191816
6.20992e-05
-0.000213869
6.38252e-05
-0.000236581
6.37965e-05
-0.000259159
6.15329e-05
-0.000280774
5.67029e-05
-0.00030065
4.91681e-05
-0.000318124
3.89874e-05
-0.000332665
2.63878e-05
-0.000343864
1.17238e-05
-0.000351408
-4.56349e-06
-0.000355046
-2.19742e-05
-0.000354559
-3.99654e-05
-0.000349749
-5.79526e-05
-0.00034044
-7.53057e-05
-0.000326502
-9.1342e-05
-0.000307902
-0.000105329
-0.000284766
-0.000116501
-0.000257457
-0.000124102
-0.000226644
-0.000127461
-0.000193348
-0.000126095
-0.000158929
-0.000119835
-0.00012499
-0.000108946
-9.31987e-05
-9.41929e-05
-6.50323e-05
-7.68128e-05
-4.15353e-05
-5.83458e-05
-2.31533e-05
-4.03488e-05
-9.74858e-06
-2.40958e-05
-7.33608e-07
-1.03648e-05
4.69618e-06
5.75404e-07
7.39686e-06
8.84937e-06
8.1236e-06
1.4788e-05
7.52062e-06
1.87444e-05
6.07281e-06
2.09678e-05
4.20922e-06
2.14586e-05
2.27989e-06
1.98979e-05
7.23248e-07
1.55065e-05
7.05903e-06
-1.58061e-06
9.82169e-06
-5.03e-06
2.26601e-05
-9.59436e-06
3.06338e-05
-1.47015e-05
3.54343e-05
-2.01164e-05
3.82324e-05
-2.56423e-05
3.9863e-05
-3.12335e-05
4.0823e-05
-3.68266e-05
4.14219e-05
-4.24284e-05
4.181e-05
-4.80333e-05
4.20846e-05
-5.36966e-05
4.23141e-05
-5.94991e-05
4.25988e-05
-6.5601e-05
4.30702e-05
-7.22199e-05
4.39048e-05
-7.96558e-05
4.52951e-05
-8.82597e-05
4.74312e-05
-9.84295e-05
5.04638e-05
-0.000110567
5.44802e-05
-0.000125051
5.9473e-05
-0.000142175
6.53137e-05
-0.000162095
7.17219e-05
-0.000184756
7.82437e-05
-0.000209839
8.42528e-05
-0.000236733
8.89939e-05
-0.000264585
9.16776e-05
-0.000292396
9.16081e-05
-0.000319164
8.83017e-05
-0.00034401
8.15485e-05
-0.00036625
7.14076e-05
-0.000385414
5.81511e-05
-0.000401219
4.21908e-05
-0.000413507
2.40106e-05
-0.00042219
4.11743e-06
-0.000427184
-1.69824e-05
-0.000428365
-3.87871e-05
-0.000425538
-6.07831e-05
-0.000418426
-8.24195e-05
-0.000406695
-0.000103075
-0.000389996
-0.00012203
-0.000368047
-0.000138451
-0.000340743
-0.000151405
-0.000308291
-0.000159912
-0.000271333
-0.00016305
-0.000231049
-0.000160116
-0.000189159
-0.000150833
-0.000147801
-0.000135549
-0.000109247
-0.000115365
-7.55017e-05
-9.20913e-05
-4.78919e-05
-6.79576e-05
-2.6855e-05
-4.51343e-05
-1.19869e-05
-2.52319e-05
-2.35189e-06
-9.06191e-06
3.2025e-06
3.29667e-06
5.76631e-06
1.22209e-05
6.28534e-06
1.82283e-05
5.48355e-06
2.17646e-05
3.96478e-06
2.29824e-05
2.20014e-06
2.16547e-05
7.08196e-07
1.70063e-05
7.7624e-06
-1.67636e-06
1.14887e-05
-5.32219e-06
2.63261e-05
-1.01328e-05
3.54283e-05
-1.55021e-05
4.08172e-05
-2.11843e-05
4.39053e-05
-2.69754e-05
4.56628e-05
-3.2833e-05
4.66754e-05
-3.86986e-05
4.72932e-05
-4.45943e-05
4.77031e-05
-5.05396e-05
4.80341e-05
-5.66342e-05
4.84076e-05
-6.30234e-05
4.89912e-05
-6.99572e-05
5.00039e-05
-7.77624e-05
5.17126e-05
-8.68616e-05
5.43949e-05
-9.77294e-05
5.83012e-05
-0.000110873
6.36082e-05
-0.00012677
7.03787e-05
-0.000145813
7.85171e-05
-0.000168222
8.77238e-05
-0.000193954
9.74554e-05
-0.000222623
0.000106913
-0.000253466
0.000115096
-0.000285402
0.00012093
-0.000317185
0.000123461
-0.000347605
0.000122028
-0.000375664
0.000116359
-0.000400672
0.000106553
-0.000422256
9.29887e-05
-0.000440318
7.62089e-05
-0.000454946
5.68138e-05
-0.000466326
3.53852e-05
-0.000474658
1.24439e-05
-0.000480083
-1.1563e-05
-0.000482628
-3.62487e-05
-0.000482161
-6.12561e-05
-0.000478375
-8.62124e-05
-0.000470782
-0.000110676
-0.000458741
-0.000134077
-0.000441531
-0.000155668
-0.000418456
-0.000174486
-0.000389011
-0.000189361
-0.000353091
-0.000198973
-0.000311204
-0.000202004
-0.000264654
-0.000197381
-0.0002156
-0.000184602
-0.000166891
-0.000164072
-0.000121639
-0.000137342
-8.25607e-05
-0.000107034
-5.13363e-05
-7.63595e-05
-2.82931e-05
-4.82735e-05
-1.26311e-05
-2.47255e-05
-2.92891e-06
-6.40306e-06
2.32593e-06
6.9637e-06
4.49568e-06
1.60623e-05
4.64531e-06
2.16111e-05
3.6324e-06
2.40012e-05
2.10387e-06
2.31767e-05
6.96287e-07
1.84225e-05
8.4549e-06
-1.76066e-06
1.32383e-05
-5.5789e-06
3.01641e-05
-1.06066e-05
4.04379e-05
-1.62091e-05
4.64323e-05
-2.21318e-05
4.98168e-05
-2.81665e-05
5.17049e-05
-3.42763e-05
5.27778e-05
-4.0412e-05
5.3433e-05
-4.66182e-05
5.39042e-05
-5.29506e-05
5.43685e-05
-5.95688e-05
5.50221e-05
-6.67027e-05
5.61257e-05
-7.47126e-05
5.80108e-05
-8.40522e-05
6.1052e-05
-9.52756e-05
6.56158e-05
-0.000108973
7.19977e-05
-0.000125728
8.03614e-05
-0.000146025
9.06752e-05
-0.000170157
0.000102647
-0.000198094
0.000115661
-0.000229384
0.000128745
-0.000263098
0.000140627
-0.000297903
0.0001499
-0.000332265
0.000155292
-0.000364728
0.000155922
-0.000394146
0.000151443
-0.000419809
0.000142019
-0.000441448
0.00012819
-0.000459164
0.000110703
-0.000473311
9.03538e-05
-0.000484378
6.78793e-05
-0.000492886
4.38929e-05
-0.000499305
1.88636e-05
-0.000503992
-6.87578e-06
-0.00050714
-3.3101e-05
-0.000508741
-5.96554e-05
-0.000508555
-8.63992e-05
-0.000506083
-0.000113148
-0.000500561
-0.000139601
-0.000490973
-0.00016526
-0.000476119
-0.000189344
-0.000454757
-0.000210729
-0.000425815
-0.000227921
-0.000388695
-0.000239129
-0.000343625
-0.000242453
-0.000291978
-0.00023625
-0.000236422
-0.000219626
-0.00018074
-0.000193022
-0.000129175
-0.000158597
-8.53859e-05
-0.000120149
-5.14147e-05
-8.22432e-05
-2.73282e-05
-4.88139e-05
-1.17094e-05
-2.20202e-05
-2.58584e-06
-2.16276e-06
1.96216e-06
1.15171e-05
3.48022e-06
2.00887e-05
3.19025e-06
2.42959e-05
1.99181e-06
2.43681e-05
6.91919e-07
1.97299e-05
9.14252e-06
-1.83069e-06
1.50588e-05
-5.79567e-06
3.41509e-05
-1.1011e-05
4.56357e-05
-1.68179e-05
5.22539e-05
-2.29558e-05
5.59447e-05
-2.92147e-05
5.79732e-05
-3.55659e-05
5.91234e-05
-4.19752e-05
5.98486e-05
-4.85176e-05
6.04436e-05
-5.5298e-05
6.11534e-05
-6.25528e-05
6.22756e-05
-7.06154e-05
6.41919e-05
-7.99731e-05
6.73684e-05
-9.1214e-05
7.22957e-05
-0.000105013
7.94153e-05
-0.000122039
8.90258e-05
-0.000142877
0.000101201
-0.000167893
0.000115694
-0.000197096
0.000131851
-0.000229985
0.000148551
-0.000265484
0.000164245
-0.000302011
0.000177154
-0.000337731
0.00018562
-0.000370909
0.000188469
-0.000400223
0.000185235
-0.000424925
0.000176144
-0.000444845
0.000161938
-0.000460277
0.000143622
-0.000471827
0.000122253
-0.000480256
9.87837e-05
-0.000486353
7.39785e-05
-0.000490848
4.83897e-05
-0.000494352
2.23712e-05
-0.000497336
-3.88858e-06
-0.000500105
-3.03279e-05
-0.000502785
-5.69711e-05
-0.000505292
-8.38879e-05
-0.000507291
-0.000111145
-0.000508145
-0.000138745
-0.000506865
-0.000166538
-0.000502094
-0.000194115
-0.000492143
-0.000220682
-0.000475132
-0.000244936
-0.000449268
-0.000264999
-0.000413264
-0.000278463
-0.000366876
-0.000282642
-0.000311444
-0.000275061
-0.000250213
-0.000254254
-0.000188153
-0.000220655
-0.000130986
-0.000177315
-8.35204e-05
-0.000129706
-4.80817e-05
-8.42535e-05
-2.41583e-05
-4.59416e-05
-9.53022e-06
-1.6793e-05
-1.5907e-06
3.58041e-06
1.87221e-06
1.66224e-05
2.6019e-06
2.35711e-05
1.85986e-06
2.5104e-05
6.97999e-07
2.08994e-05
9.83699e-06
-1.88785e-06
1.69349e-05
-5.97433e-06
3.82585e-05
-1.13482e-05
5.09901e-05
-1.73321e-05
5.82514e-05
-2.36618e-05
6.22623e-05
-3.0128e-05
6.44472e-05
-3.67139e-05
6.57014e-05
-4.34061e-05
6.6545e-05
-5.0319e-05
6.73511e-05
-5.76203e-05
6.84567e-05
-6.56389e-05
7.02901e-05
-7.48269e-05
7.33804e-05
-8.58048e-05
7.8343e-05
-9.92844e-05
8.57749e-05
-0.000116024
9.61523e-05
-0.000136696
0.000109697
-0.000161764
0.000126266
-0.000191293
0.000145222
-0.00022479
0.000165347
-0.000261082
0.000184842
-0.000298384
0.000201545
-0.000334574
0.000213342
-0.000367629
0.000218673
-0.000396028
0.000216866
-0.000418968
0.000208174
-0.000436369
0.000193545
-0.000448718
0.000174288
-0.000456862
0.000151768
-0.000461799
0.000127193
-0.000464514
0.000101502
-0.000465882
7.53505e-05
-0.000466622
4.91341e-05
-0.000467295
2.30484e-05
-0.000468321
-2.85805e-06
-0.000470004
-2.86402e-05
-0.000472542
-5.44269e-05
-0.000476023
-8.0402e-05
-0.000480376
-0.000106786
-0.000485309
-0.000133805
-0.000490204
-0.000161636
-0.000494009
-0.000190304
-0.000495146
-0.00021954
-0.000491497
-0.000248581
-0.00048052
-0.000275976
-0.00045957
-0.000299415
-0.000426464
-0.000315752
-0.000380269
-0.000321261
-0.000322154
-0.000312373
-0.000256013
-0.000286797
-0.000188299
-0.000245028
-0.000126592
-0.000191411
-7.69769e-05
-0.000133868
-4.17259e-05
-8.11907e-05
-1.93391e-05
-3.91817e-05
-6.58442e-06
-9.17252e-06
-3.64112e-07
1.03988e-05
1.80243e-06
2.14084e-05
1.69508e-06
2.52054e-05
7.16559e-07
2.18846e-05
1.05499e-05
-1.92854e-06
1.88528e-05
-6.10852e-06
4.24616e-05
-1.16101e-05
5.64734e-05
-1.77425e-05
6.43994e-05
-2.42397e-05
6.8749e-05
-3.0896e-05
7.11135e-05
-3.77097e-05
7.25093e-05
-4.46947e-05
7.35368e-05
-5.20145e-05
7.4668e-05
-5.99121e-05
7.63592e-05
-6.88218e-05
7.91987e-05
-7.93211e-05
8.38836e-05
-9.21554e-05
9.11775e-05
-0.000108126
0.000101749
-0.000128005
0.000116032
-0.000152351
0.000134046
-0.000181338
0.000155254
-0.000214532
0.000178418
-0.000250756
0.000201572
-0.000288102
0.000222189
-0.000324221
0.000237664
-0.00035681
0.000245932
-0.000384125
0.000245989
-0.000405278
0.00023802
-0.00042026
0.000223157
-0.000429749
0.000203036
-0.000434833
0.000179374
-0.00043673
0.000153668
-0.000436587
0.000127051
-0.000435349
0.000100266
-0.000433731
7.37329e-05
-0.000432227
4.76314e-05
-0.000431174
2.1995e-05
-0.000430804
-3.22762e-06
-0.000431309
-2.81353e-05
-0.000432872
-5.2864e-05
-0.000435682
-7.75925e-05
-0.000439909
-0.000102558
-0.00044565
-0.000128063
-0.000452816
-0.000154467
-0.000460986
-0.00018213
-0.00046922
-0.000211302
-0.000475879
-0.000241916
-0.00047852
-0.00027333
-0.000473962
-0.000303969
-0.000458625
-0.000331088
-0.000429256
-0.000350632
-0.000384017
-0.000357616
-0.000323803
-0.000347017
-0.000253264
-0.00031557
-0.000180723
-0.000263951
-0.000115991
-0.000198599
-6.62952e-05
-0.000130883
-3.31921e-05
-7.22849e-05
-1.36465e-05
-2.87169e-05
-3.52167e-06
2.71726e-07
6.78249e-07
1.72116e-05
1.46539e-06
2.44136e-05
7.44313e-07
2.26116e-05
1.12914e-05
-1.95403e-06
2.07945e-05
-6.19896e-06
4.67282e-05
-1.17967e-05
6.20508e-05
-1.80484e-05
7.0665e-05
-2.46884e-05
7.53762e-05
-3.15176e-05
7.79506e-05
-3.85528e-05
7.95361e-05
-4.58415e-05
8.08297e-05
-5.36049e-05
8.24255e-05
-6.21714e-05
8.49276e-05
-7.20867e-05
8.91095e-05
-8.40479e-05
9.5845e-05
-9.88962e-05
0.000106022
-0.000117462
0.000120314
-0.000140426
0.000138994
-0.000168091
0.00016171
-0.000200166
0.000187327
-0.000235563
0.000213813
-0.000272374
0.000238381
-0.000308112
0.000257925
-0.000340232
0.000269782
-0.000366737
0.000272435
-0.000386595
0.000265847
-0.000399819
0.000251244
-0.000407253
0.000230591
-0.000410216
0.000206
-0.000410155
0.000179314
-0.000408367
0.000151881
-0.000405851
0.000124535
-0.000403268
9.76838e-05
-0.000400986
7.145e-05
-0.000399159
4.58044e-05
-0.000397828
2.06636e-05
-0.000397001
-4.0562e-06
-0.000396715
-2.84218e-05
-0.000397085
-5.24952e-05
-0.00039832
-7.63593e-05
-0.000400721
-0.000100158
-0.000404653
-0.000124132
-0.000410471
-0.000148651
-0.000418389
-0.000174212
-0.000428289
-0.000201402
-0.000439462
-0.000230741
-0.00045033
-0.000262459
-0.000458227
-0.000296068
-0.000459375
-0.000329935
-0.000449235
-0.000360768
-0.000423368
-0.000383483
-0.000378917
-0.00039147
-0.000316482
-0.000378011
-0.000241748
-0.00033869
-0.000165413
-0.000274934
-9.98034e-05
-0.000196491
-5.26443e-05
-0.000119441
-2.36541e-05
-5.77066e-05
-8.03818e-06
-1.53456e-05
-9.53918e-07
1.01285e-05
1.11094e-06
2.23452e-05
7.70788e-07
2.29561e-05
1.20599e-05
-1.9594e-06
2.27432e-05
-6.23639e-06
5.1029e-05
-1.18949e-05
6.76909e-05
-1.82334e-05
7.70196e-05
-2.49881e-05
8.21206e-05
-3.1969e-05
8.4942e-05
-3.92143e-05
8.67758e-05
-4.68107e-05
8.84332e-05
-5.50437e-05
9.06558e-05
-6.43326e-05
9.42218e-05
-7.53313e-05
0.000100107
-8.88354e-05
0.000109353
-0.000105733
0.00012292
-0.000126796
0.000141381
-0.000152498
0.000164697
-0.000182734
0.000191949
-0.000216619
0.000221214
-0.000252374
0.00024957
-0.000287504
0.000273512
-0.000319287
0.000289709
-0.000345456
0.000295952
-0.000364749
0.00029173
-0.000377105
0.000278204
-0.000383462
0.000257604
-0.000385351
0.000232481
-0.000384443
0.000205093
-0.000382201
0.000177073
-0.000379686
0.000149366
-0.000377513
0.000122361
-0.000375911
9.60817e-05
-0.000374851
7.03886e-05
-0.000374161
4.51129e-05
-0.000373635
2.01371e-05
-0.00037311
-4.58243e-06
-0.000372509
-2.9024e-05
-0.000371874
-5.31318e-05
-0.000371383
-7.68517e-05
-0.00037136
-0.000100183
-0.000372273
-0.00012322
-0.000374707
-0.000146219
-0.000379293
-0.000169628
-0.000386568
-0.000194129
-0.000396746
-0.000220563
-0.00040939
-0.000249816
-0.000423025
-0.00028243
-0.000434798
-0.000318161
-0.000440359
-0.000355203
-0.000434189
-0.000389648
-0.000410652
-0.000415004
-0.000365885
-0.000422779
-0.000300424
-0.000404158
-0.000221515
-0.000353848
-0.000142941
-0.000275067
-7.94538e-05
-0.000182923
-3.77328e-05
-9.94251e-05
-1.45029e-05
-3.85746e-05
-3.36157e-06
-1.01418e-06
5.36996e-07
1.84455e-05
7.74829e-07
2.27202e-05
1.28338e-05
-1.94627e-06
2.46769e-05
-6.22111e-06
5.53253e-05
-1.19028e-05
7.33519e-05
-1.82931e-05
8.34235e-05
-2.5132e-05
8.89464e-05
-3.22403e-05
9.20578e-05
-3.96802e-05
9.42069e-05
-4.75816e-05
9.63384e-05
-5.62977e-05
9.93656e-05
-6.63369e-05
0.000104262
-7.84461e-05
0.000112212
-9.34812e-05
0.000124388
-0.000112309
0.000141743
-0.000135547
0.000164618
-0.000163339
0.000192485
-0.000195072
0.00022368
-0.000229235
0.000255373
-0.000263468
0.000283801
-0.000294991
0.000305031
-0.000321276
0.000315992
-0.000340746
0.00031542
-0.000353123
0.000304107
-0.000359328
0.000284409
-0.000361033
0.000259308
-0.000360124
0.000231573
-0.000358254
0.000203222
-0.000356576
0.000175394
-0.000355685
0.000148475
-0.000355705
0.000122379
-0.000356439
9.68156e-05
-0.000357538
7.14867e-05
-0.00035862
4.61942e-05
-0.000359354
2.08705e-05
-0.0003595
-4.43625e-06
-0.000358932