/*--------------------------------*- C++ -*----------------------------------*\
| =========                 |                                                 |
| \\      /  F ield         | OpenFOAM: The Open Source CFD Toolbox           |
|  \\    /   O peration     | Version:  2406                                  |
|   \\  /    A nd           | Website:  www.openfoam.com                      |
|    \\/     M anipulation  |                                                 |
\*---------------------------------------------------------------------------*/
FoamFile
{
    version     2.0;
    format      ascii;
    arch        "LSB;label=32;scalar=64";
    class       volVectorField;
    location    "30.3";
    object      Uold;
}
// * * * * * * * * * * * * * * * * * * * * * * * * * * * * * * * * * * * * * //

dimensions      [0 1 -1 0 0 0 0];

internalField   nonuniform List<vector> 
14400
(
(-1.42719e-05 1.42092e-05 0)
(5.57917e-06 -1.23197e-05 0)
(0.000107079 -3.94298e-05 0)
(0.000273929 -6.25924e-05 0)
(0.00049584 -7.57369e-05 0)
(0.000743673 -8.27571e-05 0)
(0.00100597 -8.3085e-05 0)
(0.0012616 -7.94037e-05 0)
(0.00150302 -7.20978e-05 0)
(0.00171838 -6.29998e-05 0)
(0.00190511 -5.27697e-05 0)
(0.00205926 -4.26459e-05 0)
(0.00218272 -3.31603e-05 0)
(0.00227692 -2.49844e-05 0)
(0.00234638 -1.83169e-05 0)
(0.00239498 -1.33194e-05 0)
(0.00242759 -9.84386e-06 0)
(0.00244793 -7.67508e-06 0)
(0.00245931 -6.42693e-06 0)
(0.0024635 -5.68963e-06 0)
(0.00246119 -5.00385e-06 0)
(0.00245155 -3.95265e-06 0)
(0.00243261 -2.15925e-06 0)
(0.00240125 6.67374e-07 0)
(0.00235357 4.74406e-06 0)
(0.00228503 1.02091e-05 0)
(0.00219067 1.71495e-05 0)
(0.00206528 2.56178e-05 0)
(0.00190345 3.56583e-05 0)
(0.00169962 4.73192e-05 0)
(0.00144806 6.06607e-05 0)
(0.00114292 7.57508e-05 0)
(0.000778177 9.26572e-05 0)
(0.00034777 0.000111434 0)
(-0.000154366 0.000132108 0)
(-0.000734146 0.00015467 0)
(-0.00139718 0.00017906 0)
(-0.00214857 0.000205166 0)
(-0.00299273 0.000232814 0)
(-0.00393315 0.000261766 0)
(-0.00497217 0.000291716 0)
(-0.00611079 0.000322295 0)
(-0.00734844 0.000353068 0)
(-0.0086828 0.000383538 0)
(-0.0101097 0.000413157 0)
(-0.0116228 0.00044133 0)
(-0.0132138 0.000467425 0)
(-0.0148722 0.000490788 0)
(-0.0165855 0.000510747 0)
(-0.0183388 0.00052663 0)
(-0.0201155 0.000537772 0)
(-0.021897 0.000543529 0)
(-0.0236631 0.000543282 0)
(-0.0253923 0.000536452 0)
(-0.0270614 0.000522509 0)
(-0.0286467 0.000500978 0)
(-0.0301236 0.00047146 0)
(-0.0314673 0.000433638 0)
(-0.0326528 0.0003873 0)
(-0.0336556 0.000332358 0)
(-0.0344522 0.000268874 0)
(-0.03502 0.00019708 0)
(-0.0353384 0.000117411 0)
(-0.0353891 3.05256e-05 0)
(-0.0351565 -6.26656e-05 0)
(-0.0346287 -0.000160985 0)
(-0.0337976 -0.000262978 0)
(-0.0326599 -0.000366911 0)
(-0.0312175 -0.000470787 0)
(-0.0294777 -0.000572378 0)
(-0.0274543 -0.000669272 0)
(-0.0251671 -0.000758945 0)
(-0.0226422 -0.000838848 0)
(-0.0199122 -0.000906507 0)
(-0.0170151 -0.000959648 0)
(-0.0139946 -0.000996312 0)
(-0.0108981 -0.00101498 0)
(-0.00777646 -0.00101469 0)
(-0.00468203 -0.000995097 0)
(-0.00166731 -0.000956579 0)
(0.00121681 -0.000900212 0)
(0.00392274 -0.000827772 0)
(0.00640779 -0.000741654 0)
(0.00863572 -0.000644762 0)
(0.0105779 -0.000540361 0)
(0.0122141 -0.0004319 0)
(0.0135333 -0.000322831 0)
(0.0145334 -0.000216426 0)
(0.0152209 -0.000115618 0)
(0.0156104 -2.28749e-05 0)
(0.0157235 5.98922e-05 0)
(0.015587 0.000131366 0)
(0.0152322 0.000190829 0)
(0.0146928 0.000238117 0)
(0.0140033 0.00027356 0)
(0.0131983 0.000297885 0)
(0.0123106 0.000312133 0)
(0.0113704 0.00031754 0)
(0.0104049 0.000315468 0)
(0.00943747 0.000307298 0)
(0.00848748 0.000294391 0)
(0.00757055 0.000277996 0)
(0.00669831 0.00025927 0)
(0.0058792 0.00023918 0)
(0.00511816 0.000218603 0)
(0.00441802 0.000198187 0)
(0.00377859 0.000178558 0)
(0.00319885 0.000160064 0)
(0.00267502 0.000143152 0)
(0.00220412 0.000127841 0)
(0.00178028 0.000114418 0)
(0.00140083 0.000102373 0)
(0.00105984 9.17484e-05 0)
(0.000758321 8.10535e-05 0)
(0.000493353 7.00569e-05 0)
(0.000273625 5.5733e-05 0)
(0.000102355 3.84823e-05 0)
(-4.73018e-06 1.45687e-05 0)
(-4.34158e-05 -7.97871e-06 0)
(-2.22637e-05 -2.18381e-05 0)
(1.13952e-05 -5.07106e-06 0)
(0.000143932 -0.000146228 0)
(0.000442909 -0.000282881 0)
(0.000867772 -0.000399672 0)
(0.00140438 -0.000473878 0)
(0.00199757 -0.000514417 0)
(0.00262136 -0.000520125 0)
(0.00323249 -0.000500435 0)
(0.00381047 -0.000459429 0)
(0.00432948 -0.000405259 0)
(0.00477999 -0.000343038 0)
(0.00515229 -0.000278956 0)
(0.00544731 -0.000216959 0)
(0.00566683 -0.000160633 0)
(0.00581835 -0.000111722 0)
(0.00590909 -7.11197e-05 0)
(0.00594794 -3.83262e-05 0)
(0.0059418 -1.20795e-05 0)
(0.00589637 9.71957e-06 0)
(0.00581416 2.95324e-05 0)
(0.00569498 5.00626e-05 0)
(0.00553523 7.39061e-05 0)
(0.00532848 0.000103422 0)
(0.00506557 0.000140551 0)
(0.00473528 0.000186796 0)
(0.00432471 0.000243222 0)
(0.00381987 0.000310552 0)
(0.00320595 0.000389256 0)
(0.00246774 0.000479665 0)
(0.00158971 0.000582031 0)
(0.000556241 0.000696556 0)
(-0.000648202 0.000823366 0)
(-0.00203886 0.000962461 0)
(-0.00363035 0.00111364 0)
(-0.00543631 0.00127643 0)
(-0.0074689 0.00145002 0)
(-0.00973825 0.00163319 0)
(-0.012252 0.00182432 0)
(-0.0150144 0.00202134 0)
(-0.0180265 0.00222173 0)
(-0.0212845 0.00242255 0)
(-0.0247805 0.00262046 0)
(-0.0285014 0.00281181 0)
(-0.0324287 0.00299266 0)
(-0.0365388 0.0031589 0)
(-0.040803 0.00330632 0)
(-0.0451875 0.00343072 0)
(-0.0496536 0.003528 0)
(-0.0541589 0.00359426 0)
(-0.058657 0.00362588 0)
(-0.063099 0.00361962 0)
(-0.0674335 0.00357265 0)
(-0.071608 0.00348262 0)
(-0.0755693 0.00334771 0)
(-0.0792646 0.00316668 0)
(-0.0826417 0.00293887 0)
(-0.0856504 0.00266424 0)
(-0.0882426 0.00234341 0)
(-0.0903736 0.0019777 0)
(-0.0920021 0.00156913 0)
(-0.0930911 0.0011205 0)
(-0.0936085 0.000635389 0)
(-0.0935279 0.000118244 0)
(-0.0928286 -0.000425623 0)
(-0.0914967 -0.000989992 0)
(-0.0895257 -0.00156773 0)
(-0.0869165 -0.00215079 0)
(-0.0836786 -0.00273031 0)
(-0.07983 -0.00329665 0)
(-0.0753979 -0.00383955 0)
(-0.0704184 -0.00434835 0)
(-0.0649376 -0.00481221 0)
(-0.0590102 -0.00522044 0)
(-0.0527003 -0.00556284 0)
(-0.04608 -0.00583011 0)
(-0.0392288 -0.00601425 0)
(-0.0322325 -0.006109 0)
(-0.0251816 -0.00611018 0)
(-0.0181694 -0.00601608 0)
(-0.0112903 -0.00582766 0)
(-0.00463725 -0.00554873 0)
(0.00170041 -0.00518591 0)
(0.00763935 -0.0047485 0)
(0.0131046 -0.00424823 0)
(0.0180316 -0.00369875 0)
(0.0223681 -0.00311516 0)
(0.0260759 -0.00251332 0)
(0.0291313 -0.00190919 0)
(0.0315261 -0.00131814 0)
(0.0332675 -0.000754306 0)
(0.0343772 -0.000230029 0)
(0.0348903 0.000244574 0)
(0.0348536 0.000661919 0)
(0.0343236 0.00101709 0)
(0.0333637 0.00130783 0)
(0.0320419 0.00153438 0)
(0.030428 0.0016992 0)
(0.0285908 0.00180658 0)
(0.0265964 0.00186224 0)
(0.0245056 0.00187284 0)
(0.0223728 0.0018456 0)
(0.0202453 0.00178779 0)
(0.0181618 0.00170655 0)
(0.0161536 0.00160846 0)
(0.0142437 0.00149957 0)
(0.0124487 0.001385 0)
(0.0107775 0.00126935 0)
(0.00923517 0.001156 0)
(0.00782009 0.00104803 0)
(0.00653014 0.000946778 0)
(0.00535728 0.000853592 0)
(0.00429793 0.000766938 0)
(0.00334297 0.000685953 0)
(0.00249485 0.000604779 0)
(0.0017495 0.000520701 0)
(0.00112279 0.000422914 0)
(0.000618382 0.000312211 0)
(0.000263239 0.000178565 0)
(5.44557e-05 5.1804e-05 0)
(-8.08142e-06 -4.33355e-05 0)
(3.6618e-05 -0.000103016 0)
(0.000274479 -0.000443359 0)
(0.000748437 -0.000759252 0)
(0.00138095 -0.00102201 0)
(0.00215673 -0.00119518 0)
(0.00300086 -0.00128805 0)
(0.00388002 -0.00130107 0)
(0.00473669 -0.00125105 0)
(0.00554248 -0.00114943 0)
(0.00626224 -0.00101333 0)
(0.00688127 -0.000855954 0)
(0.00738519 -0.000691168 0)
(0.00777301 -0.000529063 0)
(0.00804535 -0.000377914 0)
(0.00820995 -0.000242345 0)
(0.00827451 -0.000124424 0)
(0.0082486 -2.31768e-05 0)
(0.00813928 6.45105e-05 0)
(0.00795166 0.000143671 0)
(0.00768652 0.000220406 0)
(0.00734073 0.000301378 0)
(0.00690638 0.000393105 0)
(0.00637153 0.000501525 0)
(0.00572032 0.000631612 0)
(0.00493399 0.000787259 0)
(0.00399138 0.000971272 0)
(0.00286982 0.00118555 0)
(0.00154563 0.00143126 0)
(-5.22622e-06 0.00170909 0)
(-0.00180678 0.00201933 0)
(-0.00388255 0.00236192 0)
(-0.00625506 0.00273637 0)
(-0.00894522 0.00314163 0)
(-0.0119717 0.0035759 0)
(-0.0153499 0.00403647 0)
(-0.0190916 0.00451958 0)
(-0.0232032 0.00502032 0)
(-0.0276857 0.00553261 0)
(-0.0325333 0.00604922 0)
(-0.0377331 0.00656185 0)
(-0.0432642 0.00706124 0)
(-0.049098 0.00753743 0)
(-0.0551976 0.00797994 0)
(-0.0615186 0.00837806 0)
(-0.0680095 0.00872113 0)
(-0.0746124 0.00899888 0)
(-0.0812641 0.00920168 0)
(-0.0878977 0.00932078 0)
(-0.0944433 0.0093486 0)
(-0.10083 0.00927884 0)
(-0.106985 0.00910662 0)
(-0.11284 0.00882857 0)
(-0.118327 0.0084428 0)
(-0.12338 0.00794894 0)
(-0.12794 0.00734808 0)
(-0.131949 0.00664268 0)
(-0.135358 0.00583658 0)
(-0.138121 0.00493486 0)
(-0.140198 0.0039439 0)
(-0.141556 0.00287126 0)
(-0.142167 0.00172576 0)
(-0.14201 0.000517453 0)
(-0.141071 -0.000742337 0)
(-0.139341 -0.00204099 0)
(-0.13682 -0.00336456 0)
(-0.133513 -0.00469778 0)
(-0.129435 -0.00602409 0)
(-0.124606 -0.00732572 0)
(-0.119055 -0.00858386 0)
(-0.112819 -0.00977883 0)
(-0.105945 -0.0108904 0)
(-0.0984859 -0.0118983 0)
(-0.0905048 -0.0127826 0)
(-0.0820728 -0.0135241 0)
(-0.0732688 -0.0141055 0)
(-0.0641791 -0.0145115 0)
(-0.0548968 -0.01473 0)
(-0.0455199 -0.0147525 0)
(-0.0361508 -0.0145746 0)
(-0.0268937 -0.0141968 0)
(-0.0178535 -0.0136249 0)
(-0.00913311 -0.0128695 0)
(-0.000831466 -0.0119468 0)
(0.0069588 -0.0108774 0)
(0.0141536 -0.0096863 0)
(0.0206795 -0.00840196 0)
(0.0264757 -0.00705517 0)
(0.0314955 -0.00567807 0)
(0.0357079 -0.00430295 0)
(0.0390982 -0.00296098 0)
(0.0416682 -0.00168111 0)
(0.0434366 -0.000488982 0)
(0.0444378 0.000593926 0)
(0.0447208 0.001551 0)
(0.0443474 0.0023709 0)
(0.0433899 0.0030477 0)
(0.041928 0.00358077 0)
(0.0400464 0.00397433 0)
(0.0378309 0.00423685 0)
(0.0353662 0.00438017 0)
(0.0327324 0.00441867 0)
(0.0300032 0.00436815 0)
(0.0272436 0.00424511 0)
(0.0245095 0.00406574 0)
(0.021846 0.00384554 0)
(0.0192892 0.00359845 0)
(0.0168638 0.00333705 0)
(0.0145878 0.00307154 0)
(0.0124691 0.0028106 0)
(0.0105129 0.0025595 0)
(0.00871529 0.00232201 0)
(0.00707669 0.00209659 0)
(0.00558887 0.00188089 0)
(0.00425766 0.00166422 0)
(0.00307808 0.00143915 0)
(0.00207181 0.00118669 0)
(0.0012391 0.00090582 0)
(0.000619203 0.000583143 0)
(0.000201054 0.000267376 0)
(1.86788e-05 1.18904e-06 0)
(5.80208e-05 -0.000262087 0)
(0.000387394 -0.000862461 0)
(0.00100764 -0.00139074 0)
(0.00180264 -0.00181442 0)
(0.00275543 -0.00209326 0)
(0.00377417 -0.00223707 0)
(0.00482268 -0.00224971 0)
(0.00583348 -0.00215526 0)
(0.00677434 -0.00197356 0)
(0.00760377 -0.00173134 0)
(0.00830394 -0.001451 0)
(0.00885676 -0.00115487 0)
(0.00925923 -0.000859991 0)
(0.00950985 -0.000579858 0)
(0.00961495 -0.000322267 0)
(0.00958053 -9.04709e-05 0)
(0.00941436 0.000117251 0)
(0.00912103 0.000306393 0)
(0.00870253 0.00048566 0)
(0.00815554 0.000665662 0)
(0.00747193 0.00085795 0)
(0.00663782 0.00107386 0)
(0.00563449 0.00132373 0)
(0.00443865 0.00161621 0)
(0.00302364 0.00195808 0)
(0.00136018 0.00235413 0)
(-0.000582465 0.0028075 0)
(-0.0028357 0.00331986 0)
(-0.00543067 0.00389174 0)
(-0.00839744 0.00452267 0)
(-0.0117641 0.00521112 0)
(-0.0155559 0.00595439 0)
(-0.0197938 0.00674832 0)
(-0.0244938 0.00758701 0)
(-0.0296652 0.00846262 0)
(-0.0353097 0.00936515 0)
(-0.04142 0.0102825 0)
(-0.0479792 0.0112004 0)
(-0.0549598 0.012103 0)
(-0.0623237 0.0129727 0)
(-0.0700223 0.0137909 0)
(-0.0779971 0.0145389 0)
(-0.0861808 0.0151976 0)
(-0.0944989 0.015749 0)
(-0.102871 0.0161763 0)
(-0.111213 0.0164645 0)
(-0.119441 0.0166011 0)
(-0.127468 0.0165759 0)
(-0.135212 0.0163816 0)
(-0.142595 0.0160137 0)
(-0.149541 0.0154705 0)
(-0.155984 0.0147527 0)
(-0.161861 0.0138637 0)
(-0.167117 0.0128086 0)
(-0.171706 0.0115946 0)
(-0.175585 0.0102305 0)
(-0.178721 0.00872632 0)
(-0.181084 0.00709351 0)
(-0.182652 0.00534454 0)
(-0.183408 0.003493 0)
(-0.183341 0.00155358 0)
(-0.182442 -0.0004579 0)
(-0.180709 -0.00252438 0)
(-0.178146 -0.00462751 0)
(-0.174759 -0.0067475 0)
(-0.17056 -0.0088631 0)
(-0.165567 -0.0109515 0)
(-0.159803 -0.0129886 0)
(-0.153297 -0.0149486 0)
(-0.146085 -0.0168048 0)
(-0.138208 -0.0185297 0)
(-0.129717 -0.0200954 0)
(-0.120668 -0.0214742 0)
(-0.111128 -0.0226395 0)
(-0.101168 -0.0235665 0)
(-0.0908692 -0.0242331 0)
(-0.0803192 -0.0246211 0)
(-0.0696117 -0.0247167 0)
(-0.0588459 -0.0245121 0)
(-0.0481247 -0.0240054 0)
(-0.037553 -0.0232018 0)
(-0.0272364 -0.0221137 0)
(-0.0172784 -0.0207607 0)
(-0.00777876 -0.0191694 0)
(0.00116878 -0.0173725 0)
(0.00947857 -0.0154083 0)
(0.0170749 -0.0133193 0)
(0.0238939 -0.0111508 0)
(0.0298846 -0.00894974 0)
(0.0350108 -0.00676282 0)
(0.0392514 -0.00463511 0)
(0.0426014 -0.00260855 0)
(0.0450719 -0.000720584 0)
(0.0466902 0.000997076 0)
(0.0474991 0.00251943 0)
(0.0475553 0.00382889 0)
(0.0469284 0.00491566 0)
(0.0456979 0.00577774 0)
(0.0439509 0.0064205 0)
(0.0417785 0.00685594 0)
(0.0392729 0.0071016 0)
(0.036524 0.00717915 0)
(0.0336161 0.00711312 0)
(0.0306264 0.00692925 0)
(0.0276216 0.00665345 0)
(0.0246589 0.00631029 0)
(0.0217826 0.00592268 0)
(0.0190286 0.00551023 0)
(0.0164196 0.00508982 0)
(0.0139737 0.00467313 0)
(0.0116968 0.0042685 0)
(0.00959781 0.00387633 0)
(0.00767323 0.00349414 0)
(0.0059351 0.00310798 0)
(0.00437837 0.00270611 0)
(0.00303133 0.00226281 0)
(0.00188944 0.00177314 0)
(0.00100691 0.00121947 0)
(0.000366437 0.000655806 0)
(4.9649e-05 0.000129523 0)
(7.10251e-05 -0.000475206 0)
(0.000466805 -0.00139712 0)
(0.00119901 -0.0021733 0)
(0.00211671 -0.00277398 0)
(0.00319838 -0.00316282 0)
(0.00433546 -0.00335153 0)
(0.0054891 -0.00335024 0)
(0.00658359 -0.00319097 0)
(0.00758468 -0.0029036 0)
(0.00844652 -0.00252534 0)
(0.00914969 -0.00208887 0)
(0.00967348 -0.00162568 0)
(0.0100134 -0.00116033 0)
(0.0101655 -0.000711739 0)
(0.0101342 -0.000290864 0)
(0.00992234 9.82175e-05 0)
(0.00953429 0.000458544 0)
(0.00897021 0.000798804 0)
(0.00822688 0.00113231 0)
(0.00729483 0.00147517 0)
(0.006159 0.00184479 0)
(0.00479798 0.00225816 0)
(0.00318508 0.00273063 0)
(0.00128891 0.00327496 0)
(-0.000925167 0.0039009 0)
(-0.00349391 0.0046151 0)
(-0.00645476 0.00542138 0)
(-0.00984466 0.00632106 0)
(-0.0136986 0.00731326 0)
(-0.0180485 0.00839494 0)
(-0.0229216 0.00956084 0)
(-0.0283387 0.0108032 0)
(-0.034313 0.0121114 0)
(-0.0408483 0.0134716 0)
(-0.0479372 0.0148666 0)
(-0.0555603 0.0162761 0)
(-0.0636852 0.0176764 0)
(-0.0722662 0.0190414 0)
(-0.0812445 0.0203432 0)
(-0.0905498 0.0215529 0)
(-0.100101 0.0226414 0)
(-0.109809 0.0235811 0)
(-0.119581 0.0243463 0)
(-0.129317 0.0249142 0)
(-0.138922 0.025266 0)
(-0.148301 0.0253869 0)
(-0.157365 0.0252667 0)
(-0.166031 0.0248998 0)
(-0.174223 0.0242845 0)
(-0.181876 0.0234234 0)
(-0.188932 0.0223221 0)
(-0.195342 0.0209894 0)
(-0.201065 0.019436 0)
(-0.206068 0.0176748 0)
(-0.210324 0.0157197 0)
(-0.213812 0.0135858 0)
(-0.216516 0.0112889 0)
(-0.218423 0.00884564 0)
(-0.219525 0.00627294 0)
(-0.219816 0.00358856 0)
(-0.219292 0.000810994 0)
(-0.217953 -0.00204033 0)
(-0.215799 -0.00494482 0)
(-0.212835 -0.00788049 0)
(-0.209066 -0.0108238 0)
(-0.2045 -0.0137492 0)
(-0.199152 -0.0166295 0)
(-0.193035 -0.0194352 0)
(-0.186172 -0.0221351 0)
(-0.178589 -0.0246961 0)
(-0.170318 -0.0270837 0)
(-0.161398 -0.0292626 0)
(-0.151876 -0.0311972 0)
(-0.141807 -0.0328527 0)
(-0.131255 -0.0341962 0)
(-0.120291 -0.0351975 0)
(-0.108995 -0.035831 0)
(-0.0974558 -0.0360763 0)
(-0.0857682 -0.03592 0)
(-0.0740326 -0.0353566 0)
(-0.0623538 -0.034389 0)
(-0.0508384 -0.0330296 0)
(-0.0395933 -0.0313001 0)
(-0.028723 -0.0292311 0)
(-0.0183278 -0.0268618 0)
(-0.00850147 -0.0242389 0)
(0.000670558 -0.021415 0)
(0.00911288 -0.0184471 0)
(0.0167614 -0.0153952 0)
(0.0235646 -0.01232 0)
(0.0294841 -0.00928153 0)
(0.0344957 -0.00633727 0)
(0.0385896 -0.00354043 0)
(0.041771 -0.000938522 0)
(0.04406 0.00142808 0)
(0.0454916 0.00352731 0)
(0.0461153 0.00533634 0)
(0.0459938 0.00684216 0)
(0.0452013 0.00804177 0)
(0.0438213 0.00894184 0)
(0.0419439 0.00955792 0)
(0.0396624 0.00991305 0)
(0.0370696 0.0100363 0)
(0.0342555 0.0099607 0)
(0.0313029 0.00972151 0)
(0.028287 0.00935406 0)
(0.0252709 0.00889259 0)
(0.0223092 0.00836791 0)
(0.0194417 0.00780725 0)
(0.016703 0.00723118 0)
(0.0141118 0.00665488 0)
(0.0116895 0.00608313 0)
(0.00944046 0.00551502 0)
(0.00738571 0.00493544 0)
(0.00552235 0.00432878 0)
(0.00388773 0.00366389 0)
(0.00247482 0.00292902 0)
(0.00135628 0.00210068 0)
(0.000512667 0.0012249 0)
(7.54315e-05 0.000342 0)
(8.04527e-05 -0.000719114 0)
(0.000525773 -0.00200423 0)
(0.00134 -0.00304783 0)
(0.00234412 -0.0038274 0)
(0.00351003 -0.00431697 0)
(0.00471411 -0.00453365 0)
(0.00591449 -0.00449696 0)
(0.00702871 -0.0042482 0)
(0.00802147 -0.00382856 0)
(0.00884405 -0.00328608 0)
(0.00947653 -0.00266401 0)
(0.00989647 -0.00200277 0)
(0.0100982 -0.00133412 0)
(0.0100754 -0.000681747 0)
(0.00982967 -5.90397e-05 0)
(0.00935978 0.000529986 0)
(0.00866505 0.00109061 0)
(0.00773946 0.00163566 0)
(0.00657262 0.00218388 0)
(0.00514706 0.00275764 0)
(0.00343916 0.00338065 0)
(0.00141871 0.00407579 0)
(-0.000949602 0.00486335 0)
(-0.00370526 0.00575976 0)
(-0.00688998 0.00677699 0)
(-0.0105463 0.00792242 0)
(-0.0147154 0.00919906 0)
(-0.0194359 0.0106059 0)
(-0.0247414 0.0121381 0)
(-0.0306589 0.0137869 0)
(-0.0372066 0.0155398 0)
(-0.044392 0.0173797 0)
(-0.0522099 0.0192849 0)
(-0.0606406 0.021229 0)
(-0.069649 0.023181 0)
(-0.0791843 0.0251059 0)
(-0.0891801 0.0269659 0)
(-0.0995559 0.028721 0)
(-0.110219 0.0303311 0)
(-0.121069 0.0317575 0)
(-0.131998 0.0329643 0)
(-0.142898 0.0339196 0)
(-0.153662 0.0345973 0)
(-0.164188 0.0349772 0)
(-0.174382 0.0350456 0)
(-0.18416 0.0347952 0)
(-0.193448 0.0342248 0)
(-0.202182 0.0333384 0)
(-0.210313 0.0321446 0)
(-0.217796 0.0306556 0)
(-0.224601 0.0288863 0)
(-0.230702 0.0268535 0)
(-0.23608 0.0245752 0)
(-0.240722 0.0220701 0)
(-0.244618 0.0193571 0)
(-0.247762 0.0164552 0)
(-0.250148 0.0133831 0)
(-0.251773 0.0101596 0)
(-0.252634 0.0068034 0)
(-0.252728 0.00333351 0)
(-0.252053 -0.000230503 0)
(-0.250606 -0.00386821 0)
(-0.248386 -0.00755792 0)
(-0.245391 -0.0112763 0)
(-0.241621 -0.014998 0)
(-0.237077 -0.0186953 0)
(-0.231761 -0.022338 0)
(-0.225681 -0.0258931 0)
(-0.218847 -0.0293248 0)
(-0.211272 -0.0325948 0)
(-0.202979 -0.0356622 0)
(-0.193992 -0.0384847 0)
(-0.184348 -0.0410188 0)
(-0.17409 -0.0432214 0)
(-0.16327 -0.0450504 0)
(-0.15195 -0.0464668 0)
(-0.140203 -0.0474359 0)
(-0.128111 -0.0479292 0)
(-0.115763 -0.0479258 0)
(-0.10326 -0.0474143 0)
(-0.090706 -0.0463934 0)
(-0.0782102 -0.0448732 0)
(-0.0658839 -0.0428757 0)
(-0.053838 -0.0404338 0)
(-0.0421799 -0.0375916 0)
(-0.0310115 -0.0344024 0)
(-0.0204271 -0.0309273 0)
(-0.0105112 -0.0272337 0)
(-0.00133761 -0.0233925 0)
(0.00703183 -0.0194768 0)
(0.0145475 -0.0155592 0)
(0.0211726 -0.0117103 0)
(0.0268828 -0.00799695 0)
(0.031667 -0.00448065 0)
(0.0355271 -0.00121598 0)
(0.0384784 0.00175071 0)
(0.0405497 0.00438255 0)
(0.0417832 0.00665319 0)
(0.0422342 0.00854762 0)
(0.0419701 0.0100624 0)
(0.0410684 0.0112058 0)
(0.039615 0.0119964 0)
(0.0377002 0.0124623 0)
(0.0354168 0.0126389 0)
(0.0328551 0.0125672 0)
(0.030102 0.0122903 0)
(0.0272347 0.0118524 0)
(0.0243242 0.0112952 0)
(0.0214268 0.0106566 0)
(0.0185939 0.0099677 0)
(0.0158591 0.00925213 0)
(0.0132585 0.00852146 0)
(0.0108065 0.00777838 0)
(0.0085359 0.00700916 0)
(0.00644872 0.00619543 0)
(0.00459324 0.00530197 0)
(0.00296308 0.00430737 0)
(0.00164998 0.00317934 0)
(0.000635973 0.00194357 0)
(9.69395e-05 0.000622802 0)
(8.62759e-05 -0.00099044 0)
(0.000565292 -0.00267338 0)
(0.00143489 -0.00400014 0)
(0.00249306 -0.0049586 0)
(0.00370395 -0.00553689 0)
(0.00493019 -0.00576064 0)
(0.00612614 -0.00566191 0)
(0.00720346 -0.00529318 0)
(0.00812616 -0.00470864 0)
(0.00884368 -0.00396788 0)
(0.00933629 -0.00312519 0)
(0.00958057 -0.0022297 0)
(0.00956987 -0.00131983 0)
(0.00929562 -0.000423141 0)
(0.00875576 0.000445635 0)
(0.00794419 0.0012838 0)
(0.00685389 0.00210012 0)
(0.00547106 0.00291272 0)
(0.00377658 0.00374679 0)
(0.00174351 0.00463153 0)
(-0.000661361 0.00559727 0)
(-0.00347757 0.00667255 0)
(-0.00674876 0.00788189 0)
(-0.0105212 0.00924421 0)
(-0.0148415 0.010772 0)
(-0.0197543 0.0124712 0)
(-0.0252998 0.0143413 0)
(-0.0315118 0.0163756 0)
(-0.0384148 0.0185614 0)
(-0.0460219 0.02088 0)
(-0.054332 0.0233063 0)
(-0.0633282 0.025809 0)
(-0.0729757 0.0283504 0)
(-0.0832217 0.0308871 0)
(-0.0939951 0.0333711 0)
(-0.105208 0.0357512 0)
(-0.11676 0.0379751 0)
(-0.128538 0.0399917 0)
(-0.140425 0.0417532 0)
(-0.152302 0.043217 0)
(-0.164052 0.0443477 0)
(-0.175568 0.045118 0)
(-0.18675 0.0455094 0)
(-0.197512 0.0455117 0)
(-0.207782 0.0451231 0)
(-0.2175 0.0443484 0)
(-0.22662 0.0431987 0)
(-0.235105 0.0416892 0)
(-0.242932 0.0398388 0)
(-0.250081 0.0376681 0)
(-0.256542 0.0351992 0)
(-0.262308 0.0324543 0)
(-0.267375 0.0294556 0)
(-0.271742 0.0262244 0)
(-0.275407 0.0227814 0)
(-0.278371 0.0191465 0)
(-0.280631 0.0153386 0)
(-0.282185 0.0113764 0)
(-0.283031 0.00727805 0)
(-0.283165 0.00306213 0)
(-0.282581 -0.00125238 0)
(-0.281273 -0.00564543 0)
(-0.279234 -0.0100954 0)
(-0.276457 -0.0145787 0)
(-0.272935 -0.0190691 0)
(-0.268659 -0.0235376 0)
(-0.263626 -0.0279517 0)
(-0.25783 -0.0322755 0)
(-0.251271 -0.0364692 0)
(-0.243952 -0.0404894 0)
(-0.235879 -0.0442894 0)
(-0.227068 -0.0478196 0)
(-0.217539 -0.0510283 0)
(-0.207321 -0.053863 0)
(-0.196456 -0.0562718 0)
(-0.184992 -0.0582048 0)
(-0.172992 -0.0596167 0)
(-0.160531 -0.0604683 0)
(-0.147693 -0.0607291 0)
(-0.134574 -0.0603789 0)
(-0.12128 -0.05941 0)
(-0.107924 -0.057828 0)
(-0.0946241 -0.0556528 0)
(-0.0815001 -0.0529189 0)
(-0.0686702 -0.049674 0)
(-0.0562482 -0.0459782 0)
(-0.0443403 -0.0419015 0)
(-0.0330429 -0.0375218 0)
(-0.0224405 -0.0329222 0)
(-0.0126044 -0.0281881 0)
(-0.00359303 -0.0234049 0)
(0.00454863 -0.0186559 0)
(0.0117882 -0.0140202 0)
(0.0181052 -0.00957173 0)
(0.023491 -0.00537717 0)
(0.0279482 -0.00149532 0)
(0.0314906 0.00202434 0)
(0.034144 0.00514272 0)
(0.0359458 0.00783227 0)
(0.0369457 0.0100777 0)
(0.0372045 0.0118768 0)
(0.0367941 0.0132397 0)
(0.0357945 0.014189 0)
(0.0342927 0.0147576 0)
(0.0323775 0.0149873 0)
(0.0301395 0.0149253 0)
(0.0276634 0.0146227 0)
(0.0250313 0.0141298 0)
(0.0223123 0.0134949 0)
(0.0195727 0.012759 0)
(0.0168601 0.0119554 0)
(0.0142256 0.0111038 0)
(0.0116955 0.0102121 0)
(0.00931551 0.00927002 0)
(0.00709528 0.00825732 0)
(0.00509562 0.00713578 0)
(0.00331437 0.00587231 0)
(0.00186161 0.00442363 0)
(0.000723636 0.00278696 0)
(0.000111517 0.000959976 0)
(9.09045e-05 -0.00127622 0)
(0.000593155 -0.00337633 0)
(0.00149597 -0.00499012 0)
(0.00257863 -0.00611731 0)
(0.00379666 -0.00676316 0)
(0.00500103 -0.00696532 0)
(0.00614209 -0.00677143 0)
(0.00712693 -0.00624743 0)
(0.00791921 -0.00546204 0)
(0.00846759 -0.00448708 0)
(0.00875297 -0.00338788 0)
(0.00875139 -0.0022216 0)
(0.00845524 -0.00103227 0)
(0.00785322 0.000150117 0)
(0.00693906 0.0013111 0)
(0.00570056 0.00245092 0)
(0.004123 0.00358335 0)
(0.00218345 0.004733 0)
(-0.000147181 0.00593223 0)
(-0.00290616 0.00721732 0)
(-0.00613653 0.00862472 0)
(-0.00988645 0.0101875 0)
(-0.0142062 0.0119327 0)
(-0.0191459 0.0138791 0)
(-0.0247526 0.0160369 0)
(-0.0310674 0.0184069 0)
(-0.0381224 0.0209807 0)
(-0.045938 0.0237414 0)
(-0.0545198 0.0266632 0)
(-0.0638563 0.0297117 0)
(-0.0739167 0.0328442 0)
(-0.0846494 0.0360102 0)
(-0.0959825 0.0391524 0)
(-0.107825 0.0422086 0)
(-0.120068 0.0451141 0)
(-0.132592 0.0478043 0)
(-0.145269 0.0502181 0)
(-0.15797 0.0523001 0)
(-0.17057 0.0540038 0)
(-0.182951 0.0552925 0)
(-0.19501 0.0561406 0)
(-0.206655 0.0565337 0)
(-0.217814 0.0564674 0)
(-0.228427 0.0559464 0)
(-0.23845 0.0549831 0)
(-0.247853 0.0535955 0)
(-0.256616 0.0518056 0)
(-0.264725 0.049638 0)
(-0.272175 0.0471187 0)
(-0.278965 0.0442737 0)
(-0.285096 0.0411286 0)
(-0.29057 0.0377078 0)
(-0.295392 0.0340345 0)
(-0.299565 0.0301303 0)
(-0.30309 0.0260155 0)
(-0.305968 0.0217089 0)
(-0.3082 0.0172283 0)
(-0.309784 0.0125909 0)
(-0.310716 0.0078135 0)
(-0.310991 0.00291313 0)
(-0.310601 -0.00209263 0)
(-0.30954 -0.00718498 0)
(-0.307796 -0.0123434 0)
(-0.305358 -0.0175449 0)
(-0.302214 -0.0227638 0)
(-0.298351 -0.0279708 0)
(-0.293756 -0.0331327 0)
(-0.288415 -0.038212 0)
(-0.282317 -0.0431663 0)
(-0.275452 -0.0479488 0)
(-0.267816 -0.0525078 0)
(-0.259405 -0.0567876 0)
(-0.250226 -0.0607288 0)
(-0.240292 -0.0642698 0)
(-0.229626 -0.0673482 0)
(-0.218261 -0.0699026 0)
(-0.206245 -0.071875 0)
(-0.193638 -0.0732133 0)
(-0.180515 -0.0738741 0)
(-0.166967 -0.0738252 0)
(-0.153095 -0.0730481 0)
(-0.139015 -0.0715402 0)
(-0.124852 -0.0693163 0)
(-0.110736 -0.0664084 0)
(-0.0967991 -0.0628661 0)
(-0.083172 -0.0587547 0)
(-0.0699791 -0.0541529 0)
(-0.0573346 -0.04915 0)
(-0.0453396 -0.043842 0)
(-0.0340803 -0.0383286 0)
(-0.0236268 -0.0327096 0)
(-0.0140331 -0.0270822 0)
(-0.00533836 -0.0215385 0)
(0.0024318 -0.0161641 0)
(0.00926379 -0.0110369 0)
(0.0151547 -0.00622605 0)
(0.0201112 -0.00179153 0)
(0.0241496 0.00221697 0)
(0.0272955 0.00576082 0)
(0.0295847 0.00881348 0)
(0.0310632 0.0113614 0)
(0.031788 0.0134045 0)
(0.0318253 0.0149565 0)
(0.0312511 0.0160437 0)
(0.0301467 0.0167042 0)
(0.0285991 0.0169848 0)
(0.0266938 0.0169391 0)
(0.0245177 0.016623 0)
(0.0221481 0.016092 0)
(0.0196619 0.0153963 0)
(0.0171187 0.0145778 0)
(0.014583 0.0136651 0)
(0.0120929 0.012672 0)
(0.00970764 0.011593 0)
(0.00744632 0.0104069 0)
(0.00538256 0.0090733 0)
(0.00352139 0.00754629 0)
(0.00198853 0.00577009 0)
(0.000776582 0.00370878 0)
(0.00012023 0.00133143 0)
(9.41104e-05 -0.00157573 0)
(0.000609814 -0.00410456 0)
(0.00152567 -0.00600198 0)
(0.00260471 -0.00728162 0)
(0.00379352 -0.00796837 0)
(0.00493333 -0.00811498 0)
(0.00597054 -0.00778765 0)
(0.00680906 -0.00706801 0)
(0.00741257 -0.00604094 0)
(0.00772983 -0.00479112 0)
(0.00774258 -0.00339488 0)
(0.00742663 -0.0019166 0)
(0.00677304 -0.000404574 0)
(0.00576723 0.00111051 0)
(0.00439781 0.00261631 0)
(0.00264535 0.00411786 0)
(0.00048626 0.00563544 0)
(-0.0021125 0.00720125 0)
(-0.0051906 0.00885519 0)
(-0.00879547 0.0106402 0)
(-0.0129789 0.0125975 0)
(-0.0177953 0.0147626 0)
(-0.0232981 0.0171619 0)
(-0.0295361 0.0198105 0)
(-0.0365504 0.0227116 0)
(-0.0443704 0.0258559 0)
(-0.053011 0.0292219 0)
(-0.062469 0.0327762 0)
(-0.0727207 0.0364743 0)
(-0.0837204 0.040261 0)
(-0.0953988 0.0440716 0)
(-0.107665 0.047834 0)
(-0.120407 0.0514715 0)
(-0.133501 0.0549056 0)
(-0.146809 0.0580605 0)
(-0.160192 0.0608661 0)
(-0.173515 0.0632619 0)
(-0.186651 0.0651991 0)
(-0.199486 0.0666422 0)
(-0.211924 0.0675694 0)
(-0.223885 0.0679716 0)
(-0.23531 0.0678513 0)
(-0.246154 0.0672204 0)
(-0.256387 0.0660984 0)
(-0.26599 0.0645098 0)
(-0.274954 0.0624826 0)
(-0.283278 0.0600463 0)
(-0.290962 0.0572309 0)
(-0.298014 0.0540658 0)
(-0.304438 0.0505792 0)
(-0.310242 0.0467976 0)
(-0.315435 0.0427453 0)
(-0.320022 0.0384451 0)
(-0.324009 0.0339176 0)
(-0.327401 0.0291818 0)
(-0.330201 0.024255 0)
(-0.332411 0.0191537 0)
(-0.334031 0.0138931 0)
(-0.335059 0.00848842 0)
(-0.335492 0.0029547 0)
(-0.335323 -0.00269229 0)
(-0.334545 -0.00843567 0)
(-0.333146 -0.0142567 0)
(-0.331114 -0.0201343 0)
(-0.328434 -0.0260442 0)
(-0.325088 -0.0319582 0)
(-0.321057 -0.0378441 0)
(-0.31632 -0.0436641 0)
(-0.310855 -0.0493753 0)
(-0.304641 -0.0549289 0)
(-0.297658 -0.0602701 0)
(-0.289888 -0.0653384 0)
(-0.281318 -0.070068 0)
(-0.271941 -0.0743891 0)
(-0.261759 -0.0782289 0)
(-0.250785 -0.0815138 0)
(-0.239043 -0.0841719 0)
(-0.226576 -0.0861359 0)
(-0.213441 -0.0873462 0)
(-0.199713 -0.0877545 0)
(-0.185487 -0.087327 0)
(-0.170873 -0.0860477 0)
(-0.156 -0.0839205 0)
(-0.141006 -0.0809707 0)
(-0.126039 -0.0772456 0)
(-0.111249 -0.0728126 0)
(-0.0967857 -0.0677579 0)
(-0.0827877 -0.0621822 0)
(-0.0693823 -0.0561967 0)
(-0.0566797 -0.0499181 0)
(-0.0447703 -0.0434643 0)
(-0.0337241 -0.0369503 0)
(-0.0235915 -0.0304845 0)
(-0.0144046 -0.0241669 0)
(-0.00618039 -0.0180876 0)
(0.00107705 -0.0123261 0)
(0.00737368 -0.0069513 0)
(0.012724 -0.00202142 0)
(0.0171498 0.00241652 0)
(0.0206806 0.00632705 0)
(0.0233531 0.00968714 0)
(0.0252135 0.012487 0)
(0.0263157 0.0147307 0)
(0.026724 0.0164363 0)
(0.0265092 0.017635 0)
(0.0257506 0.0183696 0)
(0.0245292 0.0186923 0)
(0.0229313 0.0186608 0)
(0.0210367 0.0183346 0)
(0.0189287 0.0177703 0)
(0.0166753 0.0170171 0)
(0.0143515 0.0161114 0)
(0.0120065 0.0150729 0)
(0.00971155 0.0139012 0)
(0.00749653 0.0125748 0)
(0.00544713 0.0110515 0)
(0.00357764 0.00927254 0)
(0.00202592 0.00716951 0)
(0.000791976 0.00467256 0)
(0.000122289 0.00172139 0)
(9.66498e-05 -0.00188144 0)
(0.000617477 -0.00483855 0)
(0.00152696 -0.00700538 0)
(0.00257421 -0.0084112 0)
(0.00369659 -0.00910358 0)
(0.00472791 -0.00915349 0)
(0.00561119 -0.00864871 0)
(0.00624884 -0.00768868 0)
(0.00660514 -0.00637587 0)
(0.00662983 -0.00480811 0)
(0.00630557 -0.00307226 0)
(0.00560786 -0.00123859 0)
(0.00452584 0.000642078 0)
(0.00304084 0.00254049 0)
(0.00113518 0.00444853 0)
(-0.00121886 0.00637791 0)
(-0.00405468 0.00835679 0)
(-0.00741585 0.0104255 0)
(-0.0113522 0.0126312 0)
(-0.0159199 0.0150219 0)
(-0.0211767 0.0176411 0)
(-0.0271793 0.020523 0)
(-0.0339779 0.0236888 0)
(-0.0416135 0.0271447 0)
(-0.0501121 0.0308812 0)
(-0.0594825 0.0348725 0)
(-0.0697118 0.0390776 0)
(-0.0807638 0.0434412 0)
(-0.0925768 0.0478948 0)
(-0.105064 0.0523591 0)
(-0.118117 0.0567467 0)
(-0.131606 0.0609662 0)
(-0.145389 0.0649261 0)
(-0.159318 0.0685401 0)
(-0.173246 0.071731 0)
(-0.187034 0.0744347 0)
(-0.200556 0.0766022 0)
(-0.213707 0.0782006 0)
(-0.226398 0.0792129 0)
(-0.238562 0.0796365 0)
(-0.25015 0.0794806 0)
(-0.26113 0.0787643 0)
(-0.271482 0.0775133 0)
(-0.281197 0.0757582 0)
(-0.290273 0.0735317 0)
(-0.298715 0.0708679 0)
(-0.306531 0.0678003 0)
(-0.313729 0.0643612 0)
(-0.32032 0.0605814 0)
(-0.326316 0.0564895 0)
(-0.331728 0.0521118 0)
(-0.336567 0.0474725 0)
(-0.340844 0.0425933 0)
(-0.344569 0.037494 0)