/*--------------------------------*- C++ -*----------------------------------*\
| =========                 |                                                 |
| \\      /  F ield         | OpenFOAM: The Open Source CFD Toolbox           |
|  \\    /   O peration     | Version:  2406                                  |
|   \\  /    A nd           | Website:  www.openfoam.com                      |
|    \\/     M anipulation  |                                                 |
\*---------------------------------------------------------------------------*/
FoamFile
{
    version     2.0;
    format      ascii;
    arch        "LSB;label=32;scalar=64";
    class       surfaceScalarField;
    location    "19.25";
    object      phi;
}
// * * * * * * * * * * * * * * * * * * * * * * * * * * * * * * * * * * * * * //

dimensions      [0 3 -1 0 0 0 0];

oriented        oriented;

internalField   nonuniform List<scalar> 
28560
(
7.33786e-09
-7.34018e-09
2.79093e-08
-2.11191e-08
5.43449e-08
-2.64253e-08
7.9926e-08
-2.59734e-08
1.0181e-07
-2.19565e-08
1.18127e-07
-1.65381e-08
1.28925e-07
-1.0826e-08
1.34347e-07
-5.47934e-09
1.35178e-07
-7.73776e-10
1.31995e-07
3.25442e-09
1.25469e-07
6.66609e-09
1.16011e-07
9.62404e-09
1.0394e-07
1.22848e-08
8.93498e-08
1.48344e-08
7.22137e-08
1.74212e-08
5.23449e-08
2.01913e-08
2.94593e-08
2.32519e-08
3.17291e-09
2.66996e-08
-2.69634e-08
3.06024e-08
-6.14585e-08
3.50205e-08
-1.00865e-07
3.99978e-08
-1.45774e-07
4.55755e-08
-1.96815e-07
5.17886e-08
-2.5465e-07
5.86735e-08
-3.19978e-07
6.62664e-08
-3.93537e-07
7.46067e-08
-4.76105e-07
8.37349e-08
-5.68501e-07
9.3694e-08
-6.71588e-07
1.04527e-07
-7.86271e-07
1.16274e-07
-9.13488e-07
1.28973e-07
-1.05421e-06
1.42653e-07
-1.20942e-06
1.57331e-07
-1.38011e-06
1.73012e-07
-1.56726e-06
1.89679e-07
-1.77181e-06
2.07292e-07
-1.99461e-06
2.2578e-07
-2.23643e-06
2.4504e-07
-2.4979e-06
2.6493e-07
-2.77947e-06
2.85264e-07
-3.08133e-06
3.05809e-07
-3.40343e-06
3.26284e-07
-3.74538e-06
3.46353e-07
-4.10638e-06
3.65629e-07
-4.48524e-06
3.83673e-07
-4.88025e-06
3.99998e-07
-5.2892e-06
4.14073e-07
-5.70931e-06
4.25329e-07
-6.13721e-06
4.33172e-07
-6.56893e-06
4.36994e-07
-6.9999e-06
4.36184e-07
-7.42497e-06
4.3015e-07
-7.83841e-06
4.18332e-07
-8.23402e-06
4.00225e-07
-8.60516e-06
3.754e-07
-8.94485e-06
3.43523e-07
-9.2459e-06
3.0438e-07
-9.50107e-06
2.57893e-07
-9.70315e-06
2.04141e-07
-9.84522e-06
1.43379e-07
-9.92077e-06
7.60445e-08
-9.92391e-06
2.77364e-09
-9.84959e-06
-7.55991e-08
-9.69378e-06
-1.58041e-07
-9.45365e-06
-2.43331e-07
-9.12776e-06
-3.30074e-07
-8.71617e-06
-4.16724e-07
-8.22063e-06
-5.01616e-07
-7.64459e-06
-5.83008e-07
-6.99325e-06
-6.59123e-07
-6.27358e-06
-7.28204e-07
-5.49418e-06
-7.88571e-07
-4.66521e-06
-8.38682e-07
-3.79813e-06
-8.77195e-07
-2.90551e-06
-9.03023e-07
-2.00066e-06
-9.15385e-07
-1.09733e-06
-9.13854e-07
-2.09318e-07
-8.98382e-07
6.49923e-07
-8.69317e-07
1.46768e-06
-8.27401e-07
2.23234e-06
-7.7375e-07
2.93374e-06
-7.09816e-07
3.56341e-06
-6.3733e-07
4.11483e-06
-5.58237e-07
4.58353e-06
-4.74612e-07
4.96714e-06
-3.88581e-07
5.26535e-06
-3.02232e-07
5.47981e-06
-2.17535e-07
5.61393e-06
-1.36272e-07
5.67264e-06
-5.9982e-08
5.66211e-06
1.0086e-08
5.58942e-06
7.29908e-08
5.46229e-06
1.28109e-07
5.28875e-06
1.75122e-07
5.07683e-06
2.13994e-07
4.83439e-06
2.44936e-07
4.56884e-06
2.68369e-07
4.28705e-06
2.84868e-07
3.99518e-06
2.95133e-07
3.69862e-06
2.99926e-07
3.40198e-06
3.0006e-07
3.10907e-06
2.96331e-07
2.82292e-06
2.89543e-07
2.54581e-06
2.80414e-07
2.27939e-06
2.69665e-07
2.02461e-06
2.57863e-07
1.78203e-06
2.45599e-07
1.55162e-06
2.33214e-07
1.33327e-06
2.2113e-07
1.12645e-06
2.0932e-07
9.3103e-07
1.97971e-07
7.4675e-07
1.86425e-07
5.74526e-07
1.74549e-07
4.15602e-07
1.60614e-07
2.7343e-07
1.44224e-07
1.52463e-07
1.22015e-07
5.97053e-08
9.44033e-08
2.9384e-09
5.70332e-08
-1.44787e-08
1.85498e-08
-1.44961e-08
2.14164e-08
-2.82071e-08
6.32075e-08
-6.29025e-08
1.12444e-07
-7.49306e-08
1.57636e-07
-7.09384e-08
1.9358e-07
-5.7401e-08
2.16446e-07
-3.92222e-08
2.25767e-07
-1.99263e-08
2.21603e-07
-1.30346e-09
2.05263e-07
1.55387e-08
1.77897e-07
3.04569e-08
1.40825e-07
4.35154e-08
9.49313e-08
5.52042e-08
4.08489e-08
6.59923e-08
-2.12479e-08
7.64823e-08
-9.1513e-08
8.71714e-08
-1.70471e-07
9.85596e-08
-2.58921e-07
1.11034e-07
-3.57924e-07
1.24947e-07
-4.6874e-07
1.40564e-07
-5.92802e-07
1.5812e-07
-7.31689e-07
1.77798e-07
-8.87105e-07
1.99769e-07
-1.06087e-06
2.24178e-07
-1.25491e-06
2.51172e-07
-1.47127e-06
2.80891e-07
-1.71207e-06
3.13478e-07
-1.97956e-06
3.49072e-07
-2.27607e-06
3.87814e-07
-2.60403e-06
4.2983e-07
-2.96593e-06
4.75232e-07
-3.3643e-06
5.24102e-07
-3.8017e-06
5.76482e-07
-4.28065e-06
6.32362e-07
-4.80359e-06
6.91663e-07
-5.37281e-06
7.54218e-07
-5.99037e-06
8.19764e-07
-6.65803e-06
8.87917e-07
-7.37711e-06
9.58162e-07
-8.14842e-06
1.02984e-06
-8.97213e-06
1.10211e-06
-9.84764e-06
1.17401e-06
-1.07735e-05
1.24436e-06
-1.17471e-05
1.31183e-06
-1.2765e-05
1.37492e-06
-1.38223e-05
1.43198e-06
-1.49128e-05
1.48123e-06
-1.6029e-05
1.52078e-06
-1.71621e-05
1.54869e-06
-1.83017e-05
1.56296e-06
-1.94361e-05
1.56164e-06
-2.05525e-05
1.54287e-06
-2.16367e-05
1.5049e-06
-2.26737e-05
1.4462e-06
-2.36475e-05
1.36548e-06
-2.45419e-05
1.26179e-06
-2.534e-05
1.13455e-06
-2.60255e-05
9.83607e-07
-2.6582e-05
8.09298e-07
-2.69941e-05
6.12459e-07
-2.72477e-05
3.94469e-07
-2.73298e-05
1.5726e-07
-2.72297e-05
-9.66848e-08
-2.69386e-05
-3.64338e-07
-2.64503e-05
-6.42161e-07
-2.57615e-05
-9.26145e-07
-2.48719e-05
-1.21187e-06
-2.37844e-05
-1.49459e-06
-2.25053e-05
-1.76931e-06
-2.10444e-05
-2.03091e-06
-1.94147e-05
-2.27426e-06
-1.76326e-05
-2.49435e-06
-1.57175e-05
-2.68645e-06
-1.36918e-05
-2.84624e-06
-1.158e-05
-2.96997e-06
-9.40899e-06
-3.0546e-06
-7.20675e-06
-3.09791e-06
-5.00227e-06
-3.09863e-06
-2.82471e-06
-3.05653e-06
-7.02761e-07
-2.97242e-06
1.33608e-06
-2.8482e-06
3.26615e-06
-2.68683e-06
5.06427e-06
-2.49221e-06
6.7103e-06
-2.26908e-06
8.18766e-06
-2.02289e-06
9.48361e-06
-1.75955e-06
1.05896e-05
-1.48528e-06
1.15011e-05
-1.20631e-06
1.2218e-05
-9.28725e-07
1.27439e-05
-6.58222e-07
1.30862e-05
-3.99918e-07
1.32553e-05
-1.58209e-07
1.32643e-05
6.33456e-08
1.31284e-05
2.62082e-07
1.28643e-05
4.36252e-07
1.24894e-05
5.84999e-07
1.20214e-05
7.08285e-07
1.14777e-05
8.06807e-07
1.08749e-05
8.81868e-07
1.02287e-05
9.35269e-07
9.55314e-06
9.6915e-07
8.8609e-06
9.85906e-07
8.16281e-06
9.88021e-07
7.468e-06
9.7804e-07
6.78382e-06
9.58385e-07
6.11608e-06
9.31418e-07
5.46893e-06
8.99186e-07
4.84539e-06
8.63621e-07
4.24714e-06
8.26095e-07
3.67541e-06
7.8786e-07
3.13065e-06
7.49188e-07
2.61388e-06
7.10329e-07
2.12607e-06
6.69793e-07
1.67039e-06
6.265e-07
1.25076e-06
5.76322e-07
8.75082e-07
5.17105e-07
5.52234e-07
4.41619e-07
2.95288e-07
3.49894e-07
1.1512e-07
2.34857e-07
1.90754e-08
1.14647e-07
3.45336e-09
2.69345e-08
-5.51692e-08
7.51489e-08
-1.11842e-07
1.28239e-07
-1.28043e-07
1.72124e-07
-1.15357e-07
2.00769e-07
-8.62014e-08
2.09642e-07
-4.83946e-08
1.98167e-07
-8.53121e-09
1.66484e-07
3.02969e-08
1.1619e-07
6.5884e-08
4.87763e-08
9.79627e-08
-3.41272e-08
1.26597e-07
-1.31418e-07
1.52722e-07
-2.42384e-07
1.77247e-07
-3.66925e-07
2.01364e-07
-5.05438e-07
2.26082e-07
-6.58847e-07
2.52423e-07
-8.28504e-07
2.81208e-07
-1.01615e-06
3.13184e-07
-1.22387e-06
3.4894e-07
-1.454e-06
3.88999e-07
-1.70914e-06
4.33787e-07
-1.99211e-06
4.83691e-07
-2.30591e-06
5.39055e-07
-2.65374e-06
6.00206e-07
-3.03895e-06
6.67456e-07
-3.46507e-06
7.41109e-07
-3.93577e-06
8.21449e-07
-4.45482e-06
9.08741e-07
-5.02612e-06
1.00321e-06
-5.6536e-06
1.10502e-06
-6.3412e-06
1.21425e-06
-7.0928e-06
1.33088e-06
-7.91211e-06
1.45475e-06
-8.8026e-06
1.58551e-06
-9.76734e-06
1.72263e-06
-1.08089e-05
1.86533e-06
-1.19292e-05
2.01254e-06
-1.31293e-05
2.16293e-06
-1.44092e-05
2.31481e-06
-1.57679e-05
2.46618e-06
-1.72028e-05
2.61467e-06
-1.871e-05
2.75759e-06
-2.02836e-05
2.8919e-06
-2.19162e-05
3.01428e-06
-2.35984e-05
3.12117e-06
-2.53187e-05
3.20881e-06
-2.70638e-05
3.27332e-06
-2.88183e-05
3.31082e-06
-3.05651e-05
3.31748e-06
-3.22855e-05
3.28968e-06
-3.39591e-05
3.22407e-06
-3.55645e-05
3.11774e-06
-3.70795e-05
2.96829e-06
-3.84812e-05
2.77394e-06
-3.97469e-05
2.53364e-06
-4.08539e-05
2.24715e-06
-4.17806e-05
1.91509e-06
-4.25063e-05
1.539e-06
-4.30123e-05
1.12135e-06
-4.32815e-05
6.65594e-07
-4.32997e-05
1.7611e-07
-4.30552e-05
-3.41803e-07
-4.25395e-05
-8.81986e-07
-4.17475e-05
-1.43749e-06
-4.06777e-05
-2.00066e-06
-3.93325e-05
-2.56326e-06
-3.77181e-05
-3.11661e-06
-3.58447e-05
-3.65172e-06
-3.37264e-05
-4.15948e-06
-3.13813e-05
-4.63086e-06
-2.88311e-05
-5.0571e-06
-2.61012e-05
-5.42993e-06
-2.32199e-05
-5.74184e-06
-2.02185e-05
-5.98624e-06
-1.71306e-05
-6.15776e-06
-1.39916e-05
-6.25239e-06
-1.0838e-05
-6.26769e-06
-7.70684e-06
-6.20294e-06
-4.63484e-06
-6.0592e-06
-1.65781e-06
-5.83938e-06
1.19024e-06
-5.5482e-06
3.87779e-06
-5.19208e-06
6.3765e-06
-4.779e-06
8.66189e-06
-4.31824e-06
1.07138e-05
-3.82014e-06
1.2517e-05
-3.2957e-06
1.40611e-05
-2.75626e-06
1.5341e-05
-2.21311e-06
1.63568e-05
-1.67709e-06
1.71133e-05
-1.15828e-06
1.76201e-05
-6.6563e-07
1.78907e-05
-2.06788e-07
1.79421e-05
2.12141e-07
1.7794e-05
5.86668e-07
1.74681e-05
9.1395e-07
1.69874e-05
1.19273e-06
1.63751e-05
1.42324e-06
1.56545e-05
1.607e-06
1.48479e-05
1.74666e-06
1.39763e-05
1.84569e-06
1.3059e-05
1.90827e-06
1.21131e-05
1.93893e-06
1.11537e-05
1.94244e-06
1.01934e-05
1.92355e-06
9.24267e-06
1.8869e-06
8.3097e-06
1.8367e-06
7.40091e-06
1.77684e-06
6.52084e-06
1.7103e-06
5.67316e-06
1.63961e-06
4.86033e-06
1.56569e-06
4.08543e-06
1.48895e-06
3.35121e-06
1.40716e-06
2.66313e-06
1.31796e-06
2.02711e-06
1.21478e-06
1.4542e-06
1.09304e-06
9.55305e-07
9.41931e-07
5.47812e-07
7.60018e-07
2.44107e-07
5.38479e-07
6.08515e-08
3.00301e-07
6.39543e-08
2.61505e-08
-8.094e-08
6.8823e-08
-1.54683e-07
1.1008e-07
-1.68789e-07
1.355e-07
-1.40734e-07
1.39164e-07
-8.95656e-08
1.1685e-07
-2.60053e-08
6.82252e-08
4.02244e-08
-6.284e-09
1.04814e-07
-1.04886e-07
1.64477e-07
-2.25899e-07
2.18894e-07
-3.67616e-07
2.68196e-07
-5.28925e-07
3.13865e-07
-7.09242e-07
3.57358e-07
-9.08703e-07
4.0058e-07
-1.12809e-06
4.45179e-07
-1.36882e-06
4.92825e-07
-1.63287e-06
5.44893e-07
-1.92276e-06
6.02644e-07
-2.2414e-06
6.67102e-07
-2.59212e-06
7.39181e-07
-2.97859e-06
8.19645e-07
-3.40477e-06
9.09189e-07
-3.87492e-06
1.00843e-06
-4.39353e-06
1.11795e-06
-4.96534e-06
1.23829e-06
-5.59526e-06
1.36995e-06
-6.28841e-06
1.51339e-06
-7.04999e-06
1.66898e-06
-7.8853e-06
1.83702e-06
-8.79959e-06
2.01766e-06
-9.79805e-06
2.21088e-06
-1.08856e-05
2.41644e-06
-1.20669e-05
2.63379e-06
-1.33458e-05
2.86209e-06
-1.47259e-05
3.10008e-06
-1.62095e-05
3.34608e-06
-1.7798e-05
3.59791e-06
-1.94913e-05
3.85287e-06
-2.12878e-05
4.10771e-06
-2.31841e-05
4.35863e-06
-2.51747e-05
4.60126e-06
-2.72522e-05
4.83074e-06
-2.94066e-05
5.04173e-06
-3.16257e-05
5.22851e-06
-3.38946e-05
5.38511e-06
-3.61963e-05
5.50539e-06
-3.85115e-05
5.58319e-06
-4.08186e-05
5.61256e-06
-4.30944e-05
5.58782e-06
-4.53139e-05
5.50384e-06
-4.74513e-05
5.35614e-06
-4.94799e-05
5.14106e-06
-5.13725e-05
4.85594e-06
-5.31024e-05
4.49919e-06
-5.46435e-05
4.07042e-06
-5.59707e-05
3.57051e-06
-5.70605e-05
3.00164e-06
-5.78915e-05
2.36731e-06
-5.84445e-05
1.67235e-06
-5.8703e-05
9.22883e-07
-5.86535e-05
1.26255e-07
-5.82857e-05
-7.09014e-07
-5.75929e-05
-1.57333e-06
-5.65718e-05
-2.45615e-06
-5.5223e-05
-3.34607e-06
-5.35508e-05
-4.23103e-06
-5.15636e-05
-5.09843e-06
-4.92736e-05
-5.93539e-06
-4.6697e-05
-6.72888e-06
-4.38537e-05
-7.46604e-06
-4.07676e-05
-8.13441e-06
-3.7466e-05
-8.72219e-06
-3.39793e-05
-9.21857e-06
-3.03412e-05
-9.61402e-06
-2.65877e-05
-9.90058e-06
-2.27573e-05
-1.00721e-05
-1.88895e-05
-1.01247e-05
-1.50253e-05
-1.00566e-05
-1.12055e-05
-9.86872e-06
-7.47074e-06
-9.56435e-06
-3.86022e-06
-9.14948e-06
-4.11183e-07
-8.63255e-06
2.84193e-06
-8.02431e-06
5.86817e-06
-7.33754e-06
8.64077e-06
-6.5867e-06
1.11377e-05
-5.78752e-06
1.33421e-05
-4.9565e-06
1.52425e-05
-4.11035e-06
1.68332e-05
-3.26556e-06
1.8114e-05
-2.43776e-06
1.90902e-05
-1.64133e-06
1.97722e-05
-8.8897e-07
2.01747e-05
-1.91341e-07
2.03166e-05
4.43141e-07
2.02201e-05
1.00844e-06
1.99093e-05
1.50091e-06
1.94105e-05
1.91922e-06
1.87502e-05
2.26417e-06
1.7955e-05
2.53845e-06
1.7051e-05
2.74631e-06
1.60624e-05
2.89329e-06
1.5012e-05
2.98579e-06
1.39201e-05
3.03083e-06
1.28046e-05
3.03561e-06
1.16808e-05
3.00733e-06
1.05615e-05
2.95272e-06
9.45728e-06
2.87804e-06
8.37622e-06
2.78832e-06
7.32539e-06
2.68771e-06
6.31006e-06
2.5782e-06
5.33604e-06
2.46062e-06
4.40827e-06
2.33231e-06
3.53463e-06
2.18977e-06
2.72262e-06
2.02433e-06
1.98567e-06
1.82889e-06
1.33561e-06
1.58958e-06
7.93412e-07
1.30231e-06
3.73226e-07
9.5596e-07
1.03467e-07
5.71725e-07
1.65713e-07
2.05056e-08
-1.01434e-07
4.84363e-08
-1.83029e-07
6.59561e-08
-1.86266e-07
5.97456e-08
-1.34785e-07
2.44979e-08
-5.43822e-08
-4.29942e-08
4.13532e-08
-1.42504e-07
1.39689e-07
-2.73009e-07
2.35289e-07
-4.3246e-07
3.23946e-07
-6.18975e-07
4.05463e-07
-8.30878e-07
4.80183e-07
-1.06717e-06
5.5028e-07
-1.32757e-06
6.17897e-07
-1.61258e-06
6.85778e-07
-1.92354e-06
7.56335e-07
-2.26248e-06
8.3201e-07
-2.63216e-06
9.14846e-07
-3.03595e-06
1.00673e-06
-3.47774e-06
1.10924e-06
-3.96193e-06
1.22377e-06
-4.49337e-06
1.35152e-06
-5.07727e-06
1.49359e-06
-5.71922e-06
1.65094e-06
-6.42512e-06
1.82448e-06
-7.20113e-06
2.01501e-06
-8.05364e-06
2.22325e-06
-8.98922e-06
2.44984e-06
-1.00145e-05
2.69523e-06
-1.11361e-05
2.95969e-06
-1.23605e-05
3.24326e-06
-1.36939e-05
3.54562e-06
-1.51421e-05
3.86607e-06
-1.67101e-05
4.20342e-06
-1.84022e-05
4.55592e-06
-2.02214e-05
4.92119e-06
-2.21694e-05
5.29613e-06
-2.42461e-05
5.67689e-06
-2.64497e-05
6.05885e-06
-2.87759e-05
6.43654e-06
-3.12182e-05
6.80375e-06
-3.37675e-05
7.1535e-06
-3.64119e-05
7.4782e-06
-3.91366e-05
7.76972e-06
-4.19242e-05
8.01956e-06
-4.47545e-05
8.21906e-06
-4.7605e-05
8.35959e-06
-5.04508e-05
8.43279e-06
-5.32652e-05
8.43081e-06
-5.602e-05
8.34652e-06
-5.86861e-05
8.17378e-06
-6.12338e-05
7.90756e-06
-6.36332e-05
7.54421e-06
-6.58553e-05
7.08152e-06
-6.78717e-05
6.51883e-06
-6.96553e-05
5.85712e-06
-7.11812e-05
5.09903e-06
-7.24261e-05
4.24883e-06
-7.33694e-05
3.31244e-06
-7.39931e-05
2.29731e-06
-7.42818e-05
1.21241e-06
-7.42236e-05
6.81102e-08
-7.38091e-05
-1.12391e-06
-7.30328e-05
-2.35078e-06
-7.18923e-05
-3.59853e-06
-7.03886e-05
-4.8523e-06
-6.85264e-05
-6.09643e-06
-6.63141e-05
-7.31467e-06
-6.37636e-05
-8.49041e-06
-6.08908e-05
-9.60688e-06
-5.77152e-05
-1.06474e-05
-5.426e-05
-1.15959e-05
-5.05521e-05
-1.24368e-05
-4.66219e-05
-1.31558e-05
-4.25032e-05
-1.37401e-05
-3.82327e-05
-1.41787e-05
-3.38495e-05
-1.44629e-05
-2.93951e-05
-1.45867e-05
-2.49126e-05
-1.45467e-05
-2.04457e-05
-1.43428e-05
-1.60386e-05
-1.39784e-05
-1.17348e-05
-1.34598e-05
-7.57641e-06
-1.27971e-05
-3.60324e-06
-1.2003e-05
1.4779e-07
-1.10935e-05
3.64359e-06
-1.00868e-05
6.85551e-06
-9.00309e-06
9.75993e-06
-7.86389e-06
1.23387e-05
-6.69145e-06
1.45796e-05
-5.50804e-06
1.64761e-05
-4.33528e-06
1.80278e-05
-3.19351e-06
1.92401e-05
-2.10117e-06
2.01238e-05
-1.07437e-06
2.06944e-05
-1.2642e-07
2.09719e-05
7.32372e-07
2.09797e-05
1.49485e-06
2.0744e-05
2.15699e-06
2.02926e-05
2.71779e-06
1.96544e-05
3.17901e-06
1.88583e-05
3.54482e-06
1.79326e-05
3.82145e-06
1.69043e-05
4.01667e-06
1.57982e-05
4.1394e-06
1.46371e-05
4.19914e-06
1.34412e-05
4.20569e-06
1.22277e-05
4.16844e-06
1.10118e-05
4.09623e-06
9.80574e-06
3.99648e-06
8.62027e-06
3.87531e-06
7.46406e-06
3.73619e-06
6.34602e-06
3.58068e-06
5.27358e-06
3.40616e-06
4.25713e-06
3.20818e-06
3.30582e-06
2.97649e-06
2.43545e-06
2.70131e-06
1.659e-06
2.36595e-06
1.00167e-06
1.96211e-06
4.80817e-07
1.47517e-06
1.37208e-07
9.18794e-07
3.01718e-07
1.18315e-08
-1.13133e-07
1.77948e-08
-1.88975e-07
1.59826e-09
-1.69911e-07
-4.75023e-08
-8.55989e-08
-1.33627e-07
3.18249e-08
-2.58303e-07
1.6611e-07
-4.20484e-07
3.01895e-07
-6.18292e-07
4.33129e-07
-8.49381e-07
5.55007e-07
-1.11165e-06
6.6771e-07
-1.40356e-06
7.72019e-07
-1.72434e-06
8.70984e-07
-2.07414e-06
9.67585e-07
-2.45404e-06
1.06555e-06
-2.86603e-06
1.16817e-06
-3.31297e-06
1.27878e-06
-3.79853e-06
1.4002e-06
-4.32707e-06
1.53505e-06
-4.90363e-06
1.68555e-06
-5.53382e-06
1.85368e-06
-6.2238e-06
2.04118e-06
-6.98019e-06
2.24962e-06
-7.81002e-06
2.48037e-06
-8.72071e-06
2.73471e-06
-9.71994e-06
3.01373e-06
-1.08157e-05
3.3184e-06
-1.20159e-05
3.64943e-06
-1.33287e-05
4.0073e-06
-1.47619e-05
4.39214e-06
-1.63231e-05
4.80362e-06
-1.80194e-05
5.24091e-06
-1.98568e-05
5.7025e-06
-2.18407e-05
6.18617e-06
-2.39749e-05
6.6888e-06
-2.62614e-05
7.20635e-06
-2.87006e-05
7.73377e-06
-3.12902e-05
8.26492e-06
-3.40257e-05
8.7926e-06
-3.68996e-05
9.30857e-06
-3.99015e-05
9.80361e-06
-4.30178e-05
1.02677e-05
-4.62319e-05
1.069e-05
-4.9524e-05
1.10595e-05
-5.28717e-05
1.13648e-05
-5.62498e-05
1.15946e-05
-5.96308e-05
1.1738e-05
-6.29856e-05
1.17848e-05
-6.62835e-05
1.1726e-05
-6.94933e-05
1.15535e-05
-7.25832e-05
1.1261e-05
-7.5522e-05
1.08436e-05
-7.82788e-05
1.02985e-05
-8.08243e-05
9.62448e-06
-8.31302e-05
8.82246e-06
-8.51703e-05
7.89522e-06
-8.69206e-05
6.84746e-06
-8.8359e-05
5.68571e-06
-8.9466e-05
4.41826e-06
-9.02246e-05
3.05507e-06
-9.06204e-05
1.60772e-06
-9.06415e-05
8.92552e-08
-9.02791e-05
-1.48589e-06
-8.9527e-05
-3.10199e-06
-8.8382e-05
-4.74213e-06
-8.6844e-05
-6.38836e-06
-8.49162e-05
-8.02182e-06
-8.26051e-05
-9.62292e-06
-7.99207e-05
-1.11716e-05
-7.68765e-05
-1.26473e-05
-7.349e-05
-1.40298e-05
-6.97824e-05
-1.5299e-05
-6.57788e-05
-1.64356e-05
-6.15082e-05
-1.74214e-05
-5.70033e-05
-1.82397e-05
-5.23005e-05
-1.88762e-05
-4.74393e-05
-1.93188e-05
-4.24621e-05
-1.95584e-05
-3.74138e-05
-1.95897e-05
-3.23408e-05
-1.94107e-05
-2.72906e-05
-1.90237e-05
-2.23109e-05
-1.84349e-05
-1.74486e-05
-1.76551e-05
-1.27492e-05
-1.66986e-05
-8.25543e-06
-1.55837e-05
-4.00698e-06
-1.43322e-05
-3.92421e-08
-1.29682e-05
3.61724e-06
-1.15182e-05
6.93734e-06
-1.00099e-05
9.90183e-06
-8.47134e-06
1.24977e-05
-6.93036e-06
1.47181e-05
-5.4136e-06
1.65626e-05
-3.94578e-06
1.80369e-05
-2.54901e-06
1.91521e-05
-1.24231e-06
1.99246e-05
-4.11302e-08
2.03753e-05
1.04289e-06
2.05289e-05
2.00202e-06
2.04128e-05
2.83236e-06
2.00564e-05
3.53372e-06
1.94903e-05
4.10919e-06
1.87452e-05
4.5648e-06
1.78511e-05
4.90893e-06
1.6837e-05
5.1518e-06
1.57295e-05
5.30482e-06
1.45534e-05
5.38008e-06
1.33307e-05
5.38952e-06
1.20807e-05
5.34463e-06
1.08202e-05
5.25536e-06
9.56415e-06
5.13006e-06
8.32481e-06
4.97399e-06
7.11459e-06
4.78983e-06
5.94374e-06
4.57546e-06
4.82543e-06
4.32584e-06
3.77068e-06
4.02958e-06
2.79786e-06
3.67418e-06
1.92158e-06
3.24014e-06
1.17133e-06
2.71363e-06
5.68384e-07
2.0749e-06
1.6444e-07
1.32585e-06
4.63964e-07
8.27241e-10
-1.14107e-07
-2.0751e-08
-1.67317e-07
-7.85276e-08
-1.12334e-07
-1.79631e-07
1.55487e-08
-3.26484e-07
1.78525e-07
-5.18396e-07
3.58053e-07
-7.53256e-07
5.36664e-07
-1.02809e-06
7.07998e-07
-1.34018e-06
8.67067e-07
-1.68717e-06
1.01476e-06
-2.06773e-06
1.1526e-06
-2.4814e-06
1.28473e-06
-2.92892e-06
1.41517e-06
-3.41205e-06
1.54879e-06
-3.93368e-06
1.6899e-06
-4.49762e-06
1.84285e-06
-5.10863e-06
2.01136e-06
-5.7723e-06
2.19888e-06
-6.49495e-06
2.40838e-06
-7.2836e-06
2.64254e-06
-8.14589e-06
2.9037e-06
-9.09e-06
3.19398e-06
-1.01246e-05
3.51523e-06
-1.12586e-05
3.86911e-06
-1.25015e-05
4.25701e-06
-1.38628e-05
4.68006e-06
-1.53519e-05
5.13902e-06
-1.69783e-05
5.63421e-06
-1.8751e-05
6.16539e-06
-2.06784e-05
6.73163e-06
-2.2768e-05
7.33121e-06
-2.50261e-05
7.96142e-06
-2.74576e-05
8.61847e-06
-3.00653e-05
9.29737e-06
-3.28498e-05
9.99182e-06
-3.58091e-05
1.06942e-05
-3.89383e-05
1.13953e-05
-4.22295e-05
1.2085e-05
-4.56712e-05
1.27517e-05
-4.92488e-05
1.33826e-05
-5.2944e-05
1.39644e-05
-5.67354e-05
1.44831e-05
-6.05986e-05
1.49244e-05
-6.45064e-05
1.52744e-05
-6.84297e-05
1.55196e-05
-7.23373e-05
1.56475e-05
-7.6197e-05
1.56465e-05
-7.99761e-05
1.55071e-05
-8.36417e-05
1.52211e-05
-8.71613e-05
1.47826e-05
-9.05034e-05
1.41876e-05
-9.36376e-05
1.34345e-05
-9.6535e-05
1.25236e-05
-9.91687e-05
1.14577e-05
-0.000101513
1.02413e-05
-0.000103546
8.88107e-06
-0.000105245
7.38567e-06
-0.000106591
5.76545e-06
-0.000107568
4.0325e-06
-0.00010816
2.20055e-06
-0.000108356
2.84873e-07
-0.000108144
-1.69779e-06
-0.000107518
-3.7293e-06
-0.000106471
-5.7902e-06
-0.000105001
-7.8598e-06
-0.000103108
-9.91632e-06
-0.000100796
-1.1937e-05
-9.80715e-05
-1.38984e-05
-9.4945e-05
-1.57765e-05
-9.14309e-05
-1.7547e-05
-8.75473e-05
-1.91858e-05
-8.33169e-05
-2.06694e-05
-7.87665e-05
-2.19753e-05
-7.39273e-05
-2.30826e-05
-6.88348e-05
-2.39725e-05
-6.35283e-05
-2.4629e-05
-5.80513e-05
-2.50393e-05
-5.24501e-05
-2.51946e-05
-4.67739e-05
-2.50905e-05
-4.10739e-05
-2.47271e-05
-3.54022e-05
-2.41099e-05
-2.9811e-05
-2.32492e-05
-2.4352e-05
-2.21604e-05
-1.90745e-05
-2.08637e-05
-1.40252e-05
-1.93837e-05
-9.24675e-06
-1.77485e-05
-4.77723e-06
-1.59893e-05
-6.49119e-07
-1.41392e-05
3.11111e-06
-1.22324e-05
6.48347e-06
-1.03033e-05
9.45464e-06
-8.38504e-06
1.20181e-05
-6.5092e-06
1.41739e-05
-4.70454e-06
1.59284e-05
-2.99639e-06
1.72941e-05
-1.40611e-06
1.82885e-05
4.93404e-08
1.89339e-05
1.3576e-06
1.92563e-05
2.511e-06
1.92848e-05
3.50637e-06
1.90504e-05
4.34481e-06
1.85852e-05
5.03124e-06
1.79216e-05
5.57383e-06
1.70912e-05
5.98342e-06
1.61245e-05
6.27271e-06
1.50502e-05
6.45568e-06
1.38943e-05
6.54657e-06
1.26807e-05
6.55936e-06
1.14305e-05
6.50659e-06
1.01628e-05
6.39894e-06
8.8938e-06
6.24379e-06
7.63961e-06
6.0452e-06
6.41359e-06
5.80198e-06
5.23197e-06
5.50878e-06
4.10809e-06
5.15344e-06
3.06323e-06
4.72071e-06
2.11428e-06
4.18815e-06
1.29514e-06
3.53533e-06
6.31238e-07
2.73612e-06
1.83194e-07
1.77811e-06
6.45294e-07
-1.18884e-08
-1.02411e-07
-6.55985e-08
-1.13124e-07
-1.71637e-07
-6.59505e-09
-3.32595e-07
1.76818e-07
-5.487e-07
3.94467e-07
-8.1654e-07
6.26077e-07
-1.13272e-06
8.52747e-07
-1.49296e-06
1.06833e-06
-1.89415e-06
1.26819e-06
-2.33368e-06
1.45432e-06
-2.81048e-06
1.62933e-06
-3.32452e-06
1.79875e-06
-3.87729e-06
1.96786e-06
-4.4714e-06
2.14285e-06
-5.11081e-06
2.32922e-06
-5.80048e-06
2.53244e-06
-6.5465e-06
2.75726e-06
-7.35582e-06
3.0081e-06
-8.23632e-06
3.28874e-06
-9.1966e-06
3.60267e-06
-1.0246e-05
3.9529e-06
-1.13943e-05
4.34216e-06
-1.26521e-05
4.77281e-06
-1.40301e-05
5.24688e-06
-1.55394e-05
5.76601e-06
-1.71911e-05
6.33142e-06
-1.89961e-05
6.94373e-06
-2.09652e-05
7.60288e-06
-2.31082e-05
8.30799e-06
-2.54341e-05
9.05715e-06
-2.79507e-05
9.8473e-06
-3.06639e-05
1.0674e-05
-3.35774e-05
1.15314e-05
-3.66925e-05
1.24119e-05
-4.00077e-05
1.33063e-05
-4.35182e-05
1.42038e-05
-4.72156e-05
1.50919e-05
-5.1088e-05
1.59565e-05
-5.51198e-05
1.67825e-05
-5.92916e-05
1.75534e-05
-6.35808e-05
1.82525e-05
-6.79615e-05
1.88626e-05
-7.24051e-05
1.93668e-05
-7.68808e-05
1.97489e-05
-8.13563e-05
1.99938e-05
-8.57982e-05
2.00879e-05
-9.01725e-05
2.00195e-05
-9.44455e-05
1.97787e-05
-9.85839e-05
1.93581e-05
-0.000102555
1.87527e-05
-0.000106329
1.79599e-05
-0.000109875
1.69793e-05
-0.000113166
1.5813e-05
-0.000116174
1.44652e-05
-0.000118876
1.29424e-05
-0.000121249
1.12529e-05
-0.000123271
9.40707e-06
-0.000124923
7.41694e-06
-0.000126187
5.29637e-06
-0.000127048
3.06084e-06
-0.00012749
7.27444e-07
-0.000127502
-1.68515e-06
-0.000127074
-4.15676e-06
-0.000126198
-6.6657e-06
-0.000124868
-9.18889e-06
-0.000123081
-1.17019e-05
-0.000120837
-1.41791e-05
-0.00011814
-1.65937e-05
-0.000114996
-1.89183e-05
-0.000111416
-2.11248e-05
-0.000107415
-2.31848e-05
-0.000103011
-2.50705e-05
-9.82293e-05
-2.67547e-05
-9.30978e-05
-2.82115e-05
-8.76503e-05
-2.94172e-05
-8.19256e-05
-3.0351e-05
-7.59668e-05
-3.09953e-05
-6.98217e-05
-3.13371e-05
-6.35417e-05
-3.13679e-05
-5.71813e-05
-3.10851e-05
-5.07974e-05
-3.04915e-05
-4.44479e-05
-2.95965e-05
-3.8191e-05
-2.84154e-05
-3.20834e-05
-2.69695e-05
-2.61799e-05
-2.52857e-05
-2.05313e-05
-2.33958e-05
-1.5184e-05
-2.13355e-05
-1.01789e-05
-1.91434e-05
-5.55045e-06
-1.68603e-05
-1.32623e-06
-1.45271e-05
2.47339e-06
-1.21845e-05
5.83544e-06
-9.87124e-06
8.75425e-06
-7.62351e-06
1.12312e-05
-5.47367e-06
1.32744e-05
-3.44972e-06
1.48978e-05
-1.57474e-06
1.61213e-05
1.33504e-07
1.69689e-05
1.66267e-06
1.74686e-05
3.00581e-06
1.76514e-05
4.16112e-06
1.75502e-05
5.13159e-06
1.71988e-05
5.92434e-06
1.66313e-05
6.55006e-06
1.5881e-05
7.02214e-06
1.49799e-05
7.35587e-06
1.39582e-05
7.56741e-06
1.28439e-05
7.67298e-06
1.1662e-05
7.68759e-06
1.0436e-05
7.62429e-06
9.18619e-06
7.49273e-06
7.93242e-06
7.29858e-06
6.6915e-06
7.0419e-06
5.48295e-06
6.71732e-06
4.3229e-06
6.31218e-06
3.23576e-06
5.80852e-06
2.24112e-06
5.1808e-06
1.377e-06
4.40138e-06
6.72739e-07
3.43685e-06
1.95488e-07
2.25933e-06
8.38343e-07
-2.61198e-08
-7.67289e-08
-1.15794e-07
-2.27318e-08
-2.75668e-07
1.52649e-07
-5.0308e-07
4.04638e-07
-7.9564e-07
6.86672e-07
-1.1468e-06
9.77454e-07
-1.55168e-06
1.25744e-06
-2.00456e-06
1.52133e-06
-2.5019e-06
1.76543e-06
-3.04082e-06
1.99333e-06
-3.62063e-06
2.20912e-06
-4.24185e-06
2.42003e-06
-4.90686e-06
2.63288e-06
-5.61931e-06
2.85537e-06
-6.38442e-06
3.09437e-06
-7.20854e-06
3.35664e-06
-8.09928e-06
3.64806e-06
-9.06522e-06
3.97413e-06
-1.0116e-05
4.33958e-06
-1.12619e-05
4.74876e-06
-1.25143e-05
5.20542e-06
-1.3885e-05
5.71294e-06
-1.53862e-05
6.27416e-06
-1.70306e-05
6.89146e-06
-1.8831e-05
7.56664e-06
-2.08002e-05
8.30081e-06
-2.29505e-05
9.09424e-06
-2.52935e-05
9.94619e-06
-2.78399e-05
1.08547e-05
-3.0599e-05
1.18165e-05
-3.35779e-05
1.28266e-05
-3.67817e-05
1.38782e-05
-4.02126e-05
1.49627e-05
-4.38697e-05
1.60694e-05
-4.77486e-05
1.71857e-05
-5.18409e-05
1.82967e-05
-5.61344e-05
1.93861e-05
-6.0613e-05
2.04358e-05
-6.52565e-05
2.14267e-05
-7.00413e-05
2.23389e-05
-7.49403e-05
2.31523e-05
-7.99238e-05
2.38469e-05
-8.49598e-05
2.44036e-05
-9.00147e-05
2.48048e-05
-9.50541e-05
2.50342e-05
-0.000100043
2.50779e-05
-0.000104947
2.49243e-05
-0.000109732
2.45643e-05
-0.000114364
2.39912e-05
-0.000118812
2.32014e-05
-0.000123044
2.21934e-05
-0.000127033
2.09686e-05
-0.000130749
1.95303e-05
-0.000134168
1.78845e-05
-0.000137264
1.6039e-05
-0.000140014
1.40039e-05
-0.000142397
1.17907e-05
-0.000144393
9.41327e-06
-0.000145983
6.88679e-06
-0.000147151
4.22831e-06
-0.00014788
1.45652e-06
-0.000148157
-1.40828e-06
-0.00014797
-4.34416e-06
-0.000147309
-7.32757e-06
-0.000146165
-1.03334e-05
-0.000144533
-1.33349e-05
-0.000142409
-1.63039e-05
-0.000139794
-1.92109e-05
-0.000136688
-2.20252e-05
-0.000133099
-2.4715e-05
-0.000129038
-2.72481e-05
-0.000124518
-2.95921e-05
-0.00011956
-3.17149e-05
-0.000114187
-3.35854e-05
-0.000108432
-3.51745e-05
-0.00010233
-3.64554e-05
-9.59219e-05
-3.74049e-05
-8.92565e-05
-3.80044e-05
-8.2386e-05
-3.82402e-05
-7.53678e-05
-3.81051e-05
-6.82627e-05
-3.75982e-05
-6.11346e-05
-3.67262e-05
-5.40484e-05
-3.55029e-05
-4.70693e-05
-3.39499e-05
-4.02608e-05
-3.20953e-05
-3.36836e-05
-2.99739e-05
-2.73939e-05
-2.76259e-05
-2.14424e-05
-2.50956e-05
-1.58729e-05
-2.24302e-05
-1.07219e-05
-1.96784e-05
-6.01783e-06
-1.68887e-05
-1.78091e-06
-1.41082e-05
1.97694e-06
-1.13813e-05
5.25179e-06
-8.7483e-06
8.0473e-06
-6.2449e-06
1.03741e-05
-3.90112e-06
1.2249e-05
-1.74099e-06
1.36946e-05
2.17674e-07
1.47376e-05
1.96335e-06
1.54087e-05
3.49057e-06
1.57414e-05
4.79959e-06
1.57705e-05
5.89581e-06
1.55321e-05
6.78906e-06
1.50621e-05
7.49276e-06
1.43956e-05
8.02301e-06
1.35661e-05
8.39744e-06
1.26056e-05
8.63418e-06
1.15431e-05
8.75052e-06
1.04062e-05
8.76183e-06
9.21919e-06
8.68005e-06
8.00589e-06
8.51264e-06
6.78671e-06
8.2611e-06
5.58472e-06
7.92029e-06
4.41921e-06
7.47723e-06
3.31787e-06
6.91134e-06
2.30338e-06
6.19392e-06
1.41742e-06
5.28991e-06
6.92808e-07
4.15828e-06
2.00992e-07
2.75565e-06
1.03714e-06
-4.16811e-08
-3.56234e-08
-1.7074e-07
1.07454e-07
-3.89396e-07
3.70454e-07
-6.89073e-07
7.0497e-07
-1.06439e-06
1.06154e-06
-1.50529e-06
1.41871e-06
-2.00529e-06
1.7572e-06
-2.55707e-06
2.07329e-06
-3.15669e-06
2.36492e-06
-3.80107e-06
2.63779e-06
-4.49002e-06
2.89798e-06
-5.2247e-06
3.15474e-06
-6.00861e-06
3.41672e-06
-6.84663e-06
3.69338e-06
-7.74546e-06
3.99314e-06
-8.71304e-06
4.32419e-06
-9.75876e-06
4.69372e-06
-1.08931e-05
5.10839e-06
-1.21276e-05
5.57398e-06
-1.34746e-05
6.09577e-06
-1.49476e-05
6.6783e-06
-1.65603e-05
7.32557e-06
-1.83272e-05
8.04088e-06
-2.02627e-05
8.82686e-06
-2.23815e-05
9.68525e-06
-2.46977e-05
1.06169e-05
-2.72248e-05
1.16212e-05
-2.99755e-05
1.26966e-05
-3.29604e-05
1.38395e-05
-3.61886e-05
1.50445e-05
-3.96665e-05
1.63042e-05
-4.33974e-05
1.76088e-05
-4.73813e-05
1.89463e-05
-5.16144e-05
2.03022e-05
-5.60888e-05
2.16596e-05
-6.07921e-05
2.29996e-05
-6.5708e-05
2.43015e-05
-7.08156e-05
2.5543e-05
-7.60905e-05
2.67011e-05
-8.15047e-05
2.77526e-05
-8.70272e-05
2.86743e-05
-9.2625e-05
2.94441e-05
-9.82632e-05
3.00412e-05
-0.000103906
3.0447e-05
-0.000109518
3.0645e-05
-0.000115062
3.06212e-05
-0.000120503
3.03647e-05
-0.000125806
2.98672e-05
-0.000130939
2.91234e-05
-0.000135869
2.81307e-05
-0.000140566
2.68894e-05
-0.000145
2.5402e-05
-0.000149144
2.36737e-05
-0.000152971
2.17119e-05
-0.000156459
1.9526e-05
-0.000159583
1.71276e-05
-0.000162322
1.453e-05
-0.000164658
1.17483e-05
-0.00016657
8.79931e-06
-0.000168043
5.70141e-06
-0.000169061
2.47468e-06
-0.00016961
-8.59199e-07
-0.000169677
-4.27696e-06
-0.00016925
-7.75367e-06
-0.00016832
-1.12627e-05
-0.000166879
-1.47758e-05
-0.000164919
-1.82629e-05
-0.000162437
-2.16922e-05
-0.00015943
-2.50307e-05
-0.000155901
-2.82435e-05
-0.000151852
-3.1295e-05
-0.000147295
-3.41484e-05
-0.000142241
-3.67672e-05
-0.000136711
-3.91147e-05
-0.000130728
-4.1156e-05
-0.000124324
-4.28578e-05
-0.000117537
-4.41902e-05
-0.000110412
-4.51277e-05
-0.000103001
-4.56498e-05
-9.53625e-05
-4.57428e-05
-8.75593e-05
-4.54002e-05
-7.96604e-05
-4.46239e-05
-7.17378e-05
-4.34246e-05
-6.3865e-05
-4.18217e-05
-5.61157e-05
-3.98438e-05
-4.85617e-05
-3.75273e-05
-4.12709e-05
-3.49161e-05
-3.4306e-05
-3.20601e-05
-2.77226e-05
-2.90133e-05
-2.15681e-05
-2.58327e-05
-1.5881e-05
-2.25756e-05
-1.06903e-05
-1.92988e-05
-6.01555e-06
-1.60561e-05
-1.86681e-06
-1.28972e-05
1.75465e-06
-9.86659e-06
4.85576e-06
-7.00251e-06
7.45078e-06
-4.33633e-06
9.56036e-06
-1.89227e-06