/*--------------------------------*- C++ -*----------------------------------*\
| =========                 |                                                 |
| \\      /  F ield         | OpenFOAM: The Open Source CFD Toolbox           |
|  \\    /   O peration     | Version:  2406                                  |
|   \\  /    A nd           | Website:  www.openfoam.com                      |
|    \\/     M anipulation  |                                                 |
\*---------------------------------------------------------------------------*/
FoamFile
{
    version     2.0;
    format      ascii;
    arch        "LSB;label=32;scalar=64";
    class       surfaceScalarField;
    location    "24";
    object      phi;
}
// * * * * * * * * * * * * * * * * * * * * * * * * * * * * * * * * * * * * * //

dimensions      [0 3 -1 0 0 0 0];

oriented        oriented;

internalField   nonuniform List<scalar> 
1740
(
4.61399e-06
-4.61398e-06
1.11319e-05
-6.51793e-06
1.60005e-05
-4.86859e-06
1.80201e-05
-2.01956e-06
1.74004e-05
6.19632e-07
1.43649e-05
3.03554e-06
8.17115e-06
6.19374e-06
-2.90501e-06
1.10762e-05
-2.26495e-05
1.97444e-05
-5.55096e-05
3.28601e-05
-0.00010269
4.71808e-05
-0.000160549
5.78583e-05
-0.000220998
6.04497e-05
-0.000272987
5.19886e-05
-0.000307465
3.44779e-05
-0.000318198
1.07328e-05
-0.000301836
-1.63613e-05
-0.000257023
-4.48134e-05
-0.000186452
-7.05709e-05
-9.70676e-05
-8.93844e-05
-1.62713e-06
-9.54405e-05
8.31067e-05
-8.47338e-05
0.000139639
-5.65324e-05
0.000156689
-1.70504e-05
0.000136776
1.99131e-05
9.73323e-05
3.94441e-05
5.75364e-05
3.97959e-05
2.75187e-05
3.00177e-05
8.54395e-06
1.89747e-05
8.54395e-06
6.92839e-06
-1.15424e-05
1.58612e-05
-1.54507e-05
1.98968e-05
-8.9042e-06
1.67219e-05
1.15533e-06
5.02591e-06
1.23156e-05
-1.76699e-05
2.57313e-05
-5.66689e-05
4.51928e-05
-0.000119275
7.36823e-05
-0.00020661
0.000107079
-0.000309136
0.000135386
-0.000410934
0.000148978
-0.000498373
0.000145297
-0.0005639
0.000125978
-0.000605422
9.35098e-05
-0.000622115
5.11712e-05
-0.000614155
2.77287e-06
-0.000579689
-5.08277e-05
-0.00051966
-0.000104842
-0.000434683
-0.000155548
-0.000327454
-0.000196614
-0.000204835
-0.000218059
-7.97651e-05
-0.000209803
3.02122e-05
-0.00016651
0.000106325
-9.31634e-05
0.000137518
-1.12796e-05
0.000128726
4.82358e-05
9.53464e-05
7.31758e-05
5.45054e-05
7.08586e-05
1.89334e-05
5.45468e-05
2.74773e-05
5.87769e-06
-1.74201e-05
9.81156e-06
-1.93846e-05
4.53745e-06
-3.63008e-06
-1.37094e-05
1.94021e-05
-4.95671e-05
4.81733e-05
-0.000110295
8.64596e-05
-0.0002014
0.000136297
-0.000317096
0.000189379
-0.000439852
0.000229836
-0.000552216
0.00024775
-0.000645744
0.000242507
-0.000717691
0.000217244
-0.000768312
0.000176598
-0.000799456
0.000124654
-0.000812711
6.44262e-05
-0.000806984
-2.95399e-06
-0.000784079
-7.37329e-05
-0.000740785
-0.000148135
-0.000674399
-0.000221935
-0.000582946
-0.000288067
-0.000466616
-0.00033439
-0.000330796
-0.000345623
-0.000189335
-0.000307971
-6.42718e-05
-0.000218227
2.16538e-05
-9.72052e-05
6.01169e-05
9.77266e-06
6.30198e-05
7.0273e-05
4.39966e-05
8.98818e-05
1.70525e-05
8.14908e-05
4.45299e-05
1.36061e-06
-1.87807e-05
-5.56887e-06
-1.24551e-05
-2.76972e-05
1.84983e-05
-7.09271e-05
6.2632e-05
-0.000142629
0.000119875
-0.000246337
0.000190168
-0.000372777
0.000262737
-0.000501686
0.000318287
-0.000616057
0.000344207
-0.000708502
0.000340195
-0.000778152
0.000312156
-0.000827592
0.000266684
-0.000860426
0.000209433
-0.000880163
0.00014439
-0.000889518
7.37818e-05
-0.000889481
-2.99088e-06
-0.000880787
-8.24268e-05
-0.000861379
-0.000167543
-0.00082708
-0.000256234
-0.000771749
-0.000343397
-0.000687496
-0.000418643
-0.000568425
-0.000464695
-0.000416761
-0.000459635
-0.000251009
-0.000383978
-0.000106668
-0.000241546
-1.87866e-05
-7.81085e-05
1.47874e-05
3.66989e-05
1.88547e-05
8.58145e-05
8.27047e-06
9.20751e-05
5.28003e-05
-7.07654e-06
-1.17041e-05
-3.05627e-05
1.1031e-05
-7.57868e-05
6.37224e-05
-0.000149339
0.000136184
-0.000254055
0.000224591
-0.000380692
0.000316806
-0.000508767
0.000390812
-0.000619487
0.000429006
-0.000704863
0.000429584
-0.000765002
0.000400333
-0.000803398
0.000350552
-0.000825472
0.000288759
-0.000836768
0.000220728
-0.000841848
0.00014947
-0.000843839
7.57736e-05
-0.000847237
4.07008e-07
-0.000849678
-7.99864e-05
-0.000852216
-0.000165004
-0.000852298
-0.000256153
-0.000843
-0.000352695
-0.00081235
-0.000449293
-0.000744489
-0.000532555
-0.000625389
-0.000578735
-0.000452931
-0.000556437
-0.000255074
-0.000439403
-9.39537e-05
-0.000239229
-1.85409e-05
-3.87139e-05
1.19821e-06
6.60754e-05
2.60403e-06
9.06692e-05
5.54044e-05
-1.94161e-05
7.71196e-06
-6.28312e-05
5.44462e-05
-0.000132192
0.000133083
-0.000230359
0.000234352
-0.000350474
0.000344706
-0.000473741
0.000440073
-0.000579541
0.000496611
-0.000657311
0.000506777
-0.000706788
0.00047906
-0.000732675
0.00042622
-0.000742058
0.000359935
-0.000742123
0.000288824
-0.00073838
0.000216985
-0.000734424
0.000145514
-0.000732496
7.38457e-05
-0.00073388
1.79044e-06
-0.000739492
-7.4374e-05
-0.0007505
-0.000153997
-0.000767596
-0.000239057
-0.000788683
-0.000331608
-0.000805822
-0.000432155
-0.00080269
-0.000535686
-0.000754121
-0.000627304
-0.000634782
-0.000675776
-0.000438638
-0.000635547
-0.000209632
-0.000468235
-4.99714e-05
-0.000198374
-2.95375e-06
1.90577e-05
2.11107e-06
8.56044e-05
5.75155e-05
-3.354e-05
4.12519e-05
-9.59041e-05
0.00011681
-0.000183526
0.000220705
-0.000292823
0.000343648
-0.000408999
0.000460882
-0.000511283
0.000542357
-0.000585466
0.000570794
-0.000629241
0.000550552
-0.000647987
0.000497807
-0.000650234
0.000428466
-0.00064506
0.000354762
-0.00063885
0.000282615
-0.000634844
0.000212978
-0.000633757
0.000144428
-0.000635034
7.51223e-05
-0.000637137
3.89298e-06
-0.000641362
-7.01488e-05
-0.000648609
-0.000146749
-0.000661431
-0.000226235
-0.00068295
-0.000310089
-0.000713763
-0.000401341
-0.000746626
-0.000502824
-0.000761682
-0.000612248
-0.000725373
-0.000712085
-0.000600397
-0.000760523
-0.000378567
-0.000690065
-0.000128197
-0.000448744
-3.83036e-06
-0.000105309
3.94445e-06
7.78296e-05
6.14599e-05
-4.59613e-05
8.72132e-05
-0.00012174
0.000192589
-0.000217612
0.000316578
-0.000324351
0.000450387
-0.000423966
0.000560497
-0.000499415
0.000617806
-0.000544061
0.000615441
-0.000562123
0.000568614
-0.000562991
0.000498675
-0.000557128
0.000422603
-0.000552525
0.000350158
-0.000552603
0.000282693
-0.000557304
0.000217679
-0.000564563
0.000151687
-0.000571965
8.25241e-05
-0.000577639
9.56782e-06
-0.00058137
-6.64183e-05
-0.000584032
-0.000144087
-0.000587916
-0.000222351
-0.000596929
-0.000301076
-0.000615796
-0.000382474
-0.000647053
-0.000471567
-0.000684876
-0.000574425
-0.000706592
-0.00069037
-0.00066988
-0.000797235
-0.000525362
-0.000834582
-0.000272026
-0.000702081
-4.05029e-05
-0.000336832
7.45186e-06
2.98748e-05
6.89118e-05
-5.33565e-05
0.00014057
-0.000134917
0.000274149
-0.000229387
0.000411047
-0.000324432
0.000545432
-0.000403094
0.000639159
-0.000453971
0.000668683
-0.00047696
0.00063843
-0.000480637
0.000572291
-0.000476236
0.000494273
-0.000473497
0.000419865
-0.000477194
0.000353856
-0.000487314
0.000292813
-0.000501261
0.000231626
-0.000515725
0.000166151
-0.000528035
9.48345e-05
-0.000536521
1.80535e-05
-0.000540585
-6.23544e-05
-0.000540688
-0.000143984
-0.000538526
-0.000224513
-0.00053717
-0.000302432
-0.000541458
-0.000378187
-0.000557329
-0.000455695
-0.000588298
-0.000543456
-0.000627159
-0.000651509
-0.000645962
-0.000778431
-0.000593076
-0.000887468
-0.000416505
-0.000878652
-0.000129625
-0.000623712
1.01713e-05
-0.000109921
7.9083e-05
-5.42337e-05
0.000194803
-0.000134077
0.000353993
-0.000219998
0.000496968
-0.000299139
0.000624573
-0.000357834
0.000697854
-0.000390109
0.000700958
-0.00040042
0.000648741
-0.000399336
0.000571206
-0.000397774
0.000492711
-0.000402808
0.000424898
-0.000415775
0.000366824
-0.000434332
0.000311369
-0.000454854
0.000252148
-0.000474086
0.000185383
-0.000489775
0.000110523
-0.000500485
2.87633e-05
-0.000505646
-5.71927e-05
-0.000505331
-0.0001443
-0.00050043
-0.000229414
-0.000492888
-0.000309974
-0.000486196
-0.000384879
-0.000486194
-0.000455697
-0.000500639
-0.000529011
-0.000533723
-0.000618425
-0.000574599
-0.000737555
-0.000581629
-0.000880438
-0.000485634
-0.000974647
-0.000252374
-0.000856972
-1.09816e-05
-0.000351314
6.81014e-05
-4.8736e-05
0.000243539
-0.000120938
0.000426195
-0.000194283
0.000570313
-0.000257064
0.000687353
-0.000299452
0.000740241
-0.000319655
0.000721162
-0.00032446
0.000653546
-0.000324416
0.000571163
-0.000328516
0.000496811
-0.000340778
0.00043716
-0.000360172
0.000386218
-0.000383409
0.000334606
-0.000406986
0.000275724
-0.00042829
0.000206687
-0.000445585
0.000127818
-0.000457802
4.09803e-05
-0.000464285
-5.07096e-05
-0.000464978
-0.000143607
-0.000460473
-0.000233919
-0.000451962
-0.000318485
-0.000441331
-0.000395509
-0.000431951
-0.000465077
-0.000430833
-0.00053013
-0.000447012
-0.000602247
-0.000484541
-0.000700026
-0.000520431
-0.000844548
-0.000499653
-0.000995425
-0.000350492
-0.00100613
-6.43674e-05
-0.000637438
3.73405e-06
-3.81729e-05
0.000281712
-9.87946e-05
0.000486817
-0.000157817
0.000629336
-0.000205461
0.000734997
-0.000235493
0.000770274
-0.000248706
0.000734374
-0.000252321
0.000657161
-0.000255414
0.000574256
-0.000264469
0.000505866
-0.000281094
0.000453786
-0.00030319
0.000408313
-0.00032756
0.000358977
-0.000351417
0.000299581
-0.000372912
0.000228182
-0.000390754
0.00014566
-0.00040394
5.41659e-05
-0.000411701
-4.29477e-05
-0.000413767
-0.000141541
-0.000410494
-0.000237192
-0.000402931
-0.000326048
-0.000392751
-0.000405689
-0.000381721
-0.000476107
-0.000373964
-0.000537887
-0.000376224
-0.000599986
-0.000399272
-0.000676978
-0.000441637
-0.000802182
-0.000465045
-0.000972018
-0.000377749
-0.00109343
-0.000135015
-0.000880172
-0.000131281
-2.444e-05
0.000306152
-7.09868e-05
0.000533364
-0.000115389
0.000673738
-0.000149852
0.000769459
-0.000171016
0.000791438
-0.000180737
0.000744095
-0.000185162
0.000661586
-0.000191098
0.000580192
-0.000202668
0.000517436
-0.000220157
0.000471275
-0.00024148
0.000429637
-0.000264169
0.000381665
-0.000286325
0.000321737
-0.000306723
0.000248581
-0.000324341
0.000163278
-0.000338171
6.79956e-05
-0.000347331
-3.37873e-05
-0.00035141
-0.000137463
-0.000350497
-0.000238104
-0.000345143
-0.000331401
-0.000337137
-0.000413696
-0.000327487
-0.000485757
-0.000318704
-0.000546671
-0.000314173
-0.000604517
-0.000325159
-0.000665992
-0.000360883
-0.000766458
-0.00040406
-0.000928841
-0.000374535
-0.00112295
-0.000203483
-0.00105122
-0.000334764
-9.328e-06
0.00031548
-4.03426e-05
0.000564379
-7.05614e-05
0.000703957
-9.35749e-05
0.000792473
-0.000108013
0.000805876
-0.000115787
0.00075187
-0.00012119
0.000666988
-0.000128439
0.000587442
-0.000139881
0.000528877
-0.000155367
0.000486761
-0.000173428
0.000447698
-0.000192507
0.000400744
-0.000211455
0.000340685
-0.000229464
0.000266589
-0.000245727
0.000179541
-0.000259369
8.16379e-05
-0.000269567
-2.359e-05
-0.000275823
-0.000131206
-0.000278222
-0.000235706
-0.000276713
-0.00033291
-0.000272852
-0.000417556
-0.000267387
-0.000491223
-0.000261969
-0.000552088
-0.000257138
-0.000609348
-0.000261564
-0.000661566
-0.000284611
-0.000743411
-0.000328704
-0.000884749
-0.000335785
-0.00111587
-0.000222167
-0.00116484
-0.000556931
5.98105e-06
0.000309499
-8.62961e-06
0.000578989
-2.56739e-05
0.000721001
-3.87179e-05
0.000805517
-4.77189e-05
0.000814877
-5.42624e-05
0.000758414
-6.03361e-05
0.000673062
-6.74256e-05
0.000594531
-7.66356e-05
0.000538087
-8.78797e-05
0.000498005
-0.000100666
0.000460484
-0.000114402
0.00041448
-0.000128593
0.000354876
-0.000142806
0.000280803
-0.000156508
0.000193243
-0.000169126
9.42562e-05
-0.000180027
-1.26894e-05
-0.000188614
-0.000122619
-0.00019485
-0.000229469
-0.000198459
-0.000329301
-0.000199865
-0.00041615
-0.000200078
-0.00049101
-0.000199975
-0.00055219
-0.000199713
-0.000609611
-0.000203529
-0.00065775
-0.000218407
-0.000728532
-0.000257504
-0.000845653
-0.000282694
-0.00109068
-0.000204998
-0.00124254
-0.000761928
2.041e-05
0.000289089
2.15753e-05
0.000577824
1.73936e-05
0.000725183
1.38249e-05
0.000809085
1.00191e-05
0.000818683
5.2452e-06
0.000763187
-2.37879e-07
0.000678545
-6.16076e-06
0.000600454
-1.18695e-05
0.000543796
-1.76609e-05
0.000503797
-2.40547e-05
0.000466878
-3.14027e-05
0.000421828
-3.98263e-05
0.000363299
-4.92572e-05
0.000290234
-5.95029e-05
0.000203488
-7.02505e-05
0.000105004
-8.14309e-05
-1.50899e-06
-9.21384e-05
-0.000111912
-0.000102694
-0.000218914
-0.000111963
-0.000320032
-0.000120474
-0.00040764
-0.000127887
-0.000483597
-0.00013485
-0.000545227
-0.00014103
-0.000603431
-0.000147581
-0.000651199
-0.000159194
-0.000716919
-0.000192004
-0.000812842
-0.000224652
-0.00105803
-0.000177332
-0.00128986
-0.000939261
3.2363e-05
0.000256726
4.94602e-05
0.000560727
5.78976e-05
0.000716746
6.37407e-05
0.000803242
6.51715e-05
0.000817252
6.19912e-05
0.000766368
5.68198e-05
0.000683717
5.2812e-05
0.000604462
5.12288e-05
0.000545379
5.15643e-05
0.000503461
5.23392e-05
0.000466103
5.22365e-05
0.000421931
5.04894e-05
0.000365046
4.67525e-05
0.000293971
4.07623e-05
0.000209479
3.24974e-05
0.000113269
2.18856e-05
9.10283e-06
8.64844e-06
-9.86748e-05
-4.92155e-06
-0.000205344
-2.12132e-05
-0.00030374
-3.6172e-05
-0.000392681
-5.20971e-05
-0.000467672
-6.76566e-05
-0.000529667
-8.12485e-05
-0.000589839
-9.47309e-05
-0.000637717
-0.000108515
-0.000703135
-0.000137986
-0.000783372
-0.000173263
-0.00102276
-0.000148467
-0.00131465
-0.00108773
4.09046e-05
0.000215822
7.3402e-05
0.000528229
9.43917e-05
0.000695756
0.00010969
0.000787944
0.000117433
0.000809508
0.000117604
0.000766198
0.000114103
0.000687217
0.000111904
0.000606661
0.000113904
0.000543379
0.000119827
0.000497539
0.000127498
0.000458432
0.000134628
0.000414801
0.000139639
0.000360035
0.000141719
0.000291891
0.000140104
0.000211093
0.000134466
0.000118907
0.000124438
1.91303e-05
0.000110248
-8.44847e-05
9.18779e-05
-0.000186974
7.08695e-05
-0.000282731
4.8146e-05
-0.000369957
2.31223e-05
-0.000442649
1.92132e-06
-0.000508466
-2.31012e-05
-0.000564817
-4.31118e-05
-0.000617706
-6.17879e-05
-0.000684459
-9.1208e-05
-0.000753951
-0.000129411
-0.000984554
-0.000123715
-0.00132035
-0.00121144
4.50188e-05
0.000170803
9.20137e-05
0.000481234
0.000125706
0.000662063
0.000150869
0.000762782
0.000165868
0.000794509
0.000170284
0.000761781
0.000168746
0.000688755
0.000167926
0.000607481
0.000172371
0.000538934
0.000182677
0.000487233
0.000196434
0.000444674
0.000210489
0.000400747
0.00022223
0.000348293
0.000230255
0.000283866
0.0002333
0.000208048
0.000230611
0.000121596
0.000221687
2.80546e-05
0.000206507
-6.93045e-05
0.00018518
-0.000165647
0.000159437
-0.000256989
0.000129229
-0.000339749
9.80461e-05
-0.000411466
6.55456e-05
-0.000475966
3.37117e-05
-0.000532983
7.09055e-06
-0.000591085
-2.19522e-05
-0.000655416
-5.41016e-05
-0.000721802
-9.50541e-05
-0.000943602
-0.000103425
-0.00131198
-0.00131487
4.40695e-05
0.000126733
0.000103558
0.000421746
0.000150176
0.000615445
0.000186027
0.00072693
0.000210027
0.00077051
0.000221256
0.000750553
0.000223702
0.000686309
0.000224729
0.000606453
0.000230475
0.000533188
0.000243094
0.000474614
0.000260784
0.000426985
0.000280116
0.000381415
0.000297478
0.00033093
0.000310626
0.000270719
0.000317856
0.000200818
0.000317949
0.000121503
0.000310166
3.58372e-05
0.000294399
-5.35372e-05
0.000270845
-0.000142092
0.000240749
-0.000226893
0.000205103
-0.000304103
0.000167064
-0.000373427
0.000126818
-0.00043572
8.86653e-05
-0.00049483
5.14941e-05
-0.000553914
1.51078e-05
-0.00061903
-2.13767e-05
-0.000685317
-6.78047e-05
-0.000897174
-8.89604e-05
-0.00129082
-0.00140383
3.87799e-05
8.79533e-05
0.000107369
0.000353157
0.000166171
0.000556643
0.000213008
0.000680093
0.00024703
0.000736488
0.000266436
0.000731147
0.000274319
0.000678426
0.000277841
0.00060293
0.000284197
0.000526833
0.00029733
0.000461481
0.000316675
0.00040764
0.000339252
0.000358838
0.000360949
0.000309233
0.000378486
0.000253183
0.000389557
0.000189747
0.000392558
0.000118502
0.000386391
4.20035e-05
0.000370802
-3.79481e-05
0.000345996
-0.000117286
0.000313074
-0.000193971
0.000273634
-0.000264663
0.000230219
-0.000330012
0.000184513
-0.000390014
0.000139382
-0.000449698
9.39912e-05
-0.000508523
5.05699e-05
-0.000575608
7.10148e-06
-0.000641849
-4.71306e-05
-0.000842942
-7.97155e-05
-0.00125824
-0.00148354
3.10147e-05
5.69386e-05
0.000102539
0.000281633
0.000171656
0.000487526
0.000229822
0.000621928
0.000275668
0.000690641
0.000306894
0.000699921
0.000324216
0.000661104
0.000333288
0.000593858
0.000341372
0.000518748
0.000353916
0.000448937
0.000372223
0.000389333
0.000394615
0.000336446
0.000417526
0.000286322
0.000437163
0.000233546
0.000450514
0.000176396
0.000455483
0.000113533
0.000450707
4.67801e-05
0.000435603
-2.2844e-05
0.00041043
-9.2114e-05
0.000376125
-0.000159665
0.000334596
-0.000223134
0.000287906
-0.000283323
0.000238371
-0.000340479
0.000187508
-0.000398835
0.000135568
-0.000456584
8.3561e-05
-0.000523601
3.07083e-05
-0.000588996
-2.8747e-05
-0.000783486
-7.21576e-05
-0.00121483
-0.0015557
2.23724e-05
3.45663e-05
8.97718e-05
0.000214234
0.000164931
0.000412367
0.00023292
0.000553938
0.000290302
0.00063326
0.00033405
0.000656174
0.000363251
0.000631903
0.000381315
0.000575794
0.000394067
0.000505997
0.000407432
0.000435572
0.000424402
0.000372363
0.000444906
0.000315941
0.000466648
0.000264581
0.000486238
0.000213955
0.000500447
0.000162187
0.000506692
0.000107288
0.00050344
5.00322e-05
0.000489654
-9.05822e-06
0.000465635
-6.80941e-05
0.000431906
-0.000125936
0.000390511
-0.00018174
0.000342622
-0.000235434
0.00029075
-0.000288607
0.000234597
-0.000342681
0.000176126
-0.000398113
0.000114374
-0.000461849
5.42125e-05
-0.000528835
-1.12999e-05
-0.000717974
-6.096e-05
-0.00116517
-0.00161666
1.37681e-05
2.07982e-05
6.93181e-05
0.000158683
0.000144428
0.000337256
0.000220476
0.000477891
0.000290834
0.000562902
0.000350582
0.000596426
0.00039612
0.000586365
0.000428633
0.00054328
0.000451436
0.000483194
0.000469562
0.000417446
0.000486987
0.000354938
0.000505227
0.000297702
0.000523731
0.000246076
0.000540402
0.000197285
0.000552722
0.000149867
0.000558087
0.000101922
0.000554908
5.32109e-05
0.000542023
3.82719e-06
0.00051936
-4.54311e-05
0.000486998
-9.35751e-05
0.000446718
-0.000141459
0.000398494
-0.00018721
0.000344734
-0.000234847
0.000283291
-0.000281239
0.000218191
-0.000333012
0.000145712
-0.00038937
7.89169e-05
-0.00046204
6.33425e-06
-0.000645391
-4.9281e-05
-0.00110955
-0.00166594
4.19994e-06
1.65983e-05
4.39292e-05
0.000118954
0.00010916
0.000272026
0.000187744
0.000399307
0.000267523
0.000483123
0.000340902
0.000523046
0.000404263
0.000523004
0.000454582
0.000492962
0.000492625
0.000445151
0.000521751
0.000388319
0.000545338
0.000331351
0.00056575
0.00027729
0.00058375
0.000228076
0.000598738
0.000182296
0.000609355
0.00013925
0.000613739
9.75381e-05
0.00061063
5.63199e-05
0.000598452
1.60053e-05
0.000577488
-2.44671e-05
0.000546865
-6.29518e-05
0.000507916
-0.00010251
0.000459456
-0.00013875
0.000403467
-0.000178858
0.000336625
-0.000214397
0.000264223
-0.00026061
0.000179741
-0.000304889
0.000105925
-0.000388224
2.14096e-05
-0.000560876
-4.79564e-05
-0.00104019
-0.0017139
-1.22373e-05
2.88355e-05
6.64326e-06
0.000100074
5.82304e-05
0.000220439
0.000139333
0.000318204
0.000227257
0.000395198
0.000317668
0.000432635
0.000400765
0.000439907
0.000471836
0.000421891
0.000529716
0.000387271
0.000575415
0.000342621
0.000610897
0.000295868
0.00063859
0.000249598
0.000659907
0.000206758
0.00067556
0.000166643
0.000685194
0.000129617
0.000688235
9.44968e-05
0.00068376
6.07952e-05
0.000670962
2.8803e-05
0.000649433
-2.93796e-06
0.000618639
-3.21572e-05
0.000578622
-6.24935e-05
0.000528601
-8.87295e-05
0.000469238
-0.000119495
0.000398049
-0.000143208
0.000320029
-0.00018259
0.000227603
-0.000212463
0.00014601
-0.000306631
4.35237e-05
-0.00045839
-3.88008e-05
-0.000957863
-0.0017527
-4.21947e-05
7.10302e-05
-4.28595e-05
0.000100738
-1.09363e-05
0.000188516
6.24789e-05
0.000244789
0.000152212
0.000305465
0.00025518
0.000329667
0.000354213
0.000340875
0.000445102
0.000331001
0.000523477
0.000308896
0.000588932
0.000277166
0.00064083
0.000243971
0.0006823
0.000208128
0.00071306
0.000175998
0.000735944
0.00014376
0.00074957
0.000115991
0.000755898
8.81692e-05
0.000752782
6.39111e-05
0.000742014
3.95712e-05
0.000721141
1.79353e-05
0.000691866
-2.88237e-06
0.000652216
-2.28438e-05
0.000603218
-3.9732e-05
0.000544039
-6.0315e-05
0.000473861
-7.30302e-05
0.000396089
-0.000104818
0.000307432
-0.000123806
0.00022063
-0.000219829
0.000126913
-0.000364673
3.68424e-05
-0.000867792
-0.00171586
-0.000141168
0.000212199
-0.000127352
8.69226e-05
-9.59907e-05
0.000157154
-1.10614e-05
0.00015986
8.86172e-05
0.000205786
0.000205367
0.000212917
0.000317294
0.000228948
0.000428309
0.000219987
0.000523546
0.000213659
0.000607905
0.000192806
0.000675424
0.000176451
0.000731396
0.000152156
0.000772901
0.000134493
0.000804673
0.000111988
0.000824338
9.6325e-05
0.000835545
7.69625e-05
0.000835915
6.35409e-05
0.00082803
4.74568e-05
0.000810446
3.55195e-05
0.000784435
2.31287e-05
0.00074997
1.16212e-05
0.000706916
3.32156e-06
0.000656116
-9.51518e-06
0.000597334
-1.42482e-05
0.000529136
-3.66191e-05
0.000458519
-5.31889e-05
0.000371459
-0.000132769
0.000306038
-0.000299253
0.000187647
-0.000749401
-0.00152821
-7.34204e-05
0.000285619
-0.000136137
0.000149639
-0.000113867
0.000134884
-6.74298e-05
0.000113423
3.29082e-05
0.000105448
0.000143615
0.00010221
0.000266991
0.000105573
0.000383826
0.000103152
0.000494823
0.000102662
0.000592034
9.55955e-05
0.000677703
9.07824e-05
0.000748753
8.11062e-05
0.000808502
7.47441e-05
0.000855875
6.46143e-05
0.000893522
5.86776e-05
0.000921288
4.91967e-05
0.000940476
4.43529e-05
0.000952215
3.57182e-05
0.000955613
3.21214e-05
0.000954424
2.43176e-05
0.000944045
2.20002e-05
0.000932848
1.45189e-05
0.000910251
1.30815e-05
0.000892045
3.95829e-06
0.000852995
2.43067e-06
0.000819495
-1.9689e-05
0.000734743
-4.80173e-05
0.000638349
-0.000202859
0.000402038
-0.00051309
-0.00112617
0.000285619
0.000435258
0.000570142
0.000683565
0.000789013
0.000891223
0.000996796
0.00109995
0.00120261
0.0012982
0.00138899
0.00147009
0.00154484
0.00160945
0.00166813
0.00171733
0.00176168
0.0017974
0.00182952
0.00185384
0.00187584
0.00189036
0.00190344
0.00190739
0.00190983
0.00189014
0.00184212
0.00163926
0.00112617
)
;

boundaryField
{
    movingWall
    {
        type            calculated;
        value           uniform 0;
    }
    fixedWalls
    {
        type            calculated;
        value           uniform 0;
    }
    frontAndBack
    {
        type            empty;
    }
}


// ************************************************************************* //
