/*--------------------------------*- C++ -*----------------------------------*\
| =========                 |                                                 |
| \\      /  F ield         | OpenFOAM: The Open Source CFD Toolbox           |
|  \\    /   O peration     | Version:  2406                                  |
|   \\  /    A nd           | Website:  www.openfoam.com                      |
|    \\/     M anipulation  |                                                 |
\*---------------------------------------------------------------------------*/
FoamFile
{
    version     2.0;
    format      ascii;
    arch        "LSB;label=32;scalar=64";
    class       volVectorField;
    location    "31.6";
    object      U;
}
// * * * * * * * * * * * * * * * * * * * * * * * * * * * * * * * * * * * * * //

dimensions      [0 1 -1 0 0 0 0];

internalField   nonuniform List<vector> 
900
(
(0.00058689 -0.000594548 0)
(0.00324899 -0.000785112 0)
(0.00567073 -0.000540998 0)
(0.00694734 -0.000188759 0)
(0.00703141 -2.5298e-05 0)
(0.00646005 5.81002e-05 0)
(0.00523496 0.000194675 0)
(0.00285987 0.000140585 0)
(-0.00192851 -0.000322012 0)
(-0.0109541 -5.38132e-05 0)
(-0.0251627 0.00225651 0)
(-0.0440495 0.0056268 0)
(-0.065329 0.00793694 0)
(-0.0849518 0.00814638 0)
(-0.0993557 0.00638543 0)
(-0.106351 0.00322058 0)
(-0.104487 -0.00079354 0)
(-0.0932245 -0.00502709 0)
(-0.0728516 -0.00897104 0)
(-0.0451965 -0.0118659 0)
(-0.013553 -0.0127885 0)
(0.0169756 -0.0109655 0)
(0.0407029 -0.00617118 0)
(0.0528091 0.000275322 0)
(0.0512965 0.00510049 0)
(0.0394251 0.00608863 0)
(0.0249144 0.00447312 0)
(0.0130909 0.002613 0)
(0.00536097 0.00133302 0)
(0.000828342 0.000644187 0)
(0.000929534 -0.00334561 0)
(0.00578674 -0.00506092 0)
(0.00910108 -0.00323572 0)
(0.00973827 -0.000523203 0)
(0.00722974 0.00154123 0)
(0.00164166 0.00334192 0)
(-0.0085599 0.00602143 0)
(-0.0260501 0.0109741 0)
(-0.0529362 0.0192946 0)
(-0.0875483 0.028949 0)
(-0.123313 0.0355359 0)
(-0.154694 0.0369374 0)
(-0.179335 0.0331181 0)
(-0.196132 0.0249621 0)
(-0.204865 0.013795 0)
(-0.205414 0.000808952 0)
(-0.197629 -0.0130737 0)
(-0.18136 -0.0270387 0)
(-0.156878 -0.0397304 0)
(-0.124739 -0.0492134 0)
(-0.086588 -0.0529279 0)
(-0.0455189 -0.0485502 0)
(-0.00631465 -0.035118 0)
(0.0248697 -0.0149331 0)
(0.0425209 0.00528396 0)
(0.0449472 0.0181092 0)
(0.0367986 0.0212694 0)
(0.0237988 0.0177692 0)
(0.0114271 0.0120294 0)
(0.00177231 0.00553796 0)
(0.00117802 -0.00686837 0)
(0.0058614 -0.00913497 0)
(0.00689072 -0.00408145 0)
(0.00344181 0.00260508 0)
(-0.00571892 0.00896246 0)
(-0.0223525 0.0168523 0)
(-0.0496246 0.0292286 0)
(-0.0876076 0.0453104 0)
(-0.129951 0.0592255 0)
(-0.169751 0.0665167 0)
(-0.203353 0.0666929 0)
(-0.229414 0.0606559 0)
(-0.248234 0.0496457 0)
(-0.260388 0.0348515 0)
(-0.266514 0.0173752 0)
(-0.26692 -0.00200261 0)
(-0.261736 -0.0226617 0)
(-0.250334 -0.0438422 0)
(-0.231962 -0.0640644 0)
(-0.205847 -0.0809489 0)
(-0.171734 -0.0909512 0)
(-0.130421 -0.0900042 0)
(-0.0846456 -0.0751233 0)
(-0.0398847 -0.047139 0)
(-0.00438858 -0.013903 0)
(0.0149454 0.0120583 0)
(0.0206876 0.0249949 0)
(0.0174142 0.0269151 0)
(0.00986324 0.0222389 0)
(0.0015467 0.0117084 0)
(0.00116302 -0.0103206 0)
(0.00334086 -0.0109195 0)
(-0.000714563 -0.000406648 0)
(-0.0116703 0.0127396 0)
(-0.0319138 0.0278488 0)
(-0.0638772 0.0475625 0)
(-0.106061 0.0703258 0)
(-0.151159 0.0892708 0)
(-0.191795 0.0992262 0)
(-0.224707 0.0996601 0)
(-0.249462 0.092198 0)
(-0.266899 0.0788485 0)
(-0.278452 0.061488 0)
(-0.285382 0.0414113 0)
(-0.288841 0.0193568 0)
(-0.289501 -0.00450509 0)
(-0.287638 -0.0299858 0)
(-0.282838 -0.0565629 0)
(-0.274137 -0.0833301 0)
(-0.259819 -0.108086 0)
(-0.23758 -0.126968 0)
(-0.204993 -0.134382 0)
(-0.160924 -0.124505 0)
(-0.107944 -0.094482 0)
(-0.0549504 -0.0496521 0)
(-0.0164164 -0.00663831 0)
(0.00090141 0.0192578 0)
(0.00608703 0.0293025 0)
(0.00465541 0.0283437 0)
(0.000606993 0.0158519 0)
(0.000525675 -0.0118824 0)
(-0.00261295 -0.00745 0)
(-0.0141902 0.0110896 0)
(-0.0352952 0.0338932 0)
(-0.0677713 0.0607885 0)
(-0.110067 0.0902434 0)
(-0.155017 0.115144 0)
(-0.194508 0.128923 0)
(-0.224956 0.130688 0)
(-0.246234 0.122767 0)
(-0.259507 0.107978 0)
(-0.266769 0.0889591 0)
(-0.269952 0.0675492 0)
(-0.270849 0.0448297 0)
(-0.270907 0.0211692 0)
(-0.271048 -0.00353697 0)
(-0.271559 -0.0296303 0)
(-0.272496 -0.0575584 0)
(-0.273363 -0.087353 0)
(-0.272628 -0.117973 0)
(-0.267239 -0.146398 0)
(-0.252598 -0.167056 0)
(-0.223225 -0.171836 0)
(-0.17572 -0.152491 0)
(-0.113387 -0.106267 0)
(-0.0511623 -0.0448387 0)
(-0.0133265 0.00329336 0)
(-0.00167707 0.0255015 0)
(0.00110562 0.0295855 0)
(0.00016039 0.0173815 0)
(-0.00115175 -0.00938355 0)
(-0.0118603 0.00359757 0)
(-0.0317538 0.0322478 0)
(-0.0623269 0.0660603 0)
(-0.102096 0.102193 0)
(-0.14525 0.134007 0)
(-0.183209 0.153437 0)
(-0.211072 0.157909 0)
(-0.228687 0.15017 0)
(-0.237579 0.134078 0)
(-0.240281 0.113295 0)
(-0.239377 0.0905042 0)
(-0.236852 0.0671483 0)
(-0.23419 0.04381 0)
(-0.232226 0.0204651 0)
(-0.231504 -0.00309484 0)
(-0.23234 -0.027421 0)
(-0.235228 -0.0534023 0)
(-0.24025 -0.0817377 0)
(-0.247257 -0.112818 0)
(-0.254652 -0.145801 0)
(-0.258552 -0.1774 0)
(-0.251818 -0.200388 0)
(-0.225811 -0.203456 0)
(-0.174788 -0.174418 0)
(-0.103128 -0.109676 0)
(-0.0336156 -0.0303345 0)
(-0.00479698 0.0162249 0)
(0.000214366 0.028253 0)
(0.000353877 0.0179099 0)
(-0.00362505 -0.000921686 0)
(-0.0224702 0.0230725 0)
(-0.049344 0.0617201 0)
(-0.0854846 0.103982 0)
(-0.125623 0.143372 0)
(-0.162417 0.170727 0)
(-0.189167 0.180535 0)
(-0.204812 0.174607 0)
(-0.211286 0.15803 0)
(-0.21142 0.135628 0)
(-0.208482 0.111302 0)
(-0.204688 0.0870904 0)
(-0.201416 0.0637428 0)
(-0.199158 0.0411545 0)
(-0.197922 0.0189182 0)
(-0.197624 -0.00341275 0)
(-0.198402 -0.0263072 0)
(-0.200583 -0.0501798 0)
(-0.20463 -0.0756397 0)
(-0.211267 -0.103489 0)
(-0.220941 -0.134532 0)
(-0.232614 -0.1686 0)
(-0.241935 -0.202696 0)
(-0.239995 -0.228204 0)
(-0.215316 -0.229358 0)
(-0.159828 -0.187741 0)
(-0.0792986 -0.0995398 0)
(-0.0103084 -0.00699651 0)
(0.000827605 0.0274533 0)
(0.000391368 0.0188617 0)
(-0.00602125 0.0138207 0)
(-0.0313152 0.0492164 0)
(-0.0619968 0.0957634 0)
(-0.0990137 0.142267 0)
(-0.134523 0.179246 0)
(-0.162108 0.197783 0)
(-0.17811 0.19658 0)
(-0.184412 0.181124 0)
(-0.184094 0.157943 0)
(-0.180725 0.132268 0)
(-0.177096 0.107259 0)
(-0.174395 0.0837362 0)
(-0.173033 0.06155 0)
(-0.172646 0.0400263 0)
(-0.172898 0.018636 0)
(-0.173488 -0.00308321 0)
(-0.174445 -0.0253866 0)
(-0.175935 -0.0484187 0)
(-0.17844 -0.072438 0)
(-0.182596 -0.0978902 0)
(-0.189359 -0.125555 0)
(-0.199507 -0.156532 0)
(-0.212323 -0.191355 0)
(-0.223173 -0.227295 0)
(-0.221905 -0.253696 0)
(-0.194947 -0.248391 0)
(-0.132148 -0.184375 0)
(-0.0404542 -0.0626277 0)
(0.00223224 0.0208118 0)
(-0.00154483 0.0204582 0)
(-0.00760757 0.0333772 0)
(-0.0365099 0.0790764 0)
(-0.0677378 0.130317 0)
(-0.102133 0.176524 0)
(-0.13077 0.206881 0)
(-0.149507 0.214905 0)
(-0.157451 0.203669 0)
(-0.158309 0.181217 0)
(-0.155513 0.154666 0)
(-0.152465 0.128698 0)
(-0.150668 0.104891 0)
(-0.150343 0.082856 0)
(-0.151145 0.0617895 0)
(-0.152419 0.040876 0)
(-0.153793 0.0197332 0)
(-0.154972 -0.00186219 0)
(-0.155978 -0.0238984 0)
(-0.156933 -0.0464493 0)
(-0.1582 -0.0695605 0)
(-0.160299 -0.0935195 0)
(-0.164103 -0.118937 0)
(-0.170749 -0.146973 0)
(-0.181094 -0.179181 0)
(-0.194203 -0.216266 0)
(-0.204601 -0.254407 0)
(-0.200141 -0.278423 0)
(-0.165837 -0.25607 0)
(-0.0908792 -0.154972 0)
(-0.00267471 -0.0058451 0)
(-0.000518482 0.0243182 0)
(-0.00795097 0.0551288 0)
(-0.0372584 0.109528 0)
(-0.0663312 0.162475 0)
(-0.0960855 0.205252 0)
(-0.117724 0.227252 0)
(-0.129585 0.225215 0)
(-0.132744 0.206039 0)
(-0.131635 0.17932 0)
(-0.129339 0.151962 0)
(-0.128387 0.127226 0)
(-0.129028 0.105019 0)
(-0.130969 0.084174 0)
(-0.133512 0.063626 0)
(-0.136075 0.0427001 0)
(-0.138299 0.0212118 0)
(-0.139959 -0.000846979 0)
(-0.141111 -0.0233191 0)
(-0.141848 -0.0460343 0)
(-0.14238 -0.0688857 0)
(-0.143029 -0.0919132 0)
(-0.1444 -0.115452 0)
(-0.147483 -0.14044 0)
(-0.153571 -0.168781 0)
(-0.163875 -0.203079 0)
(-0.177646 -0.244051 0)
(-0.186343 -0.28457 0)
(-0.175439 -0.297614 0)
(-0.1236 -0.235517 0)
(-0.0337038 -0.0655711 0)
(0.0112695 0.0254935 0)
(-0.00709132 0.0763153 0)
(-0.0340944 0.138074 0)
(-0.0594034 0.190423 0)
(-0.0839279 0.227919 0)
(-0.0996447 0.241139 0)
(-0.107001 0.230458 0)
(-0.108038 0.205807 0)
(-0.107112 0.177328 0)
(-0.106521 0.150908 0)
(-0.107789 0.12801 0)
(-0.110402 0.107289 0)
(-0.113919 0.0872375 0)
(-0.117558 0.0668108 0)
(-0.120885 0.045574 0)
(-0.123574 0.0235218 0)
(-0.125533 0.000831683 0)
(-0.126752 -0.0222178 0)
(-0.127378 -0.0453675 0)
(-0.127646 -0.0684656 0)
(-0.127811 -0.091504 0)
(-0.128224 -0.114618 0)
(-0.129357 -0.138174 0)
(-0.131914 -0.163229 0)
(-0.137264 -0.192702 0)
(-0.148753 -0.230441 0)
(-0.162327 -0.277578 0)
(-0.167524 -0.315817 0)
(-0.136021 -0.29826 0)
(-0.0763871 -0.161111 0)
(0.0191863 0.0138246 0)
(-0.00530319 0.0944969 0)
(-0.0279895 0.162943 0)
(-0.0486791 0.21346 0)
(-0.0679797 0.245303 0)
(-0.0790726 0.250947 0)
(-0.0837807 0.233887 0)
(-0.0843788 0.206004 0)
(-0.0846296 0.177302 0)
(-0.0859077 0.152338 0)
(-0.0889383 0.130991 0)
(-0.0928957 0.111199 0)
(-0.0973707 0.0913988 0)
(-0.101648 0.0706841 0)
(-0.105443 0.0488239 0)
(-0.108442 0.025946 0)
(-0.110585 0.00240211 0)
(-0.111865 -0.0213663 0)
(-0.112427 -0.0450189 0)
(-0.11246 -0.0683078 0)
(-0.112285 -0.0912215 0)
(-0.112242 -0.113967 0)
(-0.112576 -0.136927 0)
(-0.113781 -0.160522 0)
(-0.115833 -0.186915 0)
(-0.123889 -0.219359 0)
(-0.135218 -0.264124 0)
(-0.148626 -0.314027 0)
(-0.133373 -0.334409 0)
(-0.100915 -0.242864 0)
(0.009074 -0.0163521 0)
(-0.00291705 0.107997 0)
(-0.0200065 0.183075 0)
(-0.035873 0.231382 0)
(-0.0504734 0.258126 0)
(-0.0582188 0.2576 0)
(-0.0617001 0.235917 0)
(-0.0627729 0.20627 0)
(-0.0643115 0.17818 0)
(-0.0669314 0.154791 0)
(-0.0709134 0.134751 0)
(-0.0754643 0.115645 0)
(-0.0802965 0.0959417 0)
(-0.0848198 0.0748726 0)
(-0.0888358 0.0523525 0)
(-0.0920441 0.0286314 0)
(-0.0943813 0.00417873 0)
(-0.0958159 -0.0204697 0)
(-0.0964877 -0.04482 0)
(-0.0965811 -0.0685818 0)
(-0.0963821 -0.091686 0)
(-0.0962722 -0.11424 0)
(-0.0960625 -0.136761 0)
(-0.0968999 -0.159259 0)
(-0.0968134 -0.183803 0)
(-0.102707 -0.212145 0)
(-0.109247 -0.252378 0)
(-0.125802 -0.30509 0)
(-0.121692 -0.352332 0)
(-0.111645 -0.304767 0)
(-0.0110794 -0.0710672 0)
(-0.000241304 0.115778 0)
(-0.0110245 0.197879 0)
(-0.0221294 0.244459 0)
(-0.0323809 0.267317 0)
(-0.0376041 0.262675 0)
(-0.0404646 0.238386 0)
(-0.0421234 0.20819 0)
(-0.0445875 0.180978 0)
(-0.0479522 0.158788 0)
(-0.0522994 0.139545 0)
(-0.056981 0.12072 0)
(-0.061809 0.10085 0)
(-0.0663103 0.0792934 0)
(-0.0703362 0.056069 0)
(-0.0736213 0.0315122 0)
(-0.0761063 0.006183 0)
(-0.0777426 -0.0192809 0)
(-0.0786437 -0.0442765 0)
(-0.0789967 -0.0684128 0)
(-0.0789716 -0.0916883 0)
(-0.0793174 -0.114087 0)
(-0.0789525 -0.136546 0)
(-0.0806509 -0.158676 0)
(-0.0794129 -0.182465 0)
(-0.0846372 -0.207405 0)
(-0.085626 -0.242072 0)
(-0.102361 -0.29142 0)
(-0.101888 -0.355672 0)
(-0.106587 -0.351718 0)
(-0.0202971 -0.144608 0)
(0.00246533 0.117602 0)
(-0.00171129 0.207091 0)
(-0.00821406 0.252941 0)
(-0.0145987 0.27342 0)
(-0.0179507 0.266276 0)
(-0.020621 0.240444 0)
(-0.0228806 0.210045 0)
(-0.0258617 0.18353 0)
(-0.0293494 0.162209 0)
(-0.0334021 0.14357 0)
(-0.0376006 0.12502 0)
(-0.0418901 0.105127 0)
(-0.0459497 0.0833096 0)
(-0.0496869 0.0596092 0)
(-0.0528828 0.0343962 0)
(-0.0554836 0.00831025 0)
(-0.057429 -0.0179091 0)
(-0.0587534 -0.0435765 0)
(-0.0597367 -0.0681056 0)
(-0.0600287 -0.0916195 0)
(-0.0613249 -0.113775 0)
(-0.0607347 -0.136021 0)
(-0.0638684 -0.157611 0)
(-0.0618068 -0.181374 0)
(-0.0682876 -0.20496 0)
(-0.065207 -0.236589 0)
(-0.0819825 -0.280573 0)
(-0.0805655 -0.351506 0)
(-0.0949809 -0.380523 0)
(-0.0190738 -0.21233 0)
(0.0048296 0.113355 0)
(0.00745706 0.210522 0)
(0.00543387 0.257296 0)
(0.00278066 0.276872 0)
(0.00111994 0.26907 0)
(-0.00114949 0.24319 0)
(-0.00354225 0.213181 0)
(-0.00654049 0.187177 0)
(-0.00969221 0.166257 0)
(-0.0130812 0.147836 0)
(-0.0165006 0.129332 0)
(-0.0200133 0.10931 0)
(-0.0234323 0.0872087 0)
(-0.0267089 0.0630829 0)
(-0.029686 0.0373545 0)
(-0.0323308 0.0107276 0)
(-0.0346405 -0.0159773 0)
(-0.0364257 -0.0421298 0)
(-0.0384575 -0.0668835 0)
(-0.039144 -0.0905804 0)
(-0.0421645 -0.112583 0)
(-0.0415318 -0.134917 0)
(-0.0468986 -0.156065 0)
(-0.0440613 -0.179838 0)
(-0.05277 -0.202182 0)
(-0.0465175 -0.2317 0)
(-0.0637951 -0.270189 0)
(-0.0587118 -0.344126 0)
(-0.080981 -0.401026 0)
(-0.0154983 -0.272441 0)
(0.00659826 0.103501 0)
(0.0160612 0.208269 0)
(0.0185067 0.257561 0)
(0.0192266 0.277757 0)
(0.0192482 0.270567 0)
(0.0174369 0.245264 0)
(0.0149477 0.215459 0)
(0.0120982 0.189454 0)
(0.00958792 0.168515 0)
(0.00726246 0.150161 0)
(0.00507494 0.131779 0)
(0.00280203 0.111869 0)
(0.000465969 0.0898397 0)
(-0.00197775 0.0657278 0)
(-0.00449051 0.03996 0)
(-0.00700251 0.0131939 0)
(-0.00974294 -0.0136477 0)
(-0.0119093 -0.0399976 0)
(-0.015414 -0.0649016 0)
(-0.0164263 -0.0885105 0)
(-0.0218267 -0.110427 0)
(-0.0210511 -0.132455 0)
(-0.0292967 -0.153455 0)
(-0.0256908 -0.177416 0)
(-0.0379455 -0.19973 0)
(-0.0297549 -0.229103 0)
(-0.0491618 -0.262825 0)
(-0.0400151 -0.335132 0)
(-0.0685127 -0.411057 0)
(-0.0106079 -0.322413 0)
(0.00752969 0.0888678 0)
(0.0235997 0.200252 0)
(0.0305363 0.253802 0)
(0.0348512 0.276026 0)
(0.0369284 0.271129 0)
(0.0362123 0.247659 0)
(0.0341818 0.21858 0)
(0.0318127 0.192432 0)
(0.0300884 0.171054 0)
(0.0289062 0.152384 0)
(0.028023 0.133898 0)
(0.0270642 0.114031 0)
(0.0258771 0.0921244 0)
(0.0243389 0.0681547 0)
(0.0223089 0.0425633 0)
(0.0200561 0.0159245 0)
(0.0167855 -0.0107678 0)
(0.0143454 -0.0368686 0)
(0.00916739 -0.0617508 0)
(0.00771693 -0.0848792 0)
(-0.000410012 -0.107163 0)
(0.000296706 -0.128208 0)
(-0.0115231 -0.149882 0)
(-0.00678134 -0.173071 0)
(-0.0234791 -0.195679 0)
(-0.0132781 -0.224543 0)
(-0.0362288 -0.255053 0)
(-0.0232853 -0.326129 0)
(-0.0580561 -0.417139 0)
(-0.00607639 -0.364364 0)
(0.00731973 0.0708888 0)
(0.0293359 0.186455 0)
(0.0410543 0.245625 0)
(0.0490701 0.271402 0)
(0.053519 0.269798 0)
(0.0540238 0.248641 0)
(0.0524649 0.220156 0)
(0.0505146 0.193413 0)
(0.0495413 0.171172 0)
(0.0495634 0.151976 0)
(0.0501708 0.133412 0)
(0.0507986 0.113808 0)
(0.0510519 0.0924059 0)
(0.0507752 0.0690592 0)
(0.0494508 0.0442295 0)
(0.0478276 0.0183636 0)
(0.0440875 -0.00760903 0)
(0.0415097 -0.0329859 0)
(0.0347944 -0.0573955 0)
(0.0326041 -0.0799221 0)
(0.0220868 -0.102153 0)
(0.0225106 -0.122358 0)
(0.0067582 -0.144609 0)
(0.0125469 -0.166845 0)
(-0.00969849 -0.191224 0)
(0.00264883 -0.219266 0)
(-0.0261036 -0.248263 0)
(-0.0096429 -0.315869 0)
(-0.0503745 -0.416494 0)
(-0.00145832 -0.399411 0)
(0.0057336 0.0514953 0)
(0.0324933 0.16689 0)
(0.0493046 0.232882 0)
(0.0618112 0.263515 0)
(0.0693133 0.266653 0)
(0.0719911 0.249249 0)
(0.071752 0.222389 0)
(0.070628 0.195343 0)
(0.0703592 0.171965 0)
(0.0713203 0.151774 0)
(0.0731111 0.132766 0)
(0.0751074 0.113236 0)
(0.0765782 0.0923594 0)
(0.077538 0.0697647 0)
(0.0766883 0.0459044 0)
(0.0758251 0.0210887 0)
(0.0714603 -0.0038162 0)
(0.0690328 -0.0282425 0)
(0.0606333 -0.0516951 0)
(0.0580174 -0.0736637 0)
(0.0449936 -0.0951124 0)
(0.0449029 -0.115142 0)
(0.0258048 -0.137275 0)
(0.0319286 -0.158748 0)
(0.00429876 -0.183858 0)
(0.0191443 -0.210502 0)
(-0.0174435 -0.23962 0)
(0.0030992 -0.304352 0)
(-0.0451262 -0.413026 0)
(0.00270088 -0.429196 0)
(0.00323616 0.0334786 0)
(0.0323444 0.142095 0)
(0.0546679 0.214847 0)
(0.0718014 0.251778 0)
(0.0828757 0.260187 0)
(0.0879935 0.246974 0)
(0.0892886 0.222072 0)
(0.0890831 0.194855 0)
(0.0894601 0.170245 0)
(0.0912167 0.148887 0)
(0.094053 0.129374 0)
(0.097453 0.110003 0)
(0.100102 0.0899226 0)
(0.102624 0.068512 0)
(0.10229 0.0461101 0)
(0.102673 0.0229374 0)
(0.0978086 -0.000332146 0)
(0.0960368 -0.0231656 0)
(0.0860449 -0.045205 0)
(0.0835385 -0.0661085 0)
(0.068048 -0.0865943 0)
(0.0678053 -0.106308 0)
(0.0452948 -0.12777 0)
(0.0514926 -0.149272 0)
(0.0186322 -0.174371 0)
(0.035089 -0.200418 0)
(-0.0103538 -0.229551 0)
(0.0150001 -0.290098 0)
(-0.0424881 -0.403802 0)
(0.00703873 -0.453424 0)
(0.0007664 0.0187875 0)
(0.0287871 0.113252 0)
(0.0563092 0.191685 0)
(0.0787846 0.235665 0)
(0.0942001 0.250724 0)
(0.103278 0.243134 0)
(0.107609 0.221705 0)
(0.109354 0.195345 0)
(0.110707 0.169855 0)
(0.113081 0.147097 0)
(0.116342 0.126671 0)
(0.120672 0.107092 0)
(0.123765 0.0875799 0)
(0.127628 0.0673362 0)
(0.127329 0.0464866 0)
(0.128971 0.0251186 0)
(0.123363 0.00369807 0)
(0.122591 -0.0173404 0)
(0.110944 -0.0378057 0)
(0.109125 -0.0574197 0)
(0.0911216 -0.0768302 0)
(0.0912534 -0.0958805 0)
(0.0653075 -0.116509 0)
(0.0717783 -0.137552 0)
(0.0336064 -0.161676 0)
(0.05142 -0.187128 0)
(-0.00313549 -0.215897 0)
(0.0276567 -0.273895 0)
(-0.0410592 -0.392028 0)
(0.0121581 -0.472887 0)
(-0.000398868 0.0081872 0)
(0.0222574 0.0827037 0)
(0.0537308 0.163364 0)
(0.0804829 0.214535 0)
(0.100569 0.235905 0)
(0.113768 0.233978 0)
(0.121763 0.216544 0)
(0.126341 0.191937 0)
(0.129414 0.166376 0)
(0.132927 0.142706 0)
(0.136594 0.121568 0)
(0.141978 0.101905 0)
(0.145213 0.0830615 0)
(0.150598 0.0641815 0)
(0.150201 0.0451562 0)
(0.153558 0.0259449 0)
(0.147329 0.00676611 0)
(0.148221 -0.0120477 0)
(0.135181 -0.0305365 0)
(0.134883 -0.0483488 0)
(0.114488 -0.0663213 0)
(0.115774 -0.0841213 0)
(0.0861157 -0.103553 0)
(0.0931916 -0.123603 0)
(0.0491285 -0.146635 0)
(0.068138 -0.171269 0)
(0.00378735 -0.199585 0)
(0.0403908 -0.255411 0)
(-0.0401773 -0.376511 0)
(0.0191011 -0.490463 0)
(-0.000245612 0.00161999 0)
(0.0148565 0.0549911 0)
(0.0462847 0.13231 0)
(0.0770799 0.188767 0)
(0.102085 0.217235 0)
(0.121414 0.221659 0)
(0.135056 0.209392 0)
(0.144421 0.187813 0)
(0.15066 0.163391 0)
(0.156446 0.139495 0)
(0.160526 0.117805 0)
(0.166966 0.0979203 0)
(0.169547 0.0794807 0)
(0.176126 0.0617282 0)
(0.174823 0.0443455 0)
(0.179786 0.027216 0)
(0.172385 0.0102171 0)
(0.17516 -0.0063192 0)
(0.160454 -0.0227729 0)
(0.162071 -0.0386211 0)
(0.139089 -0.0549814 0)
(0.141985 -0.0710777 0)
(0.108299 -0.088987 0)
(0.116364 -0.10707 0)
(0.0657278 -0.128288 0)
(0.0861648 -0.15079 0)
(0.0109361 -0.179384 0)
(0.0542795 -0.234695 0)
(-0.0408024 -0.360231 0)
(0.0271149 -0.509917 0)
(7.31223e-05 -0.0022625 0)
(0.00815825 0.0334047 0)
(0.0341472 0.100796 0)
(0.0647585 0.158427 0)
(0.094088 0.190967 0)
(0.118707 0.200911 0)
(0.138695 0.19378 0)
(0.154482 0.176302 0)
(0.165601 0.15457 0)
(0.175818 0.132087 0)
(0.181626 0.111046 0)
(0.190579 0.0917674 0)
(0.192918 0.0741597 0)
(0.20148 0.0577544 0)
(0.199205 0.0420993 0)
(0.206417 0.027117 0)
(0.197725 0.0123832 0)
(0.203115 -0.00170776 0)
(0.18663 -0.0158768 0)
(0.190957 -0.0293804 0)
(0.165238 -0.0435854 0)
(0.17039 -0.0572413 0)
(0.13232 -0.0728584 0)
(0.141714 -0.0879459 0)
(0.084062 -0.106913 0)
(0.105929 -0.126186 0)
(0.0183519 -0.155619 0)
(0.0687395 -0.20934 0)
(-0.0464843 -0.340624 0)
(0.035552 -0.525732 0)
(-0.00105529 -0.00270867 0)
(0.00156694 0.0202791 0)
(0.0179689 0.0756402 0)
(0.046737 0.127395 0)
(0.0790872 0.162567 0)
(0.111197 0.1761 0)
(0.138616 0.173719 0)
(0.162944 0.160696 0)
(0.180543 0.142697 0)
(0.197515 0.122763 0)
(0.206219 0.10353 0)
(0.219407 0.0855784 0)
(0.221651 0.0692925 0)
(0.233045 0.0543293 0)
(0.22912 0.0404562 0)
(0.238936 0.0274761 0)
(0.227862 0.0149931 0)
(0.236087 0.00323527 0)
(0.216547 -0.00851912 0)
(0.223829 -0.0194994 0)
(0.194088 -0.0311773 0)
(0.201876 -0.0419406 0)
(0.158337 -0.0546981 0)
(0.16985 -0.0662088 0)
(0.105121 -0.082432 0)
(0.129445 -0.0975105 0)
(0.030726 -0.127376 0)
(0.0875974 -0.176124 0)
(-0.051135 -0.311894 0)
(0.0486799 -0.523501 0)
(-0.00618132 0.000987784 0)
(-0.0138175 0.0133897 0)
(-0.00546307 0.0565393 0)
(0.0144217 0.0941741 0)
(0.0497574 0.125992 0)
(0.0853274 0.140162 0)
(0.120734 0.141911 0)
(0.154649 0.13417 0)
(0.179291 0.121202 0)
(0.205686 0.105716 0)
(0.218565 0.0902221 0)
(0.239157 0.0752762 0)
(0.242287 0.0616861 0)
(0.259413 0.0490699 0)
(0.254011 0.0376661 0)
(0.268895 0.0269809 0)
(0.254783 0.0170776 0)
(0.268076 0.00774413 0)
(0.244309 -0.00126197 0)
(0.256913 -0.00962681 0)
(0.22172 -0.0183548 0)
(0.235102 -0.0261161 0)
(0.184882 -0.0353511 0)
(0.202197 -0.0431908 0)
(0.130038 -0.0558349 0)
(0.160403 -0.0675092 0)
(0.053809 -0.0971369 0)
(0.116525 -0.14243 0)
(-0.0356534 -0.275692 0)
(0.0755446 -0.507121 0)
(-0.0278421 0.0260903 0)
(-0.0459633 0.0176518 0)
(-0.0354257 0.0499867 0)
(-0.0162444 0.0690138 0)
(0.0211243 0.0955935 0)
(0.0622706 0.101851 0)
(0.103634 0.10619 0)
(0.148116 0.101143 0)
(0.177868 0.0930985 0)
(0.215336 0.0817888 0)
(0.230857 0.0711789 0)
(0.261464 0.0595694 0)
(0.263666 0.050035 0)
(0.289872 0.0400524 0)
(0.280305 0.0323249 0)
(0.304116 0.023965 0)
(0.283272 0.0176841 0)
(0.306222 0.0105741 0)
(0.273613 0.00536789 0)
(0.297273 -0.000725786 0)
(0.251437 -0.00526532 0)
(0.278142 -0.0106254 0)
(0.216103 -0.0154806 0)
(0.249337 -0.0206612 0)
(0.165027 -0.0285158 0)
(0.212241 -0.0383782 0)
(0.0949535 -0.065458 0)
(0.170139 -0.11851 0)
(0.0105504 -0.250931 0)
(0.117691 -0.504708 0)
(0.0154781 0.0732825 0)
(-0.0748469 0.0138199 0)
(-0.0462976 0.0328878 0)
(-0.0583181 0.0325269 0)
(-0.0114856 0.0471626 0)
(0.0248197 0.0517165 0)
(0.0736414 0.0593306 0)
(0.126082 0.0586521 0)
(0.156766 0.0576806 0)
(0.209582 0.0522616 0)
(0.221776 0.0480017 0)
(0.270689 0.0413421 0)
(0.265372 0.0366082 0)
(0.312278 0.0303922 0)
(0.291199 0.0262048 0)
(0.338558 0.0209016 0)
(0.302539 0.0173922 0)
(0.352924 0.0130289 0)
(0.301787 0.010075 0)
(0.357903 0.00661247 0)
(0.290306 0.00394907 0)
(0.355278 0.00119335 0)
(0.268602 -0.00185258 0)
(0.346791 -0.00452984 0)
(0.23615 -0.00931638 0)
(0.330768 -0.0159132 0)
(0.182442 -0.0344101 0)
(0.290061 -0.0889326 0)
(0.0757269 -0.220547 0)
(0.178274 -0.453084 0)
(0.074411 0.0670611 0)
(0.0987534 0.0524682 0)
(0.141989 0.0351101 0)
(0.188763 0.0266982 0)
(0.196487 0.0185818 0)
(0.252558 0.0160155 0)
(0.256894 0.0144841 0)
(0.326772 0.0143108 0)
(0.323873 0.0143037 0)
(0.400907 0.0138018 0)
(0.386735 0.0134824 0)
(0.466054 0.0123398 0)
(0.437555 0.0118917 0)
(0.518946 0.0102851 0)
(0.475169 0.0100268 0)
(0.560405 0.00808031 0)
(0.500684 0.00827734 0)
(0.592304 0.00596592 0)
(0.515669 0.0068147 0)
(0.616541 0.00395302 0)
(0.521432 0.00563802 0)
(0.634749 0.00190701 0)
(0.518917 0.00474787 0)
(0.648237 -0.000414933 0)
(0.507917 0.00388372 0)
(0.654536 -0.00396159 0)
(0.473099 0.000685589 0)
(0.612281 -0.019824 0)
(0.300976 -0.0334946 0)
(0.390816 -0.0961208 0)
)
;

boundaryField
{
    movingWall
    {
        type            fixedValue;
        value           uniform (1 0 0);
    }
    fixedWalls
    {
        type            noSlip;
    }
    frontAndBack
    {
        type            empty;
    }
}


// ************************************************************************* //
