/*--------------------------------*- C++ -*----------------------------------*\
| =========                 |                                                 |
| \\      /  F ield         | OpenFOAM: The Open Source CFD Toolbox           |
|  \\    /   O peration     | Version:  2406                                  |
|   \\  /    A nd           | Website:  www.openfoam.com                      |
|    \\/     M anipulation  |                                                 |
\*---------------------------------------------------------------------------*/
FoamFile
{
    version     2.0;
    format      ascii;
    arch        "LSB;label=32;scalar=64";
    class       volVectorField;
    location    "7.15";
    object      U;
}
// * * * * * * * * * * * * * * * * * * * * * * * * * * * * * * * * * * * * * //

dimensions      [0 1 -1 0 0 0 0];

internalField   nonuniform List<vector> 
14400
(
(3.78907e-06 -3.74663e-06 0)
(6.84713e-06 -1.0404e-06 0)
(-1.38825e-06 3.25868e-06 0)
(-2.24792e-05 7.84367e-06 0)
(-5.56691e-05 1.12152e-05 0)
(-9.77724e-05 1.38903e-05 0)
(-0.000147411 1.56547e-05 0)
(-0.000201889 1.69415e-05 0)
(-0.000260313 1.77225e-05 0)
(-0.000320979 1.82449e-05 0)
(-0.000383411 1.85101e-05 0)
(-0.000446648 1.86516e-05 0)
(-0.000510476 1.86736e-05 0)
(-0.000574397 1.86461e-05 0)
(-0.000638343 1.8571e-05 0)
(-0.000702078 1.84833e-05 0)
(-0.000765603 1.83821e-05 0)
(-0.00082882 1.82837e-05 0)
(-0.000891752 1.81855e-05 0)
(-0.000954366 1.80941e-05 0)
(-0.00101669 1.80062e-05 0)
(-0.0010787 1.79236e-05 0)
(-0.00114043 1.78431e-05 0)
(-0.00120185 1.77644e-05 0)
(-0.00126298 1.76847e-05 0)
(-0.00132379 1.76026e-05 0)
(-0.00138428 1.75157e-05 0)
(-0.00144442 1.74226e-05 0)
(-0.00150419 1.73212e-05 0)
(-0.00156354 1.72098e-05 0)
(-0.00162245 1.70865e-05 0)
(-0.00168086 1.69498e-05 0)
(-0.00173873 1.67978e-05 0)
(-0.001796 1.6629e-05 0)
(-0.00185261 1.64416e-05 0)
(-0.0019085 1.6234e-05 0)
(-0.00196358 1.60043e-05 0)
(-0.00201779 1.5751e-05 0)
(-0.00207103 1.54723e-05 0)
(-0.00212322 1.51665e-05 0)
(-0.00217427 1.48319e-05 0)
(-0.00222408 1.44669e-05 0)
(-0.00227253 1.40699e-05 0)
(-0.00231953 1.36393e-05 0)
(-0.00236495 1.31736e-05 0)
(-0.00240869 1.26715e-05 0)
(-0.0024506 1.21317e-05 0)
(-0.00249058 1.15531e-05 0)
(-0.00252848 1.09348e-05 0)
(-0.00256418 1.0276e-05 0)
(-0.00259754 9.57623e-06 0)
(-0.00262843 8.83522e-06 0)
(-0.00265672 8.05294e-06 0)
(-0.00268226 7.22969e-06 0)
(-0.00270493 6.36607e-06 0)
(-0.00272461 5.46302e-06 0)
(-0.00274115 4.52185e-06 0)
(-0.00275445 3.54422e-06 0)
(-0.00276439 2.53218e-06 0)
(-0.00277086 1.48818e-06 0)
(-0.00277377 4.15037e-07 0)
(-0.00277303 -6.8402e-07 0)
(-0.00276856 -1.8054e-06 0)
(-0.0027603 -2.94513e-06 0)
(-0.00274821 -4.09891e-06 0)
(-0.00273224 -5.26212e-06 0)
(-0.00271237 -6.42984e-06 0)
(-0.00268861 -7.59693e-06 0)
(-0.00266096 -8.75804e-06 0)
(-0.00262946 -9.90766e-06 0)
(-0.00259415 -1.10402e-05 0)
(-0.00255511 -1.21501e-05 0)
(-0.00251242 -1.32316e-05 0)
(-0.00246617 -1.42793e-05 0)
(-0.00241649 -1.52879e-05 0)
(-0.00236353 -1.62523e-05 0)
(-0.00230742 -1.71675e-05 0)
(-0.00224833 -1.8029e-05 0)
(-0.00218646 -1.88329e-05 0)
(-0.00212198 -1.95755e-05 0)
(-0.00205511 -2.02535e-05 0)
(-0.00198606 -2.08645e-05 0)
(-0.00191505 -2.14062e-05 0)
(-0.00184231 -2.18772e-05 0)
(-0.00176807 -2.22765e-05 0)
(-0.00169255 -2.26037e-05 0)
(-0.001616 -2.2859e-05 0)
(-0.00153866 -2.30428e-05 0)
(-0.00146074 -2.31563e-05 0)
(-0.00138248 -2.32007e-05 0)
(-0.00130409 -2.31778e-05 0)
(-0.00122581 -2.30894e-05 0)
(-0.00114784 -2.29373e-05 0)
(-0.00107039 -2.27234e-05 0)
(-0.000993665 -2.24493e-05 0)
(-0.00091786 -2.21164e-05 0)
(-0.000843174 -2.17256e-05 0)
(-0.000769804 -2.1277e-05 0)
(-0.000697945 -2.07703e-05 0)
(-0.000627803 -2.02039e-05 0)
(-0.000559585 -1.95756e-05 0)
(-0.000493513 -1.88817e-05 0)
(-0.000429822 -1.81179e-05 0)
(-0.000368766 -1.72777e-05 0)
(-0.000310622 -1.63548e-05 0)
(-0.00025569 -1.534e-05 0)
(-0.000204301 -1.42254e-05 0)
(-0.00015681 -1.29997e-05 0)
(-0.000113615 -1.1655e-05 0)
(-7.51132e-05 -1.01795e-05 0)
(-4.17659e-05 -8.56916e-06 0)
(-1.39629e-05 -6.81562e-06 0)
(7.7974e-06 -4.92814e-06 0)
(2.32828e-05 -2.91572e-06 0)
(3.20505e-05 -8.30293e-07 0)
(3.44303e-05 1.24188e-06 0)
(3.03547e-05 3.08506e-06 0)
(2.18456e-05 4.28921e-06 0)
(1.02478e-05 4.13734e-06 0)
(1.72798e-06 1.75303e-06 0)
(1.15462e-06 -6.89928e-06 0)
(-1.08714e-05 1.0909e-05 0)
(-4.96249e-05 3.45393e-05 0)
(-0.000115279 5.94241e-05 0)
(-0.000208005 7.97801e-05 0)
(-0.000321928 9.66115e-05 0)
(-0.000454415 0.000109031 0)
(-0.000600012 0.000118406 0)
(-0.000756308 0.000124865 0)
(-0.000919561 0.000129376 0)
(-0.00108816 0.000132202 0)
(-0.00125986 0.00013394 0)
(-0.00143374 0.000134798 0)
(-0.00160857 0.000135116 0)
(-0.0017839 0.000135023 0)
(-0.0019591 0.0001347 0)
(-0.00213398 0.000134213 0)
(-0.00230827 0.00013365 0)
(-0.00248188 0.000133036 0)
(-0.00265472 0.000132408 0)
(-0.00282675 0.000131768 0)
(-0.00299793 0.000131128 0)
(-0.00316824 0.000130478 0)
(-0.00333764 0.000129816 0)
(-0.0035061 0.00012913 0)
(-0.00367357 0.000128411 0)
(-0.00383998 0.000127647 0)
(-0.00400526 0.000126828 0)
(-0.00416933 0.00012594 0)
(-0.00433209 0.000124973 0)
(-0.00449341 0.000123915 0)
(-0.00465317 0.000122755 0)
(-0.00481122 0.000121481 0)
(-0.00496742 0.000120083 0)
(-0.00512158 0.000118548 0)
(-0.00527352 0.000116866 0)
(-0.00542305 0.000115025 0)
(-0.00556995 0.000113014 0)
(-0.005714 0.000110823 0)
(-0.00585495 0.000108439 0)
(-0.00599256 0.000105853 0)
(-0.00612656 0.000103053 0)
(-0.00625667 0.00010003 0)
(-0.00638261 9.67745e-05 0)
(-0.00650407 9.32766e-05 0)
(-0.00662075 8.95285e-05 0)
(-0.00673232 8.55229e-05 0)
(-0.00683846 8.12534e-05 0)
(-0.00693884 7.6715e-05 0)
(-0.00703313 7.19039e-05 0)
(-0.00712097 6.68179e-05 0)
(-0.00720204 6.14564e-05 0)
(-0.007276 5.58208e-05 0)
(-0.0073425 4.99143e-05 0)
(-0.00740123 4.37423e-05 0)
(-0.00745186 3.73122e-05 0)
(-0.00749409 3.0634e-05 0)
(-0.00752762 2.372e-05 0)
(-0.00755218 1.65849e-05 0)
(-0.00756751 9.24588e-06 0)
(-0.00757338 1.72265e-06 0)
(-0.00756959 -5.9627e-06 0)
(-0.00755597 -1.37857e-05 0)
(-0.00753236 -2.17196e-05 0)
(-0.00749866 -2.97355e-05 0)
(-0.0074548 -3.78028e-05 0)
(-0.00740075 -4.5889e-05 0)
(-0.0073365 -5.39603e-05 0)
(-0.00726212 -6.19816e-05 0)
(-0.00717769 -6.99171e-05 0)
(-0.00708335 -7.77305e-05 0)
(-0.00697928 -8.53855e-05 0)
(-0.0068657 -9.2846e-05 0)
(-0.00674288 -0.000100077 0)
(-0.00661113 -0.000107043 0)
(-0.00647079 -0.000113713 0)
(-0.00632226 -0.000120055 0)
(-0.00616596 -0.00012604 0)
(-0.00600235 -0.000131642 0)
(-0.00583189 -0.000136839 0)
(-0.00565512 -0.00014161 0)
(-0.00547256 -0.000145938 0)
(-0.00528477 -0.000149809 0)
(-0.0050923 -0.000153215 0)
(-0.00489573 -0.000156147 0)
(-0.00469565 -0.000158603 0)
(-0.00449264 -0.000160583 0)
(-0.00428728 -0.000162089 0)
(-0.00408014 -0.000163127 0)
(-0.00387181 -0.000163705 0)
(-0.00366283 -0.000163831 0)
(-0.00345377 -0.000163514 0)
(-0.00324517 -0.000162765 0)
(-0.00303756 -0.000161593 0)
(-0.00283145 -0.000160005 0)
(-0.00262738 -0.000158006 0)
(-0.00242586 -0.000155599 0)
(-0.0022274 -0.00015278 0)
(-0.00203254 -0.000149543 0)
(-0.00184182 -0.000145872 0)
(-0.00165581 -0.000141748 0)
(-0.00147512 -0.000137143 0)
(-0.00130038 -0.000132021 0)
(-0.00113231 -0.000126339 0)
(-0.000971641 -0.000120049 0)
(-0.000819209 -0.000113092 0)
(-0.000675904 -0.000105416 0)
(-0.000542685 -9.69536e-05 0)
(-0.000420588 -8.76633e-05 0)
(-0.00031067 -7.74918e-05 0)
(-0.000214058 -6.64437e-05 0)
(-0.000131761 -5.45197e-05 0)
(-6.48369e-05 -4.18543e-05 0)
(-1.38649e-05 -2.85988e-05 0)
(2.05416e-05 -1.52101e-05 0)
(3.9108e-05 -2.24788e-06 0)
(4.24571e-05 9.01761e-06 0)
(3.44604e-05 1.6934e-05 0)
(1.83067e-05 1.84327e-05 0)
(4.03337e-06 1.01957e-05 0)
(-3.25413e-06 1.40887e-06 0)
(-3.53999e-05 5.00198e-05 0)
(-0.000109784 0.000108083 0)
(-0.000220962 0.000167333 0)
(-0.000370184 0.000217751 0)
(-0.000548916 0.000259936 0)
(-0.000754286 0.000292365 0)
(-0.000978919 0.000317211 0)
(-0.00121961 0.000335065 0)
(-0.0014712 0.000347779 0)
(-0.00173129 0.00035621 0)
(-0.00199669 0.000361616 0)
(-0.00226588 0.000364658 0)
(-0.00253705 0.000366101 0)
(-0.00280936 0.000366364 0)
(-0.00308185 0.000365872 0)
(-0.0033541 0.000364853 0)
(-0.00362564 0.000363523 0)
(-0.00389627 0.000361985 0)
(-0.00416577 0.000360331 0)
(-0.00443404 0.000358594 0)
(-0.00470097 0.000356799 0)
(-0.00496648 0.000354941 0)
(-0.00523048 0.000353013 0)
(-0.0054929 0.000350993 0)
(-0.00575362 0.00034886 0)
(-0.00601253 0.000346585 0)
(-0.00626951 0.000344141 0)
(-0.0065244 0.000341499 0)
(-0.00677702 0.00033863 0)
(-0.0070272 0.000335505 0)
(-0.00727472 0.000332094 0)
(-0.00751935 0.00032837 0)
(-0.00776084 0.000324302 0)
(-0.00799892 0.000319862 0)
(-0.0082333 0.000315021 0)
(-0.00846368 0.00030975 0)
(-0.00868971 0.000304021 0)
(-0.00891106 0.000297807 0)
(-0.00912736 0.000291078 0)
(-0.00933822 0.000283809 0)
(-0.00954324 0.000275972 0)
(-0.00974199 0.000267544 0)
(-0.00993404 0.000258501 0)
(-0.0101189 0.00024882 0)
(-0.0102962 0.000238483 0)
(-0.0104654 0.000227472 0)
(-0.0106261 0.000215773 0)
(-0.0107776 0.000203374 0)
(-0.0109197 0.000190269 0)
(-0.0110516 0.000176453 0)
(-0.011173 0.000161928 0)
(-0.0112834 0.000146699 0)
(-0.0113822 0.000130777 0)
(-0.011469 0.000114178 0)
(-0.0115434 9.69236e-05 0)
(-0.0116048 7.90418e-05 0)
(-0.011653 6.05662e-05 0)
(-0.0116875 4.15366e-05 0)
(-0.0117079 2.19992e-05 0)
(-0.0117139 2.00604e-06 0)
(-0.0117053 -1.83845e-05 0)
(-0.0116818 -3.91084e-05 0)
(-0.0116433 -6.00961e-05 0)
(-0.0115895 -8.1273e-05 0)
(-0.0115205 -0.00010256 0)
(-0.0114361 -0.000123873 0)
(-0.0113365 -0.000145127 0)
(-0.0112216 -0.000166232 0)
(-0.0110918 -0.000187097 0)
(-0.0109471 -0.000207629 0)
(-0.0107879 -0.000227738 0)
(-0.0106145 -0.000247333 0)
(-0.0104274 -0.000266324 0)
(-0.0102269 -0.000284625 0)
(-0.0100136 -0.000302155 0)
(-0.00978812 -0.000318836 0)
(-0.00955102 -0.000334597 0)
(-0.00930298 -0.000349372 0)
(-0.00904472 -0.000363104 0)
(-0.00877698 -0.000375743 0)
(-0.00850053 -0.000387247 0)
(-0.00821618 -0.000397582 0)
(-0.00792475 -0.000406722 0)
(-0.00762707 -0.000414652 0)
(-0.00732398 -0.000421364 0)
(-0.00701632 -0.000426855 0)
(-0.00670495 -0.000431133 0)
(-0.00639069 -0.000434209 0)
(-0.00607438 -0.0004361 0)
(-0.00575684 -0.000436827 0)
(-0.00543887 -0.000436411 0)
(-0.00512126 -0.000434874 0)
(-0.0048048 -0.000432235 0)
(-0.00449026 -0.000428509 0)
(-0.0041784 -0.000423705 0)
(-0.00387 -0.000417822 0)
(-0.00356584 -0.000410847 0)
(-0.0032667 -0.000402755 0)
(-0.00297343 -0.000393502 0)
(-0.00268688 -0.000383032 0)
(-0.00240798 -0.000371263 0)
(-0.0021377 -0.000358101 0)
(-0.00187712 -0.000343428 0)
(-0.00162738 -0.000327116 0)
(-0.00138973 -0.000309017 0)
(-0.00116553 -0.000288989 0)
(-0.000956212 -0.000266879 0)
(-0.00076332 -0.000242582 0)
(-0.000588429 -0.000215995 0)
(-0.000433147 -0.000187155 0)
(-0.000298958 -0.000156128 0)
(-0.000187261 -0.000123308 0)
(-9.89194e-05 -8.9177e-05 0)
(-3.45352e-05 -5.4942e-05 0)
(6.72506e-06 -2.20187e-05 0)
(2.60825e-05 6.62179e-06 0)
(2.80347e-05 2.76352e-05 0)
(1.69912e-05 3.46927e-05 0)
(4.14946e-06 2.16648e-05 0)
(-8.15479e-06 2.3289e-05 0)
(-6.23865e-05 0.000117783 0)
(-0.000174135 0.00022058 0)
(-0.00033028 0.000321644 0)
(-0.00053289 0.000408637 0)
(-0.000770519 0.000481813 0)
(-0.00104066 0.000539288 0)
(-0.00133441 0.000583892 0)
(-0.00164837 0.000616737 0)
(-0.00197631 0.00064055 0)
(-0.00231544 0.000656855 0)
(-0.0026618 0.000667638 0)
(-0.0030135 0.000674104 0)
(-0.0033682 0.00067752 0)
(-0.00372478 0.00067867 0)
(-0.00408195 0.000678288 0)
(-0.00443907 0.000676818 0)
(-0.00479548 0.000674644 0)
(-0.00515085 0.000671981 0)
(-0.00550483 0.000669002 0)
(-0.00585722 0.000665787 0)
(-0.00620783 0.000662388 0)
(-0.00655652 0.000658812 0)
(-0.00690312 0.000655053 0)
(-0.00724751 0.000651079 0)
(-0.0075895 0.000646856 0)
(-0.00792894 0.000642339 0)
(-0.00826562 0.000637483 0)
(-0.00859932 0.000632237 0)
(-0.00892982 0.00062655 0)
(-0.00925685 0.000620373 0)
(-0.00958012 0.000613653 0)
(-0.00989932 0.00060634 0)
(-0.0102141 0.000598383 0)
(-0.0105241 0.000589731 0)
(-0.010829 0.000580333 0)
(-0.0111283 0.000570138 0)
(-0.0114217 0.000559097 0)
(-0.0117086 0.000547162 0)
(-0.0119886 0.000534283 0)
(-0.0122611 0.000520414 0)
(-0.0125257 0.000505511 0)
(-0.0127819 0.000489531 0)
(-0.013029 0.000472434 0)
(-0.0132664 0.000454185 0)
(-0.0134937 0.00043475 0)
(-0.0137102 0.000414103 0)
(-0.0139153 0.000392221 0)
(-0.0141083 0.000369087 0)
(-0.0142887 0.000344693 0)
(-0.0144558 0.000319034 0)
(-0.0146091 0.000292116 0)
(-0.0147478 0.000263954 0)
(-0.0148715 0.000234571 0)
(-0.0149796 0.000203998 0)
(-0.0150714 0.000172278 0)
(-0.0151465 0.000139464 0)
(-0.0152043 0.00010562 0)
(-0.0152445 7.082e-05 0)
(-0.0152665 3.51482e-05 0)
(-0.0152701 -1.29959e-06 0)
(-0.0152549 -3.84176e-05 0)
(-0.0152206 -7.60904e-05 0)
(-0.015167 -0.000114193 0)
(-0.0150941 -0.000152592 0)
(-0.0150017 -0.000191146 0)
(-0.0148898 -0.000229708 0)
(-0.0147585 -0.000268125 0)
(-0.014608 -0.00030624 0)
(-0.0144385 -0.000343892 0)
(-0.0142502 -0.000380922 0)
(-0.0140436 -0.000417168 0)
(-0.0138191 -0.000452473 0)
(-0.0135772 -0.000486682 0)
(-0.0133185 -0.000519647 0)
(-0.0130437 -0.000551224 0)
(-0.0127535 -0.000581282 0)
(-0.0124487 -0.000609696 0)
(-0.0121302 -0.000636355 0)
(-0.0117987 -0.000661161 0)
(-0.0114553 -0.000684026 0)
(-0.0111009 -0.000704879 0)
(-0.0107365 -0.000723663 0)
(-0.010363 -0.000740336 0)
(-0.00998165 -0.000754868 0)
(-0.00959333 -0.000767246 0)
(-0.00919913 -0.000777469 0)
(-0.00880008 -0.000785545 0)
(-0.00839721 -0.000791495 0)
(-0.00799155 -0.000795347 0)
(-0.00758411 -0.000797133 0)
(-0.00717588 -0.000796887 0)
(-0.00676784 -0.000794645 0)
(-0.00636098 -0.000790435 0)
(-0.00595624 -0.000784278 0)
(-0.00555459 -0.000776181 0)
(-0.00515701 -0.000766137 0)
(-0.00476447 -0.000754116 0)
(-0.00437797 -0.000740065 0)
(-0.00399858 -0.000723899 0)
(-0.0036274 -0.000705508 0)
(-0.00326559 -0.000684743 0)
(-0.00291441 -0.000661429 0)
(-0.00257522 -0.000635351 0)
(-0.00224949 -0.000606281 0)
(-0.00193879 -0.000573957 0)
(-0.00164484 -0.000538134 0)
(-0.00136945 -0.000498556 0)
(-0.00111451 -0.000455055 0)
(-0.000882009 -0.000407491 0)
(-0.000673855 -0.000355964 0)
(-0.00049188 -0.000300669 0)
(-0.000337655 -0.000242338 0)
(-0.000212269 -0.000181911 0)
(-0.00011622 -0.000121456 0)
(-4.8773e-05 -6.3394e-05 0)
(-8.24544e-06 -1.24256e-05 0)
(9.61582e-06 2.63701e-05 0)
(9.98504e-06 4.35578e-05 0)
(3.01149e-06 3.02091e-05 0)
(-1.21285e-05 5.87138e-05 0)
(-8.63998e-05 0.000215932 0)
(-0.000233361 0.000375382 0)
(-0.000431905 0.000526863 0)
(-0.000684416 0.000657493 0)
(-0.00097611 0.00076743 0)
(-0.00130484 0.000854909 0)
(-0.0016602 0.00092339 0)
(-0.00203884 0.000974668 0)
(-0.00243369 0.00101234 0)
(-0.00284179 0.00103871 0)
(-0.00325862 0.00105653 0)
(-0.00368204 0.00106765 0)
(-0.00410934 0.00107389 0)
(-0.00453918 0.00107648 0)
(-0.00496998 0.0010765 0)
(-0.00540096 0.00107467 0)
(-0.00583126 0.00107158 0)
(-0.00626043 0.00106759 0)
(-0.00668799 0.00106297 0)
(-0.00711367 0.00105787 0)
(-0.00753717 0.00105238 0)
(-0.00795827 0.00104653 0)
(-0.00837675 0.00104032 0)
(-0.0087924 0.0010337 0)
(-0.00920498 0.00102664 0)
(-0.00961428 0.00101906 0)
(-0.01002 0.00101091 0)
(-0.0104219 0.0010021 0)
(-0.0108197 0.00099257 0)
(-0.011213 0.000982235 0)
(-0.0116014 0.00097102 0)
(-0.0119847 0.000958847 0)
(-0.0123623 0.000945639 0)
(-0.0127338 0.000931318 0)
(-0.0130988 0.000915809 0)
(-0.0134568 0.000899033 0)
(-0.0138072 0.000880918 0)
(-0.0141495 0.000861388 0)
(-0.0144831 0.000840373 0)
(-0.0148075 0.000817803 0)
(-0.0151219 0.000793611 0)
(-0.0154258 0.000767736 0)
(-0.0157186 0.000740121 0)
(-0.0159994 0.000710712 0)
(-0.0162677 0.000679465 0)
(-0.0165227 0.000646342 0)
(-0.0167638 0.000611312 0)
(-0.0169901 0.000574355 0)
(-0.0172011 0.000535462 0)
(-0.017396 0.000494634 0)
(-0.017574 0.000451885 0)
(-0.0177345 0.00040724 0)
(-0.0178769 0.000360742 0)
(-0.0180004 0.000312444 0)
(-0.0181044 0.000262419 0)
(-0.0181885 0.000210752 0)
(-0.0182519 0.000157545 0)
(-0.0182943 0.000102917 0)
(-0.0183151 4.70018e-05 0)
(-0.018314 -1.00505e-05 0)
(-0.0182906 -6.80748e-05 0)
(-0.0182447 -0.000126891 0)
(-0.0181761 -0.000186307 0)
(-0.0180846 -0.000246117 0)
(-0.0179702 -0.000306103 0)
(-0.017833 -0.000366041 0)
(-0.017673 -0.000425698 0)
(-0.0174905 -0.000484834 0)
(-0.0172857 -0.000543208 0)
(-0.0170591 -0.000600576 0)
(-0.0168111 -0.000656697 0)
(-0.0165423 -0.000711333 0)
(-0.0162532 -0.000764253 0)
(-0.0159447 -0.000815234 0)
(-0.0156174 -0.000864063 0)
(-0.0152722 -0.000910543 0)
(-0.0149101 -0.00095449 0)
(-0.014532 -0.00099574 0)
(-0.014139 -0.00103414 0)
(-0.013732 -0.00106958 0)
(-0.0133124 -0.00110193 0)
(-0.012881 -0.00113113 0)
(-0.0124393 -0.0011571 0)
(-0.0119882 -0.00117981 0)
(-0.011529 -0.00119924 0)
(-0.011063 -0.00121537 0)
(-0.0105912 -0.00122824 0)
(-0.0101149 -0.00123787 0)
(-0.00963525 -0.00124429 0)
(-0.00915337 -0.00124756 0)
(-0.00867041 -0.00124772 0)
(-0.00818752 -0.00124483 0)
(-0.00770579 -0.00123891 0)
(-0.00722635 -0.00123 0)
(-0.00675029 -0.00121809 0)
(-0.00627873 -0.00120318 0)
(-0.00581282 -0.0011852 0)
(-0.00535372 -0.00116406 0)
(-0.00490266 -0.00113963 0)
(-0.00446091 -0.00111173 0)
(-0.00402986 -0.00108013 0)
(-0.00361095 -0.00104455 0)
(-0.00320577 -0.00100465 0)
(-0.00281602 -0.0009601 0)
(-0.00244353 -0.000910494 0)
(-0.00209027 -0.000855469 0)
(-0.00175834 -0.000794658 0)
(-0.00144988 -0.000727828 0)
(-0.00116714 -0.000654819 0)
(-0.000912257 -0.000575816 0)
(-0.000687321 -0.0004912 0)
(-0.000493992 -0.000402106 0)
(-0.000333597 -0.000310032 0)
(-0.000206531 -0.000217989 0)
(-0.000112377 -0.000129523 0)
(-4.9122e-05 -5.1054e-05 0)
(-1.32785e-05 1.05402e-05 0)
(8.85552e-07 4.30844e-05 0)
(1.44598e-06 3.50016e-05 0)
(-1.56185e-05 0.000105273 0)
(-0.000108153 0.000340311 0)
(-0.000287472 0.000566433 0)
(-0.000525113 0.000774735 0)
(-0.000823424 0.000953525 0)
(-0.00116425 0.00110353 0)
(-0.0015457 0.00122373 0)
(-0.00195591 0.00131834 0)
(-0.0023917 0.00139001 0)
(-0.00284526 0.0014432 0)
(-0.00331362 0.00148103 0)
(-0.00379181 0.00150704 0)
(-0.00427761 0.00152371 0)
(-0.00476796 0.00153345 0)
(-0.0052614 0.00153794 0)
(-0.00575613 0.00153866 0)
(-0.00625125 0.00153661 0)
(-0.00674573 0.00153261 0)
(-0.00723901 0.00152717 0)
(-0.00773049 0.00152069 0)
(-0.00821982 0.0015134 0)
(-0.0087066 0.00150542 0)
(-0.00919056 0.00149683 0)
(-0.00967137 0.00148763 0)
(-0.0101488 0.00147777 0)
(-0.0106225 0.0014672 0)
(-0.0110922 0.00145584 0)
(-0.0115576 0.0014436 0)
(-0.0120183 0.00143039 0)
(-0.012474 0.0014161 0)
(-0.0129243 0.00140063 0)
(-0.0133686 0.00138387 0)
(-0.0138067 0.00136572 0)
(-0.014238 0.00134607 0)
(-0.0146619 0.00132482 0)
(-0.015078 0.00130186 0)
(-0.0154857 0.00127709 0)
(-0.0158843 0.0012504 0)
(-0.0162732 0.0012217 0)
(-0.0166518 0.00119089 0)
(-0.0170195 0.00115788 0)
(-0.0173754 0.00112257 0)
(-0.0177189 0.00108489 0)
(-0.0180492 0.00104476 0)
(-0.0183656 0.00100211 0)
(-0.0186672 0.000956885 0)
(-0.0189534 0.000909041 0)
(-0.0192233 0.000858541 0)
(-0.0194761 0.000805363 0)
(-0.0197111 0.0007495 0)
(-0.0199274 0.000690961 0)
(-0.0201244 0.000629773 0)
(-0.0203011 0.000565979 0)
(-0.020457 0.000499645 0)
(-0.0205912 0.000430854 0)
(-0.0207033 0.000359711 0)
(-0.0207924 0.000286344 0)
(-0.0208581 0.000210899 0)
(-0.0208997 0.000133548 0)
(-0.020917 5.44819e-05 0)
(-0.0209094 -2.60863e-05 0)
(-0.0208766 -0.000107924 0)
(-0.0208184 -0.000190778 0)
(-0.0207345 -0.000274378 0)
(-0.020625 -0.000358439 0)
(-0.0204897 -0.00044266 0)
(-0.0203288 -0.000526729 0)
(-0.0201425 -0.000610324 0)
(-0.0199309 -0.000693116 0)
(-0.0196946 -0.000774775 0)
(-0.0194338 -0.000854967 0)
(-0.0191493 -0.000933363 0)
(-0.0188415 -0.00100964 0)
(-0.0185114 -0.00108348 0)
(-0.0181595 -0.00115459 0)
(-0.017787 -0.00122268 0)
(-0.0173946 -0.00128747 0)
(-0.0169835 -0.00134874 0)
(-0.0165547 -0.00140624 0)
(-0.0161094 -0.0014598 0)
(-0.0156488 -0.00150923 0)
(-0.015174 -0.0015544 0)
(-0.0146865 -0.0015952 0)
(-0.0141874 -0.00163155 0)
(-0.0136781 -0.00166339 0)
(-0.0131598 -0.00169071 0)
(-0.0126339 -0.00171349 0)
(-0.0121017 -0.00173176 0)
(-0.0115644 -0.00174556 0)
(-0.0110235 -0.00175494 0)
(-0.01048 -0.00175997 0)
(-0.0099353 -0.00176071 0)
(-0.00939062 -0.00175722 0)
(-0.00884716 -0.00174955 0)
(-0.00830614 -0.00173772 0)
(-0.00776879 -0.00172173 0)
(-0.00723634 -0.00170156 0)
(-0.00671003 -0.0016771 0)
(-0.00619116 -0.00164823 0)
(-0.00568109 -0.00161476 0)
(-0.00518122 -0.00157643 0)
(-0.00469307 -0.0015329 0)
(-0.00421825 -0.0014838 0)
(-0.00375851 -0.00142868 0)
(-0.0033157 -0.00136703 0)
(-0.00289185 -0.00129835 0)
(-0.00248908 -0.00122213 0)
(-0.00210969 -0.0011379 0)
(-0.001756 -0.00104537 0)
(-0.00143044 -0.000944366 0)
(-0.00113527 -0.000835184 0)
(-0.000872782 -0.00071842 0)
(-0.000644655 -0.000595621 0)
(-0.000452461 -0.000468886 0)
(-0.000296499 -0.000342117 0)
(-0.000176799 -0.000219983 0)
(-9.11265e-05 -0.00011041 0)
(-3.70772e-05 -2.19798e-05 0)
(-8.57147e-06 3.0997e-05 0)
(-1.30536e-07 3.46935e-05 0)
(-1.83889e-05 0.000162156 0)
(-0.000126606 0.000489583 0)
(-0.000334544 0.000792625 0)
(-0.000607296 0.00106479 0)
(-0.000947 0.00129677 0)
(-0.00133222 0.00149046 0)
(-0.00176112 0.00164616 0)
(-0.00222039 0.00176909 0)
(-0.00270695 0.00186295 0)
(-0.00321234 0.00193311 0)
(-0.00373364 0.00198361 0)
(-0.00426551 0.00201874 0)
(-0.0048057 0.00204171 0)
(-0.00535092 0.0020555 0)
(-0.00589962 0.00206228 0)
(-0.00644985 0.00206393 0)
(-0.00700061 0.00206174 0)
(-0.00755073 0.00205679 0)
(-0.00809958 0.00204977 0)
(-0.00864646 0.00204119 0)
(-0.00919093 0.00203137 0)
(-0.00973251 0.00202052 0)
(-0.0102709 0.00200871 0)
(-0.0108056 0.00199597 0)
(-0.0113364 0.00198226 0)
(-0.0118629 0.00196751 0)
(-0.0123847 0.00195163 0)
(-0.0129015 0.00193451 0)
(-0.0134128 0.00191602 0)
(-0.0139182 0.00189604 0)
(-0.0144173 0.00187443 0)
(-0.0149096 0.00185106 0)
(-0.0153945 0.0018258 0)
(-0.0158715 0.0017985 0)
(-0.01634 0.00176903 0)
(-0.0167994 0.00173726 0)
(-0.017249 0.00170305 0)
(-0.0176883 0.00166628 0)
(-0.0181164 0.00162681 0)
(-0.0185327 0.00158452 0)
(-0.0189364 0.00153929 0)
(-0.0193267 0.00149102 0)
(-0.0197029 0.0014396 0)
(-0.0200641 0.00138494 0)
(-0.0204095 0.00132696 0)
(-0.0207383 0.00126559 0)
(-0.0210495 0.00120077 0)
(-0.0213424 0.00113247 0)
(-0.0216161 0.00106066 0)
(-0.0218697 0.000985355 0)
(-0.0221025 0.000906565 0)
(-0.0223136 0.000824336 0)
(-0.0225021 0.000738736 0)
(-0.0226674 0.000649856 0)
(-0.0228087 0.000557817 0)
(-0.0229253 0.000462763 0)
(-0.0230166 0.00036487 0)
(-0.0230819 0.000264339 0)
(-0.0231207 0.000161399 0)
(-0.0231327 5.63079e-05 0)
(-0.0231172 -5.06504e-05 0)
(-0.0230742 -0.000159166 0)
(-0.0230032 -0.000268907 0)
(-0.0229043 -0.000379515 0)
(-0.0227772 -0.000490617 0)
(-0.0226221 -0.000601818 0)
(-0.022439 -0.000712711 0)
(-0.0222283 -0.000822879 0)
(-0.0219902 -0.000931895 0)
(-0.0217251 -0.00103933 0)
(-0.0214337 -0.00114476 0)
(-0.0211165 -0.00124775 0)
(-0.0207743 -0.00134789 0)
(-0.0204078 -0.00144478 0)
(-0.020018 -0.00153803 0)
(-0.0196059 -0.00162729 0)
(-0.0191725 -0.00171219 0)
(-0.0187189 -0.00179245 0)
(-0.0182464 -0.00186777 0)
(-0.0177563 -0.00193791 0)
(-0.0172497 -0.00200265 0)
(-0.0167281 -0.00206183 0)
(-0.0161927 -0.0021153 0)
(-0.0156451 -0.00216297 0)
(-0.0150866 -0.00220477 0)
(-0.0145186 -0.00224068 0)
(-0.0139424 -0.00227069 0)
(-0.0133597 -0.00229484 0)
(-0.0127716 -0.00231317 0)
(-0.0121795 -0.00232577 0)
(-0.0115849 -0.0023327 0)
(-0.0109891 -0.00233405 0)
(-0.0103933 -0.0023299 0)
(-0.00979895 -0.00232029 0)
(-0.00920725 -0.00230526 0)
(-0.00861953 -0.00228481 0)
(-0.00803712 -0.00225887 0)
(-0.00746133 -0.00222733 0)
(-0.00689357 -0.00219001 0)
(-0.00633525 -0.00214665 0)
(-0.0057879 -0.00209691 0)
(-0.00525313 -0.00204035 0)
(-0.00473263 -0.00197648 0)
(-0.00422828 -0.00190472 0)
(-0.00374204 -0.00182442 0)
(-0.00327605 -0.00173494 0)
(-0.00283254 -0.00163564 0)
(-0.00241395 -0.00152594 0)
(-0.00202267 -0.00140548 0)
(-0.00166129 -0.00127412 0)
(-0.00133211 -0.00113224 0)
(-0.0010376 -0.000980693 0)
(-0.000779439 -0.000821427 0)
(-0.000559448 -0.000657159 0)
(-0.000377875 -0.000492633 0)
(-0.000235255 -0.00033363 0)
(-0.000129243 -0.000189388 0)
(-5.85856e-05 -7.01045e-05 0)
(-1.69982e-05 8.30377e-06 0)
(-1.47416e-06 3.00498e-05 0)
(-2.07838e-05 0.000227167 0)
(-0.000142711 0.000659468 0)
(-0.000375833 0.00104828 0)
(-0.000679802 0.00139025 0)
(-0.00105646 0.00167937 0)
(-0.00148137 0.00191935 0)
(-0.00195263 0.00211238 0)
(-0.00245552 0.00226492 0)
(-0.00298704 0.00238196 0)
(-0.00353811 0.00246991 0)
(-0.00410588 0.00253374 0)
(-0.00468468 0.00257856 0)
(-0.00527229 0.00260827 0)
(-0.00586523 0.00262646 0)
(-0.00646193 0.00263578 0)
(-0.00706029 0.0026385 0)
(-0.00765925 0.00263624 0)
(-0.00825756 0.0026303 0)
(-0.00885451 0.00262157 0)
(-0.00944931 0.00261069 0)
(-0.0100415 0.00259808 0)
(-0.0106304 0.00258399 0)
(-0.0112157 0.00256855 0)
(-0.011797 0.0025518 0)
(-0.0123738 0.00253369 0)
(-0.0129458 0.00251417 0)
(-0.0135125 0.00249311 0)
(-0.0140734 0.00247039 0)
(-0.0146282 0.00244585 0)
(-0.0151763 0.00241935 0)
(-0.0157172 0.00239071 0)
(-0.0162503 0.00235979 0)
(-0.0167751 0.0023264 0)
(-0.017291 0.00229038 0)
(-0.0177974 0.00225157 0)
(-0.0182935 0.00220979 0)
(-0.0187786 0.00216489 0)
(-0.0192521 0.00211671 0)
(-0.0197131 0.00206509 0)
(-0.0201609 0.00200988 0)
(-0.0205946 0.00195094 0)
(-0.0210135 0.00188814 0)
(-0.0214167 0.00182135 0)
(-0.0218032 0.00175047 0)
(-0.0221722 0.00167541 0)
(-0.0225229 0.00159609 0)
(-0.0228542 0.00151244 0)
(-0.0231654 0.00142443 0)
(-0.0234554 0.00133204 0)
(-0.0237235 0.00123529 0)
(-0.0239687 0.00113421 0)
(-0.0241901 0.00102887 0)
(-0.024387 0.000919351 0)
(-0.0245586 0.000805793 0)
(-0.024704 0.000688352 0)
(-0.0248226 0.00056722 0)
(-0.0249138 0.000442624 0)
(-0.0249768 0.000314825 0)
(-0.0250113 0.00018412 0)
(-0.0250166 5.08374e-05 0)
(-0.0249926 -8.46615e-05 0)
(-0.0249387 -0.000221984 0)
(-0.0248549 -0.00036071 0)
(-0.024741 -0.00050039 0)
(-0.024597 -0.000640553 0)
(-0.024423 -0.000780708 0)
(-0.0242192 -0.000920346 0)
(-0.0239858 -0.00105895 0)
(-0.0237232 -0.00119598 0)
(-0.023432 -0.00133092 0)
(-0.0231127 -0.00146324 0)
(-0.022766 -0.0015924 0)
(-0.0223928 -0.00171791 0)
(-0.021994 -0.00183925 0)
(-0.0215705 -0.00195598 0)
(-0.0211234 -0.00206763 0)
(-0.0206539 -0.00217379 0)
(-0.0201632 -0.00227409 0)
(-0.0196526 -0.00236818 0)
(-0.0191234 -0.00245577 0)
(-0.018577 -0.00253661 0)
(-0.0180149 -0.00261048 0)
(-0.0174386 -0.00267722 0)
(-0.0168494 -0.00273672 0)
(-0.0162489 -0.00278891 0)
(-0.0156386 -0.00283375 0)
(-0.01502 -0.00287126 0)
(-0.0143945 -0.00290147 0)
(-0.0137637 -0.00292445 0)
(-0.0131289 -0.00294029 0)
(-0.0124916 -0.00294909 0)
(-0.0118533 -0.00295096 0)
(-0.0112152 -0.00294597 0)
(-0.0105787 -0.0029342 0)
(-0.00994532 -0.00291568 0)
(-0.00931629 -0.0028904 0)
(-0.00869302 -0.00285828 0)
(-0.00807689 -0.00281917 0)
(-0.00746936 -0.00277285 0)
(-0.00687192 -0.00271898 0)
(-0.00628614 -0.00265714 0)
(-0.00571369 -0.0025868 0)
(-0.00515635 -0.00250734 0)
(-0.00461605 -0.00241803 0)
(-0.00409479 -0.00231811 0)
(-0.00359482 -0.00220676 0)
(-0.00311841 -0.00208325 0)
(-0.00266807 -0.00194687 0)
(-0.00224624 -0.00179722 0)
(-0.0018556 -0.00163416 0)
(-0.00149847 -0.00145818 0)
(-0.00117744 -0.00127037 0)
(-0.000894198 -0.00107305 0)
(-0.000650792 -0.000869558 0)
(-0.000447447 -0.000665366 0)
(-0.000285213 -0.000467305 0)
(-0.000161707 -0.000285711 0)
(-7.67682e-05 -0.000132254 0)
(-2.4009e-05 -2.40379e-05 0)
(-2.53902e-06 2.14628e-05 0)
(-2.27363e-05 0.000299642 0)
(-0.000156338 0.000848172 0)
(-0.000411283 0.00133108 0)
(-0.000742632 0.0017488 0)
(-0.00115194 0.00209916 0)
(-0.0016121 0.00238823 0)
(-0.00212099 0.00262049 0)
(-0.00266262 0.00280397 0)
(-0.00323397 0.00294515 0)
(-0.00382535 0.00305158 0)
(-0.00443396 0.00312929 0)
(-0.00505388 0.00318421 0)
(-0.0056829 0.00322099 0)
(-0.00631741 0.0032438 0)
(-0.00695581 0.00325581 0)
(-0.00759592 0.00325967 0)
(-0.00823665 0.00325733 0)
(-0.00887665 0.00325033 0)
(-0.00951519 0.00323974 0)
(-0.0101514 0.00322635 0)
(-0.0107847 0.00321066 0)
(-0.0114145 0.003193 0)
(-0.0120404 0.00317352 0)
(-0.0126618 0.00315229 0)
(-0.0132783 0.00312928 0)
(-0.0138894 0.0031044 0)
(-0.0144946 0.00307752 0)
(-0.0150935 0.00304851 0)
(-0.0156855 0.00301718 0)
(-0.0162702 0.00298336 0)
(-0.0168468 0.00294684 0)
(-0.0174149 0.00290745 0)
(-0.0179738 0.00286497 0)
(-0.0185229 0.0028192 0)
(-0.0190614 0.00276996 0)
(-0.0195886 0.00271704 0)
(-0.0201037 0.00266025 0)
(-0.0206061 0.00259939 0)
(-0.0210947 0.0025343 0)
(-0.021569 0.00246478 0)
(-0.0220278 0.00239068 0)
(-0.0224704 0.00231185 0)
(-0.0228959 0.00222814 0)
(-0.0233033 0.00213943 0)
(-0.0236917 0.00204561 0)
(-0.0240601 0.00194661 0)
(-0.0244077 0.00184235 0)
(-0.0247334 0.00173281 0)
(-0.0250363 0.00161797 0)
(-0.0253155 0.00149787 0)
(-0.02557 0.00137254 0)
(-0.0257991 0.0012421 0)
(-0.0260018 0.00110665 0)
(-0.0261773 0.000966376 0)
(-0.0263249 0.000821472 0)
(-0.0264437 0.000672185 0)
(-0.0265332 0.000518801 0)
(-0.0265928 0.000361646 0)
(-0.0266219 0.000201089 0)
(-0.0266201 3.75365e-05 0)
(-0.0265869 -0.000128567 0)
(-0.0265222 -0.000296739 0)
(-0.0264257 -0.000466465 0)
(-0.0262974 -0.000637198 0)
(-0.0261372 -0.000808365 0)
(-0.0259454 -0.00097937 0)
(-0.025722 -0.0011496 0)
(-0.0254675 -0.00131842 0)
(-0.0251823 -0.0014852 0)
(-0.024867 -0.0016493 0)
(-0.0245223 -0.00181008 0)
(-0.0241488 -0.00196692 0)
(-0.0237476 -0.00211921 0)
(-0.0233195 -0.00226635 0)
(-0.0228657 -0.00240778 0)
(-0.0223873 -0.00254299 0)
(-0.0218856 -0.00267147 0)
(-0.0213618 -0.00279278 0)
(-0.0208174 -0.00290651 0)
(-0.0202538 -0.00301233 0)
(-0.0196725 -0.00310993 0)
(-0.0190749 -0.00319907 0)
(-0.0184627 -0.00327957 0)
(-0.0178374 -0.00335129 0)
(-0.0172006 -0.00341416 0)
(-0.0165538 -0.00346815 0)
(-0.0158987 -0.00351328 0)
(-0.0152367 -0.00354959 0)
(-0.0145695 -0.00357718 0)
(-0.0138985 -0.00359617 0)
(-0.0132252 -0.00360666 0)
(-0.0125511 -0.00360878 0)
(-0.0118777 -0.00360265 0)
(-0.0112063 -0.00358833 0)
(-0.0105384 -0.00356588 0)