/*--------------------------------*- C++ -*----------------------------------*\
| =========                 |                                                 |
| \\      /  F ield         | OpenFOAM: The Open Source CFD Toolbox           |
|  \\    /   O peration     | Version:  2406                                  |
|   \\  /    A nd           | Website:  www.openfoam.com                      |
|    \\/     M anipulation  |                                                 |
\*---------------------------------------------------------------------------*/
FoamFile
{
    version     2.0;
    format      ascii;
    arch        "LSB;label=32;scalar=64";
    class       surfaceScalarField;
    location    "27.65";
    object      phi;
}
// * * * * * * * * * * * * * * * * * * * * * * * * * * * * * * * * * * * * * //

dimensions      [0 3 -1 0 0 0 0];

oriented        oriented;

internalField   nonuniform List<scalar> 
28560
(
-8.5662e-09
8.56272e-09
3.53619e-08
-4.58471e-08
1.34078e-07
-9.9052e-08
2.76068e-07
-1.44315e-07
4.46496e-07
-1.71705e-07
6.30474e-07
-1.86477e-07
8.16845e-07
-1.88107e-07
9.95469e-07
-1.80915e-07
1.15994e-06
-1.66169e-07
1.30517e-06
-1.47063e-07
1.429e-06
-1.25181e-07
1.53046e-06
-1.02758e-07
1.61057e-06
-8.10172e-08
1.67104e-06
-6.12302e-08
1.7145e-06
-4.39506e-08
1.74372e-06
-2.95522e-08
1.76148e-06
-1.7903e-08
1.77013e-06
-8.66825e-09
1.77146e-06
-1.20084e-09
1.76644e-06
5.26446e-09
1.7552e-06
1.16189e-08
1.73696e-06
1.87464e-08
1.71013e-06
2.74977e-08
1.67238e-06
3.86102e-08
1.62076e-06
5.26968e-08
1.55188e-06
7.02219e-08
1.46202e-06
9.15239e-08
1.34721e-06
1.16835e-07
1.20333e-06
1.46317e-07
1.02615e-06
1.80093e-07
8.11315e-07
2.18266e-07
5.54404e-07
2.60922e-07
2.50921e-07
3.08128e-07
-1.03654e-07
3.59904e-07
-5.13793e-07
4.16205e-07
-9.83832e-07
4.76888e-07
-1.51785e-06
5.41691e-07
-2.11953e-06
6.10211e-07
-2.79201e-06
6.81891e-07
-3.53772e-06
7.56011e-07
-4.3582e-06
8.31685e-07
-5.25397e-06
9.07862e-07
-6.22437e-06
9.83338e-07
-7.26739e-06
1.05677e-06
-8.37959e-06
1.12668e-06
-9.55597e-06
1.19152e-06
-1.07899e-05
1.24967e-06
-1.20733e-05
1.29946e-06
-1.33961e-05
1.33923e-06
-1.47469e-05
1.36738e-06
-1.61128e-05
1.38235e-06
-1.74792e-05
1.38269e-06
-1.88304e-05
1.3671e-06
-2.01496e-05
1.33443e-06
-2.1419e-05
1.28371e-06
-2.26198e-05
1.2142e-06
-2.37332e-05
1.12538e-06
-2.47396e-05
1.017e-06
-2.56199e-05
8.89122e-07
-2.6355e-05
7.42088e-07
-2.69267e-05
5.76611e-07
-2.73178e-05
3.93771e-07
-2.75124e-05
1.95058e-07
-2.74969e-05
-1.76055e-08
-2.72597e-05
-2.41843e-07
-2.6792e-05
-4.74806e-07
-2.60885e-05
-7.1318e-07
-2.51475e-05
-9.53193e-07
-2.39716e-05
-1.19066e-06
-2.25675e-05
-1.42103e-06
-2.09472e-05
-1.63951e-06
-1.91272e-05
-1.84112e-06
-1.71292e-05
-2.02092e-06
-1.49794e-05
-2.17412e-06
-1.27087e-05
-2.2963e-06
-1.03514e-05
-2.38361e-06
-7.94519e-06
-2.43298e-06
-5.52977e-06
-2.4423e-06
-3.14575e-06
-2.4106e-06
-8.33492e-07
-2.33816e-06
1.36825e-06
-2.22659e-06
3.42363e-06
-2.07882e-06
5.30095e-06
-1.89902e-06
6.97372e-06
-1.69247e-06
8.42159e-06
-1.46532e-06
9.63089e-06
-1.22432e-06
1.05949e-05
-9.76523e-07
1.1314e-05
-7.28935e-07
1.17949e-05
-4.882e-07
1.20505e-05
-2.60303e-07
1.20984e-05
-5.03283e-08
1.19605e-05
1.37718e-07
1.16613e-05
3.0101e-07
1.12269e-05
4.37922e-07
1.06838e-05
5.47983e-07
1.00582e-05
6.3176e-07
9.37452e-06
6.90704e-07
8.65523e-06
7.26951e-07
7.92016e-06
7.43136e-07
7.18622e-06
7.42167e-07
6.46739e-06
7.27088e-07
5.7746e-06
7.00864e-07
5.1161e-06
6.66342e-07
4.49748e-06
6.26058e-07
3.9222e-06
5.82341e-07
3.39165e-06
5.37078e-07
2.90579e-06
4.92005e-07
2.46302e-06
4.48305e-07
2.06109e-06
4.07164e-07
1.6967e-06
3.6895e-07
1.36687e-06
3.34259e-07
1.06827e-06
3.02236e-07
7.99323e-07
2.72694e-07
5.59255e-07
2.42755e-07
3.50877e-07
2.11481e-07
1.79271e-07
1.7319e-07
5.33014e-08
1.28297e-07
-1.65377e-08
7.02439e-08
-2.88941e-08
1.37847e-08
-2.89394e-08
4.47175e-08
-3.4236e-08
2.01377e-07
-2.02496e-07
4.66078e-07
-3.60244e-07
8.15665e-07
-4.91932e-07
1.22492e-06
-5.76723e-07
1.66382e-06
-6.22153e-07
2.10844e-06
-6.28424e-07
2.53608e-06
-6.05089e-07
2.93106e-06
-5.574e-07
3.28083e-06
-4.93839e-07
3.57875e-06
-4.20241e-07
3.82123e-06
-3.43055e-07
4.00878e-06
-2.66684e-07
4.14384e-06
-1.94957e-07
4.23087e-06
-1.29975e-07
4.2748e-06
-7.28758e-08
4.28066e-06
-2.34302e-08
4.25256e-06
1.94669e-08
4.19335e-06
5.78251e-08
4.10402e-06
9.417e-08
3.98359e-06
1.31403e-07
3.82895e-06
1.72483e-07
3.63501e-06
2.20258e-07
3.39483e-06
2.77253e-07
3.1e-06
3.45587e-07
2.74088e-06
4.26906e-07
2.30697e-06
5.22418e-07
1.78718e-06
6.32948e-07
1.17002e-06
7.59029e-07
4.43828e-07
9.00969e-07
-4.03101e-07
1.05891e-06
-1.38235e-06
1.23281e-06
-2.5052e-06
1.42245e-06
-3.78241e-06
1.6273e-06
-5.22391e-06
1.84652e-06
-6.83846e-06
2.0788e-06
-8.6333e-06
2.32236e-06
-1.06137e-05
2.57484e-06
-1.27825e-05
2.83332e-06
-1.514e-05
3.09433e-06
-1.76828e-05
3.35382e-06
-2.04047e-05
3.60728e-06
-2.32951e-05
3.84978e-06
-2.63399e-05
4.07609e-06
-2.95209e-05
4.28078e-06
-3.28158e-05
4.45837e-06
-3.61987e-05
4.60345e-06
-3.964e-05
4.71084e-06
-4.31068e-05
4.77569e-06
-4.65638e-05
4.79364e-06
-4.99729e-05
4.76087e-06
-5.32946e-05
4.67425e-06
-5.64882e-05
4.53132e-06
-5.95124e-05
4.33042e-06
-6.2326e-05
4.07066e-06
-6.48884e-05
3.75195e-06
-6.71603e-05
3.37503e-06
-6.91043e-05
2.94146e-06
-7.06852e-05
2.45361e-06
-7.18707e-05
1.91473e-06
-7.2632e-05
1.32888e-06
-7.29442e-05
7.01037e-07
-7.27867e-05
3.70488e-08
-7.2144e-05
-6.5631e-07
-7.10057e-05
-1.37134e-06
-6.93675e-05
-2.09941e-06
-6.72313e-05
-2.83099e-06
-6.46056e-05
-3.55571e-06
-6.15059e-05
-4.26245e-06
-5.79553e-05
-4.93949e-06
-5.39838e-05
-5.57467e-06
-4.96291e-05
-6.1557e-06
-4.49363e-05
-6.67042e-06
-3.9957e-05
-7.10721e-06
-3.47497e-05
-7.45531e-06
-2.93781e-05
-7.70536e-06
-2.39107e-05
-7.84975e-06
-1.8419e-05
-7.88308e-06
-1.29768e-05
-7.80254e-06
-7.65787e-06
-7.60821e-06
-2.53431e-06
-7.30327e-06
2.32509e-06
-6.89404e-06
6.8569e-06
-6.38995e-06
1.10048e-05
-5.80332e-06
1.47211e-05
-5.14892e-06
1.79685e-05
-4.44352e-06
2.07205e-05
-3.70522e-06
2.29627e-05
-2.95273e-06
2.46928e-05
-2.20466e-06
2.592e-05
-1.47871e-06
2.6665e-05
-7.90985e-07
2.69585e-05
-1.55428e-07
2.68393e-05
4.16714e-07
2.63535e-05
9.17178e-07
2.55513e-05
1.34085e-06
2.44859e-05
1.68571e-06
2.32108e-05
1.95266e-06
2.17783e-05
2.14519e-06
2.02375e-05
2.26888e-06
1.86334e-05
2.33093e-06
1.70055e-05
2.33959e-06
1.53876e-05
2.30365e-06
1.38074e-05
2.23199e-06
1.22865e-05
2.13313e-06
1.08406e-05
2.01508e-06
9.48057e-06
1.88488e-06
8.21239e-06
1.74891e-06
7.03806e-06
1.61212e-06
5.95689e-06
1.47888e-06
4.96546e-06
1.35152e-06
4.06005e-06
1.23194e-06
3.23609e-06
1.11877e-06
2.49196e-06
1.01074e-06
1.82744e-06
9.01138e-07
1.24875e-06
7.85889e-07
7.6467e-07
6.52491e-07
3.90501e-07
5.0037e-07
1.3914e-07
3.18401e-07
1.52423e-08
1.37819e-07
-1.51077e-08
9.56367e-08
-1.29543e-07
3.54515e-07
-4.64869e-07
7.5852e-07
-7.64247e-07
1.26914e-06
-1.00614e-06
1.85477e-06
-1.16411e-06
2.4753e-06
-1.2463e-06
3.09952e-06
-1.25516e-06
3.6967e-06
-1.20556e-06
4.24519e-06
-1.10838e-06
4.72717e-06
-9.78478e-07
5.13243e-06
-8.27524e-07
5.45484e-06
-6.67357e-07
5.69353e-06
-5.06756e-07
5.85031e-06
-3.52895e-07
5.92959e-06
-2.10018e-07
5.9364e-06
-8.02352e-08
5.87586e-06
3.68367e-08
5.7518e-06
1.43442e-07
5.56621e-06
2.43542e-07
5.31847e-06
3.42204e-07
5.00513e-06
4.45223e-07
4.61973e-06
5.58558e-07
4.15295e-06
6.87942e-07
3.59289e-06
8.38491e-07
2.92548e-06
1.01449e-06
2.13499e-06
1.21927e-06
1.2045e-06
1.45524e-06
1.16354e-07
1.72395e-06
-1.1474e-06
2.02624e-06
-2.60466e-06
2.36237e-06
-4.27287e-06
2.73203e-06
-6.16865e-06
3.13435e-06
-8.30734e-06
3.56782e-06
-1.07025e-05
4.03012e-06
-1.33652e-05
4.51803e-06
-1.63037e-05
5.02721e-06
-1.95224e-05
5.5522e-06
-2.30214e-05
6.08633e-06
-2.67961e-05
6.62174e-06
-3.08362e-05
7.14954e-06
-3.51258e-05
7.65989e-06
-3.96431e-05
8.14229e-06
-4.43601e-05
8.5858e-06
-4.92432e-05
8.97936e-06
-5.42532e-05
9.31211e-06
-5.93463e-05
9.57369e-06
-6.44744e-05
9.75459e-06
-6.95863e-05
9.84636e-06
-7.46284e-05
9.84184e-06
-7.9546e-05
9.73536e-06
-8.42838e-05
9.52276e-06
-8.87873e-05
9.20149e-06
-9.30036e-05
8.7706e-06
-9.68817e-05
8.23062e-06
-0.000100374
7.58356e-06
-0.000103436
6.83277e-06
-0.000106026
5.98287e-06
-0.000108109
5.03966e-06
-0.000109653
4.01007e-06
-0.000110631
2.90208e-06
-0.00011102
1.72476e-06
-0.000110804
4.88211e-07
-0.00010997
-7.96375e-07
-0.000108513
-2.1167e-06
-0.000106433
-3.45935e-06
-0.000103734
-4.80976e-06
-0.000100427
-6.15225e-06
-9.65315e-05
-7.47006e-06
-9.20707e-05
-8.74548e-06
-8.70759e-05
-9.96001e-06
-8.1585e-05
-1.10946e-05
-7.56426e-05
-1.213e-05
-6.93003e-05
-1.30472e-05
-6.26162e-05
-1.38279e-05
-5.56549e-05
-1.4455e-05
-4.84864e-05
-1.49134e-05
-4.11857e-05
-1.51906e-05
-3.38318e-05
-1.52772e-05
-2.65064e-05
-1.51677e-05
-1.92925e-05
-1.48608e-05
-1.22728e-05
-1.43601e-05
-5.52788e-06
-1.36738e-05
8.65303e-07
-1.28154e-05
6.83558e-06
-1.18028e-05
1.23192e-05
-1.06584e-05
1.72614e-05
-9.408e-06
2.16181e-05
-8.08042e-06
2.5357e-05
-6.70626e-06
2.84584e-05
-5.31687e-06
3.09159e-05
-3.94323e-06
3.27361e-05
-2.61484e-06
3.39389e-05
-1.35862e-06
3.45562e-05
-1.98008e-07
3.46305e-05
8.47858e-07
3.42138e-05
1.7647e-06
3.3365e-05
2.5434e-06
3.21478e-05
3.18008e-06
3.06283e-05
3.67588e-06
2.88725e-05
4.03647e-06
2.69441e-05
4.27133e-06
2.49028e-05
4.39302e-06
2.28022e-05
4.4161e-06
2.06893e-05
4.35641e-06
1.86034e-05
4.23e-06
1.65762e-05
4.05267e-06
1.46316e-05
3.83903e-06
1.27871e-05
3.60251e-06
1.1053e-05
3.35435e-06
9.43536e-06
3.10418e-06
7.93535e-06
2.85826e-06
6.5527e-06
2.62107e-06
5.28497e-06
2.39184e-06
4.13276e-06
2.16843e-06
3.09711e-06
1.94068e-06
2.18702e-06
1.70058e-06
1.41232e-06
1.42929e-06
7.9315e-07
1.12335e-06
3.43201e-07
7.68142e-07
8.06217e-08
4.03747e-07
6.48921e-08
1.39324e-07
-2.66545e-07
4.8461e-07
-8.12144e-07
1.00013e-06
-1.27617e-06
1.63167e-06
-1.63772e-06
2.34223e-06
-1.87166e-06
3.08447e-06
-1.98737e-06
3.82314e-06
-1.99117e-06
4.52246e-06
-1.90329e-06
5.15728e-06
-1.74099e-06
5.70619e-06
-1.52588e-06
6.15643e-06
-1.27611e-06
6.49955e-06
-1.00932e-06
6.73299e-06
-7.39085e-07
6.85701e-06
-4.76175e-07
6.8747e-06
-2.27084e-07
6.78965e-06
5.17284e-09
6.60536e-06
2.21356e-07
6.32361e-06
4.25236e-07
5.94385e-06
6.23234e-07
5.46227e-06
8.23556e-07
4.87162e-06
1.03552e-06
4.16096e-06
1.26871e-06
3.31594e-06
1.53229e-06
2.31915e-06
1.83442e-06
1.1507e-06
2.18183e-06
-2.1108e-07
2.57967e-06
-1.78902e-06
3.03147e-06
-3.6064e-06
3.53923e-06
-5.68628e-06
4.10359e-06
-8.05086e-06
4.72393e-06
-1.07208e-05
5.3984e-06
-1.37145e-05
6.12388e-06
-1.70473e-05
6.89575e-06
-2.07306e-05
7.70778e-06
-2.47709e-05
8.5519e-06
-2.91689e-05
9.41806e-06
-3.39191e-05
1.02943e-05
-3.90084e-05
1.11666e-05
-4.44163e-05
1.20197e-05
-5.01142e-05
1.28366e-05
-5.60659e-05
1.35997e-05
-6.22277e-05
1.42912e-05
-6.8549e-05
1.48935e-05
-7.4974e-05
1.53898e-05
-8.14419e-05
1.57648e-05
-8.78893e-05
1.60051e-05
-9.42509e-05
1.60997e-05
-0.000100461
1.604e-05
-0.000106457
1.582e-05
-0.000112175
1.54365e-05
-0.000117558
1.48887e-05
-0.000122552
1.41784e-05
-0.000127106
1.33091e-05
-0.000131178
1.22866e-05
-0.000134727
1.1118e-05
-0.000137719
9.81192e-06
-0.000140126
8.37798e-06
-0.000141924
6.82692e-06
-0.000143092
5.17033e-06
-0.000143617
3.42068e-06
-0.000143488
1.59132e-06
-0.000142698
-3.03516e-07
-0.000141245
-2.24857e-06
-0.000139131
-4.22751e-06
-0.000136362
-6.22279e-06
-0.000132948
-8.21561e-06
-0.000128904
-1.01858e-05
-0.000124248
-1.2112e-05
-0.000119007
-1.39713e-05
-0.000113209
-1.57399e-05
-0.00010689
-1.73931e-05
-0.000100092
-1.89058e-05
-9.28624e-05
-2.02527e-05
-8.52557e-05
-2.14093e-05
-7.73319e-05
-2.23524e-05
-6.91572e-05
-2.30609e-05
-6.08032e-05
-2.3517e-05
-5.23464e-05
-2.37064e-05
-4.38668e-05
-2.36199e-05
-3.54475e-05
-2.32536e-05
-2.71724e-05
-2.26097e-05
-1.91254e-05
-2.16969e-05
-1.13883e-05
-2.05303e-05
-4.03915e-06
-1.91318e-05
2.8493e-06
-1.75289e-05
9.21144e-06
-1.57547e-05
1.49903e-05
-1.38463e-05
2.01388e-05
-1.18445e-05
2.46211e-05
-9.79148e-06
2.84134e-05
-7.73036e-06
3.15045e-05
-5.70324e-06
3.38964e-05
-3.75004e-06
3.56041e-05
-1.90716e-06
3.66549e-05
-2.06336e-07
3.70884e-05
1.32642e-06
3.69542e-05
2.6715e-06
3.6311e-05
3.81628e-06
3.52239e-05
4.75519e-06
3.37626e-05
5.48959e-06
3.19982e-05
6.02722e-06
3.00014e-05
6.38137e-06
2.78394e-05
6.56969e-06
2.55746e-05
6.61315e-06
2.32623e-05
6.53447e-06
2.09504e-05
6.35722e-06
1.86782e-05
6.10429e-06
1.64769e-05
5.79747e-06
1.43694e-05
5.45586e-06
1.23722e-05
5.09613e-06
1.0495e-05
4.7303e-06
8.74487e-06
4.36706e-06
7.12444e-06
4.00785e-06
5.63895e-06
3.65085e-06
4.29187e-06
3.28386e-06
3.09544e-06
2.89531e-06
2.05986e-06
2.46123e-06
1.21014e-06
1.97329e-06
5.61979e-07
1.4123e-06
1.52752e-07
8.15608e-07
2.15152e-07
1.68198e-07
-4.33414e-07
5.77252e-07
-1.2255e-06
1.17606e-06
-1.87311e-06
1.89535e-06
-2.36007e-06
2.69157e-06
-2.6678e-06
3.51054e-06
-2.80872e-06
4.31372e-06
-2.7951e-06
5.06164e-06
-2.65311e-06
5.72697e-06
-2.40732e-06
6.28595e-06
-2.08633e-06
6.72412e-06
-1.71518e-06
7.03122e-06
-1.31744e-06
7.20304e-06
-9.11565e-07
7.238e-06
-5.11776e-07
7.13716e-06
-1.26634e-07
6.90171e-06
2.403e-07
6.53232e-06
5.90605e-07
6.02737e-06
9.3012e-07
5.38236e-06
1.26831e-06
4.58895e-06
1.61712e-06
3.6348e-06
1.98994e-06
2.50346e-06
2.40042e-06
1.17478e-06
2.86147e-06
-3.74554e-07
3.3844e-06
-2.17021e-06
3.9783e-06
-4.23932e-06
4.64981e-06
-6.60956e-06
5.40297e-06
-9.30813e-06
6.23935e-06
-1.23608e-05
7.15816e-06
-1.5791e-05
8.15636e-06
-1.96186e-05
9.2286e-06
-2.38587e-05
1.03671e-05
-2.85208e-05
1.15615e-05
-3.36075e-05
1.27986e-05
-3.91132e-05
1.40623e-05
-4.50234e-05
1.53337e-05
-5.13144e-05
1.65912e-05
-5.79524e-05
1.78113e-05
-6.48943e-05
1.89689e-05
-7.2088e-05
2.00383e-05
-7.94736e-05
2.0994e-05
-8.69847e-05
2.18117e-05
-9.45506e-05
2.24694e-05
-0.000102098
2.29477e-05
-0.000109553
2.32307e-05
-0.000116843
2.33064e-05
-0.000123898
2.31666e-05
-0.000130653
2.28073e-05
-0.000137048
2.22278e-05
-0.000143031
2.14311e-05
-0.000148553
2.04227e-05
-0.000153573
1.92107e-05
-0.000158058
1.78051e-05
-0.000161978
1.6217e-05
-0.000165309
1.4459e-05
-0.000168032
1.25441e-05
-0.000170132
1.04862e-05
-0.000171598
8.29937e-06
-0.00017242
5.99826e-06
-0.000172593
3.59795e-06
-0.000172114
1.11414e-06
-0.00017098
-1.43675e-06
-0.000169192
-4.03734e-06
-0.000166753
-6.66909e-06
-0.000163668
-9.31208e-06
-0.000159945
-1.19448e-05
-0.000155595
-1.45442e-05
-0.000150632
-1.7085e-05
-0.000145074
-1.95407e-05
-0.000138944
-2.18827e-05
-0.000132271
-2.40811e-05
-0.000125087
-2.61051e-05
-0.000117434
-2.79232e-05
-0.000109356
-2.95044e-05
-0.000100909
-3.08187e-05
-9.21505e-05
-3.18384e-05
-8.31481e-05
-3.25388e-05
-7.39739e-05
-3.29e-05
-6.47056e-05
-3.29074e-05
-5.54249e-05
-3.2553e-05
-4.62162e-05
-3.18362e-05
-3.71653e-05
-3.07646e-05
-2.83574e-05
-2.93539e-05
-1.98755e-05
-2.76279e-05
-1.17985e-05
-2.56186e-05
-4.19957e-06
-2.33645e-05
2.85517e-06
-2.09103e-05
9.30833e-06
-1.8305e-05
1.51122e-05
-1.56009e-05
2.02296e-05
-1.28515e-05
2.46347e-05
-1.01105e-05
2.83136e-05
-7.42948e-06
3.12645e-05
-4.85719e-06
3.3498e-05
-2.43764e-06
3.50368e-05
-2.09065e-07
3.59152e-05
1.79724e-06
3.61785e-05
3.55776e-06
3.58817e-05
5.05736e-06
3.50875e-05
6.28956e-06
3.38643e-05
7.25637e-06
3.22838e-05
7.96779e-06
3.04187e-05
8.44077e-06
2.83395e-05
8.69806e-06
2.6113e-05
8.76649e-06
2.37999e-05
8.67564e-06
2.14533e-05
8.45581e-06
1.91184e-05
8.13698e-06
1.68317e-05
7.74674e-06
1.46221e-05
7.30978e-06
1.25104e-05
6.84533e-06
1.05132e-05
6.36779e-06
8.64093e-06
5.88262e-06
6.90536e-06
5.38964e-06
5.3142e-06
4.87641e-06
3.88439e-06
4.32833e-06
2.62815e-06
3.71731e-06
1.57742e-06
3.02778e-06
7.52972e-07
2.2341e-06
2.13503e-07
1.36039e-06
4.2669e-07
1.88881e-07
-6.19685e-07
6.43445e-07
-1.68354e-06
1.29982e-06
-2.5257e-06
2.07596e-06
-3.13759e-06
2.92153e-06
-3.51093e-06
3.7762e-06
-3.6635e-06
4.59851e-06
-3.61564e-06
5.34626e-06
-3.40041e-06
5.99076e-06
-3.0505e-06
6.50677e-06
-2.60174e-06
6.87874e-06
-2.08621e-06
7.09498e-06
-1.53316e-06
7.14971e-06
-9.65665e-07
7.03921e-06
-4.00925e-07
6.76195e-06
1.50985e-07
6.31584e-06
6.86598e-07
5.69761e-06
1.20898e-06
4.90103e-06
1.72672e-06
3.91638e-06
2.25294e-06
2.72952e-06
2.80385e-06
1.32199e-06
3.39728e-06
-3.28961e-07
4.05109e-06
-2.24969e-06
4.78184e-06
-4.46934e-06
5.60356e-06
-7.01868e-06
6.52704e-06
-9.92898e-06
7.55934e-06
-1.32306e-05
8.70368e-06
-1.69519e-05
9.95946e-06
-2.11175e-05
1.13224e-05
-2.57472e-05
1.27844e-05
-3.08543e-05
1.43337e-05
-3.64442e-05
1.59548e-05
-4.25134e-05
1.7628e-05
-4.90474e-05
1.93296e-05
-5.60211e-05
2.10325e-05
-6.33975e-05
2.27061e-05
-7.11282e-05
2.43176e-05
-7.91546e-05
2.58329e-05
-8.74089e-05
2.72178e-05
-9.5816e-05
2.84396e-05
-0.000104296
2.94681e-05
-0.000112769
3.0277e-05
-0.000121151
3.08446e-05
-0.000129366
3.11545e-05
-0.000137339
3.11957e-05
-0.000145003
3.09627e-05
-0.0001523
3.04546e-05
-0.000159177
2.96755e-05
-0.00016559
2.86326e-05
-0.000171504
2.73364e-05
-0.000176889
2.57994e-05
-0.000181722
2.40359e-05
-0.000185986
2.20607e-05
-0.000189666
1.98895e-05
-0.000192752
1.7538e-05
-0.000195235
1.5022e-05
-0.000197111
1.23569e-05
-0.000198375
9.55826e-06
-0.000199021
6.64162e-06
-0.000199048
3.62268e-06
-0.000198453
5.17576e-07
-0.000197233
-2.65681e-06
-0.000195387
-5.88255e-06
-0.000192913
-9.14033e-06
-0.000189812
-1.24092e-05
-0.000186086
-1.56661e-05
-0.000181738
-1.88858e-05
-0.000176775
-2.20407e-05
-0.000171207
-2.51007e-05
-0.000165047
-2.80332e-05
-0.000158314
-3.08036e-05
-0.000151032
-3.33754e-05
-0.000143232
-3.57109e-05
-0.000134951
-3.7772e-05
-0.000126235
-3.95214e-05
-0.000117136
-4.09234e-05
-0.000107715
-4.19459e-05
-9.80405e-05
-4.25612e-05
-8.81864e-05
-4.27479e-05
-7.8234e-05
-4.24922e-05
-6.82687e-05
-4.17889e-05
-5.83788e-05
-4.06425e-05
-4.86538e-05
-3.90679e-05
-3.91818e-05
-3.70898e-05
-3.00485e-05
-3.4743e-05
-2.13341e-05
-3.2071e-05
-1.31127e-05
-2.91251e-05
-5.45001e-06
-2.59624e-05
1.59731e-06
-2.26441e-05
7.98248e-06
-1.92339e-05
1.36692e-05
-1.57956e-05
1.86321e-05
-1.23918e-05
2.28565e-05
-9.08211e-06
2.63393e-05
-5.92174e-06
2.90881e-05
-2.96008e-06
3.11222e-05
-2.39647e-07
3.24716e-05
2.20504e-06
3.3177e-05
4.34832e-06
3.32886e-05
6.174e-06
3.28651e-05
7.6757e-06
3.19719e-05
8.85678e-06
3.06787e-05
9.72973e-06
2.90574e-05
1.03153e-05
2.71792e-05
1.06407e-05
2.51125e-05
1.07386e-05
2.29205e-05
1.06442e-05
2.06601e-05
1.03941e-05
1.83801e-05
1.00236e-05
1.61221e-05
9.56519e-06
1.39185e-05
9.04602e-06
1.17973e-05
8.48708e-06
9.77795e-06
7.89935e-06
7.88082e-06
7.28563e-06
6.11957e-06
6.63499e-06
4.51747e-06
5.93049e-06
3.09065e-06
5.14088e-06
1.87914e-06
4.24134e-06
9.10607e-07
3.19761e-06
2.63559e-07
2.01246e-06
6.8682e-07
2.01551e-07
-8.19249e-07
6.84926e-07
-2.17165e-06
1.37581e-06
-3.21368e-06
2.18133e-06
-3.94603e-06
3.04438e-06
-4.37294e-06
3.89888e-06
-4.51984e-06
4.70045e-06
-4.4171e-06
5.40465e-06
-4.10588e-06
5.98183e-06
-3.62793e-06
6.40582e-06
-3.02663e-06
6.66041e-06
-2.34115e-06
6.73277e-06
-1.60613e-06
6.61557e-06
-8.48753e-07
6.30278e-06
-8.8505e-08
5.78976e-06
6.63827e-07
5.07041e-06
1.40575e-06
4.13665e-06
2.14268e-06
2.97658e-06
2.88673e-06
1.5742e-06
3.65536e-06
-9.13163e-08
4.46944e-06
-2.04524e-06
5.35135e-06
-4.31691e-06
6.32296e-06
-6.93859e-06
7.4038e-06
-9.94431e-06
8.60963e-06
-1.33683e-05
9.95146e-06
-1.72433e-05
1.14349e-05
-2.1599e-05
1.30601e-05
-2.64603e-05
1.48216e-05
-3.18452e-05
1.67083e-05
-3.77635e-05
1.8704e-05
-4.4215e-05
2.07866e-05
-5.11875e-05
2.29291e-05
-5.86567e-05
2.50991e-05
-6.65844e-05
2.72597e-05
-7.49198e-05
2.93705e-05
-8.35996e-05
3.13887e-05
-9.25498e-05
3.32711e-05
-0.000101689
3.49752e-05
-0.000110929
3.64619e-05
-0.000120181
3.76963e-05
-0.000129358
3.86495e-05
-0.000138375
3.92994e-05
-0.000147156
3.96308e-05
-0.000155632
3.96356e-05
-0.000163743
3.93122e-05
-0.000171439
3.86644e-05
-0.000178679
3.77012e-05
-0.000185432
3.64348e-05
-0.000191674
3.48803e-05
-0.000197386
3.30545e-05
-0.000202556
3.0975e-05
-0.000207174
2.86599e-05
-0.000211235
2.61271e-05
-0.000214735
2.33939e-05
-0.000217669
2.04773e-05
-0.000220037
1.73933e-05
-0.000221834
1.41576e-05
-0.000223058
1.07853e-05
-0.000223706
7.29133e-06
-0.000223772
3.69086e-06
-0.000223254
-6.14869e-10
-0.000222144
-3.76673e-06
-0.000220438
-7.58992e-06
-0.000218129
-1.1451e-05
-0.000215213
-1.53286e-05
-0.000211684
-1.91991e-05
-0.000207538
-2.3036e-05
-0.000202775
-2.68099e-05
-0.000197394
-3.04879e-05
-0.0001914
-3.40343e-05
-0.000184801
-3.74098e-05
-0.000177612
-4.05729e-05
-0.000169853
-4.34795e-05
-0.00016155
-4.60843e-05
-0.000152739
-4.8342e-05
-0.000143463
-5.02082e-05
-0.000133778
-5.16416e-05
-0.000123743
-5.26052e-05
-0.000113432
-5.30686e-05
-0.000102924
-5.30099e-05
-9.23047e-05
-5.24169e-05
-8.16668e-05
-5.12888e-05
-7.11053e-05
-4.96372e-05
-6.07161e-05
-4.74861e-05
-5.05934e-05
-4.48719e-05
-4.08274e-05
-4.18425e-05
-3.15018e-05
-3.84554e-05
-2.26919e-05
-3.4776e-05
-1.44637e-05
-3.08752e-05
-6.87234e-06
-2.68272e-05
3.77686e-08
-2.27069e-05
6.2332e-06
-1.85876e-05
1.16912e-05
-1.45399e-05
1.63996e-05
-1.06292e-05
2.03562e-05
-6.91521e-06
2.35689e-05
-3.45044e-06
2.60557e-05
-2.7935e-07
2.7844e-05
2.56251e-06
2.89715e-05
5.04931e-06
2.94846e-05
7.16546e-06
2.94383e-05
8.90605e-06
2.88943e-05
1.02767e-05
2.79196e-05
1.1293e-05
2.65836e-05
1.19794e-05
2.49569e-05
1.23681e-05
2.31073e-05
1.24962e-05
2.10995e-05
1.24044e-05
1.89915e-05
1.21336e-05
1.68355e-05
1.17234e-05
1.4675e-05
1.1208e-05
1.25488e-05
1.06154e-05
1.04865e-05
9.96264e-06
8.51766e-06
9.25658e-06
6.66368e-06
8.489e-06
4.95551e-06
7.64129e-06
3.41526e-06
6.67963e-06
2.09188e-06
5.56874e-06
1.02103e-06
4.26413e-06
2.97672e-07
2.74251e-06
9.81456e-07
2.09907e-07
-1.02648e-06
7.09125e-07
-2.67509e-06
1.41426e-06
-3.91495e-06
2.22341e-06
-4.75724e-06
3.07317e-06
-5.22053e-06
3.89255e-06
-5.33996e-06
4.63456e-06
-5.15777e-06
5.25308e-06
-4.72451e-06
5.71787e-06
-4.09183e-06
6.00229e-06
-3.31092e-06
6.0897e-06
-2.42796e-06
5.96624e-06
-1.48248e-06
5.62291e-06
-5.05043e-07
5.051e-06
4.83557e-07
4.2422e-06
1.47285e-06
3.18565e-06
2.46238e-06
1.86753e-06
3.46089e-06
2.6941e-07
4.48486e-06
-1.63178e-06
5.55654e-06
-3.86405e-06
6.70164e-06
-6.45957e-06
7.94677e-06
-9.45369e-06
9.31693e-06
-1.28834e-05
1.08333e-05
-1.67854e-05
1.25114e-05
-2.11944e-05
1.43601e-05
-2.61407e-05
1.63807e-05
-3.1648e-05
1.85669e-05
-3.77319e-05
2.09047e-05
-4.43969e-05
2.33726e-05
-5.16357e-05
2.59418e-05
-5.94266e-05
2.85765e-05
-6.77335e-05
3.12348e-05
-7.65052e-05
3.38693e-05
-8.56763e-05
3.64291e-05
-9.5169e-05
3.88613e-05
-0.000104896
4.11135e-05
-0.000114763
4.31361e-05
-0.000124675
4.48843e-05
-0.000134536
4.63203e-05
-0.000144257
4.74142e-05
-0.000153756
4.8145e-05
-0.000162961
4.85004e-05
-0.00017181
4.84764e-05
-0.000180254
4.80759e-05
-0.000188254
4.7308e-05
-0.000195781
4.61866e-05
-0.000202812
4.47286e-05
-0.000209335
4.29533e-05
-0.00021534
4.0881e-05
-0.000220822
3.85323e-05
-0.000225778
3.59277e-05
-0.000230209
3.30867e-05
-0.000234114
3.00281e-05
-0.000237492
2.67693e-05
-0.000240345
2.3327e-05
-0.000242671
1.97166e-05
-0.000244468
1.59528e-05
-0.000245734
1.20497e-05
-0.000246466
8.02123e-06
-0.000246657
3.88123e-06
-0.000246301
-3.55937e-07
-0.000245393
-4.67504e-06
-0.000243922
-9.05953e-06
-0.00024188
-1.34911e-05
-0.000239257
-1.7949e-05
-0.000236043
-2.24099e-05
-0.000232228
-2.68472e-05
-0.000227803
-3.12308e-05
-0.00022276
-3.55265e-05
-0.000217093
-3.96961e-05
-0.0002108
-4.36974e-05
-0.000203882
-4.74843e-05
-0.000196348
-5.10073e-05
-0.000188211
-5.42143e-05
-0.000179494
-5.70518e-05
-0.000170229
-5.94662e-05
-0.000160458
-6.14056e-05
-0.000150234
-6.28223e-05
-0.000139621
-6.36744e-05
-0.000128696
-6.39288e-05
-0.000117543
-6.35633e-05
-0.000106258
-6.25682e-05
-9.49405e-05
-6.09486e-05
-8.3697e-05
-5.87246e-05
-7.26326e-05
-5.59318e-05
-6.18509e-05
-5.26204e-05
-5.14494e-05
-4.88535e-05
-4.15177e-05
-4.47051e-05
-3.21343e-05
-4.02565e-05
-2.33662e-05
-3.55939e-05
-1.52673e-05
-3.08049e-05
-7.87896e-06
-2.59756e-05
-1.23031e-06
-2.11886e-05
4.66061e-06
-1.65207e-05
9.78604e-06
-1.20416e-05
1.41476e-05
-7.81332e-06
1.77559e-05
-3.88919e-06
2.063e-05
-3.13318e-07
2.27975e-05
2.87993e-06
2.42944e-05
5.66652e-06
2.51652e-05
8.03325e-06
2.54618e-05
9.97799e-06
2.52431e-05
1.15096e-05
2.4573e-05
1.26476e-05
2.35188e-05
1.34204e-05
2.21489e-05
1.38643e-05
2.05306e-05
1.40211e-05
1.87276e-05
1.39349e-05
1.67998e-05
1.365e-05
1.47994e-05
1.32067e-05
1.2775e-05
1.2639e-05
1.07657e-05
1.19703e-05
8.81069e-06
1.12115e-05
6.93981e-06
1.03578e-05
5.19253e-06
9.38958e-06
3.59822e-06
8.27084e-06
2.21466e-06
6.95537e-06
1.08544e-06
5.38776e-06
3.17566e-07
3.51676e-06
1.29515e-06
2.13973e-07
-1.23817e-06
7.17254e-07
-3.18319e-06
1.41797e-06
-4.61231e-06
2.20642e-06
-5.54848e-06
3.01359e-06
-6.02624e-06
3.76437e-06
-6.09231e-06
4.4096e-06
-5.80248e-06
4.90202e-06
-5.21788e-06
5.21112e-06
-4.40083e-06
5.3101e-06
-3.4105e-06
5.18195e-06
-2.29988e-06
4.81177e-06
-1.11269e-06
4.18861e-06
1.18022e-07
3.30065e-06
1.37129e-06
2.13528e-06
2.63815e-06
6.76168e-07
3.92137e-06
-1.09697e-06
5.234e-06
-3.20968e-06
6.59753e-06
-5.6924e-06
8.03929e-06
-8.58018e-06
9.58946e-06
-1.19112e-05
1.12779e-05
-1.57254e-05
1.31312e-05
-2.00616e-05
1.51697e-05
-2.49561e-05
1.74061e-05
-3.0439e-05
1.98434e-05
-3.65328e-05
2.24748e-05
-4.3249e-05
2.52836e-05
-5.05866e-05
2.82428e-05
-5.85297e-05
3.13163e-05
-6.70465e-05
3.44593e-05
-7.60886e-05
3.76194e-05
-8.55914e-05
4.07385e-05
-9.54758e-05
4.37547e-05
-0.000105651
4.66053e-05
-0.000116017
4.92293e-05
-0.000126473
5.15705e-05
-0.000136915
5.35801e-05
-0.000147247
5.52183e-05
-0.000157381
5.64558e-05
-0.000167238
5.72739e-05
-0.000176755
5.7664e-05
-0.000185878
5.76264e-05
-0.000194568
5.71692e-05
-0.000202796
5.63065e-05
-0.000210542
5.50564e-05
-0.000217793
5.34402e-05
-0.000224542
5.14808e-05
-0.000230787
4.92015e-05
-0.000236529
4.66254e-05
-0.000241769
4.3775e-05
-0.00024651
4.06716e-05
-0.000250755
3.7335e-05
-0.000254509
3.3784e-05
-0.000257773
3.00355e-05
-0.00026055
2.61054e-05
-0.00026284
2.20083e-05
-0.000264643
1.77578e-05
-0.00026596
1.33668e-05
-0.000266786
8.84788e-06
-0.000267118
4.21337e-06
-0.00026695
-5.23958e-07
-0.000266275
-5.35055e-06
-0.000265084
-1.02516e-05
-0.000263366
-1.52105e-05
-0.000261109
-2.02083e-05
-0.000258298
-2.52231e-05
-0.000254919
-3.02295e-05
-0.000250955
-3.51981e-05
-0.00024639
-4.00951e-05
-0.000241208
-4.48817e-05
-0.000235396
-4.95141e-05
-0.000228941
-5.39434e-05
-0.000221838
-5.81159e-05
-0.000214083
-6.19739e-05
-0.000205684
-6.54562e-05
-0.000196655
-6.85001e-05
-0.000187022
-7.10429e-05
-0.000176825
-7.30243e-05
-0.000166116
-7.43889e-05
-0.00015496
-7.50896e-05
-0.000143438
-7.50898e-05
-0.000131643
-7.4367e-05
-0.000119681
-7.29147e-05
-0.000107665
-7.07447e-05
-9.57124e-05
-6.78872e-05
-8.3944e-05
-6.43915e-05
-7.2476e-05
-6.03238e-05
-6.14177e-05
-5.57653e-05
-5.08672e-05
-5.08084e-05
-4.09094e-05
-4.55528e-05
-3.16133e-05
-4.01016e-05
-2.30323e-05
-3.45568e-05
-1.52046e-05
-2.90163e-05
-8.15384e-06
-2.3571e-05
-1.89168e-06
-1.83031e-05
3.58088e-06
-1.3285e-05
8.27179e-06
-8.57902e-06
1.21968e-05
-4.23713e-06
1.5379e-05
-3.00871e-07
1.78481e-05
3.19874e-06
1.96413e-05
6.2415e-06
2.08025e-05
8.81828e-06
2.13824e-05
1.09312e-05
2.14377e-05
1.25936e-05
2.10304e-05
1.3829e-05
2.02253e-05
1.46706e-05
1.90893e-05
1.51584e-05
1.76876e-05
1.53376e-05
1.60844e-05
1.52544e-05
1.43381e-05
1.49537e-05
1.25048e-05
1.44737e-05
1.06318e-05
1.38434e-05
8.76733e-06
1.30775e-05
6.94973e-06
1.21748e-05
5.22714e-06
1.11145e-05
3.63686e-06
9.85899e-06
2.24478e-06
8.35147e-06
1.10178e-06
6.52574e-06
3.22099e-07
4.30352e-06
1.61378e-06
2.14929e-07
-1.45051e-06
7.11556e-07
-3.68423e-06
1.3898e-06
-5.2868e-06
2.13337e-06
-6.29435e-06
2.86838e-06
-6.75927e-06
3.51671e-06
-6.74165e-06
4.02771e-06
-6.31237e-06
4.35366e-06
-5.54419e-06
4.46413e-06
-4.51065e-06
4.33241e-06
-3.27886e-06
3.9411e-06
-1.90816e-06
3.27405e-06
-4.45614e-07
2.31791e-06
1.07441e-06
1.05718e-06
2.63206e-06
-5.25713e-07
4.22118e-06
-2.45324e-06
5.84892e-06
-4.75263e-06
7.53345e-06
-7.45674e-06
9.30164e-06
-1.0603e-05
1.11856e-05
-1.42325e-05
1.32189e-05
-1.83875e-05
1.54328e-05
-2.31093e-05
1.78529e-05
-2.84352e-05
2.04955e-05
-3.43953e-05
2.33661e-05
-4.10101e-05
2.64579e-05
-4.8287e-05
2.97515e-05
-5.62186e-05
3.32148e-05
-6.47803e-05
3.68042e-05
-7.39299e-05
4.04654e-05
-8.36066e-05
4.41355e-05
-9.37331e-05
4.77453e-05
-0.000104217
5.12222e-05
-0.000114957
5.44936e-05
-0.000125844
5.74908e-05
-0.000136767
6.0152e-05
-0.000147623
6.24251e-05
-0.000158314
6.42697e-05
-0.000168755
6.56576e-05
-0.000178873
6.65732e-05
-0.000188613
6.70116e-05
-0.000197928
6.69779e-05
-0.000206788
6.64848e-05
-0.000215172
6.55507e-05
-0.000223065
6.4198e-05
-0.000230462
6.24516e-05
-0.000237362
6.03374e-05
-0.000243765
5.78817e-05
-0.000249675
5.511e-05
-0.000255099
5.2047e-05
-0.000260041
4.87159e-05
-0.00026451
4.51385e-05
-0.000268512
4.13348e-05
-0.000272053
3.73232e-05
-0.000275139
3.31203e-05
-0.000277776
2.87415e-05
-0.000279969
2.42004e-05
-0.000281722
1.95096e-05
-0.000283036
1.46807e-05
-0.000283914
9.72467e-06
-0.000284352
4.65197e-06
-0.000284349
-5.26699e-07
-0.000283899
-5.80012e-06
-0.000282994
-1.1156e-05
-0.000281622
-1.65805e-05
-0.000279772
-2.20574e-05
-0.000277425
-2.75676e-05
-0.000274564
-3.30886e-05
-0.000271166
-3.85933e-05
-0.000267209
-4.40501e-05
-0.000262666
-4.94215e-05
-0.000257512
-5.46644e-05
-0.000251723
-5.97294e-05
-0.000245275
-6.45607e-05
-0.000238148
-6.90967e-05
-0.00023033
-7.32707e-05
-0.000221815
-7.70116e-05
-0.000212608
-8.02465e-05
-0.000202726
-8.29021e-05
-0.000192203
-8.49083e-05
-0.000181088
-8.6201e-05
-0.000169449
-8.67261e-05
-0.00015737
-8.64431e-05
-0.000144953
-8.53283e-05
-0.000132317
-8.33785e-05
-0.000119589
-8.06126e-05
-0.000106906
-7.70723e-05
-9.44064e-05
-7.28222e-05
-8.22234e-05
-6.7947e-05
-7.04823e-05
-6.25484e-05
-5.92944e-05
-5.674e-05
-4.87531e-05
-5.06424e-05
-3.89324e-05
-4.43773e-05
-2.98863e-05
-3.80626e-05
-2.16494e-05
-3.18081e-05
-1.42398e-05
-2.57131e-05
-7.6612e-06
-1.98643e-05
-1.90587e-06
-1.43351e-05
3.04256e-06
-9.1864e-06
7.20749e-06
-4.46671e-06