/*--------------------------------*- C++ -*----------------------------------*\
| =========                 |                                                 |
| \\      /  F ield         | OpenFOAM: The Open Source CFD Toolbox           |
|  \\    /   O peration     | Version:  2406                                  |
|   \\  /    A nd           | Website:  www.openfoam.com                      |
|    \\/     M anipulation  |                                                 |
\*---------------------------------------------------------------------------*/
FoamFile
{
    version     2.0;
    format      ascii;
    arch        "LSB;label=32;scalar=64";
    class       volScalarField;
    location    "18.3";
    object      p;
}
// * * * * * * * * * * * * * * * * * * * * * * * * * * * * * * * * * * * * * //

dimensions      [0 2 -2 0 0 0 0];

internalField   nonuniform List<scalar> 
3600
(
0.0261725
0.0261682
0.0261563
0.0261374
0.0261157
0.0260882
0.026059
0.0260241
0.0259872
0.0259452
0.0259015
0.0258539
0.0258055
0.0257554
0.0257061
0.0256572
0.0256112
0.025568
0.0255295
0.0254961
0.0254693
0.0254495
0.0254375
0.0254335
0.0254372
0.0254474
0.0254618
0.0254767
0.0254868
0.0254855
0.0254645
0.0254153
0.0253289
0.0251978
0.0250164
0.0247824
0.0244976
0.024168
0.0238035
0.0234174
0.0230243
0.0226395
0.022276
0.0219452
0.0216534
0.0214056
0.0212006
0.0210378
0.0209109
0.0208175
0.0207485
0.0207033
0.0206713
0.0206558
0.0206451
0.0206477
0.0206497
0.0206652
0.0206744
0.0206917
0.0261762
0.0261714
0.0261615
0.0261442
0.0261247
0.0260985
0.0260707
0.0260365
0.0260007
0.0259596
0.025917
0.0258708
0.0258241
0.0257758
0.0257286
0.025682
0.0256381
0.0255968
0.0255599
0.0255273
0.0255002
0.0254788
0.0254639
0.025455
0.0254522
0.025454
0.0254584
0.0254618
0.0254596
0.0254453
0.0254115
0.0253501
0.0252527
0.0251123
0.0249239
0.0246856
0.0243994
0.0240719
0.0237128
0.0233358
0.0229548
0.0225848
0.0222378
0.0219243
0.0216493
0.0214167
0.0212243
0.0210714
0.020951
0.0208617
0.0207941
0.0207486
0.0207149
0.020697
0.0206827
0.0206817
0.0206782
0.0206888
0.0206913
0.0207088
0.0261897
0.0261813
0.0261715
0.026153
0.0261342
0.0261077
0.0260803
0.0260459
0.02601
0.0259683
0.0259254
0.0258784
0.0258311
0.0257819
0.025734
0.0256865
0.0256418
0.0255995
0.0255613
0.0255272
0.0254984
0.0254749
0.0254575
0.0254462
0.0254409
0.0254405
0.0254434
0.025446
0.0254439
0.0254306
0.0253984
0.0253386
0.0252424
0.0251022
0.0249122
0.0246702
0.0243779
0.0240421
0.0236732
0.0232858
0.0228951
0.0225174
0.0221656
0.021851
0.0215785
0.0213517
0.0211675
0.0210241
0.0209135
0.0208334
0.020774
0.0207354
0.0207069
0.0206931
0.0206812
0.0206823
0.0206788
0.0206912
0.0206932
0.0207174
0.0262096
0.0261962
0.0261873
0.0261676
0.0261506
0.0261242
0.026098
0.0260635
0.0260281
0.025986
0.0259429
0.0258953
0.0258474
0.0257974
0.0257486
0.0256999
0.0256536
0.0256092
0.0255682
0.02553
0.025496
0.0254659
0.0254405
0.0254199
0.0254044
0.0253932
0.0253852
0.0253774
0.0253657
0.0253442
0.0253055
0.0252409
0.0251417
0.0249996
0.0248085
0.0245657
0.0242722
0.0239345
0.0235632
0.0231731
0.0227804
0.0224022
0.0220524
0.021743
0.0214791
0.021264
0.0210935
0.0209651
0.0208694
0.0208032
0.0207556
0.020727
0.0207057
0.0206975
0.0206884
0.0206914
0.0206871
0.0206999
0.0206998
0.0207284
0.0262339
0.026214
0.0262053
0.0261831
0.026167
0.0261394
0.0261137
0.0260781
0.0260422
0.0259983
0.0259536
0.0259033
0.0258528
0.0257992
0.0257465
0.025693
0.0256412
0.0255899
0.0255406
0.0254924
0.0254464
0.0254022
0.0253609
0.0253228
0.0252887
0.0252588
0.0252328
0.0252089
0.0251841
0.0251534
0.0251102
0.0250462
0.0249526
0.0248203
0.0246421
0.0244133
0.0241335
0.0238071
0.0234435
0.0230568
0.0226635
0.022282
0.0219278
0.0216148
0.0213499
0.0211374
0.0209734
0.0208551
0.0207718
0.0207195
0.0206858
0.0206705
0.0206606
0.0206623
0.0206606
0.0206699
0.0206692
0.0206857
0.0206867
0.0207196
0.02626
0.0262333
0.0262255
0.0262009
0.0261865
0.026158
0.0261331
0.0260963
0.0260599
0.0260141
0.0259674
0.0259139
0.0258597
0.025801
0.0257421
0.0256803
0.0256181
0.0255532
0.0254866
0.0254165
0.0253436
0.025267
0.025188
0.0251072
0.0250268
0.0249485
0.0248744
0.0248051
0.0247408
0.024679
0.0246158
0.0245447
0.0244576
0.0243454
0.0241992
0.0240118
0.0237793
0.0235018
0.0231848
0.0228391
0.022479
0.0221222
0.0217849
0.021483
0.0212256
0.0210195
0.0208625
0.0207527
0.0206798
0.0206392
0.0206177
0.0206143
0.0206152
0.0206263
0.020632
0.0206469
0.0206495
0.0206685
0.02067
0.0207039
0.0262839
0.0262497
0.0262427
0.0262153
0.026202
0.0261718
0.026147
0.0261081
0.0260702
0.026021
0.0259707
0.0259118
0.0258509
0.0257831
0.0257123
0.0256348
0.0255519
0.0254599
0.0253585
0.0252443
0.0251171
0.0249754
0.024821
0.0246559
0.0244848
0.0243129
0.0241469
0.0239926
0.023855
0.0237367
0.0236375
0.0235542
0.0234803
0.0234067
0.0233231
0.0232183
0.0230831
0.0229108
0.0226995
0.0224525
0.0221783
0.0218906
0.0216044
0.0213367
0.0210999
0.0209049
0.0207538
0.0206482
0.0205797
0.0205451
0.0205311
0.0205364
0.0205464
0.0205664
0.0205798
0.0206013
0.0206089
0.0206311
0.0206344
0.0206682
0.0263032
0.0262617
0.026256
0.0262259
0.0262142
0.0261825
0.0261579
0.0261168
0.0260771
0.0260239
0.0259687
0.0259021
0.0258309
0.0257485
0.0256577
0.0255522
0.0254315
0.0252888
0.0251215
0.0249236
0.0246936
0.0244301
0.0241364
0.0238182
0.0234857
0.0231508
0.0228274
0.0225288
0.0222672
0.0220515
0.0218872
0.021775
0.0217117
0.0216894
0.0216966
0.0217192
0.021742
0.0217499
0.0217303
0.0216746
0.0215797
0.021449
0.0212911
0.0211201
0.02095
0.0207964
0.020668
0.0205731
0.0205091
0.0204768
0.020465
0.0204734
0.0204875
0.0205119
0.0205299
0.0205551
0.020566
0.0205893
0.0205936
0.020625
0.0263121
0.026263
0.0262587
0.0262257
0.0262154
0.0261814
0.0261564
0.0261121
0.0260692
0.0260099
0.0259469
0.0258681
0.02578
0.0256727
0.0255471
0.0253925
0.0252046
0.0249722
0.0246888
0.024346
0.023942
0.0234776
0.0229617
0.0224073
0.0218339
0.0212629
0.0207176
0.0202197
0.0197886
0.0194394
0.0191827
0.0190237
0.0189624
0.0189934
0.0191065
0.0192865
0.0195147
0.0197689
0.0200258
0.0202628
0.02046
0.0206035
0.0206864
0.0207118
0.0206892
0.0206361
0.0205685
0.020505
0.0204535
0.0204236
0.02041
0.0204161
0.0204288
0.020453
0.0204721
0.0204983
0.0205109
0.0205341
0.0205391
0.0205675
0.0263079
0.0262512
0.0262488
0.0262132
0.0262044
0.0261683
0.0261427
0.0260946
0.0260473
0.0259797
0.025905
0.0258075
0.025692
0.0255439
0.0253594
0.0251218
0.0248209
0.0244393
0.0239674
0.0233961
0.0227275
0.0219696
0.021142
0.0202702
0.0193856
0.0185206
0.0177075
0.0169743
0.0163455
0.0158395
0.0154697
0.0152441
0.0151658
0.0152326
0.0154378
0.0157694
0.0162101
0.0167366
0.0173203
0.0179279
0.0185231
0.0190703
0.0195382
0.0199061
0.0201654
0.0203241
0.0203999
0.0204216
0.0204124
0.0203975
0.0203847
0.0203851
0.0203912
0.020409
0.0204238
0.0204462
0.0204568
0.0204772
0.0204813
0.0205057
0.026283
0.0262188
0.0262182
0.0261797
0.0261721
0.0261331
0.0261057
0.0260519
0.0259976
0.0259173
0.0258238
0.0256966
0.0255368
0.0253223
0.0250427
0.0246723
0.024194
0.0235854
0.0228371
0.021945
0.0209223
0.0197917
0.0185893
0.0173553
0.016134
0.0149658
0.013888
0.0129303
0.0121165
0.0114638
0.0109844
0.0106857
0.010572
0.010644
0.0108998
0.0113336
0.0119352
0.0126883
0.0135692
0.0145446
0.0155717
0.0165989
0.0175699
0.018431
0.0191384
0.0196702
0.0200268
0.0202358
0.0203345
0.0203699
0.0203722
0.02037
0.0203666
0.0203734
0.0203786
0.0203927
0.0203978
0.0204129
0.0204147
0.0204352
0.0262341
0.0261625
0.026164
0.0261228
0.0261161
0.0260737
0.0260435
0.0259823
0.0259174
0.0258183
0.025696
0.0255227
0.0252932
0.0249754
0.0245494
0.0239798
0.0232442
0.0223203
0.0212065
0.0199138
0.0184751
0.0169341
0.0153456
0.0137635
0.0122395
0.0108163
0.00952885
0.00840164
0.0074527
0.006693
0.00613012
0.00576815
0.00561038
0.00565869
0.00591505
0.00638013
0.00705326
0.00792994
0.00899974
0.0102426
0.0116251
0.0130979
0.0145941
0.0160342
0.0173333
0.0184194
0.0192456
0.0198084
0.0201396
0.0203032
0.0203608
0.0203715
0.0203614
0.0203541
0.0203449
0.0203456
0.0203407
0.0203475
0.0203449
0.0203615
0.0261521
0.0260731
0.0260766
0.026032
0.0260252
0.0259779
0.0259425
0.0258699
0.0257883
0.0256606
0.0254938
0.0252504
0.024916
0.0244457
0.0238094
0.0229644
0.0218892
0.0205712
0.0190286
0.0172971
0.0154363
0.0135116
0.0115924
0.00973849
0.00800058
0.00641441
0.00500553
0.00378826
0.00277129
0.00195768
0.0013492
0.00094592
0.000749058
0.000760154
0.000982832
0.00142165
0.00208273
0.00297187
0.00409311
0.00544502
0.00701585
0.0087775
0.0106784
0.0126401
0.0145571
0.0163103
0.0177864
0.0189109
0.0196653
0.0200998
0.0202987
0.0203632
0.0203609
0.0203414
0.0203151
0.0202982
0.0202796
0.0202753
0.0202665
0.0202794
0.0260332
0.0259474
0.0259526
0.0259044
0.0258965
0.0258427
0.0257993
0.0257108
0.0256044
0.0254349
0.0252024
0.0248572
0.0243724
0.0236902
0.0227727
0.0215768
0.0200933
0.0183325
0.0163431
0.014192
0.0119637
0.00973863
0.00759018
0.0055727
0.0037258
0.00207159
0.000622478
-0.00061864
-0.00165171
-0.00247995
-0.00310554
-0.00353091
-0.00375614
-0.00378038
-0.00360001
-0.0032098
-0.00260156
-0.00176516
-0.000688438
0.000640732
0.00223098
0.00408202
0.00617491
0.00846272
0.0108585
0.0132344
0.0154299
0.017286
0.0186861
0.0196035
0.0201008
0.020308
0.0203517
0.0203315
0.0202886
0.0202511
0.0202151
0.020197
0.02018
0.0201893
0.0258674
0.0257748
0.0257809
0.0257279
0.0257167
0.0256533
0.0255969
0.0254849
0.0253418
0.0251122
0.0247866
0.0243
0.023613
0.0226566
0.0213925
0.0197891
0.0178629
0.0156587
0.013261
0.0107646
0.00826978
0.00585806
0.00359377
0.00151551
-0.000354185
-0.00200906
-0.00344892
-0.00467956
-0.00570604
-0.00653423
-0.00716709
-0.00760703
-0.00785375
-0.00790632
-0.00776153
-0.00741513
-0.00686033
-0.00608801
-0.00508571
-0.00383748
-0.00232511
-0.000530049
0.00155871
0.00393614
0.0065626
0.00935021
0.0121479
0.0147542
0.0169526
0.0185842
0.0196077
0.020121
0.0202951
0.0203055
0.0202541
0.0201952
0.0201397
0.0201051
0.0200784
0.0200835
0.0256516
0.0255527
0.0255591
0.0255002
0.0254834
0.0254071
0.0253321
0.0251878
0.0249939
0.0246822
0.0242309
0.0235591
0.022616
0.0213287
0.0196696
0.0176326
0.0152719
0.0126714
0.00994753
0.00721124
0.00456288
0.00207105
-0.000219261
-0.00229024
-0.00413685
-0.00576599
-0.00718539
-0.00840486
-0.00943017
-0.0102661
-0.0109135
-0.0113726
-0.011641
-0.0117169
-0.0115969
-0.0112783
-0.0107567
-0.0100267
-0.00908023
-0.00790494
-0.00648415
-0.0047946
-0.00281118
-0.000509165
0.00211857
0.00504651
0.0081848
0.0113639
0.0143333
0.0168166
0.0186059
0.0196625
0.0201274
0.0202394
0.0202023
0.0201258
0.0200494
0.0199957
0.0199578
0.0199573
0.0253752
0.0252704
0.0252754
0.0252085
0.0251823
0.0250878
0.0249862
0.0247977
0.0245349
0.0241151
0.0235027
0.022602
0.0213563
0.0196988
0.0176258
0.0151685
0.0124241
0.00951143
0.00656614
0.00369875
0.000994887
-0.00149989
-0.00376389
-0.00579912
-0.00761407
-0.0092235
-0.0106379
-0.0118664
-0.012912
-0.0137757
-0.0144541
-0.0149437
-0.0152394
-0.0153374
-0.0152342
-0.0149276
-0.0144161
-0.0136983
-0.012772
-0.0116315
-0.0102678
-0.00866291
-0.00679296
-0.00462322
-0.00212053
0.000740764
0.00394423
0.0074037
0.0109227
0.0141977
0.0168841
0.0187318
0.0197276
0.0200835
0.0201126
0.0200318
0.019936
0.01986
0.0198094
0.0198009
0.0250375
0.0249277
0.0249298
0.0248531
0.0248135
0.0246958
0.0245591
0.0243139
0.0239633
0.0234088
0.022601
0.0214334
0.0198518
0.0178076
0.0153328
0.0125021
0.00945239
0.00632528
0.00325888
0.000347983
-0.00234653
-0.00480554
-0.0070288
-0.00903329
-0.0108352
-0.0124516
-0.0138912
-0.0151594
-0.0162536
-0.0171694
-0.0178984
-0.0184327
-0.0187639
-0.0188861
-0.0187946
-0.0184881
-0.017967
-0.0172334
-0.0162911
-0.0151413
-0.0137845
-0.0122123
-0.0104109
-0.00835021
-0.005993
-0.00328868
-0.000201711
0.00326849
0.00702805
0.0108478
0.0143581
0.0171375
0.0189209
0.0197526
0.0199556
0.0199017
0.0197937
0.0196914
0.0196264
0.0196058
0.0246291
0.0245146
0.0245114
0.0244219
0.0243637
0.0242158
0.0240337
0.0237176
0.0232589
0.022544
0.0215115
0.0200509
0.0181202
0.0157
0.0128651
0.00973242
0.00646773
0.00321951
0.000112742
-0.00278381
-0.00543736
-0.00785304
-0.0100468
-0.0120445
-0.0138643
-0.0155215
-0.0170197
-0.0183582
-0.019528
-0.0205186
-0.0213161
-0.0219083
-0.0222834
-0.0224332
-0.0223524
-0.0220391
-0.0214958
-0.0207271
-0.0197413
-0.0185457
-0.0171498
-0.0155553
-0.0137618
-0.0117508
-0.00949566
-0.00694325
-0.00403701
-0.000717987
0.00301768
0.00706491
0.0111441
0.0147917
0.0175292
0.0190979
0.0196809
0.0197131
0.0196132
0.0194814
0.0193989
0.0193612
0.0241535
0.0240356
0.0240251
0.0239204
0.0238389
0.0236546
0.0234177
0.0230176
0.0224333
0.0215371
0.0202597
0.0184946
0.0162215
0.0134583
0.0103233
0.00696782
0.00357228
0.000276509
-0.00281843
-0.0056738
-0.00828297
-0.01067
-0.0128609
-0.0148847
-0.0167574
-0.0184892
-0.020077
-0.0215128
-0.0227808
-0.0238644
-0.0247444
-0.0254048
-0.0258306
-0.0260116
-0.0259415
-0.0256184
-0.0250459
-0.0242303
-0.0231839
-0.021918
-0.0204497
-0.0187888
-0.016948
-0.0149222
-0.0127017
-0.0102449
-0.00749848
-0.00437897
-0.000819673
0.00319094
0.00751725
0.0117881
0.0154549
0.0179557
0.0191865
0.019441
0.0193768
0.0192233
0.0191174
0.0190567
0.0236039
0.0234832
0.0234625
0.0233396
0.0232288
0.0230013
0.0226997
0.0222035
0.0214786
0.0203867
0.0188556
0.0167909
0.0142013
0.011145
0.00777921
0.00427761
0.000820744
-0.00247165
-0.00552758
-0.00833715
-0.010915
-0.0132979
-0.0155164
-0.0175982
-0.0195546
-0.0213887
-0.0230897
-0.0246423
-0.026024
-0.0272125
-0.0281843
-0.0289193
-0.0294002
-0.029615
-0.0295565
-0.0292227
-0.0286182
-0.0277505
-0.026635
-0.0252859
-0.0237261
-0.0219709
-0.0200442
-0.0179516
-0.0157021
-0.0132702
-0.0106208
-0.00767184
-0.0043323
-0.000512348
0.00378912
0.00836422
0.0127437
0.0162215
0.0183132
0.0190473
0.0190558
0.0189063
0.0187707
0.0186796
0.0229904
0.0228686
0.0228355
0.0226923
0.022548
0.0222722
0.0218987
0.0212979
0.0204236
0.0191305
0.0173492
0.015004
0.0121368
0.0088445
0.00531455
0.00173043
-0.00173897
-0.00500044
-0.00801124
-0.0107861
-0.013355
-0.015762
-0.0180377
-0.0202058
-0.0222707
-0.0242279
-0.0260588
-0.0277411
-0.0292462
-0.0305469
-0.0316156
-0.032429
-0.0329678
-0.0332179
-0.0331719
-0.0328271
-0.0321896
-0.0312677
-0.03008
-0.0286422
-0.0269824
-0.025119
-0.0230843
-0.0208917
-0.018566
-0.0160973
-0.0134745
-0.0106312
-0.00748202
-0.00390169
0.000207293
0.00480008
0.00958685
0.0138858
0.0169513
0.0184129
0.0186448
0.0184978
0.0183545
0.0182141
0.0223096
0.0221877
0.0221397
0.0219736
0.0217913
0.0214625
0.021011
0.0203003
0.0192732
0.0177822
0.0157651
0.0131697
0.0100716
0.00660137
0.00296628
-0.0006515
-0.0041025
-0.00732182
-0.0102931
-0.0130502
-0.0156332
-0.0180888
-0.0204448
-0.0227192
-0.0249087
-0.027001
-0.0289703
-0.030788
-0.0324205
-0.0338361
-0.0350038
-0.0358974
-0.0364954
-0.0367817
-0.0367486
-0.0363928
-0.0357222
-0.0347456
-0.033485
-0.0319574
-0.0301958
-0.0282199
-0.0260691
-0.0237601
-0.0213306
-0.0187824
-0.0161275
-0.0133208
-0.0102995
-0.00693586
-0.00308541
0.00133194
0.0062285
0.011065
0.0150699
0.0173839
0.018134
0.0179618
0.0178595
0.0176426
0.0215791
0.0214592
0.021395
0.0212054
0.0209825
0.0205989
0.0200674
0.0192468
0.0180708
0.0163937
0.0141642
0.0113559
0.00807527
0.00447943
0.000785657
-0.00283344
-0.00625142
-0.00943019
-0.0123752
-0.0151341
-0.0177527
-0.0202772
-0.0227307
-0.0251246
-0.0274479
-0.0296811
-0.0317922
-0.0337472
-0.035508
-0.0370392
-0.038307
-0.0392817
-0.0399399
-0.0402632
-0.0402437
-0.0398771
-0.0391734
-0.0381416
-0.0368082
-0.035191
-0.0333286
-0.031241
-0.0289741
-0.0265449
-0.0240008
-0.0213499
-0.018624
-0.0157975
-0.0128377
-0.0096339
-0.00603536
-0.00188619
0.00288925
0.00796766
0.0126986
0.0159133
0.0174084
0.0173129
0.0172421
0.0169583
0.0207988
0.0206824
0.0206003
0.0203863
0.0201207
0.0196815
0.0190701
0.0181433
0.0168275
0.0149827
0.0125701
0.00958885
0.00617168
0.00249463
-0.00122322
-0.00482363
-0.00820374
-0.0113488
-0.0142812
-0.0170581
-0.0197275
-0.0223331
-0.0248928
-0.0274108
-0.0298693
-0.0322425
-0.0344929
-0.0365823
-0.0384691
-0.0401143
-0.0414812
-0.0425368
-0.0432556
-0.0436164
-0.0436111
-0.0432339
-0.0424974
-0.0414105
-0.0400051
-0.0382991
-0.0363381
-0.0341417
-0.0317627
-0.0292165
-0.0265587
-0.0237981
-0.0209821
-0.0180989
-0.0151462
-0.0120393
-0.00864686
-0.00478371
-0.000267163
0.00480142
0.00995526
0.0140272
0.0163138
0.0165778
0.016448
0.0161568
0.0199934
0.0198833
0.0197832
0.0195463
0.0192385
0.018746
0.0180589
0.0170345
0.0155939
0.0136051
0.0110424
0.00792798
0.00441511
0.000691714
-0.00302725
-0.00659988
-0.00994501
-0.0130668
-0.0160005
-0.0188085
-0.0215393
-0.024233
-0.0269018
-0.0295434
-0.0321341
-0.0346425
-0.0370273
-0.0392464
-0.0412555
-0.043012
-0.0444766
-0.0456125
-0.0463921
-0.0467909
-0.0468007
-0.0464137
-0.0456455
-0.0445045
-0.0430285
-0.0412354
-0.0391789
-0.0368774
-0.0343923
-0.0317359
-0.0289715
-0.0261049
-0.0231952
-0.0202378
-0.0172563
-0.0141933
-0.0109491
-0.00734582
-0.0031417
0.00172989
0.00702592
0.0117704
0.014818
0.0157065
0.0154743
0.0152192
0.0191641
0.0190618
0.0189436
0.0186847
0.0183357
0.0177935
0.0170365
0.0159261
0.0143788
0.0122724
0.00959271
0.00638192
0.00280764
-0.000935871
-0.00464143
-0.00818302
-0.0114982
-0.0146057
-0.0175497
-0.0203958
-0.0231912
-0.0259721
-0.0287456
-0.0315035
-0.0342173
-0.0368513
-0.0393611
-0.0417015
-0.0438259
-0.0456883
-0.0472467
-0.04846
-0.049299
-0.0497351
-0.0497604
-0.0493645
-0.0485665
-0.0473734
-0.0458299
-0.0439529
-0.0418053
-0.0394039
-0.0368199
-0.0340616
-0.031201
-0.0282382
-0.0252418
-0.0222073
-0.01918
-0.016124
-0.0129761
-0.00958674
-0.00569267
-0.00113318
0.00409135
0.00922399
0.0129838
0.0145752
0.01436
0.0141094
0.0183411
0.0182497
0.0181151
0.0178379
0.0174512
0.0168653
0.0160478
0.0148662
0.0132333
0.0110376
0.00827385
0.00500019
0.00139279
-0.0023521
-0.00603668
-0.00954896
-0.0128414
-0.0159433
-0.0189046
-0.0217921
-0.0246515
-0.0275149
-0.030385
-0.0332489
-0.0360743
-0.0388221
-0.0414459
-0.0438976
-0.0461289
-0.0480899
-0.0497366
-0.0510234
-0.0519194
-0.0523915
-0.052433
-0.0520297
-0.0512052
-0.0499637
-0.048358
-0.0464025
-0.0441707
-0.0416763
-0.0390021
-0.0361514
-0.0332068
-0.0301602
-0.0270901
-0.0239862
-0.020911
-0.017842
-0.0147522
-0.011528
-0.00791403
-0.00371492
0.00128753
0.00652122
0.0108924
0.0131147
0.0131493
0.012814
0.0175231
0.017444
0.0172944
0.0170016
0.0165808
0.015958
0.01509
0.013853
0.0121564
0.00989911
0.00708176
0.00377408
0.000155844
-0.00357737
-0.00723731
-0.010723
-0.0139982
-0.0170989
-0.0200791
-0.0230052
-0.0259215
-0.0288565
-0.0318096
-0.0347639
-0.0376849
-0.0405305
-0.043253
-0.0458018
-0.0481272
-0.0501756
-0.0519016
-0.0532542
-0.0542023
-0.0547073
-0.0547644
-0.0543548
-0.0535076
-0.0522229
-0.0505621
-0.048536
-0.0462294
-0.0436514
-0.0408979
-0.0379658
-0.0349504
-0.031834
-0.028706
-0.0255458
-0.0224311
-0.019343
-0.0162893
-0.0131884
-0.00981608
-0.00597692
-0.00129567
0.00381416
0.00861857
0.0113537
0.0118363
0.0113423
0.0167441
0.0166803
0.016519
0.0162159
0.015767
0.015116
0.0142095
0.0129345
0.0111971
0.00890557
0.0060633
0.00274727
-0.000863459
-0.00457589
-0.00821042
-0.0116739
-0.0149375
-0.0180408
-0.0210397
-0.0239998
-0.0269641
-0.0299581
-0.032979
-0.036007
-0.0390062
-0.0419322
-0.0447368
-0.0473668
-0.049772
-0.0518947
-0.0536888
-0.0550983
-0.0560922
-0.0566262
-0.0566986
-0.0562846
-0.0554198
-0.0540987
-0.0523925
-0.050306
-0.0479369
-0.0452874
-0.042468
-0.0394674
-0.0363957
-0.0332241
-0.0300552
-0.0268542
-0.0237146
-0.0206113
-0.0175855
-0.0145773
-0.0114104
-0.00790376
-0.0036004
0.00123383
0.00623923
0.00936416
0.0103598
0.00970458
0.015996
0.0159483
0.0157777
0.0154681
0.0149965
0.0143255
0.0133925
0.0120963
0.0103399
0.00803987
0.00519846
0.00189619
-0.00169227
-0.00537721
-0.0089863
-0.0124305
-0.0156853
-0.0187909
-0.0218039
-0.0247885
-0.027787
-0.0308229
-0.0338923
-0.0369733
-0.0400296
-0.0430149
-0.0458811
-0.0485723
-0.0510387
-0.0532183
-0.0550658
-0.0565193
-0.05755
-0.0581068
-0.0581924
-0.0577749
-0.0568976
-0.0555474
-0.0538066
-0.0516719
-0.0492545
-0.0465477
-0.0436779
-0.0406233
-0.0375112
-0.0342993
-0.0311067
-0.0278813
-0.0247338
-0.0216254
-0.0186292
-0.0156948
-0.0127038
-0.00949189
-0.0055879
-0.0011212
0.00385144
0.0072343
0.00868294
0.00793004
0.0153151
0.0152861
0.0151108
0.014801
0.0143144
0.0136331
0.0126863
0.0113861
0.00963188
0.00734764
0.00453132
0.00126314
-0.00228963
-0.00594144
-0.00952557
-0.012954
-0.016203
-0.0193109
-0.0223337
-0.0253339
-0.0283534
-0.0314144
-0.0345134
-0.037627
-0.0407195
-0.0437426
-0.0466496
-0.0493813
-0.0518894
-0.0541076
-0.0559928
-0.0574768
-0.0585347
-0.0591077
-0.0592048
-0.0587853
-0.0579016
-0.056531
-0.054768
-0.0525987
-0.0501492
-0.0474012
-0.0444984
-0.0414059
-0.0382702
-0.0350332
-0.0318339
-0.0285996
-0.0254618
-0.0223606
-0.0194021
-0.0165321
-0.0136955
-0.0107402
-0.00723111
-0.00318007
0.00156775
0.00506546
0.00684851
0.00608281
0.0146826
0.0146716
0.0144946
0.0141887
0.0136933
0.0130101
0.0120613
0.0107728
0.00904075
0.00679494
0.00402604
0.000810819
-0.00269379
-0.00630658
-0.00986509
-0.013279
-0.0165226
-0.0196298
-0.0226549
-0.0256584
-0.0286827
-0.0317492
-0.0348561
-0.0379791
-0.0410842
-0.0441212
-0.0470452
-0.0497938
-0.0523215
-0.054557
-0.0564613
-0.0579595
-0.0590327
-0.0596131
-0.0597182
-0.0592965
-0.0584116
-0.0570284
-0.0552554
-0.0530652
-0.0506002
-0.0478274
-0.0449095
-0.0417955
-0.0386534
-0.0354063
-0.0322164
-0.0289872
-0.0258755
-0.0227939
-0.0198839
-0.0170752
-0.0143786
-0.0116455
-0.0085102
-0.00489009
-0.000500325
0.00296977
0.00496397
0.00425152
0.0141377
0.0141465
0.0139729
0.0136777
0.0131819
0.0125067
0.0115678
0.0103061
0.00861441
0.00642779
0.0037274
0.000583402
-0.00286002
-0.00642712
-0.00995853
-0.0133594
-0.0165989
-0.0197044
-0.0227271
-0.0257245
-0.0287402
-0.0317955
-0.0348911
-0.0380024
-0.0410984
-0.0441267
-0.0470456
-0.0497887
-0.052315
-0.0545473
-0.0564532
-0.05795
-0.0590272
-0.059607
-0.0597173
-0.0592939
-0.0584135
-0.0570262
-0.0552559
-0.0530587
-0.0505951
-0.0478141
-0.0448994
-0.0417801
-0.0386487
-0.0354054
-0.03224
-0.029028
-0.0259566
-0.0229052
-0.0200549
-0.0173074
-0.0147419
-0.012201
-0.00941052
-0.0062123
-0.00225958
0.00105676
0.00315138
0.00252514
0.0136465
0.0136729
0.0135054
0.0132243
0.0127346
0.0120749
0.0111567
0.00993532
0.00830126
0.00619375
0.00358256
0.000528753
-0.00283903
-0.00635133
-0.00985164
-0.013238
-0.0164726
-0.0195731
-0.0225869
-0.0255674
-0.0285599
-0.0315853
-0.0346492
-0.0377264
-0.0407905
-0.0437864
-0.0466772
-0.0493913
-0.0518942
-0.0541021
-0.055991
-0.0574696
-0.0585383
-0.0591075
-0.0592184
-0.058792
-0.0579199
-0.0565348
-0.054778
-0.0525856
-0.0501386
-0.047364
-0.0444692
-0.0413591
-0.0382542
-0.0350268
-0.0318991
-0.0287134
-0.0256939
-0.02268
-0.0198989
-0.0172127
-0.0147728
-0.0123982
-0.00992098
-0.00711857
-0.00364085
-0.000578239
0.00151551
0.000979564
0.0132546
0.0132993
0.0131432
0.0128828
0.0124079
0.011773
0.0108861
0.009717
0.00815516
0.00614377
0.00364064
0.000695366
-0.0025811
-0.00602776
-0.00949123
-0.0128617
-0.0160918
-0.0191876
-0.0221903
-0.0251483
-0.0281083
-0.031091
-0.0341075
-0.0371324
-0.0401456
-0.043089
-0.045932
-0.0485971
-0.0510582
-0.0532231
-0.0550796
-0.0565256
-0.0575755
-0.0581262
-0.0582345
-0.0578044
-0.0569449
-0.0555682
-0.0538352
-0.0516588
-0.0492427
-0.0464876
-0.0436282
-0.04054
-0.0374755
-0.0342738
-0.0311949
-0.0280416
-0.0250825
-0.0221098
-0.0194047
-0.0167783
-0.01446
-0.0122284
-0.0100338
-0.00759033
-0.00459738
-0.00185919
0.000137381
-0.00032331
0.0129087
0.0129678
0.0128245
0.0125868
0.0121327
0.0115294
0.010683
0.00957747
0.00810211
0.00620422
0.00382901
0.00101322
-0.00215281
-0.00551837
-0.008935
-0.0122839
-0.0155074
-0.0185966
-0.0215855
-0.0245148
-0.0274333
-0.0303601
-0.0333138
-0.0362681
-0.0392119
-0.0420826
-0.0448588
-0.0474553
-0.0498569
-0.0519614
-0.0537706
-0.0551697
-0.0561906
-0.0567137
-0.0568151
-0.0563783
-0.0555334
-0.0541681
-0.0524664
-0.0503132
-0.0479388
-0.0452128
-0.0424009
-0.0393435
-0.0363305
-0.0331606
-0.0301385
-0.0270197
-0.0241258
-0.0211934
-0.0185678
-0.0159965
-0.0137958
-0.011685
-0.00974433
-0.00761656
-0.00509921
-0.00272739
-0.00091866
-0.00132919
0.0126672
0.0127411
0.012615
0.0124061
0.0119813
0.0114179
0.010621
0.00958778
0.00820929
0.00643739
0.00420606
0.00153808
-0.00149828
-0.00476591
-0.00812335
-0.0114443
-0.0146596
-0.0177439
-0.0207216
-0.0236232
-0.0264986
-0.0293642
-0.032247
-0.0351194
-0.037981
-0.0407645
-0.04346
-0.0459732
-0.0483024
-0.0503333
-0.0520848
-0.0534269
-0.0544119
-0.054901
-0.0549933
-0.0545483
-0.0537206
-0.0523695
-0.050706
-0.0485821
-0.046259
-0.0435693
-0.040815
-0.0377948
-0.0348419
-0.0317067
-0.0287464
-0.0256604
-0.0228336
-0.0199362
-0.0173902
-0.0148656
-0.0127778
-0.0107654
-0.00905241
-0.00719311
-0.00512877
-0.00313787
-0.00159695
-0.00198526
0.0124515
0.0125344
0.0124253
0.0122453
0.0118546
0.0113369
0.0105976
0.00964589
0.00837573
0.00674437
0.00467528
0.00217763
-0.000704884
-0.00385093
-0.00713038
-0.0104102
-0.0136114
-0.016689
-0.0196567
-0.0225311
-0.025363
-0.0281632
-0.0309689
-0.033749
-0.0365176
-0.0392003
-0.0418028
-0.044219
-0.0464648
-0.0484101
-0.0500951
-0.0513706
-0.0523135
-0.0527621
-0.0528421
-0.0523854
-0.0515753
-0.0502379
-0.048616
-0.0465231
-0.0442568
-0.0416059
-0.0389155
-0.0359337
-0.0330454
-0.0299428
-0.0270457
-0.0239857
-0.0212241
-0.0183515
-0.0158821
-0.0133915
-0.0114106
-0.00947277
-0.00796326
-0.00632231
-0.00467816
-0.00305625
-0.00184499
-0.00223588
0.0123435
0.0124363
0.0123474
0.0122013
0.0118521
0.0113873
0.0107129
0.00984845
0.00869233
0.00720816
0.00531199
0.0030002
0.000292132
-0.00270999
-0.00589095
-0.00911505
-0.0122951
-0.015366
-0.0183291
-0.021184
-0.0239804
-0.0267206
-0.0294523
-0.0321393
-0.0348121
-0.037388
-0.0398917
-0.0422033
-0.04436
-0.0462129
-0.0478271
-0.0490308
-0.0499294
-0.0503338
-0.0504015
-0.0499311
-0.0491406
-0.0478167
-0.0462402
-0.0441792
-0.0419747
-0.0393634
-0.0367413
-0.0337966
-0.0309751
-0.0278998
-0.0250644
-0.0220202
-0.0193194
-0.0164575
-0.0140596
-0.0115865
-0.00970572
-0.00781689
-0.00648899
-0.00501384
-0.00374915
-0.00245849
-0.00161263
-0.0020222
0.0122294
0.0123248
0.0122539
0.0121392
0.0118347
0.0114276
0.0108255
0.0100566
0.00902388
0.00769856
0.00599042
0.00388596
0.00137881
-0.00144857
-0.00450214
-0.00764596
-0.0107899
-0.0138469
-0.0168071
-0.0196474
-0.0224168
-0.0251033
-0.0277672
-0.0303621
-0.0329395
-0.0354046
-0.0378064
-0.040007
-0.0420708
-0.0438254
-0.0453663
-0.0464932
-0.0473461
-0.0477022
-0.0477569
-0.0472694
-0.0464986
-0.045185
-0.0436547
-0.0416223
-0.0394807
-0.0369045
-0.034351
-0.0314365
-0.0286799
-0.0256206
-0.0228419
-0.0197978
-0.0171506
-0.014281
-0.0119476
-0.00947176
-0.00768438
-0.00581636
-0.00465095
-0.00328626
-0.00235492
-0.00133272
-0.000855141
-0.00128564
0.0122316
0.0123319
0.012281
0.0122014
0.0119468
0.0116032
0.0110786
0.0104078
0.00949927
0.00833248
0.00681473
0.0049254
0.00263529
5.851e-06
-0.00289358
-0.00593243
-0.00902268
-0.0120577
-0.0150171
-0.0178522
-0.0206094
-0.0232577
-0.0258696
-0.0283848
-0.0308774
-0.0332374
-0.0355424
-0.0376333
-0.0396067
-0.0412624
-0.0427321
-0.0437816
-0.044591
-0.044898
-0.0449421
-0.044436
-0.0436872
-0.0423816
-0.0408998
-0.0388927
-0.0368155
-0.0342693
-0.0317841
-0.0288908
-0.0261958
-0.0231389
-0.0204105
-0.0173486
-0.0147472
-0.0118491
-0.00957398
-0.00707279
-0.0053742
-0.00349681
-0.00247957
-0.00116763
-0.000522577
0.000316936
0.000459029
2.39145e-05
0.0121834
0.0122799
0.012245
0.0121956
0.0119923
0.0117162
0.0112766
0.0107129
0.00993729
0.00893889
0.0076223
0.00596521
0.00391518
0.00151627
-0.00119345
-0.00409031
-0.00709831
-0.0100908
-0.013043
-0.0158741
-0.0186308
-0.0212542
-0.0238318
-0.0262807
-0.0287032
-0.0309662
-0.0331837
-0.035168
-0.0370565
-0.0386137
-0.0400161
-0.0409871
-0.0417563
-0.042012
-0.0420481
-0.0415197
-0.0407942
-0.0394913
-0.0380578
-0.0360684
-0.0340539
-0.0315268
-0.0291057
-0.0262188
-0.0235782
-0.0205045
-0.0178171
-0.014715
-0.0121507
-0.00920031
-0.00697825
-0.00442641
-0.00281508
-0.000895365
-1.82193e-05
0.001302
0.0017037
0.00246645
0.00233813
0.00193685
0.0122738
0.0123712
0.0123537
0.0123372
0.0121873
0.0119813
0.0116285
0.0111708
0.0105239
0.00968625
0.00856271
0.00713319
0.0053268
0.00317318
0.000677727
-0.00204652
-0.00494335
-0.00787089
-0.0108052
-0.0136327
-0.0164011
-0.0190176
-0.021585
-0.0239908
-0.0263675
-0.0285529
-0.0307015
-0.0325919
-0.0344087
-0.0358748
-0.0372193
-0.0381159
-0.0388522
-0.039058
-0.0390913
-0.0385396
-0.037841
-0.0365368
-0.0351534
-0.0331746
-0.0312222
-0.0287034
-0.026343
-0.0234471
-0.0208544
-0.0177443
-0.0150902
-0.0119255
-0.00939266
-0.00636633
-0.00419666
-0.00156836
-4.89784e-05
0.00194768
0.00268286
0.00407469
0.00426352
0.00507035
0.00475685
0.00445194
0.0122537
0.012341
0.0123358
0.0123457
0.0122496
0.0121183
0.0118611
0.0115211
0.0110133
0.0103473
0.00942431
0.00823398
0.00668518
0.00480284
0.00255381
4.49468e-05
-0.00270092
-0.00552488
-0.00841807
-0.0112269
-0.0140098
-0.0166275
-0.0192056
-0.0215876
-0.0239449
-0.026072
-0.0281753
-0.0299858
-0.0317488
-0.0331319
-0.0344315
-0.0352571
-0.0359697
-0.0361253
-0.036162
-0.0355829
-0.0349145
-0.0336011
-0.0322681
-0.0302879
-0.0283944
-0.0258673
-0.0235611
-0.0206353
-0.0180821
-0.0149117
-0.0122831
-0.00903071
-0.00652582
-0.00339836
-0.00128483
0.00144773
0.00286393
0.0049762
0.00555702
0.00708948
0.00707859
0.00806254
0.00765107
0.00752938
0.0124183
0.0125043
0.0125129
0.0125515
0.0125075
0.0124489
0.0122832
0.0120542
0.0116746
0.0111646
0.0104231
0.00945276
0.00814642
0.00653145
0.00453726
0.00226718
-0.00029734
-0.00298317
-0.00580816
-0.00857894
-0.0113724
-0.013997
-0.0166048
-0.0189856
-0.0213537
-0.0234499
-0.0255382
-0.0272924
-0.0290268
-0.0303438
-0.0316176
-0.0323824
-0.0330851
-0.0331949
-0.0332445
-0.0326373
-0.0320047
-0.0306768
-0.0293961
-0.0274045
-0.0255688
-0.0230189
-0.0207634
-0.0177893
-0.0152714
-0.01202
-0.00941509
-0.00605369
-0.00358058
-0.000329256
0.00171646
0.00458139
0.00587408
0.00814395
0.00854371
0.0102901
0.0100658
0.011366
0.0109213
0.011093