/*--------------------------------*- C++ -*----------------------------------*\
| =========                 |                                                 |
| \\      /  F ield         | OpenFOAM: The Open Source CFD Toolbox           |
|  \\    /   O peration     | Version:  2406                                  |
|   \\  /    A nd           | Website:  www.openfoam.com                      |
|    \\/     M anipulation  |                                                 |
\*---------------------------------------------------------------------------*/
FoamFile
{
    version     2.0;
    format      ascii;
    arch        "LSB;label=32;scalar=64";
    class       volVectorField;
    location    "23.75";
    object      U;
}
// * * * * * * * * * * * * * * * * * * * * * * * * * * * * * * * * * * * * * //

dimensions      [0 1 -1 0 0 0 0];

internalField   nonuniform List<vector> 
14400
(
(-5.66151e-06 5.6301e-06 0)
(2.05509e-05 -1.4153e-05 0)
(0.000100443 -3.02327e-05 0)
(0.000213566 -4.17294e-05 0)
(0.000352725 -4.6688e-05 0)
(0.000499179 -4.84661e-05 0)
(0.000649173 -4.72898e-05 0)
(0.000792576 -4.48497e-05 0)
(0.000928361 -4.12833e-05 0)
(0.00105179 -3.7361e-05 0)
(0.00116309 -3.31348e-05 0)
(0.00126041 -2.89513e-05 0)
(0.00134445 -2.48161e-05 0)
(0.00141472 -2.08739e-05 0)
(0.00147202 -1.71052e-05 0)
(0.0015164 -1.35561e-05 0)
(0.00154852 -1.01915e-05 0)
(0.00156856 -7.00383e-06 0)
(0.00157687 -3.94087e-06 0)
(0.00157347 -9.56563e-07 0)
(0.00155828 2.02469e-06 0)
(0.0015309 5.08319e-06 0)
(0.00149068 8.32013e-06 0)
(0.0014366 1.18435e-05 0)
(0.0013673 1.5773e-05 0)
(0.00128102 2.02305e-05 0)
(0.00117562 2.5339e-05 0)
(0.00104857 3.12158e-05 0)
(0.000897005 3.79701e-05 0)
(0.000717732 4.56986e-05 0)
(0.000507299 5.44842e-05 0)
(0.000262041 6.43939e-05 0)
(-2.18512e-05 7.54776e-05 0)
(-0.000348266 8.77669e-05 0)
(-0.000721088 0.000101273 0)
(-0.00114412 0.000115985 0)
(-0.00162098 0.000131863 0)
(-0.00215501 0.000148841 0)
(-0.00274912 0.000166816 0)
(-0.00340572 0.000185648 0)
(-0.00412652 0.000205155 0)
(-0.00491244 0.000225112 0)
(-0.00576343 0.000245249 0)
(-0.00667836 0.000265254 0)
(-0.00765486 0.000284769 0)
(-0.00868926 0.0003034 0)
(-0.00977644 0.000320715 0)
(-0.0109098 0.000336258 0)
(-0.0120812 0.00034955 0)
(-0.013281 0.000360098 0)
(-0.014498 0.000367407 0)
(-0.0157196 0.000370988 0)
(-0.0169318 0.000370371 0)
(-0.0181194 0.000365109 0)
(-0.0192663 0.0003548 0)
(-0.0203554 0.000339088 0)
(-0.0213691 0.000317685 0)
(-0.0222893 0.000290379 0)
(-0.0230982 0.000257051 0)
(-0.023778 0.000217686 0)
(-0.0243117 0.000172396 0)
(-0.0246832 0.000121426 0)
(-0.024878 6.51762e-05 0)
(-0.0248833 4.20857e-06 0)
(-0.0246887 -6.07406e-05 0)
(-0.0242864 -0.000128757 0)
(-0.0236717 -0.000198751 0)
(-0.0228433 -0.000269466 0)
(-0.0218039 -0.000339495 0)
(-0.02056 -0.000407313 0)
(-0.0191226 -0.000471314 0)
(-0.0175067 -0.000529858 0)
(-0.0157318 -0.000581335 0)
(-0.0138213 -0.000624226 0)
(-0.0118024 -0.000657178 0)
(-0.00970533 -0.000679072 0)
(-0.0075628 -0.000689091 0)
(-0.00540919 -0.000686779 0)
(-0.00327954 -0.000672081 0)
(-0.00120856 -0.000645367 0)
(0.000770471 -0.000607433 0)
(0.00262675 -0.000559477 0)
(0.00433293 -0.000503051 0)
(0.00586604 -0.000439984 0)
(0.0072081 -0.000372298 0)
(0.00834666 -0.000302106 0)
(0.00927501 -0.000231503 0)
(0.00999215 -0.000162469 0)
(0.0105025 -9.67792e-05 0)
(0.0108155 -3.5933e-05 0)
(0.0109448 1.88947e-05 0)
(0.0109073 6.68761e-05 0)
(0.0107228 0.000107533 0)
(0.0104122 0.000140714 0)
(0.00999731 0.00016656 0)
(0.00949982 0.000185452 0)
(0.00894037 0.000197962 0)
(0.00833823 0.000204789 0)
(0.0077107 0.000206715 0)
(0.00707298 0.000204544 0)
(0.00643788 0.000199084 0)
(0.00581598 0.000191083 0)
(0.00521542 0.000181254 0)
(0.00464249 0.000170202 0)
(0.00410119 0.000158502 0)
(0.00359429 0.000146582 0)
(0.00312247 0.000134889 0)
(0.00268601 0.000123663 0)
(0.00228311 0.000113244 0)
(0.00191282 0.000103629 0)
(0.0015718 9.50478e-05 0)
(0.00125961 8.70787e-05 0)
(0.000972815 7.97918e-05 0)
(0.000713986 7.20028e-05 0)
(0.000481746 6.36177e-05 0)
(0.000284875 5.21836e-05 0)
(0.000126363 3.80558e-05 0)
(2.14275e-05 1.78365e-05 0)
(-2.58651e-05 -2.28165e-06 0)
(-1.72199e-05 -1.69597e-05 0)
(1.39432e-05 -2.04398e-05 0)
(0.000118368 -0.000118788 0)
(0.000325767 -0.000197317 0)
(0.000595271 -0.000254302 0)
(0.000916506 -0.000283656 0)
(0.00125506 -0.000295101 0)
(0.00160097 -0.000291003 0)
(0.00193387 -0.000277598 0)
(0.00224847 -0.000257061 0)
(0.00253451 -0.000232691 0)
(0.00279012 -0.00020575 0)
(0.00301085 -0.00017782 0)
(0.00319652 -0.000149472 0)
(0.00334552 -0.000121351 0)
(0.00345823 -9.36013e-05 0)
(0.00353407 -6.63702e-05 0)
(0.00357329 -3.95461e-05 0)
(0.00357536 -1.29852e-05 0)
(0.00353987 1.36163e-05 0)
(0.00346569 4.06221e-05 0)
(0.00335134 6.85181e-05 0)
(0.00319457 9.78635e-05 0)
(0.00299243 0.000129312 0)
(0.00274109 0.000163576 0)
(0.00243586 0.000201416 0)
(0.00207108 0.000243608 0)
(0.00164021 0.000290916 0)
(0.00113581 0.000344056 0)
(0.000549705 0.000403672 0)
(-0.000126958 0.000470306 0)
(-0.000903486 0.000544381 0)
(-0.00178948 0.000626175 0)
(-0.00279458 0.000715812 0)
(-0.00392827 0.000813244 0)
(-0.00519953 0.000918232 0)
(-0.00661662 0.00103033 0)
(-0.00818671 0.00114886 0)
(-0.00991555 0.0012729 0)
(-0.0118071 0.00140125 0)
(-0.0138634 0.00153246 0)
(-0.0160836 0.00166477 0)
(-0.0184644 0.00179615 0)
(-0.0209994 0.00192432 0)
(-0.0236786 0.00204675 0)
(-0.0264887 0.00216072 0)
(-0.0294127 0.00226335 0)
(-0.03243 0.00235168 0)
(-0.0355163 0.00242272 0)
(-0.0386441 0.0024735 0)
(-0.0417827 0.00250119 0)
(-0.0448988 0.0025031 0)
(-0.0479566 0.00247683 0)
(-0.0509186 0.00242025 0)
(-0.0537462 0.00233164 0)
(-0.0563999 0.0022097 0)
(-0.0588405 0.00205359 0)
(-0.0610293 0.00186304 0)
(-0.0629289 0.0016383 0)
(-0.0645039 0.00138024 0)
(-0.0657214 0.00109039 0)
(-0.0665518 0.000770884 0)
(-0.0669691 0.000424584 0)
(-0.0669519 5.50182e-05 0)
(-0.0664835 -0.000333586 0)
(-0.0655525 -0.000736321 0)
(-0.0641537 -0.00114762 0)
(-0.0622877 -0.00156133 0)
(-0.0599621 -0.00197073 0)
(-0.057191 -0.0023687 0)
(-0.0539959 -0.00274781 0)
(-0.0504049 -0.00310048 0)
(-0.0464535 -0.00341919 0)
(-0.0421837 -0.00369671 0)
(-0.037644 -0.00392632 0)
(-0.0328883 -0.00410209 0)
(-0.0279757 -0.00421912 0)
(-0.0229692 -0.0042738 0)
(-0.0179343 -0.00426403 0)
(-0.0129381 -0.00418939 0)
(-0.0080475 -0.00405129 0)
(-0.00332759 -0.00385293 0)
(0.00115974 -0.00359934 0)
(0.00535764 -0.00329721 0)
(0.0092157 -0.00295467 0)
(0.0126914 -0.00258098 0)
(0.0157511 -0.00218618 0)
(0.0183711 -0.00178065 0)
(0.0205379 -0.00137472 0)
(0.0222486 -0.000978177 0)
(0.0235104 -0.000599955 0)
(0.0243401 -0.00024775 0)
(0.024763 7.22085e-05 0)
(0.0248116 0.000355311 0)
(0.0245242 0.000598625 0)
(0.0239432 0.000800858 0)
(0.0231132 0.000962229 0)
(0.0220796 0.00108429 0)
(0.0208869 0.00116965 0)
(0.0195773 0.00122179 0)
(0.0181901 0.0012447 0)
(0.0167601 0.0012427 0)
(0.0153178 0.00122016 0)
(0.0138887 0.00118141 0)
(0.0124937 0.00113044 0)
(0.0111486 0.00107104 0)
(0.00986528 0.00100642 0)
(0.00865093 0.000939559 0)
(0.00751054 0.000872616 0)
(0.00644455 0.000807635 0)
(0.00545378 0.000745375 0)
(0.00453464 0.000686691 0)
(0.0036878 0.000630207 0)
(0.00290922 0.000575256 0)
(0.00220487 0.000517223 0)
(0.00157437 0.00045421 0)
(0.00103457 0.000377627 0)
(0.000590356 0.000288143 0)
(0.00026844 0.00017672 0)
(6.80352e-05 6.61955e-05 0)
(-2.27328e-06 -2.57752e-05 0)
(2.98151e-05 -9.97686e-05 0)
(0.000196362 -0.000326004 0)
(0.000501934 -0.000502963 0)
(0.000882264 -0.000628379 0)
(0.00132636 -0.000696587 0)
(0.0017895 -0.000722204 0)
(0.00225911 -0.000712411 0)
(0.00270867 -0.000678662 0)
(0.00313022 -0.000627254 0)
(0.00350981 -0.000564872 0)
(0.00384358 -0.000495243 0)
(0.00412483 -0.000421699 0)
(0.00435194 -0.000345974 0)
(0.00452172 -0.0002694 0)
(0.00463327 -0.000192472 0)
(0.00468459 -0.000115398 0)
(0.00467451 -3.79237e-05 0)
(0.00460088 4.04339e-05 0)
(0.00446149 0.000120468 0)
(0.00425312 0.000203194 0)
(0.00397194 0.000289886 0)
(0.00361294 0.000382027 0)
(0.00317006 0.000481304 0)
(0.00263595 0.000589549 0)
(0.002002 0.000708685 0)
(0.00125825 0.000840649 0)
(0.000393531 0.000987305 0)
(-0.000604468 0.00115036 0)
(-0.00174897 0.00133128 0)
(-0.00305386 0.0015312 0)
(-0.00453334 0.00175088 0)
(-0.00620158 0.00199064 0)
(-0.00807225 0.00225027 0)
(-0.0101581 0.00252903 0)
(-0.0124703 0.0028256 0)
(-0.0150183 0.00313798 0)
(-0.0178085 0.00346351 0)
(-0.0208447 0.00379881 0)
(-0.0241268 0.00413977 0)
(-0.0276503 0.00448155 0)
(-0.0314064 0.00481861 0)
(-0.0353811 0.0051448 0)
(-0.0395554 0.00545343 0)
(-0.0439047 0.0057374 0)
(-0.0483993 0.00598935 0)
(-0.0530044 0.00620186 0)
(-0.0576805 0.00636759 0)
(-0.0623841 0.00647951 0)
(-0.0670681 0.00653109 0)
(-0.0716828 0.00651643 0)
(-0.0761766 0.0064305 0)
(-0.080497 0.00626919 0)
(-0.0845913 0.00602949 0)
(-0.0884079 0.00570954 0)
(-0.0918967 0.0053087 0)
(-0.0950098 0.00482759 0)
(-0.0977028 0.00426808 0)
(-0.0999348 0.00363333 0)
(-0.101669 0.00292774 0)
(-0.102874 0.00215699 0)
(-0.103522 0.00132796 0)
(-0.103592 0.000448722 0)
(-0.103069 -0.000471466 0)
(-0.101942 -0.00142224 0)
(-0.100209 -0.00239216 0)
(-0.0978723 -0.0033688 0)
(-0.0949414 -0.00433887 0)
(-0.0914328 -0.00528829 0)
(-0.0873699 -0.00620244 0)
(-0.0827828 -0.00706636 0)
(-0.0777086 -0.007865 0)
(-0.0721916 -0.00858357 0)
(-0.0662822 -0.00920791 0)
(-0.0600375 -0.00972491 0)
(-0.0535202 -0.0101229 0)
(-0.0467983 -0.0103922 0)
(-0.0399442 -0.0105255 0)
(-0.0330333 -0.0105183 0)
(-0.0261435 -0.010369 0)
(-0.0193532 -0.0100797 0)
(-0.0127401 -0.00965594 0)
(-0.0063797 -0.00910664 0)
(-0.000343314 -0.00844422 0)
(0.00530326 -0.00768416 0)
(0.0105015 -0.00684455 0)
(0.0152015 -0.00594551 0)
(0.0193633 -0.00500848 0)
(0.0229581 -0.00405543 0)
(0.0259683 -0.00310807 0)
(0.0283888 -0.00218699 0)
(0.0302259 -0.00131097 0)
(0.0314976 -0.000496278 0)
(0.0322323 0.000243811 0)
(0.032468 0.000899376 0)
(0.03225 0.00146401 0)
(0.0316297 0.00193477 0)
(0.0306625 0.002312 0)
(0.0294056 0.00259898 0)
(0.0279161 0.00280142 0)
(0.0262495 0.00292695 0)
(0.0244576 0.00298456 0)
(0.0225879 0.00298399 0)
(0.0206821 0.00293533 0)
(0.0187763 0.00284845 0)
(0.0168997 0.00273285 0)
(0.0150763 0.0025971 0)
(0.0133229 0.00244903 0)
(0.0116529 0.00229492 0)
(0.0100727 0.00214017 0)
(0.00858853 0.00198775 0)
(0.00720001 0.00183972 0)
(0.00591145 0.00169422 0)
(0.00472047 0.00154907 0)
(0.00363694 0.00139582 0)
(0.00266109 0.00122885 0)
(0.00181588 0.00103333 0)
(0.00110467 0.000808363 0)
(0.000565419 0.000542057 0)
(0.000191408 0.000270997 0)
(2.06064e-05 2.54419e-05 0)
(4.13188e-05 -0.000212112 0)
(0.000253746 -0.000595327 0)
(0.000628397 -0.000883412 0)
(0.00108067 -0.00108025 0)
(0.0015994 -0.00118705 0)
(0.00213264 -0.00122351 0)
(0.00266757 -0.00120259 0)
(0.00317389 -0.0011407 0)
(0.00364241 -0.00104855 0)
(0.00405658 -0.00093626 0)
(0.00441095 -0.000810209 0)
(0.0046967 -0.000675559 0)
(0.0049105 -0.000535282 0)
(0.00504715 -0.000391394 0)
(0.00510388 -0.000244702 0)
(0.00507659 -9.5374e-05 0)
(0.00496189 5.71245e-05 0)
(0.0047552 0.000213798 0)
(0.00445169 0.000376154 0)
(0.0040452 0.000546117 0)
(0.00352868 0.000726035 0)
(0.00289358 0.000918624 0)
(0.00212999 0.00112692 0)
(0.00122638 0.00135416 0)
(0.000169696 0.00160372 0)
(-0.00105466 0.00187889 0)
(-0.00246262 0.00218276 0)
(-0.0040712 0.00251804 0)
(-0.00589815 0.00288688 0)
(-0.00796151 0.00329073 0)
(-0.010279 0.00373018 0)
(-0.0128675 0.00420486 0)
(-0.0157422 0.00471331 0)
(-0.0189161 0.00525293 0)
(-0.0223989 0.00581984 0)
(-0.0261966 0.00640889 0)
(-0.0303104 0.00701355 0)
(-0.0347362 0.00762599 0)
(-0.0394641 0.00823706 0)
(-0.0444774 0.00883642 0)
(-0.0497529 0.00941272 0)
(-0.0552608 0.00995377 0)
(-0.0609641 0.0104469 0)
(-0.06682 0.0108792 0)
(-0.0727797 0.0112379 0)
(-0.0787899 0.0115109 0)
(-0.0847933 0.0116866 0)
(-0.09073 0.0117551 0)
(-0.0965388 0.0117075 0)
(-0.102158 0.011537 0)
(-0.107527 0.0112384 0)
(-0.112587 0.0108086 0)
(-0.117283 0.0102464 0)
(-0.121561 0.00955283 0)
(-0.125375 0.00873051 0)
(-0.128681 0.00778413 0)
(-0.13144 0.00672004 0)
(-0.13362 0.00554624 0)
(-0.135193 0.00427225 0)
(-0.136135 0.00290903 0)
(-0.13643 0.00146892 0)
(-0.136065 -3.44793e-05 0)
(-0.135033 -0.00158628 0)
(-0.133333 -0.00317041 0)
(-0.130968 -0.00476964 0)
(-0.127947 -0.00636567 0)
(-0.124283 -0.00793922 0)
(-0.119997 -0.00947015 0)
(-0.115113 -0.0109377 0)
(-0.109664 -0.0123206 0)
(-0.103687 -0.0135977 0)
(-0.0972247 -0.0147479 0)
(-0.0903271 -0.0157511 0)
(-0.0830497 -0.0165884 0)
(-0.0754539 -0.0172428 0)
(-0.0676065 -0.0176998 0)
(-0.0595792 -0.017948 0)
(-0.0514479 -0.0179799 0)
(-0.0432913 -0.017792 0)
(-0.0351904 -0.0173855 0)
(-0.0272268 -0.0167667 0)
(-0.0194813 -0.0159468 0)
(-0.0120322 -0.0149419 0)
(-0.0049541 -0.013773 0)
(0.00168424 -0.012465 0)
(0.00782105 -0.0110464 0)
(0.0134032 -0.0095482 0)
(0.0183872 -0.00800312 0)
(0.0227408 -0.00644424 0)
(0.026443 -0.00490403 0)
(0.0294852 -0.00341319 0)
(0.0318708 -0.00199964 0)
(0.0336153 -0.000687581 0)
(0.0347456 0.000503221 0)
(0.035299 0.00155796 0)
(0.0353214 0.00246703 0)
(0.0348664 0.00322607 0)
(0.0339927 0.00383566 0)
(0.0327622 0.00430093 0)
(0.031238 0.00463078 0)
(0.0294822 0.00483721 0)
(0.0275542 0.00493439 0)
(0.025509 0.00493788 0)
(0.0233962 0.00486372 0)
(0.0212586 0.00472792 0)
(0.019133 0.00454551 0)
(0.0170481 0.00433054 0)
(0.0150281 0.00409482 0)
(0.0130884 0.0038485 0)
(0.0112434 0.00359805 0)
(0.00949898 0.00334785 0)
(0.00786553 0.00309651 0)
(0.00634403 0.00284105 0)
(0.00494952 0.00257003 0)
(0.00368265 0.00227435 0)
(0.00257238 0.00193391 0)
(0.00161898 0.0015448 0)
(0.000872944 0.00109175 0)
(0.000322994 0.000614219 0)
(4.53359e-05 0.000144219 0)
(4.67184e-05 -0.00035114 0)
(0.000285156 -0.000917603 0)
(0.000700503 -0.00132877 0)
(0.00119252 -0.00159946 0)
(0.00174851 -0.0017427 0)
(0.0023107 -0.0017841 0)
(0.00286627 -0.00174386 0)
(0.00338244 -0.00164328 0)
(0.00384956 -0.00149797 0)
(0.00424923 -0.00132136 0)
(0.00457481 -0.00112262 0)
(0.00481555 -0.000908639 0)
(0.00496629 -0.00068361 0)
(0.00501961 -0.000450091 0)
(0.00497041 -0.000209081 0)
(0.00481196 3.94782e-05 0)
(0.00453806 0.000296604 0)
(0.00414106 0.000564075 0)
(0.00361276 0.000844386 0)
(0.0029434 0.00114068 0)
(0.00212199 0.0014567 0)
(0.00113576 0.00179673 0)
(-2.96322e-05 0.00216544 0)
(-0.0013904 0.00256778 0)
(-0.00296435 0.00300872 0)
(-0.00477084 0.003493 0)
(-0.00683032 0.00402487 0)
(-0.00916398 0.00460776 0)
(-0.0117931 0.00524404 0)
(-0.0147383 0.00593472 0)
(-0.0180187 0.00667924 0)
(-0.0216511 0.00747526 0)
(-0.0256488 0.0083185 0)
(-0.030021 0.00920262 0)
(-0.0347712 0.0101192 0)
(-0.0398967 0.0110575 0)
(-0.0453879 0.0120049 0)
(-0.0512273 0.0129466 0)
(-0.0573893 0.0138662 0)
(-0.0638402 0.0147459 0)
(-0.0705383 0.0155667 0)
(-0.0774344 0.0163093 0)
(-0.0844731 0.0169545 0)
(-0.0915932 0.0174837 0)
(-0.0987298 0.0178795 0)
(-0.105816 0.0181265 0)
(-0.112783 0.0182112 0)
(-0.119563 0.0181231 0)
(-0.126091 0.0178541 0)
(-0.132304 0.0173992 0)
(-0.138145 0.0167565 0)
(-0.143559 0.0159266 0)
(-0.148499 0.0149128 0)
(-0.152921 0.0137211 0)
(-0.156789 0.0123593 0)
(-0.160071 0.0108374 0)
(-0.162738 0.00916689 0)
(-0.16477 0.00736095 0)
(-0.166149 0.00543408 0)
(-0.16686 0.00340205 0)
(-0.166894 0.00128184 0)
(-0.166245 -0.000908372 0)
(-0.16491 -0.00314923 0)
(-0.16289 -0.00542015 0)
(-0.160189 -0.00769935 0)
(-0.156817 -0.00996382 0)
(-0.152785 -0.0121894 0)
(-0.14811 -0.0143507 0)
(-0.142813 -0.0164217 0)
(-0.136921 -0.0183754 0)
(-0.130465 -0.0201846 0)
(-0.123484 -0.0218224 0)
(-0.116021 -0.0232622 0)
(-0.108126 -0.024479 0)
(-0.0998546 -0.0254499 0)
(-0.0912703 -0.0261548 0)
(-0.0824409 -0.0265771 0)
(-0.0734399 -0.0267052 0)
(-0.0643454 -0.0265322 0)
(-0.0552387 -0.0260574 0)
(-0.0462035 -0.0252864 0)
(-0.0373241 -0.0242311 0)
(-0.028684 -0.0229105 0)
(-0.0203642 -0.0213493 0)
(-0.0124416 -0.0195785 0)
(-0.00498738 -0.0176338 0)
(0.00193462 -0.015555 0)
(0.00826916 -0.0133846 0)
(0.0139708 -0.0111668 0)
(0.0190049 -0.0089458 0)
(0.0233481 -0.00676441 0)
(0.0269893 -0.00466289 0)
(0.0299291 -0.00267758 0)
(0.0321804 -0.000839801 0)
(0.0337672 0.000824994 0)
(0.0347247 0.00229786 0)
(0.0350973 0.0035667 0)
(0.0349375 0.00462629 0)
(0.0343041 0.00547798 0)
(0.0332605 0.0061291 0)
(0.0318716 0.00659219 0)
(0.030203 0.00688386 0)
(0.0283178 0.00702385 0)
(0.0262759 0.00703367 0)
(0.0241313 0.00693577 0)
(0.0219328 0.00675211 0)
(0.0197208 0.00650373 0)
(0.0175311 0.00620915 0)
(0.0153898 0.00588447 0)
(0.0133211 0.00554108 0)
(0.0113389 0.00518681 0)
(0.00946145 0.00482214 0)
(0.0076947 0.00444405 0)
(0.00606008 0.00403931 0)
(0.00455965 0.00359533 0)
(0.00322945 0.00308769 0)
(0.00206809 0.00250704 0)
(0.0011407 0.00183359 0)
(0.000434641 0.00109946 0)
(6.47947e-05 0.000329146 0)
(4.93779e-05 -0.000499152 0)
(0.000300113 -0.00125954 0)
(0.000731983 -0.0017948 0)
(0.00123533 -0.00213371 0)
(0.00179525 -0.0023046 0)
(0.00235029 -0.00234057 0)
(0.00288749 -0.00227009 0)
(0.00337276 -0.0021193 0)
(0.00379615 -0.00190862 0)
(0.00413803 -0.00165438 0)
(0.00439058 -0.00136824 0)
(0.00454122 -0.00105839 0)
(0.00458275 -0.000729944 0)
(0.00450523 -0.000385693 0)
(0.00430081 -2.65509e-05 0)
(0.00395965 0.000348044 0)
(0.00347217 0.000739856 0)
(0.00282702 0.00115171 0)
(0.00201206 0.00158737 0)
(0.00101323 0.00205147 0)
(-0.000184957 0.0025494 0)
(-0.00160001 0.00308722 0)
(-0.00325117 0.00367143 0)
(-0.00515955 0.00430867 0)
(-0.00734773 0.00500542 0)
(-0.00983948 0.00576759 0)
(-0.0126591 0.00660003 0)
(-0.0158306 0.00750614 0)
(-0.0193771 0.00848741 0)
(-0.0233193 0.00954303 0)
(-0.0276746 0.0106696 0)
(-0.0324559 0.0118608 0)
(-0.0376703 0.0131073 0)
(-0.043318 0.0143966 0)
(-0.0493909 0.0157131 0)
(-0.0558724 0.0170383 0)
(-0.0627365 0.0183508 0)
(-0.0699475 0.0196272 0)
(-0.0774607 0.0208421 0)
(-0.0852226 0.0219695 0)
(-0.0931723 0.0229829 0)
(-0.101243 0.0238567 0)
(-0.109364 0.0245667 0)
(-0.117461 0.0250911 0)
(-0.125462 0.0254113 0)
(-0.133293 0.0255119 0)
(-0.140886 0.0253815 0)
(-0.148176 0.0250127 0)
(-0.155104 0.024402 0)
(-0.161616 0.0235496 0)
(-0.167666 0.0224591 0)
(-0.173212 0.021137 0)
(-0.178218 0.0195925 0)
(-0.182656 0.0178369 0)
(-0.1865 0.0158835 0)
(-0.18973 0.0137468 0)
(-0.192328 0.0114427 0)
(-0.194281 0.00898798 0)
(-0.195576 0.00640064 0)
(-0.196206 0.00369944 0)
(-0.196163 0.000904157 0)
(-0.195442 -0.00196439 0)
(-0.19404 -0.00488422 0)
(-0.191956 -0.00783205 0)
(-0.189191 -0.0107832 0)
(-0.185749 -0.0137115 0)
(-0.181637 -0.0165893 0)
(-0.176864 -0.0193873 0)
(-0.171445 -0.0220749 0)
(-0.165398 -0.0246204 0)
(-0.158748 -0.026991 0)
(-0.151524 -0.0291538 0)
(-0.143761 -0.0310762 0)
(-0.135504 -0.0327267 0)
(-0.1268 -0.0340757 0)
(-0.117708 -0.0350964 0)
(-0.10829 -0.0357665 0)
(-0.0986185 -0.0360683 0)
(-0.0887689 -0.0359905 0)
(-0.0788231 -0.0355286 0)
(-0.0688668 -0.0346858 0)
(-0.0589879 -0.0334734 0)
(-0.0492751 -0.0319109 0)
(-0.0398161 -0.0300258 0)
(-0.0306955 -0.0278532 0)
(-0.0219933 -0.0254347 0)
(-0.013783 -0.0228174 0)
(-0.00613029 -0.0200526 0)
(0.000908188 -0.0171941 0)
(0.00728606 -0.0142968 0)
(0.0129678 -0.0114149 0)
(0.0179293 -0.00860018 0)
(0.0221581 -0.00590096 0)
(0.0256535 -0.0033603 0)
(0.0284265 -0.00101506 0)
(0.0304992 0.00110513 0)
(0.0319045 0.00297848 0)
(0.0326847 0.00459142 0)
(0.0328907 0.00593867 0)
(0.0325802 0.00702279 0)
(0.0318156 0.00785365 0)
(0.0306627 0.00844735 0)
(0.0291877 0.00882512 0)
(0.0274561 0.00901183 0)
(0.0255297 0.00903475 0)
(0.0234666 0.00892186 0)
(0.0213177 0.00870081 0)
(0.0191296 0.00839696 0)
(0.0169391 0.00803289 0)
(0.0147811 0.00762582 0)
(0.0126784 0.00718812 0)
(0.0106586 0.00672348 0)
(0.00873391 0.00622998 0)
(0.0069333 0.00569413 0)
(0.00526171 0.00510028 0)
(0.00376314 0.0044204 0)
(0.0024365 0.00363739 0)
(0.0013615 0.00272447 0)
(0.000526759 0.0016972 0)
(8.06034e-05 0.000564701 0)
(4.94152e-05 -0.000653226 0)
(0.000300242 -0.00161165 0)
(0.000728026 -0.00226827 0)
(0.00121836 -0.002668 0)
(0.00175388 -0.00285621 0)
(0.00227122 -0.00287473 0)
(0.002757 -0.00276107 0)
(0.00317653 -0.00254634 0)
(0.00351951 -0.0022557 0)
(0.00376539 -0.00190799 0)
(0.00390508 -0.00151698 0)
(0.00392414 -0.00109176 0)
(0.00381307 -0.000637963 0)
(0.00355916 -0.000158223 0)
(0.00315137 0.00034696 0)
(0.0025763 0.000878985 0)
(0.00182051 0.00144067 0)
(0.000868435 0.00203621 0)
(-0.000296569 0.00267089 0)
(-0.00169328 0.00335114 0)
(-0.00334215 0.00408421 0)
(-0.00526571 0.00487806 0)
(-0.0074882 0.00574099 0)
(-0.0100355 0.0066812 0)
(-0.0129344 0.00770628 0)
(-0.0162121 0.00882258 0)
(-0.0198952 0.0100346 0)
(-0.0240086 0.0113443 0)
(-0.0285741 0.0127506 0)
(-0.0336092 0.0142489 0)
(-0.0391255 0.0158304 0)
(-0.0451271 0.0174825 0)
(-0.0516096 0.0191879 0)
(-0.058559 0.0209253 0)
(-0.0659507 0.0226695 0)
(-0.0737494 0.0243918 0)
(-0.0819092 0.0260608 0)
(-0.0903743 0.0276433 0)
(-0.0990804 0.0291055 0)
(-0.107956 0.0304139 0)
(-0.116926 0.0315365 0)
(-0.125911 0.0324444 0)
(-0.134834 0.0331122 0)
(-0.143617 0.0335188 0)
(-0.152189 0.0336483 0)
(-0.160484 0.0334898 0)
(-0.168439 0.0330373 0)
(-0.176003 0.0322896 0)
(-0.183129 0.0312499 0)
(-0.189778 0.0299249 0)
(-0.195916 0.0283245 0)
(-0.201516 0.026461 0)
(-0.206556 0.0243487 0)
(-0.211015 0.0220033 0)
(-0.214878 0.0194417 0)
(-0.218133 0.0166813 0)
(-0.220766 0.0137406 0)
(-0.222768 0.0106384 0)
(-0.22413 0.00739411 0)
(-0.224844 0.00402794 0)
(-0.224901 0.000560929 0)
(-0.224294 -0.00298483 0)
(-0.223018 -0.00658597 0)
(-0.221067 -0.0102176 0)
(-0.218437 -0.0138531 0)
(-0.215126 -0.0174639 0)
(-0.211133 -0.0210194 0)
(-0.206461 -0.0244869 0)
(-0.201116 -0.0278318 0)
(-0.195109 -0.0310173 0)
(-0.188453 -0.0340055 0)
(-0.181169 -0.0367573 0)
(-0.173284 -0.0392332 0)
(-0.164833 -0.0413943 0)
(-0.155856 -0.0432036 0)
(-0.146404 -0.0446266 0)
(-0.136534 -0.0456331 0)
(-0.126315 -0.0461983 0)
(-0.11582 -0.0463042 0)
(-0.105131 -0.045941 0)
(-0.0943356 -0.0451077 0)
(-0.0835263 -0.0438132 0)
(-0.072798 -0.0420764 0)
(-0.0622462 -0.0399262 0)
(-0.0519648 -0.037401 0)
(-0.042044 -0.0345478 0)
(-0.0325681 -0.0314207 0)
(-0.0236138 -0.0280795 0)
(-0.0152488 -0.0245877 0)
(-0.00753041 -0.0210108 0)
(-0.00050483 -0.0174142 0)
(0.00579314 -0.0138612 0)
(0.0113404 -0.0104118 0)
(0.0161254 -0.00712068 0)
(0.0201483 -0.00403613 0)
(0.0234202 -0.00119879 0)
(0.0259628 0.00135917 0)
(0.0278083 0.00361467 0)
(0.0289979 0.00555406 0)
(0.0295812 0.00717304 0)
(0.0296146 0.00847634 0)
(0.0291599 0.00947688 0)
(0.0282819 0.0101947 0)
(0.0270476 0.0106557 0)
(0.0255222 0.0108898 0)
(0.0237701 0.0109294 0)
(0.0218495 0.0108077 0)
(0.0198162 0.0105563 0)
(0.0177163 0.0102041 0)
(0.0155949 0.00977478 0)
(0.013484 0.00928576 0)
(0.0114207 0.00874501 0)
(0.00942448 0.00815263 0)
(0.00753271 0.00749607 0)
(0.00575491 0.00675695 0)
(0.00414375 0.00590403 0)
(0.0027008 0.00491076 0)
(0.00151943 0.00374143 0)
(0.000591369 0.00238914 0)
(9.10237e-05 0.000842204 0)
(4.82801e-05 -0.000803531 0)
(0.000290455 -0.00195274 0)
(0.000696957 -0.00272015 0)
(0.00115276 -0.00316766 0)
(0.00163805 -0.00335864 0)
(0.00208959 -0.0033447 0)
(0.00249339 -0.00317278 0)
(0.00281505 -0.0028789 0)
(0.00304367 -0.00249264 0)
(0.00315802 -0.00203479 0)
(0.00314744 -0.00152069 0)
(0.00299549 -0.000959685 0)
(0.00268997 -0.000357443 0)
(0.00221508 0.000284055 0)
(0.00155612 0.000965129 0)
(0.000695731 0.00168839 0)
(-0.000383915 0.00245805 0)
(-0.00170301 0.00327993 0)
(-0.0032831 0.00416115 0)
(-0.00514804 0.00511004 0)
(-0.0073234 0.00613581 0)
(-0.00983672 0.00724824 0)
(-0.0127169 0.00845712 0)
(-0.0159938 0.00977163 0)
(-0.0196974 0.0111995 0)
(-0.0238565 0.0127464 0)
(-0.0284975 0.0144146 0)
(-0.0336431 0.0162028 0)
(-0.03931 0.0181047 0)
(-0.0455081 0.0201092 0)
(-0.0522379 0.0221996 0)
(-0.05949 0.0243534 0)
(-0.0672435 0.0265432 0)
(-0.0754656 0.0287363 0)
(-0.0841115 0.0308961 0)
(-0.0931252 0.0329829 0)
(-0.102441 0.0349554 0)
(-0.111983 0.036772 0)
(-0.121674 0.0383924 0)
(-0.13143 0.0397793 0)
(-0.141167 0.0408995 0)
(-0.150806 0.041725 0)
(-0.16027 0.0422338 0)
(-0.16949 0.0424104 0)
(-0.178402 0.0422451 0)
(-0.186953 0.0417344 0)
(-0.195096 0.0408801 0)
(-0.202792 0.0396883 0)
(-0.21001 0.0381691 0)
(-0.216722 0.0363353 0)
(-0.222908 0.0342022 0)
(-0.22855 0.0317863 0)
(-0.233633 0.0291053 0)
(-0.238146 0.0261777 0)
(-0.242077 0.023022 0)
(-0.245417 0.0196573 0)
(-0.248156 0.0161027 0)
(-0.250287 0.0123777 0)
(-0.2518 0.00850199 0)
(-0.252686 0.00449611 0)
(-0.252936 0.000381241 0)
(-0.252543 -0.00382023 0)
(-0.251495 -0.00808451 0)
(-0.249786 -0.012386 0)
(-0.247406 -0.0166972 0)
(-0.244347 -0.020988 0)
(-0.240603 -0.025226 0)
(-0.23617 -0.0293759 0)
(-0.231045 -0.0333998 0)
(-0.225229 -0.037257 0)
(-0.218726 -0.0409045 0)
(-0.211547 -0.0442974 0)
(-0.203706 -0.0473897 0)
(-0.195228 -0.050135 0)
(-0.186144 -0.0524877 0)
(-0.176492 -0.0544046 0)
(-0.166324 -0.0558464 0)
(-0.155699 -0.0567791 0)
(-0.144686 -0.0571761 0)
(-0.133366 -0.0570194 0)
(-0.121826 -0.0563016 0)
(-0.110163 -0.0550266 0)
(-0.0984781 -0.0532102 0)
(-0.0868756 -0.0508808 0)
(-0.0754606 -0.0480787 0)
(-0.0643362 -0.0448549 0)
(-0.0536003 -0.0412701 0)
(-0.0433435 -0.0373925 0)
(-0.033647 -0.0332955 0)
(-0.0245809 -0.0290556 0)
(-0.0162032 -0.0247498 0)
(-0.0085591 -0.0204536 0)
(-0.00168144 -0.0162387 0)
(0.0044095 -0.0121716 0)
(0.00970526 -0.00831182 0)
(0.0142087 -0.00471097 0)
(0.0179333 -0.00141164 0)
(0.0209027 0.0015533 0)
(0.0231497 0.00416112 0)
(0.0247162 0.00639949 0)
(0.0256513 0.0082663 0)
(0.0260111 0.0097692 0)
(0.0258564 0.0109247 0)
(0.0252523 0.0117571 0)
(0.0242642 0.0122967 0)
(0.0229592 0.0125781 0)
(0.0214 0.012638 0)
(0.0196489 0.0125131 0)
(0.0177595 0.012238 0)
(0.0157855 0.0118421 0)
(0.0137675 0.0113483 0)
(0.0117519 0.0107694 0)
(0.00976583 0.0101081 0)
(0.00785539 0.00935369 0)
(0.00603607 0.00848554 0)
(0.00436924 0.00746942 0)
(0.00286103 0.00626821 0)
(0.00161627 0.0048358 0)
(0.000631096 0.00313952 0)
(9.73316e-05 0.00114439 0)
(4.58241e-05 -0.000948549 0)
(0.000271353 -0.00227514 0)
(0.000641442 -0.00313792 0)
(0.00104339 -0.00361688 0)
(0.00145512 -0.00379376 0)
(0.00181528 -0.00373045 0)
(0.00210922 -0.00348336 0)
(0.00230348 -0.00309323 0)
(0.00238629 -0.00259352 0)
(0.00233582 -0.00200642 0)
(0.00213944 -0.00134815 0)
(0.00177851 -0.000627742 0)
(0.00123769 0.000149688 0)
(0.000497696 0.000983293 0)
(-0.000460259 0.00187463 0)
(-0.00165789 0.0028279 0)
(-0.00311778 0.00384898 0)
(-0.00486506 0.00494561 0)
(-0.00692643 0.00612687 0)
(-0.00933082 0.00740306 0)
(-0.0121088 0.00878518 0)
(-0.0152923 0.0102845 0)
(-0.0189141 0.0119115 0)
(-0.0230067 0.0136754 0)
(-0.027601 0.0155826 0)
(-0.0327247 0.0176359 0)
(-0.0384007 0.0198334 0)
(-0.0446453 0.0221674 0)
(-0.0514657 0.0246238 0)
(-0.0588589 0.0271816 0)
(-0.0668098 0.0298131 0)
(-0.0752907 0.0324838 0)
(-0.0842603 0.0351534 0)
(-0.0936647 0.037777 0)
(-0.103438 0.0403064 0)
(-0.113506 0.0426921 0)
(-0.123784 0.0448848 0)
(-0.134187 0.0468381 0)
(-0.144627 0.0485098 0)
(-0.155018 0.0498632 0)
(-0.165279 0.0508689 0)
(-0.175336 0.0515045 0)
(-0.185122 0.0517554 0)
(-0.194581 0.0516141 0)
(-0.203663 0.0510796 0)
(-0.212329 0.0501565 0)
(-0.220546 0.0488541 0)
(-0.228286 0.0471851 0)
(-0.235531 0.0451653 0)
(-0.242261 0.042812 0)
(-0.248465 0.0401438 0)
(-0.25413 0.0371801 0)
(-0.259248 0.0339403 0)
(-0.26381 0.0304442 0)
(-0.267809 0.0267112 0)
(-0.271238 0.0227608 0)
(-0.27409 0.0186121 0)
(-0.276358 0.0142846 0)
(-0.278035 0.00979792 0)
(-0.279113 0.00517204 0)
(-0.279583 0.000427867 0)
(-0.279437 -0.00441261 0)
(-0.278664 -0.00932588 0)
(-0.277254 -0.0142866 0)
(-0.275195 -0.019267 0)
(-0.272476 -0.0242367 0)
(-0.269085 -0.0291625 0)
(-0.265009 -0.0340077 0)
(-0.26024 -0.038732 0)
(-0.254766 -0.043292 0)
(-0.248583 -0.0476405 0)
(-0.241687 -0.0517278 0)
(-0.234081 -0.0555013 0)
(-0.225775 -0.0589072 0)
(-0.216784 -0.0618913 0)
(-0.207136 -0.0644007 0)
(-0.196866 -0.0663854 0)
(-0.186023 -0.0678003 0)
(-0.174667 -0.0686074 0)
(-0.162873 -0.0687782 0)
(-0.150725 -0.0682952 0)
(-0.13832 -0.0671538 0)
(-0.125764 -0.065364 0)
(-0.113172 -0.0629505 0)
(-0.100659 -0.0599529 0)
(-0.0883457 -0.056425 0)
(-0.0763459 -0.0524331 0)
(-0.0647691 -0.0480536 0)
(-0.0537149 -0.0433709 0)
(-0.0432708 -0.0384737 0)
(-0.0335103 -0.0334524 0)
(-0.0244926 -0.0283961 0)
(-0.0162613 -0.0233901 0)
(-0.00884602 -0.0185138 0)
(-0.00226241 -0.0138389 0)
(0.00348625 -0.00942828 0)
(0.00840797 -0.00533489 0)
(0.0125211 -0.00160133 0)
(0.015853 0.00174074 0)
(0.0184399 0.00467077 0)
(0.0203255 0.00717932 0)
(0.0215605 0.00926779 0)
(0.0222013 0.0109478 0)
(0.0223093 0.0122402 0)
(0.0219485 0.0131736 0)
(0.0211857 0.0137827 0)
(0.0200858 0.0141061 0)
(0.0187147 0.0141838 0)
(0.0171314 0.0140546 0)
(0.0153964 0.0137532 0)
(0.0135576 0.0133071 0)
(0.0116697 0.0127341 0)
(0.0097673 0.0120399 0)
(0.00790508 0.0112159 0)
(0.00610549 0.0102396 0)
(0.0044381 0.00907402 0)
(0.00291513 0.00767114 0)
(0.00165019 0.00597401 0)
(0.000644512 0.00392358 0)
(9.90169e-05 0.00146094 0)
(4.25078e-05 -0.00108219 0)
(0.00024454 -0.00256438 0)
(0.000564321 -0.00350083 0)
(0.000894278 -0.00399003 0)
(0.00121025 -0.00413239 0)
(0.00145452 -0.00400021 0)
(0.0016118 -0.00365908 0)
(0.00165023 -0.00315389 0)
(0.00155689 -0.00252133 0)
(0.00130933 -0.00178413 0)
(0.00089248 -0.000958693 0)
(0.000285216 -5.29554e-05 0)
(-0.000531479 0.000929077 0)
(-0.00158072 0.00198821 0)
(-0.00288581 0.00312764 0)
(-0.00447314 0.00435348 0)
(-0.00637034 0.00567353 0)
(-0.00860759 0.00709758 0)
(-0.0112167 0.00863662 0)
(-0.0142313 0.0103027 0)
(-0.0176864 0.0121083 0)
(-0.0216175 0.014065 0)
(-0.0260593 0.0161832 0)
(-0.0310446 0.0184701 0)
(-0.0366025 0.0209287 0)
(-0.0427562 0.0235565 0)
(-0.0495206 0.0263441 0)
(-0.056901 0.0292743 0)
(-0.0648901 0.0323219 0)
(-0.0734677 0.0354532 0)
(-0.0825989 0.0386268 0)
(-0.0922345 0.0417943 0)
(-0.102312 0.0449024 0)
(-0.112756 0.0478943 0)
(-0.123485 0.0507122 0)
(-0.134407 0.0533 0)
(-0.14543 0.0556053 0)
(-0.156464 0.0575814 0)
(-0.167422 0.0591892 0)
(-0.178221 0.060398 0)
(-0.188792 0.0611859 0)
(-0.19907 0.0615395 0)
(-0.209003 0.0614534 0)
(-0.218548 0.0609291 0)