/*--------------------------------*- C++ -*----------------------------------*\
| =========                 |                                                 |
| \\      /  F ield         | OpenFOAM: The Open Source CFD Toolbox           |
|  \\    /   O peration     | Version:  2406                                  |
|   \\  /    A nd           | Website:  www.openfoam.com                      |
|    \\/     M anipulation  |                                                 |
\*---------------------------------------------------------------------------*/
FoamFile
{
    version     2.0;
    format      ascii;
    arch        "LSB;label=32;scalar=64";
    class       volVectorField;
    location    "14.65";
    object      Uold;
}
// * * * * * * * * * * * * * * * * * * * * * * * * * * * * * * * * * * * * * //

dimensions      [0 1 -1 0 0 0 0];

internalField   nonuniform List<vector> 
14400
(
(3.88938e-06 -3.80939e-06 0)
(1.76391e-05 -6.41143e-06 0)
(3.2306e-05 -5.17035e-06 0)
(3.82127e-05 -1.89522e-06 0)
(3.43616e-05 1.61434e-06 0)
(1.97422e-05 4.91914e-06 0)
(-4.05119e-06 7.55959e-06 0)
(-3.55861e-05 9.6547e-06 0)
(-7.31754e-05 1.11561e-05 0)
(-0.000115319 1.22582e-05 0)
(-0.000160916 1.3012e-05 0)
(-0.000209021 1.35741e-05 0)
(-0.000259145 1.40008e-05 0)
(-0.000310904 1.4393e-05 0)
(-0.000364245 1.47857e-05 0)
(-0.000419159 1.52319e-05 0)
(-0.000475831 1.57442e-05 0)
(-0.00053444 1.63429e-05 0)
(-0.000595253 1.70251e-05 0)
(-0.000658501 1.77927e-05 0)
(-0.00072444 1.86356e-05 0)
(-0.000793276 1.9547e-05 0)
(-0.000865211 2.05152e-05 0)
(-0.000940397 2.15311e-05 0)
(-0.00101897 2.25839e-05 0)
(-0.00110101 2.36651e-05 0)
(-0.00118661 2.47654e-05 0)
(-0.00127578 2.58777e-05 0)
(-0.00136856 2.69942e-05 0)
(-0.00146491 2.81084e-05 0)
(-0.00156481 2.92136e-05 0)
(-0.0016682 3.0303e-05 0)
(-0.00177498 3.13697e-05 0)
(-0.00188504 3.2406e-05 0)
(-0.00199825 3.34035e-05 0)
(-0.00211444 3.43527e-05 0)
(-0.00223339 3.5243e-05 0)
(-0.00235487 3.60619e-05 0)
(-0.00247858 3.67958e-05 0)
(-0.00260418 3.74288e-05 0)
(-0.00273129 3.79434e-05 0)
(-0.00285944 3.83201e-05 0)
(-0.00298812 3.85377e-05 0)
(-0.00311674 3.85728e-05 0)
(-0.00324463 3.84006e-05 0)
(-0.00337104 3.79951e-05 0)
(-0.00349513 3.7329e-05 0)
(-0.00361598 3.63745e-05 0)
(-0.0037326 3.51037e-05 0)
(-0.00384389 3.34895e-05 0)
(-0.00394868 3.15061e-05 0)
(-0.00404574 2.91299e-05 0)
(-0.00413376 2.63405e-05 0)
(-0.0042114 2.31218e-05 0)
(-0.00427726 1.94631e-05 0)
(-0.00432996 1.536e-05 0)
(-0.0043681 1.08157e-05 0)
(-0.00439033 5.84188e-06 0)
(-0.00439535 4.5991e-07 0)
(-0.00438199 -5.29864e-06 0)
(-0.00434916 -1.13913e-05 0)
(-0.00429597 -1.77645e-05 0)
(-0.0042217 -2.43534e-05 0)
(-0.00412586 -3.10827e-05 0)
(-0.00400822 -3.7867e-05 0)
(-0.00386884 -4.46124e-05 0)
(-0.00370807 -5.12182e-05 0)
(-0.00352659 -5.75787e-05 0)
(-0.00332541 -6.35862e-05 0)
(-0.00310585 -6.91335e-05 0)
(-0.00286957 -7.4117e-05 0)
(-0.00261852 -7.84401e-05 0)
(-0.00235495 -8.20161e-05 0)
(-0.00208133 -8.47712e-05 0)
(-0.00180032 -8.66475e-05 0)
(-0.00151475 -8.76049e-05 0)
(-0.00122753 -8.76228e-05 0)
(-0.000941603 -8.67015e-05 0)
(-0.000659882 -8.48618e-05 0)
(-0.000385188 -8.21449e-05 0)
(-0.000120189 -7.86112e-05 0)
(0.000132649 -7.43378e-05 0)
(0.000371114 -6.94163e-05 0)
(0.000593285 -6.39495e-05 0)
(0.000797564 -5.80478e-05 0)
(0.000982693 -5.18259e-05 0)
(0.00114777 -4.53988e-05 0)
(0.00129223 -3.88787e-05 0)
(0.00141585 -3.23716e-05 0)
(0.00151874 -2.59748e-05 0)
(0.00160129 -1.97746e-05 0)
(0.00166414 -1.3845e-05 0)
(0.00170814 -8.2462e-06 0)
(0.00173436 -3.02509e-06 0)
(0.00174395 1.78589e-06 0)
(0.00173821 6.16648e-06 0)
(0.00171845 1.01099e-05 0)
(0.00168603 1.36186e-05 0)
(0.00164229 1.67067e-05 0)
(0.00158852 1.93931e-05 0)
(0.00152596 2.17075e-05 0)
(0.00145577 2.36775e-05 0)
(0.00137899 2.53428e-05 0)
(0.00129664 2.67313e-05 0)
(0.00120949 2.78877e-05 0)
(0.00111843 2.88295e-05 0)
(0.001024 2.96031e-05 0)
(0.000927041 3.01991e-05 0)
(0.000827891 3.06635e-05 0)
(0.000727543 3.09317e-05 0)
(0.000626234 3.10479e-05 0)
(0.000525499 3.08378e-05 0)
(0.000425648 3.03428e-05 0)
(0.000329421 2.91649e-05 0)
(0.000237557 2.73433e-05 0)
(0.000155011 2.40219e-05 0)
(8.35649e-05 1.93375e-05 0)
(3.11231e-05 1.17942e-05 0)
(6.24678e-08 3.23509e-06 0)
(-5.052e-06 -5.01953e-06 0)
(6.73958e-06 -1.78009e-05 0)
(2.45488e-05 -2.41485e-05 0)
(3.65097e-05 -1.43203e-05 0)
(2.81136e-05 4.72304e-06 0)
(-3.64002e-06 2.54089e-05 0)
(-6.02951e-05 4.55558e-05 0)
(-0.000139568 6.2735e-05 0)
(-0.000238402 7.70376e-05 0)
(-0.000353404 8.8125e-05 0)
(-0.000481149 9.6735e-05 0)
(-0.000619029 0.000103199 0)
(-0.00076472 0.000108262 0)
(-0.000916847 0.000112341 0)
(-0.00107434 0.000115975 0)
(-0.00123683 0.000119461 0)
(-0.00140417 0.000123108 0)
(-0.0015766 0.000127058 0)
(-0.00175446 0.000131442 0)
(-0.00193827 0.000136287 0)
(-0.0021285 0.000141611 0)
(-0.00232571 0.000147375 0)
(-0.00253034 0.000153541 0)
(-0.00274283 0.000160044 0)
(-0.00296349 0.000166824 0)
(-0.00319261 0.000173812 0)
(-0.00343036 0.000180949 0)
(-0.00367683 0.000188171 0)
(-0.00393206 0.000195421 0)
(-0.004196 0.000202645 0)
(-0.00446852 0.000209789 0)
(-0.00474944 0.000216803 0)
(-0.00503851 0.000223634 0)
(-0.00533539 0.000230228 0)
(-0.0056397 0.000236528 0)
(-0.00595095 0.000242471 0)
(-0.00626859 0.000247989 0)
(-0.00659196 0.000253005 0)
(-0.00692032 0.000257432 0)
(-0.0072528 0.000261176 0)
(-0.0075884 0.000264129 0)
(-0.00792598 0.000266173 0)
(-0.00826428 0.000267179 0)
(-0.00860184 0.000267007 0)
(-0.00893703 0.000265507 0)
(-0.00926805 0.000262519 0)
(-0.00959289 0.000257881 0)
(-0.00990936 0.000251422 0)
(-0.010215 0.000242974 0)
(-0.0105074 0.000232371 0)
(-0.0107836 0.000219455 0)
(-0.0110407 0.000204083 0)
(-0.0112756 0.000186127 0)
(-0.0114852 0.000165486 0)
(-0.0116661 0.000142091 0)
(-0.0118151 0.000115906 0)
(-0.0119288 8.69416e-05 0)
(-0.0120039 5.52571e-05 0)
(-0.0120374 2.0966e-05 0)
(-0.0120264 -1.57589e-05 0)
(-0.0119682 -5.46822e-05 0)
(-0.0118605 -9.55041e-05 0)
(-0.0117015 -0.00013786 0)
(-0.0114897 -0.000181323 0)
(-0.0112244 -0.000225407 0)
(-0.0109052 -0.000269571 0)
(-0.0105328 -0.000313232 0)
(-0.0101081 -0.000355773 0)
(-0.00963305 -0.000396554 0)
(-0.00911034 -0.000434931 0)
(-0.00854327 -0.000470268 0)
(-0.00793593 -0.000501955 0)
(-0.00729304 -0.000529428 0)
(-0.00661996 -0.000552183 0)
(-0.00592254 -0.000569792 0)
(-0.0052071 -0.00058192 0)
(-0.00448025 -0.000588332 0)
(-0.00374883 -0.000588909 0)
(-0.00301973 -0.000583646 0)
(-0.00229982 -0.000572659 0)
(-0.00159574 -0.00055618 0)
(-0.00091385 -0.000534548 0)
(-0.000260054 -0.000508206 0)
(0.000360272 -0.000477679 0)
(0.000942386 -0.000443563 0)
(0.00148225 -0.000406503 0)
(0.00197656 -0.000367176 0)
(0.00242283 -0.000326271 0)
(0.00281934 -0.000284464 0)
(0.00316515 -0.000242408 0)
(0.00346006 -0.00020071 0)
(0.00370458 -0.000159921 0)
(0.00389983 -0.000120525 0)
(0.00404748 -8.29283e-05 0)
(0.00414967 -4.74614e-05 0)
(0.00420891 -1.43713e-05 0)
(0.00422801 1.61716e-05 0)
(0.00420992 4.40742e-05 0)
(0.00415777 6.93085e-05 0)
(0.00407466 9.19123e-05 0)
(0.0039637 0.000111968 0)
(0.00382785 0.000129609 0)
(0.00366999 0.000144986 0)
(0.00349275 0.000158289 0)
(0.00329869 0.000169687 0)
(0.00309 0.000179382 0)
(0.00286895 0.000187501 0)
(0.00263729 0.000194213 0)
(0.00239722 0.000199518 0)
(0.00215023 0.000203494 0)
(0.00189885 0.000205887 0)
(0.00164461 0.000206619 0)
(0.00139122 0.000204964 0)
(0.0011407 0.000200622 0)
(0.000899163 0.000192033 0)
(0.000669734 0.000178719 0)
(0.000462519 0.000157786 0)
(0.000281784 0.000129401 0)
(0.000142024 8.96417e-05 0)
(4.52904e-05 4.51672e-05 0)
(3.19723e-06 5.07724e-08 0)
(5.60867e-06 -3.28709e-05 0)
(1.41374e-05 -3.57718e-05 0)
(5.26993e-06 -6.52616e-06 0)
(-3.46587e-05 4.16556e-05 0)
(-0.000109968 9.36005e-05 0)
(-0.000220977 0.000144387 0)
(-0.00036525 0.00018868 0)
(-0.000538193 0.000226152 0)
(-0.00073552 0.000256034 0)
(-0.000952351 0.00027972 0)
(-0.00118514 0.000298065 0)
(-0.00143051 0.000312699 0)
(-0.00168646 0.000324717 0)
(-0.00195132 0.000335376 0)
(-0.00222446 0.000345481 0)
(-0.0025055 0.000355781 0)
(-0.00279466 0.000366695 0)
(-0.0030923 0.000378549 0)
(-0.00339902 0.000391456 0)
(-0.00371542 0.000405462 0)
(-0.00404217 0.000420501 0)
(-0.00437982 0.000436471 0)
(-0.00472891 0.000453222 0)
(-0.00508981 0.000470598 0)
(-0.00546282 0.000488426 0)
(-0.00584809 0.000506542 0)
(-0.00624568 0.000524783 0)
(-0.00665552 0.000542993 0)
(-0.00707742 0.000561024 0)
(-0.00751109 0.000578732 0)
(-0.00795616 0.000595976 0)
(-0.00841212 0.000612614 0)
(-0.00887838 0.0006285 0)
(-0.00935422 0.000643479 0)
(-0.00983883 0.000657384 0)
(-0.0103313 0.000670035 0)
(-0.0108304 0.000681227 0)
(-0.0113351 0.000690739 0)
(-0.0118439 0.00069832 0)
(-0.0123552 0.000703695 0)
(-0.0128672 0.000706559 0)
(-0.013378 0.000706584 0)
(-0.0138853 0.000703413 0)
(-0.0143866 0.000696668 0)
(-0.0148792 0.000685951 0)
(-0.0153601 0.000670855 0)
(-0.015826 0.000650963 0)
(-0.0162732 0.000625867 0)
(-0.0166981 0.00059517 0)
(-0.0170965 0.000558501 0)
(-0.0174642 0.00051553 0)
(-0.0177967 0.000465979 0)
(-0.0180895 0.000409636 0)
(-0.0183378 0.000346373 0)
(-0.0185372 0.000276159 0)
(-0.0186829 0.000199076 0)
(-0.0187705 0.000115328 0)
(-0.0187959 2.52565e-05 0)
(-0.018755 -7.06513e-05 0)
(-0.0186444 -0.000171758 0)
(-0.0184612 -0.000277272 0)
(-0.018203 -0.000386251 0)
(-0.0178681 -0.000497606 0)
(-0.0174558 -0.000610116 0)
(-0.0169659 -0.000722438 0)
(-0.0163994 -0.000833136 0)
(-0.0157582 -0.000940702 0)
(-0.0150451 -0.00104359 0)
(-0.0142641 -0.00114024 0)
(-0.0134198 -0.00122913 0)
(-0.0125182 -0.0013088 0)
(-0.0115659 -0.00137792 0)
(-0.0105704 -0.00143528 0)
(-0.00953979 -0.00147987 0)
(-0.00848296 -0.00151089 0)
(-0.00740906 -0.00152777 0)
(-0.00632758 -0.00153023 0)
(-0.00524812 -0.00151822 0)
(-0.00418023 -0.00149202 0)
(-0.00313324 -0.00145215 0)
(-0.00211609 -0.00139939 0)
(-0.00113718 -0.00133478 0)
(-0.00020421 -0.00125954 0)
(0.000675927 -0.00117508 0)
(0.00149726 -0.00108293 0)
(0.00225481 -0.000984712 0)
(0.00294466 -0.000882085 0)
(0.00356393 -0.000776698 0)
(0.00411084 -0.000670151 0)
(0.00458463 -0.000563954 0)
(0.00498552 -0.000459494 0)
(0.00531461 -0.000358003 0)
(0.00557383 -0.000260545 0)
(0.0057658 -0.000167995 0)
(0.00589371 -8.10364e-05 0)
(0.00596122 -1.6415e-07 0)
(0.00597231 7.43133e-05 0)
(0.00593118 0.000142254 0)
(0.00584213 0.000203676 0)
(0.00570952 0.000258719 0)
(0.00553754 0.000307644 0)
(0.00533036 0.000350778 0)
(0.00509181 0.00038852 0)
(0.00482568 0.00042126 0)
(0.00453532 0.000449417 0)
(0.00422416 0.000473299 0)
(0.00389507 0.000493207 0)
(0.00355143 0.000509171 0)
(0.00319583 0.000521206 0)
(0.00283218 0.000528791 0)
(0.00246322 0.000531446 0)
(0.00209443 0.000527695 0)
(0.00172926 0.000516363 0)
(0.00137632 0.000494463 0)
(0.00104022 0.000460229 0)
(0.000734564 0.000408757 0)
(0.000464442 0.000339494 0)
(0.00024959 0.000247346 0)
(9.09714e-05 0.000142345 0)
(1.19774e-05 3.14171e-05 0)
(2.11733e-06 -3.86542e-05 0)
(-7.79446e-06 -2.46364e-05 0)
(-5.10946e-05 3.55621e-05 0)
(-0.000136054 0.000122901 0)
(-0.0002677 0.000215162 0)
(-0.000443565 0.000304776 0)
(-0.000661288 0.000383618 0)
(-0.000914601 0.00045089 0)
(-0.00119887 0.000505414 0)
(-0.00150802 0.000549258 0)
(-0.00183804 0.000583883 0)
(-0.00218474 0.000611905 0)
(-0.00254572 0.000635217 0)
(-0.00291884 0.000655911 0)
(-0.00330324 0.00067541 0)
(-0.0036983 0.000694996 0)
(-0.00410417 0.000715433 0)
(-0.00452112 0.000737292 0)
(-0.00494975 0.000760803 0)
(-0.00539063 0.000786058 0)
(-0.00584445 0.000812955 0)
(-0.00631174 0.000841326 0)
(-0.00679301 0.000870913 0)
(-0.00728858 0.00090144 0)
(-0.00779869 0.000932605 0)
(-0.00832338 0.00096411 0)
(-0.00886257 0.000995662 0)
(-0.00941604 0.00102698 0)
(-0.00998343 0.00105779 0)
(-0.0105642 0.00108784 0)
(-0.0111578 0.00111686 0)
(-0.0117635 0.0011446 0)
(-0.0123803 0.00117079 0)
(-0.0130073 0.00119517 0)
(-0.0136433 0.00121742 0)
(-0.014287 0.00123723 0)
(-0.014937 0.00125424 0)
(-0.0155916 0.00126805 0)
(-0.0162491 0.00127821 0)
(-0.0169072 0.00128424 0)
(-0.0175638 0.00128561 0)
(-0.0182162 0.00128174 0)
(-0.0188617 0.00127199 0)
(-0.019497 0.00125573 0)
(-0.0201186 0.00123224 0)
(-0.0207229 0.00120084 0)
(-0.0213055 0.00116082 0)
(-0.0218623 0.00111147 0)
(-0.0223883 0.00105215 0)
(-0.0228787 0.000982247 0)
(-0.0233281 0.000901224 0)
(-0.0237313 0.000808655 0)
(-0.0240825 0.000704232 0)
(-0.0243763 0.0005878 0)
(-0.0246071 0.000459376 0)
(-0.0247695 0.000319175 0)
(-0.0248581 0.000167627 0)
(-0.0248681 5.39641e-06 0)
(-0.024795 -0.000166606 0)
(-0.0246348 -0.000347218 0)
(-0.0243841 -0.000535021 0)
(-0.0240403 -0.000728349 0)
(-0.0236018 -0.000925302 0)
(-0.0230677 -0.00112376 0)
(-0.0224382 -0.00132143 0)
(-0.0217145 -0.00151584 0)
(-0.0208992 -0.00170446 0)
(-0.0199956 -0.00188464 0)
(-0.0190086 -0.0020538 0)
(-0.0179439 -0.00220936 0)
(-0.0168086 -0.00234888 0)
(-0.0156105 -0.00247013 0)
(-0.0143586 -0.00257109 0)
(-0.0130626 -0.00265005 0)
(-0.011733 -0.00270565 0)
(-0.0103807 -0.00273695 0)
(-0.00901698 -0.00274342 0)
(-0.00765343 -0.00272496 0)
(-0.00630149 -0.00268197 0)
(-0.00497245 -0.00261527 0)
(-0.00367721 -0.00252613 0)
(-0.00242605 -0.00241622 0)
(-0.00122852 -0.00228756 0)
(-9.32761e-05 -0.00214246 0)
(0.000972088 -0.00198347 0)
(0.0019611 -0.0018133 0)
(0.00286851 -0.00163476 0)
(0.00369031 -0.00145064 0)
(0.00442376 -0.00126368 0)
(0.00506736 -0.00107651 0)
(0.00562079 -0.000891538 0)
(0.00608487 -0.000710956 0)
(0.00646141 -0.000536667 0)
(0.0067531 -0.000370274 0)
(0.00696342 -0.000213059 0)
(0.00709644 -6.59859e-05 0)
(0.00715674 7.0301e-05 0)
(0.00714921 0.000195446 0)
(0.00707894 0.000309368 0)
(0.00695114 0.000412211 0)
(0.00677094 0.000504325 0)
(0.00654344 0.00058619 0)
(0.00627344 0.000658405 0)
(0.00596574 0.000721579 0)
(0.00562462 0.000776347 0)
(0.00525455 0.000823187 0)
(0.00485936 0.000862521 0)
(0.00444347 0.000894375 0)
(0.00401048 0.000918647 0)
(0.00356552 0.000934484 0)
(0.00311234 0.000940907 0)
(0.00265793 0.000935611 0)
(0.00220676 0.000916432 0)
(0.00176934 0.000878969 0)
(0.00135098 0.000820071 0)
(0.000967915 0.00073309 0)
(0.000624977 0.000616315 0)
(0.000346613 0.000463471 0)
(0.000132877 0.00028439 0)
(1.99134e-05 8.50793e-05 0)
(-2.28133e-06 -3.25092e-05 0)
(-3.53479e-05 1.61845e-05 0)
(-0.000121171 0.000121944 0)
(-0.000260061 0.000260494 0)
(-0.000457375 0.000403492 0)
(-0.00070653 0.000540893 0)
(-0.00100514 0.000662101 0)
(-0.0013448 0.000765923 0)
(-0.00172072 0.000850932 0)
(-0.00212566 0.000919964 0)
(-0.00255537 0.000975227 0)
(-0.003005 0.00102044 0)
(-0.00347196 0.00105842 0)
(-0.00395372 0.0010922 0)
(-0.00444929 0.00112393 0)
(-0.00495784 0.0011555 0)
(-0.00547943 0.00118806 0)
(-0.0060142 0.00122248 0)
(-0.00656269 0.00125911 0)
(-0.00712537 0.00129811 0)
(-0.00770284 0.00133933 0)
(-0.00829553 0.00138252 0)
(-0.00890384 0.00142729 0)
(-0.00952795 0.00147323 0)
(-0.0101679 0.00151988 0)
(-0.0108237 0.00156677 0)
(-0.011495 0.00161346 0)
(-0.0121813 0.00165953 0)
(-0.0128821 0.00170455 0)
(-0.0135967 0.00174813 0)
(-0.0143242 0.00178987 0)
(-0.0150636 0.0018294 0)
(-0.0158139 0.0018663 0)
(-0.0165737 0.00190017 0)
(-0.0173417 0.00193055 0)
(-0.0181164 0.00195696 0)
(-0.0188959 0.00197885 0)
(-0.0196784 0.00199563 0)
(-0.0204618 0.00200663 0)
(-0.0212435 0.00201111 0)
(-0.0220211 0.00200826 0)
(-0.0227916 0.0019972 0)
(-0.0235516 0.00197701 0)
(-0.0242975 0.00194667 0)
(-0.0250254 0.00190518 0)
(-0.025731 0.00185146 0)
(-0.0264096 0.00178449 0)
(-0.027056 0.00170323 0)
(-0.0276651 0.00160673 0)
(-0.028231 0.00149412 0)
(-0.028748 0.00136464 0)
(-0.0292098 0.00121771 0)
(-0.0296103 0.00105293 0)
(-0.0299432 0.000870136 0)
(-0.0302023 0.000669434 0)
(-0.0303815 0.000451219 0)
(-0.030475 0.000216211 0)
(-0.0304772 -3.45258e-05 0)
(-0.0303832 -0.000299566 0)
(-0.0301886 -0.000577116 0)
(-0.0298896 -0.000865016 0)
(-0.0294835 -0.00116075 0)
(-0.0289682 -0.00146147 0)
(-0.0283428 -0.00176403 0)
(-0.0276074 -0.002065 0)
(-0.0267636 -0.00236076 0)
(-0.0258137 -0.00264755 0)
(-0.0247618 -0.00292151 0)
(-0.0236128 -0.00317882 0)
(-0.0223732 -0.00341571 0)
(-0.0210507 -0.00362862 0)
(-0.0196539 -0.00381421 0)
(-0.0181927 -0.00396953 0)
(-0.016678 -0.00409204 0)
(-0.0151213 -0.00417972 0)
(-0.0135349 -0.00423108 0)
(-0.0119316 -0.00424529 0)
(-0.0103244 -0.00422213 0)
(-0.00872643 -0.00416208 0)
(-0.0071506 -0.00406625 0)
(-0.00560952 -0.0039364 0)
(-0.0041152 -0.00377489 0)
(-0.00267889 -0.00358458 0)
(-0.00131089 -0.00336883 0)
(-2.03767e-05 -0.00313132 0)
(0.00118469 -0.00287602 0)
(0.00229771 -0.00260705 0)
(0.00331347 -0.00232856 0)
(0.00422818 -0.00204465 0)
(0.00503948 -0.00175926 0)
(0.00574639 -0.00147607 0)
(0.00634923 -0.00119844 0)
(0.00684952 -0.000929324 0)
(0.00724985 -0.000671256 0)
(0.00755375 -0.000426294 0)
(0.00776554 -0.000196027 0)
(0.00789014 1.84239e-05 0)
(0.00793294 0.000216378 0)
(0.00789962 0.000397566 0)
(0.00779607 0.000562072 0)
(0.00762815 0.000710288 0)
(0.00740176 0.000842821 0)
(0.00712251 0.000960457 0)
(0.00679603 0.00106402 0)
(0.00642745 0.00115435 0)
(0.00602213 0.0012321 0)
(0.00558471 0.00129779 0)
(0.00512059 0.00135145 0)
(0.00463417 0.00139278 0)
(0.00413162 0.00142059 0)
(0.00361751 0.00143328 0)
(0.00310002 0.00142771 0)
(0.00258429 0.00140056 0)
(0.00208237 0.00134607 0)
(0.00159986 0.00125944 0)
(0.00115527 0.00113239 0)
(0.000753204 0.000961296 0)
(0.000422866 0.000738344 0)
(0.000164262 0.00047021 0)
(2.51417e-05 0.00015911 0)
(-7.17145e-06 -1.1285e-05 0)
(-6.66221e-05 9.32821e-05 0)
(-0.00020079 0.000260392 0)
(-0.000400226 0.000461673 0)
(-0.000670253 0.000664173 0)
(-0.000999141 0.000856024 0)
(-0.00138435 0.00102492 0)
(-0.00181498 0.00116963 0)
(-0.00228616 0.00128882 0)
(-0.00278943 0.00138623 0)
(-0.00332053 0.00146499 0)
(-0.00387399 0.00152997 0)
(-0.0044472 0.00158499 0)
(-0.00503731 0.00163406 0)
(-0.00564326 0.00168006 0)
(-0.00626405 0.00172551 0)
(-0.00689964 0.00177198 0)
(-0.00755001 0.00182061 0)
(-0.00821559 0.00187189 0)
(-0.00889668 0.00192602 0)
(-0.00959374 0.0019828 0)
(-0.010307 0.00204188 0)
(-0.0110367 0.00210274 0)
(-0.0117828 0.0021648 0)
(-0.0125452 0.00222744 0)
(-0.0133235 0.00229003 0)
(-0.0141173 0.00235197 0)
(-0.0149258 0.00241266 0)
(-0.0157484 0.00247156 0)
(-0.0165841 0.00252812 0)
(-0.0174319 0.00258184 0)
(-0.0182905 0.00263219 0)
(-0.0191588 0.00267865 0)
(-0.0200353 0.00272067 0)
(-0.0209186 0.00275766 0)
(-0.0218068 0.00278897 0)
(-0.0226983 0.00281387 0)
(-0.0235909 0.00283156 0)
(-0.0244824 0.00284113 0)
(-0.0253704 0.00284158 0)
(-0.0262519 0.00283181 0)
(-0.0271239 0.00281061 0)
(-0.0279829 0.00277672 0)
(-0.0288251 0.00272876 0)
(-0.0296462 0.00266535 0)
(-0.0304416 0.00258504 0)
(-0.0312062 0.00248643 0)
(-0.0319348 0.00236814 0)
(-0.0326214 0.00222888 0)
(-0.03326 0.00206749 0)
(-0.0338441 0.00188301 0)
(-0.0343673 0.00167465 0)
(-0.0348226 0.00144195 0)
(-0.0352033 0.00118473 0)
(-0.0355026 0.000903179 0)
(-0.0357138 0.000597895 0)
(-0.0358304 0.000269903 0)
(-0.0358465 -7.9311e-05 0)
(-0.0357563 -0.00044778 0)
(-0.035555 -0.00083305 0)
(-0.0352382 -0.00123219 0)
(-0.0348025 -0.00164178 0)
(-0.0342454 -0.002058 0)
(-0.0335655 -0.00247658 0)
(-0.0327627 -0.00289296 0)
(-0.0318379 -0.00330226 0)
(-0.0307934 -0.00369943 0)
(-0.0296329 -0.00407931 0)
(-0.0283615 -0.00443674 0)
(-0.0269857 -0.00476665 0)
(-0.0255133 -0.00506422 0)
(-0.0239536 -0.00532493 0)
(-0.0223169 -0.00554473 0)
(-0.0206148 -0.00572011 0)
(-0.0188599 -0.00584824 0)
(-0.0170655 -0.00592698 0)
(-0.0152457 -0.00595506 0)
(-0.013415 -0.00593202 0)
(-0.0115881 -0.00585831 0)
(-0.00977951 -0.00573526 0)
(-0.00800373 -0.00556507 0)
(-0.00627457 -0.00535073 0)
(-0.0046051 -0.00509599 0)
(-0.00300746 -0.00480523 0)
(-0.00149258 -0.00448336 0)
(-7.00856e-05 -0.00413567 0)
(0.00125187 -0.00376771 0)
(0.00246668 -0.00338512 0)
(0.00356934 -0.00299351 0)
(0.00455647 -0.00259832 0)
(0.00542625 -0.00220465 0)
(0.0061784 -0.0018172 0)
(0.006814 -0.00144018 0)
(0.00733546 -0.00107721 0)
(0.00774627 -0.000731276 0)
(0.00805089 -0.000404758 0)
(0.00825453 -9.93786e-05 0)
(0.00836303 0.000183741 0)
(0.00838259 0.00044405 0)
(0.00831974 0.000681489 0)
(0.00818102 0.000896434 0)
(0.00797308 0.00108958 0)
(0.0077023 0.00126185 0)
(0.00737511 0.00141427 0)
(0.00699745 0.00154787 0)
(0.00657548 0.00166348 0)
(0.00611463 0.0017617 0)
(0.00562116 0.00184253 0)
(0.0051002 0.0019055 0)
(0.00455882 0.00194905 0)
(0.00400224 0.00197099 0)
(0.00343965 0.00196734 0)
(0.00287665 0.00193365 0)
(0.00232654 0.00186283 0)
(0.00179507 0.00174835 0)
(0.00130274 0.00158018 0)
(0.000854094 0.00135206 0)
(0.000482539 0.00105369 0)
(0.000188575 0.000686206 0)
(2.90401e-05 0.000245945 0)
(-1.21838e-05 2.56507e-05 0)
(-9.95724e-05 0.000209549 0)
(-0.000285354 0.000455733 0)
(-0.000549447 0.000732768 0)
(-0.000896876 0.00100455 0)
(-0.00131004 0.00125811 0)
(-0.00178607 0.00148026 0)
(-0.00231117 0.00167015 0)
(-0.00288037 0.001827 0)
(-0.0034839 0.00195569 0)
(-0.00411754 0.00206045 0)
(-0.00477524 0.00214744 0)
(-0.00545445 0.00222154 0)
(-0.00615205 0.0022878 0)
(-0.00686701 0.00234985 0)
(-0.00759812 0.00241084 0)
(-0.00834529 0.00247274 0)
(-0.0091083 0.00253697 0)
(-0.00988746 0.00260415 0)
(-0.0106828 0.00267447 0)
(-0.0114947 0.00274769 0)
(-0.0123231 0.00282334 0)
(-0.013168 0.00290076 0)
(-0.014029 0.0029792 0)
(-0.0149059 0.00305785 0)
(-0.0157981 0.00313594 0)
(-0.0167048 0.0032127 0)
(-0.0176253 0.0032874 0)
(-0.0185585 0.00335935 0)
(-0.0195034 0.00342792 0)
(-0.0204588 0.00349248 0)
(-0.0214236 0.00355241 0)
(-0.0223964 0.0036071 0)
(-0.0233759 0.00365587 0)
(-0.0243605 0.00369802 0)
(-0.0253487 0.00373274 0)
(-0.0263388 0.00375915 0)
(-0.0273287 0.00377622 0)
(-0.0283164 0.00378281 0)
(-0.0292995 0.00377764 0)
(-0.0302753 0.00375929 0)
(-0.0312407 0.00372623 0)
(-0.0321924 0.00367677 0)
(-0.0331264 0.00360918 0)
(-0.0340386 0.00352163 0)
(-0.0349242 0.00341225 0)
(-0.0357781 0.00327923 0)
(-0.0365946 0.00312077 0)
(-0.0373678 0.00293522 0)
(-0.0380912 0.00272108 0)
(-0.038758 0.00247709 0)
(-0.0393612 0.00220227 0)
(-0.0398934 0.00189601 0)
(-0.0403474 0.00155807 0)
(-0.0407156 0.00118871 0)
(-0.0409906 0.000788668 0)
(-0.0411652 0.000359254 0)
(-0.0412325 -9.76511e-05 0)
(-0.041186 -0.000579559 0)
(-0.0410197 -0.00108337 0)
(-0.0407283 -0.00160536 0)
(-0.0403074 -0.00214123 0)
(-0.0397535 -0.00268611 0)
(-0.0390641 -0.00323462 0)
(-0.0382382 -0.00378094 0)
(-0.0372757 -0.00431887 0)
(-0.0361782 -0.00484196 0)
(-0.0349486 -0.00534359 0)
(-0.0335916 -0.00581714 0)
(-0.0321131 -0.00625604 0)
(-0.030521 -0.00665402 0)
(-0.0288244 -0.00700515 0)
(-0.0270341 -0.00730408 0)
(-0.0251623 -0.00754608 0)
(-0.0232224 -0.00772728 0)
(-0.0212288 -0.0078447 0)
(-0.0191969 -0.00789638 0)
(-0.017143 -0.00788146 0)
(-0.0150835 -0.00780021 0)
(-0.0130349 -0.00765405 0)
(-0.011014 -0.00744552 0)
(-0.00903661 -0.00717825 0)
(-0.00711823 -0.00685684 0)
(-0.00527321 -0.00648677 0)
(-0.0035147 -0.00607425 0)
(-0.0018544 -0.00562604 0)
(-0.000302405 -0.0051493 0)
(0.00113293 -0.00465134 0)
(0.00244507 -0.00413951 0)
(0.00362936 -0.00362095 0)
(0.00468296 -0.00310246 0)
(0.0056048 -0.00259033 0)
(0.00639547 -0.00209022 0)
(0.00705711 -0.00160706 0)
(0.00759316 -0.001145 0)
(0.00800827 -0.000707356 0)
(0.00830798 -0.000296619 0)
(0.00849863 8.55221e-05 0)
(0.00858704 0.00043813 0)
(0.00858047 0.00076093 0)
(0.00848622 0.00105422 0)
(0.00831178 0.00131875 0)
(0.00806438 0.00155558 0)
(0.00775132 0.00176592 0)
(0.00737936 0.001951 0)
(0.00695552 0.00211182 0)
(0.00648603 0.00224908 0)
(0.00597794 0.00236278 0)
(0.00543709 0.00245229 0)
(0.00487136 0.0025157 0)
(0.00428653 0.0025502 0)
(0.00369267 0.00255103 0)
(0.00309573 0.00251252 0)
(0.00251012 0.00242629 0)
(0.00194178 0.00228383 0)
(0.00141302 0.0020732 0)
(0.000928626 0.00178481 0)
(0.000525683 0.00140514 0)
(0.00020541 0.000928467 0)
(3.14233e-05 0.000343838 0)
(-1.73133e-05 7.91754e-05 0)
(-0.000133758 0.000367286 0)
(-0.000373366 0.000710983 0)
(-0.000704894 0.00107689 0)
(-0.00113286 0.00142724 0)
(-0.00163331 0.00174886 0)
(-0.00220287 0.00202869 0)
(-0.0028246 0.00226683 0)
(-0.00349341 0.00246359 0)
(-0.00419809 0.00262531 0)
(-0.00493454 0.00275755 0)
(-0.00569612 0.00286786 0)
(-0.00648041 0.00296229 0)
(-0.00728404 0.00304688 0)
(-0.00810602 0.00312606 0)
(-0.00894496 0.00320355 0)
(-0.00980073 0.00328172 0)
(-0.0106729 0.00336221 0)
(-0.0115616 0.00344573 0)
(-0.0124666 0.00353247 0)
(-0.0133881 0.00362212 0)
(-0.0143257 0.00371407 0)
(-0.0152792 0.0038075 0)
(-0.0162479 0.00390151 0)
(-0.0172314 0.00399513 0)
(-0.0182287 0.00408745 0)
(-0.0192391 0.00417756 0)
(-0.0202616 0.00426464 0)
(-0.021295 0.00434792 0)
(-0.0223383 0.0044267 0)
(-0.0233903 0.00450028 0)
(-0.0244501 0.00456803 0)
(-0.0255163 0.00462926 0)
(-0.026588 0.00468324 0)
(-0.0276638 0.00472919 0)
(-0.0287425 0.00476619 0)
(-0.0298227 0.0047932 0)
(-0.0309029 0.00480902 0)
(-0.0319813 0.00481226 0)
(-0.033056 0.00480136 0)
(-0.0341246 0.00477458 0)
(-0.0351844 0.00472999 0)
(-0.0362323 0.00466552 0)
(-0.0372648 0.00457896 0)
(-0.0382778 0.00446801 0)
(-0.0392666 0.00433035 0)
(-0.0402262 0.00416364 0)
(-0.0411509 0.00396564 0)
(-0.0420346 0.00373421 0)
(-0.0428704 0.00346745 0)
(-0.0436514 0.00316373 0)
(-0.0443699 0.00282176 0)
(-0.045018 0.00244068 0)
(-0.0455876 0.00202012 0)
(-0.0460703 0.00156028 0)
(-0.0464576 0.00106197 0)
(-0.0467412 0.000526648 0)
(-0.0469129 -4.34845e-05 0)
(-0.0469647 -0.000645506 0)
(-0.0468892 -0.00127574 0)
(-0.0466796 -0.00192975 0)
(-0.0463296 -0.00260236 0)
(-0.0458341 -0.00328771 0)
(-0.045189 -0.00397925 0)
(-0.0443914 -0.00466989 0)
(-0.0434399 -0.00535204 0)
(-0.0423344 -0.00601772 0)
(-0.0410767 -0.00665873 0)
(-0.0396703 -0.00726677 0)
(-0.0381203 -0.00783358 0)
(-0.036434 -0.00835117 0)
(-0.0346202 -0.00881195 0)
(-0.03269 -0.00920893 0)
(-0.0306558 -0.0095359 0)
(-0.028532 -0.00978761 0)
(-0.0263343 -0.00995991 0)
(-0.0240797 -0.0100499 0)
(-0.0217862 -0.010056 0)
(-0.0194727 -0.00997807 0)
(-0.0171581 -0.00981742 0)
(-0.0148619 -0.00957681 0)
(-0.0126028 -0.00926037 0)
(-0.0103993 -0.00887355 0)
(-0.00826861 -0.00842294 0)
(-0.00622682 -0.00791613 0)
(-0.00428839 -0.00736149 0)
(-0.00246597 -0.00676796 0)
(-0.00077023 -0.00614478 0)
(0.000790289 -0.00550126 0)
(0.00220921 -0.00484656 0)
(0.00348235 -0.00418942 0)
(0.00460762 -0.00353804 0)
(0.00558496 -0.0028998 0)
(0.00641615 -0.00228123 0)
(0.0071046 -0.00168786 0)
(0.00765519 -0.00112417 0)
(0.00807393 -0.000593596 0)
(0.00836781 -9.85465e-05 0)
(0.00854445 0.000359538 0)
(0.00861201 0.000780076 0)
(0.00857881 0.00116324 0)
(0.00845336 0.00150979 0)
(0.00824392 0.00182092 0)
(0.00795885 0.00209803 0)
(0.00760588 0.00234257 0)
(0.00719303 0.00255574 0)
(0.0067274 0.0027384 0)
(0.00621693 0.00289058 0)
(0.00566819 0.00301152 0)
(0.00508988 0.00309902 0)
(0.00448833 0.00314971 0)
(0.00387442 0.00315805 0)
(0.00325449 0.00311719 0)
(0.00264392 0.00301738 0)
(0.00204896 0.00284801 0)
(0.00149347 0.00259491 0)
(0.000982707 0.00224471 0)
(0.000556677 0.00177989 0)
(0.000217391 0.00118719 0)
(3.30841e-05 0.000447814 0)
(-2.24553e-05 0.000149499 0)
(-0.000168428 0.0005676 0)
(-0.000462941 0.00102812 0)
(-0.000863353 0.00149678 0)
(-0.00137355 0.0019355 0)
(-0.00196291 0.00233186 0)
(-0.00262747 0.00267387 0)
(-0.00334691 0.00296326 0)
(-0.00411595 0.00320198 0)
(-0.0049219 0.00339818 0)
(-0.00576074 0.00355905 0)
(-0.00662523 0.00369363 0)
(-0.00751312 0.00380924 0)
(-0.00842077 0.00391295 0)
(-0.00934729 0.00400997 0)
(-0.0102911 0.00410457 0)
(-0.011252 0.00419947 0)
(-0.0122293 0.00429649 0)
(-0.013223 0.00439641 0)
(-0.0142326 0.00449939 0)
(-0.015258 0.004605 0)
(-0.0162986 0.00471252 0)
(-0.0173538 0.00482098 0)
(-0.0184229 0.00492932 0)
(-0.0195049 0.00503647 0)
(-0.0205991 0.00514138 0)
(-0.0217043 0.0052431 0)
(-0.0228195 0.00534075 0)
(-0.0239437 0.00543356 0)
(-0.0250761 0.00552082 0)
(-0.0262156 0.00560188 0)
(-0.0273615 0.00567613 0)
(-0.0285132 0.0057429 0)
(-0.0296698 0.00580148 0)
(-0.0308309 0.00585105 0)
(-0.0319957 0.00589064 0)
(-0.0331636 0.00591908 0)
(-0.0343337 0.005935 0)
(-0.0355049 0.00593679 0)
(-0.0366761 0.0059226 0)
(-0.0378455 0.0058903 0)
(-0.039011 0.00583756 0)
(-0.0401702 0.00576182 0)
(-0.0413199 0.00566038 0)
(-0.0424565 0.00553036 0)
(-0.0435756 0.00536886 0)
(-0.0446724 0.00517294 0)
(-0.0457411 0.00493976 0)
(-0.0467754 0.00466662 0)
(-0.0477684 0.00435102 0)
(-0.0487124 0.00399082 0)
(-0.0495991 0.00358427 0)
(-0.0504199 0.00313009 0)
(-0.0511654 0.00262761 0)
(-0.0518259 0.00207679 0)
(-0.0523916 0.00147833 0)
(-0.0528523 0.000833705 0)
(-0.0531979 0.000145263 0)
(-0.0534185 -0.000583777 0)
(-0.0535042 -0.00134928 0)
(-0.053446 -0.00214617 0)
(-0.0532351 -0.00296847 0)
(-0.052864 -0.00380932 0)
(-0.0523261 -0.00466101 0)
(-0.0516159 -0.00551508 0)
(-0.0507298 -0.00636243 0)
(-0.0496656 -0.0071934 0)
(-0.0484231 -0.00799796 0)
(-0.047004 -0.00876586 0)
(-0.0454122 -0.00948686 0)
(-0.043654 -0.0101509 0)
(-0.0417377 -0.0107483 0)
(-0.0396741 -0.01127 0)
(-0.0374763 -0.0117079 0)
(-0.0351594 -0.0120549 0)
(-0.0327406 -0.0123053 0)
(-0.0302387 -0.0124548 0)
(-0.0276741 -0.0125007 0)
(-0.0250684 -0.0124422 0)
(-0.0224438 -0.0122801 0)
(-0.0198231 -0.0120172 0)
(-0.0172289 -0.011658 0)
(-0.0146834 -0.0112087 0)
(-0.0122077 -0.0106772 0)
(-0.00982169 -0.0100723 0)
(-0.00754355 -0.00940443 0)
(-0.00538936 -0.00868441 0)
(-0.00337291 -0.00792376 0)
(-0.00150551 -0.00713413 0)
(0.000204141 -0.00632708 0)
(0.00174998 -0.00551373 0)
(0.00312854 -0.00470454 0)
(0.00433881 -0.00390907 0)
(0.00538208 -0.00313578 0)
(0.0062617 -0.00239193 0)
(0.00698283 -0.00168346 0)
(0.0075521 -0.00101499 0)
(0.00797735 -0.000389862 0)
(0.00826729 0.00018984 0)
(0.0084313 0.000723127 0)
(0.008479 0.00120998 0)
(0.00842026 0.00165116 0)
(0.0082647 0.00204798 0)
(0.00802201 0.00240207 0)
(0.00770119 0.00271517 0)
(0.00731148 0.00298877 0)
(0.00686104 0.0032239 0)
(0.00635888 0.00342073 0)
(0.00581242 0.00357845 0)
(0.00523125 0.00369464 0)
(0.00462236 0.0037654 0)
(0.00399742 0.00378447 0)
(0.00336328 0.00374379 0)
(0.00273622 0.0036322 0)
(0.00212294 0.00343682 0)
(0.00154869 0.00314101 0)