/*--------------------------------*- C++ -*----------------------------------*\
| =========                 |                                                 |
| \\      /  F ield         | OpenFOAM: The Open Source CFD Toolbox           |
|  \\    /   O peration     | Version:  2406                                  |
|   \\  /    A nd           | Website:  www.openfoam.com                      |
|    \\/     M anipulation  |                                                 |
\*---------------------------------------------------------------------------*/
FoamFile
{
    version     2.0;
    format      ascii;
    arch        "LSB;label=32;scalar=64";
    class       volScalarField;
    location    "39.25";
    object      p;
}
// * * * * * * * * * * * * * * * * * * * * * * * * * * * * * * * * * * * * * //

dimensions      [0 2 -2 0 0 0 0];

internalField   nonuniform List<scalar> 
16384
(
8.67639e-08
8.84934e-06
1.99835e-05
2.90979e-05
3.30539e-05
2.98259e-05
1.83627e-05
-1.60896e-06
-2.97617e-05
-6.5343e-05
-0.000107335
-0.000154605
-0.000206054
-0.000260722
-0.000317869
-0.00037703
-0.000438035
-0.000500998
-0.000566298
-0.000634543
-0.000706509
-0.000783098
-0.0008653
-0.000954062
-0.00105033
-0.00115505
-0.00126908
-0.00139325
-0.00152831
-0.00167501
-0.00183403
-0.00200606
-0.0021917
-0.0023915
-0.00260592
-0.00283528
-0.00307973
-0.00333921
-0.0036134
-0.00390167
-0.00420306
-0.00451621
-0.00483934
-0.00517021
-0.00550613
-0.00584389
-0.00617983
-0.0065098
-0.00682923
-0.00713315
-0.00741626
-0.00767304
-0.0078978
-0.0080848
-0.00822837
-0.00832307
-0.00836376
-0.0083458
-0.00826513
-0.00811848
-0.00790343
-0.0076186
-0.00726375
-0.00683988
-0.00634932
-0.00579582
-0.00518465
-0.00452227
-0.00381557
-0.00307635
-0.0023149
-0.00154287
-0.000773438
-2.05209e-05
0.000701504
0.00137812
0.00199505
0.00253868
0.00299649
0.0033575
0.0036127
0.00375543
0.0037817
0.00369043
0.00348357
0.00316602
0.00274549
0.00223269
0.00164007
0.00098213
0.000274366
-0.000467124
-0.00122632
-0.00198785
-0.00273754
-0.0034628
-0.00415297
-0.0047996
-0.00539626
-0.00593888
-0.00642531
-0.0068552
-0.00722982
-0.00755168
-0.00782428
-0.00805178
-0.00823873
-0.00838985
-0.0085098
-0.00860306
-0.00867383
-0.00872589
-0.00876266
-0.0087871
-0.00880176
-0.00880876
-0.00880985
-0.00880641
-0.00879947
-0.00878976
-0.00877777
-0.00876378
-0.00874804
-0.00873092
-0.00871319
-0.00869602
-0.00868224
-0.00867478
-9.1477e-06
-2.16949e-07
8.85057e-06
1.53147e-05
1.69215e-05
1.20618e-05
-1.74595e-07
-2.00646e-05
-4.7382e-05
-8.15172e-05
-0.000121612
-0.000166706
-0.000215853
-0.000268224
-0.000323186
-0.000380343
-0.000439551
-0.000500923
-0.000564802
-0.000631747
-0.000702453
-0.000777729
-0.000858433
-0.000945489
-0.0010398
-0.0011422
-0.00125353
-0.00137456
-0.00150605
-0.00164871
-0.00180325
-0.00197031
-0.00215053
-0.00234448
-0.00255262
-0.00277532
-0.00301277
-0.00326497
-0.00353168
-0.00381236
-0.00410615
-0.00441181
-0.00472771
-0.00505175
-0.00538138
-0.00571355
-0.00604475
-0.00637097
-0.00668778
-0.00699033
-0.00727343
-0.00753163
-0.00775929
-0.00795072
-0.00810027
-0.00820246
-0.00825211
-0.00824451
-0.00817554
-0.00804178
-0.00784073
-0.00757086
-0.00723177
-0.00682433
-0.00635085
-0.0058152
-0.00522209
-0.00457536
-0.00388625
-0.00316295
-0.00241632
-0.00165862
-0.00090282
-0.000162617
0.000547757
0.0012139
0.00182162
0.00235736
0.00280866
0.00316457
0.00341611
0.00355663
0.00358218
0.00349168
0.00328711
0.00297346
0.00255856
0.00205272
0.00146881
0.000821329
0.000125554
-0.000602473
-0.00134686
-0.00209246
-0.00282536
-0.0035333
-0.00420604
-0.00483545
-0.00541525
-0.00594213
-0.00641407
-0.00683103
-0.0071945
-0.00750712
-0.00777243
-0.00799453
-0.00817787
-0.00832702
-0.00844645
-0.00854042
-0.00861288
-0.00866743
-0.00870725
-0.00873512
-0.00875341
-0.00876413
-0.00876893
-0.00876911
-0.0087657
-0.00875943
-0.00875082
-0.00874025
-0.00872801
-0.00871448
-0.00870029
-0.00868651
-0.00867492
-0.00866729
-2.07095e-05
-9.51212e-06
-2.70018e-07
5.1434e-06
5.45845e-06
-4.67531e-07
-1.33398e-05
-3.33687e-05
-6.03254e-05
-9.36371e-05
-0.000132514
-0.000176074
-0.000223455
-0.000273912
-0.000326882
-0.000382023
-0.000439227
-0.00049863
-0.000560552
-0.000625532
-0.000694234
-0.000767417
-0.000845897
-0.000930521
-0.00102212
-0.00112151
-0.00122948
-0.00134677
-0.00147412
-0.00161223
-0.00176183
-0.0019236
-0.00209819
-0.00228624
-0.00248828
-0.00270476
-0.00293599
-0.00318208
-0.00344292
-0.00371813
-0.00400701
-0.0043085
-0.00462111
-0.00494292
-0.00527152
-0.00560401
-0.00593695
-0.00626644
-0.00658806
-0.00689698
-0.00718796
-0.0074555
-0.00769385
-0.00789719
-0.00805971
-0.00817578
-0.00824004
-0.0082476
-0.00819416
-0.00807614
-0.00789085
-0.0076366
-0.00731284
-0.00692037
-0.0064614
-0.00593897
-0.00535627
-0.00472268
-0.00404555
-0.00333349
-0.00259696
-0.00184792
-0.00109933
-0.000364985
0.000340858
0.00100374
0.00160939
0.00214419
0.00259553
0.00295236
0.00320555
0.00334832
0.00337659
0.00328919
0.00308802
0.00277804
0.00236722
0.00186623
0.00128649
0.000644817
-4.4541e-05
-0.000765214
-0.00150117
-0.00223716
-0.00295924
-0.00365516
-0.00431469
-0.00492973
-0.00549479
-0.00600724
-0.00646465
-0.00686721
-0.0072169
-0.00751675
-0.00777054
-0.00798258
-0.00815743
-0.00829969
-0.00841381
-0.00850397
-0.00857399
-0.0086273
-0.00866688
-0.00869534
-0.00871488
-0.00872733
-0.00873422
-0.00873674
-0.00873585
-0.00873224
-0.00872641
-0.0087187
-0.00870937
-0.00869869
-0.00868703
-0.008675
-0.00866336
-0.00865329
-3.08606e-05
-1.67031e-05
-5.94664e-06
-3.0608e-07
-3.71506e-07
-6.8886e-06
-2.03513e-05
-4.08289e-05
-6.79903e-05
-0.000101199
-0.00013963
-0.000182386
-0.000228614
-0.000277596
-0.000328806
-0.000381941
-0.000436939
-0.000493963
-0.000553405
-0.000615782
-0.000681766
-0.000752111
-0.000827617
-0.000909096
-0.00099735
-0.00109316
-0.00119727
-0.00131043
-0.00143337
-0.00156679
-0.0017115
-0.00186823
-0.00203773
-0.00222074
-0.00241796
-0.00263
-0.00285734
-0.0031003
-0.00335899
-0.00363324
-0.00392256
-0.00422608
-0.00454249
-0.00487
-0.00520628
-0.00554845
-0.00589307
-0.00623612
-0.00657306
-0.00689884
-0.007208
-0.00749475
-0.00775307
-0.00797684
-0.00815998
-0.00829657
-0.00838104
-0.00840828
-0.00837382
-0.00827394
-0.00810581
-0.00786763
-0.00755882
-0.00718019
-0.00673373
-0.006222
-0.00564896
-0.00502334
-0.00435244
-0.0036452
-0.00291208
-0.00216486
-0.00141647
-0.000680654
2.82498e-05
0.000695695
0.00130728
0.00184918
0.00230857
0.00267413
0.00293644
0.00308841
0.00312567
0.0030468
0.00285346
0.00255048
0.00214571
0.00164973
0.00107522
0.000437287
-0.000248578
-0.000965412
-0.00169718
-0.00242819
-0.00314424
-0.00383286
-0.00448373
-0.00508887
-0.0056427
-0.00614037
-0.00658383
-0.00697166
-0.00730595
-0.00759029
-0.00782895
-0.00802663
-0.00818819
-0.00831849
-0.00842215
-0.00850345
-0.0085662
-0.00861377
-0.00864905
-0.00867449
-0.00869212
-0.00870362
-0.00871033
-0.00871333
-0.00871342
-0.00871121
-0.00870708
-0.00870129
-0.00869394
-0.00868509
-0.00867483
-0.00866319
-0.00865004
-0.00863624
-3.72692e-05
-2.02264e-05
-7.65773e-06
-1.36702e-06
-1.52606e-06
-8.59135e-06
-2.28455e-05
-4.41693e-05
-7.20687e-05
-0.000105771
-0.000144341
-0.000186804
-0.000232271
-0.000280011
-0.000329515
-0.000380527
-0.000433042
-0.000487289
-0.000543702
-0.000602867
-0.000665494
-0.000732361
-0.000804276
-0.00088205
-0.000966472
-0.00105831
-0.00115832
-0.00126724
-0.00138586
-0.00151496
-0.00165543
-0.00180815
-0.00197407
-0.00215414
-0.00234928
-0.00256039
-0.00278821
-0.00303337
-0.00329624
-0.00357692
-0.00387511
-0.00419011
-0.00452069
-0.00486505
-0.00522078
-0.00558482
-0.00595345
-0.00632232
-0.0066865
-0.00704052
-0.00737847
-0.00769415
-0.00798113
-0.00823296
-0.00844324
-0.00860584
-0.00871498
-0.00876545
-0.00875267
-0.00867289
-0.00852325
-0.00830195
-0.00800845
-0.00764356
-0.0072089
-0.00670612
-0.00614281
-0.00552438
-0.00485844
-0.0041541
-0.0034218
-0.00267325
-0.00192127
-0.00117958
-0.000462486
0.000215402
0.000839555
0.00139594
0.00187146
0.00225443
0.00253503
0.00270571
0.00276164
0.00270091
0.00252478
0.00223771
0.00184725
0.00136382
0.000800281
0.000171496
-0.00050642
-0.00121663
-0.00194261
-0.00266791
-0.0033782
-0.0040604
-0.00470391
-0.00530042
-0.00584416
-0.00633171
-0.00675992
-0.00713319
-0.00745196
-0.00771982
-0.00794152
-0.00812225
-0.00826733
-0.00838199
-0.00847118
-0.00853941
-0.0085907
-0.00862847
-0.00865562
-0.00867451
-0.00868708
-0.00869484
-0.00869897
-0.00870039
-0.00869974
-0.00869747
-0.00869382
-0.00868888
-0.00868257
-0.0086747
-0.00866501
-0.00865304
-0.00863786
-0.00862028
-3.85256e-05
-1.90065e-05
-4.82004e-06
2.0606e-06
1.69522e-06
-6.16058e-06
-2.15797e-05
-4.42281e-05
-7.34011e-05
-0.000108131
-0.000147322
-0.000189886
-0.000234856
-0.000281474
-0.000329248
-0.000377968
-0.000427712
-0.000478788
-0.000531718
-0.000587179
-0.00064595
-0.000708867
-0.000776779
-0.000850522
-0.000930915
-0.00101875
-0.00111482
-0.00121996
-0.00133505
-0.00146105
-0.00159904
-0.00175016
-0.00191566
-0.00209682
-0.00229492
-0.00251122
-0.00274684
-0.00300272
-0.0032795
-0.00357749
-0.00389649
-0.00423578
-0.00459399
-0.00496905
-0.00535816
-0.00575779
-0.00616368
-0.00657088
-0.00697386
-0.0073666
-0.00774267
-0.00809541
-0.00841803
-0.0087038
-0.00894613
-0.00913877
-0.00927591
-0.00935232
-0.0093635
-0.00930575
-0.00917632
-0.00897349
-0.00869669
-0.00834667
-0.0079253
-0.00743383
-0.00687978
-0.00626881
-0.00560817
-0.00490664
-0.00417447
-0.00342318
-0.00266537
-0.00191459
-0.00118504
-0.000491312
0.000152002
0.00073069
0.00123136
0.00164192
0.00195202
0.00215353
0.00224091
0.00221158
0.0020661
0.0018083
0.00144517
0.000986718
0.000445536
-0.00016364
-0.000824613
-0.00152039
-0.00223389
-0.00294855
-0.00364982
-0.00432322
-0.0049582
-0.00554584
-0.00607992
-0.00655678
-0.0069749
-0.00733346
-0.00763783
-0.00789023
-0.00809542
-0.00825901
-0.00838673
-0.00848424
-0.00855689
-0.00860956
-0.00864656
-0.00867152
-0.00868747
-0.00869684
-0.0087015
-0.0087029
-0.00870209
-0.00869983
-0.00869661
-0.0086927
-0.00868818
-0.00868294
-0.0086767
-0.008669
-0.00865928
-0.00864661
-0.00862934
-0.00860827
-3.37891e-05
-1.22936e-05
3.11831e-06
1.02685e-05
9.3485e-06
2.85335e-07
-1.67868e-05
-4.12918e-05
-7.22707e-05
-0.000108521
-0.000148752
-0.000191727
-0.00023639
-0.000281952
-0.000327942
-0.000374221
-0.000420943
-0.000468545
-0.000517666
-0.000569096
-0.000623721
-0.000682464
-0.000746258
-0.000815996
-0.000892597
-0.000976933
-0.00106993
-0.00117259
-0.00128602
-0.00141148
-0.00155037
-0.00170424
-0.00187476
-0.00206366
-0.00227269
-0.0025035
-0.00275759
-0.00303614
-0.00333996
-0.00366934
-0.00402391
-0.00440262
-0.00480362
-0.00522424
-0.00566098
-0.00610956
-0.00656497
-0.00702154
-0.00747309
-0.00791301
-0.00833445
-0.0087304
-0.00909384
-0.00941791
-0.00969601
-0.00992192
-0.0100899
-0.010195
-0.0102326
-0.0101994
-0.0100928
-0.00991106
-0.00965364
-0.00932052
-0.00891283
-0.00843694
-0.00789547
-0.00729426
-0.0066406
-0.00594307
-0.00521156
-0.00445719
-0.00369222
-0.00292988
-0.00218412
-0.00146938
-0.000800219
-0.000190971
0.000344701
0.000794255
0.00114674
0.00139328
0.00152746
0.00154574
0.00144772
0.00123624
0.00091743
0.000500512
-2.5048e-06
-0.000577299
-0.00120787
-0.0018772
-0.00256802
-0.0032635
-0.00394809
-0.0046076
-0.00523048
-0.00580703
-0.00633058
-0.00679689
-0.0072042
-0.00755276
-0.00784358
-0.00808259
-0.00827346
-0.00842173
-0.00853344
-0.00861457
-0.00867084
-0.0087075
-0.00872922
-0.00873994
-0.00874294
-0.0087408
-0.00873549
-0.00872846
-0.00872072
-0.00871291
-0.00870541
-0.00869833
-0.00869159
-0.0086849
-0.00867777
-0.00866952
-0.00865929
-0.00864573
-0.00862663
-0.0086027
-2.24504e-05
5.29422e-07
1.66819e-05
2.36341e-05
2.16687e-05
1.08667e-05
-8.41642e-06
-3.53295e-05
-6.86267e-05
-0.000106842
-0.000148461
-0.000192089
-0.000236578
-0.000281117
-0.000325276
-0.000368998
-0.00041256
-0.000456536
-0.000501713
-0.000549031
-0.000599516
-0.000654212
-0.0007142
-0.000780513
-0.000854205
-0.000936358
-0.00102815
-0.00113088
-0.00124605
-0.00137535
-0.00152069
-0.00168414
-0.00186792
-0.00207427
-0.00230541
-0.00256333
-0.00284974
-0.00316588
-0.00351239
-0.0038892
-0.00429541
-0.00472924
-0.00518803
-0.00566821
-0.00616538
-0.00667438
-0.00718938
-0.00770404
-0.0082116
-0.00870505
-0.00917722
-0.00962095
-0.0100292
-0.0103951
-0.0107122
-0.0109744
-0.0111763
-0.011313
-0.0113804
-0.011375
-0.0112945
-0.0111373
-0.0109028
-0.0105909
-0.0102034
-0.00974464
-0.00921848
-0.00863013
-0.00798632
-0.00729512
-0.0065659
-0.00580925
-0.00503689
-0.00426154
-0.00349675
-0.00275663
-0.00205557
-0.00140791
-0.000827514
-0.000327341
8.10154e-05
0.000387811
0.000585604
0.000669657
0.000638266
0.000492966
0.000238602
-0.000116769
-0.000562136
-0.00108396
-0.00166676
-0.0022938
-0.0029478
-0.00361173
-0.00426953
-0.00490666
-0.00551067
-0.00607143
-0.00658147
-0.00703579
-0.00743198
-0.00776991
-0.00805125
-0.00827853
-0.00845776
-0.00859368
-0.00869221
-0.00875946
-0.0088014
-0.00882354
-0.00883087
-0.00882768
-0.00881753
-0.00880326
-0.00878702
-0.00877038
-0.00875438
-0.00873967
-0.00872654
-0.00871503
-0.00870491
-0.00869575
-0.0086869
-0.00867748
-0.00866636
-0.00865188
-0.00863137
-0.00860543
-3.91078e-06
2.00793e-05
3.64483e-05
4.26554e-05
3.90659e-05
2.59278e-05
3.84841e-06
-2.60162e-05
-6.21068e-05
-0.000102668
-0.000145956
-0.000190417
-0.000234828
-0.000278378
-0.000320706
-0.000361854
-0.00040226
-0.000442666
-0.000484038
-0.000527496
-0.000574256
-0.000625559
-0.000682671
-0.000746867
-0.000819472
-0.000901908
-0.000995757
-0.00110281
-0.00122512
-0.00136498
-0.00152493
-0.00170768
-0.001916
-0.00215261
-0.00242004
-0.00272041
-0.00305533
-0.0034257
-0.00383159
-0.00427216
-0.00474558
-0.00524907
-0.00577889
-0.00633045
-0.0068984
-0.00747672
-0.00805891
-0.00863808
-0.00920708
-0.00975865
-0.0102855
-0.0107806
-0.0112368
-0.0116476
-0.0120066
-0.0123082
-0.0125471
-0.0127187
-0.012819
-0.012845
-0.0127944
-0.0126656
-0.0124578
-0.0121712
-0.0118078
-0.011371
-0.0108644
-0.0102929
-0.00966269
-0.00898121
-0.00825712
-0.00750033
-0.00672182
-0.00593363
-0.00514868
-0.00438055
-0.00364326
-0.00295098
-0.00231761
-0.00175644
-0.00127966
-0.000897893
-0.000619732
-0.000451303
-0.000395875
-0.000453588
-0.000621295
-0.000892568
-0.00125787
-0.00170491
-0.00221917
-0.00278454
-0.00338404
-0.00400066
-0.00461804
-0.00522114
-0.00579687
-0.00633437
-0.00682533
-0.00726399
-0.00764711
-0.00797375
-0.00824506
-0.00846374
-0.00863344
-0.00875996
-0.00884863
-0.0089054
-0.00893621
-0.0089467
-0.00894204
-0.00892679
-0.00890478
-0.00887913
-0.00885224
-0.00882586
-0.00880118
-0.00877892
-0.0087594
-0.00874262
-0.0087283
-0.00871592
-0.00870471
-0.00869364
-0.00868139
-0.00866606
-0.00864464
-0.00861763
2.25238e-05
4.70612e-05
6.31057e-05
6.79733e-05
6.21351e-05
4.60414e-05
2.05844e-05
-1.27446e-05
-5.20464e-05
-9.5267e-05
-0.000140437
-0.000185866
-0.000230284
-0.000272919
-0.000313491
-0.000352206
-0.000389677
-0.000426857
-0.000464922
-0.000505238
-0.000549254
-0.000598484
-0.000654496
-0.000718926
-0.00079353
-0.000880246
-0.000981251
-0.00109901
-0.00123628
-0.00139609
-0.00158168
-0.00179636
-0.00204336
-0.00232564
-0.00264574
-0.00300552
-0.00340604
-0.00384742
-0.00432875
-0.00484807
-0.00540235
-0.00598765
-0.00659911
-0.00723113
-0.00787751
-0.00853157
-0.00918626
-0.00983434
-0.0104685
-0.0110813
-0.0116657
-0.0122145
-0.0127211
-0.0131791
-0.0135824
-0.0139257
-0.0142041
-0.0144131
-0.0145493
-0.0146096
-0.0145921
-0.0144951
-0.0143177
-0.0140602
-0.0137248
-0.0133143
-0.0128319
-0.0122817
-0.0116696
-0.0110021
-0.0102873
-0.00953397
-0.00875239
-0.00795366
-0.00714982
-0.0063537
-0.0055787
-0.00483854
-0.00414695
-0.00351731
-0.00296225
-0.00249318
-0.00211985
-0.00184984
-0.0016882
-0.00163704
-0.0016953
-0.00185866
-0.0021196
-0.00246764
-0.00288975
-0.00337096
-0.00389503
-0.00444527
-0.00500526
-0.00555962
-0.00609462
-0.00659863
-0.00706244
-0.00747936
-0.00784522
-0.00815815
-0.00841843
-0.00862801
-0.00879033
-0.00890964
-0.00899139
-0.00904104
-0.00906427
-0.00906661
-0.00905325
-0.00902883
-0.00899739
-0.00896227
-0.00892612
-0.00889093
-0.00885808
-0.00882843
-0.00880241
-0.00878008
-0.00876119
-0.00874519
-0.00873124
-0.00871824
-0.00870476
-0.00868873
-0.00866696
-0.00863981
5.77013e-05
8.2313e-05
9.74681e-05
0.000100376
9.16535e-05
7.19919e-05
4.26063e-05
5.3562e-06
-3.75038e-05
-8.36271e-05
-0.000130842
-0.000177353
-0.000221881
-0.000263748
-0.000302797
-0.000339434
-0.00037447
-0.00040915
-0.000444902
-0.00048338
-0.000526367
-0.000575754
-0.000633551
-0.00070192
-0.000783234
-0.000880139
-0.000995595
-0.00113289
-0.0012956
-0.00148752
-0.0017125
-0.00197426
-0.00227621
-0.00262118
-0.00301123
-0.00344751
-0.00393009
-0.00445788
-0.0050287
-0.00563927
-0.00628529
-0.00696163
-0.00766242
-0.00838121
-0.0091111
-0.00984492
-0.0105753
-0.0112948
-0.011996
-0.0126717
-0.0133148
-0.0139185
-0.0144764
-0.0149824
-0.015431
-0.015817
-0.0161358
-0.0163836
-0.0165571
-0.0166535
-0.016671
-0.0166081
-0.0164641
-0.016239
-0.0159351
-0.0155546
-0.0151004
-0.0145761
-0.0139868
-0.0133384
-0.0126379
-0.0118933
-0.0111137
-0.0103091
-0.00949048
-0.00866967
-0.00785914
-0.00707185
-0.00632104
-0.00561989
-0.00498116
-0.00441681
-0.00393755
-0.00355237
-0.00326811
-0.00308903
-0.00301646
-0.00304864
-0.00318059
-0.00340424
-0.00370871
-0.00408082
-0.00450564
-0.00496731
-0.00544974
-0.00593744
-0.00641619
-0.00687359
-0.00729949
-0.00768614
-0.00802825
-0.00832291
-0.00856932
-0.0087685
-0.00892301
-0.00903637
-0.00911321
-0.00915844
-0.00917728
-0.00917492
-0.00915634
-0.00912612
-0.00908832
-0.00904643
-0.00900326
-0.00896102
-0.00892131
-0.0088852
-0.00885327
-0.00882571
-0.00880235
-0.00878271
-0.00876596
-0.00875099
-0.00873631
-0.00871981
-0.00869823
-0.00867181
0.000102632
0.000126803
0.000140476
0.000140797
0.000128563
0.000104752
7.09454e-05
2.93923e-05
-1.72981e-05
-6.65073e-05
-0.000115897
-0.000163621
-0.00020846
-0.000249811
-0.000287766
-0.000322954
-0.000356487
-0.000389872
-0.000424903
-0.000463614
-0.000508231
-0.000561163
-0.000625032
-0.000702716
-0.000797403
-0.000912625
-0.00105227
-0.00122051
-0.00142175
-0.00166037
-0.00194062
-0.00226627
-0.00264044
-0.00306535
-0.00354211
-0.00407069
-0.00464978
-0.0052769
-0.0059484
-0.00665965
-0.00740517
-0.00817874
-0.00897365
-0.00978275
-0.0105987
-0.0114139
-0.0122208
-0.013012
-0.0137801
-0.0145181
-0.0152191
-0.0158766
-0.0164847
-0.0170375
-0.0175301
-0.0179577
-0.0183162
-0.0186021
-0.0188124
-0.0189449
-0.0189977
-0.0189698
-0.0188605
-0.0186701
-0.0184001
-0.0180526
-0.0176301
-0.0171359
-0.0165742
-0.0159502
-0.0152699
-0.0145403
-0.0137693
-0.0129658
-0.0121393
-0.0113005
-0.0104606
-0.00963153
-0.00882559
-0.00805539
-0.00733341
-0.00667178
-0.00608183
-0.00557365
-0.00515572
-0.00483439
-0.00461351
-0.00449413
-0.00447426
-0.00454884
-0.00470985
-0.0049466
-0.00524626
-0.00559448
-0.00597611
-0.006376
-0.00677975
-0.00717434
-0.00754867
-0.00789385
-0.00820334
-0.00847294
-0.00870062
-0.00888623
-0.00903121
-0.00913822
-0.00921086
-0.00925326
-0.00927007
-0.00926588
-0.00924526
-0.00921253
-0.00917162
-0.00912598
-0.00907852
-0.00903158
-0.00898696
-0.00894592
-0.00890924
-0.0088773
-0.00885007
-0.00882717
-0.00880788
-0.00879112
-0.00877544
-0.00875876
-0.00873791
-0.00871297
0.000158458
0.000181614
0.000193181
0.000190289
0.000173945
0.000145463
0.000106821
6.06652e-05
9.94373e-06
-4.24884e-05
-9.41813e-05
-0.000143293
-0.000188718
-0.000230058
-0.000267646
-0.000302417
-0.000335826
-0.000369756
-0.000406441
-0.000448417
-0.000498493
-0.000559773
-0.000635681
-0.000730004
-0.00084691
-0.00099094
-0.00116694
-0.00137994
-0.00163492
-0.0019366
-0.00228916
-0.00269597
-0.00315932
-0.00368031
-0.00425872
-0.00489295
-0.00558018
-0.00631636
-0.00709645
-0.00791456
-0.0087641
-0.00963801
-0.0105288
-0.0114289
-0.0123306
-0.0132261
-0.0141078
-0.0149683
-0.0158005
-0.0165976
-0.017353
-0.0180608
-0.0187153
-0.0193114
-0.0198445
-0.0203104
-0.0207055
-0.0210268
-0.0212717
-0.0214382
-0.021525
-0.0215311
-0.0214564
-0.0213012
-0.0210663
-0.0207537
-0.0203655
-0.0199046
-0.0193747
-0.0187802
-0.0181262
-0.0174185
-0.0166639
-0.0158699
-0.0150447
-0.0141974
-0.0133378
-0.0124766
-0.0116247
-0.0107937
-0.00999531
-0.00924137
-0.00854328
-0.00791178
-0.00735653
-0.00688569
-0.00650547
-0.00621973
-0.00602972
-0.00593379
-0.00592737
-0.0060031
-0.00615105
-0.00635927
-0.00661438
-0.0069023
-0.00720901
-0.00752123
-0.00782711
-0.00811663
-0.0083819
-0.00861725
-0.00881917
-0.00898611
-0.00911816
-0.0092168
-0.00928453
-0.00932455
-0.00934057
-0.00933649
-0.00931633
-0.00928391
-0.00924287
-0.00919647
-0.00914756
-0.00909854
-0.00905131
-0.0090073
-0.0089675
-0.00893246
-0.00890235
-0.00887694
-0.00885566
-0.00883753
-0.0088212
-0.00880467
-0.00878502
-0.00876216
0.000226414
0.000247906
0.000256712
0.000249991
0.000228995
0.0001954
0.000151597
0.000100623
4.57325e-05
-1.00371e-05
-6.4216e-05
-0.000115012
-0.000161501
-0.000203584
-0.000241904
-0.00027777
-0.000313063
-0.000350148
-0.000391815
-0.000441245
-0.000502014
-0.000578099
-0.000673915
-0.000794308
-0.000944526
-0.00113013
-0.00135681
-0.00163018
-0.00195549
-0.00233731
-0.00277922
-0.00328363
-0.00385156
-0.00448256
-0.00517475
-0.00592488
-0.00672848
-0.00758003
-0.00847317
-0.0094009
-0.0103557
-0.0113298
-0.0123152
-0.0133039
-0.0142879
-0.0152595
-0.0162112
-0.0171358
-0.0180264
-0.0188766
-0.0196804
-0.0204322
-0.0211272
-0.0217606
-0.0223285
-0.0228274
-0.0232542
-0.0236063
-0.0238817
-0.0240788
-0.0241965
-0.0242344
-0.0241925
-0.0240713
-0.0238714
-0.0235941
-0.0232415
-0.0228163
-0.0223215
-0.0217608
-0.0211384
-0.0204592
-0.0197287
-0.0189531
-0.0181393
-0.0172947
-0.0164277
-0.0155471
-0.0146625
-0.013784
-0.0129221
-0.0120877
-0.0112916
-0.0105447
-0.00985721
-0.00923841
-0.00869643
-0.00823766
-0.00786644
-0.00758466
-0.00739161
-0.0072838
-0.00725509
-0.00729688
-0.00739857
-0.00754814
-0.00773279
-0.00793971
-0.00815677
-0.00837305
-0.00857936
-0.00876846
-0.00893513
-0.00907614
-0.00918998
-0.00927664
-0.00933727
-0.00937392
-0.00938924
-0.00938624
-0.00936811
-0.00933813
-0.00929938
-0.00925487
-0.0092072
-0.00915869
-0.00911126
-0.00906646
-0.00902542
-0.00898887
-0.00895718
-0.0089303
-0.00890782
-0.00888892
-0.00887239
-0.00885642
-0.00883834
-0.008818
0.00030777
0.000326866
0.000332225
0.000321097
0.000294977
0.000255921
0.000206728
0.000150798
9.16394e-05
3.24148e-05
-2.45679e-05
-7.74715e-05
-0.000125788
-0.000169738
-0.000210366
-0.000249448
-0.000289393
-0.000333175
-0.000384285
-0.000446727
-0.000525019
-0.000624192
-0.000749787
-0.000907785
-0.00110449
-0.00134631
-0.00163952
-0.00198991
-0.00240248
-0.00288106
-0.00342816
-0.00404471
-0.00473005
-0.00548195
-0.00629673
-0.00716944
-0.00809404
-0.00906366
-0.0100708
-0.0111074
-0.0121652
-0.0132359
-0.0143112
-0.0153827
-0.0164426
-0.0174832
-0.0184971
-0.0194776
-0.0204182
-0.0213131
-0.0221568
-0.0229446
-0.023672
-0.0243351
-0.0249307
-0.0254557
-0.0259078
-0.026285
-0.0265856
-0.0268087
-0.0269533
-0.0270194
-0.0270074
-0.0269179
-0.0267512
-0.0265084
-0.0261915
-0.0258028
-0.025345
-0.024821
-0.0242344
-0.0235891
-0.0228896
-0.0221408
-0.0213482
-0.0205178
-0.0196562
-0.0187707
-0.0178691
-0.0169597
-0.0160515
-0.0151539
-0.0142768
-0.0134301
-0.012624
-0.0118681
-0.0111717
-0.0105431
-0.00998911
-0.00951496
-0.00912373
-0.00881613
-0.00859034
-0.008442
-0.00836433
-0.00834851
-0.00838418
-0.00846
-0.0085644
-0.0086862
-0.00881523
-0.00894275
-0.00906175
-0.00916704
-0.00925522
-0.00932444
-0.00937424
-0.00940518
-0.00941863
-0.00941651
-0.00940111
-0.0093749
-0.00934006
-0.00929959
-0.00925546
-0.00920982
-0.00916452
-0.00912111
-0.00908081
-0.00904451
-0.00901271
-0.00898559
-0.00896289
-0.00894397
-0.00892779
-0.00891276
-0.00889657
-0.00887896
0.00040375
0.000419641
0.000420857
0.00040479
0.000373165
0.000328402
0.000273688
0.000212706
0.000149165
8.62232e-05
2.61789e-05
-2.96098e-05
-8.08704e-05
-0.000128273
-0.000173376
-0.000218531
-0.000266802
-0.000321916
-0.000388241
-0.000470778
-0.000575151
-0.000707573
-0.000874759
-0.00108377
-0.00134177
-0.00165571
-0.00203199
-0.00247604
-0.002992
-0.00358249
-0.00424838
-0.00498879
-0.00580115
-0.00668133
-0.00762384
-0.0086221
-0.00966863
-0.0107553
-0.0118736
-0.0130148
-0.0141699
-0.0153304
-0.0164875
-0.0176331
-0.0187593
-0.0198588
-0.0209247
-0.0219507
-0.022931
-0.0238604
-0.0247343
-0.0255484
-0.0262992
-0.0269836
-0.0275987
-0.0281425
-0.0286131
-0.029009
-0.0293293
-0.029573
-0.0297399
-0.0298301
-0.0298442
-0.0297831
-0.029647
-0.0294368
-0.0291543
-0.0288017
-0.0283812
-0.0278953
-0.027347
-0.0267393
-0.0260758
-0.0253604
-0.0245974
-0.0237913
-0.0229473
-0.0220709
-0.0211682
-0.0202457
-0.0193106
-0.0183705
-0.0174336
-0.0165085
-0.0156045
-0.0147308
-0.0138968
-0.0131117
-0.0123841
-0.0117216
-0.0111308
-0.0106162
-0.0101806
-0.00982428
-0.00954521
-0.0093389
-0.00919866
-0.00911602
-0.00908121
-0.0090838
-0.0091134
-0.00916023
-0.0092156
-0.0092723
-0.00932474
-0.00936892
-0.00940232
-0.00942371
-0.00943287
-0.00943035
-0.00941728
-0.00939512
-0.00936553
-0.00933043
-0.00929159
-0.00925079
-0.00920967
-0.00916969
-0.00913208
-0.00909778
-0.00906745
-0.0090414
-0.00901955
-0.00900143
-0.0089862
-0.0089725
-0.00895839
-0.00894358
0.000515451
0.000527263
0.000523642
0.000502174
0.000464765
0.000414162
0.000353876
0.000287721
0.000219708
0.00015275
8.89398e-05
2.92461e-05
-2.64957e-05
-7.95029e-05
-0.000131955
-0.000186905
-0.000248219
-0.000320546
-0.000409298
-0.000520629
-0.000661385
-0.000838986
-0.00106125
-0.00133609
-0.00167119
-0.00207357
-0.00254915
-0.00310244
-0.00373618
-0.00445125
-0.00524656
-0.00611921
-0.00706459
-0.00807668
-0.00914828
-0.0102713
-0.0114369
-0.012636
-0.0138592
-0.0150971
-0.0163405
-0.0175806
-0.0188087
-0.0200168
-0.0211976
-0.0223441
-0.02345
-0.0245098
-0.0255184
-0.0264715
-0.027365
-0.0281958
-0.0289609
-0.029658
-0.0302849
-0.0308402
-0.0313227
-0.0317312
-0.0320654
-0.0323247
-0.0325092
-0.0326192
-0.0326555
-0.0326191
-0.0325102
-0.0323298
-0.0320797
-0.0317615
-0.0313773
-0.0309294
-0.0304199
-0.0298515
-0.029227
-0.0285494
-0.0278218
-0.0270478
-0.0262312
-0.0253759
-0.0244864
-0.0235674
-0.0226243
-0.0216627
-0.020689
-0.0197101
-0.0187334
-0.0177671
-0.0168198
-0.0159005
-0.0150184
-0.0141826
-0.013402
-0.0126844
-0.0120365
-0.0114634
-0.010968
-0.0105512
-0.010211
-0.00994327
-0.00974154
-0.00959764
-0.00950218
-0.00944525
-0.00941707
-0.00940862
-0.00941202
-0.00942082
-0.00943008
-0.00943632
-0.00943733
-0.00943194
-0.00941984
-0.00940133
-0.00937711
-0.00934822
-0.00931591
-0.00928145
-0.00924622
-0.00921144
-0.00917827
-0.00914767
-0.00912033
-0.00909668
-0.00907677
-0.0090603
-0.00904661
-0.00903458
-0.00902264
-0.00901052
0.000643748
0.000650555
0.000641429
0.000614186
0.000570815
0.000514311
0.000448351
0.000377156
0.000304373
0.000232851
0.000164323
9.92778e-05
3.6976e-05
-2.44599e-05
-8.79553e-05
-0.000157409
-0.000237652
-0.000334418
-0.000454309
-0.000604735
-0.000793778
-0.00102997
-0.001322
-0.00167826
-0.00210643
-0.00261302
-0.00320289
-0.00387903
-0.00464233
-0.00549156
-0.00642349
-0.00743306
-0.00851368
-0.00965749
-0.0108557
-0.0120989
-0.0133771
-0.0146804
-0.0159989
-0.0173227
-0.0186426
-0.0199497
-0.0212358
-0.0224933
-0.0237154
-0.0248959
-0.0260294
-0.027111
-0.0281366
-0.0291026
-0.0300061
-0.0308443
-0.0316154
-0.0323175
-0.0329492
-0.0335097
-0.0339981
-0.034414
-0.0347571
-0.0350275
-0.0352253
-0.0353512
-0.0354059
-0.0353905
-0.0353055
-0.0351518
-0.034931
-0.0346448
-0.034295
-0.0338832
-0.0334117
-0.0328824
-0.0322975
-0.0316595
-0.0309707
-0.0302336
-0.029451
-0.0286256
-0.0277604
-0.0268587
-0.025924
-0.0249601
-0.0239714
-0.0229628
-0.0219399
-0.0209089
-0.019877
-0.0188519
-0.0178424
-0.0168578
-0.0159079
-0.0150026
-0.0141517
-0.0133642
-0.0126479
-0.0120089
-0.011451
-0.0109753
-0.0105805
-0.0102621
-0.0100136
-0.00982641
-0.00969072
-0.00959641
-0.00953361
-0.00949335
-0.00946795
-0.00945124
-0.00943851
-0.00942644
-0.00941289
-0.00939665
-0.00937728
-0.00935475
-0.0093296
-0.00930253
-0.00927446
-0.00924633
-0.00921912
-0.0091937
-0.00917076
-0.00915075
-0.00913384
-0.00911984
-0.00910824
-0.00909817
-0.0090884
-0.0090787
0.000789175
0.000790024
0.000774777
0.000741482
0.00069202
0.000629645
0.000558182
0.000481708
0.000403764
0.000326888
0.000252331
0.000179982
0.000108411
3.49535e-05
-4.42023e-05
-0.000133957
-0.00024026
-0.000370069
-0.000531272
-0.000732539
-0.000983082
-0.0012923
-0.00166934
-0.00212258
-0.00265909
-0.00328424
-0.00400128
-0.00481119
-0.00571264
-0.00670213
-0.00777415
-0.00892154
-0.0101358
-0.0114074
-0.0127261
-0.0140814
-0.0154625
-0.0168588
-0.0182601
-0.0196566
-0.0210391
-0.0223992
-0.0237292
-0.0250222
-0.0262723
-0.027474
-0.0286229
-0.0297151
-0.0307473
-0.0317169
-0.0326216
-0.0334596
-0.0342296
-0.0349305
-0.0355614
-0.0361219
-0.0366117
-0.0370307
-0.0373789
-0.0376566
-0.0378643
-0.0380027
-0.0380725
-0.0380748
-0.0380103
-0.0378802
-0.0376858
-0.0374285
-0.0371101
-0.036732
-0.036296
-0.035804
-0.0352576
-0.0346588
-0.0340094
-0.0333111
-0.032566
-0.0317757
-0.0309423
-0.0300675
-0.0291536
-0.0282027
-0.0272175
-0.0262007
-0.0251561
-0.0240877
-0.0230005
-0.0219007
-0.0207954
-0.0196929
-0.0186027
-0.0175352
-0.0165019
-0.0155143
-0.0145843
-0.0137225
-0.0129385
-0.0122396
-0.0116302
-0.0111117
-0.010682
-0.0103358
-0.0100652
-0.00986016
-0.00970973
-0.00960274
-0.00952873
-0.00947845
-0.00944421
-0.00942
-0.00940131
-0.00938503
-0.00936912
-0.00935249
-0.00933459
-0.00931543
-0.00929537
-0.009275
-0.00925494
-0.00923596
-0.00921864
-0.0092034
-0.00919043
-0.00917963
-0.00917061
-0.00916272
-0.00915502
-0.00914737
0.000951808
0.000945751
0.000923831
0.000884228
0.000828826
0.000760677
0.000683637
0.000601632
0.000517916
0.000434556
0.0003522
0.000270017
0.000185756
9.58311e-05
-4.60312e-06
-0.000121597
-0.000262352
-0.000435134
-0.000649114
-0.000914113
-0.00124022
-0.00163729
-0.00211443
-0.00267935
-0.00333794
-0.0040938
-0.00494811
-0.00589949
-0.0069442
-0.00807634
-0.00928819
-0.0105706
-0.0119132