/*--------------------------------*- C++ -*----------------------------------*\
| =========                 |                                                 |
| \\      /  F ield         | OpenFOAM: The Open Source CFD Toolbox           |
|  \\    /   O peration     | Version:  2406                                  |
|   \\  /    A nd           | Website:  www.openfoam.com                      |
|    \\/     M anipulation  |                                                 |
\*---------------------------------------------------------------------------*/
FoamFile
{
    version     2.0;
    format      ascii;
    arch        "LSB;label=32;scalar=64";
    class       surfaceScalarField;
    location    "71";
    object      phi;
}
// * * * * * * * * * * * * * * * * * * * * * * * * * * * * * * * * * * * * * //

dimensions      [0 3 -1 0 0 0 0];

oriented        oriented;

internalField   nonuniform List<scalar> 
1984
(
5.90838e-06
-5.90834e-06
1.62081e-05
-1.02997e-05
2.40932e-05
-7.88511e-06
2.76223e-05
-3.52914e-06
2.83213e-05
-6.98963e-07
2.79423e-05
3.78985e-07
2.66515e-05
1.29081e-06
2.30016e-05
3.64995e-06
1.36291e-05
9.37243e-06
-7.35033e-06
2.09795e-05
-4.41234e-05
3.67731e-05
-9.70497e-05
5.29263e-05
-0.000161228
6.41787e-05
-0.00022782
6.65914e-05
-0.000286897
5.90773e-05
-0.000330964
4.40665e-05
-0.000355527
2.45637e-05
-0.000358961
3.43416e-06
-0.000338186
-2.07756e-05
-0.000293383
-4.48028e-05
-0.00022646
-6.69226e-05
-0.000141737
-8.47236e-05
-4.71031e-05
-9.46338e-05
4.57397e-05
-9.28427e-05
0.000122123
-7.63836e-05
0.000163804
-4.16807e-05
0.000162808
9.95916e-07
0.000127159
3.56494e-05
8.08468e-05
4.63118e-05
4.11835e-05
3.96633e-05
1.34234e-05
2.77601e-05
1.34234e-05
1.15025e-05
-1.74108e-05
2.91089e-05
-2.79062e-05
4.07719e-05
-1.95481e-05
4.33146e-05
-6.07177e-06
3.77991e-05
4.81644e-06
2.45139e-05
1.36642e-05
-1.09938e-06
2.69041e-05
-4.81651e-05
5.07156e-05
-0.000123482
8.46894e-05
-0.000222775
0.000120273
-0.000333187
0.000147185
-0.000437963
0.000157702
-0.000526029
0.000152245
-0.000593352
0.000133915
-0.000639696
0.000105421
-0.000665154
6.95243e-05
-0.000669025
2.84343e-05
-0.000649849
-1.57411e-05
-0.000609222
-6.14031e-05
-0.000546267
-0.000107758
-0.000461279
-0.000151911
-0.000356378
-0.000189624
-0.000236494
-0.000214517
-0.000110961
-0.000218376
5.43383e-06
-0.000192778
9.93537e-05
-0.000135601
0.000147625
-4.7275e-05
0.000150288
3.29862e-05
0.00011915
7.74497e-05
7.28006e-05
8.60127e-05
2.72409e-05
7.33198e-05
4.06643e-05
1.41559e-05
-3.15667e-05
3.09337e-05
-4.4684e-05
3.65491e-05
-2.51635e-05
2.81068e-05
2.37056e-06
3.96377e-06
2.89594e-05
-4.25418e-05
6.01698e-05
-0.00012057
0.000104932
-0.000231017
0.000161163
-0.000359353
0.000213025
-0.000484141
0.00024506
-0.000592325
0.000255369
-0.000680575
0.000245951
-0.000748534
0.000220204
-0.000797286
0.000182667
-0.000828422
0.000136558
-0.000843235
8.4337e-05
-0.000841671
2.68705e-05
-0.000824336
-3.30763e-05
-0.000790851
-9.48876e-05
-0.000740027
-0.000158582
-0.000670356
-0.000221582
-0.000580741
-0.00027924
-0.000471461
-0.000323798
-0.000345251
-0.000344586
-0.000210395
-0.000327634
-8.31718e-05
-0.000262824
1.62855e-05
-0.000146732
6.54888e-05
-1.62171e-05
7.06912e-05
7.22473e-05
5.06031e-05
0.000106101
2.00887e-05
0.000103834
6.0753e-05
1.37729e-05
-4.53396e-05
2.19888e-05
-5.28999e-05
1.21139e-05
-1.52886e-05
-1.96808e-05
3.41653e-05
-7.9322e-05
8.86006e-05
-0.000173942
0.000154789
-0.000299405
0.000230396
-0.000435679
0.000297437
-0.000562085
0.000339431
-0.000668815
0.00035179
-0.000753457
0.000340011
-0.000817534
0.000310028
-0.000864048
0.000266718
-0.000895834
0.000214453
-0.000915295
0.000156019
-0.000923996
9.30378e-05
-0.000922283
2.51576e-05
-0.000911409
-4.39506e-05
-0.000890759
-0.000115538
-0.000858604
-0.000190736
-0.000812475
-0.000267711
-0.000748999
-0.000342716
-0.000664312
-0.000408485
-0.000555845
-0.000453054
-0.000422852
-0.000460627
-0.000273943
-0.000411733
-0.000129351
-0.000291324
-2.64546e-05
-0.000119113
1.43642e-05
3.14285e-05
1.80839e-05
0.000102381
7.40465e-06
0.000114513
6.81576e-05
7.47039e-06
-5.281e-05
-1.90464e-06
-4.35249e-05
-3.66433e-05
1.94501e-05
-0.000101318
9.88403e-05
-0.000199802
0.000187084
-0.000326499
0.000281487
-0.000462104
0.000366001
-0.000585556
0.000420889
-0.000685953
0.000439828
-0.000763163
0.000429
-0.000819462
0.000396311
-0.000858107
0.000348673
-0.000883025
0.000291636
-0.000897613
0.00022904
-0.000904656
0.000163062
-0.000906235
9.46168e-05
-0.000904381
2.33034e-05
-0.000899286
-4.90452e-05
-0.000890456
-0.000124368
-0.000877289
-0.000203903
-0.000857638
-0.000287362
-0.000827366
-0.000372987
-0.000779964
-0.000455887
-0.000706923
-0.000526094
-0.000600628
-0.000566922
-0.000456959
-0.000555402
-0.000282943
-0.00046534
-0.000116788
-0.000285268
-2.20011e-05
-6.33582e-05
7.51047e-07
7.96289e-05
1.21127e-06
0.000114053
6.93689e-05
-6.74003e-06
-4.607e-05
-4.0355e-05
-9.90994e-06
-0.000104342
8.34373e-05
-0.000198849
0.000193347
-0.000318905
0.00030714
-0.000448458
0.000411039
-0.000566578
0.000484122
-0.00066087
0.000515181
-0.000729887
0.000508844
-0.000776809
0.000475922
-0.000805763
0.000425265
-0.000821406
0.000364315
-0.0008279
0.00029813
-0.000828576
0.000229716
-0.00082596
0.000160446
-0.000821817
9.04742e-05
-0.000818607
2.00935e-05
-0.000815713
-5.19398e-05
-0.000813435
-0.000126645
-0.00081232
-0.000205019
-0.0008118
-0.000287882
-0.000809278
-0.00037551
-0.000799105
-0.00046606
-0.000771589
-0.00055361
-0.000712769
-0.000625743
-0.000607475
-0.000660695
-0.00044559
-0.000627225
-0.000240102
-0.000490757
-6.27815e-05
-0.000240678
1.08839e-06
1.5759e-05
2.98774e-06
0.000112154
7.23567e-05
-2.63945e-05
-1.96755e-05
-8.57853e-05
4.94808e-05
-0.000173129
0.000170781
-0.000283265
0.000303483
-0.000404132
0.000428007
-0.000517036
0.000523942
-0.000607496
0.000574582
-0.000671284
0.000578969
-0.00071173
0.000549291
-0.000733748
0.00049794
-0.000742679
0.000434196
-0.000743527
0.000365163
-0.000739906
0.000294509
-0.000734405
0.000224216
-0.000728567
0.000154608
-0.000723498
8.54052e-05
-0.000719895
1.64902e-05
-0.000717537
-5.42977e-05
-0.00071704
-0.000127141
-0.000719224
-0.000202835
-0.000724641
-0.000282464
-0.000733251
-0.0003669
-0.000743053
-0.000456258
-0.000748258
-0.000548405
-0.000735693
-0.000638308
-0.000685302
-0.000711085
-0.000574062
-0.000738466
-0.000388019
-0.000676799
-0.000152833
-0.000475865
-3.33547e-06
-0.000133738
9.66692e-06
9.91514e-05
8.20236e-05
-4.55213e-05
2.58458e-05
-0.000124925
0.000128885
-0.000224924
0.00027078
-0.000336594
0.000415153
-0.000444833
0.000536246
-0.000534627
0.000613736
-0.000597986
0.000637942
-0.000636488
0.000617471
-0.000655907
0.00056871
-0.000662116
0.000504149
-0.000660775
0.000432855
-0.000656022
0.00036041
-0.000650439
0.000288926
-0.000645278
0.000219054
-0.000640979
0.000150309
-0.000637739
8.21657e-05
-0.000635209
1.39595e-05
-0.000633849
-5.56571e-05
-0.000633983
-0.000127007
-0.000636133
-0.000200685
-0.00064118
-0.000277418
-0.000650152
-0.000357928
-0.000663439
-0.000442971
-0.000678878
-0.000532966
-0.000690448
-0.000626738
-0.000682417
-0.000719116
-0.000629703
-0.000791179
-0.000503028
-0.000803475
-0.000289784
-0.000689109
-5.32857e-05
-0.000370236
1.63046e-05
2.95611e-05
9.83282e-05
-5.87992e-05
8.4645e-05
-0.000149419
0.000219504
-0.000252006
0.000373368
-0.000355568
0.000518714
-0.000446226
0.000626905
-0.000513477
0.000680987
-0.000554977
0.000679442
-0.000575799
0.000638292
-0.000582643
0.000575554
-0.000581498
0.000503005
-0.000577218
0.000428575
-0.000572469
0.000355661
-0.000568442
0.000284899
-0.000565409
0.000216021
-0.000563244
0.000148144
-0.000561744
8.06659e-05
-0.000560794
1.30092e-05
-0.000560469
-5.59819e-05
-0.000561127
-0.000126349
-0.000563229
-0.000198583
-0.000567498
-0.000273149
-0.000574929
-0.000350497
-0.000586513
-0.000431388
-0.000602386
-0.000517093
-0.000620067
-0.000609057
-0.000632089
-0.000707094
-0.00061981
-0.000803458
-0.000554055
-0.00086923
-0.000400333
-0.000842831
-0.000140658
-0.000629912
2.19235e-05
-0.00013302
0.000120252
-6.47888e-05
0.000149434
-0.000157873
0.000312588
-0.000255293
0.000470788
-0.00034556
0.000608981
-0.000418294
0.000699638
-0.000466937
0.00072963
-0.000493085
0.00070559
-0.000503418
0.000648626
-0.000504505
0.000576641
-0.000501632
0.000500132
-0.000498124
0.000425066
-0.000495307
0.000352845
-0.000493494
0.000283086
-0.000492475
0.000215002
-0.000492028
0.000147697
-0.000491989
8.06268e-05
-0.000492187
1.32074e-05
-0.000492934
-5.52351e-05
-0.000494309
-0.000124973
-0.000496547
-0.000196345
-0.000500074
-0.000269622
-0.00050558
-0.000344991
-0.000514135
-0.000422833
-0.000527014
-0.000504214
-0.000544585
-0.000591486
-0.000563805
-0.000687874
-0.000573263
-0.000794
-0.000547508
-0.000894985
-0.000449118
-0.00094122
-0.000252257
-0.000826773
-1.24054e-05
-0.000372872
0.000107846
-6.33245e-05
0.000212758
-0.000151584
0.000400848
-0.000238585
0.000557789
-0.000314546
0.000684941
-0.00037143
0.000756523
-0.000406196
0.000764395
-0.000422758
0.000722153
-0.000427989
0.000653856
-0.000427646
0.000576298
-0.000425685
0.00049817
-0.000424135
0.000423517
-0.000423418
0.000352127
-0.000423426
0.000283094
-0.000423879
0.000215455
-0.000424654
0.000148472
-0.000425704
8.16768e-05
-0.00042706
1.45635e-05
-0.000428919
-5.3376e-05
-0.000431382
-0.000122511
-0.000434533
-0.000193194
-0.00043846
-0.000265695
-0.000443311
-0.00034014
-0.000449541
-0.000416603
-0.000458292
-0.000495463
-0.000471448
-0.00057833
-0.000490016
-0.000669306
-0.000509746
-0.00077427
-0.000511993
-0.000892738
-0.000464365
-0.000988849
-0.000329642
-0.000961495
-6.68056e-05
-0.000635709
4.10407e-05
-5.56592e-05
0.000268418
-0.000133939
0.000479128
-0.000208178
0.000632029
-0.000270063
0.000746826
-0.000313867
0.000800327
-0.000338977
0.000789506
-0.00035022
0.000733395
-0.000353713
0.000657349
-0.000353966
0.000576551
-0.000353753
0.000497958
-0.000354085
0.000423848
-0.000354944
0.000352986
-0.00035613
0.000284281
-0.000357477
0.000216802
-0.000358991
0.000149986
-0.000360738
8.34239e-05
-0.000362891
1.67165e-05
-0.00036556
-5.07071e-05
-0.000368881
-0.00011919
-0.000372936
-0.000189139
-0.000377721
-0.000260909
-0.000383152
-0.000334709
-0.000389171
-0.000410585
-0.000396085
-0.000488549
-0.0004052
-0.000569215
-0.00041902
-0.000655486
-0.000438888
-0.000754402
-0.000457394
-0.000874232
-0.000444678
-0.00100156
-0.000347418
-0.00105876
-0.00012963
-0.000853496
-8.85897e-05
-4.36211e-05
0.000312039
-0.000108704
0.00054421
-0.000169307
0.000692631
-0.000218113
0.000795632
-0.000251496
0.00083371
-0.000270182
0.000808191
-0.000278789
0.000742002
-0.000282216
0.000660776
-0.000283724
0.00057806
-0.000285148
0.000499381
-0.000286885
0.000425585
-0.000288801
0.000354902
-0.000290769
0.000286249
-0.000292768
0.000218801
-0.000294909
0.000152128
-0.000297336
8.58507e-05
-0.000300191
1.9571e-05
-0.000303636
-4.72616e-05
-0.000307758
-0.000115068
-0.0003126
-0.000184297
-0.000318127
-0.000255383
-0.000324181
-0.000328654
-0.000330522
-0.000404244
-0.000337024
-0.000482048
-0.000344271
-0.000561967
-0.000354452
-0.000645306
-0.000371189
-0.000737665
-0.000394195
-0.000851226
-0.000403085
-0.000992674
-0.000351354
-0.00111049
-0.000199792
-0.00100506
-0.000288382
-2.88607e-05
0.000340899
-7.89012e-05
0.000594251
-0.000125815
0.000739545
-0.000162847
0.000832664
-0.000187885
0.000858748
-0.000202211
0.000822517
-0.000209619
0.00074941
-0.000213601
0.000664758
-0.000216385
0.000580843
-0.000219055
0.000502052
-0.000221737
0.000428266
-0.000224349
0.000357515
-0.000226872
0.000288772
-0.0002294
0.000221328
-0.000232094
0.000154822
-0.000235118
8.88744e-05
-0.00023862
2.3073e-05
-0.00024274
-4.31412e-05
-0.000247571
-0.000110238
-0.000253164
-0.000178704
-0.00025949
-0.000249056
-0.000266384
-0.000321761
-0.0002735
-0.000397128
-0.000280377
-0.00047517
-0.000286892
-0.000555452
-0.000294289
-0.000637909
-0.000306155
-0.000725799
-0.000325235
-0.000832146
-0.000343468
-0.000974442
-0.000323546
-0.00113041
-0.000213927
-0.00111468
-0.000502309
-1.25868e-05
0.000353486
-4.67509e-05
0.000628415
-8.04255e-05
0.000773219
-0.000106794
0.000859033
-0.000125057
0.000877011
-0.00013629
0.000833751
-0.000143148
0.000756268
-0.00014775
0.00066936
-0.000151475
0.000584569
-0.00015493
0.000505507
-0.000158165
0.000431501
-0.000161204
0.000360554
-0.000164124
0.000291692
-0.000167086
0.000224289
-0.000170271
0.000158008
-0.000173846
9.24496e-05
-0.000177944
2.71705e-05
-0.000182699
-3.83864e-05
-0.000188192
-0.000104744
-0.000194468
-0.000172427
-0.000201516
-0.000242009
-0.000209219
-0.000314058
-0.000217305
-0.000389042
-0.0002253
-0.000467176
-0.000232702
-0.000548049
-0.000239704
-0.000630907
-0.000248827
-0.000716676
-0.000264666
-0.000816307
-0.000284861
-0.000954247
-0.000279514
-0.00113576
-0.000190512
-0.00120368
-0.00069282
3.99218e-06
0.000349494
-1.40969e-05
0.000646504
-3.49846e-05
0.000794107
-5.16756e-05
0.000875724
-6.39868e-05
0.000889322
-7.25157e-05
0.000842279
-7.88738e-05
0.000762626
-8.38881e-05
0.000674375
-8.82228e-05
0.000588903
-9.21227e-05
0.000509407
-9.56514e-05
0.00043503
-9.89351e-05
0.000363838
-0.000102127
0.000294884
-0.000105427
0.00022759
-0.000109025
0.000161605
-0.000113088
9.65128e-05
-0.00011775
3.18323e-05
-0.000123137
-3.29993e-05
-0.000129329
-9.85524e-05
-0.000136367
-0.000165389
-0.000144242
-0.000234133
-0.000152855
-0.000305445
-0.000161962
-0.000379935
-0.000171097
-0.000458041
-0.000179603
-0.000539543
-0.000187044
-0.000623466
-0.000194834
-0.000708885
-0.000207798
-0.000803343
-0.000228002
-0.000934043
-0.000232818
-0.00113094
-0.000164303
-0.00127219
-0.000857123
1.92475e-05
0.000330246
1.79503e-05
0.000647801
9.4854e-06
0.000802572
7.58611e-07
0.00088445
-5.5354e-06
0.000895616
-1.12525e-05
0.000847997
-1.66267e-05
0.000768001
-2.16763e-05
0.000679424
-2.62663e-05
0.000593493
-3.03357e-05
0.000513476
-3.39125e-05
0.000438607
-3.72257e-05
0.000367151
-4.05063e-05
0.000298165
-4.39882e-05
0.000231072
-4.78701e-05
0.000165487
-5.23228e-05
0.000100965
-5.74868e-05
3.69962e-05
-6.34819e-05
-2.70042e-05
-7.03832e-05
-9.16511e-05
-7.82429e-05
-0.000157529
-8.70683e-05
-0.000225308
-9.67942e-05
-0.000295719
-0.000107247
-0.000369483
-0.00011805
-0.000447238
-0.000128569
-0.000529024
-0.000138064
-0.000613971
-0.000146841
-0.000700109
-0.000158892
-0.000791292
-0.000178404
-0.000914532
-0.000189188
-0.00112016
-0.000138734
-0.00132265
-0.000995857
3.36791e-05
0.000296567
4.87249e-05
0.000632755
5.34019e-05
0.000797895
5.50893e-05
0.000882763
5.37022e-05
0.000897003
4.9899e-05
0.0008518
4.47936e-05
0.000773106
3.96163e-05
0.000684602
3.49884e-05
0.000598121
3.10374e-05
0.000517427
2.76389e-05
0.000442005
2.44841e-05
0.000370306
2.12835e-05
0.000301365
1.77766e-05
0.000234579
1.37492e-05
0.000169515
9.02008e-06
0.000105695
3.43544e-06
4.25808e-05
-3.14588e-06
-2.04229e-05
-1.08122e-05
-8.39848e-05
-1.96009e-05
-0.000148741
-2.9519e-05
-0.00021539
-4.05146e-05
-0.000284723
-5.24546e-05
-0.000357543
-6.49674e-05
-0.000434725
-7.763e-05
-0.000516361
-8.96997e-05
-0.000601901
-0.000100906
-0.000688902
-0.000113685
-0.000778513
-0.000134013
-0.000894203
-0.000151467
-0.0011027
-0.000117517
-0.0013566
-0.00111337
4.57451e-05
0.000250822
7.68941e-05
0.000601606
9.43873e-05
0.000780402
0.000105241
0.000871909
0.000109966
0.000892279
0.000109215
0.00085255
0.00010518
0.000777141
0.000100236
0.000689545
9.57472e-05
0.00060261
9.21108e-05
0.000521063
8.91418e-05
0.000444974
8.64192e-05
0.000373028
8.35636e-05
0.000304221
8.02642e-05
0.000237878
7.62818e-05
0.000173497
7.1413e-05
0.000110563
6.54836e-05
4.85102e-05
5.83461e-05
-1.32853e-05
4.99291e-05
-7.55677e-05
4.01533e-05
-0.000138965
2.90056e-05
-0.000204242
1.65265e-05
-0.000272244
2.87571e-06
-0.000343892
-1.19663e-05
-0.000419883
-2.73914e-05
-0.000500936
-4.29769e-05
-0.000586315
-5.80502e-05
-0.000673829
-7.35868e-05
-0.000762977
-9.58341e-05
-0.000871956
-0.000118504
-0.00108003
-9.96447e-05
-0.00137546
-0.00121302
5.38156e-05
0.000197007
0.000100847
0.000554575
0.000131507
0.000749741
0.000151951
0.000851465
0.000163483
0.000880747
0.000166925
0.000849108
0.000165062
0.000779004
0.000161104
0.000693503
0.000157146
0.000606569
0.000154004
0.000524205
0.000151602
0.000447376
0.000149474
0.000375157
0.000147148
0.000306547
0.000144242
0.000240784
0.00014047
0.000177269
0.000135601
0.000115432
0.000129431
5.468e-05
0.000121781
-5.63445e-06
0.000112574
-6.63613e-05
0.000101711
-0.000128102
8.91602e-05
-0.000191691
7.49433e-05
-0.000258027
5.91228e-05
-0.000328072
4.19422e-05
-0.000402702
2.36251e-05
-0.000482619
4.2183e-06
-0.000566909
-1.48474e-05
-0.000654763
-3.56649e-05
-0.000742159
-6.24145e-05
-0.000845206
-9.20149e-05
-0.00105043
-8.54481e-05
-0.00138202
-0.00129847
5.62232e-05
0.000140783
0.000118891
0.000491907
0.000163477
0.000705155
0.000194376
0.000820566
0.000213574
0.00086155
0.000222265
0.000840417
0.000223626
0.000777643
0.000221494
0.000695635
0.000218637
0.000609425
0.000216387
0.000526455
0.000214874
0.000448889
0.000213653
0.000376378
0.000212176
0.000308024
0.000209979
0.000242981
0.000206704
0.000180544
0.000202071
0.000120064
0.00019585
6.09015e-05
0.000187767
2.44801e-06
0.00017782
-5.64141e-05
0.000165837
-0.000116119
0.000151773
-0.000177627
0.000135601
-0.000241855
0.000117357
-0.000309827
9.71078e-05
-0.000382453
7.49529e-05
-0.000460464
5.13707e-05
-0.000543327
2.63572e-05
-0.00062975
-1.71397e-06
-0.000714088
-3.2633e-05
-0.000814287
-6.92036e-05
-0.00101386
-7.36091e-05
-0.00137762
-0.00137208
5.21954e-05
8.8588e-05
0.000129215
0.000414888
0.000188306
0.000646065
0.000230749
0.000778123
0.000259129
0.000833169
0.000274864
0.000824682
0.000281171
0.000771336
0.00028226
0.000694546
0.000281479
0.000610206
0.000280681
0.000527253
0.000280383
0.000449188
0.000280288
0.000376472
0.000279855
0.000308457
0.000278553
0.000244282
0.000275944
0.000183153
0.000271684
0.000124324
0.000265485
6.71015e-05
0.00025718
1.07524e-05
0.000246496
-4.57297e-05
0.000233385
-0.000103009
0.000217747
-0.000161989
0.0001995
-0.000223608
0.000178626
-0.000288953
0.000155041
-0.000358868
0.000128764
-0.000434187
9.97925e-05
-0.000514355
6.82008e-05
-0.000598158
3.43566e-05
-0.000680244
-3.41584e-06
-0.000776515
-4.92173e-05
-0.00096806
-6.38868e-05
-0.00136295
-0.00143596
4.30001e-05
4.55879e-05
0.000130608
0.00032728
0.000203909
0.000572764
0.00025875
0.000723282
0.000297535
0.000794384
0.00032196
0.000800258
0.000335135
0.000758161
0.000341286
0.000688395
0.000344066
0.000607426
0.000345808
0.000525512
0.000347467
0.000447529
0.000349045
0.000374895
0.000350095
0.000307407
0.000350078
0.000244299
0.000348496
0.000184735
0.000344938
0.000127882
0.000339087
7.29525e-05
0.000330646
1.91939e-05
0.000319406
-3.44898e-05
0.000305254
-8.8858e-05
0.000288045
-0.000144779
0.000267611
-0.000203175
0.000243828
-0.00026517
0.000216457
-0.000331497
0.000185335
-0.000403066
0.000150148
-0.000479168
0.000111092
-0.000559102
6.89467e-05
-0.000638099
2.23131e-05
-0.000729881
-3.12178e-05
-0.000914529
-5.55099e-05
-0.00133866
-0.00149147
3.13637e-05
1.42243e-05
0.000122043
0.0002366
0.000207383
0.000487424
0.000275489
0.000655176
0.000326443
0.000743429
0.000362026
0.000764675
0.000384881
0.000735305
0.000398786
0.00067449
0.0004074
0.000598812
0.000413365
0.000519547
0.000418104
0.000442791
0.000422035
0.000370963
0.000424974
0.000304468
0.000426487
0.000242786
0.000426097
0.000185125
0.000423371
0.000130608
0.000417948
7.83755e-05
0.000409546
2.75961e-05
0.000397827
-2.2771e-05
0.000382678
-7.37083e-05
0.000363879
-0.00012598
0.000341137
-0.000180433
0.000314203
-0.000238236
0.000282648
-0.000299942
0.000246113
-0.00036653
0.000204068
-0.000437123
0.000156613
-0.000511647
0.000104518
-0.000586004
4.81884e-05
-0.000673552
-1.49436e-05
-0.000851397
-4.82182e-05
-0.00130538
-0.00153969
2.07272e-05
-6.50295e-06
0.000103347
0.00015398
0.000197107
0.000393665
0.000276724
0.000575559
0.000340544
0.000679609
0.000389152
0.000716067
0.00042454
0.000699918
0.00044942
0.00064961
0.000466946
0.000581286
0.000479787
0.000506706
0.000489698
0.00043288
0.000497532
0.000363129
0.000503471
0.00029853
0.000507315
0.000238942
0.00050872
0.000183719
0.000507304
0.000132024
0.000502741
8.29388e-05
0.000494645
3.56921e-05
0.000482602
-1.0728e-05
0.000466611
-5.77168e-05
0.000446246
-0.000105615
0.000421067
-0.000155254
0.000390661
-0.00020783
0.00035435
-0.000263631
0.000311585
-0.000323766
0.000261635
-0.000387172
0.000204647
-0.000454659
0.000141641
-0.000522998
7.49774e-05
-0.000606887
-8.41063e-07
-0.000775579
-4.0885e-05
-0.00126534
-0.00158058
1.3608e-05
-2.0111e-05
7.81755e-05
8.94127e-05
0.000172332
0.000299508
0.000260508
0.000487383
0.000337118
0.000603
0.000401413
0.000651773
0.000452583
0.000648747
0.000492226
0.000609968
0.000522494
0.000551018
0.000545631
0.000483568
0.000563498
0.000415013
0.000577321
0.000349307
0.000587713
0.000288137
0.000594836
0.00023182
0.000598621
0.000179934
0.000598837
0.000131808
0.000595251
8.65242e-05
0.000587574
4.337e-05
0.000575288
1.55748e-06
0.000558308
-4.07365e-05
0.000536152
-8.34594e-05
0.000508194
-0.000127296
0.000473824
-0.00017346
0.000432107
-0.000221913
0.000382332
-0.000273991
0.000323579
-0.00032842
0.000256224
-0.000387303
0.000181676
-0.000448451
0.000104712
-0.000529924
2.09154e-05
-0.000691782
-3.0644e-05
-0.00121378
-0.00161122
1.09942e-05
-3.11052e-05
5.18044e-05
4.86025e-05
0.000132077
0.000219236
0.000221636
0.000397824
0.000308872
0.000515763
0.000388981
0.000571664
0.000458417
0.000579311
0.000516366
0.000552018
0.000563398
0.000503986
0.000600927
0.000446039
0.000630575
0.000385365
0.000653708
0.000326173
0.000671277
0.000270568
0.00068382
0.000219276
0.000691605
0.00017215
0.000694675
0.000128738
0.000692951
8.82485e-05
0.000686197
5.01231e-05
0.000674174
1.3581e-05
0.000656181
-2.27434e-05
0.000632181
-5.94595e-05
0.000601229
-9.63446e-05
0.000562534
-0.000134765
0.000514905
-0.000174284
0.000457536
-0.000216622
0.000389408
-0.000260292
0.000311398
-0.000309293
0.0002253
-0.000362353
0.000138638
-0.000443261
4.76678e-05
-0.000600812
-1.03624e-05
-0.00115575
-0.00162158
6.15745e-06
-3.72626e-05
2.2519e-05
3.2241e-05
7.80339e-05
0.000163721
0.000162599
0.000313258
0.000257809
0.000420554
0.000353446
0.000476027
0.000443065
0.000489692
0.000522292
0.000472791
0.000589548
0.00043673
0.000645104
0.000390483
0.000690039
0.00034043
0.000725617
0.000290596
0.000752961
0.000243225
0.000772954
0.000199283
0.000786207
0.000158897
0.000793086
0.000121859
0.00079377
8.75639e-05
0.000788289
5.56042e-05
0.000776622
2.52485e-05
0.000757533
-3.6546e-06
0.000731414
-3.33409e-05
0.000697162
-6.20924e-05
0.000653939
-9.15418e-05
0.000600416
-0.000120762
0.000535888
-0.000152094
0.00045935
-0.000183754
0.000372333
-0.000222276
0.000276718
-0.000266738
0.000182866
-0.000349409
9.04726e-05
-0.000508419
2.16346e-05
-0.00108691
-0.00159995
5.88705e-07
-3.78513e-05
-1.80188e-05
5.08485e-05
1.4006e-07
0.000145562
6.99535e-05
0.000243445
0.000168252
0.000322255
0.000278491
0.000365788
0.000388562
0.00037962
0.000490261
0.000371093
0.000579669
0.000347322
0.000655943
0.000314208
0.000719253
0.00027712
0.000770573
0.000239276
0.000810915
0.000202882
0.000841381
0.000168817
0.000862784
0.000137494
0.000875793
0.000108849
0.000880795
8.25621e-05
0.000877985
5.84145e-05
0.000867477
3.57565e-05
0.000849184
1.46382e-05
0.000821843
-5.99942e-06
0.000785776
-2.60256e-05
0.000740067
-4.58333e-05
0.00068347
-6.41645e-05
0.000615861
-8.44845e-05
0.000535993
-0.000103887
0.000446213
-0.000132495
0.00034808
-0.000168605
0.000254549
-0.000255878
0.000167213
-0.000421082
7.63351e-05
-0.000996033
-0.00152361
-7.36312e-05
3.57799e-05
-9.69848e-05
7.4202e-05
-9.54785e-05
0.000144056
-3.64649e-05
0.000184431
6.65266e-05
0.000219264
0.000188483
0.000243831
0.000318354
0.000249749
0.000441636
0.00024781
0.00055248
0.000236478
0.000648782
0.000217906
0.000729782
0.00019612
0.000796181
0.000172877
0.00084892
0.000150144
0.000889338
0.000128399
0.000918516
0.000108316
0.000937522
8.98437e-05
0.000947135
7.29491e-05
0.000947847
5.77023e-05
0.00093991
4.36931e-05
0.000923687
3.08612e-05
0.00089957
1.81183e-05
0.000866588
6.95606e-06
0.000825454
-4.69944e-06
0.000774565
-1.3275e-05
0.000715206
-2.51256e-05
0.000645878
-3.4559e-05
0.000569507
-5.61242e-05
0.000485403
-8.4501e-05
0.000402342
-0.000172817
0.000321805
-0.000340545
0.000181294
-0.000855522
-0.00134232
-0.000278518
0.000314298
-0.000359435
0.000155119
-0.000332577
0.000117198
-0.000243748
9.56028e-05
-0.000122294
9.78098e-05
1.91333e-05
0.000102404
0.000162098
0.000106784
0.000300933
0.000108976
0.000429621
0.00010779
0.000545212
0.000102315
0.000646364
9.49674e-05
0.000733139
8.61022e-05
0.000806221
7.70616e-05
0.00086689
6.77302e-05
0.000916029
5.91771e-05
0.00095511
5.07626e-05
0.000984587
4.3472e-05
0.00100601
3.62801e-05
0.00101944
3.02608e-05
0.00102624
2.4063e-05
0.00102535
1.9005e-05
0.00101847
1.38395e-05
0.0010036
1.01742e-05
0.000984113
6.20791e-06
0.000956309
2.67804e-06
0.000924147
-2.39712e-06
0.000881124
-1.31013e-05
0.000833339
-3.67155e-05
0.000762928
-0.000102407
0.000668147
-0.000245764
0.000399126
-0.000586501
-0.000943192
0.000314298
0.000469417
0.000586615
0.000682217
0.000780027
0.000882431
0.000989215
0.00109819
0.00120598
0.0013083
0.00140326
0.00148937
0.00156643
0.00163416
0.00169334
0.0017441
0.00178757
0.00182385
0.00185411
0.00187817
0.00189718
0.00191102
0.00192119
0.0019274
0.00193008
0.00192768
0.00191458
0.00187786
0.00177546
0.00152969
0.000943192
)
;

boundaryField
{
    movingWall
    {
        type            calculated;
        value           uniform 0;
    }
    fixedWalls
    {
        type            calculated;
        value           uniform 0;
    }
    frontAndBack
    {
        type            empty;
    }
}


// ************************************************************************* //
