/*--------------------------------*- C++ -*----------------------------------*\
| =========                 |                                                 |
| \\      /  F ield         | OpenFOAM: The Open Source CFD Toolbox           |
|  \\    /   O peration     | Version:  2406                                  |
|   \\  /    A nd           | Website:  www.openfoam.com                      |
|    \\/     M anipulation  |                                                 |
\*---------------------------------------------------------------------------*/
FoamFile
{
    version     2.0;
    format      ascii;
    arch        "LSB;label=32;scalar=64";
    class       volScalarField;
    location    "38";
    object      p;
}
// * * * * * * * * * * * * * * * * * * * * * * * * * * * * * * * * * * * * * //

dimensions      [0 2 -2 0 0 0 0];

internalField   nonuniform List<scalar> 
3600
(
0.0396363
0.0396711
0.0396527
0.0396277
0.0395429
0.0394518
0.0393251
0.0392017
0.0390576
0.0389117
0.0387413
0.0385526
0.0383278
0.0380686
0.0377637
0.0374141
0.0370145
0.0365684
0.0360786
0.0355566
0.0350191
0.0344936
0.0340145
0.0336223
0.0333589
0.033263
0.0333663
0.0336892
0.0342388
0.0350047
0.0359584
0.0370495
0.0382072
0.0393413
0.0403489
0.0411235
0.0415675
0.0416092
0.0412136
0.0403966
0.0392197
0.0377901
0.0362316
0.034677
0.0332298
0.0319728
0.0309386
0.0301432
0.0295587
0.0291645
0.0289061
0.0287616
0.0286773
0.0286512
0.0286374
0.0286567
0.028666
0.0287033
0.0287201
0.0287554
0.0396035
0.0396392
0.0396128
0.0395878
0.0395063
0.0394249
0.0393098
0.0391997
0.0390688
0.0389365
0.0387807
0.0386088
0.0384039
0.0381686
0.0378913
0.0375724
0.0372047
0.0367894
0.0363277
0.0358298
0.03531
0.0347901
0.0342985
0.0338711
0.0335498
0.0333767
0.0333898
0.033616
0.0340682
0.034741
0.0356094
0.0366255
0.0377206
0.0388058
0.0397784
0.0405316
0.0409666
0.04101
0.0406247
0.0398258
0.0386753
0.0372829
0.0357753
0.0342877
0.0329232
0.0317604
0.0308235
0.0301184
0.0296073
0.0292643
0.0290339
0.0288985
0.0288092
0.0287707
0.0287399
0.0287423
0.0287327
0.0287551
0.0287556
0.028791
0.0396138
0.0396596
0.0396299
0.0396015
0.0395133
0.0394281
0.0393128
0.0392068
0.039084
0.0389615
0.0388169
0.0386557
0.0384612
0.0382339
0.0379614
0.0376403
0.0372614
0.0368217
0.0363176
0.035753
0.0351408
0.0345075
0.0338923
0.0333424
0.0329087
0.0326382
0.0325716
0.0327363
0.0331457
0.0337938
0.0346555
0.0356825
0.036806
0.0379362
0.0389694
0.0397958
0.0403115
0.0404357
0.0401229
0.0393798
0.0382628
0.0368805
0.035365
0.0338614
0.032485
0.0313252
0.0304119
0.0297517
0.0293014
0.0290267
0.0288625
0.0287844
0.0287388
0.0287312
0.0287189
0.028733
0.028727
0.0287542
0.0287532
0.0288024
0.0396288
0.0396779
0.0396402
0.0396038
0.0395086
0.0394225
0.0393137
0.0392199
0.0391145
0.0390109
0.0388862
0.0387424
0.0385619
0.0383399
0.0380597
0.0377101
0.0372741
0.0367409
0.0361069
0.0353826
0.0345932
0.0337755
0.0329765
0.0322478
0.0316437
0.031213
0.0309981
0.0310273
0.0313158
0.0318596
0.0326371
0.0336049
0.0347002
0.0358394
0.0369238
0.0378457
0.0384992
0.0387954
0.0386759
0.0381307
0.0371998
0.0359787
0.0345938
0.0331915
0.0318946
0.0308024
0.0299535
0.02936
0.0289801
0.0287778
0.0286836
0.0286683
0.0286737
0.028704
0.0287153
0.0287432
0.0287402
0.0287693
0.0287633
0.0288209
0.0396955
0.0397425
0.0396938
0.0396419
0.0395333
0.0394377
0.0393284
0.0392384
0.0391423
0.0390461
0.0389259
0.0387751
0.0385717
0.0382991
0.0379316
0.0374461
0.0368237
0.0360579
0.0351586
0.0341504
0.033074
0.0319791
0.0309239
0.0299655
0.0291602
0.0285545
0.0281883
0.0280865
0.0282635
0.0287158
0.0294257
0.0303558
0.031452
0.0326404
0.0338321
0.0349258
0.0358165
0.0364078
0.0366247
0.036432
0.0358408
0.0349193
0.033775
0.0325473
0.0313645
0.0303395
0.0295285
0.0289594
0.028603
0.0284311
0.0283768
0.0284091
0.0284647
0.0285425
0.0285938
0.028653
0.0286711
0.0287148
0.0287148
0.0287796
0.039792
0.0398283
0.0397653
0.0396931
0.039573
0.0394694
0.0393635
0.0392778
0.0391889
0.0390908
0.038957
0.0387659
0.0384858
0.0380831
0.0375255
0.036787
0.0358605
0.0347537
0.0334974
0.0321332
0.0307176
0.0293075
0.0279654
0.0267466
0.0257054
0.0248842
0.0243196
0.0240339
0.0240408
0.0243383
0.0249141
0.0257391
0.026772
0.0279541
0.0292137
0.0304646
0.0316129
0.0325629
0.0332288
0.0335493
0.0334985
0.0331012
0.0324251
0.0315818
0.0306895
0.0298661
0.0291842
0.0286914
0.0283774
0.0282291
0.0281914
0.0282407
0.028317
0.028418
0.028493
0.0285722
0.0286058
0.028658
0.0286623
0.0287252
0.0399486
0.0399651
0.0398854
0.039786
0.0396518
0.0395323
0.0394209
0.0393223
0.0392164
0.0390779
0.0388746
0.0385619
0.0380978
0.0374347
0.0365462
0.0354167
0.0340633
0.0325156
0.0308282
0.0290576
0.0272728
0.0255358
0.0239115
0.0224514
0.0212049
0.0202056
0.0194829
0.0190513
0.0189202
0.0190857
0.0195382
0.020255
0.021207
0.0223513
0.0236369
0.0249994
0.0263659
0.0276551
0.0287841
0.0296774
0.0302764
0.0305564
0.0305288
0.0302523
0.0298109
0.0293113
0.0288379
0.0284625
0.0282035
0.0280723
0.028034
0.0280771
0.0281516
0.0282565
0.0283429
0.028435
0.0284835
0.0285442
0.028556
0.0286135
0.0401637
0.0401511
0.0400557
0.0399268
0.0397815
0.0396429
0.0395193
0.0393887
0.0392336
0.0390008
0.0386499
0.038111
0.0373405
0.0362895
0.0349542
0.0333413
0.0314989
0.0294785
0.0273563
0.0251994
0.0230847
0.0210717
0.019221
0.0175739
0.01617
0.0150316
0.0141792
0.0136188
0.0133556
0.0133825
0.013692
0.014266
0.0150854
0.0161215
0.0173429
0.018709
0.0201738
0.0216816
0.0231705
0.0245726
0.0258189
0.0268499
0.0276212
0.0281216
0.0283681
0.0284188
0.0283409
0.0282169
0.0280963
0.0280247
0.0279997
0.0280313
0.028087
0.0281729
0.0282479
0.0283324
0.0283809
0.0284382
0.0284519
0.0284984
0.0404488
0.040397
0.0402874
0.0401236
0.0399637
0.0397903
0.0396305
0.0394251
0.0391585
0.038742
0.0381301
0.0372341
0.0360255
0.0344701
0.0326007
0.030452
0.0281053
0.0256314
0.0231236
0.0206525
0.0182949
0.016101
0.0141213
0.0123825
0.0109118
0.00971805
0.00881218
0.00819121
0.00785524
0.00779353
0.00799842
0.00845377
0.00914623
0.010056
0.0111656
0.0124524
0.0138942
0.0154631
0.0171268
0.0188442
0.0205638
0.0222241
0.0237542
0.0250868
0.0261627
0.0269572
0.0274745
0.0277684
0.0279015
0.0279556
0.0279749
0.0280046
0.0280397
0.0280977
0.0281503
0.0282156
0.0282552
0.028303
0.0283157
0.028351
0.0408088
0.0407105
0.0405926
0.0403917
0.0402138
0.0399872
0.039759
0.0394228
0.0389648
0.0382592
0.037267
0.0358958
0.0341521
0.0320294
0.0296047
0.0269406
0.0241478
0.0213075
0.0185201
0.0158478
0.0133582
0.0110839
0.00906128
0.00730019
0.00581663
0.004608
0.00367889
0.00302026
0.0026299
0.002495
0.00260864
0.00295581
0.00352683
0.0043066
0.00528543
0.00645098
0.00779602
0.00931198
0.0109921
0.0128248
0.0147906
0.0168548
0.0189605
0.0210271
0.0229502
0.0246233
0.0259535
0.026906
0.0274996
0.0278221
0.0279656
0.0280291
0.0280551
0.0280832
0.0281042
0.0281381
0.0281564
0.0281853
0.0281905
0.0282143
0.0412235
0.0410722
0.0409493
0.0407028
0.0404917
0.040177
0.0398271
0.0392806
0.0385302
0.0374196
0.035935
0.0339981
0.0316662
0.028967
0.0260227
0.022917
0.0197803
0.0166912
0.0137449
0.0109851
0.00846381
0.00619328
0.00419612
0.00246782
0.0010163
-0.000169196
-0.00108746
-0.00175128
-0.00216347
-0.002338
-0.00228082
-0.00200649
-0.00152267
-0.000842587
2.74431e-05
0.00107915
0.00231183
0.00372606
0.00532932
0.00713005
0.00913689
0.0113494
0.0137485
0.0162835
0.0188596
0.0213393
0.0235534
0.0253505
0.0266373
0.0274337
0.0278392
0.0280072
0.0280537
0.0280619
0.0280526
0.0280521
0.0280443
0.0280509
0.0280457
0.0280609
0.0416858
0.0414799
0.0413562
0.0410552
0.0407903
0.0403448
0.0398086
0.038964
0.0378198
0.0362049
0.0341512
0.0316099
0.0286977
0.0254751
0.0221019
0.0186699
0.0153142
0.0120962
0.00909583
0.00633175
0.00383932
0.00161188
-0.000337802
-0.00202452
-0.0034438
-0.00461072
-0.00552402
-0.00619776
-0.00663333
-0.00684453
-0.00683548
-0.00661995
-0.00620377
-0.00559917
-0.00481092
-0.00384626
-0.00270432
-0.00138252
0.000130677
0.00185119
0.00380166
0.00600477
0.00847645
0.0112107
0.0141609
0.0172199
0.0202104
0.0229051
0.02508
0.0266055
0.0274965
0.0279091
0.0280396
0.0280509
0.0280174
0.0279815
0.0279441
0.0279254
0.0279068
0.0279154
0.0421307
0.0418693
0.0417415
0.0413678
0.0410146
0.0403822
0.0395838
0.0383512
0.0367249
0.0345375
0.0318837
0.0287522
0.0253187
0.0216675
0.0179825
0.0143467
0.010886
0.00763409
0.00465172
0.00193274
-0.000500528
-0.00266896
-0.00456445
-0.0062078
-0.0075945
-0.00874159
-0.00964616
-0.0103226
-0.0107705
-0.0110034
-0.0110237
-0.0108445
-0.0104704
-0.00991313
-0.00917682
-0.00826891
-0.00718906
-0.00593576
-0.00449868
-0.00286212
-0.00100081
0.00111643
0.00352489
0.00625261
0.00930532
0.0126381
0.0161296
0.0195609
0.0226398
0.0250777
0.0267108
0.0275888
0.0279273
0.0279905
0.02795
0.0278842
0.027819
0.0277762
0.0277438
0.0277478
0.0425288
0.0422148
0.0420768
0.0416106
0.0411299
0.0402534
0.0391204
0.0374261
0.0352596
0.0324756
0.0292408
0.0255818
0.0217243
0.0177614
0.0138839
0.0101505
0.00666859
0.00344054
0.000509281
-0.00215197
-0.0045283
-0.0066497
-0.00850823
-0.0101275
-0.0115005
-0.0126448
-0.0135547
-0.0142444
-0.014711
-0.0149677
-0.0150149
-0.0148652
-0.0145216
-0.0139954
-0.0132901
-0.0124133
-0.011366
-0.0101485
-0.00875403
-0.00717072
-0.00537754
-0.00334507
-0.00103422
0.00159811
0.00459183
0.00795874
0.0116567
0.0155403
0.0193475
0.0227111
0.0252849
0.0268957
0.0276574
0.0278709
0.027857
0.0277713
0.027681
0.0276145
0.0275684
0.0275672
0.042774
0.0424091
0.0422462
0.0416614
0.0410085
0.0398326
0.0383049
0.0361022
0.0333769
0.030018
0.0262647
0.0221742
0.0180072
0.0138481
0.00987977
0.00612735
0.00267685
-0.000498685
-0.00336855
-0.00597431
-0.00830286
-0.0103891
-0.0122223
-0.013827
-0.0151929
-0.0163375
-0.0172525
-0.0179521
-0.0184314
-0.0187034
-0.0187671
-0.0186347
-0.0183083
-0.0177985
-0.0171086
-0.0162462
-0.0152131
-0.0140112
-0.012637
-0.0110829
-0.00933423
-0.00736774
-0.00514962
-0.00263617
0.000225706
0.00348168
0.00715511
0.0111913
0.0154257
0.0195247
0.0230565
0.0256117
0.0270659
0.0276188
0.0276961
0.0276124
0.0275025
0.0274123
0.0273534
0.0273448
0.0428281
0.0424163
0.0422126
0.0414864
0.0406222
0.0391063
0.0371471
0.0344237
0.0311603
0.0272866
0.0231064
0.0186946
0.0143292
0.0100712
0.0060852
0.00235985
-0.0010376
-0.00415785
-0.00697616
-0.00954338
-0.011844
-0.0139153
-0.0157418
-0.0173485
-0.0187212
-0.0198774
-0.0208062
-0.0215217
-0.0220174
-0.0223059
-0.0223851
-0.0222667
-0.0219521
-0.0214512
-0.0207672
-0.0199073
-0.0188742
-0.0176706
-0.0162958
-0.0147453
-0.0130109
-0.0110762
-0.00891678
-0.00649658
-0.00376488
-0.000664978
0.00286431
0.00683989
0.0112084
0.0157443
0.0200564
0.0236077
0.0259882
0.027151
0.0274553
0.0274103
0.0272933
0.0271754
0.027103
0.0270822
0.0425766
0.0421199
0.0418559
0.0409677
0.0398614
0.0379834
0.0355844
0.0323635
0.028618
0.0243174
0.0198162
0.0151924
0.0107253
0.00644242
0.00248663
-0.00118738
-0.00452566
-0.00759587
-0.0103738
-0.0129154
-0.0152002
-0.0172661
-0.019093
-0.0207057
-0.0220866
-0.0232536
-0.0241934
-0.0249204
-0.0254267
-0.0257252
-0.0258128
-0.0257009
-0.0253906
-0.0248915
-0.0242068
-0.0233431
-0.0223042
-0.0210926
-0.01971
-0.0181535
-0.0164197
-0.0144975
-0.0123716
-0.0100154
-0.00738852
-0.00443859
-0.00109218
0.00270753
0.00699589
0.0116692
0.0164673
0.0208613
0.0242727
0.0262912
0.0270771
0.0271298
0.0270343
0.0268842
0.0267953
0.0267565
0.0420085
0.0415121
0.0411722
0.0401119
0.0387483
0.0365097
0.0336911
0.0300252
0.025877
0.0212497
0.016532
0.0117915
0.00729605
0.00303614
-0.000866238
-0.0044843
-0.00777133
-0.0108059
-0.0135603
-0.0160927
-0.0183767
-0.0204502
-0.0222883
-0.0239159
-0.0253124
-0.0264957
-0.0274507
-0.0281921
-0.0287107
-0.0290192
-0.0291142
-0.0290066
-0.0286976
-0.0281959
-0.0275058
-0.0266329
-0.0255823
-0.024356
-0.022958
-0.0213857
-0.01964
-0.0177126
-0.015596
-0.013272
-0.0107123
-0.00787622
-0.0046952
-0.0011006
0.00299541
0.00758808
0.0125704
0.0175303
0.0218794
0.0249079
0.0264476
0.0267686
0.02671
0.0265456
0.0264284
0.026367
0.0410434
0.0405113
0.040083
0.0388488
0.0372282
0.0346521
0.0314581
0.0274206
0.0229613
0.0181085
0.0132683
0.00848784
0.00401666
-0.000190524
-0.00402877
-0.00759196
-0.0108355
-0.0138439
-0.0165841
-0.0191143
-0.0214025
-0.0234862
-0.0253364
-0.0269781
-0.0283882
-0.0295847
-0.0305514
-0.0313025
-0.0318287
-0.0321419
-0.0322391
-0.0321304
-0.0318178
-0.0313092
-0.03061
-0.0297248
-0.0286609
-0.0274188
-0.0260054
-0.0244169
-0.022658
-0.020721
-0.0186045
-0.0162955
-0.013777
-0.0110204
-0.00797006
-0.00456399
-0.000694282
0.00369411
0.00862468
0.0138476
0.018884
0.0229265
0.0253929
0.0262827
0.026282
0.0261389
0.0259833
0.0258931
0.0397282
0.0391685
0.0386463
0.037249
0.0353881
0.0325163
0.029008
0.0246831
0.0200057
0.0150198
0.0101338
0.00536947
0.00095442
-0.00318718
-0.00696275
-0.0104798
-0.0136923
-0.0166869
-0.0194243
-0.021962
-0.0242627
-0.0263632
-0.0282314
-0.029892
-0.0313199
-0.032533
-0.033514
-0.0342767
-0.0348114
-0.0351295
-0.0352282
-0.0351169
-0.0347986
-0.03428
-0.0335687
-0.0326677
-0.0315871
-0.0303256
-0.0288935
-0.0272856
-0.0255101
-0.0235586
-0.0214346
-0.0191277
-0.0166294
-0.0139213
-0.0109627
-0.00770669
-0.00404676
9.42159e-05
0.00483144
0.0100583
0.0154894
0.0203588
0.0238429
0.025528
0.0257708
0.0256231
0.0254673
0.025322
0.038037
0.0374575
0.0368409
0.0352986
0.0332253
0.0301106
0.0263568
0.021829
0.017018
0.011976
0.00710239
0.00239262
-0.00194769
-0.00601789
-0.00973364
-0.01321
-0.0163977
-0.0193827
-0.0221203
-0.0246663
-0.0269791
-0.029095
-0.0309791
-0.0326558
-0.0340986
-0.0353249
-0.0363167
-0.0370871
-0.0376266
-0.0379455
-0.0380421
-0.0379242
-0.0375969
-0.0370652
-0.0363394
-0.0354205
-0.0343222
-0.0330409
-0.0315909
-0.0299646
-0.0281746
-0.0262101
-0.0240795
-0.0217717
-0.0192854
-0.0166084
-0.013713
-0.010569
-0.00708336
-0.0031823
0.00129906
0.00635398
0.0119092
0.0173157
0.0217815
0.0243422
0.0251646
0.0249564
0.0248641
0.0246291
0.0360747
0.035487
0.0347819
0.0331211
0.0308723
0.0275743
0.0236455
0.0189946
0.0141233
0.0090866
0.00426653
-0.000365443
-0.00462411
-0.00862502
-0.0122888
-0.0157333
-0.018905
-0.0218878
-0.0246318
-0.0271911
-0.0295207
-0.0316557
-0.0335594
-0.0352554
-0.0367163
-0.0379582
-0.0389632
-0.0397428
-0.0402885
-0.0406085
-0.0407031
-0.0405779
-0.0402407
-0.0396941
-0.038952
-0.0380128
-0.0368946
-0.0355909
-0.0341212
-0.0324744
-0.0306687
-0.0286898
-0.0265516
-0.0242403
-0.021761
-0.0191032
-0.0162508
-0.0131868
-0.00983618
-0.00614166
-0.00192453
0.00286865
0.00833196
0.0139963
0.0192344
0.0227058
0.0243311
0.0241704
0.0241229
0.0238132
0.0338574
0.0332721
0.032487
0.0307356
0.0283496
0.0249255
0.0208849
0.0161771
0.0113014
0.00631324
0.00157177
-0.00297013
-0.00714573
-0.0110797
-0.0146962
-0.0181117
-0.0212693
-0.0242495
-0.0269987
-0.0295685
-0.031912
-0.0340627
-0.0359829
-0.0376946
-0.0391702
-0.0404242
-0.0414391
-0.0422245
-0.0427732
-0.0430912
-0.0431811
-0.0430459
-0.0426968
-0.0421331
-0.0413736
-0.0404128
-0.0392744
-0.0379478
-0.036459
-0.0347924
-0.0329728
-0.0309814
-0.0288382
-0.0265253
-0.0240538
-0.021412
-0.0185928
-0.0155882
-0.012341
-0.00881452
-0.00483976
-0.000336266
0.0048928
0.0105868
0.0162923
0.0206538
0.0230984
0.0232973
0.0231788
0.022868
0.0315232
0.0309535
0.0301007
0.0282894
0.0258056
0.0223099
0.0182141
0.0135054
0.00866861
0.00375959
-0.000888772
-0.00533628
-0.00943267
-0.0133059
-0.0168824
-0.0202751
-0.0234241
-0.0264055
-0.0291636
-0.0317469
-0.0341074
-0.0362763
-0.0382157
-0.0399456
-0.0414386
-0.0427067
-0.0437338
-0.0445266
-0.0450799
-0.0453968
-0.045483
-0.0453378
-0.0449771
-0.0443959
-0.0436187
-0.0426351
-0.041476
-0.0401251
-0.0386165
-0.0369286
-0.0350947
-0.0330896
-0.0309418
-0.028627
-0.0261639
-0.0235365
-0.0207456
-0.0177876
-0.0146203
-0.011228
-0.00746037
-0.00323961
0.0016871
0.00723334
0.0131236
0.018228
0.0214361
0.0222943
0.0220315
0.0217773
0.0291011
0.0285578
0.0276485
0.0258034
0.0232548
0.019731
0.0156216
0.0109503
0.006178
0.00136351
-0.00318813
-0.00754262
-0.011565
-0.0153814
-0.0189212
-0.0222911
-0.0254306
-0.0284103
-0.0311739
-0.0337662
-0.0361395
-0.0383221
-0.0402769
-0.0420205
-0.0435272
-0.0448056
-0.0458417
-0.0466384
-0.0471939
-0.0475068
-0.0475876
-0.0474304
-0.0470572
-0.0464573
-0.0456622
-0.0446554
-0.043476
-0.042101
-0.0405736
-0.0388649
-0.0370182
-0.0350005
-0.0328503
-0.0305352
-0.0280832
-0.0254714
-0.022709
-0.0197923
-0.0166911
-0.0134082
-0.00981198
-0.00585092
-0.00123981
0.00403192
0.00989823
0.0154805
0.0194072
0.0210218
0.0207187
0.0204955
0.026733
0.0262286
0.0252764
0.023423
0.02084
0.0173262
0.0132378
0.00863383
0.00394416
-0.000766717
-0.00522227
-0.0094882
-0.013444
-0.0172099
-0.0207191
-0.0240705
-0.0272041
-0.0301845
-0.0329563
-0.0355597
-0.0379484
-0.0401467
-0.0421191
-0.0438785
-0.0454013
-0.0466918
-0.047739
-0.0485413
-0.0491011
-0.0494115
-0.0494886
-0.0493206
-0.0489364
-0.0483184
-0.0475067
-0.046477
-0.0452783
-0.0438789
-0.0423334
-0.0406032
-0.0387443
-0.0367131
-0.0345611
-0.0322455
-0.029806
-0.0272103
-0.0244775
-0.0215996
-0.0185571
-0.0153665
-0.0119122
-0.00818188
-0.00387016
0.00105282
0.00675292
0.0125169
0.0170982
0.0193918
0.019297
0.0190045
0.024434
0.0239775
0.0229927
0.0211488
0.018552
0.0150722
0.0110235
0.00650045
0.00189672
-0.00271274
-0.00708007
-0.011265
-0.0151615
-0.0188807
-0.0223612
-0.0256927
-0.0288181
-0.031795
-0.0345706
-0.0371798
-0.0395789
-0.0417874
-0.0437728
-0.045543
-0.0470777
-0.0483759
-0.0494312
-0.0502356
-0.0507974
-0.0511029
-0.0511752
-0.0509949
-0.0505996
-0.0499628
-0.0491353
-0.0480826
-0.0468661
-0.0454426
-0.0438808
-0.0421297
-0.0402602
-0.0382159
-0.0360641
-0.0337483
-0.0313236
-0.0287447
-0.0260443
-0.0232049
-0.0202193
-0.0171104
-0.0137775
-0.0102485
-0.0062098
-0.00166215
0.00377431
0.00947108
0.0145766
0.0174148
0.0177697
0.0173067
0.0223313
0.0219334
0.0209284
0.0191118
0.0165199
0.0130954
0.00910226
0.00467097
0.000155218
-0.00435572
-0.00864244
-0.0127542
-0.0165996
-0.0202782
-0.0237351
-0.0270503
-0.0301707
-0.0331464
-0.0359281
-0.0385449
-0.0409566
-0.0431771
-0.0451777
-0.0469604
-0.0485094
-0.0498172
-0.050883
-0.0516915
-0.052258
-0.0525604
-0.0526308
-0.0524399
-0.0520363
-0.0513824
-0.0505417
-0.0494674
-0.0482353
-0.0467887
-0.0452124
-0.0434404
-0.0415618
-0.0395039
-0.0373532
-0.0350363
-0.0326277
-0.0300651
-0.027399
-0.0245976
-0.0216695
-0.0186349
-0.0154114
-0.0120567
-0.00826535
-0.0040855
0.00101989
0.00647472
0.0119039
0.0151544
0.0160722
0.0154065
0.0204109
0.020078
0.0190616
0.0172816
0.0147033
0.011342
0.0074065
0.0030643
-0.00137299
-0.00579687
-0.0100161
-0.0140648
-0.0178669
-0.0215083
-0.024943
-0.0282398
-0.0313522
-0.0343217
-0.0371047
-0.0397231
-0.042142
-0.0443683
-0.046379
-0.0481685
-0.0497275
-0.0510402
-0.0521133
-0.0529223
-0.0534916
-0.0537887
-0.0538564
-0.0536539
-0.0532424
-0.0525711
-0.0517185
-0.0506227
-0.049377
-0.0479076
-0.0463189
-0.0445264
-0.0426405
-0.0405688
-0.0384207
-0.0361018
-0.0337108
-0.0311633
-0.0285337
-0.0257692
-0.0229005
-0.0199351
-0.0168148
-0.0136115
-0.0100455
-0.00620625
-0.00147339
0.00363237
0.00915364
0.0126898
0.0141382
0.0133192
0.0187794
0.0185204
0.0175048
0.0157733
0.0132192
0.0099308
0.00605774
0.00180506
-0.00255909
-0.00690381
-0.0110652
-0.0150596
-0.0188264
-0.0224365
-0.025854
-0.029136
-0.0322435
-0.0352093
-0.0379963
-0.0406182
-0.0430467
-0.0452807
-0.0473038
-0.049102
-0.0506736
-0.0519932
-0.0530766
-0.0538885
-0.054464
-0.0547581
-0.0548271
-0.0546153
-0.0541998
-0.0535134
-0.0526528
-0.0515375
-0.0502815
-0.0487907
-0.0471924
-0.0453797
-0.0434887
-0.0414025
-0.0392583
-0.0369357
-0.034563
-0.0320283
-0.0294363
-0.026706
-0.0238987
-0.0209975
-0.0179777
-0.0149069
-0.0115484
-0.00801518
-0.00367286
0.00102591
0.0064263
0.0101186
0.0119814
0.0111011
0.0173885
0.0172069
0.0162007
0.0145221
0.0119938
0.00877703
0.00495996
0.000786401
-0.00351938
-0.00779989
-0.0119181
-0.0158689
-0.0196082
-0.0231904
-0.0265915
-0.0298563
-0.0329559
-0.0359127
-0.0386984
-0.0413173
-0.0437497
-0.0459848
-0.0480151
-0.049816
-0.0513959
-0.0527176
-0.0538084
-0.0546194
-0.0551996
-0.0554885
-0.0555584
-0.0553362
-0.0549177
-0.0542158
-0.0533487
-0.0522139
-0.0509496
-0.0494373
-0.0478314
-0.0459981
-0.0441035
-0.0420014
-0.039862
-0.0375334
-0.0351792
-0.0326538
-0.0300995
-0.0273997
-0.0246545
-0.0218122
-0.0188911
-0.0159368
-0.0127704
-0.00950722
-0.00555261
-0.00128328
0.00383452
0.00755392
0.00969887
0.00884404
0.0163287
0.0162307
0.0152474
0.0136318
0.0111375
0.00799731
0.00423782
0.000140977
-0.00411251
-0.00833701
-0.012421
-0.0163365
-0.0200556
-0.0236157
-0.0270055
-0.0302572
-0.0333525
-0.0363032
-0.0390909
-0.0417095
-0.0441488
-0.0463872
-0.0484277
-0.0502336
-0.0518251
-0.0531512
-0.0542532
-0.0550661
-0.0556554
-0.055942
-0.0560176
-0.0557879
-0.0553712
-0.0546566
-0.0537877
-0.0526357
-0.0513673
-0.0498347
-0.0482246
-0.0463708
-0.0444749
-0.0423556
-0.0402221
-0.0378844
-0.0355486
-0.0330281
-0.0305107
-0.0278361
-0.0251522
-0.0223625
-0.0195381
-0.0166862
-0.0136983
-0.010671
-0.00708657
-0.00324406
0.00148742
0.0051166
0.0074275
0.00665494
0.0155159
0.0155011
0.0145504
0.0130013
0.0105418
0.00747435
0.0037651
-0.000266152
-0.00448151
-0.00866437
-0.0127279
-0.0166182
-0.0203245
-0.0238654
-0.0272447
-0.0304805
-0.0335682
-0.0365073
-0.0392917
-0.0419032
-0.0443439
-0.0465789
-0.0486248
-0.0504296
-0.052029
-0.0533547
-0.0544655
-0.0552766
-0.055874
-0.0561559
-0.0562375
-0.0559988
-0.0555851
-0.0548568
-0.053988
-0.0528178
-0.0515473
-0.0499933
-0.0483805
-0.0465043
-0.044608
-0.0424684
-0.0403407
-0.0379893
-0.0356706
-0.0331488
-0.0306661
-0.0280089
-0.0253839
-0.022638
-0.0199067
-0.0171433
-0.0143203
-0.0114964
-0.00825514
-0.00481819
-0.000526936
0.00291655
0.00529594
0.00463077
0.015034
0.0151038
0.0142014
0.0127309
0.0103173
0.00732892
0.00367489
-0.000290147
-0.00446917
-0.00861535
-0.0126643
-0.0165362
-0.0202358
-0.0237635
-0.0271375
-0.0303623
-0.033447
-0.0363784
-0.0391639
-0.0417718
-0.0442182
-0.046453
-0.0485084
-0.0503152
-0.051927
-0.0532553
-0.0543798
-0.0551924
-0.0558033
-0.0560837
-0.056177
-0.0559327
-0.0555278
-0.0547886
-0.0539253
-0.052739
-0.051471
-0.0498964
-0.0482846
-0.0463851
-0.0444906
-0.042328
-0.0402066
-0.0378368
-0.035534
-0.0330039
-0.0305529
-0.0279043
-0.0253342
-0.0226217
-0.0199784
-0.017289
-0.0146177
-0.0119667
-0.00903762
-0.00597292
-0.00214051
0.00104758
0.00341043
0.00285452
0.0147611
0.0149084
0.0140661
0.0126795
0.0103179
0.0074077
0.00380696
-9.81576e-05
-0.00424955
-0.00836929
-0.0124143
-0.0162758
-0.0199752
-0.0234919
-0.0268612
-0.0300718
-0.0331502
-0.036068
-0.0388499
-0.0414473
-0.0438946
-0.0461227
-0.0481838
-0.0499869
-0.0516084
-0.0529347
-0.0540716
-0.0548821
-0.0555063
-0.0557828
-0.0558886
-0.0556366
-0.0552421
-0.0544902
-0.0536341
-0.0524297
-0.0511657
-0.0495678
-0.0479578
-0.046031
-0.0441383
-0.0419472
-0.0398308
-0.0374349
-0.035145
-0.0325968
-0.0301729
-0.027521
-0.0249996
-0.0223069
-0.0197442
-0.0171118
-0.0145785
-0.01207
-0.00942043
-0.00668633
-0.00330733
-0.000418092
0.00185195
0.00139313
0.0147869
0.0150053
0.0142408
0.0129533
0.0106632
0.00784303
0.00430898
0.000471765
-0.00364533
-0.00773723
-0.0117787
-0.0156337
-0.0193374
-0.0228488
-0.0262192
-0.0294214
-0.0324996
-0.0354092
-0.0381934
-0.0407854
-0.0432397
-0.0454657
-0.0475385
-0.0493422
-0.0509796
-0.0523078
-0.0534635
-0.0542758
-0.05492
-0.0551962
-0.0553213
-0.055065
-0.0546874
-0.0539256
-0.0530828
-0.0518616
-0.0506069
-0.0489854
-0.047381
-0.0454249
-0.0435358
-0.0413116
-0.0392001
-0.036771
-0.0344916
-0.0319151
-0.0295134
-0.0268452
-0.0243656
-0.0216772
-0.0191863
-0.0165926
-0.0141831
-0.0117876
-0.00938617
-0.00693724
-0.00399181
-0.00142163
0.000688374
0.000307907
0.0149458
0.0152194
0.0145457
0.0133656
0.0111632
0.00843949
0.00498047
0.00121425
-0.00286732
-0.0069336
-0.0109761
-0.0148286
-0.0185409
-0.0220476
-0.0254196
-0.0286098
-0.0316849
-0.0345803
-0.037363
-0.039943
-0.0424009
-0.0446188
-0.0467013
-0.0485005
-0.0501529
-0.051479
-0.0526539
-0.0534646
-0.0541301
-0.054403
-0.0545494
-0.0542859
-0.0539273
-0.0531524
-0.0523248
-0.0510831
-0.0498389
-0.0481889
-0.0465905
-0.0445984
-0.0427121
-0.0404462
-0.0383368
-0.0358635
-0.0335898
-0.0309713
-0.0285848
-0.0258835
-0.0234367
-0.0207333
-0.0183031
-0.015726
-0.0134251
-0.0111114
-0.0089274
-0.00671496
-0.00417279
-0.00192031
-2.52478e-05
-0.000347595
0.0153518
0.0156656
0.0150991
0.0140432
0.0119587
0.0093517
0.00599233
0.00231534
-0.00171238
-0.00574209
-0.00977789
-0.0136267
-0.0173491
-0.0208562
-0.0242361
-0.0274217
-0.0305017
-0.0333902
-0.03618
-0.0387551
-0.0412253
-0.0434416
-0.0455422
-0.0473428
-0.0490188
-0.050348
-0.0515503
-0.0523642
-0.0530591
-0.0533329
-0.0535085
-0.0532412
-0.0529092
-0.0521234
-0.0513178
-0.0500563
-0.0488282
-0.0471484
-0.0455599
-0.043528
-0.0416464
-0.0393321
-0.0372245
-0.0346967
-0.0324256
-0.0297511
-0.0273737
-0.0246215
-0.0221983
-0.019459
-0.0170782
-0.0144938
-0.0122865
-0.0100235
-0.00802872
-0.00600395
-0.0038294
-0.00187588
-0.000235178
-0.000517014
0.0157857
0.0161183
0.0156684
0.0147468
0.0128065
0.0103334
0.00709468
0.00352309
-0.000435961
-0.00441864
-0.00844239
-0.0122838
-0.0160164
-0.0195217
-0.0229094
-0.0260859
-0.0291692
-0.0320451
-0.0348398
-0.0374041
-0.0398855
-0.0420952
-0.0442146
-0.0460125
-0.0477139
-0.0490429
-0.0502754
-0.0510893
-0.051817
-0.0520885
-0.0522966
-0.0520217
-0.0517195
-0.0509181
-0.0501371
-0.0488498
-0.0476393
-0.0459221
-0.0443438
-0.0422625
-0.0403842
-0.0380092
-0.0358999
-0.0333025
-0.0310281
-0.0282791
-0.0259023
-0.0230773
-0.0206667
-0.0178661
-0.0155217
-0.0129019
-0.0107723
-0.00852581
-0.00669279
-0.00480449
-0.00295617
-0.00126566
0.000100997
-0.000152579
0.0164162
0.0167516
0.0164222
0.0156496
0.0138878
0.0115782
0.00849466
0.00505824
0.00119899
-0.00271311
-0.00670598
-0.0105305
-0.0142698
-0.017776
-0.0211782
-0.0243546
-0.0274521
-0.0303255
-0.0331374
-0.0357006
-0.0382054
-0.0404174
-0.0425673
-0.0443704
-0.0461085
-0.047444
-0.0487176
-0.0495371
-0.0503078
-0.0505813
-0.0508317
-0.0505524
-0.0502888
-0.0494735
-0.0487248
-0.0474116
-0.0462252
-0.0444681
-0.0429047
-0.0407684
-0.0388959
-0.0364511
-0.0343399
-0.0316596
-0.0293786
-0.026537
-0.024154
-0.0212334
-0.0188256
-0.0159369
-0.0136167
-0.0109317
-0.00886523
-0.0066007
-0.00490583
-0.00310403
-0.00154052
-6.55515e-05
0.00102749
0.000797832
0.0169565
0.0172786
0.017064
0.0164489
0.0148928
0.012776
0.00987978
0.0066104
0.00288125
-0.000932097
-0.00487416
-0.0086648
-0.012403
-0.0159017
-0.0193169
-0.0224873
-0.0255994
-0.028465
-0.0312953
-0.0338528
-0.0363839
-0.0385945
-0.0407795
-0.042585
-0.0443655
-0.045705
-0.0470259
-0.0478482
-0.048668
-0.0489399
-0.0492382
-0.0489495
-0.0487294
-0.0478938
-0.0471813
-0.0458337
-0.0446741
-0.0428664
-0.0413189
-0.0391145
-0.0372468
-0.0347161
-0.0325997
-0.0298166
-0.0275232
-0.0245652
-0.0221676
-0.0191234
-0.0167077
-0.0136994
-0.0113912
-0.00860656
-0.00658962
-0.00426819
-0.00268939
-0.000920275
0.000402497
0.00172368
0.00256622
0.00236565
0.0176721
0.0179749
0.0178561
0.0174032
0.016074
0.0141842
0.0115137
0.00845122
0.00489407
0.00121729
-0.00264158
-0.00637653
-0.0101018
-0.0135905
-0.0170242
-0.0201984
-0.0233395
-0.0262111
-0.0290768
-0.0316423
-0.0342165
-0.0364378
-0.0386737
-0.0404919
-0.0423296
-0.0436817
-0.0450635
-0.0458953
-0.0467769
-0.0470522
-0.04741
-0.0471152
-0.0469491
-0.0460945
-0.0454275
-0.0440448
-0.0429198
-0.041058
-0.0395324
-0.0372528
-0.0353938
-0.0327658
-0.0306451
-0.0277429
-0.0254344
-0.0223379
-0.0199196
-0.0167237
-0.014291
-0.01113
-0.00882329
-0.00590254
-0.00392462
-0.00150644
-2.84185e-05
0.00175985
0.00287847
0.00411212
0.00474255
0.00458667
0.0181799
0.0184575
0.0184138
0.0181223
0.0170348
0.0154076
0.0130019
0.0101941
0.00685478
0.0033646
-0.000371989
-0.00401374
-0.00770475
-0.0111631
-0.0146097
-0.0177782
-0.020951
-0.0238243
-0.0267322
-0.0293033
-0.0319296
-0.0341603
-0.0364575
-0.0382873
-0.0401933
-0.0415562
-0.0430099
-0.0438483
-0.0448019
-0.045076
-0.0455024
-0.0451949
-0.0450906
-0.0442081
-0.0435931
-0.0421638
-0.0410784
-0.0391483
-0.037648
-0.0352759
-0.0334267
-0.0306803
-0.0285543
-0.0255076
-0.0231805
-0.0199156
-0.0174708
-0.0140891
-0.0116325
-0.00828061
-0.00596889
-0.00287087
-0.000926252
0.00163419
0.00302202
0.00488883
0.00583824
0.00706481
0.00753832
0.0074546
0.0188943
0.0191493
0.0191507
0.0190016
0.0181486
0.0168052
0.0146966
0.0121868
0.00911284
0.00585945
0.0022912
-0.00121979
-0.00485226
-0.00826786
-0.0117287
-0.0148997
-0.0181218
-0.021014
-0.0239873
-0.0265825
-0.0292841
-0.0315405
-0.0339205
-0.0357753
-0.0377688
-0.0391532
-0.0406959
-0.0415491
-0.0425901
-0.0428689
-0.0433777
-0.0430612
-0.0430313
-0.0421223
-0.0415707
-0.0400938
-0.0390577
-0.0370553
-0.0355882
-0.0331157
-0.0312821
-0.0284046
-0.026276
-0.023066
-0.0207198
-0.0172606
-0.0147855
-0.0111846
-0.00869811
-0.00511526
-0.0027929
0.000527356
0.0024408
0.00519198
0.00649004
0.00849303
0.00928951
0.0105859
0.010954
0.0109797
0.0192806
0.0195086
0.0195409
0.0195163
0.0188957
0.0178622
0.0160914
0.0139401
0.0111919
0.00824921
0.00491047
0.00159537
-0.00193748
-0.00526976
-0.00873016
-0.0118859
-0.0151615
-0.0180683
-0.0211211
-0.0237415
-0.0265364
-0.0288209
-0.0313025
-0.0331838
-0.035283
-0.0366884
-0.0383373
-0.0392022
-0.0403462
-0.0406235
-0.0412286
-0.0408939
-0.0409506
-0.0400029
-0.0395252
-0.0379851
-0.0370077
-0.0349138
-0.0334878
-0.0308921
-0.02908
-0.0260444
-0.0239172
-0.0205124
-0.0181494
-0.0144595
-0.0119557
-0.00809467
-0.00558081
-0.0017221
0.000604725
0.00419625
0.00606742
0.00906545
0.0102629
0.012475
0.0131286
0.0145949
0.0149144
0.015102
0.0199685
0.020174
0.0202148
0.020273
0.0198422
0.0191031
0.017678
0.0159188
0.0135407
0.0109645
0.00791024
0.00484358
0.00144846
-0.00177379
-0.00522663
-0.00836892
-0.0117158
-0.0146558
-0.0178173
-0.0204864
-0.0234055
-0.0257397
-0.0283512
-0.0302767
-0.0325064
-0.0339465
-0.0357229
-0.0366098
-0.0378751
-0.0381584
-0.0388762
-0.0385282
-0.038686
-0.0377021
-0.0373114
-0.0357082
-0.0348011
-0.0326128
-0.0312376
-0.0285118
-0.0267291
-0.0235231
-0.0214029
-0.0177841
-0.015407