/*--------------------------------*- C++ -*----------------------------------*\
| =========                 |                                                 |
| \\      /  F ield         | OpenFOAM: The Open Source CFD Toolbox           |
|  \\    /   O peration     | Version:  2406                                  |
|   \\  /    A nd           | Website:  www.openfoam.com                      |
|    \\/     M anipulation  |                                                 |
\*---------------------------------------------------------------------------*/
FoamFile
{
    version     2.0;
    format      ascii;
    arch        "LSB;label=32;scalar=64";
    class       surfaceScalarField;
    location    "38";
    object      phi;
}
// * * * * * * * * * * * * * * * * * * * * * * * * * * * * * * * * * * * * * //

dimensions      [0 3 -1 0 0 0 0];

oriented        oriented;

internalField   nonuniform List<scalar> 
7080
(
3.18602e-07
-3.18084e-07
1.6426e-06
-1.33526e-06
3.4848e-06
-1.83983e-06
5.36213e-06
-1.88808e-06
6.92227e-06
-1.55872e-06
8.00614e-06
-1.09108e-06
8.63922e-06
-6.30961e-07
8.91903e-06
-2.83185e-07
8.98427e-06
-6.21977e-08
8.90988e-06
7.40684e-08
8.7192e-06
1.94811e-07
8.34711e-06
3.74707e-07
7.69186e-06
6.61458e-07
6.6122e-06
1.08608e-06
4.96629e-06
1.65577e-06
2.60166e-06
2.37615e-06
-6.24508e-07
3.24116e-06
-4.8507e-06
4.24357e-06
-1.0193e-05
5.36311e-06
-1.67399e-05
6.57122e-06
-2.45229e-05
7.81189e-06
-3.3491e-05
9.00129e-06
-4.34794e-05
1.00249e-05
-5.41967e-05
1.07552e-05
-6.52199e-05
1.10597e-05
-7.6012e-05
1.08248e-05
-8.59554e-05
9.97018e-06
-9.44026e-05
8.46661e-06
-0.000100727
6.33504e-06
-0.000104371
3.64628e-06
-0.000104887
5.09456e-07
-0.000101971
-2.93054e-06
-9.54923e-05
-6.5021e-06
-8.55161e-05
-1.00064e-05
-7.23257e-05
-1.32267e-05
-5.64347e-05
-1.59323e-05
-3.85815e-05
-1.78978e-05
-1.97081e-05
-1.89204e-05
-9.02059e-07
-1.8853e-05
1.66841e-05
-1.76323e-05
3.1953e-05
-1.53109e-05
4.39869e-05
-1.20714e-05
5.21802e-05
-8.22245e-06
5.6324e-05
-4.16542e-06
5.66443e-05
-3.30894e-07
5.37478e-05
2.89367e-06
4.85093e-05
5.24638e-06
4.18933e-05
6.62803e-06
3.47977e-05
7.11494e-06
2.79152e-05
6.89998e-06
2.17009e-05
6.23594e-06
1.63667e-05
5.34904e-06
1.19619e-05
4.42344e-06
8.41203e-06
3.55914e-06
5.59841e-06
2.82866e-06
3.38812e-06
2.21408e-06
1.68714e-06
1.71307e-06
5.12498e-07
1.1742e-06
-8.10262e-08
6.0284e-07
-8.09544e-08
1.25948e-06
-1.56678e-06
4.19659e-06
-4.27365e-06
7.91154e-06
-5.53778e-06
1.15476e-05
-5.5223e-06
1.45209e-05
-4.51879e-06
1.65026e-05
-3.07217e-06
1.74696e-05
-1.59107e-06
1.75081e-05
-3.24153e-07
1.67724e-05
6.74591e-07
1.53079e-05
1.53325e-06
1.30583e-05
2.4405e-06
9.80895e-06
3.61504e-06
5.26575e-06
5.19474e-06
-9.34076e-07
7.27073e-06
-9.14851e-06
9.85184e-06
-1.97187e-05
1.29219e-05
-3.29143e-05
1.64079e-05
-4.89e-05
2.01948e-05
-6.76453e-05
2.40694e-05
-8.88572e-05
2.77377e-05
-0.000111939
3.08404e-05
-0.00013603
3.30321e-05
-0.000160096
3.40233e-05
-0.000183044
3.36325e-05
-0.000203833
3.17797e-05
-0.000221555
2.84855e-05
-0.000235474
2.3839e-05
-0.000245033
1.79888e-05
-0.000249836
1.11177e-05
-0.000249636
3.44391e-06
-0.000244319
-4.79233e-06
-0.0002339
-1.33174e-05
-0.000218525
-2.18292e-05
-0.000198485
-2.99832e-05
-0.000174235
-3.74015e-05
-0.000146412
-4.36698e-05
-0.000115849
-4.83692e-05
-8.35752e-05
-5.10992e-05
-5.07921e-05
-5.15409e-05
-1.88288e-05
-4.95049e-05
1.09471e-05
-4.50033e-05
3.72267e-05
-3.82804e-05
5.88924e-05
-2.98316e-05
7.51217e-05
-2.03573e-05
8.54941e-05
-1.06833e-05
9.00334e-05
-1.64619e-06
8.92307e-05
6.03496e-06
8.39771e-05
1.18526e-05
7.54693e-05
1.55896e-05
6.50128e-05
1.73167e-05
5.38518e-05
1.73624e-05
4.2972e-05
1.61922e-05
3.30497e-05
1.43196e-05
2.4415e-05
1.21648e-05
1.71657e-05
1.00618e-05
1.1228e-05
8.1293e-06
6.51274e-06
6.42109e-06
2.99085e-06
4.67885e-06
7.51678e-07
2.84184e-06
6.61162e-07
1.83448e-06
-3.40121e-06
5.70755e-06
-8.16413e-06
1.03551e-05
-1.01832e-05
1.46281e-05
-9.80992e-06
1.78448e-05
-7.73545e-06
1.95971e-05
-4.83342e-06
1.98322e-05
-1.82435e-06
1.85732e-05
9.31778e-07
1.58851e-05
3.36687e-06
1.16682e-05
5.7521e-06
5.68224e-06
8.43356e-06
-2.49613e-06
1.18003e-05
-1.33606e-05
1.60707e-05
-2.74356e-05
2.13591e-05
-4.51637e-05
2.75985e-05
-6.68314e-05
3.46123e-05
-9.2415e-05
4.20199e-05
-0.000121472
4.92846e-05
-0.000153099
5.57323e-05
-0.000186042
6.07215e-05
-0.000218893
6.37372e-05
-0.000250301
6.44924e-05
-0.00027912
6.28985e-05
-0.00030447
5.9042e-05
-0.000325734
5.3101e-05
-0.000342511
4.5315e-05
-0.000354561
3.59321e-05
-0.000361752
2.52106e-05
-0.000364016
1.33989e-05
-0.000361327
7.56983e-07
-0.000353686
-1.24474e-05
-0.000341124
-2.59079e-05
-0.000323719
-3.92776e-05
-0.000301621
-5.21382e-05
-0.000275085
-6.40068e-05
-0.00024451
-7.43223e-05
-0.000210479
-8.2484e-05
-0.000173787
-8.78781e-05
-0.000135448
-8.99668e-05
-9.66766e-05
-8.83593e-05
-5.88251e-05
-8.29294e-05
-2.32964e-05
-7.38732e-05
8.58658e-06
-6.17635e-05
3.56887e-05
-4.74938e-05
5.71766e-05
-3.21875e-05
7.2562e-05
-1.70345e-05
8.17502e-05
-3.1407e-06
8.50301e-05
8.59232e-06
8.30931e-05
1.75557e-05
7.69625e-05
2.34753e-05
6.79133e-05
2.64441e-05
5.72545e-05
2.68762e-05
4.61781e-05
2.54249e-05
3.55587e-05
2.28019e-05
2.59713e-05
1.9673e-05
1.76611e-05
1.64489e-05
1.07579e-05
1.33443e-05
5.30941e-06
1.01283e-05
1.57765e-06
6.59131e-06
2.24003e-06
2.19009e-06
-5.5807e-06
6.50208e-06
-1.24834e-05
1.13151e-05
-1.4981e-05
1.52714e-05
-1.37693e-05
1.76745e-05
-1.01285e-05
1.81106e-05
-5.27185e-06
1.65121e-05
-2.21318e-07
1.27958e-05
4.64431e-06
6.84498e-06
9.31726e-06
-1.68913e-06
1.42802e-05
-1.33058e-05
2.00453e-05
-2.86413e-05
2.71268e-05
-4.82914e-05
3.57112e-05
-7.26976e-05
4.57521e-05
-0.000101938
5.68233e-05
-0.000135575
6.82296e-05
-0.000172569
7.89905e-05
-0.000211423
8.81109e-05
-0.000250464
9.47415e-05
-0.000288159
9.83807e-05
-0.0003233
9.88393e-05
-0.00035506
9.62093e-05
-0.000382933
9.0725e-05
-0.000406649
8.27118e-05
-0.000426088
7.24958e-05
-0.000441212
6.04004e-05
-0.000452017
4.67058e-05
-0.000458502
3.16747e-05
-0.000460651
1.55373e-05
-0.000458422
-1.47014e-06
-0.000451749
-1.91074e-05
-0.000440547
-3.70848e-05
-0.000424729
-5.50587e-05
-0.000404235
-7.25851e-05
-0.000379065
-8.9121e-05
-0.000349329
-0.000103995
-0.000315303
-0.000116441
-0.000277488
-0.000125621
-0.000236655
-0.000130729
-0.000193869
-0.000131077
-0.00015046
-0.000126276
-0.000107945
-0.000116334
-6.78802e-05
-0.000101785
-3.16917e-05
-8.36518e-05
-5.07069e-07
-6.33525e-05
2.49183e-05
-4.24543e-05
4.42242e-05
-2.24493e-05
5.73695e-05
-4.56723e-06
6.46169e-05
1.02912e-05
6.64987e-05
2.15689e-05
6.38615e-05
2.90604e-05
5.7776e-05
3.29355e-05
4.94686e-05
3.3715e-05
4.00756e-05
3.21716e-05
3.05782e-05
2.91599e-05
2.1619e-05
2.53877e-05
1.36836e-05
2.1277e-05
7.04336e-06
1.67488e-05
2.23151e-06
1.14079e-05
4.4589e-06
2.37953e-06
-7.95693e-06
6.71939e-06
-1.6839e-05
1.107e-05
-1.93248e-05
1.3922e-05
-1.6632e-05
1.4607e-05
-1.08099e-05
1.27391e-05
-3.4093e-06
8.22371e-06
4.29757e-06
8.26653e-07
1.20407e-05
-9.81491e-06
1.99637e-05
-2.43312e-05
2.88e-05
-4.34323e-05
3.91537e-05
-6.77823e-05
5.14846e-05
-9.77105e-05
6.56503e-05
-0.000133007
8.10606e-05
-0.000172738
9.657e-05
-0.00021534
0.000110848
-0.000258918
0.000122589
-0.000301684
0.0001309
-0.000342227
0.000135312
-0.000379611
0.000135794
-0.000413293
0.000132554
-0.00044302
0.000125972
-0.000468714
0.000116456
-0.0004904
0.000104433
-0.000508148
9.02767e-05
-0.000522048
7.43283e-05
-0.000532183
5.68602e-05
-0.000538613
3.81158e-05
-0.000541362
1.82883e-05
-0.000540409
-2.42962e-06
-0.00053568
-2.38537e-05
-0.00052704
-4.57506e-05
-0.000514299
-6.78343e-05
-0.000497223
-8.97026e-05
-0.000475561
-0.000110831
-0.000449091
-0.000130518
-0.000417685
-0.000147903
-0.0003814
-0.000161963
-0.000340578
-0.000171606
-0.000295941
-0.000175769
-0.000248643
-0.000173622
-0.000200268
-0.000164753
-0.000152691
-0.000149395
-0.000107867
-0.000128502
-6.75126e-05
-0.000103722
-3.28659e-05
-7.71082e-05
-4.55419e-06
-5.07572e-05
1.72997e-05
-2.64129e-05
3.29204e-05
-5.31256e-06
4.26991e-05
1.18063e-05
4.72079e-05
2.45735e-05
4.71853e-05
3.29738e-05
4.36077e-05
3.73139e-05
3.75314e-05
3.82588e-05
3.00585e-05
3.66521e-05
2.20796e-05
3.3371e-05
1.43982e-05
2.8977e-05
7.57451e-06
2.35691e-05
2.4376e-06
1.65649e-05
6.89596e-06
2.4358e-06
-1.03847e-05
6.34785e-06
-2.07605e-05
9.52975e-06
-2.24956e-05
1.04346e-05
-1.75419e-05
8.48277e-06
-8.85248e-06
3.33023e-06
1.73976e-06
-5.19525e-06
1.28241e-05
-1.75409e-05
2.43822e-05
-3.43449e-05
3.67649e-05
-5.64305e-05
5.088e-05
-8.44559e-05
6.71731e-05
-0.000118639
8.56597e-05
-0.000158434
0.000105436
-0.000202481
0.000125096
-0.000248808
0.000142884
-0.000295319
0.000157344
-0.000340226
0.000167477
-0.000382265
0.000172918
-0.000420674
0.000173698
-0.000455078
0.000170172
-0.000485349
0.000162798
-0.000511527
0.000152121
-0.000533744
0.000138643
-0.000552194
0.000122854
-0.000567096
0.000105153
-0.000578682
8.58922e-05
-0.000587166
6.53285e-05
-0.000592734
4.36756e-05
-0.000595521
2.10746e-05
-0.000595597
-2.3473e-06
-0.000592945
-2.64922e-05
-0.00058745
-5.12245e-05
-0.000578885
-7.63725e-05
-0.000566905
-0.000101651
-0.00055105
-0.000126649
-0.000530775
-0.000150752
-0.000505504
-0.000173132
-0.000474719
-0.000192704
-0.000438102
-0.00020818
-0.000395698
-0.000218131
-0.000348088
-0.000221193
-0.000296521
-0.000216285
-0.000242931
-0.000202955
-0.000189783
-0.000181629
-0.000139696
-0.000153793
-9.49606e-05
-0.000121839
-5.70623e-05
-8.86552e-05
-2.65378e-05
-5.69458e-05
-3.14195e-06
-2.87177e-05
1.37213e-05
-5.07269e-06
2.47503e-05
1.35325e-05
3.06224e-05
2.70839e-05
3.21297e-05
3.57965e-05
3.01449e-05
4.02264e-05
2.56955e-05
4.10958e-05
1.97429e-05
3.93068e-05
1.32779e-05
3.54422e-05
7.11113e-06
2.97176e-05
2.29744e-06
2.13849e-05
9.1812e-06
2.29744e-06
-1.26784e-05
5.2497e-06
-2.37227e-05
6.5332e-06
-2.37729e-05
4.69604e-06
-1.57094e-05
-7.19329e-07
-3.43378e-06
-1.00403e-05
1.10603e-05
-2.35829e-05
2.63698e-05
-4.20188e-05
4.28211e-05
-6.61487e-05
6.08992e-05
-9.66734e-05
8.14105e-05
-0.0001337
0.000104206
-0.000176463
0.000128431
-0.000223272
0.000152253
-0.000271888
0.000173723
-0.000320072
0.000191079
-0.000366035
0.000203321
-0.000408573
0.000210029
-0.000446997
0.00021136
-0.000480993
0.000207713
-0.000510504
0.000199703
-0.000535649
0.000187963
-0.00055667
0.000173164
-0.000573896
0.00015589
-0.000587705
0.000136682
-0.00059849
0.000115955
-0.000606639
9.40542e-05
-0.000612505
7.12017e-05
-0.00061639
4.75636e-05
-0.000618533
2.32136e-05
-0.000619092
-1.79703e-06
-0.000618135
-2.74654e-05
-0.000615614
-5.37653e-05
-0.000611354
-8.06592e-05
-0.000605017
-0.000108018
-0.000596087
-0.000135613
-0.000583857
-0.000163019
-0.000567437
-0.000189591
-0.000545815
-0.000214365
-0.000517968
-0.000236065
-0.000483055
-0.000253082
-0.000440668
-0.000263614
-0.000391125
-0.000265857
-0.000335718
-0.000258385
-0.000276811
-0.000240554
-0.00021765
-0.000212964
-0.000161839
-0.000177656
-0.000112518
-0.000137975
-7.16192e-05
-9.78414e-05
-3.95601e-05
-6.07674e-05
-1.56453e-05
-2.89794e-05
1.27915e-06
-3.37816e-06
1.22833e-05
1.60887e-05
1.83154e-05
2.97793e-05
2.02225e-05
3.83256e-05
1.89487e-05
4.23842e-05
1.54352e-05
4.28225e-05
1.07362e-05
4.01562e-05
5.82153e-06
3.46288e-05
1.85315e-06
2.537e-05
1.1034e-05
1.85964e-06
-1.45356e-05
3.19416e-06
-2.50621e-05
1.78681e-06
-2.2363e-05
-3.5739e-06
-1.03506e-05
-1.32235e-05
6.21442e-06
-2.75157e-05
2.5351e-05
-4.69448e-05
4.57947e-05
-7.23006e-05
6.81743e-05
-0.000104245
9.28377e-05
-0.000142875
0.000120036
-0.000187294
0.000148618
-0.000235628
0.000176759
-0.00028544
0.000202055
-0.000334361
0.000222635
-0.000380532
0.000237238
-0.000422721
0.000245498
-0.000460231
0.000247525
-0.000492759
0.000243874
-0.000520298
0.000235234
-0.000543062
0.000222451
-0.000561432
0.000206316
-0.0005759
0.000187616
-0.000587013
0.000166987
-0.000595326
0.000144983
-0.000601367
0.000121986
-0.000605612
9.8293e-05
-0.000608469
7.40579e-05
-0.000610282
4.93803e-05
-0.000611322
2.42622e-05
-0.000611792
-1.31293e-06
-0.000611821
-2.74183e-05
-0.000611451
-5.41119e-05
-0.000610619
-8.14656e-05
-0.000609117
-0.000109491
-0.000606554
-0.000138145
-0.000602302
-0.000167238
-0.000595457
-0.000196403
-0.000584814
-0.000224977
-0.000568908
-0.000251941
-0.000546139
-0.000275824
-0.00051501
-0.00029472
-0.000474487
-0.00030636
-0.000424446
-0.000308409
-0.0003661
-0.000298886
-0.000302234
-0.00027682
-0.000237038
-0.000242846
-0.000175364
-0.000199647
-0.00012151
-0.000151699
-7.7982e-05
-0.0001043
-4.50699e-05
-6.19015e-05
-2.1458e-05
-2.69971e-05
-5.38136e-06
4.85561e-11
4.72891e-06
1.96629e-05
1.00625e-05
3.29798e-05
1.16731e-05
4.07703e-05
1.05328e-05
4.39505e-05
7.71123e-06
4.29781e-05
4.25663e-06
3.807e-05
1.32756e-06
2.83029e-05
1.23525e-05
1.03156e-06
-1.55671e-05
5.05568e-08
-2.40784e-05
-4.77098e-06
-1.75428e-05
-1.4289e-05
-8.26838e-07
-2.8759e-05
2.06829e-05
-4.85883e-05
4.51876e-05
-7.43868e-05
7.15932e-05
-0.000106794
0.00010059
-0.000145917
0.000131963
-0.00019087
0.000164998
-0.000239715
0.000197467
-0.000289888
0.00022694
-0.000338876
0.000251048
-0.000384687
0.000268457
-0.000426001
0.000278559
-0.000462059
0.000281569
-0.000492561
0.000278036
-0.000517556
0.000268882
-0.000537384
0.000255074
-0.000552586
0.000237668
-0.000563831
0.000217573
-0.000571824
0.000195623
-0.000577254
0.000172428
-0.000580742
0.000148481
-0.00058282
0.000124071
-0.000583928
9.94057e-05
-0.00058442
7.45506e-05
-0.000584579
4.95362e-05
-0.00058463
2.43051e-05
-0.000584752
-1.20148e-06
-0.000585089
-2.70963e-05
-0.000585744
-5.34751e-05
-0.000586766
-8.04638e-05
-0.000588126
-0.000108153
-0.000589666
-0.000136628
-0.000591038
-0.00016589
-0.000591618
-0.000195847
-0.000590424
-0.000226195
-0.000586044
-0.000256344
-0.000576631
-0.000285258
-0.000560013
-0.000311359
-0.000533959
-0.000332433
-0.000496659
-0.000345726
-0.00044735
-0.00034821
-0.000386992
-0.000337187
-0.000318731
-0.000311113
-0.000247801
-0.000270576
-0.000180565
-0.000218934
-0.000122702
-0.000162156
-7.73702e-05
-0.000107229
-4.4545e-05
-5.98136e-05
-2.21578e-05
-2.23821e-05
-7.69931e-06
5.21418e-06
8.39258e-07
2.44451e-05
4.9853e-06
3.66343e-05
5.93612e-06
4.30012e-05
4.83246e-06
4.40922e-05
2.7682e-06
4.01328e-05
8.4031e-07
3.02419e-05
1.31937e-05
-2.81135e-07
-1.52929e-05
-4.28178e-06
-2.00695e-05
-1.31409e-05
-8.69627e-06
-2.7293e-05
1.33325e-05
-4.69653e-05
4.0343e-05
-7.25791e-05
7.08057e-05
-0.000104673
0.000103676
-0.000143387
0.000139305
-0.000187963
0.000176528
-0.000236509
0.000213542
-0.000286422
0.00024737
-0.000335029
0.000275543
-0.000380177
0.000296186
-0.000420387
0.000308661
-0.000454828
0.000312989
-0.000483179
0.000309913
-0.00050557
0.000300415
-0.00052247
0.000285774
-0.0005346
0.000267194
-0.000542801
0.00024586
-0.000547933
0.000222695
-0.000550791
0.000198474
-0.000552057
0.000173687
-0.000552279
0.000148698
-0.000551878
0.000123667
-0.000551165
9.86932e-05
-0.000550369
7.37567e-05
-0.000549658
4.88326e-05
-0.000549172
2.38271e-05
-0.000549027
-1.33334e-06
-0.000549342
-2.67669e-05
-0.000550232
-5.25673e-05
-0.000551812
-7.88641e-05
-0.000554179
-0.000105765
-0.000557381
-0.000133403
-0.000561367
-0.00016188
-0.000565909
-0.000191282
-0.000570488
-0.000221592
-0.000574169
-0.00025264
-0.000575471
-0.000283936
-0.000572286
-0.000314525
-0.000561939
-0.000342764
-0.00054146
-0.000366192
-0.000508148
-0.000381513
-0.00046042
-0.000384911
-0.000398798
-0.000372733
-0.000326703
-0.00034267
-0.000250515
-0.000295124
-0.000178334
-0.000234339
-0.000117418
-0.00016815
-7.14408e-05
-0.000105794
-3.9797e-05
-5.40334e-05
-1.94268e-05
-1.516e-05
-7.14208e-06
1.21523e-05
-4.74166e-07
2.99639e-05
2.33206e-06
4.01867e-05
2.66493e-06
4.37588e-05
1.71266e-06
4.10764e-05
5.31789e-07
3.14238e-05
1.37196e-05
-2.07529e-06
-1.32256e-05
-9.65923e-06
-1.2462e-05
-2.29449e-05
4.57301e-06
-4.19338e-05
3.23423e-05
-6.68531e-05
6.52517e-05
-9.80148e-05
0.000101985
-0.000135631
0.000141286
-0.00017907
0.000182759
-0.000226672
0.000224127
-0.000275839
0.000262722
-0.000323817
0.000295348
-0.000368221
0.000319959
-0.000407416
0.000335383
-0.000440433
0.000341689
-0.000466945
0.000339506
-0.00048713
0.000330108
-0.000501603
0.000314895
-0.000511245
0.000295427
-0.000517072
0.000273027
-0.000520072
0.000248869
-0.00052113
0.00022376
-0.000520957
0.000198308
-0.000520091
0.000172825
-0.000518904
0.000147515
-0.000517643
0.000122405
-0.000516456
9.75043e-05
-0.000515435
7.27306e-05
-0.000514639
4.80301e-05
-0.000514122
2.32996e-05
-0.000513941
-1.52579e-06
-0.000514177
-2.65471e-05
-0.000514927
-5.18329e-05
-0.000516323
-7.74876e-05
-0.00051851
-0.000103597
-0.000521648
-0.000130286
-0.000525873
-0.000157675
-0.000531257
-0.000185918
-0.00053772
-0.000215148
-0.000544911
-0.000245466
-0.000552035
-0.000276827
-0.000557665
-0.000308907
-0.000559577
-0.000340862
-0.000554716
-0.000371061
-0.000539427
-0.000396809
-0.000510085
-0.000414258
-0.000464162
-0.000418661
-0.0004016
-0.000405235
-0.00032605
-0.000370676
-0.000245168
-0.000315218
-0.000169055
-0.00024426
-0.000106579
-0.000168263
-6.15742e-05
-9.90343e-05
-3.23311e-05
-4.43971e-05
-1.47212e-05
-5.45488e-06
-4.92844e-06
2.01775e-05
-2.21307e-07
3.5481e-05
1.33679e-06
4.22075e-05
1.17704e-06
4.1236e-05
4.24435e-07
3.21835e-05
1.41453e-05
-4.3224e-06
-8.92287e-06
-1.5884e-05
-8.71345e-07
-3.37513e-05
2.24064e-05
-5.75106e-05
5.6123e-05
-8.73612e-05
9.50764e-05
-0.00012333
0.000137967
-0.000165091
0.000183028
-0.000211172
0.000228847
-0.000259234
0.000272173
-0.000306404
0.000309894
-0.000350157
0.000339088
-0.000388587
0.000358389
-0.000420614
0.000367399
-0.000445813
0.000366886
-0.000464418
0.000358101
-0.000477129
0.000342815
-0.000484993
0.00032275
-0.000489159
0.000299589
-0.000490749
0.000274609
-0.000490706
0.000248822
-0.00048977
0.000222817
-0.000488448
0.000196983
-0.000487069
0.000171442
-0.000485805
0.000146251
-0.000484736
0.000121337
-0.00048388
9.66516e-05
-0.000483232
7.20861e-05
-0.000482778
4.75833e-05
-0.00048252
2.30502e-05
-0.000482478
-1.55666e-06
-0.000482701
-2.63116e-05
-0.000483267
-5.12524e-05
-0.000484289
-7.64498e-05
-0.000485914
-0.000101955
-0.000488322
-0.000127861
-0.000491718
-0.000154263
-0.000496312
-0.000181308
-0.000502279
-0.000209166
-0.00050968
-0.000238051
-0.000518332
-0.000268161
-0.000527618
-0.000299609
-0.000536233
-0.000332237
-0.000541935
-0.00036535
-0.0005414
-0.000397336
-0.000530382
-0.00042527
-0.000504358
-0.000444681
-0.000459821
-0.000449771
-0.000396092
-0.000434407
-0.000317122
-0.000394191
-0.000232116
-0.000329271
-0.000153443
-0.000246938
-9.14185e-05
-0.000161062
-4.92408e-05
-8.65771e-05
-2.35724e-05
-3.11281e-05
-9.21772e-06
5.82038e-06
-2.07075e-06
2.83289e-05
7.37333e-07
3.93985e-05
1.13816e-06
4.08292e-05
5.17053e-07
3.28051e-05
1.46581e-05
-6.85392e-06
-2.08743e-06
-2.24959e-05
1.48196e-05
-4.47848e-05
4.46587e-05
-7.29205e-05
8.4298e-05
-0.000107001
0.000129134
-0.000146603
0.000177598
-0.000190776
0.000227187
-0.000237336
0.000275428
-0.000283609
0.000318439
-0.000326812
0.000353113
-0.000364874
0.000377148
-0.000396439
0.000389967
-0.000421017
0.000391977
-0.00043877
0.00038465
-0.000450493
0.000369826
-0.000457313
0.000349646
-0.000460537
0.000325976
-0.000461368
0.000300429
-0.000460836
0.000274079
-0.000459681
0.000247674
-0.000458406
0.000221543
-0.000457276
0.000195858
-0.000456416
0.000170581
-0.000455834
0.000145671
-0.000455498
0.000120998
-0.000455344
9.64945e-05
-0.000455317
7.2053e-05
-0.000455371
4.76312e-05
-0.000455488
2.31581e-05
-0.00045567
-1.38483e-06
-0.00045595
-2.60448e-05
-0.000456383
-5.08322e-05
-0.00045706
-7.57871e-05
-0.0004581
-0.00010093
-0.000459662
-0.000126315
-0.000461939
-0.000152
-0.00046517
-0.000178092
-0.000469617
-0.000204733
-0.000475542
-0.000232138
-0.000483133
-0.000260583
-0.000492371
-0.000290381
-0.000502813
-0.000321804
-0.000513296
-0.000354874
-0.000521591
-0.000389045
-0.000524162
-0.0004227
-0.000516224
-0.00045262
-0.000492411
-0.000473584
-0.000448283
-0.000478535
-0.000382647
-0.000459828
-0.000300027
-0.000411892
-0.000211623
-0.00033534
-0.00013236
-0.000240322
-7.33474e-05
-0.000145584
-3.59663e-05
-6.85062e-05
-1.47911e-05
-1.53518e-05
-4.05696e-06
1.75963e-05
4.10523e-07
3.49352e-05
1.37139e-06
3.98681e-05
7.2912e-07
3.3453e-05
1.53878e-05
-9.51048e-06
7.39036e-06
-2.90927e-05
3.44535e-05
-5.53961e-05
7.09051e-05
-8.72489e-05
0.000116188
-0.000124557
0.000166402
-0.000166366
0.000219429
-0.000211153
0.000271945
-0.000256277
0.000320564
-0.000299059
0.0003612
-0.000337051
0.000391111
-0.000368741
0.000408821
-0.000393356
0.000414585
-0.000411026
0.000409634
-0.000422471
0.000396096
-0.000428934
0.000376278
-0.000431779
0.00035249
-0.000432349
0.000326537
-0.000431711
0.00029979
-0.000430662
0.000273023
-0.000429671
0.000246682
-0.000428991
0.000220858
-0.000428684
0.00019555
-0.000428725
0.00017062
-0.000429026
0.000145974
-0.000429498
0.000121471
-0.000430048
9.70486e-05
-0.000430612
7.26207e-05
-0.00043114
4.81668e-05
-0.000431616
2.36411e-05
-0.000432038
-9.52901e-07
-0.000432433
-2.56393e-05
-0.000432845
-5.04089e-05
-0.000433341
-7.52793e-05
-0.000434008
-0.00010025
-0.000434966
-0.000125345
-0.000436361
-0.000150592
-0.000438388
-0.000176052
-0.00044129
-0.00020182
-0.000445365
-0.000228053
-0.00045094
-0.000254998
-0.000458319
-0.000282994
-0.000467634
-0.000312482
-0.000478614
-0.000343889
-0.000490215
-0.00037744
-0.000500204
-0.000412708
-0.000504798
-0.000448023
-0.000498669
-0.00047971
-0.000475637
-0.000501564
-0.000430459
-0.000505006
-0.000361716
-0.000480639
-0.00027506
-0.000422002
-0.000184398
-0.000330987
-0.000107283
-0.000222701
-5.422e-05
-0.000121568
-2.32573e-05
-4.63175e-05
-7.21337e-06
1.54948e-06
-2.29399e-07
2.795e-05
1.59417e-06
3.80401e-05
9.72336e-07
3.40759e-05
1.63566e-05
-1.20201e-05
1.93822e-05
-3.51007e-05
5.76066e-05
-6.47522e-05
0.0001005
-9.94353e-05
0.000150927
-0.000138792
0.000205725
-0.000181341
0.000262017
-0.000225142
0.000315726
-0.00026737
0.00036282
-0.000305595
0.000399413
-0.000337837
0.000423373
-0.000363184
0.000434163
-0.000381459
0.000432875
-0.00039337
0.000421543
-0.00040008
0.000402819
-0.000403086
0.000379284
-0.000403772
0.000353187
-0.000403335
0.0003261
-0.000402579
0.000299043
-0.000402023
0.000272466
-0.000401873
0.000246538
-0.000402187
0.000221171
-0.000402884
0.000196251
-0.000403863
0.000171597
-0.000404992
0.000147104
-0.000406173
0.000122647
-0.000407312
9.81856e-05
-0.000408357
7.36601e-05
-0.000409268
4.9073e-05
-0.000410038
2.44028e-05
-0.000410668
-3.29947e-07
-0.000411187
-2.51303e-05
-0.000411629
-4.99763e-05
-0.00041205
-7.48693e-05
-0.000412514
-9.97969e-05
-0.000413104
-0.000124766
-0.000413924
-0.000149784
-0.000415108
-0.000174878
-0.000416833
-0.000200105
-0.000419339
-0.000225556
-0.000422936
-0.000251409
-0.000428011
-0.000277926
-0.000434963
-0.000305537
-0.000444075
-0.000334781
-0.000455229
-0.000366291
-0.000467481
-0.000400459
-0.000478517
-0.000436988
-0.000484221
-0.000474007
-0.000478616
-0.000507167
-0.000454718
-0.000528903
-0.000406669
-0.000528684
-0.00033337
-0.000495304
-0.00024252
-0.000421838
-0.00015165
-0.000313573
-8.03837e-05
-0.000192826
-3.60555e-05
-9.06427e-05
-1.25614e-05
-2.19431e-05
-1.80061e-06
1.71907e-05
1.4939e-06
3.47457e-05
1.142e-06
3.44317e-05
1.74989e-05
-1.42056e-05
3.35449e-05
-4.01648e-05
8.36358e-05
-7.23555e-05
0.000132615
-0.000108873
0.000187495
-0.000149066
0.000245867
-0.000191016
0.000303997
-0.000232564
0.000357237
-0.000270939
0.000401212
-0.000304116
0.000432563
-0.000330644
0.000449911
-0.000350213
0.000453712
-0.000363195
0.000445862
-0.000370768
0.000429101
-0.000374353
0.000406407
-0.000375495
0.000380413
-0.000375419
0.000353112
-0.000375067
0.000325737
-0.000374947
0.000298923
-0.000375319
0.00027283
-0.000376191
0.000247412
-0.000377496
0.00022247
-0.000379082
0.000197839
-0.000380824
0.000173337
-0.000382589
0.000148872
-0.000384293
0.000124351
-0.000385858
9.97555e-05
-0.000387251
7.50557e-05
-0.000388442
5.02713e-05
-0.000389437
2.54024e-05
-0.00039024
4.81566e-07
-0.000390883
-2.44804e-05
-0.000391395
-4.94542e-05
-0.000391827
-7.44287e-05
-0.000392227
-9.93872e-05
-0.00039266
-0.000124324
-0.000393192
-0.000149242
-0.000393914
-0.000174147
-0.000394936
-0.000199075
-0.000396418
-0.000224067
-0.000398581
-0.000249239
-0.000401748
-0.000274753
-0.000406338
-0.000300942
-0.000412848
-0.000328269
-0.000421685
-0.000357451
-0.000432875
-0.000389268
-0.000445511
-0.00042435
-0.000457117
-0.000462402
-0.000463065
-0.000501217
-0.000456602
-0.000535365
-0.000429913
-0.00055537
-0.000376878
-0.000548341
-0.000297583
-0.000501137
-0.000203141
-0.000408021
-0.000115595
-0.000280376
-5.44384e-05
-0.000151794
-2.07772e-05
-5.56046e-05
-4.75954e-06
1.16921e-06
8.65261e-07
2.91197e-05
1.17639e-06
3.41198e-05
1.86734e-05
-1.58333e-05
4.93436e-05
-4.3862e-05
0.000111753
-7.76708e-05
0.000166354
-0.000114991
0.000224884
-0.000154894
0.000285727
-0.000195156
0.000344305
-0.000233585
0.000395641
-0.000267641
0.000435301
-0.000295777
0.000460685
-0.000317082
0.000471241
-0.000331797
0.000468419
-0.000340746
0.00045483
-0.000345412
0.000433763
-0.000347283
0.000408293
-0.000347781
0.000380908
-0.000347873
0.000353217
-0.000348213
0.000326076
-0.000349044
0.000299763
-0.000350434
0.000274219
-0.000352265
0.00024925
-0.000354412
0.000224616
-0.000356705
0.000200135
-0.000359027
0.000175657
-0.000361263
0.000151109
-0.00036335
0.000126435
-0.000365229
0.000101634
-0.000366881
7.67023e-05
-0.000368286
5.1673e-05
-0.000369455
2.65648e-05
-0.000370396
1.41795e-06
-0.000371143
-2.37418e-05
-0.000371723
-4.88809e-05
-0.000372183
-7.39765e-05
-0.000372566
-9.90118e-05
-0.000372927
-0.000123972
-0.000373314
-0.000148862
-0.000373792
-0.000173677
-0.000374425
-0.000198449
-0.000375311
-0.000223187
-0.00037658
-0.000247975
-0.000378451
-0.000272887
-0.000381242
-0.000298155
-0.000385424
-0.00032409
-0.000391565
-0.000351313
-0.000400204
-0.000380631
-0.000411449
-0.000413106
-0.000424366
-0.000449487
-0.000436129
-0.000489452
-0.000441418
-0.000530077
-0.00043249
-0.000564292
-0.00040079
-0.00058004
-0.000340509
-0.000561415
-0.000254302
-0.000494236
-0.000158514
-0.000376163
-7.96212e-05
-0.00023069
-3.22953e-05
-0.000102914
-9.38113e-06
-2.17536e-05
-3.95185e-07
2.01393e-05
1.0517e-06
3.26716e-05
1.97269e-05
-1.68245e-05
6.61196e-05
-4.60681e-05
0.000141076
-8.05808e-05
0.000200781
-0.000117747
0.000262108
-0.000156405
0.000324327
-0.00019418
0.000382115
-0.000228996
0.000430416
-0.000258651
0.000464975
-0.000282097
0.000484101
-0.000298922
0.000488078
-0.000309834
0.000479308
-0.00031597
0.000460973
-0.000318943
0.000436719
-0.000320147
0.0004095
-0.000320781
0.000381527
-0.000321523
0.000353961
-0.000322769
0.000327309
-0.000324557
0.000301553
-0.00032684
0.000276493
-0.000329438
0.000251849
-0.000332217
0.000227388
-0.000335016
0.000202937
-0.000337747
0.000178384
-0.000340312
0.000153678
-0.000342673
0.000128794
-0.000344783
0.000103747
-0.000346632
7.85533e-05
-0.000348208
5.32536e-05
-0.000349523
2.78838e-05
-0.000350588
2.4892e-06
-0.000351435
-2.289e-05
-0.000352091
-4.82178e-05
-0.000352602
-7.34594e-05
-0.000353007
-9.85999e-05
-0.000353357
-0.000123615
-0.000353696
-0.000148517
-0.000354073
-0.000173293
-0.000354532
-0.000197984
-0.000355129
-0.000222585
-0.00035593
-0.00024717
-0.000357056
-0.000271757
-0.000358703
-0.000296505
-0.000361213
-0.000321577
-0.000365091
-0.000347433
-0.000371013
-0.000374709
-0.000379605
-0.000404512
-0.000391034
-0.000438059
-0.000404164
-0.000476321
-0.000415626
-0.000518618
-0.000419085
-0.000560829
-0.0004057
-0.000593426
-0.00036639
-0.000600717
-0.000296784
-0.000563854
-0.000204073
-0.000468869
-0.000111906
-0.000322879
-4.79125e-05
-0.000166882
-1.56916e-05
-5.39851e-05
-2.38061e-06
6.83141e-06
7.96667e-07
2.94894e-05
2.05242e-05
-1.70711e-05
8.3154e-05
-4.6627e-05
0.000170726
-8.09558e-05
0.000235035
-0.000117116
0.000298341
-0.000153778
0.000360944
-0.000188554
0.00041694
-0.000219587
0.00046142
-0.000245061
0.000490485
-0.000264399
0.000503423
-0.000277618
0.000501326
-0.00028577
0.00048745
-0.000290158
0.000465384
-0.000292372
0.000438927
-0.000293608
0.000410754
-0.000294806
0.000382722
-0.000296378
0.000355547
-0.00029852
0.000329449
-0.000301141
0.000304185
-0.000304136
0.000279486
-0.000307311
0.000255033
-0.00031055
0.000230626
-0.000313716
0.000206108
-0.000316744
0.00018141
-0.000319559
0.000156495
-0.000322135
0.000131367
-0.000324433
0.000106046
-0.000326452
8.05674e-05
-0.000328177
5.49766e-05
-0.000329623
2.93257e-05
-0.0003308
3.66275e-06
-0.000331739
-2.19569e-05
-0.000332465
-4.74964e-05
-0.000333023
-7.29071e-05
-0.000333452
-9.81774e-05
-0.0003338
-0.000123271
-0.000334112
-0.000148212
-0.000334434
-0.000172975
-0.000334802
-0.000197622
-0.000335257
-0.000222134
-0.000335831
-0.000246601
-0.000336582
-0.000271008
-0.000337603
-0.000295488
-0.000339095
-0.000320086
-0.000341407
-0.000345123
-0.000345124
-0.000370993
-0.000351002
-0.000398634
-0.000359787
-0.000429277
-0.000371565
-0.000464542
-0.000384837
-0.00050535
-0.000395306
-0.000550355
-0.000395359
-0.000593375
-0.000374966
-0.0006211
-0.000325252
-0.00061357
-0.000245087
-0.000549037
-0.000149043
-0.000418933
-6.864e-05
-0.000247285
-2.38077e-05
-9.87996e-05
-5.20522e-06
-1.1779e-05
4.23284e-07
2.38605e-05
2.09497e-05
-1.66217e-05
9.97266e-05
-4.5658e-05
0.000199843
-7.90274e-05
0.000268318
-0.000113495
0.000332866
-0.000147632
0.000395021
-0.000179145
0.000448488
-0.000206454
0.000488686
-0.000228138
0.000512191
-0.000244029
0.000519281
-0.000254482
0.000511792
-0.000260764
0.000493706
-0.000264208
0.000468835
-0.000266273
0.000440971
-0.000267916
0.000412401
-0.000269824
0.000384613
-0.000272197
0.000357922
-0.000275096
0.000332335
-0.000278361
0.000307451
-0.000281872
0.000282987
-0.00028545
0.000258612
-0.000289004
0.000234173
-0.000292423
0.000209528
-0.000295665
0.000184647
-0.000298667
0.000159499
-0.000301413
0.000134111
-0.000303868
0.000108504
-0.000306034
8.27332e-05
-0.000307896
5.68427e-05
-0.00030947
3.09017e-05
-0.000310763
4.95925e-06
-0.000311803
-2.09132e-05
-0.000312615
-4.66796e-05