/*--------------------------------*- C++ -*----------------------------------*\
| =========                 |                                                 |
| \\      /  F ield         | OpenFOAM: The Open Source CFD Toolbox           |
|  \\    /   O peration     | Version:  2406                                  |
|   \\  /    A nd           | Website:  www.openfoam.com                      |
|    \\/     M anipulation  |                                                 |
\*---------------------------------------------------------------------------*/
FoamFile
{
    version     2.0;
    format      ascii;
    arch        "LSB;label=32;scalar=64";
    class       volVectorField;
    location    "7.55";
    object      U;
}
// * * * * * * * * * * * * * * * * * * * * * * * * * * * * * * * * * * * * * //

dimensions      [0 1 -1 0 0 0 0];

internalField   nonuniform List<vector> 
14400
(
(2.27975e-06 -2.27028e-06 0)
(5.17775e-06 -3.12004e-07 0)
(-3.33746e-06 2.96847e-06 0)
(-2.45827e-05 6.17218e-06 0)
(-5.75653e-05 8.84826e-06 0)
(-0.000100176 1.09287e-05 0)
(-0.000150228 1.24655e-05 0)
(-0.000205787 1.35534e-05 0)
(-0.000265263 1.42918e-05 0)
(-0.000327411 1.47674e-05 0)
(-0.00039129 1.50516e-05 0)
(-0.000456209 1.5201e-05 0)
(-0.000521677 1.52585e-05 0)
(-0.000587357 1.52563e-05 0)
(-0.000653027 1.52176e-05 0)
(-0.00071855 1.51586e-05 0)
(-0.000783846 1.50902e-05 0)
(-0.000848874 1.50196e-05 0)
(-0.000913621 1.49507e-05 0)
(-0.000978088 1.48856e-05 0)
(-0.00104228 1.4825e-05 0)
(-0.00110621 1.47684e-05 0)
(-0.00116989 1.47149e-05 0)
(-0.00123332 1.46631e-05 0)
(-0.00129649 1.46115e-05 0)
(-0.00135941 1.45584e-05 0)
(-0.00142206 1.45021e-05 0)
(-0.00148442 1.4441e-05 0)
(-0.00154646 1.43734e-05 0)
(-0.00160815 1.42977e-05 0)
(-0.00166945 1.42123e-05 0)
(-0.00173031 1.41155e-05 0)
(-0.00179068 1.40057e-05 0)
(-0.0018505 1.38814e-05 0)
(-0.00190971 1.3741e-05 0)
(-0.00196822 1.35828e-05 0)
(-0.00202596 1.34052e-05 0)
(-0.00208285 1.32066e-05 0)
(-0.00213879 1.29853e-05 0)
(-0.00219368 1.27397e-05 0)
(-0.00224741 1.24682e-05 0)
(-0.00229988 1.21691e-05 0)
(-0.00235096 1.1841e-05 0)
(-0.00240053 1.14824e-05 0)
(-0.00244845 1.10917e-05 0)
(-0.00249459 1.06678e-05 0)
(-0.00253882 1.02095e-05 0)
(-0.00258097 9.7156e-06 0)
(-0.00262091 9.18534e-06 0)
(-0.00265849 8.618e-06 0)
(-0.00269354 8.01312e-06 0)
(-0.00272591 7.37049e-06 0)
(-0.00275545 6.69013e-06 0)
(-0.002782 5.97238e-06 0)
(-0.00280542 5.21789e-06 0)
(-0.00282554 4.42763e-06 0)
(-0.00284224 3.60292e-06 0)
(-0.00285536 2.74542e-06 0)
(-0.0028648 1.85713e-06 0)
(-0.00287041 9.4161e-07 0)
(-0.00287211 2.30696e-09 0)
(-0.00286978 -9.63782e-07 0)
(-0.00286335 -1.94822e-06 0)
(-0.00285275 -2.94674e-06 0)
(-0.00283793 -3.95604e-06 0)
(-0.00281886 -4.97173e-06 0)
(-0.00279552 -5.98914e-06 0)
(-0.00276793 -7.00337e-06 0)
(-0.0027361 -8.00939e-06 0)
(-0.00270008 -9.00201e-06 0)
(-0.00265994 -9.97602e-06 0)
(-0.00261577 -1.09262e-05 0)
(-0.00256768 -1.18474e-05 0)
(-0.00251581 -1.27345e-05 0)
(-0.00246029 -1.35828e-05 0)
(-0.00240131 -1.43875e-05 0)
(-0.00233905 -1.51445e-05 0)
(-0.00227372 -1.58498e-05 0)
(-0.00220553 -1.64999e-05 0)
(-0.00213471 -1.70917e-05 0)
(-0.00206152 -1.76225e-05 0)
(-0.00198621 -1.80904e-05 0)
(-0.00190904 -1.84938e-05 0)
(-0.00183027 -1.88316e-05 0)
(-0.00175018 -1.91034e-05 0)
(-0.00166903 -1.93092e-05 0)
(-0.00158709 -1.94494e-05 0)
(-0.00150464 -1.95249e-05 0)
(-0.00142194 -1.95372e-05 0)
(-0.00133924 -1.94877e-05 0)
(-0.00125679 -1.93783e-05 0)
(-0.00117484 -1.92109e-05 0)
(-0.00109363 -1.89876e-05 0)
(-0.00101338 -1.87104e-05 0)
(-0.000934314 -1.8381e-05 0)
(-0.000856648 -1.8001e-05 0)
(-0.000780593 -1.75716e-05 0)
(-0.000706356 -1.70934e-05 0)
(-0.000634145 -1.65665e-05 0)
(-0.000564169 -1.59904e-05 0)
(-0.000496643 -1.53638e-05 0)
(-0.000431787 -1.46847e-05 0)
(-0.000369836 -1.39502e-05 0)
(-0.000311036 -1.31569e-05 0)
(-0.000255653 -1.23005e-05 0)
(-0.000203968 -1.13764e-05 0)
(-0.000156286 -1.03798e-05 0)
(-0.00011293 -9.30595e-06 0)
(-7.42394e-05 -8.15094e-06 0)
(-4.05651e-05 -6.9125e-06 0)
(-1.22578e-05 -5.59125e-06 0)
(1.03503e-05 -4.19283e-06 0)
(2.69735e-05 -2.7306e-06 0)
(3.74214e-05 -1.22808e-06 0)
(4.16981e-05 2.53415e-07 0)
(4.00194e-05 1.5827e-06 0)
(3.30802e-05 2.65809e-06 0)
(2.22646e-05 3.29513e-06 0)
(1.0733e-05 2.96975e-06 0)
(1.73699e-06 1.7423e-06 0)
(3.19488e-07 -5.15924e-06 0)
(-1.0296e-05 1.02036e-05 0)
(-4.78075e-05 3.60744e-05 0)
(-0.000114881 6.17693e-05 0)
(-0.000209033 8.40599e-05 0)
(-0.000326335 0.000102018 0)
(-0.000462253 0.00011579 0)
(-0.000612529 0.000125939 0)
(-0.000773486 0.000133142 0)
(-0.000942107 0.000138042 0)
(-0.00111601 0.000141202 0)
(-0.00129336 0.000143084 0)
(-0.00147281 0.000144057 0)
(-0.00165337 0.000144404 0)
(-0.00183436 0.000144335 0)
(-0.00201531 0.000144007 0)
(-0.00219591 0.000143526 0)
(-0.00237596 0.000142965 0)
(-0.00255536 0.00014237 0)
(-0.00273405 0.000141768 0)
(-0.00291198 0.000141171 0)
(-0.00308915 0.000140582 0)
(-0.00326552 0.000139997 0)
(-0.00344109 0.000139407 0)
(-0.00361582 0.000138801 0)
(-0.00378966 0.000138167 0)
(-0.00396257 0.00013749 0)
(-0.00413447 0.000136758 0)
(-0.00430528 0.000135955 0)
(-0.00447488 0.000135069 0)
(-0.00464317 0.000134084 0)
(-0.00480999 0.000132987 0)
(-0.00497521 0.000131765 0)
(-0.00513864 0.000130402 0)
(-0.00530011 0.000128885 0)
(-0.0054594 0.000127201 0)
(-0.00561631 0.000125334 0)
(-0.00577059 0.000123271 0)
(-0.005922 0.000120997 0)
(-0.00607026 0.0001185 0)
(-0.00621509 0.000115764 0)
(-0.00635619 0.000112777 0)
(-0.00649325 0.000109526 0)
(-0.00662593 0.000105998 0)
(-0.00675389 0.000102183 0)
(-0.00687678 9.80688e-05 0)
(-0.00699423 9.36471e-05 0)
(-0.00710587 8.89095e-05 0)
(-0.00721132 8.38497e-05 0)
(-0.00731019 7.84629e-05 0)
(-0.00740208 7.27464e-05 0)
(-0.00748661 6.66997e-05 0)
(-0.00756338 6.03244e-05 0)
(-0.00763202 5.3625e-05 0)
(-0.00769215 4.66083e-05 0)
(-0.00774339 3.92844e-05 0)
(-0.00778541 3.16661e-05 0)
(-0.00781787 2.37692e-05 0)
(-0.00784046 1.56128e-05 0)
(-0.00785289 7.21949e-06 0)
(-0.00785491 -1.38443e-06 0)
(-0.0078463 -1.01751e-05 0)
(-0.00782687 -1.91185e-05 0)
(-0.00779647 -2.81804e-05 0)
(-0.007755 -3.73245e-05 0)
(-0.00770239 -4.65122e-05 0)
(-0.00763863 -5.57027e-05 0)
(-0.00756375 -6.48539e-05 0)
(-0.00747784 -7.3922e-05 0)
(-0.00738104 -8.28629e-05 0)
(-0.00727353 -9.16319e-05 0)
(-0.00715555 -0.000100185 0)
(-0.00702739 -0.000108477 0)
(-0.0068894 -0.000116467 0)
(-0.00674196 -0.000124112 0)
(-0.00658551 -0.000131376 0)
(-0.00642052 -0.00013822 0)
(-0.00624751 -0.000144613 0)
(-0.00606704 -0.000150525 0)
(-0.00587969 -0.000155929 0)
(-0.00568607 -0.000160805 0)
(-0.00548682 -0.000165133 0)
(-0.00528258 -0.000168903 0)
(-0.00507403 -0.000172103 0)
(-0.00486184 -0.000174731 0)
(-0.00464668 -0.000176786 0)
(-0.00442922 -0.00017827 0)
(-0.00421013 -0.000179192 0)
(-0.00399007 -0.000179561 0)
(-0.0037697 -0.000179389 0)
(-0.00354963 -0.000178691 0)
(-0.00333049 -0.000177481 0)
(-0.00311287 -0.000175774 0)
(-0.00289737 -0.000173586 0)
(-0.00268456 -0.000170928 0)
(-0.00247499 -0.000167812 0)
(-0.00226922 -0.000164243 0)
(-0.0020678 -0.000160225 0)
(-0.00187128 -0.000155753 0)
(-0.00168024 -0.00015082 0)
(-0.00149524 -0.00014541 0)
(-0.0013169 -0.000139501 0)
(-0.00114585 -0.000133065 0)
(-0.000982786 -0.000126066 0)
(-0.000828425 -0.000118467 0)
(-0.000683545 -0.000110224 0)
(-0.000548972 -0.000101296 0)
(-0.00042558 -9.16429e-05 0)
(-0.000314276 -8.12387e-05 0)
(-0.00021598 -7.00752e-05 0)
(-0.000131592 -5.81773e-05 0)
(-6.19344e-05 -4.56215e-05 0)
(-7.67246e-06 -3.2564e-05 0)
(3.07999e-05 -1.92834e-05 0)
(5.35163e-05 -6.25396e-06 0)
(6.12434e-05 5.74298e-06 0)
(5.57793e-05 1.55793e-05 0)
(4.00785e-05 2.14366e-05 0)
(2.05404e-05 2.06384e-05 0)
(2.93225e-06 1.07102e-05 0)
(-3.07189e-06 3.57044e-06 0)
(-3.71519e-05 4.80672e-05 0)
(-0.000110451 0.000108584 0)
(-0.000225573 0.000168055 0)
(-0.000377745 0.000220386 0)
(-0.000562323 0.000263475 0)
(-0.000773568 0.00029734 0)
(-0.00100593 0.000322961 0)
(-0.00125444 0.000341673 0)
(-0.00151493 0.000354836 0)
(-0.00178396 0.000363689 0)
(-0.00205885 0.000369293 0)
(-0.00233753 0.000372512 0)
(-0.00261845 0.000374032 0)
(-0.00290049 0.000374378 0)
(-0.00318283 0.000373939 0)
(-0.00346493 0.000372998 0)
(-0.0037464 0.000371751 0)
(-0.00402699 0.000370327 0)
(-0.00430653 0.000368807 0)
(-0.00458491 0.000367233 0)
(-0.00486205 0.000365622 0)
(-0.00513787 0.000363972 0)
(-0.0054123 0.00036227 0)
(-0.00568526 0.000360492 0)
(-0.00595666 0.000358612 0)
(-0.00622638 0.000356598 0)
(-0.0064943 0.000354418 0)
(-0.00676026 0.000352039 0)
(-0.00702407 0.000349428 0)
(-0.00728555 0.00034655 0)
(-0.00754446 0.000343371 0)
(-0.00780056 0.000339858 0)
(-0.00805358 0.000335976 0)
(-0.00830322 0.000331692 0)
(-0.00854916 0.00032697 0)
(-0.00879106 0.000321777 0)
(-0.00902855 0.000316078 0)
(-0.00926124 0.000309841 0)
(-0.00948872 0.000303031 0)
(-0.00971055 0.000295615 0)
(-0.00992628 0.000287564 0)
(-0.0101354 0.000278846 0)
(-0.0103375 0.000269433 0)
(-0.010532 0.000259298 0)
(-0.0107183 0.000248419 0)
(-0.010896 0.000236774 0)
(-0.0110644 0.000224346 0)
(-0.0112231 0.000211122 0)
(-0.0113714 0.000197093 0)
(-0.0115087 0.000182255 0)
(-0.0116346 0.00016661 0)
(-0.0117484 0.000150166 0)
(-0.0118496 0.000132935 0)
(-0.0119377 0.000114938 0)
(-0.012012 9.6203e-05 0)
(-0.0120723 7.6763e-05 0)
(-0.0121178 5.66601e-05 0)
(-0.0121483 3.59432e-05 0)
(-0.0121634 1.46684e-05 0)
(-0.0121626 -7.10083e-06 0)
(-0.0121458 -2.92908e-05 0)
(-0.0121126 -5.18269e-05 0)
(-0.0120629 -7.46249e-05 0)
(-0.0119965 -9.75949e-05 0)
(-0.0119134 -0.000120642 0)
(-0.0118137 -0.000143667 0)
(-0.0116972 -0.000166567 0)
(-0.0115644 -0.000189237 0)
(-0.0114152 -0.00021157 0)
(-0.0112502 -0.000233459 0)
(-0.0110695 -0.000254798 0)
(-0.0108737 -0.000275482 0)
(-0.0106633 -0.000295409 0)
(-0.0104389 -0.000314483 0)
(-0.0102011 -0.000332611 0)
(-0.00995058 -0.000349709 0)
(-0.00968816 -0.000365698 0)
(-0.00941462 -0.000380508 0)
(-0.00913083 -0.000394079 0)
(-0.00883767 -0.000406359 0)
(-0.00853607 -0.000417308 0)
(-0.00822696 -0.000426895 0)
(-0.00791131 -0.000435098 0)
(-0.00759009 -0.000441908 0)
(-0.00726427 -0.000447323 0)
(-0.00693484 -0.00045135 0)
(-0.00660275 -0.000454006 0)
(-0.00626896 -0.000455313 0)
(-0.0059344 -0.000455298 0)
(-0.0056 -0.000453992 0)
(-0.00526666 -0.000451428 0)
(-0.00493524 -0.000447641 0)
(-0.00460662 -0.000442659 0)
(-0.00428163 -0.00043651 0)
(-0.00396111 -0.000429212 0)
(-0.00364588 -0.000420777 0)
(-0.00333676 -0.000411203 0)
(-0.00303461 -0.000400477 0)
(-0.00274026 -0.000388571 0)
(-0.00245461 -0.00037544 0)
(-0.0021786 -0.000361025 0)
(-0.00191319 -0.00034525 0)
(-0.00165943 -0.000328027 0)
(-0.00141844 -0.000309256 0)
(-0.0011914 -0.000288833 0)
(-0.00097957 -0.000266657 0)
(-0.000784259 -0.000242645 0)
(-0.000606826 -0.000216744 0)
(-0.000448628 -0.000188958 0)
(-0.000310968 -0.000159383 0)
(-0.00019501 -0.000128249 0)
(-0.000101656 -9.59876e-05 0)
(-3.13854e-05 -6.3322e-05 0)
(1.59699e-05 -3.13918e-05 0)
(4.1551e-05 -1.91263e-06 0)
(4.77944e-05 2.25262e-05 0)
(3.85398e-05 3.8243e-05 0)
(2.14639e-05 4.02106e-05 0)
(3.25076e-06 2.21499e-05 0)
(-6.57579e-06 2.58518e-05 0)
(-6.53486e-05 0.000117373 0)
(-0.000175634 0.000225125 0)
(-0.00033871 0.000328869 0)
(-0.000546321 0.000420382 0)
(-0.000792999 0.000496565 0)
(-0.00107209 0.00055732 0)
(-0.00137723 0.000604063 0)
(-0.00170265 0.000638848 0)
(-0.00204343 0.000663851 0)
(-0.00239546 0.000681117 0)
(-0.00275543 0.000692438 0)
(-0.00312074 0.000699307 0)
(-0.00348941 0.000702927 0)
(-0.00385994 0.000704239 0)
(-0.00423122 0.000703953 0)
(-0.00460246 0.000702594 0)
(-0.00497308 0.000700533 0)
(-0.0053427 0.000698023 0)
(-0.00571101 0.000695226 0)
(-0.00607781 0.000692235 0)
(-0.00644292 0.000689093 0)
(-0.00680621 0.00068581 0)
(-0.00716753 0.000682368 0)
(-0.00752674 0.000678734 0)
(-0.00788368 0.000674863 0)
(-0.00823818 0.000670705 0)
(-0.00859004 0.000666203 0)
(-0.00893903 0.000661299 0)
(-0.0092849 0.000655934 0)
(-0.00962737 0.000650048 0)
(-0.00996614 0.000643581 0)
(-0.0103009 0.000636471 0)
(-0.0106312 0.000628657 0)
(-0.0109567 0.000620078 0)
(-0.0112769 0.000610673 0)
(-0.0115915 0.000600381 0)
(-0.0118999 0.000589141 0)
(-0.0122017 0.000576895 0)
(-0.0124962 0.000563582 0)
(-0.0127829 0.000549147 0)
(-0.0130613 0.000533535 0)
(-0.0133306 0.000516693 0)
(-0.0135904 0.000498573 0)
(-0.0138398 0.000479131 0)
(-0.0140783 0.000458327 0)
(-0.0143052 0.000436128 0)
(-0.0145197 0.000412507 0)
(-0.0147212 0.000387443 0)
(-0.014909 0.000360927 0)
(-0.0150822 0.000332954 0)
(-0.0152404 0.000303533 0)
(-0.0153826 0.000272682 0)
(-0.0155083 0.000240431 0)
(-0.0156169 0.000206819 0)
(-0.0157076 0.000171902 0)
(-0.01578 0.000135745 0)
(-0.0158333 9.84276e-05 0)
(-0.0158673 6.00418e-05 0)
(-0.0158813 2.06929e-05 0)
(-0.015875 -1.95017e-05 0)
(-0.0158481 -6.04112e-05 0)
(-0.0158002 -0.000101894 0)
(-0.0157313 -0.000143798 0)
(-0.0156412 -0.000185961 0)
(-0.0155298 -0.000228212 0)
(-0.0153972 -0.000270373 0)
(-0.0152436 -0.000312262 0)
(-0.0150691 -0.000353689 0)
(-0.0148741 -0.000394466 0)
(-0.0146591 -0.000434404 0)
(-0.0144244 -0.000473314 0)
(-0.0141706 -0.000511012 0)
(-0.0138985 -0.000547321 0)
(-0.0136088 -0.00058207 0)
(-0.0133023 -0.000615098 0)
(-0.0129798 -0.000646257 0)
(-0.0126424 -0.000675412 0)
(-0.0122911 -0.000702441 0)
(-0.0119269 -0.000727239 0)
(-0.0115508 -0.000749719 0)
(-0.0111642 -0.000769809 0)
(-0.0107681 -0.000787457 0)
(-0.0103636 -0.000802627 0)
(-0.00995212 -0.000815302 0)
(-0.00953472 -0.000825479 0)
(-0.00911262 -0.000833173 0)
(-0.00868701 -0.00083841 0)
(-0.00825907 -0.000841227 0)
(-0.00782994 -0.000841672 0)
(-0.00740077 -0.000839797 0)
(-0.00697266 -0.000835658 0)
(-0.0065467 -0.000829307 0)
(-0.00612395 -0.000820795 0)
(-0.00570547 -0.000810162 0)
(-0.00529229 -0.000797436 0)
(-0.00488546 -0.000782627 0)
(-0.00448601 -0.000765728 0)
(-0.004095 -0.000746704 0)
(-0.00371352 -0.000725497 0)
(-0.00334271 -0.00070202 0)
(-0.00298375 -0.000676158 0)
(-0.0026379 -0.000647769 0)
(-0.00230648 -0.00061669 0)
(-0.00199092 -0.000582738 0)
(-0.00169272 -0.00054573 0)
(-0.00141348 -0.000505493 0)
(-0.00115484 -0.000461886 0)
(-0.000918511 -0.00041484 0)
(-0.000706164 -0.000364394 0)
(-0.000519391 -0.000310759 0)
(-0.00035959 -0.000254398 0)
(-0.00022782 -0.000196129 0)
(-0.000124612 -0.000137272 0)
(-4.97273e-05 -7.98317e-05 0)
(-1.85664e-06 -2.67408e-05 0)
(2.17227e-05 1.78182e-05 0)
(2.523e-05 4.81352e-05 0)
(1.64975e-05 5.66157e-05 0)
(2.68583e-06 3.30458e-05 0)
(-9.7625e-06 6.14945e-05 0)
(-9.18257e-05 0.000217501 0)
(-0.000237597 0.000383624 0)
(-0.000446519 0.000539503 0)
(-0.000706317 0.000676298 0)
(-0.00101038 0.000790642 0)
(-0.00135111 0.000882625 0)
(-0.00172145 0.00095421 0)
(-0.00211511 0.00100821 0)
(-0.00252665 0.00104765 0)
(-0.00295153 0.00107541 0)
(-0.00338602 0.00109408 0)
(-0.00382715 0.00110582 0)
(-0.0042726 0.00111242 0)
(-0.00472059 0.00111528 0)
(-0.00516977 0.00111548 0)
(-0.00561914 0.00111385 0)
(-0.00606796 0.00111094 0)
(-0.00651568 0.00110719 0)
(-0.00696188 0.00110284 0)
(-0.00740626 0.00109806 0)
(-0.00784854 0.00109293 0)
(-0.00828852 0.00108749 0)
(-0.00872596 0.00108171 0)
(-0.00916066 0.00107555 0)
(-0.00959239 0.00106896 0)
(-0.0100209 0.00106186 0)
(-0.0104459 0.00105416 0)
(-0.0108672 0.00104579 0)
(-0.0112843 0.00103666 0)
(-0.011697 0.00102667 0)
(-0.0121048 0.00101574 0)
(-0.0125073 0.00100376 0)
(-0.0129042 0.000990658 0)
(-0.0132947 0.00097633 0)
(-0.0136786 0.000960686 0)
(-0.0140552 0.000943635 0)
(-0.0144238 0.000925086 0)
(-0.014784 0.000904949 0)
(-0.0151351 0.000883139 0)
(-0.0154763 0.000859569 0)
(-0.015807 0.000834161 0)
(-0.0161264 0.000806839 0)
(-0.0164339 0.000777532 0)
(-0.0167285 0.000746178 0)
(-0.0170096 0.000712721 0)
(-0.0172764 0.000677116 0)
(-0.017528 0.000639327 0)
(-0.0177635 0.00059933 0)
(-0.0179823 0.000557115 0)
(-0.0181835 0.000512685 0)
(-0.0183662 0.000466058 0)
(-0.0185297 0.000417269 0)
(-0.0186733 0.00036637 0)
(-0.0187962 0.000313432 0)
(-0.0188977 0.000258542 0)
(-0.0189771 0.000201808 0)
(-0.0190339 0.000143358 0)
(-0.0190675 8.33374e-05 0)
(-0.0190775 2.19125e-05 0)
(-0.0190633 -4.07325e-05 0)
(-0.0190247 -0.000104396 0)
(-0.0189614 -0.000168859 0)
(-0.0188733 -0.000233886 0)
(-0.0187602 -0.00029923 0)
(-0.0186222 -0.00036463 0)
(-0.0184593 -0.000429816 0)
(-0.0182718 -0.000494511 0)
(-0.01806 -0.00055843 0)
(-0.0178242 -0.000621291 0)
(-0.0175651 -0.000682807 0)
(-0.0172832 -0.000742698 0)
(-0.0169791 -0.000800691 0)
(-0.0166538 -0.000856519 0)
(-0.0163081 -0.000909931 0)
(-0.0159429 -0.000960689 0)
(-0.0155593 -0.00100857 0)
(-0.0151584 -0.00105339 0)
(-0.0147414 -0.00109495 0)
(-0.0143095 -0.00113311 0)
(-0.0138639 -0.00116773 0)
(-0.0134061 -0.00119873 0)
(-0.0129373 -0.00122601 0)
(-0.012459 -0.00124953 0)
(-0.0119723 -0.00126926 0)
(-0.0114789 -0.00128521 0)
(-0.0109799 -0.0012974 0)
(-0.0104768 -0.00130586 0)
(-0.00997084 -0.00131064 0)
(-0.00946342 -0.00131183 0)
(-0.0089558 -0.00130949 0)
(-0.00844925 -0.00130371 0)
(-0.00794501 -0.00129455 0)
(-0.0074443 -0.00128209 0)
(-0.00694834 -0.00126639 0)
(-0.00645831 -0.00124747 0)
(-0.00597541 -0.00122534 0)
(-0.00550085 -0.00119998 0)
(-0.00503586 -0.00117134 0)
(-0.0045817 -0.0011393 0)
(-0.00413969 -0.00110374 0)
(-0.00371122 -0.00106446 0)
(-0.00329775 -0.00102125 0)
(-0.00290083 -0.000973849 0)
(-0.00252211 -0.000921989 0)
(-0.00216334 -0.00086539 0)
(-0.00182635 -0.000803801 0)
(-0.00151306 -0.00073703 0)
(-0.00122539 -0.000664998 0)
(-0.000965248 -0.000587803 0)
(-0.000734432 -0.00050581 0)
(-0.000534496 -0.000419767 0)
(-0.000366609 -0.000330953 0)
(-0.000231359 -0.000241362 0)
(-0.00012851 -0.000153938 0)
(-5.67337e-05 -7.28645e-05 0)
(-1.32711e-05 -3.89861e-06 0)
(6.11828e-06 4.52569e-05 0)
(8.72497e-06 6.46331e-05 0)
(1.80528e-06 4.07026e-05 0)
(-1.25467e-05 0.000109192 0)
(-0.000115535 0.000346368 0)
(-0.000293966 0.00058198 0)
(-0.000545382 0.000797585 0)
(-0.000853467 0.000985114 0)
(-0.00121022 0.0011418 0)
(-0.00160698 0.00126838 0)
(-0.002036 0.00136762 0)
(-0.00249054 0.0014432 0)
(-0.00296479 0.00149905 0)
(-0.00345391 0.00153894 0)
(-0.00395389 0.00156624 0)
(-0.0044615 0.00158386 0)
(-0.00497421 0.00159418 0)
(-0.00549 0.0015991 0)
(-0.00600735 0.00160011 0)
(-0.0065251 0.00159833 0)
(-0.00704234 0.00159458 0)
(-0.00755841 0.00158943 0)
(-0.00807278 0.00158328 0)
(-0.00858503 0.00157636 0)
(-0.00909481 0.00156882 0)
(-0.00960181 0.0015607 0)
(-0.0101057 0.00155199 0)
(-0.0106063 0.00154265 0)
(-0.0111032 0.0015326 0)
(-0.0115962 0.00152175 0)
(-0.0120848 0.00151 0)
(-0.0125687 0.00149722 0)
(-0.0130476 0.00148329 0)
(-0.0135209 0.0014681 0)
(-0.0139883 0.00145152 0)
(-0.0144492 0.00143342 0)
(-0.0149031 0.00141367 0)
(-0.0153494 0.00139215 0)
(-0.0157875 0.00136874 0)
(-0.0162167 0.0013433 0)
(-0.0166364 0.00131572 0)
(-0.0170459 0.00128586 0)
(-0.0174445 0.00125363 0)
(-0.0178313 0.00121889 0)
(-0.0182056 0.00118155 0)
(-0.0185665 0.00114151 0)
(-0.0189132 0.00109866 0)
(-0.0192448 0.00105294 0)
(-0.0195605 0.00100428 0)
(-0.0198593 0.000952609 0)
(-0.0201403 0.000897895 0)
(-0.0204027 0.000840112 0)
(-0.0206456 0.000779255 0)
(-0.020868 0.000715336 0)
(-0.0210691 0.000648391 0)
(-0.021248 0.000578477 0)
(-0.021404 0.000505677 0)
(-0.0215362 0.000430096 0)
(-0.0216439 0.000351866 0)
(-0.0217264 0.000271147 0)
(-0.0217831 0.000188122 0)
(-0.0218134 0.000103002 0)
(-0.0218168 1.60237e-05 0)
(-0.021793 -7.25514e-05 0)
(-0.0217415 -0.000162438 0)
(-0.0216622 -0.000253329 0)
(-0.0215549 -0.000344897 0)
(-0.0214195 -0.000436796 0)
(-0.0212562 -0.000528664 0)
(-0.0210651 -0.000620129 0)
(-0.0208465 -0.000710808 0)
(-0.0206008 -0.000800313 0)
(-0.0203284 -0.000888253 0)
(-0.02003 -0.00097424 0)
(-0.0197062 -0.00105789 0)
(-0.019358 -0.00113884 0)
(-0.0189862 -0.00121671 0)
(-0.0185918 -0.00129118 0)
(-0.0181759 -0.00136193 0)
(-0.0177397 -0.00142865 0)
(-0.0172845 -0.00149108 0)
(-0.0168115 -0.00154899 0)
(-0.0163221 -0.00160217 0)
(-0.0158177 -0.00165045 0)
(-0.0152999 -0.0016937 0)
(-0.01477 -0.00173181 0)
(-0.0142295 -0.00176473 0)
(-0.0136801 -0.00179242 0)
(-0.013123 -0.00181488 0)
(-0.01256 -0.00183215 0)
(-0.0119924 -0.00184428 0)
(-0.0114217 -0.00185135 0)
(-0.0108494 -0.00185344 0)
(-0.0102768 -0.00185067 0)
(-0.00970539 -0.00184314 0)
(-0.00913647 -0.00183094 0)
(-0.0085714 -0.00181416 0)
(-0.00801149 -0.00179287 0)
(-0.00745807 -0.00176711 0)
(-0.00691243 -0.00173688 0)
(-0.00637592 -0.00170213 0)
(-0.00584988 -0.00166279 0)
(-0.00533571 -0.00161869 0)
(-0.00483487 -0.00156963 0)
(-0.00434887 -0.00151537 0)
(-0.00387933 -0.00145558 0)
(-0.00342797 -0.00138991 0)
(-0.0029966 -0.00131799 0)
(-0.00258713 -0.00123945 0)
(-0.00220156 -0.00115394 0)
(-0.00184199 -0.00106124 0)
(-0.00151049 -0.000961257 0)
(-0.00120914 -0.000854173 0)
(-0.00093985 -0.000740533 0)
(-0.000704291 -0.000621405 0)
(-0.000503721 -0.000498561 0)
(-0.000338798 -0.000374705 0)
(-0.000209349 -0.000253735 0)
(-0.000114137 -0.00014106 0)
(-5.0579e-05 -4.39554e-05 0)
(-1.45918e-05 2.80424e-05 0)
(2.2587e-07 6.28617e-05 0)
(8.44645e-07 4.43993e-05 0)
(-1.49399e-05 0.000167449 0)
(-0.000136326 0.000501055 0)
(-0.0003441 0.000816708 0)
(-0.000634079 0.00109921 0)
(-0.000986163 0.0013424 0)
(-0.00139086 0.00154494 0)
(-0.00183835 0.00170877 0)
(-0.00232019 0.00183775 0)
(-0.00282915 0.0019366 0)
(-0.00335914 0.00201027 0)
(-0.00390505 0.00206345 0)
(-0.00446271 0.00210035 0)
(-0.00502872 0.0021246 0)
(-0.00560036 0.00213921 0)
(-0.00617551 0.00214659 0)
(-0.00675248 0.00214865 0)
(-0.00732999 0.00214683 0)
(-0.00790702 0.0021422 0)
(-0.00848278 0.00213553 0)
(-0.00905667 0.00212734 0)
(-0.00962815 0.00211797 0)
(-0.0101968 0.00210759 0)
(-0.0107622 0.0020963 0)
(-0.0113241 0.0020841 0)
(-0.011882 0.00207093 0)
(-0.0124356 0.00205672 0)
(-0.0129844 0.00204135 0)
(-0.0135282 0.00202467 0)
(-0.0140664 0.00200656 0)
(-0.0145986 0.00198685 0)
(-0.0151243 0.00196539 0)
(-0.0156429 0.00194201 0)
(-0.0161538 0.00191657 0)
(-0.0166566 0.00188888 0)
(-0.0171504 0.00185879 0)
(-0.0176347 0.00182614 0)
(-0.0181086 0.00179077 0)
(-0.0185715 0.00175251 0)
(-0.0190225 0.00171122 0)
(-0.0194609 0.00166674 0)
(-0.0198857 0.00161894 0)
(-0.0202962 0.00156767 0)
(-0.0206913 0.00151283 0)
(-0.0210702 0.00145429 0)
(-0.0214318 0.00139195 0)
(-0.0217754 0.00132574 0)
(-0.0220998 0.00125559 0)
(-0.0224041 0.00118146 0)
(-0.0226874 0.00110333 0)
(-0.0229487 0.00102119 0)
(-0.023187 0.000935083 0)
(-0.0234014 0.000845063 0)
(-0.0235911 0.000751215 0)
(-0.0237551 0.00065366 0)
(-0.0238927 0.000552546 0)
(-0.024003 0.000448057 0)
(-0.0240855 0.000340411 0)
(-0.0241394 0.000229858 0)
(-0.0241641 0.000116683 0)
(-0.0241593 1.20054e-06 0)
(-0.0241244 -0.00011624 0)
(-0.0240593 -0.000235262 0)
(-0.0239637 -0.000355458 0)
(-0.0238374 -0.000476401 0)
(-0.0236806 -0.000597636 0)
(-0.0234933 -0.000718694 0)
(-0.0232757 -0.00083909 0)
(-0.0230283 -0.000958327 0)
(-0.0227514 -0.0010759 0)
(-0.0224457 -0.00119132 0)
(-0.0221119 -0.00130407 0)
(-0.0217508 -0.00141368 0)
(-0.0213633 -0.00151965 0)
(-0.0209504 -0.00162155 0)
(-0.0205132 -0.00171892 0)
(-0.020053 -0.00181138 0)
(-0.0195711 -0.00189853 0)
(-0.0190687 -0.00198006 0)
(-0.0185474 -0.00205566 0)
(-0.0180086 -0.00212507 0)
(-0.0174539 -0.00218809 0)
(-0.0168848 -0.00224455 0)
(-0.016303 -0.00229433 0)
(-0.01571 -0.00233735 0)
(-0.0151074 -0.00237359 0)
(-0.014497 -0.00240303 0)
(-0.0138801 -0.00242574 0)
(-0.0132586 -0.00244178 0)
(-0.0126339 -0.00245126 0)
(-0.0120075 -0.00245429 0)
(-0.011381 -0.002451 0)
(-0.0107559 -0.00244153 0)
(-0.0101335 -0.002426 0)
(-0.00951537 -0.00240452 0)
(-0.00890284 -0.00237717 0)
(-0.00829732 -0.00234398 0)
(-0.00770022 -0.00230496 0)
(-0.00711295 -0.00226005 0)
(-0.00653695 -0.0022091 0)
(-0.0059737 -0.00215194 0)
(-0.00542475 -0.00208827 0)
(-0.00489171 -0.00201778 0)
(-0.00437632 -0.00194004 0)
(-0.00388037 -0.0018546 0)
(-0.00340579 -0.00176099 0)
(-0.0029546 -0.00165872 0)
(-0.00252892 -0.00154739 0)
(-0.00213093 -0.00142671 0)
(-0.00176282 -0.00129661 0)
(-0.00142676 -0.00115735 0)
(-0.00112473 -0.00100968 0)
(-0.000858508 -0.000854993 0)
(-0.000629407 -0.000695571 0)
(-0.000438172 -0.000534819 0)
(-0.000284743 -0.000377567 0)
(-0.000168048 -0.000230389 0)
(-8.57756e-05 -0.000101964 0)
(-3.41349e-05 -3.4381e-06 0)
(-7.76506e-06 5.12663e-05 0)
(-5.64384e-08 4.41118e-05 0)
(-1.69886e-05 0.00023485 0)
(-0.000154393 0.00067856 0)
(-0.000388161 0.00108402 0)
(-0.000712634 0.00144015 0)
(-0.00110432 0.00174357 0)
(-0.00155225 0.00199509 0)
(-0.00204543 0.00219836 0)
(-0.00257467 0.00235868 0)
(-0.00313225 0.00248205 0)
(-0.00371179 0.00257453 0)
(-0.00430799 0.0026418 0)
(-0.00491652 0.00268894 0)
(-0.00553386 0.00272034 0)
(-0.0061572 0.00273962 0)
(-0.0067843 0.00274973 0)
(-0.00741339 0.002753 0)
(-0.00804308 0.00275119 0)
(-0.00867227 0.00274565 0)
(-0.0093001 0.00273732 0)
(-0.00992585 0.00272686 0)
(-0.0105489 0.00271471 0)
(-0.0111688 0.0027011 0)
(-0.0117851 0.00268617 0)
(-0.0123973 0.00266994 0)
(-0.013005 0.00265234 0)
(-0.0136077 0.00263328 0)
(-0.014205 0.00261264 0)
(-0.0147965 0.00259023 0)
(-0.0153816 0.00256591 0)
(-0.0159598 0.00253946 0)
(-0.0165305 0.00251071 0)
(-0.0170931 0.00247946 0)
(-0.0176471 0.00244551 0)
(-0.0181916 0.00240865 0)
(-0.0187259 0.00236869 0)
(-0.0192495 0.00232542 0)
(-0.0197613 0.00227865 0)
(-0.0202606 0.00222819 0)
(-0.0207466 0.00217385 0)
(-0.0212183 0.00211545 0)
(-0.0216749 0.00205282 0)
(-0.0221153 0.0019858 0)
(-0.0225386 0.00191425 0)
(-0.0229438 0.00183802 0)
(-0.0233299 0.00175702 0)
(-0.0236959 0.00167114 0)
(-0.0240407 0.00158033 0)
(-0.0243633 0.00148454 0)
(-0.0246627 0.00138375 0)
(-0.0249379 0.00127798 0)
(-0.0251879 0.00116729 0)
(-0.0254118 0.00105175 0)
(-0.0256085 0.000931491 0)
(-0.0257773 0.000806675 0)
(-0.0259172 0.000677502 0)
(-0.0260276 0.000544213 0)
(-0.0261077 0.000407093 0)
(-0.0261569 0.000266465 0)
(-0.0261745 0.000122695 0)
(-0.0261602 -2.38127e-05 0)
(-0.0261136 -0.000172616 0)
(-0.0260344 -0.000323236 0)
(-0.0259225 -0.000475162 0)
(-0.0257777 -0.000627853 0)
(-0.0256001 -0.000780745 0)
(-0.02539 -0.000933248 0)
(-0.0251477 -0.00108476 0)
(-0.0248734 -0.00123466 0)
(-0.0245679 -0.00138234 0)
(-0.0242318 -0.00152717 0)
(-0.0238658 -0.00166853 0)
(-0.0234709 -0.00180584 0)
(-0.023048 -0.00193849 0)
(-0.0225984 -0.00206593 0)
(-0.0221232 -0.00218764 0)
(-0.0216237 -0.00230312 0)
(-0.0211014 -0.00241192 0)
(-0.0205577 -0.00251364 0)
(-0.0199941 -0.0026079 0)
(-0.0194123 -0.00269442 0)
(-0.0188139 -0.00277294 0)
(-0.0182006 -0.00284325 0)
(-0.017574 -0.00290523 0)
(-0.0169359 -0.00295879 0)
(-0.016288 -0.00300389 0)
(-0.015632 -0.00304054 0)
(-0.0149697 -0.00306882 0)
(-0.0143026 -0.00308881 0)
(-0.0136324 -0.00310064 0)
(-0.0129607 -0.00310447 0)
(-0.0122892 -0.00310045 0)
(-0.0116194 -0.00308874 0)
(-0.0109527 -0.00306951 0)
(-0.0102907 -0.00304287 0)
(-0.00963488 -0.00300893 0)
(-0.00898665 -0.00296773 0)
(-0.00834747 -0.00291926 0)
(-0.00771882 -0.00286344 0)
(-0.00710219 -0.0028001 0)
(-0.00649913 -0.00272899 0)
(-0.00591124 -0.00264977 0)
(-0.0053402 -0.00256201 0)
(-0.00478778 -0.00246522 0)
(-0.00425586 -0.00235882 0)
(-0.0037464 -0.00224224 0)
(-0.00326151 -0.0021149 0)
(-0.00280334 -0.00197631 0)
(-0.00237414 -0.00182614 0)
(-0.00197616 -0.00166434 0)
(-0.0016116 -0.00149125 0)
(-0.00128253 -0.00130783 0)
(-0.000990732 -0.0011158 0)
(-0.000737624 -0.000917934 0)
(-0.000524031 -0.000718319 0)
(-0.000350029 -0.000522663 0)
(-0.000214753 -0.000338626 0)
(-0.000116196 -0.000176162 0)
(-5.09185e-05 -4.78526e-05 0)
(-1.45638e-05 3.08066e-05 0)
(-8.24682e-07 4.03237e-05 0)
(-1.87449e-05 0.000310139 0)
(-0.000170039 0.000876047 0)
(-0.000426642 0.00138021 0)
(-0.000781669 0.0018162 0)
(-0.00120866 0.0021841 0)
(-0.00169526 0.00248745 0)
(-0.00222934 0.00273207 0)
(-0.00280095 0.00292503 0)
(-0.00340188 0.00307384 0)
(-0.00402545 0.00318581 0)
(-0.00466617 0.00326769 0)
(-0.00531958 0.00332549 0)
(-0.00598207 0.00336435 0)
(-0.00665076 0.00338854 0)
(-0.00732334 0.00340154 0)
(-0.00799798 0.00340609 0)
(-0.00867322 0.0034043 0)
(-0.00934791 0.00339775 0)
(-0.0100211 0.0033876 0)
(-0.010692 0.00337464 0)
(-0.01136 0.00335941 0)
(-0.0120244 0.00334221 0)
(-0.0126849 0.0033232 0)
(-0.0133407 0.00330241 0)
(-0.0139916 0.00327981 0)
(-0.0146369 0.00325527 0)
(-0.0152762 0.00322865 0)
(-0.0159089 0.00319976 0)
(-0.0165345 0.00316839 0)
(-0.0171524 0.00313432 0)
(-0.0177618 0.00309733 0)
(-0.0183623 0.00305719 0)
(-0.018953 0.00301364 0)
(-0.0195333 0.00296646 0)
(-0.0201023 0.00291541 0)
(-0.0206592 0.00286025 0)
(-0.0212032 0.00280074 0)
(-0.0217334 0.00273666 0)
(-0.0222488 0.0026678 0)
(-0.0227485 0.00259393 0)
(-0.0232316 0.00251486 0)
(-0.0236969 0.0024304 0)
(-0.0241435 0.0023404 0)
(-0.0245704 0.00224469 0)
(-0.0249764 0.00214316 0)
(-0.0253604 0.00203571 0)
(-0.0257215 0.00192227 0)
(-0.0260585 0.0018028 0)
(-0.0263704 0.0016773 0)
(-0.0266561 0.0015458 0)
(-0.0269146 0.00140839 0)
(-0.0271449 0.00126517 0)
(-0.0273461 0.00111632 0)
(-0.0275172 0.000962035 0)
(-0.0276575 0.000802585 0)
(-0.0277661 0.000638274 0)
(-0.0278423 0.000469458 0)
(-0.0278855 0.000296543 0)
(-0.0278952 0.00011998 0)
(-0.0278708 -5.97299e-05 0)
(-0.0278121 -0.000242043 0)
(-0.0277189 -0.000426374 0)
(-0.0275909 -0.000612099 0)
(-0.0274282 -0.000798562 0)
(-0.0272309 -0.000985074 0)
(-0.0269992 -0.00117093 0)
(-0.0267335 -0.00135539 0)
(-0.0264343 -0.00153772 0)
(-0.0261023 -0.00171718 0)
(-0.025738 -0.00189302 0)
(-0.0253426 -0.00206451 0)
(-0.0249168 -0.00223093 0)
(-0.0244619 -0.00239158 0)
(-0.023979 -0.00254581 0)
(-0.0234695 -0.00269297 0)
(-0.0229347 -0.0028325 0)
(-0.0223763 -0.00296386 0)
(-0.0217957 -0.00308657 0)
(-0.0211946 -0.00320021 0)
(-0.0205747 -0.00330443 0)
(-0.0199378 -0.00339894 0)
(-0.0192856 -0.00348351 0)
(-0.0186199 -0.00355799 0)
(-0.0179426 -0.00362228 0)
(-0.0172553 -0.00367636 0)
(-0.01656 -0.00372024 0)
(-0.0158585 -0.00375402 0)
(-0.0151524 -0.00377781 0)
(-0.0144435 -0.00379177 0)
(-0.0137335 -0.00379609 0)
(-0.013024 -0.00379097 0)
(-0.0123166 -0.0037766 0)
(-0.011613 -0.00375317 0)
(-0.0109146 -0.00372083 0)
(-0.010223 -0.00367971 0)