/*--------------------------------*- C++ -*----------------------------------*\
| =========                 |                                                 |
| \\      /  F ield         | OpenFOAM: The Open Source CFD Toolbox           |
|  \\    /   O peration     | Version:  2406                                  |
|   \\  /    A nd           | Website:  www.openfoam.com                      |
|    \\/     M anipulation  |                                                 |
\*---------------------------------------------------------------------------*/
FoamFile
{
    version     2.0;
    format      ascii;
    arch        "LSB;label=32;scalar=64";
    class       volVectorField;
    location    "25";
    object      Uold;
}
// * * * * * * * * * * * * * * * * * * * * * * * * * * * * * * * * * * * * * //

dimensions      [0 1 -1 0 0 0 0];

internalField   nonuniform List<vector> 
900
(
(0.000326092 -0.000453516 0)
(0.00281522 -0.000992812 0)
(0.00578316 -0.000871504 0)
(0.00725576 -0.000564968 0)
(0.00782127 -0.000469891 0)
(0.00766469 -0.000613559 0)
(0.00731022 -0.000893827 0)
(0.00665586 -0.00124473 0)
(0.00526977 -0.00208684 0)
(0.00152838 -0.00332576 0)
(-0.0064311 -0.0028483 0)
(-0.0196882 0.00100581 0)
(-0.0380421 0.00624963 0)
(-0.0590301 0.0096934 0)
(-0.0791921 0.0104669 0)
(-0.0959999 0.00940548 0)
(-0.107949 0.00722413 0)
(-0.113859 0.00429879 0)
(-0.113124 0.000880994 0)
(-0.104997 -0.00282296 0)
(-0.0896454 -0.00650652 0)
(-0.0670127 -0.00969999 0)
(-0.0393346 -0.0116324 0)
(-0.00877361 -0.0113336 0)
(0.0180353 -0.00758097 0)
(0.0354616 -0.00107355 0)
(0.0363082 0.0052253 0)
(0.0250964 0.00662706 0)
(0.01221 0.00492768 0)
(0.00176188 0.00218222 0)
(0.000979216 -0.0026788 0)
(0.00511738 -0.00453212 0)
(0.0093374 -0.00354447 0)
(0.010896 -0.00148413 0)
(0.0103125 8.91711e-05 0)
(0.00732273 0.00114155 0)
(0.0015557 0.00193992 0)
(-0.00920909 0.00331598 0)
(-0.027431 0.00729843 0)
(-0.0534958 0.0152711 0)
(-0.0846436 0.0244242 0)
(-0.116014 0.0309615 0)
(-0.143558 0.0333822 0)
(-0.165643 0.0316823 0)
(-0.182125 0.0267199 0)
(-0.19298 0.0195475 0)
(-0.198066 0.010841 0)
(-0.197091 0.00103119 0)
(-0.189843 -0.00954709 0)
(-0.175858 -0.0205753 0)
(-0.155081 -0.0313151 0)
(-0.127343 -0.0407101 0)
(-0.0937711 -0.0465766 0)
(-0.0561109 -0.0464097 0)
(-0.018845 -0.0366294 0)
(0.0121853 -0.0174405 0)
(0.0283751 0.0054387 0)
(0.0259194 0.0172009 0)
(0.0153151 0.0186824 0)
(0.00252486 0.0117912 0)
(0.00145323 -0.00650791 0)
(0.0056418 -0.00939835 0)
(0.00859284 -0.00662103 0)
(0.00761626 -0.00157811 0)
(0.00279054 0.00308121 0)
(-0.00737045 0.00808976 0)
(-0.0251822 0.0156071 0)
(-0.0525262 0.0277659 0)
(-0.087539 0.0421611 0)
(-0.124087 0.053559 0)
(-0.156707 0.0591623 0)
(-0.183324 0.0594774 0)
(-0.20375 0.0554804 0)
(-0.218562 0.047841 0)
(-0.228596 0.0374116 0)
(-0.234374 0.0249783 0)
(-0.236232 0.0110398 0)
(-0.234146 -0.00419607 0)
(-0.22797 -0.0204978 0)
(-0.217152 -0.0377421 0)
(-0.201145 -0.0549801 0)
(-0.179123 -0.071085 0)
(-0.150529 -0.082667 0)
(-0.115627 -0.0863424 0)
(-0.0754363 -0.0754836 0)
(-0.0349995 -0.0482792 0)
(-0.00108219 -0.00813009 0)
(0.0107442 0.0192012 0)
(0.00872948 0.0282892 0)
(0.000609639 0.0196865 0)
(0.0016009 -0.00973481 0)
(0.00399991 -0.0117109 0)
(0.0029877 -0.00546219 0)
(-0.00359466 0.00435346 0)
(-0.0167966 0.0151502 0)
(-0.0388062 0.0292095 0)
(-0.0703219 0.0471991 0)
(-0.107435 0.0656589 0)
(-0.143277 0.0788228 0)
(-0.173351 0.0845781 0)
(-0.196906 0.0838659 0)
(-0.214335 0.078169 0)
(-0.226428 0.0687436 0)
(-0.234249 0.0566368 0)
(-0.238896 0.0426496 0)
(-0.241114 0.0272649 0)
(-0.241432 0.0106789 0)
(-0.23998 -0.00726316 0)
(-0.236767 -0.0265757 0)
(-0.231279 -0.0475902 0)
(-0.22289 -0.0694849 0)
(-0.210241 -0.0916807 0)
(-0.19173 -0.110281 0)
(-0.165575 -0.121938 0)
(-0.129768 -0.117195 0)
(-0.085897 -0.0918299 0)
(-0.0369069 -0.0396244 0)
(-0.00297048 0.00724735 0)
(0.00308437 0.0291767 0)
(-0.000942164 0.0212186 0)
(0.0011737 -0.0121337 0)
(-0.000116951 -0.0108628 0)
(-0.0072444 0.000949222 0)
(-0.0215524 0.0181614 0)
(-0.0444077 0.0382478 0)
(-0.0756335 0.0615299 0)
(-0.111465 0.0841088 0)
(-0.14528 0.10063 0)
(-0.172714 0.107926 0)
(-0.192874 0.106935 0)
(-0.206609 0.0998803 0)
(-0.214919 0.0887926 0)
(-0.219298 0.0752316 0)
(-0.220929 0.06016 0)
(-0.221005 0.0441653 0)
(-0.220198 0.0274099 0)
(-0.219154 0.00987225 0)
(-0.218034 -0.00891394 0)
(-0.217161 -0.0291388 0)
(-0.216173 -0.0516417 0)
(-0.21493 -0.0758953 0)
(-0.211947 -0.102306 0)
(-0.205614 -0.127269 0)
(-0.192519 -0.148489 0)
(-0.168693 -0.155186 0)
(-0.130805 -0.141162 0)
(-0.0778013 -0.0908624 0)
(-0.0200604 -0.0209941 0)
(0.00315836 0.0263794 0)
(-0.00114773 0.0216716 0)
(-0.000260328 -0.0107289 0)
(-0.00715155 -0.00321191 0)
(-0.0215142 0.0160742 0)
(-0.0430646 0.0416431 0)
(-0.0721013 0.0693037 0)
(-0.105073 0.0963412 0)
(-0.136741 0.116867 0)
(-0.16186 0.126907 0)
(-0.179088 0.126449 0)
(-0.189303 0.118607 0)
(-0.194084 0.106073 0)
(-0.194938 0.0910308 0)
(-0.19353 0.0749273 0)
(-0.190924 0.0585057 0)
(-0.188169 0.0420962 0)
(-0.185631 0.0255533 0)
(-0.183834 0.00869754 0)
(-0.182714 -0.00915869 0)
(-0.182812 -0.0282391 0)
(-0.183851 -0.0497815 0)
(-0.186525 -0.0735127 0)
(-0.189723 -0.101052 0)
(-0.192994 -0.129616 0)
(-0.192638 -0.159091 0)
(-0.184254 -0.178961 0)
(-0.161456 -0.183092 0)
(-0.117301 -0.149988 0)
(-0.0534928 -0.0741351 0)
(0.00434019 0.010671 0)
(-0.000657193 0.0231914 0)
(-0.00216948 -0.00481295 0)
(-0.0147569 0.0103831 0)
(-0.0351231 0.0367765 0)
(-0.0607996 0.068723 0)
(-0.0909057 0.100147 0)
(-0.120219 0.126065 0)
(-0.144338 0.140762 0)
(-0.16011 0.14291 0)
(-0.168516 0.135305 0)
(-0.171118 0.121885 0)
(-0.169944 0.105479 0)
(-0.166671 0.0882205 0)
(-0.162894 0.0712192 0)
(-0.159324 0.0547965 0)
(-0.156632 0.038914 0)
(-0.154617 0.0230877 0)
(-0.153488 0.00706195 0)
(-0.152729 -0.00990981 0)
(-0.152938 -0.0278023 0)
(-0.153688 -0.0478994 0)
(-0.156411 -0.0697211 0)
(-0.160406 -0.0958055 0)
(-0.166941 -0.124027 0)
(-0.173175 -0.157209 0)
(-0.176338 -0.18622 0)
(-0.169456 -0.20836 0)
(-0.141815 -0.198491 0)
(-0.0919055 -0.143795 0)
(-0.0111907 -0.0255583 0)
(0.00656885 0.0250438 0)
(-0.00406355 0.00623635 0)
(-0.0212122 0.0299456 0)
(-0.0450961 0.0621494 0)
(-0.0714908 0.0975631 0)
(-0.099156 0.128714 0)
(-0.122495 0.149823 0)
(-0.138809 0.156787 0)
(-0.146843 0.151185 0)
(-0.148918 0.137559 0)
(-0.146838 0.120165 0)
(-0.142944 0.101738 0)
(-0.138791 0.0840749 0)
(-0.135622 0.0676632 0)
(-0.133623 0.0522822 0)
(-0.132927 0.0374451 0)
(-0.132779 0.0223832 0)
(-0.133102 0.00685944 0)
(-0.133016 -0.00981095 0)
(-0.133175 -0.0272008 0)
(-0.132912 -0.046487 0)
(-0.134109 -0.0666384 0)
(-0.136121 -0.0907337 0)
(-0.141603 -0.116605 0)
(-0.148592 -0.149789 0)
(-0.156871 -0.18255 0)
(-0.159928 -0.217304 0)
(-0.148693 -0.228147 0)
(-0.115617 -0.204201 0)
(-0.0453656 -0.0883394 0)
(0.0167573 0.0189097 0)
(-0.0050678 0.0203052 0)
(-0.0245129 0.0514515 0)
(-0.0492578 0.0868518 0)
(-0.0739177 0.122732 0)
(-0.0974766 0.150973 0)
(-0.114694 0.165646 0)
(-0.124673 0.165035 0)
(-0.127397 0.153006 0)
(-0.125974 0.135264 0)
(-0.122138 0.115882 0)
(-0.118394 0.097391 0)
(-0.115785 0.0808479 0)
(-0.115117 0.0660192 0)
(-0.11591 0.0520423 0)
(-0.117857 0.0380722 0)
(-0.119771 0.0231922 0)
(-0.121491 0.007359 0)
(-0.121913 -0.00994399 0)
(-0.12182 -0.0277694 0)
(-0.12027 -0.0471518 0)
(-0.11942 -0.0662826 0)
(-0.118376 -0.0885929 0)
(-0.120755 -0.111245 0)
(-0.125151 -0.142181 0)
(-0.133931 -0.174601 0)
(-0.141523 -0.216339 0)
(-0.141826 -0.243336 0)
(-0.122642 -0.246186 0)
(-0.0742022 -0.160427 0)
(0.0054191 -0.00245401 0)
(-0.00522937 0.0358335 0)
(-0.0249385 0.0743603 0)
(-0.0486038 0.111488 0)
(-0.0702169 0.145892 0)
(-0.0892345 0.169453 0)
(-0.101169 0.17712 0)
(-0.106587 0.169565 0)
(-0.106276 0.152617 0)
(-0.103564 0.132387 0)
(-0.100061 0.112673 0)
(-0.0981052 0.095449 0)
(-0.0981174 0.0808379 0)
(-0.100418 0.0678383 0)
(-0.103957 0.0550168 0)
(-0.108195 0.0413596 0)
(-0.111742 0.0259566 0)
(-0.114552 0.00908506 0)
(-0.115411 -0.00962408 0)
(-0.115291 -0.0286946 0)
(-0.112929 -0.0491428 0)
(-0.110639 -0.0682729 0)
(-0.106957 -0.0897782 0)
(-0.105989 -0.10946 0)
(-0.106221 -0.137016 0)
(-0.112506 -0.165772 0)
(-0.120433 -0.209462 0)
(-0.127594 -0.24674 0)
(-0.120324 -0.271675 0)
(-0.0873953 -0.216879 0)
(-0.0216782 -0.0488083 0)
(-0.00446474 0.0503362 0)
(-0.0225989 0.0948582 0)
(-0.0436557 0.131896 0)
(-0.0616041 0.163305 0)
(-0.0763923 0.181763 0)
(-0.0843486 0.182972 0)
(-0.0870869 0.170087 0)
(-0.0855988 0.149956 0)
(-0.0832446 0.128979 0)
(-0.0813041 0.110352 0)
(-0.0818153 0.0953721 0)
(-0.0844947 0.083069 0)
(-0.0893105 0.0718103 0)
(-0.0947972 0.0597207 0)
(-0.100461 0.0458601 0)
(-0.104854 0.0294273 0)
(-0.108217 0.0111084 0)
(-0.109238 -0.00938922 0)
(-0.109185 -0.0300656 0)
(-0.106427 -0.0521053 0)
(-0.103546 -0.0719335 0)
(-0.0983011 -0.0936971 0)
(-0.0951265 -0.11153 0)
(-0.0914553 -0.136204 0)
(-0.0940873 -0.159902 0)
(-0.0988027 -0.201526 0)
(-0.108191 -0.243031 0)
(-0.107697 -0.286285 0)
(-0.0859047 -0.25934 0)
(-0.0338413 -0.111444 0)
(-0.00318211 0.0629531 0)
(-0.0185572 0.113735 0)
(-0.0363494 0.150421 0)
(-0.0506493 0.178726 0)
(-0.0617796 0.192196 0)
(-0.0669293 0.187967 0)
(-0.0681999 0.17092 0)
(-0.0666704 0.14891 0)
(-0.0653877 0.128177 0)
(-0.0653128 0.111324 0)
(-0.0679639 0.098711 0)
(-0.0725535 0.0883713 0)
(-0.0788394 0.0782202 0)
(-0.08521 0.0661606 0)
(-0.0913959 0.0515228 0)
(-0.095965 0.033638 0)
(-0.0995195 0.0136318 0)
(-0.100573 -0.00883543 0)
(-0.100774 -0.0312419 0)
(-0.0979971 -0.0551135 0)
(-0.0953122 -0.0759961 0)
(-0.0895385 -0.098711 0)
(-0.085728 -0.115765 0)
(-0.0795587 -0.13871 0)
(-0.0795099 -0.157853 0)
(-0.0801022 -0.195869 0)
(-0.0890901 -0.237416 0)
(-0.0909095 -0.293805 0)
(-0.0770228 -0.29163 0)
(-0.0323554 -0.169004 0)
(-0.0014813 0.0720056 0)
(-0.0132656 0.128008 0)
(-0.0272408 0.163799 0)
(-0.038049 0.188658 0)
(-0.0461651 0.197918 0)
(-0.0495014 0.189371 0)
(-0.0503563 0.169762 0)
(-0.0494705 0.147075 0)
(-0.0495444 0.12752 0)
(-0.0510281 0.112815 0)
(-0.0550814 0.102519 0)
(-0.0605598 0.0938134 0)
(-0.0672881 0.084417 0)
(-0.0736141 0.0721312 0)
(-0.0796412 0.0566421 0)
(-0.0838987 0.0373671 0)
(-0.0874258 0.0158527 0)
(-0.0884053 -0.00840527 0)
(-0.0889915 -0.0323556 0)
(-0.0863713 -0.0579784 0)
(-0.0843897 -0.0799348 0)
(-0.0787023 -0.103872 0)
(-0.075506 -0.120894 0)
(-0.0681627 -0.143168 0)
(-0.0669543 -0.158694 0)
(-0.0638145 -0.192603 0)
(-0.0718809 -0.231626 0)
(-0.0744277 -0.298017 0)
(-0.0672862 -0.318108 0)
(-0.0293836 -0.221042 0)
(0.00024314 0.0778077 0)
(-0.00753379 0.139602 0)
(-0.0177196 0.175189 0)
(-0.0253771 0.197732 0)
(-0.0309753 0.203701 0)
(-0.0331376 0.192333 0)
(-0.0338744 0.171019 0)
(-0.0337117 0.148236 0)
(-0.0347513 0.129843 0)
(-0.0371169 0.116947 0)
(-0.0416273 0.108356 0)
(-0.0470348 0.100622 0)
(-0.053337 0.0914149 0)
(-0.0589345 0.0785021 0)
(-0.0643832 0.062001 0)
(-0.068082 0.0413219 0)
(-0.0715732 0.0184213 0)
(-0.0725025 -0.00751136 0)
(-0.073691 -0.0328647 0)
(-0.0713784 -0.0601421 0)
(-0.0705093 -0.0830972 0)
(-0.0652512 -0.108226 0)
(-0.0635933 -0.125589 0)
(-0.0562342 -0.148072 0)
(-0.0555811 -0.161434 0)
(-0.04985 -0.191759 0)
(-0.0570401 -0.226143 0)
(-0.0589251 -0.298265 0)
(-0.0576255 -0.336721 0)
(-0.0258172 -0.265944 0)
(0.0020014 0.0792774 0)
(-0.00161041 0.145863 0)
(-0.00785674 0.181523 0)
(-0.0126341 0.201788 0)
(-0.0161501 0.205581 0)
(-0.0175248 0.192211 0)
(-0.0185027 0.170256 0)
(-0.019031 0.147832 0)
(-0.0207598 0.130812 0)
(-0.0233088 0.119528 0)
(-0.02748 0.112345 0)
(-0.0319618 0.105338 0)
(-0.0371865 0.0962876 0)
(-0.041555 0.0829617 0)
(-0.0461818 0.0658625 0)
(-0.0491376 0.0442739 0)
(-0.0525861 0.0204917 0)
(-0.0534166 -0.00668393 0)
(-0.0553621 -0.0330807 0)
(-0.0534162 -0.0617172 0)
(-0.053993 -0.0854687 0)
(-0.0493109 -0.111521 0)
(-0.0497106 -0.129141 0)
(-0.042974 -0.152069 0)
(-0.0442285 -0.164217 0)
(-0.0373791 -0.192077 0)
(-0.0448192 -0.221731 0)
(-0.0458788 -0.297492 0)
(-0.0496664 -0.350948 0)
(-0.0225728 -0.30485 0)
(0.00341242 0.077571 0)
(0.00402375 0.149488 0)
(0.00148255 0.186278 0)
(-0.0006204 0.206089 0)
(-0.0021951 0.208697 0)
(-0.00289796 0.194861 0)
(-0.00384602 0.172692 0)
(-0.00471208 0.150634 0)
(-0.00647967 0.134281 0)
(-0.00853902 0.123753 0)
(-0.0116969 0.117185 0)
(-0.0147085 0.110358 0)
(-0.0184918 0.101236 0)
(-0.0213471 0.0874547 0)
(-0.0250212 0.0698964 0)
(-0.0270387 0.0475604 0)
(-0.0304246 0.0231279 0)
(-0.0310567 -0.00507069 0)
(-0.0339497 -0.0322885 0)
(-0.0324623 -0.0620538 0)
(-0.0349244 -0.0864696 0)
(-0.0310951 -0.113261 0)
(-0.0340473 -0.13104 0)
(-0.0283751 -0.154489 0)
(-0.0324333 -0.166052 0)
(-0.0254999 -0.19223 0)
(-0.0342079 -0.21672 0)
(-0.034372 -0.293781 0)
(-0.0431153 -0.359544 0)
(-0.0197465 -0.338603 0)
(0.0045938 0.0718502 0)
(0.00918689 0.147575 0)
(0.0104533 0.18611 0)
(0.0108644 0.205272 0)
(0.0110092 0.207784 0)
(0.011002 0.193737 0)
(0.00998401 0.171988 0)
(0.00897851 0.150283 0)
(0.00730594 0.134533 0)
(0.00613271 0.124517 0)
(0.00432358 0.118447 0)
(0.00323861 0.111867 0)
(0.00121843 0.102945 0)
(0.000267041 0.0891693 0)
(-0.00221763 0.0717058 0)
(-0.00296737 0.0492596 0)
(-0.00615827 0.0248286 0)
(-0.00634466 -0.00371442 0)
(-0.0102468 -0.0311572 0)
(-0.00919143 -0.0614594 0)
(-0.0138451 -0.0861196 0)
(-0.0111149 -0.113288 0)
(-0.0170335 -0.130951 0)
(-0.0127412 -0.154732 0)
(-0.0202683 -0.166021 0)
(-0.0141087 -0.191498 0)
(-0.0252354 -0.211755 0)
(-0.0246504 -0.289228 0)
(-0.0381315 -0.364848 0)
(-0.0172225 -0.368207 0)
(0.00506719 0.0639953 0)
(0.01356 0.143599 0)
(0.0183662 0.184752 0)
(0.0213581 0.20559 0)
(0.023442 0.208722 0)
(0.0243544 0.196057 0)
(0.0238155 0.174941 0)
(0.0230314 0.15345 0)
(0.0218875 0.137365 0)
(0.0218712 0.1268 0)
(0.0216181 0.120353 0)
(0.0226339 0.113446 0)
(0.0224378 0.104556 0)
(0.0235455 0.0907725 0)
(0.022265 0.0735911 0)
(0.0229885 0.0512428 0)
(0.0199937 0.0271096 0)
(0.0204673 -0.00141731 0)
(0.015462 -0.0286804 0)
(0.0160899 -0.0590924 0)
(0.0089805 -0.0836355 0)
(0.0103727 -0.110932 0)
(0.0011061 -0.128344 0)
(0.00380167 -0.152338 0)
(-0.00759459 -0.163446 0)
(-0.00259208 -0.188595 0)
(-0.0170549 -0.204881 0)
(-0.0158644 -0.28185 0)
(-0.0343783 -0.365996 0)
(-0.0149224 -0.394509 0)
(0.00504829 0.0532366 0)
(0.0168117 0.133942 0)
(0.0253376 0.178296 0)
(0.0308652 0.19991 0)
(0.0347333 0.204732 0)
(0.036797 0.193143 0)
(0.0366346 0.173245 0)
(0.0362497 0.151939 0)
(0.0354344 0.135615 0)
(0.0365664 0.124453 0)
(0.0376951 0.117666 0)
(0.04092 0.11066 0)
(0.0425714 0.102138 0)
(0.0460209 0.0888829 0)
(0.0460717 0.072522 0)
(0.0486097 0.0509523 0)
(0.0459105 0.0277871 0)
(0.0472979 9.98059e-05 0)
(0.0412531 -0.0261492 0)
(0.0415912 -0.0558492 0)
(0.0320346 -0.0795791 0)
(0.0321003 -0.106472 0)
(0.0193495 -0.123334 0)
(0.0204087 -0.147309 0)
(0.0049107 -0.158299 0)
(0.00859644 -0.183595 0)
(-0.0099182 -0.19696 0)
(-0.00806653 -0.273247 0)
(-0.0318213 -0.364537 0)
(-0.0126186 -0.418159 0)
(0.00394543 0.042408 0)
(0.0187088 0.123272 0)
(0.0305849 0.170933 0)
(0.0389717 0.196273 0)
(0.0452214 0.203018 0)
(0.0489217 0.194317 0)
(0.0499713 0.175799 0)
(0.0503539 0.154772 0)
(0.0501139 0.137406 0)
(0.052264 0.124558 0)
(0.0544826 0.11641 0)
(0.0596567 0.108465 0)
(0.0628423 0.0999544 0)
(0.068557 0.0870374 0)
(0.069714 0.071631 0)
(0.0741016 0.0510213 0)
(0.071538 0.0291989 0)
(0.0738784 0.00269881 0)
(0.0667493 -0.0220411 0)
(0.0669083 -0.0505966 0)
(0.0549262 -0.073056 0)
(0.0537956 -0.0992138 0)
(0.0375421 -0.115354 0)
(0.0371173 -0.139181 0)
(0.0174361 -0.150018 0)
(0.0199268 -0.175475 0)
(-0.00323399 -0.186324 0)
(-0.000623309 -0.261672 0)
(-0.0302409 -0.359801 0)
(-0.010164 -0.439701 0)
(0.00253425 0.0305777 0)
(0.0188344 0.106836 0)
(0.0342211 0.158033 0)
(0.0453512 0.184857 0)
(0.0536284 0.19475 0)
(0.0592813 0.18803 0)
(0.0613703 0.17178 0)
(0.0628881 0.151389 0)
(0.0629828 0.133679 0)
(0.0660482 0.119602 0)
(0.0687895 0.110336 0)
(0.0756639 0.101748 0)
(0.0799479 0.0934511 0)
(0.0879609 0.0813755 0)
(0.090079 0.0673577 0)
(0.0964861 0.048379 0)
(0.0941097 0.0285566 0)
(0.0975972 0.00400907 0)
(0.0895435 -0.0184651 0)
(0.089804 -0.0450662 0)
(0.0756662 -0.0655608 0)
(0.0737572 -0.0903668 0)
(0.054305 -0.10546 0)
(0.0528177 -0.128823 0)
(0.0290783 -0.139454 0)
(0.0306886 -0.165057 0)
(0.0025209 -0.17426 0)
(0.0062849 -0.24858 0)
(-0.0297219 -0.352966 0)
(-0.00733415 -0.459531 0)
(0.000520033 0.0214094 0)
(0.0172748 0.0916176 0)
(0.0352231 0.14475 0)
(0.0494424 0.177014 0)
(0.0608254 0.1894 0)
(0.0691647 0.186736 0)
(0.0736006 0.172617 0)
(0.0768779 0.153244 0)
(0.0777976 0.134764 0)
(0.0816482 0.118691 0)
(0.0843851 0.107388 0)
(0.0922354 0.0970794 0)
(0.0967738 0.088343 0)
(0.106468 0.0765229 0)
(0.109022 0.0639121 0)
(0.117123 0.046466 0)
(0.114707 0.0290287 0)
(0.119298 0.00660565 0)
(0.110295 -0.0131564 0)
(0.110901 -0.0375481 0)
(0.0948024 -0.0557203 0)
(0.0926264 -0.0789558 0)
(0.0702649 -0.0928008 0)
(0.0682622 -0.115491 0)
(0.0405703 -0.125731 0)
(0.0416946 -0.151155 0)
(0.00813312 -0.159085 0)
(0.0134914 -0.232211 0)
(-0.0298881 -0.343434 0)
(-0.00382097 -0.477888 0)
(-9.51595e-05 0.0127207 0)
(0.0143363 0.0714897 0)
(0.0342015 0.125866 0)
(0.0508124 0.158614 0)
(0.0640179 0.175021 0)
(0.075302 0.174674 0)
(0.0817263 0.164089 0)
(0.0876708 0.146604 0)
(0.0896883 0.128979 0)
(0.0949621 0.112342 0)
(0.097439 0.099926 0)
(0.106148 0.0886008 0)
(0.110157 0.0795519 0)
(0.121151 0.0682882 0)
(0.123528 0.057197 0)
(0.133219 0.0417644 0)
(0.130526 0.0270194 0)
(0.136479 0.00737324 0)
(0.126651 -0.0092842 0)
(0.128188 -0.0308103 0)
(0.110573 -0.0462933 0)
(0.108954 -0.0673931 0)
(0.08425 -0.0797291 0)
(0.0824603 -0.101225 0)
(0.0510732 -0.110852 0)
(0.052129 -0.135603 0)
(0.0129557 -0.143044 0)
(0.0204524 -0.214424 0)
(-0.0310251 -0.332396 0)
(0.000622034 -0.494867 0)
(-0.00117646 0.00757139 0)
(0.0100806 0.0575795 0)
(0.0293125 0.108701 0)
(0.0483872 0.147541 0)
(0.0653602 0.165316 0)
(0.0804225 0.169227 0)
(0.090652 0.160815 0)
(0.100129 0.1453 0)
(0.104291 0.128199 0)
(0.111474 0.110763 0)
(0.113873 0.097027 0)
(0.123009 0.0839876 0)
(0.125876 0.0742497 0)
(0.137115 0.0626098 0)
(0.13851 0.0528522 0)
(0.148955 0.0387891 0)
(0.145503 0.0268948 0)
(0.152569 0.00967209 0)
(0.141841 -0.0035702 0)
(0.144621 -0.0224579 0)
(0.12568 -0.0349147 0)
(0.12526 -0.0539279 0)
(0.0983541 -0.0642498 0)
(0.0973498 -0.084147 0)
(0.0621195 -0.0924885 0)
(0.0635975 -0.115897 0)
(0.0184808 -0.123183 0)
(0.0290711 -0.192441 0)
(-0.0317594 -0.318954 0)
(0.0067787 -0.510152 0)
(0.000884832 0.00367359 0)
(0.00728277 0.0401621 0)
(0.0230212 0.0875264 0)
(0.0422988 0.121567 0)
(0.0590022 0.142976 0)
(0.0780036 0.148469 0)
(0.0911165 0.144481 0)
(0.105747 0.13213 0)
(0.112949 0.117858 0)
(0.124043 0.101874 0)
(0.127369 0.0887356 0)
(0.138341 0.0756191 0)
(0.140123 0.0659225 0)
(0.152178 0.0546012 0)
(0.15178 0.0459617 0)
(0.163274 0.0336445 0)
(0.158135 0.0241298 0)
(0.166848 0.00979295 0)
(0.154654 -0.000470405 0)
(0.159539 -0.0161166 0)
(0.139118 -0.0258356 0)
(0.140847 -0.0419601 0)
(0.111797 -0.0502901 0)
(0.112292 -0.0676544 0)
(0.0732762 -0.0747186 0)
(0.0754794 -0.0960806 0)
(0.0243696 -0.10455 0)
(0.0381766 -0.170357 0)
(-0.0323194 -0.304949 0)
(0.0150783 -0.522836 0)
(-0.00240822 -0.00053075 0)
(-0.000281956 0.036305 0)
(0.0112586 0.0740306 0)
(0.0307019 0.112464 0)
(0.0517784 0.130088 0)
(0.0747337 0.137497 0)
(0.0926627 0.133823 0)
(0.112519 0.12342 0)
(0.123617 0.110883 0)
(0.139168 0.0960148 0)
(0.14434 0.0838374 0)
(0.157758 0.0707072 0)
(0.159222 0.0616092 0)
(0.172147 0.0502692 0)
(0.170259 0.043043 0)
(0.182256 0.0316088 0)
(0.175473 0.0247391 0)
(0.185137 0.0121649 0)
(0.171452 0.0053811 0)
(0.177915 -0.00814488 0)
(0.155771 -0.0141913 0)
(0.159394 -0.0281864 0)
(0.127454 -0.0329764 0)
(0.129744 -0.0478137 0)
(0.0858353 -0.0517387 0)
(0.0905257 -0.0704608 0)
(0.0328999 -0.0798277 0)
(0.0533136 -0.1416 0)
(-0.0270517 -0.287739 0)
(0.0279677 -0.530896 0)
(0.00484925 0.0068196 0)
(0.00299534 0.025251 0)
(-0.0026881 0.0566841 0)
(0.0131455 0.0793157 0)
(0.0288517 0.0988311 0)
(0.0573323 0.106128 0)
(0.0782202 0.106833 0)
(0.106015 0.0999967 0)
(0.12155 0.0916101 0)
(0.144283 0.0800053 0)
(0.152399 0.0706973 0)
(0.17108 0.0595206 0)
(0.172944 0.0521808 0)
(0.189435 0.0422777 0)
(0.185757 0.0365854 0)
(0.200675 0.0270781 0)
(0.190779 0.0220827 0)
(0.203722 0.0123474 0)
(0.186227 0.00772211 0)
(0.196799 -0.00214257 0)
(0.170371 -0.00612828 0)
(0.178926 -0.0158422 0)
(0.142317 -0.0190608 0)
(0.150282 -0.0292646 0)
(0.10171 -0.033057 0)
(0.112818 -0.0485032 0)
(0.0498117 -0.0629894 0)
(0.0756809 -0.119724 0)
(-0.013528 -0.272356 0)
(0.0466485 -0.528289 0)
(-0.0198856 -0.0105082 0)
(-0.0197238 0.0459668 0)
(-0.0123805 0.0637483 0)
(-0.00562735 0.0832802 0)
(0.0168508 0.0866318 0)
(0.0465693 0.0890689 0)
(0.0715849 0.0861485 0)
(0.103754 0.0800467 0)
(0.123059 0.0738773 0)
(0.150644 0.0646762 0)
(0.161292 0.058459 0)
(0.184184 0.049484 0)
(0.186708 0.0447778 0)
(0.206569 0.0366475 0)
(0.201812 0.0334421 0)
(0.219761 0.0256147 0)
(0.207643 0.0235161 0)
(0.224096 0.0154914 0)
(0.203778 0.0144498 0)
(0.219197 0.00609756 0)
(0.189469 0.00639359 0)
(0.205124 -0.00229966 0)
(0.164238 -0.000627066 0)
(0.182722 -0.0101417 0)
(0.127635 -0.00882465 0)
(0.153715 -0.0226765 0)
(0.0807378 -0.0344478 0)
(0.12446 -0.0853921 0)
(0.0333548 -0.241844 0)
(0.0826092 -0.503089 0)
(-0.0813191 0.0527137 0)
(-0.0775468 0.0149085 0)
(-0.10393 0.0428465 0)
(-0.0648823 0.0461415 0)
(-0.047331 0.0459135 0)
(-0.000891255 0.0490156 0)
(0.0262948 0.049647 0)
(0.0707811 0.0469246 0)
(0.0922861 0.0451862 0)
(0.132401 0.0403099 0)
(0.143478 0.0377898 0)
(0.180184 0.0325654 0)
(0.180723 0.0304934 0)
(0.21607 0.0255374 0)
(0.206674 0.0241628 0)
(0.242519 0.0195091 0)
(0.223059 0.0186252 0)
(0.260974 0.0143321 0)
(0.230559 0.0136491 0)
(0.272325 0.0100537 0)
(0.229645 0.00915768 0)
(0.277661 0.00681055 0)
(0.221194 0.00477769 0)
(0.278361 0.00367989 0)
(0.206534 -0.00236052 0)
(0.275106 -0.00803413 0)
(0.186464 -0.0326727 0)
(0.261913 -0.0853362 0)
(0.142599 -0.22497 0)
(0.139367 -0.433391 0)
(0.0799704 0.135255 0)
(0.119503 0.0739584 0)
(0.160405 0.0515084 0)
(0.215219 0.0313188 0)
(0.235653 0.0239438 0)
(0.284499 0.0171237 0)
(0.300065 0.0156297 0)
(0.350175 0.0139949 0)
(0.359739 0.0135701 0)
(0.409744 0.0127755 0)
(0.411593 0.0122112 0)
(0.460732 0.0113556 0)
(0.454156 0.0106073 0)
(0.502902 0.00971871 0)
(0.487914 0.00889728 0)
(0.537151 0.00807499 0)
(0.513828 0.00724855 0)
(0.564414 0.00650088 0)
(0.532756 0.00576767 0)
(0.585505 0.00495663 0)
(0.545524 0.00455917 0)
(0.601235 0.00322865 0)
(0.552847 0.00366241 0)
(0.611939 0.000522281 0)
(0.553514 0.00231746 0)
(0.613538 -0.00682429 0)
(0.532755 -0.00609211 0)
(0.572401 -0.0390313 0)
(0.395884 -0.0641704 0)
(0.2919 -0.197605 0)
)
;

boundaryField
{
    movingWall
    {
        type            fixedValue;
        value           uniform (1 0 0);
    }
    fixedWalls
    {
        type            noSlip;
    }
    frontAndBack
    {
        type            empty;
    }
}


// ************************************************************************* //
