/*--------------------------------*- C++ -*----------------------------------*\
| =========                 |                                                 |
| \\      /  F ield         | OpenFOAM: The Open Source CFD Toolbox           |
|  \\    /   O peration     | Version:  2406                                  |
|   \\  /    A nd           | Website:  www.openfoam.com                      |
|    \\/     M anipulation  |                                                 |
\*---------------------------------------------------------------------------*/
FoamFile
{
    version     2.0;
    format      ascii;
    arch        "LSB;label=32;scalar=64";
    class       volVectorField;
    location    "38.15";
    object      U;
}
// * * * * * * * * * * * * * * * * * * * * * * * * * * * * * * * * * * * * * //

dimensions      [0 1 -1 0 0 0 0];

internalField   nonuniform List<vector> 
14400
(
(-1.76264e-05 1.7574e-05 0)
(-6.82059e-07 -1.13408e-05 0)
(0.000108367 -4.27339e-05 0)
(0.000295335 -7.05344e-05 0)
(0.000548964 -8.70367e-05 0)
(0.00083614 -9.62063e-05 0)
(0.00114208 -9.71052e-05 0)
(0.00144101 -9.27601e-05 0)
(0.00172239 -8.36776e-05 0)
(0.00197132 -7.21581e-05 0)
(0.00218403 -5.91796e-05 0)
(0.00235584 -4.64033e-05 0)
(0.00248942 -3.46278e-05 0)
(0.00258738 -2.47625e-05 0)
(0.00265619 -1.70968e-05 0)
(0.0027017 -1.18141e-05 0)
(0.00273083 -8.67997e-06 0)
(0.0027489 -7.34145e-06 0)
(0.00276044 -7.22239e-06 0)
(0.00276783 -7.71641e-06 0)
(0.0027718 -8.17518e-06 0)
(0.00277102 -8.03285e-06 0)
(0.00276268 -6.81309e-06 0)
(0.00274255 -4.18413e-06 0)
(0.00270554 6.25215e-08 0)
(0.00264599 6.0212e-06 0)
(0.00255796 1.37213e-05 0)
(0.00243537 2.31623e-05 0)
(0.0022721 3.43536e-05 0)
(0.00206192 4.73305e-05 0)
(0.0017985 6.21603e-05 0)
(0.00147532 7.89293e-05 0)
(0.00108568 9.77267e-05 0)
(0.000622788 0.000118623 0)
(7.98708e-05 0.000141653 0)
(-0.000549683 0.000166803 0)
(-0.0012721 0.000193999 0)
(-0.00209301 0.000223102 0)
(-0.00301721 0.000253901 0)
(-0.00404836 0.000286111 0)
(-0.00518884 0.000319374 0)
(-0.00643938 0.000353254 0)
(-0.00779894 0.000387246 0)
(-0.00926445 0.000420781 0)
(-0.0108307 0.00045323 0)
(-0.0124901 0.00048392 0)
(-0.0142329 0.000512142 0)
(-0.0160467 0.000537167 0)
(-0.017917 0.000558256 0)
(-0.0198269 0.000574672 0)
(-0.0217576 0.000585697 0)
(-0.0236879 0.000590637 0)
(-0.0255954 0.000588833 0)
(-0.027456 0.000579673 0)
(-0.0292441 0.000562597 0)
(-0.0309337 0.000537116 0)
(-0.0324979 0.000502816 0)
(-0.0339096 0.000459384 0)
(-0.0351419 0.00040662 0)
(-0.0361685 0.000344468 0)
(-0.0369643 0.000273039 0)
(-0.0375053 0.000192639 0)
(-0.0377701 0.000103802 0)
(-0.0377396 7.31508e-06 0)
(-0.0373981 -9.57526e-05 0)
(-0.0367339 -0.000204035 0)
(-0.0357397 -0.000315856 0)
(-0.0344137 -0.000429239 0)
(-0.0327594 -0.000541922 0)
(-0.030787 -0.000651399 0)
(-0.0285131 -0.000754981 0)
(-0.0259614 -0.000849874 0)
(-0.0231622 -0.000933288 0)
(-0.0201528 -0.00100255 0)
(-0.0169763 -0.00105524 0)
(-0.0136815 -0.00108933 0)
(-0.0103213 -0.0011033 0)
(-0.00695153 -0.00109629 0)
(-0.00362951 -0.00106814 0)
(-0.000412016 -0.00101951 0)
(0.0026464 -0.000951815 0)
(0.00549535 -0.000867238 0)
(0.00809032 -0.000768611 0)
(0.0103942 -0.000659289 0)
(0.0123787 -0.000542963 0)
(0.0140248 -0.000423469 0)
(0.0153235 -0.000304578 0)
(0.0162756 -0.000189798 0)
(0.0168914 -8.22124e-05 0)
(0.0171894 1.56532e-05 0)
(0.0171952 0.000101911 0)
(0.0169401 0.000175339 0)
(0.0164595 0.000235367 0)
(0.0157909 0.000282019 0)
(0.0149724 0.000315831 0)
(0.0140414 0.000337744 0)
(0.0130334 0.000349004 0)
(0.0119805 0.000351042 0)
(0.0109113 0.000345392 0)
(0.00985011 0.000333582 0)
(0.00881672 0.000317097 0)
(0.00782684 0.00029728 0)
(0.00689184 0.000275361 0)
(0.00601966 0.000252353 0)
(0.00521456 0.00022916 0)
(0.00447854 0.000206439 0)
(0.00381057 0.00018481 0)
(0.00320874 0.000164606 0)
(0.00266842 0.000146253 0)
(0.00218582 0.000129743 0)
(0.00175433 0.00011533 0)
(0.00137063 0.00010247 0)
(0.00102826 9.11693e-05 0)
(0.000727695 7.9898e-05 0)
(0.000465781 6.83991e-05 0)
(0.000250677 5.36482e-05 0)
(8.54981e-05 3.61047e-05 0)
(-1.51211e-05 1.22165e-05 0)
(-4.74592e-05 -9.74938e-06 0)
(-2.2694e-05 -2.22295e-05 0)
(1.01322e-05 1.35499e-06 0)
(0.000152129 -0.000155326 0)
(0.000484439 -0.000314392 0)
(0.000967583 -0.000454795 0)
(0.00158612 -0.000547056 0)
(0.00227695 -0.000599215 0)
(0.00300718 -0.00060842 0)
(0.00372402 -0.000585189 0)
(0.00440029 -0.000534456 0)
(0.00500359 -0.000466546 0)
(0.00552124 -0.000388463 0)
(0.00594177 -0.000308585 0)
(0.00626718 -0.000232499 0)
(0.00650155 -0.000165125 0)
(0.00665622 -0.000108876 0)
(0.00674253 -6.48316e-05 0)
(0.0067736 -3.2113e-05 0)
(0.00675984 -8.71677e-06 0)
(0.00670952 8.48999e-06 0)
(0.00662645 2.30931e-05 0)
(0.00651046 3.8886e-05 0)
(0.00635679 5.93638e-05 0)
(0.00615696 8.75177e-05 0)
(0.00589912 0.000125609 0)
(0.00556916 0.000175188 0)
(0.00515127 0.00023716 0)
(0.00462878 0.00031199 0)
(0.00398447 0.000399889 0)
(0.00320098 0.000500989 0)
(0.00226083 0.000615436 0)
(0.00114657 0.000743404 0)
(-0.000159098 0.000885035 0)
(-0.00167307 0.00104034 0)
(-0.00341153 0.0012091 0)
(-0.00538946 0.00139074 0)
(-0.00762004 0.00158428 0)
(-0.0101141 0.00178828 0)
(-0.0128793 0.00200076 0)
(-0.0159197 0.00221928 0)
(-0.019235 0.00244087 0)
(-0.0228198 0.00266209 0)
(-0.0266636 0.0028791 0)
(-0.03075 0.00308768 0)
(-0.0350568 0.00328338 0)
(-0.0395559 0.00346157 0)
(-0.0442135 0.00361756 0)
(-0.0489904 0.00374675 0)
(-0.0538424 0.00384471 0)
(-0.0587211 0.00390726 0)
(-0.0635746 0.00393061 0)
(-0.0683482 0.00391143 0)
(-0.0729854 0.00384687 0)
(-0.0774287 0.00373466 0)
(-0.0816205 0.00357312 0)
(-0.0855038 0.0033612 0)
(-0.0890234 0.00309853 0)
(-0.0921259 0.00278538 0)
(-0.0947615 0.00242276 0)
(-0.0968835 0.0020124 0)
(-0.0984499 0.00155681 0)
(-0.0994232 0.00105931 0)
(-0.0997717 0.00052407 0)
(-0.0994695 -4.38285e-05 0)
(-0.0984977 -0.000638374 0)
(-0.0968443 -0.00125258 0)
(-0.0945054 -0.00187851 0)
(-0.0914853 -0.00250724 0)
(-0.0877972 -0.00312899 0)
(-0.0834636 -0.00373319 0)
(-0.0785169 -0.00430864 0)
(-0.072999 -0.00484378 0)
(-0.0669621 -0.00532692 0)
(-0.0604678 -0.00574662 0)
(-0.0535874 -0.00609209 0)
(-0.0464003 -0.00635362 0)
(-0.0389939 -0.00652302 0)
(-0.0314616 -0.0065941 0)
(-0.0239015 -0.00656304 0)
(-0.0164142 -0.00642879 0)
(-0.00910067 -0.00619326 0)
(-0.00205981 -0.00586144 0)
(0.00461399 -0.00544138 0)
(0.0108335 -0.004944 0)
(0.0165209 -0.00438267 0)
(0.0216104 -0.00377278 0)
(0.0260497 -0.00313103 0)
(0.0298016 -0.0024748 0)
(0.0328453 -0.00182134 0)
(0.0351764 -0.00118704 0)
(0.0368068 -0.0005868 0)
(0.037764 -3.34091e-05 0)
(0.0380896 0.000462868 0)
(0.0378373 0.000894579 0)
(0.0370708 0.00125719 0)
(0.0358606 0.00154902 0)
(0.0342815 0.00177106 0)
(0.0324098 0.00192664 0)
(0.0303201 0.00202097 0)
(0.0280832 0.00206071 0)
(0.0257643 0.00205343 0)
(0.0234206 0.00200718 0)
(0.0211015 0.00192999 0)
(0.0188471 0.00182963 0)
(0.016689 0.00171317 0)
(0.0146498 0.00158707 0)
(0.0127454 0.00145668 0)
(0.0109834 0.00132676 0)
(0.00936729 0.00120075 0)
(0.00789385 0.00108171 0)
(0.00655915 0.000970904 0)
(0.00535349 0.000869574 0)
(0.0042716 0.000776021 0)
(0.00330294 0.000689228 0)
(0.0024485 0.000603147 0)
(0.00170318 0.000514981 0)
(0.00108143 0.000413892 0)
(0.000586084 0.000300979 0)
(0.000241865 0.000166758 0)
(4.46961e-05 4.20617e-05 0)
(-9.9491e-06 -4.7421e-05 0)
(3.87305e-05 -0.000102618 0)
(0.000301776 -0.000484756 0)
(0.000837353 -0.000854048 0)
(0.00156426 -0.00117083 0)
(0.00246555 -0.00138586 0)
(0.00345465 -0.00150522 0)
(0.00448934 -0.00152606 0)
(0.00549923 -0.001467 0)
(0.00644709 -0.00134172 0)
(0.007289 -0.00117206 0)
(0.00800595 -0.000975791 0)
(0.00858108 -0.000771765 0)
(0.00901456 -0.000574067 0)
(0.00930985 -0.000394134 0)
(0.00947951 -0.000238311 0)
(0.00953649 -0.000109158 0)
(0.00949576 -4.89948e-06 0)
(0.00936877 7.93249e-05 0)
(0.0091638 0.000150994 0)
(0.00888303 0.000218924 0)
(0.00852302 0.000292419 0)
(0.0080739 0.000380211 0)
(0.00752053 0.000489821 0)
(0.00684306 0.000627078 0)
(0.00601833 0.00079607 0)
(0.00502079 0.000999307 0)
(0.00382366 0.00123812 0)
(0.00239951 0.00151309 0)
(0.000720947 0.00182439 0)
(-0.00123908 0.00217196 0)
(-0.00350678 0.00255553 0)
(-0.00610705 0.00297444 0)
(-0.0090628 0.00342742 0)
(-0.0123942 0.0039123 0)
(-0.0161175 0.00442584 0)
(-0.0202443 0.0049635 0)
(-0.0247804 0.00551942 0)
(-0.0297246 0.00608636 0)
(-0.0350679 0.00665581 0)
(-0.0407931 0.00721805 0)
(-0.0468739 0.0077624 0)
(-0.0532749 0.00827745 0)
(-0.059952 0.00875135 0)
(-0.0668527 0.00917215 0)
(-0.0739169 0.00952813 0)
(-0.0810781 0.00980819 0)
(-0.0882648 0.0100021 0)
(-0.0954017 0.0101009 0)
(-0.102411 0.0100968 0)
(-0.109216 0.00998392 0)
(-0.115739 0.00975777 0)
(-0.121905 0.00941567 0)
(-0.127643 0.00895655 0)
(-0.132886 0.00838101 0)
(-0.13757 0.00769114 0)
(-0.14164 0.00689051 0)
(-0.145044 0.00598404 0)
(-0.147738 0.00497796 0)
(-0.149683 0.00387972 0)
(-0.150848 0.00269804 0)
(-0.151206 0.00144285 0)
(-0.15074 0.000125335 0)
(-0.149438 -0.001242 0)
(-0.147294 -0.00264531 0)
(-0.144311 -0.00406941 0)
(-0.140499 -0.00549769 0)
(-0.135874 -0.00691224 0)
(-0.130463 -0.00829386 0)
(-0.124299 -0.0096223 0)
(-0.117424 -0.0108764 0)
(-0.109889 -0.0120347 0)
(-0.101754 -0.0130754 0)
(-0.0930881 -0.0139775 0)
(-0.0839686 -0.014721 0)
(-0.0744813 -0.0152877 0)
(-0.0647197 -0.0156622 0)
(-0.0547836 -0.0158325 0)
(-0.0447785 -0.0157903 0)
(-0.0348136 -0.0155327 0)
(-0.0249999 -0.0150614 0)
(-0.0154485 -0.0143842 0)
(-0.00626776 -0.0135141 0)
(0.00243854 -0.0124697 0)
(0.0105739 -0.0112747 0)
(0.0180514 -0.0099571 0)
(0.0247959 -0.00854816 0)
(0.030746 -0.00708157 0)
(0.0358555 -0.00559209 0)
(0.0400951 -0.00411428 0)
(0.0434529 -0.00268124 0)
(0.0459346 -0.00132339 0)
(0.0475638 -6.73788e-05 0)
(0.0483806 0.00106478 0)
(0.0484407 0.0020564 0)
(0.047813 0.00289654 0)
(0.0465774 0.00358008 0)
(0.0448215 0.00410759 0)
(0.0426376 0.00448481 0)
(0.0401191 0.00472194 0)
(0.0373574 0.00483272 0)
(0.0344386 0.00483344 0)
(0.0314413 0.00474179 0)
(0.0284343 0.00457601 0)
(0.0254762 0.00435377 0)
(0.0226136 0.00409186 0)
(0.019883 0.00380518 0)
(0.017309 0.00350703 0)
(0.0149084 0.00320806 0)
(0.0126875 0.00291716 0)
(0.0106497 0.00263965 0)
(0.00878913 0.00237922 0)
(0.00710385 0.00213406 0)
(0.00558363 0.00190156 0)
(0.00423218 0.00167066 0)
(0.00304277 0.00143378 0)
(0.00203496 0.00117185 0)
(0.0012075 0.000884459 0)
(0.000596829 0.000559024 0)
(0.000190175 0.000246365 0)
(1.63737e-05 -9.13646e-06 0)
(6.36834e-05 -0.000277842 0)
(0.000434922 -0.000958128 0)
(0.00114536 -0.00157859 0)
(0.00206855 -0.00209133 0)
(0.00318511 -0.00243834 0)
(0.0043877 -0.00262396 0)
(0.00562996 -0.00264745 0)
(0.00682912 -0.00253557 0)
(0.00794306 -0.00231216 0)
(0.00892028 -0.00201156 0)
(0.00973824 -0.00166378 0)
(0.010376 -0.00129931 0)
(0.0108321 -0.000941798 0)
(0.0111079 -0.00060996 0)
(0.0112153 -0.000314474 0)
(0.0111657 -5.93942e-05 0)
(0.0109727 0.000158338 0)
(0.0106454 0.000347176 0)
(0.0101886 0.000519957 0)
(0.0096001 0.000691894 0)
(0.0088705 0.000879017 0)
(0.00798296 0.00109642 0)
(0.00691439 0.00135713 0)
(0.00563619 0.00167127 0)
(0.00411607 0.00204596 0)
(0.00231919 0.00248555 0)
(0.000209581 0.00299223 0)
(-0.00224884 0.00356661 0)
(-0.00509132 0.00420826 0)
(-0.00835146 0.00491591 0)
(-0.0120602 0.00568733 0)
(-0.0162447 0.0065191 0)
(-0.0209273 0.00740611 0)
(-0.0261237 0.00834123 0)
(-0.0318419 0.00931499 0)
(-0.0380807 0.0103154 0)
(-0.0448281 0.0113281 0)
(-0.0520609 0.0123363 0)
(-0.0597438 0.0133213 0)
(-0.0678294 0.0142629 0)
(-0.0762588 0.0151401 0)
(-0.0849621 0.0159316 0)
(-0.0938608 0.0166165 0)
(-0.102869 0.0171755 0)
(-0.111896 0.0175907 0)
(-0.120847 0.017847 0)
(-0.12963 0.0179319 0)
(-0.138153 0.0178361 0)
(-0.146327 0.0175536 0)
(-0.15407 0.0170814 0)
(-0.161306 0.0164195 0)
(-0.167966 0.0155708 0)
(-0.173989 0.0145404 0)
(-0.179322 0.0133357 0)
(-0.183919 0.0119656 0)
(-0.187741 0.0104406 0)
(-0.190757 0.00877249 0)
(-0.192941 0.00697415 0)
(-0.194274 0.00505946 0)
(-0.194742 0.0030433 0)
(-0.194336 0.00094159 0)
(-0.193051 -0.00122864 0)
(-0.190888 -0.0034491 0)
(-0.187852 -0.00570017 0)
(-0.183953 -0.00796074 0)
(-0.179206 -0.0102081 0)
(-0.173631 -0.012418 0)
(-0.167254 -0.0145645 0)
(-0.160108 -0.0166204 0)
(-0.152231 -0.0185571 0)
(-0.14367 -0.0203453 0)
(-0.134478 -0.0219555 0)
(-0.124719 -0.0233585 0)
(-0.114461 -0.0245264 0)
(-0.103784 -0.0254333 0)
(-0.0927738 -0.0260567 0)
(-0.0815247 -0.0263782 0)
(-0.0701368 -0.0263847 0)
(-0.0587157 -0.0260692 0)
(-0.0473708 -0.0254319 0)
(-0.0362132 -0.0244801 0)
(-0.0253539 -0.0232292 0)
(-0.0149016 -0.0217022 0)
(-0.00496019 -0.0199291 0)
(0.00437306 -0.0179467 0)
(0.0130099 -0.0157971 0)
(0.020873 -0.0135265 0)
(0.0278974 -0.0111839 0)
(0.0340324 -0.00881944 0)
(0.0392425 -0.00648264 0)
(0.0435081 -0.00422101 0)
(0.0468267 -0.00207845 0)
(0.0492127 -9.38427e-05 0)
(0.0506974 0.00170015 0)
(0.0513285 0.00327812 0)
(0.0511686 0.00462262 0)
(0.0502937 0.00572461 0)
(0.0487908 0.00658334 0)
(0.0467545 0.00720603 0)
(0.0442839 0.00760693 0)
(0.0414786 0.0078062 0)
(0.0384358 0.00782832 0)
(0.0352461 0.00770065 0)
(0.0319918 0.00745163 0)
(0.0287438 0.00710963 0)
(0.0255619 0.00670132 0)
(0.0224923 0.0062513 0)
(0.0195711 0.00578043 0)
(0.0168207 0.00530647 0)
(0.014258 0.00484156 0)
(0.0118872 0.00439427 0)
(0.00971515 0.00396483 0)
(0.00773601 0.00355057 0)
(0.00595946 0.00313708 0)
(0.00437813 0.00271247 0)
(0.00301786 0.00225078 0)
(0.00187202 0.00174797 0)
(0.000991941 0.00118728 0)
(0.000358219 0.000625881 0)
(4.77015e-05 0.000113627 0)
(7.93867e-05 -0.000517023 0)
(0.000531929 -0.00157018 0)
(0.00138105 -0.00248643 0)
(0.00245836 -0.00321651 0)
(0.00373849 -0.0037022 0)
(0.00509294 -0.00394762 0)
(0.00647138 -0.00395755 0)
(0.00778051 -0.00376801 0)
(0.00897565 -0.00341527 0)
(0.0100002 -0.00294751 0)
(0.0108303 -0.00240859 0)
(0.0114426 -0.0018416 0)
(0.0118344 -0.00128065 0)
(0.0120055 -0.000751961 0)
(0.0119656 -0.000270531 0)
(0.0117234 0.000158606 0)
(0.0112887 0.00054061 0)
(0.0106656 0.000888653 0)
(0.00985302 0.0012222 0)
(0.00884114 0.00156418 0)
(0.00761253 0.00193855 0)
(0.00614135 0.00236775 0)
(0.0043952 0.00287099 0)
(0.00233616 0.00346306 0)
(-7.70623e-05 0.00415412 0)
(-0.0028876 0.00495 0)
(-0.00613866 0.00585304 0)
(-0.0098721 0.0068628 0)
(-0.014127 0.00797665 0)
(-0.018938 0.0091899 0)
(-0.024334 0.0104956 0)
(-0.0303362 0.011884 0)
(-0.0369559 0.013342 0)
(-0.0441931 0.014853 0)
(-0.0520348 0.0163964 0)
(-0.0604534 0.0179478 0)
(-0.0694063 0.0194793 0)
(-0.0788358 0.0209606 0)
(-0.0886701 0.0223597 0)
(-0.0988245 0.0236438 0)
(-0.109204 0.0247809 0)
(-0.119706 0.0257409 0)
(-0.130223 0.026497 0)
(-0.140649 0.027026 0)
(-0.150877 0.0273097 0)
(-0.160807 0.0273349 0)
(-0.170345 0.0270937 0)
(-0.179407 0.026583 0)
(-0.187918 0.0258044 0)
(-0.195814 0.0247636 0)
(-0.20304 0.0234694 0)
(-0.20955 0.0219335 0)
(-0.215309 0.0201694 0)
(-0.220285 0.0181923 0)
(-0.224458 0.0160185 0)
(-0.227809 0.0136646 0)
(-0.230327 0.0111482 0)
(-0.232001 0.00848692 0)
(-0.232827 0.00569908 0)
(-0.2328 0.00280339 0)
(-0.231919 -0.000180692 0)
(-0.230184 -0.00323274 0)
(-0.2276 -0.00633111 0)
(-0.224169 -0.00945266 0)
(-0.219899 -0.0125725 0)
(-0.214801 -0.0156637 0)
(-0.208887 -0.0186973 0)
(-0.202176 -0.021642 0)
(-0.194689 -0.0244644 0)
(-0.186457 -0.0271295 0)
(-0.177513 -0.0296005 0)
(-0.1679 -0.0318398 0)
(-0.157669 -0.0338099 0)
(-0.146879 -0.0354741 0)
(-0.135599 -0.0367979 0)
(-0.123905 -0.0377503 0)
(-0.111884 -0.0383052 0)
(-0.0996315 -0.0384426 0)
(-0.0872477 -0.0381501 0)
(-0.0748402 -0.0374242 0)
(-0.0625198 -0.0362706 0)
(-0.0503994 -0.034705 0)
(-0.038591 -0.0327532 0)
(-0.0272037 -0.0304503 0)
(-0.0163415 -0.0278402 0)
(-0.00610077 -0.0249742 0)
(0.0034311 -0.0219097 0)
(0.0121776 -0.0187081 0)
(0.0200744 -0.0154332 0)
(0.02707 -0.0121493 0)
(0.0331267 -0.00891949 0)
(0.0382214 -0.00580369 0)
(0.0423455 -0.00285729 0)
(0.0455062 -0.000129467 0)
(0.047726 0.00233817 0)
(0.0490432 0.00451282 0)
(0.0495111 0.00637151 0)
(0.0491975 0.00790171 0)
(0.0481824 0.00910162 0)
(0.0465562 0.00997979 0)
(0.0444161 0.0105543 0)
(0.0418632 0.0108515 0)
(0.0389977 0.0109038 0)
(0.0359166 0.0107479 0)
(0.0327089 0.0104228 0)
(0.0294548 0.00996721 0)
(0.0262213 0.00941822 0)
(0.0230656 0.00880912 0)
(0.0200288 0.00816903 0)
(0.0171457 0.00751983 0)
(0.0144343 0.00687754 0)
(0.0119149 0.00624726 0)
(0.00958946 0.00562814 0)
(0.00747708 0.00500471 0)
(0.00557232 0.00436129 0)
(0.00391005 0.00366643 0)
(0.00248081 0.00290937 0)
(0.0013547 0.00206748 0)
(0.000509902 0.00119067 0)
(7.44404e-05 0.00032237 0)
(9.12706e-05 -0.000794983 0)
(0.000607502 -0.00227462 0)
(0.00156399 -0.00351351 0)
(0.00275706 -0.00446582 0)
(0.00415272 -0.00508051 0)
(0.00560259 -0.00536569 0)
(0.00705189 -0.00533578 0)
(0.00839834 -0.00503814 0)
(0.00959615 -0.00452344 0)
(0.0105856 -0.00385455 0)
(0.0113431 -0.00308975 0)
(0.0118442 -0.00228463 0)
(0.012086 -0.00148327 0)
(0.0120662 -0.000718573 0)
(0.0117921 -8.76248e-06 0)
(0.0112678 0.000641404 0)
(0.0104975 0.00124049 0)
(0.00947776 0.00180767 0)
(0.00819883 0.00237014 0)
(0.0066412 0.00295942 0)
(0.00477706 0.00360787 0)
(0.00257013 0.00434542 0)
(-2.1981e-05 0.00519712 0)
(-0.00304625 0.00618171 0)
(-0.00655161 0.00731129 0)
(-0.010587 0.00859176 0)
(-0.0151992 0.0100237 0)
(-0.0204306 0.0116032 0)
(-0.0263174 0.0133224 0)
(-0.0328872 0.0151694 0)
(-0.0401567 0.017128 0)
(-0.0481293 0.019177 0)
(-0.0567931 0.0212901 0)
(-0.066119 0.0234355 0)
(-0.0760598 0.0255762 0)
(-0.08655 0.0276712 0)
(-0.0975073 0.0296764 0)
(-0.108834 0.0315467 0)
(-0.120422 0.0332372 0)
(-0.132152 0.034706 0)
(-0.143905 0.035915 0)
(-0.15556 0.0368323 0)
(-0.167002 0.0374327 0)
(-0.178124 0.0376983 0)
(-0.18883 0.0376189 0)
(-0.199035 0.0371914 0)
(-0.208668 0.0364189 0)
(-0.217671 0.03531 0)
(-0.225996 0.0338778 0)
(-0.233608 0.0321385 0)
(-0.24048 0.0301107 0)
(-0.246592 0.0278141 0)
(-0.25193 0.0252695 0)
(-0.256486 0.0224975 0)
(-0.260254 0.0195187 0)
(-0.263229 0.0163533 0)
(-0.26541 0.013021 0)
(-0.266795 0.00954123 0)
(-0.267381 0.00593346 0)
(-0.267168 0.00221726 0)
(-0.266153 -0.00158723 0)
(-0.264335 -0.00545887 0)
(-0.261711 -0.0093751 0)
(-0.258281 -0.0133115 0)
(-0.254043 -0.0172415 0)
(-0.248999 -0.0211358 0)
(-0.243153 -0.0249623 0)
(-0.23651 -0.0286859 0)
(-0.229083 -0.0322684 0)
(-0.220886 -0.0356687 0)
(-0.211942 -0.0388435 0)
(-0.20228 -0.0417475 0)
(-0.191938 -0.0443346 0)
(-0.180963 -0.0465589 0)
(-0.169413 -0.0483765 0)
(-0.157353 -0.0497465 0)
(-0.144864 -0.0506335 0)
(-0.132032 -0.0510088 0)
(-0.118955 -0.0508526 0)
(-0.10574 -0.0501553 0)
(-0.0924981 -0.0489186 0)
(-0.0793454 -0.0471568 0)
(-0.0663992 -0.0448962 0)
(-0.0537755 -0.0421755 0)
(-0.0415858 -0.0390441 0)
(-0.0299351 -0.0355611 0)
(-0.0189195 -0.0317935 0)
(-0.0086243 -0.0278134 0)
(0.000876774 -0.0236966 0)
(0.00952247 -0.0195198 0)
(0.0172642 -0.0153592 0)
(0.0240662 -0.0112879 0)
(0.0299053 -0.00737527 0)
(0.0347714 -0.00368453 0)
(0.0386674 -0.000271923 0)
(0.0416098 0.00281486 0)
(0.0436289 0.00553799 0)
(0.0447693 0.00787063 0)
(0.0450895 0.00979792 0)
(0.0446613 0.0113174 0)
(0.0435673 0.0124389 0)
(0.0418999 0.0131838 0)
(0.0397564 0.0135836 0)
(0.0372368 0.0136777 0)
(0.0344386 0.0135113 0)
(0.0314551 0.0131321 0)
(0.0283693 0.0125882 0)
(0.0252568 0.0119251 0)
(0.0221771 0.011184 0)
(0.0191836 0.0103982 0)
(0.0163105 0.00959333 0)
(0.013594 0.00878202 0)
(0.0110472 0.00796766 0)
(0.00870137 0.00713649 0)
(0.00655619 0.00627029 0)
(0.00465793 0.00533354 0)
(0.00299759 0.00430584 0)
(0.00166519 0.00315559 0)
(0.000640183 0.00191263 0)
(9.71866e-05 0.000602928 0)
(9.93153e-05 -0.00110851 0)
(0.000662693 -0.00306144 0)
(0.00169873 -0.00464632 0)
(0.00297336 -0.00582389 0)
(0.00444227 -0.00655454 0)
(0.00593812 -0.00685439 0)
(0.00740073 -0.00675163 0)
(0.00871981 -0.00630794 0)
(0.00984903 -0.00559104 0)
(0.0107271 -0.00467985 0)
(0.0113318 -0.00364796 0)
(0.0116389 -0.00256328 0)
(0.0116457 -0.00147918 0)
(0.011348 -0.000433948 0)
(0.0107497 0.000552563 0)
(0.00984951 0.00147769 0)
(0.00864379 0.00235518 0)
(0.00711969 0.00321181 0)
(0.00525657 0.00408378 0)
(0.00302324 0.00501189 0)
(0.000380207 0.00603707 0)
(-0.00271975 0.00719613 0)
(-0.00632844 0.00851883 0)
(-0.0105001 0.0100261 0)
(-0.015288 0.0117298 0)
(-0.0207424 0.013633 0)
(-0.0269071 0.0157313 0)
(-0.0338172 0.0180132 0)
(-0.0414962 0.0204608 0)
(-0.0499532 0.0230498 0)
(-0.0591803 0.0257487 0)
(-0.0691501 0.028519 0)
(-0.0798143 0.0313152 0)
(-0.0911034 0.0340859 0)
(-0.102928 0.0367747 0)
(-0.115181 0.039323 0)
(-0.12774 0.041672 0)
(-0.140477 0.0437656 0)
(-0.153257 0.0455533 0)
(-0.16595 0.0469917 0)
(-0.17843 0.0480467 0)
(-0.190584 0.0486944 0)
(-0.202313 0.0489205 0)
(-0.213533 0.0487206 0)
(-0.224176 0.0480987 0)
(-0.234187 0.0470658 0)
(-0.243528 0.0456386 0)
(-0.25217 0.0438377 0)
(-0.260095 0.0416863 0)
(-0.267292 0.039209 0)
(-0.273754 0.0364309 0)
(-0.279481 0.0333766 0)
(-0.284471 0.0300699 0)
(-0.288728 0.0265336 0)
(-0.292251 0.0227892 0)
(-0.295042 0.0188572 0)
(-0.2971 0.0147569 0)
(-0.298426 0.0105071 0)
(-0.299015 0.00612641 0)
(-0.298863 0.00163349 0)
(-0.297967 -0.00295225 0)
(-0.296317 -0.00761021 0)
(-0.293908 -0.012318 0)
(-0.290732 -0.0170511 0)
(-0.286779 -0.0217818 0)
(-0.282044 -0.0264795 0)
(-0.276518 -0.0311098 0)
(-0.270199 -0.0356341 0)
(-0.263085 -0.04001 0)
(-0.255178 -0.0441912 0)
(-0.246488 -0.0481275 0)
(-0.237029 -0.0517659 0)
(-0.226824 -0.0550513 0)
(-0.215905 -0.0579278 0)
(-0.204317 -0.0603405 0)
(-0.192113 -0.0622372 0)
(-0.179361 -0.0635708 0)
(-0.166142 -0.0643015 0)
(-0.152547 -0.0643991 0)
(-0.13868 -0.0638454 0)
(-0.124656 -0.0626355 0)
(-0.110595 -0.0607796 0)
(-0.0966213 -0.058303 0)
(-0.0828627 -0.0552464 0)
(-0.0694426 -0.0516646 0)
(-0.0564788 -0.0476247 0)
(-0.0440801 -0.0432036 0)
(-0.0323438 -0.0384856 0)
(-0.021354 -0.0335591 0)
(-0.0111809 -0.0285142 0)
(-0.00188057 -0.0234399 0)
(0.00650419 -0.018422 0)
(0.0139431 -0.013542 0)
(0.0204177 -0.00887513 0)
(0.0259204 -0.00448958 0)
(0.0304545 -0.000445359 0)
(0.0340344 0.00320684 0)
(0.0366863 0.00642691 0)
(0.0384485 0.00918655 0)
(0.0393723 0.0114704 0)
(0.0395215 0.0132766 0)
(0.0389717 0.0146172 0)
(0.0378081 0.0155172 0)
(0.0361237 0.0160131 0)
(0.034014 0.0161509 0)
(0.0315763 0.0159828 0)
(0.0289019 0.0155646 0)
(0.0260785 0.0149516 0)
(0.0231803 0.0141963 0)
(0.020277 0.0133435 0)
(0.0174188 0.0124296 0)
(0.0146578 0.0114765 0)
(0.0120202 0.0104936 0)
(0.00955136 0.00947118 0)
(0.00725907 0.00838962 0)
(0.00520287 0.00721049 0)
(0.00337814 0.00590164 0)
(0.00189434 0.00442025 0)
(0.000735222 0.00276733 0)
(0.000113085 0.000943517 0)
(0.000106334 -0.00144393 0)
(0.000706585 -0.00390082 0)
(0.0017995 -0.00584185 0)
(0.00312436 -0.00723576 0)
(0.00462527 -0.00805808 0)
(0.00611776 -0.00833747 0)
(0.00753599 -0.00812043 0)
(0.00876322 -0.00748644 0)
(0.00975341 -0.00652292 0)
(0.0104451 -0.0053262 0)
(0.0108187 -0.00398548 0)
(0.0108507 -0.0025802 0)
(0.0105387 -0.00117155 0)
(0.00987646 0.000198946 0)
(0.00886347 0.00151211 0)
(0.00749111 0.00276977 0)
(0.00574642 0.00399298 0)
(0.00360502 0.00521777 0)
(0.0010337 0.00649022 0)
(-0.00201151 0.00786045 0)
(-0.00558192 0.00937704 0)
(-0.00973463 0.0110819 0)
(-0.0145284 0.0130069 0)
(-0.0200205 0.0151718 0)
(-0.0262632 0.0175842 0)
(-0.0333003 0.0202402 0)
(-0.0411636 0.0231249 0)
(-0.0498703 0.0262137 0)
(-0.0594191 0.0294726 0)
(-0.069788 0.0328579 0)
(-0.0809315 0.0363171 0)
(-0.0927804 0.0397891 0)
(-0.105242 0.0432059 0)
(-0.118203 0.0464954 0)
(-0.131532 0.0495839 0)
(-0.145089 0.0523999 0)
(-0.158729 0.054878 0)
(-0.172307 0.0569612 0)
(-0.185689 0.0586042 0)
(-0.198755 0.059774 0)
(-0.211398 0.0604507 0)
(-0.223532 0.0606264 0)
(-0.23509 0.0603046 0)
(-0.24602 0.0594975 0)
(-0.256288 0.0582247 0)
(-0.265871 0.0565105 0)
(-0.274756 0.0543827 0)
(-0.282938 0.0518705 0)
(-0.290418 0.0490034 0)
(-0.2972 0.0458105 0)
(-0.303289 0.0423193 0)
(-0.308691 0.0385559 0)
(-0.313412 0.0345442 0)
(-0.317457 0.0303065 0)
(-0.32083 0.0258633 0)
(-0.323533 0.0212337 0)
(-0.325566 0.0164353 0)
(-0.326928 0.0114854 0)
(-0.327615 0.00640063 0)
(-0.327623 0.00119811 0)
(-0.326944 -0.00410439 0)
(-0.325569 -0.00948771 0)
(-0.323488 -0.0149307 0)
(-0.320688 -0.0204095 0)
(-0.317157 -0.0258971 0)
(-0.312879 -0.0313626 0)
(-0.30784 -0.0367708 0)
(-0.302027 -0.0420816 0)
(-0.295426 -0.0472498 0)
(-0.288026 -0.052225 0)
(-0.279822 -0.0569521 0)
(-0.270811 -0.061371 0)
(-0.261 -0.0654184 0)
(-0.250401 -0.0690285 0)
(-0.239041 -0.0721349 0)
(-0.226955 -0.0746727 0)
(-0.214196 -0.0765812 0)
(-0.20083 -0.0778065 0)
(-0.186937 -0.0783047 0)
(-0.172617 -0.0780447 0)
(-0.157979 -0.0770107 0)
(-0.143149 -0.0752046 0)
(-0.128259 -0.0726468 0)
(-0.11345 -0.0693768 0)
(-0.0988615 -0.0654522 0)
(-0.0846303 -0.0609472 0)
(-0.0708852 -0.055949 0)
(-0.057743 -0.0505549 0)
(-0.0453054 -0.0448681 0)
(-0.033657 -0.038994 0)
(-0.0228652 -0.0330368 0)
(-0.0129804 -0.0270965 0)
(-0.00403795 -0.0212672 0)
(0.00394027 -0.0156353 0)
(0.0109435 -0.0102795 0)
(0.0169708 -0.00526948 0)
(0.0220299 -0.000665819 0)
(0.0261372 0.00348089 0)
(0.0293181 0.00713104 0)
(0.0316085 0.0102572 0)
(0.0330547 0.0128455 0)
(0.0337152 0.0148963 0)
(0.0336588 0.0164244 0)
(0.0329654 0.0174588 0)
(0.0317213 0.0180411 0)
(0.0300193 0.0182227 0)
(0.0279512 0.0180622 0)
(0.0256098 0.017621 0)
(0.023078 0.0169599 0)
(0.0204378 0.0161338 0)
(0.017752 0.0151891 0)
(0.0150879 0.0141576 0)
(0.0124848 0.0130558 0)
(0.0100023 0.0118797 0)
(0.00765882 0.0106091 0)
(0.00552761 0.00920381 0)
(0.00361162 0.00761861 0)
(0.00203729 0.0057979 0)
(0.000794947 0.00370868 0)
(0.000123001 0.00132223 0)
(0.000112091 -0.00180139 0)
(0.000739672 -0.00478508 0)
(0.00186872 -0.00708444 0)
(0.00321365 -0.00867844 0)
(0.0047062 -0.00956103 0)
(0.00614658 -0.00977787 0)
(0.00746358 -0.00939828 0)
(0.00853574 -0.00852329 0)
(0.0093182 -0.00726284 0)
(0.00975087 -0.00573201 0)
(0.00981712 -0.00403578 0)
(0.00949488 -0.00226404 0)
(0.00878185 -0.000483859 0)
(0.00766872 0.00126253 0)
(0.00614931 0.00295943 0)
(0.00420616 0.00461584 0)
(0.00181514 0.00626231 0)
(-0.00106104 0.00794551 0)
(-0.00446891 0.00972172 0)
(-0.00846492 0.0116496 0)
(-0.0131105 0.0137831 0)
(-0.0184695 0.0161661 0)
(-0.0246025 0.0188283 0)
(-0.0315634 0.0217835 0)
(-0.0393945 0.0250296 0)
(-0.0481234 0.0285491 0)
(-0.0577586 0.0323105 0)
(-0.0682868 0.036269 0)
(-0.0796697 0.0403677 0)
(-0.0918427 0.0445382 0)
(-0.104715 0.0487025 0)
(-0.11817 0.0527753 0)
(-0.132072 0.0566681 0)
(-0.146272 0.0602928 0)
(-0.160613 0.0635669 0)
(-0.174939 0.0664172 0)
(-0.189103 0.0687835 0)
(-0.202972 0.0706207 0)
(-0.216434 0.0718996 0)
(-0.229396 0.0726062 0)
(-0.241785 0.0727407 0)
(-0.25355 0.0723147 0)
(-0.264658 0.071349 0)
(-0.275086 0.0698707 0)
(-0.284827 0.0679113 0)
(-0.293879 0.0655044 0)
(-0.302246 0.0626841 0)
(-0.309936 0.0594839 0)
(-0.316959 0.0559357 0)
(-0.323326 0.0520697 0)
(-0.329047 0.0479134 0)
(-0.334131 0.0434924 0)
(-0.338588 0.0388295 0)
(-0.342425 0.0339458 0)
(-0.345648 0.0288599 0)
(-0.348262 0.0235894 0)
(-0.350269 0.01815 0)
(-0.351669 0.0125571 0)
(-0.352462 0.00682531 0)
(-0.352643 0.000969646 0)
(-0.352208 -0.00499423 0)
(-0.351146 -0.0110493 0)
(-0.349447 -0.0171765 0)
(-0.347097 -0.0233539 0)
(-0.344079 -0.0295564 0)
(-0.340374 -0.0357543 0)
(-0.335961 -0.0419133 0)
(-0.330816 -0.0479935 0)
(-0.324917 -0.0539488 0)
(-0.31824 -0.0597271 0)
(-0.310761 -0.0652695 0)
(-0.302461 -0.070511 0)
(-0.293326 -0.0753813 0)
(-0.283348 -0.0798052 0)
(-0.272528 -0.0837053 0)
(-0.26088 -0.0870031 0)
(-0.248431 -0.0896228 0)
(-0.235227 -0.0914938 0)
(-0.221331 -0.0925545 0)
(-0.206824 -0.0927566 0)
(-0.191811 -0.0920679 0)
(-0.176411 -0.0904759 0)
(-0.160763 -0.0879905 0)
(-0.145018 -0.0846446 0)
(-0.129333 -0.0804945 0)
(-0.11387 -0.0756183 0)
(-0.0987825 -0.0701126 0)
(-0.0842178 -0.0640885 0)
(-0.0703056 -0.0576667 0)
(-0.057156 -0.0509718 0)
(-0.0448574 -0.0441276 0)
(-0.0334759 -0.0372531 0)
(-0.0230563 -0.0304588 0)
(-0.0136254 -0.0238453 0)
(-0.00519464 -0.0175026 0)
(0.0022362 -0.0115096 0)
(0.00867609 -0.00593472 0)
(0.0141412 -0.000835882 0)
(0.0186536 0.00373944 0)
(0.0222425 0.00775503 0)
(0.024944 0.011187 0)
(0.0268036 0.0140251 0)
(0.027876 0.0162735 0)
(0.0282268 0.0179516 0)
(0.0279296 0.0190929 0)
(0.0270678 0.0197439 0)
(0.0257272 0.0199614 0)
(0.0239996 0.0198086 0)
(0.0219703 0.0193506 0)
(0.0197278 0.0186498 0)
(0.0173444 0.0177605 0)
(0.0148987 0.0167238 0)
(0.012442 0.015563 0)
(0.0100475 0.0142802 0)
(0.00774498 0.0128555 0)
(0.00562105 0.0112473 0)
(0.00368855 0.00939749 0)
(0.00208739 0.00723737 0)
(0.000815739 0.00469881 0)
(0.000126012 0.00172259 0)
(0.00011746 -0.00217342 0)
(0.000764372 -0.00569397 0)
(0.00190931 -0.0083414 0)
(0.00324331 -0.010107 0)
(0.00468517 -0.0110075 0)
(0.0060222 -0.0111102 0)
(0.00717876 -0.0105124 0)
(0.00803106 -0.00934036 0)
(0.00853657 -0.00772909 0)
(0.008638 -0.00581334 0)
(0.00832216 -0.00371336 0)
(0.00756838 -0.00152769 0)
(0.00637358 0.000673344 0)
(0.00472419 0.00285002 0)
(0.00260666 0.00499324 0)
(-6.98369e-06 0.00712197 0)
(-0.00315344 0.00927812 0)
(-0.00688349 0.0115197 0)
(-0.0112564 0.0139123 0)
(-0.0163389 0.0165206 0)
(-0.0221988 0.0194005 0)
(-0.0289005 0.0225923 0)
(-0.0364991 0.0261178 0)
(-0.0450356 0.0299781 0)
(-0.0545319 0.0341539 0)
(-0.0649874 0.0386073 0)
(-0.0763754 0.0432825 0)
(-0.0886406 0.0481083 0)
(-0.101699 0.0529997 0)
(-0.115437 0.057861 0)
(-0.129719 0.0625893 0)
(-0.144388 0.06708 0)
(-0.159278 0.0712318 0)
(-0.174221 0.0749524 0)
(-0.189056 0.0781634 0)
(-0.203637 0.0808032 0)
(-0.217836 0.0828291 0)
(-0.231551 0.0842173 0)
(-0.244702 0.0849611 0)
(-0.257231 0.0850686 0)
(-0.2691 0.0845596 0)
(-0.280287 0.0834626 0)
(-0.290783 0.0818118 0)
(-0.300587 0.0796443 0)
(-0.309706 0.0769989 0)
(-0.318151 0.0739138 0)
(-0.325934 0.070426 0)
(-0.333068 0.0665703 0)
(-0.339569 0.0623794 0)
(-0.345452 0.0578832 0)
(-0.35073 0.0531088 0)
(-0.355418 0.0480808 0)
(-0.359527 0.0428211 0)
(-0.363072 0.0373493 0)
(-0.366061 0.031683 0)
(-0.368504 0.0258378 0)
(-0.370408 0.0198278 0)