/*--------------------------------*- C++ -*----------------------------------*\
| =========                 |                                                 |
| \\      /  F ield         | OpenFOAM: The Open Source CFD Toolbox           |
|  \\    /   O peration     | Version:  2406                                  |
|   \\  /    A nd           | Website:  www.openfoam.com                      |
|    \\/     M anipulation  |                                                 |
\*---------------------------------------------------------------------------*/
FoamFile
{
    version     2.0;
    format      ascii;
    arch        "LSB;label=32;scalar=64";
    class       surfaceScalarField;
    location    "27.35";
    object      phi;
}
// * * * * * * * * * * * * * * * * * * * * * * * * * * * * * * * * * * * * * //

dimensions      [0 3 -1 0 0 0 0];

oriented        oriented;

internalField   nonuniform List<scalar> 
28560
(
-8.25552e-09
8.2523e-09
3.54799e-08
-4.56378e-08
1.33233e-07
-9.80833e-08
2.73464e-07
-1.42528e-07
4.41499e-07
-1.69291e-07
6.22677e-07
-1.83642e-07
8.06093e-07
-1.85123e-07
9.81852e-07
-1.78014e-07
1.14374e-06
-1.63559e-07
1.28681e-06
-1.44874e-07
1.40895e-06
-1.23482e-07
1.50922e-06
-1.0154e-07
1.58854e-06
-8.02144e-08
1.64851e-06
-6.07302e-08
1.69165e-06
-4.36198e-08
1.72057e-06
-2.9253e-08
1.73795e-06
-1.75159e-08
1.74604e-06
-8.10534e-09
1.74659e-06
-4.17393e-10
1.74058e-06
6.26743e-09
1.72817e-06
1.27964e-08
1.70867e-06
2.00179e-08
1.68059e-06
2.87584e-08
1.6417e-06
3.97451e-08
1.58919e-06
5.35918e-08
1.51976e-06
7.07739e-08
1.42977e-06
9.16444e-08
1.31533e-06
1.1645e-07
1.17238e-06
1.45364e-07
9.96745e-07
1.78513e-07
7.84136e-07
2.16e-07
5.30189e-07
2.57906e-07
2.30479e-07
3.04291e-07
-1.19437e-07
3.5517e-07
-5.23954e-07
4.10495e-07
-9.87333e-07
4.70125e-07
-1.51358e-06
5.33804e-07
-2.10633e-06
6.01141e-07
-2.76865e-06
6.71593e-07
-3.50297e-06
7.44458e-07
-4.31081e-06
8.18871e-07
-5.19272e-06
8.93806e-07
-6.14807e-06
9.68085e-07
-7.17492e-06
1.04039e-06
-8.26994e-06
1.10928e-06
-9.42825e-06
1.17322e-06
-1.06434e-05
1.23062e-06
-1.19074e-05
1.27985e-06
-1.32105e-05
1.31926e-06
-1.45414e-05
1.34726e-06
-1.58875e-05
1.36233e-06
-1.72344e-05
1.36302e-06
-1.85668e-05
1.34803e-06
-1.9868e-05
1.31622e-06
-2.11205e-05
1.26664e-06
-2.23058e-05
1.19853e-06
-2.34053e-05
1.11138e-06
-2.43998e-05
1.00495e-06
-2.52703e-05
8.79255e-07
-2.5998e-05
7.34657e-07
-2.6565e-05
5.71845e-07
-2.69541e-05
3.91885e-07
-2.71499e-05
1.96242e-07
-2.71387e-05
-1.31876e-08
-2.69092e-05
-2.34062e-07
-2.64526e-05
-4.63574e-07
-2.57636e-05
-6.98456e-07
-2.48406e-05
-9.34995e-07
-2.3686e-05
-1.16906e-06
-2.23065e-05
-1.39619e-06
-2.07138e-05
-1.61164e-06
-1.8924e-05
-1.81054e-06
-1.69586e-05
-1.98801e-06
-1.48432e-05
-2.13933e-06
-1.26082e-05
-2.26017e-06
-1.02874e-05
-2.34673e-06
-7.91787e-06
-2.39598e-06
-5.53852e-06
-2.40585e-06
-3.18936e-06
-2.37538e-06
-9.10083e-07
-2.30482e-06
1.26116e-06
-2.19576e-06
3.28908e-06
-2.05106e-06
5.14245e-06
-1.8748e-06
6.79514e-06
-1.67216e-06
8.22705e-06
-1.44916e-06
9.42463e-06
-1.21244e-06
1.03812e-05
-9.68924e-07
1.10969e-05
-7.25488e-07
1.15783e-05
-4.88666e-07
1.18379e-05
-2.64342e-07
1.1893e-05
-5.75209e-08
1.17648e-05
1.2785e-07
1.14775e-05
2.8898e-07
1.10567e-05
4.24257e-07
1.05283e-05
5.33203e-07
9.91788e-06
6.16354e-07
9.24962e-06
6.75121e-07
8.54553e-06
7.11582e-07
7.82511e-06
7.28312e-07
7.10503e-06
7.28152e-07
6.39905e-06
7.14079e-07
5.71799e-06
6.88994e-07
5.07e-06
6.55689e-07
4.46067e-06
6.1665e-07
3.89346e-06
5.74165e-07
3.36982e-06
5.30088e-07
2.88974e-06
4.86131e-07
2.45176e-06
4.43458e-07
2.05369e-06
4.03241e-07
1.69237e-06
3.65843e-07
1.3649e-06
3.31855e-07
1.06808e-06
3.00432e-07
8.00409e-07
2.71394e-07
5.61184e-07
2.41897e-07
3.53255e-07
2.11021e-07
1.81703e-07
1.7313e-07
5.5404e-08
1.28628e-07
-1.5138e-08
7.09444e-08
-2.83333e-08
1.46368e-08
-2.83776e-08
4.45498e-08
-3.43953e-08
1.99761e-07
-2.00839e-07
4.6139e-07
-3.56242e-07
8.06304e-07
-4.85499e-07
1.20957e-06
-5.6838e-07
1.64165e-06
-6.12542e-07
2.07912e-06
-6.18363e-07
2.49983e-06
-5.95315e-07
2.88853e-06
-5.48563e-07
3.23299e-06
-4.86378e-07
3.52672e-06
-4.14392e-07
3.76615e-06
-3.38819e-07
3.95168e-06
-2.63882e-07
4.08553e-06
-1.93259e-07
4.17189e-06
-1.28979e-07
4.21539e-06
-7.21649e-08
4.22084e-06
-2.26392e-08
4.19216e-06
2.06037e-08
4.1321e-06
5.9438e-08
4.04169e-06
9.62412e-08
3.92005e-06
1.33772e-07
3.76428e-06
1.7487e-07
3.56953e-06
2.223e-07
3.32919e-06
2.78546e-07
3.03511e-06
3.45723e-07
2.67795e-06
4.25503e-07
2.24746e-06
5.19136e-07
1.73276e-06
6.27492e-07
1.12259e-06
7.51136e-07
4.05441e-07
8.90399e-07
-4.30197e-07
1.04543e-06
-1.39574e-06
1.21618e-06
-2.5023e-06
1.40243e-06
-3.76047e-06
1.60366e-06
-5.18002e-06
1.81903e-06
-6.76962e-06
2.04728e-06
-8.53641e-06
2.28664e-06
-1.04856e-05
2.53484e-06
-1.26202e-05
2.78904e-06
-1.49404e-05
3.04582e-06
-1.74432e-05
3.30125e-06
-2.01224e-05
3.55092e-06
-2.29679e-05
3.79e-06
-2.59659e-05
4.01334e-06
-2.90987e-05
4.21562e-06
-3.23446e-05
4.39144e-06
-3.56781e-05
4.53546e-06
-3.90702e-05
4.64255e-06
-4.24889e-05
4.70792e-06
-4.58991e-05
4.72722e-06
-4.92636e-05
4.69665e-06
-5.25434e-05
4.61306e-06
-5.56983e-05
4.47399e-06
-5.86877e-05
4.27773e-06
-6.14707e-05
4.02336e-06
-6.40073e-05
3.71075e-06
-6.62585e-05
3.34058e-06
-6.81872e-05
2.91435e-06
-6.97586e-05
2.43439e-06
-7.09406e-05
1.90387e-06
-7.17046e-05
1.3268e-06
-7.20257e-05
7.0807e-07
-7.18836e-05
5.34696e-08
-7.12626e-05
-6.30314e-07
-7.01524e-05
-1.33567e-06
-6.85486e-05
-2.05408e-06
-6.64529e-05
-2.77612e-06
-6.38736e-05
-3.49154e-06
-6.08259e-05
-4.18938e-06
-5.73324e-05
-4.85804e-06
-5.34228e-05
-5.48554e-06
-4.91341e-05
-6.05975e-06
-4.45108e-05
-6.56869e-06
-3.96038e-05
-7.00087e-06
-3.44707e-05
-7.34571e-06
-2.91743e-05
-7.59396e-06
-2.37822e-05
-7.73812e-06
-1.83651e-05
-7.77286e-06
-1.29955e-05
-7.6954e-06
-7.74628e-06
-7.5058e-06
-2.68861e-06
-7.20717e-06
2.10966e-06
-6.80573e-06
6.58596e-06
-6.31074e-06
1.06847e-05
-5.7343e-06
1.43589e-05
-5.09094e-06
1.75714e-05
-4.39717e-06
2.02964e-05
-3.6708e-06
2.25195e-05
-2.93023e-06
2.42381e-05
-2.19379e-06
2.54615e-05
-1.47888e-06
2.62098e-05
-8.01382e-07
2.65131e-05
-1.75004e-07
2.64097e-05
3.89179e-07
2.59445e-05
8.83028e-07
2.51672e-05
1.3015e-06
2.41298e-05
1.6426e-06
2.28849e-05
1.9072e-06
2.14838e-05
2.09869e-06
1.99749e-05
2.22254e-06
1.84022e-05
2.28578e-06
1.68047e-05
2.29651e-06
1.52155e-05
2.2633e-06
1.36621e-05
2.19487e-06
1.21655e-05
2.09954e-06
1.07416e-05
1.98518e-06
9.40087e-06
1.8587e-06
8.14954e-06
1.72634e-06
6.98961e-06
1.59299e-06
5.92058e-06
1.46293e-06
4.93919e-06
1.33845e-06
4.04196e-06
1.22143e-06
3.22453e-06
1.11048e-06
2.4855e-06
1.00439e-06
1.82479e-06
8.96492e-07
1.24876e-06
7.82784e-07
7.66256e-07
6.5087e-07
3.92641e-07
5.0015e-07
1.40904e-07
3.19467e-07
1.60818e-08
1.39593e-07
-1.372e-08
9.48171e-08
-1.28888e-07
3.50785e-07
-4.60265e-07
7.4957e-07
-7.55024e-07
1.25287e-06
-9.92339e-07
1.82948e-06
-1.14673e-06
2.43997e-06
-1.2266e-06
3.05384e-06
-1.2347e-06
3.64106e-06
-1.18578e-06
4.18059e-06
-1.09054e-06
4.65503e-06
-9.6344e-07
5.05441e-06
-8.15763e-07
5.37262e-06
-6.5891e-07
5.60868e-06
-5.01302e-07
5.76411e-06
-3.49835e-07
5.84298e-06
-2.08604e-07
5.84997e-06
-7.96926e-08
5.78989e-06
3.71826e-08
5.66634e-06
1.44071e-07
5.48125e-06
2.44667e-07
5.23405e-06
3.43747e-07
4.9215e-06
4.46821e-07
4.53744e-06
5.59613e-07
4.07298e-06
6.87686e-07
3.51663e-06
8.36069e-07
2.85482e-06
1.00903e-06
2.07224e-06
1.20996e-06
1.15238e-06
1.44132e-06
7.79386e-08
1.70477e-06
-1.16871e-06
2.00121e-06
-2.60517e-06
2.33095e-06
-4.24862e-06
2.69373e-06
-6.11545e-06
3.08869e-06
-8.22079e-06
3.51436e-06
-1.0578e-05
3.96847e-06
-1.31982e-05
4.44785e-06
-1.60894e-05
4.94831e-06
-1.92563e-05
5.46451e-06
-2.26992e-05
5.98994e-06
-2.64136e-05
6.51696e-06
-3.03898e-05
7.03687e-06
-3.46124e-05
7.54007e-06
-3.90603e-05
8.01624e-06
-4.37062e-05
8.45466e-06
-4.85175e-05
8.84445e-06
-5.34558e-05
9.17489e-06
-5.84782e-05
9.43575e-06
-6.35376e-05
9.61756e-06
-6.85837e-05
9.71192e-06
-7.35638e-05
9.71166e-06
-7.84237e-05
9.61105e-06
-8.31092e-05
9.40587e-06
-8.75662e-05
9.09347e-06
-9.17423e-05
8.67275e-06
-9.55869e-05
8.14413e-06
-9.90525e-05
7.50948e-06
-0.000102095
6.77202e-06
-0.000104673
5.93623e-06
-0.000106752
5.00779e-06
-0.000108299
3.9935e-06
-0.000109286
2.90126e-06
-0.000109693
1.73999e-06
-0.000109501
5.19726e-07
-0.000108699
-7.48463e-07
-0.00010728
-2.05239e-06
-0.000105244
-3.37876e-06
-0.000102596
-4.71315e-06
-9.93468e-05
-6.04001e-06
-9.55139e-05
-7.34276e-06
-9.11214e-05
-8.60386e-06
-8.61997e-05
-9.80503e-06
-8.07863e-05
-1.09274e-05
-7.49254e-05
-1.1952e-05
-6.8668e-05
-1.28601e-05
-6.20715e-05
-1.36334e-05
-5.51998e-05
-1.42552e-05
-4.8122e-05
-1.47107e-05
-4.09124e-05
-1.49873e-05
-3.36491e-05
-1.50759e-05
-2.64128e-05
-1.49709e-05
-1.92855e-05
-1.46712e-05
-1.2349e-05
-1.41802e-05
-5.68303e-06
-1.35062e-05
6.36455e-07
-1.26621e-05
6.53908e-06
-1.16658e-05
1.19618e-05
-1.05393e-05
1.68507e-05
-9.30805e-06
2.11621e-05
-8.00048e-06
2.48641e-05
-6.64674e-06
2.79373e-05
-5.27773e-06
3.03753e-05
-3.92401e-06
3.21849e-05
-2.61464e-06
3.33856e-05
-1.37616e-06
3.40088e-05
-2.31632e-07
3.40966e-05
8.00109e-07
3.37e-05
1.70502e-06
3.28771e-05
2.47416e-06
3.16906e-05
3.10373e-06
3.02053e-05
3.59484e-06
2.84863e-05
3.95308e-06
2.65961e-05
4.18777e-06
2.45933e-05
4.31119e-06
2.25306e-05
4.33763e-06
2.04542e-05
4.2826e-06
1.84027e-05
4.16183e-06
1.64073e-05
3.99078e-06
1.44917e-05
3.78377e-06
1.2673e-05
3.55398e-06
1.09616e-05
3.3124e-06
9.36366e-06
3.06849e-06
7.88039e-06
2.82838e-06
6.51179e-06
2.59645e-06
5.25567e-06
2.3719e-06
4.11288e-06
2.15263e-06
3.08467e-06
1.92857e-06
2.18024e-06
1.69181e-06
1.40952e-06
1.42368e-06
7.92769e-07
1.12071e-06
3.43808e-07
7.68224e-07
8.11472e-08
4.05609e-07
6.68125e-08
1.3779e-07
-2.64383e-07
4.78615e-07
-8.03053e-07
9.86775e-07
-1.25963e-06
1.60854e-06
-1.61414e-06
2.30746e-06
-1.84268e-06
3.03707e-06
-1.95505e-06
3.76293e-06
-1.95795e-06
4.45013e-06
-1.87141e-06
5.07419e-06
-1.71243e-06
5.61421e-06
-1.50198e-06
6.0577e-06
-1.25761e-06
6.39625e-06
-9.96312e-07
6.62714e-06
-7.31101e-07
6.75036e-06
-4.72317e-07
6.76861e-06
-2.26238e-07
6.68511e-06
4.15304e-09
6.50307e-06
2.19452e-07
6.22406e-06
4.23115e-07
5.84751e-06
6.21137e-07
5.36976e-06
8.21263e-07
4.78386e-06
1.03236e-06
4.07932e-06
1.26364e-06
3.24232e-06
1.52401e-06
2.25605e-06
1.82146e-06
1.10123e-06
2.16274e-06
-2.43263e-07
2.55306e-06
-1.79972e-06
2.99607e-06
-3.59096e-06
3.49392e-06
-5.63964e-06
4.04738e-06
-7.96762e-06
4.65594e-06
-1.05953e-05
5.31787e-06
-1.35409e-05
6.03011e-06
-1.68195e-05
6.7882e-06
-2.04426e-05
7.58605e-06
-2.44168e-05
8.41581e-06
-2.87433e-05
9.2677e-06
-3.34168e-05
1.013e-05
-3.8425e-05
1.09893e-05
-4.37482e-05
1.18303e-05
-4.93587e-05
1.26366e-05
-5.52213e-05
1.33911e-05
-6.12937e-05
1.4076e-05
-6.75265e-05
1.4674e-05
-7.3865e-05
1.51686e-05
-8.02498e-05
1.55447e-05
-8.66185e-05
1.57887e-05
-9.29068e-05
1.58897e-05
-9.90504e-05
1.58388e-05
-0.000104986
1.56301e-05
-0.000110652
1.526e-05
-0.00011599
1.47275e-05
-0.000120947
1.4034e-05
-0.000125473
1.3183e-05
-0.000129524
1.21799e-05
-0.000133061
1.10316e-05
-0.000136048
9.74655e-06
-0.000138458
8.33415e-06
-0.000140265
6.80501e-06
-0.000141451
5.17059e-06
-0.000141999
3.44327e-06
-0.000141899
1.63627e-06
-0.000141145
-2.36243e-07
-0.000139734
-2.1591e-06
-0.000137668
-4.11607e-06
-0.000134951
-6.08972e-06
-0.000131595
-8.06137e-06
-0.000127613
-1.0011e-05
-0.000123025
-1.19174e-05
-0.000117856
-1.37579e-05
-0.000112134
-1.55089e-05
-0.000105896
-1.7146e-05
-9.91814e-05
-1.86443e-05
-9.2039e-05
-1.99789e-05
-8.4522e-05
-2.11254e-05
-7.669e-05
-2.20611e-05
-6.86087e-05
-2.27652e-05
-6.03489e-05
-2.32198e-05
-5.19864e-05
-2.34111e-05
-4.36005e-05
-2.33299e-05
-3.52733e-05
-2.29722e-05
-2.70881e-05
-2.23404e-05
-1.91277e-05
-2.14428e-05
-1.14732e-05
-2.02946e-05
-4.20195e-06
-1.89172e-05
2.61418e-06
-1.73377e-05
8.91023e-06
-1.55888e-05
1.46298e-05
-1.37073e-05
1.97265e-05
-1.17332e-05
2.41647e-05
-9.70836e-06
2.79212e-05
-7.67531e-06
3.09849e-05
-5.67563e-06
3.33581e-05
-3.74871e-06
3.50555e-05
-1.93046e-06
3.61045e-05
-2.52127e-07
3.65442e-05
1.26068e-06
3.64237e-05
2.58872e-06
3.58009e-05
3.71962e-06
3.47402e-05
4.64798e-06
3.331e-05
5.37521e-06
3.15805e-05
5.90896e-06
2.96211e-05
6.26232e-06
2.74978e-05
6.45265e-06
2.52719e-05
6.50052e-06
2.29979e-05
6.4282e-06
2.07227e-05
6.2588e-06
1.84848e-05
6.01474e-06
1.63152e-05
5.71736e-06
1.42364e-05
5.38536e-06
1.22646e-05
5.03506e-06
1.04097e-05
4.6782e-06
8.67869e-06
4.32329e-06
7.07455e-06
3.97165e-06
5.60269e-06
3.62144e-06
4.2668e-06
3.26058e-06
3.0793e-06
2.87761e-06
2.05056e-06
2.4488e-06
1.20568e-06
1.96579e-06
5.60511e-07
1.4094e-06
1.52618e-07
8.16121e-07
2.16941e-07
1.66042e-07
-4.29118e-07
5.69168e-07
-1.21042e-06
1.15857e-06
-1.8472e-06
1.86578e-06
-2.32437e-06
2.64801e-06
-2.62483e-06
3.45215e-06
-2.76153e-06
4.24061e-06
-2.74715e-06
4.97491e-06
-2.60758e-06
5.62843e-06
-2.36694e-06
6.17799e-06
-2.05298e-06
6.60937e-06
-1.68988e-06
6.91234e-06
-1.3003e-06
7.08254e-06
-9.0195e-07
7.11807e-06
-5.08483e-07
7.01963e-06
-1.28176e-07
6.78804e-06
2.35423e-07
6.42372e-06
5.83637e-07
5.92493e-06
9.21842e-07
5.28725e-06
1.25889e-06
4.5026e-06
1.60607e-06
3.55909e-06
1.97614e-06
2.44086e-06
2.38224e-06
1.12845e-06
2.83693e-06
-4.00749e-07
3.35131e-06
-2.17169e-06
3.93451e-06
-4.21085e-06
4.59325e-06
-6.54531e-06
5.3318e-06
-9.20181e-06
6.15195e-06
-1.22057e-05
7.05316e-06
-1.55802e-05
8.03259e-06
-1.93448e-05
9.08513e-06
-2.35149e-05
1.02033e-05
-2.81e-05
1.13769e-05
-3.31031e-05
1.25932e-05
-3.85192e-05
1.38366e-05
-4.43348e-05
1.50885e-05
-5.05269e-05
1.63281e-05
-5.70633e-05
1.75322e-05
-6.39022e-05
1.86764e-05
-7.0993e-05
1.97353e-05
-7.82773e-05
2.0684e-05
-8.56905e-05
2.14984e-05
-9.31631e-05
2.21565e-05
-0.000100623
2.26391e-05
-0.000107998
2.29301e-05
-0.000115215
2.30174e-05
-0.000122206
2.28925e-05
-0.000128906
2.25509e-05
-0.000135256
2.19917e-05
-0.000141201
2.12172e-05
-0.000146695
2.02328e-05
-0.000151695
1.90461e-05
-0.000156167
1.76666e-05
-0.000160082
1.61054e-05
-0.000163415
1.43746e-05
-0.000166147
1.24873e-05
-0.000168262
1.04569e-05
-0.000169748
8.29767e-06
-0.000170596
6.02403e-06
-0.0001708
3.65104e-06
-0.000170355
1.19434e-06
-0.000169261
-1.32968e-06
-0.000167517
-3.90367e-06
-0.000165127
-6.50915e-06
-0.000162094
-9.12629e-06
-0.000158428
-1.17337e-05
-0.000154139
-1.43084e-05
-0.00014924
-1.68254e-05
-0.000143751
-1.92583e-05
-0.000137694
-2.15788e-05
-0.000131097
-2.37574e-05
-0.000123994
-2.57634e-05
-0.000116424
-2.75659e-05
-0.000108433
-2.91341e-05
-0.000100074
-3.04385e-05
-9.14064e-05
-3.14515e-05
-8.24963e-05
-3.21491e-05
-7.34153e-05
-3.25113e-05
-6.42404e-05
-3.25237e-05
-5.50524e-05
-3.21786e-05
-4.59351e-05
-3.14753e-05
-3.69734e-05
-3.04211e-05
-2.82518e-05
-2.90316e-05
-1.98526e-05
-2.73304e-05
-1.1854e-05
-2.53488e-05
-4.32852e-06
-2.31251e-05
2.65827e-06
-2.07032e-05
9.04948e-06
-1.81317e-05
1.47978e-05
-1.54622e-05
1.98666e-05
-1.27478e-05
2.42303e-05
-1.00414e-05
2.78753e-05
-7.39429e-06
3.08e-05
-4.8544e-06
3.30153e-05
-2.46529e-06
3.45438e-05
-2.64644e-07
3.54198e-05
1.71674e-06
3.56884e-05
3.45578e-06
3.54039e-05
4.9377e-06
3.46284e-05
6.15628e-06
3.34296e-05
7.11361e-06
3.18781e-05
7.81967e-06
3.00454e-05
8.29119e-06
2.8001e-05
8.55058e-06
2.58104e-05
8.62423e-06
2.35333e-05
8.54114e-06
2.12218e-05
8.33104e-06
1.89205e-05
8.02329e-06
1.6665e-05
7.64489e-06
1.44841e-05
7.22001e-06
1.23982e-05
6.76743e-06
1.04238e-05
6.30117e-06
8.57141e-06
5.8265e-06
6.85295e-06
5.34311e-06
5.27626e-06
4.83865e-06
3.85843e-06
4.29863e-06
2.61183e-06
3.69524e-06
1.56845e-06
3.01293e-06
7.49153e-07
2.22607e-06
2.12607e-07
1.35796e-06
4.27598e-07
1.86133e-07
-6.1268e-07
6.33359e-07
-1.66106e-06
1.27839e-06
-2.48849e-06
2.04033e-06
-3.08768e-06
2.86984e-06
-3.45194e-06
3.7079e-06
-3.59969e-06
4.51413e-06
-3.55165e-06
5.24743e-06
-3.34043e-06
5.87985e-06
-2.99806e-06
6.38673e-06
-2.55926e-06
6.75273e-06
-2.05496e-06
6.96618e-06
-1.51324e-06
7.02109e-06
-9.56239e-07
6.91343e-06
-4.00475e-07
6.64132e-06
1.44294e-07
6.20235e-06
6.74563e-07
5.59311e-06
1.19302e-06
4.80738e-06
1.70759e-06
3.83564e-06
2.2306e-06
2.66421e-06
2.77738e-06
1.27522e-06
3.36494e-06
-3.53343e-07
4.01052e-06
-2.24701e-06
4.73022e-06
-4.43412e-06
5.53793e-06
-6.94469e-06
6.44446e-06
-9.80931e-06
7.45711e-06
-1.30578e-05
8.5794e-06
-1.67182e-05
9.81112e-06
-2.08147e-05
1.11483e-05
-2.53672e-05
1.25835e-05
-3.03892e-05
1.41052e-05
-3.58866e-05
1.56984e-05
-4.18563e-05
1.73439e-05
-4.82851e-05
1.9019e-05
-5.51489e-05
2.0697e-05
-6.24124e-05
2.23482e-05
-7.0029e-05
2.39404e-05
-7.79419e-05
2.54403e-05
-8.6085e-05
2.68142e-05
-9.43853e-05
2.80299e-05
-0.000102765
2.90573e-05
-0.000111143
2.98702e-05
-0.000119441
3.04469e-05
-0.00012758
3.07705e-05
-0.000135487
3.08296e-05
-0.000143096
3.06181e-05
-0.000150347
3.01348e-05
-0.000157187
2.93829e-05
-0.000163574
2.83693e-05
-0.000169469
2.71037e-05
-0.000174843
2.55984e-05
-0.000179672
2.3867e-05
-0.000183937
2.19243e-05
-0.000187625
1.97857e-05
-0.000190723
1.74665e-05
-0.000193224
1.49825e-05
-0.000195122
1.23492e-05
-0.000196411
9.582e-06
-0.000197086
6.6964e-06
-0.000197146
3.70816e-06
-0.000196586
6.33435e-07
-0.000195405
-2.51087e-06
-0.000193601
-5.70682e-06
-0.000191173
-8.93513e-06
-0.00018812
-1.21748e-05
-0.000184446
-1.5403e-05
-0.000180154
-1.85946e-05
-0.00017525
-2.17222e-05
-0.000169744
-2.47558e-05
-0.00016365
-2.76632e-05
-0.000156987
-3.04102e-05
-0.000149778
-3.29604e-05
-0.000142055
-3.52768e-05
-0.000133855
-3.73216e-05
-0.000125222
-3.9058e-05
-0.00011621
-4.04509e-05
-0.000106877
-4.14683e-05
-9.72914e-05
-4.2083e-05
-8.75279e-05
-4.22739e-05
-7.76662e-05
-4.20272e-05
-6.77912e-05
-4.13379e-05
-5.79902e-05
-4.02103e-05
-4.8352e-05
-3.86589e-05
-3.89642e-05
-3.67083e-05
-2.99115e-05
-3.43927e-05
-2.12738e-05
-3.1755e-05
-1.31245e-05
-2.88459e-05
-5.5291e-06
-2.57218e-05
1.45616e-06
-2.24434e-05
7.78482e-06
-1.90737e-05
1.34209e-05
-1.56758e-05
1.83391e-05
-1.23119e-05
2.25253e-05
-9.04103e-06
2.59764e-05
-5.91772e-06
2.87006e-05
-2.99088e-06
3.07171e-05
-3.02476e-07
3.20561e-05
2.11352e-06
3.27582e-05
4.23192e-06
3.28736e-05
6.03698e-06
3.24606e-05
7.52263e-06
3.15837e-05
8.69239e-06
3.0312e-05
9.55876e-06
2.87163e-05
1.01422e-05
2.68668e-05
1.04699e-05
2.48308e-05
1.05735e-05
2.26703e-05
1.04879e-05
2.04414e-05
1.0249e-05
1.8192e-05
9.89117e-06
1.5963e-05
9.44645e-06
1.37864e-05
8.94121e-06
1.16897e-05
8.39593e-06
9.69236e-06
7.82123e-06
7.81466e-06
7.21967e-06
6.07033e-06
6.58033e-06
4.48265e-06
5.88637e-06
3.06786e-06
5.10679e-06
1.86593e-06
4.21689e-06
9.0455e-07
3.18245e-06
2.61933e-07
2.00556e-06
6.8612e-07
1.98255e-07
-8.08985e-07
6.72963e-07
-2.14043e-06
1.35069e-06
-3.16337e-06
2.14009e-06
-3.87995e-06
2.98532e-06
-4.29616e-06
3.82185e-06
-4.43804e-06
4.60655e-06
-4.33623e-06
5.29614e-06
-4.03127e-06
5.86174e-06
-3.56392e-06
6.27774e-06
-2.97613e-06
6.52808e-06
-2.30564e-06
6.5999e-06
-1.58565e-06
6.48562e-06
-8.42243e-07
6.17889e-06
-9.41164e-08
5.67477e-06
6.4824e-07
4.96695e-06
1.38219e-06
4.0473e-06
2.1126e-06
2.90412e-06
2.85073e-06
1.52181e-06
3.61295e-06
-1.19817e-07
4.41908e-06
-2.04526e-06
5.29053e-06
-4.28296e-06
6.24842e-06
-6.86431e-06
7.31186e-06
-9.82251e-06
8.49648e-06
-1.3191e-05
9.81346e-06
-1.70022e-05
1.12688e-05
-2.12852e-05
1.28631e-05
-2.60648e-05
1.45916e-05
-3.13593e-05
1.64438e-05
-3.71788e-05
1.84042e-05
-4.35237e-05
2.04516e-05
-5.03833e-05
2.25596e-05
-5.77342e-05
2.46968e-05
-6.55404e-05
2.68275e-05
-7.37529e-05
2.8912e-05
-8.23105e-05
3.09086e-05
-9.11416e-05
3.27747e-05
-0.000100166
3.44686e-05
-0.0001093
3.59513e-05
-0.000118454
3.71882e-05
-0.000127542
3.81502e-05
-0.000136482
3.88149e-05
-0.000145196
3.91664e-05
-0.000153616
3.91959e-05
-0.000161682
3.89011e-05
-0.000169343
3.8285e-05
-0.000176558
3.73558e-05
-0.000183295
3.61252e-05
-0.000189527
3.46074e-05
-0.000195236
3.28188e-05
-0.000200408
3.07768e-05
-0.000205035
2.84989e-05
-0.000209108
2.60029e-05
-0.000212623
2.3306e-05
-0.000215577
2.0425e-05
-0.000217967
1.73761e-05
-0.000219789
1.41747e-05
-0.00022104
1.08362e-05
-0.000221717
7.37557e-06
-0.000221816
3.808e-06
-0.000221331
1.49082e-07
-0.000220257
-3.58475e-06
-0.00021859
-7.37588e-06
-0.000216322
-1.12051e-05
-0.000213448
-1.5051e-05
-0.000209965
-1.88902e-05
-0.000205868
-2.26961e-05
-0.000201156
-2.64396e-05
-0.00019583
-3.00881e-05
-0.000189894
-3.36059e-05
-0.000183358
-3.69545e-05
-0.000176234
-4.00924e-05
-0.000168543
-4.29762e-05
-0.000160313
-4.55612e-05
-0.000151578
-4.78024e-05
-0.000142382
-4.96562e-05
-0.000132778
-5.10817e-05
-0.000122829
-5.20423e-05
-0.000112604
-5.25082e-05
-0.000102183
-5.24574e-05
-9.16514e-05
-5.1878e-05
-8.11007e-05
-5.07692e-05
-7.06252e-05
-4.91422e-05
-6.03198e-05
-4.70207e-05
-5.02782e-05
-4.44405e-05
-4.05898e-05
-4.14488e-05
-3.13378e-05
-3.81024e-05
-2.25974e-05
-3.4466e-05
-1.4434e-05
-3.06097e-05
-6.90281e-06
-2.66069e-05
-4.80564e-08
-2.25318e-05
6.09693e-06
-1.84574e-05
1.15096e-05
-1.44534e-05
1.61778e-05
-1.0585e-05
2.00997e-05
-6.91134e-06
2.32834e-05
-3.48436e-06
2.57472e-05
-3.48028e-07
2.7519e-05
2.46264e-06
2.86364e-05
4.92233e-06
2.91459e-05
7.01593e-06
2.91024e-05
8.73887e-06
2.8567e-05
1.0097e-05
2.76063e-05
1.11059e-05
2.62888e-05
1.179e-05
2.46842e-05
1.21808e-05
2.28593e-05
1.23152e-05
2.08777e-05
1.2233e-05
1.87965e-05
1.19744e-05
1.66672e-05
1.1578e-05
1.45324e-05
1.10775e-05
1.24304e-05
1.05e-05
1.03905e-05
9.86209e-06
8.44204e-06
9.17024e-06
6.60627e-06
8.41614e-06
4.91406e-06
7.5812e-06
3.3875e-06
6.63186e-06
2.07536e-06
5.53302e-06
1.0132e-06
4.24031e-06
2.95469e-07
2.72994e-06
9.78578e-07
2.06066e-07
-1.01242e-06
6.95348e-07
-2.63384e-06
1.38566e-06
-3.84987e-06
2.17702e-06
-4.67333e-06
3.00758e-06
-5.12458e-06
3.80815e-06
-5.23933e-06
4.53313e-06
-5.05989e-06
5.13763e-06
-4.63588e-06
5.59218e-06
-4.0176e-06
5.87064e-06
-3.25446e-06
5.95644e-06
-2.39086e-06
5.83563e-06
-1.46466e-06
5.49891e-06
-5.0515e-07
4.93727e-06
4.67669e-07
4.14216e-06
1.44356e-06
3.10264e-06
2.42179e-06
1.80504e-06
3.4103e-06
2.31314e-07
4.42445e-06
-1.64097e-06
5.48523e-06
-3.83901e-06
6.61705e-06
-6.39402e-06
7.84544e-06
-9.34042e-06
9.19466e-06
-1.27143e-05
1.06855e-05
-1.65516e-05
1.23336e-05
-2.08866e-05
1.41481e-05
-2.57491e-05
1.61309e-05
-3.11632e-05
1.82767e-05
-3.71445e-05
2.05723e-05
-4.36986e-05
2.29972e-05
-5.08189e-05
2.55237e-05
-5.84856e-05
2.81172e-05
-6.66643e-05
3.0737e-05
-7.5306e-05
3.33371e-05
-8.43478e-05
3.58676e-05
-9.37145e-05
3.82768e-05
-0.000103321
4.0513e-05
-0.000113076
4.25272e-05
-0.000122885
4.42749e-05
-0.000132654
4.5718e-05
-0.000142296
4.68264e-05
-0.000151727
4.75783e-05
-0.000160876
4.79606e-05
-0.000169682
4.79683e-05
-0.000178093
4.76033e-05
-0.00018607
4.6874e-05
-0.000193582
4.5793e-05
-0.000200607
4.43766e-05
-0.000207129
4.26436e-05
-0.00021314
4.06136e-05
-0.000218632
3.83069e-05
-0.000223603
3.57435e-05
-0.00022805
3.2943e-05
-0.000231975
2.99238e-05
-0.000235376
2.67036e-05
-0.000238252
2.32987e-05
-0.000240604
1.97249e-05
-0.000242428
1.59969e-05
-0.000243723
1.21289e-05
-0.000244483
8.13485e-06
-0.000244705
4.02884e-06
-0.000244381
-1.7466e-07
-0.000243505
-4.46032e-06
-0.000242068
-8.8115e-06
-0.000240062
-1.32098e-05
-0.000237476
-1.76345e-05
-0.000234301
-2.20623e-05
-0.000230527
-2.64667e-05
-0.000226145
-3.08175e-05
-0.000221147
-3.5081e-05
-0.000215529
-3.92193e-05
-0.000209287
-4.31904e-05
-0.000202425
-4.69487e-05
-0.000194949
-5.04454e-05
-0.000186875
-5.36287e-05
-0.000178225
-5.64459e-05
-0.00016903
-5.88441e-05
-0.000159333
-6.0772e-05
-0.000149186
-6.21824e-05
-0.000138653
-6.3034e-05
-0.00012781
-6.32942e-05
-0.000116741
-6.29408e-05
-0.000105539
-6.19644e-05
-9.43065e-05
-6.03697e-05
-8.31457e-05
-5.81764e-05
-7.21621e-05
-5.54197e-05
-6.14582e-05
-5.21489e-05
-5.1131e-05
-4.84263e-05
-4.12696e-05
-4.43248e-05
-3.19523e-05
-3.99249e-05
-2.32457e-05
-3.53119e-05
-1.5204e-05
-3.05726e-05
-7.86847e-06
-2.57925e-05
-1.26842e-06
-2.10536e-05
4.57808e-06
-1.64321e-05
9.66332e-06
-1.19975e-05
1.39891e-05
-7.8114e-06
1.75662e-05
-3.92667e-06
2.04141e-05
-3.86967e-07
2.25608e-05
2.77384e-06
2.40425e-05
5.53222e-06
2.49039e-05
7.87547e-06
2.5197e-05
9.80183e-06
2.49805e-05
1.13205e-05
2.43178e-05
1.24507e-05
2.32757e-05
1.32211e-05
2.19216e-05
1.36675e-05
2.03222e-05
1.38308e-05
1.85401e-05
1.37548e-05
1.66343e-05
1.34826e-05
1.46564e-05
1.30538e-05
1.2654e-05
1.25016e-05
1.06659e-05
1.18486e-05
8.73076e-06
1.11052e-05
6.87818e-06
1.02667e-05
5.14736e-06
9.31303e-06
3.56752e-06
8.20862e-06
2.1961e-06
6.90748e-06
1.07651e-06
5.35436e-06
3.14995e-07
3.49778e-06
1.28973e-06
2.09598e-07
-1.21979e-06
7.01753e-07
-3.13071e-06
1.38615e-06
-4.531e-06
2.15547e-06
-5.44538e-06
2.9425e-06
-5.91019e-06
3.67422e-06
-5.9726e-06
4.30297e-06
-5.68813e-06
4.78277e-06
-5.11662e-06
5.08385e-06
-4.31858e-06
5.1798e-06
-3.351e-06
5.05361e-06
-2.26473e-06
4.6902e-06
-1.10163e-06
4.0783e-06
1.06653e-07
3.20583e-06
1.33992e-06
2.06003e-06
2.5893e-06
6.24658e-07
3.85704e-06
-1.12021e-06
5.15513e-06
-3.19949e-06
6.5037e-06
-5.64277e-06
7.92854e-06
-8.48412e-06
9.45843e-06
-1.17607e-05
1.11221e-05
-1.55114e-05
1.29455e-05
-1.97746e-05
1.49488e-05
-2.45857e-05
1.71449e-05
-2.99751e-05
1.95377e-05
-3.59652e-05
2.21214e-05
-4.25684e-05
2.48803e-05
-4.97846e-05
2.77889e-05
-5.75995e-05
3.08127e-05
-6.59834e-05
3.39082e-05
-7.489e-05
3.70247e-05
-8.42576e-05
4.01055e-05
-9.40097e-05
4.30903e-05
-0.000104058
4.59174e-05
-0.000114307
4.85266e-05
-0.000124654
5.08623e-05
-0.000135001
5.28756e-05
-0.000145251
5.45263e-05
-0.000155315
5.57846e-05
-0.000165117
5.66305e-05
-0.000174591
5.70544e-05
-0.000183684
5.70556e-05
-0.000192353
5.66408e-05
-0.00020057
5.58229e-05
-0.000208313
5.46193e-05
-0.000215567
5.30504e-05
-0.000222326
5.11384e-05
-0.000228586
4.89059e-05
-0.000234345
4.63759e-05
-0.000239606
4.35705e-05
-0.000244371
4.05107e-05
-0.000248642
3.72165e-05
-0.000252422
3.37063e-05
-0.000255713
2.99973e-05
-0.000258518
2.61055e-05
-0.000260837
2.20454e-05
-0.00026267
1.78309e-05
-0.000264015
1.34752e-05
-0.00026487
8.9907e-06
-0.000265232
4.39018e-06
-0.000265093
-3.13479e-07
-0.000264447
-5.10658e-06
-0.000263286
-9.97416e-06
-0.000261598
-1.48995e-05
-0.000259371
-1.98636e-05
-0.000256591
-2.48445e-05
-0.000253243
-2.98169e-05
-0.000249313
-3.47515e-05
-0.000244783
-3.96146e-05
-0.000239638
-4.43676e-05
-0.000233866
-4.89672e-05
-0.000227454
-5.3365e-05
-0.000220396
-5.75077e-05
-0.000212692
-6.13382e-05
-0.000204346
-6.47962e-05
-0.000195376
-6.78196e-05
-0.000185806
-7.03465e-05
-0.000175676
-7.23172e-05
-0.000165038
-7.36774e-05
-0.000153957
-7.43801e-05
-0.000142512
-7.43895e-05
-0.000130798
-7.36832e-05
-0.000118917
-7.22547e-05
-0.000106981
-7.01154e-05
-9.51089e-05
-6.7295e-05
-8.34186e-05
-6.38419e-05
-7.20258e-05
-5.98215e-05
-6.10388e-05
-5.53136e-05
-5.05556e-05
-5.04096e-05
-4.06604e-05
-4.52081e-05
-3.14226e-05
-3.98112e-05
-2.28954e-05
-3.43199e-05
-1.51174e-05
-2.88316e-05
-8.1125e-06
-2.34366e-05
-1.89262e-06
-1.82167e-05
3.54111e-06
-1.32443e-05
8.19669e-06
-8.58119e-06
1.209e-05
-4.27914e-06
1.52445e-05
-3.79311e-07
1.76904e-05
3.08772e-06
1.94651e-05
6.10221e-06
2.06128e-05
8.65551e-06
2.11846e-05
1.07501e-05
2.1237e-05
1.23996e-05
2.08319e-05
1.36276e-05
2.00335e-05
1.4467e-05
1.8908e-05
1.49576e-05
1.75201e-05
1.51436e-05
1.5933e-05
1.50709e-05
1.42044e-05
1.47831e-05
1.23894e-05
1.43178e-05
1.0535e-05
1.37031e-05
8.68859e-06
1.29532e-05
6.8882e-06
1.20664e-05
5.1815e-06
1.1022e-05
3.60553e-06
9.78248e-06
2.22568e-06
8.29132e-06
1.09251e-06
6.48255e-06
3.19411e-07
4.2779e-06
1.6057e-06
2.10027e-07
-1.42729e-06
6.94435e-07
-3.61943e-06
1.35511e-06
-5.188e-06
2.07858e-06
-6.17109e-06
2.79307e-06
-6.62275e-06
3.42278e-06
-6.60328e-06
3.91864e-06
-6.1829e-06
4.23424e-06
-5.43257e-06
4.33981e-06
-4.4235e-06
4.20892e-06
-3.22019e-06
3.82406e-06
-1.87948e-06
3.16883e-06
-4.46372e-07
2.22955e-06
1.04617e-06
9.90522e-07
2.57899e-06
-5.65838e-07
4.14579e-06
-2.46168e-06
5.75291e-06
-4.72367e-06
7.41717e-06
-7.38378e-06
9.16381e-06
-1.04784e-05
1.10232e-05
-1.40476e-05
1.30275e-05
-1.81325e-05
1.5207e-05
-2.27739e-05
1.75867e-05
-2.80084e-05
2.01832e-05
-3.38664e-05
2.30028e-05
-4.03686e-05
2.60397e-05
-4.75235e-05
2.92761e-05
-5.53252e-05
3.26816e-05
-6.37511e-05
3.62145e-05
-7.27612e-05
3.98224e-05
-8.22979e-05
4.34443e-05
-9.22866e-05
4.70128e-05
-0.000102639
5.04568e-05
-0.000113254
5.37051e-05
-0.000124027
5.66897e-05
-0.000134851
5.9349e-05
-0.00014562
6.16307e-05
-0.000156239
6.34936e-05
-0.000166623
6.49088e-05
-0.000176699
6.58591e-05
-0.000186409
6.63385e-05
-0.000195706
6.63504e-05
-0.000204559
6.59063e-05
-0.000212943
6.50234e-05
-0.000220846
6.37231e-05
-0.000228258
6.20294e-05
-0.000235177
5.99675e-05
-0.000241603
5.75632e-05
-0.000247541
5.48415e-05
-0.000252994
5.18269e-05
-0.000257968
4.85425e-05
-0.000262469
4.50099e-05
-0.000266503
4.12491e-05
-0.000270077
3.72785e-05
-0.000273196
3.31151e-05
-0.000275866
2.8774e-05
-0.000278091
2.42693e-05
-0.000279874
1.96137e-05
-0.000281219
1.48189e-05
-0.000282125
9.89624e-06
-0.000282591
4.85638e-06
-0.000282614
-2.89769e-07
-0.00028219
-5.53079e-06
-0.000281309
-1.08542e-05
-0.000279961
-1.6246e-05
-0.000278133
-2.16898e-05
-0.000275809
-2.71666e-05
-0.000272971
-3.26536e-05
-0.000269596
-3.81239e-05
-0.000265662
-4.3546e-05
-0.000261143
-4.88827e-05
-0.000256016
-5.40912e-05
-0.000250256
-5.91223e-05
-0.000243839
-6.39209e-05
-0.000236748
-6.8426e-05
-0.000228969
-7.25715e-05
-0.000220498
-7.62874e-05
-0.000211339
-7.95014e-05
-0.000201511
-8.21413e-05
-0.000191048
-8.41377e-05
-0.000179997
-8.54275e-05
-0.000168426
-8.59572e-05
-0.000156419
-8.56866e-05
-0.000144079
-8.45925e-05
-0.00013152
-8.26715e-05
-0.000118871
-7.99418e-05
-0.000106266
-7.64448e-05
-9.38426e-05
-7.22437e-05
-8.17327e-05
-6.74221e-05
-7.00609e-05
-6.20803e-05
-5.89377e-05
-5.63306e-05
-4.84564e-05
-5.0292e-05
-3.86909e-05
-4.40852e-05
-2.96953e-05
-3.78272e-05
-2.15049e-05
-3.16272e-05
-1.41381e-05
-2.5584e-05
-7.59906e-06
-1.97839e-05
-1.8804e-06
-1.43006e-05
3.03415e-06
-9.19452e-06
7.1681e-06
-4.51415e-06