/*--------------------------------*- C++ -*----------------------------------*\
| =========                 |                                                 |
| \\      /  F ield         | OpenFOAM: The Open Source CFD Toolbox           |
|  \\    /   O peration     | Version:  2406                                  |
|   \\  /    A nd           | Website:  www.openfoam.com                      |
|    \\/     M anipulation  |                                                 |
\*---------------------------------------------------------------------------*/
FoamFile
{
    version     2.0;
    format      ascii;
    arch        "LSB;label=32;scalar=64";
    class       volVectorField;
    location    "33.3";
    object      U;
}
// * * * * * * * * * * * * * * * * * * * * * * * * * * * * * * * * * * * * * //

dimensions      [0 1 -1 0 0 0 0];

internalField   nonuniform List<vector> 
3600
(
(-2.17094e-05 1.05612e-05 0)
(0.0003437 -0.000174276 0)
(0.00110048 -0.000279156 0)
(0.00197319 -0.000300264 0)
(0.00280406 -0.000245115 0)
(0.00339715 -0.000166217 0)
(0.00377772 -9.25677e-05 0)
(0.0039312 -4.76954e-05 0)
(0.00397459 -3.28249e-05 0)
(0.00393094 -3.88225e-05 0)
(0.00385947 -4.91838e-05 0)
(0.00371437 -4.79912e-05 0)
(0.00346096 -2.5366e-05 0)
(0.00300327 2.29103e-05 0)
(0.00227085 9.6085e-05 0)
(0.0011682 0.000193962 0)
(-0.000377534 0.000317065 0)
(-0.00245259 0.000466965 0)
(-0.00512437 0.000639497 0)
(-0.00845878 0.000824833 0)
(-0.0124937 0.00101321 0)
(-0.0172383 0.00120521 0)
(-0.0226444 0.00140873 0)
(-0.0285996 0.00162636 0)
(-0.0349132 0.00183992 0)
(-0.0413201 0.00200919 0)
(-0.0474895 0.00208191 0)
(-0.0530478 0.00201073 0)
(-0.0576087 0.00176438 0)
(-0.0608032 0.00133366 0)
(-0.06231 0.000730358 0)
(-0.0618776 -1.44978e-05 0)
(-0.0593485 -0.000854668 0)
(-0.054673 -0.00173064 0)
(-0.0479306 -0.00257367 0)
(-0.0393339 -0.00330873 0)
(-0.0292441 -0.00386117 0)
(-0.0181519 -0.00416376 0)
(-0.00667385 -0.00416742 0)
(0.00450893 -0.00385162 0)
(0.014685 -0.00323421 0)
(0.0232195 -0.00237661 0)
(0.0296002 -0.00137983 0)
(0.0335532 -0.000372266 0)
(0.03504 0.000516552 0)
(0.0343151 0.00118249 0)
(0.0318163 0.00157595 0)
(0.0281432 0.00170719 0)
(0.0238672 0.00163823 0)
(0.0195233 0.0014482 0)
(0.0154456 0.00121054 0)
(0.0118773 0.000971427 0)
(0.00885495 0.000759563 0)
(0.00641189 0.000582091 0)
(0.00443094 0.000447046 0)
(0.00288418 0.000341938 0)
(0.00163646 0.000264316 0)
(0.00071309 0.000167467 0)
(0.000106685 5.15299e-05 0)
(-8.95072e-05 -9.8034e-05 0)
(0.000141708 -0.000326535 0)
(0.00113134 -0.00116049 0)
(0.00277395 -0.00159489 0)
(0.00453387 -0.00163486 0)
(0.0061499 -0.00133384 0)
(0.00726968 -0.000885642 0)
(0.00789335 -0.000431665 0)
(0.00797004 -7.10081e-05 0)
(0.00764755 0.000176939 0)
(0.00693851 0.00035687 0)
(0.0058893 0.00054282 0)
(0.00438009 0.000817431 0)
(0.00228348 0.00123283 0)
(-0.000624841 0.00181832 0)
(-0.0045408 0.00257399 0)
(-0.0096859 0.0034951 0)
(-0.01623 0.00456427 0)
(-0.0243213 0.00576046 0)
(-0.0340194 0.00704831 0)
(-0.0452811 0.00838319 0)
(-0.0578956 0.00969186 0)
(-0.071488 0.0108672 0)
(-0.0855316 0.0117696 0)
(-0.0994118 0.0122586 0)
(-0.112486 0.0122161 0)
(-0.124153 0.0115684 0)
(-0.13389 0.010287 0)
(-0.141276 0.00838981 0)
(-0.145995 0.00593111 0)
(-0.147826 0.00299769 0)
(-0.146637 -0.00030064 0)
(-0.142374 -0.00383108 0)
(-0.135066 -0.00744295 0)
(-0.124824 -0.0109646 0)
(-0.111854 -0.0142086 0)
(-0.0964636 -0.016973 0)
(-0.0790833 -0.019055 0)
(-0.0602561 -0.0202639 0)
(-0.0406554 -0.0204496 0)
(-0.0210386 -0.0195264 0)
(-0.00224218 -0.0175056 0)
(0.0149154 -0.0145118 0)
(0.0296549 -0.0107891 0)
(0.0413711 -0.0066816 0)
(0.0496314 -0.00258793 0)
(0.054308 0.00109611 0)
(0.0555098 0.00405186 0)
(0.0536803 0.00608695 0)
(0.0494292 0.00717296 0)
(0.043579 0.0074237 0)
(0.0368859 0.00705613 0)
(0.0301006 0.00630871 0)
(0.023676 0.00540119 0)
(0.0179844 0.00448112 0)
(0.0130664 0.00365564 0)
(0.00900598 0.00293829 0)
(0.00564204 0.00233374 0)
(0.00304068 0.00169873 0)
(0.00112327 0.0010055 0)
(0.000109948 0.000138745 0)
(0.000252256 -0.00106156 0)
(0.00164084 -0.00283567 0)
(0.00380874 -0.00369305 0)
(0.00597328 -0.00365477 0)
(0.00782284 -0.00290414 0)
(0.00891855 -0.00180249 0)
(0.00925297 -0.000658958 0)
(0.00874103 0.000340545 0)
(0.0075044 0.00115312 0)
(0.00549391 0.00188733 0)
(0.00267134 0.00270599 0)
(-0.00119366 0.00379434 0)
(-0.00634576 0.00526591 0)
(-0.0131162 0.0071814 0)
(-0.0217811 0.0095279 0)
(-0.0325924 0.0122646 0)
(-0.0456654 0.0153027 0)
(-0.0609522 0.0185153 0)
(-0.0781425 0.0216958 0)
(-0.0966831 0.0245703 0)
(-0.115824 0.026826 0)
(-0.134751 0.0281937 0)
(-0.152687 0.0284888 0)
(-0.168985 0.0276352 0)
(-0.18315 0.025641 0)
(-0.194838 0.02258 0)
(-0.203827 0.0185595 0)
(-0.209982 0.0137104 0)
(-0.213231 0.00817201 0)
(-0.213536 0.00209597 0)
(-0.210883 -0.0043578 0)
(-0.205274 -0.0110097 0)
(-0.196735 -0.0176598 0)
(-0.185321 -0.0240749 0)
(-0.171142 -0.0299917 0)
(-0.154377 -0.0351116 0)
(-0.135307 -0.0391204 0)
(-0.114324 -0.0417032 0)
(-0.0919636 -0.0425893 0)
(-0.0688815 -0.0415889 0)
(-0.0458601 -0.0386513 0)
(-0.0237269 -0.0338942 0)
(-0.00333664 -0.027629 0)
(0.014562 -0.0203351 0)
(0.0293266 -0.0126124 0)
(0.0405562 -0.00510089 0)
(0.0480232 0.00160793 0)
(0.0518026 0.0070436 0)
(0.0521452 0.010923 0)
(0.0496187 0.0131757 0)
(0.0448839 0.0139495 0)
(0.0388038 0.0135523 0)
(0.0320821 0.0123819 0)
(0.0254309 0.0108133 0)
(0.0191855 0.00916115 0)
(0.0136941 0.00758108 0)
(0.00892056 0.00613584 0)
(0.00507189 0.00464444 0)
(0.0020533 0.0029875 0)
(0.000308511 0.000915568 0)
(0.00032446 -0.00198345 0)
(0.0019411 -0.00478226 0)
(0.00431078 -0.00596703 0)
(0.00644384 -0.00563707 0)
(0.00800832 -0.00420236 0)
(0.0085343 -0.00219972 0)
(0.00802731 -0.000110715 0)
(0.00636668 0.00182822 0)
(0.00360438 0.00358125 0)
(-0.000426261 0.00535629 0)
(-0.00590814 0.00741991 0)
(-0.0132094 0.0100557 0)
(-0.0226769 0.013408 0)
(-0.0346681 0.0175187 0)
(-0.0493808 0.0222885 0)
(-0.0668256 0.0275324 0)
(-0.0866875 0.0329241 0)
(-0.108338 0.0380299 0)
(-0.130889 0.0423474 0)
(-0.153387 0.0454457 0)
(-0.174961 0.0470336 0)
(-0.194943 0.0469985 0)
(-0.212874 0.0453584 0)
(-0.228479 0.0422269 0)
(-0.241614 0.0377557 0)
(-0.252216 0.0321159 0)
(-0.260266 0.0254699 0)
(-0.26576 0.0179758 0)
(-0.268695 0.00977845 0)
(-0.269052 0.00102599 0)
(-0.266801 -0.00812999 0)
(-0.261891 -0.0175124 0)
(-0.254272 -0.0269146 0)
(-0.243888 -0.0360778 0)
(-0.230715 -0.0446914 0)
(-0.214767 -0.0523809 0)
(-0.196148 -0.058728 0)
(-0.175065 -0.0632857 0)
(-0.151884 -0.0656356 0)
(-0.12713 -0.0654391 0)
(-0.10152 -0.0625235 0)
(-0.0758934 -0.0569355 0)
(-0.051195 -0.0489932 0)
(-0.0283236 -0.039263 0)
(-0.00809047 -0.0285037 0)
(0.00893664 -0.0175506 0)
(0.0223737 -0.00720494 0)
(0.0321165 0.00185685 0)
(0.03818 0.00914031 0)
(0.0408424 0.0143641 0)
(0.0404672 0.0174847 0)
(0.0377077 0.0186939 0)
(0.0331955 0.0183777 0)
(0.0277449 0.01702 0)
(0.0218856 0.0151038 0)
(0.0162323 0.012976 0)
(0.0109481 0.0108141 0)
(0.00645524 0.00848904 0)
(0.00272997 0.00575447 0)
(0.000458484 0.00216647 0)
(0.000367037 -0.0030808 0)
(0.00205974 -0.00692582 0)
(0.00435032 -0.00826472 0)
(0.00608332 -0.00735243 0)
(0.00691479 -0.00492565 0)
(0.00638073 -0.00171104 0)
(0.00450042 0.00164137 0)
(0.0011124 0.00489891 0)
(-0.00383958 0.00808067 0)
(-0.0106716 0.0115357 0)
(-0.0197263 0.0156325 0)
(-0.0314621 0.0207096 0)
(-0.0462068 0.0268519 0)
(-0.0641201 0.0339507 0)
(-0.0850052 0.0416345 0)
(-0.108291 0.0493583 0)
(-0.133046 0.0564257 0)
(-0.158194 0.0621865 0)
(-0.182726 0.0661455 0)
(-0.205863 0.0680597 0)
(-0.227089 0.0678821 0)
(-0.246116 0.0657229 0)
(-0.262812 0.0617618 0)
(-0.277143 0.0562192 0)
(-0.289133 0.0493059 0)
(-0.298824 0.0412235 0)
(-0.306269 0.0321416 0)
(-0.311508 0.0222144 0)
(-0.314572 0.0115723 0)
(-0.315459 0.000345774 0)
(-0.314146 -0.0113347 0)
(-0.31057 -0.0233103 0)
(-0.304638 -0.0353884 0)
(-0.296221 -0.0473117 0)
(-0.285175 -0.0587538 0)
(-0.271348 -0.0692953 0)
(-0.25463 -0.0784374 0)
(-0.234976 -0.0856077 0)
(-0.212489 -0.0902198 0)
(-0.187453 -0.0917325 0)
(-0.160411 -0.0897647 0)
(-0.132153 -0.0841876 0)
(-0.103714 -0.0752294 0)
(-0.0762355 -0.0634878 0)
(-0.0508517 -0.0498874 0)
(-0.0284559 -0.0355181 0)
(-0.0096568 -0.0214601 0)
(0.00533255 -0.00862008 0)
(0.0164916 0.00233043 0)
(0.0240357 0.0109667 0)
(0.0281906 0.01709 0)
(0.0294138 0.020747 0)
(0.0281509 0.0222076 0)
(0.02512 0.0219402 0)
(0.0208613 0.0204839 0)
(0.0161174 0.0183345 0)
(0.0112105 0.0157746 0)
(0.00676723 0.0127742 0)
(0.00290161 0.0089536 0)
(0.000493233 0.00367322 0)
(0.000394565 -0.0041918 0)
(0.00201065 -0.00890885 0)
(0.00390581 -0.0100793 0)
(0.00483431 -0.0082023 0)
(0.00446456 -0.00443235 0)
(0.00238159 0.000318107 0)
(-0.00140112 0.00527165 0)
(-0.00710677 0.0102791 0)
(-0.0149439 0.0154705 0)
(-0.0253769 0.0213461 0)
(-0.0388461 0.0283066 0)
(-0.0557289 0.0366044 0)
(-0.0760658 0.046066 0)
(-0.0994919 0.0562069 0)
(-0.125175 0.0662142 0)
(-0.151983 0.0752084 0)
(-0.17873 0.0823929 0)
(-0.204422 0.0872708 0)
(-0.228365 0.0896224 0)
(-0.250147 0.0894857 0)
(-0.269576 0.0870309 0)
(-0.286596 0.0825189 0)
(-0.301245 0.0762184 0)
(-0.313609 0.0684017 0)
(-0.323808 0.0593019 0)
(-0.33197 0.0491285 0)
(-0.338229 0.0380445 0)
(-0.3427 0.0261897 0)
(-0.345483 0.0136684 0)
(-0.346639 0.000578288 0)
(-0.346193 -0.0129939 0)
(-0.344107 -0.0269379 0)
(-0.340291 -0.0411154 0)
(-0.334578 -0.0553205 0)
(-0.326741 -0.0692696 0)
(-0.316478 -0.0825626 0)
(-0.303462 -0.0946829 0)
(-0.287352 -0.104983 0)
(-0.267889 -0.112729 0)
(-0.244959 -0.117152 0)
(-0.218724 -0.117572 0)
(-0.189684 -0.11353 0)
(-0.15877 -0.104963 0)
(-0.127265 -0.0923004 0)
(-0.0967047 -0.076508 0)
(-0.0685605 -0.0589375 0)
(-0.0440107 -0.0410829 0)
(-0.0236571 -0.0242591 0)
(-0.00763185 -0.00942621 0)
(0.00434352 0.00285349 0)
(0.0125877 0.012303 0)
(0.0175563 0.0188939 0)
(0.0196093 0.0227822 0)
(0.0193446 0.0243566 0)
(0.0172282 0.024109 0)
(0.0140052 0.0225922 0)
(0.0100848 0.0201341 0)
(0.00622341 0.01679 0)
(0.00268771 0.0120585 0)
(0.000450299 0.00514523 0)
(0.000399079 -0.00531622 0)
(0.00175333 -0.0106034 0)
(0.00291409 -0.0111826 0)
(0.00264591 -0.00790677 0)
(0.000649386 -0.0024116 0)
(-0.00341375 0.00423766 0)
(-0.00957747 0.0112032 0)
(-0.0181458 0.0184983 0)
(-0.0294873 0.0263872 0)
(-0.0441228 0.0354563 0)
(-0.0624044 0.0459686 0)
(-0.0843442 0.0578532 0)
(-0.109425 0.0704482 0)
(-0.136639 0.0827957 0)
(-0.164703 0.0937835 0)
(-0.192356 0.102536 0)
(-0.218608 0.108492 0)
(-0.242797 0.111479 0)
(-0.264559 0.111561 0)
(-0.283734 0.108986 0)
(-0.300319 0.104059 0)
(-0.314395 0.0971296 0)
(-0.326123 0.0885209 0)
(-0.335697 0.0785421 0)
(-0.343345 0.0674448 0)
(-0.349289 0.0554462 0)
(-0.353756 0.0427007 0)
(-0.356935 0.0293297 0)
(-0.358997 0.0154057 0)
(-0.360058 0.00098566 0)
(-0.360196 -0.0138963 0)
(-0.35942 -0.0291914 0)
(-0.357677 -0.0448358 0)
(-0.35482 -0.0607057 0)
(-0.350612 -0.0766068 0)
(-0.344697 -0.0922235 0)
(-0.336614 -0.107104 0)
(-0.325799 -0.120619 0)
(-0.311648 -0.131977 0)
(-0.293586 -0.140241 0)
(-0.271222 -0.144432 0)
(-0.244484 -0.143666 0)
(-0.213819 -0.137375 0)
(-0.180267 -0.125516 0)
(-0.145491 -0.108765 0)
(-0.111524 -0.0885094 0)
(-0.080419 -0.0666612 0)
(-0.053698 -0.0451976 0)
(-0.0321017 -0.0257211 0)
(-0.01551 -0.00917591 0)
(-0.0034209 0.00404004 0)
(0.00485593 0.0139177 0)
(0.00982978 0.0206081 0)
(0.0121108 0.0244724 0)
(0.0121351 0.0259355 0)
(0.0106043 0.0255438 0)
(0.00796461 0.0236076 0)
(0.00501815 0.0202216 0)
(0.0021579 0.0147895 0)
(0.000341093 0.00642708 0)
(0.000362565 -0.00625884 0)
(0.00121009 -0.0115999 0)
(0.00124782 -0.0110585 0)
(-0.000616939 -0.00592184 0)
(-0.00464351 0.00168119 0)
(-0.0110779 0.0106029 0)
(-0.0200528 0.0200319 0)
(-0.0319451 0.0301909 0)
(-0.0472211 0.0414214 0)
(-0.0662622 0.054215 0)
(-0.0890711 0.0684398 0)
(-0.115058 0.083483 0)
(-0.143113 0.0981556 0)
(-0.171825 0.111232 0)
(-0.19987 0.121652 0)
(-0.226202 0.128833 0)
(-0.25016 0.132559 0)
(-0.271363 0.132956 0)
(-0.289678 0.1303 0)
(-0.305118 0.124995 0)
(-0.317841 0.117452 0)
(-0.328074 0.108106 0)
(-0.336123 0.0973299 0)
(-0.342298 0.0854642 0)
(-0.34693 0.0727636 0)
(-0.350311 0.0594329 0)
(-0.352717 0.0455979 0)
(-0.35437 0.0313452 0)
(-0.355466 0.0167039 0)
(-0.35614 0.0016852 0)
(-0.356505 -0.0137309 0)
(-0.356608 -0.0295569 0)
(-0.356455 -0.0458054 0)
(-0.355966 -0.0624454 0)
(-0.354981 -0.0793975 0)
(-0.353204 -0.096479 0)
(-0.350199 -0.113381 0)
(-0.345348 -0.129606 0)
(-0.337875 -0.144444 0)
(-0.326861 -0.156942 0)
(-0.311383 -0.165951 0)
(-0.290656 -0.170211 0)
(-0.264305 -0.168567 0)
(-0.232602 -0.160237 0)
(-0.196709 -0.145149 0)
(-0.158673 -0.124189 0)
(-0.121212 -0.0992647 0)
(-0.0870722 -0.0729565 0)
(-0.0583321 -0.0478806 0)
(-0.035787 -0.025928 0)
(-0.019129 -0.00801172 0)
(-0.00739306 0.00578939 0)
(0.000321769 0.0157242 0)
(0.00487019 0.0222532 0)
(0.00681829 0.0258069 0)
(0.00687939 0.0269226 0)
(0.00554269 0.0258667 0)
(0.00360347 0.0227284 0)
(0.00154306 0.0168569 0)
(0.000222732 0.00735812 0)
(0.000266577 -0.00692701 0)
(0.000325417 -0.0116605 0)
(-0.00114268 -0.00943121 0)
(-0.00494474 -0.00199847 0)
(-0.0113181 0.00807514 0)
(-0.0204134 0.0196555 0)
(-0.0324992 0.0320295 0)
(-0.0479551 0.0455958 0)
(-0.0671947 0.0606062 0)
(-0.0902113 0.0771963 0)
(-0.116473 0.0946286 0)
(-0.144783 0.111732 0)
(-0.173693 0.127018 0)
(-0.201746 0.139334 0)
(-0.22786 0.147926 0)
(-0.251282 0.152586 0)
(-0.271636 0.153407 0)
(-0.288761 0.150757 0)
(-0.30274 0.145092 0)
(-0.313776 0.136957 0)
(-0.322217 0.126865 0)
(-0.328441 0.115311 0)
(-0.332877 0.102689 0)
(-0.335906 0.0893344 0)
(-0.337894 0.0754703 0)
(-0.339131 0.0612621 0)
(-0.339876 0.0467889 0)
(-0.340316 0.0320949 0)
(-0.340618 0.0171685 0)
(-0.340893 0.00198646 0)
(-0.34125 -0.0135061 0)
(-0.341749 -0.0293581 0)
(-0.342447 -0.0456295 0)
(-0.34334 -0.0623544 0)
(-0.344386 -0.0795472 0)
(-0.345433 -0.0971547 0)
(-0.346213 -0.115039 0)
(-0.346254 -0.132906 0)
(-0.344867 -0.150263 0)
(-0.341089 -0.166334 0)
(-0.333737 -0.180038 0)
(-0.321486 -0.189986 0)
(-0.303122 -0.194605 0)
(-0.277835 -0.192363 0)
(-0.245654 -0.18217 0)
(-0.207758 -0.163818 0)
(-0.166645 -0.138416 0)
(-0.125787 -0.108459 0)
(-0.0888445 -0.0774206 0)
(-0.0584615 -0.0486704 0)
(-0.0355427 -0.0244636 0)
(-0.0193409 -0.00549782 0)
(-0.00851908 0.00847448 0)
(-0.00173048 0.0181479 0)
(0.00195948 0.0241183 0)
(0.00342559 0.0270033 0)
(0.00326526 0.0270664 0)
(0.00226822 0.0243849 0)
(0.000972869 0.0183081 0)
(0.000118883 0.00798905 0)
(8.62683e-05 -0.00704466 0)
(-0.000959899 -0.010333 0)
(-0.00429634 -0.00584131 0)
(-0.0103128 0.00427274 0)
(-0.0192654 0.0171455 0)
(-0.0312019 0.031748 0)
(-0.0465203 0.0474818 0)
(-0.0654637 0.0647808 0)
(-0.0882066 0.0835666 0)
(-0.114176 0.103399 0)
(-0.142318 0.122913 0)
(-0.171044 0.140597 0)
(-0.19889 0.154987 0)
(-0.224591 0.165251 0)
(-0.24738 0.171022 0)
(-0.266772 0.172441 0)
(-0.28266 0.169879 0)
(-0.295119 0.163931 0)
(-0.304481 0.155227 0)
(-0.311148 0.144438 0)
(-0.315643 0.132139 0)
(-0.318439 0.118839 0)
(-0.320015 0.104903 0)
(-0.320739 0.090613 0)
(-0.320941 0.0761265 0)
(-0.32084 0.0615455 0)
(-0.320628 0.0468909 0)
(-0.320415 0.0321631 0)
(-0.320309 0.017316 0)
(-0.320371 0.00230473 0)
(-0.320681 -0.0129417 0)
(-0.321287 -0.0284843 0)
(-0.322265 -0.0443997 0)
(-0.323663 -0.0607496 0)
(-0.325531 -0.0775994 0)
(-0.32786 -0.0949824 0)
(-0.330581 -0.112898 0)
(-0.333473 -0.131252 0)
(-0.336124 -0.149815 0)
(-0.337822 -0.16812 0)
(-0.337518 -0.185384 0)
(-0.333786 -0.200408 0)
(-0.324948 -0.211573 0)
(-0.30929 -0.216923 0)
(-0.285512 -0.214461 0)
(-0.253257 -0.20264 0)
(-0.213686 -0.18103 0)
(-0.169717 -0.150931 0)
(-0.125739 -0.115614 0)
(-0.0864101 -0.0796447 0)
(-0.0550418 -0.0473808 0)
(-0.0323985 -0.0212933 0)
(-0.017251 -0.00180867 0)
(-0.00768443 0.0119243 0)
(-0.0021417 0.0208426 0)
(0.000640482 0.0258197 0)
(0.00149878 0.0272383 0)
(0.00128247 0.0252158 0)
(0.000586201 0.0191685 0)
(6.11415e-05 0.00834303 0)
(-0.000186179 -0.0064418 0)
(-0.00262439 -0.00737922 0)
(-0.00809871 -0.000118374 0)
(-0.0164841 0.012971 0)
(-0.0281082 0.0289093 0)
(-0.042889 0.0468208 0)
(-0.0612958 0.0661574 0)
(-0.0832625 0.0871671 0)
(-0.108587 0.109227 0)
(-0.13611 0.131255 0)
(-0.164446 0.151446 0)
(-0.191888 0.168245 0)
(-0.217191 0.180477 0)
(-0.239355 0.18772 0)
(-0.25794 0.189992 0)
(-0.272732 0.187765 0)
(-0.283928 0.181683 0)
(-0.291861 0.172556 0)
(-0.297103 0.161153 0)
(-0.300205 0.148208 0)
(-0.301777 0.134289 0)
(-0.302293 0.11985 0)
(-0.302191 0.105173 0)
(-0.30175 0.0904486 0)
(-0.301206 0.0757493 0)
(-0.300672 0.0611091 0)
(-0.300252 0.0464965 0)
(-0.299972 0.0318797 0)
(-0.29988 0.0171941 0)
(-0.299984 0.00239052 0)
(-0.30033 -0.0125989 0)
(-0.300944 -0.0278253 0)
(-0.301897 -0.0433559 0)
(-0.303251 -0.0592461 0)
(-0.305102 -0.0755676 0)
(-0.307525 -0.0923833 0)
(-0.310595 -0.109761 0)
(-0.314306 -0.127737 0)
(-0.318547 -0.146292 0)
(-0.322981 -0.165267 0)
(-0.326967 -0.184277 0)
(-0.329418 -0.202558 0)
(-0.32877 -0.218843 0)
(-0.32301 -0.231278 0)
(-0.309954 -0.237492 0)
(-0.287734 -0.234912 0)
(-0.255552 -0.221418 0)
(-0.214461 -0.196247 0)
(-0.167869 -0.160963 0)
(-0.121175 -0.119814 0)
(-0.0802058 -0.0788542 0)
(-0.0487725 -0.0434528 0)
(-0.027276 -0.0162144 0)
(-0.0137052 0.00316376 0)
(-0.00574754 0.0159691 0)
(-0.00150005 0.0235574 0)
(0.000304891 0.0266345 0)
(0.000710792 0.0254895 0)
(0.00040896 0.0196884 0)
(5.01802e-05 0.00858857 0)
(-0.000558963 -0.0048258 0)
(-0.004635 -0.00244961 0)
(-0.0124173 0.00800104 0)
(-0.023212 0.0242709 0)
(-0.0374604 0.0434622 0)
(-0.0548947 0.0648289 0)
(-0.0759644 0.0877339 0)
(-0.100155 0.112011 0)
(-0.126868 0.136398 0)
(-0.15448 0.159286 0)
(-0.181526 0.178711 0)
(-0.206393 0.193345 0)
(-0.228161 0.202427 0)
(-0.246118 0.205966 0)
(-0.260172 0.204366 0)
(-0.270401 0.198426 0)
(-0.277322 0.189042 0)
(-0.281484 0.17719 0)
(-0.283621 0.163697 0)
(-0.284326 0.149276 0)
(-0.284194 0.13441 0)
(-0.283605 0.119445 0)
(-0.282894 0.104543 0)
(-0.282209 0.0897949 0)
(-0.281682 0.0751912 0)
(-0.281323 0.0607089 0)
(-0.281165 0.04628 0)
(-0.281168 0.0318554 0)
(-0.281342 0.0173657 0)
(-0.281654 0.00276767 0)
(-0.28213 -0.0119943 0)
(-0.282772 -0.0269542 0)
(-0.28364 -0.0421595 0)
(-0.284783 -0.0576458 0)
(-0.286306 -0.0734682 0)
(-0.288305 -0.0896826 0)
(-0.290917 -0.10637 0)
(-0.294252 -0.123615 0)
(-0.2984 -0.141511 0)
(-0.303328 -0.160106 0)
(-0.308821 -0.179341 0)
(-0.314309 -0.198918 0)
(-0.31875 -0.218126 0)
(-0.320473 -0.23564 0)
(-0.317211 -0.249366 0)
(-0.306315 -0.256459 0)
(-0.285358 -0.253676 0)
(-0.253055 -0.238188 0)
(-0.210373 -0.208869 0)
(-0.161291 -0.167664 0)
(-0.112433 -0.120255 0)
(-0.0708305 -0.0745051 0)
(-0.0405327 -0.0368848 0)
(-0.0210318 -0.00945522 0)
(-0.00953032 0.00883991 0)
(-0.0033018 0.0199813 0)
(-0.000429097 0.0252473 0)
(0.00052248 0.0253113 0)
(0.000435971 0.0199995 0)
(8.61804e-05 0.00880637 0)
(-0.00100817 -0.0020624 0)
(-0.00685449 0.00452324 0)
(-0.0169627 0.0184455 0)
(-0.0300565 0.0379756 0)
(-0.0467124 0.0604704 0)
(-0.066403 0.0852186 0)
(-0.0894696 0.111333 0)
(-0.114888 0.138078 0)
(-0.141753 0.163606 0)
(-0.168172 0.186001 0)
(-0.192816 0.203419 0)
(-0.214283 0.214919 0)
(-0.232025 0.220211 0)
(-0.245635 0.21974 0)
(-0.25539 0.214291 0)
(-0.261656 0.204964 0)
(-0.265211 0.192845 0)
(-0.266721 0.178972 0)
(-0.26697 0.164135 0)
(-0.266479 0.148939 0)
(-0.265747 0.133725 0)
(-0.265003 0.1187 0)
(-0.26446 0.103908 0)
(-0.264138 0.0893503 0)
(-0.264084 0.074955 0)
(-0.264228 0.060665 0)
(-0.264562 0.0463965 0)
(-0.265008 0.032099 0)
(-0.265557 0.0177104 0)
(-0.266157 0.003201 0)
(-0.266821 -0.0114677 0)
(-0.267536 -0.0263096 0)
(-0.268347 -0.0413496 0)
(-0.269284 -0.056599 0)
(-0.270435 -0.0720857 0)
(-0.271883 -0.0878407 0)
(-0.273771 -0.103923 0)
(-0.276239 -0.120416 0)
(-0.279466 -0.137438 0)
(-0.283591 -0.155132 0)
(-0.288694 -0.173631 0)
(-0.294649 -0.192981 0)
(-0.301 -0.212986 0)
(-0.306734 -0.232996 0)
(-0.310127 -0.251618 0)
(-0.308668 -0.266483 0)
(-0.299283 -0.274202 0)
(-0.278998 -0.27074 0)
(-0.246078 -0.25248 0)
(-0.201505 -0.21794 0)
(-0.150054 -0.169837 0)
(-0.0998229 -0.115825 0)
(-0.0590097 -0.0661306 0)
(-0.0312193 -0.0276627 0)
(-0.0145284 -0.00149973 0)
(-0.00538878 0.0147108 0)
(-0.00105163 0.0230438 0)
(0.00053311 0.0248277 0)
(0.000585276 0.0203014 0)
(0.000150674 0.00913577 0)
(-0.00151201 0.00202561 0)
(-0.00916267 0.0136503 0)
(-0.021491 0.0312102 0)
(-0.0366548 0.0539809 0)
(-0.0553551 0.0796951 0)
(-0.0767386 0.107531 0)
(-0.100989 0.136217 0)
(-0.126606 0.164399 0)
(-0.152529 0.189816 0)
(-0.176786 0.210495 0)
(-0.198327 0.224924 0)
(-0.216017 0.232633 0)
(-0.229704 0.233827 0)
(-0.23929 0.229381 0)
(-0.245409 0.22044 0)
(-0.24864 0.208324 0)
(-0.24992 0.194201 0)
(-0.249909 0.179065 0)
(-0.249335 0.163576 0)
(-0.24857 0.148175 0)
(-0.247976 0.133042 0)
(-0.247628 0.118251 0)
(-0.247632 0.103748 0)
(-0.247909 0.0894713 0)
(-0.248456 0.0753148 0)
(-0.249159 0.0612084 0)
(-0.249997 0.0470686 0)
(-0.250876 0.0328527 0)
(-0.251789 0.0185112 0)
(-0.252676 0.00402778 0)
(-0.253552 -0.0106207 0)
(-0.254389 -0.025433 0)
(-0.255226 -0.0404164 0)
(-0.25607 -0.0555636 0)
(-0.256988 -0.0708788 0)
(-0.258031 -0.0863664 0)
(-0.259314 -0.102053 0)
(-0.260954 -0.11799 0)
(-0.263134 -0.134271 0)
(-0.266044 -0.151044 0)
(-0.269908 -0.168509 0)
(-0.274874 -0.18689 0)
(-0.280935 -0.206341 0)
(-0.287717 -0.226781 0)
(-0.294253 -0.247593 0)
(-0.298732 -0.267281 0)
(-0.298392 -0.28311 0)
(-0.289743 -0.291011 0)
(-0.269289 -0.286037 0)
(-0.234976 -0.263699 0)
(-0.18802 -0.22242 0)
(-0.134404 -0.166243 0)
(-0.08399 -0.105863 0)
(-0.0457994 -0.0537982 0)
(-0.0218683 -0.0166249 0)
(-0.00851799 0.00686169 0)
(-0.00200959 0.019619 0)
(0.000503024 0.0239165 0)
(0.00076029 0.0205922 0)
(0.000226776 0.0095925 0)
(-0.00201473 0.00740691 0)
(-0.0113533 0.0247352 0)
(-0.0256492 0.0459486 0)
(-0.042529 0.0717958 0)
(-0.0627879 0.100457 0)
(-0.0852037 0.130856 0)
(-0.109802 0.161271 0)
(-0.134701 0.189791 0)
(-0.158851 0.21396 0)
(-0.180341 0.231964 0)
(-0.198481 0.242759 0)
(-0.212423 0.246378 0)
(-0.222416 0.24353 0)
(-0.228644 0.235488 0)
(-0.23203 0.22368 0)
(-0.233255 0.209532 0)
(-0.233299 0.194178 0)
(-0.23271 0.178463 0)
(-0.232096 0.162869 0)
(-0.231647 0.147649 0)
(-0.231597 0.132838 0)
(-0.231889 0.1184 0)
(-0.232556 0.104216 0)
(-0.233459 0.0901913 0)
(-0.234577 0.0762116 0)
(-0.23578 0.062209 0)
(-0.23705 0.0481121 0)
(-0.238294 0.0338906 0)
(-0.239514 0.0195101 0)
(-0.24065 0.00496697 0)
(-0.241721 -0.00974845 0)
(-0.242695 -0.0246237 0)
(-0.243605 -0.0396527 0)
(-0.244442 -0.0548155 0)
(-0.245257 -0.0700986 0)
(-0.24607 -0.0854866 0)
(-0.246961 -0.100976 0)
(-0.248004 -0.116583 0)
(-0.249342 -0.132357 0)
(-0.251139 -0.148404 0)
(-0.253637 -0.164897 0)
(-0.257092 -0.182106 0)
(-0.261753 -0.200343 0)
(-0.267705 -0.219898 0)
(-0.274662 -0.240787 0)
(-0.281666 -0.262424 0)
(-0.286771 -0.283108 0)
(-0.286919 -0.299593 0)
(-0.278138 -0.306939 0)
(-0.256505 -0.299091 0)
(-0.219804 -0.270771 0)
(-0.169972 -0.220705 0)
(-0.114715 -0.15554 0)
(-0.0659879 -0.0899175 0)
(-0.0325435 -0.0383618 0)
(-0.0134353 -0.00464043 0)
(-0.00377872 0.0144169 0)
(0.000165971 0.0223699 0)
(0.000846897 0.0208384 0)
(0.000292627 0.0101998 0)
(-0.00247949 0.0140476 0)
(-0.0132954 0.0376291 0)
(-0.0292174 0.0624282 0)
(-0.0473868 0.0911089 0)
(-0.06865 0.122329 0)
(-0.0914174 0.154636 0)
(-0.115598 0.185869 0)
(-0.139055 0.213683 0)
(-0.160886 0.235662 0)
(-0.179336 0.250304 0)
(-0.194108 0.257118 0)
(-0.204638 0.256646 0)
(-0.211549 0.250082 0)
(-0.215238 0.239023 0)
(-0.216815 0.225071 0)
(-0.21695 0.209628 0)
(-0.216564 0.193692 0)
(-0.216034 0.177906 0)
(-0.215823 0.16255 0)
(-0.215956 0.147709 0)
(-0.216562 0.133303 0)
(-0.217495 0.119221 0)
(-0.218756 0.105318 0)
(-0.220177 0.0914864 0)
(-0.221741 0.0776214 0)
(-0.223319 0.0636661 0)
(-0.224909 0.049565 0)
(-0.226423 0.0353004 0)
(-0.227876 0.0208509 0)
(-0.22921 0.00622194 0)
(-0.230451 -0.00858637 0)
(-0.231564 -0.0235556 0)
(-0.23258 -0.0386712 0)
(-0.23348 -0.0539075 0)
(-0.234304 -0.0692404 0)
(-0.235051 -0.0846441 0)
(-0.235773 -0.100094 0)
(-0.236502 -0.115582 0)
(-0.237333 -0.131113 0)
(-0.238371 -0.146742 0)
(-0.239808 -0.162576 0)
(-0.241885 -0.178837 0)
(-0.244921 -0.19584 0)
(-0.249236 -0.214022 0)
(-0.255008 -0.233785 0)
(-0.262023 -0.255269 0)
(-0.269275 -0.277833 0)
(-0.274633 -0.299463 0)
(-0.274597 -0.316159 0)
(-0.264727 -0.321809 0)
(-0.240677 -0.30912 0)
(-0.200517 -0.272147 0)
(-0.147472 -0.21107 0)
(-0.0918436 -0.136682 0)
(-0.0474522 -0.0689181 0)
(-0.020659 -0.021219 0)
(-0.00673721 0.0065746 0)
(-0.000674514 0.0197278 0)
(0.000767008 0.020818 0)
(0.00033605 0.0108719 0)
(-0.00284596 0.0217073 0)
(-0.0148062 0.0519037 0)
(-0.0319227 0.0801012 0)
(-0.0509002 0.111245 0)
(-0.0725942 0.144495 0)
(-0.0950838 0.177957 0)
(-0.118225 0.20911 0)
(-0.139752 0.235334 0)
(-0.159004 0.254439 0)
(-0.174432 0.265342 0)
(-0.186128 0.268136 0)
(-0.193788 0.263855 0)
(-0.198345 0.25412 0)
(-0.200323 0.240742 0)
(-0.200906 0.225373 0)
(-0.200658 0.209278 0)
(-0.200386 0.193262 0)
(-0.200277 0.177734 0)
(-0.200663 0.162797 0)
(-0.201435 0.148395 0)
(-0.202661 0.134376 0)
(-0.204143 0.12059 0)
(-0.205878 0.106887 0)
(-0.207691 0.0931673 0)
(-0.209584 0.0793419 0)
(-0.211433 0.0653681 0)
(-0.213256 0.0512073 0)
(-0.214968 0.0368519 0)
(-0.216596 0.0222925 0)
(-0.218084 0.00754072 0)
(-0.219462 -0.0073949 0)
(-0.220693 -0.0224923 0)
(-0.22181 -0.03773 0)
(-0.222789 -0.0530802 0)
(-0.223663 -0.0685117 0)
(-0.224419 -0.0839954 0)
(-0.225096 -0.0994943 0)
(-0.225695 -0.114987 0)
(-0.226274 -0.130446 0)
(-0.226883 -0.14589 0)
(-0.227647 -0.161355 0)
(-0.228736 -0.176989 0)
(-0.230429 -0.193023 0)
(-0.233086 -0.209883 0)
(-0.237096 -0.228094 0)
(-0.24273 -0.24823 0)
(-0.249779 -0.270485 0)
(-0.257164 -0.294111 0)
(-0.262377 -0.316536 0)
(-0.261455 -0.33267 0)
(-0.249311 -0.3349 0)
(-0.221516 -0.314483 0)
(-0.176824 -0.265592 0)
(-0.120922 -0.191391 0)
(-0.067302 -0.109867 0)
(-0.0305364 -0.0446211 0)
(-0.0111402 -0.00479145 0)
(-0.0021413 0.0154644 0)
(0.000480487 0.0203041 0)
(0.00034939 0.0115423 0)
(-0.00309132 0.0301595 0)
(-0.0158206 0.0672429 0)
(-0.0336752 0.0986354 0)
(-0.0529813 0.131857 0)
(-0.0745664 0.16659 0)
(-0.0962476 0.200489 0)
(-0.117892 0.23078 0)
(-0.137218 0.254731 0)
(-0.153852 0.270527 0)
(-0.166476 0.277561 0)
(-0.175537 0.276516 0)
(-0.180944 0.268866 0)
(-0.18386 0.256577 0)
(-0.184834 0.241546 0)
(-0.185034 0.225367 0)
(-0.184864 0.20909 0)
(-0.184995 0.193298 0)
(-0.185441 0.178184 0)
(-0.186432 0.163705 0)
(-0.187769 0.149707 0)
(-0.189495 0.136004 0)
(-0.191388 0.122431 0)
(-0.193461 0.108853 0)
(-0.195544 0.0951824 0)
(-0.197661 0.0813508 0)
(-0.199697 0.0673272 0)
(-0.201684 0.0530876 0)
(-0.203541 0.0386306 0)
(-0.205304 0.023956 0)
(-0.206914 0.00907837 0)
(-0.208409 -0.0059869 0)
(-0.209744 -0.0212166 0)
(-0.210958 -0.0365836 0)
(-0.21202 -0.0520607 0)
(-0.212965 -0.0676115 0)
(-0.213775 -0.0832086 0)
(-0.214479 -0.0988081 0)
(-0.215068 -0.114387 0)
(-0.215573 -0.129899 0)
(-0.216006 -0.145339 0)
(-0.216433 -0.160691 0)
(-0.216949 -0.176033 0)
(-0.217744 -0.191488 0)
(-0.219115 -0.207384 0)
(-0.221469 -0.224194 0)
(-0.225288 -0.242639 0)
(-0.23087 -0.263394 0)
(-0.238026 -0.286725 0)
(-0.245381 -0.311551 0)
(-0.250036 -0.334427 0)
(-0.247234 -0.348716 0)
(-0.231488 -0.344814 0)
(-0.198394 -0.312827 0)
(-0.148639 -0.248157 0)
(-0.0912809 -0.160604 0)
(-0.0437704 -0.0769616 0)
(-0.0170129 -0.020802 0)
(-0.00435935 0.00891984 0)
(-1.72242e-06 0.0189634 0)
(0.000328247 0.0120973 0)
(-0.00317794 0.0390207 0)
(-0.0162412 0.0830967 0)
(-0.0343557 0.117411 0)
(-0.0535267 0.152252 0)
(-0.0745249 0.187878 0)
(-0.0949881 0.221533 0)
(-0.114849 0.250322 0)
(-0.131896 0.271535 0)
(-0.146054 0.283836 0)
(-0.156228 0.287104 0)
(-0.16317 0.28259 0)
(-0.166942 0.272129 0)
(-0.168837 0.257925 0)
(-0.169357 0.241846 0)
(-0.169587 0.22534 0)
(-0.169755 0.209205 0)
(-0.170402 0.193811 0)
(-0.171402 0.179161 0)
(-0.172924 0.165113 0)
(-0.174713 0.151452 0)
(-0.176814 0.137985 0)
(-0.179002 0.12455 0)
(-0.181312 0.111035 0)
(-0.183584 0.097364 0)
(-0.185863 0.08349 0)
(-0.188038 0.0693892 0)
(-0.190154 0.0550494 0)
(-0.192128 0.0404724 0)
(-0.194003 0.025666 0)
(-0.195716 0.0106461 0)
(-0.197307 -0.00456482 0)
(-0.198728 -0.0199429 0)
(-0.200019 -0.0354541 0)
(-0.201147 -0.0510721 0)
(-0.20215 -0.0667545 0)
(-0.203005 -0.0824777 0)
(-0.203745 -0.0981923 0)
(-0.204354 -0.113881 0)
(-0.204857 -0.129487 0)
(-0.205244 -0.145004 0)
(-0.205546 -0.160379 0)
(-0.205798 -0.175648 0)
(-0.206101 -0.190836 0)
(-0.206652 -0.206159 0)
(-0.207768 -0.221946 0)
(-0.209946 -0.238866 0)
(-0.213698 -0.257752 0)
(-0.219418 -0.279494 0)
(-0.226701 -0.304233 0)
(-0.233901 -0.330315 0)
(-0.237269 -0.352889 0)
(-0.231434 -0.363075 0)
(-0.210327 -0.349115 0)
(-0.170704 -0.300437 0)
(-0.116154 -0.217035 0)
(-0.0609877 -0.11937 0)
(-0.0244121 -0.0431053 0)
(-0.00744523 -0.000440132 0)
(-0.000690963 0.0164212 0)
(0.000283745 0.0124763 0)
(-0.00311267 0.0479794 0)
(-0.0160937 0.0991168 0)
(-0.034023 0.136135 0)
(-0.0526545 0.172201 0)
(-0.0726771 0.208218 0)
(-0.0916394 0.241093 0)
(-0.109573 0.267929 0)
(-0.124399 0.286155 0)
(-0.13632 0.294963 0)
(-0.144448 0.294715 0)
(-0.149769 0.287178 0)
(-0.152436 0.274459 0)
(-0.153788 0.258894 0)
(-0.154223 0.242224 0)
(-0.15471 0.225706 0)
(-0.155313 0.209878 0)
(-0.156465 0.194926 0)
(-0.15794 0.180703 0)
(-0.159876 0.16701 0)
(-0.161993 0.153598 0)
(-0.164353 0.140287 0)
(-0.166737 0.126928 0)
(-0.169206 0.113431 0)
(-0.171608 0.0997324 0)
(-0.174004 0.0858009 0)
(-0.176286 0.071616 0)
(-0.178508 0.0571744 0)
(-0.180583 0.0424777 0)
(-0.182557 0.0275405 0)
(-0.184364 0.012378 0)
(-0.186043 -0.00298021 0)
(-0.187544 -0.0185107 0)
(-0.188906 -0.0341717 0)
(-0.190094 -0.0499384 0)
(-0.191148 -0.0657611 0)
(-0.192045 -0.0816208 0)
(-0.192822 -0.0974623 0)
(-0.193461 -0.113277 0)
(-0.19399 -0.129003 0)
(-0.194392 -0.144641 0)
(-0.19468 -0.160119 0)
(-0.194855 -0.175459 0)
(-0.194955 -0.190614 0)
(-0.195084 -0.205712 0)
(-0.195435 -0.220914 0)
(-0.196409 -0.236744 0)
(-0.198516 -0.253947 0)