/*--------------------------------*- C++ -*----------------------------------*\
| =========                 |                                                 |
| \\      /  F ield         | OpenFOAM: The Open Source CFD Toolbox           |
|  \\    /   O peration     | Version:  2406                                  |
|   \\  /    A nd           | Website:  www.openfoam.com                      |
|    \\/     M anipulation  |                                                 |
\*---------------------------------------------------------------------------*/
FoamFile
{
    version     2.0;
    format      ascii;
    arch        "LSB;label=32;scalar=64";
    class       volVectorField;
    location    "43.6";
    object      Uc;
}
// * * * * * * * * * * * * * * * * * * * * * * * * * * * * * * * * * * * * * //

dimensions      [0 1 -1 0 0 0 0];

internalField   nonuniform List<vector> 
900
(
(0.000329253 -0.000561099 0)
(0.00375443 -0.00131182 0)
(0.00762667 -0.00103808 0)
(0.00925808 -0.000581326 0)
(0.00979322 -0.000498776 0)
(0.009642 -0.000796124 0)
(0.00957649 -0.00122002 0)
(0.00946141 -0.00171581 0)
(0.00842624 -0.00327904 0)
(0.00370258 -0.00511214 0)
(-0.00706171 -0.00291036 0)
(-0.0250526 0.00397918 0)
(-0.0489067 0.0102542 0)
(-0.0737327 0.0124746 0)
(-0.0953713 0.0116708 0)
(-0.11172 0.00938164 0)
(-0.121564 0.00622617 0)
(-0.124125 0.0025679 0)
(-0.119144 -0.00137388 0)
(-0.10625 -0.00536497 0)
(-0.0861234 -0.00905461 0)
(-0.0591761 -0.0118663 0)
(-0.028521 -0.0129782 0)
(0.00326576 -0.01139 0)
(0.0285387 -0.00599904 0)
(0.0418895 0.00126528 0)
(0.0381968 0.00684984 0)
(0.0246957 0.0070027 0)
(0.0116527 0.00467251 0)
(0.00141352 0.00177745 0)
(0.00125994 -0.00351327 0)
(0.00714554 -0.00615997 0)
(0.0128401 -0.00447261 0)
(0.0147433 -0.00163106 0)
(0.0141018 0.000153147 0)
(0.0108127 0.00102094 0)
(0.00435587 0.00142999 0)
(-0.0090994 0.00283142 0)
(-0.0329049 0.00918882 0)
(-0.0666613 0.0211208 0)
(-0.104997 0.0322784 0)
(-0.14053 0.038196 0)
(-0.169521 0.0383527 0)
(-0.191602 0.0336984 0)
(-0.207189 0.0260289 0)
(-0.216168 0.0165481 0)
(-0.218469 0.00594181 0)
(-0.213925 -0.00536671 0)
(-0.202455 -0.0170347 0)
(-0.183824 -0.0286438 0)
(-0.158236 -0.0392701 0)
(-0.125932 -0.0475966 0)
(-0.0884915 -0.0511544 0)
(-0.0482936 -0.0474131 0)
(-0.0102977 -0.0331048 0)
(0.0191228 -0.0112045 0)
(0.0314565 0.0107624 0)
(0.0264105 0.0192834 0)
(0.0153775 0.0189335 0)
(0.00223112 0.0112231 0)
(0.0021666 -0.00886559 0)
(0.00860497 -0.0129963 0)
(0.0129633 -0.00859578 0)
(0.0119556 -0.00190247 0)
(0.00644382 0.00341412 0)
(-0.00584777 0.00884372 0)
(-0.028614 0.0186135 0)
(-0.064464 0.0354899 0)
(-0.108951 0.0537995 0)
(-0.152074 0.0657191 0)
(-0.188213 0.0695956 0)
(-0.216378 0.0673426 0)
(-0.237148 0.0600384 0)
(-0.251629 0.048751 0)
(-0.26081 0.0349299 0)
(-0.265135 0.0194578 0)
(-0.264966 0.0028949 0)
(-0.260245 -0.0145712 0)
(-0.250851 -0.0326327 0)
(-0.236291 -0.0510402 0)
(-0.216054 -0.0684955 0)
(-0.189537 -0.0835295 0)
(-0.156228 -0.0921161 0)
(-0.116956 -0.0908471 0)
(-0.072822 -0.0731712 0)
(-0.0301419 -0.0401432 0)
(0.0026498 0.000306426 0)
(0.0108668 0.0225737 0)
(0.00890311 0.0287337 0)
(0.000303922 0.0188048 0)
(0.00279102 -0.0141876 0)
(0.00741488 -0.0170505 0)
(0.00702107 -0.00770876 0)
(-0.00081575 0.00496184 0)
(-0.0171478 0.018062 0)
(-0.0456606 0.0361172 0)
(-0.0868654 0.0598451 0)
(-0.133397 0.0823604 0)
(-0.17542 0.0958591 0)
(-0.208954 0.0996176 0)
(-0.234471 0.0957864 0)
(-0.252599 0.0863405 0)
(-0.264616 0.0728924 0)
(-0.271947 0.0567827 0)
(-0.275802 0.0390703 0)
(-0.27688 0.02025 0)
(-0.275715 0.000564552 0)
(-0.2724 -0.0201748 0)
(-0.266928 -0.0418812 0)
(-0.258765 -0.0647994 0)
(-0.247167 -0.0876837 0)
(-0.230757 -0.109623 0)
(-0.207641 -0.125794 0)
(-0.17622 -0.132677 0)
(-0.134166 -0.12017 0)
(-0.084519 -0.0864024 0)
(-0.031496 -0.0288567 0)
(-0.00119496 0.013053 0)
(0.0037711 0.0299213 0)
(-0.00125592 0.0204098 0)
(0.0025257 -0.0190481 0)
(0.00252436 -0.0173197 0)
(-0.0056657 -0.000268124 0)
(-0.0237017 0.0222881 0)
(-0.0532461 0.048156 0)
(-0.0940087 0.0780519 0)
(-0.139103 0.105513 0)
(-0.179208 0.123028 0)
(-0.210002 0.128075 0)
(-0.231931 0.123462 0)
(-0.246312 0.112228 0)
(-0.254574 0.0968034 0)
(-0.258575 0.0789372 0)
(-0.259588 0.0596783 0)
(-0.258898 0.0397804 0)
(-0.257083 0.0193793 0)
(-0.25486 -0.00147261 0)
(-0.252358 -0.023313 0)
(-0.249962 -0.0462249 0)
(-0.24729 -0.0710905 0)
(-0.244069 -0.0969876 0)
(-0.238669 -0.124167 0)
(-0.228993 -0.148001 0)
(-0.211389 -0.165969 0)
(-0.181213 -0.165923 0)
(-0.135755 -0.143201 0)
(-0.0746196 -0.0828092 0)
(-0.0145111 -0.0129348 0)
(0.00361332 0.0290012 0)
(-0.00136424 0.0210684 0)
(0.000525434 -0.0191249 0)
(-0.0071129 -0.00869185 0)
(-0.0249187 0.0188385 0)
(-0.0527617 0.0527139 0)
(-0.0903168 0.0881714 0)
(-0.132192 0.121409 0)
(-0.170357 0.144129 0)
(-0.19884 0.152264 0)
(-0.217531 0.147884 0)
(-0.228406 0.135641 0)
(-0.233243 0.118464 0)
(-0.234028 0.0989237 0)
(-0.232381 0.0784322 0)
(-0.229378 0.0577734 0)
(-0.22596 0.0373515 0)
(-0.222423 0.0170201 0)
(-0.219358 -0.00326256 0)
(-0.216787 -0.0242607 0)
(-0.215388 -0.046045 0)
(-0.215 -0.0700602 0)
(-0.216239 -0.0956875 0)
(-0.217961 -0.124702 0)
(-0.219242 -0.153388 0)
(-0.216014 -0.181558 0)
(-0.20314 -0.19706 0)
(-0.173699 -0.194355 0)
(-0.121259 -0.150588 0)
(-0.0486137 -0.0659194 0)
(0.00650681 0.0172392 0)
(-0.00193258 0.0226108 0)
(-0.00248395 -0.0126145 0)
(-0.0181907 0.00816203 0)
(-0.0441255 0.0453534 0)
(-0.077336 0.0874531 0)
(-0.115679 0.126912 0)
(-0.151867 0.157118 0)
(-0.179844 0.171181 0)
(-0.197124 0.169536 0)
(-0.206242 0.157333 0)
(-0.209291 0.139243 0)
(-0.208511 0.118214 0)
(-0.205747 0.0965076 0)
(-0.202173 0.0749785 0)
(-0.19839 0.0540049 0)
(-0.194822 0.0336562 0)
(-0.191374 0.0135936 0)
(-0.188417 -0.00615632 0)
(-0.185733 -0.0264004 0)
(-0.184106 -0.0468853 0)
(-0.183315 -0.0692858 0)
(-0.184645 -0.0927715 0)
(-0.187396 -0.120342 0)
(-0.192435 -0.149065 0)
(-0.196682 -0.182003 0)
(-0.197123 -0.208702 0)
(-0.185788 -0.226567 0)
(-0.152261 -0.208813 0)
(-0.0940347 -0.143532 0)
(-0.00628159 -0.0163776 0)
(0.00394859 0.0250758 0)
(-0.0055667 0.00133906 0)
(-0.0278641 0.0330477 0)
(-0.0585937 0.077777 0)
(-0.0925971 0.123852 0)
(-0.127278 0.161843 0)
(-0.155348 0.184773 0)
(-0.173671 0.188853 0)
(-0.182475 0.17862 0)
(-0.185307 0.160384 0)
(-0.184106 0.138517 0)
(-0.18124 0.115649 0)
(-0.177886 0.0933532 0)
(-0.17468 0.0718394 0)
(-0.171687 0.0511193 0)
(-0.168976 0.0310403 0)
(-0.16623 0.0112028 0)
(-0.163777 -0.00821396 0)
(-0.161248 -0.0280464 0)
(-0.159544 -0.0476702 0)
(-0.158176 -0.0689632 0)
(-0.158773 -0.0905683 0)
(-0.160431 -0.116237 0)
(-0.165261 -0.142913 0)
(-0.170771 -0.176289 0)
(-0.177067 -0.207599 0)
(-0.176663 -0.239424 0)
(-0.161919 -0.244593 0)
(-0.12336 -0.212842 0)
(-0.0442977 -0.0815066 0)
(0.0183251 0.020443 0)
(-0.00733541 0.0200884 0)
(-0.0331266 0.0607569 0)
(-0.0650766 0.109183 0)
(-0.0967213 0.155186 0)
(-0.125958 0.188549 0)
(-0.146338 0.202807 0)
(-0.157511 0.198064 0)
(-0.161056 0.181398 0)
(-0.16083 0.159439 0)
(-0.158279 0.135796 0)
(-0.15563 0.112647 0)
(-0.153083 0.0905726 0)
(-0.151026 0.0694011 0)
(-0.149017 0.0488463 0)
(-0.147152 0.0287993 0)
(-0.144934 0.00886913 0)
(-0.142869 -0.0105048 0)
(-0.140374 -0.0302145 0)
(-0.138579 -0.0492182 0)
(-0.136587 -0.0696617 0)
(-0.136399 -0.08957 0)
(-0.13655 -0.113389 0)
(-0.140151 -0.137485 0)
(-0.144529 -0.169584 0)
(-0.152537 -0.201741 0)
(-0.15717 -0.241416 0)
(-0.154934 -0.263866 0)
(-0.131551 -0.261236 0)
(-0.0786172 -0.163256 0)
(0.0104539 0.000879323 0)
(-0.00777977 0.0410122 0)
(-0.0342388 0.0902428 0)
(-0.0649587 0.140255 0)
(-0.0927238 0.183755 0)
(-0.116262 0.210543 0)
(-0.130365 0.216082 0)
(-0.136727 0.203797 0)
(-0.137527 0.182554 0)
(-0.136269 0.158332 0)
(-0.133956 0.134077 0)
(-0.132292 0.111162 0)
(-0.130785 0.0893792 0)
(-0.129756 0.0683844 0)
(-0.128485 0.0477415 0)
(-0.127299 0.0275217 0)
(-0.125549 0.00730465 0)
(-0.124016 -0.0122008 0)
(-0.121824 -0.0320548 0)
(-0.120399 -0.0508006 0)
(-0.118284 -0.0709322 0)
(-0.11787 -0.0897528 0)
(-0.116792 -0.112252 0)
(-0.119007 -0.133753 0)
(-0.121029 -0.163471 0)
(-0.128349 -0.193538 0)
(-0.134372 -0.236487 0)
(-0.139706 -0.270061 0)
(-0.12902 -0.290344 0)
(-0.0934 -0.225837 0)
(-0.020815 -0.046165 0)
(-0.00690855 0.0610708 0)
(-0.0315785 0.117025 0)
(-0.0590146 0.166259 0)
(-0.0821415 0.205386 0)
(-0.100544 0.225393 0)
(-0.110124 0.223214 0)
(-0.113926 0.205563 0)
(-0.11378 0.181519 0)
(-0.112793 0.156468 0)
(-0.111334 0.132395 0)
(-0.110707 0.110011 0)
(-0.109969 0.0885034 0)
(-0.109604 0.0676044 0)
(-0.108708 0.0467848 0)
(-0.107956 0.0263895 0)
(-0.106477 0.00590543 0)
(-0.10542 -0.0136578 0)
(-0.10352 -0.0336197 0)
(-0.102653 -0.0521064 0)
(-0.100707 -0.0720999 0)
(-0.100688 -0.0902533 0)
(-0.0991201 -0.112223 0)
(-0.100805 -0.132137 0)
(-0.100651 -0.160066 0)
(-0.106146 -0.186899 0)
(-0.110199 -0.229471 0)
(-0.118476 -0.268288 0)
(-0.115127 -0.30822 0)
(-0.0915752 -0.273048 0)
(-0.0357718 -0.114888 0)
(-0.00518838 0.0786747 0)
(-0.0263838 0.141535 0)
(-0.0496919 0.189552 0)
(-0.068264 0.224444 0)
(-0.0823279 0.238105 0)
(-0.0888592 0.229813 0)
(-0.0913004 0.208093 0)
(-0.0910527 0.182221 0)
(-0.0906101 0.156638 0)
(-0.0899382 0.132685 0)
(-0.0899763 0.110446 0)
(-0.0896662 0.0888375 0)
(-0.0896641 0.0677354 0)
(-0.0889769 0.0465548 0)
(-0.0886057 0.0259106 0)
(-0.0874081 0.00511658 0)
(-0.0869315 -0.0145079 0)
(-0.0854102 -0.0346201 0)
(-0.0852759 -0.0528969 0)
(-0.0836299 -0.0728535 0)
(-0.0843016 -0.0904889 0)
(-0.0826103 -0.112227 0)
(-0.0845132 -0.131129 0)
(-0.0830642 -0.158201 0)
(-0.0874437 -0.182503 0)
(-0.0888314 -0.223782 0)
(-0.0972141 -0.263783 0)
(-0.0962357 -0.317402 0)
(-0.081128 -0.308521 0)
(-0.0334972 -0.177429 0)
(-0.00284269 0.0918647 0)
(-0.0194696 0.160623 0)
(-0.0379006 0.206942 0)
(-0.0520754 0.237239 0)
(-0.0625765 0.245703 0)
(-0.0671134 0.232542 0)
(-0.0691538 0.208298 0)
(-0.0692574 0.181423 0)
(-0.0695264 0.155888 0)
(-0.069446 0.132221 0)
(-0.0699063 0.110205 0)
(-0.0697763 0.0885739 0)
(-0.0699892 0.0674134 0)
(-0.0694032 0.046057 0)
(-0.0693877 0.0253808 0)
(-0.0684333 0.00447217 0)
(-0.0685772 -0.0150286 0)
(-0.0674385 -0.0351695 0)
(-0.0681483 -0.0531713 0)
(-0.0668714 -0.0731319 0)
(-0.0684556 -0.0904063 0)
(-0.0668353 -0.11222 0)
(-0.0693691 -0.130573 0)
(-0.0670717 -0.157391 0)
(-0.0710247 -0.179656 0)
(-0.070006 -0.219527 0)
(-0.0783328 -0.259113 0)
(-0.0784295 -0.323742 0)
(-0.0704111 -0.338005 0)
(-0.030006 -0.233183 0)
(-0.00031864 0.10051 0)
(-0.0116797 0.17588 0)
(-0.0252036 0.221246 0)
(-0.0353862 0.248636 0)
(-0.0428838 0.253177 0)
(-0.0461457 0.237035 0)
(-0.0479796 0.211009 0)
(-0.0484466 0.183399 0)
(-0.049125 0.157566 0)
(-0.0493369 0.133717 0)
(-0.0499513 0.111449 0)
(-0.0498584 0.0894689 0)
(-0.050236 0.0680481 0)
(-0.049745 0.0464016 0)
(-0.050142 0.0256559 0)
(-0.0494538 0.0046102 0)
(-0.0503024 -0.0147543 0)
(-0.0495589 -0.0349273 0)
(-0.0512088 -0.0526488 0)
(-0.0503155 -0.0726294 0)
(-0.0529621 -0.089578 0)
(-0.0515457 -0.111593 0)
(-0.0551188 -0.129723 0)
(-0.0524894 -0.156956 0)
(-0.0568296 -0.178096 0)
(-0.0538116 -0.216627 0)
(-0.0618001 -0.25354 0)
(-0.0614723 -0.324675 0)
(-0.0598017 -0.358239 0)
(-0.0259232 -0.280703 0)
(0.00233565 0.103466 0)
(-0.00353742 0.184735 0)
(-0.0119596 0.229858 0)
(-0.0184454 0.254421 0)
(-0.0234203 0.256507 0)
(-0.0257345 0.238121 0)
(-0.0276484 0.211168 0)
(-0.0284676 0.183089 0)
(-0.0295549 0.15726 0)
(-0.0299181 0.133417 0)
(-0.0306462 0.111179 0)
(-0.0305096 0.0891641 0)
(-0.0310494 0.0678184 0)
(-0.0306028 0.0462053 0)
(-0.0314235 0.0256906 0)
(-0.0309495 0.00476653 0)
(-0.0325204 -0.0142424 0)
(-0.0321104 -0.034288 0)
(-0.0347346 -0.051626 0)
(-0.034172 -0.0715858 0)
(-0.0379448 -0.0882145 0)
(-0.0366941 -0.110456 0)
(-0.0414752 -0.128414 0)
(-0.0386917 -0.156225 0)
(-0.0441653 -0.176823 0)
(-0.0400029 -0.214942 0)
(-0.0486256 -0.249515 0)
(-0.047633 -0.325149 0)
(-0.0512953 -0.373893 0)
(-0.0222925 -0.32112 0)
(0.00469142 0.101539 0)
(0.00455849 0.189551 0)
(0.00102652 0.235608 0)
(-0.00198193 0.259831 0)
(-0.00452887 0.260738 0)
(-0.00604118 0.24198 0)
(-0.0077957 0.21455 0)
(-0.00882368 0.186083 0)
(-0.0100506 0.159778 0)
(-0.0104207 0.135435 0)
(-0.0111815 0.112779 0)
(-0.0109729 0.0903951 0)
(-0.0117248 0.0689123 0)
(-0.0113386 0.0471726 0)
(-0.0126692 0.0268083 0)
(-0.0124106 0.00593408 0)
(-0.0147838 -0.0127454 0)
(-0.0146779 -0.0326966 0)
(-0.0183498 -0.0496648 0)
(-0.0180818 -0.0696307 0)
(-0.0230941 -0.0859791 0)
(-0.0220065 -0.108502 0)
(-0.0282057 -0.126407 0)
(-0.0253482 -0.154917 0)
(-0.032389 -0.175219 0)
(-0.0273856 -0.212832 0)
(-0.0372463 -0.244027 0)
(-0.0353733 -0.321728 0)
(-0.04434 -0.383237 0)
(-0.0191792 -0.35591 0)
(0.00680521 0.0940203 0)
(0.012149 0.187612 0)
(0.013602 0.235887 0)
(0.0138793 0.259563 0)
(0.0135073 0.260741 0)
(0.0128687 0.241833 0)
(0.0111511 0.214516 0)
(0.0100012 0.185786 0)
(0.00854174 0.15933 0)
(0.00820975 0.134832 0)
(0.00736549 0.112198 0)
(0.00771553 0.0899112 0)
(0.0067578 0.0687304 0)
(0.00718938 0.0472676 0)
(0.00538282 0.0273986 0)
(0.00555635 0.00686638 0)
(0.00241557 -0.0112429 0)
(0.00235225 -0.0309044 0)
(-0.00235393 -0.0473601 0)
(-0.00224424 -0.0672188 0)
(-0.00853052 -0.0832223 0)
(-0.00749213 -0.105927 0)
(-0.0152605 -0.123709 0)
(-0.012349 -0.152826 0)
(-0.0214667 -0.173127 0)
(-0.0160916 -0.210945 0)
(-0.028057 -0.239556 0)
(-0.0252287 -0.318114 0)
(-0.0390953 -0.389242 0)
(-0.0164153 -0.385924 0)
(0.00808367 0.0825344 0)
(0.018995 0.182076 0)
(0.0252064 0.233528 0)
(0.0289009 0.259703 0)
(0.0310589 0.262089 0)
(0.0315563 0.245008 0)
(0.0303916 0.218253 0)
(0.0293116 0.189442 0)
(0.0278185 0.162399 0)
(0.0275641 0.137209 0)
(0.0266178 0.114099 0)
(0.0271036 0.0914688 0)
(0.0258568 0.0703041 0)
(0.0263412 0.0488628 0)
(0.0239634 0.0293526 0)
(0.0240851 0.00902596 0)
(0.0200875 -0.00858044 0)
(0.019924 -0.0280243 0)
(0.0140925 -0.0440119 0)
(0.014135 -0.0637937 0)
(0.00645115 -0.0794936 0)
(0.00752482 -0.102366 0)
(-0.0020007 -0.120033 0)
(0.00103453 -0.149574 0)
(-0.0104846 -0.169694 0)
(-0.00485194 -0.207328 0)
(-0.0196857 -0.23288 0)
(-0.01598 -0.311162 0)
(-0.0350989 -0.390798 0)
(-0.013927 -0.412466 0)
(0.008513 0.0667795 0)
(0.0243196 0.169547 0)
(0.0354849 0.225548 0)
(0.0425565 0.253198 0)
(0.0470792 0.258255 0)
(0.0490278 0.242807 0)
(0.0483451 0.21733 0)
(0.0475542 0.188719 0)
(0.0459362 0.161595 0)
(0.0458632 0.136232 0)
(0.0447839 0.113179 0)
(0.0455615 0.0907581 0)
(0.0440901 0.0700933 0)
(0.0448443 0.0491303 0)
(0.0419967 0.0303505 0)
(0.0423036 0.0105674 0)
(0.0375318 -0.0062784 0)
(0.0375046 -0.0252627 0)
(0.0305826 -0.0406174 0)
(0.0307754 -0.0601365 0)
(0.0216537 -0.0754186 0)
(0.0229184 -0.0982588 0)
(0.0114572 -0.115678 0)
(0.0146377 -0.145378 0)
(0.000317271 -0.165352 0)
(0.0060175 -0.203053 0)
(-0.0123723 -0.22627 0)
(-0.00767884 -0.303595 0)
(-0.0321967 -0.389685 0)
(-0.0114302 -0.435912 0)
(0.00709292 0.0497468 0)
(0.0278096 0.154378 0)
(0.0437158 0.214982 0)
(0.0547276 0.24782 0)
(0.0624616 0.255908 0)
(0.0665306 0.244287 0)
(0.0672802 0.220586 0)
(0.067203 0.192556 0)
(0.0657782 0.16503 0)
(0.0659491 0.138912 0)
(0.0646775 0.115354 0)
(0.0657173 0.0925459 0)
(0.0638928 0.0720175 0)
(0.0649373 0.051168 0)
(0.0614982 0.0329408 0)
(0.0620796 0.0135057 0)
(0.0564129 -0.00266683 0)
(0.0566598 -0.0212826 0)
(0.0485126 -0.0360492 0)
(0.0490079 -0.0553205 0)
(0.0382755 -0.0701878 0)
(0.039845 -0.0929012 0)
(0.0261929 -0.109977 0)
(0.0295562 -0.139502 0)
(0.0120372 -0.158971 0)
(0.0176884 -0.196145 0)
(-0.00508177 -0.216821 0)
(0.000476411 -0.292682 0)
(-0.0301376 -0.385027 0)
(-0.00880628 -0.457047 0)
(0.00416027 0.0318179 0)
(0.0282527 0.131887 0)
(0.0492435 0.19815 0)
(0.0641687 0.233701 0)
(0.0748335 0.246507 0)
(0.0815152 0.238036 0)
(0.0837165 0.217225 0)
(0.0849857 0.190474 0)
(0.0839348 0.163474 0)
(0.0848084 0.137446 0)
(0.0834822 0.114053 0)
(0.0851492 0.0915082 0)
(0.0830987 0.0715865 0)
(0.084807 0.0513495 0)
(0.0808975 0.0340136 0)
(0.0821386 0.0153191 0)
(0.0756682 5.56954e-05 0)
(0.0765578 -0.0178848 0)
(0.067227 -0.0318883 0)
(0.0683238 -0.0506385 0)
(0.0559226 -0.0649106 0)
(0.0579494 -0.0871652 0)
(0.0418842 -0.103654 0)
(0.0453839 -0.132548 0)
(0.0242538 -0.151324 0)
(0.0296957 -0.18778 0)
(0.0018875 -0.206509 0)
(0.00844126 -0.280465 0)
(-0.0288499 -0.377951 0)
(-0.00577971 -0.47593 0)
(0.000135239 0.0177341 0)
(0.0258032 0.108733 0)
(0.0513035 0.178818 0)
(0.0708149 0.221866 0)
(0.0857894 0.238715 0)
(0.0961025 0.235716 0)
(0.101286 0.217948 0)
(0.104752 0.192927 0)
(0.104799 0.166295 0)
(0.106686 0.139839 0)
(0.105394 0.116153 0)
(0.107724 0.093211 0)
(0.105307 0.0735425 0)
(0.107732 0.053464 0)
(0.103176 0.0368488 0)
(0.105231 0.018638 0)
(0.0977806 0.00423726 0)
(0.0995145 -0.0131495 0)
(0.0887924 -0.0263471 0)
(0.0906568 -0.0445616 0)
(0.0763073 -0.0580947 0)
(0.078853 -0.0796957 0)
(0.05999 -0.0953223 0)
(0.0635365 -0.123134 0)
(0.0382623 -0.140762 0)
(0.0432473 -0.175775 0)
(0.00950799 -0.192571 0)
(0.0169422 -0.264388 0)
(-0.0280835 -0.367683 0)
(-0.00210346 -0.492915 0)
(-0.00171003 0.00604133 0)
(0.0204275 0.0795347 0)
(0.0496479 0.152699 0)
(0.0728054 0.198094 0)
(0.0908994 0.221097 0)
(0.1053 0.222128 0)
(0.11346 0.209066 0)
(0.120483 0.186992 0)
(0.122422 0.162315 0)
(0.126658 0.136866 0)
(0.126011 0.113874 0)
(0.129967 0.0914535 0)
(0.127429 0.0724933 0)
(0.131292 0.0531743 0)
(0.126136 0.0374935 0)
(0.129595 0.0202357 0)
(0.121142 0.00684239 0)
(0.1242 -0.00957252 0)
(0.11203 -0.0218038 0)
(0.114991 -0.0390597 0)
(0.0985682 -0.0516134 0)
(0.101733 -0.0720531 0)
(0.0797871 -0.0864482 0)
(0.0832043 -0.112521 0)
(0.0533104 -0.128644 0)
(0.0575517 -0.161648 0)
(0.0172246 -0.177113 0)
(0.0256503 -0.246302 0)
(-0.0279199 -0.355139 0)
(0.00255875 -0.50776 0)
(-0.00203424 -0.000349563 0)
(0.013821 0.0570518 0)
(0.0433265 0.126477 0)
(0.0702856 0.180314 0)
(0.0933293 0.206212 0)
(0.112802 0.21311 0)
(0.125816 0.203434 0)
(0.13745 0.184236 0)
(0.142475 0.161314 0)
(0.149834 0.136544 0)
(0.150418 0.114227 0)
(0.156426 0.0919397 0)
(0.153908 0.0736647 0)
(0.159439 0.0547275 0)
(0.153625 0.0400497 0)
(0.158653 0.0234231 0)
(0.14905 0.0112295 0)
(0.15355 -0.00443982 0)
(0.139674 -0.0153789 0)
(0.143755 -0.031724 0)
(0.124816 -0.0428078 0)
(0.128495 -0.061841 0)
(0.102845 -0.0743578 0)
(0.105966 -0.0981355 0)
(0.0707704 -0.112106 0)
(0.0741001 -0.142299 0)
(0.0263963 -0.156697 0)
(0.036034 -0.223141 0)
(-0.0273518 -0.339449 0)
(0.00889132 -0.520237 0)
(0.00141336 -0.00577966 0)
(0.00914041 0.0329594 0)
(0.0332243 0.095947 0)
(0.0609698 0.146638 0)
(0.0848488 0.178281 0)
(0.109793 0.18851 0)
(0.127202 0.184656 0)
(0.145662 0.169828 0)
(0.155077 0.150763 0)
(0.16812 0.128679 0)
(0.171102 0.108383 0)
(0.181317 0.0876705 0)
(0.179301 0.0706498 0)
(0.188045 0.0530135 0)
(0.181514 0.03947 0)
(0.189171 0.0241897 0)
(0.17807 0.0131795 0)
(0.184741 -0.00102116 0)
(0.168695 -0.0106652 0)
(0.174392 -0.0252858 0)
(0.152489 -0.0348023 0)
(0.157011 -0.0515659 0)
(0.127306 -0.0620404 0)
(0.130292 -0.0827127 0)
(0.0894391 -0.0943842 0)
(0.0917676 -0.121098 0)
(0.0363867 -0.135427 0)
(0.0472192 -0.198284 0)
(-0.0262641 -0.321917 0)
(0.017562 -0.529112 0)
(9.54849e-05 -0.0106717 0)
(0.00312178 0.0261752 0)
(0.0182869 0.0750578 0)
(0.0456151 0.129306 0)
(0.0737142 0.157256 0)
(0.103938 0.170351 0)
(0.127309 0.16782 0)
(0.152727 0.155912 0)
(0.167413 0.139903 0)
(0.186853 0.120309 0)
(0.193075 0.102544 0)
(0.20819 0.0835983 0)
(0.207494 0.0686376 0)
(0.21978 0.0522971 0)
(0.213204 0.0407157 0)
(0.223459 0.0265046 0)
(0.211314 0.0175558 0)
(0.219907 0.00437549 0)
(0.201859 -0.00296445 0)
(0.208877 -0.0163329 0)
(0.183778 -0.0230835 0)
(0.188996 -0.0378516 0)
(0.154499 -0.0448568 0)
(0.157632 -0.0621692 0)
(0.110089 -0.0700339 0)
(0.112926 -0.0925827 0)
(0.049536 -0.10674 0)
(0.0642567 -0.165802 0)
(-0.0194916 -0.300338 0)
(0.0309069 -0.53226 0)
(0.00487121 -0.0087707 0)
(0.00557302 0.0135769 0)
(-0.000816117 0.0536817 0)
(0.02075 0.089594 0)
(0.0431003 0.119566 0)
(0.0802321 0.132815 0)
(0.108032 0.135573 0)
(0.143559 0.128153 0)
(0.163939 0.117123 0)
(0.19296 0.102026 0)
(0.203062 0.088073 0)
(0.226 0.0724891 0)
(0.226778 0.0602748 0)
(0.245221 0.0465306 0)
(0.237981 0.0370367 0)
(0.25325 0.0251834 0)
(0.238669 0.0179826 0)
(0.251598 0.0073438 0)
(0.229599 0.00165472 0)
(0.240574 -0.00858957 0)
(0.210239 -0.0135472 0)
(0.21928 -0.024223 0)
(0.178697 -0.0291582 0)
(0.185915 -0.041393 0)
(0.132225 -0.0477429 0)
(0.139799 -0.0658756 0)
(0.0699904 -0.0829663 0)
(0.0883073 -0.13751 0)
(-0.00408482 -0.278211 0)
(0.0508031 -0.522661 0)
(-0.0245329 -0.0228916 0)
(-0.0244775 0.0350727 0)
(-0.0204576 0.0607312 0)
(-0.00970585 0.0880394 0)
(0.019704 0.0977284 0)
(0.0596395 0.104857 0)
(0.0926491 0.104011 0)
(0.135355 0.0984006 0)
(0.160668 0.0908822 0)
(0.197297 0.0799172 0)
(0.211065 0.0706821 0)
(0.240561 0.0590557 0)
(0.243178 0.0510421 0)
(0.266938 0.0404465 0)
(0.259759 0.0345598 0)
(0.279487 0.0251086 0)
(0.263482 0.0212723 0)
(0.280613 0.0124963 0)
(0.255963 0.0103604 0)
(0.271642 0.00166638 0)
(0.237549 0.000879741 0)
(0.252832 -0.00829153 0)
(0.207272 -0.00816511 0)
(0.223649 -0.0185483 0)
(0.163128 -0.0192208 0)
(0.183835 -0.0342512 0)
(0.104577 -0.0471571 0)
(0.139144 -0.0956299 0)
(0.0454862 -0.24057 0)
(0.0885432 -0.489464 0)
(-0.0875579 0.0446055 0)
(-0.090176 0.0074536 0)
(-0.120618 0.0403832 0)
(-0.0755521 0.0456604 0)
(-0.0544716 0.0490653 0)
(0.00274952 0.0562537 0)
(0.0361393 0.0586891 0)
(0.0919769 0.0571594 0)
(0.118623 0.0548107 0)
(0.168609 0.0494167 0)
(0.182521 0.0451266 0)
(0.22647 0.038648 0)
(0.227328 0.0345904 0)
(0.266971 0.0284159 0)
(0.255836 0.0253651 0)
(0.293502 0.0199256 0)
(0.271129 0.0178465 0)
(0.309163 0.0132001 0)
(0.275535 0.0117074 0)
(0.316168 0.00790502 0)
(0.270457 0.00641451 0)
(0.315896 0.00364239 0)
(0.256589 0.00124152 0)
(0.309116 -0.000724017 0)
(0.23441 -0.00646451 0)
(0.296032 -0.0127959 0)
(0.204572 -0.0347019 0)
(0.273375 -0.0828588 0)
(0.156902 -0.209952 0)
(0.148616 -0.40419 0)
(0.0818314 0.135006 0)
(0.120732 0.0759835 0)
(0.154969 0.0494576 0)
(0.208079 0.0276847 0)
(0.224472 0.0195855 0)
(0.273809 0.0135704 0)
(0.289989 0.0132773 0)
(0.344312 0.0131992 0)
(0.357324 0.0136433 0)
(0.412414 0.0136516 0)
(0.418175 0.0133394 0)
(0.471252 0.0126586 0)
(0.467758 0.0118401 0)
(0.518491 0.0108278 0)
(0.505491 0.00985897 0)
(0.554852 0.00880485 0)
(0.532714 0.00788744 0)
(0.582038 0.00686729 0)
(0.551139 0.00614576 0)
(0.601679 0.00502396 0)
(0.562187 0.00472796 0)
(0.614984 0.00306 0)
(0.566688 0.00364935 0)
(0.622409 0.000233266 0)
(0.563693 0.00232909 0)
(0.621108 -0.00660635 0)
(0.541948 -0.00444732 0)
(0.585016 -0.0345005 0)
(0.419513 -0.0525818 0)
(0.306778 -0.177365 0)
)
;

boundaryField
{
    movingWall
    {
        type            fixedValue;
        value           uniform (1 0 0);
    }
    fixedWalls
    {
        type            noSlip;
    }
    frontAndBack
    {
        type            empty;
    }
}


// ************************************************************************* //
