/*--------------------------------*- C++ -*----------------------------------*\
| =========                 |                                                 |
| \\      /  F ield         | OpenFOAM: The Open Source CFD Toolbox           |
|  \\    /   O peration     | Version:  2406                                  |
|   \\  /    A nd           | Website:  www.openfoam.com                      |
|    \\/     M anipulation  |                                                 |
\*---------------------------------------------------------------------------*/
FoamFile
{
    version     2.0;
    format      ascii;
    arch        "LSB;label=32;scalar=64";
    class       surfaceScalarField;
    location    "7.7";
    object      phi_0;
}
// * * * * * * * * * * * * * * * * * * * * * * * * * * * * * * * * * * * * * //

dimensions      [0 3 -1 0 0 0 0];

oriented        oriented;

internalField   nonuniform List<scalar> 
28560
(
4.07501e-09
-4.07021e-09
2.24472e-09
1.83013e-09
-1.00783e-08
1.2323e-08
-3.29128e-08
2.28346e-08
-6.47873e-08
3.18745e-08
-1.03858e-07
3.90703e-08
-1.4837e-07
4.45125e-08
-1.96832e-07
4.84617e-08
-2.48047e-07
5.12153e-08
-3.01095e-07
5.30485e-08
-3.55292e-07
5.41965e-08
-4.10142e-07
5.48502e-08
-4.65301e-07
5.51589e-08
-5.20537e-07
5.52363e-08
-5.75703e-07
5.5166e-08
-6.30711e-07
5.5008e-08
-6.85515e-07
5.48037e-08
-7.40095e-07
5.45803e-08
-7.9445e-07
5.43545e-08
-8.48585e-07
5.41353e-08
-9.02511e-07
5.39262e-08
-9.56239e-07
5.37272e-08
-1.00977e-06
5.35357e-08
-1.06312e-06
5.33476e-08
-1.11628e-06
5.31577e-08
-1.16924e-06
5.29606e-08
-1.22199e-06
5.27504e-08
-1.27451e-06
5.25212e-08
-1.32678e-06
5.22671e-08
-1.37876e-06
5.19822e-08
-1.43042e-06
5.16607e-08
-1.48172e-06
5.12968e-08
-1.5326e-06
5.08847e-08
-1.58302e-06
5.04185e-08
-1.63291e-06
4.98923e-08
-1.68221e-06
4.93002e-08
-1.73085e-06
4.86363e-08
-1.77875e-06
4.78946e-08
-1.82581e-06
4.70692e-08
-1.87197e-06
4.61541e-08
-1.91711e-06
4.51434e-08
-1.96114e-06
4.40315e-08
-2.00396e-06
4.28127e-08
-2.04544e-06
4.14818e-08
-2.08547e-06
4.00337e-08
-2.12394e-06
3.84638e-08
-2.1607e-06
3.67679e-08
-2.19565e-06
3.49426e-08
-2.22863e-06
3.29848e-08
-2.25952e-06
3.08923e-08
-2.28819e-06
2.86637e-08
-2.31449e-06
2.62985e-08
-2.33828e-06
2.37973e-08
-2.35944e-06
2.11615e-08
-2.37784e-06
1.83939e-08
-2.39334e-06
1.54985e-08
-2.40582e-06
1.24804e-08
-2.41516e-06
9.34604e-09
-2.42127e-06
6.10339e-09
-2.42403e-06
2.76302e-09
-2.42336e-06
-6.71985e-10
-2.41918e-06
-4.17699e-09
-2.41143e-06
-7.74897e-09
-2.40006e-06
-1.13706e-08
-2.38503e-06
-1.50266e-08
-2.36633e-06
-1.87009e-08
-2.34396e-06
-2.23763e-08
-2.31792e-06
-2.60349e-08
-2.28826e-06
-2.96586e-08
-2.25503e-06
-3.32285e-08
-2.21831e-06
-3.67259e-08
-2.17818e-06
-4.01322e-08
-2.13475e-06
-4.34288e-08
-2.08815e-06
-4.65979e-08
-2.03853e-06
-4.96224e-08
-1.98604e-06
-5.24859e-08
-1.93087e-06
-5.51735e-08
-1.8732e-06
-5.76714e-08
-1.81323e-06
-5.99673e-08
-1.75118e-06
-6.20506e-08
-1.68727e-06
-6.39127e-08
-1.62172e-06
-6.55463e-08
-1.55477e-06
-6.69465e-08
-1.48666e-06
-6.81099e-08
-1.41763e-06
-6.90353e-08
-1.34791e-06
-6.9723e-08
-1.27773e-06
-7.01752e-08
-1.20733e-06
-7.03952e-08
-1.13695e-06
-7.03881e-08
-1.06679e-06
-7.01597e-08
-9.9707e-07
-6.97167e-08
-9.28004e-07
-6.90661e-08
-8.59789e-07
-6.82154e-08
-7.92617e-07
-6.71713e-08
-7.26677e-07
-6.59405e-08
-6.62149e-07
-6.45282e-08
-5.9921e-07
-6.29387e-08
-5.38036e-07
-6.11743e-08
-4.788e-07
-5.92355e-08
-4.2168e-07
-5.71205e-08
-3.66855e-07
-5.4825e-08
-3.14512e-07
-5.23424e-08
-2.64849e-07
-4.96634e-08
-2.18072e-07
-4.67768e-08
-1.74403e-07
-4.36693e-08
-1.34076e-07
-4.03268e-08
-9.73409e-08
-3.67351e-08
-6.44591e-08
-3.28817e-08
-3.57007e-08
-2.87584e-08
-1.13367e-08
-2.43641e-08
8.37345e-09
-1.97101e-08
2.32015e-08
-1.4828e-08
3.2982e-08
-9.78053e-09
3.76586e-08
-4.6766e-09
3.74267e-08
2.31885e-10
3.257e-08
4.85666e-09
2.41523e-08
8.41777e-09
1.38646e-08
1.02878e-08
4.63202e-09
9.23266e-09
4.63214e-09
-1.87797e-09
-2.1924e-09
-2.10755e-08
2.10276e-08
-6.47425e-08
5.59901e-08
-1.32551e-07
9.06431e-08
-2.21707e-07
1.21031e-07
-3.28501e-07
1.45864e-07
-4.49188e-07
1.652e-07
-5.80402e-07
1.79675e-07
-7.1931e-07
1.90123e-07
-8.63632e-07
1.97371e-07
-1.0116e-06
2.02161e-07
-1.16187e-06
2.05121e-07
-1.31347e-06
2.06757e-07
-1.4657e-06
2.07466e-07
-1.61808e-06
2.07548e-07
-1.7703e-06
2.07225e-07
-1.92215e-06
2.06654e-07
-2.07351e-06
2.05945e-07
-2.22432e-06
2.05166e-07
-2.37455e-06
2.0436e-07
-2.52417e-06
2.03548e-07
-2.67318e-06
2.02736e-07
-2.82156e-06
2.0192e-07
-2.9693e-06
2.0109e-07
-3.11638e-06
2.00231e-07
-3.26274e-06
1.99326e-07
-3.40835e-06
1.98356e-07
-3.55313e-06
1.97302e-07
-3.697e-06
1.96142e-07
-3.83988e-06
1.94857e-07
-3.98164e-06
1.93427e-07
-4.12218e-06
1.9183e-07
-4.26134e-06
1.90048e-07
-4.39898e-06
1.88058e-07
-4.53493e-06
1.85841e-07
-4.66901e-06
1.83376e-07
-4.80101e-06
1.80642e-07
-4.93074e-06
1.77619e-07
-5.05795e-06
1.74286e-07
-5.18242e-06
1.70622e-07
-5.30389e-06
1.66608e-07
-5.42208e-06
1.62224e-07
-5.53672e-06
1.57452e-07
-5.64751e-06
1.52274e-07
-5.75415e-06
1.46673e-07
-5.85632e-06
1.40635e-07
-5.9537e-06
1.34147e-07
-6.04595e-06
1.27197e-07
-6.13275e-06
1.19776e-07
-6.21373e-06
1.1188e-07
-6.28857e-06
1.03504e-07
-6.35692e-06
9.46487e-08
-6.41844e-06
8.53181e-08
-6.4728e-06
7.55195e-08
-6.51967e-06
6.52644e-08
-6.55874e-06
5.45684e-08
-6.58971e-06
4.34517e-08
-6.61231e-06
3.19388e-08
-6.62626e-06
2.00588e-08
-6.63134e-06
7.84549e-09
-6.62735e-06
-4.66484e-09
-6.6141e-06
-1.74278e-08
-6.59145e-06
-3.03967e-08
-6.5593e-06
-4.35225e-08
-6.51758e-06
-5.67507e-08
-6.46625e-06
-7.00241e-08
-6.40535e-06
-8.32831e-08
-6.33492e-06
-9.64658e-08
-6.25507e-06
-1.09509e-07
-6.16595e-06
-1.22347e-07
-6.06776e-06
-1.34917e-07
-5.96073e-06
-1.47154e-07
-5.84517e-06
-1.58996e-07
-5.72138e-06
-1.7038e-07
-5.58976e-06
-1.8125e-07
-5.45069e-06
-1.91549e-07
-5.30464e-06
-2.01228e-07
-5.15207e-06
-2.10239e-07
-4.9935e-06
-2.18541e-07
-4.82945e-06
-2.26099e-07
-4.66048e-06
-2.32883e-07
-4.48716e-06
-2.38869e-07
-4.31006e-06
-2.4404e-07
-4.12979e-06
-2.48385e-07
-3.94692e-06
-2.519e-07
-3.76206e-06
-2.54584e-07
-3.57579e-06
-2.56446e-07
-3.38869e-06
-2.57496e-07
-3.20133e-06
-2.57749e-07
-3.01426e-06
-2.57225e-07
-2.82804e-06
-2.55945e-07
-2.64317e-06
-2.5393e-07
-2.46018e-06
-2.51204e-07
-2.27957e-06
-2.47788e-07
-2.10181e-06
-2.437e-07
-1.92738e-06
-2.38957e-07
-1.75675e-06
-2.33569e-07
-1.59038e-06
-2.27539e-07
-1.42876e-06
-2.20865e-07
-1.27234e-06
-2.13536e-07
-1.12163e-06
-2.05533e-07
-9.77146e-07
-1.96828e-07
-8.39424e-07
-1.87385e-07
-7.0904e-07
-1.77161e-07
-5.86603e-07
-1.66107e-07
-4.72758e-07
-1.54172e-07
-3.68184e-07
-1.41309e-07
-2.73586e-07
-1.2748e-07
-1.89681e-07
-1.12663e-07
-1.17175e-07
-9.68706e-08
-5.672e-08
-8.01647e-08
-8.86555e-09
-6.26825e-08
2.60287e-08
-4.46748e-08
4.79151e-08
-2.6563e-08
5.71499e-08
-9.00288e-09
5.50008e-08
7.00573e-09
4.35419e-08
1.98766e-08
2.64245e-08
2.7405e-08
9.16717e-09
2.64897e-08
1.37994e-08
-1.27767e-08
1.05842e-08
-5.73673e-08
6.56184e-08
-1.36556e-07
1.35179e-07
-2.49002e-07
2.03089e-07
-3.91066e-07
2.63094e-07
-5.5809e-07
3.12888e-07
-7.45271e-07
3.52381e-07
-9.48151e-07
3.82555e-07
-1.16286e-06
4.04827e-07
-1.38617e-06
4.20682e-07
-1.61551e-06
4.31503e-07
-1.84888e-06
4.38489e-07
-2.08475e-06
4.42636e-07
-2.32203e-06
4.44737e-07
-2.55989e-06
4.45409e-07
-2.79777e-06
4.45113e-07
-3.03531e-06
4.44186e-07
-3.27223e-06
4.42864e-07
-3.50837e-06
4.41307e-07
-3.74362e-06
4.39614e-07
-3.97791e-06
4.37838e-07
-4.21118e-06
4.36005e-07
-4.44337e-06
4.34113e-07
-4.67443e-06
4.32149e-07
-4.90429e-06
4.30087e-07
-5.13286e-06
4.27895e-07
-5.36004e-06
4.25537e-07
-5.58571e-06
4.22975e-07
-5.80974e-06
4.20169e-07
-6.03196e-06
4.17078e-07
-6.25219e-06
4.13661e-07
-6.47024e-06
4.09876e-07
-6.68587e-06
4.05683e-07
-6.89886e-06
4.01039e-07
-7.10892e-06
3.95902e-07
-7.31577e-06
3.90231e-07
-7.51911e-06
3.83984e-07
-7.71861e-06
3.77119e-07
-7.91392e-06
3.69594e-07
-8.10467e-06
3.6137e-07
-8.29047e-06
3.52406e-07
-8.47091e-06
3.42664e-07
-8.64556e-06
3.32108e-07
-8.81399e-06
3.20703e-07
-8.97574e-06
3.08419e-07
-9.13033e-06
2.95226e-07
-9.27728e-06
2.81101e-07
-9.41611e-06
2.66025e-07
-9.54631e-06
2.49981e-07
-9.6674e-06
2.32961e-07
-9.77885e-06
2.14962e-07
-9.88019e-06
1.95987e-07
-9.97092e-06
1.76048e-07
-1.00506e-05
1.55164e-07
-1.01187e-05
1.3336e-07
-1.01748e-05
1.10673e-07
-1.02185e-05
8.71472e-08
-1.02494e-05
6.28352e-08
-1.02671e-05
3.77992e-08
-1.02714e-05
1.21101e-08
-1.02619e-05
-1.41513e-08
-1.02384e-05
-4.08984e-08
-1.02008e-05
-6.80331e-08
-1.01488e-05
-9.54523e-08
-1.00825e-05
-1.23045e-07
-1.00019e-05
-1.50696e-07
-9.90687e-06
-1.78282e-07
-9.79766e-06
-2.05679e-07
-9.67441e-06
-2.32758e-07
-9.53737e-06
-2.59391e-07
-9.38684e-06
-2.85447e-07
-9.22319e-06
-3.10799e-07
-9.04687e-06
-3.35321e-07
-8.85836e-06
-3.58892e-07
-8.65821e-06
-3.81397e-07
-8.44703e-06
-4.02726e-07
-8.22548e-06
-4.2278e-07
-7.99425e-06
-4.41466e-07
-7.75409e-06
-4.58704e-07
-7.50577e-06
-4.74424e-07
-7.25008e-06
-4.88567e-07
-6.98786e-06
-5.01089e-07
-6.71995e-06
-5.11955e-07
-6.44719e-06
-5.21144e-07
-6.17044e-06
-5.28646e-07
-5.89056e-06
-5.34464e-07
-5.6084e-06
-5.38611e-07
-5.32478e-06
-5.41108e-07
-5.04055e-06
-5.41985e-07
-4.7565e-06
-5.41278e-07
-4.47341e-06
-5.39027e-07
-4.19207e-06
-5.35274e-07
-3.91321e-06
-5.3006e-07
-3.63758e-06
-5.23426e-07
-3.36587e-06
-5.15403e-07
-3.09881e-06
-5.06019e-07
-2.83709e-06
-4.95289e-07
-2.58142e-06
-4.83214e-07
-2.3325e-06
-4.69784e-07
-2.09106e-06
-4.54969e-07
-1.85787e-06
-4.38726e-07
-1.63371e-06
-4.2099e-07
-1.41941e-06
-4.01683e-07
-1.21586e-06
-3.80715e-07
-1.02398e-06
-3.57983e-07
-8.44766e-07
-3.33386e-07
-6.79244e-07
-3.06831e-07
-5.28476e-07
-2.78248e-07
-3.93527e-07
-2.47611e-07
-2.75431e-07
-2.14967e-07
-1.75122e-07
-1.80473e-07
-9.33586e-08
-1.44446e-07
-3.05986e-08
-1.07435e-07
1.31527e-08
-7.03143e-08
3.85562e-08
-3.44064e-08
4.72587e-08
-1.69674e-09
4.20776e-08
2.50578e-08
2.75464e-08
4.19363e-08
1.0238e-08
4.37979e-08
2.40374e-08
-2.43278e-08
3.49122e-08
-9.54624e-08
1.36753e-07
-2.10972e-07
2.50688e-07
-3.67116e-07
3.59233e-07
-5.58964e-07
4.54943e-07
-7.81005e-07
5.34929e-07
-1.02772e-06
5.99092e-07
-1.29396e-06
6.488e-07
-1.57521e-06
6.8608e-07
-1.86765e-06
7.13116e-07
-2.16813e-06
7.31989e-07
-2.47418e-06
7.4454e-07
-2.78387e-06
7.52322e-07
-3.09573e-06
7.56598e-07
-3.40868e-06
7.5836e-07
-3.72194e-06
7.58366e-07
-4.03493e-06
7.57179e-07
-4.34727e-06
7.55201e-07
-4.65866e-06
7.52706e-07
-4.96892e-06
7.49874e-07
-5.27789e-06
7.46809e-07
-5.58545e-06
7.43561e-07
-5.89148e-06
7.40144e-07
-6.19587e-06
7.3654e-07
-6.4985e-06
7.32717e-07
-6.79923e-06
7.28626e-07
-7.09791e-06
7.24213e-07
-7.39435e-06
7.19417e-07
-7.68836e-06
7.14177e-07
-7.97971e-06
7.08425e-07
-8.26814e-06
7.02097e-07
-8.55339e-06
6.95125e-07
-8.83515e-06
6.87442e-07
-9.11309e-06
6.78981e-07
-9.38686e-06
6.69672e-07
-9.65608e-06
6.59449e-07
-9.92034e-06
6.48243e-07
-1.01792e-05
6.35988e-07
-1.04322e-05
6.22618e-07
-1.06789e-05
6.08067e-07
-1.09188e-05
5.92274e-07
-1.11513e-05
5.75177e-07
-1.13759e-05
5.56719e-07
-1.15921e-05
5.36849e-07
-1.17992e-05
5.15518e-07
-1.19966e-05
4.92683e-07
-1.21838e-05
4.6831e-07
-1.23602e-05
4.4237e-07
-1.2525e-05
4.14843e-07
-1.26778e-05
3.8572e-07
-1.28178e-05
3.55e-07
-1.29445e-05
3.22696e-07
-1.30573e-05
2.8883e-07
-1.31556e-05
2.53438e-07
-1.32388e-05
2.1657e-07
-1.33064e-05
1.78289e-07
-1.3358e-05
1.38672e-07
-1.33929e-05
9.78099e-08
-1.34109e-05
5.58093e-08
-1.34116e-05
1.279e-08
-1.33947e-05
-3.11142e-08
-1.33598e-05
-7.57564e-08
-1.33069e-05
-1.20977e-07
-1.32357e-05
-1.66605e-07
-1.31463e-05
-2.12459e-07
-1.30386e-05
-2.58349e-07
-1.29128e-05
-3.04078e-07
-1.27691e-05
-3.49442e-07
-1.26076e-05
-3.94235e-07
-1.24287e-05
-4.38249e-07
-1.22329e-05
-4.81276e-07
-1.20206e-05
-5.23111e-07
-1.17924e-05
-5.63555e-07
-1.15488e-05
-6.02414e-07
-1.12907e-05
-6.39506e-07
-1.10188e-05
-6.74657e-07
-1.07339e-05
-7.07711e-07
-1.04368e-05
-7.38521e-07
-1.01286e-05
-7.66963e-07
-9.81006e-06
-7.92926e-07
-9.4823e-06
-8.1632e-07
-9.14632e-06
-8.37073e-07
-8.80314e-06
-8.55134e-07
-8.45381e-06
-8.70471e-07
-8.09939e-06
-8.83069e-07
-7.74092e-06
-8.92934e-07
-7.37945e-06
-9.00084e-07
-7.016e-06
-9.04556e-07
-6.65159e-06
-9.06396e-07
-6.28721e-06
-9.05658e-07
-5.92383e-06
-9.02406e-07
-5.5624e-06
-8.96703e-07
-5.20385e-06
-8.88612e-07
-4.84909e-06
-8.78191e-07
-4.499e-06
-8.65489e-07
-4.15448e-06
-8.50541e-07
-3.8164e-06
-8.33364e-07
-3.48566e-06
-8.13955e-07
-3.16316e-06
-7.92287e-07
-2.84982e-06
-7.68306e-07
-2.54662e-06
-7.41931e-07
-2.25455e-06
-7.13053e-07
-1.9747e-06
-6.8154e-07
-1.70817e-06
-6.47238e-07
-1.45617e-06
-6.09983e-07
-1.21995e-06
-5.6961e-07
-1.0008e-06
-5.25976e-07
-8.0007e-07
-4.78982e-07
-6.19075e-07
-4.28607e-07
-4.59088e-07
-3.74955e-07
-3.21244e-07
-3.18317e-07
-2.06442e-07
-2.59248e-07
-1.15203e-07
-1.98674e-07
-4.74973e-08
-1.3802e-07
-2.5181e-09
-7.93856e-08
2.15468e-08
-2.57617e-08
2.78755e-08
1.87291e-08
2.12798e-08
4.85321e-08
8.6589e-09
5.64188e-08
3.26963e-08
-3.51169e-08
7.00291e-08
-1.31634e-07
2.3327e-07
-2.82107e-07
4.01161e-07
-4.79867e-07
5.56992e-07
-7.18292e-07
6.93368e-07
-9.90871e-07
8.07508e-07
-1.29142e-06
8.99639e-07
-1.61429e-06
9.71674e-07
-1.95453e-06
1.02632e-06
-2.30791e-06
1.06649e-06
-2.67092e-06
1.09501e-06
-3.04076e-06
1.11438e-06
-3.41519e-06
1.12675e-06
-3.7925e-06
1.1339e-06
-4.17136e-06
1.13723e-06
-4.55082e-06
1.13782e-06
-4.93013e-06
1.1365e-06
-5.30878e-06
1.13385e-06
-5.68637e-06
1.13029e-06
-6.0626e-06
1.1261e-06
-6.43724e-06
1.12145e-06
-6.8101e-06
1.11641e-06
-7.18098e-06
1.11103e-06
-7.54972e-06
1.10528e-06
-7.91614e-06
1.09914e-06
-8.28004e-06
1.09252e-06
-8.6412e-06
1.08537e-06
-8.99939e-06
1.0776e-06
-9.35434e-06
1.06912e-06
-9.70576e-06
1.05984e-06
-1.00533e-05
1.04966e-06
-1.03967e-05
1.03849e-06
-1.07355e-05
1.02624e-06
-1.10693e-05
1.01279e-06
-1.13977e-05
9.98068e-07
-1.17202e-05
9.81962e-07
-1.20363e-05
9.6438e-07
-1.23456e-05
9.45227e-07
-1.26474e-05
9.24408e-07
-1.29411e-05
9.01834e-07
-1.32263e-05
8.77415e-07
-1.35022e-05
8.51068e-07
-1.37682e-05
8.22714e-07
-1.40236e-05
7.92282e-07
-1.42678e-05
7.59708e-07
-1.45e-05
7.24934e-07
-1.47196e-05
6.87916e-07
-1.49259e-05
6.4862e-07
-1.51181e-05
6.07023e-07
-1.52955e-05
5.63118e-07
-1.54574e-05
5.16913e-07
-1.56031e-05
4.68431e-07
-1.5732e-05
4.17714e-07
-1.58434e-05
3.64822e-07
-1.59367e-05
3.09832e-07
-1.60112e-05
2.52844e-07
-1.60665e-05
1.93976e-07
-1.61021e-05
1.33367e-07
-1.61174e-05
7.11757e-08
-1.61122e-05
7.58104e-09
-1.60861e-05
-5.72188e-08
-1.60389e-05
-1.23008e-07
-1.59703e-05
-1.89552e-07
-1.58803e-05
-2.56602e-07
-1.57689e-05
-3.23895e-07
-1.56361e-05
-3.91157e-07
-1.5482e-05
-4.58104e-07
-1.5307e-05
-5.24443e-07
-1.51114e-05
-5.89881e-07
-1.48955e-05
-6.54119e-07
-1.46599e-05
-7.16863e-07
-1.44052e-05
-7.77823e-07
-1.41321e-05
-8.36715e-07
-1.38412e-05
-8.93269e-07
-1.35335e-05
-9.47227e-07
-1.32098e-05
-9.98347e-07
-1.28711e-05
-1.04641e-06
-1.25184e-05
-1.09121e-06
-1.21528e-05
-1.13257e-06
-1.17754e-05
-1.17035e-06
-1.13873e-05
-1.20442e-06
-1.09897e-05
-1.23467e-06
-1.05838e-05
-1.26105e-06
-1.01707e-05
-1.28351e-06
-9.75176e-06
-1.30202e-06
-9.32808e-06
-1.31661e-06
-8.90087e-06
-1.32729e-06
-8.4713e-06
-1.33413e-06
-8.04053e-06
-1.33717e-06
-7.60967e-06
-1.33651e-06
-7.17985e-06
-1.33223e-06
-6.75214e-06
-1.32441e-06
-6.3276e-06
-1.31315e-06
-5.90728e-06
-1.29851e-06
-5.4922e-06
-1.28057e-06
-5.08339e-06
-1.25936e-06
-4.68185e-06
-1.2349e-06
-4.28862e-06
-1.20718e-06
-3.90475e-06
-1.17616e-06
-3.53132e-06
-1.14174e-06
-3.16946e-06
-1.1038e-06
-2.82033e-06
-1.06218e-06
-2.4852e-06
-1.01668e-06
-2.16536e-06
-9.67078e-07
-1.8622e-06
-9.1314e-07
-1.57717e-06
-8.54636e-07
-1.31178e-06
-7.91366e-07
-1.06756e-06
-7.23207e-07
-8.46012e-07
-6.50153e-07
-6.48579e-07
-5.72388e-07
-4.76533e-07
-4.90363e-07
-3.30868e-07
-4.04913e-07
-2.1216e-07
-3.17382e-07
-1.20384e-07
-2.29796e-07
-5.47057e-08
-1.45064e-07
-1.32547e-08
-6.72127e-08
7.14862e-09
-1.67431e-09
1.1281e-08
4.43997e-08
5.84901e-09
6.18508e-08
3.85453e-08
-4.47221e-08
1.14751e-07
-1.64441e-07
3.52989e-07
-3.47342e-07
5.84062e-07
-5.83796e-07
7.93446e-07
-8.65299e-07
9.74872e-07
-1.18419e-06
1.1264e-06
-1.53357e-06
1.24902e-06
-1.90732e-06
1.34543e-06
-2.30014e-06
1.41914e-06
-2.70753e-06
1.47388e-06
-3.12573e-06
1.51321e-06
-3.55171e-06
1.54035e-06
-3.98303e-06
1.55807e-06
-4.41778e-06
1.56865e-06
-4.85448e-06
1.57393e-06
-5.29202e-06
1.57536e-06
-5.72953e-06
1.574e-06
-6.16636e-06
1.57068e-06
-6.60202e-06
1.56595e-06
-7.03612e-06
1.5602e-06
-7.46834e-06
1.55367e-06
-7.89842e-06
1.54649e-06
-8.3261e-06
1.53871e-06
-8.75116e-06
1.53033e-06
-9.17333e-06
1.52131e-06
-9.59237e-06
1.51156e-06
-1.0008e-05
1.501e-06
-1.04199e-05
1.48952e-06
-1.08278e-05
1.477e-06
-1.12313e-05
1.46332e-06
-1.163e-05
1.44837e-06
-1.20235e-05
1.432e-06
-1.24113e-05
1.4141e-06
-1.27931e-05
1.39454e-06
-1.31682e-05
1.37318e-06
-1.35361e-05
1.3499e-06
-1.38963e-05
1.32457e-06
-1.42482e-05
1.29707e-06
-1.4591e-05
1.26728e-06
-1.49243e-05
1.23506e-06
-1.52472e-05
1.20032e-06
-1.55591e-05
1.16294e-06
-1.58592e-05
1.12283e-06
-1.61468e-05
1.07989e-06
-1.64211e-05
1.03404e-06
-1.66814e-05
9.85216e-07
-1.69268e-05
9.33364e-07
-1.71567e-05
8.78446e-07
-1.73701e-05
8.20442e-07
-1.75663e-05
7.5935e-07
-1.77446e-05
6.9519e-07
-1.79042e-05
6.28004e-07
-1.80443e-05
5.57856e-07
-1.81643e-05
4.84836e-07
-1.82635e-05
4.09059e-07
-1.83414e-05
3.30666e-07
-1.83972e-05
2.49825e-07
-1.84306e-05
1.6673e-07
-1.8441e-05
8.16021e-08
-1.84281e-05
-5.31321e-09
-1.83916e-05
-9.37443e-08
-1.83312e-05
-1.83396e-07
-1.82468e-05
-2.73953e-07
-1.81383e-05
-3.65079e-07
-1.80058e-05
-4.56419e-07
-1.78493e-05
-5.47607e-07
-1.76692e-05
-6.38263e-07
-1.74656e-05
-7.27999e-07
-1.72391e-05
-8.16425e-07
-1.69901e-05
-9.03146e-07
-1.67191e-05
-9.87776e-07
-1.6427e-05
-1.06993e-06
-1.61145e-05
-1.14924e-06
-1.57824e-05
-1.22535e-06
-1.54317e-05
-1.29792e-06
-1.50634e-05
-1.36665e-06
-1.46786e-05
-1.43123e-06
-1.42784e-05
-1.49142e-06
-1.3864e-05
-1.54699e-06
-1.34366e-05
-1.59774e-06
-1.29975e-05
-1.64351e-06
-1.2548e-05
-1.68419e-06
-1.20894e-05
-1.71967e-06
-1.16229e-05
-1.74992e-06
-1.115e-05
-1.77492e-06
-1.0672e-05
-1.79467e-06
-1.01901e-05
-1.80922e-06
-9.70556e-06
-1.81863e-06
-9.21973e-06
-1.823e-06
-8.73381e-06
-1.82243e-06
-8.24902e-06
-1.81703e-06
-7.76653e-06
-1.8069e-06
-7.2875e-06
-1.79218e-06
-6.81307e-06
-1.77294e-06
-6.34438e-06
-1.74926e-06
-5.88253e-06
-1.72121e-06
-5.42864e-06
-1.68879e-06
-4.98385e-06
-1.65197e-06
-4.54931e-06
-1.6107e-06
-4.12621e-06
-1.56483e-06
-3.7158e-06
-1.51421e-06
-3.31937e-06
-1.4586e-06
-2.9383e-06
-1.39775e-06
-2.57402e-06
-1.33135e-06
-2.22807e-06
-1.2591e-06
-1.90201e-06
-1.18069e-06
-1.59751e-06
-1.09587e-06
-1.31622e-06
-1.0045e-06
-1.05977e-06
-9.06597e-07
-8.29726e-07
-8.02436e-07
-6.27438e-07
-6.92651e-07
-4.53979e-07
-5.78372e-07
-3.09977e-07
-4.61384e-07
-1.95448e-07
-3.44325e-07
-1.09606e-07
-2.30906e-07
-5.06509e-08
-1.26167e-07
-1.55495e-08
-3.67757e-08
1.87212e-10
2.86629e-08
2.64644e-09
5.93916e-08
4.11918e-08
-5.31068e-08
1.67858e-07
-1.93545e-07
4.93427e-07
-4.0584e-07
7.96358e-07
-6.77615e-07
1.06522e-06
-9.98479e-07
1.29574e-06
-1.35954e-06
1.48746e-06
-1.75313e-06
1.64261e-06
-2.17265e-06
1.76495e-06
-2.61247e-06
1.85896e-06
-3.06785e-06
1.92926e-06
-3.53489e-06
1.98024e-06
-4.01037e-06
2.01584e-06
-4.49173e-06
2.03943e-06
-4.97694e-06
2.05385e-06
-5.46438e-06
2.06138e-06
-5.95283e-06
2.0638e-06
-6.44132e-06
2.0625e-06
-6.92911e-06
2.05847e-06
-7.41561e-06
2.05246e-06
-7.90036e-06
2.04495e-06
-8.38295e-06
2.03627e-06
-8.86306e-06
2.0266e-06
-9.34036e-06
2.01601e-06
-9.81455e-06
2.00453e-06
-1.02853e-05
1.99209e-06
-1.07524e-05
1.97861e-06
-1.12154e-05
1.96398e-06
-1.16739e-05
1.94807e-06
-1.21276e-05
1.93073e-06
-1.25761e-05
1.91182e-06
-1.3019e-05
1.89119e-06
-1.34556e-05
1.86866e-06
-1.38856e-05
1.84409e-06
-1.43084e-05
1.81731e-06
-1.47234e-05
1.78816e-06
-1.51299e-05
1.75648e-06
-1.55275e-05
1.72211e-06
-1.59153e-05
1.68489e-06
-1.62927e-05
1.64467e-06
-1.66589e-05
1.6013e-06
-1.70132e-05
1.55465e-06
-1.73549e-05
1.50458e-06
-1.7683e-05
1.45098e-06
-1.79969e-05
1.39373e-06
-1.82956e-05
1.33274e-06
-1.85783e-05
1.26794e-06
-1.88442e-05
1.19926e-06
-1.90924e-05
1.12667e-06
-1.93221e-05
1.05015e-06
-1.95325e-05
9.69717e-07
-1.97227e-05
8.854e-07
-1.9892e-05
7.97265e-07
-2.00395e-05
7.05408e-07
-2.01646e-05
6.09953e-07
-2.02666e-05
5.11058e-07
-2.03449e-05
4.08914e-07
-2.03988e-05
3.03745e-07
-2.04279e-05
1.95808e-07
-2.04317e-05
8.53917e-08
-2.04098e-05
-2.71818e-08
-2.0362e-05
-1.41561e-07
-2.0288e-05
-2.57364e-07
-2.01878e-05
-3.74186e-07
-2.00613e-05
-4.91595e-07
-1.99085e-05
-6.09141e-07
-1.97298e-05
-7.26356e-07
-1.95253e-05
-8.42758e-07
-1.92954e-05
-9.57859e-07
-1.90407e-05
-1.07116e-06
-1.87617e-05
-1.18218e-06
-1.8459e-05
-1.29042e-06
-1.81335e-05
-1.3954e-06
-1.77861e-05
-1.49667e-06
-1.74177e-05
-1.59378e-06
-1.70293e-05
-1.68631e-06
-1.66221e-05
-1.77388e-06
-1.61972e-05
-1.85613e-06
-1.57558e-05
-1.93274e-06
-1.52994e-05
-2.00344e-06
-1.48291e-05
-2.06799e-06
-1.43465e-05
-2.12619e-06
-1.38528e-05
-2.1779e-06
-1.33494e-05
-2.22302e-06
-1.28379e-05
-2.26148e-06
-1.23195e-05
-2.29328e-06
-1.17957e-05
-2.31843e-06
-1.1268e-05
-2.33698e-06
-1.07376e-05
-2.34904e-06
-1.02059e-05
-2.3547e-06
-9.67417e-06
-2.35411e-06
-9.1438e-06
-2.3474e-06
-8.616e-06
-2.33471e-06
-8.092e-06
-2.31618e-06
-7.57301e-06
-2.29193e-06
-7.06023e-06
-2.26205e-06
-6.55484e-06
-2.2266e-06
-6.05804e-06
-2.18559e-06
-5.57103e-06
-2.13899e-06
-5.09503e-06
-2.08669e-06
-4.63132e-06
-2.02854e-06
-4.18121e-06
-1.96432e-06
-3.74608e-06
-1.89373e-06
-3.32738e-06
-1.81645e-06
-2.92665e-06
-1.73208e-06
-2.5455e-06
-1.64025e-06
-2.18559e-06
-1.54059e-06
-1.84866e-06
-1.4328e-06
-1.53645e-06
-1.31671e-06
-1.25068e-06
-1.19237e-06
-9.92954e-07
-1.06016e-06
-7.64712e-07
-9.20893e-07
-5.67075e-07
-7.76008e-07
-4.00728e-07
-6.27732e-07
-2.65755e-07
-4.79298e-07
-1.61471e-07
-3.3519e-07
-8.62328e-08
-2.01406e-07
-3.727e-08
-8.57385e-08
-1.05268e-08
1.91971e-09
-4.53609e-10
4.93184e-08
4.07381e-08
-6.0374e-08
2.28232e-07
-2.19089e-07
6.52142e-07
-4.57642e-07
1.03491e-06
-7.61226e-07
1.3688e-06
-1.11767e-06
1.65218e-06
-1.51685e-06
1.88664e-06
-1.95031e-06
2.07606e-06
-2.41093e-06
2.22556e-06
-2.89275e-06
2.34078e-06
-3.39085e-06
2.42736e-06
-3.90114e-06
2.49054e-06
-4.42034e-06
2.53503e-06
-4.94576e-06
2.56486e-06
-5.47528e-06
2.58338e-06
-6.00723e-06
2.59333e-06
-6.54029e-06
2.59686e-06
-7.0734e-06
2.59561e-06
-7.60576e-06
2.59083e-06
-8.1367e-06
2.5834e-06
-8.66568e-06
2.57393e-06
-9.19225e-06
2.56284e-06
-9.716e-06
2.55035e-06
-1.02366e-05
2.53657e-06
-1.07536e-05
2.52152e-06
-1.12666e-05
2.50515e-06
-1.17754e-05
2.48737e-06
-1.22795e-05
2.46805e-06
-1.27784e-05
2.44702e-06
-1.32718e-05
2.42413e-06
-1.37592e-05
2.3992e-06
-1.424e-05
2.37202e-06
-1.47138e-05
2.34243e-06
-1.51799e-05
2.31021e-06
-1.56378e-05
2.27518e-06
-1.60867e-05
2.23714e-06
-1.65262e-05
2.1959e-06
-1.69553e-05
2.15126e-06
-1.73735e-05
2.10303e-06
-1.77798e-05
2.05105e-06
-1.81737e-05
1.99512e-06
-1.85541e-05
1.93509e-06
-1.89203e-05
1.87081e-06
-1.92715e-05
1.80213e-06
-1.96067e-05
1.72892e-06
-1.9925e-05
1.6511e-06
-2.02257e-05
1.56856e-06
-2.05077e-05
1.48126e-06
-2.07701e-05
1.38915e-06
-2.10122e-05
1.29223e-06
-2.1233e-05
1.19052e-06
-2.14317e-05
1.08408e-06
-2.16074e-05
9.7301e-07
-2.17595e-05
8.57429e-07
-2.1887e-05
7.37507e-07
-2.19894e-05
6.13452e-07
-2.2066e-05
4.85508e-07
-2.21162e-05
3.53962e-07
-2.21395e-05
2.19141e-07
-2.21356e-05
8.14098e-08
-2.21039e-05
-5.88293e-08
-2.20443e-05
-2.01137e-07
-2.19567e-05
-3.4504e-07
-2.18408e-05
-4.90035e-07
-2.16968e-05
-6.35592e-07
-2.15248e-05
-7.81154e-07
-2.1325e-05
-9.2615e-07
-2.10978e-05
-1.06999e-06
-2.08436e-05
-1.21208e-06
-2.05629e-05
-1.35182e-06
-2.02565e-05
-1.4886e-06
-1.99251e-05
-1.62184e-06
-1.95695e-05
-1.75097e-06
-1.91908e-05
-1.87541e-06
-1.87899e-05
-1.99465e-06
-1.8368e-05
-2.10819e-06
-1.79263e-05
-2.21555e-06
-1.74662e-05
-2.31631e-06
-1.69888e-05
-2.41011e-06
-1.64956e-05
-2.4966e-06
-1.59881e-05
-2.57552e-06
-1.54677e-05
-2.64663e-06
-1.49358e-05
-2.70976e-06
-1.4394e-05
-2.76481e-06
-1.38438e-05
-2.8117e-06
-1.32867e-05
-2.85042e-06
-1.27241e-05
-2.88102e-06
-1.21575e-05
-2.90355e-06
-1.15884e-05
-2.91814e-06
-1.10182e-05
-2.92493e-06
-1.04482e-05
-2.92407e-06
-9.87987e-06
-2.91575e-06
-9.31445e-06
-2.90013e-06
-8.75325e-06
-2.87738e-06
-8.19753e-06
-2.84765e-06
-7.64854e-06
-2.81104e-06
-7.10751e-06
-2.76762e-06
-6.57569e-06
-2.71741e-06
-6.05432e-06
-2.66036e-06
-5.54467e-06
-2.59634e-06
-5.04806e-06
-2.52515e-06
-4.56586e-06
-2.44653e-06
-4.09948e-06
-2.36011e-06
-3.65043e-06
-2.26549e-06
-3.22029e-06
-2.16222e-06
-2.81071e-06
-2.04983e-06
-2.42342e-06
-1.92789e-06
-2.06018e-06
-1.79604e-06
-1.72278e-06
-1.65411e-06
-1.41298e-06
-1.50217e-06
-1.13244e-06
-1.3407e-06
-8.82618e-07
-1.17071e-06
-6.6469e-07
-9.93937e-07
-4.79398e-07
-8.13023e-07
-3.26914e-07
-6.31782e-07
-2.06678e-07
-4.55426e-07
-1.17243e-07
-2.9084e-07
-5.61284e-08
-1.46854e-07
-1.96885e-08
-3.45202e-08
-3.00066e-09
3.26306e-08
3.77375e-08
-6.66624e-08
2.94894e-07
-2.41394e-07
8.26874e-07
-5.03189e-07
1.29671e-06
-8.35139e-07
1.70075e-06
-1.22346e-06
2.0405e-06
-1.65687e-06
2.32005e-06
-2.12609e-06
2.54529e-06
-2.6235e-06
2.72297e-06
-3.14282e-06
2.8601e-06
-3.6789e-06
2.96344e-06
-4.22754e-06
3.03918e-06
-4.78534e-06
3.09283e-06
-5.34957e-06
3.12909e-06
-5.91805e-06
3.15185e-06
-6.48903e-06
3.16431e-06
-7.06114e-06
3.16897e-06
-7.63329e-06
3.16776e-06
-8.2046e-06
3.16213e-06
-8.77434e-06
3.15314e-06
-9.34193e-06
3.14152e-06
-9.90684e-06
3.12775e-06
-1.04686e-05
3.11212e-06
-1.10268e-05
3.09478e-06
-1.15811e-05
3.07574e-06
-1.21309e-05
3.05497e-06
-1.26758e-05
3.03235e-06
-1.32155e-05
3.00775e-06
-1.37495e-05
2.98097e-06
-1.42772e-05
2.95183e-06
-1.47981e-05
2.92012e-06
-1.53117e-05
2.88561e-06
-1.58174e-05
2.84809e-06
-1.63145e-05
2.80732e-06
-1.68024e-05
2.76308e-06
-1.72804e-05
2.71513e-06
-1.77477e-05
2.66325e-06
-1.82037e-05
2.60722e-06
-1.86475e-05
2.54681e-06
-1.90782e-05
2.48182e-06
-1.94952e-05
2.41205e-06
-1.98974e-05
2.3373e-06
-2.0284e-05
2.25741e-06
-2.0654e-05
2.1722e-06
-2.10067e-05
2.08156e-06
-2.13409e-05
1.98536e-06
-2.16559e-05
1.88351e-06
-2.19506e-05
1.77596e-06
-2.22241e-05
1.66267e-06
-2.24755e-05
1.54366e-06
-2.2704e-05
1.41896e-06
-2.29085e-05
1.28865e-06
-2.30884e-05
1.15288e-06
-2.32428e-05
1.01179e-06
-2.33709e-05
8.65609e-07
-2.3472e-05
7.14594e-07
-2.35456e-05
5.59052e-07
-2.35909e-05
3.99336e-07
-2.36076e-05
2.35849e-07
-2.35953e-05
6.90348e-08
-2.35535e-05
-1.00615e-07
-2.34821e-05
-2.72568e-07
-2.33808e-05
-4.46255e-07
-2.32498e-05
-6.21069e-07
-2.3089e-05
-7.96373e-07
-2.28987e-05
-9.71504e-07
-2.2679e-05
-1.14578e-06
-2.24305e-05
-1.3185e-06
-2.21537e-05
-1.48895e-06
-2.18491e-05
-1.65642e-06
-2.15175e-05
-1.82021e-06
-2.11597e-05
-1.97961e-06
-2.07767e-05
-2.13395e-06
-2.03695e-05
-2.28258e-06
-1.99393e-05
-2.42486e-06
-1.94873e-05
-2.56022e-06
-1.90147e-05
-2.68811e-06
-1.8523e-05
-2.80805e-06
-1.80135e-05
-2.91958e-06
-1.74878e-05
-3.02234e-06
-1.69473e-05
-3.11601e-06
-1.63936e-05
-3.20032e-06
-1.58283e-05
-3.27508e-06
-1.52529e-05
-3.34018e-06
-1.46691e-05
-3.39554e-06
-1.40783e-05
-3.44116e-06
-1.34823e-05
-3.47708e-06
-1.28824e-05
-3.50341e-06
-1.22802e-05
-3.52029e-06
-1.16773e-05
-3.52789e-06
-1.1075e-05
-3.5264e-06
-1.04747e-05
-3.51604e-06
-9.87778e-06
-3.49702e-06
-9.28562e-06
-3.46954e-06
-8.69951e-06
-3.43376e-06
-8.12071e-06
-3.38983e-06
-7.55051e-06
-3.33783e-06
-6.99016e-06
-3.27776e-06
-6.44095e-06
-3.20957e-06
-5.90416e-06
-3.13312e-06
-5.38114e-06
-3.04817e-06
-4.87328e-06
-2.95439e-06
-4.38201e-06
-2.85138e-06
-3.90885e-06
-2.73865e-06
-3.4554e-06
-2.61567e-06
-3.02332e-06
-2.48191e-06
-2.61436e-06
-2.33685e-06
-2.2303e-06
-2.1801e-06
-1.87294e-06
-2.01147e-06
-1.54405e-06
-1.83106e-06
-1.24529e-06
-1.63945e-06
-9.78173e-07
-1.43783e-06
-7.43893e-07
-1.22822e-06
-5.43252e-07
-1.01366e-06
-3.76512e-07
-7.98523e-07
-2.43245e-07
-5.88692e-07
-1.42203e-07
-3.91883e-07
-7.11794e-08
-2.17877e-07
-2.69118e-08
-7.87878e-08
-4.993e-09
1.07117e-08
3.27445e-08
-7.21058e-08
3.67e-07
-2.60825e-07
1.01559e-06
-5.43071e-07
1.57895e-06
-9.00139e-07
2.05782e-06
-1.31682e-06
2.45718e-06
-1.78076e-06
2.78399e-06
-2.28192e-06
3.04646e-06
-2.81217e-06
3.25322e-06
-3.36488e-06
3.41281e-06
-3.9347e-06
3.53326e-06
-4.5173e-06
3.62178e-06
-5.10921e-06
3.68474e-06
-5.70763e-06
3.72751e-06
-6.31034e-06
3.75456e-06
-6.91556e-06
3.76954e-06
-7.52188e-06
3.77529e-06
-8.12817e-06
3.77405e-06
-8.7335e-06
3.76746e-06
-9.33712e-06
3.75676e-06
-9.93837e-06
3.74278e-06
-1.05367e-05
3.72608e-06
-1.11316e-05
3.70702e-06
-1.17226e-05
3.68576e-06
-1.23092e-05
3.66234e-06
-1.28909e-05
3.63672e-06
-1.34674e-05
3.60878e-06
-1.4038e-05
3.57835e-06
-1.46022e-05
3.54523e-06
-1.51596e-05
3.50921e-06
-1.57095e-05
3.47003e-06
-1.62514e-05
3.42746e-06
-1.67845e-05
3.38123e-06
-1.73083e-05
3.33108e-06
-1.78219e-05
3.27675e-06
-1.83248e-05
3.21797e-06
-1.8816e-05
3.15448e-06
-1.92948e-05
3.08603e-06
-1.97604e-05
3.01237e-06
-2.02118e-05
2.93326e-06
-2.06482e-05
2.84847e-06
-2.10687e-05
2.75779e-06
-2.14723e-05
2.66103e-06
-2.18581e-05
2.55801e-06
-2.22252e-05
2.44858e-06
-2.25724e-05
2.33263e-06
-2.2899e-05
2.21006e-06
-2.32038e-05
2.08081e-06
-2.3486e-05
1.94487e-06
-2.37446e-05
1.80225e-06
-2.39787e-05
1.65303e-06
-2.41874e-05
1.49731e-06
-2.43697e-05
1.33526e-06
-2.4525e-05
1.16709e-06
-2.46525e-05
9.93059e-07
-2.47514e-05
8.13492e-07
-2.48211e-05
6.2876e-07
-2.4861e-05
4.39288e-07
-2.48707e-05
2.45558e-07
-2.48498e-05
4.81009e-08
-2.47979e-05
-1.525e-07
-2.47149e-05
-3.55615e-07
-2.46006e-05
-5.60571e-07
-2.4455e-05
-7.66654e-07
-2.42782e-05
-9.73118e-07
-2.40706e-05
-1.17918e-06
-2.38323e-05
-1.38405e-06
-2.35639e-05
-1.58691e-06
-2.32659e-05
-1.78693e-06
-2.2939e-05
-1.98328e-06
-2.25841e-05
-2.17514e-06
-2.2202e-05
-2.36171e-06
-2.17937e-05
-2.5422e-06
-2.13604e-05
-2.71586e-06
-2.09034e-05
-2.88196e-06
-2.04238e-05
-3.03983e-06
-1.9923e-05
-3.18885e-06
-1.94026e-05
-3.32847e-06
-1.8864e-05