/*--------------------------------*- C++ -*----------------------------------*\
| =========                 |                                                 |
| \\      /  F ield         | OpenFOAM: The Open Source CFD Toolbox           |
|  \\    /   O peration     | Version:  2406                                  |
|   \\  /    A nd           | Website:  www.openfoam.com                      |
|    \\/     M anipulation  |                                                 |
\*---------------------------------------------------------------------------*/
FoamFile
{
    version     2.0;
    format      ascii;
    arch        "LSB;label=32;scalar=64";
    class       surfaceScalarField;
    location    "44.2";
    object      phi;
}
// * * * * * * * * * * * * * * * * * * * * * * * * * * * * * * * * * * * * * //

dimensions      [0 3 -1 0 0 0 0];

oriented        oriented;

internalField   nonuniform List<scalar> 
28560
(
-1.66186e-08
1.6606e-08
3.2852e-08
-5.1762e-08
1.56998e-07
-1.24645e-07
3.44249e-07
-1.9032e-07
5.75175e-07
-2.32717e-07
8.2882e-07
-2.57047e-07
1.08775e-06
-2.61356e-07
1.33579e-06
-2.51194e-07
1.56194e-06
-2.28477e-07
1.75776e-06
-1.98307e-07
1.91972e-06
-1.63751e-07
2.04692e-06
-1.28862e-07
2.14194e-06
-9.61272e-08
2.20891e-06
-6.78879e-08
2.25355e-06
-4.51777e-08
2.28167e-06
-2.84899e-08
2.29887e-06
-1.73444e-08
2.30961e-06
-1.07869e-08
2.31701e-06
-7.31664e-09
2.32243e-06
-5.25952e-09
2.32556e-06
-2.8485e-09
2.32444e-06
1.50946e-09
2.31585e-06
9.15389e-09
2.29556e-06
2.1053e-08
2.25878e-06
3.78275e-08
2.20037e-06
5.97873e-08
2.11509e-06
8.70459e-08
1.99772e-06
1.19619e-07
1.84297e-06
1.57524e-07
1.64553e-06
2.00826e-07
1.39994e-06
2.49649e-07
1.10059e-06
3.04146e-07
7.41755e-07
3.64451e-07
3.17627e-07
4.30619e-07
-1.77522e-07
5.02582e-07
-7.49199e-07
5.80107e-07
-1.40249e-06
6.62772e-07
-2.14188e-06
7.49944e-07
-2.97099e-06
8.40775e-07
-3.8924e-06
9.34197e-07
-4.90744e-06
1.02892e-06
-6.01593e-06
1.12347e-06
-7.21609e-06
1.21615e-06
-8.50428e-06
1.30513e-06
-9.87496e-06
1.38848e-06
-1.13206e-05
1.46415e-06
-1.28315e-05
1.53007e-06
-1.43962e-05
1.58421e-06
-1.6001e-05
1.62455e-06
-1.76304e-05
1.6492e-06
-1.92672e-05
1.65641e-06
-2.08927e-05
1.64458e-06
-2.24866e-05
1.61235e-06
-2.40277e-05
1.55856e-06
-2.54937e-05
1.48232e-06
-2.68619e-05
1.38303e-06
-2.81092e-05
1.26038e-06
-2.92125e-05
1.1144e-06
-3.0149e-05
9.4546e-07
-3.08968e-05
7.54337e-07
-3.14351e-05
5.4222e-07
-3.17446e-05
3.10756e-07
-3.18084e-05
6.2085e-08
-3.16119e-05
-2.01136e-07
-3.11438e-05
-4.75706e-07
-3.03965e-05
-7.57867e-07
-2.93668e-05
-1.04332e-06
-2.80561e-05
-1.32725e-06
-2.6471e-05
-1.60438e-06
-2.46237e-05
-1.86908e-06
-2.25325e-05
-2.11548e-06
-2.02212e-05
-2.33763e-06
-1.77197e-05
-2.5297e-06
-1.5063e-05
-2.68622e-06
-1.22914e-05
-2.80232e-06
-9.44875e-06
-2.87394e-06
-6.58213e-06
-2.89815e-06
-3.74014e-06
-2.8733e-06
-9.7156e-07
-2.7992e-06
1.67622e-06
-2.67729e-06
4.15882e-06
-2.51057e-06
6.43642e-06
-2.30362e-06
8.47511e-06
-2.06243e-06
1.02481e-05
-1.79412e-06
1.17365e-05
-1.50669e-06
1.29298e-05
-1.20862e-06
1.3826e-05
-9.08461e-07
1.44314e-05
-6.14462e-07
1.47595e-05
-3.34184e-07
1.48306e-05
-7.41933e-08
1.467e-05
1.6019e-07
1.4307e-05
3.65037e-07
1.37733e-05
5.37883e-07
1.31017e-05
6.7769e-07
1.23244e-05
7.84752e-07
1.14726e-05
8.60518e-07
1.05748e-05
9.07385e-07
9.65634e-06
9.28444e-07
8.73936e-06
9.27261e-07
7.84203e-06
9.07603e-07
6.97884e-06
8.73278e-07
6.16065e-06
8.27903e-07
5.39507e-06
7.74854e-07
4.68666e-06
7.17069e-07
4.0376e-06
6.57159e-07
3.44781e-06
5.97185e-07
2.91567e-06
5.38969e-07
2.43805e-06
4.83703e-07
2.01116e-06
4.32532e-07
1.6303e-06
3.8573e-07
1.29115e-06
3.43773e-07
9.89278e-07
3.05631e-07
7.22117e-07
2.70932e-07
4.8823e-07
2.36583e-07
2.89713e-07
2.0151e-07
1.31231e-07
1.60022e-07
2.04399e-08
1.12897e-07
-3.36672e-08
5.45105e-08
-3.36099e-08
1.06051e-09
-3.36626e-08
4.9554e-08
-3.06546e-08
2.44625e-07
-2.46794e-07
5.89065e-07
-4.6456e-07
1.05786e-06
-6.56422e-07
1.61766e-06
-7.86815e-07
2.22608e-06
-8.60994e-07
2.84624e-06
-8.75597e-07
3.44254e-06
-8.42694e-07
3.98912e-06
-7.69914e-07
4.46585e-06
-6.70986e-07
4.86243e-06
-5.56548e-07
5.17477e-06
-4.38404e-07
5.40609e-06
-3.25109e-07
5.56357e-06
-2.23803e-07
5.65785e-06
-1.38307e-07
5.70021e-06
-7.02046e-08
5.70157e-06
-1.83241e-08
5.67052e-06
2.03499e-08
5.61265e-06
5.04694e-08
5.52966e-06
7.74571e-08
5.41935e-06
1.07019e-07
5.27574e-06
1.44445e-07
5.08969e-06
1.94231e-07
4.84961e-06
2.5977e-07
4.54225e-06
3.43341e-07
4.15334e-06
4.46235e-07
3.66814e-06
5.69041e-07
3.07175e-06
7.11947e-07
2.34924e-06
8.7499e-07
1.48569e-06
1.0582e-06
4.66326e-07
1.26159e-06
-7.23444e-07
1.48511e-06
-2.09774e-06
1.72843e-06
-3.66988e-06
1.99081e-06
-5.45191e-06
2.27092e-06
-7.45413e-06
2.56676e-06
-9.68445e-06
2.87557e-06
-1.21479e-05
3.19382e-06
-1.48459e-05
3.51718e-06
-1.7776e-05
3.84061e-06
-2.09312e-05
4.15842e-06
-2.42998e-05
4.46436e-06
-2.78651e-05
4.7518e-06
-3.16053e-05
5.01386e-06
-3.54934e-05
5.24364e-06
-3.94979e-05
5.43436e-06
-4.35828e-05
5.57957e-06
-4.77081e-05
5.67336e-06
-5.18305e-05
5.71044e-06
-5.59042e-05
5.68632e-06
-5.98814e-05
5.59738e-06
-6.37131e-05
5.44092e-06
-6.73501e-05
5.21521e-06
-7.07433e-05
4.91948e-06
-7.3845e-05
4.55392e-06
-7.6609e-05
4.11964e-06
-7.89914e-05
3.61871e-06
-8.09516e-05
3.05405e-06
-8.24521e-05
2.42953e-06
-8.34597e-05
1.7499e-06
-8.39454e-05
1.02082e-06
-8.38856e-05
2.48924e-07
-8.32619e-05
-5.58191e-07
-8.20622e-05
-1.39192e-06
-8.02807e-05
-2.24263e-06
-7.79186e-05
-3.09968e-06
-7.49846e-05
-3.95144e-06
-7.14951e-05
-4.78537e-06
-6.74747e-05
-5.58816e-06
-6.29563e-05
-6.34593e-06
-5.79813e-05
-7.04446e-06
-5.25993e-05
-7.66956e-06
-4.68681e-05
-8.20742e-06
-4.08531e-05
-8.6451e-06
-3.46261e-05
-8.97103e-06
-2.82651e-05
-9.17552e-06
-2.18522e-05
-9.25125e-06
-1.54724e-05
-9.19381e-06
-9.2116e-06
-9.00202e-06
-3.15477e-06
-8.6783e-06
2.61626e-06
-8.22875e-06
8.02494e-06
-7.66319e-06
1.30022e-05
-6.99492e-06
1.74882e-05
-6.24036e-06
2.14344e-05
-5.41849e-06
2.48046e-05
-4.55016e-06
2.75763e-05
-3.65731e-06
2.97408e-05
-2.76205e-06
3.13038e-05
-1.88587e-06
3.22841e-05
-1.04874e-06
3.27133e-05
-2.68368e-07
3.26341e-05
4.40389e-07
3.2098e-05
1.06603e-06
3.11637e-05
1.60069e-06
2.98942e-05
2.04021e-06
2.83544e-05
2.38407e-06
2.6609e-05
2.63507e-06
2.47198e-05
2.79891e-06
2.27444e-05
2.88361e-06
2.0734e-05
2.89884e-06
1.87332e-05
2.85532e-06
1.67789e-05
2.76412e-06
1.49003e-05
2.6362e-06
1.31194e-05
2.48181e-06
1.14512e-05
2.31037e-06
9.90452e-06
2.13e-06
8.48313e-06
1.9478e-06
7.18615e-06
1.76916e-06
6.0098e-06
1.59866e-06
4.94751e-06
1.43862e-06
3.99244e-06
1.29074e-06
3.13718e-06
1.15327e-06
2.37741e-06
1.02453e-06
1.71073e-06
8.97198e-07
1.14107e-06
7.66965e-07
6.75379e-07
6.2121e-07
3.25883e-07
4.60438e-07
1.02246e-07
2.75361e-07
2.41101e-09
1.01055e-07
-3.23483e-08
1.17055e-07
-1.47252e-07
4.50834e-07
-5.85053e-07
9.87719e-07
-1.00147e-06
1.68249e-06
-1.35594e-06
2.49249e-06
-1.59924e-06
3.36048e-06
-1.73391e-06
4.23818e-06
-1.75679e-06
5.07762e-06
-1.68666e-06
5.84359e-06
-1.5393e-06
6.50806e-06
-1.33905e-06
7.05572e-06
-1.10687e-06
7.47941e-06
-8.64547e-07
7.78149e-06
-6.28889e-07
7.96964e-06
-4.13347e-07
8.05603e-06
-2.25568e-07
8.05374e-06
-6.85384e-08
7.97524e-06
5.98719e-08
7.82984e-06
1.65603e-07
7.62263e-06
2.57727e-07
7.35327e-06
3.46974e-07
7.01599e-06
4.44624e-07
6.59969e-06
5.61231e-07
6.08884e-06
7.0581e-07
5.46439e-06
8.85251e-07
4.7049e-06
1.10425e-06
3.78749e-06
1.36554e-06
2.68862e-06
1.67038e-06
1.38465e-06
2.01906e-06
-1.47798e-07
2.41136e-06
-1.93151e-06
2.84671e-06
-3.98831e-06
3.32419e-06
-6.33866e-06
3.84234e-06
-9.00092e-06
4.39878e-06
-1.19907e-05
4.98998e-06
-1.53199e-05
5.61093e-06
-1.89959e-05
6.25503e-06
-2.30206e-05
6.91402e-06
-2.73893e-05
7.57801e-06
-3.20907e-05
8.23566e-06
-3.71057e-05
8.87439e-06
-4.24075e-05
9.48072e-06
-4.79618e-05
1.00406e-05
-5.37265e-05
1.05401e-05
-5.9653e-05
1.09653e-05
-6.56865e-05
1.13034e-05
-7.17676e-05
1.15426e-05
-7.78329e-05
1.16729e-05
-8.3817e-05
1.1686e-05
-8.96534e-05
1.15756e-05
-9.52758e-05
1.13375e-05
-0.000100619
1.09695e-05
-0.000105622
1.04714e-05
-0.000110225
9.84483e-06
-0.000114374
9.0931e-06
-0.000118017
8.221e-06
-0.000121111
7.23462e-06
-0.000123615
6.14127e-06
-0.000125495
4.94931e-06
-0.000126721
3.66813e-06
-0.000127271
2.30812e-06
-0.000127125
8.80665e-07
-0.000126274
-6.01824e-07
-0.000124709
-2.12583e-06
-0.000122432
-3.67667e-06
-0.000119448
-5.23846e-06
-0.00011577
-6.79408e-06
-0.000111418
-8.32516e-06
-0.000106416
-9.81216e-06
-0.000100799
-1.12346e-05
-9.46074e-05
-1.2571e-05
-8.7889e-05
-1.37997e-05
-8.06997e-05
-1.48988e-05
-7.31027e-05
-1.5847e-05
-6.51683e-05
-1.66242e-05
-5.69736e-05
-1.72121e-05
-4.86013e-05
-1.7595e-05
-4.01395e-05
-1.77606e-05
-3.16797e-05
-1.77007e-05
-2.33157e-05
-1.7412e-05
-1.51418e-05
-1.68964e-05
-7.25114e-06
-1.61613e-05
2.66749e-07
-1.522e-05
7.32759e-06
-1.40912e-05
1.38545e-05
-1.27988e-05
1.978e-05
-1.13713e-05
2.50476e-05
-9.84056e-06
2.96134e-05
-8.2413e-06
3.34473e-05
-6.60951e-06
3.65338e-05
-4.9814e-06
3.88723e-05
-3.39211e-06
4.04777e-05
-1.87452e-06
4.1379e-05
-4.58153e-07
4.16192e-05
8.31839e-07
4.12531e-05
1.97544e-06
4.03457e-05
2.95839e-06
3.89699e-05
3.77246e-06
3.72033e-05
4.41551e-06
3.51256e-05
4.8912e-06
3.28158e-05
5.20842e-06
3.03492e-05
5.3804e-06
2.77955e-05
5.42379e-06
2.52165e-05
5.35736e-06
2.26653e-05
5.20104e-06
2.01851e-05
4.97469e-06
1.781e-05
4.69745e-06
1.55642e-05
4.38669e-06
1.3464e-05
4.05806e-06
1.15178e-05
3.72434e-06
9.72847e-06
3.39624e-06
8.09374e-06
3.08052e-06
6.60944e-06
2.78181e-06
5.26927e-06
2.49896e-06
4.06998e-06
2.22934e-06
3.00917e-06
1.9619e-06
2.09231e-06
1.68829e-06
1.32616e-06
1.38938e-06
7.26592e-07
1.06353e-06
3.03104e-07
6.986e-07
6.57694e-08
3.41345e-07
3.27607e-08
1.77843e-07
-3.22054e-07
6.34819e-07
-1.04469e-06
1.33372e-06
-1.69563e-06
2.20704e-06
-2.22931e-06
3.20342e-06
-2.59156e-06
4.25423e-06
-2.7831e-06
5.30441e-06
-2.80333e-06
6.29812e-06
-2.67817e-06
7.1949e-06
-2.43307e-06
7.9618e-06
-2.10392e-06
8.58038e-06
-1.72324e-06
9.04106e-06
-1.32373e-06
9.34479e-06
-9.31221e-07
9.49825e-06
-5.65919e-07
9.51288e-06
-2.39453e-07
9.40076e-06
4.39928e-08
9.17289e-06
2.8802e-07
8.83629e-06
5.0229e-07
8.39274e-06
7.01282e-07
7.83747e-06
9.02106e-07
7.15919e-06
1.12266e-06
6.34033e-06
1.3797e-06
5.35813e-06
1.68745e-06
4.1858e-06
2.05679e-06
2.79394e-06
2.49504e-06
1.1517e-06
3.00636e-06
-7.72132e-07
3.59238e-06
-3.00834e-06
4.25293e-06
-5.58649e-06
4.98662e-06
-8.53426e-06
5.79094e-06
-1.18765e-05
6.66223e-06
-1.56345e-05
7.59525e-06
-1.98244e-05
8.58274e-06
-2.44563e-05
9.615e-06
-2.95329e-05
1.06796e-05
-3.50483e-05
1.17615e-05
-4.09871e-05
1.28428e-05
-4.73238e-05
1.39035e-05
-5.40224e-05
1.49219e-05
-6.10367e-05
1.58751e-05
-6.83109e-05
1.67401e-05
-7.57808e-05
1.74946e-05
-8.33751e-05
1.81175e-05
-9.10178e-05
1.859e-05
-9.86296e-05
1.88963e-05
-0.00010613
1.90236e-05
-0.00011344
1.89629e-05
-0.000120483
1.87085e-05
-0.000127187
1.82585e-05
-0.000133483
1.76139e-05
-0.000139313
1.67787e-05
-0.00014462
1.57592e-05
-0.000149358
1.45637e-05
-0.000153484
1.32021e-05
-0.000156965
1.16856e-05
-0.000159771
1.00262e-05
-0.000161879
8.23682e-06
-0.000163271
6.33092e-06
-0.000163934
4.32263e-06
-0.000163858
2.22671e-06
-0.000163038
5.8681e-08
-0.000161475
-2.16509e-06
-0.000159171
-4.42718e-06
-0.000156132
-6.70898e-06
-0.000152371
-8.99049e-06
-0.000147903
-1.12502e-05
-0.000142748
-1.34652e-05
-0.000136931
-1.56108e-05
-0.000130484
-1.76609e-05
-0.000123443
-1.95884e-05
-0.000115852
-2.1365e-05
-0.000107761
-2.29622e-05
-9.92266e-05
-2.43519e-05
-9.0313e-05
-2.55069e-05
-8.10911e-05
-2.64022e-05
-7.16381e-05
-2.70155e-05
-6.20372e-05
-2.73289e-05
-5.23764e-05
-2.73293e-05
-4.27472e-05
-2.70097e-05
-3.32434e-05
-2.63699e-05
-2.39593e-05
-2.54167e-05
-1.49877e-05
-2.41648e-05
-6.41835e-06
-2.26361e-05
1.66413e-06
-2.08595e-05
9.18209e-06
-1.88703e-05
1.60665e-05
-1.6709e-05
2.22584e-05
-1.44204e-05
2.77104e-05
-1.20518e-05
3.23873e-05
-9.65176e-06
3.62677e-05
-7.26886e-06
3.9344e-05
-4.94991e-06
4.16229e-05
-2.73876e-06
4.31258e-05
-6.74968e-07
4.38881e-05
1.20738e-06
4.39583e-05
2.88071e-06
4.33973e-05
4.32483e-06
4.22757e-05
5.52748e-06
4.06722e-05
6.48456e-06
3.867e-05
7.20005e-06
3.63545e-05
7.68532e-06
3.38096e-05
7.95828e-06
3.11149e-05
8.0419e-06
2.83435e-05
7.96285e-06
2.55594e-05
7.74964e-06
2.28171e-05
7.43136e-06
2.016e-05
7.03588e-06
1.76217e-05
6.58928e-06
1.52253e-05
6.11411e-06
1.29862e-05
5.62968e-06
1.09115e-05
5.14973e-06
9.00487e-06
4.684e-06
7.26519e-06
4.2341e-06
5.69339e-06
3.798e-06
4.28883e-06
3.36259e-06
3.05942e-06
2.91602e-06
2.01145e-06
2.43384e-06
1.16518e-06
1.91006e-06
5.3168e-07
1.32835e-06
1.40502e-07
7.35123e-07
1.70962e-07
2.20697e-07
-5.40912e-07
7.74749e-07
-1.6045e-06
1.60339e-06
-2.52172e-06
2.61661e-06
-3.24667e-06
3.7522e-06
-3.727e-06
4.92998e-06
-3.96414e-06
6.08897e-06
-3.96333e-06
7.16732e-06
-3.75914e-06
8.12149e-06
-3.38859e-06
8.91568e-06
-2.90011e-06
9.53009e-06
-2.33883e-06
9.95374e-06
-1.74874e-06
1.01866e-05
-1.1649e-06
1.02339e-05
-6.14012e-07
1.01052e-05
-1.11214e-07
9.80989e-06
3.38903e-07
9.35538e-06
7.42358e-07
8.74394e-06
1.11361e-06
7.97162e-06
1.47362e-06
7.02694e-06
1.84687e-06
5.89116e-06
2.25864e-06
4.53877e-06
2.73238e-06
2.93895e-06
3.28771e-06
1.05701e-06
3.93932e-06
-1.14389e-06
4.69675e-06
-3.70124e-06
5.56478e-06
-6.65186e-06
6.54437e-06
-1.00306e-05
7.63343e-06
-1.38692e-05
8.8274e-06
-1.8195e-05
1.01194e-05
-2.30293e-05
1.14997e-05
-2.8386e-05
1.29557e-05
-3.42698e-05
1.4471e-05
-4.06748e-05
1.60251e-05
-4.75832e-05
1.75939e-05
-5.49643e-05
1.91493e-05
-6.27745e-05
2.06605e-05
-7.09574e-05
2.20948e-05
-7.94451e-05
2.34188e-05
-8.81599e-05
2.45999e-05
-9.70163e-05
2.56074e-05
-0.000105924
2.64141e-05
-0.000114791
2.69971e-05
-0.000123527
2.73383e-05
-0.000132042
2.74253e-05
-0.000140256
2.7251e-05
-0.000148092
2.68133e-05
-0.000155484
2.6115e-05
-0.000162373
2.51625e-05
-0.00016871
2.39657e-05
-0.000174454
2.25367e-05
-0.000179571
2.08896e-05
-0.000184034
1.90394e-05
-0.000187822
1.7002e-05
-0.000190918
1.47934e-05
-0.000193312
1.24299e-05
-0.000194995
9.92774e-06
-0.00019596
7.30312e-06
-0.000196205
4.57243e-06
-0.000195727
1.75232e-06
-0.000194527
-1.14e-06
-0.000192606
-4.0865e-06
-0.000189968
-7.06802e-06
-0.000186618
-1.0064e-05
-0.000182564
-1.30521e-05
-0.000177815
-1.60081e-05
-0.000172386
-1.89057e-05
-0.000166294
-2.17162e-05
-0.000159561
-2.4409e-05
-0.000152215
-2.69513e-05
-0.000144289
-2.93091e-05
-0.000135824
-3.1447e-05
-0.000126867
-3.33297e-05
-0.000117473
-3.49224e-05
-0.000107706
-3.61922e-05
-9.76345e-05
-3.71094e-05
-8.73374e-05
-3.76489e-05
-7.68982e-05
-3.77911e-05
-6.64061e-05
-3.75239e-05
-5.5954e-05
-3.68432e-05
-4.5637e-05
-3.57538e-05
-3.55504e-05
-3.42702e-05
-2.57875e-05
-3.24161e-05
-1.64381e-05
-3.02242e-05
-7.58623e-06
-2.77356e-05
6.91452e-07
-2.4998e-05
8.32683e-06
-2.20649e-05
1.52616e-05
-1.89935e-05
2.14483e-05
-1.58432e-05
2.68505e-05
-1.26738e-05
3.1444e-05
-9.54422e-06
3.52169e-05
-6.51066e-06
3.817e-05
-3.62555e-06
4.03174e-05
-9.36098e-07
4.16863e-05
1.51685e-06
4.23171e-05
3.69997e-06
4.22627e-05
5.58852e-06
4.15873e-05
7.16707e-06
4.03647e-05
8.43006e-06
3.86757e-05
9.38177e-06
3.66054e-05
1.00359e-05
3.42401e-05
1.04144e-05
3.16637e-05
1.05462e-05
2.89549e-05
1.04649e-05
2.6185e-05
1.02074e-05
2.34154e-05
9.81101e-06
2.06977e-05
9.31225e-06
1.80719e-05
8.74442e-06
1.5569e-05
8.13701e-06
1.32095e-05
7.51285e-06
1.10083e-05
6.88893e-06
8.97292e-06
6.27203e-06
7.1116e-06
5.66259e-06
5.4279e-06
5.04769e-06
3.93443e-06
4.41266e-06
2.63914e-06
3.72892e-06
1.56937e-06
2.98351e-06
7.41267e-07
2.15376e-06
2.07101e-07
1.27445e-06
3.76052e-07
2.54308e-07
-7.9165e-07
8.85086e-07
-2.24012e-06
1.81445e-06
-3.44587e-06
2.93174e-06
-4.36594e-06
4.16277e-06
-4.95466e-06
5.41623e-06
-5.2178e-06
6.6255e-06
-5.17015e-06
7.72413e-06
-4.85719e-06
8.66698e-06
-4.32961e-06
9.41713e-06
-3.64948e-06
9.95476e-06
-2.87517e-06
1.02685e-05
-2.06183e-06
1.03577e-05
-1.25327e-06
1.02258e-05
-4.81705e-07
9.87962e-06
2.35444e-07
9.32418e-06
8.9456e-07
8.56125e-06
1.50548e-06
7.58616e-06
2.08875e-06
6.38689e-06
2.6729e-06
4.94319e-06
3.29048e-06
3.22723e-06
3.97446e-06
1.20463e-06
4.75474e-06
-1.1637e-06
5.65571e-06
-3.91962e-06
6.69478e-06
-7.10572e-06
7.88223e-06
-1.07634e-05
9.2217e-06
-1.49313e-05
1.07112e-05
-1.96432e-05
1.2344e-05
-2.49265e-05
1.41091e-05
-3.08002e-05
1.59911e-05
-3.72728e-05
1.79699e-05
-4.43403e-05
2.00204e-05
-5.19847e-05
2.21121e-05
-6.01726e-05
2.42093e-05
-6.88549e-05
2.62719e-05
-7.79674e-05
2.82569e-05
-8.7432e-05
3.01195e-05
-9.7159e-05
3.18157e-05
-0.000107051
3.33037e-05
-0.000117005
3.45463e-05
-0.000126917
3.5512e-05
-0.000136688
3.61764e-05
-0.000146223
3.65226e-05
-0.000155435
3.6541e-05
-0.000164248
3.62293e-05
-0.000172599
3.55914e-05
-0.000180432
3.46364e-05
-0.000187705
3.33774e-05
-0.000194383
3.18306e-05
-0.000200442
3.0014e-05
-0.000205862
2.79469e-05
-0.00021063
2.56487e-05
-0.000214739
2.31388e-05
-0.000218181
2.04362e-05
-0.000220954
1.75589e-05
-0.000223055
1.45245e-05
-0.000224482
1.135e-05
-0.000225235
8.05183e-06
-0.000225312
4.64628e-06
-0.000224711
1.14988e-06
-0.000223431
-2.4203e-06
-0.00022147
-6.04624e-06
-0.000218827
-9.70852e-06
-0.000215501
-1.33859e-05
-0.000211492
-1.70551e-05
-0.000206803
-2.069e-05
-0.000201439
-2.42619e-05
-0.000195406
-2.77391e-05
-0.000188717
-3.10869e-05
-0.000181388
-3.42677e-05
-0.000173443
-3.72415e-05
-0.000164909
-3.99663e-05
-0.000155824
-4.23991e-05
-0.000146234
-4.4497e-05
-0.000136192
-4.62184e-05
-0.000125761
-4.75244e-05
-0.000115012
-4.83813e-05
-0.000104026
-4.87611e-05
-9.28898e-05
-4.86445e-05
-8.16965e-05
-4.80214e-05
-7.05433e-05
-4.68927e-05
-5.95293e-05
-4.52709e-05
-4.87533e-05
-4.318e-05
-3.8311e-05
-4.06556e-05
-2.82935e-05
-3.77436e-05
-1.87846e-05
-3.44988e-05
-9.85973e-06
-3.09832e-05
-1.58468e-06
-2.72635e-05
5.9851e-06
-2.34094e-05
1.28048e-05
-1.94913e-05
1.88402e-05
-1.55788e-05
2.40678e-05
-1.17387e-05
2.84748e-05
-8.03412e-06
3.20593e-05
-4.52312e-06
3.48305e-05
-1.25775e-06
3.68094e-05
1.71706e-06
3.80288e-05
4.36457e-06
3.85336e-05
6.65738e-06
3.83802e-05
8.57834e-06
3.76354e-05
1.01213e-05
3.63748e-05
1.12913e-05
3.46798e-05
1.21043e-05
3.2635e-05
1.25861e-05
3.03246e-05
1.27706e-05
2.78296e-05
1.26981e-05
2.52245e-05
1.2412e-05
2.25759e-05
1.19573e-05
1.99398e-05
1.1377e-05
1.73629e-05
1.0711e-05
1.48808e-05
9.99198e-06
1.25219e-05
9.24572e-06
1.0305e-05
8.48622e-06
8.24812e-06
7.71828e-06
6.36174e-06
6.93137e-06
4.66543e-06
6.10907e-06
3.17132e-06
5.21978e-06
1.9156e-06
4.24137e-06
9.21869e-07
3.14247e-06
2.64486e-07
1.93699e-06
6.37122e-07
2.78881e-07
-1.06767e-06
9.67866e-07
-2.93578e-06
1.97204e-06
-4.44586e-06
3.16154e-06
-5.55957e-06
4.44956e-06
-6.24113e-06
5.73351e-06
-6.50438e-06
6.94111e-06
-6.3775e-06
8.00199e-06
-5.91987e-06
8.8704e-06
-5.19832e-06
9.50956e-06
-4.28988e-06
9.90074e-06
-3.26677e-06
1.00331e-05
-2.19497e-06
9.9055e-06
-1.12606e-06
9.51955e-06
-9.62505e-08
8.87827e-06
8.76513e-07
7.98107e-06
1.79151e-06
6.82229e-06
2.66417e-06
5.38828e-06
3.52268e-06
3.65713e-06
4.40407e-06
1.59828e-06
5.34937e-06
-8.26025e-07
6.39889e-06
-3.65908e-06
7.58797e-06
-6.94718e-06
8.94406e-06
-1.07372e-05
1.04851e-05
-1.50739e-05
1.22195e-05
-1.99981e-05
1.41465e-05
-2.55437e-05
1.62576e-05
-3.1736e-05
1.85372e-05
-3.85887e-05
2.09631e-05
-4.61022e-05
2.35061e-05
-5.42609e-05
2.61304e-05
-6.30316e-05
2.87933e-05
-7.23631e-05
3.1446e-05
-8.21861e-05
3.40351e-05
-9.2415e-05
3.65041e-05
-0.000102951
3.87964e-05
-0.000113685
4.08579e-05
-0.000124505
4.26394e-05
-0.000135295
4.40991e-05
-0.000145947
4.52041e-05
-0.000156361
4.59312e-05
-0.000166445
4.62671e-05
-0.000176124
4.62078e-05
-0.000185334
4.57574e-05
-0.000194024
4.49267e-05
-0.000202157
4.37318e-05
-0.000209706
4.21924e-05
-0.000216652
4.03305e-05
-0.000222984
3.81693e-05
-0.000228695
3.57321e-05
-0.000233783
3.30417e-05
-0.000238247
3.01198e-05
-0.00024209
2.69871e-05
-0.000245311
2.36629e-05
-0.000247912
2.0165e-05
-0.000249894
1.65102e-05
-0.000251255
1.27146e-05
-0.000251994
8.79345e-06
-0.000252108
4.76186e-06
-0.000251593
6.35206e-07
-0.000250443
-3.57046e-06
-0.000248653
-7.83794e-06
-0.000246215
-1.21484e-05
-0.000243124
-1.64807e-05
-0.000239372
-2.08113e-05
-0.000234954
-2.51134e-05
-0.000229866
-2.93568e-05
-0.000224105
-3.35075e-05
-0.000217672
-3.75275e-05
-0.000210573
-4.13754e-05
-0.000202819
-4.50056e-05
-0.000194426
-4.83698e-05
-0.000185418
-5.14176e-05
-0.000175829
-5.40971e-05
-0.000165702
-5.63571e-05
-0.000155089
-5.81486e-05
-0.000144055
-5.94268e-05
-0.000132674
-6.01534e-05
-0.000121031
-6.02988e-05
-0.000109219
-5.98443e-05
-9.73379e-05
-5.87837e-05
-8.54934e-05
-5.71247e-05
-7.37922e-05
-5.48897e-05
-6.23401e-05
-5.21153e-05
-5.1239e-05
-4.88514e-05
-4.05835e-05
-4.51599e-05
-3.04596e-05
-4.11118e-05
-2.0942e-05
-3.67847e-05
-1.2094e-05
-3.22599e-05
-3.96696e-06
-2.76199e-05
3.3992e-06
-2.29456e-05
9.97539e-06
-1.83146e-05
1.57424e-05
-1.38001e-05
2.06905e-05
-9.46941e-06
2.48187e-05
-5.3836e-06
2.81353e-05
-1.59673e-06
3.06581e-05
1.84493e-06
3.24151e-05
4.90376e-06
3.34452e-05
7.55188e-06
3.37979e-05
9.77223e-06
3.35335e-05
1.15594e-05
3.27211e-05
1.29203e-05
3.14373e-05
1.38734e-05
2.97629e-05
1.44483e-05
2.77803e-05
1.46838e-05
2.55696e-05
1.46255e-05
2.32066e-05
1.4323e-05
2.07592e-05
1.38267e-05
1.82878e-05
1.31848e-05
1.58415e-05
1.24399e-05
1.34627e-05
1.16267e-05
1.11825e-05
1.07674e-05
9.03039e-06
9.87262e-06
7.02584e-06
8.93592e-06
5.19755e-06
7.94004e-06
3.56444e-06
6.8513e-06
2.17296e-06
5.63694e-06
1.05566e-06
4.25525e-06
3.06147e-07
2.69335e-06
9.40086e-07
2.995e-07
-1.36329e-06
1.03316e-06
-3.67566e-06
2.08963e-06
-5.4967e-06
3.32096e-06
-6.794e-06
4.62767e-06
-7.54465e-06
5.89662e-06
-7.77452e-06
7.0503e-06
-7.52922e-06
8.01559e-06
-6.88541e-06
8.74716e-06
-5.92862e-06
9.20957e-06
-4.75216e-06
9.38604e-06
-3.44241e-06
9.26665e-06
-2.07536e-06
8.84997e-06
-7.08868e-07
8.13491e-06
6.18981e-07
7.11965e-06
1.89207e-06
5.79636e-06
3.11489e-06
4.15018e-06
4.31049e-06
2.15683e-06
5.51605e-06
-2.16861e-07
6.77777e-06
-3.01235e-06
8.14481e-06
-6.27699e-06
9.66345e-06
-1.00614e-05
1.13723e-05
-1.44163e-05
1.32987e-05
-1.93891e-05
1.54577e-05
-2.50215e-05
1.78515e-05
-3.1346e-05
2.04705e-05
-3.83836e-05
2.32946e-05
-4.61408e-05
2.62937e-05
-5.46072e-05
2.94286e-05
-6.37534e-05
3.26511e-05
-7.35292e-05
3.59048e-05
-8.3864e-05
3.91266e-05
-9.46682e-05
4.22484e-05
-0.000105836
4.52008e-05
-0.00011725
4.79156e-05
-0.000128786
5.03301e-05
-0.000140321
5.23898e-05
-0.000151736
5.40507e-05
-0.000162921
5.5281e-05
-0.000173782
5.60612e-05
-0.000184239
5.63836e-05
-0.000194227
5.62507e-05
-0.000203698
5.5674e-05
-0.000212617
5.46715e-05
-0.00022096
5.32657e-05
-0.000228716
5.14823e-05
-0.000235877
4.93483e-05
-0.000242442
4.68908e-05
-0.000248414
4.41364e-05
-0.000253797
4.11103e-05
-0.000258596
3.78362e-05
-0.000262817
3.4336e-05
-0.000266463
3.06295e-05
-0.000269539
2.67351e-05
-0.000272046
2.26695e-05
-0.000273987
1.84481e-05
-0.00027536
1.40852e-05
-0.000276162
9.5947e-06
-0.000276391
4.99009e-06
-0.000276041
2.85121e-07
-0.000275106
-4.50572e-06
-0.000273575
-9.36671e-06
-0.000271441
-1.42803e-05
-0.000268693
-1.92268e-05
-0.000265317
-2.41832e-05
-0.000261303
-2.91232e-05
-0.000256638
-3.40167e-05
-0.000251311
-3.88288e-05
-0.000245313
-4.35201e-05
-0.000238635
-4.80461e-05
-0.000231276
-5.23576e-05
-0.000223237
-5.6401e-05
-0.000214528
-6.01189e-05
-0.000205166
-6.34512e-05
-0.000195178
-6.63368e-05
-0.000184603
-6.87152e-05
-0.000173492
-7.05292e-05
-0.00016191
-7.17274e-05
-0.000149934
-7.22668e-05
-0.000137655
-7.21161e-05
-0.000125173
-7.12579e-05
-0.000112601
-6.96909e-05
-0.000100053
-6.74313e-05
-8.76492e-05
-6.45135e-05
-7.55067e-05
-6.09891e-05
-6.37373e-05
-5.69253e-05
-5.24434e-05
-5.24024e-05
-4.17156e-05
-4.75099e-05
-3.16303e-05
-4.23434e-05
-2.22493e-05
-3.69997e-05
-1.36198e-05
-3.15746e-05
-5.77561e-06
-2.61589e-05
1.26116e-06
-2.08375e-05
7.4784e-06
-1.56878e-05
1.28724e-05
-1.07791e-05
1.74467e-05
-6.17296e-06
2.12122e-05
-1.92266e-06
2.41868e-05
1.92681e-06
2.63968e-05
5.33941e-06
2.78774e-05
8.28908e-06
2.86736e-05
1.07607e-05
2.884e-05
1.27513e-05
2.84406e-05
1.42704e-05
2.75466e-05
1.534e-05
2.62347e-05
1.59935e-05
2.45838e-05
1.62743e-05
2.26724e-05
1.62326e-05
2.05748e-05
1.59224e-05
1.83606e-05
1.53977e-05
1.60899e-05
1.47089e-05
1.38173e-05
1.38985e-05
1.15856e-05
1.29973e-05
9.43634e-06
1.20218e-05
7.39925e-06
1.09709e-05
5.51334e-06
9.82705e-06
3.80614e-06
8.55529e-06
2.33461e-06
7.11172e-06
1.14064e-06
5.44342e-06
3.32685e-07
3.50803e-06
1.26875e-06
3.16167e-07
-1.67596e-06
1.08219e-06
-4.44894e-06
2.16973e-06
-6.5791e-06
3.4132e-06
-8.0417e-06
4.70075e-06
-8.8299e-06
5.90956e-06
-8.98571e-06
6.95776e-06
-8.57653e-06
7.77071e-06
-7.69978e-06
8.30463e-06
-6.46232e-06
8.52642e-06
-4.97483e-06
8.42181e-06
-3.33783e-06
7.98197e-06
-1.63606e-06
7.2046e-06
6.84055e-08
6.08505e-06
1.73821e-06
4.61527e-06
3.36177e-06
2.77865e-06
4.95134e-06
5.49634e-07
6.53947e-06
-2.10777e-06
8.17339e-06
-5.23827e-06
9.90829e-06
-8.89344e-06
1.18e-05
-1.31281e-05
1.38982e-05
-1.79966e-05
1.62409e-05
-2.35488e-05
1.88511e-05
-2.98265e-05
2.17356e-05
-3.68597e-05
2.48849e-05
-4.46636e-05
2.82748e-05
-5.32358e-05
3.18673e-05
-6.25535e-05
3.5612e-05
-7.25716e-05
3.94475e-05
-8.32223e-05
4.33027e-05
-9.44156e-05
4.70991e-05
-0.000106042
5.07543e-05
-0.000117978
5.41858e-05
-0.000130091
5.73153e-05
-0.000142247
6.0073e-05
-0.000154316
6.24009e-05
-0.000166179
6.42553e-05
-0.000177733
6.56071e-05
-0.000188891
6.64421e-05
-0.000199586
6.67589e-05
-0.000209767
6.65674e-05
-0.000219399
6.58859e-05
-0.000228461
6.4739e-05
-0.000236941
6.31551e-05
-0.000244837
6.11647e-05
-0.00025215
5.87988e-05
-0.000258886
5.60881e-05
-0.000265054
5.30617e-05
-0.000270661
4.97471e-05
-0.000275717
4.61697e-05
-0.000280231
4.23528e-05
-0.00028421
3.83175e-05
-0.00028766
3.40827e-05
-0.000290589
2.96657e-05
-0.000292999
2.50818e-05
-0.000294894
2.0345e-05
-0.000296276
1.5468e-05
-0.000297144
1.04631e-05
-0.000297496
5.34183e-06
-0.000297327
1.16017e-07
-0.000296631
-5.20197e-06
-0.000295401
-1.05986e-05
-0.000293624
-1.60587e-05
-0.000291289
-2.15647e-05
-0.000288379
-2.70958e-05
-0.000284878
-3.26278e-05
-0.000280767
-3.8132e-05
-0.000276025
-4.35746e-05
-0.000270633
-4.89165e-05
-0.000264572
-5.41127e-05
-0.000257823
-5.91121e-05
-0.000250372
-6.38575e-05
-0.00024221
-6.82864e-05
-0.000233336
-7.23317e-05
-0.000223756
-7.59228e-05
-0.000213489
-7.89879e-05
-0.000202568
-8.14564e-05
-0.00019104
-8.32616e-05
-0.000178968
-8.43443e-05
-0.000166433
-8.46561e-05
-0.000153533
-8.41632e-05
-0.000140379
-8.28496e-05
-0.000127095
-8.07196e-05
-0.000113813
-7.77992e-05
-0.000100669
-7.41364e-05
-8.77973e-05
-6.98003e-05
-7.53238e-05
-6.48782e-05
-6.3364e-05
-5.94715e-05
-5.20172e-05
-5.36915e-05
-4.13646e-05
-4.76532e-05
-3.14681e-05
-4.14714e-05
-2.23715e-05
-3.52555e-05
-1.4102e-05
-2.91066e-05
-6.67308e-06
-2.31159e-05
-8.76085e-08
-1.73635e-05
5.65968e-06
-1.19189e-05
1.05802e-05
-6.84166e-06
1.46904e-05
-2.18181e-06
1.80122e-05
2.01942e-06
2.05729e-05
5.73008e-06
2.24074e-05
8.92808e-06
2.35581e-05
1.16023e-05
2.40765e-05
1.37538e-05
2.40221e-05
1.53959e-05
2.34623e-05
1.6555e-05
2.24692e-05
1.72688e-05
2.11188e-05
1.75845e-05
1.94861e-05
1.75561e-05
1.76449e-05
1.72402e-05
1.56626e-05
1.66919e-05
1.36026e-05
1.59598e-05
1.15182e-05
1.50819e-05
9.46153e-06
1.40801e-05
7.47316e-06
1.29585e-05
5.60261e-06
1.17e-05
3.88701e-06
1.02686e-05
2.39334e-06
8.6096e-06
1.17231e-06
6.65911e-06
3.42196e-07
4.34561e-06
1.60724e-06
3.30356e-07
-2.00226e-06
1.11732e-06
-5.2429e-06
2.21448e-06
-7.67037e-06
3.43902e-06
-9.26994e-06
4.66735e-06
-1.00551e-05
5.76851e-06
-1.00885e-05
6.65774e-06
-9.46403e-06
7.26057e-06
-8.30328e-06
7.53601e-06
-6.73675e-06
7.4542e-06
-4.89322e-06
7.00362e-06
-2.88665e-06
6.17618e-06
-8.08634e-07
4.96776e-06
1.27717e-06
3.36882e-06
3.33719e-06
1.36347e-06
5.36732e-06
-1.07516e-06
7.39e-06
-3.98431e-06
9.44871e-06
-7.41179e-06
1.16009e-05
-1.14127e-05
1.39092e-05
-1.60461e-05
1.64333e-05
-2.13699e-05
1.9222e-05
-2.74365e-05
2.23073e-05
-3.42874e-05
2.57019e-05
-4.19497e-05
2.93978e-05
-5.04323e-05
3.33673e-05
-5.97227e-05
3.7565e-05
-6.97849e-05
4.19291e-05
-8.05579e-05
4.63845e-05
-9.19556e-05
5.08447e-05
-0.00010387
5.5216e-05
-0.000116173
5.94014e-05
-0.000128725
6.33063e-05
-0.000141384
6.68434e-05
-0.000154007
6.99373e-05
-0.000166464
7.25284e-05
-0.000178639
7.45743e-05
-0.000190435
7.60502e-05
-0.000201777
7.69475e-05
-0.000212609
7.72716e-05
-0.000222891
7.7039e-05
-0.0002326
7.62744e-05
-0.000241724
7.50082e-05
-0.000250261
7.32738e-05
-0.000258214
7.11057e-05
-0.000265591
6.85388e-05
-0.000272401
6.56066e-05
-0.000278657
6.23412e-05
-0.00028437
5.87724e-05
-0.000289553
5.49279e-05
-0.000294218
5.0833e-05
-0.000298378
4.65105e-05
-0.000302043
4.1981e-05
-0.000305225
3.72626e-05
-0.000307932
3.23717e-05
-0.000310174
2.73223e-05
-0.000311957
2.21271e-05
-0.000313287
1.67972e-05
-0.000314167
1.13428e-05
-0.000314598
5.77327e-06
-0.00031458
9.80512e-08
-0.000314108
-5.67327e-06
-0.000313175
-1.15302e-05
-0.000311772
-1.74606e-05
-0.000309884
-2.34503e-05
-0.000307495
-2.94821e-05
-0.000304585
-3.55352e-05
-0.00030113
-4.15842e-05
-0.000297103
-4.75984e-05
-0.000292475
-5.35413e-05
-0.000287214
-5.93696e-05
-0.00028129
-6.50329e-05
-0.000274669
-7.04734e-05
-0.000267326
-7.5626e-05
-0.000259234
-8.04187e-05
-0.000250379
-8.47739e-05
-0.000240753
-8.86097e-05
-0.000230362
-9.18423e-05
-0.00021923
-9.43893e-05
-0.000207398
-9.61728e-05
-0.000194926
-9.71244e-05
-0.000181897
-9.71885e-05
-0.000168415
-9.6328e-05
-0.000154604
-9.45275e-05
-0.000140604
-9.17964e-05
-0.000126566
-8.81714e-05
-0.000112649
-8.37157e-05
-9.90073e-05
-7.8518e-05
-8.57895e-05
-7.26881e-05
-7.31282e-05
-6.63518e-05
-6.11363e-05
-5.96445e-05
-4.99033e-05
-5.27042e-05
-3.9494e-05
-4.56648e-05
-2.995e-05
-3.86509e-05
-2.1292e-05
-3.17744e-05
-1.35242e-05
-2.51321e-05
-6.63821e-06
-1.88058e-05
-6.17643e-07
-1.28633e-05
4.55932e-06
-7.3599e-06
8.91798e-06
-2.34041e-06
1.24866e-05