/*--------------------------------*- C++ -*----------------------------------*\
| =========                 |                                                 |
| \\      /  F ield         | OpenFOAM: The Open Source CFD Toolbox           |
|  \\    /   O peration     | Version:  2406                                  |
|   \\  /    A nd           | Website:  www.openfoam.com                      |
|    \\/     M anipulation  |                                                 |
\*---------------------------------------------------------------------------*/
FoamFile
{
    version     2.0;
    format      ascii;
    arch        "LSB;label=32;scalar=64";
    class       surfaceScalarField;
    location    "42.85";
    object      phi;
}
// * * * * * * * * * * * * * * * * * * * * * * * * * * * * * * * * * * * * * //

dimensions      [0 3 -1 0 0 0 0];

oriented        oriented;

internalField   nonuniform List<scalar> 
28560
(
-1.74702e-08
1.7457e-08
3.05813e-08
-5.03154e-08
1.5346e-07
-1.23384e-07
3.39991e-07
-1.89589e-07
5.70726e-07
-2.32533e-07
8.24591e-07
-2.57269e-07
1.08392e-06
-2.61764e-07
1.33233e-06
-2.51564e-07
1.5586e-06
-2.28606e-07
1.75416e-06
-1.98044e-07
1.91537e-06
-1.63001e-07
2.04131e-06
-1.27586e-07
2.13455e-06
-9.43398e-08
2.19931e-06
-6.5648e-08
2.24138e-06
-4.25802e-08
2.2667e-06
-2.56582e-08
2.281e-06
-1.44207e-08
2.28891e-06
-7.92332e-09
2.29369e-06
-4.6646e-09
2.29683e-06
-2.95827e-09
2.29814e-06
-1.0131e-09
2.29575e-06
2.79814e-09
2.28646e-06
9.8557e-09
2.26606e-06
2.11689e-08
2.2297e-06
3.73933e-08
2.1722e-06
5.88618e-08
2.08827e-06
8.5695e-08
1.97258e-06
1.17901e-07
1.81985e-06
1.55477e-07
1.62474e-06
1.98462e-07
1.3818e-06
2.46956e-07
1.08547e-06
3.01091e-07
7.30041e-07
3.60988e-07
3.09774e-07
4.26701e-07
-1.81024e-07
4.98168e-07
-7.4783e-07
5.75166e-07
-1.39572e-06
6.57288e-07
-2.12916e-06
7.43923e-07
-2.95182e-06
8.34242e-07
-3.86633e-06
9.272e-07
-4.87407e-06
1.02153e-06
-5.97498e-06
1.11578e-06
-7.16737e-06
1.20829e-06
-8.44777e-06
1.29725e-06
-9.81079e-06
1.38073e-06
-1.12491e-05
1.45673e-06
-1.27532e-05
1.52318e-06
-1.43118e-05
1.57806e-06
-1.59115e-05
1.61937e-06
-1.75369e-05
1.64522e-06
-1.91712e-05
1.65385e-06
-2.07957e-05
1.64366e-06
-2.23905e-05
1.61326e-06
-2.39344e-05
1.56149e-06
-2.54055e-05
1.48744e-06
-2.67811e-05
1.39046e-06
-2.8038e-05
1.27022e-06
-2.91534e-05
1.12669e-06
-3.01045e-05
9.6021e-07
-3.08693e-05
7.71501e-07
-3.14268e-05
5.61695e-07
-3.17577e-05
3.32378e-07
-3.18447e-05
8.56207e-08
-3.1673e-05
-1.75984e-07
-3.12311e-05
-4.49302e-07
-3.05107e-05
-7.30644e-07
-2.95083e-05
-1.01577e-06
-2.82246e-05
-1.29991e-06
-2.66658e-05
-1.57784e-06
-2.48434e-05
-1.84395e-06
-2.27751e-05
-2.09237e-06
-2.04841e-05
-2.31715e-06
-1.79996e-05
-2.51242e-06
-1.53564e-05
-2.67265e-06
-1.25941e-05
-2.79286e-06
-9.75644e-06
-2.86891e-06
-6.89023e-06
-2.89772e-06
-4.04406e-06
-2.87749e-06
-1.26685e-06
-2.80791e-06
1.39376e-06
-2.69022e-06
3.89297e-06
-2.52732e-06
6.19041e-06
-2.32364e-06
8.25154e-06
-2.08507e-06
1.00488e-05
-1.81868e-06
1.15627e-05
-1.53244e-06
1.2782e-05
-1.23481e-06
1.37039e-05
-9.34401e-07
1.43341e-05
-6.39532e-07
1.46856e-05
-3.57857e-07
1.47783e-05
-9.60514e-08
1.46372e-05
1.40446e-07
1.42914e-05
3.47594e-07
1.37726e-05
5.2282e-07
1.31135e-05
6.64995e-07
1.23466e-05
7.74338e-07
1.15029e-05
8.52241e-07
1.06113e-05
9.01063e-07
9.69734e-06
9.23871e-07
8.78334e-06
9.24221e-07
7.88769e-06
9.05881e-07
7.02509e-06
8.72669e-07
6.20657e-06
8.28215e-07
5.43992e-06
7.75915e-07
4.72987e-06
7.18724e-07
4.0787e-06
6.59276e-07
3.48646e-06
5.99652e-07
2.95162e-06
5.41693e-07
2.47113e-06
4.86609e-07
2.04124e-06
4.35563e-07
1.65729e-06
3.88844e-07
1.315e-06
3.46945e-07
1.00995e-06
3.08849e-07
7.3956e-07
2.74203e-07
5.02384e-07
2.39901e-07
3.00553e-07
2.04872e-07
1.38768e-07
1.63346e-07
2.48843e-08
1.16042e-07
-3.18218e-08
5.71129e-08
-3.33736e-08
2.72334e-09
-3.34265e-08
4.80911e-08
-2.8368e-08
2.41165e-07
-2.43349e-07
5.84169e-07
-4.61891e-07
1.05267e-06
-6.55392e-07
1.61325e-06
-7.87423e-07
2.22329e-06
-8.62818e-07
2.84542e-06
-8.77967e-07
3.44359e-06
-8.44917e-07
3.99148e-06
-7.71355e-07
4.46864e-06
-6.71156e-07
4.86453e-06
-5.55119e-07
5.17496e-06
-4.35232e-07
5.40313e-06
-3.20213e-07
5.55636e-06
-2.17355e-07
5.64549e-06
-1.30602e-07
5.68206e-06
-6.16395e-08
5.67733e-06
-9.36796e-09
5.64025e-06
2.91859e-08
5.57678e-06
5.86685e-08
5.48897e-06
8.45344e-08
5.37492e-06
1.12561e-07
5.22887e-06
1.48142e-07
5.04184e-06
1.959e-07
4.8023e-06
2.59353e-07
4.49696e-06
3.40893e-07
4.11149e-06
4.41883e-07
3.63108e-06
5.62945e-07
3.04071e-06
7.0425e-07
2.3254e-06
8.65789e-07
1.47023e-06
1.04752e-06
4.60429e-07
1.24941e-06
-7.18547e-07
1.47135e-06
-2.08075e-06
1.71298e-06
-3.63947e-06
1.97357e-06
-5.40672e-06
2.25184e-06
-7.39282e-06
2.54583e-06
-9.60576e-06
2.85286e-06
-1.20507e-05
3.16945e-06
-1.47293e-05
3.49139e-06
-1.76393e-05
3.81371e-06
-2.07741e-05
4.1308e-06
-2.41224e-05
4.4365e-06
-2.76678e-05
4.72425e-06
-3.13891e-05
4.98725e-06
-3.52598e-05
5.21864e-06
-3.92489e-05
5.41166e-06
-4.33209e-05
5.55991e-06
-4.74363e-05
5.65743e-06
-5.15523e-05
5.69895e-06
-5.56235e-05
5.67992e-06
-5.96025e-05
5.59665e-06
-6.34406e-05
5.44638e-06
-6.70888e-05
5.22729e-06
-7.04983e-05
4.93851e-06
-7.36212e-05
4.58011e-06
-7.64114e-05
4.1531e-06
-7.8825e-05
3.65941e-06
-8.0821e-05
3.10185e-06
-8.23617e-05
2.48414e-06
-8.34135e-05
1.8109e-06
-8.39471e-05
1.08766e-06
-8.39381e-05
3.20899e-07
-8.33677e-05
-4.81919e-07
-8.22229e-05
-1.31233e-06
-8.04974e-05
-2.16082e-06
-7.81914e-05
-3.01689e-06
-7.53128e-05
-3.869e-06
-7.18772e-05
-4.70469e-06
-6.79082e-05
-5.51074e-06
-6.34378e-05
-6.27326e-06
-5.85065e-05
-6.97805e-06
-5.31632e-05
-7.61083e-06
-4.74648e-05
-8.15771e-06
-4.14759e-05
-8.60561e-06
-3.5268e-05
-8.94272e-06
-2.89185e-05
-9.15911e-06
-2.25093e-05
-9.24718e-06
-1.61252e-05
-9.20217e-06
-9.85241e-06
-9.02258e-06
-3.77614e-06
-8.71047e-06
2.02126e-06
-8.2716e-06
7.46258e-06
-7.7155e-06
1.24778e-05
-7.0552e-06
1.70063e-05
-6.30694e-06
2.09983e-05
-5.48958e-06
2.44166e-05
-4.62392e-06
2.72375e-05
-3.73194e-06
2.94513e-05
-2.83586e-06
3.10625e-05
-1.95734e-06
3.20892e-05
-1.11656e-06
3.25623e-05
-3.31499e-07
3.25236e-05
3.8274e-07
3.20245e-05
1.01439e-06
3.11231e-05
1.55534e-06
2.98825e-05
2.00121e-06
2.83674e-05
2.35129e-06
2.66427e-05
2.60825e-06
2.47703e-05
2.77766e-06
2.28081e-05
2.86745e-06
2.08076e-05
2.88726e-06
1.88138e-05
2.8478e-06
1.68638e-05
2.76012e-06
1.49873e-05
2.63521e-06
1.32065e-05
2.48334e-06
1.15368e-05
2.314e-06
9.98723e-06
2.13532e-06
8.56185e-06
1.95447e-06
7.25999e-06
1.7769e-06
6.07806e-06
1.60722e-06
5.00962e-06
1.4478e-06
4.04799e-06
1.30041e-06
3.18581e-06
1.16333e-06
2.41886e-06
1.03492e-06
1.74475e-06
9.07857e-07
1.16758e-06
7.77784e-07
6.94425e-07
6.31913e-07
3.37927e-07
4.70548e-07
1.08223e-07
2.83945e-07
4.12049e-09
1.06986e-07
-3.04563e-08
1.15676e-07
-1.43581e-07
4.47895e-07
-5.80019e-07
9.84229e-07
-9.98249e-07
1.68003e-06
-1.35592e-06
2.4925e-06
-1.60232e-06
3.36402e-06
-1.73927e-06
4.24571e-06
-1.76315e-06
5.08895e-06
-1.6927e-06
5.85798e-06
-1.5438e-06
6.52428e-06
-1.34106e-06
7.07224e-06
-1.10573e-06
7.49453e-06
-8.59954e-07
7.7935e-06
-6.20858e-07
7.97697e-06
-4.02191e-07
8.05739e-06
-2.11854e-07
8.04822e-06
-5.30463e-08
7.96239e-06
7.6206e-08
7.80973e-06
1.81745e-07
7.59586e-06
2.72621e-07
7.32098e-06
3.59613e-07
6.97975e-06
4.54133e-07
6.56147e-06
5.66936e-07
6.05084e-06
7.07271e-07
5.42895e-06
8.82276e-07
4.67439e-06
1.09686e-06
3.76425e-06
1.3539e-06
2.67491e-06
1.65473e-06
1.38265e-06
1.99961e-06
-1.35937e-07
2.38826e-06
-1.90367e-06
2.82001e-06
-3.94238e-06
3.29386e-06
-6.27249e-06
3.80827e-06
-8.91239e-06
4.36088e-06
-1.18777e-05
4.94821e-06
-1.51806e-05
5.56536e-06
-1.88284e-05
6.20586e-06
-2.28235e-05
6.86161e-06
-2.71616e-05
7.52292e-06
-3.18318e-05
8.17862e-06
-3.68158e-05
8.81631e-06
-4.20874e-05
9.42267e-06
-4.76128e-05
9.98384e-06
-5.3351e-05
1.04858e-05
-5.92539e-05
1.0915e-05
-6.52676e-05
1.12584e-05
-7.13331e-05
1.15043e-05
-7.7388e-05
1.16427e-05
-8.33672e-05
1.16651e-05
-8.92044e-05
1.1565e-05
-9.48339e-05
1.13381e-05
-0.000100191
1.09821e-05
-0.000105213
1.04966e-05
-0.000109842
9.88294e-06
-0.000114023
9.14427e-06
-0.000117705
8.28517e-06
-0.000120842
7.31155e-06
-0.000123394
6.23051e-06
-0.000125327
5.05023e-06
-0.00012661
3.77991e-06
-0.000127219
2.42976e-06
-0.000127137
1.01098e-06
-0.000126351
-4.64187e-07
-0.000124853
-1.9824e-06
-0.000122644
-3.52916e-06
-0.000119727
-5.08874e-06
-0.000116116
-6.64415e-06
-0.000111828
-8.17715e-06
-0.00010689
-9.66832e-06
-0.000101332
-1.10972e-05
-9.5196e-05
-1.24424e-05
-8.85283e-05
-1.36822e-05
-8.13842e-05
-1.47946e-05
-7.3826e-05
-1.57582e-05
-6.59235e-05
-1.65526e-05
-5.77532e-05
-1.71592e-05
-4.93974e-05
-1.7562e-05
-4.09439e-05
-1.77482e-05
-3.2484e-05
-1.77092e-05
-2.41116e-05
-1.74411e-05
-1.59213e-05
-1.69453e-05
-8.00632e-06
-1.62286e-05
-4.57003e-07
-1.5304e-05
6.64173e-06
-1.41897e-05
1.32122e-05
-1.29092e-05
1.91858e-05
-1.14909e-05
2.45051e-05
-9.96644e-06
2.91252e-05
-8.37058e-06
3.30148e-05
-6.7394e-06
3.61573e-05
-5.10932e-06
3.85513e-05
-3.51575e-06
4.02106e-05
-1.99192e-06
4.11635e-05
-5.6772e-07
4.14523e-05
7.31319e-07
4.11312e-05
1.88481e-06
4.0265e-05
2.87812e-06
3.8926e-05
3.70271e-06
3.71917e-05
4.35618e-06
3.51419e-05
4.84195e-06
3.28555e-05
5.16872e-06
3.04081e-05
5.3496e-06
2.78695e-05
5.40112e-06
2.53019e-05
5.34201e-06
2.27585e-05
5.19218e-06
2.02831e-05
4.97148e-06
1.791e-05
4.69908e-06
1.56638e-05
4.39241e-06
1.35612e-05
4.06718e-06
1.16108e-05
3.73625e-06
9.81598e-06
3.41039e-06
8.17452e-06
3.09648e-06
6.68255e-06
2.79921e-06
5.33393e-06
2.51753e-06
4.12559e-06
2.24886e-06
3.05523e-06
1.98215e-06
2.12857e-06
1.70897e-06
1.35259e-06
1.40995e-06
7.43689e-07
1.08305e-06
3.11915e-07
7.1547e-07
6.8509e-08
3.53433e-07
3.73885e-08
1.76841e-07
-3.17394e-07
6.33164e-07
-1.039e-06
1.33288e-06
-1.69324e-06
2.2089e-06
-2.232e-06
3.20967e-06
-2.59903e-06
4.26604e-06
-2.79402e-06
5.32226e-06
-2.81572e-06
6.32177e-06
-2.69001e-06
7.22346e-06
-2.44248e-06
7.99385e-06
-2.10942e-06
8.61414e-06
-1.72382e-06
9.07456e-06
-1.3189e-06
9.37607e-06
-9.20985e-07
9.52551e-06
-5.50759e-07
9.53463e-06
-2.20255e-07
9.41597e-06
6.59889e-08
9.18112e-06
3.11311e-07
8.83773e-06
5.25199e-07
8.38824e-06
7.2208e-07
7.82855e-06
9.19137e-07
7.14795e-06
1.13447e-06
6.32935e-06
1.38513e-06
5.35033e-06
1.68573e-06
4.1843e-06
2.04751e-06
2.80196e-06
2.47814e-06
1.17246e-06
2.98199e-06
-7.35443e-07
3.56081e-06
-2.95258e-06
4.21445e-06
-5.50859e-06
4.9414e-06
-8.43116e-06
5.73909e-06
-1.17453e-05
6.60377e-06
-1.54722e-05
7.53019e-06
-1.96283e-05
8.51117e-06
-2.42241e-05
9.53717e-06
-2.92626e-05
1.0596e-05
-3.47384e-05
1.16729e-05
-4.0637e-05
1.27502e-05
-4.69335e-05
1.38083e-05
-5.35928e-05
1.48256e-05
-6.05697e-05
1.57797e-05
-6.78093e-05
1.66477e-05
-7.52485e-05
1.74072e-05
-8.28169e-05
1.80373e-05
-9.04391e-05
1.85193e-05
-9.80365e-05
1.8837e-05
-0.000105529
1.89776e-05
-0.000112838
1.89318e-05
-0.000119887
1.86937e-05
-0.000126604
1.8261e-05
-0.000132921
1.76345e-05
-0.000138777
1.68178e-05
-0.000144117
1.5817e-05
-0.000148892
1.46402e-05
-0.000153063
1.32969e-05
-0.000156592
1.17981e-05
-0.000159451
1.01557e-05
-0.000161615
8.38236e-06
-0.000163067
6.49134e-06
-0.000163792
4.49661e-06
-0.000163781
2.41275e-06
-0.000163028
2.55097e-07
-0.000161532
-1.96016e-06
-0.000159296
-4.21577e-06
-0.000156326
-6.49332e-06
-0.000152633
-8.77299e-06
-0.000148232
-1.10335e-05
-0.000143142
-1.32519e-05
-0.000137389
-1.54038e-05
-0.000131002
-1.74633e-05
-0.000124018
-1.9403e-05
-0.00011648
-2.11949e-05
-0.000108437
-2.28103e-05
-9.99449e-05
-2.4221e-05
-9.10675e-05
-2.53994e-05
-8.18748e-05
-2.63201e-05
-7.24439e-05
-2.69606e-05
-6.28573e-05
-2.73022e-05
-5.32028e-05
-2.73314e-05
-4.3572e-05
-2.70404e-05
-3.40586e-05
-2.64282e-05
-2.47571e-05
-2.55012e-05
-1.57609e-05
-2.42732e-05
-7.16033e-06
-2.27657e-05
9.59416e-07
-2.1007e-05
8.51982e-06
-1.90321e-05
1.54509e-05
-1.68814e-05
2.16928e-05
-1.45994e-05
2.71971e-05
-1.22337e-05
3.19278e-05
-9.83317e-06
3.58625e-05
-7.44651e-06
3.89927e-05
-5.121e-06
4.13244e-05
-2.90093e-06
4.28784e-05
-8.26339e-07
4.36893e-05
1.06824e-06
4.38053e-05
2.75482e-06
4.32867e-05
4.21278e-06
4.22039e-05
5.4295e-06
4.06352e-05
6.40058e-06
3.86637e-05
7.12972e-06
3.63747e-05
7.62808e-06
3.3852e-05
7.91338e-06
3.11755e-05
8.00845e-06
2.84182e-05
7.93986e-06
2.56445e-05
7.73605e-06
2.2909e-05
7.42608e-06
2.02557e-05
7.03785e-06
1.77183e-05
6.59747e-06
1.53204e-05
6.12756e-06
1.30775e-05
5.6475e-06
1.09974e-05
5.17115e-06
9.08374e-06
4.70837e-06
7.3358e-06
4.26088e-06
5.75476e-06
3.82672e-06
4.34016e-06
3.39282e-06
3.10025e-06
2.94719e-06
2.04156e-06
2.46508e-06
1.18495e-06
1.93992e-06
5.42082e-07
1.35452e-06
1.43845e-07
7.54308e-07
1.7888e-07
2.2011e-07
-5.35659e-07
7.74506e-07
-1.59915e-06
1.60543e-06
-2.52161e-06
2.62312e-06
-3.25382e-06
3.76504e-06
-3.74081e-06
4.9504e-06
-3.98263e-06
6.11742e-06
-3.98377e-06
7.2035e-06
-3.77871e-06
8.1644e-06
-3.40472e-06
8.96378e-06
-2.91079e-06
9.58146e-06
-2.34267e-06
1.00063e-05
-1.74508e-06
1.02383e-05
-1.15376e-06
1.02828e-05
-5.96091e-07
1.01499e-05
-8.77742e-08
9.84943e-06
3.6608e-07
9.38949e-06
7.71099e-07
8.77311e-06
1.14148e-06
7.99712e-06
1.49811e-06
7.05082e-06
1.86554e-06
5.91612e-06
2.26938e-06
4.56809e-06
2.73346e-06
2.9763e-06
3.27796e-06
1.10632e-06
3.91809e-06
-1.07858e-06
4.66384e-06
-3.61587e-06
5.52034e-06
-6.54238e-06
6.48868e-06
-9.89304e-06
7.56683e-06
-1.36997e-05
8.75018e-06
-1.79897e-05
1.00318e-05
-2.27848e-05
1.1402e-05
-2.80992e-05
1.28483e-05
-3.3938e-05
1.43544e-05
-4.02961e-05
1.59004e-05
-4.71565e-05
1.74622e-05
-5.44895e-05
1.90125e-05
-6.22525e-05
2.05207e-05
-7.03905e-05
2.19545e-05
-7.88366e-05
2.32809e-05
-8.75142e-05
2.44673e-05
-9.63389e-05
2.54832e-05
-0.000105221
2.63012e-05
-0.00011407
2.68983e-05
-0.000122794
2.72563e-05
-0.000131306
2.73621e-05
-0.000139523
2.72085e-05
-0.000147369
2.67929e-05
-0.000154779
2.61176e-05
-0.000161692
2.51887e-05
-0.000168059
2.40157e-05
-0.000173837
2.26105e-05
-0.000178993
2.09868e-05
-0.0001835
1.91594e-05
-0.000187334
1.71439e-05
-0.000190482
1.49563e-05
-0.000192929
1.26127e-05
-0.000194667
1.0129e-05
-0.00019569
7.52147e-06
-0.000195994
4.80626e-06
-0.000195578
1.99986e-06
-0.000194441
-8.80685e-07
-0.000192584
-3.81754e-06
-0.00019001
-6.79175e-06
-0.000186725
-9.78295e-06
-0.000182736
-1.27691e-05
-0.000178053
-1.57261e-05
-0.000172688
-1.86278e-05
-0.000166659
-2.14459e-05
-0.000159987
-2.41498e-05
-0.0001527
-2.6707e-05
-0.00014483
-2.90832e-05
-0.000136416
-3.12432e-05
-0.000127507
-3.31515e-05
-0.000118155
-3.47729e-05
-0.000108423
-3.60743e-05
-9.8381e-05
-3.70254e-05
-8.81058e-05
-3.76003e-05
-7.76808e-05
-3.77789e-05
-6.71951e-05
-3.75482e-05
-5.67415e-05
-3.69031e-05
-4.64153e-05
-3.58477e-05
-3.63119e-05
-3.43955e-05
-2.65254e-05
-3.25695e-05
-1.7146e-05
-3.04018e-05
-8.25864e-06
-2.79329e-05
5.90631e-08
-2.52105e-05
7.73811e-06
-2.22878e-05
1.47193e-05
-1.92221e-05
2.09541e-05
-1.6073e-05
2.64055e-05
-1.29008e-05
3.10485e-05
-9.76491e-06
3.48704e-05
-6.72201e-06
3.78716e-05
-3.82509e-06
4.00655e-05
-1.12191e-06
4.14791e-05
1.34619e-06
4.21523e-05
3.54545e-06
4.21376e-05
5.45071e-06
4.1499e-05
7.04621e-06
4.031e-05
8.32609e-06
3.86511e-05
9.29434e-06
3.66074e-05
9.96444e-06
3.42648e-05
1.03582e-05
3.17074e-05
1.05042e-05
2.90137e-05
1.04362e-05
2.62553e-05
1.01907e-05
2.34937e-05
9.805e-06
2.07807e-05
9.31572e-06
1.81568e-05
8.75611e-06
1.5653e-05
8.15573e-06
1.32902e-05
7.5375e-06
1.10838e-05
6.91852e-06
9.04161e-06
6.3057e-06
7.17206e-06
5.69958e-06
5.47903e-06
5.08726e-06
3.97549e-06
4.45394e-06
2.6697e-06
3.77067e-06
1.58961e-06
3.02372e-06
7.52008e-07
2.1894e-06
2.10574e-07
1.30099e-06
3.87424e-07
2.54111e-07
-7.86199e-07
8.86233e-07
-2.23612e-06
1.81935e-06
-3.44951e-06
2.94284e-06
-4.3793e-06
4.18209e-06
-4.97668e-06
5.44503e-06
-5.24578e-06
6.6642e-06
-5.20048e-06
7.77233e-06
-4.88626e-06
8.72357e-06
-4.35414e-06
9.48049e-06
-3.66693e-06
1.00229e-05
-2.88382e-06
1.03394e-05
-2.06089e-06
1.04293e-05
-1.24284e-06
1.02963e-05
-4.6275e-07
9.94782e-06
2.61187e-07
9.38943e-06
9.24671e-07
8.6237e-06
1.53701e-06
7.6468e-06
2.11841e-06
6.44763e-06
2.69728e-06
5.00676e-06
3.30632e-06
3.2971e-06
3.97888e-06
1.28486e-06
4.74545e-06
-1.06863e-06
5.63112e-06
-3.80502e-06
6.65401e-06
-6.96676e-06
7.82498e-06
-1.05953e-05
9.14809e-06
-1.47293e-05
1.06216e-05
-1.94027e-05
1.22389e-05
-2.46432e-05
1.39891e-05
-3.04701e-05
1.58568e-05
-3.68926e-05
1.78221e-05
-4.39074e-05
1.98603e-05
-5.14974e-05
2.19412e-05
-5.96305e-05
2.40297e-05
-6.82588e-05
2.60863e-05
-7.73195e-05
2.80683e-05
-8.67359e-05
2.99315e-05
-9.64196e-05
3.16321e-05
-0.000106274
3.31285e-05
-0.000116197
3.43832e-05
-0.000126087
3.53648e-05
-0.000135842
3.60482e-05
-0.000145369
3.64162e-05
-0.000154581
3.64588e-05
-0.000163402
3.61731e-05
-0.000171766
3.55623e-05
-0.000179618
3.46351e-05
-0.000186915
3.34043e-05
-0.000193622
3.18855e-05
-0.000199713
3.00967e-05
-0.000205169
2.80567e-05
-0.000209977
2.57848e-05
-0.000214126
2.33002e-05
-0.000217612
2.06219e-05
-0.000220431
1.77677e-05
-0.00022258
1.47552e-05
-0.000224058
1.16011e-05
-0.000224862
8.32188e-06
-0.000224993
4.93364e-06
-0.000224447
1.45273e-06
-0.000223224
-2.10395e-06
-0.000221322
-5.71862e-06
-0.00021874
-9.37209e-06
-0.000215475
-1.30434e-05
-0.000211529
-1.67095e-05
-0.000206904
-2.03446e-05
-0.000201603
-2.39203e-05
-0.000195634
-2.74052e-05
-0.000189008
-3.07647e-05
-0.000181741
-3.39616e-05
-0.000173855
-3.69558e-05
-0.000165379
-3.97055e-05
-0.000156348
-4.21674e-05
-0.000146807
-4.42985e-05
-0.000136808
-4.60566e-05
-0.000126415
-4.74026e-05
-0.000115697
-4.83017e-05
-0.000104735
-4.87253e-05
-9.36142e-05
-4.8653e-05
-8.24285e-05
-4.80737e-05
-7.12747e-05
-4.69871e-05
-6.02522e-05
-4.54046e-05
-4.946e-05
-4.33494e-05
-3.89948e-05
-4.08561e-05
-2.89482e-05
-3.79699e-05
-1.94051e-05
-3.47454e-05
-1.0442e-05
-3.12441e-05
-2.12574e-06
-2.75331e-05
5.48727e-06
-2.36823e-05
1.23513e-05
-1.97625e-05
1.84313e-05
-1.5844e-05
2.37032e-05
-1.19943e-05
2.81537e-05
-8.27705e-06
3.17805e-05
-4.75113e-06
3.45925e-05
-1.46912e-06
3.66105e-05
1.52351e-06
3.78671e-05
4.18964e-06
3.84069e-05
6.50148e-06
3.82863e-05
8.44161e-06
3.75718e-05
1.00036e-05
3.63387e-05
1.11924e-05
3.46683e-05
1.20235e-05
3.26449e-05
1.25227e-05
3.03526e-05
1.27238e-05
2.78724e-05
1.26666e-05
2.52787e-05
1.23946e-05
2.26381e-05
1.19526e-05
2.0007e-05
1.13837e-05
1.74323e-05
1.07276e-05
1.49496e-05
1.00171e-05
1.25879e-05
9.2781e-06
1.03662e-05
8.52467e-06
8.30288e-06
7.76172e-06
6.40867e-06
6.97876e-06
4.70353e-06
6.15917e-06
3.19994e-06
5.27097e-06
1.93472e-06
4.2911e-06
9.32087e-07
3.18695e-06
2.67808e-07
1.97047e-06
6.51772e-07
2.79049e-07
-1.06238e-06
9.70352e-07
-2.93412e-06
1.97973e-06
-4.45469e-06
3.17715e-06
-5.58086e-06
4.47522e-06
-6.2732e-06
5.77048e-06
-6.54366e-06
6.98971e-06
-6.41946e-06
8.0617e-06
-5.96005e-06
8.94001e-06
-5.23275e-06
9.58738e-06
-4.31553e-06
9.98481e-06
-3.28167e-06
1.01214e-05
-2.19827e-06
9.99622e-06
-1.11803e-06
9.61125e-06
-7.82537e-08
8.97007e-06
9.0216e-07
8.07287e-06
1.82163e-06
6.91488e-06
2.69492e-06
5.48343e-06
3.54979e-06
3.75757e-06
4.42317e-06
1.70764e-06
5.3563e-06
-7.03401e-07
6.39004e-06
-3.51828e-06
7.5605e-06
-6.78293e-06
8.89604e-06
-1.05441e-05
1.04155e-05
-1.48465e-05
1.21279e-05
-1.97311e-05
1.40333e-05
-2.5232e-05
1.61233e-05
-3.13749e-05
1.83828e-05
-3.81741e-05
2.07895e-05
-4.56307e-05
2.33149e-05
-5.37301e-05
2.59233e-05
-6.24406e-05
2.85729e-05
-7.17122e-05
3.12153e-05
-8.14773e-05
3.37976e-05
-9.16519e-05
3.62641e-05
-0.000102138
3.85585e-05
-0.00011283
4.06268e-05
-0.000123613
4.242e-05
-0.000134376
4.38958e-05
-0.000145008
4.5021e-05
-0.000155409
4.57718e-05
-0.000165489
4.61342e-05
-0.00017517
4.61037e-05
-0.000184388
4.56835e-05
-0.000193092
4.48839e-05
-0.000201243
4.37206e-05
-0.000208814
4.22128e-05
-0.000215785
4.03823e-05
-0.000222144
3.82518e-05
-0.000227885
3.58445e-05
-0.000233004
3.31832e-05
-0.000237503
3.02895e-05
-0.00024138
2.7184e-05
-0.000244639
2.38858e-05
-0.000247279
2.04129e-05
-0.000249302
1.67819e-05
-0.000250706
1.30088e-05
-0.00025149
9.10865e-06
-0.000251651
5.09655e-06
-0.000251186
9.87655e-07
-0.000250087
-3.20222e-06
-0.000248351
-7.45613e-06
-0.00024597
-1.17555e-05
-0.000242937
-1.60796e-05
-0.000239246
-2.04051e-05
-0.00023489
-2.47057e-05
-0.000229865
-2.89514e-05
-0.000224169
-3.31087e-05
-0.000217802
-3.71399e-05
-0.000210769
-4.10038e-05
-0.000203079
-4.46551e-05
-0.000194749
-4.80457e-05
-0.000185803
-5.11248e-05
-0.000176272
-5.38408e-05
-0.000166198
-5.61419e-05
-0.000155633
-5.79785e-05
-0.000144641
-5.93052e-05
-0.000133295
-6.00828e-05
-0.000121679
-6.02804e-05
-0.000109885
-5.98781e-05
-9.80139e-05
-5.88684e-05
-8.61703e-05
-5.72577e-05
-7.44614e-05
-5.50669e-05
-6.29937e-05
-5.23315e-05
-5.18696e-05
-4.91008e-05
-4.11851e-05
-4.54357e-05
-3.1027e-05
-4.14069e-05
-2.14716e-05
-3.70922e-05
-1.25834e-05
-3.25732e-05
-4.41479e-06
-2.79328e-05
2.99323e-06
-2.32527e-05
9.61076e-06
-1.86116e-05
1.54181e-05
-1.40834e-05
2.04049e-05
-9.73624e-06
2.45701e-05
-5.63209e-06
2.7922e-05
-1.82558e-06
3.04782e-05
1.63651e-06
3.22669e-05
4.71619e-06
3.33268e-05
7.38531e-06
3.37075e-05
9.6266e-06
3.3469e-05
1.14345e-05
3.26804e-05
1.28157e-05
3.1418e-05
1.37886e-05
2.97625e-05
1.43825e-05
2.77961e-05
1.46362e-05
2.55986e-05
1.45948e-05
2.3246e-05
1.4308e-05
2.0806e-05
1.38259e-05
1.83392e-05
1.31968e-05
1.5895e-05
1.24631e-05
1.35158e-05
1.16595e-05
1.1233e-05
1.08084e-05
9.07649e-06
9.92049e-06
7.06598e-06
8.98927e-06
5.23057e-06
7.9973e-06
3.58949e-06
6.91044e-06
2.18983e-06
5.69489e-06
1.06471e-06
4.3075e-06
3.09091e-07
2.73302e-06
9.57658e-07
3.00045e-07
-1.35852e-06
1.03704e-06
-3.67735e-06
2.10019e-06
-5.51219e-06
3.34119e-06
-6.82498e-06
4.65978e-06
-7.58859e-06
5.94178e-06
-7.82686e-06
7.10872e-06
-7.58443e-06
8.08658e-06
-6.93816e-06
8.82941e-06
-5.9743e-06
9.30133e-06
-4.78733e-06
9.48542e-06
-3.46493e-06
9.37183e-06
-2.08447e-06
8.95944e-06
-7.05138e-07
8.24769e-06
6.33662e-07
7.2355e-06
1.91464e-06
5.91594e-06
3.14127e-06
4.27518e-06
4.33581e-06
2.28999e-06
5.53498e-06
-7.17633e-08
6.78494e-06
-2.85069e-06
8.13517e-06
-6.09346e-06
9.63273e-06
-9.85027e-06
1.13172e-05
-1.41716e-05
1.32171e-05
-1.9105e-05
1.53486e-05
-2.46921e-05
1.77147e-05
-3.0966e-05
2.03067e-05
-3.79481e-05
2.31048e-05
-4.56457e-05
2.60797e-05
-5.40495e-05
2.91924e-05
-6.31312e-05
3.23954e-05
-7.28423e-05
3.56331e-05
-8.31138e-05
3.88429e-05
-9.38579e-05
4.19576e-05
-0.00010497
4.4908e-05
-0.000116335
4.76267e-05
-0.00012783
5.00507e-05
-0.000139332
5.21253e-05
-0.000150721
5.38061e-05
-0.00016189
5.50607e-05
-0.000172741
5.58686e-05
-0.000183195
5.62214e-05
-0.000193186
5.61209e-05
-0.000202665
5.55778e-05
-0.000211595
5.46095e-05
-0.000219954
5.32381e-05
-0.000227728
5.14889e-05
-0.000234908
4.93885e-05
-0.000241495
4.69639e-05
-0.00024749
4.42417e-05
-0.000252897
4.1247e-05
-0.000257722
3.80034e-05
-0.000261969
3.45328e-05
-0.000265644
3.0855e-05
-0.00026875
2.69884e-05
-0.00027129
2.29496e-05
-0.000273265
1.87539e-05
-0.000274674
1.44157e-05
-0.000275515
9.94854e-06
-0.000275786
5.36585e-06
-0.000275479
6.81192e-07
-0.00027459
-4.09121e-06
-0.000273109
-8.93591e-06
-0.000271027
-1.38357e-05
-0.000268332
-1.87711e-05
-0.000265014
-2.37197e-05
-0.00026106
-2.86556e-05
-0.000256458
-3.3549e-05
-0.000251195
-3.83655e-05
-0.000245263
-4.30661e-05
-0.000238654
-4.76067e-05
-0.000231363
-5.19385e-05
-0.000223393
-5.60081e-05
-0.000214752
-5.97582e-05
-0.000205456
-6.31286e-05
-0.000195532
-6.6058e-05
-0.000185016
-6.84855e-05
-0.00017396
-7.03531e-05
-0.000162426
-7.16085e-05
-0.000150491
-7.22076e-05
-0.000138244
-7.21176e-05
-0.000125786
-7.13194e-05
-0.000113226
-6.98103e-05
-0.000100682
-6.76048e-05
-8.82727e-05
-6.47356e-05
-7.61154e-05
-6.12532e-05
-6.43232e-05
-5.72238e-05
-5.29998e-05
-5.27269e-05
-4.22372e-05
-4.78521e-05
-3.21135e-05
-4.2695e-05
-2.26919e-05
-3.73531e-05
-1.40211e-05
-3.1923e-05
-6.1361e-06
-2.64967e-05
9.40207e-07
-2.11603e-05
7.19503e-06
-1.59922e-05
1.26243e-05
-1.10629e-05
1.72316e-05
-6.43471e-06
2.10277e-05
-2.16168e-06
2.40308e-05
1.71076e-06
2.62674e-05
5.1463e-06
2.77728e-05
8.11868e-06
2.85921e-05
1.06127e-05
2.878e-05
1.26253e-05
2.84003e-05
1.41659e-05
2.75241e-05
1.52563e-05
2.62282e-05
1.593e-05
2.45908e-05
1.623e-05
2.26907e-05
1.62063e-05
2.0602e-05
1.59128e-05
1.83941e-05
1.54033e-05
1.61274e-05
1.47281e-05
1.38563e-05
1.39297e-05
1.16242e-05
1.30388e-05
9.4725e-06
1.20721e-05
7.43141e-06
1.10282e-05
5.54021e-06
9.88959e-06
3.82678e-06
8.62064e-06
2.34863e-06
7.17631e-06
1.14821e-06
5.50208e-06
3.3515e-07
3.55284e-06
1.28876e-06
3.17134e-07
-1.67214e-06
1.08758e-06
-4.45509e-06
2.1834e-06
-6.60284e-06
3.43834e-06
-8.08416e-06
4.73962e-06
-8.88755e-06
5.9632e-06
-9.05285e-06
7.0262e-06
-8.64653e-06
7.85309e-06
-7.76648e-06
8.39952e-06
-6.52049e-06
8.63205e-06
-5.02075e-06
8.53642e-06
-3.36933e-06
8.10402e-06
-1.65261e-06
7.33305e-06
6.57369e-08
6.21958e-06
1.74682e-06
4.75646e-06
3.37769e-06
2.92816e-06
4.96941e-06
7.10251e-07
6.55369e-06
-1.93213e-06
8.1773e-06
-5.04268e-06
9.89551e-06
-8.67221e-06
1.17647e-05
-1.2875e-05
1.38356e-05
-1.77053e-05
1.61475e-05
-2.32129e-05
1.8725e-05
-2.944e-05
2.15759e-05
-3.6417e-05
2.4692e-05
-4.41599e-05
2.805e-05
-5.26672e-05
3.16126e-05
-6.19174e-05
3.53305e-05
-7.1867e-05
3.91427e-05
-8.24499e-05
4.29791e-05
-9.35778e-05
4.6762e-05
-0.000105143
5.04097e-05
-0.000117025
5.38401e-05
-0.00012909
5.69751e-05
-0.000141207
5.97448e-05
-0.000153245
6.20907e-05
-0.000165086
6.39683e-05
-0.000176625
6.53478e-05
-0.000187776
6.62138e-05
-0.000198468
6.65642e-05
-0.000208652
6.64078e-05
-0.00021829
6.57625e-05
-0.000227361
6.4652e-05
-0.000235853
6.31045e-05
-0.000243762
6.115e-05
-0.000251089
5.88196e-05
-0.00025784
5.61435e-05
-0.000264024
5.31511e-05
-0.000269649
4.98697e-05
-0.000274723
4.63248e-05
-0.000279257
4.25396e-05
-0.000283256
3.85352e-05
-0.000286729
3.43306e-05
-0.000289682
2.9943e-05
-0.000292118
2.53877e-05
-0.000294041
2.06786e-05
-0.000295453
1.58284e-05
-0.000296353
1.08492e-05
-0.000296739
5.75227e-06
-0.000296608
5.49377e-07
-0.000295952
-4.74741e-06
-0.000294764
-1.01249e-05
-0.000293034
-1.55681e-05
-0.000290748
-2.10599e-05
-0.00028789
-2.65799e-05
-0.000284445
-3.21044e-05
-0.000280392
-3.76052e-05
-0.000275713
-4.3049e-05
-0.000270387
-4.83971e-05
-0.000264394
-5.36051e-05
-0.000257715
-5.86223e-05
-0.000250337
-6.33921e-05
-0.000242249
-6.7852e-05
-0.000233448
-7.19351e-05
-0.000223942
-7.55708e-05
-0.000213746
-7.8687e-05
-0.000202893
-8.12125e-05
-0.000191428
-8.30798e-05
-0.000179412
-8.42284e-05
-0.000166927
-8.46085e-05
-0.000154067
-8.41848e-05
-0.000140942
-8.29392e-05
-0.000127678
-8.0874e-05
-0.000114404
-7.80133e-05
-0.000101257
-7.44035e-05
-8.83716e-05
-7.0112e-05
-7.58758e-05
-6.52251e-05
-6.38861e-05
-5.98437e-05
-5.25036e-05
-5.40789e-05
-4.18112e-05
-4.80463e-05
-3.18729e-05
-4.18616e-05
-2.27341e-05
-3.56355e-05
-1.44235e-05
-2.94705e-05
-6.95549e-06
-2.34594e-05
-3.33729e-07
-1.76836e-05
5.44675e-06
-1.22139e-05
1.03973e-05
-7.11077e-06
1.45347e-05
-2.42501e-06
1.7881e-05
1.80176e-06
2.0464e-05
5.53736e-06
2.23189e-05
8.75963e-06
2.34884e-05
1.14575e-05
2.40241e-05
1.36319e-05
2.39856e-05
1.52964e-05
2.34402e-05
1.64771e-05
2.24599e-05
1.72117e-05
2.11205e-05
1.75472e-05
1.94968e-05
1.75374e-05
1.76628e-05
1.72387e-05
1.56855e-05
1.67061e-05
1.36285e-05
1.5988e-05
1.15452e-05
1.51223e-05
9.48788e-06
1.4131e-05
7.49726e-06
1.30181e-05
5.62317e-06
1.17661e-05
3.90305e-06
1.03385e-05
2.40434e-06
8.67926e-06
1.17828e-06
6.72277e-06
3.44138e-07
4.3945e-06
1.62917e-06
3.31817e-07
-1.99988e-06
1.12444e-06
-5.25477e-06
2.2316e-06
-7.70407e-06
3.46952e-06
-9.32581e-06
4.71346e-06
-1.01284e-05
5.8311e-06
-1.01722e-05
6.73662e-06
-9.5503e-06
7.35466e-06
-8.38519e-06
7.64378e-06
-6.80859e-06
7.57393e-06
-4.9511e-06
7.13375e-06
-2.92855e-06
6.3156e-06
-8.34476e-07
5.11607e-06
1.26562e-06
3.52652e-06
3.3364e-06
1.53219e-06
5.37221e-06
-8.92584e-07
7.39421e-06
-3.7838e-06
9.44499e-06
-7.18816e-06
1.15816e-05
-1.11599e-05
1.38672e-05
-1.57574e-05
1.63622e-05
-2.10386e-05
1.91167e-05
-2.70557e-05
2.21646e-05
-3.38508e-05
2.552e-05
-4.14518e-05
2.91767e-05
-4.98684e-05
3.31084e-05
-5.90894e-05
3.72707e-05
-6.90802e-05
4.16031e-05
-7.97815e-05
4.60313e-05
-9.11093e-05
5.047e-05
-0.000102957
5.48262e-05
-0.000115199
5.90037e-05
-0.000127699
6.29082e-05
-0.000140312
6.64523e-05
-0.000152898
6.95604e-05
-0.000165327
7.21722e-05
-0.000177482
7.42441e-05
-0.000189265
7.57504e-05
-0.000200601
7.66813e-05
-0.00021143
7.70413e-05
-0.000221714
7.68459e-05
-0.000231427
7.61193e-05
-0.000240558
7.48912e-05
-0.000249103
7.31946e-05
-0.000257064
7.10639e-05
-0.00026445
6.85337e-05
-0.000271271
6.56376e-05
-0.000277537
6.24075e-05
-0.000283262
5.88734e-05
-0.000288457
5.50629e-05
-0.000293136
5.10013e-05
-0.00029731
4.67115e-05
-0.00030099
4.2214e-05
-0.000304189
3.75271e-05
-0.000306914
3.2667e-05
-0.000309175
2.76478e-05
-0.00031098
2.2482e-05
-0.000312333
1.71807e-05
-0.000313238
1.1754e-05
-0.000313697
6.2111e-06
-0.000313708
5.61242e-07
-0.000313269
-5.18621e-06
-0.000312371
-1.1021e-05
-0.000311007
-1.69314e-05
-0.000309161
-2.29036e-05
-0.000306818
-2.89208e-05
-0.000303957
-3.49626e-05
-0.000300555
-4.10041e-05
-0.000296586
-4.70154e-05
-0.000292019
-5.29604e-05
-0.000286824
-5.87964e-05
-0.000280969
-6.44736e-05
-0.000274422
-6.99347e-05
-0.000267155
-7.51151e-05
-0.000259142
-7.99431e-05
-0.000250367
-8.43413e-05
-0.000240822
-8.82277e-05
-0.000230512
-9.15182e-05
-0.000219458
-9.41298e-05
-0.000207698
-9.59835e-05
-0.000195294
-9.70095e-05
-0.000182324
-9.71506e-05
-0.000168892
-9.63677e-05
-0.00015512
-9.46429e-05
-0.000141147
-9.19837e-05
-0.000127124
-8.84242e-05
-0.000113208
-8.40257e-05
-9.95563e-05
-7.8875e-05
-8.63177e-05
-7.3081e-05
-7.36266e-05
-6.67689e-05
-6.15981e-05
-6.00742e-05
-5.03238e-05
-5.31356e-05
-3.9871e-05
-4.60883e-05
-3.02832e-05
-3.90586e-05
-2.15828e-05
-3.21603e-05
-1.37753e-05
-2.54918e-05
-6.85328e-06
-1.91369e-05
-8.00505e-07
-1.31646e-05
4.40478e-06
-7.63141e-06
8.78818e-06
-2.58279e-06
1.23784e-05