/*--------------------------------*- C++ -*----------------------------------*\
| =========                 |                                                 |
| \\      /  F ield         | OpenFOAM: The Open Source CFD Toolbox           |
|  \\    /   O peration     | Version:  2406                                  |
|   \\  /    A nd           | Website:  www.openfoam.com                      |
|    \\/     M anipulation  |                                                 |
\*---------------------------------------------------------------------------*/
FoamFile
{
    version     2.0;
    format      ascii;
    arch        "LSB;label=32;scalar=64";
    class       volVectorField;
    location    "22.4";
    object      Uold;
}
// * * * * * * * * * * * * * * * * * * * * * * * * * * * * * * * * * * * * * //

dimensions      [0 1 -1 0 0 0 0];

internalField   nonuniform List<vector> 
3600
(
(9.56356e-06 -9.6733e-06 0)
(0.000169047 -7.46058e-05 0)
(0.000453449 -9.9739e-05 0)
(0.000737257 -9.6548e-05 0)
(0.000996539 -7.73415e-05 0)
(0.00117876 -5.37015e-05 0)
(0.00129505 -2.97237e-05 0)
(0.00132741 -6.5984e-06 0)
(0.00128683 1.52929e-05 0)
(0.00116427 3.64431e-05 0)
(0.000965163 5.65533e-05 0)
(0.000683894 7.6314e-05 0)
(0.000320779 9.61933e-05 0)
(-0.000131903 0.000117903 0)
(-0.000682686 0.000143073 0)
(-0.00134717 0.000173905 0)
(-0.00214371 0.00021186 0)
(-0.00309373 0.000257973 0)
(-0.00421744 0.000311959 0)
(-0.00553073 0.00037254 0)
(-0.00704093 0.000436948 0)
(-0.00874245 0.000501232 0)
(-0.0106131 0.000559987 0)
(-0.0126101 0.000606679 0)
(-0.0146686 0.000633616 0)
(-0.0166999 0.000632471 0)
(-0.0185944 0.000594719 0)
(-0.020225 0.000512746 0)
(-0.0214563 0.000381105 0)
(-0.0221541 0.000198254 0)
(-0.0221985 -3.20572e-05 0)
(-0.0214968 -0.000299715 0)
(-0.0199967 -0.000588238 0)
(-0.0176961 -0.000875573 0)
(-0.0146513 -0.0011361 0)
(-0.0109784 -0.0013433 0)
(-0.00685132 -0.0014733 0)
(-0.0024899 -0.00150845 0)
(0.00185406 -0.00144078 0)
(0.00592369 -0.00127446 0)
(0.00947862 -0.00102621 0)
(0.0123286 -0.000723909 0)
(0.0143475 -0.000401698 0)
(0.0154971 -9.47186e-05 0)
(0.0158146 0.000168383 0)
(0.015415 0.000368711 0)
(0.0144496 0.000500706 0)
(0.0131003 0.000568273 0)
(0.0115271 0.000583967 0)
(0.00988266 0.00056138 0)
(0.00826191 0.000516135 0)
(0.0067511 0.000458746 0)
(0.0053694 0.000400612 0)
(0.00415265 0.000345306 0)
(0.00306793 0.000299805 0)
(0.00213695 0.000257989 0)
(0.00131446 0.000220721 0)
(0.000658885 0.000162806 0)
(0.000175558 8.50349e-05 0)
(-2.56173e-05 -2.76239e-05 0)
(7.61947e-05 -0.000169845 0)
(0.00045005 -0.000445541 0)
(0.00100931 -0.000540808 0)
(0.0015428 -0.000507411 0)
(0.00200835 -0.00040112 0)
(0.00231373 -0.000260954 0)
(0.00246083 -0.000109028 0)
(0.00241055 5.0996e-05 0)
(0.0021642 0.000214889 0)
(0.0016954 0.000385784 0)
(0.000996223 0.000562016 0)
(4.3441e-05 0.000747475 0)
(-0.00117971 0.00094438 0)
(-0.00270117 0.00116036 0)
(-0.00455078 0.00140193 0)
(-0.00676638 0.00167699 0)
(-0.00938631 0.0019887 0)
(-0.0124455 0.00233615 0)
(-0.0159661 0.00271038 0)
(-0.019948 0.00309535 0)
(-0.0243599 0.00346638 0)
(-0.0291305 0.00379198 0)
(-0.034144 0.00403442 0)
(-0.0392394 0.00415293 0)
(-0.0442155 0.00410644 0)
(-0.0488411 0.00385849 0)
(-0.0528702 0.00338161 0)
(-0.0560588 0.00266249 0)
(-0.058183 0.00170538 0)
(-0.0590543 0.000534666 0)
(-0.0585327 -0.000805147 0)
(-0.0565364 -0.00225043 0)
(-0.0530498 -0.00372181 0)
(-0.0481268 -0.00512818 0)
(-0.0418947 -0.00637302 0)
(-0.034552 -0.00736124 0)
(-0.0263666 -0.0080084 0)
(-0.017664 -0.00824992 0)
(-0.00881674 -0.00805129 0)
(-0.000218133 -0.00741588 0)
(0.00773817 -0.0063897 0)
(0.014699 -0.00506028 0)
(0.0203726 -0.0035477 0)
(0.0245723 -0.00199024 0)
(0.0272174 -0.000522283 0)
(0.028361 0.000743307 0)
(0.0281507 0.00173445 0)
(0.0268352 0.00242132 0)
(0.0246861 0.00281891 0)
(0.0220091 0.00296826 0)
(0.0190478 0.00293139 0)
(0.0160383 0.00276684 0)
(0.0131052 0.00253511 0)
(0.0103805 0.00227333 0)
(0.00787156 0.00201796 0)
(0.00565391 0.00176253 0)
(0.00368188 0.00150816 0)
(0.00206884 0.00117864 0)
(0.000804336 0.000764162 0)
(0.000102863 0.00018536 0)
(0.000107046 -0.000462189 0)
(0.000561243 -0.00100866 0)
(0.00119949 -0.00117537 0)
(0.00176483 -0.00106702 0)
(0.00221055 -0.000809196 0)
(0.00242976 -0.000466836 0)
(0.00241316 -8.70134e-05 0)
(0.00210494 0.000327733 0)
(0.00148628 0.000768704 0)
(0.000509483 0.00124455 0)
(-0.000857807 0.00175267 0)
(-0.00266281 0.00230206 0)
(-0.00494864 0.0028976 0)
(-0.00776811 0.00355398 0)
(-0.011175 0.00428174 0)
(-0.0152246 0.00509092 0)
(-0.0199626 0.00597809 0)
(-0.0254148 0.00692655 0)
(-0.0315732 0.00789871 0)
(-0.0383822 0.00883877 0)
(-0.0457301 0.00967205 0)
(-0.0534442 0.0103122 0)
(-0.0612964 0.0106673 0)
(-0.0690146 0.0106506 0)
(-0.0763025 0.0101901 0)
(-0.0828601 0.00923822 0)
(-0.0884042 0.00777698 0)
(-0.0926823 0.00582162 0)
(-0.0954846 0.0034195 0)
(-0.0966482 0.00064833 0)
(-0.0960617 -0.0023878 0)
(-0.0936656 -0.00556162 0)
(-0.0894558 -0.00872754 0)
(-0.0834856 -0.011726 0)
(-0.0758711 -0.0143907 0)
(-0.0667931 -0.0165568 0)
(-0.0565026 -0.0180734 0)
(-0.0453169 -0.0188169 0)
(-0.0336176 -0.018708 0)
(-0.0218319 -0.0177263 0)
(-0.0104177 -0.0159228 0)
(0.000175405 -0.0134229 0)
(0.00953055 -0.0104204 0)
(0.0173156 -0.00715806 0)
(0.0232965 -0.00389694 0)
(0.0273834 -0.000883392 0)
(0.0296064 0.00168766 0)
(0.0301422 0.00369104 0)
(0.0292401 0.0050864 0)
(0.0272403 0.00590295 0)
(0.0244601 0.00623001 0)
(0.0212423 0.00617998 0)
(0.0178185 0.00587959 0)
(0.014431 0.00542927 0)
(0.011166 0.00491608 0)
(0.00817869 0.00435923 0)
(0.00545333 0.00376128 0)
(0.00316755 0.00301254 0)
(0.00130349 0.00205528 0)
(0.00020767 0.000727287 0)
(0.000112023 -0.000767444 0)
(0.000543479 -0.00155268 0)
(0.00109793 -0.00173876 0)
(0.00151527 -0.00149808 0)
(0.00175056 -0.00103462 0)
(0.00169792 -0.000429219 0)
(0.00133302 0.000252327 0)
(0.000582835 0.00101612 0)
(-0.000600335 0.00185208 0)
(-0.00229045 0.00277691 0)
(-0.00455249 0.00378802 0)
(-0.00746282 0.00490026 0)
(-0.0110968 0.00612051 0)
(-0.0155337 0.0074675 0)
(-0.0208489 0.00894862 0)
(-0.0271034 0.0105633 0)
(-0.0343305 0.012283 0)
(-0.0425158 0.0140515 0)
(-0.0515848 0.015777 0)
(-0.0613898 0.0173403 0)
(-0.071714 0.0186011 0)
(-0.0822794 0.0194155 0)
(-0.0927709 0.0196505 0)
(-0.102858 0.0192017 0)
(-0.112221 0.0180018 0)
(-0.120563 0.0160273 0)
(-0.127626 0.0132957 0)
(-0.133186 0.00986338 0)
(-0.13706 0.00581957 0)
(-0.139102 0.00128323 0)
(-0.1392 -0.00360086 0)
(-0.137279 -0.00866341 0)
(-0.133302 -0.0137134 0)
(-0.127278 -0.01854 0)
(-0.119269 -0.0229184 0)
(-0.109396 -0.026618 0)
(-0.0978542 -0.0294159 0)
(-0.0849173 -0.0311149 0)
(-0.0709443 -0.0315668 0)
(-0.0563707 -0.0306954 0)
(-0.0416989 -0.0285202 0)
(-0.0274629 -0.0251677 0)
(-0.0141984 -0.0208727 0)
(-0.00238238 -0.0159587 0)
(0.00759467 -0.010802 0)
(0.0154887 -0.00578485 0)
(0.0211901 -0.00124362 0)
(0.0247623 0.00256778 0)
(0.0263734 0.00550791 0)
(0.0263262 0.00754313 0)
(0.0249415 0.00874236 0)
(0.0226112 0.00923708 0)
(0.019641 0.00920123 0)
(0.0163722 0.00879819 0)
(0.0129792 0.00817426 0)
(0.00971352 0.0073964 0)
(0.00661261 0.00648156 0)
(0.00393069 0.00530869 0)
(0.00166425 0.00374114 0)
(0.000283762 0.00149455 0)
(9.9091e-05 -0.00105911 0)
(0.000431229 -0.00201551 0)
(0.000783621 -0.00214733 0)
(0.000923491 -0.00170437 0)
(0.000805569 -0.000968009 0)
(0.000332846 -2.26012e-05 0)
(-0.000542368 0.00105634 0)
(-0.00191218 0.00229226 0)
(-0.00386208 0.00367711 0)
(-0.00649586 0.00523803 0)
(-0.00991744 0.00697282 0)
(-0.0142343 0.00890194 0)
(-0.0195553 0.0110314 0)
(-0.025981 0.0133767 0)
(-0.0335968 0.0159281 0)
(-0.0424481 0.0186534 0)
(-0.0525263 0.0214711 0)
(-0.0637434 0.0242567 0)
(-0.0759297 0.0268392 0)
(-0.0888317 0.0290228 0)
(-0.102136 0.0306052 0)
(-0.115491 0.0314052 0)
(-0.128541 0.0312799 0)
(-0.140944 0.030138 0)
(-0.152387 0.0279405 0)
(-0.162594 0.0246987 0)
(-0.171327 0.0204664 0)
(-0.178385 0.0153348 0)
(-0.183597 0.00942576 0)
(-0.186823 0.00288954 0)
(-0.187949 -0.00409817 0)
(-0.186885 -0.0113354 0)
(-0.183565 -0.0185947 0)
(-0.17795 -0.0256216 0)
(-0.17004 -0.0321387 0)
(-0.159878 -0.03785 0)
(-0.147578 -0.0424549 0)
(-0.13333 -0.0456665 0)
(-0.117431 -0.0472417 0)
(-0.100284 -0.0470124 0)
(-0.0824079 -0.0449242 0)
(-0.0644098 -0.0410628 0)
(-0.0469545 -0.0356708 0)
(-0.0306934 -0.0291346 0)
(-0.0162109 -0.0219471 0)
(-0.00393866 -0.0146441 0)
(0.00585645 -0.00773171 0)
(0.0131204 -0.00162423 0)
(0.017943 0.00340198 0)
(0.020583 0.00721625 0)
(0.021346 0.00983092 0)
(0.0206407 0.0113645 0)
(0.0188145 0.0120111 0)
(0.016279 0.0119853 0)
(0.0132845 0.0114883 0)
(0.0101727 0.0106475 0)
(0.00704822 0.00950138 0)
(0.00424847 0.00793502 0)
(0.00181246 0.0057162 0)
(0.000310367 0.00242032 0)
(7.62094e-05 -0.0012687 0)
(0.000248502 -0.0022645 0)
(0.000296325 -0.00223682 0)
(4.40764e-05 -0.00150988 0)
(-0.000556967 -0.000428341 0)
(-0.00158981 0.000938146 0)
(-0.00313766 0.0025192 0)
(-0.00531559 0.00436461 0)
(-0.00825674 0.00647199 0)
(-0.0120973 0.00887931 0)
(-0.0169846 0.0115835 0)
(-0.0230552 0.014607 0)
(-0.0304469 0.0179465 0)
(-0.0392664 0.0215986 0)
(-0.0495855 0.0255126 0)
(-0.0613998 0.0295937 0)
(-0.0746212 0.0336771 0)
(-0.0890552 0.0375464 0)
(-0.10442 0.0409441 0)
(-0.120357 0.0436097 0)
(-0.136478 0.0453062 0)
(-0.152383 0.0458482 0)
(-0.167693 0.0451111 0)
(-0.182064 0.0430363 0)
(-0.195199 0.0396237 0)
(-0.20685 0.0349256 0)
(-0.216818 0.0290356 0)
(-0.224949 0.0220812 0)
(-0.231124 0.0142148 0)
(-0.235253 0.00561107 0)
(-0.237258 -0.00353656 0)
(-0.237069 -0.0130126 0)
(-0.234615 -0.0225771 0)
(-0.229821 -0.0319596 0)
(-0.222617 -0.0408565 0)
(-0.212946 -0.0489296 0)
(-0.20079 -0.0558139 0)
(-0.186195 -0.0611323 0)
(-0.169307 -0.064526 0)
(-0.150406 -0.0656934 0)
(-0.129936 -0.0644436 0)
(-0.108509 -0.060746 0)
(-0.0868858 -0.0547761 0)
(-0.0659126 -0.0469265 0)
(-0.0464356 -0.0377839 0)
(-0.0291739 -0.0280533 0)
(-0.0146466 -0.0184561 0)
(-0.00308821 -0.009623 0)
(0.00549534 -0.00201441 0)
(0.0113305 0.00410593 0)
(0.0147293 0.0086668 0)
(0.0161266 0.0117498 0)
(0.0159094 0.0135458 0)
(0.0145441 0.0143013 0)
(0.0123454 0.0142597 0)
(0.00973178 0.0136067 0)
(0.00688021 0.0124052 0)
(0.00420387 0.0105542 0)
(0.00180315 0.00772634 0)
(0.000306924 0.00336289 0)
(4.37905e-05 -0.00138704 0)
(2.13048e-06 -0.00225756 0)
(-0.000341778 -0.00194567 0)
(-0.00108325 -0.00084013 0)
(-0.002281 0.000675767 0)
(-0.00400403 0.00257035 0)
(-0.0063856 0.00479458 0)
(-0.0095678 0.00743163 0)
(-0.0137394 0.0104859 0)
(-0.0190681 0.0140038 0)
(-0.0257437 0.0179769 0)
(-0.0339224 0.0224202 0)
(-0.0437554 0.0273055 0)
(-0.0553275 0.0325843 0)
(-0.0686607 0.0381313 0)
(-0.0836582 0.0437544 0)
(-0.100116 0.0491791 0)
(-0.117709 0.0540878 0)
(-0.136036 0.0581463 0)
(-0.154639 0.061053 0)
(-0.173058 0.0625633 0)
(-0.190851 0.0625121 0)
(-0.207626 0.0608145 0)
(-0.223057 0.0574651 0)
(-0.236897 0.0525244 0)
(-0.248971 0.0461061 0)
(-0.259179 0.0383597 0)
(-0.26747 0.0294576 0)
(-0.273833 0.019583 0)
(-0.278269 0.00892573 0)
(-0.280779 -0.00232013 0)
(-0.28134 -0.0139501 0)
(-0.279901 -0.0257429 0)
(-0.276368 -0.0374473 0)
(-0.270608 -0.0487729 0)
(-0.262455 -0.0593778 0)
(-0.251734 -0.0688671 0)
(-0.238288 -0.0767964 0)
(-0.222029 -0.0826947 0)
(-0.202995 -0.0861018 0)
(-0.181409 -0.0866307 0)
(-0.157734 -0.0840406 0)
(-0.132699 -0.0783209 0)
(-0.107268 -0.0697513 0)
(-0.0825665 -0.0589252 0)
(-0.0597136 -0.0466946 0)
(-0.0396603 -0.034048 0)
(-0.0230066 -0.0219358 0)
(-0.00997707 -0.0111137 0)
(-0.000416319 -0.0020585 0)
(0.00602169 0.00503498 0)
(0.00984492 0.0101985 0)
(0.0115221 0.0136157 0)
(0.0115927 0.0155608 0)
(0.0104444 0.0163133 0)
(0.00856429 0.0161138 0)
(0.00620486 0.0150496 0)
(0.00384314 0.013037 0)
(0.00164903 0.00966935 0)
(0.000273794 0.00427414 0)
(2.17781e-07 -0.00136094 0)
(-0.000313831 -0.00189206 0)
(-0.0011396 -0.0011494 0)
(-0.002469 0.000442013 0)
(-0.00438065 0.00249662 0)
(-0.00693181 0.00504922 0)
(-0.0103213 0.00808865 0)
(-0.0147203 0.0117348 0)
(-0.0203783 0.0159962 0)
(-0.027488 0.02092 0)
(-0.0362745 0.0264824 0)
(-0.0468935 0.032673 0)
(-0.059481 0.0394109 0)
(-0.0740567 0.0465658 0)
(-0.0905441 0.053899 0)
(-0.108706 0.06109 0)
(-0.128186 0.0677417 0)
(-0.148505 0.0734413 0)
(-0.169132 0.0777996 0)
(-0.189506 0.0805022 0)
(-0.209107 0.0813296 0)
(-0.227475 0.0801742 0)
(-0.24426 0.0770326 0)
(-0.259218 0.0719942 0)
(-0.272225 0.0652144 0)
(-0.283254 0.0568916 0)
(-0.292357 0.0472405 0)
(-0.299632 0.0364763 0)
(-0.305202 0.0248 0)
(-0.309184 0.0123968 0)
(-0.31167 -0.000564159 0)
(-0.312708 -0.0139199 0)
(-0.312287 -0.0275029 0)
(-0.310323 -0.0411232 0)
(-0.306654 -0.054551 0)
(-0.301036 -0.0674953 0)
(-0.293159 -0.079589 0)
(-0.282663 -0.0903762 0)
(-0.269185 -0.0993179 0)
(-0.252427 -0.105814 0)
(-0.232243 -0.109258 0)
(-0.208733 -0.109119 0)
(-0.182347 -0.105058 0)
(-0.153932 -0.0970522 0)
(-0.124726 -0.0854947 0)
(-0.0962229 -0.0712291 0)
(-0.0699547 -0.0554666 0)
(-0.0471729 -0.0395716 0)
(-0.0286308 -0.024782 0)
(-0.0144589 -0.011978 0)
(-0.00434524 -0.00160078 0)
(0.0023259 0.00628616 0)
(0.00617922 0.0118609 0)
(0.00788877 0.0154402 0)
(0.00795877 0.0173521 0)
(0.00696029 0.0178962 0)
(0.00523213 0.0171905 0)
(0.00330589 0.0151716 0)
(0.00142365 0.011379 0)
(0.000230066 0.00506385 0)
(-5.69218e-05 -0.00116938 0)
(-0.00070501 -0.00111576 0)
(-0.00210165 0.000218488 0)
(-0.00411391 0.00241479 0)
(-0.0068542 0.00513355 0)
(-0.0103726 0.00850697 0)
(-0.0149477 0.0125753 0)
(-0.0207782 0.0174922 0)
(-0.0281722 0.0232621 0)
(-0.0373336 0.0299192 0)
(-0.0485041 0.0374056 0)
(-0.0618054 0.0456557 0)
(-0.0773143 0.0544959 0)
(-0.0949298 0.0636684 0)
(-0.114422 0.0727821 0)
(-0.135367 0.0813666 0)
(-0.157222 0.0889017 0)
(-0.179339 0.0948984 0)
(-0.201057 0.0989453 0)
(-0.221742 0.100762 0)
(-0.240872 0.10021 0)
(-0.258058 0.0973036 0)
(-0.273081 0.0921756 0)
(-0.285869 0.0850502 0)
(-0.29649 0.0761991 0)
(-0.305099 0.065908 0)
(-0.311919 0.054447 0)
(-0.317189 0.0420554 0)
(-0.32115 0.0289316 0)
(-0.324012 0.0152353 0)
(-0.325946 0.00109157 0)
(-0.32706 -0.0133964 0)
(-0.327398 -0.0281351 0)
(-0.326918 -0.0430202 0)
(-0.325484 -0.0579172 0)
(-0.322848 -0.0726337 0)
(-0.31865 -0.086894 0)
(-0.31241 -0.10031 0)
(-0.303561 -0.112363 0)
(-0.291482 -0.122398 0)
(-0.2756 -0.129646 0)
(-0.255499 -0.133292 0)
(-0.231082 -0.132592 0)
(-0.20272 -0.127032 0)
(-0.171374 -0.116527 0)
(-0.138596 -0.101587 0)
(-0.106377 -0.0833794 0)
(-0.0767834 -0.0635986 0)
(-0.0515024 -0.0441176 0)
(-0.0314203 -0.0265304 0)
(-0.0165748 -0.0118222 0)
(-0.00633656 -0.000319322 0)
(0.000130237 0.00811144 0)
(0.00372926 0.0138545 0)
(0.00516599 0.0173263 0)
(0.00514676 0.0189144 0)
(0.00412588 0.0187908 0)
(0.0026956 0.0169251 0)
(0.00117175 0.0128369 0)
(0.000183277 0.00573613 0)
(-0.00013158 -0.000752854 0)
(-0.00118413 0.000174713 0)
(-0.00324725 0.00227667 0)
(-0.00604165 0.00520965 0)
(-0.0097307 0.00874065 0)
(-0.0143611 0.0131297 0)
(-0.0203019 0.0184756 0)
(-0.0277704 0.0249542 0)
(-0.0371242 0.0325497 0)
(-0.0485538 0.0412604 0)
(-0.0622867 0.0509639 0)
(-0.078362 0.0614956 0)
(-0.09674 0.0725397 0)
(-0.117135 0.0836628 0)
(-0.139111 0.0942919 0)
(-0.162012 0.103799 0)
(-0.185102 0.111562 0)
(-0.207573 0.117058 0)
(-0.228698 0.119921 0)
(-0.247865 0.119988 0)
(-0.264672 0.117288 0)
(-0.278917 0.112021 0)
(-0.290609 0.104499 0)
(-0.299906 0.0950926 0)
(-0.307083 0.0841766 0)
(-0.312466 0.0720974 0)
(-0.316403 0.0591466 0)
(-0.31922 0.0455558 0)
(-0.321216 0.0314937 0)
(-0.322636 0.0170766 0)
(-0.32368 0.00237496 0)
(-0.324489 -0.0125707 0)
(-0.325148 -0.0277401 0)
(-0.32567 -0.0431147 0)
(-0.325991 -0.0586622 0)
(-0.325943 -0.0743101 0)
(-0.325233 -0.0899181 0)
(-0.323412 -0.105238 0)
(-0.319871 -0.119877 0)
(-0.313834 -0.133253 0)
(-0.304413 -0.144582 0)
(-0.290696 -0.152888 0)
(-0.27192 -0.157078 0)
(-0.247684 -0.156094 0)
(-0.218199 -0.149153 0)
(-0.184496 -0.136037 0)
(-0.148487 -0.117371 0)
(-0.112766 -0.094741 0)
(-0.0801063 -0.0704987 0)
(-0.0527046 -0.0471924 0)
(-0.0316112 -0.0268367 0)
(-0.0166058 -0.0104518 0)
(-0.00673836 0.00184741 0)
(-0.000797516 0.0104929 0)
(0.00224147 0.016045 0)
(0.00331393 0.0190416 0)
(0.00304884 0.0197593 0)
(0.00212855 0.0182323 0)
(0.000953534 0.0140014 0)
(0.000147819 0.00627395 0)
(-0.000225272 -7.49174e-05 0)
(-0.00175314 0.00204461 0)
(-0.0045744 0.00509812 0)
(-0.00824354 0.00890859 0)
(-0.0129942 0.013421 0)
(-0.0188715 0.0190482 0)
(-0.026339 0.0259461 0)
(-0.0356158 0.0342904 0)
(-0.0470897 0.0440213 0)
(-0.0609016 0.0550666 0)
(-0.0772205 0.0671961 0)
(-0.0959413 0.0800904 0)
(-0.116844 0.0932354 0)
(-0.139399 0.105981 0)
(-0.162922 0.117558 0)
(-0.186526 0.127204 0)
(-0.209311 0.134248 0)
(-0.230409 0.138229 0)
(-0.249158 0.138936 0)
(-0.265119 0.136425 0)
(-0.278147 0.130968 0)
(-0.288319 0.122987 0)
(-0.295913 0.112965 0)
(-0.301304 0.101385 0)
(-0.304929 0.0886756 0)
(-0.307204 0.0751903 0)
(-0.30852 0.0611951 0)
(-0.309202 0.0468775 0)
(-0.309521 0.0323546 0)
(-0.309689 0.0176909 0)
(-0.309873 0.00290779 0)
(-0.310198 -0.0120014 0)
(-0.31076 -0.0270651 0)
(-0.311615 -0.0423219 0)
(-0.312781 -0.057813 0)
(-0.314208 -0.073565 0)
(-0.315759 -0.0895702 0)
(-0.317158 -0.105749 0)
(-0.317952 -0.121905 0)
(-0.317458 -0.137662 0)
(-0.31475 -0.1524 0)
(-0.308678 -0.165207 0)
(-0.297973 -0.174868 0)
(-0.281442 -0.179944 0)
(-0.258276 -0.178963 0)
(-0.228416 -0.170751 0)
(-0.192902 -0.154871 0)
(-0.15403 -0.132072 0)
(-0.115134 -0.104496 0)
(-0.0798306 -0.0753906 0)
(-0.0509275 -0.048176 0)
(-0.0295008 -0.0252935 0)
(-0.0149794 -0.00767222 0)
(-0.0059128 0.00496203 0)
(-0.000845874 0.013336 0)
(0.0015167 0.018229 0)
(0.00207473 0.0201098 0)
(0.00166413 0.0191408 0)
(0.000796956 0.0149353 0)
(0.000128333 0.00672896 0)
(-0.000341407 0.000931407 0)
(-0.00241893 0.00459772 0)
(-0.00608804 0.00879536 0)
(-0.01072 0.0136356 0)
(-0.0166374 0.0193206 0)
(-0.0238801 0.0264316 0)
(-0.0330017 0.0351674 0)
(-0.0441964 0.0456694 0)
(-0.0578527 0.0577986 0)
(-0.0740151 0.0713646 0)
(-0.0927393 0.0859734 0)
(-0.11371 0.101088 0)
(-0.13647 0.115947 0)
(-0.160207 0.129663 0)
(-0.183998 0.141298 0)
(-0.206778 0.150022 0)
(-0.227611 0.155238 0)
(-0.245729 0.156677 0)
(-0.260708 0.154408 0)
(-0.272422 0.148786 0)
(-0.28106 0.140349 0)
(-0.286994 0.129715 0)
(-0.290725 0.117479 0)
(-0.292768 0.104163 0)
(-0.293614 0.0901753 0)
(-0.293671 0.0758154 0)
(-0.293274 0.0612788 0)
(-0.292665 0.0466823 0)
(-0.292027 0.0320813 0)
(-0.291483 0.017492 0)
(-0.291135 0.00290136 0)
(-0.291057 -0.0117207 0)
(-0.291325 -0.0264203 0)
(-0.292007 -0.0412539 0)
(-0.293176 -0.0562913 0)
(-0.294881 -0.0716088 0)
(-0.297142 -0.0872835 0)
(-0.2999 -0.10337 0)
(-0.302967 -0.119867 0)
(-0.305952 -0.136654 0)
(-0.308186 -0.153407 0)
(-0.308657 -0.1695 0)
(-0.306002 -0.183908 0)
(-0.298589 -0.195164 0)
(-0.284751 -0.201414 0)
(-0.263171 -0.200657 0)
(-0.233414 -0.191195 0)
(-0.196463 -0.172286 0)
(-0.15504 -0.144832 0)
(-0.113353 -0.111754 0)
(-0.076036 -0.077511 0)
(-0.0464688 -0.0465807 0)
(-0.0255787 -0.0217424 0)
(-0.0121663 -0.00354146 0)
(-0.00434519 0.00876127 0)
(-0.000323274 0.016271 0)
(0.00120301 0.0197691 0)
(0.00132479 0.0196514 0)
(0.00071906 0.0156715 0)
(0.000129716 0.00713054 0)
(-0.000478081 0.00230768 0)
(-0.00316858 0.00789338 0)
(-0.00775746 0.0134262 0)
(-0.0134189 0.0194505 0)
(-0.0205807 0.0265081 0)
(-0.0292678 0.035349 0)
(-0.0401095 0.0461881 0)
(-0.0532403 0.0590875 0)
(-0.0690106 0.0737848 0)
(-0.0873138 0.0899122 0)
(-0.108034 0.106849 0)
(-0.13059 0.123781 0)
(-0.154257 0.139676 0)
(-0.177953 0.15343 0)
(-0.200592 0.164017 0)
(-0.221071 0.170679 0)
(-0.238602 0.173048 0)
(-0.252692 0.171188 0)
(-0.263292 0.165527 0)
(-0.270644 0.156733 0)
(-0.275255 0.145563 0)
(-0.277711 0.132742 0)
(-0.278629 0.118885 0)
(-0.278533 0.104459 0)
(-0.277861 0.0897846 0)
(-0.276914 0.0750586 0)
(-0.275904 0.0603832 0)
(-0.274949 0.0457995 0)
(-0.274122 0.0313096 0)
(-0.273452 0.0168979 0)
(-0.272969 0.00253781 0)
(-0.272696 -0.0118005 0)
(-0.272678 -0.026154 0)
(-0.272972 -0.0405664 0)
(-0.273666 -0.055097 0)
(-0.274861 -0.0698228 0)
(-0.276672 -0.0848445 0)
(-0.279199 -0.100281 0)
(-0.282492 -0.116253 0)
(-0.286482 -0.13285 0)
(-0.290895 -0.150051 0)
(-0.295135 -0.167623 0)
(-0.298177 -0.184966 0)
(-0.2985 -0.200971 0)
(-0.294142 -0.213897 0)
(-0.282938 -0.22142 0)
(-0.263003 -0.220888 0)
(-0.233448 -0.209947 0)
(-0.195171 -0.187472 0)
(-0.151396 -0.154634 0)
(-0.107394 -0.115465 0)
(-0.0689344 -0.0760482 0)
(-0.0398272 -0.0420337 0)
(-0.0204183 -0.0161616 0)
(-0.00875045 0.00167142 0)
(-0.00245567 0.0128647 0)
(0.00032157 0.0186432 0)
(0.00106627 0.0197852 0)
(0.000704619 0.01628 0)
(0.000148889 0.00753884 0)
(-0.000635804 0.00411591 0)
(-0.00399474 0.012015 0)
(-0.00955871 0.0190743 0)
(-0.0162963 0.0264419 0)
(-0.0247496 0.0350783 0)
(-0.0349111 0.0458864 0)
(-0.047461 0.0590567 0)
(-0.0624328 0.0745146 0)
(-0.0800953 0.0918192 0)
(-0.100137 0.110358 0)
(-0.122224 0.129225 0)
(-0.145481 0.147295 0)
(-0.168935 0.163284 0)
(-0.191316 0.175959 0)
(-0.211524 0.184357 0)
(-0.228602 0.187965 0)
(-0.242085 0.186799 0)
(-0.251879 0.18134 0)
(-0.258342 0.172379 0)
(-0.262034 0.160827 0)
(-0.263677 0.14755 0)
(-0.263931 0.133267 0)
(-0.263391 0.118507 0)
(-0.262476 0.103609 0)
(-0.261482 0.088761 0)
(-0.260558 0.0740442 0)
(-0.259778 0.0594719 0)
(-0.259141 0.0450273 0)
(-0.258632 0.0306811 0)
(-0.258213 0.016408 0)
(-0.257866 0.00218652 0)
(-0.257579 -0.0119971 0)
(-0.257374 -0.0261568 0)
(-0.25729 -0.0403092 0)
(-0.257406 -0.0544844 0)
(-0.257827 -0.0687317 0)
(-0.258698 -0.0831322 0)
(-0.260187 -0.0978047 0)
(-0.262475 -0.11291 0)
(-0.265715 -0.128641 0)
(-0.269969 -0.145183 0)
(-0.275092 -0.162636 0)
(-0.280599 -0.180875 0)
(-0.285489 -0.19936 0)
(-0.288134 -0.216891 0)
(-0.286271 -0.231445 0)
(-0.277245 -0.240132 0)
(-0.258586 -0.239541 0)
(-0.22893 -0.226525 0)
(-0.189141 -0.199574 0)
(-0.143109 -0.160367 0)
(-0.0974206 -0.114589 0)
(-0.0590302 -0.0704377 0)
(-0.0317251 -0.0345102 0)
(-0.0147446 -0.00896591 0)
(-0.00527306 0.0074452 0)
(-0.000770798 0.0164738 0)
(0.000796038 0.019464 0)
(0.000721203 0.0167674 0)
(0.000181172 0.00797887 0)
(-0.000806678 0.0063822 0)
(-0.0048619 0.0169847 0)
(-0.0114203 0.0257482 0)
(-0.0192402 0.0346057 0)
(-0.0289791 0.0450062 0)
(-0.0405733 0.0579706 0)
(-0.0547228 0.0736146 0)
(-0.0713172 0.091664 0)
(-0.0905007 0.111442 0)
(-0.111714 0.13203 0)
(-0.134383 0.152196 0)
(-0.157357 0.170514 0)
(-0.179496 0.185529 0)
(-0.199484 0.196031 0)
(-0.216383 0.201301 0)
(-0.229553 0.20124 0)
(-0.238959 0.196339 0)
(-0.244922 0.187493 0)
(-0.248135 0.175773 0)
(-0.249352 0.162203 0)
(-0.249352 0.147626 0)
(-0.248729 0.132642 0)
(-0.247941 0.117614 0)
(-0.24723 0.102721 0)
(-0.246728 0.0880142 0)
(-0.246435 0.0734761 0)
(-0.246318 0.0590613 0)
(-0.246295 0.044725 0)
(-0.246303 0.0304331 0)
(-0.246273 0.0161695 0)
(-0.24617 0.00193111 0)
(-0.245968 -0.0122733 0)
(-0.245676 -0.0264316 0)
(-0.245319 -0.0405315 0)
(-0.244957 -0.0545709 0)
(-0.244674 -0.0685632 0)
(-0.2446 -0.0825508 0)
(-0.244899 -0.0966167 0)
(-0.245786 -0.110899 0)
(-0.247505 -0.125602 0)
(-0.250308 -0.140992 0)
(-0.254376 -0.157367 0)
(-0.259702 -0.174957 0)
(-0.265909 -0.193768 0)
(-0.272037 -0.213307 0)
(-0.276351 -0.232283 0)
(-0.276295 -0.248301 0)
(-0.268736 -0.257818 0)
(-0.250629 -0.256493 0)
(-0.22021 -0.240318 0)
(-0.178466 -0.207492 0)
(-0.130288 -0.160713 0)
(-0.0838567 -0.108146 0)
(-0.0471712 -0.0604313 0)
(-0.0231018 -0.0244898 0)
(-0.00926807 -0.000772438 0)
(-0.00234709 0.0128683 0)
(0.000379076 0.0185409 0)
(0.000716955 0.0171128 0)
(0.000217396 0.00847275 0)
(-0.000986654 0.00914101 0)
(-0.00574559 0.0228356 0)
(-0.0132874 0.0334716 0)
(-0.022161 0.0439565 0)
(-0.0331287 0.0562843 0)
(-0.0460422 0.0715434 0)
(-0.0615848 0.0897156 0)
(-0.0794646 0.110259 0)
(-0.0996689 0.132205 0)
(-0.121371 0.154278 0)
(-0.143777 0.174929 0)
(-0.165527 0.192491 0)
(-0.185445 0.205487 0)
(-0.202329 0.212912 0)
(-0.215565 0.214474 0)
(-0.224926 0.210588 0)
(-0.230814 0.202223 0)
(-0.23388 0.190596 0)
(-0.235019 0.176918 0)
(-0.235014 0.162175 0)
(-0.234557 0.147067 0)
(-0.234072 0.131993 0)
(-0.233826 0.117129 0)
(-0.23388 0.102494 0)
(-0.234221 0.0880378 0)
(-0.234746 0.0736821 0)
(-0.235364 0.0593598 0)
(-0.235958 0.045027 0)
(-0.236456 0.0306647 0)
(-0.236787 0.0162772 0)
(-0.23692 0.00188361 0)
(-0.23683 -0.0124854 0)
(-0.236526 -0.0267961 0)
(-0.236021 -0.0410141 0)
(-0.235361 -0.0551121 0)
(-0.2346 -0.0690736 0)
(-0.233834 -0.0829025 0)
(-0.233185 -0.0966353 0)
(-0.232835 -0.110357 0)
(-0.23302 -0.124224 0)
(-0.234041 -0.138483 0)
(-0.23623 -0.153485 0)
(-0.239889 -0.169642 0)
(-0.245139 -0.187344 0)
(-0.251708 -0.206721 0)
(-0.258649 -0.227332 0)
(-0.26409 -0.247699 0)
(-0.265146 -0.264956 0)
(-0.258178 -0.274692 0)
(-0.239633 -0.271505 0)
(-0.20749 -0.250462 0)
(-0.163236 -0.209847 0)
(-0.113215 -0.154298 0)
(-0.0675644 -0.0955231 0)
(-0.0345852 -0.046589 0)
(-0.0149469 -0.0128508 0)
(-0.00470149 0.00722528 0)
(-0.000328651 0.0167319 0)
(0.000638151 0.0172096 0)
(0.000249511 0.00900081 0)
(-0.00116104 0.0123775 0)
(-0.00658853 0.0295215 0)
(-0.015053 0.0421718 0)
(-0.0248978 0.0543875 0)
(-0.0369705 0.0687457 0)
(-0.0510093 0.0863409 0)
(-0.0676471 0.106963 0)
(-0.0863836 0.129741 0)
(-0.107034 0.153377 0)
(-0.128516 0.176226 0)
(-0.149873 0.196465 0)
(-0.169644 0.212312 0)
(-0.186763 0.222443 0)
(-0.200286 0.22624 0)
(-0.210012 0.223957 0)
(-0.216136 0.216539 0)
(-0.219414 0.205345 0)
(-0.220688 0.191766 0)
(-0.220888 0.176988 0)
(-0.22069 0.161833 0)
(-0.220604 0.146773 0)
(-0.220844 0.131989 0)
(-0.221492 0.11748 0)
(-0.222464 0.103154 0)
(-0.223658 0.0888997 0)
(-0.224923 0.0746236 0)
(-0.22615 0.0602671 0)
(-0.227225 0.0458072 0)
(-0.228088 0.0312499 0)
(-0.22868 0.0166234 0)
(-0.228986 0.00196849 0)
(-0.228988 -0.0126662 0)
(-0.2287 -0.0272313 0)
(-0.228134 -0.0416781 0)
(-0.227325 -0.0559639 0)
(-0.226308 -0.0700537 0)
(-0.225144 -0.0839247 0)
(-0.223908 -0.0975758 0)
(-0.222725 -0.111037 0)
(-0.221763 -0.124399 0)
(-0.221281 -0.137829 0)
(-0.221612 -0.151628 0)
(-0.223172 -0.166222 0)
(-0.226368 -0.182175 0)
(-0.23145 -0.20003 0)
(-0.238228 -0.220077 0)
(-0.245726 -0.241848 0)
(-0.251861 -0.263598 0)
(-0.253323 -0.281725 0)
(-0.245954 -0.290733 0)
(-0.225739 -0.283913 0)
(-0.190759 -0.255573 0)
(-0.143507 -0.204849 0)
(-0.0925539 -0.139818 0)
(-0.0499468 -0.0770463 0)
(-0.0227404 -0.0300926 0)
(-0.00811921 -0.00121012 0)
(-0.00146066 0.0136504 0)
(0.000436445 0.0169014 0)
(0.000269604 0.00952936 0)
(-0.00132214 0.0160752 0)
(-0.00735559 0.0370014 0)
(-0.0166461 0.051791 0)
(-0.0273405 0.0658165 0)
(-0.0403408 0.0822612 0)
(-0.0552473 0.102159 0)
(-0.0726144 0.125052 0)
(-0.0917245 0.149691 0)
(-0.112228 0.174427 0)
(-0.132834 0.197271 0)
(-0.152506 0.216225 0)
(-0.16981 0.22955 0)
(-0.183913 0.236257 0)
(-0.194221 0.23625 0)
(-0.200959 0.230371 0)
(-0.204667 0.220019 0)
(-0.206323 0.206801 0)
(-0.206803 0.192108 0)
(-0.206939 0.176964 0)
(-0.207211 0.16194 0)
(-0.207918 0.147262 0)
(-0.209077 0.132911 0)
(-0.210636 0.118763 0)
(-0.212423 0.104662 0)
(-0.214304 0.0904866 0)
(-0.216117 0.0761566 0)
(-0.217769 0.0616407 0)
(-0.219164 0.046944 0)
(-0.220259 0.0320998 0)
(-0.221013 0.0171578 0)
(-0.221423 0.00217717 0)
(-0.221482 -0.0127797 0)
(-0.221212 -0.0276521 0)
(-0.220625 -0.0423835 0)
(-0.219756 -0.0569235 0)
(-0.21863 -0.0712292 0)
(-0.217289 -0.0852648 0)
(-0.215773 -0.099008 0)
(-0.214154 -0.11245 0)
(-0.212528 -0.125623 0)
(-0.211066 -0.13861 0)
(-0.210021 -0.151609 0)
(-0.20977 -0.164952 0)
(-0.210794 -0.179191 0)
(-0.21361 -0.19502 0)
(-0.218576 -0.213202 0)
(-0.225551 -0.234123 0)
(-0.233462 -0.257265 0)
(-0.239887 -0.280341 0)
(-0.241003 -0.298759 0)
(-0.23204 -0.305506 0)
(-0.208774 -0.292463 0)
(-0.169782 -0.253613 0)
(-0.119576 -0.190413 0)
(-0.0695476 -0.116896 0)
(-0.033072 -0.0541522 0)
(-0.012832 -0.0133353 0)
(-0.00314244 0.00878016 0)
(7.79644e-05 0.0159634 0)
(0.00027141 0.00999609 0)
(-0.00145131 0.0201597 0)
(-0.00798013 0.0451435 0)
(-0.0179491 0.0621613 0)
(-0.0293202 0.0780217 0)
(-0.0430142 0.096522 0)
(-0.0584778 0.118575 0)
(-0.0761693 0.143434 0)
(-0.0951636 0.169445 0)
(-0.114976 0.194623 0)
(-0.134176 0.216699 0)
(-0.151748 0.233632 0)
(-0.166391 0.243887 0)
(-0.177593 0.246958 0)
(-0.18513 0.243335 0)
(-0.189598 0.234406 0)
(-0.191759 0.22189 0)
(-0.192667 0.207467 0)
(-0.193104 0.192382 0)
(-0.193722 0.177404 0)
(-0.194775 0.162825 0)
(-0.196374 0.148649 0)
(-0.198395 0.134711 0)
(-0.20071 0.120821 0)
(-0.203114 0.106811 0)
(-0.205479 0.0925789 0)
(-0.20766 0.0780738 0)
(-0.209585 0.0632974 0)
(-0.211178 0.0482826 0)
(-0.212415 0.0330862 0)
(-0.213263 0.0177764 0)
(-0.213731 0.00242784 0)
(-0.213816 -0.0128856 0)
(-0.213548 -0.0280938 0)
(-0.212944 -0.0431347 0)
(-0.212044 -0.0579538 0)
(-0.210872 -0.0725076 0)
(-0.209466 -0.0867573 0)
(-0.207851 -0.100676 0)
(-0.206063 -0.114235 0)
(-0.204147 -0.127434 0)
(-0.20219 -0.140285 0)
(-0.20034 -0.152891 0)
(-0.198865 -0.165448 0)
(-0.19817 -0.178382 0)
(-0.198816 -0.192334 0)
(-0.201421 -0.208237 0)
(-0.206429 -0.227009 0)
(-0.213693 -0.249182 0)
(-0.221903 -0.273923 0)
(-0.228181 -0.298177 0)
(-0.227989 -0.315793 0)
(-0.216063 -0.3179 0)
(-0.188162 -0.294962 0)
(-0.144391 -0.241731 0)
(-0.0921704 -0.164892 0)
(-0.0465611 -0.0866655 0)
(-0.0189434 -0.0302686 0)
(-0.00552947 0.0015453 0)
(-0.000459376 0.0141129 0)
(0.0002481 0.0103338 0)
(-0.00154135 0.0245543 0)
(-0.00843125 0.0538304 0)
(-0.0189019 0.0731483 0)
(-0.0307484 0.0908399 0)
(-0.0448705 0.111316 0)
(-0.0605571 0.135318 0)
(-0.0781645 0.161785 0)
(-0.096591 0.188648 0)
(-0.115263 0.21363 0)
(-0.132689 0.234273 0)
(-0.147965 0.248641 0)
(-0.160008 0.255547 0)
(-0.168654 0.255063 0)
(-0.174013 0.248259 0)
(-0.176949 0.23696 0)
(-0.178319 0.223043 0)
(-0.179125 0.208106 0)
(-0.179974 0.193141 0)
(-0.18131 0.178625 0)
(-0.183188 0.164592 0)
(-0.185583 0.150881 0)
(-0.188288 0.137244 0)
(-0.191152 0.123474 0)
(-0.193979 0.109423 0)
(-0.196663 0.0950217 0)
(-0.199081 0.080254 0)
(-0.201185 0.0651506 0)
(-0.20291 0.0497663 0)
(-0.204243 0.0341769 0)
(-0.205155 0.0184656 0)