/*--------------------------------*- C++ -*----------------------------------*\
| =========                 |                                                 |
| \\      /  F ield         | OpenFOAM: The Open Source CFD Toolbox           |
|  \\    /   O peration     | Version:  2406                                  |
|   \\  /    A nd           | Website:  www.openfoam.com                      |
|    \\/     M anipulation  |                                                 |
\*---------------------------------------------------------------------------*/
FoamFile
{
    version     2.0;
    format      ascii;
    arch        "LSB;label=32;scalar=64";
    class       volVectorField;
    location    "2.4";
    object      U;
}
// * * * * * * * * * * * * * * * * * * * * * * * * * * * * * * * * * * * * * //

dimensions      [0 1 -1 0 0 0 0];

internalField   nonuniform List<vector> 
14400
(
(9.89707e-07 -9.83694e-07 0)
(8.42721e-07 4.24811e-07 0)
(-6.62021e-06 2.46045e-06 0)
(-2.16158e-05 4.27769e-06 0)
(-4.3026e-05 5.7116e-06 0)
(-6.94137e-05 6.75787e-06 0)
(-9.94008e-05 7.47623e-06 0)
(-0.000131841 7.93889e-06 0)
(-0.000165849 8.21479e-06 0)
(-0.000200778 8.36135e-06 0)
(-0.000236185 8.42335e-06 0)
(-0.000271779 8.43347e-06 0)
(-0.000307383 8.41404e-06 0)
(-0.000342894 8.37927e-06 0)
(-0.000378258 8.33747e-06 0)
(-0.000413448 8.29298e-06 0)
(-0.000448451 8.24764e-06 0)
(-0.000483262 8.20193e-06 0)
(-0.000517874 8.15561e-06 0)
(-0.000552281 8.10819e-06 0)
(-0.000586477 8.05911e-06 0)
(-0.000620451 8.00784e-06 0)
(-0.000654193 7.95394e-06 0)
(-0.000687689 7.89706e-06 0)
(-0.000720927 7.83689e-06 0)
(-0.00075389 7.77319e-06 0)
(-0.000786564 7.70572e-06 0)
(-0.000818932 7.63429e-06 0)
(-0.000850976 7.55873e-06 0)
(-0.000882678 7.47885e-06 0)
(-0.00091402 7.39448e-06 0)
(-0.000944983 7.30547e-06 0)
(-0.000975545 7.21165e-06 0)
(-0.00100569 7.11285e-06 0)
(-0.00103539 7.00892e-06 0)
(-0.00106462 6.8997e-06 0)
(-0.00109337 6.78502e-06 0)
(-0.00112162 6.66474e-06 0)
(-0.00114932 6.53868e-06 0)
(-0.00117648 6.40671e-06 0)
(-0.00120305 6.26867e-06 0)
(-0.00122901 6.1244e-06 0)
(-0.00125433 5.97376e-06 0)
(-0.001279 5.81662e-06 0)
(-0.00130298 5.65283e-06 0)
(-0.00132624 5.48228e-06 0)
(-0.00134876 5.30483e-06 0)
(-0.00137051 5.12038e-06 0)
(-0.00139146 4.92882e-06 0)
(-0.00141157 4.73006e-06 0)
(-0.00143083 4.52402e-06 0)
(-0.0014492 4.31062e-06 0)
(-0.00146664 4.08982e-06 0)
(-0.00148314 3.86156e-06 0)
(-0.00149865 3.62583e-06 0)
(-0.00151315 3.38262e-06 0)
(-0.00152661 3.13193e-06 0)
(-0.001539 2.8738e-06 0)
(-0.00155028 2.60827e-06 0)
(-0.00156043 2.33542e-06 0)
(-0.00156942 2.05532e-06 0)
(-0.00157722 1.76811e-06 0)
(-0.00158379 1.47388e-06 0)
(-0.00158912 1.17283e-06 0)
(-0.00159317 8.65042e-07 0)
(-0.00159593 5.50279e-07 0)
(-0.00159735 2.29587e-07 0)
(-0.00159743 -9.35008e-08 0)
(-0.00159613 -4.24588e-07 0)
(-0.00159343 -7.61696e-07 0)
(-0.00158932 -1.10344e-06 0)
(-0.00158377 -1.44962e-06 0)
(-0.00157677 -1.79985e-06 0)
(-0.0015683 -2.1537e-06 0)
(-0.00155835 -2.5107e-06 0)
(-0.00154691 -2.87037e-06 0)
(-0.00153396 -3.23219e-06 0)
(-0.0015195 -3.59563e-06 0)
(-0.00150353 -3.96013e-06 0)
(-0.00148604 -4.32511e-06 0)
(-0.00146703 -4.68997e-06 0)
(-0.00144651 -5.05408e-06 0)
(-0.00142447 -5.41683e-06 0)
(-0.00140092 -5.77758e-06 0)
(-0.00137588 -6.13566e-06 0)
(-0.00134936 -6.49043e-06 0)
(-0.00132137 -6.84121e-06 0)
(-0.00129192 -7.18736e-06 0)
(-0.00126105 -7.5282e-06 0)
(-0.00122877 -7.86308e-06 0)
(-0.00119511 -8.19135e-06 0)
(-0.0011601 -8.51239e-06 0)
(-0.00112377 -8.82556e-06 0)
(-0.00108615 -9.13028e-06 0)
(-0.00104728 -9.42599e-06 0)
(-0.00100719 -9.71214e-06 0)
(-0.000965931 -9.98826e-06 0)
(-0.000923541 -1.02539e-05 0)
(-0.000880065 -1.05088e-05 0)
(-0.000835548 -1.07524e-05 0)
(-0.000790036 -1.09847e-05 0)
(-0.000743578 -1.12054e-05 0)
(-0.000696224 -1.14141e-05 0)
(-0.000648026 -1.16102e-05 0)
(-0.00059904 -1.17924e-05 0)
(-0.000549333 -1.19582e-05 0)
(-0.000498985 -1.2103e-05 0)
(-0.000448105 -1.22188e-05 0)
(-0.000396847 -1.22923e-05 0)
(-0.000345433 -1.23034e-05 0)
(-0.000294189 -1.22221e-05 0)
(-0.000243586 -1.20061e-05 0)
(-0.000194297 -1.15986e-05 0)
(-0.000147245 -1.0926e-05 0)
(-0.000103669 -9.89773e-06 0)
(-6.51597e-05 -8.4138e-06 0)
(-3.36454e-05 -6.38094e-06 0)
(-1.1191e-05 -3.78543e-06 0)
(4.41784e-07 -8.1776e-07 0)
(1.31423e-06 1.31402e-06 0)
(-4.27899e-07 -8.2703e-07 0)
(-1.03578e-05 1.03202e-05 0)
(-3.66726e-05 2.59903e-05 0)
(-8.00123e-05 4.04198e-05 0)
(-0.000137837 5.2216e-05 0)
(-0.000207405 6.1153e-05 0)
(-0.000285818 6.75237e-05 0)
(-0.000370524 7.18028e-05 0)
(-0.000459452 7.44895e-05 0)
(-0.000551024 7.60293e-05 0)
(-0.000644099 7.67869e-05 0)
(-0.000737897 7.70389e-05 0)
(-0.000831906 7.69823e-05 0)
(-0.000925809 7.67479e-05 0)
(-0.00101941 7.64166e-05 0)
(-0.00111261 7.60343e-05 0)
(-0.00120534 7.56242e-05 0)
(-0.00129754 7.51957e-05 0)
(-0.0013892 7.4751e-05 0)
(-0.00148029 7.42883e-05 0)
(-0.00157077 7.38047e-05 0)
(-0.00166061 7.32971e-05 0)
(-0.00174978 7.27623e-05 0)
(-0.00183824 7.21978e-05 0)
(-0.00192595 7.16013e-05 0)
(-0.00201287 7.09709e-05 0)
(-0.00209896 7.03048e-05 0)
(-0.00218417 6.96015e-05 0)
(-0.00226845 6.88596e-05 0)
(-0.00235175 6.80776e-05 0)
(-0.00243403 6.72542e-05 0)
(-0.00251522 6.63881e-05 0)
(-0.00259529 6.5478e-05 0)
(-0.00267418 6.45227e-05 0)
(-0.00275182 6.35208e-05 0)
(-0.00282816 6.2471e-05 0)
(-0.00290315 6.13723e-05 0)
(-0.00297672 6.02232e-05 0)
(-0.00304881 5.90226e-05 0)
(-0.00311937 5.77692e-05 0)
(-0.00318832 5.64619e-05 0)
(-0.00325559 5.50995e-05 0)
(-0.00332114 5.36808e-05 0)
(-0.00338488 5.22049e-05 0)
(-0.00344675 5.06706e-05 0)
(-0.00350667 4.9077e-05 0)
(-0.00356459 4.74231e-05 0)
(-0.00362042 4.57082e-05 0)
(-0.00367409 4.39313e-05 0)
(-0.00372554 4.2092e-05 0)
(-0.00377468 4.01895e-05 0)
(-0.00382145 3.82235e-05 0)
(-0.00386576 3.61934e-05 0)
(-0.00390755 3.40992e-05 0)
(-0.00394673 3.19407e-05 0)
(-0.00398324 2.97179e-05 0)
(-0.004017 2.7431e-05 0)
(-0.00404793 2.50804e-05 0)
(-0.00407596 2.26667e-05 0)
(-0.00410102 2.01904e-05 0)
(-0.00412304 1.76526e-05 0)
(-0.00414194 1.50542e-05 0)
(-0.00415766 1.23966e-05 0)
(-0.00417012 9.68126e-06 0)
(-0.00417928 6.90978e-06 0)
(-0.00418505 4.08386e-06 0)
(-0.00418738 1.20612e-06 0)
(-0.00418622 -1.71714e-06 0)
(-0.0041815 -4.68944e-06 0)
(-0.00417318 -7.70649e-06 0)
(-0.0041612 -1.07644e-05 0)
(-0.00414553 -1.38599e-05 0)
(-0.00412612 -1.69892e-05 0)
(-0.00410294 -2.01485e-05 0)
(-0.00407595 -2.3334e-05 0)
(-0.00404514 -2.65412e-05 0)
(-0.00401046 -2.97659e-05 0)
(-0.00397192 -3.30034e-05 0)
(-0.0039295 -3.62489e-05 0)
(-0.0038832 -3.94974e-05 0)
(-0.00383301 -4.27437e-05 0)
(-0.00377894 -4.59827e-05 0)
(-0.00372101 -4.92088e-05 0)
(-0.00365923 -5.24167e-05 0)
(-0.00359364 -5.56006e-05 0)
(-0.00352426 -5.8755e-05 0)
(-0.00345113 -6.18742e-05 0)
(-0.0033743 -6.49524e-05 0)
(-0.00329382 -6.7984e-05 0)
(-0.00320975 -7.09633e-05 0)
(-0.00312216 -7.38847e-05 0)
(-0.00303112 -7.67427e-05 0)
(-0.0029367 -7.95319e-05 0)
(-0.00283899 -8.22472e-05 0)
(-0.00273808 -8.48836e-05 0)
(-0.00263407 -8.74364e-05 0)
(-0.00252706 -8.99011e-05 0)
(-0.00241715 -9.22739e-05 0)
(-0.00230446 -9.45512e-05 0)
(-0.00218911 -9.67296e-05 0)
(-0.00207121 -9.8806e-05 0)
(-0.00195089 -0.000100777 0)
(-0.00182828 -0.000102637 0)
(-0.00170353 -0.000104379 0)
(-0.00157678 -0.000105987 0)
(-0.00144824 -0.000107433 0)
(-0.00131812 -0.000108671 0)
(-0.00118675 -0.000109624 0)
(-0.00105454 -0.00011017 0)
(-0.000922128 -0.000110127 0)
(-0.000790366 -0.000109235 0)
(-0.000660478 -0.000107136 0)
(-0.000534143 -0.000103369 0)
(-0.000413595 -9.73596e-05 0)
(-0.000301712 -8.84495e-05 0)
(-0.000202026 -7.59713e-05 0)
(-0.000118593 -5.94392e-05 0)
(-5.53489e-05 -3.89999e-05 0)
(-1.62448e-05 -1.63688e-05 0)
(-7.93957e-07 4.64947e-07 0)
(-2.49564e-06 6.70428e-06 0)
(-2.6269e-05 3.67225e-05 0)
(-7.28995e-05 7.24563e-05 0)
(-0.000142886 0.000105292 0)
(-0.000232191 0.000132587 0)
(-0.000337559 0.000153741 0)
(-0.00045532 0.000169206 0)
(-0.000582143 0.000179888 0)
(-0.000715239 0.00018682 0)
(-0.000852414 0.000190974 0)
(-0.000992032 0.000193176 0)
(-0.00113293 0.000194071 0)
(-0.00127432 0.000194133 0)
(-0.00141567 0.000193687 0)
(-0.00155668 0.000192942 0)
(-0.00169712 0.000192022 0)
(-0.00183686 0.000190996 0)
(-0.00197583 0.000189896 0)
(-0.00211394 0.000188735 0)
(-0.00225115 0.000187515 0)
(-0.0023874 0.000186231 0)
(-0.00252262 0.000184878 0)
(-0.00265677 0.000183451 0)
(-0.00278979 0.000181944 0)
(-0.0029216 0.000180353 0)
(-0.00305214 0.000178674 0)
(-0.00318135 0.000176902 0)
(-0.00330916 0.000175035 0)
(-0.00343549 0.000173068 0)
(-0.00356026 0.000170999 0)
(-0.00368341 0.000168825 0)
(-0.00380485 0.000166544 0)
(-0.0039245 0.000164151 0)
(-0.00404228 0.000161644 0)
(-0.00415811 0.00015902 0)
(-0.00427191 0.000156277 0)
(-0.00438358 0.000153412 0)
(-0.00449303 0.000150421 0)
(-0.00460019 0.000147303 0)
(-0.00470494 0.000144054 0)
(-0.00480721 0.000140672 0)
(-0.00490689 0.000137154 0)
(-0.00500388 0.000133498 0)
(-0.0050981 0.000129701 0)
(-0.00518943 0.000125761 0)
(-0.00527779 0.000121677 0)
(-0.00536306 0.000117445 0)
(-0.00544514 0.000113065 0)
(-0.00552393 0.000108535 0)
(-0.00559932 0.000103852 0)
(-0.00567121 9.90174e-05 0)
(-0.00573949 9.40285e-05 0)
(-0.00580406 8.88852e-05 0)
(-0.0058648 8.35872e-05 0)
(-0.00592162 7.81344e-05 0)
(-0.0059744 7.25271e-05 0)
(-0.00602304 6.67661e-05 0)
(-0.00606743 6.08525e-05 0)
(-0.00610747 5.47876e-05 0)
(-0.00614307 4.85735e-05 0)
(-0.0061741 4.22124e-05 0)
(-0.00620049 3.57073e-05 0)
(-0.00622213 2.90613e-05 0)
(-0.00623893 2.22784e-05 0)
(-0.00625079 1.53629e-05 0)
(-0.00625763 8.31983e-06 0)
(-0.00625937 1.15457e-06 0)
(-0.00625592 -6.12876e-06 0)
(-0.00624721 -1.35211e-05 0)
(-0.00623317 -2.10163e-05 0)
(-0.00621373 -2.86072e-05 0)
(-0.00618884 -3.62855e-05 0)
(-0.00615843 -4.40424e-05 0)
(-0.00612246 -5.18688e-05 0)
(-0.00608089 -5.9755e-05 0)
(-0.00603369 -6.76908e-05 0)
(-0.00598082 -7.56654e-05 0)
(-0.00592227 -8.36677e-05 0)
(-0.00585802 -9.16861e-05 0)
(-0.00578807 -9.97086e-05 0)
(-0.00571243 -0.000107723 0)
(-0.00563111 -0.000115716 0)
(-0.00554413 -0.000123676 0)
(-0.00545151 -0.000131588 0)
(-0.00535331 -0.000139439 0)
(-0.00524958 -0.000147217 0)
(-0.00514036 -0.000154907 0)
(-0.00502573 -0.000162495 0)
(-0.00490576 -0.000169967 0)
(-0.00478055 -0.000177311 0)
(-0.00465019 -0.000184513 0)
(-0.00451479 -0.000191558 0)
(-0.00437445 -0.000198435 0)
(-0.00422931 -0.000205131 0)
(-0.00407949 -0.000211633 0)
(-0.00392515 -0.000217931 0)
(-0.00376641 -0.000224012 0)
(-0.00360345 -0.000229868 0)
(-0.00343643 -0.000235489 0)
(-0.0032655 -0.000240865 0)
(-0.00309087 -0.000245987 0)
(-0.0029127 -0.000250845 0)
(-0.0027312 -0.000255421 0)
(-0.00254658 -0.00025969 0)
(-0.0023591 -0.000263608 0)
(-0.00216904 -0.000267098 0)
(-0.00197678 -0.000270036 0)
(-0.0017828 -0.000272223 0)
(-0.00158777 -0.000273353 0)
(-0.00139263 -0.000272981 0)
(-0.00119865 -0.000270485 0)
(-0.00100762 -0.000265034 0)
(-0.000821906 -0.00025558 0)
(-0.000644589 -0.000240875 0)
(-0.000479527 -0.000219552 0)
(-0.000331313 -0.00019033 0)
(-0.000205057 -0.000152414 0)
(-0.000105404 -0.000106313 0)
(-3.83803e-05 -5.52832e-05 0)
(-3.6925e-06 -1.09784e-05 0)
(-4.37885e-06 2.1957e-05 0)
(-4.12084e-05 8.05374e-05 0)
(-0.000106849 0.000142716 0)
(-0.000200982 0.000199016 0)
(-0.00031765 0.000246018 0)
(-0.000453135 0.000282866 0)
(-0.00060326 0.000310208 0)
(-0.000764244 0.000329427 0)
(-0.000932883 0.000342161 0)
(-0.00110662 0.000350001 0)
(-0.0012835 0.000354329 0)
(-0.0014621 0.000356252 0)
(-0.00164144 0.000356601 0)
(-0.00182084 0.000355954 0)
(-0.00199986 0.000354694 0)
(-0.0021782 0.000353059 0)
(-0.00235568 0.000351182 0)
(-0.00253216 0.000349134 0)
(-0.00270753 0.000346947 0)
(-0.0028817 0.000344629 0)
(-0.0030546 0.00034218 0)
(-0.00322614 0.000339593 0)
(-0.00339625 0.000336861 0)
(-0.00356483 0.000333976 0)
(-0.00373181 0.000330931 0)
(-0.0038971 0.000327718 0)
(-0.00406061 0.000324333 0)
(-0.00422225 0.000320769 0)
(-0.00438192 0.000317021 0)
(-0.00453953 0.000313084 0)
(-0.00469498 0.000308952 0)
(-0.00484818 0.000304622 0)
(-0.00499901 0.000300087 0)
(-0.00514738 0.000295343 0)
(-0.00529318 0.000290386 0)
(-0.0054363 0.000285211 0)
(-0.00557663 0.000279812 0)
(-0.00571407 0.000274187 0)
(-0.00584849 0.000268329 0)
(-0.00597979 0.000262235 0)
(-0.00610785 0.0002559 0)
(-0.00623254 0.000249321 0)
(-0.00635375 0.000242492 0)
(-0.00647136 0.00023541 0)
(-0.00658524 0.000228072 0)
(-0.00669528 0.000220475 0)
(-0.00680134 0.000212614 0)
(-0.0069033 0.000204487 0)
(-0.00700102 0.000196092 0)
(-0.0070944 0.000187427 0)
(-0.00718328 0.00017849 0)
(-0.00726755 0.000169279 0)
(-0.00734708 0.000159794 0)
(-0.00742174 0.000150035 0)
(-0.0074914 0.000140002 0)
(-0.00755592 0.000129696 0)
(-0.00761519 0.000119118 0)
(-0.00766908 0.000108272 0)
(-0.00771747 9.71584e-05 0)
(-0.00776022 8.57826e-05 0)
(-0.00779723 7.41488e-05 0)
(-0.00782837 6.22621e-05 0)
(-0.00785354 5.01289e-05 0)
(-0.00787261 3.77561e-05 0)
(-0.00788548 2.51516e-05 0)
(-0.00789205 1.23246e-05 0)
(-0.00789221 -7.15226e-07 0)
(-0.00788589 -1.39591e-05 0)
(-0.00787298 -2.73931e-05 0)
(-0.00785341 -4.10049e-05 0)
(-0.00782709 -5.47811e-05 0)
(-0.00779397 -6.87072e-05 0)
(-0.00775398 -8.27679e-05 0)
(-0.00770706 -9.69465e-05 0)
(-0.00765317 -0.000111226 0)
(-0.00759227 -0.000125588 0)
(-0.00752433 -0.000140013 0)
(-0.00744933 -0.000154482 0)
(-0.00736726 -0.000168975 0)
(-0.00727813 -0.000183469 0)
(-0.00718194 -0.000197943 0)
(-0.0070787 -0.000212374 0)
(-0.00696846 -0.00022674 0)
(-0.00685126 -0.000241017 0)
(-0.00672714 -0.000255181 0)
(-0.00659618 -0.000269208 0)
(-0.00645844 -0.000283074 0)
(-0.00631401 -0.000296754 0)
(-0.006163 -0.000310226 0)
(-0.0060055 -0.000323463 0)
(-0.00584165 -0.000336443 0)
(-0.00567158 -0.000349141 0)
(-0.00549542 -0.000361535 0)
(-0.00531333 -0.000373603 0)
(-0.00512548 -0.000385322 0)
(-0.00493203 -0.000396672 0)
(-0.00473318 -0.000407634 0)
(-0.00452912 -0.000418188 0)
(-0.00432004 -0.000428318 0)
(-0.00410617 -0.000438005 0)
(-0.00388771 -0.000447229 0)
(-0.00366492 -0.000455969 0)
(-0.00343804 -0.000464188 0)
(-0.00320735 -0.000471835 0)
(-0.00297317 -0.00047882 0)
(-0.00273588 -0.000484997 0)
(-0.00249596 -0.000490131 0)
(-0.00225403 -0.000493855 0)
(-0.00201094 -0.000495621 0)
(-0.00176785 -0.000494637 0)
(-0.00152633 -0.000489822 0)
(-0.00128853 -0.000479756 0)
(-0.00105724 -0.000462684 0)
(-0.000836035 -0.000436567 0)
(-0.000629314 -0.000399241 0)
(-0.000442263 -0.000348751 0)
(-0.000280644 -0.000283948 0)
(-0.00014969 -0.000205533 0)
(-5.79345e-05 -0.000117662 0)
(-6.1621e-06 -3.28823e-05 0)
(-5.90992e-06 4.39425e-05 0)
(-5.37588e-05 0.000139523 0)
(-0.000135822 0.000233159 0)
(-0.000250765 0.000316197 0)
(-0.00039064 0.000385272 0)
(-0.000551175 0.000439665 0)
(-0.000727749 0.000480372 0)
(-0.00091627 0.000509313 0)
(-0.00111329 0.000528761 0)
(-0.00131604 0.000540954 0)
(-0.00152238 0.000547866 0)
(-0.00173075 0.000551101 0)
(-0.00194001 0.000551875 0)
(-0.0021494 0.000551056 0)
(-0.00235839 0.000549227 0)
(-0.00256662 0.000546753 0)
(-0.00277384 0.000543852 0)
(-0.00297988 0.000540643 0)
(-0.0031846 0.000537183 0)
(-0.00338787 0.000533495 0)
(-0.00358961 0.000529584 0)
(-0.00378969 0.000525444 0)
(-0.00398803 0.000521068 0)
(-0.00418453 0.000516446 0)
(-0.00437906 0.000511568 0)
(-0.00457155 0.000506426 0)
(-0.00476187 0.000501011 0)
(-0.00494992 0.000495316 0)
(-0.00513558 0.000489333 0)
(-0.00531875 0.000483055 0)
(-0.0054993 0.000476474 0)
(-0.00567713 0.000469585 0)
(-0.00585211 0.00046238 0)
(-0.00602412 0.000454852 0)
(-0.00619304 0.000446994 0)
(-0.00635875 0.000438801 0)
(-0.00652111 0.000430266 0)
(-0.00668 0.000421382 0)
(-0.00683529 0.000412142 0)
(-0.00698684 0.000402541 0)
(-0.00713453 0.000392573 0)
(-0.00727822 0.000382232 0)
(-0.00741776 0.000371512 0)
(-0.00755303 0.000360408 0)
(-0.00768388 0.000348916 0)
(-0.00781018 0.000337029 0)
(-0.00793177 0.000324745 0)
(-0.00804852 0.000312059 0)
(-0.00816029 0.000298969 0)
(-0.00826692 0.000285471 0)
(-0.00836828 0.000271564 0)
(-0.00846423 0.000257246 0)
(-0.0085546 0.000242517 0)
(-0.00863927 0.000227376 0)
(-0.00871809 0.000211825 0)
(-0.00879092 0.000195866 0)
(-0.00885761 0.000179501 0)
(-0.00891802 0.000162735 0)
(-0.00897202 0.000145571 0)
(-0.00901948 0.000128017 0)
(-0.00906026 0.000110079 0)
(-0.00909422 9.17656e-05 0)
(-0.00912126 7.30867e-05 0)
(-0.00914123 5.40532e-05 0)
(-0.00915403 3.46772e-05 0)
(-0.00915955 1.49723e-05 0)
(-0.00915767 -5.04659e-06 0)
(-0.0091483 -2.53624e-05 0)
(-0.00913133 -4.5958e-05 0)
(-0.00910669 -6.68141e-05 0)
(-0.00907429 -8.791e-05 0)
(-0.00903406 -0.000109224 0)
(-0.00898592 -0.000130731 0)
(-0.00892984 -0.000152409 0)
(-0.00886575 -0.000174229 0)
(-0.00879363 -0.000196166 0)
(-0.00871343 -0.000218189 0)
(-0.00862516 -0.00024027 0)
(-0.00852879 -0.000262378 0)
(-0.00842433 -0.00028448 0)
(-0.00831181 -0.000306543 0)
(-0.00819124 -0.000328535 0)
(-0.00806267 -0.000350419 0)
(-0.00792614 -0.000372162 0)
(-0.00778173 -0.000393727 0)
(-0.00762951 -0.000415079 0)
(-0.00746956 -0.000436181 0)
(-0.007302 -0.000456997 0)
(-0.00712693 -0.000477491 0)
(-0.00694448 -0.000497625 0)
(-0.00675479 -0.000517366 0)
(-0.00655802 -0.000536677 0)
(-0.00635432 -0.000555523 0)
(-0.00614388 -0.000573871 0)
(-0.00592688 -0.000591689 0)
(-0.00570353 -0.000608945 0)
(-0.00547402 -0.000625608 0)
(-0.0052386 -0.000641651 0)
(-0.00499748 -0.000657045 0)
(-0.00475091 -0.000671762 0)
(-0.00449916 -0.000685768 0)
(-0.00424248 -0.000699025 0)
(-0.00398119 -0.000711475 0)
(-0.00371559 -0.000723029 0)
(-0.00344607 -0.000733543 0)
(-0.00317308 -0.000742786 0)
(-0.00289716 -0.000750392 0)
(-0.00261906 -0.000755801 0)
(-0.00233973 -0.000758186 0)
(-0.00206049 -0.000756377 0)
(-0.00178308 -0.000748786 0)
(-0.00150986 -0.000733366 0)
(-0.00124387 -0.000707614 0)
(-0.000988941 -0.00066867 0)
(-0.000749796 -0.000613538 0)
(-0.000532004 -0.000539525 0)
(-0.000341872 -0.000444938 0)
(-0.000185318 -0.000330181 0)
(-7.33493e-05 -0.000199213 0)
(-8.03547e-06 -6.33144e-05 0)
(-7.07467e-06 7.13267e-05 0)
(-6.36248e-05 0.000211173 0)
(-0.000159067 0.000340855 0)
(-0.000291128 0.000453509 0)
(-0.000450066 0.000546535 0)
(-0.000630998 0.000619776 0)
(-0.00082886 0.000674806 0)
(-0.0010393 0.000714195 0)
(-0.00125869 0.000740907 0)
(-0.00148416 0.000757859 0)
(-0.00171346 0.000767634 0)
(-0.00194494 0.000772352 0)
(-0.0021774 0.000773635 0)
(-0.00241001 0.000772651 0)
(-0.00264219 0.000770195 0)
(-0.00287353 0.000766777 0)
(-0.00310374 0.000762706 0)
(-0.00333263 0.000758155 0)
(-0.00356001 0.000753213 0)
(-0.00378576 0.000747922 0)
(-0.00400974 0.000742293 0)
(-0.00423183 0.000736326 0)
(-0.00445192 0.000730013 0)
(-0.00466989 0.000723343 0)
(-0.00488562 0.000716306 0)
(-0.00509899 0.000708891 0)
(-0.00530987 0.000701088 0)
(-0.00551816 0.000692887 0)
(-0.00572371 0.000684279 0)
(-0.0059264 0.000675254 0)
(-0.00612612 0.000665804 0)
(-0.00632271 0.00065592 0)
(-0.00651606 0.000645592 0)
(-0.00670603 0.000634814 0)
(-0.00689248 0.000623575 0)
(-0.00707527 0.000611868 0)
(-0.00725427 0.000599684 0)
(-0.00742933 0.000587015 0)
(-0.00760032 0.000573852 0)
(-0.00776708 0.000560189 0)
(-0.00792947 0.000546018 0)
(-0.00808734 0.000531331 0)
(-0.00824055 0.00051612 0)
(-0.00838894 0.000500381 0)
(-0.00853236 0.000484106 0)
(-0.00867066 0.000467289 0)
(-0.00880368 0.000449926 0)
(-0.00893128 0.000432012 0)
(-0.00905329 0.000413544 0)
(-0.00916957 0.000394518 0)
(-0.00927995 0.000374932 0)
(-0.00938428 0.000354785 0)
(-0.0094824 0.000334076 0)
(-0.00957417 0.000312807 0)
(-0.00965943 0.00029098 0)
(-0.00973802 0.000268597 0)
(-0.0098098 0.000245663 0)
(-0.00987461 0.000222183 0)
(-0.00993232 0.000198166 0)
(-0.00998278 0.00017362 0)
(-0.0100258 0.000148555 0)
(-0.0100614 0.000122983 0)
(-0.0100892 9.69182e-05 0)
(-0.0101093 7.03753e-05 0)
(-0.0101215 4.33719e-05 0)
(-0.0101256 1.59269e-05 0)
(-0.0101216 -1.19387e-05 0)
(-0.0101094 -4.02021e-05 0)
(-0.0100888 -6.88387e-05 0)
(-0.0100597 -9.78219e-05 0)
(-0.0100222 -0.000127123 0)
(-0.00997603 -0.000156712 0)
(-0.00992122 -0.000186557 0)
(-0.00985769 -0.000216622 0)
(-0.00978539 -0.000246874 0)
(-0.00970429 -0.000277273 0)
(-0.00961437 -0.00030778 0)
(-0.00951561 -0.000338355 0)
(-0.009408 -0.000368956 0)
(-0.00929156 -0.000399538 0)
(-0.00916631 -0.000430057 0)
(-0.00903228 -0.000460466 0)
(-0.00888952 -0.000490719 0)
(-0.00873809 -0.000520768 0)
(-0.00857806 -0.000550564 0)
(-0.00840953 -0.000580058 0)
(-0.00823258 -0.0006092 0)
(-0.00804734 -0.000637941 0)
(-0.00785392 -0.000666232 0)
(-0.00765249 -0.000694023 0)
(-0.00744318 -0.000721265 0)
(-0.00722616 -0.000747911 0)
(-0.00700162 -0.000773913 0)
(-0.00676975 -0.000799225 0)
(-0.00653076 -0.000823802 0)
(-0.00628487 -0.000847601 0)
(-0.0060323 -0.000870581 0)
(-0.0057733 -0.000892701 0)
(-0.00550813 -0.000913921 0)
(-0.00523705 -0.0009342 0)
(-0.00496035 -0.00095349 0)
(-0.00467833 -0.000971732 0)
(-0.00439132 -0.00098884 0)
(-0.00409967 -0.00100468 0)
(-0.0038038 -0.00101906 0)
(-0.0035042 -0.00103164 0)
(-0.0032015 -0.00104191 0)
(-0.00289647 -0.00104911 0)
(-0.00259016 -0.00105212 0)
(-0.00228396 -0.00104936 0)
(-0.00197974 -0.00103873 0)
(-0.00167993 -0.00101752 0)
(-0.00138772 -0.000982469 0)
(-0.0011071 -0.000929852 0)
(-0.000842991 -0.000855784 0)
(-0.000601281 -0.000756697 0)
(-0.00038881 -0.000630078 0)
(-0.000212232 -0.000475508 0)
(-8.46822e-05 -0.000295887 0)
(-9.35336e-06 -0.000100141 0)
(-7.92129e-06 0.000102795 0)
(-7.10166e-05 0.000292748 0)
(-0.000176859 0.000462364 0)
(-0.000322429 0.000607071 0)
(-0.000496509 0.000725537 0)
(-0.000693619 0.000818542 0)
(-0.000908268 0.00088848 0)
(-0.00113585 0.000938709 0)
(-0.00137262 0.000972959 0)
(-0.00161559 0.000994858 0)
(-0.00186249 0.00100762 0)
(-0.00211162 0.0010139 0)
(-0.00236174 0.00101571 0)
(-0.002612 0.00101454 0)
(-0.00286177 0.0010114 0)
(-0.00311063 0.00100695 0)
(-0.00335828 0.00100159 0)
(-0.00360447 0.000995545 0)
(-0.00384902 0.000988953 0)
(-0.00409177 0.000981869 0)
(-0.00433258 0.000974316 0)
(-0.00457131 0.000966297 0)
(-0.00480783 0.000957808 0)
(-0.00504201 0.000948838 0)
(-0.00527372 0.000939375 0)
(-0.00550282 0.000929408 0)
(-0.00572919 0.000918924 0)
(-0.0059527 0.000907913 0)
(-0.00617319 0.000896362 0)
(-0.00639054 0.000884262 0)
(-0.00660461 0.000871602 0)
(-0.00681526 0.00085837 0)
(-0.00702234 0.000844558 0)
(-0.00722572 0.000830153 0)
(-0.00742524 0.000815146 0)
(-0.00762075 0.000799527 0)
(-0.00781212 0.000783286 0)
(-0.00799918 0.000766412 0)
(-0.0081818 0.000748897 0)
(-0.0083598 0.00073073 0)
(-0.00853304 0.000711904 0)
(-0.00870137 0.000692408 0)
(-0.00886461 0.000672235 0)
(-0.00902262 0.000651378 0)
(-0.00917524 0.000629828 0)
(-0.0093223 0.000607579 0)
(-0.00946364 0.000584625 0)
(-0.0095991 0.000560962 0)
(-0.00972852 0.000536584 0)
(-0.00985174 0.00051149 0)
(-0.00996858 0.000485677 0)
(-0.0100789 0.000459143 0)
(-0.0101825 0.00043189 0)
(-0.0102793 0.000403919 0)
(-0.0103691 0.000375233 0)
(-0.0104516 0.000345838 0)
(-0.0105269 0.000315738 0)
(-0.0105947 0.000284943 0)
(-0.0106548 0.000253462 0)
(-0.0107072 0.000221307 0)
(-0.0107516 0.000188493 0)
(-0.010788 0.000155034 0)
(-0.0108161 0.00012095 0)
(-0.010836 8.62603e-05 0)
(-0.0108473 5.09875e-05 0)
(-0.0108501 1.51567e-05 0)
(-0.0108442 -2.12047e-05 0)
(-0.0108295 -5.80673e-05 0)
(-0.0108058 -9.53987e-05 0)
(-0.0107732 -0.000133165 0)
(-0.0107315 -0.000171328 0)
(-0.0106806 -0.000209849 0)
(-0.0106205 -0.000248687 0)
(-0.0105511 -0.000287797 0)
(-0.0104724 -0.000327133 0)
(-0.0103844 -0.000366647 0)
(-0.0102869 -0.000406287 0)
(-0.0101801 -0.000446002 0)
(-0.0100639 -0.000485737 0)
(-0.00993825 -0.000525436 0)
(-0.00980329 -0.00056504 0)
(-0.00965903 -0.000604492 0)
(-0.0095055 -0.00064373 0)
(-0.00934279 -0.000682693 0)
(-0.00917096 -0.000721319 0)
(-0.00899012 -0.000759544 0)
(-0.00880038 -0.000797307 0)
(-0.00860185 -0.000834542 0)
(-0.00839467 -0.000871186 0)
(-0.00817901 -0.000907178 0)
(-0.00795502 -0.000942453 0)
(-0.00772288 -0.00097695 0)
(-0.00748278 -0.00101061 0)
(-0.00723494 -0.00104337 0)
(-0.00697958 -0.00107518 0)
(-0.00671692 -0.00110597 0)
(-0.00644722 -0.0011357 0)
(-0.00617073 -0.00116431 0)
(-0.00588773 -0.00119176 0)
(-0.0055985 -0.00121797 0)
(-0.00530335 -0.00124289 0)
(-0.00500259 -0.00126644 0)
(-0.00469658 -0.0012885 0)
(-0.00438571 -0.0013089 0)
(-0.00407041 -0.00132737 0)
(-0.00375121 -0.00134347 0)
(-0.00342876 -0.00135655 0)
(-0.00310388 -0.00136563 0)
(-0.00277766 -0.00136929 0)
(-0.00245153 -0.00136555 0)
(-0.00212741 -0.00135176 0)
(-0.00180778 -0.00132457 0)
(-0.00149591 -0.00127991 0)
(-0.00119587 -0.00121317 0)
(-0.00091278 -0.00111948 0)
(-0.00065281 -0.000994241 0)
(-0.000423311 -0.000833828 0)
(-0.000231647 -0.000636563 0)
(-9.26114e-05 -0.000403723 0)
(-1.02347e-05 -0.000141463 0)
(-8.5122e-06 0.000137223 0)
(-7.63353e-05 0.000381767 0)
(-0.000189946 0.000594483 0)
(-0.000345789 0.000773278 0)
(-0.000531515 0.000918408 0)
(-0.000741117 0.00103188 0)
(-0.000968709 0.0011171 0)
(-0.00120946 0.00117837 0)
(-0.00145948 0.00122026 0)
(-0.00171573 0.00124716 0)
(-0.00197591 0.00126294 0)
(-0.00223829 0.00127076 0)
(-0.00250164 0.00127309 0)
(-0.00276507 0.00127169 0)
(-0.00302796 0.00126781 0)
(-0.00328987 0.00126223 0)
(-0.00355048 0.00125548 0)
(-0.00380954 0.00124783 0)
(-0.00406685 0.00123946 0)
(-0.00432224 0.00123043 0)
(-0.00457554 0.00122079 0)
(-0.00482662 0.00121055 0)
(-0.00507534 0.00119969 0)
(-0.00532154 0.00118823 0)
(-0.0055651 0.00117613 0)
(-0.00580587 0.00116339 0)
(-0.0060437 0.00115 0)
(-0.00627846 0.00113594 0)
(-0.00651 0.0011212 0)
(-0.00673818 0.00110576 0)
(-0.00696285 0.00108963 0)
(-0.00718387 0.00107277 0)
(-0.00740107 0.00105519 0)
(-0.00761432 0.00103687 0)
(-0.00782346 0.0010178 0)
(-0.00802833 0.000997957 0)
(-0.00822878 0.000977342 0)
(-0.00842465 0.000955941 0)
(-0.00861578 0.000933741 0)
(-0.00880202 0.000910733 0)
(-0.0089832 0.000886905 0)
(-0.00915915 0.000862247 0)
(-0.00932972 0.000836751 0)
(-0.00949474 0.000810407 0)
(-0.00965405 0.000783207 0)
(-0.00980747 0.000755144 0)
(-0.00995484 0.000726212 0)
(-0.010096 0.000696404 0)
(-0.0102308 0.000665717 0)
(-0.010359 0.000634147 0)
(-0.0104805 0.000601693 0)
(-0.0105951 0.000568355 0)
(-0.0107027 0.000534132 0)
(-0.010803 0.000499029 0)
(-0.0108959 0.00046305 0)
(-0.0109813 0.0004262 0)
(-0.011059 0.00038849 0)
(-0.0111289 0.000349929 0)
(-0.0111907 0.00031053 0)
(-0.0112443 0.000270309 0)
(-0.0112896 0.000229284 0)
(-0.0113265 0.000187473 0)
(-0.0113547 0.000144901 0)
(-0.0113742 0.000101593 0)
(-0.0113849 5.75766e-05 0)
(-0.0113865 1.28837e-05 0)
(-0.0113791 -3.24518e-05 0)
(-0.0113624 -7.8393e-05 0)
(-0.0113364 -0.0001249 0)
(-0.011301 -0.00017193 0)
(-0.0112561 -0.000219437 0)
(-0.0112016 -0.000267372 0)
(-0.0111375 -0.000315684 0)
(-0.0110637 -0.000364318 0)
(-0.0109802 -0.000413217 0)
(-0.0108869 -0.000462321 0)
(-0.0107839 -0.000511568 0)
(-0.010671 -0.000560893 0)
(-0.0105483 -0.000610229 0)
(-0.0104159 -0.000659507 0)
(-0.0102737 -0.000708656 0)
(-0.0101218 -0.000757602 0)
(-0.00996024 -0.000806272 0)
(-0.00978914 -0.00085459 0)
(-0.00960855 -0.00090248 0)
(-0.00941858 -0.000949864 0)
(-0.00921934 -0.000996664 0)
(-0.00901097 -0.0010428 0)
(-0.0087936 -0.0010882 0)
(-0.0085674 -0.00113278 0)
(-0.00833255 -0.00117647 0)
(-0.00808923 -0.00121919 0)
(-0.00783765 -0.00126087 0)
(-0.00757801 -0.00130143 0)
(-0.00731057 -0.0013408 0)
(-0.00703555 -0.00137891 0)
(-0.00675322 -0.0014157 0)
(-0.00646384 -0.0014511 0)
(-0.00616771 -0.00148504 0)
(-0.00586513 -0.00151745 0)
(-0.00555641 -0.00154825 0)
(-0.00524188 -0.00157733 0)
(-0.00492192 -0.00160455 0)
(-0.00459693 -0.00162969 0)
(-0.00426737 -0.0016524 0)
(-0.00393378 -0.00167216 0)
(-0.00359682 -0.00168817 0)
(-0.00325735 -0.00169921 0)
(-0.00291647 -0.00170357 0)
(-0.00257562 -0.00169887 0)
(-0.00223674 -0.00168192 0)
(-0.00190236 -0.00164869 0)
(-0.00157577 -0.0015943 0)
(-0.00126115 -0.00151319 0)
(-0.000963759 -0.00139941 0)
(-0.000690066 -0.00124716 0)
(-0.000447879 -0.00105149 0)
(-0.000245173 -0.000809147 0)
(-9.79506e-05 -0.000519468 0)
(-1.07983e-05 -0.000185809 0)
(-8.90951e-06 0.000173716 0)
(-8.00272e-05 0.000476168 0)
(-0.000199244 0.000734463 0)
(-0.00036265 0.000949008 0)
(-0.000557077 0.00112182 0)
(-0.000776086 0.00125631 0)
(-0.00101345 0.0013571 0)
(-0.00126413 0.00142952 0)
(-0.00152411 0.00147907 0)
(-0.00179029 0.00151095 0)
(-0.00206035 0.0015297 0)
(-0.00233256 0.00153903 0)
(-0.00260567 0.00154181 0)
(-0.0028788 0.00154013 0)
(-0.00315134 0.00153543 0)
(-0.00342283 0.00152867 0)
(-0.00369295 0.00152045 0)
(-0.00396144 0.0015111 0)
(-0.00422809 0.00150084 0)
(-0.00449273 0.00148976 0)
(-0.00475519 0.00147791 0)
(-0.00501532 0.00146531 0)
(-0.00527296 0.00145195 0)
(-0.00552797 0.00143783 0)
(-0.00578019 0.00142294 0)
(-0.00602949 0.00140727 0)
(-0.00627572 0.00139079 0)
(-0.00651872 0.0013735 0)
(-0.00675834 0.00135539 0)
(-0.00699444 0.00133643 0)
(-0.00722687 0.00131662 0)
(-0.00745546 0.00129594 0)
(-0.00768007 0.00127438 0)
(-0.00790054 0.00125192 0)
(-0.0081167 0.00122855 0)
(-0.00832841 0.00120426 0)
(-0.0085355 0.00117904 0)
(-0.00873781 0.00115287 0)
(-0.00893518 0.00112574 0)
(-0.00912743 0.00109764 0)
(-0.00931442 0.00106855 0)
(-0.00949596 0.00103847 0)
(-0.00967189 0.00100739 0)
(-0.00984204 0.000975284 0)
(-0.0100062 0.000942158 0)
(-0.0101643 0.000908 0)
(-0.0103161 0.000872803 0)
(-0.0104615 0.000836561 0)
(-0.0106002 0.00079927 0)
(-0.0107321 0.000760926 0)
(-0.010857 0.000721528 0)
(-0.0109747 0.000681077 0)
(-0.0110852 0.000639574 0)
(-0.0111882 0.000597024 0)
(-0.0112835 0.000553433 0)
(-0.011371 0.000508808 0)
(-0.0114505 0.000463162 0)
(-0.0115219 0.000416506 0)
(-0.011585 0.000368858 0)
(-0.0116396 0.000320236 0)
(-0.0116856 0.000270662 0)
(-0.0117228 0.000220159 0)
(-0.0117512 0.000168757 0)
(-0.0117705 0.000116486 0)
(-0.0117807 6.33798e-05 0)
(-0.0117816 9.47673e-06 0)
(-0.011773 -4.51824e-05 0)
(-0.011755 -0.000100553 0)
(-0.0117273 -0.000156587 0)
(-0.01169 -0.000213233 0)
(-0.0116428 -0.000270436 0)
(-0.0115857 -0.000328138 0)
(-0.0115187 -0.000386277 0)
(-0.0114418 -0.000444787 0)