/*--------------------------------*- C++ -*----------------------------------*\
| =========                 |                                                 |
| \\      /  F ield         | OpenFOAM: The Open Source CFD Toolbox           |
|  \\    /   O peration     | Version:  2406                                  |
|   \\  /    A nd           | Website:  www.openfoam.com                      |
|    \\/     M anipulation  |                                                 |
\*---------------------------------------------------------------------------*/
FoamFile
{
    version     2.0;
    format      ascii;
    arch        "LSB;label=32;scalar=64";
    class       volVectorField;
    location    "32.2";
    object      Uold;
}
// * * * * * * * * * * * * * * * * * * * * * * * * * * * * * * * * * * * * * //

dimensions      [0 1 -1 0 0 0 0];

internalField   nonuniform List<vector> 
14400
(
(-1.62211e-05 1.61622e-05 0)
(3.29822e-06 -1.24762e-05 0)
(0.00011216 -4.24446e-05 0)
(0.000294112 -6.84004e-05 0)
(0.000537905 -8.33712e-05 0)
(0.000811525 -9.14601e-05 0)
(0.00110169 -9.19471e-05 0)
(0.00138457 -8.77774e-05 0)
(0.00165117 -7.94063e-05 0)
(0.00188798 -6.89257e-05 0)
(0.00209188 -5.71409e-05 0)
(0.00225847 -4.54979e-05 0)
(0.00238999 -3.46462e-05 0)
(0.00248835 -2.53731e-05 0)
(0.00255895 -1.79217e-05 0)
(0.00260657 -1.24756e-05 0)
(0.00263706 -8.86035e-06 0)
(0.00265497 -6.81621e-06 0)
(0.0026643 -5.88715e-06 0)
(0.00266731 -5.58885e-06 0)
(0.00266494 -5.38412e-06 0)
(0.00265638 -4.78853e-06 0)
(0.00263953 -3.37072e-06 0)
(0.00261096 -8.04289e-07 0)
(0.0025664 3.14529e-06 0)
(0.00250088 8.61772e-06 0)
(0.00240903 1.56909e-05 0)
(0.00228525 2.4403e-05 0)
(0.00212379 3.47837e-05 0)
(0.00191877 4.68697e-05 0)
(0.00166418 6.07142e-05 0)
(0.0013539 7.63821e-05 0)
(0.00098168 9.39403e-05 0)
(0.00054121 0.000113443 0)
(2.62032e-05 0.000134915 0)
(-0.000569458 0.000158344 0)
(-0.00125155 0.000183665 0)
(-0.00202533 0.000210755 0)
(-0.00289528 0.000239427 0)
(-0.00386492 0.000269429 0)
(-0.00493658 0.000300439 0)
(-0.00611114 0.000332068 0)
(-0.00738787 0.000363859 0)
(-0.00876419 0.000395297 0)
(-0.0102356 0.000425813 0)
(-0.0117954 0.000454791 0)
(-0.013435 0.000481585 0)
(-0.0151432 0.00050552 0)
(-0.016907 0.000525915 0)
(-0.018711 0.000542085 0)
(-0.0205381 0.000553358 0)
(-0.0223692 0.000559082 0)
(-0.0241834 0.000558637 0)
(-0.0259585 0.000551442 0)
(-0.0276711 0.000536964 0)
(-0.0292969 0.000514731 0)
(-0.0308108 0.000484342 0)
(-0.0321875 0.000445484 0)
(-0.0334017 0.000397947 0)
(-0.0344287 0.000341648 0)
(-0.0352443 0.000276651 0)
(-0.0358259 0.000203197 0)
(-0.0361526 0.000121729 0)
(-0.0362058 3.29198e-05 0)
(-0.0359698 -6.2305e-05 0)
(-0.0354327 -0.000162748 0)
(-0.0345862 -0.000266927 0)
(-0.0334272 -0.000373078 0)
(-0.0319575 -0.000479169 0)
(-0.0301848 -0.00058293 0)
(-0.0281229 -0.000681903 0)
(-0.0257923 -0.000773514 0)
(-0.0232194 -0.000855161 0)
(-0.0204374 -0.000924319 0)
(-0.0174852 -0.000978664 0)
(-0.0144071 -0.00101619 0)
(-0.0112515 -0.00103536 0)
(-0.00807022 -0.00103515 0)
(-0.00491658 -0.00101525 0)
(-0.00184408 -0.000976019 0)
(0.00109539 -0.000918562 0)
(0.00385333 -0.000844693 0)
(0.00638625 -0.000756864 0)
(0.00865722 -0.000658047 0)
(0.0106371 -0.000551579 0)
(0.0123054 -0.000440991 0)
(0.0136507 -0.000329809 0)
(0.0146711 -0.000221376 0)
(0.0153734 -0.000118686 0)
(0.0157724 -2.42508e-05 0)
(0.0158901 5.99845e-05 0)
(0.015754 0.000132687 0)
(0.0153961 0.000193133 0)
(0.0148504 0.000241168 0)
(0.0141525 0.000277137 0)
(0.0133373 0.000301793 0)
(0.0124383 0.0003162 0)
(0.0114862 0.000321625 0)
(0.0105085 0.000319457 0)
(0.00952905 0.000311104 0)
(0.00856749 0.000297952 0)
(0.00763965 0.000281272 0)
(0.00675729 0.000262241 0)
(0.00592896 0.00024184 0)
(0.00515963 0.000220958 0)
(0.00445214 0.000200251 0)
(0.00380626 0.000180352 0)
(0.00322095 0.000161608 0)
(0.00269238 0.000144466 0)
(0.0022175 0.000128944 0)
(0.0017904 0.000115324 0)
(0.00140838 0.000103092 0)
(0.00106545 9.22922e-05 0)
(0.00076257 8.14404e-05 0)
(0.000496709 7.03204e-05 0)
(0.000276431 5.59285e-05 0)
(0.000104728 3.86861e-05 0)
(-2.85931e-06 1.48551e-05 0)
(-4.23308e-05 -7.61298e-06 0)
(-2.19989e-05 -2.15743e-05 0)
(1.1384e-05 -2.69328e-06 0)
(0.000153301 -0.000156117 0)
(0.000478195 -0.000307454 0)
(0.000944028 -0.00043835 0)
(0.00153537 -0.000522501 0)
(0.00219149 -0.000568942 0)
(0.0028826 -0.000575895 0)
(0.00355994 -0.000553686 0)
(0.00419969 -0.000506932 0)
(0.00477249 -0.000444969 0)
(0.00526728 -0.000373821 0)
(0.00567324 -0.000300737 0)
(0.00599175 -0.000230417 0)
(0.00622545 -0.000167091 0)
(0.00638355 -0.00011284 0)
(0.00647509 -6.87142e-05 0)
(0.00651099 -3.41257e-05 0)
(0.00649992 -7.58269e-06 0)
(0.0064491 1.33796e-05 0)
(0.00636205 3.16429e-05 0)
(0.00623915 5.03505e-05 0)
(0.00607686 7.24962e-05 0)
(0.0058684 0.000100767 0)
(0.00560391 0.000137331 0)
(0.00527127 0.000183822 0)
(0.00485656 0.000241343 0)
(0.00434477 0.00031059 0)
(0.00372011 0.000391971 0)
(0.00296644 0.000485741 0)
(0.00206742 0.000592082 0)
(0.0010067 0.000711138 0)
(-0.000231892 0.000842988 0)
(-0.00166417 0.000987593 0)
(-0.00330525 0.00114471 0)
(-0.00516912 0.0013138 0)
(-0.00726819 0.00149399 0)
(-0.00961272 0.00168397 0)
(-0.0122102 0.00188201 0)
(-0.0150649 0.00208591 0)
(-0.0181771 0.00229302 0)
(-0.0215425 0.00250024 0)
(-0.0251524 0.0027041 0)
(-0.0289924 0.00290079 0)
(-0.0330431 0.00308624 0)
(-0.0372795 0.00325621 0)
(-0.0416714 0.0034064 0)
(-0.0461833 0.00353251 0)
(-0.0507753 0.0036304 0)
(-0.0554033 0.00369613 0)
(-0.0600195 0.00372609 0)
(-0.0645736 0.00371704 0)
(-0.0690131 0.00366619 0)
(-0.0732842 0.00357126 0)
(-0.077333 0.0034305 0)
(-0.0811057 0.00324274 0)
(-0.0845497 0.00300739 0)
(-0.0876141 0.00272452 0)
(-0.0902507 0.00239484 0)
(-0.0924144 0.00201973 0)
(-0.0940638 0.00160131 0)
(-0.095162 0.00114245 0)
(-0.0956769 0.000646815 0)
(-0.0955822 0.000118927 0)
(-0.0948575 -0.000435824 0)
(-0.0934892 -0.00101113 0)
(-0.091471 -0.00159977 0)
(-0.0888043 -0.00219361 0)
(-0.085499 -0.00278365 0)
(-0.0815735 -0.00336014 0)
(-0.0770556 -0.00391267 0)
(-0.0719824 -0.00443045 0)
(-0.0664003 -0.00490247 0)
(-0.0603653 -0.00531786 0)
(-0.0539422 -0.00566627 0)
(-0.0472043 -0.00593824 0)
(-0.0402324 -0.00612562 0)
(-0.0331134 -0.00622202 0)
(-0.0259393 -0.00622319 0)
(-0.018805 -0.00612737 0)
(-0.011806 -0.00593553 0)
(-0.00503707 -0.00565154 0)
(0.00141118 -0.00528215 0)
(0.00745406 -0.00483684 0)
(0.0130153 -0.00432755 0)
(0.0180295 -0.00376822 0)
(0.0224434 -0.00317423 0)
(0.0262182 -0.00256176 0)
(0.02933 -0.00194706 0)
(0.0317704 -0.00134579 0)
(0.0335468 -0.000772347 0)
(0.0346812 -0.00023928 0)
(0.0352095 0.000243135 0)
(0.0351793 0.000667208 0)
(0.0346481 0.00102797 0)
(0.0336802 0.00132315 0)
(0.032345 0.00155303 0)
(0.0307131 0.00172015 0)
(0.0288548 0.00182889 0)
(0.0268369 0.00188509 0)
(0.0247215 0.00189554 0)
(0.0225637 0.00186759 0)
(0.0204115 0.00180864 0)
(0.0183043 0.00172595 0)
(0.0162738 0.0016262 0)
(0.0143433 0.00151555 0)
(0.0125297 0.00139918 0)
(0.0108419 0.00128174 0)
(0.00928509 0.00116666 0)
(0.00785768 0.00105703 0)
(0.00655745 0.000954201 0)
(0.00537633 0.000859521 0)
(0.00431062 0.000771466 0)
(0.00335107 0.000689194 0)
(0.00249996 0.000606901 0)
(0.00175291 0.000521954 0)
(0.00112545 0.000423648 0)
(0.000620741 0.000312856 0)
(0.000265294 0.00017952 0)
(5.57874e-05 5.31408e-05 0)
(-7.71524e-06 -4.22502e-05 0)
(3.89599e-05 -0.000107132 0)
(0.000296682 -0.000478581 0)
(0.000814798 -0.000828912 0)
(0.00151086 -0.00112366 0)
(0.00236812 -0.00131993 0)
(0.00330386 -0.00142633 0)
(0.00427998 -0.0014423 0)
(0.00523167 -0.0013862 0)
(0.00612614 -0.00127089 0)
(0.00692357 -0.00111601 0)
(0.00760711 -0.000937013 0)
(0.00816089 -0.000750125 0)
(0.00858429 -0.0005673 0)
(0.00887895 -0.000398322 0)
(0.00905471 -0.000248694 0)
(0.00912156 -0.000120877 0)
(0.00909162 -1.37569e-05 0)
(0.0089742 7.63064e-05 0)
(0.0087763 0.000155188 0)
(0.00849995 0.000229989 0)
(0.00814265 0.000308421 0)
(0.00769645 0.000397965 0)
(0.0071488 0.000505359 0)
(0.00648281 0.000636145 0)
(0.00567835 0.000794545 0)
(0.00471278 0.000983482 0)
(0.00356191 0.0012048 0)
(0.00220065 0.00145955 0)
(0.000603625 0.00174819 0)
(-0.00125435 0.00207083 0)
(-0.00339778 0.00242723 0)
(-0.00584998 0.00281672 0)
(-0.0086325 0.00323806 0)
(-0.0117643 0.00368925 0)
(-0.0152611 0.00416734 0)
(-0.0191343 0.00466829 0)
(-0.02339 0.00518685 0)
(-0.0280281 0.00571657 0)
(-0.0330419 0.00624981 0)
(-0.0384168 0.00677786 0)
(-0.0441302 0.00729106 0)
(-0.0501512 0.00777906 0)
(-0.0564408 0.00823101 0)
(-0.062952 0.00863592 0)
(-0.0696309 0.00898292 0)
(-0.0764171 0.00926159 0)
(-0.0832453 0.00946223 0)
(-0.0900461 0.00957614 0)
(-0.0967479 0.00959583 0)
(-0.103278 0.00951517 0)
(-0.109563 0.00932951 0)
(-0.115534 0.00903575 0)
(-0.12112 0.0086323 0)
(-0.126257 0.00811909 0)
(-0.130885 0.0074975 0)
(-0.134946 0.0067703 0)
(-0.138392 0.00594156 0)
(-0.141176 0.00501663 0)
(-0.143261 0.00400208 0)
(-0.144611 0.00290566 0)
(-0.145202 0.00173634 0)
(-0.145012 0.000504305 0)
(-0.144027 -0.000778992 0)
(-0.14224 -0.00210082 0)
(-0.139651 -0.00344712 0)
(-0.136266 -0.00480251 0)
(-0.132098 -0.0061503 0)
(-0.127171 -0.00747257 0)
(-0.121513 -0.00875032 0)
(-0.115161 -0.00996369 0)
(-0.108164 -0.0110923 0)
(-0.100574 -0.0121155 0)
(-0.0924565 -0.013013 0)
(-0.0838822 -0.0137657 0)
(-0.0749315 -0.0143558 0)
(-0.0656916 -0.0147677 0)
(-0.0562567 -0.0149892 0)
(-0.0467262 -0.0150115 0)
(-0.0372037 -0.0148302 0)
(-0.027795 -0.0144459 0)
(-0.0186064 -0.0138642 0)
(-0.00974219 -0.0130961 0)
(-0.00130288 -0.0121578 0)
(0.00661754 -0.0110704 0)
(0.0139337 -0.00985941 0)
(0.0205711 -0.00855367 0)
(0.0264678 -0.00718456 0)
(0.0315767 -0.00578477 0)
(0.0358659 -0.00438714 0)
(0.0393206 -0.00302337 0)
(0.0419426 -0.00172288 0)
(0.0437508 -0.000511732 0)
(0.0447801 0.000588284 0)
(0.0450801 0.00156031 0)
(0.0447136 0.00239286 0)
(0.0437539 0.00307994 0)
(0.042282 0.00362094 0)
(0.0403837 0.00402018 0)
(0.0381463 0.0042863 0)
(0.0356558 0.00443135 0)
(0.0329935 0.00446993 0)
(0.0302345 0.00441814 0)
(0.0274446 0.00429275 0)
(0.024681 0.00411021 0)
(0.0219892 0.00388626 0)
(0.019406 0.00363505 0)
(0.0169566 0.00336935 0)
(0.0146594 0.00309949 0)
(0.0125222 0.00283423 0)
(0.0105506 0.00257892 0)
(0.00874048 0.00233738 0)
(0.00709227 0.00210813 0)
(0.00559755 0.00188891 0)
(0.0042619 0.0016692 0)
(0.00307993 0.00144174 0)
(0.00207278 0.00118779 0)
(0.00124006 0.000906486 0)
(0.000620327 0.000584334 0)
(0.000201968 0.000269424 0)
(1.89574e-05 3.04916e-06 0)
(6.25704e-05 -0.000279092 0)
(0.000421854 -0.000936404 0)
(0.00110306 -0.00152318 0)
(0.00198107 -0.00199911 0)
(0.00303716 -0.00231548 0)
(0.00416964 -0.00248074 0)
(0.00533702 -0.00249747 0)
(0.00646333 -0.00239205 0)
(0.00751149 -0.0021868 0)
(0.00843472 -0.00191246 0)
(0.00921281 -0.00159512 0)
(0.00982595 -0.00126099 0)
(0.0102716 -0.000930176 0)
(0.0105492 -0.000618654 0)
(0.0106675 -0.000335712 0)
(0.0106348 -8.52663e-05 0)
(0.0104616 0.000134612 0)
(0.0101549 0.000330285 0)
(0.00971862 0.000511853 0)
(0.00915052 0.000691602 0)
(0.00844297 0.000882841 0)
(0.00758176 0.00109853 0)
(0.00654726 0.00135033 0)
(0.00531473 0.00164787 0)
(0.00385577 0.00199845 0)
(0.00213926 0.00240708 0)
(0.00013262 0.00287677 0)
(-0.00219726 0.00340894 0)
(-0.004883 0.00400374 0)
(-0.00795592 0.00466027 0)
(-0.011445 0.00537661 0)
(-0.0153761 0.0061496 0)
(-0.0197705 0.0069746 0)
(-0.0246437 0.00784517 0)
(-0.0300046 0.00875284 0)
(-0.0358534 0.00968693 0)
(-0.0421812 0.0106346 0)
(-0.0489688 0.0115807 0)
(-0.0561861 0.0125087 0)
(-0.0637918 0.0134001 0)
(-0.071734 0.0142358 0)
(-0.0799508 0.0149963 0)
(-0.0883715 0.0156622 0)
(-0.096918 0.0162153 0)
(-0.105507 0.0166386 0)
(-0.114053 0.0169173 0)
(-0.122467 0.017039 0)
(-0.130663 0.0169941 0)
(-0.138558 0.0167757 0)
(-0.146071 0.01638 0)
(-0.153128 0.0158058 0)
(-0.159662 0.0150546 0)
(-0.165612 0.0141302 0)
(-0.170923 0.0130385 0)
(-0.175549 0.011787 0)
(-0.179449 0.0103851 0)
(-0.18259 0.00884301 0)
(-0.184945 0.00717255 0)
(-0.186492 0.0053864 0)
(-0.187214 0.00349831 0)
(-0.187101 0.00152306 0)
(-0.186146 -0.000523432 0)
(-0.184347 -0.00262407 0)
(-0.181708 -0.00476043 0)
(-0.178236 -0.0069127 0)
(-0.173943 -0.00905954 0)
(-0.168848 -0.0111781 0)
(-0.162973 -0.013244 0)
(-0.156349 -0.0152314 0)
(-0.14901 -0.0171134 0)
(-0.141 -0.0188622 0)
(-0.132368 -0.0204496 0)
(-0.123173 -0.0218475 0)
(-0.113479 -0.023029 0)
(-0.103361 -0.0239689 0)
(-0.0928994 -0.0246448 0)
(-0.082183 -0.025038 0)
(-0.0713068 -0.0251347 0)
(-0.060371 -0.0249265 0)
(-0.0494798 -0.0244117 0)
(-0.0387398 -0.0235954 0)
(-0.0282577 -0.0224901 0)
(-0.0181388 -0.0211158 0)
(-0.0084842 -0.0194994 0)
(0.000610955 -0.0176741 0)
(0.00905969 -0.0156789 0)
(0.0167852 -0.013557 0)
(0.0237224 -0.0113545 0)
(0.0298198 -0.00911898 0)
(0.0350403 -0.00689791 0)
(0.0393626 -0.00473709 0)
(0.0427814 -0.00267909 0)
(0.0453078 -0.000761912 0)
(0.0469694 0.000982277 0)
(0.0478093 0.00252811 0)
(0.0478851 0.00385773 0)
(0.047267 0.00496121 0)
(0.0460357 0.00583648 0)
(0.0442794 0.00648902 0)
(0.0420908 0.00693097 0)
(0.0395633 0.00718013 0)
(0.0367883 0.00725852 0)
(0.0338516 0.00719104 0)
(0.0308316 0.00700382 0)
(0.0277963 0.0067232 0)
(0.0248039 0.00637412 0)
(0.0218997 0.00597983 0)
(0.0191201 0.00556023 0)
(0.0164884 0.00513245 0)
(0.0140231 0.00470835 0)
(0.0117302 0.00429645 0)
(0.00961865 0.00389732 0)
(0.00768486 0.0035087 0)
(0.00594061 0.00311691 0)
(0.00438037 0.0027106 0)
(0.00303184 0.00226439 0)
(0.00188971 0.00177361 0)
(0.00100742 0.00122046 0)
(0.000367008 0.000658099 0)
(4.98382e-05 0.00013185 0)
(7.70691e-05 -0.000510982 0)
(0.000510963 -0.00152319 0)
(0.00131865 -0.00238686 0)
(0.0023362 -0.00306281 0)
(0.00353963 -0.00350486 0)
(0.00480832 -0.00372278 0)
(0.0060976 -0.00372554 0)
(0.00732222 -0.00354839 0)
(0.00844292 -0.00322504 0)
(0.00940818 -0.00279839 0)
(0.0101963 -0.00230651 0)
(0.010785 -0.00178636 0)
(0.0111701 -0.00126691 0)
(0.0113493 -0.000770575 0)
(0.0113288 -0.000310433 0)
(0.0111144 0.000108538 0)
(0.0107128 0.000489712 0)
(0.0101265 0.000843079 0)
(0.00935381 0.001184 0)
(0.00838617 0.00153105 0)
(0.00720856 0.00190419 0)
(0.00579877 0.00232275 0)
(0.00412874 0.002804 0)
(0.00216524 0.00336203 0)
(-0.000128416 0.00400731 0)
(-0.00279109 0.0047467 0)
(-0.00586219 0.0055838 0)
(-0.00938032 0.0065194 0)
(-0.0133818 0.00755193 0)
(-0.0178995 0.00867758 0)
(-0.0229608 0.00989025 0)
(-0.0285865 0.0111812 0)
(-0.034789 0.0125389 0)
(-0.0415703 0.0139483 0)
(-0.0489209 0.0153911 0)
(-0.0568185 0.0168455 0)
(-0.065227 0.0182865 0)
(-0.0740966 0.019687 0)
(-0.0833645 0.0210176 0)
(-0.0929555 0.0222485 0)
(-0.102784 0.02335 0)
(-0.112758 0.0242939 0)
(-0.122779 0.0250543 0)
(-0.132746 0.0256089 0)
(-0.142561 0.025939 0)
(-0.152127 0.0260309 0)
(-0.161355 0.0258751 0)
(-0.170161 0.0254669 0)
(-0.178471 0.024806 0)
(-0.18622 0.0238958 0)
(-0.193352 0.022743 0)
(-0.199818 0.0213573 0)
(-0.205581 0.0197503 0)
(-0.210607 0.0179353 0)
(-0.214871 0.015927 0)
(-0.218354 0.0137407 0)
(-0.221041 0.0113926 0)
(-0.22292 0.00889928 0)
(-0.223984 0.00627798 0)
(-0.224227 0.00354642 0)
(-0.223647 0.000723066 0)
(-0.222243 -0.0021727 0)
(-0.220017 -0.00512035 0)
(-0.216972 -0.00809794 0)
(-0.213115 -0.0110819 0)
(-0.208454 -0.0140469 0)
(-0.203002 -0.0169654 0)
(-0.196774 -0.019808 0)
(-0.189792 -0.0225432 0)
(-0.182082 -0.0251377 0)
(-0.173676 -0.0275567 0)
(-0.164614 -0.0297645 0)
(-0.154943 -0.031725 0)
(-0.144717 -0.0334031 0)
(-0.134001 -0.0347652 0)
(-0.122867 -0.0357806 0)
(-0.111397 -0.0364232 0)
(-0.0996782 -0.0366723 0)
(-0.0878082 -0.0365139 0)
(-0.0758884 -0.0359424 0)
(-0.0640249 -0.0349607 0)
(-0.052326 -0.0335811 0)
(-0.0409002 -0.0318257 0)
(-0.0298537 -0.0297255 0)
(-0.0192882 -0.0273203 0)
(-0.00929903 -0.0246576 0)
(2.70888e-05 -0.0217908 0)
(0.0086136 -0.0187778 0)
(0.0163955 -0.0156796 0)
(0.0233203 -0.0125578 0)
(0.0293493 -0.00947342 0)
(0.0344576 -0.00648463 0)
(0.0386354 -0.00364544 0)
(0.0418876 -0.00100401 0)
(0.0442344 0.0013987 0)
(0.0457113 0.00353015 0)
(0.0463679 0.00536718 0)
(0.0462677 0.00689653 0)
(0.0454857 0.00811508 0)
(0.0441066 0.0090295 0)
(0.0422215 0.00965548 0)
(0.0399252 0.0100163 0)
(0.0373121 0.0101415 0)
(0.0344737 0.0100646 0)
(0.0314942 0.00982117 0)
(0.0284503 0.00944725 0)
(0.0254063 0.00897757 0)
(0.0224179 0.00844342 0)
(0.019526 0.00787247 0)
(0.0167656 0.00728566 0)
(0.0141559 0.00669854 0)
(0.0117188 0.00611624 0)
(0.00945839 0.00553826 0)
(0.00739569 0.00494996 0)
(0.00552733 0.0043363 0)
(0.00389006 0.00366666 0)
(0.00247607 0.00292966 0)
(0.00135721 0.00210159 0)
(0.000513347 0.00122741 0)
(7.56197e-05 0.000344722 0)
(8.77645e-05 -0.000777795 0)
(0.000578475 -0.00219275 0)
(0.00148105 -0.00335644 0)
(0.00259971 -0.00423564 0)
(0.00390298 -0.00479383 0)
(0.00525282 -0.005046 0)
(0.00660108 -0.00501114 0)
(0.00785474 -0.00473508 0)
(0.00897358 -0.00426446 0)
(0.00990308 -0.00365485 0)
(0.0106214 -0.00295672 0)
(0.0111048 -0.00221756 0)
(0.0113483 -0.00147483 0)
(0.0113473 -0.000756657 0)
(0.0111055 -7.90362e-05 0)
(0.0106242 0.000552997 0)
(0.00990504 0.00114532 0)
(0.00894387 0.00171259 0)
(0.0077314 0.00227637 0)
(0.00625037 0.00286231 0)
(0.00447661 0.0034975 0)
(0.00237854 0.00420785 0)
(-8.10264e-05 0.00501606 0)
(-0.00294375 0.00594017 0)
(-0.00625361 0.00699291 0)
(-0.0100552 0.00818171 0)
(-0.0143914 0.00950905 0)
(-0.0193021 0.010973 0)
(-0.0248215 0.0125674 0)
(-0.0309766 0.0142824 0)
(-0.0377846 0.0161036 0)
(-0.0452512 0.0180125 0)
(-0.0533686 0.0199854 0)
(-0.0621136 0.021994 0)
(-0.0714467 0.0240055 0)
(-0.0813121 0.0259828 0)
(-0.0916379 0.0278863 0)
(-0.102338 0.0296745 0)
(-0.113315 0.0313062 0)
(-0.124463 0.0327419 0)
(-0.13567 0.0339453 0)
(-0.146824 0.0348851 0)
(-0.157817 0.0355356 0)
(-0.168545 0.0358779 0)
(-0.178914 0.0358996 0)
(-0.188841 0.0355949 0)
(-0.198252 0.0349643 0)
(-0.207087 0.0340132 0)
(-0.215296 0.0327518 0)
(-0.222839 0.0311936 0)
(-0.229685 0.0293544 0)
(-0.235812 0.0272521 0)
(-0.241203 0.0249054 0)
(-0.245845 0.0223333 0)
(-0.249731 0.0195553 0)
(-0.252855 0.0165903 0)
(-0.255212 0.0134573 0)
(-0.2568 0.010175 0)
(-0.257617 0.00676207 0)
(-0.257659 0.00323731 0)
(-0.256926 -0.000379863 0)
(-0.255414 -0.00406918 0)
(-0.253122 -0.0078091 0)
(-0.250048 -0.0115764 0)
(-0.246193 -0.015346 0)
(-0.241556 -0.01909 0)
(-0.236141 -0.0227784 0)
(-0.229954 -0.0263779 0)
(-0.223004 -0.0298526 0)
(-0.215306 -0.0331639 0)
(-0.206881 -0.0362707 0)
(-0.197755 -0.0391301 0)
(-0.187963 -0.0416981 0)
(-0.177548 -0.0439309 0)
(-0.166562 -0.0457858 0)
(-0.15507 -0.0472229 0)
(-0.143143 -0.048207 0)
(-0.130863 -0.0487089 0)
(-0.118324 -0.0487071 0)
(-0.105625 -0.0481897 0)
(-0.0928719 -0.0471554 0)
(-0.0801765 -0.0456141 0)
(-0.0676517 -0.043588 0)
(-0.0554101 -0.0411106 0)
(-0.0435609 -0.0382266 0)
(-0.0322079 -0.03499 0)
(-0.0214469 -0.0314633 0)
(-0.0113637 -0.0277146 0)
(-0.00203322 -0.0238163 0)
(0.00648174 -0.0198424 0)
(0.014131 -0.0158667 0)
(0.0208772 -0.0119607 0)
(0.0266959 -0.00819227 0)
(0.0315757 -0.00462358 0)
(0.0355185 -0.00130994 0)
(0.0385396 0.00170169 0)
(0.040668 0.00437391 0)
(0.0419462 0.00667994 0)
(0.0424299 0.00860445 0)
(0.0421872 0.0101438 0)
(0.0412963 0.0113061 0)
(0.0398444 0.0121101 0)
(0.0379229 0.0125841 0)
(0.0356263 0.012764 0)
(0.0330463 0.0126911 0)
(0.0302713 0.0124094 0)
(0.0273802 0.0119635 0)
(0.0244454 0.0113958 0)
(0.0215245 0.0107451 0)
(0.0186698 0.0100427 0)
(0.0159156 0.00931315 0)
(0.0132987 0.00856849 0)
(0.0108337 0.00781211 0)
(0.00855348 0.00703096 0)
(0.00645955 0.0062075 0)
(0.0045998 0.00530721 0)
(0.00296709 0.00430921 0)
(0.00165247 0.00318092 0)
(0.000637269 0.00194676 0)
(9.72272e-05 0.000626077 0)
(9.46584e-05 -0.00107619 0)
(0.000625609 -0.00293461 0)
(0.00159519 -0.00441772 0)
(0.00278098 -0.00550157 0)
(0.00414256 -0.00616334 0)
(0.00552576 -0.00642692 0)
(0.00687803 -0.00632497 0)
(0.00809958 -0.00591622 0)
(0.00914964 -0.00526236 0)
(0.00997198 -0.00443266 0)
(0.0105456 -0.00349055 0)
(0.010846 -0.00249387 0)
(0.0108681 -0.00148798 0)
(0.0106048 -0.000505643 0)
(0.0100567 0.000435464 0)
(0.0092198 0.00133172 0)
(0.00808914 0.00219292 0)
(0.00665208 0.00303974 0)
(0.00488992 0.00390103 0)
(0.00277515 0.00481017 0)
(0.000273243 0.00580162 0)
(-0.00265732 0.00690756 0)
(-0.00606247 0.00815523 0)
(-0.00999089 0.00956522 0)
(-0.0144912 0.0111506 0)
(-0.0196097 0.012917 0)
(-0.0253876 0.0148627 0)
(-0.0318587 0.0169794 0)
(-0.039047 0.0192524 0)
(-0.0469634 0.0216607 0)
(-0.0556042 0.0241767 0)
(-0.0649483 0.0267664 0)
(-0.0749561 0.0293893 0)
(-0.0855686 0.0319993 0)
(-0.0967085 0.0345457 0)
(-0.108282 0.0369751 0)
(-0.12018 0.0392334 0)
(-0.132286 0.0412684 0)
(-0.144477 0.0430316 0)
(-0.156631 0.0444809 0)
(-0.168629 0.0455816 0)
(-0.180361 0.0463081 0)
(-0.191729 0.0466434 0)
(-0.202649 0.0465797 0)
(-0.213048 0.0461172 0)
(-0.222871 0.045263 0)
(-0.232072 0.0440298 0)
(-0.24062 0.0424349 0)
(-0.248491 0.0404984 0)
(-0.25567 0.0382422 0)
(-0.262148 0.0356892 0)
(-0.267919 0.0328624 0)
(-0.272981 0.0297842 0)
(-0.277334 0.0264763 0)
(-0.280978 0.0229594 0)
(-0.283913 0.0192535 0)
(-0.286138 0.0153774 0)
(-0.287651 0.0113495 0)
(-0.28845 0.00718786 0)
(-0.288531 0.00291068 0)
(-0.287888 -0.00146327 0)
(-0.286517 -0.00591419 0)
(-0.284409 -0.0104207 0)
(-0.281557 -0.0149595 0)
(-0.277953 -0.0195044 0)
(-0.273591 -0.0240266 0)
(-0.268464 -0.0284936 0)
(-0.262567 -0.0328694 0)
(-0.255901 -0.037114 0)
(-0.248465 -0.041184 0)
(-0.240269 -0.045032 0)
(-0.231325 -0.0486079 0)
(-0.221653 -0.0518596 0)
(-0.211284 -0.0547336 0)
(-0.200258 -0.0571771 0)
(-0.188623 -0.0591395 0)
(-0.176443 -0.0605744 0)
(-0.163792 -0.0614417 0)
(-0.150756 -0.0617101 0)
(-0.137433 -0.0613587 0)
(-0.123929 -0.0603792 0)
(-0.11036 -0.0587771 0)
(-0.0968454 -0.0565725 0)
(-0.0835071 -0.0538 0)
(-0.0704659 -0.0505082 0)
(-0.0578378 -0.0467582 0)
(-0.0457311 -0.0426212 0)
(-0.0342439 -0.0381766 0)
(-0.0234621 -0.0335088 0)
(-0.0134584 -0.0287046 0)
(-0.00429175 -0.0238509 0)
(0.00399233 -0.0190321 0)
(0.0113612 -0.0143284 0)
(0.0177947 -0.00981462 0)
(0.0232839 -0.00555821 0)
(0.0278316 -0.00161862 0)
(0.031452 0.00195407 0)
(0.0341708 0.00512025 0)
(0.0360258 0.00785188 0)
(0.037067 0.0101333 0)
(0.0373556 0.011962 0)
(0.0369644 0.0133479 0)
(0.0359742 0.0143138 0)
(0.0344732 0.0148926 0)
(0.0325515 0.0151266 0)
(0.0303013 0.0150636 0)
(0.0278088 0.0147552 0)
(0.0251578 0.0142528 0)
(0.0224188 0.0136051 0)
(0.0196595 0.0128543 0)
(0.0169284 0.0120343 0)
(0.0142775 0.0111659 0)
(0.0117336 0.0102578 0)
(0.00934255 0.00930081 0)
(0.00711391 0.00827572 0)
(0.00510817 0.00714524 0)
(0.00332252 0.00587696 0)
(0.00186658 0.00442725 0)
(0.000725954 0.00279181 0)
(0.000111981 0.000964242 0)
(0.000100437 -0.00139253 0)
(0.000661092 -0.00371905 0)
(0.0016749 -0.00552822 0)
(0.00289693 -0.00680696 0)
(0.00427684 -0.00754956 0)
(0.00564633 -0.00779288 0)
(0.00694824 -0.00758697 0)
(0.00807745 -0.0070063 0)
(0.00899319 -0.00612962 0)
(0.00963878 -0.00504077 0)
(0.00999461 -0.00381629 0)
(0.0100363 -0.00252365 0)
(0.00975839 -0.00121488 0)
(0.00915133 7.4324e-05 0)
(0.00821152 0.00132649 0)
(0.00692858 0.0025413 0)
(0.00528925 0.00373424 0)
(0.00327099 0.00493334 0)
(0.000844238 0.00617554 0)
(-0.00202973 0.00750215 0)
(-0.00539602 0.00895442 0)
(-0.00930528 0.0105694 0)
(-0.0138102 0.0123768 0)
(-0.0189632 0.014397 0)
(-0.0248126 0.01664 0)
(-0.0314001 0.0191055 0)
(-0.0387574 0.0217832 0)
(-0.046903 0.0246533 0)
(-0.0558397 0.0276869 0)
(-0.0655517 0.0308461 0)
(-0.0760024 0.0340845 0)
(-0.087134 0.037348 0)
(-0.098867 0.0405755 0)
(-0.111102 0.0437018 0)
(-0.123725 0.0466593 0)
(-0.136607 0.0493818 0)
(-0.149615 0.0518071 0)
(-0.162617 0.0538799 0)
(-0.175484 0.0555547 0)
(-0.188098 0.0567965 0)
(-0.200355 0.0575821 0)
(-0.212166 0.0578995 0)
(-0.223461 0.0577473 0)
(-0.234183 0.057133 0)
(-0.244292 0.0560713 0)
(-0.253759 0.0545824 0)
(-0.262568 0.0526903 0)
(-0.270708 0.050421 0)
(-0.278176 0.0478016 0)
(-0.284972 0.044859 0)
(-0.2911 0.0416194 0)
(-0.296562 0.0381075 0)
(-0.301365 0.0343467 0)
(-0.305511 0.0303587 0)
(-0.309004 0.0261636 0)
(-0.311845 0.0217801 0)
(-0.314034 0.0172257 0)
(-0.31557 0.0125175 0)
(-0.31645 0.0076719 0)
(-0.316669 0.00270551 0)
(-0.316221 -0.00236436 0)
(-0.315096 -0.00751926 0)
(-0.313284 -0.012739 0)
(-0.310775 -0.0180009 0)
(-0.307556 -0.0232795 0)
(-0.303613 -0.0285457 0)
(-0.298933 -0.0337665 0)
(-0.293502 -0.0389042 0)
(-0.287308 -0.0439166 0)
(-0.280341 -0.0487564 0)
(-0.272593 -0.0533718 0)
(-0.264064 -0.0577063 0)
(-0.254757 -0.0617 0)
(-0.244684 -0.0652904 0)
(-0.233869 -0.068414 0)
(-0.222344 -0.0710084 0)
(-0.210156 -0.0730143 0)
(-0.197365 -0.0743783 0)
(-0.184048 -0.0750559 0)
(-0.170294 -0.0750137 0)
(-0.156208 -0.0742325 0)
(-0.141906 -0.072709 0)
(-0.127516 -0.0704577 0)
(-0.113169 -0.067511 0)
(-0.0990021 -0.0639189 0)
(-0.0851476 -0.059748 0)
(-0.0717328 -0.0550783 0)
(-0.0588747 -0.0500008 0)
(-0.0466766 -0.0446133 0)
(-0.0352263 -0.0390175 0)
(-0.0245952 -0.033315 0)
(-0.014838 -0.0276044 0)
(-0.00599411 -0.0219792 0)
(0.00191101 -0.0165262 0)
(0.00886412 -0.011324 0)
(0.0148628 -0.00644263 0)
(0.0199141 -0.00194253 0)
(0.0240348 0.00212608 0)
(0.0272508 0.00572409 0)
(0.0295983 0.00882449 0)
(0.0311235 0.0114133 0)
(0.0318839 0.0134902 0)
(0.0319462 0.0150685 0)
(0.0313873 0.0161747 0)
(0.0302895 0.0168469 0)
(0.028741 0.0171324 0)
(0.0268289 0.0170853 0)
(0.0246415 0.0167624 0)
(0.0222576 0.01622 0)
(0.0197556 0.0155094 0)
(0.0171964 0.0146735 0)
(0.0146454 0.0137421 0)
(0.0121417 0.0127304 0)
(0.00974463 0.0116341 0)
(0.00747355 0.0104333 0)
(0.00540199 0.00908887 0)
(0.00353443 0.00755567 0)
(0.00199648 0.00577749 0)
(0.000780153 0.00371662 0)
(0.000120913 0.00133728 0)
(0.000104865 -0.00172661 0)
(0.000685464 -0.00453799 0)
(0.00172285 -0.0066722 0)
(0.00295178 -0.00812933 0)
(0.00431146 -0.00892379 0)
(0.00562143 -0.00910915 0)
(0.00682006 -0.00875652 0)
(0.00779845 -0.007959 0)
(0.00851645 -0.0068145 0)
(0.00891799 -0.00542238 0)
(0.00898533 -0.00387232 0)
(0.00869453 -0.00224046 0)
(0.0080394 -0.000583973 0)
(0.00700741 0.00106054 0)
(0.00558973 0.00267802 0)
(0.00376828 0.00427361 0)
(0.00152021 0.00587023 0)
(-0.00118808 0.00750451 0)
(-0.00439768 0.0092219 0)
(-0.00815831 0.0110711 0)
(-0.0125244 0.0130985 0)
(-0.0175531 0.0153435 0)
(-0.0232998 0.017835 0)
(-0.0298149 0.0205886 0)
(-0.0371392 0.0236065 0)
(-0.0453011 0.0268771 0)
(-0.0543126 0.0303754 0)
(-0.0641662 0.034064 0)
(-0.0748325 0.0378938 0)
(-0.0862584 0.0418047 0)
(-0.0983667 0.0457273 0)
(-0.111057 0.0495854 0)
(-0.124211 0.053298 0)
(-0.137694 0.0567843 0)
(-0.151362 0.0599663 0)
(-0.165072 0.0627738 0)
(-0.178684 0.0651469 0)
(-0.192071 0.0670388 0)
(-0.205119 0.0684167 0)
(-0.217734 0.0692617 0)
(-0.22984 0.0695684 0)
(-0.241379 0.0693426 0)
(-0.252311 0.0685993 0)
(-0.262609 0.0673607 0)
(-0.272258 0.0656537 0)
(-0.281252 0.0635081 0)
(-0.289591 0.0609549 0)
(-0.297278 0.0580253 0)
(-0.304322 0.0547494 0)
(-0.31073 0.0511559 0)
(-0.316511 0.0472715 0)
(-0.321673 0.043121 0)
(-0.326223 0.038727 0)
(-0.330168 0.0341101 0)
(-0.333514 0.0292889 0)
(-0.336264 0.0242809 0)
(-0.338421 0.0191018 0)
(-0.339986 0.0137668 0)
(-0.340956 0.00829056 0)
(-0.341329 0.0026878 0)
(-0.341098 -0.00302619 0)
(-0.340257 -0.00883495 0)
(-0.338793 -0.0147202 0)
(-0.336695 -0.0206612 0)
(-0.333947 -0.026634 0)
(-0.33053 -0.032611 0)
(-0.326426 -0.0385598 0)
(-0.321613 -0.0444431 0)
(-0.316068 -0.0502179 0)
(-0.309769 -0.0558353 0)
(-0.302695 -0.0612402 0)
(-0.294827 -0.0663716 0)
(-0.286151 -0.0711632 0)
(-0.276658 -0.0755442 0)
(-0.26635 -0.0794406 0)
(-0.255236 -0.0827777 0)
(-0.243343 -0.0854821 0)
(-0.23071 -0.0874847 0)
(-0.217394 -0.0887245 0)
(-0.203471 -0.0891515 0)
(-0.189036 -0.0887305 0)
(-0.174201 -0.0874445 0)
(-0.159095 -0.0852964 0)
(-0.143861 -0.0823115 0)
(-0.128649 -0.0785372 0)
(-0.113613 -0.0740421 0)
(-0.0989047 -0.0689137 0)
(-0.0846679 -0.0632546 0)
(-0.071033 -0.0571783 0)
(-0.0581128 -0.0508041 0)
(-0.046 -0.0442522 0)
(-0.0347662 -0.0376398 0)
(-0.0244624 -0.0310772 0)
(-0.0151207 -0.0246659 0)
(-0.0067576 -0.0184972 0)
(0.000623524 -0.0126514 0)
(0.00702959 -0.007198 0)
(0.012476 -0.00219551 0)
(0.0169854 0.00230862 0)
(0.0205877 0.00627856 0)
(0.0233205 0.00969088 0)
(0.0252299 0.0125354 0)
(0.0263707 0.0148158 0)
(0.0268073 0.0165499 0)
(0.0266115 0.0177689 0)
(0.0258635 0.0185158 0)
(0.0246454 0.0188432 0)
(0.0230447 0.0188094 0)
(0.0211428 0.0184748 0)
(0.0190244 0.0178974 0)
(0.0167587 0.0171272 0)
(0.014422 0.0162023 0)
(0.0120643 0.0151439 0)
(0.0097576 0.0139534 0)
(0.00753197 0.0126106 0)
(0.00547334 0.0110749 0)
(0.00359563 0.00928861 0)
(0.00203692 0.00718257 0)
(0.000796833 0.00468486 0)
(0.000123193 0.0017295 0)
(0.000108777 -0.00207083 0)
(0.000701125 -0.00537129 0)
(0.00174216 -0.0078178 0)
(0.00294833 -0.00942574 0)
(0.004248 -0.0102333 0)
(0.00545093 -0.0103148 0)
(0.0064918 -0.00976617 0)
(0.00725992 -0.00870204 0)
(0.00771654 -0.00724133 0)
(0.00780739 -0.00549946 0)
(0.00751673 -0.00357875 0)
(0.00682112 -0.00156254 0)
(0.00571298 0.000488979 0)
(0.00417582 0.0025408 0)
(0.00219425 0.00458275 0)
(-0.000258743 0.00662767 0)
(-0.00321669 0.00870749 0)
(-0.00672473 0.0108681 0)
(-0.010835 0.0131629 0)
(-0.0156066 0.0156463 0)
(-0.0211001 0.0183668 0)
(-0.0273744 0.0213621 0)
(-0.0344809 0.0246547 0)
(-0.0424601 0.0282502 0)
(-0.0513362 0.0321362 0)
(-0.0611137 0.0362833 0)
(-0.0717742 0.0406452 0)
(-0.083274 0.0451609 0)
(-0.0955427 0.049756 0)
(-0.108484 0.0543456 0)
(-0.121979 0.058837 0)
(-0.135889 0.0631345 0)
(-0.150064 0.0671439 0)
(-0.164349 0.0707776 0)
(-0.178592 0.0739585 0)
(-0.192654 0.0766242 0)
(-0.206408 0.0787286 0)
(-0.21975 0.0802424 0)
(-0.232595 0.0811527 0)
(-0.244879 0.0814608 0)
(-0.256558 0.0811799 0)
(-0.267604 0.0803323 0)
(-0.278 0.0789468 0)
(-0.28774 0.0770562 0)
(-0.296826 0.0746952 0)
(-0.305263 0.0718993 0)
(-0.313062 0.0687029 0)
(-0.320234 0.0651395 0)
(-0.326791 0.0612401 0)
(-0.332744 0.0570337 0)
(-0.338108 0.0525469 0)
(-0.342894 0.0478038 0)
(-0.347114 0.0428262 0)
(-0.350778 0.0376337 0)
(-0.353897 0.0322437 0)
(-0.356478 0.0266721 0)