/*--------------------------------*- C++ -*----------------------------------*\
| =========                 |                                                 |
| \\      /  F ield         | OpenFOAM: The Open Source CFD Toolbox           |
|  \\    /   O peration     | Version:  2406                                  |
|   \\  /    A nd           | Website:  www.openfoam.com                      |
|    \\/     M anipulation  |                                                 |
\*---------------------------------------------------------------------------*/
FoamFile
{
    version     2.0;
    format      ascii;
    arch        "LSB;label=32;scalar=64";
    class       volScalarField;
    location    "23.4";
    object      p;
}
// * * * * * * * * * * * * * * * * * * * * * * * * * * * * * * * * * * * * * //

dimensions      [0 2 -2 0 0 0 0];

internalField   nonuniform List<scalar> 
900
(
-1.55423e-09
-2.81456e-05
-0.000108554
-0.000237477
-0.000396658
-0.000585429
-0.00081732
-0.0011092
-0.00147531
-0.00188411
-0.00223003
-0.00240762
-0.00236702
-0.00207567
-0.00146598
-0.000446151
0.000999045
0.00271296
0.00430505
0.00523333
0.0050186
0.00356712
0.00135193
-0.000824802
-0.00235134
-0.00313774
-0.0034687
-0.00358746
-0.00360288
-0.00358686
2.36432e-05
-1.02398e-05
-9.23319e-05
-0.000216064
-0.000360635
-0.000527953
-0.000734873
-0.000991863
-0.00130589
-0.0017331
-0.00228264
-0.00280863
-0.00311984
-0.00309845
-0.00265368
-0.00170846
-0.000260776
0.00149343
0.0031665
0.00421719
0.00413576
0.00276055
0.000504213
-0.00174616
-0.00318823
-0.00371934
-0.00376088
-0.00367955
-0.00360306
-0.00356743
0.00010087
4.90687e-05
-4.79637e-05
-0.000173833
-0.000305412
-0.000454885
-0.00066739
-0.00102531
-0.00160643
-0.00242467
-0.00341658
-0.00442282
-0.00523911
-0.00567762
-0.00558139
-0.00487495
-0.00364224
-0.0019976
-0.000241997
0.00113531
0.001605
0.000879116
-0.000811178
-0.00270208
-0.00394847
-0.00430731
-0.00415394
-0.00391648
-0.00375407
-0.00369443
0.000252515
0.000178463
5.65924e-05
-8.29588e-05
-0.000239741
-0.000479573
-0.000932792
-0.00174512
-0.00298491
-0.00456715
-0.00628992
-0.00792269
-0.00925911
-0.0101364
-0.0104384
-0.0101117
-0.00917896
-0.00772759
-0.00595496
-0.00420182
-0.00289598
-0.00239747
-0.00276115
-0.00361036
-0.0043252
-0.00456701
-0.00443343
-0.00419655
-0.00402134
-0.00395151
0.000475259
0.000383828
0.000227796
3.40481e-05
-0.000267495
-0.000842109
-0.00189563
-0.00353671
-0.00568715
-0.00811132
-0.0105186
-0.0126576
-0.0143522
-0.0155091
-0.0161131
-0.0161649
-0.0155948
-0.0144707
-0.0129013
-0.0110388
-0.00911028
-0.00739068
-0.00609006
-0.00525297
-0.00478514
-0.0045395
-0.00442995
-0.0043307
-0.00425282
-0.00422752
0.000737842
0.000635907
0.000419843
7.31109e-05
-0.000588221
-0.00181687
-0.00378041
-0.00640712
-0.00940965
-0.0124345
-0.0151924
-0.0175036
-0.019284
-0.0205175
-0.0212286
-0.0214423
-0.0211674
-0.020421
-0.019228
-0.0176195
-0.0156466
-0.0133729
-0.010881
-0.0083686
-0.00621771
-0.00483557
-0.00432165
-0.0044184
-0.00444775
-0.00450003
0.000947516
0.000828869
0.000494374
-0.000157976
-0.00142439
-0.00354267
-0.0064943
-0.00995663
-0.0134908
-0.016741
-0.0195121
-0.0217428
-0.0234463
-0.0246573
-0.0254024
-0.0257031
-0.0255987
-0.0251049
-0.0242281
-0.022961
-0.0212677
-0.0190688
-0.0162625
-0.0128462
-0.00920249
-0.00620826
-0.00466564
-0.00452101
-0.00474477
-0.00480984
0.000947728
0.00078733
0.000251479
-0.000859966
-0.00288828
-0.00592439
-0.00968571
-0.0136486
-0.0173526
-0.0205456
-0.0231717
-0.0252773
-0.0269277
-0.0281635
-0.0289932
-0.0294134
-0.0294335
-0.02907
-0.028339
-0.0272441
-0.0257599
-0.0238037
-0.0212017
-0.0177345
-0.0134416
-0.00906263
-0.00589878
-0.00464673
-0.00534156
-0.00522253
0.000564308
0.000328361
-0.000480899
-0.002134
-0.00492134
-0.00870789
-0.0129684
-0.0170987
-0.0207281
-0.023757
-0.026253
-0.0283191
-0.0300221
-0.0313757
-0.0323548
-0.0329244
-0.033063
-0.0327728
-0.032074
-0.0309921
-0.0295437
-0.0277017
-0.025335
-0.0221823
-0.0179997
-0.0130226
-0.00843753
-0.00586913
-0.00573583
-0.00587377
-0.000312126
-0.00065094
-0.00175965
-0.00393107
-0.00733405
-0.0116047
-0.0160619
-0.0201339
-0.0235923
-0.0264779
-0.0289346
-0.0310756
-0.0329392
-0.0344963
-0.0356801
-0.0364208
-0.0366727
-0.0364225
-0.0356892
-0.0345182
-0.0329692
-0.0310785
-0.0287858
-0.0258944
-0.0221388
-0.0173747
-0.0121092
-0.00757612
-0.00537398
-0.00707706
-0.00167236
-0.00212373
-0.00350106
-0.00607888
-0.00988733
-0.0143811
-0.0188204
-0.0227285
-0.0260201
-0.0288363
-0.0313525
-0.0336636
-0.0357664
-0.0375845
-0.0390093
-0.0399389
-0.0403014
-0.0400704
-0.0392659
-0.0379501
-0.0362164
-0.0341503
-0.0317618
-0.0289615
-0.0256261
-0.0214112
-0.0159314
-0.00975543
-0.00692683
-0.00848928
-0.00338641
-0.00394443
-0.00551832
-0.00835284
-0.0123614
-0.0168817
-0.0211862
-0.0249092
-0.0280818
-0.0309036
-0.0335517
-0.0360892
-0.0384679
-0.0405671
-0.0422418
-0.0433607
-0.0438298
-0.0436092
-0.0427197
-0.041241
-0.0392916
-0.0369867
-0.0344034
-0.0315499
-0.0284583
-0.02468
-0.0193985
-0.012812
-0.00971694
-0.00874281
-0.00525208
-0.00590428
-0.00758709
-0.0105369
-0.0145866
-0.0190152
-0.0231449
-0.026707
-0.0298132
-0.0326909
-0.0355041
-0.0382816
-0.0409354
-0.0433088
-0.0452272
-0.0465317
-0.0471044
-0.0468904
-0.0459101
-0.0442597
-0.0420866
-0.0395289
-0.0367317
-0.0337478
-0.0307028
-0.0271533
-0.0223578
-0.0160499
-0.0116112
-0.00745327
-0.0070646
-0.00778852
-0.00950172
-0.0124611
-0.0164488
-0.0207312
-0.0246907
-0.0281288
-0.0312055
-0.0341568
-0.0371296
-0.0401251
-0.0430247
-0.0456449
-0.0477865
-0.0492644
-0.049935
-0.0497277
-0.0486618
-0.0468436
-0.0444572
-0.0416603
-0.0386657
-0.0355246
-0.0324212
-0.0289958
-0.0248044
-0.0190194
-0.013187
-0.00678283
-0.00866604
-0.00942261
-0.0111139
-0.0140129
-0.0178756
-0.0219965
-0.0258124
-0.0291617
-0.0322267
-0.03524
-0.0383361
-0.0414988
-0.0445896
-0.0474059
-0.0497287
-0.0513506
-0.0521044
-0.0519037
-0.0507679
-0.0488042
-0.0462385
-0.0432398
-0.0400849
-0.0368092
-0.0336425
-0.0302963
-0.0266757
-0.0215114
-0.0153755
-0.00819961
-0.00996267
-0.0107029
-0.0123406
-0.0151299
-0.0188264
-0.0227883
-0.0264905
-0.029778
-0.0328311
-0.0358725
-0.0390331
-0.0422908
-0.0454977
-0.0484396
-0.0508828
-0.0526033
-0.0534181
-0.0532186
-0.0520396
-0.0499618
-0.0472793
-0.0441201
-0.0408727
-0.0375104
-0.034338
-0.0310746
-0.0279364
-0.023436
-0.0179819
-0.0111186
-0.0109224
-0.0116091
-0.013144
-0.0157811
-0.0192863
-0.0230922
-0.0267025
-0.0299527
-0.0329827
-0.0360088
-0.0391646
-0.0424331
-0.0456683
-0.0486517
-0.0511406
-0.0528987
-0.0537417
-0.0535304
-0.0523456
-0.0501847
-0.0474728
-0.0441868
-0.0409727
-0.0375068
-0.034457
-0.031254
-0.0285374
-0.0246836
-0.0204133
-0.0143056
-0.0115656
-0.0121561
-0.0135272
-0.015967
-0.0192629
-0.0229134
-0.0264418
-0.0296565
-0.0326504
-0.0356216
-0.0387073
-0.0419043
-0.0450787
-0.0480158
-0.0504733
-0.0522063
-0.0530359
-0.0528208
-0.051623
-0.0494626
-0.046751
-0.0434281
-0.0403433
-0.0367285
-0.0339884
-0.0307201
-0.0284777
-0.0251361
-0.0221455
-0.0168533
-0.0119348
-0.0123818
-0.0135362
-0.0157288
-0.0187782
-0.022251
-0.0256941
-0.0288758
-0.0318306
-0.0347237
-0.0376911
-0.0407488
-0.0437857
-0.0465981
-0.0489559
-0.0506088
-0.0513941
-0.0511596
-0.0499677
-0.0478506
-0.0451661
-0.0419254
-0.0388947
-0.0353067
-0.0328496
-0.0294037
-0.0277619
-0.0246853
-0.0229458
-0.0184079
-0.0120693
-0.0123375
-0.0132407
-0.0151325
-0.0178719
-0.0211145
-0.0244475
-0.0275966
-0.0305225
-0.033339
-0.036171
-0.0390516
-0.041901
-0.0445324
-0.0467404
-0.0482729
-0.0489881
-0.0487274
-0.0475574
-0.0455007
-0.0428859
-0.0397638
-0.0367678
-0.0333136
-0.0309692
-0.027448
-0.0263661
-0.023214
-0.0226603
-0.0187517
-0.0120036
-0.0120906
-0.0127294
-0.0142579
-0.0166005
-0.0195272
-0.0226991
-0.0258088
-0.0287314
-0.0315062
-0.0342288
-0.0369371
-0.0395877
-0.0420141
-0.0440471
-0.0454399
-0.0460719
-0.0457827
-0.0446407
-0.0426506
-0.0401277
-0.0371082
-0.0341571
-0.0308093
-0.0284673
-0.0249586
-0.0242383
-0.0207686
-0.0212304
-0.0173864
-0.0117794
-0.0117205
-0.0120971
-0.0131949
-0.015035
-0.0175359
-0.0204608
-0.0234989
-0.0264417
-0.029233
-0.0319159
-0.0345084
-0.0369982
-0.0392396
-0.0411048
-0.0423615
-0.0429119
-0.0425966
-0.0414872
-0.0395621
-0.0371256
-0.0341716
-0.0312484
-0.0279189
-0.0255228
-0.0219932
-0.021452
-0.0175968
-0.018812
-0.0141014
-0.0114512
-0.011319
-0.0114363
-0.0120298
-0.0132536
-0.0151985
-0.0177639
-0.0206684
-0.0236422
-0.0265196
-0.0292644
-0.0318442
-0.0342612
-0.0363848
-0.0381274
-0.0392785
-0.0397664
-0.0394332
-0.0383557
-0.036481
-0.0341019
-0.0311605
-0.0282072
-0.0247887
-0.022277
-0.0186147
-0.0182133
-0.0139174
-0.0159257
-0.0101744
-0.0110748
-0.0109239
-0.0107921
-0.0108246
-0.0113272
-0.0125968
-0.0146736
-0.0173488
-0.0203315
-0.0233437
-0.0262519
-0.0289456
-0.0314137
-0.0335267
-0.0352299
-0.0363338
-0.0367963
-0.0364588
-0.0354129
-0.0335682
-0.0312106
-0.0282286
-0.0251791
-0.0215832
-0.0188738
-0.0149265
-0.0146601
-0.00973084
-0.0130341
-0.00741008
-0.0106974
-0.010534
-0.0101708
-0.00958121
-0.00931005
-0.00982383
-0.0113054
-0.0136519
-0.0165917
-0.0197466
-0.02289
-0.0258116
-0.0284595
-0.0306823
-0.0324494
-0.0335828
-0.034076
-0.0337642
-0.0327502
-0.0309205
-0.0285595
-0.0255025
-0.0223177
-0.0184933
-0.0155078
-0.0111333
-0.0108264
-0.00477635
-0.00971295
-0.00298364
-0.0103177
-0.0100661
-0.00951349
-0.00824256
-0.00724789
-0.00698589
-0.00782691
-0.00979365
-0.0126243
-0.0158814
-0.0192736
-0.0224821
-0.0254001
-0.027831
-0.0297581
-0.030997
-0.0315789
-0.0313287
-0.0303807
-0.0285785
-0.0262268
-0.0230998
-0.0198025
-0.0157534
-0.0124675
-0.00761991
-0.00679523
0.000951588
-0.004219
0.0109647
-0.010148
-0.00953373
-0.00875765
-0.00673153
-0.00522721
-0.00419107
-0.00450912
-0.00610282
-0.00878383
-0.0120837
-0.0156954
-0.0191787
-0.0224016
-0.0250857
-0.0272428
-0.0286406
-0.0293718
-0.0292171
-0.0283841
-0.0266367
-0.0243501
-0.0211966
-0.0178562
-0.0136192
-0.0100161
-0.00468485
-0.00272858
0.00673522
0.00525566
0.032737
-0.0104332
-0.00897601
-0.00789993
-0.00515824
-0.00328636
-0.00162045
-0.00166686
-0.00293712
-0.00550646
-0.00880897
-0.0125943
-0.0162816
-0.0197875
-0.0227039
-0.0251136
-0.0266853
-0.0276143
-0.0275796
-0.0268979
-0.0252298
-0.0230649
-0.0199322
-0.0166201
-0.0122104
-0.00826577
-0.00217564
0.00174273
0.0132762
0.0196835
0.0480342
-0.0155538
-0.00858498
-0.00716837
-0.00382087
-0.00170637
0.000345056
0.000371588
-0.000650811
-0.00320885
-0.00647327
-0.0103796
-0.0141606
-0.0178834
-0.0209415
-0.0235822
-0.0252714
-0.0264277
-0.02648
-0.0260524
-0.0244255
-0.0225357
-0.0193171
-0.0162382
-0.0114851
-0.00732943
0.000145716
0.00794135
0.0265982
0.0509098
0.0896585
-0.0206604
-0.00888563
-0.00662248
-0.00318781
-0.00025945
0.00156736
0.00160797
0.000454872
-0.00214481
-0.00542965
-0.00939003
-0.0131964
-0.0169977
-0.0200887
-0.0228263
-0.0245491
-0.0258016
-0.0258855
-0.0255282
-0.0239354
-0.0220422
-0.0188826
-0.0156064
-0.0109617
-0.00609563
0.00192796
0.0163095
0.0512283
0.122842
0.236457
)
;

boundaryField
{
    movingWall
    {
        type            zeroGradient;
    }
    fixedWalls
    {
        type            zeroGradient;
    }
    frontAndBack
    {
        type            empty;
    }
}


// ************************************************************************* //
