/*--------------------------------*- C++ -*----------------------------------*\
| =========                 |                                                 |
| \\      /  F ield         | OpenFOAM: The Open Source CFD Toolbox           |
|  \\    /   O peration     | Version:  2406                                  |
|   \\  /    A nd           | Website:  www.openfoam.com                      |
|    \\/     M anipulation  |                                                 |
\*---------------------------------------------------------------------------*/
FoamFile
{
    version     2.0;
    format      ascii;
    arch        "LSB;label=32;scalar=64";
    class       surfaceScalarField;
    location    "36.1";
    object      phi;
}
// * * * * * * * * * * * * * * * * * * * * * * * * * * * * * * * * * * * * * //

dimensions      [0 3 -1 0 0 0 0];

oriented        oriented;

internalField   nonuniform List<scalar> 
7080
(
2.93116e-07
-2.92673e-07
1.46175e-06
-1.1784e-06
3.07601e-06
-1.61224e-06
4.71891e-06
-1.65214e-06
6.09207e-06
-1.37203e-06
7.05992e-06
-9.73956e-07
7.64508e-06
-5.83403e-07
7.92737e-06
-2.85032e-07
8.01938e-06
-8.93494e-08
7.97421e-06
4.52326e-08
7.79922e-06
1.78818e-07
7.42569e-06
3.76431e-07
6.75463e-06
6.77105e-07
5.65213e-06
1.10915e-06
3.98042e-06
1.6815e-06
1.58858e-06
2.40353e-06
-1.66816e-06
3.2717e-06
-5.9301e-06
4.27946e-06
-1.13156e-05
5.40636e-06
-1.79146e-05
6.62347e-06
-2.57596e-05
7.87401e-06
-3.47977e-05
9.07167e-06
-4.48585e-05
1.00977e-05
-5.56391e-05
1.08187e-05
-6.66993e-05
1.10968e-05
-7.74805e-05
1.08138e-05
-8.73422e-05
9.88796e-06
-9.56158e-05
8.2924e-06
-0.00010166
6.05415e-06
-0.000104911
3.25277e-06
-0.000104927
7.65749e-09
-0.000101417
-3.52556e-06
-9.42769e-05
-7.16476e-06
-8.36067e-05
-1.07017e-05
-6.97322e-05
-1.3912e-05
-5.32145e-05
-1.65602e-05
-3.48397e-05
-1.84206e-05
-1.5593e-05
-1.92947e-05
3.40527e-06
-1.90461e-05
2.09855e-05
-1.7627e-05
3.60524e-05
-1.51092e-05
4.771e-05
-1.16951e-05
5.53909e-05
-7.70954e-06
5.89348e-05
-3.56481e-06
5.86205e-05
3.0493e-07
5.51044e-05
3.5147e-06
4.9304e-05
5.80998e-06
4.2215e-05
7.10268e-06
3.4753e-05
7.48288e-06
2.76136e-05
7.15816e-06
2.12424e-05
6.39373e-06
1.58343e-05
5.42371e-06
1.14187e-05
4.43467e-06
7.90298e-06
3.52526e-06
5.15275e-06
2.7652e-06
3.02382e-06
2.13283e-06
1.41383e-06
1.62177e-06
3.39571e-07
1.07395e-06
-1.51705e-07
5.00087e-07
-1.51657e-07
1.12377e-06
-1.4071e-06
3.70441e-06
-3.76015e-06
6.9491e-06
-4.84225e-06
1.01129e-05
-4.81422e-06
1.26942e-05
-3.94212e-06
1.44068e-05
-2.68588e-06
1.52268e-05
-1.39769e-06
1.52164e-05
-2.76831e-07
1.44887e-05
6.38887e-07
1.3052e-05
1.47697e-06
1.08212e-05
2.40532e-06
7.57223e-06
3.61658e-06
3.01201e-06
5.2271e-06
-3.21459e-06
7.32061e-06
-1.14631e-05
9.91139e-06
-2.20766e-05
1.29926e-05
-3.53317e-05
1.64977e-05
-5.13995e-05
2.03128e-05
-7.02536e-05
2.42212e-05
-9.1596e-05
2.79204e-05
-0.000114814
3.10392e-05
-0.000139023
3.32191e-05
-0.000163155
3.41605e-05
-0.000186083
3.36763e-05
-0.000206742
3.16872e-05
-0.000224208
2.82189e-05
-0.000237739
2.33694e-05
-0.00024678
1.72985e-05
-0.000250947
1.02025e-05
-0.000250008
2.31331e-06
-0.00024387
-6.11388e-06
-0.00023257
-1.47905e-05
-0.000216284
-2.33996e-05
-0.000195338
-3.15826e-05
-0.000170222
-3.89495e-05
-0.000141616
-4.50787e-05
-0.000110393
-4.95498e-05
-7.76204e-05
-5.19705e-05
-4.45296e-05
-5.20403e-05
-1.24665e-05
-4.95985e-05
1.72012e-05
-4.46933e-05
4.31821e-05
-3.76058e-05
6.43897e-05
-2.88619e-05
8.00405e-05
-1.91803e-05
8.97527e-05
-9.38998e-06
9.35843e-05
-3.20421e-07
9.20555e-05
7.32135e-06
8.60868e-05
1.30392e-05
7.69072e-05
1.66263e-05
6.58571e-05
1.8166e-05
5.42105e-05
1.8004e-05
4.29698e-05
1.66265e-05
3.28113e-05
1.45663e-05
2.40506e-05
1.22565e-05
1.67622e-05
1.00372e-05
1.08484e-05
8.02452e-06
6.19896e-06
6.26392e-06
2.77577e-06
4.48049e-06
6.55548e-07
2.62019e-06
4.94829e-07
1.62639e-06
-3.03343e-06
5.01134e-06
-7.16009e-06
9.04398e-06
-8.8731e-06
1.27213e-05
-8.504e-06
1.54504e-05
-6.67119e-06
1.68669e-05
-4.10977e-06
1.69113e-05
-1.44063e-06
1.55786e-05
1.05372e-06
1.28867e-05
3.33466e-06
8.69608e-06
5.66995e-06
2.73695e-06
8.3713e-06
-5.42288e-06
1.17836e-05
-1.62779e-05
1.60935e-05
-3.03506e-05
2.1407e-05
-4.80897e-05
2.7669e-05
-6.97908e-05
3.47166e-05
-9.54399e-05
4.21751e-05
-0.000124594
4.94995e-05
-0.000156334
5.59978e-05
-0.000189379
6.10056e-05
-0.000222283
6.39899e-05
-0.000253666
6.46542e-05
-0.000282359
6.29107e-05
-0.000307476
5.88529e-05
-0.000328402
5.26701e-05
-0.000344744
4.46131e-05
-0.000356275
3.49421e-05
-0.000362874
2.39266e-05
-0.000364483
1.18275e-05
-0.000361088
-1.08233e-06
-0.000352697
-1.45202e-05
-0.000339356
-2.8163e-05
-0.000321157
-4.16452e-05
-0.000298269
-5.45295e-05
-0.000270975
-6.63144e-05
-0.000239709
-7.64252e-05
-0.00020509
-8.42552e-05
-0.000167951
-8.9198e-05
-0.00012934
-9.07397e-05
-9.04911e-05
-8.85308e-05
-5.27588e-05
-8.25001e-05
-1.75245e-05
-7.29037e-05
1.39306e-05
-6.03646e-05
4.05228e-05
-4.58048e-05
6.14661e-05
-3.03473e-05
7.63038e-05
-1.51584e-05
8.49516e-05
-1.31116e-06
8.76949e-05
1.0318e-05
8.52217e-05
1.9131e-05
7.85632e-05
2.48545e-05
6.90173e-05
2.75839e-05
5.79236e-05
2.77464e-05
4.64999e-05
2.60194e-05
3.56324e-05
2.31423e-05
2.5891e-05
1.98025e-05
1.7505e-05
1.642e-05
1.05857e-05
1.32028e-05
5.16894e-06
9.8982e-06
1.50708e-06
6.29926e-06
2.00293e-06
1.92217e-06
-4.9466e-06
5.64988e-06
-1.0894e-05
9.7679e-06
-1.29783e-05
1.30897e-05
-1.18285e-05
1.49999e-05
-8.57301e-06
1.51146e-05
-4.22652e-06
1.33443e-05
3.3316e-07
9.57016e-06
4.82442e-06
3.62803e-06
9.27569e-06
-4.86345e-06
1.41558e-05
-1.64239e-05
1.99265e-05
-3.16931e-05
2.7044e-05
-5.12717e-05
3.56622e-05
-7.56112e-05
4.57334e-05
-0.000104807
5.68497e-05
-0.000138434
6.83241e-05
-0.00017545
7.91665e-05
-0.000214332
8.83537e-05
-0.000253374
9.5008e-05
-0.000291012
9.86081e-05
-0.000326022
9.89605e-05
-0.000357574
9.61625e-05
-0.00038517
9.046e-05
-0.000408553
8.21894e-05
-0.000427614
7.16878e-05
-0.000442326
5.92865e-05
-0.000452688
4.52739e-05
-0.000458701
2.99203e-05
-0.000460349
1.34657e-05
-0.000457586
-3.84194e-06
-0.000450345
-2.17468e-05
-0.00043854
-3.99403e-05
-0.000422091
-5.80557e-05
-0.000400948
-7.56232e-05
-0.000375131
-9.20732e-05
-0.00034478
-0.00010671
-0.00031021
-0.000118754
-0.000271969
-0.000127367
-0.000230874
-0.000131762
-0.00018803
-0.000131306
-0.000144787
-0.00012568
-0.000102652
-0.000114986
-6.31298e-05
-9.98432e-05
-2.75725e-05
-8.13327e-05
2.97973e-06
-6.08814e-05
2.78409e-05
-4.00158e-05
4.66825e-05
-2.01573e-05
5.94542e-05
-2.4697e-06
6.63841e-05
1.21822e-05
6.79681e-05
2.32444e-05
6.50324e-05
3.04973e-05
5.86496e-05
3.41022e-05
5.00635e-05
3.45874e-05
4.0432e-05
3.27502e-05
3.07499e-05
2.94737e-05
2.16629e-05
2.54867e-05
1.36525e-05
2.12105e-05
6.98515e-06
1.65461e-05
2.19272e-06
1.10965e-05
4.18325e-06
2.05341e-06
-6.99722e-06
5.73172e-06
-1.45854e-05
9.34922e-06
-1.65901e-05
1.15873e-05
-1.40752e-05
1.18404e-05
-8.82312e-06
9.72953e-06
-2.11966e-06
5.11679e-06
4.94898e-06
-2.27516e-06
1.22166e-05
-1.28532e-05
1.98583e-05
-2.72665e-05
2.85731e-05
-4.62334e-05
3.89005e-05
-7.04199e-05
5.12386e-05
-0.000100173
6.54263e-05
-0.000135309
8.08821e-05
-0.000174918
9.64727e-05
-0.000217428
0.000110852
-0.000260924
0.000122683
-0.000303582
0.000131035
-0.000343973
0.000135425
-0.000381154
0.000135819
-0.000414595
0.000132434
-0.000444057
0.00012566
-0.000469476
0.000115916
-0.000490886
0.000103636
-0.000508363
8.91974e-05
-0.000521996
7.29461e-05
-0.000531861
5.51586e-05
-0.000538013
3.60828e-05
-0.000540467
1.59205e-05
-0.000539192
-5.12501e-06
-0.000534104
-2.68534e-05
-0.00052506
-4.90114e-05
-0.000511865
-7.12868e-05
-0.000494284
-9.32469e-05
-0.000472075
-0.000114332
-0.000445032
-0.000133807
-0.000413062
-0.000150781
-0.000376271
-0.000164216
-0.000335062
-0.000173028
-0.000290226
-0.000176196
-0.00024298
-0.000172975
-0.000194938
-0.000163071
-0.000147964
-0.00014685
-0.000103937
-0.000125385
-6.44538e-05
-0.000100379
-3.06152e-05
-7.38603e-05
-2.94538e-06
-4.78219e-05
1.84698e-05
-2.3875e-05
3.38265e-05
-3.15603e-06
4.34516e-05
1.36368e-05
4.78526e-05
2.61193e-05
4.77252e-05
3.42462e-05
4.40302e-05
3.83042e-05
3.78288e-05
3.8963e-05
3.02367e-05
3.70852e-05
2.2157e-05
3.3571e-05
1.44034e-05
2.89825e-05
7.54263e-06
2.34035e-05
2.41094e-06
1.6248e-05
6.59356e-06
2.04627e-06
-9.03713e-06
5.2432e-06
-1.77899e-05
7.70582e-06
-1.9044e-05
8.08088e-06
-1.44542e-05
5.81927e-06
-6.55752e-06
5.53883e-07
3.14285e-06
-7.95098e-06
1.34538e-05
-2.01874e-05
2.44493e-05
-3.68263e-05
3.64937e-05
-5.86942e-05
5.04356e-05
-8.64535e-05
6.66533e-05
-0.000120338
8.51158e-05
-0.000159842
0.000104921
-0.000203637
0.000124665
-0.000249754
0.000142577
-0.000296075
0.000157157
-0.000340782
0.000167371
-0.0003826
0.000172833
-0.000420774
0.000173576
-0.000454943
0.000169963
-0.000484999
0.000162463
-0.000510993
0.000151625
-0.000533064
0.000137957
-0.000551405
0.000121947
-0.00056623
0.000103997
-0.000577762
8.44573e-05
-0.000586206
6.35877e-05
-0.000591736
4.16051e-05
-0.000594474
1.86582e-05
-0.000594475
-5.1163e-06
-0.000591709
-2.96051e-05
-0.000586045
-5.46535e-05
-0.00057724
-8.00633e-05
-0.000564936
-0.000105517
-0.000548665
-0.000130566
-0.00052788
-0.00015455
-0.000502018
-0.000176599
-0.000470599
-0.000195591
-0.000433362
-0.00021022
-0.000390439
-0.000219077
-0.000342514
-0.00022086
-0.000290939
-0.000214611
-0.000237712
-0.000200047
-0.000185297
-0.000177779
-0.000136217
-0.000149444
-9.25854e-05
-0.000117487
-5.56875e-05
-8.47208e-05
-2.59093e-05
-5.36628e-05
-2.96044e-06
-2.61154e-05
1.37054e-05
-3.04581e-06
2.46919e-05
1.51197e-05
3.05877e-05
2.83322e-05
3.2125e-05
3.67562e-05
3.015e-05
4.09205e-05
2.56876e-05
4.15416e-05
1.97092e-05
3.95328e-05
1.32216e-05
3.547e-05
7.05114e-06
2.9556e-05
2.26337e-06
2.1042e-05
8.84488e-06
1.85019e-06
-1.08844e-05
4.07372e-06
-2.00207e-05
4.71223e-06
-1.9678e-05
2.48834e-06
-1.22332e-05
-3.06725e-06
-9.99504e-07
-1.23342e-05
1.24106e-05
-2.57032e-05
2.68255e-05
-4.38838e-05
4.26336e-05
-6.76958e-05
6.03098e-05
-9.78395e-05
8.05856e-05
-0.000134444
0.000103264
-0.000176785
0.000127466
-0.000223219
0.000151362
-0.000271518
0.000172975
-0.000319425
0.000190495
-0.000365127
0.000202873
-0.000407417
0.000209675
-0.000445618
0.000211052
-0.000479436
0.000207412
-0.000508829
0.000199377
-0.000533925
0.000187579
-0.000554965
0.000172687
-0.000572272
0.000155284
-0.000586213
0.000135908
-0.00059717
0.000114971
-0.000605517
9.28171e-05
-0.000611594
6.96716e-05
-0.00061569
4.57029e-05
-0.000618029
2.09925e-05
-0.000618756
-4.39969e-06
-0.000617922
-3.04561e-05
-0.000615464
-5.7133e-05
-0.000611186
-8.43685e-05
-0.00060473
-0.000112004
-0.000595559
-0.000139772
-0.000582943
-0.000167204
-0.00056598
-0.000193602
-0.00054366
-0.00021795
-0.000514993
-0.000238927
-0.000479205
-0.000254903
-0.000435999
-0.000264099
-0.000385844
-0.000264796
-0.000330187
-0.000255727
-0.000271513
-0.000236471
-0.000213095
-0.000207871
-0.000158428
-0.000172159
-0.000110415
-0.000132732
-7.07062e-05
-9.3368e-05
-3.95102e-05
-5.7301e-05
-1.60763e-05
-2.64708e-05
6.7649e-07
-1.61864e-06
1.16965e-05
1.73217e-05
1.78239e-05
3.0644e-05
1.98374e-05
3.89138e-05
1.86496e-05
4.27441e-05
1.51986e-05
4.29861e-05
1.0551e-05
4.01326e-05
5.69448e-06
3.44093e-05
1.7978e-06
2.49551e-05
1.06425e-05
1.37558e-06
-1.2259e-05
2.02863e-06
-2.06766e-05
1.21358e-07
-1.77704e-05
-5.42737e-06
-6.68516e-06
-1.50098e-05
8.5802e-06
-2.90537e-05
2.64536e-05
-4.8127e-05
4.58938e-05
-7.30464e-05
6.75508e-05
-0.00010449
9.17469e-05
-0.000142573
0.000118665
-0.00018645
0.000147133
-0.000234297
0.000175307
-0.000283704
0.000200759
-0.000332287
0.000221549
-0.000378172
0.000236367
-0.000420127
0.000244818
-0.000457473
0.000247006
-0.000489925
0.000243489
-0.000517486
0.000234956
-0.000540368
0.000222243
-0.000558947
0.00020614
-0.000573698
0.000187423
-0.000585156
0.000166726
-0.000593858
0.000144598
-0.000600318
0.00012142
-0.000604994
9.74886e-05
-0.000608284
7.29606e-05
-0.000610516
4.79393e-05
-0.000611949
2.24354e-05
-0.000612776
-3.55825e-06
-0.000613113
-3.01001e-05
-0.00061299
-5.72318e-05
-0.000612329
-8.50031e-05
-0.000610902
-0.0001134
-0.000608295
-0.000142347
-0.00060385
-0.000171617
-0.000596625
-0.000200794
-0.000585386
-0.000229158
-0.000568651
-0.000255632
-0.000544838
-0.00027869
-0.000512517
-0.000296397
-0.000470786
-0.000306507
-0.000419717
-0.00030678
-0.000360745
-0.00029543
-0.000296847
-0.000271759
-0.000232289
-0.000236712
-0.000171812
-0.000193207
-0.000119413
-0.000145772
-7.72248e-05
-9.94942e-05
-4.52697e-05
-5.84364e-05
-2.21707e-05
-2.47253e-05
-6.2595e-06
1.39813e-06
3.88866e-06
2.04892e-05
9.34707e-06
3.34431e-05
1.1099e-05
4.09885e-05
1.00903e-05
4.39827e-05
7.38974e-06
4.2833e-05
4.05834e-06
3.77276e-05
1.25043e-06
2.77665e-05
1.1884e-05
5.50004e-07
-1.28097e-05
-9.91902e-07
-1.91297e-05
-6.10206e-06
-1.2663e-05
-1.55686e-05
2.78843e-06
-2.9741e-05
2.27504e-05
-4.91107e-05
4.58313e-05
-7.43524e-05
7.11352e-05
-0.000106131
9.93378e-05
-0.000144585
0.000130203
-0.00018888
0.000162969
-0.000237141
0.000195397
-0.000286837
0.000225012
-0.000335453
0.00024938
-0.000380986
0.000267092
-0.000422118
0.000277508
-0.000458109
0.00028082
-0.00048867
0.000277577
-0.000513851
0.000268684
-0.000533983
0.000255099
-0.000549588
0.000237862
-0.000561313
0.000217877
-0.000569846
0.000195969
-0.000575856
0.000172747
-0.000579946
0.000148699
-0.000582636
0.000124117
-0.00058435
9.92069e-05
-0.000585431
7.40408e-05
-0.000586148
4.8653e-05
-0.000586717
2.29962e-05
-0.000587309
-2.97773e-06
-0.00058806
-2.93653e-05
-0.000589065
-5.62455e-05
-0.000590367
-8.37223e-05
-0.000591926
-0.000111864
-0.000593569
-0.000140728
-0.000594924
-0.000170287
-0.000595332
-0.00020041
-0.000593763
-0.00023075
-0.000588756
-0.000260662
-0.000578421
-0.000289047
-0.000560576
-0.000314263
-0.000533046
-0.000334056
-0.000494159
-0.000345684
-0.000443384
-0.000346219
-0.000381973
-0.000333179
-0.000313347
-0.000305343
-0.000242878
-0.000263675
-0.000176824
-0.000211823
-0.000120503
-0.000155808
-7.66062e-05
-0.000102329
-4.47895e-05
-5.65329e-05
-2.29286e-05
-2.04573e-05
-8.63543e-06
6.20609e-06
-5.4679e-08
2.48666e-05
4.22442e-06
3.67195e-05
5.33853e-06
4.28705e-05
4.40467e-06
4.37771e-05
2.51548e-06
3.96158e-05
7.48134e-07
2.95444e-05
1.26333e-05
-7.05665e-07
-1.21118e-05
-5.0711e-06
-1.47547e-05
-1.39541e-05
-3.79395e-06
-2.77904e-05
1.66326e-05
-4.69242e-05
4.18714e-05
-7.18626e-05
7.07742e-05
-0.000103204
0.000102464
-0.000141127
0.000137263
-0.000184934
0.000174
-0.0002328
0.000210834
-0.000282175
0.000244761
-0.000330389
0.000273223
-0.000375286
0.000294266
-0.000415386
0.000307188
-0.000449873
0.000311983
-0.000478428
0.000309368
-0.000501171
0.000300309
-0.000518547
0.000286053
-0.000531251
0.000267792
-0.000540095
0.000246698
-0.000545919
0.000223691
-0.000549498
0.000199541
-0.000551501
0.000174743
-0.000552463
0.000149657
-0.000552796
0.000124446
-0.000552797
9.92095e-05
-0.000552686
7.39324e-05
-0.00055262
4.85941e-05
-0.000552726
2.3112e-05
-0.000553115
-2.57568e-06
-0.000553896
-2.85688e-05
-0.000555181
-5.49422e-05
-0.000557082
-8.18017e-05
-0.000559691
-0.000109232
-0.000563057
-0.00013734
-0.000567117
-0.000166202
-0.000571625
-0.000195878
-0.000576029
-0.000226322
-0.000579345
-0.000257323
-0.000580023
-0.000288348
-0.000575889
-0.000318378
-0.000564224
-0.000345704
-0.000542084
-0.000367812
-0.000506896
-0.000381399
-0.00045733
-0.00038274
-0.000394262
-0.00036841
-0.000321471
-0.000336466
-0.000245546
-0.00028775
-0.000174495
-0.00022686
-0.000115149
-0.00016168
-7.06295e-05
-0.000101056
-3.9982e-05
-5.11126e-05
-2.01178e-05
-1.36625e-05
-7.98656e-06
1.27272e-05
-1.27282e-06
3.00029e-05
1.67647e-06
3.9913e-05
2.19256e-06
4.32601e-05
1.43987e-06
4.03602e-05
4.37044e-07
3.05478e-05
1.30647e-05
-2.38108e-06
-9.73885e-06
-1.00712e-05
-7.04028e-06
-2.30859e-05
9.20385e-06
-4.14904e-05
3.50584e-05
-6.56372e-05
6.60076e-05
-9.5925e-05
0.00010108
-0.00013263
0.000139164
-0.000175187
0.000179834
-0.000222012
0.000220823
-0.000270572
0.000259406
-0.000318136
0.000292325
-0.000362315
0.000317413
-0.000401471
0.000333426
-0.000434642
0.000340369
-0.000461493
0.000338839
-0.000482175
0.000330061
-0.00049727
0.000315409
-0.000507617
0.000296411
-0.000514202
0.000274384
-0.000517992
0.000250497
-0.000519857
0.000225562
-0.000520499
0.000200191
-0.000520453
0.0001747
-0.000520082
0.00014929
-0.000519626
0.00012399
-0.000519223
9.8805e-05
-0.000518955
7.36585e-05
-0.000518867
4.8499e-05
-0.000519001
2.32346e-05
-0.000519402
-2.18674e-06
-0.000520141
-2.78456e-05
-0.000521311
-5.37892e-05
-0.000523038
-8.00947e-05
-0.000525467
-0.000106822
-0.000528761
-0.000134068
-0.000533058
-0.000161926
-0.00053843
-0.000190527
-0.00054479
-0.000219981
-0.000551761
-0.000250369
-0.000558505
-0.000281619
-0.000563523
-0.000313372
-0.000564504
-0.000344734
-0.000558319
-0.000374005
-0.000541299
-0.000398426
-0.00050992
-0.000414125
-0.000461909
-0.000416426
-0.000397604
-0.000400773
-0.000321091
-0.000364264
-0.000240311
-0.000307638
-0.000165275
-0.000236712
-0.000104352
-0.000161973
-6.0749e-05
-9.47112e-05
-3.24233e-05
-4.1982e-05
-1.52594e-05
-4.43362e-06
-5.59075e-06
2.03406e-05
-8.20991e-07
3.51451e-05
8.90719e-07
4.15549e-05
9.21486e-07
4.03297e-05
3.39315e-07
3.11365e-05
1.34056e-05
-4.45062e-06
-5.3077e-06
-1.58187e-05
4.35645e-06
-3.31139e-05
2.64653e-05
-5.60348e-05
5.80001e-05
-8.49044e-05
9.48517e-05
-0.000119843
0.000136031
-0.000160603
0.000179904
-0.000205799
0.000225036
-0.000253168
0.000268176
-0.000299881
0.000306121
-0.000343415
0.000335846
-0.000381859
0.000355856
-0.000414123
0.000365679
-0.000439766
0.000366009
-0.000458982
0.000358044
-0.000472418
0.000343494
-0.000481073
0.000324055
-0.00048606
0.000301394
-0.00048848
0.000276797
-0.00048927
0.000251283
-0.00048917
0.000225456
-0.000488692
0.00019971
-0.000488164
0.000174168
-0.000487757
0.000148882
-0.000487543
0.000123776
-0.000487528
9.87939e-05
-0.000487694
7.38282e-05
-0.00048801
4.88232e-05
-0.000488464
2.36973e-05
-0.000489059
-1.57933e-06
-0.000489833
-2.70584e-05
-0.000490854
-5.27535e-05
-0.000492228
-7.87049e-05
-0.000494099
-0.000104934
-0.000496649
-0.000131501
-0.000500087
-0.000158471
-0.000504633
-0.000185964
-0.000510467
-0.000214131
-0.000517655
-0.000243167
-0.000526001
-0.000273259
-0.000534857
-0.000304505
-0.000542851
-0.000336729
-0.000547651
-0.000369195
-0.000545837
-0.000400233
-0.000533108
-0.000426848
-0.000505004
-0.000444527
-0.000458258
-0.000447519
-0.000392612
-0.000429912
-0.000312518
-0.000387736
-0.000227522
-0.000321712
-0.000149896
-0.000239602
-8.93603e-05
-0.00015525
-4.84499e-05
-8.28952e-05
-2.35583e-05
-2.93301e-05
-9.56127e-06
6.3409e-06
-2.49211e-06
2.80708e-05
3.92546e-07
3.86691e-05
9.37798e-07
3.97788e-05
4.53283e-07
3.16212e-05
1.38547e-05
-6.76145e-06
1.43605e-06
-2.18983e-05
1.95409e-05
-4.33331e-05
4.78649e-05
-7.04096e-05
8.51147e-05
-0.000103345
0.000127766
-0.000141825
0.000174538
-0.000184986
0.000223054
-0.000230743
0.000270813
-0.00027648
0.000313907
-0.000319434
0.00034909
-0.000357521
0.000373931
-0.000389368
0.000387717
-0.000414457
0.000390768
-0.000432894
0.000384457
-0.000445406
0.000370559
-0.000453061
0.000351159
-0.000457122
0.000328119
-0.000458777
0.000303057
-0.000459054
0.000277077
-0.000458707
0.000250942
-0.00045825
0.000225001
-0.000457962
0.000199425
-0.000457968
0.000174174
-0.000458274
0.00014919
-0.000458838
0.000124336
-0.000459579
9.95323e-05
-0.000460427
7.46695e-05
-0.000461316
4.97055e-05
-0.00046221
2.4581e-05
-0.000463092
-7.07993e-07
-0.000463979
-2.61841e-05
-0.000464915
-5.18308e-05
-0.00046598
-7.76545e-05
-0.000467288
-0.000103641
-0.000468995
-0.000129809
-0.000471299
-0.000156182
-0.000474446
-0.000182833
-0.000478709
-0.000209882
-0.000484366
-0.000237523
-0.000491613
-0.000266023
-0.000500437
-0.000295692
-0.000510371
-0.000326803
-0.000520204
-0.000359369
-0.000527617
-0.000392824
-0.000528969
-0.000425498
-0.000519391
-0.000454104
-0.000493545
-0.000473365
-0.000447202
-0.000476255
-0.000379601
-0.000455338
-0.000295812
-0.000405502
-0.000207421
-0.000327991
-0.000129201
-0.000233465
-7.15651e-05
-0.000140526
-3.52456e-05
-6.56463e-05
-1.46744e-05
-1.42273e-05
-4.19711e-06
1.75952e-05
2.3004e-07
3.4246e-05
1.25671e-06
3.87522e-05
6.9529e-07
3.21879e-05
1.45508e-05
-9.17595e-06
1.05805e-05
-2.79553e-05
3.83697e-05
-5.31607e-05
7.30153e-05
-8.37815e-05
0.000115771
-0.000119841
0.000163786
-0.000160504
0.000215222
-0.000204346
0.000266867
-0.000248813
0.000315292
-0.000291261
0.000356334
-0.000329239
0.000387074
-0.000361207
0.000405883
-0.000386353
0.000412865
-0.000404738
0.00040914
-0.000417
0.00039672
-0.000424305
0.000377854
-0.00042797
0.000354823
-0.000429319
0.000329458
-0.000429426
0.000303163
-0.000429112
0.000276755
-0.000428871
0.0002507
-0.000428976
0.000225101
-0.000429499
0.000199949
-0.000430418
0.00017509
-0.000431635
0.000150408
-0.000433047
0.000125749
-0.000434541
0.000101032
-0.000436036
7.61684e-05
-0.00043746
5.11371e-05
-0.000438776
2.59043e-05
-0.000439962
4.89157e-07
-0.00044103
-2.51062e-05
-0.000442005
-5.08436e-05
-0.000442943
-7.67039e-05
-0.000443923
-0.000102649
-0.000445057
-0.000128662
-0.000446493
-0.000154733
-0.00044843
-0.000180884
-0.000451121
-0.00020718
-0.000454879
-0.000233755
-0.000460051
-0.000260841
-0.000466961
-0.000288775
-0.000475752
-0.000318006
-0.000486144
-0.000348972
-0.000497055
-0.000381908
-0.000506175
-0.000416376
-0.000509609
-0.000450667
-0.000501934
-0.000481037
-0.000476967
-0.000501221
-0.00042965
-0.000502656
-0.000358999
-0.000476156
-0.000271247
-0.000415749
-0.000180692
-0.000324024
-0.000104633
-0.000216586
-5.27707e-05
-0.000117508
-2.26234e-05
-4.43777e-05
-7.0125e-06
1.98148e-06
-2.05575e-07
2.74377e-05
1.5844e-06
3.69578e-05
9.73481e-07
3.27998e-05
1.55208e-05
-1.14499e-05
2.20038e-05
-3.34688e-05
6.0458e-05
-6.18312e-05
0.000101324
-9.5167e-05
0.000149161
-0.000133234
0.000201821
-0.00017468
0.000256706
-0.000217659
0.000309827
-0.000259415
0.000357075
-0.000297524
0.000394431
-0.000329982
0.000419552
-0.000355825
0.00043172
-0.000374802
0.000431858
-0.000387523
0.00042186
-0.00039506
0.00040427
-0.000398846
0.000381639
-0.000400243
0.00035623
-0.00040046
0.000329675
-0.000400335
0.000303046
-0.000400422
0.000276842
-0.000400961
0.000251245
-0.000402026
0.000226166
-0.000403544
0.00020147
-0.000405408
0.000176952
-0.000407472
0.000152473
-0.00040962
0.000127893
-0.000411741
0.00010315
-0.00041376
7.81814e-05
-0.000415616
5.29881e-05
-0.000417281
2.7561e-05
-0.000418737
1.93693e-06
-0.000419992
-2.38618e-05
-0.000421063
-4.97825e-05
-0.000421991
-7.57874e-05
-0.000422827
-0.000101823
-0.000423648
-0.000127852
-0.000424552
-0.00015384
-0.000425675
-0.000179771
-0.000427199
-0.000205666
-0.000429377
-0.000231586
-0.000432536
-0.00025769
-0.000437088
-0.000284231
-0.000443456
-0.000311643
-0.000451949
-0.000340484
-0.000462448
-0.000371413
-0.000473982
-0.000404845
-0.000484164
-0.000440485
-0.000488769
-0.000476432
-0.000481718
-0.000508269
-0.000456008
-0.000528364
-0.000405955
-0.000526207
-0.000330894
-0.000490812
-0.000239127
-0.000415792
-0.000148535
-0.00030718
-7.83145e-05
-0.00018772
-3.49494e-05
-8.77402e-05
-1.20294e-05
-2.09368e-05
-1.57252e-06
1.69824e-05
1.58815e-06
3.37973e-05
1.17635e-06
3.32157e-05
1.66974e-05
-1.34284e-05
3.53912e-05
-3.81201e-05
8.5216e-05
-6.88901e-05
0.000132022
-0.000104004
0.000184322
-0.000142924
0.000240692
-0.000183867
0.000297677
-0.000224748
0.000350672
-0.000262845
0.000395189
-0.000296109
0.000427669
-0.000323043
0.000446496
-0.000343252
0.000451911
-0.000357006
0.000445616
-0.000365369
0.000430208
-0.000369685
0.000408587
-0.00037146
0.000383402
-0.000371935
0.000356706
-0.000372087
0.000329818
-0.000372477
0.000303436
-0.000373405
0.000277763
-0.000374908
0.000252749
-0.00037693
0.000228183
-0.000379319
0.00020386
-0.000381937
0.000179568
-0.000384638
0.000155177
-0.000387317
0.000130573
-0.00038988
0.000105718
-0.000392272
8.05765e-05
-0.000394444
5.51673e-05
-0.000396379
2.95019e-05
-0.000398063
3.62873e-06
-0.000399503
-2.24135e-05
-0.000400713
-4.85635e-05
-0.000401722
-7.47686e-05
-0.000402567
-0.000100969
-0.0004033
-0.00012711
-0.000403983
-0.000153148
-0.000404703
-0.000179042
-0.000405573
-0.000204788
-0.00040676
-0.000230392
-0.000408498
-0.000255945
-0.00041113
-0.000281593
-0.0004151
-0.000307668
-0.000420938
-0.000334643
-0.000429082
-0.000363266
-0.000439572
-0.000394354
-0.00045148
-0.000428576
-0.000462261
-0.000465652
-0.000467177
-0.00050335
-0.000459371
-0.00053617
-0.000431005
-0.00055457
-0.000376135
-0.000545684
-0.000295296
-0.000496635
-0.000200206
-0.000402275
-0.000113149
-0.000274781
-5.29536e-05
-0.00014793
-1.99897e-05
-5.39012e-05
-4.36426e-06
1.35326e-06
1.04124e-06
2.83903e-05
1.23531e-06
3.30211e-05
1.79307e-05
-1.48976e-05
5.02562e-05
-4.15158e-05
0.000111918
-7.38334e-05
0.000164274
-0.00010975
0.000220303
-0.000148444
0.000279347
-0.000187824
0.000337101
-0.000225751
0.000388576
-0.000259707
0.000429175
-0.000288093
0.000456043
-0.000309927
0.000468353
-0.000325334
0.000467311
-0.00033502
0.000455321
-0.000340361
0.000435545
-0.000342792
0.000411033
-0.000343735
0.000384343
-0.000344202
0.000357184
-0.0003449
0.000330516
-0.00034613
0.000304675
-0.000347996
0.000279628
-0.000350401
0.00025516
-0.000353221
0.000231002
-0.00035628
0.000206923
-0.000359449
0.000182734
-0.000362596
0.000158325
-0.000365643
0.000133617
-0.000368516
0.000108589
-0.000371175
8.32307e-05
-0.000373583
5.7572e-05
-0.000375729
3.1641e-05
-0.0003776
5.49334e-06
-0.000379203
-2.08181e-05
-0.000380547
-4.72267e-05
-0.000381657
-7.36663e-05
-0.000382561
-0.000100073
-0.000383298
-0.00012638
-0.000383912
-0.000152542
-0.000384462
-0.0001785
-0.000385013
-0.000204244
-0.000385667
-0.000229743
-0.000386566
-0.000255052
-0.00038794
-0.000280224
-0.000390128
-0.000305484
-0.000393628
-0.000331147
-0.000399042
-0.000357855
-0.000406946
-0.000386451
-0.000417473
-0.00041805
-0.000429676
-0.000453452
-0.00044066
-0.000492364
-0.000444993
-0.000531838
-0.000434826
-0.000564731
-0.00040159
-0.000578919
-0.000339673
-0.000558549
-0.000252201
-0.000489756
-0.000156108
-0.000370873
-7.78782e-05
-0.000226162
-3.13371e-05
-0.000100427
-8.88033e-06
-2.11115e-05
-1.71032e-07
1.96861e-05
1.12138e-06
3.17278e-05
1.90537e-05
-1.57875e-05
6.59974e-05
-4.35406e-05
0.000139747
-7.65465e-05
0.000197197
-0.000112353
0.000256164
-0.0001499
0.000316838
-0.000186929
0.000374162
-0.000221395
0.000423003
-0.000251092
0.000458891
-0.000274893
0.000479816
-0.000292292
0.000485763
-0.000303858
0.000478855
-0.000310612
0.000462081
-0.00031408
0.000438995
-0.000315641
0.000412596
-0.000316524
0.000385212
-0.000317473
0.000358135
-0.000318945
0.000331976
-0.000321032
0.000306763
-0.00032371
0.000282298
-0.000326814
0.000258265
-0.000330202
0.000234384
-0.000333707
0.00021043
-0.000337227
0.000186251
-0.000340655
0.000161757
-0.00034394
0.0001369
-0.00034702
0.000111674
-0.000349872
8.60849e-05
-0.000352464
6.01684e-05
-0.000354785
3.39663e-05
-0.000356822
7.53715e-06
-0.000358582
-1.90528e-05
-0.000360068
-4.57335e-05
-0.000361303
-7.24253e-05
-0.000362307
-9.90626e-05
-0.000363115
-0.000125565
-0.000363762
-0.000151888
-0.000364292
-0.000177963
-0.000364748
-0.000203782
-0.000365192
-0.000229293
-0.000365699
-0.000254541
-0.0003664
-0.000279518
-0.000367505
-0.000304376
-0.000369376
-0.000329274
-0.000372543
-0.000354686
-0.000377718
-0.000381276
-0.000385569
-0.000410197
-0.000396295
-0.000442728
-0.000408749
-0.000479909
-0.000419495
-0.000521094
-0.000422081
-0.000562141
-0.000407562
-0.000593439
-0.000366864
-0.000599239
-0.000295849
-0.000560783
-0.000202209
-0.000464508
-0.00011011
-0.000318284
-4.68254e-05
-0.000163686
-1.51481e-05
-5.28001e-05
-2.13375e-06
6.67503e-06
8.6371e-07
2.87255e-05
1.99179e-05
-1.59938e-05
8.19567e-05
-4.40388e-05
0.000167882
-7.6893e-05
0.000229982
-0.000111772
0.000291112
-0.000147437
0.000352461
-0.000181598
0.00040837
-0.000212406
0.000453784
-0.000238015
0.000484535
-0.00025775
0.000499535
-0.000271512
0.000499551
-0.000280208
0.000487543
-0.000285038
0.000466932
-0.000287536
0.000441489
-0.000288921
0.000413998
-0.000290184
0.000386473
-0.000291813
0.000359778
-0.000294063
0.000334224
-0.000296885
0.000309595
-0.000300187
0.000285599
-0.000303782
0.000261868
-0.000307545
0.000238145
-0.000311331
0.000214222
-0.00031507
0.000189987
-0.000318679
0.000165368
-0.000322125
0.000140343
-0.000325359
0.000114908
-0.000328364
8.9086e-05
-0.000331108
6.29101e-05
-0.000333582
3.6435e-05
-0.000335768
9.71961e-06
-0.00033767
-1.71562e-05
-0.000339288
-4.41208e-05
-0.00034064
-7.10792e-05
-0.000341744
-9.79652e-05
-0.000342631
-0.000124683
-0.000343333
-0.000151192
-0.000343891
-0.00017741
-0.000344341
-0.000203337
-0.000344728
-0.00022891
-0.000345093
-0.000254181
-0.000345505
-0.000279108
-0.000346071
-0.000303814
-0.000347005
-0.000328342
-0.000348671
-0.000353021
-0.000351682
-0.000378266
-0.000356829
-0.00040505
-0.000364902
-0.000434657
-0.000376022
-0.000468787
-0.000388682
-0.000508438
-0.000398513
-0.000552305
-0.000397779
-0.000594175
-0.000376356
-0.000620652
-0.000325411
-0.000611731
-0.000244093
-0.000545828
-0.000147513
-0.000414874
-6.74827e-05
-0.000243714
-2.32374e-05
-9.7029e-05
-4.95364e-06
-1.16162e-05
4.84003e-07
2.32876e-05
2.0404e-05
-1.55608e-05
9.74706e-05
-4.31167e-05
0.000195513
-7.50796e-05
0.000261862
-0.000108366
0.000324454
-0.000141622
0.00038566
-0.000172633
0.000439414
-0.000199805
0.000480914
-0.000221668
0.000506417
-0.000237936
0.000515772
-0.000248839
0.000510466
-0.000255504
0.000494184
-0.000259189
0.000470624
-0.000261329
0.000443608
-0.000262926
0.000415599
-0.000264737
0.000388267
-0.000267035
0.000362078
-0.000269931
0.000337107
-0.000273294
0.000312959
-0.000277012
0.000289307
-0.000280904
0.000265761
-0.000284874
0.000242108
-0.000288808
0.000218157
-0.000292663
0.000193837
-0.000296375
0.000169082
-0.000299925
0.000143891
-0.000303271
0.000118257
-0.000306397
9.22126e-05
-0.000309271
6.57881e-05
-0.000311883
3.90491e-05
-0.000314211
1.20526e-05
-0.000316257
-1.51071e-05
-0.000318014
-4.23583e-05