/*--------------------------------*- C++ -*----------------------------------*\
| =========                 |                                                 |
| \\      /  F ield         | OpenFOAM: The Open Source CFD Toolbox           |
|  \\    /   O peration     | Version:  2406                                  |
|   \\  /    A nd           | Website:  www.openfoam.com                      |
|    \\/     M anipulation  |                                                 |
\*---------------------------------------------------------------------------*/
FoamFile
{
    version     2.0;
    format      ascii;
    arch        "LSB;label=32;scalar=64";
    class       volVectorField;
    location    "30.2";
    object      dU;
}
// * * * * * * * * * * * * * * * * * * * * * * * * * * * * * * * * * * * * * //

dimensions      [0 1 -1 0 0 0 0];

internalField   nonuniform List<vector> 
900
(
(1.12298e-05 -1.61085e-06 0)
(-9.22422e-06 -5.88567e-06 0)
(-4.04542e-05 -4.99e-06 0)
(-4.81222e-05 -9.51347e-07 0)
(-5.50921e-05 4.98446e-06 0)
(-6.27438e-05 1.18975e-05 0)
(-8.34281e-05 1.84558e-05 0)
(-0.000123484 2.6578e-05 0)
(-0.000179598 5.71123e-05 0)
(-0.000202136 0.000102963 0)
(-0.000159354 0.000103542 0)
(-7.80252e-05 4.88663e-05 0)
(-1.18731e-05 -1.6742e-05 0)
(2.79984e-05 -6.98983e-05 0)
(9.2516e-05 -0.00010728 0)
(0.000215336 -0.000132979 0)
(0.000391258 -0.00015292 0)
(0.000578995 -0.000170552 0)
(0.000737674 -0.000187473 0)
(0.00079421 -0.000202383 0)
(0.000713208 -0.000211258 0)
(0.000441166 -0.000212489 0)
(4.64067e-05 -0.000201877 0)
(-0.000369667 -0.000185594 0)
(-0.000570404 -0.000163753 0)
(-0.000488496 -0.000131199 0)
(-0.000247335 -8.94009e-05 0)
(-8.0842e-05 -3.37471e-05 0)
(-2.32836e-05 -1.30816e-06 0)
(2.65294e-05 1.12845e-05 0)
(7.51829e-06 8.22487e-06 0)
(-1.26264e-05 -3.3598e-06 0)
(-3.60835e-05 -8.05282e-06 0)
(-3.77326e-05 -7.07489e-06 0)
(-4.11617e-05 1.67984e-06 0)
(-4.80043e-05 1.22861e-05 0)
(-6.80658e-05 2.7399e-05 0)
(-8.60612e-05 4.13077e-05 0)
(-0.000108352 3.21732e-05 0)
(-0.000166863 -1.00774e-05 0)
(-0.000226914 -8.94219e-05 0)
(-0.000205605 -0.000213911 0)
(-0.000131475 -0.000358517 0)
(-6.31393e-05 -0.000483729 0)
(2.66471e-05 -0.00056833 0)
(0.000165592 -0.000619805 0)
(0.000348781 -0.000653908 0)
(0.000539306 -0.000680423 0)
(0.000700968 -0.000704036 0)
(0.000766315 -0.000717146 0)
(0.000700169 -0.000706496 0)
(0.000448996 -0.000661048 0)
(7.32134e-05 -0.000567218 0)
(-0.000330414 -0.00045437 0)
(-0.000513493 -0.000337436 0)
(-0.000411311 -0.000256464 0)
(-0.000148108 -0.000199944 0)
(6.68574e-06 -0.000127818 0)
(1.99386e-05 -8.78752e-05 0)
(3.8441e-05 -7.34022e-05 0)
(2.4005e-06 3.85308e-05 0)
(-2.37858e-05 1.91742e-05 0)
(-4.57849e-05 1.02053e-05 0)
(-3.92183e-05 6.639e-06 0)
(-3.60522e-05 1.47157e-05 0)
(-3.84659e-05 1.73108e-05 0)
(-6.03467e-05 -1.74615e-06 0)
(-0.000134276 -6.77217e-05 0)
(-0.000254787 -0.000192641 0)
(-0.000344742 -0.000373648 0)
(-0.000375698 -0.000555711 0)
(-0.000353499 -0.000719247 0)
(-0.000285684 -0.000877724 0)
(-0.000186375 -0.001011 0)
(-4.94439e-05 -0.00110265 0)
(0.000122965 -0.00116308 0)
(0.000323243 -0.00121209 0)
(0.000521714 -0.00125765 0)
(0.000694752 -0.00130535 0)
(0.000787405 -0.00133417 0)
(0.000767459 -0.00132283 0)
(0.000581526 -0.00123218 0)
(0.000257132 -0.00103542 0)
(-0.000132531 -0.000759996 0)
(-0.000361897 -0.000440796 0)
(-0.0003399 -0.000239455 0)
(-0.000110065 -0.000119301 0)
(3.64634e-05 -0.000114804 0)
(3.13529e-05 -0.000127002 0)
(4.02298e-05 -0.000132854 0)
(-7.74213e-06 6.84399e-05 0)
(-3.86951e-05 3.90878e-05 0)
(-5.28772e-05 3.18884e-05 0)
(-3.88688e-05 2.3771e-05 0)
(-3.86537e-05 1.68063e-05 0)
(-8.00283e-05 -2.9163e-05 0)
(-0.000179205 -0.000136056 0)
(-0.000305634 -0.00032551 0)
(-0.00043344 -0.000551041 0)
(-0.000537327 -0.000769024 0)
(-0.000573731 -0.00096203 0)
(-0.000527011 -0.00111903 0)
(-0.000422343 -0.0012402 0)
(-0.000287482 -0.00132744 0)
(-0.0001251 -0.00138977 0)
(5.65409e-05 -0.00144001 0)
(0.000255134 -0.0014976 0)
(0.000448069 -0.00156431 0)
(0.000628003 -0.00164916 0)
(0.000754481 -0.00172198 0)
(0.000810252 -0.0017658 0)
(0.000747207 -0.00171172 0)
(0.000558072 -0.00152497 0)
(0.000278269 -0.00117769 0)
(2.15184e-05 -0.000712885 0)
(-7.82635e-05 -0.00031714 0)
(-1.97143e-05 -7.1556e-05 0)
(3.3146e-06 -2.05992e-05 0)
(3.42859e-06 -9.93694e-05 0)
(3.18799e-05 -0.000115203 0)
(-2.41365e-05 0.000125117 0)
(-6.21482e-05 9.22546e-05 0)
(-7.16999e-05 8.80413e-05 0)
(-6.93312e-05 5.83035e-05 0)
(-0.000111648 -1.1288e-06 0)
(-0.000222138 -0.000139336 0)
(-0.000385819 -0.000352331 0)
(-0.00056412 -0.000616327 0)
(-0.000697715 -0.000878988 0)
(-0.000748022 -0.00109143 0)
(-0.000715898 -0.00123126 0)
(-0.000621539 -0.00131445 0)
(-0.000484659 -0.00136375 0)
(-0.000327403 -0.0013908 0)
(-0.000154129 -0.00140972 0)
(2.30011e-05 -0.00142892 0)
(0.000207528 -0.00146681 0)
(0.000380157 -0.00152047 0)
(0.000549064 -0.00160622 0)
(0.000685067 -0.00169518 0)
(0.000794623 -0.00178951 0)
(0.000841853 -0.00181456 0)
(0.000812053 -0.00174807 0)
(0.00069988 -0.00150105 0)
(0.000514427 -0.00109316 0)
(0.000308727 -0.000615412 0)
(0.000176379 -0.000241855 0)
(-6.33408e-06 -2.7044e-05 0)
(-6.85585e-05 -0.000127843 0)
(2.20599e-05 -0.00012528 0)
(-4.0493e-05 0.00017013 0)
(-8.42489e-05 0.000139919 0)
(-0.000106668 0.000132507 0)
(-0.000154705 6.47307e-05 0)
(-0.000268013 -6.68399e-05 0)
(-0.000458594 -0.000293997 0)
(-0.000666896 -0.000576213 0)
(-0.000824675 -0.000854245 0)
(-0.000891783 -0.00106218 0)
(-0.000871586 -0.00118851 0)
(-0.00078026 -0.00124737 0)
(-0.000646301 -0.00126064 0)
(-0.00048893 -0.001253 0)
(-0.000326529 -0.00123697 0)
(-0.000158218 -0.00122674 0)
(3.76273e-06 -0.00122282 0)
(0.000168525 -0.00124008 0)
(0.000315447 -0.00126951 0)
(0.00046307 -0.0013325 0)
(0.000584671 -0.0014044 0)
(0.000708606 -0.00150901 0)
(0.000810738 -0.00158507 0)
(0.000897607 -0.00164201 0)
(0.000961664 -0.0015673 0)
(0.00093253 -0.0013613 0)
(0.000789515 -0.00100502 0)
(0.000560973 -0.000506091 0)
(8.77127e-05 -0.000311741 0)
(-0.000111255 -5.26179e-05 0)
(2.98016e-05 -0.000208642 0)
(-5.79752e-05 0.000179636 0)
(-0.000115986 0.000154106 0)
(-0.000174551 0.000126833 0)
(-0.000299167 1.00356e-05 0)
(-0.000495926 -0.000189837 0)
(-0.000741041 -0.000469234 0)
(-0.000935246 -0.000749833 0)
(-0.00102731 -0.000969247 0)
(-0.001009 -0.00109777 0)
(-0.000915282 -0.00114807 0)
(-0.000776857 -0.00114703 0)
(-0.000623341 -0.00112167 0)
(-0.000463011 -0.00109478 0)
(-0.000307438 -0.00107129 0)
(-0.000148608 -0.00106046 0)
(2.9971e-07 -0.0010532 0)
(0.000152336 -0.00106095 0)
(0.000281531 -0.00106781 0)
(0.000411967 -0.00109774 0)
(0.000511651 -0.00112703 0)
(0.000623457 -0.00119428 0)
(0.000724723 -0.00125463 0)
(0.000851642 -0.00135172 0)
(0.00100797 -0.00138651 0)
(0.00110717 -0.00138949 0)
(0.0011919 -0.00121859 0)
(0.000881526 -0.000851759 0)
(0.00043089 -0.000615601 0)
(5.70397e-06 1.6417e-06 0)
(-0.00013964 -0.000357811 0)
(-7.276e-05 0.00010895 0)
(-0.000158228 8.89219e-05 0)
(-0.000280216 3.86848e-05 0)
(-0.000497093 -0.00011253 0)
(-0.000759352 -0.00034363 0)
(-0.00101002 -0.000613921 0)
(-0.00114247 -0.000838784 0)
(-0.00114637 -0.000976358 0)
(-0.00105238 -0.00102796 0)
(-0.000912889 -0.00102497 0)
(-0.000756307 -0.000997953 0)
(-0.000604868 -0.000968207 0)
(-0.000454597 -0.000951397 0)
(-0.000311099 -0.000943464 0)
(-0.000159985 -0.000949606 0)
(-1.68332e-05 -0.000952544 0)
(0.000134339 -0.000963239 0)
(0.000260467 -0.000959349 0)
(0.000389048 -0.000967737 0)
(0.00047888 -0.000961622 0)
(0.000579693 -0.000986833 0)
(0.000660626 -0.00100625 0)
(0.000780504 -0.00108278 0)
(0.000944175 -0.00114247 0)
(0.00112468 -0.00125169 0)
(0.00135608 -0.00122365 0)
(0.00118796 -0.00114546 0)
(0.00094261 -0.00072466 0)
(0.000121806 -0.000390547 0)
(-0.000339383 -0.000311961 0)
(-8.66854e-05 -3.78877e-05 0)
(-0.000209471 -5.32476e-05 0)
(-0.000402631 -0.000121401 0)
(-0.000697809 -0.000276722 0)
(-0.000994949 -0.000491392 0)
(-0.00121457 -0.000704814 0)
(-0.0012689 -0.00084985 0)
(-0.00119551 -0.000911202 0)
(-0.00105017 -0.000911429 0)
(-0.000890441 -0.000883338 0)
(-0.000735064 -0.000854131 0)
(-0.000596637 -0.000836393 0)
(-0.000459128 -0.00083901 0)
(-0.000325755 -0.000850038 0)
(-0.000177139 -0.000873142 0)
(-3.36376e-05 -0.000884898 0)
(0.000123439 -0.00089871 0)
(0.000253128 -0.000887015 0)
(0.000386217 -0.000880944 0)
(0.000472735 -0.00085011 0)
(0.000566983 -0.00084404 0)
(0.00062823 -0.000827444 0)
(0.000725645 -0.000868745 0)
(0.000857192 -0.000912507 0)
(0.00104604 -0.0010405 0)
(0.00132073 -0.00110669 0)
(0.00140302 -0.00117604 0)
(0.00119817 -0.00083802 0)
(0.000413146 -0.000603258 0)
(-8.28717e-05 2.81298e-05 0)
(-9.7274e-05 -0.00021486 0)
(-0.000263995 -0.000222875 0)
(-0.000524901 -0.000292783 0)
(-0.00087369 -0.000424886 0)
(-0.00117402 -0.000592885 0)
(-0.00134077 -0.000733491 0)
(-0.00132308 -0.000804942 0)
(-0.00119663 -0.000811095 0)
(-0.00102865 -0.00078309 0)
(-0.000870611 -0.00074816 0)
(-0.000728993 -0.000728097 0)
(-0.000607583 -0.000725916 0)
(-0.000481615 -0.000746928 0)
(-0.000354902 -0.000772862 0)
(-0.000204148 -0.000808964 0)
(-5.55253e-05 -0.000826692 0)
(0.000112672 -0.000843762 0)
(0.000251708 -0.000827516 0)
(0.000395136 -0.000813707 0)
(0.000485027 -0.000767828 0)
(0.00057763 -0.000741776 0)
(0.00062376 -0.000699487 0)
(0.000697995 -0.000709286 0)
(0.000789136 -0.000724885 0)
(0.000952158 -0.000833089 0)
(0.00124109 -0.000923753 0)
(0.00147673 -0.00104414 0)
(0.00152661 -0.000892542 0)
(0.000991696 -0.000433292 0)
(0.000282304 0.000138958 0)
(-0.000104208 -0.000376985 0)
(-0.000308451 -0.000375959 0)
(-0.000620732 -0.000434977 0)
(-0.000996622 -0.00052535 0)
(-0.00128313 -0.000633409 0)
(-0.00139791 -0.00070305 0)
(-0.00132691 -0.000717714 0)
(-0.00117159 -0.000689056 0)
(-0.000998769 -0.000648803 0)
(-0.000852453 -0.000614667 0)
(-0.000726724 -0.000604638 0)
(-0.000620745 -0.000613004 0)
(-0.000502925 -0.000645222 0)
(-0.000380485 -0.000677678 0)
(-0.000226034 -0.000719721 0)
(-7.2303e-05 -0.000738422 0)
(0.000106324 -0.000756911 0)
(0.000254063 -0.000738252 0)
(0.000407526 -0.000722624 0)
(0.000502723 -0.000672072 0)
(0.000596835 -0.000639827 0)
(0.000634507 -0.000587381 0)
(0.000691037 -0.000580643 0)
(0.000743899 -0.000576551 0)
(0.000869925 -0.000662302 0)
(0.00113267 -0.000757035 0)
(0.00145506 -0.000938961 0)
(0.00182032 -0.000954125 0)
(0.00144617 -0.000696684 0)
(0.000495475 -0.000381955 0)
(-0.0001059 -0.000478986 0)
(-0.000341546 -0.000468335 0)
(-0.000685738 -0.000510262 0)
(-0.00106494 -0.000558709 0)
(-0.00132742 -0.000613463 0)
(-0.00139802 -0.000630221 0)
(-0.00129594 -0.000609463 0)
(-0.0011321 -0.00056334 0)
(-0.000967758 -0.000520268 0)
(-0.000838128 -0.000489162 0)
(-0.000728269 -0.000486212 0)
(-0.000635491 -0.000498505 0)
(-0.000523785 -0.000534489 0)
(-0.00040474 -0.000565736 0)
(-0.000247067 -0.000607508 0)
(-8.96863e-05 -0.000622757 0)
(9.70398e-05 -0.00064029 0)
(0.000251541 -0.000619537 0)
(0.000412989 -0.000604196 0)
(0.000513019 -0.000553893 0)
(0.000609239 -0.000522713 0)
(0.000641931 -0.000470098 0)
(0.000686701 -0.000460248 0)
(0.000709002 -0.000447861 0)
(0.000792974 -0.000518662 0)
(0.000990423 -0.000607782 0)
(0.00130144 -0.000825409 0)
(0.00178472 -0.000980291 0)
(0.00156416 -0.00108089 0)
(0.000596365 -0.000982528 0)
(-0.000103587 -0.000512719 0)
(-0.000358353 -0.00049236 0)
(-0.000719369 -0.000516018 0)
(-0.00108915 -0.00052663 0)
(-0.00132903 -0.000539846 0)
(-0.00136967 -0.000520293 0)
(-0.00125169 -0.000480828 0)
(-0.00108907 -0.000427199 0)
(-0.000934393 -0.000385486 0)
(-0.000819125 -0.000355864 0)
(-0.000720338 -0.000355483 0)
(-0.000637525 -0.000365228 0)
(-0.000530041 -0.000398602 0)
(-0.000414946 -0.000422935 0)
(-0.0002564 -0.000460125 0)
(-9.90139e-05 -0.000469675 0)
(9.10329e-05 -0.000485497 0)
(0.000247899 -0.000464428 0)
(0.000412988 -0.000452256 0)
(0.00051501 -0.000406971 0)
(0.000612078 -0.000382466 0)
(0.000640319 -0.000336429 0)
(0.000677403 -0.000332234 0)
(0.000676274 -0.000320192 0)
(0.000727456 -0.000385216 0)
(0.000854978 -0.000461743 0)
(0.00110714 -0.000680784 0)
(0.00158143 -0.000885718 0)
(0.00144654 -0.00117387 0)
(0.000590129 -0.00121939 0)
(-9.62044e-05 -0.000481288 0)
(-0.000363144 -0.000453588 0)
(-0.000725974 -0.000461419 0)
(-0.00107586 -0.000445728 0)
(-0.00129491 -0.000431323 0)
(-0.00131659 -0.000392504 0)
(-0.00119653 -0.000346712 0)
(-0.00104204 -0.000293312 0)
(-0.000899328 -0.000255351 0)
(-0.000796466 -0.000226325 0)
(-0.000706351 -0.000225665 0)
(-0.000631575 -0.000229172 0)
(-0.000528262 -0.000256513 0)
(-0.000418432 -0.000270884 0)
(-0.000262231 -0.000300929 0)
(-0.000108639 -0.00030314 0)
(7.97727e-05 -0.000315984 0)
(0.000234653 -0.000294511 0)
(0.000399248 -0.000285712 0)
(0.000500304 -0.000246453 0)
(0.000597297 -0.000230184 0)
(0.000621484 -0.000192472 0)
(0.000654542 -0.000197445 0)
(0.000636013 -0.000188612 0)
(0.000662387 -0.000252948 0)
(0.000723868 -0.000315081 0)
(0.00090524 -0.000518957 0)
(0.00130955 -0.000720976 0)
(0.0012342 -0.00107809 0)
(0.000548853 -0.00118074 0)
(-8.74538e-05 -0.000403985 0)
(-0.000357015 -0.000368446 0)
(-0.000716453 -0.000362578 0)
(-0.00104564 -0.000326832 0)
(-0.0012501 -0.00029578 0)
(-0.00126402 -0.000246454 0)
(-0.00114616 -0.00020201 0)
(-0.000999284 -0.000151456 0)
(-0.00086206 -0.000118596 0)
(-0.000765835 -8.92989e-05 0)
(-0.000678602 -8.72548e-05 0)
(-0.000609209 -8.32862e-05 0)
(-0.000509265 -0.000103466 0)
(-0.000405968 -0.000107421 0)
(-0.000255116 -0.000129707 0)
(-0.000108985 -0.000124894 0)
(7.30501e-05 -0.0001348 0)
(0.00022144 -0.000113694 0)
(0.000381327 -0.000108767 0)
(0.000477596 -7.61855e-05 0)
(0.000572705 -6.89124e-05 0)
(0.00059167 -3.9709e-05 0)
(0.000623567 -5.51621e-05 0)
(0.000592817 -5.02029e-05 0)
(0.000606302 -0.000117528 0)
(0.000617107 -0.000163298 0)
(0.000731925 -0.000344054 0)
(0.00104178 -0.000508518 0)
(0.000989935 -0.000859218 0)
(0.000486082 -0.000976021 0)
(-7.35369e-05 -0.000306679 0)
(-0.000341421 -0.000264779 0)
(-0.000689114 -0.00024475 0)
(-0.000995775 -0.000195848 0)
(-0.0011891 -0.000152618 0)
(-0.00120145 -0.000100073 0)
(-0.00109291 -6.02252e-05 0)
(-0.000955026 -1.6278e-05 0)
(-0.000823959 9.6917e-06 0)
(-0.000731993 3.7791e-05 0)
(-0.000646297 4.01304e-05 0)
(-0.000580812 5.04922e-05 0)
(-0.000484681 3.61153e-05 0)
(-0.000388931 4.10814e-05 0)
(-0.000246084 2.51477e-05 0)
(-0.000110217 3.58599e-05 0)
(6.18409e-05 2.83599e-05 0)
(0.000200227 4.93329e-05 0)
(0.000352614 5.10444e-05 0)
(0.000441639 7.88057e-05 0)
(0.000534417 7.86621e-05 0)
(0.000547951 0.000102547 0)
(0.000581303 7.91389e-05 0)
(0.000541219 8.38714e-05 0)
(0.000550388 1.45122e-05 0)
(0.000523854 -1.39215e-05 0)
(0.000592969 -0.000172828 0)
(0.000816164 -0.000286582 0)
(0.000770398 -0.000600793 0)
(0.000431787 -0.000696344 0)
(-6.01151e-05 -0.000204413 0)
(-0.000316539 -0.000153185 0)
(-0.000653284 -0.000118296 0)
(-0.000941815 -5.49695e-05 0)
(-0.00113 -3.51675e-06 0)
(-0.00114984 5.33735e-05 0)
(-0.00105085 8.67062e-05 0)
(-0.000920719 0.000124693 0)
(-0.000788491 0.000141805 0)
(-0.000695639 0.000166754 0)
(-0.000605802 0.000166341 0)
(-0.000541443 0.000179496 0)
(-0.000447794 0.000167668 0)
(-0.000359884 0.00017801 0)
(-0.000226599 0.000166138 0)
(-0.000102873 0.000180665 0)
(5.70272e-05 0.000174848 0)
(0.000183128 0.000195614 0)
(0.000326399 0.000194657 0)
(0.000406519 0.00021937 0)
(0.000497007 0.000213371 0)
(0.000505121 0.000234756 0)
(0.000542737 0.00020575 0)
(0.000496246 0.000213764 0)
(0.000508535 0.000144161 0)
(0.000454901 0.00013489 0)
(0.000492404 -5.19881e-06 0)
(0.000635939 -6.68986e-05 0)
(0.000583549 -0.000341433 0)
(0.000390916 -0.000402057 0)
(-3.91136e-05 -0.000122282 0)
(-0.000279752 -6.25454e-05 0)
(-0.000598663 -7.99871e-06 0)
(-0.000871587 6.87235e-05 0)
(-0.00105778 0.000134418 0)
(-0.00108821 0.000195499 0)
(-0.00100631 0.000225863 0)
(-0.000886262 0.000256013 0)
(-0.000757613 0.000262287 0)
(-0.000663888 0.000280577 0)
(-0.000570758 0.000273409 0)
(-0.000505917 0.000285543 0)
(-0.000414086 0.000271917 0)
(-0.000332845 0.000284034 0)
(-0.000208978 0.000272373 0)
(-9.75389e-05 0.000288358 0)
(4.99172e-05 0.000281836 0)
(0.000163026 0.000302366 0)
(0.000297081 0.000298384 0)
(0.000367878 0.00032239 0)
(0.000457106 0.000312423 0)
(0.000460391 0.000335358 0)
(0.000504573 0.000304634 0)
(0.000452703 0.000320915 0)
(0.000473272 0.000255 0)
(0.000398904 0.000267532 0)
(0.00042342 0.00014318 0)
(0.000501466 0.000134126 0)
(0.000438229 -0.000105501 0)
(0.000372045 -0.000119826 0)
(-1.99595e-05 -4.97109e-05 0)
(-0.000230381 2.11654e-05 0)
(-0.000533114 9.23012e-05 0)
(-0.000793924 0.000189394 0)
(-0.000982997 0.000266995 0)
(-0.00103527 0.000340587 0)
(-0.000972003 0.000368577 0)
(-0.000866649 0.000394674 0)
(-0.000736779 0.000388243 0)
(-0.000639875 0.000397085 0)
(-0.000538264 0.000378404 0)
(-0.000469799 0.000383854 0)
(-0.000376779 0.000363362 0)
(-0.000300423 0.000371933 0)
(-0.000184705 0.000356858 0)
(-8.48112e-05 0.000371174 0)
(5.09572e-05 0.00036253 0)
(0.000151938 0.000382643 0)
(0.000278136 0.000376457 0)
(0.000341044 0.000401658 0)
(0.000431145 0.000390409 0)
(0.0004316 0.000418209 0)
(0.000485022 0.000390079 0)
(0.000429277 0.000418664 0)
(0.000461448 0.00036097 0)
(0.000367396 0.000397236 0)
(0.000388619 0.000286298 0)
(0.00040566 0.000324975 0)
(0.000331205 0.000105705 0)
(0.000377794 0.000141959 0)
(8.94717e-06 -3.90047e-06 0)
(-0.000170666 7.01216e-05 0)
(-0.000446053 0.000158335 0)
(-0.000696263 0.000272759 0)
(-0.000890277 0.000376193 0)
(-0.000964039 0.000465273 0)
(-0.000931373 0.000502288 0)
(-0.000845533 0.000526314 0)
(-0.000726057 0.000507955 0)
(-0.000629409 0.000504736 0)
(-0.000523333 0.000469765 0)
(-0.00044984 0.000464511 0)
(-0.000353684 0.000431417 0)
(-0.000278178 0.000432976 0)
(-0.000166727 0.000409171 0)
(-7.44108e-05 0.000419748 0)
(5.31692e-05 0.000404646 0)
(0.000144878 0.000423959 0)
(0.000266065 0.000413127 0)
(0.000323189 0.000440711 0)
(0.000416293 0.000428188 0)
(0.00041522 0.000463415 0)
(0.00047922 0.000440262 0)
(0.000419077 0.000484345 0)
(0.000464523 0.000438117 0)
(0.00034906 0.000500474 0)
(0.000377694 0.000401749 0)
(0.000335026 0.000489367 0)
(0.000255176 0.000282715 0)
(0.000409856 0.000381283 0)
(2.8688e-05 5.39395e-05 0)
(-0.000105521 0.000125509 0)
(-0.000351937 0.000215369 0)
(-0.000582072 0.000355346 0)
(-0.000779948 0.000476022 0)
(-0.000889351 0.000593866 0)
(-0.000889451 0.000639289 0)
(-0.000837943 0.000669093 0)
(-0.000728492 0.000638727 0)
(-0.000635397 0.0006232 0)
(-0.000521233 0.00056876 0)
(-0.000440246 0.000548498 0)
(-0.000336511 0.000499003 0)
(-0.000257977 0.000488939 0)
(-0.000146765 0.000453768 0)
(-5.81434e-05 0.000457356 0)
(6.48614e-05 0.000435206 0)
(0.00015095 0.000452042 0)
(0.000270286 0.000438394 0)
(0.000325174 0.000468365 0)
(0.000423848 0.0004586 0)
(0.000424313 0.000502865 0)
(0.000500719 0.000490552 0)
(0.000437142 0.000552811 0)
(0.000497718 0.000524036 0)
(0.000356794 0.000613516 0)
(0.000400411 0.000527538 0)
(0.000294701 0.000659745 0)
(0.000220684 0.000450538 0)
(0.000478447 0.000621016 0)
(5.56766e-05 8.59339e-05 0)
(-4.96475e-05 0.000125537 0)
(-0.000244194 0.000226544 0)
(-0.000449192 0.000376039 0)
(-0.000648831 0.000540966 0)
(-0.000785506 0.00068793 0)
(-0.000835914 0.000763218 0)
(-0.000822694 0.000805746 0)
(-0.000742285 0.000770867 0)
(-0.000658867 0.000745352 0)
(-0.000544521 0.000668783 0)
(-0.000455533 0.000631687 0)
(-0.000342765 0.000559827 0)
(-0.000254995 0.000536314 0)
(-0.00013824 0.000483297 0)
(-4.57372e-05 0.000479346 0)
(7.89188e-05 0.000443971 0)
(0.000165599 0.000458849 0)
(0.000287844 0.000436573 0)
(0.000344498 0.000470026 0)
(0.000451553 0.000457838 0)
(0.000455172 0.000512155 0)
(0.000545009 0.000506335 0)
(0.000476609 0.000586513 0)
(0.000552656 0.000571669 0)
(0.000379547 0.000687049 0)
(0.000444013 0.000612463 0)
(0.000260177 0.000791915 0)
(0.000212286 0.000585176 0)
(0.000583876 0.000864333 0)
(4.93963e-05 0.000127786 0)
(-4.10358e-06 0.000141983 0)
(-0.000135953 0.000237566 0)
(-0.000289955 0.000412962 0)
(-0.0004744 0.000598958 0)
(-0.000659013 0.000791445 0)
(-0.000755145 0.000886293 0)
(-0.00080857 0.000950119 0)
(-0.000761123 0.000910546 0)
(-0.000700288 0.000878477 0)
(-0.000586311 0.000781191 0)
(-0.000490193 0.000726801 0)
(-0.000364899 0.000633322 0)
(-0.000264161 0.000594076 0)
(-0.000136384 0.000524874 0)
(-3.54036e-05 0.000509863 0)
(9.62838e-05 0.000464836 0)
(0.000187622 0.000473374 0)
(0.000316572 0.000448334 0)
(0.000378237 0.00048067 0)
(0.000495447 0.000474082 0)
(0.000504928 0.000534743 0)
(0.000608839 0.000544704 0)
(0.000537819 0.000641535 0)
(0.000631711 0.000650737 0)
(0.000425881 0.000793799 0)
(0.000523217 0.000740922 0)
(0.000262754 0.000968135 0)
(0.00028593 0.000764414 0)
(0.000762707 0.00119237 0)
(6.06821e-05 0.000136657 0)
(2.73285e-05 8.18958e-05 0)
(-1.25743e-05 0.000200716 0)
(-0.000118724 0.000360839 0)
(-0.000287792 0.000613928 0)
(-0.000499972 0.000834969 0)
(-0.000667612 0.00097899 0)
(-0.000781211 0.00106793 0)
(-0.000790195 0.00103809 0)
(-0.000756095 0.00100671 0)
(-0.000653941 0.000892311 0)
(-0.000550976 0.0008234 0)
(-0.000414978 0.000704939 0)
(-0.000295779 0.000650677 0)
(-0.000153556 0.000558663 0)
(-3.58498e-05 0.000534727 0)
(0.000107797 0.00047085 0)
(0.000211778 0.000477729 0)
(0.000351911 0.000436943 0)
(0.00042455 0.000474589 0)
(0.000555978 0.000455094 0)
(0.000574861 0.000527802 0)
(0.000697799 0.000529182 0)
(0.000625251 0.000644056 0)
(0.000742297 0.000653061 0)
(0.000498915 0.000820027 0)
(0.000635577 0.000785906 0)
(0.000273245 0.00106014 0)
(0.000427774 0.000924957 0)
(0.00102067 0.00163669 0)
(-5.20402e-06 0.000117722 0)
(3.77735e-05 0.000105578 0)
(0.00010195 0.000186736 0)
(8.55586e-05 0.000403022 0)
(-2.78304e-05 0.000648235 0)
(-0.000307576 0.000910124 0)
(-0.000522577 0.00105965 0)
(-0.000739425 0.00117 0)
(-0.000805084 0.00114128 0)
(-0.000820836 0.00111255 0)
(-0.000736193 0.000988438 0)
(-0.000634179 0.00090946 0)
(-0.000487224 0.000775833 0)
(-0.000351163 0.000707422 0)
(-0.000189474 0.0006019 0)
(-5.54672e-05 0.000564713 0)
(0.00010661 0.000492382 0)
(0.00022176 0.000487651 0)
(0.000378323 0.000444992 0)
(0.00045919 0.000472211 0)
(0.000607205 0.000459092 0)
(0.000633694 0.00052395 0)
(0.000774804 0.000542879 0)
(0.000705399 0.000658815 0)
(0.000845212 0.00070223 0)
(0.000587102 0.000894642 0)
(0.000779332 0.000934862 0)
(0.000382505 0.00128624 0)
(0.000849 0.00132789 0)
(0.00148742 0.0024424 0)
(5.38763e-05 0.000211687 0)
(8.72196e-05 2.90262e-05 0)
(0.000246298 0.00017043 0)
(0.000299253 0.000317609 0)
(0.0001827 0.00063376 0)
(-0.000114293 0.000881528 0)
(-0.000421686 0.00106871 0)
(-0.000701542 0.00118364 0)
(-0.000840741 0.00117068 0)
(-0.000893589 0.0011474 0)
(-0.000834907 0.00102405 0)
(-0.000732261 0.000941925 0)
(-0.000579869 0.000798898 0)
(-0.000424387 0.000722728 0)
(-0.00024682 0.000602291 0)
(-9.04101e-05 0.000559899 0)
(8.7293e-05 0.000468552 0)
(0.000223008 0.000465559 0)
(0.000393995 0.000397088 0)
(0.00049495 0.000435005 0)
(0.00066089 0.000383835 0)
(0.000708284 0.000469073 0)
(0.000877942 0.000434255 0)
(0.000824311 0.000581387 0)
(0.00101205 0.000573842 0)
(0.000757184 0.000817652 0)
(0.00104201 0.000900097 0)
(0.000643294 0.00135592 0)
(0.00158407 0.00180203 0)
(0.00216767 0.00395807 0)
(-0.000184215 -3.30125e-05 0)
(-6.22723e-06 9.8087e-05 0)
(0.000360147 0.00015758 0)
(0.000505825 0.000492652 0)
(0.000494878 0.00071286 0)
(9.45161e-05 0.000935395 0)
(-0.0002454 0.00105065 0)
(-0.000652152 0.00113763 0)
(-0.000848016 0.00111377 0)
(-0.000965055 0.00108878 0)
(-0.000933936 0.00097799 0)
(-0.000843454 0.000900549 0)
(-0.000686131 0.000767566 0)
(-0.00052062 0.000691451 0)
(-0.000321849 0.000573184 0)
(-0.000153824 0.000524798 0)
(4.93172e-05 0.000430808 0)
(0.000189683 0.000415243 0)
(0.000386884 0.000344087 0)
(0.000484752 0.000359528 0)
(0.000678451 0.000312504 0)
(0.000719155 0.00036199 0)
(0.000919806 0.000354105 0)
(0.000873453 0.000461274 0)
(0.00110641 0.000546235 0)
(0.000931979 0.000804165 0)
(0.00133054 0.00117867 0)
(0.00124412 0.0019369 0)
(0.00343634 0.00374152 0)
(0.00368723 0.00737745 0)
(0.000180389 0.000626006 0)
(0.000267708 -2.63523e-05 0)
(0.000611214 0.000111237 0)
(0.000808762 0.00024506 0)
(0.000578221 0.000569484 0)
(0.000183285 0.000747236 0)
(-0.000253014 0.000872773 0)
(-0.000663861 0.00091935 0)
(-0.000908876 0.000902325 0)
(-0.00104029 0.000871977 0)
(-0.00102919 0.000780633 0)
(-0.000941949 0.000714027 0)
(-0.000784625 0.000601667 0)
(-0.000609417 0.000536316 0)
(-0.000401733 0.000431077 0)
(-0.000217967 0.000389905 0)
(-6.30662e-06 0.000297603 0)
(0.000153312 0.000289132 0)
(0.000355405 0.000203938 0)
(0.000480124 0.000233226 0)
(0.000680157 0.000146909 0)
(0.000765742 0.000227269 0)
(0.00099331 0.00013971 0)
(0.00103007 0.000311148 0)
(0.00136806 0.000276851 0)
(0.00140032 0.000694594 0)
(0.00218353 0.00110441 0)
(0.00316104 0.00268359 0)
(0.00711321 0.0058849 0)
(0.00593516 0.0124639 0)
(-0.000858305 -0.00217721 0)
(-0.000540978 0.000246308 0)
(0.000608299 0.00061236 0)
(0.000935589 0.000586499 0)
(0.000958646 0.000675791 0)
(0.000358191 0.00067219 0)
(-0.000110384 0.000629893 0)
(-0.000655513 0.000598042 0)
(-0.000925806 0.000561173 0)
(-0.00111284 0.000528565 0)
(-0.00111609 0.000478684 0)
(-0.00104367 0.000438059 0)
(-0.000883872 0.000376846 0)
(-0.00070982 0.000338164 0)
(-0.000486045 0.000273729 0)
(-0.000304891 0.000249621 0)
(-6.83827e-05 0.000185672 0)
(7.84782e-05 0.000181667 0)
(0.000314308 0.000118052 0)
(0.000410606 0.000135241 0)
(0.000657317 7.62223e-05 0)
(0.000697673 0.000117981 0)
(0.000991997 0.000101152 0)
(0.0010001 0.000211587 0)
(0.00148036 0.000470599 0)
(0.00174903 0.00103628 0)
(0.00328245 0.00286953 0)
(0.00576783 0.00646301 0)
(0.0129079 0.0150044 0)
(0.0101542 0.0266187 0)
(0.00260973 -0.00300828 0)
(0.0030987 0.000489033 0)
(0.000971754 0.00063147 0)
(0.00086999 0.000823258 0)
(0.000656029 0.00055763 0)
(0.00011833 0.000508962 0)
(-0.000357408 0.000314741 0)
(-0.000770106 0.000271524 0)
(-0.00102108 0.000219746 0)
(-0.00117125 0.000201955 0)
(-0.00116986 0.000193828 0)
(-0.00109868 0.000181941 0)
(-0.000938619 0.000177315 0)
(-0.000770648 0.000164065 0)
(-0.000545917 0.000156828 0)
(-0.000365091 0.000141336 0)
(-0.000129891 0.000136404 0)
(2.71114e-05 0.000115839 0)
(0.000255336 0.000123274 0)
(0.00038357 9.05431e-05 0)
(0.000615895 0.000130828 0)
(0.000744081 7.69127e-05 0)
(0.00104773 0.000204695 0)
(0.00135904 0.000151569 0)
(0.00216654 0.000581873 0)
(0.00379905 0.000835088 0)
(0.00759805 0.00260036 0)
(0.0148833 0.00509763 0)
(0.0270112 0.0117978 0)
(0.0179205 0.0188623 0)
)
;

boundaryField
{
    movingWall
    {
        type            fixedValue;
        value           uniform (1 0 0);
    }
    fixedWalls
    {
        type            noSlip;
    }
    frontAndBack
    {
        type            empty;
    }
}


// ************************************************************************* //
