/*--------------------------------*- C++ -*----------------------------------*\
| =========                 |                                                 |
| \\      /  F ield         | OpenFOAM: The Open Source CFD Toolbox           |
|  \\    /   O peration     | Version:  2406                                  |
|   \\  /    A nd           | Website:  www.openfoam.com                      |
|    \\/     M anipulation  |                                                 |
\*---------------------------------------------------------------------------*/
FoamFile
{
    version     2.0;
    format      ascii;
    arch        "LSB;label=32;scalar=64";
    class       surfaceScalarField;
    location    "40.7";
    object      phi;
}
// * * * * * * * * * * * * * * * * * * * * * * * * * * * * * * * * * * * * * //

dimensions      [0 3 -1 0 0 0 0];

oriented        oriented;

internalField   nonuniform List<scalar> 
28560
(
-1.6919e-08
1.69056e-08
3.43382e-08
-5.36217e-08
1.62288e-07
-1.28462e-07
3.54715e-07
-1.95581e-07
5.91522e-07
-2.38642e-07
8.51173e-07
-2.63136e-07
1.11588e-06
-2.67189e-07
1.36921e-06
-2.56552e-07
1.60003e-06
-2.33202e-07
1.79982e-06
-2.0233e-07
1.96501e-06
-1.67014e-07
2.09464e-06
-1.31322e-07
2.19123e-06
-9.77343e-08
2.2589e-06
-6.85979e-08
2.30332e-06
-4.49564e-08
2.33029e-06
-2.73358e-08
2.34546e-06
-1.53007e-08
2.35339e-06
-7.95695e-09
2.35737e-06
-3.86641e-09
2.35898e-06
-1.4125e-09
2.35817e-06
1.13215e-09
2.35325e-06
5.34621e-09
2.34126e-06
1.2585e-08
2.31819e-06
2.38594e-08
2.2794e-06
3.98512e-08
2.21984e-06
6.09364e-08
2.13433e-06
8.72856e-08
2.0176e-06
1.18952e-07
1.86439e-06
1.55968e-07
1.66934e-06
1.98387e-07
1.42704e-06
2.4631e-07
1.13191e-06
2.99859e-07
7.78307e-07
3.59137e-07
3.60524e-07
4.24178e-07
-1.27059e-07
4.94903e-07
-6.89839e-07
5.7108e-07
-1.33281e-06
6.52297e-07
-2.06036e-06
7.37942e-07
-2.87607e-06
8.27196e-07
-3.78251e-06
9.19027e-07
-4.78104e-06
1.01219e-06
-5.87156e-06
1.10525e-06
-7.0524e-06
1.19659e-06
-8.32014e-06
1.28443e-06
-9.66948e-06
1.36688e-06
-1.10932e-05
1.44197e-06
-1.2582e-05
1.5077e-06
-1.41248e-05
1.56207e-06
-1.57084e-05
1.60314e-06
-1.73179e-05
1.62904e-06
-1.89366e-05
1.63806e-06
-2.05462e-05
1.62864e-06
-2.21273e-05
1.59941e-06
-2.36591e-05
1.54923e-06
-2.512e-05
1.4772e-06
-2.64879e-05
1.38268e-06
-2.774e-05
1.26532e-06
-2.88538e-05
1.1251e-06
-2.98069e-05
9.62336e-07
-3.05778e-05
7.77701e-07
-3.11457e-05
5.72285e-07
-3.14917e-05
3.47616e-07
-3.15985e-05
1.05692e-07
-3.14515e-05
-1.5098e-07
-3.10391e-05
-4.19365e-07
-3.03532e-05
-6.95884e-07
-2.93897e-05
-9.76418e-07
-2.81491e-05
-1.25633e-06
-2.66371e-05
-1.53054e-06
-2.48646e-05
-1.79355e-06
-2.28485e-05
-2.03965e-06
-2.06111e-05
-2.26298e-06
-1.81807e-05
-2.45779e-06
-1.5591e-05
-2.61862e-06
-1.28805e-05
-2.74055e-06
-1.00918e-05
-2.81944e-06
-7.27073e-06
-2.85217e-06
-4.46475e-06
-2.83689e-06
-1.72193e-06
-2.77315e-06
9.10817e-07
-2.66206e-06
3.38926e-06
-2.5063e-06
5.67335e-06
-2.31012e-06
7.72869e-06
-2.07916e-06
9.52762e-06
-1.82027e-06
1.10502e-05
-1.54117e-06
1.22847e-05
-1.25014e-06
1.32276e-05
-9.55604e-07
1.38838e-05
-6.65743e-07
1.42653e-05
-3.88114e-07
1.4391e-05
-1.2934e-07
1.42849e-05
1.05149e-07
1.3975e-05
3.1128e-07
1.34923e-05
4.86413e-07
1.28684e-05
6.29321e-07
1.21353e-05
7.40106e-07
1.13235e-05
8.20024e-07
1.04613e-05
8.71296e-07
9.57408e-06
8.96853e-07
8.68389e-06
9.00117e-07
7.80911e-06
8.84741e-07
6.9645e-06
8.54444e-07
6.16123e-06
8.12774e-07
5.40725e-06
7.63066e-07
4.70753e-06
7.08238e-07
4.06463e-06
6.50898e-07
3.47882e-06
5.93118e-07
2.94886e-06
5.36743e-07
2.47192e-06
4.8299e-07
2.04451e-06
4.33037e-07
1.66218e-06
3.87191e-07
1.32085e-06
3.45965e-07
1.01625e-06
3.08371e-07
7.45966e-07
2.7409e-07
5.08609e-07
2.40075e-07
3.06345e-07
2.05304e-07
1.43819e-07
1.64086e-07
2.88479e-08
1.17141e-07
-2.93387e-08
5.85902e-08
-3.2431e-08
4.29212e-09
-3.24824e-08
5.13387e-08
-3.20663e-08
2.52423e-07
-2.54666e-07
6.06664e-07
-4.78044e-07
1.08783e-06
-6.73978e-07
1.66145e-06
-8.06425e-07
2.28407e-06
-8.81174e-07
2.9181e-06
-8.9516e-07
3.52739e-06
-8.60931e-07
4.08579e-06
-7.86352e-07
4.57296e-06
-6.85363e-07
4.97847e-06
-5.68654e-07
5.29807e-06
-4.48063e-07
5.53484e-06
-3.32126e-07
5.69583e-06
-2.27995e-07
5.79156e-06
-1.39532e-07
5.83329e-06
-6.8427e-08
5.832e-06
-1.36619e-08
5.7965e-06
2.75792e-08
5.73276e-06
5.97366e-08
5.64297e-06
8.80385e-08
5.52554e-06
1.18051e-07
5.37513e-06
1.55002e-07
5.18327e-06
2.03423e-07
4.9389e-06
2.66821e-07
4.62922e-06
3.4765e-07
4.24028e-06
4.47393e-07
3.75756e-06
5.66813e-07
3.16627e-06
7.06212e-07
2.45156e-06
8.65679e-07
1.59862e-06
1.04523e-06
5.92777e-07
1.24483e-06
-5.80382e-07
1.46434e-06
-1.93478e-06
1.70338e-06
-3.48353e-06
1.96116e-06
-5.23849e-06
2.23637e-06
-7.20978e-06
2.52704e-06
-9.40522e-06
2.8305e-06
-1.18298e-05
3.14331e-06
-1.44852e-05
3.46131e-06
-1.73691e-05
3.77961e-06
-2.04749e-05
4.0927e-06
-2.37915e-05
4.39454e-06
-2.73028e-05
4.67871e-06
-3.09879e-05
4.93854e-06
-3.48208e-05
5.1673e-06
-3.8771e-05
5.3584e-06
-4.28038e-05
5.50556e-06
-4.68804e-05
5.60296e-06
-5.09587e-05
5.6454e-06
-5.49943e-05
5.62844e-06
-5.89406e-05
5.54845e-06
-6.27497e-05
5.40269e-06
-6.63736e-05
5.18936e-06
-6.97641e-05
4.90757e-06
-7.28743e-05
4.55734e-06
-7.56588e-05
4.13964e-06
-7.80741e-05
3.65629e-06
-8.00799e-05
3.11001e-06
-8.16389e-05
2.50438e-06
-8.27177e-05
1.84388e-06
-8.32871e-05
1.13387e-06
-8.3323e-05
3.80655e-07
-8.28064e-05
-4.08523e-07
-8.17242e-05
-1.22542e-06
-8.00694e-05
-2.06077e-06
-7.7842e-05
-2.90432e-06
-7.50491e-05
-3.74481e-06
-7.17054e-05
-4.57009e-06
-6.78336e-05
-5.36718e-06
-6.34645e-05
-6.1225e-06
-5.86375e-05
-6.82209e-06
-5.33999e-05
-7.45194e-06
-4.78073e-05
-7.99835e-06
-4.19226e-05
-8.44837e-06
-3.58158e-05
-8.79031e-06
-2.95626e-05
-9.01424e-06
-2.32434e-05
-9.1125e-06
-1.69415e-05
-9.08018e-06
-1.07417e-05
-8.91555e-06
-4.72799e-06
-8.62034e-06
1.01831e-06
-8.19995e-06
6.42072e-06
-7.66342e-06
1.14098e-05
-7.02332e-06
1.5925e-05
-6.29535e-06
1.99166e-05
-5.49786e-06
2.3347e-05
-4.65117e-06
2.61918e-05
-3.77677e-06
2.84405e-05
-2.89652e-06
3.00963e-05
-2.03171e-06
3.1176e-05
-1.20228e-06
3.1709e-05
-4.26045e-07
3.17355e-05
2.81973e-07
3.13051e-05
9.09995e-07
3.04743e-05
1.4498e-06
2.93044e-05
1.89686e-06
2.78589e-05
2.25018e-06
2.62012e-05
2.51214e-06
2.43921e-05
2.68795e-06
2.24886e-05
2.7852e-06
2.05416e-05
2.81313e-06
1.85957e-05
2.78211e-06
1.66878e-05
2.7029e-06
1.48478e-05
2.5862e-06
1.30981e-05
2.44208e-06
1.14543e-05
2.27987e-06
9.92607e-06
2.10763e-06
8.51792e-06
1.93243e-06
7.2297e-06
1.75974e-06
6.05838e-06
1.59417e-06
4.99804e-06
1.43812e-06
4.04246e-06
1.29342e-06
3.18473e-06
1.15844e-06
2.42096e-06
1.03164e-06
1.74901e-06
9.05887e-07
1.17309e-06
7.76972e-07
7.00257e-07
6.32325e-07
3.43137e-07
4.72264e-07
1.11848e-07
2.86978e-07
5.68555e-09
1.1061e-07
-2.79762e-08
1.20589e-07
-1.52188e-07
4.63752e-07
-6.02439e-07
1.01488e-06
-1.0292e-06
1.727e-06
-1.39096e-06
2.55615e-06
-1.63806e-06
3.44376e-06
-1.77383e-06
4.34076e-06
-1.79573e-06
5.19851e-06
-1.72331e-06
5.98147e-06
-1.5728e-06
6.66132e-06
-1.36889e-06
7.22257e-06
-1.13262e-06
7.65784e-06
-8.85824e-07
7.96923e-06
-6.45256e-07
8.16421e-06
-4.24391e-07
8.25477e-06
-2.30963e-07
8.2539e-06
-6.81723e-08
8.17417e-06
6.57935e-08
8.02517e-06
1.76468e-07
7.8125e-06
2.72489e-07
7.53656e-06
3.64187e-07
7.19244e-06
4.62548e-07
6.77e-06
5.77994e-07
6.25462e-06
7.19579e-07
5.6281e-06
8.94401e-07
4.86972e-06
1.10748e-06
3.95713e-06
1.36189e-06
2.8672e-06
1.65921e-06
1.57657e-06
1.99996e-06
6.21309e-08
2.384e-06
-1.69869e-06
2.81079e-06
-3.72748e-06
3.27933e-06
-6.04441e-06
3.78806e-06
-8.66763e-06
4.33456e-06
-1.16125e-05
4.9153e-06
-1.48909e-05
5.52538e-06
-1.85102e-05
6.15836e-06
-2.24723e-05
6.80623e-06
-2.67732e-05
7.45942e-06
-3.1402e-05
8.10695e-06
-3.63406e-05
8.73664e-06
-4.15632e-05
9.33545e-06
-4.70368e-05
9.88976e-06
-5.27208e-05
1.03859e-05
-5.85681e-05
1.08105e-05
-6.45259e-05
1.11509e-05
-7.05362e-05
1.13956e-05
-7.65377e-05
1.15347e-05
-8.24664e-05
1.15599e-05
-8.82573e-05
1.14649e-05
-9.38457e-05
1.12453e-05
-9.91678e-05
1.08988e-05
-0.000104163
1.04249e-05
-0.000108772
9.82491e-06
-0.000112941
9.10184e-06
-0.00011662
8.26005e-06
-0.000119765
7.30529e-06
-0.000122334
6.24441e-06
-0.000124293
5.08539e-06
-0.000125613
3.83719e-06
-0.00012627
2.50975e-06
-0.000126244
1.11399e-06
-0.000125524
-3.38132e-07
-0.000124101
-1.83358e-06
-0.000121975
-3.35816e-06
-0.000119151
-4.89651e-06
-0.000115638
-6.43199e-06
-0.000111456
-7.94675e-06
-0.000106629
-9.42175e-06
-0.000101187
-1.08369e-05
-9.51707e-05
-1.21713e-05
-8.86251e-05
-1.34034e-05
-8.16041e-05
-1.45117e-05
-7.4169e-05
-1.5475e-05
-6.63879e-05
-1.62732e-05
-5.83358e-05
-1.68877e-05
-5.00938e-05
-1.73027e-05
-4.17479e-05
-1.75052e-05
-3.33882e-05
-1.74864e-05
-2.5107e-05
-1.72422e-05
-1.69978e-05
-1.67735e-05
-9.15283e-06
-1.60867e-05
-1.66131e-06
-1.51938e-05
5.39246e-06
-1.41127e-05
1.19313e-05
-1.2866e-05
1.78869e-05
-1.14812e-05
2.32019e-05
-9.98943e-06
2.78309e-05
-8.42465e-06
3.17425e-05
-6.82232e-06
3.49192e-05
-5.21825e-06
3.73587e-05
-3.6474e-06
3.90736e-05
-2.14259e-06
4.00909e-05
-7.33426e-07
4.04514e-05
5.54728e-07
4.02075e-05
1.70153e-06
3.94222e-05
2.69229e-06
3.8166e-05
3.51824e-06
3.65146e-05
4.17665e-06
3.45461e-05
4.67049e-06
3.23379e-05
5.00792e-06
2.99641e-05
5.20144e-06
2.74937e-05
5.26696e-06
2.49879e-05
5.22258e-06
2.24998e-05
5.08764e-06
2.00729e-05
4.88151e-06
1.77416e-05
4.62293e-06
1.5531e-05
4.32905e-06
1.3458e-05
4.01535e-06
1.15321e-05
3.69457e-06
9.75713e-06
3.37744e-06
8.13159e-06
3.07083e-06
6.65227e-06
2.77953e-06
5.31364e-06
2.50262e-06
4.11312e-06
2.23773e-06
3.0488e-06
1.97413e-06
2.12663e-06
1.70368e-06
1.3536e-06
1.4074e-06
7.46152e-07
1.08332e-06
3.14313e-07
7.18576e-07
6.97642e-08
3.58225e-07
4.11345e-08
1.82603e-07
-3.31667e-07
6.51292e-07
-1.07385e-06
1.36733e-06
-1.74038e-06
2.26104e-06
-2.28472e-06
3.27974e-06
-2.65259e-06
4.35338e-06
-2.84582e-06
5.42614e-06
-2.86477e-06
6.44153e-06
-2.73645e-06
7.35877e-06
-2.48696e-06
8.14458e-06
-2.15264e-06
8.78034e-06
-1.76612e-06
9.25613e-06
-1.36009e-06
9.57264e-06
-9.60338e-07
9.73622e-06
-5.87073e-07
9.75809e-06
-2.52083e-07
9.65022e-06
4.00963e-08
9.42375e-06
2.92534e-07
9.08606e-06
5.14222e-07
8.63959e-06
7.18928e-07
8.0805e-06
9.2311e-07
7.39857e-06
1.14419e-06
6.57744e-06
1.3987e-06
5.59552e-06
1.70091e-06
4.42709e-06
2.06202e-06
3.04365e-06
2.48983e-06
1.4151e-06
2.98901e-06
-4.89207e-07
3.56168e-06
-2.69957e-06
4.208e-06
-5.24517e-06
4.92674e-06
-8.15333e-06
5.71546e-06
-1.14486e-05
6.57045e-06
-1.5152e-05
7.48646e-06
-1.92796e-05
8.45629e-06
-2.38414e-05
9.47042e-06
-2.88406e-05
1.05168e-05
-3.42716e-05
1.15806e-05
-4.012e-05
1.26447e-05
-4.63613e-05
1.36897e-05
-5.2961e-05
1.46945e-05
-5.98746e-05
1.56369e-05
-6.70483e-05
1.64946e-05
-7.44199e-05
1.72457e-05
-8.19204e-05
1.78697e-05
-8.94758e-05
1.83481e-05
-9.70087e-05
1.86652e-05
-0.000104441
1.88084e-05
-0.000111694
1.87683e-05
-0.000118694
1.85393e-05
-0.000125368
1.81188e-05
-0.000131651
1.75075e-05
-0.000137481
1.67089e-05
-0.000142804
1.57288e-05
-0.000147573
1.4575e-05
-0.000151745
1.32568e-05
-0.000155286
1.17849e-05
-0.000158166
1.01708e-05
-0.000160361
8.42698e-06
-0.000161853
6.56638e-06
-0.000162627
4.60267e-06
-0.000162673
2.55014e-06
-0.000161986
4.23812e-07
-0.000160564
-1.76044e-06
-0.00015841
-3.98572e-06
-0.000155528
-6.23395e-06
-0.000151931
-8.48571e-06
-0.000147631
-1.07201e-05
-0.000142649
-1.29147e-05
-0.000137008
-1.50456e-05
-0.000130737
-1.70871e-05
-0.000123874
-1.90126e-05
-0.000116458
-2.07944e-05
-0.000108538
-2.24044e-05
-0.00010017
-2.38144e-05
-9.14152e-05
-2.49975e-05
-8.23433e-05
-2.59284e-05
-7.30295e-05
-2.65846e-05
-6.35552e-05
-2.69474e-05
-5.40069e-05
-2.70029e-05
-4.44746e-05
-2.67432e-05
-3.50512e-05
-2.61668e-05
-2.58301e-05
-2.52792e-05
-1.69036e-05
-2.40936e-05
-8.36135e-06
-2.26304e-05
-2.88062e-07
-2.09173e-05
7.23815e-06
-1.89882e-05
1.41475e-05
-1.68825e-05
2.03802e-05
-1.46441e-05
2.58876e-05
-1.23196e-05
3.06334e-05
-9.957e-06
3.45948e-05
-7.6046e-06
3.77627e-05
-5.30907e-06
4.01424e-05
-3.11422e-06
4.17536e-05
-1.05973e-06
4.26297e-05
8.20113e-07
4.28177e-05
2.49743e-06
4.23762e-05
3.95157e-06
4.13739e-05
5.16975e-06
3.98874e-05
6.1472e-06
3.79982e-05
6.88707e-06
3.57895e-05
7.39986e-06
3.33438e-05
7.70248e-06
3.07396e-05
7.8169e-06
2.8049e-05
7.76883e-06
2.53356e-05
7.58589e-06
2.26538e-05
7.29641e-06
2.00474e-05
6.92768e-06
1.75504e-05
6.50535e-06
1.51867e-05
6.05168e-06
1.29726e-05
5.58589e-06
1.09162e-05
5.12174e-06
9.02216e-06
4.66913e-06
7.29027e-06
4.22994e-06
5.72234e-06
3.8025e-06
4.31837e-06
3.37418e-06
3.08691e-06
2.93345e-06
2.03464e-06
2.45611e-06
1.18244e-06
1.93578e-06
5.41946e-07
1.35523e-06
1.443e-07
7.58495e-07
1.83075e-07
2.2602e-07
-5.55807e-07
7.93062e-07
-1.6468e-06
1.64047e-06
-2.58517e-06
2.67577e-06
-3.32426e-06
3.83538e-06
-3.81207e-06
5.03773e-06
-4.0515e-06
6.22115e-06
-4.04923e-06
7.32319e-06
-3.84117e-06
8.30005e-06
-3.4652e-06
9.11564e-06
-2.97026e-06
9.7499e-06
-2.40158e-06
1.01915e-05
-1.8031e-06
1.04401e-05
-1.20977e-06
1.05006e-05
-6.48335e-07
1.03822e-05
-1.34169e-07
1.00943e-05
3.27597e-07
9.64448e-06
7.42184e-07
9.03554e-06
1.12306e-06
8.26435e-06
1.49016e-06
7.32056e-06
1.86701e-06
6.18674e-06
2.27823e-06
4.83881e-06
2.74694e-06
3.24729e-06
3.29288e-06
1.37875e-06
3.93118e-06
-8.02605e-07
4.672e-06
-3.33341e-06
5.52089e-06
-6.24977e-06
6.47941e-06
-9.58599e-06
7.54595e-06
-1.33734e-05
8.71624e-06
-1.76388e-05
9.9835e-06
-2.24035e-05
1.13383e-05
-2.76813e-05
1.2768e-05
-3.34773e-05
1.42566e-05
-3.97861e-05
1.57843e-05
-4.65909e-05
1.73273e-05
-5.38624e-05
1.88587e-05
-6.15587e-05
2.03484e-05
-6.96257e-05
2.17648e-05
-7.79976e-05
2.30754e-05
-8.65992e-05
2.42484e-05
-9.53476e-05
2.52537e-05
-0.000104155
2.60646e-05
-0.000112932
2.66584e-05
-0.000121588
2.70171e-05
-0.000130037
2.71279e-05
-0.000138198
2.69835e-05
-0.000145997
2.65812e-05
-0.000153366
2.59231e-05
-0.000160248
2.5015e-05
-0.000166593
2.38662e-05
-0.000172358
2.24879e-05
-0.000177509
2.08937e-05
-0.000182019
1.90981e-05
-0.000185867
1.71162e-05
-0.000189034
1.49637e-05
-0.00019151
1.26563e-05
-0.000193284
1.02099e-05
-0.000194351
7.64025e-06
-0.000194707
4.96329e-06
-0.000194348
2.19524e-06
-0.000193275
-6.47142e-07
-0.00019149
-3.54635e-06
-0.000188994
-6.48376e-06
-0.000185793
-9.4394e-06
-0.000181894
-1.23916e-05
-0.000177306
-1.53168e-05
-0.000172042
-1.81893e-05
-0.000166119
-2.09814e-05
-0.000159557
-2.3663e-05
-0.000152384
-2.62022e-05
-0.000144631
-2.85653e-05
-0.000136337
-3.07176e-05
-0.000127548
-3.26241e-05
-0.000118317
-3.42502e-05
-0.000108704
-3.55629e-05
-9.87792e-05
-3.6532e-05
-8.86172e-05
-3.71318e-05
-7.83005e-05
-3.73419e-05
-6.79168e-05
-3.71488e-05
-5.75577e-05
-3.6547e-05
-4.73175e-05
-3.55395e-05
-3.72906e-05
-3.41391e-05
-2.75705e-05
-3.23677e-05
-1.8247e-05
-3.02562e-05
-9.4046e-06
-2.78441e-05
-1.1208e-06
-2.51778e-05
6.53535e-06
-2.23097e-05
1.35045e-05
-1.9296e-05
1.97379e-05
-1.61956e-05
2.51983e-05
-1.30681e-05
2.98603e-05
-9.97221e-06
3.37108e-05
-6.9642e-06
3.67498e-05
-4.09659e-06
3.89902e-05
-1.41677e-06
4.04581e-05
1.0342e-06
4.11926e-05
3.22273e-06
4.1245e-05
5.12368e-06
4.06778e-05
6.72114e-06
3.95631e-05
8.00888e-06
3.79798e-05
8.99034e-06
3.60113e-05
9.6782e-06
3.37419e-05
1.00933e-05
3.12542e-05
1.02633e-05
2.86257e-05
1.02207e-05
2.5927e-05
1.00011e-05
2.32192e-05
9.64095e-06
2.05539e-05
9.17589e-06
1.79715e-05
8.63864e-06
1.55034e-05
8.05831e-06
1.31711e-05
7.45759e-06
1.09905e-05
6.8535e-06
8.96994e-06
6.25309e-06
7.11854e-06
5.6572e-06
5.44067e-06
5.05347e-06
3.94963e-06
4.42768e-06
2.6539e-06
3.75165e-06
1.58141e-06
3.01199e-06
7.48916e-07
2.18502e-06
2.10072e-07
1.30257e-06
3.91134e-07
2.59897e-07
-8.12052e-07
9.04274e-07
-2.29611e-06
1.85312e-06
-3.52869e-06
2.99317e-06
-4.46633e-06
4.2489e-06
-5.06434e-06
5.52761e-06
-5.33043e-06
6.76216e-06
-5.28127e-06
7.88557e-06
-4.96398e-06
8.8525e-06
-4.43026e-06
9.62574e-06
-3.74271e-06
1.01852e-05
-2.95976e-06
1.05192e-05
-2.13642e-06
1.06267e-05
-1.31638e-06
1.05107e-05
-5.31906e-07
1.01778e-05
1.99191e-07
9.63305e-06
8.72521e-07
8.87863e-06
1.49679e-06
7.91051e-06
2.09122e-06
6.71777e-06
2.6829e-06
5.28152e-06
3.30316e-06
3.57547e-06
3.98413e-06
1.56682e-06
4.75534e-06
-7.8201e-07
5.64137e-06
-3.51156e-06
6.66025e-06
-6.6633e-06
7.82312e-06
-1.02778e-05
9.13457e-06
-1.43928e-05
1.05934e-05
-1.90418e-05
1.21936e-05
-2.42518e-05
1.39246e-05
-3.00416e-05
1.57714e-05
-3.64199e-05
1.77143e-05
-4.33835e-05
1.97288e-05
-5.09152e-05
2.17851e-05
-5.89833e-05
2.38487e-05
-6.75407e-05
2.58805e-05
-7.65255e-05
2.78386e-05
-8.58622e-05
2.96797e-05
-9.54641e-05
3.13607e-05
-0.000105236
3.28409e-05
-0.000115079
3.40835e-05
-0.00012489
3.50574e-05
-0.000134572
3.57383e-05
-0.000144032
3.61089e-05
-0.000153183
3.61591e-05
-0.000161951
3.5886e-05
-0.00017027
3.52926e-05
-0.000178086
3.43871e-05
-0.000185355
3.31818e-05
-0.000192042
3.16921e-05
-0.000198121
2.99354e-05
-0.000203573
2.793e-05
-0.000208384
2.56949e-05
-0.000212543
2.32491e-05
-0.000216046
2.06109e-05
-0.000218888
1.77982e-05
-0.000221066
1.48281e-05
-0.000222579
1.17173e-05
-0.000223425
8.48184e-06
-0.000223603
5.13766e-06
-0.00022311
1.70089e-06
-0.000221946
-1.81187e-06
-0.000220108
-5.38311e-06
-0.000217596
-8.99401e-06
-0.000214407
-1.2624e-05
-0.000210543
-1.62505e-05
-0.000206005
-1.98482e-05
-0.000200797
-2.33893e-05
-0.000194926
-2.68429e-05
-0.000188403
-3.01753e-05
-0.000181243
-3.33498e-05
-0.000173469
-3.63271e-05
-0.000165106
-3.90661e-05
-0.000156191
-4.15242e-05
-0.000146768
-4.36587e-05
-0.000136887
-4.54282e-05
-0.000126609
-4.67936e-05
-0.000116005
-4.77202e-05
-0.000105151
-4.81793e-05
-9.41346e-05
-4.81501e-05
-8.3046e-05
-4.76206e-05
-7.19815e-05
-4.65898e-05
-6.10395e-05
-4.50679e-05
-5.03183e-05
-4.30767e-05
-3.9914e-05
-4.06496e-05
-2.99181e-05
-3.78303e-05
-2.04156e-05
-3.46721e-05
-1.14832e-05
-3.12353e-05
-3.1879e-06
-2.75859e-05
4.4133e-06
-2.37929e-05
1.12742e-05
-1.99266e-05
1.73596e-05
-1.60565e-05
2.26449e-05
-1.22497e-05
2.71166e-05
-8.56954e-06
3.07721e-05
-5.07454e-06
3.36202e-05
-1.81698e-06
3.56811e-05
1.15795e-06
3.69872e-05
3.8133e-06
3.75823e-05
6.12136e-06
3.75216e-05
8.06459e-06
3.68707e-05
9.63622e-06
3.57033e-05
1.08405e-05
3.40993e-05
1.16924e-05
3.21415e-05
1.22163e-05
2.99127e-05
1.24449e-05
2.74926e-05
1.2417e-05
2.49547e-05
1.21748e-05
2.2365e-05
1.1762e-05
1.97795e-05
1.12207e-05
1.72451e-05
1.05899e-05
1.47976e-05
9.90204e-06
1.24664e-05
9.18266e-06
1.02708e-05
8.4459e-06
8.22992e-06
7.69694e-06
6.35483e-06
6.92585e-06
4.66584e-06
6.11676e-06
3.17566e-06
5.23856e-06
1.92103e-06
4.26875e-06
9.26127e-07
3.17487e-06
2.66377e-07
1.96748e-06
6.54067e-07
2.84549e-07
-1.09368e-06
9.87334e-07
-3.00572e-06
2.01117e-06
-4.54826e-06
3.22354e-06
-5.68291e-06
4.5363e-06
-6.37552e-06
5.84563e-06
-6.64244e-06
7.07879e-06
-6.51418e-06
8.16501e-06
-6.05204e-06
9.05841e-06
-5.32396e-06
9.72191e-06
-4.40749e-06
1.01365e-05
-3.37481e-06
1.0291e-05
-2.2917e-06
1.01838e-05
-1.20959e-06
9.81627e-06
-1.64832e-07
9.19119e-06
8.24057e-07
8.3082e-06
1.75527e-06
7.16218e-06
2.64272e-06
5.74051e-06
3.51281e-06
4.02261e-06
4.40082e-06
1.97956e-06
5.34626e-06
-4.24653e-07
6.38847e-06
-3.23161e-06
7.56247e-06
-6.48604e-06
8.89607e-06
-1.02335e-05
1.04081e-05
-1.45179e-05
1.2108e-05
-1.9379e-05
1.39963e-05
-2.48504e-05
1.60656e-05
-3.09569e-05
1.83012e-05
-3.77126e-05
2.06815e-05
-4.51182e-05
2.31784e-05
-5.3159e-05
2.57569e-05
-6.18035e-05
2.83754e-05
-7.10024e-05
3.09865e-05
-8.0689e-05
3.35381e-05
-9.07808e-05
3.59755e-05
-0.000101182
3.82433e-05
-0.000111787
4.02886e-05
-0.000122485
4.20633e-05
-0.000133165
4.35258e-05
-0.00014372
4.46433e-05
-0.000154049
4.53925e-05
-0.000164064
4.57593e-05
-0.000173688
4.57389e-05
-0.000182857
4.53344e-05
-0.000191519
4.45556e-05
-0.000199637
4.34176e-05
-0.000207182
4.19392e-05
-0.000214135
4.01414e-05
-0.000220482
3.80467e-05
-0.000226218
3.56779e-05
-0.000231338
3.30572e-05
-0.000235843
3.02059e-05
-0.000239732
2.71444e-05
-0.000243007
2.38916e-05
-0.000245669
2.04651e-05
-0.000247719
1.68816e-05
-0.000249154
1.31566e-05
-0.000249975
9.30515e-06
-0.000250178
5.34211e-06
-0.000249758
1.28243e-06
-0.000248712
-2.85834e-06
-0.000247033
-7.06354e-06
-0.000244714
-1.13149e-05
-0.000241749
-1.55923e-05
-0.000238131
-1.98726e-05
-0.000233854
-2.41302e-05
-0.000228914
-2.83358e-05
-0.000223307
-3.24564e-05
-0.000217036
-3.64553e-05
-0.000210102
-4.02918e-05
-0.000202517
-4.39218e-05
-0.000194296
-4.72977e-05
-0.00018546
-5.03698e-05
-0.000176043
-5.30871e-05
-0.000166084
-5.53983e-05
-0.000155635
-5.72545e-05
-0.000144756
-5.86103e-05
-0.00013352
-5.94263e-05
-0.00012201
-5.96715e-05
-0.000110316
-5.9325e-05
-9.85369e-05
-5.83785e-05
-8.67773e-05
-5.68369e-05
-7.51429e-05
-5.47196e-05
-6.37397e-05
-5.20605e-05
-5.26697e-05
-4.8907e-05
-4.20291e-05
-4.53185e-05
-3.19051e-05
-4.13641e-05
-2.23745e-05
-3.71203e-05
-1.35025e-05
-3.26676e-05
-5.34253e-06
-2.80884e-05
2.0639e-06
-2.34637e-05
8.68624e-06
-1.88719e-05
1.45043e-05
-1.43867e-05
1.95076e-05
-1.00763e-05
2.36951e-05
-6.00227e-06
2.70748e-05
-2.21911e-06
2.96645e-05
1.22658e-06
3.14922e-05
4.29698e-06
3.25962e-05
6.96403e-06
3.30256e-05
9.21036e-06
3.28396e-05
1.10301e-05
3.21062e-05
1.24293e-05
3.09004e-05
1.34254e-05
2.93016e-05
1.40469e-05
2.73907e-05
1.4331e-05
2.52466e-05
1.43217e-05
2.2944e-05
1.40673e-05
2.05502e-05
1.36167e-05
1.81254e-05
1.30172e-05
1.57186e-05
1.23105e-05
1.33726e-05
1.15308e-05
1.1119e-05
1.07005e-05
8.98795e-06
9.83024e-06
6.99956e-06
8.91425e-06
5.18316e-06
7.93586e-06
3.55819e-06
6.86194e-06
2.17158e-06
5.65946e-06
1.05637e-06
4.28557e-06
3.06889e-07
2.72384e-06
9.57781e-07
3.0524e-07
-1.39496e-06
1.05275e-06
-3.75957e-06
2.1288e-06
-5.61856e-06
3.38277e-06
-6.94005e-06
4.71394e-06
-7.70344e-06
6.00806e-06
-7.93776e-06
7.1873e-06
-7.69142e-06
8.17823e-06
-7.04322e-06
8.93545e-06
-6.07988e-06
9.42322e-06
-4.89512e-06
9.62448e-06
-3.57522e-06
9.52886e-06
-2.19587e-06
9.13457e-06
-8.14779e-07
8.44025e-06
5.29661e-07
7.44412e-06
1.82047e-06
6.1388e-06
3.06068e-06
4.51031e-06
4.27135e-06
2.53568e-06
5.48745e-06
1.8345e-07
6.75307e-06
-2.58597e-06
8.11563e-06
-5.81804e-06
9.62045e-06
-9.56165e-06
1.13059e-05
-1.3866e-05
1.32002e-05
-1.87775e-05
1.53193e-05
-2.43369e-05
1.7667e-05
-3.05765e-05
2.02354e-05
-3.75169e-05
2.30055e-05
-4.51652e-05
2.59487e-05
-5.35118e-05
2.90271e-05
-6.25284e-05
3.21939e-05
-7.2167e-05
3.53942e-05
-8.23596e-05
3.85665e-05
-9.30197e-05
4.16448e-05
-0.000104045
4.45611e-05
-0.000115321
4.72491e-05
-0.000126727
4.9647e-05
-0.000138143
5.17012e-05
-0.00014945
5.33678e-05
-0.000160543
5.46148e-05
-0.000171326
5.54221e-05
-0.000181718
5.57808e-05
-0.000191656
5.56926e-05
-0.000201089
5.51677e-05
-0.000209982
5.42227e-05
-0.00021831
5.28793e-05
-0.00022606
5.11621e-05
-0.000233223
4.90973e-05
-0.000239798
4.67114e-05
-0.000245786
4.40303e-05
-0.000251192
4.10789e-05
-0.00025602
3.78805e-05
-0.000260275
3.44567e-05
-0.000263962
3.08272e-05
-0.000267084
2.701e-05
-0.000269643
2.30217e-05
-0.000271642
1.88775e-05
-0.000273079
1.45915e-05
-0.000273953
1.01771e-05
-0.000274259
5.6477e-06
-0.000273993
1.01656e-06
-0.000273149
-3.70229e-06
-0.000271718
-8.4937e-06
-0.00026969
-1.33408e-05
-0.000267055
-1.82245e-05
-0.000263802
-2.31229e-05
-0.000259917
-2.80106e-05
-0.00025539
-3.28585e-05
-0.000250208
-3.76329e-05
-0.000244361
-4.22957e-05
-0.000237843
-4.68037e-05
-0.000230649
-5.11091e-05
-0.00022278
-5.51593e-05
-0.000214244
-5.88981e-05
-0.000205057
-6.22663e-05
-0.000195243
-6.52032e-05
-0.000184841
-6.76488e-05
-0.000173898
-6.95454e-05
-0.000162475
-7.08408e-05
-0.000150648
-7.14905e-05
-0.000138504
-7.14612e-05
-0.000126143
-7.07327e-05
-0.000113673
-6.93008e-05
-0.000101208
-6.71782e-05
-8.88672e-05
-6.43957e-05
-7.6768e-05
-6.10014e-05
-6.50228e-05
-5.70596e-05
-5.37358e-05
-5.26477e-05
-4.29996e-05
-4.78538e-05
-3.28934e-05
-4.27718e-05
-2.34817e-05
-3.74988e-05
-1.48142e-05
-3.21306e-05
-6.92702e-06
-2.67591e-05
1.5596e-07
-2.14703e-05
6.42145e-06
-1.63428e-05
1.18651e-05
-1.14474e-05
1.64905e-05
-6.84627e-06
2.03086e-05
-2.59354e-06
2.33379e-05
1.2655e-06
2.56049e-05
4.69465e-06
2.7145e-05
7.66774e-06
2.80032e-05
1.01695e-05
2.82336e-05
1.21965e-05
2.78991e-05
1.37575e-05
2.70701e-05
1.48737e-05
2.58219e-05
1.55771e-05
2.4232e-05
1.59095e-05
2.2378e-05
1.59196e-05
2.0333e-05
1.56598e-05
1.81659e-05
1.51829e-05
1.59367e-05
1.4538e-05
1.36996e-05
1.3767e-05
1.1498e-05
1.29004e-05
9.37339e-06
1.19547e-05
7.35624e-06
1.09293e-05
5.48595e-06
9.80724e-06
3.79048e-06
8.55419e-06
2.32713e-06
7.12605e-06
1.13815e-06
5.46875e-06
3.32396e-07
3.53629e-06
1.28616e-06
3.21999e-07
-1.7134e-06
1.1019e-06
-4.54687e-06
2.20885e-06
-6.72028e-06
3.47463e-06
-8.21013e-06
4.78624e-06
-9.01271e-06
6.0199e-06
-9.17385e-06
7.09359e-06
-8.7642e-06
7.93244e-06
-7.88352e-06
8.49261e-06
-6.63982e-06
8.74071e-06
-5.14412e-06
8.66212e-06
-3.49667e-06
8.24759e-06
-1.78188e-06
7.49449e-06
-6.17816e-08
6.39808e-06
1.62575e-06
4.9506e-06
3.26788e-06
3.1362e-06
4.87491e-06
9.3062e-07
6.4769e-06
-1.70042e-06
8.11843e-06
-4.79962e-06
9.85229e-06
-8.41649e-06
1.17325e-05
-1.26039e-05
1.38079e-05
-1.74147e-05
1.61168e-05
-2.28974e-05
1.86831e-05
-2.90932e-05
2.15153e-05
-3.60317e-05
2.46058e-05
-4.37283e-05
2.79324e-05
-5.21813e-05
3.14589e-05
-6.13689e-05
3.5137e-05
-7.12481e-05
3.8907e-05
-8.17534e-05
4.27e-05
-9.27978e-05
4.64396e-05
-0.000104276
5.00454e-05
-0.000116066
5.34369e-05
-0.000128041
5.65375e-05
-0.000140069
5.92783e-05
-0.000152022
6.16021e-05
-0.000163783
6.34647e-05
-0.00017525
6.48367e-05
-0.000186335
6.57027e-05
-0.000196971
6.60602e-05
-0.000207105
6.59178e-05
-0.000216701
6.52923e-05
-0.000225738
6.42072e-05
-0.000234201
6.26896e-05
-0.000242088
6.07693e-05
-0.000249399
5.84764e-05
-0.000256139
5.5841e-05
-0.000262316
5.28917e-05
-0.000267938
4.96557e-05
-0.000273014
4.6158e-05
-0.000277552
4.24217e-05
-0.000281561
3.84677e-05
-0.000285046
3.43148e-05
-0.000288013
2.99799e-05
-0.000290468
2.54783e-05
-0.000292413
2.08238e-05
-0.000293849
1.6029e-05
-0.000294777
1.11058e-05
-0.000295195
6.06546e-06
-0.000295098
9.19491e-07
-0.000294481
-4.3202e-06
-0.000293335
-9.64065e-06
-0.00029165
-1.50272e-05
-0.000289414
-2.04631e-05
-0.000286611
-2.59286e-05
-0.000283225
-3.14002e-05
-0.000279236
-3.68505e-05
-0.000274626
-4.2247e-05
-0.000269375
-4.7552e-05
-0.000263462
-5.27218e-05
-0.000256869
-5.77069e-05
-0.000249582
-6.24516e-05
-0.000241591
-6.68949e-05
-0.000232892
-7.09708e-05
-0.000223492
-7.46099e-05
-0.000213406
-7.77409e-05
-0.000202664
-8.02933e-05
-0.00019131
-8.21999e-05
-0.000179406
-8.34003e-05
-0.000167029
-8.38442e-05
-0.000154271
-8.34952e-05
-0.000141243
-8.23339e-05
-0.000128065
-8.03606e-05
-0.000114867
-7.7597e-05
-0.000101785
-7.40869e-05
-8.89528e-05
-6.98951e-05
-7.64975e-05
-6.51054e-05
-6.45368e-05
-5.98164e-05
-5.31728e-05
-5.41373e-05
-4.249e-05
-4.81826e-05
-3.2554e-05
-4.2067e-05
-2.34118e-05
-3.59012e-05
-1.50937e-05
-2.9788e-05
-7.61533e-06
-2.38205e-05
-9.81016e-07
-1.80807e-05
4.81383e-06
-1.26399e-05
9.78061e-06
-7.5589e-06
1.39364e-05
-2.8887e-06
1.73036e-05
1.3291e-06
1.99107e-05
5.06237e-06
2.17929e-05
8.28903e-06
2.29931e-05
1.09979e-05
2.35628e-05
1.31896e-05
2.35609e-05
1.48771e-05
2.30541e-05
1.60855e-05
2.21134e-05
1.68515e-05
2.08139e-05
1.72206e-05
1.92293e-05
1.72454e-05
1.74328e-05
1.69807e-05
1.54909e-05
1.64805e-05
1.34669e-05
1.57924e-05
1.14137e-05
1.49537e-05
9.38379e-06
1.39863e-05
7.41773e-06
1.28946e-05
5.56535e-06
1.1662e-05
3.86411e-06
1.02532e-05
2.38111e-06
8.61326e-06
1.16731e-06
6.67722e-06
3.41091e-07
4.36996e-06
1.62356e-06
3.36348e-07
-2.04561e-06
1.13727e-06
-5.35492e-06
2.25369e-06
-7.8307e-06
3.50018e-06
-9.46039e-06
4.75216e-06
-1.02615e-05
5.87787e-06
-1.03013e-05
6.79255e-06
-9.67711e-06
7.42157e-06
-8.51321e-06
7.72389e-06
-6.94112e-06
7.66933e-06
-5.08975e-06
7.24599e-06
-3.07272e-06
6.44538e-06
-9.81282e-07
5.26318e-06
1.12078e-06
3.68996e-06
3.19901e-06
1.71048e-06
5.24755e-06
-7.00928e-07
7.28634e-06
-3.57978e-06
9.35584e-06
-6.97177e-06
1.15104e-05
-1.09298e-05
1.38103e-05
-1.55107e-05
1.63134e-05
-2.07708e-05
1.9068e-05
-2.6761e-05
2.21069e-05
-3.35223e-05
2.54443e-05
-4.10816e-05
2.90744e-05
-4.94482e-05
3.29722e-05
-5.86107e-05
3.70946e-05
-6.85347e-05
4.13825e-05
-7.91613e-05
4.57632e-05
-9.04075e-05
5.01528e-05
-0.000102168
5.44601e-05
-0.00011432
5.85907e-05
-0.000126727
6.24519e-05
-0.00013925
6.59581e-05
-0.000151748
6.90348e-05
-0.000164094
7.16226e-05
-0.000176172
7.36787e-05
-0.000187886
7.51774e-05
-0.00019916
7.61088e-05
-0.000209936
7.64768e-05
-0.000220174
7.62964e-05
-0.000229849
7.55911e-05
-0.000238948
7.43897e-05
-0.000247468
7.27245e-05
-0.00025541
7.06295e-05
-0.000262782
6.81385e-05
-0.000269592
6.52845e-05
-0.000275852
6.20991e-05
-0.000281575
5.86119e-05
-0.000286772
5.48501e-05
-0.000291455
5.08389e-05
-0.000295636
4.66009e-05
-0.000299326
4.21565e-05
-0.000302537
3.75237e-05
-0.000305277
3.27186e-05
-0.000307556
2.77554e-05
-0.000309379
2.26464e-05
-0.000310753
1.74026e-05
-0.000311682
1.20341e-05
-0.000312167
6.55009e-06
-0.000312207
9.59525e-07
-0.000311798
-4.72831e-06
-0.000310934
-1.05034e-05
-0.000309606
-1.63542e-05
-0.0003078
-2.22672e-05
-0.0003055
-2.82261e-05
-0.000302687
-3.42111e-05
-0.000299337
-4.01978e-05
-0.000295423
-4.6157e-05
-0.000290918
-5.20536e-05
-0.000285791
-5.78457e-05
-0.000280009
-6.34848e-05
-0.000273542
-6.89147e-05
-0.000266361
-7.40721e-05
-0.00025844
-7.88867e-05
-0.000249764
-8.32823e-05
-0.000240322
-8.7178e-05
-0.00023012
-9.04909e-05
-0.000219177
-9.31386e-05
-0.000207531
-9.50426e-05
-0.000195239
-9.61328e-05
-0.000182379
-9.63514e-05
-0.000169051
-9.56578e-05
-0.000155376
-9.40324e-05
-0.00014149
-9.148e-05
-0.000127543
-8.80319e-05
-0.00011369
-8.37462e-05
-0.000100087
-7.87065e-05
-8.68834e-05
-7.30185e-05
-7.42146e-05
-6.6805e-05
-6.2197e-05
-6.01995e-05
-5.09242e-05
-5.33395e-05
-4.04656e-05
-4.63598e-05
-3.0867e-05
-3.93869e-05
-2.21528e-05
-3.25351e-05
-1.433e-05
-2.59042e-05
-7.39212e-06
-1.95786e-05
-1.32345e-06
-1.36285e-05
3.89783e-06
-8.11105e-06
8.29772e-06
-3.07193e-06
1.19056e-05