/*--------------------------------*- C++ -*----------------------------------*\
| =========                 |                                                 |
| \\      /  F ield         | OpenFOAM: The Open Source CFD Toolbox           |
|  \\    /   O peration     | Version:  2406                                  |
|   \\  /    A nd           | Website:  www.openfoam.com                      |
|    \\/     M anipulation  |                                                 |
\*---------------------------------------------------------------------------*/
FoamFile
{
    version     2.0;
    format      ascii;
    arch        "LSB;label=32;scalar=64";
    class       surfaceScalarField;
    location    "19.25";
    object      phi;
}
// * * * * * * * * * * * * * * * * * * * * * * * * * * * * * * * * * * * * * //

dimensions      [0 3 -1 0 0 0 0];

oriented        oriented;

internalField   nonuniform List<scalar> 
28560
(
8.60209e-09
-8.59736e-09
2.83456e-08
-1.97436e-08
5.33421e-08
-2.49965e-08
7.79594e-08
-2.46173e-08
9.90689e-08
-2.11095e-08
1.1519e-07
-1.61215e-08
1.25967e-07
-1.07766e-08
1.31619e-07
-5.65181e-09
1.32579e-07
-9.60559e-10
1.29584e-07
2.99564e-09
1.23169e-07
6.41463e-09
1.13757e-07
9.41234e-09
1.01624e-07
1.21332e-08
8.68872e-08
1.47364e-08
6.95159e-08
1.73714e-08
4.93454e-08
2.01704e-08
2.61009e-08
2.32446e-08
-5.83057e-10
2.66839e-08
-3.11436e-08
3.05605e-08
-6.60758e-08
3.49322e-08
-1.05922e-07
3.98465e-08
-1.51267e-07
4.53448e-08
-2.02733e-07
5.14655e-08
-2.6098e-07
5.8247e-08
-3.26708e-07
6.57287e-08
-4.00661e-07
7.39526e-08
-4.83624e-07
8.29629e-08
-5.76429e-07
9.28054e-08
-6.79955e-07
1.03526e-07
-7.95123e-07
1.15168e-07
-9.22894e-07
1.27771e-07
-1.06426e-06
1.41365e-07
-1.22023e-06
1.55971e-07
-1.39182e-06
1.71591e-07
-1.58003e-06
1.88209e-07
-1.78581e-06
2.05785e-07
-2.01006e-06
2.24249e-07
-2.25356e-06
2.43497e-07
-2.51695e-06
2.63387e-07
-2.80068e-06
2.83735e-07
-3.10499e-06
3.04311e-07
-3.42983e-06
3.24833e-07
-3.7748e-06
3.44971e-07
-4.13914e-06
3.64341e-07
-4.52165e-06
3.82508e-07
-4.92064e-06
3.9899e-07
-5.3339e-06
4.1326e-07
-5.75865e-06
4.24755e-07
-6.19154e-06
4.32885e-07
-6.62858e-06
4.37044e-07
-7.06521e-06
4.36627e-07
-7.49625e-06
4.3104e-07
-7.91597e-06
4.19725e-07
-8.31815e-06
4.02177e-07
-8.69611e-06
3.77963e-07
-9.04286e-06
3.46743e-07
-9.35115e-06
3.08294e-07
-9.61368e-06
2.62533e-07
-9.82322e-06
2.09531e-07
-9.97274e-06
1.49525e-07
-1.0056e-05
8.33047e-08
-1.00661e-05
1.00611e-08
-9.99869e-06
-6.74141e-08
-9.84947e-06
-1.49218e-07
-9.61546e-06
-2.34013e-07
-9.29508e-06
-3.20383e-07
-8.88828e-06
-4.06796e-07
-8.39668e-06
-4.91603e-07
-7.8236e-06
-5.73076e-07
-7.17415e-06
-6.49449e-07
-6.45518e-06
-7.1897e-07
-5.67522e-06
-7.79962e-07
-4.84434e-06
-8.30878e-07
-3.97398e-06
-8.70362e-07
-3.07667e-06
-8.97309e-07
-2.16575e-06
-9.10918e-07
-1.25502e-06
-9.1073e-07
-3.58358e-07
-8.96666e-07
5.10679e-07
-8.69037e-07
1.33923e-06
-8.28547e-07
2.1155e-06
-7.76276e-07
2.82914e-06
-7.13638e-07
3.47147e-06
-6.42333e-07
4.03575e-06
-5.64276e-07
4.51727e-06
-4.81522e-07
4.91345e-06
-3.96178e-07
5.22377e-06
-3.10321e-07
5.44969e-06
-2.25924e-07
5.59447e-06
-1.4478e-07
5.66285e-06
-6.83798e-08
5.66224e-06
6.1369e-10
5.5966e-06
6.56406e-08
5.4758e-06
1.20795e-07
5.30776e-06
1.68044e-07
5.1003e-06
2.07458e-07
4.86131e-06
2.38994e-07
4.59827e-06
2.63041e-07
4.31812e-06
2.80149e-07
4.02712e-06
2.90999e-07
3.73077e-06
2.96348e-07
3.43378e-06
2.96993e-07
3.14004e-06
2.93737e-07
2.85268e-06
2.87365e-07
2.57406e-06
2.78616e-07
2.30588e-06
2.68177e-07
2.04922e-06
2.5666e-07
1.80463e-06
2.44593e-07
1.57223e-06
2.32398e-07
1.35186e-06
2.20373e-07
1.1432e-06
2.08656e-07
9.46017e-07
1.97185e-07
7.60369e-07
1.85648e-07
5.86946e-07
1.73423e-07
4.27416e-07
1.59529e-07
2.84812e-07
1.42605e-07
1.63804e-07
1.21008e-07
7.0647e-08
9.3157e-08
1.21242e-08
5.85228e-08
-7.54824e-09
1.96724e-08
-7.54824e-09
1.99693e-08
-2.85667e-08
6.17373e-08
-6.15115e-08
1.10426e-07
-7.36854e-08
1.55869e-07
-7.00602e-08
1.91775e-07
-5.70157e-08
2.15018e-07
-3.93643e-08
2.24594e-07
-2.03528e-08
2.20935e-07
-1.99228e-09
2.05025e-07
1.49491e-08
1.78072e-07
2.99484e-08
1.41277e-07
4.32102e-08
9.55676e-08
5.51217e-08
4.15201e-08
6.61808e-08
-2.06674e-08
7.69238e-08
-9.11635e-08
8.78675e-08
-1.70471e-07
9.94775e-08
-2.59381e-07
1.12155e-07
-3.58934e-07
1.26237e-07
-4.70373e-07
1.42e-07
-5.95113e-07
1.59672e-07
-7.34716e-07
1.79449e-07
-8.90872e-07
2.01501e-07
-1.06539e-06
2.25985e-07
-1.2602e-06
2.53055e-07
-1.47733e-06
2.82863e-07
-1.71894e-06
3.15562e-07
-1.98729e-06
3.51309e-07
-2.28474e-06
3.90253e-07
-2.61375e-06
4.32538e-07
-2.97687e-06
4.78287e-07
-3.37669e-06
5.27593e-07
-3.81583e-06
5.80508e-07
-4.29689e-06
6.37029e-07
-4.82238e-06
6.9708e-07
-5.39467e-06
7.60497e-07
-6.0159e-06
8.27016e-07
-6.6879e-06
8.9625e-07
-7.41208e-06
9.67678e-07
-8.18933e-06
1.04063e-06
-9.01987e-06
1.11428e-06
-9.90319e-06
1.18763e-06
-1.08379e-05
1.2595e-06
-1.18214e-05
1.32855e-06
-1.28504e-05
1.39327e-06
-1.39199e-05
1.45199e-06
-1.50238e-05
1.50291e-06
-1.61546e-05
1.54413e-06
-1.73035e-05
1.57366e-06
-1.84602e-05
1.5895e-06
-1.96128e-05
1.58967e-06
-2.07484e-05
1.57226e-06
-2.18529e-05
1.5355e-06
-2.2911e-05
1.47781e-06
-2.39066e-05
1.39787e-06
-2.48234e-05
1.2947e-06
-2.56443e-05
1.16767e-06
-2.63526e-05
1.0166e-06
-2.69319e-05
8.41793e-07
-2.73664e-05
6.44053e-07
-2.76416e-05
4.24756e-07
-2.77442e-05
1.85841e-07
-2.76637e-05
-7.03871e-08
-2.73902e-05
-3.40916e-07
-2.69176e-05
-6.21876e-07
-2.62421e-05
-9.09488e-07
-2.53632e-05
-1.19929e-06
-2.42835e-05
-1.48649e-06
-2.3009e-05
-1.76605e-06
-2.15493e-05
-2.03277e-06
-1.99173e-05
-2.28147e-06
-1.81293e-05
-2.50704e-06
-1.62045e-05
-2.70467e-06
-1.41655e-05
-2.86994e-06
-1.20369e-05
-2.99897e-06
-9.84556e-06
-3.08862e-06
-7.61991e-06
-3.13657e-06
-5.3892e-06
-3.14144e-06
-3.18299e-06
-3.10288e-06
-1.0304e-06
-3.02163e-06
1.04057e-06
-2.89952e-06
3.00374e-06
-2.73944e-06
4.83538e-06
-2.54529e-06
6.51484e-06
-2.32179e-06
8.02498e-06
-2.07441e-06
9.35258e-06
-1.80912e-06
1.04886e-05
-1.5322e-06
1.14283e-05
-1.24999e-06
1.2171e-05
-9.68679e-07
1.27203e-05
-6.94076e-07
1.30835e-05
-4.3151e-07
1.32695e-05
-1.85446e-07
1.32939e-05
4.12582e-08
1.31707e-05
2.43963e-07
1.29165e-05
4.22261e-07
1.25491e-05
5.74894e-07
1.20863e-05
7.01746e-07
1.15459e-05
8.03455e-07
1.09448e-05
8.81304e-07
1.02987e-05
9.37079e-07
9.62208e-06
9.72941e-07
8.92778e-06
9.91294e-07
8.22685e-06
9.94666e-07
7.5286e-06
9.85613e-07
6.84059e-06
9.66629e-07
6.1687e-06
9.40067e-07
5.51728e-06
9.08077e-07
4.88934e-06
8.72533e-07
4.28678e-06
8.34965e-07
3.71068e-06
7.96468e-07
3.16174e-06
7.57598e-07
2.64069e-06
7.18237e-07
2.14888e-06
6.77458e-07
1.68892e-06
6.33379e-07
1.26538e-06
5.83077e-07
8.8535e-07
5.22629e-07
5.58818e-07
4.4754e-07
2.98143e-07
3.53832e-07
1.16051e-07
2.40615e-07
2.07811e-08
1.14942e-07
1.32328e-08
2.53549e-08
-5.39216e-08
7.38621e-08
-1.10019e-07
1.26178e-07
-1.26001e-07
1.70412e-07
-1.14294e-07
1.99269e-07
-8.58727e-08
2.09017e-07
-4.91119e-08
1.98419e-07
-9.75522e-09
1.67866e-07
2.85612e-08
1.18683e-07
6.41316e-08
5.23447e-08
9.62868e-08
-2.96904e-08
1.25245e-07
-1.26303e-07
1.51734e-07
-2.36853e-07
1.7673e-07
-3.61227e-07
2.01298e-07
-4.99839e-07
2.2648e-07
-6.53593e-07
2.53231e-07
-8.23828e-07
2.82391e-07
-1.01227e-06
3.14676e-07
-1.22096e-06
3.50691e-07
-1.45223e-06
3.90948e-07
-1.70867e-06
4.35886e-07
-1.99307e-06
4.85897e-07
-2.30842e-06
5.4134e-07
-2.65792e-06
6.02559e-07
-3.04495e-06
6.69886e-07
-3.47303e-06
7.43646e-07
-3.94587e-06
8.24152e-07
-4.46731e-06
9.11693e-07
-5.0413e-06
1.00652e-06
-5.67183e-06
1.10882e-06
-6.36295e-06
1.21871e-06
-7.11862e-06
1.33617e-06
-7.94265e-06
1.46106e-06
-8.83862e-06
1.59305e-06
-9.80972e-06
1.7316e-06
-1.08586e-05
1.87592e-06
-1.19873e-05
2.02497e-06
-1.3197e-05
2.17737e-06
-1.44879e-05
2.33145e-06
-1.58588e-05
2.48518e-06
-1.73073e-05
2.63619e-06
-1.88296e-05
2.78175e-06
-2.04198e-05
2.91882e-06
-2.20706e-05
3.04405e-06
-2.37725e-05
3.15385e-06
-2.5514e-05
3.24442e-06
-2.72817e-05
3.31187e-06
-2.90603e-05
3.35225e-06
-3.08325e-05
3.36172e-06
-3.25795e-05
3.33658e-06
-3.42807e-05
3.27346e-06
-3.59145e-05
3.16938e-06
-3.74586e-05
3.02188e-06
-3.88899e-05
2.82914e-06
-4.01852e-05
2.59005e-06
-4.13219e-05
2.30432e-06
-4.22778e-05
1.9725e-06
-4.30321e-05
1.59609e-06
-4.35656e-05
1.17754e-06
-4.3861e-05
7.20236e-07
-4.39037e-05
2.28487e-07
-4.36818e-05
-2.92289e-07
-4.31865e-05
-8.36217e-07
-4.24122e-05
-1.39612e-06
-4.13573e-05
-1.9644e-06
-4.00238e-05
-2.53282e-06
-3.84176e-05
-3.09266e-06
-3.65488e-05
-3.63489e-06
-3.44312e-05
-4.15033e-06
-3.20828e-05
-4.62985e-06
-2.95253e-05
-5.06459e-06
-2.67838e-05
-5.44617e-06
-2.38868e-05
-5.76693e-06
-2.08656e-05
-6.02013e-06
-1.7754e-05
-6.20024e-06
-1.45875e-05
-6.30307e-06
-1.1403e-05
-6.32601e-06
-8.23765e-06
-6.26818e-06
-5.12879e-06
-6.13048e-06
-2.11263e-06
-5.91568e-06
7.76311e-07
-5.62838e-06
3.50594e-06
-5.27492e-06
6.04737e-06
-4.86321e-06
8.3755e-06
-4.40254e-06
1.04696e-05
-3.90325e-06
1.23139e-05
-3.37642e-06
1.38973e-05
-2.83349e-06
1.52145e-05
-2.28586e-06
1.6265e-05
-1.74455e-06
1.70533e-05
-1.21979e-06
1.75885e-05
-7.20645e-07
1.78848e-05
-2.55046e-07
1.79583e-05
1.70454e-07
1.78288e-05
5.51751e-07
1.75182e-05
8.85477e-07
1.70496e-05
1.17036e-06
1.64465e-05
1.40651e-06
1.57325e-05
1.59538e-06
1.493e-05
1.73956e-06
1.40604e-05
1.84254e-06
1.31432e-05
1.90846e-06
1.2196e-05
1.94189e-06
1.1234e-05
1.94764e-06
1.02701e-05
1.93051e-06
9.31501e-06
1.89516e-06
8.37717e-06
1.84592e-06
7.46308e-06
1.78662e-06
6.57757e-06
1.72047e-06
5.72424e-06
1.64981e-06
4.90591e-06
1.57592e-06
4.12534e-06
1.49881e-06
3.38586e-06
1.41694e-06
2.69221e-06
1.32703e-06
2.05131e-06
1.22397e-06
1.4729e-06
1.10104e-06
9.697e-07
9.5074e-07
5.56895e-07
7.66637e-07
2.50256e-07
5.47254e-07
6.27016e-08
3.02496e-07
7.59345e-08
2.45071e-08
-7.84287e-08
6.77796e-08
-1.53291e-07
1.0887e-07
-1.67092e-07
1.35396e-07
-1.4082e-07
1.40116e-07
-9.05927e-08
1.19502e-07
-2.84981e-08
7.26032e-08
3.71439e-08
-2.10697e-12
1.01166e-07
-9.6799e-08
1.60929e-07
-2.16087e-07
2.15575e-07
-3.56332e-07
2.6549e-07
-5.1643e-07
3.11832e-07
-6.95868e-07
3.56168e-07
-8.94786e-07
4.00216e-07
-1.11398e-06
4.45675e-07
-1.35487e-06
4.94118e-07
-1.61943e-06
5.46948e-07
-1.91013e-06
6.05382e-07
-2.2299e-06
6.70463e-07
-2.58205e-06
7.43092e-07
-2.97021e-06
8.24052e-07
-3.39836e-06
9.14044e-07
-3.87073e-06
1.01371e-06
-4.39184e-06
1.12366e-06
-4.96642e-06
1.24447e-06
-5.59944e-06
1.37666e-06
-6.29604e-06
1.52075e-06
-7.0615e-06
1.67716e-06
-7.9012e-06
1.84621e-06
-8.82048e-06
2.02811e-06
-9.82464e-06
2.22287e-06
-1.09187e-05
2.43027e-06
-1.21075e-05
2.6498e-06
-1.3395e-05
2.88061e-06
-1.47849e-05
3.12147e-06
-1.62797e-05
3.37068e-06
-1.78807e-05
3.62604e-06
-1.95882e-05
3.88484e-06
-2.14005e-05
4.14379e-06
-2.33144e-05
4.39907e-06
-2.53245e-05
4.64626e-06
-2.74232e-05
4.88046e-06
-2.96007e-05
5.09629e-06
-3.18446e-05
5.28797e-06
-3.41402e-05
5.44946e-06
-3.64703e-05
5.57455e-06
-3.88155e-05
5.65703e-06
-4.11541e-05
5.69084e-06
-4.34626e-05
5.67025e-06
-4.57161e-05
5.59002e-06
-4.78882e-05
5.44561e-06
-4.99521e-05
5.23326e-06
-5.18805e-05
4.95024e-06
-5.36462e-05
4.59487e-06
-5.52228e-05
4.16669e-06
-5.6585e-05
3.66652e-06
-5.7709e-05
3.09646e-06
-5.85729e-05
2.45999e-06
-5.91572e-05
1.76187e-06
-5.94452e-05
1.00819e-06
-5.94229e-05
2.06276e-07
-5.90799e-05
-6.35356e-07
-5.8409e-05
-1.50713e-06
-5.74066e-05
-2.39847e-06
-5.60731e-05
-3.29793e-06
-5.44125e-05
-4.19339e-06
-5.2433e-05
-5.0722e-06
-5.01465e-05
-5.92136e-06
-4.75691e-05
-6.72775e-06
-4.47206e-05
-7.47835e-06
-4.16247e-05
-8.16052e-06
-3.83085e-05
-8.76229e-06
-3.48028e-05
-9.27264e-06
-3.11412e-05
-9.6818e-06
-2.73598e-05
-9.98157e-06
-2.34973e-05
-1.01656e-05
-1.95936e-05
-1.02297e-05
-1.569e-05
-1.01718e-05
-1.18277e-05
-9.99275e-06
-8.04783e-06
-9.69555e-06
-4.39016e-06
-9.28605e-06
-8.92498e-07
-8.77258e-06
2.41009e-06
-8.1658e-06
5.48605e-06
-7.4785e-06
8.30798e-06
-6.72518e-06
1.08532e-05
-5.92166e-06
1.31043e-05
-5.08457e-06
1.50493e-05
-4.23086e-06
1.6682e-05
-3.37722e-06
1.80017e-05
-2.53955e-06
1.90136e-05
-1.73252e-06
1.97277e-05
-9.6912e-07
2.01585e-05
-2.60344e-07
2.0325e-05
3.85224e-07
2.02492e-05
9.61253e-07
1.99557e-05
1.46391e-06
1.94705e-05
1.89168e-06
1.88207e-05
2.24525e-06
1.8033e-05
2.52722e-06
1.71337e-05
2.7418e-06
1.61477e-05
2.89452e-06
1.50977e-05
2.99183e-06
1.40046e-05
3.04076e-06
1.28865e-05
3.04862e-06
1.1759e-05
3.02265e-06
1.06352e-05
2.96974e-06
9.52568e-06
2.89613e-06
8.43904e-06
2.80711e-06
7.38216e-06
2.70669e-06
6.36081e-06
2.59727e-06
5.38035e-06
2.47927e-06
4.44649e-06
2.3508e-06
3.56615e-06
2.20737e-06
2.74826e-06
2.04186e-06
2.00443e-06
1.84487e-06
1.3493e-06
1.60586e-06
8.00445e-07
1.3155e-06
3.77667e-07
9.70032e-07
1.0239e-07
5.77773e-07
1.78325e-07
1.93822e-08
-9.78108e-08
4.80501e-08
-1.81959e-07
6.59388e-08
-1.84981e-07
6.13269e-08
-1.36208e-07
2.78646e-08
-5.71304e-08
-3.71844e-08
3.65509e-08
-1.3414e-07
1.341e-07
-2.61915e-07
2.28941e-07
-4.18746e-07
3.1776e-07
-6.0279e-07
3.99619e-07
-8.12526e-07
4.75226e-07
-1.04701e-06
5.46314e-07
-1.30601e-06
6.1517e-07
-1.59008e-06
6.84292e-07
-1.90056e-06
7.56154e-07
-2.23951e-06
8.33069e-07
-2.60968e-06
9.17113e-07
-3.01441e-06
1.01011e-06
-3.45761e-06
1.11366e-06
-3.94367e-06
1.22915e-06
-4.47741e-06
1.35779e-06
-5.06405e-06
1.50069e-06
-5.70919e-06
1.65885e-06
-6.41872e-06
1.8332e-06
-7.19886e-06
2.0246e-06
-8.05603e-06
2.23384e-06
-8.99686e-06
2.46158e-06
-1.00281e-05
2.70835e-06
-1.11563e-05
2.9745e-06
-1.23883e-05
3.26009e-06
-1.37303e-05
3.56487e-06
-1.51882e-05
3.88817e-06
-1.67673e-05
4.22884e-06
-1.84718e-05
4.58512e-06
-2.03049e-05
4.95464e-06
-2.22686e-05
5.3343e-06
-2.43627e-05
5.7202e-06
-2.65856e-05
6.10768e-06
-2.8933e-05
6.49124e-06
-3.13985e-05
6.86459e-06
-3.3973e-05
7.2207e-06
-3.66444e-05
7.5519e-06
-3.93981e-05
7.84997e-06
-4.22165e-05
8.10634e-06
-4.50793e-05
8.31226e-06
-4.79637e-05
8.45899e-06
-5.08448e-05
8.53809e-06
-5.36955e-05
8.54159e-06
-5.64875e-05
8.46228e-06
-5.91914e-05
8.29389e-06
-6.17771e-05
8.03135e-06
-6.42148e-05
7.67087e-06
-6.64747e-05
7.21018e-06
-6.85284e-05
6.64855e-06
-7.03486e-05
5.9869e-06
-7.19099e-05
5.22778e-06
-7.31888e-05
4.37543e-06
-7.41646e-05
3.43571e-06
-7.48187e-05
2.41605e-06
-7.51359e-05
1.32538e-06
-7.51037e-05
1.7405e-07
-7.47128e-05
-1.02628e-06
-7.39572e-05
-2.26273e-06
-7.28343e-05
-3.52134e-06
-7.13451e-05
-4.78718e-06
-6.94939e-05
-6.04456e-06
-6.72889e-05
-7.27717e-06
-6.4742e-05
-8.46829e-06
-6.18687e-05
-9.60104e-06
-5.86884e-05
-1.06586e-05
-5.52243e-05
-1.16247e-05
-5.15031e-05
-1.24835e-05
-4.75551e-05
-1.32206e-05
-4.34142e-05
-1.38227e-05
-3.9117e-05
-1.42788e-05
-3.47029e-05
-1.45797e-05
-3.02136e-05
-1.4719e-05
-2.56922e-05
-1.46932e-05
-2.1183e-05
-1.4502e-05
-1.67304e-05
-1.41481e-05
-1.23785e-05
-1.3638e-05
-8.16985e-06
-1.29813e-05
-4.14488e-06
-1.21908e-05
-3.41098e-07
-1.12823e-05
3.20777e-06
-1.0274e-05
6.47242e-06
-9.18632e-06
9.42863e-06
-8.04078e-06
1.20577e-05
-6.85989e-06
1.43466e-05
-5.66618e-06
1.62886e-05
-4.48157e-06
1.78829e-05
-3.32675e-06
1.91343e-05
-2.22051e-06
2.00533e-05
-1.17935e-06
2.06554e-05
-2.16896e-07
2.09604e-05
6.56206e-07
2.09918e-05
1.4325e-06
2.07758e-05
2.10773e-06
2.03404e-05
2.68067e-06
1.97146e-05
3.15293e-06
1.89278e-05
3.52861e-06
1.80085e-05
3.81385e-06
1.69839e-05
4.01644e-06
1.58794e-05
4.14532e-06
1.47179e-05
4.2101e-06
1.35199e-05
4.22061e-06
1.23032e-05
4.18641e-06
1.1083e-05
4.11637e-06
9.87192e-06
4.01818e-06
8.68073e-06
3.89788e-06
7.51865e-06
3.75935e-06
6.3941e-06
3.60381e-06
5.3155e-06
3.4294e-06
4.29208e-06
3.2308e-06
3.33477e-06
2.99917e-06
2.45702e-06
2.72262e-06
1.67546e-06
2.38743e-06
1.01046e-06
1.98049e-06
4.86948e-07
1.49354e-06
1.35912e-07
9.28809e-07
3.14237e-07
1.12169e-08
-1.09028e-07
1.80737e-08
-1.88816e-07
3.00266e-09
-1.6991e-07
-4.37478e-08
-8.94576e-08
-1.27125e-07
2.62473e-08
-2.48522e-07
1.57947e-07
-4.07248e-07
2.92826e-07
-6.01522e-07
4.23215e-07
-8.29199e-07
5.45437e-07
-1.0883e-06
6.58725e-07
-1.3774e-06
7.64323e-07
-1.69581e-06
8.64726e-07
-2.04374e-06
9.63102e-07
-2.42232e-06
1.06287e-06
-2.83357e-06
1.1674e-06
-3.28037e-06
1.27987e-06
-3.76638e-06
1.40313e-06
-4.29599e-06
1.53973e-06
-4.87424e-06
1.69191e-06
-5.50673e-06
1.86164e-06
-6.19963e-06
2.05068e-06
-6.95955e-06
2.26061e-06
-7.79356e-06
2.49285e-06
-8.70907e-06
2.74872e-06
-9.71385e-06
3.02938e-06
-1.08159e-05
3.33585e-06
-1.20232e-05
3.66894e-06
-1.33441e-05
4.02919e-06
-1.47864e-05
4.41682e-06
-1.63579e-05
4.83157e-06
-1.80656e-05
5.27265e-06
-1.99161e-05
5.73863e-06
-2.19145e-05
6.22728e-06
-2.40649e-05
6.7355e-06
-2.63695e-05
7.25924e-06
-2.88286e-05
7.79341e-06
-3.14402e-05
8.3318e-06
-3.41997e-05
8.86717e-06
-3.70997e-05
9.39118e-06
-4.01296e-05
9.89451e-06
-4.32759e-05
1.0367e-05
-4.65219e-05
1.07979e-05
-4.98477e-05
1.11758e-05
-5.32306e-05
1.14893e-05
-5.66452e-05
1.17269e-05
-6.0064e-05
1.18777e-05
-6.34574e-05
1.19315e-05
-6.67946e-05
1.18788e-05
-7.0044e-05
1.17117e-05
-7.31737e-05
1.14236e-05
-7.61521e-05
1.10097e-05
-7.89482e-05
1.0467e-05
-8.15322e-05
9.79416e-06
-8.38758e-05
8.99215e-06
-8.59525e-05
8.06365e-06
-8.77381e-05
7.0133e-06
-8.92102e-05
5.8476e-06
-9.03493e-05
4.57481e-06
-9.11381e-05
3.20487e-06
-9.15621e-05
1.7493e-06
-9.16092e-05
2.21154e-07
-9.12703e-05
-1.36515e-06
-9.05391e-05
-2.9939e-06
-8.94123e-05
-4.64815e-06
-8.78896e-05
-6.30993e-06
-8.59738e-05
-7.96034e-06
-8.36712e-05
-9.57971e-06
-8.09917e-05
-1.11478e-05
-7.79486e-05
-1.26442e-05
-7.4559e-05
-1.40482e-05
-7.08441e-05
-1.53396e-05
-6.68288e-05
-1.64988e-05
-6.2542e-05
-1.75074e-05
-5.80163e-05
-1.83484e-05
-5.3288e-05
-1.90071e-05
-4.83968e-05
-1.94709e-05
-4.33851e-05
-1.97306e-05
-3.82981e-05
-1.97803e-05
-3.31825e-05
-1.96176e-05
-2.80861e-05
-1.92445e-05
-2.3057e-05
-1.8667e-05
-1.81428e-05
-1.78955e-05
-1.33894e-05
-1.69442e-05
-8.84022e-06
-1.58314e-05
-4.5356e-06
-1.45787e-05
-5.11592e-07
-1.32103e-05
3.2006e-06
-1.1753e-05
6.5752e-06
-1.02345e-05
9.5924e-06
-8.68337e-06
1.22386e-05
-7.12775e-06
1.45065e-05
-5.59468e-06
1.63953e-05
-4.10931e-06
1.79102e-05
-2.69423e-06
1.90622e-05
-1.36887e-06
1.98675e-05
-1.49112e-07
2.0347e-05
9.53028e-07
2.05252e-05
1.92947e-06
2.04298e-05
2.77606e-06
2.00904e-05
3.49237e-06
1.95377e-05
4.08133e-06
1.88026e-05
4.54888e-06
1.79157e-05
4.90338e-06
1.6906e-05
5.15504e-06
1.58007e-05
5.31538e-06
1.46248e-05
5.39652e-06
1.34005e-05
5.41062e-06
1.21477e-05
5.36919e-06
1.08834e-05
5.28249e-06
9.62247e-06
5.15883e-06
8.37791e-06
5.00391e-06
7.16156e-06
4.82016e-06
5.98481e-06
4.60615e-06
4.8595e-06
4.35611e-06
3.79883e-06
4.05984e-06
2.81836e-06
3.7031e-06
1.93709e-06
3.2687e-06
1.17878e-06
2.7388e-06
5.73813e-07
2.09851e-06
1.62114e-07
1.34051e-06
4.76351e-07
5.0574e-10
-1.09533e-07
-1.98353e-08
-1.68475e-07
-7.55736e-08
-1.14171e-07
-1.73834e-07
8.80253e-09
-3.1709e-07
1.69503e-07
-5.0499e-07
3.45848e-07
-7.35547e-07
5.23382e-07
-1.0061e-06
6.93769e-07
-1.31402e-06
8.5336e-07
-1.6572e-06
1.0019e-06
-2.03434e-06
1.14146e-06
-2.44514e-06
1.27553e-06
-2.89038e-06
1.40834e-06
-3.3719e-06
1.54439e-06
-3.89261e-06
1.68811e-06
-4.45637e-06
1.84363e-06
-5.06795e-06
2.01471e-06
-5.73297e-06
2.20474e-06
-6.45775e-06
2.41669e-06
-7.24933e-06
2.65323e-06
-8.11536e-06
2.91671e-06
-9.06403e-06
3.20928e-06
-1.0104e-05
3.53284e-06
-1.12444e-05
3.8891e-06
-1.24946e-05
4.27954e-06
-1.38641e-05
4.70537e-06
-1.53626e-05
5.16743e-06
-1.69995e-05
5.66615e-06
-1.87841e-05
6.20138e-06
-2.07248e-05
6.77227e-06
-2.28293e-05
7.37716e-06
-2.5104e-05
8.01338e-06
-2.75539e-05
8.67717e-06
-3.01819e-05
9.36351e-06
-3.29887e-05
1.00661e-05
-3.59724e-05
1.07771e-05
-3.91282e-05
1.14875e-05
-4.24478e-05
1.21868e-05
-4.59201e-05
1.28634e-05
-4.95299e-05
1.35044e-05
-5.32592e-05
1.40963e-05
-5.70862e-05
1.46249e-05
-6.09864e-05
1.50759e-05
-6.49323e-05
1.54352e-05
-6.88944e-05
1.5689e-05
-7.28415e-05
1.58248e-05
-7.6741e-05
1.5831e-05
-8.05599e-05
1.56977e-05
-8.4265e-05
1.54168e-05
-8.78237e-05
1.49823e-05
-9.12042e-05
1.43902e-05
-9.4376e-05
1.36387e-05
-9.731e-05
1.27282e-05
-9.9979e-05
1.16612e-05
-0.000102358
1.04424e-05
-0.000104423
9.07845e-06
-0.000106153
7.57787e-06
-0.000107529
5.95102e-06
-0.000108535
4.20997e-06
-0.000109154
2.3684e-06
-0.000109374
4.4155e-07
-0.000109185
-1.55387e-06
-0.000108579
-3.59975e-06
-0.000107551
-5.67663e-06
-0.000106097
-7.76384e-06
-0.000104218
-9.83958e-06
-0.000101916
-1.18811e-05
-9.91996e-05
-1.38647e-05
-9.60773e-05
-1.57664e-05
-9.25637e-05
-1.75618e-05
-8.86769e-05
-1.92264e-05
-8.4439e-05
-2.07367e-05
-7.98768e-05
-2.20696e-05
-7.50212e-05
-2.3204e-05
-6.99075e-05
-2.41207e-05
-6.45752e-05
-2.48033e-05
-5.90674e-05
-2.52384e-05
-5.34308e-05
-2.54168e-05
-4.77148e-05
-2.53336e-05
-4.19706e-05
-2.49887e-05
-3.62509e-05
-2.43867e-05
-3.06085e-05
-2.3538e-05
-2.50952e-05
-2.24575e-05
-1.97613e-05
-2.11653e-05
-1.46541e-05
-1.96859e-05
-9.81689e-06
-1.80475e-05
-5.2885e-06
-1.62814e-05
-1.10211e-06
-1.44209e-05
2.71514e-06
-1.25006e-05
6.1426e-06
-1.05552e-05
9.16639e-06
-8.61847e-06
1.17795e-05
-6.72239e-06
1.39815e-05
-4.89625e-06
1.57785e-05
-3.16592e-06
1.71827e-05
-1.55327e-06
1.82115e-05
-7.57456e-08
1.88871e-05
1.25389e-06
1.92355e-05
2.42759e-06
1.9286e-05
3.44189e-06
1.90697e-05
4.29766e-06
1.86189e-05
4.99966e-06
1.79663e-05
5.55599e-06
1.71439e-05
5.97743e-06
1.61825e-05
6.27679e-06
1.5111e-05
6.46805e-06
1.39559e-05
6.56567e-06
1.27414e-05
6.58369e-06
1.1489e-05
6.53494e-06
1.02176e-05
6.43015e-06
8.94448e-06
6.27708e-06
7.68494e-06
6.0797e-06
6.45371e-06
5.83737e-06
5.26554e-06
5.54428e-06
4.13623e-06
5.18915e-06
3.08389e-06
4.75543e-06
2.13034e-06
4.22225e-06
1.30297e-06
3.56616e-06
6.37388e-07
2.7641e-06
1.80985e-07
1.79691e-06
6.57336e-07
-1.16504e-08
-9.7883e-08
-6.40864e-08
-1.16039e-07
-1.67213e-07
-1.10445e-08
-3.24708e-07
1.66297e-07
-5.36296e-07
3.81091e-07
-7.9941e-07
6.08962e-07
-1.11046e-06
8.34434e-07
-1.46575e-06
1.04906e-06
-1.8621e-06
1.24971e-06
-2.29725e-06
1.43706e-06
-2.77012e-06
1.61433e-06
-3.2809e-06
1.7863e-06
-3.83107e-06
1.95851e-06
-4.42338e-06
2.13671e-06
-5.06179e-06
2.32652e-06
-5.75135e-06
2.53319e-06
-6.49814e-06
2.76151e-06
-7.30919e-06
3.01579e-06
-8.19237e-06
3.29986e-06
-9.1563e-06
3.61716e-06
-1.02103e-05
3.97075e-06
-1.13644e-05
4.36335e-06
-1.2629e-05
4.7974e-06
-1.40149e-05
5.27499e-06
-1.55332e-05
5.79788e-06
-1.71952e-05
6.36734e-06
-1.90119e-05
6.98413e-06
-2.0994e-05
7.64831e-06
-2.31517e-05
8.35907e-06
-2.54941e-05
9.11461e-06
-2.80288e-05
9.91191e-06
-3.0762e-05
1.07466e-05
-3.36976e-05
1.16127e-05
-3.68368e-05
1.25027e-05
-4.01781e-05
1.34074e-05
-4.37167e-05
1.43157e-05
-4.74443e-05
1.52151e-05
-5.13487e-05
1.60913e-05
-5.54142e-05
1.69289e-05
-5.96212e-05
1.77115e-05
-6.3947e-05
1.8422e-05
-6.83653e-05
1.90432e-05
-7.28472e-05
1.95579e-05
-7.73619e-05
1.99498e-05
-8.18766e-05
2.02037e-05
-8.63575e-05
2.03058e-05
-9.07707e-05
2.02442e-05
-9.50821e-05
2.00091e-05
-9.92583e-05
1.9593e-05
-0.000103267
1.89908e-05
-0.000107076
1.81999e-05
-0.000110657
1.72198e-05
-0.000113982
1.60526e-05
-0.000117023
1.47027e-05
-0.000119757
1.31763e-05
-0.000122161
1.14818e-05
-0.000124212
9.62948e-06
-0.000125893
7.63142e-06
-0.000127184
5.5014e-06
-0.000128071
3.25484e-06
-0.000128538
9.08805e-07
-0.000128574
-1.51813e-06
-0.000128167
-4.00582e-06
-0.000127311
-6.53264e-06
-0.000126
-9.07553e-06
-0.000124229
-1.16101e-05
-0.000122
-1.41106e-05
-0.000119314
-1.65504e-05
-0.000116179
-1.89018e-05
-0.000112604
-2.11365e-05
-0.000108604
-2.32263e-05
-0.000104198
-2.51427e-05
-9.94094e-05
-2.68583e-05
-9.42665e-05
-2.83469e-05
-8.88029e-05
-2.95844e-05
-8.30568e-05
-3.05493e-05
-7.70716e-05
-3.12236e-05
-7.08947e-05
-3.15937e-05
-6.45778e-05
-3.16505e-05
-5.81757e-05
-3.13908e-05
-5.17453e-05
-3.08171e-05
-4.53453e-05
-2.9938e-05
-3.90341e-05
-2.87687e-05
-3.28693e-05
-2.73301e-05
-2.69061e-05
-2.5649e-05
-2.11964e-05
-2.37572e-05
-1.57873e-05
-2.16905e-05
-1.07204e-05
-1.94878e-05
-6.03093e-06
-1.71901e-05
-1.74725e-06
-1.48389e-05
2.10964e-06
-1.24754e-05
5.52617e-06
-1.01389e-05
8.49619e-06
-7.86626e-06
1.10207e-05
-5.69042e-06
1.31074e-05
-3.63999e-06
1.47703e-05
-1.73863e-06
1.60288e-05
-4.66355e-09
1.69072e-05
1.54923e-06
1.74335e-05
2.9156e-06
1.76388e-05
4.0924e-06
1.7556e-05
5.08238e-06
1.72195e-05
5.89255e-06
1.66634e-05
6.53352e-06
1.59215e-05
7.0187e-06
1.50261e-05
7.36344e-06
1.40077e-05
7.58406e-06
1.28945e-05
7.69688e-06
1.17122e-05
7.71719e-06
1.04842e-05
7.65817e-06
9.23151e-06
7.52979e-06
7.97343e-06
7.33778e-06
6.72818e-06
7.08262e-06
5.51372e-06
6.75874e-06
4.34886e-06
6.35401e-06
3.25462e-06
5.84968e-06
2.25591e-06
5.22095e-06
1.3838e-06
4.43828e-06
6.78439e-07
3.46946e-06
1.92947e-07
2.2824e-06
8.50283e-07
-2.54633e-08
-7.24197e-08
-1.13754e-07
-2.77485e-08
-2.69872e-07
1.45074e-07
-4.93336e-07
3.89761e-07
-7.8054e-07
6.68296e-07
-1.12636e-06
9.54787e-07
-1.52539e-06
1.23346e-06
-1.97274e-06
1.49641e-06
-2.46465e-06
1.74161e-06
-2.99874e-06
1.97115e-06
-3.57422e-06
2.18981e-06
-4.19189e-06
2.40397e-06
-4.8541e-06
2.62072e-06
-5.5647e-06
2.8473e-06
-6.32888e-06
3.09069e-06
-7.1531e-06
3.35741e-06
-8.04499e-06
3.6534e-06
-9.01321e-06
3.984e-06
-1.00674e-05
4.35402e-06
-1.12179e-05
4.76773e-06
-1.24761e-05
5.22894e-06
-1.38538e-05
5.74103e-06
-1.53633e-05
6.30693e-06
-1.70174e-05
6.92908e-06
-1.88289e-05
7.6094e-06
-2.08107e-05
8.34909e-06
-2.29751e-05
9.14856e-06
-2.5334e-05
1.00072e-05
-2.78981e-05
1.09231e-05
-3.06766e-05
1.18932e-05
-3.3677e-05
1.29123e-05
-3.69043e-05
1.39739e-05
-4.03608e-05
1.50692e-05
-4.40454e-05
1.61874e-05
-4.79538e-05
1.73157e-05
-5.20774e-05
1.84394e-05
-5.6404e-05
1.95416e-05
-6.09172e-05
2.06044e-05
-6.55965e-05
2.16083e-05
-7.04181e-05
2.25331e-05
-7.53547e-05
2.33586e-05
-8.03761e-05
2.40646e-05
-8.54502e-05
2.4632e-05
-9.05432e-05
2.50427e-05
-9.56202e-05
2.52807e-05
-0.000100646
2.53317e-05
-0.000105586
2.51842e-05
-0.000110406
2.48289e-05
-0.000115072
2.42594e-05
-0.000119553
2.34717e-05
-0.000123818
2.24645e-05
-0.000127837
2.12391e-05
-0.000131584
1.97991e-05
-0.000135031
1.81502e-05
-0.000138155
1.63004e-05
-0.000140933
1.42595e-05
-0.000143343
1.20393e-05
-0.000145365
9.6533e-06
-0.00014698
7.11686e-06
-0.000148172
4.44689e-06
-0.000148925
1.66197e-06
-0.000149226
-1.21769e-06
-0.000149061
-4.17028e-06
-0.000148422
-7.17229e-06
-0.000147298
-1.01987e-05
-0.000145686
-1.32228e-05
-0.00014358
-1.62166e-05
-0.00014098
-1.91505e-05
-0.000137888
-2.19936e-05
-0.00013431
-2.47142e-05
-0.000130256
-2.728e-05
-0.000125741
-2.96581e-05
-0.000120783
-3.18162e-05
-0.000115407
-3.37229e-05
-0.000109643
-3.53484e-05
-0.000103527
-3.66656e-05
-9.70997e-05
-3.76507e-05
-9.04093e-05
-3.82841e-05
-8.35079e-05
-3.85518e-05
-7.64531e-05
-3.84457e-05
-6.93059e-05
-3.79643e-05
-6.21303e-05
-3.71136e-05
-5.4992e-05
-3.5907e-05
-4.79565e-05
-3.43656e-05
-4.10883e-05
-3.25173e-05
-3.44487e-05
-3.03968e-05
-2.80949e-05
-2.80443e-05
-2.20784e-05
-2.55043e-05
-1.6444e-05
-2.28244e-05
-1.12291e-05
-2.00538e-05
-6.4629e-06
-1.72416e-05
-2.16629e-06
-1.44355e-05
1.64818e-06
-1.16807e-05
4.97607e-06
-9.0183e-06
7.82063e-06
-6.48456e-06
1.01922e-05
-4.11023e-06
1.21076e-05
-1.92e-06
1.3589e-05
6.78068e-08
1.46634e-05
1.84115e-06
1.53616e-05
3.39421e-06
1.57171e-05
4.72694e-06
1.57651e-05
5.84455e-06
1.55418e-05
6.75676e-06
1.50836e-05
7.47697e-06
1.44257e-05
8.02131e-06
1.36022e-05
8.40754e-06
1.26451e-05
8.65394e-06
1.15843e-05
8.77803e-06
1.04471e-05
8.79537e-06
9.2587e-06
8.7182e-06
8.04232e-06
8.55416e-06
6.8199e-06
8.30504e-06
5.61288e-06
7.96576e-06
4.44335e-06
7.52354e-06
3.33551e-06
6.95751e-06
2.31754e-06
6.23893e-06
1.42394e-06
5.33188e-06
6.98628e-07
4.19477e-06
1.98625e-07
2.78241e-06
1.04891e-06
-4.06388e-08
-3.1781e-08
-1.68253e-07
9.98659e-08
-3.82286e-07
3.59106e-07
-6.77566e-07
6.85041e-07
-1.04671e-06
1.03744e-06
-1.48174e-06
1.38982e-06
-1.97521e-06
1.72693e-06
-2.52099e-06
2.04219e-06
-3.11469e-06
2.33531e-06
-3.7539e-06
2.61036e-06
-4.43822e-06
2.87413e-06
-5.1692e-06
3.13495e-06
-5.95026e-06
3.40177e-06
-6.78649e-06
3.68354e-06
-7.68459e-06
3.98879e-06
-8.65265e-06
4.32547e-06
-9.70005e-06
4.7008e-06
-1.08373e-05
5.12129e-06
-1.20761e-05
5.59279e-06
-1.34289e-05
6.12048e-06
-1.49089e-05
6.70898e-06
-1.65301e-05
7.36227e-06
-1.8307e-05
8.08377e-06
-2.02541e-05
8.87616e-06
-2.2386e-05
9.74132e-06
-2.4717e-05
1.06802e-05
-2.72609e-05
1.16924e-05
-3.003e-05
1.27763e-05
-3.30354e-05
1.39285e-05
-3.6286e-05
1.51438e-05
-3.97882e-05
1.64146e-05
-4.35456e-05
1.77312e-05
-4.75579e-05
1.90815e-05
-5.18212e-05
2.04507e-05
-5.63275e-05
2.1822e-05
-6.10643e-05
2.31761e-05
-6.60148e-05
2.44922e-05
-7.11581e-05
2.57477e-05
-7.64693e-05
2.69195e-05
-8.19201e-05
2.79839e-05
-8.74793e-05
2.89178e-05
-9.31136e-05
2.96988e-05
-9.87877e-05
3.03061e-05
-0.000104466
3.07208e-05
-0.000110111
3.09263e-05
-0.000115688
3.09088e-05
-0.000121161
3.06572e-05
-0.000126496
3.01633e-05
-0.000131658
2.94217e-05
-0.000136617
2.843e-05
-0.00014134
2.71884e-05
-0.000145801
2.56995e-05
-0.00014997
2.39685e-05
-0.000153823
2.20029e-05
-0.000157335
1.98121e-05
-0.000160483
1.74075e-05
-0.000163246
1.48024e-05
-0.000165604
1.20119e-05
-0.00016754
9.05273e-06
-0.000169037
5.94317e-06
-0.000170078
2.70318e-06
-0.00017065
-6.45659e-07
-0.00017074
-4.08032e-06
-0.000170336
-7.5759e-06
-0.000169429
-1.11059e-05
-0.00016801
-1.46422e-05
-0.000166071
-1.81549e-05
-0.00016361
-2.16122e-05
-0.000160622
-2.4981e-05
-0.00015711
-2.82266e-05
-0.000153077
-3.1313e-05
-0.000148531
-3.42034e-05
-0.000143487
-3.68609e-05
-0.000137961
-3.92487e-05
-0.000131978
-4.1331e-05
-0.00012557
-4.30743e-05
-0.000118772
-4.44478e-05
-0.000111631
-4.54253e-05
-0.000104197
-4.59856e-05
-9.65291e-05
-4.61141e-05
-8.86899e-05
-4.58034e-05
-8.07487e-05
-4.50548e-05
-7.27777e-05
-4.38781e-05
-6.4851e-05
-4.22923e-05
-5.7043e-05
-4.03253e-05
-4.94263e-05
-3.80135e-05
-4.207e-05
-3.54006e-05
-3.50375e-05
-3.25367e-05
-2.83857e-05
-2.94763e-05
-2.2163e-05
-2.62765e-05
-1.64089e-05
-2.29957e-05
-1.11533e-05
-1.96911e-05
-6.41647e-06
-1.64176e-05
-2.20913e-06
-1.32257e-05
1.46696e-06
-1.01606e-05
4.61834e-06
-7.2616e-06
7.25901e-06
-4.56067e-06
9.40954e-06
-2.08273e-06