/*--------------------------------*- C++ -*----------------------------------*\
| =========                 |                                                 |
| \\      /  F ield         | OpenFOAM: The Open Source CFD Toolbox           |
|  \\    /   O peration     | Version:  2406                                  |
|   \\  /    A nd           | Website:  www.openfoam.com                      |
|    \\/     M anipulation  |                                                 |
\*---------------------------------------------------------------------------*/
FoamFile
{
    version     2.0;
    format      ascii;
    arch        "LSB;label=32;scalar=64";
    class       surfaceScalarField;
    location    "4.9";
    object      phi;
}
// * * * * * * * * * * * * * * * * * * * * * * * * * * * * * * * * * * * * * //

dimensions      [0 3 -1 0 0 0 0];

oriented        oriented;

internalField   nonuniform List<scalar> 
7080
(
-4.24818e-09
4.2347e-09
-1.29984e-07
1.27384e-07
-3.48649e-07
2.1844e-07
-6.29551e-07
2.82786e-07
-9.41039e-07
3.11616e-07
-1.26615e-06
3.27042e-07
-1.59503e-06
3.29287e-07
-1.92247e-06
3.29245e-07
-2.24711e-06
3.2522e-07
-2.56728e-06
3.21818e-07
-2.88344e-06
3.1686e-07
-3.19444e-06
3.12487e-07
-3.5006e-06
3.06942e-07
-3.80068e-06
3.01435e-07
-4.0946e-06
2.94729e-07
-4.38096e-06
2.87599e-07
-4.65932e-06
2.79179e-07
-4.92819e-06
2.6998e-07
-5.18678e-06
2.5938e-07
-5.43351e-06
2.47713e-07
-5.6673e-06
2.34522e-07
-5.88647e-06
2.20026e-07
-6.08972e-06
2.03894e-07
-6.27528e-06
1.8628e-07
-6.44172e-06
1.66962e-07
-6.58724e-06
1.4607e-07
-6.71033e-06
1.23485e-07
-6.8093e-06
9.9348e-08
-6.88273e-06
7.36459e-08
-6.9291e-06
4.65616e-08
-6.94726e-06
1.81905e-08
-6.93605e-06
-1.12245e-08
-6.89474e-06
-4.14811e-08
-6.82269e-06
-7.227e-08
-6.71977e-06
-1.03297e-07
-6.586e-06
-1.34198e-07
-6.42197e-06
-1.64618e-07
-6.22843e-06
-1.94162e-07
-6.00675e-06
-2.22471e-07
-5.75839e-06
-2.49157e-07
-5.48545e-06
-2.73916e-07
-5.18999e-06
-2.9641e-07
-4.87466e-06
-3.16465e-07
-4.5419e-06
-3.33815e-07
-4.1947e-06
-3.48481e-07
-3.83556e-06
-3.60255e-07
-3.46756e-06
-3.69398e-07
-3.09304e-06
-3.75657e-07
-2.71501e-06
-3.79512e-07
-2.33576e-06
-3.80356e-07
-1.95861e-06
-3.7869e-07
-1.58682e-06
-3.72791e-07
-1.22574e-06
-3.6264e-07
-8.8266e-07
-3.43894e-07
-5.68683e-07
-3.15433e-07
-3.00419e-07
-2.68771e-07
-9.70273e-08
-2.0456e-07
1.78366e-08
-1.14996e-07
4.1525e-08
-2.43973e-08
4.14793e-08
-1.30575e-07
1.33167e-07
-5.01152e-07
4.98013e-07
-1.0524e-06
7.66943e-07
-1.72679e-06
9.5646e-07
-2.47442e-06
1.05619e-06
-3.25972e-06
1.11106e-06
-4.06156e-06
1.12808e-06
-4.86571e-06
1.13182e-06
-5.66653e-06
1.12316e-06
-6.45878e-06
1.11234e-06
-7.24152e-06
1.09691e-06
-8.01181e-06
1.08098e-06
-8.7692e-06
1.06184e-06
-9.51095e-06
1.04137e-06
-1.0236e-05
1.01751e-06
-1.09415e-05
9.91279e-07
-1.16257e-05
9.61203e-07
-1.22852e-05
9.27863e-07
-1.2918e-05
8.90178e-07
-1.35203e-05
8.48466e-07
-1.40894e-05
8.01928e-07
-1.46215e-05
7.50737e-07
-1.51134e-05
6.94326e-07
-1.55611e-05
6.32821e-07
-1.59612e-05
5.65883e-07
-1.63098e-05
4.93678e-07
-1.66033e-05
4.16113e-07
-1.6838e-05
3.33475e-07
-1.70108e-05
2.45946e-07
-1.71185e-05
1.53996e-07
-1.71586e-05
5.81026e-08
-1.71286e-05
-4.10417e-08
-1.70272e-05
-1.42664e-07
-1.68531e-05
-2.45856e-07
-1.66062e-05
-3.49589e-07
-1.62866e-05
-4.52789e-07
-1.58959e-05
-5.54264e-07
-1.54359e-05
-6.52875e-07
-1.49096e-05
-7.47406e-07
-1.43202e-05
-8.36783e-07
-1.36725e-05
-9.19944e-07
-1.29708e-05
-9.96017e-07
-1.2221e-05
-1.06427e-06
-1.14284e-05
-1.12413e-06
-1.05993e-05
-1.17534e-06
-9.73945e-06
-1.2176e-06
-8.85534e-06
-1.25117e-06
-7.95256e-06
-1.27576e-06
-7.03779e-06
-1.29191e-06
-6.11693e-06
-1.29844e-06
-5.19801e-06
-1.29531e-06
-4.28968e-06
-1.27833e-06
-3.40521e-06
-1.24503e-06
-2.56189e-06
-1.18454e-06
-1.78511e-06
-1.09057e-06
-1.10774e-06
-9.43868e-07
-5.67828e-07
-7.4354e-07
-2.02277e-07
-4.78966e-07
-2.23988e-08
-2.04143e-07
1.98309e-08
-2.35093e-07
3.68425e-07
-8.054e-07
1.07114e-06
-1.6165e-06
1.57797e-06
-2.58343e-06
1.92639e-06
-3.64807e-06
2.12156e-06
-4.76346e-06
2.22943e-06
-5.90372e-06
2.26954e-06
-7.04881e-06
2.27975e-06
-8.19066e-06
2.26646e-06
-9.32123e-06
2.24554e-06
-1.04384e-05
2.21568e-06
-1.15377e-05
2.18274e-06
-1.26179e-05
2.14366e-06
-1.3675e-05
2.10075e-06
-1.47072e-05
2.05135e-06
-1.57104e-05
1.99652e-06
-1.66818e-05
1.93424e-06
-1.7617e-05
1.865e-06
-1.85126e-05
1.78729e-06
-1.93637e-05
1.70129e-06
-2.01663e-05
1.60586e-06
-2.09151e-05
1.50105e-06
-2.16056e-05
1.38608e-06
-2.22326e-05
1.26099e-06
-2.27911e-05
1.12537e-06
-2.32759e-05
9.79435e-07
-2.36822e-05
8.23201e-07
-2.40053e-05
6.57159e-07
-2.42407e-05
4.8182e-07
-2.43845e-05
2.98063e-07
-2.44333e-05
1.06933e-07
-2.43841e-05
-9.02559e-08
-2.42351e-05
-2.91924e-07
-2.39851e-05
-4.96346e-07
-2.36338e-05
-7.01493e-07
-2.31821e-05
-9.0534e-07
-2.26318e-05
-1.10558e-06
-2.19857e-05
-1.30008e-06
-2.1248e-05
-1.48653e-06
-2.04233e-05
-1.66294e-06
-1.95177e-05
-1.82728e-06
-1.85374e-05
-1.978e-06
-1.749e-05
-2.11364e-06
-1.63828e-05
-2.23328e-06
-1.52242e-05
-2.33623e-06
-1.40216e-05
-2.42218e-06
-1.2784e-05
-2.49123e-06
-1.15187e-05
-2.54316e-06
-1.02348e-05
-2.57829e-06
-8.94049e-06
-2.59487e-06
-7.64673e-06
-2.59164e-06
-6.36534e-06
-2.56164e-06
-5.11454e-06
-2.49837e-06
-3.91684e-06
-2.38384e-06
-2.80595e-06
-2.20381e-06
-1.8223e-06
-1.92857e-06
-1.01585e-06
-1.55195e-06
-4.30758e-07
-1.06429e-06
-9.6168e-08
-5.40254e-07
-7.64376e-08
-3.17818e-07
6.84259e-07
-1.04546e-06
1.7997e-06
-2.05241e-06
2.58181e-06
-3.23123e-06
3.10531e-06
-4.51958e-06
3.40703e-06
-5.8645e-06
3.5738e-06
-7.23909e-06
3.64144e-06
-8.61998e-06
3.65969e-06
-9.99803e-06
3.64205e-06
-1.13631e-05
3.60943e-06
-1.27122e-05
3.56252e-06
-1.40395e-05
3.50877e-06
-1.53431e-05
3.44515e-06
-1.66179e-05
3.3743e-06
-1.78616e-05
3.29313e-06
-1.9069e-05
3.20262e-06
-2.02368e-05
3.10033e-06
-2.13597e-05
2.98653e-06
-2.24332e-05
2.85934e-06
-2.34518e-05
2.7187e-06
-2.44105e-05
2.56318e-06
-2.53032e-05
2.39265e-06
-2.61244e-05
2.20613e-06
-2.68679e-05
2.00359e-06
-2.7528e-05
1.78459e-06
-2.80987e-05
1.54939e-06
-2.85743e-05
1.2982e-06
-2.89494e-05
1.03178e-06
-2.92191e-05
7.51049e-07
-2.93786e-05
4.57407e-07
-2.94244e-05
1.52591e-07
-2.93532e-05
-1.6133e-07
-2.91631e-05
-4.81817e-07
-2.88529e-05
-8.06177e-07
-2.84227e-05
-1.1312e-06
-2.78736e-05
-1.45377e-06
-2.72081e-05
-1.77026e-06
-2.64298e-05
-2.07745e-06
-2.55435e-05
-2.3717e-06
-2.45551e-05
-2.65006e-06
-2.34717e-05
-2.90936e-06
-2.23009e-05
-3.14734e-06
-2.10513e-05
-3.36168e-06
-1.97317e-05
-3.55113e-06
-1.83518e-05
-3.71452e-06
-1.69205e-05
-3.85155e-06
-1.5448e-05
-3.9621e-06
-1.3943e-05
-4.04609e-06
-1.24161e-05
-4.10342e-06
-1.08769e-05
-4.13192e-06
-9.33839e-06
-4.12858e-06
-7.814e-06
-4.08385e-06
-6.32472e-06
-3.98628e-06
-4.89515e-06
-3.81127e-06
-3.56289e-06
-3.53512e-06
-2.37043e-06
-3.11903e-06
-1.37382e-06
-2.54825e-06
-6.21288e-07
-1.81498e-06
-1.59641e-07
-1.00232e-06
-2.34944e-07
-3.67809e-07
1.05184e-06
-1.20458e-06
2.63985e-06
-2.35206e-06
3.72834e-06
-3.68389e-06
4.44015e-06
-5.13197e-06
4.85503e-06
-6.63834e-06
5.08286e-06
-8.17577e-06
5.17935e-06
-9.71902e-06
5.20536e-06
-1.12589e-05
5.18274e-06
-1.2784e-05
5.13674e-06
-1.42912e-05
5.07068e-06
-1.57736e-05
4.99317e-06
-1.7229e-05
4.9016e-06
-1.86516e-05
4.7987e-06
-2.00385e-05
4.68116e-06
-2.1384e-05
4.54976e-06
-2.26842e-05
4.40168e-06
-2.39331e-05
4.23693e-06
-2.5126e-05
4.05328e-06
-2.62564e-05
3.8504e-06
-2.73188e-05
3.62658e-06
-2.83065e-05
3.38146e-06
-2.92134e-05
3.11391e-06
-3.00327e-05
2.82378e-06
-3.07581e-05
2.51065e-06
-3.13828e-05
2.17486e-06
-3.19009e-05
1.81683e-06
-3.23063e-05
1.43764e-06
-3.25937e-05
1.03871e-06
-3.27581e-05
6.22003e-07
-3.27955e-05
1.90067e-07
-3.27026e-05
-2.54182e-07
-3.24775e-05
-7.07118e-07
-3.21191e-05
-1.16496e-06
-3.16275e-05
-1.62318e-06
-3.10045e-05
-2.07741e-06
-3.02528e-05
-2.52259e-06
-2.93768e-05
-2.95424e-06
-2.83822e-05
-3.3673e-06
-2.72755e-05
-3.75774e-06
-2.6065e-05
-4.12111e-06
-2.47591e-05
-4.45441e-06
-2.33678e-05
-4.75439e-06
-2.19008e-05
-5.01948e-06
-2.03689e-05
-5.24795e-06
-1.87822e-05
-5.43965e-06
-1.71519e-05
-5.59414e-06
-1.54876e-05
-5.71171e-06
-1.38012e-05
-5.79169e-06
-1.21027e-05
-5.83171e-06
-1.04064e-05
-5.82677e-06
-8.72636e-06
-5.7651e-06
-7.08487e-06
-5.62968e-06
-5.50711e-06
-5.38988e-06
-4.0328e-06
-5.01134e-06
-2.70555e-06
-4.44663e-06
-1.58624e-06
-3.66943e-06
-7.27925e-07
-2.67295e-06
-1.90569e-07
-1.54162e-06
-4.25406e-07
-4.02672e-07
1.45232e-06
-1.31596e-06
3.55474e-06
-2.5616e-06
4.97064e-06
-4.00011e-06
5.87942e-06
-5.55823e-06
6.41035e-06
-7.1747e-06
6.6994e-06
-8.82226e-06
6.82446e-06
-1.04747e-05
6.85744e-06
-1.21233e-05
6.82913e-06
-1.37558e-05
6.76862e-06
-1.53692e-05
6.68211e-06
-1.69559e-05
6.57906e-06
-1.85135e-05
6.45749e-06
-2.00357e-05
6.32003e-06
-2.15194e-05
6.16329e-06
-2.29583e-05
5.98773e-06
-2.43482e-05
5.79026e-06
-2.56827e-05
5.57055e-06
-2.69567e-05
5.32602e-06
-2.81632e-05
5.05605e-06
-2.92963e-05
4.75865e-06
-3.03488e-05
4.43321e-06
-3.13142e-05
4.07844e-06
-3.21852e-05
3.69408e-06
-3.29549e-05
3.27972e-06
-3.36164e-05
2.83576e-06
-3.41629e-05
2.36289e-06
-3.45882e-05
1.86251e-06
-3.48863e-05
1.33657e-06
-3.50522e-05
7.87676e-07
-3.50814e-05
2.19227e-07
-3.49706e-05
-3.64936e-07
-3.47176e-05
-9.5999e-07
-3.43213e-05
-1.56097e-06
-3.37823e-05
-2.16189e-06
-3.31022e-05
-2.75704e-06
-3.22844e-05
-3.33975e-06
-3.13338e-05
-3.90417e-06
-3.02567e-05
-4.44365e-06
-2.90605e-05
-4.95299e-06
-2.77544e-05
-5.42633e-06
-2.63479e-05
-5.85987e-06
-2.48519e-05
-6.24932e-06
-2.32772e-05
-6.59285e-06
-2.1636e-05
-6.88807e-06
-1.99391e-05
-7.13513e-06
-1.81989e-05
-7.33321e-06
-1.64259e-05
-7.4832e-06
-1.46327e-05
-7.58379e-06
-1.283e-05
-7.63277e-06
-1.10328e-05
-7.62298e-06
-9.25538e-06
-7.54087e-06
-7.52065e-06
-7.36364e-06
-5.85379e-06
-7.05505e-06
-4.29533e-06
-6.56941e-06
-2.88942e-06
-5.85079e-06
-1.6996e-06
-4.85944e-06
-7.82502e-07
-3.58813e-06
-2.04934e-07
-2.12002e-06
-6.29082e-07
-4.2221e-07
1.87401e-06
-1.38486e-06
4.52105e-06
-2.69672e-06
6.28101e-06
-4.20922e-06
7.395e-06
-5.8443e-06
8.04482e-06
-7.53777e-06
8.39545e-06
-9.26188e-06
8.54856e-06
-1.09899e-05
8.58765e-06
-1.27133e-05
8.55289e-06
-1.44197e-05
8.477e-06
-1.61062e-05
8.36922e-06
-1.77651e-05
8.23962e-06
-1.93938e-05
8.08694e-06
-2.09858e-05
7.91357e-06
-2.25378e-05
7.71609e-06
-2.40433e-05
7.49457e-06
-2.54979e-05
7.24568e-06
-2.68949e-05
6.96865e-06
-2.82287e-05
6.66063e-06
-2.94922e-05
6.3206e-06
-3.06792e-05
5.9463e-06
-3.17819e-05
5.53683e-06
-3.27936e-05
5.09072e-06
-3.37063e-05
4.60755e-06
-3.4513e-05
4.0869e-06
-3.52059e-05
3.52923e-06
-3.57781e-05
2.93547e-06
-3.62225e-05
2.30731e-06
-3.65331e-05
1.64731e-06
-3.67039e-05
9.58668e-07
-3.67303e-05
2.45734e-07
-3.66086e-05
-4.86682e-07
-3.63362e-05
-1.23246e-06
-3.5912e-05
-1.98536e-06
-3.53364e-05
-2.73778e-06
-3.46113e-05
-3.48253e-06
-3.37404e-05
-4.21113e-06
-3.27289e-05
-4.91624e-06
-3.15839e-05
-5.58938e-06
-3.03135e-05
-6.22403e-06
-2.89279e-05
-6.81277e-06
-2.74377e-05
-7.3509e-06
-2.58551e-05
-7.83293e-06
-2.4192e-05
-8.25677e-06
-2.24619e-05
-8.61933e-06
-2.06768e-05
-8.92118e-06
-1.88501e-05
-9.16111e-06
-1.69934e-05
-9.34084e-06
-1.512e-05
-9.45847e-06
-1.32414e-05
-9.51227e-06
-1.13729e-05
-9.49291e-06
-9.52898e-06
-9.38543e-06
-7.73307e-06
-9.16103e-06
-6.01038e-06
-8.77813e-06
-4.4022e-06
-8.17916e-06
-2.95358e-06
-7.29936e-06
-1.72998e-06
-6.08477e-06
-7.90408e-07
-4.52704e-06
-2.03032e-07
-2.70939e-06
-8.31848e-07
-4.36526e-07
2.30828e-06
-1.43324e-06
5.51976e-06
-2.79063e-06
7.63492e-06
-4.35445e-06
8.96001e-06
-6.04298e-06
9.73056e-06
-7.79011e-06
1.0143e-05
-9.56762e-06
1.03237e-05
-1.13485e-05
1.03685e-05
-1.31245e-05
1.0327e-05
-1.48834e-05
1.02355e-05
-1.66224e-05
1.01065e-05
-1.83336e-05
9.95035e-06
-2.00148e-05
9.76658e-06
-2.1659e-05
9.55723e-06
-2.32631e-05
9.3189e-06
-2.48204e-05
9.05115e-06
-2.63263e-05
8.75043e-06
-2.77738e-05
8.4155e-06
-2.91573e-05
8.04319e-06
-3.04694e-05
7.63203e-06
-3.17034e-05
7.17948e-06
-3.28514e-05
6.68426e-06
-3.39061e-05
6.14469e-06
-3.48592e-05
5.56013e-06
-3.5703e-05
4.9301e-06
-3.64292e-05
4.25506e-06
-3.70303e-05
3.53613e-06
-3.74985e-05
2.7753e-06
-3.78271e-05
1.97566e-06
-3.80096e-05
1.14106e-06
-3.80408e-05
2.76791e-07
-3.79162e-05
-6.11309e-07
-3.76328e-05
-1.51573e-06
-3.71892e-05
-2.42884e-06
-3.65855e-05
-3.34126e-06
-3.58235e-05
-4.24415e-06
-3.49072e-05
-5.12702e-06
-3.38422e-05
-5.98079e-06
-3.26361e-05
-6.79493e-06
-3.12981e-05
-7.56141e-06
-2.98393e-05
-8.27093e-06
-2.82716e-05
-8.91782e-06
-2.66086e-05
-9.49518e-06
-2.48638e-05
-1.00007e-05
-2.3052e-05
-1.04304e-05
-2.11868e-05
-1.07854e-05
-1.92829e-05
-1.10642e-05
-1.7353e-05
-1.12696e-05
-1.54115e-05
-1.13992e-05
-1.34706e-05
-1.1452e-05
-1.15461e-05
-1.14168e-05
-9.65292e-06
-1.12774e-05
-7.81462e-06
-1.09989e-05
-6.05669e-06
-1.05347e-05
-4.42083e-06
-9.81498e-06
-2.95278e-06
-8.7659e-06
-1.71859e-06
-7.3194e-06
-7.77827e-07
-5.46603e-06
-1.96102e-07
-3.29208e-06
-1.02676e-06
-4.44882e-07
2.75249e-06
-1.46455e-06
6.54322e-06
-2.85387e-06
9.02246e-06
-4.45482e-06
1.05641e-05
-6.18284e-06
1.14577e-05
-7.97028e-06
1.1933e-05
-9.78834e-06
1.21415e-05
-1.16097e-05
1.2192e-05
-1.34266e-05
1.21439e-05
-1.52265e-05
1.20373e-05
-1.70072e-05
1.18875e-05
-1.87608e-05
1.17055e-05
-2.04852e-05
1.14914e-05
-2.21735e-05
1.12469e-05
-2.38225e-05
1.09685e-05
-2.54254e-05
1.06553e-05
-2.69778e-05
1.03034e-05
-2.84725e-05
9.91113e-06
-2.99036e-05
9.47491e-06
-3.12635e-05
8.99277e-06
-3.25453e-05
8.4618e-06
-3.37406e-05
7.88028e-06
-3.48416e-05
7.24624e-06
-3.58396e-05
6.55873e-06
-3.67263e-05
5.81714e-06
-3.74926e-05
5.02182e-06
-3.81302e-05
4.17405e-06
-3.86306e-05
3.276e-06
-3.89861e-05
2.33129e-06
-3.91892e-05
1.34436e-06
-3.92338e-05
3.21503e-07
-3.91147e-05
-7.304e-07
-3.88282e-05
-1.80233e-06
-3.8372e-05
-2.88516e-06
-3.77459e-05
-3.96752e-06
-3.69515e-05
-5.03872e-06
-3.5993e-05
-6.08594e-06
-3.4876e-05
-7.09811e-06
-3.36091e-05
-8.06229e-06
-3.22023e-05
-8.96867e-06
-3.0668e-05
-9.80575e-06
-2.90197e-05
-1.05667e-05
-2.72727e-05
-1.12429e-05
-2.54423e-05
-1.18317e-05
-2.35451e-05
-1.23283e-05
-2.15966e-05
-1.27346e-05
-1.96132e-05
-1.30485e-05
-1.7609e-05
-1.32744e-05
-1.55997e-05
-1.34094e-05
-1.35984e-05
-1.3454e-05
-1.16215e-05
-1.33947e-05
-9.68457e-06
-1.32147e-05
-7.8114e-06
-1.28733e-05
-6.02795e-06
-1.23183e-05
-4.37631e-06
-1.14679e-05
-2.90292e-06
-1.02391e-05
-1.6736e-06
-8.55022e-06
-7.46939e-07
-6.39193e-06
-1.83285e-07
-3.85755e-06
-1.20972e-06
-4.52612e-07
3.2028e-06
-1.4903e-06
7.58309e-06
-2.90421e-06
1.04328e-05
-4.53382e-06
1.21951e-05
-6.2926e-06
1.32136e-05
-8.11188e-06
1.3753e-05
-9.96248e-06
1.39898e-05
-1.1817e-05
1.40467e-05
-1.36678e-05
1.39928e-05
-1.55027e-05
1.38721e-05
-1.73196e-05
1.37028e-05
-1.91109e-05
1.34964e-05
-2.08745e-05
1.32537e-05
-2.26038e-05
1.29757e-05
-2.42957e-05
1.26592e-05
-2.59433e-05
1.23024e-05
-2.75421e-05
1.19013e-05
-2.90849e-05
1.14534e-05
-3.05658e-05
1.09549e-05
-3.19768e-05
1.04032e-05
-3.33107e-05
9.79499e-06
-3.45588e-05
9.12789e-06
-3.57128e-05
8.3996e-06
-3.67631e-05
7.60871e-06
-3.77009e-05
6.75441e-06
-3.85162e-05
5.83679e-06
-3.91997e-05
4.8572e-06
-3.97418e-05
3.81788e-06
-4.01337e-05
2.72291e-06
-4.03667e-05
1.57728e-06
-4.04336e-05
3.88262e-07
-4.03278e-05
-8.36169e-07
-4.00448e-05
-2.08539e-06
-3.95812e-05
-3.34861e-06
-3.89363e-05
-4.61226e-06
-3.81113e-05
-5.86352e-06
-3.71101e-05
-7.08687e-06
-3.5939e-05
-8.26894e-06
-3.4607e-05
-9.3939e-06
-3.31254e-05
-1.04498e-05
-3.15081e-05
-1.14226e-05
-2.97705e-05
-1.23038e-05
-2.79299e-05
-1.30829e-05
-2.6004e-05
-1.3757e-05
-2.40117e-05
-1.432e-05
-2.19709e-05
-1.47747e-05
-1.99e-05
-1.51188e-05
-1.78151e-05
-1.53586e-05
-1.57333e-05
-1.54907e-05
-1.36688e-05
-1.55176e-05
-1.16392e-05
-1.54239e-05
-9.66027e-06
-1.51927e-05
-7.75634e-06
-1.4777e-05
-5.95371e-06
-1.41199e-05
-4.29457e-06
-1.31271e-05
-2.82557e-06
-1.17068e-05
-1.61138e-06
-9.76491e-06
-7.08131e-07
-7.29366e-06
-1.69027e-07
-4.39761e-06
-1.37772e-06
-4.58182e-07
3.66027e-06
-1.51064e-06
8.63947e-06
-2.94518e-06
1.18654e-05
-4.5992e-06
1.38523e-05
-6.38471e-06
1.49981e-05
-8.23223e-06
1.56031e-05
-1.01122e-05
1.58694e-05
-1.19973e-05
1.59339e-05
-1.38799e-05
1.58754e-05
-1.57481e-05
1.57421e-05
-1.76001e-05
1.55551e-05
-1.94285e-05
1.53263e-05
-2.12315e-05
1.50571e-05
-2.30026e-05
1.47481e-05
-2.47389e-05
1.43959e-05
-2.64335e-05
1.39981e-05
-2.80821e-05
1.35503e-05
-2.96773e-05
1.30495e-05
-3.12131e-05
1.24912e-05
-3.26813e-05
1.18722e-05
-3.40744e-05
1.11886e-05
-3.53833e-05
1.04373e-05
-3.6599e-05
9.61569e-06
-3.77113e-05
8.72157e-06
-3.87104e-05
7.75383e-06
-3.95854e-05
6.71215e-06
-4.03257e-05
5.59777e-06
-4.09204e-05
4.4129e-06
-4.13593e-05
3.16199e-06
-4.16323e-05
1.85044e-06
-4.17305e-05
4.8653e-07
-4.16459e-05
-9.20678e-07
-4.13724e-05
-2.35882e-06
-4.09058e-05
-3.81531e-06
-4.02441e-05
-5.27405e-06
-3.93879e-05
-6.71981e-06
-3.83411e-05
-8.13391e-06
-3.711e-05
-9.50022e-06
-3.57047e-05
-1.07995e-05
-3.41377e-05
-1.20171e-05
-3.24249e-05
-1.31358e-05
-3.05837e-05
-1.41454e-05
-2.86342e-05
-1.50328e-05
-2.65971e-05
-1.57946e-05
-2.44941e-05
-1.64235e-05
-2.23461e-05
-1.69232e-05
-2.01742e-05
-1.72914e-05
-1.79967e-05
-1.75364e-05
-1.58328e-05
-1.76552e-05
-1.36982e-05
-1.76526e-05
-1.16113e-05
-1.75116e-05
-9.58862e-06
-1.72156e-05
-7.65484e-06
-1.67116e-05
-5.83655e-06
-1.59382e-05
-4.17582e-06
-1.47889e-05
-2.71907e-06
-1.31633e-05
-1.52913e-06
-1.09561e-05
-6.58326e-07
-8.16376e-06
-1.5114e-07
-4.90632e-06
-1.52853e-06
-4.64685e-07
4.12255e-06
-1.53121e-06
9.70824e-06
-2.98481e-06
1.33153e-05
-4.66121e-06
1.55302e-05
-6.47134e-06
1.68053e-05
-8.34515e-06
1.74777e-05
-1.02529e-05
1.77748e-05
-1.21673e-05
1.78485e-05
-1.4081e-05
1.77872e-05
-1.59824e-05
1.76433e-05
-1.78699e-05
1.7441e-05
-1.97364e-05
1.71925e-05
-2.15804e-05
1.68997e-05
-2.33956e-05
1.65629e-05
-2.51793e-05
1.61784e-05
-2.69249e-05
1.57431e-05
-2.86279e-05
1.52524e-05
-3.0281e-05
1.47021e-05
-3.18782e-05
1.40876e-05
-3.34109e-05
1.34045e-05
-3.48715e-05
1.26485e-05
-3.62502e-05
1.18156e-05
-3.75375e-05
1.09024e-05
-3.87224e-05
9.9061e-06
-3.97939e-05
8.82494e-06
-4.07401e-05
7.65801e-06
-4.1549e-05
6.4063e-06
-4.2208e-05
5.07173e-06
-4.27053e-05
3.65899e-06
-4.30288e-05
2.1738e-06
-4.31677e-05
6.25374e-07
-4.31123e-05
-9.76144e-07
-4.28547e-05
-2.61653e-06
-4.23887e-05
-4.28123e-06
-4.17114e-05
-5.95129e-06
-4.08224e-05
-7.60867e-06
-3.97252e-05
-9.23099e-06
-3.84264e-05
-1.07988e-05
-3.69369e-05
-1.22887e-05
-3.52709e-05
-1.36829e-05
-3.34463e-05
-1.49601e-05
-3.14837e-05
-1.61077e-05
-2.94063e-05
-1.71098e-05
-2.72383e-05
-1.79622e-05
-2.50054e-05
-1.8656e-05
-2.27319e-05
-1.91963e-05
-2.04425e-05
-1.95804e-05
-1.81585e-05
-1.982e-05
-1.59013e-05
-1.99121e-05
-1.36884e-05
-1.98649e-05
-1.15393e-05
-1.96604e-05
-9.47138e-06
-1.92829e-05
-7.50921e-06
-1.86737e-05
-5.67946e-06
-1.77672e-05
-4.02358e-06
-1.64448e-05
-2.58718e-06
-1.45988e-05
-1.43028e-06
-1.21134e-05
-6.00204e-07
-8.99264e-06
-1.31132e-07
-5.3762e-06
-1.65883e-06
-4.70149e-07
4.59202e-06
-1.55028e-06
1.07925e-05
-3.02261e-06
1.47857e-05
-4.72109e-06
1.7232e-05
-6.55573e-06
1.86389e-05
-8.45599e-06
1.93806e-05
-1.03921e-05
1.97104e-05
-1.23366e-05
1.97952e-05
-1.42826e-05
1.97331e-05
-1.62187e-05
1.95812e-05
-1.81437e-05
1.93662e-05
-2.00508e-05
1.91011e-05
-2.19388e-05
1.87881e-05
-2.38018e-05
1.84271e-05
-2.56372e-05
1.80142e-05
-2.74385e-05
1.75455e-05
-2.92016e-05
1.7016e-05
-3.09191e-05
1.64206e-05
-3.2585e-05
1.57539e-05
-3.41906e-05
1.50108e-05
-3.57278e-05
1.41861e-05
-3.71864e-05
1.32748e-05
-3.85563e-05
1.22726e-05
-3.98254e-05
1.11758e-05
-4.09819e-05
9.98169e-06
-4.20121e-05
8.68865e-06
-4.29026e-05
7.29711e-06
-4.36391e-05
5.8085e-06
-4.42074e-05
4.22752e-06
-4.45935e-05
2.56003e-06
-4.4784e-05
8.1608e-07
-4.47669e-05
-9.93137e-07
-4.45319e-05
-2.85144e-06
-4.4071e-05
-4.74212e-06
-4.33793e-05
-6.643e-06
-4.24553e-05
-8.53277e-06
-4.13016e-05
-1.03847e-05
-3.99253e-05
-1.21753e-05
-3.83381e-05
-1.38761e-05
-3.65559e-05
-1.54653e-05
-3.45995e-05
-1.69166e-05
-3.24929e-05
-1.82147e-05
-3.02635e-05
-1.93395e-05
-2.79401e-05
-2.0286e-05
-2.5553e-05
-2.10434e-05
-2.31312e-05
-2.16184e-05
-2.07037e-05
-2.20082e-05
-1.82956e-05
-2.22285e-05
-1.5931e-05
-2.2277e-05
-1.36298e-05
-2.21665e-05
-1.14125e-05
-2.18781e-05
-9.2972e-06
-2.13984e-05
-7.30818e-06
-2.06632e-05
-5.47178e-06
-1.96036e-05
-3.82826e-06
-1.8089e-05
-2.4217e-06
-1.60052e-05
-1.30843e-06
-1.32275e-05
-5.29446e-07
-9.7711e-06
-1.06895e-07
-5.7999e-06
-1.76544e-06
-4.76839e-07
5.0663e-06
-1.57087e-06
1.18887e-05
-3.06194e-06
1.62729e-05
-4.7824e-06
1.89539e-05
-6.64148e-06
2.04949e-05
-8.56824e-06
2.13081e-05
-1.05329e-05
2.16726e-05
-1.25082e-05
2.17707e-05
-1.44875e-05
2.17104e-05
-1.64597e-05
2.15533e-05
-1.84241e-05
2.13289e-05
-2.03741e-05
2.10508e-05
-2.23092e-05
2.07218e-05
-2.42235e-05
2.0341e-05
-2.61148e-05
1.99044e-05
-2.79771e-05
1.94073e-05
-2.98062e-05
1.88441e-05
-3.1595e-05
1.82089e-05
-3.33373e-05
1.74955e-05
-3.50245e-05
1.66975e-05
-3.6648e-05
1.5809e-05
-3.81973e-05
1.48236e-05
-3.96614e-05
1.37362e-05
-4.10275e-05
1.25415e-05
-4.22823e-05
1.1236e-05
-4.34108e-05
9.81682e-06
-4.43976e-05
8.28358e-06
-4.52262e-05
6.63688e-06
-4.58802e-05
4.88119e-06
-4.63425e-05
3.02221e-06
-4.65973e-05
1.0707e-06
-4.66294e-05
-9.61211e-07
-4.64256e-05
-3.05532e-06
-4.59752e-05
-5.19256e-06
-4.5271e-05
-7.34715e-06
-4.43098e-05
-9.49398e-06
-4.30933e-05
-1.16011e-05
-4.16283e-05
-1.36402e-05
-3.99276e-05
-1.55766e-05
-3.80094e-05
-1.73834e-05
-3.58975e-05
-1.90282e-05
-3.36203e-05
-2.04917e-05
-3.12104e-05
-2.17491e-05
-2.87023e-05
-2.2794e-05
-2.61323e-05
-2.3613e-05
-2.35355e-05
-2.4215e-05
-2.09461e-05
-2.45973e-05
-1.83939e-05
-2.47805e-05
-1.59068e-05
-2.47638e-05
-1.35069e-05
-2.45661e-05
-1.12162e-05
-2.41685e-05
-9.05292e-06
-2.35614e-05
-7.04079e-06
-2.26751e-05
-5.20501e-06
-2.1439e-05
-3.58386e-06
-1.97101e-05
-2.21897e-06
-1.73695e-05
-1.16186e-06
-1.42848e-05
-4.45752e-07
-1.04864e-05
-7.88194e-08
-6.16736e-06
-1.84367e-06
-4.82489e-07
5.54824e-06
-1.59046e-06
1.3001e-05
-3.10073e-06
1.77813e-05
-4.84378e-06
2.07006e-05
-6.72815e-06
2.23784e-05
-8.68242e-06
2.32653e-05
-1.06769e-05
2.36667e-05
-1.26844e-05
2.37806e-05
-1.46988e-05
2.37248e-05
-1.67092e-05
2.35657e-05
-1.87154e-05
2.33354e-05
-2.07112e-05
2.30483e-05
-2.26966e-05
2.27076e-05
-2.46661e-05
2.23118e-05
-2.66179e-05
2.18567e-05
-2.85462e-05
2.13368e-05
-3.04474e-05
2.07458e-05
-3.23144e-05
2.00768e-05
-3.41412e-05
1.93227e-05
-3.59189e-05
1.8476e-05
-3.7639e-05
1.75295e-05
-3.92903e-05
1.64756e-05
-4.08613e-05
1.53076e-05
-4.23381e-05
1.40188e-05
-4.37062e-05
1.26044e-05
-4.49487e-05
1.10598e-05
-4.60484e-05
9.38355e-06
-4.69862e-05
7.57498e-06
-4.77427e-05
5.63793e-06
-4.82978e-05
3.57762e-06
-4.86321e-05
1.40524e-06
-4.87269e-05
-8.66331e-07
-4.85652e-05
-3.21685e-06
-4.81329e-05
-5.62478e-06
-4.74197e-05
-8.06025e-06
-4.64199e-05
-1.04938e-05
-4.51337e-05
-1.28873e-05
-4.35676e-05
-1.52064e-05
-4.17352e-05
-1.7409e-05
-3.96572e-05
-1.94616e-05
-3.73613e-05
-2.13241e-05
-3.48813e-05
-2.2972e-05
-3.2256e-05
-2.43744e-05
-2.95275e-05
-2.55229e-05
-2.67396e-05
-2.64009e-05
-2.39351e-05
-2.702e-05
-2.11548e-05
-2.73776e-05
-1.84348e-05
-2.75009e-05
-1.58071e-05
-2.73915e-05
-1.3297e-05
-2.70766e-05
-1.09276e-05
-2.6538e-05
-8.71698e-06
-2.57723e-05
-6.68746e-06
-2.47048e-05
-4.86224e-06
-2.32644e-05
-3.27651e-06
-2.12961e-05
-1.96835e-06
-1.86777e-05
-9.83115e-07
-1.52705e-05
-3.44724e-07
-1.11246e-05
-4.50916e-08
-6.46765e-06
-1.88862e-06
-4.89299e-07
6.03471e-06
-1.61126e-06
1.4125e-05
-3.14052e-06
1.93064e-05
-4.90598e-06
2.24672e-05
-6.81551e-06
2.42845e-05
-8.79734e-06
2.52476e-05
-1.08218e-05
2.56885e-05
-1.28621e-05
2.58209e-05
-1.49123e-05
2.57728e-05
-1.69621e-05
2.56152e-05
-1.90117e-05
2.53832e-05
-2.10556e-05
2.50917e-05
-2.30939e-05
2.47444e-05
-2.51219e-05
2.43393e-05
-2.71384e-05
2.38718e-05
-2.91378e-05
2.33356e-05
-3.1117e-05
2.27238e-05
-3.3069e-05
2.20283e-05
-3.49883e-05
2.12411e-05
-3.6866e-05
2.03532e-05
-3.86934e-05
1.93562e-05
-4.04589e-05
1.82407e-05
-4.21505e-05
1.69985e-05
-4.37531e-05
1.56211e-05
-4.5251e-05
1.41017e-05
-4.66255e-05
1.2434e-05
-4.78569e-05
1.06146e-05
-4.89236e-05
8.6413e-06
-4.98027e-05
6.51674e-06
-5.04704e-05
4.24513e-06
-5.09031e-05
1.83773e-06
-5.10775e-05
-6.9215e-07
-5.09722e-05
-3.32231e-06
-5.05685e-05
-6.02866e-06
-4.98519e-05
-8.77685e-06
-4.88136e-05
-1.15323e-05
-4.74512e-05
-1.42496e-05
-4.57705e-05
-1.68872e-05
-4.37858e-05
-1.93935e-05
-4.15207e-05
-2.17269e-05
-3.90072e-05
-2.38373e-05
-3.62859e-05
-2.56935e-05
-3.34035e-05
-2.72564e-05
-3.04116e-05
-2.85149e-05
-2.73636e-05
-2.94484e-05
-2.43122e-05
-3.00715e-05
-2.13071e-05
-3.03822e-05
-1.83917e-05
-3.04164e-05
-1.56037e-05
-3.01791e-05
-1.29717e-05
-2.97087e-05
-1.05197e-05
-2.89896e-05
-8.26523e-06
-2.80269e-05
-6.22779e-06
-2.67418e-05
-4.42728e-06
-2.5065e-05
-2.89427e-06
-2.28288e-05
-1.66187e-06
-1.991e-05
-7.67643e-07
-1.61646e-05
-2.24466e-07
-1.16675e-05
-5.47002e-09
-6.68674e-06
-1.89381e-06
-4.94612e-07
6.52903e-06
-1.63027e-06
1.52654e-05
-3.17869e-06
2.08532e-05
-4.96694e-06
2.42595e-05
-6.90225e-06
2.62191e-05
-8.91238e-06
2.7261e-05
-1.09679e-05
2.77438e-05
-1.30419e-05
2.78976e-05
-1.51293e-05
2.78604e-05
-1.72199e-05
2.7708e-05
-1.93148e-05
2.74785e-05
-2.14087e-05
2.71875e-05
-2.35027e-05
2.6839e-05
-2.55924e-05
2.64305e-05
-2.76772e-05
2.59573e-05
-2.97523e-05
2.5412e-05
-3.18149e-05
2.47871e-05
-3.38588e-05
2.40732e-05
-3.58785e-05
2.32614e-05
-3.78654e-05
2.2341e-05
-3.98109e-05
2.13022e-05
-4.17032e-05
2.01337e-05
-4.35297e-05
1.88255e-05
-4.52745e-05
1.73664e-05
-4.69202e-05
1.5748e-05
-4.84467e-05
1.39608e-05
-4.98315e-05
1.19998e-05
-5.10498e-05
9.86004e-06
-5.20752e-05
7.54249e-06
-5.28795e-05
5.04965e-06
-5.34337e-05
2.39231e-06
-5.37094e-05
-4.16341e-07
-5.3679e-05
-3.35236e-06
-5.33184e-05
-6.38916e-06
-5.26076e-05
-9.48747e-06
-5.15329e-05
-1.26069e-05
-5.00887e-05
-1.56936e-05
-4.82791e-05
-1.8697e-05
-4.61187e-05
-2.15538e-05
-4.3634e-05
-2.42118e-05
-4.08626e-05
-2.66086e-05
-3.7853e-05
-2.87034e-05
-3.46623e-05
-3.04469e-05
-3.13538e-05
-3.18238e-05
-2.79937e-05
-3.28083e-05
-2.46472e-05
-3.34185e-05
-2.13756e-05
-3.36536e-05
-1.82318e-05
-3.35607e-05
-1.52605e-05
-3.31502e-05
-1.24939e-05
-3.24758e-05
-9.95691e-06
-3.15262e-05
-7.66502e-06
-3.03193e-05
-5.63349e-06
-2.87731e-05
-3.87686e-06
-2.68221e-05
-2.41909e-06
-2.42863e-05
-1.28647e-06
-2.10431e-05
-5.06934e-07
-1.69439e-05
-8.03368e-08
-1.20944e-05
4.17452e-08
-6.80885e-06
-1.85216e-06
-5.01013e-07
7.02682e-06
-1.64973e-06
1.64159e-05
-3.21627e-06
2.24151e-05
-5.02629e-06
2.60704e-05
-6.98639e-06
2.81755e-05
-9.02401e-06
2.92988e-05
-1.11098e-05
2.98265e-05
-1.32173e-05
3.00049e-05
-1.53416e-05
2.99821e-05
-1.74734e-05
2.98392e-05
-1.96141e-05
2.96171e-05
-2.17592e-05
2.93319e-05
-2.39106e-05
2.89884e-05
-2.60644e-05
2.85836e-05
-2.82208e-05
2.81122e-05
-3.03757e-05
2.75662e-05
-3.25271e-05
2.69371e-05
-3.46692e-05
2.62145e-05
-3.67972e-05
2.53883e-05
-3.8903e-05
2.44461e-05
-4.0978e-05
2.33764e-05
-4.30105e-05
2.21656e-05
-4.49874e-05
2.08017e-05
-4.68922e-05
1.92707e-05
-4.87062e-05
1.75614e-05
-5.04071e-05
1.56613e-05
-5.19701e-05
1.35624e-05
-5.3367e-05
1.12565e-05
-5.45669e-05
8.74204e-06
-5.55365e-05
6.01891e-06
-5.6241e-05
3.09659e-06
-5.66452e-05
-1.25885e-08
-5.67142e-05
-3.28344e-06
-5.64167e-05
-6.68709e-06
-5.57251e-05
-1.01791e-05
-5.46198e-05
-1.37125e-05
-5.30898e-05
-1.72236e-05
-5.11365e-05
-2.06505e-05
-4.87741e-05
-2.3916e-05
-4.60323e-05
-2.69539e-05
-4.29548e-05
-2.96858e-05
-3.96003e-05
-3.20582e-05
-3.60386e-05
-3.40083e-05
-3.23483e-05
-3.55144e-05
-2.86121e-05
-3.65441e-05
-2.49116e-05
-3.71193e-05
-2.13231e-05
-3.72414e-05
-1.7912e-05
-3.69723e-05
-1.47312e-05
-3.63303e-05
-1.18176e-05
-3.53899e-05
-9.19605e-06
-3.41471e-05
-6.87833e-06
-3.26376e-05
-4.87299e-06
-3.07776e-05
-3.18638e-06
-2.85093e-05
-1.83316e-06
-2.56388e-05
-8.30364e-07
-2.20464e-05
-1.94129e-07
-1.75795e-05
9.07731e-08
-1.23798e-05
9.72832e-08
-6.81481e-06
-1.75497e-06
-5.05213e-07
7.53213e-06
-1.66612e-06
1.75821e-05
-3.25036e-06
2.39982e-05
-5.08192e-06
2.79064e-05
-7.06683e-06
3.01601e-05
-9.13204e-06
3.13678e-05
-1.12484e-05
3.19431e-05
-1.33895e-05
3.21491e-05
-1.55512e-05
3.21445e-05
-1.77245e-05
3.20151e-05
-1.99118e-05
3.18052e-05
-2.21091e-05
3.15314e-05
-2.43191e-05
3.11993e-05
-2.65388e-05
3.08051e-05
-2.87694e-05
3.03437e-05
-3.10074e-05
2.98057e-05
-3.32519e-05
2.91825e-05
-3.54979e-05
2.84618e-05
-3.77414e-05
2.76326e-05
-3.99749e-05
2.66806e-05
-4.21904e-05
2.55926e-05
-4.43764e-05
2.43524e-05
-4.65197e-05
2.29456e-05
-4.86032e-05
2.13549e-05
-5.06072e-05
1.95659e-05
-5.25075e-05
1.75622e-05
-5.42767e-05
1.53321e-05
-5.58828e-05
1.28631e-05
-5.72904e-05
1.01501e-05
-5.84602e-05
7.18909e-06
-5.93504e-05
3.9872e-06
-5.99175e-05
5.54746e-07
-6.01178e-05
-3.08265e-06
-5.99104e-05
-6.89442e-06
-5.92582e-05
-1.08309e-05
-5.81328e-05
-1.48379e-05
-5.65161e-05
-1.884e-05
-5.44046e-05
-2.27621e-05
-5.18111e-05
-2.65091e-05
-4.87682e-05
-2.99971e-05
-4.53268e-05
-3.31267e-05
-4.15581e-05
-3.58273e-05
-3.75479e-05
-3.80181e-05
-3.33949e-05
-3.96679e-05
-2.92028e-05
-4.07356e-05
-2.50751e-05
-4.12477e-05
-2.11072e-05
-4.12086e-05
-1.73808e-05
-4.06995e-05
-1.39597e-05
-3.97507e-05
-1.08859e-05
-3.84646e-05
-8.18323e-06
-3.68489e-05
-5.85723e-06
-3.49646e-05
-3.90625e-06
-3.27278e-05
-2.32443e-06
-3.00921e-05
-1.11336e-06
-2.6849e-05
-2.7782e-07
-2.2883e-05
1.8043e-07
-1.80368e-05
2.938e-07
-1.24943e-05
1.62798e-07
-6.68297e-06
-1.59264e-06
-5.10553e-07
8.03891e-06
-1.68224e-06
1.87551e-05
-3.28203e-06
2.55927e-05
-5.13294e-06
2.97578e-05
-7.14044e-06
3.21633e-05
-9.2312e-06
3.34582e-05
-1.13761e-05
3.40844e-05
-1.35493e-05
3.43215e-05
-1.57468e-05
3.43389e-05
-1.79606e-05
3.42278e-05
-2.01936e-05
3.40355e-05
-2.24427e-05
3.37795e-05
-2.47116e-05
3.34659e-05
-2.69981e-05
3.30906e-05
-2.93045e-05
3.26482e-05
-3.16284e-05
3.21286e-05
-3.39698e-05
3.15223e-05
-3.63249e-05
3.08159e-05
-3.86909e-05
2.99973e-05
-4.10611e-05
2.90499e-05
-4.34284e-05