/*--------------------------------*- C++ -*----------------------------------*\
| =========                 |                                                 |
| \\      /  F ield         | OpenFOAM: The Open Source CFD Toolbox           |
|  \\    /   O peration     | Version:  2406                                  |
|   \\  /    A nd           | Website:  www.openfoam.com                      |
|    \\/     M anipulation  |                                                 |
\*---------------------------------------------------------------------------*/
FoamFile
{
    version     2.0;
    format      ascii;
    arch        "LSB;label=32;scalar=64";
    class       volVectorField;
    location    "44.9";
    object      Uold;
}
// * * * * * * * * * * * * * * * * * * * * * * * * * * * * * * * * * * * * * //

dimensions      [0 1 -1 0 0 0 0];

internalField   nonuniform List<vector> 
3600
(
(-4.84965e-06 -6.41228e-06 0)
(0.000494181 -0.000246185 0)
(0.00149756 -0.0003714 0)
(0.00261607 -0.00038982 0)
(0.00367602 -0.000315293 0)
(0.00443975 -0.000215092 0)
(0.00494447 -0.000121943 0)
(0.0051797 -6.40679e-05 0)
(0.00527513 -4.01869e-05 0)
(0.00526289 -4.04845e-05 0)
(0.00520095 -4.54319e-05 0)
(0.00504693 -3.93224e-05 0)
(0.00475954 -1.11707e-05 0)
(0.00424475 4.30957e-05 0)
(0.00342256 0.000124692 0)
(0.00219323 0.000234648 0)
(0.000471299 0.000375289 0)
(-0.00183389 0.000545933 0)
(-0.0047966 0.000737426 0)
(-0.00848204 0.000936242 0)
(-0.012925 0.00113719 0)
(-0.0181184 0.00134913 0)
(-0.0239882 0.00158311 0)
(-0.0303844 0.00183224 0)
(-0.0370717 0.00206122 0)
(-0.0437367 0.00221438 0)
(-0.0500057 0.00223416 0)
(-0.055476 0.00207793 0)
(-0.059749 0.00172616 0)
(-0.0624634 0.00118321 0)
(-0.0633216 0.000474157 0)
(-0.0621109 -0.00035906 0)
(-0.0587223 -0.00126126 0)
(-0.0531647 -0.00216684 0)
(-0.0455782 -0.00300325 0)
(-0.0362409 -0.00369503 0)
(-0.0255711 -0.00417026 0)
(-0.0141131 -0.00436869 0)
(-0.00251372 -0.00425181 0)
(0.00852991 -0.00381312 0)
(0.0183267 -0.00308581 0)
(0.0262796 -0.00214563 0)
(0.0319497 -0.00110387 0)
(0.0351373 -9.22507e-05 0)
(0.0358928 0.000764297 0)
(0.034531 0.00137356 0)
(0.0315414 0.00170152 0)
(0.0275289 0.00177308 0)
(0.0230635 0.00165964 0)
(0.018641 0.00144256 0)
(0.0145734 0.00119226 0)
(0.0110598 0.000949432 0)
(0.0081274 0.000738173 0)
(0.00578058 0.00056243 0)
(0.00390795 0.000428303 0)
(0.00246807 0.000322533 0)
(0.00133469 0.000242107 0)
(0.00052974 0.000144436 0)
(2.91496e-05 3.48839e-05 0)
(-8.77328e-05 -9.31054e-05 0)
(0.000206653 -0.000474068 0)
(0.00148867 -0.00153628 0)
(0.00359366 -0.00205364 0)
(0.00580666 -0.00207971 0)
(0.00784172 -0.00170134 0)
(0.00928271 -0.00116237 0)
(0.0101425 -0.000622863 0)
(0.0103711 -0.000196433 0)
(0.0101271 0.000105668 0)
(0.00942694 0.000332888 0)
(0.00830518 0.000570641 0)
(0.00663544 0.000901406 0)
(0.004271 0.0013814 0)
(0.000979601 0.00203942 0)
(-0.0034551 0.00288184 0)
(-0.00926411 0.00390266 0)
(-0.0166308 0.00508175 0)
(-0.0256971 0.006389 0)
(-0.0364971 0.0077849 0)
(-0.0489201 0.00921356 0)
(-0.0626611 0.0105808 0)
(-0.0772372 0.0117496 0)
(-0.0920266 0.0125616 0)
(-0.106348 0.012874 0)
(-0.11953 0.0125834 0)
(-0.130981 0.0116383 0)
(-0.140209 0.010037 0)
(-0.146842 0.00782252 0)
(-0.150611 0.00507258 0)
(-0.151346 0.00189195 0)
(-0.148959 -0.001594 0)
(-0.143442 -0.00524169 0)
(-0.134866 -0.00889096 0)
(-0.123389 -0.0123649 0)
(-0.109262 -0.0154728 0)
(-0.0928436 -0.0180155 0)
(-0.0746092 -0.0197984 0)
(-0.0551503 -0.0206488 0)
(-0.0351707 -0.0204422 0)
(-0.0154538 -0.0191283 0)
(0.00316995 -0.016757 0)
(0.0198975 -0.0134912 0)
(0.0340032 -0.0096038 0)
(0.044935 -0.00545235 0)
(0.0523415 -0.00142943 0)
(0.056154 0.00209302 0)
(0.0565534 0.00483245 0)
(0.0540163 0.00663453 0)
(0.0491958 0.0075042 0)
(0.0429125 0.00757524 0)
(0.0359378 0.00707365 0)
(0.0289921 0.00623407 0)
(0.0225265 0.00526831 0)
(0.0168724 0.0043124 0)
(0.0120673 0.00346364 0)
(0.00816352 0.00272873 0)
(0.004999 0.00210836 0)
(0.00262087 0.00147162 0)
(0.000920651 0.000811844 0)
(8.40833e-05 5.59332e-05 0)
(0.00033998 -0.00143633 0)
(0.0021001 -0.00367089 0)
(0.0048288 -0.00468539 0)
(0.00751794 -0.00459942 0)
(0.0098297 -0.00368008 0)
(0.0112588 -0.00237848 0)
(0.0118133 -0.00104256 0)
(0.011405 0.000121115 0)
(0.0101555 0.00108725 0)
(0.00800252 0.00197777 0)
(0.00487739 0.00297706 0)
(0.000525964 0.00426949 0)
(-0.00532748 0.00597386 0)
(-0.0130292 0.00814645 0)
(-0.0228726 0.0107784 0)
(-0.0350998 0.0138173 0)
(-0.0497831 0.0171574 0)
(-0.0667665 0.0206275 0)
(-0.0855887 0.0239608 0)
(-0.105536 0.026822 0)
(-0.125741 0.0288776 0)
(-0.145332 0.0298763 0)
(-0.163541 0.0296817 0)
(-0.179769 0.0282685 0)
(-0.193584 0.0256914 0)
(-0.204704 0.0220567 0)
(-0.212958 0.0174966 0)
(-0.21825 0.0121583 0)
(-0.220534 0.00619562 0)
(-0.219791 -0.000229248 0)
(-0.21602 -0.00694395 0)
(-0.209239 -0.0137587 0)
(-0.199488 -0.0204605 0)
(-0.186849 -0.0268064 0)
(-0.17146 -0.032523 0)
(-0.153539 -0.0373103 0)
(-0.13341 -0.0408587 0)
(-0.111519 -0.0428739 0)
(-0.0884439 -0.0431185 0)
(-0.0648833 -0.0414536 0)
(-0.0416352 -0.0378873 0)
(-0.0195341 -0.0326003 0)
(0.000600315 -0.025954 0)
(0.018057 -0.0184582 0)
(0.0322641 -0.0107125 0)
(0.0428689 -0.0033306 0)
(0.0497067 0.00314149 0)
(0.0528751 0.00828139 0)
(0.0526648 0.0118504 0)
(0.0496461 0.0138063 0)
(0.0445132 0.0143171 0)
(0.0381241 0.013697 0)
(0.0312101 0.0123478 0)
(0.0244647 0.0106387 0)
(0.018235 0.00887792 0)
(0.0128396 0.00721232 0)
(0.00823848 0.00570179 0)
(0.00460997 0.00418338 0)
(0.00182157 0.00258119 0)
(0.000274818 0.000717868 0)
(0.000428672 -0.00262235 0)
(0.00246635 -0.00612742 0)
(0.00543243 -0.00751965 0)
(0.00807941 -0.00707244 0)
(0.0100506 -0.00534621 0)
(0.0108167 -0.00301058 0)
(0.0104028 -0.000597767 0)
(0.00867751 0.00163791 0)
(0.00567444 0.00369752 0)
(0.00118833 0.00581332 0)
(-0.00501538 0.0082819 0)
(-0.013343 0.0113777 0)
(-0.0241703 0.0152422 0)
(-0.0378489 0.0198947 0)
(-0.0545292 0.0252164 0)
(-0.0740949 0.0309565 0)
(-0.0960364 0.0366957 0)
(-0.119511 0.041897 0)
(-0.143477 0.0460204 0)
(-0.166927 0.0486629 0)
(-0.189027 0.0496124 0)
(-0.209188 0.0488351 0)
(-0.227036 0.0464176 0)
(-0.242368 0.0425154 0)
(-0.255089 0.0373088 0)
(-0.265164 0.0309809 0)
(-0.272591 0.0237044 0)
(-0.277372 0.0156414 0)
(-0.279504 0.00694527 0)
(-0.278967 -0.00222919 0)
(-0.275729 -0.0117167 0)
(-0.269743 -0.0213272 0)
(-0.260959 -0.030834 0)
(-0.249337 -0.0399614 0)
(-0.23487 -0.0483789 0)
(-0.217608 -0.0557016 0)
(-0.197689 -0.0615072 0)
(-0.175379 -0.0653656 0)
(-0.151099 -0.066892 0)
(-0.125439 -0.0658089 0)
(-0.09916 -0.0620198 0)
(-0.0731413 -0.0556604 0)
(-0.0483187 -0.0471259 0)
(-0.0255655 -0.0370353 0)
(-0.0056194 -0.026156 0)
(0.0110155 -0.0152923 0)
(0.0240339 -0.005183 0)
(0.0333602 0.00356056 0)
(0.0390412 0.0105013 0)
(0.0413415 0.0153871 0)
(0.0406423 0.0181928 0)
(0.0375855 0.0191095 0)
(0.0328379 0.0185295 0)
(0.0272125 0.0169343 0)
(0.0212727 0.0148131 0)
(0.0156208 0.0125102 0)
(0.0104259 0.0102129 0)
(0.00608514 0.0078154 0)
(0.00253607 0.00514064 0)
(0.000432592 0.00184521 0)
(0.000485489 -0.00402209 0)
(0.00263111 -0.00881814 0)
(0.00550689 -0.0103704 0)
(0.00767649 -0.0092132 0)
(0.00877717 -0.00632074 0)
(0.0082994 -0.002596 0)
(0.00628204 0.00125938 0)
(0.00253865 0.00501048 0)
(-0.00303102 0.00874163 0)
(-0.0108069 0.0128347 0)
(-0.0211901 0.0176851 0)
(-0.0346619 0.0235951 0)
(-0.0515218 0.030612 0)
(-0.0718178 0.0385405 0)
(-0.0951481 0.0469003 0)
(-0.12068 0.0549992 0)
(-0.147265 0.0620571 0)
(-0.173731 0.0674269 0)
(-0.1991 0.070707 0)
(-0.22269 0.07176 0)
(-0.244091 0.0706385 0)
(-0.263102 0.0675151 0)
(-0.279645 0.0626136 0)
(-0.293724 0.0561728 0)
(-0.305375 0.0484167 0)
(-0.314651 0.0395475 0)
(-0.321606 0.0297396 0)
(-0.326282 0.0191469 0)
(-0.328699 0.00790733 0)
(-0.328856 -0.00384287 0)
(-0.326718 -0.0159583 0)
(-0.322216 -0.0282655 0)
(-0.315247 -0.040548 0)
(-0.305679 -0.0525258 0)
(-0.293367 -0.0638438 0)
(-0.27817 -0.0740609 0)
(-0.259998 -0.0826605 0)
(-0.238851 -0.0890735 0)
(-0.214887 -0.0927357 0)
(-0.188473 -0.0931637 0)
(-0.160232 -0.0900603 0)
(-0.13104 -0.0834101 0)
(-0.101987 -0.073555 0)
(-0.0742331 -0.0611899 0)
(-0.0488652 -0.0472831 0)
(-0.026699 -0.0329078 0)
(-0.00822369 -0.0190671 0)
(0.0064269 -0.00657157 0)
(0.0172966 0.00399866 0)
(0.0245944 0.0122646 0)
(0.0285482 0.0180509 0)
(0.0295808 0.0213909 0)
(0.0281521 0.0225527 0)
(0.0249698 0.0219921 0)
(0.0206106 0.0202611 0)
(0.015816 0.0178578 0)
(0.0109263 0.0150934 0)
(0.0065559 0.0119697 0)
(0.00278537 0.00820183 0)
(0.000484731 0.00326964 0)
(0.000528906 -0.00546967 0)
(0.00261007 -0.0113474 0)
(0.00502048 -0.0126648 0)
(0.00623593 -0.0103447 0)
(0.00591662 -0.00588083 0)
(0.00361994 -0.000396424 0)
(-0.000632516 0.0052981 0)
(-0.00711278 0.0110799 0)
(-0.0160997 0.0171729 0)
(-0.0281269 0.024099 0)
(-0.043654 0.0322514 0)
(-0.0629923 0.0417747 0)
(-0.086007 0.0523659 0)
(-0.112064 0.0633468 0)
(-0.140041 0.0737548 0)
(-0.168619 0.0826386 0)
(-0.196575 0.0892736 0)
(-0.223006 0.0932885 0)
(-0.247337 0.094606 0)
(-0.269268 0.0933614 0)
(-0.28868 0.0897972 0)
(-0.305569 0.0842069 0)
(-0.320003 0.0768828 0)
(-0.332089 0.0681004 0)
(-0.341957 0.0580986 0)
(-0.349747 0.0470824 0)
(-0.355593 0.0352168 0)
(-0.359615 0.0226377 0)
(-0.361907 0.00945424 0)
(-0.362523 -0.00423462 0)
(-0.361472 -0.0183298 0)
(-0.358704 -0.0327094 0)
(-0.354103 -0.0472119 0)
(-0.347483 -0.0616072 0)
(-0.338591 -0.075577 0)
(-0.327111 -0.0886899 0)
(-0.312702 -0.100395 0)
(-0.295039 -0.110026 0)
(-0.273892 -0.116847 0)
(-0.249216 -0.120122 0)
(-0.221263 -0.119239 0)
(-0.190662 -0.113853 0)
(-0.158463 -0.104038 0)
(-0.12606 -0.0903742 0)
(-0.0950261 -0.0739366 0)
(-0.0668078 -0.0561219 0)
(-0.0424612 -0.0383722 0)
(-0.022449 -0.0218889 0)
(-0.00675973 -0.00748897 0)
(0.0049424 0.0043577 0)
(0.0130008 0.0134287 0)
(0.0178305 0.0196806 0)
(0.0197817 0.0232599 0)
(0.019418 0.0245227 0)
(0.0172248 0.0239696 0)
(0.0139418 0.0221519 0)
(0.00999884 0.0194409 0)
(0.00615189 0.0159321 0)
(0.00264244 0.0112405 0)
(0.000456705 0.00470279 0)
(0.000542414 -0.00694358 0)
(0.00233079 -0.0135266 0)
(0.00385675 -0.0140909 0)
(0.00364395 -0.0100946 0)
(0.001396 -0.00361695 0)
(-0.00323629 0.00405213 0)
(-0.0103047 0.0120822 0)
(-0.0201863 0.0205444 0)
(-0.0333231 0.0298033 0)
(-0.0502564 0.040408 0)
(-0.0712386 0.0525182 0)
(-0.0960566 0.0658283 0)
(-0.123869 0.0794524 0)
(-0.153375 0.0922379 0)
(-0.183123 0.103052 0)
(-0.211872 0.111116 0)
(-0.238743 0.116051 0)
(-0.26321 0.117832 0)
(-0.285013 0.116644 0)
(-0.304073 0.112796 0)
(-0.320432 0.106643 0)
(-0.334216 0.0985494 0)
(-0.345611 0.0888556 0)
(-0.354839 0.0778683 0)
(-0.362138 0.0658417 0)
(-0.367746 0.0529821 0)
(-0.371884 0.0394415 0)
(-0.374746 0.0253307 0)
(-0.376488 0.0107226 0)
(-0.37722 -0.00432975 0)
(-0.377001 -0.0197843 0)
(-0.375824 -0.0355861 0)
(-0.373609 -0.0516515 0)
(-0.370182 -0.067837 0)
(-0.365269 -0.0839149 0)
(-0.358477 -0.0995353 0)
(-0.349306 -0.114203 0)
(-0.337165 -0.127251 0)
(-0.321435 -0.137858 0)
(-0.301566 -0.145083 0)
(-0.277224 -0.147975 0)
(-0.248453 -0.145729 0)
(-0.215849 -0.137906 0)
(-0.180637 -0.124632 0)
(-0.144632 -0.106757 0)
(-0.109967 -0.0858092 0)
(-0.0786703 -0.0637438 0)
(-0.0521413 -0.0424733 0)
(-0.0309128 -0.0234325 0)
(-0.014699 -0.00740567 0)
(-0.00289069 0.00533847 0)
(0.00520242 0.0148087 0)
(0.010076 0.0211585 0)
(0.0122861 0.0246972 0)
(0.0122623 0.0258474 0)
(0.0106844 0.0251386 0)
(0.00801037 0.0229294 0)
(0.00504584 0.0193577 0)
(0.00216577 0.0139575 0)
(0.000357467 0.00597965 0)
(0.000503098 -0.00823332 0)
(0.00169391 -0.0148908 0)
(0.001855 -0.0140654 0)
(-0.000264059 -0.00785903 0)
(-0.00491877 0.00107046 0)
(-0.0123534 0.0113662 0)
(-0.0227536 0.0222783 0)
(-0.0365697 0.0340959 0)
(-0.0542891 0.047211 0)
(-0.0761861 0.0619474 0)
(-0.101993 0.07793 0)
(-0.130772 0.0942162 0)
(-0.161095 0.109431 0)
(-0.191411 0.12231 0)
(-0.220424 0.131951 0)
(-0.247232 0.137965 0)
(-0.271302 0.14033 0)
(-0.292372 0.139285 0)
(-0.310387 0.135201 0)
(-0.325432 0.128522 0)
(-0.337712 0.1197 0)
(-0.347506 0.109173 0)
(-0.35514 0.0973233 0)
(-0.360951 0.0844768 0)
(-0.365266 0.0708818 0)
(-0.368383 0.0567236 0)
(-0.370562 0.0421211 0)
(-0.372022 0.0271461 0)
(-0.372939 0.0118267 0)
(-0.373447 -0.0038326 0)
(-0.373637 -0.0198455 0)
(-0.373551 -0.0362225 0)
(-0.373173 -0.0529612 0)
(-0.372404 -0.0700181 0)
(-0.371051 -0.0872871 0)
(-0.368781 -0.104558 0)
(-0.365106 -0.121479 0)
(-0.359356 -0.137511 0)
(-0.350699 -0.151894 0)
(-0.338186 -0.163638 0)
(-0.320882 -0.171573 0)
(-0.298054 -0.174464 0)
(-0.269438 -0.171225 0)
(-0.235488 -0.161212 0)
(-0.197585 -0.14454 0)
(-0.158004 -0.122309 0)
(-0.119608 -0.0965927 0)
(-0.085164 -0.070047 0)
(-0.0565967 -0.0451965 0)
(-0.0344661 -0.0237518 0)
(-0.0182326 -0.00640105 0)
(-0.00682396 0.0068778 0)
(0.000691998 0.0163913 0)
(0.00512272 0.022549 0)
(0.00700887 0.0257734 0)
(0.00702174 0.0265635 0)
(0.00564606 0.0252283 0)
(0.00367492 0.0218962 0)
(0.00157493 0.0160515 0)
(0.00024133 0.00693193 0)
(0.000379916 -0.00917759 0)
(0.000610349 -0.0150892 0)
(-0.00107067 -0.0122004 0)
(-0.00550431 -0.00328907 0)
(-0.0129434 0.00850952 0)
(-0.0235256 0.0218919 0)
(-0.0375976 0.0362498 0)
(-0.055559 0.051997 0)
(-0.077724 0.0693083 0)
(-0.103812 0.0879799 0)
(-0.132905 0.10694 0)
(-0.16348 0.124734 0)
(-0.193925 0.139865 0)
(-0.222836 0.151324 0)
(-0.249262 0.158619 0)
(-0.272612 0.161735 0)
(-0.292621 0.160933 0)
(-0.309244 0.15667 0)
(-0.322639 0.149482 0)
(-0.333092 0.139943 0)
(-0.340995 0.128588 0)
(-0.346769 0.115902 0)
(-0.350842 0.102273 0)
(-0.353601 0.0880061 0)
(-0.355391 0.0733101 0)
(-0.35649 0.058325 0)
(-0.357129 0.0431223 0)
(-0.357487 0.0277315 0)
(-0.357712 0.0121424 0)
(-0.357913 -0.00367372 0)
(-0.358185 -0.0197643 0)
(-0.358593 -0.0361775 0)
(-0.359181 -0.0529618 0)
(-0.359942 -0.070145 0)
(-0.360814 -0.0877243 0)
(-0.361626 -0.10563 0)
(-0.362066 -0.123696 0)
(-0.361616 -0.141595 0)
(-0.359518 -0.158786 0)
(-0.354741 -0.174444 0)
(-0.346036 -0.187438 0)
(-0.332048 -0.196343 0)
(-0.311577 -0.199587 0)
(-0.283918 -0.195697 0)
(-0.249278 -0.183708 0)
(-0.209103 -0.16362 0)
(-0.166168 -0.136778 0)
(-0.124165 -0.105909 0)
(-0.0868033 -0.0745726 0)
(-0.0565772 -0.0460744 0)
(-0.0340958 -0.022414 0)
(-0.0183582 -0.00408002 0)
(-0.00788781 0.00934735 0)
(-0.00133003 0.0185546 0)
(0.00223095 0.0241467 0)
(0.00361519 0.0266846 0)
(0.00339967 0.0264627 0)
(0.0023587 0.0235851 0)
(0.00101525 0.017533 0)
(0.000136453 0.00758493 0)
(0.000142829 -0.00945736 0)
(-0.000982577 -0.01361 0)
(-0.00494191 -0.00799827 0)
(-0.0120067 0.00404115 0)
(-0.0224925 0.0190818 0)
(-0.03641 0.0359677 0)
(-0.0542269 0.054203 0)
(-0.0760892 0.074104 0)
(-0.10192 0.0953442 0)
(-0.130756 0.117021 0)
(-0.161175 0.137483 0)
(-0.191413 0.15511 0)
(-0.220023 0.168637 0)
(-0.2459 0.177481 0)
(-0.26843 0.181549 0)
(-0.287286 0.181152 0)
(-0.302477 0.176809 0)
(-0.314204 0.169192 0)
(-0.322875 0.158991 0)
(-0.328969 0.14688 0)
(-0.333022 0.133434 0)
(-0.335522 0.119123 0)
(-0.336916 0.104289 0)
(-0.337552 0.0891725 0)
(-0.337718 0.0739129 0)
(-0.337612 0.0585876 0)
(-0.337393 0.0432152 0)
(-0.337166 0.0277868 0)
(-0.337021 0.0122642 0)
(-0.337027 -0.00339828 0)
(-0.337255 -0.0192608 0)
(-0.337769 -0.0353825 0)
(-0.338639 -0.0518296 0)
(-0.339923 -0.0686611 0)
(-0.341662 -0.0859316 0)
(-0.343844 -0.103668 0)
(-0.346378 -0.121854 0)
(-0.349013 -0.140379 0)
(-0.351288 -0.158981 0)
(-0.352427 -0.177155 0)
(-0.351299 -0.194064 0)
(-0.346399 -0.208453 0)
(-0.33598 -0.218646 0)
(-0.318316 -0.222664 0)
(-0.292172 -0.218537 0)
(-0.25737 -0.204834 0)
(-0.215346 -0.181327 0)
(-0.169359 -0.149608 0)
(-0.124077 -0.113217 0)
(-0.0842611 -0.0768888 0)
(-0.0530485 -0.0448696 0)
(-0.0308718 -0.0193897 0)
(-0.016209 -0.000555168 0)
(-0.00702218 0.0125798 0)
(-0.00172486 0.0210251 0)
(0.000900711 0.0255977 0)
(0.00166375 0.0267039 0)
(0.00138202 0.024472 0)
(0.000630889 0.0184411 0)
(7.5392e-05 0.00797014 0)
(-0.000223561 -0.00880483 0)
(-0.00306403 -0.0101079 0)
(-0.00961634 -0.00121065 0)
(-0.0194753 0.0142681 0)
(-0.0330905 0.0328423 0)
(-0.0502895 0.0535209 0)
(-0.0715597 0.0757859 0)
(-0.0965854 0.0995793 0)
(-0.124803 0.123893 0)
(-0.154659 0.147185 0)
(-0.184529 0.167539 0)
(-0.212711 0.183509 0)
(-0.23809 0.194251 0)
(-0.259865 0.199619 0)
(-0.277752 0.199893 0)
(-0.29171 0.195697 0)
(-0.302061 0.187808 0)
(-0.309261 0.177084 0)
(-0.313932 0.164321 0)
(-0.316665 0.150218 0)
(-0.318039 0.13531 0)
(-0.318505 0.11999 0)
(-0.318439 0.104505 0)
(-0.318084 0.0890051 0)
(-0.317625 0.0735497 0)
(-0.317158 0.0581566 0)
(-0.316759 0.0428026 0)
(-0.316459 0.0274549 0)
(-0.316299 0.0120644 0)
(-0.316302 -0.0034148 0)
(-0.316516 -0.019037 0)
(-0.316987 -0.0348514 0)
(-0.317789 -0.050916 0)
(-0.318994 -0.0672866 0)
(-0.320698 -0.0840291 0)
(-0.32298 -0.101206 0)
(-0.325899 -0.118879 0)
(-0.329438 -0.137079 0)
(-0.333458 -0.15577 0)
(-0.337583 -0.174776 0)
(-0.341109 -0.193675 0)
(-0.342878 -0.211654 0)
(-0.341232 -0.227383 0)
(-0.334074 -0.238937 0)
(-0.319167 -0.243889 0)
(-0.294673 -0.239665 0)
(-0.259944 -0.224223 0)
(-0.216319 -0.197016 0)
(-0.167588 -0.159922 0)
(-0.119503 -0.117567 0)
(-0.0780281 -0.0761856 0)
(-0.0467792 -0.0410856 0)
(-0.0257651 -0.0144767 0)
(-0.0126837 0.00418836 0)
(-0.00509846 0.0163983 0)
(-0.00110974 0.0234864 0)
(0.000535417 0.0261943 0)
(0.000836406 0.0248079 0)
(0.000462436 0.0190048 0)
(6.27549e-05 0.0082385 0)
(-0.000721305 -0.00688781 0)
(-0.0055617 -0.00422722 0)
(-0.0148784 0.00839059 0)
(-0.0275394 0.0275025 0)
(-0.0441743 0.0497831 0)
(-0.0643349 0.0743228 0)
(-0.0884088 0.100383 0)
(-0.115498 0.127309 0)
(-0.144622 0.15342 0)
(-0.173861 0.176779 0)
(-0.201683 0.195546 0)
(-0.22661 0.208661 0)
(-0.247903 0.215756 0)
(-0.26507 0.21711 0)
(-0.278183 0.213375 0)
(-0.287512 0.205481 0)
(-0.293677 0.194426 0)
(-0.297319 0.181179 0)
(-0.299168 0.166549 0)
(-0.299805 0.151169 0)
(-0.299748 0.135465 0)
(-0.299329 0.11971 0)
(-0.298803 0.104038 0)
(-0.298285 0.0885044 0)
(-0.297862 0.073104 0)
(-0.297541 0.057811 0)
(-0.297339 0.042578 0)
(-0.297238 0.0273639 0)
(-0.297248 0.0121208 0)
(-0.297367 -0.00318817 0)
(-0.297625 -0.0186045 0)
(-0.29805 -0.0341613 0)
(-0.298708 -0.0499 0)
(-0.299664 -0.0658599 0)
(-0.301019 -0.0820952 0)
(-0.302875 -0.0986663 0)
(-0.305358 -0.115653 0)
(-0.30857 -0.133142 0)
(-0.312576 -0.15122 0)
(-0.317325 -0.169925 0)
(-0.322559 -0.18918 0)
(-0.327666 -0.208657 0)
(-0.331531 -0.2276 0)
(-0.3324 -0.244618 0)
(-0.327911 -0.257534 0)
(-0.315338 -0.263428 0)
(-0.292245 -0.259009 0)
(-0.257463 -0.241508 0)
(-0.21224 -0.209993 0)
(-0.160982 -0.166809 0)
(-0.110732 -0.118062 0)
(-0.0686858 -0.0719233 0)
(-0.0386368 -0.0346463 0)
(-0.0196306 -0.00794142 0)
(-0.00859485 0.00965112 0)
(-0.0027309 0.0201697 0)
(-9.8098e-05 0.0249767 0)
(0.000692603 0.0247405 0)
(0.000504574 0.0193893 0)
(9.80706e-05 0.00849175 0)
(-0.00131898 -0.00349904 0)
(-0.00829871 0.00414213 0)
(-0.0203596 0.020742 0)
(-0.0356439 0.0435271 0)
(-0.0549717 0.0694973 0)
(-0.0775178 0.0976647 0)
(-0.103488 0.126893 0)
(-0.131401 0.155839 0)
(-0.160045 0.182333 0)
(-0.187372 0.204336 0)
(-0.212132 0.22034 0)
(-0.233135 0.229762 0)
(-0.250039 0.232723 0)
(-0.262671 0.229921 0)
(-0.271482 0.222375 0)
(-0.277008 0.211267 0)
(-0.280082 0.197725 0)
(-0.281403 0.182717 0)
(-0.281688 0.166965 0)
(-0.281402 0.150963 0)
(-0.280937 0.134989 0)
(-0.280469 0.119184 0)
(-0.280133 0.103579 0)
(-0.279936 0.0881606 0)
(-0.279892 0.0728801 0)
(-0.279954 0.0576918 0)
(-0.280108 0.0425432 0)
(-0.280313 0.0273979 0)
(-0.280569 0.0122181 0)
(-0.280859 -0.00301929 0)
(-0.281208 -0.0183404 0)
(-0.281629 -0.0337611 0)
(-0.282175 -0.0493045 0)
(-0.282893 -0.06499 0)
(-0.283869 -0.0808509 0)
(-0.285193 -0.0969276 0)
(-0.286994 -0.113286 0)
(-0.289404 -0.130014 0)
(-0.29258 -0.147232 0)
(-0.29664 -0.165078 0)
(-0.301633 -0.183675 0)
(-0.3074 -0.203048 0)
(-0.31344 -0.222972 0)
(-0.318686 -0.24275 0)
(-0.321338 -0.260922 0)
(-0.318792 -0.275037 0)
(-0.307887 -0.281595 0)
(-0.285607 -0.276501 0)
(-0.250303 -0.256138 0)
(-0.203229 -0.219263 0)
(-0.149633 -0.169003 0)
(-0.0980982 -0.113635 0)
(-0.0569837 -0.0636177 0)
(-0.0295242 -0.0256664 0)
(-0.0133142 -0.000237301 0)
(-0.00461426 0.015235 0)
(-0.000593521 0.0230011 0)
(0.000766049 0.0244029 0)
(0.000677521 0.0197797 0)
(0.000163806 0.00885589 0)
(-0.00197382 0.00152038 0)
(-0.0110886 0.01503 0)
(-0.0257104 0.0357189 0)
(-0.0432875 0.0620819 0)
(-0.0648037 0.0915352 0)
(-0.0889833 0.122822 0)
(-0.115838 0.154306 0)
(-0.143405 0.18401 0)
(-0.170451 0.209536 0)
(-0.194984 0.229007 0)
(-0.216139 0.2414 0)
(-0.233028 0.246638 0)
(-0.245722 0.245342 0)
(-0.254363 0.238611 0)
(-0.259737 0.227779 0)
(-0.262537 0.214172 0)
(-0.263688 0.198927 0)
(-0.263817 0.182904 0)
(-0.263534 0.166664 0)
(-0.263133 0.150525 0)
(-0.262866 0.13462 0)
(-0.262766 0.118975 0)
(-0.262881 0.10355 0)
(-0.263143 0.0882915 0)
(-0.263537 0.0731332 0)
(-0.263986 0.0580278 0)
(-0.264477 0.0429296 0)
(-0.264961 0.0278128 0)
(-0.265442 0.0126518 0)
(-0.265901 -0.002564 0)
(-0.266361 -0.0178487 0)
(-0.266829 -0.0332059 0)
(-0.267346 -0.0486462 0)
(-0.267941 -0.0641741 0)
(-0.26868 -0.0798055 0)
(-0.269623 -0.0955594 0)
(-0.27087 -0.111476 0)
(-0.272533 -0.127617 0)
(-0.274769 -0.144085 0)
(-0.277749 -0.161028 0)
(-0.281661 -0.178638 0)
(-0.28662 -0.197124 0)
(-0.292586 -0.216615 0)
(-0.29914 -0.236996 0)
(-0.305271 -0.257599 0)
(-0.3091 -0.276863 0)
(-0.307788 -0.291952 0)
(-0.297744 -0.298697 0)
(-0.275422 -0.29203 0)
(-0.238822 -0.267489 0)
(-0.189443 -0.223682 0)
(-0.133783 -0.165261 0)
(-0.082259 -0.103551 0)
(-0.0439808 -0.0514358 0)
(-0.0204528 -0.0148735 0)
(-0.00756387 0.00779997 0)
(-0.00142835 0.0198857 0)
(0.000799193 0.0237026 0)
(0.000876076 0.0202023 0)
(0.000240586 0.00936594 0)
(-0.00261423 0.00814301 0)
(-0.0136812 0.0282108 0)
(-0.0305105 0.0529255 0)
(-0.0499095 0.0826007 0)
(-0.0729775 0.115107 0)
(-0.0979658 0.148762 0)
(-0.124739 0.181432 0)
(-0.151008 0.21066 0)
(-0.175695 0.234089 0)
(-0.196977 0.250181 0)
(-0.214412 0.258481 0)
(-0.227415 0.25942 0)
(-0.236463 0.254106 0)
(-0.24196 0.243986 0)
(-0.244921 0.2306 0)
(-0.246073 0.215286 0)
(-0.246309 0.199076 0)
(-0.246097 0.18264 0)
(-0.245902 0.16635 0)
(-0.245839 0.150353 0)
(-0.246045 0.134664 0)
(-0.246451 0.11923 0)
(-0.247056 0.103973 0)
(-0.247757 0.0888255 0)
(-0.248532 0.0737248 0)
(-0.249303 0.0586324 0)
(-0.250064 0.0435161 0)
(-0.25077 0.0283626 0)
(-0.251434 0.0131586 0)
(-0.252036 -0.00209592 0)
(-0.252605 -0.0174053 0)
(-0.253139 -0.0327646 0)
(-0.253677 -0.0481755 0)
(-0.254235 -0.0636336 0)
(-0.254861 -0.0791433 0)
(-0.25559 -0.0947088 0)
(-0.256491 -0.110349 0)
(-0.257635 -0.126097 0)
(-0.259141 -0.142018 0)
(-0.26115 -0.158224 0)
(-0.263869 -0.17489 0)
(-0.267515 -0.192267 0)
(-0.272297 -0.210647 0)
(-0.278258 -0.230285 0)
(-0.285078 -0.251152 0)
(-0.29175 -0.272611 0)
(-0.296283 -0.292877 0)
(-0.295534 -0.308621 0)
(-0.285453 -0.31475 0)
(-0.262038 -0.30513 0)
(-0.223138 -0.274421 0)
(-0.170976 -0.221688 0)
(-0.113855 -0.154199 0)
(-0.0643192 -0.0875468 0)
(-0.031033 -0.036186 0)
(-0.0123588 -0.00327588 0)
(-0.00310015 0.0150335 0)
(0.000512459 0.0224027 0)
(0.000981261 0.0205998 0)
(0.000305858 0.0100276 0)
(-0.0031812 0.0162413 0)
(-0.015893 0.0433885 0)
(-0.0344716 0.0719592 0)
(-0.0551467 0.104578 0)
(-0.0790813 0.139575 0)
(-0.104087 0.174743 0)
(-0.129968 0.207541 0)
(-0.154259 0.235221 0)
(-0.176168 0.255699 0)
(-0.194093 0.267885 0)
(-0.208022 0.271929 0)
(-0.217651 0.268752 0)
(-0.22382 0.259913 0)
(-0.22709 0.247094 0)
(-0.228591 0.231913 0)
(-0.228963 0.215594 0)
(-0.228991 0.198985 0)
(-0.228947 0.182534 0)
(-0.229152 0.166431 0)
(-0.229578 0.150687 0)
(-0.230288 0.135236 0)
(-0.23115 0.119983 0)
(-0.232154 0.104844 0)
(-0.233183 0.0897522 0)
(-0.234233 0.0746594 0)
(-0.235226 0.0595398 0)
(-0.236175 0.0443751 0)
(-0.237036 0.0291624 0)
(-0.237834 0.0138983 0)
(-0.23855 -0.00141023 0)
(-0.239215 -0.0167611 0)
(-0.239825 -0.0321445 0)
(-0.240417 -0.0475573 0)
(-0.240997 -0.0629912 0)
(-0.241607 -0.0784451 0)
(-0.242263 -0.0939161 0)
(-0.243011 -0.10941 0)
(-0.243888 -0.124942 0)
(-0.24497 -0.140545 0)
(-0.246343 -0.156286 0)
(-0.248165 -0.172284 0)
(-0.250633 -0.188747 0)
(-0.25402 -0.20597 0)
(-0.25859 -0.224355 0)
(-0.264486 -0.244252 0)
(-0.271445 -0.265755 0)
(-0.278439 -0.288147 0)
(-0.283274 -0.309352 0)
(-0.282404 -0.325235 0)
(-0.271281 -0.329588 0)
(-0.245514 -0.314931 0)
(-0.203216 -0.275399 0)
(-0.147972 -0.211448 0)
(-0.0907529 -0.134921 0)
(-0.0459669 -0.0664928 0)
(-0.0195242 -0.0194204 0)
(-0.00599713 0.0075803 0)
(-0.000299131 0.0200526 0)
(0.000909703 0.0207608 0)
(0.00034599 0.0107652 0)
(-0.00360725 0.0255202 0)
(-0.0175317 0.0600744 0)
(-0.0373154 0.0922172 0)
(-0.0586799 0.127288 0)
(-0.0828052 0.16409 0)
(-0.107142 0.199873 0)
(-0.131521 0.231832 0)
(-0.153441 0.257122 0)
(-0.172452 0.274098 0)
(-0.187198 0.282169 0)
(-0.19807 0.282093 0)
(-0.205003 0.275238 0)
(-0.209108 0.263527 0)
(-0.210998 0.248745 0)
(-0.211805 0.232459 0)
(-0.212008 0.215688 0)
(-0.212248 0.199062 0)
(-0.212613 0.182812 0)
(-0.213313 0.166985 0)
(-0.214219 0.151492 0)
(-0.215361 0.13623 0)
(-0.21658 0.121091 0)
(-0.217878 0.105998 0)
(-0.219141 0.0908981 0)
(-0.220382 0.07576 0)
(-0.221532 0.0605697 0)
(-0.222616 0.0453216 0)
(-0.223594 0.0300205 0)
(-0.224498 0.014671 0)
(-0.225306 -0.000714806 0)
(-0.226053 -0.0161292 0)
(-0.226733 -0.0315591 0)
(-0.227382 -0.0469976 0)
(-0.228001 -0.0624344 0)
(-0.228629 -0.0778656 0)
(-0.229272 -0.0932868 0)
(-0.229967 -0.108699 0)
(-0.230727 -0.124107 0)
(-0.231598 -0.139526 0)
(-0.232621 -0.154992 0)
(-0.233893 -0.17057 0)
(-0.235546 -0.186403 0)
(-0.237807 -0.202712 0)
(-0.240969 -0.219881 0)
(-0.245374 -0.238382 0)
(-0.251225 -0.258729 0)
(-0.258297 -0.281034 0)
(-0.265457 -0.304501 0)
(-0.270194 -0.326437 0)
(-0.268448 -0.341687 0)
(-0.255083 -0.34242 0)
(-0.225579 -0.31985 0)
(-0.178817 -0.268095 0)
(-0.120882 -0.191015 0)
(-0.0660907 -0.107639 0)
(-0.0293727 -0.0424453 0)
(-0.0103741 -0.00339133 0)
(-0.00174711 0.0160963 0)
(0.000624887 0.020432 0)
(0.000355338 0.0114939 0)
(-0.00385871 0.0356209 0)
(-0.0185147 0.0777894 0)
(-0.0389423 0.1132 0)
(-0.0604339 0.150216 0)
(-0.0841499 0.188149 0)
(-0.107283 0.223742 0)
(-0.129765 0.254089 0)
(-0.149158 0.27641 0)
(-0.165375 0.289607 0)
(-0.177297 0.293603 0)
(-0.185669 0.289745 0)
(-0.190599 0.279772 0)
(-0.193368 0.265857 0)
(-0.194543 0.249753 0)
(-0.195176 0.232888 0)
(-0.195558 0.216023 0)
(-0.196191 0.199578 0)
(-0.197012 0.183597 0)
(-0.198163 0.16803 0)
(-0.199453 0.152729 0)
(-0.200913 0.137585 0)
(-0.202378 0.122491 0)
(-0.203872 0.107391 0)
(-0.205286 0.0922448 0)
(-0.206656 0.0770371 0)
(-0.207913 0.0617623 0)
(-0.209097 0.0464243 0)
(-0.210165 0.0310323 0)
(-0.211154 0.015597 0)
(-0.212042 0.00013349 0)
(-0.212865 -0.0153463 0)
(-0.213612 -0.0308271 0)
(-0.214321 -0.0462992 0)
(-0.214991 -0.0617516 0)
(-0.215658 -0.0771793 0)
(-0.216324 -0.0925789 0)
(-0.217024 -0.10795 0)
(-0.217759 -0.123299 0)
(-0.218559 -0.138629 0)
(-0.219436 -0.153964 0)
(-0.220438 -0.169329 0)
(-0.221631 -0.184809 0)
(-0.223163 -0.200536 0)
(-0.225262 -0.216806 0)
(-0.228277 -0.234036 0)
(-0.232597 -0.252877 0)
(-0.23849 -0.273901 0)
(-0.245697 -0.297317 0)
(-0.252869 -0.321927 0)
(-0.257033 -0.344255 0)
(-0.253425 -0.357462 0)
(-0.236424 -0.351879 0)
(-0.201636 -0.317379 0)
(-0.149861 -0.24967 0)
(-0.0907492 -0.159259 0)
(-0.0426378 -0.0746067 0)
(-0.0162365 -0.0189795 0)
(-0.00394351 0.00987503 0)
(0.000147121 0.0192959 0)
(0.000330605 0.0121104 0)
(-0.00390568 0.0460949 0)
(-0.0187729 0.0959425 0)
(-0.0392841 0.134277 0)
(-0.0603833 0.172695 0)
(-0.0831836 0.21109 0)
(-0.104731 0.24579 0)
(-0.125107 0.273941 0)
(-0.142008 0.292955 0)
(-0.155686 0.302336 0)
(-0.16524 0.302507 0)
(-0.171693 0.29535 0)
(-0.175257 0.282875 0)
(-0.177277 0.267384 0)
(-0.178205 0.250491 0)
(-0.178977 0.233422 0)
(-0.1797 0.216679 0)
(-0.180763 0.200497 0)
(-0.181995 0.184777 0)
(-0.183506 0.169417 0)
(-0.185079 0.154239 0)
(-0.186761 0.139147 0)
(-0.188391 0.124046 0)
(-0.190017 0.108901 0)
(-0.191538 0.0936806 0)
(-0.193003 0.0783847 0)
(-0.194347 0.0630116 0)
(-0.195615 0.0475729 0)
(-0.196763 0.0320801 0)
(-0.197832 0.0165491 0)
(-0.198794 0.000997313 0)
(-0.199687 -0.0145588 0)
(-0.200497 -0.0301018 0)
(-0.201262 -0.0456184 0)
(-0.201978 -0.0610971 0)
(-0.202682 -0.0765305 0)
(-0.203376 -0.0919176 0)
(-0.204091 -0.107258 0)
(-0.204829 -0.122562 0)
(-0.205614 -0.137832 0)
(-0.206444 -0.153092 0)
(-0.207343 -0.168347 0)
(-0.208327 -0.183651 0)
(-0.209473 -0.199058 0)
(-0.210913 -0.214766 0)
(-0.212912 -0.231063 0)
(-0.215858 -0.248547 0)
(-0.220214 -0.267928 0)
(-0.226269 -0.290015 0)
(-0.233642 -0.314806 0)
(-0.24062 -0.340633 0)
(-0.243504 -0.362468 0)
(-0.236799 -0.371407 0)
(-0.21442 -0.355386 0)
(-0.173063 -0.303926 0)
(-0.116614 -0.217216 0)
(-0.0601329 -0.11732 0)
(-0.0235937 -0.0408945 0)
(-0.00701124 0.000839488 0)
(-0.000520606 0.0169679 0)
(0.000281841 0.0125489 0)
(-0.00375487 0.056509 0)
(-0.0183393 0.114044 0)
(-0.0384245 0.155019 0)
(-0.0586969 0.194373 0)
(-0.0801955 0.232684 0)
(-0.0999266 0.26598 0)
(-0.118139 0.291581 0)
(-0.132707 0.307178 0)
(-0.144177 0.312894 0)
(-0.15183 0.309614 0)
(-0.156889 0.299681 0)
(-0.159594 0.285272 0)
(-0.161277 0.268709 0)
(-0.16224 0.251394 0)
(-0.163291 0.234335 0)
(-0.164381 0.217791 0)
(-0.165821 0.201858 0)
(-0.167373 0.186338 0)
(-0.169141 0.171107 0)
(-0.170901 0.155982 0)
(-0.172724 0.140889 0)
(-0.174457 0.125743 0)
(-0.176169 0.110531 0)
(-0.177763 0.0952265 0)
(-0.1793 0.0798395 0)
(-0.180714 0.0643695 0)
(-0.182054 0.0488334 0)
(-0.183274 0.0332435 0)
(-0.184417 0.01762 0)
(-0.185451 0.00198161 0)
(-0.186414 -0.0136511 0)
(-0.18729 -0.0292593 0)
(-0.188117 -0.0448259 0)
(-0.188887 -0.0603389 0)
(-0.189637 -0.0757886 0)
(-0.190368 -0.0911758 0)
(-0.191112 -0.106499 0)
(-0.191871 -0.121776 0)
(-0.192671 -0.137008 0)
(-0.193503 -0.152227 0)
(-0.194383 -0.167429 0)
(-0.195303 -0.182662 0)
(-0.196292 -0.19793 0)
(-0.197402 -0.21336 0)
(-0.198794 -0.229097 0)
(-0.200751 -0.245604 0)
(-0.203733 -0.263502 0)
(-0.208265 -0.283831 0)