/*--------------------------------*- C++ -*----------------------------------*\
| =========                 |                                                 |
| \\      /  F ield         | OpenFOAM: The Open Source CFD Toolbox           |
|  \\    /   O peration     | Version:  2406                                  |
|   \\  /    A nd           | Website:  www.openfoam.com                      |
|    \\/     M anipulation  |                                                 |
\*---------------------------------------------------------------------------*/
FoamFile
{
    version     2.0;
    format      ascii;
    arch        "LSB;label=32;scalar=64";
    class       surfaceScalarField;
    location    "47.5";
    object      phi;
}
// * * * * * * * * * * * * * * * * * * * * * * * * * * * * * * * * * * * * * //

dimensions      [0 3 -1 0 0 0 0];

oriented        oriented;

internalField   nonuniform List<scalar> 
28560
(
-1.72861e-08
1.72721e-08
3.42147e-08
-5.38847e-08
1.63364e-07
-1.29669e-07
3.58001e-07
-1.97827e-07
5.97845e-07
-2.41703e-07
8.61067e-07
-2.66753e-07
1.12956e-06
-2.71003e-07
1.38654e-06
-2.60249e-07
1.62062e-06
-2.36501e-07
1.8231e-06
-2.05052e-07
1.99033e-06
-1.69074e-07
2.12136e-06
-1.32745e-07
2.21883e-06
-9.86237e-08
2.28702e-06
-6.91223e-08
2.33178e-06
-4.531e-08
2.35912e-06
-2.77126e-08
2.37485e-06
-1.58636e-08
2.38363e-06
-8.81836e-09
2.38881e-06
-5.074e-09
2.39194e-06
-2.94698e-09
2.39289e-06
-6.48681e-10
2.38986e-06
3.44554e-09
2.37972e-06
1.07177e-08
2.35832e-06
2.21846e-08
2.32086e-06
3.85174e-08
2.26217e-06
6.00714e-08
2.17695e-06
8.69951e-08
2.05987e-06
1.19325e-07
1.90557e-06
1.57083e-07
1.70862e-06
2.00326e-07
1.46352e-06
2.49163e-07
1.1646e-06
3.03722e-07
8.06098e-07
3.64117e-07
3.82209e-07
4.30383e-07
-1.12794e-07
5.02438e-07
-6.84396e-07
5.80036e-07
-1.33766e-06
6.62746e-07
-2.07703e-06
7.49929e-07
-2.90609e-06
8.40731e-07
-3.82739e-06
9.34078e-07
-4.84218e-06
1.02868e-06
-5.95026e-06
1.12304e-06
-7.14977e-06
1.21549e-06
-8.43704e-06
1.3042e-06
-9.80646e-06
1.3872e-06
-1.12504e-05
1.46248e-06
-1.27593e-05
1.52798e-06
-1.43215e-05
1.58165e-06
-1.59233e-05
1.62149e-06
-1.75492e-05
1.64563e-06
-1.9182e-05
1.65232e-06
-2.08029e-05
1.63998e-06
-2.23918e-05
1.60725e-06
-2.39273e-05
1.553e-06
-2.53875e-05
1.47636e-06
-2.67495e-05
1.37673e-06
-2.79903e-05
1.25383e-06
-2.9087e-05
1.1077e-06
-3.00169e-05
9.3874e-07
-3.07581e-05
7.47743e-07
-3.12902e-05
5.3592e-07
-3.1594e-05
3.04934e-07
-3.16526e-05
5.69397e-08
-3.14519e-05
-2.05393e-07
-3.09807e-05
-4.78854e-07
-3.02316e-05
-7.59687e-07
-2.92017e-05
-1.0436e-06
-2.78924e-05
-1.32578e-06
-2.63106e-05
-1.60099e-06
-2.44688e-05
-1.86362e-06
-2.23851e-05
-2.10785e-06
-2.00836e-05
-2.32778e-06
-1.75939e-05
-2.51764e-06
-1.49514e-05
-2.67203e-06
-1.21957e-05
-2.78613e-06
-9.37086e-06
-2.85599e-06
-6.52348e-06
-2.87872e-06
-3.70183e-06
-2.85273e-06
-9.54315e-07
-2.77793e-06
1.67215e-06
-2.65575e-06
4.13365e-06
-2.48924e-06
6.39085e-06
-2.283e-06
8.41032e-06
-2.04299e-06
1.01657e-05
-1.77632e-06
1.16385e-05
-1.49093e-06
1.28186e-05
-1.19523e-06
1.37042e-05
-8.97703e-07
1.43017e-05
-6.06502e-07
1.46249e-05
-3.29093e-07
1.46937e-05
-7.19424e-08
1.45336e-05
1.59723e-07
1.41736e-05
3.62061e-07
1.36451e-05
5.3268e-07
1.29805e-05
6.70598e-07
1.22118e-05
7.7615e-07
1.13696e-05
8.508e-07
1.04821e-05
8.96945e-07
9.57432e-06
9.17657e-07
8.66801e-06
9.16466e-07
7.78107e-06
8.97093e-07
6.92775e-06
8.63295e-07
6.11872e-06
8.18631e-07
5.36146e-06
7.66425e-07
4.66046e-06
7.09563e-07
4.01786e-06
6.50611e-07
3.43359e-06
5.91593e-07
2.90605e-06
5.34298e-07
2.43219e-06
4.79893e-07
2.00829e-06
4.29499e-07
1.62974e-06
3.83377e-07
1.29234e-06
3.4199e-07
9.9176e-07
3.04313e-07
7.25523e-07
2.69989e-07
4.92237e-07
2.35967e-07
2.94e-07
2.0122e-07
1.35394e-07
1.60138e-07
2.40008e-08
1.13504e-07
-3.12696e-08
5.56686e-08
-3.26275e-08
2.49849e-09
-3.2679e-08
5.15386e-08
-3.188e-08
2.54368e-07
-2.56672e-07
6.1236e-07
-4.82956e-07
1.0993e-06
-6.81963e-07
1.68039e-06
-8.16874e-07
2.31155e-06
-8.93278e-07
2.95454e-06
-9.07852e-07
3.5725e-06
-8.7323e-07
4.13871e-06
-7.97387e-07
4.63241e-06
-6.94555e-07
5.04296e-06
-5.75716e-07
5.36614e-06
-4.53031e-07
5.60521e-06
-3.35293e-07
5.76755e-06
-2.29853e-07
5.86408e-06
-1.40664e-07
5.90643e-06
-6.94181e-08
5.90593e-06
-1.50065e-08
5.87163e-06
2.55448e-08
5.80956e-06
5.68801e-08
5.72185e-06
8.44425e-08
5.60672e-06
1.13996e-07
5.45853e-06
1.50923e-07
5.2684e-06
1.99847e-07
5.02489e-06
2.64306e-07
4.7148e-06
3.46732e-07
4.32384e-06
4.48554e-07
3.83716e-06
5.7047e-07
3.23969e-06
7.1273e-07
2.51633e-06
8.75391e-07
1.65203e-06
1.05846e-06
6.31864e-07
1.2619e-06
-5.58809e-07
1.48559e-06
-1.93414e-06
1.72913e-06
-3.50743e-06
1.99172e-06
-5.29067e-06
2.27198e-06
-7.29407e-06
2.56786e-06
-9.52542e-06
2.87658e-06
-1.19896e-05
3.19458e-06
-1.4688e-05
3.51751e-06
-1.76179e-05
3.84033e-06
-2.07723e-05
4.15734e-06
-2.41393e-05
4.46229e-06
-2.7702e-05
4.74855e-06
-3.14384e-05
5.00929e-06
-3.53218e-05
5.23759e-06
-3.93203e-05
5.42673e-06
-4.33979e-05
5.57029e-06
-4.75147e-05
5.66238e-06
-5.16275e-05
5.69776e-06
-5.56903e-05
5.672e-06
-5.96556e-05
5.5815e-06
-6.34745e-05
5.42361e-06
-6.70978e-05
5.19664e-06
-7.04769e-05
4.89987e-06
-7.3564e-05
4.53352e-06
-7.63132e-05
4.09875e-06
-7.86811e-05
3.59766e-06
-8.0627e-05
3.03322e-06
-8.21139e-05
2.40933e-06
-8.31087e-05
1.73076e-06
-8.3583e-05
1.00323e-06
-8.35133e-05
2.3337e-07
-8.28817e-05
-5.71189e-07
-8.16763e-05
-1.40184e-06
-7.98916e-05
-2.24894e-06
-7.75291e-05
-3.10188e-06
-7.45978e-05
-3.94903e-06
-7.11143e-05
-4.77793e-06
-6.71034e-05
-5.57531e-06
-6.25983e-05
-6.32737e-06
-5.76402e-05
-7.02e-06
-5.2279e-05
-7.63912e-06
-4.65724e-05
-8.17105e-06
-4.05855e-05
-8.60301e-06
-3.43902e-05
-8.92358e-06
-2.80639e-05
-9.12321e-06
-2.16885e-05
-9.19477e-06
-1.53483e-05
-9.13397e-06
-9.12888e-06
-8.93978e-06
-3.11451e-06
-8.61472e-06
2.61365e-06
-8.165e-06
7.97981e-06
-7.60047e-06
1.29156e-05
-6.93446e-06
1.7362e-05
-6.18336e-06
2.12712e-05
-5.36609e-06
2.46078e-05
-4.50342e-06
2.73497e-05
-3.61711e-06
2.94891e-05
-2.72914e-06
3.10319e-05
-1.86076e-06
3.19973e-05
-1.03172e-06
3.24172e-05
-2.59485e-07
3.2334e-05
4.41339e-07
3.17993e-05
1.0595e-06
3.08714e-05
1.58735e-06
2.96126e-05
2.02094e-06
2.80875e-05
2.35988e-06
2.63598e-05
2.60708e-06
2.44908e-05
2.76827e-06
2.25369e-05
2.85144e-06
2.05489e-05
2.86619e-06
1.85705e-05
2.82315e-06
1.6638e-05
2.73321e-06
1.47802e-05
2.60718e-06
1.30186e-05
2.45515e-06
1.13681e-05
2.28637e-06
9.83712e-06
2.1088e-06
8.42955e-06
1.92943e-06
7.1445e-06
1.75353e-06
5.97828e-06
1.58558e-06
4.9245e-06
1.42783e-06
3.9765e-06
1.28194e-06
3.12708e-06
1.14616e-06
2.37209e-06
1.01884e-06
1.70921e-06
8.92804e-07
1.1424e-06
7.63848e-07
6.78472e-07
6.19565e-07
3.29555e-07
4.6047e-07
1.05218e-07
2.77201e-07
3.83052e-09
1.04041e-07
-2.99685e-08
1.21538e-07
-1.52945e-07
4.68157e-07
-6.07946e-07
1.02559e-06
-1.04041e-06
1.74665e-06
-1.40795e-06
2.58692e-06
-1.65966e-06
3.48696e-06
-1.79843e-06
4.3968e-06
-1.82131e-06
5.26685e-06
-1.74798e-06
6.06084e-06
-1.5949e-06
6.74985e-06
-1.3873e-06
7.31815e-06
-1.14676e-06
7.75832e-06
-8.95737e-07
8.07275e-06
-6.51473e-07
8.26928e-06
-4.27811e-07
8.36039e-06
-2.32668e-07
8.3596e-06
-6.92433e-08
8.27985e-06
6.44498e-08
8.13101e-06
1.74255e-07
7.91875e-06
2.69211e-07
7.64332e-06
3.6007e-07
7.29946e-06
4.58211e-07
6.87654e-06
5.74358e-07
6.35939e-06
7.17757e-07
5.72917e-06
8.95572e-07
4.96455e-06
1.11279e-06
4.04262e-06
1.37239e-06
2.93975e-06
1.67582e-06
1.63212e-06
2.02351e-06
9.61862e-08
2.41524e-06
-1.69097e-06
2.85041e-06
-3.75127e-06
3.328e-06
-6.10519e-06
3.84639e-06
-8.77108e-06
4.4031e-06
-1.17644e-05
4.99446e-06
-1.5097e-05
5.61536e-06
-1.8776e-05
6.25912e-06
-2.2803e-05
6.91744e-06
-2.71734e-05
7.58038e-06
-3.18753e-05
8.23658e-06
-3.68897e-05
8.87348e-06
-4.21896e-05
9.47761e-06
-4.77403e-05
1.0035e-05
-5.34998e-05
1.05316e-05
-5.94194e-05
1.09538e-05
-6.54443e-05
1.12887e-05
-7.15151e-05
1.15247e-05
-7.75686e-05
1.16518e-05
-8.35395e-05
1.16618e-05
-8.93613e-05
1.15484e-05
-9.49682e-05
1.13076e-05
-0.000100296
1.09372e-05
-0.000105281
1.04371e-05
-0.000109867
9.80897e-06
-0.000113998
9.05617e-06
-0.000117625
8.18351e-06
-0.000120703
7.19714e-06
-0.000123191
6.1044e-06
-0.000125056
4.91368e-06
-0.000126269
3.63442e-06
-0.000126806
2.27702e-06
-0.000126651
8.52893e-07
-0.000125791
-6.2552e-07
-0.000124221
-2.14469e-06
-0.00012194
-3.68994e-06
-0.000118956
-5.24539e-06
-0.000115281
-6.79395e-06
-0.000110933
-8.31727e-06
-0.000105941
-9.79592e-06
-0.000100336
-1.12094e-05
-9.41598e-05
-1.25365e-05
-8.74608e-05
-1.37557e-05
-8.02946e-05
-1.48451e-05
-7.27244e-05
-1.57837e-05
-6.48204e-05
-1.65515e-05
-5.66595e-05
-1.71305e-05
-4.83244e-05
-1.75053e-05
-3.99027e-05
-1.76637e-05
-3.14856e-05
-1.75978e-05
-2.31666e-05
-1.73044e-05
-1.50396e-05
-1.67857e-05
-7.19693e-06
-1.60492e-05
2.72342e-07
-1.51083e-05
7.28461e-06
-1.39818e-05
1.37637e-05
-1.26937e-05
1.96429e-05
-1.12722e-05
2.48664e-05
-9.74945e-06
2.93911e-05
-8.15978e-06
3.31876e-05
-6.53906e-06
3.62411e-05
-4.92324e-06
3.85519e-05
-3.34719e-06
4.01351e-05
-1.84343e-06
4.10203e-05
-4.41092e-07
4.12506e-05
8.35068e-07
4.08811e-05
1.96546e-06
3.99766e-05
2.93623e-06
3.86094e-05
3.7395e-06
3.68567e-05
4.37345e-06
3.47974e-05
4.84195e-06
3.25097e-05
5.15398e-06
3.00679e-05
5.32281e-06
2.75407e-05
5.36496e-06
2.4989e-05
5.29902e-06
2.24649e-05
5.14469e-06
2.00112e-05
4.92152e-06
1.7661e-05
4.64834e-06
1.54383e-05
4.34222e-06
1.33592e-05
4.01852e-06
1.14318e-05
3.68977e-06
9.6592e-06
3.36645e-06
8.039e-06
3.05515e-06
6.56728e-06
2.76039e-06
5.23795e-06
2.48098e-06
4.04793e-06
2.21436e-06
2.99494e-06
1.94966e-06
2.08446e-06
1.67878e-06
1.32311e-06
1.38292e-06
7.26614e-07
1.06049e-06
3.04346e-07
6.99227e-07
6.66965e-08
3.4466e-07
3.60787e-08
1.84369e-07
-3.34157e-07
6.58331e-07
-1.08466e-06
1.38321e-06
-1.76039e-06
2.28883e-06
-2.31361e-06
3.3218e-06
-2.68841e-06
4.41099e-06
-2.88595e-06
5.49951e-06
-2.90606e-06
6.52975e-06
-2.77594e-06
7.46008e-06
-2.52211e-06
8.25659e-06
-2.18171e-06
8.90037e-06
-1.78825e-06
9.38149e-06
-1.37533e-06
9.70094e-06
-9.69472e-07
9.8655e-06
-5.91456e-07
9.88691e-06
-2.53323e-07
9.77767e-06
4.04038e-08
9.54931e-06
2.93088e-07
9.20942e-06
5.14219e-07
8.76041e-06
7.18203e-07
8.19815e-06
9.22169e-07
7.51195e-06
1.14416e-06
6.68474e-06
1.40116e-06
5.69415e-06
1.70776e-06
4.51367e-06
2.07525e-06
3.11399e-06
2.51138e-06
1.46427e-06
3.02067e-06
-4.66783e-07
3.60503e-06
-2.71006e-06
4.26446e-06
-5.29526e-06
4.99754e-06
-8.25009e-06
5.80171e-06
-1.15995e-05
6.67312e-06
-1.53644e-05
7.60632e-06
-1.95611e-05
8.59386e-06
-2.41994e-05
9.62586e-06
-2.92817e-05
1.06898e-05
-3.48018e-05
1.17704e-05
-4.07442e-05
1.28498e-05
-4.7083e-05
1.3908e-05
-5.37821e-05
1.49232e-05
-6.07949e-05
1.58727e-05
-6.80657e-05
1.67336e-05
-7.55302e-05
1.74836e-05
-8.31173e-05
1.81017e-05
-9.07509e-05
1.85694e-05
-9.83519e-05
1.88709e-05
-0.00010584
1.89936e-05
-0.000113137
1.89285e-05
-0.000120166
1.86701e-05
-0.000126855
1.82166e-05
-0.000133137
1.75691e-05
-0.000138951
1.67314e-05
-0.000144243
1.57101e-05
-0.000148966
1.45135e-05
-0.000153079
1.31515e-05
-0.000156547
1.16352e-05
-0.000159341
9.97668e-06
-0.000161438
8.18891e-06
-0.00016282
6.28539e-06
-0.000163474
4.28024e-06
-0.00016339
2.18827e-06
-0.000162565
2.49989e-08
-0.000160997
-2.19316e-06
-0.00015869
-4.44877e-06
-0.000155651
-6.7232e-06
-0.000151891
-8.99646e-06
-0.000147425
-1.12471e-05
-0.000142275
-1.34521e-05
-0.000136466
-1.5587e-05
-0.000130029
-1.76257e-05
-0.000123001
-1.95412e-05
-0.000115426
-2.13055e-05
-0.000107353
-2.28902e-05
-9.88401e-05
-2.42673e-05
-8.9951e-05
-2.541e-05
-8.07565e-05
-2.62933e-05
-7.13339e-05
-2.68956e-05
-6.17663e-05
-2.7199e-05
-5.21413e-05
-2.71907e-05
-4.25504e-05
-2.6864e-05
-3.30871e-05
-2.62189e-05
-2.38453e-05
-2.52625e-05
-1.49174e-05
-2.40096e-05
-6.39287e-06
-2.24822e-05
1.64434e-06
-2.07093e-05
9.11707e-06
-1.87262e-05
1.59568e-05
-1.65735e-05
2.21054e-05
-1.42956e-05
2.75158e-05
-1.19399e-05
3.21538e-05
-9.55477e-06
3.59986e-05
-7.18839e-06
3.90433e-05
-4.88727e-06
4.12953e-05
-2.69484e-06
4.27767e-05
-6.50202e-07
4.35233e-05
1.21311e-06
4.35841e-05
2.86809e-06
4.30199e-05
4.2951e-06
4.19015e-05
5.48242e-06
4.03069e-05
6.4264e-06
3.83191e-05
7.13137e-06
3.60226e-05
7.60891e-06
3.35002e-05
7.87698e-06
3.08308e-05
7.95844e-06
2.80862e-05
7.87973e-06
2.53297e-05
7.66901e-06
2.26148e-05
7.35495e-06
1.99842e-05
6.965e-06
1.7471e-05
6.52476e-06
1.50978e-05
6.05635e-06
1.28799e-05
5.5787e-06
1.08244e-05
5.10523e-06
8.93495e-06
4.64546e-06
7.21051e-06
4.2009e-06
5.65216e-06
3.76958e-06
4.25933e-06
3.33863e-06
3.03992e-06
2.89653e-06
2.00008e-06
2.41927e-06
1.15984e-06
1.90099e-06
5.30118e-07
1.3252e-06
1.40511e-07
7.3685e-07
1.74288e-07
2.28501e-07
-5.60753e-07
8.02571e-07
-1.66471e-06
1.66132e-06
-2.61649e-06
2.71136e-06
-3.36794e-06
3.88815e-06
-3.86506e-06
5.10875e-06
-4.10992e-06
6.31022e-06
-4.10859e-06
7.42887e-06
-3.89731e-06
8.41997e-06
-3.5146e-06
9.24678e-06
-3.01058e-06
9.88899e-06
-2.43168e-06
1.03353e-05
-1.82308e-06
1.05858e-05
-1.22075e-06
1.06456e-05
-6.52136e-07
1.05248e-05
-1.32939e-07
1.0233e-05
3.31788e-07
9.77819e-06
7.4772e-07
9.16324e-06
1.12906e-06
8.38482e-06
1.49665e-06
7.43211e-06
1.87498e-06
6.28695e-06
2.28953e-06
4.92436e-06
2.76404e-06
3.31391e-06
3.31866e-06
1.42115e-06
3.96862e-06
-7.90632e-07
4.72398e-06
-3.35892e-06
5.59004e-06
-6.32056e-06
6.56805e-06
-9.71045e-06
7.65609e-06
-1.35603e-05
8.84957e-06
-1.78974e-05
1.01414e-05
-2.27428e-05
1.15217e-05
-2.81103e-05
1.29776e-05
-3.40043e-05
1.44923e-05
-4.04186e-05
1.60452e-05
-4.73349e-05
1.7612e-05
-5.47224e-05
1.91645e-05
-6.25372e-05
2.0672e-05
-7.07227e-05
2.21018e-05
-7.92109e-05
2.34206e-05
-8.7924e-05
2.45959e-05
-9.67768e-05
2.55973e-05
-0.000105679
2.63978e-05
-0.00011454
2.69744e-05
-0.000123267
2.73096e-05
-0.000131773
2.73909e-05
-0.000139977
2.72114e-05
-0.000147804
2.67692e-05
-0.000155186
2.60669e-05
-0.000162066
2.51112e-05
-0.000168394
2.39119e-05
-0.00017413
2.24811e-05
-0.000179239
2.08328e-05
-0.000183695
1.89822e-05
-0.000187476
1.69449e-05
-0.000190567
1.47372e-05
-0.000192956
1.23752e-05
-0.000194634
9.87518e-06
-0.000195595
7.25341e-06
-0.000195836
4.5263e-06
-0.000195356
1.71056e-06
-0.000194153
-1.17656e-06
-0.00019223
-4.11698e-06
-0.00018959
-7.09149e-06
-0.000186238
-1.00795e-05
-0.000182183
-1.30586e-05
-0.000177435
-1.60046e-05
-0.000172007
-1.88912e-05
-0.000165917
-2.16897e-05
-0.000159189
-2.43696e-05
-0.000151848
-2.68984e-05
-0.00014393
-2.9242e-05
-0.000135475
-3.13653e-05
-0.000126529
-3.32332e-05
-0.00011715
-3.48111e-05
-0.000107399
-3.60666e-05
-9.73471e-05
-3.69702e-05
-8.70717e-05
-3.74971e-05
-7.66567e-05
-3.76281e-05
-6.61913e-05
-3.73513e-05
-5.57682e-05
-3.6663e-05
-4.54824e-05
-3.55683e-05
-3.54289e-05
-3.40817e-05
-2.57009e-05
-3.22272e-05
-1.63877e-05
-3.00377e-05
-7.5731e-06
-2.7554e-05
6.66532e-07
-2.48243e-05
8.26351e-06
-2.19016e-05
1.516e-05
-1.88433e-05
2.1309e-05
-1.57084e-05
2.66747e-05
-1.25568e-05
3.12335e-05
-9.44689e-06
3.49743e-05
-6.43462e-06
3.78986e-05
-3.57195e-06
4.00211e-05
-9.05573e-07
4.13699e-05
1.52429e-06
4.1986e-05
3.685e-06
4.19225e-05
5.55249e-06
4.12439e-05
7.11201e-06
4.00239e-05
8.3586e-06
3.83432e-05
9.297e-06
3.62862e-05
9.9412e-06
3.39385e-05
1.03133e-05
3.1383e-05
1.0442e-05
2.86976e-05
1.03609e-05
2.59524e-05
1.01061e-05
2.32082e-05
9.71471e-06
2.05157e-05
9.22251e-06
1.79143e-05
8.66225e-06
1.54345e-05
8.06287e-06
1.30965e-05
7.44673e-06
1.09153e-05
6.83043e-06
8.89815e-06
6.22058e-06
7.05336e-06
5.61763e-06
5.38448e-06
5.0089e-06
3.90402e-06
4.38014e-06
2.61978e-06
3.70331e-06
1.55876e-06
2.96566e-06
7.36899e-07
2.14439e-06
2.06175e-07
1.27272e-06
3.78471e-07
2.63092e-07
-8.20146e-07
9.16268e-07
-2.32289e-06
1.87895e-06
-3.57377e-06
3.03649e-06
-4.52753e-06
4.31207e-06
-5.13715e-06
5.61132e-06
-5.40938e-06
6.86561e-06
-5.36033e-06
8.00658e-06
-5.03767e-06
8.98795e-06
-4.49409e-06
9.77191e-06
-3.79374e-06
1.03382e-05
-2.99665e-06
1.06752e-05
-2.15944e-06
1.07824e-05
-1.32701e-06
1.06631e-05
-5.32482e-07
1.03246e-05
2.06024e-07
9.77233e-06
8.84314e-07
9.00847e-06
1.51177e-06
8.02893e-06
2.10864e-06
6.82235e-06
2.70324e-06
5.36908e-06
3.32816e-06
3.64187e-06
4.01659e-06
1.6068e-06
4.79887e-06
-7.74854e-07
5.69998e-06
-3.54475e-06
6.73804e-06
-6.74536e-06
7.92397e-06
-1.04181e-05
9.26194e-06
-1.46014e-05
1.07503e-05
-1.9329e-05
1.23824e-05
-2.46283e-05
1.41472e-05
-3.05178e-05
1.6029e-05
-3.70059e-05
1.80074e-05
-4.40881e-05
2.0057e-05
-5.1746e-05
2.21469e-05
-5.99459e-05
2.42413e-05
-6.86384e-05
2.63002e-05
-7.7759e-05
2.82802e-05
-8.72295e-05
3.0137e-05
-9.69604e-05
3.18266e-05
-0.000106854
3.33074e-05
-0.000116808
3.45426e-05
-0.00012672
3.55008e-05
-0.000136488
3.6158e-05
-0.00014602
3.64973e-05
-0.00015523
3.65096e-05
-0.000164041
3.61924e-05
-0.000172389
3.55498e-05
-0.000180221
3.45909e-05
-0.000187493
3.33287e-05
-0.000194172
3.17794e-05
-0.000200231
2.99611e-05
-0.000205652
2.78927e-05
-0.000210423
2.55938e-05
-0.000214533
2.30837e-05
-0.000217977
2.03812e-05
-0.000220752
1.75046e-05
-0.000222855
1.44714e-05
-0.000224283
1.12986e-05
-0.000225037
8.00264e-06
-0.000225113
4.59997e-06
-0.000224511
1.10718e-06
-0.00022323
-2.45858e-06
-0.000221266
-6.0792e-06
-0.00021862
-9.73516e-06
-0.00021529
-1.34052e-05
-0.000211277
-1.70658e-05
-0.000206584
-2.06909e-05
-0.000201215
-2.42519e-05
-0.000195178
-2.7717e-05
-0.000188485
-3.10516e-05
-0.000181153
-3.42181e-05
-0.000173204
-3.71768e-05
-0.00016467
-3.98858e-05
-0.000155585
-4.23024e-05
-0.000145997
-4.43839e-05
-0.000135959
-4.6089e-05
-0.000125533
-4.73794e-05
-0.000114793
-4.82214e-05
-0.000103817
-4.85878e-05
-9.26939e-05
-4.84593e-05
-8.15157e-05
-4.78263e-05
-7.03799e-05
-4.669e-05
-5.93854e-05
-4.5063e-05
-4.8631e-05
-4.29696e-05
-3.82123e-05
-4.04456e-05
-2.82201e-05
-3.75368e-05
-1.87382e-05
-3.42981e-05
-9.84186e-06
-3.07915e-05
-1.59655e-06
-2.70836e-05
5.94251e-06
-2.3244e-05
1.27308e-05
-1.9343e-05
1.87346e-05
-1.54499e-05
2.39309e-05
-1.16314e-05
2.83076e-05
-7.95018e-06
3.18635e-05
-4.46392e-06
3.46085e-05
-1.2241e-06
3.65645e-05
1.72501e-06
3.77651e-05
4.34741e-06
3.82557e-05
6.61649e-06
3.80934e-05
8.51588e-06
3.73451e-05
1.00401e-05
3.60864e-05
1.11948e-05
3.43983e-05
1.19963e-05
3.23649e-05
1.24705e-05
3.00698e-05
1.26513e-05
2.75932e-05
1.25785e-05
2.50086e-05
1.22953e-05
2.23816e-05
1.18459e-05
1.97677e-05
1.12727e-05
1.7213e-05
1.06147e-05
1.47524e-05
9.90435e-06
1.24141e-05
9.16665e-06
1.02166e-05
8.41536e-06
8.17784e-06
7.65522e-06
6.30812e-06
6.87595e-06
4.62678e-06
6.06157e-06
3.14577e-06
5.1811e-06
1.90083e-06
4.21273e-06
9.15243e-07
3.12498e-06
2.62802e-07
1.93027e-06
6.37877e-07
2.88457e-07
-1.10564e-06
1.00183e-06
-3.04319e-06
2.042e-06
-4.6096e-06
3.27453e-06
-5.76434e-06
4.60962e-06
-6.47063e-06
5.94135e-06
-6.74384e-06
7.19533e-06
-6.61405e-06
8.29927e-06
-6.14348e-06
9.20637e-06
-5.4015e-06
9.87903e-06
-4.46768e-06
1.02982e-05
-3.41628e-06
1.04529e-05
-2.31495e-06
1.03421e-05
-1.21657e-06
9.96751e-06
-1.58396e-07
9.33248e-06
8.40835e-07
8.43682e-06
1.77972e-06
7.27535e-06
2.67315e-06
5.83501e-06
3.5489e-06
4.09445e-06
4.44382e-06
2.0237e-06
5.39896e-06
-4.14501e-07
6.45491e-06
-3.26303e-06
7.64757e-06
-6.56789e-06
9.00511e-06
-1.03758e-05
1.05463e-05
-1.47314e-05
1.22801e-05
-1.96754e-05
1.42065e-05
-2.52414e-05
1.63172e-05
-3.14546e-05
1.85966e-05
-3.83283e-05
2.10222e-05
-4.58624e-05
2.35646e-05
-5.40409e-05
2.61877e-05
-6.28301e-05
2.88483e-05
-7.21784e-05
3.14977e-05
-8.20162e-05
3.4082e-05
-9.22579e-05
3.65451e-05
-0.000102804
3.88304e-05
-0.000113547
4.08841e-05
-0.000124374
4.26574e-05
-0.00013517
4.41087e-05
-0.000145828
4.52056e-05
-0.000156246
4.5925e-05
-0.000166336
4.62539e-05
-0.000176021
4.61884e-05
-0.000185237
4.57326e-05
-0.000193935
4.48975e-05
-0.000202077
4.36989e-05
-0.000209635
4.21565e-05
-0.000216592
4.02923e-05
-0.000222934
3.81292e-05
-0.000228657
3.56903e-05
-0.000233756
3.29986e-05
-0.000238231
3.00756e-05
-0.000242084
2.6942e-05
-0.000245314
2.3617e-05
-0.000247923
2.01185e-05
-0.000249911
1.64635e-05
-0.000251277
1.2668e-05
-0.000252019
8.74729e-06
-0.000252134
4.71677e-06
-0.000251618
5.9188e-07
-0.000250466
-3.6112e-06
-0.000248671
-7.87514e-06
-0.000246228
-1.2181e-05
-0.000243129
-1.65075e-05
-0.000239368
-2.0831e-05
-0.00023494
-2.51246e-05
-0.00022984
-2.93581e-05
-0.000224067
-3.34974e-05
-0.000217622
-3.75048e-05
-0.000210511
-4.13386e-05
-0.000202744
-4.49536e-05
-0.000194338
-4.83017e-05
-0.000185319
-5.13325e-05
-0.000175719
-5.39946e-05
-0.000165583
-5.62371e-05
-0.000154962
-5.80113e-05
-0.000143922
-5.9273e-05
-0.000132537
-5.99841e-05
-0.000120892
-6.01155e-05
-0.000109079
-5.96489e-05
-9.72009e-05
-5.85784e-05
-8.53611e-05
-5.6912e-05
-7.3667e-05
-5.46722e-05
-6.22242e-05
-5.18959e-05
-5.11346e-05
-4.8633e-05
-4.0493e-05
-4.49454e-05
-3.03849e-05
-4.09041e-05
-2.08854e-05
-3.65866e-05
-1.20576e-05
-3.20743e-05
-3.95281e-06
-2.74493e-05
3.38937e-06
-2.27927e-05
9.94006e-06
-1.81818e-05
1.56805e-05
-1.36896e-05
2.06015e-05
-9.38312e-06
2.47027e-05
-5.32305e-06
2.79934e-05
-1.56286e-06
3.04921e-05
1.85182e-06
3.22279e-05
4.88415e-06
3.32402e-05
7.50712e-06
3.35794e-05
9.7045e-06
3.33062e-05
1.14717e-05
3.24899e-05
1.28161e-05
3.12072e-05
1.37567e-05
2.95383e-05
1.43233e-05
2.75653e-05
1.45547e-05
2.53676e-05
1.44958e-05
2.30201e-05
1.4196e-05
2.05902e-05
1.37049e-05
1.81373e-05
1.307e-05
1.57101e-05
1.23332e-05
1.33505e-05
1.15285e-05
1.1089e-05
1.06778e-05
8.95485e-06
9.79156e-06
6.96729e-06
8.86351e-06
5.15465e-06
7.87688e-06
3.53554e-06
6.79863e-06
2.15584e-06
5.59648e-06
1.04773e-06
4.22861e-06
3.04015e-07
2.68079e-06
9.38735e-07
3.09926e-07
-1.41154e-06
1.0699e-06
-3.80961e-06
2.16478e-06
-5.69864e-06
3.44148e-06
-7.04426e-06
4.79714e-06
-7.82299e-06
6.11501e-06
-8.06294e-06
7.31541e-06
-7.81241e-06
8.3233e-06
-7.15163e-06
9.09245e-06
-6.16932e-06
9.58671e-06
-4.96181e-06
9.78914e-06
-3.61785e-06
9.68977e-06
-2.21536e-06
9.28734e-06
-8.13614e-07
8.58098e-06
5.48138e-07
7.56923e-06
1.85289e-06
6.24466e-06
3.10438e-06
4.59291e-06
4.32503e-06
2.59024e-06
5.5516e-06
2.04023e-07
6.83005e-06
-2.60669e-06
8.20961e-06
-5.88882e-06
9.73696e-06
-9.69268e-06
1.14513e-05
-1.40687e-05
1.33809e-05
-1.90643e-05
1.55416e-05
-2.47207e-05
1.79362e-05
-3.10704e-05
2.05558e-05
-3.8134e-05
2.33802e-05
-4.59176e-05
2.63794e-05
-5.44102e-05
2.95138e-05
-6.35817e-05
3.2735e-05
-7.33815e-05
3.59861e-05
-8.37386e-05
3.92039e-05
-9.45631e-05
4.23203e-05
-0.000105749
4.52659e-05
-0.000117179
4.79728e-05
-0.00012873
5.03788e-05
-0.000140279
5.24296e-05
-0.000151706
5.40817e-05
-0.000162905
5.53037e-05
-0.00017378
5.60763e-05
-0.000184251
5.63919e-05
-0.000194254
5.62533e-05
-0.000203742
5.56718e-05
-0.00021268
5.46652e-05
-0.000221043
5.32562e-05
-0.000228819
5.147e-05
-0.000236001
4.93335e-05
-0.000242588
4.68737e-05
-0.000248581
4.41171e-05
-0.000253984
4.10887e-05
-0.000258802
3.78122e-05
-0.00026304
3.43093e-05
-0.000266702
3.06001e-05
-0.000269791
2.6703e-05
-0.000272311
2.26346e-05
-0.00027426
1.84104e-05
-0.000275639
1.40451e-05
-0.000276446
9.5525e-06
-0.000276676
4.9463e-06
-0.000276325
2.40443e-07
-0.000275385
-4.55044e-06
-0.000273848
-9.41047e-06
-0.000271705
-1.4322e-05
-0.000268945
-1.9265e-05
-0.000265556
-2.42165e-05
-0.000261526
-2.91502e-05
-0.000256844
-3.40356e-05
-0.000251498
-3.8838e-05
-0.000245478
-4.3518e-05
-0.000238779
-4.80311e-05
-0.000231398
-5.23282e-05
-0.000223336
-5.63559e-05
-0.000214603
-6.0057e-05
-0.000205218
-6.33717e-05
-0.000195208
-6.62392e-05
-0.000184611
-6.85995e-05
-0.00017348
-7.03957e-05
-0.000161879
-7.15769e-05
-0.000149886
-7.21006e-05
-0.000137592
-7.19358e-05
-0.000125098
-7.10655e-05
-0.000112514
-6.94888e-05
-9.99586e-05
-6.72221e-05
-8.75492e-05
-6.42999e-05
-7.54036e-05
-6.07739e-05
-6.36335e-05
-5.67114e-05
-5.23417e-05
-5.21926e-05
-4.16188e-05
-4.7307e-05
-3.15412e-05
-4.215e-05
-2.21708e-05
-3.68186e-05
-1.35549e-05
-3.14081e-05
-5.72713e-06
-2.60097e-05
1.29055e-06
-2.07079e-05
7.48635e-06
-1.55801e-05
1.28571e-05
-1.06953e-05
1.7407e-05
-6.11464e-06
2.11476e-05
-1.89096e-06
2.4098e-05
1.93143e-06
2.62854e-05
5.31735e-06
2.77458e-05
8.24155e-06
2.85252e-05
1.06899e-05
2.86787e-05
1.26601e-05
2.82707e-05
1.41623e-05
2.73727e-05
1.52191e-05
2.60612e-05
1.5864e-05
2.44148e-05
1.61402e-05
2.25114e-05
1.60976e-05
2.04247e-05
1.57896e-05
1.82237e-05
1.52697e-05
1.59679e-05
1.45873e-05
1.3711e-05
1.37845e-05
1.14957e-05
1.28914e-05
9.36272e-06
1.19245e-05
7.34151e-06
1.08826e-05
5.47058e-06
9.74891e-06
3.77703e-06
8.48899e-06
2.3172e-06
7.05955e-06
1.13247e-06
5.40757e-06
3.30449e-07
3.48948e-06
1.26519e-06
3.27526e-07
-1.73544e-06
1.12183e-06
-4.61143e-06
2.2501e-06
-6.82159e-06
3.54096e-06
-8.33949e-06
4.87878e-06
-9.15842e-06
6.1369e-06
-9.32353e-06
7.23123e-06
-8.90582e-06
8.08529e-06
-8.00717e-06
8.65453e-06
-6.73832e-06
8.90531e-06
-5.21351e-06
8.82336e-06
-3.53594e-06
8.39994e-06
-1.7925e-06
7.63303e-06
-4.67999e-08
6.51827e-06
1.66257e-06
5.04801e-06
3.32307e-06
3.20607e-06
4.94614e-06
9.67405e-07
6.56367e-06
-1.70347e-06
8.22241e-06
-4.85076e-06
9.97736e-06
-8.5256e-06
1.18845e-05
-1.27824e-05
1.39939e-05
-1.76754e-05
1.63444e-05
-2.32543e-05
1.89599e-05
-2.95604e-05
2.18479e-05
-3.66236e-05
2.49997e-05
-4.44588e-05
2.83913e-05
-5.30629e-05
3.19847e-05
-6.24124e-05
3.57295e-05
-7.24617e-05
3.95639e-05
-8.31423e-05
4.34164e-05
-9.43638e-05
4.72086e-05
-0.000106017
5.08579e-05
-0.000117977
5.4282e-05
-0.000130113
5.74031e-05
-0.00014229
6.01518e-05
-0.00015438
6.24706e-05
-0.000166264
6.43162e-05
-0.00017784
6.56599e-05
-0.000189021
6.64877e-05
-0.000199741
6.67985e-05
-0.000209948
6.66019e-05
-0.000219608
6.59162e-05
-0.000228699
6.47658e-05
-0.000237209
6.3179e-05
-0.000245135
6.11858e-05
-0.000252479
5.88172e-05
-0.000259246
5.61036e-05
-0.000265443
5.3074e-05
-0.000271078
4.97557e-05
-0.00027616
4.61743e-05
-0.000280698
4.23528e-05
-0.000284698
3.83124e-05
-0.000288168
3.40723e-05
-0.000291112
2.96496e-05
-0.000293536
2.50599e-05
-0.000295441
2.03172e-05
-0.00029683
1.54347e-05
-0.000297701
1.04245e-05
-0.000298053
5.29846e-06
-0.000297882
6.85947e-08
-0.00029718
-5.25256e-06
-0.000295941
-1.06513e-05
-0.000294152
-1.61123e-05
-0.000291802
-2.16177e-05
-0.000288875
-2.71468e-05
-0.000285353
-3.2675e-05
-0.000281219
-3.81737e-05
-0.000276452
-4.3609e-05
-0.000271033
-4.89417e-05
-0.000264943
-5.41269e-05
-0.000258163
-5.91135e-05
-0.00025068
-6.38445e-05
-0.000242485
-6.82576e-05
-0.000233577
-7.22859e-05
-0.000223963
-7.58592e-05
-0.000213662
-7.89061e-05
-0.000202708
-8.13563e-05
-0.000191147
-8.31436e-05
-0.000179044
-8.42092e-05
-0.00016648
-8.45054e-05
-0.000153552
-8.39986e-05
-0.000140372
-8.26732e-05
-0.000127064
-8.05338e-05
-0.000113762
-7.76064e-05
-0.0001006
-7.39394e-05
-8.7712e-05
-6.96018e-05
-7.52262e-05
-6.46808e-05
-6.32572e-05
-5.92778e-05
-5.19047e-05
-5.35039e-05
-4.12498e-05
-4.74743e-05
-3.13549e-05
-4.13034e-05
-2.22637e-05
-3.51009e-05
-1.40034e-05
-2.89678e-05
-6.58746e-06
-2.29952e-05
-1.8403e-08
-1.72633e-05
5.7095e-06
-1.18412e-05
1.06083e-05
-6.78829e-06
1.46954e-05
-2.15403e-06
1.79934e-05
2.02101e-06
2.0531e-05
5.70568e-06
2.23439e-05
8.8788e-06
2.34755e-05
1.15302e-05
2.39781e-05
1.36615e-05
2.39117e-05
1.5287e-05
2.33439e-05
1.64334e-05
2.23471e-05
1.71384e-05
2.09968e-05
1.74493e-05
1.93679e-05
1.74196e-05
1.75336e-05
1.71053e-05
1.55606e-05
1.6561e-05
1.35119e-05
1.58346e-05
1.144e-05
1.49634e-05
9.39668e-06
1.39694e-05
7.42179e-06
1.28568e-05
5.5643e-06
1.16088e-05
3.86084e-06
1.01902e-05
2.37767e-06
8.54691e-06
1.16497e-06
6.61495e-06
3.40202e-07
4.32168e-06
1.6017e-06
3.42789e-07
-2.07401e-06
1.16008e-06
-5.43601e-06
2.30021e-06
-7.95558e-06
3.5738e-06
-9.61693e-06
4.85314e-06
-1.04345e-05
6.00317e-06
-1.04753e-05
6.93698e-06
-9.83783e-06
7.57835e-06
-8.64923e-06
7.88571e-06
-7.04463e-06
7.82889e-06
-5.15688e-06
7.39652e-06
-3.10295e-06
6.58075e-06
-9.76737e-07
5.37784e-06
1.15647e-06
3.77861e-06
3.26184e-06
1.76762e-06
5.33426e-06
-6.81533e-07
7.39532e-06
-3.60558e-06
9.48781e-06
-7.05183e-06
1.16687e-05
-1.10749e-05
1.40005e-05
-1.57336e-05
1.65431e-05
-2.10855e-05
1.93457e-05
-2.71827e-05
2.24415e-05
-3.40665e-05
2.58436e-05
-4.17638e-05
2.95451e-05
-5.02829e-05
3.35186e-05
-5.96108e-05
3.77189e-05
-6.97107e-05
4.20843e-05
-8.05208e-05
4.65392e-05
-9.19545e-05
5.09971e-05
-0.000103903
5.53641e-05
-0.000116238
5.95434e-05
-0.000128822
6.34407e-05
-0.00014151
6.69691e-05
-0.000154162
7.0054e-05
-0.000166648
7.26361e-05
-0.000178852
7.46736e-05
-0.00019068
7.6142e-05
-0.000202054
7.70328e-05
-0.00021292
7.73516e-05
-0.000223238
7.71147e-05
-0.000232985
7.63467e-05
-0.000242148
7.50775e-05
-0.000250725
7.33402e-05
-0.000258717
7.11692e-05
-0.000266133
6.8599e-05
-0.000272981
6.5663e-05
-0.000279273
6.2393e-05
-0.00028502
5.8819e-05
-0.000290235
5.49684e-05
-0.000294929
5.08666e-05
-0.000299115
4.65365e-05
-0.000302803
4.19988e-05
-0.000306005
3.72718e-05
-0.000308728
3.23718e-05
-0.000310983
2.73132e-05
-0.000312775
2.21087e-05
-0.000314111
1.67697e-05
-0.000314993
1.13066e-05
-0.000315423
5.72889e-06
-0.000315401
4.62291e-08
-0.000314921
-5.7316e-06
-0.000313977
-1.15939e-05
-0.000312559
-1.75284e-05
-0.000310655
-2.35208e-05
-0.000308245
-2.95536e-05
-0.000305312
-3.5606e-05
-0.00030183
-4.16524e-05
-0.000297774
-4.76621e-05
-0.000293114
-5.35986e-05
-0.000287818
-5.94184e-05
-0.000281857
-6.50712e-05
-0.000275198
-7.04994e-05
-0.000267813
-7.56379e-05
-0.00025968
-8.04152e-05
-0.000250781
-8.47537e-05
-0.00024111
-8.85719e-05
-0.000230676
-9.17866e-05
-0.0002195
-9.43156e-05
-0.000207623
-9.60817e-05
-0.000195108
-9.70166e-05
-0.000182038
-9.70655e-05
-0.000168516
-9.61916e-05
-0.000154667
-9.43795e-05
-0.000140631
-9.16393e-05
-0.000126561
-8.80074e-05
-0.000112613
-8.35474e-05
-9.89447e-05
-7.83476e-05
-8.57033e-05
-7.25179e-05
-7.30222e-05
-6.61841e-05
-6.10145e-05
-5.94814e-05
-4.97699e-05
-5.25477e-05
-3.93537e-05
-4.55171e-05
-2.98076e-05
-3.85143e-05
-2.11522e-05
-3.16511e-05
-1.33917e-05
-2.50245e-05
-6.5176e-06
-1.87163e-05
-5.12811e-07
-1.27941e-05
4.64511e-06
-7.31307e-06
8.98234e-06
-2.31738e-06
1.25281e-05
2.15866e-06