/*--------------------------------*- C++ -*----------------------------------*\
| =========                 |                                                 |
| \\      /  F ield         | OpenFOAM: The Open Source CFD Toolbox           |
|  \\    /   O peration     | Version:  2406                                  |
|   \\  /    A nd           | Website:  www.openfoam.com                      |
|    \\/     M anipulation  |                                                 |
\*---------------------------------------------------------------------------*/
FoamFile
{
    version     2.0;
    format      ascii;
    arch        "LSB;label=32;scalar=64";
    class       volVectorField;
    location    "28.6";
    object      U;
}
// * * * * * * * * * * * * * * * * * * * * * * * * * * * * * * * * * * * * * //

dimensions      [0 1 -1 0 0 0 0];

internalField   nonuniform List<vector> 
3600
(
(3.30658e-05 -3.7266e-05 0)
(0.000468731 -0.000199625 0)
(0.00120944 -0.000267506 0)
(0.00198213 -0.000270087 0)
(0.00272274 -0.000231869 0)
(0.00329794 -0.000181626 0)
(0.00374131 -0.000132961 0)
(0.00401185 -9.22052e-05 0)
(0.00416244 -6.19551e-05 0)
(0.00417833 -3.87481e-05 0)
(0.00408889 -1.98989e-05 0)
(0.00386855 1.5305e-06 0)
(0.00350692 3.01017e-05 0)
(0.00295315 7.26694e-05 0)
(0.00215963 0.000132776 0)
(0.00105548 0.000214597 0)
(-0.000425564 0.000319152 0)
(-0.00235455 0.000447247 0)
(-0.00479005 0.000595112 0)
(-0.00777841 0.000756235 0)
(-0.0113415 0.000922117 0)
(-0.0154679 0.00108847 0)
(-0.0200994 0.0012532 0)
(-0.0251201 0.00141147 0)
(-0.0303526 0.00154674 0)
(-0.0355592 0.0016305 0)
(-0.0404558 0.00162718 0)
(-0.0447283 0.0015053 0)
(-0.0480612 0.00124504 0)
(-0.0501596 0.000843702 0)
(-0.0507784 0.000315312 0)
(-0.0497391 -0.000310128 0)
(-0.0469525 -0.000990395 0)
(-0.0424272 -0.00167316 0)
(-0.0362864 -0.00230066 0)
(-0.0287641 -0.00281314 0)
(-0.0202124 -0.00315557 0)
(-0.0110759 -0.00328362 0)
(-0.00187996 -0.00317215 0)
(0.00682703 -0.00282168 0)
(0.0145058 -0.00226345 0)
(0.0207106 -0.00155918 0)
(0.0251184 -0.000793988 0)
(0.0276055 -6.32553e-05 0)
(0.0282273 0.000547778 0)
(0.0272448 0.000981024 0)
(0.0250252 0.00121976 0)
(0.0220259 0.00128445 0)
(0.0186536 0.00122247 0)
(0.0152797 0.00108493 0)
(0.0121243 0.000917017 0)
(0.00935467 0.000746458 0)
(0.00699065 0.00059283 0)
(0.00506096 0.000461299 0)
(0.00348058 0.000359408 0)
(0.00223589 0.000276834 0)
(0.00123312 0.00021199 0)
(0.000500684 0.000127334 0)
(4.48819e-05 2.92156e-05 0)
(-8.04032e-05 -8.58269e-05 0)
(0.000190239 -0.000463372 0)
(0.00115339 -0.00115903 0)
(0.00258722 -0.00142978 0)
(0.00402466 -0.00140547 0)
(0.00535736 -0.00119717 0)
(0.00635264 -0.00090301 0)
(0.00702476 -0.000590283 0)
(0.0072841 -0.000282141 0)
(0.00717067 5.10572e-06 0)
(0.00663017 0.000290442 0)
(0.00565808 0.000587642 0)
(0.00416799 0.000932852 0)
(0.00208046 0.00135047 0)
(-0.000744184 0.0018739 0)
(-0.00444592 0.00251863 0)
(-0.00918632 0.00329687 0)
(-0.0151018 0.00419883 0)
(-0.0222974 0.00520543 0)
(-0.0308078 0.00627808 0)
(-0.0405726 0.00736851 0)
(-0.051405 0.00840628 0)
(-0.0629835 0.00930124 0)
(-0.0748707 0.00994199 0)
(-0.0865507 0.0102182 0)
(-0.0974849 0.0100359 0)
(-0.107156 0.00933707 0)
(-0.115111 0.00810155 0)
(-0.120976 0.00635026 0)
(-0.124471 0.00413709 0)
(-0.125402 0.00154664 0)
(-0.123665 -0.00131467 0)
(-0.11923 -0.00431925 0)
(-0.112158 -0.00732496 0)
(-0.102588 -0.0101745 0)
(-0.0907546 -0.0127036 0)
(-0.0769823 -0.014744 0)
(-0.0617032 -0.016139 0)
(-0.0454369 -0.016755 0)
(-0.0287989 -0.0165049 0)
(-0.0124517 -0.0153643 0)
(0.0029039 -0.0133917 0)
(0.0166143 -0.0107332 0)
(0.0280888 -0.00761781 0)
(0.0369057 -0.00433297 0)
(0.0428034 -0.00118487 0)
(0.0457766 0.00154742 0)
(0.0460088 0.00366166 0)
(0.0439337 0.00505916 0)
(0.0400847 0.00575798 0)
(0.0351239 0.00586519 0)
(0.0296237 0.00554535 0)
(0.0241343 0.00496471 0)
(0.0189697 0.00427437 0)
(0.0143953 0.003573 0)
(0.0104307 0.0029373 0)
(0.00714406 0.00236968 0)
(0.00442271 0.00187289 0)
(0.0023333 0.00133153 0)
(0.00083157 0.00074902 0)
(6.91731e-05 6.69603e-05 0)
(0.000268425 -0.00120515 0)
(0.00146422 -0.00260537 0)
(0.00316605 -0.00311217 0)
(0.00477354 -0.00298145 0)
(0.00616012 -0.00247065 0)
(0.00704244 -0.00174573 0)
(0.00740836 -0.00094881 0)
(0.00712438 -0.000113771 0)
(0.0061818 0.000728805 0)
(0.00446598 0.00162757 0)
(0.00189686 0.00261906 0)
(-0.00169531 0.00378538 0)
(-0.00648302 0.00518131 0)
(-0.0126891 0.00687116 0)
(-0.0205178 0.0088715 0)
(-0.0301461 0.0111743 0)
(-0.041656 0.0137094 0)
(-0.0549903 0.0163649 0)
(-0.069902 0.0189629 0)
(-0.0859471 0.0212818 0)
(-0.102529 0.0230707 0)
(-0.118975 0.0241076 0)
(-0.13463 0.0242293 0)
(-0.148914 0.0233578 0)
(-0.161368 0.0214864 0)
(-0.171645 0.0186708 0)
(-0.179507 0.0150038 0)
(-0.184795 0.0106073 0)
(-0.187415 0.00561768 0)
(-0.18731 0.000188401 0)
(-0.184466 -0.00551632 0)
(-0.178891 -0.0113129 0)
(-0.170636 -0.0170014 0)
(-0.159787 -0.0223575 0)
(-0.146499 -0.0271402 0)
(-0.13099 -0.0310919 0)
(-0.113582 -0.0339601 0)
(-0.0946854 -0.0355125 0)
(-0.0748309 -0.0355752 0)
(-0.0546304 -0.0340588 0)
(-0.0347823 -0.0309977 0)
(-0.0159936 -0.0265619 0)
(0.00103311 -0.0210639 0)
(0.0157074 -0.0149271 0)
(0.0275454 -0.00864235 0)
(0.036277 -0.00270335 0)
(0.0417897 0.00245781 0)
(0.04423 0.00652306 0)
(0.0438919 0.00932966 0)
(0.0413118 0.0108783 0)
(0.0370694 0.0113228 0)
(0.0318671 0.0109158 0)
(0.0262476 0.00995782 0)
(0.0207476 0.00871681 0)
(0.0156066 0.00741611 0)
(0.0110888 0.00615166 0)
(0.00716881 0.00496154 0)
(0.00402461 0.00369453 0)
(0.00159799 0.00230029 0)
(0.000229676 0.000644804 0)
(0.000300519 -0.00201772 0)
(0.00153522 -0.00409846 0)
(0.00318368 -0.00474021 0)
(0.00457827 -0.00435878 0)
(0.00558353 -0.00339255 0)
(0.0058934 -0.0020576 0)
(0.00546091 -0.000563508 0)
(0.00410407 0.00106601 0)
(0.00173877 0.00279861 0)
(-0.00183116 0.00472797 0)
(-0.00678892 0.00692149 0)
(-0.0133973 0.00950815 0)
(-0.0219124 0.0125577 0)
(-0.0325846 0.0161285 0)
(-0.0455688 0.0201744 0)
(-0.0608633 0.0245744 0)
(-0.0782361 0.0290754 0)
(-0.0972014 0.0333386 0)
(-0.117076 0.0369613 0)
(-0.137084 0.0395833 0)
(-0.156492 0.0409365 0)
(-0.174684 0.0408905 0)
(-0.191207 0.0394237 0)
(-0.205743 0.0366054 0)
(-0.218095 0.0325496 0)
(-0.228136 0.0274007 0)
(-0.235793 0.0213077 0)
(-0.241009 0.0144267 0)
(-0.243747 0.00691092 0)
(-0.243962 -0.00107608 0)
(-0.24162 -0.00936298 0)
(-0.236677 -0.017753 0)
(-0.229106 -0.0260241 0)
(-0.218891 -0.0339135 0)
(-0.206062 -0.0411238 0)
(-0.1907 -0.0473189 0)
(-0.172977 -0.0521485 0)
(-0.153166 -0.0552656 0)
(-0.131681 -0.0563784 0)
(-0.109061 -0.055288 0)
(-0.0859893 -0.0519511 0)
(-0.0632239 -0.0465063 0)
(-0.0415752 -0.0392984 0)
(-0.0217833 -0.0308426 0)
(-0.00449601 -0.0217743 0)
(0.00985014 -0.0127585 0)
(0.0209725 -0.00441367 0)
(0.0288273 0.00275563 0)
(0.0334868 0.00839983 0)
(0.0352568 0.0123493 0)
(0.0345177 0.0146248 0)
(0.0318694 0.0154208 0)
(0.0278625 0.0150627 0)
(0.0231646 0.0139255 0)
(0.0181926 0.01237 0)
(0.01343 0.0106339 0)
(0.00900315 0.00883337 0)
(0.00526051 0.00684772 0)
(0.0021953 0.00453297 0)
(0.000359735 0.00162627 0)
(0.000301045 -0.00287912 0)
(0.00142292 -0.00555263 0)
(0.00276964 -0.00617621 0)
(0.00365721 -0.00535602 0)
(0.00393228 -0.00373053 0)
(0.00327898 -0.00154661 0)
(0.00159666 0.000930456 0)
(-0.00134983 0.00371127 0)
(-0.00574115 0.00677685 0)
(-0.0118601 0.0102799 0)
(-0.0199925 0.0143171 0)
(-0.0304552 0.0190427 0)
(-0.0435044 0.0244858 0)
(-0.0592609 0.0306018 0)
(-0.0776114 0.0371438 0)
(-0.0981377 0.0437233 0)
(-0.120153 0.0498028 0)
(-0.142804 0.0548536 0)
(-0.165258 0.0584332 0)
(-0.186803 0.0602842 0)
(-0.206925 0.0603046 0)
(-0.225271 0.0585341 0)
(-0.241633 0.055085 0)
(-0.255885 0.0501226 0)
(-0.267967 0.0438203 0)
(-0.277844 0.0363594 0)
(-0.285509 0.0279063 0)
(-0.290949 0.0186251 0)
(-0.294157 0.00866773 0)
(-0.295104 -0.00180647 0)
(-0.293755 -0.012633 0)
(-0.290042 -0.0236184 0)
(-0.283889 -0.0345387 0)
(-0.275194 -0.0451158 0)
(-0.263866 -0.0550199 0)
(-0.249823 -0.0638554 0)
(-0.233048 -0.0711832 0)
(-0.213602 -0.0765335 0)
(-0.191699 -0.0794643 0)
(-0.167719 -0.0796112 0)
(-0.142258 -0.0767771 0)
(-0.116099 -0.0709892 0)
(-0.090189 -0.0625599 0)
(-0.065507 -0.0520681 0)
(-0.0429806 -0.0403086 0)
(-0.023305 -0.0281605 0)
(-0.0069407 -0.0164681 0)
(0.00596782 -0.00592889 0)
(0.0154291 0.00294478 0)
(0.0216621 0.00984418 0)
(0.0249184 0.014653 0)
(0.0256545 0.0174574 0)
(0.0243095 0.0185145 0)
(0.0215237 0.0182154 0)
(0.0177636 0.0169859 0)
(0.0136457 0.0151897 0)
(0.00943455 0.0130219 0)
(0.00565184 0.0104336 0)
(0.00239884 0.00717434 0)
(0.000401072 0.00284468 0)
(0.000280156 -0.00362586 0)
(0.001145 -0.006647 0)
(0.00193729 -0.00700599 0)
(0.00201875 -0.00550384 0)
(0.00121038 -0.00297238 0)
(-0.000800862 0.000340113 0)
(-0.00419461 0.00413726 0)
(-0.00926323 0.00848855 0)
(-0.0162983 0.0134001 0)
(-0.0256504 0.0190775 0)
(-0.0376624 0.0256096 0)
(-0.0525912 0.0330946 0)
(-0.0705158 0.0413912 0)
(-0.0911991 0.0501906 0)
(-0.114077 0.0589121 0)
(-0.138294 0.0668879 0)
(-0.162914 0.0734519 0)
(-0.187065 0.0781349 0)
(-0.210085 0.0806673 0)
(-0.2315 0.0809945 0)
(-0.251026 0.0791862 0)
(-0.268488 0.0754113 0)
(-0.283816 0.0698683 0)
(-0.296989 0.0627812 0)
(-0.308046 0.0543587 0)
(-0.317039 0.0448035 0)
(-0.324048 0.0342892 0)
(-0.329142 0.0229771 0)
(-0.332389 0.0110038 0)
(-0.33382 -0.0014948 0)
(-0.333439 -0.0143878 0)
(-0.331195 -0.027519 0)
(-0.326994 -0.0407044 0)
(-0.320674 -0.0536985 0)
(-0.312034 -0.0661912 0)
(-0.300825 -0.0777793 0)
(-0.286801 -0.087978 0)
(-0.269741 -0.096219 0)
(-0.249538 -0.101903 0)
(-0.226249 -0.104449 0)
(-0.200199 -0.103406 0)
(-0.172011 -0.0985475 0)
(-0.142647 -0.0899899 0)
(-0.11331 -0.0782401 0)
(-0.085332 -0.0641891 0)
(-0.0599078 -0.0489691 0)
(-0.0379423 -0.0337661 0)
(-0.0198565 -0.0195955 0)
(-0.00571356 -0.00719775 0)
(0.00474545 0.00299084 0)
(0.01182 0.0107634 0)
(0.0159498 0.0161283 0)
(0.017509 0.0192531 0)
(0.0170678 0.0204842 0)
(0.015066 0.0202319 0)
(0.0121574 0.018924 0)
(0.0086978 0.0167981 0)
(0.00533156 0.0138748 0)
(0.00228614 0.00980394 0)
(0.000379679 0.0040738 0)
(0.000231736 -0.00424813 0)
(0.000682936 -0.00728766 0)
(0.000671248 -0.00708052 0)
(-0.000334132 -0.00461532 0)
(-0.00255298 -0.000884862 0)
(-0.00628872 0.00389836 0)
(-0.0118254 0.0094327 0)
(-0.0195031 0.0158598 0)
(-0.0297106 0.0232021 0)
(-0.0427968 0.0316737 0)
(-0.0590453 0.0412607 0)
(-0.0784702 0.0518586 0)
(-0.100782 0.0629935 0)
(-0.125274 0.0739954 0)
(-0.151009 0.0840079 0)
(-0.176951 0.0922906 0)
(-0.202225 0.0982889 0)
(-0.226139 0.101743 0)
(-0.248245 0.102592 0)
(-0.268241 0.10095 0)
(-0.285987 0.0970103 0)
(-0.301424 0.0910372 0)
(-0.314604 0.0832983 0)
(-0.325622 0.0740727 0)
(-0.334639 0.0636059 0)
(-0.341822 0.052124 0)
(-0.347361 0.0398049 0)
(-0.351418 0.0268011 0)
(-0.354147 0.0132237 0)
(-0.355643 -0.000827858 0)
(-0.35597 -0.0152726 0)
(-0.355115 -0.0300131 0)
(-0.353007 -0.044934 0)
(-0.349477 -0.0598623 0)
(-0.34428 -0.074559 0)
(-0.33706 -0.0886776 0)
(-0.327395 -0.10176 0)
(-0.314796 -0.113212 0)
(-0.298794 -0.122332 0)
(-0.279003 -0.128342 0)
(-0.255268 -0.13049 0)
(-0.227763 -0.128168 0)
(-0.197139 -0.121089 0)
(-0.164538 -0.109426 0)
(-0.131559 -0.093924 0)
(-0.0999942 -0.0758488 0)
(-0.0715322 -0.0567967 0)
(-0.0473299 -0.0383362 0)
(-0.0278836 -0.0217051 0)
(-0.0130125 -0.00762957 0)
(-0.00225615 0.00357719 0)
(0.00500731 0.0119174 0)
(0.00926511 0.0175388 0)
(0.0111054 0.0207681 0)
(0.0109614 0.0219752 0)
(0.00947968 0.0216018 0)
(0.00706789 0.0198835 0)
(0.00442844 0.0168827 0)
(0.00189903 0.0121736 0)
(0.000301299 0.00517797 0)
(0.000143145 -0.00456931 0)
(-8.45714e-06 -0.00715175 0)
(-0.00109779 -0.00601279 0)
(-0.00347942 -0.00226825 0)
(-0.00743506 0.00299127 0)
(-0.0132494 0.00962977 0)
(-0.0213267 0.0173596 0)
(-0.0320213 0.0263814 0)
(-0.0457645 0.0366856 0)
(-0.062779 0.0483896 0)
(-0.0831283 0.061228 0)
(-0.106415 0.0747403 0)
(-0.131921 0.0880566 0)
(-0.158576 0.10024 0)
(-0.185319 0.110379 0)
(-0.211173 0.117875 0)
(-0.235439 0.122393 0)
(-0.257593 0.123893 0)
(-0.277343 0.122488 0)
(-0.294521 0.118443 0)
(-0.309137 0.112072 0)
(-0.321282 0.103742 0)
(-0.331169 0.0937987 0)
(-0.339035 0.0825772 0)
(-0.345176 0.0703491 0)
(-0.349858 0.0573459 0)
(-0.353355 0.0437301 0)
(-0.355886 0.0296263 0)
(-0.357654 0.0151051 0)
(-0.358796 0.00021806 0)
(-0.35942 -0.0150123 0)
(-0.359561 -0.0305566 0)
(-0.359202 -0.0463818 0)
(-0.358229 -0.0624107 0)
(-0.35644 -0.0785151 0)
(-0.353496 -0.0944658 0)
(-0.348932 -0.109917 0)
(-0.342125 -0.124355 0)
(-0.33235 -0.137097 0)
(-0.318814 -0.147275 0)
(-0.300801 -0.153907 0)
(-0.277813 -0.155986 0)
(-0.249807 -0.152674 0)
(-0.217357 -0.14352 0)
(-0.181808 -0.128712 0)
(-0.145188 -0.109222 0)
(-0.109949 -0.0867936 0)
(-0.0783882 -0.0636066 0)
(-0.0521104 -0.0417623 0)
(-0.0316119 -0.0227306 0)
(-0.016518 -0.00721523 0)
(-0.00594676 0.00473082 0)
(0.000919784 0.01332 0)
(0.0048789 0.0189542 0)
(0.00648164 0.0220128 0)
(0.00640425 0.0229456 0)
(0.00510717 0.0219669 0)
(0.00330629 0.0191499 0)
(0.00142149 0.0140292 0)
(0.000211002 0.00601873 0)
(4.8106e-06 -0.00452205 0)
(-0.000949615 -0.00609087 0)
(-0.00337623 -0.00362958 0)
(-0.00738679 0.00172029 0)
(-0.0133525 0.00886203 0)
(-0.0215244 0.0177678 0)
(-0.0324219 0.0281623 0)
(-0.0463438 0.0402506 0)
(-0.0636672 0.0538923 0)
(-0.0843362 0.0689591 0)
(-0.108067 0.0847944 0)
(-0.134008 0.100529 0)
(-0.16113 0.115001 0)
(-0.188211 0.127215 0)
(-0.214266 0.136396 0)
(-0.238449 0.142176 0)
(-0.260234 0.144447 0)
(-0.279242 0.14337 0)
(-0.295364 0.139239 0)
(-0.308612 0.132479 0)
(-0.319203 0.123536 0)
(-0.327411 0.112878 0)
(-0.333611 0.100906 0)
(-0.338153 0.0879796 0)
(-0.34141 0.0743624 0)
(-0.34368 0.0602612 0)
(-0.345251 0.0458007 0)
(-0.346331 0.0310657 0)
(-0.347114 0.0160844 0)
(-0.347728 0.000867832 0)
(-0.348292 -0.0146053 0)
(-0.348868 -0.0303538 0)
(-0.349501 -0.0464064 0)
(-0.350159 -0.0627657 0)
(-0.350757 -0.0794099 0)
(-0.351083 -0.0962464 0)
(-0.350797 -0.113093 0)
(-0.349358 -0.129614 0)
(-0.346027 -0.145288 0)
(-0.339841 -0.159345 0)
(-0.329705 -0.170771 0)
(-0.31449 -0.178329 0)
(-0.293293 -0.180704 0)
(-0.265701 -0.17671 0)
(-0.232139 -0.165636 0)
(-0.194071 -0.14759 0)
(-0.154036 -0.123796 0)
(-0.115231 -0.096567 0)
(-0.0807882 -0.0688844 0)
(-0.0527824 -0.0435007 0)
(-0.0317663 -0.0221961 0)
(-0.016951 -0.00549317 0)
(-0.00710763 0.00682657 0)
(-0.00100216 0.0153569 0)
(0.00224153 0.0206157 0)
(0.00345395 0.023133 0)
(0.00320088 0.0231358 0)
(0.00221114 0.0207061 0)
(0.000962782 0.0153857 0)
(0.00012868 0.00662328 0)
(-0.000196991 -0.00389351 0)
(-0.00216855 -0.00377885 0)
(-0.00617854 0.000412324 0)
(-0.0120364 0.00769403 0)
(-0.0202296 0.0170759 0)
(-0.0309457 0.0286454 0)
(-0.0447851 0.0421023 0)
(-0.0618912 0.0575531 0)
(-0.0824735 0.0745937 0)
(-0.10608 0.0927125 0)
(-0.132056 0.110815 0)
(-0.159187 0.127711 0)
(-0.18632 0.142141 0)
(-0.212248 0.153233 0)
(-0.236134 0.16044 0)
(-0.257279 0.163646 0)
(-0.275355 0.162978 0)
(-0.290189 0.158828 0)
(-0.301923 0.151693 0)
(-0.310803 0.142168 0)
(-0.317267 0.130811 0)
(-0.321736 0.118146 0)
(-0.32469 0.104584 0)
(-0.32651 0.0904549 0)
(-0.327565 0.0759719 0)
(-0.328108 0.0612856 0)
(-0.328371 0.0464642 0)
(-0.328495 0.0315452 0)
(-0.328618 0.0165182 0)
(-0.328821 0.00136551 0)
(-0.329199 -0.0139577 0)
(-0.32981 -0.0294921 0)
(-0.330733 -0.0452947 0)
(-0.332003 -0.0614108 0)
(-0.333653 -0.0778874 0)
(-0.33563 -0.0947377 0)
(-0.337807 -0.111934 0)
(-0.339879 -0.129347 0)
(-0.34134 -0.146705 0)
(-0.341385 -0.1635 0)
(-0.338912 -0.178928 0)
(-0.332522 -0.191826 0)
(-0.320687 -0.200695 0)
(-0.301992 -0.203818 0)
(-0.275566 -0.199559 0)
(-0.241527 -0.186793 0)
(-0.201415 -0.165469 0)
(-0.158264 -0.137053 0)
(-0.116196 -0.104619 0)
(-0.0792731 -0.0721558 0)
(-0.0501465 -0.0432913 0)
(-0.0292156 -0.0199933 0)
(-0.0152487 -0.00256432 0)
(-0.00647457 0.00973898 0)
(-0.0014532 0.0177279 0)
(0.0010041 0.0221657 0)
(0.00168424 0.0233965 0)
(0.00138561 0.0215573 0)
(0.000646325 0.0162542 0)
(8.2325e-05 0.0070054 0)
(-0.000460896 -0.00258162 0)
(-0.00363164 -7.9884e-05 0)
(-0.0094049 0.00622185 0)
(-0.0172421 0.0157294 0)
(-0.0277665 0.0276755 0)
(-0.0410557 0.0422314 0)
(-0.0577327 0.0589982 0)
(-0.0776759 0.0778501 0)
(-0.100842 0.0979987 0)
(-0.126345 0.118484 0)
(-0.15324 0.137841 0)
(-0.180103 0.154727 0)
(-0.205815 0.167965 0)
(-0.229265 0.176908 0)
(-0.249814 0.181283 0)
(-0.266962 0.181255 0)
(-0.28066 0.17723 0)
(-0.291009 0.169854 0)
(-0.298441 0.159823 0)
(-0.303413 0.147856 0)
(-0.306517 0.134558 0)
(-0.308234 0.120438 0)
(-0.309048 0.105847 0)
(-0.309279 0.0910385 0)
(-0.309216 0.0761421 0)
(-0.309009 0.0612363 0)
(-0.308797 0.0463311 0)
(-0.308628 0.0314249 0)
(-0.30857 0.0164828 0)
(-0.308643 0.00147782 0)
(-0.308907 -0.0136355 0)
(-0.309395 -0.0288927 0)
(-0.310191 -0.0443458 0)
(-0.311357 -0.0600421 0)
(-0.312996 -0.0760461 0)
(-0.315169 -0.092418 0)
(-0.317929 -0.10922 0)
(-0.321223 -0.12648 0)
(-0.324871 -0.144157 0)
(-0.328436 -0.162059 0)
(-0.331165 -0.179754 0)
(-0.331871 -0.196438 0)
(-0.328955 -0.210839 0)
(-0.320483 -0.22118 0)
(-0.304521 -0.225293 0)
(-0.279621 -0.220959 0)
(-0.245504 -0.206513 0)
(-0.203684 -0.181634 0)
(-0.15776 -0.148111 0)
(-0.112876 -0.109981 0)
(-0.0741936 -0.0726208 0)
(-0.0448041 -0.040559 0)
(-0.0247724 -0.0159041 0)
(-0.0121566 0.00167151 0)
(-0.00480844 0.0132966 0)
(-0.000941679 0.0201725 0)
(0.000630507 0.0229431 0)
(0.000899183 0.0219164 0)
(0.000501776 0.0168347 0)
(7.45963e-05 0.00729935 0)
(-0.000788234 -0.000385377 0)
(-0.00530892 0.0052505 0)
(-0.0129605 0.0140096 0)
(-0.0228272 0.0259962 0)
(-0.0356695 0.0407696 0)
(-0.0513935 0.0585111 0)
(-0.0705756 0.0786198 0)
(-0.0927449 0.100605 0)
(-0.117578 0.123229 0)
(-0.143807 0.145111 0)
(-0.170326 0.164567 0)
(-0.195644 0.180271 0)
(-0.218783 0.191259 0)
(-0.238789 0.197175 0)
(-0.255292 0.198073 0)
(-0.26807 0.194449 0)
(-0.277417 0.187016 0)
(-0.283713 0.176653 0)
(-0.287629 0.164192 0)
(-0.289738 0.15039 0)
(-0.290679 0.135811 0)
(-0.290881 0.120878 0)
(-0.290744 0.105831 0)
(-0.290464 0.0908168 0)
(-0.290217 0.0758741 0)
(-0.290033 0.0610131 0)
(-0.289964 0.0461986 0)
(-0.289977 0.0314042 0)
(-0.290087 0.0165872 0)
(-0.290265 0.00172502 0)
(-0.290542 -0.0132152 0)
(-0.290928 -0.0282508 0)
(-0.291496 -0.0434134 0)
(-0.292307 -0.0587311 0)
(-0.293479 -0.0742545 0)
(-0.295121 -0.0900441 0)
(-0.297376 -0.106187 0)
(-0.300346 -0.122781 0)
(-0.304099 -0.139922 0)
(-0.30855 -0.157658 0)
(-0.313401 -0.175907 0)
(-0.317972 -0.194331 0)
(-0.321098 -0.212167 0)
(-0.321024 -0.228056 0)
(-0.315495 -0.239936 0)
(-0.302043 -0.245124 0)
(-0.278614 -0.240707 0)
(-0.24445 -0.224331 0)
(-0.201032 -0.195372 0)
(-0.152588 -0.156047 0)
(-0.105488 -0.111804 0)
(-0.0660289 -0.0696863 0)
(-0.037512 -0.0352367 0)
(-0.0191928 -0.0100986 0)
(-0.00842696 0.00669531 0)
(-0.00264541 0.0169229 0)
(-4.76909e-05 0.0217567 0)
(0.000735173 0.0218696 0)
(0.000530629 0.0172392 0)
(0.000107219 0.00757524 0)
(-0.00115626 0.0027554 0)
(-0.00709223 0.0122274 0)
(-0.0166258 0.0237157 0)
(-0.0284497 0.0383522 0)
(-0.043447 0.0560978 0)
(-0.0612885 0.0770369 0)
(-0.0824441 0.100267 0)
(-0.106053 0.124839 0)
(-0.13155 0.149076 0)
(-0.157377 0.17128 0)
(-0.182412 0.189713 0)
(-0.205206 0.203208 0)
(-0.225002 0.211107 0)
(-0.241075 0.213411 0)
(-0.253402 0.210561 0)
(-0.262083 0.203405 0)
(-0.26774 0.192932 0)
(-0.270959 0.180171 0)
(-0.272538 0.165987 0)
(-0.273043 0.151074 0)
(-0.273049 0.135878 0)
(-0.272853 0.120681 0)
(-0.272724 0.105594 0)
(-0.272716 0.0906566 0)
(-0.272895 0.075832 0)
(-0.273197 0.061083 0)
(-0.273609 0.0463514 0)
(-0.274046 0.0316059 0)
(-0.274496 0.0168115 0)
(-0.274901 0.00196095 0)
(-0.27528 -0.0129572 0)
(-0.275623 -0.0279363 0)
(-0.27599 -0.0429814 0)
(-0.276426 -0.058093 0)
(-0.277043 -0.0732939 0)
(-0.277945 -0.0886205 0)
(-0.279299 -0.104144 0)
(-0.281262 -0.119968 0)
(-0.284024 -0.136235 0)
(-0.287715 -0.15311 0)
(-0.292385 -0.170736 0)
(-0.29784 -0.18915 0)
(-0.303525 -0.208125 0)
(-0.308307 -0.226956 0)
(-0.310348 -0.244199 0)
(-0.307101 -0.257486 0)
(-0.295606 -0.263547 0)
(-0.273205 -0.258652 0)
(-0.238665 -0.239669 0)
(-0.193501 -0.20566 0)
(-0.142767 -0.159644 0)
(-0.0942762 -0.108963 0)
(-0.0554175 -0.0628563 0)
(-0.0290809 -0.0272634 0)
(-0.0132871 -0.00301647 0)
(-0.00468149 0.0120281 0)
(-0.000662815 0.0197798 0)
(0.000733416 0.0215299 0)
(0.000663789 0.0176332 0)
(0.0001651 0.00795053 0)
(-0.00154872 0.0069471 0)
(-0.00889824 0.0209248 0)
(-0.0202286 0.0353491 0)
(-0.0338398 0.0527305 0)
(-0.0507026 0.0734748 0)
(-0.0702013 0.0974466 0)
(-0.0926666 0.12336 0)
(-0.116862 0.149769 0)
(-0.142057 0.174637 0)
(-0.166525 0.196085 0)
(-0.189242 0.212483 0)
(-0.208887 0.222936 0)
(-0.225 0.227176 0)
(-0.237148 0.225621 0)
(-0.245687 0.219127 0)
(-0.251009 0.208857 0)
(-0.25398 0.195985 0)
(-0.255268 0.181573 0)
(-0.255672 0.16641 0)
(-0.255644 0.151043 0)
(-0.25563 0.135756 0)
(-0.255761 0.120675 0)
(-0.256175 0.105793 0)
(-0.256805 0.0910665 0)
(-0.257643 0.0764103 0)
(-0.258561 0.0617652 0)
(-0.259522 0.047071 0)
(-0.260416 0.0323047 0)
(-0.261226 0.0174476 0)
(-0.261886 0.00251107 0)
(-0.26241 -0.012495 0)
(-0.262779 -0.0275432 0)
(-0.263043 -0.0426145 0)
(-0.263229 -0.057686 0)
(-0.263427 -0.0727518 0)
(-0.263718 -0.0878193 0)
(-0.264248 -0.102926 0)
(-0.265164 -0.118149 0)
(-0.266681 -0.133614 0)
(-0.269011 -0.149506 0)
(-0.272381 -0.16606 0)
(-0.276923 -0.183526 0)
(-0.282578 -0.202059 0)
(-0.288881 -0.221549 0)
(-0.294747 -0.241328 0)
(-0.298248 -0.259839 0)
(-0.296559 -0.274332 0)
(-0.286255 -0.280834 0)
(-0.264107 -0.274688 0)
(-0.228522 -0.251892 0)
(-0.181239 -0.211436 0)
(-0.1285 -0.157648 0)
(-0.0798173 -0.100764 0)
(-0.043318 -0.0521044 0)
(-0.0204815 -0.0173738 0)
(-0.0077689 0.00462929 0)
(-0.0016315 0.016617 0)
(0.000675073 0.020774 0)
(0.000814761 0.0180116 0)
(0.000233346 0.00844112 0)
(-0.00192376 0.0121274 0)
(-0.0105733 0.0311678 0)
(-0.0234988 0.048635 0)
(-0.0386158 0.0687363 0)
(-0.0569407 0.0923397 0)
(-0.0775426 0.118981 0)
(-0.100609 0.146957 0)
(-0.124583 0.174346 0)
(-0.148663 0.19887 0)
(-0.171066 0.218612 0)
(-0.190958 0.232187 0)
(-0.207216 0.239059 0)
(-0.219732 0.239427 0)
(-0.228386 0.23415 0)
(-0.233885 0.224467 0)
(-0.23682 0.21176 0)
(-0.238177 0.197262 0)
(-0.238581 0.18195 0)
(-0.238736 0.166453 0)
(-0.238924 0.151122 0)
(-0.239437 0.13607 0)
(-0.240255 0.121289 0)
(-0.241415 0.106683 0)
(-0.242768 0.0921552 0)
(-0.244267 0.077605 0)
(-0.245761 0.0629722 0)
(-0.247207 0.0482102 0)
(-0.248495 0.0333127 0)
(-0.249613 0.0182823 0)
(-0.250495 0.00314874 0)
(-0.251163 -0.0120577 0)
(-0.25159 -0.0272921 0)
(-0.251823 -0.042516 0)
(-0.251873 -0.0576885 0)
(-0.251815 -0.072781 0)
(-0.2517 -0.0877769 0)
(-0.251641 -0.102681 0)
(-0.251749 -0.117533 0)
(-0.252204 -0.132415 0)
(-0.253207 -0.14748 0)
(-0.255031 -0.162951 0)
(-0.257949 -0.179147 0)
(-0.2622 -0.196415 0)
(-0.267829 -0.215058 0)
(-0.274463 -0.235066 0)
(-0.281031 -0.255793 0)
(-0.285465 -0.275477 0)
(-0.284636 -0.290849 0)
(-0.27462 -0.297067 0)
(-0.251725 -0.288363 0)
(-0.214156 -0.259958 0)
(-0.164333 -0.211135 0)
(-0.110157 -0.14875 0)
(-0.0631031 -0.0867043 0)
(-0.0309954 -0.0381779 0)
(-0.0126338 -0.00634839 0)
(-0.00341 0.0117091 0)
(0.000309391 0.0193839 0)
(0.000877868 0.0183291 0)
(0.000291959 0.00906282 0)
(-0.00225758 0.0182507 0)
(-0.0120274 0.042837 0)
(-0.0262755 0.063393 0)
(-0.0425509 0.0861131 0)
(-0.0618685 0.11233 0)
(-0.0829868 0.141164 0)
(-0.105973 0.170502 0)
(-0.129031 0.198007 0)
(-0.151383 0.2213 0)
(-0.171282 0.238562 0)
(-0.188156 0.248766 0)
(-0.201124 0.251812 0)
(-0.210449 0.248403 0)
(-0.216295 0.239816 0)
(-0.219629 0.227589 0)
(-0.221126 0.213189 0)
(-0.221772 0.197789 0)
(-0.222059 0.182185 0)
(-0.222542 0.166801 0)
(-0.223323 0.151791 0)
(-0.224564 0.137119 0)
(-0.226126 0.122675 0)
(-0.22799 0.108314 0)
(-0.229963 0.0939188 0)
(-0.231996 0.0793944 0)
(-0.23393 0.0646932 0)
(-0.23574 0.0497897 0)
(-0.237318 0.0346958 0)
(-0.238667 0.0194341 0)
(-0.239726 0.00405 0)
(-0.24052 -0.0114097 0)
(-0.241023 -0.0268878 0)
(-0.241279 -0.0423309 0)
(-0.241292 -0.057687 0)
(-0.241123 -0.0729114 0)
(-0.240804 -0.0879727 0)
(-0.24042 -0.102852 0)
(-0.240042 -0.11756 0)
(-0.239802 -0.132134 0)
(-0.239848 -0.146678 0)
(-0.240409 -0.161351 0)
(-0.241762 -0.176439 0)
(-0.244248 -0.192316 0)
(-0.248187 -0.209469 0)
(-0.253721 -0.228316 0)
(-0.26056 -0.248974 0)
(-0.267576 -0.270742 0)
(-0.272519 -0.291528 0)
(-0.27182 -0.307323 0)
(-0.261087 -0.312125 0)
(-0.236194 -0.298958 0)
(-0.195596 -0.262381 0)
(-0.142934 -0.2031 0)
(-0.0885779 -0.131891 0)
(-0.0456862 -0.0675872 0)
(-0.0198017 -0.0223125 0)
(-0.00636577 0.00420444 0)
(-0.000554704 0.016908 0)
(0.000778467 0.0183717 0)
(0.000329318 0.00973689 0)
(-0.00250624 0.0251054 0)
(-0.0131212 0.0555789 0)
(-0.0283396 0.0791747 0)
(-0.045368 0.104295 0)
(-0.0651788 0.132742 0)
(-0.0862485 0.163187 0)
(-0.108565 0.193149 0)
(-0.13018 0.219973 0)
(-0.15042 0.241315 0)
(-0.167648 0.255563 0)
(-0.181589 0.262141 0)
(-0.191628 0.261424 0)
(-0.198366 0.254613 0)
(-0.20218 0.243329 0)
(-0.204189 0.229284 0)
(-0.205036 0.213901 0)
(-0.205622 0.198196 0)
(-0.20626 0.182734 0)
(-0.207353 0.167728 0)
(-0.208844 0.153157 0)
(-0.210802 0.138877 0)
(-0.213017 0.124716 0)
(-0.21545 0.110513 0)
(-0.217894 0.0961532 0)
(-0.220314 0.0815606 0)
(-0.222561 0.0667064 0)
(-0.224626 0.051588 0)
(-0.22641 0.0362341 0)
(-0.227928 0.0206853 0)
(-0.22912 0.00499968 0)
(-0.230019 -0.0107612 0)
(-0.230594 -0.0265302 0)
(-0.230892 -0.0422415 0)
(-0.230909 -0.0578348 0)
(-0.230705 -0.0732534 0)
(-0.230295 -0.0884581 0)
(-0.229752 -0.103413 0)
(-0.229119 -0.118115 0)
(-0.228489 -0.132568 0)
(-0.227957 -0.146835 0)
(-0.227684 -0.161012 0)
(-0.227884 -0.175309 0)
(-0.228864 -0.190032 0)
(-0.231009 -0.205672 0)
(-0.234711 -0.22281 0)
(-0.240211 -0.24204 0)
(-0.24722 -0.263537 0)
(-0.254547 -0.286479 0)
(-0.259562 -0.308226 0)
(-0.258241 -0.323675 0)
(-0.245565 -0.325376 0)
(-0.217324 -0.304934 0)
(-0.172634 -0.257052 0)
(-0.117479 -0.185276 0)
(-0.0652371 -0.10722 0)
(-0.0296152 -0.0449668 0)
(-0.0107521 -0.00679652 0)
(-0.00203787 0.0128216 0)
(0.000477275 0.0179084 0)
(0.000338222 0.0103957 0)
(-0.00265623 0.032508 0)
(-0.0138094 0.0691391 0)
(-0.0296202 0.0957024 0)
(-0.0469889 0.122972 0)
(-0.0668094 0.153238 0)
(-0.0873315 0.184715 0)
(-0.108506 0.21463 0)
(-0.128324 0.240111 0)
(-0.146271 0.258972 0)
(-0.160871 0.269902 0)
(-0.172158 0.272835 0)
(-0.179767 0.268628 0)
(-0.184574 0.258935 0)
(-0.187074 0.245607 0)
(-0.18843 0.230404 0)
(-0.189177 0.214599 0)
(-0.19008 0.198995 0)
(-0.191271 0.183913 0)
(-0.193021 0.169381 0)
(-0.195159 0.155241 0)
(-0.197702 0.141287 0)
(-0.200406 0.127317 0)
(-0.203237 0.113179 0)
(-0.205997 0.0987733 0)
(-0.208672 0.0840487 0)
(-0.211123 0.0689942 0)
(-0.213359 0.0536274 0)
(-0.215288 0.0379892 0)
(-0.216933 0.0221355 0)
(-0.218233 0.00613289 0)
(-0.219226 -0.00994412 0)
(-0.219877 -0.0260213 0)
(-0.220235 -0.0420212 0)
(-0.220292 -0.0578784 0)
(-0.220103 -0.0735256 0)
(-0.219682 -0.0889207 0)
(-0.219092 -0.104016 0)
(-0.218359 -0.118805 0)
(-0.217557 -0.133269 0)
(-0.21674 -0.14745 0)
(-0.216013 -0.16139 0)
(-0.215514 -0.175236 0)
(-0.215464 -0.189188 0)
(-0.216194 -0.203651 0)
(-0.218125 -0.219174 0)
(-0.221744 -0.236528 0)
(-0.227312 -0.256417 0)
(-0.234567 -0.27907 0)
(-0.24202 -0.303344 0)
(-0.246659 -0.32571 0)
(-0.243689 -0.339566 0)
(-0.227713 -0.335505 0)
(-0.194565 -0.304066 0)
(-0.145234 -0.241123 0)
(-0.088935 -0.156637 0)
(-0.0427047 -0.0763765 0)
(-0.0166172 -0.0223985 0)
(-0.00425496 0.00647007 0)
(-1.91098e-05 0.0166154 0)
(0.000315956 0.010932 0)
(-0.00267909 0.0401422 0)
(-0.0140118 0.0830586 0)
(-0.0300102 0.11245 0)
(-0.0473088 0.14154 0)
(-0.0666959 0.173149 0)
(-0.0862596 0.205079 0)
(-0.105956 0.234352 0)
(-0.123792 0.257981 0)
(-0.139445 0.27404 0)
(-0.151629 0.28158 0)
(-0.160663 0.281072 0)
(-0.166393 0.273821 0)
(-0.169885 0.26185 0)
(-0.171663 0.247114 0)
(-0.172847 0.231314 0)
(-0.173822 0.215504 0)
(-0.175208 0.200255 0)
(-0.17698 0.185659 0)
(-0.179313 0.171602 0)
(-0.181964 0.157831 0)
(-0.184932 0.144114 0)
(-0.187968 0.130245 0)
(-0.191057 0.116095 0)
(-0.194015 0.101582 0)
(-0.19685 0.0866798 0)
(-0.199435 0.0713912 0)
(-0.20179 0.0557507 0)
(-0.203827 0.0398076 0)
(-0.205572 0.0236306 0)
(-0.206965 0.00729346 0)
(-0.208042 -0.00911712 0)
(-0.208768 -0.0255204 0)
(-0.20919 -0.0418267 0)
(-0.209297 -0.0579662 0)
(-0.209147 -0.0738603 0)
(-0.208746 -0.0894661 0)
(-0.208158 -0.104727 0)
(-0.207404 -0.119637 0)
(-0.206546 -0.134167 0)
(-0.205619 -0.148353 0)
(-0.204692 -0.162204 0)
(-0.203844 -0.175827 0)
(-0.20321 -0.189329 0)
(-0.203022 -0.203009 0)
(-0.203616 -0.217283 0)
(-0.205508 -0.23289 0)
(-0.209197 -0.250722 0)
(-0.215044 -0.271673 0)
(-0.222561 -0.295859 0)
(-0.229993 -0.321534 0)
(-0.2335 -0.343805 0)
(-0.227698 -0.353847 0)
(-0.206656 -0.340209 0)
(-0.167363 -0.29277 0)
(-0.113626 -0.211914 0)
(-0.0596797 -0.117704 0)
(-0.0240066 -0.044191 0)
(-0.00732552 -0.00270146 0)
(-0.000718535 0.014125 0)
(0.000270825 0.0112825 0)
(-0.00258236 0.0477619 0)
(-0.013749 0.0970478 0)
(-0.0295503 0.129157 0)
(-0.0464101 0.15977 0)
(-0.064988 0.192302 0)
(-0.0832842 0.224208 0)
(-0.10129 0.25239 0)
(-0.117093 0.27384 0)
(-0.130569 0.286964 0)
(-0.140633 0.291215 0)
(-0.147846 0.287595 0)
(-0.152207 0.277797 0)
(-0.154883 0.26411 0)
(-0.156358 0.248486 0)
(-0.157656 0.232488 0)
(-0.159001 0.216918 0)
(-0.160881 0.202124 0)
(-0.163151 0.188008 0)
(-0.165926 0.174357 0)
(-0.168929 0.160859 0)
(-0.172164 0.147285 0)
(-0.175391 0.133439 0)
(-0.178621 0.119221 0)
(-0.181685 0.104564 0)
(-0.18461 0.0894641 0)
(-0.187276 0.0739324 0)
(-0.189713 0.058016 0)
(-0.19183 0.0417688 0)
(-0.19366 0.0252705 0)
(-0.195137 0.00859954 0)
(-0.196299 -0.00814522 0)
(-0.197107 -0.0248781 0)
(-0.197608 -0.0414968 0)
(-0.197788 -0.0579279 0)
(-0.197703 -0.0740813 0)
(-0.197358 -0.0899141 0)
(-0.196815 -0.105359 0)
(-0.196094 -0.120417 0)
(-0.195253 -0.135047 0)
(-0.194319 -0.149294 0)
(-0.193345 -0.163145 0)
(-0.192377 -0.176696 0)
(-0.191486 -0.189988 0)
(-0.190814 -0.203236 0)