/*--------------------------------*- C++ -*----------------------------------*\
| =========                 |                                                 |
| \\      /  F ield         | OpenFOAM: The Open Source CFD Toolbox           |
|  \\    /   O peration     | Version:  2406                                  |
|   \\  /    A nd           | Website:  www.openfoam.com                      |
|    \\/     M anipulation  |                                                 |
\*---------------------------------------------------------------------------*/
FoamFile
{
    version     2.0;
    format      ascii;
    arch        "LSB;label=32;scalar=64";
    class       volVectorField;
    location    "38.4";
    object      U;
}
// * * * * * * * * * * * * * * * * * * * * * * * * * * * * * * * * * * * * * //

dimensions      [0 1 -1 0 0 0 0];

internalField   nonuniform List<vector> 
3600
(
(-1.9495e-06 -9.06343e-06 0)
(0.000511725 -0.000252558 0)
(0.00153443 -0.000377625 0)
(0.00266851 -0.000394962 0)
(0.003744 -0.000320074 0)
(0.00452266 -0.000219328 0)
(0.00504083 -0.000124271 0)
(0.00528264 -6.25467e-05 0)
(0.00537407 -3.37191e-05 0)
(0.00534606 -2.94996e-05 0)
(0.0052603 -3.18988e-05 0)
(0.00508112 -2.58245e-05 0)
(0.00477471 -1.46036e-08 0)
(0.0042533 5.03554e-05 0)
(0.00344157 0.000127011 0)
(0.00224361 0.000230947 0)
(0.000577172 0.000364132 0)
(-0.00164555 0.000526448 0)
(-0.00449637 0.000710739 0)
(-0.00803831 0.000904899 0)
(-0.012306 0.00110208 0)
(-0.0172963 0.0013072 0)
(-0.0229457 0.00152913 0)
(-0.0291207 0.00176383 0)
(-0.0356087 0.00198312 0)
(-0.0421228 0.00213873 0)
(-0.0483156 0.0021772 0)
(-0.0538056 0.00205554 0)
(-0.0582081 0.00175038 0)
(-0.061166 0.00126044 0)
(-0.0623763 0.000604629 0)
(-0.0616125 -0.000180969 0)
(-0.0587439 -0.00104632 0)
(-0.0537509 -0.00193008 0)
(-0.0467404 -0.0027628 0)
(-0.0379536 -0.00347075 0)
(-0.0277713 -0.00398195 0)
(-0.0167021 -0.00423393 0)
(-0.00536352 -0.0041837 0)
(0.0055668 -0.0038181 0)
(0.015404 -0.00316225 0)
(0.0235422 -0.00228342 0)
(0.0295192 -0.00128562 0)
(0.0331008 -0.000295759 0)
(0.0342962 0.000562437 0)
(0.0333784 0.00119405 0)
(0.0308003 0.00155874 0)
(0.0271389 0.00167287 0)
(0.0229488 0.00159947 0)
(0.0187223 0.00141428 0)
(0.0147784 0.00118603 0)
(0.0113298 0.000956772 0)
(0.00841771 0.000753098 0)
(0.00606139 0.000581221 0)
(0.00415868 0.000448768 0)
(0.00267768 0.000343614 0)
(0.00149421 0.000263437 0)
(0.000636831 0.000165871 0)
(7.97802e-05 5.38368e-05 0)
(-7.86713e-05 -8.45676e-05 0)
(0.000213742 -0.000491924 0)
(0.00152042 -0.00156786 0)
(0.00365486 -0.00208472 0)
(0.00589395 -0.00210815 0)
(0.00795939 -0.00173109 0)
(0.00943567 -0.00119267 0)
(0.0103338 -0.000647794 0)
(0.0105955 -0.00020755 0)
(0.0103734 0.000112812 0)
(0.00968373 0.000355408 0)
(0.00856949 0.000598042 0)
(0.00691909 0.000919533 0)
(0.00460258 0.00137644 0)
(0.00140333 0.0020001 0)
(-0.00288197 0.00279926 0)
(-0.00847362 0.00376999 0)
(-0.0155471 0.0048944 0)
(-0.0242403 0.00614422 0)
(-0.0345935 0.00748091 0)
(-0.0465181 0.00885182 0)
(-0.0597476 0.0101725 0)
(-0.0738478 0.0113201 0)
(-0.0882468 0.0121495 0)
(-0.102304 0.0125236 0)
(-0.115375 0.012338 0)
(-0.126875 0.0115341 0)
(-0.136311 0.0100994 0)
(-0.143296 0.00806436 0)
(-0.147544 0.0054942 0)
(-0.148864 0.00248188 0)
(-0.147147 -0.000857674 0)
(-0.142364 -0.00439012 0)
(-0.134563 -0.00796329 0)
(-0.123875 -0.011407 0)
(-0.110525 -0.0145358 0)
(-0.0948427 -0.0171532 0)
(-0.0772716 -0.0190637 0)
(-0.0583736 -0.0200892 0)
(-0.0388259 -0.0200944 0)
(-0.0193918 -0.0190128 0)
(-0.000891314 -0.0168744 0)
(0.0158712 -0.0138212 0)
(0.0301572 -0.0101074 0)
(0.0413925 -0.00607717 0)
(0.0491985 -0.00211746 0)
(0.0534775 0.00139868 0)
(0.0543821 0.00418179 0)
(0.0523604 0.0060667 0)
(0.0480358 0.00704447 0)
(0.0421996 0.00723344 0)
(0.0355976 0.00684485 0)
(0.0289356 0.00610273 0)
(0.0226613 0.00521373 0)
(0.0171166 0.00431416 0)
(0.0123525 0.00350404 0)
(0.00844084 0.00279484 0)
(0.00523147 0.00219081 0)
(0.00278845 0.00156418 0)
(0.00100762 0.000900288 0)
(0.000103537 0.000106745 0)
(0.000347008 -0.00147338 0)
(0.00212804 -0.00373004 0)
(0.00487985 -0.00474385 0)
(0.00759352 -0.00465819 0)
(0.00994278 -0.00374974 0)
(0.0114247 -0.00245797 0)
(0.0120442 -0.00111961 0)
(0.011704 6.33133e-05 0)
(0.0105213 0.00105598 0)
(0.00843868 0.00196346 0)
(0.00540355 0.00295316 0)
(0.00118514 0.00420107 0)
(-0.00446796 0.00582628 0)
(-0.0118803 0.00789041 0)
(-0.0213284 0.010391 0)
(-0.0330453 0.013282 0)
(-0.0471113 0.0164666 0)
(-0.0634041 0.0197896 0)
(-0.0815221 0.023011 0)
(-0.100822 0.0258249 0)
(-0.120499 0.0279165 0)
(-0.139722 0.0290357 0)
(-0.157739 0.0290336 0)
(-0.173944 0.0278659 0)
(-0.187885 0.025568 0)
(-0.19926 0.0222287 0)
(-0.207874 0.0179665 0)
(-0.213615 0.0129165 0)
(-0.216421 0.00722267 0)
(-0.216262 0.00103788 0)
(-0.21313 -0.00547453 0)
(-0.207031 -0.0121339 0)
(-0.198 -0.0187368 0)
(-0.186101 -0.0250495 0)
(-0.171459 -0.0308072 0)
(-0.154268 -0.0357157 0)
(-0.134829 -0.0394667 0)
(-0.113555 -0.0417605 0)
(-0.0909992 -0.0423451 0)
(-0.0678338 -0.0410584 0)
(-0.0448416 -0.0378779 0)
(-0.022854 -0.0329512 0)
(-0.00270143 -0.0266103 0)
(0.014883 -0.0193448 0)
(0.0293008 -0.0117469 0)
(0.0401755 -0.00443442 0)
(0.0473265 0.00203678 0)
(0.0508432 0.00723389 0)
(0.051009 0.0109091 0)
(0.0483813 0.0130109 0)
(0.0436311 0.0136937 0)
(0.037589 0.0132541 0)
(0.0309599 0.0120746 0)
(0.0244238 0.0105106 0)
(0.0183247 0.00886292 0)
(0.0129923 0.00728002 0)
(0.00839833 0.00582564 0)
(0.00474021 0.00434346 0)
(0.00189487 0.00274522 0)
(0.000292347 0.000820823 0)
(0.000433896 -0.00267296 0)
(0.00248281 -0.00620261 0)
(0.00545976 -0.00759618 0)
(0.00812899 -0.00716188 0)
(0.0101481 -0.00546783 0)
(0.0109907 -0.00316222 0)
(0.0106759 -0.000760044 0)
(0.00906566 0.00148761 0)
(0.00619526 0.00356295 0)
(0.0018754 0.00566915 0)
(-0.00410132 0.00807659 0)
(-0.0121097 0.0110491 0)
(-0.022499 0.0147318 0)
(-0.0356043 0.0191563 0)
(-0.0515795 0.024221 0)
(-0.0703423 0.0297031 0)
(-0.0914519 0.0352267 0)
(-0.114151 0.040302 0)
(-0.137475 0.0444191 0)
(-0.160456 0.0471772 0)
(-0.182267 0.0483448 0)
(-0.202301 0.0478599 0)
(-0.220157 0.045782 0)
(-0.235604 0.0422446 0)
(-0.248523 0.0374119 0)
(-0.258866 0.0314561 0)
(-0.266618 0.0245415 0)
(-0.271778 0.0168235 0)
(-0.274339 0.00844884 0)
(-0.274283 -0.00043487 0)
(-0.271576 -0.00967116 0)
(-0.266172 -0.0190804 0)
(-0.258019 -0.0284487 0)
(-0.247073 -0.0375137 0)
(-0.233315 -0.0459591 0)
(-0.216777 -0.0534117 0)
(-0.197578 -0.0594557 0)
(-0.175952 -0.0636588 0)
(-0.152287 -0.0656219 0)
(-0.127137 -0.0650389 0)
(-0.101234 -0.061772 0)
(-0.0754415 -0.0559087 0)
(-0.0506968 -0.047798 0)
(-0.0278975 -0.0380271 0)
(-0.0078206 -0.0273532 0)
(0.0089872 -0.016592 0)
(0.0221895 -0.00650584 0)
(0.0316997 0.00227148 0)
(0.0375715 0.00929031 0)
(0.0400819 0.014296 0)
(0.0396175 0.0172624 0)
(0.0368119 0.0183732 0)
(0.0323104 0.0180031 0)
(0.0269026 0.0166125 0)
(0.0211321 0.0146703 0)
(0.0155945 0.0125114 0)
(0.0104602 0.0103201 0)
(0.00613758 0.00799521 0)
(0.00257371 0.00534446 0)
(0.000442538 0.00198103 0)
(0.000488285 -0.00408014 0)
(0.00263439 -0.00889805 0)
(0.0055111 -0.0104595 0)
(0.00770817 -0.0093421 0)
(0.00887793 -0.0065177 0)
(0.00851229 -0.00285554 0)
(0.00664176 0.00096394 0)
(0.00307872 0.00470164 0)
(-0.00226407 0.00840834 0)
(-0.00973608 0.0124229 0)
(-0.0197022 0.0171092 0)
(-0.0326134 0.0227639 0)
(-0.0487594 0.029452 0)
(-0.0682099 0.0370151 0)
(-0.0906266 0.0450286 0)
(-0.115271 0.0528671 0)
(-0.141087 0.0598041 0)
(-0.166961 0.0652107 0)
(-0.191924 0.0686701 0)
(-0.215277 0.0700123 0)
(-0.236576 0.0692544 0)
(-0.255587 0.0665395 0)
(-0.272207 0.0620687 0)
(-0.286421 0.0560656 0)
(-0.298253 0.0487442 0)
(-0.30775 0.0403004 0)
(-0.314961 0.0309041 0)
(-0.319927 0.0207049 0)
(-0.322672 0.00983598 0)
(-0.323196 -0.00157276 0)
(-0.32147 -0.0133846 0)
(-0.317429 -0.0254373 0)
(-0.310977 -0.0375287 0)
(-0.301984 -0.049396 0)
(-0.290305 -0.0607026 0)
(-0.275796 -0.0710261 0)
(-0.258353 -0.0798645 0)
(-0.237954 -0.0866548 0)
(-0.214723 -0.090825 0)
(-0.188982 -0.0918652 0)
(-0.161305 -0.0894316 0)
(-0.132525 -0.0834448 0)
(-0.1037 -0.0741769 0)
(-0.0759944 -0.0622637 0)
(-0.0505278 -0.0486436 0)
(-0.0281788 -0.034398 0)
(-0.00950406 -0.0205695 0)
(0.00531462 -0.00801783 0)
(0.0163082 0.00264167 0)
(0.0237021 0.0110193 0)
(0.0277513 0.0169452 0)
(0.0288986 0.0204605 0)
(0.0276069 0.0218292 0)
(0.0245726 0.0214915 0)
(0.020353 0.0199756 0)
(0.0156737 0.0177611 0)
(0.0108657 0.0151466 0)
(0.00654299 0.0121322 0)
(0.0027905 0.00841452 0)
(0.000487273 0.00342042 0)
(0.000529215 -0.00552723 0)
(0.0026024 -0.0114215 0)
(0.00501202 -0.0127674 0)
(0.00627306 -0.0105322 0)
(0.00605815 -0.00618811 0)
(0.0039232 -0.000812014 0)
(-0.000118299 0.00480508 0)
(-0.00632877 0.0105204 0)
(-0.0149588 0.0165061 0)
(-0.0265006 0.0232322 0)
(-0.0413823 0.031068 0)
(-0.0599128 0.0401766 0)
(-0.0819992 0.0503109 0)
(-0.107094 0.0608752 0)
(-0.134181 0.0709906 0)
(-0.162027 0.0797593 0)
(-0.189449 0.0864633 0)
(-0.215534 0.0907033 0)
(-0.239675 0.0923598 0)
(-0.261533 0.0915278 0)
(-0.280955 0.0884178 0)
(-0.297915 0.0833004 0)
(-0.312457 0.0764529 0)
(-0.324679 0.0681417 0)
(-0.334701 0.0586007 0)
(-0.342656 0.0480318 0)
(-0.34868 0.0365987 0)
(-0.35289 0.0244353 0)
(-0.355385 0.0116484 0)
(-0.356226 -0.001667 0)
(-0.355428 -0.0154186 0)
(-0.352951 -0.0294946 0)
(-0.348694 -0.0437469 0)
(-0.342481 -0.0579638 0)
(-0.334072 -0.0718488 0)
(-0.323163 -0.0849946 0)
(-0.309414 -0.0968746 0)
(-0.292496 -0.106842 0)
(-0.272156 -0.114166 0)
(-0.248313 -0.118099 0)
(-0.22116 -0.117991 0)
(-0.191257 -0.113431 0)
(-0.15958 -0.104404 0)
(-0.127473 -0.0913972 0)
(-0.0964964 -0.0754112 0)
(-0.0681395 -0.0578166 0)
(-0.0435452 -0.0400877 0)
(-0.0232767 -0.0235001 0)
(-0.00739378 -0.00894822 0)
(0.00441991 0.00305249 0)
(0.012531 0.0122722 0)
(0.0173929 0.0186832 0)
(0.0193853 0.0224452 0)
(0.019084 0.0239149 0)
(0.0169695 0.0235768 0)
(0.0137687 0.0219626 0)
(0.00989841 0.0194258 0)
(0.00610542 0.0160528 0)
(0.00262904 0.011436 0)
(0.000454889 0.00485114 0)
(0.000540368 -0.00699491 0)
(0.00231751 -0.0135929 0)
(0.00385361 -0.0142218 0)
(0.00371937 -0.0103755 0)
(0.00162517 -0.00408441 0)
(-0.0027824 0.00341659 0)
(-0.0095579 0.0113055 0)
(-0.0190542 0.0196109 0)
(-0.0316737 0.0286308 0)
(-0.0479217 0.0388701 0)
(-0.0680529 0.0504979 0)
(-0.0919079 0.0632765 0)
(-0.118748 0.076423 0)
(-0.147383 0.0888831 0)
(-0.176444 0.0995786 0)
(-0.204714 0.10773 0)
(-0.231292 0.112921 0)
(-0.255617 0.115078 0)
(-0.277386 0.114339 0)
(-0.296483 0.110983 0)
(-0.312925 0.105336 0)
(-0.326815 0.0977488 0)
(-0.338324 0.0885512 0)
(-0.347661 0.0780451 0)
(-0.35506 0.066483 0)
(-0.360754 0.0540718 0)
(-0.364969 0.0409648 0)
(-0.367899 0.0272744 0)
(-0.369709 0.013073 0)
(-0.370515 -0.00158801 0)
(-0.370387 -0.0166712 0)
(-0.369329 -0.0321294 0)
(-0.367273 -0.0478909 0)
(-0.364063 -0.0638285 0)
(-0.359442 -0.0797358 0)
(-0.353039 -0.0952892 0)
(-0.344372 -0.110023 0)
(-0.332865 -0.1233 0)
(-0.317905 -0.134322 0)
(-0.298924 -0.142158 0)
(-0.275549 -0.145842 0)
(-0.247755 -0.144523 0)
(-0.216041 -0.137675 0)
(-0.181529 -0.125313 0)
(-0.145947 -0.108163 0)
(-0.111394 -0.0876653 0)
(-0.0799414 -0.0657478 0)
(-0.0531021 -0.0443815 0)
(-0.0315472 -0.0251137 0)
(-0.0150909 -0.0088347 0)
(-0.00315103 0.00413105 0)
(0.00499023 0.0137916 0)
(0.00987416 0.0203217 0)
(0.0120929 0.0240497 0)
(0.0120928 0.0253989 0)
(0.0105539 0.0248879 0)
(0.0079255 0.0228591 0)
(0.0050018 0.0194374 0)
(0.00215081 0.0141309 0)
(0.000355009 0.00612104 0)
(0.000499738 -0.00827516 0)
(0.00168476 -0.0149573 0)
(0.00188221 -0.0142539 0)
(-0.000111204 -0.00828171 0)
(-0.00455113 0.000380849 0)
(-0.0116863 0.010432 0)
(-0.0216948 0.0211103 0)
(-0.0349907 0.0326398 0)
(-0.0520261 0.0453488 0)
(-0.0730729 0.059553 0)
(-0.0979223 0.0749443 0)
(-0.125744 0.0906966 0)
(-0.155226 0.105547 0)
(-0.184898 0.118292 0)
(-0.213483 0.128026 0)
(-0.240051 0.134316 0)
(-0.264028 0.137083 0)
(-0.285109 0.136519 0)
(-0.303196 0.132953 0)
(-0.318346 0.126803 0)
(-0.330735 0.118501 0)
(-0.340624 0.108476 0)
(-0.348327 0.0971069 0)
(-0.354175 0.0847184 0)
(-0.358496 0.0715632 0)
(-0.361592 0.0578313 0)
(-0.363731 0.0436455 0)
(-0.365137 0.0290809 0)
(-0.365998 0.0141665 0)
(-0.366454 -0.001094 0)
(-0.366606 -0.016718 0)
(-0.366503 -0.0327223 0)
(-0.366139 -0.049114 0)
(-0.365428 -0.0658627 0)
(-0.364192 -0.0828799 0)
(-0.36212 -0.0999781 0)
(-0.35875 -0.116835 0)
(-0.35344 -0.132944 0)
(-0.345385 -0.147581 0)
(-0.333654 -0.159785 0)
(-0.317308 -0.168401 0)
(-0.29558 -0.172182 0)
(-0.268126 -0.169991 0)
(-0.235283 -0.161085 0)
(-0.198293 -0.145441 0)
(-0.159303 -0.124009 0)
(-0.12111 -0.0987486 0)
(-0.0865201 -0.0722863 0)
(-0.0575952 -0.0472306 0)
(-0.0350757 -0.0254439 0)
(-0.0185492 -0.00775127 0)
(-0.00697782 0.00580908 0)
(0.000602137 0.0155463 0)
(0.00504752 0.0218995 0)
(0.00693685 0.025311 0)
(0.00696012 0.0262855 0)
(0.00560355 0.0251256 0)
(0.00365345 0.0219479 0)
(0.00156838 0.0162083 0)
(0.000240434 0.00706742 0)
(0.000377249 -0.00921274 0)
(0.000618533 -0.0151781 0)
(-0.000984775 -0.0124906 0)
(-0.00523517 -0.00391298 0)
(-0.0123906 0.00752651 0)
(-0.0225904 0.0205685 0)
(-0.036162 0.0345691 0)
(-0.0534702 0.0498685 0)
(-0.0748214 0.0666101 0)
(-0.0999861 0.0846416 0)
(-0.128153 0.103011 0)
(-0.15792 0.120391 0)
(-0.187756 0.135356 0)
(-0.216278 0.146898 0)
(-0.242507 0.154476 0)
(-0.265805 0.158014 0)
(-0.28586 0.157715 0)
(-0.30258 0.153991 0)
(-0.316086 0.147345 0)
(-0.326634 0.138329 0)
(-0.334595 0.127471 0)
(-0.340379 0.115251 0)
(-0.344414 0.102062 0)
(-0.347089 0.0882158 0)
(-0.348761 0.0739291 0)
(-0.349717 0.0593487 0)
(-0.350203 0.044551 0)
(-0.350405 0.0295682 0)
(-0.350481 0.01439 0)
(-0.350549 -0.00101449 0)
(-0.350708 -0.016697 0)
(-0.351028 -0.0327122 0)
(-0.351556 -0.0491169 0)
(-0.352293 -0.0659494 0)
(-0.353184 -0.0832201 0)
(-0.354071 -0.100877 0)
(-0.354661 -0.118774 0)
(-0.354464 -0.136612 0)
(-0.352756 -0.153885 0)
(-0.348547 -0.169806 0)
(-0.340619 -0.18328 0)
(-0.327631 -0.192906 0)
(-0.308359 -0.197106 0)
(-0.282019 -0.194359 0)
(-0.248688 -0.183593 0)
(-0.209638 -0.164648 0)
(-0.16747 -0.138688 0)
(-0.125776 -0.108293 0)
(-0.0882895 -0.0769874 0)
(-0.0576719 -0.0481847 0)
(-0.0347524 -0.0240819 0)
(-0.0186815 -0.00532966 0)
(-0.00801801 0.0084255 0)
(-0.00137324 0.0178828 0)
(0.00221737 0.0236783 0)
(0.00361135 0.0263991 0)
(0.00340113 0.0263487 0)
(0.00236468 0.0236274 0)
(0.00102014 0.0176866 0)
(0.000137782 0.00772091 0)
(0.000144409 -0.0094968 0)
(-0.000940654 -0.0137573 0)
(-0.0047683 -0.00844593 0)
(-0.0115863 0.00314938 0)
(-0.0217163 0.0177276 0)
(-0.0351667 0.0341577 0)
(-0.052381 0.051891 0)
(-0.0734909 0.0711887 0)
(-0.0984561 0.0917486 0)
(-0.126412 0.112778 0)
(-0.156054 0.132763 0)
(-0.185709 0.150172 0)
(-0.213956 0.163754 0)
(-0.239666 0.172874 0)
(-0.262172 0.177371 0)
(-0.281095 0.17749 0)
(-0.296393 0.173696 0)
(-0.308222 0.166622 0)
(-0.316957 0.156935 0)
(-0.323057 0.1453 0)
(-0.327051 0.132292 0)
(-0.329428 0.118389 0)
(-0.330646 0.103945 0)
(-0.33107 0.0892104 0)
(-0.331 0.0743353 0)
(-0.330651 0.0594032 0)
(-0.330193 0.0444362 0)
(-0.329741 0.0294258 0)
(-0.329394 0.0143316 0)
(-0.329223 -0.000896479 0)
(-0.329304 -0.0163244 0)
(-0.329701 -0.0320187 0)
(-0.330487 -0.0480539 0)
(-0.331719 -0.0644987 0)
(-0.333443 -0.0814181 0)
(-0.335651 -0.0988516 0)
(-0.33826 -0.116797 0)
(-0.341037 -0.135163 0)
(-0.343545 -0.153711 0)
(-0.345045 -0.171969 0)
(-0.344451 -0.189138 0)
(-0.340306 -0.204005 0)
(-0.330892 -0.214928 0)
(-0.314478 -0.219936 0)
(-0.289763 -0.217019 0)
(-0.25643 -0.204636 0)
(-0.215711 -0.182383 0)
(-0.170651 -0.151634 0)
(-0.125773 -0.115744 0)
(-0.0858528 -0.0794009 0)
(-0.0542236 -0.0469904 0)
(-0.0315794 -0.0209854 0)
(-0.0165611 -0.00168137 0)
(-0.00716161 0.0118117 0)
(-0.00175969 0.0205196 0)
(0.000909711 0.0253003 0)
(0.00168583 0.0265872 0)
(0.00140417 0.0245179 0)
(0.000642714 0.0186022 0)
(7.80948e-05 0.00811151 0)
(-0.000213389 -0.00886962 0)
(-0.00297268 -0.0103618 0)
(-0.00933196 -0.00187756 0)
(-0.0188806 0.0130413 0)
(-0.0320705 0.0310413 0)
(-0.0487268 0.0511368 0)
(-0.0693196 0.0727583 0)
(-0.0935547 0.0958351 0)
(-0.120947 0.119444 0)
(-0.150058 0.142183 0)
(-0.17936 0.162246 0)
(-0.207191 0.178216 0)
(-0.232412 0.189207 0)
(-0.254176 0.194997 0)
(-0.272135 0.195788 0)
(-0.286193 0.192141 0)
(-0.296623 0.184788 0)
(-0.303847 0.17456 0)
(-0.308466 0.162244 0)
(-0.311068 0.148543 0)
(-0.31224 0.134005 0)
(-0.31245 0.11904 0)
(-0.312092 0.103908 0)
(-0.311429 0.0887709 0)
(-0.310661 0.0736966 0)
(-0.309897 0.0587062 0)
(-0.309222 0.0437765 0)
(-0.308673 0.028872 0)
(-0.308293 0.0139389 0)
(-0.308107 -0.00107463 0)
(-0.308163 -0.0162299 0)
(-0.308508 -0.0315841 0)
(-0.309215 -0.0472038 0)
(-0.31036 -0.063154 0)
(-0.312039 -0.07951 0)
(-0.314331 -0.0963451 0)
(-0.317301 -0.113732 0)
(-0.32094 -0.131712 0)
(-0.325119 -0.150267 0)
(-0.329483 -0.169238 0)
(-0.333362 -0.188231 0)
(-0.335642 -0.206471 0)
(-0.334719 -0.222671 0)
(-0.328544 -0.234952 0)
(-0.314895 -0.240907 0)
(-0.291885 -0.237939 0)
(-0.258729 -0.223901 0)
(-0.216543 -0.198052 0)
(-0.168859 -0.162014 0)
(-0.121242 -0.120183 0)
(-0.0796635 -0.0787341 0)
(-0.0479759 -0.0431571 0)
(-0.0264857 -0.0159639 0)
(-0.0130491 0.0032028 0)
(-0.005249 0.0157824 0)
(-0.00114913 0.0231429 0)
(0.000541623 0.0260646 0)
(0.000854921 0.0248589 0)
(0.000473117 0.0191775 0)
(6.53843e-05 0.0083873 0)
(-0.000697686 -0.00700918 0)
(-0.00540749 -0.00464394 0)
(-0.014468 0.00744102 0)
(-0.0267603 0.0258761 0)
(-0.0429105 0.0474674 0)
(-0.062475 0.0712995 0)
(-0.0858417 0.0966052 0)
(-0.112172 0.122771 0)
(-0.140585 0.148243 0)
(-0.169266 0.171214 0)
(-0.196731 0.1899 0)
(-0.221497 0.20321 0)
(-0.242775 0.2107 0)
(-0.260008 0.212559 0)
(-0.273209 0.209364 0)
(-0.282592 0.201992 0)
(-0.288744 0.191409 0)
(-0.292286 0.178576 0)
(-0.293949 0.164309 0)
(-0.294326 0.149258 0)
(-0.29396 0.133871 0)
(-0.293202 0.118437 0)
(-0.292329 0.103105 0)
(-0.291473 0.0879378 0)
(-0.29073 0.0729336 0)
(-0.290115 0.0580658 0)
(-0.289647 0.0432839 0)
(-0.289308 0.0285415 0)
(-0.289107 0.0137848 0)
(-0.28904 -0.00102949 0)
(-0.289137 -0.0159499 0)
(-0.289427 -0.031017 0)
(-0.289975 -0.0462798 0)
(-0.290848 -0.0617864 0)
(-0.292152 -0.0775995 0)
(-0.293992 -0.0937894 0)
(-0.296498 -0.110446 0)
(-0.299776 -0.127666 0)
(-0.303901 -0.145547 0)
(-0.308827 -0.16414 0)
(-0.314316 -0.183383 0)
(-0.319779 -0.202971 0)
(-0.324143 -0.22218 0)
(-0.325708 -0.239665 0)
(-0.322167 -0.253299 0)
(-0.310831 -0.260202 0)
(-0.289233 -0.257074 0)
(-0.256077 -0.241053 0)
(-0.212375 -0.210996 0)
(-0.162234 -0.168945 0)
(-0.112468 -0.120722 0)
(-0.0702901 -0.0744386 0)
(-0.0397836 -0.0366053 0)
(-0.0203184 -0.00927442 0)
(-0.0089508 0.00882448 0)
(-0.00288557 0.0197187 0)
(-0.000151181 0.0248024 0)
(0.000682837 0.024782 0)
(0.000503982 0.0195664 0)
(9.88679e-05 0.00864482 0)
(-0.00127833 -0.00371611 0)
(-0.00807525 0.00350405 0)
(-0.0198216 0.0194524 0)
(-0.0346899 0.0414494 0)
(-0.0534913 0.0666217 0)
(-0.0754199 0.0939794 0)
(-0.100703 0.122394 0)
(-0.127948 0.150613 0)
(-0.156036 0.176601 0)
(-0.182993 0.19841 0)
(-0.207572 0.214526 0)
(-0.228544 0.22429 0)
(-0.2455 0.227728 0)
(-0.258203 0.22545 0)
(-0.267049 0.218409 0)
(-0.272534 0.20775 0)
(-0.275477 0.19459 0)
(-0.276578 0.179908 0)
(-0.276573 0.164448 0)
(-0.275952 0.148727 0)
(-0.275134 0.133046 0)
(-0.274315 0.11756 0)
(-0.273646 0.102308 0)
(-0.273142 0.0872795 0)
(-0.27282 0.0724232 0)
(-0.272631 0.0576889 0)
(-0.27256 0.0430185 0)
(-0.27256 0.0283694 0)
(-0.272628 0.013698 0)
(-0.272745 -0.00102466 0)
(-0.272933 -0.0158306 0)
(-0.273206 -0.0307419 0)
(-0.273618 -0.045788 0)
(-0.274221 -0.0609955 0)
(-0.275105 -0.0764054 0)
(-0.276365 -0.092067 0)
(-0.278138 -0.108055 0)
(-0.280563 -0.124468 0)
(-0.283803 -0.141436 0)
(-0.287986 -0.159108 0)
(-0.293167 -0.177618 0)
(-0.2992 -0.197003 0)
(-0.305603 -0.217059 0)
(-0.311343 -0.237118 0)
(-0.314669 -0.255762 0)
(-0.313035 -0.270596 0)
(-0.303331 -0.278173 0)
(-0.282528 -0.274406 0)
(-0.248864 -0.255597 0)
(-0.203344 -0.22027 0)
(-0.150878 -0.171196 0)
(-0.0997879 -0.116308 0)
(-0.0584783 -0.0660351 0)
(-0.0305559 -0.0274437 0)
(-0.0139292 -0.00138025 0)
(-0.00493682 0.0145957 0)
(-0.000743932 0.0227306 0)
(0.000705565 0.0244043 0)
(0.000656598 0.0199429 0)
(0.000161256 0.00900517 0)
(-0.00191418 0.00116461 0)
(-0.010796 0.0141151 0)
(-0.0250542 0.0340408 0)
(-0.0421833 0.0595149 0)
(-0.0631542 0.0880783 0)
(-0.0867302 0.11849 0)
(-0.112961 0.14916 0)
(-0.139984 0.178232 0)
(-0.166636 0.203422 0)
(-0.19096 0.222884 0)
(-0.212056 0.23554 0)
(-0.228978 0.241209 0)
(-0.241729 0.24041 0)
(-0.250395 0.234167 0)
(-0.255717 0.223763 0)
(-0.258375 0.210514 0)
(-0.259296 0.195564 0)
(-0.259131 0.1798 0)
(-0.258518 0.16381 0)
(-0.257779 0.147938 0)
(-0.257186 0.132334 0)
(-0.256789 0.11703 0)
(-0.256639 0.101988 0)
(-0.256668 0.0871492 0)
(-0.256856 0.0724422 0)
(-0.25712 0.0578129 0)
(-0.25744 0.0432096 0)
(-0.25776 0.0286007 0)
(-0.258079 0.0139561 0)
(-0.258376 -0.000739172 0)
(-0.258672 -0.0155032 0)
(-0.258975 -0.0303442 0)
(-0.259328 -0.0452769 0)
(-0.259766 -0.0603117 0)
(-0.260358 -0.0754706 0)
(-0.261174 -0.0907801 0)
(-0.262323 -0.106289 0)
(-0.263925 -0.122069 0)
(-0.266149 -0.138232 0)
(-0.269174 -0.154938 0)
(-0.273197 -0.17239 0)
(-0.278343 -0.190808 0)
(-0.284576 -0.210335 0)
(-0.291497 -0.230869 0)
(-0.298117 -0.251773 0)
(-0.302604 -0.271525 0)
(-0.302173 -0.287349 0)
(-0.293291 -0.295138 0)
(-0.272417 -0.289848 0)
(-0.237445 -0.266939 0)
(-0.18961 -0.224763 0)
(-0.135033 -0.167535 0)
(-0.0838508 -0.106195 0)
(-0.045293 -0.0536664 0)
(-0.0213231 -0.0164098 0)
(-0.00807648 0.00689276 0)
(-0.00169864 0.0194564 0)
(0.000673321 0.0236205 0)
(0.000828833 0.0203241 0)
(0.000233779 0.0094993 0)
(-0.00253656 0.00760664 0)
(-0.0133283 0.0269728 0)
(-0.029759 0.0508263 0)
(-0.0486956 0.0795298 0)
(-0.0712238 0.111081 0)
(-0.0956533 0.143839 0)
(-0.121895 0.175751 0)
(-0.147753 0.204481 0)
(-0.172188 0.227746 0)
(-0.193376 0.243985 0)
(-0.210819 0.252644 0)
(-0.223867 0.254043 0)
(-0.232936 0.249196 0)
(-0.238384 0.239491 0)
(-0.241209 0.226444 0)
(-0.242144 0.211402 0)
(-0.242102 0.195425 0)
(-0.241586 0.179216 0)
(-0.241086 0.163174 0)
(-0.240745 0.147464 0)
(-0.240707 0.132107 0)
(-0.240908 0.11705 0)
(-0.241345 0.10221 0)
(-0.241904 0.0875098 0)
(-0.242555 0.0728799 0)
(-0.24321 0.0582745 0)
(-0.243854 0.0436565 0)
(-0.244434 0.0290084 0)
(-0.24496 0.0143142 0)
(-0.24541 -0.000428381 0)
(-0.24581 -0.0152259 0)
(-0.246162 -0.0300758 0)
(-0.246506 -0.0449825 0)
(-0.246863 -0.0599456 0)
(-0.247288 -0.0749739 0)
(-0.247824 -0.0900774 0)
(-0.24855 -0.105282 0)
(-0.249547 -0.12063 0)
(-0.250946 -0.136196 0)
(-0.252905 -0.152104 0)
(-0.255637 -0.168541 0)
(-0.259374 -0.185772 0)
(-0.26433 -0.204101 0)
(-0.270555 -0.223795 0)
(-0.277738 -0.244841 0)
(-0.284895 -0.266626 0)
(-0.29007 -0.287408 0)
(-0.290177 -0.303919 0)
(-0.281226 -0.311139 0)
(-0.259227 -0.302964 0)
(-0.221925 -0.273977 0)
(-0.171259 -0.222931 0)
(-0.11511 -0.15658 0)
(-0.065748 -0.0900837 0)
(-0.0321026 -0.0381466 0)
(-0.0130424 -0.00451045 0)
(-0.00348841 0.0143838 0)
(0.000320272 0.0221892 0)
(0.000907585 0.020648 0)
(0.000295054 0.0101314 0)
(-0.00308866 0.0154889 0)
(-0.0154941 0.0417929 0)
(-0.0336542 0.069421 0)
(-0.0538706 0.101006 0)
(-0.0772925 0.135013 0)
(-0.101806 0.169306 0)
(-0.127257 0.201438 0)
(-0.151261 0.22877 0)
(-0.173026 0.249237 0)
(-0.19093 0.26168 0)
(-0.204888 0.266128 0)
(-0.214542 0.263395 0)
(-0.220675 0.25496 0)
(-0.223833 0.242472 0)
(-0.225142 0.22755 0)
(-0.225271 0.211447 0)
(-0.225031 0.195047 0)
(-0.224732 0.178828 0)
(-0.224714 0.163002 0)
(-0.224962 0.147585 0)
(-0.225539 0.132508 0)
(-0.226307 0.117671 0)
(-0.227247 0.102975 0)
(-0.228228 0.0883471 0)
(-0.229231 0.0737299 0)
(-0.230171 0.0590923 0)
(-0.231049 0.044413 0)
(-0.231817 0.0296875 0)
(-0.232495 0.0149119 0)
(-0.233063 9.28693e-05 0)
(-0.233551 -0.0147674 0)
(-0.23396 -0.0296601 0)
(-0.234328 -0.0445833 0)
(-0.234668 -0.0595309 0)
(-0.235027 -0.0745049 0)
(-0.235428 -0.0895068 0)
(-0.235928 -0.104548 0)
(-0.236574 -0.11965 0)
(-0.237453 -0.134854 0)
(-0.23867 -0.150239 0)
(-0.240392 -0.165937 0)
(-0.242837 -0.182172 0)
(-0.246287 -0.199256 0)
(-0.251015 -0.217603 0)
(-0.257167 -0.237578 0)
(-0.264485 -0.259288 0)
(-0.271956 -0.282042 0)
(-0.27742 -0.303804 0)
(-0.277387 -0.320508 0)
(-0.267369 -0.32602 0)
(-0.242991 -0.312906 0)
(-0.202252 -0.275186 0)
(-0.148414 -0.212949 0)
(-0.0919829 -0.137382 0)
(-0.0471525 -0.0688184 0)
(-0.0203261 -0.0210176 0)
(-0.00648126 0.00666468 0)
(-0.000545104 0.0196642 0)
(0.000815367 0.0207059 0)
(0.000332602 0.0108275 0)
(-0.00350522 0.0245263 0)
(-0.017106 0.0581018 0)
(-0.0364671 0.0892405 0)
(-0.0573924 0.12324 0)
(-0.0810488 0.15905 0)
(-0.10497 0.194013 0)
(-0.129018 0.225422 0)
(-0.150752 0.250508 0)
(-0.169695 0.267594 0)
(-0.184455 0.275987 0)
(-0.195349 0.276317 0)
(-0.20227 0.269858 0)
(-0.206291 0.258476 0)
(-0.20803 0.243951 0)
(-0.208633 0.227872 0)
(-0.208617 0.211298 0)
(-0.208652 0.194894 0)
(-0.208853 0.178914 0)
(-0.209441 0.163412 0)
(-0.210288 0.148295 0)
(-0.211415 0.13345 0)
(-0.212651 0.118755 0)
(-0.213982 0.104122 0)
(-0.215279 0.0894878 0)
(-0.216542 0.0748152 0)
(-0.217691 0.0600869 0)
(-0.218742 0.0452971 0)
(-0.219651 0.0304514 0)
(-0.220446 0.0155566 0)
(-0.221106 0.000626629 0)
(-0.221667 -0.0143291 0)
(-0.222126 -0.0292969 0)
(-0.222524 -0.0442697 0)
(-0.222868 -0.0592387 0)
(-0.223202 -0.074202 0)
(-0.223539 -0.0891581 0)
(-0.223924 -0.104112 0)
(-0.224381 -0.119074 0)
(-0.224966 -0.134065 0)
(-0.225733 -0.149131 0)
(-0.226796 -0.164347 0)
(-0.228303 -0.179873 0)
(-0.230501 -0.19595 0)
(-0.233698 -0.212981 0)
(-0.238243 -0.231457 0)
(-0.244341 -0.251907 0)
(-0.251767 -0.274457 0)
(-0.259399 -0.29833 0)
(-0.264753 -0.320881 0)
(-0.263831 -0.337022 0)
(-0.251557 -0.339017 0)
(-0.223422 -0.318104 0)
(-0.178165 -0.268259 0)
(-0.121495 -0.192826 0)
(-0.067219 -0.110091 0)
(-0.03025 -0.0444151 0)
(-0.0109171 -0.00459901 0)
(-0.0020312 0.015499 0)
(0.000518892 0.0202518 0)
(0.000341056 0.0115073 0)
(-0.00375347 0.0343732 0)
(-0.0180822 0.0754342 0)
(-0.038097 0.109798 0)
(-0.0591817 0.145728 0)
(-0.0824824 0.182692 0)
(-0.105278 0.217545 0)
(-0.127516 0.247462 0)
(-0.146801 0.269705 0)
(-0.162995 0.283097 0)
(-0.174941 0.287443 0)
(-0.183315 0.283963 0)
(-0.188202 0.274326 0)
(-0.19086 0.260673 0)
(-0.19188 0.244779 0)
(-0.192341 0.228104 0)
(-0.19257 0.211454 0)
(-0.193094 0.195274 0)
(-0.193866 0.179618 0)
(-0.195027 0.164432 0)
(-0.19638 0.149556 0)
(-0.197937 0.134862 0)
(-0.199519 0.120229 0)
(-0.201131 0.10559 0)
(-0.202651 0.090896 0)
(-0.204099 0.0761281 0)
(-0.205397 0.0612805 0)
(-0.206577 0.0463597 0)
(-0.207593 0.0313789 0)
(-0.208481 0.0163532 0)
(-0.209217 0.00130167 0)
(-0.209842 -0.0137602 0)
(-0.210349 -0.0288152 0)
(-0.21078 -0.0438525 0)
(-0.211141 -0.0588619 0)
(-0.211475 -0.0738395 0)
(-0.211791 -0.0887846 0)
(-0.21213 -0.1037 0)
(-0.212502 -0.118595 0)
(-0.212947 -0.13348 0)
(-0.213486 -0.148383 0)
(-0.214183 -0.163338 0)
(-0.21512 -0.178446 0)
(-0.216465 -0.193855 0)
(-0.218465 -0.209884 0)
(-0.221488 -0.226978 0)
(-0.225934 -0.245809 0)
(-0.232068 -0.26697 0)
(-0.239629 -0.290677 0)
(-0.247266 -0.315756 0)
(-0.252041 -0.33877 0)
(-0.249251 -0.35297 0)
(-0.233338 -0.348771 0)
(-0.199903 -0.316072 0)
(-0.149557 -0.250326 0)
(-0.0914974 -0.161371 0)
(-0.0435498 -0.0768537 0)
(-0.0168013 -0.020508 0)
(-0.00425632 0.00905304 0)
(3.56998e-05 0.0189728 0)
(0.000316432 0.0120726 0)
(-0.00380387 0.044594 0)
(-0.0183534 0.0932137 0)
(-0.0384734 0.130477 0)
(-0.0592068 0.167815 0)
(-0.0816498 0.205286 0)
(-0.102933 0.239338 0)
(-0.123137 0.267175 0)
(-0.139984 0.286213 0)
(-0.153662 0.295842 0)
(-0.163238 0.296362 0)
(-0.169676 0.289541 0)
(-0.173179 0.277345 0)
(-0.17509 0.262071 0)
(-0.175895 0.24537 0)
(-0.176559 0.22851 0)
(-0.177223 0.212028 0)
(-0.178288 0.196171 0)
(-0.179591 0.180841 0)
(-0.18123 0.165917 0)
(-0.182977 0.151203 0)
(-0.184855 0.136583 0)
(-0.18669 0.121947 0)
(-0.188507 0.107249 0)
(-0.190193 0.0924536 0)
(-0.191782 0.0775585 0)
(-0.193202 0.0625656 0)
(-0.194489 0.0474918 0)
(-0.195598 0.0323555 0)
(-0.196568 0.0171796 0)
(-0.197373 0.00198767 0)
(-0.198055 -0.0131987 0)
(-0.198606 -0.028359 0)
(-0.199068 -0.0434779 0)
(-0.199446 -0.0585439 0)
(-0.199782 -0.073551 0)
(-0.200086 -0.0885001 0)
(-0.200397 -0.103394 0)
(-0.200724 -0.118246 0)
(-0.201099 -0.133063 0)
(-0.201527 -0.147872 0)
(-0.202043 -0.162685 0)
(-0.202679 -0.177566 0)
(-0.203528 -0.192584 0)
(-0.204745 -0.207958 0)
(-0.206619 -0.224007 0)
(-0.209555 -0.24136 0)
(-0.214028 -0.260758 0)
(-0.220325 -0.283024 0)
(-0.22805 -0.308171 0)
(-0.235493 -0.334539 0)
(-0.238985 -0.357158 0)
(-0.233101 -0.367206 0)
(-0.211818 -0.352732 0)
(-0.171799 -0.303207 0)
(-0.116663 -0.218451 0)
(-0.06091 -0.119552 0)
(-0.0241883 -0.0427512 0)
(-0.00733659 -0.000213971 0)
(-0.000643654 0.0164877 0)
(0.000270444 0.0124585 0)
(-0.00366255 0.0547683 0)
(-0.01795 0.110961 0)
(-0.0376745 0.150855 0)
(-0.0576271 0.189151 0)
(-0.0788262 0.226596 0)
(-0.0983581 0.259339 0)
(-0.116455 0.284729 0)
(-0.131005 0.300426 0)
(-0.142487 0.306417 0)
(-0.150157 0.303468 0)
(-0.155192 0.293829 0)
(-0.15784 0.279658 0)
(-0.159442 0.263293 0)
(-0.160341 0.246186 0)
(-0.161369 0.229382 0)
(-0.162505 0.213164 0)
(-0.164061 0.197627 0)
(-0.165797 0.182559 0)
(-0.1678 0.167812 0)
(-0.169831 0.15318 0)
(-0.171936 0.138568 0)
(-0.173947 0.123878 0)
(-0.175911 0.109087 0)
(-0.177721 0.0941677 0)
(-0.179421 0.0791307 0)
(-0.180939 0.0639827 0)
(-0.182317 0.0487489 0)
(-0.183508 0.0334515 0)
(-0.184554 0.01812 0)
(-0.185426 0.0027816 0)
(-0.186166 -0.0125364 0)
(-0.186764 -0.0278107 0)
(-0.187264 -0.0430215 0)
(-0.187667 -0.0581563 0)
(-0.188017 -0.0732066 0)
(-0.188323 -0.0881753 0)
(-0.188626 -0.103065 0)
(-0.188932 -0.117894 0)
(-0.189275 -0.132671 0)
(-0.189654 -0.147429 0)
(-0.190093 -0.162169 0)
(-0.190593 -0.176943 0)
(-0.191198 -0.191769 0)
(-0.19198 -0.206788 0)
(-0.193122 -0.222176 0)
(-0.194937 -0.238429 0)
(-0.197904 -0.256214 0)