/*--------------------------------*- C++ -*----------------------------------*\
| =========                 |                                                 |
| \\      /  F ield         | OpenFOAM: The Open Source CFD Toolbox           |
|  \\    /   O peration     | Version:  2406                                  |
|   \\  /    A nd           | Website:  www.openfoam.com                      |
|    \\/     M anipulation  |                                                 |
\*---------------------------------------------------------------------------*/
FoamFile
{
    version     2.0;
    format      ascii;
    arch        "LSB;label=32;scalar=64";
    class       volVectorField;
    location    "21.65";
    object      Uold;
}
// * * * * * * * * * * * * * * * * * * * * * * * * * * * * * * * * * * * * * //

dimensions      [0 1 -1 0 0 0 0];

internalField   nonuniform List<vector> 
14400
(
(-9.28488e-07 9.45265e-07 0)
(2.27048e-05 -1.21117e-05 0)
(7.80447e-05 -2.06533e-05 0)
(0.000147543 -2.54067e-05 0)
(0.00022677 -2.63419e-05 0)
(0.000304674 -2.57354e-05 0)
(0.000380592 -2.39849e-05 0)
(0.000449987 -2.20012e-05 0)
(0.000513756 -1.9853e-05 0)
(0.000570365 -1.78355e-05 0)
(0.000620838 -1.5894e-05 0)
(0.000664703 -1.40893e-05 0)
(0.000702585 -1.2339e-05 0)
(0.000734196 -1.06251e-05 0)
(0.000759668 -8.87637e-06 0)
(0.00077859 -7.06036e-06 0)
(0.000790687 -5.12856e-06 0)
(0.000795369 -3.05562e-06 0)
(0.00079208 -8.11984e-07 0)
(0.000780078 1.62088e-06 0)
(0.000758606 4.2649e-06 0)
(0.000726781 7.14048e-06 0)
(0.000683659 1.02741e-05 0)
(0.000628174 1.3697e-05 0)
(0.000559153 1.74483e-05 0)
(0.000475271 2.15741e-05 0)
(0.000375049 2.61274e-05 0)
(0.000256832 3.11664e-05 0)
(0.000118783 3.67525e-05 0)
(-4.11212e-05 4.29475e-05 0)
(-0.000225077 4.98106e-05 0)
(-0.000435438 5.73952e-05 0)
(-0.00067468 6.5746e-05 0)
(-0.000945367 7.48958e-05 0)
(-0.00125009 8.48623e-05 0)
(-0.00159143 9.56458e-05 0)
(-0.00197183 0.000107226 0)
(-0.0023936 0.000119559 0)
(-0.00285875 0.000132574 0)
(-0.00336893 0.000146174 0)
(-0.00392533 0.000160229 0)
(-0.00452855 0.000174574 0)
(-0.00517853 0.000189013 0)
(-0.00587436 0.000203313 0)
(-0.00661429 0.000217207 0)
(-0.00739552 0.000230394 0)
(-0.0082142 0.000242543 0)
(-0.0090653 0.000253299 0)
(-0.0099426 0.000262283 0)
(-0.0108387 0.000269105 0)
(-0.0117448 0.000273365 0)
(-0.0126513 0.00027467 0)
(-0.013547 0.000272635 0)
(-0.0144201 0.0002669 0)
(-0.0152576 0.00025714 0)
(-0.0160462 0.000243074 0)
(-0.0167716 0.000224482 0)
(-0.0174197 0.000201215 0)
(-0.0179762 0.000173209 0)
(-0.018427 0.000140497 0)
(-0.0187588 0.000103222 0)
(-0.0189592 6.165e-05 0)
(-0.0190171 1.61753e-05 0)
(-0.018923 -3.26699e-05 0)
(-0.0186697 -8.42138e-05 0)
(-0.0182519 -0.000137647 0)
(-0.0176673 -0.000192028 0)
(-0.0169165 -0.000246302 0)
(-0.0160032 -0.000299315 0)
(-0.0149344 -0.00034985 0)
(-0.0137206 -0.000396655 0)
(-0.0123757 -0.000438493 0)
(-0.0109166 -0.000474186 0)
(-0.00936333 -0.000502664 0)
(-0.00773853 -0.00052302 0)
(-0.00606688 -0.000534559 0)
(-0.00437459 -0.000536837 0)
(-0.00268865 -0.000529697 0)
(-0.00103611 -0.000513291 0)
(0.000556753 -0.00048808 0)
(0.00206523 -0.000454829 0)
(0.00346692 -0.000414574 0)
(0.00474246 -0.000368577 0)
(0.00587605 -0.00031827 0)
(0.00685589 -0.000265182 0)
(0.00767446 -0.000210873 0)
(0.00832854 -0.000156855 0)
(0.00881915 -0.000104528 0)
(0.00915122 -5.51213e-05 0)
(0.00933319 -9.65419e-06 0)
(0.0093764 3.10953e-05 0)
(0.00929451 6.65978e-05 0)
(0.00910281 9.65706e-05 0)
(0.00881749 0.000120957 0)
(0.00845507 0.0001399 0)
(0.00803177 0.000153705 0)
(0.00756303 0.000162807 0)
(0.00706317 0.000167721 0)
(0.006545 0.00016902 0)
(0.0060198 0.000167287 0)
(0.00549704 0.000163109 0)
(0.0049846 0.000157028 0)
(0.00448853 0.000149567 0)
(0.00401355 0.000141168 0)
(0.00356268 0.000132264 0)
(0.00313806 0.000123173 0)
(0.00274017 0.000114242 0)
(0.00236934 0.000105644 0)
(0.00202416 9.76519e-05 0)
(0.00170413 9.02337e-05 0)
(0.00140671 8.35727e-05 0)
(0.00113201 7.72736e-05 0)
(0.000877538 7.13889e-05 0)
(0.000646222 6.4855e-05 0)
(0.000437422 5.75971e-05 0)
(0.000259602 4.74348e-05 0)
(0.000115915 3.47136e-05 0)
(2.04525e-05 1.64183e-05 0)
(-2.29102e-05 -1.85947e-06 0)
(-1.54668e-05 -1.525e-05 0)
(1.22318e-05 -2.27675e-05 0)
(8.41601e-05 -8.3939e-05 0)
(0.000212826 -0.000123821 0)
(0.000366161 -0.000146241 0)
(0.000537221 -0.00015238 0)
(0.000706067 -0.000149465 0)
(0.000869518 -0.000140299 0)
(0.00101862 -0.000128414 0)
(0.00115335 -0.000115072 0)
(0.00127049 -0.000101527 0)
(0.00137097 -8.8023e-05 0)
(0.00145369 -7.47511e-05 0)
(0.00151917 -6.1499e-05 0)
(0.00156655 -4.80621e-05 0)
(0.00159544 -3.41136e-05 0)
(0.00160454 -1.93749e-05 0)
(0.00159254 -3.55918e-06 0)
(0.00155755 1.35687e-05 0)
(0.00149754 3.22265e-05 0)
(0.00141006 5.26039e-05 0)
(0.00129249 7.48877e-05 0)
(0.00114189 9.92685e-05 0)
(0.000955056 0.000125958 0)
(0.000728482 0.000155196 0)
(0.000458335 0.000187255 0)
(0.000140408 0.000222443 0)
(-0.000229887 0.000261094 0)
(-0.000657542 0.000303559 0)
(-0.00114794 0.00035019 0)
(-0.00170684 0.000401319 0)
(-0.00234029 0.000457242 0)
(-0.00305459 0.000518189 0)
(-0.00385613 0.000584305 0)
(-0.00475126 0.000655628 0)
(-0.0057461 0.000732066 0)
(-0.00684639 0.000813375 0)
(-0.00805718 0.000899146 0)
(-0.00938267 0.00098878 0)
(-0.0108259 0.00108148 0)
(-0.0123884 0.00117624 0)
(-0.0140701 0.00127183 0)
(-0.0158689 0.00136681 0)
(-0.0177806 0.00145951 0)
(-0.0197984 0.00154808 0)
(-0.021913 0.00163048 0)
(-0.0241121 0.00170452 0)
(-0.026381 0.00176789 0)
(-0.0287016 0.00181823 0)
(-0.0310535 0.00185316 0)
(-0.0334134 0.00187034 0)
(-0.0357556 0.00186754 0)
(-0.0380524 0.00184269 0)
(-0.0402742 0.00179397 0)
(-0.0423903 0.00171983 0)
(-0.044369 0.00161909 0)
(-0.0461785 0.00149099 0)
(-0.047787 0.00133522 0)
(-0.0491639 0.00115197 0)
(-0.0502798 0.000942008 0)
(-0.0511077 0.000706642 0)
(-0.051623 0.000447804 0)
(-0.0518045 0.000168031 0)
(-0.0516346 -0.000129528 0)
(-0.0511003 -0.000441121 0)
(-0.050193 -0.000762425 0)
(-0.0489095 -0.00108859 0)
(-0.047252 -0.0014143 0)
(-0.0452285 -0.00173388 0)
(-0.0428528 -0.00204135 0)
(-0.0401447 -0.00233064 0)
(-0.0371301 -0.00259566 0)
(-0.0338403 -0.00283054 0)
(-0.0303123 -0.00302975 0)
(-0.0265878 -0.00318838 0)
(-0.0227129 -0.00330224 0)
(-0.018737 -0.00336813 0)
(-0.0147125 -0.00338398 0)
(-0.0106927 -0.00334896 0)
(-0.00673165 -0.00326362 0)
(-0.00288234 -0.00312992 0)
(0.000804458 -0.00295117 0)
(0.00428146 -0.00273201 0)
(0.00750606 -0.00247823 0)
(0.0104415 -0.00219658 0)
(0.0130577 -0.0018945 0)
(0.0153322 -0.0015798 0)
(0.0172502 -0.00126043 0)
(0.0188055 -0.000944049 0)
(0.0199994 -0.000637832 0)
(0.0208414 -0.000348138 0)
(0.0213476 -8.03297e-05 0)
(0.0215404 0.000161376 0)
(0.0214471 0.00037399 0)
(0.0210989 0.000555752 0)
(0.0205294 0.00070608 0)
(0.0197737 0.000825452 0)
(0.0188664 0.000915267 0)
(0.0178418 0.000977645 0)
(0.0167315 0.00101527 0)
(0.0155651 0.00103115 0)
(0.0143685 0.00102853 0)
(0.0131646 0.00101062 0)
(0.0119721 0.000980645 0)
(0.0108066 0.000941538 0)
(0.00967976 0.000896109 0)
(0.00860053 0.000846731 0)
(0.00757413 0.000795635 0)
(0.00660444 0.00074439 0)
(0.00569175 0.000694512 0)
(0.0048371 0.000646414 0)
(0.00403799 0.000600644 0)
(0.00329597 0.000555801 0)
(0.00260863 0.000511175 0)
(0.00198268 0.000462584 0)
(0.00141913 0.000408352 0)
(0.000934474 0.000340876 0)
(0.000534254 0.000260911 0)
(0.000243468 0.000160577 0)
(6.20184e-05 6.05849e-05 0)
(-1.88679e-06 -2.28551e-05 0)
(2.09762e-05 -7.84346e-05 0)
(0.000124462 -0.000212659 0)
(0.000299625 -0.000299016 0)
(0.000501285 -0.000345506 0)
(0.000721804 -0.000358408 0)
(0.000936284 -0.000349705 0)
(0.00114058 -0.000326719 0)
(0.00132341 -0.000296156 0)
(0.00148404 -0.000261661 0)
(0.00161815 -0.000225745 0)
(0.00172619 -0.000189375 0)
(0.00180633 -0.000152828 0)
(0.0018585 -0.000115755 0)
(0.00188101 -7.75417e-05 0)
(0.00187253 -3.74216e-05 0)
(0.00183056 5.39409e-06 0)
(0.00175243 5.16534e-05 0)
(0.00163466 0.000102044 0)
(0.00147342 0.000157183 0)
(0.00126428 0.000217647 0)
(0.00100244 0.000283987 0)
(0.00068256 0.000356771 0)
(0.000298905 0.000436601 0)
(-0.000154796 0.000524139 0)
(-0.000685302 0.000620111 0)
(-0.00129992 0.000725303 0)
(-0.00200651 0.000840541 0)
(-0.00281342 0.000966657 0)
(-0.0037295 0.00110444 0)
(-0.00476398 0.0012546 0)
(-0.00592632 0.00141768 0)
(-0.00722604 0.001594 0)
(-0.00867245 0.00178361 0)
(-0.0102744 0.00198623 0)
(-0.01204 0.00220115 0)
(-0.0139762 0.00242722 0)
(-0.0160881 0.00266281 0)
(-0.0183793 0.00290572 0)
(-0.0208506 0.00315324 0)
(-0.0235003 0.00340207 0)
(-0.0263232 0.00364834 0)
(-0.0293109 0.00388769 0)
(-0.032451 0.00411524 0)
(-0.0357271 0.00432573 0)
(-0.0391189 0.00451356 0)
(-0.0426019 0.00467295 0)
(-0.0461476 0.00479804 0)
(-0.049724 0.00488305 0)
(-0.0532958 0.00492245 0)
(-0.0568248 0.00491106 0)
(-0.0602706 0.00484429 0)
(-0.0635914 0.00471821 0)
(-0.0667444 0.00452973 0)
(-0.0696868 0.00427666 0)
(-0.0723763 0.0039579 0)
(-0.0747722 0.00357341 0)
(-0.0768357 0.00312432 0)
(-0.0785307 0.00261298 0)
(-0.0798246 0.00204292 0)
(-0.0806886 0.0014189 0)
(-0.0810983 0.000746856 0)
(-0.081034 3.38925e-05 0)
(-0.0804815 -0.000711793 0)
(-0.0794317 -0.00148097 0)
(-0.0778816 -0.00226346 0)
(-0.0758338 -0.00304825 0)
(-0.0732974 -0.00382367 0)
(-0.0702876 -0.00457749 0)
(-0.0668259 -0.00529719 0)
(-0.0629399 -0.00597016 0)
(-0.0586635 -0.00658399 0)
(-0.0540364 -0.00712673 0)
(-0.0491041 -0.00758729 0)
(-0.043917 -0.00795571 0)
(-0.0385302 -0.00822354 0)
(-0.0330026 -0.00838418 0)
(-0.0273963 -0.00843318 0)
(-0.0217752 -0.00836854 0)
(-0.0162042 -0.00819085 0)
(-0.0107481 -0.00790348 0)
(-0.00546975 -0.00751256 0)
(-0.000429432 -0.00702688 0)
(0.00431698 -0.00645773 0)
(0.00871914 -0.00581854 0)
(0.0127334 -0.00512448 0)
(0.0163239 -0.00439193 0)
(0.0194633 -0.00363792 0)
(0.0221336 -0.0028795 0)
(0.0243263 -0.00213314 0)
(0.0260424 -0.00141413 0)
(0.0272922 -0.00073604 0)
(0.0280947 -0.000110353 0)
(0.0284764 0.000453907 0)
(0.0284708 0.000950314 0)
(0.0281161 0.00137509 0)
(0.0274548 0.00172701 0)
(0.0265312 0.0020072 0)
(0.0253905 0.0022188 0)
(0.024077 0.00236664 0)
(0.0226332 0.0024568 0)
(0.0210985 0.00249622 0)
(0.0195087 0.00249231 0)
(0.017895 0.00245265 0)
(0.0162841 0.0023846 0)
(0.0146976 0.00229522 0)
(0.0131534 0.00219085 0)
(0.0116637 0.00207729 0)
(0.0102386 0.00195907 0)
(0.00888289 0.00184007 0)
(0.00760158 0.00172214 0)
(0.00639479 0.00160644 0)
(0.00526724 0.00149073 0)
(0.00421809 0.0013727 0)
(0.00325781 0.00124454 0)
(0.00238838 0.00110123 0)
(0.0016322 0.000929626 0)
(0.000993925 0.000729309 0)
(0.000509017 0.000490168 0)
(0.000172361 0.000245595 0)
(1.85888e-05 2.36105e-05 0)
(2.59564e-05 -0.000148623 0)
(0.000146811 -0.000365852 0)
(0.000344596 -0.000500171 0)
(0.000565257 -0.000567611 0)
(0.000801027 -0.000583092 0)
(0.0010246 -0.000563398 0)
(0.00123198 -0.000520846 0)
(0.00141083 -0.00046513 0)
(0.0015601 -0.00040239 0)
(0.00167468 -0.000336324 0)
(0.0017544 -0.000268617 0)
(0.00179655 -0.000199537 0)
(0.00180012 -0.000128491 0)
(0.00176226 -5.43059e-05 0)
(0.00168035 2.43912e-05 0)
(0.00155036 0.000109078 0)
(0.00136791 0.000201148 0)
(0.00112758 0.000301928 0)
(0.000823447 0.000412617 0)
(0.000448751 0.00053436 0)
(-3.81864e-06 0.000668253 0)
(-0.000542283 0.000815414 0)
(-0.00117527 0.000977006 0)
(-0.00191208 0.00115427 0)
(-0.00276268 0.00134852 0)
(-0.00373766 0.00156113 0)
(-0.00484823 0.00179348 0)
(-0.00610614 0.00204691 0)
(-0.00752349 0.00232258 0)
(-0.00911261 0.00262141 0)
(-0.0108857 0.00294394 0)
(-0.0128547 0.00329019 0)
(-0.0150305 0.0036596 0)
(-0.017423 0.00405084 0)
(-0.0200401 0.00446176 0)
(-0.0228876 0.00488931 0)
(-0.0259683 0.00532944 0)
(-0.0292816 0.00577711 0)
(-0.0328231 0.00622623 0)
(-0.0365838 0.00666977 0)
(-0.0405503 0.00709976 0)
(-0.0447038 0.00750745 0)
(-0.0490206 0.00788343 0)
(-0.0534721 0.00821788 0)
(-0.0580245 0.00850074 0)
(-0.0626397 0.00872204 0)
(-0.0672759 0.0088721 0)
(-0.0718876 0.00894187 0)
(-0.0764273 0.00892315 0)
(-0.0808456 0.00880888 0)
(-0.0850927 0.00859332 0)
(-0.0891188 0.00827225 0)
(-0.0928754 0.00784308 0)
(-0.0963157 0.00730497 0)
(-0.0993958 0.00665882 0)
(-0.102075 0.00590735 0)
(-0.104316 0.00505501 0)
(-0.106086 0.00410796 0)
(-0.107356 0.00307404 0)
(-0.108104 0.00196261 0)
(-0.10831 0.000784542 0)
(-0.107961 -0.000447907 0)
(-0.107048 -0.00172119 0)
(-0.105567 -0.00302059 0)
(-0.103522 -0.00433031 0)
(-0.100918 -0.00563364 0)
(-0.0977702 -0.00691313 0)
(-0.0940957 -0.00815077 0)
(-0.0899187 -0.00932824 0)
(-0.085269 -0.0104272 0)
(-0.0801816 -0.0114296 0)
(-0.0746972 -0.0123182 0)
(-0.0688618 -0.0130766 0)
(-0.0627267 -0.0136902 0)
(-0.0563475 -0.0141463 0)
(-0.0497844 -0.0144349 0)
(-0.043101 -0.0145486 0)
(-0.0363635 -0.0144836 0)
(-0.0296403 -0.0142397 0)
(-0.0230002 -0.0138207 0)
(-0.0165116 -0.0132342 0)
(-0.0102414 -0.0124918 0)
(-0.0042533 -0.0116091 0)
(0.00139342 -0.0106049 0)
(0.00664497 -0.00950092 0)
(0.0114545 -0.00832119 0)
(0.0157829 -0.00709125 0)
(0.0196 -0.00583734 0)
(0.022885 -0.00458546 0)
(0.0256271 -0.00336059 0)
(0.0278254 -0.00218579 0)
(0.0294888 -0.00108149 0)
(0.0306358 -6.48922e-05 0)
(0.0312931 0.00085051 0)
(0.0314954 0.00165517 0)
(0.0312834 0.00234355 0)
(0.0307026 0.00291405 0)
(0.0298015 0.00336865 0)
(0.0286303 0.00371252 0)
(0.027239 0.00395342 0)
(0.0256762 0.00410119 0)
(0.0239876 0.00416698 0)
(0.0222148 0.00416283 0)
(0.0203954 0.00410091 0)
(0.0185613 0.00399329 0)
(0.0167398 0.00385115 0)
(0.0149521 0.00368487 0)
(0.0132162 0.003503 0)
(0.0115434 0.00331275 0)
(0.0099452 0.00311826 0)
(0.00842611 0.00292203 0)
(0.00699574 0.00272164 0)
(0.00565588 0.00251354 0)
(0.00442144 0.00228694 0)
(0.00329481 0.0020335 0)
(0.00230383 0.00173543 0)
(0.00145066 0.00138974 0)
(0.000782086 0.000983692 0)
(0.000289148 0.000553749 0)
(4.05109e-05 0.000130167 0)
(2.69381e-05 -0.000228433 0)
(0.000151193 -0.000534802 0)
(0.000350949 -0.000716563 0)
(0.000567335 -0.000800484 0)
(0.000791895 -0.000812637 0)
(0.00099642 -0.000774999 0)
(0.00117723 -0.000705523 0)
(0.00132186 -0.000616739 0)
(0.0014292 -0.000517375 0)
(0.00149372 -0.000412106 0)
(0.00151459 -0.000303244 0)
(0.00148817 -0.000190822 0)
(0.00141228 -7.38281e-05 0)
(0.00128266 4.97045e-05 0)
(0.00109502 0.000181959 0)
(0.000843462 0.000325332 0)
(0.000521545 0.00048207 0)
(0.000121576 0.000654354 0)
(-0.000364857 0.000844173 0)
(-0.000947161 0.00105344 0)
(-0.0016355 0.001284 0)
(-0.00244089 0.00153769 0)
(-0.00337515 0.00181642 0)
(-0.00445085 0.00212214 0)
(-0.00568134 0.00245687 0)
(-0.0070806 0.00282264 0)
(-0.00866316 0.00322136 0)
(-0.0104439 0.00365474 0)
(-0.0124379 0.00412412 0)
(-0.0146599 0.00463025 0)
(-0.0171238 0.00517314 0)
(-0.0198426 0.00575185 0)
(-0.0228273 0.00636426 0)
(-0.0260866 0.00700699 0)
(-0.0296259 0.00767517 0)
(-0.0334471 0.00836243 0)
(-0.0375473 0.00906078 0)
(-0.0419188 0.00976069 0)
(-0.0465482 0.0104511 0)
(-0.0514165 0.0111197 0)
(-0.0564985 0.0117529 0)
(-0.0617632 0.0123363 0)
(-0.0671736 0.0128552 0)
(-0.0726879 0.0132946 0)
(-0.0782596 0.0136397 0)
(-0.0838386 0.0138768 0)
(-0.0893722 0.0139931 0)
(-0.0948062 0.0139775 0)
(-0.100086 0.0138206 0)
(-0.105157 0.0135153 0)
(-0.109968 0.0130567 0)
(-0.114467 0.0124422 0)
(-0.118608 0.0116718 0)
(-0.122349 0.0107479 0)
(-0.125648 0.00967502 0)
(-0.128472 0.00845997 0)
(-0.130791 0.00711157 0)
(-0.132576 0.00564056 0)
(-0.133808 0.00405942 0)
(-0.134468 0.00238226 0)
(-0.134543 0.000624698 0)
(-0.134024 -0.00119623 0)
(-0.132906 -0.00306219 0)
(-0.131188 -0.00495359 0)
(-0.128874 -0.00684975 0)
(-0.125971 -0.00872896 0)
(-0.122492 -0.0105687 0)
(-0.118453 -0.0123456 0)
(-0.113875 -0.0140361 0)
(-0.108787 -0.0156165 0)
(-0.103218 -0.0170631 0)
(-0.0972073 -0.0183532 0)
(-0.0907966 -0.0194652 0)
(-0.0840342 -0.0203792 0)
(-0.0769733 -0.0210778 0)
(-0.0696721 -0.0215466 0)
(-0.062193 -0.0217746 0)
(-0.0546024 -0.0217552 0)
(-0.0469696 -0.0214863 0)
(-0.0393658 -0.020971 0)
(-0.0318629 -0.0202174 0)
(-0.0245326 -0.0192391 0)
(-0.0174445 -0.0180546 0)
(-0.0106655 -0.0166873 0)
(-0.00425744 -0.0151648 0)
(0.00172323 -0.0135181 0)
(0.0072272 -0.0117808 0)
(0.0122132 -0.00998817 0)
(0.0166488 -0.00817584 0)
(0.0205111 -0.00637881 0)
(0.0237873 -0.00463036 0)
(0.0264747 -0.00296099 0)
(0.0285805 -0.00139754 0)
(0.0301218 3.7606e-05 0)
(0.0311245 0.00132702 0)
(0.0316227 0.00245857 0)
(0.0316573 0.00342554 0)
(0.0312746 0.00422638 0)
(0.030525 0.00486444 0)
(0.0294608 0.00534729 0)
(0.028135 0.00568612 0)
(0.0265996 0.00589479 0)
(0.0249041 0.00598914 0)
(0.0230947 0.00598601 0)
(0.0212123 0.00590261 0)
(0.0192938 0.00575553 0)
(0.0173695 0.00556045 0)
(0.015466 0.00533083 0)
(0.0136028 0.00507815 0)
(0.0117986 0.00480984 0)
(0.0100639 0.00453052 0)
(0.00841437 0.00423854 0)
(0.0068554 0.00392958 0)
(0.00540707 0.00359072 0)
(0.00407266 0.00321014 0)
(0.0028862 0.00276605 0)
(0.00184831 0.00225076 0)
(0.00101882 0.00164784 0)
(0.000387633 0.000987863 0)
(5.75867e-05 0.000295241 0)
(2.60449e-05 -0.000305858 0)
(0.000143893 -0.000696594 0)
(0.000328316 -0.000918344 0)
(0.000520294 -0.00100993 0)
(0.000710498 -0.00100991 0)
(0.000871635 -0.000945953 0)
(0.00100032 -0.000841769 0)
(0.0010848 -0.000712402 0)
(0.00112389 -0.000568844 0)
(0.00111192 -0.000416326 0)
(0.00104722 -0.000257447 0)
(0.000925178 -9.16663e-05 0)
(0.000742087 8.27263e-05 0)
(0.000492009 0.00026875 0)
(0.000168609 0.000469625 0)
(-0.000236201 0.000688876 0)
(-0.000731354 0.000929803 0)
(-0.00132717 0.00119563 0)
(-0.00203492 0.0014893 0)
(-0.00286701 0.00181369 0)
(-0.00383678 0.00217152 0)
(-0.00495856 0.00256552 0)
(-0.00624755 0.00299842 0)
(-0.00771981 0.00347297 0)
(-0.00939212 0.00399186 0)
(-0.0112818 0.00455768 0)
(-0.0134064 0.00517266 0)
(-0.0157836 0.00583855 0)
(-0.0184306 0.00655631 0)
(-0.0213633 0.00732587 0)
(-0.0245963 0.00814581 0)
(-0.0281416 0.00901308 0)
(-0.0320083 0.00992281 0)
(-0.036201 0.010868 0)
(-0.0407202 0.0118396 0)
(-0.0455603 0.0128263 0)
(-0.0507099 0.0138144 0)
(-0.0561509 0.0147883 0)
(-0.0618585 0.0157307 0)
(-0.0678009 0.0166229 0)
(-0.0739399 0.0174449 0)
(-0.0802314 0.0181767 0)
(-0.086626 0.0187981 0)
(-0.0930705 0.0192899 0)
(-0.0995085 0.0196342 0)
(-0.105882 0.019815 0)
(-0.112134 0.0198187 0)
(-0.118206 0.0196342 0)
(-0.124043 0.0192538 0)
(-0.129593 0.0186724 0)
(-0.134807 0.0178884 0)
(-0.139641 0.0169028 0)
(-0.144055 0.0157197 0)
(-0.148012 0.0143456 0)
(-0.15148 0.0127897 0)
(-0.154432 0.0110629 0)
(-0.156845 0.0091783 0)
(-0.158697 0.00715068 0)
(-0.159973 0.00499633 0)
(-0.160658 0.00273303 0)
(-0.160743 0.000379935 0)
(-0.160218 -0.00204248 0)
(-0.15908 -0.00451241 0)
(-0.157326 -0.00700682 0)
(-0.154957 -0.00950138 0)
(-0.151978 -0.0119706 0)
(-0.148397 -0.0143878 0)
(-0.144226 -0.0167256 0)
(-0.139481 -0.0189556 0)
(-0.134183 -0.0210491 0)
(-0.128359 -0.0229774 0)
(-0.122039 -0.0247123 0)
(-0.115262 -0.0262267 0)
(-0.108072 -0.0274953 0)
(-0.100516 -0.028495 0)
(-0.0926499 -0.0292063 0)
(-0.084535 -0.0296138 0)
(-0.0762363 -0.0297067 0)
(-0.0678239 -0.0294799 0)
(-0.0593708 -0.0289343 0)
(-0.0509524 -0.0280772 0)
(-0.042645 -0.0269225 0)
(-0.0345241 -0.0254905 0)
(-0.0266633 -0.023808 0)
(-0.0191329 -0.0219069 0)
(-0.0119979 -0.0198242 0)
(-0.00531729 -0.0176006 0)
(0.00085758 -0.0152794 0)
(0.00648363 -0.012905 0)
(0.011527 -0.0105221 0)
(0.0159637 -0.00817382 0)
(0.0197795 -0.00590082 0)
(0.0229708 -0.00373994 0)
(0.0255437 -0.00172327 0)
(0.0275142 0.000122682 0)
(0.0289075 0.00177759 0)
(0.0297567 0.00322763 0)
(0.0301025 0.00446558 0)
(0.0299912 0.00549057 0)
(0.0294735 0.00630764 0)
(0.0286027 0.00692708 0)
(0.0274336 0.00736348 0)
(0.0260198 0.00763485 0)
(0.0244136 0.00776143 0)
(0.0226633 0.0077648 0)
(0.020814 0.00766653 0)
(0.0189043 0.00748755 0)
(0.0169697 0.00724656 0)
(0.0150379 0.00695976 0)
(0.0131357 0.00663869 0)
(0.0112805 0.00629088 0)
(0.00949495 0.00591647 0)
(0.007789 0.00551123 0)
(0.00618868 0.00506117 0)
(0.00469919 0.00455126 0)
(0.00336122 0.0039561 0)
(0.00217537 0.00326118 0)
(0.00121428 0.00244406 0)
(0.000468877 0.00152135 0)
(7.14223e-05 0.000504751 0)
(2.34625e-05 -0.000378717 0)
(0.000126576 -0.000843883 0)
(0.000281383 -0.00109493 0)
(0.000432094 -0.0011836 0)
(0.000568536 -0.00116125 0)
(0.000665832 -0.00106153 0)
(0.000720776 -0.000913813 0)
(0.000722991 -0.000735344 0)
(0.000671114 -0.000538991 0)
(0.00055952 -0.000330074 0)
(0.000385528 -0.000111053 0)
(0.000143408 0.000119601 0)
(-0.000172361 0.000364642 0)
(-0.000569691 0.000628461 0)
(-0.00105734 0.000915581 0)
(-0.00164598 0.0012309 0)
(-0.0023474 0.00157897 0)
(-0.00317495 0.00196425 0)
(-0.00414309 0.00239085 0)
(-0.00526756 0.00286271 0)
(-0.00656516 0.0033836 0)
(-0.00805375 0.00395722 0)
(-0.00975207 0.00458716 0)
(-0.0116797 0.00527693 0)
(-0.0138566 0.00602977 0)
(-0.0163033 0.00684854 0)
(-0.0190397 0.00773538 0)
(-0.0220854 0.00869145 0)
(-0.0254583 0.00971653 0)
(-0.0291745 0.0108086 0)
(-0.0332467 0.0119637 0)
(-0.0376841 0.0131751 0)
(-0.0424906 0.0144336 0)
(-0.0476647 0.0157268 0)
(-0.0531981 0.0170398 0)
(-0.0590754 0.0183544 0)
(-0.0652737 0.01965 0)
(-0.0717624 0.0209038 0)
(-0.0785036 0.0220912 0)
(-0.0854525 0.0231867 0)
(-0.0925586 0.0241647 0)
(-0.0997664 0.0249998 0)
(-0.107017 0.0256684 0)
(-0.114251 0.0261486 0)
(-0.121406 0.0264217 0)
(-0.128423 0.026472 0)
(-0.135245 0.0262874 0)
(-0.141818 0.0258597 0)
(-0.148091 0.0251844 0)
(-0.154018 0.0242607 0)
(-0.159559 0.023091 0)
(-0.164676 0.0216811 0)
(-0.169338 0.0200393 0)
(-0.173515 0.0181763 0)
(-0.177183 0.016105 0)
(-0.18032 0.0138398 0)
(-0.182907 0.0113971 0)
(-0.184927 0.00879428 0)
(-0.186365 0.00605039 0)
(-0.187208 0.00318555 0)
(-0.187446 0.000221245 0)
(-0.187069 -0.00281973 0)
(-0.186069 -0.0059132 0)
(-0.184442 -0.00903351 0)
(-0.182184 -0.0121535 0)
(-0.179296 -0.0152446 0)
(-0.175778 -0.0182766 0)
(-0.171638 -0.0212179 0)
(-0.166884 -0.0240358 0)
(-0.161532 -0.0266968 0)
(-0.155601 -0.0291667 0)
(-0.149116 -0.0314116 0)
(-0.142107 -0.033398 0)
(-0.134613 -0.0350944 0)
(-0.126677 -0.0364715 0)
(-0.118351 -0.0375033 0)
(-0.109692 -0.0381683 0)
(-0.100766 -0.0384507 0)
(-0.0916411 -0.0383405 0)
(-0.082394 -0.0378352 0)
(-0.0731032 -0.0369399 0)
(-0.0638501 -0.0356676 0)
(-0.054717 -0.0340394 0)
(-0.0457854 -0.0320842 0)
(-0.0371342 -0.0298381 0)
(-0.0288382 -0.0273433 0)
(-0.0209661 -0.0246474 0)
(-0.0135798 -0.0218014 0)
(-0.00673264 -0.0188587 0)
(-0.000468679 -0.0158733 0)
(0.00517771 -0.0128986 0)
(0.0101824 -0.00998528 0)
(0.0145318 -0.00718051 0)
(0.0182222 -0.00452646 0)
(0.0212604 -0.0020593 0)
(0.0236626 0.000191531 0)
(0.0254538 0.00220399 0)
(0.0266676 0.00396366 0)
(0.0273443 0.00546376 0)
(0.0275307 0.00670489 0)
(0.0272775 0.00769444 0)
(0.0266389 0.0084458 0)
(0.02567 0.00897733 0)
(0.0244264 0.00931114 0)
(0.0229611 0.00947191 0)
(0.0213255 0.00948536 0)
(0.0195651 0.00937717 0)
(0.0177236 0.00917113 0)
(0.015836 0.00888838 0)
(0.0139376 0.00854503 0)
(0.0120528 0.0081521 0)
(0.0102117 0.00771241 0)
(0.00842949 0.00722246 0)
(0.0067389 0.00666811 0)
(0.00514835 0.00603122 0)
(0.00370562 0.00528298 0)
(0.00241323 0.00440035 0)
(0.00135568 0.00335309 0)
(0.000526388 0.00213867 0)
(8.05908e-05 0.000751288 0)
(1.99866e-05 -0.000440454 0)
(0.000102074 -0.000962454 0)
(0.000215226 -0.00122711 0)
(0.0003099 -0.00129903 0)
(0.000375235 -0.00124217 0)
(0.000390319 -0.0010961 0)
(0.000352103 -0.000895445 0)
(0.00025219 -0.000659161 0)
(8.88634e-05 -0.00040136 0)
(-0.000143336 -0.000126835 0)
(-0.000448409 0.000162662 0)
(-0.000833373 0.000470152 0)
(-0.00130595 0.000799853 0)
(-0.00187636 0.00115788 0)
(-0.0025562 0.00155033 0)
(-0.00335908 0.00198372 0)
(-0.00430007 0.00246405 0)
(-0.00539587 0.00299717 0)
(-0.00666449 0.00358847 0)
(-0.00812526 0.00424309 0)
(-0.00979866 0.00496589 0)
(-0.0117062 0.00576151 0)
(-0.01387 0.00663435 0)
(-0.0163131 0.00758845 0)
(-0.0190584 0.00862726 0)
(-0.0221286 0.00975336 0)
(-0.0255453 0.0109681 0)
(-0.0293285 0.012271 0)
(-0.0334955 0.0136595 0)
(-0.0380599 0.0151283 0)
(-0.0430308 0.016669 0)
(-0.0484112 0.0182697 0)
(-0.0541975 0.0199147 0)
(-0.0603787 0.0215849 0)
(-0.0669355 0.0232574 0)
(-0.0738401 0.0249062 0)
(-0.0810566 0.0265026 0)
(-0.0885412 0.0280163 0)
(-0.0962435 0.0294159 0)
(-0.104107 0.03067 0)
(-0.112072 0.0317486 0)
(-0.120075 0.0326235 0)
(-0.128053 0.0332698 0)
(-0.135944 0.0336661 0)
(-0.143688 0.0337953 0)
(-0.151229 0.0336446 0)
(-0.158514 0.0332061 0)
(-0.165496 0.0324757 0)
(-0.172132 0.0314538 0)
(-0.178385 0.0301442 0)
(-0.184221 0.0285539 0)
(-0.189612 0.0266928 0)
(-0.19453 0.0245729 0)
(-0.198953 0.0222082 0)
(-0.20286 0.0196142 0)
(-0.206234 0.0168078 0)
(-0.209057 0.0138072 0)
(-0.211313 0.0106317 0)
(-0.212989 0.00730149 0)
(-0.214072 0.00383823 0)
(-0.214549 0.000264713 0)
(-0.214408 -0.0033949 0)
(-0.213642 -0.0071149 0)
(-0.212239 -0.0108679 0)
(-0.210194 -0.0146248 0)
(-0.207501 -0.0183544 0)
(-0.204156 -0.0220239 0)
(-0.20016 -0.0255982 0)
(-0.195516 -0.0290408 0)
(-0.19023 -0.0323135 0)
(-0.184314 -0.035377 0)
(-0.177785 -0.0381915 0)
(-0.170667 -0.0407174 0)
(-0.162988 -0.042916 0)
(-0.154786 -0.0447509 0)
(-0.146107 -0.0461887 0)
(-0.137003 -0.0472007 0)
(-0.127536 -0.0477637 0)
(-0.117774 -0.0478616 0)
(-0.107794 -0.0474864 0)
(-0.0976773 -0.0466389 0)
(-0.087511 -0.0453295 0)
(-0.0773844 -0.0435785 0)
(-0.0673879 -0.0414155 0)
(-0.0576108 -0.0388796 0)
(-0.048139 -0.0360177 0)
(-0.0390533 -0.0328835 0)
(-0.0304273 -0.0295359 0)
(-0.022326 -0.0260372 0)
(-0.0148047 -0.0224512 0)
(-0.00790817 -0.0188414 0)
(-0.00167035 -0.0152692 0)
(0.00388588 -0.0117923 0)
(0.00874852 -0.00846311 0)
(0.012916 -0.00532793 0)
(0.016397 -0.00242569 0)
(0.0192093 0.000212658 0)
(0.0213797 0.00256462 0)
(0.0229426 0.00461635 0)
(0.0239397 0.00636255 0)
(0.0244179 0.00780607 0)
(0.0244291 0.00895723 0)
(0.0240277 0.0098329 0)
(0.0232701 0.0104553 0)
(0.022212 0.0108505 0)
(0.0209087 0.011047 0)
(0.0194114 0.0110744 0)
(0.0177697 0.0109608 0)
(0.0160259 0.0107319 0)
(0.0142227 0.0104085 0)
(0.0123913 0.0100054 0)
(0.0105694 0.00952875 0)
(0.00877826 0.00897631 0)
(0.00705728 0.00833453 0)
(0.00541939 0.00758237 0)
(0.00391943 0.00668769 0)
(0.00256335 0.00561779 0)
(0.00144555 0.00433311 0)
(0.000562959 0.00280901 0)
(8.63268e-05 0.00101994 0)
(1.55468e-05 -0.000489611 0)
(7.09403e-05 -0.00104638 0)
(0.000131977 -0.00130559 0)
(0.000157612 -0.00134473 0)
(0.000136529 -0.00123976 0)
(5.30918e-05 -0.00103577 0)
(-9.56124e-05 -0.000771986 0)
(-0.000315499 -0.000468375 0)
(-0.000608855 -0.000139556 0)
(-0.000980946 0.000210908 0)
(-0.00143744 0.000582618 0)
(-0.00198687 0.000980644 0)
(-0.00263958 0.00141113 0)
(-0.00340842 0.00188228 0)
(-0.00430826 0.00240208 0)
(-0.00535602 0.00297888 0)
(-0.00657041 0.00362031 0)
(-0.00797179 0.00433375 0)
(-0.00958197 0.00512592 0)
(-0.0114241 0.00600323 0)
(-0.0135222 0.00697155 0)
(-0.0159016 0.00803638 0)
(-0.0185876 0.00920263 0)
(-0.021606 0.0104745 0)
(-0.0249818 0.0118549 0)
(-0.0287391 0.0133455 0)
(-0.0328996 0.0149456 0)
(-0.037482 0.0166519 0)
(-0.0425007 0.0184578 0)
(-0.0479645 0.020353 0)
(-0.0538757 0.0223228 0)
(-0.0602289 0.024348 0)
(-0.06701 0.0264051 0)
(-0.0741961 0.0284662 0)
(-0.0817549 0.0304996 0)
(-0.0896455 0.0324708 0)
(-0.0978188 0.0343433 0)
(-0.106219 0.0360797 0)
(-0.114785 0.0376433 0)
(-0.123453 0.0389991 0)
(-0.132158 0.0401151 0)
(-0.140833 0.0409632 0)
(-0.149417 0.0415198 0)
(-0.157849 0.0417666 0)
(-0.166074 0.0416906 0)
(-0.174043 0.0412836 0)
(-0.18171 0.0405426 0)
(-0.189036 0.0394686 0)
(-0.195985 0.0380668 0)
(-0.202527 0.0363451 0)
(-0.208634 0.0343146 0)
(-0.214283 0.0319883 0)
(-0.219451 0.0293808 0)
(-0.22412 0.0265085 0)
(-0.228271 0.0233887 0)
(-0.23189 0.0200398 0)
(-0.234961 0.0164811 0)
(-0.237469 0.0127329 0)
(-0.239402 0.00881644 0)
(-0.240748 0.00475395 0)
(-0.241493 0.000569002 0)
(-0.241625 -0.00371345 0)
(-0.241135 -0.00806685 0)
(-0.24001 -0.0124628 0)
(-0.238241 -0.0168708 0)
(-0.235817 -0.0212583 0)
(-0.232732 -0.0255901 0)
(-0.228979 -0.0298288 0)
(-0.224552 -0.0339346 0)
(-0.219452 -0.0378653 0)
(-0.21368 -0.041577 0)
(-0.207244 -0.0450244 0)
(-0.200157 -0.0481613 0)
(-0.192437 -0.050942 0)
(-0.184113 -0.0533219 0)
(-0.17522 -0.0552593 0)
(-0.165804 -0.0567164 0)
(-0.155918 -0.0576614 0)
(-0.145627 -0.0580695 0)
(-0.135007 -0.0579248 0)
(-0.124139 -0.0572216 0)
(-0.113115 -0.0559652 0)
(-0.10203 -0.0541725 0)
(-0.0909856 -0.0518725 0)
(-0.0800819 -0.0491053 0)
(-0.0694187 -0.0459217 0)
(-0.0590915 -0.0423815 0)
(-0.049189 -0.0385514 0)
(-0.0397909 -0.0345033 0)
(-0.0309665 -0.0303117 0)
(-0.0227732 -0.0260515 0)
(-0.0152562 -0.0217955 0)
(-0.00844812 -0.0176132 0)
(-0.0023692 -0.0135682 0)
(0.00297182 -0.00971748 0)
(0.00757721 -0.00611 0)
(0.0114592 -0.00278603 0)
(0.0146394 0.0002234 0)
(0.0171476 0.00289681 0)
(0.0190209 0.00522223 0)
(0.0203029 0.00719698 0)
(0.0210426 0.00882712 0)
(0.0212926 0.0101266 0)
(0.0211091 0.0111162 0)
(0.0205485 0.011822 0)
(0.0196685 0.012274 0)
(0.0185239 0.012504 0)
(0.0171693 0.012544 0)
(0.0156525 0.0124234 0)
(0.0140226 0.0121675 0)
(0.0123175 0.0117947 0)
(0.0105818 0.0113148 0)
(0.008843 0.010727 0)
(0.00714736 0.010019 0)
(0.00551317 0.0091669 0)
(0.00400203 0.00813536 0)
(0.00262454 0.00688167 0)
(0.00148272 0.00535633 0)
(0.000577528 0.00351189 0)
(8.82142e-05 0.00130229 0)
(1.03853e-05 -0.00052197 0)
(3.41086e-05 -0.00108591 0)
(3.34867e-05 -0.00131678 0)
(-2.18604e-05 -0.00130444 0)
(-0.000143515 -0.00113607 0)
(-0.000340582 -0.000861576 0)
(-0.000615852 -0.000523811 0)
(-0.000972318 -0.000142871 0)
(-0.00141311 0.000267073 0)
(-0.00194333 0.000704519 0)
(-0.00257075 0.00117118 0)
(-0.00330568 0.00167478 0)
(-0.00416156 0.0022239 0)
(-0.00515423 0.00282921 0)
(-0.00630225 0.00350086 0)
(-0.00762618 0.00424922 0)
(-0.00914871 0.00508368 0)
(-0.010894 0.00601322 0)
(-0.012888 0.0070459 0)
(-0.0151574 0.00818927 0)
(-0.0177301 0.00945005 0)
(-0.0206345 0.0108343 0)
(-0.0238987 0.0123469 0)
(-0.0275504 0.0139914 0)
(-0.0316159 0.0157697 0)
(-0.0361187 0.0176807 0)
(-0.0410789 0.0197207 0)
(-0.0465118 0.0218816 0)
(-0.0524261 0.024151 0)
(-0.0588233 0.0265114 0)
(-0.0656963 0.0289401 0)
(-0.0730283 0.0314089 0)