/*--------------------------------*- C++ -*----------------------------------*\
| =========                 |                                                 |
| \\      /  F ield         | OpenFOAM: The Open Source CFD Toolbox           |
|  \\    /   O peration     | Version:  2406                                  |
|   \\  /    A nd           | Website:  www.openfoam.com                      |
|    \\/     M anipulation  |                                                 |
\*---------------------------------------------------------------------------*/
FoamFile
{
    version     2.0;
    format      ascii;
    arch        "LSB;label=32;scalar=64";
    class       volVectorField;
    location    "41.5";
    object      Uold;
}
// * * * * * * * * * * * * * * * * * * * * * * * * * * * * * * * * * * * * * //

dimensions      [0 1 -1 0 0 0 0];

internalField   nonuniform List<vector> 
14400
(
(-1.89673e-05 1.89257e-05 0)
(-4.73687e-06 -1.01811e-05 0)
(0.000103921 -4.27458e-05 0)
(0.000294496 -7.20114e-05 0)
(0.000555417 -8.96557e-05 0)
(0.00085258 -9.95759e-05 0)
(0.00116997 -0.000100707 0)
(0.00148036 -9.61681e-05 0)
(0.00177212 -8.65098e-05 0)
(0.00202932 -7.41759e-05 0)
(0.00224767 -6.02476e-05 0)
(0.00242221 -4.65169e-05 0)
(0.0025557 -3.38704e-05 0)
(0.00265107 -2.32975e-05 0)
(0.00271534 -1.5129e-05 0)
(0.00275498 -9.57227e-06 0)
(0.00277757 -6.38801e-06 0)
(0.00278911 -5.20371e-06 0)
(0.00279469 -5.40536e-06 0)
(0.00279713 -6.33995e-06 0)
(0.00279748 -7.30492e-06 0)
(0.00279454 -7.68086e-06 0)
(0.00278548 -6.94251e-06 0)
(0.00276593 -4.72058e-06 0)
(0.00273057 -7.83112e-07 0)
(0.00267343 4.97183e-06 0)
(0.00258828 1.25676e-05 0)
(0.00246877 2.19876e-05 0)
(0.00230853 3.32207e-05 0)
(0.00210119 4.62822e-05 0)
(0.00184026 6.12233e-05 0)
(0.00151914 7.81202e-05 0)
(0.00113109 9.70576e-05 0)
(0.000669265 0.000118106 0)
(0.000126818 0.000141304 0)
(-0.000502914 0.000166639 0)
(-0.00122623 0.000194044 0)
(-0.00204884 0.000223381 0)
(-0.00297561 0.000254441 0)
(-0.00401031 0.000286941 0)
(-0.00515536 0.000320522 0)
(-0.00641161 0.000354747 0)
(-0.00777806 0.00038911 0)
(-0.0092517 0.000423036 0)
(-0.0108273 0.000455893 0)
(-0.0124975 0.000487002 0)
(-0.0142522 0.000515649 0)
(-0.0160793 0.000541095 0)
(-0.017964 0.000562593 0)
(-0.0198894 0.000579398 0)
(-0.0218365 0.00059078 0)
(-0.0237842 0.000596035 0)
(-0.0257096 0.000594495 0)
(-0.0275885 0.000585533 0)
(-0.0293951 0.000568581 0)
(-0.031103 0.000543136 0)
(-0.0326851 0.000508773 0)
(-0.034114 0.000465166 0)
(-0.0353624 0.000412107 0)
(-0.0364037 0.000349529 0)
(-0.0372122 0.000277535 0)
(-0.0377639 0.000196425 0)
(-0.0380368 0.00010673 0)
(-0.0380114 9.24066e-06 0)
(-0.0376719 -9.49693e-05 0)
(-0.0370062 -0.000204521 0)
(-0.0360067 -0.000317723 0)
(-0.0346714 -0.000432571 0)
(-0.0330038 -0.000546774 0)
(-0.031014 -0.000657786 0)
(-0.0287187 -0.000762873 0)
(-0.0261418 -0.000859195 0)
(-0.023314 -0.000943905 0)
(-0.0202727 -0.00101428 0)
(-0.017062 -0.00106784 0)
(-0.013731 -0.00110252 0)
(-0.0103336 -0.00111676 0)
(-0.00692637 -0.00110967 0)
(-0.00356749 -0.00108109 0)
(-0.000314685 -0.00103166 0)
(0.00277665 -0.000962844 0)
(0.0056553 -0.00087686 0)
(0.00827607 -0.000776601 0)
(0.0106013 -0.000665491 0)
(0.0126023 -0.000547303 0)
(0.0142599 -0.000425956 0)
(0.0155652 -0.000305299 0)
(0.0165192 -0.000188912 0)
(0.0171325 -7.99321e-05 0)
(0.0174241 1.90759e-05 0)
(0.0174205 0.000106205 0)
(0.0171536 0.000180231 0)
(0.0166593 0.000240602 0)
(0.0159761 0.000287368 0)
(0.0151426 0.000321104 0)
(0.0141969 0.000342792 0)
(0.0131746 0.000353724 0)
(0.0121084 0.000355368 0)
(0.0110269 0.000349295 0)
(0.00995462 0.000337062 0)
(0.0089113 0.000320175 0)
(0.00791262 0.000299993 0)
(0.00696983 0.000277755 0)
(0.00609075 0.000254478 0)
(0.00527949 0.000231066 0)
(0.00453792 0.000208172 0)
(0.00386486 0.000186414 0)
(0.00325828 0.000166116 0)
(0.00271345 0.000147699 0)
(0.00222649 0.000131147 0)
(0.00179072 0.000116716 0)
(0.00140278 0.000103851 0)
(0.00105612 9.25687e-05 0)
(0.000751229 8.13314e-05 0)
(0.000484797 6.98939e-05 0)
(0.000265135 5.51873e-05 0)
(9.52268e-05 3.76471e-05 0)
(-9.70317e-06 1.35539e-05 0)
(-4.57178e-05 -8.88546e-06 0)
(-2.26851e-05 -2.22227e-05 0)
(8.9052e-06 5.45119e-06 0)
(0.000150378 -0.000153844 0)
(0.000488243 -0.000319296 0)
(0.00098492 -0.000467212 0)
(0.00162459 -0.000565542 0)
(0.00234203 -0.000621725 0)
(0.00310193 -0.000632284 0)
(0.00384846 -0.000608008 0)
(0.00455204 -0.000554101 0)
(0.00517806 -0.000481551 0)
(0.00571257 -0.000397958 0)
(0.00614333 -0.000312387 0)
(0.00647244 -0.000230959 0)
(0.0067045 -0.00015906 0)
(0.00685195 -9.93929e-05 0)
(0.00692743 -5.32049e-05 0)
(0.00694553 -1.96378e-05 0)
(0.0069181 3.39955e-06 0)
(0.00685474 1.92316e-05 0)
(0.00676027 3.17015e-05 0)
(0.00663532 4.49045e-05 0)
(0.00647548 6.26432e-05 0)
(0.00627235 8.81917e-05 0)
(0.00601382 0.000124037 0)
(0.00568532 0.000171878 0)
(0.00527045 0.000232687 0)
(0.00475188 0.000306919 0)
(0.00411181 0.000394717 0)
(0.0033323 0.000496122 0)
(0.00239546 0.000611177 0)
(0.00128352 0.000739974 0)
(-2.10793e-05 0.000882595 0)
(-0.00153545 0.00103902 0)
(-0.00327596 0.00120902 0)
(-0.00525773 0.00139204 0)
(-0.00749416 0.00158709 0)
(-0.0099962 0.00179273 0)
(-0.0127718 0.00200703 0)
(-0.015825 0.00222751 0)
(-0.0191557 0.00245121 0)
(-0.0227588 0.00267468 0)
(-0.0266237 0.00289404 0)
(-0.0307341 0.00310506 0)
(-0.0350678 0.00330324 0)
(-0.0395967 0.00348392 0)
(-0.0442867 0.00364236 0)
(-0.0490985 0.0037739 0)
(-0.0539876 0.00387404 0)
(-0.0589053 0.00393857 0)
(-0.0637993 0.00396364 0)
(-0.0686144 0.00394583 0)
(-0.0732936 0.00388227 0)
(-0.0777788 0.00377061 0)
(-0.0820119 0.00360914 0)
(-0.0859352 0.00339677 0)
(-0.0894929 0.00313307 0)
(-0.0926312 0.00281831 0)
(-0.0952993 0.00245345 0)
(-0.0974501 0.00204023 0)
(-0.099041 0.00158114 0)
(-0.100034 0.00107951 0)
(-0.100397 0.000539527 0)
(-0.100103 -3.36977e-05 0)
(-0.0991339 -0.000634107 0)
(-0.0974764 -0.00125466 0)
(-0.0951265 -0.00188733 0)
(-0.0920884 -0.00252311 0)
(-0.0883753 -0.00315209 0)
(-0.0840098 -0.00376357 0)
(-0.0790241 -0.0043462 0)
(-0.0734607 -0.00488823 0)
(-0.0673721 -0.00537779 0)
(-0.0608205 -0.00580326 0)
(-0.0538777 -0.00615362 0)
(-0.0466243 -0.00641899 0)
(-0.0391486 -0.006591 0)
(-0.0315451 -0.00666331 0)
(-0.0239132 -0.00663201 0)
(-0.0163547 -0.00649598 0)
(-0.00897207 -0.00625711 0)
(-0.00186561 -0.00592049 0)
(0.00486899 -0.0054943 0)
(0.0111433 -0.00498963 0)
(0.0168784 -0.00442013 0)
(0.0220076 -0.00380149 0)
(0.0264781 -0.00315075 0)
(0.0302523 -0.00248563 0)
(0.0333095 -0.0018237 0)
(0.0356454 -0.00118168 0)
(0.0372726 -0.000574691 0)
(0.0382196 -1.57196e-05 0)
(0.0385288 0.000484869 0)
(0.0382554 0.000919599 0)
(0.0374641 0.00128398 0)
(0.0362268 0.00157647 0)
(0.0346196 0.00179821 0)
(0.0327197 0.00195272 0)
(0.0306026 0.00204543 0)
(0.0283399 0.00208321 0)
(0.025997 0.00207379 0)
(0.0236316 0.0020254 0)
(0.021293 0.00194617 0)
(0.0190211 0.00184397 0)
(0.0168476 0.00172593 0)
(0.0147946 0.0015985 0)
(0.0128778 0.00146706 0)
(0.0111044 0.00133634 0)
(0.00947784 0.00120976 0)
(0.00799445 0.00109033 0)
(0.00665018 0.000979293 0)
(0.00543512 0.000877861 0)
(0.00434391 0.000784308 0)
(0.00336581 0.000697626 0)
(0.00250183 0.000611732 0)
(0.00174662 0.000523822 0)
(0.00111491 0.000422885 0)
(0.000609399 0.000309834 0)
(0.000255832 0.000174618 0)
(5.04345e-05 4.77334e-05 0)
(-9.05836e-06 -4.56646e-05 0)
(3.83679e-05 -9.76475e-05 0)
(0.000305218 -0.000488452 0)
(0.000854493 -0.000873312 0)
(0.00160567 -0.00120741 0)
(0.00254134 -0.00143652 0)
(0.00357173 -0.00156511 0)
(0.0046515 -0.00158905 0)
(0.0057062 -0.00152739 0)
(0.00669548 -0.00139449 0)
(0.00757247 -0.0012136 0)
(0.00831642 -0.00100394 0)
(0.0089094 -0.00078591 0)
(0.00935164 -0.000574901 0)
(0.00964719 -0.00038346 0)
(0.00981002 -0.000218677 0)
(0.00985473 -8.35574e-05 0)
(0.00979824 2.35732e-05 0)
(0.00965393 0.00010775 0)
(0.00943185 0.000176879 0)
(0.0091356 0.000240377 0)
(0.00876277 0.000308262 0)
(0.00830405 0.000390001 0)
(0.00774443 0.000493798 0)
(0.00706372 0.000626031 0)
(0.00623819 0.000791161 0)
(0.0052415 0.000991874 0)
(0.00404603 0.00122951 0)
(0.00262353 0.0015045 0)
(0.000945893 0.00181683 0)
(-0.00101454 0.00216622 0)
(-0.00328445 0.00255221 0)
(-0.00588914 0.002974 0)
(-0.00885184 0.00343025 0)
(-0.012193 0.00391876 0)
(-0.0159291 0.00443627 0)
(-0.0200722 0.00497826 0)
(-0.024628 0.00553887 0)
(-0.0295957 0.00611085 0)
(-0.0349665 0.00668564 0)
(-0.0407231 0.00725351 0)
(-0.0468393 0.00780371 0)
(-0.0532798 0.00832472 0)
(-0.0600002 0.00880461 0)
(-0.0669478 0.0092313 0)
(-0.0740623 0.00959295 0)
(-0.0812765 0.00987832 0)
(-0.0885185 0.0100771 0)
(-0.0957125 0.01018 0)
(-0.10278 0.0101794 0)
(-0.109644 0.010069 0)
(-0.116225 0.00984445 0)
(-0.122448 0.00950282 0)
(-0.12824 0.00904304 0)
(-0.133535 0.00846563 0)
(-0.138269 0.00777265 0)
(-0.142384 0.00696765 0)
(-0.145829 0.00605556 0)
(-0.148558 0.00504259 0)
(-0.150533 0.00393625 0)
(-0.151722 0.00274529 0)
(-0.152098 0.00147969 0)
(-0.151642 0.000150731 0)
(-0.150343 -0.00122901 0)
(-0.148196 -0.00264559 0)
(-0.145201 -0.00408365 0)
(-0.14137 -0.00552646 0)
(-0.136719 -0.0069559 0)
(-0.131273 -0.00835257 0)
(-0.125067 -0.00969596 0)
(-0.118143 -0.0109647 0)
(-0.110551 -0.0121368 0)
(-0.102353 -0.0131905 0)
(-0.0936181 -0.0141041 0)
(-0.0844238 -0.0148574 0)
(-0.0748571 -0.015432 0)
(-0.0650123 -0.015812 0)
(-0.0549905 -0.015985 0)
(-0.0448985 -0.0159429 0)
(-0.0348465 -0.0156822 0)
(-0.0249473 -0.015205 0)
(-0.0153131 -0.0145188 0)
(-0.0060539 -0.0136369 0)
(0.0027251 -0.0125783 0)
(0.0109262 -0.0113671 0)
(0.0184612 -0.0100317 0)
(0.0252541 -0.00860407 0)
(0.0312427 -0.00711853 0)
(0.0363806 -0.00561049 0)
(0.0406383 -0.00411517 0)
(0.044004 -0.00266623 0)
(0.0464843 -0.00129457 0)
(0.0481035 -2.72026e-05 0)
(0.0489029 0.00111366 0)
(0.0489395 0.0021113 0)
(0.0482837 0.00295486 0)
(0.0470168 0.00363948 0)
(0.045228 0.00416608 0)
(0.0430108 0.0045408 0)
(0.0404597 0.00477431 0)
(0.037667 0.00488077 0)
(0.0347193 0.00487688 0)
(0.0316957 0.00478065 0)
(0.0286649 0.00461057 0)
(0.0256856 0.00438453 0)
(0.0228041 0.00411938 0)
(0.0200565 0.00383009 0)
(0.0174671 0.00352992 0)
(0.0150524 0.00322948 0)
(0.0128183 0.0029376 0)
(0.010768 0.00265949 0)
(0.00889514 0.0023988 0)
(0.00719779 0.00215364 0)
(0.00566541 0.00192139 0)
(0.00430168 0.00169094 0)
(0.00309959 0.0014546 0)
(0.00207902 0.00119299 0)
(0.00123854 0.000905208 0)
(0.000615784 0.000577682 0)
(0.000198268 0.00026032 0)
(1.77863e-05 -3.60195e-06 0)
(6.43801e-05 -0.000275098 0)
(0.00044447 -0.00097376 0)
(0.00117739 -0.00162152 0)
(0.00213543 -0.00216297 0)
(0.00329853 -0.00253305 0)
(0.00455501 -0.00273348 0)
(0.00585503 -0.00276163 0)
(0.00711103 -0.00264494 0)
(0.00827743 -0.00240839 0)
(0.00929937 -0.00208863 0)
(0.0101524 -0.001718 0)
(0.0108145 -0.00132953 0)
(0.011284 -0.000949058 0)
(0.0115633 -0.000597133 0)
(0.0116654 -0.000285718 0)
(0.0116039 -1.96436e-05 0)
(0.0113946 0.000203934 0)
(0.0110485 0.000393726 0)
(0.0105727 0.000563257 0)
(0.00996638 0.000728736 0)
(0.00922136 0.000907381 0)
(0.00832141 0.00111553 0)
(0.0072435 0.00136733 0)
(0.00595869 0.00167385 0)
(0.00443396 0.00204284 0)
(0.0026336 0.00247893 0)
(0.000520689 0.00298433 0)
(-0.00194177 0.00355946 0)
(-0.00478986 0.00420358 0)
(-0.00805783 0.00491506 0)
(-0.0117772 0.0056914 0)
(-0.0159757 0.00652894 0)
(-0.0206759 0.00742247 0)
(-0.025894 0.00836476 0)
(-0.0316383 0.00934633 0)
(-0.0379077 0.0103552 0)
(-0.0446906 0.0113768 0)
(-0.0519639 0.0123944 0)
(-0.0596921 0.0133892 0)
(-0.0678279 0.0143409 0)
(-0.076312 0.0152282 0)
(-0.0850744 0.0160297 0)
(-0.094036 0.0167244 0)
(-0.10311 0.0172925 0)
(-0.112205 0.0177161 0)
(-0.121227 0.0179797 0)
(-0.130081 0.0180707 0)
(-0.138675 0.0179796 0)
(-0.146919 0.0177003 0)
(-0.154731 0.0172295 0)
(-0.162033 0.0165674 0)
(-0.168757 0.0157167 0)
(-0.174839 0.0146824 0)
(-0.180228 0.0134719 0)
(-0.184875 0.0120942 0)
(-0.188742 0.0105599 0)
(-0.191798 0.00888071 0)
(-0.194016 0.00706966 0)
(-0.195376 0.0051407 0)
(-0.195865 0.00310878 0)
(-0.195472 0.000989921 0)
(-0.194194 -0.00119871 0)
(-0.192031 -0.00343873 0)
(-0.188987 -0.00571034 0)
(-0.185073 -0.00799226 0)
(-0.180303 -0.0102616 0)
(-0.174698 -0.0124938 0)
(-0.168284 -0.0146628 0)
(-0.161093 -0.0167409 0)
(-0.153163 -0.0186993 0)
(-0.144542 -0.0205082 0)
(-0.135284 -0.0221377 0)
(-0.125451 -0.0235581 0)
(-0.115114 -0.024741 0)
(-0.104352 -0.0256602 0)
(-0.093253 -0.0262926 0)
(-0.081911 -0.0266193 0)
(-0.0704279 -0.026627 0)
(-0.0589105 -0.0263085 0)
(-0.0474693 -0.0256637 0)
(-0.0362172 -0.0247001 0)
(-0.0252665 -0.0234331 0)
(-0.0147274 -0.0218861 0)
(-0.00470529 -0.0200898 0)
(0.00470122 -0.0180815 0)
(0.0134027 -0.0159041 0)
(0.0213209 -0.0136047 0)
(0.02839 -0.0112333 0)
(0.034559 -0.0088409 0)
(0.0397922 -0.00647799 0)
(0.0440702 -0.00419286 0)
(0.047391 -0.00203007 0)
(0.0497699 -2.89837e-05 0)
(0.0512392 0.00177748 0)
(0.051848 0.00336388 0)
(0.0516604 0.00471297 0)
(0.0507541 0.00581606 0)
(0.0492175 0.00667296 0)
(0.0471465 0.00729152 0)
(0.0446416 0.00768667 0)
(0.0418034 0.00787925 0)
(0.0387297 0.00789432 0)
(0.0355116 0.00775975 0)
(0.0322317 0.00750436 0)
(0.0289605 0.0071568 0)
(0.025758 0.00674385 0)
(0.0226698 0.00629016 0)
(0.0197317 0.00581654 0)
(0.0169658 0.00534066 0)
(0.0143886 0.00487454 0)
(0.0120038 0.00442663 0)
(0.00981824 0.00399708 0)
(0.00782563 0.00358314 0)
(0.00603562 0.00317029 0)
(0.00444049 0.0027465 0)
(0.00306639 0.00228531 0)
(0.00190642 0.00178189 0)
(0.00101317 0.00121807 0)
(0.000367434 0.000649359 0)
(4.93611e-05 0.000123684 0)
(8.09146e-05 -0.000519424 0)
(0.000546896 -0.00160472 0)
(0.00142682 -0.00256292 0)
(0.00254895 -0.00333498 0)
(0.00388685 -0.00385372 0)
(0.00530637 -0.0041197 0)
(0.00675336 -0.0041354 0)
(0.00812904 -0.00393782 0)
(0.00938517 -0.00356505 0)
(0.0104616 -0.00306856 0)
(0.0113325 -0.00249562 0)
(0.0119735 -0.00189295 0)
(0.012382 -0.00129777 0)
(0.0125587 -0.000738967 0)
(0.0125149 -0.000233392 0)
(0.0122615 0.000212786 0)
(0.0118105 0.000604396 0)
(0.0111682 0.000954977 0)
(0.0103355 0.00128499 0)
(0.00930446 0.00161881 0)
(0.00805855 0.00198213 0)
(0.00657246 0.00239921 0)
(0.00481375 0.0028909 0)
(0.002744 0.00347331 0)
(0.000321099 0.00415747 0)
(-0.00249906 0.00494967 0)
(-0.00576068 0.00585222 0)
(-0.00950657 0.00686442 0)
(-0.0137766 0.0079832 0)
(-0.0186062 0.0092034 0)
(-0.0240248 0.0105177 0)
(-0.030054 0.0119159 0)
(-0.0367057 0.013385 0)
(-0.0439803 0.0149081 0)
(-0.0518647 0.0164644 0)
(-0.0603317 0.0180294 0)
(-0.0693386 0.0195752 0)
(-0.0788278 0.0210713 0)
(-0.0887268 0.0224853 0)
(-0.0989507 0.0237842 0)
(-0.109404 0.0249358 0)
(-0.119983 0.0259096 0)
(-0.13058 0.0266783 0)
(-0.141088 0.0272186 0)
(-0.151398 0.027512 0)
(-0.16141 0.027545 0)
(-0.171029 0.0273094 0)
(-0.18017 0.0268021 0)
(-0.188758 0.0260246 0)
(-0.196727 0.0249824 0)
(-0.204022 0.0236844 0)
(-0.210597 0.0221422 0)
(-0.216415 0.0203696 0)
(-0.221447 0.0183817 0)
(-0.225669 0.0161948 0)
(-0.229064 0.0138259 0)
(-0.231619 0.0112924 0)
(-0.233325 0.00861216 0)
(-0.234176 0.00580357 0)
(-0.234168 0.00288546 0)
(-0.2333 -0.000122602 0)
(-0.231572 -0.00320006 0)
(-0.228986 -0.00632515 0)
(-0.225547 -0.00947456 0)
(-0.221263 -0.0126232 0)
(-0.216142 -0.0157439 0)
(-0.210198 -0.0188075 0)
(-0.20345 -0.0217823 0)
(-0.195919 -0.0246348 0)
(-0.187634 -0.0273291 0)
(-0.17863 -0.0298282 0)
(-0.16895 -0.032094 0)
(-0.158644 -0.0340882 0)
(-0.147772 -0.0357737 0)
(-0.136404 -0.0371153 0)
(-0.124616 -0.0380814 0)
(-0.112497 -0.0386451 0)
(-0.100142 -0.0387862 0)
(-0.0876534 -0.0384918 0)
(-0.0751398 -0.0377582 0)
(-0.0627137 -0.0365909 0)
(-0.0504892 -0.0350059 0)
(-0.0385802 -0.0330292 0)
(-0.0270974 -0.0306966 0)
(-0.0161461 -0.0280527 0)
(-0.00582423 -0.02515 0)
(0.00377961 -0.0220467 0)
(0.012588 -0.0188055 0)
(0.0205357 -0.0154915 0)
(0.0275709 -0.0121702 0)
(0.0336558 -0.00890578 0)
(0.0387673 -0.0057592 0)
(0.0428975 -0.00278661 0)
(0.0460544 -3.773e-05 0)
(0.0482616 0.00244557 0)
(0.0495587 0.00463052 0)
(0.0500005 0.00649445 0)
(0.0496564 0.00802537 0)
(0.0486079 0.00922223 0)
(0.046947 0.0100944 0)
(0.0447722 0.0106611 0)
(0.0421856 0.0109491 0)
(0.0392883 0.0109921 0)
(0.0361779 0.0108272 0)
(0.0329433 0.0104939 0)
(0.0296651 0.0100312 0)
(0.0264099 0.00947636 0)
(0.0232346 0.00886274 0)
(0.0201801 0.00821934 0)
(0.0172807 0.00756791 0)
(0.0145541 0.00692434 0)
(0.0120201 0.00629356 0)
(0.00968058 0.00567463 0)
(0.00755431 0.00505193 0)
(0.00563546 0.00440951 0)
(0.00395919 0.00371529 0)
(0.00251568 0.00295738 0)
(0.00137627 0.00211131 0)
(0.000519266 0.00122451 0)
(7.61093e-05 0.000337419 0)
(9.35328e-05 -0.000805037 0)
(0.000627542 -0.00233435 0)
(0.00162276 -0.00363226 0)
(0.00287003 -0.00464099 0)
(0.00433375 -0.0052989 0)
(0.0058585 -0.00560981 0)
(0.00738528 -0.00558572 0)
(0.00880572 -0.00527551 0)
(0.0100704 -0.00473254 0)
(0.0111161 -0.00402409 0)
(0.0119175 -0.00321302 0)
(0.0124493 -0.00235964 0)
(0.0127091 -0.0015121 0)
(0.0126956 -0.000706732 0)
(0.012418 3.58432e-05 0)
(0.0118827 0.000709428 0)
(0.011096 0.00132219 0)
(0.0100569 0.00189384 0)
(0.00875746 0.00245292 0)
(0.00717967 0.00303292 0)
(0.00529658 0.00366852 0)
(0.00307217 0.00439202 0)
(0.000463764 0.00523063 0)
(-0.00257632 0.00620478 0)
(-0.00609794 0.00732765 0)
(-0.0101511 0.00860561 0)
(-0.0147835 0.0100392 0)
(-0.0200384 0.0116242 0)
(-0.0259529 0.013352 0)
(-0.0325552 0.0152103 0)
(-0.0398624 0.0171824 0)
(-0.0478786 0.0192466 0)
(-0.0565919 0.0213764 0)
(-0.0659735 0.0235397 0)
(-0.0759762 0.0256992 0)
(-0.0865346 0.0278138 0)
(-0.0975658 0.029839 0)
(-0.108972 0.0317293 0)
(-0.120643 0.0334395 0)
(-0.132461 0.034927 0)
(-0.144304 0.0361536 0)
(-0.156051 0.0370869 0)
(-0.167586 0.0377011 0)
(-0.1788 0.0379782 0)
(-0.189597 0.0379078 0)
(-0.199891 0.0374863 0)
(-0.20961 0.036717 0)
(-0.218695 0.0356084 0)
(-0.227099 0.0341735 0)
(-0.234785 0.0324285 0)
(-0.241726 0.0303922 0)
(-0.247902 0.0280845 0)
(-0.253299 0.0255261 0)
(-0.257908 0.0227378 0)
(-0.261723 0.0197404 0)
(-0.264741 0.0165542 0)
(-0.266958 0.0131989 0)
(-0.268374 0.00969427 0)
(-0.268985 0.00605969 0)
(-0.26879 0.00231485 0)
(-0.267788 -0.00151996 0)
(-0.265976 -0.0054235 0)
(-0.263351 -0.00937309 0)
(-0.259913 -0.0133442 0)
(-0.255662 -0.01731 0)
(-0.250597 -0.021241 0)
(-0.244722 -0.0251049 0)
(-0.238044 -0.0288661 0)
(-0.230573 -0.0324861 0)
(-0.222325 -0.0359234 0)
(-0.213322 -0.0391339 0)
(-0.203593 -0.042072 0)
(-0.193176 -0.0446906 0)
(-0.182119 -0.0469433 0)
(-0.170479 -0.0487851 0)
(-0.158323 -0.0501747 0)
(-0.14573 -0.0510756 0)
(-0.13279 -0.0514586 0)
(-0.119601 -0.0513032 0)
(-0.106271 -0.0505994 0)
(-0.0929128 -0.0493489 0)
(-0.0796439 -0.0475658 0)
(-0.0665835 -0.045277 0)
(-0.0538492 -0.0425214 0)
(-0.0415544 -0.0393496 0)
(-0.0298058 -0.0358217 0)
(-0.0187007 -0.0320059 0)
(-0.00832597 -0.0279759 0)
(0.00124378 -0.0238089 0)
(0.00994655 -0.0195832 0)
(0.0177334 -0.0153762 0)
(0.0245683 -0.0112627 0)
(0.0304285 -0.00731289 0)
(0.0353044 -0.00359092 0)
(0.0391997 -0.000153564 0)
(0.042132 0.00295128 0)
(0.044133 0.00568592 0)
(0.0452489 0.00802398 0)
(0.0455396 0.00995131 0)
(0.0450786 0.0114664 0)
(0.0439501 0.0125802 0)
(0.0422478 0.0133151 0)
(0.0400702 0.0137038 0)
(0.0375182 0.0137867 0)
(0.0346897 0.0136095 0)
(0.0316786 0.0132205 0)
(0.0285678 0.0126683 0)
(0.0254328 0.0119985 0)
(0.0223328 0.0112522 0)
(0.019321 0.0104627 0)
(0.0164311 0.00965544 0)
(0.013699 0.00884287 0)
(0.0111374 0.00802825 0)
(0.00877742 0.00719763 0)
(0.0066181 0.00633243 0)
(0.00470598 0.00539633 0)
(0.00303163 0.00436754 0)
(0.00168623 0.0032121 0)
(0.000649304 0.00195654 0)
(9.87941e-05 0.00062278 0)
(0.000102233 -0.00112862 0)
(0.000687533 -0.00315261 0)
(0.00176993 -0.00481613 0)
(0.00310774 -0.00606579 0)
(0.00465432 -0.00684993 0)
(0.00623376 -0.00717984 0)
(0.00778123 -0.00708152 0)
(0.00917973 -0.006619 0)
(0.0103794 -0.00586383 0)
(0.0113155 -0.00490068 0)
(0.0119647 -0.00380898 0)
(0.012302 -0.00266253 0)
(0.0123258 -0.00151971 0)
(0.0120333 -0.000422925 0)
(0.0114306 0.000605095 0)
(0.0105184 0.00156004 0)
(0.00929577 0.0024553 0)
(0.00775176 0.00331846 0)
(0.00586748 0.00418751 0)
(0.00361282 0.0051058 0)
(0.000948818 0.00611719 0)
(-0.00217189 0.00726146 0)
(-0.0058017 0.00857096 0)
(-0.00999576 0.0100686 0)
(-0.0148085 0.0117674 0)
(-0.020291 0.013671 0)
(-0.026488 0.0157747 0)
(-0.0334355 0.0180666 0)
(-0.0411576 0.0205281 0)
(-0.0496639 0.0231341 0)
(-0.0589467 0.0258526 0)
(-0.0689788 0.0286444 0)
(-0.0797122 0.0314639 0)
(-0.0910771 0.0342589 0)
(-0.102984 0.0369729 0)
(-0.115324 0.0395466 0)
(-0.127977 0.0419207 0)
(-0.14081 0.0440387 0)
(-0.15369 0.0458494 0)
(-0.166484 0.047309 0)
(-0.179067 0.0483829 0)
(-0.191323 0.0490466 0)
(-0.203153 0.0492857 0)
(-0.214471 0.0490956 0)
(-0.225209 0.04848 0)
(-0.235312 0.0474499 0)
(-0.24474 0.046022 0)
(-0.253465 0.044217 0)
(-0.261468 0.0420582 0)
(-0.268737 0.0395703 0)
(-0.275267 0.0367786 0)
(-0.281056 0.0337078 0)
(-0.286103 0.0303819 0)
(-0.29041 0.0268238 0)
(-0.293979 0.0230553 0)
(-0.29681 0.0190967 0)
(-0.298903 0.0149678 0)
(-0.300257 0.0106872 0)
(-0.300868 0.00627379 0)
(-0.300734 0.00174622 0)
(-0.299849 -0.00287599 0)
(-0.298205 -0.00757215 0)
(-0.295795 -0.0123198 0)
(-0.292611 -0.0170941 0)
(-0.288646 -0.0218675 0)
(-0.28389 -0.026609 0)
(-0.278338 -0.0312838 0)
(-0.271985 -0.0358533 0)
(-0.264829 -0.0402745 0)
(-0.256874 -0.0445005 0)
(-0.248127 -0.0484807 0)
(-0.238604 -0.0521612 0)
(-0.228326 -0.0554862 0)
(-0.217326 -0.058399 0)
(-0.205649 -0.0608436 0)
(-0.193348 -0.0627669 0)
(-0.180492 -0.0641209 0)
(-0.167161 -0.0648648 0)
(-0.153449 -0.0649676 0)
(-0.139461 -0.0644105 0)
(-0.125311 -0.0631883 0)
(-0.111123 -0.0613108 0)
(-0.0970226 -0.0588038 0)
(-0.083139 -0.0557085 0)
(-0.0695979 -0.0520805 0)
(-0.0565191 -0.0479882 0)
(-0.0440131 -0.0435099 0)
(-0.0321789 -0.0387316 0)
(-0.0211019 -0.0337435 0)
(-0.0108534 -0.0286376 0)
(-0.00149013 -0.0235045 0)
(0.0069447 -0.0184318 0)
(0.0144209 -0.0135024 0)
(0.0209201 -0.00879268 0)
(0.0264355 -0.00437162 0)
(0.0309714 -0.000299735 0)
(0.0345432 0.00337222 0)
(0.0371785 0.00660442 0)
(0.0389172 0.0093692 0)
(0.0398123 0.0116521 0)
(0.039929 0.0134525 0)
(0.0393448 0.0147837 0)
(0.0381461 0.0156719 0)
(0.0364272 0.0161549 0)
(0.0342845 0.0162797 0)
(0.0318159 0.0160993 0)
(0.029113 0.0156702 0)
(0.026264 0.0150479 0)
(0.0233426 0.0142851 0)
(0.0204186 0.0134267 0)
(0.0175416 0.0125087 0)
(0.0147635 0.0115531 0)
(0.0121101 0.0105691 0)
(0.00962648 0.0095467 0)
(0.00731977 0.00846586 0)
(0.00524971 0.00728722 0)
(0.00341115 0.0059769 0)
(0.00191465 0.00448924 0)
(0.000743967 0.00282114 0)
(0.000114597 0.000968063 0)
(0.000109967 -0.0014764 0)
(0.000736448 -0.00402939 0)
(0.00188343 -0.00607093 0)
(0.00328023 -0.00755341 0)
(0.0048678 -0.00843896 0)
(0.00645146 -0.00875133 0)
(0.00796028 -0.00853537 0)
(0.00927025 -0.00787418 0)
(0.0103321 -0.00686046 0)
(0.011081 -0.00559785 0)
(0.011497 -0.00418275 0)
(0.0115563 -0.00270167 0)
(0.0112583 -0.00122166 0)
(0.0105984 0.000211005 0)
(0.00957855 0.001574 0)
(0.00819245 0.00286743 0)
(0.00642947 0.00411221 0)
(0.00426704 0.00534554 0)
(0.00167329 0.00661587 0)
(-0.00139515 0.00797654 0)
(-0.00498957 0.00947964 0)
(-0.00916767 0.0111706 0)
(-0.0139891 0.0130842 0)
(-0.0195124 0.0152423 0)
(-0.0257907 0.0176538 0)
(-0.0328688 0.020315 0)
(-0.0407794 0.0232107 0)
(-0.0495401 0.0263157 0)
(-0.0591499 0.029595 0)
(-0.069587 0.0330042 0)
(-0.0808061 0.03649 0)
(-0.0927377 0.0399905 0)
(-0.105289 0.0434373 0)
(-0.118345 0.0467575 0)
(-0.131776 0.0498767 0)
(-0.145439 0.0527228 0)
(-0.159187 0.0552297 0)
(-0.172876 0.0573398 0)
(-0.186371 0.0590072 0)
(-0.199547 0.0601983 0)
(-0.2123 0.0608929 0)
(-0.224542 0.0610828 0)
(-0.236204 0.0607712 0)
(-0.247235 0.0599703 0)
(-0.257599 0.0586997 0)
(-0.267272 0.0569838 0)
(-0.276243 0.0548504 0)
(-0.284506 0.0523289 0)
(-0.292061 0.0494492 0)
(-0.298911 0.0462402 0)
(-0.305064 0.0427299 0)
(-0.310523 0.0389443 0)
(-0.315296 0.0349079 0)
(-0.319388 0.0306428 0)
(-0.322801 0.0261699 0)
(-0.325539 0.0215081 0)
(-0.327601 0.0166756 0)
(-0.328987 0.0116893 0)
(-0.329694 0.00656629 0)
(-0.329715 0.00132356 0)
(-0.329044 -0.00402101 0)
(-0.327672 -0.00944819 0)
(-0.325588 -0.0149367 0)
(-0.322781 -0.0204627 0)
(-0.319235 -0.025999 0)
(-0.314938 -0.0315146 0)
(-0.309875 -0.0369738 0)
(-0.30403 -0.0423365 0)
(-0.297391 -0.047557 0)
(-0.289947 -0.0525845 0)
(-0.281691 -0.057363 0)
(-0.272621 -0.0618321 0)
(-0.262742 -0.0659274 0)
(-0.252068 -0.0695821 0)
(-0.240624 -0.0727287 0)
(-0.228446 -0.0753014 0)
(-0.215585 -0.0772381 0)
(-0.202109 -0.0784839 0)
(-0.188099 -0.0789937 0)
(-0.173653 -0.0787355 0)
(-0.158885 -0.077693 0)
(-0.143921 -0.0758674 0)
(-0.128895 -0.0732794 0)
(-0.113948 -0.0699688 0)
(-0.0992245 -0.065994 0)
(-0.084862 -0.0614305 0)
(-0.0709919 -0.0563671 0)
(-0.0577331 -0.0509029 0)
(-0.045189 -0.0451434 0)
(-0.0334459 -0.0391961 0)
(-0.0225721 -0.0331672 0)
(-0.0126188 -0.0271589 0)
(-0.00362164 -0.0212668 0)
(0.00439757 -0.0155792 0)
(0.0114285 -0.0101757 0)
(0.0174709 -0.00512673 0)
(0.0225336 -0.000493239 0)
(0.0266341 0.00367426 0)
(0.0297995 0.00733665 0)
(0.0320671 0.0104674 0)
(0.0334849 0.0130537 0)
(0.0341132 0.0150971 0)
(0.0340223 0.0166142 0)
(0.0332936 0.0176352 0)
(0.0320145 0.0182031 0)
(0.030279 0.0183704 0)
(0.0281794 0.0181964 0)
(0.0258092 0.0177433 0)
(0.0232511 0.0170721 0)
(0.0205873 0.0162379 0)
(0.0178804 0.015287 0)
(0.0151973 0.0142513 0)
(0.0125768 0.0131471 0)
(0.0100784 0.0119701 0)
(0.00771974 0.0106997 0)
(0.00557423 0.00929442 0)
(0.00364423 0.00770719 0)
(0.00205721 0.005879 0)
(0.000803459 0.00377201 0)
(0.000124451 0.0013512 0)
(0.000116525 -0.00184881 0)
(0.000774918 -0.00495744 0)
(0.00196597 -0.00738134 0)
(0.00339147 -0.00908091 0)
(0.00497907 -0.0100356 0)
(0.00651703 -0.0102864 0)
(0.00792864 -0.00990214 0)
(0.00908476 -0.00898906 0)
(0.00993766 -0.00766428 0)
(0.0104244 -0.00605195 0)
(0.0105285 -0.00426573 0)
(0.0102287 -0.00240374 0)
(0.00952467 -0.000539689 0)
(0.00840942 0.00127903 0)
(0.00687949 0.00303343 0)
(0.00491974 0.00473095 0)
(0.00250817 0.00640236 0)
(-0.000391091 0.00809609 0)
(-0.00382375 0.00987148 0)
(-0.00784626 0.011791 0)
(-0.0125207 0.0139129 0)
(-0.0179117 0.0162848 0)
(-0.0240814 0.0189396 0)
(-0.0310847 0.0218932 0)
(-0.038965 0.0251444 0)
(-0.0477506 0.0286759 0)
(-0.0574504 0.0324556 0)
(-0.0680513 0.0364378 0)
(-0.0795149 0.0405646 0)
(-0.0917764 0.0447666 0)
(-0.104744 0.0489647 0)
(-0.118302 0.053073 0)
(-0.132314 0.0570019 0)
(-0.146627 0.0606625 0)
(-0.161085 0.0639714 0)
(-0.175531 0.0668546 0)
(-0.189816 0.0692513 0)
(-0.203806 0.0711157 0)
(-0.217386 0.072418 0)
(-0.230464 0.073144 0)
(-0.242967 0.0732934 0)
(-0.254841 0.0728778 0)
(-0.266052 0.071918 0)
(-0.276579 0.0704411 0)
(-0.286413 0.0684787 0)
(-0.295552 0.0660645 0)
(-0.303999 0.0632329 0)
(-0.311764 0.0600175 0)
(-0.318856 0.0564507 0)
(-0.325285 0.0525626 0)
(-0.331061 0.0483812 0)
(-0.336196 0.0439322 0)
(-0.340697 0.0392388 0)
(-0.344572 0.0343219 0)
(-0.347827 0.0292007 0)
(-0.350468 0.0238927 0)
(-0.352497 0.0184138 0)
(-0.353914 0.0127793 0)
(-0.354719 0.00700422 0)
(-0.354908 0.00110338 0)
(-0.354476 -0.00490747 0)
(-0.353413 -0.0110113 0)
(-0.351709 -0.0171889 0)
(-0.349349 -0.0234184 0)
(-0.346317 -0.0296746 0)
(-0.342594 -0.0359278 0)
(-0.338158 -0.0421434 0)
(-0.332986 -0.0482812 0)
(-0.327054 -0.054295 0)
(-0.320337 -0.060132 0)
(-0.312814 -0.0657329 0)
(-0.304463 -0.0710321 0)
(-0.295269 -0.0759581 0)
(-0.285224 -0.0804351 0)
(-0.274329 -0.0843842 0)
(-0.262597 -0.0877259 0)
(-0.250055 -0.0903828 0)
(-0.236748 -0.092283 0)
(-0.222739 -0.0933638 0)
(-0.208112 -0.0935752 0)
(-0.192969 -0.0928841 0)
(-0.177433 -0.0912775 0)
(-0.161643 -0.0887646 0)
(-0.145753 -0.0853787 0)
(-0.129921 -0.0811768 0)
(-0.114313 -0.076238 0)
(-0.0990844 -0.0706606 0)
(-0.0843852 -0.0645578 0)
(-0.0703473 -0.0580527 0)
(-0.057083 -0.0512723 0)
(-0.0446824 -0.0443431 0)
(-0.0332126 -0.0373865 0)
(-0.0227194 -0.0305152 0)
(-0.0132297 -0.0238318 0)
(-0.0047547 -0.0174277 0)
(0.00270626 -0.0113829 0)
(0.00916305 -0.00576632 0)
(0.014633 -0.000636201 0)
(0.0191396 0.00396035 0)
(0.0227135 0.00798784 0)
(0.0253925 0.0114235 0)
(0.027224 0.0142583 0)
(0.0282641 0.016498 0)
(0.0285803 0.0181635 0)
(0.0282476 0.01929 0)
(0.0273507 0.0199253 0)
(0.0259764 0.0201273 0)
(0.0242171 0.01996 0)
(0.0221586 0.0194892 0)
(0.0198896 0.0187777 0)
(0.0174823 0.0178798 0)
(0.0150152 0.0168368 0)
(0.0125392 0.0156718 0)
(0.0101271 0.0143868 0)
(0.00780817 0.0129613 0)
(0.00566896 0.0113524 0)
(0.00372177 0.00949977 0)
(0.00210749 0.00733077 0)
(0.000824234 0.00477168 0)
(0.000127433 0.00175595 0)
(0.000122828 -0.00223857 0)
(0.000805522 -0.00591669 0)
(0.00202065 -0.00871452 0)
(0.00344366 -0.0106027 0)
(0.00498815 -0.0115825 0)
(0.00642773 -0.0117178 0)
(0.007681 -0.0111066 0)
(0.0086162 -0.00988277 0)
(0.00918856 -0.00819077 0)
(0.00933849 -0.00617636 0)
(0.00905401 -0.00397005 0)
(0.00831576 -0.00167964 0)
(0.00712354 0.000617288 0)
(0.00546638 0.00287561 0)
(0.00333364 0.00508308 0)
(0.00069958 0.00725747 0)
(-0.00247069 0.00944153 0)
(-0.00622706 0.0116957 0)
(-0.0106286 0.0140896 0)
(-0.0157429 0.0166923 0)
(-0.0216386 0.0195643 0)
(-0.0283818 0.0227502 0)
(-0.0360288 0.0262746 0)
(-0.0446219 0.0301407 0)
(-0.0541836 0.0343299 0)
(-0.0647137 0.0388038 0)
(-0.0761855 0.043506 0)
(-0.0885434 0.048364 0)
(-0.101703 0.0532916 0)
(-0.11555 0.0581918 0)
(-0.129947 0.0629608 0)
(-0.144736 0.0674926 0)
(-0.159752 0.0716851 0)
(-0.174823 0.0754448 0)
(-0.189787 0.0786925 0)
(-0.204497 0.0813657 0)
(-0.218824 0.0834212 0)
(-0.232664 0.0848345 0)
(-0.245936 0.0855986 0)
(-0.258582 0.0857215 0)
(-0.270563 0.0852227 0)
(-0.281855 0.0841308 0)
(-0.292451 0.08248 0)
(-0.302348 0.0803078 0)
(-0.311554 0.077653 0)
(-0.320077 0.074554 0)
(-0.327931 0.0710482 0)
(-0.335131 0.0671708 0)
(-0.34169 0.0629546 0)
(-0.347623 0.0584299 0)
(-0.352946 0.0536241 0)
(-0.357672 0.048562 0)
(-0.361814 0.0432658 0)
(-0.365385 0.0377554 0)
(-0.368395 0.0320485 0)
(-0.370855 0.0261607 0)
(-0.372772 0.0201065 0)
(-0.374151 0.0138988 0)