/*--------------------------------*- C++ -*----------------------------------*\
| =========                 |                                                 |
| \\      /  F ield         | OpenFOAM: The Open Source CFD Toolbox           |
|  \\    /   O peration     | Version:  2406                                  |
|   \\  /    A nd           | Website:  www.openfoam.com                      |
|    \\/     M anipulation  |                                                 |
\*---------------------------------------------------------------------------*/
FoamFile
{
    version     2.0;
    format      ascii;
    arch        "LSB;label=32;scalar=64";
    class       volVectorField;
    location    "32.8";
    object      dU;
}
// * * * * * * * * * * * * * * * * * * * * * * * * * * * * * * * * * * * * * //

dimensions      [0 1 -1 0 0 0 0];

internalField   nonuniform List<vector> 
900
(
(1.24881e-05 -2.33873e-06 0)
(-1.02817e-05 -6.74095e-06 0)
(-4.39466e-05 -5.91459e-06 0)
(-5.09839e-05 -1.58001e-06 0)
(-5.70784e-05 4.72471e-06 0)
(-6.36198e-05 1.20742e-05 0)
(-8.43844e-05 1.85708e-05 0)
(-0.000125898 2.6305e-05 0)
(-0.000183576 5.86096e-05 0)
(-0.00020499 0.000105149 0)
(-0.000160496 0.000102478 0)
(-7.82446e-05 4.63186e-05 0)
(-1.21124e-05 -1.71283e-05 0)
(2.67715e-05 -6.74646e-05 0)
(8.88997e-05 -0.000103418 0)
(0.000207281 -0.000128953 0)
(0.000379343 -0.000149443 0)
(0.000567248 -0.000168214 0)
(0.000732601 -0.000186774 0)
(0.000802507 -0.0002036 0)
(0.000737934 -0.000214419 0)
(0.000478428 -0.000217284 0)
(8.42507e-05 -0.00020758 0)
(-0.000346703 -0.000191466 0)
(-0.000569793 -0.00016923 0)
(-0.000500181 -0.000135317 0)
(-0.000254915 -9.21812e-05 0)
(-8.21964e-05 -3.5359e-05 0)
(-2.39898e-05 -2.49433e-06 0)
(2.63654e-05 9.57143e-06 0)
(8.60892e-06 7.73128e-06 0)
(-1.39524e-05 -4.60915e-06 0)
(-3.94376e-05 -1.03049e-05 0)
(-4.00292e-05 -9.26446e-06 0)
(-4.23903e-05 2.80383e-07 0)
(-4.83509e-05 1.15115e-05 0)
(-6.85976e-05 2.75459e-05 0)
(-8.42039e-05 4.15907e-05 0)
(-0.000102888 2.92832e-05 0)
(-0.000159311 -1.61639e-05 0)
(-0.000217696 -9.49425e-05 0)
(-0.000197623 -0.000214853 0)
(-0.000129003 -0.000352691 0)
(-6.5256e-05 -0.000471971 0)
(2.12018e-05 -0.00055391 0)
(0.000155669 -0.000605819 0)
(0.000335491 -0.000643051 0)
(0.000526523 -0.000674741 0)
(0.00069489 -0.000705321 0)
(0.000773442 -0.000726148 0)
(0.000723275 -0.000723152 0)
(0.00048418 -0.000683805 0)
(0.000108083 -0.0005929 0)
(-0.000312159 -0.000479374 0)
(-0.000519506 -0.000357603 0)
(-0.000429606 -0.000271806 0)
(-0.000158052 -0.000209018 0)
(8.04691e-06 -0.000133217 0)
(2.26986e-05 -9.01884e-05 0)
(3.92659e-05 -7.63569e-05 0)
(2.95805e-06 3.98013e-05 0)
(-2.64888e-05 1.8315e-05 0)
(-4.99689e-05 7.144e-06 0)
(-4.04029e-05 2.94913e-06 0)
(-3.45347e-05 1.15313e-05 0)
(-3.34021e-05 1.39259e-05 0)
(-5.12123e-05 -8.42099e-06 0)
(-0.000121981 -7.98322e-05 0)
(-0.000239777 -0.000207992 0)
(-0.000327563 -0.000386318 0)
(-0.000358819 -0.000559734 0)
(-0.000338576 -0.000713529 0)
(-0.000274526 -0.000861506 0)
(-0.000180423 -0.000985154 0)
(-4.99051e-05 -0.00107174 0)
(0.000114826 -0.00113184 0)
(0.000308849 -0.00118573 0)
(0.000505034 -0.00124047 0)
(0.000682291 -0.00130171 0)
(0.000786217 -0.00134639 0)
(0.000781049 -0.00135172 0)
(0.000607334 -0.00127532 0)
(0.000283278 -0.00108697 0)
(-0.000121969 -0.000811178 0)
(-0.000377594 -0.000481308 0)
(-0.000369544 -0.000266032 0)
(-0.000129126 -0.000132308 0)
(3.16369e-05 -0.000124791 0)
(3.32925e-05 -0.00013265 0)
(4.11702e-05 -0.000139188 0)
(-8.5041e-06 7.25167e-05 0)
(-4.38434e-05 3.92886e-05 0)
(-5.79053e-05 2.93749e-05 0)
(-3.77915e-05 1.98565e-05 0)
(-3.12324e-05 1.05282e-05 0)
(-6.74096e-05 -4.21599e-05 0)
(-0.000162802 -0.000157982 0)
(-0.000284663 -0.000352835 0)
(-0.000409508 -0.000573783 0)
(-0.00051137 -0.000780205 0)
(-0.000545991 -0.000957989 0)
(-0.00050064 -0.0010987 0)
(-0.000400974 -0.0012049 0)
(-0.00027386 -0.00128006 0)
(-0.000121589 -0.00133536 0)
(4.78448e-05 -0.00138397 0)
(0.000235 -0.00144689 0)
(0.000420132 -0.00152529 0)
(0.000599071 -0.00162878 0)
(0.000733002 -0.00172466 0)
(0.000801824 -0.00179375 0)
(0.000752514 -0.00176262 0)
(0.000568917 -0.0015914 0)
(0.000281145 -0.00124657 0)
(4.90243e-06 -0.000769367 0)
(-0.000105836 -0.0003467 0)
(-3.72892e-05 -8.18087e-05 0)
(-2.15275e-06 -2.36521e-05 0)
(5.92599e-06 -0.00010762 0)
(3.32011e-05 -0.000124016 0)
(-2.69823e-05 0.0001372 0)
(-7.04473e-05 9.96345e-05 0)
(-7.70665e-05 9.24774e-05 0)
(-6.55985e-05 5.72746e-05 0)
(-0.000101165 -1.21024e-05 0)
(-0.000206301 -0.000164483 0)
(-0.000364998 -0.000386459 0)
(-0.000537839 -0.000647928 0)
(-0.000665066 -0.000897277 0)
(-0.00070946 -0.0010901 0)
(-0.000674772 -0.00120894 0)
(-0.000582088 -0.00127262 0)
(-0.000450957 -0.00130485 0)
(-0.000303886 -0.00131796 0)
(-0.000144562 -0.00132788 0)
(1.48281e-05 -0.00134365 0)
(0.000181041 -0.00138602 0)
(0.000338035 -0.00145191 0)
(0.000498281 -0.00155886 0)
(0.000635994 -0.00167532 0)
(0.000755886 -0.001801 0)
(0.000818945 -0.00185584 0)
(0.000802201 -0.00181103 0)
(0.000693146 -0.00157141 0)
(0.000503241 -0.0011527 0)
(0.000290668 -0.000645313 0)
(0.000171589 -0.000243697 0)
(-2.16231e-06 -1.55987e-05 0)
(-6.79634e-05 -0.000131464 0)
(2.57784e-05 -0.000132581 0)
(-4.52095e-05 0.000193533 0)
(-9.4819e-05 0.000158455 0)
(-0.000113697 0.000146483 0)
(-0.000154172 6.64163e-05 0)
(-0.000261812 -8.31117e-05 0)
(-0.000446351 -0.000327118 0)
(-0.000644939 -0.000613195 0)
(-0.000789994 -0.000879123 0)
(-0.00084535 -0.00106506 0)
(-0.00081682 -0.00116784 0)
(-0.000721824 -0.0012048 0)
(-0.000588544 -0.00119893 0)
(-0.000435815 -0.00117456 0)
(-0.000283307 -0.0011434 0)
(-0.000130491 -0.00112114 0)
(9.29896e-06 -0.00110949 0)
(0.000148339 -0.001127 0)
(0.000269722 -0.00116578 0)
(0.000397482 -0.00124947 0)
(0.000510621 -0.00135099 0)
(0.000637634 -0.00149175 0)
(0.00075451 -0.00160387 0)
(0.000859982 -0.00168982 0)
(0.000938726 -0.00162981 0)
(0.000918933 -0.00141879 0)
(0.00077867 -0.00103973 0)
(0.000565805 -0.000505905 0)
(9.90243e-05 -0.000296981 0)
(-0.00010668 -3.94176e-05 0)
(3.48198e-05 -0.000212397 0)
(-6.4282e-05 0.000212277 0)
(-0.000129207 0.000181581 0)
(-0.000186621 0.000145752 0)
(-0.000308324 9.50869e-06 0)
(-0.000500949 -0.000213145 0)
(-0.0007344 -0.00050656 0)
(-0.000908398 -0.000781357 0)
(-0.000979268 -0.000980507 0)
(-0.000944386 -0.00108509 0)
(-0.000840146 -0.00111433 0)
(-0.000695766 -0.00109609 0)
(-0.000539296 -0.00105574 0)
(-0.000379334 -0.00101313 0)
(-0.000230521 -0.000971691 0)
(-8.68365e-05 -0.000942365 0)
(3.63072e-05 -0.000918879 0)
(0.000155024 -0.000918212 0)
(0.000247819 -0.000927659 0)
(0.000345473 -0.000974793 0)
(0.000423984 -0.00103409 0)
(0.000528169 -0.00114206 0)
(0.000638774 -0.00124524 0)
(0.00078587 -0.00138066 0)
(0.000965632 -0.00143877 0)
(0.00108664 -0.00144597 0)
(0.00118445 -0.00125955 0)
(0.000885327 -0.000862556 0)
(0.000443333 -0.000609861 0)
(2.20402e-05 2.87463e-05 0)
(-0.000140239 -0.000358571 0)
(-8.01936e-05 0.000140347 0)
(-0.000175495 0.000114406 0)
(-0.000302875 5.13228e-05 0)
(-0.000522264 -0.000123609 0)
(-0.000776818 -0.000376604 0)
(-0.00100431 -0.000652867 0)
(-0.00110476 -0.000863548 0)
(-0.00108126 -0.000978959 0)
(-0.000968876 -0.00101162 0)
(-0.000817796 -0.000996095 0)
(-0.000652253 -0.000960162 0)
(-0.000492713 -0.000920498 0)
(-0.000336949 -0.000887644 0)
(-0.000195897 -0.000856368 0)
(-5.89557e-05 -0.000834281 0)
(5.51688e-05 -0.000809399 0)
(0.000165491 -0.000799971 0)
(0.000244443 -0.000789186 0)
(0.000327307 -0.000808445 0)
(0.00038275 -0.000830213 0)
(0.000464449 -0.000898656 0)
(0.000547223 -0.000966538 0)
(0.000686605 -0.00109095 0)
(0.000879991 -0.00118318 0)
(0.00109429 -0.00130734 0)
(0.00134892 -0.00127174 0)
(0.0011916 -0.0011713 0)
(0.000955146 -0.000729669 0)
(0.000138405 -0.000364006 0)
(-0.000339764 -0.000311405 0)
(-9.50748e-05 -2.06112e-05 0)
(-0.000231596 -4.28533e-05 0)
(-0.000437236 -0.000126207 0)
(-0.00073788 -0.000304031 0)
(-0.00102039 -0.000534371 0)
(-0.00120457 -0.000745158 0)
(-0.00121838 -0.000872533 0)
(-0.0011159 -0.000916743 0)
(-0.000953309 -0.000908512 0)
(-0.00078214 -0.0008794 0)
(-0.00061502 -0.000850284 0)
(-0.00046329 -0.000826529 0)
(-0.000314404 -0.000811014 0)
(-0.000179167 -0.000791768 0)
(-4.36117e-05 -0.000776049 0)
(6.79906e-05 -0.000748298 0)
(0.000177421 -0.000730387 0)
(0.000250401 -0.000702279 0)
(0.000326713 -0.000699823 0)
(0.000367505 -0.000692918 0)
(0.00043311 -0.000729676 0)
(0.000488296 -0.000764149 0)
(0.000603195 -0.000860122 0)
(0.000767299 -0.000943731 0)
(0.0010007 -0.00109656 0)
(0.00131091 -0.00116173 0)
(0.00140951 -0.00121605 0)
(0.001215 -0.000854351 0)
(0.000421062 -0.000596214 0)
(-7.77934e-05 3.26178e-05 0)
(-0.000106617 -0.00021726 0)
(-0.000291545 -0.000232802 0)
(-0.000570597 -0.000318094 0)
(-0.0009242 -0.00046905 0)
(-0.00120109 -0.000646218 0)
(-0.0013227 -0.000779413 0)
(-0.00126193 -0.000835682 0)
(-0.00111006 -0.00083421 0)
(-0.000929518 -0.000809801 0)
(-0.000762144 -0.000784664 0)
(-0.00060707 -0.00077148 0)
(-0.000467431 -0.000764929 0)
(-0.000323874 -0.000764509 0)
(-0.000190076 -0.000753459 0)
(-5.00256e-05 -0.000741688 0)
(6.53188e-05 -0.000710581 0)
(0.000180667 -0.000686718 0)
(0.000255137 -0.000646378 0)
(0.000332795 -0.000629755 0)
(0.000367687 -0.000603473 0)
(0.000425021 -0.00061816 0)
(0.000458767 -0.000627068 0)
(0.000549332 -0.000694713 0)
(0.000673002 -0.000754278 0)
(0.000888059 -0.000893837 0)
(0.00122309 -0.00098785 0)
(0.00148656 -0.00109833 0)
(0.00154923 -0.000921027 0)
(0.000996537 -0.000445373 0)
(0.000286501 0.000148882 0)
(-0.000114117 -0.000398911 0)
(-0.000339781 -0.000405668 0)
(-0.000673919 -0.00047864 0)
(-0.00105284 -0.000583389 0)
(-0.0013093 -0.000696153 0)
(-0.00137451 -0.00075826 0)
(-0.00126324 -0.000764436 0)
(-0.00108972 -0.000738923 0)
(-0.000910969 -0.000712827 0)
(-0.000758432 -0.000696533 0)
(-0.000617925 -0.000697604 0)
(-0.000488621 -0.000702332 0)
(-0.00034644 -0.000711014 0)
(-0.000210762 -0.000702943 0)
(-6.3398e-05 -0.00069254 0)
(5.7292e-05 -0.000657893 0)
(0.000179826 -0.000630537 0)
(0.000257094 -0.000583077 0)
(0.000338065 -0.000559689 0)
(0.000370893 -0.000524068 0)
(0.000425697 -0.000528582 0)
(0.000446697 -0.000524423 0)
(0.000520515 -0.000574337 0)
(0.000605892 -0.000614374 0)
(0.000788542 -0.000733503 0)
(0.00110487 -0.000833363 0)
(0.00146497 -0.00100704 0)
(0.00184885 -0.000999181 0)
(0.00145587 -0.000724297 0)
(0.000498495 -0.000382852 0)
(-0.000116186 -0.000514039 0)
(-0.000375661 -0.00051143 0)
(-0.000743477 -0.000566346 0)
(-0.00112347 -0.000627082 0)
(-0.00135238 -0.000686193 0)
(-0.00137394 -0.000699561 0)
(-0.0012388 -0.000678487 0)
(-0.00106645 -0.000644513 0)
(-0.000904274 -0.000622515 0)
(-0.000772396 -0.000613687 0)
(-0.000646917 -0.000623708 0)
(-0.000525794 -0.000633031 0)
(-0.000382586 -0.000645592 0)
(-0.000243076 -0.000636908 0)
(-8.69357e-05 -0.000626935 0)
(4.03596e-05 -0.00058964 0)
(0.000171124 -0.000561202 0)
(0.000252505 -0.00051032 0)
(0.000337961 -0.000484415 0)
(0.000370514 -0.000444813 0)
(0.000425286 -0.000445607 0)
(0.000438236 -0.00043623 0)
(0.000501546 -0.000478523 0)
(0.000556072 -0.000507087 0)
(0.000699013 -0.000609002 0)
(0.00095472 -0.000702166 0)
(0.00131047 -0.000909273 0)
(0.00182143 -0.00104268 0)
(0.00158316 -0.00112812 0)
(0.000604654 -0.00100763 0)
(-0.00011402 -0.000553896 0)
(-0.000394258 -0.00054199 0)
(-0.000780583 -0.000578564 0)
(-0.0011509 -0.000601501 0)
(-0.00135762 -0.000621725 0)
(-0.00135339 -0.000604598 0)
(-0.00121099 -0.000571884 0)
(-0.00104944 -0.000535818 0)
(-0.000904553 -0.000517769 0)
(-0.000790671 -0.000511264 0)
(-0.000675394 -0.000523949 0)
(-0.000559436 -0.000532067 0)
(-0.000413418 -0.000545212 0)
(-0.000270265 -0.000534969 0)
(-0.000106443 -0.000526836 0)
(2.58438e-05 -0.000490141 0)
(0.000163036 -0.000464873 0)
(0.000247245 -0.000415922 0)
(0.000336272 -0.000392857 0)
(0.000368513 -0.000354833 0)
(0.000424134 -0.000357337 0)
(0.000431537 -0.000347946 0)
(0.000488557 -0.000388927 0)
(0.000519328 -0.000411873 0)
(0.000628744 -0.000502171 0)
(0.000814933 -0.000580435 0)
(0.00111371 -0.000784409 0)
(0.00162127 -0.000967909 0)
(0.00147151 -0.00124369 0)
(0.000603457 -0.00127135 0)
(-0.000106772 -0.000520876 0)
(-0.00040093 -0.000502334 0)
(-0.000790693 -0.000524121 0)
(-0.00114225 -0.000522864 0)
(-0.00133142 -0.000519982 0)
(-0.00131425 -0.000489748 0)
(-0.0011784 -0.000455644 0)
(-0.00103342 -0.000421506 0)
(-0.000907282 -0.000406011 0)
(-0.000809395 -0.000398048 0)
(-0.0007028 -0.00040937 0)
(-0.000591586 -0.000413096 0)
(-0.000443943 -0.00042552 0)
(-0.000298865 -0.000413719 0)
(-0.000129474 -0.00040873 0)
(6.40415e-06 -0.000374802 0)
(0.000148731 -0.000355247 0)
(0.000235324 -0.000311132 0)
(0.000327761 -0.000293693 0)
(0.00036017 -0.00025963 0)
(0.000417594 -0.000266203 0)
(0.000421452 -0.000258356 0)
(0.000475374 -0.000300638 0)
(0.000488458 -0.000319544 0)
(0.000569743 -0.000401035 0)
(0.000686977 -0.000460958 0)
(0.000911852 -0.00064282 0)
(0.0013512 -0.000821274 0)
(0.0012629 -0.00116549 0)
(0.000565055 -0.00125508 0)
(-9.83105e-05 -0.000436717 0)
(-0.000397229 -0.000411118 0)
(-0.00078643 -0.000420852 0)
(-0.00112069 -0.000402415 0)
(-0.00130071 -0.000387841 0)
(-0.00128205 -0.000352086 0)
(-0.00115507 -0.000321526 0)
(-0.0010236 -0.000288308 0)
(-0.000907845 -0.000273208 0)
(-0.000819374 -0.000260032 0)
(-0.000715913 -0.000267163 0)
(-0.000607751 -0.000264574 0)
(-0.000458659 -0.000275796 0)
(-0.000313564 -0.000263457 0)
(-0.000141326 -0.00026355 0)
(-4.40328e-06 -0.000235521 0)
(0.00014048 -0.000224983 0)
(0.000227623 -0.000189302 0)
(0.000322037 -0.00018087 0)
(0.000353896 -0.000153315 0)
(0.000413073 -0.000165973 0)
(0.000413861 -0.000160318 0)
(0.000466809 -0.000204884 0)
(0.000467033 -0.000220155 0)
(0.000529551 -0.000295989 0)
(0.000590766 -0.000335693 0)
(0.000742497 -0.000487043 0)
(0.001086 -0.000624072 0)
(0.00102244 -0.000957184 0)
(0.000504315 -0.00106337 0)
(-8.46677e-05 -0.000328806 0)
(-0.000384645 -0.000297195 0)
(-0.000765417 -0.000293717 0)
(-0.00108145 -0.000264552 0)
(-0.00125682 -0.000241755 0)
(-0.00124222 -0.000206436 0)
(-0.00112882 -0.000180876 0)
(-0.00100915 -0.000150222 0)
(-0.0009021 -0.000135386 0)
(-0.000820045 -0.000116621 0)
(-0.000719374 -0.000119504 0)
(-0.000615055 -0.000110823 0)
(-0.000467232 -0.000121976 0)
(-0.000324842 -0.00011045 0)
(-0.00015296 -0.000117313 0)
(-1.71933e-05 -9.6661e-05 0)
(0.000128456 -9.67003e-05 0)
(0.000215587 -7.02779e-05 0)
(0.000312056 -7.17742e-05 0)
(0.000344146 -5.03607e-05 0)
(0.000406346 -6.8615e-05 0)
(0.000405471 -6.29565e-05 0)
(0.000459417 -0.000107444 0)
(0.000449553 -0.000115655 0)
(0.000499793 -0.000184675 0)
(0.00051627 -0.000203269 0)
(0.000612316 -0.000326137 0)
(0.000865046 -0.000409553 0)
(0.000807878 -0.000700621 0)
(0.000450996 -0.000787403 0)
(-7.13217e-05 -0.000215911 0)
(-0.000362369 -0.000174494 0)
(-0.000736225 -0.000155755 0)
(-0.00103984 -0.000113388 0)
(-0.00121735 -8.50941e-05 0)
(-0.00121521 -4.76729e-05 0)
(-0.00111303 -2.77526e-05 0)
(-0.00100096 2.08261e-06 0)
(-0.000893047 1.57433e-05 0)
(-0.000811296 3.94454e-05 0)
(-0.000707973 3.93042e-05 0)
(-0.000605694 5.26093e-05 0)
(-0.00045896 4.04545e-05 0)
(-0.000320434 4.99858e-05 0)
(-0.000150886 3.57009e-05 0)
(-1.79525e-05 4.82005e-05 0)
(0.000126754 3.69353e-05 0)
(0.000212984 5.36989e-05 0)
(0.000311018 4.19257e-05 0)
(0.000343336 5.76305e-05 0)
(0.00040909 3.44625e-05 0)
(0.000407262 4.17349e-05 0)
(0.000463977 -8.80001e-07 0)
(0.000446543 3.38681e-07 0)
(0.000490815 -6.12447e-05 0)
(0.000472122 -5.80555e-05 0)
(0.000524835 -0.000157096 0)
(0.000691878 -0.00018616 0)
(0.000627859 -0.000431663 0)
(0.000410619 -0.000484684 0)
(-4.95829e-05 -0.000125531 0)
(-0.00032652 -7.34505e-05 0)
(-0.00068642 -3.19063e-05 0)
(-0.000980599 2.50159e-05 0)
(-0.00116381 6.72109e-05 0)
(-0.00117674 0.000107862 0)
(-0.00109155 0.000125686 0)
(-0.000986841 0.00015239 0)
(-0.00088023 0.000162274 0)
(-0.000797504 0.000187597 0)
(-0.000692397 0.000186771 0)
(-0.000592137 0.000202394 0)
(-0.000448088 0.000186723 0)
(-0.000314537 0.000193123 0)
(-0.000149053 0.00016988 0)
(-1.98001e-05 0.000174281 0)
(0.000123383 0.000151398 0)
(0.000208984 0.000159956 0)
(0.000309526 0.000138892 0)
(0.000343453 0.000151468 0)
(0.000414465 0.000125864 0)
(0.000413167 0.00013834 0)
(0.000474439 0.000101504 0)
(0.000450301 0.00011641 0)
(0.000493321 6.53902e-05 0)
(0.000445377 9.1971e-05 0)
(0.000472106 1.09625e-05 0)
(0.000565997 3.43322e-05 0)
(0.000490455 -0.000173148 0)
(0.000391487 -0.000181664 0)
(-2.82273e-05 -4.90592e-05 0)
(-0.000273947 1.81538e-05 0)
(-0.000620903 8.13317e-05 0)
(-0.000910329 0.000161926 0)
(-0.00110502 0.000217425 0)
(-0.0011451 0.000270692 0)
(-0.00107761 0.000286776 0)
(-0.00098331 0.000312717 0)
(-0.00087173 0.000315209 0)
(-0.000785088 0.000338079 0)
(-0.000673306 0.000331517 0)
(-0.000572692 0.000345205 0)
(-0.000429605 0.000323468 0)
(-0.000300064 0.000325371 0)
(-0.000138324 0.000293751 0)
(-1.20305e-05 0.000291302 0)
(0.00013027 0.000259096 0)
(0.000216464 0.000261822 0)
(0.000320768 0.000234507 0)
(0.00035797 0.000246627 0)
(0.000435718 0.000222045 0)
(0.000436619 0.000242429 0)
(0.000504414 0.000214907 0)
(0.000474688 0.000245969 0)
(0.000520279 0.000208062 0)
(0.000444413 0.000258631 0)
(0.000454699 0.000190648 0)
(0.000478256 0.000260354 0)
(0.000390184 7.39625e-05 0)
(0.000395669 0.000113631 0)
(4.66694e-06 -2.32124e-06 0)
(-0.000206452 7.43533e-05 0)
(-0.000528204 0.000159598 0)
(-0.000814182 0.00026353 0)
(-0.00102294 0.000349061 0)
(-0.00109086 0.00041976 0)
(-0.00105389 0.000444887 0)
(-0.000974954 0.000470049 0)
(-0.000868988 0.000462966 0)
(-0.000780938 0.000478905 0)
(-0.000665766 0.000460708 0)
(-0.000563642 0.000468919 0)
(-0.000420894 0.000436951 0)
(-0.000293159 0.000433352 0)
(-0.000133702 0.000391244 0)
(-8.39366e-06 0.000383092 0)
(0.000134879 0.000341179 0)
(0.000223771 0.000340495 0)
(0.000333982 0.000307879 0)
(0.000376682 0.000322475 0)
(0.00046332 0.000300825 0)
(0.000468181 0.000331943 0)
(0.000544485 0.000316213 0)
(0.000509032 0.00036596 0)
(0.0005604 0.000343205 0)
(0.000455605 0.000419443 0)
(0.000461129 0.000360644 0)
(0.000414791 0.000476305 0)
(0.0003192 0.000299573 0)
(0.000424979 0.000398372 0)
(3.0022e-05 5.85904e-05 0)
(-0.000129232 0.000138605 0)
(-0.000422138 0.000227563 0)
(-0.000692882 0.000363448 0)
(-0.000914931 0.00047152 0)
(-0.00102725 0.000574797 0)
(-0.0010251 0.000608867 0)
(-0.000977489 0.000639602 0)
(-0.0008771 0.000619998 0)
(-0.000791079 0.000625271 0)
(-0.000669884 0.000589638 0)
(-0.000564752 0.00058666 0)
(-0.000419761 0.000541194 0)
(-0.000291259 0.000529654 0)
(-0.000131426 0.000478204 0)
(-4.14925e-06 0.000465108 0)
(0.00014298 0.000417818 0)
(0.000237997 0.000415877 0)
(0.000357028 0.000383452 0)
(0.000408872 0.0004026 0)
(0.000507065 0.000389199 0)
(0.000519035 0.000432876 0)
(0.000606466 0.000433694 0)
(0.000566376 0.000503846 0)
(0.000627037 0.000499938 0)
(0.00048975 0.00060227 0)
(0.000499375 0.000550984 0)
(0.000378283 0.000708025 0)
(0.000285005 0.000523478 0)
(0.000488823 0.000691313 0)
(6.18197e-05 9.42562e-05 0)
(-6.25212e-05 0.000143408 0)
(-0.000300763 0.00024533 0)
(-0.000546285 0.000398083 0)
(-0.000777345 0.000559457 0)
(-0.000925799 0.000699563 0)
(-0.000979037 0.000765952 0)
(-0.000970159 0.000808899 0)
(-0.000896457 0.000781432 0)
(-0.000819476 0.000775042 0)
(-0.000699857 0.00071647 0)
(-0.000590804 0.000698666 0)
(-0.000442262 0.000633494 0)
(-0.00030821 0.000612472 0)
(-0.000144127 0.000547334 0)
(-9.93294e-06 0.00053021 0)
(0.000144873 0.000474284 0)
(0.000250175 0.000473178 0)
(0.000381463 0.000437566 0)
(0.000445798 0.000463212 0)
(0.000558818 0.000453893 0)
(0.00058014 0.000510887 0)
(0.000681762 0.000523213 0)
(0.000636701 0.000612781 0)
(0.000709335 0.00062321 0)
(0.000533911 0.000750548 0)
(0.000556104 0.000704844 0)
(0.000345719 0.000906851 0)
(0.000273937 0.000718489 0)
(0.000588839 0.000992489 0)
(5.73415e-05 0.00014086 0)
(-9.18426e-06 0.000158163 0)
(-0.000174455 0.000260005 0)
(-0.000362376 0.000442223 0)
(-0.000581743 0.000635213 0)
(-0.000788901 0.000830815 0)
(-0.000896907 0.000922214 0)
(-0.000959288 0.000987301 0)
(-0.000919039 0.000951879 0)
(-0.000865083 0.000934885 0)
(-0.000749163 0.000852041 0)
(-0.000638129 0.000815575 0)
(-0.000484282 0.000729642 0)
(-0.000342746 0.000695142 0)
(-0.000170874 0.00061856 0)
(-2.67081e-05 0.000594448 0)
(0.000139735 0.000535398 0)
(0.000258831 0.00053234 0)
(0.000406032 0.000500819 0)
(0.000486631 0.000529559 0)
(0.000617393 0.0005318 0)
(0.000651707 0.00059876 0)
(0.000769856 0.000629851 0)
(0.00072246 0.000738066 0)
(0.000811049 0.000771355 0)
(0.000597219 0.000926807 0)
(0.000646869 0.000897136 0)
(0.000348297 0.00114642 0)
(0.000340004 0.00095376 0)
(0.000760632 0.00137467 0)
(6.49432e-05 0.000145947 0)
(2.43026e-05 8.68512e-05 0)
(-3.45363e-05 0.000215711 0)
(-0.00016474 0.000387948 0)
(-0.000363715 0.000662843 0)
(-0.000606246 0.000900923 0)
(-0.000796167 0.00105173 0)
(-0.000927685 0.0011457 0)
(-0.000948796 0.00111685 0)
(-0.000924777 0.00109504 0)
(-0.000824525 0.000988817 0)
(-0.000711376 0.000933468 0)
(-0.000552962 0.00082146 0)
(-0.000398438 0.00077218 0)
(-0.000215978 0.00067687 0)
(-5.54423e-05 0.000646792 0)
(0.000125616 0.000575128 0)
(0.000263946 0.000573639 0)
(0.000430077 0.000532296 0)
(0.00053122 0.000568657 0)
(0.000683997 0.00056201 0)
(0.000734478 0.000642003 0)
(0.000875558 0.000665396 0)
(0.000827508 0.000791283 0)
(0.000938924 0.000822438 0)
(0.000683045 0.00100144 0)
(0.000769642 0.00098675 0)
(0.000358429 0.00128504 0)
(0.000471807 0.00115697 0)
(0.00101195 0.00186263 0)
(-6.11105e-06 0.000127166 0)
(3.38951e-05 0.000108481 0)
(9.8523e-05 0.000197525 0)
(7.83485e-05 0.0004281 0)
(-5.39199e-05 0.000702399 0)
(-0.000372344 0.000992551 0)
(-0.000622433 0.00115876 0)
(-0.000871227 0.00128033 0)
(-0.000958241 0.00125311 0)
(-0.000988971 0.00123016 0)
(-0.000911341 0.00110926 0)
(-0.000803686 0.00103782 0)
(-0.00064078 0.000908194 0)
(-0.000474765 0.000842014 0)
(-0.000277735 0.000735139 0)
(-0.000101842 0.000692293 0)
(9.86932e-05 0.000616341 0)
(0.000254069 0.000604807 0)
(0.000443045 0.000564989 0)
(0.000561502 0.000592043 0)
(0.000737807 0.0005925 0)
(0.000802111 0.000665147 0)
(0.000964926 0.000703881 0)
(0.000920428 0.000831613 0)
(0.00105511 0.000894366 0)
(0.000780558 0.00110211 0)
(0.000925531 0.00116115 0)
(0.000470731 0.0015427 0)
(0.000884371 0.00158866 0)
(0.0014731 0.00269581 0)
(4.85067e-05 0.000216632 0)
(8.06434e-05 2.23291e-05 0)
(0.000251796 0.000167395 0)
(0.000319179 0.000338176 0)
(0.000201647 0.000691006 0)
(-0.00013249 0.000975532 0)
(-0.000483564 0.00118851 0)
(-0.00080746 0.00131973 0)
(-0.000979178 0.00130978 0)
(-0.00105387 0.00128952 0)
(-0.00100795 0.00116459 0)
(-0.000903554 0.00108348 0)
(-0.000740185 0.000940698 0)
(-0.000558559 0.000862694 0)
(-0.000349458 0.000740977 0)
(-0.00015233 0.000692059 0)
(6.42533e-05 0.000598992 0)
(0.000243303 0.000589116 0)
(0.000451277 0.00052402 0)
(0.000594966 0.000560261 0)
(0.000794854 0.00051987 0)
(0.00088341 0.000609463 0)
(0.00107854 0.000588782 0)
(0.00105023 0.000743882 0)
(0.00123517 0.00075018 0)
(0.000963005 0.00100958 0)
(0.00120581 0.00111111 0)
(0.000739716 0.00160259 0)
(0.00160824 0.00205342 0)
(0.00214615 0.00419899 0)
(-0.000199132 -1.09681e-05 0)
(-2.08349e-05 0.000103008 0)
(0.000384906 0.000161956 0)
(0.000570862 0.000521637 0)
(0.000569685 0.000771134 0)
(0.000130107 0.00102687 0)
(-0.000263224 0.00116534 0)
(-0.000728389 0.00126952 0)
(-0.000968181 0.00125085 0)
(-0.00111379 0.0012286 0)
(-0.00110136 0.00111661 0)
(-0.0010113 0.00103675 0)
(-0.000846911 0.000902971 0)
(-0.000657489 0.000821655 0)
(-0.00043037 0.000701975 0)
(-0.000222556 0.00064529 0)
(1.89523e-05 0.000549654 0)
(0.000204891 0.000525642 0)
(0.000441396 0.000455763 0)
(0.00058544 0.000466719 0)
(0.000815514 0.000424857 0)
(0.0008985 0.000474485 0)
(0.00112549 0.000473053 0)
(0.00110273 0.000585574 0)
(0.00133594 0.000680475 0)
(0.00114541 0.000957164 0)
(0.00151294 0.00135523 0)
(0.001354 0.00215175 0)
(0.003452 0.00395856 0)
(0.00365775 0.00757763 0)
(0.000157261 0.00067963 0)
(0.000242605 -6.38208e-06 0)
(0.000640571 0.000122375 0)
(0.000887668 0.000274195 0)
(0.000675915 0.000626587 0)
(0.000249764 0.000828373 0)
(-0.000241416 0.000971291 0)
(-0.00071185 0.00102843 0)
(-0.00100817 0.00101558 0)
(-0.00117207 0.000986158 0)
(-0.00118456 0.000893812 0)
(-0.00110022 0.000823125 0)
(-0.000938813 0.000709521 0)
(-0.000741733 0.000637288 0)
(-0.000507722 0.000530371 0)
(-0.000285658 0.000480051 0)
(-3.60899e-05 0.000385614 0)
(0.000168314 0.000367638 0)
(0.000410948 0.00028128 0)
(0.000580765 0.000303183 0)
(0.00081884 0.000217109 0)
(0.000944587 0.000293128 0)
(0.00120104 0.000206349 0)
(0.00126287 0.00037962 0)
(0.00160809 0.000350685 0)
(0.00163271 0.000786673 0)
(0.00239201 0.00121312 0)
(0.00328388 0.0028234 0)
(0.00711119 0.00600859 0)
(0.00589209 0.0125465 0)
(-0.000908287 -0.00219687 0)
(-0.000600277 0.000240981 0)
(0.00064029 0.000632581 0)
(0.00104429 0.000612869 0)
(0.00108896 0.000724295 0)
(0.000448645 0.000725293 0)
(-8.18355e-05 0.000682669 0)
(-0.000693163 0.000652737 0)
(-0.00101626 0.000617666 0)
(-0.00123776 0.000586481 0)
(-0.00126573 0.000538133 0)
(-0.00119632 0.000495425 0)
(-0.00103346 0.000434768 0)
(-0.000838482 0.000391166 0)
(-0.000589799 0.000325984 0)
(-0.000372139 0.000295269 0)
(-9.90318e-05 0.000229447 0)
(9.08606e-05 0.000218705 0)
(0.000366246 0.000153067 0)
(0.000505797 0.000164956 0)
(0.000789938 0.000103588 0)
(0.00086843 0.000142139 0)
(0.00119304 0.00012248 0)
(0.00122527 0.000233259 0)
(0.00172053 0.000488984 0)
(0.00198261 0.00106279 0)
(0.00349849 0.00288479 0)
(0.00588583 0.00646529 0)
(0.0128643 0.01494 0)
(0.010083 0.0264929 0)
(0.00259931 -0.00305765 0)
(0.00310886 0.000479331 0)
(0.0010246 0.000654557 0)
(0.000965212 0.000840605 0)
(0.000769713 0.000574822 0)
(0.000183512 0.000519215 0)
(-0.000344836 0.000315718 0)
(-0.000810022 0.000271915 0)
(-0.00110643 0.000222127 0)
(-0.00128712 0.000206176 0)
(-0.00130863 0.000201682 0)
(-0.00124153 0.000189825 0)
(-0.00107832 0.000187288 0)
(-0.000892289 0.000172539 0)
(-0.00064322 0.000166072 0)
(-0.000429633 0.000148716 0)
(-0.000158444 0.000143691 0)
(3.78716e-05 0.000121881 0)
(0.000305577 0.000128356 0)
(0.000473726 9.58422e-05 0)
(0.000744137 0.000133909 0)
(0.000908534 8.18749e-05 0)
(0.00124292 0.000205973 0)
(0.00157779 0.000156268 0)
(0.00239967 0.00058149 0)
(0.00401837 0.000837779 0)
(0.00777367 0.00258931 0)
(0.0149255 0.00506286 0)
(0.0268785 0.011712 0)
(0.0178094 0.0187453 0)
)
;

boundaryField
{
    movingWall
    {
        type            fixedValue;
        value           uniform (1 0 0);
    }
    fixedWalls
    {
        type            noSlip;
    }
    frontAndBack
    {
        type            empty;
    }
}


// ************************************************************************* //
