/*--------------------------------*- C++ -*----------------------------------*\
| =========                 |                                                 |
| \\      /  F ield         | OpenFOAM: The Open Source CFD Toolbox           |
|  \\    /   O peration     | Version:  2406                                  |
|   \\  /    A nd           | Website:  www.openfoam.com                      |
|    \\/     M anipulation  |                                                 |
\*---------------------------------------------------------------------------*/
FoamFile
{
    version     2.0;
    format      ascii;
    arch        "LSB;label=32;scalar=64";
    class       volScalarField;
    location    "17.55";
    object      p;
}
// * * * * * * * * * * * * * * * * * * * * * * * * * * * * * * * * * * * * * //

dimensions      [0 2 -2 0 0 0 0];

internalField   nonuniform List<scalar> 
14400
(
0.0270792
0.0270798
0.0270779
0.0270747
0.0270696
0.0270634
0.0270562
0.0270482
0.0270396
0.0270304
0.0270207
0.0270106
0.0269999
0.0269887
0.026977
0.0269646
0.0269517
0.0269382
0.0269242
0.0269095
0.0268944
0.0268787
0.0268626
0.0268462
0.0268294
0.0268123
0.0267951
0.0267777
0.0267604
0.0267432
0.0267262
0.0267095
0.0266934
0.0266779
0.0266633
0.0266498
0.0266375
0.0266268
0.0266179
0.0266111
0.0266068
0.0266053
0.026607
0.0266122
0.0266216
0.0266354
0.0266542
0.0266784
0.0267084
0.0267448
0.0267878
0.0268378
0.026895
0.0269598
0.027032
0.0271117
0.0271985
0.0272922
0.0273921
0.0274975
0.0276073
0.0277204
0.0278353
0.0279505
0.0280642
0.0281745
0.0282793
0.0283766
0.0284643
0.0285404
0.028603
0.0286503
0.0286808
0.0286933
0.028687
0.0286613
0.0286161
0.0285517
0.028469
0.0283688
0.0282528
0.0281227
0.0279804
0.0278282
0.0276684
0.0275033
0.0273352
0.0271663
0.0269986
0.0268341
0.0266743
0.0265207
0.0263743
0.0262361
0.0261067
0.0259863
0.0258753
0.0257737
0.0256812
0.0255976
0.0255225
0.0254555
0.0253961
0.0253437
0.0252979
0.0252581
0.0252237
0.0251945
0.0251699
0.0251498
0.0251334
0.0251214
0.0251125
0.0251078
0.0251058
0.025108
0.0251117
0.025119
0.0251245
0.0251303
0.0270786
0.0270792
0.0270773
0.0270745
0.0270701
0.0270647
0.0270582
0.027051
0.027043
0.0270345
0.0270253
0.0270156
0.0270054
0.0269946
0.0269832
0.0269713
0.0269588
0.0269457
0.0269321
0.026918
0.0269034
0.0268883
0.0268729
0.0268571
0.0268411
0.0268248
0.0268084
0.026792
0.0267756
0.0267594
0.0267435
0.026728
0.0267131
0.0266988
0.0266855
0.0266732
0.0266623
0.0266529
0.0266453
0.0266398
0.0266367
0.0266363
0.026639
0.0266452
0.0266552
0.0266696
0.0266886
0.0267127
0.0267424
0.026778
0.0268198
0.0268683
0.0269235
0.0269857
0.027055
0.0271312
0.0272141
0.0273034
0.0273985
0.0274986
0.0276028
0.0277101
0.0278189
0.0279279
0.0280353
0.0281394
0.0282381
0.0283296
0.0284118
0.0284829
0.028541
0.0285844
0.0286117
0.0286218
0.0286138
0.0285873
0.0285421
0.0284787
0.0283977
0.0283001
0.0281874
0.0280613
0.0279237
0.0277766
0.0276223
0.027463
0.0273009
0.0271381
0.0269765
0.0268178
0.0266637
0.0265154
0.0263739
0.0262402
0.0261148
0.025998
0.02589
0.0257909
0.0257005
0.0256186
0.0255447
0.0254786
0.0254197
0.0253676
0.0253218
0.0252819
0.0252472
0.0252176
0.0251924
0.0251717
0.0251546
0.0251416
0.0251316
0.0251256
0.0251216
0.0251218
0.0251227
0.0251275
0.0251303
0.0251361
0.0270806
0.027081
0.0270791
0.0270762
0.0270719
0.0270665
0.0270602
0.0270532
0.0270454
0.027037
0.0270281
0.0270186
0.0270085
0.0269979
0.0269867
0.0269749
0.0269625
0.0269496
0.0269362
0.0269222
0.0269078
0.026893
0.0268777
0.0268621
0.0268463
0.0268303
0.0268141
0.0267979
0.0267818
0.0267659
0.0267502
0.026735
0.0267203
0.0267063
0.0266932
0.0266812
0.0266704
0.0266612
0.0266537
0.0266483
0.0266451
0.0266447
0.0266472
0.0266531
0.0266628
0.0266767
0.0266951
0.0267185
0.0267474
0.0267821
0.0268229
0.0268702
0.0269242
0.0269852
0.0270531
0.027128
0.0272096
0.0272976
0.0273914
0.0274904
0.0275936
0.0276999
0.0278079
0.0279162
0.0280231
0.0281268
0.0282253
0.0283166
0.0283988
0.0284698
0.0285279
0.0285714
0.0285987
0.0286088
0.0286008
0.0285742
0.0285288
0.0284651
0.0283837
0.0282858
0.0281727
0.0280461
0.0279081
0.0277607
0.0276063
0.0274469
0.0272849
0.0271223
0.0269612
0.0268032
0.0266498
0.0265025
0.0263622
0.0262296
0.0261055
0.02599
0.0258833
0.0257855
0.0256964
0.0256156
0.0255429
0.0254778
0.0254198
0.0253685
0.0253234
0.025284
0.0252499
0.0252207
0.0251957
0.0251752
0.0251581
0.0251451
0.0251349
0.0251287
0.0251244
0.0251245
0.0251248
0.0251303
0.025133
0.0251418
0.0270839
0.0270837
0.0270818
0.0270788
0.0270746
0.0270695
0.0270637
0.027057
0.0270497
0.0270417
0.0270332
0.027024
0.0270143
0.027004
0.0269932
0.0269817
0.0269697
0.0269571
0.026944
0.0269304
0.0269164
0.0269019
0.0268871
0.026872
0.0268566
0.0268411
0.0268255
0.0268099
0.0267943
0.026779
0.0267639
0.0267493
0.0267352
0.0267218
0.0267093
0.0266979
0.0266876
0.0266788
0.0266717
0.0266665
0.0266635
0.026663
0.0266654
0.026671
0.0266801
0.0266932
0.0267106
0.0267327
0.0267601
0.026793
0.0268318
0.0268768
0.0269284
0.0269866
0.0270517
0.0271235
0.027202
0.0272868
0.0273774
0.0274732
0.0275732
0.0276764
0.0277816
0.0278871
0.0279915
0.0280928
0.0281892
0.0282787
0.0283593
0.028429
0.028486
0.0285286
0.0285553
0.0285649
0.0285566
0.0285299
0.0284846
0.0284211
0.0283401
0.0282426
0.0281302
0.0280045
0.0278676
0.0277215
0.0275685
0.0274108
0.0272508
0.0270903
0.0269315
0.026776
0.0266254
0.0264808
0.0263434
0.0262137
0.0260924
0.0259797
0.0258758
0.0257805
0.0256937
0.0256151
0.0255443
0.025481
0.0254245
0.0253745
0.0253305
0.025292
0.0252585
0.0252298
0.0252052
0.0251848
0.0251676
0.0251544
0.0251436
0.0251369
0.0251316
0.025131
0.02513
0.0251355
0.0251375
0.0251489
0.0270895
0.0270883
0.0270862
0.0270826
0.0270784
0.0270732
0.0270674
0.0270608
0.0270537
0.0270458
0.0270375
0.0270286
0.0270191
0.0270089
0.0269983
0.026987
0.0269751
0.0269627
0.0269497
0.0269363
0.0269224
0.026908
0.0268934
0.0268784
0.0268631
0.0268477
0.0268322
0.0268166
0.0268012
0.0267859
0.0267709
0.0267562
0.0267421
0.0267286
0.0267159
0.0267041
0.0266935
0.0266842
0.0266764
0.0266705
0.0266666
0.026665
0.0266661
0.0266702
0.0266777
0.026689
0.0267044
0.0267245
0.0267495
0.02678
0.0268163
0.0268588
0.0269079
0.0269637
0.0270264
0.027096
0.0271725
0.0272555
0.0273446
0.0274392
0.0275384
0.0276411
0.0277461
0.0278519
0.0279569
0.0280591
0.0281567
0.0282476
0.0283297
0.0284011
0.0284598
0.0285041
0.0285323
0.0285433
0.0285361
0.0285102
0.0284655
0.0284022
0.028321
0.0282231
0.0281098
0.0279831
0.0278449
0.0276975
0.0275431
0.0273842
0.0272229
0.0270615
0.0269019
0.026746
0.0265953
0.026451
0.0263142
0.0261855
0.0260654
0.0259542
0.025852
0.0257585
0.0256737
0.0255971
0.0255283
0.0254669
0.0254123
0.025364
0.0253216
0.0252846
0.0252524
0.0252248
0.0252011
0.0251815
0.0251649
0.0251522
0.0251416
0.0251352
0.0251298
0.0251296
0.0251286
0.0251353
0.0251376
0.0251521
0.0270963
0.0270938
0.0270914
0.0270872
0.0270831
0.0270777
0.0270721
0.0270656
0.0270588
0.0270512
0.0270432
0.0270345
0.0270253
0.0270154
0.027005
0.0269939
0.0269823
0.02697
0.0269573
0.026944
0.0269303
0.0269162
0.0269016
0.0268868
0.0268717
0.0268565
0.0268411
0.0268257
0.0268103
0.0267951
0.0267801
0.0267654
0.0267512
0.0267375
0.0267245
0.0267123
0.0267011
0.026691
0.0266823
0.0266752
0.02667
0.0266668
0.026666
0.0266679
0.026673
0.0266815
0.026694
0.0267108
0.0267324
0.0267592
0.0267918
0.0268304
0.0268755
0.0269273
0.0269861
0.027052
0.0271249
0.0272046
0.0272907
0.0273826
0.0274795
0.0275804
0.0276841
0.027789
0.0278935
0.0279957
0.0280938
0.0281856
0.0282691
0.0283421
0.0284027
0.0284489
0.0284793
0.0284925
0.0284874
0.0284634
0.0284204
0.0283586
0.0282786
0.0281816
0.028069
0.0279427
0.0278047
0.0276572
0.0275027
0.0273436
0.0271822
0.0270209
0.0268615
0.0267061
0.0265561
0.0264129
0.0262773
0.0261503
0.0260321
0.025923
0.025823
0.025732
0.0256497
0.0255756
0.0255093
0.0254503
0.025398
0.0253519
0.0253115
0.0252763
0.0252457
0.0252195
0.0251969
0.0251783
0.0251623
0.0251501
0.0251398
0.0251335
0.025128
0.0251279
0.0251266
0.025134
0.0251363
0.0251531
0.0271046
0.0271004
0.0270977
0.0270927
0.0270884
0.0270826
0.027077
0.0270705
0.0270638
0.0270563
0.0270485
0.02704
0.0270309
0.0270212
0.0270109
0.0269999
0.0269884
0.0269762
0.0269635
0.0269503
0.0269366
0.0269224
0.0269078
0.0268929
0.0268777
0.0268623
0.0268467
0.0268311
0.0268154
0.0267997
0.0267842
0.026769
0.026754
0.0267394
0.0267253
0.0267119
0.0266992
0.0266874
0.0266767
0.0266673
0.0266595
0.0266534
0.0266493
0.0266477
0.0266489
0.0266532
0.0266612
0.0266733
0.02669
0.0267118
0.0267393
0.0267728
0.0268128
0.0268597
0.0269138
0.0269753
0.0270442
0.0271203
0.0272033
0.0272927
0.0273878
0.0274875
0.0275907
0.0276958
0.0278012
0.0279051
0.0280055
0.0281002
0.028187
0.0282639
0.0283287
0.0283794
0.0284143
0.0284319
0.0284312
0.0284113
0.0283719
0.0283133
0.028236
0.028141
0.0280299
0.0279043
0.0277666
0.0276189
0.0274638
0.0273038
0.0271414
0.0269789
0.0268186
0.0266623
0.0265116
0.0263681
0.0262327
0.0261061
0.0259888
0.0258809
0.0257826
0.0256935
0.0256133
0.0255415
0.0254776
0.0254211
0.0253713
0.0253277
0.0252895
0.0252565
0.0252279
0.0252036
0.0251826
0.0251654
0.0251506
0.0251395
0.0251299
0.0251244
0.0251192
0.0251199
0.0251189
0.0251273
0.02513
0.0251487
0.0271135
0.0271076
0.0271045
0.0270985
0.0270941
0.027088
0.0270825
0.0270759
0.0270694
0.0270621
0.0270545
0.0270461
0.0270372
0.0270276
0.0270175
0.0270066
0.0269951
0.026983
0.0269703
0.0269571
0.0269433
0.0269291
0.0269144
0.0268993
0.0268839
0.0268682
0.0268523
0.0268362
0.0268201
0.0268038
0.0267875
0.0267713
0.0267552
0.0267393
0.0267237
0.0267084
0.0266935
0.0266792
0.0266657
0.026653
0.0266414
0.0266311
0.0266225
0.0266158
0.0266114
0.0266099
0.0266115
0.0266169
0.0266266
0.0266412
0.0266612
0.0266872
0.0267198
0.0267593
0.0268063
0.0268609
0.0269233
0.0269934
0.0270711
0.027156
0.0272472
0.027344
0.0274451
0.0275493
0.0276547
0.0277597
0.0278621
0.0279599
0.0280507
0.0281325
0.0282028
0.0282598
0.0283014
0.028326
0.0283323
0.0283195
0.0282869
0.0282347
0.0281632
0.0280735
0.0279668
0.027845
0.0277102
0.0275648
0.0274113
0.0272523
0.0270904
0.0269281
0.0267678
0.0266114
0.0264608
0.0263174
0.0261824
0.0260565
0.0259402
0.0258338
0.0257371
0.02565
0.0255721
0.0255027
0.0254414
0.0253876
0.0253404
0.0252994
0.0252638
0.0252332
0.0252068
0.0251845
0.0251653
0.0251497
0.0251362
0.0251262
0.0251175
0.0251127
0.025108
0.0251092
0.0251084
0.0251175
0.0251204
0.0251403
0.0271231
0.0271152
0.0271117
0.0271047
0.0271001
0.0270935
0.027088
0.0270813
0.0270749
0.0270675
0.0270601
0.0270517
0.027043
0.0270334
0.0270233
0.0270124
0.0270009
0.0269887
0.0269759
0.0269625
0.0269485
0.026934
0.0269189
0.0269035
0.0268876
0.0268713
0.0268547
0.0268378
0.0268207
0.0268032
0.0267856
0.0267678
0.0267499
0.0267318
0.0267136
0.0266953
0.0266771
0.0266589
0.026641
0.0266234
0.0266063
0.0265899
0.0265746
0.0265606
0.0265484
0.0265384
0.026531
0.026527
0.0265269
0.0265314
0.0265411
0.0265567
0.0265789
0.0266082
0.0266451
0.0266902
0.0267435
0.0268054
0.0268756
0.0269539
0.0270397
0.0271322
0.0272305
0.0273331
0.0274385
0.0275449
0.0276504
0.0277526
0.0278494
0.0279384
0.0280172
0.0280836
0.0281355
0.0281711
0.0281887
0.0281872
0.0281658
0.0281244
0.0280631
0.0279826
0.0278843
0.0277697
0.0276409
0.0275003
0.0273505
0.0271942
0.0270342
0.026873
0.0267132
0.0265569
0.0264063
0.0262628
0.0261277
0.026002
0.0258861
0.0257804
0.0256849
0.0255992
0.0255231
0.0254558
0.0253968
0.0253454
0.0253008
0.0252624
0.0252294
0.0252013
0.0251773
0.0251573
0.0251402
0.0251265
0.0251147
0.0251061
0.0250985
0.0250949
0.0250909
0.0250929
0.0250925
0.0251023
0.0251055
0.0251262
0.0271327
0.0271228
0.0271189
0.0271108
0.027106
0.0270989
0.0270934
0.0270866
0.0270803
0.027073
0.0270656
0.0270573
0.0270486
0.0270391
0.027029
0.027018
0.0270064
0.0269941
0.0269811
0.0269674
0.026953
0.0269381
0.0269226
0.0269065
0.0268899
0.0268728
0.0268553
0.0268372
0.0268187
0.0267996
0.0267801
0.0267601
0.0267395
0.0267183
0.0266966
0.0266742
0.0266513
0.0266278
0.0266038
0.0265793
0.0265546
0.0265298
0.0265052
0.0264811
0.026458
0.0264362
0.0264165
0.0263994
0.0263856
0.0263758
0.0263709
0.0263717
0.026379
0.0263935
0.0264158
0.0264467
0.0264866
0.0265358
0.0265944
0.0266623
0.0267392
0.0268244
0.0269171
0.0270161
0.02712
0.027227
0.0273352
0.0274424
0.0275463
0.0276445
0.0277345
0.0278138
0.0278801
0.0279313
0.0279654
0.027981
0.0279769
0.0279526
0.0279078
0.027843
0.0277592
0.0276578
0.0275407
0.0274102
0.0272689
0.0271194
0.0269647
0.0268076
0.0266507
0.0264965
0.0263472
0.0262046
0.0260701
0.0259449
0.0258297
0.0257247
0.0256302
0.0255458
0.0254712
0.0254057
0.0253488
0.0252997
0.0252575
0.0252216
0.0251912
0.0251656
0.025144
0.0251263
0.0251113
0.0250995
0.0250894
0.0250823
0.025076
0.0250734
0.0250702
0.0250729
0.0250729
0.0250832
0.0250865
0.0251076
0.0271422
0.0271301
0.0271258
0.0271164
0.0271115
0.0271038
0.0270984
0.0270913
0.0270851
0.0270777
0.0270704
0.0270621
0.0270534
0.0270438
0.0270335
0.0270224
0.0270106
0.026998
0.0269846
0.0269704
0.0269556
0.02694
0.0269238
0.0269068
0.0268892
0.0268709
0.0268519
0.0268321
0.0268116
0.0267902
0.0267679
0.0267447
0.0267204
0.0266949
0.0266681
0.02664
0.0266105
0.0265795
0.026547
0.0265131
0.0264778
0.0264414
0.026404
0.026366
0.0263279
0.02629
0.0262532
0.026218
0.0261853
0.026156
0.026131
0.0261113
0.0260979
0.0260918
0.026094
0.0261052
0.0261262
0.0261575
0.0261997
0.0262528
0.0263167
0.0263912
0.0264755
0.0265686
0.0266694
0.0267763
0.0268873
0.0270004
0.0271132
0.0272232
0.0273278
0.0274244
0.0275103
0.027583
0.0276403
0.0276802
0.027701
0.0277018
0.0276817
0.0276409
0.0275797
0.0274993
0.0274013
0.0272877
0.027161
0.0270239
0.0268793
0.0267302
0.0265795
0.0264298
0.0262837
0.0261433
0.0260102
0.025886
0.0257714
0.025667
0.0255731
0.0254896
0.025416
0.025352
0.0252967
0.0252494
0.0252093
0.0251756
0.0251474
0.0251242
0.025105
0.0250895
0.0250766
0.0250668
0.0250585
0.0250531
0.0250481
0.0250466
0.0250444
0.0250478
0.0250484
0.025059
0.0250625
0.0250836
0.0271509
0.0271366
0.0271319
0.0271213
0.0271162
0.0271081
0.0271026
0.0270953
0.0270892
0.0270817
0.0270744
0.027066
0.0270573
0.0270475
0.0270371
0.0270257
0.0270136
0.0270005
0.0269867
0.0269719
0.0269564
0.02694
0.0269227
0.0269046
0.0268856
0.0268657
0.0268447
0.0268227
0.0267995
0.026775
0.026749
0.0267214
0.0266921
0.0266607
0.0266272
0.0265913
0.0265528
0.0265117
0.0264678
0.0264211
0.0263716
0.0263194
0.0262647
0.0262079
0.0261494
0.0260897
0.0260296
0.02597
0.0259116
0.0258557
0.0258033
0.0257558
0.0257143
0.0256801
0.0256545
0.0256386
0.0256336
0.0256404
0.0256597
0.0256919
0.0257375
0.0257963
0.025868
0.0259519
0.0260469
0.0261518
0.0262648
0.0263838
0.0265066
0.0266307
0.0267533
0.0268715
0.0269824
0.0270833
0.0271712
0.0272439
0.0272989
0.0273346
0.0273497
0.0273435
0.0273157
0.027267
0.0271984
0.0271116
0.0270088
0.0268924
0.0267655
0.026631
0.0264921
0.0263516
0.0262125
0.0260771
0.0259476
0.0258258
0.0257128
0.0256095
0.0255165
0.0254337
0.025361
0.0252979
0.0252438
0.0251979
0.0251594
0.0251276
0.0251014
0.0250802
0.025063
0.0250496
0.0250387
0.0250307
0.0250241
0.0250202
0.0250165
0.0250162
0.0250149
0.0250189
0.0250199
0.0250307
0.0250343
0.025055
0.0271586
0.027142
0.0271368
0.0271251
0.0271198
0.0271111
0.0271056
0.0270981
0.027092
0.0270844
0.027077
0.0270685
0.0270596
0.0270496
0.0270389
0.0270271
0.0270145
0.0270009
0.0269864
0.0269709
0.0269544
0.0269369
0.0269183
0.0268986
0.0268778
0.0268557
0.0268322
0.0268071
0.0267803
0.0267516
0.0267206
0.0266872
0.026651
0.0266118
0.0265691
0.0265227
0.0264723
0.0264176
0.0263583
0.0262944
0.0262258
0.0261525
0.0260747
0.0259927
0.025907
0.0258182
0.0257272
0.0256349
0.0255426
0.0254514
0.0253629
0.0252786
0.0252001
0.0251291
0.0250672
0.025016
0.0249771
0.0249517
0.024941
0.0249459
0.0249671
0.025005
0.0250595
0.0251303
0.0252167
0.0253175
0.0254312
0.0255561
0.0256898
0.0258299
0.0259735
0.0261177
0.0262592
0.0263949
0.0265215
0.026636
0.0267354
0.0268172
0.0268793
0.0269202
0.0269387
0.0269347
0.0269084
0.0268609
0.0267938
0.0267093
0.0266101
0.0264993
0.0263799
0.0262553
0.0261285
0.0260025
0.0258799
0.0257629
0.0256532
0.0255521
0.0254604
0.0253784
0.0253064
0.0252439
0.0251905
0.0251456
0.0251082
0.0250777
0.0250529
0.0250333
0.0250179
0.0250062
0.024997
0.0249907
0.0249857
0.0249832
0.0249808
0.0249815
0.024981
0.0249856
0.0249871
0.0249979
0.0250016
0.0250218
0.0271647
0.0271457
0.0271402
0.0271272
0.0271217
0.0271125
0.027107
0.0270993
0.0270931
0.0270854
0.027078
0.0270692
0.0270601
0.0270498
0.0270387
0.0270265
0.0270133
0.026999
0.0269836
0.0269671
0.0269494
0.0269305
0.0269102
0.0268886
0.0268653
0.0268404
0.0268135
0.0267845
0.026753
0.0267187
0.0266812
0.0266401
0.0265949
0.0265452
0.0264905
0.0264302
0.026364
0.0262913
0.0262117
0.0261251
0.0260312
0.0259301
0.0258218
0.0257068
0.0255854
0.0254587
0.0253274
0.0251929
0.0250565
0.02492
0.0247852
0.024654
0.0245285
0.0244109
0.0243032
0.0242075
0.0241259
0.0240601
0.0240118
0.0239823
0.0239728
0.0239839
0.0240161
0.0240693
0.0241433
0.0242371
0.0243495
0.024479
0.0246234
0.0247804
0.0249471
0.0251205
0.0252972
0.0254737
0.0256464
0.0258115
0.0259655
0.026105
0.026227
0.0263288
0.0264084
0.0264643
0.026496
0.0265033
0.0264871
0.026449
0.0263912
0.0263164
0.0262277
0.0261286
0.0260225
0.0259128
0.0258025
0.0256946
0.0255912
0.0254944
0.0254054
0.0253252
0.0252541
0.0251922
0.0251393
0.0250948
0.025058
0.0250281
0.0250043
0.0249858
0.0249715
0.0249611
0.0249534
0.0249484
0.0249446
0.0249433
0.0249419
0.0249435
0.0249437
0.0249488
0.0249506
0.0249613
0.024965
0.0249844
0.0271688
0.0271473
0.0271414
0.0271272
0.0271216
0.0271118
0.0271063
0.0270983
0.0270922
0.0270842
0.0270767
0.0270676
0.0270582
0.0270474
0.0270359
0.027023
0.0270091
0.0269939
0.0269775
0.0269597
0.0269405
0.0269197
0.0268974
0.0268731
0.0268469
0.0268183
0.0267871
0.0267529
0.0267153
0.0266737
0.0266276
0.0265764
0.0265195
0.0264561
0.0263855
0.026307
0.02622
0.0261237
0.0260176
0.0259014
0.0257747
0.0256374
0.0254898
0.0253322
0.0251652
0.02499
0.0248077
0.0246199
0.0244286
0.0242357
0.0240437
0.023855
0.0236722
0.0234981
0.0233352
0.0231863
0.0230538
0.0229401
0.0228471
0.0227767
0.0227305
0.0227095
0.0227145
0.0227459
0.0228037
0.0228873
0.0229958
0.0231279
0.0232818
0.0234553
0.0236457
0.0238499
0.0240646
0.0242861
0.0245104
0.0247334
0.0249508
0.0251586
0.0253526
0.0255291
0.0256848
0.025817
0.0259237
0.0260035
0.0260561
0.0260819
0.0260823
0.0260594
0.026016
0.0259554
0.0258813
0.0257974
0.0257074
0.0256148
0.0255228
0.0254338
0.0253501
0.0252731
0.0252039
0.025143
0.0250904
0.0250461
0.0250093
0.0249797
0.0249561
0.0249381
0.0249245
0.0249149
0.0249079
0.0249039
0.0249011
0.0249006
0.0249
0.0249022
0.0249031
0.0249083
0.0249104
0.0249209
0.0249246
0.024943
0.0271703
0.0271463
0.02714
0.0271245
0.0271189
0.0271085
0.027103
0.0270948
0.0270886
0.0270804
0.0270726
0.0270632
0.0270534
0.0270421
0.0270299
0.0270163
0.0270015
0.0269852
0.0269675
0.0269481
0.026927
0.0269041
0.026879
0.0268515
0.0268214
0.0267882
0.0267514
0.0267106
0.026665
0.0266141
0.0265569
0.0264927
0.0264205
0.0263393
0.0262481
0.0261461
0.0260321
0.0259054
0.0257652
0.025611
0.0254424
0.0252592
0.0250619
0.0248508
0.024627
0.0243917
0.0241467
0.0238941
0.0236362
0.0233758
0.0231158
0.0228594
0.0226098
0.0223702
0.022144
0.0219343
0.021744
0.0215759
0.0214326
0.0213161
0.0212283
0.0211708
0.0211445
0.0211502
0.0211881
0.021258
0.0213595
0.0214913
0.0216521
0.0218399
0.0220524
0.0222867
0.0225395
0.0228072
0.0230857
0.0233707
0.0236574
0.0239412
0.0242169
0.02448
0.0247257
0.0249499
0.0251489
0.0253199
0.0254608
0.0255705
0.0256491
0.0256975
0.0257177
0.0257126
0.0256857
0.0256409
0.0255825
0.0255147
0.0254413
0.0253659
0.0252916
0.0252209
0.0251554
0.0250965
0.0250449
0.0250007
0.0249638
0.0249338
0.02491
0.0248918
0.0248781
0.0248687
0.0248621
0.0248584
0.024856
0.024856
0.0248559
0.0248584
0.0248596
0.0248649
0.0248671
0.0248772
0.0248807
0.0248982
0.0271685
0.0271421
0.0271355
0.0271187
0.027113
0.0271021
0.0270966
0.027088
0.0270817
0.0270732
0.0270652
0.0270554
0.0270451
0.0270332
0.0270202
0.0270057
0.0269898
0.0269721
0.0269528
0.0269315
0.0269081
0.0268824
0.0268539
0.0268224
0.0267874
0.0267483
0.0267044
0.0266551
0.0265994
0.0265363
0.0264649
0.0263839
0.026292
0.026188
0.0260705
0.0259383
0.02579
0.0256247
0.0254413
0.0252393
0.0250182
0.0247781
0.0245194
0.024243
0.0239503
0.023643
0.0233236
0.0229947
0.0226595
0.0223215
0.0219843
0.0216517
0.0213277
0.0210161
0.0207207
0.0204451
0.0201927
0.0199666
0.0197695
0.019604
0.0194721
0.0193754
0.0193152
0.0192925
0.0193078
0.0193611
0.0194522
0.0195803
0.0197444
0.0199428
0.0201736
0.0204344
0.0207222
0.0210337
0.0213649
0.0217115
0.0220688
0.0224316
0.0227944
0.0231516
0.0234974
0.0238262
0.0241327
0.0244122
0.0246607
0.0248751
0.0250535
0.0251951
0.0253005
0.0253715
0.025411
0.0254226
0.0254109
0.0253806
0.0253364
0.0252831
0.0252247
0.0251648
0.0251064
0.0250517
0.0250021
0.0249586
0.0249215
0.0248909
0.0248663
0.0248474
0.0248331
0.0248231
0.0248161
0.0248123
0.0248099
0.0248098
0.0248098
0.0248123
0.0248135
0.0248186
0.0248208
0.0248303
0.0248337
0.0248501
0.027163
0.0271341
0.0271271
0.0271091
0.0271033
0.0270919
0.0270864
0.0270775
0.0270711
0.0270622
0.0270539
0.0270435
0.0270327
0.02702
0.0270062
0.0269905
0.0269732
0.026954
0.0269327
0.0269091
0.0268828
0.0268536
0.026821
0.0267844
0.0267432
0.0266966
0.0266438
0.0265837
0.0265151
0.0264367
0.0263471
0.0262446
0.0261278
0.0259948
0.025844
0.0256737
0.0254825
0.0252689
0.0250321
0.0247712
0.0244861
0.0241771
0.0238449
0.0234911
0.0231175
0.0227269
0.0223223
0.0219074
0.021486
0.0210626
0.0206415
0.0202273
0.0198245
0.0194375
0.0190705
0.0187275
0.018412
0.0181274
0.0178765
0.0176619
0.0174857
0.0173497
0.0172551
0.017203
0.017194
0.0172285
0.0173062
0.017427
0.0175899
0.0177939
0.0180374
0.0183186
0.018635
0.0189838
0.0193616
0.0197645
0.020188
0.020627
0.0210758
0.0215284
0.0219783
0.0224187
0.022843
0.0232444
0.0236168
0.023955
0.0242544
0.0245121
0.0247264
0.0248971
0.0250258
0.0251154
0.0251698
0.0251941
0.0251937
0.0251742
0.0251411
0.0250994
0.0250532
0.0250063
0.0249611
0.0249196
0.0248829
0.0248518
0.0248261
0.0248059
0.0247903
0.0247791
0.0247711
0.0247664
0.0247633
0.0247627
0.0247622
0.0247643
0.0247652
0.0247699
0.0247718
0.0247806
0.0247838
0.0247991
0.0271531
0.0271216
0.0271143
0.0270951
0.0270892
0.0270773
0.0270718
0.0270625
0.0270559
0.0270466
0.0270379
0.027027
0.0270154
0.0270018
0.0269869
0.0269699
0.0269511
0.0269299
0.0269062
0.0268797
0.02685
0.0268165
0.0267786
0.0267357
0.0266868
0.0266308
0.0265667
0.026493
0.0264081
0.0263103
0.0261977
0.0260684
0.0259202
0.025751
0.0255586
0.0253412
0.025097
0.0248245
0.0245227
0.0241912
0.02383
0.0234399
0.0230224
0.0225798
0.0221149
0.0216313
0.0211332
0.0206251
0.020112
0.019599
0.0190912
0.018594
0.0181122
0.0176507
0.017214
0.016806
0.0164305
0.0160906
0.0157893
0.0155289
0.0153114
0.0151384
0.0150112
0.0149307
0.0148976
0.0149122
0.0149747
0.0150848
0.0152421
0.0154459
0.0156953
0.015989
0.0163251
0.0167016
0.0171158
0.0175646
0.0180442
0.0185499
0.0190767
0.0196184
0.0201685
0.0207197
0.0212641
0.0217936
0.0223003
0.0227763
0.0232146
0.0236092
0.0239556
0.0242508
0.0244941
0.0246863
0.0248304
0.0249308
0.024993
0.0250235
0.0250288
0.0250155
0.0249895
0.0249559
0.024919
0.024882
0.0248471
0.024816
0.0247893
0.0247674
0.02475
0.024737
0.0247273
0.0247211
0.0247167
0.0247148
0.0247135
0.0247146
0.0247148
0.0247188
0.0247202
0.0247283
0.024731
0.0247453
0.0271381
0.027104
0.0270964
0.027076
0.0270701
0.0270576
0.0270521
0.0270425
0.0270357
0.0270259
0.0270167
0.027005
0.0269926
0.026978
0.0269618
0.0269432
0.0269225
0.0268989
0.0268724
0.0268424
0.0268084
0.0267696
0.0267253
0.0266745
0.0266159
0.0265483
0.02647
0.0263792
0.0262739
0.0261519
0.0260108
0.025848
0.0256609
0.025447
0.0252037
0.024929
0.0246208
0.0242779
0.0238993
0.0234852
0.0230361
0.0225537
0.0220404
0.0214996
0.0209352
0.0203522
0.0197556
0.0191513
0.0185449
0.0179426
0.0173501
0.016773
0.0162167
0.0156861
0.0151856
0.0147192
0.0142904
0.0139021
0.0135569
0.0132568
0.0130036
0.0127985
0.0126426
0.0125366
0.0124811
0.0124764
0.0125226
0.0126198
0.0127677
0.012966
0.0132142
0.0135116
0.0138573
0.0142498
0.0146875
0.0151683
0.0156891
0.0162467
0.0168366
0.0174537
0.0180918
0.0187437
0.0194015
0.0200561
0.0206982
0.021318
0.0219059
0.0224528
0.0229509
0.0233936
0.0237768
0.0240983
0.0243587
0.0245606
0.0247089
0.02481
0.0248713
0.0249008
0.0249061
0.0248943
0.0248717
0.0248432
0.0248126
0.0247829
0.0247558
0.0247323
0.0247127
0.0246973
0.0246853
0.0246768
0.0246703
0.0246667
0.0246638
0.0246636
0.0246627
0.0246655
0.0246662
0.0246733
0.0246756
0.024689
0.0271173
0.0270807
0.0270728
0.0270512
0.0270453
0.0270323
0.0270266
0.0270166
0.0270095
0.0269992
0.0269894
0.0269769
0.0269636
0.0269476
0.02693
0.0269095
0.0268865
0.0268601
0.0268302
0.0267958
0.0267566
0.0267113
0.026659
0.0265984
0.026528
0.0264458
0.0263499
0.026238
0.0261074
0.0259555
0.0257791
0.0255752
0.0253407
0.0250726
0.0247682
0.0244252
0.0240416
0.0236165
0.0231495
0.0226414
0.022094
0.0215098
0.0208927
0.0202474
0.0195792
0.0188942
0.0181988
0.0174997
0.0168036
0.0161171
0.0154464
0.0147973
0.0141752
0.0135848
0.0130304
0.0125155
0.0120432
0.011616
0.0112359
0.0109045
0.010623
0.0103925
0.0102134
0.0100864
0.0100117
0.00998954
0.01002
0.0101031
0.0102389
0.0104273
0.0106682
0.0109614
0.0113066
0.0117033
0.0121508
0.0126478
0.0131929
0.0137838
0.0144175
0.0150901
0.0157967
0.0165311
0.0172858
0.0180521
0.0188201
0.0195789
0.020317
0.0210225
0.0216843
0.0222919
0.0228369
0.0233131
0.0237171
0.0240486
0.0243101
0.024507
0.0246467
0.0247378
0.0247898
0.0248119
0.0248123
0.0247986
0.0247766
0.0247508
0.0247245
0.0247
0.0246782
0.02466
0.024645
0.0246336
0.0246245
0.0246184
0.0246134
0.0246112
0.0246087
0.0246101
0.0246097
0.0246158
0.0246176
0.0246301
0.02709
0.0270509
0.0270428
0.02702
0.027014
0.0270004
0.0269947
0.0269842
0.0269768
0.0269658
0.0269553
0.0269419
0.0269274
0.0269099
0.0268905
0.0268678
0.026842
0.0268123
0.0267781
0.0267386
0.026693
0.0266398
0.0265777
0.0265051
0.0264199
0.0263198
0.0262023
0.0260644
0.0259029
0.0257143
0.0254951
0.0252416
0.0249502
0.0246178
0.0242413
0.0238186
0.0233483
0.0228298
0.0222639
0.0216524
0.0209984
0.0203061
0.0195808
0.0188287
0.0180567
0.017272
0.0164821
0.0156948
0.014917
0.0141559
0.0134177
0.0127082
0.0120324
0.0113946
0.0107985
0.0102472
0.0097429
0.00928763
0.00888276
0.00852933
0.00822804
0.00797934
0.0077835
0.00764066
0.00755085
0.00751409
0.00753036
0.0075997
0.00772216
0.00789785
0.00812694
0.00840963
0.00874614
0.00913666
0.00958127
0.0100799
0.0106321
0.0112371
0.0118935
0.0125989
0.01335
0.0141425
0.0149702
0.0158257
0.0166996
0.0175813
0.0184582
0.019317
0.0201435
0.0209239
0.0216452
0.0222962
0.0228687
0.0233575
0.0237615
0.0240829
0.0243277
0.0245044
0.0246233
0.0246954
0.0247315
0.0247417
0.0247345
0.0247169
0.0246939
0.0246696
0.024646
0.0246249
0.0246065
0.0245916
0.0245791
0.0245699
0.0245621
0.0245575
0.024553
0.0245526
0.0245508
0.0245557
0.0245568
0.0245686
0.0270555
0.0270139
0.0270055
0.0269815
0.0269756
0.0269614
0.0269556
0.0269446
0.0269367
0.026925
0.0269137
0.026899
0.0268832
0.026864
0.0268424
0.0268171
0.0267881
0.0267542
0.026715
0.0266692
0.0266157
0.0265529
0.0264789
0.0263915
0.0262884
0.0261665
0.0260226
0.025853
0.025654
0.0254213
0.0251508
0.0248384
0.0244801
0.0240726
0.0236131
0.0230998
0.0225322
0.0219107
0.0212374
0.0205157
0.0197504
0.0189474
0.0181137
0.0172572
0.016386
0.0155087
0.0146335
0.0137685
0.0129213
0.0120988
0.0113069
0.0105509
0.00983537
0.00916389
0.00853937
0.00796406
0.00743962
0.00696721
0.00654758
0.00618117
0.00586813
0.00560847
0.00540204
0.00524865
0.00514808
0.00510012
0.00510461
0.00516151
0.00527085
0.00543279
0.00564766
0.00591588
0.00623803
0.00661479
0.00704689
0.00753508
0.00807997
0.008682
0.00934118
0.010057
0.010828
0.0116517
0.0125244
0.0134405
0.0143925
0.0153709
0.0163639
0.017358
0.0183375
0.019286
0.0201866
0.0210234
0.0217823
0.0224524
0.0230265
0.0235025
0.0238824
0.0241729
0.0243837
0.0245271
0.0246159
0.024663
0.02468
0.0246768
0.0246612
0.0246393
0.024615
0.0245914
0.0245694
0.0245506
0.0245341
0.0245212
0.0245099
0.0245023
0.0244952
0.0244926
0.0244892
0.0244927
0.0244929
0.0245041
0.0270131
0.026969
0.0269603
0.0269352
0.0269292
0.0269144
0.0269084
0.0268968
0.0268884
0.0268758
0.0268635
0.0268476
0.0268301
0.0268089
0.0267848
0.0267563
0.0267234
0.0266846
0.0266394
0.026586
0.026523
0.0264484
0.0263599
0.0262547
0.0261298
0.0259814
0.0258056
0.0255982
0.0253543
0.0250693
0.0247385
0.0243573
0.0239217
0.0234286
0.0228756
0.022262
0.0215881
0.0208563
0.0200701
0.0192349
0.0183575
0.0174456
0.0165081
0.0155541
0.0145931
0.0136344
0.0126866
0.0117581
0.0108562
0.00998726
0.00915675
0.00836918
0.00762816
0.00693644
0.00629606
0.00570842
0.0051744
0.00469446
0.00426872
0.00389704
0.00357913
0.00331457
0.00310289
0.00294361
0.00283627
0.00278048
0.00277594
0.00282247
0.00292005
0.0030688
0.00326907
0.00352136
0.00382643
0.0041852
0.00459881
0.00506854
0.00559576
0.00618186
0.00682808
0.00753539
0.00830422
0.00913421
0.0100239
0.0109702
0.0119684
0.0130113
0.0140893
0.0151899
0.0162982
0.0173967
0.0184662
0.0194867
0.020439
0.0213055
0.0220724
0.0227304
0.0232761
0.0237114
0.0240437
0.0242845
0.0244479
0.0245494
0.0246037
0.0246242
0.0246222
0.0246066
0.0245838
0.0245585
0.0245331
0.02451
0.0244892
0.0244718
0.0244566
0.0244453
0.0244352
0.02443
0.0244245
0.0244265
0.0244258
0.0244364
0.0269619
0.0269153
0.0269065
0.0268802
0.0268742
0.0268588
0.0268525
0.0268402
0.0268312
0.0268176
0.0268041
0.0267865
0.0267672
0.0267435
0.0267165
0.0266842
0.0266466
0.026602
0.0265495
0.0264869
0.0264126
0.0263238
0.0262178
0.0260912
0.02594
0.02576
0.0255463
0.0252938
0.0249972
0.0246512
0.0242505
0.0237906
0.0232677
0.0226791
0.0220236
0.0213015
0.0205152
0.0196687
0.0187677
0.0178199
0.016834
0.0158195
0.014787
0.0137466
0.0127087
0.0116829
0.0106779
0.00970156
0.00876066
0.0078608
0.00700649
0.00620123
0.00544762
0.00474745
0.00410183
0.00351136