/*--------------------------------*- C++ -*----------------------------------*\
| =========                 |                                                 |
| \\      /  F ield         | OpenFOAM: The Open Source CFD Toolbox           |
|  \\    /   O peration     | Version:  2406                                  |
|   \\  /    A nd           | Website:  www.openfoam.com                      |
|    \\/     M anipulation  |                                                 |
\*---------------------------------------------------------------------------*/
FoamFile
{
    version     2.0;
    format      ascii;
    arch        "LSB;label=32;scalar=64";
    class       volVectorField;
    location    "4.5";
    object      U;
}
// * * * * * * * * * * * * * * * * * * * * * * * * * * * * * * * * * * * * * //

dimensions      [0 1 -1 0 0 0 0];

internalField   nonuniform List<vector> 
3600
(
(8.24186e-06 -8.00546e-06 0)
(-3.29461e-05 1.85187e-05 0)
(-0.000140823 3.77879e-05 0)
(-0.00028844 5.05772e-05 0)
(-0.000465594 5.50805e-05 0)
(-0.000649783 5.71329e-05 0)
(-0.000842156 5.66708e-05 0)
(-0.00103124 5.61936e-05 0)
(-0.00122185 5.50984e-05 0)
(-0.00140776 5.43552e-05 0)
(-0.00159321 5.33715e-05 0)
(-0.00177423 5.25886e-05 0)
(-0.00195365 5.15975e-05 0)
(-0.00212865 5.06466e-05 0)
(-0.00230088 4.948e-05 0)
(-0.00246822 4.82503e-05 0)
(-0.00263149 4.67961e-05 0)
(-0.00278903 4.52097e-05 0)
(-0.00294105 4.33853e-05 0)
(-0.00308618 4.1377e-05 0)
(-0.00322422 3.91133e-05 0)
(-0.00335395 3.66254e-05 0)
(-0.00347489 3.38654e-05 0)
(-0.00358591 3.08528e-05 0)
(-0.00368635 2.75579e-05 0)
(-0.00377514 2.3997e-05 0)
(-0.00385153 2.01565e-05 0)
(-0.00391453 1.60561e-05 0)
(-0.00396339 1.16984e-05 0)
(-0.00399727 7.11153e-06 0)
(-0.00401548 2.31437e-06 0)
(-0.0040174 -2.65299e-06 0)
(-0.00400252 -7.75597e-06 0)
(-0.00397052 -1.29412e-05 0)
(-0.00392114 -1.8161e-05 0)
(-0.00385442 -2.33502e-05 0)
(-0.00377045 -2.84539e-05 0)
(-0.0036697 -3.33986e-05 0)
(-0.00355258 -3.81314e-05 0)
(-0.00342003 -4.25766e-05 0)
(-0.00327276 -4.66952e-05 0)
(-0.00311217 -5.04147e-05 0)
(-0.00293916 -5.37242e-05 0)
(-0.00275552 -5.65571e-05 0)
(-0.00256215 -5.89462e-05 0)
(-0.00236122 -6.08262e-05 0)
(-0.00215338 -6.22903e-05 0)
(-0.00194112 -6.32556e-05 0)
(-0.0017246 -6.38909e-05 0)
(-0.00150676 -6.40415e-05 0)
(-0.00128713 -6.39448e-05 0)
(-0.00106964 -6.32208e-05 0)
(-0.000853651 -6.20835e-05 0)
(-0.000645542 -5.95315e-05 0)
(-0.000446614 -5.55018e-05 0)
(-0.000268668 -4.76182e-05 0)
(-0.000119031 -3.56657e-05 0)
(-1.61204e-05 -1.63027e-05 0)
(2.89018e-05 4.65698e-06 0)
(1.82244e-05 1.88069e-05 0)
(-1.88749e-05 3.32181e-05 0)
(-0.000169735 0.000167003 0)
(-0.000450528 0.000263873 0)
(-0.000807051 0.000330844 0)
(-0.00122605 0.000363676 0)
(-0.00166697 0.00038097 0)
(-0.00212818 0.000385223 0)
(-0.00258826 0.000385515 0)
(-0.00305195 0.000381926 0)
(-0.00350819 0.000377908 0)
(-0.00396219 0.000372508 0)
(-0.00440734 0.000366996 0)
(-0.00484722 0.000360461 0)
(-0.00527725 0.000353449 0)
(-0.00569931 0.000345326 0)
(-0.00610988 0.000336363 0)
(-0.00650956 0.000326138 0)
(-0.0068954 0.00031478 0)
(-0.00726711 0.000301997 0)
(-0.00762204 0.00028784 0)
(-0.00795924 0.000272101 0)
(-0.00827622 0.000254792 0)
(-0.00857157 0.000235771 0)
(-0.0088429 0.000215046 0)
(-0.00908849 0.000192538 0)
(-0.00930603 0.000168277 0)
(-0.0094937 0.000142252 0)
(-0.00964934 0.000114543 0)
(-0.00977116 8.5217e-05 0)
(-0.00985731 5.44186e-05 0)
(-0.00990624 2.23021e-05 0)
(-0.00991652 -1.09095e-05 0)
(-0.00988704 -4.49756e-05 0)
(-0.00981701 -7.9595e-05 0)
(-0.00970591 -0.000114452 0)
(-0.00955372 -0.000149183 0)
(-0.00936067 -0.000183425 0)
(-0.00912764 -0.000216779 0)
(-0.00885562 -0.00024888 0)
(-0.00854643 -0.000279338 0)
(-0.00820176 -0.000307839 0)
(-0.00782435 -0.000334041 0)
(-0.00741637 -0.000357746 0)
(-0.00698134 -0.000378692 0)
(-0.00652161 -0.000396846 0)
(-0.00604134 -0.000412027 0)
(-0.00554262 -0.000424404 0)
(-0.00503023 -0.000433797 0)
(-0.00450557 -0.000440546 0)
(-0.0039743 -0.000444196 0)
(-0.00343721 -0.000445032 0)
(-0.00290199 -0.000441562 0)
(-0.00237011 -0.00043333 0)
(-0.00185453 -0.000416161 0)
(-0.00136118 -0.000387851 0)
(-0.000913807 -0.000339552 0)
(-0.000527488 -0.000269428 0)
(-0.000237052 -0.000168749 0)
(-5.64934e-05 -5.94292e-05 0)
(4.33115e-06 2.88291e-05 0)
(-4.08232e-05 0.00014598 0)
(-0.000279026 0.00045238 0)
(-0.000695788 0.000673061 0)
(-0.00120645 0.000823463 0)
(-0.001799 0.000905233 0)
(-0.00242065 0.000948853 0)
(-0.00307 0.00096381 0)
(-0.00371961 0.000966398 0)
(-0.00437428 0.000959855 0)
(-0.00501997 0.000950331 0)
(-0.00566204 0.000937566 0)
(-0.00629233 0.000923491 0)
(-0.00691446 0.000907105 0)
(-0.00752281 0.000889003 0)
(-0.00811915 0.000868345 0)
(-0.0086991 0.000845315 0)
(-0.00926296 0.000819301 0)
(-0.009807 0.000790321 0)
(-0.0103304 0.000757921 0)
(-0.0108299 0.000722039 0)
(-0.0113038 0.000682335 0)
(-0.011749 0.000638726 0)
(-0.0121632 0.000590978 0)
(-0.0125434 0.000539041 0)
(-0.0128872 0.000482799 0)
(-0.0131914 0.000422286 0)
(-0.0134536 0.000357531 0)
(-0.0136709 0.000288697 0)
(-0.0138408 0.000215987 0)
(-0.013961 0.000139732 0)
(-0.0140293 6.03278e-05 0)
(-0.0140438 -2.17066e-05 0)
(-0.0140032 -0.000105778 0)
(-0.0139063 -0.000191187 0)
(-0.0137526 -0.00027717 0)
(-0.013542 -0.000362885 0)
(-0.0132749 -0.000447461 0)
(-0.0129525 -0.000529988 0)
(-0.0125762 -0.000609583 0)
(-0.0121483 -0.000685366 0)
(-0.0116712 -0.000756559 0)
(-0.0111484 -0.000822421 0)
(-0.0105829 -0.0008824 0)
(-0.00997919 -0.000935974 0)
(-0.00934063 -0.000982917 0)
(-0.00867249 -0.00102294 0)
(-0.00797782 -0.00105618 0)
(-0.00726265 -0.00108242 0)
(-0.00652934 -0.001102 0)
(-0.00578504 -0.00111419 0)
(-0.00503153 -0.00111881 0)
(-0.00427869 -0.00111301 0)
(-0.00352934 -0.00109434 0)
(-0.00280031 -0.00105456 0)
(-0.00209963 -0.000986682 0)
(-0.00145814 -0.000874403 0)
(-0.000893226 -0.000711174 0)
(-0.000451686 -0.000485499 0)
(-0.000147111 -0.000233015 0)
(-1.28613e-05 -1.02028e-05 0)
(-5.71489e-05 0.000307157 0)
(-0.000363092 0.000828349 0)
(-0.000881973 0.00119303 0)
(-0.0015031 0.00143527 0)
(-0.00221681 0.0015721 0)
(-0.00296161 0.00164565 0)
(-0.0037386 0.00167397 0)
(-0.00451613 0.00167999 0)
(-0.00529998 0.00167069 0)
(-0.00607375 0.00165487 0)
(-0.00684316 0.00163329 0)
(-0.00759863 0.00160859 0)
(-0.00834391 0.0015798 0)
(-0.00907249 0.00154763 0)
(-0.00978606 0.00151103 0)
(-0.0104796 0.00147012 0)
(-0.0111531 0.00142409 0)
(-0.0118024 0.00137283 0)
(-0.0124264 0.00131571 0)
(-0.0130211 0.00125256 0)
(-0.0135847 0.00118287 0)
(-0.0141133 0.00110647 0)
(-0.0146045 0.00102303 0)
(-0.0150545 0.000932436 0)
(-0.0154605 0.000834545 0)
(-0.015819 0.000729408 0)
(-0.0161271 0.000617113 0)
(-0.0163814 0.000497938 0)
(-0.0165791 0.000372258 0)
(-0.0167174 0.000240637 0)
(-0.0167941 0.000103768 0)
(-0.0168069 -3.74715e-05 0)
(-0.0167542 -0.000182065 0)
(-0.016635 -0.000328837 0)
(-0.0164486 -0.000476497 0)
(-0.0161951 -0.000623639 0)
(-0.015875 -0.0007688 0)
(-0.0154898 -0.000910474 0)
(-0.0150411 -0.00104718 0)
(-0.0145318 -0.00117748 0)
(-0.0139647 -0.00130006 0)
(-0.013344 -0.00141372 0)
(-0.0126732 -0.00151751 0)
(-0.0119575 -0.00161062 0)
(-0.0112009 -0.0016926 0)
(-0.0104095 -0.00176303 0)
(-0.00958685 -0.00182198 0)
(-0.00873993 -0.00186921 0)
(-0.00787166 -0.00190494 0)
(-0.00699022 -0.00192817 0)
(-0.00609791 -0.00193804 0)
(-0.00520613 -0.00193027 0)
(-0.00431813 -0.00190001 0)
(-0.00345318 -0.00183501 0)
(-0.0026194 -0.00172286 0)
(-0.00185169 -0.00154041 0)
(-0.00116635 -0.00127467 0)
(-0.00061831 -0.000911835 0)
(-0.000219828 -0.000492558 0)
(-2.66174e-05 -9.3782e-05 0)
(-6.55532e-05 0.000508076 0)
(-0.000415337 0.00128468 0)
(-0.00100513 0.00181512 0)
(-0.00170393 0.00215964 0)
(-0.00250267 0.00235779 0)
(-0.00333225 0.0024642 0)
(-0.00419619 0.00250767 0)
(-0.00505964 0.00251743 0)
(-0.00592991 0.00250509 0)
(-0.00678883 0.00248184 0)
(-0.00764281 0.00244991 0)
(-0.00848123 0.0024125 0)
(-0.00930806 0.00236891 0)
(-0.0101161 0.0023198 0)
(-0.010907 0.00226407 0)
(-0.0116754 0.00220168 0)
(-0.0124211 0.00213166 0)
(-0.0131395 0.00205374 0)
(-0.0138292 0.00196712 0)
(-0.0144861 0.00187145 0)
(-0.0151079 0.00176611 0)
(-0.0156906 0.0016508 0)
(-0.0162312 0.00152507 0)
(-0.0167259 0.00138877 0)
(-0.0171714 0.00124172 0)
(-0.017564 0.001084 0)
(-0.0179002 0.000915771 0)
(-0.0181767 0.000737457 0)
(-0.0183902 0.000549638 0)
(-0.0185378 0.000353156 0)
(-0.018617 0.000149058 0)
(-0.0186253 -6.13557e-05 0)
(-0.0185612 -0.000276572 0)
(-0.0184235 -0.000494859 0)
(-0.0182115 -0.000714305 0)
(-0.0179255 -0.000932852 0)
(-0.017566 -0.00114835 0)
(-0.0171349 -0.00135859 0)
(-0.016634 -0.00156142 0)
(-0.0160667 -0.00175473 0)
(-0.0154361 -0.00193662 0)
(-0.014747 -0.00210536 0)
(-0.0140034 -0.00225956 0)
(-0.0132111 -0.00239806 0)
(-0.0123745 -0.00252018 0)
(-0.0115005 -0.00262538 0)
(-0.0105932 -0.00271364 0)
(-0.00965999 -0.00278471 0)
(-0.00870435 -0.00283869 0)
(-0.00773514 -0.0028743 0)
(-0.00675484 -0.00288985 0)
(-0.00577576 -0.00287967 0)
(-0.00480104 -0.00283608 0)
(-0.00385139 -0.00274292 0)
(-0.00293427 -0.00258143 0)
(-0.00208739 -0.00232184 0)
(-0.00132597 -0.00194275 0)
(-0.000711565 -0.00142784 0)
(-0.000256595 -0.000817599 0)
(-3.18222e-05 -0.000206767 0)
(-7.10148e-05 0.000726677 0)
(-0.000450681 0.00178268 0)
(-0.00108841 0.00249007 0)
(-0.00184008 0.00294049 0)
(-0.0026963 0.00320059 0)
(-0.00358249 0.00333935 0)
(-0.0045041 0.00339749 0)
(-0.00542401 0.00341045 0)
(-0.00635102 0.0033946 0)
(-0.00726567 0.00336332 0)
(-0.00817514 0.00332028 0)
(-0.00906794 0.00326919 0)
(-0.00994841 0.00320962 0)
(-0.0108087 0.0031422 0)
(-0.0116508 0.00306578 0)
(-0.0124686 0.00298015 0)
(-0.0132621 0.00288419 0)
(-0.0140264 0.00277747 0)
(-0.01476 0.00265902 0)
(-0.0154584 0.00252833 0)
(-0.0161192 0.00238464 0)
(-0.0167382 0.00222749 0)
(-0.0173122 0.00205637 0)
(-0.017837 0.00187104 0)
(-0.0183093 0.0016713 0)
(-0.0187249 0.00145726 0)
(-0.0190803 0.00122917 0)
(-0.0193717 0.000987607 0)
(-0.0195958 0.000733368 0)
(-0.0197493 0.000467597 0)
(-0.0198295 0.00019172 0)
(-0.0198339 -9.2504e-05 0)
(-0.0197608 -0.000383025 0)
(-0.0196088 -0.000677505 0)
(-0.0193774 -0.000973365 0)
(-0.0190667 -0.00126784 0)
(-0.0186775 -0.00155801 0)
(-0.0182118 -0.00184095 0)
(-0.0176719 -0.00211372 0)
(-0.0170612 -0.00237354 0)
(-0.0163835 -0.00261784 0)
(-0.0156439 -0.00284434 0)
(-0.0148469 -0.00305115 0)
(-0.0139991 -0.00323681 0)
(-0.0131053 -0.00340034 0)
(-0.012173 -0.00354114 0)
(-0.0112067 -0.0036591 0)
(-0.0102146 -0.00375404 0)
(-0.0092004 -0.00382589 0)
(-0.00817357 -0.00387325 0)
(-0.00713672 -0.00389358 0)
(-0.00610279 -0.00388001 0)
(-0.00507465 -0.00382197 0)
(-0.00407391 -0.00369968 0)
(-0.00310733 -0.0034878 0)
(-0.00221428 -0.00314995 0)
(-0.00140932 -0.00265505 0)
(-0.000758022 -0.00198285 0)
(-0.000273523 -0.00117069 0)
(-3.35184e-05 -0.000329528 0)
(-7.34645e-05 0.000962357 0)
(-0.000471153 0.00231836 0)
(-0.00113981 0.00321388 0)
(-0.00192687 0.00377589 0)
(-0.00282221 0.00410035 0)
(-0.00374698 0.00427219 0)
(-0.00470783 0.0043451 0)
(-0.00566583 0.00436097 0)
(-0.00663105 0.00434123 0)
(-0.00758308 0.00430134 0)
(-0.00852989 0.00424656 0)
(-0.00945938 0.00418097 0)
(-0.0103763 0.00410449 0)
(-0.0112724 0.00401766 0)
(-0.0121498 0.00391929 0)
(-0.0130021 0.00380898 0)
(-0.0138294 0.00368549 0)
(-0.0146265 0.00354817 0)
(-0.0153919 0.00339589 0)
(-0.0161209 0.00322796 0)
(-0.0168111 0.00304346 0)
(-0.0174578 0.00284178 0)
(-0.0180578 0.0026223 0)
(-0.0186068 0.0023847 0)
(-0.019101 0.00212874 0)
(-0.0195361 0.00185456 0)
(-0.0199084 0.00156247 0)
(-0.0202136 0.00125321 0)
(-0.0204484 0.000927818 0)
(-0.0206091 0.000587741 0)
(-0.0206927 0.000234816 0)
(-0.0206964 -0.000128706 0)
(-0.0206184 -0.000500185 0)
(-0.0204571 -0.000876623 0)
(-0.0202119 -0.00125469 0)
(-0.0198828 -0.00163084 0)
(-0.0194708 -0.00200131 0)
(-0.0189779 -0.00236232 0)
(-0.0184066 -0.0027101 0)
(-0.0177607 -0.00304107 0)
(-0.0170445 -0.0033519 0)
(-0.0162635 -0.00363971 0)
(-0.0154228 -0.00390206 0)
(-0.0145296 -0.00413712 0)
(-0.0135894 -0.00434364 0)
(-0.0126103 -0.00452097 0)
(-0.0115974 -0.00466888 0)
(-0.0105596 -0.00478737 0)
(-0.00950083 -0.00487623 0)
(-0.00843123 -0.00493404 0)
(-0.0073535 -0.00495739 0)
(-0.00628105 -0.00493834 0)
(-0.00521662 -0.00486332 0)
(-0.00418235 -0.00470897 0)
(-0.00318481 -0.00444297 0)
(-0.00226453 -0.00402209 0)
(-0.00143631 -0.00340487 0)
(-0.000768081 -0.00256644 0)
(-0.000273767 -0.00154132 0)
(-3.20162e-05 -0.000457143 0)
(-7.52964e-05 0.00120295 0)
(-0.000485286 0.00286972 0)
(-0.00117448 0.00395925 0)
(-0.00198553 0.00463548 0)
(-0.00290752 0.00502463 0)
(-0.00385877 0.00522914 0)
(-0.00484663 0.00531614 0)
(-0.00583094 0.0053344 0)
(-0.00682272 0.00531044 0)
(-0.00780091 0.00526175 0)
(-0.00877416 0.00519514 0)
(-0.00972993 0.00511499 0)
(-0.0106734 0.00502155 0)
(-0.011596 0.00491522 0)
(-0.0124999 0.00479479 0)
(-0.0133788 0.00465965 0)
(-0.0142327 0.00450841 0)
(-0.0150561 0.0043402 0)
(-0.0158477 0.00415374 0)
(-0.0166026 0.0039481 0)
(-0.0173181 0.0037222 0)
(-0.0179896 0.00347528 0)
(-0.0186137 0.00320655 0)
(-0.0191856 0.00291561 0)
(-0.0197015 0.00260215 0)
(-0.0201568 0.0022663 0)
(-0.0205473 0.00190845 0)
(-0.0208687 0.00152946 0)
(-0.0211169 0.00113058 0)
(-0.0212882 0.000713583 0)
(-0.021379 0.000280717 0)
(-0.0213864 -0.000165254 0)
(-0.0213079 -0.000621071 0)
(-0.0211419 -0.00108302 0)
(-0.0208875 -0.00154698 0)
(-0.0205445 -0.00200851 0)
(-0.020114 -0.00246294 0)
(-0.019598 -0.00290555 0)
(-0.0189992 -0.00333159 0)
(-0.0183219 -0.00373662 0)
(-0.0175705 -0.00411645 0)
(-0.0167513 -0.00446751 0)
(-0.0158702 -0.00478673 0)
(-0.0149349 -0.00507192 0)
(-0.0139518 -0.0053215 0)
(-0.0129296 -0.00553478 0)
(-0.0118744 -0.00571151 0)
(-0.0107955 -0.00585191 0)
(-0.00969778 -0.00595571 0)
(-0.00859158 -0.00602162 0)
(-0.00748006 -0.00604545 0)
(-0.00637695 -0.00601832 0)
(-0.00528511 -0.00592373 0)
(-0.004227 -0.00573472 0)
(-0.00320937 -0.00541193 0)
(-0.00227332 -0.00490486 0)
(-0.00143435 -0.00416146 0)
(-0.000761015 -0.00315175 0)
(-0.000267717 -0.00190886 0)
(-3.00471e-05 -0.00057937 0)
(-7.61848e-05 0.00145143 0)
(-0.000494146 0.00343865 0)
(-0.0011974 0.00472783 0)
(-0.00202544 0.00552183 0)
(-0.00296677 0.00597731 0)
(-0.00393764 0.00621526 0)
(-0.0049458 0.00631659 0)
(-0.00595011 0.00633734 0)
(-0.0069623 0.00630923 0)
(-0.00796084 0.00625187 0)
(-0.00895497 0.00617359 0)
(-0.00993185 0.00607908 0)
(-0.010897 0.00596888 0)
(-0.0118418 0.00584326 0)
(-0.0127686 0.00570094 0)
(-0.0136707 0.00554109 0)
(-0.0145485 0.00536217 0)
(-0.0153964 0.00516305 0)
(-0.0162129 0.00494226 0)
(-0.016993 0.00469865 0)
(-0.0177341 0.00443092 0)
(-0.0184312 0.0041381 0)
(-0.0190808 0.00381924 0)
(-0.0196779 0.00347378 0)
(-0.0202183 0.00310134 0)
(-0.0206971 0.00270197 0)
(-0.0211098 0.0022761 0)
(-0.0214516 0.00182468 0)
(-0.0217179 0.00134919 0)
(-0.0219045 0.000851676 0)
(-0.0220074 0.000334817 0)
(-0.022023 -0.000198092 0)
(-0.0219487 -0.000743127 0)
(-0.0217821 -0.00129581 0)
(-0.021522 -0.0018511 0)
(-0.0211683 -0.00240361 0)
(-0.0207216 -0.00294759 0)
(-0.020184 -0.00347724 0)
(-0.0195585 -0.00398672 0)
(-0.0188496 -0.00447054 0)
(-0.0180625 -0.00492352 0)
(-0.0172039 -0.00534127 0)
(-0.0162805 -0.00571999 0)
(-0.0153011 -0.00605705 0)
(-0.0142729 -0.0063505 0)
(-0.0132057 -0.00659967 0)
(-0.0121063 -0.00680428 0)
(-0.0109852 -0.00696489 0)
(-0.00984765 -0.00708126 0)
(-0.0087048 -0.00715234 0)
(-0.00756027 -0.00717325 0)
(-0.00642807 -0.00713428 0)
(-0.00531147 -0.00701595 0)
(-0.00423309 -0.00678766 0)
(-0.00320026 -0.00640284 0)
(-0.00225434 -0.00580349 0)
(-0.00141186 -0.00492716 0)
(-0.000740941 -0.00373905 0)
(-0.000255952 -0.00227331 0)
(-2.72002e-05 -0.00069787 0)
(-7.72024e-05 0.0017016 0)
(-0.000501694 0.00401437 0)
(-0.00121585 0.00550648 0)
(-0.00205715 0.00642023 0)
(-0.00301366 0.00694274 0)
(-0.00400023 0.00721442 0)
(-0.00502486 0.00733008 0)
(-0.00604575 0.00735344 0)
(-0.00707515 0.0073214 0)
(-0.00809121 0.00725577 0)
(-0.00910367 0.00716637 0)
(-0.0100995 0.00705818 0)
(-0.0110846 0.00693201 0)
(-0.0120501 0.00678794 0)
(-0.0129987 0.00662465 0)
(-0.0139237 0.00644103 0)
(-0.0148254 0.00623538 0)
(-0.0156982 0.00600629 0)
(-0.0165407 0.00575207 0)
(-0.0173477 0.00547129 0)
(-0.0181165 0.00516243 0)
(-0.0188419 0.00482424 0)
(-0.0195203 0.00445558 0)
(-0.0201463 0.00405567 0)
(-0.0207154 0.00362397 0)
(-0.0212223 0.00316044 0)
(-0.0216621 0.00266549 0)
(-0.0220293 0.00214012 0)
(-0.0223189 0.00158595 0)
(-0.0225259 0.00100531 0)
(-0.0226458 0.000401298 0)
(-0.0226744 -0.000222261 0)
(-0.0226081 -0.000860741 0)
(-0.0224444 -0.00150882 0)
(-0.0221814 -0.00216049 0)
(-0.0218185 -0.00280925 0)
(-0.0213563 -0.00344815 0)
(-0.0207967 -0.00407014 0)
(-0.020143 -0.00466809 0)
(-0.0194001 -0.00523528 0)
(-0.0185737 -0.00576535 0)
(-0.0176714 -0.00625294 0)
(-0.016701 -0.00669339 0)
(-0.0156721 -0.00708356 0)
(-0.0145934 -0.00742107 0)
(-0.0134757 -0.0077053 0)
(-0.0123272 -0.00793597 0)
(-0.0111592 -0.00811415 0)
(-0.00997814 -0.00823973 0)
(-0.00879574 -0.0083121 0)
(-0.00761638 -0.0083258 0)
(-0.00645433 -0.00827043 0)
(-0.00531346 -0.00812361 0)
(-0.00421639 -0.00785105 0)
(-0.00317126 -0.00739891 0)
(-0.00221926 -0.00670158 0)
(-0.00137805 -0.00568648 0)
(-0.000714327 -0.00431469 0)
(-0.000241998 -0.00262387 0)
(-2.44052e-05 -0.000807043 0)
(-7.79617e-05 0.0019567 0)
(-0.000507889 0.00460057 0)
(-0.0012314 0.00629901 0)
(-0.00208415 0.00733492 0)
(-0.00305398 0.0079259 0)
(-0.0040546 0.0082323 0)
(-0.00509424 0.00836297 0)
(-0.00613053 0.00838957 0)
(-0.00717616 0.00835423 0)
(-0.00820906 0.00828108 0)
(-0.00923936 0.00818138 0)
(-0.010254 0.00806045 0)
(-0.0112591 0.00791932 0)
(-0.0122458 0.0077579 0)
(-0.0132171 0.00757478 0)
(-0.0141661 0.00736857 0)
(-0.0150933 0.00713736 0)
(-0.0159931 0.00687946 0)
(-0.0168642 0.00659288 0)
(-0.017701 0.00627591 0)
(-0.018501 0.00592671 0)
(-0.0192587 0.00554375 0)
(-0.0199703 0.00512559 0)
(-0.02063 0.00467117 0)
(-0.0212331 0.00417975 0)
(-0.0217736 0.00365111 0)
(-0.0222461 0.00308554 0)
(-0.0226446 0.00248404 0)
(-0.0229633 0.00184833 0)
(-0.0231963 0.00118098 0)
(-0.0233385 0.000485463 0)
(-0.0233848 -0.000233837 0)
(-0.0233308 -0.000971557 0)
(-0.023173 -0.00172147 0)
(-0.0229092 -0.00247645 0)
(-0.0225381 -0.00322876 0)
(-0.02206 -0.00397004 0)
(-0.0214767 -0.00469177 0)
(-0.0207917 -0.00538528 0)
(-0.0200102 -0.00604238 0)
(-0.0191388 -0.00665528 0)
(-0.0181861 -0.00721744 0)
(-0.0171609 -0.00772312 0)
(-0.0160744 -0.00816856 0)
(-0.0149369 -0.00855091 0)
(-0.0137604 -0.0088696 0)
(-0.0125549 -0.00912444 0)
(-0.0113328 -0.00931712 0)
(-0.010102 -0.00944782 0)
(-0.00887481 -0.00951661 0)
(-0.0076567 -0.00951758 0)
(-0.00646212 -0.00943981 0)
(-0.00529574 -0.00925804 0)
(-0.00418001 -0.00893433 0)
(-0.00312407 -0.00840751 0)
(-0.00216861 -0.00760438 0)
(-0.00133244 -0.00644274 0)
(-0.000680114 -0.00488075 0)
(-0.00022459 -0.00296229 0)
(-2.10525e-05 -0.000908977 0)
(-7.89726e-05 0.00221367 0)
(-0.000514382 0.00519238 0)
(-0.00124687 0.00709968 0)
(-0.00211052 0.00825946 0)
(-0.00309299 0.00891991 0)
(-0.00410709 0.00926179 0)
(-0.00516125 0.00940802 0)
(-0.00621269 0.00943852 0)
(-0.00727449 0.00940061 0)
(-0.00832442 0.00932086 0)
(-0.009373 0.00921193 0)
(-0.0104071 0.0090795 0)
(-0.0114332 0.0089248 0)
(-0.0124424 0.00874756 0)
(-0.0134379 0.00854623 0)
(-0.0144129 0.00831913 0)
(-0.0153681 0.00806413 0)
(-0.0162976 0.00777918 0)
(-0.0172003 0.00746202 0)
(-0.0180707 0.00711054 0)
(-0.018906 0.00672258 0)
(-0.0197005 0.00629621 0)
(-0.0204501 0.00582965 0)
(-0.0211489 0.00532147 0)
(-0.0217916 0.00477064 0)
(-0.0223717 0.00417664 0)
(-0.0228832 0.00353958 0)
(-0.0233191 0.00286036 0)
(-0.0236731 0.00214073 0)
(-0.0239383 0.0013834 0)
(-0.0241084 0.000592218 0)
(-0.0241773 -0.000227906 0)
(-0.0241397 -0.00107084 0)
(-0.0239912 -0.00192936 0)
(-0.0237285 -0.00279511 0)
(-0.0233497 -0.00365894 0)
(-0.0228547 -0.00451084 0)
(-0.022245 -0.00534057 0)
(-0.0215243 -0.00613758 0)
(-0.0206984 -0.00689192 0)
(-0.0197746 -0.00759403 0)
(-0.0187626 -0.00823592 0)
(-0.0176732 -0.00881055 0)
(-0.0165188 -0.00931337 0)
(-0.0153119 -0.00974094 0)
(-0.0140664 -0.0100928 0)
(-0.0127942 -0.010369 0)
(-0.0115092 -0.0105719 0)
(-0.0102211 -0.0107024 0)
(-0.00894298 -0.0107613 0)
(-0.00768161 -0.0107427 0)
(-0.00645154 -0.0106352 0)
(-0.00525843 -0.0104109 0)
(-0.00412426 -0.0100282 0)
(-0.00305928 -0.00941865 0)
(-0.00210321 -0.00850164 0)
(-0.00127599 -0.00718578 0)
(-0.000639233 -0.00542785 0)
(-0.000204542 -0.00328079 0)
(-1.74801e-05 -0.000999363 0)
(-7.9893e-05 0.00247473 0)
(-0.000520671 0.00579279 0)
(-0.00126219 0.00791174 0)
(-0.00213671 0.00919738 0)
(-0.00313189 0.00992869 0)
(-0.00415962 0.0103072 0)
(-0.00522861 0.01047 0)
(-0.00629567 0.0105054 0)
(-0.00737427 0.010466 0)
(-0.00844206 0.0103808 0)
(-0.00950994 0.010264 0)
(-0.0105647 0.0101216 0)
(-0.0116133 0.00995493 0)
(-0.0126468 0.00976363 0)
(-0.0136686 0.00954597 0)
(-0.014672 0.00929995 0)
(-0.0156579 0.00902319 0)
(-0.0166203 0.00871325 0)
(-0.0175583 0.00836752 0)
(-0.0184662 0.00798348 0)
(-0.0193412 0.00755854 0)
(-0.0201775 0.00709033 0)
(-0.0209707 0.0065766 0)
(-0.0217145 0.0060155 0)
(-0.0224031 0.00540554 0)
(-0.0230294 0.00474584 0)
(-0.0235867 0.0040362 0)
(-0.0240672 0.00327728 0)
(-0.0244634 0.00247074 0)
(-0.0247675 0.00161941 0)
(-0.0249719 0.000727371 0)
(-0.0250693 -0.000199919 0)
(-0.0250531 -0.00115554 0)
(-0.0249175 -0.00213121 0)
(-0.0246582 -0.00311719 0)
(-0.0242724 -0.00410268 0)
(-0.0237592 -0.00507576 0)
(-0.02312 -0.00602411 0)
(-0.0223584 -0.00693492 0)
(-0.0214806 -0.00779607 0)
(-0.0204953 -0.00859579 0)
(-0.0194135 -0.00932428 0)
(-0.0182478 -0.00997285 0)
(-0.017013 -0.010536 0)
(-0.0157238 -0.0110095 0)
(-0.0143966 -0.0113932 0)
(-0.0130458 -0.0116871 0)
(-0.0116873 -0.0118951 0)
(-0.0103327 -0.0120184 0)
(-0.00899639 -0.0120597 0)
(-0.00768644 -0.0120126 0)
(-0.00641751 -0.0118662 0)
(-0.00519632 -0.0115897 0)
(-0.00404412 -0.0111383 0)
(-0.00297225 -0.010436 0)
(-0.00201901 -0.00939525 0)
(-0.0012054 -0.00791605 0)
(-0.000589273 -0.00595566 0)
(-0.000180397 -0.00357915 0)
(-1.32212e-05 -0.00107891 0)
(-8.1009e-05 0.00273854 0)
(-0.000527446 0.00639987 0)
(-0.00127823 0.00873307 0)
(-0.0021639 0.0101463 0)
(-0.00317207 0.0109497 0)
(-0.00421379 0.0113659 0)
(-0.00529803 0.0115461 0)
(-0.00638129 0.0115874 0)
(-0.00747739 0.0115476 0)
(-0.00856393 0.0114584 0)
(-0.00965219 0.0113352 0)
(-0.010729 0.0111845 0)
(-0.0118016 0.0110078 0)
(-0.0128612 0.0108045 0)
(-0.0139115 0.0105727 0)
(-0.0149457 0.0103101 0)
(-0.0159651 0.0100141 0)
(-0.0169637 0.00968173 0)
(-0.0179406 0.00931002 0)
(-0.0188903 0.00889596 0)
(-0.0198097 0.00843649 0)
(-0.020693 0.00792868 0)
(-0.0215355 0.00736974 0)
(-0.0223305 0.00675724 0)
(-0.0230718 0.00608915 0)
(-0.0237516 0.00536404 0)
(-0.0243623 0.00458126 0)
(-0.0248951 0.0037411 0)
(-0.0253416 0.002845 0)
(-0.0256924 0.00189571 0)
(-0.0259386 0.000897533 0)
(-0.0260712 -0.000143638 0)
(-0.0260822 -0.00122008 0)
(-0.0259641 -0.00232238 0)
(-0.0257112 -0.00343927 0)
(-0.0253195 -0.00455806 0)
(-0.024787 -0.00566456 0)
(-0.0241146 -0.00674396 0)
(-0.0233061 -0.00778072 0)
(-0.0223681 -0.00875998 0)
(-0.0213106 -0.00966725 0)
(-0.0201462 -0.0104904 0)
(-0.0188901 -0.0112187 0)
(-0.0175596 -0.0118453 0)
(-0.0161728 -0.0123653 0)
(-0.0147489 -0.0127784 0)
(-0.0133056 -0.0130854 0)
(-0.0118611 -0.0132913 0)
(-0.0104298 -0.0133988 0)
(-0.00902724 -0.0134122 0)
(-0.00766325 -0.0133258 0)
(-0.00635243 -0.0131291 0)
(-0.00510256 -0.012789 0)
(-0.00393376 -0.0122574 0)
(-0.00285841 -0.0114512 0)
(-0.00191271 -0.0102761 0)
(-0.00111865 -0.00862409 0)
(-0.000529251 -0.00645512 0)
(-0.000152056 -0.00384978 0)
(-8.42063e-06 -0.00114354 0)
(-8.20336e-05 0.00300606 0)
(-0.000534117 0.00701499 0)
(-0.00129441 0.00956521 0)
(-0.00219149 0.0111081 0)
(-0.00321305 0.011985 0)
(-0.00426923 0.01244 0)
(-0.00536931 0.0126389 0)
(-0.00646944 0.0126874 0)
(-0.00758387 0.0126486 0)
(-0.00869012 0.0125569 0)
(-0.00979988 0.0124291 0)
(-0.0109001 0.012272 0)
(-0.0119983 0.0120874 0)
(-0.0130858 0.0118745 0)
(-0.0141666 0.0116312 0)
(-0.0152341 0.0113548 0)
(-0.0162898 0.0110423 0)
(-0.0173279 0.0106905 0)
(-0.0183476 0.0102958 0)
(-0.0193433 0.00985473 0)
(-0.0203121 0.00936361 0)
(-0.0212478 0.0088189 0)
(-0.0221458 0.00821714 0)
(-0.0229988 0.00755518 0)
(-0.0238002 0.00683028 0)
(-0.0245414 0.00604032 0)
(-0.0252141 0.00518401 0)
(-0.0258083 0.00426106 0)
(-0.0263141 0.0032725 0)
(-0.0267208 0.00222086 0)
(-0.0270177 0.00111047 0)
(-0.027194 -5.23954e-05 0)
(-0.0272395 -0.00125927 0)
(-0.027145 -0.00249954 0)
(-0.0269027 -0.00376024 0)
(-0.0265068 -0.00502653 0)
(-0.0259544 -0.00628157 0)
(-0.0252453 -0.0075075 0)
(-0.0243831 -0.00868542 0)
(-0.0233751 -0.00979709 0)
(-0.0222326 -0.0108246 0)
(-0.0209705 -0.0117527 0)
(-0.0196069 -0.0125681 0)
(-0.0181625 -0.0132624 0)
(-0.0166594 -0.0138293 0)
(-0.0151207 -0.014269 0)
(-0.0135681 -0.0145827 0)
(-0.012023 -0.0147777 0)
(-0.0105029 -0.014858 0)
(-0.00902499 -0.0148308 0)
(-0.00760111 -0.0146913 0)
(-0.00624556 -0.0144302 0)
(-0.00496717 -0.0140122 0)
(-0.00378435 -0.0133868 0)
(-0.00271032 -0.0124634 0)
(-0.00177844 -0.0111416 0)
(-0.00101146 -0.00930617 0)
(-0.000456468 -0.00692223 0)
(-0.000118177 -0.00408958 0)
(-2.74065e-06 -0.00119244 0)
(-8.31792e-05 0.00327706 0)
(-0.000541041 0.00763796 0)
(-0.00131094 0.0104081 0)
(-0.00221964 0.0120824 0)
(-0.00325482 0.0130344 0)
(-0.00432578 0.0135295 0)
(-0.00544207 0.0137483 0)
(-0.00655957 0.0138051 0)
(-0.00769292 0.0137688 0)
(-0.00881963 0.0136761 0)
(-0.0099518 0.0135455 0)
(-0.0110765 0.0133842 0)
(-0.0122016 0.0131941 0)
(-0.0133186 0.0129742 0)
(-0.0144319 0.0127221 0)
(-0.0155351 0.012435 0)
(-0.0166298 0.0121094 0)
(-0.0177105 0.0117415 0)
(-0.0187767 0.0113274 0)
(-0.0198227 0.0108629 0)
(-0.0208458 0.0103438 0)
(-0.0218398 0.00976562 0)
(-0.0227997 0.00912422 0)
(-0.023718 0.00841557 0)
(-0.0245875 0.00763605 0)
(-0.025399 0.00678261 0)
(-0.0261432 0.0058531 0)
(-0.0268089 0.00484642 0)
(-0.0273848 0.00376295 0)
(-0.0278582 0.00260475 0)
(-0.0282166 0.00137597 0)
(-0.0284467 8.3074e-05 0)
(-0.0285361 -0.00126478 0)
(-0.0284728 -0.00265579 0)
(-0.0282469 -0.00407515 0)
(-0.0278501 -0.00550556 0)
(-0.0272777 -0.00692702 0)
(-0.0265283 -0.00831806 0)
(-0.0256052 -0.0096556 0)
(-0.024516 -0.0109171 0)
(-0.0232737 -0.0120802 0)
(-0.0218958 -0.013126 0)
(-0.0204041 -0.0140376 0)
(-0.0188236 -0.0148043 0)
(-0.0171818 -0.0154185 0)
(-0.0155063 -0.0158806 0)
(-0.0138244 -0.0161928 0)
(-0.0121613 -0.016365 0)
(-0.0105387 -0.0164036 0)
(-0.00897552 -0.0163194 0)
(-0.00748593 -0.0161094 0)
(-0.00608363 -0.0157666 0)
(-0.00477831 -0.0152538 0)
(-0.00358589 -0.0145185 0)
(-0.00252011 -0.0134628 0)
(-0.00161046 -0.0119809 0)
(-0.000880164 -0.0099511 0)
(-0.000368973 -0.00734638 0)
(-7.82022e-05 -0.00428998 0)
(3.78186e-06 -0.00122134 0)
(-8.41758e-05 0.00355118 0)
(-0.000547617 0.00826824 0)
(-0.00132711 0.0112611 0)
(-0.00224746 0.0130691 0)
(-0.00329645 0.0140976 0)
(-0.00438242 0.0146342 0)
(-0.00551526 0.0148741 0)
(-0.00665052 0.0149408 0)
(-0.00780329 0.0149085 0)
(-0.00895108 0.0148169 0)
(-0.0101064 0.0146857 0)
(-0.0112565 0.0145225 0)
(-0.0124096 0.0143296 0)
(-0.0135576 0.0141056 0)
(-0.014705 0.0138482 0)
(-0.0158459 0.0135539 0)
(-0.0169822 0.0132189 0)
(-0.0181087 0.012839 0)
(-0.0192249 0.0124097 0)
(-0.0203255 0.0119261 0)
(-0.021408 0.0113832 0)
(-0.0224661 0.0107758 0)
(-0.0234947 0.0100988 0)
(-0.024486 0.00934704 0)
(-0.0254325 0.00851587 0)
(-0.0263241 0.0076011 0)
(-0.0271506 0.0065994 0)
(-0.0278995 0.0055086 0)
(-0.0285578 0.00432806 0)
(-0.0291108 0.00305908 0)
(-0.0295436 0.00170534 0)
(-0.0298403 0.000273241 0)
(-0.0299853 -0.00122756 0)
(-0.0299636 -0.0027841 0)
(-0.029762 -0.00437962 0)
(-0.0293693 -0.00599404 0)
(-0.0287782 -0.00760371 0)
(-0.0279855 -0.00918271 0)
(-0.0269935 -0.0107028 0)
(-0.0258103 -0.0121361 0)
(-0.0244507 -0.0134545 0)
(-0.0229351 -0.0146341 0)
(-0.0212903 -0.0156533 0)
(-0.0195466 -0.0164985 0)
(-0.0177383 -0.0171603 0)
(-0.0158992 -0.0176394 0)
(-0.0140637 -0.0179391 0)
(-0.0122618 -0.0180731 0)
(-0.0105206 -0.0180512 0)
(-0.00886099 -0.0178891 0)
(-0.00729987 -0.0175867 0)
(-0.00584977 -0.0171406 0)
(-0.0045209 -0.0165123 0)
(-0.0033256 -0.0156481 0)
(-0.00227758 -0.0144429 0)
(-0.00140114 -0.012786 0)
(-0.000719607 -0.0105501 0)
(-0.000263738 -0.0077193 0)
(-3.08004e-05 -0.00444473 0)
(1.14211e-05 -0.00122796 0)
(-8.52384e-05 0.00382925 0)
(-0.000554144 0.0089071 0)
(-0.00134297 0.0121258 0)
(-0.00227481 0.0140695 0)
(-0.00333745 0.0151763 0)
(-0.00443839 0.0157558 0)
(-0.00558777 0.0160181 0)
(-0.00674089 0.0160962 0)
(-0.00791324 0.0160695 0)
(-0.00908238 0.0159807 0)
(-0.0102613 0.015851 0)
(-0.0114374 0.0156885 0)
(-0.0126194 0.0154956 0)
(-0.0137993 0.0152707 0)
(-0.0149823 0.0150113 0)
(-0.0161627 0.0147136 0)
(-0.0173428 0.0143734 0)
(-0.0185177 0.013986 0)
(-0.0196875 0.0135463 0)
(-0.0208469 0.0130486 0)
(-0.0219938 0.0124871 0)
(-0.0231219 0.0118557 0)
(-0.0242263 0.011148 0)
(-0.0252989 0.0103579 0)
(-0.0263318 0.0094793 0)
(-0.0273143 0.00850654 0)
(-0.0282352 0.00743487 0)
(-0.0290806 0.00626061 0)
(-0.0298357 0.00498177 0)
(-0.0304836 0.0035984 0)
(-0.0310065 0.00211331 0)
(-0.0313853 0.000532463 0)
(-0.0316009 -0.00113428 0)
(-0.0316341 -0.00287294 0)
(-0.0314678 -0.00466477 0)
(-0.0310867 -0.00648664 0)
(-0.03048 -0.00831061 0)
(-0.0296416 -0.0101054 0)
(-0.0285726 -0.0118365 0)
(-0.0272808 -0.0134689 0)
(-0.0257832 -0.0149673 0)
(-0.0241037 -0.0163009 0)
(-0.0222751 -0.0174423 0)
(-0.0203346 -0.0183737 0)
(-0.0183254 -0.019083 0)
(-0.0162896 -0.0195715 0)
(-0.0142707 -0.0198443 0)
(-0.012305 -0.0199199 0)
(-0.0104264 -0.0198129 0)
(-0.00865829 -0.0195462 0)
(-0.00702031 -0.0191239 0)
(-0.00552314 -0.0185477 0)
(-0.0041768 -0.017779 0)
(-0.00298861 -0.0167638 0)
(-0.00197129 -0.0153897 0)
(-0.00114237 -0.013542 0)
(-0.000524658 -0.0110884 0)
(-0.000138043 -0.0080274 0)
(2.49244e-05 -0.00454335 0)
(2.02196e-05 -0.0012075 0)
(-8.60615e-05 0.00410945 0)
(-0.00055995 0.00955183 0)