/*--------------------------------*- C++ -*----------------------------------*\
| =========                 |                                                 |
| \\      /  F ield         | OpenFOAM: The Open Source CFD Toolbox           |
|  \\    /   O peration     | Version:  2406                                  |
|   \\  /    A nd           | Website:  www.openfoam.com                      |
|    \\/     M anipulation  |                                                 |
\*---------------------------------------------------------------------------*/
FoamFile
{
    version     2.0;
    format      ascii;
    arch        "LSB;label=32;scalar=64";
    class       surfaceScalarField;
    location    "44";
    object      phi;
}
// * * * * * * * * * * * * * * * * * * * * * * * * * * * * * * * * * * * * * //

dimensions      [0 3 -1 0 0 0 0];

oriented        oriented;

internalField   nonuniform List<scalar> 
8064
(
2.30444e-07
-2.30238e-07
1.1531e-06
-9.22659e-07
2.54243e-06
-1.38932e-06
4.04354e-06
-1.50111e-06
5.36237e-06
-1.31883e-06
6.33879e-06
-9.76418e-07
6.94529e-06
-6.065e-07
7.24818e-06
-3.02888e-07
7.35493e-06
-1.06751e-07
7.36025e-06
-5.31652e-09
7.31789e-06
4.23534e-08
7.2224e-06
9.54892e-08
7.01715e-06
2.05257e-07
6.61272e-06
4.04432e-07
5.90145e-06
7.11263e-07
4.77106e-06
1.13039e-06
3.10543e-06
1.66563e-06
7.86183e-07
2.31925e-06
-2.3045e-06
3.09068e-06
-6.27682e-06
3.97232e-06
-1.12241e-05
4.94728e-06
-1.72078e-05
5.98373e-06
-2.42409e-05
7.03309e-06
-3.22717e-05
8.03081e-06
-4.1173e-05
8.90132e-06
-5.07373e-05
9.56424e-06
-6.06774e-05
9.94012e-06
-7.06341e-05
9.95673e-06
-8.01909e-05
9.55678e-06
-8.88969e-05
8.706e-06
-9.62966e-05
7.39967e-06
-0.00010196
5.66331e-06
-0.000105505
3.54499e-06
-0.000106636
1.13081e-06
-0.000105017
-1.61823e-06
-0.000100459
-4.55816e-06
-9.29626e-05
-7.49667e-06
-8.26342e-05
-1.03284e-05
-6.97256e-05
-1.29086e-05
-5.46529e-05
-1.50727e-05
-3.80024e-05
-1.66505e-05
-2.05227e-05
-1.74797e-05
-3.0947e-06
-1.7428e-05
1.339e-05
-1.64847e-05
2.79776e-05
-1.45875e-05
3.98245e-05
-1.18469e-05
4.83147e-05
-8.49024e-06
5.31548e-05
-4.84003e-06
5.44196e-05
-1.26485e-06
5.24902e-05
1.92937e-06
4.81145e-05
4.37569e-06
4.21235e-05
5.99101e-06
3.53834e-05
6.74011e-06
2.86322e-05
6.7512e-06
2.23926e-05
6.23958e-06
1.69569e-05
5.43576e-06
1.24236e-05
4.53327e-06
8.75759e-06
3.66603e-06
5.85006e-06
2.90752e-06
3.57285e-06
2.27721e-06
1.83094e-06
1.74191e-06
6.14538e-07
1.2164e-06
9.19773e-09
6.0534e-07
9.1977e-09
8.64175e-07
-1.09441e-06
3.11726e-06
-3.17575e-06
6.17085e-06
-4.44291e-06
9.34742e-06
-4.67768e-06
1.20949e-05
-4.06634e-06
1.40898e-05
-2.97133e-06
1.52406e-05
-1.75722e-06
1.56231e-05
-6.85478e-07
1.53866e-05
1.2981e-07
1.46639e-05
7.17358e-07
1.3498e-05
1.20827e-06
1.18185e-05
1.77497e-06
9.44742e-06
2.57635e-06
6.13518e-06
3.71668e-06
1.58957e-06
5.25687e-06
-4.49224e-06
7.2122e-06
-1.24021e-05
9.5755e-06
-2.24045e-05
1.23216e-05
-3.47052e-05
1.53914e-05
-4.94076e-05
1.86747e-05
-6.64591e-05
2.19988e-05
-8.56089e-05
2.51335e-05
-0.000106394
2.78186e-05
-0.000128167
2.98039e-05
-0.000150153
3.08872e-05
-0.000171525
3.0936e-05
-0.000191477
2.98923e-05
-0.000209283
2.77626e-05
-0.000224326
2.45998e-05
-0.000236108
2.04883e-05
-0.000244246
1.55367e-05
-0.000248466
9.88418e-06
-0.000248642
3.7204e-06
-0.000244571
-2.93993e-06
-0.00023615
-1.00395e-05
-0.000223521
-1.71868e-05
-0.000206804
-2.42141e-05
-0.000186246
-3.08861e-05
-0.00016223
-3.69245e-05
-0.000135287
-4.20158e-05
-0.000106109
-4.5828e-05
-7.55559e-05
-4.80333e-05
-4.46332e-05
-4.83506e-05
-1.4511e-05
-4.6607e-05
1.36694e-05
-4.27679e-05
3.87674e-05
-3.6945e-05
5.95869e-05
-2.93097e-05
7.53547e-05
-2.06078e-05
8.56141e-05
-1.15243e-05
9.04028e-05
-2.85936e-06
8.99548e-05
4.82376e-06
8.50566e-05
1.08892e-05
7.68181e-05
1.49785e-05
6.65013e-05
1.7068e-05
5.5334e-05
1.74068e-05
4.43373e-05
1.64325e-05
3.4222e-05
1.46485e-05
2.53682e-05
1.25199e-05
1.78904e-05
1.03853e-05
1.17407e-05
8.42689e-06
6.82858e-06
6.65406e-06
3.13809e-06
4.90689e-06
7.97373e-07
2.94606e-06
8.0657e-07
1.35644e-06
-2.45085e-06
4.50719e-06
-6.3265e-06
8.50684e-06
-8.44256e-06
1.24696e-05
-8.64041e-06
1.57215e-05
-7.31822e-06
1.78745e-05
-5.12439e-06
1.88039e-05
-2.68662e-06
1.85595e-05
-4.41051e-07
1.72514e-05
1.43787e-06
1.49441e-05
3.02474e-06
1.15768e-05
4.57551e-06
6.94257e-06
6.40922e-06
7.00788e-07
8.81813e-06
-7.57459e-06
1.19921e-05
-1.83239e-05
1.60062e-05
-3.19655e-05
2.08538e-05
-4.88296e-05
2.64396e-05
-6.90759e-05
3.25679e-05
-9.26002e-05
3.89157e-05
-0.000118963
4.50378e-05
-0.000147393
5.04286e-05
-0.000176876
5.4616e-05
-0.000206303
5.72459e-05
-0.000234622
5.8123e-05
-0.000260937
5.72023e-05
-0.00028455
5.45491e-05
-0.000304953
5.02955e-05
-0.000321796
4.46053e-05
-0.000334847
3.76504e-05
-0.000343957
2.95986e-05
-0.000349034
2.06134e-05
-0.000350027
1.08778e-05
-0.000347005
6.98253e-07
-0.000339764
-1.01817e-05
-0.000328533
-2.12701e-05
-0.000313316
-3.24042e-05
-0.000294186
-4.33436e-05
-0.000271297
-5.37755e-05
-0.000244887
-6.33339e-05
-0.000215314
-7.15893e-05
-0.000183072
-7.80692e-05
-0.000148822
-8.22835e-05
-0.000113395
-8.37782e-05
-7.77924e-05
-8.22093e-05
-4.31661e-05
-7.73941e-05
-1.07338e-05
-6.93773e-05
1.85044e-05
-5.8548e-05
4.33816e-05
-4.5485e-05
6.30154e-05
-3.11581e-05
7.68977e-05
-1.67416e-05
8.5108e-05
-3.38662e-06
8.77354e-05
8.26188e-06
8.53952e-05
1.73188e-05
7.90577e-05
2.34056e-05
6.98897e-05
2.65748e-05
5.91236e-05
2.71986e-05
4.7883e-05
2.58891e-05
3.70472e-05
2.33557e-05
2.71841e-05
2.02484e-05
1.85836e-05
1.70274e-05
1.13669e-05
1.38707e-05
5.64244e-06
1.06314e-05
1.66527e-06
6.92323e-06
2.47184e-06
1.68619e-06
-4.13704e-06
5.38052e-06
-1.00208e-05
9.80376e-06
-1.28658e-05
1.38817e-05
-1.27184e-05
1.68728e-05
-1.03094e-05
1.8384e-05
-6.63557e-06
1.82914e-05
-2.59396e-06
1.66072e-05
1.24308e-06
1.33554e-05
4.68975e-06
8.45836e-06
7.92174e-06
1.6702e-06
1.13637e-05
-7.42578e-06
1.55052e-05
-1.93423e-05
2.07347e-05
-3.46189e-05
2.72686e-05
-5.37208e-05
3.51081e-05
-7.69104e-05
4.40434e-05
-0.000104114
5.36435e-05
-0.000134814
6.3268e-05
-0.000168046
7.21474e-05
-0.000202543
7.95344e-05
-0.000236969
8.48547e-05
-0.000270135
8.77819e-05
-0.000301115
8.8226e-05
-0.000329263
8.62716e-05
-0.000354173
8.21121e-05
-0.000375617
7.59933e-05
-0.000393493
6.81713e-05
-0.000407774
5.88861e-05
-0.000418472
4.83483e-05
-0.00042561
3.67371e-05
-0.000429209
2.42115e-05
-0.000429268
1.09378e-05
-0.000425666
-2.90436e-06
-0.000418601
-1.72462e-05
-0.000407964
-3.19076e-05
-0.000393695
-4.66732e-05
-0.000375751
-6.12877e-05
-0.000354122
-7.54045e-05
-0.000328857
-8.85984e-05
-0.000300097
-0.000100349
-0.000268107
-0.000110059
-0.000233317
-0.000117074
-0.000196354
-0.000120741
-0.000158065
-0.000120498
-0.000119497
-0.000115962
-8.1838e-05
-0.000107036
-4.63834e-05
-9.40026e-05
-1.43181e-05
-7.75503e-05
1.33552e-05
-5.88314e-05
3.57833e-05
-3.91698e-05
5.24468e-05
-2.00501e-05
6.35072e-05
-2.79849e-06
6.90987e-05
1.17273e-05
6.97499e-05
2.27543e-05
6.62608e-05
3.0064e-05
5.96319e-05
3.38274e-05
5.09642e-05
3.45568e-05
4.1315e-05
3.3005e-05
3.1567e-05
2.99965e-05
2.23642e-05
2.62301e-05
1.41474e-05
2.20875e-05
7.27913e-06
1.74997e-05
2.25128e-06
1.19511e-05
4.72312e-06
1.91136e-06
-6.0484e-06
5.85821e-06
-1.39677e-05
1.02401e-05
-1.72476e-05
1.38237e-05
-1.6302e-05
1.58468e-05
-1.23325e-05
1.59512e-05
-6.73998e-06
1.40332e-05
-6.75916e-07
1.00403e-05
5.23597e-06
3.87642e-06
1.08536e-05
-4.76081e-06
1.6559e-05
-1.63485e-05
2.29514e-05
-3.14806e-05
3.06373e-05
-5.07548e-05
4.00089e-05
-7.45964e-05
5.11102e-05
-0.000103082
6.35938e-05
-0.000135783
7.67446e-05
-0.000171717
8.95769e-05
-0.000209479
0.00010103
-0.000247532
0.000110201
-0.000284502
0.000116504
-0.000319342
0.000119695
-0.000351365
0.000119805
-0.000380187
0.000117049
-0.000405642
0.000111726
-0.000427702
0.000104172
-0.00044642
9.47117e-05
-0.000461886
8.36377e-05
-0.000474198
7.11979e-05
-0.000483445
5.75948e-05
-0.000489697
4.29895e-05
-0.000492995
2.75091e-05
-0.000493292
1.12355e-05
-0.000490529
-5.66787e-06
-0.000484863
-2.29126e-05
-0.000476129
-4.06411e-05
-0.000464182
-5.86202e-05
-0.000448881
-7.65883e-05
-0.000430077
-9.42091e-05
-0.000407639
-0.000111037
-0.000381483
-0.000126505
-0.000351616
-0.000139926
-0.00031818
-0.00015051
-0.000281528
-0.000157393
-0.000242266
-0.000159761
-0.000201282
-0.000156945
-0.000159748
-0.00014857
-0.000119052
-0.000134699
-8.06524e-05
-0.00011595
-4.59596e-05
-9.35242e-05
-1.60653e-05
-6.90641e-05
8.32361e-06
-4.4439e-05
2.69073e-05
-2.13822e-05
3.98759e-05
-1.24138e-06
4.75527e-05
1.50776e-05
5.04696e-05
2.7147e-05
4.93397e-05
3.49574e-05
4.50352e-05
3.88613e-05
3.8521e-05
3.95191e-05
3.07499e-05
3.77676e-05
2.25653e-05
3.44148e-05
1.46722e-05
2.99806e-05
7.70779e-06
2.44641e-05
2.4218e-06
1.72371e-05
7.14492e-06
2.05281e-06
-8.10121e-06
5.95946e-06
-1.78743e-05
9.81755e-06
-2.11057e-05
1.2294e-05
-1.87785e-05
1.26611e-05
-1.26995e-05
1.0628e-05
-4.70683e-06
6.07786e-06
3.87418e-06
-1.09822e-06
1.24121e-05
-1.1229e-05
2.09844e-05
-2.48225e-05
3.01525e-05
-4.25415e-05
4.06703e-05
-6.50099e-05
5.31057e-05
-9.25756e-05
6.75746e-05
-0.000125085
8.36195e-05
-0.000161748
0.000100257
-0.000201193
0.000116189
-0.000241731
0.000130115
-0.000281729
0.000141028
-0.000319886
0.000148357
-0.000355329
0.000151948
-0.000387571
0.000151937
-0.000416407
0.000148641
-0.000441817
0.000142459
-0.000463895
0.000133804
-0.000482786
0.000123063
-0.000498659
0.000110584
-0.000511681
9.66596e-05
-0.00052201
8.1527e-05
-0.000529787
6.53722e-05
-0.000535131
4.83332e-05
-0.000538115
3.04928e-05
-0.000538724
1.18447e-05
-0.000536999
-7.39302e-06
-0.000533004
-2.69074e-05
-0.000526605
-4.70398e-05
-0.000517638
-6.75875e-05
-0.000505893
-8.8333e-05
-0.000491114
-0.000108989
-0.000473006
-0.000129144
-0.00045126
-0.000148251
-0.000425592
-0.000165594
-0.000395804
-0.000180298
-0.000361846
-0.000191351
-0.000323918
-0.000197689
-0.000282578
-0.000198286
-0.000238793
-0.000192355
-0.000193949
-0.000179543
-0.000149765
-0.000160134
-0.000108113
-0.000135176
-7.07073e-05
-0.000106469
-3.88163e-05
-7.633e-05
-1.30505e-05
-4.71479e-05
6.58809e-06
-2.088e-05
2.04499e-05
1.21576e-06
2.91464e-05
1.84505e-05
3.32982e-05
3.08056e-05
3.36052e-05
3.85542e-05
3.08698e-05
4.22545e-05
2.59695e-05
4.26679e-05
1.97929e-05
4.05913e-05
1.31947e-05
3.65788e-05
7.01779e-06
3.06411e-05
2.20159e-06
2.20533e-05
9.34651e-06
2.08272e-06
-1.01839e-05
5.5931e-06
-2.13847e-05
8.38839e-06
-2.3901e-05
9.12432e-06
-1.95144e-05
7.16315e-06
-1.07384e-05
2.29167e-06
1.64643e-07
-5.64764e-06
1.18135e-05
-1.69052e-05
2.36696e-05
-3.1993e-05
3.60721e-05
-5.15985e-05
4.97579e-05
-7.6352e-05
6.54239e-05
-0.000106531
8.32844e-05
-0.000141788
0.000102832
-0.000181049
0.00012288
-0.00022266
0.000141869
-0.000264759
0.000158288
-0.000305677
0.000171033
-0.000344189
0.000179539
-0.000379541
0.000183709
-0.000411366
0.000183773
-0.000439567
0.000180138
-0.000464212
0.000173286
-0.000485464
0.000163712
-0.00050354
0.00015188
-0.000518682
0.000138205
-0.000531138
0.00012304
-0.000541151
0.000106673
-0.000548951
8.93265e-05
-0.000554744
7.11651e-05
-0.000558707
5.22966e-05
-0.000560976
3.27622e-05
-0.000561636
1.25042e-05
-0.00056076
-8.26917e-06
-0.000558364
-2.93032e-05
-0.000554377
-5.1027e-05
-0.000548659
-7.3305e-05
-0.000540991
-9.60012e-05
-0.000531063
-0.000118916
-0.000518474
-0.000141733
-0.000502739
-0.000163986
-0.000483313
-0.00018502
-0.00045964
-0.000203971
-0.000431227
-0.000219764
-0.000397761
-0.000231155
-0.000359235
-0.000236812
-0.000316095
-0.000235494
-0.000269404
-0.000226235
-0.000220851
-0.000208687
-0.000172661
-0.000183366
-0.000127299
-0.000151831
-8.70079e-05
-0.000116621
-5.33117e-05
-8.08441e-05
-2.67182e-05
-4.74735e-05
-6.85957e-06
-1.86429e-05
6.98936e-06
4.6016e-06
1.57157e-05
2.20793e-05
2.01318e-05
3.41381e-05
2.09776e-05
4.14088e-05
1.90604e-05
4.45851e-05
1.52439e-05
4.44078e-05
1.04369e-05
4.13858e-05
5.59093e-06
3.5487e-05
1.72738e-06
2.59168e-05
1.10739e-05
1.94021e-06
-1.21241e-05
4.60566e-06
-2.40502e-05
5.74252e-06
-2.50379e-05
4.10228e-06
-1.78742e-05
-8.09523e-07
-5.82656e-06
-9.17572e-06
8.53084e-06
-2.11835e-05
2.38213e-05
-3.72785e-05
3.97647e-05
-5.80959e-05
5.68895e-05
-8.42534e-05
7.59155e-05
-0.00011599
9.71603e-05
-0.000152847
0.000120142
-0.000193575
0.000143559
-0.000236337
0.000165642
-0.000279147
0.00018468
-0.000320302
0.000199443
-0.000358598
0.000209329
-0.000393336
0.000214278
-0.000424213
0.000214587
-0.000451186
0.000210745
-0.000474375
0.000203327
-0.000494007
0.000192918
-0.000510369
0.000180073
-0.000523783
0.000165294
-0.000534587
0.000149008
-0.000543112
0.000131565
-0.000549673
0.000113234
-0.00055456
9.42139e-05
-0.00055803
7.46343e-05
-0.000560298
5.45654e-05
-0.00056155
3.40138e-05
-0.000561948
1.29017e-05
-0.000561582
-8.63492e-06
-0.000560436
-3.04487e-05
-0.000558517
-5.29463e-05
-0.000555749
-7.60733e-05
-0.000551962
-9.97879e-05
-0.00054688
-0.000123999
-0.000540096
-0.000148517
-0.000531065
-0.000173017
-0.000519099
-0.000196986
-0.000503386
-0.000219684
-0.000483045
-0.000240106
-0.000457225
-0.000256974
-0.000425254
-0.000268782
-0.000386847
-0.000273902
-0.000342299
-0.000270782
-0.000292737
-0.000258249
-0.000240231
-0.000235873
-0.000187662
-0.0002044
-0.000138309
-0.000165974
-9.51276e-05
-0.000124025
-5.99689e-05
-8.26322e-05
-3.31756e-05
-4.54362e-05
-1.39152e-05
-1.46587e-05
-8.97505e-07
9.06152e-06
7.05675e-06
2.61838e-05
1.09778e-05
3.74877e-05
1.17289e-05
4.3834e-05
1.01755e-05
4.59612e-05
7.24052e-06
4.43208e-05
3.90428e-06
3.88233e-05
1.17234e-06
2.86488e-05
1.22462e-05
1.55017e-06
-1.36743e-05
2.83809e-06
-2.53381e-05
1.68525e-06
-2.3885e-05
-2.89953e-06
-1.32894e-05
-1.12928e-05
2.56674e-06
-2.36718e-05
2.09098e-05
-4.03104e-05
4.04599e-05
-6.17399e-05
6.11941e-05
-8.85279e-05
8.36775e-05
-0.000120904
0.000108292
-0.00015839
0.000134646
-0.00019967
0.000161422
-0.000242812
0.000186701
-0.000285733
0.000208563
-0.000326661
0.000225607
-0.000364362
0.000237143
-0.00039814
0.000243108
-0.000427708
0.000243845
-0.000453049
0.000239928
-0.000474332
0.000232029
-0.000491848
0.000220842
-0.000505963
0.000207033
-0.000517091
0.000191201
-0.000525656
0.00017386
-0.000532075
0.000155427
-0.000536735
0.000136225
-0.000539986
0.000116486
-0.000542133
9.63613e-05
-0.000543435
7.59364e-05
-0.000544107
5.52369e-05
-0.000544333
3.42401e-05
-0.000544306
1.28742e-05
-0.000544119
-8.82216e-06
-0.000543725
-3.08425e-05
-0.000543212
-5.3459e-05
-0.000542584
-7.67016e-05
-0.000541759
-0.000100612
-0.000540564
-0.000125194
-0.000538696
-0.000150385
-0.000535694
-0.000176019
-0.000530903
-0.000201777
-0.000523455
-0.000227132
-0.000512278
-0.000251283
-0.000496147
-0.000273106
-0.000473801
-0.000291128
-0.000444141
-0.000303561
-0.000406501
-0.000308423
-0.000360971
-0.000303779
-0.000308709
-0.000288134
-0.000252205
-0.000260905
-0.000195142
-0.000223037
-0.000141818
-0.00017735
-9.60634e-05
-0.000128386
-6.00658e-05
-8.14339e-05
-3.38537e-05
-4.08708e-05
-1.59629e-05
-8.82927e-06
-4.47631e-06
1.46972e-05
2.17666e-06
3.08347e-05
5.1891e-06
4.08215e-05
5.58384e-06
4.55665e-05
4.32166e-06
4.55829e-05
2.37739e-06
4.07675e-05
6.87104e-07
3.0339e-05
1.29333e-05
8.44781e-07
-1.45191e-05
1.67922e-07
-2.46612e-05
-3.80434e-06
-1.99128e-05
-1.1834e-05
-5.25974e-06
-2.41431e-05
1.48759e-05
-4.08864e-05
3.7653e-05
-6.2417e-05
6.19906e-05
-8.92017e-05
8.79788e-05
-0.000121467
0.000115943
-0.000158789
0.000145613
-0.000199892
0.000175749
-0.000242826
0.000204356
-0.000285435
0.00022931
-0.000325851
0.000248979
-0.000362763
0.000262519
-0.000395432
0.000269812
-0.000423555
0.00027123
-0.000447133
0.000267424
-0.000466382
0.000259176
-0.000481661
0.000247308
-0.000493428
0.000232609
-0.000502187
0.000215792
-0.000508454
0.000197467
-0.000512717
0.000178124
-0.000515424
0.000158134
-0.000516962
0.000137762
-0.000517655
0.000117179
-0.00051777
9.64766e-05
-0.00051752
7.56861e-05
-0.000517075
5.47914e-05
-0.00051658
3.37455e-05
-0.000516194
1.24884e-05
-0.000515989
-9.02696e-06
-0.00051594
-3.08917e-05
-0.000516165
-5.32345e-05
-0.000516719
-7.61475e-05
-0.000517613
-9.97176e-05
-0.000518799
-0.000124008
-0.000520136
-0.000149048
-0.000521349
-0.000174807
-0.000521974
-0.000201152
-0.000521307
-0.000227799
-0.000518355
-0.000254235
-0.000511822
-0.000279638
-0.000500154
-0.000302797
-0.000481661
-0.000322054
-0.00045476
-0.000335324
-0.000418327
-0.000340212
-0.000372157
-0.000334305
-0.000317408
-0.000315653
-0.000257012
-0.000283433
-0.000195595
-0.000238767
-0.000138668
-0.000185313
-9.1052e-05
-0.00012905
-5.51543e-05
-7.67685e-05
-3.04131e-05
-3.35704e-05
-1.45636e-05
-1.15222e-06
-5.03181e-06
2.13029e-05
5.09401e-08
3.57388e-05
2.06362e-06
4.35538e-05
2.14535e-06
4.55012e-05
1.28952e-06
4.16234e-05
3.68866e-07
3.12597e-05
1.33022e-05
-2.20694e-07
-1.42984e-05
-3.37194e-06
-2.151e-05
-1.06688e-05
-1.26159e-05
-2.24885e-05
6.55991e-06
-3.89184e-05
3.13059e-05
-6.01248e-05
5.88594e-05
-8.64168e-05
8.82826e-05
-0.000117995
0.000119557
-0.00015453
0.000152478
-0.000194875
0.000185958
-0.000237147
0.000218021
-0.000279154
0.000246364
-0.00031892
0.000269076
-0.000355016
0.000285075
-0.000386618
0.000294121
-0.000413386
0.00029658
-0.000435328
0.000293172
-0.0004527
0.000284796
-0.000465936
0.000272412
-0.000475582
0.000256954
-0.000482237
0.000239263
-0.000486499
0.000220054
-0.000488926
0.000199894
-0.000490008
0.000179206
-0.000490156
0.000158282
-0.000489697
0.000137303
-0.000488883
0.000116365
-0.000487902
9.54956e-05
-0.000486892
7.46759e-05
-0.000485957
5.38566e-05
-0.000485186
3.29743e-05
-0.000484668
1.19706e-05
-0.00048445
-9.24427e-06
-0.000484551
-3.07916e-05
-0.000485059
-5.27263e-05
-0.000486056
-7.51502e-05
-0.000487615
-9.81591e-05
-0.000489784
-0.000121838
-0.000492568
-0.000146264
-0.000495889
-0.000171486
-0.000499532
-0.000197509
-0.000503081
-0.00022425
-0.000505837
-0.000251478
-0.000506747
-0.000278728
-0.000504355
-0.000305189
-0.000496818
-0.000329591
-0.000482032
-0.00035011
-0.000457904
-0.000364341
-0.000422795
-0.000369413
-0.000376126
-0.000362322
-0.000319027
-0.000340532
-0.000254904
-0.000302889
-0.00018949
-0.000250727
-0.000129704
-0.000188837
-8.13631e-05
-0.000125109
-4.67927e-05
-6.81408e-05
-2.44391e-05
-2.35058e-05
-1.11011e-05
7.96487e-06
-3.73878e-06
2.83764e-05
-2.3673e-07
4.00518e-05
8.85712e-07
4.43788e-05
7.54226e-07
4.17548e-05
2.54655e-07
3.17593e-05
1.35568e-05
-1.64421e-06
-1.26542e-05
-7.7416e-06
-1.54126e-05
-1.86733e-05
-1.68418e-06
-3.43888e-05
2.22754e-05
-5.49172e-05
5.18343e-05
-8.03611e-05
8.43033e-05
-0.000110844
0.000118765
-0.000146129
0.000154843
-0.000185262
0.00019161
-0.000226513
0.000227209
-0.000267717
0.000259225
-0.000306796
0.000285444
-0.000342176
0.000304455
-0.000372908
0.000315807
-0.000398586
0.0003198
-0.000419206
0.0003172
-0.000435056
0.000309022
-0.000446635
0.000296375
-0.000454573
0.000280351
-0.000459557
0.000261938
-0.000462264
0.00024197
-0.000463311
0.000221101
-0.000463225
0.000199808
-0.00046243
0.00017841
-0.000461245
0.000157097
-0.000459901
0.000135959
-0.000458553
0.000115017
-0.0004573
9.42424e-05
-0.000456202
7.35787e-05
-0.000455301
5.29553e-05
-0.000454628
3.23012e-05
-0.000454219
1.15619e-05
-0.000454095
-9.3689e-06
-0.000454285
-3.0601e-05
-0.000454862
-5.21495e-05
-0.000455905
-7.4107e-05
-0.000457509
-9.65553e-05
-0.000459773
-0.000119574
-0.000462789
-0.000143248
-0.000466616
-0.000167659
-0.000471242
-0.000192883
-0.000476527
-0.000218965
-0.000482125
-0.00024588
-0.000487386
-0.000273467
-0.000491246
-0.000301329
-0.000492148
-0.000328689
-0.000488021
-0.000354237
-0.000476384
-0.000375978
-0.000454642
-0.000391155
-0.000420616
-0.000396349
-0.000373306
-0.000387841
-0.000313812
-0.000362383
-0.000246116
-0.000318423
-0.000177266
-0.000257687
-0.000115774
-0.000186601
-6.82838e-05
-0.000115631
-3.64301e-05
-5.53596e-05
-1.73173e-05
-1.11479e-05
-6.78849e-06
1.78476e-05
-1.5905e-06
3.48538e-05
4.32648e-07
4.23556e-05
7.27424e-07
4.14601e-05
3.27399e-07
3.21593e-05
1.38842e-05
-3.3855e-06
-9.26868e-06
-1.27478e-05
-6.05034e-06
-2.73463e-05
1.29144e-05
-4.68882e-05
4.18172e-05
-7.12304e-05
7.61766e-05
-0.000100359
0.000113432
-0.000134085
0.000152491
-0.000171664
0.000192422
-0.000211601
0.000231548
-0.000251841
0.000267449
-0.000290247
0.000297631
-0.000325083
0.00032028
-0.000355238
0.00033461
-0.000380202
0.000340771
-0.00039993
0.000339528
-0.000414721
0.000331991
-0.000425122
0.000319423
-0.000431835
0.000303088
-0.000435626
0.000284142
-0.000437244
0.000263556
-0.00043736
0.000242086
-0.000436533
0.000220274
-0.000435195
0.000198471
-0.000433659
0.000176874
-0.000432131
0.000155568
-0.000430732
0.000134561
-0.000429526
0.000113811
-0.000428535
9.32512e-05
-0.00042776
7.28042e-05
-0.000427196
5.23913e-05
-0.000426837
3.19423e-05
-0.000426681
1.14051e-05
-0.000426734
-9.31507e-06
-0.000427033
-3.0303e-05
-0.000427621
-5.15609e-05
-0.000428569
-7.31589e-05
-0.000429968
-9.51563e-05
-0.000431928
-0.000117614
-0.000434575
-0.000140602
-0.000438034
-0.0001642
-0.000442414
-0.000188503
-0.000447764
-0.000213615
-0.000454017
-0.000239627
-0.000460899
-0.000266585
-0.00046782
-0.000294407
-0.000473738
-0.000322771
-0.000477032
-0.000350944
-0.000475444
-0.000377565
-0.000466161
-0.000400439
-0.000446112
-0.000416398
-0.000412586
-0.000421368
-0.000364181
-0.000410788
-0.000302021
-0.000380583
-0.000230871
-0.000328837
-0.000159416
-0.000258056
-9.78916e-05
-0.000177156
-5.32458e-05
-0.000100005
-2.55422e-05
-3.88515e-05
-1.02366e-05
2.54203e-06
-2.64052e-06
2.72577e-05
4.38623e-07
3.92765e-05
1.03754e-06
4.08611e-05
5.29651e-07
3.26672e-05
1.44139e-05
-5.33085e-06
-3.93783e-06
-1.80105e-05
6.6293e-06
-3.62024e-05
3.11063e-05
-5.92375e-05
6.48523e-05
-8.68625e-05
0.000103802
-0.000118856
0.000145425
-0.000154651
0.000188286
-0.000193033
0.000230804
-0.000232152
0.000270667
-0.00026989
0.000305187
-0.000304366
0.000332107
-0.000334273
0.000350187
-0.00035895
0.000359286
-0.00037827
0.000360091
-0.000392511
0.000353769
-0.000402242
0.000341722
-0.000408217
0.000325398
-0.00041127
0.000306141
-0.000412216
0.000285087
-0.000411778
0.000263118
-0.000410548
0.000240856
-0.000408968
0.000218695
-0.000407344
0.000196847
-0.000405861
0.000175391
-0.000404614
0.000154322
-0.000403636
0.000133583
-0.000402919
0.000113094
-0.000402436
9.27677e-05
-0.000402152
7.25203e-05
-0.000402036
5.22761e-05
-0.000402066
3.19715e-05
-0.000402219
1.15585e-05
-0.0004025
-9.03384e-06
-0.000402937
-2.98665e-05
-0.000403557
-5.09402e-05
-0.000404415
-7.23011e-05
-0.000405585
-9.39867e-05
-0.000407163
-0.000116036
-0.000409271
-0.000138494
-0.000412047
-0.000161423
-0.000415647
-0.000184904
-0.000420216
-0.000209045
-0.000425861
-0.000233982
-0.000432582
-0.000259863
-0.00044018
-0.00028681
-0.00044812
-0.000314831
-0.00045538
-0.000343684
-0.000460281
-0.000372665
-0.00046039
-0.000400329
-0.000452576
-0.000424211
-0.000433323
-0.000440621
-0.000399426
-0.000444684
-0.000349163
-0.000430847
-0.000283859
-0.000394141
-0.000209435
-0.00033248
-0.000136656
-0.000249934
-7.74241e-05
-0.000159237
-3.78754e-05
-7.84002e-05
-1.54606e-05
-1.98728e-05
-4.25074e-06
1.60479e-05
4.01056e-07
3.46247e-05
1.43311e-06
3.98291e-05
7.8029e-07
3.332e-05
1.51942e-05
-7.32376e-06
3.38593e-06
-2.31867e-05
2.24922e-05
-4.46514e-05
5.25711e-05
-7.06759e-05
9.08768e-05
-0.000100866
0.000133992
-0.00013475
0.000179308
-0.000171387
0.000224924
-0.000209215
0.000268632
-0.000246237
0.000307689
-0.000280487
0.000339436
-0.000310451
0.000362071
-0.000335264
0.000375
-0.000354669
0.000378691
-0.000368877
0.000374299
-0.000378443
0.000363335
-0.000384148
0.000347427
-0.000386879
0.000328129
-0.000387509
0.000306772
-0.000386817
0.000284395
-0.000385429
0.00026173
-0.000383806
0.000239233
-0.000382251
0.00021714
-0.000380938
0.000195534
-0.000379942
0.000174395
-0.000379271
0.000153651
-0.000378896
0.000133208
-0.000378768
0.000112966
-0.000378835
9.28348e-05
-0.00037905
7.27345e-05
-0.000379373
5.25989e-05
-0.000379776
3.23746e-05
-0.000380237
1.20199e-05
-0.000380758
-8.5132e-06
-0.000381358
-2.92662e-05
-0.000382056
-5.02418e-05
-0.00038289
-7.14674e-05
-0.000383914
-9.29631e-05
-0.0003852
-0.000114749
-0.000386844
-0.00013685
-0.000388965
-0.000159302
-0.000391712
-0.000182158
-0.000395253
-0.000205504
-0.000399772
-0.000229464
-0.000405423
-0.000254212
-0.000412276
-0.000279957
-0.0004202
-0.000306907
-0.000428715
-0.000335169
-0.000436801
-0.000364579
-0.000442693
-0.000394437
-0.000443754
-0.00042315
-0.000436515
-0.000447861
-0.000417019
-0.00046418
-0.000381639
-0.000466227
-0.000328494
-0.000447286
-0.000259459
-0.000401515
-0.000182231
-0.000327163
-0.000110173
-0.000231295
-5.62352e-05
-0.000132338
-2.38432e-05
-5.22649e-05
-7.31315e-06
-4.82146e-07
-2.18932e-07
2.75305e-05
1.64457e-06
3.79656e-05
9.94565e-07
3.397e-05
1.61888e-05
-9.19902e-06
1.2585e-05
-2.79543e-05
4.12475e-05
-5.21782e-05
7.6795e-05
-8.05374e-05
0.000119236
-0.000112465
0.00016592
-0.000147228
0.000214071
-0.000183581
0.000261276
-0.000219761
0.000304812
-0.000253814
0.000341743
-0.000284056
0.000369678
-0.00030938
0.000387396
-0.000329332
0.000394953
-0.000344005
0.000393364
-0.000353896
0.00038419
-0.000359778
0.000369217
-0.000362567
0.000350217
-0.000363192
0.000328753
-0.000362483
0.000306063
-0.000361114
0.000283025
-0.000359571
0.000260187
-0.000358169
0.000237831
-0.000357077
0.000216048
-0.000356358
0.000194815
-0.000356005
0.000174042
-0.000355973
0.000153618
-0.000356197
0.000133432
-0.000356615
0.000113383
-0.000357167
9.3387e-05
-0.000357807
7.33743e-05
-0.000358499
5.32912e-05
-0.000359219
3.3095e-05
-0.000359952
1.27522e-05
-0.000360697
-7.7684e-06
-0.000361469
-2.84941e-05
-0.000362281
-4.94293e-05
-0.00036316
-7.05889e-05
-0.000364141
-9.19821e-05
-0.000365273
-0.000113616
-0.000366623
-0.000135501
-0.000368276
-0.000157649
-0.000370346
-0.000180088
-0.000372978
-0.000202871
-0.000376355
-0.000226087
-0.000380687
-0.000249881
-0.000386176
-0.000274467
-0.000392958
-0.000300125
-0.00040097
-0.000327156
-0.000409776
-0.000355774
-0.000418329
-0.000385884
-0.000424734
-0.000416745
-0.000426081
-0.000446513
-0.000418504
-0.000471757
-0.000397599
-0.000487132
-0.000359412
-0.000485473
-0.000302191
-0.000458736
-0.000228944
-0.00040041
-0.000150075
-0.000310164
-8.19064e-05
-0.000200506
-3.65695e-05
-9.76018e-05
-1.25455e-05
-2.45061e-05
-1.83345e-06
1.68184e-05
1.46116e-06
3.4671e-05
1.10868e-06
3.43225e-05
1.72974e-05
-1.08532e-05
2.34382e-05
-3.19943e-05
6.23885e-05
-5.83547e-05
0.000103155
-8.83137e-05
0.000149195
-0.000121126
0.000198732
-0.000155826
0.000248772
-0.00019096
0.00029641
-0.000224713
0.000338565
-0.000255313
0.000372343
-0.000281415
0.00039578
-0.00030231
0.00040829
-0.000317905
0.000410547
-0.000328586
0.000404045
-0.000335074
0.000390678
-0.000338287
0.00037243
-0.00033919
0.00035112
-0.000338671
0.000328234
-0.000337455
0.000304848
-0.000336073
0.000281643
-0.000334861
0.000258976
-0.000333999
0.000236968
-0.000333545
0.000215595
-0.000333484
0.000194754
-0.000333761
0.000174318
-0.000334301
0.000154159
-0.000335033
0.000134164
-0.000335892
0.000114243
-0.000336827
9.43215e-05
-0.000337798
7.43452e-05
-0.000338778
5.42712e-05
-0.00033975
3.40669e-05
-0.000340704
1.37069e-05
-0.000341643
-6.82938e-06
-0.000342578
-2.75595e-05
-0.000343519
-4.8488e-05
-0.000344485
-6.96228e-05
-0.0003455
-9.0967e-05
-0.000346596
-0.000112521
-0.000347811
-0.000134285
-0.000349201
-0.000156259
-0.000350839
-0.00017845
-0.000352829
-0.000200881
-0.000355313
-0.000223603
-0.000358481
-0.000246712
-0.000362568
-0.000270381
-0.000367823
-0.00029487
-0.000374443
-0.000320536
-0.000382429
-0.000347789
-0.000391365
-0.000376948
-0.000400141
-0.000407969
-0.000406655
-0.00044
-0.000407631
-0.000470781
-0.000398723
-0.000496039
-0.000375075
-0.000509121
-0.000332572
-0.00050124
-0.000270063
-0.000462919
-0.000192634
-0.000387593
-0.00011458
-0.00027856
-5.46638e-05
-0.000157518
-2.04818e-05
-5.86881e-05
-4.73528e-06
1.07186e-06
7.62281e-07
2.91734e-05
1.0924e-06
3.39924e-05
1.83898e-05
-1.21407e-05
3.55789e-05
-3.50642e-05
8.53121e-05
-6.28767e-05
0.000130968
-9.36867e-05
0.000180005
-0.00012658
0.000231625
-0.000160413
0.000282605
-0.000193627
0.000329623
-0.000224486
0.000369425
-0.000251469
0.000399326
-0.000273587
0.000417897
-0.000290489
0.000425193
-0.000302386
0.000422445
-0.000309895
0.000411554
-0.000313892
0.000394674
-0.000315355
0.000373893
-0.000315223
0.000350988
-0.000314285
0.000327296
-0.000313125
0.000303688
-0.000312122
0.00028064
-0.000311477
0.000258331
-0.000311259
0.00023675
-0.000311451
0.000215787
-0.000311992
0.000195295
-0.000312802
0.000175128
-0.000313803
0.00015516
-0.000314928
0.000135289
-0.000316121
0.000115436
-0.000317342
9.55418e-05
-0.00031856
7.55636e-05
-0.000319758
5.5469e-05
-0.000320925
3.52336e-05
-0.000322057
1.48389e-05
-0.000323157
-5.72883e-06
-0.000324236
-2.64811e-05
-0.000325302
-4.74213e-05
-0.000326371
-6.85537e-05
-0.00032746
-8.98786e-05
-0.000328587
-0.000111394
-0.000329777
-0.000133095
-0.00033106
-0.000154977
-0.000332476
-0.000177034
-0.000334086
-0.00019927
-0.000335985
-0.000221704
-0.000338309
-0.000244388
-0.000341258
-0.000267432
-0.000345093
-0.000291035
-0.000350111
-0.000315519
-0.000356566
-0.000341333
-0.000364507
-0.000369007
-0.000373507
-0.000398969
-0.000382323
-0.000431184
-0.000388543
-0.000464561
-0.000388407
-0.000496175
-0.000377003
-0.000520525
-0.000349059
-0.000529183
-0.000300603
-0.000511376
-0.000231845
-0.00045635
-0.000151449
-0.000358956
-7.8673e-05
-0.000230294
-3.16186e-05
-0.000105743
-9.0607e-06
-2.1486e-05
-4.95796e-07
2.06085e-05
9.4847e-07
3.25481e-05
1.93383e-05
-1.29723e-05
4.85512e-05
-3.70138e-05
0.000109354
-6.55825e-05
0.000159537
-9.6532e-05
0.000210955
-0.000128801
0.000263894
-0.000161134
0.000314938
-0.000191967
0.000360457
-0.000219725
0.000397183
-0.000243169
0.000422771
-0.000261649
0.000436376
-0.000275122
0.000438666
-0.000284037
0.00043136
-0.000289176
0.000416693
-0.000291494
0.000396993
-0.000291963
0.000374361
-0.000291434
0.00035046
-0.000290563
0.000326425
-0.000289787
0.000302911
-0.000289345
0.000280199