/*--------------------------------*- C++ -*----------------------------------*\
| =========                 |                                                 |
| \\      /  F ield         | OpenFOAM: The Open Source CFD Toolbox           |
|  \\    /   O peration     | Version:  2406                                  |
|   \\  /    A nd           | Website:  www.openfoam.com                      |
|    \\/     M anipulation  |                                                 |
\*---------------------------------------------------------------------------*/
FoamFile
{
    version     2.0;
    format      ascii;
    arch        "LSB;label=32;scalar=64";
    class       volScalarField;
    location    "4.1";
    object      p;
}
// * * * * * * * * * * * * * * * * * * * * * * * * * * * * * * * * * * * * * //

dimensions      [0 2 -2 0 0 0 0];

internalField   nonuniform List<scalar> 
14400
(
0.00666914
0.00666781
0.00666637
0.00666447
0.00666334
0.00666254
0.00666277
0.00666368
0.00666562
0.00666835
0.00667206
0.00667658
0.00668201
0.00668825
0.00669535
0.00670324
0.00671194
0.00672143
0.00673171
0.00674277
0.0067546
0.0067672
0.00678057
0.00679469
0.00680958
0.00682523
0.00684163
0.00685879
0.0068767
0.00689535
0.00691474
0.00693487
0.00695574
0.00697733
0.00699965
0.00702268
0.00704642
0.00707087
0.007096
0.00712182
0.00714832
0.00717547
0.00720327
0.00723172
0.00726078
0.00729045
0.00732071
0.00735154
0.00738293
0.00741486
0.00744729
0.00748022
0.00751361
0.00754745
0.00758169
0.00761633
0.00765132
0.00768664
0.00772225
0.00775813
0.00779423
0.00783052
0.00786697
0.00790353
0.00794016
0.00797683
0.0080135
0.00805011
0.00808664
0.00812302
0.00815923
0.00819522
0.00823093
0.00826633
0.00830137
0.00833601
0.00837019
0.00840388
0.00843703
0.0084696
0.00850155
0.00853283
0.0085634
0.00859323
0.00862228
0.00865052
0.0086779
0.00870439
0.00872997
0.00875461
0.00877828
0.00880096
0.00882262
0.00884324
0.00886281
0.0088813
0.00889871
0.00891502
0.00893023
0.00894432
0.00895729
0.00896912
0.00897983
0.0089894
0.00899785
0.00900514
0.00901133
0.00901637
0.00902034
0.00902317
0.00902499
0.00902571
0.00902557
0.00902441
0.00902266
0.00902011
0.00901748
0.00901458
0.00901251
0.00901123
0.00667047
0.00666913
0.00666837
0.00666709
0.00666668
0.00666643
0.00666715
0.0066684
0.00667062
0.00667353
0.00667738
0.00668198
0.00668746
0.00669372
0.00670082
0.00670871
0.0067174
0.00672687
0.00673712
0.00674815
0.00675995
0.00677252
0.00678585
0.00679994
0.00681479
0.0068304
0.00684676
0.00686387
0.00688173
0.00690033
0.00691967
0.00693974
0.00696055
0.00698208
0.00700433
0.00702729
0.00705095
0.00707531
0.00710036
0.00712609
0.00715249
0.00717955
0.00720725
0.00723558
0.00726452
0.00729407
0.00732421
0.00735491
0.00738616
0.00741794
0.00745023
0.007483
0.00751623
0.0075499
0.00758397
0.00761843
0.00765324
0.00768837
0.00772378
0.00775946
0.00779535
0.00783143
0.00786766
0.007904
0.00794041
0.00797685
0.00801328
0.00804966
0.00808594
0.00812209
0.00815806
0.00819379
0.00822926
0.00826441
0.0082992
0.00833359
0.00836752
0.00840097
0.00843387
0.0084662
0.00849791
0.00852895
0.00855929
0.00858889
0.00861772
0.00864573
0.0086729
0.00869919
0.00872457
0.00874902
0.0087725
0.008795
0.00881648
0.00883694
0.00885636
0.00887471
0.00889198
0.00890817
0.00892326
0.00893724
0.00895011
0.00896187
0.00897252
0.00898204
0.00899046
0.00899776
0.00900398
0.0090091
0.0090132
0.00901622
0.00901832
0.0090194
0.00901973
0.00901915
0.00901812
0.00901636
0.00901466
0.00901255
0.00901121
0.00900994
0.00667192
0.00666989
0.00666913
0.00666769
0.00666739
0.00666716
0.00666801
0.00666932
0.00667163
0.00667459
0.00667849
0.00668313
0.00668865
0.00669493
0.00670204
0.00670993
0.00671863
0.00672809
0.00673835
0.00674937
0.00676116
0.00677372
0.00678704
0.00680112
0.00681596
0.00683155
0.0068479
0.006865
0.00688284
0.00690142
0.00692074
0.0069408
0.00696159
0.0069831
0.00700532
0.00702826
0.00705191
0.00707625
0.00710127
0.00712698
0.00715335
0.00718038
0.00720805
0.00723636
0.00726528
0.0072948
0.0073249
0.00735557
0.00738679
0.00741854
0.00745079
0.00748353
0.00751673
0.00755036
0.0075844
0.00761882
0.00765359
0.00768868
0.00772406
0.00775969
0.00779555
0.00783159
0.00786778
0.00790407
0.00794044
0.00797684
0.00801323
0.00804956
0.0080858
0.00812191
0.00815783
0.00819352
0.00822894
0.00826404
0.00829879
0.00833313
0.00836702
0.00840041
0.00843327
0.00846555
0.00849721
0.0085282
0.0085585
0.00858805
0.00861683
0.00864479
0.00867191
0.00869815
0.00872348
0.00874788
0.00877132
0.00879377
0.00881521
0.00883562
0.00885499
0.00887329
0.00889053
0.00890667
0.00892172
0.00893566
0.0089485
0.00896023
0.00897084
0.00898034
0.00898874
0.00899603
0.00900225
0.00900737
0.00901149
0.00901453
0.00901668
0.00901781
0.00901823
0.00901771
0.00901681
0.00901507
0.00901348
0.00901121
0.00900986
0.0090079
0.00667384
0.00667114
0.00667053
0.00666908
0.00666911
0.00666907
0.0066702
0.0066717
0.0066742
0.0066773
0.00668132
0.00668603
0.0066916
0.00669792
0.00670506
0.00671295
0.00672165
0.00673111
0.00674135
0.00675236
0.00676413
0.00677667
0.00678997
0.00680402
0.00681884
0.0068344
0.00685072
0.00686778
0.00688559
0.00690414
0.00692342
0.00694344
0.00696419
0.00698565
0.00700783
0.00703073
0.00705432
0.00707861
0.00710358
0.00712923
0.00715554
0.00718251
0.00721012
0.00723836
0.00726721
0.00729666
0.00732669
0.00735729
0.00738843
0.0074201
0.00745227
0.00748492
0.00751803
0.00755157
0.00758552
0.00761984
0.00765451
0.00768951
0.00772478
0.00776031
0.00779606
0.00783199
0.00786807
0.00790426
0.00794051
0.00797679
0.00801306
0.00804928
0.0080854
0.00812138
0.00815717
0.00819274
0.00822804
0.00826301
0.00829763
0.00833184
0.0083656
0.00839887
0.0084316
0.00846375
0.00849528
0.00852615
0.00855631
0.00858574
0.00861439
0.00864223
0.00866923
0.00869535
0.00872056
0.00874484
0.00876816
0.0087905
0.00881183
0.00883213
0.0088514
0.0088696
0.00888674
0.00890279
0.00891775
0.00893161
0.00894438
0.00895603
0.00896659
0.00897604
0.00898441
0.00899168
0.00899791
0.00900306
0.00900724
0.00901038
0.00901268
0.00901398
0.00901466
0.00901438
0.00901383
0.00901235
0.00901114
0.00900887
0.0090077
0.00900503
0.00667498
0.0066715
0.00667079
0.00666901
0.00666906
0.00666894
0.00667013
0.00667164
0.00667422
0.00667736
0.00668143
0.00668618
0.00669179
0.00669813
0.0067053
0.00671321
0.00672191
0.00673138
0.00674162
0.00675262
0.00676439
0.00677692
0.00679021
0.00680426
0.00681906
0.00683462
0.00685092
0.00686797
0.00688577
0.0069043
0.00692357
0.00694358
0.00696431
0.00698576
0.00700792
0.0070308
0.00705438
0.00707865
0.00710361
0.00712925
0.00715555
0.0071825
0.0072101
0.00723832
0.00726716
0.0072966
0.00732662
0.00735721
0.00738834
0.00742
0.00745216
0.0074848
0.00751791
0.00755144
0.00758539
0.00761971
0.00765438
0.00768937
0.00772464
0.00776017
0.00779592
0.00783186
0.00786794
0.00790412
0.00794038
0.00797667
0.00801294
0.00804916
0.00808528
0.00812127
0.00815707
0.00819264
0.00822794
0.00826292
0.00829754
0.00833175
0.00836551
0.00839877
0.0084315
0.00846364
0.00849516
0.00852602
0.00855617
0.00858558
0.00861422
0.00864204
0.00866901
0.00869511
0.00872029
0.00874454
0.00876783
0.00879013
0.00881142
0.00883169
0.00885091
0.00886907
0.00888616
0.00890217
0.00891708
0.0089309
0.00894362
0.00895523
0.00896574
0.00897515
0.00898348
0.00899072
0.00899692
0.00900205
0.00900621
0.00900934
0.00901164
0.00901292
0.00901361
0.00901329
0.00901275
0.00901113
0.00900988
0.00900724
0.00900593
0.00900242
0.00667574
0.00667163
0.0066709
0.00666892
0.00666906
0.00666894
0.00667027
0.00667185
0.00667455
0.00667776
0.00668191
0.00668671
0.00669238
0.00669875
0.00670594
0.00671386
0.00672258
0.00673205
0.00674229
0.00675329
0.00676505
0.00677757
0.00679085
0.00680488
0.00681967
0.0068352
0.00685149
0.00686852
0.0068863
0.00690481
0.00692406
0.00694404
0.00696475
0.00698618
0.00700832
0.00703118
0.00705473
0.00707898
0.00710392
0.00712953
0.0071558
0.00718273
0.00721031
0.00723851
0.00726732
0.00729674
0.00732674
0.0073573
0.00738841
0.00742005
0.00745219
0.00748481
0.0075179
0.00755142
0.00758534
0.00761964
0.0076543
0.00768927
0.00772453
0.00776004
0.00779578
0.0078317
0.00786776
0.00790393
0.00794018
0.00797645
0.00801271
0.00804892
0.00808502
0.00812099
0.00815678
0.00819233
0.00822761
0.00826257
0.00829717
0.00833136
0.00836509
0.00839833
0.00843103
0.00846314
0.00849463
0.00852545
0.00855557
0.00858494
0.00861353
0.0086413
0.00866823
0.00869427
0.0087194
0.00874359
0.00876682
0.00878906
0.00881028
0.00883048
0.00884964
0.00886773
0.00888475
0.00890068
0.00891553
0.00892927
0.00894192
0.00895347
0.00896392
0.00897327
0.00898156
0.00898875
0.00899493
0.00900003
0.0090042
0.00900733
0.00900967
0.00901099
0.00901176
0.00901149
0.00901105
0.0090094
0.00900822
0.00900534
0.00900398
0.00899981
0.00667538
0.00667069
0.00666986
0.00666757
0.00666768
0.00666745
0.0066688
0.00667036
0.0066731
0.00667633
0.00668053
0.00668535
0.00669105
0.00669744
0.00670465
0.00671259
0.00672132
0.00673079
0.00674104
0.00675204
0.0067638
0.00677632
0.0067896
0.00680362
0.00681841
0.00683394
0.00685022
0.00686724
0.00688501
0.00690352
0.00692277
0.00694274
0.00696345
0.00698487
0.00700702
0.00702987
0.00705343
0.00707768
0.00710262
0.00712823
0.00715452
0.00718145
0.00720904
0.00723725
0.00726608
0.00729552
0.00732553
0.00735612
0.00738726
0.00741892
0.00745109
0.00748375
0.00751687
0.00755043
0.00758439
0.00761874
0.00765344
0.00768846
0.00772378
0.00775935
0.00779514
0.00783112
0.00786724
0.00790348
0.00793979
0.00797613
0.00801245
0.00804873
0.0080849
0.00812094
0.00815679
0.00819242
0.00822776
0.00826279
0.00829745
0.0083317
0.00836549
0.00839879
0.00843154
0.0084637
0.00849523
0.00852609
0.00855624
0.00858564
0.00861425
0.00864204
0.00866897
0.00869502
0.00872015
0.00874434
0.00876755
0.00878977
0.00881097
0.00883114
0.00885026
0.00886831
0.00888529
0.00890117
0.00891597
0.00892966
0.00894225
0.00895373
0.00896413
0.00897342
0.00898165
0.00898878
0.0089949
0.00899995
0.00900407
0.00900714
0.00900944
0.00901068
0.0090114
0.00901102
0.00901051
0.00900867
0.00900738
0.00900413
0.00900262
0.00899786
0.00667422
0.00666909
0.0066682
0.00666569
0.00666582
0.00666553
0.00666693
0.0066685
0.00667129
0.00667455
0.0066788
0.00668366
0.00668939
0.00669581
0.00670304
0.006711
0.00671974
0.00672922
0.00673947
0.00675047
0.00676224
0.00677475
0.00678802
0.00680204
0.00681682
0.00683235
0.00684862
0.00686564
0.00688341
0.00690191
0.00692115
0.00694112
0.00696183
0.00698325
0.00700539
0.00702825
0.00705181
0.00707606
0.007101
0.00712663
0.00715292
0.00717987
0.00720747
0.0072357
0.00726455
0.00729401
0.00732405
0.00735467
0.00738583
0.00741753
0.00744974
0.00748244
0.0075156
0.0075492
0.00758322
0.00761762
0.00765238
0.00768746
0.00772284
0.00775847
0.00779433
0.00783038
0.00786658
0.00790289
0.00793927
0.00797569
0.00801209
0.00804844
0.0080847
0.00812082
0.00815674
0.00819244
0.00822787
0.00826296
0.0082977
0.00833201
0.00836587
0.00839922
0.00843203
0.00846424
0.00849581
0.00852671
0.0085569
0.00858632
0.00861495
0.00864276
0.0086697
0.00869575
0.00872087
0.00874504
0.00876823
0.00879042
0.00881159
0.00883171
0.00885078
0.00886878
0.0088857
0.00890152
0.00891625
0.00892987
0.00894239
0.0089538
0.00896412
0.00897334
0.0089815
0.00898856
0.00899462
0.00899961
0.00900368
0.0090067
0.00900896
0.00901015
0.00901085
0.00901039
0.00900986
0.00900789
0.00900655
0.00900305
0.00900144
0.00899626
0.00667185
0.00666633
0.00666536
0.00666263
0.00666271
0.00666232
0.00666371
0.00666525
0.00666807
0.00667132
0.0066756
0.00668047
0.00668623
0.00669266
0.00669991
0.00670788
0.00671663
0.00672612
0.00673638
0.00674739
0.00675916
0.00677168
0.00678495
0.00679898
0.00681376
0.00682929
0.00684556
0.00686259
0.00688036
0.00689887
0.00691812
0.0069381
0.00695881
0.00698025
0.00700241
0.00702528
0.00704886
0.00707314
0.00709812
0.00712377
0.0071501
0.00717709
0.00720473
0.007233
0.0072619
0.00729141
0.00732152
0.00735219
0.00738343
0.0074152
0.00744749
0.00748027
0.00751352
0.00754721
0.00758133
0.00761583
0.00765069
0.00768588
0.00772137
0.00775713
0.00779311
0.00782929
0.00786561
0.00790206
0.00793858
0.00797513
0.00801168
0.00804817
0.00808457
0.00812082
0.00815689
0.00819273
0.00822829
0.00826352
0.00829838
0.00833283
0.00836681
0.00840028
0.00843319
0.00846551
0.00849718
0.00852817
0.00855844
0.00858794
0.00861663
0.00864449
0.00867148
0.00869756
0.00872271
0.00874689
0.00877009
0.00879228
0.00881343
0.00883353
0.00885257
0.00887053
0.0088874
0.00890317
0.00891783
0.00893138
0.00894383
0.00895517
0.00896541
0.00897455
0.00898262
0.0089896
0.00899558
0.00900047
0.00900446
0.00900739
0.00900956
0.00901065
0.00901125
0.00901065
0.00901001
0.00900785
0.00900637
0.00900261
0.00900088
0.00899535
0.00666845
0.00666265
0.00666162
0.00665874
0.0066588
0.00665834
0.00665975
0.00666127
0.00666411
0.00666738
0.00667168
0.00667657
0.00668235
0.0066888
0.00669607
0.00670405
0.00671281
0.00672231
0.00673258
0.00674359
0.00675537
0.00676789
0.00678117
0.0067952
0.00680999
0.00682553
0.00684181
0.00685885
0.00687662
0.00689515
0.00691441
0.00693441
0.00695514
0.0069766
0.00699878
0.00702168
0.00704529
0.0070696
0.00709461
0.0071203
0.00714667
0.00717371
0.0072014
0.00722974
0.0072587
0.00728828
0.00731846
0.00734921
0.00738053
0.00741239
0.00744477
0.00747766
0.00751101
0.00754482
0.00757905
0.00761368
0.00764867
0.00768399
0.00771962
0.00775552
0.00779165
0.00782798
0.00786446
0.00790106
0.00793774
0.00797446
0.00801117
0.00804783
0.00808439
0.00812081
0.00815705
0.00819305
0.00822877
0.00826416
0.00829917
0.00833377
0.00836789
0.0084015
0.00843454
0.00846698
0.00849876
0.00852986
0.00856021
0.0085898
0.00861857
0.00864649
0.00867352
0.00869964
0.00872482
0.00874902
0.00877222
0.0087944
0.00881553
0.00883561
0.00885461
0.00887251
0.00888933
0.00890503
0.00891962
0.00893309
0.00894546
0.0089567
0.00896685
0.00897589
0.00898387
0.00899075
0.00899663
0.00900143
0.00900533
0.00900815
0.00901024
0.00901122
0.00901174
0.00901103
0.0090103
0.00900799
0.00900642
0.00900247
0.00900065
0.0089949
0.00666383
0.00665779
0.0066567
0.00665366
0.00665369
0.00665315
0.00665455
0.00665604
0.00665888
0.00666214
0.00666645
0.00667135
0.00667714
0.0066836
0.00669089
0.00669888
0.00670766
0.00671717
0.00672745
0.00673847
0.00675026
0.00676279
0.00677608
0.00679013
0.00680493
0.00682048
0.00683678
0.00685383
0.00687163
0.00689017
0.00690946
0.00692948
0.00695024
0.00697174
0.00699396
0.0070169
0.00704055
0.00706492
0.00708998
0.00711574
0.00714217
0.00716928
0.00719705
0.00722547
0.00725453
0.0072842
0.00731448
0.00734534
0.00737678
0.00740876
0.00744128
0.00747429
0.0075078
0.00754175
0.00757614
0.00761093
0.0076461
0.0076816
0.00771741
0.0077535
0.00778983
0.00782635
0.00786304
0.00789985
0.00793675
0.00797368
0.0080106
0.00804748
0.00808426
0.0081209
0.00815735
0.00819357
0.0082295
0.0082651
0.00830032
0.00833511
0.00836942
0.00840321
0.00843642
0.00846902
0.00850096
0.0085322
0.00856269
0.00859239
0.00862126
0.00864927
0.00867639
0.00870257
0.00872779
0.00875203
0.00877525
0.00879743
0.00881856
0.00883862
0.00885758
0.00887545
0.0088922
0.00890784
0.00892235
0.00893574
0.00894801
0.00895916
0.00896921
0.00897814
0.008986
0.00899277
0.00899853
0.00900321
0.00900699
0.00900969
0.00901166
0.00901251
0.0090129
0.00901204
0.00901118
0.00900871
0.00900702
0.00900288
0.00900097
0.00899505
0.00665808
0.00665187
0.00665074
0.00664759
0.00664759
0.006647
0.00664839
0.00664986
0.00665271
0.00665597
0.0066603
0.0066652
0.00667101
0.00667748
0.00668478
0.00669279
0.00670158
0.0067111
0.00672139
0.00673243
0.00674423
0.00675677
0.00677008
0.00678414
0.00679896
0.00681452
0.00683085
0.00684792
0.00686574
0.00688432
0.00690363
0.00692369
0.0069445
0.00696603
0.0069883
0.00701129
0.00703501
0.00705943
0.00708456
0.00711039
0.00713691
0.00716411
0.00719197
0.00722049
0.00724966
0.00727944
0.00730985
0.00734084
0.00737241
0.00740455
0.00743721
0.00747039
0.00750407
0.0075382
0.00757278
0.00760776
0.00764313
0.00767884
0.00771487
0.00775117
0.00778773
0.00782449
0.00786141
0.00789847
0.0079356
0.00797278
0.00800996
0.00804709
0.00808412
0.00812102
0.00815772
0.00819418
0.00823035
0.00826619
0.00830164
0.00833666
0.00837119
0.00840518
0.0084386
0.00847138
0.0085035
0.0085349
0.00856553
0.00859536
0.00862436
0.00865247
0.00867967
0.00870593
0.0087312
0.00875548
0.00877872
0.00880091
0.00882203
0.00884206
0.00886099
0.0088788
0.00889549
0.00891104
0.00892547
0.00893876
0.00895093
0.00896196
0.00897189
0.00898069
0.00898843
0.00899507
0.0090007
0.00900524
0.00900889
0.00901146
0.0090133
0.00901402
0.00901428
0.00901329
0.00901231
0.00900971
0.00900791
0.00900364
0.00900166
0.00899564
0.00665109
0.00664474
0.00664357
0.00664033
0.0066403
0.00663966
0.00664104
0.00664248
0.00664533
0.00664858
0.00665292
0.00665782
0.00666364
0.00667012
0.00667743
0.00668544
0.00669425
0.00670379
0.00671409
0.00672514
0.00673696
0.00674952
0.00676285
0.00677693
0.00679177
0.00680736
0.00682371
0.00684082
0.00685868
0.00687729
0.00689665
0.00691676
0.00693761
0.0069592
0.00698153
0.00700459
0.00702838
0.00705288
0.0070781
0.00710403
0.00713065
0.00715795
0.00718593
0.00721458
0.00724387
0.0072738
0.00730435
0.00733551
0.00736725
0.00739956
0.00743241
0.00746579
0.00749967
0.00753402
0.00756882
0.00760404
0.00763964
0.00767561
0.00771189
0.00774846
0.00778529
0.00782233
0.00785954
0.00789688
0.00793431
0.00797179
0.00800926
0.00804669
0.00808403
0.00812122
0.00815822
0.00819497
0.00823144
0.00826756
0.00830328
0.00833857
0.00837336
0.0084076
0.00844125
0.00847426
0.00850659
0.00853818
0.00856899
0.00859899
0.00862812
0.00865636
0.00868367
0.00871002
0.00873536
0.00875969
0.00878296
0.00880517
0.00882628
0.00884629
0.00886518
0.00888293
0.00889955
0.00891502
0.00892935
0.00894254
0.00895458
0.00896549
0.00897528
0.00898395
0.00899154
0.00899802
0.00900351
0.0090079
0.0090114
0.00901381
0.00901549
0.00901606
0.00901618
0.00901504
0.00901392
0.00901117
0.00900926
0.00900488
0.00900282
0.00899673
0.00664294
0.00663648
0.00663529
0.00663197
0.00663193
0.00663124
0.00663261
0.00663404
0.00663689
0.00664014
0.00664448
0.00664939
0.00665522
0.00666171
0.00666903
0.00667706
0.00668588
0.00669543
0.00670575
0.00671682
0.00672866
0.00674124
0.00675459
0.0067687
0.00678356
0.00679919
0.00681557
0.00683272
0.00685062
0.00686927
0.00688869
0.00690885
0.00692976
0.00695142
0.00697382
0.00699697
0.00702084
0.00704544
0.00707076
0.00709679
0.00712353
0.00715096
0.00717908
0.00720787
0.00723731
0.00726741
0.00729813
0.00732947
0.00736141
0.00739392
0.00742699
0.00746059
0.0074947
0.0075293
0.00756435
0.00759984
0.00763572
0.00767197
0.00770854
0.00774542
0.00778255
0.00781991
0.00785744
0.00789511
0.00793287
0.00797068
0.0080085
0.00804627
0.00808394
0.00812147
0.0081588
0.00819589
0.00823268
0.00826912
0.00830516
0.00834075
0.00837583
0.00841035
0.00844427
0.00847753
0.00851009
0.0085419
0.00857291
0.00860308
0.00863238
0.00866076
0.00868819
0.00871463
0.00874005
0.00876443
0.00878774
0.00880996
0.00883106
0.00885104
0.00886989
0.00888758
0.00890411
0.00891949
0.00893371
0.00894677
0.00895868
0.00896944
0.00897908
0.00898759
0.00899502
0.00900134
0.00900665
0.00901088
0.0090142
0.00901645
0.00901797
0.00901838
0.00901835
0.00901706
0.00901581
0.00901293
0.00901092
0.00900644
0.00900433
0.0089982
0.00663356
0.00662701
0.00662579
0.00662242
0.00662235
0.00662163
0.00662299
0.0066244
0.00662725
0.00663049
0.00663483
0.00663975
0.00664559
0.00665208
0.00665942
0.00666746
0.00667629
0.00668586
0.0066962
0.00670729
0.00671915
0.00673176
0.00674514
0.00675928
0.00677418
0.00678984
0.00680627
0.00682345
0.0068414
0.00686012
0.00687959
0.00689982
0.00692081
0.00694255
0.00696503
0.00698827
0.00701224
0.00703695
0.00706239
0.00708855
0.00711543
0.00714301
0.00717128
0.00720023
0.00722986
0.00726014
0.00729107
0.00732262
0.00735478
0.00738752
0.00742084
0.0074547
0.00748908
0.00752396
0.00755931
0.0075951
0.00763129
0.00766786
0.00770478
0.007742
0.00777948
0.0078172
0.0078551
0.00789314
0.00793128
0.00796948
0.00800767
0.00804583
0.00808389
0.0081218
0.00815952
0.00819698
0.00823415
0.00827095
0.00830734
0.00834327
0.00837868
0.00841353
0.00844774
0.00848129
0.00851412
0.00854617
0.00857741
0.00860779
0.00863727
0.00866581
0.00869338
0.00871993
0.00874544
0.00876988
0.00879323
0.00881547
0.00883657
0.00885652
0.00887531
0.00889293
0.00890937
0.00892464
0.00893874
0.00895166
0.00896342
0.00897402
0.00898349
0.00899182
0.00899907
0.0090052
0.00901032
0.00901435
0.00901749
0.00901955
0.0090209
0.00902112
0.00902093
0.00901948
0.00901808
0.00901507
0.00901296
0.00900839
0.00900623
0.00900007
0.00662298
0.00661637
0.00661513
0.00661171
0.00661164
0.00661089
0.00661224
0.00661364
0.00661648
0.00661972
0.00662407
0.00662899
0.00663483
0.00664134
0.00664869
0.00665674
0.0066656
0.00667518
0.00668555
0.00669666
0.00670854
0.00672118
0.00673459
0.00674876
0.0067637
0.00677941
0.00679588
0.00681312
0.00683113
0.00684991
0.00686945
0.00688975
0.00691082
0.00693265
0.00695524
0.00697858
0.00700267
0.00702751
0.00705308
0.00707938
0.00710641
0.00713416
0.0071626
0.00719175
0.00722157
0.00725207
0.00728322
0.00731501
0.00734741
0.00738042
0.00741401
0.00744816
0.00748285
0.00751804
0.00755371
0.00758984
0.00762639
0.00766332
0.00770061
0.00773821
0.00777609
0.0078142
0.00785251
0.00789097
0.00792953
0.00796815
0.00800678
0.00804536
0.00808385
0.00812219
0.00816033
0.00819822
0.00823579
0.008273
0.00830979
0.0083461
0.00838188
0.00841707
0.00845162
0.00848549
0.00851861
0.00855094
0.00858243
0.00861303
0.00864272
0.00867143
0.00869914
0.00872582
0.00875142
0.00877593
0.00879932
0.00882157
0.00884266
0.00886257
0.00888131
0.00889884
0.00891519
0.00893034
0.00894429
0.00895706
0.00896865
0.00897907
0.00898834
0.00899647
0.00900352
0.00900944
0.00901435
0.00901818
0.00902111
0.00902296
0.00902411
0.00902415
0.00902378
0.00902217
0.00902063
0.0090175
0.00901528
0.00901063
0.00900842
0.00900226
0.00661118
0.00660452
0.00660326
0.0065998
0.00659971
0.00659894
0.00660028
0.00660167
0.00660451
0.00660775
0.0066121
0.00661702
0.00662288
0.00662939
0.00663676
0.00664482
0.0066537
0.0066633
0.00667369
0.00668483
0.00669674
0.00670941
0.00672286
0.00673707
0.00675205
0.00676781
0.00678433
0.00680163
0.00681971
0.00683856
0.00685818
0.00687857
0.00689973
0.00692166
0.00694436
0.00696782
0.00699204
0.00701701
0.00704274
0.0070692
0.0070964
0.00712433
0.00715298
0.00718233
0.00721238
0.00724311
0.00727451
0.00730656
0.00733925
0.00737255
0.00740645
0.00744092
0.00747594
0.00751148
0.00754752
0.00758402
0.00762096
0.0076583
0.007696
0.00773403
0.00777234
0.0078109
0.00784967
0.00788859
0.00792762
0.00796671
0.00800581
0.00804487
0.00808384
0.00812265
0.00816127
0.00819962
0.00823765
0.00827531
0.00831253
0.00834926
0.00838545
0.00842104
0.00845596
0.00849017
0.00852362
0.00855625
0.00858802
0.00861888
0.00864879
0.00867769
0.00870557
0.00873238
0.00875809
0.00878267
0.00880611
0.00882837
0.00884945
0.00886932
0.00888798
0.00890543
0.00892166
0.00893667
0.00895047
0.00896306
0.00897446
0.00898467
0.00899374
0.00900165
0.00900846
0.00901415
0.00901883
0.00902242
0.00902513
0.00902676
0.0090277
0.00902753
0.00902697
0.00902518
0.00902349
0.00902023
0.0090179
0.00901318
0.00901092
0.00900476
0.00659818
0.00659147
0.0065902
0.00658671
0.00658661
0.00658581
0.00658715
0.00658853
0.00659137
0.00659461
0.00659897
0.00660389
0.00660976
0.00661629
0.00662366
0.00663175
0.00664064
0.00665027
0.00666068
0.00667184
0.00668379
0.0066965
0.00670998
0.00672424
0.00673927
0.00675508
0.00677166
0.00678903
0.00680718
0.0068261
0.00684581
0.0068663
0.00688756
0.00690961
0.00693243
0.00695602
0.00698038
0.00700551
0.0070314
0.00705804
0.00708543
0.00711356
0.00714242
0.00717201
0.0072023
0.00723329
0.00726497
0.00729731
0.0073303
0.00736393
0.00739816
0.00743298
0.00746837
0.0075043
0.00754073
0.00757765
0.00761501
0.00765279
0.00769095
0.00772944
0.00776824
0.00780729
0.00784655
0.00788598
0.00792552
0.00796513
0.00800476
0.00804434
0.00808383
0.00812317
0.0081623
0.00820116
0.00823969
0.00827784
0.00831555
0.00835275
0.00838938
0.00842539
0.00846073
0.00849532
0.00852913
0.00856209
0.00859417
0.0086253
0.00865544
0.00868456
0.00871262
0.00873957
0.00876539
0.00879005
0.00881353
0.00883581
0.00885686
0.00887669
0.00889527
0.00891261
0.00892871
0.00894356
0.00895719
0.00896958
0.00898077
0.00899076
0.00899959
0.00900725
0.00901381
0.00901924
0.00902367
0.009027
0.00902946
0.00903085
0.00903156
0.00903117
0.00903041
0.00902844
0.00902659
0.00902319
0.00902076
0.00901598
0.00901367
0.00900751
0.00658396
0.0065772
0.00657592
0.0065724
0.00657229
0.00657148
0.00657281
0.00657418
0.00657703
0.00658027
0.00658463
0.00658956
0.00659544
0.00660197
0.00660936
0.00661747
0.00662638
0.00663603
0.00664647
0.00665766
0.00666964
0.00668239
0.00669592
0.00671022
0.0067253
0.00674117
0.00675782
0.00677526
0.00679348
0.0068125
0.0068323
0.00685289
0.00687427
0.00689643
0.00691938
0.00694312
0.00696764
0.00699293
0.007019
0.00704584
0.00707344
0.00710179
0.00713089
0.00716072
0.00719129
0.00722256
0.00725453
0.00728719
0.00732052
0.00735449
0.00738909
0.0074243
0.00746009
0.00749643
0.0075333
0.00757067
0.00760851
0.00764677
0.00768542
0.00772443
0.00776375
0.00780333
0.00784314
0.00788312
0.00792323
0.00796341
0.0080036
0.00804376
0.00808382
0.00812373
0.00816343
0.00820285
0.00824194
0.00828063
0.00831886
0.00835657
0.00839369
0.00843017
0.00846595
0.00850097
0.00853517
0.00856849
0.0086009
0.00863233
0.00866274
0.00869209
0.00872033
0.00874744
0.00877338
0.00879813
0.00882165
0.00884394
0.00886497
0.00888473
0.00890323
0.00892045
0.0089364
0.00895108
0.0089645
0.00897668
0.00898763
0.00899737
0.00900593
0.00901332
0.0090196
0.00902475
0.0090289
0.00903195
0.00903414
0.00903526
0.00903571
0.0090351
0.00903412
0.00903196
0.00902993
0.0090264
0.00902385
0.009019
0.00901664
0.00901048
0.00656852
0.00656173
0.00656044
0.00655689
0.00655677
0.00655595
0.00655728
0.00655864
0.00656149
0.00656473
0.00656909
0.00657403
0.00657992
0.00658647
0.00659388
0.006602
0.00661093
0.0066206
0.00663107
0.0066423
0.00665431
0.0066671
0.00668067
0.00669503
0.00671017
0.0067261
0.00674282
0.00676033
0.00677864
0.00679775
0.00681765
0.00683835
0.00685985
0.00688215
0.00690524
0.00692913
0.00695382
0.00697929
0.00700555
0.0070326
0.00706042
0.00708901
0.00711837
0.00714847
0.00717932
0.0072109
0.0072432
0.0072762
0.00730989
0.00734424
0.00737924
0.00741486
0.00745108
0.00748788
0.00752522
0.00756308
0.00760142
0.0076402
0.0076794
0.00771896
0.00775885
0.00779901
0.00783941
0.00788
0.00792071
0.00796151
0.00800233
0.00804311
0.0080838
0.00812433
0.00816464
0.00820467
0.00824436
0.00828364
0.00832244
0.0083607
0.00839836
0.00843536
0.00847162
0.00850709
0.00854172
0.00857544
0.0086082
0.00863995
0.00867065
0.00870025
0.0087287
0.00875598
0.00878204
0.00880687
0.00883044
0.00885273
0.00887373
0.00889343
0.00891182
0.0089289
0.00894469
0.00895917
0.00897237
0.00898431
0.008995
0.00900445
0.00901272
0.00901981
0.00902578
0.00903062
0.00903446
0.00903721
0.00903909
0.00903993
0.00904011
0.00903924
0.00903803
0.00903566
0.00903346
0.00902978
0.00902711
0.00902219
0.00901978
0.00901364
0.00655187
0.00654503
0.00654373
0.00654016
0.00654003
0.00653919
0.00654052
0.00654188
0.00654473
0.00654797
0.00655234
0.00655729
0.00656318
0.00656975
0.00657717
0.00658531
0.00659426
0.00660396
0.00661446
0.00662572
0.00663777
0.0066506
0.00666422
0.00667863
0.00669383
0.00670983
0.00672662
0.00674421
0.00676261
0.00678182
0.00680183
0.00682264
0.00684427
0.00686671
0.00688996
0.00691401
0.00693888
0.00696454
0.00699101
0.00701828
0.00704634
0.00707519
0.00710482
0.00713521
0.00716637
0.00719828
0.00723093
0.00726429
0.00729836
0.00733312
0.00736855
0.00740462
0.00744131
0.0074786
0.00751645
0.00755483
0.00759372
0.00763307
0.00767284
0.007713
0.0077535
0.0077943
0.00783534
0.00787658
0.00791796
0.00795942
0.00800091
0.00804237
0.00808374
0.00812494
0.00816593
0.00820662
0.00824696
0.00828688
0.0083263
0.00836517
0.00840341
0.00844096
0.00847775
0.00851372
0.00854881
0.00858296
0.00861611
0.00864821
0.00867921
0.00870908
0.00873775
0.00876521
0.00879141
0.00881632
0.00883994
0.00886223
0.00888319
0.00890281
0.00892108
0.00893801
0.0089536
0.00896787
0.00898082
0.00899248
0.00900288
0.00901203
0.00901998
0.00902673
0.00903236
0.00903686
0.00904035
0.00904277
0.00904433
0.00904486
0.00904474
0.0090436
0.00904214
0.00903955
0.00903715
0.00903332
0.00903053
0.00902554
0.00902308
0.00901695
0.00653399
0.00652712
0.0065258
0.00652221
0.00652207
0.00652122
0.00652255
0.0065239
0.00652675
0.00652999
0.00653437
0.00653933
0.00654524
0.00655181
0.00655925
0.00656741
0.00657639
0.00658611
0.00659664
0.00660793
0.00662002
0.0066329
0.00664657
0.00666103
0.00667629
0.00669235
0.00670922
0.0067269
0.00674539
0.0067647
0.00678482
0.00680577
0.00682753
0.00685012
0.00687352
0.00689775
0.0069228
0.00694868
0.00697537
0.00700287
0.00703118
0.0070603
0.00709022
0.00712093
0.00715241
0.00718467
0.00721768
0.00725144
0.00728592
0.00732112
0.007357
0.00739355
0.00743074
0.00746855
0.00750694
0.0075459
0.00758537
0.00762532
0.00766572
0.00770653
0.00774769
0.00778916
0.0078309
0.00787284
0.00791493
0.00795711
0.00799933
0.00804152
0.00808362
0.00812556
0.00816726
0.00820868
0.00824972
0.00829033
0.00833043
0.00836995
0.00840882
0.00844697
0.00848433
0.00852084
0.00855643
0.00859104
0.00862461
0.00865709
0.00868843
0.00871857
0.00874749
0.00877513
0.00880147
0.00882648
0.00885014
0.00887242
0.00889333
0.00891286
0.00893099
0.00894774
0.00896313
0.00897715
0.00898983
0.00900119
0.00901126
0.00902006
0.00902765
0.00903404
0.0090393
0.00904342
0.00904655
0.0090486
0.0090498
0.00904999
0.00904956
0.00904812
0.00904639
0.00904357
0.00904097
0.00903697
0.00903405
0.00902898
0.00902647
0.00902036
0.00651488
0.00650797
0.00650665
0.00650303
0.00650289
0.00650202
0.00650334
0.00650469
0.00650755
0.00651079
0.00651517
0.00652014
0.00652606
0.00653264
0.0065401
0.00654828
0.00655728
0.00656703
0.00657758
0.00658891
0.00660104
0.00661396
0.00662768
0.00664219
0.00665752
0.00667365
0.0066906
0.00670837
0.00672696
0.00674637
0.00676661