/*--------------------------------*- C++ -*----------------------------------*\
| =========                 |                                                 |
| \\      /  F ield         | OpenFOAM: The Open Source CFD Toolbox           |
|  \\    /   O peration     | Version:  2406                                  |
|   \\  /    A nd           | Website:  www.openfoam.com                      |
|    \\/     M anipulation  |                                                 |
\*---------------------------------------------------------------------------*/
FoamFile
{
    version     2.0;
    format      ascii;
    arch        "LSB;label=32;scalar=64";
    class       volScalarField;
    location    "32.95";
    object      p;
}
// * * * * * * * * * * * * * * * * * * * * * * * * * * * * * * * * * * * * * //

dimensions      [0 2 -2 0 0 0 0];

internalField   nonuniform List<scalar> 
14400
(
0.0416311
0.0416433
0.0416528
0.0416641
0.0416651
0.0416603
0.0416437
0.0416194
0.0415849
0.0415436
0.0414953
0.0414424
0.0413852
0.0413253
0.041263
0.0411987
0.0411323
0.0410635
0.0409916
0.0409156
0.0408346
0.0407475
0.040653
0.0405503
0.040438
0.0403153
0.0401813
0.0400351
0.0398759
0.039703
0.0395157
0.0393135
0.0390958
0.0388626
0.0386137
0.0383493
0.03807
0.0377767
0.0374708
0.0371542
0.0368292
0.0364988
0.0361663
0.035836
0.0355123
0.0352006
0.0349062
0.0346352
0.0343939
0.0341886
0.0340257
0.0339114
0.0338518
0.0338522
0.0339174
0.0340513
0.0342568
0.0345355
0.0348877
0.0353121
0.035806
0.0363646
0.0369815
0.0376487
0.0383561
0.0390922
0.0398437
0.0405964
0.0413348
0.0420429
0.0427045
0.0433039
0.0438258
0.0442568
0.0445851
0.0448015
0.0448997
0.0448766
0.0447326
0.0444716
0.0441009
0.0436309
0.0430747
0.0424474
0.0417657
0.0410467
0.0403078
0.0395654
0.0388346
0.0381288
0.037459
0.0368341
0.0362603
0.0357415
0.0352795
0.034874
0.0345234
0.0342245
0.0339735
0.0337658
0.0335965
0.033461
0.0333542
0.033272
0.03321
0.0331649
0.0331331
0.0331123
0.0330998
0.0330943
0.0330935
0.0330976
0.0331044
0.0331153
0.0331277
0.0331443
0.0331603
0.0331792
0.0331925
0.0332023
0.0416188
0.041631
0.041635
0.0416419
0.0416384
0.0416315
0.041614
0.0415905
0.041558
0.0415197
0.0414749
0.0414258
0.0413724
0.0413162
0.0412572
0.0411959
0.0411321
0.0410655
0.0409956
0.0409216
0.0408426
0.0407577
0.0406659
0.0405662
0.0404576
0.0403393
0.0402103
0.0400699
0.0399172
0.0397515
0.0395722
0.0393786
0.0391703
0.038947
0.0387086
0.0384551
0.038187
0.0379051
0.0376105
0.037305
0.0369906
0.03667
0.0363465
0.0360239
0.0357066
0.0353995
0.035108
0.0348378
0.0345951
0.034386
0.034217
0.0340942
0.0340235
0.0340105
0.0340599
0.0341757
0.034361
0.0346176
0.0349458
0.0353448
0.0358119
0.0363427
0.0369313
0.0375696
0.0382481
0.0389556
0.0396793
0.0404052
0.0411183
0.0418028
0.0424431
0.0430235
0.0435293
0.0439471
0.0442655
0.0444754
0.0445706
0.0445482
0.0444085
0.0441555
0.0437964
0.0433414
0.0428035
0.0421975
0.0415396
0.0408466
0.0401353
0.0394216
0.03872
0.0380432
0.0374016
0.0368035
0.0362545
0.0357581
0.0353158
0.034927
0.03459
0.0343017
0.0340582
0.0338553
0.0336884
0.0335531
0.0334448
0.0333596
0.0332935
0.0332436
0.0332065
0.0331803
0.0331622
0.0331513
0.0331452
0.0331443
0.0331459
0.0331519
0.0331588
0.03317
0.0331798
0.0331936
0.0332018
0.0332118
0.0416091
0.0416269
0.0416311
0.0416395
0.0416355
0.0416287
0.0416107
0.0415872
0.0415544
0.0415163
0.0414717
0.0414232
0.0413707
0.0413155
0.0412578
0.041198
0.0411358
0.041071
0.041003
0.040931
0.0408541
0.0407715
0.0406821
0.040585
0.0404791
0.0403637
0.0402378
0.0401007
0.0399515
0.0397895
0.0396139
0.039424
0.0392194
0.0389996
0.0387642
0.0385134
0.0382474
0.0379667
0.0376724
0.0373661
0.0370497
0.0367259
0.0363977
0.036069
0.0357441
0.035428
0.0351262
0.0348446
0.0345895
0.0343673
0.0341845
0.0340476
0.0339629
0.0339359
0.0339718
0.0340747
0.0342479
0.0344934
0.0348118
0.0352022
0.0356621
0.0361871
0.0367714
0.037407
0.0380844
0.0387922
0.0395178
0.0402468
0.0409643
0.0416543
0.0423009
0.0428882
0.0434011
0.0438261
0.0441513
0.0443673
0.0444678
0.0444494
0.0443125
0.0440609
0.0437019
0.0432458
0.0427059
0.0420973
0.0414366
0.0407412
0.040028
0.0393136
0.0386125
0.0379379
0.0373002
0.0367076
0.0361656
0.0356777
0.0352447
0.034866
0.0345392
0.0342611
0.0340274
0.0338335
0.0336747
0.0335464
0.033444
0.0333636
0.0333013
0.0332542
0.033219
0.033194
0.0331764
0.0331656
0.0331591
0.0331575
0.033158
0.033163
0.0331684
0.0331789
0.0331872
0.033202
0.0332099
0.0332255
0.0415968
0.0416193
0.0416224
0.041631
0.0416251
0.0416176
0.0415984
0.0415746
0.0415419
0.0415046
0.0414612
0.0414145
0.041364
0.0413114
0.0412564
0.0411996
0.0411404
0.0410789
0.0410142
0.0409457
0.0408725
0.0407937
0.0407083
0.0406156
0.0405144
0.0404041
0.0402837
0.0401524
0.0400093
0.0398536
0.0396845
0.039501
0.0393026
0.0390884
0.0388581
0.0386112
0.0383479
0.0380684
0.0377736
0.0374646
0.0371433
0.0368121
0.0364742
0.0361333
0.0357938
0.0354609
0.0351403
0.0348382
0.034561
0.0343157
0.034109
0.0339478
0.0338385
0.0337871
0.0337988
0.0338781
0.0340285
0.0342519
0.0345492
0.0349197
0.0353608
0.0358686
0.0364371
0.0370587
0.0377239
0.0384216
0.0391391
0.0398625
0.0405766
0.0412657
0.0419137
0.0425046
0.0430234
0.0434561
0.0437905
0.044017
0.0441288
0.0441223
0.0439975
0.0437579
0.0434106
0.0429659
0.042437
0.0418391
0.0411891
0.0405045
0.0398026
0.0391
0.0384118
0.037751
0.0371282
0.0365515
0.0360265
0.0355562
0.0351412
0.0347806
0.0344716
0.0342105
0.0339926
0.0338131
0.033667
0.0335496
0.0334562
0.0333829
0.033326
0.0332826
0.0332497
0.0332258
0.0332084
0.0331969
0.033189
0.0331856
0.0331837
0.0331863
0.0331884
0.0331965
0.0332015
0.033216
0.0332223
0.0332439
0.0415931
0.0416207
0.0416246
0.0416352
0.0416288
0.0416212
0.0416008
0.0415761
0.0415421
0.0415041
0.0414601
0.0414134
0.0413636
0.0413122
0.0412589
0.0412045
0.0411481
0.0410898
0.0410285
0.0409636
0.0408942
0.0408193
0.0407378
0.040649
0.0405518
0.0404454
0.0403288
0.0402011
0.0400613
0.0399082
0.039741
0.0395584
0.0393594
0.039143
0.0389083
0.0386547
0.038382
0.0380902
0.0377799
0.0374523
0.0371093
0.0367534
0.0363881
0.0360175
0.0356465
0.0352809
0.0349267
0.0345909
0.0342804
0.0340027
0.0337649
0.0335743
0.0334375
0.0333606
0.0333492
0.0334077
0.0335395
0.0337467
0.0340301
0.0343888
0.0348206
0.0353214
0.0358852
0.0365046
0.0371701
0.0378708
0.038594
0.0393259
0.0400514
0.0407546
0.0414194
0.0420296
0.0425696
0.0430252
0.0433836
0.0436346
0.0437707
0.0437877
0.0436849
0.0434653
0.0431356
0.0427058
0.042189
0.0416007
0.0409578
0.0402783
0.0395801
0.0388803
0.0381947
0.0375369
0.0369181
0.0363468
0.0358289
0.0353675
0.0349635
0.0346155
0.0343206
0.0340748
0.0338729
0.0337096
0.0335795
0.0334772
0.0333979
0.0333374
0.0332917
0.0332579
0.033233
0.0332156
0.0332032
0.0331955
0.0331902
0.0331887
0.0331876
0.0331908
0.0331926
0.0332013
0.0332058
0.0332226
0.0332293
0.0332578
0.0415929
0.0416241
0.0416278
0.0416391
0.0416313
0.0416226
0.0416003
0.0415741
0.0415387
0.0414999
0.0414556
0.0414095
0.0413608
0.0413114
0.0412608
0.0412095
0.0411569
0.0411026
0.0410456
0.0409853
0.0409204
0.0408501
0.0407733
0.040689
0.0405962
0.040494
0.0403812
0.0402567
0.0401192
0.0399673
0.0397996
0.0396146
0.0394107
0.0391865
0.0389408
0.0386725
0.038381
0.0380664
0.0377292
0.0373707
0.0369932
0.0365996
0.0361939
0.0357809
0.0353664
0.0349565
0.0345584
0.0341792
0.0338267
0.0335085
0.0332322
0.0330051
0.0328339
0.032725
0.0326836
0.0327142
0.03282
0.0330033
0.0332647
0.0336035
0.0340173
0.0345024
0.035053
0.0356619
0.0363201
0.0370168
0.0377399
0.0384757
0.0392096
0.0399258
0.0406083
0.0412408
0.0418076
0.042294
0.0426866
0.0429746
0.0431495
0.0432063
0.0431433
0.0429625
0.0426699
0.0422747
0.0417896
0.0412297
0.040612
0.0399544
0.0392753
0.0385922
0.0379213
0.0372768
0.0366704
0.0361113
0.0356057
0.0351572
0.0347669
0.0344335
0.0341541
0.0339245
0.0337394
0.0335932
0.0334799
0.033394
0.03333
0.0332836
0.0332505
0.0332278
0.0332123
0.0332026
0.0331962
0.0331932
0.0331912
0.033192
0.0331919
0.0331958
0.0331972
0.033206
0.0332094
0.0332276
0.0332341
0.033268
0.0416023
0.0416365
0.0416403
0.0416523
0.0416432
0.0416333
0.0416086
0.0415803
0.0415426
0.041502
0.0414566
0.0414101
0.041362
0.0413139
0.0412655
0.0412172
0.0411681
0.0411177
0.041065
0.041009
0.0409484
0.0408823
0.0408093
0.0407284
0.0406384
0.0405379
0.0404257
0.0403001
0.0401595
0.040002
0.0398255
0.0396281
0.0394076
0.0391622
0.0388902
0.0385904
0.0382623
0.0379061
0.0375225
0.0371138
0.0366826
0.0362331
0.0357701
0.0352994
0.0348275
0.0343615
0.0339091
0.0334782
0.0330767
0.0327125
0.0323934
0.0321266
0.0319188
0.031776
0.0317036
0.0317056
0.0317854
0.0319448
0.0321847
0.0325042
0.0329013
0.0333721
0.0339115
0.0345125
0.0351664
0.0358631
0.0365909
0.0373367
0.0380862
0.0388239
0.0395341
0.0402004
0.040807
0.0413386
0.0417815
0.0421235
0.0423554
0.0424708
0.0424665
0.0423435
0.0421063
0.0417631
0.0413256
0.0408083
0.0402279
0.0396023
0.03895
0.0382891
0.0376364
0.0370067
0.0364127
0.0358642
0.0353682
0.034929
0.0345481
0.0342248
0.0339566
0.0337393
0.0335677
0.033436
0.0333379
0.0332676
0.0332193
0.0331882
0.0331696
0.0331602
0.0331568
0.0331577
0.0331603
0.033165
0.033169
0.0331747
0.0331783
0.033185
0.0331881
0.0331987
0.0332027
0.033223
0.03323
0.0332685
0.041618
0.0416539
0.0416572
0.0416688
0.0416575
0.0416453
0.0416176
0.0415866
0.0415463
0.0415038
0.0414572
0.0414106
0.0413632
0.0413169
0.0412711
0.0412261
0.0411807
0.0411346
0.0410861
0.0410344
0.0409779
0.0409154
0.0408454
0.0407665
0.0406772
0.0405758
0.0404604
0.0403289
0.040179
0.0400081
0.0398136
0.0395928
0.0393432
0.0390624
0.0387489
0.0384015
0.03802
0.0376052
0.0371589
0.0366842
0.0361849
0.0356662
0.0351339
0.0345949
0.0340565
0.0335265
0.0330129
0.0325239
0.0320677
0.0316521
0.0312847
0.0309727
0.0307225
0.0305399
0.03043
0.0303967
0.0304432
0.0305713
0.0307817
0.0310739
0.0314459
0.0318944
0.0324145
0.0329998
0.0336424
0.0343329
0.0350603
0.0358122
0.036575
0.037334
0.0380738
0.0387785
0.039432
0.040019
0.040525
0.0409371
0.0412447
0.0414398
0.0415177
0.0414774
0.0413217
0.041057
0.0406936
0.0402448
0.0397264
0.0391558
0.0385515
0.0379316
0.0373134
0.0367125
0.0361423
0.0356134
0.0351337
0.0347083
0.0343396
0.0340275
0.0337701
0.0335637
0.0334033
0.0332834
0.0331977
0.0331404
0.0331054
0.0330876
0.033082
0.0330851
0.0330932
0.0331046
0.0331165
0.0331291
0.0331398
0.0331509
0.0331585
0.0331684
0.0331735
0.0331857
0.0331903
0.033212
0.0332192
0.0332603
0.0416436
0.0416807
0.0416831
0.0416937
0.04168
0.0416649
0.0416337
0.0415993
0.0415558
0.041511
0.0414627
0.0414155
0.0413685
0.0413236
0.04128
0.0412378
0.0411959
0.0411532
0.0411083
0.0410598
0.041006
0.0409451
0.0408755
0.0407953
0.0407022
0.0405942
0.0404684
0.0403221
0.0401522
0.0399553
0.0397281
0.0394675
0.0391707
0.0388355
0.0384606
0.0380454
0.0375908
0.0370985
0.0365718
0.0360148
0.0354328
0.0348322
0.0342197
0.0336031
0.0329903
0.0323894
0.031809
0.0312571
0.0307419
0.0302712
0.0298522
0.029492
0.0291966
0.0289715
0.0288215
0.0287503
0.0287609
0.028855
0.0290334
0.0292956
0.0296399
0.0300634
0.0305617
0.031129
0.0317582
0.0324407
0.0331665
0.0339241
0.034701
0.0354833
0.0362563
0.0370047
0.0377127
0.0383649
0.0389464
0.0394434
0.0398441
0.0401388
0.0403208
0.040387
0.0403376
0.040177
0.0399132
0.0395576
0.0391245
0.0386306
0.0380935
0.0375316
0.0369623
0.036402
0.0358649
0.0353625
0.034904
0.0344953
0.0341399
0.0338387
0.0335906
0.0333925
0.0332403
0.0331287
0.0330519
0.0330041
0.0329793
0.0329722
0.0329777
0.0329919
0.0330109
0.0330326
0.0330541
0.0330754
0.0330935
0.0331111
0.033124
0.0331383
0.0331465
0.0331612
0.0331673
0.0331903
0.033198
0.0332403
0.0416777
0.0417152
0.0417162
0.0417248
0.0417077
0.041689
0.0416537
0.0416154
0.0415685
0.041521
0.0414711
0.0414233
0.0413768
0.0413332
0.0412917
0.0412521
0.0412129
0.041173
0.0411305
0.0410837
0.0410303
0.0409684
0.0408954
0.040809
0.0407062
0.0405838
0.0404384
0.0402662
0.0400631
0.0398254
0.0395491
0.039231
0.0388686
0.0384602
0.0380052
0.0375045
0.0369601
0.0363754
0.0357548
0.035104
0.0344295
0.0337386
0.033039
0.032339
0.0316469
0.0309711
0.0303201
0.029702
0.0291247
0.0285958
0.0281222
0.0277105
0.0273665
0.0270953
0.0269012
0.0267879
0.0267578
0.0268129
0.0269537
0.02718
0.0274903
0.027882
0.0283513
0.0288933
0.0295016
0.0301687
0.0308857
0.0316425
0.0324275
0.0332282
0.034031
0.0348216
0.035585
0.0363059
0.0369694
0.0375614
0.0380686
0.0384801
0.038787
0.0389835
0.0390673
0.0390397
0.0389057
0.0386743
0.0383573
0.0379697
0.0375279
0.0370495
0.0365521
0.0360524
0.0355653
0.0351037
0.0346775
0.0342943
0.0339585
0.0336723
0.0334356
0.0332465
0.0331015
0.0329962
0.0329253
0.0328836
0.0328653
0.0328653
0.0328784
0.0329006
0.0329278
0.0329578
0.0329872
0.033016
0.0330409
0.0330645
0.0330824
0.0331008
0.0331122
0.0331292
0.0331367
0.0331603
0.0331683
0.0332099
0.0417231
0.0417601
0.0417594
0.0417652
0.0417444
0.0417213
0.0416815
0.0416389
0.0415882
0.0415378
0.041486
0.0414373
0.0413908
0.041348
0.0413078
0.0412698
0.0412321
0.0411933
0.0411509
0.0411028
0.0410463
0.0409786
0.0408964
0.0407964
0.0406747
0.040527
0.0403489
0.0401357
0.0398828
0.0395857
0.0392409
0.0388453
0.0383972
0.0378961
0.0373429
0.0367398
0.0360907
0.0354003
0.0346748
0.033921
0.0331464
0.0323592
0.0315678
0.0307808
0.0300067
0.0292541
0.0285314
0.0278464
0.0272068
0.0266198
0.026092
0.0256293
0.0252372
0.0249202
0.0246825
0.024527
0.0244562
0.0244716
0.0245738
0.0247625
0.0250365
0.0253936
0.0258305
0.026343
0.0269257
0.0275721
0.0282744
0.0290239
0.0298107
0.0306235
0.0314504
0.0322782
0.0330931
0.0338809
0.0346269
0.0353169
0.0359372
0.0364755
0.036921
0.0372655
0.0375037
0.0376334
0.0376563
0.0375777
0.0374064
0.0371544
0.0368362
0.036468
0.0360667
0.0356489
0.0352303
0.0348246
0.0344433
0.0340951
0.0337861
0.03352
0.0332979
0.0331191
0.0329814
0.0328812
0.0328143
0.032776
0.032761
0.0327647
0.0327821
0.0328093
0.032842
0.032878
0.0329136
0.0329484
0.0329793
0.0330082
0.033031
0.0330535
0.0330681
0.0330874
0.0330966
0.0331205
0.0331287
0.0331685
0.0417797
0.0418154
0.0418123
0.0418145
0.0417893
0.0417613
0.0417165
0.0416692
0.0416146
0.0415611
0.0415073
0.0414575
0.0414106
0.0413681
0.0413283
0.0412905
0.0412525
0.0412123
0.041167
0.0411137
0.0410489
0.0409689
0.0408695
0.0407462
0.0405939
0.0404073
0.040181
0.0399096
0.0395883
0.0392128
0.03878
0.0382879
0.0377361
0.0371257
0.0364595
0.0357414
0.0349769
0.0341724
0.0333353
0.0324735
0.0315955
0.03071
0.0298258
0.0289518
0.0280966
0.0272687
0.0264762
0.0257268
0.0250276
0.0243853
0.0238059
0.0232949
0.0228571
0.0224965
0.0222166
0.0220201
0.0219089
0.0218843
0.0219468
0.022096
0.022331
0.0226498
0.0230496
0.0235269
0.0240771
0.0246949
0.0253738
0.0261065
0.0268846
0.0276986
0.0285383
0.0293922
0.0302482
0.0310933
0.0319142
0.032697
0.0334282
0.0340949
0.0346848
0.0351878
0.0355956
0.0359026
0.0361066
0.0362086
0.0362135
0.0361293
0.0359674
0.0357413
0.0354662
0.0351582
0.0348327
0.0345044
0.0341858
0.0338873
0.0336168
0.0333794
0.0331783
0.0330141
0.032886
0.0327919
0.0327285
0.0326919
0.032678
0.0326825
0.032701
0.0327297
0.0327647
0.0328035
0.0328425
0.0328812
0.0329161
0.0329489
0.0329753
0.0330008
0.0330182
0.033039
0.0330496
0.033073
0.0330814
0.033118
0.0418498
0.0418831
0.0418774
0.041875
0.0418452
0.0418115
0.0417616
0.0417093
0.0416507
0.0415939
0.0415378
0.0414863
0.0414384
0.0413948
0.0413539
0.0413142
0.0412731
0.041228
0.0411751
0.0411108
0.0410305
0.0409294
0.040802
0.0406427
0.0404451
0.0402031
0.0399105
0.0395618
0.0391524
0.0386788
0.038139
0.0375327
0.0368613
0.0361279
0.0353371
0.0344948
0.0336078
0.0326842
0.0317324
0.0307612
0.0297798
0.0287974
0.0278232
0.0268659
0.0259343
0.0250365
0.0241802
0.0233726
0.0226203
0.0219293
0.021305
0.0207521
0.0202746
0.0198761
0.0195593
0.0193263
0.0191788
0.0191175
0.0191428
0.0192542
0.0194507
0.0197308
0.0200919
0.0205312
0.0210449
0.0216286
0.0222771
0.0229843
0.0237436
0.0245472
0.0253867
0.0262527
0.027135
0.0280224
0.0289032
0.029765
0.0305951
0.0313808
0.0321094
0.0327694
0.0333502
0.0338434
0.0342427
0.034545
0.0347501
0.0348616
0.0348862
0.0348337
0.0347164
0.034548
0.0343434
0.034117
0.0338824
0.0336513
0.0334335
0.0332363
0.0330646
0.0329211
0.0328068
0.0327211
0.0326621
0.0326272
0.0326131
0.0326166
0.0326337
0.0326613
0.0326958
0.0327347
0.0327746
0.0328147
0.0328515
0.0328865
0.0329154
0.0329429
0.0329623
0.0329841
0.0329958
0.0330182
0.0330265
0.0330592
0.041934
0.0419638
0.041955
0.0419472
0.0419123
0.0418726
0.0418174
0.0417599
0.0416972
0.0416369
0.0415781
0.0415243
0.0414742
0.0414281
0.0413839
0.0413394
0.0412915
0.0412366
0.04117
0.0410871
0.040982
0.0408487
0.0406803
0.0404699
0.0402102
0.0398945
0.0395166
0.0390712
0.0385547
0.0379651
0.0373021
0.0365675
0.0357647
0.0348989
0.0339766
0.0330053
0.0319935
0.0309504
0.0298853
0.028808
0.0277279
0.0266547
0.0255974
0.0245649
0.0235655
0.0226068
0.0216961
0.0208399
0.0200438
0.0193133
0.0186528
0.0180661
0.0175567
0.0171272
0.0167798
0.016516
0.0163368
0.0162428
0.0162339
0.0163096
0.016469
0.0167104
0.0170319
0.017431
0.0179046
0.018449
0.0190603
0.0197336
0.0204638
0.0212447
0.0220699
0.0229318
0.0238225
0.0247331
0.0256538
0.0265742
0.0274833
0.0283694
0.0292205
0.0300247
0.0307705
0.031447
0.0320451
0.0325574
0.032979
0.0333082
0.0335463
0.0336979
0.0337707
0.0337752
0.0337235
0.033629
0.0335051
0.0333647
0.0332189
0.0330773
0.0329472
0.0328337
0.0327398
0.032667
0.0326151
0.0325831
0.032569
0.0325705
0.0325847
0.032609
0.0326404
0.0326768
0.0327149
0.0327539
0.0327904
0.0328255
0.032855
0.032883
0.0329033
0.032925
0.0329373
0.0329581
0.032966
0.0329943
0.0420342
0.0420592
0.042047
0.0420331
0.0419929
0.0419468
0.0418862
0.0418234
0.0417564
0.0416922
0.0416301
0.0415728
0.041519
0.0414681
0.0414175
0.0413643
0.0413045
0.0412333
0.0411452
0.041034
0.0408925
0.0407133
0.0404884
0.0402097
0.0398695
0.0394611
0.0389785
0.038418
0.0377773
0.0370563
0.0362571
0.0353837
0.0344417
0.0334383
0.0323818
0.0312814
0.0301469
0.0289883
0.0278158
0.0266398
0.02547
0.024316
0.0231867
0.0220906
0.0210355
0.0200282
0.0190753
0.0181823
0.0173541
0.0165951
0.0159088
0.0152983
0.0147661
0.0143141
0.0139439
0.0136563
0.0134519
0.0133308
0.0132927
0.013337
0.0134626
0.013668
0.0139515
0.0143108
0.0147435
0.0152466
0.0158169
0.0164507
0.017144
0.0178924
0.0186908
0.0195339
0.0204156
0.0213293
0.0222677
0.0232225
0.024185
0.0251454
0.0260934
0.0270179
0.0279075
0.0287507
0.0295362
0.0302537
0.0308943
0.031451
0.0319195
0.0322985
0.0325897
0.0327983
0.0329323
0.0330021
0.0330195
0.032997
0.0329472
0.0328811
0.0328085
0.0327373
0.0326731
0.0326199
0.0325797
0.0325534
0.0325406
0.0325404
0.0325511
0.032571
0.0325976
0.0326294
0.0326635
0.0326992
0.0327333
0.0327664
0.0327949
0.0328218
0.0328419
0.0328626
0.0328747
0.0328935
0.0329008
0.0329247
0.0421513
0.0421699
0.042154
0.0421331
0.0420876
0.0420348
0.041969
0.0419006
0.0418292
0.0417605
0.0416941
0.0416319
0.0415721
0.0415135
0.0414526
0.0413856
0.0413073
0.0412118
0.0410923
0.040941
0.0407495
0.0405089
0.0402102
0.039845
0.0394056
0.0388857
0.038281
0.0375891
0.0368102
0.0359465
0.0350024
0.0339844
0.0329002
0.0317589
0.0305705
0.0293456
0.028095
0.0268297
0.0255604
0.0242975
0.0230509
0.0218298
0.0206427
0.0194974
0.0184007
0.0173587
0.016377
0.01546
0.0146117
0.0138353
0.0131337
0.0125089
0.0119626
0.0114961
0.0111102
0.0108054
0.0105817
0.0104389
0.0103764
0.0103935
0.0104889
0.0106613
0.0109089
0.01123
0.0116223
0.0120835
0.0126109
0.0132018
0.0138532
0.0145617
0.0153239
0.016136
0.0169938
0.0178927
0.0188276
0.0197928
0.0207821
0.021788
0.0228025
0.0238166
0.0248201
0.0258022
0.0267513
0.0276557
0.0285036
0.029284
0.0299874
0.0306065
0.0311364
0.0315758
0.0319265
0.0321938
0.0323861
0.0325138
0.0325889
0.0326235
0.0326295
0.0326173
0.0325957
0.0325715
0.0325498
0.0325338
0.0325253
0.032525
0.0325325
0.0325475
0.0325683
0.032594
0.0326223
0.0326527
0.0326823
0.0327115
0.0327371
0.0327615
0.0327798
0.0327986
0.0328097
0.032826
0.0328325
0.032852
0.0422862
0.042297
0.0422771
0.0422487
0.042198
0.0421383
0.0420673
0.0419932
0.0419169
0.0418428
0.0417708
0.0417015
0.0416329
0.0415625
0.0414861
0.0413987
0.0412939
0.0411643
0.0410016
0.0407965
0.0405394
0.0402203
0.0398299
0.0393598
0.0388029
0.0381547
0.0374125
0.0365764
0.0356491
0.0346355
0.0335424
0.0323785
0.0311538
0.029879
0.0285657
0.0272255
0.0258701
0.024511
0.0231589
0.0218243
0.0205166
0.0192443
0.0180152
0.0168361
0.0157128
0.0146503
0.013653
0.0127243
0.0118672
0.011084
0.0103765
0.00974605
0.00919362
0.00871982
0.00832494
0.00800898
0.00777165
0.00761243
0.00753054
0.00752499
0.00759459
0.00773795
0.00795348
0.00823946
0.00859401
0.00901511
0.00950066
0.0100484
0.0106562
0.0113215
0.012042
0.0128151
0.0136382
0.0145084
0.0154227
0.0163775
0.017369
0.0183924
0.0194422
0.020512
0.0215941
0.0226795
0.023758
0.0248179
0.0258468
0.0268313
0.0277583
0.0286152
0.029391
0.0300771
0.0306683
0.0311627
0.0315629
0.0318748
0.0321077
0.0322732
0.0323838
0.0324523
0.0324905
0.0325087
0.0325151
0.0325162
0.0325164
0.0325187
0.0325247
0.0325353
0.03255
0.0325688
0.0325901
0.0326136
0.032637
0.0326607
0.0326817
0.0327021
0.0327175
0.0327334
0.0327428
0.0327564
0.0327618
0.0327774
0.0424392
0.0424405
0.0424167
0.04238
0.0423243
0.0422577
0.0421815
0.0421014
0.0420196
0.0419388
0.0418593
0.0417801
0.0416989
0.0416118
0.0415136
0.0413979
0.0412568
0.0410815
0.040862
0.0405879
0.0402484
0.0398333
0.0393333
0.0387408
0.0380504
0.0372596
0.0363683
0.0353792
0.0342979
0.0331318
0.0318903
0.0305843
0.0292255
0.0278264
0.0263995
0.0249573
0.023512
0.0220751
0.0206572
0.019268
0.0179162
0.0166094
0.0153543
0.0141565
0.0130206
0.0119505
0.0109493
0.0100195
0.00916311
0.00838143
0.00767552
0.00704607
0.00649342
0.0060177
0.00561874
0.0052962
0.00504953
0.00487796
0.00478059
0.00475632
0.00480393
0.00492201
0.00510908
0.00536352
0.00568363
0.00606765
0.00651378
0.00702024
0.00758524
0.00820705
0.00888398
0.00961445
0.0103969
0.0112298
0.0121116
0.0130407
0.0140151
0.0150326
0.0160904
0.0171846
0.0183104
0.0194617
0.0206305
0.0218073
0.0229805
0.0241368
0.0252612
0.0263381
0.0273516
0.0282867
0.0291306
0.0298735
0.0305099
0.0310389
0.0314645
0.0317949
0.0320415
0.0322179
0.0323384
0.0324165
0.0324643
0.0324922
0.0325078
0.0325172
0.0325243
0.0325319
0.032541
0.0325526
0.0325661
0.0325817
0.0325976
0.0326144
0.0326294
0.0326444
0.0326558
0.0326678
0.0326748
0.0326854
0.0326896
0.0327019
0.0426104
0.0426005
0.0425728
0.0425274
0.0424671
0.0423934
0.0423121
0.0422252
0.0421371
0.0420479
0.0419582
0.0418656
0.041767
0.041657
0.0415293
0.0413758
0.0411871
0.0409529
0.0406618
0.0403024
0.0398635
0.039335
0.0387086
0.0379783
0.0371412
0.0361971
0.035149
0.0340026
0.0327662
0.0314498
0.0300653
0.0286254
0.0271434
0.025633
0.0241075
0.0225799
0.0210621
0.0195652
0.0180992
0.0166729
0.0152939
0.0139685
0.012702
0.0114988
0.0103624
0.0092953
0.00829968
0.00737701
0.00652832
0.00575431
0.00505535
0.00443155
0.00388283
0.00340891
0.00300935
0.00268354
0.00243075
0.0022501
0.00214058
0.00210107
0.00213029
0.00222691
0.00238946
0.00261642
0.00290622
0.00325727
0.00366797
0.00413678
0.00466224
0.005243
0.00587786
0.00656581
0.00730602
0.00809786
0.00894089
0.00983478
0.0107792
0.0117739
0.0128181
0.0139106
0.0150495
0.0162315
0.0174521
0.0187044
0.0199796
0.0212661
0.0225499
0.0238144
0.0250412
0.0262109
0.0273042
0.0283036
0.0291946
0.0299676
0.0306184
0.0311489
0.0315665
0.0318832
0.0321139
0.032275
0.0323822
0.0324501
0.0324906
0.0325135
0.0325258
0.0325329
0.0325376
0.0325425
0.032548
0.0325551
0.0325627
0.0325715
0.0325794
0.032588
0.0325942
0.0326017
0.0326057
0.0326133
0.032616
0.0326259
0.0427989
0.042776
0.0427446
0.0426901
0.0426255
0.0425446
0.042458
0.0423636
0.0422677
0.0421678
0.0420648
0.0419543
0.0418325
0.0416922
0.041526
0.0413237
0.0410749
0.0407673
0.040389
0.0399278
0.0393728
0.038715
0.0379476
0.0370673
0.0360737
0.0349698
0.0337617
0.0324582
0.0310702
0.0296104
0.0280925
0.026531
0.0249404
0.023335
0.0217285
0.0201335
0.0185617
0.017023
0.0155266
0.0140797
0.0126886
0.0113583
0.0100927
0.00889493
0.00776713
0.00671093
0.00572742
0.00481725
0.00398077
0.00321807
0.00252902
0.00191337
0.0013707
0.000900486
0.000502096
0.000174798
-8.22412e-05
-0.000269957
-0.000389386
-0.000441662
-0.000428017
-0.000349767
-0.000208304
-5.07317e-06
0.000258443
0.000580759
0.000960418
0.00139603
0.00188631
0.00243012
0.00302655
0.00367489
0.00437473
0.00512598
0.00592883
0.00678382
0.00769173
0.00865353
0.00967022
0.0107427
0.0118713
0.0130557
0.0142945
0.0155843
0.0169197
0.0182925
0.0196912
0.0211011
0.0225039
0.0238784
0.0252014
0.0264492
0.0275991
0.0286319
0.0295334
0.0302964
0.0309207
0.0314135
0.0317877
0.0320604
0.0322503
0.0323761
0.0324547
0.0325002
0.0325238
0.0325341
0.0325367
0.032536
0.0325339
0.0325322
0.0325309
0.032531
0.0325309
0.0325324
0.0325326
0.0325351
0.0325354
0.0325401
0.0325412
0.0325495
0.0430028
0.0429654
0.0429306
0.0428668
0.0427983
0.0427099
0.0426177
0.0425146
0.042409
0.0422954
0.0421751
0.0420412
0.0418894
0.0417103
0.0414952
0.0412322
0.0409094
0.0405135
0.0400322
0.0394533
0.038767
0.037966
0.0370461
0.0360068
0.0348511
0.0335852
0.0322184
0.0307625
0.0292308
0.0276384
0.0260006
0.024333
0.0226509
0.0209688
0.0192999
0.0176563
0.0160484
0.0144851
0.0129738
0.0115206
0.0101301
0.00880589
0.00755052
0.00636581
0.00525292
0.00421254
0.00324495
0.00235017
0.00152801
0.000778133
0.000100093
-0.000506633
-0.00104264
-0.00150858
-0.00190517
-0.00223319
-0.0024935
-0.00268703
-0.00281478
-0.00287787
-0.00287747
-0.00281484
-0.0026913
-0.00250823
-0.00226703
-0.00196911
-0.00161585
-0.00120855
-0.000748396
-0.000236425
0.000326549
0.000939978
0.00160363
0.00231763
0.00308251
0.00389923
0.00476917
0.0056941
0.0066761
0.00771745
0.00882039
0.00998684
0.011218
0.0125139
0.0138728
0.0152904
0.0167592
0.0182679
0.0198011
0.0213388
0.0228569
0.0243283
0.0257245
0.0270176
0.0281832
0.0292028
0.0300659
0.0307709
0.0313252
0.0317435
0.0320452
0.0322524
0.0323866
0.0324673
0.0325108
0.03253
0.0325339
0.0325294
0.0325206
0.0325106
0.0325002
0.0324913
0.0324827
0.0324764
0.0324701
0.0324672
0.0324635
0.0324652
0.0324647
0.0324721
0.0432196
0.0431662
0.0431283
0.0430549
0.0429829
0.0428866
0.0427881
0.0426747
0.042557
0.0424261
0.0422836
0.0421199
0.0419302
0.0417026
0.0414274
0.0410906
0.0406798
0.0401807
0.0395811
0.03887
0.0380394
0.0370844
0.0360039
0.0348008
0.0334816
0.0320558
0.0305359
0.0289363
0.0272728
0.025562
0.0238206
0.0220647
0.0203096
0.0185695
0.0168567
0.015182
0.0135544
0.0119814
0.0104685
0.00902034
0.00763997
0.00632958
0.00509055
0.00392361
0.00282904
0.00180678
0.000856513
-2.22058e-05
-0.000829923
-0.00156724
-0.00223479
-0.00283322
-0.0033632
-0.00382542
-0.00422061
-0.00454952
-0.00481297
-0.00501185
-0.00514711
-0.00521978
-0.00523097
-0.00518186
-0.0050737
-0.00490779
-0.00468547
-0.00440807
-0.00407692
-0.00369325
-0.00325823
-0.00277284
-0.00223787
-0.00165386
-0.00102102
-0.000339163
0.000392301
0.00117446
0.0020089
0.00289775
0.00384363
0.0048496
0.00591906
0.00705547
0.00826214
0.00954172
0.0108957
0.0123237
0.0138226
0.0153858
0.017002
0.0186552
0.0203235
0.02198
0.0235935
0.0251304
0.0265574
0.0278449
0.02897
0.0299193
0.0306904
0.0312914
0.0317393
0.032057
0.03227
0.0324032
0.0324786
0.0325144
0.0325245
0.0325193
0.0325054
0.0324877
0.0324686
0.0324505
0.0324332
0.0324189
0.0324057
0.0323971
0.0323891
0.032388
0.0323858
0.032393
0.0434453
0.0433747
0.0433342
0.0432511
0.0431757
0.043071
0.0429652
0.0428393
0.0427065
0.0425539
0.0423836
0.0421829
0.0419464
0.0416598
0.0413123
0.0408886
0.0403755
0.0397588
0.0390274
0.0381718
0.0371867
0.0360702
0.034825
0.0334573
0.0319773
0.0303979
0.0287344
0.0270035
0.025223
0.0234105
0.0215833
0.0197577
0.0179484
0.0161683
0.0144286
0.0127384
0.0111051
0.00953423
0.00802989
0.0065949
0.00523104
0.00393924
0.00271984
0.00157271
0.000497456
-0.00050654
-0.00143998
-0.00230361
-0.00309818
-0.00382441
-0.004483
-0.00507464
-0.00559997
-0.00605966
-0.00645437
-0.00678481
-0.0070517
-0.00725587
-0.00739816
-0.00747954
-0.00750101
-0.00746369
-0.00736874
-0.00721737
-0.00701086
-0.00675048
-0.0064375
-0.00607313
-0.0056585
-0.00519461
-0.00468227
-0.00412206
-0.00351424
-0.00285873
-0.00215502
-0.0014021
-0.000598423
0.000258138
0.00117033
0.0021415
0.00317557
0.00427687
0.00545001
0.00669951
0.00802936
0.00944244
0.0109397
0.0125191
0.0141749
0.015896
0.0176654
0.0194596
0.0212484
0.0229966
0.0246651
0.0262152
0.0276119
0.0288281
0.029848
0.030669
0.0313007
0.0317636
0.0320844
0.0322925
0.0324161
0.0324798
0.0325032
0.0325015
0.0324849
0.032461
0.0324336
0.0324067
0.0323807
0.0323583
0.032338
0.0323237
0.0323112
0.0323073
0.0323034
0.0323109
0.0436751
0.0435862
0.0435436
0.0434507
0.0433719
0.043258
0.0431433
0.0430024
0.0428509
0.0426715
0.0424669
0.0422212
0.0419283
0.0415716
0.0411395
0.0406156
0.0399869
0.0392397
0.0383649
0.0373552
0.0362087
0.0349271
0.0335169
0.031988
0.030354
0.0286309
0.0268365
0.0249895
0.0231087
0.0212126
0.0193183
0.0174412
0.0155952
0.0137915
0.0120396
0.0103469
0.00871866
0.00715886
0.00566993
0.00425325
0.00290938
0.00163824
0.000439346
-0.000688068
-0.00174489
-0.00273207
-0.00365055
-0.00450121
-0.00528488
-0.00600229
-0.00665413
-0.00724103
-0.00776356
-0.00822232
-0.00861786
-0.0089508
-0.00922177
-0.00943149
-0.00958072
-0.00967031
-0.00970119
-0.00967437
-0.00959092
-0.009452
-0.00925878
-0.0090125
-0.00871435
-0.00836553
-0.00796716
-0.00752024
-0.00702562
-0.00648394
-0.0058956
-0.00526063
-0.0045787
-0.003849
-0.0030702
-0.00224038
-0.00135697
-0.000416691
0.0005844
0.00165093
0.0027881
0.00400147
0.00529667
0.00667894
0.00815243
0.00971935
0.0113788
0.0131257
0.014949
0.016831
0.0187461
0.020661
0.0225356
0.0243257
0.0259867
0.0274782
0.0287694
0.0298428
0.0306962
0.0313422
0.0318052
0.0321166
0.0323099
0.0324167
0.0324635
0.0324715
0.0324558
0.0324276
0.0323932
0.0323579
0.0323233
0.0322931
0.0322657
0.0322456
0.0322285
0.032222
0.0322162
0.0322244
0.0439028
0.0437949
0.0437506
0.0436477
0.0435654
0.043441
0.0433156
0.0431566
0.0429821
0.0427704
0.0425243
0.0422251
0.0418657
0.0414276
0.0408988
0.0402622
0.0395058
0.0386173
0.03759
0.03642
0.0351089