/*--------------------------------*- C++ -*----------------------------------*\
| =========                 |                                                 |
| \\      /  F ield         | OpenFOAM: The Open Source CFD Toolbox           |
|  \\    /   O peration     | Version:  2406                                  |
|   \\  /    A nd           | Website:  www.openfoam.com                      |
|    \\/     M anipulation  |                                                 |
\*---------------------------------------------------------------------------*/
FoamFile
{
    version     2.0;
    format      ascii;
    arch        "LSB;label=32;scalar=64";
    class       volVectorField;
    location    "32.95";
    object      Uold;
}
// * * * * * * * * * * * * * * * * * * * * * * * * * * * * * * * * * * * * * //

dimensions      [0 1 -1 0 0 0 0];

internalField   nonuniform List<vector> 
14400
(
(-1.69822e-05 1.69273e-05 0)
(1.24673e-06 -1.18906e-05 0)
(0.000110273 -4.25819e-05 0)
(0.000294613 -6.93841e-05 0)
(0.000542944 -8.5004e-05 0)
(0.000822622 -9.35168e-05 0)
(0.0011197 -9.41346e-05 0)
(0.00140949 -8.98548e-05 0)
(0.00168239 -8.1157e-05 0)
(0.0019243 -7.02161e-05 0)
(0.00213184 -5.78975e-05 0)
(0.00230042 -4.57246e-05 0)
(0.0024324 -3.43986e-05 0)
(0.00252986 -2.47529e-05 0)
(0.00259856 -1.70523e-05 0)
(0.00264364 -1.14906e-05 0)
(0.00267134 -7.88511e-06 0)
(0.00268655 -5.9583e-06 0)
(0.00269358 -5.22631e-06 0)
(0.00269487 -5.17356e-06 0)
(0.00269147 -5.22994e-06 0)
(0.0026826 -4.88189e-06 0)
(0.00266607 -3.67472e-06 0)
(0.00263834 -1.26726e-06 0)
(0.00259496 2.5813e-06 0)
(0.0025308 8.00904e-06 0)
(0.00244033 1.50869e-05 0)
(0.0023178 2.38436e-05 0)
(0.00215733 3.42995e-05 0)
(0.00195295 4.6484e-05 0)
(0.00169859 6.04459e-05 0)
(0.00138805 7.62487e-05 0)
(0.00101501 9.39598e-05 0)
(0.0005731 0.000113634 0)
(5.59601e-05 0.000135301 0)
(-0.000542597 0.000158946 0)
(-0.00122842 0.000184507 0)
(-0.00200684 0.00021186 0)
(-0.0028824 0.000240818 0)
(-0.00385869 0.000271128 0)
(-0.00493808 0.000302465 0)
(-0.00612149 0.000334438 0)
(-0.00740823 0.000366586 0)
(-0.00879573 0.000398391 0)
(-0.0102795 0.000429279 0)
(-0.0118528 0.00045863 0)
(-0.0135069 0.000485791 0)
(-0.0152307 0.000510085 0)
(-0.0170111 0.000530821 0)
(-0.0188326 0.000547312 0)
(-0.0206779 0.000558879 0)
(-0.0225277 0.000564863 0)
(-0.0243612 0.000564638 0)
(-0.0261559 0.000557616 0)
(-0.0278882 0.000543257 0)
(-0.0295336 0.000521081 0)
(-0.0310667 0.000490678 0)
(-0.0324621 0.000451726 0)
(-0.0336942 0.000404005 0)
(-0.0347379 0.000347421 0)
(-0.0355688 0.00028203 0)
(-0.0361641 0.000208063 0)
(-0.0365023 0.000125955 0)
(-0.0365648 3.6372e-05 0)
(-0.0363355 -5.97624e-05 0)
(-0.0358019 -0.00016125 0)
(-0.0349557 -0.000266603 0)
(-0.0337934 -0.000374046 0)
(-0.0323167 -0.000481529 0)
(-0.030533 -0.000586755 0)
(-0.0284562 -0.000687236 0)
(-0.0261065 -0.000780358 0)
(-0.0235106 -0.000863474 0)
(-0.0207019 -0.000934011 0)
(-0.0177196 -0.000989593 0)
(-0.0146083 -0.00102817 0)
(-0.0114172 -0.00104813 0)
(-0.00819857 -0.00104845 0)
(-0.00500658 -0.00102876 0)
(-0.00189551 -0.000989402 0)
(0.00108192 -0.000931491 0)
(0.00387637 -0.00085685 0)
(0.00644356 -0.00076796 0)
(0.00874583 -0.000667836 0)
(0.0107534 -0.000559876 0)
(0.0124454 -0.000447673 0)
(0.01381 -0.000334823 0)
(0.0148452 -0.000224738 0)
(0.0155577 -0.000120473 0)
(0.0159626 -2.45935e-05 0)
(0.0160822 6.09146e-05 0)
(0.0159444 0.000134691 0)
(0.0155815 0.000195999 0)
(0.0150285 0.000244684 0)
(0.0143211 0.000281101 0)
(0.0134951 0.000306021 0)
(0.0125842 0.000320531 0)
(0.0116198 0.000325927 0)
(0.0106297 0.000323625 0)
(0.00963818 0.000315061 0)
(0.00866499 0.000301644 0)
(0.00772618 0.000284668 0)
(0.00683363 0.000265326 0)
(0.00599596 0.000244616 0)
(0.00521815 0.000223437 0)
(0.00450302 0.000202451 0)
(0.0038503 0.000182297 0)
(0.00325889 0.000163325 0)
(0.00272488 0.000145984 0)
(0.00224517 0.00013029 0)
(0.00181374 0.000116529 0)
(0.00142782 0.000104182 0)
(0.00108132 9.32991e-05 0)
(0.000775156 8.23837e-05 0)
(0.000506196 7.12217e-05 0)
(0.000283071 5.67714e-05 0)
(0.000108719 3.94424e-05 0)
(-1.01359e-06 1.54056e-05 0)
(-4.20109e-05 -7.36422e-06 0)
(-2.21451e-05 -2.17172e-05 0)
(1.07536e-05 -6.15158e-07 0)
(0.000152816 -0.00015579 0)
(0.000481561 -0.000310905 0)
(0.000955792 -0.000446122 0)
(0.0015599 -0.000533739 0)
(0.0022319 -0.000582473 0)
(0.00294064 -0.000590197 0)
(0.00363562 -0.000567395 0)
(0.00429165 -0.000518839 0)
(0.00487811 -0.000454252 0)
(0.00538324 -0.000380009 0)
(0.00579583 -0.000303764 0)
(0.00611736 -0.000230532 0)
(0.00635083 -0.000164807 0)
(0.00650613 -0.000108827 0)
(0.00659306 -6.37116e-05 0)
(0.00662338 -2.88534e-05 0)
(0.00660655 -2.67124e-06 0)
(0.00655043 1.74461e-05 0)
(0.00645899 3.45556e-05 0)
(0.00633291 5.19865e-05 0)
(0.00616867 7.29036e-05 0)
(0.00595938 0.000100133 0)
(0.00569491 0.00013594 0)
(0.00536278 0.000182005 0)
(0.00494869 0.000239437 0)
(0.00443721 0.000308906 0)
(0.00381223 0.000390777 0)
(0.00305729 0.00048526 0)
(0.00215578 0.000592497 0)
(0.00109115 0.000712605 0)
(-0.000153006 0.000845652 0)
(-0.00159266 0.000991591 0)
(-0.00324311 0.00115018 0)
(-0.0051185 0.00132088 0)
(-0.00723141 0.00150282 0)
(-0.00959223 0.00169469 0)
(-0.0122086 0.00189473 0)
(-0.0150848 0.00210073 0)
(-0.0182212 0.00231002 0)
(-0.0216136 0.00251949 0)
(-0.025253 0.00272562 0)
(-0.0291253 0.00292458 0)
(-0.0332108 0.00311226 0)
(-0.0374843 0.00328438 0)
(-0.0419153 0.0034366 0)
(-0.0464682 0.0035646 0)
(-0.0511027 0.00366419 0)
(-0.0557743 0.00373141 0)
(-0.0604349 0.00376259 0)
(-0.0650338 0.00375448 0)
(-0.0695181 0.00370426 0)
(-0.0738335 0.00360961 0)
(-0.0779257 0.00346876 0)
(-0.0817404 0.00328051 0)
(-0.0852245 0.00304426 0)
(-0.0883268 0.00276004 0)
(-0.0909985 0.00242854 0)
(-0.0931941 0.00205112 0)
(-0.0948718 0.0016299 0)
(-0.0959941 0.00116771 0)
(-0.0965287 0.000668212 0)
(-0.0964486 0.000135926 0)
(-0.0957333 -0.000423753 0)
(-0.0943686 -0.0010045 0)
(-0.0923478 -0.00159907 0)
(-0.0896722 -0.00219926 0)
(-0.0863513 -0.00279603 0)
(-0.0824035 -0.00337952 0)
(-0.0778564 -0.00393923 0)
(-0.0727471 -0.00446421 0)
(-0.0671221 -0.00494332 0)
(-0.0610377 -0.00536551 0)
(-0.054559 -0.00572025 0)
(-0.04776 -0.00599788 0)
(-0.0407219 -0.00619007 0)
(-0.0335328 -0.00629024 0)
(-0.0262853 -0.00629398 0)
(-0.0190755 -0.00619941 0)
(-0.0120003 -0.00600742 0)
(-0.00515538 -0.00572183 0)
(0.00136711 -0.00534941 0)
(0.00748127 -0.00489973 0)
(0.0131096 -0.00438485 0)
(0.0181855 -0.00381891 0)
(0.0226549 -0.00321751 0)
(0.026478 -0.00259709 0)
(0.0296303 -0.00197421 0)
(0.0321031 -0.00136479 0)
(0.0339036 -0.000783483 0)
(0.0350541 -0.000243091 0)
(0.0355908 0.00024592 0)
(0.0355617 0.000675716 0)
(0.0350252 0.00104123 0)
(0.0340465 0.00134018 0)
(0.0326959 0.00157283 0)
(0.0310451 0.00174178 0)
(0.0291652 0.00185152 0)
(0.0271242 0.00190799 0)
(0.0249847 0.00191811 0)
(0.0228027 0.00188936 0)
(0.0206268 0.00182927 0)
(0.0184968 0.00174521 0)
(0.0164447 0.00164395 0)
(0.0144941 0.00153175 0)
(0.0126619 0.00141384 0)
(0.0109572 0.00129494 0)
(0.00938501 0.00117849 0)
(0.00794368 0.00106762 0)
(0.00663091 0.000963694 0)
(0.00543845 0.000868071 0)
(0.00436249 0.000779219 0)
(0.00339357 0.000696306 0)
(0.00253388 0.000613482 0)
(0.00177886 0.000528089 0)
(0.00114414 0.000429276 0)
(0.000632814 0.000317825 0)
(0.000271892 0.000183372 0)
(5.81627e-05 5.54588e-05 0)
(-7.45481e-06 -4.19223e-05 0)
(3.88831e-05 -0.000104945 0)
(0.00029934 -0.000481905 0)
(0.000826094 -0.000841337 0)
(0.00153687 -0.00114603 0)
(0.00241466 -0.00135035 0)
(0.00337484 -0.00146201 0)
(0.00437755 -0.00147973 0)
(0.00535562 -0.00142213 0)
(0.0062745 -0.00130246 0)
(0.00709266 -0.0011412 0)
(0.00779232 -0.000954645 0)
(0.00835703 -0.00075995 0)
(0.00878629 -0.000569831 0)
(0.00908216 -0.000394707 0)
(0.00925534 -0.000240477 0)
(0.00931681 -0.000109797 0)
(0.00927981 -1.52429e-06 0)
(0.00915464 8.8178e-05 0)
(0.00894918 0.000165523 0)
(0.00866607 0.000238026 0)
(0.00830315 0.000313845 0)
(0.00785254 0.000400875 0)
(0.00730151 0.000506194 0)
(0.00663277 0.000635584 0)
(0.00582573 0.000793395 0)
(0.00485717 0.000982575 0)
(0.00370237 0.00120492 0)
(0.00233571 0.00146138 0)
(0.000731389 0.00175233 0)
(-0.00113618 0.00207778 0)
(-0.00329182 0.00243742 0)
(-0.00575917 0.00283053 0)
(-0.00856001 0.00325586 0)
(-0.0117136 0.00371138 0)
(-0.0152357 0.00419413 0)
(-0.019138 0.00470002 0)
(-0.0234266 0.00522378 0)
(-0.0281016 0.0057589 0)
(-0.0331561 0.00629768 0)
(-0.0385754 0.00683131 0)
(-0.0443367 0.00735006 0)
(-0.050409 0.00784347 0)
(-0.0567527 0.00830061 0)
(-0.0633207 0.00871039 0)
(-0.0700583 0.00906183 0)
(-0.0769048 0.00934443 0)
(-0.0837941 0.00954841 0)
(-0.0906564 0.00966498 0)
(-0.0974195 0.00968661 0)
(-0.10401 0.00960711 0)
(-0.110354 0.00942179 0)
(-0.116382 0.00912751 0)
(-0.122022 0.00872267 0)
(-0.127211 0.00820719 0)
(-0.131887 0.00758242 0)
(-0.135993 0.00685112 0)
(-0.139479 0.00601738 0)
(-0.142299 0.00508653 0)
(-0.144414 0.00406511 0)
(-0.14579 0.00296091 0)
(-0.1464 0.00178288 0)
(-0.146224 0.000541225 0)
(-0.145248 -0.0007526 0)
(-0.143463 -0.00208583 0)
(-0.140869 -0.00344435 0)
(-0.137472 -0.0048127 0)
(-0.133287 -0.00617411 0)
(-0.128334 -0.00751053 0)
(-0.122643 -0.0088028 0)
(-0.116253 -0.0100309 0)
(-0.109208 -0.0111741 0)
(-0.101565 -0.0122116 0)
(-0.0933864 -0.0131228 0)
(-0.0847451 -0.0138882 0)
(-0.0757213 -0.0144897 0)
(-0.066403 -0.0149115 0)
(-0.0568851 -0.0151409 0)
(-0.0472677 -0.0151688 0)
(-0.0376556 -0.0149907 0)
(-0.0281555 -0.0146069 0)
(-0.0188751 -0.0140228 0)
(-0.00991994 -0.0132496 0)
(-0.00139176 -0.0123034 0)
(0.0066141 -0.0112057 0)
(0.014011 -0.00998212 0)
(0.0207232 -0.00866188 0)
(0.0266879 -0.00727683 0)
(0.0318568 -0.00586017 0)
(0.0361976 -0.00444524 0)
(0.0396947 -0.00306429 0)
(0.0423499 -0.00174723 0)
(0.044182 -0.000520571 0)
(0.0452261 0.000593504 0)
(0.0455324 0.00157784 0)
(0.0451642 0.00242075 0)
(0.0441958 0.00311615 0)
(0.0427092 0.00366342 0)
(0.0407913 0.00406697 0)
(0.0385305 0.0043356 0)
(0.0360138 0.00448157 0)
(0.0333237 0.00451976 0)
(0.030536 0.0044665 0)
(0.0277176 0.00433885 0)
(0.0249259 0.0041535 0)
(0.0222074 0.00392641 0)
(0.0195988 0.00367191 0)
(0.0171258 0.00340293 0)
(0.0148067 0.00312991 0)
(0.0126496 0.0028617 0)
(0.0106597 0.0026037 0)
(0.00883296 0.0023598 0)
(0.00716963 0.0021285 0)
(0.00566107 0.00190757 0)
(0.00431276 0.0016864 0)
(0.00311908 0.00145766 0)
(0.0021013 0.00120233 0)
(0.00125887 0.00091929 0)
(0.000631021 0.000594535 0)
(0.000206151 0.000276057 0)
(1.95844e-05 5.00805e-06 0)
(6.31257e-05 -0.000278544 0)
(0.000428133 -0.00094732 0)
(0.00112316 -0.00155003 0)
(0.00202213 -0.00204247 0)
(0.00310588 -0.00237201 0)
(0.00427016 -0.00254567 0)
(0.00547147 -0.00256498 0)
(0.00663107 -0.00245672 0)
(0.00770989 -0.00224386 0)
(0.00865921 -0.00195853 0)
(0.0094578 -0.00162821 0)
(0.0100852 -0.00128062 0)
(0.010539 -0.000937129 0)
(0.0108192 -0.000614781 0)
(0.0109354 -0.000323536 0)
(0.010897 -6.76432e-05 0)
(0.0107159 0.000154854 0)
(0.0103999 0.000350638 0)
(0.00995412 0.000530369 0)
(0.00937688 0.000707027 0)
(0.00866088 0.000894668 0)
(0.00779195 0.00110695 0)
(0.00675017 0.00135611 0)
(0.00551033 0.00165217 0)
(0.00404343 0.00200267 0)
(0.00231769 0.00241265 0)
(0.000299863 0.00288506 0)
(-0.00204375 0.00342116 0)
(-0.00474631 0.00402094 0)
(-0.0078396 0.00468335 0)
(-0.011353 0.00540634 0)
(-0.0153127 0.00618665 0)
(-0.0197401 0.00701958 0)
(-0.0246511 0.00789862 0)
(-0.0300545 0.0088152 0)
(-0.0359507 0.00975857 0)
(-0.0423306 0.0107157 0)
(-0.0491748 0.0116715 0)
(-0.0564528 0.0126089 0)
(-0.064123 0.0135096 0)
(-0.0721329 0.0143541 0)
(-0.0804199 0.0151228 0)
(-0.0889126 0.0157962 0)
(-0.0975322 0.0163557 0)
(-0.106195 0.0167844 0)
(-0.114813 0.0170673 0)
(-0.123299 0.0171919 0)
(-0.131565 0.0171486 0)
(-0.139527 0.0169304 0)
(-0.147104 0.0165336 0)
(-0.154222 0.0159569 0)
(-0.160813 0.0152019 0)
(-0.166815 0.0142724 0)
(-0.172174 0.0131743 0)
(-0.176843 0.0119153 0)
(-0.180781 0.0105046 0)
(-0.183956 0.00895264 0)
(-0.186339 0.00727119 0)
(-0.187909 0.00547294 0)
(-0.188649 0.00357164 0)
(-0.188548 0.00158209 0)
(-0.1876 -0.000479774 0)
(-0.185802 -0.00259684 0)
(-0.183158 -0.00475066 0)
(-0.179676 -0.00692135 0)
(-0.175366 -0.00908751 0)
(-0.170249 -0.0112262 0)
(-0.164345 -0.0133128 0)
(-0.157685 -0.0153214 0)
(-0.150304 -0.0172248 0)
(-0.142245 -0.0189948 0)
(-0.133558 -0.020603 0)
(-0.124301 -0.022021 0)
(-0.114539 -0.0232212 0)
(-0.104347 -0.0241782 0)
(-0.0938053 -0.0248689 0)
(-0.083004 -0.0252744 0)
(-0.0720384 -0.0253803 0)
(-0.0610097 -0.0251779 0)
(-0.0500231 -0.0246651 0)
(-0.0391861 -0.0238469 0)
(-0.0286068 -0.0227358 0)
(-0.0183915 -0.0213516 0)
(-0.00864274 -0.0197215 0)
(0.000543199 -0.0178792 0)
(0.0090781 -0.0158639 0)
(0.016884 -0.0137194 0)
(0.0238949 -0.0114925 0)
(0.0300582 -0.00923144 0)
(0.0353364 -0.0069844 0)
(0.0397075 -0.00479791 0)
(0.0431658 -0.00271521 0)
(0.0457225 -0.000774924 0)
(0.0474052 0.000990256 0)
(0.0482573 0.00255455 0)
(0.0483369 0.00389982 0)
(0.0477149 0.00501597 0)
(0.0464731 0.00590092 0)
(0.0447005 0.00656025 0)
(0.0424909 0.00700631 0)
(0.0399389 0.00725721 0)
(0.0371369 0.00733531 0)
(0.0341716 0.00726589 0)
(0.0311225 0.00707548 0)
(0.0280582 0.00679079 0)
(0.0250376 0.00643709 0)
(0.0221064 0.00603793 0)
(0.0193013 0.00561342 0)
(0.0166458 0.0051809 0)
(0.0141585 0.00475237 0)
(0.0118452 0.00433645 0)
(0.00971516 0.00393377 0)
(0.00776428 0.00354209 0)
(0.00600439 0.00314765 0)
(0.00442968 0.00273896 0)
(0.00306802 0.00229024 0)
(0.00191387 0.00179643 0)
(0.00102143 0.00123897 0)
(0.000372676 0.000670613 0)
(5.07615e-05 0.000136264 0)
(7.81259e-05 -0.000513856 0)
(0.000520499 -0.00154587 0)
(0.00134699 -0.00243403 0)
(0.0023914 -0.00313411 0)
(0.00362913 -0.003595 0)
(0.00493616 -0.00382451 0)
(0.00626562 -0.00383033 0)
(0.00752906 -0.00364831 0)
(0.00868514 -0.00331323 0)
(0.00968028 -0.00286994 0)
(0.0104918 -0.00235857 0)
(0.0110967 -0.00181823 0)
(0.0114913 -0.00127973 0)
(0.0116735 -0.000767 0)
(0.0116509 -0.000294071 0)
(0.0114301 0.000133597 0)
(0.0110194 0.000519428 0)
(0.0104222 0.000873885 0)
(0.00963786 0.00121315 0)
(0.00865831 0.00155682 0)
(0.00746878 0.00192594 0)
(0.00604696 0.00234086 0)
(0.00436441 0.00281967 0)
(0.0023873 0.00337705 0)
(7.82427e-05 0.00402376 0)
(-0.00260237 0.00476672 0)
(-0.00569464 0.00560941 0)
(-0.00923781 0.00655243 0)
(-0.0132688 0.00759393 0)
(-0.0178207 0.00872987 0)
(-0.0229215 0.00995395 0)
(-0.0285922 0.0112573 0)
(-0.0348452 0.0126281 0)
(-0.0416825 0.0140512 0)
(-0.0490945 0.015508 0)
(-0.0570585 0.0169767 0)
(-0.065538 0.0184319 0)
(-0.0744827 0.0198461 0)
(-0.0838288 0.0211899 0)
(-0.0935004 0.0224329 0)
(-0.103411 0.0235454 0)
(-0.113468 0.0244987 0)
(-0.12357 0.025267 0)
(-0.133618 0.0258275 0)
(-0.143511 0.0261618 0)
(-0.153152 0.0262557 0)
(-0.162452 0.0261 0)
(-0.171326 0.0256901 0)
(-0.179699 0.0250256 0)
(-0.187506 0.02411 0)
(-0.194691 0.0229504 0)
(-0.201207 0.0215561 0)
(-0.207013 0.0199392 0)
(-0.212078 0.018113 0)
(-0.216376 0.0160922 0)
(-0.219889 0.0138923 0)
(-0.222601 0.0115293 0)
(-0.2245 0.0090201 0)
(-0.22558 0.00638172 0)
(-0.225835 0.00363194 0)
(-0.225262 0.00078921 0)
(-0.223861 -0.0021271 0)
(-0.221633 -0.00509646 0)
(-0.218582 -0.00809693 0)
(-0.214713 -0.0111049 0)
(-0.210035 -0.014095 0)
(-0.204561 -0.0170395 0)
(-0.198306 -0.019909 0)
(-0.191291 -0.0226717 0)
(-0.183541 -0.0252941 0)
(-0.17509 -0.0277409 0)
(-0.165976 -0.0299761 0)
(-0.156247 -0.0319633 0)
(-0.145956 -0.0336665 0)
(-0.135169 -0.0350517 0)
(-0.123959 -0.0360877 0)
(-0.112405 -0.0367477 0)
(-0.100599 -0.0370104 0)
(-0.0886371 -0.0368614 0)
(-0.0766215 -0.0362944 0)
(-0.0646597 -0.0353122 0)
(-0.0528611 -0.033927 0)
(-0.0413352 -0.0321607 0)
(-0.0301897 -0.0300446 0)
(-0.0195274 -0.0276188 0)
(-0.00944494 -0.0249312 0)
(-3.01411e-05 -0.022036 0)
(0.00863937 -0.0189918 0)
(0.0164976 -0.0158604 0)
(0.0234915 -0.0127043 0)
(0.0295814 -0.00958538 0)
(0.0347422 -0.00656275 0)
(0.0389636 -0.00369119 0)
(0.0422505 -0.00101959 0)
(0.0446233 0.00141049 0)
(0.0461173 0.00356602 0)
(0.0467829 0.00542349 0)
(0.046684 0.00696946 0)
(0.0458963 0.0082008 0)
(0.0445054 0.00912428 0)
(0.0426034 0.00975587 0)
(0.0402861 0.0101192 0)
(0.0376489 0.0102443 0)
(0.0347844 0.010165 0)
(0.0317775 0.00991763 0)
(0.0287059 0.00953854 0)
(0.0256345 0.00906293 0)
(0.0226197 0.00852247 0)
(0.0197024 0.00794516 0)
(0.0169181 0.0073522 0)
(0.0142862 0.00675935 0)
(0.0118284 0.00617186 0)
(0.00954885 0.00558929 0)
(0.00746854 0.00499694 0)
(0.00558383 0.0043796 0)
(0.00393168 0.00370614 0)
(0.00250402 0.00296459 0)
(0.00137353 0.00213025 0)
(0.000520008 0.00124725 0)
(7.67189e-05 0.000352312 0)
(8.9271e-05 -0.000785602 0)
(0.000591091 -0.00223094 0)
(0.00151724 -0.00342912 0)
(0.00266836 -0.00434074 0)
(0.00401202 -0.00492349 0)
(0.00540595 -0.00519003 0)
(0.00679952 -0.00515802 0)
(0.00809615 -0.00487419 0)
(0.00925351 -0.00438678 0)
(0.010215 -0.00375404 0)
(0.010958 -0.00302914 0)
(0.0114581 -0.00226242 0)
(0.0117109 -0.00149374 0)
(0.0117123 -0.000753146 0)
(0.0114673 -5.78606e-05 0)
(0.0109784 0.000586509 0)
(0.0102485 0.00118595 0)
(0.00927433 0.0017558 0)
(0.00804748 0.00231875 0)
(0.00655108 0.0029018 0)
(0.00476102 0.00353349 0)
(0.00264541 0.00424105 0)
(0.000166531 0.00504824 0)
(-0.002718 0.00597381 0)
(-0.00605291 0.00703086 0)
(-0.00988353 0.00822684 0)
(-0.0142536 0.00956405 0)
(-0.0192033 0.0110402 0)
(-0.0247674 0.0126489 0)
(-0.0309732 0.0143798 0)
(-0.0378381 0.0162182 0)
(-0.0453677 0.0181453 0)
(-0.0535541 0.0201371 0)
(-0.0623736 0.0221649 0)
(-0.0717862 0.0241955 0)
(-0.0817352 0.0261915 0)
(-0.0921479 0.0281128 0)
(-0.102937 0.0299175 0)
(-0.114004 0.031564 0)
(-0.125241 0.0330125 0)
(-0.136537 0.0342264 0)
(-0.147777 0.0351742 0)
(-0.158852 0.0358302 0)
(-0.169659 0.0361752 0)
(-0.180103 0.036197 0)
(-0.190098 0.0358901 0)
(-0.199573 0.0352548 0)
(-0.208466 0.034297 0)
(-0.216728 0.0330269 0)
(-0.224319 0.0314582 0)
(-0.231208 0.0296071 0)
(-0.237373 0.0274915 0)
(-0.242798 0.0251302 0)
(-0.24747 0.0225424 0)
(-0.251381 0.0197476 0)
(-0.254527 0.0167648 0)
(-0.256902 0.013613 0)
(-0.258505 0.0103109 0)
(-0.259333 0.00687697 0)
(-0.259383 0.00333016 0)
(-0.258654 -0.000310238 0)
(-0.257144 -0.00402402 0)
(-0.254849 -0.0077897 0)
(-0.25177 -0.0115841 0)
(-0.247904 -0.0153821 0)
(-0.243253 -0.0191559 0)
(-0.237819 -0.0228752 0)
(-0.231609 -0.0265068 0)
(-0.224631 -0.0300145 0)
(-0.2169 -0.0333594 0)
(-0.208435 -0.0365 0)
(-0.199263 -0.0393931 0)
(-0.189419 -0.041994 0)
(-0.178945 -0.0442583 0)
(-0.167895 -0.0461426 0)
(-0.156331 -0.0476065 0)
(-0.144326 -0.0486137 0)
(-0.131963 -0.0491343 0)
(-0.119335 -0.0491464 0)
(-0.106542 -0.0486373 0)
(-0.0936912 -0.0476051 0)
(-0.0808955 -0.0460597 0)
(-0.068269 -0.044023 0)
(-0.0559254 -0.0415287 0)
(-0.0439755 -0.0386218 0)
(-0.0325241 -0.0353569 0)
(-0.0216684 -0.0317972 0)
(-0.0114953 -0.0280117 0)
(-0.00208078 -0.0240738 0)
(0.00651161 -0.0200584 0)
(0.014231 -0.0160403 0)
(0.0210395 -0.0120923 0)
(0.0269124 -0.00828305 0)
(0.031838 -0.00467559 0)
(0.0358182 -0.001326 0)
(0.0388683 0.0017181 0)
(0.0410174 0.00441882 0)
(0.0423086 0.00674904 0)
(0.0427977 0.00869325 0)
(0.0425536 0.0102478 0)
(0.0416553 0.0114209 0)
(0.0401906 0.0122317 0)
(0.0382521 0.0127089 0)
(0.035935 0.0128888 0)
(0.033332 0.0128133 0)
(0.0305326 0.012527 0)
(0.0276162 0.0120751 0)
(0.0246561 0.0115005 0)
(0.0217102 0.0108424 0)
(0.0188315 0.0101326 0)
(0.0160545 0.00939582 0)
(0.0134162 0.00864447 0)
(0.010931 0.00788204 0)
(0.0086321 0.00709546 0)
(0.00652072 0.00626697 0)
(0.00464501 0.00536151 0)
(0.00299756 0.0043574 0)
(0.00167035 0.00322077 0)
(0.000644595 0.00197474 0)
(9.84426e-05 0.000637214 0)
(9.65725e-05 -0.00109042 0)
(0.000641146 -0.0029921 0)
(0.00163888 -0.00452118 0)
(0.00286246 -0.00564643 0)
(0.00427008 -0.00633847 0)
(0.00570239 -0.00661864 0)
(0.00710412 -0.00651836 0)
(0.00837152 -0.0060978 0)
(0.00946178 -0.00542096 0)
(0.0103166 -0.00456055 0)
(0.0109144 -0.00358351 0)
(0.0112304 -0.00255121 0)
(0.0112601 -0.00151195 0)
(0.0109975 -0.000500807 0)
(0.0104441 0.00046314 0)
(0.00959736 0.00137567 0)
(0.00845339 0.00224683 0)
(0.00700041 0.00309824 0)
(0.0052203 0.0039602 0)
(0.00308569 0.00486785 0)
(0.000561847 0.00585745 0)
(-0.00239326 0.00696276 0)
(-0.00582627 0.0082123 0)
(-0.00978667 0.00962743 0)
(-0.0143238 0.0112216 0)
(-0.0194848 0.0130002 0)
(-0.0253112 0.0149615 0)
(-0.0318375 0.0170965 0)
(-0.0390875 0.0193902 0)
(-0.0470724 0.0218208 0)
(-0.0557881 0.0243604 0)
(-0.0652132 0.0269743 0)
(-0.0753072 0.0296216 0)
(-0.0860103 0.0322555 0)
(-0.0972441 0.0348248 0)
(-0.108913 0.0372756 0)
(-0.120908 0.0395532 0)
(-0.13311 0.0416048 0)
(-0.145394 0.0433817 0)
(-0.157638 0.0448415 0)
(-0.169722 0.0459494 0)
(-0.181535 0.0466796 0)
(-0.192979 0.0470155 0)
(-0.203967 0.0469492 0)
(-0.21443 0.0464813 0)
(-0.22431 0.0456191 0)
(-0.233564 0.0443758 0)
(-0.242158 0.0427687 0)
(-0.25007 0.0408184 0)
(-0.257285 0.038547 0)
(-0.263795 0.0359775 0)
(-0.269594 0.0331331 0)
(-0.274681 0.0300364 0)
(-0.279056 0.0267091 0)
(-0.282718 0.0231721 0)
(-0.285668 0.0194452 0)
(-0.287905 0.0155472 0)
(-0.289428 0.0114965 0)
(-0.290235 0.00731103 0)
(-0.290321 0.00300892 0)
(-0.289682 -0.00139119 0)
(-0.288311 -0.0058696 0)
(-0.286201 -0.0104051 0)
(-0.283344 -0.0149742 0)
(-0.279733 -0.0195512 0)
(-0.27536 -0.024107 0)
(-0.270219 -0.0286092 0)
(-0.264305 -0.0330216 0)
(-0.257616 -0.0373042 0)
(-0.250154 -0.041413 0)
(-0.241926 -0.0453006 0)
(-0.232944 -0.0489163 0)
(-0.22323 -0.0522072 0)
(-0.212811 -0.0551194 0)
(-0.201728 -0.0575991 0)
(-0.19003 -0.0595949 0)
(-0.17778 -0.0610595 0)
(-0.165052 -0.0619519 0)
(-0.151933 -0.0622398 0)
(-0.13852 -0.0619015 0)
(-0.124922 -0.0609281 0)
(-0.111253 -0.0593246 0)
(-0.0976369 -0.0571109 0)
(-0.084195 -0.0543216 0)
(-0.07105 -0.0510057 0)
(-0.0583193 -0.0472247 0)
(-0.0461128 -0.0430508 0)
(-0.0345297 -0.0385643 0)
(-0.0236572 -0.0338508 0)
(-0.013569 -0.0289984 0)
(-0.00432472 -0.0240949 0)
(0.00402955 -0.0192262 0)
(0.0114609 -0.0144736 0)
(0.0179487 -0.00991281 0)
(0.0234842 -0.00561219 0)
(0.0280702 -0.00163197 0)
(0.031721 0.00197719 0)
(0.0344625 0.00517523 0)
(0.0363328 0.0079338 0)
(0.0373822 0.0102371 0)
(0.0376727 0.0120826 0)
(0.0372774 0.0134806 0)
(0.036278 0.014454 0)
(0.0347634 0.0150363 0)
(0.0328247 0.0152702 0)
(0.0305548 0.0152044 0)
(0.0280408 0.0148909 0)
(0.0253673 0.0143817 0)
(0.0226054 0.0137264 0)
(0.0198234 0.0129673 0)
(0.0170702 0.0121391 0)
(0.0143981 0.0112628 0)
(0.0118339 0.0103474 0)
(0.00942399 0.00938369 0)
(0.00717747 0.00835229 0)
(0.00515528 0.00721529 0)
(0.00335433 0.00593929 0)
(0.00188526 0.00447909 0)
(0.000733611 0.00282857 0)
(0.000113245 0.000979221 0)
(0.000102789 -0.00141458 0)
(0.000679638 -0.00379941 0)
(0.00172615 -0.00566733 0)
(0.00299109 -0.00699685 0)
(0.00442219 -0.00777507 0)
(0.00584504 -0.00803623 0)
(0.00719947 -0.00782957 0)
(0.00837605 -0.00723169 0)
(0.00933211 -0.00632455 0)
(0.010009 -0.00519637 0)
(0.010387 -0.00392804 0)
(0.0104416 -0.00259125 0)
(0.0101683 -0.00124144 0)
(0.00955867 8.30743e-05 0)
(0.00861043 0.00136332 0)
(0.00731436 0.00259849 0)
(0.00565824 0.00380453 0)
(0.00362013 0.00501078 0)
(0.00117073 0.00625601 0)
(-0.00172886 0.00758369 0)
(-0.00512425 0.00903715 0)
(-0.00906681 0.0106553 0)
(-0.0136101 0.0124691 0)
(-0.0188072 0.0144998 0)
(-0.0247074 0.0167576 0)
(-0.0313526 0.019242 0)
(-0.0387749 0.0219421 0)
(-0.0469928 0.0248376 0)
(-0.0560088 0.0278986 0)
(-0.0658066 0.0310867 0)
(-0.076349 0.0343547 0)
(-0.087577 0.0376474 0)
(-0.0994098 0.0409033 0)
(-0.111747 0.0440561 0)
(-0.124471 0.0470378 0)
(-0.137455 0.0497814 0)
(-0.150562 0.0522241 0)
(-0.163658 0.0543105 0)
(-0.176614 0.0559947 0)
(-0.18931 0.0572418 0)
(-0.201644 0.0580286 0)
(-0.213525 0.0583436 0)
(-0.224883 0.0581855 0)
(-0.235661 0.0575622 0)
(-0.24582 0.056489 0)
(-0.255331 0.0549863 0)
(-0.264178 0.0530785 0)
(-0.272352 0.0507921 0)
(-0.279849 0.0481542 0)
(-0.28667 0.0451922 0)
(-0.292819 0.0419324 0)
(-0.2983 0.0383996 0)
(-0.303118 0.0346173 0)
(-0.307277 0.0306072 0)
(-0.310781 0.0263893 0)
(-0.31363 0.0219825 0)
(-0.315826 0.0174042 0)
(-0.317368 0.0126712 0)
(-0.318252 0.00779985 0)
(-0.318473 0.00280668 0)
(-0.318025 -0.0022912 0)
(-0.3169 -0.0074755 0)
(-0.315086 -0.0127261 0)
(-0.312574 -0.0180207 0)
(-0.30935 -0.0233337 0)
(-0.3054 -0.0286361 0)
(-0.30071 -0.0338951 0)
(-0.295267 -0.0390728 0)
(-0.289058 -0.0441269 0)
(-0.282073 -0.04901 0)
(-0.274303 -0.0536697 0)
(-0.265747 -0.0580493 0)
(-0.256407 -0.0620881 0)
(-0.246297 -0.065723 0)
(-0.235437 -0.0688897 0)
(-0.22386 -0.0715245 0)
(-0.211614 -0.0735673 0)
(-0.198757 -0.0749636 0)
(-0.185366 -0.0756676 0)
(-0.17153 -0.0756449 0)
(-0.157356 -0.0748754 0)
(-0.14296 -0.0733551 0)
(-0.128471 -0.071098 0)
(-0.114021 -0.0681364 0)
(-0.0997488 -0.0645207 0)
(-0.0857887 -0.0603176 0)
(-0.0722696 -0.0556083 0)
(-0.0593099 -0.0504847 0)
(-0.0470146 -0.0450462 0)
(-0.0354728 -0.0393958 0)
(-0.0247567 -0.0336365 0)
(-0.0149219 -0.0278685 0)
(-0.00600819 -0.0221865 0)
(0.00195875 -0.0166785 0)
(0.00896564 -0.0114242 0)
(0.0150101 -0.00649436 0)
(0.0200995 -0.00195011 0)
(0.0242507 0.00215779 0)
(0.02749 0.00578987 0)
(0.0298539 0.00891891 0)
(0.031389 0.0115309 0)
(0.0321532 0.0136255 0)
(0.0322138 0.0152163 0)
(0.0316484 0.0163303 0)
(0.0305397 0.0170059 0)
(0.0289771 0.0172912 0)
(0.0270482 0.0172409 0)
(0.0248421 0.0169124 0)
(0.0224383 0.0163628 0)
(0.019916 0.0156439 0)
(0.0173363 0.0147994 0)
(0.0147653 0.0138593 0)
(0.012242 0.0128393 0)
(0.00982645 0.0117352 0)
(0.00753763 0.010527 0)
(0.00544961 0.00917486 0)
(0.00356663 0.00763239 0)
(0.0020154 0.00584159 0)
(0.000787898 0.00376234 0)
(0.000122186 0.00135617 0)
(0.000107692 -0.00175803 0)
(0.000707152 -0.00464497 0)
(0.0017818 -0.00685192 0)
(0.00305852 -0.00836944 0)
(0.00447405 -0.00920425 0)
(0.00584076 -0.0094075 0)
(0.0070938 -0.00905013 0)
(0.00811968 -0.00822842 0)
(0.00887656 -0.00704455 0)
(0.0093067 -0.00560336 0)
(0.00939253 -0.00399975 0)
(0.00911048 -0.00231477 0)
(0.00845565 -0.000609404 0)
(0.00741676 0.00107696 0)
(0.00598637 0.00272778 0)
(0.00414747 0.00434794 0)
(0.00187804 0.00596118 0)
(-0.000855248 0.00760583 0)
(-0.00409357 0.00932963 0)
(-0.0078872 0.0111837 0)
(-0.0122913 0.013217 0)
(-0.017364 0.0154707 0)
(-0.0231614 0.0179748 0)
(-0.0297346 0.020746 0)
(-0.0371251 0.0237861 0)
(-0.0453611 0.0270832 0)
(-0.0544545 0.0306115 0)
(-0.0643973 0.0343326 0)
(-0.0751592 0.0381964 0)
(-0.086686 0.0421418 0)
(-0.098899 0.0460983 0)
(-0.111697 0.0499885 0)
(-0.124958 0.0537308 0)
(-0.138546 0.0572431 0)
(-0.152318 0.0604472 0)
(-0.166126 0.0632721 0)
(-0.179831 0.0656577 0)
(-0.193303 0.0675571 0)
(-0.20643 0.0689375 0)
(-0.219115 0.0697807 0)
(-0.231283 0.0700814 0)
(-0.242878 0.0698459 0)
(-0.253858 0.0690899 0)
(-0.264197 0.0678359 0)
(-0.273882 0.0661114 0)
(-0.282906 0.0639465 0)
(-0.29127 0.0613728 0)
(-0.298978 0.0584216 0)
(-0.306039 0.0551233 0)
(-0.312461 0.0515069 0)
(-0.318252 0.0475993 0)
(-0.323421 0.0434252 0)
(-0.327977 0.0390073 0)
(-0.331927 0.0343662 0)
(-0.335275 0.0295206 0)
(-0.338027 0.0244877 0)
(-0.340184 0.0192833 0)
(-0.341747 0.0139224 0)
(-0.342717 0.00841944 0)
(-0.343088 0.00278898 0)
(-0.342855 -0.00295389 0)
(-0.342011 -0.0087929 0)
(-0.340545 -0.01471 0)
(-0.338444 -0.0206846 0)
(-0.335693 -0.026693 0)
(-0.332273 -0.0327076 0)
(-0.328164 -0.0386963 0)
(-0.323345 -0.0446217 0)
(-0.317793 -0.0504408 0)
(-0.311485 -0.0561046 0)
(-0.3044 -0.0615576 0)
(-0.296517 -0.0667385 0)
(-0.287821 -0.0715803 0)
(-0.278305 -0.0760116 0)
(-0.267967 -0.0799575 0)
(-0.256817 -0.0833422 0)
(-0.24488 -0.0860911 0)
(-0.232196 -0.0881339 0)
(-0.21882 -0.0894082 0)
(-0.204829 -0.0898626 0)
(-0.190317 -0.0894608 0)
(-0.175397 -0.0881846 0)
(-0.160199 -0.0860363 0)
(-0.144866 -0.0830407 0)
(-0.129551 -0.079245 0)
(-0.114408 -0.0747185 0)
(-0.0995929 -0.0695492 0)
(-0.0852497 -0.0638412 0)
(-0.0715113 -0.0577093 0)
(-0.0584922 -0.0512746 0)
(-0.0462867 -0.0446591 0)
(-0.0349672 -0.0379816 0)
(-0.0245856 -0.0313541 0)
(-0.0151745 -0.0248797 0)
(-0.0067504 -0.0186507 0)
(0.000683483 -0.0127484 0)
(0.0071343 -0.00724315 0)
(0.0126178 -0.00219398 0)
(0.017157 0.00235127 0)
(0.0207823 0.00635652 0)
(0.0235316 0.00979826 0)
(0.0254514 0.0126663 0)
(0.026597 0.0149646 0)
(0.0270334 0.0167112 0)
(0.0268328 0.0179377 0)
(0.026076 0.0186877 0)
(0.024846 0.0190144 0)
(0.0232309 0.0189769 0)
(0.0213127 0.0186363 0)
(0.0191768 0.0180512 0)
(0.016893 0.0172725 0)
(0.014538 0.0163387 0)
(0.0121621 0.0152714 0)
(0.00983774 0.0140724 0)
(0.00759498 0.0127213 0)
(0.00552026 0.0111768 0)
(0.00362737 0.00937975 0)
(0.00205555 0.00725897 0)
(0.000804435 0.00473958 0)
(0.000124431 0.00175229 0)
(0.000112141 -0.00211322 0)
(0.000726159 -0.00550863 0)
(0.00180902 -0.00804284 0)
(0.00306758 -0.00972066 0)
(0.00442707 -0.0105723 0)
(0.0056891 -0.0106701 0)
(0.00678494 -0.010111 0)
(0.00759915 -0.00901393 0)
(0.00809164 -0.0075035 0)
(0.00820679 -0.00570175 0)
(0.00792956 -0.00371717 0)
(0.00723726 -0.00163861 0)
(0.00612395 0.000469628 0)
(0.0045745 0.00256972 0)
(0.00257495 0.00465023 0)
(9.91416e-05 0.00672408 0)
(-0.00288592 0.0088245 0)
(-0.00642544 0.0109996 0)
(-0.0105721 0.0133054 0)
(-0.0153858 0.0157991 0)
(-0.0209281 0.0185318 0)
(-0.0272587 0.0215429 0)
(-0.03443 0.0248562 0)
(-0.0424827 0.0284774 0)
(-0.0514409 0.0323941 0)
(-0.0613089 0.0365757 0)
(-0.0720672 0.0409749 0)
(-0.0836709 0.0455295 0)
(-0.0960482 0.0501637 0)
(-0.109101 0.054791 0)
(-0.122708 0.0593178 0)
(-0.136729 0.0636472 0)
(-0.151012 0.067684 0)
(-0.1654 0.0713397 0)
(-0.17974 0.074537 0)
(-0.193891 0.0772133 0)
(-0.207726 0.0793225 0)
(-0.221139 0.0808357 0)
(-0.234047 0.0817404 0)
(-0.246386 0.0820385 0)
(-0.258112 0.0817439 0)
(-0.269197 0.0808794 0)
(-0.279625 0.0794744 0)
(-0.289392 0.0775623 0)
(-0.298498 0.0751783 0)
(-0.306952 0.0723582 0)
(-0.314762 0.0691369 0)
(-0.321941 0.065548 0)
(-0.328501 0.0616229 0)
(-0.334457 0.0573907 0)
(-0.339819 0.0528782 0)
(-0.344602 0.0481094 0)
(-0.348817 0.0431063 0)
(-0.352476 0.0378883 0)
(-0.355588 0.0324728 0)
(-0.358162 0.0268757 0)
(-0.360206 0.0211109 0)