/*--------------------------------*- C++ -*----------------------------------*\
| =========                 |                                                 |
| \\      /  F ield         | OpenFOAM: The Open Source CFD Toolbox           |
|  \\    /   O peration     | Version:  2406                                  |
|   \\  /    A nd           | Website:  www.openfoam.com                      |
|    \\/     M anipulation  |                                                 |
\*---------------------------------------------------------------------------*/
FoamFile
{
    version     2.0;
    format      ascii;
    arch        "LSB;label=32;scalar=64";
    class       surfaceScalarField;
    location    "27.2";
    object      phi;
}
// * * * * * * * * * * * * * * * * * * * * * * * * * * * * * * * * * * * * * //

dimensions      [0 3 -1 0 0 0 0];

oriented        oriented;

internalField   nonuniform List<scalar> 
1740
(
5.46271e-06
-5.44267e-06
1.50077e-05
-9.66682e-06
2.26165e-05
-7.56146e-06
2.59933e-05
-3.39749e-06
2.67121e-05
-6.67152e-07
2.60792e-05
6.60273e-07
2.47822e-05
1.36411e-06
2.1746e-05
3.08416e-06
1.29672e-05
8.93819e-06
-8.17972e-06
2.16147e-05
-4.71587e-05
3.96424e-05
-0.000105324
5.87963e-05
-0.000176848
7.2016e-05
-0.000249928
7.34666e-05
-0.000313644
6.41042e-05
-0.0003612
4.79156e-05
-0.000388263
2.74389e-05
-0.00039214
4.16452e-06
-0.000370959
-2.08289e-05
-0.000324333
-4.64883e-05
-0.000253172
-7.08872e-05
-0.000162221
-9.11583e-05
-6.00581e-05
-0.000102143
3.71313e-05
-9.78649e-05
0.000107792
-7.05875e-05
0.000131529
-2.41292e-05
0.000107527
2.44851e-05
6.36187e-05
4.34246e-05
2.33404e-05
4.07675e-05
2.33555e-05
1.0738e-05
-1.61058e-05
2.54486e-05
-2.44642e-05
3.53933e-05
-1.74524e-05
3.68903e-05
-4.96481e-06
3.0669e-05
5.51728e-06
1.55821e-05
1.56513e-05
-1.33937e-05
3.02941e-05
-6.50889e-05
5.48397e-05
-0.000144652
8.84221e-05
-0.000247318
0.000123637
-0.000358445
0.000149852
-0.000461496
0.000161108
-0.000546768
0.000156604
-0.00061183
0.000137784
-0.000656693
0.000108275
-0.000681055
7.16334e-05
-0.000684179
3.00518e-05
-0.000665307
-1.51725e-05
-0.000623472
-6.29047e-05
-0.000558146
-0.000112077
-0.000469454
-0.000159496
-0.000359789
-0.000200956
-0.000235002
-0.000226582
-0.000106806
-0.000226199
6.40482e-06
-0.000183069
8.01201e-05
-9.77984e-05
9.66711e-05
8.50208e-06
7.11378e-05
6.80511e-05
3.0354e-05
8.1485e-05
5.31079e-05
1.27514e-05
-2.87889e-05
2.54998e-05
-3.72876e-05
2.88963e-05
-2.0745e-05
1.86728e-05
5.31786e-06
-7.53274e-06
3.18549e-05
-5.6846e-05
6.51338e-05
-0.000137184
0.000110816
-0.000248486
0.000166089
-0.000375658
0.000215534
-0.000497472
0.00024573
-0.000600822
0.000253559
-0.000682193
0.000242741
-0.000742615
0.000217216
-0.000784731
0.000180078
-0.00081085
0.000134593
-0.000822298
8.32149e-05
-0.000819491
2.73439e-05
-0.000802075
-3.2665e-05
-0.000768892
-9.61759e-05
-0.000718217
-0.00016311
-0.000648007
-0.000229976
-0.000556355
-0.000293246
-0.000443472
-0.000339821
-0.000312417
-0.000357979
-0.000174649
-0.000320577
-5.1767e-05
-0.000220657
1.90377e-05
-6.10448e-05
3.18868e-05
5.49284e-05
1.49435e-05
9.90962e-05
6.82446e-05
1.04248e-05
-3.92558e-05
1.3242e-05
-4.02459e-05
7.22935e-10
-7.53955e-06
-3.4696e-05
3.99336e-05
-9.67563e-05
9.38406e-05
-0.000191697
0.000159918
-0.000313621
0.00023252
-0.000442829
0.000295147
-0.000559098
0.000331521
-0.000653537
0.000339697
-0.000725737
0.00032529
-0.000777769
0.000294425
-0.000812911
0.000252076
-0.000834933
0.000201837
-0.000846896
0.000146358
-0.000850801
8.69376e-05
-0.000847616
2.41009e-05
-0.000837467
-4.28999e-05
-0.000819479
-0.000114056
-0.00079177
-0.000190859
-0.000751105
-0.000270438
-0.000692588
-0.00035189
-0.00061077
-0.000421567
-0.000499509
-0.000469578
-0.000359188
-0.000460934
-0.000199141
-0.000380695
-6.28764e-05
-0.000197008
-7.89248e-07
-7.62563e-06
2.17512e-06
9.63367e-05
7.01217e-05
2.61432e-06
-4.17629e-05
-1.16761e-05
-2.58208e-05
-4.91178e-05
3.00862e-05
-0.000114447
0.000105479
-0.000210031
0.000189549
-0.00032893
0.000278944
-0.000452438
0.000356056
-0.00056109
0.000403779
-0.000645858
0.000416345
-0.000706806
0.000400882
-0.000747143
0.000365904
-0.000771185
0.000318762
-0.000783531
0.000264718
-0.000788183
0.000206768
-0.000788167
0.000146652
-0.000785517
8.45355e-05
-0.00078142
2.03263e-05
-0.000776566
-4.75795e-05
-0.000770885
-0.000119396
-0.000763596
-0.000198084
-0.0007521
-0.000281604
-0.000731189
-0.000372917
-0.00069232
-0.000460314
-0.000622681
-0.000539636
-0.000510094
-0.000573651
-0.00034794
-0.000543346
-0.00015704
-0.000387385
-2.58108e-05
-0.000139378
1.90961e-06
6.92162e-05
7.20413e-05
-1.23455e-05
-2.95713e-05
-4.91918e-05
1.10151e-05
-0.000112072
9.2833e-05
-0.000201133
0.000194498
-0.000310803
0.000299035
-0.000425541
0.000393496
-0.000526737
0.000457022
-0.00060292
0.000479846
-0.000653428
0.000466742
-0.000682529
0.000429905
-0.000695486
0.000378807
-0.000697717
0.000320973
-0.000693828
0.000260841
-0.000687307
0.000200251
-0.000680352
0.000139775
-0.000674196
7.84105e-05
-0.000669379
1.57015e-05
-0.000666518
-5.0386e-05
-0.000666054
-0.000119507
-0.000668806
-0.000195276
-0.000674378
-0.000275504
-0.000680408
-0.000366841
-0.00067998
-0.000460192
-0.000659042
-0.000560567
-0.000598549
-0.000633912
-0.000475813
-0.000666578
-0.000282927
-0.000579623
-7.65234e-05
-0.000347968
6.41017e-06
-1.21497e-05
7.78858e-05
-2.93974e-05
-1.09667e-07
-8.69473e-05
6.89179e-05
-0.000167714
0.000173661
-0.000266032
0.000293049
-0.000371309
0.000404288
-0.000466631
0.000488892
-0.000538719
0.00052915
-0.000583896
0.00052519
-0.000606588
0.000489608
-0.00061287
0.000436406
-0.000609024
0.000375147
-0.000600581
0.000312684
-0.000591378
0.000251769
-0.000583621
0.000192548
-0.000577907
0.000134146
-0.000574005
7.44506e-05
-0.000571194
1.29643e-05
-0.000569408
-5.23609e-05
-0.000568861
-0.000119926
-0.000571219
-0.000193239
-0.000577912
-0.00026854
-0.00059029
-0.000354833
-0.000606187
-0.000443868
-0.000616494
-0.000550415
-0.000604265
-0.000645922
-0.000538714
-0.000731557
-0.00039799
-0.00072137
-0.00016853
-0.000576637
-5.30706e-06
-0.000175865
7.30528e-05
-4.44694e-05
4.40915e-05
-0.000116404
0.000140922
-0.00020473
0.000261646
-0.000300153
0.000388388
-0.000390832
0.00049466
-0.000462283
0.000560216
-0.000507626
0.000574369
-0.000528739
0.000546284
-0.000532579
0.000493394
-0.000526034
0.000429819
-0.000515622
0.000364676
-0.000506011
0.000302994
-0.00049959
0.000245303
-0.000496896
0.000189756
-0.000496871
0.000134133
-0.000498079
7.55406e-05
-0.000498878
1.38768e-05
-0.000498766
-5.2656e-05
-0.000497568
-0.000120879
-0.000497064
-0.000194071
-0.000499121
-0.000266089
-0.000507098
-0.000347353
-0.000522405
-0.000428031
-0.000542242
-0.000531
-0.000555709
-0.000631986
-0.000536666
-0.000750217
-0.000455922
-0.000803196
-0.000272594
-0.000758159
-4.47743e-05
-0.000408304
3.02061e-05
-5.24082e-05
9.65187e-05
-0.000130094
0.000218989
-0.000217005
0.000348433
-0.000302292
0.000473852
-0.000375159
0.000567443
-0.000424948
0.000610166
-0.000450058
0.000599601
-0.00045569
0.000552136
-0.000449802
0.000487653
-0.000439289
0.000419453
-0.000430011
0.000355505
-0.000425099
0.000298141
-0.000425309
0.000245595
-0.000429609
0.000194037
-0.000435776
0.000140395
-0.000441756
8.14077e-05
-0.000445542
1.78162e-05
-0.000446552
-5.1894e-05
-0.000444306
-0.00012285
-0.000440468
-0.000198347
-0.000436647
-0.00026945
-0.000436976
-0.000347665
-0.000444742
-0.000419631
-0.000462046
-0.000514376
-0.000484083
-0.000609264
-0.000492631
-0.000741737
-0.000456454
-0.000838881
-0.000337641
-0.000876724
-0.000113656
-0.000633261
-8.14694e-05
-5.36709e-05
0.000149963
-0.000130075
0.000295458
-0.000209811
0.000427772
-0.000281792
0.000545738
-0.000337381
0.000622754
-0.000369781
0.000642527
-0.000381239
0.000610973
-0.000378488
0.000549348
-0.000369405
0.000478468
-0.000360262
0.000410201
-0.000355624
0.000350754
-0.000357034
0.000299401
-0.000363869
0.000252364
-0.000374114
0.000204113
-0.000385052
0.000151357
-0.000394636
9.0779e-05
-0.000400896
2.42367e-05
-0.000403381
-4.9731e-05
-0.000401276
-0.000124615
-0.000395934
-0.000204209
-0.000388139
-0.000276687
-0.000381788
-0.000354782
-0.000380319
-0.000420342
-0.000389167
-0.000506416
-0.000409166
-0.000588468
-0.000430577
-0.00072075
-0.000427058
-0.000841694
-0.000356754
-0.000946822
-0.000185935
-0.000804382
-0.000267226
-4.83572e-05
0.00019841
-0.000117487
0.000364892
-0.000186163
0.000496306
-0.00024415
0.000603877
-0.000285077
0.000663659
-0.000305347
0.000663044
-0.00030921
0.000615008
-0.000303522
0.000543883
-0.00029543
0.000470521
-0.000290132
0.000405033
-0.000290776
0.000351522
-0.000297593
0.00030627
-0.000309071
0.000263984
-0.000322824
0.000217841
-0.0003362
0.000164936
-0.000347562
0.000102004
-0.000355175
3.21601e-05
-0.000358851
-4.6366e-05
-0.000357505
-0.000125478
-0.000352331
-0.000209942
-0.00034325
-0.000285065
-0.000333582
-0.000365297
-0.00032544
-0.000427588
-0.000325172
-0.000507749
-0.000336335
-0.000576392
-0.000357533
-0.000700379
-0.000370337
-0.000828232
-0.000331502
-0.000985369
-0.000205707
-0.00093184
-0.000473771
-3.89471e-05
0.000237256
-9.74555e-05
0.000423381
-0.000153843
0.00055238
-0.000198722
0.000648631
-0.000227844
0.000692573
-0.000239859
0.000675033
-0.000239816
0.000614869
-0.000233969
0.000537931
-0.000228308
0.000464712
-0.000226808
0.000403351
-0.000231273
0.000355854
-0.000241138
0.000315916
-0.000254523
0.000277314
-0.000269272
0.000232336
-0.000283111
0.000178852
-0.000294988
0.000113551
-0.000303344
4.07774e-05
-0.000308237
-4.19526e-05
-0.00030824
-0.000124971
-0.000304527
-0.000214359
-0.000296264
-0.000292551
-0.000286519
-0.000376017
-0.000275836
-0.00043726
-0.000270332
-0.000514445
-0.000273497
-0.000572164
-0.000289095
-0.000685816
-0.000305845
-0.000810528
-0.000284802
-0.00100575
-0.000185901
-0.00103113
-0.000660055
-2.65235e-05
0.000263962
-7.19169e-05
0.000468942
-0.000115226
0.000595647
-0.000148276
0.0006818
-0.00016829
0.000712657
-0.000175436
0.000682462
-0.000174384
0.000614032
-0.000170103
0.000533876
-0.000167171
0.000461972
-0.000168334
0.000404647
-0.0001745
0.00036222
-0.000184876
0.000326341
-0.000197716
0.000290406
-0.000211435
0.000246003
-0.000224205
0.000191974
-0.000235562
0.000124706
-0.00024401
4.97319e-05
-0.000249892
-3.6499e-05
-0.000251429
-0.000122716
-0.000249946
-0.000216559
-0.000243856
-0.000297684
-0.000236245
-0.000384662
-0.000226113
-0.000446229
-0.000219085
-0.000522769
-0.000217367
-0.000572663
-0.000228015
-0.000676477
-0.000246028
-0.000791501
-0.000238249
-0.00101322
-0.000162878
-0.00110661
-0.000823353
-1.31406e-05
0.000277097
-4.46601e-05
0.000500283
-7.55014e-05
0.0006263
-9.81502e-05
0.000704242
-0.000111022
0.000725376
-0.000114966
0.000686319
-0.000113712
0.000612663
-0.000110854
0.000530827
-0.000109521
0.000460476
-0.000111552
0.000406408
-0.000117265
0.000367812
-0.00012606
0.000334816
-0.000136498
0.000300836
-0.000147724
0.000256846
-0.000158299
0.000202714
-0.000168355
0.00013426
-0.000176361
5.81374e-05
-0.000183039
-3.05065e-05
-0.000186274
-0.000118794
-0.000187721
-0.00021604
-0.000185029
-0.000299391
-0.000181478
-0.000389407
-0.000174771
-0.000451692
-0.000169953
-0.000529009
-0.000167127
-0.000574102
-0.000174479
-0.000670599
-0.000191577
-0.000773096
-0.000193439
-0.00101136
-0.000139126
-0.00116052
-0.000963088
6.56473e-07
0.000276704
-1.64636e-05
0.000517423
-3.50602e-05
0.000644998
-4.85554e-05
0.00071782
-5.5745e-05
0.00073273
-5.78902e-05
0.000688745
-5.73242e-05
0.000612377
-5.60337e-05
0.000529763
-5.567e-05
0.000460396
-5.72543e-05
0.000408116
-6.08602e-05
0.000371736
-6.6369e-05
0.000340336
-7.28717e-05
0.000307741
-8.03615e-05
0.000264214
-8.77292e-05
0.000210631
-9.56832e-05
0.000141896
-0.000102567
6.57646e-05
-0.000109614
-2.40317e-05
-0.000114398
-0.000113027
-0.000119069
-0.000212247
-0.000120514
-0.000296726
-0.000122198
-0.000388927
-0.000120756
-0.0004517
-0.000120964
-0.000530304
-0.00012097
-0.000572524
-0.000128997
-0.000664281
-0.000146843
-0.000753784
-0.00015664
-0.00100211
-0.000119306
-0.00119707
-0.00108307
1.33939e-05
0.000263355
1.0359e-05
0.000520088
3.15545e-06
0.00065213
-1.90492e-06
0.000722554
-4.03474e-06
0.000734751
-4.42236e-06
0.000688931
-3.98373e-06
0.000611824
-3.32686e-06
0.000528801
-2.66623e-06
0.000459589
-2.54966e-06
0.000407604
-2.86516e-06
0.000371979
-4.16299e-06
0.000341165
-5.98134e-06
0.000309639
-9.18216e-06
0.000266848
-1.28107e-05
0.000214559
-1.81862e-05
0.000146552
-2.35127e-05
7.1654e-05
-3.07007e-05
-1.77717e-05
-3.70323e-05
-0.000105828
-4.52103e-05
-0.000205234
-5.14654e-05
-0.000289299
-5.93653e-05
-0.000382457
-6.45296e-05
-0.000445067
-7.15695e-05
-0.000524961
-7.67357e-05
-0.00056561
-8.80237e-05
-0.000654922
-0.000107877
-0.000732127
-0.000125304
-0.000985727
-0.000102992
-0.00121819
-0.00118688
2.48468e-05
0.000238855
3.55725e-05
0.000509278
3.95575e-05
0.000648393
4.21425e-05
0.000720034
4.45788e-05
0.000732575
4.5605e-05
0.000688168
4.57041e-05
0.000612105
4.56679e-05
0.000529051
4.66465e-05
0.000459032
4.86892e-05
0.000405646
5.20367e-05
0.000369121
5.54698e-05
0.00033766
5.89553e-05
0.000306756
6.06957e-05
0.000264851
6.14672e-05
0.000214565
5.92309e-05
0.000148313
5.59184e-05
7.59659e-05
4.89143e-05
-1.15052e-05
4.12368e-05
-9.69081e-05
2.97014e-05
-0.000194732
1.85819e-05
-0.000276696
4.15946e-06
-0.000369412
-8.23243e-06
-0.000430937
-2.32685e-05
-0.000511697
-3.54456e-05
-0.000551402
-5.25089e-05
-0.000640048
-7.59034e-05
-0.000706592
-0.00010041
-0.000962838
-9.02031e-05
-0.00122677
-0.001278
3.36608e-05
0.000205249
5.74864e-05
0.000484883
7.2164e-05
0.000633721
8.26993e-05
0.00070902
9.02374e-05
0.000724966
9.37029e-05
0.000684334
9.4635e-05
0.000611087
9.47581e-05
0.000528464
9.66376e-05
0.000457052
0.000100709
0.000400995
0.000107623
0.000362216
0.000115497
0.000329105
0.000124041
0.000298421
0.000130479
0.000257615
0.0001355
0.00021
0.000136258
0.000146581
0.000134865
7.80863e-05
0.000128058
-5.88096e-06
0.000119047
-8.68793e-05
0.000104228
-0.000181332
8.82912e-05
-0.000259431
6.73097e-05
-0.000350152
4.76128e-05
-0.000409537
2.42899e-05
-0.000490489
4.57768e-06
-0.00052949
-1.95804e-05
-0.000618478
-4.76778e-05
-0.000675936
-7.9744e-05
-0.000933058
-8.024e-05
-0.00122417
-0.00135932
3.95255e-05
0.000166178
7.55873e-05
0.000448714
0.000101077
0.000608618
0.000119075
0.000691119
0.000131704
0.000712705
0.000137732
0.000678545
0.000139552
0.000609784
0.000139727
0.000528467
0.000141961
0.000455437
0.000147321
0.000395644
0.000156998
0.000353259
0.000168691
0.000317207
0.000181944
0.000286016
0.000192995
0.000246132
0.000202379
0.000201648
0.000206378
0.000141917
0.000207139
7.85748e-05
0.000200868
-5.18295e-07
0.000190883
-7.54068e-05
0.000173231
-0.000164869
0.000153036
-0.000237475
0.000126038
-0.000324736
9.95725e-05
-0.000380938
6.82374e-05
-0.000461295
4.10522e-05
-0.000499612
9.18426e-06
-0.000589481
-2.39098e-05
-0.000639639
-6.32715e-05
-0.000896652
-7.25008e-05
-0.00121217
-0.00143308
4.10391e-05
0.000125169
8.82315e-05
0.000400734
0.000124348
0.000572537
0.000151226
0.000663547
0.000170623
0.000693286
0.000181323
0.000667241
0.000186046
0.000605035
0.000187422
0.00052641
0.000190374
0.000452474
0.00019636
0.00038884
0.000207599
0.000342151
0.000221571
0.00030229
0.000238116
0.000269832
0.000252558
0.000230612
0.000265368
0.000189459
0.000271974
0.00013407
0.000274435
7.69928e-05
0.000268493
3.98555e-06
0.000257604
-6.33698e-05
0.000237422
-0.000146388
0.000213522
-0.000212097
0.00018117
-0.00029449
0.000148777
-0.000346562
0.000110149
-0.000425389
7.61204e-05
-0.000462805
3.63336e-05
-0.000553293
-2.08862e-06
-0.000597556
-4.93537e-05
-0.000853392
-6.63321e-05
-0.00119176
-0.00150103
3.8638e-05
8.71472e-05
9.47349e-05
0.000344638
0.000141525
0.000526294
0.000176398
0.000628883
0.000202408
0.000667779
0.000218042
0.000651836
0.000226191
0.00059758
0.000229458
0.000523251
0.000233224
0.000449576
0.000239362
0.000382587
0.000251073
0.000331448
0.000265959
0.000287027
0.000284463
0.000252474
0.000301301
0.00021314
0.000316832
0.000175242
0.000325807
0.000124226
0.000330024
7.42886e-05
0.000324754
8.16184e-06
0.000313569
-5.0426e-05
0.000291676
-0.000125876
0.000265157
-0.000183467
0.000228697
-0.000259875
0.000191797
-0.000306975
0.000147104
-0.000383302
0.000107332
-0.000419402
6.00171e-05
-0.000509772
1.68486e-05
-0.000549571
-3.81966e-05
-0.000803098
-6.13135e-05
-0.00116402
-0.00156424
3.21348e-05
5.49589e-05
9.37446e-05
0.000281943
0.000150205
0.00046989
0.000195407
0.000582619
0.000230981
0.000632238
0.000254912
0.000626948
0.00026984
0.000582726
0.00027728
0.000514849
0.000283243
0.000443764
0.000289503
0.000375225
0.00030058
0.00032068
0.00031436
0.000271998
0.000332383
0.000234987
0.000349254
0.000194881
0.00036547
0.000159807
0.00037524
0.000112927
0.000380264
7.02814e-05
0.000375157
1.15444e-05
0.000363738
-3.77298e-05
0.000340578
-0.00010476
0.000312382
-0.000153615
0.000273
-0.000223094
0.000232961
-0.000264629
0.000183343
-0.000337218
0.000138721
-0.000371333
8.39534e-05
-0.000460041
3.61802e-05
-0.000496676
-2.75438e-05
-0.000745915
-5.62402e-05
-0.00112985
-0.0016232
2.54087e-05
3.02242e-05
8.65356e-05
0.000221175
0.000150436
0.000406697
0.000202609
0.000530964
0.000245999
0.000589495
0.000278082
0.000595147
0.00030085
0.000560872
0.000314873
0.000500815
0.000325397
0.000434423
0.000333749
0.00036657
0.000345141
0.000310648
0.000357763
0.000258787
0.000374338
0.000219918
0.000389863
0.000178505
0.000405391
0.000145939
0.000414854
0.000102382
0.000420101
6.68886e-05
0.000415145
1.51797e-05
0.000404033
-2.44749e-05
0.000380679
-8.30523e-05
0.000352246
-0.000122557
0.000311592
-0.000184623
0.000269992
-0.000219573
0.000216685
-0.000287032
0.000168057
-0.000317802
0.000106013
-0.00040284
5.41627e-05
-0.000437705
-1.85444e-05
-0.000680317
-5.10315e-05
-0.00108959
-0.00167735
1.61404e-05
1.38875e-05
7.08162e-05
0.000165088
0.000138042
0.000339484
0.000200542
0.000466813
0.000256308
0.000533774
0.000300823
0.000549138
0.000335794
0.000526111
0.000359636
0.000475622
0.000377641
0.000416829
0.000390078
0.000352711
0.000402852
0.000298461
0.000414394
0.000245668
0.000428567
0.000206513
0.000440995
0.000164361
0.000453816
0.000134081
0.000460888
9.3456e-05
0.000464757
6.41878e-05
0.000458731
1.91475e-05
0.000447426
-1.17363e-05
0.00042371
-6.17808e-05
0.000395392
-9.23873e-05
0.000353834
-0.000146231
0.000311154
-0.000174291
0.000254369
-0.000234724
0.000201856
-0.000261239
0.000132337
-0.00034021
7.6946e-05
-0.000375618
-5.61402e-06
-0.00060807
-4.20942e-05
-0.0010445
-0.00172442
1.44245e-05
-4.39227e-07
5.4323e-05
0.000126588
0.00011615
0.000278218
0.000178692
0.000405716
0.000240612
0.000472585
0.000296505
0.000493817
0.000344926
0.000478883
0.000382787
0.000437625
0.000413175
0.000388021
0.000435015
0.000330308
0.000454029
0.000281249
0.000468302
0.00023055
0.000482896
0.000193884
0.000493622
0.000152556
0.000504302
0.000125535
0.000508789
8.76523e-05
0.000510883
6.44654e-05
0.000503454
2.49624e-05
0.000491802
2.67583e-06
0.000468039
-4.00502e-05
0.000440228
-6.11561e-05
0.000398574
-0.000107239
0.000355276
-0.000126424
0.000295522
-0.000178681
0.000238903
-0.00019802
0.000161553
-0.000268695
0.000102157
-0.000306125
9.0682e-06
-0.000524753
-2.89891e-05
-0.000992948
-0.00175927
-2.85983e-06
3.16416e-06
2.20368e-05
9.96312e-05
7.671e-05
0.000223824
0.000146849
0.000332749
0.000222674
0.000396651
0.000293155
0.000420976
0.000358244
0.0004141
0.000411448
0.000382524
0.000456245
0.000343942
0.000489586
0.000295124
0.000517311
0.000254456
0.000536924
0.000208965
0.000554198
0.000177662
0.000565118
0.000139521
0.000574687
0.000117142
0.00057702
8.3066e-05
0.000577099
6.5735e-05
0.000567496
3.20982e-05
0.000554558
1.72138e-05
0.000529179
-1.75468e-05
0.000500569
-3.05522e-05
0.000456598
-6.6966e-05
0.000411321
-7.84617e-05
0.000346606
-0.00011937
0.000286263
-0.000133531
0.000202432
-0.000193762
0.000142948
-0.000239359
4.39558e-05
-0.00044123
1.60314e-06
-0.000938518
-0.00176825
1.32009e-05
-1.36065e-05
1.64787e-06
0.000114786
2.10514e-05
0.000204171
7.70933e-05
0.00028057
0.000154115
0.000320708
0.000239537
0.000337012
0.000323208
0.000332004
0.000397315
0.000308262
0.000461884
0.000281404
0.000512689
0.000243473
0.000555159
0.000214291
0.000585572
0.000177438
0.000611031
0.000154706
0.000626385
0.000122857
0.000638959
0.000107293
0.000641594
7.88407e-05
0.000642033
6.83549e-05
0.000631173
4.09252e-05
0.00061809
3.3909e-05
0.000591656
6.18746e-06
0.00056348
2.18426e-06
0.00051948
-2.66046e-05
0.000475602
-2.83799e-05
0.000412313
-6.09988e-05
0.000354339
-6.64839e-05
0.000271415
-0.000117673
0.000210847
-0.000165093
0.000105139
-0.000347343
5.58078e-05
-0.000861143
-0.00172128
-6.86431e-05
6.54919e-05
-5.58838e-05
9.73804e-05
-2.99675e-05
0.000178732
2.33387e-05
0.000220779
0.000115348
0.000227648
0.000211113
0.000237436
0.000310062
0.000233209
0.000398422
0.000217365
0.000478021
0.00020267
0.000541739
0.000177404
0.000596237
0.000160878
0.00063575
0.000135411
0.000669069
0.000122537
0.000689482
9.97313e-05
0.000706472
9.15574e-05
0.000711457
7.09447e-05
0.00071475
6.65036e-05
0.000705451
4.70607e-05
0.000695828
4.52444e-05
0.000671829
2.66369e-05
0.00064956
2.64966e-05
0.000609687
8.95468e-06
0.000575254
8.48471e-06
0.00051745
-9.28572e-06
0.000471821
-1.80176e-05
0.000395445
-5.19495e-05
0.000346303
-0.000114193
0.000265702
-0.000288317
0.000194206
-0.000780484
-0.00156212
-0.000268494
0.000311896
-0.000307693
0.000145679
-0.000284067
0.000155878
-0.000184559
0.000128927
-7.23519e-05
0.000117392
5.55317e-05
0.000112167
0.000179214
0.00011125
0.000292236
0.000104099
0.000396803
0.000100171
0.000482745
9.02238e-05
0.000561705
8.44014e-05
0.000622043
7.36061e-05
0.000679124
6.82792e-05
0.000719146
5.81081e-05
0.00075975
5.4136e-05
0.0007838
4.49857e-05
0.000811816
4.21704e-05
0.000822316
3.40666e-05
0.000840125
3.19268e-05
0.000838343
2.49648e-05
0.000847704
2.29918e-05
0.000834678
1.70851e-05
0.000837041
1.441e-05
0.000813891
7.21106e-06
0.000809055
-1.10726e-07
0.000775533
-2.53914e-05
0.000752154
-6.55955e-05
0.000676756
-0.000208712
0.0004708
-0.000482809
-0.00105215
0.000331127
0.000462854
0.000620855
0.000746131
0.0008626
0.000971975
0.00108396
0.00118607
0.00128763
0.00137586
0.00146191
0.00153329
0.00160334
0.00165896
0.00171507
0.00175724
0.00180173
0.00183258
0.00186731
0.0018885
0.00191485
0.00192741
0.00194558
0.00194692
0.0019495
0.00191433
0.00184475
0.00161524
0.00114675
)
;

boundaryField
{
    movingWall
    {
        type            calculated;
        value           uniform 0;
    }
    fixedWalls
    {
        type            calculated;
        value           uniform 0;
    }
    frontAndBack
    {
        type            empty;
    }
}


// ************************************************************************* //
