/*--------------------------------*- C++ -*----------------------------------*\
| =========                 |                                                 |
| \\      /  F ield         | OpenFOAM: The Open Source CFD Toolbox           |
|  \\    /   O peration     | Version:  2406                                  |
|   \\  /    A nd           | Website:  www.openfoam.com                      |
|    \\/     M anipulation  |                                                 |
\*---------------------------------------------------------------------------*/
FoamFile
{
    version     2.0;
    format      ascii;
    arch        "LSB;label=32;scalar=64";
    class       volVectorField;
    location    "14.15";
    object      Uold;
}
// * * * * * * * * * * * * * * * * * * * * * * * * * * * * * * * * * * * * * //

dimensions      [0 1 -1 0 0 0 0];

internalField   nonuniform List<vector> 
3600
(
(2.12901e-05 -1.92678e-05 0)
(-1.19802e-05 1.0442e-05 0)
(-0.000121382 3.60671e-05 0)
(-0.000301735 5.72329e-05 0)
(-0.000528912 6.58695e-05 0)
(-0.000779167 7.16887e-05 0)
(-0.00104916 7.26089e-05 0)
(-0.00132337 7.44938e-05 0)
(-0.0016108 7.52832e-05 0)
(-0.00190148 7.79217e-05 0)
(-0.00220697 8.03394e-05 0)
(-0.00251887 8.40359e-05 0)
(-0.00284655 8.72979e-05 0)
(-0.00318159 9.10162e-05 0)
(-0.00353003 9.39168e-05 0)
(-0.00388316 9.65905e-05 0)
(-0.00424381 9.80842e-05 0)
(-0.00460292 9.87558e-05 0)
(-0.00496033 9.78173e-05 0)
(-0.00530624 9.53941e-05 0)
(-0.00563745 9.07454e-05 0)
(-0.00594281 8.37753e-05 0)
(-0.00621593 7.37505e-05 0)
(-0.00644385 6.04347e-05 0)
(-0.00661714 4.31829e-05 0)
(-0.0067213 2.18166e-05 0)
(-0.00674513 -3.99462e-06 0)
(-0.00667424 -3.40518e-05 0)
(-0.00649849 -6.80424e-05 0)
(-0.00620707 -0.000105042 0)
(-0.00579533 -0.000143825 0)
(-0.00526063 -0.000182582 0)
(-0.00460867 -0.000219215 0)
(-0.00384898 -0.000251321 0)
(-0.00300061 -0.000276499 0)
(-0.0020861 -0.000292584 0)
(-0.00113647 -0.00029788 0)
(-0.000182971 -0.000291536 0)
(0.000737997 -0.000273501 0)
(0.00159549 -0.000244895 0)
(0.00235754 -0.000207501 0)
(0.00300364 -0.000164091 0)
(0.00351461 -0.000117421 0)
(0.00388674 -7.07256e-05 0)
(0.00411611 -2.63448e-05 0)
(0.00421541 1.32876e-05 0)
(0.00419171 4.72678e-05 0)
(0.00406832 7.44827e-05 0)
(0.00385526 9.56203e-05 0)
(0.00357954 0.000110534 0)
(0.00324678 0.000121047 0)
(0.00288319 0.000127172 0)
(0.00248605 0.000131343 0)
(0.00208034 0.000132751 0)
(0.00165569 0.000133949 0)
(0.00124011 0.000131292 0)
(0.00082499 0.000125662 0)
(0.000455619 0.00010442 0)
(0.000154601 6.56218e-05 0)
(-2.81308e-06 -2.45413e-06 0)
(-7.48641e-06 1.08378e-05 0)
(-0.000183214 0.000178397 0)
(-0.000529454 0.000317755 0)
(-0.00101493 0.000434661 0)
(-0.00160928 0.000500708 0)
(-0.00226529 0.000548108 0)
(-0.00297519 0.000572111 0)
(-0.00370859 0.000594369 0)
(-0.00447627 0.000610735 0)
(-0.00526054 0.000631796 0)
(-0.00607716 0.000651888 0)
(-0.0069124 0.000675287 0)
(-0.00777852 0.000696427 0)
(-0.00866122 0.000716919 0)
(-0.00956654 0.000732219 0)
(-0.0104784 0.000742863 0)
(-0.0113966 0.000745242 0)
(-0.012303 0.000739215 0)
(-0.0131917 0.00072165 0)
(-0.0140423 0.000691732 0)
(-0.0148432 0.000646432 0)
(-0.015571 0.000584336 0)
(-0.0162086 0.000502521 0)
(-0.0167294 0.00039946 0)
(-0.017112 0.000272945 0)
(-0.0173279 0.000122403 0)
(-0.0173544 -5.24239e-05 0)
(-0.0171651 -0.000249636 0)
(-0.0167416 -0.000466068 0)
(-0.0160665 -0.000695978 0)
(-0.0151334 -0.00093187 0)
(-0.0139415 -0.00116389 0)
(-0.012504 -0.0013809 0)
(-0.0108426 -0.00157065 0)
(-0.0089944 -0.00172119 0)
(-0.00700402 -0.00182173 0)
(-0.00492971 -0.00186396 0)
(-0.00283182 -0.00184315 0)
(-0.00077903 -0.00175872 0)
(0.00116688 -0.00161496 0)
(0.00294289 -0.00142013 0)
(0.00450288 -0.0011866 0)
(0.00580453 -0.000928254 0)
(0.00682995 -0.000660646 0)
(0.00756458 -0.00039733 0)
(0.00802111 -0.000151038 0)
(0.00820844 7.02599e-05 0)
(0.00816204 0.000260105 0)
(0.00790183 0.000417828 0)
(0.00747389 0.000542705 0)
(0.00689559 0.000639671 0)
(0.0062142 0.000710315 0)
(0.00543621 0.000762012 0)
(0.0046082 0.000793742 0)
(0.00372625 0.000811656 0)
(0.00284465 0.000803895 0)
(0.00196254 0.000768428 0)
(0.00116509 0.000664587 0)
(0.000486037 0.000478907 0)
(6.70913e-05 0.000155461 0)
(-4.12242e-05 0.000132289 0)
(-0.000370674 0.000543264 0)
(-0.000965039 0.000877992 0)
(-0.00174305 0.00115 0)
(-0.00267562 0.00131939 0)
(-0.0036926 0.00144036 0)
(-0.00478859 0.0015115 0)
(-0.00592116 0.00157187 0)
(-0.00710353 0.00161908 0)
(-0.0083112 0.00167172 0)
(-0.00956163 0.00172185 0)
(-0.010836 0.00177552 0)
(-0.0121466 0.00182323 0)
(-0.0134738 0.00186584 0)
(-0.0148217 0.00189501 0)
(-0.0161684 0.00190985 0)
(-0.0175101 0.00190356 0)
(-0.0188227 0.00187438 0)
(-0.0200954 0.00181633 0)
(-0.0213015 0.00172671 0)
(-0.0224241 0.00159973 0)
(-0.0234333 0.00143187 0)
(-0.0243065 0.00121769 0)
(-0.0250105 0.00095395 0)
(-0.0255183 0.000637029 0)
(-0.0257955 0.000266296 0)
(-0.0258144 -0.000157405 0)
(-0.0255442 -0.000629059 0)
(-0.0249632 -0.00114051 0)
(-0.0240515 -0.00167864 0)
(-0.0228021 -0.00222656 0)
(-0.0212144 -0.00276295 0)
(-0.0193046 -0.00326388 0)
(-0.0170983 -0.00370349 0)
(-0.0146396 -0.0040565 0)
(-0.0119821 -0.00429993 0)
(-0.00919594 -0.00441579 0)
(-0.00635586 -0.00439304 0)
(-0.00354746 -0.00422918 0)
(-0.000850821 -0.00393133 0)
(0.00165148 -0.00351549 0)
(0.00389468 -0.00300605 0)
(0.0058189 -0.00243219 0)
(0.00739223 -0.00182653 0)
(0.00858907 -0.00121972 0)
(0.00941639 -0.000640143 0)
(0.00988048 -0.000108407 0)
(0.0100196 0.000359853 0)
(0.0098579 0.000759016 0)
(0.00945007 0.00108658 0)
(0.00882082 0.00134911 0)
(0.00802882 0.00155071 0)
(0.0070878 0.00170279 0)
(0.00605731 0.00180567 0)
(0.00493929 0.00186609 0)
(0.00380468 0.00186479 0)
(0.00265661 0.00178864 0)
(0.00160661 0.00157092 0)
(0.000690499 0.00116643 0)
(0.000109858 0.000467275 0)
(-7.72027e-05 0.00036012 0)
(-0.000572616 0.00111747 0)
(-0.0014249 0.00170379 0)
(-0.00249196 0.00216033 0)
(-0.00374695 0.00245457 0)
(-0.00509625 0.00266426 0)
(-0.00654178 0.00279579 0)
(-0.00802961 0.0029045 0)
(-0.0095776 0.00299097 0)
(-0.0111535 0.00308088 0)
(-0.0127763 0.00316424 0)
(-0.0144207 0.00324824 0)
(-0.0160983 0.00331929 0)
(-0.0177838 0.00337712 0)
(-0.0194794 0.00340949 0)
(-0.0211584 0.00341402 0)
(-0.0228151 0.0033808 0)
(-0.0244215 0.00330663 0)
(-0.025966 0.00318298 0)
(-0.0274192 0.00300558 0)
(-0.0287641 0.00276618 0)
(-0.0299693 0.00245945 0)
(-0.0310122 0.0020777 0)
(-0.0318585 0.00161621 0)
(-0.032481 0.00107015 0)
(-0.0328437 0.00043897 0)
(-0.0329175 -0.000275322 0)
(-0.0326688 -0.00106463 0)
(-0.0320725 -0.00191596 0)
(-0.0311038 -0.00280904 0)
(-0.0297502 -0.00371776 0)
(-0.0280046 -0.00460937 0)
(-0.0258766 -0.00544684 0)
(-0.0233863 -0.00618978 0)
(-0.0205739 -0.00679807 0)
(-0.017492 -0.00723432 0)
(-0.0142142 -0.00746805 0)
(-0.0108231 -0.00747873 0)
(-0.00741731 -0.00725888 0)
(-0.004094 -0.00681593 0)
(-0.000956191 -0.00617208 0)
(0.00190991 -0.00536347 0)
(0.00442337 -0.0044357 0)
(0.00653443 -0.00344086 0)
(0.00820334 -0.00242995 0)
(0.00942869 -0.00145074 0)
(0.0102127 -0.000540102 0)
(0.0105951 0.000273975 0)
(0.0106037 0.000978395 0)
(0.0103008 0.00156723 0)
(0.0097179 0.00204746 0)
(0.0089233 0.00242544 0)
(0.00793685 0.00271595 0)
(0.0068285 0.00292121 0)
(0.00560389 0.00304752 0)
(0.00434591 0.00307006 0)
(0.00305788 0.00296216 0)
(0.0018685 0.00263333 0)
(0.000812796 0.00199092 0)
(0.000133864 0.000856943 0)
(-0.000108419 0.000690368 0)
(-0.000763852 0.00190905 0)
(-0.00187065 0.00281246 0)
(-0.00322177 0.00348704 0)
(-0.00478954 0.00392684 0)
(-0.00645373 0.0042369 0)
(-0.00822457 0.00443783 0)
(-0.0100359 0.00460048 0)
(-0.0119119 0.00473028 0)
(-0.0138118 0.00485852 0)
(-0.015757 0.0049737 0)
(-0.0177149 0.00508306 0)
(-0.0196973 0.00516936 0)
(-0.0216732 0.00523082 0)
(-0.0236447 0.00525201 0)
(-0.0255818 0.00522935 0)
(-0.0274805 0.00515085 0)
(-0.0293127 0.00501255 0)
(-0.0310705 0.00480434 0)
(-0.0327276 0.00452087 0)
(-0.0342721 0.00415201 0)
(-0.0356771 0.00369063 0)
(-0.036925 0.00312662 0)
(-0.0379853 0.00245313 0)
(-0.0388337 0.00166316 0)
(-0.0394344 0.000754812 0)
(-0.0397564 -0.00027047 0)
(-0.0397603 -0.00140363 0)
(-0.0394115 -0.00262903 0)
(-0.0386717 -0.00392137 0)
(-0.0375112 -0.00524699 0)
(-0.0359031 -0.00656252 0)
(-0.0338356 -0.00781734 0)
(-0.0313084 -0.00895454 0)
(-0.0283445 -0.00991537 0)
(-0.024985 -0.0106426 0)
(-0.0212999 -0.0110866 0)
(-0.0173775 -0.0112102 0)
(-0.0133323 -0.0109941 0)
(-0.00928643 -0.0104403 0)
(-0.00537513 -0.00957404 0)
(-0.00172077 -0.00844257 0)
(0.00155936 -0.00711047 0)
(0.00438346 -0.00565435 0)
(0.0066866 -0.00415252 0)
(0.0084519 -0.00267945 0)
(0.00967504 -0.00129535 0)
(0.0103983 -4.59215e-05 0)
(0.0106573 0.00104429 0)
(0.0105268 0.00196433 0)
(0.0100505 0.00272075 0)
(0.00931098 0.00332332 0)
(0.00833746 0.0037905 0)
(0.0072115 0.00412851 0)
(0.00594324 0.00434274 0)
(0.00462573 0.00440471 0)
(0.00326288 0.00427121 0)
(0.00199717 0.00382776 0)
(0.000866238 0.00292421 0)
(0.000140779 0.00130149 0)
(-0.000139811 0.00111936 0)
(-0.000955122 0.00290966 0)
(-0.00231186 0.00418584 0)
(-0.00393904 0.00510063 0)
(-0.00580632 0.00569434 0)
(-0.00776677 0.00610581 0)
(-0.0098392 0.0063759 0)
(-0.0119452 0.00659037 0)
(-0.0141157 0.00676035 0)
(-0.0163012 0.00692101 0)
(-0.0185258 0.00705947 0)
(-0.0207499 0.00718231 0)
(-0.0229862 0.00726943 0)
(-0.0251994 0.00731813 0)
(-0.0273943 0.00731142 0)
(-0.0295411 0.00724604 0)
(-0.0316421 0.00711002 0)
(-0.0336748 0.00690036 0)
(-0.0356416 0.00660714 0)
(-0.0375258 0.0062251 0)
(-0.0393277 0.00574288 0)
(-0.0410311 0.00515149 0)
(-0.0426297 0.00443762 0)
(-0.0441007 0.00359054 0)
(-0.0454253 0.00259847 0)
(-0.0465679 0.00145439 0)
(-0.0474922 0.000154527 0)
(-0.0481457 -0.00129666 0)
(-0.0484739 -0.00288681 0)
(-0.0484098 -0.00459147 0)
(-0.0478888 -0.00637435 0)
(-0.0468435 -0.00818468 0)
(-0.0452203 -0.00995907 0)
(-0.042978 -0.0116219 0)
(-0.0401043 -0.0130902 0)
(-0.0366143 -0.0142786 0)
(-0.032565 -0.015107 0)
(-0.028047 -0.0155087 0)
(-0.0231935 -0.0154395 0)
(-0.0181624 -0.0148844 0)
(-0.0131386 -0.0138626 0)
(-0.00830379 -0.0124284 0)
(-0.00383849 -0.0106664 0)
(0.000116028 -0.00868387 0)
(0.00344531 -0.00659667 0)
(0.00609851 -0.00451838 0)
(0.00805411 -0.0025447 0)
(0.00935406 -0.000749239 0)
(0.0100455 0.000825003 0)
(0.0102239 0.00215857 0)
(0.00995572 0.00325682 0)
(0.00934725 0.00413454 0)
(0.0084467 0.00481622 0)
(0.00735346 0.00531535 0)
(0.0060876 0.00563861 0)
(0.00475371 0.0057562 0)
(0.0033593 0.00560838 0)
(0.00205736 0.00505507 0)
(0.000890051 0.00388443 0)
(0.000142745 0.00175218 0)
(-0.000168401 0.00164498 0)
(-0.00113495 0.00411714 0)
(-0.00272919 0.00582378 0)
(-0.0046185 0.00700352 0)
(-0.00676885 0.00776046 0)
(-0.00900645 0.00827399 0)
(-0.0113581 0.00861134 0)
(-0.0137327 0.00887314 0)
(-0.0161683 0.00907745 0)
(-0.0186063 0.00926194 0)
(-0.0210748 0.00941299 0)
(-0.0235276 0.00953625 0)
(-0.0259807 0.00961042 0)
(-0.0283973 0.00963326 0)
(-0.0307891 0.00958901 0)
(-0.033132 0.00947729 0)
(-0.0354414 0.00928922 0)
(-0.037708 0.00902521 0)
(-0.0399527 0.00867764 0)
(-0.0421768 0.00824239 0)
(-0.0444013 0.00770712 0)
(-0.0466282 0.0070598 0)
(-0.048868 0.00628163 0)
(-0.0511098 0.00535395 0)
(-0.0533408 0.00425465 0)
(-0.0555222 0.00296425 0)
(-0.0576042 0.00146491 0)
(-0.059508 -0.00025338 0)
(-0.0611403 -0.00219152 0)
(-0.0623832 -0.00433496 0)
(-0.0631116 -0.00665156 0)
(-0.0631924 -0.00908677 0)
(-0.062505 -0.0115638 0)
(-0.0609456 -0.0139833 0)
(-0.0584484 -0.0162287 0)
(-0.054988 -0.0181727 0)
(-0.0505976 -0.019688 0)
(-0.0453644 -0.0206591 0)
(-0.0394406 -0.0209966 0)
(-0.0330264 -0.0206487 0)
(-0.0263721 -0.0196126 0)
(-0.0197442 -0.0179387 0)
(-0.0134203 -0.0157292 0)
(-0.00764113 -0.0131283 0)
(-0.00261133 -0.0103046 0)
(0.00154816 -0.00743139 0)
(0.00477265 -0.00466269 0)
(0.00709012 -0.00212042 0)
(0.00855839 0.000118474 0)
(0.00930213 0.00201735 0)
(0.00942507 0.00357736 0)
(0.00907391 0.00482043 0)
(0.0083319 0.00578118 0)
(0.00732914 0.00648626 0)
(0.00610667 0.00694831 0)
(0.00478703 0.00714039 0)
(0.00338749 0.00698795 0)
(0.00207285 0.00632523 0)
(0.000892285 0.00487871 0)
(0.000140392 0.00221702 0)
(-0.000196814 0.002262 0)
(-0.00130903 0.00551852 0)
(-0.00312803 0.00770582 0)
(-0.0052636 0.00916886 0)
(-0.00767757 0.0100921 0)
(-0.010171 0.0107031 0)
(-0.0127781 0.0111008 0)
(-0.0153959 0.0114011 0)
(-0.0180689 0.0116299 0)
(-0.0207307 0.0118265 0)
(-0.0234135 0.0119773 0)
(-0.0260669 0.0120878 0)
(-0.0287133 0.0121381 0)
(-0.0313186 0.0121293 0)
(-0.0339077 0.0120512 0)
(-0.0364696 0.0119101 0)
(-0.0390419 0.0117046 0)
(-0.0416383 0.0114419 0)
(-0.0443088 0.0111193 0)
(-0.0470828 0.0107346 0)
(-0.0500116 0.0102742 0)
(-0.0531228 0.00972067 0)
(-0.0564496 0.00904504 0)
(-0.0599939 0.00821352 0)
(-0.0637455 0.00718363 0)
(-0.0676518 0.00591056 0)
(-0.0716325 0.00434766 0)
(-0.0755588 0.00245474 0)
(-0.0792706 0.000203057 0)
(-0.0825692 -0.00241447 0)
(-0.085242 -0.005377 0)
(-0.0870669 -0.00862789 0)
(-0.0878403 -0.0120733 0)
(-0.0873844 -0.0155816 0)
(-0.0855722 -0.0189906 0)
(-0.0823309 -0.0221151 0)
(-0.0776614 -0.0247623 0)
(-0.0716368 -0.0267461 0)
(-0.0644166 -0.027907 0)
(-0.0562346 -0.02813 0)
(-0.0474044 -0.0273633 0)
(-0.0382876 -0.0256308 0)
(-0.0292842 -0.0230372 0)
(-0.0207765 -0.0197618 0)
(-0.0131129 -0.0160378 0)
(-0.00654234 -0.0121242 0)
(-0.00122377 -0.00826786 0)
(0.00282013 -0.00467457 0)
(0.00564091 -0.00148534 0)
(0.00739288 0.00122587 0)
(0.00823179 0.00344659 0)
(0.00836552 0.00520574 0)
(0.00793599 0.0065537 0)
(0.00712461 0.00753896 0)
(0.00601133 0.00818894 0)
(0.00474867 0.00848685 0)
(0.00337349 0.00834861 0)
(0.00206634 0.00758476 0)
(0.000887174 0.00586299 0)
(0.000137906 0.00266965 0)
(-0.000222576 0.0029656 0)
(-0.00146944 0.00710278 0)
(-0.00349605 0.00981835 0)
(-0.00585838 0.0115829 0)
(-0.00851444 0.0126762 0)
(-0.0112417 0.0133808 0)
(-0.0140813 0.0138324 0)
(-0.0169188 0.0141625 0)
(-0.0198055 0.0144062 0)
(-0.0226678 0.014604 0)
(-0.0255442 0.0147444 0)
(-0.0283829 0.0148347 0)
(-0.0312172 0.0148606 0)
(-0.0340223 0.014831 0)
(-0.0368446 0.014747 0)
(-0.0396963 0.0146275 0)
(-0.0426486 0.0144837 0)
(-0.04575 0.0143334 0)
(-0.0490916 0.014181 0)
(-0.0527419 0.0140267 0)
(-0.0567913 0.013853 0)
(-0.0612989 0.0136315 0)
(-0.0663208 0.013314 0)
(-0.071865 0.012838 0)
(-0.0779078 0.0121231 0)
(-0.0843576 0.0110783 0)
(-0.0910696 0.00960614 0)
(-0.0978271 0.00761642 0)
(-0.104367 0.00503801 0)
(-0.110382 0.00183544 0)
(-0.115559 -0.00198025 0)
(-0.119586 -0.0063422 0)
(-0.12219 -0.0111273 0)
(-0.123135 -0.0161588 0)
(-0.122251 -0.0212162 0)
(-0.119424 -0.0260457 0)
(-0.114618 -0.0303769 0)
(-0.107875 -0.0339383 0)
(-0.0993312 -0.0364799 0)
(-0.0892174 -0.0377958 0)
(-0.0778744 -0.0377507 0)
(-0.065733 -0.0363039 0)
(-0.0533102 -0.0335278 0)
(-0.0411517 -0.0296128 0)
(-0.0298006 -0.0248537 0)
(-0.0197084 -0.0196151 0)
(-0.0112104 -0.0142788 0)
(-0.00445367 -0.00918879 0)
(0.000557486 -0.00460382 0)
(0.00398565 -0.000676945 0)
(0.00604343 0.00254106 0)
(0.00702084 0.00507844 0)
(0.00714794 0.00700551 0)
(0.00668649 0.00840423 0)
(0.00578164 0.00933001 0)
(0.00463574 0.00978882 0)
(0.00332036 0.00969658 0)
(0.00204119 0.00884647 0)
(0.000875069 0.00685294 0)
(0.000134443 0.00312454 0)
(-0.000247451 0.00375125 0)
(-0.00162 0.00885771 0)
(-0.00383757 0.0121432 0)
(-0.00640733 0.0142236 0)
(-0.00928371 0.0154878 0)
(-0.0122231 0.0162802 0)
(-0.015273 0.0167775 0)
(-0.018309 0.017128 0)
(-0.0213891 0.017377 0)
(-0.0244348 0.0175674 0)
(-0.027493 0.0176923 0)
(-0.0305149 0.0177646 0)
(-0.033551 0.0177814 0)
(-0.0365944 0.0177663 0)
(-0.0397235 0.0177395 0)
(-0.0429863 0.0177395 0)
(-0.0465006 0.0177962 0)
(-0.0503633 0.0179417 0)
(-0.0547182 0.0181891 0)
(-0.0596823 0.0185384 0)
(-0.0653893 0.0189625 0)
(-0.0719275 0.0194103 0)
(-0.0793628 0.019797 0)
(-0.0876835 0.0200073 0)
(-0.0968133 0.0198941 0)
(-0.106571 0.01929 0)
(-0.116695 0.018021 0)
(-0.126834 0.0159312 0)
(-0.136597 0.0129053 0)
(-0.145572 0.00889161 0)
(-0.153371 0.00391284 0)
(-0.159646 -0.0019302 0)
(-0.164107 -0.00846613 0)
(-0.166516 -0.0154627 0)
(-0.166695 -0.0226401 0)
(-0.164508 -0.0296814 0)
(-0.159882 -0.0362459 0)
(-0.152796 -0.0419808 0)
(-0.143317 -0.0465406 0)
(-0.131604 -0.0496095 0)
(-0.117946 -0.0509333 0)
(-0.102764 -0.0503552 0)
(-0.0866286 -0.0478539 0)
(-0.0702197 -0.0435711 0)
(-0.0542916 -0.0378202 0)
(-0.0395665 -0.0310619 0)
(-0.0266634 -0.0238436 0)
(-0.0159761 -0.0167136 0)
(-0.00766914 -0.0101312 0)
(-0.00163875 -0.00440519 0)
(0.0023618 0.00032106 0)
(0.00471464 0.00404891 0)
(0.00576864 0.00686521 0)
(0.00590203 0.00889751 0)
(0.00536053 0.0102472 0)
(0.00442468 0.0109621 0)
(0.00322269 0.0109737 0)
(0.00199988 0.0100693 0)
(0.000859879 0.00781919 0)
(0.000131593 0.00356473 0)
(-0.000269332 0.00460935 0)
(-0.00175498 0.0107643 0)
(-0.00414473 0.0146572 0)
(-0.00690121 0.0170667 0)
(-0.00997605 0.0185031 0)
(-0.0131065 0.0193789 0)
(-0.0163467 0.0199157 0)
(-0.0195631 0.0202795 0)
(-0.0228217 0.0205279 0)
(-0.0260412 0.0207079 0)
(-0.0292806 0.0208219 0)
(-0.0325003 0.020894 0)
(-0.0357759 0.0209411 0)
(-0.0391295 0.0210109 0)
(-0.0426843 0.0211521 0)
(-0.0465383 0.0214309 0)
(-0.0508695 0.021902 0)
(-0.0558351 0.0226138 0)
(-0.0616398 0.0235863 0)
(-0.0684507 0.0248116 0)
(-0.0764371 0.0262382 0)
(-0.0856941 0.0277687 0)
(-0.0962574 0.0292489 0)
(-0.108037 0.0304706 0)
(-0.120832 0.0311792 0)
(-0.134298 0.0310979 0)
(-0.147998 0.0299626 0)
(-0.161429 0.0275622 0)
(-0.1741 0.0237722 0)
(-0.185558 0.0185715 0)
(-0.195435 0.0120401 0)
(-0.203439 0.00434427 0)
(-0.209349 -0.00428325 0)
(-0.212993 -0.0135601 0)
(-0.214232 -0.0231669 0)
(-0.212936 -0.032753 0)
(-0.208993 -0.0419399 0)
(-0.202299 -0.0503242 0)
(-0.192795 -0.0574852 0)
(-0.180487 -0.0630008 0)
(-0.165501 -0.0664765 0)
(-0.14812 -0.0675897 0)
(-0.128831 -0.0661449 0)
(-0.108333 -0.0621351 0)
(-0.0875271 -0.0557898 0)
(-0.067415 -0.0475913 0)
(-0.0489947 -0.0382332 0)
(-0.0330693 -0.0285178 0)
(-0.0201446 -0.0192108 0)
(-0.0103247 -0.0109022 0)
(-0.00341046 -0.00393434 0)
(0.00105212 0.00160287 0)
(0.00355402 0.005789 0)
(0.00463085 0.00880424 0)
(0.0046739 0.010817 0)
(0.00408072 0.0119437 0)
(0.00306662 0.0121548 0)
(0.00193831 0.011251 0)
(0.000840423 0.00877175 0)
(0.000128806 0.00400266 0)
(-0.000289871 0.00553795 0)
(-0.00187808 0.0128147 0)
(-0.00442235 0.0173486 0)
(-0.00734628 0.0200987 0)
(-0.0105991 0.0217083 0)
(-0.0139016 0.0226636 0)
(-0.0173144 0.0232349 0)
(-0.0206971 0.0236077 0)
(-0.0241244 0.0238543 0)
(-0.027516 0.0240294 0)
(-0.0309475 0.024151 0)
(-0.0343963 0.0242628 0)
(-0.0379732 0.0244127 0)
(-0.0417419 0.0246833 0)
(-0.0458846 0.0251631 0)
(-0.050563 0.0259535 0)
(-0.056027 0.0271378 0)
(-0.0625004 0.0287788 0)
(-0.070247 0.0308937 0)
(-0.0794695 0.0334483 0)
(-0.09034 0.0363359 0)
(-0.102904 0.039369 0)
(-0.117087 0.04227 0)
(-0.132622 0.0446827 0)
(-0.149089 0.0462037 0)
(-0.165916 0.0464381 0)
(-0.18249 0.0450629 0)
(-0.198218 0.0418796 0)
(-0.21261 0.0368345 0)
(-0.2253 0.0300073 0)
(-0.236057 0.0215799 0)
(-0.244742 0.0118018 0)
(-0.251288 0.000960471 0)
(-0.255646 -0.010637 0)
(-0.257765 -0.0226707 0)
(-0.257553 -0.034805 0)
(-0.254875 -0.046679 0)
(-0.249546 -0.0578947 0)
(-0.241353 -0.0680078 0)
(-0.230089 -0.0765286 0)
(-0.215611 -0.0829367 0)
(-0.197913 -0.0867208 0)
(-0.177209 -0.0874416 0)
(-0.154006 -0.0848222 0)
(-0.129154 -0.0788468 0)
(-0.103808 -0.069849 0)
(-0.0793372 -0.0585397 0)
(-0.0570886 -0.0459418 0)
(-0.038156 -0.0332123 0)
(-0.0231246 -0.0213944 0)
(-0.0120457 -0.0112177 0)
(-0.00448856 -0.0030022 0)
(0.00017598 0.00325474 0)
(0.00268101 0.00777563 0)
(0.0036188 0.0108161 0)
(0.00355517 0.0125961 0)
(0.00283382 0.0131581 0)
(0.00185295 0.0123448 0)
(0.000818369 0.00968508 0)
(0.000127291 0.00442685 0)
(-0.000307073 0.00652223 0)
(-0.0019845 0.0149825 0)
(-0.00466466 0.0201866 0)
(-0.00773642 0.0232876 0)
(-0.0111475 0.0250721 0)
(-0.0146046 0.0261052 0)
(-0.0181749 0.0267092 0)
(-0.0217132 0.0270912 0)
(-0.0253048 0.0273422 0)
(-0.0288751 0.0275294 0)
(-0.032522 0.0276956 0)
(-0.0362495 0.027915 0)
(-0.040215 0.0282801 0)
(-0.0445383 0.0289216 0)
(-0.0494736 0.0299784 0)
(-0.055257 0.0315925 0)
(-0.0622147 0.033874 0)
(-0.0706315 0.0368885 0)
(-0.0808084 0.0406274 0)
(-0.0929407 0.0449906 0)
(-0.107131 0.0497598 0)
(-0.123274 0.0545861 0)
(-0.141063 0.0589959 0)
(-0.159945 0.0624352 0)
(-0.17922 0.0643506 0)
(-0.198111 0.0642888 0)
(-0.215928 0.0619743 0)
(-0.232124 0.057336 0)
(-0.246365 0.0504824 0)
(-0.258492 0.0416494 0)
(-0.268505 0.0311421 0)
(-0.276487 0.0192876 0)
(-0.282568 0.00640384 0)
(-0.286861 -0.00721427 0)
(-0.289434 -0.0212927 0)
(-0.290269 -0.0355658 0)
(-0.28925 -0.0497529 0)
(-0.286144 -0.0635334 0)
(-0.28062 -0.0765166 0)
(-0.272258 -0.0882232 0)
(-0.260612 -0.0980727 0)
(-0.245283 -0.105404 0)
(-0.226038 -0.10952 0)
(-0.20293 -0.109789 0)
(-0.176443 -0.105777 0)
(-0.147567 -0.0974208 0)
(-0.117806 -0.0851701 0)
(-0.0889974 -0.0700524 0)
(-0.0630077 -0.0535611 0)
(-0.0412778 -0.0373413 0)
(-0.0245113 -0.0227911 0)
(-0.0125711 -0.0107347 0)
(-0.00477987 -0.00141762 0)
(-0.000185899 0.00536823 0)
(0.00207013 0.00997483 0)
(0.00279015 0.0127691 0)
(0.00250258 0.0139104 0)
(0.0017391 0.0133251 0)
(0.000794177 0.0105604 0)
(0.000127438 0.00484806 0)
(-0.00032272 0.00756432 0)
(-0.00207821 0.0172668 0)
(-0.00487677 0.0231684 0)
(-0.0080784 0.0266313 0)
(-0.0116297 0.0285938 0)
(-0.0152261 0.0297056 0)
(-0.0189414 0.0303443 0)
(-0.0226287 0.0307418 0)
(-0.0263858 0.0310127 0)
(-0.0301494 0.0312447 0)
(-0.0340467 0.0315163 0)
(-0.0381191 0.0319469 0)
(-0.0425829 0.0326885 0)
(-0.0476265 0.0339331 0)
(-0.0535857 0.0358777 0)
(-0.0607743 0.0387029 0)
(-0.0695853 0.0425329 0)
(-0.0803382 0.0474078 0)
(-0.0933204 0.0532464 0)
(-0.108636 0.0598132 0)
(-0.126201 0.0666898 0)
(-0.145624 0.0732762 0)
(-0.166249 0.0788442 0)
(-0.18719 0.0826504 0)
(-0.207517 0.0840826 0)
(-0.22639 0.0827744 0)
(-0.243218 0.0786452 0)
(-0.257672 0.0718598 0)
(-0.269692 0.0627494 0)
(-0.279406 0.0517224 0)
(-0.287079 0.0391952 0)
(-0.293021 0.0255429 0)
(-0.29755 0.0110778 0)
(-0.300927 -0.00395572 0)
(-0.303339 -0.0193679 0)
(-0.304858 -0.0350044 0)
(-0.305433 -0.0507134 0)
(-0.304858 -0.0663136 0)
(-0.302773 -0.0815481 0)
(-0.298649 -0.0960477 0)
(-0.29182 -0.109286 0)
(-0.28153 -0.120565 0)
(-0.267038 -0.129016 0)
(-0.24777 -0.133676 0)
(-0.223521 -0.133606 0)
(-0.194671 -0.128116 0)
(-0.162354 -0.117027 0)
(-0.128488 -0.100928 0)
(-0.0955606 -0.0812925 0)
(-0.0661102 -0.0602822 0)
(-0.0420473 -0.0402245 0)
(-0.0241087 -0.0228986 0)
(-0.0118962 -0.00917964 0)
(-0.00430597 0.000945064 0)
(-0.000147751 0.00789342 0)
(0.00170492 0.0122271 0)
(0.00204324 0.0142819 0)
(0.00159109 0.0141281 0)
(0.00077001 0.0113726 0)
(0.000130861 0.005261 0)
(-0.000334608 0.00864351 0)
(-0.0021541 0.019633 0)
(-0.00505269 0.026255 0)
(-0.00836581 0.0300894 0)
(-0.0120398 0.0322346 0)
(-0.0157612 0.0334285 0)
(-0.0196109 0.0341084 0)
(-0.0234429 0.0345346 0)
(-0.0273708 0.034852 0)
(-0.0313486 0.0351788 0)
(-0.0355411 0.0356434 0)
(-0.0400384 0.0364264 0)
(-0.0451268 0.0377558 0)
(-0.0510731 0.0398951 0)
(-0.0582963 0.0430996 0)
(-0.0671771 0.0475755 0)
(-0.0781457 0.0534298 0)
(-0.0915005 0.0606238 0)
(-0.107425 0.0689232 0)
(-0.125809 0.0778533 0)
(-0.146242 0.0866891 0)
(-0.167931 0.0945107 0)
(-0.189842 0.100352 0)
(-0.210839 0.103401 0)
(-0.229953 0.10317 0)
(-0.246497 0.0995614 0)
(-0.260169 0.0928129 0)
(-0.27098 0.083384 0)
(-0.279205 0.0718308 0)
(-0.285257 0.0587022 0)
(-0.28962 0.0444758 0)
(-0.292763 0.0295245 0)
(-0.295106 0.0141132 0)
(-0.296988 -0.00159254 0)
(-0.298658 -0.0175029 0)
(-0.300261 -0.0335828 0)
(-0.301831 -0.0498183 0)
(-0.303263 -0.0661891 0)
(-0.304294 -0.0826182 0)
(-0.304459 -0.0989295 0)
(-0.303079 -0.114775 0)
(-0.299243 -0.129587 0)
(-0.291865 -0.142512 0)
(-0.279792 -0.152427 0)
(-0.262004 -0.157987 0)
(-0.237914 -0.157825 0)
(-0.207696 -0.150851 0)
(-0.172601 -0.136696 0)
(-0.135052 -0.116122 0)
(-0.0983687 -0.0912361 0)
(-0.0659739 -0.0651752 0)
(-0.0402899 -0.0411301 0)
(-0.0219843 -0.021301 0)
(-0.0101558 -0.00635043 0)
(-0.00328396 0.00404447 0)
(0.000184897 0.0106726 0)
(0.0014126 0.014123 0)
(0.00139887 0.0146947 0)
(0.000746538 0.0121134 0)
(0.000138718 0.00567766 0)
(-0.000344764 0.00976693 0)
(-0.00221636 0.0220886 0)
(-0.00519726 0.0294541 0)
(-0.00860457 0.0336722 0)
(-0.0123847 0.0360074 0)
(-0.0162181 0.0372911 0)
(-0.0201932 0.0380242 0)
(-0.0241684 0.038501 0)
(-0.0282762 0.0389053 0)
(-0.0324951 0.0393984 0)
(-0.0370353 0.0401751 0)
(-0.0420458 0.0414951 0)
(-0.0478911 0.0436757 0)
(-0.0549176 0.047055 0)
(-0.0636166 0.0519345 0)
(-0.0744063 0.0585129 0)
(-0.0876985 0.0668222 0)
(-0.103682 0.0766575 0)
(-0.122318 0.0875172 0)
(-0.143143 0.0985681 0)
(-0.165315 0.108701 0)
(-0.187629 0.116697 0)
(-0.208792 0.121498 0)
(-0.22765 0.122444 0)
(-0.243446 0.119389 0)
(-0.25586 0.112643 0)
(-0.265004 0.102818 0)
(-0.271272 0.0906476 0)
(-0.275237 0.0768467 0)
(-0.277507 0.062021 0)
(-0.278666 0.0466293 0)
(-0.279202 0.0309794 0)
(-0.279515 0.0152516 0)
(-0.279902 -0.000477909 0)
(-0.280592 -0.0162059 0)
(-0.281739 -0.0319859 0)
(-0.283444 -0.0479018 0)
(-0.285728 -0.0640579 0)
(-0.288512 -0.0805391 0)
(-0.291554 -0.0973818 0)
(-0.294398 -0.114493 0)
(-0.296291 -0.131583 0)
(-0.296153 -0.148041 0)
(-0.292581 -0.162872 0)
(-0.283969 -0.174626 0)
(-0.26876 -0.181488 0)
(-0.245839 -0.181495 0)
(-0.215064 -0.173009 0)
(-0.177752 -0.155366 0)
(-0.136941 -0.129586 0)
(-0.0969981 -0.0987171 0)
(-0.0624335 -0.0672366 0)
(-0.036146 -0.039459 0)
(-0.0184285 -0.0177231 0)
(-0.00771501 -0.00233127 0)
(-0.00194989 0.00766948 0)
(0.00053813 0.0132047 0)
(0.00114125 0.0149224 0)
(0.000721986 0.012751 0)
(0.00015242 0.00609904 0)
(-0.000350482 0.0109066 0)
(-0.00225858 0.0245884 0)
(-0.00530252 0.0327156 0)
(-0.00878549 0.0373281 0)
(-0.0126548 0.0398623 0)
(-0.0165868 0.0412464 0)
(-0.0206783 0.0420501 0)
(-0.0247952 0.0426078 0)
(-0.0290925 0.043153 0)
(-0.0335803 0.0439045 0)
(-0.0385217 0.0451418 0)
(-0.0441326 0.0472195 0)
(-0.050857 0.0505521 0)
(-0.0591127 0.0555437 0)
(-0.0694355 0.0625116 0)
(-0.0822293 0.0715895 0)
(-0.0978051 0.0826456 0)
(-0.116132 0.0951901 0)
(-0.136819 0.108326 0)
(-0.158965 0.120774 0)
(-0.181298 0.131058 0)
(-0.20234 0.137818 0)
(-0.220797 0.140155 0)
(-0.235781 0.137817 0)
(-0.246976 0.131161 0)
(-0.254551 0.120955 0)
(-0.259049 0.108137 0)
(-0.261177 0.093614 0)
(-0.261677 0.0781378 0)
(-0.261197 0.0622552 0)
(-0.260256 0.0463171 0)
(-0.259223 0.0305124 0)
(-0.258355 0.0149172 0)
(-0.257814 -0.00047035 0)
(-0.25773 -0.0156973 0)
(-0.258208 -0.0308502 0)
(-0.259365 -0.0460413 0)
(-0.261313 -0.0614209 0)
(-0.264154 -0.0771577 0)
(-0.267917 -0.0934401 0)
(-0.272497 -0.110408 0)
(-0.277542 -0.128102 0)
(-0.282341 -0.146309 0)
(-0.285722 -0.164441 0)
(-0.286017 -0.181341 0)
(-0.281161 -0.195222 0)
(-0.268972 -0.203663 0)
(-0.247707 -0.203955 0)
(-0.216772 -0.193713 0)
(-0.177552 -0.171914 0)
(-0.133814 -0.140009 0)
(-0.0912709 -0.10243 0)
(-0.0556416 -0.065571 0)
(-0.0300592 -0.0347765 0)
(-0.0139807 -0.0122777 0)
(-0.00497209 0.00261913 0)
(-0.000697349 0.0112207 0)
(0.00077809 0.0146823 0)
(0.000687865 0.0132547 0)
(0.000172262 0.00653663 0)
(-0.000354178 0.0120754 0)
(-0.00228531 0.027149 0)
(-0.00537284 0.0360584 0)
(-0.008913 0.04108 0)
(-0.012854 0.043826 0)
(-0.0168713 0.0453261 0)
(-0.02107 0.0462242 0)
(-0.0253275 0.0469031 0)
(-0.0298246 0.0476585 0)
(-0.0346091 0.0487832 0)
(-0.0400023 0.0506596 0)
(-0.0462894 0.0537489 0)
(-0.0539864 0.05856 0)
(-0.0635595 0.0655372 0)
(-0.0755434 0.0749587 0)
(-0.0902567 0.086806 0)
(-0.107813 0.100666 0)
(-0.127854 0.115634 0)
(-0.149562 0.130322 0)
(-0.171604 0.14301 0)
(-0.192426 0.152011 0)
(-0.210543 0.1561 0)
(-0.224955 0.154824 0)
(-0.235271 0.148525 0)
(-0.24173 0.138114 0)
(-0.244979 0.124751 0)
(-0.245888 0.109564 0)
(-0.245308 0.0934712 0)
(-0.243968 0.0771143 0)
(-0.242382 0.0608707 0)
(-0.240875 0.0449199 0)
(-0.239596 0.0293091 0)
(-0.238604 0.0140218 0)
(-0.237898 -0.000989962 0)
(-0.237485 -0.015777 0)
(-0.237398 -0.0304039 0)
(-0.237732 -0.0449449 0)
(-0.238632 -0.0595197 0)
(-0.24031 -0.0742879 0)
(-0.242994 -0.0894854 0)
(-0.246892 -0.105381 0)
(-0.252082 -0.122271 0)
(-0.258389 -0.140332 0)
(-0.265215 -0.159513 0)
(-0.271365 -0.17925 0)
(-0.274961 -0.198278 0)
(-0.273478 -0.214381 0)
(-0.264096 -0.224449 0)
(-0.244333 -0.224802 0)
(-0.21313 -0.212154 0)
(-0.171945 -0.185113 0)
(-0.12557 -0.145893 0)
(-0.0813183 -0.101118 0)
(-0.0461757 -0.0594815 0)
(-0.0228056 -0.027231 0)
(-0.00927642 -0.0053303 0)
(-0.00247552 0.00771731 0)
(0.000240218 0.0137703 0)
(0.000626031 0.0135573 0)
(0.000197156 0.00698887 0)
(-0.000352421 0.013236 0)
(-0.00228823 0.0297111 0)
(-0.00539741 0.0394166 0)
(-0.00897405 0.0448602 0)
(-0.0129677 0.0478321 0)
(-0.0170549 0.0494666 0)
(-0.0213493 0.050488 0)
(-0.025743 0.0513368 0)
(-0.030445 0.0523844 0)
(-0.0355461 0.0540145 0)
(-0.0414271 0.0567267 0)
(-0.0484391 0.0610928 0)
(-0.0571521 0.0676986 0)
(-0.0680443 0.0769824 0)
(-0.0815896 0.0891051 0)
(-0.0979404 0.103787 0)
(-0.116923 0.120209 0)
(-0.137785 0.136946 0)
(-0.159296 0.152108 0)
(-0.179822 0.16367 0)
(-0.197777 0.170007 0)
(-0.211961 0.170336 0)
(-0.221898 0.164873 0)
(-0.227797 0.154617 0)
(-0.230416 0.140958 0)
(-0.230745 0.125277 0)
(-0.229781 0.108697 0)
(-0.228314 0.0919719 0)
(-0.226883 0.075507 0)
(-0.225744 0.0594464 0)
(-0.224964 0.0437849 0)
(-0.224464 0.0284519 0)
(-0.224125 0.0133795 0)
(-0.223818 -0.00148082 0)
(-0.223462 -0.016141 0)
(-0.223031 -0.0306052 0)
(-0.222587 -0.0448708 0)
(-0.222267 -0.05898 0)
(-0.222311 -0.0730181 0)
(-0.223033 -0.0871793 0)
(-0.224815 -0.101741 0)
(-0.22804 -0.117113 0)
(-0.232989 -0.133729 0)
(-0.239684 -0.151998 0)
(-0.247655 -0.172007 0)
(-0.255722 -0.193298 0)
(-0.261791 -0.214411 0)
(-0.262916 -0.232672 0)
(-0.255578 -0.244065 0)
(-0.236617 -0.243772 0)
(-0.204479 -0.227446 0)
(-0.161 -0.193472 0)
(-0.112295 -0.145624 0)
(-0.067742 -0.0936305 0)
(-0.0350661 -0.0490284 0)
(-0.0153681 -0.0173244 0)
(-0.0050504 0.00206985 0)
(-0.000574865 0.0118999 0)