/*--------------------------------*- C++ -*----------------------------------*\
| =========                 |                                                 |
| \\      /  F ield         | OpenFOAM: The Open Source CFD Toolbox           |
|  \\    /   O peration     | Version:  2406                                  |
|   \\  /    A nd           | Website:  www.openfoam.com                      |
|    \\/     M anipulation  |                                                 |
\*---------------------------------------------------------------------------*/
FoamFile
{
    version     2.0;
    format      ascii;
    arch        "LSB;label=32;scalar=64";
    class       volVectorField;
    location    "26.8";
    object      U;
}
// * * * * * * * * * * * * * * * * * * * * * * * * * * * * * * * * * * * * * //

dimensions      [0 1 -1 0 0 0 0];

internalField   nonuniform List<vector> 
3600
(
(3.86497e-05 -3.79563e-05 0)
(0.00029913 -0.00012119 0)
(0.000708588 -0.000149914 0)
(0.00111431 -0.000147337 0)
(0.00150073 -0.000129869 0)
(0.00180995 -0.000108291 0)
(0.00205806 -8.80111e-05 0)
(0.00222631 -6.9237e-05 0)
(0.00232559 -5.19625e-05 0)
(0.0023404 -3.28892e-05 0)
(0.00226194 -1.02939e-05 0)
(0.00206396 1.88979e-05 0)
(0.00171952 5.59216e-05 0)
(0.00119221 0.000103191 0)
(0.000441701 0.000162579 0)
(-0.000579506 0.000237128 0)
(-0.00192401 0.000328958 0)
(-0.00364577 0.000439515 0)
(-0.005795 0.000567623 0)
(-0.00840968 0.000709489 0)
(-0.011509 0.000858555 0)
(-0.015083 0.00100793 0)
(-0.0190835 0.001151 0)
(-0.023413 0.00127969 0)
(-0.0279198 0.00137989 0)
(-0.0323975 0.00142941 0)
(-0.0365932 0.00140026 0)
(-0.0402229 0.00126558 0)
(-0.042994 0.00100696 0)
(-0.0446293 0.000620057 0)
(-0.0448936 0.000116521 0)
(-0.0436149 -0.000476308 0)
(-0.0407063 -0.00111784 0)
(-0.0361792 -0.00175721 0)
(-0.0301562 -0.00233754 0)
(-0.022873 -0.00280067 0)
(-0.0146765 -0.00309348 0)
(-0.00600659 -0.00317484 0)
(0.00262801 -0.0030233 0)
(0.0106976 -0.00264366 0)
(0.0176967 -0.00207064 0)
(0.0232127 -0.00136815 0)
(0.0269671 -0.000620783 0)
(0.0288702 7.9494e-05 0)
(0.0290133 0.000653656 0)
(0.0276692 0.00105085 0)
(0.0252127 0.00126068 0)
(0.0220805 0.00130653 0)
(0.0186618 0.00123536 0)
(0.0152912 0.00109522 0)
(0.0121702 0.000928298 0)
(0.00943833 0.000759897 0)
(0.00710998 0.000608704 0)
(0.00520083 0.000479411 0)
(0.00362682 0.000379722 0)
(0.00237273 0.000299541 0)
(0.0013405 0.00023699 0)
(0.000573524 0.000153198 0)
(6.58335e-05 5.01113e-05 0)
(-7.50959e-05 -7.94697e-05 0)
(0.000124043 -0.000300394 0)
(0.000643631 -0.000641314 0)
(0.00137165 -0.00074641 0)
(0.0020597 -0.000709725 0)
(0.00267199 -0.000602377 0)
(0.00310458 -0.000458718 0)
(0.00335816 -0.000305093 0)
(0.00338485 -0.00013911 0)
(0.00317225 4.01119e-05 0)
(0.00266721 0.000251251 0)
(0.00181552 0.000506153 0)
(0.000532485 0.000822997 0)
(-0.00127627 0.00121131 0)
(-0.00372137 0.00168372 0)
(-0.00692053 0.00224797 0)
(-0.0109945 0.00291214 0)
(-0.0160568 0.00367484 0)
(-0.0221943 0.00452449 0)
(-0.0294475 0.00543319 0)
(-0.0377822 0.00635891 0)
(-0.0470676 0.00724294 0)
(-0.0570594 0.00801027 0)
(-0.0674056 0.0085697 0)
(-0.0776688 0.00882409 0)
(-0.087367 0.00868433 0)
(-0.0960159 0.00808535 0)
(-0.103169 0.00699515 0)
(-0.108445 0.00541917 0)
(-0.111541 0.00339849 0)
(-0.112243 0.00100668 0)
(-0.110422 -0.00165555 0)
(-0.106035 -0.00446417 0)
(-0.0991298 -0.00727666 0)
(-0.0898411 -0.00993568 0)
(-0.0784013 -0.0122756 0)
(-0.0651403 -0.0141303 0)
(-0.0504902 -0.0153464 0)
(-0.0349758 -0.0157985 0)
(-0.0192053 -0.0154092 0)
(-0.00383532 -0.0141674 0)
(0.0104586 -0.0121436 0)
(0.0230468 -0.00949381 0)
(0.0333839 -0.00645058 0)
(0.0410864 -0.00329796 0)
(0.0459483 -0.000329139 0)
(0.0480023 0.00219624 0)
(0.0474785 0.00410107 0)
(0.0448257 0.00531006 0)
(0.0405903 0.00586043 0)
(0.0354063 0.00586678 0)
(0.0298193 0.00549249 0)
(0.0243236 0.00489382 0)
(0.0191979 0.00421091 0)
(0.0146644 0.00353209 0)
(0.0107234 0.00292636 0)
(0.00742987 0.0023922 0)
(0.00466051 0.00192548 0)
(0.00250411 0.00140514 0)
(0.000903024 0.000814931 0)
(8.96958e-05 8.74159e-05 0)
(0.000155889 -0.000712694 0)
(0.000744678 -0.00136459 0)
(0.00152056 -0.0015339 0)
(0.00218379 -0.00139756 0)
(0.00268308 -0.00110849 0)
(0.00289031 -0.000720196 0)
(0.00277983 -0.000286145 0)
(0.0022725 0.000206498 0)
(0.00131185 0.000765653 0)
(-0.000206079 0.00143818 0)
(-0.00240078 0.00225692 0)
(-0.00542642 0.00326576 0)
(-0.00945333 0.00448855 0)
(-0.0146615 0.00594928 0)
(-0.0212264 0.0076543 0)
(-0.0292947 0.00959732 0)
(-0.0389578 0.0117375 0)
(-0.0502064 0.0139953 0)
(-0.0628962 0.0162408 0)
(-0.07672 0.0182995 0)
(-0.0912232 0.0199643 0)
(-0.105847 0.0210283 0)
(-0.120001 0.021318 0)
(-0.133122 0.0207211 0)
(-0.144729 0.0191928 0)
(-0.154433 0.0167509 0)
(-0.161946 0.0134619 0)
(-0.167061 0.00942848 0)
(-0.169643 0.0047792 0)
(-0.169606 -0.000335901 0)
(-0.16691 -0.00574812 0)
(-0.161554 -0.0112685 0)
(-0.153582 -0.0166876 0)
(-0.143087 -0.0217743 0)
(-0.130228 -0.0262801 0)
(-0.115242 -0.0299468 0)
(-0.0984611 -0.0325238 0)
(-0.0803168 -0.0337902 0)
(-0.0613449 -0.0335871 0)
(-0.0421658 -0.0318481 0)
(-0.0234637 -0.0286295 0)
(-0.00593138 -0.0241237 0)
(0.00976781 -0.0186563 0)
(0.0230774 -0.012656 0)
(0.033568 -0.00660523 0)
(0.04101 -0.000979911 0)
(0.0453485 0.00381758 0)
(0.0467661 0.0075035 0)
(0.0456039 0.00995535 0)
(0.0424077 0.011207 0)
(0.0377623 0.011437 0)
(0.0323287 0.0109026 0)
(0.02661 0.00989601 0)
(0.0210796 0.00866566 0)
(0.0159342 0.00741311 0)
(0.0114022 0.00621716 0)
(0.00743308 0.00509426 0)
(0.00421871 0.00387664 0)
(0.00168358 0.00247283 0)
(0.000255642 0.000724749 0)
(0.00015642 -0.00112109 0)
(0.000685013 -0.00202233 0)
(0.00130121 -0.00217255 0)
(0.00169943 -0.00183775 0)
(0.00181143 -0.00125859 0)
(0.00149719 -0.000494505 0)
(0.000692029 0.000382494 0)
(-0.000722509 0.00140904 0)
(-0.00286799 0.00261076 0)
(-0.00591451 0.00407299 0)
(-0.0100631 0.00585515 0)
(-0.0155406 0.00802666 0)
(-0.0225841 0.0106167 0)
(-0.0314078 0.0136391 0)
(-0.0421758 0.0170591 0)
(-0.0549433 0.0207934 0)
(-0.0696125 0.0246763 0)
(-0.0858842 0.0284616 0)
(-0.103272 0.0318332 0)
(-0.121154 0.0344621 0)
(-0.138869 0.0360634 0)
(-0.155808 0.0364463 0)
(-0.171466 0.035523 0)
(-0.185461 0.033298 0)
(-0.197522 0.0298399 0)
(-0.207458 0.0252599 0)
(-0.215142 0.0196909 0)
(-0.220478 0.0132803 0)
(-0.223393 0.00618445 0)
(-0.223825 -0.00142813 0)
(-0.22172 -0.00937281 0)
(-0.217031 -0.0174406 0)
(-0.209729 -0.0253925 0)
(-0.19981 -0.032953 0)
(-0.187317 -0.0398116 0)
(-0.172357 -0.0456277 0)
(-0.155127 -0.050051 0)
(-0.135934 -0.0527484 0)
(-0.115216 -0.0534484 0)
(-0.0935366 -0.0519861 0)
(-0.0715788 -0.0483531 0)
(-0.0500932 -0.0427256 0)
(-0.0298502 -0.0354729 0)
(-0.011549 -0.0271237 0)
(0.00422606 -0.0183062 0)
(0.017082 -0.00966748 0)
(0.0267903 -0.00179389 0)
(0.0333368 0.00484475 0)
(0.036841 0.00994526 0)
(0.0376334 0.0133833 0)
(0.0361307 0.0152288 0)
(0.0329265 0.0157064 0)
(0.0285608 0.0151561 0)
(0.0236487 0.013941 0)
(0.0185605 0.012397 0)
(0.0137271 0.0107297 0)
(0.00923354 0.0090172 0)
(0.00542423 0.00710242 0)
(0.00226475 0.00478033 0)
(0.000383073 0.00174452 0)
(0.000133524 -0.00149379 0)
(0.000495878 -0.00253063 0)
(0.000783593 -0.00254177 0)
(0.00072141 -0.0018794 0)
(0.000215267 -0.000866628 0)
(-0.000880568 0.0004482 0)
(-0.00268698 0.00198765 0)
(-0.00536974 0.00382885 0)
(-0.00913419 0.00602743 0)
(-0.0142232 0.00871489 0)
(-0.0209201 0.0119746 0)
(-0.0295005 0.0158861 0)
(-0.0402178 0.0204509 0)
(-0.0532282 0.0256161 0)
(-0.0685495 0.0312201 0)
(-0.0859791 0.036995 0)
(-0.105087 0.0425514 0)
(-0.125243 0.0474401 0)
(-0.145731 0.0512281 0)
(-0.165861 0.0535864 0)
(-0.18506 0.0543218 0)
(-0.202893 0.0533747 0)
(-0.219058 0.0507838 0)
(-0.233347 0.0466544 0)
(-0.245631 0.0411264 0)
(-0.255818 0.0343572 0)
(-0.263852 0.0265083 0)
(-0.269685 0.0177427 0)
(-0.273276 0.00822396 0)
(-0.27458 -0.00187637 0)
(-0.273541 -0.0123724 0)
(-0.270089 -0.0230511 0)
(-0.264145 -0.0336627 0)
(-0.25562 -0.0439081 0)
(-0.244439 -0.0534341 0)
(-0.230555 -0.0618332 0)
(-0.213987 -0.0686587 0)
(-0.194854 -0.0734523 0)
(-0.173419 -0.0757951 0)
(-0.150118 -0.0753685 0)
(-0.125581 -0.0720293 0)
(-0.100606 -0.0658686 0)
(-0.0761111 -0.0572489 0)
(-0.05302 -0.0467818 0)
(-0.0321659 -0.0352593 0)
(-0.0141611 -0.023534 0)
(0.00061558 -0.0124017 0)
(0.012053 -0.00251474 0)
(0.02019 0.00566575 0)
(0.0252504 0.0118744 0)
(0.0275158 0.0160522 0)
(0.0274495 0.0183304 0)
(0.0255072 0.0190071 0)
(0.0223027 0.0184802 0)
(0.0182744 0.0171644 0)
(0.0139876 0.0153855 0)
(0.00966044 0.013291 0)
(0.00579486 0.0107727 0)
(0.00245304 0.00749995 0)
(0.000420426 0.00300269 0)
(9.17929e-05 -0.00173228 0)
(0.000185174 -0.00269752 0)
(-2.59181e-05 -0.00239808 0)
(-0.000744735 -0.00124796 0)
(-0.00210153 0.000370328 0)
(-0.00424321 0.00244397 0)
(-0.00736834 0.00491079 0)
(-0.011698 0.007905 0)
(-0.0175351 0.01152 0)
(-0.025187 0.0159263 0)
(-0.0349932 0.0212052 0)
(-0.0472134 0.0273964 0)
(-0.0620148 0.0343979 0)
(-0.0793505 0.0419879 0)
(-0.0989421 0.049771 0)
(-0.120236 0.0572286 0)
(-0.142509 0.0637794 0)
(-0.164978 0.0689089 0)
(-0.186945 0.0722457 0)
(-0.20785 0.0735977 0)
(-0.227291 0.072922 0)
(-0.244994 0.0702883 0)
(-0.260788 0.0658334 0)
(-0.274578 0.0597331 0)
(-0.28633 0.0521759 0)
(-0.296044 0.0433515 0)
(-0.303753 0.0334391 0)
(-0.309496 0.0226072 0)
(-0.31331 0.011013 0)
(-0.31521 -0.00118911 0)
(-0.315185 -0.0138392 0)
(-0.313177 -0.0267551 0)
(-0.309086 -0.0397181 0)
(-0.302759 -0.0524531 0)
(-0.294005 -0.0646146 0)
(-0.282607 -0.0757744 0)
(-0.268358 -0.0854259 0)
(-0.251106 -0.0930003 0)
(-0.230819 -0.097914 0)
(-0.207652 -0.0996359 0)
(-0.182017 -0.097786 0)
(-0.154615 -0.0922353 0)
(-0.126433 -0.0831988 0)
(-0.0986472 -0.0712658 0)
(-0.0724819 -0.0573581 0)
(-0.0489877 -0.0425847 0)
(-0.0289016 -0.0280527 0)
(-0.0125378 -0.0146887 0)
(9.67417e-05 -0.00314827 0)
(0.00924708 0.00618155 0)
(0.015205 0.0131477 0)
(0.0183922 0.0177965 0)
(0.0191973 0.0203491 0)
(0.0181786 0.0211737 0)
(0.0157697 0.0206916 0)
(0.0125869 0.0192989 0)
(0.00894683 0.017187 0)
(0.00546733 0.0142994 0)
(0.0023298 0.0101912 0)
(0.000395282 0.00425484 0)
(2.76695e-05 -0.00180244 0)
(-0.000255585 -0.00242746 0)
(-0.00113215 -0.00160966 0)
(-0.00269382 0.000215393 0)
(-0.00512135 0.00264556 0)
(-0.00856144 0.00573415 0)
(-0.0133115 0.00945685 0)
(-0.0196474 0.0140152 0)
(-0.0279656 0.0195347 0)
(-0.0385989 0.0261937 0)
(-0.0518764 0.0340125 0)
(-0.0679325 0.0429019 0)
(-0.086718 0.0525474 0)
(-0.107863 0.0624585 0)
(-0.130753 0.0719696 0)
(-0.154568 0.0803832 0)
(-0.178482 0.0870827 0)
(-0.201748 0.0916473 0)
(-0.223794 0.0938586 0)
(-0.244196 0.09368 0)
(-0.262681 0.0911995 0)
(-0.279085 0.086593 0)
(-0.293358 0.0800821 0)
(-0.305519 0.071911 0)
(-0.315662 0.0623201 0)
(-0.323913 0.0515338 0)
(-0.330423 0.0397479 0)
(-0.33534 0.0271299 0)
(-0.338793 0.0138186 0)
(-0.340873 -6.43651e-05 0)
(-0.34163 -0.0144054 0)
(-0.341042 -0.0290789 0)
(-0.339024 -0.0439306 0)
(-0.335403 -0.0587515 0)
(-0.329921 -0.0732566 0)
(-0.322237 -0.0870593 0)
(-0.311946 -0.0996587 0)
(-0.298613 -0.110436 0)
(-0.281844 -0.11868 0)
(-0.261375 -0.123642 0)
(-0.237187 -0.124641 0)
(-0.209617 -0.121186 0)
(-0.179447 -0.11314 0)
(-0.1479 -0.10084 0)
(-0.116546 -0.0851549 0)
(-0.0870376 -0.0673953 0)
(-0.0608114 -0.0490863 0)
(-0.0387656 -0.0316476 0)
(-0.0211994 -0.0161375 0)
(-0.00787971 -0.00316714 0)
(0.00162566 0.00702666 0)
(0.0078668 0.0144652 0)
(0.0113002 0.0193392 0)
(0.0124839 0.0219905 0)
(0.0118496 0.0228157 0)
(0.0100173 0.0222326 0)
(0.00736792 0.0204415 0)
(0.00457946 0.0174172 0)
(0.00194389 0.0126292 0)
(0.000315101 0.00538144 0)
(-6.42437e-05 -0.00160493 0)
(-0.000844528 -0.00153726 0)
(-0.00256136 4.42703e-05 0)
(-0.00515326 0.00275591 0)
(-0.00887001 0.00623477 0)
(-0.0138567 0.0106343 0)
(-0.0205256 0.0159866 0)
(-0.0291924 0.0225537 0)
(-0.0403181 0.0304612 0)
(-0.0541875 0.0398274 0)
(-0.0710186 0.0505161 0)
(-0.0906969 0.0621978 0)
(-0.112861 0.0742577 0)
(-0.136797 0.08592 0)
(-0.161649 0.096338 0)
(-0.186489 0.104789 0)
(-0.210529 0.110761 0)
(-0.233114 0.113995 0)
(-0.253789 0.114438 0)
(-0.272243 0.112203 0)
(-0.288338 0.107513 0)
(-0.302053 0.100663 0)
(-0.313498 0.0919731 0)
(-0.322852 0.081763 0)
(-0.330358 0.070321 0)
(-0.336269 0.0578936 0)
(-0.340844 0.0446744 0)
(-0.344311 0.0308105 0)
(-0.346869 0.0164043 0)
(-0.348666 0.00152875 0)
(-0.349801 -0.0137634 0)
(-0.350304 -0.029419 0)
(-0.350136 -0.0453692 0)
(-0.349162 -0.0615024 0)
(-0.347146 -0.0776407 0)
(-0.343725 -0.0935043 0)
(-0.338409 -0.108684 0)
(-0.330583 -0.122613 0)
(-0.319552 -0.134555 0)
(-0.304615 -0.143631 0)
(-0.285194 -0.148883 0)
(-0.261002 -0.149402 0)
(-0.232227 -0.144515 0)
(-0.199687 -0.134004 0)
(-0.164885 -0.118305 0)
(-0.129869 -0.0985944 0)
(-0.0969038 -0.0766757 0)
(-0.0679311 -0.0546095 0)
(-0.0441332 -0.0342159 0)
(-0.0257166 -0.0166879 0)
(-0.0122197 -0.0025289 0)
(-0.00284624 0.00825234 0)
(0.00311814 0.0158937 0)
(0.00637989 0.0207768 0)
(0.00745785 0.0233014 0)
(0.00699438 0.0238917 0)
(0.0054294 0.0227366 0)
(0.00345838 0.0198181 0)
(0.00146171 0.0145592 0)
(0.000221364 0.00624301 0)
(-0.000188144 -0.00107758 0)
(-0.00158818 9.2598e-05 0)
(-0.00430967 0.0027044 0)
(-0.00809852 0.00652913 0)
(-0.0132952 0.0113197 0)
(-0.0200386 0.0173601 0)
(-0.0288596 0.0247449 0)
(-0.040076 0.0337636 0)
(-0.0541543 0.0444769 0)
(-0.071232 0.0568422 0)
(-0.0913122 0.0704573 0)
(-0.113947 0.084667 0)
(-0.138458 0.0985458 0)
(-0.163869 0.111118 0)
(-0.189218 0.121498 0)
(-0.213583 0.129063 0)
(-0.236255 0.133468 0)
(-0.256687 0.134636 0)
(-0.274563 0.132695 0)
(-0.289735 0.127933 0)
(-0.302262 0.120727 0)
(-0.312319 0.111502 0)
(-0.320202 0.10067 0)
(-0.32624 0.088603 0)
(-0.330791 0.0756081 0)
(-0.334181 0.061923 0)
(-0.336712 0.0477138 0)
(-0.338632 0.0330895 0)
(-0.34015 0.0181078 0)
(-0.341422 0.00279371 0)
(-0.342566 -0.0128527 0)
(-0.343645 -0.0288384 0)
(-0.344679 -0.0451676 0)
(-0.345609 -0.0618197 0)
(-0.346299 -0.0787312 0)
(-0.346483 -0.0957611 0)
(-0.34575 -0.112657 0)
(-0.343505 -0.129006 0)
(-0.338962 -0.144197 0)
(-0.331166 -0.157385 0)
(-0.319084 -0.167509 0)
(-0.301752 -0.173352 0)
(-0.27852 -0.173705 0)
(-0.249319 -0.16761 0)
(-0.214938 -0.154679 0)
(-0.177141 -0.1354 0)
(-0.138562 -0.111304 0)
(-0.102203 -0.0848172 0)
(-0.0706934 -0.0587078 0)
(-0.0455022 -0.0353004 0)
(-0.0267481 -0.0159064 0)
(-0.0135561 -0.00082562 0)
(-0.00482342 0.0102321 0)
(0.000506409 0.0177925 0)
(0.00320386 0.0223569 0)
(0.00402395 0.0244008 0)
(0.00350139 0.0241229 0)
(0.00234093 0.0215085 0)
(0.000989374 0.0159825 0)
(0.000133795 0.00685979 0)
(-0.000348974 -0.000110031 0)
(-0.00249393 0.00263707 0)
(-0.00637326 0.00656117 0)
(-0.0115048 0.0117355 0)
(-0.0183409 0.0181188 0)
(-0.0270022 0.0261432 0)
(-0.038123 0.0359479 0)
(-0.0519616 0.0477827 0)
(-0.0689118 0.0615483 0)
(-0.088864 0.0769278 0)
(-0.111537 0.0931704 0)
(-0.136139 0.109279 0)
(-0.161741 0.124093 0)
(-0.187221 0.136567 0)
(-0.211613 0.1459 0)
(-0.234053 0.15164 0)
(-0.253961 0.15365 0)
(-0.270953 0.152077 0)
(-0.284933 0.14727 0)
(-0.295992 0.139718 0)
(-0.304426 0.129956 0)
(-0.310608 0.118514 0)
(-0.314986 0.105854 0)
(-0.317978 0.0923537 0)
(-0.319979 0.0782908 0)
(-0.321311 0.063857 0)
(-0.322247 0.049165 0)
(-0.322988 0.0342714 0)
(-0.323698 0.0191874 0)
(-0.324492 0.00389762 0)
(-0.325469 -0.0116336 0)
(-0.326696 -0.027449 0)
(-0.328227 -0.0435957 0)
(-0.330079 -0.0601117 0)
(-0.332229 -0.0770189 0)
(-0.334573 -0.0942977 0)
(-0.336891 -0.111861 0)
(-0.338789 -0.129505 0)
(-0.339646 -0.14685 0)
(-0.338567 -0.16327 0)
(-0.334386 -0.177839 0)
(-0.325733 -0.189305 0)
(-0.311217 -0.196153 0)
(-0.289722 -0.19678 0)
(-0.260813 -0.189822 0)
(-0.225136 -0.174603 0)
(-0.184702 -0.151603 0)
(-0.142782 -0.122768 0)
(-0.103294 -0.0913314 0)
(-0.069645 -0.0609866 0)
(-0.043636 -0.034658 0)
(-0.0251012 -0.0136993 0)
(-0.0127321 0.00191637 0)
(-0.00496865 0.0128858 0)
(-0.000577078 0.0199536 0)
(0.00147288 0.0237628 0)
(0.0018982 0.0245997 0)
(0.00145031 0.0224865 0)
(0.000639549 0.0169043 0)
(7.79996e-05 0.00724391 0)
(-0.000544891 0.0013714 0)
(-0.00354088 0.00620213 0)
(-0.0086944 0.0117162 0)
(-0.0152667 0.0184707 0)
(-0.023839 0.0267251 0)
(-0.0344904 0.0370547 0)
(-0.0479242 0.049598 0)
(-0.0642632 0.0644683 0)
(-0.0837486 0.0813015 0)
(-0.105953 0.0994138 0)
(-0.130301 0.117681 0)
(-0.155705 0.134819 0)
(-0.181093 0.149552 0)
(-0.205293 0.160885 0)
(-0.227413 0.168191 0)
(-0.246719 0.171253 0)
(-0.262846 0.170206 0)
(-0.275664 0.165466 0)
(-0.28537 0.157632 0)
(-0.292313 0.147378 0)
(-0.297003 0.135354 0)
(-0.299948 0.122129 0)
(-0.301658 0.108148 0)
(-0.302547 0.093735 0)
(-0.302967 0.0790945 0)
(-0.303161 0.0643433 0)
(-0.303317 0.0495276 0)
(-0.303546 0.034651 0)
(-0.303937 0.0196871 0)
(-0.304539 0.00459736 0)
(-0.305408 -0.0106669 0)
(-0.306588 -0.0261546 0)
(-0.308138 -0.0419199 0)
(-0.310112 -0.0580155 0)
(-0.312569 -0.0744967 0)
(-0.315538 -0.0914101 0)
(-0.318998 -0.108783 0)
(-0.322814 -0.126589 0)
(-0.32668 -0.144699 0)
(-0.330021 -0.162802 0)
(-0.331926 -0.180308 0)
(-0.331082 -0.196243 0)
(-0.325833 -0.209182 0)
(-0.314343 -0.217281 0)
(-0.294971 -0.21846 0)
(-0.266792 -0.210822 0)
(-0.230218 -0.193269 0)
(-0.187454 -0.166233 0)
(-0.142503 -0.132171 0)
(-0.100328 -0.0953916 0)
(-0.0652323 -0.0607658 0)
(-0.0391812 -0.0318538 0)
(-0.0215658 -0.00986663 0)
(-0.0104549 0.00574982 0)
(-0.00396932 0.0160746 0)
(-0.000590118 0.022094 0)
(0.00072706 0.0243292 0)
(0.000873756 0.0229286 0)
(0.000450529 0.0174936 0)
(5.88612e-05 0.00751085 0)
(-0.000774508 0.00346431 0)
(-0.0047075 0.0109135 0)
(-0.0112132 0.018285 0)
(-0.0192765 0.0268384 0)
(-0.0296138 0.0372242 0)
(-0.0422265 0.0501265 0)
(-0.0578371 0.0656094 0)
(-0.0763563 0.0835368 0)
(-0.0978156 0.103188 0)
(-0.121448 0.123466 0)
(-0.146423 0.142913 0)
(-0.171448 0.160061 0)
(-0.195407 0.173644 0)
(-0.217171 0.182827 0)
(-0.236013 0.187245 0)
(-0.251424 0.186992 0)
(-0.263346 0.182532 0)
(-0.27196 0.174576 0)
(-0.277754 0.163943 0)
(-0.281282 0.151428 0)
(-0.283179 0.137714 0)
(-0.283982 0.123327 0)
(-0.284167 0.108631 0)
(-0.284063 0.093846 0)
(-0.283916 0.0790791 0)
(-0.283857 0.0643626 0)
(-0.283968 0.0496788 0)
(-0.284269 0.0349893 0)
(-0.284775 0.0202443 0)
(-0.285476 0.00539784 0)
(-0.286387 -0.0095948 0)
(-0.28752 -0.024771 0)
(-0.288922 -0.0401697 0)
(-0.290651 -0.0558299 0)
(-0.292796 -0.0718011 0)
(-0.295452 -0.0881419 0)
(-0.298718 -0.104924 0)
(-0.302654 -0.122217 0)
(-0.307237 -0.140067 0)
(-0.312271 -0.158434 0)
(-0.317289 -0.177106 0)
(-0.321419 -0.195562 0)
(-0.323291 -0.212814 0)
(-0.321013 -0.227285 0)
(-0.312339 -0.236768 0)
(-0.295063 -0.238629 0)
(-0.267706 -0.230301 0)
(-0.230363 -0.210153 0)
(-0.18544 -0.17854 0)
(-0.137778 -0.138648 0)
(-0.0935655 -0.096218 0)
(-0.0579767 -0.0575846 0)
(-0.0328797 -0.026805 0)
(-0.0168602 -0.00458722 0)
(-0.00741677 0.0102661 0)
(-0.00233595 0.0192524 0)
(-5.25855e-05 0.0233319 0)
(0.000616076 0.0229362 0)
(0.000431029 0.0178703 0)
(7.89474e-05 0.00773702 0)
(-0.00102539 0.00621454 0)
(-0.00593476 0.0168069 0)
(-0.013807 0.0262716 0)
(-0.023339 0.0368071 0)
(-0.0353764 0.0495286 0)
(-0.0497998 0.0651658 0)
(-0.0672961 0.0836198 0)
(-0.0875045 0.104401 0)
(-0.110224 0.126377 0)
(-0.134371 0.148049 0)
(-0.158939 0.167711 0)
(-0.182524 0.18383 0)
(-0.204075 0.195277 0)
(-0.222598 0.201477 0)
(-0.237632 0.202419 0)
(-0.248976 0.198574 0)
(-0.256922 0.190754 0)
(-0.261941 0.179927 0)
(-0.264737 0.16705 0)
(-0.265963 0.152939 0)
(-0.266266 0.138216 0)
(-0.266108 0.123294 0)
(-0.265861 0.108408 0)
(-0.265716 0.0936538 0)
(-0.2658 0.0790401 0)
(-0.266126 0.064526 0)
(-0.266691 0.0500481 0)
(-0.26744 0.0355444 0)
(-0.268339 0.0209597 0)
(-0.269337 0.00625506 0)
(-0.270419 -0.00859815 0)
(-0.271573 -0.0236153 0)
(-0.27283 -0.0388091 0)
(-0.274232 -0.0541909 0)
(-0.275865 -0.0697831 0)
(-0.277836 -0.0856229 0)
(-0.280287 -0.101775 0)
(-0.283368 -0.118332 0)
(-0.287224 -0.135414 0)
(-0.291931 -0.153139 0)
(-0.297423 -0.171574 0)
(-0.303349 -0.190619 0)
(-0.308926 -0.209846 0)
(-0.312765 -0.228282 0)
(-0.312807 -0.244188 0)
(-0.30642 -0.254975 0)
(-0.290849 -0.257353 0)
(-0.264032 -0.247976 0)
(-0.22574 -0.224568 0)
(-0.178656 -0.18751 0)
(-0.128655 -0.141046 0)
(-0.0833223 -0.0929066 0)
(-0.0485406 -0.051046 0)
(-0.0254973 -0.0195685 0)
(-0.0117246 0.00176578 0)
(-0.00421042 0.0149439 0)
(-0.000671356 0.0215849 0)
(0.000563885 0.0226248 0)
(0.000532673 0.0181909 0)
(0.000127427 0.00803039 0)
(-0.00128744 0.00966608 0)
(-0.00717232 0.0239103 0)
(-0.0163697 0.0356726 0)
(-0.0272854 0.0483357 0)
(-0.0408724 0.0635322 0)
(-0.0568452 0.0819519 0)
(-0.0758075 0.103241 0)
(-0.0970974 0.126473 0)
(-0.120297 0.150097 0)
(-0.144063 0.172268 0)
(-0.167311 0.191151 0)
(-0.188625 0.205274 0)
(-0.207118 0.213768 0)
(-0.222026 0.216421 0)
(-0.233229 0.21365 0)
(-0.240864 0.206321 0)
(-0.245541 0.195555 0)
(-0.247929 0.182479 0)
(-0.248835 0.168079 0)
(-0.248892 0.153091 0)
(-0.248662 0.137999 0)
(-0.248468 0.123059 0)
(-0.248542 0.108363 0)
(-0.248938 0.093892 0)
(-0.249675 0.0795738 0)
(-0.25068 0.0653183 0)
(-0.251893 0.0510392 0)
(-0.253218 0.0366694 0)
(-0.254598 0.0221609 0)
(-0.255962 0.00748955 0)
(-0.257283 -0.00735345 0)
(-0.258536 -0.0223608 0)
(-0.259733 -0.0375195 0)
(-0.260899 -0.0528122 0)
(-0.2621 -0.0682299 0)
(-0.263421 -0.0837761 0)
(-0.264995 -0.0994827 0)
(-0.266983 -0.115418 0)
(-0.269589 -0.131701 0)
(-0.273017 -0.148501 0)
(-0.277448 -0.166019 0)
(-0.282925 -0.184431 0)
(-0.289228 -0.203761 0)
(-0.295655 -0.223681 0)
(-0.300823 -0.243213 0)
(-0.302511 -0.260444 0)
(-0.297732 -0.272307 0)
(-0.283198 -0.274773 0)
(-0.256297 -0.263566 0)
(-0.216569 -0.235777 0)
(-0.167174 -0.192016 0)
(-0.115348 -0.138257 0)
(-0.0702035 -0.0848569 0)
(-0.0378252 -0.0412529 0)
(-0.0179 -0.0107216 0)
(-0.00683953 0.0084879 0)
(-0.00148071 0.0188097 0)
(0.00053559 0.0219424 0)
(0.000683485 0.0184954 0)
(0.000191667 0.00843156 0)
(-0.00153816 0.0137945 0)
(-0.00833325 0.0321456 0)
(-0.0187402 0.0463586 0)
(-0.0308769 0.0612281 0)
(-0.045772 0.0789332 0)
(-0.0629369 0.10003 0)
(-0.0828595 0.123837 0)
(-0.10458 0.14895 0)
(-0.127507 0.173438 0)
(-0.150121 0.195197 0)
(-0.171351 0.212394 0)
(-0.189869 0.223745 0)
(-0.20504 0.228751 0)
(-0.216395 0.227644 0)
(-0.224181 0.221298 0)
(-0.228833 0.210932 0)
(-0.231186 0.197878 0)
(-0.231992 0.183301 0)
(-0.232043 0.168104 0)
(-0.231859 0.152866 0)
(-0.23186 0.137889 0)
(-0.232211 0.123264 0)
(-0.233009 0.108952 0)
(-0.234198 0.0948466 0)
(-0.235721 0.0808254 0)
(-0.237456 0.0667753 0)
(-0.239316 0.0526082 0)
(-0.241194 0.038266 0)
(-0.243027 0.0237169 0)
(-0.244743 0.00895486 0)
(-0.246315 -0.00600881 0)
(-0.247708 -0.0211467 0)
(-0.248929 -0.0364243 0)
(-0.249984 -0.0518008 0)
(-0.250915 -0.0672396 0)
(-0.251778 -0.0827122 0)
(-0.252673 -0.0982117 0)
(-0.253725 -0.113764 0)
(-0.255123 -0.129445 0)
(-0.257092 -0.1454 0)
(-0.259906 -0.161851 0)
(-0.263824 -0.17909 0)
(-0.269011 -0.197412 0)
(-0.275356 -0.216982 0)
(-0.282242 -0.237555 0)
(-0.288256 -0.258137 0)
(-0.290991 -0.276526 0)
(-0.287082 -0.289087 0)
(-0.272719 -0.290842 0)
(-0.244836 -0.276526 0)
(-0.20294 -0.242638 0)
(-0.151091 -0.190616 0)
(-0.0982954 -0.12913 0)
(-0.0552063 -0.0718621 0)
(-0.0269528 -0.0288403 0)
(-0.0109257 -0.00106765 0)
(-0.00290255 0.0145407 0)
(0.000304289 0.0207259 0)
(0.000789522 0.018766 0)
(0.000253952 0.00896444 0)
(-0.00176257 0.0185572 0)
(-0.00935796 0.0414204 0)
(-0.0208063 0.0581973 0)
(-0.0339481 0.0752988 0)
(-0.0498459 0.0954611 0)
(-0.0677866 0.119018 0)
(-0.08813 0.144909 0)
(-0.109651 0.171246 0)
(-0.131649 0.195791 0)
(-0.152514 0.216294 0)
(-0.171283 0.231054 0)
(-0.186794 0.239092 0)
(-0.198726 0.240376 0)
(-0.206925 0.235617 0)
(-0.211969 0.226118 0)
(-0.214501 0.213357 0)
(-0.215469 0.19875 0)
(-0.215593 0.183385 0)
(-0.215563 0.167998 0)
(-0.215736 0.152963 0)
(-0.21638 0.138399 0)
(-0.217513 0.124248 0)
(-0.219131 0.110374 0)
(-0.221102 0.0966167 0)
(-0.223336 0.0828324 0)
(-0.225688 0.0689075 0)
(-0.228075 0.0547664 0)
(-0.230391 0.0403674 0)
(-0.232584 0.0256976 0)
(-0.234588 0.010768 0)
(-0.236381 -0.00439379 0)
(-0.237929 -0.0197454 0)
(-0.239233 -0.035237 0)
(-0.240288 -0.0508119 0)
(-0.241119 -0.0664144 0)
(-0.241755 -0.0819927 0)
(-0.242258 -0.097508 0)
(-0.242711 -0.112946 0)
(-0.243248 -0.128328 0)
(-0.244052 -0.143743 0)
(-0.245378 -0.159358 0)
(-0.247539 -0.175456 0)
(-0.250883 -0.192415 0)
(-0.255675 -0.210675 0)
(-0.261919 -0.230527 0)
(-0.269044 -0.251831 0)
(-0.275566 -0.273466 0)
(-0.278821 -0.292853 0)
(-0.274995 -0.305507 0)
(-0.259773 -0.305353 0)
(-0.229766 -0.285975 0)
(-0.184877 -0.24369 0)
(-0.130631 -0.181725 0)
(-0.0784204 -0.112991 0)
(-0.0397828 -0.0546558 0)
(-0.017077 -0.0149893 0)
(-0.00532649 0.00804267 0)
(-0.000334835 0.0186165 0)
(0.000769261 0.0188513 0)
(0.000301021 0.00958349 0)
(-0.0019354 0.0238393 0)
(-0.0101596 0.0515369 0)
(-0.0224199 0.0709332 0)
(-0.0362957 0.0902113 0)
(-0.0528409 0.112665 0)
(-0.0711145 0.138337 0)
(-0.0913553 0.165775 0)
(-0.112127 0.192643 0)
(-0.132689 0.216488 0)
(-0.151425 0.235033 0)
(-0.167553 0.246831 0)
(-0.180135 0.251303 0)
(-0.18918 0.248937 0)
(-0.194824 0.240908 0)
(-0.197896 0.228868 0)
(-0.199142 0.214429 0)
(-0.199513 0.19897 0)
(-0.199613 0.183408 0)
(-0.199986 0.168266 0)
(-0.20082 0.153705 0)
(-0.202244 0.139682 0)
(-0.204168 0.126026 0)
(-0.206524 0.112543 0)
(-0.209145 0.0990491 0)
(-0.211932 0.0854029 0)
(-0.214743 0.0715053 0)
(-0.217511 0.0573009 0)
(-0.22014 0.042767 0)
(-0.222594 0.0279085 0)
(-0.224815 0.0127509 0)
(-0.226787 -0.00266503 0)
(-0.228478 -0.0182862 0)
(-0.229886 -0.0340516 0)
(-0.231001 -0.0498944 0)
(-0.231836 -0.065746 0)
(-0.232401 -0.0815396 0)
(-0.232735 -0.0972151 0)
(-0.232881 -0.112729 0)
(-0.232926 -0.12806 0)
(-0.232987 -0.143238 0)
(-0.233254 -0.158354 0)
(-0.233991 -0.173617 0)
(-0.23556 -0.189357 0)
(-0.238373 -0.206078 0)
(-0.2428 -0.224339 0)
(-0.248928 -0.244612 0)
(-0.256205 -0.266766 0)
(-0.262994 -0.28952 0)
(-0.266254 -0.309605 0)
(-0.261648 -0.321468 0)
(-0.244338 -0.317545 0)
(-0.210941 -0.290408 0)
(-0.162295 -0.23686 0)
(-0.106386 -0.163776 0)
(-0.0572774 -0.0901854 0)
(-0.0257003 -0.0348272 0)
(-0.00906929 -0.00155302 0)
(-0.00153028 0.0151383 0)
(0.000566664 0.0185402 0)
(0.000323401 0.0102253 0)
(-0.00204528 0.0295109 0)
(-0.0106968 0.0623013 0)
(-0.0235094 0.0843422 0)
(-0.0378256 0.105698 0)
(-0.054649 0.130218 0)
(-0.0728277 0.157614 0)
(-0.0924998 0.186052 0)
(-0.112085 0.212801 0)
(-0.130866 0.235307 0)
(-0.147297 0.251371 0)
(-0.160823 0.25991 0)
(-0.170757 0.260809 0)
(-0.177416 0.255085 0)
(-0.181165 0.244318 0)
(-0.182983 0.230397 0)
(-0.183621 0.214941 0)
(-0.183949 0.199195 0)
(-0.184416 0.183848 0)
(-0.18541 0.169201 0)
(-0.186968 0.155222 0)
(-0.18912 0.141744 0)
(-0.191703 0.128522 0)
(-0.194624 0.115338 0)
(-0.197708 0.102009 0)
(-0.200868 0.0884123 0)
(-0.20398 0.0744692 0)
(-0.206992 0.060146 0)
(-0.209827 0.0454364 0)
(-0.212459 0.0303598 0)
(-0.214839 0.0149516 0)
(-0.216954 -0.00073833 0)
(-0.218772 -0.0166497 0)
(-0.220293 -0.0327142 0)
(-0.221499 -0.048858 0)
(-0.2224 -0.0650042 0)
(-0.222996 -0.0810772 0)
(-0.223309 -0.0970036 0)
(-0.223359 -0.112723 0)
(-0.223198 -0.128184 0)
(-0.222889 -0.143374 0)
(-0.222553 -0.158317 0)
(-0.22237 -0.173133 0)
(-0.222626 -0.188047 0)
(-0.223713 -0.203493 0)
(-0.226122 -0.220059 0)
(-0.230305 -0.238514 0)
(-0.236412 -0.259417 0)
(-0.243834 -0.282684 0)
(-0.250658 -0.30656 0)
(-0.253346 -0.326881 0)
(-0.246886 -0.336452 0)
(-0.226096 -0.326079 0)
(-0.187939 -0.287522 0)
(-0.135324 -0.219713 0)
(-0.079563 -0.136128 0)
(-0.0373061 -0.0626051 0)
(-0.0142934 -0.0152444 0)
(-0.00340155 0.00967599 0)
(0.000165664 0.0175485 0)
(0.000316374 0.0107956 0)
(-0.00207375 0.035383 0)
(-0.0109108 0.0734294 0)
(-0.0239837 0.0980911 0)
(-0.0384293 0.121358 0)
(-0.055164 0.14764 0)
(-0.0728575 0.17631 0)
(-0.091576 0.205194 0)
(-0.109664 0.231249 0)
(-0.126485 0.251916 0)
(-0.140616 0.265181 0)
(-0.15175 0.270396 0)
(-0.159444 0.267937 0)
(-0.164273 0.259314 0)
(-0.166747 0.246416 0)
(-0.167905 0.23125 0)
(-0.168421 0.215336 0)
(-0.169043 0.19972 0)
(-0.170053 0.184844 0)
(-0.1717 0.170802 0)
(-0.173909 0.157407 0)
(-0.176644 0.144407 0)
(-0.179712 0.131522 0)
(-0.183016 0.118537 0)
(-0.186394 0.105282 0)
(-0.189781 0.0916633 0)
(-0.193071 0.0776212 0)
(-0.196233 0.0631418 0)
(-0.1992 0.0482312 0)
(-0.201957 0.0329189 0)
(-0.204457 0.0172468 0)
(-0.206689 0.00127122 0)
(-0.208621 -0.0149425 0)
(-0.210248 -0.0313195 0)
(-0.211551 -0.0477803 0)
(-0.212537 -0.0642408 0)
(-0.2132 -0.0806196 0)
(-0.213559 -0.0968346 0)
(-0.213621 -0.112817 0)
(-0.21342 -0.128499 0)
(-0.212985 -0.143846 0)
(-0.212388 -0.158832 0)
(-0.211727 -0.17351 0)
(-0.211193 -0.187994 0)
(-0.211079 -0.202594 0)
(-0.21183 -0.217787 0)
(-0.214003 -0.234379 0)
(-0.21813 -0.253251 0)
(-0.224376 -0.275174 0)
(-0.231954 -0.299804 0)
(-0.238539 -0.324777 0)
(-0.239848 -0.344334 0)
(-0.230243 -0.349293 0)
(-0.204301 -0.32852 0)
(-0.160372 -0.274088 0)
(-0.104494 -0.190032 0)
(-0.0527276 -0.100096 0)
(-0.0209928 -0.0344025 0)
(-0.00609785 0.0016266 0)
(-0.000429287 0.0155343 0)
(0.000277704 0.0112146 0)
(-0.00202035 0.0412732 0)
(-0.0107973 0.084678 0)
(-0.0238378 0.11193 0)
(-0.038115 0.136932 0)
(-0.0544262 0.164666 0)
(-0.0713075 0.194194 0)
(-0.0887829 0.223053 0)
(-0.105188 0.247966 0)
(-0.120004 0.266467 0)
(-0.131968 0.276803 0)
(-0.141014 0.278806 0)
(-0.146914 0.273332 0)
(-0.150431 0.262322 0)
(-0.152143 0.247866 0)
(-0.153064 0.231981 0)
(-0.153754 0.216014 0)
(-0.154816 0.200779 0)
(-0.156384 0.186481 0)
(-0.1586 0.173041 0)
(-0.161312 0.160159 0)
(-0.164453 0.147537 0)
(-0.167826 0.134886 0)
(-0.171349 0.122009 0)
(-0.174881 0.108764 0)
(-0.178381 0.0950788 0)
(-0.181763 0.080914 0)
(-0.185009 0.066269 0)
(-0.188062 0.051157 0)
(-0.190911 0.035613 0)
(-0.193509 0.0196819 0)
(-0.195845 0.00342389 0)
(-0.197882 -0.013092 0)
(-0.199615 -0.0297849 0)
(-0.201018 -0.0465701 0)
(-0.202099 -0.0633559 0)
(-0.202847 -0.0800557 0)
(-0.203281 -0.0965797 0)
(-0.203405 -0.112855 0)
(-0.203247 -0.128806 0)
(-0.202822 -0.144387 0)
(-0.202172 -0.159546 0)