/*--------------------------------*- C++ -*----------------------------------*\
| =========                 |                                                 |
| \\      /  F ield         | OpenFOAM: The Open Source CFD Toolbox           |
|  \\    /   O peration     | Version:  2406                                  |
|   \\  /    A nd           | Website:  www.openfoam.com                      |
|    \\/     M anipulation  |                                                 |
\*---------------------------------------------------------------------------*/
FoamFile
{
    version     2.0;
    format      ascii;
    arch        "LSB;label=32;scalar=64";
    class       surfaceScalarField;
    location    "38.5";
    object      phi;
}
// * * * * * * * * * * * * * * * * * * * * * * * * * * * * * * * * * * * * * //

dimensions      [0 3 -1 0 0 0 0];

oriented        oriented;

internalField   nonuniform List<scalar> 
32512
(
-8.51158e-09
8.60941e-09
2.78134e-08
-3.63242e-08
1.19104e-07
-9.12908e-08
2.58312e-07
-1.39209e-07
4.32754e-07
-1.74442e-07
6.28693e-07
-1.95939e-07
8.33128e-07
-2.04435e-07
1.03468e-06
-2.01556e-07
1.22414e-06
-1.89451e-07
1.39468e-06
-1.70549e-07
1.54203e-06
-1.47348e-07
1.66426e-06
-1.22229e-07
1.76155e-06
-9.72854e-08
1.83575e-06
-7.42039e-08
1.88994e-06
-5.41889e-08
1.92787e-06
-3.79362e-08
1.95352e-06
-2.56488e-08
1.97061e-06
-1.70872e-08
1.98226e-06
-1.16523e-08
1.99072e-06
-8.45717e-09
1.99721e-06
-6.49257e-09
2.00192e-06
-4.70419e-09
2.00374e-06
-1.82688e-09
2.00087e-06
2.87316e-09
1.99086e-06
1.00077e-08
1.97059e-06
2.02779e-08
1.93662e-06
3.39639e-08
1.88539e-06
5.12303e-08
1.81324e-06
7.21496e-08
1.71649e-06
9.67476e-08
1.59142e-06
1.25072e-07
1.43424e-06
1.57178e-07
1.24108e-06
1.93166e-07
1.00793e-06
2.33145e-07
7.3072e-07
2.77214e-07
4.0528e-07
3.2544e-07
2.74671e-08
3.77813e-07
-4.06748e-07
4.34215e-07
-9.01214e-07
4.94467e-07
-1.45944e-06
5.58223e-07
-2.08446e-06
6.25021e-07
-2.77872e-06
6.94265e-07
-3.54395e-06
7.65227e-07
-4.381e-06
8.37049e-07
-5.28975e-06
9.08752e-07
-6.269e-06
9.79247e-07
-7.31636e-06
1.04736e-06
-8.42819e-06
1.11183e-06
-9.59956e-06
1.17137e-06
-1.08242e-05
1.22467e-06
-1.20946e-05
1.27039e-06
-1.34019e-05
1.30725e-06
-1.47359e-05
1.33403e-06
-1.60854e-05
1.34954e-06
-1.74382e-05
1.35273e-06
-1.87808e-05
1.34262e-06
-2.00992e-05
1.31838e-06
-2.13785e-05
1.2793e-06
-2.26033e-05
1.22481e-06
-2.37578e-05
1.15452e-06
-2.4826e-05
1.06818e-06
-2.57917e-05
9.65734e-07
-2.66391e-05
8.47371e-07
-2.73526e-05
7.13533e-07
-2.79175e-05
5.64909e-07
-2.83198e-05
4.0228e-07
-2.85464e-05
2.26591e-07
-2.85878e-05
4.14561e-08
-2.84242e-05
-1.63589e-07
-2.80545e-05
-3.69707e-07
-2.74739e-05
-5.80629e-07
-2.66776e-05
-7.96328e-07
-2.56653e-05
-1.01231e-06
-2.44401e-05
-1.22521e-06
-2.30086e-05
-1.43147e-06
-2.13813e-05
-1.62728e-06
-1.95726e-05
-1.80874e-06
-1.76007e-05
-1.97186e-06
-1.54879e-05
-2.11278e-06
-1.32601e-05
-2.22782e-06
-1.09465e-05
-2.31366e-06
-8.57894e-06
-2.36752e-06
-6.19169e-06
-2.38725e-06
-3.82018e-06
-2.37151e-06
-1.50029e-06
-2.3199e-06
7.32961e-07
-2.23325e-06
2.84654e-06
-2.11358e-06
4.80894e-06
-1.9624e-06
6.5929e-06
-1.78395e-06
8.17626e-06
-1.58336e-06
9.54168e-06
-1.36543e-06
1.06777e-05
-1.13603e-06
1.15789e-05
-9.01157e-07
1.22457e-05
-6.66838e-07
1.26845e-05
-4.38778e-07
1.29067e-05
-2.22226e-07
1.2929e-05
-2.22646e-08
1.27701e-05
1.5893e-07
1.24533e-05
3.16776e-07
1.20024e-05
4.50898e-07
1.1442e-05
5.60423e-07
1.07967e-05
6.45283e-07
1.00902e-05
7.06421e-07
9.34471e-06
7.45544e-07
8.57984e-06
7.64866e-07
7.81291e-06
7.66932e-07
7.05844e-06
7.54465e-07
6.32822e-06
7.30224e-07
5.63133e-06
6.96886e-07
4.97438e-06
6.5695e-07
4.36171e-06
6.12673e-07
3.79568e-06
5.6603e-07
3.27698e-06
5.18698e-07
2.80492e-06
4.72065e-07
2.37769e-06
4.27232e-07
1.99266e-06
3.85027e-07
1.64667e-06
3.45994e-07
1.3363e-06
3.10367e-07
1.05828e-06
2.78019e-07
8.09891e-07
2.48389e-07
5.89474e-07
2.20417e-07
3.96962e-07
1.92512e-07
2.34346e-07
1.62615e-07
1.05873e-07
1.28473e-07
1.7415e-08
8.8458e-08
-2.60364e-08
4.34514e-08
-2.55196e-08
-5.16815e-10
-2.55196e-08
3.45946e-08
-2.59849e-08
1.76944e-07
-1.78674e-07
4.35896e-07
-3.50242e-07
7.9588e-07
-4.99192e-07
1.23163e-06
-6.1019e-07
1.71447e-06
-6.78786e-07
2.21605e-06
-7.06015e-07
2.71068e-06
-6.96178e-07
3.17685e-06
-6.55626e-07
3.59817e-06
-5.91866e-07
3.96363e-06
-5.1281e-07
4.26751e-06
-4.26104e-07
4.50879e-06
-3.38571e-07
4.69037e-06
-2.55785e-07
4.81798e-06
-1.818e-07
4.89908e-06
-1.19032e-07
4.9417e-06
-6.82749e-08
4.95346e-06
-2.8843e-08
4.94069e-06
1.11784e-09
4.90761e-06
2.46189e-08
4.85615e-06
4.49733e-08
4.78554e-06
6.58994e-08
4.69272e-06
9.09932e-08
4.57223e-06
1.23366e-07
4.41669e-06
1.65551e-07
4.21748e-06
2.19485e-07
3.96502e-06
2.86421e-07
3.64917e-06
3.67085e-07
3.25948e-06
4.6184e-07
2.78539e-06
5.70839e-07
2.21625e-06
6.94208e-07
1.54141e-06
8.32022e-07
7.50189e-07
9.84387e-07
-1.68008e-07
1.15134e-06
-1.22359e-06
1.33279e-06
-2.42654e-06
1.52839e-06
-3.78621e-06
1.73748e-06
-5.31098e-06
1.95898e-06
-7.00789e-06
2.19139e-06
-8.88235e-06
2.43268e-06
-1.09377e-05
2.68036e-06
-1.31749e-05
2.93146e-06
-1.55922e-05
3.18255e-06
-1.8185e-05
3.42983e-06
-2.09454e-05
3.66916e-06
-2.38623e-05
3.89615e-06
-2.69212e-05
4.10628e-06
-3.01044e-05
4.29499e-06
-3.33908e-05
4.45778e-06
-3.67565e-05
4.59034e-06
-4.01747e-05
4.68862e-06
-4.36164e-05
4.74894e-06
-4.70504e-05
4.76804e-06
-5.0444e-05
4.74318e-06
-5.37634e-05
4.6721e-06
-5.69739e-05
4.55312e-06
-6.00406e-05
4.3851e-06
-6.29288e-05
4.16746e-06
-6.56042e-05
3.90017e-06
-6.80334e-05
3.58372e-06
-7.01844e-05
3.21916e-06
-7.20267e-05
2.80806e-06
-7.3532e-05
2.35265e-06
-7.46742e-05
1.85579e-06
-7.54301e-05
1.32084e-06
-7.57796e-05
7.51719e-07
-7.57119e-05
1.5888e-07
-7.51958e-05
-4.74665e-07
-7.42327e-05
-1.12662e-06
-7.28133e-05
-1.78915e-06
-7.09363e-05
-2.45762e-06
-6.8607e-05
-3.12562e-06
-6.58342e-05
-3.78506e-06
-6.26324e-05
-4.42706e-06
-5.90216e-05
-5.04221e-06
-5.50282e-05
-5.62073e-06
-5.06843e-05
-6.15264e-06
-4.60282e-05
-6.62797e-06
-4.1104e-05
-7.03697e-06
-3.59614e-05
-7.37046e-06
-3.06549e-05
-7.62014e-06
-2.52435e-05
-7.77887e-06
-1.97897e-05
-7.84109e-06
-1.43581e-05
-7.80312e-06
-9.01453e-06
-7.66343e-06
-3.82479e-06
-7.42299e-06
1.14716e-06
-7.08553e-06
5.84257e-06
-6.65781e-06
1.0203e-05
-6.14442e-06
1.41808e-05
-5.56109e-06
1.77339e-05
-4.91858e-06
2.08298e-05
-4.23191e-06
2.34455e-05
-3.51682e-06
2.55684e-05
-2.78977e-06
2.71966e-05
-2.067e-06
2.83388e-05
-1.36442e-06
2.90132e-05
-6.96659e-07
2.92471e-05
-7.49928e-08
2.90782e-05
4.8573e-07
2.85463e-05
9.82798e-07
2.76982e-05
1.40852e-06
2.65835e-05
1.75992e-06
2.52533e-05
2.03663e-06
2.3758e-05
2.24086e-06
2.21459e-05
2.37694e-06
2.0462e-05
2.45088e-06
1.87466e-05
2.46986e-06
1.7035e-05
2.44186e-06
1.53567e-05
2.37515e-06
1.37357e-05
2.27795e-06
1.21903e-05
2.1581e-06
1.07335e-05
2.02281e-06
9.3737e-06
1.87848e-06
8.1151e-06
1.73067e-06
6.95837e-06
1.58396e-06
5.90142e-06
1.44198e-06
4.94011e-06
1.3073e-06
4.06913e-06
1.18135e-06
3.28289e-06
1.06426e-06
2.57658e-06
9.54695e-07
1.9473e-06
8.49704e-07
1.39505e-06
7.44757e-07
9.23556e-07
6.3411e-07
5.40217e-07
5.11813e-07
2.54779e-07
3.73896e-07
7.57497e-08
2.22481e-07
1.40655e-09
7.38264e-08
-2.4113e-08
8.59833e-08
-1.11969e-07
3.39925e-07
-4.32616e-07
7.49266e-07
-7.59584e-07
1.28905e-06
-1.03898e-06
1.92549e-06
-1.24663e-06
2.62088e-06
-1.37418e-06
3.3376e-06
-1.42274e-06
4.04114e-06
-1.39971e-06
4.70218e-06
-1.31666e-06
5.29788e-06
-1.18757e-06
5.81244e-06
-1.02737e-06
6.23693e-06
-8.50597e-07
6.56869e-06
-6.70331e-07
6.81023e-06
-4.97321e-07
6.96788e-06
-3.3945e-07
7.05031e-06
-2.01462e-07
7.067e-06
-8.49646e-08
7.02679e-06
1.13689e-08
6.93675e-06
9.11542e-08
6.80119e-06
1.60181e-07
6.62097e-06
2.25192e-07
6.39338e-06
2.93494e-07
6.11217e-06
3.72197e-07
5.7679e-06
4.67642e-07
5.34841e-06
5.85039e-07
4.83959e-06
7.28301e-07
4.22594e-06
9.00073e-07
3.4911e-06
1.10193e-06
2.61827e-06
1.33467e-06
1.59061e-06
1.5985e-06
3.91235e-07
1.89358e-06
-9.96402e-07
2.21966e-06
-2.58837e-06
2.57636e-06
-4.40003e-06
2.963e-06
-6.44563e-06
3.37839e-06
-8.7379e-06
3.82066e-06
-1.12875e-05
4.28707e-06
-1.41025e-05
4.77395e-06
-1.71876e-05
5.27655e-06
-2.0544e-05
5.7891e-06
-2.41685e-05
6.30485e-06
-2.80532e-05
6.81613e-06
-3.21852e-05
7.31453e-06
-3.65464e-05
7.79107e-06
-4.11137e-05
8.23646e-06
-4.58589e-05
8.64133e-06
-5.07491e-05
8.99646e-06
-5.57472e-05
9.29309e-06
-6.08125e-05
9.52314e-06
-6.59016e-05
9.67939e-06
-7.09686e-05
9.75567e-06
-7.59667e-05
9.74698e-06
-8.08481e-05
9.64952e-06
-8.55657e-05
9.46072e-06
-9.00728e-05
9.17924e-06
-9.43246e-05
8.80486e-06
-9.82779e-05
8.33844e-06
-0.000101892
7.78182e-06
-0.00010513
7.1377e-06
-0.000107956
6.40961e-06
-0.000110338
5.60178e-06
-0.000112249
4.71919e-06
-0.000113664
3.76759e-06
-0.000114562
2.75341e-06
-0.000114925
1.68399e-06
-0.000114744
5.7029e-07
-0.000113995
-5.89361e-07
-0.000112683
-1.78718e-06
-0.000110806
-3.00404e-06
-0.000108363
-4.23126e-06
-0.000105363
-5.45806e-06
-0.000101816
-6.67256e-06
-9.77394e-05
-7.86176e-06
-9.31547e-05
-9.01169e-06
-8.80893e-05
-1.01076e-05
-8.25758e-05
-1.11343e-05
-7.66524e-05
-1.2076e-05
-7.03632e-05
-1.29172e-05
-6.37577e-05
-1.36425e-05
-5.68908e-05
-1.42374e-05
-4.98224e-05
-1.46885e-05
-4.26172e-05
-1.49841e-05
-3.53433e-05
-1.51149e-05
-2.80722e-05
-1.50743e-05
-2.08769e-05
-1.48587e-05
-1.38315e-05
-1.44684e-05
-7.00963e-06
-1.39074e-05
-4.83783e-07
-1.31837e-05
5.68316e-06
-1.23114e-05
1.14246e-05
-1.13026e-05
1.66845e-05
-1.01785e-05
2.14157e-05
-8.96309e-06
2.55792e-05
-7.68031e-06
2.91464e-05
-6.357e-06
3.20997e-05
-5.02024e-06
3.44328e-05
-3.69757e-06
3.61511e-05
-2.41494e-06
3.72726e-05
-1.19648e-06
3.78273e-05
-6.89765e-08
3.78488e-05
9.61291e-07
3.73842e-05
1.87317e-06
3.64874e-05
2.65664e-06
3.52175e-05
3.30658e-06
3.36363e-05
3.82202e-06
3.1807e-05
4.20624e-06
2.97917e-05
4.4662e-06
2.76496e-05
4.61201e-06
2.54353e-05
4.65612e-06
2.31978e-05
4.61261e-06
2.09794e-05
4.49637e-06
1.88151e-05
4.3224e-06
1.67328e-05
4.10515e-06
1.47532e-05
3.85808e-06
1.28906e-05
3.59324e-06
1.11535e-05
3.32104e-06
9.54552e-06
3.04999e-06
8.06629e-06
2.78653e-06
6.71293e-06
2.53471e-06
5.48119e-06
2.296e-06
4.36698e-06
2.0689e-06
3.36786e-06
1.84883e-06
2.48434e-06
1.62828e-06
1.72085e-06
1.3976e-06
1.08581e-06
1.14685e-06
5.9033e-07
8.69377e-07
2.44811e-07
5.68e-07
5.26469e-08
2.6599e-07
2.8534e-08
1.30396e-07
-2.42364e-07
4.81932e-07
-7.84152e-07
1.01987e-06
-1.29753e-06
1.70646e-06
-1.72556e-06
2.49908e-06
-2.03925e-06
3.35273e-06
-2.22782e-06
4.22327e-06
-2.29329e-06
5.07041e-06
-2.24685e-06
5.85983e-06
-2.10608e-06
6.56459e-06
-1.89234e-06
7.16573e-06
-1.6285e-06
7.65204e-06
-1.33691e-06
8.01936e-06
-1.03766e-06
8.26933e-06
-7.47291e-07
8.40781e-06
-4.77928e-07
8.44317e-06
-2.36819e-07
8.3845e-06
-2.63027e-08
8.24009e-06
1.55783e-07
8.01571e-06
3.1553e-07
7.71389e-06
4.6201e-07
7.33291e-06
6.06164e-07
6.86671e-06
7.59694e-07
6.30492e-06
9.33991e-07
5.63333e-06
1.13923e-06
4.83459e-06
1.38378e-06
3.88898e-06
1.67391e-06
2.7752e-06
2.01385e-06
1.47111e-06
2.40602e-06
-4.57543e-08
2.85154e-06
-1.79783e-06
3.35058e-06
-3.80666e-06
3.90241e-06
-6.09292e-06
4.50592e-06
-8.6758e-06
5.15923e-06
-1.15724e-05
5.85956e-06
-1.47969e-05
6.60295e-06
-1.83603e-05
7.384e-06
-2.22689e-05
8.19568e-06
-2.65241e-05
9.02919e-06
-3.11216e-05
9.874e-06
-3.60504e-05
1.07179e-05
-4.1293e-05
1.15475e-05
-4.68249e-05
1.2348e-05
-5.26144e-05
1.31041e-05
-5.86238e-05
1.38005e-05
-6.48092e-05
1.44218e-05
-7.11217e-05
1.49538e-05
-7.75084e-05
1.53831e-05
-8.39136e-05
1.56983e-05
-9.02801e-05
1.58897e-05
-9.65503e-05
1.59496e-05
-0.000102667
1.58726e-05
-0.000108576
1.56556e-05
-0.000114224
1.52973e-05
-0.000119561
1.47985e-05
-0.000124544
1.41614e-05
-0.000129129
1.339e-05
-0.00013328
1.24893e-05
-0.000136963
1.14652e-05
-0.00014015
1.03247e-05
-0.000142816
9.0753e-06
-0.000144939
7.72494e-06
-0.000146502
6.28225e-06
-0.000147491
4.75642e-06
-0.000147895
3.15721e-06
-0.000147706
1.49515e-06
-0.000146924
-2.1188e-07
-0.000145531
-1.98213e-06
-0.000143543
-3.77516e-06
-0.000140961
-5.58562e-06
-0.000137792
-7.40018e-06
-0.000134046
-9.20416e-06
-0.000129737
-1.09819e-05
-0.000124882
-1.27163e-05
-0.000119505
-1.43896e-05
-0.00011363
-1.59824e-05
-0.000107289
-1.74751e-05
-0.000100518
-1.88469e-05
-9.33578e-05
-2.00773e-05
-8.58545e-05
-2.11458e-05
-7.80594e-05
-2.20325e-05
-7.00287e-05
-2.27191e-05
-6.18236e-05
-2.31892e-05
-5.35095e-05
-2.3429e-05
-4.51555e-05
-2.34283e-05
-3.68336e-05
-2.31807e-05
-2.86174e-05
-2.26845e-05
-2.05817e-05
-2.19432e-05
-1.27998e-05
-2.09655e-05
-5.34559e-06
-1.97656e-05
1.71428e-06
-1.83625e-05
8.3174e-06
-1.67816e-05
1.44044e-05
-1.50501e-05
1.99249e-05
-1.32008e-05
2.48383e-05
-1.12704e-05
2.91124e-05
-9.29437e-06
3.27259e-05
-7.31103e-06
3.56682e-05
-5.35724e-06
3.79402e-05
-3.46851e-06
3.9549e-05
-1.67773e-06
4.05337e-05
-2.34734e-08
4.09103e-05
1.49659e-06
4.07286e-05
2.83834e-06
4.00408e-05
3.99442e-06
3.89058e-05
4.95694e-06
3.7388e-05
5.72413e-06
3.55541e-05
6.30003e-06
3.34721e-05
6.69401e-06
3.12082e-05
6.92001e-06
2.88252e-05
6.99561e-06
2.63806e-05
6.94099e-06
2.39253e-05
6.77772e-06
2.15027e-05
6.52779e-06
1.91482e-05
6.21259e-06
1.68893e-05
5.8521e-06
1.47461e-05
5.46422e-06
1.27319e-05
5.06422e-06
1.08542e-05
4.66422e-06
9.11627e-06
4.27266e-06
7.51846e-06
3.89381e-06
6.06004e-06
3.52732e-06
4.74086e-06
3.16801e-06
3.56299e-06
2.80615e-06
2.53198e-06
2.42862e-06
1.65736e-06
2.02147e-06
9.52263e-07
1.57447e-06
4.31775e-07
1.08849e-06
1.1034e-07
5.87425e-07
1.38874e-07
1.65085e-07
-4.07449e-07
5.96216e-07
-1.21528e-06
1.23948e-06
-1.9408e-06
2.04346e-06
-2.52954e-06
2.95584e-06
-2.95163e-06
3.92442e-06
-3.19641e-06
4.89955e-06
-3.26841e-06
5.83657e-06
-3.18387e-06
6.69785e-06
-2.96736e-06
7.45396e-06
-2.64845e-06
8.08409e-06
-2.25863e-06
8.5757e-06
-1.82852e-06
8.92359e-06
-1.38555e-06
9.12847e-06
-9.52168e-07
9.19521e-06
-5.44665e-07
9.13094e-06
-1.72549e-07
8.94315e-06
1.61487e-07
8.63787e-06
4.61063e-07
8.21817e-06
7.35227e-07
7.68304e-06
9.97139e-07
7.02667e-06
1.26253e-06
6.23826e-06
1.54811e-06
5.30223e-06
1.87001e-06
4.19889e-06
2.24257e-06
2.90523e-06
2.67745e-06
1.39591e-06
3.18323e-06
-3.55766e-07
3.76553e-06
-2.37704e-06
4.42729e-06
-4.69481e-06
5.16931e-06
-7.33493e-06
5.9907e-06
-1.03217e-05
6.88913e-06
-1.36767e-05
7.86093e-06
-1.74183e-05
8.90086e-06
-2.15606e-05
1.00018e-05
-2.61122e-05
1.11546e-05
-3.10755e-05
1.23473e-05
-3.64456e-05
1.35657e-05
-4.22093e-05
1.4793e-05
-4.83452e-05
1.60099e-05
-5.48229e-05
1.71956e-05
-6.16034e-05
1.8328e-05
-6.86399e-05
1.93845e-05
-7.58785e-05
2.03428e-05
-8.32598e-05
2.11818e-05
-9.07202e-05
2.18822e-05
-9.81937e-05
2.24273e-05
-0.000105614
2.28032e-05
-0.000112915
2.29994e-05
-0.000120034
2.30087e-05
-0.000126911
2.28271e-05
-0.000133492
2.24537e-05
-0.000139727
2.18906e-05
-0.000145572
2.11419e-05
-0.000150987
2.02139e-05
-0.00015594
1.91144e-05
-0.000160403
1.78522e-05
-0.00016435
1.6437e-05
-0.000167764
1.48792e-05
-0.000170629
1.31893e-05
-0.000172932
1.1378e-05
-0.000174663
9.45613e-06
-0.000175815
7.43471e-06
-0.000176384
5.32477e-06
-0.000176365
3.13842e-06
-0.000175762
8.91921e-07
-0.000174559
-1.41487e-06
-0.000172774
-3.76699e-06
-0.000170404
-6.1448e-06
-0.000167454
-8.53523e-06
-0.000163931
-1.09234e-05
-0.000159843
-1.32925e-05
-0.0001552
-1.56244e-05
-0.000150017
-1.78993e-05
-0.000144311
-2.00958e-05
-0.000138102
-2.21913e-05
-0.000131415
-2.41618e-05
-0.00012428
-2.59822e-05
-0.000116731
-2.76269e-05
-0.000108806
-2.90704e-05
-0.000100551
-3.02874e-05
-9.20163e-05
-3.12541e-05
-8.32567e-05
-3.19488e-05
-7.43331e-05
-3.23526e-05
-6.53107e-05
-3.24507e-05
-5.62584e-05
-3.22329e-05
-4.72484e-05
-3.16945e-05
-3.83545e-05
-3.08371e-05
-2.96514e-05
-2.96686e-05
-2.1213e-05
-2.8204e-05
-1.31107e-05
-2.64647e-05
-5.41356e-06
-2.44788e-05
1.81603e-06
-2.22797e-05
8.52216e-06
-1.9907e-05
1.46534e-05
-1.74017e-05
2.01666e-05
-1.48076e-05
2.50304e-05
-1.21748e-05
2.9221e-05
-9.54776e-06
3.27246e-05
-6.97212e-06
3.55381e-05
-4.49131e-06
3.76596e-05
-2.14495e-06
3.91327e-05
2.34634e-08
3.99596e-05
2.01144e-06
4.01873e-05
3.76674e-06
3.98626e-05
5.28166e-06
3.90406e-05
6.54615e-06
3.77829e-05
7.55777e-06
3.61555e-05
8.32141e-06
3.42268e-05
8.84862e-06
3.20656e-05
9.15689e-06
2.9738e-05
9.26854e-06
2.73064e-05
9.20935e-06
2.4827e-05
9.00721e-06
2.23489e-05
8.69068e-06
1.99133e-05
8.28765e-06
1.75534e-05
7.82415e-06
1.52943e-05
7.3233e-06
1.31542e-05
6.80428e-06
1.11454e-05
6.28151e-06
9.27548e-06
5.76371e-06
7.54956e-06
5.25323e-06
5.97185e-06
4.74572e-06
4.54761e-06
4.23039e-06
3.28484e-06
3.69139e-06
2.19556e-06
3.11075e-06
1.29667e-06
2.47337e-06
6.10456e-07
1.7747e-06
1.6554e-07
1.03234e-06
3.04414e-07
1.91522e-07
-5.98972e-07
6.85496e-07
-1.70926e-06
1.41217e-06
-2.66747e-06
2.30688e-06
-3.42425e-06
3.30725e-06
-3.95199e-06
4.35362e-06
-4.24278e-06
5.391e-06
-4.3058e-06
6.37112e-06
-4.16399e-06
7.25397e-06
-3.85021e-06
8.00874e-06
-3.40322e-06
8.61381e-06
-2.8637e-06
9.05616e-06
-2.27087e-06
9.33006e-06
-1.65945e-06
9.43543e-06
-1.05754e-06
9.37587e-06
-4.85104e-07
9.15661e-06
4.67104e-08
8.78246e-06
5.35643e-07
8.25599e-06
9.87531e-07
7.57603e-06
1.41519e-06
6.73658e-06
1.83659e-06
5.72627e-06
2.27285e-06
4.52833e-06
2.74605e-06
3.12108e-06
3.27727e-06
1.47879e-06
3.88486e-06
-4.2729e-07
4.58352e-06
-2.62767e-06
5.38361e-06
-5.15347e-06
6.29132e-06
-8.03529e-06
7.30911e-06
-1.13022e-05
8.43624e-06
-1.49807e-05
9.6692e-06
-1.90936e-05
1.1002e-05
-2.36588e-05
1.24261e-05
-2.8688e-05
1.39301e-05
-3.41857e-05
1.54995e-05
-4.01475e-05
1.71164e-05
-4.65595e-05
1.87594e-05
-5.33976e-05
2.04038e-05
-6.06268e-05
2.20222e-05
-6.82021e-05
2.35852e-05
-7.60689e-05
2.50624e-05
-8.41646e-05
2.64237e-05
-9.24202e-05
2.76401e-05
-0.000100763
2.86853e-05
-0.000109117
2.95364e-05
-0.00011741
3.01746e-05
-0.000125568
3.05855e-05
-0.000133525
3.07598e-05
-0.000141218
3.06924e-05
-0.000148592
3.03827e-05
-0.000155598
2.98338e-05
-0.000162197
2.90518e-05
-0.000168352
2.80456e-05
-0.000174035
2.68256e-05
-0.000179225
2.54038e-05
-0.000183904
2.37929e-05
-0.000188058
2.20061e-05
-0.000191677
2.00564e-05
-0.000194755
1.79568e-05
-0.000197285
1.572e-05
-0.000199266
1.33584e-05
-0.000200694
1.08839e-05
-0.000201567
8.3083e-06
-0.000201885
5.64291e-06
-0.000201646
2.89919e-06
-0.000200856
1.01891e-07
-0.0001995
-2.77119e-06
-0.00019759
-5.67645e-06
-0.000195126
-8.60903e-06
-0.000192107
-1.15542e-05
-0.000188535
-1.4495e-05
-0.000184415
-1.74134e-05
-0.00017975
-2.02894e-05
-0.000174548
-2.3101e-05
-0.00016882
-2.58241e-05
-0.000162578
-2.8433e-05
-0.00015584
-3.08996e-05
-0.000148628
-3.31946e-05
-0.000140967
-3.52877e-05
-0.00013289
-3.71476e-05
-0.000124434
-3.87435e-05
-0.000115642
-4.00455e-05
-0.000106565
-4.10257e-05
-9.72586e-05
-4.16593e-05
-8.77836e-05
-4.19257e-05
-7.8207e-05
-4.18095e-05
-6.85995e-05
-4.1302e-05
-5.90351e-05
-4.04015e-05
-4.95896e-05
-3.91141e-05
-4.03393e-05
-3.74543e-05
-3.13592e-05
-3.54448e-05
-2.27216e-05
-3.31163e-05
-1.44946e-05
-3.05067e-05
-6.74175e-06
-2.76598e-05
4.80965e-07
-2.46244e-05
7.12865e-06
-2.14552e-05
1.31567e-05
-1.82029e-05
1.85334e-05
-1.49245e-05
2.32361e-05
-1.16748e-05
2.72503e-05
-8.50552e-06
3.05708e-05
-5.46542e-06
3.31933e-05
-2.59907e-06
3.51557e-05
4.90829e-08
3.64577e-05
2.46471e-06
3.71392e-05
4.60015e-06
3.72415e-05
6.44383e-06
3.68145e-05
7.98484e-06
3.5915e-05
9.22084e-06
3.46059e-05
1.01578e-05
3.29533e-05
1.08095e-05
3.1025e-05
1.11968e-05
2.88881e-05
1.13462e-05
2.66066e-05
1.12888e-05
2.42394e-05
1.10578e-05
2.18392e-05
1.06878e-05
1.94512e-05
1.02122e-05
1.71127e-05
9.6618e-06
1.48534e-05
9.06361e-06
1.26959e-05
8.43895e-06
1.06573e-05
7.80231e-06
8.75036e-06
7.16022e-06
6.98549e-06
6.51059e-06
5.37303e-06
5.84284e-06
3.9252e-06
5.13922e-06
2.65823e-06
4.37772e-06
1.59451e-06
3.53709e-06
7.65021e-07
2.60418e-06
2.12955e-07
1.58441e-06
5.17369e-07
2.1193e-07
-8.10902e-07
7.54836e-07
-2.25216e-06
1.5455e-06
-3.45813e-06
2.50683e-06
-4.38558e-06
3.56629e-06
-5.01146e-06
4.65666e-06
-5.33315e-06
5.71771e-06
-5.36684e-06
6.69791e-06
-5.14419e-06
7.55562e-06
-4.70792e-06
8.25945e-06
-4.10704e-06
8.78783e-06
-3.39209e-06
9.12792e-06
-2.61096e-06
9.27392e-06
-1.80545e-06
9.22508e-06
-1.0087e-06
8.98348e-06
-2.4351e-07
8.5518e-06
4.78392e-07
7.93128e-06
1.15617e-06
7.11981e-06
1.79899e-06
6.11064e-06
2.42436e-06
4.89145e-06
3.05579e-06
3.44408e-06
3.72022e-06
1.74494e-06
4.44518e-06
-2.34306e-07
5.25651e-06
-2.52546e-06
6.17601e-06
-5.16227e-06
7.22034e-06
-8.17912e-06
8.40046e-06
-1.16095e-05
9.7217e-06
-1.54846e-05
1.11842e-05
-1.98319e-05
1.27835e-05
-2.46737e-05
1.4511e-05
-3.00258e-05
1.63541e-05
-3.58959e-05
1.82961e-05
-4.22816e-05
2.03159e-05
-4.91701e-05
2.2388e-05
-5.65362e-05
2.44825e-05
-6.43426e-05
2.65657e-05
-7.25397e-05
2.86009e-05
-8.10671e-05
3.05495e-05
-8.98546e-05
3.23727e-05
-9.88253e-05
3.4033e-05
-0.000107898
3.54959e-05
-0.000116988
3.6731e-05
-0.000126017
3.77135e-05
-0.000134905
3.84243e-05
-0.000143581
3.88507e-05
-0.000151981
3.8986e-05
-0.00016005
3.88291e-05
-0.000167742
3.83838e-05
-0.000175017
3.76579e-05
-0.000181846
3.66624e-05
-0.000188205
3.54108e-05
-0.000194077
3.39178e-05
-0.000199451
3.21993e-05
-0.000204318
3.02711e-05
-0.000208674
2.81492e-05
-0.000212517
2.58488e-05
-0.000215845
2.33847e-05
-0.000218659
2.07708e-05
-0.000220959
1.80202e-05
-0.000222746
1.51452e-05
-0.00022402
1.21575e-05
-0.00022478
9.06827e-06
-0.000225025
5.88846e-06
-0.000224756
2.63024e-06
-0.000223961
-6.93001e-07
-0.000222653
-4.07982e-06
-0.00022082
-7.50926e-06
-0.00021846
-1.09686e-05
-0.000215571
-1.44436e-05
-0.000212149
-1.79171e-05
-0.000208192
-2.13705e-05
-0.000203699
-2.47824e-05
-0.00019867
-2.81293e-05
-0.00019311
-3.1385e-05
-0.000187022
-3.45206e-05
-0.000180416
-3.7505e-05
-0.000173307
-4.03046e-05
-0.00016571
-4.28841e-05
-0.000157651
-4.52069e-05
-0.000149158
-4.7236e-05
-0.000140269
-4.8935e-05
-0.000131025
-5.02689e-05
-0.000121479
-5.12059e-05
-0.000111686
-5.17183e-05
-0.000101711
-5.17843e-05
-9.16245e-05
-5.1389e-05
-8.14999e-05
-5.05261e-05
-7.14158e-05
-4.91982e-05
-6.14521e-05
-4.7418e-05
-5.16888e-05
-4.52082e-05
-4.22039e-05
-4.26012e-05
-3.30721e-05
-3.96385e-05
-2.43624e-05
-3.63695e-05
-1.6137e-05
-3.28498e-05
-8.45224e-06
-2.914e-05
-1.3531e-06
-2.5302e-05
5.12292e-06
-2.14005e-05
1.09455e-05
-1.74974e-05
1.60938e-05
-1.36538e-05
2.0555e-05
-9.92669e-06
2.43245e-05
-6.3685e-06
2.74001e-05
-3.02658e-06
2.98109e-05
5.39131e-08
3.15592e-05
2.85189e-06
3.26787e-05
5.32429e-06
3.32059e-05
7.45763e-06
3.31855e-05
9.24127e-06
3.26695e-05
1.06738e-05
3.17163e-05
1.17627e-05
3.03888e-05
1.25244e-05
2.87522e-05
1.29828e-05
2.68722e-05
1.31687e-05
2.48127e-05
1.31173e-05
2.26336e-05
1.2867e-05
2.03889e-05
1.24568e-05
1.81265e-05
1.19243e-05
1.58865e-05
1.13036e-05
1.37023e-05
1.06231e-05
1.16007e-05
9.9039e-06
9.60339e-06
9.15757e-06
7.72852e-06
8.38547e-06
5.99305e-06
7.57831e-06
4.41507e-06
6.7172e-06
3.01659e-06
5.7762e-06
1.82672e-06
4.72696e-06
8.85598e-07
3.5453e-06
2.49698e-07
2.22031e-06
7.67066e-07
2.28186e-07
-1.03909e-06
8.08883e-07
-2.83286e-06
1.64655e-06
-4.2958e-06
2.65227e-06
-5.3913e-06
3.74356e-06
-6.10275e-06
4.8457e-06
-6.43528e-06
5.89344e-06
-6.41458e-06
6.83247e-06
-6.08323e-06
7.62014e-06
-5.49559e-06
8.22519e-06
-4.71209e-06
8.6268e-06
-3.79369e-06
8.81284e-06
-2.797e-06
8.77775e-06
-1.77036e-06
8.52007e-06
-7.51013e-07
8.03998e-06
2.36576e-07
7.33695e-06
1.18142e-06
6.40765e-06
2.08547e-06
5.24417e-06
2.96247e-06
3.83297e-06
3.83556e-06
2.15434e-06
4.73442e-06
1.82593e-07
5.69196e-06
-2.11322e-06
6.741e-06
-4.76771e-06
7.91099e-06
-7.81771e-06
9.22601e-06
-1.13004e-05
1.07031e-05
-1.52516e-05
1.23516e-05
-1.97035e-05
1.41736e-05
-2.46835e-05
1.61642e-05
-3.02122e-05
1.83122e-05
-3.63014e-05
2.06003e-05
-4.29528e-05
2.30056e-05
-5.0156e-05
2.54993e-05
-5.78873e-05
2.80471e-05
-6.6109e-05
3.06097e-05
-7.47696e-05
3.31431e-05
-8.38047e-05
3.56008e-05
-9.31386e-05
3.79348e-05
-0.000102687
4.00983e-05
-0.000112362
4.20473e-05
-0.000122072
4.37429e-05
-0.000131728
4.51525e-05
-0.000141248
4.62509e-05
-0.000150555
4.70206e-05
-0.000159583
4.7452e-05
-0.000168275
4.75425e-05
-0.000176585
4.72958e-05
-0.000184476
4.67206e-05
-0.000191922
4.58298e-05
-0.000198903
4.46391e-05
-0.000205407
4.31663e-05
-0.000211426
4.14299e-05
-0.000216957
3.94489e-05
-0.000222
3.7242e-05
-0.000226556
3.4827e-05
-0.000230628
3.22211e-05
-0.000234219
2.944e-05
-0.000237333
2.64986e-05
-0.000239972
2.34102e-05
-0.00024214
2.01874e-05
-0.000243836
1.68416e-05
-0.000245062
1.33835e-05
-0.000245817
9.8232e-06
-0.000246099
6.1706e-06
-0.000245905
2.43621e-06
-0.000245228
-1.36974e-06
-0.00024407
-5.23798e-06
-0.000242423
-9.15632e-06
-0.00024028
-1.31117e-05
-0.000237634
-1.70894e-05
-0.000234478
-2.10729e-05
-0.000230806
-2.50432e-05
-0.00022661
-2.89786e-05
-0.000221884
-3.28546e-05
-0.000216626
-3.66436e-05
-0.000210831
-4.03148e-05
-0.000204502
-4.3834e-05
-0.000197643
-4.71642e-05
-0.000190261
-5.02658e-05
-0.000182371
-5.30968e-05
-0.000173993
-5.56141e-05
-0.000165154
-5.77743e-05
-0.000155888
-5.95348e-05
-0.000146238
-6.08555e-05
-0.000136256
-6.17004e-05
-0.000126001
-6.20392e-05
-0.000115541
-6.18492e-05
-0.00010495
-6.11169e-05
-9.43095e-05
-5.98391e-05
-8.37031e-05
-5.80245e-05
-7.32176e-05
-5.56936e-05
-6.29395e-05
-5.28793e-05
-5.29524e-05
-4.96256e-05
-4.3335e-05
-4.59868e-05
-3.41593e-05
-4.20255e-05
-2.5489e-05
-3.78103e-05
-1.73777e-05
-3.34133e-05
-9.87006e-06
-2.89081e-05
-3.00014e-06
-2.43673e-05
3.20684e-06
-1.98608e-05
8.73407e-06
-1.54539e-05
1.35727e-05
-1.12071e-05
1.77208e-05
-7.17474e-06
2.11799e-05
-3.40512e-06
2.39732e-05
5.86175e-08
2.61075e-05
3.1899e-06
2.76126e-05
5.95259e-06
2.85212e-05
8.33266e-06
2.8874e-05
1.0321e-05
2.87188e-05
1.19179e-05
2.81097e-05
1.31335e-05
2.71057e-05
1.39868e-05
2.57692e-05
1.45052e-05
2.41635e-05
1.47231e-05
2.23508e-05
1.46796e-05
2.03907e-05
1.44169e-05
1.83377e-05
1.39773e-05
1.62405e-05
1.34007e-05
1.41418e-05
1.27219e-05
1.20776e-05
1.19681e-05
1.00786e-05
1.11565e-05
8.17149e-06
1.02926e-05
6.38089e-06
9.36891e-06
4.73194e-06
8.36614e-06
3.25354e-06
7.2546e-06
1.98215e-06
5.99835e-06
9.66584e-07
4.56087e-06
2.74234e-07
2.91266e-06
1.0413e-06
2.41535e-07
-1.28062e-06
8.50805e-07
-3.44213e-06
1.7201e-06
-5.1651e-06
2.74898e-06
-6.42017e-06
3.84531e-06
-7.19907e-06
4.92721e-06
-7.51719e-06
5.92493e-06
-7.4123e-06
6.78201e-06
-6.9403e-06
7.45544e-06
-6.16902e-06
7.91484e-06
-5.17149e-06
8.14069e-06
-4.01955e-06
8.12196e-06
-2.77827e-06
7.85335e-06
-1.50175e-06
7.33251e-06
-2.30167e-07
6.5571e-06
1.01199e-06
5.52261e-06
2.2159e-06
4.2201e-06
3.38798e-06
2.63481e-06
4.54776e-06
7.45482e-07
5.72489e-06
-1.47567e-06
6.95557e-06
-4.06205e-06
8.27834e-06
-7.05118e-06
9.73013e-06
-1.04829e-05
1.13427e-05
-1.4397e-05
1.31401e-05
-1.88308e-05
1.51369e-05
-2.38175e-05
1.73382e-05
-2.93832e-05
1.97393e-05
-3.55454e-05
2.23265e-05
-4.23111e-05
2.50778e-05
-4.96742e-05
2.79634e-05
-5.76148e-05
3.09462e-05
-6.60975e-05
3.39819e-05
-7.50712e-05
3.70209e-05
-8.44701e-05
4.00086e-05
-9.42151e-05
4.28882e-05
-0.000104217
4.56029e-05
-0.000114381
4.80983e-05
-0.000124608
5.03253e-05
-0.000134802
5.22419e-05
-0.000144874
5.38146e-05
-0.000154741
5.50196e-05
-0.000164333
5.58423e-05
-0.000173589
5.62771e-05
-0.000182463
5.63262e-05
-0.000190919
5.59983e-05
-0.000198931
5.53074e-05
-0.000206481
5.42709e-05
-0.00021356
5.2909e-05
-0.000220164
5.1243e-05
-0.000226292
4.92947e-05
-0.000231948
4.70859e-05
-0.000237136
4.46372e-05
-0.000241863
4.19685e-05
-0.000246134
3.9098e-05
-0.000249956
3.60427e-05
-0.000253334
3.28181e-05
-0.000256273
2.9438e-05
-0.000258778
2.59152e-05
-0.000260852
2.22609e-05
-0.000262496
1.84857e-05
-0.000263711
1.45989e-05
-0.000264497
1.06094e-05
-0.000264852
6.52575e-06
-0.000264772
2.35585e-06
-0.000264252
-1.88932e-06
-0.000263291
-6.19934e-06
-0.00026188
-1.05675e-05
-0.00026001
-1.49812e-05
-0.000257673
-1.94264e-05
-0.000254859
-2.38876e-05
-0.000251555
-2.83465e-05
-0.000247752
-3.27818e-05
-0.000243437
-3.71692e-05
-0.0002386
-4.14807e-05
-0.000233231
-4.56842e-05
-0.000227321
-4.97442e-05
-0.000220864
-5.3621e-05
-0.000213858
-5.72713e-05
-0.000206306
-6.06488e-05
-0.000198216
-6.37045e-05
-0.000189602
-6.63881e-05
-0.000180488
-6.86491e-05
-0.000170905
-7.04384e-05
-0.000160895
-7.17103e-05
-0.00015051
-7.24241e-05
-0.000139813
-7.25468e-05
-0.000128875
-7.2055e-05
-0.000117777
-7.09367e-05
-0.000106608
-6.91931e-05
-9.54623e-05
-6.68397e-05
-8.44348e-05
-6.39068e-05
-7.36217e-05
-6.04387e-05
-6.31152e-05
-5.64933e-05
-5.30013e-05
-5.21394e-05
-4.33571e-05
-4.74546e-05
-3.42487e-05
-4.25217e-05
-2.57306e-05
-3.74262e-05
-1.7845e-05
-3.22529e-05
-1.06225e-05
-2.70832e-05
-4.0833e-06
-2.19932e-05
1.76187e-06
-1.70523e-05
6.90976e-06
-1.23226e-05
1.13634e-05
-7.85877e-06
1.513e-05
-3.708e-06
1.82295e-05
9.03786e-08
2.06757e-05
3.50646e-06
2.24954e-05
6.51293e-06
2.37201e-05
9.09629e-06
2.43877e-05
1.12503e-05
2.45429e-05
1.29783e-05
2.42363e-05
1.42934e-05
2.35235e-05
1.5218e-05
2.24636e-05
1.57829e-05
2.11174e-05
1.60259e-05
1.95451e-05
1.59892e-05
1.78048e-05
1.57175e-05
1.59509e-05
1.52546e-05
1.40327e-05
1.46401e-05
1.20942e-05
1.39066e-05
1.01745e-05
1.30763e-05
8.30847e-06
1.21586e-05
6.52871e-06
1.11487e-05
4.86804e-06
1.00268e-05
3.36274e-06
8.75991e-06
2.05658e-06
7.30451e-06
1.00592e-06
5.61153e-06
2.86048e-07
3.63253e-06
1.32735e-06
2.52574e-07
-1.5332e-06
8.82042e-07
-4.0716e-06
1.76806e-06
-6.05112e-06
2.79877e-06
-7.45088e-06
3.87281e-06
-8.27312e-06
4.90179e-06
-8.54616e-06
5.81218e-06
-8.32269e-06
6.54621e-06
-7.67434e-06
7.0614e-06
-6.6842e-06
7.32889e-06
-5.43898e-06
7.33092e-06
-4.02157e-06
7.0577e-06
-2.50505e-06
6.5041e-06
-9.48156e-07
5.6662e-06
6.07737e-07
4.5386e-06
2.13959e-06
3.11169e-06
3.64281e-06
1.37007e-06
5.12961e-06
-7.08824e-07
6.62665e-06
-3.15449e-06
8.17055e-06
-6.00261e-06
9.8037e-06
-9.29355e-06
1.15693e-05
-1.30699e-05
1.35065e-05
-1.73741e-05
1.56468e-05
-2.2245e-05
1.8011e-05
-2.77159e-05
2.06079e-05
-3.38115e-05
2.34338e-05
-4.05455e-05
2.64733e-05
-4.79186e-05
2.96997e-05
-5.59168e-05
3.3076e-05
-6.45094e-05