/*--------------------------------*- C++ -*----------------------------------*\
| =========                 |                                                 |
| \\      /  F ield         | OpenFOAM: The Open Source CFD Toolbox           |
|  \\    /   O peration     | Version:  2406                                  |
|   \\  /    A nd           | Website:  www.openfoam.com                      |
|    \\/     M anipulation  |                                                 |
\*---------------------------------------------------------------------------*/
FoamFile
{
    version     2.0;
    format      ascii;
    arch        "LSB;label=32;scalar=64";
    class       volScalarField;
    location    "7.75";
    object      p;
}
// * * * * * * * * * * * * * * * * * * * * * * * * * * * * * * * * * * * * * //

dimensions      [0 2 -2 0 0 0 0];

internalField   nonuniform List<scalar> 
3600
(
0.0113551
0.0113474
0.011345
0.011339
0.0113417
0.0113425
0.0113511
0.0113584
0.0113721
0.0113849
0.011403
0.0114208
0.0114429
0.0114653
0.0114914
0.011518
0.011548
0.0115787
0.0116122
0.0116466
0.0116833
0.0117208
0.0117599
0.0117995
0.01184
0.0118804
0.0119209
0.0119605
0.011999
0.0120357
0.0120703
0.0121018
0.01213
0.0121543
0.0121741
0.0121892
0.0121992
0.0122039
0.0122033
0.0121975
0.0121865
0.012171
0.012151
0.0121275
0.0121006
0.0120715
0.0120402
0.0120083
0.0119753
0.0119433
0.0119112
0.0118815
0.0118525
0.0118273
0.0118036
0.0117851
0.0117687
0.0117595
0.0117527
0.0117543
0.0113626
0.0113547
0.011355
0.0113507
0.0113553
0.0113569
0.0113663
0.0113737
0.0113875
0.0114002
0.0114182
0.0114356
0.0114576
0.0114796
0.0115053
0.0115315
0.011561
0.0115911
0.0116239
0.0116576
0.0116934
0.0117298
0.0117678
0.0118062
0.0118454
0.0118843
0.0119232
0.0119612
0.011998
0.0120329
0.0120656
0.0120954
0.0121218
0.0121444
0.0121626
0.0121762
0.0121849
0.0121886
0.012187
0.0121806
0.0121691
0.0121534
0.0121335
0.0121102
0.0120837
0.0120553
0.0120248
0.0119938
0.011962
0.0119311
0.0119004
0.0118721
0.0118448
0.0118213
0.0117994
0.0117828
0.0117681
0.0117603
0.011754
0.0117557
0.0113653
0.0113542
0.0113549
0.0113498
0.011355
0.0113565
0.0113663
0.0113737
0.0113878
0.0114005
0.0114186
0.011436
0.011458
0.01148
0.0115057
0.0115319
0.0115613
0.0115914
0.0116243
0.0116579
0.0116937
0.0117302
0.0117683
0.0118067
0.011846
0.011885
0.0119241
0.0119622
0.0119992
0.0120342
0.0120671
0.012097
0.0121235
0.0121461
0.0121643
0.0121778
0.0121863
0.0121897
0.0121877
0.0121808
0.0121689
0.0121526
0.012132
0.0121081
0.0120809
0.0120519
0.0120208
0.0119893
0.0119569
0.0119256
0.0118946
0.011866
0.0118385
0.011815
0.011793
0.0117765
0.0117618
0.011754
0.0117478
0.0117495
0.0113705
0.0113569
0.0113587
0.0113535
0.0113602
0.0113619
0.0113727
0.0113803
0.0113948
0.0114074
0.0114257
0.011443
0.0114649
0.0114867
0.0115123
0.0115382
0.0115674
0.0115971
0.0116296
0.0116628
0.0116982
0.0117342
0.0117718
0.0118097
0.0118484
0.0118869
0.0119253
0.0119628
0.0119991
0.0120335
0.0120656
0.0120948
0.0121206
0.0121423
0.0121597
0.0121723
0.0121799
0.0121823
0.0121794
0.0121716
0.0121587
0.0121416
0.0121201
0.0120955
0.0120677
0.0120382
0.0120067
0.0119751
0.0119426
0.0119115
0.0118807
0.0118527
0.0118258
0.011803
0.0117819
0.0117662
0.0117524
0.0117451
0.0117391
0.0117405
0.0113658
0.0113493
0.0113514
0.011345
0.0113523
0.0113537
0.0113651
0.0113726
0.0113876
0.0114002
0.0114188
0.0114361
0.0114583
0.0114801
0.0115059
0.0115319
0.0115613
0.0115913
0.0116241
0.0116576
0.0116934
0.0117298
0.0117679
0.0118064
0.0118458
0.011885
0.0119242
0.0119624
0.0119996
0.0120348
0.0120678
0.0120977
0.012124
0.0121462
0.0121639
0.0121766
0.012184
0.0121861
0.0121825
0.0121739
0.01216
0.0121416
0.0121188
0.0120928
0.0120636
0.0120326
0.0119997
0.0119668
0.0119332
0.011901
0.0118693
0.0118405
0.011813
0.0117897
0.0117682
0.0117522
0.0117382
0.0117306
0.0117246
0.0117256
0.0113599
0.0113414
0.0113441
0.0113373
0.0113456
0.0113471
0.0113593
0.0113668
0.0113824
0.0113951
0.011414
0.0114313
0.0114537
0.0114755
0.0115015
0.0115275
0.011557
0.0115871
0.01162
0.0116536
0.0116896
0.0117262
0.0117646
0.0118034
0.0118431
0.0118827
0.0119223
0.011961
0.0119986
0.0120341
0.0120674
0.0120974
0.0121239
0.012146
0.0121633
0.0121756
0.0121822
0.0121834
0.0121787
0.0121688
0.0121534
0.0121335
0.0121091
0.0120815
0.0120507
0.0120184
0.0119842
0.0119501
0.0119156
0.0118828
0.0118507
0.0118217
0.0117941
0.011771
0.0117497
0.011734
0.0117202
0.0117128
0.0117069
0.0117077
0.0113422
0.0113219
0.0113248
0.0113171
0.0113259
0.0113271
0.0113398
0.0113474
0.0113634
0.0113762
0.0113956
0.0114132
0.011436
0.0114582
0.0114846
0.0115111
0.0115413
0.0115719
0.0116056
0.01164
0.011677
0.0117147
0.0117543
0.0117943
0.0118355
0.0118765
0.0119178
0.011958
0.0119972
0.0120344
0.012069
0.0121004
0.0121279
0.0121508
0.0121686
0.0121809
0.0121873
0.0121878
0.0121821
0.0121708
0.0121537
0.0121319
0.0121054
0.0120756
0.0120426
0.0120081
0.0119718
0.0119359
0.0118996
0.0118654
0.011832
0.011802
0.0117736
0.0117499
0.011728
0.0117121
0.0116979
0.0116905
0.0116844
0.0116853
0.011321
0.0112995
0.0113028
0.0112949
0.0113043
0.0113056
0.011319
0.0113267
0.0113433
0.0113563
0.0113761
0.011394
0.0114173
0.0114398
0.0114668
0.0114937
0.0115245
0.0115558
0.0115902
0.0116255
0.0116634
0.0117021
0.0117429
0.0117842
0.0118268
0.0118693
0.011912
0.0119537
0.0119944
0.0120329
0.0120688
0.0121011
0.0121293
0.0121526
0.0121705
0.0121825
0.0121881
0.0121874
0.0121801
0.0121669
0.0121476
0.0121234
0.0120944
0.0120622
0.0120266
0.0119898
0.0119514
0.0119138
0.0118759
0.0118406
0.0118061
0.0117757
0.0117468
0.0117231
0.0117012
0.0116854
0.0116714
0.0116643
0.0116583
0.0116595
0.0112871
0.0112645
0.011268
0.0112596
0.0112695
0.0112706
0.0112845
0.0112923
0.0113094
0.0113228
0.0113432
0.0113616
0.0113856
0.0114088
0.0114367
0.0114645
0.0114964
0.0115288
0.0115647
0.0116015
0.0116411
0.0116817
0.0117245
0.011768
0.0118129
0.0118579
0.0119031
0.0119474
0.0119905
0.0120314
0.0120694
0.0121036
0.0121333
0.0121577
0.012176
0.012188
0.012193
0.0121911
0.0121821
0.0121668
0.0121449
0.0121179
0.0120858
0.0120505
0.0120119
0.0119723
0.0119311
0.0118911
0.0118511
0.0118142
0.0117783
0.0117469
0.0117171
0.011693
0.0116706
0.0116548
0.0116405
0.0116337
0.0116277
0.0116296
0.0112483
0.011225
0.0112289
0.0112203
0.0112307
0.011232
0.0112464
0.0112545
0.0112723
0.011286
0.0113071
0.011326
0.0113508
0.0113746
0.0114035
0.0114323
0.0114653
0.011499
0.0115363
0.0115747
0.0116162
0.0116587
0.0117037
0.0117495
0.0117969
0.0118444
0.0118923
0.0119392
0.0119849
0.0120281
0.0120682
0.0121042
0.0121351
0.0121602
0.0121787
0.0121902
0.0121941
0.0121905
0.0121792
0.0121611
0.0121361
0.0121057
0.0120701
0.0120314
0.0119893
0.0119467
0.0119027
0.0118604
0.0118184
0.0117801
0.0117431
0.0117112
0.0116809
0.0116569
0.0116344
0.0116191
0.0116048
0.0115987
0.0115928
0.0115957
0.011196
0.0111721
0.0111762
0.0111673
0.0111782
0.0111794
0.0111944
0.0112027
0.0112211
0.0112353
0.0112572
0.0112768
0.0113026
0.0113275
0.0113576
0.0113878
0.0114224
0.0114579
0.0114973
0.0115378
0.0115818
0.0116271
0.011675
0.011724
0.0117747
0.0118258
0.0118772
0.0119277
0.0119768
0.0120232
0.0120663
0.0121047
0.0121375
0.0121638
0.0121828
0.0121939
0.0121966
0.0121912
0.0121772
0.0121559
0.0121272
0.012093
0.0120533
0.0120106
0.0119647
0.0119186
0.0118713
0.0118265
0.0117822
0.0117423
0.011704
0.0116714
0.0116405
0.0116165
0.0115938
0.0115789
0.0115647
0.0115592
0.0115534
0.0115574
0.0111382
0.0111138
0.0111181
0.0111093
0.0111206
0.011122
0.0111375
0.0111462
0.0111652
0.0111799
0.0112025
0.0112228
0.0112496
0.0112755
0.0113069
0.0113384
0.0113747
0.011412
0.0114534
0.0114963
0.0115429
0.011591
0.011642
0.0116944
0.0117486
0.0118034
0.0118586
0.0119128
0.0119655
0.0120154
0.0120614
0.0121022
0.0121368
0.0121641
0.0121831
0.0121934
0.0121944
0.0121864
0.0121691
0.012144
0.0121109
0.0120723
0.0120279
0.0119809
0.0119308
0.0118811
0.0118307
0.0117835
0.0117372
0.0116961
0.0116569
0.0116241
0.0115932
0.0115696
0.0115472
0.0115331
0.0115192
0.0115148
0.0115093
0.0115145
0.011066
0.0110412
0.0110457
0.0110367
0.0110484
0.0110499
0.0110659
0.0110749
0.0110945
0.0111097
0.0111332
0.0111544
0.0111824
0.0112095
0.0112423
0.0112756
0.0113138
0.0113533
0.0113972
0.0114429
0.0114926
0.0115441
0.0115989
0.0116553
0.0117139
0.0117731
0.0118329
0.0118917
0.011949
0.012003
0.0120527
0.0120965
0.0121333
0.0121619
0.0121811
0.0121906
0.0121895
0.0121786
0.0121575
0.012128
0.0120901
0.0120465
0.0119971
0.0119454
0.0118908
0.0118374
0.0117838
0.0117342
0.011686
0.011644
0.0116039
0.0115713
0.0115404
0.0115176
0.0114956
0.0114825
0.0114689
0.0114656
0.0114604
0.0114671
0.010988
0.0109629
0.0109676
0.0109587
0.0109707
0.0109724
0.0109888
0.0109981
0.0110182
0.011034
0.0110582
0.0110801
0.011109
0.0111372
0.0111714
0.0112061
0.0112462
0.0112877
0.011334
0.0113824
0.0114351
0.0114901
0.0115487
0.0116092
0.0116722
0.0117361
0.0118007
0.0118644
0.0119262
0.0119846
0.0120381
0.012085
0.0121238
0.0121533
0.0121722
0.0121801
0.0121764
0.0121618
0.0121362
0.0121016
0.0120582
0.0120091
0.0119543
0.0118978
0.0118388
0.0117819
0.0117253
0.0116739
0.0116243
0.011582
0.0115419
0.0115101
0.0114799
0.0114586
0.0114374
0.0114258
0.0114129
0.0114111
0.0114062
0.0114145
0.0108947
0.0108692
0.0108741
0.010865
0.0108772
0.0108791
0.0108958
0.0109053
0.0109259
0.0109422
0.0109671
0.0109898
0.0110197
0.0110491
0.0110846
0.011121
0.011163
0.0112067
0.0112557
0.011307
0.0113631
0.0114218
0.0114845
0.0115496
0.0116175
0.0116866
0.0117567
0.0118258
0.011893
0.0119563
0.0120141
0.0120644
0.0121054
0.0121358
0.0121542
0.0121603
0.0121534
0.0121348
0.0121043
0.0120645
0.0120156
0.0119611
0.011901
0.0118399
0.0117766
0.0117165
0.0116572
0.0116043
0.0115538
0.0115118
0.0114722
0.0114419
0.0114129
0.0113935
0.0113736
0.0113639
0.0113518
0.0113516
0.0113472
0.0113571
0.0107959
0.0107702
0.0107752
0.0107662
0.0107786
0.0107804
0.0107973
0.010807
0.0108278
0.0108443
0.0108696
0.0108927
0.0109232
0.0109533
0.0109899
0.0110274
0.0110709
0.0111164
0.0111675
0.0112213
0.0112804
0.0113424
0.0114091
0.0114785
0.0115512
0.0116254
0.0117008
0.0117754
0.0118478
0.0119159
0.0119776
0.0120308
0.0120732
0.0121036
0.0121204
0.0121237
0.0121129
0.0120898
0.0120545
0.0120099
0.0119563
0.0118975
0.0118331
0.0117683
0.0117015
0.0116387
0.0115771
0.0115233
0.0114723
0.0114312
0.0113927
0.0113648
0.0113378
0.0113211
0.0113031
0.0112957
0.0112848
0.0112865
0.0112826
0.0112942
0.0106803
0.0106544
0.0106594
0.0106502
0.0106626
0.0106644
0.0106813
0.0106909
0.0107119
0.0107285
0.010754
0.0107775
0.0108085
0.0108393
0.0108767
0.0109153
0.01096
0.0110072
0.0110602
0.0111164
0.0111782
0.0112435
0.0113138
0.0113875
0.0114649
0.0115443
0.0116251
0.0117051
0.0117828
0.0118554
0.0119205
0.0119755
0.012018
0.0120467
0.0120601
0.012059
0.0120435
0.0120158
0.0119766
0.0119294
0.0118742
0.0118148
0.0117501
0.0116851
0.0116175
0.0115537
0.0114906
0.0114359
0.0113841
0.0113438
0.0113064
0.011281
0.0112562
0.0112427
0.0112269
0.0112222
0.0112128
0.0112163
0.0112129
0.0112261
0.0105602
0.0105343
0.0105393
0.01053
0.0105423
0.0105439
0.0105605
0.0105698
0.0105905
0.0106067
0.0106319
0.0106551
0.0106859
0.0107165
0.010754
0.0107928
0.010838
0.0108857
0.0109398
0.0109973
0.0110608
0.0111284
0.0112015
0.0112784
0.0113597
0.0114432
0.0115285
0.0116128
0.0116942
0.0117691
0.0118346
0.0118874
0.0119249
0.0119458
0.0119495
0.0119377
0.0119117
0.0118758
0.011832
0.0117848
0.0117342
0.0116835
0.0116297
0.011576
0.0115176
0.0114605
0.0114003
0.0113466
0.0112938
0.0112533
0.0112155
0.0111919
0.0111688
0.0111585
0.011145
0.0111432
0.0111351
0.0111405
0.0111377
0.0111523
0.0104217
0.0103956
0.0104005
0.0103909
0.0104028
0.0104039
0.0104201
0.0104289
0.010449
0.0104647
0.0104893
0.010512
0.0105423
0.0105724
0.0106095
0.010648
0.010693
0.0107408
0.0107951
0.0108531
0.0109176
0.0109864
0.0110612
0.0111403
0.0112241
0.0113105
0.0113985
0.011485
0.0115667
0.0116391
0.0116979
0.0117386
0.0117579
0.0117546
0.0117289
0.011685
0.0116282
0.0115673
0.0115088
0.0114609
0.0114246
0.0114023
0.0113867
0.0113758
0.0113582
0.0113351
0.0112982
0.011258
0.0112095
0.0111692
0.0111289
0.0111044
0.0110808
0.0110721
0.0110599
0.0110603
0.0110533
0.0110601
0.0110574
0.0110731
0.0102804
0.0102545
0.0102592
0.0102494
0.0102608
0.0102613
0.0102765
0.0102843
0.0103032
0.0103176
0.0103408
0.010362
0.0103906
0.0104192
0.0104545
0.0104913
0.0105347
0.0105809
0.0106337
0.0106904
0.0107537
0.0108218
0.0108961
0.0109749
0.0110587
0.0111449
0.0112316
0.0113144
0.011388
0.0114454
0.0114789
0.0114814
0.0114467
0.0113736
0.0112647
0.0111308
0.0109865
0.0108526
0.0107464
0.0106847
0.0106724
0.010711
0.0107862
0.0108856
0.0109831
0.0110668
0.0111158
0.0111357
0.0111205
0.011094
0.0110541
0.0110264
0.0109979
0.0109875
0.0109738
0.0109748
0.0109675
0.0109746
0.0109715
0.0109875
0.0101185
0.0100925
0.0100968
0.0100865
0.0100971
0.0100967
0.0101108
0.0101174
0.0101347
0.0101476
0.010169
0.0101882
0.0102148
0.0102411
0.0102739
0.0103082
0.0103488
0.0103923
0.010442
0.0104958
0.010556
0.0106209
0.010692
0.0107676
0.0108475
0.0109284
0.0110067
0.0110748
0.0111231
0.0111384
0.0111059
0.0110111
0.0108433
0.0106019
0.0102981
0.0099595
0.0096215
0.00932669
0.00911046
0.00900371
0.00901786
0.00915562
0.00939495
0.00970957
0.0100512
0.0103823
0.0106545
0.010853
0.0109597
0.0110023
0.0109892
0.0109653
0.0109297
0.0109124
0.0108924
0.01089
0.0108798
0.0108851
0.0108803
0.0108958
0.00995681
0.00993118
0.0099351
0.00992441
0.00993392
0.00993231
0.00994466
0.00994931
0.0099643
0.00997454
0.00999294
0.010009
0.0100318
0.0100543
0.0100828
0.0101126
0.0101482
0.0101863
0.0102303
0.010278
0.0103317
0.0103898
0.0104535
0.0105207
0.0105901
0.0106568
0.0107127
0.0107442
0.0107317
0.0106494
0.0104676
0.0101601
0.00971331
0.00913773
0.00846876
0.00776584
0.00709596
0.00652982
0.00612321
0.00592252
0.00594698
0.00620389
0.00666745
0.00730237
0.00803859
0.00880797
0.00951896
0.0101126
0.0105319
0.0107868
0.0108892
0.0109108
0.0108792
0.0108525
0.01082
0.0108084
0.0107907
0.0107909
0.0107824
0.0107959
0.00977174
0.00974615
0.00974946
0.009738
0.00974615
0.00974302
0.00975334
0.00975579
0.0097681
0.00977544
0.00979043
0.00980275
0.00982136
0.00983911
0.00986237
0.00988627
0.0099153
0.00994622
0.00998218
0.010021
0.0100648
0.0101118
0.0101627
0.0102147
0.0102642
0.0103019
0.0103118
0.0102676
0.0101307
0.00985245
0.00938186
0.00868503
0.0077612
0.00665546
0.0054471
0.00423938
0.00313225
0.00221946
0.00156748
0.0012305
0.0012303
0.00158147
0.00226212
0.00324396
0.00445228
0.00580438
0.00716964
0.00843068
0.00945679
0.0101926
0.0106152
0.0108057
0.010833
0.01081
0.0107616
0.0107336
0.0107021
0.010692
0.0106768
0.0106866
0.00959118
0.00956624
0.00956893
0.00955688
0.00956333
0.00955837
0.00956592
0.00956536
0.00957384
0.00957702
0.00958705
0.00959396
0.00960632
0.00961724
0.00963274
0.00964811
0.00966752
0.00968782
0.0097118
0.00973734
0.00976602
0.00979594
0.00982656
0.0098533
0.00986802
0.00985319
0.00977797
0.00959305
0.00922901
0.00860669
0.00765986
0.00637038
0.00478353
0.00300728
0.00117803
-0.000560798
-0.0020932
-0.00332401
-0.00419814
-0.00467007
-0.00472707
-0.00434939
-0.00355032
-0.00233314
-0.000750459
0.00113989
0.00320657
0.00530157
0.0072161
0.00878256
0.00986718
0.0104881
0.0107273
0.0107676
0.0107143
0.0106648
0.0106122
0.0105849
0.0105594
0.0105631
0.00938379
0.00935905
0.00936083
0.00934774
0.0093522
0.00934507
0.00934964
0.00934586
0.00935031
0.00934909
0.00935386
0.00935494
0.00936046
0.00936376
0.00937036
0.00937575
0.00938359
0.00939082
0.00939965
0.00940792
0.00941638
0.00942258
0.00942387
0.00941219
0.00937131
0.00926949
0.00905108
0.00863197
0.00790314
0.00676206
0.00515638
0.00312788
0.000805021
-0.0016264
-0.00398479
-0.00611384
-0.00791502
-0.00931986
-0.0103069
-0.0108527
-0.0109645
-0.010623
-0.00983825
-0.00858463
-0.00688065
-0.00472436
-0.00219522
0.000601138
0.00344164
0.00606924
0.00819019
0.00963866
0.0103988
0.0106678
0.010664
0.0105979
0.0105186
0.0104663
0.0104256
0.0104204
0.00918714
0.00916336
0.00916429
0.00915042
0.00915254
0.00914289
0.00914361
0.00913564
0.00913469
0.00912755
0.00912518
0.0091184
0.00911469
0.00910775
0.0091025
0.00909462
0.00908714
0.00907706
0.00906581
0.00905105
0.00903233
0.00900604
0.00896611
0.0088984
0.00877368
0.0085377
0.00809896
0.00732948
0.00608596
0.00427329
0.00190382
-0.000875584
-0.00383868
-0.00674176
-0.00939866
-0.011682
-0.0135416
-0.0149507
-0.0159264
-0.0164656
-0.0165961
-0.016302
-0.0156017
-0.014454
-0.0128612
-0.010765
-0.00817765
-0.00510074
-0.0016738
0.0018777
0.00517128
0.00781588
0.00953225
0.0103629
0.0105641
0.0105163
0.0104124
0.0103268
0.0102659
0.0102474
0.00895904
0.0089356
0.00893534
0.00892019
0.00891972
0.0089073
0.00890412
0.00889194
0.00888566
0.00887265
0.00886313
0.00884838
0.00883514
0.00881741
0.00879938
0.00877691
0.00875216
0.00872217
0.00868726
0.00864479
0.00859247
0.00852483
0.0084304
0.00828586
0.00804269
0.00761588
0.00686931
0.00563347
0.00375603
0.00119993
-0.00190898
-0.0053019
-0.00868263
-0.011801
-0.0145175
-0.0167635
-0.0185453
-0.0198681
-0.0207727
-0.0212603
-0.0213707
-0.021088
-0.0204483
-0.0194109
-0.0179925
-0.016112
-0.0137511
-0.0108152
-0.0073224
-0.00334537
0.000818529
0.00469464
0.00772729
0.00956803
0.0103108
0.01039
0.0102791
0.0101579
0.0100704
0.010033
0.00875023
0.00872815
0.00872682
0.00871078
0.00870736
0.00869181
0.00868376
0.00866627
0.00865305
0.00863242
0.0086136
0.00858853
0.00856304
0.00853163
0.00849749
0.00845682
0.00841064
0.00835608
0.00829202
0.00821533
0.00812124
0.00800148
0.00783705
0.00759164
0.0071914
0.00651355
0.00537589
0.00358395
0.00101815
-0.00225111
-0.00596315
-0.00975403
-0.0133167
-0.0164516
-0.0190976
-0.0212456
-0.0229411
-0.0241959
-0.0250518
-0.0254958
-0.0255695
-0.0252512
-0.0245984
-0.0235797
-0.0222489
-0.0205328
-0.0184339
-0.0158133
-0.0126155
-0.00874228
-0.00429437
0.000400545
0.00472322
0.00793081
0.00967039
0.0101618
0.0100915
0.00994336
0.00982468
0.00975805
0.00850371
0.00848208
0.00847934
0.00846183
0.00845536
0.0084366
0.00842393
0.00840149
0.00838188
0.00835423
0.00832668
0.00829185
0.00825445
0.00820949
0.00815897
0.00809944
0.0080305
0.00794939
0.00785309
0.00773793
0.00759569
0.00741454
0.00716541
0.00679595
0.00620181
0.00522052
0.00363123
0.00124389
-0.00198645
-0.00585398
-0.00998184
-0.0139668
-0.0175536
-0.0206259
-0.0232021
-0.0253089
-0.0270032
-0.0282754
-0.029151
-0.0295874
-0.0296234
-0.0292261
-0.0284783
-0.0273591
-0.0259715
-0.0242638
-0.0222924
-0.0199203
-0.017092
-0.0136026
-0.00937739
-0.00447594
0.000673513
0.00523666
0.00833249
0.00970371
0.00982009
0.00966033
0.00951864
0.00940479
0.00828798
0.00826812
0.0082642
0.00824579
0.00823592
0.00821361
0.00819521
0.00816659
0.00813874
0.00810209
0.00806338
0.00801621
0.00796395
0.00790238
0.00783205
0.00775006
0.00765428
0.00754219
0.00740846
0.00724877
0.00705073
0.00679812
0.00644985
0.00593514
0.005117
0.00379607
0.00172854
-0.00124042
-0.00505278
-0.00937077
-0.0137466
-0.017798
-0.0213606
-0.0244045
-0.0270062
-0.0291969
-0.0310195
-0.0324216
-0.033401
-0.033876
-0.0338814
-0.0333693
-0.0324511
-0.0311159
-0.0295231
-0.0276475
-0.025615
-0.0233125
-0.0207328
-0.0176375
-0.0138656
-0.00924565
-0.0038812
0.00157843
0.00611988
0.00871186
0.00946221
0.00925185
0.00914171
0.00894606
0.00802577
0.00800643
0.00800094
0.00798101
0.00796786
0.00794221
0.00791887
0.00788504
0.00785025
0.00780606
0.00775772
0.00769981
0.00763411
0.0075573
0.00746808
0.00736437
0.0072418
0.0070984
0.00692587
0.00671955
0.00646179
0.00613196
0.00567514
0.00500222
0.00394368
0.00227213
-0.000261986
-0.00375363
-0.00803658
-0.012667
-0.01718
-0.021255
-0.0248319
-0.0279473
-0.03071
-0.0331271
-0.0352109
-0.0368501
-0.0380123
-0.0385691
-0.0385558
-0.0379033
-0.0367572
-0.0351099
-0.0331831
-0.0309761
-0.0286942
-0.0262571
-0.0237312
-0.0208855
-0.0175575
-0.0134346
-0.00834896
-0.00259462
0.00304782
0.00699869
0.00887231
0.00872472
0.00864592
0.00837293
0.0078096
0.00779247
0.00778578
0.00776514
0.00774835
0.00771901
0.00768942
0.00764894
0.00760506
0.00755105
0.00749029
0.00741884
0.00733655
0.0072414
0.00712994
0.00700125
0.00684836
0.00667017
0.00645495
0.00619794
0.00587569
0.00546328
0.00489166
0.00405474
0.00275433
0.000745287
-0.0022126
-0.00614446
-0.0107886
-0.0156326
-0.0202362
-0.0243589
-0.0280358
-0.031345
-0.0344048
-0.0371766
-0.0396327
-0.0415935
-0.0429993
-0.0436714
-0.0436527
-0.0428478
-0.0414419
-0.0394223
-0.0370747
-0.0344152
-0.0317321
-0.0289796
-0.0263082
-0.023517
-0.0204918
-0.0168617
-0.0123115
-0.00674956
-0.000632928
0.00460872
0.00768049
0.0081712
0.00791008
0.00768749
0.00753448
0.00751782
0.00750955
0.0074875
0.00746755
0.00743519
0.00740088
0.00735564
0.00730507
0.00724398
0.00717369
0.00709184
0.00699591
0.00688555
0.00675455
0.00660369
0.00642268
0.00621203
0.00595567
0.00564976
0.00526398
0.00477079
0.00408666
0.00309309
0.00156748
-0.000741191
-0.00405744
-0.00833774
-0.013252
-0.0182508
-0.0229458
-0.0271706
-0.0310412
-0.0346497
-0.0381112
-0.0413242
-0.0442219
-0.0465494
-0.0482306
-0.0490328
-0.0490183
-0.0480584
-0.0463858
-0.0439699
-0.0411633
-0.0379841
-0.0348041
-0.0316065
-0.0286305
-0.025714
-0.0228095
-0.0195532
-0.0155715
-0.0105146
-0.00446036
0.00164316
0.00583016
0.00748845
0.00695604
0.00685755
0.00732544
0.00731145
0.0073021
0.00727972
0.00725617
0.00722038
0.0071797
0.00712792
0.00706795
0.00699703
0.00691389
0.00681843
0.00670537
0.00657663
0.00642282
0.00624702
0.00603511
0.00578991
0.00549045
0.00513468
0.00468505
0.00411314
0.00332229
0.00218663
0.000465411
-0.00208986
-0.00568773
-0.0102294
-0.0153451
-0.0204733
-0.0252845
-0.0296705
-0.033809
-0.0377867
-0.0417081
-0.0454001
-0.0487633
-0.0514666
-0.0534302
-0.0543641
-0.054362
-0.0532542
-0.0513304
-0.0485298
-0.0452741
-0.0415651
-0.0378552
-0.0341443
-0.0307615
-0.0275866
-0.0246426
-0.0216088
-0.0181011
-0.0136811
-0.00802319
-0.00168648
0.00352296
0.0063107
0.00592347
0.005771
0.00703964
0.0070259
0.00701511
0.00699164
0.0069655
0.00692759
0.00688314
0.00682797
0.00676252
0.00668624
0.00659495
0.00649106
0.00636585
0.00622415
0.00605242
0.00585715
0.00561913
0.00534502
0.00500749
0.00460845
0.00410176
0.00346183
0.00257914
0.0013285
-0.000545433
-0.00327998
-0.00707699
-0.0117974
-0.0170636
-0.0223107
-0.0272664
-0.0318533
-0.0362986
-0.0406646
-0.0450508
-0.0492061
-0.0530156
-0.0560682
-0.0582987
-0.0593513
-0.0593658
-0.0581198
-0.0559734
-0.0528219
-0.049163
-0.0449611
-0.0407473
-0.0365167
-0.0326893
-0.0291782
-0.0260828
-0.0231351
-0.0199717
-0.0161755
-0.0110881
-0.00505673
0.000907926
0.00449346
0.00486133
0.00435843
0.00684627
0.00683567
0.00682404
0.00680086
0.00677146
0.00673079
0.0066803
0.0066193
0.00654475
0.00645951
0.00635577
0.00623952
0.00609791
0.00593971
0.00574652
0.00552926
0.00526285
0.004959
0.00458315
0.00414285
0.00358285
0.00288359
0.00192435
0.000587663
-0.00139171
-0.00423529
-0.0081486
-0.0129721
-0.0183454
-0.0237044
-0.0288223
-0.0336244
-0.0383751
-0.0431015
-0.047909
-0.0524699
-0.056673
-0.0600266
-0.0624954
-0.0636491
-0.0636857
-0.0623179
-0.059988
-0.0565358
-0.0525441
-0.047921
-0.0432748
-0.0385705
-0.0343205
-0.0304519
-0.0271507
-0.0241883
-0.0212558
-0.0179884
-0.0135436
-0.00813285
-0.00186519
0.00221243
0.0036188
0.00263041
0.00655068
0.0065399
0.00652711
0.00650341
0.00647248
0.00643132
0.00637884
0.00631696
0.00623924
0.00615186
0.00604268
0.00592186
0.00577125
0.00560475
0.00539749
0.00516666
0.00487932
0.00455478
0.00414885
0.00367831
0.00307635
0.00233521
0.00132184
-6.33326e-05
-0.0020954
-0.00497186
-0.00891828
-0.0137671
-0.0192036
-0.0246571
-0.0299381
-0.034939
-0.0399584
-0.0449733
-0.0501188
-0.0549896
-0.0595071
-0.0630909
-0.0657579
-0.0669876
-0.0670517
-0.0655808
-0.0631134
-0.0594191
-0.0551782
-0.0502236
-0.0452458
-0.0401498
-0.0355463
-0.0313467
-0.0278403
-0.0248057
-0.0220272
-0.0191687
-0.0153718
-0.0107072
-0.00464906
-0.000357041
0.00188916
0.000558127
0.00638236
0.00637518
0.00636192
0.00633934
0.00630576
0.00626295
0.00620509
0.00613871
0.00605266
0.00595804
0.00583748
0.00570673
0.00554144
0.00536207
0.00513622
0.00488896
0.00457809
0.00423251
0.0037968
0.00329964
0.00266116
0.00188975
0.00084011
-0.000561685
-0.00259874
-0.00543865
-0.00933791
-0.0141341
-0.0195808
-0.025098
-0.0305234
-0.0356861
-0.0409106
-0.0461152
-0.0514867
-0.0565483
-0.0612799
-0.0650098
-0.0678248
-0.069103
-0.0692025
-0.0676559
-0.0651081
-0.0612421
-0.0568467
-0.051662
-0.0464691
-0.0410852
-0.0362274
-0.0317582
-0.028089
-0.0249654
-0.0223012
-0.0197445
-0.0165557
-0.0126447
-0.00720368
-0.00297872
-0.000328051
-0.00172595
0.00607561
0.0060675
0.00605353
0.00603126
0.0059978
0.005957
0.00589987
0.00583644
0.00575068
0.00565876
0.00553677
0.00540722
0.00523749
0.00505672
0.00482227
0.00457013
0.00424556
0.00389108
0.00343604
0.00292645
0.00226477
0.00148331
0.000419899
-0.000961749
-0.00295746
-0.00569115
-0.00946532
-0.0141219
-0.0195137
-0.0250418
-0.030577
-0.0358463
-0.0412019
-0.0464804
-0.051953
-0.0570669
-0.0618983
-0.0656724
-0.0685749
-0.0698637
-0.0700051
-0.0684119
-0.0658486
-0.061888
-0.0574395
-0.0521277
-0.0468409
-0.0412797
-0.036284
-0.0316282
-0.0278695
-0.0246727
-0.0221161
-0.0197785
-0.0171317
-0.01391
-0.00930269
-0.00538881
-0.00270926
-0.00395847
0.00594258
0.00593854
0.00592454
0.00590445
0.00586909
0.00582815
0.00576648
0.00570043
0.00560726
0.0055105
0.00537841
0.00524231
0.00505995
0.00487125
0.00462163
0.00436036
0.00401796
0.00365348
0.00317829
0.00265948
0.00197865
0.00119729
0.00013337
-0.00120383
-0.00312467
-0.00569864
-0.00927906
-0.0137107
-0.0189675
-0.0244358
-0.0300281
-0.0353441
-0.0407566
-0.0460004
-0.0514491
-0.0564762
-0.0612848
-0.0649955
-0.0679156
-0.069174
-0.0693611
-0.067754
-0.0652457
-0.0612737
-0.056877
-0.0515394
-0.0462763
-0.0406445
-0.0356292
-0.0308768
-0.0271155
-0.0238807
-0.0214485
-0.0192728
-0.0170974
-0.0144681
-0.0107484
-0.00730795
-0.00482183
-0.00582273
0.00561993
0.00561382
0.00559969
0.00558111
0.00554818
0.00551285
0.00545564
0.00539795
0.00530966
0.00522228
0.0050938
0.00496657
0.00478521
0.00460393
0.00435187
0.00409634
0.00374789
0.00338823
0.00290437
0.00239232
0.00170499
0.000943293
-0.000104323
-0.0013691
-0.00318703
-0.00555232
-0.00888078
-0.0129977
-0.0180297
-0.0233417
-0.0289243
-0.0342182
-0.0396279
-0.0447431
-0.0500661
-0.0548762
-0.0595484
-0.0630843
-0.0659518
-0.0671305
-0.0673641
-0.0657671
-0.0633811
-0.0594712
-0.0552249
-0.0499486
-0.0448172
-0.0392094
-0.0342908
-0.0295312
-0.0258642
-0.0226368
-0.0203645
-0.0183113
-0.0165432
-0.0143855
-0.0114919
-0.00857358
-0.00638253
-0.00711109
0.00553354
0.00553203
0.00551831
0.00550324
0.00546916
0.0054356
0.00537455
0.0053165
0.00522141
0.00513202
0.00499426
0.00486435
0.00467188
0.00448822
0.00422375
0.0039671
0.00360554
0.00324745
0.00275125
0.00224686
0.00155323
0.000816816
-0.000209955
-0.00139113
-0.00309513
-0.00522738
-0.00826656
-0.0119972
-0.0167115
-0.0217579
-0.027242
-0.0324415
-0.0377982
-0.0427243
-0.0478517
-0.0523511
-0.0567929
-0.0600603
-0.0628084
-0.0638619
-0.064137
-0.0625677
-0.0603571
-0.0565672
-0.0525505
-0.0474033
-0.0424919
-0.0369846
-0.0322649
-0.0275752
-0.024093
-0.0209145
-0.0188435
-0.0168842
-0.0154763
-0.0136746
-0.0115065
-0.00908079
-0.00721781
-0.00767611
0.00518555
0.00518026
0.00516719
0.00515533
0.00512677
0.00510395
0.00505222
0.00501003
0.00492547
0.00485428
0.00472589
0.00461445
0.00442861
0.00426278
0.00400158
0.00376244
0.00340123
0.00306206
0.00256519
0.00208546
0.00139601
0.000702297
-0.000294547
-0.00137502
-0.00295913
-0.00483901
-0.00757108
-0.0108552
-0.0151704
-0.0198258
-0.0251079
-0.0301184
-0.0353809
-0.0400759
-0.0449855
-0.0491193
-0.0532828
-0.056211
-0.058796
-0.0596788
-0.0599913
-0.0584462
-0.0564471
-0.0528023
-0.0490721
-0.0440922
-0.0394759
-0.0341274
-0.029706
-0.0251524
-0.0219497
-0.018855
-0.0170385
-0.0151451
-0.014069
-0.0124992
-0.0109336
-0.00888954
-0.0073206
-0.00750756
0.00515872
0.00515871
0.00514643
0.00513988
0.00511071
0.00509203
0.00503657
0.00499656
0.00490476
0.00483452
0.00469627
0.00458611
0.00438899
0.00422635
0.00395348
0.00372101
0.00334876
0.00302185
0.00251646
0.00205866
0.00136848
0.00071753
-0.000253803
-0.001235
-0.00270932
-0.00434451
-0.00677861
-0.00959609
-0.0134566
-0.0176126
-0.0225736
-0.027285
-0.0323935
-0.0368296
-0.0415239
-0.0452893
-0.0491687
-0.0517339
-0.0541344
-0.0548188
-0.0551576
-0.0536229
-0.0518423
-0.0483421
-0.0449229
-0.0401269
-0.0358581
-0.0307095
-0.0266659
-0.0222927
-0.0194437
-0.0164461
-0.0149285
-0.0130673
-0.0123139
-0.0108684
-0.00981501
-0.00802705
-0.00669577
-0.00660072
0.00476951
0.00476326
0.00475264
0.00475194
0.0047324
0.00473196
0.00469193
0.00467822
0.00460352
0.00456309
0.00444017
0.00436032
0.00417482
0.00404193
0.00377649
0.00357397
0.00320578
0.00291148
0.00240908
0.00199138
0.00130857
0.000716268
-0.000226813
-0.00109903
-0.00247393
-0.00386951
-0.00603198
-0.00838144
-0.0117714
-0.0153384
-0.0198728
-0.0241482
-0.0290259
-0.0331466
-0.037642
-0.0410481
-0.044686
-0.0468918
-0.0491296
-0.0495953
-0.0499651
-0.0484083
-0.0468483
-0.0434644
-0.040378
-0.0357644
-0.0319061
-0.0269867
-0.0234132
-0.0192478
-0.0168388
-0.0139335
-0.0127773
-0.0108987
-0.0104848
-0.00903783
-0.00842191
-0.00670919
-0.0055245
-0.00511044
0.0048173
0.00481738
0.00480784
0.00481523
0.00479513
0.00480209
0.00475704
0.00474843
0.00466381
0.00462725
0.00449117
0.00441631
0.00421636
0.00409182
0.00381209
0.0036233
0.00324213
0.00296931
0.00245693
0.00207237
0.00138671
0.000848042
-7.79211e-05
-0.000850711
-0.00214825
-0.00333205
-0.00526737
-0.00719036
-0.010136
-0.0130879
-0.0171198
-0.0208413
-0.0253815
-0.0291091
-0.033384
-0.0364411
-0.0398766
-0.0417561
-0.0438633
-0.0441181
-0.0445215
-0.0429234
-0.0415736
-0.0382851
-0.0355419
-0.0311155
-0.0277159
-0.0230448
-0.0200008
-0.0160388
-0.0141143
-0.0112619
-0.0105021
-0.00853831
-0.00849036
-0.00692933
-0.00673919
-0.0049526
-0.00387741
-0.00310115
0.00436225
0.00435246
0.00434601
0.00436374
0.00435871
0.00439544
0.00437319
0.00440593
0.00434542
0.00435435
0.00423893
0.00420922
0.00402418
0.00394322
0.00367237