/*--------------------------------*- C++ -*----------------------------------*\
| =========                 |                                                 |
| \\      /  F ield         | OpenFOAM: The Open Source CFD Toolbox           |
|  \\    /   O peration     | Version:  2406                                  |
|   \\  /    A nd           | Website:  www.openfoam.com                      |
|    \\/     M anipulation  |                                                 |
\*---------------------------------------------------------------------------*/
FoamFile
{
    version     2.0;
    format      ascii;
    arch        "LSB;label=32;scalar=64";
    class       volVectorField;
    location    "31.4";
    object      U_0;
}
// * * * * * * * * * * * * * * * * * * * * * * * * * * * * * * * * * * * * * //

dimensions      [0 1 -1 0 0 0 0];

internalField   nonuniform List<vector> 
3600
(
(4.10356e-05 -4.35409e-05 0)
(0.000448187 -0.000150226 0)
(0.00120898 -0.000225718 0)
(0.00212367 -0.000231731 0)
(0.00295838 -0.000192094 0)
(0.00359072 -0.000130715 0)
(0.00398055 -7.10629e-05 0)
(0.0041545 -2.73133e-05 0)
(0.00417055 -3.47194e-06 0)
(0.00408768 6.23981e-06 0)
(0.00394122 1.04444e-05 0)
(0.00372879 1.90906e-05 0)
(0.00341313 4.03765e-05 0)
(0.00293135 7.88491e-05 0)
(0.00220667 0.000135889 0)
(0.0011574 0.000211248 0)
(-0.000298318 0.000304173 0)
(-0.00223953 0.000413384 0)
(-0.00473857 0.000536379 0)
(-0.00785454 0.000669068 0)
(-0.0116237 0.000807483 0)
(-0.0160476 0.000950525 0)
(-0.0210811 0.00109961 0)
(-0.0266225 0.00125309 0)
(-0.0325066 0.00139937 0)
(-0.0385038 0.00151445 0)
(-0.0443271 0.00156552 0)
(-0.049649 0.00151998 0)
(-0.0541237 0.00135981 0)
(-0.0574073 0.00108478 0)
(-0.0591782 0.000688847 0)
(-0.059181 0.00016152 0)
(-0.0572575 -0.000456944 0)
(-0.0533439 -0.00111095 0)
(-0.0474705 -0.00175149 0)
(-0.0398131 -0.00232603 0)
(-0.0306778 -0.00277815 0)
(-0.0205059 -0.00305567 0)
(-0.00985204 -0.00311754 0)
(0.000650411 -0.00294305 0)
(0.0103457 -0.00253956 0)
(0.0186255 -0.00194687 0)
(0.0250063 -0.00123702 0)
(0.0291977 -0.000501386 0)
(0.0311548 0.000161856 0)
(0.0310518 0.000659712 0)
(0.0292511 0.000964631 0)
(0.0262637 0.00110398 0)
(0.0226287 0.0011149 0)
(0.018804 0.00103461 0)
(0.0151286 0.000906319 0)
(0.0118163 0.000763736 0)
(0.00896676 0.000626621 0)
(0.00659355 0.000505282 0)
(0.00465733 0.000404032 0)
(0.00309449 0.000322272 0)
(0.00184559 0.000252394 0)
(0.000879672 0.000181849 0)
(0.000248805 8.66617e-05 0)
(1.04914e-06 -3.40909e-06 0)
(0.000137809 -0.000440785 0)
(0.00124427 -0.00126547 0)
(0.00294568 -0.00175241 0)
(0.00488872 -0.00177995 0)
(0.00660842 -0.00147088 0)
(0.00786351 -0.000994448 0)
(0.00855293 -0.000501548 0)
(0.00869337 -8.81894e-05 0)
(0.0083613 0.000214402 0)
(0.00763108 0.000434454 0)
(0.00652787 0.000634227 0)
(0.00500385 0.000886805 0)
(0.00293873 0.00125397 0)
(0.000160099 0.00177431 0)
(-0.00352962 0.00246383 0)
(-0.00832905 0.00332309 0)
(-0.0144177 0.00434245 0)
(-0.0219352 0.00550219 0)
(-0.0309548 0.00676904 0)
(-0.0414517 0.00809159 0)
(-0.0532699 0.00939336 0)
(-0.0661017 0.010569 0)
(-0.0794949 0.0114924 0)
(-0.0928906 0.0120349 0)
(-0.105683 0.0120856 0)
(-0.117283 0.0115653 0)
(-0.127165 0.0104354 0)
(-0.134892 0.00869938 0)
(-0.140121 0.00640178 0)
(-0.142623 0.00362113 0)
(-0.142252 0.000461694 0)
(-0.138916 -0.00295487 0)
(-0.132592 -0.00649612 0)
(-0.123406 -0.00998908 0)
(-0.111526 -0.013249 0)
(-0.0972391 -0.0160754 0)
(-0.0809307 -0.0182672 0)
(-0.0631122 -0.0196344 0)
(-0.0444076 -0.0200213 0)
(-0.025543 -0.0193331 0)
(-0.00731034 -0.0175639 0)
(0.00948033 -0.0148182 0)
(0.0240714 -0.0113169 0)
(0.0358305 -0.00738214 0)
(0.0443162 -0.0033999 0)
(0.0493541 0.000232701 0)
(0.0510642 0.00319726 0)
(0.0498292 0.00531261 0)
(0.046245 0.00653589 0)
(0.0410504 0.00694877 0)
(0.0350066 0.00673707 0)
(0.0287708 0.00612533 0)
(0.0228271 0.00531929 0)
(0.0174678 0.00447535 0)
(0.0128185 0.00369136 0)
(0.00888887 0.00300674 0)
(0.00563851 0.0023992 0)
(0.00302748 0.00178659 0)
(0.00117574 0.00104977 0)
(0.000124492 0.000275911 0)
(0.000220333 -0.00118587 0)
(0.00180818 -0.00298289 0)
(0.00400779 -0.00388694 0)
(0.00638299 -0.00383319 0)
(0.00835065 -0.00307877 0)
(0.00962875 -0.00196083 0)
(0.010086 -0.000775061 0)
(0.00971063 0.000293814 0)
(0.00854294 0.00119162 0)
(0.00660431 0.00198026 0)
(0.00384329 0.002796 0)
(0.000115808 0.00379516 0)
(-0.00480438 0.0051064 0)
(-0.0111903 0.00680422 0)
(-0.0193165 0.00890698 0)
(-0.0294125 0.0113867 0)
(-0.0416124 0.0141745 0)
(-0.0558977 0.0171526 0)
(-0.0720417 0.0201388 0)
(-0.0895851 0.0228851 0)
(-0.107873 0.0251105 0)
(-0.12615 0.0265561 0)
(-0.143676 0.0270354 0)
(-0.159804 0.0264553 0)
(-0.174027 0.0248075 0)
(-0.185972 0.0221458 0)
(-0.195383 0.0185634 0)
(-0.202096 0.0141737 0)
(-0.206008 0.00909893 0)
(-0.207059 0.00347291 0)
(-0.205225 -0.00254702 0)
(-0.200523 -0.00878905 0)
(-0.192948 -0.0150848 0)
(-0.182553 -0.0212231 0)
(-0.169429 -0.0269577 0)
(-0.153745 -0.0320064 0)
(-0.135752 -0.036068 0)
(-0.115817 -0.038839 0)
(-0.0944303 -0.0400483 0)
(-0.0722144 -0.0394981 0)
(-0.0499054 -0.037112 0)
(-0.0283169 -0.0329741 0)
(-0.00827786 -0.0273477 0)
(0.00943627 -0.0206667 0)
(0.0241825 -0.0134849 0)
(0.0355188 -0.00640025 0)
(0.0432374 1.07931e-05 0)
(0.0473755 0.00528198 0)
(0.0482067 0.00912859 0)
(0.0462351 0.0114783 0)
(0.0421425 0.0124513 0)
(0.036681 0.0123188 0)
(0.0305676 0.0114308 0)
(0.0243916 0.010133 0)
(0.0185641 0.00870275 0)
(0.0133205 0.00730798 0)
(0.008775 0.00598116 0)
(0.00496289 0.00461447 0)
(0.00210769 0.00299423 0)
(0.000260311 0.00106725 0)
(0.00026745 -0.0021765 0)
(0.00211812 -0.00511576 0)
(0.0044975 -0.00637729 0)
(0.00687685 -0.00606091 0)
(0.0085935 -0.00462189 0)
(0.00936019 -0.00259765 0)
(0.00904136 -0.000434377 0)
(0.00759855 0.00160692 0)
(0.00500966 0.0034745 0)
(0.00119755 0.00529343 0)
(-0.00401318 0.00729607 0)
(-0.0108944 0.00973037 0)
(-0.019773 0.0127791 0)
(-0.0309634 0.0165159 0)
(-0.0446885 0.0208974 0)
(-0.0609939 0.025767 0)
(-0.0796662 0.0308494 0)
(-0.100192 0.0357549 0)
(-0.121805 0.0400302 0)
(-0.14362 0.043254 0)
(-0.164798 0.0451211 0)
(-0.184649 0.0454747 0)
(-0.202673 0.0442915 0)
(-0.218545 0.0416431 0)
(-0.232074 0.0376573 0)
(-0.243163 0.032488 0)
(-0.251767 0.0262942 0)
(-0.257867 0.0192294 0)
(-0.261448 0.0114392 0)
(-0.262486 0.00306798 0)
(-0.260947 -0.00573529 0)
(-0.256798 -0.0148047 0)
(-0.249986 -0.0239296 0)
(-0.24046 -0.0328755 0)
(-0.228185 -0.041349 0)
(-0.213174 -0.0490033 0)
(-0.195509 -0.055438 0)
(-0.175377 -0.0602261 0)
(-0.153103 -0.062952 0)
(-0.129176 -0.0632701 0)
(-0.104256 -0.0609741 0)
(-0.079161 -0.0560653 0)
(-0.0548025 -0.0487986 0)
(-0.0321032 -0.0396848 0)
(-0.0118882 -0.0294364 0)
(0.00520525 -0.0188717 0)
(0.0187731 -0.008798 0)
(0.0286558 9.09432e-05 0)
(0.0349187 0.00729042 0)
(0.037817 0.0125255 0)
(0.037782 0.015756 0)
(0.0353985 0.0171655 0)
(0.0313454 0.0171136 0)
(0.0263057 0.0160497 0)
(0.020878 0.0144109 0)
(0.0155188 0.012528 0)
(0.0105469 0.0105463 0)
(0.00614646 0.00838195 0)
(0.00270122 0.00573348 0)
(0.00034623 0.00227281 0)
(0.000298171 -0.00328783 0)
(0.00224699 -0.00735748 0)
(0.00452633 -0.00878121 0)
(0.00652201 -0.00792655 0)
(0.00753202 -0.00551853 0)
(0.00728829 -0.00231473 0)
(0.00566232 0.00110853 0)
(0.0025816 0.00445696 0)
(-0.00206459 0.00772692 0)
(-0.00848606 0.0111414 0)
(-0.0170002 0.0150342 0)
(-0.0279808 0.0197101 0)
(-0.0417609 0.0253288 0)
(-0.0585148 0.0318436 0)
(-0.0781436 0.038987 0)
(-0.100198 0.0462877 0)
(-0.123894 0.0531348 0)
(-0.148255 0.0589041 0)
(-0.172311 0.0630961 0)
(-0.19526 0.065412 0)
(-0.216533 0.065752 0)
(-0.235776 0.0641677 0)
(-0.252807 0.060805 0)
(-0.267552 0.0558543 0)
(-0.280002 0.0495172 0)
(-0.290185 0.0419863 0)
(-0.29814 0.0334354 0)
(-0.303902 0.0240179 0)
(-0.307496 0.0138716 0)
(-0.308923 0.00312666 0)
(-0.308167 -0.00808735 0)
(-0.30518 -0.0196281 0)
(-0.299877 -0.0313098 0)
(-0.292145 -0.0428981 0)
(-0.281843 -0.0540903 0)
(-0.268831 -0.0645046 0)
(-0.252989 -0.0736746 0)
(-0.234265 -0.0810641 0)
(-0.212724 -0.0861043 0)
(-0.188609 -0.0882583 0)
(-0.162395 -0.0871119 0)
(-0.134812 -0.0824778 0)
(-0.106828 -0.0744889 0)
(-0.0795704 -0.0636456 0)
(-0.0541731 -0.0507854 0)
(-0.0316109 -0.0369619 0)
(-0.0125575 -0.023264 0)
(0.00266651 -0.0106403 0)
(0.0140415 0.000197381 0)
(0.0217472 0.00879839 0)
(0.0260946 0.0149718 0)
(0.0275099 0.0187703 0)
(0.0265295 0.0204662 0)
(0.0237675 0.0204961 0)
(0.0198533 0.0193651 0)
(0.0153584 0.0175222 0)
(0.0107636 0.0152289 0)
(0.00641609 0.0124518 0)
(0.00286639 0.00881578 0)
(0.0003704 0.00367655 0)
(0.000313241 -0.00445363 0)
(0.00220586 -0.00950898 0)
(0.00410077 -0.0107892 0)
(0.00532781 -0.0090415 0)
(0.00519451 -0.00532674 0)
(0.00346999 -0.000628841 0)
(2.98551e-05 0.00438406 0)
(-0.00525426 0.00944375 0)
(-0.0126077 0.0146458 0)
(-0.0223775 0.0203276 0)
(-0.034975 0.026883 0)
(-0.0507459 0.0345644 0)
(-0.0698079 0.0433384 0)
(-0.0919137 0.052834 0)
(-0.116399 0.0623893 0)
(-0.142271 0.0711944 0)
(-0.168424 0.0784883 0)
(-0.193863 0.0837214 0)
(-0.217842 0.0866125 0)
(-0.239879 0.0871148 0)
(-0.259708 0.0853435 0)
(-0.277221 0.081506 0)
(-0.292409 0.07585 0)
(-0.305326 0.0686283 0)
(-0.316067 0.0600778 0)
(-0.324745 0.0504075 0)
(-0.331484 0.039794 0)
(-0.336399 0.0283824 0)
(-0.339587 0.0162909 0)
(-0.341116 0.00361698 0)
(-0.341022 -0.00954858 0)
(-0.339292 -0.0230983 0)
(-0.335845 -0.0368987 0)
(-0.330539 -0.0507623 0)
(-0.323164 -0.0644268 0)
(-0.313449 -0.0775297 0)
(-0.301077 -0.0895929 0)
(-0.285724 -0.100018 0)
(-0.267116 -0.10811 0)
(-0.245113 -0.113129 0)
(-0.219811 -0.114388 0)
(-0.191632 -0.111386 0)
(-0.161398 -0.103959 0)
(-0.130314 -0.0924105 0)
(-0.0998561 -0.0775605 0)
(-0.0715353 -0.060665 0)
(-0.0466068 -0.0431903 0)
(-0.0258342 -0.0265142 0)
(-0.00943485 -0.0116889 0)
(0.00277872 0.000637519 0)
(0.0111892 0.0101681 0)
(0.0162437 0.0168746 0)
(0.0184274 0.0209478 0)
(0.0182763 0.0227622 0)
(0.0163734 0.0228104 0)
(0.0133095 0.0215845 0)
(0.00964957 0.0194164 0)
(0.00586856 0.0163102 0)
(0.002641 0.0118302 0)
(0.000337452 0.00506351 0)
(0.000307611 -0.00559249 0)
(0.00195303 -0.0113309 0)
(0.00314742 -0.0120477 0)
(0.00321113 -0.00899173 0)
(0.00151623 -0.0036027 0)
(-0.00212426 0.00293176 0)
(-0.00784927 0.00991288 0)
(-0.0158681 0.0171615 0)
(-0.0265231 0.0249023 0)
(-0.0402401 0.0335461 0)
(-0.057375 0.0434172 0)
(-0.078009 0.0545129 0)
(-0.101784 0.0663903 0)
(-0.127876 0.0782297 0)
(-0.155139 0.0890469 0)
(-0.182372 0.0979567 0)
(-0.208558 0.104356 0)
(-0.232965 0.107968 0)
(-0.255145 0.108779 0)
(-0.274864 0.106958 0)
(-0.29205 0.102772 0)
(-0.306741 0.0965344 0)
(-0.319055 0.0885637 0)
(-0.329168 0.0791612 0)
(-0.337286 0.0685924 0)
(-0.343634 0.0570775 0)
(-0.348429 0.0447896 0)
(-0.351873 0.0318574 0)
(-0.354139 0.0183693 0)
(-0.355362 0.0043804 0)
(-0.355627 -0.0100698 0)
(-0.354964 -0.0249325 0)
(-0.353334 -0.0401459 0)
(-0.350619 -0.0556046 0)
(-0.346606 -0.0711348 0)
(-0.340974 -0.0864582 0)
(-0.333291 -0.101164 0)
(-0.323031 -0.114679 0)
(-0.309605 -0.126266 0)
(-0.292446 -0.135043 0)
(-0.271121 -0.140055 0)
(-0.245491 -0.140411 0)
(-0.215871 -0.13547 0)
(-0.183166 -0.125057 0)
(-0.148887 -0.109654 0)
(-0.114997 -0.0904634 0)
(-0.0835609 -0.0692662 0)
(-0.0562596 -0.0480452 0)
(-0.0340094 -0.0285128 0)
(-0.0168921 -0.0117837 0)
(-0.00443438 0.00164617 0)
(0.00402465 0.0117152 0)
(0.0091254 0.0186158 0)
(0.0114586 0.0227037 0)
(0.0116033 0.0244456 0)
(0.0101467 0.0243271 0)
(0.00768646 0.0226958 0)
(0.00477725 0.0195627 0)
(0.00215432 0.0144443 0)
(0.000268269 0.00626113 0)
(0.000269894 -0.00659189 0)
(0.00141909 -0.0125358 0)
(0.00156377 -0.0121804 0)
(7.30788e-05 -0.00737687 0)
(-0.00356573 5.94538e-05 0)
(-0.00950529 0.00879215 0)
(-0.0179237 0.0181645 0)
(-0.0291178 0.0281289 0)
(-0.043493 0.0390065 0)
(-0.0614069 0.0511465 0)
(-0.0829329 0.0645875 0)
(-0.107661 0.0788584 0)
(-0.134668 0.093023 0)
(-0.162699 0.105942 0)
(-0.190468 0.116597 0)
(-0.216902 0.124307 0)
(-0.241244 0.128772 0)
(-0.263031 0.129996 0)
(-0.282034 0.128192 0)
(-0.298204 0.123693 0)
(-0.311632 0.116894 0)
(-0.322516 0.108201 0)
(-0.331121 0.0979973 0)
(-0.337757 0.0866214 0)
(-0.34274 0.0743514 0)
(-0.346376 0.0614008 0)
(-0.348942 0.0479209 0)
(-0.350679 0.0340072 0)
(-0.35179 0.0197094 0)
(-0.352437 0.00504124 0)
(-0.35273 -0.0100047 0)
(-0.352735 -0.0254452 0)
(-0.35247 -0.0412894 0)
(-0.35188 -0.0575209 0)
(-0.350821 -0.0740724 0)
(-0.349036 -0.0907927 0)
(-0.346121 -0.107408 0)
(-0.341512 -0.123475 0)
(-0.334473 -0.138344 0)
(-0.324138 -0.151136 0)
(-0.309591 -0.160758 0)
(-0.290029 -0.165995 0)
(-0.264983 -0.165673 0)
(-0.234577 -0.158925 0)
(-0.199756 -0.145499 0)
(-0.162373 -0.126041 0)
(-0.125006 -0.102205 0)
(-0.0904383 -0.0764304 0)
(-0.0609206 -0.051356 0)
(-0.0375539 -0.0290836 0)
(-0.0202183 -0.0107384 0)
(-0.00806711 0.00343489 0)
(-0.000106665 0.0136888 0)
(0.00452857 0.0204725 0)
(0.00656373 0.024298 0)
(0.00664928 0.0256578 0)
(0.00541919 0.0248934 0)
(0.00347924 0.0220026 0)
(0.00157289 0.0164731 0)
(0.000188898 0.00717863 0)
(0.00018896 -0.00729457 0)
(0.000537177 -0.0127937 0)
(-0.000730688 -0.0108074 0)
(-0.00413371 -0.00382931 0)
(-0.0100345 0.00600964 0)
(-0.0185783 0.0173075 0)
(-0.0299915 0.0295091 0)
(-0.0446196 0.0426833 0)
(-0.0628041 0.0571231 0)
(-0.0846325 0.0729015 0)
(-0.109701 0.0895629 0)
(-0.137054 0.106103 0)
(-0.165366 0.121241 0)
(-0.193261 0.133805 0)
(-0.219586 0.143 0)
(-0.243521 0.148467 0)
(-0.264561 0.150207 0)
(-0.282471 0.148474 0)
(-0.297232 0.143679 0)
(-0.309001 0.136315 0)
(-0.318065 0.126894 0)
(-0.324794 0.115897 0)
(-0.329594 0.103747 0)
(-0.332864 0.090785 0)
(-0.334973 0.0772675 0)
(-0.336238 0.0633711 0)
(-0.336926 0.0492032 0)
(-0.337252 0.0348142 0)
(-0.337388 0.0202119 0)
(-0.337473 0.00537519 0)
(-0.33761 -0.00973746 0)
(-0.337878 -0.0251838 0)
(-0.338331 -0.0410216 0)
(-0.338988 -0.057299 0)
(-0.339811 -0.0740381 0)
(-0.340678 -0.0912122 0)
(-0.341341 -0.10871 0)
(-0.341379 -0.126285 0)
(-0.340153 -0.143499 0)
(-0.336771 -0.159654 0)
(-0.330106 -0.173744 0)
(-0.31888 -0.184458 0)
(-0.301857 -0.190264 0)
(-0.278143 -0.189618 0)
(-0.247567 -0.181312 0)
(-0.211048 -0.16492 0)
(-0.170787 -0.141227 0)
(-0.130077 -0.112422 0)
(-0.0925851 -0.0817892 0)
(-0.0612382 -0.0527985 0)
(-0.0372936 -0.0279838 0)
(-0.0203078 -0.00838136 0)
(-0.00897156 0.00613799 0)
(-0.00193285 0.0162031 0)
(0.00190355 0.0225125 0)
(0.0034024 0.0256612 0)
(0.00330412 0.0260244 0)
(0.00227524 0.0236029 0)
(0.00104828 0.0178885 0)
(0.000121985 0.00781261 0)
(4.89248e-05 -0.00749501 0)
(-0.000738954 -0.0117558 0)
(-0.00375084 -0.00758349 0)
(-0.00935811 0.00195174 0)
(-0.0177485 0.0145125 0)
(-0.0290864 0.0287211 0)
(-0.0436245 0.0441384 0)
(-0.0616604 0.060851 0)
(-0.0833032 0.078924 0)
(-0.108204 0.0979491 0)
(-0.135437 0.116906 0)
(-0.16365 0.134397 0)
(-0.191386 0.149074 0)
(-0.217391 0.159978 0)
(-0.240756 0.166652 0)
(-0.260921 0.169067 0)
(-0.277636 0.167514 0)
(-0.290917 0.162488 0)
(-0.300998 0.154596 0)
(-0.308266 0.144472 0)
(-0.313195 0.132712 0)
(-0.316284 0.119827 0)
(-0.318002 0.106224 0)
(-0.318757 0.0921981 0)
(-0.318885 0.0779444 0)
(-0.318645 0.0635767 0)
(-0.31823 0.0491446 0)
(-0.317781 0.0346513 0)
(-0.317404 0.0200695 0)
(-0.317181 0.00535385 0)
(-0.317183 -0.00955364 0)
(-0.317476 -0.0247217 0)
(-0.318127 -0.0402228 0)
(-0.319198 -0.0561297 0)
(-0.320737 -0.0725102 0)
(-0.322756 -0.0894164 0)
(-0.325197 -0.106864 0)
(-0.327877 -0.124796 0)
(-0.330424 -0.143025 0)
(-0.332196 -0.161154 0)
(-0.33222 -0.178481 0)
(-0.329162 -0.193909 0)
(-0.321402 -0.205908 0)
(-0.307241 -0.212587 0)
(-0.285283 -0.211935 0)
(-0.254959 -0.202272 0)
(-0.21708 -0.182885 0)
(-0.174194 -0.154679 0)
(-0.130414 -0.120513 0)
(-0.0904338 -0.0847662 0)
(-0.0579088 -0.0519413 0)
(-0.0341152 -0.0249759 0)
(-0.0180979 -0.00462979 0)
(-0.00801759 0.00973691 0)
(-0.00218266 0.0191425 0)
(0.000701877 0.0244553 0)
(0.00162211 0.0262047 0)
(0.00136623 0.0244659 0)
(0.000683131 0.0187867 0)
(8.17055e-05 0.00822785 0)
(-0.000168124 -0.0069715 0)
(-0.00241929 -0.00908483 0)
(-0.00742741 -0.00222826 0)
(-0.0154305 0.0101697 0)
(-0.0264206 0.025715 0)
(-0.0405873 0.0431125 0)
(-0.0581464 0.0619829 0)
(-0.0792181 0.0822617 0)
(-0.103537 0.103586 0)
(-0.13027 0.124972 0)
(-0.158091 0.144944 0)
(-0.185484 0.161968 0)
(-0.211087 0.174872 0)
(-0.233883 0.183044 0)
(-0.253241 0.186392 0)
(-0.268888 0.185223 0)
(-0.280871 0.180119 0)
(-0.289498 0.171813 0)
(-0.295256 0.161077 0)
(-0.298719 0.148634 0)
(-0.300471 0.135093 0)
(-0.301038 0.120926 0)
(-0.300859 0.106464 0)
(-0.300266 0.091914 0)
(-0.299496 0.0773856 0)
(-0.298705 0.0629189 0)
(-0.297989 0.0485075 0)
(-0.297403 0.0341168 0)
(-0.296984 0.0196979 0)
(-0.296756 0.00519592 0)
(-0.296753 -0.00944717 0)
(-0.297017 -0.0242914 0)
(-0.297607 -0.0393987 0)
(-0.298597 -0.0548353 0)
(-0.300075 -0.0706727 0)
(-0.302134 -0.0869877 0)
(-0.304848 -0.103857 0)
(-0.308237 -0.12134 0)
(-0.312215 -0.139446 0)
(-0.316498 -0.158068 0)
(-0.320507 -0.176885 0)
(-0.323254 -0.195232 0)
(-0.323273 -0.211957 0)
(-0.318648 -0.225321 0)
(-0.307222 -0.233036 0)
(-0.287053 -0.232527 0)
(-0.257097 -0.221511 0)
(-0.218001 -0.19888 0)
(-0.172684 -0.16568 0)
(-0.126199 -0.125664 0)
(-0.0844108 -0.0846574 0)
(-0.0516411 -0.0483686 0)
(-0.028887 -0.0199501 0)
(-0.0144505 0.000411946 0)
(-0.00596532 0.0139703 0)
(-0.00147769 0.0220573 0)
(0.000442624 0.0255551 0)
(0.000826145 0.0247524 0)
(0.000517808 0.0193337 0)
(7.25943e-05 0.00852638 0)
(-0.000458473 -0.00550615 0)
(-0.0044477 -0.00450845 0)
(-0.0116074 0.00543715 0)
(-0.0220722 0.020908 0)
(-0.0356284 0.0396158 0)
(-0.0524707 0.0603497 0)
(-0.0726846 0.0826685 0)
(-0.0960986 0.10617 0)
(-0.122017 0.129944 0)
(-0.149207 0.152493 0)
(-0.176138 0.172106 0)
(-0.201345 0.187359 0)
(-0.223691 0.197418 0)
(-0.242451 0.202069 0)
(-0.25731 0.201607 0)
(-0.268329 0.196685 0)
(-0.275874 0.188165 0)
(-0.280521 0.176974 0)
(-0.282936 0.163973 0)
(-0.283779 0.149886 0)
(-0.283628 0.135254 0)
(-0.282939 0.120442 0)
(-0.282036 0.105666 0)
(-0.28113 0.0910258 0)
(-0.280335 0.0765433 0)
(-0.279701 0.0621952 0)
(-0.279238 0.0479342 0)
(-0.278935 0.033705 0)
(-0.278775 0.019453 0)
(-0.278748 0.00512745 0)
(-0.278858 -0.00931767 0)
(-0.279127 -0.0239237 0)
(-0.279597 -0.0387316 0)
(-0.280336 -0.0537855 0)
(-0.281435 -0.0691377 0)
(-0.283008 -0.084854 0)
(-0.285187 -0.101018 0)
(-0.288103 -0.11773 0)
(-0.291856 -0.135096 0)
(-0.296454 -0.153198 0)
(-0.301723 -0.172023 0)
(-0.307174 -0.191348 0)
(-0.311857 -0.210569 0)
(-0.314229 -0.228499 0)
(-0.312129 -0.243191 0)
(-0.302971 -0.251917 0)
(-0.284258 -0.25144 0)
(-0.254446 -0.23875 0)
(-0.214018 -0.212273 0)
(-0.166355 -0.173315 0)
(-0.117641 -0.126907 0)
(-0.0750162 -0.0807649 0)
(-0.0432189 -0.0418466 0)
(-0.0224666 -0.0130503 0)
(-0.0101417 0.00636951 0)
(-0.00347609 0.0182641 0)
(-0.000378175 0.0241059 0)
(0.000600209 0.0246048 0)
(0.00053184 0.0197031 0)
(9.07564e-05 0.00881523 0)
(-0.000810457 -0.00290438 0)
(-0.00671752 0.00214066 0)
(-0.0160615 0.0154613 0)
(-0.0289172 0.034111 0)
(-0.0448504 0.0560422 0)
(-0.0640201 0.0800725 0)
(-0.0862892 0.105545 0)
(-0.111138 0.131582 0)
(-0.137485 0.156727 0)
(-0.163854 0.17914 0)
(-0.188708 0.19712 0)
(-0.21078 0.209538 0)
(-0.229225 0.215981 0)
(-0.243657 0.216671 0)
(-0.254116 0.212302 0)
(-0.261001 0.203857 0)
(-0.264954 0.192423 0)
(-0.266724 0.179025 0)
(-0.26704 0.164512 0)
(-0.266525 0.149513 0)
(-0.265652 0.134434 0)
(-0.264739 0.119499 0)
(-0.263968 0.104795 0)
(-0.26342 0.0903236 0)
(-0.263105 0.0760399 0)
(-0.262992 0.0618792 0)
(-0.263036 0.0477754 0)
(-0.263188 0.0336697 0)
(-0.263407 0.0195141 0)
(-0.263666 0.00527114 0)
(-0.263954 -0.00908763 0)
(-0.26428 -0.0235834 0)
(-0.264672 -0.0382346 0)
(-0.265179 -0.0530604 0)
(-0.265878 -0.0680868 0)
(-0.26687 -0.0833531 0)
(-0.268286 -0.0989201 0)
(-0.270288 -0.114879 0)
(-0.273051 -0.131356 0)
(-0.276744 -0.14851 0)
(-0.281468 -0.166501 0)
(-0.287155 -0.185417 0)
(-0.29342 -0.205146 0)
(-0.299364 -0.225149 0)
(-0.30339 -0.244197 0)
(-0.303119 -0.260101 0)
(-0.295559 -0.269619 0)
(-0.277675 -0.268745 0)
(-0.247458 -0.253631 0)
(-0.205327 -0.222252 0)
(-0.155333 -0.176469 0)
(-0.105061 -0.12321 0)
(-0.0629517 -0.0725968 0)
(-0.0335711 -0.0325048 0)
(-0.0157124 -0.00476169 0)
(-0.00589118 0.0125587 0)
(-0.00116753 0.0217103 0)
(0.000524021 0.0240713 0)
(0.000655604 0.0200169 0)
(0.000126441 0.00917826 0)
(-0.00120168 0.0009595 0)
(-0.00908014 0.0109056 0)
(-0.0205115 0.0277583 0)
(-0.0355514 0.0495797 0)
(-0.0535254 0.0746517 0)
(-0.0745074 0.101722 0)
(-0.0980789 0.129781 0)
(-0.123386 0.157424 0)
(-0.149076 0.182756 0)
(-0.173602 0.203815 0)
(-0.195572 0.219112 0)
(-0.214001 0.227936 0)
(-0.228388 0.230346 0)
(-0.238709 0.227017 0)
(-0.245358 0.219026 0)
(-0.249015 0.207623 0)
(-0.250491 0.19401 0)
(-0.250581 0.179195 0)
(-0.249956 0.163913 0)
(-0.24911 0.148628 0)
(-0.248361 0.133582 0)
(-0.247872 0.118852 0)
(-0.247693 0.104417 0)
(-0.247803 0.0902093 0)
(-0.248143 0.0761432 0)
(-0.248639 0.0621392 0)
(-0.249223 0.0481312 0)
(-0.249833 0.0340696 0)
(-0.250424 0.0199202 0)
(-0.250966 0.00566178 0)
(-0.251447 -0.00871685 0)
(-0.251869 -0.0232196 0)
(-0.252249 -0.0378462 0)
(-0.252622 -0.0525956 0)
(-0.25304 -0.0674699 0)
(-0.253578 -0.0824806 0)
(-0.254338 -0.0976562 0)
(-0.255459 -0.113054 0)
(-0.257115 -0.128775 0)
(-0.259519 -0.144972 0)
(-0.262897 -0.16186 0)
(-0.267438 -0.179685 0)
(-0.273181 -0.198651 0)
(-0.279836 -0.218756 0)
(-0.286552 -0.239524 0)
(-0.291662 -0.259638 0)
(-0.292551 -0.276582 0)
(-0.285812 -0.286474 0)
(-0.267906 -0.284394 0)
(-0.236461 -0.265582 0)
(-0.192061 -0.227718 0)
(-0.139802 -0.173823 0)
(-0.0890269 -0.113666 0)
(-0.049245 -0.0601375 0)
(-0.0237609 -0.0209666 0)
(-0.00945186 0.00407524 0)
(-0.00236349 0.0179822 0)
(0.00036356 0.0230508 0)
(0.000790373 0.0203015 0)
(0.000166853 0.00965564 0)
(-0.00159927 0.00612007 0)
(-0.0113639 0.0216947 0)
(-0.0246652 0.042113 0)
(-0.0415622 0.0669837 0)
(-0.0611211 0.0949598 0)
(-0.0832925 0.124612 0)
(-0.107364 0.15449 0)
(-0.132222 0.182702 0)
(-0.156377 0.207089 0)
(-0.178363 0.225772 0)
(-0.197034 0.237629 0)
(-0.211736 0.24244 0)
(-0.22233 0.240763 0)
(-0.22915 0.233712 0)
(-0.232875 0.222682 0)
(-0.23436 0.209073 0)
(-0.234459 0.194079 0)
(-0.233894 0.178579 0)
(-0.233195 0.163125 0)
(-0.232688 0.14799 0)
(-0.232527 0.133251 0)
(-0.232744 0.118868 0)
(-0.233295 0.104747 0)
(-0.234097 0.090781 0)
(-0.23506 0.0768738 0)
(-0.236097 0.0629496 0)
(-0.237137 0.0489547 0)
(-0.238124 0.0348552 0)
(-0.239019 0.0206328 0)
(-0.2398 0.00628184 0)
(-0.240454 -0.00819474 0)
(-0.240985 -0.0227876 0)
(-0.241403 -0.0374835 0)
(-0.241733 -0.0522676 0)
(-0.242008 -0.0671257 0)
(-0.242278 -0.0820486 0)
(-0.242611 -0.0970374 0)
(-0.243102 -0.112113 0)
(-0.243883 -0.127332 0)
(-0.245137 -0.142802 0)
(-0.2471 -0.158707 0)
(-0.25005 -0.175318 0)
(-0.254257 -0.192978 0)
(-0.259861 -0.212015 0)
(-0.266664 -0.232547 0)
(-0.273834 -0.254131 0)
(-0.279589 -0.275291 0)
(-0.281016 -0.293034 0)
(-0.27425 -0.302634 0)
(-0.255284 -0.298067 0)
(-0.221578 -0.273646 0)
(-0.174284 -0.227189 0)
(-0.120117 -0.163959 0)
(-0.0705341 -0.0978327 0)
(-0.0352796 -0.0441287 0)
(-0.0148423 -0.00835518 0)
(-0.00440676 0.0122902 0)
(-0.000120013 0.0212677 0)
(0.000833917 0.0204671 0)
(0.000199376 0.0102362 0)
(-0.00196529 0.012508 0)
(-0.0133972 0.0342898 0)
(-0.0282509 0.0581998 0)
(-0.0465851 0.0858892 0)
(-0.0671987 0.116392 0)
(-0.0899005 0.148013 0)
(-0.113717 0.178843 0)
(-0.137377 0.20661 0)
(-0.159389 0.229078 0)
(-0.178475 0.244626 0)
(-0.193787 0.252605 0)
(-0.205023 0.25332 0)
(-0.212396 0.247824 0)
(-0.216534 0.237612 0)
(-0.218301 0.224281 0)
(-0.2186 0.20925 0)
(-0.218215 0.193588 0)
(-0.217721 0.177974 0)
(-0.217472 0.162743 0)
(-0.217628 0.147989 0)
(-0.218213 0.133656 0)
(-0.219168 0.119626 0)
(-0.220394 0.105767 0)
(-0.221787 0.0919645 0)
(-0.22325 0.078129 0)
(-0.224704 0.0642002 0)
(-0.226086 0.0501421 0)
(-0.227353 0.0359374 0)
(-0.228475 0.0215831 0)
(-0.229437 0.00708631 0)
(-0.230231 -0.00753887 0)
(-0.230862 -0.0222736 0)
(-0.23134 -0.037096 0)
(-0.231683 -0.0519829 0)
(-0.231913 -0.0669109 0)
(-0.232062 -0.0818586 0)
(-0.232172 -0.0968095 0)
(-0.232299 -0.111759 0)
(-0.232528 -0.126723 0)
(-0.232983 -0.141756 0)
(-0.233846 -0.15698 0)
(-0.235371 -0.172607 0)
(-0.237883 -0.188973 0)
(-0.241726 -0.206525 0)
(-0.247136 -0.225727 0)
(-0.253985 -0.246812 0)
(-0.26142 -0.269332 0)
(-0.267467 -0.291521 0)
(-0.26881 -0.309684 0)
(-0.261062 -0.317951 0)
(-0.239822 -0.30898 0)
(-0.202707 -0.276299 0)
(-0.152063 -0.218767 0)
(-0.0970081 -0.145683 0)
(-0.0511825 -0.0762757 0)
(-0.0225765 -0.0261678 0)
(-0.00765349 0.00380052 0)
(-0.00111411 0.0182839 0)
(0.000711008 0.0203209 0)
(0.000215946 0.010865 0)
(-0.00226296 0.0199519 0)
(-0.01503 0.0483667 0)
(-0.0310466 0.0756114 0)
(-0.0503423 0.105799 0)
(-0.0714559 0.138344 0)
(-0.0940608 0.171238 0)
(-0.116986 0.202153 0)
(-0.13891 0.228579 0)
(-0.158442 0.248378 0)
(-0.174559 0.260321 0)
(-0.186737 0.264285 0)
(-0.19501 0.261114 0)
(-0.199888 0.252305 0)
(-0.202201 0.239627 0)
(-0.202881 0.22475 0)
(-0.202772 0.208989 0)
(-0.202514 0.193206 0)
(-0.202509 0.177845 0)
(-0.20294 0.16304 0)
(-0.203837 0.148736 0)
(-0.205134 0.134789 0)
(-0.206725 0.121042 0)
(-0.208494 0.107356 0)
(-0.210337 0.0936241 0)
(-0.212168 0.0797766 0)
(-0.21392 0.0657721 0)
(-0.215547 0.0515919 0)
(-0.217014 0.0372339 0)
(-0.218301 0.0227076 0)
(-0.219397 0.00803048 0)
(-0.2203 -0.00677464 0)
(-0.221015 -0.0216818 0)
(-0.221552 -0.0366634 0)
(-0.221928 -0.0516911 0)
(-0.222161 -0.0667368 0)
(-0.222273 -0.0817737 0)
(-0.222291 -0.0967771 0)
(-0.222247 -0.111727 0)
(-0.222187 -0.126615 0)
(-0.222181 -0.141455 0)
(-0.222343 -0.156303 0)
(-0.222856 -0.171292 0)
(-0.223991 -0.186675 0)
(-0.226118 -0.202861 0)
(-0.229655 -0.220417 0)
(-0.234919 -0.239957 0)
(-0.241821 -0.261814 0)
(-0.249413 -0.285443 0)
(-0.25541 -0.30859 0)
(-0.255964 -0.326516 0)
(-0.246106 -0.331824 0)
(-0.221207 -0.315665 0)
(-0.179576 -0.271287 0)
(-0.125677 -0.200331 0)
(-0.0718993 -0.118743 0)
(-0.033147 -0.0510888 0)
(-0.012316 -0.00846544 0)
(-0.00273696 0.0135424 0)
(0.000389293 0.0195952 0)
(0.000213221 0.0114608 0)
(-0.00246226 0.0281933 0)
(-0.0161493 0.0635252 0)
(-0.0328991 0.0938928 0)
(-0.0526625 0.126194 0)
(-0.0737445 0.160238 0)
(-0.0957069 0.193699 0)
(-0.117259 0.223912 0)
(-0.137121 0.248281 0)
(-0.154078 0.264912 0)
(-0.167391 0.273052 0)
(-0.176847 0.27313 0)
(-0.182776 0.266495 0)
(-0.185904 0.255002 0)
(-0.187155 0.240572 0)
(-0.187427 0.224817 0)
(-0.187437 0.208857 0)
(-0.187651 0.193309 0)
(-0.188303 0.17839 0)
(-0.189444 0.164065 0)
(-0.191014 0.150177 0)
(-0.192903 0.136537 0)
(-0.194988 0.122978 0)
(-0.19716 0.10937 0)
(-0.199328 0.095629 0)
(-0.201421 0.0817041 0)
(-0.203388 0.0675722 0)
(-0.205192 0.0532294 0)
(-0.206807 0.0386857 0)
(-0.208218 0.0239607 0)
(-0.209417 0.0090802 0)
(-0.210404 -0.00592584 0)
(-0.211185 -0.0210254 0)
(-0.211772 -0.0361858 0)
(-0.212179 -0.0513753 0)
(-0.212427 -0.0665631 0)
(-0.212535 -0.0817209 0)
(-0.212523 -0.0968218 0)
(-0.212413 -0.111842 0)
(-0.212229 -0.12676 0)
(-0.212003 -0.141566 0)
(-0.211794 -0.156273 0)
(-0.211706 -0.170938 0)
(-0.211921 -0.185715 0)
(-0.212735 -0.200901 0)
(-0.214567 -0.217004 0)
(-0.217913 -0.234738 0)
(-0.223153 -0.254877 0)
(-0.230181 -0.277817 0)
(-0.237841 -0.302758 0)
(-0.243371 -0.326621 0)
(-0.242235 -0.343144 0)
(-0.228888 -0.342945 0)
(-0.198837 -0.315694 0)
(-0.151937 -0.255623 0)
(-0.0960048 -0.170236 0)
(-0.0472728 -0.0850182 0)
(-0.0185002 -0.0256908 0)
(-0.00508251 0.00640521 0)
(-0.000139239 0.0179721 0)
(0.000193945 0.0119366 0)
(-0.00254351 0.0369115 0)
(-0.0166875 0.0793212 0)
(-0.0337311 0.112575 0)
(-0.0534848 0.146577 0)
(-0.0740619 0.181568 0)
(-0.0949465 0.214941 0)
(-0.114805 0.243801 0)
(-0.132472 0.265604 0)
(-0.146945 0.27881 0)
(-0.15777 0.283185 0)
(-0.165012 0.279702 0)
(-0.169228 0.270148 0)
(-0.171267 0.256628 0)
(-0.172054 0.241085 0)
(-0.172382 0.224975 0)
(-0.172805 0.209173 0)
(-0.173627 0.194048 0)
(-0.174943 0.179624 0)
(-0.176712 0.165743 0)
(-0.178829 0.152189 0)
(-0.181169 0.138758 0)
(-0.183617 0.125295 0)
(-0.186078 0.11169 0)
(-0.188478 0.0978807 0)
(-0.190763 0.0838336 0)
(-0.192891 0.0695405 0)
(-0.194833 0.0550089 0)
(-0.196567 0.040258 0)
(-0.19808 0.0253153 0)
(-0.199365 0.0102138 0)
(-0.200422 -0.0050102 0)
(-0.201256 -0.0203186 0)
(-0.201881 -0.0356737 0)
(-0.202312 -0.0510397 0)
(-0.202569 -0.066384 0)
(-0.202675 -0.0816774 0)
(-0.20265 -0.0968942 0)
(-0.202514 -0.112011 0)
(-0.202282 -0.127008 0)
(-0.201971 -0.141864 0)
(-0.201602 -0.15657 0)
(-0.201222 -0.171136 0)
(-0.200926 -0.185628 0)
(-0.200903 -0.200222 0)
(-0.201478 -0.215281 0)
(-0.203134 -0.23144 0)
(-0.206443 -0.2496 0)
(-0.211828 -0.270708 0)
(-0.219077 -0.295129 0)
(-0.226657 -0.321527 0)
(-0.231105 -0.34548 0)
(-0.227059 -0.358545 0)
(-0.208569 -0.348941 0)
(-0.171973 -0.305462 0)
(-0.11996 -0.226066 0)
(-0.0651327 -0.128898 0)
(-0.0265122 -0.0493821 0)
(-0.00818256 -0.0038232 0)
(-0.00090002 0.0151024 0)
(0.00016635 0.0122049 0)
(-0.00249896 0.0457532 0)
(-0.0166228 0.0952984 0)
(-0.033537 0.131206 0)
(-0.0528465 0.166499 0)
(-0.0725248 0.201917 0)
(-0.092015 0.234646 0)
(-0.110008 0.261666 0)
(-0.125496 0.280603 0)
(-0.137704 0.290337 0)
(-0.146436 0.29117 0)
(-0.151983 0.284573 0)
(-0.155051 0.272685 0)
(-0.156527 0.257742 0)
(-0.157264 0.241603 0)
(-0.157914 0.225503 0)
(-0.15887 0.21006 0)
(-0.160297 0.195422 0)
(-0.162193 0.181463 0)
(-0.164467 0.167947 0)
(-0.166997 0.154632 0)
(-0.169664 0.141324 0)
(-0.172371 0.127885 0)
(-0.175039 0.114231 0)
(-0.177612 0.100314 0)
(-0.180045 0.0861174 0)
(-0.182303 0.0716428 0)
(-0.184362 0.056906 0)
(-0.1862 0.0419331 0)
(-0.187804 0.026758 0)
(-0.189167 0.0114202 0)
(-0.190287 -0.0040373 0)
(-0.191169 -0.0195703 0)
(-0.191825 -0.0351356 0)
(-0.192272 -0.0506925 0)
(-0.192533 -0.0662055 0)
(-0.19263 -0.0816443 0)
(-0.19259 -0.0969847 0)
(-0.192433 -0.112207 0)
(-0.192179 -0.127295 0)
(-0.191837 -0.142231 0)
(-0.191416 -0.157 0)
(-0.190926 -0.17159 0)
(-0.190403 -0.186012 0)
(-0.18994 -0.200341 0)