/*--------------------------------*- C++ -*----------------------------------*\
| =========                 |                                                 |
| \\      /  F ield         | OpenFOAM: The Open Source CFD Toolbox           |
|  \\    /   O peration     | Version:  2406                                  |
|   \\  /    A nd           | Website:  www.openfoam.com                      |
|    \\/     M anipulation  |                                                 |
\*---------------------------------------------------------------------------*/
FoamFile
{
    version     2.0;
    format      ascii;
    arch        "LSB;label=32;scalar=64";
    class       volVectorField;
    location    "7.25";
    object      U;
}
// * * * * * * * * * * * * * * * * * * * * * * * * * * * * * * * * * * * * * //

dimensions      [0 1 -1 0 0 0 0];

internalField   nonuniform List<vector> 
16384
(
(3.37848e-06 -3.37241e-06 0)
(7.14181e-06 -2.25729e-06 0)
(7.7903e-07 -3.09429e-09 0)
(-1.72725e-05 2.14386e-06 0)
(-4.60386e-05 3.87996e-06 0)
(-8.36653e-05 5.14904e-06 0)
(-0.000128265 6.02114e-06 0)
(-0.000178112 6.59207e-06 0)
(-0.000231766 6.94392e-06 0)
(-0.000288083 7.1412e-06 0)
(-0.000346188 7.23287e-06 0)
(-0.000405422 7.25514e-06 0)
(-0.000465308 7.23421e-06 0)
(-0.000525509 7.18859e-06 0)
(-0.000585794 7.13102e-06 0)
(-0.000646009 7.06994e-06 0)
(-0.000706063 7.01069e-06 0)
(-0.0007659 6.95639e-06 0)
(-0.000825497 6.90863e-06 0)
(-0.000884844 6.86796e-06 0)
(-0.000943944 6.83422e-06 0)
(-0.00100281 6.80682e-06 0)
(-0.00106144 6.78489e-06 0)
(-0.00111985 6.76748e-06 0)
(-0.00117804 6.75359e-06 0)
(-0.00123602 6.74223e-06 0)
(-0.00129379 6.73247e-06 0)
(-0.00135133 6.72341e-06 0)
(-0.00140863 6.71421e-06 0)
(-0.00146569 6.70406e-06 0)
(-0.00152246 6.69222e-06 0)
(-0.00157894 6.678e-06 0)
(-0.00163509 6.66069e-06 0)
(-0.00169086 6.63961e-06 0)
(-0.00174623 6.61407e-06 0)
(-0.00180115 6.5834e-06 0)
(-0.00185556 6.5469e-06 0)
(-0.00190941 6.50387e-06 0)
(-0.00196265 6.4536e-06 0)
(-0.0020152 6.39533e-06 0)
(-0.002067 6.32833e-06 0)
(-0.00211798 6.25182e-06 0)
(-0.00216805 6.16503e-06 0)
(-0.00221714 6.06718e-06 0)
(-0.00226514 5.95748e-06 0)
(-0.00231198 5.83514e-06 0)
(-0.00235754 5.69938e-06 0)
(-0.00240173 5.54945e-06 0)
(-0.00244444 5.38461e-06 0)
(-0.00248556 5.20416e-06 0)
(-0.00252497 5.00744e-06 0)
(-0.00256256 4.79385e-06 0)
(-0.00259821 4.56286e-06 0)
(-0.00263178 4.31399e-06 0)
(-0.00266316 4.04689e-06 0)
(-0.00269223 3.76126e-06 0)
(-0.00271884 3.45696e-06 0)
(-0.00274289 3.13395e-06 0)
(-0.00276425 2.79233e-06 0)
(-0.00278279 2.43234e-06 0)
(-0.0027984 2.05439e-06 0)
(-0.00281097 1.65908e-06 0)
(-0.00282038 1.24722e-06 0)
(-0.00282654 8.20201e-07 0)
(-0.00282936 3.79787e-07 0)
(-0.00282874 -7.80667e-08 0)
(-0.00282462 -5.47174e-07 0)
(-0.00281693 -1.02589e-06 0)
(-0.00280561 -1.51275e-06 0)
(-0.00279064 -2.00602e-06 0)
(-0.00277198 -2.50374e-06 0)
(-0.00274963 -3.00367e-06 0)
(-0.00272359 -3.50347e-06 0)
(-0.00269388 -4.00067e-06 0)
(-0.00266053 -4.49276e-06 0)
(-0.00262361 -4.97715e-06 0)
(-0.00258318 -5.45126e-06 0)
(-0.00253932 -5.91249e-06 0)
(-0.00249214 -6.35829e-06 0)
(-0.00244175 -6.78619e-06 0)
(-0.0023883 -7.1938e-06 0)
(-0.00233192 -7.57886e-06 0)
(-0.00227278 -7.93927e-06 0)
(-0.00221104 -8.27313e-06 0)
(-0.00214691 -8.57871e-06 0)
(-0.00208056 -8.85453e-06 0)
(-0.0020122 -9.09935e-06 0)
(-0.00194205 -9.31218e-06 0)
(-0.00187031 -9.4923e-06 0)
(-0.00179721 -9.63927e-06 0)
(-0.00172297 -9.7529e-06 0)
(-0.00164781 -9.83327e-06 0)
(-0.00157194 -9.8807e-06 0)
(-0.0014956 -9.89574e-06 0)
(-0.00141899 -9.87915e-06 0)
(-0.00134232 -9.83187e-06 0)
(-0.00126581 -9.75498e-06 0)
(-0.00118965 -9.64967e-06 0)
(-0.00111403 -9.51716e-06 0)
(-0.00103915 -9.35874e-06 0)
(-0.000965189 -9.17563e-06 0)
(-0.000892318 -8.96899e-06 0)
(-0.000820712 -8.73986e-06 0)
(-0.000750541 -8.48908e-06 0)
(-0.000681971 -8.21725e-06 0)
(-0.000615171 -7.92471e-06 0)
(-0.00055031 -7.61147e-06 0)
(-0.000487564 -7.27719e-06 0)
(-0.000427115 -6.92111e-06 0)
(-0.000369157 -6.54205e-06 0)
(-0.000313894 -6.13837e-06 0)
(-0.000261549 -5.70799e-06 0)
(-0.00021236 -5.24835e-06 0)
(-0.000166586 -4.75643e-06 0)
(-0.000124507 -4.22885e-06 0)
(-8.64185e-05 -3.66188e-06 0)
(-5.26365e-05 -3.05144e-06 0)
(-2.34817e-05 -2.39435e-06 0)
(7.23772e-07 -1.69235e-06 0)
(1.96712e-05 -9.45638e-07 0)
(3.31097e-05 -1.46227e-07 0)
(4.0891e-05 6.80367e-07 0)
(4.30225e-05 1.50304e-06 0)
(3.97955e-05 2.26948e-06 0)
(3.19548e-05 2.86686e-06 0)
(2.09571e-05 3.08569e-06 0)
(9.3371e-06 2.60045e-06 0)
(1.18365e-06 1.19658e-06 0)
(2.30917e-06 -7.1743e-06 0)
(-5.02887e-06 4.98676e-06 0)
(-3.67954e-05 2.58882e-05 0)
(-9.4924e-05 4.72927e-05 0)
(-0.000177771 6.61442e-05 0)
(-0.000281895 8.15093e-05 0)
(-0.000403398 9.34368e-05 0)
(-0.000538538 0.000102355 0)
(-0.000684026 0.000108797 0)
(-0.000837118 0.000113281 0)
(-0.000995609 0.000116263 0)
(-0.00115778 0.000118125 0)
(-0.00132232 0.000119173 0)
(-0.00148826 0.000119646 0)
(-0.0016549 0.000119727 0)
(-0.00182174 0.000119552 0)
(-0.00198845 0.000119219 0)
(-0.00215482 0.000118797 0)
(-0.00232069 0.000118331 0)
(-0.00248599 0.000117852 0)
(-0.00265068 0.000117377 0)
(-0.00281473 0.000116912 0)
(-0.00297813 0.00011646 0)
(-0.00314088 0.000116017 0)
(-0.00330295 0.000115578 0)
(-0.00346433 0.000115136 0)
(-0.00362501 0.000114681 0)
(-0.00378493 0.000114205 0)
(-0.00394406 0.000113699 0)
(-0.00410233 0.000113153 0)
(-0.00425967 0.000112558 0)
(-0.00441601 0.000111904 0)
(-0.00457124 0.000111184 0)
(-0.00472527 0.000110386 0)
(-0.00487797 0.000109503 0)
(-0.00502922 0.000108525 0)
(-0.00517887 0.000107442 0)
(-0.00532676 0.000106246 0)
(-0.00547274 0.000104927 0)
(-0.00561662 0.000103475 0)
(-0.00575821 0.000101881 0)
(-0.00589732 0.000100135 0)
(-0.00603371 9.82271e-05 0)
(-0.00616717 9.61485e-05 0)
(-0.00629745 9.38895e-05 0)
(-0.0064243 9.14408e-05 0)
(-0.00654747 8.87937e-05 0)
(-0.00666667 8.59397e-05 0)
(-0.00678163 8.28708e-05 0)
(-0.00689205 7.95798e-05 0)
(-0.00699763 7.606e-05 0)
(-0.00709806 7.23058e-05 0)
(-0.00719303 6.83125e-05 0)
(-0.00728223 6.40766e-05 0)
(-0.00736533 5.95958e-05 0)
(-0.00744201 5.48693e-05 0)
(-0.00751195 4.98977e-05 0)
(-0.00757484 4.46834e-05 0)
(-0.00763037 3.92304e-05 0)
(-0.00767823 3.35447e-05 0)
(-0.00771813 2.76342e-05 0)
(-0.00774979 2.15087e-05 0)
(-0.00777294 1.51806e-05 0)
(-0.00778735 8.6649e-06 0)
(-0.0077928 1.98072e-06 0)
(-0.00778907 -4.86167e-06 0)
(-0.00777598 -1.18352e-05 0)
(-0.00775339 -1.89196e-05 0)
(-0.00772119 -2.60909e-05 0)
(-0.0076793 -3.33229e-05 0)
(-0.00762767 -4.05875e-05 0)
(-0.00756628 -4.78559e-05 0)
(-0.00749517 -5.50977e-05 0)
(-0.0074144 -6.22819e-05 0)
(-0.00732407 -6.93768e-05 0)
(-0.00722435 -7.63505e-05 0)
(-0.00711542 -8.31709e-05 0)
(-0.0069975 -8.98064e-05 0)
(-0.00687086 -9.62261e-05 0)
(-0.00673582 -0.0001024 0)
(-0.00659271 -0.000108299 0)
(-0.00644192 -0.000113896 0)
(-0.00628386 -0.000119167 0)
(-0.00611898 -0.000124088 0)
(-0.00594773 -0.000128639 0)
(-0.00577062 -0.000132803 0)
(-0.00558816 -0.000136563 0)
(-0.00540087 -0.000139909 0)
(-0.00520931 -0.000142831 0)
(-0.00501402 -0.000145324 0)
(-0.00481556 -0.000147384 0)
(-0.0046145 -0.000149012 0)
(-0.00441138 -0.000150211 0)
(-0.00420677 -0.000150985 0)
(-0.00400122 -0.000151341 0)
(-0.00379525 -0.000151289 0)
(-0.0035894 -0.00015084 0)
(-0.00338417 -0.000150005 0)
(-0.00318007 -0.000148794 0)
(-0.00297758 -0.000147221 0)
(-0.00277717 -0.000145294 0)
(-0.00257931 -0.000143025 0)
(-0.00238446 -0.000140418 0)
(-0.00219306 -0.000137479 0)
(-0.00200556 -0.000134209 0)
(-0.00182243 -0.000130603 0)
(-0.00164411 -0.000126655 0)
(-0.0014711 -0.000122351 0)
(-0.00130389 -0.000117674 0)
(-0.00114302 -0.000112601 0)
(-0.000989068 -0.000107102 0)
(-0.000842633 -0.000101146 0)
(-0.000704377 -9.4695e-05 0)
(-0.000575008 -8.77113e-05 0)
(-0.000455282 -8.01568e-05 0)
(-0.000345996 -7.19978e-05 0)
(-0.000247979 -6.32107e-05 0)
(-0.000162066 -5.37912e-05 0)
(-8.90651e-05 -4.37691e-05 0)
(-2.96982e-05 -3.32196e-05 0)
(1.54613e-05 -2.22829e-05 0)
(4.61318e-05 -1.12264e-05 0)
(6.24932e-05 -4.89328e-07 0)
(6.53802e-05 9.23589e-06 0)
(5.65971e-05 1.68873e-05 0)
(3.93507e-05 2.08642e-05 0)
(1.88922e-05 1.90094e-05 0)
(2.54113e-06 9.30958e-06 0)
(1.76306e-08 -7.70279e-07 0)
(-2.6627e-05 3.68768e-05 0)
(-9.04483e-05 8.88595e-05 0)
(-0.000191308 0.000141266 0)
(-0.000326359 0.000188112 0)
(-0.000491247 0.000227273 0)
(-0.000681021 0.000258548 0)
(-0.000890803 0.000282641 0)
(-0.00111617 0.000300609 0)
(-0.00135333 0.000313575 0)
(-0.00159913 0.000322588 0)
(-0.00185105 0.000328561 0)
(-0.00210714 0.000332254 0)
(-0.00236586 0.00033428 0)
(-0.00262612 0.00033512 0)
(-0.00288707 0.00033514 0)
(-0.00314814 0.000334614 0)
(-0.00340891 0.000333741 0)
(-0.00366911 0.000332657 0)
(-0.00392855 0.000331455 0)
(-0.00418712 0.000330192 0)
(-0.00444471 0.0003289 0)
(-0.00470129 0.000327593 0)
(-0.00495678 0.000326269 0)
(-0.00521116 0.00032492 0)
(-0.00546436 0.00032353 0)
(-0.00571633 0.000322079 0)
(-0.00596698 0.000320547 0)
(-0.00621622 0.000318911 0)
(-0.00646396 0.000317147 0)
(-0.00671005 0.00031523 0)
(-0.00695438 0.000313139 0)
(-0.00719678 0.000310847 0)
(-0.00743707 0.000308331 0)
(-0.00767506 0.000305567 0)
(-0.00791055 0.00030253 0)
(-0.0081433 0.000299196 0)
(-0.00837307 0.000295541 0)
(-0.00859961 0.000291538 0)
(-0.00882261 0.000287164 0)
(-0.0090418 0.000282393 0)
(-0.00925684 0.0002772 0)
(-0.00946742 0.000271561 0)
(-0.00967316 0.000265451 0)
(-0.00987371 0.000258846 0)
(-0.0100687 0.000251723 0)
(-0.0102577 0.000244059 0)
(-0.0104403 0.000235834 0)
(-0.010616 0.000227029 0)
(-0.0107845 0.000217626 0)
(-0.0109453 0.000207609 0)
(-0.0110979 0.000196965 0)
(-0.0112419 0.000185684 0)
(-0.0113767 0.00017376 0)
(-0.011502 0.000161188 0)
(-0.0116172 0.000147968 0)
(-0.0117219 0.000134105 0)
(-0.0118156 0.000119607 0)
(-0.0118978 0.000104488 0)
(-0.0119682 8.87655e-05 0)
(-0.0120263 7.24629e-05 0)
(-0.0120717 5.56084e-05 0)
(-0.0121041 3.82354e-05 0)
(-0.012123 2.03814e-05 0)
(-0.0121282 2.09101e-06 0)
(-0.0121194 -1.65621e-05 0)
(-0.0120964 -3.55467e-05 0)
(-0.0120589 -5.48027e-05 0)
(-0.0120069 -7.42635e-05 0)
(-0.0119402 -9.38591e-05 0)
(-0.0118588 -0.000113516 0)
(-0.0117626 -0.000133158 0)
(-0.0116518 -0.000152707 0)
(-0.0115265 -0.000172081 0)
(-0.0113868 -0.000191198 0)
(-0.011233 -0.000209977 0)
(-0.0110654 -0.000228333 0)
(-0.0108844 -0.000246187 0)
(-0.0106902 -0.000263459 0)
(-0.0104835 -0.000280072 0)
(-0.0102647 -0.000295952 0)
(-0.0100344 -0.000311033 0)
(-0.00979317 -0.000325248 0)
(-0.00954172 -0.000338542 0)
(-0.00928072 -0.000350861 0)
(-0.00901089 -0.000362161 0)
(-0.00873299 -0.000372405 0)
(-0.00844779 -0.000381562 0)
(-0.00815609 -0.00038961 0)
(-0.00785869 -0.000396533 0)
(-0.00755641 -0.000402325 0)
(-0.00725006 -0.000406985 0)
(-0.00694045 -0.000410518 0)
(-0.00662841 -0.000412939 0)
(-0.00631472 -0.000414263 0)
(-0.00600016 -0.000414513 0)
(-0.00568552 -0.000413714 0)
(-0.00537154 -0.000411893 0)
(-0.00505895 -0.000409077 0)
(-0.00474848 -0.000405292 0)
(-0.00444083 -0.000400562 0)
(-0.00413669 -0.000394907 0)
(-0.00383674 -0.00038834 0)
(-0.00354166 -0.000380866 0)
(-0.00325213 -0.000372484 0)
(-0.00296884 -0.000363177 0)
(-0.00269251 -0.000352922 0)
(-0.00242387 -0.000341678 0)
(-0.0021637 -0.000329392 0)
(-0.00191281 -0.000316 0)
(-0.0016721 -0.000301423 0)
(-0.0014425 -0.000285572 0)
(-0.00122502 -0.000268349 0)
(-0.00102074 -0.000249657 0)
(-0.000830801 -0.000229403 0)
(-0.000656413 -0.000207512 0)
(-0.000498805 -0.000183943 0)
(-0.000359204 -0.000158712 0)
(-0.000238773 -0.000131927 0)
(-0.000138531 -0.000103832 0)
(-5.92292e-05 -7.48713e-05 0)
(-1.19205e-06 -4.57597e-05 0)
(3.58983e-05 -1.76266e-05 0)
(5.32791e-05 7.85846e-06 0)
(5.34088e-05 2.82436e-05 0)
(4.04013e-05 4.02128e-05 0)
(2.07443e-05 3.9394e-05 0)
(2.97576e-06 2.07628e-05 0)
(-2.27882e-06 1.79399e-05 0)
(-4.98682e-05 9.66156e-05 0)
(-0.00014737 0.000190637 0)
(-0.000291221 0.000283029 0)
(-0.00047651 0.000365732 0)
(-0.000697838 0.000435621 0)
(-0.000949473 0.000492268 0)
(-0.0012258 0.00053665 0)
(-0.00152169 0.000570377 0)
(-0.00183268 0.000595237 0)
(-0.00215498 0.000612956 0)
(-0.00248553 0.000625078 0)
(-0.00282185 0.00063292 0)
(-0.00316202 0.000637564 0)
(-0.00350457 0.000639874 0)
(-0.00384839 0.000640522 0)
(-0.00419268 0.000640018 0)
(-0.00453682 0.000638737 0)
(-0.00488041 0.000636949 0)
(-0.00522315 0.000634837 0)
(-0.0055648 0.000632522 0)
(-0.00590522 0.000630075 0)
(-0.00624429 0.00062753 0)
(-0.00658189 0.000624896 0)
(-0.00691794 0.000622164 0)
(-0.00725233 0.000619311 0)
(-0.00758494 0.000616306 0)
(-0.00791567 0.000613114 0)
(-0.00824436 0.000609694 0)
(-0.00857086 0.000606006 0)
(-0.00889499 0.000602007 0)
(-0.00921656 0.000597653 0)
(-0.00953534 0.000592901 0)
(-0.0098511 0.000587707 0)
(-0.0101636 0.000582026 0)
(-0.0104725 0.000575814 0)
(-0.0107775 0.000569026 0)
(-0.0110783 0.000561617 0)
(-0.0113745 0.000553542 0)
(-0.0116659 0.000544754 0)
(-0.0119518 0.00053521 0)
(-0.0122321 0.000524863 0)
(-0.0125061 0.00051367 0)
(-0.0127736 0.000501586 0)
(-0.0130339 0.000488569 0)
(-0.0132865 0.00047458 0)
(-0.0135311 0.000459577 0)
(-0.0137669 0.000443527 0)
(-0.0139936 0.000426394 0)
(-0.0142104 0.00040815 0)
(-0.0144169 0.000388769 0)
(-0.0146125 0.00036823 0)
(-0.0147965 0.000346517 0)
(-0.0149684 0.000323622 0)
(-0.0151276 0.00029954 0)
(-0.0152735 0.000274277 0)
(-0.0154055 0.000247842 0)
(-0.0155231 0.000220256 0)
(-0.0156257 0.000191547 0)
(-0.0157127 0.000161751 0)
(-0.0157837 0.000130915 0)
(-0.0158382 9.90945e-05 0)
(-0.0158758 6.63539e-05 0)
(-0.0158959 3.27664e-05 0)
(-0.0158983 -1.58387e-06 0)
(-0.0158827 -3.65827e-05 0)
(-0.0158487 -7.2147e-05 0)
(-0.0157962 -0.000108165 0)
(-0.0157249 -0.000144515 0)
(-0.0156349 -0.00018107 0)
(-0.0155261 -0.000217697 0)
(-0.0153985 -0.000254257 0)
(-0.0152522 -0.000290608 0)
(-0.0150874 -0.000326602 0)
(-0.0149044 -0.000362092 0)
(-0.0147035 -0.000396928 0)
(-0.0144851 -0.000430964 0)
(-0.0142496 -0.000464054 0)
(-0.0139975 -0.000496055 0)
(-0.0137296 -0.000526832 0)
(-0.0134464 -0.000556255 0)
(-0.0131486 -0.000584201 0)
(-0.012837 -0.000610558 0)
(-0.0125125 -0.000635223 0)
(-0.0121759 -0.000658106 0)
(-0.0118282 -0.000679128 0)
(-0.0114702 -0.000698222 0)
(-0.0111029 -0.000715337 0)
(-0.0107273 -0.000730431 0)
(-0.0103445 -0.000743481 0)
(-0.00995538 -0.000754472 0)
(-0.00956099 -0.000763404 0)
(-0.00916235 -0.000770289 0)
(-0.00876046 -0.000775147 0)
(-0.00835629 -0.000778009 0)
(-0.00795084 -0.000778913 0)
(-0.00754504 -0.000777902 0)
(-0.00713984 -0.00077502 0)
(-0.00673616 -0.000770314 0)
(-0.00633488 -0.000763827 0)
(-0.0059369 -0.000755598 0)
(-0.00554307 -0.000745657 0)
(-0.00515426 -0.000734021 0)
(-0.00477133 -0.000720697 0)
(-0.00439514 -0.00070567 0)
(-0.00402658 -0.00068891 0)
(-0.00366656 -0.000670361 0)
(-0.00331602 -0.000649946 0)
(-0.00297597 -0.000627564 0)
(-0.00264746 -0.000603088 0)
(-0.00233162 -0.000576373 0)
(-0.00202966 -0.000547253 0)
(-0.00174286 -0.000515554 0)
(-0.00147262 -0.000481102 0)
(-0.00122037 -0.000443737 0)
(-0.000987636 -0.000403342 0)
(-0.000775952 -0.000359865 0)
(-0.000586835 -0.000313371 0)
(-0.000421704 -0.000264097 0)
(-0.000281778 -0.000212529 0)
(-0.000167935 -0.000159509 0)
(-8.05253e-05 -0.000106363 0)
(-1.91319e-05 -5.50747e-05 0)
(1.7642e-05 -8.48512e-06 0)
(3.25806e-05 2.94513e-05 0)
(3.01996e-05 5.35233e-05 0)
(1.73187e-05 5.70049e-05 0)
(2.74015e-06 3.1672e-05 0)
(-4.29826e-06 4.86603e-05 0)
(-7.18568e-05 0.00018408 0)
(-0.000201916 0.000330556 0)
(-0.000387097 0.000470469 0)
(-0.000619907 0.000594985 0)
(-0.000893628 0.000700582 0)
(-0.00120171 0.000786875 0)
(-0.00153794 0.000855226 0)
(-0.00189668 0.000907843 0)
(-0.00227301 0.000947213 0)
(-0.00266274 0.000975777 0)
(-0.00306241 0.000995755 0)
(-0.00346921 0.00100907 0)
(-0.00388091 0.00101732 0)
(-0.00429577 0.00102181 0)
(-0.00471246 0.00102356 0)
(-0.00512996 0.00102336 0)
(-0.00554752 0.00102179 0)
(-0.00596459 0.00101928 0)
(-0.00638074 0.00101615 0)
(-0.00679567 0.00101258 0)
(-0.00720914 0.00100869 0)
(-0.00762095 0.00100457 0)
(-0.00803095 0.00100022 0)
(-0.00843896 0.000995655 0)
(-0.00884484 0.000990835 0)
(-0.00924843 0.000985721 0)
(-0.00964955 0.000980263 0)
(-0.010048 0.000974402 0)
(-0.0104436 0.000968079 0)
(-0.0108361 0.000961228 0)
(-0.0112252 0.000953783 0)
(-0.0116107 0.000945679 0)
(-0.0119922 0.000936847 0)
(-0.0123695 0.000927219 0)
(-0.0127421 0.000916728 0)
(-0.0131097 0.000905304 0)
(-0.0134719 0.000892877 0)
(-0.0138283 0.000879379 0)
(-0.0141783 0.00086474 0)
(-0.0145216 0.000848892 0)
(-0.0148576 0.000831765 0)
(-0.0151857 0.000813293 0)
(-0.0155055 0.000793411 0)
(-0.0158163 0.000772054 0)
(-0.0161176 0.000749163 0)
(-0.0164088 0.00072468 0)
(-0.0166891 0.000698552 0)
(-0.016958 0.000670732 0)
(-0.0172148 0.000641178 0)
(-0.0174588 0.000609855 0)
(-0.0176894 0.000576733 0)
(-0.0179058 0.000541796 0)
(-0.0181074 0.000505031 0)
(-0.0182935 0.000466441 0)
(-0.0184634 0.000426035 0)
(-0.0186164 0.000383837 0)
(-0.018752 0.000339883 0)
(-0.0188694 0.000294221 0)
(-0.0189682 0.000246913 0)
(-0.0190476 0.000198035 0)
(-0.0191072 0.00014768 0)
(-0.0191465 9.5951e-05 0)
(-0.019165 4.29699e-05 0)
(-0.0191624 -1.11272e-05 0)
(-0.0191382 -6.62018e-05 0)
(-0.0190924 -0.000122084 0)
(-0.0190245 -0.000178601 0)
(-0.0189345 -0.000235568 0)
(-0.0188223 -0.00029279 0)
(-0.0186879 -0.000350062 0)
(-0.0185314 -0.00040717 0)
(-0.018353 -0.000463896 0)
(-0.0181529 -0.000520017 0)
(-0.0179314 -0.000575307 0)
(-0.0176889 -0.000629541 0)
(-0.0174259 -0.000682495 0)
(-0.017143 -0.00073395 0)
(-0.0168408 -0.000783692 0)
(-0.0165201 -0.000831517 0)
(-0.0161816 -0.000877231 0)
(-0.0158261 -0.00092065 0)
(-0.0154546 -0.000961606 0)
(-0.015068 -0.000999948 0)
(-0.0146674 -0.00103554 0)
(-0.0142537 -0.00106827 0)
(-0.0138282 -0.00109803 0)
(-0.0133918 -0.00112475 0)
(-0.0129458 -0.00114838 0)
(-0.0124912 -0.00116887 0)
(-0.0120293 -0.0011862 0)
(-0.0115612 -0.00120038 0)
(-0.0110881 -0.00121143 0)
(-0.0106111 -0.00121937 0)
(-0.0101313 -0.00122426 0)
(-0.00964992 -0.00122614 0)
(-0.00916796 -0.00122508 0)
(-0.00868654 -0.00122114 0)
(-0.00820669 -0.0012144 0)
(-0.00772946 -0.00120491 0)
(-0.00725585 -0.00119272 0)
(-0.00678688 -0.00117789 0)
(-0.00632354 -0.00116042 0)
(-0.00586683 -0.00114031 0)
(-0.00541776 -0.00111755 0)
(-0.00497736 -0.00109207 0)
(-0.0045467 -0.00106378 0)
(-0.00412688 -0.00103256 0)
(-0.00371909 -0.000998236 0)
(-0.00332455 -0.000960622 0)
(-0.0029446 -0.000919484 0)
(-0.00258065 -0.000874571 0)
(-0.00223421 -0.000825617 0)
(-0.00190688 -0.000772363 0)
(-0.00160034 -0.000714581 0)
(-0.00131633 -0.00065211 0)
(-0.00105662 -0.000584903 0)
(-0.000822929 -0.000513096 0)
(-0.000616852 -0.000437095 0)
(-0.000439754 -0.000357683 0)
(-0.000292607 -0.000276167 0)
(-0.000175802 -0.000194554 0)
(-8.89238e-05 -0.000115759 0)
(-3.05073e-05 -4.3859e-05 0)
(2.28949e-06 1.57176e-05 0)
(1.39514e-05 5.58341e-05 0)
(1.11212e-05 6.75745e-05 0)
(2.20017e-06 3.98742e-05 0)
(-5.97253e-06 9.02106e-05 0)
(-9.15816e-05 0.000297379 0)
(-0.00025178 0.000506428 0)
(-0.00047546 0.000700864 0)
(-0.000752407 0.000872303 0)
(-0.0010744 0.00101757 0)
(-0.00143396 0.00113674 0)
(-0.00182429 0.00123178 0)
(-0.00223931 0.0013056 0)
(-0.00267375 0.00136144 0)
(-0.00312316 0.00140249 0)
(-0.00358379 0.00143167 0)
(-0.00405261 0.00145154 0)
(-0.00452718 0.00146424 0)
(-0.00500556 0.00147153 0)
(-0.00548623 0.00147481 0)
(-0.00596805 0.00147519 0)
(-0.00645011 0.00147347 0)
(-0.00693174 0.00147027 0)
(-0.00741242 0.00146602 0)
(-0.00789176 0.00146102 0)
(-0.00836943 0.00145546 0)
(-0.00884518 0.00144944 0)
(-0.00931876 0.001443 0)
(-0.00978997 0.00143616 0)
(-0.0102586 0.00142888 0)
(-0.0107244 0.00142111 0)
(-0.0111872 0.00141279 0)
(-0.0116467 0.00140384 0)
(-0.0121027 0.00139417 0)
(-0.0125548 0.00138371 0)
(-0.0130028 0.00137235 0)
(-0.0134463 0.00136001 0)
(-0.013885 0.00134659 0)
(-0.0143184 0.001332 0)
(-0.0147462 0.00131615 0)
(-0.0151678 0.00129894 0)
(-0.0155829 0.00128026 0)
(-0.0159909 0.00126004 0)
(-0.0163912 0.00123816 0)
(-0.0167834 0.00121454 0)
(-0.0171668 0.00118908 0)
(-0.0175409 0.00116169 0)
(-0.0179049 0.00113229 0)
(-0.0182583 0.00110078 0)
(-0.0186004 0.00106708 0)
(-0.0189304 0.00103112 0)
(-0.0192476 0.000992836 0)
(-0.0195514 0.000952154 0)
(-0.0198409 0.000909026 0)
(-0.0201155 0.000863408 0)
(-0.0203743 0.000815267 0)
(-0.0206166 0.000764583 0)
(-0.0208416 0.000711347 0)
(-0.0210486 0.000655568 0)
(-0.0212369 0.000597267 0)
(-0.0214056 0.000536485 0)
(-0.0215542 0.000473277 0)
(-0.0216819 0.00040772 0)
(-0.0217881 0.000339907 0)
(-0.0218722 0.000269952 0)
(-0.0219337 0.000197988 0)
(-0.0219719 0.000124168 0)
(-0.0219864 4.86659e-05 0)
(-0.0219769 -2.83258e-05 0)
(-0.021943 -0.000106603 0)
(-0.0218845 -0.00018593 0)
(-0.021801 -0.000266063 0)
(-0.0216926 -0.000346741 0)
(-0.0215592 -0.00042769 0)
(-0.0214008 -0.000508623 0)
(-0.0212175 -0.000589245 0)
(-0.0210096 -0.000669252 0)
(-0.0207774 -0.000748335 0)
(-0.0205213 -0.000826185 0)
(-0.0202418 -0.00090249 0)
(-0.0199393 -0.000976945 0)
(-0.0196147 -0.00104925 0)
(-0.0192687 -0.00111911 0)
(-0.0189019 -0.00118625 0)
(-0.0185154 -0.0012504 0)
(-0.0181101 -0.00131133 0)
(-0.0176871 -0.00136879 0)
(-0.0172473 -0.00142259 0)
(-0.016792 -0.00147254 0)
(-0.0163222 -0.00151849 0)
(-0.0158393 -0.00156031 0)
(-0.0153445 -0.0015979 0)
(-0.0148389 -0.00163117 0)
(-0.0143239 -0.00166009 0)
(-0.0138008 -0.00168463 0)
(-0.0132708 -0.00170479 0)
(-0.0127352 -0.0017206 0)
(-0.0121953 -0.0017321 0)
(-0.0116523 -0.00173936 0)
(-0.0111075 -0.00174244 0)
(-0.0105619 -0.00174144 0)
(-0.0100169 -0.00173645 0)
(-0.00947362 -0.00172755 0)
(-0.00893311 -0.00171481 0)
(-0.00839653 -0.00169832 0)
(-0.00786498 -0.00167811 0)
(-0.00733956 -0.00165421 0)
(-0.00682138 -0.00162661 0)
(-0.00631156 -0.00159527 0)
(-0.00581124 -0.00156009 0)
(-0.00532159 -0.00152095 0)
(-0.00484386 -0.00147767 0)
(-0.00437935 -0.00143 0)
(-0.00392943 -0.00137767 0)
(-0.00349557 -0.00132037 0)
(-0.00307933 -0.00125773 0)
(-0.00268239 -0.00118941 0)
(-0.0023065 -0.00111505 0)
(-0.00195351 -0.00103435 0)
(-0.00162532 -0.000947119 0)
(-0.00132385 -0.000853319 0)
(-0.00105097 -0.000753179 0)
(-0.000808389 -0.000647297 0)
(-0.000597583 -0.000536786 0)
(-0.000419603 -0.000423454 0)
(-0.000274902 -0.000310015 0)
(-0.000163122 -0.000200331 0)
(-8.28532e-05 -9.967e-05 0)
(-3.14089e-05 -1.49533e-05 0)
(-4.5211e-06 4.49726e-05 0)
(3.95691e-06 6.92251e-05 0)
(1.58548e-06 4.44457e-05 0)
(-7.34328e-06 0.000141296 0)
(-0.000108877 0.00043399 0)
(-0.000296274 0.000715224 0)
(-0.000555037 0.000970819 0)
(-0.000872339 0.00119383 0)
(-0.00123838 0.00138216 0)
(-0.0016447 0.0015368 0)
(-0.00208385 0.0016606 0)
(-0.00254933 0.00175733 0)
(-0.00303559 0.00183108 0)
(-0.00353793 0.00188582 0)
(-0.00405244 0.00192522 0)
(-0.00457592 0.00195246 0)
(-0.00510579 0.00197026 0)
(-0.00563995 0.00198085 0)
(-0.00617679 0.00198604 0)
(-0.00671502 0.00198721 0)
(-0.00725365 0.00198546 0)
(-0.00779189 0.00198158 0)
(-0.00832915 0.00197615 0)
(-0.00886495 0.00196957 0)
(-0.0093989 0.00196209 0)
(-0.00993066 0.00195388 0)
(-0.0104599 0.001945 0)
(-0.0109865 0.00193547 0)
(-0.01151 0.00192526 0)
(-0.0120302 0.00191431 0)
(-0.0125468 0.00190255 0)
(-0.0130596 0.00188987 0)
(-0.0135682 0.00187617 0)
(-0.0140722 0.00186134 0)
(-0.0145714 0.00184527 0)
(-0.0150652 0.00182784 0)
(-0.0155533 0.00180891 0)
(-0.0160353 0.00178838 0)
(-0.0165106 0.00176612 0)
(-0.0169788 0.00174201 0)
(-0.0174392 0.00171591 0)
(-0.0178914 0.0016877 0)
(-0.0183347 0.00165727 0)
(-0.0187685 0.00162448 0)
(-0.0191922 0.00158923 0)
(-0.0196051 0.00155138 0)
(-0.0200064 0.00151083 0)
(-0.0203955 0.00146747 0)
(-0.0207715 0.0014212 0)
(-0.0211338 0.00137192 0)
(-0.0214815 0.00131955 0)
(-0.0218139 0.00126401 0)
(-0.02213 0.00120524 0)
(-0.0224292 0.00114318 0)
(-0.0227106 0.00107781 0)
(-0.0229733 0.0010091 0)
(-0.0232166 0.000937056 0)
(-0.0234396 0.00086169 0)
(-0.0236415 0.000783043 0)
(-0.0238216 0.000701175 0)
(-0.0239792 0.00061617 0)
(-0.0241135 0.000528134 0)
(-0.0242238 0.0004372 0)
(-0.0243096 0.000343525 0)
(-0.0243702 0.000247292 0)
(-0.0244051 0.000148707 0)
(-0.0244139 4.80057e-05 0)
(-0.0243961 -5.45557e-05 0)
(-0.0243514 -0.000158699 0)
(-0.0242796 -0.000264116 0)
(-0.0241805 -0.000370484 0)
(-0.024054 -0.000477458 0)
(-0.0239002 -0.000584677 0)
(-0.023719 -0.000691768 0)
(-0.0235108 -0.000798344 0)
(-0.0232757 -0.00090401 0)
(-0.0230142 -0.00100836 0)
(-0.0227267 -0.00111101 0)
(-0.0224137 -0.00121154 0)
(-0.022076 -0.00130956 0)
(-0.0217143 -0.00140469 0)
(-0.0213294 -0.00149654 0)
(-0.0209222 -0.00158478 0)
(-0.0204937 -0.00166905 0)
(-0.0200449 -0.00174905 0)
(-0.0195771 -0.00182449 0)
(-0.0190913 -0.0018951 0)
(-0.0185888 -0.00196066 0)
(-0.0180708 -0.00202097 0)
(-0.0175388 -0.00207587 0)
(-0.0169939 -0.00212523 0)
(-0.0164377 -0.00216897 0)
(-0.0158714 -0.00220702 0)
(-0.0152964 -0.00223936 0)
(-0.0147142 -0.00226599 0)
(-0.014126 -0.00228696 0)
(-0.0135332 -0.00230231 0)
(-0.0129372 -0.00231214 0)
(-0.0123392 -0.00231654 0)
(-0.0117406 -0.00231562 0)
(-0.0111426 -0.00230949 0)
(-0.0105464 -0.00229826 0)
(-0.00995333 -0.00228203 0)
(-0.00936448 -0.00226088 0)
(-0.00878105 -0.00223487 0)
(-0.00820422 -0.00220403 0)
(-0.00763518 -0.00216833 0)
(-0.00707512 -0.00212771 0)
(-0.00652526 -0.00208205 0)
(-0.00598688 -0.00203116 0)
(-0.00546128 -0.00197481 0)
(-0.00494986 -0.00191268 0)
(-0.00445409 -0.00184441 0)
(-0.00397554 -0.00176958 0)
(-0.00351588 -0.00168775 0)
(-0.00307688 -0.00159845 0)
(-0.0026604 -0.00150124 0)
(-0.00226841 -0.00139576 0)
(-0.00190291 -0.00128176 0)
(-0.00156591 -0.00115925 0)
(-0.00125938 -0.00102855 0)
(-0.000985123 -0.000890461 0)
(-0.000744686 -0.000746445 0)
(-0.000539196 -0.000598819 0)
(-0.000369188 -0.000450997 0)
(-0.000234406 -0.000307764 0)
(-0.000133595 -0.000175534 0)
(-6.42823e-05 -6.26044e-05 0)
(-2.25668e-05 2.06622e-05 0)
(-3.0075e-06 6.16422e-05 0)
(1.01526e-06 4.52587e-05 0)
(-8.47422e-06 0.000200646 0)
(-0.000123898 0.000591263 0)
(-0.000335463 0.000953607 0)
(-0.000625723 0.0012766 0)
(-0.000979459 0.00155551 0)
(-0.00138533 0.00178993 0)
(-0.00183388 0.00198222 0)
(-0.00231696 0.00213641 0)
(-0.00282765 0.00225734 0)
(-0.00336011 0.00235003 0)
(-0.00390946 0.00241934 0)
(-0.00447165 0.00246966 0)
(-0.00504335 0.00250487 0)
(-0.00562186 0.00252825 0)
(-0.00620504 0.00254252 0)
(-0.00679115 0.00254986 0)
(-0.00737882 0.00255202 0)
(-0.00796699 0.00255032 0)
(-0.0085548 0.00254576 0)
(-0.00914158 0.00253906 0)
(-0.00972677 0.00253074 0)
(-0.0103099 0.00252114 0)
(-0.0108906 0.00251045 0)
(-0.0114686 0.00249879 0)
(-0.0120434 0.00248617 0)
(-0.0126148 0.00247258 0)
(-0.0131825 0.00245795 0)
(-0.013746 0.00244218 0)
(-0.0143051 0.00242517 0)
(-0.0148594 0.00240678 0)
(-0.0154085 0.00238688 0)
(-0.015952 0.00236533 0)
(-0.0164895 0.00234197 0)
(-0.0170203 0.00231667 0)
(-0.0175442 0.00228926 0)
(-0.0180604 0.00225959 0)
(-0.0185685 0.00222752 0)
(-0.0190678 0.00219288 0)
(-0.0195578 0.00215552 0)
(-0.0200377 0.00211528 0)
(-0.0205069 0.00207203 0)
(-0.0209647 0.0020256 0)
(-0.0214103 0.00197585 0)
(-0.0218429 0.00192266 0)
(-0.0222619 0.00186588 0)
(-0.0226662 0.0018054 0)
(-0.0230552 0.0017411 0)
(-0.023428 0.00167288 0)
(-0.0237837 0.00160066 0)
(-0.0241215 0.00152435 0)
(-0.0244404 0.00144392 0)
(-0.0247396 0.00135932 0)
(-0.0250183 0.00127054 0)
(-0.0252756 0.00117759 0)
(-0.0255106 0.0010805 0)
(-0.0257225 0.000979326 0)
(-0.0259105 0.000874157 0)
(-0.0260739 0.000765109 0)
(-0.0262118 0.000652325 0)
(-0.0263237 0.000535981 0)
(-0.0264088 0.000416284 0)
(-0.0264666 0.000293471 0)
(-0.0264965 0.000167812 0)
(-0.0264981 3.96077e-05 0)
(-0.0264711 -9.08139e-05 0)
(-0.026415 -0.000223095 0)
(-0.0263297 -0.000356849 0)
(-0.0262151 -0.000491664 0)
(-0.026071 -0.000627109 0)
(-0.0258975 -0.00076273 0)
(-0.0256948 -0.000898057 0)
(-0.0254632 -0.00103261 0)
(-0.0252028 -0.00116589 0)
(-0.0249143 -0.00129741 0)
(-0.0245981 -0.00142666 0)
(-0.0242548 -0.00155316 0)
(-0.0238852 -0.00167641 0)
(-0.0234901 -0.00179593 0)
(-0.0230705 -0.00191128 0)
(-0.0226273 -0.002022 0)
(-0.0221615 -0.0021277 0)
(-0.0216744 -0.00222798 0)
(-0.0211672 -0.0023225 0)
(-0.0206411 -0.00241094 0)
(-0.0200974 -0.00249303 0)
(-0.0195376 -0.00256853 0)
(-0.018963 -0.00263724 0)
(-0.018375 -0.00269903 0)
(-0.0177752 -0.00275377 0)
(-0.0171649 -0.0028014 0)
(-0.0165456 -0.00284191 0)
(-0.0159188 -0.00287529 0)
(-0.0152859 -0.00290161 0)
(-0.0146484 -0.00292094 0)
(-0.0140077 -0.00293338 0)
(-0.013365 -0.00293905 0)
(-0.0127219 -0.0029381 0)
(-0.0120796 -0.00293065 0)
(-0.0114394 -0.00291685 0)
(-0.0108025 -0.00289681 0)
(-0.0101703 -0.00287064 0)
(-0.00954398 -0.00283839 0)
(-0.00892474 -0.0028001 0)
(-0.00831382 -0.00275574 0)
(-0.00771249 -0.00270521 0)
(-0.00712201 -0.00264836 0)
(-0.00654371 -0.00258496 0)
(-0.00597896 -0.0025147 0)
(-0.00542921 -0.0024372 0)
(-0.004896 -0.002352 0)
(-0.00438094 -0.00225859 0)
(-0.00388577 -0.00215641 0)
(-0.00341233 -0.0020449 0)
(-0.00296254 -0.00192352 0)
(-0.00253844 -0.00179185 0)
(-0.00214208 -0.00164961 0)
(-0.00177554 -0.00149684 0)
(-0.00144084 -0.00133395 0)
(-0.00113985 -0.00116197 0)
(-0.000874176 -0.000982687 0)
(-0.000645011 -0.00079892 0)
(-0.000452986 -0.000614766 0)
(-0.000297979 -0.000435881 0)
(-0.000178923 -0.000269753 0)
(-9.36204e-05 -0.000125927 0)
(-3.86071e-05 -1.61601e-05 0)
(-9.13078e-06 4.5494e-05 0)
(5.43459e-07 4.26435e-05 0)
(-9.41762e-06 0.000267126 0)
(-0.000136896 0.000766673 0)
(-0.000369741 0.00121826 0)
(-0.000687988 0.00161445 0)
(-0.0010743 0.00195329 0)
(-0.00151591 0.00223656 0)
(-0.00200235 0.00246841 0)
(-0.00252481 0.00265435 0)
(-0.00307592 0.00280047 0)
(-0.00364956 0.00291288 0)
(-0.00424065 0.00299735 0)
(-0.00484502 0.00305909 0)
(-0.00545927 0.00310266 0)
(-0.00608062 0.00313194 0)
(-0.00670684 0.00315012 0)
(-0.00733616 0.0031598 0)
(-0.00796715 0.00316304 0)
(-0.00859868 0.00316143 0)
(-0.00922983 0.00315615 0)
(-0.00985988 0.0031481 0)
(-0.0104882 0.0031379 0)
(-0.0111143 0.00312595 0)
(-0.0117378 0.00311252 0)
(-0.0123582 0.00309775 0)
(-0.0129751 0.00308168 0)
(-0.0135882 0.00306428 0)