/*--------------------------------*- C++ -*----------------------------------*\
| =========                 |                                                 |
| \\      /  F ield         | OpenFOAM: The Open Source CFD Toolbox           |
|  \\    /   O peration     | Version:  2406                                  |
|   \\  /    A nd           | Website:  www.openfoam.com                      |
|    \\/     M anipulation  |                                                 |
\*---------------------------------------------------------------------------*/
FoamFile
{
    version     2.0;
    format      ascii;
    arch        "LSB;label=32;scalar=64";
    class       volVectorField;
    location    "7.25";
    object      U_0;
}
// * * * * * * * * * * * * * * * * * * * * * * * * * * * * * * * * * * * * * //

dimensions      [0 1 -1 0 0 0 0];

internalField   nonuniform List<vector> 
16384
(
(3.3757e-06 -3.37348e-06 0)
(7.13426e-06 -2.25668e-06 0)
(7.68302e-07 -2.27652e-09 0)
(-1.7286e-05 2.14464e-06 0)
(-4.60531e-05 3.8805e-06 0)
(-8.36791e-05 5.14932e-06 0)
(-0.000128277 6.02122e-06 0)
(-0.00017812 6.59202e-06 0)
(-0.000231768 6.94379e-06 0)
(-0.000288081 7.14098e-06 0)
(-0.000346178 7.2326e-06 0)
(-0.000405406 7.25489e-06 0)
(-0.000465286 7.234e-06 0)
(-0.000525481 7.18843e-06 0)
(-0.000585758 7.13087e-06 0)
(-0.000645968 7.06978e-06 0)
(-0.000706014 7.01051e-06 0)
(-0.000765845 6.95621e-06 0)
(-0.000825435 6.90846e-06 0)
(-0.000884775 6.86778e-06 0)
(-0.000943868 6.834e-06 0)
(-0.00100272 6.80654e-06 0)
(-0.00106135 6.78456e-06 0)
(-0.00111975 6.7671e-06 0)
(-0.00117794 6.75316e-06 0)
(-0.00123591 6.74174e-06 0)
(-0.00129367 6.7319e-06 0)
(-0.0013512 6.72276e-06 0)
(-0.00140849 6.71346e-06 0)
(-0.00146554 6.70324e-06 0)
(-0.0015223 6.69133e-06 0)
(-0.00157877 6.67701e-06 0)
(-0.00163491 6.6596e-06 0)
(-0.00169067 6.63842e-06 0)
(-0.00174603 6.61279e-06 0)
(-0.00180093 6.58203e-06 0)
(-0.00185533 6.54544e-06 0)
(-0.00190917 6.50231e-06 0)
(-0.00196239 6.45194e-06 0)
(-0.00201493 6.39358e-06 0)
(-0.00206672 6.32649e-06 0)
(-0.00211769 6.24991e-06 0)
(-0.00216774 6.16305e-06 0)
(-0.00221681 6.06513e-06 0)
(-0.0022648 5.95537e-06 0)
(-0.00231162 5.83297e-06 0)
(-0.00235717 5.69718e-06 0)
(-0.00240135 5.54722e-06 0)
(-0.00244405 5.38237e-06 0)
(-0.00248515 5.20192e-06 0)
(-0.00252455 5.00522e-06 0)
(-0.00256213 4.79166e-06 0)
(-0.00259776 4.56071e-06 0)
(-0.00263132 4.31191e-06 0)
(-0.00266269 4.04487e-06 0)
(-0.00269175 3.75935e-06 0)
(-0.00271836 3.45516e-06 0)
(-0.0027424 3.13228e-06 0)
(-0.00276375 2.7908e-06 0)
(-0.00278229 2.43097e-06 0)
(-0.00279789 2.0532e-06 0)
(-0.00281046 1.65808e-06 0)
(-0.00281987 1.24644e-06 0)
(-0.00282603 8.19624e-07 0)
(-0.00282885 3.79393e-07 0)
(-0.00282824 -7.8167e-08 0)
(-0.00282413 -5.47002e-07 0)
(-0.00281644 -1.02544e-06 0)
(-0.00280514 -1.51203e-06 0)
(-0.00279018 -2.00503e-06 0)
(-0.00277154 -2.50246e-06 0)
(-0.0027492 -3.00212e-06 0)
(-0.00272318 -3.50164e-06 0)
(-0.00269348 -3.99857e-06 0)
(-0.00266016 -4.49039e-06 0)
(-0.00262326 -4.97453e-06 0)
(-0.00258285 -5.4484e-06 0)
(-0.00253902 -5.9094e-06 0)
(-0.00249187 -6.35499e-06 0)
(-0.00244151 -6.7827e-06 0)
(-0.00238808 -7.19014e-06 0)
(-0.00233174 -7.57506e-06 0)
(-0.00227262 -7.93535e-06 0)
(-0.00221092 -8.26912e-06 0)
(-0.00214682 -8.57463e-06 0)
(-0.0020805 -8.85042e-06 0)
(-0.00201218 -9.09523e-06 0)
(-0.00194206 -9.30808e-06 0)
(-0.00187035 -9.48826e-06 0)
(-0.00179728 -9.63531e-06 0)
(-0.00172307 -9.74905e-06 0)
(-0.00164793 -9.82956e-06 0)
(-0.0015721 -9.87715e-06 0)
(-0.00149578 -9.89238e-06 0)
(-0.00141919 -9.876e-06 0)
(-0.00134255 -9.82895e-06 0)
(-0.00126606 -9.75231e-06 0)
(-0.00118991 -9.64725e-06 0)
(-0.00111432 -9.51503e-06 0)
(-0.00103945 -9.35691e-06 0)
(-0.0009655 -9.17411e-06 0)
(-0.000892639 -8.96779e-06 0)
(-0.000821041 -8.73898e-06 0)
(-0.000750875 -8.48853e-06 0)
(-0.000682308 -8.21704e-06 0)
(-0.000615508 -7.92485e-06 0)
(-0.000550646 -7.61195e-06 0)
(-0.000487895 -7.27801e-06 0)
(-0.000427439 -6.92228e-06 0)
(-0.000369471 -6.54356e-06 0)
(-0.000314197 -6.14022e-06 0)
(-0.000261837 -5.71015e-06 0)
(-0.000212631 -5.2508e-06 0)
(-0.000166839 -4.75916e-06 0)
(-0.000124738 -4.23185e-06 0)
(-8.66266e-05 -3.66513e-06 0)
(-5.28203e-05 -3.05486e-06 0)
(-2.36402e-05 -2.39784e-06 0)
(5.91546e-07 -1.69579e-06 0)
(1.95652e-05 -9.49062e-07 0)
(3.30291e-05 -1.49556e-07 0)
(4.08342e-05 6.77601e-07 0)
(4.29872e-05 1.50115e-06 0)
(3.97781e-05 2.26803e-06 0)
(3.19501e-05 2.86607e-06 0)
(2.09598e-05 3.08589e-06 0)
(9.34162e-06 2.60165e-06 0)
(1.18546e-06 1.19815e-06 0)
(2.30703e-06 -7.17295e-06 0)
(-5.03812e-06 4.99288e-06 0)
(-3.68105e-05 2.5894e-05 0)
(-9.49418e-05 4.72961e-05 0)
(-0.000177787 6.61441e-05 0)
(-0.000281905 8.15056e-05 0)
(-0.000403397 9.34301e-05 0)
(-0.000538523 0.000102346 0)
(-0.000683993 0.000108786 0)
(-0.000837065 0.000113269 0)
(-0.000995536 0.00011625 0)
(-0.00115768 0.000118111 0)
(-0.0013222 0.000119159 0)
(-0.00148812 0.000119632 0)
(-0.00165473 0.000119713 0)
(-0.00182155 0.000119538 0)
(-0.00198824 0.000119205 0)
(-0.00215458 0.000118783 0)
(-0.00232043 0.000118317 0)
(-0.00248571 0.000117838 0)
(-0.00265037 0.000117362 0)
(-0.0028144 0.000116897 0)
(-0.00297778 0.000116445 0)
(-0.00314049 0.000116001 0)
(-0.00330254 0.000115562 0)
(-0.0034639 0.000115119 0)
(-0.00362454 0.000114664 0)
(-0.00378444 0.000114187 0)
(-0.00394353 0.00011368 0)
(-0.00410177 0.000113133 0)
(-0.00425909 0.000112537 0)
(-0.00441539 0.000111883 0)
(-0.0045706 0.000111161 0)
(-0.00472459 0.000110363 0)
(-0.00487726 0.000109479 0)
(-0.00502847 0.0001085 0)
(-0.00517808 0.000107417 0)
(-0.00532595 0.00010622 0)
(-0.00547189 0.0001049 0)
(-0.00561573 0.000103448 0)
(-0.00575729 0.000101853 0)
(-0.00589635 0.000100107 0)
(-0.00603271 9.81992e-05 0)
(-0.00616613 9.61204e-05 0)
(-0.00629637 9.38614e-05 0)
(-0.00642319 9.14129e-05 0)
(-0.00654632 8.87661e-05 0)
(-0.00666549 8.59125e-05 0)
(-0.00678041 8.28442e-05 0)
(-0.0068908 7.95539e-05 0)
(-0.00699634 7.60351e-05 0)
(-0.00709675 7.22821e-05 0)
(-0.00719169 6.82901e-05 0)
(-0.00728086 6.40558e-05 0)
(-0.00736394 5.95768e-05 0)
(-0.0074406 5.48522e-05 0)
(-0.00751053 4.98828e-05 0)
(-0.0075734 4.46708e-05 0)
(-0.00762892 3.92204e-05 0)
(-0.00767677 3.35374e-05 0)
(-0.00771667 2.76298e-05 0)
(-0.00774833 2.15075e-05 0)
(-0.00777149 1.51826e-05 0)
(-0.00778591 8.67022e-06 0)
(-0.00779137 1.98928e-06 0)
(-0.00778766 -4.84929e-06 0)
(-0.0077746 -1.18191e-05 0)
(-0.00775204 -1.88999e-05 0)
(-0.00771987 -2.60674e-05 0)
(-0.00767802 -3.32956e-05 0)
(-0.00762643 -4.05566e-05 0)
(-0.00756509 -4.78214e-05 0)
(-0.00749403 -5.50596e-05 0)
(-0.00741332 -6.22404e-05 0)
(-0.00732306 -6.93321e-05 0)
(-0.00722341 -7.63027e-05 0)
(-0.00711454 -8.31203e-05 0)
(-0.00699669 -8.97532e-05 0)
(-0.00687013 -9.61705e-05 0)
(-0.00673517 -0.000102342 0)
(-0.00659215 -0.00010824 0)
(-0.00644144 -0.000113836 0)
(-0.00628347 -0.000119105 0)
(-0.00611867 -0.000124026 0)
(-0.00594751 -0.000128576 0)
(-0.00577048 -0.00013274 0)
(-0.0055881 -0.000136501 0)
(-0.0054009 -0.000139847 0)
(-0.00520942 -0.000142771 0)
(-0.00501421 -0.000145265 0)
(-0.00481583 -0.000147327 0)
(-0.00461485 -0.000148958 0)
(-0.0044118 -0.000150158 0)
(-0.00420727 -0.000150935 0)
(-0.00400177 -0.000151295 0)
(-0.00379587 -0.000151247 0)
(-0.00359007 -0.000150801 0)
(-0.00338489 -0.000149969 0)
(-0.00318083 -0.000148763 0)
(-0.00297838 -0.000147194 0)
(-0.00277801 -0.000145272 0)
(-0.00258018 -0.000143006 0)
(-0.00238535 -0.000140405 0)
(-0.00219397 -0.000137471 0)
(-0.00200648 -0.000134205 0)
(-0.00182334 -0.000130605 0)
(-0.00164502 -0.000126661 0)
(-0.001472 -0.000122363 0)
(-0.00130477 -0.000117691 0)
(-0.00114388 -0.000112622 0)
(-0.000989894 -0.000107128 0)
(-0.000843421 -0.000101177 0)
(-0.000705122 -9.47303e-05 0)
(-0.000575704 -8.77508e-05 0)
(-0.000455922 -8.02e-05 0)
(-0.000346576 -7.20443e-05 0)
(-0.000248495 -6.32599e-05 0)
(-0.000162516 -5.3842e-05 0)
(-8.94464e-05 -4.38205e-05 0)
(-3.00109e-05 -3.32705e-05 0)
(1.52159e-05 -2.23315e-05 0)
(4.59502e-05 -1.12709e-05 0)
(6.23687e-05 -5.2742e-07 0)
(6.53041e-05 9.20567e-06 0)
(5.65588e-05 1.68664e-05 0)
(3.93379e-05 2.0854e-05 0)
(1.88922e-05 1.90089e-05 0)
(2.54264e-06 9.31357e-06 0)
(1.60544e-08 -7.6343e-07 0)
(-2.66343e-05 3.6889e-05 0)
(-9.04587e-05 8.88687e-05 0)
(-0.000191316 0.000141268 0)
(-0.000326358 0.000188105 0)
(-0.000491229 0.000227256 0)
(-0.000680981 0.000258523 0)
(-0.000890735 0.000282609 0)
(-0.00111607 0.000300572 0)
(-0.00135319 0.000313535 0)
(-0.00159895 0.000322546 0)
(-0.00185084 0.000328517 0)
(-0.00210688 0.000332208 0)
(-0.00236557 0.000334234 0)
(-0.00262578 0.000335073 0)
(-0.00288669 0.000335094 0)
(-0.00314771 0.000334568 0)
(-0.00340844 0.000333694 0)
(-0.0036686 0.000332609 0)
(-0.003928 0.000331407 0)
(-0.00418651 0.000330143 0)
(-0.00444407 0.000328851 0)
(-0.00470059 0.000327543 0)
(-0.00495605 0.000326218 0)
(-0.00521038 0.000324867 0)
(-0.00546353 0.000323475 0)
(-0.00571545 0.000322024 0)
(-0.00596605 0.00032049 0)
(-0.00621524 0.000318852 0)
(-0.00646293 0.000317086 0)
(-0.00670897 0.000315168 0)
(-0.00695325 0.000313075 0)
(-0.00719559 0.000310781 0)
(-0.00743582 0.000308264 0)
(-0.00767376 0.000305498 0)
(-0.00790919 0.00030246 0)
(-0.00814189 0.000299125 0)
(-0.00837161 0.000295468 0)
(-0.00859808 0.000291465 0)
(-0.00882103 0.00028709 0)
(-0.00904016 0.000282318 0)
(-0.00925515 0.000277125 0)
(-0.00946566 0.000271486 0)
(-0.00967135 0.000265376 0)
(-0.00987184 0.000258771 0)
(-0.0100668 0.000251649 0)
(-0.0102557 0.000243987 0)
(-0.0104382 0.000235764 0)
(-0.0106139 0.000226961 0)
(-0.0107824 0.00021756 0)
(-0.0109431 0.000207547 0)
(-0.0110957 0.000196907 0)
(-0.0112396 0.00018563 0)
(-0.0113744 0.00017371 0)
(-0.0114997 0.000161143 0)
(-0.0116149 0.000147929 0)
(-0.0117195 0.000134073 0)
(-0.0118132 0.000119582 0)
(-0.0118955 0.00010447 0)
(-0.0119658 8.87551e-05 0)
(-0.0120239 7.24607e-05 0)
(-0.0120694 5.56148e-05 0)
(-0.0121017 3.82507e-05 0)
(-0.0121207 2.04062e-05 0)
(-0.0121259 2.12569e-06 0)
(-0.0121172 -1.65182e-05 0)
(-0.0120942 -3.54931e-05 0)
(-0.0120568 -5.47393e-05 0)
(-0.0120048 -7.41902e-05 0)
(-0.0119382 -9.37759e-05 0)
(-0.0118568 -0.000113423 0)
(-0.0117608 -0.000133056 0)
(-0.0116501 -0.000152595 0)
(-0.0115248 -0.000171961 0)
(-0.0113852 -0.00019107 0)
(-0.0112316 -0.00020984 0)
(-0.0110641 -0.00022819 0)
(-0.0108831 -0.000246037 0)
(-0.0106891 -0.000263303 0)
(-0.0104825 -0.00027991 0)
(-0.0102638 -0.000295787 0)
(-0.0100336 -0.000310864 0)
(-0.00979255 -0.000325077 0)
(-0.00954123 -0.000338369 0)
(-0.00928036 -0.000350688 0)
(-0.00901067 -0.000361989 0)
(-0.0087329 -0.000372234 0)
(-0.00844783 -0.000381393 0)
(-0.00815625 -0.000389445 0)
(-0.00785897 -0.000396372 0)
(-0.00755681 -0.000402169 0)
(-0.00725058 -0.000406835 0)
(-0.00694109 -0.000410376 0)
(-0.00662914 -0.000412804 0)
(-0.00631555 -0.000414137 0)
(-0.00600109 -0.000414396 0)
(-0.00568653 -0.000413607 0)
(-0.00537263 -0.000411796 0)
(-0.00506011 -0.000408991 0)
(-0.00474971 -0.000405218 0)
(-0.00444211 -0.0004005 0)
(-0.00413801 -0.000394857 0)
(-0.00383809 -0.000388302 0)
(-0.00354303 -0.000380842 0)
(-0.00325352 -0.000372473 0)
(-0.00297023 -0.00036318 0)
(-0.0026939 -0.000352938 0)
(-0.00242524 -0.000341707 0)
(-0.00216504 -0.000329435 0)
(-0.00191413 -0.000316057 0)
(-0.00167337 -0.000301493 0)
(-0.00144371 -0.000285654 0)
(-0.00122616 -0.000268443 0)
(-0.00102181 -0.000249763 0)
(-0.000831792 -0.000229519 0)
(-0.000657315 -0.000207637 0)
(-0.000499612 -0.000184074 0)
(-0.000359911 -0.000158848 0)
(-0.000239379 -0.000132065 0)
(-0.000139033 -0.000103969 0)
(-5.96308e-05 -7.50029e-05 0)
(-1.49745e-06 -4.58815e-05 0)
(3.56806e-05 -1.77336e-05 0)
(5.31365e-05 7.7697e-06 0)
(5.33273e-05 2.81798e-05 0)
(4.03645e-05 4.01753e-05 0)
(2.07345e-05 3.9381e-05 0)
(2.97612e-06 2.0765e-05 0)
(-2.28002e-06 1.79505e-05 0)
(-4.98714e-05 9.66303e-05 0)
(-0.00014737 0.000190644 0)
(-0.00029121 0.00028302 0)
(-0.000476478 0.000365707 0)
(-0.000697778 0.000435579 0)
(-0.000949375 0.000492211 0)
(-0.00122566 0.000536581 0)
(-0.0015215 0.000570298 0)
(-0.00183243 0.00059515 0)
(-0.00215468 0.000612864 0)
(-0.00248516 0.000624983 0)
(-0.00282142 0.000632823 0)
(-0.00316153 0.000637466 0)
(-0.00350402 0.000639775 0)
(-0.00384778 0.000640422 0)
(-0.00419199 0.000639918 0)
(-0.00453608 0.000638636 0)
(-0.0048796 0.000636847 0)
(-0.00522227 0.000634735 0)
(-0.00556386 0.000632419 0)
(-0.00590421 0.00062997 0)
(-0.00624321 0.000627424 0)
(-0.00658075 0.000624788 0)
(-0.00691673 0.000622054 0)
(-0.00725105 0.000619198 0)
(-0.00758359 0.000616191 0)
(-0.00791424 0.000612996 0)
(-0.00824286 0.000609574 0)
(-0.00856929 0.000605884 0)
(-0.00889335 0.000601882 0)
(-0.00921485 0.000597525 0)
(-0.00953355 0.000592771 0)
(-0.00984923 0.000587574 0)
(-0.0101616 0.000581891 0)
(-0.0104704 0.000575677 0)
(-0.0107754 0.000568888 0)
(-0.0110761 0.000561477 0)
(-0.0113723 0.000553401 0)
(-0.0116635 0.000544612 0)
(-0.0119494 0.000535068 0)
(-0.0122296 0.000524721 0)
(-0.0125036 0.000513528 0)
(-0.0127709 0.000501446 0)
(-0.0130312 0.000488432 0)
(-0.0132838 0.000474445 0)
(-0.0135282 0.000459446 0)
(-0.013764 0.000443399 0)
(-0.0139906 0.000426272 0)
(-0.0142074 0.000408034 0)
(-0.0144138 0.000388659 0)
(-0.0146093 0.000368128 0)
(-0.0147933 0.000346424 0)
(-0.0149652 0.000323539 0)
(-0.0151244 0.000299468 0)
(-0.0152702 0.000274215 0)
(-0.0154023 0.000247793 0)
(-0.0155198 0.00022022 0)
(-0.0156224 0.000191525 0)
(-0.0157095 0.000161744 0)
(-0.0157805 0.000130924 0)
(-0.015835 9.91199e-05 0)
(-0.0158726 6.63962e-05 0)
(-0.0158927 3.28263e-05 0)
(-0.0158952 -1.50582e-06 0)
(-0.0158796 -3.64869e-05 0)
(-0.0158457 -7.20331e-05 0)
(-0.0157932 -0.000108032 0)
(-0.0157221 -0.000144364 0)
(-0.0156322 -0.000180901 0)
(-0.0155235 -0.000217511 0)
(-0.015396 -0.000254054 0)
(-0.0152498 -0.000290388 0)
(-0.0150852 -0.000326366 0)
(-0.0149023 -0.000361841 0)
(-0.0147015 -0.000396663 0)
(-0.0144832 -0.000430686 0)
(-0.0142479 -0.000463764 0)
(-0.013996 -0.000495756 0)
(-0.0137282 -0.000526524 0)
(-0.0134452 -0.000555939 0)
(-0.0131476 -0.00058388 0)
(-0.0128362 -0.000610233 0)
(-0.0125119 -0.000634896 0)
(-0.0121754 -0.000657779 0)
(-0.0118278 -0.000678802 0)
(-0.01147 -0.0006979 0)
(-0.0111029 -0.000715019 0)
(-0.0107275 -0.000730121 0)
(-0.0103448 -0.000743179 0)
(-0.00995586 -0.00075418 0)
(-0.00956163 -0.000763124 0)
(-0.00916313 -0.000770021 0)
(-0.00876137 -0.000774894 0)
(-0.00835733 -0.000777773 0)
(-0.00795199 -0.000778694 0)
(-0.00754631 -0.0007777 0)
(-0.00714121 -0.000774838 0)
(-0.00673762 -0.000770153 0)
(-0.00633642 -0.000763687 0)
(-0.0059385 -0.00075548 0)
(-0.00554473 -0.000745562 0)
(-0.00515597 -0.00073395 0)
(-0.00477307 -0.000720649 0)
(-0.0043969 -0.000705647 0)
(-0.00402835 -0.000688912 0)
(-0.00366833 -0.000670388 0)
(-0.00331777 -0.000649998 0)
(-0.00297769 -0.000627641 0)
(-0.00264914 -0.00060319 0)
(-0.00233324 -0.0005765 0)
(-0.00203121 -0.000547404 0)
(-0.00174433 -0.000515727 0)
(-0.001474 -0.000481296 0)
(-0.00122165 -0.000443951 0)
(-0.000988804 -0.000403571 0)
(-0.000777002 -0.000360108 0)
(-0.00058776 -0.000313623 0)
(-0.0004225 -0.000264353 0)
(-0.000282445 -0.000212783 0)
(-0.000168475 -0.000159754 0)
(-8.09428e-05 -0.00010659 0)
(-1.94382e-05 -5.52773e-05 0)
(1.74356e-05 -8.65418e-06 0)
(3.2458e-05 2.93246e-05 0)
(3.01387e-05 5.34416e-05 0)
(1.72988e-05 5.69671e-05 0)
(2.73943e-06 3.16672e-05 0)
(-4.29896e-06 4.86717e-05 0)
(-7.18544e-05 0.000184091 0)
(-0.000201901 0.00033055 0)
(-0.00038706 0.000470439 0)
(-0.000619836 0.000594928 0)
(-0.000893512 0.000700499 0)
(-0.00120154 0.000786769 0)
(-0.00153771 0.000855101 0)
(-0.00189638 0.000907702 0)
(-0.00227264 0.00094706 0)
(-0.00266229 0.000975616 0)
(-0.00306188 0.000995589 0)
(-0.00346859 0.0010089 0)
(-0.00388021 0.00101715 0)
(-0.00429498 0.00102164 0)
(-0.00471158 0.00102338 0)
(-0.005129 0.00102318 0)
(-0.00554647 0.00102161 0)
(-0.00596345 0.00101911 0)
(-0.00637951 0.00101597 0)
(-0.00679436 0.00101239 0)
(-0.00720774 0.00100851 0)
(-0.00761946 0.00100438 0)
(-0.00802936 0.00100004 0)
(-0.00843729 0.000995465 0)
(-0.00884308 0.000990642 0)
(-0.00924657 0.000985525 0)
(-0.0096476 0.000980063 0)
(-0.010046 0.0009742 0)
(-0.0104415 0.000967873 0)
(-0.0108338 0.000961018 0)
(-0.0112229 0.00095357 0)
(-0.0116083 0.000945463 0)
(-0.0119897 0.000936628 0)
(-0.0123669 0.000926998 0)
(-0.0127394 0.000916504 0)
(-0.0131069 0.000905078 0)
(-0.013469 0.000892651 0)
(-0.0138253 0.000879152 0)
(-0.0141752 0.000864513 0)
(-0.0145184 0.000848665 0)
(-0.0148543 0.00083154 0)
(-0.0151824 0.000813071 0)
(-0.0155021 0.000793192 0)
(-0.0158128 0.000771839 0)
(-0.016114 0.000748954 0)
(-0.0164051 0.000724478 0)
(-0.0166853 0.000698358 0)
(-0.0169542 0.000670547 0)
(-0.0172109 0.000641004 0)
(-0.0174549 0.000609692 0)
(-0.0176854 0.000576584 0)
(-0.0179018 0.000541661 0)
(-0.0181033 0.000504913 0)
(-0.0182894 0.00046634 0)
(-0.0184592 0.000425954 0)
(-0.0186123 0.000383776 0)
(-0.0187478 0.000339843 0)
(-0.0188653 0.000294204 0)
(-0.018964 0.00024692 0)
(-0.0190435 0.000198068 0)
(-0.0191031 0.000147738 0)
(-0.0191424 9.60361e-05 0)
(-0.019161 4.30824e-05 0)
(-0.0191585 -1.09869e-05 0)
(-0.0191344 -6.60329e-05 0)
(-0.0190886 -0.000121886 0)
(-0.0190208 -0.000178375 0)
(-0.018931 -0.000235314 0)
(-0.0188189 -0.000292508 0)
(-0.0186847 -0.000349752 0)
(-0.0185283 -0.000406834 0)
(-0.01835 -0.000463535 0)
(-0.0181501 -0.000519631 0)
(-0.0179287 -0.000574899 0)
(-0.0176864 -0.000629111 0)
(-0.0174236 -0.000682046 0)
(-0.0171409 -0.000733484 0)
(-0.0168389 -0.000783212 0)
(-0.0165184 -0.000831024 0)
(-0.01618 -0.000876727 0)
(-0.0158248 -0.000920138 0)
(-0.0154535 -0.00096109 0)
(-0.0150671 -0.00099943 0)
(-0.0146667 -0.00103502 0)
(-0.0142533 -0.00106775 0)
(-0.0138279 -0.00109752 0)
(-0.0133917 -0.00112425 0)
(-0.0129459 -0.00114789 0)
(-0.0124916 -0.00116839 0)
(-0.0120298 -0.00118574 0)
(-0.0115619 -0.00119994 0)
(-0.011089 -0.00121101 0)
(-0.0106121 -0.00121897 0)
(-0.0101325 -0.00122388 0)
(-0.00965123 -0.00122579 0)
(-0.00916941 -0.00122476 0)
(-0.0086881 -0.00122085 0)
(-0.00820836 -0.00121414 0)
(-0.00773123 -0.00120469 0)
(-0.00725771 -0.00119254 0)
(-0.0067888 -0.00117773 0)
(-0.00632552 -0.0011603 0)
(-0.00586885 -0.00114023 0)
(-0.0054198 -0.00111751 0)
(-0.00497941 -0.00109207 0)
(-0.00454875 -0.00106382 0)
(-0.00412892 -0.00103263 0)
(-0.00372109 -0.000998352 0)
(-0.00332651 -0.000960777 0)
(-0.0029465 -0.000919677 0)
(-0.00258247 -0.000874801 0)
(-0.00223594 -0.000825883 0)
(-0.0019085 -0.000772662 0)
(-0.00160185 -0.00071491 0)
(-0.00131771 -0.000652464 0)
(-0.00105787 -0.000585278 0)
(-0.000824029 -0.000513486 0)
(-0.000617804 -0.000437492 0)
(-0.000440557 -0.000358077 0)
(-0.000293261 -0.000276549 0)
(-0.000176314 -0.00019491 0)
(-8.93034e-05 -0.000116079 0)
(-3.07676e-05 -4.41278e-05 0)
(2.12916e-06 1.55075e-05 0)
(1.38686e-05 5.5692e-05 0)
(1.10927e-05 6.75006e-05 0)
(2.19864e-06 3.98573e-05 0)
(-5.97266e-06 9.02197e-05 0)
(-9.15728e-05 0.000297378 0)
(-0.00025175 0.0005064 0)
(-0.000475393 0.0007008 0)
(-0.000752292 0.000872199 0)
(-0.00107422 0.00101743 0)
(-0.00143372 0.00113657 0)
(-0.00182396 0.00123158 0)
(-0.00223889 0.00130538 0)
(-0.00267324 0.0013612 0)
(-0.00312254 0.00140224 0)
(-0.00358307 0.00143141 0)
(-0.00405179 0.00145127 0)
(-0.00452625 0.00146397 0)
(-0.00500452 0.00147126 0)
(-0.00548509 0.00147454 0)
(-0.00596679 0.00147491 0)
(-0.00644874 0.00147319 0)
(-0.00693026 0.00146999 0)
(-0.00741083 0.00146574 0)
(-0.00789006 0.00146074 0)
(-0.00836762 0.00145517 0)
(-0.00884325 0.00144915 0)
(-0.00931672 0.00144271 0)
(-0.00978781 0.00143587 0)
(-0.0102563 0.00142859 0)
(-0.010722 0.00142081 0)
(-0.0111847 0.00141249 0)
(-0.0116441 0.00140353 0)
(-0.0120999 0.00139386 0)
(-0.012552 0.00138339 0)
(-0.0129998 0.00137203 0)
(-0.0134432 0.00135969 0)
(-0.0138818 0.00134627 0)
(-0.0143151 0.00133168 0)
(-0.0147427 0.00131582 0)
(-0.0151643 0.00129861 0)
(-0.0155792 0.00127993 0)
(-0.0159871 0.00125971 0)
(-0.0163873 0.00123783 0)
(-0.0167794 0.00121421 0)
(-0.0171627 0.00118876 0)
(-0.0175367 0.00116138 0)
(-0.0179006 0.00113198 0)
(-0.0182539 0.00110048 0)
(-0.0185959 0.00106679 0)
(-0.0189258 0.00103084 0)
(-0.019243 0.000992567 0)
(-0.0195467 0.0009519 0)
(-0.0198361 0.000908789 0)
(-0.0201106 0.00086319 0)
(-0.0203694 0.000815069 0)
(-0.0206116 0.000764407 0)
(-0.0208366 0.000711196 0)
(-0.0210436 0.000655442 0)
(-0.0212318 0.00059717 0)
(-0.0214006 0.000536418 0)
(-0.0215492 0.000473242 0)
(-0.0216769 0.000407718 0)
(-0.0217832 0.00033994 0)
(-0.0218673 0.000270021 0)
(-0.0219288 0.000198094 0)
(-0.021967 0.000124313 0)
(-0.0219817 4.88502e-05 0)
(-0.0219723 -2.81017e-05 0)
(-0.0219385 -0.000106338 0)
(-0.02188 -0.000185626 0)
(-0.0217967 -0.000265719 0)
(-0.0216884 -0.000346357 0)
(-0.0215551 -0.000427266 0)
(-0.0213969 -0.000508162 0)
(-0.0212138 -0.000588747 0)
(-0.0210061 -0.000668719 0)
(-0.0207741 -0.000747769 0)
(-0.0205181 -0.000825587 0)
(-0.0202388 -0.000901864 0)
(-0.0199366 -0.000976293 0)
(-0.0196122 -0.00104857 0)
(-0.0192664 -0.00111842 0)
(-0.0188999 -0.00118554 0)
(-0.0185136 -0.00124968 0)
(-0.0181086 -0.00131059 0)
(-0.0176857 -0.00136805 0)
(-0.0172462 -0.00142185 0)
(-0.0167911 -0.0014718 0)
(-0.0163216 -0.00151775 0)
(-0.0158389 -0.00155958 0)
(-0.0153443 -0.00159718 0)
(-0.014839 -0.00163047 0)
(-0.0143242 -0.00165941 0)
(-0.0138013 -0.00168397 0)
(-0.0132715 -0.00170416 0)
(-0.0127361 -0.00172 0)
(-0.0121964 -0.00173153 0)
(-0.0116536 -0.00173882 0)
(-0.0111089 -0.00174195 0)
(-0.0105635 -0.00174099 0)
(-0.0100186 -0.00173604 0)
(-0.00947544 -0.00172718 0)
(-0.00893503 -0.00171449 0)
(-0.00839855 -0.00169805 0)
(-0.00786708 -0.00167789 0)
(-0.00734173 -0.00165404 0)
(-0.0068236 -0.0016265 0)
(-0.00631381 -0.00159521 0)
(-0.0058135 -0.00156009 0)
(-0.00532385 -0.001521 0)
(-0.00484611 -0.00147777 0)
(-0.00438156 -0.00143016 0)
(-0.00393159 -0.00137788 0)
(-0.00349766 -0.00132063 0)
(-0.00308135 -0.00125805 0)
(-0.00268431 -0.00118978 0)
(-0.0023083 -0.00111546 0)
(-0.00195519 -0.00103481 0)
(-0.00162686 -0.000947612 0)
(-0.00132524 -0.000853842 0)
(-0.0010522 -0.000753723 0)
(-0.000809461 -0.00064785 0)
(-0.000598491 -0.000537337 0)
(-0.000420347 -0.000423989 0)
(-0.000275489 -0.000310518 0)
(-0.00016356 -0.000200784 0)
(-8.31588e-05 -0.000100057 0)
(-3.15989e-05 -1.526e-05 0)
(-4.61858e-06 4.4758e-05 0)
(3.92255e-06 6.91056e-05 0)
(1.58344e-06 4.44129e-05 0)
(-7.34285e-06 0.000141299 0)
(-0.000108862 0.00043397 0)
(-0.000296225 0.000715161 0)
(-0.000554939 0.000970704 0)
(-0.000872176 0.00119367 0)
(-0.00123814 0.00138195 0)
(-0.00164437 0.00153654 0)
(-0.00208342 0.0016603 0)
(-0.00254879 0.001757 0)
(-0.00303493 0.00183073 0)
(-0.00353714 0.00188546 0)
(-0.00405153 0.00192484 0)
(-0.00457489 0.00195207 0)
(-0.00510462 0.00196987 0)
(-0.00563865 0.00198046 0)
(-0.00617536 0.00198564 0)
(-0.00671346 0.00198682 0)
(-0.00725195 0.00198506 0)
(-0.00779006 0.00198118 0)
(-0.00832719 0.00197575 0)
(-0.00886285 0.00196916 0)
(-0.00939666 0.00196169 0)
(-0.00992828 0.00195347 0)
(-0.0104574 0.00194459 0)
(-0.0109838 0.00193505 0)
(-0.0115072 0.00192484 0)
(-0.0120273 0.00191389 0)
(-0.0125438 0.00190212 0)
(-0.0130564 0.00188943 0)
(-0.0135648 0.00187573 0)
(-0.0140687 0.0018609 0)
(-0.0145678 0.00184483 0)
(-0.0150615 0.00182739 0)
(-0.0155495 0.00180846 0)
(-0.0160313 0.00178793 0)
(-0.0165065 0.00176567 0)
(-0.0169745 0.00174155 0)
(-0.0174348 0.00171546 0)
(-0.0178869 0.00168725 0)
(-0.0183301 0.00165682 0)
(-0.0187638 0.00162404 0)
(-0.0191873 0.00158879 0)
(-0.0196001 0.00155096 0)
(-0.0200013 0.00151042 0)
(-0.0203902 0.00146707 0)
(-0.0207662 0.00142081 0)
(-0.0211284 0.00137155 0)
(-0.021476 0.0013192 0)
(-0.0218083 0.00126368 0)
(-0.0221244 0.00120493 0)
(-0.0224235 0.0011429 0)
(-0.0227048 0.00107756 0)
(-0.0229675 0.00100889 0)
(-0.0232107 0.000936874 0)
(-0.0234337 0.000861545 0)
(-0.0236356 0.000782937 0)
(-0.0238158 0.00070111 0)
(-0.0239733 0.000616148 0)
(-0.0241077 0.000528158 0)
(-0.024218 0.000437272 0)
(-0.0243038 0.000343646 0)
(-0.0243645 0.000247462 0)
(-0.0243995 0.00014893 0)
(-0.0244084 4.82806e-05 0)
(-0.0243907 -5.42277e-05 0)
(-0.0243461 -0.000158317 0)
(-0.0242745 -0.000263681 0)
(-0.0241755 -0.000369996 0)
(-0.0240492 -0.000476918 0)
(-0.0238955 -0.000584087 0)
(-0.0237145 -0.000691128 0)
(-0.0235065 -0.000797657 0)
(-0.0232716 -0.000903277 0)
(-0.0230103 -0.00100759 0)
(-0.022723 -0.00111019 0)
(-0.0224103 -0.00121068 0)
(-0.0220729 -0.00130867 0)
(-0.0217114 -0.00140377 0)
(-0.0213267 -0.00149561 0)
(-0.0209198 -0.00158382 0)
(-0.0204916 -0.00166808 0)
(-0.0200431 -0.00174806 0)
(-0.0195755 -0.00182349 0)
(-0.01909 -0.0018941 0)
(-0.0185877 -0.00195966 0)
(-0.01807 -0.00201998 0)
(-0.0175382 -0.0020749 0)
(-0.0169937 -0.00212428 0)
(-0.0164377 -0.00216804 0)
(-0.0158716 -0.00220612 0)
(-0.0152969 -0.00223849 0)
(-0.0147148 -0.00226516 0)
(-0.0141269 -0.00228616 0)
(-0.0135343 -0.00230156 0)
(-0.0129384 -0.00231144 0)
(-0.0123407 -0.00231589 0)
(-0.0117422 -0.00231502 0)
(-0.0111444 -0.00230894 0)
(-0.0105483 -0.00229777 0)
(-0.00995536 -0.0022816 0)
(-0.0093666 -0.00226052 0)
(-0.00878326 -0.00223458 0)
(-0.00820651 -0.0022038 0)
(-0.00763752 -0.00216817 0)
(-0.0070775 -0.00212762 0)
(-0.00652767 -0.00208203 0)
(-0.00598928 -0.00203122 0)
(-0.00546367 -0.00197493 0)
(-0.00495222 -0.00191288 0)
(-0.0044564 -0.00184468 0)
(-0.00397778 -0.00176992 0)
(-0.00351804 -0.00168816 0)
(-0.00307893 -0.00159893 0)
(-0.00266234 -0.00150178 0)
(-0.00227021 -0.00139635 0)
(-0.00190456 -0.0012824 0)
(-0.00156741 -0.00115993 0)
(-0.00126071 -0.00102926 0)
(-0.000986284 -0.000891184 0)
(-0.000745672 -0.000747168 0)
(-0.000540007 -0.000599521 0)
(-0.000369829 -0.00045166 0)
(-0.000234888 -0.000308364 0)
(-0.000133932 -0.00017605 0)
(-6.4494e-05 -6.3017e-05 0)
(-2.26771e-05 2.03668e-05 0)
(-3.04649e-06 6.14704e-05 0)
(1.01297e-06 4.52071e-05 0)
(-8.47325e-06 0.00020064 0)
(-0.000123875 0.000591214 0)
(-0.000335397 0.000953496 0)
(-0.000625593 0.00127642 0)
(-0.000979247 0.00155527 0)
(-0.00138503 0.00178962 0)
(-0.00183346 0.00198185 0)
(-0.00231642 0.002136 0)
(-0.00282698 0.00225689 0)
(-0.0033593 0.00234956 0)
(-0.00390851 0.00241884 0)
(-0.00447055 0.00246915 0)
(-0.00504209 0.00250435 0)
(-0.00562046 0.00252772 0)
(-0.00620348 0.00254198 0)
(-0.00678943 0.00254932 0)
(-0.00737695 0.00255148 0)
(-0.00796496 0.00254977 0)
(-0.00855262 0.00254521 0)
(-0.00913923 0.00253851 0)
(-0.00972427 0.00253019 0)
(-0.0103073 0.00252058 0)
(-0.0108878 0.00250989 0)
(-0.0114656 0.00249822 0)
(-0.0120403 0.0024856 0)
(-0.0126115 0.00247201 0)
(-0.013179 0.00245737 0)
(-0.0137424 0.0024416 0)
(-0.0143014 0.00242459 0)
(-0.0148555 0.00240619 0)
(-0.0154045 0.00238629 0)
(-0.0159478 0.00236473 0)
(-0.0164851 0.00234138 0)
(-0.0170158 0.00231607 0)
(-0.0175395 0.00228866 0)
(-0.0180556 0.002259 0)
(-0.0185635 0.00222693 0)
(-0.0190627 0.00219229 0)
(-0.0195525 0.00215493 0)
(-0.0200323 0.00211471 0)
(-0.0205014 0.00207146 0)
(-0.020959 0.00202504 0)
(-0.0214045 0.00197531 0)
(-0.021837 0.00192213 0)
(-0.0222558 0.00186538 0)
(-0.0226601 0.00180491 0)
(-0.023049 0.00174064 0)
(-0.0234217 0.00167245 0)
(-0.0237773 0.00160025 0)
(-0.024115 0.00152398 0)
(-0.0244339 0.00144359 0)
(-0.0247331 0.00135903 0)
(-0.0250117 0.00127029 0)
(-0.0252689 0.00117738 0)
(-0.0255039 0.00108034 0)
(-0.0257158 0.000979219 0)
(-0.0259039 0.000874104 0)
(-0.0260672 0.000765112 0)
(-0.0262052 0.000652387 0)
(-0.0263171 0.000536105 0)
(-0.0264023 0.000416471 0)
(-0.0264601 0.000293723 0)
(-0.0264902 0.00016813 0)
(-0.0264919 3.99921e-05 0)
(-0.026465 -9.0362e-05 0)
(-0.0264091 -0.000222576 0)
(-0.0263239 -0.000356262 0)
(-0.0262094 -0.000491011 0)
(-0.0260655 -0.00062639 0)
(-0.0258923 -0.000761947 0)
(-0.0256898 -0.000897213 0)
(-0.0254584 -0.00103171 0)
(-0.0251983 -0.00116493 0)
(-0.02491 -0.0012964 0)
(-0.024594 -0.0014256 0)
(-0.024251 -0.00155205 0)
(-0.0238817 -0.00167526 0)
(-0.0234869 -0.00179475 0)
(-0.0230675 -0.00191007 0)
(-0.0226246 -0.00202077 0)
(-0.0221591 -0.00212645 0)
(-0.0216723 -0.00222672 0)
(-0.0211654 -0.00232123 0)
(-0.0206395 -0.00240967 0)
(-0.0200962 -0.00249176 0)
(-0.0195366 -0.00256727 0)
(-0.0189623 -0.002636 0)
(-0.0183746 -0.00269781 0)
(-0.017775 -0.00275258 0)
(-0.017165 -0.00280025 0)
(-0.016546 -0.00284079 0)
(-0.0159194 -0.00287423 0)
(-0.0152868 -0.0029006 0)
(-0.0146495 -0.00291998 0)
(-0.0140089 -0.00293248 0)
(-0.0133665 -0.00293822 0)
(-0.0127235 -0.00293733 0)
(-0.0120814 -0.00292996 0)
(-0.0114413 -0.00291623 0)
(-0.0108046 -0.00289627 0)
(-0.0101725 -0.00287017 0)
(-0.00954628 -0.00283801 0)
(-0.00892711 -0.0027998 0)
(-0.00831626 -0.00275553 0)
(-0.00771497 -0.00270509 0)
(-0.00712452 -0.00264833 0)
(-0.00654622 -0.00258502 0)
(-0.00598146 -0.00251485 0)
(-0.00543168 -0.00243744 0)
(-0.00489841 -0.00235233 0)
(-0.00438328 -0.00225901 0)
(-0.00388802 -0.00215691 0)
(-0.00341448 -0.00204548 0)
(-0.00296457 -0.00192418 0)
(-0.00254033 -0.00179258 0)
(-0.00214382 -0.00165041 0)
(-0.00177712 -0.00149768 0)
(-0.00144225 -0.00133483 0)
(-0.00114108 -0.00116287 0)
(-0.000875217 -0.000983589 0)
(-0.000645868 -0.0007998 0)
(-0.000453665 -0.000615598 0)
(-0.00029849 -0.000436639 0)
(-0.000179281 -0.000270409 0)
(-9.38459e-05 -0.000126458 0)
(-3.87255e-05 -1.6545e-05 0)
(-9.17336e-06 4.5265e-05 0)
(5.40911e-07 4.25712e-05 0)
(-9.4161e-06 0.000267107 0)
(-0.000136867 0.000766586 0)
(-0.000369657 0.00121809 0)
(-0.000687825 0.00161419 0)
(-0.00107404 0.00195294 0)
(-0.00151553 0.00223613 0)
(-0.00200184 0.00246792 0)
(-0.00252416 0.00265381 0)
(-0.00307512 0.00279988 0)
(-0.0036486 0.00291225 0)
(-0.00423953 0.00299669 0)
(-0.00484373 0.00305842 0)
(-0.0054578 0.00310198 0)
(-0.00607898 0.00313124 0)
(-0.00670503 0.00314942 0)
(-0.00733417 0.0031591 0)
(-0.00796498 0.00316233 0)
(-0.00859633 0.00316071 0)
(-0.0092273 0.00315544 0)
(-0.00985717 0.00314738 0)
(-0.0104853 0.00313718 0)
(-0.0111113 0.00312523 0)
(-0.0117345 0.0031118 0)
(-0.0123547 0.00309702 0)
(-0.0129715 0.00308094 0)
(-0.0135844 0.00306354 0)
(-0.0141932 0.00304475 0)
(-0.0147974 0.00302446 0)