/*--------------------------------*- C++ -*----------------------------------*\
| =========                 |                                                 |
| \\      /  F ield         | OpenFOAM: The Open Source CFD Toolbox           |
|  \\    /   O peration     | Version:  2406                                  |
|   \\  /    A nd           | Website:  www.openfoam.com                      |
|    \\/     M anipulation  |                                                 |
\*---------------------------------------------------------------------------*/
FoamFile
{
    version     2.0;
    format      ascii;
    arch        "LSB;label=32;scalar=64";
    class       volScalarField;
    location    "26.1";
    object      p;
}
// * * * * * * * * * * * * * * * * * * * * * * * * * * * * * * * * * * * * * //

dimensions      [0 2 -2 0 0 0 0];

internalField   nonuniform List<scalar> 
14400
(
-6.53461e-09
5.73606e-06
1.23667e-05
1.60547e-05
1.4787e-05
7.4034e-06
-6.52924e-06
-2.69425e-05
-5.34424e-05
-8.54411e-05
-0.000122261
-0.000163218
-0.000207691
-0.000255165
-0.00030527
-0.000357794
-0.000412693
-0.00047012
-0.000530346
-0.000593706
-0.000660766
-0.000732129
-0.000808449
-0.000890416
-0.000978727
-0.00107407
-0.0011771
-0.00128844
-0.00140867
-0.00153828
-0.00167772
-0.00182735
-0.00198742
-0.00215807
-0.00233928
-0.00253084
-0.00273235
-0.00294312
-0.00316218
-0.00338824
-0.00361965
-0.00385436
-0.00408994
-0.00432353
-0.00455188
-0.00477133
-0.00497789
-0.00516725
-0.00533487
-0.00547604
-0.00558601
-0.00566007
-0.0056937
-0.00568269
-0.0056233
-0.00551238
-0.00534753
-0.00512724
-0.00485104
-0.00451956
-0.00413475
-0.00369986
-0.00321916
-0.00269847
-0.00214646
-0.00157081
-0.00098147
-0.000389383
0.000193758
0.000755738
0.00128414
0.00176673
0.00219184
0.00254879
0.0028283
0.00302288
0.0031272
0.00313828
0.00305576
0.00288189
0.0026215
0.00228181
0.00187212
0.00140343
0.00088791
0.00033843
-0.000232022
-0.00081084
-0.00138627
-0.00194777
-0.00248635
-0.00299502
-0.00346798
-0.0039012
-0.00429278
-0.00464218
-0.00494996
-0.00521778
-0.00544801
-0.00564362
-0.00580785
-0.00594412
-0.00605582
-0.00614623
-0.0062184
-0.00627515
-0.00631898
-0.00635207
-0.00637631
-0.00639323
-0.00640408
-0.00640978
-0.00641103
-0.00640829
-0.00640193
-0.00639237
-0.00638035
-0.00636722
-0.00635536
-0.00634807
-5.7193e-06
3.98355e-08
6.14879e-06
8.62871e-06
6.34773e-06
-1.64121e-06
-1.57506e-05
-3.5943e-05
-6.18835e-05
-9.30552e-05
-0.000128849
-0.000168645
-0.000211872
-0.000258058
-0.000306862
-0.000358092
-0.000411712
-0.000467818
-0.000526677
-0.000588721
-0.0006544
-0.00072428
-0.000798989
-0.000879183
-0.000965527
-0.00105868
-0.00115927
-0.00126791
-0.00138515
-0.00151149
-0.00164738
-0.0017932
-0.00194921
-0.00211559
-0.00229237
-0.00247939
-0.0026763
-0.0028825
-0.00309711
-0.00331893
-0.00354641
-0.00377762
-0.00401022
-0.00424147
-0.00446822
-0.00468692
-0.00489364
-0.00508415
-0.00525395
-0.00539837
-0.00551267
-0.00559212
-0.00563218
-0.00562857
-0.00557747
-0.00547564
-0.00532058
-0.00511064
-0.00484521
-0.00452481
-0.00415115
-0.00372729
-0.00325803
-0.00274903
-0.00220687
-0.00164071
-0.00106034
-0.000476499
9.92053e-05
0.000654622
0.00117737
0.00165523
0.00207652
0.00243053
0.00270795
0.00290126
0.00300507
0.00301642
0.0029349
0.00276278
0.00250492
0.00216857
0.00176307
0.00129947
0.000789961
0.000247415
-0.000315215
-0.000885403
-0.00145152
-0.00200325
-0.00253177
-0.00302983
-0.00349224
-0.00391572
-0.00429829
-0.00463941
-0.00493986
-0.00520139
-0.00542644
-0.00561796
-0.00577918
-0.00591341
-0.00602396
-0.00611396
-0.00618637
-0.00624386
-0.00628881
-0.00632331
-0.00634914
-0.00636778
-0.00638044
-0.00638803
-0.00639125
-0.0063906
-0.00638648
-0.00637931
-0.00636973
-0.00635883
-0.00634808
-0.00634075
-1.24599e-05
-6.10146e-06
6.81197e-08
1.52148e-06
-1.77297e-06
-1.04602e-05
-2.48751e-05
-4.49714e-05
-7.04459e-05
-0.000100834
-0.000135583
-0.000174124
-0.000215935
-0.000260583
-0.000307755
-0.000357281
-0.000409137
-0.000463426
-0.000520404
-0.000580451
-0.000644023
-0.000711659
-0.000783953
-0.000861527
-0.000945015
-0.00103505
-0.00113223
-0.00123716
-0.00135039
-0.00147244
-0.00160376
-0.00174477
-0.00189582
-0.00205712
-0.00222881
-0.00241083
-0.00260296
-0.00280472
-0.00301538
-0.00323389
-0.00345884
-0.00368845
-0.00392052
-0.00415242
-0.00438109
-0.00460306
-0.00481444
-0.00501099
-0.00518821
-0.00534134
-0.00546557
-0.00555605
-0.00560809
-0.00561728
-0.00557963
-0.00549173
-0.00535088
-0.0051553
-0.00490417
-0.00459787
-0.00423796
-0.00382724
-0.00337001
-0.00287266
-0.00234171
-0.00178553
-0.00121388
-0.000637521
-6.80238e-05
0.000482467
0.00100155
0.00147696
0.00189695
0.00225071
0.00252882
0.00272364
0.00282965
0.00284376
0.0027655
0.00259708
0.00234332
0.0020115
0.00161102
0.001153
0.000649753
0.00011423
-0.000440527
-0.00100194
-0.00155838
-0.00209955
-0.00261675
-0.00310304
-0.00355348
-0.00396491
-0.00433557
-0.00466525
-0.00495499
-0.00520675
-0.00542315
-0.00560724
-0.00576228
-0.00589159
-0.00599842
-0.00608581
-0.00615658
-0.00621328
-0.00625814
-0.00629313
-0.00631989
-0.00633983
-0.00635407
-0.00636349
-0.00636877
-0.00637041
-0.00636877
-0.0063642
-0.00635715
-0.00634825
-0.0063375
-0.00632896
-1.66338e-05
-8.93033e-06
-1.60074e-06
-1.49017e-07
-3.8142e-06
-1.29619e-05
-2.77845e-05
-4.814e-05
-7.36691e-05
-0.000103878
-0.000138201
-0.000176065
-0.000216951
-0.000260433
-0.000306212
-0.000354128
-0.000404172
-0.000456478
-0.000511298
-0.000569008
-0.000630079
-0.000695053
-0.000764519
-0.000839097
-0.000919417
-0.00100611
-0.00109979
-0.00120107
-0.00131052
-0.00142872
-0.0015562
-0.00169345
-0.00184093
-0.00199901
-0.00216796
-0.0023479
-0.00253878
-0.00274032
-0.00295196
-0.00317281
-0.00340161
-0.0036367
-0.00387594
-0.00411674
-0.004356
-0.00459017
-0.00481523
-0.00502678
-0.00522008
-0.00539016
-0.00553192
-0.00564026
-0.00571023
-0.00573717
-0.00571685
-0.00564567
-0.00552074
-0.00534011
-0.00510285
-0.00480918
-0.00446063
-0.00405999
-0.00361129
-0.00312045
-0.00259459
-0.00204197
-0.00147219
-0.000896005
-0.000325009
0.00022858
0.000752253
0.00123358
0.00166061
0.00202229
0.00230892
0.00251255
0.00262737
0.00265001
0.00257973
0.00241855
0.00217119
0.00184488
0.0014491
0.00099509
0.000495386
-3.67833e-05
-0.000588078
-0.00114562
-0.00169749
-0.00223317
-0.00274381
-0.0032225
-0.00366424
-0.00406577
-0.00442567
-0.00474408
-0.0050223
-0.00526259
-0.00546787
-0.00564146
-0.00578686
-0.00590754
-0.00600684
-0.00608787
-0.00615343
-0.006206
-0.00624774
-0.0062805
-0.00630583
-0.00632503
-0.00633912
-0.0063489
-0.00635498
-0.00635775
-0.00635745
-0.00635425
-0.00634831
-0.00633976
-0.00632729
-0.00631653
-1.64922e-05
-7.59086e-06
8.49434e-07
2.44943e-06
-1.5163e-06
-1.11995e-05
-2.66401e-05
-4.75684e-05
-7.35269e-05
-0.00010395
-0.00013822
-0.000175727
-0.000215931
-0.000258402
-0.000302842
-0.000349106
-0.000397201
-0.000447283
-0.000499639
-0.000554672
-0.000612878
-0.000674823
-0.000741121
-0.000812416
-0.000889366
-0.000972632
-0.00106288
-0.00116077
-0.00126698
-0.00138217
-0.00150701
-0.00164218
-0.00178831
-0.00194599
-0.00211571
-0.00229786
-0.0024926
-0.00269987
-0.0029193
-0.00315014
-0.00339122
-0.00364088
-0.00389693
-0.00415661
-0.00441665
-0.00467319
-0.00492189
-0.00515799
-0.00537638
-0.0055717
-0.00573851
-0.00587137
-0.00596505
-0.00601465
-0.00601575
-0.00596457
-0.00585814
-0.00569439
-0.00547233
-0.0051921
-0.00485514
-0.00446419
-0.00402343
-0.00353839
-0.00301607
-0.00246478
-0.00189406
-0.0013146
-0.000737957
-0.000176391
0.000357503
0.000851128
0.00129229
0.00166963
0.00197307
0.00219421
0.00232676
0.00236689
0.0023134
0.00216791
0.0019348
0.00162111
0.00123621
0.000791374
0.000299297
-0.000226531
-0.000772426
-0.00132511
-0.00187226
-0.00240295
-0.00290798
-0.00338014
-0.0038142
-0.00420691
-0.00455688
-0.00486433
-0.00513078
-0.00535876
-0.00555151
-0.00571269
-0.0058461
-0.00595551
-0.00604446
-0.00611622
-0.00617368
-0.00621936
-0.00625539
-0.00628358
-0.00630538
-0.00632199
-0.00633434
-0.00634311
-0.00634879
-0.00635166
-0.00635178
-0.00634909
-0.00634347
-0.00633459
-0.00632003
-0.00630695
-1.09683e-05
-1.23393e-06
7.94715e-06
9.53074e-06
5.10277e-06
-5.33265e-06
-2.16701e-05
-4.34988e-05
-7.02385e-05
-0.000101225
-0.000135759
-0.000173178
-0.000212905
-0.00025449
-0.000297638
-0.00034222
-0.00038827
-0.000435981
-0.000485685
-0.000537835
-0.000592979
-0.000651735
-0.000714776
-0.000782807
-0.000856556
-0.00093677
-0.00102422
-0.00111969
-0.00122402
-0.00133808
-0.00146276
-0.001599
-0.00174772
-0.00190982
-0.00208608
-0.00227718
-0.00248352
-0.00270524
-0.00294207
-0.0031933
-0.00345767
-0.00373332
-0.00401779
-0.00430796
-0.00460009
-0.00488987
-0.00517244
-0.00544256
-0.00569463
-0.0059229
-0.00612157
-0.00628493
-0.00640752
-0.00648429
-0.00651071
-0.00648296
-0.00639801
-0.00625377
-0.00604921
-0.00578445
-0.00546083
-0.00508101
-0.00464903
-0.00417032
-0.00365163
-0.00310108
-0.00252806
-0.00194307
-0.00135755
-0.000783706
-0.000234146
0.000278411
0.000741535
0.00114351
0.00147378
0.00172339
0.00188539
0.00195523
0.00193102
0.00181368
0.00160701
0.00131755
0.000954323
0.000528439
5.25754e-05
-0.000459624
-0.000994182
-0.00153742
-0.00207654
-0.0026001
-0.00309843
-0.00356381
-0.00399064
-0.00437539
-0.00471647
-0.005014
-0.00526954
-0.00548578
-0.00566615
-0.0058146
-0.00593525
-0.00603215
-0.00610917
-0.0061698
-0.00621713
-0.0062538
-0.00628202
-0.00630359
-0.00631995
-0.00633221
-0.00634122
-0.00634756
-0.0063516
-0.00635346
-0.00635306
-0.00635009
-0.00634417
-0.00633461
-0.00631806
-0.00630297
5.48402e-07
1.07173e-05
2.01779e-05
2.14331e-05
1.62521e-05
4.76064e-06
-1.27968e-05
-3.58624e-05
-6.37193e-05
-9.55858e-05
-0.00013067
-0.000168239
-0.000207671
-0.000248497
-0.000290424
-0.000333345
-0.000377334
-0.000422639
-0.000469656
-0.000518912
-0.000571038
-0.000626745
-0.000686805
-0.000752038
-0.000823306
-0.000901514
-0.000987623
-0.00108265
-0.00118771
-0.00130396
-0.00143266
-0.00157511
-0.00173259
-0.00190638
-0.00209759
-0.00230713
-0.00253561
-0.00278319
-0.00304957
-0.0033338
-0.00363431
-0.0039488
-0.00427425
-0.00460695
-0.00494255
-0.00527608
-0.00560215
-0.00591496
-0.0062085
-0.00647666
-0.00671338
-0.00691279
-0.00706931
-0.00717784
-0.00723387
-0.00723356
-0.00717391
-0.00705284
-0.0068693
-0.00662332
-0.00631617
-0.00595032
-0.00552959
-0.00505914
-0.00454544
-0.00399628
-0.00342068
-0.00282885
-0.00223196
-0.00164201
-0.00107151
-0.00053322
-3.97516e-05
0.000396823
0.000765418
0.00105638
0.00126195
0.00137661
0.00139747
0.00132444
0.00116038
0.000910968
0.000584554
0.00019176
-0.000255005
-0.000742143
-0.00125552
-0.00178112
-0.00230568
-0.00281719
-0.00330537
-0.00376189
-0.00418059
-0.00455741
-0.00489034
-0.0051792
-0.00542535
-0.00563138
-0.0058008
-0.00593767
-0.0060463
-0.00613103
-0.006196
-0.00624498
-0.00628131
-0.00630783
-0.00632691
-0.00634043
-0.00634987
-0.00635633
-0.00636062
-0.00636324
-0.00636446
-0.00636428
-0.00636246
-0.00635851
-0.00635183
-0.00634139
-0.0063232
-0.00630655
1.84721e-05
2.86824e-05
3.79357e-05
3.8474e-05
3.2177e-05
1.92787e-05
1.60882e-07
-2.44688e-05
-5.37503e-05
-8.67768e-05
-0.000122656
-0.000160581
-0.000199887
-0.000240088
-0.000280903
-0.000322256
-0.000364281
-0.000407297
-0.000451795
-0.000498408
-0.000547891
-0.000601095
-0.000658954
-0.000722476
-0.000792744
-0.000870924
-0.000958283
-0.0010562
-0.00116617
-0.0012898
-0.00142879
-0.00158489
-0.00175983
-0.00195519
-0.00217237
-0.00241241
-0.00267588
-0.00296279
-0.00327247
-0.00360349
-0.00395366
-0.00431998
-0.0046987
-0.00508536
-0.00547488
-0.0058617
-0.00623985
-0.0066031
-0.00694512
-0.00725955
-0.00754021
-0.00778114
-0.0079768
-0.0081221
-0.00821259
-0.00824449
-0.00821485
-0.00812158
-0.00796359
-0.00774082
-0.00745435
-0.00710646
-0.00670063
-0.00624162
-0.00573548
-0.00518952
-0.00461229
-0.00401347
-0.0034038
-0.00279489
-0.002199
-0.00162877
-0.00109689
-0.000615738
-0.000196907
0.000149191
0.000413808
0.000590281
0.000674413
0.000664759
0.000562795
0.00037294
0.000102419
-0.00023904
-0.000639661
-0.00108619
-0.00156457
-0.00206058
-0.00256056
-0.00305192
-0.00352372
-0.00396689
-0.00437453
-0.00474189
-0.00506633
-0.00534711
-0.00558517
-0.00578279
-0.00594325
-0.00607055
-0.00616906
-0.00624322
-0.00629736
-0.00633551
-0.00636123
-0.00637762
-0.00638723
-0.00639211
-0.00639386
-0.00639363
-0.00639225
-0.00639019
-0.00638767
-0.00638461
-0.00638066
-0.00637517
-0.00636737
-0.00635602
-0.00633665
-0.00631902
4.31706e-05
5.30474e-05
6.16128e-05
6.10183e-05
5.32158e-05
3.85483e-05
1.7537e-05
-8.95981e-06
-3.99379e-05
-7.4365e-05
-0.00011125
-0.000149718
-0.000189067
-0.000228807
-0.00026868
-0.000308667
-0.000348977
-0.000390035
-0.00043246
-0.000477036
-0.000524696
-0.0005765
-0.000633625
-0.000697365
-0.000769139
-0.000850504
-0.00094317
-0.00104901
-0.00117004
-0.00130841
-0.00146635
-0.00164607
-0.00184964
-0.00207892
-0.00233536
-0.00261988
-0.00293275
-0.00327347
-0.00364073
-0.00403233
-0.00444522
-0.00487556
-0.00531875
-0.00576957
-0.00622227
-0.00667071
-0.00710848
-0.00752905
-0.00792586
-0.00829245
-0.0086226
-0.00891039
-0.00915032
-0.00933743
-0.00946735
-0.0095364
-0.00954166
-0.00948108
-0.0093535
-0.00915875
-0.0088977
-0.00857232
-0.00818573
-0.00774222
-0.00724727
-0.00670758
-0.00613103
-0.00552663
-0.00490447
-0.00427556
-0.00365168
-0.00304513
-0.0024685
-0.00193428
-0.00145449
-0.00104026
-0.00070137
-0.000445775
-0.000279221
-0.00020486
-0.000223002
-0.000330991
-0.000523244
-0.000791452
-0.00112497
-0.00151131
-0.00193684
-0.0023874
-0.00284906
-0.00330875
-0.00375479
-0.00417732
-0.00456854
-0.00492284
-0.00523672
-0.0055087
-0.00573904
-0.00592944
-0.00608279
-0.00620274
-0.00629349
-0.00635941
-0.00640489
-0.00643404
-0.00645063
-0.00645796
-0.00645879
-0.00645537
-0.00644945
-0.00644232
-0.00643488
-0.00642765
-0.00642084
-0.00641435
-0.00640778
-0.00640039
-0.00639128
-0.00637907
-0.00635906
-0.00634101
7.50337e-05
8.42194e-05
9.16329e-05
8.94935e-05
7.98026e-05
6.30189e-05
3.98076e-05
1.1176e-05
-2.17316e-05
-5.77645e-05
-9.58424e-05
-0.000135034
-0.000174618
-0.000214117
-0.000253322
-0.000292294
-0.000331354
-0.000371071
-0.000412239
-0.000455855
-0.000503104
-0.000555343
-0.000614101
-0.000681084
-0.000758185
-0.000847498
-0.000951318
-0.00107214
-0.0012126
-0.00137544
-0.00156339
-0.00177903
-0.00202464
-0.00230207
-0.00261255
-0.00295654
-0.00333367
-0.00374264
-0.00418122
-0.00464623
-0.00513368
-0.0056388
-0.00615617
-0.00667986
-0.00720354
-0.00772063
-0.00822438
-0.00870806
-0.00916499
-0.0095887
-0.009973
-0.0103121
-0.0106006
-0.0108337
-0.0110072
-0.0111175
-0.0111618
-0.0111381
-0.0110452
-0.0108828
-0.0106516
-0.0103533
-0.00999053
-0.00956706
-0.00908774
-0.00855853
-0.00798652
-0.00737985
-0.00674775
-0.00610037
-0.00544876
-0.0048046
-0.00418008
-0.00358753
-0.00303916
-0.00254663
-0.00212064
-0.00177046
-0.0015035
-0.00132486
-0.001237
-0.00123953
-0.00132907
-0.00149935
-0.00174149
-0.00204438
-0.0023953
-0.00278058
-0.00318633
-0.00359911
-0.0040066
-0.00439807
-0.00476473
-0.0050999
-0.00539906
-0.00565971
-0.00588123
-0.00606452
-0.00621177
-0.00632611
-0.0064113
-0.00647146
-0.00651078
-0.00653337
-0.00654303
-0.00654317
-0.00653674
-0.00652616
-0.00651336
-0.00649982
-0.00648654
-0.00647416
-0.00646295
-0.00645286
-0.00644346
-0.00643402
-0.00642356
-0.00641063
-0.0063905
-0.00637259
0.000114489
0.000122633
0.000128444
0.000124366
0.000112429
9.32165e-05
6.75392e-05
3.65482e-05
1.51749e-06
-3.62971e-05
-7.57434e-05
-0.000115856
-0.000155915
-0.000195487
-0.000234442
-0.000272959
-0.000311518
-0.000350883
-0.000392092
-0.000436435
-0.000485444
-0.00054089
-0.000604786
-0.000679395
-0.000767235
-0.000871079
-0.000993933
-0.00113899
-0.00130953
-0.00150884
-0.00173999
-0.00200574
-0.00230829
-0.00264913
-0.00302891
-0.00344731
-0.003903
-0.00439362
-0.00491586
-0.0054655
-0.00603755
-0.00662637
-0.00722579
-0.00782925
-0.00842996
-0.00902096
-0.00959531
-0.0101461
-0.0106667
-0.0111507
-0.0115919
-0.0119849
-0.0123243
-0.0126057
-0.012825
-0.0129788
-0.0130646
-0.0130805
-0.0130252
-0.0128984
-0.0127006
-0.0124333
-0.0120986
-0.0116998
-0.011241
-0.0107274
-0.0101653
-0.00956157
-0.00892456
-0.0082633
-0.00758779
-0.0069088
-0.00623771
-0.00558636
-0.00496674
-0.00439072
-0.0038696
-0.00341376
-0.00303217
-0.00273196
-0.00251796
-0.00239242
-0.00235469
-0.00240123
-0.00252563
-0.00271891
-0.00297
-0.00326635
-0.00359459
-0.00394131
-0.0042937
-0.00464022
-0.00497102
-0.00527819
-0.00555598
-0.00580065
-0.00601041
-0.00618513
-0.00632608
-0.00643559
-0.00651676
-0.00657321
-0.00660878
-0.00662731
-0.00663252
-0.00662779
-0.00661616
-0.00660017
-0.00658193
-0.00656305
-0.00654473
-0.00652775
-0.00651248
-0.00649897
-0.00648686
-0.00647544
-0.00646376
-0.00645033
-0.00643059
-0.00641332
0.000161992
0.000168739
0.000172503
0.000166119
0.000151618
0.00012971
0.000101349
6.78202e-05
3.05088e-05
-9.24526e-06
-5.02432e-05
-9.15133e-05
-0.000132373
-0.000172469
-0.000211794
-0.000250696
-0.000289872
-0.000330358
-0.000373519
-0.000421042
-0.00047493
-0.000537505
-0.000611414
-0.000699627
-0.000805429
-0.000932383
-0.00108427
-0.00126496
-0.00147832
-0.00172796
-0.00201708
-0.00234824
-0.00272321
-0.00314274
-0.00360656
-0.00411325
-0.0046603
-0.00524419
-0.00586042
-0.00650374
-0.0071682
-0.00784733
-0.00853432
-0.00922206
-0.00990338
-0.0105711
-0.011218
-0.0118373
-0.0124223
-0.0129669
-0.0134651
-0.0139116
-0.0143016
-0.0146309
-0.0148957
-0.015093
-0.0152204
-0.0152763
-0.0152596
-0.0151699
-0.0150076
-0.014774
-0.0144708
-0.0141009
-0.0136675
-0.0131752
-0.0126291
-0.0120353
-0.0114006
-0.010733
-0.010041
-0.00933432
-0.00862308
-0.00791818
-0.00723093
-0.00657286
-0.00595543
-0.00538967
-0.00488576
-0.00445261
-0.0040974
-0.00382514
-0.00363831
-0.00353662
-0.00351689
-0.00357314
-0.00369684
-0.00387743
-0.00410285
-0.00436032
-0.00463701
-0.00492079
-0.00520081
-0.00546789
-0.0057148
-0.00593635
-0.00612929
-0.00629218
-0.00642506
-0.00652922
-0.00660689
-0.00666091
-0.00669456
-0.00671125
-0.00671438
-0.0067072
-0.00669267
-0.00667338
-0.00665152
-0.00662887
-0.00660678
-0.00658617
-0.0065676
-0.00655122
-0.0065368
-0.00652371
-0.00651105
-0.00649742
-0.00647853
-0.00646231
0.000217988
0.000222975
0.00022425
0.000215225
0.000197889
0.000173072
0.000141864
0.000105661
6.59371e-05
2.40865e-05
-1.86791e-05
-6.14203e-05
-0.000103534
-0.000144796
-0.00018538
-0.000225869
-0.000267255
-0.00031094
-0.000358726
-0.000412823
-0.000475848
-0.000550826
-0.000641189
-0.000750749
-0.000883656
-0.00104431
-0.00123721
-0.00146683
-0.00173733
-0.00205239
-0.00241495
-0.00282701
-0.00328945
-0.003802
-0.00436312
-0.00497013
-0.00561919
-0.00630553
-0.00702352
-0.00776685
-0.00852868
-0.00930182
-0.0100788
-0.0108522
-0.0116144
-0.0123582
-0.0130763
-0.013762
-0.0144088
-0.0150109
-0.0155627
-0.0160593
-0.0164964
-0.0168701
-0.0171773
-0.0174153
-0.0175821
-0.0176762
-0.0176969
-0.0176438
-0.0175175
-0.0173188
-0.0170493
-0.0167114
-0.0163078
-0.0158421
-0.0153185
-0.0147421
-0.0141184
-0.0134539
-0.012756
-0.0120324
-0.0112921
-0.0105445
-0.00979975
-0.00906844
-0.00836155
-0.00769009
-0.00706485
-0.00649598
-0.00599256
-0.0055622
-0.00521051
-0.00494075
-0.00475354
-0.00464667
-0.00461517
-0.00465149
-0.00474597
-0.00488739
-0.00506371
-0.00526278
-0.00547304
-0.00568414
-0.0058873
-0.00607565
-0.0062442
-0.00638984
-0.0065111
-0.0066079
-0.0066813
-0.00673316
-0.00676592
-0.00678236
-0.00678541
-0.00677796
-0.00676277
-0.00674236
-0.00671894
-0.00669434
-0.00667005
-0.00664716
-0.00662636
-0.00660797
-0.0065919
-0.00657765
-0.00656442
-0.00655091
-0.00653327
-0.00651843
0.000282878
0.000285724
0.000284069
0.000272106
0.000251716
0.000223834
0.000189665
0.000150687
0.00010843
6.43022e-05
1.9487e-05
-2.51564e-05
-6.91594e-05
-0.000112488
-0.000155569
-0.000199306
-0.000245086
-0.000294788
-0.000350788
-0.000415962
-0.000493695
-0.000587864
-0.000702812
-0.000843282
-0.00101431
-0.00122106
-0.00146861
-0.00176175
-0.00210463
-0.00250058
-0.00295185
-0.00345947
-0.00402312
-0.00464116
-0.00531063
-0.00602741
-0.00678633
-0.00758132
-0.00840562
-0.00925195
-0.0101126
-0.0109798
-0.0118456
-0.0127021
-0.0135417
-0.014357
-0.015141
-0.0158872
-0.0165896
-0.0172427
-0.0178415
-0.0183817
-0.0188595
-0.0192717
-0.0196156
-0.0198891
-0.0200907
-0.0202193
-0.0202742
-0.0202556
-0.0201637
-0.0199995
-0.0197644
-0.0194602
-0.0190893
-0.0186546
-0.0181594
-0.0176076
-0.0170038
-0.0163529
-0.0156607
-0.0149335
-0.0141785
-0.0134034
-0.0126167
-0.0118275
-0.0110457
-0.0102816
-0.0095456
-0.00884834
-0.00820007
-0.00761029
-0.00708734
-0.00663789
-0.00626653
-0.00597533
-0.00576367
-0.00562815
-0.0055627
-0.00555896
-0.00560683
-0.00569512
-0.00581231
-0.00594727
-0.00608986
-0.0062314
-0.00636495
-0.00648538
-0.00658933
-0.006675
-0.00674192
-0.00679065
-0.00682257
-0.00683958
-0.0068439
-0.00683793
-0.00682407
-0.0068046
-0.00678164
-0.00675701
-0.00673228
-0.00670863
-0.00668691
-0.0066676
-0.00665074
-0.006636
-0.0066227
-0.00660971
-0.00659363
-0.00658039
0.000356952
0.000357271
0.000352246
0.000337083
0.000313481
0.000282434
0.000245233
0.000203401
0.000158475
0.000111836
6.45829e-05
1.74375e-05
-2.93327e-05
-7.5962e-05
-0.000123219
-0.000172432
-0.000225503
-0.000284923
-0.000353788
-0.000435799
-0.000535249
-0.000656991
-0.000806353
-0.00098901
-0.0012108
-0.00147745
-0.00179436
-0.00216621
-0.00259675
-0.00308851
-0.00364264
-0.0042588
-0.00493521
-0.00566865
-0.00645461
-0.00728747
-0.00816066
-0.00906688
-0.00999829
-0.0109467
-0.0119036
-0.0128608
-0.0138099
-0.014743
-0.0156523
-0.0165309
-0.0173719
-0.0181695
-0.018918
-0.0196128
-0.0202495
-0.0208244
-0.0213345
-0.0217773
-0.0221506
-0.022453
-0.0226833
-0.022841
-0.0229257
-0.0229376
-0.0228773
-0.0227457
-0.022544
-0.0222738
-0.0219371
-0.0215361
-0.0210736
-0.0205524
-0.019976
-0.0193483
-0.0186734
-0.0179562
-0.0172019
-0.0164165
-0.0156067
-0.0147796
-0.0139434
-0.0131069
-0.0122794
-0.0114711
-0.0106922
-0.00995317
-0.00926421
-0.00863468
-0.0080727
-0.00758465
-0.00717466
-0.00684426
-0.00659215
-0.00641423
-0.00630382
-0.00625213
-0.00624888
-0.00628309
-0.00634379
-0.00642076
-0.00650501
-0.00658914
-0.00666751
-0.00673616
-0.00679266
-0.00683593
-0.00686592
-0.00688337
-0.0068896
-0.00688628
-0.00687528
-0.00685852
-0.00683788
-0.00681509
-0.00679168
-0.00676889
-0.00674769
-0.00672867
-0.00671204
-0.00669759
-0.00668479
-0.0066727
-0.00665842
-0.00664688
0.00044033
0.000437738
0.00042892
0.000410332
0.000383422
0.000349155
0.000308881
0.000264113
0.000216343
0.000166864
0.000116632
6.61575e-05
1.5428e-05
-3.61526e-05
-8.98029e-05
-0.000147397
-0.00021149
-0.000285337
-0.000372906
-0.000478862
-0.000608527
-0.00076779
-0.000962952
-0.00120051
-0.00148689
-0.00182809
-0.00222936
-0.00269491
-0.00322755
-0.0038286
-0.00449773
-0.00523298
-0.00603084
-0.00688638
-0.00779347
-0.00874497
-0.00973294
-0.0107489
-0.0117839
-0.0128292
-0.0138756
-0.0149145
-0.0159375
-0.0169367
-0.0179049
-0.0188352
-0.0197218
-0.0205591
-0.0213425
-0.0220679
-0.0227319
-0.0233316
-0.0238646
-0.0243292
-0.0247239
-0.0250477
-0.0253001
-0.0254809
-0.02559
-0.0256279
-0.0255953
-0.0254932
-0.0253227
-0.0250852
-0.0247824
-0.0244161
-0.0239885
-0.0235018
-0.0229585
-0.0223614
-0.0217135
-0.0210182
-0.020279
-0.0195002
-0.0186864
-0.0178428
-0.0169756
-0.0160913
-0.0151977
-0.0143033
-0.0134175
-0.0125504
-0.0117127
-0.0109153
-0.0101689
-0.00948339
-0.00886746
-0.00832776
-0.00786851
-0.00749107
-0.00719372
-0.00697178
-0.00681792
-0.00672278
-0.00667573
-0.0066657
-0.00668199
-0.00671489
-0.00675617
-0.00679928
-0.00683936
-0.00687317
-0.00689884
-0.00691559
-0.00692352
-0.00692335
-0.00691622
-0.00690353
-0.00688678
-0.00686749
-0.00684706
-0.00682674
-0.00680751
-0.00679006
-0.00677471
-0.00676139
-0.00674971
-0.0067389
-0.00672656
-0.00671674
0.000532972
0.000526974
0.000514001
0.000491852
0.000461541
0.000424054
0.000380681
0.000332866
0.000281998
0.000229214
0.000175252
0.000120332
6.40615e-05
5.37527e-06
-5.75203e-05
-0.000127185
-0.000206976
-0.000301065
-0.00041443
-0.000552814
-0.00072262
-0.00093075
-0.00118435
-0.00149052
-0.00185591
-0.00228637
-0.00278656
-0.00335968
-0.00400719
-0.00472881
-0.0055224
-0.00638415
-0.00730869
-0.00828931
-0.00931821
-0.0103868
-0.0114857
-0.0126055
-0.0137366
-0.0148692
-0.0159944
-0.0171031
-0.0181874
-0.0192397
-0.0202533
-0.0212222
-0.0221411
-0.0230055
-0.0238117
-0.0245564
-0.0252371
-0.0258516
-0.0263985
-0.0268765
-0.0272848
-0.027623
-0.027891
-0.028089
-0.0282172
-0.0282763
-0.0282671
-0.0281907
-0.0280482
-0.0278409
-0.0275703
-0.027238
-0.0268456
-0.0263948
-0.0258876
-0.0253258
-0.0247115
-0.0240468
-0.0233341
-0.022576
-0.0217752
-0.020935
-0.0200595
-0.0191529
-0.0182209
-0.0172696
-0.0163067
-0.0153408
-0.0143817
-0.0134405
-0.0125288
-0.0116588
-0.0108425
-0.0100913
-0.00941479
-0.00882039
-0.00831256
-0.00789238
-0.00755744
-0.00730196
-0.00711744
-0.00699337
-0.00691822
-0.00688042
-0.00686912
-0.00687486
-0.00688987
-0.00690818
-0.00692555
-0.00693923
-0.00694771
-0.00695045
-0.00694761
-0.00693988
-0.00692824
-0.00691385
-0.00689789
-0.00688151
-0.00686564
-0.006851
-0.00683799
-0.00682664
-0.00681669
-0.0068075
-0.00679716
-0.00678897
0.000634539
0.000624611
0.000607081
0.000581297
0.000547597
0.000506895
0.000460378
0.000409346
0.000355006
0.000298265
0.000239558
0.000178715
0.000114857
4.63217e-05
-2.93979e-05
-0.000115696
-0.000216882
-0.000338181
-0.000485691
-0.000666277
-0.000887395
-0.00115682
-0.00148232
-0.0018712
-0.00232992
-0.00286368
-0.00347605
-0.00416874
-0.00494148
-0.00579203
-0.00671625
-0.0077083
-0.00876086
-0.00986543
-0.0110126
-0.0121923
-0.0133943
-0.014608
-0.0158235
-0.0170308
-0.0182208
-0.0193851
-0.020516
-0.0216068
-0.0226515
-0.0236451
-0.0245834
-0.0254627
-0.0262803
-0.0270339
-0.0277216
-0.0283423
-0.0288949
-0.0293791
-0.0297945
-0.0301411
-0.0304191
-0.0306291
-0.0307716
-0.0308474
-0.0308575
-0.030803
-0.0306849
-0.0305047
-0.0302635
-0.0299628
-0.029604
-0.0291885
-0.0287176
-0.0281928
-0.0276153
-0.0269865
-0.0263076
-0.02558
-0.024805
-0.0239842
-0.0231197
-0.0222136
-0.0212692
-0.0202902
-0.0192818
-0.0182503
-0.0172036
-0.0161511
-0.0151041
-0.0140752
-0.0130781
-0.0121273
-0.0112368
-0.0104199
-0.00968755
-0.0090477
-0.00850461
-0.00805829
-0.00770461
-0.00743575
-0.00724103
-0.00710809
-0.00702404
-0.00697651
-0.00695443
-0.00694858
-0.0069517
-0.00695846
-0.00696523
-0.00696979
-0.00697102
-0.00696862
-0.00696289
-0.00695447
-0.00694422
-0.00693305
-0.0069218
-0.00691114
-0.00690147
-0.00689289
-0.00688521
-0.00687796
-0.00686959
-0.0068629
0.000744032
0.000730038
0.000707532
0.000678017
0.000640964
0.000597062
0.000547313
0.000492792
0.000434442
0.000372854
0.000308062
0.000239395
0.000165363
8.35691e-05
-9.35238e-06
-0.000117779
-0.000247109
-0.000403723
-0.000594884
-0.000828548
-0.00111308
-0.00145689
-0.00186795
-0.00235338
-0.00291891
-0.00356857
-0.00430435
-0.00512607
-0.00603138
-0.00701583
-0.00807311
-0.00919528
-0.0103731
-0.0115962
-0.0128539
-0.0141349
-0.0154281
-0.0167225
-0.0180079
-0.0192747
-0.020514
-0.0217183
-0.0228807
-0.0239954
-0.0250575
-0.0260631
-0.0270089
-0.0278925
-0.0287118
-0.0294655
-0.0301526
-0.0307726
-0.031325
-0.0318098
-0.0322272
-0.0325776
-0.0328615
-0.0330795
-0.0332325
-0.0333213
-0.033347
-0.0333107
-0.0332135
-0.0330567
-0.0328416
-0.0325693
-0.0322412
-0.0318584
-0.0314221
-0.0309332
-0.0303927
-0.0298012
-0.0291593
-0.0284676
-0.0277262
-0.0269356
-0.026096
-0.0252081
-0.0242727
-0.0232914
-0.0222667
-0.0212022
-0.0201029
-0.018976
-0.0178305
-0.0166776
-0.015531
-0.014406
-0.0133195
-0.0122889
-0.0113311
-0.010461
-0.00969063
-0.00902748
-0.00847423
-0.00802829
-0.00768232
-0.00742515
-0.00724312
-0.0071216
-0.00704627
-0.00700421
-0.00698454
-0.00697862
-0.00698004
-0.00698434
-0.00698867
-0.00699143
-0.00699197
-0.00699025
-0.00698664
-0.00698174
-0.00697618
-0.00697051
-0.00696508
-0.00695998
-0.00695509
-0.00695003
-0.00694354
-0.00693815
0.000860425
0.000841983
0.000814219
0.000780952
0.000740592
0.000693478
0.000640332
0.000581911
0.000518806
0.000451189
0.000378587
0.000299708
0.000212315
0.000113132
-2.21162e-06
-0.00013921
-0.000304449
-0.000505516
-0.000750801
-0.00104921
-0.00140977
-0.00184113
-0.00235106
-0.0029459
-0.00363018
-0.00440622
-0.005274
-0.00623111
-0.00727283
-0.00839239
-0.0095812
-0.0108292
-0.0121254
-0.0134579
-0.0148146
-0.0161837
-0.0175534
-0.0189129
-0.0202522
-0.0215622
-0.0228352
-0.0240642
-0.0252437
-0.0263691
-0.0274365
-0.0284433
-0.0293871
-0.0302665
-0.0310803
-0.0318279
-0.0325091
-0.0331236
-0.0336717
-0.0341537
-0.03457
-0.0349213
-0.0352082
-0.0354315
-0.0355922
-0.0356911
-0.0357294
-0.0357082
-0.0356286
-0.0354918
-0.0352991
-0.0350516
-0.0347505
-0.0343968
-0.0339916
-0.0335357
-0.0330297
-0.032474
-0.0318688
-0.031214
-0.0305093
-0.0297541
-0.0289478
-0.0280894
-0.0271783
-0.026214
-0.0251965
-0.0241269
-0.0230073
-0.0218416
-0.0206359
-0.0193986
-0.0181413
-0.0168781
-0.0156264
-0.0144055
-0.0132363
-0.0121397
-0.0111349
-0.010238
-0.00946033
-0.00880704
-0.00827704
-0.00786312
-0.00755319
-0.00733183
-0.0071822
-0.00708772
-0.00703338
-0.00700652
-0.00699715
-0.00699784
-0.00700342
-0.00701054
-0.00701723
-0.00702255
-0.00702623
-0.00702839
-0.00702938
-0.00702954
-0.00702909
-0.0070281
-0.00702642
-0.00702375
-0.00701903
-0.00701472
0.000982038
0.000958813
0.000925551
0.000888553
0.000844927
0.000794537
0.000737715
0.000674803
0.000605938
0.000530773
0.000448205
0.000356191
0.000251604
0.00013015
-1.36798e-05
-0.000186596
-0.000396423
-0.00065192
-0.000962475
-0.00133769
-0.00178689
-0.0023185
-0.00293953
-0.00365505
-0.00446782
-0.00537803
-0.00638329
-0.00747866
-0.00865694
-0.0099089
-0.0112237
-0.0125895
-0.0139934
-0.0154226
-0.0168641
-0.0183056
-0.0197357
-0.0211438
-0.0225206
-0.0238583
-0.0251499
-0.0263901
-0.0275744
-0.0286995
-0.0297627
-0.0307625
-0.0316974
-0.0325669
-0.0333705
-0.0341083
-0.0347804
-0.0353871
-0.0359289
-0.0364063
-0.03682
-0.0371706
-0.0374591
-0.0376862
-0.0378528
-0.03796
-0.0380087
-0.038
-0.0379351
-0.0378152