/*--------------------------------*- C++ -*----------------------------------*\
| =========                 |                                                 |
| \\      /  F ield         | OpenFOAM: The Open Source CFD Toolbox           |
|  \\    /   O peration     | Version:  2406                                  |
|   \\  /    A nd           | Website:  www.openfoam.com                      |
|    \\/     M anipulation  |                                                 |
\*---------------------------------------------------------------------------*/
FoamFile
{
    version     2.0;
    format      ascii;
    arch        "LSB;label=32;scalar=64";
    class       volVectorField;
    location    "41.15";
    object      U;
}
// * * * * * * * * * * * * * * * * * * * * * * * * * * * * * * * * * * * * * //

dimensions      [0 1 -1 0 0 0 0];

internalField   nonuniform List<vector> 
3600
(
(-2.77555e-05 1.36768e-05 0)
(0.00039454 -0.000202214 0)
(0.00127372 -0.000325352 0)
(0.00229088 -0.000349363 0)
(0.00325416 -0.000281901 0)
(0.00393453 -0.000187146 0)
(0.00436435 -0.000100258 0)
(0.00453364 -4.9942e-05 0)
(0.00458575 -3.62418e-05 0)
(0.00455022 -4.73516e-05 0)
(0.00449636 -6.24852e-05 0)
(0.00436773 -6.3295e-05 0)
(0.00412391 -3.90175e-05 0)
(0.00365457 1.3834e-05 0)
(0.0028833 9.38851e-05 0)
(0.00170381 0.000201124 0)
(3.74415e-05 0.000337165 0)
(-0.00221149 0.000503207 0)
(-0.00511596 0.000691313 0)
(-0.00874952 0.000887674 0)
(-0.0131528 0.00108411 0)
(-0.0183325 0.0012888 0)
(-0.0242267 0.00151629 0)
(-0.0306995 0.00176751 0)
(-0.0375261 0.0020134 0)
(-0.0444006 0.00219994 0)
(-0.0509483 0.00226513 0)
(-0.0567571 0.00215917 0)
(-0.0614112 0.00185443 0)
(-0.0645244 0.00134883 0)
(-0.0657708 0.000662338 0)
(-0.0649057 -0.000166003 0)
(-0.0617893 -0.00108265 0)
(-0.0563984 -0.00202156 0)
(-0.0488481 -0.0029083 0)
(-0.0393938 -0.00366317 0)
(-0.028446 -0.00420833 0)
(-0.0165481 -0.0044754 0)
(-0.00436935 -0.00441696 0)
(0.007362 -0.00401744 0)
(0.0178981 -0.00330295 0)
(0.0265845 -0.00234588 0)
(0.0329093 -0.00125947 0)
(0.0366204 -0.000183526 0)
(0.0377198 0.000744186 0)
(0.0365151 0.00141653 0)
(0.0335019 0.00178749 0)
(0.0293338 0.00187686 0)
(0.0246236 0.00175924 0)
(0.0199302 0.00152464 0)
(0.0155941 0.00125241 0)
(0.0118511 0.000989375 0)
(0.00872362 0.000762165 0)
(0.00622765 0.000575079 0)
(0.00423302 0.000434163 0)
(0.00269884 0.000325092 0)
(0.00148481 0.000244764 0)
(0.00060662 0.000145979 0)
(5.50383e-05 3.19746e-05 0)
(-9.90348e-05 -0.000107243 0)
(0.000159131 -0.000371943 0)
(0.0013041 -0.00134635 0)
(0.00321251 -0.00185653 0)
(0.00526242 -0.00190226 0)
(0.00714031 -0.00154252 0)
(0.00843796 -0.00101522 0)
(0.00916372 -0.000490491 0)
(0.00927135 -8.85442e-05 0)
(0.00894547 0.000173549 0)
(0.00820599 0.000353115 0)
(0.00710809 0.000542654 0)
(0.00550875 0.000837574 0)
(0.00326147 0.00129485 0)
(0.000110166 0.00194248 0)
(-0.00416115 0.00277781 0)
(-0.009798 0.00379387 0)
(-0.0169839 0.00497009 0)
(-0.02588 0.0062823 0)
(-0.0365393 0.00769331 0)
(-0.0488872 0.00915475 0)
(-0.0626475 0.0105788 0)
(-0.0773629 0.0118336 0)
(-0.0924183 0.0127553 0)
(-0.107126 0.0131904 0)
(-0.120792 0.0130208 0)
(-0.132793 0.0121826 0)
(-0.142608 0.0106623 0)
(-0.14983 0.00849549 0)
(-0.154168 0.00575363 0)
(-0.155424 0.00253905 0)
(-0.153492 -0.00102508 0)
(-0.148344 -0.00479418 0)
(-0.140033 -0.00860701 0)
(-0.128694 -0.0122817 0)
(-0.114566 -0.0156214 0)
(-0.0979868 -0.0184149 0)
(-0.0794262 -0.0204529 0)
(-0.059469 -0.0215416 0)
(-0.0388332 -0.0215338 0)
(-0.0183186 -0.020354 0)
(0.00120034 -0.0180318 0)
(0.0188783 -0.0147166 0)
(0.0339216 -0.0106814 0)
(0.0457264 -0.00629827 0)
(0.0538732 -0.00198884 0)
(0.0582585 0.00183605 0)
(0.0590226 0.00485244 0)
(0.0566484 0.00687215 0)
(0.0517925 0.00788056 0)
(0.0453301 0.00801216 0)
(0.0380691 0.00750814 0)
(0.0308004 0.00662761 0)
(0.0240007 0.00560435 0)
(0.0180453 0.00459056 0)
(0.0129665 0.0036936 0)
(0.00882896 0.00292232 0)
(0.0054559 0.00227925 0)
(0.00289037 0.00161779 0)
(0.00104075 0.000920502 0)
(9.07468e-05 8.7421e-05 0)
(0.000286784 -0.00121614 0)
(0.00190228 -0.00329256 0)
(0.00443465 -0.00430092 0)
(0.00696784 -0.00425613 0)
(0.00913076 -0.00336964 0)
(0.0104194 -0.00208745 0)
(0.0108419 -0.00077988 0)
(0.0103175 0.000329413 0)
(0.00900368 0.00120256 0)
(0.00684738 0.00197781 0)
(0.00380447 0.00285664 0)
(-0.000396604 0.00405195 0)
(-0.00603448 0.00568657 0)
(-0.0134834 0.00781792 0)
(-0.0230452 0.0104237 0)
(-0.0349923 0.0134532 0)
(-0.0494257 0.0168037 0)
(-0.0662407 0.0203237 0)
(-0.0850165 0.0237602 0)
(-0.105069 0.0267843 0)
(-0.125525 0.029046 0)
(-0.145492 0.0302715 0)
(-0.164162 0.0302973 0)
(-0.180894 0.0290811 0)
(-0.195226 0.0266647 0)
(-0.206853 0.0231496 0)
(-0.21559 0.0186637 0)
(-0.221337 0.0133534 0)
(-0.224043 0.00736923 0)
(-0.223689 0.000872648 0)
(-0.22027 -0.00596798 0)
(-0.213796 -0.0129637 0)
(-0.204301 -0.0199045 0)
(-0.191847 -0.0265445 0)
(-0.176557 -0.0326066 0)
(-0.158628 -0.0377775 0)
(-0.138368 -0.0417303 0)
(-0.116201 -0.0441415 0)
(-0.0927035 -0.0447408 0)
(-0.0685718 -0.0433498 0)
(-0.0446293 -0.0399427 0)
(-0.0217348 -0.0346728 0)
(-0.000761699 -0.027894 0)
(0.017539 -0.0201264 0)
(0.0325343 -0.0120019 0)
(0.0438397 -0.00418011 0)
(0.0512415 0.00273961 0)
(0.0548258 0.0082857 0)
(0.054854 0.0121785 0)
(0.0519141 0.0143548 0)
(0.0467023 0.0149786 0)
(0.04013 0.0143822 0)
(0.0329523 0.0129944 0)
(0.0259208 0.0112162 0)
(0.0193937 0.00938159 0)
(0.0137205 0.00765214 0)
(0.00885625 0.00609448 0)
(0.00498605 0.00452433 0)
(0.00199564 0.00283959 0)
(0.000293251 0.000815369 0)
(0.000374527 -0.00228624 0)
(0.00227915 -0.00557625 0)
(0.00508017 -0.00697429 0)
(0.00760528 -0.00658853 0)
(0.00946367 -0.00490491 0)
(0.0101226 -0.00259135 0)
(0.00961795 -0.000222467 0)
(0.00783156 0.00192154 0)
(0.00484041 0.00382191 0)
(0.000449545 0.00574072 0)
(-0.00555541 0.00800354 0)
(-0.0136036 0.0109309 0)
(-0.0240821 0.0146716 0)
(-0.03738 0.019252 0)
(-0.0536814 0.024544 0)
(-0.0729332 0.0303165 0)
(-0.0946833 0.0361665 0)
(-0.118133 0.0415717 0)
(-0.142239 0.0459686 0)
(-0.165957 0.0489213 0)
(-0.188402 0.0501757 0)
(-0.208936 0.0496746 0)
(-0.227155 0.0474877 0)
(-0.24284 0.0437691 0)
(-0.255891 0.0386974 0)
(-0.266279 0.032461 0)
(-0.274009 0.0252321 0)
(-0.279091 0.0171748 0)
(-0.281528 0.00843822 0)
(-0.281305 -0.000825228 0)
(-0.278391 -0.0104585 0)
(-0.272734 -0.0202759 0)
(-0.264279 -0.0300594 0)
(-0.252971 -0.039534 0)
(-0.238786 -0.0483701 0)
(-0.221746 -0.0561711 0)
(-0.20197 -0.0624972 0)
(-0.17969 -0.0668845 0)
(-0.155309 -0.0689077 0)
(-0.129395 -0.0682366 0)
(-0.102713 -0.0647267 0)
(-0.0761508 -0.0584709 0)
(-0.0506867 -0.0498468 0)
(-0.027231 -0.0394794 0)
(-0.0065835 -0.0281733 0)
(0.0107184 -0.016786 0)
(0.0243227 -0.00611941 0)
(0.0341459 0.00315982 0)
(0.0402049 0.0105658 0)
(0.04277 0.0158175 0)
(0.0422007 0.0188709 0)
(0.0391638 0.0199235 0)
(0.0343241 0.0193832 0)
(0.0285404 0.0177646 0)
(0.022385 0.0155866 0)
(0.0165007 0.013221 0)
(0.0110611 0.0108658 0)
(0.00648237 0.00839825 0)
(0.00272503 0.00559595 0)
(0.000454462 0.00204589 0)
(0.000433193 -0.00358007 0)
(0.00246772 -0.00812751 0)
(0.00522796 -0.00971335 0)
(0.00732695 -0.00864136 0)
(0.00836977 -0.00580365 0)
(0.00784106 -0.00211077 0)
(0.005807 0.00166646 0)
(0.00210242 0.00526241 0)
(-0.00332503 0.00873859 0)
(-0.0108515 0.0125295 0)
(-0.0208743 0.0170756 0)
(-0.0339132 0.0227456 0)
(-0.0503025 0.0296004 0)
(-0.0701557 0.0374695 0)
(-0.0931381 0.0458793 0)
(-0.118483 0.0541607 0)
(-0.145058 0.0615122 0)
(-0.171661 0.067249 0)
(-0.197247 0.07091 0)
(-0.22108 0.0723228 0)
(-0.242709 0.0715121 0)
(-0.261914 0.0686488 0)
(-0.278619 0.0639544 0)
(-0.292832 0.057678 0)
(-0.304606 0.0500461 0)
(-0.314005 0.0412691 0)
(-0.321096 0.0315193 0)
(-0.325929 0.0209522 0)
(-0.328539 0.00969782 0)
(-0.328926 -0.002112 0)
(-0.327064 -0.0143441 0)
(-0.322882 -0.0268328 0)
(-0.316282 -0.0393749 0)
(-0.30712 -0.0516964 0)
(-0.295243 -0.0634493 0)
(-0.28049 -0.0741867 0)
(-0.262745 -0.0833801 0)
(-0.24197 -0.0904286 0)
(-0.218289 -0.094726 0)
(-0.192019 -0.0957266 0)
(-0.16376 -0.0930705 0)
(-0.134365 -0.0866774 0)
(-0.104939 -0.0768502 0)
(-0.0766699 -0.0642729 0)
(-0.0507123 -0.0499472 0)
(-0.0279348 -0.0350074 0)
(-0.00889239 -0.0205371 0)
(0.00626139 -0.00741562 0)
(0.0175419 0.00371847 0)
(0.025169 0.0124563 0)
(0.0293502 0.0185973 0)
(0.0305251 0.0221775 0)
(0.0291363 0.0234684 0)
(0.0259215 0.0229558 0)
(0.0214538 0.0212144 0)
(0.0165117 0.0187766 0)
(0.0114409 0.0159618 0)
(0.00688099 0.0127621 0)
(0.00294078 0.0088287 0)
(0.000499134 0.00355843 0)
(0.000479361 -0.00492511 0)
(0.00247851 -0.0105492 0)
(0.00483737 -0.0119421 0)
(0.00604333 -0.00972961 0)
(0.00573424 -0.00533462 0)
(0.00346427 9.51553e-05 0)
(-0.000696071 0.00564924 0)
(-0.00699066 0.0111796 0)
(-0.0156558 0.0168955 0)
(-0.0272416 0.0234068 0)
(-0.0422364 0.0311716 0)
(-0.061021 0.0404241 0)
(-0.0835309 0.050887 0)
(-0.109214 0.0619213 0)
(-0.136995 0.0725495 0)
(-0.165547 0.0817916 0)
(-0.193593 0.0888446 0)
(-0.220154 0.0932822 0)
(-0.244605 0.0949778 0)
(-0.266615 0.0940575 0)
(-0.286062 0.0907573 0)
(-0.302949 0.0853854 0)
(-0.317359 0.0782392 0)
(-0.329411 0.0696083 0)
(-0.339253 0.059733 0)
(-0.347032 0.0488254 0)
(-0.352897 0.0370456 0)
(-0.356972 0.0245301 0)
(-0.359362 0.0113781 0)
(-0.360126 -0.00231595 0)
(-0.359284 -0.0164672 0)
(-0.35679 -0.0309628 0)
(-0.352539 -0.0456578 0)
(-0.346345 -0.0603323 0)
(-0.33796 -0.0746826 0)
(-0.327057 -0.0882794 0)
(-0.313284 -0.100571 0)
(-0.296282 -0.110871 0)
(-0.275782 -0.118409 0)
(-0.25168 -0.122388 0)
(-0.224174 -0.122129 0)
(-0.193828 -0.117203 0)
(-0.161663 -0.107617 0)
(-0.12906 -0.0939045 0)
(-0.0976377 -0.0771491 0)
(-0.0689018 -0.0587983 0)
(-0.0440027 -0.0403883 0)
(-0.023461 -0.0232129 0)
(-0.00731826 -0.0081711 0)
(0.00476327 0.00423002 0)
(0.0131115 0.0137382 0)
(0.0181608 0.0203172 0)
(0.0202429 0.0241089 0)
(0.0199447 0.025498 0)
(0.0177389 0.0249969 0)
(0.0143954 0.023193 0)
(0.0103468 0.0204579 0)
(0.00637346 0.016882 0)
(0.00274853 0.012 0)
(0.000461213 0.00505876 0)
(0.000501885 -0.0063268 0)
(0.00225267 -0.012693 0)
(0.00381085 -0.0133907 0)
(0.00366534 -0.00952701 0)
(0.00151725 -0.00314412 0)
(-0.00297951 0.00442024 0)
(-0.00980648 0.0122068 0)
(-0.0193146 0.0202846 0)
(-0.0319269 0.0290288 0)
(-0.0482379 0.0391263 0)
(-0.0685758 0.0508258 0)
(-0.0928266 0.0639318 0)
(-0.12023 0.0775746 0)
(-0.149519 0.090606 0)
(-0.179218 0.101812 0)
(-0.208007 0.110339 0)
(-0.234936 0.115722 0)
(-0.259429 0.117906 0)
(-0.281211 0.117053 0)
(-0.300202 0.11349 0)
(-0.31646 0.10757 0)
(-0.33012 0.0996804 0)
(-0.341387 0.0901619 0)
(-0.350489 0.0793347 0)
(-0.357677 0.0674507 0)
(-0.363193 0.0547233 0)
(-0.367271 0.0412979 0)
(-0.370104 0.0272873 0)
(-0.371862 0.0127538 0)
(-0.372656 -0.00225278 0)
(-0.372558 -0.0177042 0)
(-0.371564 -0.0335529 0)
(-0.369611 -0.0497327 0)
(-0.366533 -0.0661104 0)
(-0.362071 -0.0824768 0)
(-0.355839 -0.098491 0)
(-0.347343 -0.113668 0)
(-0.335979 -0.127336 0)
(-0.321106 -0.138656 0)
(-0.302123 -0.146643 0)
(-0.278632 -0.150288 0)
(-0.250591 -0.1487 0)
(-0.218519 -0.14135 0)
(-0.183572 -0.128284 0)
(-0.14755 -0.11031 0)
(-0.11261 -0.088968 0)
(-0.0808709 -0.0662903 0)
(-0.0538258 -0.0442966 0)
(-0.0321079 -0.0245411 0)
(-0.0154688 -0.00787426 0)
(-0.00332507 0.00538618 0)
(0.00503243 0.01526 0)
(0.0100886 0.0218914 0)
(0.0124235 0.0256241 0)
(0.0124536 0.0268834 0)
(0.0108838 0.0262368 0)
(0.00817253 0.0240328 0)
(0.0051464 0.0204063 0)
(0.00221191 0.0147984 0)
(0.000350599 0.00637165 0)
(0.000477509 -0.00756267 0)
(0.00168797 -0.0140797 0)
(0.00198147 -0.0134558 0)
(1.85799e-05 -0.00740833 0)
(-0.00442549 0.00138277 0)
(-0.0115856 0.0114886 0)
(-0.0215642 0.0220146 0)
(-0.0348065 0.0332969 0)
(-0.0518263 0.0457833 0)
(-0.0729995 0.0599916 0)
(-0.0981722 0.0756452 0)
(-0.126495 0.0918976 0)
(-0.156573 0.10733 0)
(-0.186807 0.120616 0)
(-0.215825 0.130729 0)
(-0.24264 0.137211 0)
(-0.266686 0.139982 0)
(-0.287682 0.139288 0)
(-0.305583 0.13549 0)
(-0.320481 0.129058 0)
(-0.332599 0.120446 0)
(-0.34222 0.110111 0)
(-0.349687 0.0984363 0)
(-0.355338 0.0857606 0)
(-0.359516 0.0723278 0)
(-0.362519 0.0583305 0)
(-0.364618 0.0438782 0)
(-0.366028 0.0290448 0)
(-0.366936 0.0138464 0)
(-0.367471 -0.00171433 0)
(-0.367734 -0.0176647 0)
(-0.367766 -0.0340198 0)
(-0.367564 -0.0507925 0)
(-0.367038 -0.0679465 0)
(-0.366012 -0.0853933 0)
(-0.364171 -0.102933 0)
(-0.36105 -0.120231 0)
(-0.355989 -0.136753 0)
(-0.348165 -0.151744 0)
(-0.336605 -0.164195 0)
(-0.320338 -0.172901 0)
(-0.298551 -0.176559 0)
(-0.270888 -0.174001 0)
(-0.237692 -0.164479 0)
(-0.200259 -0.148026 0)
(-0.160814 -0.125687 0)
(-0.122251 -0.0995597 0)
(-0.0874171 -0.0723758 0)
(-0.0583687 -0.0467981 0)
(-0.0357635 -0.0246449 0)
(-0.0191305 -0.0066969 0)
(-0.0074 0.00706656 0)
(0.000351241 0.0169317 0)
(0.00495591 0.0233505 0)
(0.0069468 0.0267407 0)
(0.00701951 0.0276428 0)
(0.00566032 0.0263464 0)
(0.00368001 0.0229759 0)
(0.00157484 0.0169165 0)
(0.000227486 0.00732594 0)
(0.00038102 -0.00851583 0)
(0.000707627 -0.0144143 0)
(-0.000721626 -0.0118055 0)
(-0.00489377 -0.00308811 0)
(-0.0119864 0.00849986 0)
(-0.0221289 0.0215694 0)
(-0.035589 0.0353769 0)
(-0.0528051 0.0504605 0)
(-0.0741758 0.0671067 0)
(-0.0995547 0.0853427 0)
(-0.128132 0.104162 0)
(-0.158413 0.122143 0)
(-0.188748 0.137664 0)
(-0.217635 0.149619 0)
(-0.244055 0.157396 0)
(-0.267363 0.160952 0)
(-0.287297 0.160517 0)
(-0.3038 0.15657 0)
(-0.317052 0.149644 0)
(-0.327336 0.140338 0)
(-0.335064 0.129188 0)
(-0.340656 0.116699 0)
(-0.344561 0.103257 0)
(-0.347164 0.0891794 0)
(-0.348827 0.0746691 0)
(-0.349827 0.0598724 0)
(-0.350406 0.0448491 0)
(-0.350736 0.0296301 0)
(-0.350972 0.0141915 0)
(-0.351215 -0.00149643 0)
(-0.351564 -0.0174943 0)
(-0.352075 -0.0338519 0)
(-0.352801 -0.0506295 0)
(-0.353735 -0.0678571 0)
(-0.35483 -0.0855437 0)
(-0.355925 -0.103625 0)
(-0.356739 -0.121949 0)
(-0.356775 -0.140196 0)
(-0.355306 -0.157841 0)
(-0.351316 -0.174061 0)
(-0.343556 -0.187718 0)
(-0.330636 -0.197358 0)
(-0.31129 -0.201349 0)
(-0.284704 -0.198135 0)
(-0.250968 -0.186651 0)
(-0.211409 -0.166797 0)
(-0.16874 -0.139868 0)
(-0.126657 -0.108591 0)
(-0.0889666 -0.0766295 0)
(-0.0582947 -0.0474106 0)
(-0.0353781 -0.0230841 0)
(-0.019269 -0.00417954 0)
(-0.00851364 0.00967405 0)
(-0.0017388 0.0192104 0)
(0.0019677 0.0250221 0)
(0.00345194 0.0277165 0)
(0.00329472 0.0275627 0)
(0.00228721 0.0246603 0)
(0.000978248 0.0183909 0)
(0.000118015 0.007965 0)
(0.00018014 -0.00885509 0)
(-0.000762815 -0.0131599 0)
(-0.00434176 -0.00790933 0)
(-0.011032 0.00389086 0)
(-0.0210231 0.0186197 0)
(-0.0343343 0.0350468 0)
(-0.0513812 0.052582 0)
(-0.0724062 0.0717623 0)
(-0.0974613 0.0924102 0)
(-0.125708 0.113844 0)
(-0.155782 0.134395 0)
(-0.185869 0.152396 0)
(-0.214448 0.166409 0)
(-0.240313 0.175766 0)
(-0.262821 0.180287 0)
(-0.281613 0.180289 0)
(-0.296711 0.176273 0)
(-0.308304 0.168936 0)
(-0.316819 0.158969 0)
(-0.322729 0.147073 0)
(-0.326594 0.133822 0)
(-0.328901 0.119711 0)
(-0.330122 0.105079 0)
(-0.330608 0.0901784 0)
(-0.330666 0.0751398 0)
(-0.330489 0.0600446 0)
(-0.33025 0.0448957 0)
(-0.330043 0.0296833 0)
(-0.329964 0.0143526 0)
(-0.330067 -0.00114418 0)
(-0.330426 -0.0168812 0)
(-0.331089 -0.0329179 0)
(-0.33213 -0.0493304 0)
(-0.333595 -0.0661758 0)
(-0.335535 -0.0835152 0)
(-0.337936 -0.101374 0)
(-0.340729 -0.119742 0)
(-0.343679 -0.138511 0)
(-0.34636 -0.157431 0)
(-0.348025 -0.176008 0)
(-0.347579 -0.193415 0)
(-0.343527 -0.208397 0)
(-0.334111 -0.219263 0)
(-0.317545 -0.223986 0)
(-0.292498 -0.220525 0)
(-0.258656 -0.207341 0)
(-0.217329 -0.184111 0)
(-0.171682 -0.152344 0)
(-0.12638 -0.115592 0)
(-0.0862714 -0.0786629 0)
(-0.0546486 -0.0459741 0)
(-0.0320672 -0.019855 0)
(-0.0170697 -0.000517587 0)
(-0.00761931 0.013023 0)
(-0.00213508 0.021748 0)
(0.000627457 0.0265262 0)
(0.00148219 0.0277333 0)
(0.00126581 0.0254938 0)
(0.000574641 0.0192516 0)
(5.67427e-05 0.00831462 0)
(-0.00013737 -0.00836151 0)
(-0.00269873 -0.0100245 0)
(-0.00873571 -0.00157344 0)
(-0.0181035 0.0136051 0)
(-0.0310767 0.0317438 0)
(-0.0475293 0.0518231 0)
(-0.0679376 0.0732989 0)
(-0.0921318 0.0964202 0)
(-0.119686 0.12032 0)
(-0.149117 0.143616 0)
(-0.178796 0.164272 0)
(-0.20692 0.180745 0)
(-0.232302 0.192014 0)
(-0.254067 0.197887 0)
(-0.271926 0.198587 0)
(-0.285808 0.194758 0)
(-0.29605 0.18716 0)
(-0.303089 0.176687 0)
(-0.307573 0.164132 0)
(-0.310084 0.15023 0)
(-0.311239 0.135517 0)
(-0.311488 0.120412 0)
(-0.311242 0.105157 0)
(-0.310741 0.0899123 0)
(-0.310196 0.0747232 0)
(-0.309694 0.0596088 0)
(-0.309324 0.0445253 0)
(-0.309102 0.0294369 0)
(-0.309074 0.0142747 0)
(-0.309244 -0.00100997 0)
(-0.309661 -0.0164864 0)
(-0.31035 -0.0322034 0)
(-0.311386 -0.0482276 0)
(-0.312825 -0.0646104 0)
(-0.314767 -0.0814199 0)
(-0.317278 -0.0987117 0)
(-0.320432 -0.116547 0)
(-0.324215 -0.134949 0)
(-0.32851 -0.153887 0)
(-0.332965 -0.173187 0)
(-0.336918 -0.192437 0)
(-0.339241 -0.210839 0)
(-0.33831 -0.227074 0)
(-0.332027 -0.239213 0)
(-0.318123 -0.244804 0)
(-0.29467 -0.241206 0)
(-0.260893 -0.226288 0)
(-0.217985 -0.199383 0)
(-0.169631 -0.162293 0)
(-0.121555 -0.119607 0)
(-0.0798159 -0.0776735 0)
(-0.0481886 -0.0419211 0)
(-0.0268145 -0.0147471 0)
(-0.0134346 0.00440055 0)
(-0.00562624 0.0169519 0)
(-0.00146634 0.0242966 0)
(0.000298641 0.0271395 0)
(0.000691354 0.0257646 0)
(0.00039475 0.019762 0)
(4.50859e-05 0.00854992 0)
(-0.00058091 -0.00668154 0)
(-0.00505171 -0.00460704 0)
(-0.0137273 0.00748462 0)
(-0.0257932 0.026227 0)
(-0.0416635 0.0479477 0)
(-0.0609923 0.0717888 0)
(-0.0841963 0.0970597 0)
(-0.110546 0.123462 0)
(-0.139167 0.149397 0)
(-0.168142 0.172997 0)
(-0.195888 0.192221 0)
(-0.220808 0.205904 0)
(-0.242122 0.213529 0)
(-0.259275 0.215362 0)
(-0.272347 0.212009 0)
(-0.281566 0.204431 0)
(-0.287576 0.193612 0)
(-0.290994 0.180568 0)
(-0.29259 0.16611 0)
(-0.292944 0.150916 0)
(-0.292621 0.135413 0)
(-0.291954 0.119902 0)
(-0.29124 0.104504 0)
(-0.290588 0.0892857 0)
(-0.290112 0.0742179 0)
(-0.289803 0.0592723 0)
(-0.289691 0.0443762 0)
(-0.289738 0.0294819 0)
(-0.289957 0.0145189 0)
(-0.290322 -0.000553864 0)
(-0.290864 -0.0157937 0)
(-0.291588 -0.0312333 0)
(-0.292557 -0.0469218 0)
(-0.293817 -0.0628928 0)
(-0.295471 -0.0792002 0)
(-0.297606 -0.0958943 0)
(-0.300353 -0.11305 0)
(-0.303807 -0.130742 0)
(-0.30805 -0.14905 0)
(-0.313038 -0.168009 0)
(-0.318544 -0.187542 0)
(-0.323984 -0.207331 0)
(-0.328285 -0.226635 0)
(-0.329727 -0.244081 0)
(-0.325967 -0.257505 0)
(-0.314262 -0.263971 0)
(-0.292106 -0.260147 0)
(-0.258209 -0.243168 0)
(-0.213675 -0.211996 0)
(-0.162782 -0.168848 0)
(-0.112536 -0.119821 0)
(-0.0702269 -0.0731324 0)
(-0.0398252 -0.0352711 0)
(-0.0204976 -0.00801384 0)
(-0.00920842 0.00998135 0)
(-0.00314198 0.0208146 0)
(-0.000366131 0.0257974 0)
(0.00053712 0.0255996 0)
(0.000435495 0.0200704 0)
(8.35666e-05 0.00876021 0)
(-0.00112031 -0.00364378 0)
(-0.00764881 0.00316497 0)
(-0.0189588 0.0191618 0)
(-0.033567 0.0415048 0)
(-0.0520505 0.0668115 0)
(-0.0737476 0.0942486 0)
(-0.0989155 0.122782 0)
(-0.126231 0.151427 0)
(-0.154534 0.177995 0)
(-0.181721 0.200436 0)
(-0.206474 0.216999 0)
(-0.22749 0.227018 0)
(-0.244413 0.230492 0)
(-0.257003 0.228131 0)
(-0.265726 0.220908 0)
(-0.271068 0.210051 0)
(-0.273901 0.196683 0)
(-0.274908 0.181831 0)
(-0.274861 0.166228 0)
(-0.27423 0.150416 0)
(-0.273463 0.134675 0)
(-0.272738 0.119167 0)
(-0.272231 0.103906 0)
(-0.271936 0.0888802 0)
(-0.271894 0.0740116 0)
(-0.272032 0.0592468 0)
(-0.272351 0.0445033 0)
(-0.27278 0.0297357 0)
(-0.273324 0.0148821 0)
(-0.273939 -8.58348e-05 0)
(-0.274648 -0.0152099 0)
(-0.27544 -0.0305053 0)
(-0.276367 -0.0460015 0)
(-0.277453 -0.0617111 0)
(-0.278786 -0.0776645 0)
(-0.280437 -0.0938902 0)
(-0.282538 -0.110444 0)
(-0.285211 -0.1274 0)
(-0.288622 -0.144865 0)
(-0.29289 -0.162966 0)
(-0.298082 -0.181819 0)
(-0.304058 -0.20145 0)
(-0.310349 -0.221643 0)
(-0.315925 -0.241719 0)
(-0.319026 -0.260245 0)
(-0.317072 -0.274787 0)
(-0.306898 -0.281855 0)
(-0.285436 -0.277309 0)
(-0.250929 -0.257469 0)
(-0.204486 -0.220944 0)
(-0.151213 -0.170764 0)
(-0.0996473 -0.1151 0)
(-0.0582574 -0.0645746 0)
(-0.030471 -0.0260265 0)
(-0.0139875 -0.000139811 0)
(-0.00506121 0.0157065 0)
(-0.000880878 0.0236924 0)
(0.000607967 0.0251652 0)
(0.000609958 0.0203922 0)
(0.000152588 0.00909286 0)
(-0.00172437 0.000953597 0)
(-0.0103328 0.0133927 0)
(-0.0241246 0.0334173 0)
(-0.0409808 0.0592813 0)
(-0.0616243 0.0880125 0)
(-0.0849994 0.118614 0)
(-0.111166 0.149571 0)
(-0.138288 0.179221 0)
(-0.165129 0.205042 0)
(-0.189603 0.225089 0)
(-0.210783 0.238091 0)
(-0.227678 0.24392 0)
(-0.24036 0.243091 0)
(-0.248896 0.23673 0)
(-0.254093 0.226134 0)
(-0.256603 0.212693 0)
(-0.257408 0.197552 0)
(-0.257126 0.181645 0)
(-0.256444 0.165548 0)
(-0.255657 0.149629 0)
(-0.25508 0.134014 0)
(-0.25474 0.118746 0)
(-0.254727 0.103757 0)
(-0.25495 0.0889864 0)
(-0.255415 0.0743341 0)
(-0.256016 0.0597397 0)
(-0.256751 0.0451242 0)
(-0.257537 0.0304508 0)
(-0.258384 0.0156686 0)
(-0.259241 0.000761215 0)
(-0.260135 -0.0143009 0)
(-0.261042 -0.0295211 0)
(-0.262005 -0.0449145 0)
(-0.263029 -0.060479 0)
(-0.264178 -0.076225 0)
(-0.265494 -0.092159 0)
(-0.267078 -0.108308 0)
(-0.26903 -0.124716 0)
(-0.271513 -0.14147 0)
(-0.274692 -0.158701 0)
(-0.278768 -0.176587 0)
(-0.283868 -0.195331 0)
(-0.289972 -0.215061 0)
(-0.296693 -0.235674 0)
(-0.303056 -0.256526 0)
(-0.307224 -0.276085 0)
(-0.306381 -0.291549 0)
(-0.296946 -0.298751 0)
(-0.275324 -0.292618 0)
(-0.239422 -0.268583 0)
(-0.190589 -0.225161 0)
(-0.135179 -0.166792 0)
(-0.0835602 -0.104802 0)
(-0.0449835 -0.0521144 0)
(-0.0211599 -0.0150467 0)
(-0.00802705 0.00806636 0)
(-0.00172021 0.0204193 0)
(0.000648652 0.0243475 0)
(0.000815074 0.0207343 0)
(0.00023397 0.00956769 0)
(-0.00232285 0.00706933 0)
(-0.012853 0.0258291 0)
(-0.0288063 0.0498281 0)
(-0.0474784 0.0789666 0)
(-0.0696974 0.110743 0)
(-0.0939729 0.143825 0)
(-0.120195 0.176182 0)
(-0.146154 0.205596 0)
(-0.170732 0.229497 0)
(-0.191994 0.246255 0)
(-0.209452 0.255176 0)
(-0.222423 0.25667 0)
(-0.231391 0.251751 0)
(-0.236681 0.241906 0)
(-0.239351 0.228657 0)
(-0.240096 0.213425 0)
(-0.239887 0.197268 0)
(-0.239193 0.180939 0)
(-0.238562 0.164822 0)
(-0.238111 0.149111 0)
(-0.238037 0.133801 0)
(-0.238253 0.118846 0)
(-0.238797 0.104132 0)
(-0.239532 0.0895775 0)
(-0.240457 0.0750788 0)
(-0.241456 0.0605819 0)
(-0.242536 0.0460198 0)
(-0.243614 0.031367 0)
(-0.244711 0.0165853 0)
(-0.245775 0.00166801 0)
(-0.246838 -0.0134035 0)
(-0.247868 -0.0286243 0)
(-0.248906 -0.0439993 0)
(-0.24994 -0.0595171 0)
(-0.25102 -0.0751743 0)
(-0.252158 -0.0909617 0)
(-0.253425 -0.106881 0)
(-0.254877 -0.122947 0)
(-0.256636 -0.139204 0)
(-0.25884 -0.155746 0)
(-0.261702 -0.172727 0)
(-0.265446 -0.190386 0)
(-0.270295 -0.209006 0)
(-0.276317 -0.228847 0)
(-0.283218 -0.249897 0)
(-0.290037 -0.271545 0)
(-0.294813 -0.292054 0)
(-0.294443 -0.308119 0)
(-0.284868 -0.314687 0)
(-0.262058 -0.305569 0)
(-0.223755 -0.27539 0)
(-0.172047 -0.223006 0)
(-0.115079 -0.155575 0)
(-0.0653659 -0.0885214 0)
(-0.0317681 -0.0366399 0)
(-0.0128309 -0.00321396 0)
(-0.00339028 0.015411 0)
(0.000374039 0.0229381 0)
(0.000928111 0.0210648 0)
(0.000304128 0.0102086 0)
(-0.00286725 0.0146386 0)
(-0.0150487 0.0402668 0)
(-0.0327456 0.0680956 0)
(-0.0527262 0.100176 0)
(-0.0758741 0.13449 0)
(-0.100281 0.169245 0)
(-0.125738 0.201948 0)
(-0.149826 0.23002 0)
(-0.171678 0.251091 0)
(-0.189586 0.26398 0)
(-0.203504 0.268616 0)
(-0.213031 0.265924 0)
(-0.21902 0.257374 0)
(-0.221965 0.244715 0)
(-0.223057 0.229567 0)
(-0.22292 0.213262 0)
(-0.222432 0.196681 0)
(-0.221869 0.18036 0)
(-0.221643 0.164495 0)
(-0.221712 0.149129 0)
(-0.222197 0.134167 0)
(-0.222936 0.119511 0)
(-0.223953 0.105028 0)
(-0.22509 0.0906362 0)
(-0.226361 0.076242 0)
(-0.227648 0.0618019 0)
(-0.228976 0.047263 0)
(-0.230267 0.0326093 0)
(-0.231553 0.0178131 0)
(-0.232782 0.0028735 0)
(-0.233992 -0.0122207 0)
(-0.235147 -0.0274611 0)
(-0.236288 -0.0428467 0)
(-0.237391 -0.0583632 0)
(-0.238499 -0.0739991 0)
(-0.239602 -0.0897388 0)
(-0.240748 -0.105567 0)
(-0.241955 -0.12148 0)
(-0.243301 -0.137482 0)
(-0.244866 -0.153624 0)
(-0.246813 -0.169995 0)
(-0.249345 -0.186791 0)
(-0.252747 -0.20429 0)
(-0.257302 -0.222891 0)
(-0.26317 -0.242952 0)
(-0.270131 -0.264584 0)
(-0.277184 -0.287121 0)
(-0.282193 -0.308518 0)
(-0.281619 -0.324712 0)
(-0.270935 -0.329476 0)
(-0.245683 -0.315356 0)
(-0.203893 -0.27632 0)
(-0.148991 -0.212739 0)
(-0.0918047 -0.136117 0)
(-0.0467511 -0.0672665 0)
(-0.0200108 -0.0195953 0)
(-0.00628464 0.00777849 0)
(-0.000422065 0.0204651 0)
(0.000866496 0.0211546 0)
(0.000350123 0.0109255 0)
(-0.0032862 0.023366 0)
(-0.016713 0.0561972 0)
(-0.0356427 0.0875809 0)
(-0.0563753 0.122135 0)
(-0.0798042 0.158338 0)
(-0.103663 0.193889 0)
(-0.127729 0.22596 0)
(-0.149516 0.251805 0)
(-0.16849 0.269446 0)
(-0.183193 0.278219 0)
(-0.193991 0.278676 0)
(-0.200728 0.272207 0)
(-0.204541 0.260664 0)
(-0.205988 0.245927 0)
(-0.206288 0.22959 0)
(-0.20591 0.212797 0)
(-0.205605 0.196217 0)
(-0.205457 0.180159 0)
(-0.205764 0.164666 0)
(-0.20637 0.149668 0)
(-0.207359 0.13502 0)
(-0.208529 0.120598 0)
(-0.209913 0.106275 0)
(-0.211347 0.0919762 0)
(-0.212868 0.0776256 0)
(-0.214362 0.0631903 0)
(-0.215872 0.0486315 0)
(-0.21732 0.0339398 0)
(-0.21875 0.019097 0)
(-0.220107 0.00410592 0)
(-0.221436 -0.0110382 0)
(-0.222697 -0.0263256 0)
(-0.22393 -0.0417498 0)
(-0.225109 -0.0572967 0)
(-0.22627 -0.0729497 0)
(-0.227394 -0.0886926 0)
(-0.228517 -0.1045 0)
(-0.22963 -0.120361 0)
(-0.23078 -0.136254 0)
(-0.231998 -0.152196 0)
(-0.233383 -0.168216 0)
(-0.235073 -0.184442 0)
(-0.237304 -0.201072 0)
(-0.24039 -0.218486 0)
(-0.244684 -0.237153 0)
(-0.250431 -0.2576 0)
(-0.25742 -0.279979 0)
(-0.264586 -0.303524 0)
(-0.269429 -0.325636 0)
(-0.267945 -0.341164 0)
(-0.254955 -0.342359 0)
(-0.225912 -0.320303 0)
(-0.179555 -0.269097 0)
(-0.121845 -0.192241 0)
(-0.066938 -0.108704 0)
(-0.0298996 -0.0428871 0)
(-0.0106666 -0.0033808 0)
(-0.00185933 0.0163897 0)
(0.000590071 0.0207693 0)
(0.000364628 0.0116476 0)
(-0.00355254 0.0329595 0)
(-0.0177756 0.0732325 0)
(-0.0374099 0.107891 0)
(-0.058354 0.144446 0)
(-0.0814751 0.181893 0)
(-0.10424 0.217436 0)
(-0.126491 0.248066 0)
(-0.145787 0.27105 0)
(-0.161955 0.284934 0)
(-0.173782 0.289589 0)
(-0.181999 0.28617 0)
(-0.186629 0.27646 0)
(-0.188997 0.262584 0)
(-0.189631 0.246423 0)
(-0.18969 0.229451 0)
(-0.189461 0.212564 0)
(-0.189557 0.196217 0)
(-0.189903 0.180519 0)
(-0.190721 0.165403 0)
(-0.191781 0.150722 0)
(-0.19316 0.136316 0)
(-0.194641 0.122057 0)
(-0.196279 0.107834 0)
(-0.197915 0.093582 0)
(-0.199606 0.0792446 0)
(-0.201243 0.0647959 0)
(-0.202883 0.0502087 0)
(-0.204448 0.0354768 0)
(-0.205991 0.0205892 0)
(-0.207453 0.00554919 0)
(-0.208883 -0.00964249 0)
(-0.210237 -0.024977 0)
(-0.211558 -0.0404435 0)
(-0.212815 -0.0560303 0)
(-0.214046 -0.0717171 0)
(-0.215224 -0.0874914 0)
(-0.216381 -0.103323 0)
(-0.217497 -0.119202 0)
(-0.218599 -0.135091 0)
(-0.219684 -0.150993 0)
(-0.220802 -0.166889 0)
(-0.222018 -0.182848 0)
(-0.223488 -0.198966 0)
(-0.22546 -0.215532 0)
(-0.228291 -0.232957 0)
(-0.232418 -0.251895 0)
(-0.238113 -0.272957 0)
(-0.245189 -0.29637 0)
(-0.2523 -0.321036 0)
(-0.256557 -0.343499 0)
(-0.253165 -0.357044 0)
(-0.236527 -0.351916 0)
(-0.202119 -0.31802 0)
(-0.150662 -0.250757 0)
(-0.0916167 -0.160508 0)
(-0.0432442 -0.0753708 0)
(-0.016549 -0.0191964 0)
(-0.00405825 0.0100313 0)
(0.000116621 0.0195718 0)
(0.000343673 0.0122576 0)
(-0.00362707 0.0429666 0)
(-0.0181416 0.090746 0)
(-0.0379413 0.128334 0)
(-0.0585884 0.166353 0)
(-0.0808978 0.204379 0)
(-0.102172 0.239191 0)
(-0.122375 0.267758 0)
(-0.139191 0.287498 0)
(-0.152789 0.297552 0)
(-0.162184 0.298312 0)
(-0.168396 0.291482 0)
(-0.171562 0.279142 0)
(-0.173093 0.263576 0)
(-0.173416 0.246553 0)
(-0.173586 0.229362 0)
(-0.173704 0.212635 0)
(-0.17427 0.196635 0)
(-0.175087 0.181314 0)
(-0.176336 0.166532 0)
(-0.177749 0.152102 0)
(-0.179416 0.13787 0)
(-0.181119 0.123712 0)
(-0.182936 0.109541 0)
(-0.184716 0.0952999 0)
(-0.186533 0.0809491 0)
(-0.18828 0.0664666 0)
(-0.190025 0.0518347 0)
(-0.191687 0.0370478 0)
(-0.193324 0.0221015 0)
(-0.194873 0.00699865 0)
(-0.196386 -0.00825421 0)
(-0.197816 -0.0236494 0)
(-0.199206 -0.0391706 0)
(-0.200523 -0.0548087 0)
(-0.201805 -0.0705386 0)
(-0.203026 -0.0863532 0)
(-0.204218 -0.102219 0)
(-0.205356 -0.118131 0)
(-0.206462 -0.134047 0)
(-0.207516 -0.14997 0)
(-0.20854 -0.165852 0)
(-0.209546 -0.181728 0)
(-0.210613 -0.197608 0)
(-0.211893 -0.21368 0)
(-0.213655 -0.230214 0)
(-0.216335 -0.24781 0)
(-0.220396 -0.267209 0)
(-0.226207 -0.289231 0)
(-0.233379 -0.313977 0)
(-0.2403 -0.339796 0)
(-0.243244 -0.361824 0)
(-0.236781 -0.371102 0)
(-0.214718 -0.355665 0)
(-0.173692 -0.304753 0)
(-0.117428 -0.218484 0)
(-0.0608332 -0.118379 0)
(-0.0239531 -0.0413892 0)
(-0.00714846 0.00085481 0)
(-0.000555545 0.0171813 0)
(0.000296912 0.0126969 0)
(-0.00352036 0.0530112 0)
(-0.0178512 0.108335 0)
(-0.0373251 0.148584 0)
(-0.0572451 0.187618 0)
(-0.0783505 0.225678 0)
(-0.0978834 0.25922 0)
(-0.115957 0.285323 0)
(-0.13043 0.301662 0)
(-0.141773 0.307998 0)
(-0.149197 0.305206 0)
(-0.153931 0.295473 0)
(-0.156157 0.281073 0)
(-0.15729 0.26434 0)
(-0.157618 0.246853 0)
(-0.158073 0.229688 0)
(-0.158595 0.213229 0)
(-0.159597 0.197583 0)
(-0.160803 0.182583 0)
(-0.162379 0.168059 0)
(-0.164044 0.153803 0)
(-0.165908 0.13968 0)
(-0.167759 0.125575 0)
(-0.169698 0.111425 0)
(-0.171579 0.0971765 0)
(-0.17349 0.082804 0)
(-0.175324 0.0682853 0)
(-0.177156 0.0536105 0)
(-0.178902 0.0387715 0)
(-0.180622 0.02377 0)
(-0.182251 0.00860637 0)
(-0.18384 -0.0067068 0)
(-0.185338 -0.0221644 0)
(-0.186793 -0.0377436 0)
(-0.188164 -0.0534393 0)
(-0.189495 -0.0692201 0)
(-0.190757 -0.0850856 0)
(-0.191984 -0.100996 0)
(-0.193152 -0.11696 0)
(-0.194283 -0.132925 0)
(-0.195353 -0.148907 0)
(-0.19637 -0.164842 0)
(-0.197321 -0.180757 0)
(-0.198228 -0.1966 0)
(-0.199163 -0.212484 0)
(-0.20028 -0.228526 0)
(-0.201919 -0.245185 0)
(-0.204526 -0.263106 0)