/*--------------------------------*- C++ -*----------------------------------*\
| =========                 |                                                 |
| \\      /  F ield         | OpenFOAM: The Open Source CFD Toolbox           |
|  \\    /   O peration     | Version:  2406                                  |
|   \\  /    A nd           | Website:  www.openfoam.com                      |
|    \\/     M anipulation  |                                                 |
\*---------------------------------------------------------------------------*/
FoamFile
{
    version     2.0;
    format      ascii;
    arch        "LSB;label=32;scalar=64";
    class       surfaceScalarField;
    location    "44.75";
    object      phi;
}
// * * * * * * * * * * * * * * * * * * * * * * * * * * * * * * * * * * * * * //

dimensions      [0 3 -1 0 0 0 0];

oriented        oriented;

internalField   nonuniform List<scalar> 
32512
(
-1.01141e-08
1.00935e-08
2.52289e-08
-3.53434e-08
1.17136e-07
-9.1906e-08
2.59032e-07
-1.41897e-07
4.38056e-07
-1.79025e-07
6.39951e-07
-2.01895e-07
8.51048e-07
-2.11096e-07
1.05928e-06
-2.08232e-07
1.2548e-06
-1.95523e-07
1.43034e-06
-1.75532e-07
1.58126e-06
-1.50927e-07
1.70553e-06
-1.24266e-07
1.80334e-06
-9.78084e-08
1.87672e-06
-7.33805e-08
1.92901e-06
-5.22904e-08
1.96431e-06
-3.52984e-08
1.98694e-06
-2.26329e-08
2.00099e-06
-1.40495e-08
2.00989e-06
-8.90097e-09
2.01614e-06
-6.2501e-09
2.02117e-06
-5.03451e-09
2.02519e-06
-4.01188e-09
2.02716e-06
-1.97788e-09
2.02515e-06
2.01167e-09
2.01663e-06
8.52583e-09
1.99826e-06
1.83646e-08
1.96644e-06
3.1817e-08
1.9174e-06
4.90461e-08
1.84729e-06
7.0111e-08
1.75227e-06
9.50168e-08
1.62849e-06
1.23779e-07
1.47206e-06
1.56434e-07
1.279e-06
1.93059e-07
1.04524e-06
2.33754e-07
7.66636e-07
2.78608e-07
4.38947e-07
3.2769e-07
5.79624e-08
3.80984e-07
-3.80421e-07
4.38384e-07
-8.80109e-07
4.99688e-07
-1.44466e-06
5.64554e-07
-2.07717e-06
6.32509e-07
-2.78012e-06
7.02943e-07
-3.55522e-06
7.75108e-07
-4.40335e-06
8.48122e-07
-5.32433e-06
9.20979e-07
-6.31689e-06
9.92561e-07
-7.37854e-06
1.06166e-06
-8.50553e-06
1.12698e-06
-9.69273e-06
1.18721e-06
-1.09337e-05
1.24097e-06
-1.22206e-05
1.28694e-06
-1.35444e-05
1.32378e-06
-1.48947e-05
1.35023e-06
-1.62598e-05
1.3651e-06
-1.76271e-05
1.36731e-06
-1.89829e-05
1.35587e-06
-2.03129e-05
1.32994e-06
-2.16017e-05
1.2888e-06
-2.28336e-05
1.23191e-06
-2.39924e-05
1.15886e-06
-2.50619e-05
1.06943e-06
-2.60255e-05
9.636e-07
-2.68671e-05
8.41592e-07
-2.7571e-05
7.03892e-07
-2.81222e-05
5.5121e-07
-2.85065e-05
3.8437e-07
-2.8711e-05
2.04424e-07
-2.87273e-05
1.63081e-08
-2.85324e-05
-1.94871e-07
-2.81288e-05
-4.03601e-07
-2.75103e-05
-6.18473e-07
-2.6673e-05
-8.37335e-07
-2.5617e-05
-1.056e-06
-2.4346e-05
-1.27102e-06
-2.28673e-05
-1.47871e-06
-2.11921e-05
-1.6752e-06
-1.93356e-05
-1.8565e-06
-1.7317e-05
-2.01859e-06
-1.51594e-05
-2.15755e-06
-1.28897e-05
-2.26971e-06
-1.05379e-05
-2.35178e-06
-8.1369e-06
-2.40102e-06
-5.72152e-06
-2.41538e-06
-3.3279e-06
-2.39362e-06
-9.92368e-07
-2.33553e-06
1.24984e-06
-2.24221e-06
3.36512e-06
-2.11528e-06
5.32244e-06
-1.95732e-06
7.09478e-06
-1.77234e-06
8.66035e-06
-1.56556e-06
1.00025e-05
-1.34214e-06
1.11105e-05
-1.10803e-06
1.19799e-05
-8.69364e-07
1.26121e-05
-6.32235e-07
1.30145e-05
-4.02422e-07
1.31998e-05
-1.85238e-07
1.31844e-05
1.53977e-08
1.29896e-05
1.94786e-07
1.26385e-05
3.51079e-07
1.21555e-05
4.82976e-07
1.15659e-05
5.89659e-07
1.08945e-05
6.71339e-07
1.01654e-05
7.29169e-07
9.40039e-06
7.64985e-07
8.61929e-06
7.81104e-07
7.83913e-06
7.80159e-07
7.07419e-06
7.6494e-07
6.33594e-06
7.38253e-07
5.63314e-06
7.02797e-07
4.97206e-06
6.61078e-07
4.35672e-06
6.15342e-07
3.78918e-06
5.67541e-07
3.26985e-06
5.19325e-07
2.79781e-06
4.72045e-07
2.37104e-06
4.26767e-07
1.98676e-06
3.8428e-07
1.64167e-06
3.45092e-07
1.33226e-06
3.09406e-07
1.0552e-06
2.77066e-07
8.07709e-07
2.47489e-07
5.88107e-07
2.19602e-07
3.96298e-07
1.91809e-07
2.34245e-07
1.62053e-07
1.06158e-07
1.28086e-07
1.78815e-08
8.8277e-08
-2.55898e-08
4.34713e-08
-2.5318e-08
-2.71753e-10
-2.5318e-08
3.34262e-08
-2.33334e-08
1.76188e-07
-1.78105e-07
4.39601e-07
-3.55319e-07
8.08603e-07
-5.10899e-07
1.25745e-06
-6.2787e-07
1.75635e-06
-7.008e-07
2.2755e-06
-7.30242e-07
2.78767e-06
-7.20406e-07
3.27e-06
-6.77848e-07
3.70495e-06
-6.10484e-07
4.08077e-06
-5.26749e-07
4.39136e-06
-4.34853e-07
4.6357e-06
-3.42152e-07
4.817e-06
-2.54678e-07
4.94155e-06
-1.76835e-07
5.01751e-06
-1.11265e-07
5.05375e-06
-5.88706e-08
5.05867e-06
-1.89698e-08
5.03929e-06
1.04768e-08
5.0005e-06
3.25407e-08
4.94457e-06
5.08958e-08
4.87105e-06
6.95145e-08
4.77682e-06
9.22506e-08
4.65634e-06
1.22493e-07
4.50189e-06
1.62968e-07
4.30449e-06
2.15765e-07
4.0541e-06
2.82215e-07
3.74009e-06
3.63057e-07
3.35157e-06
4.58622e-07
2.87759e-06
5.69004e-07
2.30713e-06
6.94237e-07
1.62923e-06
8.3433e-07
8.32974e-07
9.89318e-07
-9.24686e-08
1.1592e-06
-1.1577e-06
1.34384e-06
-2.37288e-06
1.54287e-06
-3.7475e-06
1.7556e-06
-5.29006e-06
1.98095e-06
-7.00771e-06
2.21734e-06
-8.90588e-06
2.46272e-06
-1.09879e-05
2.71453e-06
-1.32547e-05
2.96973e-06
-1.57044e-05
3.2248e-06
-1.83321e-05
3.47582e-06
-2.11297e-05
3.71855e-06
-2.40856e-05
3.9485e-06
-2.71849e-05
4.16101e-06
-3.04094e-05
4.35142e-06
-3.37373e-05
4.51513e-06
-3.71441e-05
4.64772e-06
-4.06022e-05
4.74507e-06
-4.40818e-05
4.80344e-06
-4.75511e-05
4.81953e-06
-5.09766e-05
4.79055e-06
-5.43236e-05
4.71427e-06
-5.75567e-05
4.589e-06
-6.06404e-05
4.41364e-06
-6.35393e-05
4.18768e-06
-6.62185e-05
3.91115e-06
-6.86443e-05
3.58464e-06
-7.07841e-05
3.20929e-06
-7.26074e-05
2.78682e-06
-7.40854e-05
2.3196e-06
-7.51921e-05
1.81064e-06
-7.59043e-05
1.26336e-06
-7.62017e-05
6.81825e-07
-7.60777e-05
8.03505e-08
-7.5492e-05
-5.69396e-07
-7.44556e-05
-1.23126e-06
-7.29556e-05
-1.90355e-06
-7.09931e-05
-2.58103e-06
-6.85736e-05
-3.25683e-06
-6.5707e-05
-3.9226e-06
-6.24088e-05
-4.56923e-06
-5.87004e-05
-5.18713e-06
-5.46092e-05
-5.76634e-06
-5.0169e-05
-6.29675e-06
-4.54193e-05
-6.76828e-06
-4.04057e-05
-7.17113e-06
-3.51793e-05
-7.49613e-06
-2.9796e-05
-7.73502e-06
-2.43162e-05
-7.88081e-06
-1.88035e-05
-7.92813e-06
-1.33236e-05
-7.87355e-06
-7.94317e-06
-7.71593e-06
-2.72876e-06
-7.45662e-06
2.25576e-06
-7.0998e-06
6.95039e-06
-6.65195e-06
1.1298e-05
-6.11999e-06
1.52508e-05
-5.51837e-06
1.87678e-05
-4.85911e-06
2.18172e-05
-4.15745e-06
2.43774e-05
-3.42958e-06
2.64374e-05
-2.69218e-06
2.79968e-05
-1.96179e-06
2.90658e-05
-1.2543e-06
2.96655e-05
-5.84259e-07
2.98228e-05
3.74444e-08
2.95789e-05
5.95006e-07
2.89743e-05
1.08753e-06
2.80575e-05
1.5065e-06
2.68792e-05
1.84962e-06
2.54913e-05
2.11712e-06
2.39446e-05
2.31164e-06
2.22878e-05
2.43787e-06
2.05659e-05
2.50215e-06
1.88188e-05
2.51195e-06
1.70816e-05
2.47548e-06
1.53832e-05
2.40116e-06
1.3747e-05
2.29733e-06
1.21905e-05
2.17184e-06
1.07262e-05
2.03189e-06
9.36163e-06
1.88385e-06
8.10051e-06
1.73316e-06
6.94295e-06
1.58433e-06
5.88638e-06
1.44085e-06
4.92629e-06
1.30518e-06
4.05704e-06
1.17865e-06
3.27282e-06
1.06129e-06
2.56863e-06
9.51674e-07
1.94143e-06
8.46805e-07
1.39112e-06
7.42125e-07
9.21288e-07
6.31881e-07
5.39251e-07
5.10123e-07
2.54663e-07
3.72864e-07
7.59779e-08
2.22157e-07
1.60361e-09
7.41026e-08
-2.37143e-08
8.60837e-08
-1.09416e-07
3.43913e-07
-4.35936e-07
7.62874e-07
-7.7428e-07
1.31838e-06
-1.06641e-06
1.97587e-06
-1.28535e-06
2.69608e-06
-1.42101e-06
3.43946e-06
-1.47362e-06
4.16946e-06
-1.45041e-06
4.85492e-06
-1.36331e-06
5.47152e-06
-1.22708e-06
6.00239e-06
-1.05762e-06
6.43808e-06
-8.70545e-07
6.77587e-06
-6.79939e-07
7.01863e-06
-4.97437e-07
7.1734e-06
-3.31605e-07
7.24977e-06
-1.87641e-07
7.25826e-06
-6.73562e-08
7.20881e-06
3.04799e-08
7.10944e-06
1.09845e-07
6.96521e-06
1.76766e-07
6.77759e-06
2.38515e-07
6.54417e-06
3.02934e-07
6.25875e-06
3.77677e-07
5.91165e-06
4.69586e-07
5.49034e-06
5.84285e-07
4.98013e-06
7.25974e-07
4.36488e-06
8.9746e-07
3.62759e-06
1.10035e-06
2.75081e-06
1.3354e-06
1.71708e-06
1.60273e-06
5.09031e-07
1.90229e-06
-8.90348e-07
2.23371e-06
-2.49752e-06
2.59649e-06
-4.32816e-06
2.98983e-06
-6.39677e-06
3.41246e-06
-8.7163e-06
3.8624e-06
-1.12975e-05
4.33685e-06
-1.41486e-05
4.83201e-06
-1.72743e-05
5.34304e-06
-2.06756e-05
5.864e-06
-2.4349e-05
6.38797e-06
-2.82864e-05
6.90707e-06
-3.24742e-05
7.41268e-06
-3.6894e-05
7.89559e-06
-4.15217e-05
8.34629e-06
-4.63284e-05
8.75515e-06
-5.12802e-05
9.11279e-06
-5.6339e-05
9.41024e-06
-6.14631e-05
9.63928e-06
-6.6608e-05
9.79258e-06
-7.17268e-05
9.86391e-06
-7.67716e-05
9.84824e-06
-8.16939e-05
9.74179e-06
-8.64454e-05
9.54205e-06
-9.09789e-05
9.24777e-06
-9.52487e-05
8.85886e-06
-9.92114e-05
8.37633e-06
-0.000102826
7.80219e-06
-0.000106054
7.13934e-06
-0.000108861
6.39152e-06
-0.000111215
5.56318e-06
-0.000113088
4.65954e-06
-0.000114455
3.68661e-06
-0.000115295
2.6511e-06
-0.000115592
1.56046e-06
-0.000115338
4.27224e-07
-0.000114503
-7.54374e-07
-0.000113102
-1.97067e-06
-0.000111128
-3.20528e-06
-0.000108583
-4.4485e-06
-0.000105474
-5.68942e-06
-0.000101815
-6.91584e-06
-9.76233e-05
-8.11445e-06
-9.29216e-05
-9.27099e-06
-8.77383e-05
-1.03705e-05
-8.21073e-05
-1.13973e-05
-7.60682e-05
-1.23358e-05
-6.96665e-05
-1.317e-05
-6.2953e-05
-1.38847e-05
-5.59839e-05
-1.44651e-05
-4.88208e-05
-1.48982e-05
-4.15293e-05
-1.51723e-05
-3.41791e-05
-1.52783e-05
-2.68426e-05
-1.52101e-05
-1.9594e-05
-1.49646e-05
-1.2508e-05
-1.45425e-05
-5.65914e-06
-1.39487e-05
8.80615e-07
-1.31917e-05
7.04654e-06
-1.22859e-05
1.27732e-05
-1.1245e-05
1.80052e-05
-1.00911e-05
2.26957e-05
-8.84796e-06
2.68068e-05
-7.54064e-06
3.0311e-05
-6.19641e-06
3.31922e-05
-4.84297e-06
3.54458e-05
-3.50793e-06
3.7079e-05
-2.2174e-06
3.81122e-05
-9.9582e-07
3.85755e-05
1.31706e-07
3.85055e-05
1.15759e-06
3.79518e-05
2.06023e-06
3.69697e-05
2.83173e-06
3.56195e-05
3.46731e-06
3.39644e-05
3.96671e-06
3.20684e-05
4.33385e-06
2.99942e-05
4.57638e-06
2.78011e-05
4.70499e-06
2.5544e-05
4.73267e-06
2.32712e-05
4.67392e-06
2.10246e-05
4.54395e-06
1.88385e-05
4.35794e-06
1.67399e-05
4.13044e-06
1.47489e-05
3.8749e-06
1.28788e-05
3.60327e-06
1.11373e-05
3.32581e-06
9.52731e-06
3.05084e-06
8.0479e-06
2.78459e-06
6.69564e-06
2.53092e-06
5.46585e-06
2.29107e-06
4.35411e-06
2.06341e-06
3.35768e-06
1.84324e-06
2.47685e-06
1.62296e-06
1.71585e-06
1.39289e-06
1.08291e-06
1.14306e-06
5.88995e-07
8.66777e-07
2.44432e-07
5.6672e-07
5.26507e-08
2.65884e-07
2.89363e-08
1.32104e-07
-2.4152e-07
4.91427e-07
-7.95259e-07
1.04451e-06
-1.32736e-06
1.75349e-06
-1.77539e-06
2.57457e-06
-2.10643e-06
3.46079e-06
-2.30723e-06
4.36571e-06
-2.37854e-06
5.24666e-06
-2.33136e-06
6.06719e-06
-2.18384e-06
6.79865e-06
-1.95855e-06
7.42089e-06
-1.67986e-06
7.9221e-06
-1.37175e-06
8.29803e-06
-1.05587e-06
8.55073e-06
-7.50134e-07
8.68684e-06
-4.67715e-07
8.71579e-06
-2.16594e-07
8.64778e-06
6.53662e-10
8.49238e-06
1.85883e-07
8.25642e-06
3.45808e-07
7.94326e-06
4.89924e-07
7.55184e-06
6.29937e-07
7.07637e-06
7.78401e-07
6.50648e-06
9.47564e-07
5.82769e-06
1.14838e-06
5.02209e-06
1.38988e-06
4.06929e-06
1.67878e-06
2.94719e-06
2.01955e-06
1.63286e-06
2.41468e-06
1.03038e-07
2.86523e-06
-1.66536e-06
3.37113e-06
-3.69457e-06
3.93149e-06
-6.00579e-06
4.54493e-06
-8.61864e-06
5.20933e-06
-1.15505e-05
5.92171e-06
-1.4816e-05
6.67791e-06
-1.84259e-05
7.47234e-06
-2.23868e-05
8.29774e-06
-2.66999e-05
9.14508e-06
-3.13604e-05
1.00035e-05
-3.6357e-05
1.08606e-05
-4.16715e-05
1.17025e-05
-4.72785e-05
1.25141e-05
-5.31455e-05
1.32797e-05
-5.92336e-05
1.39836e-05
-6.54976e-05
1.46103e-05
-7.18874e-05
1.5145e-05
-7.83489e-05
1.55742e-05
-8.4825e-05
1.58864e-05
-9.12575e-05
1.60717e-05
-9.75874e-05
1.61225e-05
-0.000103757
1.60336e-05
-0.00010971
1.58016e-05
-0.000115394
1.54257e-05
-0.000120759
1.49068e-05
-0.000125759
1.42474e-05
-0.000130352
1.34517e-05
-0.0001345
1.25249e-05
-0.000138171
1.14734e-05
-0.000141337
1.03044e-05
-0.000143971
9.02553e-06
-0.000146053
7.64522e-06
-0.000147565
6.17232e-06
-0.000148495
4.61629e-06
-0.000148831
2.98735e-06
-0.000148568
1.29753e-06
-0.000147699
-4.41818e-07
-0.000146217
-2.23644e-06
-0.000144133
-4.05539e-06
-0.000141448
-5.88964e-06
-0.000138171
-7.72562e-06
-0.000134312
-9.54839e-06
-0.000129886
-1.13419e-05
-0.000124912
-1.30888e-05
-0.000119412
-1.47707e-05
-0.000113414
-1.63683e-05
-0.00010695
-1.78612e-05
-0.000100057
-1.92287e-05
-9.27774e-05
-2.045e-05
-8.51577e-05
-2.15043e-05
-7.7251e-05
-2.23719e-05
-6.91148e-05
-2.30344e-05
-6.08115e-05
-2.34756e-05
-5.24077e-05
-2.36821e-05
-4.39738e-05
-2.3644e-05
-3.55827e-05
-2.33556e-05
-2.73093e-05
-2.28159e-05
-1.92289e-05
-2.20291e-05
-1.14157e-05
-2.10049e-05
-3.94331e-06
-1.97583e-05
3.12132e-06
-1.83097e-05
9.71474e-06
-1.66846e-05
1.57787e-05
-1.49119e-05
2.12636e-05
-1.30256e-05
2.61293e-05
-1.10621e-05
3.0345e-05
-9.05859e-06
3.38902e-05
-7.0532e-06
3.6756e-05
-5.08319e-06
3.89448e-05
-3.18458e-06
4.04672e-05
-1.39072e-06
4.13572e-05
2.67566e-07
4.16411e-05
1.77632e-06
4.13674e-05
3.10546e-06
4.059e-05
4.24475e-06
3.93695e-05
5.18712e-06
3.77717e-05
5.93169e-06
3.58647e-05
6.48341e-06
3.37171e-05
6.8526e-06
3.13957e-05
7.05406e-06
2.89634e-05
7.10615e-06
2.64778e-05
7.02964e-06
2.39891e-05
6.84662e-06
2.15402e-05
6.57935e-06
1.91657e-05
6.24936e-06
1.68923e-05
5.87661e-06
1.47393e-05
5.4789e-06
1.27188e-05
5.07126e-06
1.08379e-05
4.66554e-06
9.09892e-06
4.26988e-06
7.50173e-06
3.88827e-06
6.04504e-06
3.5201e-06
4.72828e-06
3.15999e-06
3.55317e-06
2.79807e-06
2.52493e-06
2.42113e-06
1.65283e-06
2.01515e-06
9.49802e-07
1.56981e-06
4.30769e-07
1.08575e-06
1.10136e-07
5.86517e-07
1.39073e-07
1.68349e-07
-4.0987e-07
6.11124e-07
-1.23803e-06
1.27497e-06
-1.99121e-06
2.10777e-06
-2.60819e-06
3.0555e-06
-3.05416e-06
4.06358e-06
-3.31531e-06
5.07966e-06
-3.39462e-06
6.05646e-06
-3.30816e-06
6.95405e-06
-3.08143e-06
7.74118e-06
-2.74567e-06
8.3958e-06
-2.33449e-06
8.9048e-06
-1.88074e-06
9.26293e-06
-1.41401e-06
9.47138e-06
-9.58583e-07
9.53587e-06
-5.32205e-07
9.46464e-06
-1.45356e-07
9.26648e-06
1.98805e-07
8.94852e-06
5.03847e-07
8.51501e-06
7.79318e-07
7.96578e-06
1.03916e-06
7.29557e-06
1.30015e-06
6.49378e-06
1.58019e-06
5.54473e-06
1.89662e-06
4.42829e-06
2.26482e-06
3.12077e-06
2.6974e-06
1.59604e-06
3.20351e-06
-1.73534e-07
3.78912e-06
-2.2161e-06
4.45725e-06
-4.55937e-06
5.2085e-06
-7.22999e-06
6.04175e-06
-1.02528e-05
6.95433e-06
-1.36501e-05
7.94219e-06
-1.74405e-05
8.99972e-06
-2.16382e-05
1.01195e-05
-2.62521e-05
1.12918e-05
-3.12843e-05
1.25045e-05
-3.67295e-05
1.3743e-05
-4.25742e-05
1.49897e-05
-4.87958e-05
1.62252e-05
-5.53632e-05
1.7428e-05
-6.22361e-05
1.85754e-05
-6.93664e-05
1.96443e-05
-7.66987e-05
2.06121e-05
-8.41722e-05
2.14571e-05
-9.17217e-05
2.21598e-05
-9.928e-05
2.27032e-05
-0.000106779
2.30734e-05
-0.000114152
2.32598e-05
-0.000121336
2.32553e-05
-0.00012827
2.30562e-05
-0.000134898
2.26618e-05
-0.000141171
2.20744e-05
-0.000147044
2.12986e-05
-0.000152478
2.0341e-05
-0.00015744
1.92096e-05
-0.000161902
1.79137e-05
-0.00016584
1.64633e-05
-0.000169236
1.48691e-05
-0.000172073
1.31418e-05
-0.00017434
1.12926e-05
-0.000176028
9.33257e-06
-0.000177128
7.27299e-06
-0.000177637
5.12523e-06
-0.000177552
2.90158e-06
-0.000176874
6.19977e-07
-0.000175591
-1.72457e-06
-0.000173718
-4.10946e-06
-0.000171255
-6.51882e-06
-0.000168206
-8.93878e-06
-0.000164578
-1.13538e-05
-0.000160379
-1.37467e-05
-0.000155622
-1.60989e-05
-0.000150321
-1.839e-05
-0.000144493
-2.05984e-05
-0.000138161
-2.27009e-05
-0.000131349
-2.4673e-05
-0.000124088
-2.64895e-05
-0.000116414
-2.81245e-05
-0.000108366
-2.9552e-05
-9.9991e-05
-3.07468e-05
-9.13402e-05
-3.16851e-05
-8.24705e-05
-3.23453e-05
-7.34436e-05
-3.27089e-05
-6.43261e-05
-3.27615e-05
-5.51882e-05
-3.24935e-05
-4.61031e-05
-3.19011e-05
-3.71455e-05
-3.09867e-05
-2.83908e-05
-2.97595e-05
-1.99136e-05
-2.82355e-05
-1.17859e-05
-2.64373e-05
-4.07639e-06
-2.43941e-05
3.15271e-06
-2.2141e-05
9.84462e-06
-1.97175e-05
1.5949e-05
-1.71665e-05
2.14244e-05
-1.4534e-05
2.62393e-05
-1.18681e-05
3.03708e-05
-9.21472e-06
3.38067e-05
-6.62041e-06
3.65443e-05
-4.12838e-06
3.85902e-05
-1.77833e-06
3.99733e-05
3.93258e-07
4.07133e-05
2.36547e-06
4.0853e-05
4.10504e-06
4.04413e-05
5.59874e-06
3.95352e-05
6.83781e-06
3.81977e-05
7.82093e-06
3.64962e-05
8.55409e-06
3.45003e-05
9.05001e-06
3.22791e-05
9.32726e-06
2.98997e-05
9.40913e-06
2.74241e-05
9.32222e-06
2.49084e-05
9.09502e-06
2.24013e-05
8.75647e-06
1.99433e-05
8.33464e-06
1.75666e-05
7.85556e-06
1.52957e-05
7.34215e-06
1.31479e-05
6.81337e-06
1.11345e-05
6.28325e-06
9.26261e-06
5.76017e-06
7.53657e-06
5.24614e-06
5.96004e-06
4.73653e-06
4.53778e-06
4.22033e-06
3.27738e-06
3.68153e-06
2.19048e-06
3.10205e-06
1.2937e-06
2.46659e-06
6.09119e-07
1.77034e-06
1.65209e-07
1.03043e-06
3.04281e-07
1.96225e-07
-6.06095e-07
7.0554e-07
-1.74735e-06
1.45805e-06
-2.74372e-06
2.38773e-06
-3.53787e-06
3.42985e-06
-4.09628e-06
4.52189e-06
-4.40735e-06
5.60579e-06
-4.47852e-06
6.63039e-06
-4.33277e-06
7.55329e-06
-4.00433e-06
8.34184e-06
-3.53422e-06
8.97327e-06
-2.96592e-06
9.43404e-06
-2.34152e-06
9.71854e-06
-1.6985e-06
9.82726e-06
-1.0673e-06
9.76473e-06
-4.69681e-07
9.53736e-06
8.20136e-08
9.15122e-06
5.84944e-07
8.61005e-06
1.04502e-06
7.91371e-06
1.47566e-06
7.05694e-06
1.89593e-06
6.02875e-06
2.32833e-06
4.81243e-06
2.79651e-06
3.38593e-06
3.32312e-06
1.723e-06
3.92775e-06
-2.05995e-07
4.6264e-06
-2.43255e-06
5.43007e-06
-4.98872e-06
6.34529e-06
-7.90604e-06
7.37457e-06
-1.12145e-05
8.51691e-06
-1.49411e-05
9.76842e-06
-1.91094e-05
1.11226e-05
-2.37375e-05
1.25703e-05
-2.88374e-05
1.40996e-05
-3.44132e-05
1.56954e-05
-4.04606e-05
1.73391e-05
-4.69647e-05
1.90087e-05
-5.39007e-05
2.06789e-05
-6.12324e-05
2.23214e-05
-6.89135e-05
2.39063e-05
-7.68878e-05
2.54023e-05
-8.5091e-05
2.67786e-05
-9.34525e-05
2.80059e-05
-0.000101898
2.90574e-05
-0.00011035
2.99098e-05
-0.000118735
3.05442e-05
-0.000126978
3.09464e-05
-0.000135012
3.11069e-05
-0.000142773
3.10213e-05
-0.000150207
3.0689e-05
-0.000157264
3.01135e-05
-0.000163904
2.93014e-05
-0.000170091
2.82619e-05
-0.000175798
2.7006e-05
-0.000181003
2.5546e-05
-0.000185689
2.3895e-05
-0.000189842
2.20663e-05
-0.000193452
2.00735e-05
-0.000196513
1.79299e-05
-0.000199019
1.56483e-05
-0.000200968
1.32415e-05
-0.000202357
1.07216e-05
-0.000203185
8.10066e-06
-0.00020345
5.3904e-06
-0.000203152
2.60324e-06
-0.000202292
-2.39964e-07
-0.000200863
-3.15324e-06
-0.000198873
-6.09922e-06
-0.000196322
-9.07036e-06
-0.000193209
-1.20515e-05
-0.000189537
-1.50254e-05
-0.000185311
-1.79735e-05
-0.000180534
-2.08753e-05
-0.000175216
-2.37082e-05
-0.000169367
-2.64478e-05
-0.000163
-2.90674e-05
-0.000156134
-3.15388e-05
-0.000148792
-3.38321e-05
-0.000141
-3.59164e-05
-0.000132791
-3.77604e-05
-0.000124205
-3.93329e-05
-0.000115287
-4.06039e-05
-0.000106086
-4.15456e-05
-9.66616e-05
-4.21336e-05
-8.70754e-05
-4.23477e-05
-7.73957e-05
-4.21733e-05
-6.76944e-05
-4.16024e-05
-5.80467e-05
-4.06344e-05
-4.85295e-05
-3.92768e-05
-3.92195e-05
-3.75454e-05
-3.01925e-05
-3.54643e-05
-2.1521e-05
-3.30656e-05
-1.32734e-05
-3.03886e-05
-5.51239e-06
-2.74785e-05
1.70666e-06
-2.43856e-05
8.33664e-06
-2.1164e-05
1.43366e-05
-1.7868e-05
1.96741e-05
-1.45523e-05
2.43282e-05
-1.12745e-05
2.82851e-05
-8.08527e-06
3.15403e-05
-5.03355e-06
3.40975e-05
-2.16395e-06
3.59797e-05
4.83292e-07
3.7203e-05
2.88178e-06
3.78038e-05
4.99791e-06
3.78254e-05
6.81627e-06
3.73191e-05
8.32724e-06
3.63435e-05
9.52968e-06
3.49626e-05
1.04308e-05
3.32441e-05
1.10458e-05
3.12565e-05
1.13967e-05
2.90674e-05
1.15113e-05
2.67411e-05
1.14213e-05
2.43366e-05
1.1161e-05
2.1906e-05
1.07652e-05
1.94941e-05
1.02675e-05
1.71374e-05
9.69883e-06
1.48649e-05
9.08589e-06
1.26984e-05
8.44971e-06
1.06542e-05
7.8044e-06
8.74419e-06
7.15612e-06
6.9783e-06
6.50242e-06
5.36619e-06
5.83243e-06
3.91955e-06
5.12817e-06
2.65416e-06
4.36744e-06
1.59201e-06
3.52873e-06
7.63845e-07
2.59851e-06
2.12648e-07
1.58162e-06
5.16929e-07
2.18013e-07
-8.24108e-07
7.79866e-07
-2.3092e-06
1.6015e-06
-3.56535e-06
2.60368e-06
-4.54005e-06
3.71088e-06
-5.20348e-06
4.85239e-06
-5.54886e-06
5.96454e-06
-5.59067e-06
6.99271e-06
-5.36094e-06
7.89277e-06
-4.90439e-06
8.63156e-06
-4.27301e-06
9.18653e-06
-3.52088e-06
9.54451e-06
-2.6995e-06
9.7e-06
-1.85399e-06
9.65299e-06
-1.02028e-06
9.40661e-06
-2.23302e-07
8.96474e-06
5.23877e-07
8.32986e-06
1.21983e-06
7.50095e-06
1.87392e-06
6.47212e-06
2.50449e-06
5.23158e-06
3.13648e-06
3.76132e-06
3.79858e-06
2.03753e-06
4.52031e-06
3.13535e-08
5.32929e-06
-2.29007e-06
6.24917e-06
-4.96126e-06
7.29759e-06
-8.01766e-06
8.48647e-06
-1.14938e-05
9.82141e-06
-1.54217e-05
1.13025e-05
-1.98295e-05
1.29248e-05
-2.47402e-05
1.46791e-05
-3.01697e-05
1.65521e-05
-3.61256e-05
1.85262e-05
-4.26055e-05
2.05795e-05
-4.95957e-05
2.26855e-05
-5.70701e-05
2.48136e-05
-6.49903e-05
2.69289e-05
-7.33052e-05
2.89938e-05
-8.19526e-05
3.09688e-05
-9.08606e-05
3.28142e-05
-9.99502e-05
3.44919e-05
-0.000109138
3.59667e-05
-0.00011834
3.7208e-05
-0.000127474
3.81906e-05
-0.00013646
3.88956e-05
-0.000145226
3.93103e-05
-0.000153708
3.94285e-05
-0.00016185
3.92493e-05
-0.000169606
3.8777e-05
-0.000176937
3.802e-05
-0.000183813
3.69897e-05
-0.000190212
3.57e-05
-0.000196116
3.41661e-05
-0.000201514
3.24041e-05
-0.000206399
3.04305e-05
-0.000210765
2.82613e-05
-0.000214611
2.59122e-05
-0.000217936
2.33982e-05
-0.000220739
2.07334e-05
-0.000223022
1.79312e-05
-0.000224785
1.50042e-05
-0.000226027
1.19641e-05
-0.000226749
8.82252e-06
-0.000226949
5.59073e-06
-0.000226627
2.28132e-06
-0.000225774
-1.09352e-06
-0.000224398
-4.52919e-06
-0.000222491
-8.00626e-06
-0.00022005
-1.15114e-05
-0.000217072
-1.50296e-05
-0.000213554
-1.85434e-05
-0.000209494
-2.20334e-05
-0.000204891
-2.54778e-05
-0.000199747
-2.88523e-05
-0.000194065
-3.21301e-05
-0.00018785
-3.52819e-05
-0.000181114
-3.82756e-05
-0.000173869
-4.10772e-05
-0.000166134
-4.36508e-05
-0.000157935
-4.59594e-05
-0.000149302
-4.79656e-05
-0.000140274
-4.96328e-05
-0.000130893
-5.0926e-05
-0.000121213
-5.18135e-05
-0.000111293
-5.22683e-05
-0.000101197
-5.22692e-05
-9.09969e-05
-5.18022e-05
-8.07691e-05
-5.08622e-05
-7.05926e-05
-4.94533e-05
-6.05485e-05
-4.75896e-05
-5.07173e-05
-4.52955e-05
-4.11777e-05
-4.26052e-05
-3.20043e-05
-3.95619e-05
-2.32663e-05
-3.62165e-05
-1.50258e-05
-3.26261e-05
-7.33774e-06
-2.8852e-05
-2.48043e-07
-2.49577e-05
6.20925e-06
-2.10095e-05
1.20023e-05
-1.70675e-05
1.71115e-05
-1.31945e-05
2.15254e-05
-9.44746e-06
2.52402e-05
-5.87872e-06
2.82589e-05
-2.53545e-06
3.06e-05
5.40658e-07
3.22785e-05
3.31939e-06
3.33257e-05
5.76912e-06
3.37795e-05
7.87344e-06
3.36862e-05
9.623e-06
3.30993e-05
1.10177e-05
3.20787e-05
1.20665e-05
3.06883e-05
1.27871e-05
2.89945e-05
1.3205e-05
2.70638e-05
1.3352e-05
2.49603e-05
1.32646e-05
2.27438e-05
1.29817e-05
2.04685e-05
1.25428e-05
1.81815e-05
1.19858e-05
1.59226e-05
1.13448e-05
1.37244e-05
1.0648e-05
1.16128e-05
9.91598e-06
9.60881e-06
9.1601e-06
7.72993e-06
8.3813e-06
5.99239e-06
7.56997e-06
4.41367e-06
6.70689e-06
3.01525e-06
5.76587e-06
1.82581e-06
4.71818e-06
8.85162e-07
3.53915e-06
2.49593e-07
2.21719e-06
7.66522e-07
2.35678e-07
-1.05979e-06
8.38962e-07
-2.91248e-06
1.7127e-06
-4.43909e-06
2.76499e-06
-5.59234e-06
3.90957e-06
-6.34806e-06
5.06763e-06
-6.70692e-06
6.17008e-06
-6.69311e-06
7.1593e-06
-6.35017e-06
7.99015e-06
-5.73523e-06
8.62976e-06
-4.91263e-06
9.05655e-06
-3.94768e-06
9.25836e-06
-2.90132e-06
9.23015e-06
-1.82578e-06
8.97142e-06
-7.61547e-07
8.48352e-06
2.64601e-07
7.76716e-06
1.24024e-06
6.82015e-06
2.16684e-06
5.63553e-06
3.05854e-06
4.20038e-06
3.93964e-06
2.49521e-06
4.84165e-06
4.94139e-07
5.79965e-06
-1.83429e-06
6.84873e-06
-4.5256e-06
8.02061e-06
-7.61758e-06
9.34115e-06
-1.11486e-05
1.08286e-05
-1.51554e-05
1.24933e-05
-1.96713e-05
1.43373e-05
-2.47242e-05
1.63554e-05
-3.0335e-05
1.85356e-05
-3.65159e-05
2.086e-05
-4.32681e-05
2.33043e-05
-5.05808e-05
2.58388e-05
-5.84292e-05
2.84279e-05
-6.67745e-05
3.10309e-05
-7.55636e-05
3.36027e-05
-8.47301e-05
3.60954e-05
-9.41965e-05
3.84602e-05
-0.000103877
4.06491e-05
-0.00011368
4.26176e-05
-0.000123514
4.4326e-05
-0.000133289
4.57416e-05
-0.00014292
4.68391e-05
-0.000152331
4.76012e-05
-0.000161454
4.80186e-05
-0.000170233
4.80892e-05
-0.000178621
4.7817e-05
-0.000186583
4.72115e-05
-0.000194092
4.62861e-05
-0.000201129
4.50569e-05
-0.000207682
4.35421e-05
-0.000213743
4.17608e-05
-0.000219309
3.97322e-05
-0.00022438
3.74754e-05
-0.000228958
3.50085e-05
-0.000233046
3.23489e-05
-0.000236646
2.95127e-05
-0.000239763
2.65148e-05
-0.000242398
2.3369e-05
-0.000244555
2.00878e-05
-0.000246234
1.66831e-05
-0.000247435
1.31656e-05
-0.000248159
9.54577e-06
-0.000248402
5.83379e-06
-0.000248161
2.04048e-06
-0.000247431
-1.82358e-06
-0.000246211
-5.7488e-06
-0.000244495
-9.72251e-06
-0.000242275
-1.37313e-05
-0.000239545
-1.776e-05
-0.000236297
-2.17913e-05
-0.000232524
-2.58058e-05
-0.000228221
-2.9781e-05
-0.000223382
-3.36919e-05
-0.000218002
-3.751e-05
-0.00021208
-4.12037e-05
-0.000205617
-4.47382e-05
-0.000198619
-4.80758e-05
-0.000191094
-5.11759e-05
-0.000183057
-5.39962e-05
-0.000174529
-5.6493e-05
-0.00016554
-5.86224e-05
-0.000156124
-6.03419e-05
-0.000146326
-6.16114e-05
-0.000136199
-6.23951e-05
-0.000125805
-6.26635e-05
-0.000115212
-6.23949e-05
-0.000104498
-6.15768e-05
-9.37432e-05
-6.02077e-05
-8.30346e-05
-5.82981e-05
-7.24597e-05
-5.58704e-05
-6.21055e-05
-5.29595e-05
-5.2056e-05
-4.96114e-05
-4.23902e-05
-4.58824e-05
-3.31797e-05
-4.18366e-05
-2.44876e-05
-3.75442e-05
-1.63667e-05
-3.30786e-05
-8.86168e-06
-2.85145e-05
-2.00476e-06
-2.39244e-05
4.1796e-06
-1.93788e-05
9.67544e-06
-1.49433e-05
1.44748e-05
-1.06781e-05
1.85767e-05
-6.63732e-06
2.19862e-05
-2.86886e-06
2.47194e-05
5.86199e-07
2.67923e-05
3.69617e-06
2.82329e-05
6.43291e-06
2.90753e-05
8.78051e-06
2.93618e-05
1.07312e-05
2.91415e-05
1.22868e-05
2.84698e-05
1.34588e-05
2.74071e-05
1.42678e-05
2.60165e-05
1.47426e-05
2.43624e-05
1.49188e-05
2.25073e-05
1.48367e-05
2.05109e-05
1.45392e-05
1.84277e-05
1.4069e-05
1.63062e-05
1.34663e-05
1.41882e-05
1.27659e-05
1.21094e-05
1.19948e-05
1.00997e-05
1.11698e-05
8.18506e-06
1.02959e-05
6.38936e-06
9.36567e-06
4.73711e-06
8.35914e-06
3.25663e-06
7.24635e-06
1.98391e-06
5.99089e-06
9.67457e-07
4.55561e-06
2.74509e-07
2.91014e-06
1.04103e-06
2.50539e-07
-1.31032e-06
8.86178e-07
-3.54812e-06
1.79669e-06
-5.34959e-06
2.8777e-06
-6.67335e-06
4.03244e-06
-7.5028e-06
5.17431e-06
-7.84879e-06
6.22928e-06
-7.74807e-06
7.13743e-06
-7.25832e-06
7.85338e-06
-6.45117e-06
8.34535e-06
-5.40459e-06
8.59337e-06
-4.1957e-06
8.58673e-06
-2.89467e-06
8.32096e-06
-1.56001e-06
7.79486e-06
-2.35451e-07
7.0074e-06
1.05206e-06
5.95531e-06
2.29233e-06
4.63064e-06
3.49151e-06
3.01935e-06
4.66983e-06
1.1005e-06
5.8585e-06
-1.15388e-06
7.09602e-06
-3.77774e-06
8.42351e-06
-6.80953e-06
9.88053e-06
-1.02902e-05
1.15013e-05
-1.42606e-05
1.33116e-05
-1.87595e-05
1.53275e-05
-2.38206e-05
1.75544e-05
-2.94708e-05
1.99875e-05
-3.57281e-05
2.26126e-05
-4.2599e-05
2.54065e-05
-5.00772e-05
2.83382e-05
-5.81418e-05
3.13689e-05
-6.67561e-05
3.44531e-05
-7.58675e-05
3.75393e-05
-8.54081e-05
4.05714e-05
-9.52968e-05
4.34914e-05
-0.000105442
4.6241e-05
-0.000115747
4.87649e-05
-0.000126111
5.10133e-05
-0.000136437
5.29436e-05
-0.000146634
5.45223e-05
-0.000156618
5.57257e-05
-0.000166318
5.65396e-05
-0.000175676
5.69587e-05
-0.000184643
5.69858e-05
-0.000193184
5.66303e-05
-0.000201273
5.59065e-05
-0.000208895
5.48328e-05
-0.000216038
5.34294e-05
-0.000222699
5.17184e-05
-0.000228879
4.97219e-05
-0.00023458
4.74618e-05
-0.000239807
4.49594e-05
-0.000244566
4.22346e-05
-0.000248864
3.93059e-05
-0.000252706
3.61907e-05
-0.000256097
3.29044e-05
-0.000259044
2.94613e-05
-0.000261549
2.58743e-05
-0.000263616
2.21549e-05
-0.000265247
1.83138e-05
-0.000266442
1.43606e-05
-0.000267201
1.03045e-05
-0.000267521
6.15419e-06
-0.000267398
1.91762e-06
-0.00026683
-2.39206e-06
-0.000265812
-6.76684e-06
-0.000264336
-1.1198e-05
-0.000262395
-1.56727e-05
-0.000259978
-2.01766e-05
-0.000257076
-2.46934e-05
-0.000253678
-2.92042e-05
-0.000249771
-3.36872e-05
-0.000245346
-3.81172e-05
-0.000240391
-4.24653e-05
-0.000234896
-4.66989e-05
-0.000228852
-5.07813e-05
-0.000222256
-5.46721e-05
-0.000215105
-5.83272e-05
-0.000207402
-6.16993e-05
-0.000199156
-6.4739e-05
-0.000190383
-6.73952e-05
-0.000181108
-6.96172e-05
-0.000171363
-7.13558e-05
-0.000161193
-7.25652e-05
-0.000150651
-7.32055e-05
-0.000139802
-7.32445e-05
-0.000128719
-7.26599e-05
-0.000117485
-7.14413e-05
-0.000106191
-6.95919e-05
-9.49322e-05
-6.71294e-05
-8.38055e-05
-6.40862e-05
-7.29076e-05
-6.05093e-05
-6.23313e-05
-5.64587e-05
-5.21625e-05
-5.20054e-05
-4.24777e-05
-4.72289e-05
-3.33426e-05
-4.22137e-05
-2.48107e-05
-3.70464e-05
-1.6923e-05
-3.18122e-05
-9.7088e-06
-2.6593e-05
-3.18715e-06
-2.1465e-05
2.63213e-06
-1.64973e-05
7.74672e-06
-1.17519e-05
1.21606e-05
-7.28276e-06
1.58832e-05
-3.13639e-06
1.89309e-05
6.48507e-07
2.13225e-05
4.04134e-06
2.30845e-05
7.01844e-06
2.42496e-05
9.56607e-06
2.48571e-05
1.16794e-05
2.49528e-05
1.33631e-05
2.45885e-05
1.4632e-05
2.38212e-05
1.55099e-05
2.27109e-05
1.60291e-05
2.13191e-05
1.62285e-05
1.97066e-05
1.61517e-05
1.79317e-05
1.58439e-05
1.60487e-05
1.53494e-05
1.41066e-05
1.47081e-05
1.2149e-05
1.39524e-05
1.02144e-05
1.31044e-05
8.33694e-06
1.21734e-05
6.54867e-06
1.11539e-05
4.88168e-06
1.00261e-05
3.37166e-06
8.75637e-06
2.06193e-06
7.30062e-06
1.00858e-06
5.60896e-06
2.86849e-07
3.63187e-06
1.32788e-06
2.63234e-07
-1.57356e-06
9.23048e-07
-4.20794e-06
1.85548e-06
-6.28203e-06
2.94369e-06
-7.76156e-06
4.08074e-06
-8.63985e-06
5.17284e-06
-8.94089e-06
6.14183e-06
-8.71706e-06
6.92644e-06
-8.04294e-06
7.48194e-06
-7.00667e-06
7.77842e-06
-5.70108e-06
7.79809e-06
-4.21537e-06
7.53184e-06
-2.62842e-06
6.9757e-06
-1.00387e-06
6.12713e-06
6.13122e-07
4.9821e-06
2.19709e-06
3.53219e-06
3.74224e-06
1.76275e-06
5.26095e-06
-3.48304e-07
6.78088e-06
-2.83067e-06
8.34086e-06
-5.72055e-06
9.98591e-06
-9.05928e-06
1.17622e-05
-1.28907e-05
1.3712e-05
-1.72584e-05
1.5869e-05
-2.22027e-05
1.82559e-05
-2.77577e-05
2.08825e-05
-3.39487e-05
2.37453e-05
-4.07895e-05
2.68284e-05
-4.82807e-05
3.01038e-05
-5.64073e-05
3.35331e-05