/*--------------------------------*- C++ -*----------------------------------*\
| =========                 |                                                 |
| \\      /  F ield         | OpenFOAM: The Open Source CFD Toolbox           |
|  \\    /   O peration     | Version:  2406                                  |
|   \\  /    A nd           | Website:  www.openfoam.com                      |
|    \\/     M anipulation  |                                                 |
\*---------------------------------------------------------------------------*/
FoamFile
{
    version     2.0;
    format      ascii;
    arch        "LSB;label=32;scalar=64";
    class       volScalarField;
    location    "28.3";
    object      p;
}
// * * * * * * * * * * * * * * * * * * * * * * * * * * * * * * * * * * * * * //

dimensions      [0 2 -2 0 0 0 0];

internalField   nonuniform List<scalar> 
14400
(
0.0391849
0.0391947
0.0392017
0.0392098
0.0392094
0.0392043
0.0391899
0.0391693
0.0391407
0.0391066
0.0390666
0.0390225
0.0389745
0.0389237
0.0388702
0.0388144
0.0387561
0.0386952
0.038631
0.0385631
0.0384907
0.0384129
0.038329
0.038238
0.0381391
0.0380316
0.0379147
0.0377876
0.0376498
0.0375007
0.0373398
0.0371665
0.0369806
0.0367818
0.0365702
0.0363459
0.0361095
0.0358616
0.0356035
0.0353366
0.0350631
0.0347852
0.034506
0.0342289
0.0339578
0.033697
0.0334514
0.0332261
0.0330264
0.0328579
0.0327263
0.0326369
0.0325952
0.032606
0.0326737
0.0328017
0.0329929
0.0332488
0.0335699
0.0339554
0.0344029
0.0349083
0.0354664
0.0360698
0.0367099
0.0373764
0.0380577
0.0387407
0.0394119
0.0400568
0.0406607
0.0412093
0.0416888
0.0420867
0.0423923
0.0425969
0.0426943
0.0426815
0.0425583
0.0423278
0.0419963
0.0415727
0.0410685
0.0404974
0.039874
0.0392141
0.0385334
0.0378468
0.0371685
0.0365108
0.0358842
0.035297
0.0347554
0.0342634
0.033823
0.0334343
0.0330961
0.0328059
0.0325603
0.0323553
0.0321867
0.0320501
0.0319412
0.031856
0.0317906
0.0317418
0.0317063
0.0316819
0.0316659
0.0316573
0.0316537
0.0316553
0.0316599
0.031669
0.0316798
0.0316953
0.0317105
0.031729
0.0317422
0.0317522
0.0391751
0.0391849
0.0391875
0.0391923
0.0391884
0.0391818
0.0391666
0.0391468
0.0391196
0.0390877
0.0390503
0.0390092
0.0389641
0.0389162
0.0388654
0.038812
0.038756
0.0386971
0.0386349
0.0385689
0.0384984
0.0384228
0.0383413
0.0382532
0.0381576
0.038054
0.0379415
0.0378195
0.0376874
0.0375447
0.0373907
0.037225
0.0370473
0.0368573
0.0366549
0.0364403
0.0362138
0.0359761
0.0357281
0.0354713
0.0352074
0.0349388
0.034668
0.0343983
0.0341334
0.0338775
0.0336351
0.0334112
0.033211
0.03304
0.0329036
0.0328074
0.0327564
0.0327557
0.0328097
0.0329218
0.0330951
0.0333312
0.0336307
0.0339931
0.0344161
0.0348961
0.0354278
0.0360045
0.0366177
0.0372575
0.0379125
0.0385703
0.0392174
0.0398398
0.0404231
0.0409534
0.0414171
0.041802
0.0420976
0.0422953
0.0423892
0.0423763
0.0422564
0.0420327
0.0417114
0.0413013
0.0408137
0.0402619
0.0396604
0.0390244
0.0383692
0.0377092
0.037058
0.0364273
0.0358269
0.0352648
0.0347465
0.0342756
0.0338537
0.0334809
0.0331557
0.0328757
0.0326375
0.0324374
0.0322714
0.0321355
0.0320255
0.0319379
0.031869
0.031816
0.0317759
0.0317466
0.0317257
0.0317122
0.0317039
0.0317009
0.0317008
0.0317053
0.0317109
0.0317213
0.0317303
0.0317438
0.0317518
0.0317621
0.0391679
0.0391821
0.0391849
0.0391908
0.0391865
0.03918
0.0391645
0.0391446
0.0391174
0.0390857
0.0390486
0.039008
0.0389636
0.0389165
0.0388667
0.0388146
0.0387598
0.0387024
0.0386417
0.0385774
0.0385088
0.0384351
0.0383556
0.0382697
0.0381765
0.0380753
0.0379655
0.0378464
0.0377174
0.0375777
0.037427
0.0372646
0.0370901
0.0369032
0.0367037
0.0364915
0.0362671
0.0360308
0.0357835
0.0355265
0.0352614
0.0349904
0.0347161
0.0344417
0.0341708
0.0339077
0.0336569
0.0334235
0.0332129
0.0330306
0.0328824
0.0327739
0.0327105
0.0326974
0.0327391
0.0328395
0.0330017
0.0332275
0.0335178
0.0338719
0.0342879
0.0347622
0.0352897
0.0358634
0.0364751
0.0371147
0.037771
0.0384312
0.0390819
0.0397088
0.0402975
0.0408336
0.0413035
0.0416946
0.041996
0.0421991
0.0422975
0.042288
0.0421705
0.041948
0.0416266
0.0412153
0.0407258
0.0401716
0.0395675
0.0389291
0.0382721
0.0376113
0.0369604
0.0363315
0.0357345
0.0351772
0.0346651
0.0342017
0.0337883
0.0334244
0.0331085
0.0328377
0.0326083
0.0324165
0.0322579
0.0321284
0.0320239
0.0319408
0.0318755
0.0318252
0.031787
0.031759
0.0317387
0.0317254
0.0317168
0.0317133
0.0317122
0.0317159
0.0317202
0.0317298
0.0317375
0.031752
0.0317597
0.0317756
0.0391592
0.039177
0.0391788
0.0391848
0.0391791
0.039172
0.0391557
0.0391357
0.0391086
0.0390777
0.0390416
0.0390024
0.0389597
0.0389146
0.038867
0.0388172
0.038765
0.0387102
0.0386524
0.038591
0.0385254
0.0384551
0.0383791
0.038297
0.0382079
0.0381111
0.0380061
0.037892
0.0377683
0.0376343
0.0374892
0.0373325
0.0371636
0.0369819
0.0367872
0.0365791
0.0363576
0.0361232
0.0358763
0.035618
0.0353498
0.0350737
0.0347921
0.0345083
0.0342259
0.0339492
0.0336829
0.0334323
0.033203
0.0330008
0.0328317
0.0327016
0.0326163
0.0325811
0.0326009
0.0326797
0.0328207
0.033026
0.0332966
0.033632
0.0340304
0.0344884
0.0350008
0.0355611
0.036161
0.0367907
0.0374389
0.0380931
0.03874
0.0393652
0.0399543
0.0404928
0.040967
0.0413641
0.041673
0.0418846
0.0419925
0.041993
0.0418856
0.0416733
0.0413619
0.0409604
0.0404805
0.0399356
0.0393409
0.0387122
0.0380651
0.037415
0.0367757
0.0361592
0.0355758
0.0350331
0.0345365
0.0340892
0.0336922
0.033345
0.0330453
0.03279
0.0325753
0.0323967
0.0322498
0.0321304
0.0320343
0.0319579
0.0318977
0.0318511
0.0318152
0.0317885
0.0317685
0.0317549
0.0317451
0.0317401
0.0317368
0.0317383
0.0317396
0.031747
0.0317515
0.0317657
0.0317718
0.0317936
0.0391579
0.0391796
0.039182
0.0391894
0.0391833
0.0391762
0.0391591
0.0391385
0.0391107
0.0390793
0.0390429
0.0390039
0.0389618
0.0389177
0.0388715
0.0388235
0.0387734
0.0387211
0.0386659
0.0386074
0.0385449
0.0384777
0.038405
0.0383262
0.0382404
0.0381471
0.0380453
0.0379344
0.0378136
0.037682
0.0375389
0.0373833
0.0372144
0.0370315
0.0368338
0.0366209
0.0363926
0.0361487
0.0358899
0.035617
0.0353315
0.0350354
0.0347314
0.0344229
0.034114
0.0338093
0.033514
0.0332339
0.0329751
0.0327438
0.0325465
0.0323894
0.0322786
0.0322196
0.0322174
0.0322763
0.0323994
0.032589
0.032846
0.03317
0.0335591
0.0340099
0.0345175
0.0350753
0.035675
0.0363069
0.0369599
0.0376215
0.0382781
0.0389157
0.0395194
0.0400748
0.0405676
0.0409847
0.0413145
0.0415474
0.0416763
0.0416971
0.0416088
0.0414136
0.0411173
0.0407285
0.0402587
0.0397217
0.0391326
0.0385078
0.0378635
0.0372154
0.0365779
0.0359638
0.0353836
0.0348454
0.034355
0.0339156
0.0335284
0.0331925
0.0329056
0.0326642
0.0324639
0.0323
0.0321677
0.0320621
0.0319789
0.0319142
0.0318643
0.0318266
0.0317982
0.0317776
0.0317624
0.0317525
0.0317453
0.0317422
0.0317398
0.031742
0.0317431
0.0317511
0.0317551
0.0317716
0.0317781
0.0318066
0.0391601
0.0391843
0.0391864
0.0391943
0.0391871
0.0391793
0.0391608
0.0391394
0.0391107
0.0390789
0.0390425
0.039004
0.0389629
0.0389203
0.0388761
0.0388306
0.0387833
0.0387341
0.0386823
0.0386274
0.0385687
0.0385053
0.0384365
0.0383615
0.0382796
0.0381899
0.0380915
0.0379836
0.0378651
0.0377351
0.0375922
0.0374354
0.0372634
0.0370751
0.0368694
0.0366455
0.0364029
0.0361414
0.0358614
0.0355638
0.0352502
0.034923
0.0345853
0.0342409
0.0338945
0.0335513
0.0332172
0.0328983
0.0326013
0.032333
0.0320999
0.0319088
0.0317656
0.0316761
0.0316454
0.0316775
0.0317758
0.0319425
0.0321784
0.0324832
0.0328551
0.0332909
0.0337858
0.0343334
0.0349258
0.0355535
0.0362057
0.0368702
0.0375337
0.0381822
0.0388011
0.0393756
0.0398915
0.0403352
0.0406946
0.0409596
0.0411222
0.0411775
0.0411237
0.0409623
0.0406982
0.0403394
0.0398972
0.0393848
0.0388176
0.0382118
0.037584
0.0369503
0.0363256
0.0357231
0.0351539
0.0346267
0.0341474
0.0337198
0.0333451
0.0330227
0.0327501
0.0325237
0.0323389
0.0321908
0.0320739
0.0319834
0.0319143
0.0318627
0.0318245
0.0317971
0.0317773
0.031764
0.0317546
0.0317491
0.0317451
0.0317443
0.0317431
0.0317461
0.0317468
0.031755
0.0317581
0.0317759
0.0317822
0.0318159
0.0391705
0.0391966
0.0391988
0.039207
0.039199
0.0391903
0.0391703
0.0391475
0.0391173
0.0390845
0.0390474
0.0390088
0.0389681
0.0389266
0.0388839
0.0388406
0.0387959
0.0387497
0.0387011
0.0386496
0.0385942
0.0385342
0.0384686
0.0383965
0.0383169
0.0382289
0.0381314
0.0380231
0.0379027
0.0377687
0.0376196
0.0374536
0.0372691
0.0370646
0.0368386
0.0365901
0.0363183
0.0360233
0.0357055
0.0353663
0.0350079
0.0346331
0.034246
0.0338511
0.0334539
0.0330603
0.0326768
0.0323102
0.0319676
0.031656
0.0313822
0.031153
0.0309744
0.0308522
0.0307912
0.0307955
0.0308683
0.0310118
0.0312267
0.0315128
0.0318685
0.0322905
0.0327745
0.0333143
0.0339024
0.0345297
0.0351857
0.0358588
0.0365359
0.0372032
0.0378464
0.0384506
0.0390015
0.039485
0.0398885
0.040201
0.0404136
0.0405203
0.0405181
0.0404073
0.0401917
0.0398784
0.0394778
0.0390026
0.0384679
0.03789
0.0372855
0.036671
0.036062
0.0354723
0.0349138
0.0343957
0.0339249
0.0335056
0.0331395
0.0328265
0.0325643
0.0323494
0.0321772
0.0320425
0.0319398
0.0318638
0.0318093
0.0317717
0.031747
0.0317319
0.0317234
0.03172
0.0317191
0.0317208
0.0317225
0.0317264
0.0317287
0.0317345
0.0317368
0.0317469
0.0317506
0.0317705
0.0317773
0.0318152
0.0391864
0.0392134
0.0392151
0.0392229
0.0392133
0.039203
0.0391811
0.0391566
0.0391247
0.0390907
0.039053
0.0390143
0.0389742
0.038934
0.0388932
0.0388522
0.0388103
0.0387672
0.038722
0.0386738
0.0386216
0.0385646
0.0385015
0.0384312
0.0383526
0.0382643
0.0381647
0.0380524
0.0379253
0.0377815
0.0376189
0.0374352
0.0372283
0.0369963
0.0367376
0.0364509
0.0361359
0.0357928
0.0354227
0.0350277
0.0346107
0.0341757
0.0337275
0.0332715
0.0328139
0.0323614
0.031921
0.0314999
0.0311054
0.0307445
0.0304243
0.0301512
0.0299314
0.0297703
0.0296727
0.0296426
0.029683
0.029796
0.0299825
0.0302423
0.030574
0.0309747
0.0314402
0.0319651
0.0325423
0.0331634
0.0338185
0.0344965
0.0351852
0.0358712
0.0365405
0.0371785
0.0377709
0.0383033
0.0387626
0.0391369
0.0394164
0.0395935
0.0396638
0.0396261
0.0394825
0.0392386
0.0389035
0.0384889
0.038009
0.0374797
0.0369175
0.0363393
0.0357608
0.0351966
0.0346591
0.0341585
0.0337023
0.0332955
0.0329406
0.032638
0.032386
0.0321814
0.03202
0.0318966
0.0318058
0.0317422
0.0317002
0.0316752
0.0316627
0.0316594
0.0316617
0.0316681
0.0316758
0.0316851
0.0316931
0.0317022
0.0317083
0.0317172
0.0317215
0.0317332
0.0317375
0.0317587
0.0317657
0.031806
0.0392107
0.0392381
0.0392391
0.0392459
0.0392346
0.0392224
0.0391982
0.0391715
0.0391376
0.039102
0.0390632
0.0390242
0.0389843
0.038945
0.0389058
0.0388668
0.0388274
0.0387869
0.0387442
0.0386985
0.0386484
0.0385928
0.0385302
0.0384591
0.0383779
0.0382848
0.0381777
0.0380544
0.0379122
0.0377486
0.0375609
0.0373462
0.0371023
0.0368269
0.0365185
0.0361764
0.0358006
0.0353922
0.0349532
0.0344868
0.033997
0.0334888
0.0329679
0.0324406
0.0319139
0.0313949
0.030891
0.0304095
0.0299579
0.0295433
0.0291725
0.0288518
0.0285872
0.028384
0.0282467
0.0281791
0.0281841
0.0282638
0.028419
0.0286497
0.0289547
0.0293314
0.0297761
0.0302839
0.0308483
0.0314617
0.0321151
0.0327982
0.0334994
0.0342063
0.0349054
0.0355827
0.0362238
0.0368146
0.0373414
0.0377916
0.038154
0.0384199
0.038583
0.03864
0.038591
0.0384398
0.0381932
0.0378616
0.0374577
0.0369966
0.0364944
0.0359678
0.0354329
0.0349048
0.0343968
0.0339198
0.0334825
0.0330907
0.032748
0.0324554
0.0322121
0.0320156
0.0318621
0.0317469
0.0316648
0.0316105
0.0315784
0.0315638
0.0315618
0.0315691
0.0315817
0.0315979
0.0316147
0.0316321
0.0316472
0.0316625
0.0316736
0.0316867
0.0316941
0.0317082
0.0317139
0.0317363
0.0317438
0.0317851
0.0392422
0.039269
0.0392689
0.0392741
0.0392606
0.0392458
0.039219
0.0391897
0.0391536
0.0391163
0.0390764
0.039037
0.0389974
0.038959
0.0389211
0.0388839
0.0388465
0.0388079
0.0387671
0.0387226
0.038673
0.0386167
0.0385517
0.0384762
0.0383878
0.0382841
0.0381622
0.0380192
0.0378517
0.0376566
0.0374304
0.0371703
0.0368737
0.0365387
0.0361643
0.0357506
0.0352984
0.0348101
0.0342889
0.0337391
0.0331658
0.0325751
0.0319735
0.0313681
0.0307662
0.0301754
0.0296031
0.029057
0.0285442
0.0280719
0.0276465
0.0272744
0.026961
0.0267115
0.02653
0.0264203
0.026385
0.0264261
0.0265445
0.0267402
0.0270123
0.0273585
0.0277758
0.0282596
0.0288045
0.0294036
0.0300488
0.030731
0.0314398
0.0321636
0.03289
0.0336057
0.0342971
0.0349501
0.0355511
0.0360868
0.0365453
0.0369161
0.0371913
0.0373652
0.0374357
0.0374036
0.0372734
0.0370531
0.0367533
0.0363876
0.0359709
0.0355193
0.035049
0.0345754
0.0341125
0.0336722
0.0332641
0.0328953
0.0325704
0.0322916
0.032059
0.031871
0.0317247
0.0316159
0.0315399
0.0314918
0.0314664
0.0314589
0.0314646
0.0314797
0.0315003
0.0315245
0.0315489
0.0315735
0.0315951
0.0316161
0.0316321
0.0316491
0.0316595
0.0316758
0.0316829
0.031706
0.0317137
0.0317543
0.0392826
0.0393084
0.039307
0.0393099
0.0392939
0.0392762
0.0392464
0.0392143
0.0391757
0.0391365
0.0390953
0.0390551
0.0390154
0.0389774
0.0389404
0.0389042
0.0388677
0.0388299
0.0387891
0.0387437
0.0386917
0.038631
0.0385592
0.0384735
0.0383709
0.038248
0.0381012
0.0379266
0.0377203
0.0374785
0.0371977
0.036875
0.0365081
0.036096
0.0356385
0.0351369
0.0345935
0.0340117
0.0333963
0.0327527
0.0320871
0.0314064
0.0307178
0.030029
0.0293477
0.0286816
0.0280383
0.0274253
0.0268497
0.0263183
0.0258375
0.0254131
0.0250504
0.0247539
0.0245278
0.0243752
0.0242987
0.0243001
0.0243802
0.024539
0.0247758
0.0250888
0.0254752
0.0259313
0.0264523
0.0270323
0.0276643
0.0283404
0.0290513
0.0297869
0.030536
0.0312866
0.0320258
0.0327404
0.033417
0.0340424
0.0346039
0.03509
0.0354909
0.0357989
0.0360088
0.0361189
0.0361303
0.0360478
0.0358794
0.035636
0.0353309
0.0349788
0.0345953
0.0341958
0.0337949
0.0334052
0.0330378
0.0327009
0.0324004
0.0321399
0.0319208
0.0317426
0.0316033
0.0314998
0.0314281
0.0313838
0.0313622
0.0313588
0.0313691
0.0313894
0.0314157
0.0314458
0.0314763
0.0315068
0.0315342
0.0315603
0.0315811
0.0316019
0.0316156
0.031634
0.0316428
0.031666
0.031674
0.0317127
0.0393318
0.0393558
0.0393526
0.0393526
0.0393338
0.0393126
0.0392797
0.0392444
0.0392034
0.039162
0.0391193
0.0390782
0.0390382
0.0390001
0.0389633
0.0389271
0.0388902
0.0388513
0.0388082
0.0387589
0.0387007
0.0386308
0.0385459
0.0384426
0.0383167
0.038164
0.0379799
0.0377599
0.0374996
0.0371949
0.0368426
0.0364401
0.0359864
0.0354812
0.034926
0.0343233
0.0336769
0.0329919
0.0322739
0.0315297
0.0307664
0.0299916
0.0292132
0.028439
0.0276771
0.0269353
0.0262212
0.0255419
0.0249045
0.0243154
0.0237806
0.0233053
0.0228945
0.0225522
0.0222822
0.0220871
0.0219693
0.0219302
0.0219706
0.0220905
0.0222893
0.0225653
0.0229164
0.0233394
0.0238302
0.0243839
0.0249948
0.0256561
0.02636
0.0270979
0.0278601
0.028636
0.0294143
0.030183
0.0309295
0.031641
0.032305
0.0329093
0.0334427
0.0338956
0.0342603
0.0345318
0.0347078
0.0347895
0.034781
0.0346899
0.0345266
0.0343035
0.0340347
0.033735
0.0334188
0.0330996
0.0327894
0.0324979
0.0322326
0.0319986
0.0317989
0.0316343
0.0315042
0.0314067
0.0313387
0.0312967
0.0312767
0.0312748
0.0312868
0.0313092
0.0313382
0.0313715
0.0314057
0.0314401
0.0314715
0.0315014
0.0315258
0.0315496
0.0315659
0.0315858
0.031596
0.0316188
0.0316269
0.0316625
0.0393913
0.0394125
0.0394074
0.0394039
0.0393821
0.0393571
0.0393209
0.0392823
0.0392385
0.0391948
0.0391505
0.039108
0.039067
0.0390281
0.0389901
0.0389524
0.0389131
0.0388703
0.0388215
0.0387638
0.0386939
0.038608
0.038502
0.0383711
0.0382104
0.0380147
0.0377786
0.0374972
0.0371659
0.036781
0.0363398
0.0358411
0.0352847
0.0346723
0.0340068
0.0332922
0.0325341
0.0317385
0.0309127
0.0300641
0.0292008
0.0283309
0.0274628
0.0266046
0.0257645
0.0249501
0.0241689
0.0234278
0.0227333
0.0220915
0.0215077
0.0209867
0.0205327
0.0201494
0.0198397
0.0196061
0.0194504
0.0193736
0.0193764
0.0194587
0.0196198
0.0198585
0.0201727
0.0205598
0.0210166
0.021539
0.0221223
0.022761
0.0234487
0.0241785
0.0249422
0.0257312
0.0265358
0.0273456
0.0281495
0.028936
0.0296929
0.0304084
0.0310707
0.0316689
0.0321934
0.0326361
0.0329914
0.0332564
0.033431
0.0335186
0.0335255
0.0334607
0.0333358
0.0331635
0.0329577
0.0327318
0.0324985
0.0322688
0.032052
0.0318549
0.0316824
0.0315371
0.0314199
0.0313305
0.031267
0.0312271
0.0312076
0.0312054
0.0312168
0.0312389
0.031268
0.031302
0.0313374
0.0313737
0.0314072
0.0314395
0.0314663
0.0314921
0.0315105
0.0315313
0.0315426
0.0315644
0.0315725
0.0316043
0.0394611
0.0394787
0.0394714
0.0394638
0.0394387
0.0394096
0.0393701
0.0393279
0.0392814
0.0392352
0.0391888
0.0391445
0.0391017
0.0390607
0.0390202
0.0389788
0.0389342
0.038884
0.0388249
0.0387532
0.0386645
0.0385542
0.0384167
0.0382465
0.0380375
0.0377838
0.0374797
0.0371201
0.0367009
0.0362191
0.0356734
0.0350638
0.0343922
0.0336616
0.0328767
0.0320434
0.0311684
0.0302593
0.0293242
0.0283716
0.02741
0.0264483
0.0254949
0.0245581
0.0236459
0.0227659
0.021925
0.0211298
0.0203861
0.0196994
0.0190742
0.0185148
0.0180246
0.0176066
0.0172632
0.0169962
0.0168069
0.0166962
0.0166642
0.0167109
0.0168355
0.0170368
0.0173131
0.0176622
0.0180814
0.0185675
0.0191168
0.0197248
0.0203868
0.021097
0.0218492
0.0226366
0.0234514
0.0242852
0.0251288
0.0259722
0.026805
0.027616
0.028394
0.0291277
0.0298063
0.0304197
0.0309593
0.0314183
0.0317926
0.0320804
0.0322833
0.0324058
0.0324552
0.0324414
0.0323757
0.0322708
0.0321392
0.0319928
0.0318424
0.0316967
0.0315627
0.0314453
0.0313472
0.0312701
0.0312136
0.0311768
0.0311578
0.0311543
0.0311637
0.0311833
0.0312102
0.0312424
0.0312767
0.0313124
0.031346
0.0313786
0.0314063
0.0314327
0.031452
0.0314729
0.0314847
0.031505
0.0315128
0.0315404
0.0395422
0.0395553
0.0395456
0.0395334
0.0395049
0.0394715
0.0394285
0.0393827
0.0393333
0.0392842
0.0392353
0.0391884
0.0391427
0.039098
0.0390525
0.0390045
0.038951
0.0388886
0.0388132
0.0387201
0.0386038
0.0384583
0.0382773
0.0380539
0.0377815
0.0374536
0.0370646
0.03661
0.0360866
0.0354928
0.0348288
0.0340967
0.0332999
0.0324436
0.0315341
0.0305788
0.0295858
0.028564
0.0275223
0.0264699
0.025416
0.0243695
0.0233391
0.0223329
0.0213586
0.0204232
0.0195333
0.0186946
0.0179122
0.0171907
0.0165341
0.0159456
0.015428
0.0149836
0.014614
0.0143205
0.0141041
0.0139649
0.0139031
0.0139183
0.0140096
0.0141759
0.0144156
0.014727
0.0151078
0.0155553
0.0160667
0.0166386
0.0172671
0.0179483
0.0186773
0.0194491
0.0202578
0.0210971
0.0219599
0.0228384
0.023724
0.0246074
0.0254787
0.0263273
0.0271423
0.0279128
0.0286283
0.0292793
0.0298574
0.0303564
0.0307726
0.031105
0.0313557
0.0315298
0.031635
0.0316812
0.0316797
0.0316421
0.0315801
0.0315043
0.0314237
0.0313456
0.0312753
0.0312166
0.0311713
0.0311402
0.0311229
0.0311184
0.031125
0.0311411
0.0311641
0.0311926
0.0312237
0.0312566
0.0312884
0.0313195
0.0313464
0.0313721
0.0313912
0.0314113
0.031423
0.0314413
0.0314485
0.0314718
0.0396349
0.0396423
0.0396301
0.0396126
0.0395808
0.0395428
0.0394965
0.0394469
0.0393944
0.039342
0.0392899
0.0392392
0.039189
0.0391384
0.0390853
0.0390269
0.0389595
0.0388789
0.0387798
0.0386563
0.0385018
0.038309
0.0380705
0.0377789
0.037427
0.0370085
0.0365185
0.0359533
0.0353114
0.0345931
0.0338004
0.0329374
0.0320096
0.0310241
0.0299889
0.0289128
0.0278052
0.0266759
0.0255347
0.0243912
0.023255
0.0221348
0.0210393
0.019976
0.0189522
0.0179742
0.0170477
0.0161776
0.0153682
0.014623
0.0139453
0.0133373
0.0128012
0.0123385
0.0119502
0.0116371
0.0113995
0.0112375
0.0111506
0.0111385
0.0112
0.0113342
0.0115395
0.0118144
0.012157
0.0125651
0.0130365
0.0135685
0.0141583
0.014803
0.0154993
0.0162434
0.0170314
0.017859
0.018721
0.019612
0.0205257
0.0214551
0.0223921
0.0233279
0.0242529
0.0251564
0.0260277
0.0268554
0.0276287
0.0283375
0.0289731
0.0295291
0.0300014
0.0303892
0.0306948
0.0309235
0.0310834
0.0311846
0.0312381
0.0312555
0.0312478
0.0312246
0.0311941
0.0311628
0.031135
0.0311138
0.0311008
0.0310966
0.0311008
0.0311127
0.0311308
0.0311541
0.0311802
0.0312086
0.0312365
0.0312643
0.0312887
0.0313121
0.0313298
0.031348
0.0313589
0.0313749
0.0313813
0.0314004
0.0397395
0.0397401
0.0397251
0.0397021
0.039667
0.0396243
0.0395746
0.039521
0.0394652
0.0394087
0.0393525
0.0392965
0.0392397
0.0391804
0.0391158
0.0390421
0.038955
0.0388487
0.0387169
0.0385524
0.0383474
0.0380936
0.0377827
0.037407
0.0369595
0.0364346
0.0358286
0.0351394
0.0343675
0.0335153
0.032587
0.0315889
0.0305285
0.0294145
0.0282568
0.0270653
0.0258506
0.0246233
0.0233935
0.0221713
0.0209659
0.019786
0.0186396
0.0175337
0.0164745
0.0154676
0.0145176
0.0136285
0.0128036
0.0120456
0.0113567
0.0107385
0.0101923
0.00971905
0.00931915
0.00899289
0.0087402
0.00856077
0.00845405
0.00841926
0.00845543
0.00856138
0.00873577
0.00897709
0.00928371
0.00965383
0.0100856
0.010577
0.0111259
0.0117303
0.0123878
0.013096
0.0138525
0.0146544
0.0154988
0.0163821
0.0173004
0.0182489
0.0192224
0.0202141
0.0212166
0.022221
0.0232173
0.0241944
0.0251404
0.0260429
0.0268897
0.0276692
0.0283717
0.0289898
0.029519
0.0299586
0.0303111
0.0305828
0.0307825
0.0309212
0.0310106
0.0310625
0.0310879
0.0310962
0.0310949
0.03109
0.0310856
0.0310842
0.0310873
0.0310955
0.0311083
0.0311254
0.0311453
0.0311677
0.0311901
0.031213
0.0312333
0.0312531
0.0312682
0.0312837
0.031293
0.0313064
0.0313118
0.0313272
0.0398557
0.0398482
0.0398306
0.0398014
0.0397632
0.0397157
0.0396627
0.0396048
0.0395451
0.0394838
0.0394221
0.0393587
0.0392927
0.039221
0.0391402
0.0390455
0.0389312
0.0387905
0.0386156
0.0383981
0.0381291
0.0377996
0.037401
0.0369256
0.0363674
0.035722
0.0349874
0.0341638
0.0332538
0.0322621
0.0311955
0.0300622
0.0288717
0.0276346
0.0263618
0.0250646
0.0237544
0.022442
0.021138
0.019852
0.018593
0.017369
0.016187
0.0150532
0.0139728
0.0129502
0.011989
0.0110922
0.0102621
0.00950056
0.00880884
0.00818793
0.00763844
0.00716068
0.00675473
0.00642041
0.00615733
0.00596495
0.00584251
0.00578912
0.00580372
0.00588512
0.00603203
0.00624304
0.00651665
0.00685132
0.00724547
0.0076975
0.00820583
0.00876889
0.00938516
0.0100532
0.0107715
0.0115386
0.0123531
0.0132131
0.0141169
0.0150619
0.0160452
0.0170628
0.0181099
0.0191801
0.0202656
0.0213569
0.0224427
0.0235104
0.0245459
0.0255346
0.0264619
0.0273143
0.0280805
0.0287521
0.0293247
0.0297982
0.0301768
0.0304685
0.0306843
0.0308366
0.0309387
0.0310031
0.0310408
0.0310612
0.0310715
0.0310771
0.0310816
0.0310872
0.0310951
0.0311058
0.0311187
0.0311338
0.0311495
0.0311661
0.0311809
0.0311958
0.0312071
0.0312191
0.0312261
0.0312367
0.0312408
0.0312531
0.0399829
0.0399663
0.0399459
0.0399104
0.0398692
0.0398168
0.0397604
0.0396978
0.0396336
0.0395661
0.039497
0.0394238
0.0393451
0.0392565
0.0391539
0.0390311
0.0388811
0.0386958
0.0384662
0.0381826
0.0378354
0.0374152
0.0369138
0.0363243
0.0356419
0.0348643
0.0339915
0.0330265
0.0319741
0.0308416
0.0296381
0.0283738
0.0270601
0.025709
0.0243326
0.022943
0.0215518
0.0201701
0.018808
0.0174746
0.0161782
0.0149256
0.0137229
0.0125751
0.0114863
0.0104596
0.00949777
0.00860259
0.00777554
0.00701762
0.00632946
0.00571141
0.00516358
0.00468584
0.00427791
0.00393933
0.0036695
0.0034677
0.00333305
0.00326459
0.00326122
0.00332176
0.00344494
0.00362942
0.00387381
0.00417672
0.00453674
0.00495254
0.00542281
0.00594638
0.0065222
0.00714939
0.00782722
0.00855512
0.00933267
0.0101595
0.0110353
0.0119595
0.0129312
0.0139492
0.015011
0.0161134
0.0172513
0.018418
0.0196045
0.0207995
0.0219896
0.0231589
0.0242904
0.0253659
0.026368
0.027281
0.0280924
0.0287938
0.0293824
0.0298604
0.0302351
0.030518
0.0307229
0.0308648
0.0309582
0.0310164
0.0310503
0.0310689
0.0310785
0.031084
0.0310879
0.0310926
0.0310981
0.0311055
0.0311134
0.0311226
0.0311309
0.0311398
0.0311463
0.031154
0.0311581
0.0311658
0.0311686
0.0311784
0.0401201
0.0400929
0.0400701
0.0400277
0.0399839
0.0399264
0.0398665
0.0397985
0.0397288
0.0396535
0.0395748
0.0394886
0.0393929
0.0392821
0.0391511
0.0389919
0.0387966
0.0385554
0.0382585
0.0378951
0.0374554
0.0369302
0.0363122
0.0355958
0.0347784
0.0338599
0.032843
0.0317333
0.0305384
0.0292679
0.027933
0.0265461
0.0251199
0.0236676
0.0222022
0.0207359
0.0192804
0.0178462
0.0164428
0.0150784
0.01376
0.0124934
0.0112832
0.0101333
0.00904657
0.00802507
0.00707037
0.00618354
0.0053652
0.00461569
0.00393509
0.00332329
0.00278
0.00230481
0.0018972
0.00155655
0.00128213
0.00107312
0.000928607
0.000847599
0.000829009
0.000871675
0.00097437
0.00113582
0.00135471
0.00162975
0.00195965
0.00234318
0.00277925
0.00326688
0.00380528
0.00439389
0.0050324
0.00572079
0.00645929
0.00724844
0.00808895
0.00898169
0.00992749
0.010927
0.0119803
0.0130868
0.0142445
0.01545
0.0166974
0.0179786
0.0192821
0.0205936
0.0218957
0.0231684
0.0243902
0.0255393
0.0265953
0.0275412
0.0283647
0.0290598
0.0296273
0.0300742
0.0304129
0.030659
0.0308299
0.0309426
0.0310124
0.0310525
0.031073
0.0310817
0.0310839
0.0310834
0.0310819
0.0310811
0.0310807
0.0310818
0.0310826
0.0310848
0.0310856
0.0310885
0.0310892
0.0310939
0.0310952
0.0311033
0.0402654
0.0402266
0.0402014
0.0401521
0.0401058
0.040043
0.0399793
0.039905
0.0398284
0.0397433
0.0396522
0.0395489
0.0394314
0.0392921
0.0391248
0.0389201
0.0386689
0.0383599
0.0379825
0.0375256
0.0369797
0.0363364
0.0355897
0.0347363
0.033776
0.0327115
0.0315484
0.0302948
0.0289612
0.0275594
0.0261027
0.0246049
0.0230802
0.0215422
0.0200042
0.0184783
0.0169757
0.0155059
0.0140773
0.0126968
0.0113701
0.0101016
0.00889473
0.00775194
0.00667499
0.00566503
0.00472272
0.00384835
0.00304196
0.00230335
0.00163222
0.00102812
0.000490541
1.8903e-05
-0.000387438
-0.000729184
-0.0010071
-0.00122201
-0.00137483
-0.00146652
-0.00149812
-0.00147076
-0.00138559
-0.00124384
-0.00104674
-0.000795544
-0.000491457
-0.000135624
0.00027092
0.000727292
0.00123281
0.00178706
0.0023899
0.00304155
0.00374259
0.004494
0.00529714
0.00615371
0.00706567
0.00803508
0.00906395
0.0101539
0.0113057
0.012519
0.0137916
0.0151189
0.0164932
0.0179033
0.0193339
0.020766
0.0221767
0.0235408
0.0248319
0.0260246
0.0270973
0.0280335
0.0288245
0.0294698
0.0299765
0.0303585
0.0306339
0.0308229
0.0309451
0.0310186
0.0310581
0.0310753
0.0310788
0.0310749
0.0310672
0.0310585
0.0310496
0.031042
0.0310347
0.0310296
0.0310241
0.0310218
0.0310186
0.0310204
0.0310201
0.0310272
0.0404164
0.040365
0.0403376
0.0402811
0.0402325
0.040164
0.040096
0.0400144
0.0399292
0.0398316
0.0397245
0.0395998
0.0394546
0.0392796
0.0390675
0.0388073
0.0384887
0.0380996
0.0376288
0.0370655
0.0364009
0.0356281
0.0347433
0.0337459
0.0326383
0.0314264
0.0301186
0.028726
0.0272612
0.0257385
0.0241727
0.0225787
0.0209714
0.0193647
0.0177715
0.0162033
0.01467
0.0131801
0.0117404
0.0103566
0.00903267
0.00777173
0.00657589
0.00544649
0.00438426
0.0033895
0.00246217
0.00160199
0.000808536
8.12915e-05
-0.00058032
-0.00117691
-0.0017091
-0.00217753
-0.00258289
-0.00292586
-0.00320717
-0.00342762
-0.00358804
-0.00368934
-0.0037325
-0.00371854
-0.00364858
-0.00352375
-0.00334525
-0.00311424
-0.00283191
-0.00249935
-0.00211757
-0.00168744
-0.00120963
-0.000684544
-0.000112301
0.000507352
0.00117508
0.001892
0.00265972
0.00348032
0.00435636
0.00529076
0.00628671
0.00734743
0.00847588
0.00967432
0.0109438
0.0122834
0.0136897
0.0151556
0.01667
0.018217
0.0197754
0.0213197
0.0228206
0.0242469
0.0255683
0.0267579
0.0277956
0.02867
0.0293794
0.0299322
0.0303442
0.0306367
0.030833
0.0309559
0.0310256
0.0310589
0.0310684
0.0310638
0.0310512
0.0310353
0.031018
0.0310017
0.030986
0.0309731
0.030961
0.0309532
0.0309458
0.0309448
0.0309427
0.0309495
0.0405699
0.0405049
0.0404756
0.0404117
0.040361
0.0402864
0.0402133
0.0401227
0.0400268
0.0399138
0.0397866
0.0396351
0.0394556
0.039237
0.0389709
0.0386447
0.0382472
0.0377657
0.0371893
0.0365077
0.0357138
0.0348027
0.0337734
0.0326281
0.0313725
0.0300155
0.0285685
0.027045
0.0254602
0.0238298
0.0221699
0.0204962
0.0188235
0.0171654
0.0155338
0.0139392
0.0123901
0.0108933
0.00945433
0.00807694
0.00676391
0.00551696
0.00433704
0.00322451
0.00217927
0.00120097
0.000289032
-0.0005572
-0.00133843
-0.00205538
-0.00270872
-0.00329914
-0.00382726
-0.00429372
-0.00469912
-0.0050441
-0.00532931
-0.00555544
-0.00572325
-0.00583355
-0.00588721
-0.0058852
-0.00582851
-0.00571823
-0.00555547
-0.00534135
-0.00507702
-0.00476355
-0.00440195
-0.0039931
-0.00353772
-0.00303627
-0.00248896
-0.00189563
-0.00125569
-0.000568118
0.000168664
0.000956782
0.00179894
0.00269843
0.00365901
0.00468486
0.00578031
0.00694956
0.0081962
0.00952262
0.0109293
0.0124137
0.0139697
0.015586
0.0172459
0.0189264
0.020599
0.0222301
0.0237836
0.0252237
0.0265189
0.0276449
0.0285881
0.0293469
0.029931
0.0303593
0.0306566
0.03085
0.0309652
0.0310249
0.0310472
0.031046
0.0310309
0.0310089
0.0309837
0.0309589
0.0309347
0.0309139
0.0308949
0.0308815
0.0308696
0.0308658
0.030862
0.030869
0.040722
0.0406425
0.0406117
0.0405402
0.0404873
0.0404059
0.0403267
0.0402254
0.0401162
0.039984
0.0398322
0.0396479
0.0394271
0.0391563
0.0388265
0.0384234
0.0379357
0.0373503
0.0366572
0.0358475
0.034916
0.0338607
0.0326837
0.0313902
0.0299894
0.0284931
0.0269156
0.0252728
0.0235815
0.0218588
0.0201214
0.0183849
0.0166639
0.0149708
0.0133163
0.0117094
0.0101568
0.00866377
0.00723406
0.00587003
0.00457307
0.00334372
0.00218196
0.00108736
5.92058e-05
-0.000903335
-0.00180116
-0.00263516
-0.00340616
-0.00411496
-0.00476223
-0.00534861
-0.00587468
-0.00634096
-0.00674797
-0.00709624
-0.00738629
-0.00761871
-0.00779413
-0.00791325
-0.00797684
-0.00798575
-0.00794092
-0.00784331
-0.00769399
-0.00749401
-0.00724448
-0.00694646
-0.00660095
-0.00620888
-0.00577101
-0.00528793
-0.00475994
-0.00418705
-0.00356888
-0.0029046
-0.00219285
-0.00143172
-0.000618628
0.000249636
0.00117696
0.00216787
0.00322737
0.0043608
0.00557349
0.00687028
0.00825484
0.00972888
0.011291
0.0129356
0.0146515
0.016421
0.0182193
0.0200143
0.0217683
0.0234397
0.0249875
0.0263749
0.0275744
0.0285706
0.0293624
0.0299623
0.0303929
0.0306832
0.0308641
0.0309646
0.031009
0.0310172
0.0310029
0.0309768
0.0309446
0.0309116
0.0308791
0.0308505
0.0308245
0.0308054
0.030789
0.0307824
0.0307768
0.0307841
0.0408678
0.0407734
0.0407412
0.0406621
0.0406067
0.0405177
0.040431
0.0403168
0.0401912
0.0400358
0.0398541
0.0396307
0.0393608
0.0390291
0.0386256
0.0381353
0.0375466
0.0368471
0.036028
0.0350824
0.0340079
0.0328056