/*--------------------------------*- C++ -*----------------------------------*\
| =========                 |                                                 |
| \\      /  F ield         | OpenFOAM: The Open Source CFD Toolbox           |
|  \\    /   O peration     | Version:  2406                                  |
|   \\  /    A nd           | Website:  www.openfoam.com                      |
|    \\/     M anipulation  |                                                 |
\*---------------------------------------------------------------------------*/
FoamFile
{
    version     2.0;
    format      ascii;
    arch        "LSB;label=32;scalar=64";
    class       surfaceScalarField;
    location    "36.3";
    object      phi;
}
// * * * * * * * * * * * * * * * * * * * * * * * * * * * * * * * * * * * * * //

dimensions      [0 3 -1 0 0 0 0];

oriented        oriented;

internalField   nonuniform List<scalar> 
7080
(
2.97755e-07
-2.97306e-07
1.48423e-06
-1.1964e-06
3.12265e-06
-1.63636e-06
4.78954e-06
-1.67628e-06
6.18218e-06
-1.39148e-06
7.16327e-06
-9.87314e-07
7.75589e-06
-5.90832e-07
8.04116e-06
-2.88062e-07
8.13371e-06
-8.98605e-08
8.08847e-06
4.52673e-08
7.9144e-06
1.7793e-07
7.54325e-06
3.74027e-07
6.87567e-06
6.73642e-07
5.77653e-06
1.10578e-06
4.10691e-06
1.67943e-06
1.71514e-06
2.40346e-06
-1.54359e-06
3.27371e-06
-5.80931e-06
4.28324e-06
-1.11998e-05
5.4114e-06
-1.78044e-05
6.62907e-06
-2.56544e-05
7.87903e-06
-3.46954e-05
9.07455e-06
-4.47552e-05
1.00966e-05
-5.55292e-05
1.08122e-05
-6.65765e-05
1.10838e-05
-7.73384e-05
1.07944e-05
-8.71758e-05
9.86359e-06
-9.54228e-05
8.26578e-06
-0.000101442
6.02901e-06
-0.000104674
3.23335e-06
-0.00010468
-1.75143e-09
-0.000101175
-3.52107e-06
-9.40561e-05
-7.14332e-06
-8.34261e-05
-1.06614e-05
-6.96111e-05
-1.38525e-05
-5.31705e-05
-1.6483e-05
-3.48872e-05
-1.83289e-05
-1.5741e-05
-1.91941e-05
3.15486e-06
-1.89435e-05
2.0639e-05
-1.75307e-05
3.56247e-05
-1.50277e-05
4.72234e-05
-1.1636e-05
5.48732e-05
-7.67833e-06
5.84163e-05
-3.56382e-06
5.81299e-05
2.77136e-07
5.46651e-05
3.46336e-06
4.89314e-05
5.74317e-06
4.19152e-05
7.02972e-06
3.45236e-05
7.41228e-06
2.74462e-05
7.09604e-06
2.11254e-05
6.34317e-06
1.57557e-05
5.38512e-06
1.13679e-05
4.40672e-06
7.87153e-06
3.50583e-06
5.13445e-06
2.75195e-06
3.01473e-06
2.1236e-06
1.41162e-06
1.6148e-06
3.42138e-07
1.06917e-06
-1.47916e-07
4.98793e-07
-1.47869e-07
1.14004e-06
-1.42786e-06
3.75848e-06
-3.81595e-06
7.05046e-06
-4.91343e-06
1.02604e-05
-4.8845e-06
1.28802e-05
-3.99982e-06
1.46202e-05
-2.72663e-06
1.54566e-05
-1.42145e-06
1.54531e-05
-2.86791e-07
1.47257e-05
6.38144e-07
1.32854e-05
1.48053e-06
1.10498e-05
2.40932e-06
7.79542e-06
3.61953e-06
3.2287e-06
5.23015e-06
-3.00735e-06
7.32668e-06
-1.12697e-05
9.92317e-06
-2.1902e-05
1.30113e-05
-3.51801e-05
1.65226e-05
-5.12728e-05
2.03415e-05
-7.01502e-05
2.42495e-05
-9.15097e-05
2.7943e-05
-0.000114735
3.10506e-05
-0.000138936
3.32148e-05
-0.000163046
3.41381e-05
-0.000185941
3.36361e-05
-0.000206558
3.16322e-05
-0.000223978
2.81539e-05
-0.000237465
2.3301e-05
-0.000246468
1.7234e-05
-0.000250607
1.01494e-05
-0.000249653
2.27911e-06
-0.000243515
-6.12233e-06
-0.000232234
-1.47674e-05
-0.000215986
-2.33406e-05
-0.000195097
-3.14852e-05
-0.000170058
-3.88138e-05
-0.000141546
-4.49077e-05
-0.000110431
-4.93497e-05
-7.77778e-05
-5.1751e-05
-4.48109e-05
-5.18142e-05
-1.28698e-05
-4.93807e-05
1.66854e-05
-4.44997e-05
4.25704e-05
-3.74511e-05
6.37049e-05
-2.87579e-05
7.93102e-05
-1.91341e-05
8.90076e-05
-9.40301e-06
9.28555e-05
-3.87972e-07
9.13719e-05
7.20946e-06
8.54724e-05
1.28973e-05
7.63781e-05
1.64708e-05
6.542e-05
1.80122e-05
5.38631e-05
1.78641e-05
4.2703e-05
1.65076e-05
3.26122e-05
1.44708e-05
2.3906e-05
1.21828e-05
1.66605e-05
9.98124e-06
1.07806e-05
7.98141e-06
6.15888e-06
6.22935e-06
2.75791e-06
4.45362e-06
6.5217e-07
2.60441e-06
4.95314e-07
1.64925e-06
-3.07706e-06
5.0831e-06
-7.26503e-06
9.17459e-06
-9.0031e-06
1.29074e-05
-8.62992e-06
1.56815e-05
-6.77395e-06
1.7129e-05
-4.18172e-06
1.71907e-05
-1.48155e-06
1.58624e-05
1.03918e-06
1.31652e-05
3.33926e-06
8.96204e-06
5.68602e-06
2.98528e-06
8.39295e-06
-5.19708e-06
1.18091e-05
-1.60806e-05
1.61251e-05
-3.01893e-05
2.1449e-05
-4.7972e-05
2.77244e-05
-6.97219e-05
3.47842e-05
-9.54198e-05
4.22489e-05
-0.000124615
4.95698e-05
-0.000156383
5.60534e-05
-0.000189436
6.10368e-05
-0.00022233
6.3991e-05
-0.000253687
6.46238e-05
-0.000282344
6.28517e-05
-0.000307419
5.87711e-05
-0.000328303
5.25731e-05
-0.000344607
4.45096e-05
-0.000356105
3.48408e-05
-0.000362678
2.38366e-05
-0.000364271
1.17575e-05
-0.000360868
-1.12383e-06
-0.000352481
-1.45254e-05
-0.000339154
-2.81251e-05
-0.000320982
-4.1559e-05
-0.000298135
-5.43915e-05
-0.000270896
-6.61243e-05
-0.000239697
-7.61862e-05
-0.000205157
-8.39749e-05
-0.000168109
-8.88886e-05
-0.000129592
-9.04178e-05
-9.08401e-05
-8.82164e-05
-5.31995e-05
-8.22145e-05
-1.8047e-05
-7.26668e-05
1.33405e-05
-6.01927e-05
3.98824e-05
-4.57083e-05
6.07951e-05
-3.03296e-05
7.56229e-05
-1.52161e-05
8.42822e-05
-1.43478e-06
8.70586e-05
1.0143e-05
8.4638e-05
1.89225e-05
7.80477e-05
2.46321e-05
6.85793e-05
2.73662e-05
5.75652e-05
2.75478e-05
4.62167e-05
2.58486e-05
3.54161e-05
2.30015e-05
2.57319e-05
1.96892e-05
1.73945e-05
1.63283e-05
1.05164e-05
1.31269e-05
5.13426e-06
9.83665e-06
1.49722e-06
6.25853e-06
1.99355e-06
1.94963e-06
-5.01753e-06
5.73258e-06
-1.10543e-05
9.91348e-06
-1.31709e-05
1.32908e-05
-1.20099e-05
1.52429e-05
-8.71751e-06
1.53829e-05
-4.32379e-06
1.36219e-05
2.82964e-07
9.84241e-06
4.81527e-06
3.88251e-06
9.29812e-06
-4.63751e-06
1.42003e-05
-1.62366e-05
1.99867e-05
-3.15553e-05
2.7119e-05
-5.11951e-05
3.5755e-05
-7.5606e-05
4.58469e-05
-0.000104878
5.69809e-05
-0.000138576
6.84625e-05
-0.000175647
7.92961e-05
-0.000214564
8.84583e-05
-0.000253618
9.50754e-05
-0.000291249
9.86329e-05
-0.000326241
9.89429e-05
-0.000357768
9.61074e-05
-0.000385337
9.03744e-05
-0.000408694
8.20819e-05
-0.000427732
7.1567e-05
-0.000442422
5.91615e-05
-0.000452765
4.51536e-05
-0.000458762
2.98138e-05
-0.000460395
1.3382e-05
-0.000457622
-3.89375e-06
-0.000450375
-2.17581e-05
-0.000438569
-3.99031e-05
-0.000422126
-5.79633e-05
-0.000400998
-7.54711e-05
-0.000375204
-9.18596e-05
-0.000344887
-0.000106438
-0.000310361
-0.000118431
-0.000272172
-0.000127005
-0.000231135
-0.000131382
-0.000188352
-0.000130931
-0.000145168
-0.000125336
-0.000103084
-0.000114698
-6.36044e-05
-9.96298e-05
-2.80768e-05
-8.12067e-05
2.45776e-06
-6.08461e-05
2.73122e-05
-4.00666e-05
4.6157e-05
-2.02842e-05
5.89423e-05
-2.65827e-06
6.58973e-05
1.19489e-05
6.75182e-05
2.29853e-05
6.46303e-05
3.0232e-05
5.83032e-05
3.38481e-05
4.97762e-05
3.43575e-05
4.02033e-05
3.2551e-05
3.05759e-05
2.93057e-05
2.15388e-05
2.53453e-05
1.35726e-05
2.10903e-05
6.94376e-06
1.64462e-05
2.18001e-06
1.10271e-05
4.16123e-06
2.08482e-06
-7.09952e-06
5.82198e-06
-1.48048e-05
9.50151e-06
-1.68447e-05
1.17888e-05
-1.43061e-05
1.20732e-05
-8.99893e-06
9.97403e-06
-2.22871e-06
5.35474e-06
4.90536e-06
-2.06077e-06
1.22309e-05
-1.26775e-05
1.99194e-05
-2.71444e-05
2.86712e-05
-4.61803e-05
3.90297e-05
-7.04516e-05
5.13983e-05
-0.000100302
6.56161e-05
-0.000135538
8.10954e-05
-0.000175236
9.66934e-05
-0.000217814
0.000111059
-0.000261353
0.000122855
-0.00030403
0.00013116
-0.000344426
0.000135497
-0.000381603
0.00013584
-0.000415036
0.000132409
-0.000444488
0.000125595
-0.000469896
0.00011582
-0.000491295
0.000103517
-0.000508759
8.90639e-05
-0.000522378
7.2807e-05
-0.000532228
5.50227e-05
-0.000538363
3.59596e-05
-0.0005408
1.58194e-05
-0.000539507
-5.19438e-06
-0.000534402
-2.68817e-05
-0.000525343
-4.89896e-05
-0.000512135
-7.12072e-05
-0.000494545
-9.31036e-05
-0.000472332
-0.000114122
-0.000445292
-0.000133532
-0.000413332
-0.000150447
-0.000376559
-0.000163836
-0.000335374
-0.000172624
-0.000290565
-0.000175793
-0.000243347
-0.000172603
-0.000195328
-0.000162759
-0.000148369
-0.000146622
-0.000104346
-0.000125255
-6.48566e-05
-0.000100349
-3.10057e-05
-7.39235e-05
-3.32112e-06
-4.79635e-05
1.81091e-05
-2.40787e-05
3.34816e-05
-3.40534e-06
4.3126e-05
1.33583e-05
4.75518e-05
2.5829e-05
4.74561e-05
3.39604e-05
4.37983e-05
3.80369e-05
3.76377e-05
3.87229e-05
3.00873e-05
3.68754e-05
2.20486e-05
3.33886e-05
1.43332e-05
2.88241e-05
7.5065e-06
2.32695e-05
2.40012e-06
1.61531e-05
6.56073e-06
2.08152e-06
-9.17454e-06
5.33786e-06
-1.80689e-05
7.85613e-06
-1.93541e-05
8.26735e-06
-1.47213e-05
6.01945e-06
-6.74692e-06
7.44906e-07
3.04294e-06
-7.78977e-06
1.34401e-05
-2.00756e-05
2.4513e-05
-3.67822e-05
3.66227e-05
-5.87368e-05
5.06203e-05
-8.66007e-05
6.68873e-05
-0.000120603
8.53933e-05
-0.000160226
0.000105229
-0.000204125
0.000124983
-0.000250321
0.000142876
-0.000296693
0.000157415
-0.00034143
0.000167573
-0.000383264
0.000172974
-0.000421447
0.000173656
-0.00045562
0.000169988
-0.000485677
0.000162438
-0.000511668
0.000151557
-0.000533734
0.000137855
-0.000552064
0.000121819
-0.000566877
0.000103851
-0.000578393
8.43022e-05
-0.000586819
6.34333e-05
-0.000592328
4.14613e-05
-0.000595044
1.85349e-05
-0.000595021
-5.2091e-06
-0.00059223
-2.96576e-05
-0.000586542
-5.46564e-05
-0.000577713
-8.00083e-05
-0.000565385
-0.000105398
-0.000549092
-0.000130378
-0.000528289
-0.000154294
-0.000502414
-0.000176279
-0.000470987
-0.000195219
-0.000433749
-0.000209817
-0.00039083
-0.00021867
-0.000342911
-0.000220482
-0.000291339
-0.000214296
-0.000238107
-0.000199825
-0.000185673
-0.000177668
-0.000136562
-0.000149446
-9.28912e-05
-0.00011759
-5.59534e-05
-8.49022e-05
-2.61425e-05
-5.38992e-05
-3.17091e-06
-2.63873e-05
1.351e-05
-3.33923e-06
2.45088e-05
1.48173e-05
3.04183e-05
2.80326e-05
3.19734e-05
3.64712e-05
3.00208e-05
4.06582e-05
2.55841e-05
4.13061e-05
1.96333e-05
3.93228e-05
1.31732e-05
3.52842e-05
7.02735e-06
2.93974e-05
2.25711e-06
2.09296e-05
8.80586e-06
1.8881e-06
-1.10597e-05
4.16718e-06
-2.03554e-05
4.84879e-06
-2.0031e-05
2.64172e-06
-1.25172e-05
-2.92386e-06
-1.17885e-06
-1.22267e-05
1.23465e-05
-2.56549e-05
2.68709e-05
-4.39167e-05
4.27785e-05
-6.78308e-05
6.05409e-05
-9.80959e-05
8.08917e-05
-0.000134834
0.000103632
-0.000177309
0.000127877
-0.000223858
0.000151787
-0.000272246
0.000173381
-0.000320213
0.000190854
-0.000365953
0.00020317
-0.000408267
0.000209901
-0.000446483
0.000211208
-0.000480309
0.000207501
-0.000509704
0.000199403
-0.000534795
0.000187549
-0.000555824
0.000172609
-0.000573115
0.000155166
-0.000587036
0.000135759
-0.00059797
0.000114801
-0.000606291
9.26359e-05
-0.00061234
6.94892e-05
-0.000616406
4.55299e-05
-0.000618715
2.08392e-05
-0.000619412
-4.52288e-06
-0.000618547
-3.05391e-05
-0.000616059
-5.71662e-05
-0.000611751
-8.43433e-05
-0.000605266
-0.000111913
-0.000596067
-0.000139612
-0.000583425
-0.000166973
-0.00056644
-0.000193303
-0.000544105
-0.000217595
-0.000515428
-0.000238534
-0.000479637
-0.000254498
-0.000436435
-0.000263718
-0.000386283
-0.000264478
-0.000330622
-0.000255508
-0.000271928
-0.000236379
-0.000213469
-0.000207915
-0.00015874
-0.000172324
-0.000110654
-0.000132986
-7.0878e-05
-9.36718e-05
-3.9632e-05
-5.76231e-05
-1.61688e-05
-2.67936e-05
5.97759e-07
-1.93493e-06
1.16239e-05
1.7016e-05
1.77561e-05
3.0354e-05
1.97771e-05
3.86441e-05
1.86002e-05
4.24977e-05
1.51631e-05
4.27622e-05
1.05303e-05
3.99319e-05
5.68678e-06
3.42377e-05
1.79753e-06
2.48353e-05
1.06032e-05
1.41344e-06
-1.2472e-05
2.11187e-06
-2.10568e-05
2.28061e-07
-1.81467e-05
-5.32936e-06
-6.96058e-06
-1.49508e-05
8.43989e-06
-2.90618e-05
2.64567e-05
-4.82274e-05
4.60315e-05
-7.32622e-05
6.78111e-05
-0.000104841
9.21127e-05
-0.00014307
0.000119117
-0.000187091
0.000147645
-0.000235064
0.000175843
-0.000284566
0.000201279
-0.000333215
0.000222021
-0.000379142
0.000236769
-0.000421123
0.00024514
-0.000458483
0.000247246
-0.000490938
0.000243648
-0.000518491
0.000235037
-0.000541358
0.000222253
-0.000559913
0.000206087
-0.000574636
0.000187316
-0.000586061
0.000166575
-0.000594727
0.000144413
-0.000601148
0.000121212
-0.000605785
9.72677e-05
-0.000609034
7.27376e-05
-0.000611225
4.77254e-05
-0.000612618
2.22414e-05
-0.000613405
-3.72135e-06
-0.000613703
-3.02218e-05
-0.000613544
-5.7302e-05
-0.000612847
-8.50129e-05
-0.000611388
-0.000113342
-0.000608752
-0.000142217
-0.00060428
-0.000171412
-0.000597034
-0.000200517
-0.00058578
-0.000228817
-0.00056904
-0.000255244
-0.000545232
-0.000278279
-0.000512926
-0.000295999
-0.00047122
-0.000306164
-0.000420174
-0.000306538
-0.000361212
-0.000295328
-0.000297296
-0.00027182
-0.000232685
-0.000236931
-0.000172119
-0.000193549
-0.000119616
-0.000146179
-7.73336e-05
-9.99109e-05
-4.5312e-05
-5.88257e-05
-2.21782e-05
-2.50764e-05
-6.25493e-06
1.08046e-06
3.89398e-06
2.01986e-05
9.35025e-06
3.31755e-05
1.11014e-05
4.07428e-05
1.00943e-05
4.37572e-05
7.39654e-06
4.26296e-05
4.06642e-06
3.75547e-05
1.2558e-06
2.76494e-05
1.18501e-05
5.83446e-07
-1.30561e-05
-9.30441e-07
-1.95381e-05
-6.04326e-06
-1.30366e-05
-1.55486e-05
2.55175e-06
-2.97922e-05
2.26813e-05
-4.92622e-05
4.59346e-05
-7.46292e-05
7.13983e-05
-0.000106553
9.97434e-05
-0.000145164
0.000130725
-0.000189612
0.000163574
-0.000238005
0.000196042
-0.000287802
0.000225649
-0.000336488
0.00024997
-0.000382063
0.000267607
-0.000423219
0.000277932
-0.000459216
0.000281149
-0.000489769
0.000277809
-0.00051493
0.000268823
-0.000535032
0.00025515
-0.000550599
0.000237835
-0.000562282
0.000217782
-0.000570769
0.000195817
-0.000576732
0.000172549
-0.000580773
0.000148465
-0.000583412
0.000123858
-0.000585075
9.89343e-05
-0.000586103
7.37652e-05
-0.000586767
4.83857e-05
-0.000587283
2.2749e-05
-0.000587822
-3.19321e-06
-0.000588522
-2.95376e-05
-0.000589479
-5.63635e-05
-0.000590737
-8.37764e-05
-0.000592256
-0.000111846
-0.000593864
-0.000140633
-0.000595189
-0.000170111
-0.000595574
-0.000200156
-0.000593992
-0.000230424
-0.000588982
-0.000260277
-0.00057866
-0.000288624
-0.000560846
-0.000313834
-0.000533365
-0.000333665
-0.00049454
-0.00034538
-0.000443827
-0.000346055
-0.00038246
-0.000333197
-0.000313836
-0.00030556
-0.000243313
-0.000264071
-0.000177151
-0.000212338
-0.000120697
-0.000156358
-7.66792e-05
-0.000102839
-4.47813e-05
-5.69652e-05
-2.28812e-05
-2.08142e-05
-8.57737e-06
5.90473e-06
1.7541e-11
2.46024e-05
4.2714e-06
3.64815e-05
5.37754e-06
4.26529e-05
4.43594e-06
4.35814e-05
2.53738e-06
3.94522e-05
7.58219e-07
2.94391e-05
1.26094e-05
-6.82291e-07
-1.23816e-05
-5.04424e-06
-1.51666e-05
-1.39611e-05
-4.13361e-06
-2.78691e-05
1.64675e-05
-4.7107e-05
4.19064e-05
-7.21772e-05
7.10093e-05
-0.000103671
0.00010288
-0.000141758
0.000137832
-0.000185725
0.000174682
-0.000233731
0.000211578
-0.000283212
0.000245513
-0.000331499
0.000273932
-0.000376436
0.000294897
-0.000416554
0.000307719
-0.000451037
0.000312405
-0.000479572
0.000309677
-0.000502281
0.000300507
-0.000519614
0.000286148
-0.00053227
0.000267795
-0.000541062
0.00024662
-0.000546834
0.000223545
-0.000550361
0.000199337
-0.000552312
0.000174492
-0.000553221
0.000149369
-0.000553497
0.000124131
-0.00055344
9.88781e-05
-0.000553267
7.35951e-05
-0.000553137
4.82626e-05
-0.000553177
2.27989e-05
-0.0005535
-2.85727e-06
-0.000554216
-2.8806e-05
-0.000555439
-5.51227e-05
-0.00055728
-8.19144e-05
-0.000559837
-0.000109267
-0.000563155
-0.000137292
-0.000567175
-0.000166067
-0.000571651
-0.000195656
-0.000576034
-0.000226017
-0.000579342
-0.000256946
-0.000580028
-0.000287916
-0.000575924
-0.000317919
-0.000564317
-0.000345255
-0.000542263
-0.000367422
-0.000507182
-0.000381127
-0.000457729
-0.000382645
-0.00039475
-0.000368537
-0.000321992
-0.000336829
-0.000246021
-0.000288312
-0.000174848
-0.000227533
-0.000115343
-0.000162349
-7.0682e-05
-0.00010163
-3.99438e-05
-5.15602e-05
-2.00391e-05
-1.40044e-05
-7.89957e-06
1.24547e-05
-1.19316e-06
2.97723e-05
1.74264e-06
3.9709e-05
2.24296e-06
4.30802e-05
1.47222e-06
4.02147e-05
4.50398e-07
3.04615e-05
1.30541e-05
-2.37371e-06
-1.0016e-05
-1.00903e-05
-7.4256e-06
-2.31725e-05
8.93165e-06
-4.16812e-05
3.49975e-05
-6.59625e-05
6.61771e-05
-9.64075e-05
0.000101472
-0.000133282
0.000139749
-0.000176005
0.000180569
-0.000222976
0.000221651
-0.00027165
0.000260264
-0.000319288
0.000293151
-0.000363507
0.000318162
-0.000402675
0.000334068
-0.000435833
0.000340888
-0.000462653
0.000339229
-0.000483292
0.000330326
-0.000498334
0.000315555
-0.000508627
0.000296452
-0.000515159
0.000274334
-0.000518898
0.000250368
-0.000520715
0.000225367
-0.00052131
0.000199939
-0.000521214
0.000174399
-0.00052079
0.000148949
-0.000520275
0.000123616
-0.000519808
9.8409e-05
-0.000519469
7.32506e-05
-0.000519306
4.80921e-05
-0.00051936
2.28425e-05
-0.000519681
-2.54909e-06
-0.00052034
-2.81633e-05
-0.000521432
-5.40478e-05
-0.000523084
-8.02813e-05
-0.000525445
-0.000106926
-0.000528678
-0.00013408
-0.000532922
-0.000161843
-0.000538251
-0.000190348
-0.000544577
-0.00021971
-0.000551527
-0.000250013
-0.000558266
-0.000281193
-0.0005633
-0.000312897
-0.000564325
-0.00034424
-0.00055822
-0.000373535
-0.000541319
-0.000398035
-0.000510091
-0.000413878
-0.000462244
-0.00041639
-0.000398077
-0.000400998
-0.000321633
-0.000364757
-0.000240817
-0.000308346
-0.000165648
-0.000237515
-0.000104545
-0.000162726
-6.07879e-05
-9.53128e-05
-3.23699e-05
-4.24163e-05
-1.51684e-05
-4.74372e-06
-5.49544e-06
2.01056e-05
-7.38161e-07
3.49535e-05
9.5363e-07
4.1395e-05
9.60502e-07
4.0208e-05
3.54525e-07
3.10741e-05
1.34102e-05
-4.4645e-06
-5.5711e-06
-1.58921e-05
4.03079e-06
-3.3288e-05
2.62937e-05
-5.63425e-05
5.8073e-05
-8.5371e-05
9.518e-05
-0.000120482
0.000136596
-0.000161415
0.000180662
-0.000206764
0.000225925
-0.000254255
0.000269125
-0.000301047
0.000307059
-0.000344623
0.000336714
-0.000383074
0.000356613
-0.000415321
0.000366303
-0.000440925
0.00036649
-0.000460089
0.000358384
-0.000473469
0.000343702
-0.000482069
0.000324147
-0.000487006
0.000301385
-0.000489384
0.000276703
-0.000490135
0.000251116
-0.000489999
0.000225224
-0.000489482
0.000199419
-0.000488909
0.000173823
-0.000488449
0.000148488
-0.000488173
0.00012334
-0.000488086
9.83257e-05
-0.00048817
7.33393e-05
-0.000488398
4.83278e-05
-0.000488758
2.32116e-05
-0.000489258
-2.0379e-06
-0.000489936
-2.74724e-05
-0.000490862
-5.31059e-05
-0.000492148
-7.89805e-05
-0.000493936
-0.00010512
-0.000496413
-0.000131587
-0.000499787
-0.000158452
-0.000504279
-0.000185839
-0.00051007
-0.000213903
-0.000517226
-0.000242843
-0.000525555
-0.000272851
-0.000534409
-0.000304032
-0.000542425
-0.000336214
-0.00054728
-0.000368671
-0.000545561
-0.000399746
-0.000532977
-0.000426456
-0.000505061
-0.000444302
-0.000458524
-0.000447535
-0.000393061
-0.000430222
-0.000313067
-0.000388344
-0.000228043
-0.000322543
-0.00015027
-0.000240502
-8.95417e-05
-0.000156044
-4.84771e-05
-8.34836e-05
-2.35012e-05
-2.97245e-05
-9.4741e-06
6.0759e-06
-2.40704e-06
2.78813e-05
4.59399e-07
3.85274e-05
9.78943e-07
3.96828e-05
4.68769e-07
3.15845e-05
1.38748e-05
-6.79975e-06
1.2108e-06
-2.20288e-05
1.93077e-05
-4.3594e-05
4.78234e-05
-7.08277e-05
8.5345e-05
-0.000103938
0.000128269
-0.000142594
0.00017528
-0.000185918
0.000223973
-0.000231806
0.000271834
-0.000277632
0.000314945
-0.000320632
0.000350074
-0.000358728
0.000374807
-0.000390556
0.000388453
-0.000415603
0.00039135
-0.000433985
0.000384884
-0.00044644
0.000370841
-0.000454043
0.000351314
-0.000458061
0.000328167
-0.000459683
0.000303016
-0.000459936
0.000276958
-0.000459566
0.000250753
-0.000459084
0.000224744
-0.000458763
0.000199102
-0.000458725
0.000173785
-0.000458975
0.000148739
-0.000459468
0.00012383
-0.000460126
9.8981e-05
-0.00046088
7.40864e-05
-0.000461666
4.91074e-05
-0.000462451
2.39866e-05
-0.000463221
-1.27822e-06
-0.000463997
-2.67096e-05
-0.000464825
-5.22918e-05
-0.000465787
-7.80329e-05
-0.000467
-0.000103922
-0.000468622
-0.00012998
-0.000470853
-0.000156236
-0.000473939
-0.000182769
-0.000478153
-0.000209702
-0.000483775
-0.000237234
-0.000490999
-0.000265638
-0.000499813
-0.000295228
-0.000509755
-0.00032628
-0.000519617
-0.000358816
-0.000527093
-0.000392274
-0.000528553
-0.000424999
-0.000519139
-0.000453717
-0.000493508
-0.000473166
-0.000447408
-0.000476323
-0.000380023
-0.000455729
-0.000296355
-0.000406212
-0.000207935
-0.00032892
-0.000129555
-0.00023442
-7.1723e-05
-0.000141311
-3.52635e-05
-6.61808e-05
-1.46239e-05
-1.45606e-05
-4.12772e-06
1.73868e-05
2.90498e-07
3.41133e-05
1.29484e-06
3.86784e-05
7.09412e-07
3.21753e-05
1.4585e-05
-9.23935e-06
1.04185e-05
-2.81406e-05
3.82588e-05
-5.35003e-05
7.31278e-05
-8.42941e-05
0.000116174
-0.000120534
0.000164469
-0.000161367
0.000216135
-0.000205352
0.00026793
-0.000249921
0.000316414
-0.000292426
0.000357429
-0.00033042
0.000388074
-0.00036237
0.000406742
-0.000387475
0.000413561
-0.000405806
0.000409668
-0.000418012
0.000397091
-0.00042527
0.000378088
-0.0004289
0.000354944
-0.000430227
0.000329486
-0.000430324
0.000303111
-0.000430003
0.000276629
-0.000429752
0.000250501
-0.000429839
0.000224826
-0.00043033
0.000199593
-0.000431201
0.000174654
-0.000432353
0.000149893
-0.000433684
0.000125162
-0.000435083
0.000100386
-0.000436471
7.54781e-05
-0.000437778
5.04224e-05
-0.000438971
2.51872e-05
-0.000440032
-2.06825e-07
-0.000440974
-2.57574e-05
-0.000441827
-5.14268e-05
-0.00044265
-7.71981e-05
-0.000443523
-0.000103036
-0.000444562
-0.000128929
-0.000445916
-0.000154869
-0.000447786
-0.000180887
-0.000450425
-0.000207052
-0.000454145
-0.000233503
-0.000459295
-0.000260479
-0.000466195
-0.000288321
-0.000474988
-0.00031748
-0.0004854
-0.000348399
-0.000496352
-0.000381318
-0.000505543
-0.000415804
-0.000509096
-0.000450161
-0.000501597
-0.000480662
-0.000476864
-0.000501054
-0.000429814
-0.00050278
-0.000359401
-0.000476628
-0.000271776
-0.00041655
-0.000181178
-0.000325021
-0.000104945
-0.000217546
-5.28972e-05
-0.000118227
-2.26363e-05
-4.48246e-05
-6.97753e-06
1.72511e-06
-1.62643e-07
2.72971e-05
1.61403e-06
3.68973e-05
9.84492e-07
3.28059e-05
1.5566e-05
-1.1536e-05
2.19277e-05
-3.37008e-05
6.04932e-05
-6.2234e-05
0.000101607
-9.57503e-05
0.000149745
-0.000133994
0.000202681
-0.000175596
0.000257774
-0.000218692
0.000311007
-0.000260521
0.00035827
-0.000298658
0.000395555
-0.000331106
0.000420543
-0.000356914
0.000432544
-0.00037584
0.000432503
-0.000388508
0.000422335
-0.000396001
0.000404597
-0.000399759
0.000381845
-0.000401146
0.000356341
-0.000401365
0.000329706
-0.000401249
0.000303003
-0.000401343
0.000276723
-0.000401879
0.000251043
-0.000402926
0.000225872
-0.000404408
0.000201078
-0.000406216
0.000176459
-0.000408206
0.000151884
-0.000410264
0.000127215
-0.000412278
0.000102398
-0.000414179
7.7373e-05
-0.000415908
5.21458e-05
-0.000417439
2.67098e-05
-0.000418757
1.10349e-06
-0.000419874
-2.46504e-05
-0.000420811
-5.04999e-05
-0.000421611
-7.64092e-05
-0.000422329
-0.000102328
-0.000423045
-0.000128224
-0.000423858
-0.000154067
-0.000424908
-0.000179848
-0.000426375
-0.000205594
-0.000428514
-0.000231374
-0.000431652
-0.00025735
-0.000436197
-0.000283783
-0.000442572
-0.00031111
-0.000451084
-0.000339892
-0.000461616
-0.000370789
-0.000473203
-0.000404221
-0.000483468
-0.000439898
-0.000488201
-0.000475929
-0.000481336
-0.000507915
-0.000455873
-0.000528241
-0.000406099
-0.000526399
-0.000331284
-0.000491369
-0.000239631
-0.000416674
-0.00014897
-0.00030821
-7.85654e-05
-0.000188624
-3.50432e-05
-8.83442e-05
-1.20429e-05
-2.12734e-05
-1.55628e-06
1.6812e-05
1.60471e-06
3.37364e-05
1.18285e-06
3.32319e-05
1.67491e-05
-1.35328e-05
3.54193e-05
-3.83871e-05
8.54144e-05
-6.93368e-05
0.000132484
-0.00010463
0.000185087
-0.000143718
0.000241719
-0.000184795
0.000298879
-0.000225768
0.000351945
-0.000263911
0.000396429
-0.000297179
0.000428797
-0.000324087
0.00044746
-0.000344252
0.00045269
-0.000357957
0.000446213
-0.000366281
0.000430643
-0.000370573
0.000408891
-0.000372346
0.000383606
-0.000372835
0.00035683
-0.00037301
0.000329871
-0.000373421
0.000303415
-0.000374362
0.000277656
-0.000375863
0.000252544
-0.000377863
0.000227867
-0.00038021
0.000203426
-0.000382766
0.000179014
-0.000385385
0.000154507
-0.000387967
0.000129797
-0.000390417
0.000104853
-0.000392684
7.9643e-05
-0.000394721
5.419e-05
-0.000396514
2.85085e-05
-0.000398051
2.64891e-06
-0.000399344
-2.33494e-05
-0.000400409
-4.94256e-05
-0.00040128
-7.55291e-05
-0.000401996
-0.000101603
-0.000402613
-0.000127598
-0.000403195
-0.000153475
-0.000403833
-0.000179202
-0.000404639
-0.000204779
-0.000405784
-0.000230222
-0.000407499
-0.000255628
-0.000410126
-0.00028115
-0.000414109
-0.000307123
-0.000419973
-0.000334025
-0.000428153
-0.000362606
-0.000438692
-0.000393681
-0.000450665
-0.000427923
-0.000461537
-0.000465057
-0.00046659
-0.00050286
-0.000458979
-0.000535852
-0.000430868
-0.000554506
-0.000376282
-0.000545957
-0.000295678
-0.000497282
-0.000200672
-0.000403221
-0.000113509
-0.000275791
-5.31359e-05
-0.000148712
-2.00562e-05
-5.43537e-05
-4.37941e-06
1.13152e-06
1.04263e-06
2.83129e-05
1.23668e-06
3.30373e-05
1.79837e-05
-1.50138e-05
5.04002e-05
-4.18039e-05
0.000112289
-7.43023e-05
0.000164916
-0.000110391
0.000221241
-0.000149237
0.000280524
-0.000188729
0.000338416
-0.000226724
0.000389916
-0.000260703
0.00043044
-0.000289079
0.000457159
-0.000310878
0.000469283
-0.000326243
0.000468047
-0.000335892
0.00045588
-0.000341213
0.00043596
-0.000343646
0.000411339
-0.000344611
0.000384569
-0.000345112
0.000357343
-0.000345847
0.000330605
-0.000347105
0.000304682
-0.000348985
0.000279535
-0.000351385
0.00025495
-0.000354179
0.00023066
-0.000357191
0.000206442
-0.000360293
0.000182114
-0.000363356
0.000157571
-0.000366303
0.00013274
-0.00036906
0.000107609
-0.000371592
8.21691e-05
-0.000373861
5.64559e-05
-0.00037586
3.05005e-05
-0.000377578
4.36106e-06
-0.000379026
-2.19086e-05
-0.000380217
-4.82418e-05
-0.00038118
-7.45746e-05
-0.000381944
-0.000100846
-0.000382555
-0.000126995
-0.000383059
-0.00015298
-0.000383515
-0.000178752
-0.000383995
-0.000204307
-0.000384599
-0.000229623
-0.000385471
-0.000254762
-0.00038684
-0.000279786
-0.000389042
-0.000304924
-0.000392573
-0.000330498
-0.000398031
-0.00035715
-0.00040599
-0.000385725
-0.000416579
-0.000417335
-0.000428857
-0.000452781
-0.000439942
-0.000491774
-0.000444419
-0.000531376
-0.000434454
-0.000564465
-0.000401478
-0.000578932
-0.000339839
-0.000558918
-0.000252576
-0.000490493
-0.000156515
-0.000371852
-7.81443e-05
-0.000227084
-3.14553e-05
-0.000101027
-8.92556e-06
-2.14063e-05
-1.84293e-07
1.95768e-05
1.11819e-06
3.17339e-05
1.91035e-05
-1.59086e-05
6.62623e-05
-4.38353e-05
0.000140292
-7.7017e-05
0.000198015
-0.000112983
0.000257262
-0.000150663
0.000318148
-0.000187783
0.000375568
-0.000222297
0.00042439
-0.000252001
0.000460163
-0.000275783
0.000480912
-0.000293148
0.000486659
-0.000304682
0.000479559
-0.000311417
0.000462622
-0.000314889
0.000439414
-0.000316476
0.000412929
-0.000317401
0.00038548
-0.000318397
0.000358341
-0.000319912
0.000332108
-0.000322029
0.0003068
-0.00032472
0.000282218
-0.000327815
0.000258047
-0.000331175
0.000234015
-0.000334633
0.000209902
-0.000338086
0.000185564
-0.000341431
0.000160919
-0.000344616
0.000135925
-0.000347583
0.000110579
-0.000350307
8.48954e-05
-0.000352758
5.89124e-05
-0.00035493
3.26762e-05
-0.000356811
6.2485e-06
-0.000358411
-2.0303e-05
-0.000359738
-4.69081e-05
-0.000360817
-7.34887e-05
-0.000361674
-9.99828e-05
-0.000362347
-0.000126315
-0.000362874
-0.000152447
-0.000363302
-0.000178317
-0.000363678
-0.000203926
-0.000364063
-0.000229232
-0.000364535
-0.000254286
-0.000365225
-0.000279091
-0.000366342
-0.000303804
-0.000368245
-0.000328592
-0.000371461
-0.000353932
-0.000376697
-0.000380488
-0.000384618
-0.000409413
-0.000395417
-0.000441984
-0.000407955
-0.000479234
-0.000418809
-0.000520525
-0.000421545
-0.000561725
-0.000407234
-0.000593245
-0.000366795
-0.000599348
-0.000296042
-0.000561259
-0.000202564
-0.000465325
-0.000110429
-0.00031924
-4.69952e-05
-0.000164436
-1.52171e-05
-5.31956e-05
-2.15999e-06
6.5229e-06
8.57477e-07
2.87116e-05
1.99615e-05
-1.61129e-05
8.23404e-05
-4.43267e-05
0.000168596
-7.73463e-05
0.000230964
-0.00011237
0.000292355
-0.000148148
0.000353883
-0.000182381
0.000409848
-0.00021322
0.000455203
-0.000238828
0.000485805
-0.000258541
0.000500611
-0.000272276
0.000500421
-0.000280955
0.00048823
-0.000285788
0.000467476
-0.000288313
0.000441935
-0.000289743
0.000414376
-0.000291062
0.000386796
-0.000292746
0.000360038
-0.000295041
0.000334402
-0.000297892
0.000309662
-0.000301205
0.00028553
-0.000304791
0.000261641
-0.000308526
0.000237748
-0.000312266
0.000213647
-0.000315942
0.000189238
-0.000319472
0.000164451
-0.000322823
0.000139272
-0.000325946
0.000113703
-0.000328826
8.77705e-05
-0.00033143
6.15148e-05
-0.000333753
3.49947e-05
-0.000335781
8.2726e-06
-0.000337521
-1.85692e-05
-0.000338975
-4.54588e-05
-0.000340167
-7.23025e-05
-0.000341118
-9.90378e-05
-0.000341864
-0.000125574
-0.00034244
-0.000151877
-0.000342889
-0.000177873
-0.00034325
-0.000203571
-0.00034357
-0.000228916
-0.000343892
-0.000253969
-0.000344286
-0.0002787
-0.000344856
-0.000303237
-0.000345818
-0.000327632
-0.000347533
-0.000352218
-0.000350609
-0.000377414
-0.00035583
-0.000404191
-0.000363984
-0.000433832
-0.000375186
-0.00046803
-0.000387936
-0.000507779
-0.000397879
-0.000551777
-0.0003973
-0.000593826
-0.000376089
-0.000620549
-0.000325397
-0.000611954
-0.00024431
-0.000546414
-0.000147822
-0.000415738
-6.76967e-05
-0.00024456
-2.33278e-05
-9.75477e-05
-4.9897e-06
-1.18229e-05
4.75673e-07
2.3246e-05
2.04393e-05
-1.56717e-05
9.7965e-05
-4.3386e-05
0.000196386
-7.55005e-05
0.000262996
-0.000108914
0.000325824
-0.000142265
0.000387176
-0.000173331
0.000440947
-0.000200524
0.000482354
-0.000222381
0.000507682
-0.000238632
0.000516831
-0.00024952
0.000511321
-0.000256186
0.000494872
-0.000259894
0.00047119
-0.000262077
0.000444098
-0.000263734
0.000416036
-0.000265608
0.000388654
-0.000267965
0.000362396
-0.000270906
0.000337329
-0.000274297
0.000313054
-0.000278025
0.000289248
-0.00028191
0.000265526
-0.000285855
0.000241686
-0.000289748
0.000217542
-0.000293546
0.000193031
-0.000297185
0.000168092
-0.000300645
0.000142731
-0.000303884
0.000116944
-0.000306888
9.07742e-05
-0.000309624
6.42553e-05
-0.000312086
3.7459e-05
-0.000314256
1.04469e-05
-0.000316138
-1.6684e-05