/*--------------------------------*- C++ -*----------------------------------*\
| =========                 |                                                 |
| \\      /  F ield         | OpenFOAM: The Open Source CFD Toolbox           |
|  \\    /   O peration     | Version:  2406                                  |
|   \\  /    A nd           | Website:  www.openfoam.com                      |
|    \\/     M anipulation  |                                                 |
\*---------------------------------------------------------------------------*/
FoamFile
{
    version     2.0;
    format      ascii;
    arch        "LSB;label=32;scalar=64";
    class       volScalarField;
    location    "43.2";
    object      p;
}
// * * * * * * * * * * * * * * * * * * * * * * * * * * * * * * * * * * * * * //

dimensions      [0 2 -2 0 0 0 0];

internalField   nonuniform List<scalar> 
3600
(
0.0408099
0.0408384
0.0408269
0.0408002
0.0407299
0.0406433
0.0405337
0.0404173
0.0402878
0.0401471
0.039986
0.0397996
0.0395797
0.0393218
0.0390203
0.0386725
0.0382767
0.0378341
0.0373498
0.0368347
0.0363077
0.0357971
0.0353393
0.034976
0.0347495
0.0346976
0.0348495
0.0352215
0.035815
0.0366129
0.0375776
0.0386498
0.0397488
0.0407759
0.0416227
0.0421818
0.0423621
0.042104
0.0413934
0.0402681
0.0388152
0.0371581
0.035435
0.033776
0.0322835
0.031023
0.0300209
0.0292732
0.0287506
0.0284141
0.0282161
0.0281175
0.0280798
0.0280825
0.0281011
0.0281349
0.0281652
0.0282067
0.0282344
0.0282676
0.0407823
0.0408117
0.0407928
0.040766
0.0406988
0.0406211
0.0405221
0.0404176
0.0402999
0.0401716
0.040024
0.0398538
0.0396536
0.0394194
0.0391457
0.0388285
0.038464
0.0380515
0.0375942
0.0371017
0.0365894
0.0360797
0.0356026
0.0351966
0.0349051
0.0347711
0.0348303
0.0351063
0.0356059
0.0363164
0.0372033
0.0382094
0.0392548
0.0402418
0.0410612
0.0416045
0.0417788
0.0415225
0.0408198
0.0397086
0.0382778
0.0366546
0.0349811
0.0333904
0.0319838
0.0308218
0.0299209
0.0292654
0.0288161
0.0285282
0.0283543
0.0282606
0.0282142
0.0282017
0.0282016
0.0282174
0.0282287
0.0282551
0.0282669
0.0283005
0.0407881
0.0408271
0.0408056
0.0407766
0.0407045
0.0406254
0.0405283
0.04043
0.0403213
0.040204
0.0400679
0.0399091
0.0397196
0.0394942
0.0392252
0.0389059
0.0385296
0.0380917
0.0375896
0.0370274
0.0364198
0.0357955
0.035196
0.0346699
0.0342681
0.0340376
0.034016
0.0342276
0.0346799
0.0353602
0.0362341
0.0372442
0.038311
0.0393361
0.0402089
0.0408179
0.0410646
0.0408803
0.0402409
0.0391771
0.0377739
0.0361596
0.0344827
0.0328867
0.031484
0.0303433
0.0294848
0.0288912
0.0285164
0.0283067
0.028205
0.0281709
0.028168
0.0281846
0.0282008
0.0282255
0.0282384
0.0282675
0.0282771
0.0283241
0.0408046
0.0408467
0.040818
0.0407821
0.0407037
0.0406244
0.0405333
0.0404468
0.0403539
0.0402539
0.0401352
0.039992
0.039814
0.0395916
0.0393113
0.0389585
0.0385175
0.0379764
0.0373333
0.0366006
0.0358051
0.0349862
0.0341931
0.0334807
0.0329038
0.0325121
0.0323448
0.0324274
0.0327683
0.033357
0.0341626
0.0351322
0.0361918
0.037248
0.0381941
0.0389185
0.039318
0.0393137
0.038867
0.0379919
0.0367586
0.0352855
0.0337192
0.0322077
0.0308728
0.0297936
0.0289982
0.0284739
0.0281745
0.0280436
0.028018
0.0280517
0.0281029
0.0281589
0.0281992
0.0282375
0.0282537
0.0282843
0.0282894
0.0283452
0.0408624
0.0409033
0.0408649
0.0408165
0.0407276
0.040643
0.0405539
0.0404747
0.040392
0.0403011
0.0401862
0.040036
0.0398326
0.0395565
0.0391826
0.0386868
0.0380505
0.037269
0.0363532
0.0353311
0.0342451
0.0331486
0.0321
0.0311581
0.0303778
0.029806
0.0294794
0.0294216
0.0296412
0.0301301
0.0308626
0.0317933
0.0328577
0.0339731
0.0350413
0.0359557
0.0366112
0.0369182
0.036818
0.0362979
0.0353993
0.0342164
0.0328807
0.0315376
0.030316
0.0293087
0.0285592
0.0280686
0.0278016
0.0277091
0.0277301
0.0278165
0.0279211
0.0280259
0.0281057
0.0281739
0.0282092
0.0282525
0.0282623
0.0283249
0.0409517
0.0409828
0.040931
0.0408651
0.0407651
0.040675
0.0405884
0.0405142
0.0404359
0.0403416
0.0402084
0.0400132
0.0397247
0.0393088
0.0387313
0.0379682
0.0370115
0.0358737
0.0345862
0.0331958
0.0317588
0.0303366
0.028991
0.0277811
0.0267593
0.0259697
0.0254451
0.0252069
0.025263
0.0256081
0.026222
0.0270693
0.0280989
0.0292436
0.0304217
0.0315401
0.0325007
0.0332097
0.0335914
0.0336021
0.0332429
0.0325656
0.0316672
0.0306724
0.029707
0.0288738
0.0282335
0.0278062
0.0275736
0.0275007
0.0275372
0.0276422
0.0277699
0.0279012
0.0280069
0.0280972
0.0281488
0.0282017
0.0282157
0.028277
0.0410931
0.0411067
0.0410392
0.0409515
0.0408389
0.0407387
0.0406473
0.0405641
0.0404677
0.0403337
0.0401267
0.0398055
0.0393231
0.0386363
0.0377146
0.0365489
0.0351544
0.0335679
0.0318423
0.0300404
0.0282296
0.0264763
0.0248427
0.0233837
0.0221454
0.0211639
0.020465
0.0200641
0.0199664
0.0201666
0.020649
0.0213874
0.0223445
0.0234713
0.0247077
0.0259824
0.0272158
0.028324
0.0292269
0.0298586
0.0301799
0.0301892
0.0299276
0.0294741
0.0289292
0.0283931
0.0279425
0.0276217
0.0274381
0.0273793
0.0274123
0.0275098
0.027634
0.027769
0.0278847
0.0279879
0.0280527
0.0281137
0.0281337
0.0281893
0.041287
0.041274
0.0411903
0.041078
0.0409527
0.0408371
0.04073
0.0406157
0.0404644
0.0402328
0.0398682
0.0393109
0.0385064
0.0374167
0.0360307
0.0343665
0.0324678
0.0303961
0.0282237
0.0260254
0.0238739
0.0218348
0.0199646
0.0183093
0.0169047
0.0157762
0.0149404
0.0144053
0.0141714
0.0142322
0.0145747
0.0151792
0.01602
0.0170648
0.0182746
0.0196033
0.0209975
0.0223972
0.0237371
0.0249511
0.0259785
0.0267735
0.0273149
0.0276125
0.027708
0.0276664
0.0275594
0.02745
0.0273771
0.0273608
0.0273959
0.0274757
0.0275767
0.0276919
0.0277955
0.0278926
0.0279574
0.0280167
0.0280383
0.0280833
0.0415451
0.0414971
0.0413984
0.0412583
0.0411167
0.0409724
0.0408261
0.0406398
0.0403715
0.0399536
0.0393177
0.0383943
0.037138
0.0355331
0.0336014
0.0313937
0.0289831
0.0264528
0.0238885
0.02137
0.0189671
0.016737
0.0147244
0.0129615
0.011471
0.0102663
0.00935447
0.00873624
0.00840763
0.00836023
0.00858196
0.00905727
0.00976784
0.0106927
0.0118089
0.013091
0.0145111
0.0160371
0.017632
0.0192512
0.0208424
0.0223466
0.0237028
0.0248563
0.0257698
0.0264337
0.0268704
0.0271305
0.027274
0.02736
0.0274248
0.0274945
0.0275679
0.0276517
0.0277286
0.0278054
0.0278587
0.0279085
0.0279274
0.0279608
0.0418638
0.0417736
0.0416631
0.0414922
0.0413272
0.0411339
0.0409122
0.0405951
0.0401256
0.0394125
0.0383823
0.0369727
0.0351663
0.0329831
0.0304838
0.0277519
0.0248852
0.0219803
0.0191261
0.0163965
0.0138496
0.0115272
0.00945822
0.00766025
0.00614335
0.00491127
0.00396361
0.00329629
0.00290261
0.00277323
0.00289692
0.00326063
0.00385038
0.00465172
0.00565076
0.00683472
0.0081924
0.00971356
0.0113874
0.0131989
0.0151241
0.0171239
0.0191391
0.0210887
0.0228763
0.024406
0.0256078
0.0264609
0.0270005
0.0273066
0.0274646
0.0275525
0.0276064
0.0276562
0.0276972
0.0277423
0.0277725
0.0278042
0.0278149
0.0278369
0.0422342
0.0420968
0.041977
0.0417685
0.0415643
0.0412884
0.0409379
0.0404115
0.03964
0.0385173
0.0369829
0.0350006
0.0325962
0.0298316
0.026806
0.0236286
0.0204114
0.0172513
0.0142286
0.0114009
0.00880843
0.00647498
0.00441395
0.00263045
0.00112533
-0.000104179
-0.00106248
-0.00175598
-0.00219215
-0.00238011
-0.00232993
-0.00205281
-0.00156012
-0.000863013
2.89845e-05
0.00110875
0.00237302
0.00382272
0.00546298
0.00730086
0.00934101
0.0115777
0.0139839
0.0164994
0.0190219
0.0214093
0.0235021
0.0251655
0.0263372
0.0270548
0.0274266
0.0275927
0.0276523
0.0276762
0.0276804
0.0276892
0.0276897
0.0276987
0.0276973
0.0277105
0.0426316
0.042445
0.0423171
0.0420606
0.0417936
0.0413908
0.0408445
0.0400194
0.0388429
0.0372109
0.0350961
0.032504
0.0295106
0.0262182
0.0227563
0.019247
0.0158018
0.0125043
0.00941604
0.00657327
0.00399705
0.00169496
-0.000331311
-0.002085
-0.00357028
-0.00479287
-0.00575828
-0.00647305
-0.00694388
-0.00717872
-0.00718598
-0.00697508
-0.0065554
-0.00593613
-0.00512485
-0.00412673
-0.0029428
-0.001569
5.09368e-06
0.00179589
0.00382417
0.00610967
0.00866152
0.0114629
0.0144519
0.0175045
0.0204317
0.0230075
0.0250319
0.0264123
0.0271991
0.0275608
0.0276776
0.0276953
0.0276681
0.0276407
0.0276083
0.0275923
0.0275762
0.0275832
0.0430143
0.0427784
0.0426387
0.0423171
0.0419528
0.0413679
0.0405505
0.0393379
0.0376698
0.0354628
0.0327401
0.0295561
0.0260361
0.0223132
0.0185335
0.0148155
0.0112562
0.00791654
0.00483497
0.00202664
-0.000503273
-0.00275886
-0.00474534
-0.00647016
-0.00793906
-0.00915824
-0.0101325
-0.0108676
-0.0113685
-0.0116419
-0.0116943
-0.0115336
-0.0111673
-0.0106034
-0.00984834
-0.00890685
-0.00778008
-0.0064647
-0.00495094
-0.00322197
-0.00125313
0.000985983
0.00352656
0.00638933
0.00956529
0.0129899
0.0165158
0.0199052
0.0228631
0.02513
0.0265933
0.0273521
0.0276299
0.027682
0.0276374
0.0275788
0.0275145
0.0274744
0.0274429
0.0274459
0.0433273
0.0430438
0.0428845
0.0424763
0.0419747
0.0411492
0.0399883
0.0383143
0.0360979
0.0332935
0.029984
0.026272
0.022323
0.0182859
0.0143066
0.0104857
0.00689685
0.00357442
0.000535546
-0.00222172
-0.00470267
-0.00691811
-0.00887589
-0.0105845
-0.0120491
-0.013275
-0.0142653
-0.0150245
-0.0155558
-0.0158644
-0.015955
-0.015834
-0.0155072
-0.0149815
-0.0142622
-0.013354
-0.0122589
-0.0109755
-0.00949729
-0.00781127
-0.00589638
-0.00372298
-0.00125382
0.0015509
0.00472071
0.008253
0.0120769
0.0160192
0.0197865
0.0230142
0.0253879
0.0268106
0.0274403
0.0276062
0.0275726
0.0274925
0.0273991
0.0273369
0.0272903
0.0272899
0.0434998
0.0431703
0.042978
0.0424571
0.0417749
0.040654
0.0390909
0.0369097
0.0341283
0.0307497
0.0269176
0.0227742
0.0185107
0.014275
0.0101983
0.00635391
0.00278933
-0.000485448
-0.00346962
-0.00617668
-0.00861707
-0.0108043
-0.012746
-0.0144498
-0.0159193
-0.0171584
-0.0181687
-0.018953
-0.0195135
-0.0198538
-0.0199772
-0.0198887
-0.0195928
-0.019095
-0.0183999
-0.0175117
-0.0164329
-0.0151637
-0.0137007
-0.0120359
-0.0101544
-0.00803309
-0.00563909
-0.00292978
0.000141235
0.00361227
0.00748253
0.0116736
0.015974
0.0200291
0.0233962
0.0257318
0.0269804
0.0274217
0.0274515
0.0273688
0.0272506
0.0271678
0.0271067
0.0271015
0.043461
0.0430878
0.0428466
0.0421883
0.0412873
0.0398291
0.0378287
0.0351285
0.0318048
0.0279132
0.0236507
0.0191861
0.0147196
0.0103829
0.00628361
0.00246463
-0.00105009
-0.00426984
-0.00720402
-0.00987243
-0.0122866
-0.0144602
-0.0163987
-0.0181086
-0.0195913
-0.0208494
-0.021883
-0.0226939
-0.0232829
-0.0236527
-0.0238052
-0.0237444
-0.0234735
-0.022997
-0.0223184
-0.0214416
-0.020369
-0.0191019
-0.0176392
-0.0159768
-0.0141059
-0.0120111
-0.00966879
-0.00704319
-0.00408823
-0.000748799
0.00301786
0.00721567
0.0117431
0.0163454
0.0205821
0.0239421
0.0260741
0.0270485
0.0272501
0.0271972
0.027063
0.026958
0.0268824
0.0268687
0.04314
0.0427247
0.0424176
0.0416007
0.0404522
0.0386341
0.0361895
0.0329931
0.029184
0.0248664
0.0202794
0.0156022
0.0110296
0.00666692
0.00259459
-0.0011726
-0.00462887
-0.00779675
-0.0106904
-0.0133319
-0.0157314
-0.0179012
-0.0198442
-0.0215655
-0.0230646
-0.0243431
-0.0253998
-0.0262359
-0.0268511
-0.0272473
-0.0274256
-0.0273889
-0.0271394
-0.0266807
-0.0260156
-0.0251473
-0.0240781
-0.0228097
-0.0213422
-0.0196741
-0.017801
-0.0157142
-0.0133988
-0.0108296
-0.00797046
-0.00476732
-0.00116151
0.00290255
0.00741646
0.0122577
0.0170897
0.0213824
0.024556
0.0263339
0.0269364
0.0269561
0.0268317
0.026699
0.0266072
0.0265793
0.0424865
0.0420322
0.041645
0.0406568
0.0392474
0.0370696
0.0342026
0.0305621
0.0263481
0.0217046
0.0168982
0.012104
0.00750055
0.00316233
-0.000855692
-0.00456203
-0.00796264
-0.0110879
-0.0139524
-0.0165784
-0.0189728
-0.0211463
-0.0230993
-0.0248356
-0.0263531
-0.0276527
-0.0287323
-0.0295925
-0.0302322
-0.0306526
-0.0308539
-0.0308383
-0.0306073
-0.0301637
-0.0295096
-0.0286479
-0.0275805
-0.0263094
-0.0248353
-0.0231583
-0.0212768
-0.0191863
-0.0168797
-0.0143408
-0.0115461
-0.00845198
-0.00500361
-0.00112435
0.00323536
0.00806909
0.0131844
0.01816
0.0223381
0.0251226
0.0264106
0.0266321
0.0265388
0.0263879
0.0262707
0.0262234
0.0414681
0.0409782
0.0405011
0.0393387
0.0376707
0.0351548
0.0319104
0.027898
0.0233708
0.0185013
0.0135696
0.00873565
0.00415567
-0.000126509
-0.00407696
-0.00772144
-0.0110721
-0.0141629
-0.0170065
-0.0196234
-0.0220175
-0.0241975
-0.0261617
-0.027913
-0.0294479
-0.0307671
-0.0318676
-0.0327496
-0.0334112
-0.0338531
-0.0340749
-0.0340782
-0.0338636
-0.0334336
-0.0327897
-0.0319344
-0.0308697
-0.0295974
-0.028119
-0.0264349
-0.0245455
-0.0224487
-0.0201423
-0.017617
-0.0148608
-0.0118423
-0.00852074
-0.00481981
-0.000667605
0.00400784
0.00914672
0.0144953
0.0194684
0.0233143
0.0255039
0.0262102
0.0261522
0.0260192
0.0258615
0.0257901
0.0400855
0.039566
0.0389952
0.0376666
0.0357581
0.0329441
0.0293846
0.0250835
0.0203366
0.0153333
0.0103547
0.00553864
0.00101747
-0.00319219
-0.00707189
-0.0106589
-0.0139671
-0.0170312
-0.0198602
-0.0224729
-0.0248695
-0.0270576
-0.0290335
-0.0307996
-0.0323513
-0.0336892
-0.0348092
-0.0357115
-0.0363934
-0.0368551
-0.0370955
-0.0371155
-0.0369155
-0.0364973
-0.0358621
-0.0350125
-0.0339503
-0.0326776
-0.0311963
-0.0295073
-0.0276122
-0.02551
-0.0232019
-0.0206821
-0.0179478
-0.0149775
-0.0117478
-0.00819303
-0.00424482
0.000208594
0.00519912
0.0106425
0.0161187
0.0208846
0.0241122
0.0255652
0.025677
0.0255547
0.0253767
0.0252623
0.0383626
0.037821
0.0371583
0.0356804
0.033561
0.0305002
0.0266951
0.0221887
0.0173075
0.0122473
0.00728165
0.0025232
-0.0019181
-0.00604774
-0.00985752
-0.0133914
-0.0166623
-0.0197036
-0.0225206
-0.0251298
-0.0275287
-0.0297238
-0.0317098
-0.0334888
-0.0350553
-0.0364097
-0.0375473
-0.0384679
-0.039168
-0.0396476
-0.0399046
-0.0399399
-0.0397529
-0.0393454
-0.0387185
-0.0378744
-0.0368153
-0.0355435
-0.0340615
-0.0323705
-0.0304733
-0.0283692
-0.0260616
-0.0235463
-0.0208267
-0.0178878
-0.0147216
-0.0112766
-0.00750187
-0.00327531
0.00148115
0.00682027
0.0125032
0.0179323
0.0221921
0.024523
0.0251267
0.0249455
0.0248117
0.0246189
0.0363529
0.0357987
0.0350514
0.033448
0.0311554
0.0279056
0.0239262
0.019293
0.0143518
0.00929652
0.00438735
-0.000288017
-0.00463886
-0.00868731
-0.012431
-0.0159169
-0.019155
-0.0221769
-0.0249836
-0.0275899
-0.0299908
-0.0321921
-0.0341871
-0.0359778
-0.037558
-0.0389278
-0.0400818
-0.0410194
-0.0417366
-0.0422326
-0.0425051
-0.0425541
-0.0423789
-0.0419808
-0.041361
-0.0405217
-0.0394654
-0.0381947
-0.0367129
-0.0350216
-0.0331249
-0.031022
-0.0287184
-0.0262096
-0.0235036
-0.0205882
-0.0174681
-0.0141031
-0.0104654
-0.00644037
-0.00193951
0.00317869
0.00882858
0.0146387
0.0197404
0.0230326
0.0243882
0.0242019
0.0241235
0.0238488
0.0341238
0.0335675
0.0327459
0.0310444
0.0286187
0.0252364
0.0211475
0.016454
0.0115108
0.00650464
0.00167954
-0.00289908
-0.00715599
-0.0111249
-0.0148061
-0.0182471
-0.0214545
-0.024457
-0.0272526
-0.0298542
-0.0322549
-0.0344599
-0.0364618
-0.038262
-0.0398538
-0.041237
-0.0424057
-0.0433586
-0.0440911
-0.0446021
-0.0448885
-0.04495
-0.0447855
-0.0443961
-0.0437829
-0.042948
-0.0418947
-0.0406255
-0.0391451
-0.0374549
-0.0355611
-0.0334622
-0.0311663
-0.0286675
-0.0259778
-0.0230843
-0.020002
-0.0166973
-0.0131659
-0.00930728
-0.00504662
-0.00019982
0.00526059
0.0111866
0.0168506
0.0211089
0.0232776
0.023372
0.0232462
0.0229491
0.0317583
0.0312114
0.0303284
0.028557
0.0260382
0.0225762
0.0184347
0.0137359
0.00883511
0.00390927
-0.000814921
-0.00529064
-0.00945453
-0.0133477
-0.0169708
-0.0203702
-0.0235487
-0.0265327
-0.0293169
-0.031913
-0.0343125
-0.0365201
-0.0385276
-0.0403362
-0.0419386
-0.0433341
-0.0445163
-0.0454834
-0.0462302
-0.0467549
-0.0470541
-0.047127
-0.0469722
-0.0465904
-0.0459831
-0.0451521
-0.0441014
-0.0428335
-0.0413548
-0.0396664
-0.0377768
-0.0356838
-0.0333984
-0.0309128
-0.0282428
-0.0253732
-0.0223269
-0.0190723
-0.0156261
-0.0119013
-0.00785103
-0.00327993
0.00190683
0.00773381
0.0136925
0.0187629
0.0217348
0.02243
0.022156
0.0219042
0.0293387
0.0288125
0.027881
0.0260663
0.0234894
0.0199918
0.0158422
0.0111778
0.0063481
0.00151956
-0.00309762
-0.00747103
-0.0115461
-0.0153679
-0.0189363
-0.0222957
-0.0254454
-0.0284096
-0.0311806
-0.0337687
-0.0361646
-0.0383723
-0.0403832
-0.0421979
-0.0438088
-0.0452146
-0.0464084
-0.0473879
-0.0481473
-0.0486843
-0.0489949
-0.0490779
-0.0489319
-0.048557
-0.047955
-0.0471276
-0.0460796
-0.0448133
-0.0433368
-0.0416508
-0.0397665
-0.0376806
-0.0354079
-0.0329381
-0.0302915
-0.0274489
-0.0244404
-0.0212324
-0.0178596
-0.0142438
-0.0103731
-0.00605632
-0.0011777
0.00440757
0.0104331
0.0160437
0.019814
0.0212401
0.020886
0.020676
0.0269492
0.0264548
0.0254879
0.0236536
0.021049
0.017552
0.0134289
0.00882769
0.00408781
-0.000634324
-0.00514365
-0.00941829
-0.01341
-0.0171655
-0.0206831
-0.0240048
-0.027127
-0.0300714
-0.0328289
-0.0354084
-0.0378
-0.0400069
-0.0420202
-0.04384
-0.0454584
-0.0468734
-0.0480776
-0.0490682
-0.049839
-0.0503869
-0.0507079
-0.0507999
-0.0506617
-0.0502928
-0.0496956
-0.0488712
-0.0478257
-0.0465607
-0.0450865
-0.043403
-0.0415247
-0.0394466
-0.037188
-0.0347356
-0.0321152
-0.0293026
-0.0263353
-0.0231743
-0.01987
-0.0163477
-0.0126308
-0.00853806
-0.0039706
0.00129874
0.00720295
0.0130719
0.0175841
0.0196945
0.0194999
0.0192423
0.0246619
0.0242094
0.0232189
0.0213843
0.0187748
0.0153046
0.01123
0.00670788
0.00206446
-0.00255186
-0.00695933
-0.0111428
-0.0150586
-0.0187531
-0.0222234
-0.0255085
-0.0286031
-0.0315266
-0.0342687
-0.0368376
-0.0392225
-0.0414264
-0.0434398
-0.0452625
-0.0468861
-0.0483081
-0.0495207
-0.0505204
-0.0513005
-0.0518577
-0.0521874
-0.0522871
-0.0521556
-0.0517919
-0.0511989
-0.050377
-0.0493339
-0.0480702
-0.0465987
-0.0449179
-0.043046
-0.0409761
-0.0387324
-0.0362982
-0.0337061
-0.0309257
-0.0280028
-0.0248911
-0.0216548
-0.0182174
-0.0146356
-0.0107383
-0.00646651
-0.00153959
0.00410054
0.00999926
0.0150963
0.0177942
0.0180172
0.0176016
0.0225426
0.0221415
0.0211388
0.0193198
0.0167234
0.0132988
0.00928766
0.00485361
0.000308214
-0.00420608
-0.00851903
-0.0126193
-0.0164664
-0.0201055
-0.0235324
-0.0267835
-0.0298518
-0.0327552
-0.0354823
-0.0380404
-0.0404185
-0.0426189
-0.0446318
-0.0464567
-0.0480845
-0.0495123
-0.050732
-0.0517395
-0.0525278
-0.0530927
-0.0534299
-0.0535361
-0.0534103
-0.0530507
-0.0524613
-0.0516414
-0.0506005
-0.0493376
-0.0478688
-0.0461903
-0.0443251
-0.042263
-0.0400347
-0.0376189
-0.0350559
-0.0323089
-0.029433
-0.0263727
-0.023206
-0.01985
-0.0163913
-0.0126661
-0.00866638
-0.00408157
0.00120123
0.00695823
0.0124031
0.0155944
0.016367
0.0157449
0.02064
0.0202983
0.0192932
0.0175016
0.0149295
0.0115614
0.00761924
0.00327324
-0.00118059
-0.00560301
-0.0098334
-0.0138613
-0.0176488
-0.0212385
-0.0246259
-0.0278447
-0.0308873
-0.0337697
-0.0364806
-0.0390264
-0.0413958
-0.0435907
-0.0456011
-0.0474257
-0.0490555
-0.0504869
-0.0517115
-0.0527244
-0.0535187
-0.0540895
-0.0544325
-0.0545434
-0.0544221
-0.0540655
-0.0534789
-0.0526601
-0.051621
-0.0503585
-0.0488922
-0.0472158
-0.0453571
-0.0433024
-0.0410893
-0.0386912
-0.0361577
-0.0334439
-0.0306164
-0.0276086
-0.0245135
-0.0212375
-0.0178951
-0.0143245
-0.0105719
-0.00631496
-0.00143752
0.00405016
0.00958672
0.0131641
0.014462
0.0136732
0.0189939
0.0187192
0.0177218
0.0159678
0.0134282
0.0101236
0.00625285
0.00199253
-0.00237692
-0.00671725
-0.0108758
-0.014841
-0.0185768
-0.0221232
-0.0254755
-0.0286651
-0.031684
-0.0345472
-0.0372431
-0.0397772
-0.0421385
-0.0443279
-0.0463357
-0.0481597
-0.0497908
-0.0512248
-0.0524532
-0.0534704
-0.0542696
-0.0548449
-0.0551923
-0.0553068
-0.0551888
-0.0548341
-0.0542495
-0.0534309
-0.052393
-0.0511301
-0.0496659
-0.0479906
-0.046138
-0.0440896
-0.041891
-0.0395093
-0.0370043
-0.0343225
-0.0315433
-0.0285878
-0.0255654
-0.0223684
-0.0191383
-0.0157093
-0.0121814
-0.0082308
-0.00377274
0.00135541
0.00676209
0.0105894
0.0122972
0.0114344
0.0176264
0.0174245
0.0164441
0.014735
0.0122323
0.00899285
0.00519038
0.00100804
-0.00328921
-0.00756145
-0.0116622
-0.0155769
-0.0192709
-0.0227808
-0.0261024
-0.0292652
-0.0322617
-0.0351056
-0.0377859
-0.0403074
-0.0426591
-0.0448415
-0.0468448
-0.0486662
-0.0502966
-0.0517311
-0.0529612
-0.0539805
-0.0547824
-0.0553601
-0.0557103
-0.0558264
-0.0557103
-0.0553559
-0.0547722
-0.0539526
-0.052915
-0.0516506
-0.0501878
-0.0485124
-0.046665
-0.0446212
-0.0424358
-0.0400682
-0.0375901
-0.0349377
-0.0322053
-0.0293
-0.0263497
-0.0232296
-0.0201089
-0.0168106
-0.0134884
-0.00981851
-0.00577115
-0.00105555
0.00405865
0.00798423
0.00996995
0.00912669
0.0165525
0.0164284
0.0154756
0.0138194
0.0113578
0.00818536
0.00444887
0.000338406
-0.00389603
-0.0081111
-0.0121651
-0.016039
-0.019699
-0.0231787
-0.0264746
-0.0296143
-0.0325914
-0.0354186
-0.0380854
-0.0405957
-0.0429393
-0.0451156
-0.047115
-0.048934
-0.0505637
-0.0519983
-0.0532296
-0.0542502
-0.0550541
-0.0556332
-0.0559852
-0.0561018
-0.0559867
-0.0556313
-0.0550475
-0.0542255
-0.0531873
-0.0519198
-0.0504574
-0.04878
-0.0469364
-0.0448948
-0.0427207
-0.040364
-0.0379101
-0.0352831
-0.0325945
-0.0297352
-0.0268547
-0.0238076
-0.0207925
-0.017615
-0.0144816
-0.0110648
-0.00740569
-0.00312093
0.00159747
0.00547982
0.00762998
0.00687048
0.0157703
0.0157265
0.0148113
0.0132152
0.0107974
0.00769149
0.00401621
-3.09242e-05
-0.0042147
-0.00838631
-0.0124073
-0.0162525
-0.0198884
-0.0233451
-0.0266201
-0.0297399
-0.0326993
-0.0355103
-0.0381637
-0.0406626
-0.0429972
-0.0451663
-0.0471606
-0.0489759
-0.0506034
-0.0520364
-0.0532674
-0.0542875
-0.0550918
-0.0556703
-0.0560225
-0.0561377
-0.0560221
-0.055664
-0.0550788
-0.0542525
-0.0532123
-0.0519398
-0.0504761
-0.0487944
-0.0469525
-0.0449101
-0.0427443
-0.0403944
-0.0379609
-0.035354
-0.0327045
-0.0298852
-0.0270696
-0.0240891
-0.0211744
-0.0181067
-0.0151466
-0.0119541
-0.008653
-0.00478937
-0.000521736
0.00320398
0.00542484
0.00478001
0.0152743
0.0153114
0.0144459
0.0129196
0.0105517
0.007515
0.0039006
-8.68326e-05
-0.00422634
-0.00836275
-0.0123595
-0.0161843
-0.0198034
-0.0232433
-0.0265027
-0.0296069
-0.0325523
-0.0353506
-0.0379934
-0.0404834
-0.0428114
-0.0449753
-0.0469663
-0.0487791
-0.0504055
-0.0518376
-0.0530687
-0.0540884
-0.0548931
-0.0554707
-0.0558228
-0.0559358
-0.055819
-0.0554569
-0.0548693
-0.0540371
-0.0529936
-0.0517138
-0.0502469
-0.048558
-0.0467152
-0.044668
-0.0425069
-0.0401586
-0.0377406
-0.035147
-0.0325304
-0.0297429
-0.0269853
-0.0240622
-0.0212403
-0.0182697
-0.0154674
-0.0124702
-0.00949289
-0.00602136
-0.00222383
0.00126549
0.00347547
0.00295102
0.0150428
0.0151573
0.0143527
0.0129062
0.0105946
0.00763024
0.00407621
0.000144667
-0.00395802
-0.00806903
-0.0120524
-0.0158673
-0.0194788
-0.0229089
-0.0261578
-0.0292498
-0.0321836
-0.0349703
-0.0376034
-0.0400848
-0.0424062
-0.0445647
-0.0465521
-0.048362
-0.0499869
-0.0514174
-0.0526478
-0.0536661
-0.0544703
-0.0550458
-0.0553967
-0.0555059
-0.0553868
-0.0550187
-0.0544272
-0.0535868
-0.0525382
-0.0512483
-0.0497757
-0.0480758
-0.0462287
-0.0441719
-0.0420111
-0.0396578
-0.0372492
-0.0346606
-0.0320691
-0.029303
-0.0265944
-0.0237169
-0.0209776
-0.0180892
-0.0154283
-0.012597
-0.00990794
-0.00678778
-0.003455
-0.000250411
0.00187549
0.00146169
0.015054
0.0152394
0.0145094
0.0131562
0.0109141
0.0080309
0.00454419
0.000672436
-0.00339236
-0.00748001
-0.011454
-0.0152642
-0.0188736
-0.0222996
-0.0255432
-0.028628
-0.0315545
-0.034334
-0.0369614
-0.039438
-0.0417565
-0.043913
-0.0459
-0.0477096
-0.0493355
-0.0507664
-0.0519983
-0.0530164
-0.0538214
-0.0543953
-0.0547457
-0.054851
-0.0547294
-0.0543545
-0.0537584
-0.0529081
-0.0518526
-0.0505498
-0.0490691
-0.0473542
-0.045499
-0.0434269
-0.0412609
-0.0388953
-0.0364888
-0.0338953
-0.0313196
-0.0285626
-0.0258916
-0.0230452
-0.0203758
-0.0175519
-0.015015
-0.0123198
-0.00988378
-0.00706797
-0.00417799
-0.00127956
0.000698541
0.000378093
0.0152701
0.0155143
0.0148709
0.0136244
0.0114667
0.0086754
0.0052643
0.00145771
-0.00256773
-0.00663421
-0.0106041
-0.0144165
-0.0180307
-0.0214588
-0.0247022
-0.0277834
-0.0307055
-0.0334797
-0.0361028
-0.0385759
-0.0408927
-0.0430482
-0.0450359
-0.0468462
-0.0484741
-0.0499061
-0.05114
-0.0521583
-0.0529644
-0.0535362
-0.053886
-0.0539863
-0.0538616
-0.0534782
-0.052876
-0.0520132
-0.0509488
-0.0496295
-0.0481373
-0.0464025
-0.0445347
-0.0424407
-0.0402633
-0.0378764
-0.0354638
-0.0328539
-0.0302832
-0.0275209
-0.0248745
-0.0220418
-0.0194274
-0.0166476
-0.0142159
-0.0116263
-0.00940908
-0.00684746
-0.00436755
-0.00177403
5.30145e-06
-0.000240903
0.0156585
0.0159467
0.0154036
0.0142802
0.012231
0.00955014
0.00623285
0.00250663
-0.00146691
-0.00550431
-0.00946606
-0.0132803
-0.0169018
-0.020336
-0.0235841
-0.0266672
-0.0295904
-0.0323648
-0.0349892
-0.0374642
-0.0397848
-0.0419444
-0.0439378
-0.0457534
-0.0473879
-0.0488246
-0.0500645
-0.0510857
-0.051896
-0.0524676
-0.0528187
-0.0529149
-0.0527881
-0.0523958
-0.0517875
-0.0509105
-0.0498358
-0.0484967
-0.0469903
-0.0452305
-0.0433454
-0.0412223
-0.0390266
-0.0366087
-0.0341805
-0.0315414
-0.0289635
-0.0261796
-0.0235428
-0.0207042
-0.0181278
-0.0153692
-0.0130228
-0.0105072
-0.00847603
-0.00611695
-0.00400774
-0.00169844
-0.000152737
-0.000341296
0.0161702
0.0164835
0.0160498
0.0150631
0.0131476
0.0105976
0.00739399
0.0037656
-0.000142068
-0.00414097
-0.00809049
-0.0119067
-0.0155382
-0.0189826
-0.0222397
-0.0253286
-0.0282562
-0.0310339
-0.0336625
-0.036142
-0.0384691
-0.0406355
-0.0426378
-0.0444613
-0.0461053
-0.0475492
-0.0487977
-0.0498236
-0.05064
-0.0512123
-0.051566
-0.0516579
-0.0515291
-0.0511266
-0.0505113
-0.0496175
-0.0485303
-0.0471674
-0.0456429
-0.0438523
-0.0419443
-0.0397839
-0.0375623
-0.0351023
-0.032648
-0.0299653
-0.0273668
-0.024543
-0.0218994
-0.019033
-0.016476
-0.013713
-0.0114311
-0.0089567
-0.00708077
-0.00487179
-0.00309044
-0.00102783
0.000267513
0.000125886
0.0167727
0.0170938
0.0167758
0.0159408
0.0141919
0.0118015
0.00874277
0.00524055
0.00142577
-0.0025131
-0.00643441
-0.0102436
-0.0138815
-0.0173371
-0.0206072
-0.0237078
-0.026647
-0.0294353
-0.0320759
-0.0345675
-0.0369091
-0.0390897
-0.0411084
-0.0429467
-0.0446073
-0.0460643
-0.0473275
-0.0483627
-0.0491903
-0.0497669
-0.0501268
-0.0502164
-0.0500881
-0.0496759
-0.0490545
-0.0481426
-0.0470421
-0.0456521
-0.044107
-0.0422798
-0.040344
-0.0381379
-0.0358824
-0.0333686
-0.0308773
-0.0281353
-0.0255016
-0.0226182
-0.0199499
-0.0170318
-0.0144742
-0.0116794
-0.00944064
-0.00697352
-0.00522409
-0.00311234
-0.00161531
0.000252634
0.00129913
0.00120231
0.0174154
0.0177277
0.0175208
0.0168454
0.0152909
0.0130887
0.010206
0.00686015
0.00316692
-0.000687226
-0.00456243
-0.00835317
-0.0119926
-0.0154588
-0.0187443
-0.0218602
-0.0248155
-0.0276191
-0.0302769
-0.0327856
-0.035147
-0.037347
-0.0393878
-0.0412459
-0.0429286
-0.0444033
-0.0456862
-0.0467345
-0.0475772
-0.0481604
-0.0485295
-0.0486178
-0.0484915
-0.0480688
-0.0474413
-0.046509
-0.0453935
-0.0439721
-0.0424026
-0.0405322
-0.0385626
-0.0363012
-0.0340032
-0.0314225
-0.0288823
-0.0260639
-0.0233795
-0.0204149
-0.0177031
-0.0147076
-0.0121286
-0.0092727
-0.00705575
-0.00456092
-0.00291201
-0.000844396
0.000409797
0.00214723
0.00296231
0.00291892
0.0180802
0.0183748
0.0182675
0.0177584
0.0164269
0.0144483
0.0117832
0.00863461
0.00510538
0.00137372
-0.00242343
-0.00617351
-0.00980104
-0.013273
-0.0165751
-0.0197123
-0.0226926
-0.0255218
-0.0282078
-0.0307447
-0.0331375
-0.0353674
-0.0374413
-0.039329
-0.041044
-0.0425447
-0.0438562
-0.0449245
-0.0457899
-0.0463848
-0.046769
-0.0468593
-0.0467392
-0.0463077
-0.0456764
-0.044723
-0.0435929
-0.0421371
-0.0405413
-0.0386219
-0.0366138
-0.034288
-0.0319395
-0.0292788
-0.0266776
-0.023765
-0.0210139
-0.0179454
-0.0151707
-0.0120706
-0.00944892
-0.00650141
-0.00428565
-0.00172737
-0.000156394
0.00192022
0.0029683
0.00464907
0.0052614
0.00529226
0.0187208
0.0189912
0.01896
0.0186117
0.0175165
0.0157911
0.0133808
0.0104707
0.0071486
0.0035818
-0.000101122
-0.00378225
-0.00737977
-0.0108476
-0.0141641
-0.0173248
-0.0203358
-0.0231977
-0.0259209
-0.0284945
-0.0309284
-0.033197
-0.0353136
-0.0372389
-0.0389952
-0.0405292
-0.0418773
-0.0429713
-0.043866
-0.0444768
-0.0448809
-0.0449756
-0.0448648
-0.0444246
-0.0437909
-0.0428145
-0.0416691
-0.0401744
-0.0385494
-0.0365739
-0.0345216
-0.0321208
-0.0297129
-0.0269575
-0.0242828
-0.0212567
-0.0184222
-0.0152256
-0.012368
-0.00913496
-0.00644945
-0.00337865
-0.00114473
0.00151326
0.0030248
0.00516345
0.00603494
0.00774021
0.0081832
0.00832248
0.0193457
0.0195922
0.0196151
0.019417
0.018566
0.0171243
0.0150128
0.012391
0.00933182
0.0059842
0.00246616
-0.00110608
-0.00464522
-0.00809362
-0.01142
-0.0146082
-0.0176601
-0.0205682
-0.0233445
-0.0259708
-0.0284624
-0.030785
-0.0329601
-0.0349367
-0.0367483
-0.0383272
-0.039724
-0.0408532
-0.0417873
-0.0424211
-0.0428535
-0.0429573
-0.0428622
-0.0424158
-0.0417839
-0.0407847
-0.0396261
-0.0380903
-0.0364355
-0.0343984
-0.0322984
-0.0298133
-0.0273388
-0.0244749
-0.0217151
-0.0185564
-0.0156226
-0.0122734
-0.00931342
-0.00591843
-0.00314886
7.74578e-05
0.00234693
0.00514129
0.00660726
0.00886101
0.00957615
0.0113923
0.0116962
0.0119923
0.0199063
0.0201252
0.0201788
0.0201029
0.0194836
0.0183399
0.01656
0.0142743
0.0115327
0.0084645
0.00516825
0.0017554
-0.00168795
-0.00509164
-0.00841611
-0.0116291
-0.0147278
-0.0176917
-0.0205349
-0.0232278
-0.0257932
-0.0281837
-0.0304327
-0.032473
-0.0343539
-0.0359878
-0.0374454
-0.0386177
-0.0396012
-0.0402637
-0.040732
-0.0408482
-0.0407741
-0.0403226
-0.0396958
-0.0386723
-0.0375014
-0.0359201
-0.034234
-0.0321279
-0.0299758
-0.0273953
-0.0248461
-0.0218581
-0.0190011
-0.0156891
-0.0126398
-0.00911239
-0.00603108
-0.00244427
0.000428427
0.00384308
0.00616311
0.0091312
0.0105606
0.0129834
0.0135523
0.0155705
0.0157557
0.0162717
0.0204476
0.0206412
0.0207136
0.0207305
0.0203252
0.0194845
0.0180697
0.0161703
0.0138103
0.0110891
0.00808305
0.00488873
0.00158836
-0.00173998
-0.00504724
-0.00828341
-0.011438
-0.0144734
-0.0174045
-0.0201856
-0.0228485
-0.0253283
-0.0276734
-0.029796
-0.0317656
-0.03347
-0.0350048
-0.0362321
-0.0372786
-0.0379786
-0.0384939
-0.0386288
-0.0385845
-0.0381314
-0.0375162
-0.0364693
-0.0352905
-0.033662
-0.0319466
-0.0297665
-0.0275612
-0.0248765
-0.022248
-0.0191223
-0.0161592
-0.012675
-0.00949714
-0.00576709