/*--------------------------------*- C++ -*----------------------------------*\
| =========                 |                                                 |
| \\      /  F ield         | OpenFOAM: The Open Source CFD Toolbox           |
|  \\    /   O peration     | Version:  2406                                  |
|   \\  /    A nd           | Website:  www.openfoam.com                      |
|    \\/     M anipulation  |                                                 |
\*---------------------------------------------------------------------------*/
FoamFile
{
    version     2.0;
    format      ascii;
    arch        "LSB;label=32;scalar=64";
    class       volVectorField;
    location    "15";
    object      U;
}
// * * * * * * * * * * * * * * * * * * * * * * * * * * * * * * * * * * * * * //

dimensions      [0 1 -1 0 0 0 0];

internalField   nonuniform List<vector> 
900
(
(7.14336e-05 -8.09837e-05 0)
(7.57304e-05 -1.7361e-05 0)
(-0.000241543 5.96216e-05 0)
(-0.000805223 0.000112239 0)
(-0.00159168 0.000175504 0)
(-0.00268129 0.000259017 0)
(-0.00416928 0.000363948 0)
(-0.00615178 0.000489309 0)
(-0.00872576 0.000640118 0)
(-0.0119972 0.000823994 0)
(-0.0160652 0.00104541 0)
(-0.0209599 0.00130104 0)
(-0.0265232 0.00155984 0)
(-0.03227 0.00172836 0)
(-0.0373552 0.00163066 0)
(-0.0407001 0.00109918 0)
(-0.0411959 4.77392e-05 0)
(-0.0380321 -0.001387 0)
(-0.0309567 -0.0028351 0)
(-0.0204972 -0.00389726 0)
(-0.00810531 -0.00419304 0)
(0.00403589 -0.00351172 0)
(0.0135159 -0.00199058 0)
(0.0185326 -0.000235561 0)
(0.0187904 0.00100177 0)
(0.0156607 0.00145642 0)
(0.0111953 0.00137944 0)
(0.00679194 0.00113595 0)
(0.00320255 0.000829153 0)
(0.0005633 0.000523116 0)
(-0.000101345 1.71307e-05 0)
(-0.00108127 0.000616267 0)
(-0.00274952 0.00120743 0)
(-0.00499856 0.0016583 0)
(-0.00775576 0.00219663 0)
(-0.0112237 0.00292067 0)
(-0.015614 0.00384817 0)
(-0.0211465 0.00497386 0)
(-0.0280256 0.00629699 0)
(-0.0364086 0.00779274 0)
(-0.0462855 0.00934287 0)
(-0.0573177 0.0106179 0)
(-0.0687312 0.011058 0)
(-0.0793439 0.0101214 0)
(-0.0877238 0.0074653 0)
(-0.0925169 0.00303493 0)
(-0.0926372 -0.00284683 0)
(-0.0873628 -0.0094843 0)
(-0.0765805 -0.0158684 0)
(-0.0608649 -0.0207596 0)
(-0.0414435 -0.0228352 0)
(-0.0204219 -0.0210615 0)
(-0.000718499 -0.0153369 0)
(0.0143192 -0.00709276 0)
(0.0222023 0.000805198 0)
(0.0228555 0.00587375 0)
(0.0186844 0.00773276 0)
(0.0123926 0.00749138 0)
(0.00621675 0.00611323 0)
(0.000968274 0.00329878 0)
(-0.000383987 0.000976035 0)
(-0.00287771 0.00277645 0)
(-0.00624782 0.00409216 0)
(-0.0104309 0.00512532 0)
(-0.0152878 0.00638515 0)
(-0.0211192 0.0080656 0)
(-0.028195 0.0102055 0)
(-0.0368425 0.0127968 0)
(-0.0473785 0.0157996 0)
(-0.060004 0.0190226 0)
(-0.0746512 0.0219702 0)
(-0.0908491 0.0239079 0)
(-0.107556 0.0240741 0)
(-0.12317 0.0216348 0)
(-0.135893 0.0159755 0)
(-0.144253 0.00724486 0)
(-0.147299 -0.00376207 0)
(-0.144437 -0.0159413 0)
(-0.135228 -0.0280065 0)
(-0.119643 -0.0381969 0)
(-0.0980115 -0.0444541 0)
(-0.0716131 -0.0446889 0)
(-0.0429617 -0.0376943 0)
(-0.0161417 -0.0243131 0)
(0.0039204 -0.00845658 0)
(0.0140419 0.00438767 0)
(0.0155209 0.0112726 0)
(0.0118179 0.0132443 0)
(0.00642321 0.0119955 0)
(0.00102202 0.00683726 0)
(-0.000713844 0.00296271 0)
(-0.00482018 0.00664039 0)
(-0.00990376 0.00885075 0)
(-0.015963 0.0106042 0)
(-0.0227576 0.0127726 0)
(-0.0306866 0.0156613 0)
(-0.0401335 0.0193899 0)
(-0.0516857 0.0240148 0)
(-0.0659875 0.0294307 0)
(-0.083564 0.0352163 0)
(-0.104459 0.0405775 0)
(-0.12766 0.0441802 0)
(-0.15077 0.0440982 0)
(-0.171037 0.0388695 0)
(-0.186768 0.0286325 0)
(-0.197148 0.0143763 0)
(-0.201933 -0.0026392 0)
(-0.201253 -0.0210743 0)
(-0.194903 -0.0396386 0)
(-0.182285 -0.056484 0)
(-0.162605 -0.0692094 0)
(-0.135407 -0.0748102 0)
(-0.101396 -0.0703433 0)
(-0.0636589 -0.0545774 0)
(-0.0284912 -0.0304815 0)
(-0.00402305 -0.00632582 0)
(0.0064645 0.00973874 0)
(0.00766437 0.016627 0)
(0.00481809 0.0169594 0)
(0.000759653 0.010069 0)
(-0.00103834 0.0060137 0)
(-0.006642 0.012136 0)
(-0.0132473 0.0153175 0)
(-0.0209355 0.0178287 0)
(-0.0293772 0.0209897 0)
(-0.0391538 0.0253085 0)
(-0.0509659 0.031146 0)
(-0.065944 0.0387615 0)
(-0.0852537 0.0480503 0)
(-0.109484 0.0581324 0)
(-0.137427 0.0667449 0)
(-0.165476 0.0704035 0)
(-0.1897 0.0667647 0)
(-0.208223 0.0562116 0)
(-0.220875 0.0404069 0)
(-0.228368 0.0210538 0)
(-0.231831 -0.000589348 0)
(-0.232228 -0.0237599 0)
(-0.229759 -0.0473919 0)
(-0.223552 -0.0703614 0)
(-0.211862 -0.0905501 0)
(-0.192158 -0.10468 0)
(-0.162123 -0.108159 0)
(-0.121454 -0.0965862 0)
(-0.0743697 -0.0687804 0)
(-0.0312032 -0.0315394 0)
(-0.00542496 -0.00041083 0)
(0.00247651 0.0157468 0)
(0.00284709 0.0195629 0)
(0.000491023 0.0122777 0)
(-0.00131759 0.0100252 0)
(-0.00816978 0.0190368 0)
(-0.0160105 0.023228 0)
(-0.0250169 0.0265175 0)
(-0.0348499 0.0308146 0)
(-0.0464499 0.037051 0)
(-0.0610934 0.04608 0)
(-0.0805121 0.0583962 0)
(-0.105738 0.0732275 0)
(-0.135555 0.0874312 0)
(-0.165592 0.0958908 0)
(-0.190534 0.0947853 0)
(-0.207845 0.0843788 0)
(-0.218062 0.0674795 0)
(-0.222838 0.0467627 0)
(-0.224394 0.02414 0)
(-0.224655 0.00043021 0)
(-0.22472 -0.024065 0)
(-0.225106 -0.0491783 0)
(-0.225718 -0.0750113 0)
(-0.224909 -0.100743 0)
(-0.219351 -0.124033 0)
(-0.204159 -0.139957 0)
(-0.174455 -0.14122 0)
(-0.128588 -0.120491 0)
(-0.0724995 -0.0766198 0)
(-0.0234588 -0.0241677 0)
(-0.00246515 0.00953899 0)
(0.0013807 0.020118 0)
(0.000444423 0.0137761 0)
(-0.00152241 0.0148023 0)
(-0.00930054 0.0270342 0)
(-0.0180651 0.0322666 0)
(-0.0281011 0.0364034 0)
(-0.0391852 0.0421754 0)
(-0.0527718 0.051243 0)
(-0.0706718 0.0649989 0)
(-0.0944832 0.0833394 0)
(-0.123513 0.102962 0)
(-0.15348 0.117302 0)
(-0.178058 0.120262 0)
(-0.193496 0.110943 0)
(-0.200548 0.0931215 0)
(-0.201797 0.070905 0)
(-0.19992 0.0470773 0)
(-0.197144 0.0231428 0)
(-0.194527 -0.000335459 0)
(-0.19269 -0.0231661 0)
(-0.192562 -0.0461549 0)
(-0.195081 -0.0701887 0)
(-0.200454 -0.0963755 0)
(-0.206939 -0.124639 0)
(-0.209684 -0.152168 0)
(-0.200981 -0.171475 0)
(-0.172855 -0.170642 0)
(-0.122085 -0.137524 0)
(-0.0576221 -0.0725463 0)
(-0.00941899 -0.00823307 0)
(0.000405031 0.0186182 0)
(0.000318751 0.0147606 0)
(-0.00163319 0.0200921 0)
(-0.00997824 0.035795 0)
(-0.0193602 0.0421307 0)
(-0.0301691 0.0472877 0)
(-0.0423885 0.0550974 0)
(-0.0579135 0.0680835 0)
(-0.0785463 0.0875517 0)
(-0.104671 0.111207 0)
(-0.133151 0.132056 0)
(-0.157751 0.141448 0)
(-0.173088 0.135434 0)
(-0.179083 0.117563 0)
(-0.179513 0.0941062 0)
(-0.177798 0.0690925 0)
(-0.175897 0.0442911 0)
(-0.173965 0.0200787 0)
(-0.171382 -0.00327273 0)
(-0.168146 -0.0254498 0)
(-0.164883 -0.0465002 0)
(-0.163082 -0.0669214 0)
(-0.164956 -0.0885273 0)
(-0.172097 -0.11378 0)
(-0.183213 -0.1441 0)
(-0.192103 -0.176256 0)
(-0.187969 -0.199085 0)
(-0.159543 -0.193396 0)
(-0.102493 -0.140306 0)
(-0.0298308 -0.0475289 0)
(0.000346098 0.0134522 0)
(-0.000470464 0.0160217 0)
(-0.00163632 0.0256065 0)
(-0.010166 0.0449742 0)
(-0.0198551 0.0525268 0)
(-0.0311499 0.0589597 0)
(-0.0442113 0.0693946 0)
(-0.0610334 0.0869635 0)
(-0.0827616 0.111774 0)
(-0.108187 0.138206 0)
(-0.132516 0.156156 0)
(-0.149629 0.157407 0)
(-0.157132 0.142365 0)
(-0.158738 0.118805 0)
(-0.159452 0.09354 0)
(-0.161424 0.0687423 0)
(-0.164294 0.0441563 0)
(-0.166137 0.0191016 0)
(-0.165565 -0.0060569 0)
(-0.162109 -0.0303165 0)
(-0.156147 -0.0523583 0)
(-0.14912 -0.0716509 0)
(-0.143448 -0.0890364 0)
(-0.142581 -0.107495 0)
(-0.149259 -0.131594 0)
(-0.162342 -0.16424 0)
(-0.173804 -0.200782 0)
(-0.169387 -0.224117 0)
(-0.135913 -0.204344 0)
(-0.068877 -0.118744 0)
(-0.00309106 -0.00734911 0)
(-0.000554535 0.0180463 0)
(-0.00152521 0.031036 0)
(-0.00983962 0.0542222 0)
(-0.0195043 0.0631399 0)
(-0.0309098 0.0710798 0)
(-0.0442334 0.0844595 0)
(-0.0611701 0.106475 0)
(-0.0819761 0.135126 0)
(-0.104352 0.161452 0)
(-0.123171 0.173835 0)
(-0.133938 0.166673 0)
(-0.137689 0.145472 0)
(-0.140368 0.120704 0)
(-0.145708 0.0971931 0)
(-0.153089 0.0737896 0)
(-0.160091 0.0485386 0)
(-0.16437 0.0209795 0)
(-0.164962 -0.00761156 0)
(-0.161549 -0.0353224 0)
(-0.154493 -0.0601488 0)
(-0.144701 -0.0806371 0)
(-0.133995 -0.0965321 0)
(-0.125512 -0.109824 0)
(-0.123481 -0.125593 0)
(-0.130969 -0.150823 0)
(-0.146219 -0.188311 0)
(-0.157006 -0.229166 0)
(-0.147343 -0.24433 0)
(-0.10058 -0.190635 0)
(-0.0221397 -0.0511728 0)
(0.00635663 0.0190789 0)
(-0.00129454 0.0360545 0)
(-0.00897602 0.0631592 0)
(-0.0182497 0.0735879 0)
(-0.0292849 0.0831222 0)
(-0.0420808 0.0993139 0)
(-0.0578173 0.124934 0)
(-0.0760885 0.155606 0)
(-0.0943249 0.1798 0)
(-0.108081 0.186 0)
(-0.115007 0.172415 0)
(-0.118652 0.149072 0)
(-0.124855 0.126583 0)
(-0.134563 0.105758 0)
(-0.145034 0.0825913 0)
(-0.153593 0.0551112 0)
(-0.158681 0.0239248 0)
(-0.159825 -0.00882909 0)
(-0.156921 -0.0406163 0)
(-0.150249 -0.0689983 0)
(-0.140288 -0.0920154 0)
(-0.128017 -0.108494 0)
(-0.115458 -0.118993 0)
(-0.106345 -0.127281 0)
(-0.105071 -0.142046 0)
(-0.116535 -0.17236 0)
(-0.133463 -0.219207 0)
(-0.140641 -0.26005 0)
(-0.113615 -0.24623 0)
(-0.0560582 -0.125378 0)
(0.0129631 0.0113797 0)
(-0.000953266 0.0403489 0)
(-0.00759533 0.0714067 0)
(-0.0161014 0.0834534 0)
(-0.0262474 0.0944572 0)
(-0.0377142 0.112918 0)
(-0.0511426 0.140975 0)
(-0.0658912 0.172193 0)
(-0.0798189 0.193491 0)
(-0.0896921 0.194551 0)
(-0.0949305 0.177439 0)
(-0.0999778 0.155046 0)
(-0.108975 0.135916 0)
(-0.120475 0.116762 0)
(-0.131285 0.0924323 0)
(-0.139581 0.0620357 0)
(-0.144514 0.0271642 0)
(-0.14582 -0.00947706 0)
(-0.143586 -0.0449685 0)
(-0.138088 -0.0767668 0)
(-0.12969 -0.102783 0)
(-0.118789 -0.121381 0)
(-0.106189 -0.132 0)
(-0.0946511 -0.136177 0)
(-0.0865696 -0.141361 0)
(-0.0911702 -0.159428 0)
(-0.106407 -0.201913 0)
(-0.123548 -0.257235 0)
(-0.113083 -0.281154 0)
(-0.0789742 -0.198854 0)
(0.00746226 -0.0112884 0)
(-0.000519495 0.0436284 0)
(-0.00573875 0.0785569 0)
(-0.0131101 0.0922811 0)
(-0.0218781 0.104463 0)
(-0.0313553 0.124375 0)
(-0.0417359 0.153675 0)
(-0.0525115 0.184553 0)
(-0.0624005 0.203251 0)
(-0.0694394 0.20098 0)
(-0.0740037 0.18278 0)
(-0.0800291 0.162652 0)
(-0.0896516 0.146334 0)
(-0.100384 0.127667 0)
(-0.109749 0.101628 0)
(-0.116873 0.0684637 0)
(-0.121208 0.0303519 0)
(-0.122532 -0.00961076 0)
(-0.121031 -0.0481705 0)
(-0.116996 -0.0826825 0)
(-0.110732 -0.11115 0)
(-0.102543 -0.131825 0)
(-0.0919759 -0.143721 0)
(-0.0820366 -0.146763 0)
(-0.0716712 -0.146419 0)
(-0.0715352 -0.153061 0)
(-0.0808203 -0.184673 0)
(-0.101566 -0.242992 0)
(-0.103902 -0.295753 0)
(-0.0896701 -0.253439 0)
(-0.00722499 -0.0512524 0)
(-3.79975e-05 0.0456741 0)
(-0.00353846 0.0842835 0)
(-0.00946237 0.0997105 0)
(-0.0164834 0.112649 0)
(-0.0235586 0.133087 0)
(-0.030491 0.162585 0)
(-0.0371229 0.19276 0)
(-0.0431845 0.209753 0)
(-0.0478856 0.206015 0)
(-0.0518143 0.18827 0)
(-0.0575099 0.170299 0)
(-0.0656469 0.155605 0)
(-0.0739683 0.136728 0)
(-0.081043 0.10912 0)
(-0.0866248 0.0737347 0)
(-0.0902554 0.0330724 0)
(-0.0917063 -0.00950429 0)
(-0.0911267 -0.0504967 0)
(-0.0888541 -0.0869617 0)
(-0.0849407 -0.117233 0)
(-0.0802604 -0.139631 0)
(-0.0725467 -0.153029 0)
(-0.0662043 -0.156102 0)
(-0.0566165 -0.153014 0)
(-0.0553891 -0.151125 0)
(-0.058701 -0.170815 0)
(-0.0793629 -0.224594 0)
(-0.0882448 -0.297611 0)
(-0.0887946 -0.296468 0)
(-0.0174455 -0.10947 0)
(0.000446468 0.0463716 0)
(-0.00112699 0.0882545 0)
(-0.00535402 0.105391 0)
(-0.0103882 0.118705 0)
(-0.014891 0.138757 0)
(-0.0182847 0.167519 0)
(-0.0207583 0.19688 0)
(-0.023069 0.213236 0)
(-0.0254416 0.209581 0)
(-0.0282345 0.192903 0)
(-0.0323916 0.176237 0)
(-0.0376727 0.162151 0)
(-0.0426598 0.143 0)
(-0.046922 0.114466 0)
(-0.0505952 0.0777585 0)
(-0.0533314 0.03558 0)
(-0.0549294 -0.00861575 0)
(-0.0553356 -0.0511943 0)
(-0.0551903 -0.088764 0)
(-0.0536137 -0.119989 0)
(-0.0528908 -0.143523 0)
(-0.0484196 -0.15838 0)
(-0.0468709 -0.162183 0)
(-0.0398154 -0.158466 0)
(-0.0406807 -0.15129 0)
(-0.0399608 -0.160758 0)
(-0.0594415 -0.205128 0)
(-0.0699274 -0.288726 0)
(-0.0801557 -0.322626 0)
(-0.0184224 -0.167681 0)
(0.000837716 0.0456977 0)
(0.00125021 0.0903382 0)
(-0.0011087 0.109217 0)
(-0.00408647 0.122524 0)
(-0.00609853 0.141358 0)
(-0.00609062 0.168525 0)
(-0.00447742 0.196995 0)
(-0.00287978 0.213664 0)
(-0.00253369 0.21126 0)
(-0.00362137 0.195908 0)
(-0.00552956 0.179659 0)
(-0.00733868 0.165296 0)
(-0.00860705 0.145957 0)
(-0.00974998 0.11728 0)
(-0.0112075 0.080268 0)
(-0.012786 0.0376105 0)
(-0.0145856 -0.0071169 0)
(-0.0160185 -0.0502909 0)
(-0.0185364 -0.088287 0)
(-0.0194116 -0.119846 0)
(-0.0227862 -0.143952 0)
(-0.0214303 -0.159714 0)
(-0.0250553 -0.164133 0)
(-0.0210639 -0.160433 0)
(-0.0262181 -0.150695 0)
(-0.0239348 -0.153606 0)
(-0.0427683 -0.187948 0)
(-0.0518741 -0.277136 0)
(-0.0696925 -0.340648 0)
(-0.0160458 -0.219849 0)
(0.00111966 0.0437308 0)
(0.00344636 0.0903834 0)
(0.00303054 0.111021 0)
(0.00207512 0.124162 0)
(0.00231421 0.141143 0)
(0.00533248 0.165843 0)
(0.010806 0.19306 0)
(0.0163811 0.210654 0)
(0.0199448 0.210404 0)
(0.0212489 0.196615 0)
(0.0217613 0.180147 0)
(0.0231568 0.164813 0)
(0.0254879 0.14534 0)
(0.0276039 0.11725 0)
(0.0285437 0.0810107 0)
(0.0283646 0.0390621 0)
(0.0263364 -0.00497391 0)
(0.0240638 -0.0474435 0)
(0.0187824 -0.0848775 0)
(0.0155106 -0.116236 0)
(0.00815854 -0.140604 0)
(0.0065277 -0.156819 0)
(-0.00235015 -0.161996 0)
(-0.00142143 -0.158329 0)
(-0.0120734 -0.147729 0)
(-0.00959285 -0.146571 0)
(-0.029357 -0.171234 0)
(-0.0357472 -0.261617 0)
(-0.0595585 -0.349108 0)
(-0.0125026 -0.265205 0)
(0.00125669 0.0407673 0)
(0.00522316 0.0885929 0)
(0.0066586 0.110958 0)
(0.00757672 0.12382 0)
(0.0097121 0.138526 0)
(0.0151493 0.159985 0)
(0.0240404 0.185206 0)
(0.0336555 0.203758 0)
(0.0410156 0.206525 0)
(0.0453505 0.194979 0)
(0.0482514 0.178111 0)
(0.0520688 0.161186 0)
(0.0571629 0.141337 0)
(0.0621538 0.114338 0)
(0.0653192 0.0798827 0)
(0.0667406 0.0398654 0)
(0.0644498 -0.00224741 0)
(0.0615749 -0.0429822 0)
(0.0538513 -0.0791085 0)
(0.0485944 -0.109932 0)
(0.0378981 -0.134008 0)
(0.0335899 -0.150206 0)
(0.0197418 -0.15535 0)
(0.0179876 -0.151925 0)
(0.00107242 -0.141668 0)
(0.00342097 -0.138823 0)
(-0.019207 -0.156577 0)
(-0.0224352 -0.247148 0)
(-0.0518086 -0.35338 0)
(-0.00879419 -0.30348 0)
(0.00127372 0.0370786 0)
(0.00648976 0.0849544 0)
(0.00966269 0.108921 0)
(0.012278 0.121768 0)
(0.0159419 0.134126 0)
(0.0229689 0.151685 0)
(0.0343634 0.173832 0)
(0.0477433 0.192617 0)
(0.0593517 0.198708 0)
(0.0673763 0.190437 0)
(0.0728292 0.174055 0)
(0.0783155 0.155519 0)
(0.0848601 0.134797 0)
(0.0917471 0.108843 0)
(0.0963492 0.0768054 0)
(0.0992526 0.0397532 0)
(0.0968471 0.000787637 0)
(0.0939198 -0.0373443 0)
(0.0845019 -0.071517 0)
(0.0782811 -0.101365 0)
(0.0647835 -0.124495 0)
(0.0582963 -0.140223 0)
(0.0397365 -0.144588 0)
(0.0355042 -0.141662 0)
(0.0127427 -0.131798 0)
(0.0153284 -0.128651 0)
(-0.0120834 -0.141049 0)
(-0.0113392 -0.230491 0)
(-0.0461775 -0.35224 0)
(-0.00517649 -0.337329 0)
(0.00115082 0.033143 0)
(0.00703961 0.0801181 0)
(0.011597 0.105405 0)
(0.0156767 0.118224 0)
(0.020514 0.128416 0)
(0.0284724 0.141889 0)
(0.0411864 0.159914 0)
(0.0574977 0.177594 0)
(0.0734357 0.186472 0)
(0.0858985 0.182279 0)
(0.0946075 0.16805 0)
(0.101719 0.149014 0)
(0.1086 0.127436 0)
(0.116123 0.102115 0)
(0.120931 0.072464 0)
(0.124864 0.0387719 0)
(0.122439 0.00360683 0)
(0.120095 -0.0313899 0)
(0.110003 -0.0631517 0)
(0.103699 -0.0913426 0)
(0.0877701 -0.11272 0)
(0.0794242 -0.126965 0)
(0.0563851 -0.130084 0)
(0.0503755 -0.127843 0)
(0.0221157 -0.11868 0)
(0.0255642 -0.117103 0)
(-0.00793523 -0.126192 0)
(-0.00240169 -0.214713 0)
(-0.0434773 -0.348987 0)
(-0.00171526 -0.367707 0)
(0.000976758 0.0292067 0)
(0.00698689 0.0741402 0)
(0.0126452 0.100311 0)
(0.0179084 0.113521 0)
(0.0236697 0.121952 0)
(0.0319567 0.131517 0)
(0.0447168 0.144695 0)
(0.0622267 0.159482 0)
(0.0815156 0.16959 0)
(0.098711 0.169457 0)
(0.111737 0.159007 0)
(0.121684 0.141531 0)
(0.129125 0.120243 0)
(0.136873 0.0956336 0)
(0.141059 0.0680823 0)
(0.145489 0.037526 0)
(0.142952 0.0060356 0)
(0.141446 -0.0255876 0)
(0.130912 -0.0543673 0)
(0.124481 -0.0800063 0)
(0.105803 -0.0986182 0)
(0.0957314 -0.110727 0)
(0.0684865 -0.112549 0)
(0.061801 -0.111227 0)
(0.0287277 -0.102951 0)
(0.0341971 -0.103524 0)
(-0.00577657 -0.109836 0)
(0.00555794 -0.196155 0)
(-0.0433564 -0.341796 0)
(0.00176405 -0.395288 0)
(0.000661325 0.0258626 0)
(0.00608773 0.0682228 0)
(0.0121209 0.0945503 0)
(0.018306 0.107686 0)
(0.0248215 0.114833 0)
(0.0334001 0.12125 0)
(0.0456219 0.12976 0)
(0.0626129 0.140293 0)
(0.0831011 0.14935 0)
(0.103884 0.151823 0)
(0.121412 0.145642 0)
(0.135742 0.131665 0)
(0.145317 0.112622 0)
(0.154341 0.089742 0)
(0.158233 0.0644343 0)
(0.162875 0.0367382 0)
(0.159814 0.00860664 0)
(0.158492 -0.0195538 0)
(0.146674 -0.0447987 0)
(0.139266 -0.0669871 0)
(0.117492 -0.0821621 0)
(0.106253 -0.0919258 0)
(0.0755765 -0.0927538 0)
(0.0697431 -0.0927321 0)
(0.0323897 -0.0857514 0)
(0.0410419 -0.0892176 0)
(-0.00507339 -0.0942212 0)
(0.0132071 -0.178501 0)
(-0.0451843 -0.332231 0)
(0.00631418 -0.418902 0)
(0.00036512 0.0230419 0)
(0.00472746 0.0621348 0)
(0.0108942 0.0879261 0)
(0.0174541 0.101304 0)
(0.0246106 0.107311 0)
(0.0332204 0.111172 0)
(0.0446615 0.115755 0)
(0.0600673 0.121791 0)
(0.0793334 0.127964 0)
(0.101051 0.13068 0)
(0.121167 0.127497 0)
(0.13961 0.117443 0)
(0.152265 0.102059 0)
(0.163801 0.0822969 0)
(0.168475 0.0601024 0)
(0.17361 0.0357305 0)
(0.169889 0.0113246 0)
(0.168142 -0.0128909 0)
(0.154502 -0.0339874 0)
(0.146024 -0.0521438 0)
(0.121749 -0.0638301 0)
(0.110772 -0.0716442 0)
(0.0778193 -0.0721156 0)
(0.0745652 -0.0735634 0)
(0.0332861 -0.0679933 0)
(0.0469791 -0.0741626 0)
(-0.00584719 -0.0775379 0)
(0.022022 -0.159065 0)
(-0.046707 -0.319498 0)
(0.0129345 -0.441702 0)
(-0.000336737 0.0219618 0)
(0.00206109 0.0577493 0)
(0.00717088 0.0818735 0)
(0.0141722 0.0938803 0)
(0.022013 0.0991577 0)
(0.0313595 0.101343 0)
(0.0425059 0.1031 0)
(0.0565511 0.105467 0)
(0.0734732 0.10832 0)
(0.093657 0.109544 0)
(0.113367 0.10744 0)
(0.133401 0.100271 0)
(0.147988 0.0886852 0)
(0.161711 0.0728457 0)
(0.167556 0.0546915 0)
(0.173526 0.0345035 0)
(0.169503 0.0144983 0)
(0.167631 -0.00518055 0)
(0.152877 -0.0218861 0)
(0.14464 -0.0361104 0)
(0.119495 -0.0449495 0)
(0.110702 -0.0513562 0)
(0.0766497 -0.0519726 0)
(0.0774162 -0.0544716 0)
(0.0321547 -0.0507182 0)
(0.0524646 -0.0588705 0)
(-0.00870776 -0.063175 0)
(0.0327069 -0.141679 0)
(-0.0494496 -0.307733 0)
(0.0211149 -0.46854 0)
(-0.0010341 0.0216599 0)
(-0.000845459 0.0539991 0)
(0.0037421 0.0757934 0)
(0.00978563 0.0866999 0)
(0.0183516 0.0903402 0)
(0.0278958 0.0909229 0)
(0.0390729 0.0907042 0)
(0.0522426 0.0905719 0)
(0.0670983 0.0908318 0)
(0.0848203 0.0902477 0)
(0.102215 0.088027 0)
(0.121164 0.0825327 0)
(0.135547 0.0740287 0)
(0.149908 0.0620952 0)
(0.156375 0.0482838 0)
(0.16322 0.0327202 0)
(0.15954 0.0174158 0)
(0.158648 0.00239522 0)
(0.144181 -0.0101188 0)
(0.138014 -0.0208124 0)
(0.113566 -0.027415 0)
(0.108423 -0.0325443 0)
(0.0740053 -0.0334694 0)
(0.0797193 -0.0360561 0)
(0.0305671 -0.0346257 0)
(0.0587878 -0.0425081 0)
(-0.0127308 -0.0509847 0)
(0.0462663 -0.122167 0)
(-0.0574908 -0.295962 0)
(0.0295073 -0.495841 0)
(-0.0041495 0.0265313 0)
(-0.00779041 0.053242 0)
(-0.00542313 0.0714937 0)
(0.00206297 0.0776573 0)
(0.0119839 0.0809919 0)
(0.0233151 0.0802743 0)
(0.0353125 0.078769 0)
(0.0487532 0.0771965 0)
(0.0625238 0.0758122 0)
(0.0783423 0.0739233 0)
(0.0933274 0.0713766 0)
(0.110014 0.0667683 0)
(0.122761 0.0605771 0)
(0.136302 0.0518482 0)
(0.142398 0.0420699 0)
(0.149786 0.0307494 0)
(0.146493 0.0199119 0)
(0.147368 0.00902958 0)
(0.133904 0.000269857 0)
(0.130988 -0.00742115 0)
(0.107685 -0.0121355 0)
(0.107077 -0.0158746 0)
(0.0726408 -0.0171378 0)
(0.0840002 -0.0186652 0)
(0.0317767 -0.0203063 0)
(0.0681156 -0.0250719 0)
(-0.0133542 -0.0422396 0)
(0.0630341 -0.100065 0)
(-0.0666611 -0.277932 0)
(0.0423759 -0.505842 0)
(-0.0035156 0.0333353 0)
(-0.0139281 0.0541608 0)
(-0.00984373 0.0668596 0)
(-0.00613855 0.0695886 0)
(0.00602974 0.0697238 0)
(0.0166302 0.0673293 0)
(0.030144 0.0653629 0)
(0.0437397 0.0630147 0)
(0.0574563 0.0610943 0)
(0.072337 0.0586235 0)
(0.0858861 0.0562456 0)
(0.101002 0.0523836 0)
(0.112039 0.0480491 0)
(0.124904 0.0419247 0)
(0.130083 0.0354826 0)
(0.138485 0.027903 0)
(0.135207 0.0208128 0)
(0.139006 0.0137314 0)
(0.126205 0.00791344 0)
(0.128105 0.00315787 0)
(0.105433 -0.000450995 0)
(0.111338 -0.0021464 0)
(0.0765844 -0.00468952 0)
(0.0957586 -0.00374918 0)
(0.0411977 -0.00949996 0)
(0.0871082 -0.00869251 0)
(-0.00109734 -0.0355353 0)
(0.0891769 -0.0744301 0)
(-0.0528307 -0.248326 0)
(0.0698694 -0.498791 0)
(-0.0300388 0.0551114 0)
(-0.0336921 0.0532981 0)
(-0.0277623 0.0643143 0)
(-0.015778 0.0567469 0)
(0.000238788 0.0581301 0)
(0.0152651 0.0544626 0)
(0.0303381 0.0520868 0)
(0.0462954 0.0494663 0)
(0.0599166 0.0474411 0)
(0.0757083 0.0447966 0)
(0.0880676 0.042965 0)
(0.103375 0.0396579 0)
(0.112528 0.0371819 0)
(0.126336 0.0327637 0)
(0.129566 0.0295001 0)
(0.140989 0.0243585 0)
(0.135978 0.0210199 0)
(0.145701 0.0161913 0)
(0.131164 0.0136916 0)
(0.142323 0.0102084 0)
(0.117177 0.00873629 0)
(0.135643 0.00738255 0)
(0.0965523 0.00546162 0)
(0.131299 0.00725772 0)
(0.0699954 8.76895e-07 0)
(0.133201 0.00306913 0)
(0.0369973 -0.0294937 0)
(0.13743 -0.0694917 0)
(-0.00259998 -0.240045 0)
(0.115623 -0.506667 0)
(0.0168636 0.0888016 0)
(-0.0270264 0.0434886 0)
(0.00550513 0.051182 0)
(-0.000250974 0.0421205 0)
(0.0216156 0.0391443 0)
(0.032572 0.035555 0)
(0.0504624 0.0347061 0)
(0.0666847 0.031659 0)
(0.0814157 0.0314253 0)
(0.10026 0.0284701 0)
(0.111126 0.0284658 0)
(0.132691 0.0255433 0)
(0.137555 0.025189 0)
(0.16206 0.022209 0)
(0.158479 0.0211954 0)
(0.186398 0.0185017 0)
(0.172008 0.0167841 0)
(0.205092 0.0151205 0)
(0.177715 0.0126089 0)
(0.21966 0.0129351 0)
(0.176587 0.00906345 0)
(0.233219 0.0122943 0)
(0.170058 0.00579309 0)
(0.249057 0.0121706 0)
(0.158886 0.00124198 0)
(0.266694 0.00615645 0)
(0.136375 -0.0199421 0)
(0.267421 -0.0722733 0)
(0.069706 -0.223794 0)
(0.179116 -0.46188 0)
(0.0746125 0.0600435 0)
(0.100226 0.049025 0)
(0.159382 0.0359764 0)
(0.210819 0.0313466 0)
(0.230999 0.0259306 0)
(0.281774 0.0224224 0)
(0.288665 0.0193731 0)
(0.340239 0.0174036 0)
(0.335697 0.015291 0)
(0.39077 0.0141606 0)
(0.375468 0.0124908 0)
(0.435838 0.0118649 0)
(0.409105 0.0104186 0)
(0.476228 0.0100507 0)
(0.436772 0.00873635 0)
(0.512096 0.00846429 0)
(0.458205 0.0073118 0)
(0.543705 0.00700817 0)
(0.473526 0.00616427 0)
(0.571973 0.00566223 0)
(0.483459 0.00539297 0)
(0.598291 0.00433423 0)
(0.488908 0.0050324 0)
(0.623924 0.00259844 0)
(0.490122 0.00487198 0)
(0.646736 -0.000705615 0)
(0.47258 0.0025226 0)
(0.620536 -0.0179059 0)
(0.312444 -0.0342902 0)
(0.396496 -0.0973217 0)
)
;

boundaryField
{
    movingWall
    {
        type            fixedValue;
        value           uniform (1 0 0);
    }
    fixedWalls
    {
        type            noSlip;
    }
    frontAndBack
    {
        type            empty;
    }
}


// ************************************************************************* //
