/*--------------------------------*- C++ -*----------------------------------*\
| =========                 |                                                 |
| \\      /  F ield         | OpenFOAM: The Open Source CFD Toolbox           |
|  \\    /   O peration     | Version:  2406                                  |
|   \\  /    A nd           | Website:  www.openfoam.com                      |
|    \\/     M anipulation  |                                                 |
\*---------------------------------------------------------------------------*/
FoamFile
{
    version     2.0;
    format      ascii;
    arch        "LSB;label=32;scalar=64";
    class       surfaceScalarField;
    location    "8.85";
    object      phi;
}
// * * * * * * * * * * * * * * * * * * * * * * * * * * * * * * * * * * * * * //

dimensions      [0 3 -1 0 0 0 0];

oriented        oriented;

internalField   nonuniform List<scalar> 
28560
(
6.49302e-09
-6.4978e-09
6.17172e-09
5.372e-10
-5.4033e-09
1.16642e-08
-2.89413e-08
2.39627e-08
-6.25301e-08
3.3903e-08
-1.04065e-07
4.21254e-08
-1.51594e-07
4.80416e-08
-2.0337e-07
5.24674e-08
-2.58137e-07
5.54059e-08
-3.14811e-07
5.7416e-08
-3.72705e-07
5.8599e-08
-4.31237e-07
5.92939e-08
-4.90088e-07
5.95875e-08
-5.48995e-07
5.96709e-08
-6.07844e-07
5.9597e-08
-6.66547e-07
5.94648e-08
-7.25095e-07
5.92985e-08
-7.83483e-07
5.91436e-08
-8.41739e-07
5.90059e-08
-8.99889e-07
5.89019e-08
-9.57968e-07
5.88275e-08
-1.016e-06
5.87846e-08
-1.07402e-06
5.87648e-08
-1.13204e-06
5.87634e-08
-1.19006e-06
5.87709e-08
-1.2481e-06
5.87798e-08
-1.30613e-06
5.87804e-08
-1.36415e-06
5.87644e-08
-1.42213e-06
5.87223e-08
-1.48004e-06
5.86454e-08
-1.53783e-06
5.85244e-08
-1.59544e-06
5.83502e-08
-1.65282e-06
5.81133e-08
-1.7099e-06
5.78046e-08
-1.7666e-06
5.74144e-08
-1.82282e-06
5.6933e-08
-1.87847e-06
5.63506e-08
-1.93343e-06
5.56573e-08
-1.98759e-06
5.48434e-08
-2.04082e-06
5.3899e-08
-2.09298e-06
5.28143e-08
-2.14392e-06
5.158e-08
-2.19349e-06
5.01869e-08
-2.24152e-06
4.86264e-08
-2.28783e-06
4.68904e-08
-2.33225e-06
4.49717e-08
-2.37459e-06
4.28637e-08
-2.41465e-06
4.0561e-08
-2.45225e-06
3.80594e-08
-2.48718e-06
3.5356e-08
-2.51923e-06
3.24493e-08
-2.54822e-06
2.93396e-08
-2.57393e-06
2.60288e-08
-2.59618e-06
2.25207e-08
-2.61478e-06
1.88212e-08
-2.62954e-06
1.49382e-08
-2.6403e-06
1.08818e-08
-2.64689e-06
6.66413e-09
-2.64917e-06
2.29971e-09
-2.64701e-06
-2.19483e-09
-2.6403e-06
-6.80074e-09
-2.62895e-06
-1.14972e-08
-2.61289e-06
-1.62615e-08
-2.59208e-06
-2.10692e-08
-2.56651e-06
-2.58942e-08
-2.53618e-06
-3.07092e-08
-2.50113e-06
-3.54857e-08
-2.46143e-06
-4.01945e-08
-2.41717e-06
-4.48061e-08
-2.36849e-06
-4.92907e-08
-2.31552e-06
-5.36189e-08
-2.25847e-06
-5.77621e-08
-2.19753e-06
-6.16923e-08
-2.13294e-06
-6.53835e-08
-2.06497e-06
-6.8811e-08
-1.99389e-06
-7.19526e-08
-1.92002e-06
-7.47882e-08
-1.84366e-06
-7.73007e-08
-1.76515e-06
-7.94759e-08
-1.68484e-06
-8.13025e-08
-1.60308e-06
-8.27727e-08
-1.52022e-06
-8.38821e-08
-1.43662e-06
-8.46292e-08
-1.35265e-06
-8.50163e-08
-1.26864e-06
-8.50483e-08
-1.18495e-06
-8.47332e-08
-1.1019e-06
-8.40818e-08
-1.01982e-06
-8.31068e-08
-9.39007e-07
-8.18233e-08
-8.59752e-07
-8.02477e-08
-7.82327e-07
-7.83972e-08
-7.06986e-07
-7.62902e-08
-6.33963e-07
-7.39448e-08
-5.63477e-07
-7.1379e-08
-4.95728e-07
-6.86099e-08
-4.30901e-07
-6.56535e-08
-3.69167e-07
-6.25243e-08
-3.10683e-07
-5.9235e-08
-2.55598e-07
-5.57959e-08
-2.04051e-07
-5.2216e-08
-1.56174e-07
-4.85009e-08
-1.12097e-07
-4.46557e-08
-7.19449e-08
-4.06819e-08
-3.58451e-08
-3.65819e-08
-3.91811e-09
-3.23548e-08
2.37066e-08
-2.8004e-08
4.69169e-08
-2.35287e-08
6.55856e-08
-1.89403e-08
7.96276e-08
-1.42434e-08
8.89364e-08
-9.47073e-09
9.35014e-08
-4.64248e-09
9.32853e-08
1.58592e-10
8.84628e-08
4.87286e-09
7.91922e-08
9.29684e-09
6.6101e-08
1.32651e-08
4.98987e-08
1.62614e-08
3.233e-08
1.78437e-08
1.55705e-08
1.67562e-08
3.53575e-09
1.23704e-08
3.53456e-09
-4.30387e-10
-6.28134e-09
-2.01757e-08
2.02971e-08
-6.51032e-08
5.60313e-08
-1.35821e-07
9.42728e-08
-2.2976e-07
1.26939e-07
-3.42939e-07
1.54475e-07
-4.71531e-07
1.75471e-07
-6.11691e-07
1.91511e-07
-7.60453e-07
2.02855e-07
-9.15163e-07
2.10847e-07
-1.07396e-06
2.16016e-07
-1.2353e-06
2.19273e-07
-1.39817e-06
2.2105e-07
-1.56179e-06
2.219e-07
-1.7257e-06
2.22094e-07
-1.88956e-06
2.21935e-07
-2.05324e-06
2.21565e-07
-2.21662e-06
2.2113e-07
-2.3797e-06
2.20686e-07
-2.54248e-06
2.20289e-07
-2.70499e-06
2.19947e-07
-2.86726e-06
2.19668e-07
-3.02932e-06
2.19434e-07
-3.19117e-06
2.19231e-07
-3.35282e-06
2.19032e-07
-3.51424e-06
2.18812e-07
-3.67538e-06
2.18541e-07
-3.83619e-06
2.18189e-07
-3.99657e-06
2.17725e-07
-4.15642e-06
2.17118e-07
-4.3156e-06
2.16336e-07
-4.47396e-06
2.15348e-07
-4.63133e-06
2.14121e-07
-4.78749e-06
2.12622e-07
-4.94223e-06
2.10818e-07
-5.0953e-06
2.08675e-07
-5.24641e-06
2.06159e-07
-5.39528e-06
2.03238e-07
-5.54159e-06
1.99877e-07
-5.68497e-06
1.96042e-07
-5.82508e-06
1.91702e-07
-5.96151e-06
1.86824e-07
-6.09386e-06
1.81379e-07
-6.22168e-06
1.75338e-07
-6.34454e-06
1.68676e-07
-6.46197e-06
1.61369e-07
-6.57348e-06
1.53397e-07
-6.67858e-06
1.44744e-07
-6.77678e-06
1.35399e-07
-6.86758e-06
1.25354e-07
-6.95047e-06
1.14607e-07
-7.02495e-06
1.03162e-07
-7.09054e-06
9.10301e-08
-7.14675e-06
7.8227e-08
-7.19312e-06
6.47762e-08
-7.22922e-06
5.07082e-08
-7.25463e-06
3.60608e-08
-7.26898e-06
2.0879e-08
-7.27194e-06
5.21513e-09
-7.2632e-06
-1.08712e-08
-7.24252e-06
-2.73135e-08
-7.2097e-06
-4.40388e-08
-7.16462e-06
-6.09678e-08
-7.10718e-06
-7.80157e-08
-7.03738e-06
-9.5093e-08
-6.95528e-06
-1.12106e-07
-6.86099e-06
-1.28958e-07
-6.75472e-06
-1.4555e-07
-6.63672e-06
-1.61782e-07
-6.50733e-06
-1.77555e-07
-6.36696e-06
-1.92771e-07
-6.21608e-06
-2.07332e-07
-6.05522e-06
-2.21148e-07
-5.88499e-06
-2.3413e-07
-5.70604e-06
-2.46199e-07
-5.51907e-06
-2.57281e-07
-5.32486e-06
-2.67309e-07
-5.12418e-06
-2.76227e-07
-4.91786e-06
-2.83989e-07
-4.70676e-06
-2.90559e-07
-4.49174e-06
-2.95909e-07
-4.27369e-06
-3.00025e-07
-4.05349e-06
-3.02904e-07
-3.83202e-06
-3.04551e-07
-3.61014e-06
-3.04982e-07
-3.38872e-06
-3.04224e-07
-3.16857e-06
-3.02309e-07
-2.95049e-06
-2.99281e-07
-2.73525e-06
-2.95185e-07
-2.52357e-06
-2.90076e-07
-2.31616e-06
-2.84007e-07
-2.11365e-06
-2.77038e-07
-1.91665e-06
-2.69226e-07
-1.72574e-06
-2.60628e-07
-1.54146e-06
-2.51298e-07
-1.36429e-06
-2.41286e-07
-1.19471e-06
-2.30636e-07
-1.03317e-06
-2.19388e-07
-8.80071e-07
-2.07574e-07
-7.3583e-07
-1.95219e-07
-6.00836e-07
-1.8234e-07
-4.75473e-07
-1.6895e-07
-3.60118e-07
-1.55055e-07
-2.55153e-07
-1.40661e-07
-1.60945e-07
-1.25768e-07
-7.78713e-08
-1.10388e-07
-6.27187e-09
-9.4532e-08
5.35083e-08
-7.82389e-08
1.01215e-07
-6.15602e-08
1.36609e-07
-4.46038e-08
1.59662e-07
-2.75119e-08
1.70402e-07
-1.0548e-08
1.69316e-07
5.95171e-09
1.57042e-07
2.1385e-08
1.35158e-07
3.50039e-08
1.05573e-07
4.54731e-08
7.2e-08
5.12569e-08
3.85778e-08
4.96895e-08
1.22726e-08
3.86775e-08
1.54714e-08
-1.20299e-08
5.63177e-09
-5.7584e-08
6.6425e-08
-1.40632e-07
1.39049e-07
-2.59443e-07
2.13784e-07
-4.10965e-07
2.78866e-07
-5.89743e-07
3.34126e-07
-7.90979e-07
3.77432e-07
-1.00946e-06
4.10989e-07
-1.24115e-06
4.35468e-07
-1.4823e-06
4.5307e-07
-1.73021e-06
4.64948e-07
-1.98256e-06
4.72727e-07
-2.23779e-06
4.77352e-07
-2.49464e-06
4.79862e-07
-2.75233e-06
4.80872e-07
-3.01026e-06
4.80974e-07
-3.26811e-06
4.80506e-07
-3.52564e-06
4.79764e-07
-3.78276e-06
4.78899e-07
-4.03941e-06
4.78028e-07
-4.29556e-06
4.7719e-07
-4.55121e-06
4.76408e-07
-4.80634e-06
4.7566e-07
-5.06095e-06
4.74921e-07
-5.31497e-06
4.74143e-07
-5.56834e-06
4.73276e-07
-5.82098e-06
4.72262e-07
-6.07275e-06
4.71042e-07
-6.3235e-06
4.69553e-07
-6.57303e-06
4.67733e-07
-6.82113e-06
4.65515e-07
-7.06755e-06
4.62834e-07
-7.31199e-06
4.59623e-07
-7.55412e-06
4.55816e-07
-7.7936e-06
4.51344e-07
-8.03002e-06
4.46138e-07
-8.26297e-06
4.40129e-07
-8.49196e-06
4.33249e-07
-8.71652e-06
4.25429e-07
-8.9361e-06
4.16604e-07
-9.15015e-06
4.06707e-07
-9.35807e-06
3.95676e-07
-9.55924e-06
3.83453e-07
-9.75301e-06
3.69981e-07
-9.9387e-06
3.55212e-07
-1.01156e-05
3.39102e-07
-1.02831e-05
3.21615e-07
-1.04403e-05
3.02721e-07
-1.05867e-05
2.82402e-07
-1.07213e-05
2.60649e-07
-1.08436e-05
2.37463e-07
-1.09528e-05
2.12859e-07
-1.10482e-05
1.86862e-07
-1.11291e-05
1.59513e-07
-1.11948e-05
1.30864e-07
-1.12448e-05
1.00985e-07
-1.12785e-05
6.9957e-08
-1.12954e-05
3.78777e-08
-1.12951e-05
4.85846e-09
-1.1277e-05
-2.89752e-08
-1.1241e-05
-6.34841e-08
-1.11867e-05
-9.85164e-08
-1.11141e-05
-1.33909e-07
-1.1023e-05
-1.69487e-07
-1.09135e-05
-2.05069e-07
-1.07857e-05
-2.40463e-07
-1.06398e-05
-2.75475e-07
-1.04762e-05
-3.09905e-07
-1.02952e-05
-3.43552e-07
-1.00974e-05
-3.76218e-07
-9.88344e-06
-4.07707e-07
-9.65398e-06
-4.37827e-07
-9.40983e-06
-4.66397e-07
-9.15188e-06
-4.93244e-07
-8.8811e-06
-5.1821e-07
-8.59852e-06
-5.41149e-07
-8.30523e-06
-5.61933e-07
-8.00238e-06
-5.80452e-07
-7.69117e-06
-5.96615e-07
-7.37283e-06
-6.1035e-07
-7.04861e-06
-6.21608e-07
-6.71978e-06
-6.30361e-07
-6.38759e-06
-6.366e-07
-6.05333e-06
-6.40339e-07
-5.71822e-06
-6.41609e-07
-5.38351e-06
-6.40462e-07
-5.05036e-06
-6.36964e-07
-4.71995e-06
-6.31194e-07
-4.39336e-06
-6.23248e-07
-4.07166e-06
-6.13225e-07
-3.75585e-06
-6.01234e-07
-3.44689e-06
-5.87385e-07
-3.14567e-06
-5.71792e-07
-2.85304e-06
-5.54562e-07
-2.56979e-06
-5.35798e-07
-2.29669e-06
-5.15595e-07
-2.03444e-06
-4.94037e-07
-1.78372e-06
-4.71197e-07
-1.54519e-06
-4.47133e-07
-1.31949e-06
-4.21891e-07
-1.10724e-06
-3.95501e-07
-9.09042e-07
-3.67984e-07
-7.25513e-07
-3.3935e-07
-5.57263e-07
-3.09607e-07
-4.04885e-07
-2.78763e-07
-2.68978e-07
-2.4684e-07
-1.5009e-07
-2.13878e-07
-4.87546e-08
-1.7996e-07
3.46234e-08
-1.45226e-07
9.97009e-08
-1.09906e-07
1.46428e-07
-7.43489e-08
1.74901e-07
-3.90926e-08
1.85829e-07
-4.90651e-09
1.80206e-07
2.70597e-08
1.60227e-07
5.52235e-08
1.28526e-07
7.72748e-08
8.99374e-08
9.02315e-08
4.96283e-08
8.99907e-08
1.65915e-08
7.22041e-08
3.20599e-08
-2.55476e-08
3.07343e-08
-9.99694e-08
1.41332e-07
-2.23323e-07
2.61673e-07
-3.90199e-07
3.80704e-07
-5.96806e-07
4.84783e-07
-8.36312e-07
5.73321e-07
-1.10344e-06
6.43829e-07
-1.39203e-06
6.99051e-07
-1.6975e-06
7.40162e-07
-2.0153e-06
7.70212e-07
-2.3422e-06
7.9106e-07
-2.6753e-06
8.05094e-07
-3.0126e-06
8.13862e-07
-3.35246e-06
8.18956e-07
-3.69379e-06
8.21408e-07
-4.03574e-06
8.22157e-07
-4.37781e-06
8.21788e-07
-4.71961e-06
8.20788e-07
-5.06092e-06
8.19432e-07
-5.40159e-06
8.17924e-07
-5.74153e-06
8.16352e-07
-6.08066e-06
8.1476e-07
-6.4189e-06
8.13134e-07
-6.75619e-06
8.11435e-07
-7.09242e-06
8.09596e-07
-7.42745e-06
8.07541e-07
-7.76114e-06
8.05178e-07
-8.09328e-06
8.02416e-07
-8.42365e-06
7.99151e-07
-8.75196e-06
7.95283e-07
-9.07792e-06
7.90704e-07
-9.40115e-06
7.8531e-07
-9.72127e-06
7.7899e-07
-1.00378e-05
7.71636e-07
-1.03504e-05
7.63135e-07
-1.06584e-05
7.53377e-07
-1.09612e-05
7.4225e-07
-1.12583e-05
7.29645e-07
-1.1549e-05
7.15451e-07
-1.18327e-05
6.99563e-07
-1.21085e-05
6.81877e-07
-1.23758e-05
6.62295e-07
-1.26337e-05
6.40726e-07
-1.28815e-05
6.17085e-07
-1.31181e-05
5.91297e-07
-1.33429e-05
5.63297e-07
-1.35549e-05
5.33033e-07
-1.37531e-05
5.00466e-07
-1.39368e-05
4.65573e-07
-1.41049e-05
4.28349e-07
-1.42567e-05
3.88804e-07
-1.43911e-05
3.46971e-07
-1.45075e-05
3.02902e-07
-1.46049e-05
2.56671e-07
-1.46827e-05
2.08374e-07
-1.474e-05
1.5813e-07
-1.47762e-05
1.06082e-07
-1.47908e-05
5.23954e-08
-1.47833e-05
-2.74175e-09
-1.47531e-05
-5.91195e-08
-1.47e-05
-1.16507e-07
-1.46237e-05
-1.74654e-07
-1.45241e-05
-2.33292e-07
-1.44011e-05
-2.92138e-07
-1.4255e-05
-3.50895e-07
-1.40858e-05
-4.09255e-07
-1.38939e-05
-4.66905e-07
-1.36798e-05
-5.23524e-07
-1.3444e-05
-5.78794e-07
-1.31872e-05
-6.32397e-07
-1.29102e-05
-6.84022e-07
-1.26139e-05
-7.33368e-07
-1.22994e-05
-7.80149e-07
-1.19677e-05
-8.24094e-07
-1.16201e-05
-8.64954e-07
-1.12578e-05
-9.02502e-07
-1.08823e-05
-9.36539e-07
-1.04949e-05
-9.66894e-07
-1.00971e-05
-9.93426e-07
-9.69037e-06
-1.01603e-06
-9.27631e-06
-1.03462e-06
-8.85645e-06
-1.04917e-06
-8.43234e-06
-1.05965e-06
-8.0055e-06
-1.0661e-06
-7.57747e-06
-1.06856e-06
-7.14974e-06
-1.06712e-06
-6.72376e-06
-1.06188e-06
-6.30093e-06
-1.05297e-06
-5.88262e-06
-1.04053e-06
-5.4701e-06
-1.02472e-06
-5.06463e-06
-1.00571e-06
-4.66736e-06
-9.83669e-07
-4.27943e-06
-9.58775e-07
-3.90188e-06
-9.31192e-07
-3.53572e-06
-9.01078e-07
-3.18188e-06
-8.68577e-07
-2.84129e-06
-8.33816e-07
-2.51481e-06
-7.96903e-07
-2.20329e-06
-7.57924e-07
-1.90755e-06
-7.16943e-07
-1.62841e-06
-6.74006e-07
-1.36666e-06
-6.29137e-07
-1.12312e-06
-5.82351e-07
-8.98578e-07
-5.33658e-07
-6.93825e-07
-4.83076e-07
-5.09642e-07
-4.30642e-07
-3.46747e-07
-3.7644e-07
-2.05825e-07
-3.2062e-07
-8.73963e-08
-2.63435e-07
8.12126e-09
-2.05285e-07
8.06668e-08
-1.46783e-07
1.30398e-07
-8.88151e-08
1.58183e-07
-3.26717e-08
1.6526e-07
1.98603e-08
1.54184e-07
6.62708e-08
1.27987e-07
1.03219e-07
9.20274e-08
1.26204e-07
5.19839e-08
1.29639e-07
1.77927e-08
1.06573e-07
4.95727e-08
-3.77504e-08
6.81016e-08
-1.40032e-07
2.44611e-07
-3.02752e-07
4.23873e-07
-5.16268e-07
5.94943e-07
-7.75535e-07
7.43996e-07
-1.07208e-06
8.70485e-07
-1.40015e-06
9.72125e-07
-1.75278e-06
1.05227e-06
-2.125e-06
1.11277e-06
-2.51174e-06
1.15754e-06
-2.9094e-06
1.1892e-06
-3.31467e-06
1.21094e-06
-3.72526e-06
1.22498e-06
-4.13922e-06
1.23348e-06
-4.55522e-06
1.23796e-06
-4.97222e-06
1.23972e-06
-5.38953e-06
1.23965e-06
-5.80662e-06
1.23844e-06
-6.22316e-06
1.23653e-06
-6.63889e-06
1.23421e-06
-7.05362e-06
1.23164e-06
-7.4672e-06
1.2289e-06
-7.87949e-06
1.22598e-06
-8.29033e-06
1.22283e-06
-8.69955e-06
1.21937e-06
-9.10696e-06
1.2155e-06
-9.51232e-06
1.21109e-06
-9.91535e-06
1.20601e-06
-1.03158e-05
1.2001e-06
-1.07132e-05
1.19324e-06
-1.11072e-05
1.18526e-06
-1.14973e-05
1.17601e-06
-1.18831e-05
1.16534e-06
-1.22641e-05
1.15309e-06
-1.26395e-05
1.13909e-06
-1.30088e-05
1.12318e-06
-1.33712e-05
1.10522e-06
-1.37261e-05
1.08504e-06
-1.40726e-05
1.06248e-06
-1.44099e-05
1.0374e-06
-1.47372e-05
1.00965e-06
-1.50536e-05
9.79098e-07
-1.5358e-05
9.45616e-07
-1.56496e-05
9.09089e-07
-1.59273e-05
8.69418e-07
-1.61901e-05
8.2652e-07
-1.6437e-05
7.80328e-07
-1.66669e-05
7.30797e-07
-1.68789e-05
6.77907e-07
-1.70719e-05
6.21661e-07
-1.72449e-05
5.62089e-07
-1.73969e-05
4.99248e-07
-1.7527e-05
4.33228e-07
-1.76343e-05
3.64149e-07
-1.77179e-05
2.92162e-07
-1.77771e-05
2.17451e-07
-1.78112e-05
1.40233e-07
-1.78195e-05
6.07565e-08
-1.78015e-05
-2.06971e-08
-1.77569e-05
-1.03817e-07
-1.76852e-05
-1.88265e-07
-1.75863e-05
-2.73675e-07
-1.74601e-05
-3.59658e-07
-1.73066e-05
-4.45803e-07
-1.7126e-05
-5.31684e-07
-1.69187e-05
-6.1686e-07
-1.66851e-05
-7.00883e-07
-1.64257e-05
-7.83299e-07
-1.61412e-05
-8.63654e-07
-1.58326e-05
-9.41501e-07
-1.55007e-05
-1.0164e-06
-1.51466e-05
-1.08794e-06
-1.47716e-05
-1.1557e-06
-1.4377e-05
-1.21932e-06
-1.39641e-05
-1.27845e-06
-1.35345e-05
-1.33276e-06
-1.30897e-05
-1.382e-06
-1.26314e-05
-1.42592e-06
-1.21612e-05
-1.46433e-06
-1.16809e-05
-1.49708e-06
-1.11922e-05
-1.52408e-06
-1.06968e-05
-1.54526e-06
-1.01966e-05
-1.56063e-06
-9.69327e-06
-1.5702e-06
-9.18854e-06
-1.57407e-06
-8.68409e-06
-1.57233e-06
-8.18158e-06
-1.56516e-06
-7.68258e-06
-1.55271e-06
-7.18865e-06
-1.53521e-06
-6.70124e-06
-1.51286e-06
-6.22175e-06
-1.48591e-06
-5.75153e-06
-1.45459e-06
-5.29184e-06
-1.41914e-06
-4.84389e-06
-1.3798e-06
-4.40884e-06
-1.33677e-06
-3.98776e-06
-1.29026e-06
-3.58172e-06
-1.24044e-06
-3.19173e-06
-1.18745e-06
-2.81878e-06
-1.1314e-06
-2.46384e-06
-1.07238e-06
-2.12787e-06
-1.01044e-06
-1.81182e-06
-9.45616e-07
-1.51664e-06
-8.77922e-07
-1.24328e-06
-8.0737e-07
-9.9268e-07
-7.33989e-07
-7.6576e-07
-6.57842e-07
-5.6337e-07
-5.79062e-07
-3.86309e-07
-4.97883e-07
-2.35189e-07
-4.14699e-07
-1.10486e-07
-3.30112e-07
-1.22798e-08
-2.4504e-07
5.96183e-08
-1.60769e-07
1.06155e-07
-7.91618e-08
1.28701e-07
-2.69762e-09
1.29981e-07
6.51396e-08
1.13242e-07
1.19937e-07
8.40684e-08
1.55642e-07
4.84747e-08
1.65095e-07
1.67473e-08
1.38701e-07
6.624e-08
-4.91068e-08
1.16535e-07
-1.77808e-07
3.74327e-07
-3.78015e-07
6.23081e-07
-6.35866e-07
8.53238e-07
-9.44786e-07
1.05226e-06
-1.29455e-06
1.22031e-06
-1.67887e-06
1.35592e-06
-2.09003e-06
1.46327e-06
-2.5228e-06
1.54508e-06
-2.97169e-06
1.60615e-06
-3.43289e-06
1.64996e-06
-3.9028e-06
1.68051e-06
-4.37892e-06
1.70067e-06
-4.85906e-06
1.71325e-06
-5.34175e-06
1.72023e-06
-5.82573e-06
1.72332e-06
-6.31021e-06
1.72371e-06
-6.79449e-06
1.72233e-06
-7.27815e-06
1.71978e-06
-7.7608e-06
1.71647e-06
-8.24219e-06
1.71262e-06
-8.72205e-06
1.70836e-06
-9.20017e-06
1.7037e-06
-9.67632e-06
1.69858e-06
-1.01503e-05
1.6929e-06
-1.06217e-05
1.68653e-06
-1.10903e-05
1.67931e-06
-1.15558e-05
1.67107e-06
-1.20177e-05
1.66161e-06
-1.24755e-05
1.65074e-06
-1.29289e-05
1.63826e-06
-1.33773e-05
1.62397e-06
-1.382e-05
1.60765e-06
-1.42564e-05
1.58911e-06
-1.46858e-05
1.56811e-06
-1.51075e-05
1.54446e-06
-1.55206e-05
1.51795e-06
-1.59242e-05
1.48836e-06
-1.63176e-05
1.45549e-06
-1.66997e-05
1.41916e-06
-1.70696e-05
1.37916e-06
-1.74262e-05
1.33534e-06
-1.77684e-05
1.28753e-06
-1.80952e-05
1.23559e-06
-1.84055e-05
1.1794e-06
-1.86981e-05
1.11885e-06
-1.8972e-05
1.05388e-06
-1.92259e-05
9.8444e-07
-1.94587e-05
9.10513e-07
-1.96694e-05
8.32123e-07
-1.98569e-05
7.49326e-07
-2.002e-05
6.62218e-07
-2.01579e-05
5.70933e-07
-2.02695e-05
4.75649e-07
-2.03541e-05
3.76584e-07
-2.04107e-05
2.73998e-07
-2.04387e-05
1.68197e-07
-2.04375e-05
5.95252e-08
-2.04066e-05
-5.16316e-08
-2.03455e-05
-1.64849e-07
-2.02541e-05
-2.79666e-07
-2.01321e-05
-3.9559e-07
-1.99795e-05
-5.12097e-07
-1.97966e-05
-6.28639e-07
-1.95834e-05
-7.44649e-07
-1.93405e-05
-8.59542e-07
-1.90685e-05
-9.72724e-07
-1.87679e-05
-1.0836e-06
-1.84397e-05
-1.19157e-06
-1.80848e-05
-1.29605e-06
-1.77044e-05
-1.39648e-06
-1.72997e-05
-1.4923e-06
-1.6872e-05
-1.58298e-06
-1.64228e-05
-1.66805e-06
-1.59538e-05
-1.74706e-06
-1.54665e-05
-1.8196e-06
-1.49627e-05
-1.88532e-06
-1.44442e-05
-1.94393e-06
-1.39128e-05
-1.99517e-06
-1.33705e-05
-2.03887e-06
-1.28192e-05
-2.0749e-06
-1.22607e-05
-2.10319e-06
-1.1697e-05
-2.12375e-06
-1.11301e-05
-2.13662e-06
-1.05617e-05
-2.1419e-06
-9.99371e-06
-2.13976e-06
-9.42794e-06
-2.13039e-06
-8.86609e-06
-2.11403e-06
-8.30982e-06
-2.09094e-06
-7.76073e-06
-2.06143e-06
-7.22035e-06
-2.02578e-06
-6.69012e-06
-1.98432e-06
-6.17141e-06
-1.93736e-06
-5.66556e-06
-1.88518e-06
-5.1738e-06
-1.82808e-06
-4.69734e-06
-1.76629e-06
-4.23732e-06
-1.70004e-06
-3.79486e-06
-1.62951e-06
-3.37106e-06
-1.55483e-06
-2.96697e-06
-1.47611e-06
-2.58367e-06
-1.39341e-06
-2.22221e-06
-1.30677e-06
-1.88364e-06
-1.21621e-06
-1.56903e-06
-1.12173e-06
-1.27941e-06
-1.02338e-06
-1.0158e-06
-9.21258e-07
-7.79142e-07
-8.15546e-07
-5.70314e-07
-7.06577e-07
-3.8999e-07
-5.94905e-07
-2.38683e-07
-4.81352e-07
-1.1649e-07
-3.67165e-07
-2.32035e-08
-2.54058e-07
4.21497e-08
-1.44484e-07
8.10114e-08
-4.16387e-08
9.61448e-08
5.00319e-08
9.08945e-08
1.25021e-07
7.08308e-08
1.75786e-07
4.21094e-08
1.93528e-07
1.48123e-08
1.66207e-07
8.08488e-08
-5.89681e-08
1.74847e-07
-2.11645e-07
5.28409e-07
-4.46454e-07
8.56943e-07
-7.456e-07
1.15324e-06
-1.10084e-06
1.40713e-06
-1.50011e-06
1.62013e-06
-1.93646e-06
1.79221e-06
-2.4014e-06
1.92862e-06
-2.88943e-06
2.03322e-06
-3.39472e-06
2.11179e-06
-3.9133e-06
2.16874e-06
-4.44134e-06
2.20887e-06
-4.97624e-06
2.23581e-06
-5.51563e-06
2.25295e-06
-6.05791e-06
2.26278e-06
-6.60171e-06
2.26743e-06
-7.14611e-06
2.26838e-06
-7.6903e-06
2.26682e-06
-8.23375e-06
2.26351e-06
-8.77599e-06
2.25899e-06
-9.31666e-06
2.25357e-06
-9.85542e-06
2.24741e-06
-1.0392e-05
2.24053e-06
-1.0926e-05
2.23289e-06
-1.14572e-05
2.22436e-06
-1.19851e-05
2.21478e-06
-1.25095e-05
2.20396e-06
-1.30298e-05
2.19167e-06
-1.35456e-05
2.1777e-06
-1.40564e-05
2.16178e-06
-1.45615e-05
2.14367e-06
-1.50604e-05
2.12311e-06
-1.55523e-05
2.09984e-06
-1.60365e-05
2.07358e-06
-1.65122e-05
2.04408e-06
-1.69785e-05
2.01107e-06
-1.74346e-05
1.97429e-06
-1.78794e-05
1.93347e-06
-1.83121e-05
1.88837e-06
-1.87314e-05
1.83875e-06
-1.91364e-05
1.78439e-06
-1.95259e-05
1.72507e-06
-1.98987e-05
1.6606e-06
-2.02537e-05
1.59082e-06
-2.05896e-05
1.51558e-06
-2.09054e-05
1.43477e-06
-2.11996e-05
1.34833e-06
-2.14712e-05
1.25621e-06
-2.17189e-05
1.15841e-06
-2.19416e-05
1.05498e-06
-2.21381e-05
9.46008e-07
-2.23074e-05
8.31643e-07
-2.24485e-05
7.12074e-07
-2.25603e-05
5.87544e-07
-2.26419e-05
4.58349e-07
-2.26927e-05
3.2484e-07
-2.27119e-05
1.87418e-07
-2.26989e-05
4.65363e-08
-2.26532e-05
-9.73025e-08
-2.25745e-05
-2.43549e-07
-2.24626e-05
-3.91611e-07
-2.23174e-05
-5.40856e-07
-2.2139e-05
-6.90618e-07
-2.19275e-05
-8.40201e-07
-2.16834e-05
-9.88886e-07
-2.14072e-05
-1.13594e-06
-2.10994e-05
-1.28061e-06
-2.07611e-05
-1.42215e-06
-2.0393e-05
-1.55982e-06
-1.99964e-05
-1.6929e-06
-1.95725e-05
-1.82066e-06
-1.91226e-05
-1.94244e-06
-1.86483e-05
-2.05758e-06
-1.81512e-05
-2.16549e-06
-1.76329e-05
-2.26562e-06
-1.70954e-05
-2.35747e-06
-1.65404e-05
-2.44062e-06
-1.597e-05
-2.5147e-06
-1.53861e-05
-2.57943e-06
-1.47908e-05
-2.63457e-06
-1.41861e-05
-2.67999e-06
-1.3574e-05
-2.71562e-06
-1.29567e-05
-2.74146e-06
-1.23361e-05
-2.75758e-06
-1.17143e-05
-2.76412e-06
-1.10932e-05
-2.76128e-06
-1.04746e-05
-2.74932e-06
-9.86052e-06
-2.72854e-06
-9.25257e-06
-2.69927e-06
-8.65248e-06
-2.66189e-06
-8.06186e-06
-2.61677e-06
-7.48223e-06
-2.5643e-06
-6.91507e-06
-2.50488e-06
-6.36174e-06
-2.43885e-06
-5.82357e-06
-2.36657e-06
-5.30182e-06
-2.28835e-06
-4.7977e-06
-2.20445e-06
-4.3124e-06
-2.11509e-06
-3.84705e-06
-2.02044e-06
-3.4028e-06
-1.92061e-06
-2.98077e-06
-1.81568e-06
-2.58208e-06
-1.70569e-06
-2.20784e-06
-1.59064e-06
-1.85918e-06
-1.47057e-06
-1.5372e-06
-1.34553e-06
-1.24297e-06
-1.21563e-06
-9.77492e-07
-1.08114e-06
-7.41689e-07
-9.42487e-07
-5.36273e-07
-8.00392e-07
-3.61781e-07
-6.55915e-07
-2.1833e-07
-5.10639e-07
-1.05709e-07
-3.66721e-07
-2.29529e-08
-2.27206e-07
3.14006e-08
-9.60223e-08
6.00789e-08
2.145e-08
6.64532e-08
1.18592e-07
5.59657e-08
1.86452e-07
3.47849e-08
2.14565e-07
1.25539e-08
1.88721e-07
9.33184e-08
-6.7873e-08
2.41851e-07
-2.42357e-07
7.04363e-07
-5.08863e-07
1.12218e-06
-8.46055e-07
1.49118e-06
-1.24404e-06
1.80441e-06
-1.68896e-06
2.06535e-06
-2.17313e-06
2.27593e-06
-2.68728e-06
2.44283e-06
-3.22566e-06
2.57127e-06
-3.78207e-06
2.66813e-06
-4.35245e-06
2.73885e-06
-4.93281e-06
2.78909e-06
-5.52045e-06
2.82321e-06
-6.11288e-06
2.84521e-06
-6.70844e-06
2.85811e-06
-7.30564e-06
2.86443e-06
-7.90346e-06
2.86598e-06
-8.50102e-06
2.86418e-06
-9.09769e-06
2.85997e-06
-9.69292e-06
2.85402e-06
-1.02863e-05
2.8467e-06
-1.08773e-05
2.83823e-06
-1.14656e-05
2.82866e-06
-1.20509e-05
2.81793e-06
-1.26326e-05
2.8059e-06
-1.32104e-05
2.79239e-06
-1.37838e-05
2.77717e-06
-1.43523e-05
2.75997e-06
-1.49153e-05
2.74051e-06
-1.54723e-05
2.7185e-06
-1.60224e-05
2.69363e-06
-1.65651e-05
2.66559e-06
-1.70995e-05
2.63406e-06
-1.76249e-05
2.59871e-06
-1.81402e-05
2.55923e-06
-1.86446e-05
2.5153e-06
-1.91371e-05
2.46659e-06
-1.96166e-05
2.4128e-06
-2.00821e-05
2.35365e-06
-2.05323e-05
2.28883e-06
-2.09662e-05
2.21809e-06
-2.13825e-05
2.14118e-06
-2.17799e-05
2.05788e-06
-2.21573e-05
1.96801e-06
-2.25133e-05
1.87142e-06
-2.28467e-05
1.76799e-06
-2.31561e-05
1.65764e-06
-2.34404e-05
1.54035e-06
-2.36983e-05
1.41615e-06
-2.39285e-05
1.28512e-06
-2.413e-05
1.14739e-06
-2.43016e-05
1.00316e-06
-2.44423e-05
8.52689e-07
-2.45511e-05
6.96297e-07
-2.46272e-05
5.34366e-07
-2.46698e-05
3.67346e-07
-2.46781e-05
1.95744e-07
-2.46517e-05
2.01329e-08
-2.45902e-05
-1.5886e-07
-2.44932e-05
-3.40553e-07
-2.43605e-05
-5.24211e-07
-2.41923e-05
-7.09056e-07
-2.39886e-05
-8.94271e-07
-2.37497e-05
-1.079e-06
-2.34761e-05
-1.26238e-06
-2.31684e-05
-1.44351e-06
-2.28275e-05
-1.62148e-06
-2.24541e-05
-1.79539e-06
-2.20494e-05
-1.96435e-06
-2.16147e-05
-2.12747e-06
-2.11512e-05
-2.28392e-06
-2.06606e-05
-2.43287e-06
-2.01444e-05
-2.57356e-06
-1.96044e-05
-2.70528e-06
-1.90424e-05
-2.82736e-06
-1.84604e-05
-2.93924e-06
-1.78604e-05
-3.0404e-06
-1.72445e-05
-3.13041e-06
-1.66147e-05
-3.20894e-06
-1.59732e-05
-3.27574e-06
-1.53223e-05
-3.33064e-06
-1.46641e-05
-3.37357e-06
-1.40008e-05
-3.40454e-06
-1.33344e-05
-3.42367e-06
-1.26671e-05
-3.43112e-06
-1.2001e-05
-3.42715e-06
-1.13379e-05
-3.41207e-06
-1.06799e-05
-3.38626e-06
-1.00288e-05
-3.35012e-06
-9.38633e-06
-3.30412e-06
-8.75412e-06
-3.24871e-06
-8.1338e-06
-3.18437e-06
-7.52686e-06
-3.11157e-06
-6.93474e-06
-3.03074e-06
-6.35878e-06
-2.9423e-06
-5.8003e-06
-2.84661e-06
-5.26053e-06
-2.74401e-06
-4.74069e-06
-2.63474e-06
-4.24194e-06
-2.519e-06
-3.76545e-06
-2.39692e-06
-3.31236e-06
-2.2686e-06
-2.88383e-06
-2.13407e-06
-2.48099e-06
-1.99334e-06
-2.10499e-06
-1.84644e-06
-1.75696e-06
-1.69344e-06
-1.43799e-06
-1.5345e-06
-1.14911e-06
-1.36993e-06
-8.91246e-07
-1.20029e-06
-6.65132e-07
-1.02644e-06
-4.71309e-07
-8.49706e-07
-3.0991e-07
-6.71996e-07
-1.80721e-07
-4.95917e-07
-8.28079e-08
-3.2509e-07
-1.47103e-08
-1.64173e-07
2.62189e-08
-1.94414e-08
4.33253e-08
1.01376e-07
4.1847e-08
1.88013e-07
2.78688e-08
2.28348e-07
1.04902e-08
2.06267e-07
1.03676e-07
-7.56674e-08
3.16637e-07
-2.69664e-07
9.0011e-07
-5.64832e-07
1.41606e-06
-9.36693e-07
1.86405e-06
-1.3738e-06
2.24093e-06
-1.86057e-06
2.55268e-06
-2.38856e-06
2.80369e-06
-2.94771e-06
3.00233e-06
-3.53195e-06
3.15547e-06
-4.13478e-06
3.27121e-06
-4.75202e-06
3.35614e-06
-5.37953e-06
3.4168e-06
-6.01455e-06
3.45833e-06
-6.65454e-06
3.48537e-06
-7.29774e-06
3.50144e-06
-7.94261e-06
3.50946e-06
-8.58806e-06
3.51157e-06
-9.23314e-06
3.50942e-06
-9.87715e-06
3.50412e-06
-1.05195e-05
3.49647e-06
-1.11595e-05
3.48692e-06
-1.17969e-05
3.47574e-06
-1.24311e-05
3.46298e-06
-1.30616e-05
3.4486e-06
-1.3688e-05
3.43243e-06
-1.43097e-05
3.41428e-06
-1.49263e-05
3.39386e-06
-1.5537e-05
3.37088e-06
-1.61414e-05
3.345e-06
-1.67386e-05
3.31587e-06
-1.7328e-05
3.28314e-06
-1.79087e-05
3.24644e-06
-1.84799e-05
3.20539e-06
-1.90406e-05
3.15961e-06
-1.959e-05
3.10872e-06
-2.01269e-05
3.05236e-06
-2.06503e-05
2.99014e-06
-2.11591e-05
2.92172e-06
-2.16521e-05
2.84676e-06
-2.2128e-05
2.76492e-06
-2.25857e-05
2.67591e-06
-2.30239e-05
2.57945e-06
-2.34412e-05
2.4753e-06
-2.38363e-05
2.36326e-06
-2.42079e-05
2.24316e-06
-2.45547e-05
2.11489e-06
-2.48754e-05
1.97839e-06
-2.51686e-05
1.83366e-06
-2.54331e-05
1.68074e-06
-2.56677e-05
1.51977e-06
-2.58711e-05
1.35092e-06
-2.60424e-05
1.17446e-06
-2.61804e-05
9.9072e-07
-2.62841e-05
8.00105e-07
-2.63528e-05
6.03096e-07
-2.63857e-05
4.00245e-07
-2.63821e-05
1.92178e-07
-2.63415e-05
-2.04102e-08
-2.62636e-05
-2.36757e-07
-2.61482e-05
-4.56039e-07
-2.5995e-05
-6.77375e-07
-2.58043e-05
-8.99833e-07
-2.55761e-05
-1.12244e-06
-2.5311e-05
-1.34418e-06
-2.50095e-05
-1.56401e-06
-2.46722e-05
-1.78089e-06
-2.43e-05
-1.99373e-06
-2.3894e-05
-2.20149e-06
-2.34553e-05
-2.4031e-06
-2.29854e-05
-2.59754e-06
-2.24856e-05
-2.78381e-06
-2.19577e-05
-2.96096e-06
-2.14033e-05
-3.12811e-06
-2.08243e-05
-3.2844e-06
-2.02227e-05
-3.4291e-06
-1.96006e-05
-3.56153e-06
-1.89601e-05
-3.6811e-06
-1.83033e-05
-3.78733e-06
-1.76326e-05
-3.87983e-06
-1.69503e-05
-3.95831e-06
-1.62585e-05
-4.02261e-06
-1.55596e-05
-4.07265e-06
-1.48559e-05
-4.10846e-06
-1.41496e-05
-4.13018e-06
-1.34429e-05
-4.13803e-06
-1.27379e-05
-4.13232e-06
-1.20367e-05
-4.11344e-06
-1.13413e-05
-4.08183e-06
-1.06537e-05
-4.03801e-06
-9.97547e-06
-3.9825e-06
-9.3085e-06
-3.91587e-06
-8.65438e-06
-3.83868e-06
-8.01465e-06
-3.75148e-06
-7.39076e-06
-3.6548e-06
-6.78408e-06
-3.54914e-06
-6.19593e-06
-3.43493e-06
-5.62755e-06
-3.31254e-06
-5.08016e-06
-3.18228e-06
-4.55493e-06
-3.04437e-06
-4.05301e-06
-2.89898e-06
-3.57554e-06
-2.74619e-06
-3.12367e-06
-2.58605e-06
-2.69853e-06
-2.41858e-06
-2.30125e-06
-2.24381e-06
-1.93295e-06
-2.06182e-06
-1.59472e-06
-1.8728e-06
-1.28758e-06
-1.67714e-06
-1.01245e-06
-1.47548e-06
-7.70055e-07
-1.26887e-06
-5.60933e-07
-1.05887e-06
-3.8522e-07
-8.47716e-07
-2.42706e-07
-6.38461e-07
-1.32489e-07
-4.35283e-07
-5.31285e-08
-2.43565e-07
-2.06871e-09
-7.04373e-08
2.39844e-08
7.52687e-08
3.00614e-08
1.82054e-07
2.21271e-08
2.36166e-07
8.79999e-09
2.19782e-07
1.1241e-07
-8.26747e-08
3.98281e-07
-2.94208e-07
1.11348e-06
-6.15237e-07
1.73559e-06
-1.01853e-06
2.26832e-06
-1.4912e-06
2.71281e-06
-2.01609e-06
3.07802e-06
-2.58399e-06
3.37115e-06
-3.18408e-06
3.6026e-06
-3.80998e-06
3.78109e-06
-4.45484e-06
3.91612e-06
-5.1144e-06
4.0155e-06
-5.78437e-06
4.08673e-06
-6.46196e-06
4.13578e-06
-7.14455e-06
4.16789e-06
-7.83036e-06
4.18712e-06
-8.51779e-06
4.1968e-06
-9.20571e-06
4.19937e-06
-9.89309e-06
4.19671e-06
-1.05792e-05
4.19011e-06
-1.12633e-05
4.18049e-06
-1.19449e-05
4.16836e-06
-1.26233e-05
4.15405e-06
-1.3298e-05
4.13763e-06
-1.39686e-05
4.11904e-06
-1.46344e-05
4.09813e-06
-1.52948e-05
4.07464e-06
-1.59493e-05
4.04827e-06
-1.65972e-05
4.01866e-06
-1.72378e-05
3.98546e-06
-1.78703e-05
3.94824e-06
-1.84938e-05
3.9066e-06
-1.91076e-05
3.86011e-06
-1.97107e-05
3.80835e-06
-2.0302e-05
3.75087e-06
-2.08806e-05
3.68724e-06
-2.14454e-05
3.61703e-06
-2.19952e-05
3.53983e-06
-2.25288e-05
3.45523e-06
-2.3045e-05
3.36285e-06
-2.35425e-05
3.26232e-06
-2.402e-05
3.1533e-06
-2.44761e-05
3.03549e-06
-2.49095e-05
2.90864e-06
-2.53189e-05
2.77253e-06
-2.57028e-05
2.62699e-06
-2.60599e-05
2.47191e-06
-2.63888e-05
2.30725e-06
-2.66882e-05
2.13302e-06
-2.69569e-05
1.94933e-06
-2.71935e-05
1.75634e-06
-2.73969e-05
1.55429e-06
-2.7566e-05
1.34352e-06
-2.76998e-05
1.12444e-06
-2.77973e-05
8.97539e-07
-2.78576e-05
6.63407e-07
-2.78801e-05
4.22708e-07
-2.78641e-05
1.76189e-07
-2.78092e-05
-7.53213e-08
-2.7715e-05
-3.30923e-07
-2.75814e-05
-5.89645e-07
-2.74083e-05
-8.50452e-07
-2.71959e-05
-1.11225e-06
-2.69444e-05
-1.37391e-06
-2.66543e-05
-1.63425e-06
-2.63262e-05
-1.89205e-06
-2.59609e-05
-2.14611e-06
-2.55594e-05
-2.39517e-06
-2.51228e-05
-2.63802e-06
-2.46524e-05
-2.87343e-06
-2.41496e-05
-3.10023e-06
-2.36161e-05
-3.31728e-06
-2.30535e-05
-3.52347e-06
-2.24637e-05
-3.71779e-06
-2.18487e-05
-3.89928e-06
-2.12106e-05
-4.06709e-06
-2.05516e-05
-4.22044e-06
-1.98739e-05
-4.35867e-06
-1.91798e-05
-4.48124e-06
-1.84718e-05
-4.58771e-06
-1.77522e-05