/*--------------------------------*- C++ -*----------------------------------*\
| =========                 |                                                 |
| \\      /  F ield         | OpenFOAM: The Open Source CFD Toolbox           |
|  \\    /   O peration     | Version:  2406                                  |
|   \\  /    A nd           | Website:  www.openfoam.com                      |
|    \\/     M anipulation  |                                                 |
\*---------------------------------------------------------------------------*/
FoamFile
{
    version     2.0;
    format      ascii;
    arch        "LSB;label=32;scalar=64";
    class       volScalarField;
    location    "46.6";
    object      p;
}
// * * * * * * * * * * * * * * * * * * * * * * * * * * * * * * * * * * * * * //

dimensions      [0 2 -2 0 0 0 0];

internalField   nonuniform List<scalar> 
900
(
4.78506e-06
7.46616e-05
-9.97151e-05
-0.000237199
-0.000437444
-0.000603875
-0.00084546
-0.00116688
-0.00172527
-0.00247879
-0.00316362
-0.003533
-0.00358033
-0.00350841
-0.00333895
-0.00282125
-0.00173026
0.000119369
0.00261984
0.00561656
0.00842465
0.0106218
0.0111529
0.0102272
0.00767683
0.00557454
0.00404461
0.00392695
0.0035754
0.00378383
-4.22279e-05
2.60463e-05
-0.000144178
-0.000249682
-0.000404031
-0.000516451
-0.000713719
-0.000983275
-0.00128731
-0.00169275
-0.00244413
-0.00327404
-0.00380687
-0.00410964
-0.00419891
-0.00385934
-0.00290796
-0.00118558
0.00119256
0.0040811
0.00682885
0.00901893
0.00962597
0.00880834
0.0064058
0.00454998
0.00335376
0.00368454
0.00356886
0.003876
1.07489e-05
3.70275e-05
-0.000187466
-0.000316957
-0.00044249
-0.000524249
-0.000646326
-0.000865365
-0.00153296
-0.00264204
-0.00394865
-0.0052801
-0.00642457
-0.00727828
-0.00772175
-0.00757858
-0.00674027
-0.00509422
-0.00276793
0.000140769
0.00306007
0.00562855
0.00688707
0.00679391
0.00507015
0.00355385
0.00243957
0.00295507
0.0029054
0.0032346
0.000200958
0.000137379
-0.000133701
-0.000271805
-0.000354533
-0.000437235
-0.000804232
-0.00161917
-0.00290567
-0.00467945
-0.00675747
-0.00880431
-0.0105441
-0.0118525
-0.0126383
-0.0127772
-0.0122278
-0.0108845
-0.0088757
-0.00618251
-0.00326629
-0.000278062
0.00194798
0.00328141
0.00327088
0.00283505
0.00244712
0.00282914
0.0026173
0.00290155
0.000494327
0.000285152
-4.80321e-05
-0.000254267
-0.000443737
-0.000912873
-0.00190443
-0.00359226
-0.00592227
-0.00861609
-0.0113324
-0.013823
-0.0158845
-0.0174175
-0.0183737
-0.0186761
-0.0183516
-0.0172919
-0.0156514
-0.013284
-0.010582
-0.00740484
-0.00445845
-0.00168269
0.000237208
0.00158515
0.00219205
0.00282765
0.00218653
0.00240445
0.00118716
0.000836281
0.000459809
3.57524e-05
-0.000575317
-0.00179847
-0.00381756
-0.00658696
-0.00977121
-0.0130526
-0.0161162
-0.0187664
-0.0208897
-0.0224391
-0.0234324
-0.0238147
-0.0236746
-0.022878
-0.0216311
-0.0196726
-0.0174068
-0.0144119
-0.0113393
-0.00773001
-0.00433662
-0.0010806
0.00113691
0.00290869
0.00167989
0.00207948
0.00198458
0.00149021
0.00100064
0.000145721
-0.00119172
-0.00349132
-0.00661533
-0.0103018
-0.0140705
-0.017619
-0.0207146
-0.0232726
-0.0252707
-0.0267007
-0.0276324
-0.0280046
-0.0279579
-0.0273137
-0.026347
-0.0246945
-0.0228458
-0.0201595
-0.0173669
-0.0135859
-0.00964449
-0.00527596
-0.000937713
0.00106893
0.00177104
0.00117645
0.00293587
0.00232381
0.00159829
7.79852e-05
-0.00224574
-0.00567708
-0.00974618
-0.0140269
-0.0180462
-0.0216063
-0.0245861
-0.0269854
-0.0288524
-0.0301861
-0.0310958
-0.0314845
-0.0315422
-0.0310217
-0.030276
-0.0288291
-0.0272939
-0.0248468
-0.0224044
-0.018728
-0.0148995
-0.00989507
-0.00450073
-0.00126597
0.00229218
-0.000174345
0.00329045
0.00256759
0.00151755
-0.000736988
-0.00401629
-0.00838769
-0.0130787
-0.01764
-0.0216677
-0.025092
-0.027887
-0.0301134
-0.0318575
-0.033106
-0.033999
-0.0343921
-0.0345324
-0.0340927
-0.0335199
-0.0322125
-0.0309265
-0.0286542
-0.0265361
-0.0230494
-0.0196061
-0.0145064
-0.00910456
-0.00390177
-9.1375e-05
-0.00107932
0.00304889
0.00223668
0.000804145
-0.00212328
-0.00619212
-0.0111766
-0.0161635
-0.0207472
-0.0246505
-0.0278965
-0.0305356
-0.0326408
-0.0343228
-0.0355329
-0.0364462
-0.0368579
-0.0370837
-0.036703
-0.0362719
-0.0350504
-0.0339557
-0.0317919
-0.0299411
-0.02662
-0.0235914
-0.018648
-0.0134356
-0.00715948
-0.00205776
-0.000163891
0.00188231
0.00101074
-0.00074247
-0.00416641
-0.0087456
-0.014044
-0.0190789
-0.0235468
-0.0272671
-0.0303345
-0.0328408
-0.0348487
-0.0364857
-0.0376595
-0.0385893
-0.0390015
-0.039296
-0.0389458
-0.0386331
-0.0374633
-0.0365277
-0.0344261
-0.0327858
-0.0295755
-0.0269164
-0.0221808
-0.017351
-0.010498
-0.00342403
0.000191422
0.000201574
-0.000689928
-0.00270523
-0.00640863
-0.0112415
-0.0165744
-0.0214887
-0.0257556
-0.0292944
-0.0322148
-0.0346429
-0.0365961
-0.0382297
-0.0393894
-0.0403549
-0.0407687
-0.0411317
-0.0407971
-0.0405912
-0.0394534
-0.0386656
-0.0366126
-0.035169
-0.0320529
-0.029734
-0.0252868
-0.0211162
-0.0144756
-0.00705076
-0.00253494
-0.00189587
-0.00277451
-0.00494704
-0.00877278
-0.0136683
-0.0189147
-0.0236489
-0.0277206
-0.0311011
-0.0339044
-0.0362742
-0.0381775
-0.0398064
-0.0409366
-0.041924
-0.0423132
-0.0427238
-0.0423724
-0.0422473
-0.0411075
-0.0404407
-0.0384076
-0.037137
-0.0340891
-0.0320717
-0.0278828
-0.0244262
-0.0184074
-0.01169
-0.00715222
-0.00391891
-0.00474811
-0.00702357
-0.0108142
-0.015644
-0.0206834
-0.0252117
-0.0290849
-0.0323463
-0.0350644
-0.0374188
-0.0392999
-0.0409575
-0.0420762
-0.0431076
-0.043479
-0.043946
-0.0435727
-0.0435252
-0.0423716
-0.0418172
-0.0397942
-0.038689
-0.0357045
-0.033973
-0.0300376
-0.0272947
-0.0220071
-0.0164548
-0.012195
-0.00578307
-0.00655514
-0.00886685
-0.0125848
-0.0172987
-0.0221629
-0.0265281
-0.0302662
-0.0334497
-0.0361092
-0.038459
-0.0403126
-0.0419933
-0.0430808
-0.044143
-0.0444694
-0.0449726
-0.0445446
-0.0445459
-0.0433409
-0.0428643
-0.0408132
-0.039839
-0.0368778
-0.0353832
-0.0316225
-0.0294873
-0.0248889
-0.0206198
-0.0168255
-0.00717049
-0.00785181
-0.0101794
-0.0137379
-0.0183116
-0.0229562
-0.0271858
-0.0307957
-0.0339406
-0.0365608
-0.0389415
-0.0407898
-0.0425285
-0.0436071
-0.0447298
-0.045027
-0.0455846
-0.0451069
-0.0451605
-0.0438973
-0.0434876
-0.0413924
-0.0405301
-0.037571
-0.03629
-0.0326498
-0.0310293
-0.0269348
-0.0238146
-0.0204483
-0.00820418
-0.00880008
-0.0110777
-0.0145015
-0.0189268
-0.0234378
-0.027592
-0.0311505
-0.0342976
-0.0369014
-0.0393239
-0.041159
-0.0429537
-0.0440041
-0.0451786
-0.0454218
-0.0460165
-0.0454582
-0.0455358
-0.0441749
-0.0437907
-0.0416003
-0.0407954
-0.0377702
-0.0366322
-0.0330083
-0.0317863
-0.0280252
-0.0259128
-0.0228903
-0.00873018
-0.0091833
-0.0113796
-0.0145703
-0.0188469
-0.0231641
-0.0272702
-0.0307634
-0.0339464
-0.0365438
-0.0390434
-0.0408877
-0.042776
-0.0438247
-0.0450846
-0.0452964
-0.0459511
-0.0453247
-0.0454334
-0.0439732
-0.0436038
-0.0412998
-0.0405258
-0.0373972
-0.0363669
-0.0326825
-0.0317812
-0.0281508
-0.0268798
-0.024058
-0.00907812
-0.00938575
-0.0113706
-0.0143409
-0.0183974
-0.022591
-0.0266729
-0.0301725
-0.033429
-0.0360432
-0.038638
-0.0404848
-0.042474
-0.0435053
-0.0448508
-0.0450111
-0.0457159
-0.0449942
-0.0451093
-0.04351
-0.0431111
-0.0406334
-0.0398227
-0.036503
-0.0354952
-0.0316321
-0.0309655
-0.0272928
-0.0267632
-0.0239838
-0.00906619
-0.00913191
-0.0108658
-0.0134428
-0.0172711
-0.0212038
-0.0252694
-0.0287274
-0.0320922
-0.034735
-0.0374697
-0.0393503
-0.0414818
-0.0425293
-0.0439931
-0.0441301
-0.0449049
-0.0441048
-0.0442303
-0.0424925
-0.042049
-0.0393766
-0.0384947
-0.034937
-0.0339065
-0.0297838
-0.0293061
-0.025427
-0.0255884
-0.0226784
-0.00911189
-0.00895258
-0.0102954
-0.0124788
-0.0158784
-0.0195693
-0.0235544
-0.0270197
-0.0305235
-0.0332243
-0.036137
-0.0380553
-0.0403571
-0.0414138
-0.0430149
-0.0431158
-0.0439677
-0.0430672
-0.0431914
-0.0412765
-0.0407503
-0.0378191
-0.0367962
-0.0329037
-0.03176
-0.0272502
-0.0268977
-0.0226333
-0.0234632
-0.0201946
-0.00867597
-0.00821934
-0.00930722
-0.0108587
-0.0138693
-0.0170643
-0.0209625
-0.024335
-0.0280182
-0.0308015
-0.0339583
-0.0359713
-0.0384952
-0.0396124
-0.0413792
-0.0414823
-0.0424187
-0.0414407
-0.0415516
-0.0394617
-0.0388205
-0.0356049
-0.0343871
-0.030104
-0.0287834
-0.0238043
-0.0235461
-0.0187561
-0.0203237
-0.01645
-0.00841787
-0.00792001
-0.00858894
-0.00960182
-0.0117972
-0.0144629
-0.0180405
-0.0213132
-0.0251752
-0.0280734
-0.0315486
-0.0336864
-0.0365042
-0.0376945
-0.0396843
-0.0397858
-0.0408494
-0.0397733
-0.0398954
-0.0375908
-0.0368323
-0.0332701
-0.0318217
-0.0270611
-0.0255018
-0.0199362
-0.0197186
-0.014189
-0.0164534
-0.0115028
-0.00758099
-0.00705802
-0.00748781
-0.00767322
-0.00921778
-0.0109567
-0.014236
-0.0172367
-0.0213154
-0.0243563
-0.0282269
-0.0305808
-0.0337517
-0.0351001
-0.0373306
-0.0374968
-0.0386686
-0.0375433
-0.0376284
-0.0351356
-0.0341862
-0.0302698
-0.0284951
-0.0232018
-0.0212913
-0.0150362
-0.0147671
-0.0083282
-0.0113705
-0.00481978
-0.0073003
-0.0073378
-0.00710938
-0.0068241
-0.00687544
-0.00770943
-0.010203
-0.0128695
-0.0170785
-0.0202708
-0.0246285
-0.0272498
-0.030899
-0.0324418
-0.0350307
-0.0352607
-0.0366529
-0.0354408
-0.0356056
-0.0328607
-0.0318478
-0.0275049
-0.0255399
-0.0196549
-0.0175074
-0.0105034
-0.0101504
-0.0025684
-0.00590345
0.00364562
-0.00659692
-0.00635391
-0.0061464
-0.00467307
-0.00399797
-0.00346132
-0.00547387
-0.00763584
-0.0120253
-0.015373
-0.0202316
-0.0232035
-0.0273354
-0.0291801
-0.0320983
-0.0325082
-0.0340492
-0.0328785
-0.0330069
-0.0301501
-0.0289109
-0.0242718
-0.0218962
-0.0154716
-0.0127822
-0.00488338
-0.00396538
0.00519853
0.00224159
0.0161618
-0.00578274
-0.00731752
-0.00609548
-0.00440638
-0.0016235
-0.000126055
-0.000964772
-0.00268712
-0.00708307
-0.0105707
-0.0159642
-0.0193026
-0.0240254
-0.0261822
-0.0295795
-0.0301297
-0.0320237
-0.0307878
-0.0311798
-0.0280429
-0.0270312
-0.0218981
-0.0197683
-0.0126353
-0.0101569
-0.00120964
4.33972e-05
0.0111689
0.0105087
0.0343123
-0.00638567
-0.00561313
-0.00504331
-0.000849614
0.00183972
0.00448933
0.00362451
0.00227058
-0.00230973
-0.0059358
-0.0117076
-0.0153949
-0.0205312
-0.0230411
-0.026762
-0.0275828
-0.0296631
-0.0286056
-0.0290294
-0.026
-0.0248366
-0.0197373
-0.0171682
-0.00984669
-0.00633021
0.00362231
0.00745593
0.0222649
0.0311519
0.0697525
-0.000493684
-0.00704425
-0.00502677
-0.0020282
0.0034521
0.00655304
0.00680531
0.00551324
0.000973872
-0.00281915
-0.0089557
-0.0129242
-0.0184955
-0.0212557
-0.0253776
-0.0263199
-0.0287795
-0.0276659
-0.0285222
-0.0252172
-0.0246602
-0.0189966
-0.0173492
-0.00902103
-0.0066566
0.00535922
0.00953803
0.0315245
0.0510487
0.117753
-0.0213442
-0.00384236
-0.00024343
0.00389745
0.00745509
0.0100312
0.0088457
0.00730358
0.00248051
-0.00136709
-0.00749513
-0.0115376
-0.0171134
-0.0199919
-0.0241529
-0.0252329
-0.0277231
-0.0267658
-0.0275836
-0.0244891
-0.0237033
-0.0183535
-0.015923
-0.00783483
-0.00266256
0.011211
0.0269991
0.0652492
0.128582
0.243366
)
;

boundaryField
{
    movingWall
    {
        type            zeroGradient;
    }
    fixedWalls
    {
        type            zeroGradient;
    }
    frontAndBack
    {
        type            empty;
    }
}


// ************************************************************************* //
