/*--------------------------------*- C++ -*----------------------------------*\
| =========                 |                                                 |
| \\      /  F ield         | OpenFOAM: The Open Source CFD Toolbox           |
|  \\    /   O peration     | Version:  2406                                  |
|   \\  /    A nd           | Website:  www.openfoam.com                      |
|    \\/     M anipulation  |                                                 |
\*---------------------------------------------------------------------------*/
FoamFile
{
    version     2.0;
    format      ascii;
    arch        "LSB;label=32;scalar=64";
    class       volScalarField;
    location    "40.5";
    object      p;
}
// * * * * * * * * * * * * * * * * * * * * * * * * * * * * * * * * * * * * * //

dimensions      [0 2 -2 0 0 0 0];

internalField   nonuniform List<scalar> 
14400
(
-1.82034e-08
8.63582e-06
1.98445e-05
2.82383e-05
3.03226e-05
2.38944e-05
7.94234e-06
-1.76121e-05
-5.2151e-05
-9.45893e-05
-0.000143595
-0.000197793
-0.000255937
-0.000317038
-0.000380446
-0.000445889
-0.000513474
-0.000583693
-0.000657292
-0.000735241
-0.000818647
-0.000908666
-0.00100656
-0.00111351
-0.00123063
-0.00135896
-0.00149948
-0.00165308
-0.00182062
-0.00200288
-0.00220058
-0.00241435
-0.00264467
-0.00289185
-0.00315595
-0.00343677
-0.00373371
-0.00404578
-0.00437152
-0.00470894
-0.00505548
-0.00540799
-0.00576269
-0.00611518
-0.00646049
-0.00679307
-0.0071069
-0.00739558
-0.0076524
-0.00787054
-0.0080432
-0.00816377
-0.008226
-0.00822423
-0.00815357
-0.00801008
-0.00779101
-0.00749493
-0.00712192
-0.00667373
-0.0061539
-0.00556756
-0.0049217
-0.00422611
-0.00349192
-0.00273146
-0.00195899
-0.00119003
-0.000441046
0.000271011
0.000929141
0.00151685
0.00201871
0.00242097
0.00271211
0.00288336
0.00292919
0.00284756
0.00264014
0.00231229
0.00187288
0.00133393
0.0007101
1.80027e-05
-0.000724505
-0.00149912
-0.00228784
-0.0030737
-0.00384134
-0.0045775
-0.00527167
-0.00591542
-0.00650251
-0.00702995
-0.00749691
-0.00790423
-0.00825437
-0.00855096
-0.0087985
-0.00900196
-0.00916653
-0.00929738
-0.00939945
-0.00947735
-0.00953525
-0.00957685
-0.00960536
-0.0096235
-0.00963353
-0.00963728
-0.00963613
-0.00963113
-0.00962297
-0.00961212
-0.00959894
-0.00958382
-0.00956752
-0.00955149
-0.00953826
-0.00953074
-8.61371e-06
7.18558e-08
1.03736e-05
1.68242e-05
1.72135e-05
9.70705e-06
-6.61991e-06
-3.186e-05
-6.54786e-05
-0.000106514
-0.000153771
-0.000206014
-0.000262119
-0.0003212
-0.00038268
-0.000446331
-0.000512266
-0.000580905
-0.000652955
-0.000729324
-0.000811078
-0.000899374
-0.000995317
-0.00110002
-0.00121454
-0.00133989
-0.001477
-0.00162678
-0.00179007
-0.00196766
-0.00216031
-0.00236866
-0.00259324
-0.00283443
-0.00309237
-0.00336693
-0.00365763
-0.00396362
-0.00428354
-0.00461558
-0.00495731
-0.00530575
-0.00565727
-0.00600761
-0.00635192
-0.00668477
-0.00700022
-0.00729191
-0.00755318
-0.00777721
-0.00795715
-0.00808632
-0.00815841
-0.00816762
-0.00810893
-0.00797825
-0.00777265
-0.00749051
-0.00713174
-0.00669784
-0.00619206
-0.00561979
-0.0049882
-0.00430583
-0.0035835
-0.00283406
-0.00207167
-0.00131173
-0.000570631
0.000134704
0.000787276
0.00137055
0.00186905
0.00226895
0.00255864
0.00272929
0.00277529
0.00269459
0.00248885
0.00216345
0.00172734
0.00119262
0.000574061
-0.000111628
-0.000846513
-0.00161225
-0.00239088
-0.00316553
-0.00392104
-0.0046444
-0.0053248
-0.00595435
-0.00652801
-0.00704288
-0.00749806
-0.00789475
-0.00823562
-0.00852445
-0.00876578
-0.00896457
-0.00912594
-0.00925491
-0.00935628
-0.00943446
-0.00949344
-0.00953673
-0.00956736
-0.00958792
-0.00960054
-0.00960694
-0.00960847
-0.00960615
-0.00960068
-0.00959255
-0.00958215
-0.00956987
-0.00955636
-0.00954277
-0.00953076
-0.00952318
-2.0068e-05
-1.0311e-05
1.54144e-07
5.0612e-06
3.82778e-06
-4.87392e-06
-2.1795e-05
-4.69697e-05
-7.98853e-05
-0.000119654
-0.000165182
-0.000215344
-0.000269129
-0.000325753
-0.000384722
-0.000445865
-0.000509325
-0.000575523
-0.000645138
-0.00071903
-0.000798181
-0.000883641
-0.000976471
-0.00107772
-0.00118838
-0.00130943
-0.00144177
-0.0015863
-0.00174387
-0.00191533
-0.00210148
-0.00230305
-0.0025207
-0.00275492
-0.00300602
-0.00327403
-0.0035587
-0.00385935
-0.0041749
-0.0045037
-0.00484358
-0.00519171
-0.00554464
-0.00589823
-0.00624769
-0.00658763
-0.00691208
-0.00721461
-0.00748842
-0.00772654
-0.00792193
-0.00806769
-0.00815727
-0.00818465
-0.00814458
-0.00803275
-0.007846
-0.00758252
-0.00724201
-0.00682583
-0.00633697
-0.00578037
-0.00516351
-0.00449511
-0.00378553
-0.00304722
-0.00229431
-0.00154217
-0.000807158
-0.000106225
0.000543575
0.00112562
0.0016243
0.00202561
0.00231778
0.00249178
0.0025418
0.00246563
0.00226482
0.00194471
0.00151423
0.000985562
0.000373591
-0.0003048
-0.0010315
-0.00178799
-0.00255617
-0.00331906
-0.00406148
-0.00477046
-0.00543554
-0.00604915
-0.00660646
-0.00710483
-0.00754379
-0.00792496
-0.00825141
-0.00852721
-0.00875714
-0.00894632
-0.0090999
-0.00922289
-0.00931998
-0.00939543
-0.00945302
-0.00949605
-0.00952735
-0.00954927
-0.00956379
-0.00957246
-0.00957654
-0.00957696
-0.00957441
-0.00956934
-0.00956209
-0.00955297
-0.0095424
-0.00953101
-0.00951897
-0.00950998
-2.96534e-05
-1.75896e-05
-5.07748e-06
3.53485e-08
-1.67182e-06
-1.11081e-05
-2.87839e-05
-5.45415e-05
-8.77285e-05
-0.000127364
-0.000172297
-0.000221381
-0.000273619
-0.000328263
-0.000384876
-0.000443348
-0.000503891
-0.000566984
-0.000633335
-0.000703824
-0.000779433
-0.000861191
-0.000950137
-0.00104728
-0.00115359
-0.00127002
-0.00139747
-0.00153686
-0.00168913
-0.00185523
-0.0020361
-0.00223266
-0.00244577
-0.00267618
-0.00292446
-0.00319094
-0.00347565
-0.00377819
-0.00409772
-0.00443283
-0.00478147
-0.00514091
-0.00550768
-0.00587756
-0.00624559
-0.0066061
-0.00695282
-0.00727893
-0.00757726
-0.0078404
-0.00806094
-0.00823162
-0.00834555
-0.00839644
-0.0083788
-0.00828813
-0.00812114
-0.00787588
-0.00755198
-0.0071507
-0.00667512
-0.00613004
-0.00552225
-0.00486085
-0.00415638
-0.00342113
-0.00266907
-0.00191555
-0.00117696
-0.000470324
0.000187151
0.000778623
0.00128819
0.00170151
0.00200638
0.00219335
0.0022562
0.0021923
0.00200286
0.00169298
0.00127145
0.000750466
0.000145013
-0.000527777
-0.00124945
-0.00200109
-0.00276414
-0.00352122
-0.00425674
-0.00495747
-0.00561286
-0.00621521
-0.00675946
-0.00724312
-0.00766636
-0.00803112
-0.00834086
-0.00860014
-0.00881418
-0.0089885
-0.0091286
-0.00923972
-0.00932667
-0.00939376
-0.00944471
-0.00948272
-0.00951043
-0.00953002
-0.00954328
-0.00955158
-0.00955601
-0.00955737
-0.0095562
-0.00955285
-0.00954748
-0.00954016
-0.009531
-0.00952008
-0.00950615
-0.00949465
-3.47468e-05
-2.04192e-05
-5.71827e-06
-6.19425e-08
-2.0997e-06
-1.24236e-05
-3.128e-05
-5.82468e-05
-9.24363e-05
-0.000132674
-0.000177664
-0.000226166
-0.000277148
-0.000329878
-0.000383973
-0.000439409
-0.000496486
-0.000555788
-0.000618112
-0.000684407
-0.000755702
-0.000833057
-0.000917517
-0.00101009
-0.00111176
-0.0012235
-0.00134627
-0.00148113
-0.00162914
-0.0017915
-0.0019694
-0.00216409
-0.00237679
-0.00260863
-0.00286057
-0.00313331
-0.00342722
-0.00374219
-0.00407756
-0.00443199
-0.00480339
-0.00518885
-0.00558459
-0.00598596
-0.00638749
-0.00678293
-0.00716539
-0.00752747
-0.00786144
-0.00815938
-0.00841347
-0.00861612
-0.00876019
-0.00883925
-0.00884768
-0.00878096
-0.00863578
-0.0084102
-0.00810382
-0.00771791
-0.00725549
-0.00672142
-0.00612235
-0.00546697
-0.00476578
-0.00403098
-0.00327638
-0.00251719
-0.00176972
-0.00105099
-0.000378311
0.000231273
0.000761528
0.00119765
0.00152691
0.00173921
0.00182764
0.0017889
0.00162354
0.0013361
0.000934959
0.000432019
-0.000157813
-0.000817325
-0.00152781
-0.00226997
-0.00302476
-0.00377424
-0.00450228
-0.00519511
-0.00584169
-0.00643389
-0.00696648
-0.007437
-0.00784551
-0.00819414
-0.00848665
-0.00872801
-0.00892392
-0.00908039
-0.00920339
-0.00929857
-0.00937107
-0.00942543
-0.00946548
-0.00949442
-0.00951485
-0.00952882
-0.00953792
-0.00954337
-0.00954606
-0.0095466
-0.00954535
-0.00954247
-0.0095379
-0.00953142
-0.0095228
-0.0095116
-0.00949528
-0.00948112
-3.3744e-05
-1.75377e-05
-1.03734e-06
4.96547e-06
2.31773e-06
-9.33072e-06
-2.99498e-05
-5.87999e-05
-9.46852e-05
-0.000136165
-0.000181733
-0.000230016
-0.000279919
-0.000330719
-0.000382101
-0.000434149
-0.000487298
-0.000542271
-0.000600001
-0.000661554
-0.000728055
-0.000800637
-0.000880405
-0.000968434
-0.00106578
-0.00117354
-0.00129287
-0.00142504
-0.00157144
-0.00173364
-0.00191329
-0.0021121
-0.0023318
-0.002574
-0.00284012
-0.00313125
-0.00344799
-0.00379035
-0.0041576
-0.00454817
-0.00495954
-0.00538819
-0.00582965
-0.00627846
-0.00672833
-0.00717221
-0.00760247
-0.00801105
-0.0083897
-0.00873011
-0.00902419
-0.00926418
-0.00944293
-0.00955399
-0.00959184
-0.00955207
-0.00943143
-0.0092281
-0.00894171
-0.00857348
-0.00812634
-0.00760501
-0.00701601
-0.00636766
-0.0056701
-0.00493521
-0.00417647
-0.00340877
-0.00264817
-0.00191155
-0.0012162
-0.000579304
-1.74193e-05
0.000454152
0.000821985
0.00107515
0.00120578
0.00120956
0.00108601
0.000838716
0.000475214
6.75423e-06
-0.000552197
-0.00118463
-0.00187181
-0.00259418
-0.00333229
-0.00406765
-0.00478349
-0.00546536
-0.00610158
-0.00668342
-0.00720513
-0.00766389
-0.00805942
-0.00839373
-0.00867062
-0.00889522
-0.00907352
-0.00921192
-0.00931685
-0.00939443
-0.00945023
-0.00948916
-0.00951534
-0.00953214
-0.00954224
-0.00954766
-0.00954991
-0.00955007
-0.00954886
-0.0095467
-0.00954375
-0.00953997
-0.00953505
-0.00952848
-0.00951969
-0.00950779
-0.00948916
-0.00947258
-2.56573e-05
-8.03875e-06
9.68444e-06
1.55578e-05
1.17667e-05
-1.82701e-06
-2.48938e-05
-5.63278e-05
-9.45675e-05
-0.000137852
-0.000184428
-0.000232766
-0.000281704
-0.000330541
-0.000379051
-0.000427459
-0.000476373
-0.000526699
-0.000579549
-0.000636156
-0.000697794
-0.000765734
-0.000841221
-0.00092549
-0.00101981
-0.00112553
-0.00124416
-0.0013774
-0.00152716
-0.00169557
-0.00188488
-0.00209745
-0.00233557
-0.00260136
-0.00289658
-0.00322252
-0.00357973
-0.00396797
-0.00438598
-0.00483147
-0.00530104
-0.00579018
-0.00629334
-0.00680408
-0.00731514
-0.00781866
-0.00830633
-0.00876962
-0.00919992
-0.00958876
-0.00992799
-0.0102099
-0.0104276
-0.0105746
-0.0106458
-0.0106369
-0.0105447
-0.0103676
-0.0101051
-0.00975853
-0.00933054
-0.00882558
-0.00824981
-0.00761112
-0.00691912
-0.00618513
-0.00542206
-0.00464427
-0.00386734
-0.0031078
-0.00238272
-0.0017093
-0.00110435
-0.000583664
-0.000161426
0.000150424
0.000342803
0.000410012
0.000350143
0.000165327
-0.000138234
-0.000550452
-0.00105777
-0.0016438
-0.00229012
-0.00297717
-0.00368525
-0.00439538
-0.00509017
-0.00575443
-0.0063757
-0.00694446
-0.00745425
-0.00790154
-0.00828551
-0.00860772
-0.00887164
-0.00908225
-0.00924554
-0.00936806
-0.00945649
-0.00951734
-0.00955659
-0.00957956
-0.00959076
-0.00959386
-0.00959176
-0.00958661
-0.00957994
-0.00957279
-0.00956577
-0.00955916
-0.00955297
-0.00954693
-0.00954052
-0.00953299
-0.00952345
-0.00951064
-0.00949003
-0.00947154
-9.69393e-06
8.84941e-06
2.71324e-05
3.22284e-05
2.65961e-05
1.03218e-05
-1.59272e-05
-5.06322e-05
-9.18209e-05
-0.000137379
-0.000185294
-0.000233878
-0.000281925
-0.000328781
-0.000374346
-0.000419024
-0.000463636
-0.000509315
-0.000557401
-0.000609349
-0.000666654
-0.000730817
-0.000803341
-0.00088577
-0.000979755
-0.00108712
-0.00120995
-0.0013506
-0.00151169
-0.0016961
-0.00190681
-0.00214681
-0.00241889
-0.00272549
-0.00306842
-0.00344869
-0.00386637
-0.00432038
-0.00480846
-0.00532714
-0.00587174
-0.00643655
-0.00701486
-0.00759919
-0.00818147
-0.00875317
-0.00930557
-0.00982986
-0.0103174
-0.0107596
-0.0111487
-0.011477
-0.011738
-0.0119255
-0.0120345
-0.012061
-0.0120022
-0.0118562
-0.0116227
-0.0113028
-0.0108989
-0.0104151
-0.0098571
-0.00923212
-0.00854909
-0.00781857
-0.00705266
-0.00626491
-0.00547017
-0.00468434
-0.00392405
-0.00320628
-0.00254788
-0.00196505
-0.00147271
-0.00108389
-0.000809078
-0.000655663
-0.000627422
-0.000724179
-0.000941655
-0.00127153
-0.00170178
-0.00221717
-0.00280008
-0.00343135
-0.00409126
-0.00476054
-0.0054212
-0.0060573
-0.0066555
-0.00720535
-0.00769949
-0.00813349
-0.00850572
-0.00881702
-0.00907023
-0.00926985
-0.00942153
-0.00953165
-0.00960688
-0.00965385
-0.00967881
-0.0096874
-0.00968451
-0.00967417
-0.00965957
-0.00964311
-0.00962649
-0.0096108
-0.00959666
-0.0095843
-0.00957361
-0.00956419
-0.00955536
-0.00954614
-0.00953542
-0.0095216
-0.00949955
-0.00947978
1.49879e-05
3.39656e-05
5.21062e-05
5.56816e-05
4.74205e-05
2.76785e-05
-2.48805e-06
-4.11028e-05
-8.57514e-05
-0.000133955
-0.000183449
-0.000232419
-0.000279649
-0.00032458
-0.000367283
-0.000408386
-0.00044897
-0.000490443
-0.000534434
-0.000582695
-0.000637042
-0.000699336
-0.000771506
-0.000855613
-0.000953923
-0.00106899
-0.0012037
-0.00136128
-0.00154524
-0.00175924
-0.00200698
-0.00229189
-0.00261697
-0.00298451
-0.00339583
-0.00385115
-0.00434941
-0.00488823
-0.00546392
-0.00607156
-0.00670513
-0.00735763
-0.00802136
-0.00868799
-0.00934884
-0.00999501
-0.0106176
-0.0112077
-0.0117567
-0.0122566
-0.0126994
-0.0130782
-0.0133864
-0.0136184
-0.0137696
-0.013836
-0.013815
-0.013705
-0.0135055
-0.0132174
-0.0128429
-0.0123857
-0.0118507
-0.0112446
-0.0105753
-0.00985254
-0.00908731
-0.00829213
-0.00748081
-0.0066683
-0.00587044
-0.00510366
-0.00438457
-0.0037295
-0.00315392
-0.00267187
-0.00229529
-0.00203346
-0.00189234
-0.00187421
-0.0019773
-0.00219577
-0.00251983
-0.00293616
-0.0034286
-0.00397892
-0.00456787
-0.00517613
-0.00578528
-0.00637866
-0.00694197
-0.00746374
-0.00793547
-0.00835168
-0.00870969
-0.00900935
-0.00925266
-0.00944333
-0.00958636
-0.00968765
-0.00975354
-0.00979048
-0.00980473
-0.00980207
-0.00978761
-0.00976569
-0.00973983
-0.00971273
-0.00968631
-0.00966186
-0.00964011
-0.00962132
-0.00960539
-0.00959186
-0.00957995
-0.00956854
-0.00955635
-0.00954157
-0.0095187
-0.00949834
4.9401e-05
6.83132e-05
8.55843e-05
8.68515e-05
7.51427e-05
5.11473e-05
1.63695e-05
-2.67172e-05
-7.52413e-05
-0.000126371
-0.000177624
-0.000227107
-0.000273657
-0.000316864
-0.000357029
-0.00039506
-0.00043235
-0.000470651
-0.000511958
-0.000558426
-0.000612334
-0.000676085
-0.000752257
-0.000843675
-0.000953489
-0.00108522
-0.00124279
-0.0014304
-0.00165245
-0.00191331
-0.00221704
-0.00256715
-0.00296628
-0.00341595
-0.0039164
-0.00446645
-0.00506348
-0.00570346
-0.00638113
-0.00709009
-0.00782302
-0.00857192
-0.00932822
-0.0100831
-0.0108274
-0.0115521
-0.0122482
-0.0129072
-0.0135205
-0.0140803
-0.0145794
-0.0150108
-0.0153688
-0.0156479
-0.0158439
-0.0159532
-0.0159734
-0.015903
-0.0157415
-0.0154896
-0.0151493
-0.0147238
-0.0142173
-0.0136358
-0.0129862
-0.0122771
-0.0115182
-0.0107209
-0.00989756
-0.00906185
-0.00822844
-0.00741281
-0.00663089
-0.00589871
-0.00523192
-0.00464528
-0.00415199
-0.00376315
-0.00348709
-0.00332884
-0.00328968
-0.0033669
-0.00355378
-0.00383978
-0.00421104
-0.00465111
-0.00514184
-0.0056644
-0.00620027
-0.00673219
-0.00724496
-0.00772591
-0.00816529
-0.00855629
-0.00889497
-0.00917997
-0.00941216
-0.00959423
-0.00973029
-0.00982543
-0.00988538
-0.00991613
-0.00992363
-0.00991354
-0.00989101
-0.00986054
-0.00982587
-0.00978996
-0.00975503
-0.00972261
-0.00969363
-0.0096685
-0.00964719
-0.00962929
-0.00961401
-0.00960019
-0.00958644
-0.00957084
-0.00954778
-0.00952753
9.47674e-05
0.000113085
0.000128726
0.000126881
0.000110915
8.19243e-05
4.19183e-05
-6.10451e-06
-5.88212e-05
-0.000113083
-0.000166248
-0.000216418
-0.000262554
-0.000304471
-0.000342766
-0.000378694
-0.000414035
-0.000450969
-0.000491971
-0.00053975
-0.000597235
-0.000667606
-0.000754345
-0.000861315
-0.00099279
-0.00115346
-0.00134832
-0.00158253
-0.00186117
-0.0021889
-0.00256968
-0.00300642
-0.00350074
-0.00405279
-0.00466115
-0.00532285
-0.00603346
-0.00678727
-0.00757744
-0.00839628
-0.0092354
-0.010086
-0.0109389
-0.0117848
-0.0126146
-0.0134192
-0.0141897
-0.0149177
-0.0155953
-0.0162149
-0.0167698
-0.0172537
-0.0176611
-0.0179873
-0.0182285
-0.0183814
-0.0184439
-0.0184147
-0.0182934
-0.0180807
-0.0177783
-0.0173888
-0.0169159
-0.0163648
-0.0157414
-0.015053
-0.0143081
-0.0135164
-0.0126889
-0.0118376
-0.0109757
-0.0101171
-0.0092766
-0.00846944
-0.00771087
-0.0070158
-0.00639825
-0.0058708
-0.00544394
-0.00512551
-0.00492009
-0.00482864
-0.00484823
-0.004972
-0.00518945
-0.00548692
-0.00584835
-0.00625619
-0.00669248
-0.00713978
-0.00758211
-0.00800565
-0.00839922
-0.00875448
-0.00906592
-0.0093307
-0.00954829
-0.0097201
-0.00984907
-0.00993929
-0.00999556
-0.0100232
-0.0100275
-0.0100137
-0.0099869
-0.00995141
-0.00991108
-0.00986906
-0.0098278
-0.00978907
-0.00975405
-0.00972337
-0.00969716
-0.00967515
-0.00965662
-0.00964046
-0.00962528
-0.00960911
-0.00958649
-0.00956695
0.000152506
0.000169649
0.000182859
0.000177104
0.000156114
0.000121464
7.57171e-05
2.24035e-05
-3.47334e-05
-9.22898e-05
-0.000147546
-0.000198691
-0.000244899
-0.000286295
-0.000323853
-0.00035926
-0.000394781
-0.000433143
-0.000477457
-0.000531182
-0.000598136
-0.000682532
-0.000789028
-0.000922747
-0.00108925
-0.0012944
-0.00154418
-0.0018444
-0.00220031
-0.00261629
-0.00309548
-0.00363952
-0.00424839
-0.00492034
-0.00565198
-0.00643839
-0.00727331
-0.00814943
-0.00905856
-0.00999189
-0.0109402
-0.011894
-0.0128439
-0.0137803
-0.014694
-0.0155761
-0.0164182
-0.0172121
-0.0179503
-0.0186261
-0.0192331
-0.0197658
-0.0202194
-0.0205897
-0.0208734
-0.0210679
-0.0211714
-0.0211829
-0.0211021
-0.0209296
-0.020667
-0.0203164
-0.0198813
-0.0193657
-0.0187747
-0.0181144
-0.017392
-0.0166156
-0.0157943
-0.0149385
-0.0140594
-0.0131693
-0.0122811
-0.0114086
-0.0105662
-0.00976803
-0.00902834
-0.00836046
-0.00777651
-0.00728671
-0.00689884
-0.00661767
-0.00644451
-0.00637697
-0.00640889
-0.00653056
-0.00672924
-0.0069899
-0.00729609
-0.007631
-0.0079784
-0.00832356
-0.00865387
-0.00895926
-0.00923242
-0.00946866
-0.00966573
-0.00982343
-0.00994328
-0.0100281
-0.0100814
-0.0101077
-0.0101114
-0.0100972
-0.0100695
-0.0100325
-0.00998985
-0.00994481
-0.00989991
-0.00985714
-0.00981791
-0.00978308
-0.00975303
-0.00972765
-0.0097064
-0.00968827
-0.00967196
-0.00965556
-0.00963396
-0.00961569
0.000224183
0.000239511
0.000249443
0.000239004
0.000212298
0.000171433
0.000119554
6.07028e-05
-1.017e-06
-6.20353e-05
-0.00011966
-0.000172271
-0.000219361
-0.000261462
-0.000300023
-0.000337273
-0.000376089
-0.00041991
-0.000472684
-0.000538857
-0.000623394
-0.000731797
-0.000870106
-0.00104482
-0.00126276
-0.00153078
-0.00185547
-0.00224269
-0.00269724
-0.00322246
-0.00381997
-0.00448952
-0.00522899
-0.00603449
-0.00690052
-0.00782025
-0.00878575
-0.00978826
-0.0108184
-0.0118666
-0.0129228
-0.0139772
-0.0150202
-0.0160422
-0.0170341
-0.0179875
-0.0188942
-0.0197468
-0.0205385
-0.0212632
-0.0219154
-0.0224903
-0.0229838
-0.0233925
-0.0237138
-0.0239455
-0.0240864
-0.0241357
-0.0240935
-0.0239603
-0.0237376
-0.0234273
-0.0230323
-0.022556
-0.0220027
-0.0213773
-0.0206856
-0.0199343
-0.0191308
-0.0182834
-0.0174015
-0.0164951
-0.0155753
-0.0146539
-0.0137433
-0.0128567
-0.0120072
-0.0112083
-0.0104727
-0.0098121
-0.00923696
-0.00875541
-0.00837301
-0.00809212
-0.00791166
-0.00782696
-0.00782993
-0.00790943
-0.00805199
-0.00824267
-0.008466
-0.00870698
-0.00895194
-0.00918914
-0.00940925
-0.00960543
-0.00977331
-0.0099107
-0.0100173
-0.0100943
-0.0101439
-0.0101692
-0.0101737
-0.0101611
-0.0101352
-0.0100997
-0.010058
-0.010013
-0.00996736
-0.00992313
-0.00988191
-0.00984478
-0.00981236
-0.00978477
-0.00976166
-0.00974222
-0.00972527
-0.00970906
-0.00968899
-0.00967239
0.000311433
0.000324241
0.000330008
0.000314163
0.000281152
0.000233646
0.000175369
0.000110823
4.43802e-05
-2.03375e-05
-8.0788e-05
-0.000135664
-0.000184888
-0.000229515
-0.00027159
-0.000314018
-0.000360461
-0.000415274
-0.000483477
-0.000570758
-0.00068347
-0.00082859
-0.00101362
-0.00124636
-0.00153462
-0.00188579
-0.00230643
-0.00280175
-0.00337531
-0.00402869
-0.00476141
-0.00557094
-0.00645283
-0.00740094
-0.00840778
-0.0094647
-0.0105623
-0.0116905
-0.0128392
-0.0139978
-0.015156
-0.0163038
-0.0174315
-0.0185299
-0.0195902
-0.0206046
-0.0215655
-0.0224664
-0.0233014
-0.024065
-0.0247529
-0.025361
-0.0258862
-0.0263257
-0.0266776
-0.0269405
-0.0271135
-0.0271962
-0.0271889
-0.0270924
-0.026908
-0.0266374
-0.0262833
-0.0258483
-0.025336
-0.0247505
-0.0240964
-0.0233789
-0.0226039
-0.0217778
-0.0209081
-0.0200026
-0.01907
-0.01812
-0.0171628
-0.0162095
-0.0152716
-0.0143615
-0.0134913
-0.0126735
-0.0119196
-0.0112404
-0.0106449
-0.01014
-0.00972984
-0.00941533
-0.0091941
-0.00906038
-0.0090053
-0.00901745
-0.00908369
-0.00919
-0.00932251
-0.0094683
-0.00961611
-0.00975681
-0.00988351
-0.00999161
-0.0100785
-0.0101434
-0.0101867
-0.0102099
-0.0102152
-0.0102053
-0.010183
-0.0101513
-0.010113
-0.0100708
-0.0100272
-0.00998409
-0.00994325
-0.00990591
-0.00987287
-0.0098445
-0.00982067
-0.00980077
-0.00978382
-0.00976828
-0.00975014
-0.00973549
0.000415864
0.000425387
0.000426081
0.000404183
0.000364402
0.000309969
0.000245147
0.000174803
0.00010346
3.46534e-05
-2.93615e-05
-8.77218e-05
-0.000140911
-0.000190633
-0.000239677
-0.0002918
-0.000351653
-0.00042474
-0.000517403
-0.000636799
-0.000790832
-0.000987998
-0.00123713
-0.00154702
-0.00192594
-0.00238115
-0.00291837
-0.00354138
-0.00425178
-0.00504886
-0.00592962
-0.00688906
-0.00792036
-0.00901523
-0.0101643
-0.0113573
-0.0125835
-0.0138319
-0.0150915
-0.0163514
-0.0176012
-0.0188308
-0.0200308
-0.0211926
-0.0223082
-0.0233703
-0.0243725
-0.0253091
-0.0261751
-0.0269664
-0.0276792
-0.0283106
-0.0288582
-0.0293201
-0.0296951
-0.0299822
-0.0301811
-0.0302918
-0.0303149
-0.0302512
-0.0301021
-0.0298692
-0.0295547
-0.0291611
-0.0286913
-0.0281485
-0.0275364
-0.0268591
-0.0261211
-0.0253273
-0.024483
-0.0235944
-0.0226679
-0.0217106
-0.0207305
-0.0197361
-0.0187369
-0.0177429
-0.0167651
-0.0158148
-0.0149038
-0.0140439
-0.0132462
-0.0125211
-0.0118773
-0.0113212
-0.0108566
-0.0104841
-0.0102009
-0.0100009
-0.00987525
-0.00981283
-0.00980108
-0.00982702
-0.00987814
-0.00994317
-0.0100126
-0.010079
-0.010137
-0.0101831
-0.0102156
-0.010234
-0.0102389
-0.0102314
-0.0102134
-0.0101869
-0.0101539
-0.0101168
-0.0100775
-0.010038
-0.00999987
-0.00996444
-0.00993267
-0.00990511
-0.00988185
-0.00986249
-0.00984626
-0.00983186
-0.00981594
-0.00980339
0.000538934
0.000544366
0.000539079
0.000510584
0.000463712
0.000402204
0.000330775
0.000254534
0.000177999
0.000104468
3.57584e-05
-2.78538e-05
-8.75536e-05
-0.000145851
-0.000206452
-0.000274171
-0.000354877
-0.000455466
-0.000583817
-0.000748697
-0.000959576
-0.00122631
-0.00155869
-0.00196593
-0.00245604
-0.00303531
-0.00370783
-0.00447525
-0.00533663
-0.00628858
-0.00732549
-0.00843979
-0.00962239
-0.010863
-0.0121505
-0.0134734
-0.0148197
-0.0161778
-0.0175363
-0.0188841
-0.020211
-0.0215074
-0.0227644
-0.0239743
-0.0251299
-0.0262251
-0.0272546
-0.0282136
-0.0290984
-0.0299057
-0.0306328
-0.0312778
-0.031839
-0.0323152
-0.0327058
-0.0330104
-0.0332292
-0.0333624
-0.0334108
-0.0333755
-0.0332578
-0.0330594
-0.0327821
-0.0324282
-0.0320001
-0.0315004
-0.0309322
-0.0302986
-0.0296029
-0.0288488
-0.0280402
-0.0271813
-0.0262767
-0.0253314
-0.0243507
-0.0233408
-0.0223086
-0.0212616
-0.0202084
-0.0191583
-0.018122
-0.0171104
-0.0161355
-0.0152093
-0.0143436
-0.0135494
-0.0128359
-0.0122103
-0.0116768
-0.0112362
-0.0108859
-0.0106197
-0.0104287
-0.0103017
-0.0102264
-0.0101902
-0.0101813
-0.0101892
-0.0102054
-0.0102234
-0.0102384
-0.0102475
-0.0102491
-0.0102427
-0.0102286
-0.0102077
-0.0101813
-0.0101508
-0.0101178
-0.0100839
-0.0100505
-0.010019
-0.00999038
-0.00996525
-0.0099439
-0.00992614
-0.00991138
-0.00989859
-0.00988505
-0.0098746
0.000681815
0.000682335
0.00067019
0.000634672
0.000580545
0.000511931
0.000433876
0.000351568
0.000269347
0.000190105
0.000115063
4.37543e-05
-2.58661e-05
-9.72889e-05
-0.000175341
-0.000266117
-0.000376938
-0.000516291
-0.000693718
-0.000919593
-0.00120476
-0.00156002
-0.00199554
-0.00252017
-0.00314081
-0.00386195
-0.00468535
-0.00560994
-0.00663194
-0.00774511
-0.00894116
-0.0102101
-0.0115407
-0.0129209
-0.0143381
-0.0157797
-0.0172332
-0.0186864
-0.0201279
-0.0215471
-0.022934
-0.02428
-0.0255773
-0.026819
-0.0279993
-0.0291131
-0.0301563
-0.0311254
-0.0320176
-0.0328306
-0.0335628
-0.0342129
-0.03478
-0.0352636
-0.0356634
-0.0359798
-0.0362129
-0.0363636
-0.0364327
-0.0364213
-0.0363309
-0.0361631
-0.0359196
-0.0356023
-0.0352135
-0.0347554
-0.0342304
-0.0336409
-0.0329896
-0.0322791
-0.0315121
-0.0306915
-0.0298202
-0.0289014
-0.0279385
-0.0269353
-0.0258959
-0.0248254
-0.0237296
-0.0226153
-0.0214904
-0.0203644
-0.0192479
-0.0181528
-0.017092
-0.0160791
-0.0151274
-0.0142498
-0.0134571
-0.0127577
-0.0121566
-0.0116549
-0.0112496
-0.0109339
-0.0106978
-0.0105293
-0.0104153
-0.0103428
-0.0103
-0.0102767
-0.0102646
-0.0102577
-0.0102516
-0.0102435
-0.0102319
-0.0102163
-0.0101967
-0.0101737
-0.0101484
-0.0101217
-0.0100949
-0.0100691
-0.0100452
-0.0100241
-0.0100059
-0.00999081
-0.00997825
-0.00996747
-0.00995635
-0.00994789
0.00084522
0.000840046
0.000820234
0.000777391
0.000715991
0.000640321
0.0005556
0.000466904
0.000378203
0.000291806
0.000208166
0.000125911
4.19587e-05
-4.83593e-05
-0.000151206
-0.000274179
-0.000426239
-0.000617583
-0.000859391
-0.00116343
-0.0015415
-0.00200473
-0.00256283
-0.00322344
-0.0039915
-0.004869
-0.00585478
-0.00694472
-0.00813203
-0.00940764
-0.0107607
-0.0121788
-0.0136491
-0.0151579
-0.0166916
-0.0182367
-0.0197807
-0.0213113
-0.0228177
-0.0242898
-0.0257188
-0.0270971
-0.0284181
-0.0296763
-0.030867
-0.0319865
-0.0330317
-0.0340004
-0.0348907
-0.0357013
-0.0364313
-0.03708
-0.0376471
-0.0381328
-0.0385371
-0.0388606
-0.0391039
-0.0392678
-0.0393535
-0.0393621
-0.039295
-0.0391538
-0.0389402
-0.0386559
-0.0383029
-0.0378832
-0.0373987
-0.0368514
-0.0362435
-0.0355769
-0.0348535
-0.0340752
-0.0332437
-0.0323608
-0.0314282
-0.0304479
-0.0294219
-0.0283527
-0.0272434
-0.026098
-0.0249216
-0.0237207
-0.0225035
-0.0212801
-0.0200624
-0.0188643
-0.0177012
-0.0165893
-0.0155449
-0.0145832
-0.0137173
-0.0129567
-0.0123065
-0.0117671
-0.0113338
-0.0109976
-0.0107462
-0.0105656
-0.010441
-0.0103587
-0.0103063
-0.0102738
-0.0102534
-0.0102393
-0.0102276
-0.0102158
-0.0102026
-0.0101875
-0.0101705
-0.0101522
-0.0101333
-0.0101146
-0.0100971
-0.0100813
-0.0100675
-0.010056
-0.0100463
-0.0100378
-0.0100291
-0.0100224
0.00102933
0.00101761
0.000989461
0.00093919
0.000870557
0.000787923
0.000696406
0.000600757
0.000504382
0.000408817
0.000313576
0.000216203
0.000112385
-3.92849e-06
-0.000140447
-0.000306451
-0.000512647
-0.000770909
-0.00109384
-0.00149417
-0.001984
-0.00257396
-0.00327247
-0.00408505
-0.00501398
-0.00605815
-0.00721317
-0.00847172
-0.00982397
-0.0112581
-0.0127609
-0.0143182
-0.0159152
-0.0175375
-0.0191707
-0.0208013
-0.0224168
-0.0240058
-0.0255581
-0.0270649
-0.0285187
-0.0299132
-0.0312431
-0.0325044
-0.0336936
-0.0348084
-0.0358467
-0.0368071
-0.0376888
-0.0384912
-0.0392138
-0.0398568
-0.0404202
-0.0409045
-0.04131
-0.0416375
-0.0418879
-0.042062
-0.0421611
-0.0421863
-0.042139
-0.0420208
-0.0418331
-0.0415778
-0.0412565
-0.040871
-0.0404231
-0.0399146
-0.039347
-0.0387219
-0.0380408
-0.0373048
-0.0365149
-0.0356719
-0.0347765
-0.0338291
-0.0328302
-0.0317802
-0.03068
-0.029531
-0.0283352
-0.0270962
-0.0258188
-0.0245102
-0.0231796
-0.0218393
-0.020504
-0.0191908
-0.017919
-0.0167087
-0.0155799
-0.0145504
-0.0136347
-0.0128424
-0.012177
-0.0116359
-0.0112108
-0.0108886
-0.0106537
-0.010489
-0.0103783
-0.0103071
-0.010263
-0.0102366
-0.0102207
-0.0102104
-0.0102023
-0.0101946
-0.0101862
-0.0101769
-0.0101668
-0.0101564
-0.0101463
-0.010137
-0.0101287
-0.0101215
-0.0101152
-0.0101094
-0.0101028
-0.0100976
0.00123367
0.00121436
0.00117732
0.00111972
0.00104402
0.000954452
0.000855825
0.000752324
0.000646581
0.000539173
0.000428492
0.000310809
0.000180386
2.95919e-05
-0.000151
-0.000372451
-0.000647182
-0.000988526
-0.00141008
-0.00192488
-0.00254452
-0.00327825
-0.00413229
-0.00510933
-0.0062084
-0.00742495
-0.0087512
-0.0101766
-0.0116885
-0.0132725
-0.0149133
-0.0165953
-0.0183027
-0.0200203
-0.021734
-0.0234304
-0.0250979
-0.0267262
-0.0283064
-0.0298311
-0.0312944
-0.0326913
-0.0340181
-0.0352721
-0.036451
-0.0375535
-0.0385787
-0.0395258
-0.0403948
-0.0411855
-0.0418982
-0.0425331
-0.0430908
-0.0435718
-0.0439767
-0.0443065
-0.044562
-0.0447442
-0.0448543
-0.0448934
-0.044863
-0.0447644
-0.0445992
-0.0443689
-0.0440751
-0.0437196
-0.0433038
-0.0428293
-0.0422977
-0.04171
-0.0410675
-0.040371
-0.0396211
-0.0388179
-0.0379614
-0.0370511
-0.0360865
-0.0350666
-0.0339905
-0.0328574
-0.031667
-0.0304199
-0.0291176
-0.0277638
-0.0263643
-0.0249278
-0.0234663
-0.0219956
-0.0205348
-0.019106
-0.0177336
-0.0164422
-0.0152551
-0.0141919
-0.0132665
-0.012486
-0.0118493
-0.0113482
-0.0109685
-0.0106922
-0.0104997
-0.0103716
-0.0102909
-0.0102432
-0.0102171
-0.0102045
-0.0101994
-0.010198
-0.0101979
-0.0101978
-0.0101971
-0.0101957
-0.0101939
-0.0101918
-0.0101897
-0.0101876
-0.0101851
-0.0101821
-0.0101775
-0.0101734
0.00145621
0.00142907
0.00138254
0.00131769
0.00123512
0.00113856
0.00103224
0.000919566
0.000802178
0.000679506
0.000548634
0.000404372
0.000239372
4.42567e-05
-0.000192208
-0.000482837
-0.000841557
-0.00128274
-0.00182034
-0.00246689
-0.00323257
-0.00412438
-0.00514557
-0.00629544
-0.00756937
-0.00895921
-0.0104538
-0.0120395
-0.0137011
-0.015422
-0.0171855
-0.0189747
-0.0207736
-0.0225669
-0.0243411
-0.0260838
-0.0277847
-0.0294349
-0.0310271
-0.0325555
-0.0340158
-0.0354045
-0.0367194
-0.0379587
-0.0391216
-0.0402073
-0.0412159
-0.0421472
-0.0430016
-0.0437794
-0.0444811
-0.0451074
-0.0456588
-0.046136
-0.0465398
-0.0468711
-0.0471308
-0.0473198
-0.0474392
-0.0474904
-0.0474744
-0.0473927
-0.0472467
-0.0470378
-0.0467677
-0.0464377
-0.0460494
-0.0456043
-0.0451035
-0.0445484
-0.0439397
-0.0432781
-0.0425641
-0.0417976
-0.040978
-0.0401047
-0.0391762
-0.0381908
-0.0371466
-0.0360412
-0.0348726
-0.0336388
-0.0323388
-0.0309728
-0.0295427
-0.0280533
-0.0265125
-0.0249325
-0.0233297
-0.0217252
-0.0201443
-0.0186155
-0.0171685