/*--------------------------------*- C++ -*----------------------------------*\
| =========                 |                                                 |
| \\      /  F ield         | OpenFOAM: The Open Source CFD Toolbox           |
|  \\    /   O peration     | Version:  2406                                  |
|   \\  /    A nd           | Website:  www.openfoam.com                      |
|    \\/     M anipulation  |                                                 |
\*---------------------------------------------------------------------------*/
FoamFile
{
    version     2.0;
    format      ascii;
    arch        "LSB;label=32;scalar=64";
    class       volVectorField;
    location    "37.65";
    object      U;
}
// * * * * * * * * * * * * * * * * * * * * * * * * * * * * * * * * * * * * * //

dimensions      [0 1 -1 0 0 0 0];

internalField   nonuniform List<vector> 
14400
(
(-6.32118e-06 6.22501e-06 0)
(1.63474e-05 -1.13752e-05 0)
(0.000121931 -3.39701e-05 0)
(0.00030545 -5.21138e-05 0)
(0.000547522 -6.45447e-05 0)
(0.00082656 -7.11489e-05 0)
(0.0011212 -7.25496e-05 0)
(0.00141268 -6.96335e-05 0)
(0.00168589 -6.34616e-05 0)
(0.00192987 -5.51517e-05 0)
(0.00213795 -4.57885e-05 0)
(0.0023075 -3.6339e-05 0)
(0.00243933 -2.75864e-05 0)
(0.00253701 -2.00899e-05 0)
(0.00260586 -1.41665e-05 0)
(0.0026521 -9.89154e-06 0)
(0.00268202 -7.17102e-06 0)
(0.00270111 -5.84915e-06 0)
(0.00271341 -5.51971e-06 0)
(0.00272137 -5.72102e-06 0)
(0.0027254 -5.93236e-06 0)
(0.00272432 -5.44677e-06 0)
(0.00271548 -3.96175e-06 0)
(0.00269471 -1.37592e-06 0)
(0.00265687 2.44292e-06 0)
(0.00259636 7.58329e-06 0)
(0.00250726 1.40789e-05 0)
(0.00238355 2.19414e-05 0)
(0.00221915 3.11848e-05 0)
(0.00200787 4.18387e-05 0)
(0.00174342 5.39506e-05 0)
(0.00141931 6.75791e-05 0)
(0.00102892 8.27806e-05 0)
(0.000565496 9.95951e-05 0)
(2.23122e-05 0.000118034 0)
(-0.000607196 0.000138067 0)
(-0.00132922 0.000159622 0)
(-0.00214936 0.000182571 0)
(-0.00307237 0.000206735 0)
(-0.00410194 0.000231878 0)
(-0.00524042 0.00025771 0)
(-0.00648859 0.000283887 0)
(-0.00784543 0.000310016 0)
(-0.00930795 0.000335656 0)
(-0.010871 0.000360328 0)
(-0.0125271 0.000383524 0)
(-0.0142665 0.000404709 0)
(-0.0160771 0.000423337 0)
(-0.0179443 0.000438856 0)
(-0.0198515 0.000450713 0)
(-0.0217798 0.00045837 0)
(-0.0237084 0.000461303 0)
(-0.0256147 0.000459012 0)
(-0.0274746 0.000451033 0)
(-0.0292629 0.000436937 0)
(-0.0309534 0.000416345 0)
(-0.0325192 0.000388933 0)
(-0.0339334 0.000354452 0)
(-0.0351689 0.000312733 0)
(-0.0361995 0.000263609 0)
(-0.0370005 0.000207269 0)
(-0.0375488 0.000145355 0)
(-0.0378208 7.86975e-05 0)
(-0.0377959 4.91295e-06 0)
(-0.037461 -7.56442e-05 0)
(-0.0368048 -0.000160161 0)
(-0.035819 -0.000247099 0)
(-0.0345014 -0.000335115 0)
(-0.0328555 -0.000422522 0)
(-0.0308912 -0.00050744 0)
(-0.028625 -0.000587831 0)
(-0.0260802 -0.000661567 0)
(-0.0232869 -0.000726507 0)
(-0.0202821 -0.000780598 0)
(-0.0171088 -0.00082197 0)
(-0.0138153 -0.000849047 0)
(-0.0104544 -0.000860648 0)
(-0.00708189 -0.000856075 0)
(-0.00375488 -0.00083519 0)
(-0.000530152 -0.000798453 0)
(0.00253772 -0.000746931 0)
(0.00539821 -0.000682271 0)
(0.00800661 -0.000606624 0)
(0.0103256 -0.000522543 0)
(0.0123263 -0.000432844 0)
(0.0139895 -0.000340451 0)
(0.0153057 -0.000248239 0)
(0.0162752 -0.000158865 0)
(0.0169078 -7.45681e-05 0)
(0.0172226 2.41143e-06 0)
(0.0172441 6.89677e-05 0)
(0.017001 0.000124863 0)
(0.0165297 0.000172119 0)
(0.0158693 0.00021032 0)
(0.0150574 0.000238543 0)
(0.0141308 0.000257388 0)
(0.013125 0.000267882 0)
(0.0120725 0.000271115 0)
(0.0110019 0.000268239 0)
(0.00993796 0.000260419 0)
(0.00890072 0.000248776 0)
(0.00790607 0.000234349 0)
(0.00696576 0.000218074 0)
(0.00608777 0.000200764 0)
(0.00527679 0.000183107 0)
(0.00453467 0.000165667 0)
(0.00386093 0.000148897 0)
(0.00325321 0.00013314 0)
(0.00270773 0.000118638 0)
(0.0022198 0.000105525 0)
(0.00178426 9.38043e-05 0)
(0.00139616 8.33193e-05 0)
(0.00105145 7.37112e-05 0)
(0.000747856 6.43853e-05 0)
(0.000485771 5.45042e-05 0)
(0.000268919 4.30848e-05 0)
(0.000104465 2.92693e-05 0)
(1.49331e-06 1.28246e-05 0)
(-3.55462e-05 -4.09673e-06 0)
(-1.36575e-05 -1.36772e-05 0)
(1.03172e-05 -1.55409e-05 0)
(0.00015017 -0.000154216 0)
(0.000464854 -0.000321051 0)
(0.000947243 -0.000459348 0)
(0.00155312 -0.000556025 0)
(0.00223857 -0.000608611 0)
(0.00295729 -0.000620149 0)
(0.00366724 -0.000596726 0)
(0.00433348 -0.000546165 0)
(0.00492979 -0.000477031 0)
(0.00543917 -0.000397818 0)
(0.00585348 -0.000316247 0)
(0.00617241 -0.000238695 0)
(0.00640187 -0.000169837 0)
(0.00655198 -0.000112468 0)
(0.00663506 -6.75133e-05 0)
(0.00666357 -3.42387e-05 0)
(0.00664844 -1.06061e-05 0)
(0.00659759 6.53415e-06 0)
(0.00651499 2.09821e-05 0)
(0.00640032 3.66751e-05 0)
(0.00624877 5.745e-05 0)
(0.00605148 8.63512e-05 0)
(0.00579653 0.000125613 0)
(0.0054697 0.000176782 0)
(0.00505515 0.000240774 0)
(0.00453615 0.000318044 0)
(0.00389555 0.000408794 0)
(0.00311602 0.000513152 0)
(0.00218015 0.000631268 0)
(0.00107061 0.000763331 0)
(-0.00022985 0.000909512 0)
(-0.0017381 0.00106985 0)
(-0.00347031 0.00124416 0)
(-0.0054415 0.0014319 0)
(-0.00766497 0.00163209 0)
(-0.0101516 0.00184329 0)
(-0.0129094 0.00206353 0)
(-0.0159424 0.0022903 0)
(-0.0192506 0.00252059 0)
(-0.0228289 0.00275088 0)
(-0.026667 0.00297722 0)
(-0.0307489 0.00319528 0)
(-0.0350526 0.00340043 0)
(-0.0395503 0.00358788 0)
(-0.0442085 0.00375275 0)
(-0.0489882 0.00389022 0)
(-0.0538456 0.0039956 0)
(-0.0587323 0.00406449 0)
(-0.0635967 0.00409286 0)
(-0.068384 0.00407712 0)
(-0.0730379 0.0040142 0)
(-0.0775007 0.00390161 0)
(-0.0817147 0.0037375 0)
(-0.0856228 0.00352066 0)
(-0.0891693 0.00325058 0)
(-0.0923008 0.00292744 0)
(-0.0949666 0.00255218 0)
(-0.09712 0.00212653 0)
(-0.0987182 0.001653 0)
(-0.0997228 0.00113509 0)
(-0.100102 0.000578176 0)
(-0.0998303 -1.15331e-05 0)
(-0.0988876 -0.000630392 0)
(-0.0972594 -0.00127183 0)
(-0.094942 -0.00192643 0)
(-0.0919396 -0.00258472 0)
(-0.0882649 -0.00323634 0)
(-0.0839398 -0.00387019 0)
(-0.0789961 -0.0044745 0)
(-0.0734755 -0.00503712 0)
(-0.0674297 -0.00554577 0)
(-0.0609204 -0.00598841 0)
(-0.0540186 -0.00635368 0)
(-0.0468041 -0.00663132 0)
(-0.0393645 -0.00681267 0)
(-0.0317937 -0.00689114 0)
(-0.0241904 -0.00686264 0)
(-0.016656 -0.00672593 0)
(-0.00929232 -0.00648288 0)
(-0.00219944 -0.00613863 0)
(0.00452721 -0.00570148 0)
(0.0107992 -0.00518278 0)
(0.0165377 -0.00459647 0)
(0.0216756 -0.00395862 0)
(0.0261597 -0.00328673 0)
(0.0299521 -0.00259904 0)
(0.033031 -0.00191369 0)
(0.0353915 -0.00124801 0)
(0.0370447 -0.000617975 0)
(0.0380178 -3.83089e-05 0)
(0.0383537 0.000480846 0)
(0.0381071 0.000933989 0)
(0.0373408 0.00131578 0)
(0.0361256 0.00162314 0)
(0.0345376 0.00185692 0)
(0.0326536 0.00202065 0)
(0.0305493 0.00211986 0)
(0.0282961 0.00216157 0)
(0.0259598 0.00215381 0)
(0.0235985 0.00210506 0)
(0.0212617 0.00202381 0)
(0.0189902 0.00191823 0)
(0.0168158 0.00179583 0)
(0.0147615 0.0016633 0)
(0.0128428 0.0015264 0)
(0.0110682 0.00138995 0)
(0.00944017 0.00125778 0)
(0.00795665 0.00113275 0)
(0.006612 0.00101665 0)
(0.0053985 0.000910058 0)
(0.00430787 0.000812143 0)
(0.00333306 0.000720419 0)
(0.00247011 0.000630624 0)
(0.00171995 0.000536885 0)
(0.00108955 0.000432593 0)
(0.000591666 0.000312519 0)
(0.00024069 0.000177339 0)
(4.73205e-05 4.17868e-05 0)
(-2.96967e-06 -3.45563e-05 0)
(3.1332e-05 -0.000115744 0)
(0.000308046 -0.00046513 0)
(0.000816187 -0.000832008 0)
(0.00154345 -0.00113468 0)
(0.00242435 -0.00134687 0)
(0.00340319 -0.00146169 0)
(0.00441946 -0.00148416 0)
(0.00541735 -0.00142656 0)
(0.00634979 -0.00130564 0)
(0.00718067 -0.00114019 0)
(0.00788566 -0.000949151 0)
(0.00845191 -0.000749922 0)
(0.00887676 -0.000557038 0)
(0.00916569 -0.000381282 0)
(0.00932979 -0.000229227 0)
(0.00938302 -0.000103192 0)
(0.00933952 -1.55062e-06 0)
(0.00921124 8.06174e-05 0)
(0.00900605 0.000150595 0)
(0.00872632 0.000217173 0)
(0.0083683 0.00028952 0)
(0.00792214 0.00037618 0)
(0.00737241 0.000484577 0)
(0.0066992 0.000620501 0)
(0.00587922 0.000787937 0)
(0.0048869 0.0009893 0)
(0.00369543 0.00122584 0)
(0.00227742 0.00149806 0)
(0.000605501 0.0018061 0)
(-0.0013473 0.00214987 0)
(-0.00360714 0.00252913 0)
(-0.00619893 0.00294324 0)
(-0.00914561 0.003391 0)
(-0.0124674 0.00387031 0)
(-0.0161808 0.00437801 0)
(-0.0202976 0.00490968 0)
(-0.0248238 0.00545955 0)
(-0.0297586 0.00602053 0)
(-0.0350933 0.00658421 0)
(-0.0408111 0.00714102 0)
(-0.0468859 0.00768041 0)
(-0.053283 0.00819107 0)
(-0.0599584 0.00866128 0)
(-0.0668599 0.00907919 0)
(-0.0739277 0.00943319 0)
(-0.0810955 0.00971225 0)
(-0.0882917 0.0099062 0)
(-0.095441 0.0100061 0)
(-0.102466 0.0100043 0)
(-0.109289 0.0098949 0)
(-0.115833 0.00967342 0)
(-0.122022 0.00933718 0)
(-0.127785 0.00888515 0)
(-0.133054 0.00831789 0)
(-0.137766 0.00763748 0)
(-0.141865 0.00684744 0)
(-0.145298 0.00595263 0)
(-0.148021 0.00495918 0)
(-0.149996 0.00387446 0)
(-0.151189 0.0027071 0)
(-0.151576 0.00146674 0)
(-0.151135 0.000163897 0)
(-0.149857 -0.00118875 0)
(-0.147736 -0.00257634 0)
(-0.144775 -0.00398468 0)
(-0.140981 -0.00539812 0)
(-0.136371 -0.00679904 0)
(-0.130972 -0.00816841 0)
(-0.124815 -0.00948622 0)
(-0.117944 -0.0107316 0)
(-0.110409 -0.0118831 0)
(-0.102269 -0.0129194 0)
(-0.0935933 -0.0138195 0)
(-0.084459 -0.0145635 0)
(-0.0749518 -0.0151333 0)
(-0.0651651 -0.0155136 0)
(-0.0551992 -0.0156919 0)
(-0.0451595 -0.0156602 0)
(-0.0351556 -0.015415 0)
(-0.0252989 -0.014958 0)
(-0.0157011 -0.0142962 0)
(-0.00647135 -0.0134424 0)
(0.00228594 -0.0124147 0)
(0.0104734 -0.0112364 0)
(0.0180032 -0.00993487 0)
(0.0247992 -0.00854105 0)
(0.0307991 -0.00708823 0)
(0.0359558 -0.00561091 0)
(0.0402389 -0.00414349 0)
(0.0436356 -0.0027189 0)
(0.0461512 -0.00136689 0)
(0.0478097 -0.000114049 0)
(0.0486506 0.00101681 0)
(0.048728 0.00200813 0)
(0.0481111 0.00284936 0)
(0.0468804 0.00353518 0)
(0.0451242 0.00406578 0)
(0.042935 0.00444656 0)
(0.0404071 0.00468748 0)
(0.0376324 0.00480209 0)
(0.0346978 0.00480649 0)
(0.0316828 0.00471831 0)
(0.0286571 0.00455566 0)
(0.0256794 0.00433628 0)
(0.0227975 0.00407684 0)
(0.0200477 0.0037924 0)
(0.0174556 0.00349607 0)
(0.0150373 0.0031988 0)
(0.0128006 0.00290913 0)
(0.0107471 0.00263297 0)
(0.00887342 0.0023732 0)
(0.00717402 0.00212932 0)
(0.00564343 0.00189698 0)
(0.00427869 0.00166796 0)
(0.00308173 0.00143074 0)
(0.0020607 0.00117253 0)
(0.00122982 0.000883599 0)
(0.00060353 0.000565325 0)
(0.000203897 0.000243261 0)
(1.69045e-05 1.0718e-05 0)
(4.79707e-05 -0.000288812 0)
(0.000439981 -0.000937895 0)
(0.00111161 -0.00155786 0)
(0.00203838 -0.00205926 0)
(0.00313136 -0.00240644 0)
(0.00432457 -0.00258923 0)
(0.00554725 -0.0026154 0)
(0.0067347 -0.00250481 0)
(0.00783235 -0.00228495 0)
(0.00879802 -0.00198704 0)
(0.00960279 -0.00164272 0)
(0.0102305 -0.00128114 0)
(0.0106764 -0.000926763 0)
(0.0109445 -0.000597761 0)
(0.0110448 -0.000305203 0)
(0.0109903 -5.29195e-05 0)
(0.0107938 0.000162007 0)
(0.0104649 0.000348203 0)
(0.0100082 0.000518505 0)
(0.00942162 0.000688239 0)
(0.0086955 0.000873483 0)
(0.00781302 0.0010894 0)
(0.00675081 0.00134903 0)
(0.00548021 0.00166248 0)
(0.00396873 0.00203681 0)
(0.00218149 0.00247626 0)
(8.24586e-05 0.0029829 0)
(-0.00236443 0.00355728 0)
(-0.00519444 0.00419891 0)
(-0.00844114 0.00490651 0)
(-0.0121355 0.00567794 0)
(-0.0163048 0.00650985 0)
(-0.0209715 0.00739728 0)
(-0.0261517 0.00833324 0)
(-0.0318535 0.00930841 0)
(-0.0380762 0.0103109 0)
(-0.0448084 0.0113265 0)
(-0.0520272 0.0123385 0)
(-0.0596979 0.0133282 0)
(-0.0677737 0.0142755 0)
(-0.076196 0.0151593 0)
(-0.0848957 0.0159581 0)
(-0.0937944 0.0166511 0)
(-0.102806 0.0172186 0)
(-0.111841 0.0176427 0)
(-0.120805 0.0179079 0)
(-0.129604 0.0180016 0)
(-0.138146 0.0179144 0)
(-0.146344 0.0176398 0)
(-0.154114 0.0171749 0)
(-0.16138 0.0165194 0)
(-0.168073 0.0156761 0)
(-0.17413 0.0146499 0)
(-0.179499 0.013448 0)
(-0.184133 0.0120793 0)
(-0.187993 0.0105542 0)
(-0.191046 0.00888437 0)
(-0.193269 0.0070827 0)
(-0.194639 0.00516302 0)
(-0.195143 0.00314027 0)
(-0.194771 0.00103041 0)
(-0.193519 -0.00114995 0)
(-0.191386 -0.00338322 0)
(-0.188378 -0.00564872 0)
(-0.184504 -0.00792482 0)
(-0.179779 -0.010189 0)
(-0.174222 -0.0124169 0)
(-0.167859 -0.0145826 0)
(-0.160721 -0.0166586 0)
(-0.152849 -0.0186161 0)
(-0.144287 -0.0204255 0)
(-0.135089 -0.0220569 0)
(-0.125317 -0.0234808 0)
(-0.115042 -0.0246687 0)
(-0.104341 -0.0255945 0)
(-0.0933021 -0.0262351 0)
(-0.0820186 -0.0265718 0)
(-0.0705912 -0.0265909 0)
(-0.0591261 -0.0262852 0)
(-0.0477332 -0.0256543 0)
(-0.0365243 -0.0247056 0)
(-0.0256112 -0.0234541 0)
(-0.0151034 -0.0219228 0)
(-0.00510566 -0.0201419 0)
(0.0042838 -0.0181481 0)
(0.0129759 -0.015984 0)
(0.0208922 -0.0136961 0)
(0.0279673 -0.0113338 0)
(0.0341495 -0.00894781 0)
(0.0394025 -0.0065881 0)
(0.0437068 -0.00430258 0)
(0.047059 -0.00213606 0)
(0.0494726 -0.000128652 0)
(0.0509788 0.00168653 0)
(0.0516258 0.00328412 0)
(0.0514761 0.00464629 0)
(0.0506057 0.00576353 0)
(0.049102 0.00663487 0)
(0.0470601 0.00726743 0)
(0.0445797 0.00767549 0)
(0.0417612 0.00787934 0)
(0.0387024 0.00790373 0)
(0.0354949 0.00777627 0)
(0.0322213 0.00752584 0)
(0.0289536 0.00718107 0)
(0.0257515 0.00676914 0)
(0.0226625 0.00631476 0)
(0.0197219 0.00583938 0)
(0.0169539 0.00536057 0)
(0.0143732 0.0048913 0)
(0.0119871 0.00443931 0)
(0.00979802 0.00400633 0)
(0.00780623 0.00358755 0)
(0.00601273 0.0031716 0)
(0.00442202 0.00274168 0)
(0.00304406 0.00227873 0)
(0.00189508 0.00176761 0)
(0.000991423 0.00120787 0)
(0.000374511 0.000629257 0)
(3.85859e-05 0.00013709 0)
(6.03694e-05 -0.000518574 0)
(0.000542202 -0.00153664 0)
(0.00134446 -0.00244551 0)
(0.00242818 -0.00316034 0)
(0.00368078 -0.00364318 0)
(0.0050251 -0.00388445 0)
(0.00638116 -0.00389695 0)
(0.00767748 -0.00370972 0)
(0.00885454 -0.00336237 0)
(0.00986673 -0.00289971 0)
(0.0106827 -0.00236701 0)
(0.0112845 -0.00180589 0)
(0.0116659 -0.00125108 0)
(0.0118293 -0.000728211 0)
(0.0117826 -0.000252604 0)
(0.0115361 0.000170966 0)
(0.0110987 0.000547517 0)
(0.0104751 0.000890382 0)
(0.00966394 0.00121904 0)
(0.00865567 0.00155652 0)
(0.00743253 0.00192681 0)
(0.00596875 0.0023524 0)
(0.00423166 0.00285245 0)
(0.00218329 0.00344167 0)
(-0.000217818 0.00413007 0)
(-0.00301486 0.00492334 0)
(-0.00625112 0.00582367 0)
(-0.00996853 0.0068305 0)
(-0.0142062 0.00794118 0)
(-0.0189991 0.00915106 0)
(-0.0243761 0.0104533 0)
(-0.0303588 0.0118383 0)
(-0.0369589 0.0132934 0)
(-0.0441771 0.014802 0)
(-0.0520006 0.0163437 0)
(-0.0604027 0.0178944 0)
(-0.0693412 0.0194264 0)
(-0.0787593 0.0209095 0)
(-0.0885854 0.0223116 0)
(-0.0987353 0.0235999 0)
(-0.109114 0.0247426 0)
(-0.11962 0.0257093 0)
(-0.130146 0.026473 0)
(-0.140584 0.0270104 0)
(-0.150828 0.0273032 0)
(-0.160777 0.0273379 0)
(-0.170338 0.0271064 0)
(-0.179424 0.0266055 0)
(-0.187962 0.0258367 0)
(-0.195886 0.0248055 0)
(-0.203141 0.0235206 0)
(-0.209681 0.0219935 0)
(-0.215469 0.0202378 0)
(-0.220475 0.0182685 0)
(-0.224677 0.0161018 0)
(-0.228057 0.0137544 0)
(-0.230603 0.0112436 0)
(-0.232305 0.00858722 0)
(-0.233157 0.00580329 0)
(-0.233155 0.0029105 0)
(-0.232299 -7.17243e-05 0)
(-0.230588 -0.00312297 0)
(-0.228026 -0.00622185 0)
(-0.224616 -0.0093457 0)
(-0.220366 -0.0124693 0)
(-0.215285 -0.0155659 0)
(-0.209387 -0.0186065 0)
(-0.20269 -0.0215599 0)
(-0.195215 -0.0243929 0)
(-0.18699 -0.0270703 0)
(-0.178052 -0.0295553 0)
(-0.16844 -0.0318103 0)
(-0.158207 -0.0337974 0)
(-0.147411 -0.0354798 0)
(-0.13612 -0.0368227 0)
(-0.124411 -0.0377947 0)
(-0.11237 -0.0383691 0)
(-0.100093 -0.0385255 0)
(-0.0876795 -0.0382512 0)
(-0.0752385 -0.0375419 0)
(-0.0628807 -0.0364028 0)
(-0.0507193 -0.0348494 0)
(-0.0388668 -0.0329069 0)
(-0.0274331 -0.0306102 0)
(-0.0165228 -0.0280031 0)
(-0.00623303 -0.0251367 0)
(0.00334813 -0.0220684 0)
(0.0121434 -0.0188598 0)
(0.0200877 -0.0155749 0)
(0.0271289 -0.0122783 0)
(0.0332287 -0.00903358 0)
(0.0383631 -0.00590141 0)
(0.0425229 -0.00293753 0)
(0.0457148 -0.00019126 0)
(0.0479611 0.00229491 0)
(0.0492996 0.00448755 0)
(0.0497834 0.00636317 0)
(0.0494802 0.00790879 0)
(0.0484702 0.00912222 0)
(0.0468439 0.0100118 0)
(0.0446993 0.0105954 0)
(0.0421376 0.0108993 0)
(0.03926 0.0109562 0)
(0.036164 0.010803 0)
(0.0329396 0.0104788 0)
(0.029667 0.0100228 0)
(0.026415 0.00947217 0)
(0.0232396 0.0088609 0)
(0.0201844 0.00821793 0)
(0.0172817 0.00756605 0)
(0.0145536 0.00692055 0)
(0.0120148 0.00628807 0)
(0.00967516 0.00566575 0)
(0.00754298 0.00504114 0)
(0.00562796 0.00439369 0)
(0.00394417 0.00369861 0)
(0.00251236 0.00293404 0)
(0.00135404 0.00209289 0)
(0.000533991 0.00119848 0)
(5.85046e-05 0.000345734 0)
(6.94437e-05 -0.000791317 0)
(0.000619451 -0.00223494 0)
(0.0015222 -0.0034627 0)
(0.00272417 -0.00439959 0)
(0.00409026 -0.00501126 0)
(0.00553115 -0.00529316 0)
(0.00695769 -0.00526651 0)
(0.00829244 -0.00497203 0)
(0.00947244 -0.00446333 0)
(0.0104504 -0.0038001 0)
(0.0111942 -0.00304197 0)
(0.0116855 -0.00224321 0)
(0.0119173 -0.00144859 0)
(0.0118905 -0.000690541 0)
(0.0116102 1.23675e-05 0)
(0.0110826 0.000655593 0)
(0.0103107 0.00124761 0)
(0.00929219 0.00180779 0)
(0.0080167 0.00236343 0)
(0.00646518 0.00294626 0)
(0.00460952 0.00358879 0)
(0.00241352 0.00432105 0)
(-0.000165474 0.0051681 0)
(-0.00317449 0.00614865 0)
(-0.00666266 0.00727464 0)
(-0.010679 0.00855182 0)
(-0.0152704 0.00998064 0)
(-0.0204795 0.0115571 0)
(-0.0263426 0.0132734 0)
(-0.0328877 0.0151178 0)
(-0.040132 0.0170742 0)
(-0.0480794 0.0191219 0)
(-0.0567186 0.0212348 0)
(-0.0660212 0.0233813 0)
(-0.0759408 0.0255248 0)
(-0.0864127 0.0276243 0)
(-0.0973551 0.029636 0)
(-0.108671 0.0315145 0)
(-0.120252 0.033215 0)
(-0.131981 0.0346952 0)
(-0.143737 0.035917 0)
(-0.155399 0.036848 0)
(-0.166853 0.0374627 0)
(-0.17799 0.0377429 0)
(-0.188714 0.037678 0)
(-0.198941 0.0372646 0)
(-0.208597 0.0365057 0)
(-0.217625 0.0354095 0)
(-0.225976 0.033989 0)
(-0.233615 0.0322602 0)
(-0.240514 0.0302415 0)
(-0.246654 0.0279527 0)
(-0.25202 0.0254144 0)
(-0.256603 0.0226472 0)
(-0.260399 0.0196717 0)
(-0.263402 0.0165079 0)
(-0.265611 0.0131756 0)
(-0.267023 0.00969423 0)
(-0.267637 0.00608313 0)
(-0.267452 0.00236183 0)
(-0.266464 -0.00144958 0)
(-0.264672 -0.00532995 0)
(-0.262074 -0.00925674 0)
(-0.258669 -0.0132057 0)
(-0.254456 -0.0171502 0)
(-0.249435 -0.0210609 0)
(-0.24361 -0.0249057 0)
(-0.236987 -0.0286494 0)
(-0.229576 -0.0322537 0)
(-0.221394 -0.0356775 0)
(-0.212461 -0.0388771 0)
(-0.202807 -0.041807 0)
(-0.192469 -0.0444207 0)
(-0.181494 -0.0466719 0)
(-0.169938 -0.0485161 0)
(-0.157869 -0.049912 0)
(-0.145364 -0.0508234 0)
(-0.132513 -0.0512212 0)
(-0.119412 -0.0510848 0)
(-0.106168 -0.0504041 0)
(-0.0928925 -0.0491804 0)
(-0.0797029 -0.0474273 0)
(-0.0667167 -0.045171 0)
(-0.0540504 -0.0424499 0)
(-0.0418164 -0.0393136 0)
(-0.0301203 -0.0358212 0)
(-0.0190589 -0.0320399 0)
(-0.00871823 -0.0280424 0)
(0.000827354 -0.0239048 0)
(0.00951603 -0.0197046 0)
(0.0172987 -0.0155183 0)
(0.0241391 -0.0114201 0)
(0.0300137 -0.00747973 0)
(0.0349118 -0.0037611 0)
(0.0388362 -0.000321167 0)
(0.0418029 0.00279173 0)
(0.0438421 0.00553919 0)
(0.044998 0.00789388 0)
(0.0453293 0.00984049 0)
(0.0449073 0.0113763 0)
(0.0438154 0.0125109 0)
(0.0421457 0.0132657 0)
(0.0399963 0.0136723 0)
(0.0374674 0.0137704 0)
(0.0346574 0.0136053 0)
(0.0316596 0.0132254 0)
(0.0285587 0.0126792 0)
(0.025429 0.0120126 0)
(0.0223329 0.011267 0)
(0.0193207 0.0104768 0)
(0.0164318 0.00966692 0)
(0.0136957 0.00885149 0)
(0.011135 0.00803215 0)
(0.00876806 0.00719771 0)
(0.00661296 0.00632559 0)
(0.00469076 0.00538575 0)
(0.00302959 0.00434811 0)
(0.00165911 0.00319402 0)
(0.000667798 0.00193089 0)
(7.50702e-05 0.00062672 0)
(7.63425e-05 -0.00109641 0)
(0.000678166 -0.00300885 0)
(0.00165578 -0.00457672 0)
(0.00294135 -0.00573674 0)
(0.00437872 -0.00646254 0)
(0.00586604 -0.00675912 0)
(0.00730502 -0.00666002 0)
(0.00861289 -0.00622085 0)
(0.00972433 -0.0055115 0)
(0.0105917 -0.00460799 0)
(0.0111834 -0.00358487 0)
(0.011482 -0.00250888 0)
(0.01148 -0.00143395 0)
(0.0111769 -0.000397939 0)
(0.0105744 0.000578982 0)
(0.00967304 0.00149435 0)
(0.00846826 0.00236187 0)
(0.00694816 0.00320855 0)
(0.00509164 0.00407073 0)
(0.00286792 0.00498948 0)
(0.000237204 0.00600588 0)
(-0.00284765 0.00715688 0)
(-0.00643872 0.00847226 0)
(-0.0105903 0.00997288 0)
(-0.015356 0.0116704 0)
(-0.020786 0.0135678 0)
(-0.0269245 0.0156605 0)
(-0.033807 0.0179372 0)
(-0.0414575 0.02038 0)
(-0.0498857 0.0229647 0)
(-0.0590843 0.0256604 0)
(-0.0690268 0.0284288 0)
(-0.0796657 0.031225 0)
(-0.0909326 0.0339975 0)
(-0.102739 0.0366905 0)
(-0.114977 0.0392451 0)
(-0.127527 0.0416027 0)
(-0.140259 0.043707 0)
(-0.15304 0.045507 0)
(-0.165737 0.0469592 0)
(-0.178226 0.0480292 0)
(-0.190392 0.0486923 0)
(-0.202137 0.0489341 0)
(-0.213374 0.0487499 0)
(-0.224035 0.0481432 0)
(-0.234065 0.047125 0)
(-0.243426 0.0457117 0)
(-0.252088 0.0439238 0)
(-0.260033 0.0417844 0)
(-0.267248 0.0393182 0)
(-0.27373 0.03655 0)
(-0.279475 0.0335047 0)
(-0.284484 0.0302061 0)
(-0.288759 0.0266768 0)
(-0.2923 0.0229385 0)
(-0.29511 0.0190114 0)
(-0.297187 0.0149151 0)
(-0.298532 0.0106682 0)
(-0.299141 0.0062892 0)
(-0.29901 0.00179673 0)
(-0.298134 -0.00278995 0)
(-0.296506 -0.00745041 0)
(-0.294119 -0.0121624 0)
(-0.290965 -0.0169015 0)
(-0.287035 -0.0216402 0)
(-0.282323 -0.0263481 0)
(-0.27682 -0.0309907 0)
(-0.270524 -0.0355297 0)
(-0.263431 -0.0399228 0)
(-0.255546 -0.0441236 0)
(-0.246875 -0.0480818 0)
(-0.237433 -0.0517443 0)
(-0.227243 -0.0550557 0)
(-0.216336 -0.0579598 0)
(-0.204756 -0.0604012 0)
(-0.192557 -0.0623272 0)
(-0.179806 -0.0636901 0)
(-0.166582 -0.0644492 0)
(-0.152979 -0.0645737 0)
(-0.139098 -0.0640446 0)
(-0.125056 -0.0628562 0)
(-0.110971 -0.0610181 0)
(-0.0969702 -0.058555 0)
(-0.0831804 -0.0555074 0)
(-0.069726 -0.0519295 0)
(-0.0567254 -0.0478886 0)
(-0.0442881 -0.0434617 0)
(-0.0325122 -0.0387333 0)
(-0.0214824 -0.0337922 0)
(-0.0112696 -0.028729 0)
(-0.00193034 -0.0236333 0)
(0.00649196 -0.0185917 0)
(0.0139667 -0.013686 0)
(0.0204748 -0.00899242 0)
(0.0260085 -0.00457963 0)
(0.0305706 -0.000508367 0)
(0.0341754 0.00317004 0)
(0.0368485 0.00641487 0)
(0.0386282 0.00919727 0)
(0.0395654 0.0115014 0)
(0.0397238 0.0133251 0)
(0.039179 0.0146801 0)
(0.0380167 0.0155913 0)
(0.0363294 0.0160954 0)
(0.034214 0.0162385 0)
(0.0317671 0.0160732 0)
(0.0290819 0.0156556 0)
(0.0262447 0.0150416 0)
(0.0233329 0.0142839 0)
(0.020413 0.0134283 0)
(0.0175405 0.0125108 0)
(0.0147606 0.0115545 0)
(0.01211 0.0105676 0)
(0.00961977 0.00954236 0)
(0.00731849 0.00845572 0)
(0.00523694 0.007273 0)
(0.00341303 0.00595464 0)
(0.00188658 0.00446658 0)
(0.000767428 0.00279333 0)
(8.73042e-05 0.00096497 0)
(8.18804e-05 -0.00142657 0)
(0.000723486 -0.00383937 0)
(0.00175417 -0.00575904 0)
(0.0030917 -0.00713481 0)
(0.00456019 -0.00795186 0)
(0.00604538 -0.00822916 0)
(0.0074404 -0.00801678 0)
(0.00865799 -0.00738881 0)
(0.00963159 -0.00643406 0)
(0.0103144 -0.00524636 0)
(0.0106766 -0.00391561 0)
(0.0107019 -0.00252036 0)
(0.0103832 -0.00112232 0)
(0.00971784 0.000237225 0)
(0.00870316 0.00153882 0)
(0.00733252 0.00278442 0)
(0.005592 0.00399511 0)
(0.00345825 0.00520719 0)
(0.000897609 0.00646698 0)
(-0.00213347 0.00782499 0)
(-0.00568665 0.00933002 0)
(-0.00981895 0.0110242 0)
(-0.0145894 0.0129394 0)
(-0.0200555 0.0150955 0)
(-0.0262698 0.0175 0)
(-0.0332762 0.0201487 0)
(-0.0411073 0.0230269 0)
(-0.0497807 0.0261102 0)
(-0.0592959 0.0293646 0)
(-0.0696317 0.0327471 0)
(-0.0807437 0.0362054 0)
(-0.0925637 0.0396789 0)
(-0.105 0.0431 0)
(-0.117939 0.0463966 0)
(-0.131252 0.0494949 0)
(-0.144798 0.0523235 0)
(-0.158431 0.0548165 0)
(-0.172008 0.0569166 0)
(-0.185394 0.0585779 0)
(-0.198465 0.0597668 0)
(-0.211117 0.0604629 0)
(-0.223263 0.0606581 0)
(-0.234833 0.0603551 0)
(-0.245777 0.0595661 0)
(-0.256059 0.0583102 0)
(-0.265655 0.0566118 0)
(-0.274554 0.0544984 0)
(-0.28275 0.0519993 0)
(-0.290244 0.049144 0)
(-0.297039 0.0459615 0)
(-0.303141 0.0424795 0)
(-0.308557 0.0387239 0)
(-0.313292 0.0347188 0)
(-0.317352 0.0304866 0)
(-0.320741 0.0260476 0)
(-0.323461 0.0214209 0)
(-0.325511 0.0166241 0)
(-0.326892 0.0116745 0)
(-0.3276 0.0065886 0)
(-0.327629 0.00138338 0)
(-0.326972 -0.00392348 0)
(-0.325621 -0.00931297 0)
(-0.323565 -0.0147641 0)
(-0.320791 -0.0202531 0)
(-0.317285 -0.0257531 0)
(-0.313035 -0.0312334 0)
(-0.308024 -0.0366587 0)
(-0.302238 -0.0419891 0)
(-0.295665 -0.0471795 0)
(-0.288292 -0.0521794 0)
(-0.280114 -0.0569334 0)
(-0.271129 -0.0613815 0)
(-0.26134 -0.0654599 0)
(-0.250762 -0.0691024 0)
(-0.23942 -0.0722422 0)
(-0.227349 -0.0748137 0)
(-0.2146 -0.0767554 0)
(-0.201239 -0.0780128 0)
(-0.187348 -0.078541 0)
(-0.173023 -0.0783081 0)
(-0.158376 -0.0772975 0)
(-0.143532 -0.0755102 0)
(-0.128624 -0.072966 0)
(-0.113791 -0.0697041 0)
(-0.0991749 -0.0657818 0)
(-0.0849131 -0.0612731 0)
(-0.0711349 -0.0562657 0)
(-0.057958 -0.050857 0)
(-0.0454847 -0.045151 0)
(-0.0338004 -0.0392537 0)
(-0.0229731 -0.0332699 0)
(-0.0130538 -0.0273006 0)
(-0.00407809 -0.0214405 0)
(0.00393173 -0.0157769 0)
(0.0109647 -0.0103891 0)
(0.0170196 -0.00534752 0)
(0.0221038 -0.000713318 0)
(0.0262336 0.0034623 0)
(0.0294343 0.00713919 0)
(0.0317412 0.0102895 0)
(0.0332008 0.0128989 0)
(0.033871 0.0149674 0)
(0.033821 0.0165099 0)
(0.0331302 0.0175553 0)
(0.0318858 0.0181453 0)
(0.0301798 0.0183317 0)
(0.0281058 0.0181733 0)
(0.0257551 0.0177321 0)
(0.0232137 0.0170692 0)
(0.0205599 0.0162405 0)
(0.0178627 0.0152922 0)
(0.0151817 0.014257 0)
(0.0125677 0.013151 0)
(0.0100648 0.011971 0)
(0.00771404 0.0106947 0)
(0.00555757 0.00928361 0)
(0.00364456 0.00768789 0)
(0.00202582 0.00585593 0)
(0.000828519 0.00374532 0)
(9.47292e-05 0.00134249 0)
(8.65314e-05 -0.00177677 0)
(0.000758413 -0.00471096 0)
(0.00182247 -0.00698386 0)
(0.00318156 -0.0085584 0)
(0.00464112 -0.00943486 0)
(0.00607524 -0.00965059 0)
(0.00736951 -0.00927674 0)
(0.00843348 -0.00840966 0)
(0.00920066 -0.00715979 0)
(0.00962628 -0.00564014 0)
(0.00968314 -0.00395602 0)
(0.00935668 -0.00219673 0)
(0.0086396 -0.0004297 0)
(0.00752645 0.00130291 0)
(0.00600881 0.00298519 0)
(0.0040713 0.00462624 0)
(0.00168876 0.00625672 0)
(-0.00117502 0.00792361 0)
(-0.00456711 0.00968356 0)
(-0.00854356 0.0115956 0)
(-0.0131663 0.0137141 0)
(-0.0184989 0.0160832 0)
(-0.0246027 0.0187326 0)
(-0.0315315 0.0216762 0)
(-0.0393284 0.0249118 0)
(-0.0480214 0.0284221 0)
(-0.0576197 0.0321756 0)
(-0.068111 0.0361279 0)
(-0.0794579 0.0402225 0)
(-0.0915969 0.0443913 0)
(-0.104438 0.0485569 0)
(-0.117867 0.0526343 0)
(-0.131748 0.0565349 0)
(-0.145931 0.0601708 0)
(-0.160261 0.063459 0)
(-0.174581 0.0663259 0)
(-0.188743 0.0687107 0)
(-0.202615 0.0705677 0)
(-0.216081 0.0718671 0)
(-0.22905 0.0725945 0)
(-0.241447 0.0727493 0)
(-0.253221 0.0723428 0)
(-0.264337 0.0713956 0)
(-0.274773 0.0699347 0)
(-0.284522 0.0679915 0)
(-0.29358 0.0655996 0)
(-0.301954 0.062793 0)
(-0.30965 0.0596054 0)
(-0.316679 0.0560688 0)
(-0.323052 0.0522135 0)
(-0.32878 0.0480671 0)
(-0.333871 0.043655 0)
(-0.338336 0.0390005 0)
(-0.342181 0.0341242 0)
(-0.345414 0.0290451 0)
(-0.348038 0.0237804 0)
(-0.350056 0.0183461 0)
(-0.35147 0.0127571 0)
(-0.352277 0.00702822 0)
(-0.352475 0.00117417 0)
(-0.352057 -0.00478952 0)
(-0.351015 -0.010846 0)
(-0.349337 -0.0169764 0)
(-0.34701 -0.0231592 0)
(-0.344017 -0.0293691 0)
(-0.340338 -0.035577 0)
(-0.335953 -0.0417487 0)
(-0.330839 -0.0478443 0)
(-0.324971 -0.0538181 0)
(-0.318325 -0.0596178 0)
(-0.310878 -0.0651847 0)
(-0.302612 -0.0704538 0)
(-0.293509 -0.0753544 0)
(-0.283563 -0.0798112 0)
(-0.272773 -0.0837462 0)
(-0.261153 -0.0870805 0)
(-0.24873 -0.0897374 0)
(-0.235548 -0.0916455 0)
(-0.221669 -0.0927425 0)
(-0.207175 -0.0929787 0)
(-0.192169 -0.0923211 0)
(-0.176771 -0.0907563 0)
(-0.16112 -0.088293 0)
(-0.145365 -0.0849635 0)
(-0.129665 -0.0808238 0)
(-0.114181 -0.0759514 0)
(-0.0990703 -0.0704432 0)
(-0.0844784 -0.0644104 0)
(-0.0705364 -0.0579742 0)
(-0.0573556 -0.0512598 0)
(-0.045025 -0.044392 0)
(-0.0336113 -0.0374904 0)
(-0.0231602 -0.0306665 0)
(-0.0136987 -0.0240219 0)
(-0.00523862 -0.0176471 0)
(0.00221992 -0.0116218 0)
(0.00868575 -0.00601516 0)
(0.0141747 -0.000885665 0)
(0.0187089 0.00371864 0)
(0.022317 0.00776106 0)
(0.0250351 0.0112173 0)
(0.0269084 0.0140766 0)
(0.0279915 0.0163431 0)
(0.0283495 0.0180358 0)
(0.0280568 0.0191885 0)
(0.0271958 0.0198478 0)
(0.0258541 0.0200707 0)
(0.0241214 0.0199207 0)
(0.0220864 0.0194636 0)
(0.0198338 0.0187622 0)
(0.0174421 0.0178713 0)
(0.014982 0.0168322 0)
(0.0125169 0.0156685 0)
(0.0101036 0.0143822 0)
(0.00779582 0.0129527 0)
(0.00564769 0.0113378 0)
(0.00371999 0.00947788 0)
(0.00207438 0.0073031 0)
(0.000850189 0.0047432 0)
(9.72786e-05 0.00174007 0)
(9.04477e-05 -0.00214303 0)
(0.000783765 -0.00560953 0)
(0.00186157 -0.00822614 0)
(0.00321104 -0.00997192 0)
(0.00462009 -0.0108663 0)
(0.00595234 -0.0109697 0)
(0.00708754 -0.0103792 0)
(0.00793374 -0.0092172 0)
(0.0084261 -0.00761834 0)
(0.00852305 -0.00571582 0)
(0.00820051 -0.00362988 0)
(0.00744559 -0.00145885 0)
(0.00625009 0.000726724 0)
(0.00460449 0.00288692 0)
(0.00249295 0.00501255 0)
(-0.000110357 0.00712259 0)
(-0.00324317 0.0092592 0)
(-0.00695521 0.0114808 0)
(-0.0113064 0.0138534 0)
(-0.0163631 0.0164424 0)
(-0.0221936 0.0193039 0)
(-0.0288625 0.0224787 0)
(-0.0364254 0.0259888 0)
(-0.0449236 0.0298353 0)
(-0.05438 0.0339992 0)
(-0.0647947 0.0384427 0)
(-0.076142 0.0431104 0)
(-0.0883678 0.0479314 0)
(-0.101389 0.0528214 0)
(-0.115094 0.0576848 0)
(-0.129347 0.0624192 0)
(-0.143993 0.0669198 0)
(-0.158865 0.0710854 0)
(-0.173795 0.074823 0)
(-0.188623 0.0780535 0)
(-0.2032 0.0807148 0)
(-0.217398 0.0827634 0)
(-0.231115 0.0841747 0)
(-0.244268 0.0849414 0)
(-0.2568 0.0850711 0)
(-0.268673 0.0845832 0)
(-0.279862 0.0835061 0)
(-0.290361 0.0818738 0)
(-0.300167 0.0797236 0)
(-0.309287 0.077094 0)
(-0.317733 0.0740236 0)
(-0.325516 0.0705493 0)
(-0.332652 0.0667061 0)
(-0.339154 0.0625268 0)
(-0.345039 0.0580413 0)
(-0.35032 0.0532769 0)
(-0.355011 0.048258 0)
(-0.359126 0.0430067 0)
(-0.362676 0.0375425 0)
(-0.365673 0.031883 0)
(-0.368125 0.0260436 0)
(-0.37004 0.0200385 0)
(-0.371423 0.0138805 0)