/*--------------------------------*- C++ -*----------------------------------*\
| =========                 |                                                 |
| \\      /  F ield         | OpenFOAM: The Open Source CFD Toolbox           |
|  \\    /   O peration     | Version:  2406                                  |
|   \\  /    A nd           | Website:  www.openfoam.com                      |
|    \\/     M anipulation  |                                                 |
\*---------------------------------------------------------------------------*/
FoamFile
{
    version     2.0;
    format      ascii;
    arch        "LSB;label=32;scalar=64";
    class       volScalarField;
    location    "40";
    object      p;
}
// * * * * * * * * * * * * * * * * * * * * * * * * * * * * * * * * * * * * * //

dimensions      [0 2 -2 0 0 0 0];

internalField   nonuniform List<scalar> 
3600
(
0.0395657
0.039601
0.0395934
0.0395786
0.0395134
0.0394404
0.0393407
0.0392436
0.0391331
0.0390193
0.0388848
0.0387293
0.0385384
0.0383101
0.038036
0.0377152
0.0373447
0.036927
0.0364657
0.0359717
0.0354618
0.0349628
0.0345095
0.0341431
0.0339063
0.0338391
0.0339738
0.0343316
0.0349189
0.0357252
0.0367197
0.0378499
0.0390408
0.0401976
0.0412116
0.0419705
0.0423722
0.0423421
0.0418465
0.0409051
0.0395892
0.0380153
0.0363207
0.0346449
0.0331008
0.0317698
0.0306873
0.0298614
0.0292651
0.0288669
0.0286152
0.0284768
0.0284045
0.0283849
0.0283821
0.0284054
0.0284227
0.0284617
0.0284832
0.0285195
0.0395318
0.0395682
0.0395523
0.0395376
0.0394762
0.0394138
0.0393266
0.0392436
0.0391464
0.0390461
0.0389254
0.0387856
0.0386135
0.0384079
0.0381605
0.0378698
0.0375307
0.0371437
0.0367106
0.0362408
0.0357487
0.0352557
0.0347901
0.0343883
0.0340927
0.0339471
0.0339901
0.0342498
0.034739
0.0354518
0.0363613
0.0374173
0.0385467
0.0396556
0.0406356
0.0413738
0.0417664
0.0417367
0.0412492
0.0403229
0.0390299
0.0374899
0.035844
0.034235
0.0327756
0.0315429
0.0305631
0.0298329
0.0293144
0.0289701
0.0287474
0.0286179
0.0285399
0.0285073
0.0284868
0.0284927
0.0284908
0.0285145
0.0285194
0.0285558
0.0395322
0.0395799
0.0395611
0.0395441
0.0394765
0.0394118
0.0393259
0.0392492
0.039162
0.0390736
0.0389656
0.0388377
0.0386763
0.0384791
0.0382362
0.0379436
0.0375936
0.0371829
0.0367082
0.0361729
0.0355888
0.0349822
0.0343918
0.0338656
0.0334548
0.0332085
0.0331675
0.033361
0.0338018
0.0344842
0.0353808
0.0364416
0.0375935
0.0387422
0.0397781
0.0405856
0.041056
0.0411053
0.0406891
0.0398177
0.0385578
0.0370283
0.0353757
0.0337537
0.0322872
0.0310642
0.0301164
0.0294402
0.0289913
0.0287232
0.0285731
0.0285053
0.0284737
0.0284733
0.0284718
0.0284893
0.0284906
0.0285187
0.0285217
0.0285722
0.0395348
0.0395872
0.0395604
0.0395362
0.0394614
0.0393968
0.0393182
0.0392558
0.0391875
0.0391198
0.0390324
0.0389225
0.0387747
0.0385828
0.038332
0.038011
0.0376037
0.0370991
0.0364925
0.035794
0.0350274
0.0342301
0.0334489
0.0327374
0.0321504
0.0317394
0.031547
0.0316032
0.0319223
0.0325004
0.0333137
0.0343168
0.0354424
0.0366028
0.0376932
0.0386001
0.0392123
0.0394372
0.0392168
0.0385441
0.0374689
0.0360974
0.0345709
0.0330457
0.0316556
0.0304991
0.0296171
0.0290114
0.0286385
0.0284495
0.0283756
0.0283764
0.0283999
0.0284405
0.0284647
0.0284972
0.0285025
0.0285326
0.0285309
0.0285897
0.0395813
0.0396339
0.0395961
0.0395576
0.0394695
0.0393977
0.0393205
0.0392657
0.0392096
0.0391531
0.0390723
0.0389582
0.0387893
0.0385493
0.0382131
0.0377588
0.0371662
0.0364291
0.0355552
0.0345697
0.0335121
0.0324337
0.0313924
0.0304475
0.0296549
0.0290638
0.0287133
0.0286306
0.0288288
0.0293053
0.0300401
0.0309949
0.0321117
0.0333132
0.0345054
0.0355815
0.0364319
0.0369559
0.0370782
0.0367657
0.0360381
0.0349733
0.033694
0.0323493
0.0310791
0.0299961
0.0291581
0.0285833
0.0282398
0.0280871
0.0280585
0.0281119
0.0281896
0.0282808
0.0283467
0.0284118
0.0284385
0.0284835
0.0284877
0.0285533
0.0396534
0.0396972
0.0396441
0.0395857
0.0394849
0.0394065
0.0393331
0.0392853
0.0392376
0.039182
0.039089
0.0389374
0.0386941
0.0383277
0.0378037
0.0370978
0.0361992
0.0351174
0.0338803
0.0325321
0.0311277
0.0297272
0.0283923
0.0271817
0.026149
0.0253394
0.0247887
0.0245207
0.0245477
0.0248683
0.0254679
0.0263167
0.0273697
0.0285658
0.0298281
0.0310662
0.032181
0.0330731
0.0336549
0.0338659
0.0336868
0.0331509
0.0323407
0.0313781
0.0303941
0.0295083
0.028796
0.0282952
0.0279932
0.0278645
0.0278539
0.0279267
0.0280278
0.0281453
0.0282372
0.0283244
0.0283681
0.0284227
0.0284316
0.0284953
0.0397812
0.0398077
0.0397363
0.0396517
0.0395355
0.039444
0.0393661
0.0393094
0.0392466
0.0391551
0.038996
0.0387292
0.0383073
0.0376871
0.036836
0.0357418
0.0344161
0.0328923
0.0312216
0.0294649
0.027689
0.0259602
0.0243412
0.0228875
0.0216462
0.0206541
0.0199388
0.0195171
0.0193967
0.0195749
0.02004
0.0207697
0.0217314
0.0228812
0.0241638
0.0255119
0.0268479
0.0280872
0.0291443
0.0299432
0.0304296
0.0305848
0.0304328
0.0300427
0.0295121
0.0289511
0.0284478
0.0280654
0.0278192
0.0277085
0.0276974
0.0277649
0.0278643
0.0279867
0.0280903
0.0281914
0.0282501
0.0283135
0.0283299
0.0283879
0.0399622
0.0399611
0.0398709
0.0397567
0.0396266
0.0395175
0.0394262
0.0393402
0.0392289
0.039048
0.0387454
0.03826
0.0375374
0.036535
0.0352391
0.0336619
0.0318446
0.0298454
0.027736
0.0255902
0.0234812
0.0214744
0.0196273
0.0179857
0.0165865
0.0154554
0.0146102
0.0140595
0.0138059
0.0138443
0.0141643
0.0147489
0.0155759
0.0166164
0.0178352
0.0191899
0.0206304
0.0220986
0.0235294
0.0248535
0.0260036
0.0269235
0.0275781
0.0279653
0.028116
0.0280943
0.0279744
0.0278333
0.0277177
0.0276618
0.0276602
0.0277142
0.0277932
0.0278967
0.027989
0.0280835
0.0281425
0.0282036
0.028222
0.0282689
0.040215
0.0401763
0.0400683
0.0399199
0.0397721
0.039631
0.0395026
0.0393463
0.0391259
0.0387694
0.0382129
0.0373807
0.0362272
0.0347274
0.0329005
0.0307904
0.0284696
0.0260184
0.023524
0.0210652
0.0187139
0.016527
0.0145504
0.012816
0.011347
0.0101562
0.00925115
0.00863233
0.00829686
0.00823677
0.00844177
0.00889758
0.0095882
0.0104945
0.0115962
0.0128699
0.0142904
0.0158279
0.0174475
0.0191063
0.0207522
0.0223246
0.0237576
0.0249896
0.0259727
0.0266897
0.0271547
0.0274207
0.0275497
0.0276136
0.0276521
0.0277017
0.0277571
0.0278314
0.0278991
0.027974
0.0280229
0.0280744
0.0280912
0.0281265
0.0405389
0.040454
0.0403324
0.0401467
0.0399764
0.0397838
0.039585
0.0393027
0.0388942
0.0382579
0.0373285
0.0360307
0.034347
0.0322845
0.0299031
0.0272787
0.024511
0.0216936
0.0189189
0.0162596
0.0137765
0.0115103
0.00949134
0.00773569
0.00625398
0.00504845
0.0041192
0.0034612
0.00306865
0.00293206
0.00304165
0.00338491
0.00394966
0.00472232
0.00569074
0.00684302
0.00816949
0.00966095
0.0113084
0.013099
0.0150119
0.0170116
0.0190423
0.0210254
0.0228628
0.0244539
0.0257165
0.0266202
0.027189
0.0275058
0.0276577
0.0277356
0.0277774
0.0278197
0.0278535
0.0278965
0.027923
0.0279557
0.0279645
0.0279881
0.040929
0.0407915
0.0406596
0.0404292
0.0402215
0.0399439
0.0396228
0.0391377
0.0384424
0.0374128
0.0359989
0.0341446
0.0318773
0.0292432
0.0263438
0.0232806
0.0201701
0.0171064
0.0141745
0.0114302
0.00891696
0.00665624
0.00466284
0.00293924
0.00148674
0.000300182
-0.00062445
-0.00129517
-0.0017187
-0.0019049
-0.00186258
-0.00160297
-0.00113596
-0.000472396
0.000379511
0.00141285
0.00262519
0.00401755
0.00559583
0.00736812
0.00934152
0.0115147
0.013867
0.0163473
0.0188612
0.0212728
0.0234192
0.0251551
0.0263965
0.0271669
0.0275649
0.0277387
0.0277953
0.027815
0.027815
0.0278221
0.0278202
0.0278299
0.0278272
0.0278418
0.0413673
0.0411744
0.0410357
0.0407513
0.0404849
0.0400799
0.0395723
0.0387976
0.0377144
0.0361909
0.0342134
0.0317608
0.0289143
0.0257589
0.0224301
0.0190418
0.0157127
0.0125226
0.00953874
0.00679421
0.00431331
0.00209988
0.000157037
-0.00152212
-0.00294113
-0.00410874
-0.00502987
-0.00571316
-0.00616441
-0.00639271
-0.00640522
-0.00621175
-0.00582021
-0.0052398
-0.00447679
-0.00353636
-0.0024188
-0.0011203
0.000369791
0.00206794
0.00399582
0.00617586
0.00862208
0.011327
0.0142407
0.0172543
0.020189
0.0228207
0.0249327
0.0264064
0.0272643
0.0276651
0.0277957
0.0278146
0.0277867
0.0277572
0.0277235
0.0277073
0.0276902
0.027698
0.0418113
0.0415625
0.0414147
0.0410596
0.0407011
0.0401142
0.0393461
0.0381929
0.0366333
0.0345461
0.0319714
0.0289326
0.0255647
0.0219822
0.0183415
0.0147519
0.0113199
0.00810069
0.00513932
0.0024457
2.85344e-05
-0.00212146
-0.00400781
-0.00564258
-0.00703056
-0.00818163
-0.00909981
-0.00979329
-0.0102663
-0.0105269
-0.0105805
-0.0104356
-0.0100986
-0.00957743
-0.00887733
-0.00800307
-0.00695492
-0.00572964
-0.00431723
-0.00270085
-0.000855765
0.00124986
0.00364952
0.00637064
0.00941404
0.0127319
0.0161951
0.0195828
0.0226015
0.0249735
0.0265477
0.0273891
0.0277104
0.0277747
0.0277351
0.0276743
0.0276102
0.0275689
0.0275368
0.0275399
0.0422135
0.0419111
0.0417487
0.041303
0.0408138
0.0399879
0.0388869
0.0372801
0.0351834
0.0325045
0.0293482
0.0257824
0.0219881
0.0180942
0.0142606
0.0105768
0.00712772
0.00393949
0.00103642
-0.00159084
-0.0039436
-0.00603924
-0.00788338
-0.00949001
-0.0108627
-0.0120111
-0.0129371
-0.013648
-0.0141462
-0.0144385
-0.0145285
-0.0144235
-0.014128
-0.0136492
-0.0129911
-0.0121584
-0.011152
-0.00997024
-0.00860608
-0.00704629
-0.00526989
-0.00324618
-0.000937495
0.00170012
0.00470157
0.00807735
0.0117741
0.0156425
0.0194085
0.0227099
0.0252072
0.0267532
0.0274709
0.0276714
0.0276523
0.02757
0.0274784
0.0274132
0.0273662
0.0273645
0.042495
0.0421414
0.0419512
0.0413898
0.0407266
0.0396065
0.0381121
0.0360026
0.0333471
0.0300945
0.0264164
0.0224179
0.0183111
0.014222
0.0102992
0.00660217
0.0031909
6.44344e-05
-0.00276859
-0.00533107
-0.00762875
-0.00968298
-0.0114983
-0.0130889
-0.0144559
-0.0156082
-0.0165457
-0.0172748
-0.0177962
-0.0181158
-0.0182357
-0.0181622
-0.0178985
-0.0174506
-0.0168217
-0.0160163
-0.0150352
-0.0138784
-0.0125417
-0.0110159
-0.00928621
-0.00732789
-0.00510846
-0.00258224
0.000298897
0.00358201
0.00727827
0.0113308
0.0155551
0.019617
0.0230765
0.0255501
0.0269307
0.027446
0.0275074
0.0274248
0.0273112
0.0272225
0.0271616
0.0271533
0.0425903
0.0421892
0.0419562
0.0412556
0.0403796
0.038923
0.0369967
0.0343684
0.0311716
0.0274021
0.0232918
0.0189697
0.0146622
0.0104764
0.00653991
0.00287842
-0.000470436
-0.00352976
-0.00630013
-0.00881265
-0.0110732
-0.0131042
-0.0149075
-0.0164964
-0.0178696
-0.0190349
-0.0199904
-0.0207417
-0.021288
-0.0216345
-0.0217818
-0.0217356
-0.0214977
-0.0210733
-0.0204647
-0.0196757
-0.0187075
-0.0175607
-0.0162332
-0.0147192
-0.0130099
-0.0110874
-0.00892875
-0.00649506
-0.00374075
-0.000604997
0.00296099
0.00697637
0.0113642
0.0158968
0.0201603
0.0236324
0.0259179
0.0270123
0.0272792
0.0272313
0.0271072
0.0269922
0.0269172
0.026898
0.0424131
0.0419672
0.0416734
0.0408128
0.0396932
0.037876
0.0355074
0.0323797
0.0286949
0.0244938
0.0200566
0.0155205
0.0111106
0.00690449
0.00300447
-0.000595368
-0.00387432
-0.00687133
-0.00959052
-0.012067
-0.014304
-0.0163236
-0.0181243
-0.0197184
-0.021102
-0.0222826
-0.0232562
-0.0240285
-0.024597
-0.0249668
-0.0251374
-0.0251138
-0.0248969
-0.0244912
-0.0238983
-0.0231215
-0.0221618
-0.02102
-0.0196953
-0.018184
-0.0164815
-0.0145757
-0.0124527
-0.0100831
-0.00743203
-0.004441
-0.00104966
0.00280666
0.00713765
0.0118429
0.0166264
0.0209673
0.0242807
0.026207
0.0269238
0.0269627
0.0268566
0.0267104
0.0266193
0.0265834
0.0419165
0.0414301
0.0410605
0.040028
0.0386495
0.0364701
0.0336775
0.0300998
0.0260051
0.021472
0.0168134
0.0121601
0.00772388
0.00354777
-0.000289678
-0.00382104
-0.00703602
-0.00998362
-0.0126672
-0.015123
-0.0173502
-0.0193702
-0.0211775
-0.0227842
-0.0241837
-0.0253833
-0.0263775
-0.0271717
-0.0277624
-0.0281544
-0.0283461
-0.0283422
-0.0281427
-0.0277519
-0.0271706
-0.0264016
-0.0254462
-0.0243047
-0.0229776
-0.0214619
-0.0197564
-0.0178524
-0.0157437
-0.0134092
-0.0108272
-0.00794912
-0.0047209
-0.00106095
0.00309165
0.00774373
0.0127444
0.0176902
0.0219586
0.024888
0.0263298
0.02661
0.0265393
0.0263765
0.0262589
0.0262015
0.0410489
0.0405263
0.0400692
0.0388618
0.0372243
0.0347033
0.0315293
0.027573
0.0231598
0.018396
0.0136118
0.00891992
0.00451229
0.000397598
-0.00336529
-0.0068291
-0.0099883
-0.0128973
-0.015556
-0.0180005
-0.0202252
-0.0222505
-0.0240678
-0.0256887
-0.0271046
-0.0283226
-0.029336
-0.0301501
-0.0307603
-0.0311714
-0.0313809
-0.0313933
-0.0312082
-0.0308291
-0.0302571
-0.0294944
-0.0285424
-0.0274012
-0.0260722
-0.0245522
-0.0228426
-0.0209358
-0.0188317
-0.0165145
-0.0139747
-0.011175
-0.00807627
-0.00459926
-0.000664917
0.00380221
0.00877891
0.0140272
0.0190184
0.0229743
0.0253287
0.0261438
0.0261218
0.025979
0.0258228
0.0257385
0.0398154
0.0392636
0.0387139
0.0373403
0.0354599
0.0326369
0.0291424
0.0248912
0.0202538
0.0153532
0.010523
0.00585105
0.00150666
-0.00253185
-0.00621991
-0.00962401
-0.012739
-0.0156213
-0.0182661
-0.0207082
-0.0229377
-0.024974
-0.0268058
-0.0284442
-0.029879
-0.0311172
-0.0321507
-0.0329849
-0.0336143
-0.0340432
-0.0342688
-0.0342951
-0.0341215
-0.0337513
-0.0331854
-0.0324259
-0.0314748
-0.0303316
-0.0289991
-0.0274735
-0.0257586
-0.0238464
-0.0217415
-0.0194303
-0.0169135
-0.0141626
-0.011156
-0.00782592
-0.00409836
0.000133768
0.0049351
0.0102224
0.0156472
0.0204612
0.0238359
0.0254254
0.025617
0.0254755
0.025312
0.0251774
0.0382221
0.0376488
0.0370065
0.0354838
0.0333888
0.0303154
0.0265697
0.0221083
0.0173336
0.012375
0.00755947
0.00294757
-0.00131346
-0.00526985
-0.00888628
-0.0122376
-0.0153163
-0.0181788
-0.0208149
-0.0232581
-0.0254945
-0.027543
-0.0293896
-0.0310452
-0.0324982
-0.0337553
-0.0348077
-0.0356601
-0.0363065
-0.0367508
-0.03699
-0.0370276
-0.0368629
-0.0364989
-0.0359372
-0.0351791
-0.0342278
-0.0330823
-0.0317469
-0.030217
-0.0284985
-0.0265825
-0.0244771
-0.0221688
-0.0196659
-0.016945
-0.0140011
-0.0107796
-0.00722456
-0.0032234
0.00133192
0.00647673
0.0120569
0.0174551
0.0218272
0.0242906
0.0250258
0.0248239
0.024718
0.0244975
0.0363299
0.0357458
0.035017
0.0333702
0.0310977
0.027833
0.0239083
0.0193175
0.0144814
0.00952849
0.00477146
0.000244431
-0.00392471
-0.00780053
-0.0113527
-0.0146601
-0.0177113
-0.0205612
-0.0231948
-0.0256438
-0.0278911
-0.0299546
-0.0318186
-0.0334937
-0.0349666
-0.036244
-0.037316
-0.0381869
-0.0388501
-0.0393091
-0.0395605
-0.0396075
-0.0394495
-0.0390892
-0.0385288
-0.0377693
-0.0368153
-0.0356649
-0.034325
-0.0327894
-0.0310671
-0.0291473
-0.0270418
-0.0247352
-0.0222422
-0.0195408
-0.0166395
-0.0134947
-0.0100734
-0.00627264
-0.0019763
0.00292779
0.00843908
0.0141454
0.0193142
0.0227058
0.0242225
0.0240466
0.0239915
0.0236923
0.0341922
0.0336079
0.0328017
0.0310586
0.0286484
0.0252502
0.0212117
0.0165598
0.0117211
0.00681876
0.00214732
-0.00228211
-0.00635787
-0.0101568
-0.013651
-0.01692
-0.0199482
-0.0227882
-0.0254207
-0.0278759
-0.030134
-0.0322122
-0.034093
-0.0357866
-0.0372786
-0.0385752
-0.0396655
-0.0405535
-0.0412319
-0.0417037
-0.0419654
-0.0420195
-0.0418662
-0.0415073
-0.0409463
-0.0401834
-0.0392252
-0.0380687
-0.0367235
-0.0351819
-0.0334566
-0.031534
-0.0294305
-0.027127
-0.0246442
-0.0219583
-0.019089
-0.0159994
-0.012679
-0.00904079
-0.00498238
-0.000355631
0.00494115
0.0107155
0.0163877
0.0206993
0.0230318
0.023184
0.0230681
0.0227586
0.0319033
0.0313313
0.0304598
0.0286505
0.0261429
0.022666
0.0185724
0.0139166
0.00912083
0.00430088
-0.000269008
-0.00459618
-0.00858208
-0.0123108
-0.0157546
-0.018992
-0.022003
-0.0248375
-0.0274726
-0.029937
-0.0322085
-0.0343037
-0.0362035
-0.0379174
-0.0394302
-0.0407472
-0.0418568
-0.0427622
-0.0434558
-0.0439399
-0.044211
-0.044271
-0.0441208
-0.0437612
-0.0431975
-0.0424286
-0.0414639
-0.0402986
-0.0389462
-0.0373965
-0.035667
-0.0337407
-0.0316394
-0.0293395
-0.026868
-0.0241965
-0.0213548
-0.0183076
-0.0150644
-0.0115546
-0.00769961
-0.00334835
0.00166261
0.00731236
0.0132146
0.0182986
0.0214091
0.0221981
0.0219359
0.0216788
0.0295346
0.0289859
0.0280615
0.0262127
0.0236426
0.0201319
0.0160277
0.011408
0.00668331
0.00196214
-0.0025018
-0.00672891
-0.0106313
-0.014296
-0.0176952
-0.0209043
-0.0239002
-0.0267297
-0.0293674
-0.0318401
-0.0341242
-0.0362352
-0.038153
-0.0398862
-0.0414187
-0.0427548
-0.0438824
-0.0448038
-0.0455113
-0.046006
-0.0462851
-0.0463491
-0.0462003
-0.0458381
-0.0452701
-0.0444933
-0.0435205
-0.0423447
-0.0409839
-0.0394248
-0.0376905
-0.0357599
-0.0336615
-0.0313658
-0.0289074
-0.0262513
-0.0234368
-0.0204257
-0.0172455
-0.0138378
-0.0101514
-0.00605255
-0.00134711
0.00404364
0.00996438
0.0155528
0.0194141
0.0209518
0.0206317
0.0204108
0.027184
0.0266706
0.0257063
0.0238432
0.0212416
0.0177354
0.013656
0.00910295
0.00446801
-0.000145473
-0.00450404
-0.00863627
-0.0124631
-0.0160713
-0.0194326
-0.0226187
-0.0256038
-0.0284315
-0.0310746
-0.0335581
-0.0358572
-0.0379861
-0.0399239
-0.041678
-0.0432316
-0.044588
-0.0457346
-0.0466725
-0.0473941
-0.0478993
-0.0481859
-0.0482531
-0.0481047
-0.0477384
-0.0471645
-0.0463779
-0.0453952
-0.0442067
-0.0428354
-0.0412645
-0.0395238
-0.037587
-0.0354907
-0.0331986
-0.0307542
-0.028114
-0.0253279
-0.0223507
-0.0192265
-0.0159022
-0.0123565
-0.00847841
-0.00407048
0.000988027
0.00676909
0.0125704
0.0171252
0.0193463
0.0192136
0.0189326
0.024914
0.0244456
0.0234525
0.0215941
0.0189832
0.0155072
0.0114736
0.00700186
0.00246142
-0.00204658
-0.00630791
-0.0103545
-0.0141149
-0.0176733
-0.0210016
-0.0241669
-0.0271422
-0.0299678
-0.0326156
-0.0351086
-0.0374214
-0.0395666
-0.0415229
-0.0432963
-0.0448697
-0.0462448
-0.047409
-0.0483618
-0.0490961
-0.0496101
-0.0499029
-0.0499716
-0.0498223
-0.0494504
-0.0488694
-0.0480713
-0.0470775
-0.0458744
-0.0444915
-0.0429071
-0.0411589
-0.0392142
-0.0371194
-0.0348298
-0.0324001
-0.029776
-0.0270202
-0.0240763
-0.0210058
-0.0177535
-0.0143286
-0.0106392
-0.00650867
-0.00180551
0.00371876
0.00949317
0.0146034
0.0173876
0.0176919
0.0172453
0.0228056
0.0223923
0.0213819
0.0195451
0.0169433
0.0135178
0.00954522
0.00516452
0.000719777
-0.00368703
-0.00785975
-0.0118299
-0.0155331
-0.019049
-0.0223504
-0.0254995
-0.0284688
-0.0312953
-0.0339506
-0.0364552
-0.0387839
-0.0409474
-0.0429241
-0.0447183
-0.0463129
-0.0477076
-0.0488904
-0.0498587
-0.0506063
-0.0511292
-0.0514282
-0.051498
-0.0513474
-0.0509688
-0.0503799
-0.0495688
-0.0485628
-0.0473432
-0.0459473
-0.044347
-0.0425896
-0.0406347
-0.03854
-0.0362508
-0.0338353
-0.0312265
-0.0285021
-0.0255914
-0.0225749
-0.0193876
-0.0160709
-0.0125427
-0.00866605
-0.00430981
0.000876278
0.00645415
0.0119046
0.0151348
0.0159993
0.0153471
0.0208972
0.0205464
0.0195278
0.0177234
0.0151404
0.0117746
0.00786636
0.00357453
-0.000783682
-0.00510148
-0.00919961
-0.0131056
-0.0167616
-0.0202417
-0.0235205
-0.0266553
-0.0296192
-0.0324458
-0.0351073
-0.037622
-0.0399648
-0.0421443
-0.0441395
-0.0459524
-0.0475662
-0.0489787
-0.0501783
-0.0511603
-0.0519197
-0.0524498
-0.0527538
-0.0528232
-0.0526703
-0.0522836
-0.0516858
-0.0508603
-0.049841
-0.0486034
-0.0471934
-0.0455753
-0.0438075
-0.04184
-0.039744
-0.037453
-0.0350507
-0.0324555
-0.029763
-0.0268848
-0.0239231
-0.0207968
-0.0175807
-0.0141919
-0.010546
-0.0065125
-0.00171152
0.00355852
0.00910528
0.0126643
0.0140612
0.0132485
0.0192447
0.0189647
0.0179486
0.0161869
0.0136316
0.0103332
0.00649178
0.00228674
-0.00199249
-0.00623139
-0.0102664
-0.0141185
-0.0177363
-0.0211878
-0.0244496
-0.0275744
-0.0305365
-0.0333663
-0.0360368
-0.0385637
-0.0409227
-0.0431201
-0.0451353
-0.0469682
-0.0486026
-0.0500338
-0.0512514
-0.0522477
-0.0530197
-0.0535574
-0.053867
-0.0539359
-0.0537809
-0.0533855
-0.0527788
-0.0519378
-0.0509049
-0.0496476
-0.0482226
-0.0465845
-0.0448049
-0.0428221
-0.040723
-0.0384269
-0.0360362
-0.0334517
-0.0307903
-0.0279428
-0.0250362
-0.0219676
-0.0188475
-0.0155817
-0.0121455
-0.00840512
-0.00400624
0.000887357
0.00631132
0.0100695
0.0118829
0.0110025
0.0178582
0.0176539
0.016649
0.0149357
0.0124103
0.00917875
0.00539804
0.0012693
-0.00294608
-0.00712219
-0.01111
-0.0149212
-0.018511
-0.0219402
-0.0251891
-0.0283055
-0.031266
-0.0340978
-0.0367756
-0.0393125
-0.0416852
-0.0438979
-0.0459307
-0.047781
-0.0494337
-0.0508812
-0.0521148
-0.0531233
-0.0539065
-0.05445
-0.0547641
-0.0548309
-0.0546731
-0.0542677
-0.0536514
-0.0527935
-0.0517462
-0.0504676
-0.0490267
-0.0473664
-0.0455737
-0.0435727
-0.0414686
-0.039164
-0.0367825
-0.0342049
-0.0315728
-0.0287525
-0.0259003
-0.0228857
-0.0198582
-0.0167021
-0.0134569
-0.00997883
-0.00597576
-0.0014934
0.00364444
0.00746539
0.0095626
0.00870498
0.0167699
0.0166471
0.0156651
0.0140086
0.011518
0.00835547
0.00463346
0.000575183
-0.00358569
-0.00770988
-0.0116614
-0.0154416
-0.0190116
-0.0224251
-0.0256663
-0.0287784
-0.031741
-0.0345778
-0.0372655
-0.0398145
-0.0422032
-0.0444327
-0.0464848
-0.0483537
-0.0500261
-0.051491
-0.0527419
-0.0537635
-0.054559
-0.055109
-0.0554286
-0.0554938
-0.0553341
-0.0549186
-0.0542933
-0.0534179
-0.0523564
-0.0510551
-0.0495977
-0.0479132
-0.0461059
-0.0440836
-0.0419724
-0.0396549
-0.0372798
-0.034704
-0.0320982
-0.0293002
-0.0265
-0.0235344
-0.0205957
-0.0175375
-0.0144668
-0.0112207
-0.00759211
-0.00352803
0.0012205
0.00497795
0.0072434
0.00646973
0.0159629
0.0159233
0.0149739
0.0133791
0.0109241
0.00782739
0.00415624
0.000156879
-0.00396462
-0.00805262
-0.0119831
-0.0157446
-0.0193044
-0.0227082
-0.0259452
-0.0290542
-0.0320184
-0.0348585
-0.037554
-0.0401124
-0.0425141
-0.0447573
-0.0468258
-0.0487103
-0.0504
-0.0518794
-0.0531457
-0.0541782
-0.0549846
-0.0555392
-0.0558636
-0.0559256
-0.0557634
-0.0553365
-0.0547018
-0.0538074
-0.0527311
-0.0514053
-0.0499305
-0.0482191
-0.0463958
-0.0443485
-0.0422276
-0.0398924
-0.0375201
-0.0349401
-0.0323562
-0.0295737
-0.0268214
-0.0238976
-0.0210427
-0.0180708
-0.0151591
-0.0121153
-0.00883126
-0.00517044
-0.000864638
0.00272655
0.00506452
0.00440346
0.0154514
0.0154966
0.0145936
0.0130708
0.0106587
0.00763118
0.00401136
6.77752e-05
-0.00402015
-0.00807979
-0.0119975
-0.0157481
-0.0193044
-0.0227044
-0.025942
-0.0290518
-0.0320212
-0.0348676
-0.0375737
-0.0401437
-0.0425607
-0.0448194
-0.0469062
-0.0488078
-0.0505164
-0.0520117
-0.0532951
-0.0543395
-0.0551586
-0.0557189
-0.0560497
-0.0561094
-0.0559464
-0.0555084
-0.0548657
-0.0539521
-0.0528617
-0.0515102
-0.0500179
-0.0482772
-0.0464365
-0.0443603
-0.0422271
-0.0398687
-0.0374951
-0.0349036
-0.0323364
-0.0295607
-0.0268504
-0.0239591
-0.0211814
-0.0182827
-0.0155152
-0.0126447
-0.00967178
-0.00638382
-0.00253857
0.000812349
0.00313994
0.0025958
0.0151941
0.0153195
0.0144746
0.0130314
0.0106674
0.00770909
0.00413748
0.000242846
-0.00382174
-0.00786481
-0.0117818
-0.015532
-0.0190931
-0.0224944
-0.0257354
-0.0288465
-0.0318201
-0.0346707
-0.0373847
-0.0399631
-0.0423924
-0.0446632
-0.0467655
-0.0486809
-0.0504062
-0.0519147
-0.0532134
-0.0542675
-0.0550984
-0.0556625
-0.0559993
-0.0560551
-0.0558911
-0.0554405
-0.0547897
-0.0538551
-0.0527504
-0.0513708
-0.04986
-0.0480866
-0.0462267
-0.0441168
-0.041968
-0.0395797
-0.0371999
-0.0345881
-0.0320311
-0.0292517
-0.0265758
-0.023705
-0.0209958
-0.0181552
-0.0155169
-0.0127909
-0.010095
-0.00713981
-0.0037493
-0.000684563
0.0015584
0.00112065
0.0151937
0.0153933
0.0146229
0.0132737
0.0109733
0.00809392
0.00457924
0.000738146
-0.00330081
-0.0073287
-0.011248
-0.0150023
-0.0185727
-0.0219802
-0.0252288
-0.0283453
-0.0313268
-0.0341848
-0.0369099
-0.0394995
-0.0419439
-0.0442291
-0.0463495
-0.0482807
-0.0500252
-0.0515485
-0.0528652
-0.0539306
-0.0547758
-0.0553452
-0.0556907
-0.0557437
-0.0555813
-0.0551191
-0.0544622
-0.0535066
-0.0523889
-0.0509801
-0.049451
-0.0476421
-0.0457615
-0.0436133
-0.0414457
-0.0390204
-0.0366291
-0.0339874
-0.0314331
-0.0286376
-0.0259869
-0.0231221
-0.0204711
-0.0176713
-0.0151468
-0.0125363
-0.0100843
-0.00741664
-0.00445995
-0.00170256
0.0003906
4.1368e-05
0.0153852
0.0156452
0.0149624
0.0137182
0.0114967
0.00870383
0.00525285
0.00146785
-0.00254632
-0.00656319
-0.0104912
-0.0142563
-0.0178419
-0.0212592
-0.0245176
-0.0276391
-0.0306273
-0.0334901
-0.0362237
-0.0388211
-0.0412779
-0.0435742
-0.0457105
-0.0476547
-0.0494169
-0.0509527
-0.0522865
-0.0533613
-0.0542206
-0.0547937
-0.055148
-0.055197
-0.0550365
-0.0545609
-0.0538983
-0.0529196
-0.0517886
-0.0503475
-0.0487989
-0.0469503
-0.0450466
-0.0428537
-0.040663
-0.038192
-0.0357828
-0.0330996
-0.0305392
-0.0277132
-0.0250768
-0.022201
-0.0195958
-0.016817
-0.01439
-0.0118656
-0.00962602
-0.00719793
-0.00464448
-0.00219432
-0.000304207
-0.000584698
0.0157686
0.016074
0.0154958
0.0143741
0.0122596
0.00957274
0.0062067
0.00249377
-0.00148119
-0.00547849
-0.00940986
-0.013185
-0.0167871
-0.0202176
-0.0234895
-0.0266205
-0.0296197
-0.0324915
-0.035238
-0.037847
-0.0403204
-0.0426312
-0.0447874
-0.0467476
-0.0485313
-0.0500823
-0.0514371
-0.0525237
-0.0534009
-0.0539798
-0.0543468
-0.0543935
-0.0542385
-0.0537507
-0.0530853
-0.0520838
-0.0509415
-0.0494669
-0.0478995
-0.0460077
-0.0440796
-0.0418361
-0.0396186
-0.037093
-0.0346595
-0.0319224
-0.0293467
-0.0264741
-0.0238402
-0.020934
-0.0183609
-0.0155807
-0.0132347
-0.0107659
-0.00870909
-0.00647162
-0.0042848
-0.00212359
-0.000474471
-0.000703911
0.0162561
0.0165854
0.016122
0.0151348
0.013154
0.0105913
0.00733008
0.0037045
-0.00021868
-0.00418877
-0.00812059
-0.0119056
-0.015526
-0.0189709
-0.0222574
-0.025397
-0.0284063
-0.0312847
-0.0340422
-0.0366599
-0.0391485
-0.0414714
-0.0436469
-0.0456212
-0.0474266
-0.0489914
-0.0503679
-0.0514652
-0.0523615
-0.0529451
-0.053326
-0.0533691
-0.0532208
-0.0527191
-0.0520517
-0.0510247
-0.0498711
-0.0483591
-0.0467716
-0.044831
-0.0428754
-0.0405732
-0.0383238
-0.0357324
-0.0332668
-0.0304609
-0.0278592
-0.0249214
-0.0222767
-0.0193182
-0.0167621
-0.0139555
-0.0116732
-0.00922847
-0.00732679
-0.00523023
-0.00336991
-0.00146368
-7.55237e-05
-0.000266428
0.016861
0.0171968
0.0168567
0.0160209
0.0142111
0.0118031
0.00868167
0.00517278
0.00133081
-0.00259012
-0.00650522
-0.010291
-0.0139255
-0.0173856
-0.0206899
-0.0238434
-0.0268687
-0.0297596
-0.0325348
-0.0351672
-0.0376775
-0.0400178
-0.042219
-0.0442122
-0.0460455
-0.0476282
-0.0490322
-0.0501437
-0.0510647
-0.0516561
-0.0520562
-0.052098
-0.0519613
-0.0514471
-0.0507819
-0.0497297
-0.0485679
-0.0470169
-0.0454105
-0.0434171
-0.0414331
-0.0390651
-0.03678
-0.0341118
-0.0316069
-0.028717
-0.0260788
-0.023056
-0.0203869
-0.0173522
-0.0147979
-0.0119375
-0.00970231
-0.00724846
-0.00547696
-0.00347105
-0.00189601
-0.000197251
0.000928998
0.000771713
0.0174754
0.0177991
0.0175769
0.0169007
0.0152911
0.0130668
0.0101173
0.00675494
0.00302266
-0.000825203
-0.00470654
-0.00848145
-0.0121245
-0.0155965
-0.018918
-0.0220839
-0.0251255
-0.0280277
-0.0308208
-0.0334667
-0.0359999
-0.0383572
-0.0405862
-0.0425982
-0.0444622
-0.046063
-0.0474979
-0.0486236
-0.0495725
-0.0501713
-0.0505937
-0.0506333
-0.0505106
-0.0499821
-0.0493207
-0.04824
-0.0470704
-0.0454755
-0.0438491
-0.0417956
-0.03978
-0.0373359
-0.0350092
-0.0322503
-0.0296972
-0.0267051
-0.0240181
-0.0208876
-0.0181795
-0.0150418
-0.0124732
-0.0095292
-0.00732496
-0.00482695
-0.0031638
-0.00119729
0.000132364
0.00168271
0.00256421
0.00244517
0.0181509
0.0184551
0.0183377
0.0178304
0.0164515
0.0144495
0.0117166
0.00854326
0.00496537
0.00122862
-0.00258614
-0.00632861
-0.00996697
-0.0134466
-0.0167871
-0.0199713
-0.0230377
-0.0259603
-0.028782
-0.0314507
-0.0340174
-0.0364001
-0.0386669
-0.0407052
-0.0426093
-0.0442344
-0.0457088
-0.0468538
-0.0478387
-0.048449
-0.0489009
-0.0489412
-0.0488391
-0.0482981
-0.0476461
-0.0465372
-0.045364
-0.0437232
-0.0420793
-0.039961
-0.0379136
-0.0353851
-0.0330133
-0.0301509
-0.0275425
-0.0244302
-0.0216837
-0.0184222
-0.0156612
-0.0123927
-0.00979521
-0.00673593
-0.00454875
-0.00196994
-0.000397859
0.00158162
0.0027014
0.00417206
0.00484057
0.00477535
0.0187529
0.0190302
0.0189923
0.0186497
0.0175156
0.0157692
0.0132921
0.010352
0.00697288
0.00339122
-0.000320875
-0.00400137
-0.00761678
-0.0110914
-0.0144465
-0.0176463
-0.0207397
-0.0236836
-0.0265387
-0.0292323
-0.0318385
-0.0342491
-0.0365607
-0.0386279
-0.0405793
-0.0422311
-0.0437518
-0.0449178
-0.0459449
-0.0465672
-0.0470541
-0.0470945
-0.0470173
-0.0464616
-0.0458221
-0.044681
-0.0435058
-0.0418131
-0.0401512
-0.037959
-0.0358769
-0.0332514
-0.0308288
-0.027846
-0.0251729
-0.0219187
-0.0191
-0.0156809
-0.0128524
-0.00942196
-0.0067811
-0.00357218
-0.00139024
0.00130859
0.00280172
0.0048487
0.00578694
0.00725497
0.00775102
0.00776723
0.0194
0.0196533
0.0196695
0.0194806
0.0185976
0.0171389
0.0149629
0.0123071
0.00918389
0.00581165
0.00225304
-0.00132683
-0.00489217
-0.00834837
-0.0117154
-0.0149359
-0.0180679
-0.0210463
-0.0239511
-0.0266841
-0.0293465
-0.0317983
-0.03417
-0.0362773
-0.0382897
-0.0399771
-0.0415566
-0.0427506
-0.0438309
-0.0444705
-0.0450022
-0.0450463
-0.0450028
-0.0444344
-0.0438148
-0.0426417
-0.0414706
-0.0397235
-0.0380477
-0.0357764
-0.0336611
-0.0309292
-0.0284538
-0.0253361
-0.0225927
-0.0191765
-0.0162761
-0.0126736
-0.00976586
-0.00614258
-0.00344725
-5.34488e-05
0.00213048
0.00499034
0.0064093
0.00858077
0.00935504
0.0109048
0.0112698
0.0114078
0.0199043
0.0201286
0.0201762
0.0201139
0.019472
0.0183204
0.016483
0.0141659
0.011357
0.00825986
0.00491335
0.00148844
-0.00198907
-0.00539782
-0.00876426
-0.0119977
-0.0151723
-0.0181886
-0.0211547
-0.0239342
-0.0266669
-0.0291673
-0.0316134
-0.0337672
-0.0358542
-0.0375823
-0.0392326
-0.0404579
-0.0416018
-0.0422601
-0.0428453
-0.0428924
-0.0428897
-0.0423057
-0.0417116
-0.0405014
-0.0393378
-0.0375288
-0.0358404
-0.0334789
-0.031329
-0.0284759
-0.0259431
-0.0226711
-0.0198493
-0.0162463
-0.0132535
-0.00943756
-0.00643859
-0.00258785
0.000171775
0.00378928
0.00597903
0.00904532
0.010388
0.0127465
0.013362
0.0150864
0.0153543
0.0156688
0.0204872
0.020687
0.0207511
0.0207812
0.0203561
0.0195121
0.0180434
0.0161135
0.0136817
0.0109261
0.00785889
0.00464627
0.00130129
-0.00203193
-0.00538602
-0.00863309
-0.0118627
-0.0149335
-0.017984
-0.0208311
-0.0236588
-0.0262273
-0.0287706
-0.0309871
-0.0331684
-0.0349497
-0.0366878
-0.0379536
-0.0391759
-0.0398594
-0.040511
-0.0405655
-0.0406147
-0.0400175
-0.0394586
-0.0382112
-0.0370636
-0.0351901
-0.0334958
-0.0310384
-0.0288582
-0.0258739
-0.0232851
-0.0198437