/*--------------------------------*- C++ -*----------------------------------*\
| =========                 |                                                 |
| \\      /  F ield         | OpenFOAM: The Open Source CFD Toolbox           |
|  \\    /   O peration     | Version:  2406                                  |
|   \\  /    A nd           | Website:  www.openfoam.com                      |
|    \\/     M anipulation  |                                                 |
\*---------------------------------------------------------------------------*/
FoamFile
{
    version     2.0;
    format      ascii;
    arch        "LSB;label=32;scalar=64";
    class       volScalarField;
    location    "3.6";
    object      p;
}
// * * * * * * * * * * * * * * * * * * * * * * * * * * * * * * * * * * * * * //

dimensions      [0 2 -2 0 0 0 0];

internalField   nonuniform List<scalar> 
3600
(
0.00484612
0.00484187
0.00484123
0.00484108
0.00484568
0.00485242
0.00486332
0.00487674
0.00489372
0.00491335
0.0049362
0.00496177
0.00499035
0.00502166
0.00505582
0.00509266
0.00513222
0.00517434
0.00521901
0.00526609
0.0053155
0.00536709
0.00542075
0.0054763
0.00553358
0.0055924
0.00565254
0.00571377
0.00577586
0.00583852
0.00590148
0.00596445
0.00602712
0.00608916
0.00615026
0.00621009
0.00626833
0.00632466
0.00637878
0.0064304
0.00647926
0.0065251
0.00656775
0.00660699
0.00664273
0.00667482
0.00670328
0.00672795
0.00674905
0.00676635
0.00678029
0.00679046
0.00679765
0.00680105
0.00680206
0.0067992
0.00679509
0.00678752
0.00678159
0.00677514
0.00485034
0.00484605
0.00484698
0.00484779
0.00485335
0.00486048
0.00487167
0.00488513
0.00490214
0.0049217
0.00494448
0.00496994
0.00499841
0.00502958
0.0050636
0.00510028
0.00513964
0.00518156
0.005226
0.00527282
0.00532195
0.00537324
0.00542656
0.00548175
0.00553863
0.00559702
0.0056567
0.00571744
0.00577899
0.00584109
0.00590346
0.0059658
0.00602781
0.00608917
0.00614955
0.00620865
0.00626614
0.0063217
0.00637504
0.00642587
0.00647394
0.006519
0.00656088
0.00659937
0.0066344
0.00666578
0.00669359
0.00671764
0.00673818
0.00675496
0.00676848
0.00677828
0.00678529
0.00678861
0.00678995
0.00678765
0.00678487
0.00677875
0.00677494
0.00676855
0.00485099
0.00484507
0.00484607
0.00484654
0.00485232
0.00485942
0.00487076
0.00488423
0.00490129
0.00492086
0.00494367
0.00496914
0.00499762
0.0050288
0.00506283
0.00509952
0.00513892
0.00518086
0.00522534
0.00527221
0.00532139
0.00537275
0.00542614
0.00548142
0.0055384
0.00559689
0.00565669
0.00571755
0.00577924
0.00584148
0.00590399
0.00596647
0.00602861
0.0060901
0.00615061
0.00620981
0.00626737
0.00632299
0.00637635
0.00642717
0.0064752
0.00652017
0.00656192
0.00660024
0.00663505
0.00666619
0.00669371
0.00671745
0.00673766
0.00675408
0.00676726
0.00677668
0.00678338
0.00678632
0.00678743
0.00678472
0.00678181
0.00677495
0.00677094
0.00676251
0.0048508
0.00484378
0.00484522
0.00484571
0.00485197
0.00485923
0.00487082
0.00488435
0.00490152
0.0049211
0.00494393
0.00496939
0.00499788
0.00502904
0.00506308
0.00509976
0.00513916
0.00518111
0.0052256
0.00527249
0.00532171
0.0053731
0.00542654
0.00548188
0.00553893
0.00559749
0.00565737
0.00571832
0.0057801
0.00584242
0.00590502
0.00596757
0.00602978
0.0060913
0.00615182
0.006211
0.0062685
0.00632401
0.00637722
0.00642783
0.00647558
0.00652022
0.00656157
0.00659943
0.00663372
0.00666428
0.00669119
0.00671428
0.00673383
0.00674957
0.00676211
0.00677089
0.00677708
0.00677952
0.0067804
0.00677741
0.00677466
0.00676753
0.00676377
0.00675403
0.00484534
0.00483721
0.00483857
0.00483866
0.00484501
0.00485217
0.00486387
0.00487742
0.00489468
0.00491431
0.00493723
0.00496276
0.00499135
0.00502262
0.00505678
0.00509361
0.00513317
0.00517532
0.00522004
0.0052672
0.00531671
0.00536843
0.00542225
0.005478
0.0055355
0.00559456
0.00565497
0.00571648
0.00577885
0.00584179
0.00590502
0.00596821
0.00603106
0.00609321
0.00615433
0.00621408
0.0062721
0.00632806
0.00638164
0.00643252
0.00648046
0.00652517
0.00656648
0.00660418
0.0066382
0.00666837
0.0066948
0.00671731
0.00673621
0.00675124
0.00676305
0.00677105
0.00677651
0.00677817
0.00677838
0.00677457
0.00677123
0.0067631
0.00675881
0.00674777
0.00483683
0.00482814
0.00482962
0.00482958
0.00483613
0.00484333
0.00485519
0.00486881
0.00488619
0.00490589
0.00492892
0.00495454
0.00498325
0.00501465
0.00504897
0.00508598
0.00512577
0.00516817
0.00521318
0.00526066
0.00531055
0.00536269
0.00541698
0.00547324
0.00553131
0.00559098
0.00565205
0.00571426
0.00577736
0.00584106
0.00590506
0.00596904
0.00603266
0.00609557
0.00615741
0.00621781
0.00627642
0.00633288
0.00638686
0.00643802
0.00648609
0.00653079
0.00657194
0.00660931
0.00664287
0.00667243
0.00669813
0.00671977
0.00673775
0.00675176
0.00676256
0.00676951
0.00677401
0.0067747
0.00677414
0.00676952
0.00676567
0.00675687
0.00675229
0.00674063
0.00482313
0.00481398
0.00481541
0.00481514
0.00482172
0.00482887
0.00484081
0.00485446
0.00487196
0.00489176
0.00491494
0.00494072
0.00496963
0.00500126
0.00503585
0.00507317
0.00511332
0.00515613
0.00520161
0.00524962
0.00530011
0.00535293
0.00540796
0.00546504
0.005524
0.00558464
0.00564673
0.00571004
0.0057743
0.0058392
0.00590444
0.00596967
0.00603454
0.00609868
0.00616172
0.00622325
0.00628289
0.00634027
0.00639502
0.0064468
0.00649531
0.00654025
0.00658143
0.00661863
0.00665179
0.00668076
0.00670568
0.00672639
0.00674329
0.00675612
0.00676568
0.00677135
0.0067746
0.00677403
0.00677234
0.00676659
0.00676182
0.00675209
0.00674695
0.00673476
0.00480563
0.00479628
0.00479775
0.00479742
0.0048041
0.00481127
0.00482333
0.00483707
0.00485471
0.00487465
0.00489801
0.00492398
0.00495313
0.00498503
0.00501994
0.00505764
0.00509822
0.00514153
0.00518758
0.00523624
0.00528745
0.00534108
0.00539701
0.00545508
0.00551512
0.00557692
0.00564027
0.00570491
0.00577056
0.00583692
0.00590366
0.00597041
0.0060368
0.00610244
0.00616691
0.0062298
0.00629069
0.00634917
0.00640485
0.00645735
0.00650635
0.00655153
0.0065927
0.00662962
0.00666225
0.00669042
0.00671432
0.0067338
0.00674933
0.00676065
0.00676865
0.00677271
0.00677441
0.00677234
0.00676931
0.00676233
0.00675659
0.00674604
0.00674041
0.00672797
0.00478325
0.00477371
0.00477516
0.00477474
0.00478145
0.00478863
0.00480078
0.0048146
0.00483238
0.00485248
0.00487605
0.00490227
0.00493171
0.00496396
0.00499928
0.00503745
0.00507859
0.00512253
0.0051693
0.00521878
0.00527092
0.00532557
0.00538265
0.00544197
0.00550339
0.00556668
0.00563163
0.00569797
0.00576542
0.00583365
0.00590231
0.00597102
0.00603939
0.00610698
0.00617334
0.00623803
0.00630059
0.00636055
0.00641751
0.00647103
0.00652077
0.00656639
0.00660766
0.00664434
0.00667641
0.0067037
0.00672643
0.00674448
0.00675836
0.00676789
0.00677399
0.00677611
0.00677591
0.00677199
0.00676728
0.00675878
0.00675178
0.00674022
0.00673395
0.00672124
0.00475674
0.0047471
0.00474859
0.00474814
0.00475493
0.00476215
0.00477442
0.00478836
0.00480631
0.00482658
0.00485039
0.00487688
0.00490667
0.0049393
0.00497509
0.0050138
0.00505556
0.00510022
0.00514782
0.00519824
0.00525143
0.00530728
0.00536567
0.00542645
0.00548946
0.00555449
0.0056213
0.00568963
0.00575918
0.00582961
0.00590055
0.00597158
0.00604229
0.00611219
0.00618082
0.00624765
0.00631219
0.00637394
0.00643242
0.00648716
0.00653778
0.0065839
0.00662528
0.00666166
0.00669301
0.00671921
0.00674048
0.00675676
0.00676864
0.00677596
0.00677976
0.00677953
0.00677703
0.00677094
0.00676424
0.00675401
0.00674559
0.00673299
0.00672604
0.00671314
0.00472552
0.00471577
0.00471726
0.00471678
0.00472361
0.00473088
0.00474325
0.00475729
0.00477541
0.00479589
0.00481996
0.00484675
0.0048769
0.00490998
0.00494629
0.00498561
0.00502809
0.00507357
0.00512213
0.00517362
0.00522804
0.00528526
0.00534519
0.00540767
0.00547254
0.0055396
0.00560861
0.00567929
0.00575134
0.00582438
0.00589804
0.00597187
0.0060454
0.00611811
0.00618948
0.00625894
0.00632593
0.00638988
0.00645027
0.00650656
0.00655831
0.00660511
0.00664668
0.00668276
0.00671332
0.00673823
0.00675779
0.00677198
0.00678145
0.00678614
0.00678718
0.00678415
0.0067789
0.0067702
0.00676112
0.00674882
0.00673869
0.00672485
0.00671709
0.00670398
0.00468998
0.00468013
0.00468164
0.00468115
0.00468805
0.00469537
0.00470786
0.00472203
0.00474032
0.00476101
0.00478534
0.00481245
0.004843
0.00487653
0.00491341
0.00495338
0.00499663
0.00504301
0.0050926
0.00514528
0.00520105
0.00525979
0.00532143
0.0053858
0.00545277
0.00552211
0.00559361
0.00566697
0.00574187
0.00581792
0.00589472
0.00597178
0.00604859
0.00612459
0.00619918
0.00627174
0.00634162
0.0064082
0.00647086
0.006529
0.00658211
0.00662973
0.00667154
0.00670725
0.00673684
0.00676021
0.0067777
0.00678936
0.00679594
0.00679746
0.00679518
0.0067888
0.00678028
0.00676851
0.00675663
0.00674195
0.00672985
0.00671464
0.00670598
0.0066927
0.00464976
0.0046398
0.00464131
0.0046408
0.00464775
0.00465512
0.0046677
0.00468199
0.00470045
0.00472134
0.00474594
0.00477337
0.00480432
0.00483834
0.0048758
0.00491647
0.00496054
0.00500789
0.00505859
0.00511256
0.0051698
0.00523022
0.00529374
0.00536022
0.00542953
0.00550145
0.00557575
0.00565215
0.00573031
0.00580982
0.00589024
0.00597105
0.0060517
0.00613155
0.00620994
0.00628617
0.00635952
0.00642925
0.00649465
0.00655505
0.00660984
0.00665849
0.00670064
0.00673596
0.00676443
0.00678599
0.00680102
0.00680967
0.00681278
0.00681053
0.00680428
0.00679392
0.0067815
0.00676611
0.00675093
0.00673346
0.00671906
0.00670227
0.00669256
0.00667911
0.00460505
0.00459498
0.0045965
0.00459596
0.00460296
0.00461037
0.00462305
0.00463744
0.00465607
0.00467714
0.00470199
0.00472974
0.00476108
0.00479558
0.00483363
0.004875
0.00491991
0.00496826
0.00502013
0.00507546
0.00513426
0.00519647
0.00526202
0.00533079
0.00540265
0.0054774
0.00555481
0.00563459
0.0057164
0.0057998
0.00588433
0.00596943
0.00605447
0.00613878
0.00622159
0.00630212
0.00637953
0.00645299
0.00652166
0.00658476
0.00664158
0.00669149
0.00673407
0.00676894
0.00679609
0.00681547
0.00682755
0.00683259
0.00683154
0.00682477
0.00681379
0.00679869
0.00678166
0.006762
0.00674296
0.00672228
0.00670523
0.00668669
0.00667579
0.00666222
0.00455563
0.00454544
0.00454695
0.00454638
0.00455341
0.00456084
0.00457359
0.00458806
0.00460681
0.00462805
0.00465313
0.00468116
0.00471287
0.00474783
0.00478645
0.00482852
0.00487428
0.00492364
0.00497671
0.00503344
0.00509389
0.00515799
0.0052257
0.00529693
0.00537155
0.00544939
0.00553022
0.00561374
0.00569961
0.00578739
0.00587656
0.00596653
0.00605662
0.00614606
0.00623401
0.00631957
0.00640178
0.00647966
0.00655225
0.00661861
0.0066779
0.00672938
0.00677252
0.00680692
0.00683252
0.00684933
0.00685789
0.0068586
0.00685258
0.0068404
0.00682377
0.00680304
0.00678055
0.00675588
0.00673232
0.00670793
0.00668782
0.0066673
0.00665504
0.00664141
0.00450157
0.00449126
0.00449277
0.00449214
0.00449919
0.00450662
0.00451941
0.00453393
0.00455277
0.00457414
0.00459939
0.00462766
0.00465969
0.00469507
0.00473422
0.00477696
0.00482353
0.00487388
0.00492815
0.00498631
0.00504843
0.00511448
0.00518446
0.00525827
0.00533584
0.00541699
0.00550151
0.00558913
0.00567947
0.00577209
0.00586646
0.00596192
0.00605774
0.00615307
0.00624695
0.00633835
0.00642618
0.00650929
0.00658654
0.00665682
0.00671911
0.00677252
0.0068164
0.00685027
0.00687404
0.0068878
0.00689213
0.00688765
0.00687564
0.00685698
0.00683359
0.00680617
0.00677722
0.00674669
0.00671787
0.00668923
0.00666563
0.00664292
0.00662915
0.00661555
0.00444275
0.0044323
0.00443379
0.00443309
0.00444013
0.00444753
0.00446032
0.00447484
0.00449372
0.00451515
0.00454053
0.00456897
0.00460126
0.00463699
0.0046766
0.00471994
0.00476728
0.00481857
0.004874
0.00493357
0.00499737
0.0050654
0.0051377
0.00521421
0.00529487
0.00537953
0.00546802
0.00556006
0.00565529
0.00575326
0.0058534
0.00595503
0.00605733
0.00615937
0.00626008
0.00635828
0.0064527
0.006542
0.00662482
0.00669981
0.00676576
0.00682158
0.00686643
0.00689975
0.0069214
0.00693151
0.00693078
0.00692004
0.00690083
0.00687439
0.00684291
0.00680755
0.00677097
0.00673359
0.00669868
0.00666519
0.00663763
0.00661252
0.00659706
0.00658362
0.0043792
0.0043686
0.00437006
0.00436927
0.00437627
0.0043836
0.00439635
0.00441082
0.00442967
0.00445109
0.0044765
0.00450504
0.00453749
0.00457347
0.00461345
0.00465729
0.00470529
0.00475745
0.00481396
0.00487487
0.0049403
0.0050103
0.00508494
0.00516419
0.00524804
0.00533639
0.00542907
0.00552583
0.00562634
0.00573014
0.00583664
0.00594513
0.00605473
0.00616439
0.00627293
0.00637901
0.00648113
0.00657773
0.00666719
0.00674789
0.00681831
0.00687711
0.00692326
0.00695601
0.00697518
0.00698093
0.0069741
0.00695582
0.00692792
0.00689212
0.00685095
0.00680614
0.00676057
0.00671523
0.0066733
0.00663434
0.00660233
0.00657464
0.00655734
0.00654427
0.00431081
0.00430006
0.00430147
0.00430057
0.00430749
0.00431469
0.00432734
0.00434168
0.00436043
0.00438175
0.00440711
0.00443562
0.00446812
0.00450423
0.00454445
0.00458866
0.0046372
0.00469009
0.00474756
0.0048097
0.00487668
0.00494857
0.00502551
0.00510751
0.0051946
0.00528673
0.00538379
0.00548554
0.0055917
0.0057018
0.00581527
0.00593135
0.00604909
0.00616738
0.00628488
0.00640004
0.00651117
0.00661641
0.0067138
0.0068014
0.00687731
0.00693987
0.00698772
0.00701995
0.00703622
0.00703678
0.00702261
0.00699521
0.00695678
0.0069097
0.00685691
0.00680088
0.00674473
0.00669018
0.00664022
0.00659515
0.00655819
0.00652781
0.00650854
0.00649611
0.00423762
0.00422673
0.00422807
0.00422702
0.00423383
0.00424085
0.00425333
0.00426746
0.00428601
0.00430713
0.0043323
0.00436066
0.00439306
0.00442914
0.00446944
0.00451385
0.00456275
0.00461619
0.00467445
0.00473764
0.004806
0.00487966
0.00495878
0.00504345
0.00513377
0.00522972
0.00533126
0.00543822
0.00555032
0.00566717
0.00578818
0.00591257
0.00603937
0.00616735
0.00629502
0.00642066
0.00654228
0.00665771
0.00676459
0.00686055
0.00694324
0.00701053
0.00706067
0.00709246
0.00710538
0.00709974
0.00707668
0.0070382
0.006987
0.00692627
0.00685953
0.00679019
0.00672164
0.00665649
0.00659742
0.00654563
0.00650331
0.00647019
0.00644888
0.00643747
0.00415956
0.00414851
0.00414976
0.00414853
0.00415517
0.00416196
0.00417417
0.00418801
0.00420625
0.00422703
0.00425188
0.00427994
0.00431207
0.00434794
0.00438812
0.00443252
0.00448156
0.00453532
0.00459414
0.00465816
0.00472768
0.00480289
0.00488401
0.0049712
0.00506462
0.00516435
0.00527039
0.00538267
0.00550096
0.00562492
0.005754
0.00588743
0.00602419
0.00616298
0.00630218
0.00643983
0.00657366
0.0067011
0.00681934
0.00692546
0.00701653
0.00708984
0.00714307
0.00717462
0.00718369
0.00717064
0.0071368
0.00708483
0.00701805
0.00694078
0.00685725
0.00677212
0.00668908
0.00661183
0.00654259
0.00648357
0.00643555
0.00639983
0.00637648
0.00636658
0.00407671
0.0040655
0.00406664
0.0040652
0.00407161
0.00407809
0.00408996
0.00410339
0.00412119
0.0041415
0.00416586
0.00419342
0.00422508
0.00426052
0.00430033
0.00434447
0.00439337
0.00444717
0.00450624
0.00457079
0.00464117
0.00471762
0.00480046
0.00488991
0.00498622
0.00508954
0.0052
0.00531759
0.0054422
0.00557354
0.00571114
0.00585426
0.00600187
0.00615262
0.00630475
0.0064561
0.00660406
0.00674564
0.00687748
0.00699598
0.00709746
0.00717844
0.00723586
0.00726753
0.00727222
0.0072503
0.00720334
0.00713484
0.00704897
0.00695156
0.0068478
0.00674397
0.0066441
0.00655322
0.0064728
0.00640626
0.00635243
0.00631446
0.00628921
0.00628145
0.00398897
0.00397759
0.0039786
0.00397689
0.00398302
0.0039891
0.00400054
0.00401344
0.00403066
0.00405034
0.00407403
0.0041009
0.00413187
0.00416663
0.0042058
0.00424937
0.00429783
0.00435132
0.00441029
0.004475
0.00454584
0.00462315
0.00470731
0.00479864
0.00489748
0.0050041
0.00511873
0.00524149
0.00537238
0.00551122
0.00565764
0.00581099
0.00597027
0.00613409
0.00630062
0.00646747
0.00663172
0.00678989
0.00693796
0.00707155
0.007186
0.00727684
0.00733996
0.00737233
0.0073721
0.00733957
0.00727656
0.00718769
0.00707829
0.00695625
0.00682807
0.00670212
0.00658287
0.00647688
0.00638454
0.00631052
0.00625113
0.00621159
0.00618479
0.00617998
0.00389651
0.00388498
0.00388582
0.00388382
0.0038896
0.00389521
0.00390609
0.00391833
0.00393482
0.00395368
0.0039765
0.00400243
0.00403244
0.00406623
0.00410445
0.0041471
0.00419472
0.00424751
0.00430594
0.00437033
0.00444115
0.00451881
0.00460377
0.00469647
0.00479734
0.00490678
0.00502515
0.00515272
0.00528964
0.00543589
0.00559124
0.00575516
0.00592676
0.00610468
0.00628702
0.00647125
0.00665411
0.00683163
0.00699903
0.00715097
0.0072816
0.00738512
0.007456
0.00749002
0.00748434
0.00743907
0.0073563
0.00724214
0.00710356
0.00695123
0.0067935
0.00664153
0.00650022
0.00637792
0.00627342
0.00619263
0.00612849
0.00608858
0.00606085
0.00606003
0.00379921
0.00378749
0.00378815
0.00378579
0.00379114
0.00379618
0.0038064
0.00381785
0.00383345
0.00385131
0.00387304
0.0038978
0.00392658
0.00395908
0.003996
0.00403736
0.00408373
0.00413534
0.00419272
0.00425626
0.00432649
0.00440388
0.004489
0.00458239
0.0046846
0.00479618
0.00491765
0.00504943
0.00519187
0.00534516
0.00550925
0.0056838
0.0058681
0.00606089
0.00626032
0.00646376
0.00666767
0.00686755
0.00705783
0.00723204
0.00738284
0.00750268
0.00758413
0.0076212
0.00760962
0.00754899
0.00744173
0.00729587
0.00712075
0.00693093
0.00673742
0.00655502
0.00638911
0.00624996
0.00613395
0.00604811
0.00598091
0.00594253
0.00591494
0.0059194
0.00369739
0.00368551
0.00368594
0.00368319
0.00368805
0.00369243
0.00370187
0.00371237
0.00372689
0.00374353
0.00376392
0.00378722
0.00381445
0.00384531
0.00388052
0.00392014
0.00396476
0.00401466
0.00407042
0.00413246
0.00420139
0.00427777
0.00436225
0.00445548
0.00455816
0.00467097
0.0047946
0.0049297
0.00507682
0.00523638
0.00540862
0.00559346
0.00579042
0.0059985
0.00621596
0.00644021
0.00666751
0.00689292
0.00711001
0.00731102
0.00748682
0.00762762
0.00772338
0.00776558
0.00774773
0.00766849
0.0075305
0.00734442
0.00712307
0.00688653
0.0066497
0.00643217
0.00623975
0.00608457
0.00595935
0.00587182
0.00580463
0.00577072
0.00574495
0.00575625
0.0035908
0.00357872
0.00357889
0.00357568
0.00357997
0.00358359
0.00359212
0.00360153
0.00361481
0.00363003
0.00364885
0.00367043
0.00369578
0.00372465
0.00375775
0.00379517
0.00383753
0.00388514
0.00393862
0.00399845
0.0040653
0.00413979
0.00422269
0.00431474
0.00441678
0.00452966
0.00465424
0.0047914
0.00494193
0.00510656
0.00528583
0.00548003
0.00568903
0.00591219
0.00614806
0.00639423
0.00664694
0.00690091
0.00714892
0.00738181
0.00758833
0.00775584
0.00787079
0.00792099
0.0078966
0.00779446
0.00761739
0.00737954
0.00709899
0.00680378
0.00651469
0.00625755
0.00603831
0.00587044
0.00574102
0.00565769
0.0055955
0.00557039
0.00554894
0.00556892
0.00348003
0.00346778
0.00346767
0.00346398
0.00346763
0.00347039
0.00347788
0.00348603
0.00349786
0.00351142
0.00352838
0.00354791
0.00357102
0.00359747
0.003628
0.00366269
0.0037022
0.00374686
0.00379732
0.00385412
0.00391797
0.00398957
0.00406977
0.00415942
0.00425948
0.00437097
0.00449493
0.00463247
0.00478468
0.00495259
0.00513714
0.00533902
0.00555862
0.00579575
0.00604949
0.00631779
0.00659714
0.00688212
0.00716488
0.00743488
0.00767847
0.00787949
0.00801974
0.0080817
0.00805041
0.00791951
0.00769173
0.00738613
0.00702889
0.00665971
0.00630823
0.00600845
0.00576553
0.00559296
0.00546884
0.00539955
0.00535018
0.00534008
0.00532651
0.00535717
0.00336458
0.0033521
0.00335166
0.00334741
0.00335033
0.00335214
0.00335847
0.00336524
0.00337546
0.00338716
0.00340205
0.00341925
0.00343981
0.00346346
0.00349097
0.00352242
0.00355849
0.00359953
0.00364621
0.0036991
0.00375897
0.00382657
0.00390281
0.00398865
0.00408516
0.0041935
0.00431492
0.00445073
0.00460232
0.00477106
0.0049583
0.00516527
0.00539289
0.00564167
0.00591134
0.00620054
0.0065063
0.00682344
0.00714379
0.00745559
0.00774265
0.00798457
0.00815702
0.00823497
0.00819582
0.00802798
0.00773373
0.00733889
0.00688211
0.00642017
0.00599599
0.00565391
0.0053965
0.00523446
0.0051316
0.00509151
0.00506611
0.00507947
0.0050784
0.00512171
0.0032455
0.00323284
0.00323207
0.00322725
0.0032294
0.00323016
0.00323521
0.0032404
0.00324879
0.00325838
0.00327088
0.0032854
0.003303
0.0033234
0.00334736
0.00337499
0.00340695
0.0034436
0.00348564
0.00353365
0.00358843
0.00365077
0.00372164
0.00380205
0.0038932
0.00399633
0.00411288
0.00424436
0.00439241
0.00455878
0.00474523
0.00495352
0.00518525
0.00544168
0.00572344
0.00603011
0.00635964
0.00670755
0.00706588
0.00742203
0.00775742
0.00804682
0.00825816
0.00835591
0.00830653
0.00809078
0.0077109
0.00720218
0.00662086
0.00604692
0.00554205
0.00516344
0.00490842
0.00478098
0.00472272
0.00473307
0.00474586
0.00479306
0.00480969
0.00486689
0.00312175
0.00310881
0.00310764
0.00310215
0.00310345
0.00310308
0.00310676
0.00311029
0.00311674
0.00312407
0.003134
0.00314562
0.00315997
0.00317677
0.00319677
0.00322006
0.0032473
0.00327886
0.00331542
0.00335757
0.00340613
0.00346189
0.00352586
0.0035991
0.00368284
0.00377843
0.00388741
0.00401147
0.00415247
0.00431244
0.00449355
0.00469808
0.0049283
0.00518628
0.00547369
0.00579128
0.00613829
0.00651148
0.00690371
0.00730225
0.00768644
0.00802564
0.00827809
0.00839498
0.00833031
0.00805726
0.00757884
0.00694176
0.00622407
0.00553173
0.00494762
0.00454382
0.00431063
0.00424325
0.00425302
0.0043358
0.00439963
0.00449068
0.00452868
0.00459915
0.00299519
0.00298207
0.00298054
0.00297441
0.00297483
0.00297325
0.00297544
0.00297712
0.0029814
0.0029862
0.00299324
0.00300158
0.00301226
0.00302498
0.00304047
0.0030588
0.00308063
0.00310628
0.00313644
0.00317167
0.00321277
0.00326053
0.00331596
0.00338009
0.00345419
0.00353964
0.00363802
0.00375109
0.00388088
0.00402961
0.00419976
0.00439402
0.00461521
0.00486618
0.00514957
0.00546738
0.00582031
0.0062067
0.00662085
0.00705059
0.00747357
0.00785306
0.00813546
0.00825709
0.00816093
0.00781796
0.00724326
0.00650106
0.00568636
0.0049207
0.00429687
0.00389517
0.00369809
0.0036996
0.00378102
0.00394363
0.00405738
0.00419527
0.00425203
0.00433095
0.00286379
0.00285029
0.0028483
0.00284139
0.00284086
0.00283803
0.0028387
0.00283854
0.00284064
0.00284287
0.00284694
0.00285188
0.00285873
0.00286711
0.00287776
0.0028907
0.00290656
0.00292564
0.00294858
0.00297591
0.00300838
0.00304674
0.00309195
0.00314501
0.00320713
0.00327964
0.0033641
0.00346226
0.00357614
0.00370803
0.00386051
0.00403648
0.00423909
0.00447166
0.00473752
0.00503964
0.00537998
0.00575838
0.00617056
0.00660472
0.00703532
0.00741483
0.00767085
0.00772301
0.00751625
0.00704382
0.00635311
0.00554699
0.00475179
0.00408106
0.00359104
0.00332476
0.00322951
0.0033076
0.00343029
0.00364135
0.00377045
0.00394046
0.0039985
0.00407465
0.0027308
0.00271711
0.00271476
0.00270718
0.00270573
0.0027016
0.00270065
0.00269844
0.0026981
0.00269746
0.00269823
0.00269939
0.00270196
0.00270552
0.0027108
0.00271775
0.00272697
0.0027387
0.00275351
0.00277188
0.00279448
0.002822
0.00285527
0.00289521
0.00294291
0.00299957
0.00306661
0.00314562
0.00323848
0.00334731
0.00347453
0.00362291
0.00379546
0.00399546
0.00422623
0.00449086
0.0047915
0.00512819
0.00549633
0.00588098
0.00624484
0.00651236
0.00657059
0.00631079
0.00569392
0.00478973
0.00379014
0.00292545
0.00234758
0.0021212
0.00219577
0.00248419
0.00280898
0.00313687
0.00332855
0.00354154
0.00360787
0.00376905
0.00378869
0.00384295
0.00259234
0.00257811
0.00257523
0.00256679
0.00256439
0.00255897
0.00255649
0.00255238
0.00254979
0.00254643
0.00254404
0.00254149
0.0025398
0.00253849
0.00253823
0.00253893
0.00254113
0.00254498
0.002551
0.00255956
0.00257125
0.00258661
0.00260635
0.00263124
0.00266215
0.00270009
0.00274619
0.00280175
0.00286826
0.00294744
0.00304119
0.00315163
0.00328104
0.00343177
0.00360599
0.00380529
0.00402987
0.00427679
0.00453553
0.00477607
0.00492185
0.00481996
0.00425673
0.00308463
0.00140178
-0.000453235
-0.00204057
-0.00301829
-0.00321126
-0.00260467
-0.00138404
0.000174072
0.00164262
0.00279442
0.0033783
0.00366657
0.00360515
0.00370286
0.00362238
0.00363108
0.00245419
0.00243978
0.00243661
0.00242754
0.00242427
0.00241756
0.00241343
0.00240718
0.00240203
0.0023956
0.00238964
0.00238296
0.00237656
0.0023699
0.0023636
0.0023575
0.00235206
0.00234734
0.00234378
0.00234161
0.00234129
0.0023432
0.00234787
0.00235582
0.00236766
0.00238408
0.00240582
0.0024337
0.00246862
0.00251155
0.00256345
0.00262525
0.00269766
0.00278094
0.00287441
0.00297575
0.00307936
0.00317306
0.00322812
0.00317189
0.0028328
0.00189992
2.04842e-05
-0.00284811
-0.00622941
-0.00943008
-0.011814
-0.0129934
-0.0128043
-0.0112629
-0.00860855
-0.00521008
-0.00173191
0.001223
0.00301107
0.00383924
0.00371473
0.00370383
0.00346647
0.00340926
0.00230906
0.00229382
0.00229008
0.0022801
0.00227597
0.0022681
0.00226264
0.00225468
0.00224745
0.00223844
0.00222938
0.00221899
0.00220822
0.00219645
0.00218425
0.00217137
0.00215819
0.00214468
0.00213115
0.0021177
0.00210463
0.00209213
0.00208048
0.00206994
0.00206077
0.00205323
0.00204755
0.00204392
0.0020424
0.0020429
0.00204499
0.00204779
0.00204948
0.00204693
0.0020346
0.00200309
0.0019359
0.00180215
0.0015353
0.000979199
-0.000197745
-0.00251358
-0.00636407
-0.0114043
-0.0166072
-0.0210259
-0.0240471
-0.0253796
-0.0249525
-0.0227967
-0.0191206
-0.0141444
-0.00852057
-0.00301317
0.00114982
0.00342369
0.00379135
0.00365653
0.00323276
0.00310647
0.00216727
0.00215189
0.00214803
0.00213756
0.00213277
0.00212374
0.00211677
0.00210673
0.00209698
0.00208487
0.00207218
0.00205754
0.00204188
0.0020245
0.0020059
0.00198574
0.00196431
0.00194146
0.00191736
0.00189194
0.00186532
0.00183746
0.00180835
0.00177793
0.00174604
0.00171246
0.00167676
0.00163836
0.00159626
0.00154905
0.00149449
0.00142928
0.00134823
0.00124349
0.00110255
0.000905637
0.000619536
0.00018374
-0.000527071
-0.00178649
-0.00411432
-0.00819047
-0.0142208
-0.0212203
-0.0276938
-0.0327433
-0.0359692
-0.0372416
-0.0366338
-0.0341988
-0.0301905
-0.0246081
-0.0178939
-0.0103363
-0.00338528
0.00148586
0.00344924
0.00336425
0.00277295
0.00263265
0.00201528
0.00199859
0.00199414
0.00198272
0.00197738
0.00196754
0.00195976
0.00194855
0.00193729
0.00192314
0.00190785
0.00188991
0.00187021
0.00184794
0.00182354
0.00179656
0.00176721
0.00173521
0.00170058
0.00166312
0.00162269
0.00157906
0.00153189
0.00148077
0.00142506
0.00136401
0.00129646
0.00122094
0.00113525
0.00103645
0.000920133
0.000780196
0.000607342
0.000388023
0.000101151
-0.000285951
-0.00082767
-0.00162137
-0.00286203
-0.0049458
-0.00855514
-0.0144079
-0.0223163
-0.0306648
-0.037771
-0.0430007
-0.0461927
-0.0472868
-0.0464214
-0.0436788
-0.039516
-0.0338749
-0.0271982
-0.0190529
-0.0104345
-0.00265095
0.00174543
0.00291405
0.00190549
0.00193598
0.00187163
0.0018549
0.00185064
0.00183906
0.00183344
0.00182277
0.00181379
0.00180075
0.00178721
0.00177016
0.00175142
0.00172937
0.00170491
0.00167711
0.00164635
0.00161207
0.00157434
0.00153279
0.00148725
0.00143735
0.00138271
0.00132284
0.00125707
0.00118462
0.00110434
0.00101492
0.000914387
0.000800382
0.00066935
0.000516783
0.000335923
0.000117674
-0.000151696
-0.000491831
-0.000933065
-0.00152187
-0.00233494
-0.00350692
-0.00529686
-0.0081994
-0.0129943
-0.0203306
-0.0296171
-0.038829
-0.0463345
-0.0517877
-0.0551382
-0.0561923
-0.0550312
-0.0517227
-0.0470579
-0.0411201
-0.0346962
-0.0268903
-0.0181508
-0.0087365
-0.00143727
0.00192569
0.000907458
0.000995034
0.00171143
0.00169258
0.00168771
0.0016752
0.00166963
0.00165888
0.00165013
0.00163699
0.00162311
0.00160513
0.00158488
0.00156053
0.00153292
0.00150104
0.00146517
0.00142467
0.00137948
0.00132913
0.00127331
0.00121149
0.00114304
0.00106726
0.000983104
0.000889493
0.000784701
0.000666937
0.000533361
0.000380793
0.000204278
-2.16008e-06
-0.000247684
-0.000544156
-0.00090975
-0.00136966
-0.00196313
-0.00274873
-0.00382289
-0.00534924
-0.00763157
-0.0112177
-0.0169151
-0.0252784
-0.0354745
-0.0453172
-0.0532915
-0.0592029
-0.0629938
-0.0642001
-0.062809
-0.0587999
-0.0533217
-0.0466579
-0.0401347
-0.032755
-0.0248313
-0.0152598
-0.00588308
-0.000589974
0.000561147
-0.000460899
0.00156804
0.00154941
0.00154531
0.00153319
0.00152803
0.00151699
0.00150757
0.00149303
0.00147729
0.00145679
0.00143351
0.00140547
0.00137354
0.00133656
0.00129478
0.00124743
0.0011943
0.00113483
0.00106849
0.000994639
0.000912328
0.000820705
0.000718284
0.000603744
0.000474759
0.000329143
0.000163163
-2.70331e-05
-0.000247789
-0.000506283
-0.000813956
-0.00118491
-0.00164128
-0.00221259
-0.00294527
-0.00390652
-0.00520616
-0.00702323
-0.00967822
-0.0137212
-0.019931
-0.0288048
-0.0394881
-0.0498168
-0.0583291
-0.0647838
-0.0690907
-0.0705106
-0.0690033
-0.0643769
-0.0580817
-0.0505458
-0.0436237
-0.0364634
-0.0295638
-0.0207068
-0.0111489
-0.00380692
1.56987e-05
-0.00242501
0.0013962
0.00137402
0.00136936
0.00135644
0.00135246
0.00134271
0.00133535
0.00132261
0.00130854
0.00128905
0.00126611
0.00123752
0.00120405
0.00116448
0.00111894
0.00106668
0.00100729
0.000940208
0.000864657
0.000780015
0.000684984
0.000578675
0.000459109
0.000324887
0.000173009
1.12426e-06
-0.000195472
-0.000420956
-0.000683121
-0.00098976
-0.00135455
-0.00179272
-0.00232993
-0.00299764
-0.00384778
-0.00495017
-0.00642141
-0.00843818
-0.0113123
-0.0155461
-0.0218527
-0.0307049
-0.0414309
-0.0520207
-0.0610001
-0.0678806
-0.0725783
-0.0741592
-0.0726647
-0.0676636
-0.0608151
-0.0525771
-0.0452278
-0.0381391
-0.0321286
-0.0244242
-0.0159606
-0.00715032
-0.00227175
-0.00424693
0.00125584
0.00123445
0.00123157
0.00122003
0.00121754
0.00120826
0.00120099
0.00118739
0.00117202
0.00115051
0.00112508
0.00109339
0.00105626
0.00101233
0.000961626
0.000903385
0.000836973
0.000761817
0.000676802
0.000581377
0.000473792
0.00035325
0.000217161
6.42391e-05
-0.000109326
-0.000305753
-0.000530845
-0.000788662
-0.00108852
-0.0014381
-0.00185322
-0.00234897
-0.00295389
-0.00369879
-0.00463889
-0.00584066
-0.00742071
-0.00953756
-0.0124747
-0.0166483
-0.0226783
-0.0310023
-0.0412605
-0.0517211
-0.0609272
-0.0679931
-0.0728578
-0.0744578
-0.0730273
-0.0679139
-0.0609173
-0.0524152
-0.0449353
-0.0379597
-0.0326988
-0.0262126
-0.0192843
-0.0101538
-0.00470302
-0.00481277
0.00106523
0.00103789
0.00103462
0.00102265
0.0010234
0.0010179
0.0010158
0.00100721
0.000996749
0.000979396
0.000957156
0.00092761
0.000891369
0.000847189