/*--------------------------------*- C++ -*----------------------------------*\
| =========                 |                                                 |
| \\      /  F ield         | OpenFOAM: The Open Source CFD Toolbox           |
|  \\    /   O peration     | Version:  2406                                  |
|   \\  /    A nd           | Website:  www.openfoam.com                      |
|    \\/     M anipulation  |                                                 |
\*---------------------------------------------------------------------------*/
FoamFile
{
    version     2.0;
    format      ascii;
    arch        "LSB;label=32;scalar=64";
    class       volVectorField;
    location    "44.55";
    object      U;
}
// * * * * * * * * * * * * * * * * * * * * * * * * * * * * * * * * * * * * * //

dimensions      [0 1 -1 0 0 0 0];

internalField   nonuniform List<vector> 
14400
(
(-1.83308e-05 1.82844e-05 0)
(-3.04279e-06 -1.06128e-05 0)
(0.000105367 -4.2603e-05 0)
(0.000293964 -7.12569e-05 0)
(0.000551463 -8.84968e-05 0)
(0.000844338 -9.81992e-05 0)
(0.00115707 -9.93183e-05 0)
(0.00146299 -9.49119e-05 0)
(0.00175083 -8.55096e-05 0)
(0.00200499 -7.35055e-05 0)
(0.00222135 -5.99568e-05 0)
(0.00239509 -4.6623e-05 0)
(0.002529 -3.43729e-05 0)
(0.002626 -2.41748e-05 0)
(0.00269302 -1.63446e-05 0)
(0.00273641 -1.10725e-05 0)
(0.00276356 -8.10439e-06 0)
(0.00278024 -7.05281e-06 0)
(0.00279126 -7.29304e-06 0)
(0.00279914 -8.16637e-06 0)
(0.00280462 -8.97342e-06 0)
(0.00280621 -9.10696e-06 0)
(0.00280084 -8.063e-06 0)
(0.00278395 -5.49897e-06 0)
(0.00275014 -1.21078e-06 0)
(0.0026934 4.88012e-06 0)
(0.00260755 1.27823e-05 0)
(0.00248628 2.24755e-05 0)
(0.0023233 3.39548e-05 0)
(0.00211227 4.72494e-05 0)
(0.00184671 6.24273e-05 0)
(0.00151998 7.95808e-05 0)
(0.00112523 9.88068e-05 0)
(0.000655533 0.000120183 0)
(0.000103925 0.00014375 0)
(-0.000536367 0.000169493 0)
(-0.00127173 0.000197338 0)
(-0.00210792 0.000227139 0)
(-0.00304984 0.000258677 0)
(-0.00410121 0.000291656 0)
(-0.0052644 0.0003257 0)
(-0.00654009 0.000360359 0)
(-0.00792709 0.000395106 0)
(-0.00942215 0.000429349 0)
(-0.0110197 0.000462435 0)
(-0.0127119 0.000493666 0)
(-0.0144884 0.000522309 0)
(-0.0163364 0.000547606 0)
(-0.0182406 0.000568794 0)
(-0.0201837 0.000585114 0)
(-0.0221459 0.000595824 0)
(-0.0241054 0.000600211 0)
(-0.026039 0.000597599 0)
(-0.0279216 0.000587361 0)
(-0.029727 0.000568929 0)
(-0.0314284 0.000541803 0)
(-0.0329979 0.000505571 0)
(-0.034408 0.000459925 0)
(-0.0356311 0.000404679 0)
(-0.0366403 0.000339799 0)
(-0.0374099 0.000265429 0)
(-0.037916 0.000181922 0)
(-0.0381367 8.9867e-05 0)
(-0.0380533 -9.87734e-06 0)
(-0.0376502 -0.000116161 0)
(-0.0369161 -0.000227526 0)
(-0.0358446 -0.000342195 0)
(-0.0344347 -0.000458086 0)
(-0.0326912 -0.000572828 0)
(-0.0306256 -0.000683811 0)
(-0.0282563 -0.000788252 0)
(-0.0256086 -0.000883278 0)
(-0.0227149 -0.00096604 0)
(-0.0196143 -0.00103383 0)
(-0.0163521 -0.00108424 0)
(-0.0129791 -0.00111527 0)
(-0.00954986 -0.00112548 0)
(-0.00612201 -0.0011141 0)
(-0.0027541 -0.00108115 0)
(0.000496062 -0.00102741 0)
(0.00357337 -0.000954513 0)
(0.00642725 -0.00086482 0)
(0.00901351 -0.000761354 0)
(0.0112958 -0.000647634 0)
(0.0132468 -0.000527496 0)
(0.0148491 -0.000404882 0)
(0.0160954 -0.000283628 0)
(0.0169884 -0.000167267 0)
(0.0175404 -5.88636e-05 0)
(0.0177717 3.91094e-05 0)
(0.0177101 0.000124846 0)
(0.0173884 0.000197225 0)
(0.0168435 0.00025579 0)
(0.0161142 0.000300679 0)
(0.0152397 0.000332537 0)
(0.0142579 0.000352406 0)
(0.0132046 0.000361618 0)
(0.0121124 0.000361675 0)
(0.0110095 0.000354164 0)
(0.00992004 0.000340653 0)
(0.00886352 0.00032265 0)
(0.00785514 0.000301511 0)
(0.00690572 0.000278466 0)
(0.00602266 0.00025452 0)
(0.00520966 0.000230564 0)
(0.00446822 0.000207236 0)
(0.00379682 0.00018514 0)
(0.00319314 0.000164586 0)
(0.00265217 0.000145979 0)
(0.00216982 0.000129294 0)
(0.00173924 0.000114767 0)
(0.00135689 0.000101836 0)
(0.00101618 9.04945e-05 0)
(0.000717471 7.92018e-05 0)
(0.000457545 6.76927e-05 0)
(0.00024445 5.29471e-05 0)
(8.1302e-05 3.54324e-05 0)
(-1.74976e-05 1.16412e-05 0)
(-4.82873e-05 -1.01301e-05 0)
(-2.27457e-05 -2.22712e-05 0)
(9.35986e-06 3.74266e-06 0)
(0.000150494 -0.00015386 0)
(0.000484935 -0.000316305 0)
(0.000974838 -0.000461138 0)
(0.00160479 -0.000557294 0)
(0.00231071 -0.000612268 0)
(0.00305826 -0.00062267 0)
(0.00379275 -0.000599077 0)
(0.00448539 -0.000546556 0)
(0.00510231 -0.000475874 0)
(0.00563001 -0.000394478 0)
(0.00605657 -0.000311267 0)
(0.00638424 -0.000232241 0)
(0.00661764 -0.000162661 0)
(0.00676906 -0.000105122 0)
(0.00685088 -6.07594e-05 0)
(0.0068773 -2.86113e-05 0)
(0.00685965 -6.48797e-06 0)
(0.00680685 9.00981e-06 0)
(0.00672303 2.17667e-05 0)
(0.00660804 3.58709e-05 0)
(0.00645677 5.50657e-05 0)
(0.00626014 8.25169e-05 0)
(0.00600558 0.000120572 0)
(0.00567814 0.000170781 0)
(0.00526123 0.000233989 0)
(0.00473747 0.000310564 0)
(0.00408904 0.000400619 0)
(0.00329804 0.000504212 0)
(0.00234656 0.000621442 0)
(0.00121676 0.000752474 0)
(-0.000109043 0.000897457 0)
(-0.00164813 0.00105642 0)
(-0.00341704 0.00122915 0)
(-0.00543108 0.00141507 0)
(-0.00770371 0.00161318 0)
(-0.0102459 0.00182195 0)
(-0.0130655 0.00203937 0)
(-0.0161663 0.00226288 0)
(-0.0195479 0.00248939 0)
(-0.0232044 0.00271533 0)
(-0.0271246 0.0029367 0)
(-0.0312913 0.00314915 0)
(-0.0356813 0.00334805 0)
(-0.0402652 0.00352861 0)
(-0.0450078 0.003686 0)
(-0.0498684 0.00381547 0)
(-0.0548011 0.00391245 0)
(-0.0597558 0.00397268 0)
(-0.064679 0.00399229 0)
(-0.0695141 0.00396788 0)
(-0.074203 0.00389658 0)
(-0.0786866 0.00377614 0)
(-0.082906 0.0036049 0)
(-0.0868029 0.00338188 0)
(-0.0903209 0.0031068 0)
(-0.0934059 0.00278008 0)
(-0.0960074 0.00240286 0)
(-0.0980784 0.00197708 0)
(-0.0995765 0.00150547 0)
(-0.100465 0.00099158 0)
(-0.100711 0.000439877 0)
(-0.100291 -0.00014426 0)
(-0.0991862 -0.000754485 0)
(-0.097386 -0.00138347 0)
(-0.0948877 -0.00202288 0)
(-0.0916976 -0.00266345 0)
(-0.0878307 -0.00329501 0)
(-0.083312 -0.00390662 0)
(-0.078176 -0.00448678 0)
(-0.0724676 -0.00502362 0)
(-0.0662415 -0.00550522 0)
(-0.0595625 -0.00592 0)
(-0.0525045 -0.00625711 0)
(-0.0451502 -0.00650686 0)
(-0.0375896 -0.00666125 0)
(-0.029919 -0.00671436 0)
(-0.0222387 -0.00666277 0)
(-0.0146516 -0.00650594 0)
(-0.00726016 -0.00624637 0)
(-0.000164689 -0.00588974 0)
(0.00653979 -0.00544483 0)
(0.0127659 -0.00492325 0)
(0.0184364 -0.0043391 0)
(0.0234863 -0.00370839 0)
(0.027865 -0.00304839 0)
(0.0315375 -0.00237689 0)
(0.0344853 -0.00171145 0)
(0.0367069 -0.0010686 0)
(0.0382173 -0.000463256 0)
(0.0390473 9.193e-05 0)
(0.0392416 0.000586943 0)
(0.0388572 0.00101468 0)
(0.0379605 0.00137104 0)
(0.0366248 0.00165481 0)
(0.0349272 0.00186748 0)
(0.0329456 0.00201285 0)
(0.0307561 0.00209659 0)
(0.0284303 0.00212577 0)
(0.0260335 0.00210829 0)
(0.0236232 0.00205247 0)
(0.0212482 0.00196653 0)
(0.0189478 0.00185837 0)
(0.0167529 0.00173512 0)
(0.014685 0.00160322 0)
(0.0127588 0.00146802 0)
(0.010981 0.00133417 0)
(0.00935402 0.00120503 0)
(0.00787364 0.00108356 0)
(0.00653514 0.000970927 0)
(0.00532811 0.000868252 0)
(0.00424667 0.000773737 0)
(0.00327981 0.000686279 0)
(0.00242811 0.000599756 0)
(0.0016862 0.000511326 0)
(0.00106819 0.000410139 0)
(0.000576779 0.000297328 0)
(0.000236219 0.000163526 0)
(4.23021e-05 3.96985e-05 0)
(-1.03641e-05 -4.82653e-05 0)
(3.83628e-05 -9.92904e-05 0)
(0.000302789 -0.000485194 0)
(0.000844931 -0.00086292 0)
(0.00158467 -0.00119002 0)
(0.00250504 -0.00141408 0)
(0.00351784 -0.00153984 0)
(0.00457891 -0.00156333 0)
(0.00561529 -0.00150319 0)
(0.00658759 -0.00137347 0)
(0.00744995 -0.00119695 0)
(0.00818219 -0.000992483 0)
(0.0087669 -0.000780111 0)
(0.00920449 -0.000574922 0)
(0.00949911 -0.000389163 0)
(0.00966457 -0.000229647 0)
(0.00971515 -9.90879e-05 0)
(0.00966722 4.46633e-06 0)
(0.00953343 8.6313e-05 0)
(0.00932289 0.000154564 0)
(0.00903819 0.000218756 0)
(0.00867578 0.000288912 0)
(0.0082253 0.000374373 0)
(0.00767073 0.0004831 0)
(0.00699111 0.000621152 0)
(0.00616209 0.000792647 0)
(0.00515696 0.000999973 0)
(0.00394785 0.00124426 0)
(0.00250639 0.00152586 0)
(0.000804356 0.00184476 0)
(-0.001186 0.00220078 0)
(-0.00349152 0.0025936 0)
(-0.00613767 0.00302253 0)
(-0.00914782 0.00348627 0)
(-0.0125425 0.00398261 0)
(-0.0163383 0.00450819 0)
(-0.0205468 0.00505833 0)
(-0.0251737 0.00562695 0)
(-0.0302172 0.00620651 0)
(-0.0356678 0.00678818 0)
(-0.0415071 0.00736187 0)
(-0.0477075 0.0079165 0)
(-0.0542319 0.00844024 0)
(-0.0610344 0.00892085 0)
(-0.0680603 0.00934598 0)
(-0.0752472 0.00970359 0)
(-0.0825263 0.00998226 0)
(-0.0898235 0.0101715 0)
(-0.0970614 0.0102623 0)
(-0.104161 0.0102468 0)
(-0.111041 0.010119 0)
(-0.117624 0.00987452 0)
(-0.123834 0.00951091 0)
(-0.129597 0.0090273 0)
(-0.134845 0.00842456 0)
(-0.139516 0.00770511 0)
(-0.143553 0.0068729 0)
(-0.146904 0.00593323 0)
(-0.149525 0.00489278 0)
(-0.151378 0.00375947 0)
(-0.152432 0.00254248 0)
(-0.152662 0.00125227 0)
(-0.15205 -9.94301e-05 0)
(-0.150586 -0.00149958 0)
(-0.148266 -0.00293375 0)
(-0.145094 -0.00438616 0)
(-0.141082 -0.00583962 0)
(-0.136248 -0.00727559 0)
(-0.13062 -0.0086743 0)
(-0.124234 -0.0100149 0)
(-0.117134 -0.0112759 0)
(-0.109374 -0.0124351 0)
(-0.101016 -0.0134706 0)
(-0.0921315 -0.0143611 0)
(-0.0828012 -0.0150865 0)
(-0.0731135 -0.0156287 0)
(-0.0631644 -0.0159727 0)
(-0.0530567 -0.0161066 0)
(-0.0428981 -0.0160233 0)
(-0.0328 -0.0157202 0)
(-0.0228755 -0.0152005 0)
(-0.013237 -0.0144727 0)
(-0.00399415 -0.0135514 0)
(0.00474861 -0.0124563 0)
(0.0128947 -0.0112125 0)
(0.0203575 -0.00984903 0)
(0.0270628 -0.00839839 0)
(0.0329504 -0.00689519 0)
(0.0379761 -0.00537495 0)
(0.0421129 -0.00387276 0)
(0.0453513 -0.00242202 0)
(0.0477002 -0.00105323 0)
(0.0491862 0.00020711 0)
(0.0498528 0.00133738 0)
(0.0497591 0.00232148 0)
(0.0489774 0.00314919 0)
(0.0475907 0.00381626 0)
(0.0456896 0.00432422 0)
(0.0433689 0.00467978 0)
(0.040724 0.0048941 0)
(0.0378478 0.00498182 0)
(0.0348273 0.00496 0)
(0.0317415 0.00484698 0)
(0.0286592 0.00466147 0)
(0.0256383 0.0044215 0)
(0.0227245 0.00414402 0)
(0.0199533 0.00384399 0)
(0.0173478 0.00353464 0)
(0.0149238 0.00322648 0)
(0.0126863 0.00292824 0)
(0.0106373 0.00264498 0)
(0.00877 0.00238015 0)
(0.00708141 0.00213171 0)
(0.00556056 0.00189682 0)
(0.00421042 0.00166426 0)
(0.00302376 0.00142631 0)
(0.00201958 0.00116382 0)
(0.00119633 0.000876438 0)
(0.000589815 0.000551725 0)
(0.000187061 0.000240813 0)
(1.57726e-05 -1.15457e-05 0)
(6.39137e-05 -0.000275287 0)
(0.000439521 -0.000964378 0)
(0.00116188 -0.00159996 0)
(0.00210449 -0.00212999 0)
(0.00324775 -0.0024918 0)
(0.00448192 -0.0026876 0)
(0.00575835 -0.00271493 0)
(0.00699114 -0.00260065 0)
(0.00813577 -0.00236921 0)
(0.00913846 -0.00205656 0)
(0.00997544 -0.00169446 0)
(0.0106252 -0.00131536 0)
(0.0110864 -0.000944598 0)
(0.0113615 -0.000602214 0)
(0.0114634 -0.000299683 0)
(0.0114054 -4.13148e-05 0)
(0.0112023 0.000176244 0)
(0.0108646 0.000362184 0)
(0.0103981 0.000530416 0)
(0.00980049 0.000697382 0)
(0.00906243 0.000880329 0)
(0.00816623 0.0010954 0)
(0.00708762 0.00135635 0)
(0.00579662 0.00167372 0)
(0.00425941 0.00205468 0)
(0.00243967 0.00250341 0)
(0.000300111 0.00302173 0)
(-0.00219656 0.00360992 0)
(-0.00508663 0.00426722 0)
(-0.00840455 0.00499212 0)
(-0.012182 0.00578222 0)
(-0.0164467 0.00663393 0)
(-0.0212212 0.00754201 0)
(-0.0265215 0.00849907 0)
(-0.0323553 0.0094953 0)
(-0.0387206 0.0105183 0)
(-0.0456047 0.011553 0)
(-0.0529829 0.0125821 0)
(-0.0608181 0.0135863 0)
(-0.0690605 0.0145445 0)
(-0.0776487 0.015435 0)
(-0.0865103 0.0162358 0)
(-0.0955635 0.0169257 0)
(-0.10472 0.0174845 0)
(-0.113885 0.0178942 0)
(-0.122963 0.0181394 0)
(-0.131858 0.0182076 0)
(-0.140476 0.0180897 0)
(-0.148728 0.0177796 0)
(-0.15653 0.017275 0)
(-0.163806 0.0165762 0)
(-0.170485 0.0156866 0)
(-0.176507 0.0146118 0)
(-0.181819 0.0133599 0)
(-0.186374 0.0119402 0)
(-0.190136 0.010364 0)
(-0.193073 0.00864366 0)
(-0.195161 0.00679256 0)
(-0.19638 0.0048252 0)
(-0.196718 0.00275707 0)
(-0.196166 0.000604701 0)
(-0.194721 -0.00161424 0)
(-0.192385 -0.00388083 0)
(-0.189164 -0.00617477 0)
(-0.185069 -0.00847425 0)
(-0.180115 -0.0107559 0)
(-0.174326 -0.0129946 0)
(-0.167727 -0.0151639 0)
(-0.160354 -0.0172357 0)
(-0.152247 -0.019181 0)
(-0.143454 -0.0209697 0)
(-0.134031 -0.0225719 0)
(-0.124043 -0.0239581 0)
(-0.113562 -0.0251001 0)
(-0.10267 -0.0259724 0)
(-0.0914554 -0.0265525 0)
(-0.0800146 -0.0268226 0)
(-0.0684505 -0.0267704 0)
(-0.056871 -0.0263901 0)
(-0.0453875 -0.025683 0)
(-0.0341129 -0.024658 0)
(-0.0231595 -0.0233321 0)
(-0.012637 -0.0217299 0)
(-0.00265006 -0.0198833 0)
(0.00670408 -0.0178307 0)
(0.0153375 -0.0156157 0)
(0.0231734 -0.0132859 0)
(0.0301481 -0.0108915 0)
(0.0362124 -0.00848347 0)
(0.0413323 -0.00611208 0)
(0.0454907 -0.0038252 0)
(0.0486872 -0.00166684 0)
(0.0509389 0.000324264 0)
(0.0522801 0.0021159 0)
(0.0527615 0.00368334 0)
(0.0524489 0.00501007 0)
(0.0514216 0.00608815 0)
(0.0497695 0.00691814 0)
(0.0475902 0.00750864 0)
(0.0449852 0.00787529 0)
(0.0420562 0.0080396 0)
(0.0389019 0.00802725 0)
(0.0356136 0.00786665 0)
(0.0322742 0.00758704 0)
(0.0289542 0.00721737 0)
(0.0257128 0.00678465 0)
(0.0225952 0.0063136 0)
(0.0196365 0.00582501 0)
(0.0168575 0.00533648 0)
(0.014274 0.00485985 0)
(0.0118886 0.00440334 0)
(0.00970723 0.00396682 0)
(0.00772287 0.00354727 0)
(0.00594422 0.00312992 0)
(0.00436316 0.0027027 0)
(0.00300478 0.00223943 0)
(0.00186197 0.00173612 0)
(0.000985319 0.00117611 0)
(0.000355138 0.000617092 0)
(4.70657e-05 0.000109511 0)
(8.01612e-05 -0.000517021 0)
(0.000540107 -0.00158662 0)
(0.00140671 -0.00252661 0)
(0.00251019 -0.0032822 0)
(0.00382461 -0.00378909 0)
(0.00521809 -0.00404846 0)
(0.00663765 -0.00406291 0)
(0.00798631 -0.00386867 0)
(0.00921683 -0.00350307 0)
(0.0102702 -0.00301663 0)
(0.0111213 -0.00245581 0)
(0.0117462 -0.00186653 0)
(0.0121429 -0.00128528 0)
(0.0123118 -0.000740204 0)
(0.0122643 -0.000247409 0)
(0.0120106 0.000187743 0)
(0.0115621 0.000570886 0)
(0.0109239 0.000916314 0)
(0.0100956 0.0012451 0)
(0.00906754 0.00158199 0)
(0.00782166 0.00195273 0)
(0.00633102 0.0023813 0)
(0.0045617 0.00288797 0)
(0.00247409 0.00348808 0)
(2.51131e-05 0.00419186 0)
(-0.00283004 0.00500486 0)
(-0.00613605 0.00592891 0)
(-0.0099361 0.00696302 0)
(-0.0142703 0.00810403 0)
(-0.0191741 0.00934683 0)
(-0.024677 0.010684 0)
(-0.0308002 0.0121055 0)
(-0.037555 0.0135977 0)
(-0.0449408 0.0151434 0)
(-0.0529431 0.0167211 0)
(-0.0615327 0.0183055 0)
(-0.0706649 0.0198678 0)
(-0.0802792 0.0213765 0)
(-0.0903005 0.0227985 0)
(-0.100641 0.0240999 0)
(-0.111202 0.025248 0)
(-0.121878 0.0262118 0)
(-0.132558 0.026964 0)
(-0.143133 0.0274813 0)
(-0.153494 0.0277453 0)
(-0.163539 0.0277432 0)
(-0.173174 0.0274673 0)
(-0.182313 0.0269153 0)
(-0.190882 0.0260894 0)
(-0.198815 0.0249958 0)
(-0.206059 0.0236445 0)
(-0.212568 0.0220476 0)
(-0.218308 0.0202196 0)
(-0.223248 0.0181763 0)
(-0.227368 0.0159346 0)
(-0.230651 0.013512 0)
(-0.233084 0.0109264 0)
(-0.234659 0.00819629 0)
(-0.235372 0.00534038 0)
(-0.235218 0.00237804 0)
(-0.234198 -0.000670652 0)
(-0.232311 -0.00378464 0)
(-0.229561 -0.00694158 0)
(-0.225954 -0.0101176 0)
(-0.221496 -0.013287 0)
(-0.2162 -0.0164221 0)
(-0.210079 -0.0194929 0)
(-0.203151 -0.0224674 0)
(-0.195442 -0.0253113 0)
(-0.18698 -0.0279887 0)
(-0.177803 -0.0304619 0)
(-0.167955 -0.0326928 0)
(-0.157488 -0.0346433 0)
(-0.146465 -0.0362764 0)
(-0.134956 -0.0375576 0)
(-0.123041 -0.0384562 0)
(-0.11081 -0.0389465 0)
(-0.0983586 -0.0390096 0)
(-0.0857917 -0.0386344 0)
(-0.0732186 -0.0378186 0)
(-0.0607524 -0.0365701 0)
(-0.0485073 -0.0349064 0)
(-0.0365966 -0.0328555 0)
(-0.0251303 -0.0304546 0)
(-0.0142126 -0.0277499 0)
(-0.00393997 -0.0247945 0)
(0.00560089 -0.0216476 0)
(0.0143343 -0.018372 0)
(0.0221969 -0.0150329 0)
(0.0291385 -0.0116954 0)
(0.0351231 -0.00842317 0)
(0.040129 -0.00527666 0)
(0.0441497 -0.00231124 0)
(0.0471944 0.000424091 0)
(0.0492879 0.00288822 0)
(0.050471 0.00504911 0)
(0.0507997 0.00688482 0)
(0.0503447 0.00838413 0)
(0.0491889 0.00954679 0)
(0.0474256 0.010383 0)
(0.0451548 0.0109127 0)
(0.0424796 0.0111638 0)
(0.0395024 0.0111706 0)
(0.0363213 0.010971 0)
(0.033026 0.0106051 0)
(0.0296969 0.0101124 0)
(0.0264008 0.00953069 0)
(0.0231939 0.0088933 0)
(0.0201164 0.00822935 0)
(0.0172019 0.00756047 0)
(0.0144671 0.00690234 0)
(0.011931 0.00625958 0)
(0.00959429 0.00563089 0)
(0.00747498 0.00500032 0)
(0.00556663 0.00435185 0)
(0.00390322 0.00365368 0)
(0.00247461 0.00289505 0)
(0.00135015 0.00205333 0)
(0.000507612 0.00117914 0)
(7.39277e-05 0.000316671 0)
(9.25768e-05 -0.000799291 0)
(0.000619327 -0.00230565 0)
(0.00159902 -0.00357867 0)
(0.00282505 -0.00456557 0)
(0.00426241 -0.00520791 0)
(0.00575819 -0.0055102 0)
(0.00725458 -0.00548443 0)
(0.00864507 -0.00517846 0)
(0.00988121 -0.00464468 0)
(0.0109008 -0.00394913 0)
(0.0116793 -0.00315366 0)
(0.0121919 -0.00231755 0)
(0.0124363 -0.001488 0)
(0.0124115 -0.000700343 0)
(0.0121261 2.5848e-05 0)
(0.0115861 0.000685508 0)
(0.0107967 0.00128795 0)
(0.00975567 0.00185395 0)
(0.00845338 0.00241292 0)
(0.00686998 0.00299883 0)
(0.00497666 0.00364646 0)
(0.0027356 0.00438767 0)
(0.000102542 0.00524888 0)
(-0.00297146 0.00624946 0)
(-0.00653726 0.00740152 0)
(-0.0106455 0.00871047 0)
(-0.0153444 0.0101762 0)
(-0.0206776 0.0117939 0)
(-0.0266821 0.0135549 0)
(-0.0333857 0.0154466 0)
(-0.0408052 0.0174519 0)
(-0.0489434 0.0195488 0)
(-0.057787 0.02171 0)
(-0.067305 0.0239023 0)
(-0.0774476 0.0260875 0)
(-0.0881464 0.0282231 0)
(-0.0993152 0.0302634 0)
(-0.110853 0.0321618 0)
(-0.122646 0.0338724 0)
(-0.134574 0.0353519 0)
(-0.146512 0.0365619 0)
(-0.158338 0.03747 0)
(-0.169934 0.0380509 0)
(-0.181191 0.0382873 0)
(-0.192013 0.0381695 0)
(-0.202315 0.0376951 0)
(-0.212026 0.0368683 0)
(-0.221087 0.0356986 0)
(-0.229454 0.0342001 0)
(-0.23709 0.0323899 0)
(-0.243969 0.0302875 0)
(-0.250073 0.0279135 0)
(-0.25539 0.0252892 0)
(-0.25991 0.022436 0)
(-0.263628 0.019375 0)
(-0.266541 0.016127 0)
(-0.268647 0.0127122 0)
(-0.269943 0.00915049 0)
(-0.270429 0.00546187 0)
(-0.270103 0.00166644 0)
(-0.268962 -0.00221505 0)
(-0.267005 -0.00616081 0)
(-0.264229 -0.0101475 0)
(-0.260635 -0.0141501 0)
(-0.256221 -0.0181408 0)
(-0.250989 -0.0220896 0)
(-0.244943 -0.0259632 0)
(-0.238091 -0.0297256 0)
(-0.230444 -0.0333372 0)
(-0.222019 -0.0367562 0)
(-0.21284 -0.039938 0)
(-0.202938 -0.0428363 0)
(-0.192352 -0.0454045 0)
(-0.181133 -0.047596 0)
(-0.169339 -0.0493667 0)
(-0.157042 -0.0506759 0)
(-0.14432 -0.0514886 0)
(-0.131267 -0.0517772 0)
(-0.117982 -0.0515231 0)
(-0.104574 -0.0507186 0)
(-0.0911581 -0.0493676 0)
(-0.0778511 -0.0474866 0)
(-0.0647724 -0.0451048 0)
(-0.0520389 -0.0422633 0)
(-0.0397627 -0.0390143 0)
(-0.0280487 -0.0354192 0)
(-0.0169925 -0.0315471 0)
(-0.00667854 -0.0274719 0)
(0.00282065 -0.0232708 0)
(0.0114451 -0.0190217 0)
(0.0191478 -0.0148013 0)
(0.0258941 -0.0106835 0)
(0.0316626 -0.0067375 0)
(0.0364445 -0.00302671 0)
(0.0402442 0.000392967 0)
(0.0430799 0.00347438 0)
(0.0449839 0.00618049 0)
(0.0460029 0.00848556 0)
(0.0461979 0.0103761 0)
(0.0456431 0.0118514 0)
(0.044424 0.012923 0)
(0.0426355 0.0136146 0)
(0.0403772 0.0139595 0)
(0.0377515 0.0139991 0)
(0.034857 0.0137802 0)
(0.0317882 0.0133519 0)
(0.0286287 0.0127635 0)
(0.0254538 0.0120609 0)
(0.0223226 0.0112856 0)
(0.0192877 0.0104709 0)
(0.0163822 0.0096423 0)
(0.013641 0.00881185 0)
(0.0110762 0.00798248 0)
(0.00871766 0.00713985 0)
(0.00656403 0.00626529 0)
(0.00466058 0.00532276 0)
(0.0029975 0.00429176 0)
(0.00166409 0.00314054 0)
(0.000639268 0.00189975 0)
(9.69015e-05 0.000596246 0)
(0.000101133 -0.0011189 0)
(0.000678174 -0.00311166 0)
(0.00174321 -0.00474294 0)
(0.00305758 -0.00596504 0)
(0.00457534 -0.00672973 0)
(0.0061234 -0.00704898 0)
(0.00763805 -0.00694855 0)
(0.00900422 -0.0064912 0)
(0.010173 -0.0057472 0)
(0.0110805 -0.00479976 0)
(0.0117041 -0.00372704 0)
(0.0120194 -0.00260157 0)
(0.0120247 -0.00148056 0)
(0.0117171 -0.0004051 0)
(0.0111024 0.000603461 0)
(0.0101804 0.00154232 0)
(0.00894876 0.00242641 0)
(0.00739509 0.0032847 0)
(0.00549851 0.00415629 0)
(0.00322687 0.00508515 0)
(0.000539113 0.00611515 0)
(-0.00261397 0.00728545 0)
(-0.00628636 0.00862732 0)
(-0.0105344 0.0101623 0)
(-0.0154133 0.0119019 0)
(-0.0209748 0.0138487 0)
(-0.0272639 0.0159968 0)
(-0.0343162 0.0183339 0)
(-0.0421555 0.0208405 0)
(-0.0507904 0.0234911 0)
(-0.0602116 0.0262527 0)
(-0.0703899 0.0290854 0)
(-0.0812742 0.0319419 0)
(-0.0927917 0.0347686 0)
(-0.104849 0.0375076 0)
(-0.117334 0.040098 0)
(-0.130122 0.0424794 0)
(-0.143078 0.0445946 0)
(-0.156065 0.0463917 0)
(-0.168949 0.0478273 0)
(-0.181604 0.0488671 0)
(-0.193914 0.0494875 0)
(-0.20578 0.0496752 0)
(-0.217117 0.0494267 0)
(-0.227859 0.0487473 0)
(-0.237952 0.047649 0)
(-0.247358 0.0461499 0)
(-0.25605 0.0442715 0)
(-0.26401 0.0420381 0)
(-0.271229 0.0394752 0)
(-0.2777 0.0366086 0)
(-0.283424 0.0334634 0)
(-0.288399 0.0300642 0)
(-0.292629 0.0264342 0)
(-0.296113 0.0225952 0)
(-0.298854 0.0185681 0)
(-0.30085 0.0143728 0)
(-0.3021 0.0100285 0)
(-0.302602 0.00555419 0)
(-0.302351 0.000969123 0)
(-0.301341 -0.00370668 0)
(-0.299566 -0.00845191 0)
(-0.297019 -0.0132434 0)
(-0.29369 -0.0180556 0)
(-0.289572 -0.02286 0)
(-0.284657 -0.0276248 0)
(-0.27894 -0.0323142 0)
(-0.272417 -0.0368886 0)
(-0.265087 -0.0413041 0)
(-0.256954 -0.045513 0)
(-0.248028 -0.0494639 0)
(-0.238324 -0.0531025 0)
(-0.227868 -0.0563726 0)
(-0.216694 -0.0592175 0)
(-0.204848 -0.0615819 0)
(-0.192388 -0.0634134 0)
(-0.179384 -0.0646653 0)
(-0.165919 -0.0652987 0)
(-0.152089 -0.065285 0)
(-0.138001 -0.0646076 0)
(-0.123772 -0.0632644 0)
(-0.109526 -0.0612683 0)
(-0.0953888 -0.0586479 0)
(-0.0814898 -0.0554471 0)
(-0.0679534 -0.0517238 0)
(-0.0548975 -0.0475482 0)
(-0.0424305 -0.0429998 0)
(-0.0306486 -0.0381651 0)
(-0.0196345 -0.0331343 0)
(-0.00945668 -0.0279984 0)
(-0.000169441 -0.0228474 0)
(0.00818616 -0.0177674 0)
(0.0155814 -0.01284 0)
(0.0219992 -0.00814036 0)
(0.0274332 -0.00373633 0)
(0.0318879 0.00031248 0)
(0.0353789 0.00395599 0)
(0.0379336 0.00715494 0)
(0.0395921 0.00988214 0)
(0.0404076 0.0121237 0)
(0.0404458 0.0138795 0)
(0.039785 0.0151635 0)
(0.0385126 0.0160031 0)
(0.0367239 0.0164369 0)
(0.0345166 0.0165131 0)
(0.0319895 0.0162856 0)
(0.0292352 0.015812 0)
(0.026342 0.0151486 0)
(0.0233842 0.0143487 0)
(0.0204313 0.0134574 0)
(0.0175326 0.012511 0)
(0.0147395 0.0115311 0)
(0.012077 0.0105268 0)
(0.00958947 0.00948779 0)
(0.00728337 0.00839374 0)
(0.00521735 0.00720565 0)
(0.00338584 0.00589111 0)
(0.00189773 0.00440694 0)
(0.000736139 0.00275495 0)
(0.000113114 0.000936641 0)
(0.000108709 -0.0014622 0)
(0.000725939 -0.00397484 0)
(0.00185379 -0.00597626 0)
(0.00322512 -0.00742521 0)
(0.00478166 -0.00828742 0)
(0.00633179 -0.00858713 0)
(0.00780571 -0.00836871 0)
(0.00908139 -0.00771363 0)
(0.0101103 -0.00671302 0)
(0.0108287 -0.00546876 0)
(0.0112168 -0.00407576 0)
(0.0112515 -0.00261901 0)
(0.0109319 -0.00116409 0)
(0.0102532 0.000244357 0)
(0.00921655 0.00158577 0)
(0.00781462 0.00286221 0)
(0.0060351 0.0040965 0)
(0.00385348 0.0053276 0)
(0.00123567 0.00660525 0)
(-0.00186395 0.00798342 0)
(-0.00549882 0.00951407 0)
(-0.00972842 0.0112417 0)
(-0.0146138 0.0131995 0)
(-0.0202145 0.0154078 0)
(-0.026584 0.0178735 0)
(-0.0337674 0.0205913 0)
(-0.0417968 0.0235447 0)
(-0.050689 0.0267075 0)
(-0.0604418 0.0300434 0)
(-0.0710312 0.0335068 0)
(-0.0824092 0.037043 0)
(-0.0945027 0.0405883 0)
(-0.107215 0.0440726 0)
(-0.120428 0.0474209 0)
(-0.134006 0.0505577 0)
(-0.147803 0.0534095 0)
(-0.161671 0.0559095 0)
(-0.175462 0.0580003 0)
(-0.18904 0.0596363 0)
(-0.202282 0.0607849 0)
(-0.215082 0.0614271 0)
(-0.227355 0.0615565 0)
(-0.239033 0.0611777 0)
(-0.250068 0.0603043 0)
(-0.260424 0.0589574 0)
(-0.27008 0.0571626 0)
(-0.279026 0.0549487 0)
(-0.287256 0.0523458 0)
(-0.294773 0.0493844 0)
(-0.30158 0.0460941 0)
(-0.307682 0.0425029 0)
(-0.313088 0.0386374 0)
(-0.317801 0.0345219 0)
(-0.321827 0.0301792 0)
(-0.32517 0.02563 0)
(-0.327832 0.0208937 0)
(-0.329812 0.0159886 0)
(-0.33111 0.010932 0)
(-0.33172 0.00574128 0)
(-0.331639 0.000434026 0)
(-0.330858 -0.00497135 0)
(-0.329369 -0.010455 0)
(-0.327161 -0.0159948 0)
(-0.324221 -0.0215661 0)
(-0.320535 -0.0271407 0)
(-0.31609 -0.0326865 0)
(-0.310871 -0.038167 0)
(-0.304863 -0.0435406 0)
(-0.298054 -0.0487605 0)
(-0.290435 -0.053775 0)
(-0.281998 -0.058527 0)
(-0.272744 -0.0629551 0)
(-0.262679 -0.0669946 0)
(-0.251819 -0.0705783 0)
(-0.240191 -0.073639 0)
(-0.227835 -0.0761114 0)
(-0.214804 -0.0779348 0)
(-0.201169 -0.079056 0)
(-0.187015 -0.0794325 0)
(-0.172443 -0.0790351 0)
(-0.157569 -0.0778507 0)
(-0.142519 -0.0758845 0)
(-0.127432 -0.0731605 0)
(-0.112448 -0.0697223 0)
(-0.0977104 -0.0656314 0)
(-0.083356 -0.0609658 0)
(-0.0695139 -0.055816 0)
(-0.0563 -0.0502822 0)
(-0.0438142 -0.0444698 0)
(-0.0321391 -0.0384857 0)
(-0.0213398 -0.0324346 0)
(-0.0114642 -0.026417 0)
(-0.00254548 -0.0205266 0)
(0.00539641 -0.0148499 0)
(0.0123522 -0.00946457 0)
(0.0183221 -0.00443997 0)
(0.0233147 0.000164003 0)
(0.0273473 0.00429748 0)
(0.0304462 0.00792174 0)
(0.0326483 0.0110105 0)
(0.0340015 0.0135514 0)
(0.0345658 0.0155463 0)
(0.0344122 0.0170125 0)
(0.0336227 0.0179811 0)
(0.0322855 0.0184959 0)
(0.0304957 0.0186108 0)
(0.0283464 0.0183863 0)
(0.0259319 0.0178853 0)
(0.0233357 0.0171699 0)
(0.02064 0.0162959 0)
(0.0179075 0.01531 0)
(0.015205 0.0142439 0)
(0.0125708 0.0131138 0)
(0.0100638 0.0119153 0)
(0.00770109 0.0106276 0)
(0.0055552 0.00920949 0)
(0.00362807 0.00761557 0)
(0.00204578 0.00578957 0)
(0.000797953 0.00369913 0)
(0.000123387 0.0013162 0)
(0.000115079 -0.00182952 0)
(0.000763139 -0.0048878 0)
(0.00193321 -0.0072632 0)
(0.00333118 -0.00892303 0)
(0.00488556 -0.00985047 0)
(0.00638797 -0.0100867 0)
(0.00776278 -0.00969975 0)
(0.00888283 -0.00879381 0)
(0.00970101 -0.00748405 0)
(0.0101553 -0.0058926 0)
(0.0102296 -0.00413134 0)
(0.00990259 -0.00229658 0)
(0.00917386 -0.000460247 0)
(0.00803576 0.00133229 0)
(0.00648371 0.00306426 0)
(0.0045011 0.0047455 0)
(0.0020639 0.00640912 0)
(-0.000866058 0.00810558 0)
(-0.00433694 0.00989561 0)
(-0.00840755 0.0118422 0)
(-0.013142 0.0140031 0)
(-0.0186065 0.0164247 0)
(-0.0248641 0.0191377 0)
(-0.0319702 0.0221558 0)
(-0.039968 0.0254755 0)
(-0.0488852 0.0290775 0)
(-0.0587294 0.0329278 0)
(-0.0694855 0.0369791 0)
(-0.0811127 0.0411714 0)
(-0.0935427 0.0454333 0)
(-0.10668 0.0496839 0)
(-0.120404 0.053835 0)
(-0.134574 0.0577949 0)
(-0.149034 0.0614734 0)
(-0.163624 0.064786 0)
(-0.178184 0.0676585 0)
(-0.192565 0.0700303 0)
(-0.206632 0.0718566 0)
(-0.220272 0.0731091 0)
(-0.233392 0.0737754 0)
(-0.245922 0.0738571 0)
(-0.257812 0.0733674 0)
(-0.269029 0.0723286 0)
(-0.279552 0.0707694 0)
(-0.289375 0.0687225 0)
(-0.298497 0.0662225 0)
(-0.306923 0.0633044 0)
(-0.314661 0.0600023 0)
(-0.321722 0.0563489 0)
(-0.328115 0.0523747 0)
(-0.333853 0.0481078 0)
(-0.338943 0.043574 0)
(-0.343396 0.0387966 0)
(-0.347218 0.0337968 0)
(-0.350416 0.0285939 0)
(-0.352994 0.0232055 0)
(-0.354954 0.0176479 0)
(-0.356297 0.0119367 0)
(-0.357021 0.0060872 0)
(-0.357124 0.000114794 0)
(-0.356597 -0.0059642 0)
(-0.355434 -0.0121321 0)
(-0.353621 -0.0183688 0)
(-0.351144 -0.0246518 0)
(-0.347987 -0.0309545 0)
(-0.344131 -0.0372463 0)
(-0.339552 -0.0434913 0)
(-0.334229 -0.049648 0)
(-0.328137 -0.0556689 0)
(-0.321252 -0.0614997 0)
(-0.313552 -0.06708 0)
(-0.305017 -0.0723427 0)
(-0.295634 -0.0772158 0)
(-0.285395 -0.0816225 0)
(-0.274304 -0.0854838 0)
(-0.262377 -0.0887206 0)
(-0.249643 -0.0912564 0)
(-0.236152 -0.0930208 0)
(-0.221969 -0.0939535 0)
(-0.207182 -0.0940077 0)
(-0.191898 -0.093154 0)
(-0.176243 -0.0913834 0)
(-0.160358 -0.0887098 0)
(-0.144399 -0.0851709 0)
(-0.128526 -0.0808278 0)
(-0.112902 -0.0757633 0)
(-0.0976835 -0.0700786 0)
(-0.0830166 -0.0638885 0)
(-0.0690297 -0.0573167 0)
(-0.0558309 -0.0504897 0)
(-0.0435057 -0.0435325 0)
(-0.0321169 -0.0365643 0)
(-0.0217063 -0.0296951 0)
(-0.0122976 -0.023025 0)
(-0.00390013 -0.0166428 0)
(0.00348824 -0.0106263 0)
(0.00987768 -0.00504295 0)
(0.0152851 5.00596e-05 0)
(0.0197333 0.00460619 0)
(0.0232519 0.00859018 0)
(0.0258776 0.0119793 0)
(0.0276571 0.0147648 0)
(0.0286463 0.0169526 0)
(0.0289123 0.0185641 0)
(0.0285308 0.0196353 0)
(0.0275868 0.0202151 0)
(0.0261681 0.0203624 0)
(0.024368 0.0201424 0)
(0.0222728 0.0196221 0)
(0.0199718 0.0188651 0)
(0.0175376 0.0179264 0)
(0.0150488 0.0168474 0)
(0.012556 0.0156514 0)
(0.0101319 0.0143402 0)
(0.00780517 0.0128932 0)
(0.00566192 0.011268 0)
(0.00371394 0.00940598 0)
(0.00210112 0.00723742 0)
(0.000820897 0.00469454 0)
(0.000126765 0.00171849 0)
(0.000121139 -0.00221352 0)
(0.000792244 -0.0058304 0)
(0.00198435 -0.00857089 0)
(0.00337763 -0.010413 0)
(0.00488667 -0.0113618 0)
(0.00628872 -0.0114808 0)
(0.00750337 -0.0108668 0)
(0.00840086 -0.00965122 0)
(0.00893688 -0.00797613 0)
(0.0090527 -0.00598493 0)
(0.00873629 -0.00380605 0)
(0.00796832 -0.00154516 0)
(0.00674795 0.000722335 0)
(0.0050633 0.00295379 0)
(0.00290218 0.00513966 0)
(0.000236906 0.00730059 0)
(-0.00296984 0.00948203 0)
(-0.00677057 0.0117467 0)
(-0.011227 0.0141654 0)
(-0.0164087 0.0168075 0)
(-0.0223864 0.0197324 0)
(-0.029227 0.0229829 0)
(-0.0369872 0.0265809 0)
(-0.0457088 0.0305265 0)
(-0.0554133 0.0347984 0)
(-0.0660988 0.0393555 0)
(-0.0777361 0.0441389 0)
(-0.0902666 0.0490735 0)
(-0.103601 0.0540707 0)
(-0.117623 0.0590308 0)
(-0.132188 0.0638476 0)
(-0.147136 0.0684132 0)
(-0.162296 0.0726237 0)
(-0.177494 0.0763853 0)
(-0.192567 0.0796185 0)
(-0.207366 0.082262 0)
(-0.221764 0.0842739 0)
(-0.235658 0.0856317 0)
(-0.24897 0.0863304 0)
(-0.261642 0.08638 0)
(-0.273639 0.085802 0)
(-0.284939 0.0846266 0)
(-0.295535 0.0828892 0)
(-0.305427 0.0806284 0)
(-0.314623 0.0778837 0)
(-0.323133 0.0746944 0)
(-0.330969 0.071098 0)
(-0.338148 0.06713 0)
(-0.344682 0.0628235 0)
(-0.350588 0.0582089 0)
(-0.35588 0.0533137 0)
(-0.360572 0.0481629 0)
(-0.364676 0.0427787 0)
(-0.368205 0.037181 0)
(-0.37117 0.0313878 0)
(-0.37358 0.0254149 0)
(-0.375443 0.0192768 0)
(-0.376763 0.012987 0)
(-0.377544 0.00655822 0)
(-0.377786 3.2835e-06 0)