/*--------------------------------*- C++ -*----------------------------------*\
| =========                 |                                                 |
| \\      /  F ield         | OpenFOAM: The Open Source CFD Toolbox           |
|  \\    /   O peration     | Version:  2406                                  |
|   \\  /    A nd           | Website:  www.openfoam.com                      |
|    \\/     M anipulation  |                                                 |
\*---------------------------------------------------------------------------*/
FoamFile
{
    version     2.0;
    format      ascii;
    arch        "LSB;label=32;scalar=64";
    class       surfaceScalarField;
    location    "6.6";
    object      phi;
}
// * * * * * * * * * * * * * * * * * * * * * * * * * * * * * * * * * * * * * //

dimensions      [0 3 -1 0 0 0 0];

oriented        oriented;

internalField   nonuniform List<scalar> 
7080
(
-6.05816e-09
5.9881e-09
-1.50629e-07
1.47807e-07
-4.05034e-07
2.54185e-07
-7.3285e-07
3.31434e-07
-1.09997e-06
3.67898e-07
-1.48431e-06
3.87963e-07
-1.87498e-06
3.92135e-07
-2.26442e-06
3.92818e-07
-2.65144e-06
3.88847e-07
-3.03367e-06
3.85322e-07
-3.41198e-06
3.80334e-07
-3.78507e-06
3.75941e-07
-4.15345e-06
3.70506e-07
-4.51575e-06
3.64944e-07
-4.87169e-06
3.58085e-07
-5.2196e-06
3.5037e-07
-5.55848e-06
3.40979e-07
-5.88632e-06
3.30095e-07
-6.20145e-06
3.17116e-07
-6.50148e-06
3.02071e-07
-6.78418e-06
2.84499e-07
-7.04676e-06
2.64353e-07
-7.28651e-06
2.41292e-07
-7.50033e-06
2.15271e-07
-7.68521e-06
1.86085e-07
-7.83792e-06
1.53765e-07
-7.95541e-06
1.18285e-07
-8.03464e-06
7.98254e-08
-8.0729e-06
3.85854e-08
-8.06778e-06
-5.04639e-09
-8.01738e-06
-5.06146e-08
-7.92037e-06
-9.74958e-08
-7.77616e-06
-1.44987e-07
-7.58495e-06
-1.92258e-07
-7.34787e-06
-2.38425e-07
-7.06693e-06
-2.82542e-07
-6.74512e-06
-3.23674e-07
-6.3863e-06
-3.60913e-07
-5.99517e-06
-3.93441e-07
-5.57709e-06
-4.20567e-07
-5.13798e-06
-4.41764e-07
-4.68403e-06
-4.56703e-07
-4.22161e-06
-4.6527e-07
-3.75694e-06
-4.67559e-07
-3.29599e-06
-4.63872e-07
-2.84423e-06
-4.54647e-07
-2.40663e-06
-4.40463e-07
-1.98754e-06
-4.21846e-07
-1.59088e-06
-3.9935e-07
-1.22027e-06
-3.73135e-07
-8.79367e-07
-3.43305e-07
-5.72457e-07
-3.09075e-07
-3.04629e-07
-2.69796e-07
-8.29257e-08
-2.23386e-07
8.48573e-08
-1.69107e-07
1.8834e-07
-1.04567e-07
2.20912e-07
-3.30126e-08
1.78486e-07
4.18157e-08
8.45473e-08
9.44077e-08
8.44503e-08
-1.52157e-07
1.54956e-07
-5.82192e-07
5.78063e-07
-1.22845e-06
8.94984e-07
-2.02328e-06
1.12446e-06
-2.91217e-06
1.2508e-06
-3.85011e-06
1.32268e-06
-4.81263e-06
1.34871e-06
-5.7804e-06
1.35668e-06
-6.74678e-06
1.34958e-06
-7.7046e-06
1.33892e-06
-8.65293e-06
1.32334e-06
-9.58818e-06
1.30686e-06
-1.05098e-05
1.2871e-06
-1.14145e-05
1.26535e-06
-1.23007e-05
1.23954e-06
-1.31645e-05
1.20998e-06
-1.4003e-05
1.17506e-06
-1.48115e-05
1.13465e-06
-1.55859e-05
1.08749e-06
-1.63207e-05
1.03322e-06
-1.70106e-05
9.70817e-07
-1.76494e-05
8.99894e-07
-1.82308e-05
8.19693e-07
-1.87481e-05
7.29948e-07
-1.91945e-05
6.30271e-07
-1.95634e-05
5.2072e-07
-1.9848e-05
4.01417e-07
-2.00421e-05
2.7293e-07
-2.014e-05
1.36034e-07
-2.0137e-05
-8.04585e-09
-2.00293e-05
-1.578e-07
-1.98145e-05
-3.11305e-07
-1.94915e-05
-4.66356e-07
-1.90611e-05
-6.2044e-07
-1.8526e-05
-7.70863e-07
-1.78905e-05
-9.14814e-07
-1.7161e-05
-1.04949e-06
-1.63455e-05
-1.17222e-06
-1.54538e-05
-1.28057e-06
-1.4497e-05
-1.37252e-06
-1.34871e-05
-1.44649e-06
-1.24369e-05
-1.50151e-06
-1.13595e-05
-1.53716e-06
-1.02678e-05
-1.55368e-06
-9.17421e-06
-1.5518e-06
-8.09053e-06
-1.53272e-06
-7.02765e-06
-1.49788e-06
-5.99549e-06
-1.44867e-06
-5.00348e-06
-1.38628e-06
-4.06078e-06
-1.31098e-06
-3.1772e-06
-1.2224e-06
-2.36397e-06
-1.11816e-06
-1.63455e-06
-9.95566e-07
-1.00563e-06
-8.49161e-07
-4.95736e-07
-6.76481e-07
-1.25213e-07
-4.73335e-07
9.24778e-08
-2.49495e-07
1.53982e-07
-1.95452e-08
9.40266e-08
1.54599e-07
1.78053e-07
-2.79345e-07
4.34153e-07
-9.54551e-07
1.25888e-06
-1.92258e-06
1.86263e-06
-3.08191e-06
2.28948e-06
-4.36841e-06
2.53896e-06
-5.72265e-06
2.68241e-06
-7.11399e-06
2.74281e-06
-8.51539e-06
2.76325e-06
-9.9167e-06
2.75421e-06
-1.13069e-05
2.73392e-06
-1.26831e-05
2.70317e-06
-1.40397e-05
2.66793e-06
-1.53747e-05
2.62574e-06
-1.66831e-05
2.57802e-06
-1.79619e-05
2.52202e-06
-1.92056e-05
2.45763e-06
-2.04095e-05
2.38249e-06
-2.15671e-05
2.29592e-06
-2.26722e-05
2.19592e-06
-2.37173e-05
2.08159e-06
-2.46948e-05
1.9513e-06
-2.55962e-05
1.80419e-06
-2.64131e-05
1.63908e-06
-2.71363e-05
1.45547e-06
-2.77569e-05
1.25286e-06
-2.82659e-05
1.03142e-06
-2.86548e-05
7.91616e-07
-2.89156e-05
5.34624e-07
-2.90412e-05
2.62108e-07
-2.90257e-05
-2.35152e-08
-2.88647e-05
-3.19249e-07
-2.85555e-05
-6.214e-07
-2.80974e-05
-9.25739e-07
-2.74921e-05
-1.22753e-06
-2.67436e-05
-1.52173e-06
-2.5858e-05
-1.8031e-06
-2.48442e-05
-2.06647e-06
-2.3713e-05
-2.30693e-06
-2.24774e-05
-2.52004e-06
-2.11519e-05
-2.70212e-06
-1.97525e-05
-2.85032e-06
-1.82957e-05
-2.96288e-06
-1.67985e-05
-3.03906e-06
-1.52777e-05
-3.07928e-06
-1.37495e-05
-3.08484e-06
-1.22291e-05
-3.05787e-06
-1.07308e-05
-3.00081e-06
-9.26794e-06
-2.91608e-06
-7.85317e-06
-2.80544e-06
-6.49902e-06
-2.66922e-06
-5.21922e-06
-2.50608e-06
-4.02925e-06
-2.3116e-06
-2.94794e-06
-2.08004e-06
-1.99753e-06
-1.80219e-06
-1.20334e-06
-1.47286e-06
-5.90959e-07
-1.08725e-06
-1.79805e-07
-6.61641e-07
2.58898e-08
-2.25728e-07
5.65303e-08
1.23934e-07
2.34721e-07
-3.87067e-07
8.17442e-07
-1.26895e-06
2.14345e-06
-2.49763e-06
3.08534e-06
-3.9413e-06
3.73361e-06
-5.53006e-06
4.12255e-06
-7.19588e-06
4.3471e-06
-8.90648e-06
4.44878e-06
-1.06301e-05
4.48482e-06
-1.23548e-05
4.47474e-06
-1.40665e-05
4.44311e-06
-1.57608e-05
4.39372e-06
-1.743e-05
4.33443e-06
-1.90709e-05
4.26311e-06
-2.0677e-05
4.18127e-06
-2.22438e-05
4.0856e-06
-2.37644e-05
3.97552e-06
-2.52329e-05
3.84792e-06
-2.6641e-05
3.70148e-06
-2.79813e-05
3.53349e-06
-2.92445e-05
3.34241e-06
-3.04216e-05
3.12601e-06
-3.15025e-05
2.88295e-06
-3.2477e-05
2.61167e-06
-3.33347e-05
2.31147e-06
-3.40652e-05
1.98185e-06
-3.46583e-05
1.62323e-06
-3.51042e-05
1.23656e-06
-3.5394e-05
8.23849e-07
-3.55201e-05
3.8788e-07
-3.54761e-05
-6.746e-08
-3.52576e-05
-5.37386e-07
-3.48621e-05
-1.01611e-06
-3.42898e-05
-1.49704e-06
-3.3543e-05
-1.97288e-06
-3.2627e-05
-2.43586e-06
-3.15499e-05
-2.87806e-06
-3.03224e-05
-3.29158e-06
-2.89575e-05
-3.66907e-06
-2.74707e-05
-4.00385e-06
-2.58792e-05
-4.29044e-06
-2.42015e-05
-4.52462e-06
-2.2457e-05
-4.70388e-06
-2.06653e-05
-4.82714e-06
-1.88457e-05
-4.89519e-06
-1.70168e-05
-4.90997e-06
-1.51962e-05
-4.87479e-06
-1.34003e-05
-4.79317e-06
-1.16441e-05
-4.66878e-06
-9.94228e-06
-4.50393e-06
-8.30919e-06
-4.2991e-06
-6.76066e-06
-4.05171e-06
-5.31414e-06
-3.75537e-06
-3.99107e-06
-3.40077e-06
-2.8158e-06
-2.97534e-06
-1.81668e-06
-2.47042e-06
-1.02078e-06
-1.88179e-06
-4.51337e-07
-1.23043e-06
-1.1401e-07
-5.62406e-07
1.08787e-08
-1.08354e-09
2.45874e-07
-4.60609e-07
1.27662e-06
-1.49998e-06
3.18959e-06
-2.93254e-06
4.51511e-06
-4.59898e-06
5.40549e-06
-6.42177e-06
5.94483e-06
-8.3253e-06
6.25511e-06
-1.02766e-05
6.40092e-06
-1.2241e-05
6.45307e-06
-1.42062e-05
6.44148e-06
-1.61561e-05
6.3964e-06
-1.80857e-05
6.32521e-06
-1.99856e-05
6.23737e-06
-2.18518e-05
6.13135e-06
-2.36763e-05
6.0086e-06
-2.5454e-05
5.86543e-06
-2.71765e-05
5.70065e-06
-2.8837e-05
5.51047e-06
-3.0426e-05
5.29287e-06
-3.19349e-05
5.04442e-06
-3.33534e-05
4.76292e-06
-3.46711e-05
4.44552e-06
-3.58767e-05
4.09043e-06
-3.69593e-05
3.69573e-06
-3.79069e-05
3.26057e-06
-3.87084e-05
2.78453e-06
-3.93525e-05
2.26834e-06
-3.98288e-05
1.71361e-06
-4.01277e-05
1.12331e-06
-4.02411e-05
5.0154e-07
-4.01624e-05
-1.46133e-07
-3.98872e-05
-8.12887e-07
-3.94132e-05
-1.49057e-06
-3.87412e-05
-2.16994e-06
-3.78743e-05
-2.84081e-06
-3.68192e-05
-3.49242e-06
-3.55851e-05
-4.11377e-06
-3.41846e-05
-4.694e-06
-3.26328e-05
-5.22299e-06
-3.09473e-05
-5.69162e-06
-2.91478e-05
-6.09245e-06
-2.72553e-05
-6.41978e-06
-2.52916e-05
-6.67032e-06
-2.32789e-05
-6.84275e-06
-2.12386e-05
-6.93837e-06
-1.91915e-05
-6.95998e-06
-1.71568e-05
-6.91233e-06
-1.51525e-05
-6.80033e-06
-1.31948e-05
-6.62919e-06
-1.12995e-05
-6.40197e-06
-9.48146e-06
-6.11961e-06
-7.75729e-06
-5.77826e-06
-6.14486e-06
-5.36987e-06
-4.66637e-06
-4.88125e-06
-3.34642e-06
-4.29681e-06
-2.21463e-06
-3.6037e-06
-1.29851e-06
-2.79873e-06
-6.24387e-07
-1.90555e-06
-2.0016e-07
-9.86687e-07
-1.49693e-08
-1.87083e-07
2.31078e-07
-5.16644e-07
1.78911e-06
-1.67653e-06
4.35418e-06
-3.26493e-06
6.09707e-06
-5.1014e-06
7.24426e-06
-7.1011e-06
7.93978e-06
-9.18263e-06
8.33714e-06
-1.13128e-05
8.52727e-06
-1.3455e-05
8.59477e-06
-1.55973e-05
8.58064e-06
-1.77224e-05
8.5203e-06
-1.98248e-05
8.42496e-06
-2.18942e-05
8.30533e-06
-2.39259e-05
8.16065e-06
-2.59111e-05
7.99216e-06
-2.78437e-05
7.79587e-06
-2.97146e-05
7.56992e-06
-3.1516e-05
7.3099e-06
-3.32376e-05
7.013e-06
-3.48701e-05
6.6751e-06
-3.64019e-05
6.29332e-06
-3.78221e-05
5.86421e-06
-3.91184e-05
5.38547e-06
-4.02788e-05
4.85486e-06
-4.12906e-05
4.2714e-06
-4.21418e-05
3.63476e-06
-4.28202e-05
2.94606e-06
-4.33147e-05
2.2076e-06
-4.36152e-05
1.42341e-06
-4.37129e-05
5.9902e-07
-4.36008e-05
-2.58176e-07
-4.32743e-05
-1.13914e-06
-4.27312e-05
-2.03315e-06
-4.19725e-05
-2.92803e-06
-4.10019e-05
-3.81046e-06
-3.98269e-05
-4.66631e-06
-3.84582e-05
-5.4812e-06
-3.69098e-05
-6.24093e-06
-3.51988e-05
-6.93232e-06
-3.33451e-05
-7.54346e-06
-3.13709e-05
-8.06475e-06
-2.92997e-05
-8.48885e-06
-2.71562e-05
-8.81164e-06
-2.49651e-05
-9.03163e-06
-2.27505e-05
-9.15079e-06
-2.05351e-05
-9.17306e-06
-1.83402e-05
-9.10504e-06
-1.61849e-05
-8.95334e-06
-1.40867e-05
-8.72528e-06
-1.20616e-05
-8.42499e-06
-1.01248e-05
-8.05439e-06
-8.2927e-06
-7.6086e-06
-6.58251e-06
-7.07833e-06
-5.01589e-06
-6.44646e-06
-3.61652e-06
-5.69478e-06
-2.41369e-06
-4.80563e-06
-1.43438e-06
-3.77696e-06
-7.06241e-07
-2.6334e-06
-2.38663e-07
-1.45338e-06
-2.5205e-08
-4.00936e-07
2.06485e-07
-5.53899e-07
2.3406e-06
-1.80078e-06
5.60851e-06
-3.5049e-06
7.79683e-06
-5.46975e-06
9.21457e-06
-7.60353e-06
1.00716e-05
-9.81962e-06
1.05573e-05
-1.20842e-05
1.07913e-05
-1.43593e-05
1.08731e-05
-1.66336e-05
1.08552e-05
-1.88888e-05
1.07781e-05
-2.11199e-05
1.06569e-05
-2.33157e-05
1.05033e-05
-2.54714e-05
1.03174e-05
-2.75773e-05
1.01001e-05
-2.96273e-05
9.84701e-06
-3.16113e-05
9.55566e-06
-3.3521e-05
9.22093e-06
-3.53457e-05
8.83923e-06
-3.70751e-05
8.4057e-06
-3.86972e-05
7.91672e-06
-4.02001e-05
7.36822e-06
-4.15709e-05
6.75735e-06
-4.27966e-05
6.08149e-06
-4.38637e-05
5.33947e-06
-4.47593e-05
4.53103e-06
-4.54702e-05
3.65763e-06
-4.59844e-05
2.72229e-06
-4.62908e-05
1.73007e-06
-4.63796e-05
6.8801e-07
-4.62432e-05
-3.94595e-07
-4.58762e-05
-1.50634e-06
-4.52759e-05
-2.63371e-06
-4.44432e-05
-3.76134e-06
-4.33819e-05
-4.87239e-06
-4.21001e-05
-5.94897e-06
-4.06095e-05
-6.97284e-06
-3.89256e-05
-7.92597e-06
-3.70677e-05
-8.79159e-06
-3.5058e-05
-9.55458e-06
-3.29215e-05
-1.02027e-05
-3.06852e-05
-1.07268e-05
-2.83768e-05
-1.11218e-05
-2.60242e-05
-1.13859e-05
-2.36547e-05
-1.15221e-05
-2.12939e-05
-1.15357e-05
-1.89649e-05
-1.14358e-05
-1.66889e-05
-1.12311e-05
-1.44839e-05
-1.09319e-05
-1.23665e-05
-1.0544e-05
-1.03516e-05
-1.00708e-05
-8.45485e-06
-9.50684e-06
-6.69227e-06
-8.84217e-06
-5.08422e-06
-8.05574e-06
-3.65296e-06
-7.12694e-06
-2.42667e-06
-6.0329e-06
-1.43154e-06
-4.77254e-06
-6.94976e-07
-3.37077e-06
-2.26384e-07
-1.92188e-06
-1.8144e-08
-6.10078e-07
1.88516e-07
-5.82192e-07
2.91852e-06
-1.89354e-06
6.92583e-06
-3.68352e-06
9.58009e-06
-5.74433e-06
1.12788e-05
-7.97848e-06
1.23012e-05
-1.02954e-05
1.28758e-05
-1.26607e-05
1.31533e-05
-1.50356e-05
1.32484e-05
-1.74089e-05
1.3226e-05
-1.97625e-05
1.31314e-05
-2.20914e-05
1.29838e-05
-2.43842e-05
1.27955e-05
-2.6636e-05
1.25675e-05
-2.88369e-05
1.23002e-05
-3.09804e-05
1.19889e-05
-3.3056e-05
1.16304e-05
-3.50553e-05
1.12189e-05
-3.69668e-05
1.07498e-05
-3.87798e-05
1.02176e-05
-4.04818e-05
9.61781e-06
-4.20601e-05
8.94564e-06
-4.35011e-05
8.1976e-06
-4.4791e-05
7.37061e-06
-4.59153e-05
6.46318e-06
-4.68599e-05
5.47499e-06
-4.76105e-05
4.40777e-06
-4.81536e-05
3.2651e-06
-4.84768e-05
2.05306e-06
-4.85691e-05
7.80135e-07
-4.84212e-05
-5.42433e-07
-4.80266e-05
-1.90077e-06
-4.73817e-05
-3.27835e-06
-4.64863e-05
-4.65634e-06
-4.53442e-05
-6.01395e-06
-4.39635e-05
-7.32901e-06
-4.23567e-05
-8.57881e-06
-4.05409e-05
-9.74083e-06
-3.85375e-05
-1.0794e-05
-3.63717e-05
-1.17193e-05
-3.40719e-05
-1.25014e-05
-3.16688e-05
-1.31286e-05
-2.91944e-05
-1.35948e-05
-2.66809e-05
-1.3898e-05
-2.41593e-05
-1.40423e-05
-2.16586e-05
-1.40349e-05
-1.9205e-05
-1.38879e-05
-1.68215e-05
-1.36133e-05
-1.45274e-05
-1.32247e-05
-1.23396e-05
-1.27305e-05
-1.02725e-05
-1.21368e-05
-8.34023e-06
-1.14379e-05
-6.5575e-06
-1.06238e-05
-4.9425e-06
-9.66982e-06
-3.5156e-06
-8.55297e-06
-2.30289e-06
-7.24499e-06
-1.32905e-06
-5.74567e-06
-6.19384e-07
-4.0802e-06
-1.8137e-07
-2.35924e-06
-1.52492e-09
-7.9014e-07
1.87521e-07
-6.0137e-07
3.51688e-06
-1.95931e-06
8.29156e-06
-3.81277e-06
1.14282e-05
-5.94576e-06
1.34173e-05
-8.25634e-06
1.4609e-05
-1.06508e-05
1.52741e-05
-1.30939e-05
1.55951e-05
-1.55463e-05
1.57035e-05
-1.79973e-05
1.56767e-05
-2.04286e-05
1.55649e-05
-2.28359e-05
1.53912e-05
-2.52075e-05
1.51688e-05
-2.75389e-05
1.48994e-05
-2.982e-05
1.45827e-05
-3.20443e-05
1.42139e-05
-3.42012e-05
1.37886e-05
-3.6282e-05
1.33004e-05
-3.82749e-05
1.27438e-05
-4.01689e-05
1.21123e-05
-4.19508e-05
1.14006e-05
-4.36076e-05
1.0603e-05
-4.51245e-05
9.71526e-06
-4.64869e-05
8.73356e-06
-4.76791e-05
7.65594e-06
-4.86855e-05
6.48184e-06
-4.94903e-05
5.21299e-06
-5.00784e-05
3.8534e-06
-5.04351e-05
2.40998e-06
-5.05474e-05
8.9257e-07
-5.04042e-05
-6.85663e-07
-4.99968e-05
-2.30828e-06
-4.93198e-05
-3.95558e-06
-4.83716e-05
-5.60484e-06
-4.71552e-05
-7.23084e-06
-4.56783e-05
-8.80643e-06
-4.39541e-05
-1.03036e-05
-4.20012e-05
-1.16945e-05
-3.98434e-05
-1.29526e-05
-3.75092e-05
-1.40543e-05
-3.50315e-05
-1.49801e-05
-3.24459e-05
-1.57153e-05
-2.97896e-05
-1.62522e-05
-2.71001e-05
-1.65885e-05
-2.44137e-05
-1.67298e-05
-2.17639e-05
-1.66858e-05
-1.91806e-05
-1.64724e-05
-1.66892e-05
-1.61057e-05
-1.43106e-05
-1.56043e-05
-1.20618e-05
-1.49802e-05
-9.95648e-06
-1.42431e-05
-8.00711e-06
-1.33881e-05
-6.22615e-06
-1.24056e-05
-4.6291e-06
-1.12675e-05
-3.23393e-06
-9.94879e-06
-2.06381e-06
-8.41561e-06
-1.14129e-06
-6.66862e-06
-4.87882e-07
-4.73399e-06
-1.07139e-07
-2.74016e-06
2.41562e-08
-9.21878e-07
2.11658e-07
-6.16726e-07
4.12932e-06
-2.01024e-06
9.69179e-06
-3.91208e-06
1.33232e-05
-6.10053e-06
1.56099e-05
-8.47033e-06
1.69743e-05
-1.09255e-05
1.77315e-05
-1.34304e-05
1.80968e-05
-1.59451e-05
1.82193e-05
-1.84596e-05
1.81889e-05
-2.09556e-05
1.80613e-05
-2.34293e-05
1.78632e-05
-2.58694e-05
1.76088e-05
-2.82716e-05
1.73002e-05
-3.06259e-05
1.69366e-05
-3.29259e-05
1.65128e-05
-3.5161e-05
1.60233e-05
-3.73226e-05
1.5461e-05
-3.93985e-05
1.48192e-05
-4.13776e-05
1.40906e-05
-4.3246e-05
1.32686e-05
-4.49901e-05
1.23465e-05
-4.65944e-05
1.13191e-05
-4.80429e-05
1.01816e-05
-4.93186e-05
8.93125e-06
-5.04041e-05
7.56702e-06
-5.12817e-05
6.09032e-06
-5.19338e-05
4.50528e-06
-5.23434e-05
2.81937e-06
-5.24945e-05
1.04361e-06
-5.23731e-05
-8.07018e-07
-5.19678e-05
-2.71348e-06
-5.12706e-05
-4.65266e-06
-5.02776e-05
-6.59758e-06
-4.89902e-05
-8.51795e-06
-4.74154e-05
-1.03808e-05
-4.55668e-05
-1.21518e-05
-4.34643e-05
-1.37964e-05
-4.11346e-05
-1.52817e-05
-3.86106e-05
-1.65776e-05
-3.59302e-05
-1.76597e-05
-3.31353e-05
-1.85094e-05
-3.027e-05
-1.91167e-05
-2.73788e-05
-1.94788e-05
-2.45046e-05
-1.96032e-05
-2.16868e-05
-1.95027e-05
-1.896e-05
-1.91984e-05
-1.63528e-05
-1.87119e-05
-1.38879e-05
-1.80684e-05
-1.15823e-05
-1.72849e-05
-9.44845e-06
-1.63763e-05
-7.49644e-06
-1.53393e-05
-5.73578e-06
-1.41658e-05
-4.17823e-06
-1.28243e-05
-2.83858e-06
-1.12881e-05
-1.736e-06
-9.51756e-06
-8.89923e-07
-7.51449e-06
-3.16464e-07
-5.30694e-06
-1.34704e-08
-3.04309e-06
5.49388e-08
-9.89946e-07
2.66778e-07
-6.27991e-07
4.75393e-06
-2.04898e-06
1.11207e-05
-3.98881e-06
1.52572e-05
-6.22144e-06
1.78481e-05
-8.63918e-06
1.93887e-05
-1.11444e-05
2.02404e-05
-1.3701e-05
2.06516e-05
-1.62691e-05
2.07899e-05
-1.88389e-05
2.07579e-05
-2.13926e-05
2.06168e-05
-2.3927e-05
2.03974e-05
-2.6431e-05
2.01142e-05
-2.89009e-05
1.97702e-05
-3.1327e-05
1.93638e-05
-3.37032e-05
1.88892e-05
-3.6019e-05
1.83401e-05
-3.82659e-05
1.77082e-05
-4.04316e-05
1.69857e-05
-4.25047e-05
1.61641e-05
-4.44711e-05
1.52355e-05
-4.63162e-05
1.41921e-05
-4.80237e-05
1.3027e-05
-4.95762e-05
1.17345e-05
-5.09551e-05
1.03105e-05
-5.2141e-05
8.75314e-06
-5.31135e-05
7.06306e-06
-5.38522e-05
5.24412e-06
-5.43367e-05
3.30399e-06
-5.45476e-05
1.25454e-06
-5.4467e-05
-8.87601e-07
-5.40797e-05
-3.10084e-06
-5.33741e-05
-5.35846e-06
-5.23431e-05
-7.62879e-06
-5.09856e-05
-9.87571e-06
-4.93073e-05
-1.20594e-05
-4.73217e-05
-1.41379e-05
-4.50502e-05
-1.60683e-05
-4.25229e-05
-1.78095e-05
-3.97775e-05
-1.93236e-05
-3.68586e-05
-2.05792e-05
-3.38162e-05
-2.15524e-05
-3.07031e-05
-2.22304e-05
-2.75729e-05
-2.26096e-05
-2.44772e-05
-2.26996e-05
-2.14629e-05
-2.25175e-05
-1.85707e-05
-2.20913e-05
-1.58333e-05
-2.14499e-05
-1.32753e-05
-2.06272e-05
-1.09134e-05
-1.96473e-05
-8.75833e-06
-1.85321e-05
-6.81653e-06
-1.72814e-05
-5.09351e-06
-1.58895e-05
-3.59603e-06
-1.4322e-05
-2.33462e-06
-1.25501e-05
-1.32328e-06
-1.05289e-05
-5.77352e-07
-8.2611e-06
-1.06117e-07
-5.77794e-06
9.9858e-08
-3.24983e-06
9.15205e-08
-9.81238e-07
3.57917e-07
-6.37949e-07
5.38759e-06
-2.08184e-06
1.25718e-05
-4.05319e-06
1.72216e-05
-6.32271e-06
2.01222e-05
-8.78095e-06
2.18425e-05
-1.13292e-05
2.27913e-05
-1.39311e-05
2.32506e-05
-1.6547e-05
2.34071e-05
-1.91675e-05
2.33764e-05
-2.17755e-05
2.32254e-05
-2.43682e-05
2.29886e-05
-2.69351e-05
2.26814e-05
-2.94732e-05
2.23072e-05
-3.1973e-05
2.18636e-05
-3.44291e-05
2.13444e-05
-3.68312e-05
2.0742e-05
-3.91708e-05
2.00471e-05
-4.14359e-05
1.92506e-05
-4.36149e-05
1.83425e-05
-4.56931e-05
1.73134e-05
-4.76554e-05
1.61539e-05
-4.94843e-05
1.48556e-05
-5.11612e-05
1.34109e-05
-5.26653e-05
1.18144e-05
-5.39748e-05
1.00624e-05
-5.50666e-05
8.15461e-06
-5.59165e-05
6.09389e-06
-5.65003e-05
3.88763e-06
-5.67939e-05
1.54811e-06
-5.67748e-05
-9.06745e-07
-5.64227e-05
-3.4529e-06
-5.57212e-05
-6.05994e-06
-5.46588e-05
-8.69102e-06
-5.32309e-05
-1.13034e-05
-5.1441e-05
-1.38491e-05
-4.93017e-05
-1.62769e-05
-4.68361e-05
-1.85336e-05
-4.40778e-05
-2.05674e-05
-4.10706e-05
-2.23303e-05
-3.78676e-05
-2.37818e-05
-3.45286e-05
-2.48909e-05
-3.11181e-05
-2.56404e-05
-2.77013e-05
-2.60259e-05
-2.4341e-05
-2.60595e-05
-2.10941e-05
-2.57638e-05
-1.8009e-05
-2.5176e-05
-1.51233e-05
-2.43349e-05
-1.24639e-05
-2.32862e-05
-1.00466e-05
-2.20639e-05
-7.87926e-06
-2.06992e-05
-5.9631e-06
-1.91969e-05
-4.29798e-06
-1.75545e-05
-2.88386e-06
-1.57354e-05
-1.72553e-06
-1.37086e-05
-8.30352e-07
-1.14232e-05
-2.08507e-07
-8.88335e-06
1.38912e-07
-6.12433e-06
2.29895e-07
-3.34163e-06
1.32519e-07
-8.8266e-07
4.901e-07
-6.4605e-07
6.03004e-06
-2.10948e-06
1.40433e-05
-4.10813e-06
1.9214e-05
-6.4099e-06
2.24295e-05
-8.90412e-06
2.43331e-05
-1.14912e-05
2.53821e-05
-1.41351e-05
2.58924e-05
-1.6796e-05
2.60705e-05
-1.94655e-05
2.60448e-05
-2.21268e-05
2.58884e-05
-2.4778e-05
2.56394e-05
-2.74093e-05
2.53139e-05
-3.00182e-05
2.4916e-05
-3.2596e-05
2.44424e-05
-3.51377e-05
2.38862e-05
-3.76335e-05
2.32385e-05
-4.00754e-05
2.24891e-05
-4.24513e-05
2.16271e-05
-4.47497e-05
2.06411e-05
-4.69556e-05
1.95198e-05
-4.90532e-05
1.82518e-05
-5.10239e-05
1.68267e-05
-5.28476e-05
1.52348e-05
-5.45014e-05
1.34685e-05
-5.59609e-05
1.15221e-05
-5.71993e-05
9.39316e-06
-5.81885e-05
7.08319e-06
-5.88993e-05
4.5985e-06
-5.93022e-05
1.95111e-06
-5.93687e-05
-8.40263e-07
-5.90722e-05
-3.74947e-06
-5.83899e-05
-6.74238e-06
-5.73044e-05
-9.77658e-06
-5.58062e-05
-1.28018e-05
-5.38951e-05
-1.57605e-05
-5.15823e-05
-1.85899e-05
-4.8892e-05
-2.12241e-05
-4.58619e-05
-2.35978e-05
-4.25432e-05
-2.56493e-05
-3.8999e-05
-2.73263e-05
-3.53022e-05
-2.8588e-05
-3.15317e-05
-2.94114e-05
-2.7768e-05
-2.97899e-05
-2.40888e-05
-2.97392e-05
-2.05636e-05
-2.92893e-05
-1.7251e-05
-2.84891e-05
-1.41947e-05
-2.73914e-05
-1.1424e-05
-2.60575e-05
-8.95295e-06
-2.4535e-05
-6.78484e-06
-2.2868e-05
-4.91357e-06
-2.10681e-05
-3.3309e-06
-1.91379e-05
-2.02766e-06
-1.70383e-05
-1.00097e-06
-1.47362e-05
-2.49886e-07
-1.21737e-05
2.21679e-07
-9.35609e-06
4.22028e-07
-6.32366e-06
3.78771e-07
-3.30001e-06
1.78986e-07
-6.81404e-07
6.68191e-07
-6.53724e-07
6.67944e-06
-2.13477e-06
1.55319e-05
-4.15798e-06
2.12301e-05
-6.48901e-06
2.47654e-05
-9.01624e-06
2.68559e-05
-1.16396e-05
2.80083e-05
-1.43232e-05
2.8573e-05
-1.70278e-05
2.87767e-05
-1.97456e-05
2.87606e-05
-2.24604e-05
2.86041e-05
-2.51714e-05
2.83489e-05
-2.78693e-05
2.80123e-05
-3.05527e-05
2.75983e-05
-3.32135e-05
2.71032e-05
-3.58473e-05
2.65193e-05
-3.84452e-05
2.58363e-05
-4.09994e-05
2.50427e-05
-4.34983e-05
2.41259e-05
-4.59305e-05
2.30728e-05
-4.82808e-05
2.18699e-05
-5.05329e-05
2.05035e-05
-5.26671e-05
1.89607e-05
-5.46619e-05
1.72292e-05
-5.64919e-05
1.52984e-05
-5.813e-05
1.31599e-05
-5.95454e-05
1.08084e-05
-6.07054e-05
8.24303e-06
-6.15751e-05
5.46806e-06
-6.21185e-05
2.49438e-06
-6.22995e-05
-6.59281e-07
-6.20837e-05
-3.96525e-06
-6.14402e-05
-7.38589e-06
-6.03438e-05
-1.0873e-05
-5.87779e-05
-1.43676e-05
-5.6737e-05
-1.78011e-05
-5.423e-05
-2.10968e-05
-5.12813e-05
-2.41726e-05
-4.79332e-05
-2.69457e-05
-4.42451e-05
-2.93371e-05
-4.02928e-05
-3.12783e-05
-3.6165e-05
-3.27154e-05
-3.19592e-05
-3.3617e-05
-2.77752e-05
-3.39734e-05
-2.371e-05
-3.38042e-05
-1.98499e-05
-3.31489e-05
-1.62666e-05
-3.20723e-05
-1.3012e-05
-3.06454e-05
-1.01181e-05
-2.89514e-05
-7.59621e-06
-2.70562e-05
-5.44278e-06
-2.50215e-05
-3.64119e-06
-2.28689e-05
-2.17185e-06
-2.06076e-05
-1.01318e-06
-1.8196e-05
-1.52044e-07
-1.5598e-05
4.22855e-07
-1.27474e-05
7.1509e-07
-9.64949e-06
7.43458e-07
-6.35026e-06
5.45945e-07
-3.10441e-06
2.30369e-07
-3.63462e-07
8.97567e-07
-6.60172e-07
7.33589e-06
-2.15701e-06
1.70369e-05
-4.20272e-06
2.32694e-05
-6.56085e-06
2.71291e-05
-9.1191e-06
2.94104e-05
-1.17771e-05
3.06699e-05
-1.44993e-05
3.12931e-05
-1.7247e-05
3.15268e-05
-2.00131e-05
3.15256e-05
-2.27825e-05
3.13751e-05
-2.5555e-05
3.11209e-05
-2.83224e-05
3.07809e-05
-3.10841e-05
3.03599e-05
-3.38331e-05
2.98531e-05
-3.65659e-05
2.92521e-05
-3.92742e-05
2.85453e-05
-4.19512e-05
2.77197e-05
-4.45857e-05
2.6761e-05
-4.71665e-05
2.56538e-05
-4.96786e-05
2.43824e-05
-5.21054e-05
2.29304e-05
-5.44263e-05
2.12819e-05
-5.66181e-05
1.94212e-05
-5.86536e-05
1.73341e-05
-6.05022e-05
1.50086e-05
-6.21292e-05
1.24356e-05
-6.34966e-05
9.61048e-06
-6.45629e-05
6.53443e-06
-6.52844e-05
3.21592e-06
-6.56161e-05
-3.27504e-07
-6.55139e-05
-4.06753e-06
-6.49363e-05
-7.96353e-06
-6.3848e-05
-1.19613e-05
-6.22233e-05
-1.59924e-05
-6.00496e-05
-1.99749e-05
-5.73314e-05
-2.38152e-05
-5.40931e-05
-2.7411e-05
-5.03812e-05
-3.06578e-05
-4.62646e-05
-3.34539e-05
-4.18331e-05
-3.571e-05
-3.71938e-05
-3.73549e-05
-3.2466e-05
-3.8345e-05
-2.77737e-05
-3.86658e-05
-2.32383e-05
-3.834e-05
-1.89685e-05
-3.74187e-05
-1.50544e-05
-3.59869e-05
-1.15596e-05
-3.41402e-05
-8.52078e-06
-3.19908e-05
-5.9459e-06
-2.96308e-05
-3.82183e-06
-2.71463e-05
-2.11744e-06
-2.45728e-05
-7.97075e-07
-2.19289e-05
1.77739e-07
-1.91701e-05
8.3406e-07
-1.62557e-05
1.19625e-06
-1.31083e-05
1.27678e-06
-9.73188e-06
1.10601e-06
-6.17751e-06
7.32796e-07
-2.73397e-06
2.8723e-07
8.49621e-08
1.18324e-06
-6.66184e-07
7.99767e-06
-2.17729e-06
1.85557e-05
-4.24355e-06
2.53285e-05
-6.62679e-06
2.95173e-05
-9.21422e-06
3.19932e-05
-1.19053e-05
3.33639e-05
-1.46649e-05
3.40498e-05
-1.7455e-05
3.43185e-05
-2.02695e-05
3.43381e-05
-2.30939e-05
3.42004e-05
-2.59294e-05
3.3955e-05
-2.87687e-05
3.36207e-05
-3.16124e-05
3.32026e-05
-3.44544e-05
3.26952e-05
-3.72924e-05
3.20894e-05
-4.01192e-05
3.13721e-05
-4.29289e-05
3.05288e-05
-4.57112e-05
2.95431e-05
-4.84555e-05
2.83977e-05
-5.11471e-05
2.70738e-05
-5.37693e-05
2.55523e-05
-5.6301e-05
2.38134e-05
-5.87178e-05
2.18377e-05
-6.09904e-05
1.96065e-05
-6.3085e-05
1.7103e-05
-6.49628e-05
1.43132e-05
-6.65798e-05
1.12273e-05
-6.78874e-05
7.84191e-06
-6.8833e-05
4.16135e-06
-6.9361e-05
2.00455e-07
-6.94155e-05
-4.01315e-06
-6.89424e-05
-8.43658e-06
-6.78942e-05
-1.30095e-05
-6.62339e-05
-1.76527e-05
-6.39403e-05
-2.22685e-05
-6.10128e-05
-2.67426e-05
-5.74753e-05
-3.09485e-05
-5.33779e-05
-3.47551e-05
-4.87973e-05
-3.80342e-05
-4.3836e-05
-4.06713e-05
-3.86176e-05
-4.25731e-05
-3.32834e-05
-4.36792e-05
-2.79835e-05
-4.39653e-05
-2.28696e-05
-4.34539e-05
-1.80812e-05
-4.22066e-05
-1.37368e-05
-4.03314e-05
-9.92075e-06
-3.79556e-05
-6.68098e-06
-3.52308e-05
-4.02446e-06
-3.22866e-05
-1.92699e-06
-2.92443e-05
-3.38017e-07
-2.61608e-05
8.00806e-07
-2.30686e-05
1.55171e-06
-1.99197e-05
1.9615e-06
-1.66667e-05
2.07181e-06
-1.32168e-05
1.90637e-06
-9.56847e-06
1.50835e-06
-5.77675e-06
9.37922e-07
-2.16676e-06
3.48751e-07
6.77968e-07
1.53021e-06
-6.70745e-07
8.66466e-06
-2.19412e-06
2.00875e-05
-4.27877e-06
2.74066e-05
-6.68503e-06
3.19294e-05
-9.29974e-06
3.46042e-05
-1.20222e-05
3.60901e-05
-1.48181e-05
3.68434e-05
-1.76497e-05
3.71527e-05
-2.05122e-05
3.71994e-05
-2.3392e-05
3.7082e-05
-2.62915e-05
3.68538e-05
-2.92045e-05
3.65349e-05
-3.2133e-05
3.61307e-05
-3.5072e-05
3.56352e-05
-3.80208e-05
3.50382e-05
-4.09733e-05
3.43253e-05
-4.3925e-05
3.34805e-05
-4.68666e-05
3.24853e-05
-4.97888e-05
3.13199e-05
-5.26774e-05
2.99628e-05
-5.55162e-05
2.83912e-05
-5.82839e-05
2.65814e-05
-6.09554e-05
2.45093e-05
-6.34995e-05
2.21509e-05
-6.58798e-05
1.94834e-05
-6.80528e-05
1.64864e-05
-6.99689e-05
1.31435e-05
-7.15714e-05
9.44455e-06
-7.27978e-05
5.38785e-06
-7.35808e-05
9.83556e-07
-7.38511e-05
-3.74283e-06
-7.3541e-05
-8.74662e-06
-7.25901e-05
-1.39604e-05
-7.09511e-05
-1.92917e-05
-6.85962e-05
-2.46234e-05
-6.55219e-05
-2.9817e-05
-6.17512e-05
-3.47192e-05
-5.73346e-05
-3.91719e-05
-5.23481e-05
-4.30208e-05
-4.68936e-05
-4.61261e-05
-4.1097e-05
-4.83697e-05
-3.51095e-05
-4.96671e-05
-2.9102e-05
-4.99728e-05
-2.32604e-05
-4.92959e-05
-1.77691e-05
-4.76978e-05
-1.2796e-05
-4.53051e-05
-8.46967e-06
-4.22815e-05
-4.86946e-06
-3.88318e-05
-2.01414e-06
-3.51413e-05
1.27894e-07
-3.13873e-05
1.63095e-06
-2.7663e-05
2.5857e-06
-2.40247e-05
3.08951e-06
-2.04222e-05
3.21954e-06
-1.67986e-05
3.04276e-06
-1.3038e-05
2.59906e-06
-9.12747e-06
1.94715e-06
-5.12172e-06
1.15938e-06
-1.38311e-06
4.14327e-07
1.42753e-06
1.94216e-06
-6.74465e-07
9.3346e-06
-2.20785e-06
2.16285e-05
-4.30818e-06
2.94996e-05
-6.73475e-06
3.43609e-05
-9.37417e-06
3.72389e-05
-1.21258e-05
3.88446e-05
-1.49557e-05
3.96703e-05
-1.78273e-05
4.00259e-05
-2.07365e-05
4.01065e-05
-2.3671e-05
4.00173e-05
-2.66344e-05
3.98157e-05
-2.96218e-05
3.95228e-05
-3.26367e-05
3.91446e-05
-3.56757e-05
3.86743e-05
-3.87395e-05
3.81012e-05
-4.18237e-05
3.74095e-05
-4.49253e-05
3.65816e-05
-4.8037e-05
3.55968e-05
-5.11505e-05
3.4433e-05
-5.42532e-05
3.30653e-05
-5.73298e-05
3.14674e-05
-6.03595e-05
2.96109e-05
-6.33168e-05
2.74663e-05
-6.61696e-05
2.50035e-05
-6.88789e-05
2.21924e-05
-7.13975e-05
1.90048e-05
-7.36697e-05
1.54156e-05
-7.5631e-05
1.14057e-05
-7.72087e-05
6.96534e-06
-7.83236e-05
2.09835e-06
-7.88943e-05
-3.17227e-06
-7.88427e-05
-8.79829e-06
-7.81021e-05
-1.4701e-05
-7.66248e-05
-2.07691e-05
-7.43872e-05
-2.6861e-05
-7.1391e-05
-3.28133e-05
-6.76579e-05
-3.84524e-05
-6.32245e-05
-4.36055e-05
-5.81374e-05
-4.81079e-05
-5.24575e-05
-5.18063e-05
-4.62685e-05
-5.45589e-05
-3.96925e-05
-5.62435e-05
-3.28988e-05
-5.67666e-05
-2.6107e-05
-5.60882e-05
-1.95694e-05
-5.42352e-05
-1.35468e-05
-5.13283e-05
-8.26602e-06
-4.75617e-05
-3.88984e-06
-4.32086e-05
-4.88325e-07
-3.85419e-05
1.9573e-06
-3.38338e-05
3.54409e-06
-2.92484e-05
4.40845e-06
-2.48904e-05
4.70312e-06
-2.0715e-05
4.55658e-06
-1.66541e-05
4.07828e-06
-1.2557e-05
3.33609e-06
-8.38828e-06
2.41115e-06
-4.19287e-06
1.3912e-06
-3.67883e-07
4.81847e-07
2.34244e-06
2.42133e-06
-6.76073e-07
1.0007e-05
-2.21646e-06
2.31775e-05
-4.32918e-06
3.16059e-05
-6.77283e-06
3.68105e-05
-9.4339e-06
3.98963e-05
-1.22118e-05
4.16265e-05
-1.50733e-05
4.25298e-05
-1.79825e-05
4.29377e-05
-2.09364e-05
4.30593e-05
-2.3924e-05
4.30067e-05
-2.695e-05
4.28413e-05
-3.00114e-05
4.25854e-05
-3.3113e-05
4.22459e-05
-3.62532e-05
4.18154e-05
-3.94346e-05
4.12826e-05
-4.26549e-05
4.06304e-05
-4.5913e-05
3.98398e-05
-4.92036e-05
3.88879e-05
-5.25207e-05
3.77502e-05
-5.58534e-05
3.63985e-05
-5.91883e-05
3.48024e-05
-6.25057e-05
3.29287e-05
-6.57811e-05
3.07419e-05
-6.89818e-05
2.82045e-05
-7.20677e-05
2.52784e-05
-7.49881e-05
2.19255e-05
-7.76827e-05
1.81103e-05
-8.00796e-05
1.38028e-05
-8.2098e-05
8.98393e-06
-8.36513e-05
3.65177e-06
-8.46545e-05
-2.16893e-06
-8.5035e-05
-8.41763e-06
-8.47439e-05
-1.49921e-05
-8.37624e-05
-2.17506e-05
-8.20989e-05
-2.85245e-05
-7.97738e-05
-3.51387e-05
-7.67957e-05
-4.14307e-05
-7.31434e-05
-4.72583e-05
-6.87608e-05
-5.24912e-05
-6.35757e-05
-5.69924e-05
-5.75353e-05
-6.06002e-05
-5.06538e-05
-6.31263e-05
-4.3049e-05
-6.43724e-05
-3.49648e-05
-6.4174e-05
-2.67556e-05
-6.24451e-05
-1.88496e-05
-5.92358e-05
-1.16737e-05
-5.47376e-05
-5.58516e-06
-4.92985e-05
-8.00279e-07
-4.3326e-05
2.62519e-06
-3.72608e-05
4.78996e-06
-3.14118e-05
5.8901e-06
-2.59924e-05
6.16772e-06
-2.09905e-05
5.84363e-06
-1.63326e-05
5.10583e-06
-1.18163e-05
4.07738e-06
-7.36351e-06
2.87914e-06
-2.99024e-06
1.62367e-06
8.81963e-07
5.48542e-07
3.42387e-06
2.9666e-06
-6.76339e-07
1.06786e-05
-2.22031e-06
2.4729e-05
-4.34123e-06
3.37193e-05
-6.79771e-06
3.92717e-05
-9.47624e-06
4.25699e-05
-1.22764e-05
4.44294e-05
-1.51657e-05
4.54158e-05
-1.81088e-05
4.58823e-05
-2.11041e-05
4.60523e-05
-2.41415e-05
4.60449e-05
-2.72276e-05
4.59258e-05
-3.03607e-05
4.57188e-05
-3.35475e-05
4.54316e-05
-3.67885e-05
4.50564e-05
-4.00883e-05
4.45816e-05
-4.34469e-05
4.39889e-05
-4.68659e-05
4.32581e-05
-5.03425e-05
4.23643e-05
-5.38734e-05
4.12806e-05
-5.74505e-05
3.99754e-05
-6.10629e-05
3.84143e-05
-6.46933e-05
3.65589e-05
-6.83191e-05
3.43672e-05