/*--------------------------------*- C++ -*----------------------------------*\
| =========                 |                                                 |
| \\      /  F ield         | OpenFOAM: The Open Source CFD Toolbox           |
|  \\    /   O peration     | Version:  2406                                  |
|   \\  /    A nd           | Website:  www.openfoam.com                      |
|    \\/     M anipulation  |                                                 |
\*---------------------------------------------------------------------------*/
FoamFile
{
    version     2.0;
    format      ascii;
    arch        "LSB;label=32;scalar=64";
    class       surfaceScalarField;
    location    "47.95";
    object      phi;
}
// * * * * * * * * * * * * * * * * * * * * * * * * * * * * * * * * * * * * * //

dimensions      [0 3 -1 0 0 0 0];

oriented        oriented;

internalField   nonuniform List<scalar> 
28560
(
-4.06477e-09
4.08175e-09
4.97619e-08
-5.38267e-08
1.7874e-07
-1.28978e-07
3.70233e-07
-1.91492e-07
6.05478e-07
-2.35245e-07
8.64571e-07
-2.59093e-07
1.12906e-06
-2.6449e-07
1.3833e-06
-2.54243e-07
1.61525e-06
-2.31949e-07
1.81678e-06
-2.01531e-07
1.98366e-06
-1.66873e-07
2.11515e-06
-1.3149e-07
2.21342e-06
-9.82734e-08
2.28275e-06
-6.9327e-08
2.32865e-06
-4.59027e-08
2.35708e-06
-2.84263e-08
2.37374e-06
-1.6663e-08
2.38314e-06
-9.39969e-09
2.3885e-06
-5.36484e-09
2.39145e-06
-2.94699e-09
2.39152e-06
-7.18723e-11
2.3876e-06
3.91747e-09
2.37642e-06
1.1186e-08
2.35387e-06
2.25513e-08
2.3152e-06
3.867e-08
2.25529e-06
5.99105e-08
2.16885e-06
8.64337e-08
2.05056e-06
1.18294e-07
1.89504e-06
1.55522e-07
1.69686e-06
1.98177e-07
1.4505e-06
2.46361e-07
1.1503e-06
3.00195e-07
7.90523e-07
3.59781e-07
3.65375e-07
4.25148e-07
-1.30833e-07
4.96208e-07
-7.03551e-07
5.72718e-07
-1.3578e-06
6.54251e-07
-2.09798e-06
7.4018e-07
-2.92765e-06
8.29666e-07
-3.8493e-06
9.21653e-07
-4.86418e-06
1.01488e-06
-5.97205e-06
1.10787e-06
-7.17103e-06
1.19898e-06
-8.45745e-06
1.28642e-06
-9.82572e-06
1.36827e-06
-1.12683e-05
1.44253e-06
-1.27754e-05
1.50718e-06
-1.43356e-05
1.56019e-06
-1.59352e-05
1.5996e-06
-1.75588e-05
1.62354e-06
-1.9189e-05
1.63029e-06
-2.08073e-05
1.61828e-06
-2.23935e-05
1.58617e-06
-2.39263e-05
1.53282e-06
-2.53837e-05
1.45738e-06
-2.67429e-05
1.35923e-06
-2.7981e-05
1.23811e-06
-2.90751e-05
1.09405e-06
-3.00026e-05
9.27522e-07
-3.07419e-05
7.39335e-07
-3.12735e-05
5.31558e-07
-3.15781e-05
3.04636e-07
-3.16345e-05
5.63225e-08
-3.14331e-05
-2.01319e-07
-3.09629e-05
-4.70281e-07
-3.02157e-05
-7.4718e-07
-2.91885e-05
-1.02721e-06
-2.78829e-05
-1.30556e-06
-2.63059e-05
-1.57705e-06
-2.44697e-05
-1.83616e-06
-2.23925e-05
-2.07716e-06
-2.00983e-05
-2.29423e-06
-1.76166e-05
-2.4817e-06
-1.49824e-05
-2.63424e-06
-1.22353e-05
-2.74711e-06
-9.41886e-06
-2.81641e-06
-6.57957e-06
-2.83929e-06
-3.76536e-06
-2.81421e-06
-1.02432e-06
-2.74104e-06
1.59689e-06
-2.62121e-06
4.05461e-06
-2.45772e-06
6.30968e-06
-2.25507e-06
8.32881e-06
-2.01913e-06
1.00857e-05
-1.75688e-06
1.15618e-05
-1.47611e-06
1.27469e-05
-1.18509e-06
1.3639e-05
-8.92139e-07
1.42443e-05
-6.05304e-07
1.45763e-05
-3.3199e-07
1.46566e-05
-8.0229e-08
1.45055e-05
1.51093e-07
1.41537e-05
3.518e-07
1.3634e-05
5.1967e-07
1.2978e-05
6.55979e-07
1.22171e-05
7.60919e-07
1.13816e-05
8.35478e-07
1.04997e-05
8.8194e-07
9.59638e-06
9.03289e-07
8.69341e-06
9.02968e-07
7.80877e-06
8.8464e-07
6.95679e-06
8.51981e-07
6.14828e-06
8.08513e-07
5.39079e-06
7.57486e-07
4.68901e-06
7.01785e-07
4.04511e-06
6.43899e-07
3.45921e-06
5.85899e-07
2.92975e-06
5.29458e-07
2.45389e-06
4.75864e-07
2.02786e-06
4.26026e-07
1.64741e-06
3.80453e-07
1.30821e-06
3.39203e-07
1.00642e-06
3.01792e-07
7.3932e-07
2.67096e-07
5.06035e-07
2.33285e-07
3.08178e-07
1.97857e-07
1.50204e-07
1.57974e-07
3.88802e-08
1.11324e-07
-1.91465e-08
5.80267e-08
-2.39942e-08
4.84773e-09
-2.39943e-08
5.10175e-08
-4.69357e-08
2.5037e-07
-2.53179e-07
6.07799e-07
-4.86407e-07
1.09745e-06
-6.81142e-07
1.68076e-06
-8.18555e-07
2.31542e-06
-8.93751e-07
2.96081e-06
-9.09883e-07
3.5815e-06
-8.74932e-07
4.14933e-06
-7.99776e-07
4.64445e-06
-6.9665e-07
5.05545e-06
-5.77877e-07
5.37872e-06
-4.54764e-07
5.6172e-06
-3.36746e-07
5.77868e-06
-2.30812e-07
5.874e-06
-1.41227e-07
5.91512e-06
-6.95381e-08
5.91332e-06
-1.48627e-08
5.87791e-06
2.60028e-08
5.81497e-06
5.75776e-08
5.7267e-06
8.53192e-08
5.61162e-06
1.15017e-07
5.46358e-06
1.51955e-07
5.27388e-06
2.00887e-07
5.03104e-06
2.65392e-07
4.7218e-06
3.47905e-07
4.33183e-06
4.49879e-07
3.84624e-06
5.72025e-07
3.24993e-06
7.14605e-07
2.52777e-06
8.77678e-07
1.66471e-06
1.06124e-06
6.45794e-07
1.26527e-06
-5.43631e-07
1.48962e-06
-1.91774e-06
1.73389e-06
-3.48985e-06
1.99726e-06
-5.27201e-06
2.27837e-06
-7.27446e-06
2.57516e-06
-9.50505e-06
2.88484e-06
-1.19687e-05
3.20385e-06
-1.46669e-05
3.52784e-06
-1.7597e-05
3.85175e-06
-2.0752e-05
4.16986e-06
-2.41201e-05
4.47595e-06
-2.76844e-05
4.76337e-06
-3.14233e-05
5.02525e-06
-3.53097e-05
5.25469e-06
-3.93121e-05
5.44494e-06
-4.33945e-05
5.58957e-06
-4.7517e-05
5.68267e-06
-5.16364e-05
5.71898e-06
-5.57068e-05
5.69401e-06
-5.96807e-05
5.60415e-06
-6.35091e-05
5.4467e-06
-6.71429e-05
5.21995e-06
-7.05332e-05
4.92312e-06
-7.36322e-05
4.55641e-06
-7.63939e-05
4.12096e-06
-7.87747e-05
3.61883e-06
-8.07336e-05
3.05301e-06
-8.22335e-05
2.42744e-06
-8.32412e-05
1.74701e-06
-8.37271e-05
1.01744e-06
-8.36694e-05
2.46983e-07
-8.30505e-05
-5.62584e-07
-8.18546e-05
-1.39723e-06
-8.00776e-05
-2.24728e-06
-7.77213e-05
-3.10347e-06
-7.47944e-05
-3.95412e-06
-7.13133e-05
-4.78663e-06
-6.73027e-05
-5.58767e-06
-6.27955e-05
-6.34339e-06
-5.7833e-05
-7.03964e-06
-5.2465e-05
-7.66226e-06
-4.67492e-05
-8.19753e-06
-4.07508e-05
-8.6326e-06
-3.45419e-05
-8.95598e-06
-2.82002e-05
-9.15809e-06
-2.18078e-05
-9.23172e-06
-1.54495e-05
-9.17252e-06
-9.21113e-06
-8.97942e-06
-3.17744e-06
-8.6549e-06
2.56995e-06
-8.20512e-06
7.9548e-06
-7.63992e-06
1.29083e-05
-6.97263e-06
1.73711e-05
-6.21966e-06
2.12949e-05
-5.39996e-06
2.46442e-05
-4.53436e-06
2.73968e-05
-3.64472e-06
2.95446e-05
-2.75309e-06
3.10935e-05
-1.88096e-06
3.20614e-05
-1.04808e-06
3.24826e-05
-2.70131e-07
3.24002e-05
4.34194e-07
3.18646e-05
1.05531e-06
3.09341e-05
1.58646e-06
2.96719e-05
2.02307e-06
2.81428e-05
2.36463e-06
2.64107e-05
2.614e-06
2.45371e-05
2.77689e-06
2.25788e-05
2.86133e-06
2.05864e-05
2.87697e-06
1.8604e-05
2.83445e-06
1.66677e-05
2.74476e-06
1.48065e-05
2.6187e-06
1.30418e-05
2.46646e-06
1.13884e-05
2.29729e-06
9.85505e-06
2.11928e-06
8.44524e-06
1.93927e-06
7.15828e-06
1.76282e-06
5.99023e-06
1.59408e-06
4.93495e-06
1.43573e-06
3.98532e-06
1.28883e-06
3.13459e-06
1.15252e-06
2.37786e-06
1.02383e-06
1.71356e-06
8.97583e-07
1.1447e-06
7.66715e-07
6.79271e-07
6.23408e-07
3.28954e-07
4.61641e-07
1.04711e-07
2.82269e-07
7.89834e-09
1.01661e-07
-1.60959e-08
1.21125e-07
-1.68061e-07
4.7139e-07
-6.03445e-07
1.02787e-06
-1.04289e-06
1.75176e-06
-1.40503e-06
2.59244e-06
-1.65924e-06
3.49487e-06
-1.79618e-06
4.40569e-06
-1.8207e-06
5.27768e-06
-1.74692e-06
6.07266e-06
-1.59476e-06
6.763e-06
-1.38699e-06
7.3319e-06
-1.14678e-06
7.77265e-06
-8.95516e-07
8.0871e-06
-6.51189e-07
8.2835e-06
-4.27211e-07
8.37412e-06
-2.31848e-07
8.3727e-06
-6.81197e-08
8.29211e-06
6.57228e-08
8.14246e-06
1.75652e-07
7.92941e-06
2.70628e-07
7.65332e-06
3.6141e-07
7.309e-06
4.59343e-07
6.88577e-06
5.75188e-07
6.36845e-06
7.18202e-07
5.73824e-06
8.956e-07
4.97376e-06
1.11238e-06
4.05208e-06
1.37156e-06
2.94951e-06
1.6746e-06
1.64219e-06
2.02192e-06
1.06543e-07
2.41332e-06
-1.6804e-06
2.84819e-06
-3.74063e-06
3.3255e-06
-6.09463e-06
3.84363e-06
-8.76083e-06
4.40008e-06
-1.17548e-05
4.9912e-06
-1.50883e-05
5.61189e-06
-1.87686e-05
6.25548e-06
-2.27974e-05
6.91367e-06
-2.71701e-05
7.57654e-06
-3.1875e-05
8.23276e-06
-3.68931e-05
8.86975e-06
-4.21973e-05
9.47406e-06
-4.7753e-05
1.00317e-05
-5.35184e-05
1.05287e-05
-5.94445e-05
1.09514e-05
-6.54767e-05
1.12869e-05
-7.15554e-05
1.15236e-05
-7.76173e-05
1.16515e-05
-8.3597e-05
1.16624e-05
-8.9428e-05
1.155e-05
-9.50443e-05
1.13102e-05
-0.000100381
1.0941e-05
-0.000105376
1.0442e-05
-0.000109971
9.81505e-06
-0.000114112
9.06341e-06
-0.000117747
8.19191e-06
-0.000120833
7.20669e-06
-0.000123329
6.11507e-06
-0.000125202
4.92545e-06
-0.000126422
3.64726e-06
-0.000126965
2.29097e-06
-0.000126816
8.67793e-07
-0.00012596
-6.09195e-07
-0.000124395
-2.12758e-06
-0.000122119
-3.67292e-06
-0.000119138
-5.22806e-06
-0.000115465
-6.77626e-06
-0.00011112
-8.29945e-06
-0.000106128
-9.77824e-06
-0.000100524
-1.11922e-05
-9.43472e-05
-1.25201e-05
-8.76466e-05
-1.37403e-05
-8.04776e-05
-1.48312e-05
-7.29035e-05
-1.57717e-05
-6.49943e-05
-1.65417e-05
-5.6827e-05
-1.71233e-05
-4.84842e-05
-1.75009e-05
-4.00536e-05
-1.76623e-05
-3.16265e-05
-1.75997e-05
-2.32962e-05
-1.73096e-05
-1.51569e-05
-1.67942e-05
-7.30112e-06
-1.60609e-05
1.81992e-07
-1.5123e-05
7.2086e-06
-1.39992e-05
1.37023e-05
-1.27134e-05
1.95962e-05
-1.12938e-05
2.48341e-05
-9.77229e-06
2.93727e-05
-8.18337e-06
3.31825e-05
-6.56282e-06
3.62481e-05
-4.94658e-06
3.85693e-05
-3.36931e-06
4.01629e-05
-1.86368e-06
4.10577e-05
-4.60606e-07
4.12955e-05
8.17487e-07
4.09316e-05
1.95036e-06
4.00313e-05
2.92341e-06
3.86669e-05
3.729e-06
3.69157e-05
4.36519e-06
3.48568e-05
4.8358e-06
3.25684e-05
5.14976e-06
3.0125e-05
5.32031e-06
2.75955e-05
5.36394e-06
2.5041e-05
5.29928e-06
2.25137e-05
5.14598e-06
2.00565e-05
4.92367e-06
1.77027e-05
4.65111e-06
1.54765e-05
4.34551e-06
1.33937e-05
4.02207e-06
1.14629e-05
3.69357e-06
9.68685e-06
3.37016e-06
8.06365e-06
3.05894e-06
6.5888e-06
2.76368e-06
5.257e-06
2.48432e-06
4.06412e-06
2.21671e-06
3.00918e-06
1.95253e-06
2.09583e-06
1.68006e-06
1.33296e-06
1.38628e-06
7.33455e-07
1.06115e-06
3.104e-07
7.05324e-07
7.00922e-08
3.41969e-07
5.39963e-08
1.79263e-07
-3.47324e-07
6.58029e-07
-1.08221e-06
1.38117e-06
-1.76603e-06
2.29174e-06
-2.3156e-06
3.32666e-06
-2.69416e-06
4.4209e-06
-2.89042e-06
5.51251e-06
-2.91231e-06
6.5469e-06
-2.78131e-06
7.47983e-06
-2.52769e-06
8.27896e-06
-2.18612e-06
8.92408e-06
-1.79189e-06
9.40617e-06
-1.37761e-06
9.72564e-06
-9.70652e-07
9.88984e-06
-5.91411e-07
9.91034e-06
-2.52348e-07
9.80005e-06
4.21658e-08
9.57047e-06
2.95307e-07
9.22946e-06
5.16659e-07
8.7795e-06
7.20587e-07
8.21661e-06
9.24297e-07
7.5301e-06
1.14586e-06
6.70295e-06
1.40234e-06
5.71274e-06
1.70841e-06
4.53292e-06
2.07542e-06
3.13412e-06
2.51118e-06
1.48545e-06
3.02024e-06
-4.44478e-07
3.60453e-06
-2.6866e-06
4.26405e-06
-5.27068e-06
4.9974e-06
-8.22448e-06
5.80199e-06
-1.1573e-05
6.67399e-06
-1.53373e-05
7.60793e-06
-1.95336e-05
8.59637e-06
-2.41718e-05
9.62942e-06
-2.92545e-05
1.06946e-05
-3.47756e-05
1.17766e-05
-4.07195e-05
1.28576e-05
-4.70606e-05
1.39176e-05
-5.37627e-05
1.49349e-05
-6.07795e-05
1.58866e-05
-6.80553e-05
1.67498e-05
-7.55257e-05
1.75022e-05
-8.31199e-05
1.81229e-05
-9.07617e-05
1.85932e-05
-9.8372e-05
1.88972e-05
-0.000105871
1.90223e-05
-0.000113179
1.89596e-05
-0.00012022
1.87034e-05
-0.000126922
1.82518e-05
-0.000133217
1.76058e-05
-0.000139046
1.67695e-05
-0.000144353
1.57491e-05
-0.000149091
1.4553e-05
-0.000153219
1.31911e-05
-0.000156701
1.16746e-05
-0.00015951
1.00154e-05
-0.000161621
8.22659e-06
-0.000163018
6.32162e-06
-0.000163685
4.31465e-06
-0.000163614
2.22042e-06
-0.000162802
5.49575e-08
-0.000161244
-2.16653e-06
-0.000158946
-4.42544e-06
-0.000155916
-6.70371e-06
-0.000152162
-8.98117e-06
-0.000147703
-1.12362e-05
-0.000142556
-1.34459e-05
-0.000136749
-1.55858e-05
-0.000130311
-1.76297e-05
-0.00012328
-1.95507e-05
-0.0001157
-2.13205e-05
-0.00010762
-2.2911e-05
-9.90982e-05
-2.42938e-05
-9.01978e-05
-2.54422e-05
-8.099e-05
-2.63311e-05
-7.15522e-05
-2.69386e-05
-6.19678e-05
-2.72468e-05
-5.23246e-05
-2.72428e-05
-4.27145e-05
-2.69198e-05
-3.32311e-05
-2.62776e-05
-2.39688e-05
-2.53232e-05
-1.50205e-05
-2.40714e-05
-6.47566e-06
-2.2544e-05
1.58116e-06
-2.07702e-05
9.07255e-06
-1.87852e-05
1.59298e-05
-1.66295e-05
2.20943e-05
-1.43479e-05
2.75191e-05
-1.19876e-05
3.21698e-05
-9.59726e-06
3.60256e-05
-7.22514e-06
3.908e-05
-4.91805e-06
4.13393e-05
-2.71992e-06
4.28262e-05
-6.69436e-07
4.35769e-05
1.19963e-06
4.36404e-05
2.85996e-06
4.30776e-05
4.29183e-06
4.19593e-05
5.48345e-06
4.0364e-05
6.43113e-06
3.83746e-05
7.13914e-06
3.60758e-05
7.61911e-06
3.35507e-05
7.889e-06
3.08783e-05
7.97176e-06
2.81304e-05
7.89384e-06
2.53705e-05
7.68354e-06
2.26521e-05
7.36952e-06
2.00182e-05
6.9794e-06
1.75016e-05
6.53868e-06
1.51254e-05
6.06978e-06
1.29043e-05
5.59129e-06
1.0846e-05
5.11721e-06
8.95339e-06
4.65628e-06
7.22647e-06
4.21124e-06
5.66481e-06
3.77837e-06
4.26983e-06
3.34751e-06
3.04669e-06
2.90319e-06
2.0055e-06
2.42747e-06
1.16125e-06
1.90539e-06
5.32428e-07
1.33415e-06
1.38664e-07
7.35733e-07
1.9266e-07
2.23965e-07
-5.71289e-07
8.05163e-07
-1.66341e-06
1.66191e-06
-2.62278e-06
2.71778e-06
-3.37147e-06
3.89603e-06
-3.8724e-06
5.12181e-06
-4.1162e-06
6.32601e-06
-4.11651e-06
7.44886e-06
-3.90417e-06
8.4425e-06
-3.52133e-06
9.27215e-06
-3.01577e-06
9.91593e-06
-2.43568e-06
1.03636e-05
-1.82531e-06
1.06145e-05
-1.2215e-06
1.06744e-05
-6.51374e-07
1.05531e-05
-1.31037e-07
1.02607e-05
3.34579e-07
9.80506e-06
7.50967e-07
9.1893e-06
1.13242e-06
8.41014e-06
1.49975e-06
7.45691e-06
1.87753e-06
6.31146e-06
2.29131e-06
4.94884e-06
2.76495e-06
3.33858e-06
3.31867e-06
1.44621e-06
3.9678e-06
-7.65085e-07
4.72247e-06
-3.33286e-06
5.58801e-06
-6.29403e-06
6.5657e-06
-9.68361e-06
7.65363e-06
-1.35334e-05
8.8472e-06
-1.78707e-05
1.01393e-05
-2.27169e-05
1.15202e-05
-2.80857e-05
1.29767e-05
-3.39817e-05
1.44923e-05
-4.03987e-05
1.60464e-05
-4.73187e-05
1.76146e-05
-5.47109e-05
1.91688e-05
-6.25314e-05
2.06781e-05
-7.07238e-05
2.211e-05
-7.922e-05
2.34311e-05
-8.79423e-05
2.46089e-05
-9.68053e-05
2.56128e-05
-0.000105719
2.64159e-05
-0.000114591
2.69952e-05
-0.000123331
2.7333e-05
-0.000131851
2.74168e-05
-0.000140068
2.72396e-05
-0.000147908
2.67994e-05
-0.000155303
2.60991e-05
-0.000162197
2.5145e-05
-0.000168538
2.3947e-05
-0.000174286
2.25174e-05
-0.000179407
2.08699e-05
-0.000183873
1.90199e-05
-0.000187665
1.6983e-05
-0.000190766
1.47753e-05
-0.000193164
1.24132e-05
-0.00019485
9.91276e-06
-0.000195819
7.29041e-06
-0.000196067
4.56248e-06
-0.000195592
1.74571e-06
-0.000194394
-1.14258e-06
-0.000192476
-4.08469e-06
-0.00018984
-7.06123e-06
-0.000186493
-1.00515e-05
-0.00018244
-1.30333e-05
-0.000177694
-1.59824e-05
-0.000172268
-1.88724e-05
-0.000166179
-2.16748e-05
-0.00015945
-2.4359e-05
-0.000152108
-2.68925e-05
-0.000144187
-2.92412e-05
-0.000135728
-3.13701e-05
-0.000126778
-3.32439e-05
-0.000117392
-3.4828e-05
-0.000107633
-3.60897e-05
-9.75725e-05
-3.69996e-05
-8.72866e-05
-3.75326e-05
-7.68598e-05
-3.76696e-05
-6.63814e-05
-3.73983e-05
-5.59441e-05
-3.67148e-05
-4.56431e-05
-3.56242e-05
-3.55736e-05
-3.41409e-05
-2.58289e-05
-3.22887e-05
-1.64988e-05
-3.01003e-05
-7.66713e-06
-2.76168e-05
5.89429e-07
-2.48861e-05
8.20296e-06
-2.19614e-05
1.51154e-05
-1.89001e-05
2.12796e-05
-1.57614e-05
2.66596e-05
-1.26052e-05
3.12317e-05
-9.49012e-06
3.49842e-05
-6.47241e-06
3.79188e-05
-3.60408e-06
4.00504e-05
-9.31927e-07
4.14067e-05
1.50365e-06
4.20287e-05
3.66983e-06
4.19697e-05
5.54242e-06
4.12942e-05
7.10658e-06
4.00761e-05
8.35727e-06
3.8396e-05
9.2992e-06
3.63387e-05
9.94632e-06
3.39897e-05
1.03208e-05
3.14322e-05
1.04513e-05
2.87443e-05
1.03715e-05
2.59961e-05
1.01177e-05
2.32487e-05
9.72678e-06
2.05527e-05
9.23473e-06
1.7948e-05
8.6745e-06
1.54645e-05
8.07474e-06
1.31234e-05
7.45835e-06
1.09384e-05
6.84125e-06
8.91845e-06
6.23121e-06
7.06976e-06
5.62706e-06
5.3986e-06
5.01868e-06
3.91366e-06
4.38813e-06
2.62818e-06
3.71295e-06
1.56159e-06
2.97199e-06
7.4093e-07
2.15481e-06
2.02818e-07
1.27385e-06
3.95479e-07
2.57791e-07
-8.2908e-07
9.1846e-07
-2.32408e-06
1.8787e-06
-3.58302e-06
3.04321e-06
-4.53598e-06
4.32089e-06
-5.15008e-06
5.62668e-06
-5.42199e-06
6.88467e-06
-5.37449e-06
8.031e-06
-5.05049e-06
9.0157e-06
-4.50604e-06
9.80322e-06
-3.80328e-06
1.03715e-05
-3.00398e-06
1.07102e-05
-2.16401e-06
1.08179e-05
-1.32916e-06
1.06988e-05
-5.32328e-07
1.03599e-05
2.07938e-07
9.8069e-06
8.8753e-07
9.0422e-06
1.51567e-06
8.06194e-06
2.11268e-06
6.85476e-06
2.70692e-06
5.40119e-06
3.3311e-06
3.67396e-06
4.01854e-06
1.63918e-06
4.79974e-06
-7.41964e-07
5.69981e-06
-3.51117e-06
6.737e-06
-6.71102e-06
7.92232e-06
-1.0383e-05
9.25999e-06
-1.45657e-05
1.07484e-05
-1.9293e-05
1.23809e-05
-2.45922e-05
1.41464e-05
-3.04822e-05
1.60293e-05
-3.69712e-05
1.80092e-05
-4.40551e-05
2.00606e-05
-5.17155e-05
2.21527e-05
-5.99188e-05
2.42497e-05
-6.86158e-05
2.63115e-05
-7.77419e-05
2.82949e-05
-8.72191e-05
3.01553e-05
-9.69579e-05
3.18488e-05
-0.000106861
3.33337e-05
-0.000116825
3.4573e-05
-0.000126747
3.55354e-05
-0.000136528
3.61966e-05
-0.000146073
3.65398e-05
-0.000155295
3.65556e-05
-0.00016412
3.62417e-05
-0.000172483
3.56019e-05
-0.000180329
3.46454e-05
-0.000187615
3.33851e-05
-0.000194307
3.18373e-05
-0.00020038
3.002e-05
-0.000205815
2.79522e-05
-0.000210598
2.56534e-05
-0.000214721
2.3143e-05
-0.000218178
2.04399e-05
-0.000220965
1.75622e-05
-0.00022308
1.45276e-05
-0.00022452
1.13529e-05
-0.000225284
8.0548e-06
-0.000225371
4.64958e-06
-0.000224779
1.15392e-06
-0.000223507
-2.41516e-06
-0.000221552
-6.03952e-06
-0.000218914
-9.69969e-06
-0.000215591
-1.33744e-05
-0.000211584
-1.70401e-05
-0.000206895
-2.06709e-05
-0.00020153
-2.42379e-05
-0.000195495
-2.77096e-05
-0.000188803
-3.10512e-05
-0.00018147
-3.42252e-05
-0.00017352
-3.71918e-05
-0.000164981
-3.9909e-05
-0.00015589
-4.23341e-05
-0.000146294
-4.44242e-05
-0.000136246
-4.61378e-05
-0.000125809
-4.74366e-05
-0.000115055
-4.82866e-05
-0.000104065
-4.86603e-05
-9.29246e-05
-4.85383e-05
-8.17286e-05
-4.79108e-05
-7.0574e-05
-4.67788e-05
-5.95601e-05
-4.51548e-05
-4.87858e-05
-4.3063e-05
-3.83472e-05
-4.05389e-05
-2.83354e-05
-3.76287e-05
-1.88344e-05
-3.43871e-05
-9.91975e-06
-3.08761e-05
-1.65716e-06
-2.71627e-05
5.89799e-06
-2.33165e-05
1.27011e-05
-1.94083e-05
1.87183e-05
-1.55073e-05
2.39265e-05
-1.16806e-05
2.83136e-05
-7.99115e-06
3.18783e-05
-4.49668e-06
3.46309e-05
-1.24892e-06
3.6593e-05
1.70768e-06
3.77984e-05
4.337e-06
3.82927e-05
6.6123e-06
3.81329e-05
8.51715e-06
3.7386e-05
1.0046e-05
3.61277e-05
1.12046e-05
3.44393e-05
1.20092e-05
3.2405e-05
1.24857e-05
3.01083e-05
1.26681e-05
2.76296e-05
1.25964e-05
2.50427e-05
1.23137e-05
2.24131e-05
1.18644e-05
1.97965e-05
1.1291e-05
1.72387e-05
1.06326e-05
1.47754e-05
9.92166e-06
1.24337e-05
9.18297e-06
1.02337e-05
8.43118e-06
8.19101e-06
7.66975e-06
6.31927e-06
6.89042e-06
4.63315e-06
6.07425e-06
3.15144e-06
5.19465e-06
1.90038e-06
4.22306e-06
9.17502e-07
3.13768e-06
2.56868e-07
1.93448e-06
6.52347e-07
2.84094e-07
-1.11317e-06
1.00605e-06
-3.04603e-06
2.04374e-06
-4.62071e-06
3.28391e-06
-5.77615e-06
4.621e-06
-6.48718e-06
5.95955e-06
-6.76055e-06
7.21711e-06
-6.63205e-06
8.32651e-06
-6.15989e-06
9.23687e-06
-5.4164e-06
9.91317e-06
-4.47958e-06
1.03344e-05
-3.42522e-06
1.04909e-05
-2.32049e-06
1.03808e-05
-1.2191e-06
1.00067e-05
-1.58166e-07
9.37145e-06
8.43151e-07
8.47548e-06
1.7835e-06
7.31352e-06
2.67763e-06
5.87278e-06
3.55343e-06
4.13191e-06
4.44779e-06
2.06108e-06
5.40194e-06
-3.77027e-07
6.45664e-06
-3.22529e-06
7.648e-06
-6.52981e-06
9.00433e-06
-1.03374e-05
1.05446e-05
-1.46928e-05
1.22778e-05
-1.96368e-05
1.4204e-05
-2.52034e-05
1.6315e-05
-3.14176e-05
1.85951e-05
-3.8293e-05
2.10219e-05
-4.58297e-05
2.3566e-05
-5.40116e-05
2.61911e-05
-6.28055e-05
2.88544e-05
-7.21595e-05
3.15068e-05
-8.20044e-05
3.40946e-05
-9.22545e-05
3.65616e-05
-0.000102811
3.88511e-05
-0.000113565
4.09092e-05
-0.000124403
4.2687e-05
-0.000135212
4.41429e-05
-0.000145883
4.52442e-05
-0.000156316
4.59679e-05
-0.00016642
4.63007e-05
-0.000176119
4.62388e-05
-0.000185349
4.57862e-05
-0.000194061
4.49536e-05
-0.000202217
4.37573e-05
-0.000209788
4.22166e-05
-0.000216756
4.03537e-05
-0.00022311
3.81914e-05
-0.000228844
3.57531e-05
-0.000233953
3.30615e-05
-0.000238438
3.01383e-05
-0.000242299
2.70043e-05
-0.000245538
2.36785e-05
-0.000248155
2.01791e-05
-0.00025015
1.65228e-05
-0.000251523
1.27258e-05
-0.000252271
8.80339e-06
-0.000252393
4.77083e-06
-0.000251882
6.43667e-07
-0.000250735
-3.5621e-06
-0.000248946
-7.8291e-06
-0.000246507
-1.21384e-05
-0.000243413
-1.64689e-05
-0.000239656
-2.07968e-05
-0.000235231
-2.50955e-05
-0.000230135
-2.93345e-05
-0.000224364
-3.34801e-05
-0.000217921
-3.74943e-05
-0.000210811
-4.13356e-05
-0.000203044
-4.49588e-05
-0.000194637
-4.83156e-05
-0.000185616
-5.13555e-05
-0.000176013
-5.40272e-05
-0.000165871
-5.62795e-05
-0.000155244
-5.80636e-05
-0.000144195
-5.93349e-05
-0.0001328
-6.00553e-05
-0.000121143
-6.01953e-05
-0.000109318
-5.97362e-05
-9.74247e-05
-5.86721e-05
-8.55688e-05
-5.70107e-05
-7.38574e-05
-5.47743e-05
-6.23967e-05
-5.19997e-05
-5.12886e-05
-4.87368e-05
-4.06283e-05
-4.50474e-05
-3.05017e-05
-4.10027e-05
-2.09841e-05
-3.66803e-05
-1.21389e-05
-3.21618e-05
-4.01747e-06
-2.75296e-05
3.34019e-06
-2.2865e-05
9.90515e-06
-1.82456e-05
1.56586e-05
-1.37446e-05
2.05911e-05
-9.42923e-06
2.47026e-05
-5.36044e-06
2.80022e-05
-1.59186e-06
3.05085e-05
1.83072e-06
3.22504e-05
4.87035e-06
3.32677e-05
7.4999e-06
3.36106e-05
9.70309e-06
3.33399e-05
1.14753e-05
3.25252e-05
1.28239e-05
3.1243e-05
1.37679e-05
2.9574e-05
1.43371e-05
2.76e-05
1.45704e-05
2.54008e-05
1.45129e-05
2.30513e-05
1.42139e-05
2.06191e-05
1.37232e-05
1.81635e-05
1.30883e-05
1.57338e-05
1.23513e-05
1.33708e-05
1.1546e-05
1.11069e-05
1.0695e-05
8.96875e-06
9.80792e-06
6.97936e-06
8.87981e-06
5.16166e-06
7.89196e-06
3.54216e-06
6.81414e-06
2.15565e-06
5.60957e-06
1.05082e-06
4.24251e-06
2.97511e-07
2.68779e-06
9.49858e-07
3.05482e-07
-1.41866e-06
1.07454e-06
-3.81508e-06
2.16696e-06
-5.71314e-06
3.45211e-06
-7.06129e-06
4.8102e-06
-7.84527e-06
6.13568e-06
-8.08603e-06
7.34014e-06
-7.83651e-06
8.35404e-06
-7.17378e-06
9.12674e-06
-6.1891e-06
9.62489e-06
-4.97773e-06
9.82947e-06
-3.6298e-06
9.73199e-06
-2.22301e-06
9.33031e-06
-8.17418e-07
8.62442e-06
5.47723e-07
7.61254e-06
1.85503e-06
6.28778e-06
3.10825e-06
4.6357e-06
4.32971e-06
2.63284e-06
5.55628e-06
2.46563e-07
6.83407e-06
-2.564e-06
8.2125e-06
-5.84584e-06
9.73848e-06
-9.64931e-06
1.14515e-05
-1.4025e-05
1.338e-05
-1.90204e-05
1.55399e-05
-2.46769e-05
1.79344e-05
-3.10272e-05
2.05543e-05
-3.8092e-05
2.33797e-05
-4.58774e-05
2.63805e-05
-5.43728e-05
2.95172e-05
-6.35481e-05
3.27412e-05
-7.33528e-05
3.59959e-05
-8.3716e-05
3.92177e-05
-9.45479e-05
4.23387e-05
-0.000105743
4.52893e-05
-0.000117183
4.80016e-05
-0.000128745
5.04132e-05
-0.000140305
5.24697e-05
-0.000151746
5.41274e-05
-0.000162957
5.53548e-05
-0.000173846
5.61324e-05
-0.00018433
5.64526e-05
-0.000194348
5.63181e-05
-0.000203849
5.57401e-05
-0.000212799
5.47364e-05
-0.000221175
5.33297e-05
-0.000228963
5.15454e-05
-0.000236157
4.94102e-05
-0.000242755
4.69512e-05
-0.000248758
4.41949e-05
-0.000254171
4.11665e-05
-0.000259
3.78896e-05
-0.000263247
3.43859e-05
-0.000266919
3.06757e-05
-0.000270017
2.67771e-05
-0.000272545
2.2707e-05
-0.000274503
1.84809e-05
-0.000275891
1.41134e-05
-0.000276706
9.61819e-06
-0.000276944
5.00909e-06
-0.0002766
3.00004e-07
-0.000275668
-4.49449e-06
-0.000274138
-9.35857e-06
-0.000272002
-1.42746e-05
-0.000269248
-1.92226e-05
-0.000265865
-2.41797e-05
-0.000261841
-2.91196e-05
-0.000257164
-3.40119e-05
-0.000251822
-3.88219e-05
-0.000245806
-4.35101e-05
-0.00023911
-4.80321e-05
-0.00023173
-5.2339e-05
-0.000223668
-5.6377e-05
-0.000214935
-6.0089e-05
-0.000205547
-6.3415e-05
-0.000195532
-6.62942e-05
-0.00018493
-6.86661e-05
-0.000173791
-7.04739e-05
-0.00016218
-7.16661e-05
-0.000150175
-7.22001e-05
-0.000137867
-7.20445e-05
-0.000125357
-7.11819e-05
-0.000112757
-6.96113e-05
-0.000100182
-6.73488e-05
-8.77531e-05
-6.44287e-05
-7.55872e-05
-6.09027e-05
-6.37967e-05
-5.6838e-05
-5.24844e-05
-5.23149e-05
-4.17415e-05
-4.74232e-05
-3.16448e-05
-4.22585e-05
-2.22563e-05
-3.69181e-05
-1.36236e-05
-3.14977e-05
-5.78043e-06
-2.60887e-05
1.25114e-06
-2.07761e-05
7.45934e-06
-1.56374e-05
1.28409e-05
-1.0742e-05
1.74004e-05
-6.15127e-06
2.11491e-05
-1.91808e-06
2.41064e-05
1.91308e-06
2.62994e-05
5.30691e-06
2.77644e-05
8.23813e-06
2.85471e-05
1.06925e-05
2.87031e-05
1.26678e-05
2.82967e-05
1.41743e-05
2.73995e-05
1.52344e-05
2.6088e-05
1.58819e-05
2.4441e-05
1.61599e-05
2.25364e-05
1.61185e-05
2.04484e-05
1.58112e-05
1.82452e-05
1.52914e-05
1.59875e-05
1.4609e-05
1.37278e-05
1.38057e-05
1.15106e-05
1.29123e-05
9.37381e-06
1.19447e-05
7.35119e-06
1.09024e-05
5.47531e-06
9.76784e-06
3.78194e-06
8.50752e-06
2.3153e-06
7.07621e-06
1.13478e-06
5.42302e-06
3.23029e-07
3.49955e-06
1.27289e-06
3.23482e-07
-1.74214e-06
1.12774e-06
-4.61934e-06
2.25378e-06
-6.83919e-06
3.55377e-06
-8.36128e-06
4.89423e-06
-9.18573e-06
6.16027e-06
-9.35207e-06
7.25865e-06
-8.93489e-06
8.11873e-06
-8.03386e-06
8.69137e-06
-6.76174e-06
8.94592e-06
-5.23229e-06
8.86597e-06
-3.54985e-06
8.44437e-06
-1.80141e-06
7.67818e-06
-5.12306e-08
6.56397e-06
1.66193e-06
5.09374e-06
3.32526e-06
3.25185e-06
4.95014e-06
1.01311e-06
6.56845e-06
-1.65767e-06
8.22707e-06
-4.80481e-06
9.9812e-06
-8.47938e-06
1.18871e-05
-1.2736e-05
1.39951e-05
-1.76289e-05
1.63443e-05
-2.32079e-05
1.8959e-05
-2.95146e-05
2.18467e-05
-3.6579e-05
2.49988e-05
-4.44162e-05
2.83914e-05
-5.30232e-05
3.19867e-05
-6.23767e-05
3.57341e-05
-7.24313e-05
3.95718e-05
-8.31184e-05
4.34284e-05
-9.43477e-05
4.72252e-05
-0.00010601
5.08798e-05
-0.000117981
5.43096e-05
-0.000130128
5.74367e-05
-0.000142318
6.01916e-05
-0.000154421
6.25166e-05
-0.00016632
6.43681e-05
-0.00017791
6.57175e-05
-0.000189106
6.65504e-05
-0.000199839
6.68658e-05
-0.00021006
6.66732e-05
-0.000219732
6.59909e-05
-0.000228835
6.48432e-05
-0.000237357
6.32584e-05
-0.000245295
6.12668e-05
-0.000252648
5.88993e-05
-0.000259424
5.61862e-05
-0.00026563
5.31568e-05
-0.000271274
4.98384e-05
-0.000276363
4.62564e-05
-0.000280908
4.24341e-05
-0.000284915
3.83928e-05
-0.00028839
3.41514e-05
-0.000291341
2.97272e-05
-0.000293769
2.51359e-05
-0.00029568
2.03914e-05
-0.000297073
1.55068e-05
-0.000297949
1.04943e-05
-0.000298306
5.36569e-06
-0.000298139
1.329e-07
-0.000297442
-5.19129e-06
-0.000296207
-1.05936e-05
-0.000294423
-1.60585e-05
-0.000292077
-2.15684e-05
-0.000289155
-2.71024e-05
-0.000285638
-3.26363e-05
-0.000281509
-3.81413e-05
-0.000276747
-4.35838e-05
-0.000271332
-4.89245e-05
-0.000265246
-5.41185e-05
-0.00025847
-5.91148e-05
-0.000250991
-6.38564e-05
-0.000242799
-6.82809e-05
-0.000233893
-7.23213e-05
-0.000224279
-7.59074e-05
-0.000213978
-7.89674e-05
-0.000203021
-8.14309e-05
-0.000191456
-8.32313e-05
-0.000179346
-8.43095e-05
-0.000166773
-8.46173e-05
-0.000153835
-8.41209e-05
-0.000140642
-8.28043e-05
-0.000127319
-8.06715e-05
-0.000113999
-7.77486e-05
-0.000100818
-7.40836e-05
-8.79106e-05
-6.97454e-05
-7.54041e-05
-6.48213e-05
-6.34144e-05
-5.9413e-05
-5.20412e-05
-5.36317e-05
-4.13663e-05
-4.75929e-05
-3.14524e-05
-4.14116e-05
-2.23434e-05
-3.51977e-05
-1.40669e-05
-2.90527e-05
-6.63625e-06
-2.30681e-05
-5.40842e-08
-1.73242e-05
5.68536e-06
-1.18907e-05
1.05942e-05
-6.82691e-06
1.46899e-05
-2.1826e-06
1.79952e-05
2.00161e-06
2.05388e-05
5.6945e-06
2.23565e-05
8.87485e-06
2.34919e-05
1.15324e-05
2.39971e-05
1.36691e-05
2.39326e-05
1.52989e-05
2.33658e-05
1.64487e-05
2.23693e-05
1.71564e-05
2.10186e-05
1.74692e-05
1.93889e-05
1.74408e-05
1.7553e-05
1.71273e-05
1.55787e-05
1.65833e-05
1.35274e-05
1.5857e-05
1.1454e-05
1.49857e-05
9.40716e-06
1.39915e-05
7.43116e-06
1.28784e-05
5.56888e-06
1.16301e-05
3.86589e-06
1.02105e-05
2.37593e-06
8.56617e-06
1.16772e-06
6.63124e-06
3.33014e-07
4.33425e-06
1.6059e-06
3.38553e-07
-2.08069e-06
1.16648e-06
-5.44727e-06
2.30468e-06
-7.97738e-06
3.58815e-06
-9.64475e-06
4.87054e-06
-1.04681e-05
6.02902e-06
-1.05106e-05
6.96709e-06
-9.87296e-06
7.61465e-06
-8.68141e-06
7.92538e-06
-7.07248e-06
7.87225e-06
-5.17916e-06
7.44173e-06
-3.11933e-06
6.62765e-06
-9.87332e-07
5.42537e-06
1.15105e-06
3.82667e-06
3.26064e-06
1.81575e-06
5.33617e-06
-6.33232e-07
7.39913e-06
-3.55718e-06
9.4924e-06
-7.00318e-06
1.16731e-05
-1.1026e-05
1.40041e-05
-1.56844e-05
1.65455e-05
-2.10363e-05
1.93469e-05
-2.71336e-05
2.24417e-05
-3.40182e-05
2.58436e-05
-4.1717e-05
2.95454e-05
-5.02384e-05
3.35202e-05
-5.95696e-05
3.77227e-05
-6.9674e-05
4.20911e-05
-8.04899e-05
4.65499e-05
-9.19307e-05
5.10126e-05
-0.000103887
5.53851e-05
-0.000116233
5.95706e-05
-0.000128828
6.34745e-05
-0.000141528
6.70098e-05
-0.000154193
7.01016e-05
-0.000166692
7.26906e-05
-0.00017891
7.47347e-05
-0.000190751
7.62091e-05
-0.000202139
7.71055e-05
-0.000213018
7.74291e-05
-0.000223348
7.71964e-05
-0.000233107
7.64317e-05
-0.000242281
7.51653e-05
-0.000250868
7.343e-05
-0.00025887
7.12606e-05
-0.000266295
6.86913e-05
-0.000273151
6.57557e-05
-0.000279451
6.24857e-05
-0.000285205
5.89113e-05
-0.000290427
5.506e-05
-0.000295127
5.09572e-05
-0.000299319
4.66259e-05
-0.000303013
4.20866e-05
-0.00030622
3.73579e-05
-0.000308948
3.2456e-05
-0.000311208
2.73954e-05
-0.000313005
2.21887e-05
-0.000314346
1.68472e-05
-0.000315233
1.13814e-05
-0.000315668
5.80094e-06
-0.00031565
1.14816e-07
-0.000315175
-5.66613e-06
-0.000314237
-1.15322e-05
-0.000312824
-1.7471e-05
-0.000310924
-2.3468e-05
-0.000308521
-2.95061e-05
-0.000305593
-3.55644e-05
-0.000302117
-4.16173e-05
-0.000298066
-4.76344e-05
-0.000293411
-5.3579e-05
-0.000288122
-5.9408e-05
-0.000282166
-6.50709e-05
-0.000275512
-7.05102e-05
-0.000268132
-7.56608e-05
-0.000260003
-8.04509e-05
-0.000251107
-8.48032e-05
-0.000241438
-8.86358e-05
-0.000231004
-9.18651e-05
-0.000219826
-9.44089e-05
-0.000207946
-9.61896e-05
-0.000195425
-9.71383e-05
-0.000182347
-9.71999e-05
-0.000168814
-9.63369e-05
-0.000154951
-9.45339e-05
-0.0001409
-9.18002e-05
-0.000126811
-8.81721e-05
-0.000112844
-8.3713e-05
-9.91539e-05
-7.85111e-05
-8.58905e-05
-7.26765e-05
-7.31871e-05
-6.63351e-05
-6.11574e-05
-5.96226e-05
-4.98917e-05
-5.26773e-05
-3.94556e-05
-4.56338e-05
-2.9891e-05
-3.86173e-05
-2.1219e-05
-3.17401e-05
-1.34436e-05
-2.50996e-05
-6.55641e-06
-1.87779e-05
-5.4028e-07
-1.2843e-05
4.62736e-06
-7.35024e-06
8.97279e-06
-2.34382e-06
1.25255e-05
2.14183e-06
1.53185e-05
6.08184e-06