/*--------------------------------*- C++ -*----------------------------------*\
| =========                 |                                                 |
| \\      /  F ield         | OpenFOAM: The Open Source CFD Toolbox           |
|  \\    /   O peration     | Version:  2406                                  |
|   \\  /    A nd           | Website:  www.openfoam.com                      |
|    \\/     M anipulation  |                                                 |
\*---------------------------------------------------------------------------*/
FoamFile
{
    version     2.0;
    format      ascii;
    arch        "LSB;label=32;scalar=64";
    class       volVectorField;
    location    "44.4";
    object      U;
}
// * * * * * * * * * * * * * * * * * * * * * * * * * * * * * * * * * * * * * //

dimensions      [0 1 -1 0 0 0 0];

internalField   nonuniform List<vector> 
3600
(
(-4.09362e-06 -6.8194e-06 0)
(0.000486395 -0.00024174 0)
(0.00147064 -0.000364166 0)
(0.00256696 -0.000382164 0)
(0.00360619 -0.000309499 0)
(0.00435596 -0.000211863 0)
(0.00485309 -0.000121235 0)
(0.00508718 -6.50383e-05 0)
(0.00518465 -4.18813e-05 0)
(0.00517581 -4.19446e-05 0)
(0.0051158 -4.60865e-05 0)
(0.00496157 -3.90311e-05 0)
(0.00467146 -1.02121e-05 0)
(0.00415247 4.43505e-05 0)
(0.00332502 0.000126034 0)
(0.00208963 0.000236152 0)
(0.000360218 0.000377195 0)
(-0.00195439 0.000548453 0)
(-0.00492914 0.000740544 0)
(-0.00862969 0.000939736 0)
(-0.0130913 0.00114093 0)
(-0.0183066 0.00135341 0)
(-0.0242013 0.0015886 0)
(-0.0306234 0.00183946 0)
(-0.0373351 0.00206994 0)
(-0.0440196 0.00222334 0)
(-0.0502992 0.00224127 0)
(-0.0557671 0.0020808 0)
(-0.0600219 0.0017226 0)
(-0.0627003 0.00117167 0)
(-0.0635041 0.000453934 0)
(-0.0622218 -0.000387721 0)
(-0.0587469 -0.00129716 0)
(-0.0530923 -0.0022079 0)
(-0.0454034 -0.00304661 0)
(-0.0359643 -0.0037373 0)
(-0.0252006 -0.00420782 0)
(-0.013663 -0.00439805 0)
(-0.00200471 -0.0042701 0)
(0.00907271 -0.00381847 0)
(0.0188757 -0.00307774 0)
(0.0268076 -0.00212515 0)
(0.0324322 -0.0010734 0)
(0.0355549 -5.53156e-05 0)
(0.0362327 0.00080355 0)
(0.0347874 0.00141096 0)
(0.0317159 0.00173357 0)
(0.0276292 0.00179759 0)
(0.023102 0.00167609 0)
(0.0186323 0.00145184 0)
(0.0145325 0.00119601 0)
(0.011 0.000949349 0)
(0.00805925 0.000735601 0)
(0.00571208 0.000558319 0)
(0.00384481 0.000423309 0)
(0.00241376 0.000317097 0)
(0.0012917 0.000236471 0)
(0.000499162 0.000138543 0)
(1.28028e-05 2.90541e-05 0)
(-9.14995e-05 -9.68353e-05 0)
(0.000203751 -0.000467084 0)
(0.00146248 -0.00150766 0)
(0.0035266 -0.0020133 0)
(0.00569475 -0.00203804 0)
(0.00768762 -0.00166781 0)
(0.00909775 -0.00114073 0)
(0.00993789 -0.000613313 0)
(0.0101584 -0.000195775 0)
(0.00991306 0.0001018 0)
(0.00921477 0.000329059 0)
(0.00809305 0.000570039 0)
(0.00641967 0.000905274 0)
(0.00404666 0.0013892 0)
(0.000742602 0.00205007 0)
(-0.00370894 0.00289488 0)
(-0.00953934 0.00391865 0)
(-0.0169335 0.00510174 0)
(-0.0260346 0.00641407 0)
(-0.0368776 0.00781597 0)
(-0.0493508 0.00925122 0)
(-0.0631463 0.0106247 0)
(-0.0777759 0.0117977 0)
(-0.092612 0.0126101 0)
(-0.106967 0.0129173 0)
(-0.120165 0.0126156 0)
(-0.131611 0.0116532 0)
(-0.140811 0.0100296 0)
(-0.147394 0.00778907 0)
(-0.151093 0.005011 0)
(-0.151738 0.00180207 0)
(-0.149245 -0.00171042 0)
(-0.143609 -0.00538102 0)
(-0.134905 -0.00904773 0)
(-0.123293 -0.012532 0)
(-0.109031 -0.0156416 0)
(-0.0924814 -0.0181764 0)
(-0.0741265 -0.0199414 0)
(-0.0545631 -0.0207645 0)
(-0.0345003 -0.0205228 0)
(-0.0147255 -0.0191685 0)
(0.00392854 -0.016755 0)
(0.0206587 -0.013449 0)
(0.0347412 -0.00952686 0)
(0.0456275 -0.0053485 0)
(0.0529705 -0.00130795 0)
(0.0567053 0.00222239 0)
(0.057017 0.00496025 0)
(0.0543861 0.00675217 0)
(0.0494707 0.0076048 0)
(0.0430973 0.00765449 0)
(0.0360435 0.00713029 0)
(0.0290342 0.00626963 0)
(0.0225224 0.00528609 0)
(0.0168392 0.00431632 0)
(0.0120196 0.00345758 0)
(0.00811237 0.00271592 0)
(0.00495268 0.00209116 0)
(0.0025847 0.00145093 0)
(0.000899509 0.000789512 0)
(7.86059e-05 3.97864e-05 0)
(0.000334745 -0.00141295 0)
(0.00206184 -0.00360141 0)
(0.00473574 -0.004592 0)
(0.00736743 -0.00450463 0)
(0.00962613 -0.00360244 0)
(0.0110163 -0.00232606 0)
(0.011545 -0.00101578 0)
(0.0111243 0.000128413 0)
(0.00986973 0.00108425 0)
(0.00771483 0.00197423 0)
(0.00458505 0.00298019 0)
(0.000224032 0.0042825 0)
(-0.00564558 0.00599654 0)
(-0.01337 0.00817766 0)
(-0.023244 0.0108184 0)
(-0.0355111 0.013868 0)
(-0.0502447 0.0172215 0)
(-0.0672873 0.0207067 0)
(-0.0861737 0.0240542 0)
(-0.106184 0.0269247 0)
(-0.126441 0.0289817 0)
(-0.146069 0.0299719 0)
(-0.164297 0.0297589 0)
(-0.180522 0.0283182 0)
(-0.194314 0.0257068 0)
(-0.205392 0.0220324 0)
(-0.213588 0.0174295 0)
(-0.218809 0.0120469 0)
(-0.221009 0.0060403 0)
(-0.220172 -0.00042626 0)
(-0.216299 -0.00717852 0)
(-0.209408 -0.0140246 0)
(-0.199542 -0.0207495 0)
(-0.186784 -0.0271077 0)
(-0.171276 -0.0328239 0)
(-0.153239 -0.0375964 0)
(-0.133003 -0.0411146 0)
(-0.111018 -0.0430851 0)
(-0.0878669 -0.0432724 0)
(-0.0642529 -0.0415419 0)
(-0.0409761 -0.037907 0)
(-0.0188706 -0.0325547 0)
(0.00124692 -0.0258517 0)
(0.0186707 -0.0183113 0)
(0.0328344 -0.0105342 0)
(0.0433897 -0.00313353 0)
(0.0501736 0.00334608 0)
(0.0532836 0.0084832 0)
(0.0530096 0.0120395 0)
(0.0499226 0.0139732 0)
(0.0447196 0.0144541 0)
(0.0382639 0.0137998 0)
(0.0312921 0.012416 0)
(0.0245015 0.0106759 0)
(0.0182405 0.00889009 0)
(0.0128264 0.00720588 0)
(0.00821723 0.00568225 0)
(0.00458858 0.00415372 0)
(0.00180686 0.00254521 0)
(0.000270648 0.000689571 0)
(0.000421515 -0.0025778 0)
(0.00241835 -0.00600857 0)
(0.00532032 -0.00736539 0)
(0.00790414 -0.00691944 0)
(0.00981949 -0.00522161 0)
(0.0105464 -0.00292568 0)
(0.0101066 -0.000551986 0)
(0.00836799 0.0016545 0)
(0.00535684 0.00369946 0)
(0.000863618 0.00581564 0)
(-0.00535176 0.00829553 0)
(-0.0136971 0.0114076 0)
(-0.0245499 0.015289 0)
(-0.0382626 0.0199586 0)
(-0.0549875 0.0252992 0)
(-0.0746076 0.0310608 0)
(-0.0966098 0.0368218 0)
(-0.120144 0.0420404 0)
(-0.14416 0.0461714 0)
(-0.167645 0.0488093 0)
(-0.189761 0.0497414 0)
(-0.209919 0.0489356 0)
(-0.227747 0.0464808 0)
(-0.243046 0.0425349 0)
(-0.255722 0.0372803 0)
(-0.265745 0.0309018 0)
(-0.273113 0.0235734 0)
(-0.27783 0.0154585 0)
(-0.279891 0.00671162 0)
(-0.279279 -0.00251087 0)
(-0.275961 -0.0120419 0)
(-0.269888 -0.0216891 0)
(-0.261013 -0.0312234 0)
(-0.249296 -0.0403657 0)
(-0.234731 -0.0487827 0)
(-0.217371 -0.0560866 0)
(-0.197358 -0.0618534 0)
(-0.174964 -0.0656528 0)
(-0.150616 -0.0671027 0)
(-0.124909 -0.0659308 0)
(-0.0986089 -0.0620487 0)
(-0.0725964 -0.0556014 0)
(-0.0478041 -0.0469928 0)
(-0.0250982 -0.0368473 0)
(-0.00520638 -0.0259337 0)
(0.0113767 -0.0150529 0)
(0.0243514 -0.00493869 0)
(0.0336427 0.00380166 0)
(0.0392939 0.0107326 0)
(0.0415643 0.0156011 0)
(0.0408313 0.018381 0)
(0.0377365 0.0192639 0)
(0.0329491 0.018645 0)
(0.0272862 0.0170104 0)
(0.0213147 0.0148536 0)
(0.0156389 0.0125219 0)
(0.0104282 0.0102025 0)
(0.00607931 0.00778746 0)
(0.00252896 0.00509989 0)
(0.000430198 0.00181019 0)
(0.000476332 -0.00395025 0)
(0.00257378 -0.00864022 0)
(0.00537871 -0.0101475 0)
(0.00748393 -0.0089986 0)
(0.00853169 -0.0061492 0)
(0.00802 -0.00248022 0)
(0.00598146 0.00132308 0)
(0.00222695 0.0050373 0)
(-0.00335221 0.00875223 0)
(-0.0111397 0.012849 0)
(-0.0215409 0.0177169 0)
(-0.035037 0.0236506 0)
(-0.0519292 0.030693 0)
(-0.0722657 0.0386484 0)
(-0.0956441 0.0470363 0)
(-0.121226 0.0551609 0)
(-0.147855 0.0622367 0)
(-0.174352 0.0676115 0)
(-0.199733 0.070882 0)
(-0.223319 0.071912 0)
(-0.244701 0.0707563 0)
(-0.263681 0.0675906 0)
(-0.280187 0.0626414 0)
(-0.294224 0.0561492 0)
(-0.305831 0.0483395 0)
(-0.315062 0.0394154 0)
(-0.321972 0.029552 0)
(-0.326601 0.0189038 0)
(-0.328971 0.00760956 0)
(-0.329078 -0.00419316 0)
(-0.326886 -0.0163572 0)
(-0.322326 -0.0287067 0)
(-0.315294 -0.0410221 0)
(-0.305657 -0.0530199 0)
(-0.293269 -0.0643406 0)
(-0.277992 -0.0745393 0)
(-0.259736 -0.083096 0)
(-0.238509 -0.0894401 0)
(-0.214472 -0.0930087 0)
(-0.188002 -0.0933238 0)
(-0.15973 -0.0900983 0)
(-0.13054 -0.0833298 0)
(-0.10152 -0.0733743 0)
(-0.0738299 -0.0609376 0)
(-0.0485423 -0.0469924 0)
(-0.0264576 -0.0326078 0)
(-0.00805007 -0.0187768 0)
(0.00655449 -0.00629933 0)
(0.0173994 0.00425124 0)
(0.0246867 0.0124969 0)
(0.0286355 0.0182596 0)
(0.0296617 0.02157 0)
(0.028222 0.0226958 0)
(0.0250244 0.0220956 0)
(0.0206479 0.0203258 0)
(0.0158369 0.0178883 0)
(0.0109339 0.0150955 0)
(0.00655493 0.0119478 0)
(0.00278116 0.00816047 0)
(0.000483136 0.0032306 0)
(0.000517135 -0.00536532 0)
(0.00254302 -0.0111047 0)
(0.0048791 -0.0123726 0)
(0.00603404 -0.0100736 0)
(0.0056701 -0.00567069 0)
(0.00334921 -0.000258119 0)
(-0.000916768 0.00537408 0)
(-0.00740431 0.0111154 0)
(-0.0164009 0.0171945 0)
(-0.0284425 0.0241298 0)
(-0.0439903 0.032306 0)
(-0.0633544 0.0418596 0)
(-0.0864005 0.0524833 0)
(-0.112493 0.0634967 0)
(-0.140504 0.0739328 0)
(-0.169105 0.0828344 0)
(-0.197071 0.0894724 0)
(-0.223495 0.093475 0)
(-0.247804 0.0947667 0)
(-0.269703 0.0934864 0)
(-0.289077 0.0898799 0)
(-0.305928 0.0842432 0)
(-0.320324 0.0768703 0)
(-0.332375 0.0680374 0)
(-0.342213 0.0579841 0)
(-0.349976 0.0469152 0)
(-0.355799 0.034996 0)
(-0.3598 0.0223624 0)
(-0.362073 0.00912432 0)
(-0.36267 -0.00461841 0)
(-0.361597 -0.0187651 0)
(-0.358804 -0.0331916 0)
(-0.354172 -0.0477332 0)
(-0.347514 -0.062156 0)
(-0.338573 -0.0761369 0)
(-0.327034 -0.0892392 0)
(-0.312555 -0.100907 0)
(-0.294813 -0.11047 0)
(-0.273583 -0.117191 0)
(-0.248828 -0.120337 0)
(-0.220812 -0.119305 0)
(-0.190176 -0.113766 0)
(-0.157981 -0.103813 0)
(-0.125626 -0.0900453 0)
(-0.09468 -0.0735511 0)
(-0.0665718 -0.0557283 0)
(-0.0423346 -0.0380072 0)
(-0.0224088 -0.02157 0)
(-0.00677191 -0.00721648 0)
(0.00491012 0.00459176 0)
(0.0129703 0.0136315 0)
(0.0178116 0.0198545 0)
(0.0197746 0.0234028 0)
(0.0194183 0.0246314 0)
(0.017227 0.0240429 0)
(0.0139417 0.022192 0)
(0.00999491 0.0194511 0)
(0.00614516 0.0159148 0)
(0.00263625 0.0111985 0)
(0.000454872 0.00466049 0)
(0.000527739 -0.00679983 0)
(0.00225536 -0.0132135 0)
(0.00370817 -0.0137308 0)
(0.00344388 -0.00977484 0)
(0.00116392 -0.00337856 0)
(-0.00348023 0.00420356 0)
(-0.010553 0.0121644 0)
(-0.0204368 0.0205866 0)
(-0.0335811 0.0298364 0)
(-0.0505267 0.0404559 0)
(-0.0715258 0.0525948 0)
(-0.0963628 0.065939 0)
(-0.124196 0.0795977 0)
(-0.153717 0.0924128 0)
(-0.183471 0.103245 0)
(-0.212212 0.111312 0)
(-0.239059 0.116234 0)
(-0.263492 0.11799 0)
(-0.285257 0.116768 0)
(-0.304277 0.112882 0)
(-0.320601 0.106688 0)
(-0.334356 0.0985518 0)
(-0.34573 0.0888146 0)
(-0.354945 0.0777827 0)
(-0.362239 0.0657102 0)
(-0.367848 0.0528027 0)
(-0.371993 0.039212 0)
(-0.374864 0.0250492 0)
(-0.376617 0.0103872 0)
(-0.377361 -0.00472012 0)
(-0.377152 -0.0202291 0)
(-0.375981 -0.0360827 0)
(-0.373766 -0.0521946 0)
(-0.37033 -0.0684173 0)
(-0.365397 -0.0845182 0)
(-0.358571 -0.100142 0)
(-0.349349 -0.114786 0)
(-0.337138 -0.12778 0)
(-0.32132 -0.138294 0)
(-0.301351 -0.145388 0)
(-0.276904 -0.148117 0)
(-0.248041 -0.145688 0)
(-0.215375 -0.137682 0)
(-0.18015 -0.124253 0)
(-0.14419 -0.106274 0)
(-0.109625 -0.0852914 0)
(-0.0784622 -0.0632553 0)
(-0.0520683 -0.0420575 0)
(-0.0309453 -0.0231024 0)
(-0.0147926 -0.00715085 0)
(-0.00300425 0.00553709 0)
(0.00509616 0.0149669 0)
(0.00998967 0.0212842 0)
(0.0122213 0.0247929 0)
(0.0122152 0.0259132 0)
(0.0106493 0.0251755 0)
(0.00798362 0.0229379 0)
(0.00502581 0.0193376 0)
(0.00215408 0.0139099 0)
(0.000354674 0.00593179 0)
(0.000485674 -0.00804512 0)
(0.00161379 -0.0145078 0)
(0.00170922 -0.0136466 0)
(-0.000447012 -0.00750515 0)
(-0.00511767 0.00132209 0)
(-0.0125504 0.0115186 0)
(-0.0229452 0.0223588 0)
(-0.0367568 0.0341398 0)
(-0.0544776 0.0472511 0)
(-0.0763789 0.0620062 0)
(-0.102192 0.0780192 0)
(-0.130976 0.0943392 0)
(-0.161299 0.109584 0)
(-0.191605 0.122482 0)
(-0.220597 0.132128 0)
(-0.24737 0.138132 0)
(-0.2714 0.140474 0)
(-0.29243 0.139403 0)
(-0.310409 0.135287 0)
(-0.325428 0.128576 0)
(-0.337694 0.119722 0)
(-0.347485 0.109162 0)
(-0.355128 0.0972796 0)
(-0.360956 0.0843977 0)
(-0.365298 0.0707646 0)
(-0.368447 0.0565647 0)
(-0.370663 0.0419165 0)
(-0.372161 0.0268919 0)
(-0.373118 0.0115191 0)
(-0.373663 -0.00419617 0)
(-0.373888 -0.0202665 0)
(-0.373832 -0.0367002 0)
(-0.373476 -0.0534925 0)
(-0.372723 -0.0705963 0)
(-0.371375 -0.0879013 0)
(-0.369095 -0.105192 0)
(-0.365394 -0.122111 0)
(-0.359595 -0.13811 0)
(-0.350863 -0.152424 0)
(-0.338246 -0.164057 0)
(-0.320816 -0.171837 0)
(-0.297848 -0.174535 0)
(-0.269097 -0.171083 0)
(-0.235042 -0.160861 0)
(-0.197091 -0.14402 0)
(-0.157536 -0.121689 0)
(-0.119241 -0.0959623 0)
(-0.0849459 -0.0694866 0)
(-0.0565334 -0.044754 0)
(-0.0345237 -0.023433 0)
(-0.0183587 -0.00618253 0)
(-0.00697184 0.00702695 0)
(0.000552755 0.0164948 0)
(0.0050057 0.0226204 0)
(0.00691701 0.0258185 0)
(0.00695192 0.0265845 0)
(0.00559517 0.0252242 0)
(0.00364032 0.0218641 0)
(0.00155724 0.0159913 0)
(0.000237548 0.00687547 0)
(0.000360699 -0.00894146 0)
(0.00053189 -0.0146415 0)
(-0.0012005 -0.0117366 0)
(-0.00565282 -0.00291787 0)
(-0.0130899 0.00875914 0)
(-0.0236561 0.0220337 0)
(-0.0377119 0.0363203 0)
(-0.0556597 0.0520351 0)
(-0.0778157 0.0693466 0)
(-0.103896 0.088038 0)
(-0.132979 0.107027 0)
(-0.163542 0.12485 0)
(-0.193966 0.140002 0)
(-0.222846 0.151469 0)
(-0.249233 0.158758 0)
(-0.272542 0.16186 0)
(-0.292516 0.161039 0)
(-0.309113 0.156757 0)
(-0.322497 0.149549 0)
(-0.332953 0.139991 0)
(-0.340874 0.128618 0)
(-0.346678 0.115912 0)
(-0.350794 0.10226 0)
(-0.353604 0.0879656 0)
(-0.355451 0.0732376 0)
(-0.356611 0.0582147 0)
(-0.357313 0.042968 0)
(-0.357734 0.0275271 0)
(-0.358018 0.0118824 0)
(-0.358274 -0.00399362 0)
(-0.358596 -0.0201467 0)
(-0.359048 -0.0366229 0)
(-0.359671 -0.0534681 0)
(-0.36046 -0.070707 0)
(-0.361351 -0.0883332 0)
(-0.36217 -0.106273 0)
(-0.362603 -0.124355 0)
(-0.362127 -0.142245 0)
(-0.359978 -0.159396 0)
(-0.35512 -0.174974 0)
(-0.346299 -0.187842 0)
(-0.33216 -0.196575 0)
(-0.311512 -0.199603 0)
(-0.283673 -0.195475 0)
(-0.248879 -0.183255 0)
(-0.208614 -0.162986 0)
(-0.165677 -0.136049 0)
(-0.123766 -0.105194 0)
(-0.0865592 -0.0739674 0)
(-0.0565004 -0.0456288 0)
(-0.0341489 -0.0221237 0)
(-0.0184841 -0.0039077 0)
(-0.00803702 0.00944312 0)
(-0.00147206 0.018604 0)
(0.00211069 0.0241666 0)
(0.00352009 0.026682 0)
(0.00333005 0.0264371 0)
(0.00231265 0.0235323 0)
(0.000993128 0.0174538 0)
(0.000132059 0.00751709 0)
(0.000123542 -0.00917462 0)
(-0.00105121 -0.0131106 0)
(-0.00504146 -0.00750954 0)
(-0.0121037 0.00440932 0)
(-0.0225687 0.0193125 0)
(-0.036456 0.036086 0)
(-0.0542448 0.0542525 0)
(-0.076082 0.0741251 0)
(-0.101891 0.0953675 0)
(-0.130705 0.117063 0)
(-0.1611 0.137552 0)
(-0.191309 0.1552 0)
(-0.219883 0.16874 0)
(-0.245721 0.177586 0)
(-0.268215 0.181649 0)
(-0.287043 0.181245 0)
(-0.302222 0.176897 0)
(-0.313953 0.169275 0)
(-0.322645 0.15907 0)
(-0.328775 0.146956 0)
(-0.332879 0.133504 0)
(-0.33544 0.119185 0)
(-0.336905 0.104337 0)
(-0.337619 0.0892005 0)
(-0.337865 0.0739131 0)
(-0.337842 0.0585516 0)
(-0.337705 0.0431345 0)
(-0.337556 0.0276532 0)
(-0.337486 0.0120705 0)
(-0.337559 -0.00365795 0)
(-0.337847 -0.0195901 0)
(-0.338411 -0.0357827 0)
(-0.339323 -0.0522992 0)
(-0.340638 -0.0691952 0)
(-0.342399 -0.0865223 0)
(-0.344594 -0.104304 0)
(-0.347129 -0.12252 0)
(-0.349753 -0.141054 0)
(-0.351999 -0.159641 0)
(-0.353085 -0.177768 0)
(-0.351873 -0.194591 0)
(-0.346848 -0.208846 0)
(-0.336262 -0.218855 0)
(-0.318396 -0.222643 0)
(-0.292034 -0.218261 0)
(-0.257035 -0.204312 0)
(-0.214878 -0.180615 0)
(-0.16886 -0.148808 0)
(-0.123656 -0.112456 0)
(-0.0839952 -0.0762737 0)
(-0.0529535 -0.0444483 0)
(-0.0309073 -0.0191447 0)
(-0.0163158 -0.000435909 0)
(-0.00715249 0.0126224 0)
(-0.00184883 0.0210239 0)
(0.00079668 0.0255693 0)
(0.00158601 0.0266518 0)
(0.00133103 0.0243929 0)
(0.000607385 0.0183386 0)
(7.10237e-05 0.00788959 0)
(-0.000240503 -0.00848151 0)
(-0.00311407 -0.00957527 0)
(-0.00967254 -0.000719601 0)
(-0.019507 0.0146131 0)
(-0.0330826 0.0330382 0)
(-0.0502377 0.0536031 0)
(-0.0714672 0.0758028 0)
(-0.0964558 0.099571 0)
(-0.124639 0.123888 0)
(-0.154461 0.147198 0)
(-0.184296 0.167575 0)
(-0.212441 0.183562 0)
(-0.237783 0.194316 0)
(-0.259528 0.19969 0)
(-0.277397 0.199971 0)
(-0.291355 0.195784 0)
(-0.301724 0.187907 0)
(-0.308959 0.177196 0)
(-0.313682 0.164446 0)
(-0.316479 0.150353 0)
(-0.317928 0.13545 0)
(-0.318478 0.12013 0)
(-0.318502 0.104638 0)
(-0.318242 0.0891216 0)
(-0.317879 0.0736399 0)
(-0.317509 0.05821 0)
(-0.317205 0.0428085 0)
(-0.316997 0.027403 0)
(-0.316921 0.0119455 0)
(-0.317001 -0.00360793 0)
(-0.317283 -0.0193093 0)
(-0.31781 -0.035205 0)
(-0.318657 -0.0513496 0)
(-0.319895 -0.0677955 0)
(-0.321621 -0.0846049 0)
(-0.323912 -0.101837 0)
(-0.32683 -0.11955 0)
(-0.330358 -0.137771 0)
(-0.334355 -0.156463 0)
(-0.338443 -0.175444 0)
(-0.341912 -0.194286 0)
(-0.343594 -0.212172 0)
(-0.341821 -0.227762 0)
(-0.33449 -0.239128 0)
(-0.319367 -0.243845 0)
(-0.294632 -0.239358 0)
(-0.259675 -0.223661 0)
(-0.215885 -0.19626 0)
(-0.167097 -0.159088 0)
(-0.119079 -0.116797 0)
(-0.0777553 -0.0755948 0)
(-0.0466725 -0.0407129 0)
(-0.0257799 -0.0142882 0)
(-0.0127632 0.00425343 0)
(-0.00519819 0.0163913 0)
(-0.00120355 0.0234378 0)
(0.000462092 0.0261161 0)
(0.000788031 0.0247012 0)
(0.000440868 0.0188782 0)
(5.90226e-05 0.00814569 0)
(-0.00073324 -0.00653606 0)
(-0.00558538 -0.00368535 0)
(-0.0148814 0.00885905 0)
(-0.0274964 0.0278037 0)
(-0.0440741 0.0499282 0)
(-0.0641778 0.0743557 0)
(-0.0881991 0.100355 0)
(-0.11524 0.12726 0)
(-0.144321 0.153377 0)
(-0.17352 0.176755 0)
(-0.201303 0.195544 0)
(-0.226196 0.208679 0)
(-0.247464 0.215794 0)
(-0.264622 0.217169 0)
(-0.277745 0.213459 0)
(-0.287102 0.205592 0)
(-0.293313 0.194566 0)
(-0.297014 0.181347 0)
(-0.298935 0.166742 0)
(-0.299652 0.151382 0)
(-0.299684 0.135692 0)
(-0.29936 0.119944 0)
(-0.298934 0.104269 0)
(-0.29852 0.0887226 0)
(-0.298203 0.0732972 0)
(-0.297989 0.0579664 0)
(-0.297891 0.0426829 0)
(-0.297891 0.0274059 0)
(-0.297996 0.0120887 0)
(-0.2982 -0.00330358 0)
(-0.298534 -0.0188098 0)
(-0.299023 -0.0344598 0)
(-0.299731 -0.0502913 0)
(-0.300724 -0.0663397 0)
(-0.302101 -0.0826548 0)
(-0.303966 -0.0992933 0)
(-0.306444 -0.116332 0)
(-0.309639 -0.133853 0)
(-0.313618 -0.151942 0)
(-0.318328 -0.170635 0)
(-0.323513 -0.189853 0)
(-0.328554 -0.209263 0)
(-0.332328 -0.228105 0)
(-0.333072 -0.244982 0)
(-0.328412 -0.25771 0)
(-0.315622 -0.263369 0)
(-0.29228 -0.258686 0)
(-0.257252 -0.24093 0)
(-0.211845 -0.209225 0)
(-0.160516 -0.165978 0)
(-0.110324 -0.117322 0)
(-0.0684243 -0.0713908 0)
(-0.0385277 -0.034343 0)
(-0.0196264 -0.00781693 0)
(-0.00864345 0.00966215 0)
(-0.00279504 0.020114 0)
(-0.000154174 0.0248788 0)
(0.000654394 0.0246093 0)
(0.000488102 0.0192412 0)
(9.55109e-05 0.00838885 0)
(-0.00132352 -0.00313556 0)
(-0.00829063 0.00466715 0)
(-0.0203042 0.0211641 0)
(-0.0355231 0.0437662 0)
(-0.054778 0.0695776 0)
(-0.0772559 0.097637 0)
(-0.103164 0.12681 0)
(-0.131023 0.155742 0)
(-0.159619 0.182246 0)
(-0.186905 0.204273 0)
(-0.211633 0.220305 0)
(-0.232615 0.229757 0)
(-0.249515 0.232755 0)
(-0.262163 0.229993 0)
(-0.271009 0.222491 0)
(-0.276585 0.211427 0)
(-0.279722 0.197927 0)
(-0.281114 0.182957 0)
(-0.281479 0.167239 0)
(-0.281278 0.151264 0)
(-0.280906 0.135311 0)
(-0.280536 0.119518 0)
(-0.280305 0.103915 0)
(-0.280217 0.0884869 0)
(-0.280286 0.0731829 0)
(-0.28046 0.0579564 0)
(-0.280727 0.0427545 0)
(-0.281041 0.0275412 0)
(-0.2814 0.0122799 0)
(-0.281785 -0.00305032 0)
(-0.282218 -0.0184727 0)
(-0.282711 -0.0339997 0)
(-0.283315 -0.0496502 0)
(-0.284076 -0.0654391 0)
(-0.285079 -0.0813951 0)
(-0.286413 -0.0975541 0)
(-0.288208 -0.113978 0)
(-0.290598 -0.130751 0)
(-0.29374 -0.147991 0)
(-0.297756 -0.165835 0)
(-0.302694 -0.184405 0)
(-0.308396 -0.203724 0)
(-0.31436 -0.223569 0)
(-0.319511 -0.243237 0)
(-0.322039 -0.261265 0)
(-0.319328 -0.275193 0)
(-0.308213 -0.281522 0)
(-0.285686 -0.27617 0)
(-0.250136 -0.255559 0)
(-0.202873 -0.218505 0)
(-0.149203 -0.168205 0)
(-0.0977259 -0.112961 0)
(-0.0567498 -0.0631719 0)
(-0.029421 -0.0254468 0)
(-0.0132934 -0.000179484 0)
(-0.00463342 0.0151915 0)
(-0.000621855 0.0228956 0)
(0.000744094 0.0242555 0)
(0.000668536 0.0196163 0)
(0.000162786 0.00874653 0)
(-0.00196935 0.00187527 0)
(-0.0110464 0.0155114 0)
(-0.0255964 0.0360722 0)
(-0.0430915 0.0622424 0)
(-0.0645216 0.0915383 0)
(-0.0886245 0.122725 0)
(-0.11541 0.154162 0)
(-0.142921 0.18386 0)
(-0.169921 0.209406 0)
(-0.19442 0.22891 0)
(-0.215556 0.241345 0)
(-0.232443 0.246632 0)
(-0.245155 0.245391 0)
(-0.253834 0.238719 0)
(-0.259258 0.227945 0)
(-0.262118 0.214394 0)
(-0.263336 0.199199 0)
(-0.263537 0.183221 0)
(-0.263331 0.16702 0)
(-0.263014 0.150915 0)
(-0.262836 0.135037 0)
(-0.262834 0.119411 0)
(-0.263055 0.103995 0)
(-0.263429 0.0887306 0)
(-0.263938 0.0735517 0)
(-0.264505 0.0584088 0)
(-0.265115 0.0432556 0)
(-0.265714 0.0280667 0)
(-0.266306 0.0128177 0)
(-0.266867 -0.00249996 0)
(-0.267421 -0.0178972 0)
(-0.26797 -0.033374 0)
(-0.268554 -0.0489362 0)
(-0.269201 -0.0645837 0)
(-0.269974 -0.0803272 0)
(-0.270933 -0.0961807 0)
(-0.272179 -0.11218 0)
(-0.273822 -0.128381 0)
(-0.276024 -0.144886 0)
(-0.278954 -0.161838 0)
(-0.282804 -0.17943 0)
(-0.287694 -0.197872 0)
(-0.293581 -0.217294 0)
(-0.300049 -0.237581 0)
(-0.30608 -0.258064 0)
(-0.309787 -0.27718 0)
(-0.308318 -0.292084 0)
(-0.298075 -0.298608 0)
(-0.275519 -0.291694 0)
(-0.238682 -0.266919 0)
(-0.189122 -0.222955 0)
(-0.133396 -0.164526 0)
(-0.081937 -0.102974 0)
(-0.0437854 -0.0510986 0)
(-0.0203595 -0.0147437 0)
(-0.00753113 0.00778987 0)
(-0.00142312 0.019788 0)
(0.000797012 0.0235502 0)
(0.000875876 0.0200321 0)
(0.000241272 0.00925462 0)
(-0.00260022 0.00846801 0)
(-0.013606 0.0286241 0)
(-0.0303426 0.0531913 0)
(-0.0496464 0.0826697 0)
(-0.0726185 0.115024 0)
(-0.0975251 0.148589 0)
(-0.124228 0.181226 0)
(-0.150442 0.21046 0)
(-0.175089 0.233923 0)
(-0.196349 0.250064 0)
(-0.213781 0.258425 0)
(-0.226801 0.259432 0)
(-0.235885 0.254192 0)
(-0.241429 0.244144 0)
(-0.244445 0.230825 0)
(-0.245655 0.215571 0)
(-0.245952 0.199415 0)
(-0.245804 0.183028 0)
(-0.245678 0.166783 0)
(-0.245692 0.150828 0)
(-0.245984 0.135174 0)
(-0.246485 0.119767 0)
(-0.247194 0.104526 0)
(-0.248006 0.0893789 0)
(-0.248899 0.0742616 0)
(-0.249791 0.0591333 0)
(-0.250674 0.0439613 0)
(-0.2515 0.0287324 0)
(-0.25228 0.0134345 0)
(-0.252993 -0.00193016 0)
(-0.253663 -0.0173628 0)
(-0.254287 -0.0328545 0)
(-0.254902 -0.0484023 0)
(-0.255521 -0.0639964 0)
(-0.256191 -0.079636 0)
(-0.256945 -0.0953194 0)
(-0.257852 -0.11106 0)
(-0.258983 -0.126887 0)
(-0.260458 -0.142861 0)
(-0.262419 -0.159091 0)
(-0.265074 -0.175751 0)
(-0.268645 -0.193092 0)
(-0.273343 -0.21141 0)
(-0.279215 -0.23096 0)
(-0.28594 -0.251719 0)
(-0.29251 -0.273048 0)
(-0.296924 -0.29316 0)
(-0.296027 -0.308723 0)
(-0.285762 -0.31464 0)
(-0.26213 -0.304788 0)
(-0.223012 -0.273867 0)
(-0.170687 -0.221009 0)
(-0.11352 -0.153554 0)
(-0.0640585 -0.0870936 0)
(-0.0308798 -0.0359669 0)
(-0.0122784 -0.00323513 0)
(-0.00306239 0.0149595 0)
(0.000529747 0.0222581 0)
(0.000989503 0.0204321 0)
(0.000308085 0.00991913 0)
(-0.00315822 0.016516 0)
(-0.0157884 0.0437122 0)
(-0.0342577 0.0721225 0)
(-0.0548284 0.104546 0)
(-0.0786608 0.1394 0)
(-0.103584 0.174493 0)
(-0.129395 0.207273 0)
(-0.153638 0.234977 0)
(-0.175516 0.255507 0)
(-0.193432 0.267763 0)
(-0.207373 0.271887 0)
(-0.217033 0.268797 0)
(-0.223243 0.260044 0)
(-0.226562 0.247304 0)
(-0.228111 0.232192 0)
(-0.228531 0.215933 0)
(-0.228606 0.19938 0)
(-0.228614 0.182982 0)
(-0.228878 0.166932 0)
(-0.229373 0.151239 0)
(-0.230162 0.135834 0)
(-0.231114 0.120619 0)
(-0.232219 0.105504 0)
(-0.233358 0.0904199 0)
(-0.234523 0.0753156 0)
(-0.235637 0.0601631 0)
(-0.236709 0.0449434 0)
(-0.237693 0.0296535 0)
(-0.238612 0.0142913 0)
(-0.239444 -0.0011342 0)
(-0.240218 -0.0166177 0)
(-0.240927 -0.0321455 0)
(-0.241605 -0.0477094 0)
(-0.242257 -0.0632957 0)
(-0.242921 -0.0788972 0)
(-0.243612 -0.0945051 0)
(-0.244378 -0.11012 0)
(-0.245252 -0.12575 0)
(-0.246311 -0.141424 0)
(-0.247643 -0.157207 0)
(-0.249405 -0.173214 0)
(-0.251799 -0.189654 0)
(-0.2551 -0.206822 0)
(-0.259577 -0.225124 0)
(-0.265375 -0.244916 0)
(-0.272236 -0.266295 0)
(-0.279127 -0.288548 0)
(-0.283848 -0.309597 0)
(-0.282842 -0.325302 0)
(-0.271549 -0.329454 0)
(-0.245586 -0.314585 0)
(-0.203094 -0.274869 0)
(-0.147715 -0.210835 0)
(-0.0904772 -0.134393 0)
(-0.0457726 -0.0661793 0)
(-0.0194106 -0.0193177 0)
(-0.0059339 0.00754215 0)
(-0.000266633 0.0199269 0)
(0.000924372 0.020604 0)
(0.00034926 0.0106635 0)
(-0.00357682 0.025727 0)
(-0.0174038 0.0602919 0)
(-0.0370664 0.0922675 0)
(-0.0583208 0.127149 0)
(-0.0823414 0.163822 0)
(-0.106597 0.199548 0)
(-0.13091 0.231509 0)
(-0.15279 0.256844 0)
(-0.171781 0.273892 0)
(-0.186531 0.282054 0)
(-0.197424 0.282078 0)
(-0.204392 0.275323 0)
(-0.208536 0.263702 0)
(-0.210465 0.248997 0)
(-0.211306 0.232778 0)
(-0.21154 0.216066 0)
(-0.211812 0.199499 0)
(-0.212216 0.183309 0)
(-0.212964 0.167545 0)
(-0.21393 0.152114 0)
(-0.215143 0.13691 0)
(-0.216446 0.121819 0)
(-0.217839 0.106761 0)
(-0.219205 0.0916763 0)
(-0.220558 0.0765329 0)
(-0.221825 0.061314 0)
(-0.223031 0.0460131 0)
(-0.224133 0.0306348 0)
(-0.225161 0.0151847 0)
(-0.22609 -0.000323325 0)
(-0.226953 -0.0158784 0)
(-0.227739 -0.0314633 0)
(-0.228484 -0.0470662 0)
(-0.229185 -0.062671 0)
(-0.229878 -0.0782673 0)
(-0.230569 -0.0938442 0)
(-0.231291 -0.109396 0)
(-0.23206 -0.124923 0)
(-0.232919 -0.140433 0)
(-0.233912 -0.155959 0)
(-0.235134 -0.171564 0)
(-0.23672 -0.187388 0)
(-0.2389 -0.203654 0)
(-0.24197 -0.220748 0)
(-0.246275 -0.239145 0)
(-0.252025 -0.259369 0)
(-0.258997 -0.281536 0)
(-0.26606 -0.304855 0)
(-0.27069 -0.326634 0)
(-0.268819 -0.341713 0)
(-0.255303 -0.342259 0)
(-0.225625 -0.319501 0)
(-0.178696 -0.2676 0)
(-0.12066 -0.190488 0)
(-0.0658813 -0.107248 0)
(-0.0292414 -0.0422729 0)
(-0.0102961 -0.00338733 0)
(-0.00170568 0.0159975 0)
(0.000642831 0.020292 0)
(0.000358964 0.0114014 0)
(-0.00382295 0.0357465 0)
(-0.0183704 0.0778886 0)
(-0.0386698 0.11313 0)
(-0.0600494 0.149968 0)
(-0.0836612 0.187788 0)
(-0.106717 0.223345 0)
(-0.129139 0.253716 0)
(-0.148501 0.276106 0)
(-0.164706 0.289398 0)
(-0.17664 0.293505 0)
(-0.185035 0.28976 0)
(-0.189998 0.279892 0)
(-0.192795 0.266065 0)
(-0.193991 0.250034 0)
(-0.19464 0.23323 0)
(-0.195036 0.216424 0)
(-0.195686 0.200042 0)
(-0.196532 0.18413 0)
(-0.197719 0.168638 0)
(-0.199059 0.153412 0)
(-0.200581 0.138338 0)
(-0.20212 0.123304 0)
(-0.203699 0.108249 0)
(-0.205208 0.0931271 0)
(-0.206682 0.0779218 0)
(-0.208052 0.0626246 0)
(-0.209354 0.0472383 0)
(-0.210545 0.0317714 0)
(-0.21166 0.0162354 0)
(-0.212673 0.000646681 0)
(-0.213617 -0.0149798 0)
(-0.214479 -0.0306249 0)
(-0.215293 -0.0462736 0)
(-0.216054 -0.0619088 0)
(-0.216797 -0.0775185 0)
(-0.217523 -0.0930923 0)
(-0.218262 -0.108623 0)
(-0.219017 -0.12411 0)
(-0.219818 -0.139551 0)
(-0.220675 -0.154965 0)
(-0.22164 -0.170375 0)
(-0.222778 -0.185863 0)
(-0.22424 -0.201562 0)
(-0.226255 -0.217767 0)
(-0.229174 -0.234901 0)
(-0.233394 -0.253618 0)
(-0.239187 -0.274501 0)
(-0.246298 -0.297767 0)
(-0.253379 -0.322225 0)
(-0.257447 -0.344398 0)
(-0.253729 -0.357444 0)
(-0.236593 -0.351693 0)
(-0.201654 -0.317034 0)
(-0.149744 -0.249225 0)
(-0.0905684 -0.158843 0)
(-0.0424976 -0.0743669 0)
(-0.0161558 -0.0189292 0)
(-0.00389819 0.00980701 0)
(0.000165084 0.0191757 0)
(0.000334109 0.0120277 0)
(-0.00386704 0.0461307 0)
(-0.0186196 0.0959163 0)
(-0.0389997 0.134085 0)
(-0.0599881 0.172338 0)
(-0.0826872 0.21064 0)
(-0.104163 0.245328 0)
(-0.124485 0.273527 0)
(-0.141362 0.292633 0)
(-0.155034 0.30213 0)
(-0.164601 0.302428 0)
(-0.171075 0.295391 0)
(-0.174659 0.283019 0)
(-0.176691 0.267609 0)
(-0.177623 0.250781 0)
(-0.178391 0.23377 0)
(-0.17911 0.217087 0)
(-0.180175 0.200974 0)
(-0.181419 0.185335 0)
(-0.182954 0.170062 0)
(-0.184565 0.154972 0)
(-0.186296 0.139963 0)
(-0.187988 0.124933 0)
(-0.189687 0.109843 0)
(-0.191292 0.0946577 0)
(-0.192852 0.0793735 0)
(-0.194301 0.0639865 0)
(-0.195683 0.0485062 0)
(-0.196952 0.0329433 0)
(-0.198147 0.0173138 0)
(-0.199237 0.00163594 0)
(-0.200256 -0.014071 0)
(-0.201188 -0.0297859 0)
(-0.202066 -0.0454899 0)
(-0.202884 -0.061165 0)
(-0.203674 -0.0767968 0)
(-0.204438 -0.0923762 0)
(-0.205204 -0.107895 0)
(-0.205974 -0.123357 0)
(-0.206772 -0.138758 0)
(-0.207595 -0.154116 0)
(-0.208469 -0.169433 0)
(-0.209412 -0.184761 0)
(-0.210501 -0.200154 0)
(-0.211869 -0.215811 0)
(-0.213785 -0.232021 0)
(-0.216637 -0.249388 0)
(-0.220895 -0.268627 0)
(-0.226855 -0.290558 0)
(-0.23414 -0.315191 0)
(-0.241036 -0.340865 0)
(-0.243838 -0.362553 0)
(-0.237038 -0.371346 0)
(-0.214542 -0.355181 0)
(-0.173058 -0.3036 0)
(-0.116507 -0.216841 0)
(-0.0600014 -0.117037 0)
(-0.0235147 -0.0407939 0)
(-0.00696645 0.00080183 0)
(-0.000503775 0.0168692 0)
(0.000284628 0.0124751 0)
(-0.00371576 0.0564513 0)
(-0.018184 0.11389 0)
(-0.0381387 0.154706 0)
(-0.0583041 0.193911 0)
(-0.0797062 0.23215 0)
(-0.099371 0.265457 0)
(-0.117536 0.291131 0)
(-0.132084 0.306843 0)
(-0.143549 0.312693 0)
(-0.151213 0.30955 0)
(-0.156282 0.299738 0)
(-0.158993 0.285424 0)
(-0.160669 0.268932 0)
(-0.161616 0.251673 0)
(-0.162644 0.234669 0)
(-0.163716 0.218189 0)
(-0.165143 0.202335 0)
(-0.166693 0.186907 0)
(-0.168472 0.171776 0)
(-0.170256 0.156752 0)
(-0.172113 0.141753 0)
(-0.173894 0.126691 0)
(-0.175665 0.111545 0)
(-0.177331 0.0962877 0)
(-0.178952 0.0809237 0)
(-0.180462 0.0654506 0)
(-0.18191 0.0498824 0)
(-0.183248 0.0342298 0)
(-0.184515 0.0185124 0)
(-0.185678 0.00274945 0)
(-0.186772 -0.0130362 0)
(-0.187775 -0.0288219 0)
(-0.188721 -0.0445852 0)
(-0.189602 -0.0603073 0)
(-0.190448 -0.0759707 0)
(-0.19126 -0.0915678 0)
(-0.192067 -0.107089 0)
(-0.19287 -0.122542 0)
(-0.193694 -0.137924 0)
(-0.194531 -0.153259 0)
(-0.195399 -0.168541 0)
(-0.196291 -0.183815 0)
(-0.197238 -0.199083 0)
(-0.198291 -0.214476 0)
(-0.199615 -0.230138 0)
(-0.201492 -0.246536 0)
(-0.204386 -0.264296 0)