/*--------------------------------*- C++ -*----------------------------------*\
| =========                 |                                                 |
| \\      /  F ield         | OpenFOAM: The Open Source CFD Toolbox           |
|  \\    /   O peration     | Version:  2406                                  |
|   \\  /    A nd           | Website:  www.openfoam.com                      |
|    \\/     M anipulation  |                                                 |
\*---------------------------------------------------------------------------*/
FoamFile
{
    version     2.0;
    format      ascii;
    arch        "LSB;label=32;scalar=64";
    class       volScalarField;
    location    "2.1";
    object      p;
}
// * * * * * * * * * * * * * * * * * * * * * * * * * * * * * * * * * * * * * //

dimensions      [0 2 -2 0 0 0 0];

internalField   nonuniform List<scalar> 
14400
(
0.00302372
0.00302261
0.00302139
0.00301978
0.00301877
0.00301803
0.0030181
0.0030187
0.0030201
0.00302209
0.00302481
0.00302813
0.00303212
0.0030367
0.00304191
0.00304772
0.00305414
0.00306114
0.00306875
0.00307695
0.00308575
0.00309514
0.00310513
0.0031157
0.00312687
0.00313863
0.00315098
0.00316392
0.00317744
0.00319155
0.00320624
0.00322151
0.00323735
0.00325378
0.00327077
0.00328833
0.00330646
0.00332514
0.00334438
0.00336416
0.00338449
0.00340534
0.00342673
0.00344864
0.00347105
0.00349397
0.00351738
0.00354127
0.00356562
0.00359044
0.0036157
0.00364139
0.00366749
0.003694
0.00372089
0.00374815
0.00377576
0.0038037
0.00383196
0.0038605
0.00388932
0.00391838
0.00394767
0.00397716
0.00400683
0.00403664
0.00406659
0.00409663
0.00412674
0.0041569
0.00418706
0.00421721
0.00424732
0.00427734
0.00430725
0.00433702
0.00436661
0.004396
0.00442514
0.00445401
0.00448257
0.00451079
0.00453863
0.00456606
0.00459304
0.00461955
0.00464554
0.00467099
0.00469586
0.00472012
0.00474373
0.00476668
0.00478891
0.00481041
0.00483115
0.0048511
0.00487022
0.0048885
0.00490591
0.00492242
0.00493802
0.00495267
0.00496636
0.00497906
0.00499077
0.00500144
0.00501109
0.00501965
0.00502717
0.00503353
0.00503885
0.00504293
0.00504598
0.00504772
0.00504856
0.00504807
0.00504707
0.00504502
0.00504342
0.00504178
0.00302483
0.00302371
0.00302304
0.00302193
0.00302149
0.00302115
0.00302158
0.00302239
0.00302394
0.00302601
0.00302878
0.00303212
0.00303611
0.00304068
0.00304588
0.00305166
0.00305805
0.00306504
0.00307262
0.00308079
0.00308956
0.00309892
0.00310887
0.00311941
0.00313054
0.00314226
0.00315457
0.00316746
0.00318094
0.003195
0.00320964
0.00322486
0.00324066
0.00325702
0.00327396
0.00329146
0.00330952
0.00332814
0.00334731
0.00336702
0.00338727
0.00340805
0.00342936
0.00345119
0.00347352
0.00349635
0.00351967
0.00354347
0.00356773
0.00359245
0.00361761
0.00364319
0.0036692
0.00369559
0.00372238
0.00374952
0.00377701
0.00380484
0.00383297
0.00386139
0.00389008
0.00391901
0.00394817
0.00397753
0.00400706
0.00403674
0.00406654
0.00409644
0.00412641
0.00415642
0.00418644
0.00421644
0.00424639
0.00427626
0.00430602
0.00433563
0.00436507
0.0043943
0.00442329
0.00445201
0.00448041
0.00450847
0.00453616
0.00456343
0.00459026
0.00461662
0.00464246
0.00466776
0.00469249
0.0047166
0.00474008
0.00476288
0.00478498
0.00480635
0.00482696
0.00484678
0.00486578
0.00488395
0.00490124
0.00491764
0.00493314
0.00494769
0.00496128
0.0049739
0.00498553
0.00499612
0.00500571
0.00501422
0.00502171
0.00502807
0.00503343
0.0050376
0.00504084
0.00504285
0.00504413
0.00504418
0.00504395
0.00504259
0.00504177
0.00504014
0.00302605
0.00302439
0.00302371
0.00302247
0.00302211
0.00302179
0.00302229
0.00302313
0.00302474
0.00302683
0.00302962
0.00303296
0.00303696
0.00304153
0.00304673
0.00305251
0.0030589
0.00306587
0.00307344
0.0030816
0.00309036
0.00309971
0.00310965
0.00312017
0.00313129
0.003143
0.00315529
0.00316816
0.00318162
0.00319567
0.00321029
0.00322549
0.00324127
0.00325762
0.00327453
0.00329201
0.00331005
0.00332865
0.0033478
0.00336749
0.00338772
0.00340848
0.00342977
0.00345157
0.00347388
0.00349668
0.00351998
0.00354375
0.00356799
0.00359269
0.00361782
0.00364339
0.00366936
0.00369574
0.0037225
0.00374962
0.00377709
0.00380489
0.00383299
0.00386139
0.00389005
0.00391896
0.0039481
0.00397743
0.00400694
0.00403659
0.00406637
0.00409625
0.0041262
0.00415618
0.00418618
0.00421616
0.00424608
0.00427593
0.00430567
0.00433526
0.00436468
0.00439389
0.00442286
0.00445155
0.00447994
0.00450798
0.00453564
0.0045629
0.00458971
0.00461604
0.00464187
0.00466715
0.00469185
0.00471595
0.0047394
0.00476219
0.00478427
0.00480563
0.00482622
0.00484602
0.00486501
0.00488315
0.00490044
0.00491682
0.0049323
0.00494684
0.00496042
0.00497302
0.00498464
0.00499523
0.00500481
0.00501331
0.00502081
0.00502717
0.00503255
0.00503673
0.00504003
0.00504206
0.00504343
0.00504346
0.00504333
0.00504178
0.00504096
0.00503855
0.00302767
0.00302548
0.00302494
0.00302369
0.00302358
0.00302339
0.00302408
0.00302504
0.00302675
0.00302891
0.00303175
0.00303511
0.00303912
0.00304369
0.00304888
0.00305465
0.00306102
0.00306797
0.00307553
0.00308367
0.0030924
0.00310172
0.00311163
0.00312213
0.00313322
0.00314489
0.00315715
0.00317
0.00318342
0.00319743
0.00321201
0.00322718
0.00324291
0.00325922
0.00327609
0.00329353
0.00331153
0.00333008
0.00334918
0.00336882
0.003389
0.00340971
0.00343095
0.0034527
0.00347496
0.00349771
0.00352095
0.00354467
0.00356885
0.00359349
0.00361857
0.00364407
0.00366999
0.0036963
0.003723
0.00375006
0.00377747
0.0038052
0.00383324
0.00386158
0.00389018
0.00391902
0.00394809
0.00397736
0.0040068
0.00403639
0.0040661
0.00409591
0.00412579
0.0041557
0.00418563
0.00421554
0.0042454
0.00427518
0.00430485
0.00433438
0.00436373
0.00439287
0.00442177
0.00445039
0.00447871
0.00450669
0.00453428
0.00456147
0.00458822
0.00461449
0.00464025
0.00466547
0.00469011
0.00471414
0.00473754
0.00476026
0.00478229
0.00480358
0.00482412
0.00484387
0.0048628
0.0048809
0.00489813
0.00491447
0.0049299
0.00494439
0.00495793
0.00497049
0.00498208
0.00499263
0.0050022
0.00501068
0.00501818
0.00502455
0.00502998
0.00503422
0.00503764
0.0050398
0.0050414
0.00504159
0.00504177
0.00504021
0.00503957
0.00503649
0.00302867
0.00302588
0.00302527
0.00302377
0.00302366
0.0030234
0.00302414
0.00302509
0.00302684
0.003029
0.00303187
0.00303524
0.00303926
0.00304383
0.00304902
0.00305478
0.00306114
0.00306809
0.00307563
0.00308376
0.00309248
0.00310179
0.00311168
0.00312217
0.00313324
0.00314489
0.00315714
0.00316996
0.00318337
0.00319736
0.00321193
0.00322707
0.00324279
0.00325907
0.00327593
0.00329335
0.00331133
0.00332986
0.00334894
0.00336857
0.00338873
0.00340943
0.00343065
0.00345238
0.00347462
0.00349736
0.00352059
0.0035443
0.00356847
0.00359309
0.00361816
0.00364366
0.00366957
0.00369588
0.00372257
0.00374962
0.00377702
0.00380476
0.0038328
0.00386113
0.00388973
0.00391858
0.00394765
0.00397693
0.00400637
0.00403597
0.00406569
0.00409551
0.0041254
0.00415533
0.00418527
0.0042152
0.00424507
0.00427487
0.00430456
0.0043341
0.00436347
0.00439263
0.00442155
0.00445019
0.00447853
0.00450652
0.00453414
0.00456135
0.00458812
0.00461441
0.00464019
0.00466543
0.00469009
0.00471414
0.00473756
0.0047603
0.00478234
0.00480365
0.0048242
0.00484397
0.00486292
0.00488102
0.00489826
0.00491461
0.00493005
0.00494455
0.00495811
0.00497068
0.00498227
0.00499283
0.0050024
0.0050109
0.00501841
0.00502479
0.00503024
0.00503448
0.00503793
0.00504006
0.00504169
0.00504177
0.00504192
0.00504004
0.00503928
0.00503546
0.00302938
0.00302615
0.00302552
0.00302388
0.00302385
0.00302359
0.00302441
0.00302539
0.0030272
0.00302939
0.00303229
0.00303567
0.0030397
0.00304427
0.00304946
0.00305521
0.00306157
0.0030685
0.00307603
0.00308413
0.00309284
0.00310212
0.003112
0.00312246
0.00313351
0.00314514
0.00315736
0.00317016
0.00318354
0.0031975
0.00321205
0.00322716
0.00324285
0.00325911
0.00327594
0.00329333
0.00331129
0.00332979
0.00334885
0.00336845
0.00338858
0.00340925
0.00343045
0.00345216
0.00347437
0.00349709
0.00352029
0.00354398
0.00356813
0.00359273
0.00361778
0.00364326
0.00366915
0.00369544
0.00372212
0.00374916
0.00377655
0.00380427
0.0038323
0.00386062
0.00388922
0.00391806
0.00394713
0.00397639
0.00400584
0.00403543
0.00406516
0.00409498
0.00412487
0.0041548
0.00418475
0.00421468
0.00424456
0.00427436
0.00430406
0.00433361
0.00436299
0.00439216
0.00442109
0.00444974
0.00447809
0.0045061
0.00453373
0.00456095
0.00458773
0.00461404
0.00463983
0.00466508
0.00468975
0.00471381
0.00473724
0.00475999
0.00478204
0.00480336
0.00482392
0.00484369
0.00486264
0.00488075
0.004898
0.00491435
0.0049298
0.0049443
0.00495785
0.00497042
0.00498202
0.00499258
0.00500216
0.00501066
0.00501819
0.00502458
0.00503007
0.00503434
0.00503785
0.00504001
0.00504172
0.00504179
0.00504202
0.00503995
0.00503917
0.00503484
0.00302922
0.00302561
0.0030249
0.00302306
0.003023
0.00302265
0.00302347
0.00302443
0.00302626
0.00302844
0.00303135
0.00303473
0.00303877
0.00304333
0.00304852
0.00305426
0.00306061
0.00306753
0.00307505
0.00308315
0.00309184
0.00310111
0.00311097
0.00312142
0.00313245
0.00314407
0.00315628
0.00316906
0.00318243
0.00319638
0.0032109
0.00322601
0.00324168
0.00325793
0.00327475
0.00329213
0.00331007
0.00332857
0.00334761
0.00336721
0.00338734
0.003408
0.0034292
0.0034509
0.00347312
0.00349584
0.00351905
0.00354274
0.0035669
0.00359151
0.00361657
0.00364207
0.00366798
0.00369429
0.00372098
0.00374805
0.00377547
0.00380322
0.00383128
0.00385964
0.00388827
0.00391715
0.00394626
0.00397557
0.00400506
0.00403471
0.00406448
0.00409436
0.0041243
0.00415429
0.0041843
0.00421429
0.00424424
0.00427411
0.00430387
0.00433349
0.00436293
0.00439217
0.00442117
0.0044499
0.00447832
0.0045064
0.0045341
0.0045614
0.00458824
0.00461462
0.00464048
0.00466579
0.00469053
0.00471466
0.00473815
0.00476096
0.00478307
0.00480445
0.00482506
0.00484488
0.00486389
0.00488204
0.00489933
0.00491573
0.00493121
0.00494575
0.00495933
0.00497193
0.00498356
0.00499415
0.00500375
0.00501227
0.00501982
0.00502622
0.00503173
0.00503599
0.00503951
0.00504162
0.00504332
0.00504326
0.00504343
0.0050411
0.00504021
0.00503544
0.00302847
0.0030246
0.00302387
0.00302189
0.00302184
0.00302145
0.0030223
0.00302325
0.0030251
0.00302729
0.00303022
0.0030336
0.00303764
0.0030422
0.00304738
0.00305312
0.00305946
0.00306637
0.00307387
0.00308196
0.00309063
0.00309989
0.00310974
0.00312017
0.00313118
0.00314279
0.00315497
0.00316774
0.00318109
0.00319502
0.00320953
0.00322462
0.00324028
0.00325652
0.00327332
0.00329069
0.00330862
0.00332711
0.00334614
0.00336573
0.00338586
0.00340652
0.00342771
0.00344941
0.00347163
0.00349435
0.00351757
0.00354127
0.00356544
0.00359007
0.00361514
0.00364065
0.00366658
0.00369292
0.00371964
0.00374673
0.00377418
0.00380197
0.00383007
0.00385847
0.00388714
0.00391607
0.00394523
0.00397459
0.00400414
0.00403384
0.00406367
0.00409361
0.00412362
0.00415368
0.00418375
0.00421382
0.00424384
0.00427378
0.00430362
0.00433331
0.00436284
0.00439216
0.00442124
0.00445005
0.00447855
0.00450671
0.00453449
0.00456187
0.0045888
0.00461525
0.00464119
0.00466658
0.00469139
0.00471559
0.00473915
0.00476203
0.00478421
0.00480565
0.00482632
0.0048462
0.00486526
0.00488347
0.00490081
0.00491725
0.00493277
0.00494735
0.00496097
0.0049736
0.00498526
0.00499588
0.00500551
0.00501405
0.00502162
0.00502805
0.00503358
0.00503785
0.0050414
0.00504349
0.00504521
0.00504509
0.00504525
0.00504277
0.00504183
0.00503679
0.00302683
0.00302277
0.00302198
0.00301988
0.00301979
0.00301934
0.00302017
0.00302109
0.00302294
0.00302511
0.00302804
0.00303141
0.00303545
0.00304
0.00304518
0.00305091
0.00305725
0.00306415
0.00307164
0.00307972
0.00308838
0.00309763
0.00310746
0.00311788
0.00312889
0.00314048
0.00315266
0.00316541
0.00317876
0.00319268
0.00320718
0.00322227
0.00323792
0.00325415
0.00327095
0.00328832
0.00330625
0.00332474
0.00334379
0.00336338
0.00338351
0.00340419
0.00342539
0.00344712
0.00346936
0.0034921
0.00351534
0.00353907
0.00356327
0.00358794
0.00361305
0.00363861
0.00366458
0.00369097
0.00371774
0.0037449
0.00377241
0.00380026
0.00382843
0.0038569
0.00388566
0.00391466
0.00394391
0.00397336
0.004003
0.0040328
0.00406273
0.00409277
0.00412289
0.00415305
0.00418324
0.00421342
0.00424355
0.00427361
0.00430357
0.00433339
0.00436304
0.00439249
0.00442169
0.00445063
0.00447925
0.00450754
0.00453545
0.00456294
0.00459
0.00461657
0.00464263
0.00466814
0.00469307
0.00471738
0.00474105
0.00476404
0.00478632
0.00480786
0.00482863
0.0048486
0.00486775
0.00488604
0.00490346
0.00491997
0.00493556
0.0049502
0.00496388
0.00497656
0.00498827
0.00499893
0.0050086
0.00501717
0.00502477
0.00503121
0.00503676
0.00504102
0.00504456
0.00504662
0.00504831
0.0050481
0.00504819
0.00504554
0.00504453
0.00503927
0.0030245
0.00302031
0.0030195
0.00301732
0.00301722
0.00301673
0.00301756
0.00301846
0.00302031
0.00302248
0.0030254
0.00302877
0.00303281
0.00303736
0.00304253
0.00304825
0.00305458
0.00306147
0.00306896
0.00307702
0.00308567
0.00309491
0.00310473
0.00311514
0.00312614
0.00313772
0.00314988
0.00316263
0.00317597
0.00318988
0.00320438
0.00321946
0.00323511
0.00325134
0.00326814
0.00328551
0.00330345
0.00332194
0.003341
0.0033606
0.00338075
0.00340144
0.00342266
0.00344441
0.00346668
0.00348945
0.00351273
0.00353649
0.00356074
0.00358545
0.00361061
0.00363622
0.00366225
0.0036887
0.00371554
0.00374276
0.00377035
0.00379828
0.00382653
0.00385509
0.00388394
0.00391304
0.00394238
0.00397194
0.00400169
0.0040316
0.00406165
0.00409181
0.00412205
0.00415235
0.00418266
0.00421297
0.00424325
0.00427345
0.00430354
0.00433351
0.0043633
0.00439289
0.00442224
0.00445132
0.00448009
0.00450852
0.00453658
0.00456422
0.00459141
0.00461813
0.00464433
0.00466997
0.00469504
0.00471948
0.00474327
0.00476639
0.00478878
0.00481044
0.00483132
0.00485139
0.00487064
0.00488902
0.00490653
0.00492312
0.00493879
0.0049535
0.00496725
0.00497999
0.00499175
0.00500246
0.00501217
0.00502078
0.00502842
0.00503487
0.00504044
0.00504471
0.00504827
0.0050503
0.00505198
0.00505171
0.00505178
0.00504903
0.00504798
0.00504259
0.00302132
0.00301705
0.00301621
0.00301395
0.00301383
0.00301328
0.0030141
0.00301497
0.00301681
0.00301896
0.00302188
0.00302524
0.00302927
0.00303381
0.00303898
0.00304469
0.00305101
0.00305789
0.00306537
0.00307343
0.00308208
0.0030913
0.00310112
0.00311152
0.00312251
0.00313408
0.00314625
0.00315899
0.00317232
0.00318624
0.00320074
0.00321582
0.00323148
0.00324771
0.00326452
0.00328191
0.00329985
0.00331837
0.00333744
0.00335707
0.00337725
0.00339797
0.00341922
0.00344101
0.00346332
0.00348614
0.00350946
0.00353328
0.00355759
0.00358236
0.0036076
0.00363328
0.00365939
0.00368592
0.00371285
0.00374017
0.00376785
0.00379589
0.00382426
0.00385293
0.0038819
0.00391113
0.0039406
0.0039703
0.00400018
0.00403024
0.00406044
0.00409076
0.00412116
0.00415161
0.0041821
0.00421258
0.00424302
0.00427339
0.00430367
0.00433381
0.00436379
0.00439356
0.00442309
0.00445236
0.00448131
0.00450993
0.00453816
0.00456599
0.00459336
0.00462025
0.00464662
0.00467244
0.00469767
0.00472228
0.00474623
0.0047695
0.00479204
0.00481384
0.00483486
0.00485506
0.00487444
0.00489294
0.00491056
0.00492726
0.00494302
0.00495782
0.00497166
0.00498447
0.0049963
0.00500706
0.00501683
0.00502548
0.00503315
0.00503963
0.00504522
0.00504949
0.00505304
0.00505504
0.0050567
0.00505636
0.00505638
0.00505353
0.00505243
0.00504694
0.00301743
0.0030131
0.00301224
0.00300994
0.0030098
0.00300923
0.00301003
0.00301089
0.00301272
0.00301486
0.00301777
0.00302112
0.00302515
0.00302968
0.00303484
0.00304054
0.00304686
0.00305373
0.0030612
0.00306925
0.00307789
0.00308711
0.00309692
0.00310732
0.0031183
0.00312987
0.00314203
0.00315478
0.00316811
0.00318203
0.00319653
0.00321161
0.00322728
0.00324353
0.00326035
0.00327775
0.00329572
0.00331425
0.00333335
0.00335301
0.00337322
0.00339398
0.00341528
0.00343711
0.00345947
0.00348235
0.00350573
0.00352962
0.00355399
0.00357884
0.00360416
0.00362993
0.00365613
0.00368276
0.0037098
0.00373723
0.00376503
0.00379319
0.00382168
0.00385049
0.00387959
0.00390897
0.0039386
0.00396845
0.0039985
0.00402872
0.0040591
0.00408959
0.00412017
0.00415081
0.00418149
0.00421216
0.0042428
0.00427338
0.00430385
0.0043342
0.00436438
0.00439436
0.0044241
0.00445358
0.00448274
0.00451156
0.00454001
0.00456804
0.00459561
0.0046227
0.00464927
0.00467528
0.0047007
0.0047255
0.00474963
0.00477307
0.00479579
0.00481775
0.00483892
0.00485927
0.00487879
0.00489742
0.00491517
0.00493198
0.00494786
0.00496276
0.00497669
0.00498959
0.00500149
0.00501232
0.00502215
0.00503084
0.00503856
0.00504507
0.00505068
0.00505495
0.00505851
0.0050605
0.00506213
0.00506175
0.00506174
0.00505883
0.0050577
0.00505213
0.00301274
0.00300837
0.00300749
0.00300516
0.00300499
0.00300439
0.00300517
0.00300601
0.00300782
0.00300995
0.00301285
0.00301619
0.00302021
0.00302473
0.00302988
0.00303558
0.00304189
0.00304876
0.00305622
0.00306426
0.0030729
0.00308211
0.00309192
0.00310231
0.0031133
0.00312487
0.00313703
0.00314978
0.00316311
0.00317704
0.00319155
0.00320665
0.00322233
0.00323859
0.00325544
0.00327286
0.00329086
0.00330943
0.00332856
0.00334826
0.00336852
0.00338932
0.00341068
0.00343257
0.00345499
0.00347794
0.0035014
0.00352537
0.00354983
0.00357477
0.00360019
0.00362606
0.00365238
0.00367913
0.00370629
0.00373385
0.00376179
0.0037901
0.00381874
0.00384771
0.00387698
0.00390653
0.00393633
0.00396637
0.00399661
0.00402704
0.00405761
0.00408831
0.00411911
0.00414997
0.00418086
0.00421176
0.00424264
0.00427345
0.00430416
0.00433475
0.00436517
0.00439539
0.00442538
0.0044551
0.0044845
0.00451357
0.00454225
0.00457052
0.00459834
0.00462566
0.00465246
0.0046787
0.00470434
0.00472934
0.00475369
0.00477733
0.00480024
0.00482239
0.00484374
0.00486427
0.00488395
0.00490274
0.00492063
0.00493758
0.00495359
0.00496861
0.00498264
0.00499564
0.00500763
0.00501854
0.00502843
0.00503718
0.00504494
0.00505148
0.00505711
0.00506139
0.00506495
0.00506692
0.00506853
0.00506811
0.00506806
0.00506508
0.00506391
0.00505828
0.00300733
0.00300293
0.00300204
0.00299967
0.0029995
0.00299887
0.00299964
0.00300046
0.00300227
0.00300438
0.00300727
0.0030106
0.00301461
0.00301912
0.00302427
0.00302996
0.00303626
0.00304312
0.00305058
0.00305862
0.00306725
0.00307646
0.00308627
0.00309666
0.00310764
0.00311921
0.00313138
0.00314413
0.00315748
0.00317141
0.00318594
0.00320105
0.00321675
0.00323304
0.00324991
0.00326737
0.0032854
0.003304
0.00332318
0.00334293
0.00336323
0.0033841
0.00340551
0.00342748
0.00344997
0.003473
0.00349655
0.00352061
0.00354517
0.00357022
0.00359575
0.00362174
0.00364819
0.00367507
0.00370238
0.00373009
0.00375819
0.00378666
0.00381548
0.00384463
0.00387408
0.00390383
0.00393383
0.00396408
0.00399453
0.00402518
0.00405598
0.00408692
0.00411795
0.00414906
0.0041802
0.00421136
0.00424249
0.00427356
0.00430454
0.0043354
0.00436609
0.00439658
0.00442684
0.00445683
0.00448651
0.00451585
0.0045448
0.00457334
0.00460141
0.004629
0.00465605
0.00468254
0.00470843
0.00473368
0.00475825
0.00478212
0.00480525
0.00482761
0.00484916
0.00486988
0.00488974
0.00490871
0.00492676
0.00494387
0.00496001
0.00497516
0.00498931
0.00500242
0.00501451
0.0050255
0.00503546
0.00504427
0.00505209
0.00505866
0.00506432
0.00506862
0.00507218
0.00507413
0.00507573
0.00507527
0.0050752
0.00507217
0.00507097
0.00506528
0.00300116
0.00299673
0.00299583
0.00299343
0.00299324
0.00299259
0.00299335
0.00299415
0.00299594
0.00299804
0.00300092
0.00300424
0.00300824
0.00301274
0.00301788
0.00302357
0.00302986
0.00303672
0.00304417
0.0030522
0.00306083
0.00307004
0.00307985
0.00309024
0.00310123
0.0031128
0.00312498
0.00313774
0.0031511
0.00316505
0.00317959
0.00319473
0.00321045
0.00322677
0.00324367
0.00326116
0.00327923
0.00329789
0.00331712
0.00333692
0.00335729
0.00337822
0.00339971
0.00342175
0.00344434
0.00346746
0.00349111
0.00351528
0.00353995
0.00356513
0.00359079
0.00361692
0.00364351
0.00367055
0.00369802
0.0037259
0.00375418
0.00378283
0.00381185
0.0038412
0.00387087
0.00390083
0.00393107
0.00396155
0.00399225
0.00402314
0.0040542
0.0040854
0.00411671
0.00414809
0.00417952
0.00421096
0.00424238
0.00427375
0.00430503
0.00433618
0.00436718
0.00439798
0.00442854
0.00445884
0.00448882
0.00451846
0.00454772
0.00457656
0.00460493
0.00463281
0.00466015
0.00468692
0.00471308
0.0047386
0.00476344
0.00478756
0.00481094
0.00483353
0.00485531
0.00487624
0.00489631
0.00491547
0.0049337
0.00495098
0.00496728
0.00498257
0.00499686
0.00501009
0.00502228
0.00503336
0.00504341
0.00505229
0.00506016
0.00506677
0.00507246
0.00507677
0.00508033
0.00508227
0.00508386
0.00508336
0.00508326
0.00508017
0.00507895
0.00507319
0.00299426
0.00298981
0.00298889
0.00298648
0.00298627
0.0029856
0.00298634
0.00298713
0.00298891
0.002991
0.00299387
0.00299718
0.00300117
0.00300567
0.0030108
0.00301648
0.00302276
0.00302961
0.00303707
0.00304509
0.00305372
0.00306293
0.00307274
0.00308313
0.00309412
0.00310571
0.00311789
0.00313067
0.00314404
0.00315801
0.00317257
0.00318773
0.00320349
0.00321984
0.00323678
0.00325431
0.00327243
0.00329114
0.00331042
0.00333029
0.00335073
0.00337174
0.00339331
0.00341545
0.00343813
0.00346135
0.00348512
0.0035094
0.00353421
0.00355952
0.00358532
0.00361161
0.00363836
0.00366557
0.00369322
0.00372129
0.00374977
0.00377863
0.00380786
0.00383744
0.00386734
0.00389755
0.00392804
0.00395878
0.00398975
0.00402092
0.00405226
0.00408375
0.00411535
0.00414704
0.00417878
0.00421054
0.00424228
0.00427398
0.00430558
0.00433707
0.0043684
0.00439954
0.00443044
0.00446107
0.0044914
0.00452137
0.00455096
0.00458013
0.00460883
0.00463703
0.00466469
0.00469177
0.00471823
0.00474405
0.00476917
0.00479357
0.00481722
0.00484007
0.0048621
0.00488327
0.00490355
0.00492292
0.00494136
0.00495882
0.0049753
0.00499075
0.00500518
0.00501854
0.00503085
0.00504203
0.00505217
0.00506112
0.00506905
0.00507571
0.00508144
0.00508576
0.00508933
0.00509126
0.00509284
0.0050923
0.00509218
0.00508903
0.00508779
0.00508196
0.00298661
0.00298214
0.00298121
0.00297877
0.00297855
0.00297786
0.00297859
0.00297936
0.00298113
0.0029832
0.00298607
0.00298936
0.00299335
0.00299783
0.00300296
0.00300863
0.00301491
0.00302176
0.0030292
0.00303723
0.00304586
0.00305507
0.00306488
0.00307528
0.00308628
0.00309787
0.00311006
0.00312286
0.00313625
0.00315024
0.00316483
0.00318002
0.00319581
0.0032122
0.00322918
0.00324676
0.00326494
0.0032837
0.00330305
0.00332299
0.00334351
0.00336461
0.00338627
0.00340851
0.0034313
0.00345464
0.00347853
0.00350295
0.00352789
0.00355336
0.00357932
0.00360578
0.00363271
0.00366011
0.00368796
0.00371624
0.00374493
0.00377403
0.00380349
0.00383332
0.00386348
0.00389396
0.00392472
0.00395575
0.00398702
0.00401849
0.00405015
0.00408196
0.00411389
0.00414592
0.004178
0.0042101
0.0042422
0.00427425
0.00430622
0.00433808
0.00436978
0.00440128
0.00443256
0.00446356
0.00449426
0.0045246
0.00455456
0.00458409
0.00461315
0.0046417
0.00466971
0.00469713
0.00472393
0.00475007
0.00477551
0.00480022
0.00482416
0.00484729
0.00486959
0.00489102
0.00491155
0.00493116
0.00494981
0.00496747
0.00498414
0.00499977
0.00501436
0.00502786
0.0050403
0.00505159
0.00506183
0.00507086
0.00507885
0.00508556
0.00509132
0.00509566
0.00509925
0.00510116
0.00510272
0.00510215
0.005102
0.0050988
0.00509753
0.00509163
0.00297823
0.00297373
0.0029728
0.00297034
0.0029701
0.0029694
0.00297012
0.00297087
0.00297263
0.00297469
0.00297754
0.00298083
0.0029848
0.00298928
0.0029944
0.00300006
0.00300634
0.00301318
0.00302062
0.00302865
0.00303728
0.00304649
0.0030563
0.00306671
0.00307772
0.00308932
0.00310153
0.00311434
0.00312775
0.00314177
0.00315639
0.00317161
0.00318744
0.00320387
0.0032209
0.00323853
0.00325677
0.0032756
0.00329503
0.00331504
0.00333565
0.00335684
0.00337861
0.00340095
0.00342386
0.00344733
0.00347135
0.00349592
0.00352102
0.00354665
0.00357279
0.00359943
0.00362656
0.00365417
0.00368223
0.00371074
0.00373967
0.00376901
0.00379874
0.00382884
0.00385929
0.00389005
0.00392112
0.00395246
0.00398405
0.00401586
0.00404786
0.00408002
0.00411231
0.0041447
0.00417715
0.00420964
0.00424212
0.00427456
0.00430693
0.00433918
0.00437128
0.00440319
0.00443487
0.00446628
0.00449738
0.00452813
0.00455848
0.00458841
0.00461786
0.0046468
0.00467519
0.00470298
0.00473014
0.00475664
0.00478242
0.00480746
0.00483172
0.00485516
0.00487776
0.00489947
0.00492027
0.00494012
0.00495901
0.0049769
0.00499377
0.00500958
0.00502434
0.005038
0.00505058
0.00506199
0.00507233
0.00508145
0.00508952
0.00509628
0.00510208
0.00510644
0.00511003
0.00511194
0.00511349
0.00511289
0.00511271
0.00510945
0.00510815
0.00510217
0.00296912
0.00296459
0.00296364
0.00296116
0.00296091
0.00296019
0.00296089
0.00296163
0.00296338
0.00296542
0.00296827
0.00297154
0.00297551
0.00297998
0.00298509
0.00299074
0.00299701
0.00300385
0.00301129
0.00301932
0.00302794
0.00303716
0.00304698
0.00305739
0.00306841
0.00308003
0.00309225
0.00310508
0.00311852
0.00313256
0.00314721
0.00316247
0.00317834
0.00319482
0.00321191
0.0032296
0.0032479
0.0032668
0.00328631
0.00330641
0.00332711
0.0033484
0.00337028
0.00339275
0.00341579
0.0034394
0.00346357
0.00348829
0.00351356
0.00353937
0.0035657
0.00359254
0.00361989
0.00364772
0.00367602
0.00370477
0.00373396
0.00376358
0.00379359
0.00382398
0.00385473
0.00388582
0.00391721
0.00394889
0.00398083
0.004013
0.00404537
0.00407791
0.00411059
0.00414337
0.00417623
0.00420913
0.00424203
0.0042749
0.0043077
0.00434038
0.00437292
0.00440527
0.00443739
0.00446924
0.00450077
0.00453196
0.00456275
0.00459311
0.00462298
0.00465234
0.00468114
0.00470934
0.0047369
0.00476377
0.00478993
0.00481533
0.00483994
0.00486372
0.00488663
0.00490865
0.00492974
0.00494987
0.00496901
0.00498714
0.00500423
0.00502024
0.00503519
0.00504901
0.00506174
0.00507329
0.00508373
0.00509295
0.00510109
0.00510791
0.00511375
0.00511813
0.00512173
0.00512363
0.00512517
0.00512453
0.00512432
0.005121
0.00511967
0.00511361
0.00295927
0.00295471
0.00295375
0.00295124
0.00295098
0.00295024
0.00295093
0.00295166
0.00295339
0.00295543
0.00295826
0.00296152
0.00296548
0.00296994
0.00297504
0.00298069
0.00298696
0.00299379
0.00300123
0.00300925
0.00301788
0.0030271
0.00303692
0.00304735
0.00305837
0.00307001
0.00308225
0.0030951
0.00310856
0.00312263
0.00313732
0.00315262
0.00316853
0.00318506
0.00320221
0.00321996
0.00323833
0.00325731
0.0032769
0.0032971
0.0033179
0.00333931
0.00336131
0.0033839
0.00340708
0.00343083
0.00345517
0.00348006
0.00350551
0.00353151
0.00355805
0.00358511
0.00361268
0.00364075
0.0036693
0.00369832
0.0037278
0.0037577
0.00378802
0.00381872
0.0038498
0.00388123
0.00391298
0.00394502
0.00397734
0.0040099
0.00404267
0.00407562
0.00410872
0.00414193
0.00417523
0.00420857
0.00424193
0.00427525
0.00430851
0.00434167
0.00437467
0.0044075
0.00444009
0.00447242
0.00450443
0.00453609
0.00456735
0.00459817
0.0046285
0.00465832
0.00468756
0.0047162
0.00474418
0.00477147
0.00479803
0.00482382
0.00484881
0.00487294
0.0048962
0.00491855
0.00493995
0.00496037
0.00497979
0.00499817
0.0050155
0.00503173
0.00504688
0.00506088
0.00507376
0.00508545
0.00509602
0.00510533
0.00511355
0.00512043
0.00512631
0.00513072
0.00513434
0.00513622
0.00513775
0.00513707
0.00513683
0.00513344
0.00513208
0.00512592
0.00294867
0.00294408
0.00294311
0.00294058
0.00294031
0.00293954
0.00294022
0.00294093
0.00294266
0.00294468
0.0029475
0.00295075
0.0029547
0.00295915
0.00296424
0.00296988
0.00297614
0.00298297
0.00299041
0.00299843
0.00300706
0.00301629
0.00302611
0.00303655
0.00304759
0.00305924
0.0030715
0.00308437
0.00309786
0.00311196
0.00312669
0.00314203
0.00315799
0.00317458
0.00319178
0.0032096
0.00322805
0.00324711
0.00326679
0.00328709
0.003308
0.00332952
0.00335165
0.00337438
0.00339771
0.00342162
0.00344613
0.0034712
0.00349685
0.00352306
0.00354981
0.0035771
0.00360492
0.00363325
0.00366207
0.00369138
0.00372115
0.00375136
0.00378201
0.00381305
0.00384449
0.00387628
0.00390841
0.00394085
0.00397357
0.00400654
0.00403974
0.00407313
0.00410668
0.00414036
0.00417413
0.00420795
0.00424179
0.00427561
0.00430937
0.00434303
0.00437654
0.00440988
0.00444298
0.00447582
0.00450834
0.00454051
0.00457228
0.0046036
0.00463443
0.00466473
0.00469446
0.00472356
0.004752
0.00477974
0.00480674
0.00483295
0.00485834
0.00488286
0.00490649
0.00492919
0.00495092
0.00497166
0.00499137
0.00501003
0.00502761
0.00504408
0.00505944
0.00507363
0.00508668
0.00509851
0.00510921
0.00511862
0.00512693
0.00513387
0.0051398
0.00514423
0.00514786
0.00514974
0.00515125
0.00515052
0.00515026
0.00514679
0.0051454
0.00513914
0.00293734
0.00293271
0.00293173
0.00292917
0.00292889
0.00292811
0.00292877
0.00292947
0.00293118
0.00293318
0.00293599
0.00293923
0.00294317
0.00294761
0.0029527
0.00295833
0.00296459
0.00297141
0.00297885
0.00298687
0.0029955
0.00300472
0.00301456
0.003025
0.00303605
0.00304772
0.00306
0.00307289
0.00308641
0.00310055
0.00311531
0.0031307
0.00314671
0.00316335
0.00318062
0.00319852
0.00321704
0.00323619
0.00325597
0.00327638
0.0032974
0.00331905
0.00334131
0.00336418
0.00338767
0.00341175
0.00343644
0.00346171
0.00348756
0.00351399
0.00354097
0.00356851
0.00359659
0.00362519
0.0036543
0.00368391
0.003714
0.00374455
0.00377554
0.00380695
0.00383876
0.00387094
0.00390348
0.00393634
0.00396949
0.00400291
0.00403657
0.00407043
0.00410447
0.00413864
0.00417291
0.00420724
0.00424161
0.00427596
0.00431025
0.00434445
0.00437851
0.00441239
0.00444605
0.00447944
0.00451251
0.00454522
0.00457753
0.00460939
0.00464076
0.00467158
0.00470182
0.00473143
0.00476037
0.00478858
0.00481604
0.0048427
0.00486852
0.00489347
0.00491749
0.00494057
0.00496266
0.00498373
0.00500376
0.00502271
0.00504056
0.00505728
0.00507286
0.00508725
0.00510048
0.00511247
0.0051233
0.00513282
0.00514122
0.00514823
0.00515421
0.00515866
0.00516231
0.00516417
0.00516567
0.00516489
0.00516459
0.00516105
0.00515962
0.00515326
0.00292527
0.0029206
0.0029196
0.00291702
0.00291672
0.00291592
0.00291657
0.00291725
0.00291895
0.00292094
0.00292373
0.00292696
0.00293089
0.00293532
0.0029404
0.00294602
0.00295227
0.00295909
0.00296652
0.00297454
0.00298317
0.0029924
0.00300224
0.00301269
0.00302376
0.00303544
0.00304774
0.00306066
0.00307421
0.00308838
0.00310318