/*--------------------------------*- C++ -*----------------------------------*\
| =========                 |                                                 |
| \\      /  F ield         | OpenFOAM: The Open Source CFD Toolbox           |
|  \\    /   O peration     | Version:  2406                                  |
|   \\  /    A nd           | Website:  www.openfoam.com                      |
|    \\/     M anipulation  |                                                 |
\*---------------------------------------------------------------------------*/
FoamFile
{
    version     2.0;
    format      ascii;
    arch        "LSB;label=32;scalar=64";
    class       volVectorField;
    location    "36.6";
    object      dU;
}
// * * * * * * * * * * * * * * * * * * * * * * * * * * * * * * * * * * * * * //

dimensions      [0 1 -1 0 0 0 0];

internalField   nonuniform List<vector> 
900
(
(1.37428e-05 -2.86791e-06 0)
(-9.03983e-06 -6.87633e-06 0)
(-4.24282e-05 -5.99415e-06 0)
(-4.78811e-05 -1.50563e-06 0)
(-5.28657e-05 4.94507e-06 0)
(-5.9201e-05 1.24495e-05 0)
(-8.10104e-05 1.90397e-05 0)
(-0.00012387 2.65328e-05 0)
(-0.0001843 5.89632e-05 0)
(-0.000208097 0.000107812 0)
(-0.000162352 0.000107114 0)
(-7.6086e-05 4.90676e-05 0)
(-9.86069e-06 -1.92734e-05 0)
(2.44553e-05 -7.55983e-05 0)
(8.54804e-05 -0.000116517 0)
(0.000213101 -0.000145216 0)
(0.000403298 -0.000167768 0)
(0.000611875 -0.000188035 0)
(0.000791446 -0.000207459 0)
(0.000859076 -0.000224697 0)
(0.000770966 -0.000235047 0)
(0.000466078 -0.000237025 0)
(2.14762e-05 -0.000226132 0)
(-0.00044287 -0.000209188 0)
(-0.000655218 -0.000186228 0)
(-0.00054155 -0.000150397 0)
(-0.000256603 -0.000102929 0)
(-7.53464e-05 -3.8591e-05 0)
(-2.17986e-05 -2.79856e-06 0)
(2.96872e-05 1.13511e-05 0)
(9.64634e-06 6.23903e-06 0)
(-1.36853e-05 -4.61213e-06 0)
(-3.94152e-05 -1.07934e-05 0)
(-3.8885e-05 -9.81134e-06 0)
(-4.08441e-05 1.88758e-07 0)
(-4.72727e-05 1.19587e-05 0)
(-6.96637e-05 2.82276e-05 0)
(-8.79569e-05 4.31123e-05 0)
(-0.000110102 3.22045e-05 0)
(-0.000173712 -1.20425e-05 0)
(-0.000242579 -9.27386e-05 0)
(-0.00022479 -0.000222903 0)
(-0.000150214 -0.000378274 0)
(-8.17493e-05 -0.000515986 0)
(9.94212e-06 -0.000611834 0)
(0.000156979 -0.000672759 0)
(0.00035593 -0.000715318 0)
(0.000567561 -0.000749979 0)
(0.000749806 -0.000780699 0)
(0.000826058 -0.000799212 0)
(0.000752722 -0.000789732 0)
(0.000468638 -0.000741041 0)
(4.28619e-05 -0.000638029 0)
(-0.000409277 -0.000513742 0)
(-0.000600508 -0.00038503 0)
(-0.000458772 -0.00029545 0)
(-0.000143311 -0.000232549 0)
(2.71202e-05 -0.000145423 0)
(3.01311e-05 -9.9762e-05 0)
(4.44312e-05 -8.36019e-05 0)
(3.75223e-06 3.79153e-05 0)
(-2.69965e-05 1.83592e-05 0)
(-5.02462e-05 5.36738e-06 0)
(-3.86433e-05 2.91779e-07 0)
(-3.30246e-05 9.43577e-06 0)
(-3.45039e-05 1.35224e-05 0)
(-5.62834e-05 -6.7262e-06 0)
(-0.000133071 -7.65977e-05 0)
(-0.000262985 -0.000205456 0)
(-0.000363346 -0.000391639 0)
(-0.000402221 -0.000579612 0)
(-0.000384275 -0.000751475 0)
(-0.000318181 -0.000922213 0)
(-0.00021878 -0.00107048 0)
(-7.86133e-05 -0.00117756 0)
(0.000102506 -0.00125343 0)
(0.000317672 -0.00131839 0)
(0.000536034 -0.00138041 0)
(0.000729161 -0.00144296 0)
(0.00083434 -0.00148264 0)
(0.000810728 -0.00147287 0)
(0.000596871 -0.00137197 0)
(0.000226241 -0.00114958 0)
(-0.000211706 -0.00083846 0)
(-0.000451201 -0.000479428 0)
(-0.000392311 -0.000255034 0)
(-0.000104427 -0.000127666 0)
(5.87321e-05 -0.000126803 0)
(4.21552e-05 -0.000141032 0)
(4.68148e-05 -0.000147844 0)
(-8.44089e-06 7.15104e-05 0)
(-4.52574e-05 3.90727e-05 0)
(-5.75363e-05 2.52994e-05 0)
(-3.40571e-05 1.36415e-05 0)
(-2.80885e-05 4.76664e-06 0)
(-6.8483e-05 -4.55174e-05 0)
(-0.00017291 -0.000158011 0)
(-0.000307872 -0.000352801 0)
(-0.000448369 -0.000580858 0)
(-0.000565379 -0.000801848 0)
(-0.000611517 -0.00100019 0)
(-0.000570612 -0.00116477 0)
(-0.000469215 -0.00129606 0)
(-0.000336143 -0.00139597 0)
(-0.000173147 -0.00147359 0)
(1.3792e-05 -0.00154245 0)
(0.000223542 -0.00162216 0)
(0.000434077 -0.00171385 0)
(0.000634614 -0.00182283 0)
(0.000778864 -0.001915 0)
(0.000841435 -0.00196551 0)
(0.00076514 -0.00190011 0)
(0.000544901 -0.0016787 0)
(0.000227143 -0.00127557 0)
(-4.37742e-05 -0.000744671 0)
(-0.00011556 -0.00030116 0)
(-6.53396e-06 -3.70411e-05 0)
(1.87353e-05 -1.08368e-05 0)
(1.15336e-05 -0.000106943 0)
(3.87106e-05 -0.000125953 0)
(-2.79411e-05 0.000139226 0)
(-7.26033e-05 0.000100381 0)
(-7.4917e-05 8.70627e-05 0)
(-5.7994e-05 4.77554e-05 0)
(-9.45854e-05 -2.18737e-05 0)
(-0.000207439 -0.000171133 0)
(-0.000381384 -0.000389927 0)
(-0.000574941 -0.000654392 0)
(-0.000724083 -0.000916502 0)
(-0.000786194 -0.00112926 0)
(-0.000763487 -0.00126948 0)
(-0.000676405 -0.00135427 0)
(-0.000545663 -0.00140781 0)
(-0.000394118 -0.00144284 0)
(-0.000225228 -0.0014747 0)
(-4.87718e-05 -0.00151312 0)
(0.000140975 -0.0015767 0)
(0.000327428 -0.0016617 0)
(0.000517188 -0.00178015 0)
(0.000677407 -0.0018985 0)
(0.000807282 -0.00200968 0)
(0.000860275 -0.00203166 0)
(0.000821377 -0.00193504 0)
(0.000686694 -0.00162851 0)
(0.000486792 -0.00114515 0)
(0.00029317 -0.000596816 0)
(0.000194707 -0.000193811 0)
(8.23428e-06 1.5323e-05 0)
(-6.57556e-05 -0.000134935 0)
(3.00135e-05 -0.000126619 0)
(-4.68871e-05 0.000202274 0)
(-9.66787e-05 0.000163726 0)
(-0.000108765 0.000144056 0)
(-0.000142782 5.85123e-05 0)
(-0.000253135 -9.07574e-05 0)
(-0.000450759 -0.000331042 0)
(-0.000672939 -0.000615771 0)
(-0.000845656 -0.000889294 0)
(-0.00092584 -0.00109012 0)
(-0.000915638 -0.00120945 0)
(-0.000832375 -0.001261 0)
(-0.000705433 -0.00126799 0)
(-0.000556145 -0.00125664 0)
(-0.000403753 -0.00124153 0)
(-0.000246703 -0.00123938 0)
(-9.4022e-05 -0.00125278 0)
(6.67618e-05 -0.0012974 0)
(0.00022012 -0.00136355 0)
(0.000385169 -0.00146836 0)
(0.000534294 -0.00158185 0)
(0.000690651 -0.00171851 0)
(0.000818535 -0.00180794 0)
(0.000922367 -0.00185193 0)
(0.000985052 -0.00173078 0)
(0.000949217 -0.00145592 0)
(0.000798216 -0.00102358 0)
(0.000592876 -0.000465687 0)
(9.95032e-05 -0.000263269 0)
(-0.00011632 -4.53647e-05 0)
(5.03185e-05 -0.000194907 0)
(-6.62074e-05 0.000229677 0)
(-0.000130333 0.000194635 0)
(-0.00018037 0.000151001 0)
(-0.000297111 9.30732e-06 0)
(-0.000496056 -0.000212151 0)
(-0.000749139 -0.00050235 0)
(-0.00095317 -0.000778059 0)
(-0.00105454 -0.000985162 0)
(-0.0010431 -0.00109951 0)
(-0.000953993 -0.0011347 0)
(-0.000819191 -0.00111787 0)
(-0.000670446 -0.00107767 0)
(-0.000519094 -0.00103829 0)
(-0.000378071 -0.00100767 0)
(-0.000238921 -0.000998345 0)
(-0.000110524 -0.00100469 0)
(2.48837e-05 -0.00103976 0)
(0.000149053 -0.00108774 0)
(0.000289048 -0.0011685 0)
(0.000414615 -0.00125216 0)
(0.000565931 -0.00136853 0)
(0.000708544 -0.00146125 0)
(0.000877183 -0.00156785 0)
(0.00105687 -0.00157744 0)
(0.00116234 -0.00153156 0)
(0.00124384 -0.00129049 0)
(0.000917829 -0.000844041 0)
(0.000427566 -0.000607321 0)
(2.5449e-05 7.75915e-05 0)
(-0.000112504 -0.00034717 0)
(-8.21099e-05 0.000163051 0)
(-0.000176712 0.000133004 0)
(-0.00029859 6.34622e-05 0)
(-0.00051638 -0.000114828 0)
(-0.000781442 -0.000364477 0)
(-0.00103349 -0.000636203 0)
(-0.0011657 -0.000845796 0)
(-0.00116901 -0.000962832 0)
(-0.00107284 -0.000993145 0)
(-0.000929828 -0.00096839 0)
(-0.000770094 -0.0009193 0)
(-0.000619705 -0.000867953 0)
(-0.000478779 -0.000830818 0)
(-0.000355078 -0.000807972 0)
(-0.000233847 -0.000808309 0)
(-0.000125138 -0.000820198 0)
(-6.74417e-06 -0.000856629 0)
(9.85986e-05 -0.000896696 0)
(0.000224093 -0.000963228 0)
(0.000332499 -0.00102267 0)
(0.000474345 -0.00111305 0)
(0.000606604 -0.00118244 0)
(0.000789437 -0.00129026 0)
(0.00100032 -0.00134567 0)
(0.00121217 -0.00142868 0)
(0.00145737 -0.0013389 0)
(0.00123932 -0.00119968 0)
(0.000989014 -0.000729917 0)
(0.000155797 -0.000303703 0)
(-0.000357018 -0.00032756 0)
(-9.71679e-05 9.8638e-07 0)
(-0.000234192 -2.42946e-05 0)
(-0.000437845 -0.000111595 0)
(-0.000740721 -0.000288795 0)
(-0.00103639 -0.000511318 0)
(-0.00124572 -0.000712529 0)
(-0.0012863 -0.0008317 0)
(-0.00120034 -0.000866477 0)
(-0.00104195 -0.000841861 0)
(-0.000869179 -0.000789972 0)
(-0.000703404 -0.000736712 0)
(-0.000562443 -0.000693886 0)
(-0.00043545 -0.00067048 0)
(-0.000328318 -0.000660082 0)
(-0.000221191 -0.00067037 0)
(-0.000127543 -0.000686153 0)
(-2.08221e-05 -0.000722823 0)
(7.05702e-05 -0.000755739 0)
(0.000186078 -0.000811917 0)
(0.000280588 -0.000853604 0)
(0.000413241 -0.000924428 0)
(0.000529222 -0.000970912 0)
(0.00070373 -0.00106178 0)
(0.000900983 -0.00111914 0)
(0.00114825 -0.00124009 0)
(0.00145195 -0.00125952 0)
(0.00150137 -0.00128865 0)
(0.00128478 -0.000869493 0)
(0.000417821 -0.000624369 0)
(-0.000114192 1.62026e-05 0)
(-0.000109055 -0.000202417 0)
(-0.000296297 -0.000219913 0)
(-0.000576687 -0.000305642 0)
(-0.000934736 -0.000449834 0)
(-0.00122423 -0.00061186 0)
(-0.00136624 -0.000726983 0)
(-0.00132137 -0.000765261 0)
(-0.00117115 -0.000743292 0)
(-0.000980388 -0.000692131 0)
(-0.000801143 -0.000636917 0)
(-0.000643615 -0.000595035 0)
(-0.000517442 -0.000567484 0)
(-0.000404313 -0.000559088 0)
(-0.000310705 -0.000559029 0)
(-0.000212976 -0.000576761 0)
(-0.000129149 -0.000594353 0)
(-2.81946e-05 -0.000631188 0)
(5.52706e-05 -0.000658495 0)
(0.00016686 -0.000708181 0)
(0.000253116 -0.000737197 0)
(0.000380191 -0.000794187 0)
(0.000481058 -0.000821554 0)
(0.000641604 -0.000891976 0)
(0.000811131 -0.0009322 0)
(0.00105315 -0.00104583 0)
(0.00138794 -0.00110202 0)
(0.00161216 -0.00118614 0)
(0.00163035 -0.000962072 0)
(0.00101817 -0.000476817 0)
(0.000285355 0.000177961 0)
(-0.00011683 -0.000392956 0)
(-0.00034625 -0.000400463 0)
(-0.000683666 -0.000469662 0)
(-0.00106652 -0.000560453 0)
(-0.00133105 -0.000649438 0)
(-0.00140724 -0.000684293 0)
(-0.00129757 -0.000664091 0)
(-0.00110967 -0.000611879 0)
(-0.000907161 -0.000556335 0)
(-0.000734466 -0.000510773 0)
(-0.000590073 -0.000484975 0)
(-0.000478855 -0.000470891 0)
(-0.000376915 -0.000473261 0)
(-0.000293667 -0.000478077 0)
(-0.000201819 -0.000498769 0)
(-0.000125105 -0.000514483 0)
(-2.73396e-05 -0.000549725 0)
(5.01797e-05 -0.000571334 0)
(0.000159979 -0.000616965 0)
(0.000240751 -0.000638174 0)
(0.000365564 -0.000688695 0)
(0.000456412 -0.000705792 0)
(0.000605297 -0.000763412 0)
(0.000745337 -0.000789182 0)
(0.000965133 -0.000887288 0)
(0.00129128 -0.00095659 0)
(0.00162359 -0.00110618 0)
(0.00197893 -0.0010626 0)
(0.00153007 -0.000746123 0)
(0.000519821 -0.000365361 0)
(-0.000119029 -0.000516005 0)
(-0.000382846 -0.000513303 0)
(-0.000753589 -0.000560324 0)
(-0.00113386 -0.000600327 0)
(-0.00136312 -0.000627841 0)
(-0.0013837 -0.000607153 0)
(-0.00123551 -0.000556237 0)
(-0.00103457 -0.000496682 0)
(-0.000838386 -0.000450407 0)
(-0.000681585 -0.000419357 0)
(-0.000553646 -0.000408207 0)
(-0.000456602 -0.00040287 0)
(-0.000363326 -0.000411107 0)
(-0.000287019 -0.000416048 0)
(-0.000197343 -0.000436436 0)
(-0.000124237 -0.000447437 0)
(-2.64079e-05 -0.000479389 0)
(4.78602e-05 -0.000493926 0)
(0.000157839 -0.000534907 0)
(0.000234728 -0.000548524 0)
(0.000358292 -0.000593903 0)
(0.00044159 -0.000604247 0)
(0.000581112 -0.000655061 0)
(0.000695083 -0.000672281 0)
(0.000879465 -0.000757232 0)
(0.00115187 -0.000828029 0)
(0.00148852 -0.00101846 0)
(0.00198472 -0.00113589 0)
(0.00169663 -0.00120286 0)
(0.000644329 -0.00106518 0)
(-0.000116713 -0.000561435 0)
(-0.000400645 -0.00054888 0)
(-0.000787601 -0.000574174 0)
(-0.00115236 -0.000571196 0)
(-0.00134984 -0.00055462 0)
(-0.00133241 -0.000500864 0)
(-0.00116462 -0.000440744 0)
(-0.000964645 -0.000387079 0)
(-0.000780674 -0.000356238 0)
(-0.000641535 -0.000339119 0)
(-0.000527907 -0.000339331 0)
(-0.000442496 -0.000338452 0)
(-0.000354566 -0.000349359 0)
(-0.00028259 -0.000351898 0)
(-0.000192429 -0.000370798 0)
(-0.000120869 -0.000376326 0)
(-2.10681e-05 -0.000405071 0)
(5.14341e-05 -0.000412955 0)
(0.000162574 -0.000449991 0)
(0.000236487 -0.000457207 0)
(0.000359113 -0.000498278 0)
(0.000436038 -0.000503419 0)
(0.000567622 -0.000549557 0)
(0.000659642 -0.000561455 0)
(0.0008104 -0.000636937 0)
(0.00101584 -0.000699581 0)
(0.00129553 -0.00089299 0)
(0.00179008 -0.00107623 0)
(0.00159531 -0.00135287 0)
(0.000647883 -0.00138265 0)
(-0.000109194 -0.000531664 0)
(-0.000405664 -0.000512819 0)
(-0.000792424 -0.000521689 0)
(-0.00113142 -0.000492386 0)
(-0.00130174 -0.000451418 0)
(-0.00126097 -0.000386785 0)
(-0.00109157 -0.000332844 0)
(-0.00090384 -0.000293809 0)
(-0.000739036 -0.000280237 0)
(-0.000619453 -0.000274859 0)
(-0.000520253 -0.000282933 0)
(-0.000445191 -0.00028294 0)
(-0.000360897 -0.000294308 0)
(-0.000291118 -0.000292508 0)
(-0.000198006 -0.000309054 0)
(-0.000125222 -0.000308014 0)
(-2.06681e-05 -0.000332921 0)
(5.27975e-05 -0.000333376 0)
(0.000166868 -0.000365508 0)
(0.000239252 -0.000365637 0)
(0.000361224 -0.000401165 0)
(0.000432586 -0.000400182 0)
(0.000556888 -0.000440855 0)
(0.000630182 -0.000446669 0)
(0.000749486 -0.000512921 0)
(0.000886455 -0.000562043 0)
(0.00109133 -0.000737359 0)
(0.00151664 -0.000925619 0)
(0.00138695 -0.00128051 0)
(0.000608859 -0.00138189 0)
(-0.000100623 -0.000449102 0)
(-0.000400287 -0.000424287 0)
(-0.000782833 -0.000421419 0)
(-0.00109798 -0.000375472 0)
(-0.00125063 -0.000324984 0)
(-0.00120044 -0.000260496 0)
(-0.00103592 -0.000220639 0)
(-0.000862686 -0.0001971 0)
(-0.000713929 -0.000199462 0)
(-0.000611199 -0.000202144 0)
(-0.000522444 -0.000215464 0)
(-0.000455358 -0.000214324 0)
(-0.000371997 -0.000225542 0)
(-0.000302578 -0.000219145 0)
(-0.000204427 -0.000233747 0)
(-0.000128389 -0.000226651 0)
(-1.70849e-05 -0.00024836 0)
(5.95909e-05 -0.000242365 0)
(0.000178005 -0.000269992 0)
(0.000250153 -0.000263798 0)
(0.000371547 -0.000293439 0)
(0.000437434 -0.000285892 0)
(0.000555072 -0.000319959 0)
(0.000612648 -0.000318318 0)
(0.000707814 -0.000376003 0)
(0.000786257 -0.000407304 0)
(0.00091293 -0.000554543 0)
(0.00123731 -0.000707474 0)
(0.00113762 -0.00105535 0)
(0.000543692 -0.00117855 0)
(-8.72592e-05 -0.000341056 0)
(-0.000387235 -0.00031262 0)
(-0.000758504 -0.000299053 0)
(-0.00105001 -0.000246095 0)
(-0.00119153 -0.000192723 0)
(-0.00114053 -0.000136474 0)
(-0.000990023 -0.000112484 0)
(-0.000834442 -0.000104832 0)
(-0.000704234 -0.00012108 0)
(-0.000617763 -0.000129455 0)
(-0.000539523 -0.000146561 0)
(-0.000479976 -0.000142702 0)
(-0.000397327 -0.000153469 0)
(-0.000327487 -0.000141686 0)
(-0.000222969 -0.000154491 0)
(-0.0001414 -0.000141207 0)
(-2.09981e-05 -0.000159825 0)
(6.1992e-05 -0.000147586 0)
(0.00018709 -0.000170471 0)
(0.000261556 -0.000157807 0)
(0.000383602 -0.00018059 0)
(0.00044496 -0.000164949 0)
(0.000556673 -0.000189862 0)
(0.00059951 -0.000177104 0)
(0.000676517 -0.000223881 0)
(0.000707364 -0.000234574 0)
(0.000774583 -0.000354444 0)
(0.00100334 -0.000456478 0)
(0.000913072 -0.000763471 0)
(0.000484373 -0.000869593 0)
(-7.50041e-05 -0.00022685 0)
(-0.000366728 -0.000191859 0)
(-0.00073014 -0.000167128 0)
(-0.001006 -0.000106098 0)
(-0.00114514 -5.39656e-05 0)
(-0.00110344 -3.48451e-06 0)
(-0.000966368 5.46882e-06 0)
(-0.000826691 1.99761e-06 0)
(-0.000707988 -2.56248e-05 0)
(-0.000634103 -3.69072e-05 0)
(-0.000562092 -5.69499e-05 0)
(-0.000508509 -4.97446e-05 0)
(-0.000424772 -6.00977e-05 0)
(-0.000353355 -4.31168e-05 0)
(-0.000241194 -5.42833e-05 0)
(-0.000152217 -3.56076e-05 0)
(-2.12009e-05 -5.1404e-05 0)
(7.04911e-05 -3.41372e-05 0)
(0.000203782 -5.27489e-05 0)
(0.000282662 -3.47417e-05 0)
(0.000406619 -5.10762e-05 0)
(0.000464573 -2.76034e-05 0)
(0.000572204 -4.30585e-05 0)
(0.000601989 -1.7506e-05 0)
(0.000666997 -5.27984e-05 0)
(0.000658314 -4.10293e-05 0)
(0.000677674 -0.000137885 0)
(0.000815025 -0.000187026 0)
(0.000721129 -0.000449109 0)
(0.000437412 -0.000522335 0)
(-5.4936e-05 -0.000133478 0)
(-0.000335192 -9.21669e-05 0)
(-0.000685604 -4.91952e-05 0)
(-0.000950864 1.97631e-05 0)
(-0.00109351 7.82784e-05 0)
(-0.00106557 0.000124787 0)
(-0.000949164 0.000125244 0)
(-0.000826103 0.000113291 0)
(-0.000721455 7.66991e-05 0)
(-0.000659081 6.3759e-05 0)
(-0.000593945 4.05409e-05 0)
(-0.000546133 5.16688e-05 0)
(-0.000461906 4.10749e-05 0)
(-0.000388678 6.33904e-05 0)
(-0.000268836 5.31505e-05 0)
(-0.000171205 7.66666e-05 0)
(-2.85295e-05 6.27206e-05 0)
(7.41594e-05 8.40401e-05 0)
(0.000217414 6.87741e-05 0)
(0.00030312 9.16253e-05 0)
(0.000431068 8.14904e-05 0)
(0.000487107 0.000113551 0)
(0.000592922 0.000108496 0)
(0.000610164 0.000149389 0)
(0.000669068 0.000127206 0)
(0.000627319 0.000163516 0)
(0.000617882 8.40653e-05 0)
(0.000676984 8.66375e-05 0)
(0.000572331 -0.000138589 0)
(0.000411438 -0.000168024 0)
(-3.5598e-05 -5.48071e-05 0)
(-0.000288597 -2.56926e-06 0)
(-0.000629514 5.84686e-05 0)
(-0.000891987 0.000145214 0)
(-0.00104584 0.000210185 0)
(-0.00104402 0.000263814 0)
(-0.000947025 0.000259094 0)
(-0.000841299 0.000245334 0)
(-0.000742174 0.00020087 0)
(-0.000687747 0.000186825 0)
(-0.000624663 0.000159205 0)
(-0.000581329 0.000172805 0)
(-0.000495714 0.000161311 0)
(-0.000420256 0.000187652 0)
(-0.000292827 0.000178426 0)
(-0.000185592 0.00020557 0)
(-3.11653e-05 0.000193807 0)
(8.40365e-05 0.000218148 0)
(0.000238162 0.000206434 0)
(0.000332632 0.000233488 0)
(0.000466784 0.000229565 0)
(0.000523143 0.000270196 0)
(0.000630694 0.000275569 0)
(0.00063709 0.000332494 0)
(0.000694822 0.00032379 0)
(0.000621173 0.000384936 0)
(0.000592959 0.000317558 0)
(0.000576919 0.000366172 0)
(0.0004598 0.000160762 0)
(0.00040872 0.00017931 0)
(-3.25314e-06 -6.49669e-06 0)
(-0.000226278 5.23997e-05 0)
(-0.00054741 0.000133796 0)
(-0.0008118 0.000238595 0)
(-0.000981992 0.000327381 0)
(-0.00100806 0.000393744 0)
(-0.000942236 0.000396612 0)
(-0.000855683 0.000384777 0)
(-0.000768497 0.000334469 0)
(-0.000720893 0.000318724 0)
(-0.000660789 0.000283952 0)
(-0.000620402 0.000298414 0)
(-0.000533676 0.000283214 0)
(-0.000455287 0.000312322 0)
(-0.000321023 0.000301589 0)
(-0.000203909 0.000331061 0)
(-3.83146e-05 0.000318761 0)
(8.97579e-05 0.000344969 0)
(0.000255443 0.000334261 0)
(0.000359803 0.00036512 0)
(0.000502615 0.000365763 0)
(0.000561108 0.000415566 0)
(0.000674025 0.000430896 0)
(0.000670647 0.000505069 0)
(0.000732351 0.000510296 0)
(0.00062724 0.000597979 0)
(0.000593568 0.00053948 0)
(0.000504022 0.000634199 0)
(0.000377505 0.00043686 0)
(0.000431451 0.000514019 0)
(2.46508e-05 5.57504e-05 0)
(-0.000149681 0.000120146 0)
(-0.000450092 0.000201467 0)
(-0.000709439 0.000335153 0)
(-0.000898665 0.000441098 0)
(-0.000970519 0.000536488 0)
(-0.000937076 0.000547891 0)
(-0.000880192 0.000545522 0)
(-0.000798328 0.00048847 0)
(-0.000756006 0.000468812 0)
(-0.000693114 0.000422766 0)
(-0.000653605 0.000432556 0)
(-0.00056468 0.000410508 0)
(-0.000483244 0.000437923 0)
(-0.000343515 0.000424944 0)
(-0.00021715 0.000454021 0)
(-4.17331e-05 0.000442278 0)
(9.9132e-05 0.00046927 0)
(0.000276629 0.000461873 0)
(0.000392474 0.000497 0)
(0.000546667 0.000505117 0)
(0.000610896 0.000565503 0)
(0.000734054 0.000593804 0)
(0.00072408 0.000686707 0)
(0.00079502 0.000708608 0)
(0.000655973 0.000823052 0)
(0.00062635 0.000772204 0)
(0.000458951 0.000909465 0)
(0.000331447 0.000703575 0)
(0.000488508 0.000850069 0)
(6.25112e-05 9.59735e-05 0)
(-7.95206e-05 0.00013685 0)
(-0.000335698 0.000224685 0)
(-0.000580652 0.000373882 0)
(-0.000788585 0.000528663 0)
(-0.000900266 0.000657624 0)
(-0.000920171 0.000699666 0)
(-0.000897107 0.000712144 0)
(-0.000836003 0.000651812 0)
(-0.000799519 0.000626316 0)
(-0.000736299 0.000562575 0)
(-0.000693676 0.000562358 0)
(-0.000601273 0.000525777 0)
(-0.000513737 0.00054753 0)
(-0.000368367 0.000525983 0)
(-0.000232246 0.000553108 0)
(-4.76799e-05 0.000536454 0)
(0.000105361 0.000564597 0)
(0.000295243 0.000555247 0)
(0.000423192 0.000595897 0)
(0.000592004 0.000606401 0)
(0.000664669 0.000678178 0)
(0.000803021 0.000714888 0)
(0.000788579 0.000825821 0)
(0.000873187 0.000861029 0)
(0.000696297 0.00100157 0)
(0.00068016 0.000958348 0)
(0.000421335 0.0011431 0)
(0.000310596 0.000933484 0)
(0.000582796 0.00118708 0)
(6.44765e-05 0.000148376 0)
(-1.85975e-05 0.000162059 0)
(-0.000211838 0.000247183 0)
(-0.000409847 0.000424915 0)
(-0.000621127 0.000609714 0)
(-0.000800351 0.000793039 0)
(-0.000874572 0.00085895 0)
(-0.000915481 0.000894315 0)
(-0.000876251 0.00082853 0)
(-0.000852777 0.000794813 0)
(-0.00078536 0.000709453 0)
(-0.000737451 0.000691345 0)
(-0.000638716 0.000635869 0)
(-0.000544234 0.000643799 0)
(-0.000393059 0.000612466 0)
(-0.000248563 0.000631736 0)
(-5.56004e-05 0.000612894 0)
(0.000108463 0.000638518 0)
(0.000311153 0.000633192 0)
(0.000452854 0.000677106 0)
(0.000638936 0.000697997 0)
(0.000724996 0.000780004 0)
(0.000882852 0.000833744 0)
(0.00086929 0.000963633 0)
(0.000973154 0.00102156 0)
(0.000759078 0.00119208 0)
(0.000771553 0.00116811 0)
(0.000421656 0.00140487 0)
(0.000368115 0.00119254 0)
(0.000749263 0.00159487 0)
(7.2118e-05 0.000155295 0)
(1.97708e-05 9.15574e-05 0)
(-6.78608e-05 0.00021263 0)
(-0.000217157 0.000379735 0)
(-0.000423402 0.000652204 0)
(-0.000651368 0.000879762 0)
(-0.000812895 0.00100472 0)
(-0.000918379 0.00106805 0)
(-0.000928939 0.00100697 0)
(-0.000922189 0.000966116 0)
(-0.000858573 0.000854509 0)
(-0.000800963 0.000813549 0)
(-0.000693861 0.000729213 0)
(-0.000586198 0.000718418 0)
(-0.000426921 0.000667028 0)
(-0.000270379 0.000677908 0)
(-6.81541e-05 0.000646587 0)
(0.000109078 0.000673457 0)
(0.000326262 0.000659434 0)
(0.000484677 0.000711944 0)
(0.000692759 0.000725265 0)
(0.00079662 0.000820653 0)
(0.000981835 0.000867491 0)
(0.00097315 0.00101407 0)
(0.00110389 0.00107092 0)
(0.000849953 0.00126511 0)
(0.000900334 0.00125995 0)
(0.000434503 0.00155222 0)
(0.000494529 0.00140779 0)
(0.000996627 0.00209686 0)
(-3.89367e-06 0.000136066 0)
(3.43104e-05 0.000111291 0)
(8.23615e-05 0.000202109 0)
(3.72041e-05 0.000427312 0)
(-0.00011829 0.000706807 0)
(-0.000446305 0.000991929 0)
(-0.000680861 0.00113639 0)
(-0.000905513 0.00122797 0)
(-0.000972432 0.00116744 0)
(-0.00100573 0.00112135 0)
(-0.000948826 0.000990221 0)
(-0.000884742 0.000925761 0)
(-0.000765466 0.000817865 0)
(-0.00064378 0.000782792 0)
(-0.000471666 0.000715384 0)
(-0.000304339 0.000708835 0)
(-8.93162e-05 0.000671194 0)
(9.81056e-05 0.000686936 0)
(0.000332278 0.000674666 0)
(0.000504781 0.000719111 0)
(0.000736092 0.000740356 0)
(0.000857145 0.000829329 0)
(0.00106877 0.00089125 0)
(0.00106969 0.00103955 0)
(0.00122793 0.00112723 0)
(0.00095653 0.00135192 0)
(0.00106841 0.00142442 0)
(0.000555008 0.00181116 0)
(0.000904328 0.00184246 0)
(0.001454 0.00293333 0)
(4.37163e-05 0.000220484 0)
(7.74504e-05 1.90034e-05 0)
(0.000250397 0.000169855 0)
(0.000298697 0.000350545 0)
(0.000152176 0.000720011 0)
(-0.000214398 0.00100823 0)
(-0.00056911 0.00120631 0)
(-0.000878386 0.00131161 0)
(-0.00102811 0.00126719 0)
(-0.00109631 0.0012203 0)
(-0.00105799 0.00107783 0)
(-0.000985045 0.000994526 0)
(-0.000855937 0.000864119 0)
(-0.000713563 0.000807618 0)
(-0.000528559 0.000718062 0)
(-0.000342745 0.000698971 0)
(-0.000116334 0.000640921 0)
(8.90478e-05 0.000655594 0)
(0.0003381 0.000618424 0)
(0.000533172 0.00067107 0)
(0.000788823 0.00065304 0)
(0.00093737 0.00075624 0)
(0.00118648 0.000757898 0)
(0.00120977 0.000927443 0)
(0.00142284 0.000954272 0)
(0.00115687 0.00122649 0)
(0.00137032 0.00134141 0)
(0.000837291 0.00184658 0)
(0.00162385 0.0022846 0)
(0.0021228 0.00440957 0)
(-0.000208648 5.84341e-06 0)
(-2.6013e-05 0.000107161 0)
(0.000410823 0.00016951 0)
(0.000596302 0.000549921 0)
(0.000555143 0.00081413 0)
(5.55231e-05 0.00107959 0)
(-0.000364085 0.00121017 0)
(-0.000832021 0.00129742 0)
(-0.00105282 0.0012513 0)
(-0.0011868 0.00120441 0)
(-0.0011708 0.00107397 0)
(-0.00109958 0.000985477 0)
(-0.000958655 0.000857501 0)
(-0.000800421 0.000787746 0)
(-0.000594118 0.000692709 0)
(-0.000396807 0.000657044 0)
(-0.000148467 0.000590932 0)
(6.09644e-05 0.000585811 0)
(0.000334457 0.000540494 0)
(0.000529005 0.000563949 0)
(0.00081396 0.000540303 0)
(0.000959438 0.000598951 0)
(0.00124223 0.000612204 0)
(0.00127311 0.000733355 0)
(0.00153754 0.000840314 0)
(0.00135371 0.00112951 0)
(0.00169994 0.00154276 0)
(0.00146774 0.00236036 0)
(0.00346161 0.00415246 0)
(0.00362539 0.00774103 0)
(0.000143177 0.000719781 0)
(0.000233703 1.30309e-05 0)
(0.000686114 0.000146386 0)
(0.000947765 0.000324353 0)
(0.000696692 0.000695678 0)
(0.000202541 0.000902545 0)
(-0.000329537 0.00103957 0)
(-0.000816257 0.00108388 0)
(-0.00110228 0.00105053 0)
(-0.00125651 0.00100203 0)
(-0.001263 0.000893625 0)
(-0.00119012 0.000812938 0)
(-0.00104581 0.000700039 0)
(-0.000872658 0.000632093 0)
(-0.000656182 0.000540602 0)
(-0.000442324 0.000502132 0)
(-0.000186676 0.000427973 0)
(3.99717e-05 0.00042035 0)
(0.000317643 0.000351185 0)
(0.000536259 0.000377646 0)
(0.000829024 0.000303095 0)
(0.00101722 0.00037909 0)
(0.00133143 0.000299022 0)
(0.00144923 0.000471834 0)
(0.00182998 0.000446942 0)
(0.00186836 0.000893042 0)
(0.00260926 0.00132635 0)
(0.00341178 0.00295413 0)
(0.00710085 0.0061053 0)
(0.00584334 0.0125884 0)
(-0.000933846 -0.00220009 0)
(-0.000604366 0.000265119 0)
(0.000723124 0.000691255 0)
(0.0011498 0.000677802 0)
(0.00114219 0.000785541 0)
(0.000413497 0.000770208 0)
(-0.00016406 0.000720195 0)
(-0.000799358 0.000685469 0)
(-0.00111269 0.000643139 0)
(-0.00132154 0.000606505 0)
(-0.00133907 0.000551471 0)
(-0.00127302 0.000503949 0)
(-0.00112101 0.000443288 0)
(-0.000942204 0.000399665 0)
(-0.000707904 0.000341881 0)
(-0.000494076 0.000314291 0)
(-0.000216342 0.000258749 0)
(-2.86743e-06 0.000250409 0)
(0.00030326 0.00019286 0)
(0.000491866 0.000204554 0)
(0.000825597 0.000146934 0)
(0.000965683 0.000183489 0)
(0.00134367 0.000161808 0)
(0.0014287 0.000271488 0)
(0.0019609 0.000519296 0)
(0.00223209 0.00109559 0)
(0.0037306 0.00289711 0)
(0.00601105 0.00645423 0)
(0.0128092 0.0148468 0)
(0.0100033 0.0263237 0)
(0.00260851 -0.00308841 0)
(0.00315714 0.000485502 0)
(0.00110444 0.000688748 0)
(0.0010279 0.000863054 0)
(0.000786548 0.000581061 0)
(0.000138843 0.000513827 0)
(-0.000413948 0.000309358 0)
(-0.000888423 0.00026989 0)
(-0.00117315 0.000224854 0)
(-0.00133688 0.000212267 0)
(-0.0013508 0.000209476 0)
(-0.00128156 0.000196949 0)
(-0.00113053 0.00019503 0)
(-0.00095455 0.000178399 0)
(-0.000721118 0.00017335 0)
(-0.000507609 0.000154524 0)
(-0.000233989 0.00015117 0)
(-1.3834e-05 0.000128836 0)
(0.000281786 0.000135789 0)
(0.000496392 0.000103748 0)
(0.000813529 0.000139978 0)
(0.00103414 9.00497e-05 0)
(0.00141922 0.000209316 0)
(0.00179988 0.000163409 0)
(0.00265313 0.000581634 0)
(0.00426647 0.000839748 0)
(0.00797391 0.00257511 0)
(0.0149736 0.00502156 0)
(0.0267256 0.0116124 0)
(0.0176841 0.0186062 0)
)
;

boundaryField
{
    movingWall
    {
        type            fixedValue;
        value           uniform (1 0 0);
    }
    fixedWalls
    {
        type            noSlip;
    }
    frontAndBack
    {
        type            empty;
    }
}


// ************************************************************************* //
