/*--------------------------------*- C++ -*----------------------------------*\
| =========                 |                                                 |
| \\      /  F ield         | OpenFOAM: The Open Source CFD Toolbox           |
|  \\    /   O peration     | Version:  2406                                  |
|   \\  /    A nd           | Website:  www.openfoam.com                      |
|    \\/     M anipulation  |                                                 |
\*---------------------------------------------------------------------------*/
FoamFile
{
    version     2.0;
    format      ascii;
    arch        "LSB;label=32;scalar=64";
    class       volScalarField;
    location    "36.6";
    object      p;
}
// * * * * * * * * * * * * * * * * * * * * * * * * * * * * * * * * * * * * * //

dimensions      [0 2 -2 0 0 0 0];

internalField   nonuniform List<scalar> 
900
(
4.73776e-06
6.89815e-05
-9.00268e-05
-0.000219899
-0.000408039
-0.000569042
-0.000800398
-0.00110911
-0.00162918
-0.00234344
-0.00301918
-0.00341534
-0.00349019
-0.00341041
-0.00322938
-0.00273289
-0.00170589
4.2264e-05
0.00243373
0.00534736
0.00815377
0.0104459
0.0111873
0.0104911
0.00812114
0.00601883
0.00443861
0.00427259
0.00392166
0.0041218
-3.88966e-05
2.41471e-05
-0.000130181
-0.000229582
-0.00037369
-0.000483882
-0.000670927
-0.000929348
-0.00123033
-0.00161419
-0.00229987
-0.00310044
-0.00364179
-0.00393265
-0.00401374
-0.00369948
-0.00281551
-0.00119697
0.00106873
0.00386908
0.00660599
0.00888144
0.009689
0.00909602
0.00686737
0.00499877
0.00373852
0.00400928
0.0039023
0.00420004
1.23607e-05
3.75917e-05
-0.000165189
-0.000287233
-0.000405591
-0.000486012
-0.000608738
-0.000819721
-0.00142217
-0.00245345
-0.00368541
-0.00495035
-0.00604932
-0.00686937
-0.00730797
-0.00719978
-0.00644076
-0.00491079
-0.00271437
8.07506e-05
0.00295004
0.00555783
0.00696779
0.00707083
0.00552277
0.00400076
0.00284481
0.00327688
0.00324036
0.0035573
0.0001937
0.000138417
-0.000103776
-0.000234053
-0.000312673
-0.000395228
-0.000726268
-0.00147273
-0.00265929
-0.0042991
-0.006237
-0.00817084
-0.00982984
-0.011084
-0.011854
-0.012022
-0.0115499
-0.0103264
-0.00846258
-0.00591748
-0.00311303
-0.000175102
0.00209169
0.00352913
0.00363628
0.00322109
0.00281633
0.00312917
0.00294226
0.003207
0.00046785
0.00028238
-1.3113e-05
-0.000209556
-0.000385449
-0.000811834
-0.00171065
-0.00325228
-0.00539604
-0.00790107
-0.0104406
-0.0127806
-0.0147288
-0.0161867
-0.0171147
-0.017438
-0.0171851
-0.0162436
-0.014755
-0.0125616
-0.0100241
-0.00698832
-0.00412415
-0.00137816
0.000549085
0.00191425
0.00249422
0.00315266
0.00251045
0.00271601
0.00109908
0.00078615
0.000453983
6.27613e-05
-0.000487235
-0.00159099
-0.00341905
-0.00595859
-0.00889917
-0.0119456
-0.0147976
-0.0172707
-0.0192585
-0.020717
-0.0216699
-0.0220637
-0.0219857
-0.0213008
-0.020203
-0.0184296
-0.0163582
-0.0135701
-0.0106763
-0.00723154
-0.0039588
-0.000791021
0.00140801
0.00315441
0.00201753
0.00236496
0.00179455
0.00135163
0.00092228
0.000148703
-0.00104477
-0.00311376
-0.0059515
-0.00933773
-0.012817
-0.0160995
-0.0189589
-0.0213187
-0.0231636
-0.0244911
-0.0253732
-0.0257514
-0.02576
-0.0252237
-0.0244018
-0.0229401
-0.0213002
-0.0188592
-0.0163032
-0.0127806
-0.00906468
-0.00488609
-0.000677532
0.00129996
0.00214689
0.00141939
0.00261238
0.00206332
0.00143154
7.59462e-05
-0.00198944
-0.00507838
-0.00878236
-0.0127133
-0.0164067
-0.0196692
-0.0223856
-0.0245643
-0.0262618
-0.027485
-0.0283405
-0.0287361
-0.0288476
-0.0284367
-0.0278346
-0.0265841
-0.0252676
-0.0230916
-0.0209235
-0.0175695
-0.0140359
-0.00932596
-0.00418938
-0.000973787
0.00243954
4.61626e-05
0.00286851
0.00222009
0.00130814
-0.000688663
-0.00359925
-0.0075345
-0.0118029
-0.0159745
-0.019643
-0.0227398
-0.0252469
-0.0272375
-0.0288068
-0.0299501
-0.0307975
-0.0312106
-0.0314114
-0.0310876
-0.0306559
-0.0295441
-0.0284747
-0.0264815
-0.0246551
-0.0215262
-0.0184206
-0.0136945
-0.00860247
-0.0035916
3.77461e-05
-0.000784483
0.00260806
0.0018817
0.000637335
-0.00194766
-0.0055596
-0.0100466
-0.0145744
-0.0187365
-0.0222476
-0.025137
-0.0274681
-0.0293326
-0.0308476
-0.0319733
-0.0328643
-0.0333223
-0.0336263
-0.0333752
-0.0330861
-0.0320567
-0.0311678
-0.0292746
-0.027712
-0.024758
-0.0220887
-0.0175612
-0.0126997
-0.00671837
-0.00176544
0.000106852
0.00150804
0.000730755
-0.000793475
-0.00381026
-0.0078708
-0.0126302
-0.0171777
-0.0211934
-0.0244918
-0.0271821
-0.0293736
-0.0311533
-0.0326485
-0.0337751
-0.0347188
-0.0352139
-0.0356109
-0.0354073
-0.0352385
-0.0342537
-0.0335069
-0.0316556
-0.0302846
-0.0274307
-0.0251333
-0.0208375
-0.0163974
-0.00992296
-0.0031392
0.000346712
-2.46079e-05
-0.000816476
-0.00257095
-0.00582788
-0.0101073
-0.0148812
-0.0192891
-0.0230788
-0.0261728
-0.0287054
-0.0308243
-0.0325756
-0.0341051
-0.0352661
-0.0362909
-0.0368312
-0.0373269
-0.0371586
-0.0371002
-0.0361375
-0.0355163
-0.0336829
-0.032475
-0.0296854
-0.0277086
-0.023694
-0.0199215
-0.0136951
-0.00663731
-0.00232152
-0.00194661
-0.00272361
-0.00461437
-0.00796921
-0.0122889
-0.0169596
-0.0211681
-0.0247407
-0.0276617
-0.0300794
-0.03216
-0.033902
-0.0354757
-0.036664
-0.0377615
-0.0383233
-0.0388984
-0.0387322
-0.0387583
-0.0377818
-0.0372582
-0.0354099
-0.0343348
-0.031573
-0.0298631
-0.0260824
-0.0230085
-0.0173869
-0.0110352
-0.00670394
-0.00378302
-0.00451087
-0.00648879
-0.00979866
-0.0140417
-0.018497
-0.0224861
-0.0258469
-0.0286444
-0.0309891
-0.0330826
-0.0348483
-0.0365026
-0.0377375
-0.0389304
-0.0395193
-0.0401822
-0.0400101
-0.0401158
-0.0391108
-0.0386742
-0.036799
-0.0358454
-0.0331002
-0.03163
-0.0280624
-0.025672
-0.020751
-0.0155372
-0.0114715
-0.00550524
-0.00617683
-0.00817943
-0.01141
-0.0155261
-0.0197939
-0.0236039
-0.0268191
-0.0295395
-0.0318448
-0.033968
-0.035757
-0.0374893
-0.0387516
-0.0400267
-0.0406128
-0.0413407
-0.041125
-0.0412782
-0.0402035
-0.0398178
-0.0378782
-0.0370129
-0.0342466
-0.0329667
-0.02953
-0.0277087
-0.0234269
-0.0194485
-0.0158226
-0.00678829
-0.00737095
-0.00937855
-0.0124486
-0.0164177
-0.020458
-0.0241225
-0.0272068
-0.0298963
-0.0321844
-0.0343718
-0.0362012
-0.0380404
-0.0393453
-0.0407268
-0.0413192
-0.0421258
-0.0418662
-0.0420661
-0.0409123
-0.0405646
-0.0385464
-0.0377529
-0.0349486
-0.0338388
-0.030481
-0.0291392
-0.0253208
-0.0224517
-0.0192251
-0.00778522
-0.00828556
-0.0102394
-0.0131766
-0.0169912
-0.0208874
-0.0244629
-0.0274906
-0.0301866
-0.0324765
-0.0347339
-0.0365895
-0.0385281
-0.0398491
-0.0413233
-0.0418903
-0.0427534
-0.0424137
-0.0426276
-0.0413539
-0.0410023
-0.0388593
-0.0380899
-0.03519
-0.0341918
-0.0308165
-0.029845
-0.0263193
-0.0244231
-0.0215135
-0.00830213
-0.00866699
-0.0105439
-0.0132582
-0.0169257
-0.0206237
-0.024144
-0.0271055
-0.0298427
-0.0321384
-0.0344903
-0.0363786
-0.0384382
-0.0397852
-0.0413722
-0.0419252
-0.0428595
-0.0424484
-0.042681
-0.0412886
-0.0409258
-0.0386477
-0.0378855
-0.0348645
-0.0339573
-0.0305014
-0.0298384
-0.0264178
-0.0253454
-0.0226126
-0.0086724
-0.00890729
-0.0105992
-0.0131178
-0.0165798
-0.0201552
-0.0236419
-0.026603
-0.029407
-0.0317167
-0.0341639
-0.0360588
-0.0382297
-0.0395697
-0.0412568
-0.0417648
-0.0427534
-0.0422415
-0.0424685
-0.0409237
-0.0405137
-0.0380525
-0.0372461
-0.034032
-0.033152
-0.0295114
-0.0290871
-0.0256041
-0.0252666
-0.0225553
-0.00866411
-0.00868426
-0.0101709
-0.0123371
-0.0156013
-0.0189289
-0.0223995
-0.0253137
-0.0282166
-0.0305405
-0.0331101
-0.0350199
-0.0373188
-0.0386612
-0.0404597
-0.0409361
-0.0419882
-0.0413918
-0.0416199
-0.039934
-0.0394753
-0.0368256
-0.0359602
-0.032523
-0.0316475
-0.0277586
-0.0275486
-0.0238533
-0.0242163
-0.0213569
-0.00871366
-0.00855199
-0.00970795
-0.0115468
-0.0144388
-0.0175596
-0.0209576
-0.0238744
-0.0268941
-0.0292435
-0.0319487
-0.0338492
-0.0362762
-0.0375884
-0.0394964
-0.0399148
-0.0410303
-0.0403286
-0.040554
-0.0387008
-0.0381747
-0.0352896
-0.0343202
-0.0305809
-0.0296443
-0.0253944
-0.0253517
-0.0212705
-0.0223176
-0.0190808
-0.00829254
-0.00787977
-0.00882199
-0.0101047
-0.0126775
-0.0153573
-0.0186943
-0.0215203
-0.024699
-0.0270912
-0.0299855
-0.0319164
-0.0345012
-0.035814
-0.0378384
-0.038224
-0.0394006
-0.0386167
-0.038834
-0.0368272
-0.0362191
-0.0330887
-0.0319823
-0.0278999
-0.0268575
-0.0221785
-0.022287
-0.0176904
-0.0194987
-0.0156403
-0.00807303
-0.00764456
-0.00820205
-0.00904269
-0.0109086
-0.0131583
-0.0162308
-0.018982
-0.0223193
-0.0247813
-0.0279194
-0.0298878
-0.0326748
-0.0339756
-0.036152
-0.0364853
-0.0377594
-0.0368711
-0.0371157
-0.0349239
-0.034253
-0.030827
-0.0295705
-0.0250694
-0.0238764
-0.0186596
-0.0188738
-0.0135531
-0.0160775
-0.0111192
-0.00730091
-0.00681672
-0.00717929
-0.00726285
-0.00860104
-0.0100476
-0.0129068
-0.0154308
-0.018981
-0.0215487
-0.025013
-0.027113
-0.0301586
-0.0315286
-0.0338673
-0.0342087
-0.0355569
-0.0346109
-0.0348368
-0.0324901
-0.0316886
-0.0279659
-0.0264671
-0.0214985
-0.0200426
-0.0141915
-0.0144191
-0.00821536
-0.0115331
-0.00495356
-0.0070307
-0.00705675
-0.00680822
-0.0065106
-0.00654233
-0.00726414
-0.00947356
-0.0117509
-0.0154445
-0.0181393
-0.0220177
-0.0242914
-0.027707
-0.0291646
-0.0317689
-0.0321009
-0.0336288
-0.0325769
-0.0329046
-0.0303344
-0.0295405
-0.0254462
-0.0238512
-0.0183518
-0.0167506
-0.0102005
-0.0104078
-0.00309839
-0.00672073
0.00288432
-0.00638721
-0.00609474
-0.00587582
-0.00443928
-0.00388546
-0.00341088
-0.00528195
-0.00715619
-0.0110693
-0.013914
-0.0182464
-0.0207971
-0.024608
-0.0262738
-0.0291268
-0.0295688
-0.0312076
-0.0301756
-0.0304831
-0.0278262
-0.0268616
-0.0225248
-0.0205898
-0.0146136
-0.0125396
-0.00515609
-0.00485852
0.00396522
0.000721659
0.0147306
-0.0055435
-0.00694465
-0.00571741
-0.00421588
-0.00175458
-0.000524558
-0.00138704
-0.00293515
-0.00689579
-0.0098831
-0.0147057
-0.0175484
-0.021864
-0.023741
-0.026989
-0.0274907
-0.0294382
-0.0283066
-0.0288876
-0.0259607
-0.0252754
-0.0204781
-0.018856
-0.0122066
-0.0104035
-0.00200776
-0.00142841
0.00928421
0.00832749
0.0322714
-0.00635576
-0.00538381
-0.00478675
-0.000823714
0.00149918
0.00377266
0.00280267
0.00153664
-0.00265808
-0.0058011
-0.0109966
-0.0141465
-0.0188295
-0.0209894
-0.0245069
-0.0252164
-0.0273185
-0.0263344
-0.0269485
-0.0241327
-0.0233175
-0.0185788
-0.0165421
-0.00974266
-0.00693518
0.00239656
0.00548553
0.0197794
0.0283884
0.067216
-0.000705619
-0.00685608
-0.00476732
-0.00210006
0.00284634
0.00547176
0.00554506
0.0043094
0.000144769
-0.00315801
-0.00869761
-0.0120834
-0.0171611
-0.0195078
-0.0233827
-0.0241581
-0.0266118
-0.0255388
-0.0265819
-0.0234772
-0.0232836
-0.0179739
-0.01688
-0.00906881
-0.00743063
0.00394344
0.00737307
0.0287981
0.0481252
0.115218
-0.0211823
-0.003602
-0.0001764
0.00368566
0.00671297
0.00888632
0.00758792
0.00609899
0.00163519
-0.00174547
-0.00730075
-0.0107684
-0.0158573
-0.0183155
-0.0222237
-0.0231252
-0.0256008
-0.0246756
-0.0256726
-0.0227782
-0.0223457
-0.0173596
-0.0154651
-0.0079143
-0.00344139
0.00977292
0.024889
0.0627062
0.126138
0.241512
)
;

boundaryField
{
    movingWall
    {
        type            zeroGradient;
    }
    fixedWalls
    {
        type            zeroGradient;
    }
    frontAndBack
    {
        type            empty;
    }
}


// ************************************************************************* //
