/*--------------------------------*- C++ -*----------------------------------*\
| =========                 |                                                 |
| \\      /  F ield         | OpenFOAM: The Open Source CFD Toolbox           |
|  \\    /   O peration     | Version:  2406                                  |
|   \\  /    A nd           | Website:  www.openfoam.com                      |
|    \\/     M anipulation  |                                                 |
\*---------------------------------------------------------------------------*/
FoamFile
{
    version     2.0;
    format      ascii;
    arch        "LSB;label=32;scalar=64";
    class       volVectorField;
    location    "47.25";
    object      U_0;
}
// * * * * * * * * * * * * * * * * * * * * * * * * * * * * * * * * * * * * * //

dimensions      [0 1 -1 0 0 0 0];

internalField   nonuniform List<vector> 
14400
(
(-7.05677e-06 6.94763e-06 0)
(1.59214e-05 -1.18211e-05 0)
(0.000127709 -3.60545e-05 0)
(0.000323421 -5.56439e-05 0)
(0.000582488 -6.91212e-05 0)
(0.000881662 -7.63003e-05 0)
(0.00119778 -7.78152e-05 0)
(0.0015104 -7.46112e-05 0)
(0.00180301 -6.78401e-05 0)
(0.00206365 -5.87264e-05 0)
(0.00228501 -4.84634e-05 0)
(0.00246425 -3.81163e-05 0)
(0.00260235 -2.85486e-05 0)
(0.00270323 -2.03767e-05 0)
(0.00277284 -1.39519e-05 0)
(0.00281807 -9.36091e-06 0)
(0.00284593 -6.50425e-06 0)
(0.00286253 -5.20934e-06 0)
(0.00287244 -5.03833e-06 0)
(0.00287853 -5.47504e-06 0)
(0.00288145 -5.94861e-06 0)
(0.00288014 -5.69498e-06 0)
(0.00287192 -4.43695e-06 0)
(0.00285241 -2.02981e-06 0)
(0.00281624 1.68345e-06 0)
(0.0027575 6.79637e-06 0)
(0.00266998 1.33427e-05 0)
(0.00254732 2.13306e-05 0)
(0.00238314 3.07685e-05 0)
(0.00217098 4.16802e-05 0)
(0.00190428 5.41079e-05 0)
(0.00157632 6.81056e-05 0)
(0.00118027 8.37259e-05 0)
(0.000709166 0.000101005 0)
(0.000156119 0.00011995 0)
(-0.000485583 0.000140527 0)
(-0.00122224 0.000162653 0)
(-0.00205952 0.000186195 0)
(-0.00300221 0.000210962 0)
(-0.00405394 0.000236704 0)
(-0.00521695 0.000263116 0)
(-0.00649183 0.000289838 0)
(-0.00787731 0.000316459 0)
(-0.00937001 0.00034252 0)
(-0.0109643 0.000367523 0)
(-0.0126524 0.00039094 0)
(-0.0144237 0.000412219 0)
(-0.0162656 0.000430798 0)
(-0.0181627 0.000446107 0)
(-0.0200977 0.000457582 0)
(-0.0220509 0.00046467 0)
(-0.0240007 0.000466838 0)
(-0.0259237 0.000463582 0)
(-0.027795 0.00045443 0)
(-0.0295888 0.000438957 0)
(-0.031278 0.000416788 0)
(-0.0328353 0.000387607 0)
(-0.0342332 0.000351185 0)
(-0.0354444 0.00030737 0)
(-0.0364424 0.000256005 0)
(-0.0372029 0.00019753 0)
(-0.0377024 0.000134107 0)
(-0.0379166 6.56913e-05 0)
(-0.0378266 -1.12157e-05 0)
(-0.0374212 -9.3971e-05 0)
(-0.0366884 -0.000180118 0)
(-0.0356214 -0.000268409 0)
(-0.0342196 -0.000357371 0)
(-0.0324882 -0.000445257 0)
(-0.0304387 -0.000530124 0)
(-0.0280896 -0.00060989 0)
(-0.025466 -0.000682398 0)
(-0.0226001 -0.000745508 0)
(-0.0195308 -0.000797188 0)
(-0.0163027 -0.000835621 0)
(-0.0129659 -0.000859311 0)
(-0.00957429 -0.000867182 0)
(-0.00618459 -0.000858665 0)
(-0.00285438 -0.000833764 0)
(0.000359508 -0.000793093 0)
(0.00340294 -0.00073787 0)
(0.00622628 -0.000669883 0)
(0.00878613 -0.000591405 0)
(0.0110468 -0.000505081 0)
(0.0129816 -0.000413787 0)
(0.0145732 -0.000320468 0)
(0.0158146 -0.000227982 0)
(0.0167082 -0.000138926 0)
(0.017266 -5.53792e-05 0)
(0.0175095 2.02365e-05 0)
(0.0174634 8.42745e-05 0)
(0.0171584 0.000138478 0)
(0.0166328 0.000184216 0)
(0.0159255 0.000220371 0)
(0.015074 0.000246545 0)
(0.0141154 0.000263513 0)
(0.0130847 0.000272316 0)
(0.0120138 0.000274065 0)
(0.0109307 0.000269928 0)
(0.00985924 0.000261071 0)
(0.00881872 0.000248605 0)
(0.00782418 0.000233555 0)
(0.00688657 0.000216834 0)
(0.00601318 0.000199231 0)
(0.00520807 0.00018141 0)
(0.00447258 0.00016391 0)
(0.00380581 0.000147158 0)
(0.00320508 0.000131475 0)
(0.0026664 0.000117082 0)
(0.00218492 0.000104093 0)
(0.00175543 9.24948e-05 0)
(0.00137297 8.212e-05 0)
(0.00103352 7.26068e-05 0)
(0.000734845 6.3369e-05 0)
(0.000477282 5.35913e-05 0)
(0.000264425 4.23249e-05 0)
(0.000103163 2.87482e-05 0)
(2.19881e-06 1.26496e-05 0)
(-3.42752e-05 -3.8798e-06 0)
(-1.32305e-05 -1.32481e-05 0)
(1.06097e-05 -1.49955e-05 0)
(0.000157993 -0.000162663 0)
(0.000492919 -0.00034185 0)
(0.00100841 -0.000491148 0)
(0.0016575 -0.000595882 0)
(0.0023929 -0.000652979 0)
(0.00316448 -0.000665486 0)
(0.00392655 -0.00063989 0)
(0.0046411 -0.000584674 0)
(0.00527961 -0.000509193 0)
(0.00582359 -0.000422764 0)
(0.0062643 -0.000333864 0)
(0.00660158 -0.000249504 0)
(0.00684205 -0.000174828 0)
(0.00699703 -0.000112921 0)
(0.00708024 -6.48289e-05 0)
(0.00710562 -2.9788e-05 0)
(0.00708548 -5.61287e-06 0)
(0.00702894 1.11136e-05 0)
(0.00694084 2.44914e-05 0)
(0.00682141 3.87823e-05 0)
(0.00666601 5.81455e-05 0)
(0.00646561 8.58505e-05 0)
(0.00620795 0.000124352 0)
(0.00587817 0.000175339 0)
(0.00545972 0.000239803 0)
(0.00493508 0.000318219 0)
(0.00428632 0.000410773 0)
(0.00349534 0.000517553 0)
(0.00254405 0.000638661 0)
(0.00141448 0.000774232 0)
(8.88279e-05 0.000924383 0)
(-0.00145023 0.0010891 0)
(-0.00321923 0.00126813 0)
(-0.00523346 0.00146087 0)
(-0.00750631 0.00166626 0)
(-0.0100487 0.00188274 0)
(-0.0128683 0.00210824 0)
(-0.0159688 0.00234011 0)
(-0.0193497 0.00257519 0)
(-0.023005 0.00280979 0)
(-0.0269234 0.0030398 0)
(-0.0310876 0.00326071 0)
(-0.0354743 0.00346773 0)
(-0.0400541 0.0036559 0)
(-0.0447918 0.00382021 0)
(-0.0496466 0.00395571 0)
(-0.0545729 0.00405763 0)
(-0.0595207 0.00412151 0)
(-0.0644364 0.00414327 0)
(-0.0692638 0.00411935 0)
(-0.0739449 0.00404671 0)
(-0.0784209 0.00392295 0)
(-0.082633 0.00374632 0)
(-0.0865232 0.00351577 0)
(-0.0900352 0.00323097 0)
(-0.0931154 0.00289231 0)
(-0.0957131 0.00250099 0)
(-0.0977818 0.00205903 0)
(-0.0992791 0.00156925 0)
(-0.100167 0.00103558 0)
(-0.100417 0.000464062 0)
(-0.100004 -0.000139155 0)
(-0.0989067 -0.00077132 0)
(-0.0971158 -0.00142357 0)
(-0.094629 -0.00208674 0)
(-0.0914529 -0.00275096 0)
(-0.0876026 -0.00340559 0)
(-0.083103 -0.00403928 0)
(-0.0779886 -0.00464006 0)
(-0.0723041 -0.00519563 0)
(-0.0661042 -0.0056937 0)
(-0.0594535 -0.0061223 0)
(-0.0524256 -0.00647025 0)
(-0.045103 -0.00672763 0)
(-0.0375756 -0.00688622 0)
(-0.0299392 -0.00693997 0)
(-0.0222938 -0.00688546 0)
(-0.0147417 -0.00672218 0)
(-0.00738538 -0.00645282 0)
(-0.000324383 -0.00608329 0)
(0.00634666 -0.00562272 0)
(0.0125408 -0.00508315 0)
(0.0181814 -0.00447916 0)
(0.0232039 -0.0038273 0)
(0.0275583 -0.0031454 0)
(0.0312099 -0.00245186 0)
(0.0341408 -0.00176477 0)
(0.0363499 -0.00110129 0)
(0.0378515 -0.000477075 0)
(0.0386767 9.30538e-05 0)
(0.0388725 0.000601287 0)
(0.0384952 0.00104184 0)
(0.0376096 0.00140943 0)
(0.0362888 0.00170204 0)
(0.0346098 0.00192121 0)
(0.0326499 0.00207097 0)
(0.0304842 0.00215725 0)
(0.0281837 0.00218738 0)
(0.025813 0.00216956 0)
(0.0234287 0.00211236 0)
(0.021079 0.00202428 0)
(0.0188028 0.00191339 0)
(0.0166304 0.00178707 0)
(0.0145832 0.00165184 0)
(0.0126753 0.00151328 0)
(0.010914 0.00137599 0)
(0.00930084 0.00124363 0)
(0.00783295 0.00111885 0)
(0.00650415 0.00100328 0)
(0.00530634 0.000897336 0)
(0.00423102 0.000800098 0)
(0.00327101 0.000709043 0)
(0.00242223 0.000619966 0)
(0.00168539 0.00052715 0)
(0.00106705 0.00042422 0)
(0.000579342 0.000306184 0)
(0.000235878 0.000173785 0)
(4.668e-05 4.13439e-05 0)
(-2.80082e-06 -3.33198e-05 0)
(3.29971e-05 -0.000120548 0)
(0.000326596 -0.000493154 0)
(0.000868718 -0.000887446 0)
(0.00164682 -0.00121425 0)
(0.00259126 -0.00144411 0)
(0.00364203 -0.00156885 0)
(0.00473368 -0.00159338 0)
(0.00580575 -0.00153084 0)
(0.00680713 -0.00139936 0)
(0.00769869 -0.00121945 0)
(0.00845412 -0.00101185 0)
(0.00905967 -0.000795613 0)
(0.00951273 -0.000586698 0)
(0.00981961 -0.000396954 0)
(0.0099928 -0.000233634 0)
(0.010048 -9.93635e-05 0)
(0.0100011 7.52216e-06 0)
(0.00986588 9.2261e-05 0)
(0.00965162 0.000162697 0)
(0.00936174 0.00022828 0)
(0.00899314 0.000298902 0)
(0.00853609 0.000383799 0)
(0.0079749 0.000491033 0)
(0.00728902 0.000626867 0)
(0.00645426 0.000795609 0)
(0.005444 0.000999856 0)
(0.00423029 0.00124091 0)
(0.00278462 0.00151924 0)
(0.00107856 0.00183488 0)
(-0.000915811 0.00218762 0)
(-0.00322548 0.00257703 0)
(-0.00587599 0.00300232 0)
(-0.00889073 0.00346206 0)
(-0.0122902 0.00395394 0)
(-0.0160907 0.00447454 0)
(-0.020304 0.00501915 0)
(-0.0249351 0.00558166 0)
(-0.0299825 0.00615459 0)
(-0.0354362 0.00672915 0)
(-0.0412775 0.00729533 0)
(-0.0474788 0.00784216 0)
(-0.0540028 0.00835794 0)
(-0.0608034 0.00883056 0)
(-0.0678257 0.00924784 0)
(-0.0750074 0.00959792 0)
(-0.0822796 0.00986959 0)
(-0.0895683 0.0100526 0)
(-0.0967962 0.010138 0)
(-0.103884 0.0101183 0)
(-0.110752 0.00998756 0)
(-0.117321 0.00974178 0)
(-0.123517 0.00937855 0)
(-0.129265 0.0088972 0)
(-0.134499 0.00829874 0)
(-0.139156 0.00758571 0)
(-0.143179 0.00676213 0)
(-0.146518 0.00583336 0)
(-0.149128 0.00480609 0)
(-0.150972 0.00368825 0)
(-0.152018 0.00248902 0)
(-0.152243 0.00121843 0)
(-0.151627 -0.000112603 0)
(-0.150164 -0.00148975 0)
(-0.147849 -0.00289819 0)
(-0.144685 -0.00432368 0)
(-0.140684 -0.00574979 0)
(-0.135865 -0.00715828 0)
(-0.130257 -0.00852973 0)
(-0.123894 -0.00984373 0)
(-0.116821 -0.0110792 0)
(-0.109092 -0.0122145 0)
(-0.100769 -0.0132283 0)
(-0.0919229 -0.0140998 0)
(-0.0826344 -0.0148095 0)
(-0.0729912 -0.0153398 0)
(-0.0630892 -0.0156759 0)
(-0.0530304 -0.0158065 0)
(-0.0429221 -0.0157245 0)
(-0.032875 -0.0154275 0)
(-0.0230015 -0.0149187 0)
(-0.0134135 -0.0142063 0)
(-0.00421984 -0.0133047 0)
(0.00447581 -0.0122332 0)
(0.0125775 -0.0110161 0)
(0.0199993 -0.00968192 0)
(0.0266676 -0.0082624 0)
(0.0325229 -0.00679137 0)
(0.0375215 -0.00530358 0)
(0.0416366 -0.00383341 0)
(0.0448589 -0.00241341 0)
(0.0471983 -0.00107243 0)
(0.0486825 0.000163358 0)
(0.0493538 0.0012717 0)
(0.0492702 0.00223698 0)
(0.0485043 0.00304966 0)
(0.0471388 0.00370559 0)
(0.0452636 0.00420613 0)
(0.0429724 0.00455777 0)
(0.0403598 0.00477136 0)
(0.0375176 0.00486115 0)
(0.0345319 0.00484372 0)
(0.0314806 0.00473696 0)
(0.0284319 0.00455905 0)
(0.0254427 0.00432762 0)
(0.0225587 0.0040591 0)
(0.0198143 0.0037682 0)
(0.0172335 0.00346766 0)
(0.0148306 0.00316797 0)
(0.0126123 0.00287724 0)
(0.010579 0.00260097 0)
(0.00872649 0.00234171 0)
(0.00704877 0.00209868 0)
(0.00553988 0.00186743 0)
(0.00419646 0.00163984 0)
(0.00301995 0.00140467 0)
(0.00201787 0.0011496 0)
(0.00120355 0.000865309 0)
(0.000590465 0.000553306 0)
(0.000199563 0.000238407 0)
(1.65955e-05 1.11188e-05 0)
(5.07625e-05 -0.000303946 0)
(0.000467805 -0.000996908 0)
(0.00118544 -0.0016635 0)
(0.00217811 -0.00220508 0)
(0.00335102 -0.00258137 0)
(0.00463306 -0.0027802 0)
(0.00594775 -0.00280928 0)
(0.00722509 -0.00268985 0)
(0.00840597 -0.00245171 0)
(0.00944485 -0.00212892 0)
(0.0103106 -0.00175603 0)
(0.0109861 -0.001365 0)
(0.0114665 -0.000982616 0)
(0.0117568 -0.000628836 0)
(0.0118685 -0.000315888 0)
(0.0118164 -4.81313e-05 0)
(0.0116151 0.000177399 0)
(0.0112761 0.000369863 0)
(0.0108054 0.000542992 0)
(0.0102019 0.000713261 0)
(0.00945654 0.000897983 0)
(0.00855241 0.00111352 0)
(0.00746561 0.00137394 0)
(0.00616656 0.00169019 0)
(0.00462159 0.00206985 0)
(0.00279448 0.00251748 0)
(0.000647829 0.0030352 0)
(-0.00185577 0.00362345 0)
(-0.00475274 0.00428154 0)
(-0.00807764 0.00500789 0)
(-0.0118622 0.00579996 0)
(-0.016134 0.00665397 0)
(-0.0209157 0.00756449 0)
(-0.0262229 0.00852397 0)
(-0.0320631 0.00952246 0)
(-0.0384341 0.0105474 0)
(-0.0453228 0.0115839 0)
(-0.0527043 0.0126143 0)
(-0.0605413 0.0136193 0)
(-0.0687838 0.0145779 0)
(-0.0773704 0.0154684 0)
(-0.0862285 0.0162687 0)
(-0.0952766 0.0169576 0)
(-0.104426 0.0175151 0)
(-0.113583 0.0179231 0)
(-0.122653 0.0181663 0)
(-0.131538 0.0182322 0)
(-0.140147 0.0181118 0)
(-0.148389 0.0177993 0)
(-0.156182 0.0172921 0)
(-0.163449 0.0165908 0)
(-0.17012 0.0156988 0)
(-0.176136 0.0146218 0)
(-0.181443 0.0133677 0)
(-0.185995 0.0119461 0)
(-0.189756 0.0103681 0)
(-0.192693 0.00864612 0)
(-0.194783 0.00679365 0)
(-0.196006 0.00482522 0)
(-0.19635 0.00275637 0)
(-0.195806 0.000603717 0)
(-0.19437 -0.00161537 0)
(-0.192045 -0.00388283 0)
(-0.188837 -0.00617684 0)
(-0.184756 -0.00847555 0)
(-0.17982 -0.0107558 0)
(-0.174048 -0.0129926 0)
(-0.167469 -0.0151594 0)
(-0.160118 -0.0172283 0)
(-0.152033 -0.0191702 0)
(-0.143265 -0.0209551 0)
(-0.133868 -0.0225533 0)
(-0.123907 -0.0239352 0)
(-0.113456 -0.0250729 0)
(-0.102594 -0.0259408 0)
(-0.0914109 -0.0265168 0)
(-0.0800031 -0.0267832 0)
(-0.0684731 -0.0267277 0)
(-0.0569288 -0.0263448 0)
(-0.0454812 -0.0256359 0)
(-0.0342431 -0.0246101 0)
(-0.0233266 -0.0232844 0)
(-0.0128411 -0.0216835 0)
(-0.00289092 -0.0198394 0)
(0.00642709 -0.0177905 0)
(0.0150254 -0.0155804 0)
(0.0228277 -0.0132568 0)
(0.0297708 -0.0108697 0)
(0.0358061 -0.00846983 0)
(0.0409004 -0.00610725 0)
(0.0450375 -0.00382932 0)
(0.0482172 -0.00168046 0)
(0.0504568 0.000300527 0)
(0.0517915 0.00208222 0)
(0.0522726 0.00364062 0)
(0.0519658 0.00495951 0)
(0.0509503 0.0060312 0)
(0.0493156 0.00685647 0)
(0.0471587 0.00744401 0)
(0.0445804 0.00780955 0)
(0.0416816 0.00797447 0)
(0.0385595 0.00796435 0)
(0.035305 0.00780729 0)
(0.0319992 0.00753232 0)
(0.0287125 0.00716796 0)
(0.0255028 0.00674106 0)
(0.0224153 0.0062758 0)
(0.0194837 0.00579302 0)
(0.0167303 0.00530959 0)
(0.0141684 0.00483782 0)
(0.0118042 0.00438482 0)
(0.00963891 0.00395188 0)
(0.00767209 0.00353397 0)
(0.00590397 0.00311981 0)
(0.00433827 0.00269299 0)
(0.00298408 0.0022351 0)
(0.00185652 0.00173164 0)
(0.000970787 0.00118234 0)
(0.000366663 0.000616059 0)
(3.78088e-05 0.000134829 0)
(6.40373e-05 -0.000548049 0)
(0.000577602 -0.001636 0)
(0.00143614 -0.00261383 0)
(0.00259856 -0.00338642 0)
(0.00394463 -0.00391027 0)
(0.00539109 -0.00417336 0)
(0.00685153 -0.00418866 0)
(0.00824862 -0.00398734 0)
(0.00951808 -0.00361238 0)
(0.0106108 -0.00311267 0)
(0.0114933 -0.00253766 0)
(0.0121467 -0.00193289 0)
(0.0125648 -0.00133639 0)
(0.0127511 -0.000776308 0)
(0.012715 -0.000269555 0)
(0.0124685 0.000178358 0)
(0.0120224 0.000572546 0)
(0.0113831 0.000927139 0)
(0.0105504 0.00126293 0)
(0.00951551 0.00160463 0)
(0.00826085 0.001978 0)
(0.00676025 0.00240727 0)
(0.00498016 0.00291306 0)
(0.00288137 0.00351125 0)
(0.00042096 0.00421256 0)
(-0.0024458 0.00502305 0)
(-0.00576368 0.0059449 0)
(-0.00957589 0.00697732 0)
(-0.0139226 0.00811718 0)
(-0.0188394 0.00935923 0)
(-0.0243554 0.0106959 0)
(-0.0304919 0.0121167 0)
(-0.0372598 0.0136079 0)
(-0.0446582 0.015152 0)
(-0.0526724 0.0167275 0)
(-0.0612728 0.0183088 0)
(-0.0704143 0.0198671 0)
(-0.0800362 0.0213711 0)
(-0.0900633 0.0227874 0)
(-0.100408 0.0240826 0)
(-0.110971 0.0252239 0)
(-0.121646 0.0261807 0)
(-0.132326 0.0269257 0)
(-0.142897 0.0274359 0)
(-0.153255 0.0276933 0)
(-0.163296 0.0276852 0)
(-0.172925 0.0274041 0)
(-0.18206 0.0268479 0)
(-0.190623 0.026019 0)
(-0.198552 0.0249238 0)
(-0.205792 0.023572 0)
(-0.212298 0.0219762 0)
(-0.218035 0.0201506 0)
(-0.222973 0.0181112 0)
(-0.227092 0.0158747 0)
(-0.230374 0.0134587 0)
(-0.232807 0.0108811 0)
(-0.234384 0.00816019 0)
(-0.235099 0.00531479 0)
(-0.234948 0.00236414 0)
(-0.233931 -0.000671556 0)
(-0.232049 -0.00377106 0)
(-0.229305 -0.00691287 0)
(-0.225704 -0.010073 0)
(-0.221255 -0.0132258 0)
(-0.215968 -0.0163435 0)
(-0.209857 -0.0193964 0)
(-0.202943 -0.0223528 0)
(-0.195247 -0.0251787 0)
(-0.186802 -0.0278384 0)
(-0.177642 -0.0302947 0)
(-0.167814 -0.0325098 0)
(-0.157369 -0.0344459 0)
(-0.146369 -0.0360664 0)
(-0.134886 -0.0373372 0)
(-0.122998 -0.0382279 0)
(-0.110795 -0.0387131 0)
(-0.0983735 -0.038774 0)
(-0.0858375 -0.0383997 0)
(-0.073296 -0.0375882 0)
(-0.0608619 -0.036347 0)
(-0.0486492 -0.0346939 0)
(-0.036771 -0.0326564 0)
(-0.0253368 -0.0302718 0)
(-0.0144507 -0.0275857 0)
(-0.00420876 -0.0246512 0)
(0.00530239 -0.0215269 0)
(0.0140074 -0.0182753 0)
(0.0218433 -0.014961 0)
(0.0287603 -0.011649 0)
(0.0347229 -0.0084025 0)
(0.0397097 -0.00528164 0)
(0.0437146 -0.00234087 0)
(0.0467474 0.000371403 0)
(0.0488338 0.00281438 0)
(0.0500145 0.00495652 0)
(0.0503462 0.00677637 0)
(0.0498994 0.0082631 0)
(0.0487572 0.00941666 0)
(0.0470122 0.0102474 0)
(0.044764 0.0107752 0)
(0.042115 0.0110276 0)
(0.0391666 0.0110385 0)
(0.0360159 0.0108456 0)
(0.032752 0.0104882 0)
(0.0294537 0.0100054 0)
(0.0261882 0.00943399 0)
(0.0230097 0.00880727 0)
(0.0199599 0.00815336 0)
(0.0170695 0.00749417 0)
(0.0143589 0.00684418 0)
(0.0118417 0.00620935 0)
(0.00952632 0.00558646 0)
(0.00742004 0.00496311 0)
(0.0055315 0.00431919 0)
(0.00387362 0.0036307 0)
(0.00246582 0.00287661 0)
(0.0013283 0.00205016 0)
(0.000523705 0.00117379 0)
(5.74004e-05 0.000339261 0)
(7.38289e-05 -0.000838405 0)
(0.000661295 -0.00238269 0)
(0.00162934 -0.00370468 0)
(0.00292119 -0.00471825 0)
(0.00439222 -0.00538282 0)
(0.00594594 -0.00569139 0)
(0.00748591 -0.00566588 0)
(0.00892843 -0.00535017 0)
(0.0102056 -0.00480255 0)
(0.0112668 -0.00408819 0)
(0.0120779 -0.00327226 0)
(0.01262 -0.00241411 0)
(0.0128864 -0.00156272 0)
(0.012879 -0.000753689 0)
(0.0126048 -7.56657e-06 0)
(0.0120715 0.000670281 0)
(0.0112837 0.00128856 0)
(0.0102405 0.0018678 0)
(0.00893236 0.00243711 0)
(0.00734051 0.00303044 0)
(0.00543648 0.0036827 0)
(0.00318323 0.00442613 0)
(0.000536779 0.0052877 0)
(-0.00255144 0.00628748 0)
(-0.00613221 0.00743825 0)
(-0.0102561 0.00874604 0)
(-0.0149713 0.0102111 0)
(-0.0203215 0.0118289 0)
(-0.0263433 0.0135906 0)
(-0.0330648 0.0154835 0)
(-0.040502 0.0174902 0)
(-0.0486576 0.0195884 0)
(-0.0575178 0.0217502 0)
(-0.0670512 0.0239424 0)
(-0.0772076 0.0261267 0)
(-0.0879184 0.0282602 0)
(-0.0990971 0.0302976 0)
(-0.110643 0.0321921 0)
(-0.122442 0.0338979 0)
(-0.134374 0.0353722 0)
(-0.146314 0.0365765 0)
(-0.158142 0.0374788 0)
(-0.169739 0.0380541 0)
(-0.180998 0.0382853 0)
(-0.191821 0.0381628 0)
(-0.202125 0.0376844 0)
(-0.211839 0.0368543 0)
(-0.220904 0.0356822 0)
(-0.229276 0.0341821 0)
(-0.236918 0.0323711 0)
(-0.243805 0.0302686 0)
(-0.249918 0.0278951 0)
(-0.255244 0.0252719 0)
(-0.259774 0.0224203 0)
(-0.263502 0.0193614 0)
(-0.266426 0.0161158 0)
(-0.268543 0.0127039 0)
(-0.26985 0.00914559 0)
(-0.270346 0.00546083 0)
(-0.27003 0.00166981 0)
(-0.268899 -0.00220671 0)
(-0.266951 -0.00614702 0)
(-0.264184 -0.0101275 0)
(-0.260598 -0.0141232 0)
(-0.256192 -0.0181064 0)
(-0.250968 -0.0220469 0)
(-0.24493 -0.0259116 0)
(-0.238084 -0.0296643 0)
(-0.230444 -0.033266 0)
(-0.222026 -0.0366745 0)
(-0.212855 -0.0398457 0)
(-0.20296 -0.0427336 0)
(-0.192383 -0.0452915 0)
(-0.181172 -0.0474734 0)
(-0.169388 -0.0492352 0)
(-0.1571 -0.0505366 0)
(-0.144389 -0.0513429 0)
(-0.131348 -0.0516266 0)
(-0.118075 -0.0513695 0)
(-0.10468 -0.0505638 0)
(-0.0912779 -0.0492137 0)
(-0.0779855 -0.0473357 0)
(-0.0649221 -0.0449589 0)
(-0.0522046 -0.0421245 0)
(-0.0399451 -0.0388845 0)
(-0.0282486 -0.0353004 0)
(-0.0172105 -0.031441 0)
(-0.00691531 -0.0273803 0)
(0.00256459 -0.0231952 0)
(0.0111695 -0.0189637 0)
(0.0188524 -0.0147621 0)
(0.0255794 -0.0106643 0)
(0.0313294 -0.00673898 0)
(0.0360942 -0.00304906 0)
(0.039879 0.000349987 0)
(0.0427029 0.0034116 0)
(0.0445987 0.00609939 0)
(0.0456138 0.00838825 0)
(0.0458096 0.0102653 0)
(0.0452604 0.0117301 0)
(0.044052 0.0127948 0)
(0.0422785 0.0134829 0)
(0.0400396 0.0138277 0)
(0.0374362 0.0138704 0)
(0.034567 0.0136571 0)
(0.0315246 0.0132365 0)
(0.0283929 0.0126571 0)
(0.0252447 0.0119644 0)
(0.0221411 0.0111989 0)
(0.0191307 0.0103941 0)
(0.0162511 0.00957402 0)
(0.0135302 0.00875196 0)
(0.0109893 0.00792905 0)
(0.00864537 0.0070941 0)
(0.00651502 0.00622497 0)
(0.00461794 0.00529254 0)
(0.00298076 0.00426767 0)
(0.00163163 0.00313225 0)
(0.000656571 0.00189301 0)
(7.38278e-05 0.000615152 0)
(8.13989e-05 -0.001164 0)
(0.000726029 -0.00321221 0)
(0.00177728 -0.00490224 0)
(0.00316289 -0.00615877 0)
(0.00471515 -0.00694884 0)
(0.00632383 -0.00727536 0)
(0.0078825 -0.00717354 0)
(0.00930171 -0.00670353 0)
(0.0105112 -0.00594156 0)
(0.0114602 -0.00497069 0)
(0.0121156 -0.00387249 0)
(0.0124596 -0.00271991 0)
(0.0124856 -0.00157194 0)
(0.0121944 -0.000470131 0)
(0.0115894 0.000563158 0)
(0.0106726 0.00152469 0)
(0.00944082 0.0024287 0)
(0.00788302 0.00330381 0)
(0.00597835 0.00418875 0)
(0.00369569 0.00512742 0)
(0.000994283 0.00616386 0)
(-0.00217441 0.00733771 0)
(-0.00586416 0.00868087 0)
(-0.010131 0.0102157 0)
(-0.0150301 0.0119546 0)
(-0.0206131 0.0139004 0)
(-0.0269248 0.0160481 0)
(-0.0340009 0.0183851 0)
(-0.0418646 0.020892 0)
(-0.0505242 0.0235428 0)
(-0.0599699 0.0263042 0)
(-0.070172 0.0291359 0)
(-0.0810789 0.0319902 0)
(-0.0926173 0.0348135 0)
(-0.104693 0.0375476 0)
(-0.117196 0.0401318 0)
(-0.129998 0.0425059 0)
(-0.142968 0.0446128 0)
(-0.155967 0.0464012 0)
(-0.168862 0.0478278 0)
(-0.181526 0.0488589 0)
(-0.193846 0.0494711 0)
(-0.205722 0.0496514 0)
(-0.217071 0.0493966 0)
(-0.227824 0.0487119 0)
(-0.237929 0.0476097 0)
(-0.247349 0.0461077 0)
(-0.256055 0.0442277 0)
(-0.264029 0.0419938 0)
(-0.271263 0.0394313 0)
(-0.277749 0.036566 0)
(-0.283487 0.0334231 0)
(-0.288477 0.0300269 0)
(-0.292719 0.0264007 0)
(-0.296216 0.0225663 0)
(-0.298968 0.0185446 0)
(-0.300974 0.0143555 0)
(-0.302233 0.0100183 0)
(-0.302742 0.00555197 0)
(-0.302497 0.000975934 0)
(-0.301491 -0.00368981 0)
(-0.299719 -0.00842405 0)
(-0.297173 -0.0132035 0)
(-0.293845 -0.0180027 0)
(-0.289727 -0.0227931 0)
(-0.284812 -0.027543 0)
(-0.279094 -0.0322167 0)
(-0.272569 -0.0367749 0)
(-0.265237 -0.041174 0)
(-0.257102 -0.0453664 0)
(-0.248174 -0.049301 0)
(-0.238469 -0.052924 0)
(-0.228012 -0.0561795 0)
(-0.216837 -0.0590112 0)
(-0.204992 -0.0613642 0)
(-0.192532 -0.0631864 0)
(-0.17953 -0.0644315 0)
(-0.166067 -0.0650608 0)
(-0.15224 -0.0650458 0)
(-0.138155 -0.0643703 0)
(-0.12393 -0.0630319 0)
(-0.109687 -0.0610436 0)
(-0.0955548 -0.0584338 0)
(-0.0816604 -0.0552461 0)
(-0.0681288 -0.0515383 0)
(-0.0550784 -0.0473801 0)
(-0.0426176 -0.042851 0)
(-0.0308427 -0.0380371 0)
(-0.0198366 -0.0330283 0)
(-0.00966792 -0.0279157 0)
(-0.00039106 -0.0227888 0)
(0.00795296 -0.0177337 0)
(0.0153357 -0.0128317 0)
(0.0217403 -0.00815764 0)
(0.027161 -0.00377892 0)
(0.031603 0.000245343 0)
(0.0350826 0.00386568 0)
(0.0376281 0.00704349 0)
(0.0392803 0.00975226 0)
(0.0400929 0.0119786 0)
(0.0401323 0.0137231 0)
(0.0394767 0.0149998 0)
(0.0382139 0.0158361 0)
(0.0364383 0.0162706 0)
(0.0342478 0.0163509 0)
(0.0317397 0.0161306 0)
(0.0290071 0.0156662 0)
(0.0261358 0.0150138 0)
(0.0232021 0.0142252 0)
(0.0202711 0.0133457 0)
(0.0173968 0.0124102 0)
(0.0146231 0.011441 0)
(0.0119849 0.010446 0)
(0.00951165 0.00941702 0)
(0.00723046 0.00833169 0)
(0.00517047 0.00715624 0)
(0.00336791 0.00585218 0)
(0.00186093 0.00438619 0)
(0.000756856 0.00274229 0)
(8.61257e-05 0.000948203 0)
(8.76436e-05 -0.00151752 0)
(0.000777489 -0.00410531 0)
(0.00188995 -0.00617736 0)
(0.00333701 -0.0076699 0)
(0.00492907 -0.00856148 0)
(0.00654217 -0.00886972 0)
(0.00806045 -0.00864788 0)
(0.00938964 -0.00797645 0)
(0.0104583 -0.00695254 0)
(0.011217 -0.00567888 0)
(0.011635 -0.00425387 0)
(0.0116962 -0.00276341 0)
(0.0113947 -0.00127498 0)
(0.0107296 0.00016613 0)
(0.00969966 0.00153826 0)
(0.00829972 0.00284286 0)
(0.00651672 0.00410203 0)
(0.00432755 0.00535426 0)
(0.00169809 0.00664894 0)
(-0.00141627 0.00804 0)
(-0.00506877 0.00957969 0)
(-0.00931832 0.0113131 0)
(-0.0142258 0.0132743 0)
(-0.0198505 0.0154845 0)
(-0.026246 0.0179514 0)
(-0.033457 0.0206703 0)
(-0.0415154 0.0236251 0)
(-0.0504376 0.0267893 0)
(-0.0602209 0.0301267 0)
(-0.0708405 0.0335911 0)
(-0.0822479 0.0371272 0)
(-0.0943694 0.0406713 0)
(-0.107108 0.0441528 0)
(-0.120344 0.0474969 0)
(-0.133944 0.0506279 0)
(-0.147762 0.0534729 0)
(-0.161648 0.0559652 0)
(-0.175457 0.0580478 0)
(-0.189052 0.0596757 0)
(-0.202311 0.0608166 0)
(-0.215129 0.0614519 0)
(-0.22742 0.0615752 0)
(-0.239118 0.0611914 0)
(-0.250174 0.0603141 0)
(-0.260552 0.0589642 0)
(-0.270232 0.0571672 0)
(-0.279201 0.0549519 0)
(-0.287457 0.0523482 0)
(-0.294998 0.0493864 0)
(-0.301829 0.0460958 0)
(-0.307956 0.0425047 0)
(-0.313384 0.0386394 0)
(-0.318119 0.0345243 0)
(-0.322165 0.0301821 0)
(-0.325527 0.0256335 0)
(-0.328205 0.0208982 0)
(-0.330199 0.0159943 0)
(-0.331509 0.0109394 0)
(-0.332129 0.00575097 0)
(-0.332056 0.000446665 0)
(-0.331281 -0.00495491 0)
(-0.329795 -0.0104339 0)
(-0.327588 -0.0159681 0)
(-0.324647 -0.0215328 0)
(-0.320959 -0.0270998 0)
(-0.316509 -0.032637 0)
(-0.311284 -0.0381079 0)
(-0.305268 -0.0434709 0)
(-0.29845 -0.0486795 0)
(-0.290821 -0.053682 0)
(-0.282373 -0.0584217 0)
(-0.273106 -0.0628375 0)
(-0.263029 -0.0668648 0)
(-0.252156 -0.070437 0)
(-0.240514 -0.0734871 0)
(-0.228145 -0.0759502 0)
(-0.215101 -0.077766 0)
(-0.201452 -0.0788816 0)
(-0.187285 -0.0792545 0)
(-0.172699 -0.0788559 0)
(-0.157812 -0.0776728 0)
(-0.142749 -0.0757101 0)
(-0.127649 -0.072992 0)
(-0.112653 -0.0695617 0)
(-0.0979034 -0.0654806 0)
(-0.0835382 -0.0608264 0)
(-0.0696865 -0.0556895 0)
(-0.0564644 -0.05017 0)
(-0.0439725 -0.044373 0)
(-0.0322936 -0.0384054 0)
(-0.021493 -0.0323722 0)
(-0.0116189 -0.0263735 0)
(-0.00270456 -0.0205033 0)
(0.00523028 -0.0148477 0)
(0.0121767 -0.00948446 0)
(0.0181356 -0.00448233 0)
(0.0231161 9.92234e-05 0)
(0.0271365 0.00421098 0)
(0.0302241 0.00781495 0)
(0.0324166 0.0108857 0)
(0.0337628 0.0134113 0)
(0.0343233 0.0153945 0)
(0.0341697 0.0168528 0)
(0.0333836 0.0178174 0)
(0.0320542 0.0183321 0)
(0.0302748 0.0184504 0)
(0.0281398 0.018232 0)
(0.0257408 0.0177394 0)
(0.0231636 0.0170338 0)
(0.0204855 0.0161704 0)
(0.0177746 0.0151948 0)
(0.0150889 0.0141391 0)
(0.0124778 0.0130187 0)
(0.00998373 0.0118304 0)
(0.00764608 0.0105527 0)
(0.00550525 0.00914761 0)
(0.00360862 0.00756684 0)
(0.00200529 0.00575949 0)
(0.000820075 0.00368281 0)
(9.38003e-05 0.00132118 0)
(9.30827e-05 -0.00189414 0)
(0.00081897 -0.00504657 0)
(0.00197296 -0.00750395 0)
(0.0034505 -0.00921535 0)
(0.00504099 -0.0101747 0)
(0.00660746 -0.0104194 0)
(0.00802573 -0.0100258 0)
(0.00919813 -0.00909907 0)
(0.0100537 -0.00776033 0)
(0.0105455 -0.00613355 0)
(0.0106461 -0.00433406 0)
(0.0103419 -0.00245955 0)
(0.00962733 -0.00058373 0)
(0.00849863 0.00124714 0)
(0.00694897 0.00301522 0)
(0.00496396 0.00472962 0)
(0.00251874 0.00642266 0)
(-0.000423391 0.00814427 0)
(-0.00391073 0.00995483 0)
(-0.00800112 0.0119173 0)
(-0.0127586 0.0140899 0)
(-0.0182489 0.0165196 0)
(-0.0245349 0.0192381 0)
(-0.0316719 0.0222601 0)
(-0.0397029 0.0255827 0)
(-0.0486552 0.0291873 0)
(-0.0585359 0.0330397 0)
(-0.0693295 0.0370927 0)
(-0.0809941 0.0412858 0)
(-0.0934609 0.0455473 0)
(-0.106634 0.0497958 0)
(-0.120391 0.0539429 0)
(-0.134593 0.0578971 0)
(-0.149083 0.0615682 0)
(-0.1637 0.0648722 0)
(-0.178287 0.0677352 0)
(-0.192693 0.0700974 0)
(-0.206786 0.0719143 0)
(-0.220453 0.0731582 0)
(-0.233601 0.0738168 0)
(-0.24616 0.0738918 0)
(-0.25808 0.0733966 0)
(-0.269328 0.0723535 0)
(-0.279883 0.0707908 0)
(-0.289739 0.0687413 0)
(-0.298894 0.0662392 0)
(-0.307352 0.0633193 0)
(-0.315122 0.0600159 0)
(-0.322214 0.0563613 0)
(-0.328636 0.052386 0)
(-0.334401 0.0481181 0)
(-0.339516 0.0435834 0)
(-0.343991 0.0388053 0)
(-0.347833 0.0338051 0)
(-0.351048 0.0286021 0)
(-0.35364 0.023214 0)
(-0.355611 0.0176574 0)
(-0.356963 0.0119479 0)
(-0.357693 0.00610087 0)
(-0.357798 0.000131931 0)
(-0.357272 -0.00594242 0)
(-0.356106 -0.0121046 0)
(-0.354288 -0.0183345 0)
(-0.351805 -0.0246094 0)
(-0.348639 -0.0309028 0)
(-0.344771 -0.037184 0)
(-0.34018 -0.0434174 0)
(-0.334842 -0.0495616 0)
(-0.328734 -0.0555691 0)
(-0.321832 -0.0613861 0)
(-0.314113 -0.0669523 0)
(-0.305559 -0.0722011 0)
(-0.296156 -0.0770607 0)
(-0.285896 -0.0814549 0)
(-0.274784 -0.0853052 0)
(-0.262835 -0.0885326 0)
(-0.25008 -0.0910612 0)
(-0.236566 -0.092821 0)
(-0.222361 -0.0937518 0)
(-0.207551 -0.093807 0)
(-0.192244 -0.0929571 0)
(-0.176565 -0.0911932 0)
(-0.160656 -0.0885288 0)
(-0.144672 -0.0850012 0)
(-0.128775 -0.0806713 0)
(-0.113127 -0.0756215 0)
(-0.0978848 -0.0699525 0)
(-0.0831955 -0.0637788 0)
(-0.069188 -0.0572239 0)
(-0.0559708 -0.0504142 0)
(-0.0436302 -0.0434749 0)
(-0.0322296 -0.036525 0)
(-0.021811 -0.0296749 0)
(-0.0123984 -0.0230245 0)
(-0.00400102 -0.0166628 0)
(0.00338349 -0.0106675 0)
(0.00976595 -0.00510581 0)
(0.0151639 -3.4304e-05 0)
(0.0196013 0.00450103 0)
(0.0231085 0.00846566 0)
(0.0257235 0.0118376 0)
(0.0274937 0.0146088 0)
(0.0284761 0.0167858 0)
(0.0287381 0.0183902 0)
(0.0283561 0.0194582 0)
(0.0274146 0.0200385 0)
(0.0260025 0.0201896 0)
(0.0242105 0.0199762 0)
(0.0221278 0.0194644 0)
(0.0198389 0.0187172 0)
(0.0174215 0.0177888 0)
(0.0149456 0.0167203 0)
(0.012473 0.0155349 0)
(0.0100591 0.0142348 0)
(0.00775584 0.0127999 0)
(0.00561569 0.011189 0)
(0.00369763 0.00934372 0)
(0.00206161 0.00719505 0)
(0.000845049 0.00467238 0)
(9.67469e-05 0.00171555 0)
(9.78812e-05 -0.00229016 0)
(0.000851343 -0.00602213 0)
(0.00202717 -0.00885672 0)
(0.00350327 -0.0107585 0)
(0.00504899 -0.0117414 0)
(0.00651557 -0.0118681 0)
(0.00777234 -0.0112433 0)
(0.00872019 -0.0100015 0)
(0.00929032 -0.00829069 0)
(0.00943983 -0.00625721 0)
(0.0091452 -0.00403289 0)
(0.00839519 -0.00172529 0)
(0.00718364 0.000588502 0)
(0.00550292 0.0028647 0)
(0.00333848 0.00509273 0)
(0.000665001 0.00729236 0)
(-0.00255569 0.00950825 0)
(-0.00637461 0.0118025 0)
(-0.0108536 0.0142457 0)
(-0.0160615 0.0169072 0)
(-0.0220688 0.019847 0)
(-0.0289421 0.0231087 0)
(-0.036738 0.0267151 0)
(-0.0454979 0.0306673 0)
(-0.0552432 0.0349445 0)
(-0.0659713 0.0395061 0)
(-0.0776521 0.0442929 0)
(-0.0902263 0.0492297 0)
(-0.103604 0.0542273 0)
(-0.117667 0.059186 0)
(-0.132272 0.0639992 0)
(-0.147258 0.0685592 0)
(-0.162453 0.0727625 0)
(-0.177685 0.0765155 0)
(-0.192792 0.0797397 0)
(-0.207624 0.082374 0)
(-0.222056 0.0843773 0)
(-0.235985 0.0857274 0)
(-0.249333 0.0864194 0)
(-0.262043 0.0864633 0)
(-0.274078 0.0858808 0)
(-0.285418 0.0847016 0)
(-0.296055 0.0829612 0)
(-0.305988 0.0806977 0)
(-0.315225 0.0779506 0)
(-0.323774 0.0747587 0)
(-0.331649 0.0711595 0)
(-0.338864 0.0671885 0)
(-0.345434 0.0628787 0)
(-0.351372 0.0582603 0)
(-0.356693 0.053361 0)
(-0.361411 0.0482058 0)
(-0.365539 0.0428172 0)
(-0.369089 0.0372151 0)
(-0.372071 0.0314175 0)
(-0.374496 0.0254405 0)
(-0.376369 0.0192987 0)