/*--------------------------------*- C++ -*----------------------------------*\
| =========                 |                                                 |
| \\      /  F ield         | OpenFOAM: The Open Source CFD Toolbox           |
|  \\    /   O peration     | Version:  2406                                  |
|   \\  /    A nd           | Website:  www.openfoam.com                      |
|    \\/     M anipulation  |                                                 |
\*---------------------------------------------------------------------------*/
FoamFile
{
    version     2.0;
    format      ascii;
    arch        "LSB;label=32;scalar=64";
    class       volScalarField;
    location    "37.35";
    object      p;
}
// * * * * * * * * * * * * * * * * * * * * * * * * * * * * * * * * * * * * * //

dimensions      [0 2 -2 0 0 0 0];

internalField   nonuniform List<scalar> 
3600
(
0.0396917
0.0397244
0.0397054
0.0396793
0.0395955
0.0395046
0.0393788
0.0392545
0.0391089
0.0389595
0.0387849
0.0385906
0.0383598
0.0380938
0.037782
0.037425
0.0370181
0.0365644
0.0360673
0.0355379
0.0349938
0.034462
0.0339778
0.0335815
0.0333148
0.0332159
0.0333159
0.0336341
0.0341764
0.0349315
0.0358693
0.0369386
0.0380678
0.039167
0.0401338
0.040864
0.0412633
0.041264
0.0408354
0.0399971
0.0388131
0.0373907
0.0358521
0.0343265
0.0329136
0.0316923
0.0306923
0.0299277
0.0293698
0.0289974
0.0287566
0.0286258
0.0285523
0.028534
0.0285265
0.0285499
0.0285625
0.0286013
0.0286194
0.0286538
0.0396609
0.0396944
0.0396678
0.0396417
0.0395612
0.0394796
0.039365
0.0392535
0.0391208
0.0389848
0.0388247
0.0386471
0.0384364
0.0381943
0.0379103
0.0375841
0.0372091
0.0367862
0.0363172
0.0358121
0.0352854
0.0347588
0.0342612
0.0338284
0.0335026
0.0333254
0.0333345
0.0335556
0.0340007
0.0346629
0.035516
0.036511
0.0375785
0.0386293
0.0395617
0.0402712
0.040662
0.0406647
0.0402471
0.0394278
0.0382715
0.0368879
0.0354019
0.0339449
0.0326158
0.0314891
0.0305859
0.0299105
0.0294246
0.0291018
0.0288875
0.0287645
0.0286849
0.0286535
0.0286284
0.0286346
0.0286283
0.028652
0.0286539
0.0286885
0.0396723
0.0397154
0.0396857
0.0396565
0.0395698
0.0394848
0.0393703
0.0392629
0.0391381
0.0390116
0.0388625
0.0386954
0.0384949
0.0382608
0.0379813
0.0376528
0.0372664
0.0368188
0.0363068
0.035734
0.0351137
0.034473
0.0338515
0.0332965
0.0328589
0.0325854
0.0325159
0.0326767
0.0330803
0.0337191
0.0345666
0.0355735
0.0366701
0.0377665
0.0387598
0.039542
0.0400127
0.040095
0.0397483
0.0389834
0.0378596
0.0364861
0.0349931
0.0335218
0.0321828
0.0310607
0.0301825
0.0295524
0.029127
0.0288718
0.0287229
0.0286561
0.0286192
0.0286177
0.0286104
0.0286277
0.0286244
0.0286528
0.028653
0.0287014
0.0396896
0.0397354
0.0396983
0.0396617
0.0395688
0.0394833
0.0393755
0.03928
0.0391723
0.0390642
0.0389347
0.0387847
0.0385979
0.0383687
0.0380813
0.0377235
0.037279
0.0367366
0.0360931
0.0353594
0.0345612
0.0337356
0.0329301
0.0321964
0.0315887
0.0311554
0.0309382
0.0309645
0.0312483
0.0317843
0.0325498
0.0335
0.0345712
0.0356795
0.0367269
0.037607
0.038217
0.038472
0.0383181
0.0377499
0.0368108
0.0355974
0.0342346
0.032865
0.0316063
0.0305527
0.029739
0.0291752
0.0288191
0.0286349
0.0285543
0.0285486
0.028561
0.028596
0.028611
0.0286411
0.0286402
0.02867
0.028665
0.0287219
0.0397573
0.0398008
0.0397534
0.0397021
0.0395972
0.039503
0.0393952
0.0393036
0.0392049
0.0391039
0.0389784
0.0388211
0.0386108
0.0383302
0.0379541
0.0374587
0.0368258
0.0360488
0.0351385
0.0341196
0.0330338
0.0319309
0.0308696
0.0299069
0.0290988
0.0284916
0.0281242
0.028021
0.0281951
0.0286421
0.029343
0.0302593
0.031336
0.0324986
0.0336583
0.0347149
0.0355656
0.0361174
0.0362996
0.0360817
0.0354786
0.0345608
0.0334352
0.0322378
0.0310922
0.0301057
0.0293299
0.0287903
0.028457
0.028302
0.0282598
0.0283002
0.0283614
0.0284426
0.0284964
0.0285568
0.0285761
0.0286201
0.0286206
0.0286846
0.0398547
0.0398873
0.0398269
0.0397566
0.0396416
0.0395402
0.0394362
0.0393488
0.0392572
0.039154
0.0390144
0.0388159
0.0385278
0.0381154
0.037547
0.0367963
0.035857
0.0347371
0.0334682
0.0320924
0.0306668
0.0292485
0.0279001
0.0266768
0.0256327
0.0248098
0.0242445
0.0239582
0.0239638
0.0242584
0.0248289
0.025645
0.0266645
0.0278282
0.0290639
0.030286
0.0314018
0.0323181
0.0329525
0.0332478
0.0331822
0.0327833
0.03212
0.0313017
0.0304426
0.0296551
0.0290069
0.0285423
0.0282499
0.0281166
0.0280891
0.0281444
0.0282244
0.0283271
0.0284031
0.0284824
0.0285162
0.028568
0.0285724
0.0286345
0.0400097
0.040023
0.0399473
0.0398514
0.0397237
0.0396074
0.0394985
0.0393985
0.0392898
0.039146
0.0389362
0.038615
0.038141
0.0374659
0.036564
0.0354198
0.0340515
0.0324891
0.0307879
0.0290049
0.0272094
0.0254635
0.0238321
0.0223668
0.0211168
0.0201154
0.0193916
0.0189595
0.0188281
0.0189925
0.0194427
0.020155
0.0210996
0.022233
0.0235037
0.0248473
0.0261915
0.0274563
0.0285608
0.0294325
0.0300165
0.0302908
0.030269
0.0300096
0.0295942
0.0291252
0.0286823
0.028333
0.0280942
0.0279767
0.0279468
0.0279942
0.0280706
0.0281756
0.0282616
0.0283527
0.0284006
0.0284602
0.0284717
0.0285282
0.040221
0.0402058
0.0401161
0.0399925
0.0398552
0.0397206
0.0396
0.0394683
0.0393105
0.0390721
0.0387138
0.0381648
0.0373822
0.0363169
0.0349659
0.0333363
0.0314772
0.0294407
0.0273034
0.0251328
0.0230058
0.0209823
0.0191227
0.0174685
0.0160592
0.014917
0.0140621
0.0135004
0.0132367
0.0132634
0.0135725
0.0141454
0.0149623
0.0159942
0.0172092
0.0185665
0.0200201
0.0215151
0.0229904
0.0243796
0.025616
0.0266422
0.0274158
0.0279264
0.0281907
0.0282642
0.0282107
0.0281089
0.0280058
0.027946
0.0279277
0.0279617
0.0280176
0.0281019
0.0281752
0.0282574
0.0283044
0.02836
0.0283729
0.0284184
0.0404975
0.0404443
0.0403422
0.0401856
0.0400347
0.0398666
0.0397103
0.0395045
0.0392354
0.0388131
0.0381929
0.0372854
0.0360629
0.0344913
0.0326045
0.0304376
0.0280728
0.0255812
0.0230566
0.0205697
0.0181978
0.0159908
0.0139998
0.0122513
0.0107727
0.00957282
0.00866259
0.0080389
0.00770164
0.0076398
0.00784534
0.00830171
0.00899515
0.00990551
0.011015
0.0123008
0.0137408
0.0153072
0.0169682
0.0186833
0.0204019
0.0220633
0.0235978
0.0249385
0.0260267
0.0268366
0.027371
0.0276814
0.0278282
0.0278918
0.0279162
0.0279471
0.027981
0.0280363
0.0280859
0.028148
0.0281852
0.0282308
0.0282424
0.0282765
0.0408437
0.0407455
0.0406366
0.0404447
0.0402768
0.0400567
0.0398329
0.0394974
0.0390374
0.0383261
0.0373251
0.0359416
0.0341829
0.0320429
0.0295996
0.0269159
0.0241032
0.0212431
0.0184363
0.0157454
0.0132382
0.0109476
0.00891012
0.007136
0.0056414
0.00442387
0.00348811
0.0028251
0.00243252
0.0022974
0.00241252
0.00276254
0.0033374
0.00412169
0.00510541
0.00627609
0.00762648
0.00914811
0.0108345
0.0126742
0.0146482
0.0167219
0.0188382
0.0209165
0.0228519
0.0245372
0.0258792
0.0268419
0.027444
0.0277722
0.0279186
0.0279819
0.0280056
0.0280299
0.028047
0.028077
0.0280922
0.0281184
0.0281223
0.028145
0.0412376
0.0410883
0.0409754
0.0407396
0.0405396
0.0402329
0.0398886
0.0393445
0.0385932
0.0374779
0.0359849
0.0340359
0.0316888
0.0289718
0.0260077
0.0228806
0.0197216
0.0166098
0.0136408
0.0108587
0.00831603
0.00602531
0.00400955
0.0022646
0.000798699
-0.000398589
-0.00132588
-0.0019958
-0.0024112
-0.00258612
-0.00252676
-0.00224795
-0.00175775
-0.00106971
-0.000190522
0.000871323
0.00211497
0.00354101
0.00515704
0.00697168
0.00899368
0.0112226
0.0136391
0.0161916
0.0187843
0.0212783
0.0235035
0.0253078
0.0265986
0.0273964
0.0278016
0.0279677
0.0280111
0.028015
0.0280013
0.0279964
0.0279851
0.027989
0.0279823
0.0279966
0.041672
0.04147
0.0413568
0.041068
0.0408152
0.0403798
0.0398514
0.0390116
0.0378688
0.0362513
0.0341907
0.0316383
0.028711
0.0254699
0.0220752
0.0186193
0.0152381
0.0119937
0.00896652
0.00617593
0.0036577
0.00140576
-0.000566755
-0.00227405
-0.0037113
-0.00489308
-0.00581788
-0.00649948
-0.0069392
-0.00715086
-0.00713877
-0.00691698
-0.0064917
-0.00587559
-0.00507385
-0.00409409
-0.0029358
-0.00159656
-6.4986e-05
0.00167487
0.00364572
0.0058702
0.00836408
0.0111207
0.0140924
0.0171703
0.0201753
0.0228788
0.0250565
0.0265803
0.0274675
0.0278757
0.0280017
0.0280082
0.02797
0.0279298
0.0278888
0.0278675
0.0278473
0.0278552
0.0420818
0.041826
0.0417089
0.041349
0.0410093
0.0403899
0.0396024
0.0383784
0.0367569
0.03457
0.0319114
0.0287702
0.0253215
0.0216505
0.0179415
0.0142786
0.0107885
0.00750602
0.00449245
0.00174253
-0.000721042
-0.00291837
-0.00484095
-0.00650885
-0.00791713
-0.00908218
-0.0100008
-0.0106869
-0.01114
-0.0113735
-0.0113899
-0.0112028
-0.010817
-0.0102448
-0.00949084
-0.00856304
-0.00746162
-0.00618549
-0.00472468
-0.00306371
-0.00117753
0.000964992
0.00339898
0.00615219
0.00922968
0.0125853
0.0160958
0.0195403
0.022625
0.0250617
0.0266893
0.0275601
0.0278922
0.0279499
0.0279047
0.0278349
0.0277665
0.0277213
0.0276876
0.0276913
0.0424387
0.0421318
0.0420044
0.0415539
0.0410888
0.0402292
0.0391113
0.0374307
0.0352734
0.0324938
0.0292565
0.0255886
0.021715
0.0177301
0.0138252
0.0100609
0.00654541
0.00328246
0.000315524
-0.00238117
-0.00479234
-0.00694709
-0.00883704
-0.0104849
-0.0118832
-0.0130486
-0.013975
-0.0146762
-0.015149
-0.0154064
-0.0154491
-0.0152897
-0.0149318
-0.0143871
-0.0136598
-0.0127583
-0.0116841
-0.0104382
-0.00901451
-0.0074016
-0.0055789
-0.00351729
-0.00117794
0.00148207
0.00450236
0.00789411
0.011614
0.015515
0.0193328
0.0226991
0.0252685
0.026871
0.0276242
0.027831
0.0278122
0.0277228
0.0276298
0.0275616
0.0275146
0.0275136
0.042639
0.0422824
0.0421302
0.0415632
0.0409287
0.0397748
0.0382675
0.0360844
0.033373
0.0300223
0.0262683
0.0221688
0.0179837
0.0137996
0.00980023
0.006013
0.00252479
-0.000689744
-0.00359951
-0.00624496
-0.00861267
-0.0107366
-0.0126053
-0.0142426
-0.0156373
-0.0168062
-0.0177403
-0.0184532
-0.0189398
-0.0192128
-0.0192713
-0.0191278
-0.0187846
-0.0182531
-0.0175373
-0.0166455
-0.0155804
-0.0143447
-0.0129358
-0.0113468
-0.00956373
-0.0075639
-0.00531397
-0.00277051
0.000119381
0.00340116
0.0070978
0.0111537
0.0154025
0.0195092
0.0230407
0.0255892
0.0270342
0.0275789
0.0276508
0.0275637
0.0274518
0.0273607
0.0273013
0.0272933
0.0426473
0.0422447
0.0420518
0.0413462
0.0405042
0.039016
0.0370833
0.0343857
0.0311409
0.0272783
0.0230979
0.0186758
0.0142895
0.0100031
0.00598222
0.00221836
-0.00122057
-0.00438355
-0.00724564
-0.00985651
-0.0122004
-0.0143134
-0.0161796
-0.0178227
-0.0192277
-0.0204113
-0.0213617
-0.0220924
-0.0225965
-0.0228863
-0.0229599
-0.0228289
-0.0224952
-0.0219696
-0.0212558
-0.020362
-0.019292
-0.0180492
-0.0166343
-0.0150436
-0.0132697
-0.0112972
-0.00910217
-0.00664915
-0.00388766
-0.000761095
0.00279175
0.00678758
0.0111724
0.0157194
0.0200359
0.0235845
0.0259573
0.0271114
0.0274094
0.0273611
0.0272425
0.0271245
0.0270521
0.0270322
0.0423524
0.0419058
0.0416533
0.0407886
0.0397088
0.0378647
0.0354984
0.0323089
0.0285858
0.0242978
0.0197956
0.0151592
0.0106679
0.00635319
0.0023591
-0.00135657
-0.00473949
-0.00785559
-0.0106807
-0.0132694
-0.0156013
-0.0177127
-0.0195829
-0.0212356
-0.0226523
-0.0238494
-0.0248134
-0.0255575
-0.0260736
-0.0263739
-0.0264556
-0.02633
-0.0259989
-0.0254722
-0.0247543
-0.0238526
-0.0227722
-0.0215165
-0.0200886
-0.0184867
-0.0167086
-0.014744
-0.0125784
-0.0101862
-0.00752709
-0.0045491
-0.00117864
0.00264131
0.00694628
0.0116322
0.016438
0.0208338
0.024241
0.0262521
0.0270312
0.0270805
0.0269835
0.0268339
0.0267455
0.0267077
0.0417465
0.0412608
0.0409334
0.0399
0.0385675
0.0363688
0.0335886
0.0299586
0.0258349
0.0212204
0.0164996
0.0117434
0.00722034
0.0029255
-0.00101798
-0.00468018
-0.00801435
-0.0110973
-0.0139019
-0.0164845
-0.0188188
-0.0209411
-0.0228261
-0.0244969
-0.0259322
-0.0271486
-0.0281303
-0.0288907
-0.0294204
-0.0297315
-0.0298205
-0.0296984
-0.0293668
-0.0288353
-0.0281088
-0.0271941
-0.0260977
-0.0248227
-0.0233746
-0.0217522
-0.0199573
-0.0179831
-0.0158229
-0.0134593
-0.0108647
-0.00799868
-0.00479264
-0.00117772
0.00293457
0.00753987
0.0125312
0.0174958
0.0218448
0.024869
0.0264028
0.0267201
0.0266602
0.0264962
0.0263799
0.0263194
0.0407518
0.040231
0.0398164
0.0386123
0.0370274
0.0344964
0.0313453
0.0273466
0.0229125
0.018071
0.0132247
0.00842531
0.0039234
-0.000321117
-0.00420246
-0.00781146
-0.0111039
-0.0141627
-0.0169551
-0.019538
-0.0218793
-0.0240147
-0.0259147
-0.0276025
-0.0290543
-0.0302866
-0.0312823
-0.0320545
-0.0325933
-0.0329101
-0.0330017
-0.0328781
-0.0325419
-0.0320014
-0.0312633
-0.0303332
-0.0292196
-0.0279247
-0.0264568
-0.0248137
-0.0230013
-0.0210134
-0.0188495
-0.0164977
-0.0139413
-0.0111525
-0.00807575
-0.00464878
-0.000762976
0.00363745
0.0085769
0.0138057
0.0188448
0.0228865
0.0253495
0.026236
0.0262341
0.0260912
0.0259365
0.0258471
0.0394166
0.0388687
0.0383616
0.0369973
0.0351759
0.0323534
0.028891
0.0246062
0.0199528
0.0149756
0.0100802
0.00529384
0.000845601
-0.00333493
-0.00715473
-0.0107185
-0.0139809
-0.017027
-0.0198183
-0.0224105
-0.0247663
-0.0269208
-0.0288411
-0.0305503
-0.0320224
-0.0332738
-0.0342861
-0.035072
-0.0356211
-0.035944
-0.0360378
-0.0359116
-0.035569
-0.0350172
-0.0342648
-0.0333161
-0.0321826
-0.0308647
-0.0293743
-0.0277077
-0.0258748
-0.0238686
-0.0216939
-0.019341
-0.0168023
-0.01406
-0.0110734
-0.00779552
-0.00411934
3.30868e-05
0.00477837
0.0100109
0.0154457
0.0203169
0.0238004
0.0254839
0.0257256
0.025578
0.0254229
0.0252782
0.0377156
0.0371484
0.0365481
0.0350412
0.0330105
0.0299478
0.0262412
0.0217531
0.0169639
0.0119273
0.00704097
0.00230665
-0.00206846
-0.00617828
-0.00993851
-0.0134617
-0.0166995
-0.0197365
-0.0225287
-0.0251302
-0.0274995
-0.0296708
-0.0316088
-0.033336
-0.0348252
-0.0360919
-0.0371173
-0.037913
-0.0384689
-0.0387941
-0.0388868
-0.0387545
-0.0384029
-0.0378373
-0.0370691
-0.0361005
-0.0349468
-0.033606
-0.0320945
-0.0304061
-0.0285553
-0.0265329
-0.0243485
-0.0219922
-0.0194633
-0.0167502
-0.0138253
-0.0106586
-0.00715621
-0.00324402
0.00124451
0.00630401
0.0118626
0.0172719
0.0217394
0.0243005
0.0251227
0.0249144
0.0248226
0.024588
0.0357533
0.0351781
0.0344905
0.0328667
0.0306623
0.0274176
0.023536
0.018923
0.0140705
0.00903591
0.00420012
-0.000458191
-0.00475236
-0.00879268
-0.0125004
-0.0159908
-0.0192121
-0.0222465
-0.025045
-0.0276599
-0.0300464
-0.0322375
-0.0341963
-0.0359442
-0.0374531
-0.0387373
-0.039778
-0.040585
-0.0411489
-0.041477
-0.0415691
-0.0414305
-0.0410695
-0.0404889
-0.0397037
-0.0387137
-0.0375383
-0.036173
-0.0346391
-0.0329276
-0.0310583
-0.0290188
-0.0268244
-0.0244625
-0.0219388
-0.0192437
-0.0163606
-0.0132732
-0.00990552
-0.00620006
-0.00197655
0.00281988
0.00828526
0.0139519
0.0191925
0.0226662
0.0242925
0.0241321
0.0240846
0.0237754
0.0335447
0.032972
0.0322052
0.0304917
0.0281511
0.0247803
0.0207856
0.0161132
0.0112529
0.00626377
0.00150436
-0.00306478
-0.00727563
-0.011248
-0.0149068
-0.0183668
-0.0215724
-0.0246029
-0.0274056
-0.0300303
-0.0324302
-0.0346368
-0.0366123
-0.0383767
-0.0399015
-0.0411993
-0.0422517
-0.0430664
-0.0436354
-0.0439634
-0.0440526
-0.0439054
-0.0435336
-0.0429366
-0.0421342
-0.0411222
-0.0399259
-0.0385365
-0.036982
-0.0352487
-0.0333636
-0.0313095
-0.0291083
-0.0267432
-0.0242261
-0.0215462
-0.0186959
-0.0156676
-0.0124032
-0.00886605
-0.00488557
-0.000380148
0.00484929
0.010544
0.0162513
0.0206162
0.0230625
0.0232632
0.0231439
0.0228339
0.0312261
0.0306689
0.0298349
0.0280616
0.0256233
0.02218
0.018128
0.0134518
0.0086273
0.0037147
-0.000952977
-0.0054277
-0.00955819
-0.0134678
-0.0170845
-0.0205191
-0.0237138
-0.0267434
-0.0295529
-0.0321892
-0.0346046
-0.0368285
-0.0388227
-0.0406052
-0.0421479
-0.0434608
-0.0445268
-0.0453506
-0.0459262
-0.0462551
-0.0463426
-0.0461874
-0.0458056
-0.0451924
-0.0443733
-0.0433392
-0.0421223
-0.0407084
-0.0391335
-0.037378
-0.0354775
-0.0334087
-0.0312017
-0.028834
-0.0263246
-0.0236588
-0.0208368
-0.0178554
-0.0146714
-0.011269
-0.00749642
-0.00327504
0.0016503
0.0071951
0.0130856
0.0181926
0.0214031
0.0222641
0.0220007
0.0217471
0.0288247
0.0282934
0.0274035
0.025596
0.0230922
0.0196192
0.0155514
0.0109097
0.00614717
0.00132736
-0.00324399
-0.00762477
-0.0116793
-0.0155293
-0.0191062
-0.0225148
-0.0256968
-0.0287214
-0.0315334
-0.034176
-0.0366019
-0.0388374
-0.0408455
-0.042641
-0.0441972
-0.0455209
-0.0465968
-0.0474259
-0.0480056
-0.0483326
-0.0484169
-0.048252
-0.0478599
-0.04723
-0.0463949
-0.0453391
-0.0441032
-0.042666
-0.0410728
-0.0392968
-0.0373834
-0.0353019
-0.0330922
-0.0307241
-0.0282259
-0.0255761
-0.0227832
-0.0198441
-0.0167271
-0.0134352
-0.00983501
-0.00587469
-0.00126665
0.00400128
0.00986565
0.0154484
0.0193779
0.0209948
0.0206926
0.0204692
0.0264803
0.0259875
0.0250548
0.0232382
0.0206992
0.0172343
0.0131853
0.00860854
0.00392671
-0.000790339
-0.00526508
-0.00955553
-0.0135406
-0.0173368
-0.0208792
-0.0242652
-0.0274372
-0.0304585
-0.0332747
-0.0359246
-0.0383624
-0.0406107
-0.0426341
-0.0444436
-0.046015
-0.0473504
-0.048438
-0.0492738
-0.0498592
-0.0501858
-0.0502688
-0.0500956
-0.0496952
-0.0490498
-0.0482008
-0.0471244
-0.0458715
-0.0444119
-0.0428022
-0.0410062
-0.0390815
-0.0369874
-0.0347767
-0.0324088
-0.0299238
-0.0272912
-0.0245292
-0.0216304
-0.0185737
-0.0153758
-0.011919
-0.00819092
-0.00388404
0.00103284
0.00672847
0.0124902
0.0170733
0.019368
0.019276
0.0189824
0.0242063
0.0237608
0.0227957
0.0209877
0.0184338
0.0150012
0.0109903
0.00649269
0.00189594
-0.00271957
-0.00710461
-0.0113115
-0.0152338
-0.0189792
-0.0224883
-0.0258498
-0.0290086
-0.0320215
-0.0348365
-0.0374875
-0.0399313
-0.042186
-0.0442191
-0.0460369
-0.0476184
-0.0489608
-0.0500562
-0.0508947
-0.0514835
-0.0518069
-0.0518876
-0.0517049
-0.0512964
-0.0506356
-0.049774
-0.048678
-0.0474103
-0.0459298
-0.0443065
-0.042492
-0.0405591
-0.0384539
-0.0362449
-0.0338785
-0.03141
-0.028796
-0.0260682
-0.0232102
-0.0202124
-0.0170983
-0.013765
-0.0102401
-0.00620812
-0.0016687
0.00376056
0.00945228
0.0145573
0.0173952
0.0177536
0.0172892
0.0221284
0.0217408
0.0207556
0.018974
0.0164241
0.0130454
0.00908888
0.00468221
0.000173526
-0.00434241
-0.00864457
-0.0127751
-0.0166422
-0.0203422
-0.0238227
-0.0271624
-0.0303106
-0.0333164
-0.0361319
-0.0387849
-0.041236
-0.0434979
-0.045542
-0.0473688
-0.0489621
-0.0503123
-0.0514174
-0.0522601
-0.0528544
-0.0531765
-0.0532576
-0.0530673
-0.0526538
-0.0519797
-0.0511088
-0.0499952
-0.048716
-0.0472162
-0.0455822
-0.0437506
-0.0418117
-0.0396961
-0.037491
-0.0351262
-0.0326762
-0.030081
-0.02739
-0.0245726
-0.0216351
-0.0185981
-0.0153765
-0.0120283
-0.00824577
-0.00407621
0.00101921
0.00646642
0.0118914
0.0151405
0.0160604
0.0153945
0.0202313
0.0199079
0.0189115
0.0171657
0.0146289
0.0113125
0.00741339
0.00309595
-0.00133311
-0.00576
-0.00999154
-0.0140552
-0.0178744
-0.0215321
-0.0249847
-0.0283001
-0.0314339
-0.0344271
-0.0372375
-0.0398857
-0.042338
-0.0446001
-0.0466494
-0.0484788
-0.0500787
-0.0514314
-0.0525423
-0.0533851
-0.0539828
-0.0543009
-0.0543816
-0.0541825
-0.0537648
-0.0530773
-0.052199
-0.0510687
-0.0497805
-0.0482629
-0.0466211
-0.0447736
-0.0428318
-0.0407064
-0.0385077
-0.0361445
-0.0337153
-0.0311385
-0.0284871
-0.0257099
-0.0228351
-0.0198704
-0.0167551
-0.0135608
-0.010006
-0.00617924
-0.00145893
0.00363682
0.00915001
0.0126833
0.0141309
0.0133138
0.0186208
0.0183702
0.0173749
0.015677
0.0131642
0.00992047
0.00608432
0.00185746
-0.00249638
-0.00684133
-0.0110114
-0.0150164
-0.0187953
-0.0224163
-0.0258455
-0.0291397
-0.0322621
-0.0352446
-0.0380518
-0.0406967
-0.0431518
-0.0454153
-0.0474712
-0.0493043
-0.0509126
-0.052269
-0.0533881
-0.0542326
-0.0548365
-0.0551528
-0.0552366
-0.0550313
-0.0546132
-0.053915
-0.0530333
-0.0518888
-0.0505957
-0.0490621
-0.0474163
-0.0455541
-0.0436123
-0.0414775
-0.0392873
-0.036925
-0.0345181
-0.0319581
-0.029348
-0.026609
-0.0237991
-0.0209025
-0.0178909
-0.0148323
-0.0114876
-0.00796907
-0.00364165
0.00104483
0.00643364
0.0101212
0.0119803
0.0111039
0.0172476
0.0170732
0.0160875
0.0144421
0.0119556
0.00878387
0.00500523
0.000859533
-0.00343284
-0.00771002
-0.0118326
-0.0157893
-0.0195354
-0.0231227
-0.0265293
-0.0297996
-0.0329069
-0.0358731
-0.0386716
-0.0413062
-0.043758
-0.0460157
-0.0480725
-0.0499028
-0.0515146
-0.0528692
-0.0539929
-0.054835
-0.0554431
-0.0557548
-0.0558414
-0.0556284
-0.0552108
-0.0545016
-0.0536184
-0.0524599
-0.0511644
-0.0496155
-0.0479681
-0.0460915
-0.0441521
-0.0420073
-0.0398274
-0.0374642
-0.0350806
-0.0325347
-0.0299666
-0.0272624
-0.0245185
-0.0216849
-0.0187758
-0.0158371
-0.0126873
-0.00944129
-0.00550372
-0.00124889
0.00385459
0.00756697
0.00970598
0.00885609
0.0162021
0.0161098
0.0151472
0.0135646
0.0111128
0.00801862
0.00429979
0.000233645
-0.0040026
-0.00821958
-0.0123032
-0.0162197
-0.0199401
-0.0234995
-0.0268884
-0.0301388
-0.0332346
-0.0361873
-0.0389802
-0.0416067
-0.0440579
-0.0463117
-0.048372
-0.050201
-0.0518191
-0.0531736
-0.0543052
-0.0551468
-0.055763
-0.0560726
-0.0561662
-0.0559482
-0.0555359
-0.0548184
-0.0539385
-0.0527685
-0.051475
-0.0499124
-0.0482673
-0.0463769
-0.0444426
-0.0422872
-0.0401192
-0.0377529
-0.0353932
-0.0328575
-0.0303311
-0.0276567
-0.0249787
-0.0222019
-0.0193935
-0.0165609
-0.0135926
-0.0105852
-0.00701984
-0.00319404
0.00152103
0.00514061
0.00744391
0.00667624
0.0153995
0.0153888
0.0144587
0.0129426
0.0105267
0.00750676
0.00384119
-0.000155702
-0.00434916
-0.00851969
-0.0125777
-0.0164638
-0.0201658
-0.0237003
-0.0270723
-0.0303001
-0.0333811
-0.0363147
-0.0390966
-0.0417083
-0.0441534
-0.0463964
-0.0484549
-0.0502764
-0.0518967
-0.0532459
-0.0543824
-0.0552197
-0.0558424
-0.0561471
-0.0562476
-0.0560229
-0.0556168
-0.0548898
-0.0540149
-0.0528326
-0.0515431
-0.0499658
-0.0483249
-0.0464191
-0.0444913
-0.0423225
-0.0401669
-0.0377934
-0.0354567
-0.0329254
-0.030439
-0.0277872
-0.0251727
-0.0224443
-0.0197332
-0.016993
-0.0141928
-0.0113916
-0.00817141
-0.00475332
-0.00048026
0.00295083
0.00532113
0.00465984
0.0149242
0.0149961
0.0141142
0.0126764
0.0103078
0.00736863
0.00376172
-0.000164791
-0.00431675
-0.00844537
-0.0124834
-0.0163458
-0.0200358
-0.0235514
-0.026912
-0.0301222
-0.0331932
-0.0361119
-0.0388874
-0.0414879
-0.0439311
-0.0461666
-0.0482275
-0.0500444
-0.0516709
-0.0530175
-0.0541634
-0.054999
-0.0556331
-0.0559358
-0.0560483
-0.0558197
-0.0554252
-0.0546914
-0.0538266
-0.0526339
-0.051353
-0.0497619
-0.0481287
-0.046207
-0.0442881
-0.0421036
-0.0399611
-0.0375759
-0.0352614
-0.0327279
-0.0302788
-0.027641
-0.0250864
-0.0223961
-0.0197773
-0.0171151
-0.01447
-0.0118446
-0.00893866
-0.00589498
-0.00208246
0.00109022
0.00344222
0.00288845
0.0146536
0.014801
0.0139786
0.0126243
0.0103092
0.0074502
0.00390045
3.85591e-05
-0.00408002
-0.0081765
-0.0122048
-0.0160516
-0.019736
-0.0232351
-0.0265853
-0.0297751
-0.0328332
-0.0357314
-0.0384961
-0.0410789
-0.0435157
-0.0457372
-0.0477969
-0.0496035
-0.0512336
-0.0525728
-0.0537266
-0.0545567
-0.0552018
-0.0554993
-0.0556244
-0.0553895
-0.0550077
-0.0542648
-0.0534117
-0.0522062
-0.0509352
-0.0493274
-0.0477029
-0.0457612
-0.0438511
-0.0416454
-0.0395148
-0.0371107
-0.0348156
-0.0322704
-0.0298541
-0.0272185
-0.0247178
-0.0220522
-0.0195182
-0.0169171
-0.0144133
-0.0119333
-0.00930908
-0.0065981
-0.00324075
-0.000370067
0.00188685
0.00142792
0.0146786
0.0148951
0.0141494
0.0128934
0.0106511
0.00788392
0.00440471
0.000615524
-0.00346282
-0.00752556
-0.0115445
-0.0153796
-0.0190631
-0.0225519
-0.0258979
-0.0290738
-0.0321255
-0.0350091
-0.0377695
-0.0403402
-0.042777
-0.0449897
-0.0470544
-0.0488551
-0.050495
-0.0518309
-0.0529986
-0.0538268
-0.054489
-0.0547847
-0.0549287
-0.0546903
-0.0543272
-0.0535774
-0.0527415
-0.0515243
-0.050268
-0.048643
-0.0470306
-0.0450666
-0.0431673
-0.0409358
-0.0388171
-0.0363868
-0.0341087
-0.0315417
-0.0291536
-0.0265073
-0.0240536
-0.0213971
-0.0189394
-0.0163808
-0.0140044
-0.0116401
-0.00926624
-0.00684239
-0.00392046
-0.00137198
0.000722046
0.00033888
0.014833
0.0151029
0.0144465
0.0132967
0.0111428
0.00847376
0.00507332
0.00136005
-0.00267658
-0.00670751
-0.0107214
-0.0145487
-0.0182358
-0.0217154
-0.0250581
-0.028217
-0.0312602
-0.0341239
-0.0368767
-0.0394293
-0.0418634
-0.0440617
-0.0461296
-0.0479199
-0.049569
-0.0508976
-0.0520797
-0.0529026
-0.053583
-0.0538737
-0.0540379
-0.0537928
-0.0534501
-0.0526899
-0.0518726
-0.0506395
-0.0493987
-0.0477512
-0.046151
-0.0441578
-0.0422681
-0.040002
-0.0378923
-0.0354247
-0.033159
-0.0305564
-0.0281894
-0.0255157
-0.0230999
-0.0204332
-0.0180406
-0.0155024
-0.0132378
-0.010958
-0.00880373
-0.00661807
-0.00410119
-0.00187336
2.43174e-06
-0.000325366
0.0152328
0.0155416
0.0149901
0.0139627
0.0119264
0.00937521
0.00607752
0.00245801
-0.00151885
-0.00550706
-0.00950837
-0.0133267
-0.0170194
-0.0204952
-0.0238416
-0.0269915
-0.030035
-0.032887
-0.0356416
-0.0381838
-0.0406244
-0.0428155
-0.0448959
-0.046682
-0.0483491
-0.0496758
-0.0508807
-0.0517029
-0.0524095
-0.0526989
-0.052891
-0.0526421
-0.0523268
-0.0515577
-0.0507653
-0.0495163
-0.0482962
-0.0466243
-0.0450398
-0.0430133
-0.0411347
-0.038827
-0.0367257
-0.0342104
-0.0319537
-0.0293014
-0.0269495
-0.0242305
-0.0218435
-0.0191454
-0.0168065
-0.0142645
-0.0120968
-0.00986996
-0.00790695
-0.0059103
-0.00376264
-0.00183621
-0.000218254
-0.000508279
0.0156584
0.0159854
0.0155474
0.0146518
0.0127585
0.0103416
0.00716681
0.00365683
-0.000245655
-0.00418068
-0.00816387
-0.0119696
-0.015668
-0.0191382
-0.0224888
-0.0256262
-0.0286691
-0.0315042
-0.0342593
-0.036786
-0.039233
-0.0414125
-0.0435064
-0.0452849
-0.0469723
-0.0482942
-0.0495249
-0.0503433
-0.0510794
-0.0513642
-0.0515873
-0.0513304
-0.0510451
-0.0502622
-0.0494965
-0.0482253
-0.0470268
-0.0453226
-0.0437535
-0.0416835
-0.0398143
-0.0374524
-0.0353559
-0.0327775
-0.0305239
-0.0278031
-0.0254576
-0.0226711
-0.0203018
-0.0175469
-0.0152485
-0.0126743
-0.0105873
-0.00837896
-0.00657947
-0.00472012
-0.00289983
-0.00123806
0.00010264
-0.000161627
0.0162805
0.0166107
0.0162897
0.01554
0.0138222
0.0115681
0.00854961
0.00517797
0.00138012
-0.00247864
-0.00642521
-0.010209
-0.0139099
-0.0173777
-0.0207399
-0.0238743
-0.0269285
-0.0297579
-0.0325265
-0.0350484
-0.0375145
-0.0396921
-0.0418121
-0.0435913
-0.0453109
-0.0466351
-0.0479025
-0.0487231
-0.0494988
-0.0497833
-0.0500466
-0.0497846
-0.0495378
-0.0487421
-0.0480105
-0.0467163
-0.0455454
-0.0438056
-0.0422562
-0.0401367
-0.0382789
-0.0358534
-0.033761
-0.0311059
-0.0288516
-0.0260442
-0.0236982
-0.0208212
-0.0184596
-0.0156207
-0.0133504
-0.0107139
-0.00869284
-0.0064679
-0.004808
-0.0030354
-0.00150048
-5.47831e-05
0.00100985
0.000767481
0.0168124
0.0171299
0.01692
0.0163241
0.0148077
0.0127444
0.00991289
0.00671041
0.00304669
-0.00070804
-0.00459819
-0.00834316
-0.0120389
-0.0154961
-0.0188687
-0.0219951
-0.0250615
-0.027881
-0.0306651
-0.0331784
-0.0356674
-0.0378401
-0.0399912
-0.0417691
-0.0435269
-0.0448513
-0.0461621
-0.046982
-0.0478036
-0.0480842
-0.0483933
-0.048121
-0.0479172
-0.047102
-0.0464079
-0.0450818
-0.0439406
-0.0421542
-0.040625
-0.0384425
-0.0365948
-0.034089
-0.0319973
-0.0292452
-0.0269844
-0.0240661
-0.0217111
-0.0187154
-0.0163507
-0.0133959
-0.0111413
-0.00840758
-0.00643847
-0.00415758
-0.00261478
-0.00087442
0.000420011
0.00171273
0.00252572
0.00231122
0.0175211
0.0178203
0.0177033
0.0172652
0.0159702
0.0141305
0.0115227
0.00852761
0.00503846
0.00142446
-0.00237767
-0.00606238
-0.00974127
-0.0131858
-0.0165749
-0.0197036
-0.0227975
-0.0256215
-0.0284392
-0.0309583
-0.0334877
-0.0356685
-0.0378673
-0.0396547
-0.0414661
-0.0427997
-0.0441678
-0.0449942
-0.0458744
-0.046156
-0.0465224
-0.0462429
-0.0460923
-0.0452584
-0.0446107
-0.0432514
-0.0421473
-0.0403102
-0.0388069
-0.0365538
-0.0347196
-0.0321217
-0.0300312
-0.0271654
-0.0248952
-0.0218435
-0.0194731
-0.0163303
-0.0139532
-0.0108489
-0.00859935
-0.00573142
-0.00380342
-0.00142617
1.52569e-05
0.00177589
0.00286721
0.0040746
0.00467612
0.00450609
0.0180228
0.0182976
0.0182538
0.0179723
0.0169128
0.0153303
0.0129838
0.0102424
0.00697217
0.0035479
-0.000127695
-0.00371495
-0.00735586
-0.0107673
-0.0141675
-0.0172896
-0.0204143
-0.0232394
-0.0260979
-0.0286215
-0.0312009
-0.0333891
-0.0356464
-0.0374429
-0.0393193
-0.0406608
-0.0420974
-0.0429276
-0.0438767
-0.0441548
-0.0445876
-0.0442941
-0.0442044
-0.0433427
-0.0427476
-0.0413433
-0.040281
-0.0383786
-0.036904
-0.0345626
-0.0327429
-0.0300315
-0.0279409
-0.0249358
-0.0226526
-0.0194374
-0.0170457
-0.0137212
-0.0113245
-0.00803237
-0.00578093
-0.00273709
-0.000844089
0.00167568
0.00302678
0.00486781
0.00579171
0.00699566
0.0074429
0.00734607
0.0187333
0.0189862
0.0189867
0.0188433
0.0180119
0.0167066
0.014652
0.0122054
0.00919979
0.00601358
0.00250912
-0.000944083
-0.00452326
-0.00788975
-0.0113025
-0.0144265
-0.0176
-0.0204439
-0.0233673
-0.0259144
-0.0285679
-0.0307805
-0.0331184
-0.0349378
-0.0368989
-0.0382595
-0.039782
-0.0406244
-0.041658
-0.0419387
-0.0424517
-0.0421478
-0.0421313
-0.0412431
-0.0407115
-0.039261
-0.0382498
-0.0362776
-0.0348395
-0.0324014
-0.0306015
-0.0277635
-0.0256754
-0.0225117
-0.0202146
-0.0168097
-0.0143927
-0.0108526
-0.00843019
-0.00490948
-0.00265022
0.0006151
0.00247566
0.00518705
0.00644866
0.00842829
0.00920163
0.0104802
0.0108265
0.0108414
0.0191166
0.0193429
0.0193741
0.0193517
0.0187465
0.0177435
0.0160199
0.0139268
0.0112444
0.00836835
0.00509491
0.00183999
-0.00163678
-0.00491788
-0.00832864
-0.0114369
-0.0146636
-0.0175225
-0.0205252
-0.0230976
-0.0258435
-0.0280834
-0.0305211
-0.0323654
-0.0344298
-0.0358092
-0.0374351
-0.0382868
-0.0394205
-0.0396976
-0.0403047
-0.0399812
-0.0400501
-0.0391228
-0.0386654
-0.0371526
-0.0362017
-0.0341405
-0.0327464
-0.0301884
-0.0284143
-0.0254223
-0.0233406
-0.0199865
-0.0176778
-0.0140465
-0.0116056
-0.00780867
-0.00536286
-0.00156813
0.000693096
0.00422958
0.00604702
0.00900682
0.0101685
0.0123602
0.0129934
0.0144475
0.0147511
0.0149316
0.0198034
0.0200076
0.0200475
0.020106
0.0196853
0.0189693
0.0175837
0.0158757
0.0135585
0.0110461
0.00805634
0.00505041
0.00171292
-0.0014568
-0.00485876
-0.00795322
-0.011251
-0.0141436
-0.0172551
-0.0198767
-0.0227464
-0.0250357
-0.0276019
-0.0294892
-0.031682
-0.0330943
-0.0348451
-0.0357166
-0.0369692
-0.0372503
-0.0379679
-0.0376297
-0.0377985
-0.0368345
-0.0364641
-0.0348889
-0.0340097
-0.031856
-0.0305156
-0.0278305
-0.0260897
-0.0229312
-0.020861
-0.0172972
-0.0149792
-0.0110936