/*--------------------------------*- C++ -*----------------------------------*\
| =========                 |                                                 |
| \\      /  F ield         | OpenFOAM: The Open Source CFD Toolbox           |
|  \\    /   O peration     | Version:  2406                                  |
|   \\  /    A nd           | Website:  www.openfoam.com                      |
|    \\/     M anipulation  |                                                 |
\*---------------------------------------------------------------------------*/
FoamFile
{
    version     2.0;
    format      ascii;
    arch        "LSB;label=32;scalar=64";
    class       volScalarField;
    location    "49.2";
    object      p;
}
// * * * * * * * * * * * * * * * * * * * * * * * * * * * * * * * * * * * * * //

dimensions      [0 2 -2 0 0 0 0];

internalField   nonuniform List<scalar> 
3600
(
0.0413273
0.0413573
0.0413493
0.0413272
0.041262
0.0411814
0.0410787
0.0409705
0.04085
0.0407187
0.0405663
0.0403873
0.0401732
0.0399194
0.0396209
0.0392755
0.0388814
0.0384403
0.0379569
0.0374423
0.0369151
0.036404
0.0359458
0.0355826
0.0353575
0.0353088
0.0354662
0.0358465
0.0364512
0.0372633
0.0382449
0.039336
0.0404547
0.0415007
0.0423635
0.0429334
0.0431169
0.0428527
0.0421258
0.0409742
0.0394866
0.0377893
0.0360237
0.0343232
0.0327926
0.0314991
0.0304693
0.0296992
0.0291589
0.0288083
0.0285991
0.0284915
0.0284463
0.028443
0.0284565
0.0284864
0.0285135
0.0285531
0.0285795
0.0286129
0.0412983
0.0413293
0.0413136
0.0412916
0.0412298
0.0411589
0.0410676
0.0409721
0.0408636
0.0407446
0.0406052
0.0404418
0.0402467
0.0400163
0.0397455
0.0394309
0.0390686
0.038658
0.0382021
0.0377104
0.0371984
0.0366885
0.036211
0.0358048
0.0355139
0.035382
0.0354457
0.0357288
0.0362386
0.0369624
0.0378656
0.0388901
0.039955
0.0409608
0.0417963
0.0423507
0.0425284
0.0422662
0.0415472
0.0404095
0.0389436
0.0372798
0.0355635
0.0339314
0.0324874
0.0312934
0.0303662
0.0296898
0.0292237
0.0289224
0.0287376
0.0286348
0.0285809
0.0285624
0.0285573
0.0285691
0.0285773
0.0286018
0.0286123
0.028646
0.0413003
0.0413418
0.0413236
0.0412996
0.041233
0.0411612
0.0410724
0.0409841
0.0408859
0.0407787
0.0406513
0.0404994
0.0403147
0.0400927
0.0398263
0.0395093
0.0391351
0.0386989
0.038198
0.0376359
0.0370273
0.0364012
0.0357993
0.035271
0.0348681
0.034638
0.0346194
0.0348371
0.0352987
0.0359917
0.0368815
0.0379099
0.0389964
0.0400408
0.0409307
0.0415519
0.0418037
0.0416151
0.0409607
0.0398713
0.0384333
0.0367778
0.0350571
0.0334184
0.0319772
0.0308043
0.0299199
0.0293064
0.0289163
0.0286948
0.0285836
0.0285415
0.028532
0.0285429
0.0285544
0.0285754
0.0285854
0.0286126
0.0286209
0.0286682
0.0413108
0.0413564
0.041331
0.0413004
0.0412276
0.0411563
0.0410748
0.0410001
0.0409192
0.0408308
0.0407215
0.0405853
0.0404117
0.0401924
0.0399144
0.0395636
0.039124
0.0385835
0.0379396
0.0372045
0.0364049
0.035581
0.0347823
0.0340646
0.0334836
0.0330897
0.0329231
0.0330096
0.033358
0.0339581
0.0347783
0.0357654
0.0368443
0.0379203
0.0388845
0.0396231
0.0400305
0.0400254
0.0395676
0.0386704
0.0374051
0.0358926
0.0342831
0.0327288
0.0313547
0.0302426
0.0294213
0.0288775
0.028564
0.0284227
0.0283891
0.0284162
0.0284618
0.0285131
0.0285494
0.0285845
0.028598
0.028627
0.0286308
0.0286869
0.0413608
0.0414063
0.041371
0.0413279
0.0412443
0.0411686
0.0410905
0.0410251
0.0409566
0.0408789
0.0407747
0.0406321
0.0404335
0.0401604
0.0397881
0.0392927
0.0386552
0.0378706
0.0369494
0.0359198
0.0348247
0.0337181
0.0326594
0.0317084
0.0309206
0.0303439
0.0300155
0.0299595
0.0301847
0.0306832
0.0314288
0.0323758
0.0334589
0.0345939
0.0356813
0.0366124
0.0372796
0.0375909
0.0374858
0.0369502
0.0360257
0.0348083
0.0334327
0.0320481
0.0307875
0.0297466
0.0289703
0.0284597
0.0281786
0.0280763
0.0280903
0.0281716
0.0282719
0.0283731
0.0284498
0.0285156
0.0285487
0.0285908
0.0285996
0.0286626
0.0414407
0.0414775
0.041428
0.0413672
0.0412723
0.041192
0.0411181
0.0410598
0.0409977
0.0409184
0.040797
0.0406103
0.0403269
0.0399133
0.0393354
0.0385691
0.0376062
0.0364591
0.0351596
0.0337551
0.0323028
0.030865
0.0295048
0.0282819
0.0272498
0.0264528
0.0259245
0.0256863
0.0257465
0.0260993
0.0267245
0.0275864
0.0286331
0.0297966
0.030994
0.0321305
0.0331061
0.0338248
0.0342088
0.0342126
0.0338366
0.0331333
0.0322018
0.0311702
0.030168
0.0293017
0.028634
0.0281859
0.0279385
0.0278557
0.0278856
0.0279863
0.0281109
0.0282398
0.0283434
0.0284322
0.0284823
0.0285345
0.0285478
0.0286097
0.0415719
0.0415919
0.0415257
0.0414424
0.0413347
0.0412452
0.0411679
0.0411025
0.0410239
0.0409063
0.0407122
0.0403999
0.0399221
0.0392353
0.038309
0.037134
0.0357259
0.0341222
0.0323769
0.0305541
0.0287222
0.026949
0.0252976
0.0238237
0.0225738
0.0215843
0.0208812
0.0204799
0.0203854
0.0205922
0.0210845
0.0218356
0.0228078
0.0239516
0.0252058
0.0264984
0.027748
0.0288694
0.0297805
0.0304135
0.0307281
0.030722
0.0304371
0.0299545
0.029378
0.0288111
0.0283334
0.0279911
0.0277917
0.0277221
0.0277483
0.0278418
0.0279636
0.0280972
0.028212
0.0283145
0.0283786
0.0284396
0.0284592
0.0285157
0.0417559
0.0417495
0.0416656
0.0415567
0.041436
0.0413318
0.0412401
0.0411446
0.0410121
0.0407976
0.0404461
0.0398968
0.0390942
0.0379997
0.0366023
0.0349208
0.0330001
0.0309034
0.0287045
0.0264802
0.0243042
0.0222433
0.0203547
0.0186849
0.0172696
0.0161343
0.0152953
0.0147605
0.0145299
0.014597
0.0149482
0.0155639
0.0164178
0.0174772
0.0187026
0.0200471
0.0214568
0.0228703
0.0242213
0.0254421
0.0264709
0.0272606
0.0277896
0.0280683
0.0281402
0.0280729
0.027941
0.0278101
0.0277205
0.0276924
0.0277201
0.0277956
0.0278946
0.0280091
0.0281126
0.02821
0.0282749
0.0283348
0.0283564
0.0284025
0.0420059
0.041964
0.0418634
0.0417254
0.041588
0.0414554
0.0413248
0.0411575
0.0409079
0.0405066
0.0398821
0.0389635
0.0377037
0.0360868
0.0341354
0.0319019
0.0294617
0.0269004
0.0243057
0.021759
0.0193314
0.0170808
0.0150518
0.013277
0.0117784
0.0105694
0.00965644
0.00903988
0.00871541
0.00867432
0.00890421
0.00938933
0.0101111
0.0110483
0.0121776
0.0134732
0.0149065
0.0164453
0.0180513
0.0196795
0.0212765
0.0227824
0.0241354
0.0252801
0.0261795
0.0268252
0.0272417
0.0274819
0.0276084
0.0276815
0.0277378
0.0278027
0.0278739
0.0279575
0.0280349
0.0281129
0.028167
0.028218
0.0282373
0.028272
0.0423204
0.042235
0.0421207
0.0419504
0.0417889
0.0416067
0.0414
0.0411009
0.0406486
0.0399495
0.0389265
0.0375153
0.0356974
0.0334935
0.030966
0.0282013
0.0252999
0.0223612
0.0194761
0.0167197
0.0141507
0.0118112
0.00972972
0.00792355
0.00640215
0.0051687
0.00422226
0.00355827
0.00316962
0.00304667
0.00317795
0.00355024
0.00414941
0.00496089
0.00597063
0.00716563
0.00853441
0.0100664
0.0117504
0.0135711
0.0155038
0.0175092
0.019527
0.0214757
0.023258
0.0247782
0.0259663
0.0268034
0.0273271
0.0276196
0.0277678
0.0278499
0.0279013
0.0279509
0.0279928
0.0280397
0.0280714
0.0281048
0.0281163
0.0281397
0.0426923
0.0425579
0.0424325
0.0422227
0.0420207
0.0417543
0.0414168
0.0409059
0.0401479
0.0390338
0.0374993
0.0355066
0.0330812
0.0302872
0.0272265
0.0240119
0.0207584
0.0175653
0.0145142
0.0116636
0.00905361
0.00670781
0.00463899
0.00285164
0.00134585
0.000118197
-0.000836384
-0.00152481
-0.00195502
-0.00213644
-0.00207935
-0.00179504
-0.00129491
-0.00059009
0.000309909
0.00139798
0.00267079
0.00412919
0.00577813
0.00762448
0.00967263
0.0119165
0.0143288
0.0168486
0.0193727
0.0217582
0.0238448
0.025498
0.0266566
0.0273609
0.0277218
0.0278808
0.0279369
0.0279605
0.0279658
0.0279768
0.0279793
0.0279903
0.02799
0.0280045
0.0430987
0.0429128
0.0427778
0.0425179
0.0422512
0.041855
0.0413182
0.0405036
0.0393342
0.0377022
0.0355773
0.0329643
0.0299406
0.0266116
0.0231105
0.019563
0.0160829
0.0127559
0.00964386
0.00678344
0.00419519
0.00188613
-0.000142826
-0.0018957
-0.00337751
-0.00459475
-0.00555367
-0.00626143
-0.00672524
-0.00695339
-0.00695448
-0.00673799
-0.00631321
-0.00568918
-0.00487322
-0.00387029
-0.00268118
-0.00130169
0.00027871
0.00207646
0.00411229
0.00640578
0.00896577
0.011775
0.0147707
0.0178278
0.020756
0.0233281
0.0253442
0.0267133
0.0274886
0.0278416
0.0279537
0.0279705
0.0279442
0.0279191
0.027889
0.0278753
0.0278605
0.0278687
0.0434994
0.0432616
0.0431135
0.0427859
0.0424191
0.0418363
0.0410229
0.0398132
0.0381427
0.0359245
0.0331799
0.0299644
0.0264061
0.0226421
0.018822
0.0150674
0.0114772
0.00811307
0.00501355
0.00219357
-0.000342383
-0.0025991
-0.00458271
-0.00630154
-0.0077623
-0.0089721
-0.00993668
-0.0106624
-0.011155
-0.0114214
-0.0114684
-0.0113039
-0.0109353
-0.0103702
-0.00961462
-0.0086728
-0.00754542
-0.00622867
-0.00471238
-0.00297939
-0.00100486
0.00124169
0.0037913
0.00666427
0.00985088
0.0132854
0.0168188
0.0202117
0.0231675
0.025427
0.0268797
0.0276284
0.0278994
0.0279496
0.0279053
0.0278491
0.027787
0.0277493
0.0277191
0.0277232
0.0438395
0.0435516
0.0433829
0.0429655
0.0424573
0.0416277
0.0404628
0.0387814
0.0365502
0.0337215
0.0303781
0.0266253
0.0226323
0.0185522
0.0145339
0.0106802
0.00706548
0.00372446
0.000673909
-0.00208862
-0.00456918
-0.00677939
-0.00872812
-0.0104249
-0.0118761
-0.0130879
-0.0140648
-0.0148118
-0.0153333
-0.0156345
-0.0157206
-0.0155979
-0.015272
-0.0147492
-0.0140343
-0.0131313
-0.0120414
-0.0107623
-0.0092868
-0.00760134
-0.00568433
-0.00350578
-0.00102834
0.00178753
0.00497073
0.00851744
0.012355
0.0163082
0.0200809
0.0233071
0.0256732
0.0270855
0.0277062
0.027868
0.0278338
0.0277557
0.0276644
0.0276045
0.0275591
0.0275596
0.0440471
0.043711
0.0435081
0.0429743
0.0422802
0.0411469
0.0395694
0.0373678
0.0345575
0.031141
0.0272639
0.0230725
0.018762
0.0144837
0.0103711
0.0064987
0.002914
-0.000373105
-0.00336236
-0.00606783
-0.00850084
-0.0106758
-0.0126015
-0.014287
-0.015737
-0.0169569
-0.0179495
-0.0187187
-0.0192674
-0.0195999
-0.0197198
-0.0196319
-0.0193404
-0.0188503
-0.0181653
-0.0172888
-0.0162219
-0.014964
-0.0135106
-0.0118525
-0.00997422
-0.0078519
-0.00545228
-0.00273273
0.000352703
0.00384129
0.00773052
0.0119394
0.0162536
0.0203154
0.0236807
0.0260078
0.0272459
0.0276801
0.0277075
0.0276262
0.0275095
0.0274288
0.0273687
0.0273644
0.0440494
0.0436675
0.0434144
0.0427386
0.0418189
0.0403383
0.0383108
0.0355755
0.0322083
0.0282659
0.0239495
0.019432
0.0149177
0.0105406
0.0064095
0.00256771
-0.000961148
-0.00418673
-0.00711903
-0.00977852
-0.0121777
-0.0143313
-0.0162463
-0.0179307
-0.0193874
-0.0206208
-0.0216322
-0.0224248
-0.0230002
-0.0233618
-0.0235119
-0.0234542
-0.0231917
-0.022728
-0.0220659
-0.0212078
-0.0201549
-0.0189072
-0.017462
-0.0158139
-0.013953
-0.011863
-0.00951947
-0.00688643
-0.00391791
-0.000559637
0.00322968
0.00745153
0.0120009
0.0166195
0.020863
0.02422
0.0263418
0.0273066
0.0275022
0.0274499
0.0273162
0.0272131
0.0271383
0.0271253
0.0437719
0.0433461
0.0430253
0.0421855
0.0410103
0.0391581
0.0366725
0.0334257
0.0295591
0.0251798
0.0205323
0.0157998
0.0111803
0.00678037
0.00268091
-0.00110365
-0.0045679
-0.00773487
-0.0106192
-0.013244
-0.0156204
-0.017762
-0.0196735
-0.0213618
-0.0228282
-0.0240762
-0.0251062
-0.0259208
-0.0265206
-0.0269083
-0.0270853
-0.0270545
-0.0268176
-0.0263773
-0.0257353
-0.0248936
-0.0238525
-0.0226123
-0.0211712
-0.0195261
-0.0176711
-0.0155961
-0.0132855
-0.0107133
-0.00784317
-0.00462176
-0.000991497
0.00310106
0.00764421
0.0125113
0.0173608
0.0216593
0.0248271
0.0265943
0.0271866
0.0272046
0.0270798
0.0269488
0.0268574
0.0268304
0.0431604
0.0426936
0.0422907
0.0412735
0.0398284
0.0376039
0.0346815
0.0309762
0.0266926
0.021979
0.017108
0.012258
0.00760988
0.00323819
-0.000802178
-0.00452035
-0.00792267
-0.01104
-0.0138876
-0.0164886
-0.0188514
-0.0209884
-0.0229018
-0.0245976
-0.0260758
-0.0273393
-0.0283878
-0.0292233
-0.0298459
-0.0302576
-0.030459
-0.0304521
-0.0302381
-0.0298187
-0.0291948
-0.0283677
-0.0273373
-0.0261038
-0.0246657
-0.0230211
-0.0211666
-0.0190961
-0.0168011
-0.0142648
-0.0114632
-0.00835295
-0.00488013
-0.0009698
0.00342456
0.00829266
0.0134364
0.0184294
0.0226104
0.0253863
0.0266621
0.0268768
0.0267824
0.0266324
0.0265157
0.0264693
0.0421782
0.0416742
0.0411788
0.039981
0.0382678
0.0356926
0.0323794
0.0282893
0.0236829
0.0187376
0.0137396
0.00885087
0.00422915
-8.24587e-05
-0.00405039
-0.00770113
-0.0110471
-0.0141228
-0.0169416
-0.0195253
-0.0218793
-0.0240144
-0.0259312
-0.0276348
-0.0291241
-0.0304019
-0.0314671
-0.0323215
-0.0329644
-0.0333976
-0.0336208
-0.0336357
-0.0334425
-0.0330425
-0.032436
-0.0316236
-0.0306052
-0.0293803
-0.0279479
-0.0263062
-0.0244533
-0.0223852
-0.0200981
-0.0175818
-0.0148237
-0.0117923
-0.00844766
-0.00471478
-0.000524412
0.00419212
0.0093692
0.0147476
0.0197353
0.0235801
0.025758
0.0264531
0.0263912
0.0262592
0.0261012
0.026031
0.0408228
0.0402876
0.0396958
0.0383253
0.0363623
0.0334773
0.029837
0.025448
0.0206151
0.0155328
0.010488
0.00561939
0.00105991
-0.00317506
-0.0070674
-0.0106551
-0.0139522
-0.0169941
-0.0197905
-0.0223619
-0.0247104
-0.0268458
-0.028767
-0.0304788
-0.0319791
-0.0332707
-0.0343516
-0.0352237
-0.0358855
-0.0363383
-0.0365814
-0.036616
-0.0364416
-0.0360592
-0.0354686
-0.0346702
-0.0336636
-0.0324482
-0.0310233
-0.029387
-0.0275383
-0.0254739
-0.0231932
-0.0206893
-0.0179584
-0.0149792
-0.0117286
-0.00814217
-0.0041539
0.000345414
0.00538213
0.0108667
0.0163709
0.0211475
0.0243678
0.0258096
0.0259107
0.0257908
0.0256107
0.0254983
0.0391158
0.0385568
0.0378703
0.0363444
0.0341621
0.0310202
0.0271247
0.0225229
0.0175516
0.0124116
0.00738121
0.002573
-0.00190297
-0.00605382
-0.00987147
-0.0134006
-0.0166541
-0.0196663
-0.0224434
-0.0250039
-0.0273472
-0.0294826
-0.0314073
-0.0331261
-0.0346361
-0.0359399
-0.0370351
-0.0379231
-0.038602
-0.0390727
-0.0393338
-0.0393863
-0.0392291
-0.038863
-0.0382874
-0.0375027
-0.0365083
-0.0353037
-0.0338883
-0.0322604
-0.0304197
-0.0283628
-0.026091
-0.0235986
-0.0208881
-0.0179443
-0.0147599
-0.0112841
-0.00746849
-0.00319274
0.0016159
0.00700606
0.0127298
0.0181834
0.0224464
0.0247685
0.0253568
0.0251767
0.0250404
0.0248495
0.0371096
0.0365366
0.0357628
0.0341061
0.0317434
0.0284044
0.0243274
0.0195942
0.0145612
0.00942697
0.00445559
-0.000266315
-0.00464816
-0.00871387
-0.0124609
-0.0159369
-0.0191518
-0.0221382
-0.0248985
-0.0274494
-0.0297883
-0.0319238
-0.0338521
-0.0355777
-0.0370971
-0.0384128
-0.0395215
-0.0404246
-0.0411195
-0.0416068
-0.0418846
-0.0419534
-0.0418118
-0.0414603
-0.0408984
-0.040126
-0.0391431
-0.0379491
-0.036544
-0.0349259
-0.0330956
-0.0310492
-0.0287898
-0.0263111
-0.0236199
-0.0207037
-0.017568
-0.0141732
-0.0104943
-0.00641779
-0.00186033
0.00331679
0.00901863
0.0148675
0.0199868
0.0232753
0.0246187
0.0244257
0.0243475
0.024073
0.0348717
0.0342956
0.033445
0.0316858
0.0291844
0.0257069
0.0215159
0.0167201
0.0116855
0.00660239
0.00171817
-0.00290366
-0.00718806
-0.0111706
-0.0148509
-0.0182773
-0.0214562
-0.0244179
-0.0271613
-0.029702
-0.0320356
-0.0341701
-0.0361008
-0.0378321
-0.0393598
-0.0406861
-0.0418074
-0.0427244
-0.043434
-0.0439366
-0.0442296
-0.0443132
-0.0441859
-0.0438478
-0.0432983
-0.0425374
-0.0415655
-0.0403818
-0.0389874
-0.0373801
-0.0355622
-0.033529
-0.0312854
-0.0288236
-0.0261542
-0.0232638
-0.0201683
-0.0168348
-0.0132618
-0.00934974
-0.00502905
-0.000117177
0.00540422
0.0113825
0.0170788
0.0213447
0.023508
0.0235878
0.0234646
0.0231658
0.0324867
0.031919
0.031005
0.0291728
0.0265741
0.023013
0.0187672
0.0139658
0.00897533
0.00397537
-0.000804593
-0.00532029
-0.00950843
-0.0134119
-0.0170304
-0.0204113
-0.0235571
-0.0264958
-0.0292235
-0.0317546
-0.0340832
-0.0362169
-0.0381503
-0.0398873
-0.0414234
-0.0427602
-0.0438936
-0.044824
-0.0455477
-0.0460645
-0.0463717
-0.0464689
-0.0463545
-0.0460283
-0.0454899
-0.0447391
-0.0437769
-0.0426025
-0.0412182
-0.0396214
-0.0378164
-0.0357974
-0.033572
-0.0311299
-0.0284855
-0.0256226
-0.0225652
-0.0192822
-0.0157938
-0.0120135
-0.00790028
-0.00325913
0.00199594
0.00788654
0.0138914
0.0189857
0.0219588
0.0226409
0.0223657
0.0221131
0.0300388
0.0294913
0.0285272
0.0266493
0.0239901
0.0203913
0.0161368
0.0113709
0.00645414
0.00155465
-0.00311506
-0.00752552
-0.011622
-0.0154514
-0.0190124
-0.0223502
-0.0254641
-0.0283798
-0.0310913
-0.0336119
-0.0359345
-0.0380664
-0.0400015
-0.0417434
-0.043287
-0.0446334
-0.045778
-0.0467207
-0.0474574
-0.0479874
-0.0483075
-0.048417
-0.0483142
-0.0479986
-0.0474701
-0.0467282
-0.0457748
-0.0446086
-0.0432337
-0.0416469
-0.0398548
-0.0378503
-0.0356444
-0.0332239
-0.0306075
-0.0277746
-0.0247567
-0.0215202
-0.0181041
-0.0144306
-0.0104939
-0.00610259
-0.00114969
0.00450818
0.0105927
0.0162438
0.0200248
0.0214475
0.0210832
0.0208763
0.0276149
0.027099
0.0260982
0.0241994
0.021511
0.0179123
0.0136849
0.00898423
0.00416026
-0.000629657
-0.00518854
-0.00949775
-0.0135087
-0.0172697
-0.020778
-0.0240761
-0.0271606
-0.030055
-0.0327515
-0.0352625
-0.0375801
-0.0397109
-0.0416483
-0.0433956
-0.0449468
-0.046303
-0.0474587
-0.0484133
-0.0491624
-0.0497047
-0.0500369
-0.0501576
-0.0500652
-0.0497588
-0.0492388
-0.0485043
-0.0475582
-0.0463988
-0.045032
-0.0434537
-0.0416737
-0.039683
-0.0374967
-0.0350984
-0.032512
-0.0297115
-0.0267358
-0.0235458
-0.0201966
-0.0166135
-0.0128274
-0.00865578
-0.00400908
0.00134015
0.00731449
0.0132379
0.0177757
0.0198938
0.0196831
0.0194312
0.0252899
0.0248159
0.0237904
0.0218907
0.019197
0.0156253
0.0114479
0.00682859
0.00210399
-0.00257732
-0.00703194
-0.0112482
-0.0151818
-0.0188807
-0.0223406
-0.0256016
-0.0286578
-0.0315311
-0.0342126
-0.0367134
-0.0390253
-0.0411544
-0.0430934
-0.0448452
-0.0464034
-0.0477683
-0.0489342
-0.0498997
-0.0506602
-0.0512136
-0.0515565
-0.0516871
-0.0516039
-0.0513053
-0.0507926
-0.0500639
-0.0491238
-0.0479696
-0.0466097
-0.0450385
-0.0432694
-0.0412911
-0.0391239
-0.0367472
-0.0341918
-0.0314249
-0.0284939
-0.0253518
-0.0220684
-0.0185667
-0.0149119
-0.0109312
-0.0065757
-0.00156268
0.00415624
0.0101211
0.0152617
0.017977
0.0181875
0.0177752
0.0231321
0.0227098
0.0216712
0.019787
0.0171064
0.0135812
0.00946882
0.00493986
0.000315821
-0.0042612
-0.00861955
-0.0127514
-0.0166158
-0.0202591
-0.0236758
-0.0269033
-0.0299343
-0.0327888
-0.0354572
-0.0379496
-0.0402573
-0.0423858
-0.0443275
-0.0460846
-0.0476502
-0.0490241
-0.0502001
-0.0511762
-0.0519475
-0.0525113
-0.0528642
-0.0530036
-0.0529284
-0.0526363
-0.0521293
-0.0514049
-0.0504693
-0.0493184
-0.0479637
-0.0463974
-0.0446375
-0.0426696
-0.04052
-0.0381635
-0.0356386
-0.0329052
-0.0300207
-0.0269279
-0.0237111
-0.0202867
-0.0167508
-0.0129372
-0.00884942
-0.004173
0.00119489
0.00702788
0.0125332
0.0157516
0.0165243
0.0158975
0.0211925
0.0208304
0.0197885
0.0179319
0.0152759
0.011808
0.00776607
0.00332697
-0.0012037
-0.00568741
-0.00996231
-0.0140216
-0.0178266
-0.0214215
-0.0248002
-0.0279973
-0.0310049
-0.0338415
-0.0364971
-0.038981
-0.0412844
-0.0434117
-0.0453556
-0.0471171
-0.0486894
-0.0500712
-0.0512564
-0.052242
-0.0530229
-0.0535959
-0.0539574
-0.0541041
-0.0540355
-0.0537482
-0.0532456
-0.0525237
-0.051591
-0.0504414
-0.0490901
-0.0475265
-0.0457739
-0.0438137
-0.0416798
-0.039341
-0.0368451
-0.0341438
-0.0313059
-0.0282626
-0.0251139
-0.0217646
-0.0183401
-0.014676
-0.0108307
-0.00647721
-0.00151012
0.00406154
0.00967142
0.0132865
0.0146
0.0137967
0.019513
0.0192191
0.0181841
0.0163651
0.0137419
0.0103382
0.00636865
0.00201633
-0.00242902
-0.00683007
-0.0110331
-0.0150303
-0.018785
-0.0223385
-0.0256846
-0.0288557
-0.0318436
-0.0346654
-0.037311
-0.0397887
-0.0420897
-0.0442178
-0.0461651
-0.0479321
-0.0495118
-0.0509021
-0.0520965
-0.0530915
-0.0538818
-0.0544632
-0.0548326
-0.0549856
-0.0549226
-0.0546386
-0.0541389
-0.0534175
-0.0524859
-0.0513354
-0.0499854
-0.0484217
-0.0466739
-0.0447185
-0.0425975
-0.0402729
-0.0378037
-0.0351316
-0.032339
-0.029344
-0.0262635
-0.0229878
-0.0196702
-0.016142
-0.0125166
-0.00846482
-0.00391359
0.00130448
0.00679246
0.0106686
0.0124043
0.0115201
0.0181173
0.0178977
0.0168792
0.015105
0.0125187
0.00918049
0.00527935
0.00100514
-0.00336815
-0.00770161
-0.0118479
-0.0157962
-0.0195113
-0.0230313
-0.0263505
-0.0294994
-0.0324701
-0.0352785
-0.0379149
-0.0403868
-0.0426855
-0.0448138
-0.0467642
-0.0485361
-0.0501224
-0.0515201
-0.0527228
-0.0537259
-0.0545244
-0.0551129
-0.0554889
-0.0556466
-0.0555875
-0.0553051
-0.0548066
-0.0540836
-0.0531512
-0.0519972
-0.0506462
-0.0490795
-0.0473337
-0.0453793
-0.043268
-0.0409535
-0.0385073
-0.0358602
-0.0331101
-0.0301599
-0.0271463
-0.0239415
-0.0207273
-0.0173239
-0.0138989
-0.0101234
-0.00597977
-0.00117013
0.00402963
0.00801401
0.0100358
0.00916901
0.0170214
0.0168818
0.0158903
0.0141691
0.0116235
0.00835189
0.00451605
0.000312795
-0.00399893
-0.00827676
-0.0123783
-0.0162883
-0.0199726
-0.0234664
-0.0267647
-0.0298962
-0.0328539
-0.0356526
-0.0382832
-0.0407522
-0.0430511
-0.045182
-0.0471373
-0.0489155
-0.0505095
-0.0519155
-0.0531271
-0.0541385
-0.0549452
-0.0555403
-0.0559224
-0.0560837
-0.0560277
-0.0557452
-0.0552464
-0.0545198
-0.0535846
-0.0524243
-0.0510698
-0.0494964
-0.0477496
-0.0457918
-0.0436863
-0.0413768
-0.0389492
-0.0363214
-0.0336092
-0.0306988
-0.0277487
-0.02461
-0.0214951
-0.0182059
-0.0149644
-0.0114373
-0.00767891
-0.00329718
0.00150908
0.00545872
0.00765041
0.00687004
0.0162244
0.0161679
0.0152138
0.0135525
0.0110499
0.00784382
0.00406751
-7.44655e-05
-0.00433801
-0.00857507
-0.0126466
-0.0165313
-0.0201957
-0.0236714
-0.0269547
-0.0300729
-0.0330205
-0.0358113
-0.0384372
-0.0409039
-0.0432033
-0.0453367
-0.0472966
-0.0490807
-0.050682
-0.0520955
-0.053315
-0.0543337
-0.0551475
-0.0557479
-0.0561348
-0.0562981
-0.0562435
-0.0559589
-0.0554581
-0.0547252
-0.0537849
-0.0526152
-0.0512543
-0.0496705
-0.0479188
-0.0459529
-0.0438486
-0.0415382
-0.0391237
-0.0365082
-0.0338279
-0.0309498
-0.0280575
-0.0249779
-0.0219564
-0.0187702
-0.0156961
-0.0123886
-0.00898482
-0.00502172
-0.000664377
0.0031361
0.0054036
0.00474406
0.0157212
0.015749
0.0148448
0.0132532
0.0107991
0.0076607
0.00394269
-0.000142743
-0.00436564
-0.00857127
-0.0126225
-0.0164911
-0.0201436
-0.0236081
-0.0268823
-0.0299924
-0.0329344
-0.0357215
-0.0383466
-0.0408145
-0.0431177
-0.0452564
-0.0472234
-0.0490155
-0.0506258
-0.0520481
-0.0532768
-0.0543033
-0.0551248
-0.0557305
-0.0561221
-0.0562866
-0.0562329
-0.0559447
-0.0554404
-0.0546989
-0.0537514
-0.0525691
-0.0511987
-0.0496002
-0.0478397
-0.0458602
-0.0437518
-0.0414336
-0.0390256
-0.0364142
-0.0337583
-0.0309031
-0.0280608
-0.0250305
-0.0220942
-0.018998
-0.0160754
-0.0129582
-0.00987445
-0.00630085
-0.00241129
0.00116004
0.003423
0.00289227
0.0154903
0.0155997
0.014757
0.0132454
0.0108459
0.00777767
0.00411658
8.28446e-05
-0.00410802
-0.00829314
-0.012336
-0.0161998
-0.0198502
-0.0233112
-0.0265823
-0.0296883
-0.0326277
-0.0354131
-0.0380386
-0.0405086
-0.0428162
-0.0449606
-0.046935
-0.048735
-0.0503543
-0.0517851
-0.0530227
-0.0540564
-0.0548849
-0.0554947
-0.0558901
-0.0560542
-0.0559999
-0.0557059
-0.0551962
-0.0544434
-0.0534861
-0.0522874
-0.0509042
-0.0492861
-0.0475122
-0.0455129
-0.0433946
-0.0410607
-0.0386519
-0.0360348
-0.0333943
-0.0305507
-0.0277482
-0.0247546
-0.021893
-0.0188715
-0.0160838
-0.0131272
-0.0103276
-0.00710247
-0.00367452
-0.000380453
0.00180663
0.00139637
0.0155098
0.0156946
0.0149278
0.0135102
0.0111782
0.00818868
0.00459083
0.000611845
-0.00354689
-0.00771449
-0.0117538
-0.0156186
-0.0192729
-0.0227365
-0.0260099
-0.0291172
-0.0320589
-0.0348471
-0.0374777
-0.039954
-0.04227
-0.0444237
-0.0464091
-0.04822
-0.0498511
-0.0512926
-0.0525412
-0.0535835
-0.0544205
-0.0550349
-0.0554347
-0.0555982
-0.0555432
-0.0552421
-0.054726
-0.0539595
-0.0529902
-0.0517716
-0.0503723
-0.0487295
-0.0469376
-0.0449116
-0.042777
-0.0404186
-0.0380005
-0.0353668
-0.0327312
-0.0298859
-0.0271114
-0.0241393
-0.0213391
-0.0183745
-0.015704
-0.0128783
-0.0103272
-0.00740337
-0.00441441
-0.0014189
0.000630358
0.000323944
0.0157413
0.0159894
0.0153113
0.014002
0.0117527
0.00885259
0.00532585
0.00140636
-0.00271967
-0.00687289
-0.0109147
-0.0147881
-0.018454
-0.0219266
-0.0252076
-0.0283201
-0.0312669
-0.0340602
-0.0366974
-0.0391814
-0.0415071
-0.0436713
-0.0456687
-0.0474914
-0.0491353
-0.0505879
-0.0518481
-0.052899
-0.0537446
-0.0543632
-0.0547671
-0.0549286
-0.0548718
-0.0545616
-0.0540374
-0.053254
-0.0522702
-0.0510274
-0.049608
-0.047935
-0.0461195
-0.0440595
-0.0419013
-0.0395088
-0.0370721
-0.0344093
-0.0317669
-0.0289047
-0.0261442
-0.023176
-0.020422
-0.0174937
-0.0149216
-0.0121962
-0.00985947
-0.00718689
-0.00460407
-0.00190625
-4.46858e-05
-0.000266256
0.016151
0.016447
0.0158724
0.014689
0.0125471
0.00975532
0.00631795
0.0024729
-0.00160842
-0.00574
-0.00978098
-0.0136632
-0.017343
-0.0208289
-0.0241223
-0.0272453
-0.0302026
-0.0330064
-0.0356558
-0.0381528
-0.0404935
-0.0426731
-0.0446874
-0.0465262
-0.0481871
-0.0496545
-0.0509298
-0.0519919
-0.0528488
-0.053473
-0.0538827
-0.0540427
-0.0539849
-0.0536648
-0.053132
-0.0523297
-0.0513295
-0.0500589
-0.048616
-0.0469071
-0.0450628
-0.0429608
-0.0407716
-0.0383343
-0.0358688
-0.0331634
-0.0305014
-0.0276053
-0.0248435
-0.0218591
-0.0191341
-0.016219
-0.0137256
-0.0110692
-0.00891432
-0.00644189
-0.00422638
-0.00180683
-0.000167819
-0.000321651
0.0166885
0.0170122
0.0165516
0.015509
0.0135013
0.0108392
0.00751152
0.00375854
-0.000264414
-0.00436553
-0.00840223
-0.0122938
-0.0159908
-0.019494
-0.0228041
-0.0259411
-0.0289121
-0.031729
-0.034393
-0.0369052
-0.0392634
-0.0414607
-0.0434946
-0.0453517
-0.0470322
-0.0485161
-0.0498086
-0.050883
-0.0517527
-0.0523829
-0.0527991
-0.0529569
-0.0528979
-0.0525661
-0.0520234
-0.0511991
-0.05018
-0.0488769
-0.0474065
-0.0456552
-0.0437762
-0.0416236
-0.039395
-0.0369014
-0.0343962
-0.0316332
-0.0289375
-0.025989
-0.0232089
-0.0201862
-0.0174713
-0.0145443
-0.0121088
-0.00948913
-0.00748581
-0.00516209
-0.0032723
-0.0010958
0.000302465
0.000204448
0.0173187
0.0176511
0.0173126
0.0164272
0.0145888
0.0120865
0.00890091
0.00526898
0.00133164
-0.0027176
-0.00673436
-0.0106266
-0.0143372
-0.0178586
-0.0211888
-0.0243453
-0.0273363
-0.0301731
-0.0328589
-0.0353935
-0.0377765
-0.0399983
-0.0420588
-0.0439405
-0.0456469
-0.0471526
-0.0484679
-0.0495587
-0.0504457
-0.0510846
-0.0515106
-0.0516677
-0.0516095
-0.051266
-0.0507139
-0.049866
-0.0488269
-0.0474877
-0.0459868
-0.0441873
-0.0422682
-0.040056
-0.0377799
-0.0352179
-0.0326616
-0.029825
-0.0270808
-0.0240597
-0.0212433
-0.0181585
-0.0154337
-0.0124675
-0.0100688
-0.00745275
-0.00557299
-0.00334647
-0.00174067
0.00024154
0.00139743
0.00135108
0.0179893
0.0183122
0.0180922
0.0173734
0.0157352
0.0134234
0.0104127
0.0069332
0.00311072
-0.000861879
-0.00484107
-0.00872295
-0.0124425
-0.0159813
-0.0193337
-0.0225127
-0.0255276
-0.028388
-0.0311
-0.0336611
-0.0360736
-0.0383242
-0.0404162
-0.0423268
-0.0440639
-0.0455951
-0.0469375
-0.0480475
-0.0489551
-0.0496044
-0.0500424
-0.0501991
-0.0501426
-0.0497863
-0.0492245
-0.0483501
-0.047289
-0.0459091
-0.0443737
-0.0425188
-0.0405535
-0.0382721
-0.0359395
-0.0332959
-0.0306763
-0.0277488
-0.0249403
-0.0218251
-0.0189533
-0.0157807
-0.0130253
-0.00999107
-0.00760842
-0.00496177
-0.00318047
-0.00099964
0.000361488
0.0022095
0.00313583
0.00314689
0.0186801
0.0189834
0.0188702
0.0183262
0.0169199
0.0148365
0.0120447
0.00876027
0.00509645
0.00123898
-0.00267041
-0.00651963
-0.0102346
-0.0137857
-0.017161
-0.0203676
-0.0234142
-0.0263076
-0.0290558
-0.0316534
-0.034106
-0.0363953
-0.038529
-0.0404773
-0.0422545
-0.0438189
-0.0451963
-0.0463317
-0.0472666
-0.0479309
-0.0483861
-0.0485451
-0.0484941
-0.0481259
-0.0475563
-0.0466546
-0.0455716
-0.0441477
-0.0425758
-0.0406598
-0.0386433
-0.0362835
-0.0338864
-0.0311478
-0.0284529
-0.0254168
-0.0225278
-0.0192958
-0.0163491
-0.0130619
-0.0102548
-0.00712245
-0.00473565
-0.00202368
-0.000319177
0.00186739
0.00301844
0.00480166
0.00552142
0.00560704
0.0193438
0.0196209
0.0195894
0.0192159
0.0180575
0.0162354
0.0137026
0.0106568
0.00719645
0.00349758
-0.000305405
-0.00409362
-0.00778596
-0.0113395
-0.014735
-0.0179707
-0.0210538
-0.0239861
-0.0267783
-0.0294198
-0.031921
-0.0342567
-0.0364408
-0.0384339
-0.0402595
-0.0418633
-0.0432831
-0.0444487
-0.0454168
-0.0460993
-0.0465761
-0.046739
-0.0466961
-0.0463158
-0.0457394
-0.0448079
-0.0437021
-0.0422297
-0.0406181
-0.0386336
-0.0365603
-0.0341114
-0.0316408
-0.0287928
-0.0260098
-0.0228458
-0.0198597
-0.016487
-0.0134456
-0.0100155
-0.00713581
-0.00387442
-0.00146466
0.00134788
0.00299322
0.00523692
0.00620559
0.00800092
0.00854161
0.00873171
0.0199878
0.0202396
0.0202651
0.0200518
0.0191508
0.0176236
0.0153972
0.0126428
0.00944443
0.00596043
0.0023159
-0.00137063
-0.00501155
-0.00855182
-0.0119626
-0.0152307
-0.0183596
-0.0213432
-0.0241939
-0.0268942
-0.0294597
-0.0318558
-0.0341051
-0.0361558
-0.0380429
-0.0396967
-0.0411704
-0.0423748
-0.0433857
-0.0440927
-0.0445989
-0.0447699
-0.044741
-0.0443506
-0.0437713
-0.0428102
-0.0416834
-0.04016
-0.0385082
-0.0364499
-0.0343162
-0.0317692
-0.0292179
-0.0262468
-0.0233643
-0.0200536
-0.0169545
-0.0134168
-0.0102614
-0.00666002
-0.00368775
-0.000265741
0.00218382
0.00513259
0.00673186
0.00908438
0.0098897
0.0117799
0.0121666
0.0125052
0.0205641
0.0207873
0.0208444
0.0207624
0.0201068
0.0188918
0.017008
0.0145962
0.0117174
0.00851099
0.00508347
0.00155013
-0.00200153
-0.00550299
-0.00891706
-0.0122143
-0.0153941
-0.0184374
-0.0213596
-0.0241311
-0.0267757
-0.029245
-0.031574
-0.0336936
-0.0356555
-0.0373689
-0.0389077
-0.0401582
-0.0412211
-0.0419577
-0.0425003
-0.0426823
-0.0426723
-0.0422726
-0.0416934
-0.0407007
-0.0395538
-0.0379751
-0.0362814
-0.034142
-0.0319435
-0.0292875
-0.0266475
-0.023538
-0.0205441
-0.0170663
-0.0138383
-0.0101104
-0.00682216
-0.00302012
6.33665e-05
0.00367806
0.00618186
0.00930325
0.0108649
0.0133791
0.0140307
0.0161046
0.0163542
0.0169
0.0211174
0.0213143
0.0213901
0.0214072
0.0209784
0.0200822
0.0185775
0.0165623
0.0140712
0.0112135
0.00807437
0.0047555
0.00134166
-0.00208961
-0.00549119
-0.00881552
-0.0120549
-0.015173
-0.0181867
-0.0210501
-0.0237965
-0.0263594
-0.0287894
-0.0309956
-0.0330508
-0.0348382
-0.036458
-0.0377658
-0.0388939
-0.0396685
-0.0402581
-0.0404568
-0.0404742
-0.0400683
-0.0394956
-0.0384724
-0.0373096
-0.0356739
-0.0339405
-0.0317153
-0.0294511
-0.0266777
-0.0239446
-0.0206837
-0.0175697