/*--------------------------------*- C++ -*----------------------------------*\
| =========                 |                                                 |
| \\      /  F ield         | OpenFOAM: The Open Source CFD Toolbox           |
|  \\    /   O peration     | Version:  2406                                  |
|   \\  /    A nd           | Website:  www.openfoam.com                      |
|    \\/     M anipulation  |                                                 |
\*---------------------------------------------------------------------------*/
FoamFile
{
    version     2.0;
    format      ascii;
    arch        "LSB;label=32;scalar=64";
    class       volVectorField;
    location    "26.65";
    object      Uold;
}
// * * * * * * * * * * * * * * * * * * * * * * * * * * * * * * * * * * * * * //

dimensions      [0 1 -1 0 0 0 0];

internalField   nonuniform List<vector> 
14400
(
(-1.13277e-05 1.1272e-05 0)
(7.75242e-06 -1.14423e-05 0)
(9.5237e-05 -3.37382e-05 0)
(0.000235137 -5.22021e-05 0)
(0.000418546 -6.22306e-05 0)
(0.00062111 -6.73489e-05 0)
(0.000834275 -6.72883e-05 0)
(0.00104148 -6.43052e-05 0)
(0.00123764 -5.86823e-05 0)
(0.0014137 -5.18023e-05 0)
(0.00156804 -4.4063e-05 0)
(0.00169733 -3.6324e-05 0)
(0.00180273 -2.8897e-05 0)
(0.00188464 -2.22446e-05 0)
(0.00194583 -1.64964e-05 0)
(0.00198853 -1.17992e-05 0)
(0.00201586 -8.09208e-06 0)
(0.00203021 -5.28891e-06 0)
(0.00203394 -3.18066e-06 0)
(0.00202845 -1.53696e-06 0)
(0.00201456 -7.00836e-08 0)
(0.00199207 1.50362e-06 0)
(0.00195996 3.47194e-06 0)
(0.0019163 6.08985e-06 0)
(0.00185844 9.58117e-06 0)
(0.00178303 1.41224e-05 0)
(0.00168623 1.985e-05 0)
(0.00156378 2.68612e-05 0)
(0.00141114 3.52267e-05 0)
(0.00122356 4.49994e-05 0)
(0.000996143 5.62243e-05 0)
(0.000723883 6.89426e-05 0)
(0.00040169 8.31928e-05 0)
(2.44471e-05 9.9006e-05 0)
(-0.000412939 0.000116399 0)
(-0.000915448 0.000135367 0)
(-0.00148784 0.000155869 0)
(-0.00213451 0.000177829 0)
(-0.00285934 0.00020112 0)
(-0.00366551 0.000225565 0)
(-0.00455535 0.000250932 0)
(-0.00553011 0.000276932 0)
(-0.00658981 0.000303219 0)
(-0.00773308 0.000329397 0)
(-0.00895697 0.000355013 0)
(-0.0102568 0.000379575 0)
(-0.0116263 0.00040255 0)
(-0.0130571 0.000423375 0)
(-0.0145392 0.000441468 0)
(-0.0160604 0.000456234 0)
(-0.0176071 0.00046708 0)
(-0.0191638 0.000473419 0)
(-0.0207132 0.000474686 0)
(-0.022237 0.000470344 0)
(-0.0237154 0.000459896 0)
(-0.0251275 0.000442897 0)
(-0.0264519 0.000418964 0)
(-0.0276666 0.000387791 0)
(-0.0287495 0.000349164 0)
(-0.0296786 0.000302979 0)
(-0.0304327 0.000249263 0)
(-0.0309913 0.000188194 0)
(-0.0313357 0.000120121 0)
(-0.0314488 4.55882e-05 0)
(-0.0313161 -3.46446e-05 0)
(-0.030926 -0.00011959 0)
(-0.0302704 -0.000208022 0)
(-0.0293453 -0.000298477 0)
(-0.0281511 -0.000389264 0)
(-0.026693 -0.000478489 0)
(-0.0249817 -0.000564098 0)
(-0.0230332 -0.000643928 0)
(-0.0208693 -0.000715786 0)
(-0.0185171 -0.000777527 0)
(-0.0160089 -0.000827156 0)
(-0.0133816 -0.00086293 0)
(-0.0106761 -0.000883461 0)
(-0.00793608 -0.00088781 0)
(-0.00520705 -0.000875565 0)
(-0.00253485 -0.000846898 0)
(3.5752e-05 -0.000802587 0)
(0.00246249 -0.000744006 0)
(0.00470707 -0.000673074 0)
(0.00673649 -0.000592164 0)
(0.00852412 -0.000503991 0)
(0.0100505 -0.000411465 0)
(0.011304 -0.000317538 0)
(0.0122807 -0.000225051 0)
(0.0129843 -0.000136592 0)
(0.0134257 -5.43804e-05 0)
(0.0136218 1.98169e-05 0)
(0.0135946 8.47311e-05 0)
(0.01337 0.000139604 0)
(0.0129764 0.000184159 0)
(0.0124432 0.000218557 0)
(0.0117999 0.000243319 0)
(0.011075 0.000259249 0)
(0.0102947 0.000267345 0)
(0.009483 0.000268729 0)
(0.0086605 0.000264553 0)
(0.00784467 0.000255971 0)
(0.00704975 0.00024405 0)
(0.00628657 0.000229791 0)
(0.00556329 0.000214041 0)
(0.00488499 0.00019758 0)
(0.00425494 0.000180992 0)
(0.00367368 0.000164857 0)
(0.00314109 0.000149498 0)
(0.00265441 0.000135348 0)
(0.00221175 0.00012243 0)
(0.00180833 0.000111038 0)
(0.00144261 0.000100705 0)
(0.00110953 9.15194e-05 0)
(0.000811018 8.20892e-05 0)
(0.00054449 7.2259e-05 0)
(0.000319351 5.90838e-05 0)
(0.000138624 4.28733e-05 0)
(1.97147e-05 1.95687e-05 0)
(-3.24939e-05 -3.577e-06 0)
(-2.05196e-05 -2.01739e-05 0)
(1.08207e-05 -7.41501e-06 0)
(0.000125442 -0.000126896 0)
(0.000378203 -0.000238762 0)
(0.000731518 -0.000331718 0)
(0.00117304 -0.000388876 0)
(0.00165694 -0.00041893 0)
(0.00216341 -0.00042193 0)
(0.00265855 -0.000405899 0)
(0.00312764 -0.000374072 0)
(0.00355089 -0.000332545 0)
(0.00392137 -0.00028478 0)
(0.004231 -0.000235028 0)
(0.00447966 -0.000185839 0)
(0.00466719 -0.000139651 0)
(0.00479774 -9.76786e-05 0)
(0.00487509 -6.07066e-05 0)
(0.0049046 -2.86348e-05 0)
(0.00489047 -9.21641e-07 0)
(0.00483651 2.35556e-05 0)
(0.00474461 4.62137e-05 0)
(0.00461513 6.87525e-05 0)
(0.00444612 9.2946e-05 0)
(0.00423365 0.000120576 0)
(0.00397161 0.000153285 0)
(0.00365205 0.00019253 0)
(0.00326536 0.000239506 0)
(0.00280064 0.000295157 0)
(0.00224598 0.000360177 0)
(0.00158876 0.000435055 0)
(0.000815927 0.000520117 0)
(-8.5772e-05 0.000615558 0)
(-0.00112959 0.000721463 0)
(-0.00232854 0.000837797 0)
(-0.00369518 0.000964381 0)
(-0.00524131 0.00110085 0)
(-0.00697762 0.0012466 0)
(-0.00891331 0.00140074 0)
(-0.0110557 0.00156206 0)
(-0.0134096 0.00172899 0)
(-0.0159772 0.00189961 0)
(-0.0187571 0.0020716 0)
(-0.0217444 0.00224234 0)
(-0.0249301 0.00240885 0)
(-0.0283009 0.0025679 0)
(-0.031839 0.00271606 0)
(-0.035522 0.00284972 0)
(-0.0393232 0.00296523 0)
(-0.0432114 0.00305895 0)
(-0.0471518 0.00312733 0)
(-0.0511058 0.00316701 0)
(-0.0550317 0.00317487 0)
(-0.0588856 0.00314813 0)
(-0.0626217 0.00308437 0)
(-0.0661929 0.00298163 0)
(-0.0695519 0.00283843 0)
(-0.0726515 0.00265383 0)
(-0.0754457 0.00242742 0)
(-0.0778899 0.00215944 0)
(-0.0799419 0.00185075 0)
(-0.0815625 0.00150286 0)
(-0.0827161 0.00111803 0)
(-0.0833711 0.000699228 0)
(-0.0835009 0.000250228 0)
(-0.0830842 -0.000224404 0)
(-0.0821057 -0.000719273 0)
(-0.0805565 -0.00122815 0)
(-0.0784347 -0.00174401 0)
(-0.0757461 -0.00225906 0)
(-0.0725041 -0.0027648 0)
(-0.0687307 -0.00325221 0)
(-0.064456 -0.00371184 0)
(-0.0597188 -0.00413411 0)
(-0.0545664 -0.00450949 0)
(-0.0490541 -0.00482886 0)
(-0.043245 -0.00508381 0)
(-0.0372089 -0.00526706 0)
(-0.0310215 -0.00537274 0)
(-0.0247627 -0.0053968 0)
(-0.0185159 -0.00533727 0)
(-0.012365 -0.0051945 0)
(-0.00639362 -0.00497129 0)
(-0.000682137 -0.00467294 0)
(0.00469398 -0.00430712 0)
(0.0096664 -0.00388365 0)
(0.0141759 -0.00341417 0)
(0.0181739 -0.00291164 0)
(0.0216241 -0.00238983 0)
(0.0245033 -0.0018627 0)
(0.0268018 -0.00134379 0)
(0.0285237 -0.000845673 0)
(0.029686 -0.000379419 0)
(0.0303175 4.58028e-05 0)
(0.0304578 0.000423004 0)
(0.0301548 0.000747514 0)
(0.0294627 0.00101699 0)
(0.0284401 0.00123127 0)
(0.0271467 0.00139215 0)
(0.0256424 0.00150303 0)
(0.023984 0.0015686 0)
(0.0222245 0.00159437 0)
(0.0204114 0.00158636 0)
(0.0185861 0.00155069 0)
(0.0167832 0.00149343 0)
(0.0150306 0.00142017 0)
(0.0133496 0.00133614 0)
(0.0117556 0.00124578 0)
(0.0102579 0.00115314 0)
(0.00886229 0.00106122 0)
(0.00756867 0.000972779 0)
(0.00637679 0.000889032 0)
(0.00528081 0.000811245 0)
(0.00427948 0.000738009 0)
(0.00336581 0.000668639 0)
(0.00254442 0.000597702 0)
(0.00181264 0.000522746 0)
(0.0011882 0.000433307 0)
(0.000675539 0.000329634 0)
(0.000304951 0.000200631 0)
(7.54706e-05 7.29242e-05 0)
(-3.52949e-06 -3.23534e-05 0)
(3.19994e-05 -9.27094e-05 0)
(0.000233867 -0.000378629 0)
(0.000630161 -0.000636258 0)
(0.00115222 -0.000844809 0)
(0.00178684 -0.000978339 0)
(0.00247228 -0.00104725 0)
(0.0031833 -0.00105417 0)
(0.00387491 -0.00101346 0)
(0.00452645 -0.000934258 0)
(0.0051109 -0.000829258 0)
(0.00561719 -0.000707618 0)
(0.00603334 -0.000578787 0)
(0.00635723 -0.000449426 0)
(0.00658718 -0.000325125 0)
(0.00672679 -0.000209138 0)
(0.00677952 -0.000103262 0)
(0.0067506 -7.42121e-06 0)
(0.00664384 7.97689e-05 0)
(0.00646231 0.000161001 0)
(0.00620647 0.000239824 0)
(0.00587447 0.000320443 0)
(0.00546125 0.000407325 0)
(0.00495887 0.000504943 0)
(0.00435629 0.00061747 0)
(0.00363985 0.000748596 0)
(0.00279358 0.000901378 0)
(0.0017997 0.0010782 0)
(0.00063912 0.00128078 0)
(-0.000708043 0.00151024 0)
(-0.00226199 0.00176718 0)
(-0.00404275 0.00205171 0)
(-0.00606973 0.00236351 0)
(-0.00836121 0.00270177 0)
(-0.0109338 0.00306512 0)
(-0.0138018 0.00345154 0)
(-0.0169766 0.00385823 0)
(-0.0204659 0.00428152 0)
(-0.024273 0.00471682 0)
(-0.0283962 0.00515859 0)
(-0.032828 0.00560036 0)
(-0.0375547 0.0060348 0)
(-0.042556 0.00645384 0)
(-0.047805 0.00684883 0)
(-0.0532679 0.00721074 0)
(-0.0589045 0.00753036 0)
(-0.0646687 0.00779859 0)
(-0.070509 0.00800662 0)
(-0.0763695 0.00814621 0)
(-0.0821909 0.00820989 0)
(-0.0879116 0.00819113 0)
(-0.0934685 0.00808453 0)
(-0.0987984 0.00788591 0)
(-0.103839 0.00759239 0)
(-0.108531 0.00720241 0)
(-0.112815 0.00671579 0)
(-0.116637 0.00613368 0)
(-0.119948 0.00545854 0)
(-0.122701 0.00469415 0)
(-0.124857 0.00384554 0)
(-0.126379 0.00291898 0)
(-0.127239 0.00192202 0)
(-0.127412 0.000863411 0)
(-0.126881 -0.000246822 0)
(-0.125634 -0.00139741 0)
(-0.123668 -0.00257583 0)
(-0.120983 -0.00376833 0)
(-0.11759 -0.00495995 0)
(-0.113504 -0.00613466 0)
(-0.10875 -0.00727544 0)
(-0.10336 -0.00836451 0)
(-0.0973731 -0.00938362 0)
(-0.0908369 -0.0103144 0)
(-0.0838071 -0.0111386 0)
(-0.0763472 -0.011839 0)
(-0.0685278 -0.0123997 0)
(-0.0604268 -0.0128065 0)
(-0.0521279 -0.0130481 0)
(-0.0437198 -0.0131162 0)
(-0.0352952 -0.0130062 0)
(-0.0269489 -0.0127177 0)
(-0.0187763 -0.012255 0)
(-0.0108714 -0.0116267 0)
(-0.0033247 -0.0108464 0)
(0.00377877 -0.00993166 0)
(0.0103616 -0.00890421 0)
(0.016356 -0.0077888 0)
(0.0217056 -0.00661257 0)
(0.0263667 -0.00540397 0)
(0.0303101 -0.0041917 0)
(0.0335211 -0.00300361 0)
(0.0360004 -0.00186564 0)
(0.0377637 -0.000800829 0)
(0.0388408 0.000171504 0)
(0.0392747 0.00103634 0)
(0.0391193 0.00178334 0)
(0.038438 0.00240696 0)
(0.0373004 0.0029063 0)
(0.03578 0.0032847 0)
(0.0339515 0.00354915 0)
(0.0318881 0.00370955 0)
(0.0296592 0.00377797 0)
(0.0273287 0.00376768 0)
(0.0249528 0.00369262 0)
(0.0225806 0.00356644 0)
(0.0202514 0.00340232 0)
(0.0179976 0.00321214 0)
(0.0158415 0.00300674 0)
(0.0138005 0.0027949 0)
(0.0118825 0.00258416 0)
(0.0100942 0.00237907 0)
(0.00843379 0.00218294 0)
(0.00690417 0.00199422 0)
(0.00549985 0.00181079 0)
(0.0042294 0.00162273 0)
(0.00309017 0.00142303 0)
(0.00210637 0.00119341 0)
(0.00127999 0.000931631 0)
(0.000654124 0.000622491 0)
(0.000220592 0.000308346 0)
(2.33877e-05 2.52391e-05 0)
(4.95387e-05 -0.000228111 0)
(0.000325241 -0.000729097 0)
(0.000838214 -0.00115807 0)
(0.00148845 -0.00149303 0)
(0.0022617 -0.00170747 0)
(0.00308322 -0.00181369 0)
(0.0039259 -0.0018183 0)
(0.00473723 -0.00174181 0)
(0.00549365 -0.00159995 0)
(0.00616312 -0.0014124 0)
(0.0067319 -0.0011947 0)
(0.00718468 -0.000962036 0)
(0.0075173 -0.000725694 0)
(0.00772586 -0.000494788 0)
(0.00781229 -0.00027484 0)
(0.0077782 -6.8712e-05 0)
(0.007627 0.000123768 0)
(0.00736029 0.000305116 0)
(0.00697855 0.000480033 0)
(0.00647904 0.000654757 0)
(0.00585609 0.000836633 0)
(0.00510013 0.00103348 0)
(0.00419804 0.00125311 0)
(0.00313302 0.0015028 0)
(0.00188521 0.00178894 0)
(0.00043212 0.00211676 0)
(-0.00125064 0.00249024 0)
(-0.00318862 0.00291206 0)
(-0.00540779 0.00338369 0)
(-0.00793374 0.00390546 0)
(-0.0107909 0.00447662 0)
(-0.0140017 0.00509531 0)
(-0.0175857 0.00575849 0)
(-0.0215588 0.00646181 0)
(-0.025932 0.00719945 0)
(-0.0307106 0.00796396 0)
(-0.0358932 0.00874622 0)
(-0.0414707 0.00953537 0)
(-0.0474259 0.010319 0)
(-0.053733 0.0110831 0)
(-0.060357 0.0118128 0)
(-0.0672547 0.0124922 0)
(-0.0743742 0.0131052 0)
(-0.0816567 0.0136359 0)
(-0.0890371 0.0140687 0)
(-0.0964456 0.0143895 0)
(-0.103809 0.0145855 0)
(-0.111053 0.0146459 0)
(-0.118104 0.0145617 0)
(-0.124887 0.0143267 0)
(-0.131334 0.0139366 0)
(-0.137377 0.0133897 0)
(-0.142956 0.0126866 0)
(-0.148013 0.0118298 0)
(-0.1525 0.0108241 0)
(-0.156371 0.0096756 0)
(-0.159588 0.00839245 0)
(-0.162118 0.00698401 0)
(-0.163934 0.00546107 0)
(-0.165015 0.00383563 0)
(-0.165344 0.00212097 0)
(-0.164911 0.000331559 0)
(-0.163709 -0.00151687 0)
(-0.161737 -0.00340729 0)
(-0.158999 -0.00532136 0)
(-0.155504 -0.00723938 0)
(-0.151266 -0.00914027 0)
(-0.146304 -0.0110017 0)
(-0.140645 -0.0128 0)
(-0.13432 -0.0145108 0)
(-0.127368 -0.0161087 0)
(-0.119833 -0.0175683 0)
(-0.111767 -0.0188643 0)
(-0.10323 -0.0199723 0)
(-0.0942893 -0.0208695 0)
(-0.0850172 -0.0215355 0)
(-0.0754943 -0.0219531 0)
(-0.0658065 -0.0221094 0)
(-0.0560447 -0.0219962 0)
(-0.0463032 -0.0216109 0)
(-0.0366789 -0.0209571 0)
(-0.0272688 -0.0200448 0)
(-0.0181688 -0.0188905 0)
(-0.0094712 -0.0175173 0)
(-0.00126312 -0.0159537 0)
(0.00637572 -0.0142335 0)
(0.0133748 -0.0123947 0)
(0.0196744 -0.0104779 0)
(0.0252272 -0.00852521 0)
(0.0299995 -0.00657899 0)
(0.0339719 -0.00467998 0)
(0.03714 -0.00286613 0)
(0.0395144 -0.00117122 0)
(0.0411206 0.000376263 0)
(0.0419978 0.00175398 0)
(0.0421977 0.00294633 0)
(0.041783 0.00394474 0)
(0.0408249 0.00474749 0)
(0.0394001 0.00535932 0)
(0.037589 0.00579061 0)
(0.0354717 0.00605641 0)
(0.0331262 0.00617522 0)
(0.0306254 0.00616786 0)
(0.0280358 0.00605609 0)
(0.025415 0.00586185 0)
(0.0228125 0.00560592 0)
(0.0202672 0.00530772 0)
(0.017811 0.00498387 0)
(0.0154644 0.00464873 0)
(0.0132451 0.00431209 0)
(0.0111595 0.00398096 0)
(0.00921859 0.00365521 0)
(0.00742102 0.00333227 0)
(0.00578153 0.00299902 0)
(0.00429779 0.00264425 0)
(0.00300077 0.00224315 0)
(0.00188843 0.00178915 0)
(0.00101833 0.0012623 0)
(0.000376677 0.000707591 0)
(5.28043e-05 0.000162966 0)
(5.97779e-05 -0.000407 0)
(0.000386894 -0.0011711 0)
(0.000985388 -0.0017982 0)
(0.00172784 -0.00227086 0)
(0.0025968 -0.00256868 0)
(0.00350508 -0.00270697 0)
(0.00442406 -0.0026986 0)
(0.00529524 -0.00257054 0)
(0.00609355 -0.00234624 0)
(0.00678346 -0.00205275 0)
(0.00734958 -0.00171271 0)
(0.00777405 -0.00134738 0)
(0.00805089 -0.000973085 0)
(0.00817383 -0.000602582 0)
(0.00814258 -0.00024371 0)
(0.00795602 9.97792e-05 0)
(0.0076146 0.000428454 0)
(0.00711636 0.000746432 0)
(0.00645774 0.001061 0)
(0.00563134 0.00138176 0)
(0.00462626 0.00171989 0)
(0.00342712 0.00208722 0)
(0.0020146 0.00249549 0)
(0.00036541 0.00295552 0)
(-0.00154684 0.00347663 0)
(-0.00375102 0.00406626 0)
(-0.00627739 0.00472973 0)
(-0.00915662 0.00547015 0)
(-0.0124187 0.00628848 0)
(-0.0160916 0.00718357 0)
(-0.0202005 0.0081522 0)
(-0.0247661 0.00918896 0)
(-0.0298035 0.0102862 0)
(-0.0353211 0.0114337 0)
(-0.041319 0.0126189 0)
(-0.0477881 0.0138263 0)
(-0.0547092 0.0150379 0)
(-0.0620525 0.0162333 0)
(-0.0697771 0.0173903 0)
(-0.0778317 0.0184851 0)
(-0.0861552 0.0194934 0)
(-0.0946782 0.0203906 0)
(-0.103324 0.0211535 0)
(-0.112013 0.0217602 0)
(-0.12066 0.0221914 0)
(-0.129181 0.0224308 0)
(-0.137495 0.0224654 0)
(-0.145522 0.0222859 0)
(-0.153189 0.0218868 0)
(-0.160429 0.021266 0)
(-0.167179 0.0204249 0)
(-0.173387 0.0193676 0)
(-0.179005 0.0181012 0)
(-0.183994 0.0166347 0)
(-0.188321 0.0149791 0)
(-0.191957 0.0131468 0)
(-0.194881 0.0111517 0)
(-0.197075 0.00900831 0)
(-0.198526 0.00673242 0)
(-0.199222 0.00434059 0)
(-0.199159 0.00185034 0)
(-0.19833 -0.0007198 0)
(-0.196736 -0.00335016 0)
(-0.194378 -0.00601977 0)
(-0.191259 -0.00870622 0)
(-0.187389 -0.0113855 0)
(-0.182777 -0.014032 0)
(-0.177439 -0.0166182 0)
(-0.171394 -0.0191152 0)
(-0.164666 -0.0214925 0)
(-0.157287 -0.0237184 0)
(-0.149291 -0.0257605 0)
(-0.140723 -0.0275863 0)
(-0.131633 -0.029164 0)
(-0.12208 -0.0304632 0)
(-0.11213 -0.0314562 0)
(-0.101857 -0.0321191 0)
(-0.0913413 -0.0324327 0)
(-0.0806704 -0.0323837 0)
(-0.069937 -0.0319658 0)
(-0.0592378 -0.0311804 0)
(-0.0486716 -0.0300372 0)
(-0.0383377 -0.0285543 0)
(-0.0283339 -0.0267581 0)
(-0.0187541 -0.024683 0)
(-0.00968672 -0.0223704 0)
(-0.00121252 -0.0198675 0)
(0.00659702 -0.0172261 0)
(0.0136811 -0.0145005 0)
(0.019991 -0.0117466 0)
(0.0254909 -0.0090193 0)
(0.0301586 -0.00637138 0)
(0.0339861 -0.00385151 0)
(0.0369798 -0.00150287 0)
(0.0391602 0.000638195 0)
(0.0405618 0.00254323 0)
(0.0412316 0.0041924 0)
(0.0412285 0.00557485 0)
(0.0406206 0.00668869 0)
(0.0394839 0.0075404 0)
(0.0378985 0.00814406 0)
(0.0359469 0.00852 0)
(0.0337101 0.00869342 0)
(0.0312662 0.0086926 0)
(0.0286864 0.00854759 0)
(0.0260356 0.00828828 0)
(0.023368 0.00794358 0)
(0.0207311 0.00753939 0)
(0.0181595 0.00709855 0)
(0.0156845 0.00663808 0)
(0.0133234 0.0061704 0)
(0.0110976 0.0056987 0)
(0.00901256 0.00522127 0)
(0.0070911 0.0047235 0)
(0.00533284 0.00419016 0)
(0.0037772 0.00359113 0)
(0.00242004 0.00291277 0)
(0.00133604 0.00212896 0)
(0.000509646 0.00127495 0)
(7.6156e-05 0.000379353 0)
(6.67542e-05 -0.000608898 0)
(0.000429729 -0.00166642 0)
(0.00108627 -0.00250459 0)
(0.001888 -0.00311454 0)
(0.00281282 -0.00348743 0)
(0.003763 -0.00364426 0)
(0.00470818 -0.00360646 0)
(0.0055852 -0.00340816 0)
(0.00636818 -0.00308117 0)
(0.00701916 -0.00265991 0)
(0.00752177 -0.00217417 0)
(0.00785615 -0.00165099 0)
(0.00801465 -0.00111149 0)
(0.00798852 -0.000571664 0)
(0.00777475 -4.12279e-05 0)
(0.00736874 0.000475686 0)
(0.00676696 0.000980591 0)
(0.00596272 0.0014798 0)
(0.00494712 0.00198376 0)
(0.00370674 0.00250598 0)
(0.00222422 0.00306192 0)
(0.000477355 0.00366777 0)
(-0.00156013 0.00433929 0)
(-0.0039183 0.00509075 0)
(-0.00662982 0.00593403 0)
(-0.00972902 0.00687807 0)
(-0.0132504 0.00792849 0)
(-0.0172271 0.00908745 0)
(-0.0216897 0.0103536 0)
(-0.0266642 0.0117222 0)
(-0.0321709 0.0131848 0)
(-0.0382221 0.0147295 0)
(-0.0448212 0.0163406 0)
(-0.0519609 0.0179986 0)
(-0.0596219 0.0196803 0)
(-0.0677725 0.021359 0)
(-0.076368 0.0230047 0)
(-0.0853514 0.0245853 0)
(-0.094654 0.0260676 0)
(-0.104198 0.0274178 0)
(-0.113897 0.0286035 0)
(-0.123661 0.0295943 0)
(-0.133397 0.0303632 0)
(-0.143014 0.0308875 0)
(-0.152424 0.0311493 0)
(-0.161542 0.031136 0)
(-0.170295 0.03084 0)
(-0.178614 0.0302588 0)
(-0.18644 0.0293945 0)
(-0.193725 0.0282531 0)
(-0.200425 0.0268437 0)
(-0.206507 0.0251784 0)
(-0.211944 0.0232711 0)
(-0.216713 0.0211371 0)
(-0.220799 0.0187928 0)
(-0.224187 0.0162553 0)
(-0.226869 0.013542 0)
(-0.228835 0.0106708 0)
(-0.230079 0.00765987 0)
(-0.230597 0.00452797 0)
(-0.230384 0.00129437 0)
(-0.229436 -0.00202077 0)
(-0.227752 -0.00539613 0)
(-0.225329 -0.00880898 0)
(-0.222167 -0.0122349 0)
(-0.218268 -0.0156474 0)
(-0.213636 -0.019018 0)
(-0.208276 -0.0223157 0)
(-0.202199 -0.0255072 0)
(-0.19542 -0.0285573 0)
(-0.187958 -0.0314284 0)
(-0.179839 -0.0340817 0)
(-0.171095 -0.0364777 0)
(-0.161768 -0.0385768 0)
(-0.151906 -0.0403406 0)
(-0.141566 -0.0417333 0)
(-0.130814 -0.0427228 0)
(-0.119727 -0.0432823 0)
(-0.108387 -0.0433916 0)
(-0.0968857 -0.043039 0)
(-0.0853193 -0.0422214 0)
(-0.0737891 -0.0409463 0)
(-0.0623987 -0.0392314 0)
(-0.0512515 -0.0371048 0)
(-0.0404489 -0.0346048 0)
(-0.0300876 -0.0317786 0)
(-0.0202579 -0.0286813 0)
(-0.0110412 -0.0253737 0)
(-0.00250908 -0.0219213 0)
(0.0052781 -0.0183915 0)
(0.0122722 -0.0148518 0)
(0.0184377 -0.0113682 0)
(0.023752 -0.00800293 0)
(0.028206 -0.00481294 0)
(0.0318037 -0.00184833 0)
(0.0345625 0.000849021 0)
(0.0365125 0.00324652 0)
(0.0376966 0.0053217 0)
(0.0381688 0.00706263 0)
(0.0379935 0.0084679 0)
(0.0372428 0.00954614 0)
(0.0359952 0.010315 0)
(0.0343318 0.0107999 0)
(0.0323346 0.011032 0)
(0.0300823 0.0110466 0)
(0.0276504 0.0108808 0)
(0.0251055 0.0105719 0)
(0.0225087 0.0101551 0)
(0.0199086 0.00966195 0)
(0.0173503 0.00911796 0)
(0.0148635 0.00854231 0)
(0.0124818 0.00794341 0)
(0.0102191 0.00732198 0)
(0.00810825 0.00666398 0)
(0.00615297 0.00595102 0)
(0.00440241 0.00514878 0)
(0.00285294 0.00423393 0)
(0.00159645 0.00317143 0)
(0.000618825 0.00197565 0)
(9.50758e-05 0.000656298 0)
(7.04624e-05 -0.000830252 0)
(0.000454731 -0.00220451 0)
(0.00114485 -0.00326291 0)
(0.00197655 -0.00400802 0)
(0.00292233 -0.00444553 0)
(0.00387547 -0.00460456 0)
(0.00480329 -0.0045172 0)
(0.0056388 -0.00422582 0)
(0.00635546 -0.00377151 0)
(0.00691357 -0.00319626 0)
(0.00729613 -0.00253711 0)
(0.0074817 -0.00182666 0)
(0.00746103 -0.00109042 0)
(0.00722279 -0.000347074 0)
(0.00676089 0.00039239 0)
(0.00606663 0.00112419 0)
(0.00513165 0.00185154 0)
(0.00394354 0.00258368 0)
(0.00248697 0.00333491 0)
(0.000741513 0.00412322 0)
(-0.00131756 0.00496871 0)
(-0.00371987 0.00589203 0)
(-0.00649873 0.00691277 0)
(-0.0096905 0.00804801 0)
(-0.0133329 0.0093112 0)
(-0.0174636 0.0107114 0)
(-0.0221183 0.0122525 0)
(-0.0273285 0.0139335 0)
(-0.0331201 0.0157479 0)
(-0.0395111 0.017684 0)
(-0.0465093 0.0197248 0)
(-0.0541111 0.0218478 0)
(-0.0622997 0.0240255 0)
(-0.0710438 0.0262254 0)
(-0.0802977 0.0284103 0)
(-0.090001 0.0305399 0)
(-0.10008 0.0325713 0)
(-0.11045 0.0344608 0)
(-0.121018 0.0361659 0)
(-0.131684 0.0376461 0)
(-0.142349 0.0388656 0)
(-0.152913 0.0397938 0)
(-0.163284 0.0404063 0)
(-0.173373 0.0406858 0)
(-0.183104 0.0406218 0)
(-0.192409 0.0402105 0)
(-0.201232 0.0394538 0)
(-0.209525 0.0383589 0)
(-0.217252 0.0369371 0)
(-0.224384 0.0352027 0)
(-0.230899 0.0331725 0)
(-0.23678 0.0308645 0)
(-0.242016 0.0282978 0)
(-0.246598 0.0254917 0)
(-0.250519 0.0224655 0)
(-0.253774 0.0192381 0)
(-0.256359 0.0158284 0)
(-0.258268 0.0122552 0)
(-0.259498 0.00853687 0)
(-0.260042 0.00469239 0)
(-0.259896 0.000741131 0)
(-0.259053 -0.00329661 0)
(-0.257507 -0.00739922 0)
(-0.255251 -0.0115434 0)
(-0.252279 -0.0157036 0)
(-0.248585 -0.0198519 0)
(-0.244166 -0.0239576 0)
(-0.239017 -0.027987 0)
(-0.233141 -0.031903 0)
(-0.22654 -0.0356656 0)
(-0.219223 -0.039232 0)
(-0.211205 -0.0425567 0)
(-0.202505 -0.0455928 0)
(-0.193152 -0.0482923 0)
(-0.183185 -0.0506079 0)
(-0.172649 -0.0524942 0)
(-0.161603 -0.0539093 0)
(-0.150113 -0.054817 0)
(-0.138259 -0.055188 0)
(-0.126128 -0.0550026 0)
(-0.113819 -0.0542515 0)
(-0.101434 -0.0529375 0)
(-0.0890823 -0.051076 0)
(-0.076876 -0.0486956 0)
(-0.0649258 -0.0458373 0)
(-0.0533394 -0.0425535 0)
(-0.0422186 -0.038907 0)
(-0.0316566 -0.0349681 0)
(-0.0217366 -0.030813 0)
(-0.0125299 -0.0265211 0)
(-0.00409512 -0.0221724 0)
(0.00352201 -0.0178458 0)
(0.0102887 -0.0136164 0)
(0.0161851 -0.00955402 0)
(0.0212037 -0.00572153 0)
(0.0253492 -0.0021735 0)
(0.0286386 0.00104509 0)
(0.0311003 0.00389981 0)
(0.0327744 0.00636757 0)
(0.0337117 0.008437 0)
(0.0339726 0.0101085 0)
(0.0336264 0.0113935 0)
(0.0327477 0.012314 0)
(0.0314164 0.0129003 0)
(0.029712 0.0131895 0)
(0.0277148 0.013223 0)
(0.0254988 0.0130446 0)
(0.0231353 0.0126971 0)
(0.020684 0.0122205 0)
(0.0182029 0.0116489 0)
(0.0157332 0.0110089 0)
(0.013321 0.0103155 0)
(0.0109901 0.00957293 0)
(0.00878426 0.00876949 0)
(0.00671349 0.00788422 0)
(0.00483773 0.00687937 0)
(0.00315694 0.00572008 0)
(0.00177915 0.00436029 0)
(0.000694068 0.00278647 0)
(0.00010737 0.000982765 0)
(7.29004e-05 -0.00105936 0)
(0.000468441 -0.00275997 0)
(0.0011717 -0.00403756 0)
(0.00200687 -0.00490745 0)
(0.0029406 -0.00539217 0)
(0.00385928 -0.00553136 0)
(0.00472771 -0.00536973 0)
(0.00547614 -0.00495909 0)
(0.00607743 -0.00435048 0)
(0.00649079 -0.00359361 0)
(0.00669871 -0.00273254 0)
(0.00667839 -0.00180488 0)
(0.00641885 -0.000839854 0)
(0.00590599 0.000142045 0)
(0.00513008 0.0011295 0)
(0.00407772 0.00212004 0)
(0.00273484 0.00311948 0)
(0.00108242 0.00414082 0)
(-0.000902154 0.00520283 0)
(-0.00324704 0.00632832 0)
(-0.0059847 0.00754205 0)
(-0.00915205 0.00886869 0)
(-0.0127887 0.0103307 0)
(-0.0169356 0.0119466 0)
(-0.0216331 0.0137295 0)
(-0.0269186 0.0156857 0)
(-0.0328241 0.0178149 0)
(-0.0393739 0.0201092 0)
(-0.0465824 0.022553 0)
(-0.0544518 0.0251237 0)
(-0.0629698 0.0277913 0)
(-0.0721088 0.0305189 0)
(-0.0818244 0.0332636 0)
(-0.0920559 0.0359771 0)
(-0.102727 0.0386075 0)
(-0.11375 0.0411009 0)
(-0.125023 0.0434035 0)
(-0.136442 0.0454642 0)
(-0.147898 0.0472364 0)
(-0.159285 0.04868 0)
(-0.170504 0.0497625 0)
(-0.181461 0.0504603 0)
(-0.192077 0.0507583 0)
(-0.202282 0.0506499 0)
(-0.21202 0.050136 0)
(-0.221245 0.0492241 0)
(-0.229924 0.0479267 0)
(-0.23803 0.0462603 0)
(-0.245546 0.0442442 0)
(-0.252459 0.0418992 0)
(-0.258762 0.039247 0)
(-0.26445 0.0363093 0)
(-0.269519 0.0331077 0)
(-0.273967 0.0296628 0)
(-0.277794 0.0259946 0)
(-0.280996 0.0221223 0)
(-0.283571 0.0180643 0)
(-0.285516 0.0138386 0)
(-0.286826 0.00946302 0)
(-0.287496 0.00495546 0)
(-0.287518 0.000334393 0)
(-0.286884 -0.00438069 0)
(-0.285586 -0.00916884 0)
(-0.283613 -0.0140071 0)
(-0.280954 -0.0188702 0)
(-0.277599 -0.0237297 0)
(-0.273536 -0.0285539 0)
(-0.268755 -0.0333074 0)
(-0.263247 -0.0379507 0)
(-0.257004 -0.0424406 0)
(-0.250024 -0.0467295 0)
(-0.242307 -0.0507663 0)
(-0.23386 -0.0544972 0)
(-0.224697 -0.0578661 0)
(-0.214841 -0.0608162 0)
(-0.204324 -0.0632918 0)
(-0.193192 -0.0652397 0)
(-0.181499 -0.0666121 0)
(-0.169316 -0.0673684 0)
(-0.156724 -0.0674776 0)
(-0.143818 -0.0669209 0)
(-0.130703 -0.0656932 0)
(-0.117494 -0.0638044 0)
(-0.104309 -0.0612804 0)
(-0.0912727 -0.0581629 0)
(-0.0785065 -0.054508 0)
(-0.066128 -0.0503852 0)
(-0.0542471 -0.0458743 0)
(-0.0429625 -0.0410629 0)
(-0.0323604 -0.0360432 0)
(-0.0225122 -0.0309088 0)
(-0.0134748 -0.0257521 0)
(-0.00529002 -0.0206616 0)
(0.00201395 -0.01572 0)
(0.00842214 -0.0110022 0)
(0.0139317 -0.00657477 0)
(0.0185509 -0.0024939 0)
(0.0222991 0.00119483 0)
(0.0252055 0.00445749 0)
(0.0273099 0.00727238 0)
(0.0286614 0.00963036 0)
(0.0293184 0.0115348 0)
(0.0293468 0.0130011 0)
(0.0288196 0.0140554 0)
(0.0278127 0.0147331 0)
(0.0264058 0.0150766 0)
(0.0246754 0.0151329 0)
(0.0226987 0.01495 0)
(0.020543 0.0145749 0)
(0.0182761 0.0140491 0)
(0.0159497 0.0134065 0)
(0.0136212 0.012669 0)
(0.0113246 0.0118454 0)
(0.00911453 0.0109272 0)
(0.00700917 0.00989158 0)
(0.00507923 0.00869799 0)
(0.00333078 0.00729896 0)
(0.00188527 0.00563588 0)
(0.000737975 0.00366351 0)
(0.000114427 0.00133758 0)
(7.38988e-05 -0.00129487 0)
(0.000471459 -0.00332417 0)
(0.0011695 -0.00481366 0)
(0.00198355 -0.00579315 0)
(0.0028743 -0.00630364 0)
(0.00372314 -0.0063973 0)
(0.00449232 -0.00613306 0)
(0.00511037 -0.00557332 0)
(0.00554953 -0.00477971 0)
(0.00576847 -0.00380976 0)
(0.00574908 -0.00271435 0)
(0.00546732 -0.00153546 0)
(0.00491019 -0.000305244 0)
(0.0040605 0.000955009 0)
(0.00290433 0.0022347 0)
(0.00142291 0.00353377 0)
(-0.000404249 0.00486158 0)
(-0.00260342 0.00623568 0)
(-0.00520503 0.0076798 0)
(-0.00824509 0.00922161 0)
(-0.0117634 0.0108901 0)
(-0.015803 0.0127128 0)
(-0.0204079 0.0147134 0)
(-0.0256207 0.0169094 0)
(-0.0314799 0.0193103 0)
(-0.0380176 0.0219168 0)
(-0.0452558 0.0247197 0)
(-0.0532045 0.0276998 0)
(-0.0618589 0.0308283 0)
(-0.0711974 0.0340671 0)
(-0.0811806 0.0373693 0)
(-0.0917508 0.0406806 0)
(-0.102832 0.043941 0)
(-0.114335 0.0470866 0)
(-0.126154 0.0500525 0)
(-0.138178 0.0527754 0)
(-0.150293 0.0551967 0)
(-0.162384 0.0572645 0)
(-0.174343 0.0589362 0)
(-0.186071 0.0601793 0)
(-0.197482 0.0609719 0)
(-0.208503 0.0613027 0)
(-0.219073 0.0611695 0)
(-0.229148 0.0605787 0)
(-0.238693 0.0595429 0)
(-0.247683 0.05808 0)
(-0.256102 0.0562111 0)
(-0.26394 0.0539596 0)
(-0.271192 0.0513499 0)
(-0.277855 0.0484065 0)
(-0.283931 0.0451535 0)
(-0.289419 0.041614 0)
(-0.294322 0.0378101 0)
(-0.298641 0.0337626 0)
(-0.302377 0.0294909 0)
(-0.305531 0.0250137 0)
(-0.308103 0.0203482 0)
(-0.310092 0.0155115 0)
(-0.311493 0.0105199 0)
(-0.312304 0.0053901 0)
(-0.312517 0.000139128 0)
(-0.312126 -0.00521498 0)
(-0.311121 -0.0106527 0)
(-0.30949 -0.0161523 0)
(-0.30722 -0.0216896 0)
(-0.304297 -0.027237 0)
(-0.300702 -0.0327632 0)
(-0.296421 -0.0382326 0)
(-0.291433 -0.0436048 0)
(-0.285722 -0.0488344 0)
(-0.279272 -0.0538708 0)
(-0.272069 -0.0586588 0)
(-0.264103 -0.0631383 0)
(-0.255373 -0.0672459 0)
(-0.245881 -0.0709154 0)
(-0.235642 -0.0740803 0)
(-0.224682 -0.0766752 0)
(-0.213039 -0.0786385 0)
(-0.200768 -0.0799154 0)
(-0.187939 -0.0804607 0)
(-0.174638 -0.0802418 0)
(-0.160966 -0.0792412 0)
(-0.14704 -0.0774591 0)
(-0.132987 -0.0749145 0)
(-0.118941 -0.071646 0)
(-0.105042 -0.0677107 0)
(-0.0914276 -0.0631834 0)
(-0.0782292 -0.0581529 0)
(-0.0655688 -0.0527191 0)
(-0.0535541 -0.0469891 0)
(-0.0422761 -0.0410724 0)
(-0.031808 -0.0350779 0)
(-0.0222046 -0.0291101 0)
(-0.0135034 -0.0232663 0)
(-0.00572595 -0.017635 0)
(0.00112 -0.0122947 0)
(0.00703881 -0.00731247 0)
(0.0120455 -0.00274401 0)
(0.0161644 0.00136718 0)
(0.0194289 0.00499012 0)
(0.0218804 0.00810669 0)
(0.0235693 0.0107118 0)
(0.0245529 0.0128134 0)
(0.0248964 0.0144315 0)
(0.0246699 0.0155973 0)
(0.0239489 0.0163513 0)
(0.0228089 0.0167406 0)
(0.0213285 0.016816 0)
(0.0195791 0.0166289 0)
(0.0176351 0.0162266 0)
(0.015556 0.0156493 0)
(0.0134088 0.0149252 0)
(0.0112368 0.0140678 0)
(0.00910524 0.0130722 0)
(0.00704112 0.0119142 0)
(0.00512538 0.0105507 0)
(0.00337197 0.00892166 0)
(0.00191255 0.00695561 0)
(0.000748803 0.00457522 0)
(0.000115635 0.00170737 0)
(7.41133e-05 -0.0015298 0)
(0.000465883 -0.00387962 0)
(0.00114154 -0.00556485 0)
(0.00191058 -0.00663107 0)
(0.00272767 -0.00713958 0)
(0.0034713 -0.00715686 0)
(0.0041014 -0.00675758 0)
(0.00454596 -0.00601562 0)
(0.00477672 -0.00500367 0)
(0.00475228 -0.00378695 0)
(0.00445378 -0.00242267 0)
(0.00385589 -0.00095637 0)
(0.00294315 0.000577952 0)
(0.00169483 0.00215939 0)
(9.21605e-05 0.00377927 0)
(-0.00188962 0.00544106 0)
(-0.004278 0.00715863 0)
(-0.00710688 0.00895466 0)
(-0.0104145 0.0108579 0)
(-0.014244 0.0129004 0)
(-0.0186412 0.0151139 0)
(-0.023653 0.0175272 0)
(-0.0293242 0.020162 0)
(-0.0356945 0.0230314 0)
(-0.0427951 0.0261375 0)
(-0.050646 0.02947 0)
(-0.059252 0.0330063 0)
(-0.068601 0.0367115 0)
(-0.0786619 0.0405388 0)
(-0.0893832 0.0444308 0)
(-0.100694 0.0483218 0)
(-0.112504 0.0521393 0)
(-0.12471 0.0558078 0)
(-0.137195 0.0592515 0)
(-0.149838 0.0623985 0)
(-0.162516 0.0651833 0)
(-0.175112 0.0675504 0)
(-0.187518 0.0694559 0)
(-0.19964 0.0708681 0)
(-0.211395 0.0717681 0)
(-0.222721 0.0721485 0)
(-0.233564 0.0720124 0)
(-0.243889 0.071371 0)
(-0.253669 0.0702421 0)
(-0.262886 0.068648 0)
(-0.271531 0.0666142 0)
(-0.279599 0.0641676 0)
(-0.28709 0.0613358 0)
(-0.294006 0.058146 0)
(-0.30035 0.0546245 0)
(-0.306128 0.0507966 0)
(-0.311345 0.0466859 0)
(-0.316007 0.0423146 0)