/*--------------------------------*- C++ -*----------------------------------*\
| =========                 |                                                 |
| \\      /  F ield         | OpenFOAM: The Open Source CFD Toolbox           |
|  \\    /   O peration     | Version:  2406                                  |
|   \\  /    A nd           | Website:  www.openfoam.com                      |
|    \\/     M anipulation  |                                                 |
\*---------------------------------------------------------------------------*/
FoamFile
{
    version     2.0;
    format      ascii;
    arch        "LSB;label=32;scalar=64";
    class       volVectorField;
    location    "42.8";
    object      U_0;
}
// * * * * * * * * * * * * * * * * * * * * * * * * * * * * * * * * * * * * * //

dimensions      [0 1 -1 0 0 0 0];

internalField   nonuniform List<vector> 
14400
(
(-7.31605e-06 7.21493e-06 0)
(1.24332e-05 -1.06909e-05 0)
(0.000117718 -3.40976e-05 0)
(0.000304712 -5.32446e-05 0)
(0.000554014 -6.65421e-05 0)
(0.000843118 -7.37198e-05 0)
(0.00114936 -7.53376e-05 0)
(0.00145261 -7.22919e-05 0)
(0.00173647 -6.5701e-05 0)
(0.001989 -5.67694e-05 0)
(0.0022029 -4.66803e-05 0)
(0.00237528 -3.64964e-05 0)
(0.00250709 -2.70828e-05 0)
(0.00260224 -1.90603e-05 0)
(0.00266667 -1.27843e-05 0)
(0.00270731 -8.34963e-06 0)
(0.00273121 -5.6789e-06 0)
(0.00274448 -4.58432e-06 0)
(0.00275176 -4.61447e-06 0)
(0.00275594 -5.24549e-06 0)
(0.00275765 -5.88851e-06 0)
(0.00275586 -5.69797e-06 0)
(0.00274787 -4.53771e-06 0)
(0.00272912 -2.2313e-06 0)
(0.0026942 1.40651e-06 0)
(0.00263712 6.46298e-06 0)
(0.0025516 1.29626e-05 0)
(0.00243128 2.09034e-05 0)
(0.00226979 3.02833e-05 0)
(0.00206072 4.11173e-05 0)
(0.0017976 5.34419e-05 0)
(0.00147382 6.73091e-05 0)
(0.00108261 8.27729e-05 0)
(0.000617132 9.98738e-05 0)
(7.05348e-05 0.000118624 0)
(-0.000563855 0.000138997 0)
(-0.00129234 0.000160919 0)
(-0.00212064 0.000184264 0)
(-0.00305359 0.000208848 0)
(-0.00409498 0.000234433 0)
(-0.00524719 0.000260723 0)
(-0.00651103 0.000287366 0)
(-0.00788546 0.000313961 0)
(-0.0093674 0.000340056 0)
(-0.0109516 0.000365164 0)
(-0.0126304 0.000388763 0)
(-0.0143939 0.000410307 0)
(-0.0162295 0.000429236 0)
(-0.0181226 0.000444985 0)
(-0.020056 0.000456991 0)
(-0.0220103 0.0004647 0)
(-0.0239643 0.000467577 0)
(-0.025895 0.000465112 0)
(-0.0277777 0.000456829 0)
(-0.0295867 0.000442289 0)
(-0.0312951 0.000421106 0)
(-0.0328755 0.00039295 0)
(-0.0343004 0.000357567 0)
(-0.0355424 0.000314788 0)
(-0.0365748 0.000264437 0)
(-0.0373724 0.000206773 0)
(-0.0379118 0.000143614 0)
(-0.0381688 7.55273e-05 0)
(-0.0381228 -1.76726e-07 0)
(-0.037761 -8.24972e-05 0)
(-0.0370719 -0.000168707 0)
(-0.0360472 -0.000257322 0)
(-0.0346853 -0.00034693 0)
(-0.0329901 -0.000435796 0)
(-0.0309721 -0.000521982 0)
(-0.0286487 -0.000603397 0)
(-0.0260441 -0.000677859 0)
(-0.0231896 -0.000743185 0)
(-0.0201232 -0.000797281 0)
(-0.0168893 -0.000838257 0)
(-0.0135375 -0.000864527 0)
(-0.0101221 -0.000874917 0)
(-0.00669985 -0.000868757 0)
(-0.00332919 -0.000845953 0)
(-6.78549e-05 -0.000807029 0)
(0.00302877 -0.000753129 0)
(0.00590961 -0.000685989 0)
(0.00852968 -0.000607854 0)
(0.0108516 -0.000521371 0)
(0.012847 -0.000429442 0)
(0.0144971 -0.000335069 0)
(0.0157932 -0.000241183 0)
(0.0167367 -0.000150475 0)
(0.0173386 -6.51638e-05 0)
(0.0176194 1.23507e-05 0)
(0.0176043 7.86348e-05 0)
(0.0173234 0.000134526 0)
(0.0168149 0.000181684 0)
(0.0161186 0.000219331 0)
(0.0152725 0.000246805 0)
(0.0143144 0.000264819 0)
(0.0132801 0.000274437 0)
(0.0122023 0.000276788 0)
(0.0111098 0.000273063 0)
(0.0100271 0.000264451 0)
(0.00897424 0.000252091 0)
(0.00796671 0.000237035 0)
(0.00701595 0.000220221 0)
(0.00612962 0.000202464 0)
(0.00531203 0.000184444 0)
(0.00456471 0.000166721 0)
(0.00388687 0.000149736 0)
(0.00327588 0.000133822 0)
(0.00272775 0.000119212 0)
(0.00223757 0.000106029 0)
(0.00180005 9.42673e-05 0)
(0.00141013 8.3764e-05 0)
(0.00106367 7.41553e-05 0)
(0.00075833 6.48433e-05 0)
(0.000494429 5.49869e-05 0)
(0.000275668 4.35953e-05 0)
(0.000109224 2.97911e-05 0)
(4.26754e-06 1.3318e-05 0)
(-3.44075e-05 -3.73327e-06 0)
(-1.35106e-05 -1.35308e-05 0)
(9.5324e-06 -1.1544e-05 0)
(0.00014776 -0.000152243 0)
(0.00046751 -0.000325951 0)
(0.000963387 -0.000472153 0)
(0.00159093 -0.000575614 0)
(0.00230419 -0.000632673 0)
(0.003054 -0.000645893 0)
(0.00379525 -0.000621402 0)
(0.00449017 -0.000567438 0)
(0.00511029 -0.000493214 0)
(0.00563709 -0.000407983 0)
(0.00606176 -0.000320211 0)
(0.00638409 -0.000236938 0)
(0.00661072 -0.000163349 0)
(0.00675302 -0.000102577 0)
(0.00682483 -5.57113e-05 0)
(0.0068403 -2.20293e-05 0)
(0.0068119 6.37882e-07 0)
(0.00674891 1.57765e-05 0)
(0.00665636 2.75231e-05 0)
(0.00653458 4.01942e-05 0)
(0.0063789 5.80659e-05 0)
(0.00618024 8.43553e-05 0)
(0.00592626 0.000121573 0)
(0.00560199 0.000171429 0)
(0.00519072 0.000234888 0)
(0.00467486 0.00031237 0)
(0.00403643 0.00040399 0)
(0.00325738 0.000509761 0)
(0.00231974 0.000629724 0)
(0.00120565 0.00076398 0)
(-0.000102511 0.000912637 0)
(-0.00162196 0.00107571 0)
(-0.00336917 0.00125298 0)
(-0.00535943 0.00144391 0)
(-0.00760627 0.00164752 0)
(-0.0101208 0.00186234 0)
(-0.012911 0.00208638 0)
(-0.0159813 0.00231707 0)
(-0.0193313 0.00255136 0)
(-0.0229561 0.00278564 0)
(-0.0268449 0.00301588 0)
(-0.0309813 0.00323764 0)
(-0.035343 0.0034462 0)
(-0.0399014 0.00363666 0)
(-0.0446223 0.00380401 0)
(-0.0494658 0.00394333 0)
(-0.0543869 0.00404984 0)
(-0.0593366 0.00411903 0)
(-0.0642617 0.00414679 0)
(-0.0691067 0.00412947 0)
(-0.0738138 0.00406394 0)
(-0.0783245 0.0039477 0)
(-0.0825797 0.00377886 0)
(-0.0865216 0.00355624 0)
(-0.0900934 0.00327933 0)
(-0.0932409 0.00294838 0)
(-0.095913 0.00256439 0)
(-0.0980621 0.00212919 0)
(-0.099645 0.0016454 0)
(-0.100623 0.00111667 0)
(-0.100964 0.000548667 0)
(-0.100644 -5.24065e-05 0)
(-0.0996413 -0.000683055 0)
(-0.0979422 -0.00133595 0)
(-0.0955439 -0.00200162 0)
(-0.0924512 -0.00267032 0)
(-0.0886776 -0.00333146 0)
(-0.0842462 -0.00397367 0)
(-0.07919 -0.00458493 0)
(-0.0735521 -0.00515282 0)
(-0.067386 -0.00566485 0)
(-0.0607548 -0.00610877 0)
(-0.0537316 -0.00647308 0)
(-0.0463981 -0.00674742 0)
(-0.0388438 -0.0069231 0)
(-0.0311645 -0.00699358 0)
(-0.023461 -0.00695489 0)
(-0.0158363 -0.00680601 0)
(-0.0083941 -0.00654911 0)
(-0.00123569 -0.0061897 0)
(0.00554229 -0.00573653 0)
(0.0118506 -0.00520142 0)
(0.01761 -0.00459883 0)
(0.0227534 -0.00394533 0)
(0.0272279 -0.00325891 0)
(0.0309964 -0.00255823 0)
(0.0340384 -0.00186181 0)
(0.0363506 -0.00118725 0)
(0.0379457 -0.00055072 0)
(0.0388531 3.26925e-05 0)
(0.0391185 0.00055385 0)
(0.0387982 0.00100691 0)
(0.037957 0.0013865 0)
(0.0366682 0.00169006 0)
(0.0350095 0.00191883 0)
(0.0330593 0.00207672 0)
(0.0308941 0.0021696 0)
(0.0285864 0.00220485 0)
(0.026202 0.00219076 0)
(0.0237991 0.00213604 0)
(0.0214273 0.00204937 0)
(0.0191266 0.00193899 0)
(0.0169282 0.00181247 0)
(0.0148546 0.0016765 0)
(0.0129205 0.00153683 0)
(0.0111336 0.00139821 0)
(0.00949586 0.0012644 0)
(0.00800455 0.00113818 0)
(0.00665355 0.00102125 0)
(0.0054347 0.00091412 0)
(0.00433941 0.000815896 0)
(0.00336034 0.000724045 0)
(0.00249332 0.000634272 0)
(0.00173911 0.000540662 0)
(0.00110455 0.000436541 0)
(0.000602393 0.000316541 0)
(0.000247177 0.000181104 0)
(5.0197e-05 4.46337e-05 0)
(-2.60779e-06 -3.34061e-05 0)
(3.1162e-05 -0.000110845 0)
(0.000311267 -0.000467727 0)
(0.000832849 -0.000850874 0)
(0.00158503 -0.00117134 0)
(0.00250137 -0.00139859 0)
(0.0035234 -0.00152325 0)
(0.0045868 -0.00154927 0)
(0.00563176 -0.00148903 0)
(0.00660747 -0.00136013 0)
(0.00747482 -0.00118281 0)
(0.00820746 -0.00097767 0)
(0.00879156 -0.000763768 0)
(0.0092245 -0.00055714 0)
(0.00951263 -0.000369757 0)
(0.00966861 -0.000208998 0)
(0.00970837 -7.75893e-05 0)
(0.00964817 2.6074e-05 0)
(0.00950209 0.000107179 0)
(0.0092798 0.000173647 0)
(0.008985 0.000235017 0)
(0.00861482 0.000301309 0)
(0.00815965 0.000381871 0)
(0.0076038 0.000484959 0)
(0.00692671 0.000616905 0)
(0.00610408 0.000782037 0)
(0.00510918 0.000982907 0)
(0.00391398 0.00122071 0)
(0.00248997 0.00149578 0)
(0.000808758 0.00180801 0)
(-0.00115748 0.00215708 0)
(-0.00343565 0.00254253 0)
(-0.00605122 0.00296358 0)
(-0.00902765 0.00341891 0)
(-0.0123855 0.00390636 0)
(-0.0161417 0.0044227 0)
(-0.0203081 0.00496342 0)
(-0.0248908 0.00552267 0)
(-0.0298888 0.0060932 0)
(-0.0352935 0.00666643 0)
(-0.0410872 0.00723259 0)
(-0.0472436 0.00778088 0)
(-0.0537268 0.00829977 0)
(-0.060492 0.00877725 0)
(-0.0674856 0.00920122 0)
(-0.0746466 0.00955982 0)
(-0.0819071 0.00984177 0)
(-0.0891942 0.0100367 0)
(-0.0964309 0.0101356 0)
(-0.103539 0.0101306 0)
(-0.110438 0.0100157 0)
(-0.117049 0.00978656 0)
(-0.123298 0.0094404 0)
(-0.12911 0.0089763 0)
(-0.134417 0.00839492 0)
(-0.139157 0.00769851 0)
(-0.14327 0.00689074 0)
(-0.146706 0.00597668 0)
(-0.149419 0.00496268 0)
(-0.15137 0.00385637 0)
(-0.152527 0.00266662 0)
(-0.152865 0.0014033 0)
(-0.152363 7.72311e-05 0)
(-0.151012 -0.00129833 0)
(-0.148807 -0.00270837 0)
(-0.14575 -0.00413847 0)
(-0.14185 -0.00557254 0)
(-0.137126 -0.00699251 0)
(-0.131604 -0.00837901 0)
(-0.125318 -0.00971157 0)
(-0.118311 -0.0109689 0)
(-0.110635 -0.0121293 0)
(-0.102352 -0.013171 0)
(-0.0935307 -0.0140727 0)
(-0.0842516 -0.0148143 0)
(-0.0746016 -0.0153776 0)
(-0.0646761 -0.015747 0)
(-0.0545771 -0.0159104 0)
(-0.044412 -0.0158597 0)
(-0.0342923 -0.0155917 0)
(-0.0243312 -0.0151086 0)
(-0.0146419 -0.0144181 0)
(-0.00533501 -0.0135336 0)
(0.00348389 -0.0124741 0)
(0.0117166 -0.0112635 0)
(0.0192746 -0.00993016 0)
(0.0260819 -0.00850595 0)
(0.032076 -0.00702499 0)
(0.0372109 -0.00552252 0)
(0.041457 -0.00403361 0)
(0.0448027 -0.00259164 0)
(0.0472557 -0.00122651 0)
(0.0488419 3.48112e-05 0)
(0.0496027 0.00116936 0)
(0.0495948 0.00216026 0)
(0.0488902 0.00299728 0)
(0.0475719 0.00367564 0)
(0.0457299 0.00419618 0)
(0.0434592 0.00456507 0)
(0.0408553 0.004793 0)
(0.0380115 0.00489419 0)
(0.0350154 0.00488538 0)
(0.0319467 0.00478466 0)
(0.0288749 0.00461055 0)
(0.0258586 0.00438101 0)
(0.0229447 0.00411284 0)
(0.0201688 0.00382112 0)
(0.0175556 0.00351892 0)
(0.0151205 0.00321704 0)
(0.0128705 0.00292388 0)
(0.0108061 0.00264517 0)
(0.00892362 0.00238364 0)
(0.00721682 0.00213861 0)
(0.00567979 0.00190564 0)
(0.00430921 0.0016764 0)
(0.00310669 0.00143927 0)
(0.00208017 0.00118131 0)
(0.00124379 0.000892466 0)
(0.00061209 0.000573651 0)
(0.000207823 0.000249753 0)
(1.74234e-05 1.3563e-05 0)
(4.85425e-05 -0.00028598 0)
(0.000449654 -0.000952312 0)
(0.00114368 -0.00160112 0)
(0.00210697 -0.00213274 0)
(0.0032484 -0.002505 0)
(0.00449846 -0.00270384 0)
(0.00578187 -0.00273538 0)
(0.00702926 -0.00261967 0)
(0.00818176 -0.00238567 0)
(0.00919387 -0.00206698 0)
(0.0100344 -0.001698 0)
(0.010686 -0.00131069 0)
(0.0111441 -0.000932027 0)
(0.0114136 -0.000582192 0)
(0.0115063 -0.000273657 0)
(0.0114374 -1.09863e-05 0)
(0.0112221 0.000208666 0)
(0.0108723 0.000394429 0)
(0.0103946 0.000560084 0)
(0.00978832 0.000722282 0)
(0.0090448 0.000898571 0)
(0.00814736 0.00110557 0)
(0.00707225 0.0013576 0)
(0.00578992 0.00166576 0)
(0.00426668 0.00203769 0)
(0.00246622 0.00247789 0)
(0.00035112 0.00298835 0)
(-0.00211604 0.00356932 0)
(-0.00497169 0.00421992 0)
(-0.00825041 0.00493848 0)
(-0.011984 0.00572249 0)
(-0.0162004 0.00656829 0)
(-0.0209225 0.00747071 0)
(-0.0261667 0.00842253 0)
(-0.0319414 0.00941422 0)
(-0.0382455 0.0104337 0)
(-0.0450674 0.0114663 0)
(-0.0523836 0.0124951 0)
(-0.0601585 0.013501 0)
(-0.0683441 0.0144634 0)
(-0.0768804 0.0153607 0)
(-0.0856967 0.0161711 0)
(-0.0947128 0.0168732 0)
(-0.103841 0.017447 0)
(-0.11299 0.0178741 0)
(-0.122062 0.018139 0)
(-0.130964 0.0182289 0)
(-0.139601 0.0181341 0)
(-0.147885 0.0178484 0)
(-0.15573 0.0173688 0)
(-0.16306 0.0166953 0)
(-0.169805 0.0158308 0)
(-0.175902 0.0147807 0)
(-0.181299 0.0135522 0)
(-0.185947 0.0121547 0)
(-0.189809 0.0105989 0)
(-0.192852 0.00889689 0)
(-0.195051 0.00706172 0)
(-0.196386 0.00510765 0)
(-0.196843 0.00304996 0)
(-0.196412 0.000904977 0)
(-0.19509 -0.00131035 0)
(-0.192876 -0.003578 0)
(-0.189777 -0.00587678 0)
(-0.185802 -0.00818475 0)
(-0.180966 -0.0104789 0)
(-0.175289 -0.0127345 0)
(-0.168799 -0.0149249 0)
(-0.161527 -0.0170223 0)
(-0.153513 -0.0189972 0)
(-0.144805 -0.0208197 0)
(-0.135457 -0.0224592 0)
(-0.125532 -0.0238859 0)
(-0.115102 -0.025071 0)
(-0.104248 -0.025988 0)
(-0.0930569 -0.0266137 0)
(-0.0816254 -0.0269293 0)
(-0.0700559 -0.0269215 0)
(-0.0584563 -0.0265833 0)
(-0.0469382 -0.025915 0)
(-0.0356153 -0.0249245 0)
(-0.024601 -0.0236278 0)
(-0.0140061 -0.0220489 0)
(-0.00393658 -0.0202191 0)
(0.00550843 -0.0181764 0)
(0.0142392 -0.0159645 0)
(0.0221773 -0.0136313 0)
(0.029257 -0.0112273 0)
(0.0354273 -0.00880405 0)
(0.0406527 -0.00641254 0)
(0.0449148 -0.00410131 0)
(0.0482117 -0.00191581 0)
(0.0505585 0.000103757 0)
(0.0519891 0.00192452 0)
(0.0525536 0.00352134 0)
(0.0523169 0.00487695 0)
(0.0513578 0.00598267 0)
(0.0497659 0.00683855 0)
(0.0476387 0.00745276 0)
(0.0450776 0.00784073 0)
(0.0421847 0.00802378 0)
(0.0390587 0.00802764 0)
(0.0357917 0.0078807 0)
(0.0324666 0.00761242 0)
(0.0291551 0.00725184 0)
(0.0259166 0.00682633 0)
(0.0227975 0.00636064 0)
(0.0198325 0.00587613 0)
(0.0170447 0.00539016 0)
(0.0144481 0.00491547 0)
(0.0120492 0.00445952 0)
(0.00984967 0.00402381 0)
(0.00784912 0.00360332 0)
(0.00604802 0.0031865 0)
(0.00445042 0.00275634 0)
(0.00306597 0.00229352 0)
(0.0019107 0.00178238 0)
(0.00100098 0.00122171 0)
(0.000378918 0.000640203 0)
(3.91697e-05 0.000142065 0)
(6.16349e-05 -0.000520852 0)
(0.000558075 -0.00157034 0)
(0.00139147 -0.00252346 0)
(0.00252289 -0.00328255 0)
(0.00383607 -0.00380116 0)
(0.00524945 -0.00406459 0)
(0.00667778 -0.00408355 0)
(0.00804433 -0.00388753 0)
(0.00928502 -0.00351839 0)
(0.0103507 -0.00302439 0)
(0.0112078 -0.00245481 0)
(0.0118373 -0.00185525 0)
(0.0122332 -0.00126406 0)
(0.0123991 -0.000709746 0)
(0.0123448 -0.000209626 0)
(0.0120829 0.000230465 0)
(0.0116247 0.000615431 0)
(0.0109775 0.00095935 0)
(0.0101416 0.00128311 0)
(0.0091091 0.00161167 0)
(0.00786276 0.00197115 0)
(0.00637686 0.00238617 0)
(0.00461806 0.00287775 0)
(0.00254729 0.00346198 0)
(0.000121625 0.00414972 0)
(-0.00270368 0.00494698 0)
(-0.00597345 0.0058558 0)
(-0.009731 0.00687522 0)
(-0.0140167 0.00800197 0)
(-0.0188663 0.00923082 0)
(-0.0243097 0.0105543 0)
(-0.0303688 0.0119625 0)
(-0.0370555 0.013442 0)
(-0.0443705 0.014976 0)
(-0.0523006 0.0165436 0)
(-0.0608183 0.0181199 0)
(-0.0698805 0.019677 0)
(-0.0794287 0.0211836 0)
(-0.0893897 0.0226072 0)
(-0.0996775 0.0239144 0)
(-0.110195 0.0250723 0)
(-0.120838 0.0260504 0)
(-0.131498 0.0268209 0)
(-0.142064 0.0273604 0)
(-0.152428 0.0276502 0)
(-0.16249 0.0276769 0)
(-0.172152 0.0274324 0)
(-0.18133 0.0269138 0)
(-0.189948 0.0261228 0)
(-0.19794 0.0250651 0)
(-0.205251 0.02375 0)
(-0.211834 0.0221894 0)
(-0.217654 0.0203973 0)
(-0.22268 0.0183892 0)
(-0.22689 0.0161814 0)
(-0.230267 0.0137913 0)
(-0.232798 0.0112364 0)
(-0.234474 0.00853495 0)
(-0.23529 0.00570533 0)
(-0.235242 0.00276657 0)
(-0.234329 -0.000261505 0)
(-0.23255 -0.00335811 0)
(-0.22991 -0.00650158 0)
(-0.226413 -0.00966864 0)
(-0.222065 -0.0128337 0)
(-0.216877 -0.0159693 0)
(-0.210864 -0.019046 0)
(-0.204041 -0.0220322 0)
(-0.196433 -0.0248938 0)
(-0.188068 -0.027595 0)
(-0.178982 -0.0300985 0)
(-0.169217 -0.0323659 0)
(-0.158826 -0.0343588 0)
(-0.147869 -0.0360398 0)
(-0.136415 -0.0373738 0)
(-0.124543 -0.038329 0)
(-0.112341 -0.0388787 0)
(-0.0999053 -0.0390028 0)
(-0.0873398 -0.0386886 0)
(-0.0747537 -0.0379325 0)
(-0.06226 -0.0367407 0)
(-0.0499738 -0.0351295 0)
(-0.0380091 -0.0331255 0)
(-0.0264772 -0.0307648 0)
(-0.0154838 -0.0280927 0)
(-0.00512697 -0.025162 0)
(0.00450472 -0.0220315 0)
(0.0133338 -0.0187642 0)
(0.0212951 -0.0154256 0)
(0.0283369 -0.0120814 0)
(0.0344215 -0.00879631 0)
(0.0395259 -0.00563175 0)
(0.0436421 -0.00264381 0)
(0.0467785 0.000117784 0)
(0.048959 0.00261068 0)
(0.0502236 0.00480191 0)
(0.0506278 0.00666871 0)
(0.0502414 0.00819911 0)
(0.0491473 0.00939218 0)
(0.0474382 0.0102576 0)
(0.045214 0.0108148 0)
(0.0425777 0.0110914 0)
(0.039632 0.0111213 0)
(0.0364749 0.0109424 0)
(0.0331971 0.0105947 0)
(0.0298786 0.0101179 0)
(0.0265877 0.00954939 0)
(0.0233801 0.00892323 0)
(0.0202985 0.00826823 0)
(0.0173743 0.00760692 0)
(0.0146288 0.00695427 0)
(0.0120759 0.00631661 0)
(0.00972478 0.00569078 0)
(0.0075829 0.00506407 0)
(0.00565946 0.00441563 0)
(0.00396807 0.00372022 0)
(0.00252918 0.0029553 0)
(0.00136424 0.00211269 0)
(0.000538662 0.00121418 0)
(5.91241e-05 0.000352989 0)
(7.13437e-05 -0.000801506 0)
(0.000641142 -0.00229502 0)
(0.00158342 -0.00358526 0)
(0.00284376 -0.00458196 0)
(0.00428174 -0.00524042 0)
(0.0058026 -0.00554999 0)
(0.00731107 -0.00552965 0)
(0.008724 -0.00522108 0)
(0.00997363 -0.00468115 0)
(0.0110092 -0.00397429 0)
(0.0117965 -0.00316546 0)
(0.0123166 -0.0023142 0)
(0.0125629 -0.00146996 0)
(0.0125377 -0.000668903 0)
(0.0122483 6.7849e-05 0)
(0.0117033 0.000734452 0)
(0.0109081 0.00133931 0)
(0.0098627 0.00190284 0)
(0.00855844 0.00245433 0)
(0.00697732 0.00302807 0)
(0.00509156 0.00365946 0)
(0.00286456 0.00438133 0)
(0.000252669 0.00522116 0)
(-0.00279256 0.00619938 0)
(-0.00632188 0.00732899 0)
(-0.010386 0.00861604 0)
(-0.0150332 0.0100607 0)
(-0.0203075 0.0116583 0)
(-0.0262462 0.0134003 0)
(-0.0328781 0.015274 0)
(-0.0402206 0.0172625 0)
(-0.0482777 0.0193442 0)
(-0.0570378 0.0214923 0)
(-0.0664717 0.0236743 0)
(-0.0765316 0.0258528 0)
(-0.0871514 0.0279859 0)
(-0.0982472 0.0300287 0)
(-0.10972 0.0319349 0)
(-0.121459 0.0336589 0)
(-0.133343 0.0351575 0)
(-0.145251 0.036392 0)
(-0.15706 0.0373295 0)
(-0.168652 0.0379442 0)
(-0.179919 0.0382181 0)
(-0.190762 0.0381406 0)
(-0.201096 0.0377086 0)
(-0.210849 0.0369253 0)
(-0.219961 0.0357997 0)
(-0.228386 0.0343451 0)
(-0.236087 0.0325782 0)
(-0.243037 0.0305177 0)
(-0.249216 0.028184 0)
(-0.254612 0.0255982 0)
(-0.259215 0.0227811 0)
(-0.263019 0.0197539 0)
(-0.266022 0.0165368 0)
(-0.268219 0.01315 0)
(-0.269611 0.00961335 0)
(-0.270194 0.00594635 0)
(-0.269968 0.00216892 0)
(-0.268929 -0.00169849 0)
(-0.267077 -0.00563437 0)
(-0.264408 -0.00961578 0)
(-0.260921 -0.013618 0)
(-0.256616 -0.0176137 0)
(-0.251493 -0.0215733 0)
(-0.245557 -0.0254637 0)
(-0.238812 -0.0292493 0)
(-0.231271 -0.0328908 0)
(-0.222948 -0.0363465 0)
(-0.213867 -0.0395717 0)
(-0.204057 -0.0425201 0)
(-0.193557 -0.0451446 0)
(-0.182414 -0.0473981 0)
(-0.170686 -0.0492355 0)
(-0.158443 -0.050615 0)
(-0.145763 -0.0515004 0)
(-0.132738 -0.0518624 0)
(-0.119467 -0.0516807 0)
(-0.106058 -0.0509459 0)
(-0.0926254 -0.0496601 0)
(-0.0792878 -0.0478381 0)
(-0.0661649 -0.0455075 0)
(-0.0533748 -0.0427083 0)
(-0.0410313 -0.0394919 0)
(-0.0292412 -0.0359192 0)
(-0.0181018 -0.0320592 0)
(-0.00769972 -0.0279863 0)
(0.0018906 -0.0237784 0)
(0.0106075 -0.0195143 0)
(0.0184023 -0.015272 0)
(0.0252392 -0.0111266 0)
(0.0310956 -0.00714861 0)
(0.035962 -0.00340245 0)
(0.0398424 5.4733e-05 0)
(0.0427543 0.00317479 0)
(0.0447299 0.00591983 0)
(0.0458154 0.00826341 0)
(0.0460715 0.0101914 0)
(0.0455721 0.0117025 0)
(0.0444026 0.012808 0)
(0.0426573 0.0135311 0)
(0.0404362 0.0139049 0)
(0.0378408 0.0139706 0)
(0.0349707 0.0137748 0)
(0.0319196 0.0133668 0)
(0.0287724 0.0127957 0)
(0.0256032 0.0121077 0)
(0.022474 0.0113443 0)
(0.0194346 0.0105397 0)
(0.0165233 0.00971849 0)
(0.013769 0.00889455 0)
(0.0111934 0.00806913 0)
(0.0088142 0.00723071 0)
(0.00664868 0.00635629 0)
(0.00471738 0.00541527 0)
(0.00304803 0.00437663 0)
(0.00167013 0.00322029 0)
(0.000672787 0.00195167 0)
(7.57262e-05 0.00063638 0)
(7.88595e-05 -0.00111716 0)
(0.000705553 -0.00310215 0)
(0.0017309 -0.0047535 0)
(0.00308516 -0.00599012 0)
(0.00460501 -0.00677364 0)
(0.00618198 -0.00710227 0)
(0.00771078 -0.00700752 0)
(0.00910243 -0.00654684 0)
(0.0102867 -0.00579472 0)
(0.0112128 -0.00483339 0)
(0.0118474 -0.00374423 0)
(0.0121728 -0.00260055 0)
(0.0121827 -0.00146201 0)
(0.0118781 -0.000370939 0)
(0.0112632 0.000649506 0)
(0.0103409 0.00159545 0)
(0.00910913 0.00248071 0)
(0.00755786 0.0033338 0)
(0.00566732 0.00419367 0)
(0.00340728 0.00510472 0)
(0.00073774 0.00611167 0)
(-0.00238936 0.00725492 0)
(-0.00602751 0.0085671 0)
(-0.0102327 0.0100711 0)
(-0.0150602 0.0117796 0)
(-0.0205619 0.0136958 0)
(-0.0267832 0.0158146 0)
(-0.0337605 0.0181236 0)
(-0.0415184 0.0206039 0)
(-0.0500668 0.0232301 0)
(-0.0593981 0.0259699 0)
(-0.0694849 0.0287838 0)
(-0.0802785 0.0316256 0)
(-0.0917088 0.0344427 0)
(-0.103685 0.0371778 0)
(-0.116097 0.0397708 0)
(-0.128822 0.0421618 0)
(-0.141728 0.0442936 0)
(-0.154678 0.0461143 0)
(-0.167539 0.0475798 0)
(-0.180184 0.0486553 0)
(-0.192497 0.0493162 0)
(-0.204377 0.0495482 0)
(-0.215738 0.0493468 0)
(-0.226513 0.0487164 0)
(-0.236646 0.0476681 0)
(-0.246098 0.0462192 0)
(-0.254841 0.0443908 0)
(-0.262856 0.0422065 0)
(-0.270132 0.0396916 0)
(-0.276664 0.0368715 0)
(-0.28245 0.0337713 0)
(-0.28749 0.0304152 0)
(-0.291787 0.0268264 0)
(-0.295341 0.0230267 0)
(-0.298153 0.0190368 0)
(-0.300225 0.0148763 0)
(-0.301553 0.0105644 0)
(-0.302136 0.00611963 0)
(-0.30197 0.00156107 0)
(-0.301048 -0.0030917 0)
(-0.299365 -0.00781787 0)
(-0.296913 -0.0125948 0)
(-0.293682 -0.0173974 0)
(-0.289666 -0.0221979 0)
(-0.284857 -0.0269649 0)
(-0.279247 -0.0316634 0)
(-0.272833 -0.0362543 0)
(-0.265612 -0.0406944 0)
(-0.257589 -0.0449363 0)
(-0.24877 -0.0489288 0)
(-0.239172 -0.0526179 0)
(-0.228816 -0.055947 0)
(-0.217737 -0.0588592 0)
(-0.205979 -0.0612982 0)
(-0.193596 -0.0632107 0)
(-0.180658 -0.0645483 0)
(-0.167247 -0.0652706 0)
(-0.153456 -0.0653467 0)
(-0.139392 -0.064758 0)
(-0.125171 -0.0634999 0)
(-0.110915 -0.0615832 0)
(-0.0967537 -0.0590343 0)
(-0.082815 -0.0558953 0)
(-0.0692253 -0.0522227 0)
(-0.0561044 -0.0480858 0)
(-0.043563 -0.0435638 0)
(-0.0316996 -0.0387434 0)
(-0.0205993 -0.0337153 0)
(-0.0103327 -0.0285718 0)
(-0.000956334 -0.023404 0)
(0.00748718 -0.0182998 0)
(0.0149678 -0.013342 0)
(0.0214675 -0.00860731 0)
(0.0269793 -0.00416497 0)
(0.0315074 -7.57266e-05 0)
(0.0350673 0.00360938 0)
(0.0376862 0.00685029 0)
(0.0394043 0.00961915 0)
(0.0402745 0.0119015 0)
(0.0403627 0.0136968 0)
(0.0397465 0.0150186 0)
(0.0385137 0.0158937 0)
(0.0367588 0.0163607 0)
(0.03458 0.0164672 0)
(0.0320751 0.0162673 0)
(0.0293381 0.015818 0)
(0.0264556 0.0151761 0)
(0.0235049 0.0143943 0)
(0.020552 0.0135187 0)
(0.017652 0.0125849 0)
(0.0148495 0.011616 0)
(0.0121803 0.0106197 0)
(0.00967461 0.00958798 0)
(0.00736039 0.00849718 0)
(0.00526771 0.00731196 0)
(0.00343405 0.00599156 0)
(0.00189897 0.00450015 0)
(0.000772953 0.00281971 0)
(8.80211e-05 0.000977229 0)
(8.50487e-05 -0.00146058 0)
(0.000756772 -0.00397272 0)
(0.00184347 -0.00599947 0)
(0.00325979 -0.00746956 0)
(0.00482066 -0.0083547 0)
(0.00640393 -0.00866673 0)
(0.00789479 -0.00845437 0)
(0.00919937 -0.00779487 0)
(0.0102463 -0.00678335 0)
(0.0109859 -0.00552162 0)
(0.0113873 -0.00410802 0)
(0.0114347 -0.00262898 0)
(0.0111225 -0.00115289 0)
(0.0104503 0.000273888 0)
(0.00941794 0.00162867 0)
(0.00802125 0.0029121 0)
(0.00624845 0.00414577 0)
(0.00407771 0.00536808 0)
(0.00147605 0.00662873 0)
(-0.00160017 0.00798238 0)
(-0.00520349 0.00948218 0)
(-0.00939241 0.0111743 0)
(-0.0142278 0.0130937 0)
(-0.0197689 0.0152623 0)
(-0.0260698 0.0176885 0)
(-0.033176 0.020368 0)
(-0.0411207 0.0232852 0)
(-0.0499217 0.0264142 0)
(-0.0595785 0.0297196 0)
(-0.070069 0.0331564 0)
(-0.0813477 0.0366706 0)
(-0.0933442 0.0401999 0)
(-0.105965 0.0436749 0)
(-0.119093 0.0470218 0)
(-0.132598 0.0501653 0)
(-0.146335 0.0530325 0)
(-0.160155 0.0555564 0)
(-0.173912 0.0576789 0)
(-0.187471 0.0593537 0)
(-0.200705 0.060547 0)
(-0.21351 0.0612386 0)
(-0.225798 0.0614207 0)
(-0.237499 0.0610968 0)
(-0.248562 0.0602796 0)
(-0.258952 0.0589889 0)
(-0.268647 0.0572498 0)
(-0.277634 0.0550905 0)
(-0.285908 0.0525409 0)
(-0.293471 0.049631 0)
(-0.300325 0.0463903 0)
(-0.306478 0.0428469 0)
(-0.311934 0.0390271 0)
(-0.316702 0.0349555 0)
(-0.320785 0.0306544 0)
(-0.324187 0.0261448 0)
(-0.326911 0.0214458 0)
(-0.328957 0.0165756 0)
(-0.330323 0.0115513 0)
(-0.331007 0.00639003 0)
(-0.331003 0.00110897 0)
(-0.330305 -0.00427384 0)
(-0.328901 -0.00973902 0)
(-0.326783 -0.0152651 0)
(-0.323938 -0.0208279 0)
(-0.320351 -0.0263999 0)
(-0.316009 -0.0319497 0)
(-0.310897 -0.0374414 0)
(-0.304999 -0.0428342 0)
(-0.298304 -0.0480819 0)
(-0.290799 -0.0531331 0)
(-0.282478 -0.0579313 0)
(-0.273339 -0.0624154 0)
(-0.263387 -0.0665203 0)
(-0.252637 -0.0701788 0)
(-0.241113 -0.0733229 0)
(-0.228854 -0.0758861 0)
(-0.215911 -0.0778064 0)
(-0.202352 -0.0790285 0)
(-0.18826 -0.0795077 0)
(-0.173735 -0.0792124 0)
(-0.15889 -0.0781267 0)
(-0.143853 -0.0762529 0)
(-0.12876 -0.0736127 0)
(-0.113753 -0.0702471 0)
(-0.0989758 -0.066216 0)
(-0.0845671 -0.0615958 0)
(-0.0706583 -0.0564767 0)
(-0.0573678 -0.0509589 0)
(-0.0447986 -0.0451486 0)
(-0.0330362 -0.0391539 0)
(-0.0221482 -0.0330815 0)
(-0.0121849 -0.0270336 0)
(-0.00318128 -0.0211061 0)
(0.00484133 -0.0153872 0)
(0.0118729 -0.00995663 0)
(0.0179133 -0.00488494 0)
(0.0229712 -0.000233248 0)
(0.0270639 0.00394772 0)
(0.0302182 0.00761864 0)
(0.0324711 0.0107528 0)
(0.0338709 0.0133374 0)
(0.0344775 0.0153743 0)
(0.0343622 0.0168801 0)
(0.0336062 0.0178861 0)
(0.0322986 0.0184356 0)
(0.0305329 0.0185823 0)
(0.0284039 0.0183865 0)
(0.0260036 0.0179111 0)
(0.0234185 0.0172181 0)
(0.0207269 0.0163634 0)
(0.0179975 0.0153936 0)
(0.0152895 0.0143412 0)
(0.0126528 0.0132219 0)
(0.010131 0.0120323 0)
(0.00776431 0.0107495 0)
(0.00559417 0.00933407 0)
(0.0036693 0.00773486 0)
(0.00204024 0.00589804 0)
(0.000834864 0.0037781 0)
(9.55394e-05 0.00135766 0)
(9.04224e-05 -0.00182692 0)
(0.000798034 -0.00489146 0)
(0.00192658 -0.00729741 0)
(0.0033744 -0.00898448 0)
(0.0049355 -0.00993824 0)
(0.00647469 -0.0101891 0)
(0.00786877 -0.00980791 0)
(0.00902037 -0.00889623 0)
(0.00985847 -0.00757289 0)
(0.010336 -0.00596092 0)
(0.0104256 -0.00417577 0)
(0.0101138 -0.0023159 0)
(0.00939553 -0.000456242 0)
(0.00826804 0.00135558 0)
(0.00672559 0.00310047 0)
(0.00475515 0.00478653 0)
(0.00233331 0.00644557 0)
(-0.000575279 0.00812747 0)
(-0.0040177 0.00989315 0)
(-0.00805092 0.0118066 0)
(-0.0127384 0.0139271 0)
(-0.0181458 0.0163032 0)
(-0.0243363 0.0189679 0)
(-0.0313656 0.0219368 0)
(-0.039278 0.0252081 0)
(-0.048102 0.028764 0)
(-0.0578471 0.0325713 0)
(-0.0685001 0.0365839 0)
(-0.0800224 0.0407427 0)
(-0.0923487 0.0449777 0)
(-0.105386 0.0492089 0)
(-0.119018 0.0533492 0)
(-0.133105 0.057308 0)
(-0.147496 0.0609953 0)
(-0.162029 0.0643267 0)
(-0.176546 0.0672275 0)
(-0.190899 0.0696362 0)
(-0.204951 0.0715068 0)
(-0.218587 0.0728095 0)
(-0.231713 0.0735303 0)
(-0.244258 0.0736693 0)
(-0.256168 0.0732386 0)
(-0.267408 0.0722595 0)
(-0.277959 0.0707597 0)
(-0.287811 0.0687714 0)
(-0.296963 0.0663288 0)
(-0.305421 0.0634667 0)
(-0.313191 0.060219 0)
(-0.320285 0.0566185 0)
(-0.326714 0.0526957 0)
(-0.332487 0.0484787 0)
(-0.337615 0.0439934 0)
(-0.342108 0.039263 0)
(-0.345972 0.0343089 0)
(-0.349215 0.0291501 0)
(-0.35184 0.0238041 0)
(-0.353851 0.0182873 0)
(-0.355249 0.0126148 0)
(-0.356033 0.00680155 0)
(-0.356198 0.000862726 0)
(-0.355739 -0.00518589 0)
(-0.354648 -0.0113271 0)
(-0.352913 -0.0175417 0)
(-0.35052 -0.0238075 0)
(-0.347452 -0.030099 0)
(-0.34369 -0.0363861 0)
(-0.339212 -0.042634 0)
(-0.333994 -0.0488021 0)
(-0.328014 -0.0548436 0)
(-0.321245 -0.0607052 0)
(-0.313665 -0.066327 0)
(-0.305254 -0.0716425 0)
(-0.295996 -0.07658 0)
(-0.285884 -0.0810626 0)
(-0.274918 -0.085011 0)
(-0.263111 -0.0883451 0)
(-0.250493 -0.0909872 0)
(-0.237108 -0.092865 0)
(-0.22302 -0.0939158 0)
(-0.208314 -0.0940901 0)
(-0.193094 -0.0933551 0)
(-0.177485 -0.0916988 0)
(-0.161626 -0.0891315 0)
(-0.145672 -0.0856877 0)
(-0.129784 -0.0814259 0)
(-0.114126 -0.0764268 0)
(-0.0988561 -0.0707901 0)
(-0.084123 -0.0646304 0)
(-0.0700586 -0.0580715 0)
(-0.0567742 -0.0512415 0)
(-0.0443591 -0.0442672 0)
(-0.0328793 -0.0372699 0)
(-0.0223795 -0.0303626 0)
(-0.0128856 -0.0236475 0)
(-0.00440823 -0.0172159 0)
(0.00305362 -0.0111476 0)
(0.00950999 -0.00551164 0)
(0.0149779 -0.000366228 0)
(0.0194806 0.00424127 0)
(0.0230482 0.00827514 0)
(0.0257183 0.0117124 0)
(0.0275377 0.014544 0)
(0.028563 0.0167759 0)
(0.028861 0.0184292 0)
(0.0285081 0.0195397 0)
(0.0275883 0.0201562 0)
(0.0261907 0.0203373 0)
(0.0244062 0.020148 0)
(0.0223243 0.0196552 0)
(0.0200301 0.0189223 0)
(0.0176021 0.0180044 0)
(0.0151109 0.0169432 0)
(0.0126192 0.015762 0)
(0.0101834 0.0144625 0)
(0.00785636 0.0130237 0)
(0.00569161 0.0114023 0)
(0.00374951 0.00953704 0)
(0.00209145 0.00735543 0)
(0.000857611 0.00478352 0)
(9.82111e-05 0.00175861 0)
(9.51503e-05 -0.0022125 0)
(0.000830247 -0.00584462 0)
(0.00198123 -0.00862233 0)
(0.00342905 -0.0104988 0)
(0.00494779 -0.0114778 0)
(0.00639039 -0.0116136 0)
(0.00762702 -0.011005 0)
(0.00855878 -0.00978195 0)
(0.00911675 -0.00809008 0)
(0.00925795 -0.00607492 0)
(0.00895894 -0.0038686 0)
(0.00820892 -0.00157979 0)
(0.00700254 0.000712823 0)
(0.00533331 0.00296381 0)
(0.00318814 0.00516108 0)
(0.000543272 0.0073233 0)
(-0.00263787 0.00949462 0)
(-0.00640491 0.0117373 0)
(-0.0108186 0.0141227 0)
(-0.0159471 0.0167218 0)
(-0.0218609 0.019596 0)
(-0.0286267 0.0227908 0)
(-0.0363021 0.0263308 0)
(-0.0449299 0.0302185 0)
(-0.0545333 0.0344348 0)
(-0.0651121 0.0389402 0)
(-0.0766395 0.0436773 0)
(-0.0890596 0.0485725 0)
(-0.102287 0.0535385 0)
(-0.116206 0.058477 0)
(-0.130679 0.0632829 0)
(-0.145545 0.0678489 0)
(-0.160637 0.0720716 0)
(-0.175782 0.0758567 0)
(-0.190816 0.0791237 0)
(-0.20559 0.0818101 0)
(-0.219975 0.0838723 0)
(-0.233866 0.085286 0)
(-0.247182 0.0860444 0)
(-0.259865 0.086156 0)
(-0.271877 0.0856411 0)
(-0.283195 0.0845288 0)
(-0.293811 0.0828538 0)
(-0.303724 0.0806542 0)
(-0.31294 0.0779694 0)
(-0.321471 0.0748383 0)
(-0.32933 0.0712985 0)
(-0.336532 0.0673856 0)
(-0.34309 0.0631327 0)
(-0.349021 0.0585703 0)
(-0.354338 0.053726 0)
(-0.359058 0.0486247 0)
(-0.363192 0.0432888 0)
(-0.366753 0.0377382 0)
(-0.369752 0.0319906 0)
(-0.3722 0.0260619 0)
(-0.374103 0.0199663 0)
(-0.375467 0.013717 0)
(-0.376295 0.00732659 0)