/*--------------------------------*- C++ -*----------------------------------*\
| =========                 |                                                 |
| \\      /  F ield         | OpenFOAM: The Open Source CFD Toolbox           |
|  \\    /   O peration     | Version:  2406                                  |
|   \\  /    A nd           | Website:  www.openfoam.com                      |
|    \\/     M anipulation  |                                                 |
\*---------------------------------------------------------------------------*/
FoamFile
{
    version     2.0;
    format      ascii;
    arch        "LSB;label=32;scalar=64";
    class       volVectorField;
    location    "27.55";
    object      Uold;
}
// * * * * * * * * * * * * * * * * * * * * * * * * * * * * * * * * * * * * * //

dimensions      [0 1 -1 0 0 0 0];

internalField   nonuniform List<vector> 
3600
(
(3.92286e-05 -4.07739e-05 0)
(0.000393541 -0.000162263 0)
(0.000969441 -0.000208771 0)
(0.0015549 -0.000208187 0)
(0.00211789 -0.000182567 0)
(0.00256409 -0.000149303 0)
(0.00292163 -0.000117759 0)
(0.00315622 -8.92274e-05 0)
(0.00329755 -6.5689e-05 0)
(0.00332533 -4.32137e-05 0)
(0.00324773 -2.10521e-05 0)
(0.00303778 5.71166e-06 0)
(0.00267752 3.89428e-05 0)
(0.00212519 8.3806e-05 0)
(0.00133704 0.000142996 0)
(0.000254269 0.000220973 0)
(-0.00118491 0.000319277 0)
(-0.00304409 0.000439403 0)
(-0.00538057 0.000578655 0)
(-0.00823745 0.00073192 0)
(-0.0116376 0.000891154 0)
(-0.0155705 0.0010508 0)
(-0.0199838 0.0012068 0)
(-0.0247682 0.00135359 0)
(-0.0297565 0.00147619 0)
(-0.0347203 0.00154892 0)
(-0.0393847 0.00153863 0)
(-0.0434422 0.00141469 0)
(-0.0465807 0.00115659 0)
(-0.0485057 0.000760201 0)
(-0.0489709 0.000238162 0)
(-0.0477952 -0.000380334 0)
(-0.0448883 -0.00105314 0)
(-0.0402586 -0.00172742 0)
(-0.034032 -0.00234454 0)
(-0.0264473 -0.0028439 0)
(-0.0178635 -0.00316989 0)
(-0.00873241 -0.0032783 0)
(0.000413456 -0.00314483 0)
(0.0090217 -0.00277176 0)
(0.0165523 -0.00219262 0)
(0.0225645 -0.00147175 0)
(0.0267445 -0.000696444 0)
(0.0289833 3.65792e-05 0)
(0.0293522 0.000642229 0)
(0.028129 0.00106389 0)
(0.0256943 0.00128748 0)
(0.0225147 0.00133624 0)
(0.0189999 0.00125977 0)
(0.0155199 0.00111032 0)
(0.0122888 0.000933316 0)
(0.00946818 0.00075614 0)
(0.00706993 0.000597969 0)
(0.00511842 0.000463521 0)
(0.0035221 0.000360206 0)
(0.00226527 0.000277387 0)
(0.00124901 0.0002132 0)
(0.000503556 0.000128272 0)
(3.70313e-05 2.7502e-05 0)
(-8.6757e-05 -9.23982e-05 0)
(0.000160685 -0.000392199 0)
(0.00090402 -0.000902417 0)
(0.00197655 -0.00108197 0)
(0.0030244 -0.00104881 0)
(0.00398785 -0.000899512 0)
(0.00470188 -0.000691174 0)
(0.00517827 -0.000469035 0)
(0.00534182 -0.000235333 0)
(0.00520109 4.92021e-07 0)
(0.00469339 0.000259374 0)
(0.00378383 0.000548559 0)
(0.00238384 0.000894254 0)
(0.000405546 0.00130932 0)
(-0.0022749 0.00181852 0)
(-0.00578811 0.00243371 0)
(-0.0102764 0.00316833 0)
(-0.0158697 0.00401699 0)
(-0.0226661 0.00496536 0)
(-0.0307069 0.00597885 0)
(-0.0399435 0.00701209 0)
(-0.050216 0.00799889 0)
(-0.0612326 0.00885529 0)
(-0.0725892 0.00947639 0)
(-0.0837949 0.00975483 0)
(-0.0943275 0.00959522 0)
(-0.103674 0.00893417 0)
(-0.111376 0.00774464 0)
(-0.117049 0.00604087 0)
(-0.120401 0.00387174 0)
(-0.121224 0.00131892 0)
(-0.119401 -0.00151168 0)
(-0.114897 -0.00449101 0)
(-0.107768 -0.00747383 0)
(-0.0981523 -0.0102989 0)
(-0.0862875 -0.0127977 0)
(-0.0725045 -0.0147984 0)
(-0.057244 -0.016142 0)
(-0.0410351 -0.0166946 0)
(-0.0245031 -0.0163711 0)
(-0.0083178 -0.0151519 0)
(0.00681591 -0.0131023 0)
(0.0202458 -0.0103762 0)
(0.0313874 -0.00721027 0)
(0.039831 -0.00389796 0)
(0.0453305 -0.000748332 0)
(0.0479003 0.00196002 0)
(0.0477425 0.00402937 0)
(0.0453107 0.00536817 0)
(0.0411519 0.00600336 0)
(0.0359377 0.00605001 0)
(0.0302402 0.00567844 0)
(0.0246049 0.00505747 0)
(0.0193338 0.00433838 0)
(0.0146823 0.0036186 0)
(0.0106563 0.00297332 0)
(0.00731744 0.00240292 0)
(0.00454337 0.00190728 0)
(0.00240358 0.00136372 0)
(0.00085539 0.000768129 0)
(6.94643e-05 6.02281e-05 0)
(0.000214353 -0.000973751 0)
(0.00109887 -0.00197881 0)
(0.00231493 -0.00229927 0)
(0.00342135 -0.00216264 0)
(0.00434379 -0.00178233 0)
(0.00488077 -0.00125026 0)
(0.00501616 -0.000659282 0)
(0.00463569 -3.9056e-06 0)
(0.00369817 0.000702555 0)
(0.00208358 0.00151156 0)
(-0.000316164 0.00244746 0)
(-0.00366684 0.00357076 0)
(-0.00814333 0.00491345 0)
(-0.0139474 0.00652301 0)
(-0.021274 0.00841183 0)
(-0.0302873 0.0105781 0)
(-0.0410793 0.0129653 0)
(-0.053615 0.0154774 0)
(-0.067695 0.0179553 0)
(-0.0829292 0.0201967 0)
(-0.0987762 0.0219642 0)
(-0.114599 0.0230377 0)
(-0.12976 0.0232438 0)
(-0.143677 0.0224876 0)
(-0.155873 0.0207447 0)
(-0.16598 0.0180559 0)
(-0.173739 0.0145037 0)
(-0.178969 0.010204 0)
(-0.181561 0.00529116 0)
(-0.181445 -8.05764e-05 0)
(-0.178598 -0.0057433 0)
(-0.173023 -0.0115081 0)
(-0.164768 -0.0171682 0)
(-0.153923 -0.0224919 0)
(-0.140645 -0.0272306 0)
(-0.125162 -0.0311207 0)
(-0.107804 -0.0339051 0)
(-0.0889959 -0.0353507 0)
(-0.0692792 -0.0352868 0)
(-0.0492761 -0.0336315 0)
(-0.0296911 -0.0304305 0)
(-0.0112309 -0.025867 0)
(0.0054077 -0.0202668 0)
(0.019647 -0.0140642 0)
(0.0310182 -0.00775624 0)
(0.0392699 -0.00183846 0)
(0.0443064 0.00326075 0)
(0.0462935 0.00723119 0)
(0.045541 0.00992222 0)
(0.0426014 0.0113487 0)
(0.0380617 0.0116786 0)
(0.0326274 0.011175 0)
(0.0268322 0.0101442 0)
(0.0212024 0.00885484 0)
(0.01596 0.00752779 0)
(0.0113588 0.0062543 0)
(0.00735907 0.00506429 0)
(0.00414057 0.00379214 0)
(0.00164441 0.00236927 0)
(0.000235369 0.00065556 0)
(0.000228331 -0.00157906 0)
(0.00108854 -0.00302776 0)
(0.00218113 -0.00339548 0)
(0.00303385 -0.0030357 0)
(0.0035607 -0.00229591 0)
(0.00354223 -0.00128515 0)
(0.00292149 -0.000135332 0)
(0.00153804 0.00118408 0)
(-0.000723479 0.00266675 0)
(-0.00405717 0.00440672 0)
(-0.00866516 0.00645168 0)
(-0.0147953 0.00889715 0)
(-0.0227 0.0117829 0)
(-0.0326127 0.0151504 0)
(-0.0446999 0.0189596 0)
(-0.0589865 0.0231129 0)
(-0.0753049 0.0273949 0)
(-0.0932453 0.0315065 0)
(-0.112203 0.0350743 0)
(-0.131452 0.0377438 0)
(-0.150279 0.0392314 0)
(-0.168057 0.0393779 0)
(-0.184308 0.0381323 0)
(-0.198686 0.0355388 0)
(-0.210964 0.0316938 0)
(-0.22099 0.0267301 0)
(-0.228672 0.0207911 0)
(-0.233938 0.0140311 0)
(-0.236738 0.00660484 0)
(-0.237017 -0.00132024 0)
(-0.234734 -0.00956625 0)
(-0.22984 -0.0179284 0)
(-0.222307 -0.0261747 0)
(-0.21212 -0.0340319 0)
(-0.199316 -0.0411916 0)
(-0.183984 -0.0473082 0)
(-0.16631 -0.0520243 0)
(-0.146582 -0.0549909 0)
(-0.125232 -0.0559197 0)
(-0.102816 -0.0546228 0)
(-0.0800278 -0.0510738 0)
(-0.0576285 -0.0454325 0)
(-0.0364214 -0.0380644 0)
(-0.0171283 -0.0295014 0)
(-0.000374354 -0.0203875 0)
(0.0134288 -0.0113892 0)
(0.0240176 -0.00311927 0)
(0.0313643 0.00392682 0)
(0.0355518 0.00941253 0)
(0.0368982 0.0131843 0)
(0.0357925 0.0152815 0)
(0.0328428 0.0159165 0)
(0.0285977 0.0154281 0)
(0.0237193 0.0141983 0)
(0.0186086 0.0125872 0)
(0.0137375 0.0108267 0)
(0.00921519 0.00901933 0)
(0.00538895 0.00702285 0)
(0.0022479 0.00466246 0)
(0.000367045 0.00166215 0)
(0.000214639 -0.00218564 0)
(0.000919596 -0.0039709 0)
(0.00167978 -0.00425011 0)
(0.00203549 -0.00351332 0)
(0.00187914 -0.00224472 0)
(0.000981305 -0.000549747 0)
(-0.000775908 0.0014142 0)
(-0.00360606 0.00372271 0)
(-0.00771911 0.00638881 0)
(-0.0133876 0.00955836 0)
(-0.0209067 0.0132998 0)
(-0.0305734 0.0177255 0)
(-0.0426501 0.0228397 0)
(-0.0572739 0.0285997 0)
(-0.0743997 0.0347973 0)
(-0.0937012 0.0411013 0)
(-0.1146 0.0470306 0)
(-0.13632 0.0520815 0)
(-0.158065 0.0558025 0)
(-0.179115 0.0579002 0)
(-0.198928 0.0582314 0)
(-0.217113 0.056797 0)
(-0.233428 0.0536808 0)
(-0.247716 0.0490267 0)
(-0.259894 0.0429956 0)
(-0.269905 0.0357609 0)
(-0.277724 0.0274867 0)
(-0.283325 0.0183376 0)
(-0.286688 0.00846958 0)
(-0.287775 -0.00195183 0)
(-0.286541 -0.0127531 0)
(-0.282916 -0.0237299 0)
(-0.276819 -0.0346452 0)
(-0.268151 -0.0452067 0)
(-0.256824 -0.0550689 0)
(-0.242768 -0.0638224 0)
(-0.22598 -0.0710162 0)
(-0.206544 -0.0761751 0)
(-0.184699 -0.0788591 0)
(-0.160853 -0.0787172 0)
(-0.135627 -0.0755763 0)
(-0.109819 -0.0694961 0)
(-0.0843758 -0.0608236 0)
(-0.0602569 -0.0501669 0)
(-0.0383537 -0.0383358 0)
(-0.0193168 -0.0262091 0)
(-0.00356838 -0.0146171 0)
(0.00877175 -0.00423948 0)
(0.0177197 0.00442963 0)
(0.0234966 0.0110984 0)
(0.0263532 0.0156691 0)
(0.0267502 0.0182484 0)
(0.0251269 0.0191124 0)
(0.0221232 0.0186662 0)
(0.018195 0.0173395 0)
(0.0139493 0.0154919 0)
(0.00963403 0.013301 0)
(0.00576719 0.01069 0)
(0.00244354 0.00736475 0)
(0.000406482 0.00290534 0)
(0.000179763 -0.00265219 0)
(0.000603265 -0.00453947 0)
(0.000820082 -0.00452322 0)
(0.000433012 -0.00321267 0)
(-0.000697476 -0.00120818 0)
(-0.0028043 0.00141779 0)
(-0.00609123 0.00450517 0)
(-0.0108307 0.00819322 0)
(-0.0173404 0.0125212 0)
(-0.0259552 0.0176779 0)
(-0.0370261 0.0237202 0)
(-0.0508079 0.0307126 0)
(-0.0674296 0.0385201 0)
(-0.0867385 0.0468795 0)
(-0.108301 0.0552866 0)
(-0.131377 0.0631326 0)
(-0.155107 0.06977 0)
(-0.178633 0.0747002 0)
(-0.201273 0.077603 0)
(-0.222509 0.0783691 0)
(-0.242015 0.0770237 0)
(-0.259577 0.0737005 0)
(-0.275094 0.0685749 0)
(-0.288515 0.0618542 0)
(-0.299855 0.0537386 0)
(-0.309145 0.0444267 0)
(-0.316449 0.0340926 0)
(-0.321821 0.0229006 0)
(-0.325319 0.0109943 0)
(-0.326963 -0.0014826 0)
(-0.326752 -0.0143876 0)
(-0.324627 -0.0275518 0)
(-0.320491 -0.040775 0)
(-0.31418 -0.0537945 0)
(-0.305495 -0.06628 0)
(-0.294193 -0.0778085 0)
(-0.280041 -0.0878764 0)
(-0.262842 -0.0959027 0)
(-0.24252 -0.101284 0)
(-0.219172 -0.103451 0)
(-0.19317 -0.101979 0)
(-0.165178 -0.0966855 0)
(-0.136187 -0.0877445 0)
(-0.107399 -0.0757169 0)
(-0.0801108 -0.0615309 0)
(-0.0554528 -0.0463269 0)
(-0.0342509 -0.0312673 0)
(-0.0168612 -0.0173271 0)
(-0.0033168 -0.0052073 0)
(0.00664121 0.00468317 0)
(0.0132957 0.0121557 0)
(0.0170739 0.0172356 0)
(0.0183413 0.0201081 0)
(0.017666 0.0211364 0)
(0.0154808 0.0207394 0)
(0.0124337 0.0193445 0)
(0.00886726 0.01717 0)
(0.00542147 0.0142045 0)
(0.00231662 0.0100442 0)
(0.000381893 0.0041513 0)
(0.000119952 -0.00296469 0)
(0.0001301 -0.00465203 0)
(-0.000400861 -0.004091 0)
(-0.00175993 -0.00197905 0)
(-0.00413496 0.00100925 0)
(-0.00776025 0.00486997 0)
(-0.0129491 0.00946392 0)
(-0.0200266 0.0150022 0)
(-0.0294068 0.0215401 0)
(-0.0414298 0.0292689 0)
(-0.05641 0.0381579 0)
(-0.0744107 0.0481048 0)
(-0.0952612 0.0586951 0)
(-0.118393 0.0693386 0)
(-0.143003 0.0792438 0)
(-0.16812 0.0876742 0)
(-0.192876 0.0940321 0)
(-0.216543 0.097989 0)
(-0.238626 0.0994185 0)
(-0.258775 0.0983812 0)
(-0.276804 0.0950307 0)
(-0.292617 0.0895997 0)
(-0.30623 0.0823379 0)
(-0.317707 0.0735119 0)
(-0.327186 0.0633633 0)
(-0.334816 0.0521176 0)
(-0.340775 0.0399576 0)
(-0.345213 0.0270417 0)
(-0.348278 0.0134902 0)
(-0.35006 -0.000588206 0)
(-0.350617 -0.0151001 0)
(-0.349928 -0.0299348 0)
(-0.347917 -0.04496 0)
(-0.344406 -0.0599833 0)
(-0.339145 -0.0747422 0)
(-0.331775 -0.088865 0)
(-0.321876 -0.101866 0)
(-0.308972 -0.113128 0)
(-0.292623 -0.121931 0)
(-0.272484 -0.127497 0)
(-0.248462 -0.129093 0)
(-0.220804 -0.126159 0)
(-0.190235 -0.118481 0)
(-0.157948 -0.106322 0)
(-0.125555 -0.0905112 0)
(-0.0947978 -0.0723623 0)
(-0.0672614 -0.053465 0)
(-0.0439709 -0.0353264 0)
(-0.0253183 -0.0190995 0)
(-0.0110792 -0.00544204 0)
(-0.000807937 0.0053691 0)
(0.00608189 0.0133503 0)
(0.0100452 0.0186581 0)
(0.0116529 0.0216303 0)
(0.0113271 0.0226447 0)
(0.00970836 0.0221445 0)
(0.007195 0.020346 0)
(0.00448556 0.017277 0)
(0.00191173 0.0124514 0)
(0.000299657 0.00526367 0)
(2.56712e-05 -0.0029743 0)
(-0.000531986 -0.0040438 0)
(-0.00203079 -0.00263838 0)
(-0.00459703 0.000534277 0)
(-0.00848788 0.00479195 0)
(-0.0139353 0.010237 0)
(-0.0213772 0.0167672 0)
(-0.0311637 0.0246505 0)
(-0.0437608 0.0339139 0)
(-0.0594127 0.0446637 0)
(-0.0782639 0.0566589 0)
(-0.100035 0.0694934 0)
(-0.12417 0.0823913 0)
(-0.149729 0.0944741 0)
(-0.175726 0.104831 0)
(-0.201178 0.1128 0)
(-0.225348 0.117965 0)
(-0.247656 0.120204 0)
(-0.267755 0.119566 0)
(-0.285421 0.116262 0)
(-0.300614 0.110572 0)
(-0.31338 0.102836 0)
(-0.323896 0.0933892 0)
(-0.332374 0.0825606 0)
(-0.339092 0.0706262 0)
(-0.344307 0.0578229 0)
(-0.34829 0.044323 0)
(-0.351258 0.0302594 0)
(-0.353417 0.0157133 0)
(-0.354901 0.000744967 0)
(-0.355817 -0.0146121 0)
(-0.356193 -0.0303174 0)
(-0.356005 -0.0463228 0)
(-0.355124 -0.0625333 0)
(-0.353335 -0.078797 0)
(-0.35028 -0.0948568 0)
(-0.345482 -0.110333 0)
(-0.338309 -0.124676 0)
(-0.328042 -0.137169 0)
(-0.313912 -0.146922 0)
(-0.295257 -0.152948 0)
(-0.271661 -0.154271 0)
(-0.243191 -0.150124 0)
(-0.210537 -0.140163 0)
(-0.175146 -0.124715 0)
(-0.139081 -0.104877 0)
(-0.10474 -0.0824587 0)
(-0.0742661 -0.0596114 0)
(-0.0490625 -0.0383167 0)
(-0.0294632 -0.0198966 0)
(-0.0150361 -0.00494917 0)
(-0.00492988 0.00651237 0)
(0.00161187 0.0147025 0)
(0.00533753 0.0200182 0)
(0.00676833 0.0228352 0)
(0.00656569 0.0236008 0)
(0.00518089 0.0225077 0)
(0.00332526 0.0195927 0)
(0.00141475 0.0143269 0)
(0.000205458 0.00610115 0)
(-0.000108176 -0.00262839 0)
(-0.00139065 -0.00260036 0)
(-0.00406221 -2.98474e-05 0)
(-0.00804059 0.00447618 0)
(-0.0136774 0.0103159 0)
(-0.0211932 0.0177274 0)
(-0.0311466 0.026643 0)
(-0.0438563 0.037338 0)
(-0.059759 0.0497268 0)
(-0.0788749 0.0637046 0)
(-0.101059 0.0786926 0)
(-0.125622 0.0939071 0)
(-0.151681 0.108258 0)
(-0.178087 0.120738 0)
(-0.203856 0.130503 0)
(-0.228093 0.137079 0)
(-0.250212 0.140261 0)
(-0.269763 0.140126 0)
(-0.286567 0.136902 0)
(-0.300572 0.130967 0)
(-0.311938 0.122739 0)
(-0.320896 0.11267 0)
(-0.327797 0.101162 0)
(-0.332977 0.0885818 0)
(-0.336808 0.0752054 0)
(-0.339593 0.0612518 0)
(-0.34163 0.0468589 0)
(-0.343135 0.0321207 0)
(-0.344313 0.0170745 0)
(-0.345295 0.00173756 0)
(-0.346203 -0.0139041 0)
(-0.347093 -0.0298628 0)
(-0.348001 -0.0461565 0)
(-0.348882 -0.062775 0)
(-0.349631 -0.0796769 0)
(-0.350008 -0.0967439 0)
(-0.349644 -0.113759 0)
(-0.347967 -0.130346 0)
(-0.344211 -0.145933 0)
(-0.337402 -0.159704 0)
(-0.326457 -0.170609 0)
(-0.310303 -0.177403 0)
(-0.288137 -0.178801 0)
(-0.259696 -0.173715 0)
(-0.225584 -0.161587 0)
(-0.187425 -0.142721 0)
(-0.147847 -0.118524 0)
(-0.109996 -0.0914055 0)
(-0.0767932 -0.0642866 0)
(-0.0500219 -0.0397189 0)
(-0.0300032 -0.0192496 0)
(-0.0158778 -0.00325779 0)
(-0.00647276 0.00850915 0)
(-0.000640387 0.0166248 0)
(0.00243011 0.0215805 0)
(0.00353059 0.0238858 0)
(0.00320937 0.0237383 0)
(0.00218563 0.0211788 0)
(0.00093443 0.0156848 0)
(0.00011896 0.00669174 0)
(-0.000291335 -0.00175668 0)
(-0.00246461 -6.11012e-05 0)
(-0.00650292 0.00401347 0)
(-0.0120734 0.0101349 0)
(-0.0196453 0.017885 0)
(-0.0294061 0.0276461 0)
(-0.0420067 0.0393512 0)
(-0.0576501 0.0531922 0)
(-0.0766454 0.068855 0)
(-0.098678 0.0858962 0)
(-0.123265 0.103331 0)
(-0.149347 0.120036 0)
(-0.175858 0.134753 0)
(-0.201593 0.14652 0)
(-0.225667 0.154673 0)
(-0.247307 0.158967 0)
(-0.266097 0.159427 0)
(-0.281777 0.156355 0)
(-0.294404 0.150191 0)
(-0.30416 0.141492 0)
(-0.311431 0.130805 0)
(-0.316616 0.118659 0)
(-0.320189 0.105481 0)
(-0.322539 0.09162 0)
(-0.324053 0.0773119 0)
(-0.325005 0.0627222 0)
(-0.325647 0.0479327 0)
(-0.326135 0.0329877 0)
(-0.326622 0.0178821 0)
(-0.327193 0.00259971 0)
(-0.327947 -0.0129018 0)
(-0.328938 -0.0286617 0)
(-0.330238 -0.0447318 0)
(-0.331868 -0.0611507 0)
(-0.333843 -0.0779521 0)
(-0.336086 -0.095131 0)
(-0.338435 -0.112631 0)
(-0.340543 -0.130285 0)
(-0.341856 -0.14777 0)
(-0.34152 -0.164518 0)
(-0.338394 -0.17966 0)
(-0.33107 -0.191976 0)
(-0.318061 -0.199942 0)
(-0.298063 -0.201876 0)
(-0.270391 -0.196254 0)
(-0.235408 -0.182155 0)
(-0.194901 -0.1598 0)
(-0.152062 -0.130916 0)
(-0.110975 -0.0987107 0)
(-0.0754302 -0.0670721 0)
(-0.0476774 -0.0393125 0)
(-0.0278105 -0.017066 0)
(-0.0145307 -0.000461946 0)
(-0.006155 0.0112519 0)
(-0.00135061 0.0188357 0)
(0.000992287 0.0229997 0)
(0.0016214 0.024038 0)
(0.00131164 0.0220349 0)
(0.000595248 0.0165318 0)
(6.83561e-05 0.00704699 0)
(-0.000520126 -0.000287616 0)
(-0.00372103 0.00367176 0)
(-0.00926709 0.00957428 0)
(-0.0165418 0.0175762 0)
(-0.0261484 0.0275481 0)
(-0.0382046 0.0399924 0)
(-0.053403 0.0547765 0)
(-0.071735 0.0718891 0)
(-0.0932973 0.0906742 0)
(-0.117386 0.110269 0)
(-0.143216 0.129307 0)
(-0.169473 0.146443 0)
(-0.195049 0.160418 0)
(-0.218784 0.170437 0)
(-0.23995 0.176077 0)
(-0.257947 0.177361 0)
(-0.272612 0.17459 0)
(-0.283947 0.168326 0)
(-0.2923 0.159226 0)
(-0.298079 0.147993 0)
(-0.301853 0.135251 0)
(-0.304109 0.121534 0)
(-0.30535 0.107228 0)
(-0.305928 0.092611 0)
(-0.306163 0.0778401 0)
(-0.306237 0.0630061 0)
(-0.30631 0.0481287 0)
(-0.306448 0.0332065 0)
(-0.306727 0.0182047 0)
(-0.307171 0.00309193 0)
(-0.307838 -0.0121793 0)
(-0.308757 -0.0276472 0)
(-0.310003 -0.0433623 0)
(-0.31163 -0.0593692 0)
(-0.313724 -0.0757246 0)
(-0.316332 -0.0924773 0)
(-0.319481 -0.109671 0)
(-0.323084 -0.127305 0)
(-0.326915 -0.145298 0)
(-0.330475 -0.163404 0)
(-0.332941 -0.181117 0)
(-0.33306 -0.197549 0)
(-0.329188 -0.211349 0)
(-0.319406 -0.22069 0)
(-0.301882 -0.223425 0)
(-0.275381 -0.217461 0)
(-0.239938 -0.201391 0)
(-0.197409 -0.175255 0)
(-0.151639 -0.141203 0)
(-0.107757 -0.103455 0)
(-0.0705774 -0.0672179 0)
(-0.0426591 -0.0365537 0)
(-0.0237035 -0.0131274 0)
(-0.0117349 0.00355633 0)
(-0.00472663 0.0145924 0)
(-0.00101723 0.0210897 0)
(0.000504189 0.0236065 0)
(0.000779148 0.022375 0)
(0.00042906 0.0170684 0)
(5.65228e-05 0.00730234 0)
(-0.000795538 0.00193477 0)
(-0.00513778 0.00879424 0)
(-0.0122844 0.0168309 0)
(-0.0213134 0.0269564 0)
(-0.032963 0.0394238 0)
(-0.0472298 0.0547944 0)
(-0.0647839 0.0727747 0)
(-0.0853237 0.0930244 0)
(-0.108692 0.114466 0)
(-0.133809 0.135812 0)
(-0.159686 0.155415 0)
(-0.184875 0.17186 0)
(-0.208342 0.184027 0)
(-0.229045 0.191367 0)
(-0.246485 0.193766 0)
(-0.260315 0.191571 0)
(-0.270699 0.185395 0)
(-0.277931 0.176058 0)
(-0.282618 0.164388 0)
(-0.285321 0.151162 0)
(-0.28669 0.136991 0)
(-0.287192 0.122339 0)
(-0.28727 0.107492 0)
(-0.287165 0.0926247 0)
(-0.287088 0.0777961 0)
(-0.287103 0.0630218 0)
(-0.287275 0.0482673 0)
(-0.287583 0.0334987 0)
(-0.28804 0.0186666 0)
(-0.288618 0.00373886 0)
(-0.289338 -0.0113225 0)
(-0.290202 -0.0265398 0)
(-0.291272 -0.0419443 0)
(-0.292602 -0.0575628 0)
(-0.294298 -0.0734397 0)
(-0.296461 -0.0896275 0)
(-0.29922 -0.106201 0)
(-0.302659 -0.123239 0)
(-0.306817 -0.140814 0)
(-0.311566 -0.158934 0)
(-0.316545 -0.17746 0)
(-0.320989 -0.195975 0)
(-0.32364 -0.213615 0)
(-0.322665 -0.228916 0)
(-0.315781 -0.239735 0)
(-0.3006 -0.243385 0)
(-0.275292 -0.23709 0)
(-0.239473 -0.218805 0)
(-0.195067 -0.188372 0)
(-0.14665 -0.148494 0)
(-0.100595 -0.104846 0)
(-0.0627489 -0.0641908 0)
(-0.0357333 -0.0314009 0)
(-0.0184314 -0.00760074 0)
(-0.0082313 0.008296 0)
(-0.00271673 0.0179619 0)
(-0.000205274 0.0224407 0)
(0.000583855 0.0222908 0)
(0.000442233 0.0174088 0)
(8.60651e-05 0.00752845 0)
(-0.00109828 0.00494527 0)
(-0.00662721 0.0153086 0)
(-0.0153788 0.0257337 0)
(-0.0261134 0.0381671 0)
(-0.0396904 0.0533142 0)
(-0.0559291 0.071702 0)
(-0.0754167 0.0927769 0)
(-0.0975087 0.11577 0)
(-0.121801 0.139164 0)
(-0.146907 0.161306 0)
(-0.171748 0.180409 0)
(-0.194858 0.195127 0)
(-0.215367 0.204588 0)
(-0.232426 0.20857 0)
(-0.245849 0.207333 0)
(-0.255602 0.201584 0)
(-0.262188 0.192244 0)
(-0.266137 0.180326 0)
(-0.268224 0.166734 0)
(-0.269048 0.152217 0)
(-0.269226 0.137291 0)
(-0.269119 0.12229 0)
(-0.269046 0.107368 0)
(-0.269112 0.0925845 0)
(-0.269412 0.0779113 0)
(-0.269902 0.0633048 0)
(-0.270575 0.0486973 0)
(-0.271349 0.0340418 0)
(-0.272198 0.0192908 0)
(-0.27306 0.00442423 0)
(-0.273936 -0.0105762 0)
(-0.274807 -0.0257092 0)
(-0.275719 -0.0409786 0)
(-0.276709 -0.0563828 0)
(-0.277878 -0.0719368 0)
(-0.279326 -0.0876691 0)
(-0.281212 -0.10364 0)
(-0.28369 -0.11994 0)
(-0.286938 -0.136695 0)
(-0.291068 -0.154049 0)
(-0.296091 -0.172108 0)
(-0.301757 -0.190858 0)
(-0.307419 -0.209986 0)
(-0.311834 -0.228676 0)
(-0.313053 -0.245352 0)
(-0.308463 -0.257535 0)
(-0.295149 -0.261924 0)
(-0.270675 -0.254922 0)
(-0.23423 -0.233767 0)
(-0.187876 -0.19811 0)
(-0.137111 -0.151595 0)
(-0.0897588 -0.10182 0)
(-0.052593 -0.0575399 0)
(-0.0276937 -0.0237988 0)
(-0.012785 -0.000900066 0)
(-0.00463456 0.0132887 0)
(-0.000790706 0.0205175 0)
(0.000581142 0.0219143 0)
(0.000571748 0.0177295 0)
(0.000142919 0.00784821 0)
(-0.00141737 0.00882643 0)
(-0.00812892 0.0232803 0)
(-0.0184214 0.0363045 0)
(-0.0307344 0.0511762 0)
(-0.0460167 0.0690944 0)
(-0.0638593 0.0904406 0)
(-0.0847248 0.114311 0)
(-0.107621 0.139448 0)
(-0.131948 0.163937 0)
(-0.156109 0.185866 0)
(-0.179046 0.203456 0)
(-0.19937 0.215557 0)
(-0.216458 0.221644 0)
(-0.229725 0.221891 0)
(-0.239347 0.216979 0)
(-0.2456 0.207965 0)
(-0.249261 0.196005 0)
(-0.250993 0.182201 0)
(-0.251617 0.167424 0)
(-0.251655 0.152303 0)
(-0.251617 0.137198 0)
(-0.251706 0.122289 0)
(-0.252109 0.107596 0)
(-0.252799 0.0930818 0)
(-0.253782 0.0786547 0)
(-0.254942 0.0642366 0)
(-0.256232 0.0497482 0)
(-0.257539 0.0351446 0)
(-0.258825 0.0203912 0)
(-0.260012 0.00548462 0)
(-0.261097 -0.00957234 0)
(-0.262047 -0.0247566 0)
(-0.262895 -0.0400465 0)
(-0.263659 -0.0554144 0)
(-0.264418 -0.0708442 0)
(-0.265249 -0.0863325 0)
(-0.266293 -0.101904 0)
(-0.267702 -0.117623 0)
(-0.269689 -0.133601 0)
(-0.272466 -0.150014 0)
(-0.276249 -0.167074 0)
(-0.281143 -0.185004 0)
(-0.287034 -0.203907 0)
(-0.293369 -0.223591 0)
(-0.298941 -0.243264 0)
(-0.301687 -0.261217 0)
(-0.298683 -0.274557 0)
(-0.286516 -0.279255 0)
(-0.262171 -0.270789 0)
(-0.22452 -0.245594 0)
(-0.175949 -0.203396 0)
(-0.123231 -0.1493 0)
(-0.0758352 -0.0937539 0)
(-0.0410469 -0.047271 0)
(-0.0194693 -0.0144496 0)
(-0.00746312 0.00627858 0)
(-0.00164698 0.0174875 0)
(0.000565257 0.0211499 0)
(0.000736572 0.0180418 0)
(0.000213329 0.00828456 0)
(-0.00171939 0.0135178 0)
(-0.00951922 0.0325613 0)
(-0.0211918 0.0483189 0)
(-0.0348596 0.0656624 0)
(-0.0515206 0.086301 0)
(-0.0705034 0.110364 0)
(-0.092128 0.136543 0)
(-0.115087 0.163088 0)
(-0.138659 0.187772 0)
(-0.161138 0.208549 0)
(-0.181586 0.223788 0)
(-0.19877 0.232638 0)
(-0.212378 0.235006 0)
(-0.222128 0.231511 0)
(-0.228554 0.223247 0)
(-0.23217 0.21155 0)
(-0.233923 0.197699 0)
(-0.234485 0.182763 0)
(-0.234616 0.167484 0)
(-0.234692 0.15231 0)
(-0.235076 0.137425 0)
(-0.235813 0.122855 0)
(-0.236975 0.108516 0)
(-0.238438 0.0942989 0)
(-0.240158 0.0800813 0)
(-0.241978 0.0657739 0)
(-0.243842 0.0513046 0)
(-0.245627 0.0366418 0)
(-0.247301 0.02177 0)
(-0.248783 0.00670419 0)
(-0.250074 -0.00853209 0)
(-0.251134 -0.0238972 0)
(-0.251991 -0.0393485 0)
(-0.252646 -0.0548376 0)
(-0.253158 -0.0703225 0)
(-0.253575 -0.0857721 0)
(-0.254003 -0.101174 0)
(-0.254556 -0.116552 0)
(-0.255419 -0.131972 0)
(-0.256804 -0.147577 0)
(-0.258989 -0.163581 0)
(-0.26225 -0.18029 0)
(-0.266807 -0.19803 0)
(-0.272656 -0.217055 0)
(-0.279336 -0.237272 0)
(-0.285643 -0.257901 0)
(-0.289357 -0.277005 0)
(-0.287227 -0.291149 0)
(-0.275319 -0.295411 0)
(-0.250154 -0.284181 0)
(-0.210451 -0.253205 0)
(-0.159368 -0.20268 0)
(-0.105397 -0.140373 0)
(-0.0598175 -0.0802154 0)
(-0.029313 -0.0340998 0)
(-0.011942 -0.00408963 0)
(-0.00322974 0.0128401 0)
(0.000287507 0.0198141 0)
(0.000832208 0.0183224 0)
(0.000277349 0.00886367 0)
(-0.001988 0.0189857 0)
(-0.010731 0.0430641 0)
(-0.0235643 0.0616431 0)
(-0.0383043 0.0814284 0)
(-0.0559518 0.10464 0)
(-0.075564 0.131064 0)
(-0.0973263 0.158967 0)
(-0.119678 0.186142 0)
(-0.141861 0.210163 0)
(-0.162152 0.228979 0)
(-0.179814 0.241233 0)
(-0.193827 0.246463 0)
(-0.204223 0.245068 0)
(-0.211016 0.238113 0)
(-0.215032 0.227048 0)
(-0.216923 0.213368 0)
(-0.217683 0.198357 0)
(-0.217895 0.182944 0)
(-0.218192 0.167681 0)
(-0.218776 0.152813 0)
(-0.219867 0.138358 0)
(-0.22138 0.124217 0)
(-0.22331 0.110237 0)
(-0.225476 0.09627 0)
(-0.227815 0.0821895 0)
(-0.230162 0.0679122 0)
(-0.232468 0.0533839 0)
(-0.234616 0.0385898 0)
(-0.236587 0.0235343 0)
(-0.238305 0.00824814 0)
(-0.239776 -0.00722847 0)
(-0.240959 -0.0228408 0)
(-0.24188 -0.0385305 0)
(-0.242529 -0.054236 0)
(-0.242952 -0.0698971 0)
(-0.24317 -0.0854638 0)
(-0.24326 -0.100895 0)
(-0.243293 -0.11618 0)
(-0.243403 -0.131336 0)
(-0.243749 -0.146451 0)
(-0.244575 -0.161674 0)
(-0.246177 -0.177287 0)
(-0.248906 -0.193659 0)
(-0.253075 -0.211265 0)
(-0.258785 -0.230482 0)
(-0.265651 -0.251338 0)
(-0.272407 -0.272983 0)
(-0.276632 -0.29313 0)
(-0.27462 -0.307574 0)
(-0.261962 -0.310236 0)
(-0.234766 -0.29434 0)
(-0.19206 -0.25511 0)
(-0.138314 -0.194361 0)
(-0.0844843 -0.123878 0)
(-0.0432194 -0.0620253 0)
(-0.0186539 -0.0191884 0)
(-0.00592777 0.00575605 0)
(-0.00045542 0.0174843 0)
(0.000778683 0.018376 0)
(0.000322521 0.00951519 0)
(-0.00218723 0.0250523 0)
(-0.0116469 0.0544914 0)
(-0.0253492 0.0758994 0)
(-0.0408206 0.097991 0)
(-0.0590224 0.123495 0)
(-0.0787537 0.151802 0)
(-0.100091 0.180777 0)
(-0.121298 0.207824 0)
(-0.141654 0.230442 0)
(-0.1595 0.246693 0)
(-0.17435 0.255594 0)
(-0.185432 0.257135 0)
(-0.193111 0.252226 0)
(-0.197648 0.242326 0)
(-0.200061 0.22914 0)
(-0.201033 0.214195 0)
(-0.201509 0.198669 0)
(-0.20192 0.183283 0)
(-0.202749 0.168377 0)
(-0.204033 0.154 0)
(-0.205878 0.140036 0)
(-0.208113 0.126302 0)
(-0.21069 0.112608 0)
(-0.213408 0.098797 0)
(-0.216207 0.0847555 0)
(-0.218931 0.0704166 0)
(-0.221548 0.0557481 0)
(-0.22395 0.0407526 0)
(-0.226134 0.0254527 0)
(-0.228027 0.00989134 0)
(-0.229643 -0.00587678 0)
(-0.230938 -0.0217873 0)
(-0.231939 -0.0377692 0)
(-0.232627 -0.0537519 0)
(-0.233043 -0.0696612 0)
(-0.233192 -0.0854363 0)
(-0.233131 -0.101016 0)
(-0.232901 -0.116368 0)
(-0.232591 -0.131472 0)
(-0.232303 -0.146367 0)
(-0.232213 -0.161131 0)
(-0.232555 -0.17597 0)
(-0.23366 -0.191187 0)
(-0.235938 -0.207281 0)
(-0.23978 -0.224829 0)
(-0.245393 -0.244391 0)
(-0.252395 -0.266048 0)
(-0.259437 -0.28881 0)
(-0.263705 -0.309808 0)
(-0.261028 -0.323731 0)
(-0.246386 -0.323065 0)
(-0.215846 -0.299714 0)
(-0.169186 -0.249233 0)
(-0.113287 -0.176528 0)
(-0.0620055 -0.10008 0)
(-0.0279751 -0.040672 0)
(-0.0100325 -0.00465824 0)
(-0.00180084 0.0136567 0)
(0.000526991 0.0179828 0)
(0.000339871 0.0101762 0)
(-0.00230787 0.0315746 0)
(-0.0122313 0.0666415 0)
(-0.0264852 0.090863 0)
(-0.0423332 0.11509 0)
(-0.0606585 0.142565 0)
(-0.0800399 0.17226 0)
(-0.100481 0.201686 0)
(-0.12015 0.227946 0)
(-0.138426 0.24858 0)
(-0.153778 0.261867 0)
(-0.165992 0.267278 0)
(-0.174546 0.265284 0)
(-0.180095 0.25728 0)
(-0.183066 0.245037 0)
(-0.184569 0.23039 0)
(-0.185224 0.214786 0)
(-0.185867 0.199222 0)
(-0.186758 0.184178 0)
(-0.188235 0.16979 0)
(-0.190204 0.155943 0)
(-0.192699 0.142432 0)
(-0.195495 0.129022 0)
(-0.198539 0.115519 0)
(-0.20163 0.101774 0)
(-0.204729 0.0876972 0)
(-0.207692 0.0732394 0)
(-0.210508 0.0583903 0)
(-0.21308 0.0431653 0)
(-0.215414 0.0276015 0)
(-0.217442 0.0117499 0)
(-0.219179 -0.00432383 0)
(-0.220582 -0.0205491 0)
(-0.221674 -0.036844 0)
(-0.222434 -0.0531324 0)
(-0.222897 -0.0693286 0)
(-0.223061 -0.0853661 0)
(-0.222975 -0.101169 0)
(-0.222657 -0.116697 0)
(-0.222173 -0.131902 0)
(-0.221579 -0.146793 0)
(-0.220988 -0.161387 0)
(-0.220555 -0.175817 0)
(-0.220527 -0.190278 0)
(-0.221265 -0.205184 0)
(-0.223222 -0.221098 0)
(-0.226893 -0.238798 0)
(-0.23251 -0.258958 0)
(-0.239709 -0.281705 0)
(-0.246833 -0.305698 0)
(-0.250668 -0.327155 0)
(-0.246274 -0.339244 0)
(-0.228286 -0.332561 0)
(-0.192899 -0.298092 0)
(-0.14187 -0.232848 0)
(-0.0853507 -0.148359 0)
(-0.0404942 -0.0706556 0)
(-0.0156453 -0.0194763 0)
(-0.00386687 0.00767506 0)
(7.37785e-05 0.0168263 0)
(0.000325941 0.0107376 0)
(-0.00232454 0.0382869 0)
(-0.0124094 0.0791192 0)
(-0.0268663 0.106074 0)
(-0.0427279 0.132185 0)
(-0.060769 0.161229 0)
(-0.0793984 0.191787 0)
(-0.0985856 0.221083 0)
(-0.116477 0.246013 0)
(-0.132596 0.264267 0)
(-0.145577 0.274414 0)
(-0.155474 0.276427 0)
(-0.16199 0.271245 0)
(-0.165999 0.26069 0)
(-0.168008 0.24673 0)
(-0.169128 0.23122 0)
(-0.169863 0.215438 0)
(-0.170911 0.200161 0)
(-0.17237 0.185629 0)
(-0.174462 0.171807 0)
(-0.177003 0.158455 0)
(-0.179986 0.145315 0)
(-0.183171 0.132133 0)
(-0.186517 0.118731 0)
(-0.189834 0.104977 0)
(-0.19311 0.0908075 0)
(-0.196216 0.0761902 0)
(-0.199158 0.0611323 0)
(-0.201845 0.0456578 0)
(-0.204289 0.0298145 0)
(-0.206423 0.0136585 0)
(-0.208264 -0.00273481 0)
(-0.209763 -0.0192899 0)
(-0.210943 -0.035914 0)
(-0.21178 -0.052526 0)
(-0.212306 -0.0690285 0)
(-0.212516 -0.0853516 0)
(-0.212456 -0.101408 0)
(-0.212136 -0.117154 0)
(-0.211609 -0.132525 0)
(-0.210909 -0.147522 0)
(-0.210105 -0.162119 0)
(-0.209287 -0.176398 0)
(-0.208609 -0.190454 0)
(-0.208333 -0.204587 0)
(-0.208833 -0.219229 0)
(-0.210659 -0.235147 0)
(-0.214327 -0.253245 0)
(-0.220162 -0.274389 0)
(-0.227571 -0.298572 0)
(-0.234611 -0.323821 0)
(-0.23723 -0.344951 0)
(-0.229915 -0.352933 0)
(-0.206832 -0.336409 0)
(-0.165448 -0.28598 0)
(-0.110451 -0.203494 0)
(-0.0569718 -0.11062 0)
(-0.0227736 -0.0402149 0)
(-0.00679416 -0.00103893 0)
(-0.000580603 0.0145485 0)
(0.000283153 0.0111308 0)
(-0.00224389 0.0449916 0)
(-0.0121966 0.0916846 0)
(-0.0265195 0.121309 0)
(-0.0420604 0.149068 0)
(-0.0594604 0.179314 0)
(-0.0770194 0.210281 0)
(-0.0947044 0.238985 0)
(-0.110707 0.262206 0)
(-0.124717 0.277863 0)
(-0.135551 0.284871 0)
(-0.143506 0.283719 0)
(-0.148467 0.275779 0)
(-0.151442 0.263213 0)
(-0.152947 0.248081 0)
(-0.15403 0.232163 0)
(-0.155051 0.216516 0)
(-0.156571 0.20169 0)
(-0.158553 0.187713 0)
(-0.161138 0.174411 0)
(-0.164088 0.161463 0)
(-0.167386 0.148593 0)
(-0.170796 0.135547 0)
(-0.174299 0.122174 0)
(-0.177727 0.108362 0)
(-0.181087 0.0940721 0)
(-0.184266 0.079283 0)
(-0.187282 0.0640148 0)
(-0.190046 0.0482947 0)
(-0.192576 0.0321784 0)
(-0.194801 0.0157234 0)
(-0.196737 -0.000986272 0)
(-0.198331 -0.0178718 0)
(-0.199606 -0.0348293 0)
(-0.200531 -0.0517735 0)
(-0.201139 -0.0685944 0)
(-0.201422 -0.0852197 0)
(-0.201423 -0.101549 0)
(-0.201151 -0.117542 0)
(-0.200656 -0.13312 0)
(-0.199961 -0.148284 0)
(-0.199116 -0.162987 0)
(-0.198172 -0.177288 0)