/*--------------------------------*- C++ -*----------------------------------*\
| =========                 |                                                 |
| \\      /  F ield         | OpenFOAM: The Open Source CFD Toolbox           |
|  \\    /   O peration     | Version:  2406                                  |
|   \\  /    A nd           | Website:  www.openfoam.com                      |
|    \\/     M anipulation  |                                                 |
\*---------------------------------------------------------------------------*/
FoamFile
{
    version     2.0;
    format      ascii;
    arch        "LSB;label=32;scalar=64";
    class       volScalarField;
    location    "36";
    object      p;
}
// * * * * * * * * * * * * * * * * * * * * * * * * * * * * * * * * * * * * * //

dimensions      [0 2 -2 0 0 0 0];

internalField   nonuniform List<scalar> 
3600
(
0.0393911
0.0394158
0.0394026
0.0393747
0.039307
0.0392234
0.0391178
0.0390038
0.0388763
0.0387372
0.0385787
0.038397
0.0381846
0.0379373
0.03765
0.03732
0.0369458
0.036529
0.0360747
0.035593
0.0351015
0.034626
0.0342
0.0338619
0.0336511
0.0336033
0.033746
0.0340952
0.0346521
0.0354009
0.036306
0.0373115
0.0383414
0.0393033
0.0400955
0.0406178
0.0407851
0.0405424
0.0398766
0.0388229
0.0374623
0.0359095
0.034293
0.0327342
0.0313291
0.0301399
0.029192
0.0284828
0.0279855
0.0276639
0.0274739
0.0273788
0.0273421
0.0273449
0.0273632
0.0273966
0.0274267
0.0274678
0.0274953
0.0275281
0.0393671
0.0393925
0.0393729
0.0393449
0.03928
0.0392042
0.0391078
0.0390046
0.0388881
0.0387609
0.0386156
0.0384496
0.0382561
0.0380313
0.0377699
0.0374686
0.0371241
0.036736
0.0363073
0.035847
0.0353695
0.0348955
0.0344529
0.0340768
0.0338071
0.0336835
0.0337397
0.0339981
0.0344655
0.0351302
0.03596
0.0369009
0.0378783
0.0388002
0.0395647
0.0400704
0.0402308
0.0399889
0.0393303
0.0382903
0.0369517
0.0354324
0.0338645
0.0323717
0.0310489
0.0299532
0.0291007
0.0284782
0.0280495
0.0277737
0.0276063
0.0275159
0.0274714
0.02746
0.0274607
0.027477
0.0274889
0.0275154
0.0275275
0.0275605
0.0393759
0.0394092
0.0393872
0.0393572
0.0392883
0.0392112
0.0391163
0.0390182
0.0389093
0.0387917
0.038657
0.0385016
0.0383183
0.038102
0.0378454
0.0375426
0.0371876
0.0367765
0.0363077
0.0357851
0.0352218
0.0346437
0.0340878
0.0335992
0.0332251
0.0330096
0.0329884
0.033185
0.0336068
0.0342423
0.0350593
0.0360039
0.0370013
0.0379591
0.0387736
0.0393405
0.0395681
0.0393925
0.0387918
0.0377948
0.0364809
0.0349691
0.0333978
0.0319003
0.0305815
0.0295062
0.0286939
0.0281294
0.0277704
0.0275674
0.0274673
0.0274325
0.0274286
0.0274444
0.0274605
0.0274854
0.0274988
0.027528
0.0275379
0.0275842
0.0393964
0.0394313
0.0394032
0.0393673
0.0392933
0.039216
0.039126
0.0390377
0.0389423
0.0388401
0.0387213
0.0385806
0.0384084
0.0381957
0.0379299
0.0375981
0.0371862
0.0366837
0.0360882
0.0354101
0.034673
0.0339128
0.0331747
0.0325093
0.031968
0.0315978
0.0314364
0.0315084
0.0318227
0.0323698
0.033121
0.0340264
0.0350164
0.0360031
0.036886
0.0375607
0.0379307
0.0379227
0.0375011
0.0366794
0.0355234
0.0341434
0.0326757
0.0312581
0.0300041
0.0289878
0.0282361
0.027738
0.0274508
0.0273224
0.0272939
0.0273226
0.0273694
0.0274221
0.0274608
0.0274984
0.0275148
0.0275454
0.0275509
0.0276056
0.0394564
0.0394888
0.0394527
0.0394061
0.0393234
0.0392411
0.0391523
0.0390692
0.0389819
0.0388869
0.0387712
0.0386241
0.0384295
0.038169
0.0378202
0.0373606
0.0367729
0.0360513
0.0352046
0.0342569
0.0332465
0.0322221
0.0312383
0.0303503
0.0296104
0.0290639
0.0287463
0.0286809
0.0288769
0.0293273
0.0300081
0.0308767
0.0318723
0.0329163
0.0339162
0.0347717
0.035384
0.0356693
0.0355731
0.0350842
0.0342415
0.0331331
0.0318817
0.0306222
0.029475
0.0285272
0.0278197
0.0273544
0.0270989
0.0270077
0.0270236
0.0271023
0.0271992
0.0272977
0.0273734
0.027439
0.0274734
0.027516
0.027526
0.0275871
0.0395459
0.0395682
0.0395213
0.0394598
0.0393682
0.0392805
0.039193
0.0391131
0.0390288
0.0389301
0.0387977
0.0386105
0.0383402
0.0379552
0.0374237
0.0367222
0.0358411
0.0347894
0.033594
0.0322967
0.0309493
0.0296091
0.0283347
0.0271825
0.0262034
0.0254402
0.0249258
0.0246816
0.0247166
0.0250264
0.0255926
0.0263819
0.0273458
0.0284205
0.0295285
0.0305814
0.0314864
0.0321553
0.0325168
0.0325303
0.0321972
0.0315661
0.0307275
0.0297976
0.0288936
0.0281115
0.0275087
0.0271045
0.0268827
0.0268111
0.0268426
0.0269394
0.0270584
0.0271818
0.0272817
0.027368
0.0274175
0.027469
0.0274828
0.0275424
0.0396824
0.0396879
0.0396287
0.0395487
0.0394467
0.0393494
0.0392567
0.0391675
0.0390661
0.0389312
0.0387325
0.0384325
0.0379884
0.0373591
0.0365142
0.0354417
0.0341521
0.0326763
0.0310616
0.0293656
0.0276514
0.0259824
0.0244186
0.0230138
0.0218137
0.0208545
0.0201627
0.0197544
0.0196359
0.0198031
0.0202418
0.0209273
0.0218244
0.0228864
0.0240558
0.0252645
0.0264366
0.0274922
0.0283551
0.0289629
0.0292786
0.0293005
0.029067
0.0286516
0.0281481
0.0276499
0.0272289
0.0269276
0.0267537
0.0266964
0.0267255
0.0268158
0.0269317
0.0270585
0.0271678
0.0272658
0.0273277
0.0273864
0.0274057
0.0274596
0.0398642
0.0398454
0.0397737
0.0396729
0.0395603
0.0394487
0.0393416
0.039224
0.0390734
0.0388512
0.0385118
0.0379999
0.0372646
0.0362669
0.0349923
0.033452
0.0316827
0.0297388
0.0276866
0.0255968
0.0235391
0.0215776
0.0197683
0.0181578
0.0167824
0.0156687
0.0148343
0.0142884
0.0140327
0.0140619
0.014364
0.0149209
0.0157082
0.0166951
0.0178444
0.0191119
0.0204463
0.0217898
0.0230796
0.024252
0.0252485
0.0260251
0.0265607
0.026864
0.0269732
0.0269491
0.0268586
0.0267615
0.0266952
0.0266801
0.0267122
0.0267861
0.0268803
0.0269883
0.0270858
0.0271777
0.027239
0.0272957
0.0273162
0.0273595
0.0400994
0.0400492
0.0399664
0.0398421
0.0397155
0.0395783
0.0394362
0.0392546
0.0390001
0.0386119
0.0380292
0.037186
0.0360369
0.0345608
0.0327717
0.030711
0.0284436
0.0260459
0.023599
0.0211803
0.018859
0.0166927
0.0147273
0.0129967
0.0115249
0.0103269
0.00941082
0.00877854
0.00842709
0.00834902
0.00853321
0.00896515
0.0096276
0.0105008
0.011563
0.01279
0.014155
0.0156272
0.0171703
0.0187408
0.0202876
0.0217526
0.0230763
0.024205
0.0251019
0.0257569
0.0261907
0.026451
0.0265951
0.0266803
0.0267424
0.0268075
0.0268756
0.0269536
0.0270253
0.0270974
0.0271473
0.0271942
0.0272118
0.0272437
0.0403821
0.0402946
0.0402034
0.0400528
0.0399063
0.039726
0.0395179
0.0392211
0.0387884
0.0381366
0.0371979
0.0359096
0.0342491
0.0322263
0.0298913
0.0273172
0.0245943
0.0218145
0.0190648
0.0164193
0.0139376
0.0116638
0.0096288
0.00785233
0.00634601
0.00511483
0.0041594
0.00347646
0.00306002
0.00290143
0.00299016
0.00331391
0.00385954
0.00461347
0.00556279
0.00669563
0.00800167
0.00947134
0.0110942
0.0128554
0.0147309
0.0166815
0.0186483
0.0205514
0.0222964
0.02379
0.0249643
0.0257991
0.0263283
0.0266286
0.0267829
0.0268669
0.0269169
0.0269622
0.0269992
0.0270403
0.0270675
0.0270966
0.0271059
0.0271266
0.0407017
0.0405727
0.0404749
0.040292
0.040112
0.03986
0.0395394
0.0390585
0.0383576
0.0373375
0.0359386
0.0341188
0.0318928
0.0293095
0.0264566
0.0234343
0.0203499
0.0172989
0.0143627
0.0116017
0.00905911
0.00676152
0.00472466
0.00295539
0.00145582
0.000224078
-0.00074353
-0.00145284
-0.00191081
-0.00212609
-0.00210824
-0.00186794
-0.00141601
-0.000762983
8.22615e-05
0.00111329
0.00232748
0.00372632
0.00531527
0.00710142
0.00908905
0.0112718
0.0136221
0.0160795
0.0185428
0.0208727
0.0229141
0.0245367
0.0256806
0.0263825
0.0267467
0.0269086
0.0269652
0.0269857
0.0269871
0.0269927
0.0269908
0.0269973
0.0269948
0.0270068
0.0410338
0.0408615
0.0407579
0.0405338
0.0403001
0.0399382
0.039447
0.0387026
0.03764
0.0361575
0.034222
0.031827
0.0290336
0.0259303
0.0226368
0.0192698
0.0159398
0.0127329
0.00971399
0.00692351
0.00438583
0.0021111
0.000102867
-0.00164091
-0.00312353
-0.0043501
-0.00532556
-0.00605598
-0.0065476
-0.00680794
-0.00684502
-0.00666791
-0.00628565
-0.00570715
-0.00493965
-0.003988
-0.00285288
-0.00152992
-8.43039e-06
0.00172811
0.00370036
0.00592763
0.00841837
0.0111551
0.0140758
0.0170579
0.0199158
0.0224294
0.024405
0.0257536
0.026524
0.0268788
0.026993
0.0270082
0.026979
0.026949
0.0269148
0.0268967
0.0268797
0.0268856
0.0413399
0.041124
0.0410111
0.0407309
0.040414
0.0398943
0.039166
0.0380779
0.0365722
0.0345615
0.0320555
0.0290924
0.025781
0.0222429
0.0186179
0.0150241
0.0115615
0.00829584
0.00527029
0.00250407
5.18065e-06
-0.0022286
-0.00420132
-0.0059196
-0.00738858
-0.00861383
-0.00959961
-0.0103509
-0.0108723
-0.0111699
-0.0112499
-0.0111199
-0.0107874
-0.0102602
-0.00954494
-0.00864633
-0.00756562
-0.00629955
-0.00483836
-0.00316522
-0.00125552
0.000921066
0.00339549
0.00618813
0.00928971
0.012636
0.0160815
0.019393
0.0222823
0.0244975
0.0259296
0.0266741
0.026948
0.026998
0.0269524
0.0268917
0.026826
0.0267841
0.0267519
0.0267539
0.0415711
0.0413127
0.0411837
0.0408288
0.0403941
0.0396654
0.0386351
0.0371346
0.0351292
0.032562
0.0294963
0.0260165
0.022273
0.0184078
0.0145655
0.0108507
0.00734265
0.00408178
0.00108974
-0.00163217
-0.00408739
-0.00628555
-0.0082338
-0.00994
-0.0114085
-0.0126439
-0.0136485
-0.0144257
-0.0149783
-0.0153105
-0.0154269
-0.0153335
-0.0150364
-0.0145425
-0.0138576
-0.012987
-0.0119332
-0.0106952
-0.00926702
-0.00763602
-0.0057813
-0.00367325
-0.00127454
0.00145477
0.00454444
0.00799225
0.0117283
0.0155823
0.0192659
0.0224225
0.024746
0.0261413
0.0267616
0.0269253
0.0268913
0.0268095
0.0267154
0.0266515
0.0266043
0.0266028
0.0416651
0.0413656
0.0412086
0.0407565
0.040166
0.0391792
0.0377924
0.035834
0.0333069
0.0301967
0.0266231
0.0227117
0.0186423
0.0145615
0.0106039
0.00685023
0.00335457
0.000132729
-0.00281109
-0.00548817
-0.00790802
-0.0100834
-0.0120213
-0.0137287
-0.015208
-0.0164619
-0.0174909
-0.0182966
-0.0188801
-0.0192442
-0.0193919
-0.019328
-0.0190571
-0.0185853
-0.0179178
-0.0170599
-0.016015
-0.0147844
-0.0133657
-0.0117517
-0.00992803
-0.00787187
-0.00555022
-0.00292002
6.58056e-05
0.00344652
0.00722257
0.0113174
0.0155233
0.0194918
0.0227892
0.0250794
0.0263074
0.0267434
0.0267737
0.0266895
0.0265713
0.0264867
0.0264253
0.026419
0.0415615
0.0412227
0.0410238
0.0404527
0.0396723
0.0383887
0.0366106
0.0341777
0.0311426
0.0275385
0.0235378
0.0192962
0.0150078
0.0108087
0.00681318
0.0030733
-0.000380898
-0.00355398
-0.00645331
-0.00909743
-0.0114975
-0.0136664
-0.015609
-0.0173305
-0.0188308
-0.0201108
-0.021169
-0.0220057
-0.0226205
-0.023015
-0.0231907
-0.0231514
-0.0229006
-0.0224435
-0.0217846
-0.0209292
-0.0198811
-0.0186433
-0.0172161
-0.0155967
-0.0137776
-0.0117442
-0.00947269
-0.00692715
-0.00406048
-0.000816205
0.00285026
0.00694487
0.0113691
0.0158727
0.0200229
0.0233177
0.0254127
0.0263731
0.0265755
0.0265211
0.0263877
0.0262811
0.0262055
0.0261905
0.0411992
0.0408228
0.0405669
0.0398576
0.0388606
0.0372572
0.0350768
0.0321839
0.0286861
0.0246636
0.0203322
0.0158635
0.0114517
0.00721108
0.00323056
-0.000466087
-0.00386826
-0.00699515
-0.00986011
-0.0124846
-0.0148785
-0.017053
-0.0190102
-0.020753
-0.0222791
-0.023588
-0.0246765
-0.0255438
-0.0261883
-0.0266106
-0.0268112
-0.0267929
-0.0265584
-0.026112
-0.0254578
-0.0246008
-0.0235449
-0.0222942
-0.0208507
-0.019215
-0.0173842
-0.0153509
-0.0131011
-0.0106093
-0.00783853
-0.00473323
-0.00123236
0.00272213
0.0071252
0.0118577
0.0165895
0.0207986
0.0239153
0.0256654
0.0262635
0.0262833
0.02616
0.0260263
0.0259346
0.0259055
0.0405362
0.0401249
0.0397991
0.0389394
0.0377118
0.0357851
0.0332168
0.0299052
0.0260137
0.0216627
0.017099
0.0124965
0.00803759
0.00380859
-0.000126883
-0.00376931
-0.00712169
-0.0102122
-0.0130558
-0.0156738
-0.0180731
-0.0202627
-0.0222415
-0.0240107
-0.0255658
-0.0269053
-0.0280245
-0.0289221
-0.029595
-0.0300433
-0.0302665
-0.0302665
-0.0300452
-0.0296065
-0.028954
-0.0280924
-0.0270261
-0.0257595
-0.0242961
-0.0226382
-0.0207867
-0.018739
-0.016489
-0.0140212
-0.0113116
-0.008315
-0.00497415
-0.00120947
0.00303254
0.00774876
0.0127525
0.0176285
0.0217298
0.0244682
0.02574
0.0259625
0.0258708
0.0257192
0.0256029
0.0255542
0.0395449
0.0391019
0.0386967
0.0376826
0.0362236
0.0339887
0.0310682
0.0273989
0.0231949
0.0186076
0.0139021
0.00924271
0.00479279
0.000609437
-0.00326597
-0.00685262
-0.0101615
-0.0132253
-0.0160573
-0.0186773
-0.0210885
-0.0232974
-0.0253001
-0.0270966
-0.0286806
-0.0300497
-0.0311984
-0.0321243
-0.0328237
-0.0332958
-0.0335392
-0.0335553
-0.0333453
-0.0329125
-0.0322604
-0.0313937
-0.030317
-0.029035
-0.0275523
-0.0258724
-0.0239985
-0.0219311
-0.0196696
-0.0172059
-0.014528
-0.0116035
-0.00838922
-0.00480579
-0.000776712
0.00377349
0.00879094
0.0140265
0.0189048
0.0226836
0.0248418
0.0255416
0.0254894
0.0253541
0.025199
0.025126
0.038227
0.0377577
0.0372688
0.0361057
0.0344283
0.0319173
0.0286964
0.0247423
0.0203108
0.0155743
0.0108039
0.00614622
0.00174273
-0.00237672
-0.00618808
-0.00972356
-0.0129975
-0.0160437
-0.0188722
-0.0215002
-0.0239272
-0.0261578
-0.0281856
-0.0300096
-0.0316221
-0.0330203
-0.0341973
-0.0351505
-0.0358751
-0.0363695
-0.0366316
-0.036662
-0.0364615
-0.0360331
-0.0353799
-0.034507
-0.0334191
-0.0321218
-0.0306205
-0.0289196
-0.0270242
-0.0249361
-0.022659
-0.0201889
-0.0175233
-0.0146405
-0.0115147
-0.00807783
-0.00425618
6.56502e-05
0.00492639
0.0102452
0.0156112
0.0202901
0.0234667
0.0248994
0.0250197
0.0248943
0.0247201
0.0246041
0.0366034
0.0361145
0.0355425
0.0342433
0.032371
0.0296267
0.0261657
0.0220016
0.017422
0.0126106
0.00783503
0.00322045
-0.00111384
-0.00516092
-0.00890905
-0.0123986
-0.0156439
-0.0186778
-0.0215064
-0.0241441
-0.0265872
-0.0288384
-0.0308899
-0.0327394
-0.0343786
-0.0358038
-0.0370075
-0.0379863
-0.0387343
-0.0392494
-0.0395287
-0.0395721
-0.0393799
-0.0389548
-0.0383001
-0.0374207
-0.0363222
-0.0350105
-0.0334923
-0.0317726
-0.0298583
-0.0277521
-0.0254602
-0.0229807
-0.0203181
-0.0174576
-0.0143896
-0.0110602
-0.00741308
-0.00332262
0.00129722
0.00650204
0.0120621
0.0173865
0.0215727
0.0238689
0.0244717
0.0242935
0.0241614
0.0239687
0.0347218
0.0342218
0.033572
0.0321566
0.0301208
0.0271928
0.0235549
0.0192528
0.0145958
0.00977023
0.00503399
0.000489532
-0.00376371
-0.00773681
-0.0114258
-0.0148753
-0.0180975
-0.0211231
-0.023954
-0.0266022
-0.0290609
-0.0313318
-0.0334055
-0.0352792
-0.0369437
-0.0383947
-0.0396238
-0.0406269
-0.0413973
-0.041932
-0.0422273
-0.0422827
-0.0420977
-0.0416751
-0.041018
-0.0401317
-0.0390225
-0.0376967
-0.0361625
-0.0344257
-0.0324948
-0.0303728
-0.0280689
-0.0255811
-0.022919
-0.0200712
-0.0170412
-0.013787
-0.0102758
-0.00638935
-0.00203027
0.00294554
0.00846257
0.0141523
0.0191602
0.0223994
0.0237364
0.0235613
0.023481
0.0232089
0.0326414
0.0321398
0.0314206
0.0299118
0.0277469
0.0246851
0.0209291
0.0165514
0.0118733
0.00707826
0.00241052
-0.00204865
-0.00621649
-0.0101172
-0.0137512
-0.0171644
-0.0203659
-0.0233838
-0.026216
-0.0288724
-0.0313441
-0.0336317
-0.0357247
-0.0376199
-0.0393071
-0.0407816
-0.0420342
-0.0430597
-0.0438508
-0.0444037
-0.0447138
-0.0447801
-0.0446017
-0.0441811
-0.0435216
-0.0426287
-0.0415093
-0.0401705
-0.0386219
-0.0368696
-0.0349246
-0.0327899
-0.0304773
-0.0279843
-0.0253246
-0.0224869
-0.019485
-0.0162847
-0.0128764
-0.00915675
-0.00504124
-0.000343123
0.00497611
0.0107692
0.0163232
0.020505
0.0226391
0.0227414
0.0226163
0.0223213
0.0304363
0.0299436
0.0291658
0.0275884
0.0253294
0.0221814
0.0183603
0.0139598
0.00930492
0.00457273
-8.04293e-06
-0.00437451
-0.00845723
-0.0122893
-0.0158728
-0.0192531
-0.022436
-0.0254464
-0.0282792
-0.0309422
-0.0334248
-0.035727
-0.0378371
-0.0397518
-0.0414598
-0.0429561
-0.0442304
-0.045277
-0.0460875
-0.0466573
-0.0469811
-0.0470574
-0.046885
-0.0464659
-0.045804
-0.0449045
-0.0437756
-0.0424245
-0.0408626
-0.0390963
-0.0371393
-0.0349943
-0.0326763
-0.0301813
-0.0275274
-0.0247012
-0.0217248
-0.0185669
-0.0152387
-0.0116515
-0.00774789
-0.00333014
0.00170874
0.0073936
0.0132285
0.0181999
0.0211221
0.0218074
0.0215449
0.0212905
0.0281802
0.0277066
0.0268815
0.0252589
0.0229374
0.0197441
0.0159002
0.0115162
0.00691441
0.0022639
-0.00222199
-0.00649514
-0.0104963
-0.0142639
-0.0178004
-0.0211493
-0.0243132
-0.0273142
-0.0301445
-0.0328106
-0.0353005
-0.0376134
-0.0397372
-0.0416679
-0.0433938
-0.0449089
-0.0462024
-0.0472675
-0.0480952
-0.0486801
-0.0490163
-0.0491015
-0.0489345
-0.0485168
-0.0478527
-0.0469474
-0.0458102
-0.0444481
-0.0428747
-0.0410964
-0.0391298
-0.0369767
-0.0346565
-0.0321629
-0.0295187
-0.0267074
-0.0237581
-0.0206382
-0.0173771
-0.0138961
-0.0101718
-0.00601161
-0.00128577
0.00415048
0.0100408
0.0155356
0.0192366
0.020631
0.0202979
0.0200807
0.0259492
0.025505
0.0246446
0.0229985
0.0206425
0.0174383
0.0136057
0.00926782
0.00473953
0.000181815
-0.00420664
-0.00838893
-0.0123134
-0.0160212
-0.0195141
-0.0228333
-0.0259784
-0.0289688
-0.031795
-0.0344618
-0.0369565
-0.0392777
-0.0414128
-0.043357
-0.0450983
-0.04663
-0.0479403
-0.0490219
-0.0498649
-0.0504632
-0.0508104
-0.0509035
-0.0507414
-0.0503249
-0.0496591
-0.0487485
-0.047604
-0.0462323
-0.0446494
-0.0428608
-0.0408867
-0.038728
-0.0364082
-0.0339188
-0.0312882
-0.0284953
-0.0255767
-0.0224953
-0.0192959
-0.0159043
-0.0123322
-0.00839785
-0.00398632
0.00112857
0.00688936
0.012631
0.0170503
0.0191119
0.018935
0.0186714
0.0238089
0.0234033
0.0225185
0.020867
0.0184984
0.015309
0.0115106
0.00723654
0.0027909
-0.00167228
-0.00596744
-0.0100652
-0.0139196
-0.0175723
-0.0210242
-0.0243139
-0.0274387
-0.0304159
-0.0332345
-0.0358983
-0.0383938
-0.0407193
-0.0428615
-0.0448155
-0.0465684
-0.0481129
-0.0494367
-0.0505316
-0.0513872
-0.0519966
-0.052353
-0.0524527
-0.0522946
-0.0518792
-0.051212
-0.0502971
-0.049147
-0.0477673
-0.0461769
-0.0443802
-0.0424013
-0.0402391
-0.0379225
-0.0354399
-0.0328262
-0.0300551
-0.0271712
-0.0241309
-0.0209925
-0.0176813
-0.0142415
-0.0105031
-0.00638892
-0.00162075
0.00387121
0.00963447
0.0146165
0.0172524
0.0174747
0.017063
0.02182
0.021462
0.0205635
0.0189221
0.0165585
0.0134035
0.00965588
0.00545711
0.0010983
-0.00327183
-0.00747929
-0.0114993
-0.01529
-0.0188921
-0.0223059
-0.0255671
-0.0286715
-0.0316344
-0.0344437
-0.0371023
-0.0395965
-0.0419237
-0.0440706
-0.0460315
-0.0477932
-0.0493477
-0.0506823
-0.0517879
-0.0526537
-0.053272
-0.053636
-0.0537411
-0.0535866
-0.053172
-0.0525039
-0.0515855
-0.050431
-0.049045
-0.0474493
-0.0456464
-0.0436651
-0.0415014
-0.0391906
-0.0367169
-0.0341229
-0.0313763
-0.0285309
-0.0255345
-0.0224591
-0.0192245
-0.0159046
-0.0123376
-0.00849599
-0.00407289
0.00105985
0.00667546
0.0119899
0.0151069
0.0158534
0.0152498
0.0200275
0.0197244
0.0188218
0.0172023
0.0148557
0.0117474
0.00805842
0.00393777
-0.000337701
-0.00462242
-0.00875214
-0.0127038
-0.0164383
-0.0199949
-0.0233729
-0.0266059
-0.0296884
-0.0326344
-0.0354313
-0.0380811
-0.04057
-0.0428949
-0.0450423
-0.0470059
-0.0487722
-0.0503327
-0.0516741
-0.0527867
-0.0536596
-0.0542841
-0.0546535
-0.0547623
-0.0546105
-0.0541962
-0.0535277
-0.0526064
-0.051449
-0.0500582
-0.0484593
-0.0466523
-0.0446709
-0.0425078
-0.0402049
-0.0377419
-0.0351698
-0.0324495
-0.0296454
-0.0266955
-0.0236857
-0.0205266
-0.0173193
-0.0139056
-0.0103107
-0.00621704
-0.00148959
0.00385327
0.00925263
0.0127434
0.0139936
0.0132356
0.0184692
0.018228
0.0173312
0.015744
0.0134239
0.010371
0.00674581
0.00270391
-0.00149255
-0.00569924
-0.00976006
-0.0136515
-0.0173367
-0.0208523
-0.0241975
-0.0274034
-0.0304644
-0.0333929
-0.0361763
-0.0388158
-0.0412977
-0.0436181
-0.0457636
-0.0477273
-0.0494956
-0.051059
-0.0524045
-0.0535215
-0.0543991
-0.0550276
-0.0554008
-0.055512
-0.0553621
-0.0549479
-0.0542792
-0.0533556
-0.0521965
-0.0508022
-0.0492019
-0.0473924
-0.045413
-0.0432519
-0.0409589
-0.0385075
-0.0359589
-0.0332657
-0.0305046
-0.0276024
-0.0246604
-0.0215766
-0.0184781
-0.0152041
-0.0118329
-0.00804601
-0.00373676
0.00124581
0.00651539
0.010246
0.0118928
0.0110665
0.0171661
0.0169919
0.0161098
0.014563
0.0122748
0.00928135
0.00571962
0.00175194
-0.00237461
-0.00651466
-0.0105186
-0.0143603
-0.0180043
-0.021484
-0.0247991
-0.0279786
-0.0310172
-0.0339262
-0.0366934
-0.0393195
-0.0417908
-0.0441031
-0.0462428
-0.0482025
-0.0499686
-0.0515311
-0.0528769
-0.0539946
-0.0548736
-0.0555033
-0.055878
-0.0559898
-0.0558407
-0.0554258
-0.054757
-0.0538313
-0.0526716
-0.0512746
-0.0496744
-0.0478635
-0.0458877
-0.0437297
-0.0414478
-0.0390084
-0.036484
-0.0338176
-0.0311
-0.028245
-0.0253718
-0.0223621
-0.0193699
-0.0162249
-0.0130579
-0.00955139
-0.00565119
-0.00107994
0.00390121
0.00772338
0.00964205
0.00883362
0.0161332
0.0160304
0.0151732
0.0136751
0.0114248
0.00849453
0.00499672
0.00110013
-0.00296304
-0.00704496
-0.011001
-0.0148011
-0.0184103
-0.021859
-0.0251472
-0.0283021
-0.0313193
-0.0342091
-0.03696
-0.0395721
-0.0420319
-0.0443347
-0.0464671
-0.0484209
-0.0501829
-0.0517421
-0.053086
-0.0542022
-0.0550808
-0.0557098
-0.0560847
-0.0561959
-0.0560471
-0.0556309
-0.0549621
-0.0540344
-0.0528748
-0.0514756
-0.0498767
-0.048065
-0.0460937
-0.043939
-0.0416686
-0.0392407
-0.03674
-0.0340988
-0.0314238
-0.0286139
-0.0258085
-0.0228702
-0.0199816
-0.0169559
-0.0139764
-0.0107222
-0.0072087
-0.00306625
0.00152423
0.00529917
0.00737945
0.00664788
0.0153692
0.0153394
0.0145168
0.0130749
0.0108662
0.00800077
0.00456478
0.000733709
-0.00327529
-0.00731013
-0.0112298
-0.0149984
-0.018581
-0.0220041
-0.0252685
-0.0284
-0.0313955
-0.0342649
-0.0369977
-0.0395933
-0.042039
-0.0443293
-0.0464512
-0.0483959
-0.0501505
-0.0517033
-0.0530422
-0.0541539
-0.0550293
-0.0556551
-0.0560283
-0.0561369
-0.0559872
-0.0555688
-0.0548996
-0.0539695
-0.0528101
-0.0514088
-0.0498115
-0.0479988
-0.0460323
-0.0438801
-0.0416209
-0.0392026
-0.0367244
-0.0341054
-0.0314703
-0.0287015
-0.0259608
-0.023089
-0.0202998
-0.0173832
-0.0145759
-0.0115456
-0.00838884
-0.00466576
-0.000521774
0.00309353
0.00524174
0.00461478
0.0148701
0.0149134
0.0141366
0.0127605
0.0106006
0.00780436
0.00443208
0.000665455
-0.00329319
-0.0072869
-0.011177
-0.0149207
-0.0184825
-0.0218848
-0.0251289
-0.0282398
-0.0312156
-0.0340659
-0.0367815
-0.0393613
-0.0417932
-0.044071
-0.0461823
-0.0481174
-0.049864
-0.0514093
-0.0527423
-0.0538483
-0.0547197
-0.0553412
-0.0557121
-0.0558174
-0.0556665
-0.0552452
-0.0545757
-0.0536429
-0.0524838
-0.0510798
-0.0494841
-0.0476695
-0.0457073
-0.0435559
-0.0413064
-0.0388949
-0.0364364
-0.0338349
-0.0312358
-0.0285016
-0.0258206
-0.0230079
-0.0203116
-0.0174925
-0.0148426
-0.0120076
-0.00917415
-0.00584236
-0.00216614
0.00120921
0.0033421
0.00282373
0.0146158
0.0147283
0.0140076
0.0127067
0.0106029
0.00787986
0.00457265
0.000869
-0.00304414
-0.00700399
-0.0108731
-0.0146005
-0.0181488
-0.0215357
-0.0247632
-0.0278552
-0.0308119
-0.0336428
-0.0363402
-0.0389028
-0.0413194
-0.0435831
-0.0456821
-0.0476056
-0.0493424
-0.0508784
-0.0522038
-0.0533022
-0.054168
-0.0547835
-0.0551506
-0.0552511
-0.055098
-0.0546726
-0.0540021
-0.0530654
-0.0519062
-0.0504981
-0.0489032
-0.0470849
-0.0451255
-0.0429721
-0.0407298
-0.0383208
-0.0358778
-0.0332877
-0.0307187
-0.0280109
-0.0253821
-0.0226182
-0.0200062
-0.0172707
-0.0147628
-0.0120944
-0.00954973
-0.00656966
-0.00335807
-0.000272453
0.00176955
0.00134915
0.0145871
0.0147626
0.0141105
0.0128974
0.0108625
0.00822223
0.0049882
0.00135306
-0.00251152
-0.00643751
-0.0102878
-0.0140025
-0.0175414
-0.0209172
-0.0241321
-0.0272088
-0.0301494
-0.0329636
-0.0356453
-0.038193
-0.0405963
-0.0428477
-0.0449361
-0.0468495
-0.0485778
-0.0501053
-0.051424
-0.0525153
-0.0533762
-0.0539859
-0.0543497
-0.0544453
-0.0542905
-0.0538606
-0.0531891
-0.0522477
-0.0510879
-0.0496744
-0.0480791
-0.0462547
-0.044296
-0.0421367
-0.039898
-0.0374857
-0.0350531
-0.0324663
-0.02992
-0.027228
-0.024642
-0.0219139
-0.0193751
-0.0167069
-0.0143246
-0.0117938
-0.00950343
-0.00682908
-0.00406217
-0.00128923
0.000595701
0.000255528
0.0147489
0.0149762
0.0144032
0.0132896
0.0113379
0.00879067
0.00563861
0.00207852
-0.0017342
-0.00562636
-0.00946087
-0.0131678
-0.0167027
-0.0200722
-0.0232782
-0.0263422
-0.0292682
-0.0320664
-0.0347327
-0.0372654
-0.0396557
-0.0418947
-0.0439725
-0.0458759
-0.0475958
-0.0491148
-0.050427
-0.0515109
-0.0523669
-0.0529701
-0.0533306
-0.0534204
-0.0532633
-0.0528278
-0.0521545
-0.0512067
-0.0500451
-0.0486237
-0.0470261
-0.0451921
-0.0432308
-0.0410606
-0.0388208
-0.0363982
-0.0339691
-0.031376
-0.0288432
-0.0261543
-0.0235997
-0.0208917
-0.0184126
-0.0157926
-0.0135183
-0.0110954
-0.00902595
-0.00660786
-0.00425428
-0.00179372
-0.0001189
-0.000398004
0.0150729
0.0153391
0.0148569
0.0138573
0.0120107
0.00957394
0.00652151
0.00305183
-0.000695589
-0.00454461
-0.00835775
-0.0120552
-0.0155873
-0.0189536
-0.0221547
-0.0252104
-0.0281265
-0.0309133
-0.0335687
-0.0360907
-0.038472
-0.0407027
-0.0427742
-0.0446711
-0.0463865
-0.0479001
-0.049209
-0.0502881
-0.0511418
-0.0517404
-0.0520994
-0.0521845
-0.0520263
-0.0515852
-0.0509107
-0.0499556
-0.0487915
-0.0473601
-0.0457582
-0.0439106
-0.0419434
-0.0397564
-0.03751
-0.0350686
-0.0326352
-0.0300244
-0.0274945
-0.024794
-0.0222574
-0.0195513
-0.0171165
-0.014523
-0.0123379
-0.0099921
-0.00811141
-0.00589817
-0.00391907
-0.00175014
-0.000321476
-0.000555702
0.015514
0.0158026
0.0154181
0.0145437
0.0128242
0.0105161
0.00758166
0.00421925
0.000551609
-0.00324355
-0.00702946
-0.0107156
-0.0142461
-0.017612
-0.0208117
-0.0238622
-0.0267712
-0.0295488
-0.0321954
-0.0347087
-0.0370833
-0.0393077
-0.0413753
-0.043268
-0.0449816
-0.0464919
-0.0478
-0.0488758
-0.0497293
-0.0503241
-0.050683
-0.0507633
-0.0506047
-0.0501571
-0.0494809
-0.0485164
-0.0473484
-0.0459036
-0.0442946
-0.0424285
-0.0404508
-0.0382398
-0.0359803
-0.0335104
-0.0310635
-0.0284219
-0.0258828
-0.0231539
-0.0206202
-0.0178957
-0.0154878
-0.0128966
-0.010781
-0.00848016
-0.0067578
-0.00469678
-0.00304894
-0.00113277
3.33088e-05
-0.000165702
0.0160445
0.0163411
0.016059
0.0153225
0.0137585
0.0116046
0.00881659
0.00558794
0.00202623
-0.00169334
-0.00543524
-0.0091
-0.0126242
-0.01599
-0.0191916
-0.0222425
-0.0251509
-0.0279263
-0.0305713
-0.0330829
-0.035458
-0.0376829
-0.0397537
-0.0416485
-0.0433668
-0.0448795
-0.0461927
-0.04727
-0.0481281
-0.0487228
-0.0490853
-0.0491633
-0.0490067
-0.0485535
-0.0478767
-0.0469023
-0.04573
-0.0442691
-0.042651
-0.0407616
-0.0387691
-0.0365267
-0.0342471
-0.031738
-0.0292676
-0.0265808
-0.0240193
-0.0212434
-0.0186963
-0.0159307
-0.0135311
-0.0109158
-0.00884952
-0.00656026
-0.00496782
-0.0030055
-0.00164423
7.39723e-05
0.000981164
0.000817142
0.0166173
0.0169076
0.0167224
0.0161295
0.0147438
0.0127686
0.0101543
0.00708687
0.00365828
3.87808e-05
-0.00364027
-0.0072709
-0.0107825
-0.0141464
-0.0173515
-0.0204061
-0.0233183
-0.026096
-0.0287444
-0.0312591
-0.0336398
-0.0358701
-0.0379494
-0.0398513
-0.0415797
-0.0430994
-0.0444227
-0.0455053
-0.0463723
-0.0469695
-0.0473387
-0.0474155
-0.0472627
-0.0468036
-0.0461267
-0.0451402
-0.0439623
-0.0424816
-0.0408512
-0.0389324
-0.0369198
-0.0346373
-0.0323298
-0.0297692
-0.0272645
-0.0245164
-0.021918
-0.0190748
-0.0164966
-0.0136655
-0.0112547
-0.00858716
-0.00654988
-0.00423765
-0.00274936
-0.000831688
0.000286141
0.00187453
0.00254455
0.00242708
0.0172182
0.0174947
0.0173964
0.0169521
0.0157685
0.0140025
0.0115985
0.00872896
0.00547267
0.00198921
-0.00159567
-0.00516959
-0.00865452
-0.0120109
-0.0152205
-0.0182844
-0.021209
-0.0239992
-0.0266621
-0.0291907
-0.0315883
-0.0338344
-0.0359329
-0.0378514
-0.0395999
-0.0411349
-0.0424772
-0.0435721
-0.0444554
-0.0450605
-0.0454424
-0.0455217
-0.045377
-0.0449138
-0.0442391
-0.0432404
-0.0420575
-0.0405544
-0.0389101
-0.0369567
-0.0349198
-0.0325886
-0.0302457
-0.0276214
-0.0250712
-0.0222448
-0.0195946
-0.0166625
-0.014035
-0.0111123
-0.00867046
-0.00592106
-0.00389321
-0.00152263
-0.000116177
0.00181111
0.00272403
0.00426131
0.00472884
0.00468278
0.017802
0.0180578
0.0180265
0.0177239
0.0167521
0.0152196
0.0130573
0.0104221
0.00737724
0.0040697
0.000614313
-0.0028743
-0.0063135
-0.00965159
-0.0128626
-0.0159376
-0.0188805
-0.0216906
-0.024377
-0.0269283
-0.0293525
-0.0316231
-0.0337504
-0.0356937
-0.0374711
-0.0390288
-0.040398
-0.0415112
-0.0424176
-0.0430349
-0.0434347
-0.0435188
-0.0433856
-0.0429187
-0.042248
-0.0412352
-0.040047
-0.0385174
-0.0368565
-0.0348617
-0.0327953
-0.0304054
-0.0280189
-0.0253168
-0.0227092
-0.0197861
-0.0170684
-0.0140241
-0.0113286
-0.00828702
-0.00579419
-0.00293225
-0.000895556
0.00156931
0.00291206
0.00490312
0.00564216
0.0072147
0.00751998
0.00758454
0.0183792
0.018614
0.018632
0.0184614
0.0177076
0.0164337
0.0145509
0.0121936
0.0094101
0.00632818
0.00304981
-0.000315016
-0.00368041
-0.00698457
-0.0101919
-0.0132817
-0.0162528
-0.0190962
-0.0218221
-0.0244122
-0.0268797
-0.0291902
-0.0313618
-0.0333434
-0.0351638
-0.0367556
-0.038164
-0.0393048
-0.0402445
-0.0408813
-0.0413071
-0.0414012
-0.0412857
-0.0408179
-0.0401553
-0.0391289
-0.0379373
-0.0363791
-0.0347014
-0.0326599
-0.0305609
-0.0281033
-0.0256664
-0.0228733
-0.0201974
-0.0171592
-0.0143589
-0.0111789
-0.00839699
-0.00520857
-0.00264581
0.000360009
0.0024218
0.00501733
0.00630967
0.00841855
0.0090048
0.0107037
0.0108835
0.0111128
0.0188994
0.0191087
0.0191558
0.0190918
0.0185438
0.0175388
0.0159628
0.0139244
0.0114505
0.00864898
0.00560073
0.00240813
-0.000846536
-0.00409111
-0.00728229
-0.0103836
-0.0133885
-0.0162748
-0.0190541
-0.021697
-0.024224
-0.0265885
-0.0288199
-0.0308523
-0.0327295
-0.0343658
-0.0358251
-0.0370017
-0.0379844
-0.0386465
-0.039106
-0.0392135
-0.0391212
-0.0386535
-0.0380022
-0.0369608
-0.035767
-0.034176
-0.03248
-0.0303848
-0.0282488
-0.0257128
-0.023218
-0.0203186
-0.0175631
-0.0143897
-0.0114917
-0.00815109
-0.00526503
-0.00190085
0.000749631
0.00393135
0.00603211
0.00879538
0.0100455
0.0123269
0.0127704
0.0146907
0.0147702
0.0152328
0.019409
0.0195951
0.0196612
0.0196797
0.0193222
0.0185897
0.0173485
0.0156718
0.0135633
0.0111017
0.00834518
0.00537931
0.00227997
-0.000875192
-0.00403467
-0.00714518
-0.0101922
-0.0131364
-0.0159897
-0.0187071
-0.0213171
-0.0237569
-0.0260703
-0.028172
-0.0301252
-0.0318212
-0.0333478
-0.0345721
-0.0356113
-0.0363075
-0.0368117
-0.0369387
-0.0368782
-0.0364141
-0.0357807
-0.0347251
-0.0335334
-0.0319077
-0.0301954
-0.0280415
-0.0258677
-0.0232446
-0.0206874
-0.0176687
-0.014825
-0.0114982
-0.00849003