/*--------------------------------*- C++ -*----------------------------------*\
| =========                 |                                                 |
| \\      /  F ield         | OpenFOAM: The Open Source CFD Toolbox           |
|  \\    /   O peration     | Version:  2406                                  |
|   \\  /    A nd           | Website:  www.openfoam.com                      |
|    \\/     M anipulation  |                                                 |
\*---------------------------------------------------------------------------*/
FoamFile
{
    version     2.0;
    format      ascii;
    arch        "LSB;label=32;scalar=64";
    class       surfaceScalarField;
    location    "4.05";
    object      phi;
}
// * * * * * * * * * * * * * * * * * * * * * * * * * * * * * * * * * * * * * //

dimensions      [0 3 -1 0 0 0 0];

oriented        oriented;

internalField   nonuniform List<scalar> 
7080
(
-1.17447e-08
1.17391e-08
-1.40718e-07
1.30573e-07
-3.54925e-07
2.13994e-07
-6.23729e-07
2.70583e-07
-9.18553e-07
2.94947e-07
-1.22424e-06
3.07475e-07
-1.53263e-06
3.08775e-07
-1.83931e-06
3.08352e-07
-2.14346e-06
3.04696e-07
-2.4436e-06
3.01658e-07
-2.74023e-06
2.97286e-07
-3.0322e-06
2.93357e-07
-3.31982e-06
2.88351e-07
-3.60186e-06
2.83301e-07
-3.87825e-06
2.77158e-07
-4.1477e-06
2.70595e-07
-4.40981e-06
2.62883e-07
-4.66323e-06
2.54465e-07
-4.9073e-06
2.44819e-07
-5.1406e-06
2.34237e-07
-5.36223e-06
2.22335e-07
-5.57071e-06
2.09306e-07
-5.76496e-06
1.94875e-07
-5.94343e-06
1.79175e-07
-6.10492e-06
1.6202e-07
-6.24788e-06
1.4352e-07
-6.37104e-06
1.2357e-07
-6.47291e-06
1.02285e-07
-6.55228e-06
7.96367e-08
-6.6078e-06
5.57705e-08
-6.63844e-06
3.07377e-08
-6.64309e-06
4.72688e-09
-6.62104e-06
-2.2134e-08
-6.57155e-06
-4.96024e-08
-6.49434e-06
-7.74857e-08
-6.38915e-06
-1.05487e-07
-6.25624e-06
-1.33373e-07
-6.09592e-06
-1.60803e-07
-5.90905e-06
-1.87538e-07
-5.69649e-06
-2.13211e-07
-5.45972e-06
-2.3763e-07
-5.20009e-06
-2.60419e-07
-4.91965e-06
-2.81496e-07
-4.62006e-06
-3.00483e-07
-4.30381e-06
-3.17477e-07
-3.9727e-06
-3.32082e-07
-3.62942e-06
-3.44652e-07
-3.27573e-06
-3.54698e-07
-2.91435e-06
-3.62898e-07
-2.54688e-06
-3.6845e-07
-2.17621e-06
-3.72316e-07
-1.80439e-06
-3.72725e-07
-1.43563e-06
-3.70488e-07
-1.07526e-06
-3.61122e-07
-7.32868e-07
-3.44117e-07
-4.24398e-07
-3.08931e-07
-1.72101e-07
-2.53817e-07
-9.61986e-09
-1.6256e-07
4.3852e-08
-5.45418e-08
4.38104e-08
-1.33393e-07
1.43531e-07
-4.9253e-07
4.89737e-07
-1.01482e-06
7.33666e-07
-1.64414e-06
8.99213e-07
-2.33552e-06
9.83474e-07
-3.0573e-06
1.02804e-06
-3.79182e-06
1.04048e-06
-4.52713e-06
1.04219e-06
-5.25909e-06
1.03399e-06
-5.98336e-06
1.02431e-06
-6.69946e-06
1.01089e-06
-7.40477e-06
9.96989e-07
-8.09902e-06
9.80276e-07
-8.77972e-06
9.62299e-07
-9.44606e-06
9.4135e-07
-1.00954e-05
9.18301e-07
-1.07265e-05
8.91946e-07
-1.13364e-05
8.62788e-07
-1.19234e-05
8.29949e-07
-1.24844e-05
7.93703e-07
-1.3017e-05
7.53401e-07
-1.35183e-05
7.09187e-07
-1.39854e-05
6.60593e-07
-1.44151e-05
6.07714e-07
-1.48045e-05
5.50253e-07
-1.51503e-05
4.88319e-07
-1.54494e-05
4.21798e-07
-1.56987e-05
3.50873e-07
-1.58953e-05
2.75628e-07
-1.60363e-05
1.96373e-07
-1.61192e-05
1.13404e-07
-1.61417e-05
2.7192e-08
-1.6102e-05
-6.17488e-08
-1.59985e-05
-1.52776e-07
-1.58304e-05
-2.45177e-07
-1.5597e-05
-3.38154e-07
-1.52988e-05
-4.30853e-07
-1.49361e-05
-5.22366e-07
-1.45107e-05
-6.11787e-07
-1.40243e-05
-6.98174e-07
-1.34798e-05
-7.80693e-07
-1.288e-05
-8.58449e-07
-1.22289e-05
-9.30827e-07
-1.15302e-05
-9.97041e-07
-1.07889e-05
-1.05685e-06
-1.0009e-05
-1.10958e-06
-9.19602e-06
-1.1555e-06
-8.35419e-06
-1.1939e-06
-7.48931e-06
-1.22558e-06
-6.60575e-06
-1.24918e-06
-5.71024e-06
-1.26565e-06
-4.80887e-06
-1.27114e-06
-3.91237e-06
-1.26494e-06
-3.03422e-06
-1.2363e-06
-2.19725e-06
-1.17939e-06
-1.43356e-06
-1.06988e-06
-7.87799e-07
-8.98571e-07
-3.13256e-07
-6.34971e-07
-5.04581e-08
-3.1722e-07
-5.54503e-09
-2.27025e-07
3.7075e-07
-7.62788e-07
1.02818e-06
-1.51296e-06
1.4838e-06
-2.39694e-06
1.78601e-06
-3.36272e-06
1.94997e-06
-4.36884e-06
2.03693e-06
-5.39386e-06
2.06662e-06
-6.42106e-06
2.07201e-06
-7.44454e-06
2.05884e-06
-8.4578e-06
2.04001e-06
-9.45953e-06
2.01412e-06
-1.0446e-05
1.9857e-06
-1.14162e-05
1.9521e-06
-1.2367e-05
1.91515e-06
-1.32968e-05
1.87269e-06
-1.42021e-05
1.82559e-06
-1.50809e-05
1.77227e-06
-1.59295e-05
1.71314e-06
-1.67451e-05
1.64702e-06
-1.75238e-05
1.57404e-06
-1.82624e-05
1.4933e-06
-1.89566e-05
1.40483e-06
-1.96028e-05
1.30798e-06
-2.01966e-05
1.20273e-06
-2.07341e-05
1.08872e-06
-2.12108e-05
9.66012e-07
-2.16228e-05
8.34536e-07
-2.19658e-05
6.94549e-07
-2.2236e-05
5.46313e-07
-2.24295e-05
3.90353e-07
-2.25432e-05
2.27313e-07
-2.2574e-05
5.80341e-08
-2.25194e-05
-1.16442e-07
-2.23775e-05
-2.94948e-07
-2.21471e-05
-4.76075e-07
-2.18274e-05
-6.58372e-07
-2.1419e-05
-8.40156e-07
-2.09224e-05
-1.01979e-06
-2.03399e-05
-1.19548e-06
-1.96738e-05
-1.36555e-06
-1.89276e-05
-1.5283e-06
-1.81054e-05
-1.6822e-06
-1.72121e-05
-1.82588e-06
-1.62528e-05
-1.95808e-06
-1.52337e-05
-2.07803e-06
-1.41604e-05
-2.18478e-06
-1.30399e-05
-2.2783e-06
-1.1878e-05
-2.35775e-06
-1.06823e-05
-2.42376e-06
-9.45895e-06
-2.47452e-06
-8.21699e-06
-2.51027e-06
-6.96489e-06
-2.5251e-06
-5.71735e-06
-2.51524e-06
-4.4919e-06
-2.46334e-06
-3.31886e-06
-2.35515e-06
-2.23719e-06
-2.15261e-06
-1.30459e-06
-1.83364e-06
-5.83739e-07
-1.35602e-06
-1.40181e-07
-7.62851e-07
-1.4585e-07
-2.96914e-07
6.65796e-07
-9.64343e-07
1.69641e-06
-1.87705e-06
2.39362e-06
-2.93567e-06
2.84466e-06
-4.08489e-06
3.09651e-06
-5.27839e-06
3.22989e-06
-6.49409e-06
3.27984e-06
-7.71265e-06
3.28967e-06
-8.92744e-06
3.27137e-06
-1.01304e-05
3.24182e-06
-1.13195e-05
3.2012e-06
-1.24902e-05
3.15513e-06
-1.3641e-05
3.10097e-06
-1.47678e-05
3.04073e-06
-1.58688e-05
2.97193e-06
-1.69398e-05
2.89539e-06
-1.79784e-05
2.8092e-06
-1.89801e-05
2.71362e-06
-1.99417e-05
2.60716e-06
-2.08586e-05
2.48981e-06
-2.1727e-05
2.36042e-06
-2.2542e-05
2.21884e-06
-2.32994e-05
2.06426e-06
-2.39941e-05
1.89656e-06
-2.46216e-05
1.71528e-06
-2.51768e-05
1.52047e-06
-2.56551e-05
1.31212e-06
-2.60516e-05
1.09057e-06
-2.63621e-05
8.56311e-07
-2.65821e-05
6.10127e-07
-2.67081e-05
3.53076e-07
-2.67365e-05
8.64294e-08
-2.66648e-05
-1.88151e-07
-2.64906e-05
-4.6889e-07
-2.62128e-05
-7.5357e-07
-2.58306e-05
-1.03999e-06
-2.53447e-05
-1.3255e-06
-2.4756e-05
-1.60765e-06
-2.4067e-05
-1.8836e-06
-2.32806e-05
-2.15087e-06
-2.24011e-05
-2.40674e-06
-2.14329e-05
-2.64898e-06
-2.03822e-05
-2.87535e-06
-1.92545e-05
-3.08411e-06
-1.80573e-05
-3.2738e-06
-1.6797e-05
-3.44326e-06
-1.54817e-05
-3.59204e-06
-1.41182e-05
-3.7192e-06
-1.27154e-05
-3.82501e-06
-1.12804e-05
-3.90734e-06
-9.82386e-06
-3.96529e-06
-8.35554e-06
-3.99106e-06
-6.8925e-06
-3.97699e-06
-5.45377e-06
-3.89964e-06
-4.07321e-06
-3.73481e-06
-2.79135e-06
-3.43206e-06
-1.67196e-06
-2.95278e-06
-7.82047e-07
-2.24358e-06
-2.0683e-07
-1.33864e-06
-3.51196e-07
-3.35888e-07
1.00153e-06
-1.08922e-06
2.45284e-06
-2.11216e-06
3.41576e-06
-3.29013e-06
4.0254e-06
-4.56326e-06
4.36963e-06
-5.88136e-06
4.55047e-06
-7.22225e-06
4.62121e-06
-8.56523e-06
4.63487e-06
-9.90377e-06
4.61069e-06
-1.12289e-05
4.56893e-06
-1.25386e-05
4.51185e-06
-1.38274e-05
4.44582e-06
-1.50939e-05
4.36849e-06
-1.63334e-05
4.28189e-06
-1.75438e-05
4.18338e-06
-1.87205e-05
4.07361e-06
-1.98606e-05
3.95043e-06
-2.09595e-05
3.81387e-06
-2.20135e-05
3.66221e-06
-2.30177e-05
3.4952e-06
-2.39678e-05
3.31147e-06
-2.48585e-05
3.11069e-06
-2.56853e-05
2.89187e-06
-2.64426e-05
2.65476e-06
-2.71255e-05
2.39884e-06
-2.77284e-05
2.12414e-06
-2.82464e-05
1.83068e-06
-2.86743e-05
1.51895e-06
-2.90073e-05
1.18967e-06
-2.92408e-05
8.43912e-07
-2.93708e-05
4.83189e-07
-2.93935e-05
1.09252e-07
-2.93062e-05
-2.75546e-07
-2.91065e-05
-6.68762e-07
-2.87931e-05
-1.06727e-06
-2.83654e-05
-1.46805e-06
-2.78242e-05
-1.86737e-06
-2.71705e-05
-2.26187e-06
-2.64074e-05
-2.64756e-06
-2.55381e-05
-3.02105e-06
-2.45674e-05
-3.3785e-06
-2.35004e-05
-3.71693e-06
-2.23439e-05
-4.03311e-06
-2.11044e-05
-4.32478e-06
-1.97899e-05
-4.58976e-06
-1.84078e-05
-4.82668e-06
-1.69669e-05
-5.03456e-06
-1.54748e-05
-5.21257e-06
-1.39413e-05
-5.3604e-06
-1.2374e-05
-5.47587e-06
-1.07846e-05
-5.55664e-06
-9.18334e-06
-5.59343e-06
-7.58836e-06
-5.5741e-06
-6.01903e-06
-5.46975e-06
-4.51106e-06
-5.245e-06
-3.10589e-06
-4.83751e-06
-1.87202e-06
-4.18896e-06
-8.81891e-07
-3.23321e-06
-2.34642e-07
-1.98834e-06
-5.85701e-07
-3.61413e-07
1.36093e-06
-1.17136e-06
3.26417e-06
-2.26667e-06
4.50803e-06
-3.52291e-06
5.28227e-06
-4.87628e-06
5.72044e-06
-6.27424e-06
5.94843e-06
-7.6947e-06
6.03943e-06
-9.11639e-06
6.05616e-06
-1.05331e-05
6.02546e-06
-1.19355e-05
5.97061e-06
-1.33215e-05
5.89612e-06
-1.46853e-05
5.80889e-06
-1.60254e-05
5.707e-06
-1.73368e-05
5.59237e-06
-1.86171e-05
5.46231e-06
-1.98616e-05
5.31723e-06
-2.10672e-05
5.15477e-06
-2.22289e-05
4.97471e-06
-2.3343e-05
4.7751e-06
-2.4404e-05
4.55544e-06
-2.54077e-05
4.31414e-06
-2.63484e-05
4.05064e-06
-2.72212e-05
3.7638e-06
-2.80203e-05
3.45321e-06
-2.87404e-05
3.11827e-06
-2.93757e-05
2.75895e-06
-2.9921e-05
2.37538e-06
-3.03705e-05
1.9681e-06
-3.07193e-05
1.53813e-06
-3.09624e-05
1.0868e-06
-3.10955e-05
6.16124e-07
-3.11147e-05
1.28354e-07
-3.10168e-05
-3.73416e-07
-3.07993e-05
-8.86027e-07
-3.0461e-05
-1.40537e-06
-3.00012e-05
-1.92752e-06
-2.94205e-05
-2.4476e-06
-2.87206e-05
-2.96121e-06
-2.79045e-05
-3.4631e-06
-2.69758e-05
-3.94891e-06
-2.594e-05
-4.41354e-06
-2.48027e-05
-4.85319e-06
-2.35715e-05
-5.26352e-06
-2.22533e-05
-5.64178e-06
-2.08571e-05
-5.9849e-06
-1.9391e-05
-6.29142e-06
-1.78648e-05
-6.55973e-06
-1.62867e-05
-6.78924e-06
-1.46671e-05
-6.97899e-06
-1.30143e-05
-7.12698e-06
-1.13407e-05
-7.2293e-06
-9.65675e-06
-7.27557e-06
-7.98126e-06
-7.24892e-06
-6.3336e-06
-7.11544e-06
-4.75036e-06
-6.82797e-06
-3.27359e-06
-6.31217e-06
-1.9746e-06
-5.48828e-06
-9.30073e-07
-4.27537e-06
-2.46197e-07
-2.67326e-06
-8.30329e-07
-3.73998e-07
1.73454e-06
-1.21775e-06
4.11121e-06
-2.35881e-06
5.64783e-06
-3.66634e-06
6.59259e-06
-5.07289e-06
7.12652e-06
-6.52386e-06
7.40174e-06
-7.99684e-06
7.51247e-06
-9.4702e-06
7.53154e-06
-1.09381e-05
7.49377e-06
-1.2391e-05
7.42527e-06
-1.38272e-05
7.33288e-06
-1.52406e-05
7.22386e-06
-1.66297e-05
7.09682e-06
-1.79894e-05
6.95343e-06
-1.93173e-05
6.79103e-06
-2.06086e-05
6.60969e-06
-2.18599e-05
6.40691e-06
-2.30663e-05
6.18215e-06
-2.42237e-05
5.93326e-06
-2.53267e-05
5.65941e-06
-2.63707e-05
5.35884e-06
-2.73499e-05
5.03067e-06
-2.82591e-05
4.67362e-06
-2.90923e-05
4.28706e-06
-2.98438e-05
3.87032e-06
-3.05076e-05
3.42327e-06
-3.10779e-05
2.94608e-06
-3.15487e-05
2.43938e-06
-3.19148e-05
1.90442e-06
-3.21705e-05
1.34281e-06
-3.23114e-05
7.57087e-07
-3.23329e-05
1.49985e-07
-3.22318e-05
-4.74601e-07
-3.20052e-05
-1.11276e-06
-3.16514e-05
-1.75932e-06
-3.11698e-05
-2.40938e-06
-3.05611e-05
-3.05675e-06
-2.98267e-05
-3.69596e-06
-2.89701e-05
-4.3203e-06
-2.79953e-05
-4.92433e-06
-2.6908e-05
-5.50153e-06
-2.57147e-05
-6.04719e-06
-2.44234e-05
-6.55571e-06
-2.30421e-05
-7.02382e-06
-2.15807e-05
-7.44743e-06
-2.00479e-05
-7.82506e-06
-1.84544e-05
-8.15438e-06
-1.68093e-05
-8.4352e-06
-1.51238e-05
-8.66586e-06
-1.34067e-05
-8.84481e-06
-1.1671e-05
-8.9665e-06
-9.92743e-06
-9.01976e-06
-8.19526e-06
-8.98279e-06
-6.49415e-06
-8.81682e-06
-4.86161e-06
-8.46239e-06
-3.341e-06
-7.83258e-06
-2.00616e-06
-6.82524e-06
-9.37399e-07
-5.34326e-06
-2.43265e-07
-3.36985e-06
-1.07327e-06
-3.83029e-07
2.11553e-06
-1.24895e-06
4.97881e-06
-2.41989e-06
6.81566e-06
-3.76139e-06
7.93505e-06
-5.20328e-06
8.56591e-06
-6.68972e-06
8.88852e-06
-8.19796e-06
9.01861e-06
-9.70626e-06
9.03977e-06
-1.12091e-05
8.9948e-06
-1.26968e-05
8.91266e-06
-1.41681e-05
8.80256e-06
-1.56167e-05
8.67197e-06
-1.70413e-05
8.52006e-06
-1.84366e-05
8.34818e-06
-1.98005e-05
8.1537e-06
-2.11278e-05
7.93632e-06
-2.24153e-05
7.69341e-06
-2.36579e-05
7.42407e-06
-2.48515e-05
7.12592e-06
-2.59905e-05
6.79779e-06
-2.70701e-05
6.43767e-06
-2.80844e-05
6.0444e-06
-2.90279e-05
5.61647e-06
-2.98943e-05
5.15298e-06
-3.06777e-05
4.65316e-06
-3.13716e-05
4.11671e-06
-3.19697e-05
3.54384e-06
-3.24658e-05
2.93517e-06
-3.28539e-05
2.2922e-06
-3.3128e-05
1.61675e-06
-3.3283e-05
9.11873e-07
-3.33138e-05
1.80801e-07
-3.32167e-05
-5.7174e-07
-3.29883e-05
-1.34106e-06
-3.26266e-05
-2.12081e-06
-3.21307e-05
-2.90507e-06
-3.1501e-05
-3.68616e-06
-3.07391e-05
-4.45742e-06
-2.98485e-05
-5.2105e-06
-2.88335e-05
-5.93876e-06
-2.77005e-05
-6.63398e-06
-2.64565e-05
-7.29049e-06
-2.51105e-05
-7.90118e-06
-2.36712e-05
-8.46223e-06
-2.21496e-05
-8.96837e-06
-2.05555e-05
-9.41817e-06
-1.89008e-05
-9.80844e-06
-1.71952e-05
-1.01396e-05
-1.54511e-05
-1.04093e-05
-1.3678e-05
-1.06167e-05
-1.18895e-05
-1.07545e-05
-1.00967e-05
-1.08111e-05
-8.31956e-06
-1.07597e-05
-6.57815e-06
-1.05566e-05
-4.91079e-06
-1.01299e-05
-3.36219e-06
-9.37933e-06
-2.00785e-06
-8.18021e-06
-9.303e-07
-6.41861e-06
-2.37287e-07
-4.06411e-06
-1.30909e-06
-3.87757e-07
2.50277e-06
-1.26806e-06
5.86247e-06
-2.45951e-06
8.00563e-06
-3.8253e-06
9.30363e-06
-5.29324e-06
1.00331e-05
-6.8064e-06
1.0404e-05
-8.34162e-06
1.05536e-05
-9.87699e-06
1.05771e-05
-1.14072e-05
1.05251e-05
-1.29226e-05
1.04297e-05
-1.44221e-05
1.03024e-05
-1.58997e-05
1.01509e-05
-1.7354e-05
9.97492e-06
-1.878e-05
9.77536e-06
-2.01754e-05
9.54968e-06
-2.15352e-05
9.29715e-06
-2.28562e-05
9.01501e-06
-2.41331e-05
8.70192e-06
-2.53619e-05
8.3553e-06
-2.65369e-05
7.97357e-06
-2.76532e-05
7.55446e-06
-2.87045e-05
7.0964e-06
-2.96852e-05
6.59765e-06
-3.05886e-05
6.05699e-06
-3.14085e-05
5.47344e-06
-3.21379e-05
4.84649e-06
-3.277e-05
4.17631e-06
-3.3298e-05
3.46345e-06
-3.37152e-05
2.70959e-06
-3.40149e-05
1.91673e-06
-3.41914e-05
1.08841e-06
-3.42388e-05
2.28343e-07
-3.41527e-05
-6.57885e-07
-3.3929e-05
-1.56477e-06
-3.35653e-05
-2.48469e-06
-3.30599e-05
-3.41057e-06
-3.24133e-05
-4.3331e-06
-3.16267e-05
-5.24428e-06
-3.07037e-05
-6.13382e-06
-2.96491e-05
-6.99371e-06
-2.84698e-05
-7.81378e-06
-2.71736e-05
-8.58722e-06
-2.57703e-05
-9.30511e-06
-2.427e-05
-9.96303e-06
-2.26848e-05
-1.05543e-05
-2.10259e-05
-1.10776e-05
-1.93064e-05
-1.15288e-05
-1.75373e-05
-1.19092e-05
-1.57321e-05
-1.22155e-05
-1.39012e-05
-1.2448e-05
-1.2059e-05
-1.25978e-05
-1.02174e-05
-1.2653e-05
-8.39685e-06
-1.25816e-05
-6.61831e-06
-1.23351e-05
-4.92109e-06
-1.18287e-05
-3.35152e-06
-1.09485e-05
-1.98651e-06
-9.5471e-06
-9.09865e-07
-7.49423e-06
-2.26711e-07
-4.74954e-06
-1.53536e-06
-3.92788e-07
2.8935e-06
-1.28482e-06
6.75632e-06
-2.49251e-06
9.21017e-06
-3.87759e-06
1.06898e-05
-5.36643e-06
1.15195e-05
-6.90142e-06
1.19395e-05
-8.45904e-06
1.21092e-05
-1.00173e-05
1.21355e-05
-1.15711e-05
1.20772e-05
-1.3111e-05
1.19694e-05
-1.4636e-05
1.1826e-05
-1.61402e-05
1.16548e-05
-1.76226e-05
1.1456e-05
-1.90779e-05
1.12303e-05
-2.05042e-05
1.09749e-05
-2.18965e-05
1.06889e-05
-2.32516e-05
1.03692e-05
-2.45643e-05
1.00141e-05
-2.58304e-05
9.62062e-06
-2.70441e-05
9.18684e-06
-2.82005e-05
8.71016e-06
-2.92931e-05
8.18853e-06
-3.0316e-05
7.61992e-06
-3.1262e-05
7.00265e-06
-3.21246e-05
6.33554e-06
-3.28961e-05
5.61769e-06
-3.35694e-05
4.8492e-06
-3.41366e-05
4.03042e-06
-3.45904e-05
3.16317e-06
-3.49234e-05
2.24953e-06
-3.51286e-05
1.2935e-06
-3.51995e-05
2.99213e-07
-3.51306e-05
-7.26822e-07
-3.49171e-05
-1.77828e-06
-3.45555e-05
-2.84612e-06
-3.40439e-05
-3.92206e-06
-3.33819e-05
-4.99489e-06
-3.25709e-05
-6.05507e-06
-3.16143e-05
-7.0901e-06
-3.05173e-05
-8.09034e-06
-2.92874e-05
-9.0433e-06
-2.79333e-05
-9.94081e-06
-2.64662e-05
-1.07718e-05
-2.48975e-05
-1.15311e-05
-2.32408e-05
-1.22105e-05
-2.15091e-05
-1.28087e-05
-1.9717e-05
-1.33205e-05
-1.78772e-05
-1.37482e-05
-1.60045e-05
-1.40879e-05
-1.41104e-05
-1.43412e-05
-1.22105e-05
-1.44975e-05
-1.03175e-05
-1.45449e-05
-8.45254e-06
-1.44465e-05
-6.6376e-06
-1.41488e-05
-4.91292e-06
-1.35536e-05
-3.32626e-06
-1.25336e-05
-1.95554e-06
-1.09186e-05
-8.84893e-07
-8.56292e-06
-2.15511e-07
-5.4202e-06
-1.74957e-06
-3.96456e-07
3.28941e-06
-1.29865e-06
7.66196e-06
-2.52085e-06
1.04308e-05
-3.92339e-06
1.20952e-05
-5.43157e-06
1.30268e-05
-6.98714e-06
1.34974e-05
-8.56628e-06
1.3688e-05
-1.0147e-05
1.37181e-05
-1.17241e-05
1.36543e-05
-1.32884e-05
1.35354e-05
-1.48392e-05
1.3377e-05
-1.63707e-05
1.31876e-05
-1.7882e-05
1.29677e-05
-1.93681e-05
1.27175e-05
-2.08272e-05
1.24345e-05
-2.22542e-05
1.21169e-05
-2.36463e-05
1.17618e-05
-2.49981e-05
1.13667e-05
-2.63055e-05
1.09285e-05
-2.75627e-05
1.04447e-05
-2.87644e-05
9.91235e-06
-2.99041e-05
9.32883e-06
-3.09755e-05
8.69172e-06
-3.19712e-05
7.99883e-06
-3.2884e-05
7.24861e-06
-3.37056e-05
6.43972e-06
-3.44281e-05
5.57202e-06
-3.5043e-05
4.64557e-06
-3.55419e-05
3.66224e-06
-3.59162e-05
2.62405e-06
-3.6158e-05
1.53543e-06
-3.62596e-05
4.0087e-07
-3.62142e-05
-7.72191e-07
-3.60159e-05
-1.97658e-06
-3.56603e-05
-3.20171e-06
-3.51445e-05
-4.43794e-06
-3.44676e-05
-5.67193e-06
-3.36305e-05
-6.89234e-06
-3.26368e-05
-8.08406e-06
-3.14918e-05
-9.23554e-06
-3.0204e-05
-1.03315e-05
-2.8783e-05
-1.1362e-05
-2.72417e-05
-1.23136e-05
-2.55931e-05
-1.31801e-05
-2.38529e-05
-1.39512e-05
-2.2036e-05
-1.46259e-05
-2.01593e-05
-1.51978e-05
-1.82372e-05
-1.56706e-05
-1.62864e-05
-1.60394e-05
-1.432e-05
-1.63078e-05
-1.23547e-05
-1.64636e-05
-1.04043e-05
-1.64954e-05
-8.49099e-06
-1.63609e-05
-6.63761e-06
-1.6002e-05
-4.88551e-06
-1.5307e-05
-3.28386e-06
-1.41347e-05
-1.91136e-06
-1.22927e-05
-8.51738e-07
-9.62151e-06
-2.0121e-07
-6.07275e-06
-1.95029e-06
-4.01341e-07
3.68862e-06
-1.31392e-06
8.57639e-06
-2.5504e-06
1.1664e-05
-3.96994e-06
1.3516e-05
-5.49696e-06
1.45512e-05
-7.07273e-06
1.50737e-05
-8.6732e-06
1.52864e-05
-1.02763e-05
1.53214e-05
-1.18772e-05
1.52535e-05
-1.34666e-05
1.51247e-05
-1.50442e-05
1.49531e-05
-1.66043e-05
1.47474e-05
-1.81463e-05
1.45084e-05
-1.96654e-05
1.42362e-05
-2.11598e-05
1.39279e-05
-2.26248e-05
1.35814e-05
-2.40574e-05
1.31935e-05
-2.54524e-05
1.27612e-05
-2.68058e-05
1.22812e-05
-2.81117e-05
1.17501e-05
-2.93646e-05
1.11647e-05
-3.05579e-05
1.05217e-05
-3.16848e-05
9.81817e-06
-3.27377e-05
9.05131e-06
-3.37086e-05
8.2191e-06
-3.45888e-05
7.31958e-06
-3.53693e-05
6.35226e-06
-3.60407e-05
5.31675e-06
-3.65935e-05
4.2148e-06
-3.70179e-05
3.04828e-06
-3.73046e-05
1.82193e-06
-3.74443e-05
5.40524e-07
-3.7429e-05
-7.87579e-07
-3.72512e-05
-2.15434e-06
-3.69054e-05
-3.54752e-06
-3.63873e-05
-4.95593e-06
-3.56953e-05
-6.36381e-06
-3.48298e-05
-7.75773e-06
-3.37942e-05
-9.1195e-06
-3.25942e-05
-1.04352e-05
-3.12392e-05
-1.16863e-05
-2.97402e-05
-1.28607e-05
-2.81118e-05
-1.39417e-05
-2.63694e-05
-1.49222e-05
-2.4531e-05
-1.57892e-05
-2.26142e-05
-1.65422e-05
-2.06385e-05
-1.71733e-05
-1.86208e-05
-1.76877e-05
-1.658e-05
-1.808e-05
-1.45311e-05
-1.83561e-05
-1.24922e-05
-1.85023e-05
-1.04785e-05
-1.85084e-05
-8.51296e-06
-1.83264e-05
-6.61963e-06
-1.78943e-05
-4.84071e-06
-1.70863e-05
-3.22655e-06
-1.57476e-05
-1.85626e-06
-1.36637e-05
-8.12487e-07
-1.06636e-05
-1.85204e-07
-6.70123e-06
-2.13437e-06
-4.05486e-07
4.09361e-06
-1.32862e-06
9.50313e-06
-2.5799e-06
1.29137e-05
-4.0171e-06
1.49561e-05
-5.56382e-06
1.60972e-05
-7.16081e-06
1.66731e-05
-8.78384e-06
1.69091e-05
-1.04108e-05
1.69503e-05
-1.2037e-05
1.68797e-05
-1.36535e-05
1.67428e-05
-1.52599e-05
1.65598e-05
-1.68509e-05
1.63398e-05
-1.84262e-05
1.60841e-05
-1.9981e-05
1.57922e-05
-2.15141e-05
1.54613e-05
-2.30206e-05
1.50889e-05
-2.44979e-05
1.46712e-05
-2.59407e-05
1.42049e-05
-2.73453e-05
1.36861e-05
-2.87055e-05
1.3111e-05
-3.0016e-05
1.24756e-05
-3.12697e-05
1.1776e-05
-3.24599e-05
1.10087e-05
-3.3578e-05
1.017e-05
-3.46159e-05
9.25731e-06
-3.55639e-05
8.26792e-06
-3.64122e-05
7.20082e-06
-3.71501e-05
6.05493e-06
-3.77668e-05
4.83177e-06
-3.82512e-05
3.53281e-06
-3.85921e-05
2.16303e-06
-3.87788e-05
7.27314e-07
-3.88012e-05
-7.65071e-07
-3.86502e-05
-2.30525e-06
-3.83186e-05
-3.87917e-06
-3.78005e-05
-5.47399e-06
-3.70933e-05
-7.0711e-06
-3.61964e-05
-8.65468e-06
-3.51132e-05
-1.02028e-05
-3.38497e-05
-1.16989e-05
-3.24162e-05
-1.312e-05
-3.08254e-05
-1.44517e-05
-2.90941e-05
-1.56733e-05
-2.72405e-05
-1.6776e-05
-2.52859e-05
-1.77443e-05
-2.32509e-05
-1.85774e-05
-2.11585e-05
-1.92661e-05
-1.90288e-05
-1.98177e-05
-1.68832e-05
-2.0226e-05
-1.47392e-05
-2.05003e-05
-1.26169e-05
-2.06253e-05
-1.05325e-05
-2.05928e-05
-8.51036e-06
-2.03494e-05
-6.57533e-06
-1.98292e-05
-4.77047e-06
-1.88921e-05
-3.14708e-06
-1.73705e-05
-1.78435e-06
-1.50277e-05
-7.6302e-07
-1.1684e-05
-1.65424e-07
-7.30051e-06
-2.29933e-06
-4.10863e-07
4.50219e-06
-1.34515e-06
1.04392e-05
-2.61171e-06
1.41769e-05
-4.06704e-06
1.64126e-05
-5.63399e-06
1.76614e-05
-7.2528e-06
1.82924e-05
-8.89913e-06
1.85532e-05
-1.05509e-05
1.86022e-05
-1.22036e-05
1.85305e-05
-1.38483e-05
1.83874e-05
-1.54853e-05
1.81952e-05
-1.71092e-05
1.79634e-05
-1.87201e-05
1.76937e-05
-2.03134e-05
1.73852e-05
-2.18882e-05
1.7035e-05
-2.34398e-05
1.664e-05
-2.49659e-05
1.61963e-05
-2.64612e-05
1.56999e-05
-2.79222e-05
1.51463e-05
-2.93427e-05
1.4531e-05
-3.07173e-05
1.38496e-05
-3.20388e-05
1.30971e-05
-3.33001e-05
1.22694e-05
-3.44924e-05
1.13619e-05
-3.56067e-05
1.03712e-05
-3.66326e-05
9.29348e-06
-3.75592e-05
8.12712e-06
-3.83747e-05
6.87011e-06
-3.90666e-05
5.5235e-06
-3.96222e-05
4.08814e-06
-4.00283e-05
2.56905e-06
-4.02722e-05
9.71019e-07
-4.03415e-05
-6.95827e-07
-4.0225e-05
-2.42185e-06
-3.99131e-05
-4.19105e-06
-3.93984e-05
-5.98877e-06
-3.86762e-05
-7.79318e-06
-3.77453e-05
-9.5856e-06
-3.66082e-05
-1.13398e-05
-3.52716e-05
-1.30355e-05
-3.37465e-05
-1.46448e-05
-3.2048e-05
-1.61501e-05
-3.01954e-05
-1.75257e-05
-2.82104e-05
-1.87609e-05
-2.61182e-05
-1.98362e-05
-2.39438e-05
-2.07516e-05
-2.17142e-05
-2.14954e-05
-1.94537e-05
-2.2078e-05
-1.7187e-05
-2.24924e-05
-1.49346e-05
-2.27523e-05
-1.27185e-05
-2.28412e-05
-1.05568e-05
-2.27539e-05
-8.47456e-06
-2.24316e-05
-6.4976e-06
-2.18054e-05
-4.66942e-06
-2.07205e-05
-3.04194e-06
-1.8997e-05
-1.69381e-06
-1.63764e-05
-7.02979e-07
-1.26735e-05
-1.42312e-07
-7.86217e-06
-2.44073e-06
-4.15373e-07
4.9172e-06
-1.36114e-06
1.13888e-05
-2.64382e-06
1.54581e-05
-4.11833e-06
1.78903e-05
-5.70673e-06
1.92491e-05
-7.34872e-06
1.9937e-05
-9.01983e-06
2.02241e-05
-1.0698e-05
2.02825e-05
-1.23788e-05
2.02114e-05
-1.40538e-05
2.00641e-05
-1.57232e-05
1.9865e-05
-1.73823e-05
1.9624e-05
-1.90312e-05
1.9343e-05
-2.06659e-05
1.90211e-05
-2.22855e-05
1.86551e-05
-2.38858e-05
1.82414e-05
-2.54647e-05
1.77757e-05
-2.70172e-05
1.72532e-05
-2.85397e-05
1.66693e-05
-3.00264e-05
1.60184e-05
-3.14719e-05
1.52955e-05
-3.28688e-05
1.44945e-05
-3.42096e-05
1.36107e-05
-3.54854e-05
1.26381e-05
-3.66863e-05
1.15724e-05
-3.78011e-05
1.04087e-05
-3.88179e-05
9.14423e-06
-3.97233e-05
7.77585e-06
-4.05034e-05
6.30387e-06
-4.11433e-05
4.7282e-06
-4.16276e-05
3.05361e-06
-4.1941e-05
1.28457e-06
-4.20686e-05
-5.68108e-07
-4.19962e-05
-2.49415e-06
-4.17116e-05
-4.47549e-06
-4.12049e-05
-6.49555e-06
-4.04692e-05
-8.5288e-06
-3.95016e-05
-1.05532e-05
-3.83041e-05
-1.25373e-05
-3.68833e-05
-1.44564e-05
-3.52516e-05
-1.62765e-05
-3.34262e-05
-1.79756e-05
-3.143e-05
-1.9522e-05
-2.9289e-05
-2.09021e-05
-2.70334e-05
-2.2092e-05
-2.46937e-05
-2.30916e-05
-2.23022e-05
-2.3887e-05
-1.98881e-05
-2.44923e-05
-1.74809e-05
-2.48999e-05
-1.51044e-05
-2.51291e-05
-1.27831e-05
-2.51628e-05
-1.05368e-05
-2.50003e-05
-8.39148e-06
-2.45774e-05
-6.37346e-06
-2.38234e-05
-4.52634e-06
-2.25683e-05
-2.90209e-06
-2.0621e-05
-1.57812e-06
-1.77013e-05
-6.28417e-07
-1.36226e-05
-1.14207e-07
-8.37765e-06
-2.55458e-06
-4.21026e-07
5.33569e-06
-1.37852e-06
1.23479e-05
-2.67745e-06
1.67533e-05
-4.17134e-06
1.93851e-05
-5.78149e-06
2.08562e-05
-7.44702e-06
2.16029e-05
-9.1434e-06
2.1918e-05
-1.08486e-05
2.19876e-05
-1.25584e-05
2.19192e-05
-1.42646e-05
2.177e-05
-1.59679e-05
2.15665e-05
-1.76637e-05
2.13193e-05
-1.93526e-05
2.10306e-05
-2.1031e-05
2.06989e-05
-2.26982e-05
2.03212e-05
-2.43505e-05
1.98931e-05
-2.5986e-05
1.94102e-05
-2.76002e-05
1.88668e-05
-2.91896e-05
1.82579e-05
-3.07486e-05
1.75769e-05
-3.22718e-05
1.6818e-05
-3.37519e-05
1.59742e-05
-3.51813e-05
1.50396e-05
-3.65505e-05
1.40068e-05
-3.78491e-05
1.28706e-05
-3.90651e-05
1.16243e-05
-4.01853e-05
1.02641e-05
-4.11949e-05
8.78517e-06
-4.20781e-05
7.18677e-06
-4.28176e-05
5.46742e-06
-4.33955e-05
3.63137e-06
-4.37935e-05
1.68233e-06
-4.39933e-05
-3.68409e-07
-4.39775e-05
-2.51017e-06
-4.37302e-05
-4.72282e-06
-4.32382e-05
-6.98769e-06
-4.24918e-05
-9.27513e-06
-4.1486e-05
-1.15592e-05
-4.02212e-05
-1.3802e-05
-3.87041e-05
-1.59736e-05
-3.69483e-05
-1.80322e-05
-3.49738e-05
-1.99501e-05
-3.28076e-05
-2.1688e-05
-3.04812e-05
-2.32285e-05
-2.80313e-05
-2.45417e-05
-2.54953e-05
-2.56276e-05
-2.29124e-05
-2.64696e-05
-2.03186e-05
-2.70861e-05
-1.77485e-05
-2.74696e-05
-1.52306e-05
-2.76469e-05
-1.27922e-05
-2.76009e-05
-1.0455e-05
-2.73373e-05
-8.24537e-06
-2.67869e-05
-6.18968e-06
-2.58787e-05
-4.33087e-06
-2.44271e-05
-2.72026e-06
-2.2231e-05
-1.43295e-06
-1.89889e-05
-5.37543e-07
-1.45171e-05
-8.09858e-08
-8.83483e-06
-2.6349e-06
-4.25428e-07
5.76101e-06
-1.39473e-06
1.33214e-05
-2.71053e-06
1.80679e-05
-4.22466e-06
2.09028e-05
-5.85757e-06
2.24887e-05
-7.54776e-06
2.3296e-05
-9.27058e-06
2.36409e-05
-1.1004e-05
2.37235e-05
-1.27441e-05
2.36597e-05
-1.44829e-05
2.35108e-05
-1.62215e-05
2.33057e-05
-1.79557e-05
2.30552e-05
-1.96866e-05
2.2762e-05
-2.14107e-05
2.24244e-05
-2.31281e-05
2.20392e-05
-2.48353e-05
2.16015e-05
-2.6531e-05
2.11064e-05
-2.82109e-05
2.05477e-05
-2.98721e-05
1.99196e-05
-3.15091e-05
1.92147e-05
-3.31169e-05
1.84263e-05
-3.46881e-05
1.75461e-05
-3.62152e-05
1.65671e-05
-3.76881e-05
1.54803e-05
-3.90963e-05
1.42792e-05
-4.04267e-05
1.29551e-05
-4.1665e-05
1.15028e-05
-4.27947e-05
9.91524e-06
-4.3798e-05
8.19037e-06
-4.4655e-05
6.32472e-06
-4.53449e-05
4.32156e-06
-4.58457e-05
2.18331e-06
-4.61352e-05
-7.86377e-08
-4.61917e-05
-2.45356e-06
-4.5995e-05
-4.91934e-06
-4.55275e-05
-7.45522e-06
-4.47755e-05
-1.00269e-05
-4.37309e-05
-1.26038e-05
-4.23921e-05
-1.51406e-05
-4.07652e-05
-1.76007e-05
-3.88649e-05
-1.99323e-05
-3.67147e-05
-2.21006e-05
-3.43464e-05
-2.40561e-05
-3.17987e-05
-2.57765e-05
-2.91162e-05
-2.7224e-05
-2.63458e-05
-2.83984e-05
-2.35355e-05
-2.92797e-05
-2.07297e-05
-2.98922e-05
-1.79703e-05
-3.02289e-05
-1.5291e-05
-3.03266e-05
-1.27227e-05
-3.01692e-05
-1.02886e-05
-2.97718e-05
-8.0151e-06
-2.90604e-05
-5.92786e-06
-2.79662e-05
-4.06803e-06
-2.62871e-05
-2.48521e-06
-2.38139e-05
-1.25079e-06
-2.02237e-05
-4.26262e-07
-1.53415e-05
-4.11883e-08
-9.22063e-06
-2.67595e-06
-4.30978e-07
6.18908e-06
-1.41184e-06
1.43036e-05
-2.744e-06
1.93959e-05
-4.27793e-06
2.24373e-05
-5.93322e-06
2.41406e-05
-7.6478e-06
2.50106e-05
-9.39689e-06
2.53872e-05
-1.11585e-05
2.54847e-05
-1.2929e-05
2.54278e-05
-1.47008e-05
2.5282e-05
-1.64753e-05
2.50781e-05
-1.82487e-05
2.48279e-05
-2.00227e-05
2.45343e-05
-2.17942e-05
2.41952e-05
-2.35639e-05
2.38075e-05
-2.53286e-05
2.33655e-05
-2.70877e-05
2.28643e-05
-2.88374e-05
2.22967e-05
-3.05752e-05
2.16565e-05
-3.22962e-05
2.0935e-05
-3.39955e-05
2.01248e-05
-3.5666e-05
1.92161e-05
-3.73004e-05
1.82007e-05
-3.88884e-05
1.70679e-05
-4.0419e-05
1.58093e-05
-4.18784e-05
1.44141e-05
-4.32512e-05
1.28751e-05
-4.45192e-05
1.11829e-05
-4.56623e-05
9.33318e-06
-4.6658e-05
7.32004e-06
-4.74818e-05
5.14513e-06
-4.81076e-05
2.80885e-06
-4.85086e-05
3.22165e-07
-4.86577e-05
-2.30477e-06
-4.8529e-05
-5.04806e-06
-4.80996e-05
-7.88499e-06
-4.73503e-05
-1.07762e-05
-4.62686e-05
-1.36858e-05
-4.48495e-05
-1.65595e-05
-4.30982e-05
-1.93523e-05
-4.10302e-05
-2.20001e-05
-3.86725e-05
-2.44586e-05
-3.60633e-05
-2.6665e-05
-3.32501e-05
-2.85899e-05
-3.02883e-05
-3.01854e-05
-2.72365e-05
-3.14505e-05
-2.41547e-05
-3.2361e-05
-2.10984e-05
-3.29488e-05
-1.81186e-05
-3.32082e-05
-1.52556e-05
-3.31899e-05
-1.25442e-05
-3.288e-05
-1.00091e-05
-3.23071e-05
-7.67554e-06
-3.13934e-05
-5.56718e-06
-3.00747e-05
-3.72181e-06
-2.8132e-05
-2.18575e-06
-2.535e-05
-1.02491e-06
-2.13843e-05
-2.91575e-07
-1.60746e-05
5.73276e-09
-9.51796e-06
-2.66989e-06
-4.34727e-07
6.62408e-06
-1.4269e-06
1.53005e-05
-2.77576e-06
2.07439e-05
-4.33002e-06
2.39956e-05
-6.00842e-06
2.58189e-05
-7.74812e-06
2.67537e-05
-9.52426e-06
2.71637e-05
-1.13148e-05
2.7278e-05
-1.31165e-05
2.72302e-05
-1.49219e-05
2.70898e-05
-1.6733e-05
2.68901e-05
-1.85465e-05
2.66434e-05
-2.03645e-05
2.63532e-05
-2.21847e-05
2.6017e-05
-2.4008e-05
2.56317e-05
-2.58323e-05
2.51912e-05
-2.76573e-05
2.46901e-05
-2.948e-05
2.41206e-05
-3.12985e-05
2.34758e-05
-3.31084e-05
2.27458e-05
-3.49056e-05
2.19226e-05
-3.66833e-05
2.09946e-05
-3.84343e-05
1.99524e-05
-4.01487e-05
1.87829e-05
-4.1815e-05
1.74762e-05
-4.34189e-05
1.60185e-05
-4.49439e-05
1.44006e-05
-4.63703e-05
1.26097e-05
-4.76757e-05
1.0639e-05
-4.88344e-05
8.47902e-06
-4.9818e-05
6.12922e-06
-5.05959e-05
3.58693e-06
-5.11352e-05
8.61897e-07
-5.14028e-05
-2.03715e-06
-5.13654e-05
-5.08505e-06
-5.09929e-05
-8.25751e-06
-5.02589e-05
-1.15097e-05
-4.91448e-05
-1.48e-05
-4.76407e-05
-1.80633e-05
-4.57493e-05
-2.12439e-05
-4.34863e-05
-2.42627e-05
-4.08831e-05
-2.70621e-05
-3.79852e-05
-2.95625e-05
-3.48517e-05
-3.17238e-05
-3.15516e-05
-3.3485e-05
-2.81595e-05
-3.48432e-05
-2.47511e-05
-3.57689e-05
-2.13967e-05
-3.63039e-05
-1.81588e-05
-3.64455e-05
-1.50865e-05
-3.62629e-05
-1.22186e-05
-3.57474e-05
-9.58042e-06
-3.4946e-05
-7.19489e-06
-3.37784e-05
-5.08131e-06
-3.2189e-05
-3.2719e-06
-2.99411e-05
-1.80754e-06
-2.6815e-05
-7.46402e-07
-2.24452e-05
-1.29053e-07
-1.66925e-05
6.11212e-08
-9.70812e-06
-2.60899e-06
-4.39782e-07
7.06042e-06
-1.4425e-06
1.63041e-05
-2.80677e-06
2.21035e-05
-4.38015e-06
2.55691e-05
-6.08041e-06
2.75153e-05
-7.84413e-06
2.85169e-05
-9.64624e-06
2.89625e-05
-1.14648e-05
2.90957e-05
-1.32968e-05
2.90594e-05
-1.51352e-05
2.89272e-05
-1.69826e-05
2.87351e-05
-1.8836e-05
2.84957e-05
-2.06983e-05
2.82134e-05
-2.25675e-05
2.78852e-05
-2.44456e-05
2.75081e-05
-2.63309e-05
2.70755e-05
-2.8224e-05
2.65818e-05
-3.01227e-05
2.60183e-05
-3.20258e-05
2.53777e-05
-3.39299e-05
2.4649e-05
-3.58313e-05
2.38232e-05
-3.77242e-05
2.28868e-05
-3.96018e-05