/*--------------------------------*- C++ -*----------------------------------*\
| =========                 |                                                 |
| \\      /  F ield         | OpenFOAM: The Open Source CFD Toolbox           |
|  \\    /   O peration     | Version:  2406                                  |
|   \\  /    A nd           | Website:  www.openfoam.com                      |
|    \\/     M anipulation  |                                                 |
\*---------------------------------------------------------------------------*/
FoamFile
{
    version     2.0;
    format      ascii;
    arch        "LSB;label=32;scalar=64";
    class       surfaceScalarField;
    location    "15.6";
    object      phi_0;
}
// * * * * * * * * * * * * * * * * * * * * * * * * * * * * * * * * * * * * * //

dimensions      [0 3 -1 0 0 0 0];

oriented        oriented;

internalField   nonuniform List<scalar> 
7080
(
5.70595e-08
-5.70602e-08
1.44888e-08
4.25708e-08
-1.64398e-07
1.78887e-07
-4.43351e-07
2.78952e-07
-7.81372e-07
3.38021e-07
-1.149e-06
3.67632e-07
-1.53017e-06
3.81168e-07
-1.91869e-06
3.88518e-07
-2.31418e-06
3.95487e-07
-2.71879e-06
4.04609e-07
-3.13515e-06
4.16361e-07
-3.56528e-06
4.30135e-07
-4.01017e-06
4.44885e-07
-4.46963e-06
4.5946e-07
-4.94234e-06
4.72719e-07
-5.42584e-06
4.83494e-07
-5.91631e-06
4.90474e-07
-6.40837e-06
4.92057e-07
-6.89459e-06
4.86219e-07
-7.36501e-06
4.70424e-07
-7.80663e-06
4.41614e-07
-8.20291e-06
3.96289e-07
-8.53363e-06
3.30711e-07
-8.77484e-06
2.41219e-07
-8.89985e-06
1.25006e-07
-8.87838e-06
-2.14705e-08
-8.6823e-06
-1.96084e-07
-8.28357e-06
-3.98724e-07
-7.65931e-06
-6.24263e-07
-6.7943e-06
-8.65009e-07
-5.68416e-06
-1.11014e-06
-4.33807e-06
-1.34609e-06
-2.78068e-06
-1.55738e-06
-1.05286e-06
-1.72782e-06
7.89276e-07
-1.84214e-06
2.67702e-06
-1.88775e-06
4.53356e-06
-1.85654e-06
6.27983e-06
-1.74626e-06
7.84113e-06
-1.5613e-06
9.15377e-06
-1.31264e-06
1.01706e-05
-1.01682e-06
1.08647e-05
-6.94136e-07
1.12309e-05
-3.66178e-07
1.12867e-05
-5.58305e-08
1.10572e-05
2.29485e-07
1.05893e-05
4.67915e-07
9.93356e-06
6.55773e-07
9.14024e-06
7.93316e-07
8.25549e-06
8.84754e-07
7.3191e-06
9.36386e-07
6.36251e-06
9.56595e-07
5.40833e-06
9.54172e-07
4.47134e-06
9.36999e-07
3.56072e-06
9.1062e-07
2.68446e-06
8.76253e-07
1.85627e-06
8.28189e-07
1.10633e-06
7.49943e-07
4.91834e-07
6.14496e-07
1.07582e-07
3.84253e-07
1.07582e-07
-5.98822e-08
2.82214e-09
-4.05216e-07
3.87904e-07
-1.05973e-06
8.33405e-07
-1.9423e-06
1.16151e-06
-2.96981e-06
1.36553e-06
-4.081e-06
1.47882e-06
-5.23963e-06
1.53981e-06
-6.42876e-06
1.57765e-06
-7.6432e-06
1.60993e-06
-8.88322e-06
1.64462e-06
-1.01502e-05
1.68336e-06
-1.14443e-05
1.72423e-06
-1.27632e-05
1.76382e-06
-1.41021e-05
1.79828e-06
-1.54531e-05
1.82379e-06
-1.68062e-05
1.83651e-06
-1.8148e-05
1.83232e-06
-1.94623e-05
1.80636e-06
-2.07288e-05
1.75267e-06
-2.19222e-05
1.66392e-06
-2.30121e-05
1.53142e-06
-2.39611e-05
1.34536e-06
-2.47259e-05
1.09551e-06
-2.52569e-05
7.72153e-07
-2.54993e-05
3.67433e-07
-2.53975e-05
-1.23294e-07
-2.48948e-05
-6.98797e-07
-2.39414e-05
-1.35206e-06
-2.24973e-05
-2.06838e-06
-2.05376e-05
-2.82466e-06
-1.80582e-05
-3.58962e-06
-1.50793e-05
-4.32496e-06
-1.16492e-05
-4.98752e-06
-7.84464e-06
-5.53235e-06
-3.77005e-06
-5.91673e-06
4.46687e-07
-6.10448e-06
4.66062e-06
-6.07047e-06
8.71867e-06
-5.80432e-06
1.24703e-05
-5.31289e-06
1.57786e-05
-4.62098e-06
1.85314e-05
-3.7696e-06
2.06494e-05
-2.81218e-06
2.20921e-05
-1.80885e-06
2.28559e-05
-8.19646e-07
2.29786e-05
1.06823e-07
2.25282e-05
9.18296e-07
2.15872e-05
1.59678e-06
2.02521e-05
2.12845e-06
1.86199e-05
2.51693e-06
1.67799e-05
2.7764e-06
1.48083e-05
2.92813e-06
1.27662e-05
2.9963e-06
1.06997e-05
3.00351e-06
8.64428e-06
2.96602e-06
6.63281e-06
2.88773e-06
4.70825e-06
2.75275e-06
2.9412e-06
2.517e-06
1.44966e-06
2.10603e-06
4.06177e-07
1.42774e-06
5.13759e-07
-2.53726e-07
2.56548e-07
-1.01769e-06
1.15186e-06
-2.20985e-06
2.02557e-06
-3.71014e-06
2.66181e-06
-5.41173e-06
3.06711e-06
-7.23761e-06
3.30471e-06
-9.14086e-06
3.44305e-06
-1.1097e-05
3.53379e-06
-1.30953e-05
3.60818e-06
-1.5131e-05
3.68038e-06
-1.72008e-05
3.75311e-06
-1.92992e-05
3.82266e-06
-2.1418e-05
3.88259e-06
-2.35455e-05
3.9258e-06
-2.56672e-05
3.94547e-06
-2.77657e-05
3.93504e-06
-2.9821e-05
3.88766e-06
-3.181e-05
3.79537e-06
-3.37057e-05
3.64836e-06
-3.54762e-05
3.43441e-06
-3.70836e-05
3.13879e-06
-3.8483e-05
2.74474e-06
-3.96221e-05
2.23462e-06
-4.04417e-05
1.59172e-06
-4.08767e-05
8.02437e-07
-4.08589e-05
-1.41015e-07
-4.0321e-05
-1.2367e-06
-3.92008e-05
-2.4723e-06
-3.74463e-05
-3.82288e-06
-3.50217e-05
-5.24921e-06
-3.19135e-05
-6.6979e-06
-2.81351e-05
-8.10337e-06
-2.37316e-05
-9.39097e-06
-1.87822e-05
-1.04817e-05
-1.34004e-05
-1.12985e-05
-7.73158e-06
-1.17734e-05
-1.94738e-06
-1.18547e-05
3.76269e-06
-1.15144e-05
9.20293e-06
-1.07531e-05
1.41847e-05
-9.60279e-06
1.85406e-05
-8.12551e-06
2.21371e-05
-6.40866e-06
2.48845e-05
-4.55618e-06
2.67419e-05
-2.67711e-06
2.7723e-05
-8.74244e-07
2.78774e-05
7.6389e-07
2.72954e-05
2.17881e-06
2.60885e-05
3.33529e-06
2.43784e-05
4.22711e-06
2.22844e-05
4.87036e-06
1.99154e-05
5.2971e-06
1.73643e-05
5.54741e-06
1.47072e-05
5.66067e-06
1.2007e-05
5.66622e-06
9.32245e-06
5.57224e-06
6.72213e-06
5.35306e-06
4.30335e-06
4.93578e-06
2.2138e-06
4.19559e-06
6.70227e-07
2.97131e-06
1.18399e-06
-4.63573e-07
7.20121e-07
-1.67319e-06
2.36148e-06
-3.42767e-06
3.78005e-06
-5.5506e-06
4.78474e-06
-7.9099e-06
5.42642e-06
-1.04176e-05
5.8124e-06
-1.30211e-05
6.04659e-06
-1.56918e-05
6.20446e-06
-1.84141e-05
6.33054e-06
-2.11781e-05
6.44434e-06
-2.39739e-05
6.5489e-06
-2.67896e-05
6.63835e-06
-2.96104e-05
6.70345e-06
-3.24194e-05
6.73475e-06
-3.51979e-05
6.72395e-06
-3.79266e-05
6.66378e-06
-4.05859e-05
6.54698e-06
-4.31554e-05
6.36479e-06
-4.56125e-05
6.10549e-06
-4.79313e-05
5.75325e-06
-5.00802e-05
5.28767e-06
-5.20198e-05
4.68434e-06
-5.37015e-05
3.91634e-06
-5.50666e-05
2.95676e-06
-5.60466e-05
1.78243e-06
-5.65631e-05
3.75511e-07
-5.65339e-05
-1.26591e-06
-5.58766e-05
-3.12953e-06
-5.45109e-05
-5.18859e-06
-5.23683e-05
-7.39189e-06
-4.93989e-05
-9.66729e-06
-4.55795e-05
-1.19227e-05
-4.09212e-05
-1.40493e-05
-3.54753e-05
-1.59275e-05
-2.93381e-05
-1.74358e-05
-2.26512e-05
-1.84603e-05
-1.5599e-05
-1.89069e-05
-8.40102e-06
-1.87124e-05
-1.29959e-06
-1.78546e-05
5.4561e-06
-1.63585e-05
1.16287e-05
-1.42981e-05
1.70118e-05
-1.17917e-05
2.14462e-05
-8.99059e-06
2.48325e-05
-6.06345e-06
2.71359e-05
-3.17762e-06
2.83808e-05
-4.81018e-07
2.86468e-05
1.91278e-06
2.80503e-05
3.93186e-06
2.67297e-05
5.54766e-06
2.48301e-05
6.76996e-06
2.24899e-05
7.63725e-06
1.98329e-05
8.20442e-06
1.69647e-05
8.52891e-06
1.39753e-05
8.65562e-06
1.09475e-05
8.60006e-06
7.9711e-06
8.32942e-06
5.16368e-06
7.7432e-06
2.69729e-06
6.66197e-06
8.33468e-07
4.83513e-06
2.01745e-06
-6.74444e-07
1.39457e-06
-2.33167e-06
4.0187e-06
-4.64843e-06
6.09681e-06
-7.38427e-06
7.52058e-06
-1.03785e-05
8.42067e-06
-1.35325e-05
8.96643e-06
-1.67899e-05
9.30394e-06
-2.01191e-05
9.53361e-06
-2.35006e-05
9.71212e-06
-2.69192e-05
9.86295e-06
-3.03591e-05
9.98878e-06
-3.38029e-05
1.00821e-05
-3.72321e-05
1.01327e-05
-4.06292e-05
1.01318e-05
-4.39791e-05
1.00739e-05
-4.72709e-05
9.9556e-06
-5.04982e-05
9.77425e-06
-5.3658e-05
9.52463e-06
-5.67488e-05
9.19633e-06
-5.9767e-05
8.77138e-06
-6.27023e-05
8.22299e-06
-6.55337e-05
7.51574e-06
-6.82246e-05
6.60731e-06
-7.07199e-05
5.45197e-06
-7.29425e-05
4.00512e-06
-7.47967e-05
2.22968e-06
-7.61564e-05
9.37599e-08
-7.68996e-05
-2.38625e-06
-7.68812e-05
-5.20704e-06
-7.59628e-05
-8.31032e-06
-7.40195e-05
-1.16105e-05
-7.09538e-05
-1.49885e-05
-6.67085e-05
-1.82946e-05
-6.1279e-05
-2.1357e-05
-5.47234e-05
-2.39915e-05
-4.71671e-05
-2.60166e-05
-3.8804e-05
-2.727e-05
-2.98903e-05
-2.76261e-05
-2.07318e-05
-2.7013e-05
-1.16647e-05
-2.54256e-05
-3.03001e-06
-2.29328e-05
4.85385e-06
-1.96756e-05
1.17188e-05
-1.58555e-05
1.73693e-05
-1.17139e-05
2.16956e-05
-7.50393e-06
2.46761e-05
-3.4615e-06
2.63688e-05
2.20028e-07
2.68938e-05
3.40689e-06
2.64114e-05
6.03008e-06
2.51e-05
8.08132e-06
2.31373e-05
9.59998e-06
2.06866e-05
1.06551e-05
1.78905e-05
1.1325e-05
1.48715e-05
1.16747e-05
1.17393e-05
1.17322e-05
8.60631e-06
1.14624e-05
5.6103e-06
1.07392e-05
2.94717e-06
9.32511e-06
9.15841e-07
6.86646e-06
2.93329e-06
-8.82955e-07
2.27752e-06
-2.98011e-06
6.11586e-06
-5.84683e-06
8.96353e-06
-9.17653e-06
1.08503e-05
-1.27783e-05
1.20225e-05
-1.65423e-05
1.27305e-05
-2.04084e-05
1.317e-05
-2.43426e-05
1.34678e-05
-2.83221e-05
1.36916e-05
-3.23273e-05
1.38681e-05
-3.63385e-05
1.4e-05
-4.03369e-05
1.40805e-05
-4.4307e-05
1.41028e-05
-4.82403e-05
1.40651e-05
-5.21384e-05
1.3972e-05
-5.60152e-05
1.38323e-05
-5.98961e-05
1.36552e-05
-6.38163e-05
1.34448e-05
-6.78153e-05
1.31954e-05
-7.19303e-05
1.28863e-05
-7.61868e-05
1.24796e-05
-8.05902e-05
1.19191e-05
-8.5116e-05
1.11331e-05
-8.97022e-05
1.00382e-05
-9.4244e-05
8.54695e-06
-9.85914e-05
6.57707e-06
-0.00010256
4.06242e-06
-0.000105909
9.6242e-07
-0.000108405
-2.71094e-06
-0.000109791
-6.92446e-06
-0.000109828
-1.15728e-05
-0.000108314
-1.65026e-05
-0.000105098
-2.15105e-05
-0.000100103
-2.63526e-05
-9.3334e-05
-3.07602e-05
-8.48935e-05
-3.44571e-05
-7.49806e-05
-3.71828e-05
-6.38912e-05
-3.87155e-05
-5.20061e-05
-3.88981e-05
-3.97714e-05
-3.76603e-05
-2.76683e-05
-3.50359e-05
-1.61754e-05
-3.11685e-05
-5.72639e-06
-2.63045e-05
3.32853e-06
-2.07689e-05
1.0753e-05
-1.49284e-05
1.64379e-05
-9.14639e-06
2.03973e-05
-3.73942e-06
2.27484e-05
1.05574e-06
2.36805e-05
5.09802e-06
2.34217e-05
8.34012e-06
2.22092e-05
1.08125e-05
2.02667e-05
1.25976e-05
1.77922e-05
1.37995e-05
1.49551e-05
1.45117e-05
1.19033e-05
1.4784e-05
8.77923e-06
1.45865e-05
5.74579e-06
1.37727e-05
3.02335e-06
1.20475e-05
9.38752e-07
8.95106e-06
3.87205e-06
-1.08833e-06
3.36585e-06
-3.61373e-06
8.64127e-06
-7.0117e-06
1.23615e-05
-1.09105e-05
1.47491e-05
-1.50894e-05
1.62013e-05
-1.9427e-05
1.70681e-05
-2.38594e-05
1.76024e-05
-2.83504e-05
1.79588e-05
-3.2875e-05
1.82162e-05
-3.74115e-05
1.84046e-05
-4.19411e-05
1.85296e-05
-4.64509e-05
1.85904e-05
-5.09398e-05
1.85916e-05
-5.54236e-05
1.85489e-05
-5.99398e-05
1.84883e-05
-6.45495e-05
1.8442e-05
-6.93346e-05
1.84403e-05
-7.43924e-05
1.85027e-05
-7.9825e-05
1.8628e-05
-8.57257e-05
1.8787e-05
-9.21628e-05
1.89167e-05
-9.9163e-05
1.89193e-05
-0.000106695
1.86654e-05
-0.000114659
1.80019e-05
-0.000122877
1.67645e-05
-0.000131095
1.47951e-05
-0.000138993
1.19608e-05
-0.000146205
8.17413e-06
-0.000152328
3.41233e-06
-0.000156979
-2.27378e-06
-0.000159794
-8.75757e-06
-0.000160462
-1.58349e-05
-0.000158745
-2.32268e-05
-0.000154498
-3.05998e-05
-0.000147673
-3.7585e-05
-0.000138337
-4.37933e-05
-0.000126677
-4.88428e-05
-0.000113007
-5.2386e-05
-9.77628e-05
-5.41419e-05
-8.14936e-05
-5.39295e-05
-6.48309e-05
-5.16986e-05
-4.84475e-05
-4.75519e-05
-3.30015e-05
-4.17505e-05
-1.90734e-05
-3.4697e-05
-7.10886e-06
-2.68929e-05
2.62091e-06
-1.88762e-05
1.00311e-05
-1.11496e-05
1.52061e-05
-4.11926e-06
1.83596e-05
1.94453e-06
1.9784e-05
6.91565e-06
1.98024e-05
1.07942e-05
1.87294e-05
1.36706e-05
1.68482e-05
1.56807e-05
1.44009e-05
1.69591e-05
1.15936e-05
1.75913e-05
8.61406e-06
1.75661e-05
5.65993e-06
1.67268e-05
2.97964e-06
1.47278e-05
9.22149e-07
1.10085e-05
4.79419e-06
-1.28982e-06
4.65567e-06
-4.22921e-06
1.15807e-05
-8.13592e-06
1.62682e-05
-1.25758e-05
1.9189e-05
-1.72995e-05
2.09251e-05
-2.21753e-05
2.19438e-05
-2.71354e-05
2.25625e-05
-3.21425e-05
2.29659e-05
-3.71712e-05
2.32449e-05
-4.22025e-05
2.3436e-05
-4.7226e-05
2.35531e-05
-5.22469e-05
2.36112e-05
-5.72944e-05
2.36392e-05
-6.24305e-05
2.3685e-05
-6.77539e-05
2.38117e-05
-7.34002e-05
2.40883e-05
-7.95355e-05
2.45755e-05
-8.63424e-05
2.53095e-05
-9.40007e-05
2.62863e-05
-0.000102663
2.74489e-05
-0.000112425
2.86793e-05
-0.000123304
2.9798e-05
-0.00013521
3.05717e-05
-0.000147938
3.07296e-05
-0.000161163
2.999e-05
-0.00017446
2.80913e-05
-0.000187325
2.48264e-05
-0.000199223
2.0072e-05
-0.000209615
1.38047e-05
-0.000218003
6.11415e-06
-0.000223954
-2.80707e-06
-0.000227092
-1.26966e-05
-0.000227138
-2.31806e-05
-0.000223899
-3.3839e-05
-0.000217277
-4.42076e-05
-0.00020728
-5.379e-05
-0.000194039
-6.20837e-05
-0.000177823
-6.86018e-05
-0.000159056
-7.29089e-05
-0.000138323
-7.46623e-05
-0.000116362
-7.36602e-05
-9.40271e-05
-6.98865e-05
-7.22334e-05
-6.35442e-05
-5.18677e-05
-5.50627e-05
-3.36938e-05
-4.50668e-05
-1.82659e-05
-3.43041e-05
-5.87507e-06
-2.35404e-05
3.455e-06
-1.34493e-05
9.92657e-06
-4.52705e-06
1.38958e-05
2.9464e-06
1.5795e-05
8.89506e-06
1.60663e-05
1.33993e-05
1.51173e-05
1.66296e-05
1.32997e-05
1.87767e-05
1.09084e-05
1.99826e-05
8.19933e-06
2.02751e-05
5.421e-06
1.95051e-05
2.85806e-06
1.72908e-05
8.81475e-07
1.29851e-05
5.67567e-06
-1.4862e-06
6.14187e-06
-4.82286e-06
1.49173e-05
-9.2131e-06
2.06584e-05
-1.41639e-05
2.41398e-05
-1.94002e-05
2.61613e-05
-2.47805e-05
2.73241e-05
-3.02349e-05
2.80169e-05
-3.57265e-05
2.84574e-05
-4.12336e-05
2.8752e-05
-4.6747e-05
2.89493e-05
-5.22759e-05
2.90821e-05
-5.78603e-05
2.91955e-05
-6.35823e-05
2.93612e-05
-6.95763e-05
2.9679e-05
-7.60323e-05
3.02677e-05
-8.319e-05
3.1246e-05
-9.13231e-05
3.27086e-05
-0.000100713
3.4699e-05
-0.000111612
3.71853e-05
-0.000124204
4.00413e-05
-0.000138563
4.30379e-05
-0.000154614
4.58491e-05
-0.000172115
4.8073e-05
-0.000190656
4.92709e-05
-0.000209685
4.90187e-05
-0.000228555
4.69616e-05
-0.000246588
4.28591e-05
-0.000263127
3.66113e-05
-0.000277583
2.82604e-05
-0.000289445
1.79758e-05
-0.0002983
6.04794e-06
-0.00030382
-7.17626e-06
-0.000305715
-2.1286e-05
-0.000303784
-3.57699e-05
-0.000297882
-5.01094e-05
-0.000287925
-6.37468e-05
-0.000273921
-7.60882e-05
-0.000255997
-8.65253e-05
-0.000234444
-9.44616e-05
-0.000209751
-9.93554e-05
-0.000182633
-0.000100778
-0.000154032
-9.84881e-05
-0.000125075
-9.25008e-05
-9.699e-05
-8.31477e-05
-7.0969e-05
-7.10879e-05
-4.80159e-05
-5.72572e-05
-2.88123e-05
-4.2744e-05
-1.36454e-05
-2.86162e-05
-2.42338e-06
-1.5749e-05
5.23654e-06
-4.71352e-06
9.8864e-06
4.2452e-06
1.21337e-05
1.1152e-05
1.25593e-05
1.62041e-05
1.16719e-05
1.96641e-05
9.89699e-06
2.17574e-05
7.59134e-06
2.25808e-05
5.07719e-06
2.20193e-05
2.68974e-06
1.96782e-05
8.28503e-07
1.48464e-05
6.50417e-06
-1.67578e-06
7.81765e-06
-5.39043e-06
1.8632e-05
-1.02369e-05
2.55049e-05
-1.56676e-05
2.95706e-05
-2.13846e-05
3.18783e-05
-2.7239e-05
3.31786e-05
-3.31605e-05
3.39384e-05
-3.9116e-05
3.44129e-05
-4.50935e-05
3.47296e-05
-5.11037e-05
3.49594e-05
-5.71913e-05
3.51697e-05
-6.34521e-05
3.54563e-05
-7.00482e-05
3.59573e-05
-7.72172e-05
3.68481e-05
-8.52701e-05
3.83205e-05
-9.45738e-05
4.05498e-05
-0.000105519
4.36537e-05
-0.000118471
4.76512e-05
-0.000133713
5.24273e-05
-0.000151382
5.77106e-05
-0.000171418
6.30735e-05
-0.000193527
6.79585e-05
-0.000217189
7.17351e-05
-0.000241699
7.37805e-05
-0.000266247
7.35661e-05
-0.00029001
7.07254e-05
-0.000312236
6.50848e-05
-0.000332285
5.66608e-05
-0.000349656
4.56307e-05
-0.000363968
3.22882e-05
-0.000374918
1.69975e-05
-0.000382335
2.4157e-07
-0.000385966
-1.76555e-05
-0.000385665
-3.60713e-05
-0.000381236
-5.45376e-05
-0.00037249
-7.24936e-05
-0.000359254
-8.93238e-05
-0.00034142
-0.000104359
-0.000319
-0.000116882
-0.000292201
-0.000126154
-0.000261503
-0.000131477
-0.000227714
-0.000132277
-0.000191997
-0.000128217
-0.000155826
-0.00011932
-0.000120848
-0.000106065
-8.86828e-05
-8.94225e-05
-6.06638e-05
-7.0763e-05
-3.76282e-05
-5.16519e-05
-1.98218e-05
-3.35553e-05
-6.96008e-06
-1.75753e-05
1.60087e-06
-4.31575e-06
6.66659e-06
6.08623e-06
9.05029e-06
1.38204e-05
9.48122e-06
1.92332e-05
8.57112e-06
2.26675e-05
6.82189e-06
2.433e-05
4.66177e-06
2.41794e-05
2.49803e-06
2.1842e-05
7.72533e-07
1.65719e-05
7.27671e-06
-1.85659e-06
9.67423e-06
-5.92732e-06
2.27027e-05
-1.12008e-05
3.07783e-05
-1.708e-05
3.54498e-05
-2.32472e-05
3.80455e-05
-2.9549e-05
3.94803e-05
-3.59173e-05
4.03068e-05
-4.23279e-05
4.08235e-05
-4.87872e-05
4.11888e-05
-5.53388e-05
4.15111e-05
-6.20825e-05
4.19135e-05
-6.91956e-05
4.25694e-05
-7.69496e-05
4.37113e-05
-8.57147e-05
4.56132e-05
-9.59445e-05
4.85503e-05
-0.000108138
5.27436e-05
-0.00012278
5.82955e-05
-0.00014026
6.51308e-05
-0.000160786
7.29535e-05
-0.000184309
8.12332e-05
-0.000210471
8.92361e-05
-0.000238616
9.61035e-05
-0.000267854
0.000100973
-0.000297184
0.00010311
-0.000325625
0.000102007
-0.000352326
9.74261e-05
-0.000376625
8.9384e-05
-0.000398065
7.81008e-05
-0.000416368
6.39342e-05
-0.000431397
4.73164e-05
-0.000443105
2.87056e-05
-0.000451422
8.5588e-06
-0.000456371
-1.27066e-05
-0.00045781
-3.46326e-05
-0.000455562
-5.67856e-05
-0.000449355
-7.87007e-05
-0.000438832
-9.9846e-05
-0.000423604
-0.000119588
-0.000403302
-0.000137184
-0.000377678
-0.000151778
-0.000346722
-0.000162433
-0.000310796
-0.000168204
-0.000270747
-0.000168266
-0.000227974
-0.000162093
-0.000184384
-0.000149655
-0.000142207
-0.000131599
-0.000103663
-0.000109307
-7.05477e-05
-8.47674e-05
-4.38887e-05
-6.02144e-05
-2.38293e-05
-3.76347e-05
-9.78425e-06
-1.83608e-05
-7.54126e-07
-2.94389e-06
4.37419e-06
8.69209e-06
6.63669e-06
1.69707e-05
6.91032e-06
2.23939e-05
5.90432e-06
2.5336e-05
4.19805e-06
2.58857e-05
2.30181e-06
2.37382e-05
7.21635e-07
1.8152e-05
7.99834e-06
-2.02647e-06
1.17007e-05
-6.42857e-06
2.71048e-05
-1.20981e-05
3.64479e-05
-1.8394e-05
4.17456e-05
-2.49825e-05
4.4634e-05
-3.17085e-05
4.62063e-05
-3.85105e-05
4.71088e-05
-4.53795e-05
4.76926e-05
-5.23509e-05
4.81602e-05
-5.95182e-05
4.86783e-05
-6.70584e-05
4.94537e-05
-7.52576e-05
5.07686e-05
-8.45243e-05
5.29781e-05
-9.53812e-05
5.64701e-05
-0.000108426
6.15951e-05
-0.000124259
6.85769e-05
-0.000143384
7.74203e-05
-0.00016609
8.78363e-05
-0.000192343
9.92064e-05
-0.000221719
0.00011061
-0.000253409
0.000120926
-0.000286311
0.000129005
-0.000319197
0.00013386
-0.000350898
0.000134811
-0.000380441
0.00013155
-0.000407134
0.00012412
-0.000430579
0.000112829
-0.000450637
9.81582e-05
-0.000467363
8.06604e-05
-0.000480939
6.08924e-05
-0.000491598
3.93644e-05
-0.000499537
1.64982e-05
-0.000504895
-7.34936e-06
-0.000507749
-3.17783e-05
-0.000507951
-5.65833e-05
-0.000505209
-8.14426e-05
-0.000499069
-0.000105986
-0.000488912
-0.000129744
-0.000474011
-0.000152085
-0.000453604
-0.000172186
-0.000427031
-0.000189006
-0.000393908
-0.000201327
-0.000354338
-0.000207835
-0.000309117
-0.000207313
-0.000259875
-0.000198897
-0.00020906
-0.000182414
-0.000159685
-0.000158682
-0.000114808
-0.000129645
-7.68549e-05
-9.81672e-05
-4.70725e-05
-6.74171e-05
-2.53965e-05
-4.00369e-05
-1.07993e-05
-1.75411e-05
-1.82734e-06
-2.79834e-07
2.9713e-06
1.2172e-05
4.85547e-06
2.05097e-05
4.83324e-06
2.53582e-05
3.70101e-06
2.70179e-05
2.11697e-06
2.53222e-05
6.83298e-07
1.95857e-05
8.68164e-06
-2.18303e-06
1.38837e-05
-6.8888e-06
3.18106e-05
-1.29215e-05
4.24807e-05
-1.96017e-05
4.84258e-05
-2.65837e-05
5.1616e-05
-3.3714e-05
5.33366e-05
-4.09426e-05
5.43374e-05
-4.8284e-05
5.5034e-05
-5.58152e-05
5.56914e-05
-6.36981e-05
5.65612e-05
-7.22105e-05
5.79661e-05
-8.1772e-05
6.03301e-05
-9.29464e-05
6.41524e-05
-0.000106408
6.99318e-05
-0.000122864
7.80511e-05
-0.000142934
8.86465e-05
-0.000167001
0.000101487
-0.00019507
0.000115905
-0.000226666
0.000130802
-0.00026083
0.000144774
-0.000296236
0.000156332
-0.000331401
0.00016417
-0.000364926
0.000167385
-0.000395687
0.000165572
-0.00042294
0.000158803
-0.000446336
0.000147516
-0.000465876
0.000132369
-0.000481824
0.000114106
-0.000494608
9.34448e-05
-0.000504725
7.10085e-05
-0.000512663
4.73026e-05
-0.000518866
2.27015e-05
-0.000523592
-2.62347e-06
-0.000527082
-2.82886e-05
-0.000529284
-5.43807e-05
-0.000529998
-8.07286e-05
-0.0005288
-0.000107184
-0.000525018
-0.000133526
-0.000517743
-0.00015936
-0.000505855
-0.000184074
-0.000488112
-0.000206749
-0.000463308
-0.00022613
-0.000430517
-0.000240627
-0.000389406
-0.000248424
-0.000340583
-0.000247721
-0.000285868
-0.000237129
-0.000228354
-0.000216196
-0.000172077
-0.000185922
-0.000121222
-0.000149022
-7.90357e-05
-0.000109604
-4.69596e-05
-7.2113e-05
-2.45459e-05
-3.99548e-05
-1.01561e-05
-1.46697e-05
-1.81066e-06
3.82664e-06
2.28373e-06
1.64153e-05
3.57406e-06
2.40679e-05
3.17365e-06
2.74183e-05
1.95541e-06
2.65405e-05
6.64278e-07
2.08768e-05
9.34592e-06
-2.3236e-06
1.62073e-05
-7.3019e-06
3.67889e-05
-1.36624e-05
4.88411e-05
-2.06934e-05
5.54568e-05
-2.80412e-05
5.89638e-05
-3.55578e-05
6.08531e-05
-4.32103e-05
6.19899e-05
-5.10458e-05
6.28695e-05
-5.91972e-05
6.38428e-05
-6.79132e-05
6.52772e-05
-7.75937e-05
6.76467e-05
-8.88079e-05
7.15443e-05
-0.000102274
7.76183e-05
-0.000118783
8.64412e-05
-0.000139069
9.83372e-05
-0.000163629
0.000113206
-0.00019254
0.000130398
-0.000225317
0.000148683
-0.00026089
0.000166375
-0.00029772
0.000181604
-0.000334058
0.00019267
-0.000368248
0.00019836
-0.000398982
0.000198119
-0.00042544
0.00019203
-0.000447314
0.000180678
-0.000464744
0.000164946
-0.000478196
0.000145821
-0.000488329
0.000124239
-0.000495875
0.000100991
-0.000501546
7.66795e-05
-0.000505968
5.17245e-05
-0.000509638
2.63721e-05
-0.000512999
7.3732e-07
-0.000516197
-2.50909e-05
-0.000519386
-5.11917e-05
-0.000522494
-7.76204e-05
-0.000525254
-0.000104425
-0.000527167
-0.000131614
-0.000527434
-0.000159093
-0.000524928
-0.00018658
-0.000518176
-0.0002135
-0.000505434
-0.000238873
-0.000484851
-0.000261209
-0.000454792
-0.000278483
-0.00041428
-0.000288233
-0.000363543
-0.000287865
-0.000304511
-0.000275229
-0.00024101
-0.000249422
-0.000178374
-0.000211658
-0.000122242
-0.000165736
-7.6834e-05
-0.000117521
-4.36517e-05
-7.31372e-05
-2.15864e-05
-3.67349e-05
-8.21881e-06
-9.54097e-06
-1.03734e-06
9.23386e-06
2.03993e-06
2.09906e-05
2.59639e-06
2.68618e-05
1.82084e-06
2.7316e-05
6.69479e-07
2.20282e-05
1.00154e-05
-2.44514e-06
1.86525e-05
-7.66084e-06
4.20046e-05
-1.43104e-05
5.54907e-05
-2.16567e-05
6.28031e-05
-2.93415e-05
6.66486e-05
-3.72264e-05
6.8738e-05
-4.53016e-05
7.00651e-05
-5.36564e-05
7.12243e-05
-6.24932e-05
7.26796e-05
-7.21644e-05
7.49484e-05
-8.32055e-05
7.86877e-05
-9.6335e-05
8.46738e-05
-0.000112395
9.36784e-05
-0.000132219
0.000106265
-0.000156432
0.00012255
-0.000185229
0.000142003
-0.000218184
0.000163353
-0.000254182
0.000184681
-0.000291524
0.000203718
-0.000328215
0.000218295
-0.00036233
0.000226785
-0.000392353
0.000228383
-0.000417364
0.000223129
-0.000437083
0.00021175
-0.000451788
0.000195382
-0.000462145
0.000175303
-0.000469035
0.000152711
-0.000473387
0.000128591
-0.000476065
0.000103669
-0.000477805
7.84191e-05
-0.00047918
5.31004e-05
-0.000480626
2.78177e-05
-0.000482482
2.59288e-06
-0.0004849
-2.26721e-05
-0.000488033
-4.8059e-05
-0.000491946
-7.3708e-05
-0.000496588
-9.97821e-05
-0.000501765
-0.000126436
-0.00050705
-0.000153809
-0.000511683
-0.000181946
-0.000514468
-0.000210715
-0.000513699
-0.000239642
-0.00050717
-0.000267738
-0.000492343
-0.00029331
-0.000466722
-0.000313854
-0.000428468
-0.000326119
-0.00037721
-0.000326488
-0.000314862
-0.00031177
-0.000246086
-0.000280434
-0.000177824
-0.000233999
-0.000117506
-0.000177839
-7.03638e-05
-0.000120279
-3.76029e-05
-6.94958e-05
-1.70819e-05
-3.0062e-05
-5.51662e-06
-2.33139e-06
5.75761e-08
1.54164e-05
1.90953e-06
2.50099e-05
1.70106e-06
2.75245e-05
6.99851e-07
2.30294e-05
1.07152e-05
-2.54425e-06
2.11967e-05
-7.95748e-06
4.74178e-05
-1.48534e-05
6.23867e-05
-2.24759e-05
7.04256e-05
-3.04662e-05
7.46388e-05
-3.86989e-05
7.69707e-05
-4.71933e-05
7.85596e-05
-5.60899e-05
8.01209e-05
-6.56723e-05
8.2262e-05
-7.64072e-05
8.56833e-05
-8.89664e-05
9.12469e-05
-0.000104194
9.99017e-05
-0.000122993
0.000112477
-0.000146119
0.000129391
-0.000173927
0.000150358
-0.00020613
0.000174207
-0.00024167
0.000198893
-0.00027878
0.000221791
-0.000315273
0.000240211
-0.000348972
0.000251994
-0.000378125
0.000255938
-0.000401677
0.000251936
-0.000419352
0.000240804
-0.000431545
0.000223943
-0.000439123
0.00020296
-0.000443183
0.000179363
-0.000444842
0.000154369
-0.000445086
0.000128835
-0.000444699
0.000103282
-0.000444241
7.79603e-05
-0.000444074
5.29338e-05
-0.000444422
2.81655e-05
-0.000445418
3.58846e-06
-0.000447141
-2.0949e-05
-0.000449676
-4.55235e-05
-0.000453125
-7.02586e-05
-0.000457603
-9.53043e-05
-0.000463198
-0.000120842
-0.000469908
-0.000147098
-0.000477529
-0.000174325
-0.000485503
-0.000202741
-0.000492734
-0.000232411
-0.00049743
-0.000263042
-0.000497025
-0.000293716
-0.000488296
-0.000322583
-0.000467788
-0.000346628
-0.000432604
-0.000361671
-0.000381563
-0.000362811
-0.000316474
-0.000345523
-0.000242976
-0.000307496
-0.000170006
-0.000250809
-0.000107083
-0.000183202
-6.0208e-05
-0.00011637
-2.96277e-05
-6.06424e-05
-1.18056e-05
-2.01535e-05
-2.68157e-06
6.29239e-06
9.89759e-07
2.13386e-05
1.55795e-06
2.69563e-05
7.5003e-07
2.38373e-05
1.14653e-05
-2.61711e-06
2.38138e-05
-8.1826e-06
5.29833e-05
-1.5277e-05
6.9481e-05
-2.3132e-05
7.82807e-05
-3.13914e-05
8.28982e-05
-3.99463e-05
8.55256e-05
-4.88497e-05
8.7463e-05
-5.83005e-05
8.95717e-05
-6.8671e-05
9.26324e-05
-8.05427e-05
9.75551e-05
-9.47072e-05
0.000105411
-0.000112085
0.000117279
-0.00013354
0.000133933
-0.000159615
0.000155465
-0.000190236
0.00018098
-0.000224518
0.000208489
-0.000260754
0.000235129
-0.000296666
0.000257703
-0.000329862
0.000273407
-0.000358335
0.000280467
-0.000380844
0.000278447
-0.00039705
0.000268141
-0.000407425
0.000251179
-0.000413013
0.00022953
-0.000415122
0.000205069
-0.000415055
0.000179297
-0.000413921
0.000153235
-0.000412537
0.000127452
-0.00041142
0.000102166
-0.000410829
7.73691e-05
-0.000410838
5.29426e-05
-0.000411414
2.8742e-05
-0.000412475
4.64891e-06
-0.000413977
-1.94464e-05
-0.000415918
-4.35828e-05
-0.000418374
-6.78023e-05
-0.000421517
-9.2162e-05
-0.000425593
-0.000116766
-0.000430894
-0.000141797
-0.000437679
-0.00016754
-0.000446043
-0.000194378
-0.000455723
-0.00022273
-0.000465848
-0.000252917
-0.000474665
-0.000284899
-0.000479351
-0.000317896
-0.000476049
-0.00034993
-0.000460299
-0.000377421
-0.000428026
-0.000395083
-0.000377108
-0.000396441
-0.000309258
-0.000375347
-0.000231392
-0.000328675
-0.000154933
-0.000259662
-9.16253e-05
-0.000179678
-4.74835e-05
-0.000104784
-2.08334e-05
-4.68036e-05
-6.64115e-06
-7.89987e-06
-3.67945e-07
1.50654e-05
1.31833e-06
2.527e-05
8.04085e-07
2.43516e-05
1.22694e-05
-2.65968e-06
2.64735e-05
-8.32607e-06
5.86497e-05
-1.55649e-05
7.67199e-05
-2.36028e-05
8.63186e-05
-3.20885e-05
9.13839e-05
-4.09316e-05
9.43686e-05
-5.02224e-05
9.67539e-05
-6.02219e-05
9.95713e-05
-7.13911e-05
0.000103802
-8.44154e-05
0.000110579
-0.000100169
0.000121165
-0.000119575
0.000136685
-0.000143349
0.000157707
-0.000171684
0.0001838
-0.000203976
0.000213272
-0.000238726
0.000243238
-0.000273703
0.000270105
-0.00030638
0.00029038
-0.000334501
0.000301528
-0.000356566
0.000302532
-0.000372078
0.000293959
-0.000381502
0.000277565
-0.000386
0.000255677
-0.000387071
0.000230602
-0.000386209
0.000204208
-0.000384658
0.000177745
-0.000383287
0.000151863
-0.00038258
0.000126746
-0.000382699
0.000102285
-0.000383575
7.82447e-05
-0.000385011
5.4378e-05
-0.000386763
3.04945e-05
-0.0003886
6.48578e-06
-0.000390366
-1.76807e-05
-0.000391983
-4.19653e-05
-0.000393485
-6.63009e-05
-0.000395025
-9.06217e-05
-0.000396886
-0.000114904
-0.000399473
-0.00013921
-0.000403284
-0.00016373
-0.000408839
-0.000188823
-0.000416545
-0.000215024
-0.000426464
-0.000242998
-0.000437992
-0.000273372
-0.000449474
-0.000306413
-0.000457889
-0.000341515
-0.000458772
-0.000376538
-0.000446654
-0.000407202
-0.000416248
-0.000426848
-0.000364512
-0.000427082
-0.000293297
-0.00039989
-0.00021136
-0.000341598
-0.000133218
-0.000257819
-7.25353e-05
-0.000165467
-3.37786e-05
-8.55603e-05
-1.24549e-05
-2.92235e-05
-2.45369e-06
5.06414e-06
8.70357e-07
2.1946e-05
8.3613e-07
2.43858e-05
1.31055e-05
-2.66781e-06
2.91413e-05
-8.37731e-06
6.43592e-05
-1.56999e-05
8.40425e-05
-2.38639e-05
9.44826e-05
-3.25246e-05
0.000100045
-4.16111e-05
0.000103455
-5.12518e-05
0.000106395
-6.17686e-05
0.000110088
-7.3703e-05
0.000115736
-8.7819e-05
0.000124695
-0.000105021
0.000138367
-0.000126148
0.000157812
-0.000151659
0.000183218
-0.000181312
0.000213453
-0.000213951
0.000245912
-0.000247561
0.000276848
-0.000279614
0.000302159
-0.000307648
0.000318414
-0.000329853
0.000323732
-0.000345458
0.000318136
-0.000354787
0.000303288
-0.000359026
0.000281804
-0.000359817
0.000256468
-0.000358842
0.000229627
-0.000357502
0.000202868
-0.000356754
0.000176997
-0.000357085
0.000152194
-0.000358587
0.000128248
-0.000361079
0.000104777
-0.000364227
8.13935e-05
-0.00036765
5.78007e-05
-0.000370982
3.38266e-05
-0.00037392
9.42374e-06
-0.00037625
-1.53511e-05
-0.000377851
-4.03643e-05
-0.000378711
-6.5441e-05
-0.000378935
-9.03978e-05
-0.000378759
-0.000115079
-0.000378568
-0.000139401
-0.000378899
-0.000163399
-0.000380432
-0.00018729
-0.00038393
-0.000211526
-0.000390097
-0.000236831
-0.000399313
-0.000264156
-0.00041123
-0.000294496
-0.000424275
-0.00032847
-0.000435187
-0.000365626
-0.000438853
-0.000403537
-0.000428765
-0.000436935
-0.000398477
-0.000457371
-0.000344261
-0.000454106
-0.000268691
-0.000417168
-0.000183323
-0.000343187
-0.000106344
-0.000242446
-5.20067e-05
-0.000139898
-2.08759e-05
-6.03544e-05
-5.6398e-06
-1.01719e-05
8.13905e-08
1.62248e-05
8.12166e-07
2.3655e-05
1.39177e-05
-2.63756e-06
3.17789e-05
-8.32581e-06
7.00475e-05
-1.56642e-05
9.13808e-05
-2.38895e-05
0.000102708
-3.26647e-05
0.00010882
-4.19368e-05
0.000112727
-5.18699e-05
0.000116328
-6.28404e-05
0.000121059
-7.5453e-05
0.000128349
-9.05132e-05
0.000139755
-0.000108893
0.000156747
-0.000131265
0.000180184
-0.000157759
0.000209713
-0.000187669
0.000243363
-0.000219359
0.000277602
-0.000250481
0.000307969
-0.000278479
0.000330157
-0.000301236
0.000341171
-0.0003176
0.000340096
-0.000327599
0.000328136
-0.000332299
0.000307988
-0.000333396
0.000282901
-0.000332734
0.000255807
-0.000331899
0.000228791
-0.000331979
0.000202948
-0.000333516
0.000178534
-0.000336579
0.000155257
-0.000340909
0.000132577
-0.00034607
0.000109938
-0.000351572
8.6896e-05
-0.000356952
6.31807e-05
-0.000361814
3.86885e-05
-0.000365849
1.34588e-05
-0.000368839
-1.23611e-05
-0.000370653
-3.85503e-05
-0.000371248
-6.48463e-05