/*--------------------------------*- C++ -*----------------------------------*\
| =========                 |                                                 |
| \\      /  F ield         | OpenFOAM: The Open Source CFD Toolbox           |
|  \\    /   O peration     | Version:  2406                                  |
|   \\  /    A nd           | Website:  www.openfoam.com                      |
|    \\/     M anipulation  |                                                 |
\*---------------------------------------------------------------------------*/
FoamFile
{
    version     2.0;
    format      ascii;
    arch        "LSB;label=32;scalar=64";
    class       volScalarField;
    location    "18.5";
    object      p;
}
// * * * * * * * * * * * * * * * * * * * * * * * * * * * * * * * * * * * * * //

dimensions      [0 2 -2 0 0 0 0];

internalField   nonuniform List<scalar> 
14400
(
0.0285492
0.0285502
0.0285485
0.0285456
0.0285403
0.0285338
0.0285258
0.0285168
0.0285068
0.028496
0.0284844
0.028472
0.0284587
0.0284447
0.0284297
0.0284139
0.0283972
0.0283795
0.0283609
0.0283414
0.0283209
0.0282996
0.0282773
0.0282542
0.0282304
0.0282057
0.0281804
0.0281545
0.028128
0.028101
0.0280737
0.0280462
0.0280186
0.027991
0.0279637
0.0279369
0.0279108
0.0278858
0.0278622
0.0278403
0.0278207
0.0278038
0.0277901
0.0277802
0.0277748
0.0277745
0.02778
0.0277922
0.0278116
0.0278391
0.0278754
0.027921
0.0279766
0.0280426
0.0281192
0.0282067
0.0283049
0.0284134
0.0285317
0.0286589
0.0287937
0.0289347
0.02908
0.0292274
0.0293746
0.0295189
0.0296575
0.0297875
0.0299058
0.0300096
0.030096
0.0301626
0.030207
0.0302274
0.0302225
0.0301915
0.0301341
0.0300507
0.0299424
0.0298105
0.0296573
0.0294852
0.0292971
0.029096
0.0288854
0.0286684
0.0284484
0.0282283
0.0280112
0.0277994
0.0275952
0.0274003
0.0272163
0.027044
0.0268843
0.0267374
0.0266035
0.0264822
0.0263732
0.026276
0.0261899
0.0261142
0.0260479
0.0259904
0.0259409
0.0258986
0.0258626
0.0258327
0.0258078
0.0257879
0.0257722
0.0257609
0.025753
0.0257495
0.0257487
0.0257524
0.0257574
0.0257661
0.0257727
0.0257792
0.0285482
0.0285492
0.0285474
0.0285447
0.0285399
0.0285341
0.0285268
0.0285186
0.0285092
0.028499
0.0284879
0.028476
0.0284632
0.0284495
0.028435
0.0284197
0.0284034
0.0283862
0.0283682
0.0283492
0.0283295
0.0283089
0.0282874
0.0282653
0.0282424
0.0282188
0.0281947
0.02817
0.0281448
0.0281193
0.0280936
0.0280676
0.0280417
0.028016
0.0279906
0.0279657
0.0279416
0.0279187
0.0278971
0.0278772
0.0278595
0.0278444
0.0278325
0.0278241
0.02782
0.0278207
0.027827
0.0278394
0.0278587
0.0278855
0.0279205
0.0279643
0.0280174
0.0280803
0.0281531
0.0282361
0.0283291
0.0284319
0.0285438
0.028664
0.0287914
0.0289245
0.0290617
0.0292008
0.0293396
0.0294756
0.029606
0.0297281
0.0298391
0.0299361
0.0300164
0.0300777
0.0301177
0.0301348
0.0301277
0.0300955
0.0300381
0.0299559
0.0298498
0.0297214
0.0295725
0.0294057
0.0292237
0.0290296
0.0288263
0.0286171
0.0284051
0.0281931
0.027984
0.02778
0.0275832
0.0273954
0.0272177
0.0270513
0.0268967
0.0267543
0.0266241
0.0265059
0.0263993
0.0263039
0.0262191
0.0261441
0.0260782
0.0260207
0.0259708
0.025928
0.0258914
0.0258606
0.0258348
0.0258139
0.025797
0.0257845
0.025775
0.0257698
0.0257667
0.025768
0.0257697
0.0257756
0.025779
0.0257856
0.02855
0.028551
0.0285492
0.0285464
0.0285417
0.0285359
0.0285288
0.0285207
0.0285115
0.0285015
0.0284906
0.0284789
0.0284663
0.0284528
0.0284385
0.0284233
0.0284073
0.0283903
0.0283725
0.0283538
0.0283343
0.0283139
0.0282928
0.0282709
0.0282484
0.0282252
0.0282014
0.0281771
0.0281524
0.0281274
0.0281021
0.0280766
0.0280512
0.0280259
0.0280009
0.0279765
0.0279528
0.0279302
0.0279089
0.0278892
0.0278716
0.0278565
0.0278443
0.0278357
0.0278311
0.0278311
0.0278365
0.0278479
0.0278659
0.0278914
0.0279248
0.0279669
0.0280182
0.028079
0.0281499
0.0282308
0.0283218
0.0284226
0.0285327
0.0286511
0.028777
0.0289088
0.0290448
0.0291829
0.0293211
0.0294566
0.0295867
0.0297088
0.0298198
0.029917
0.0299976
0.0300591
0.0300994
0.0301167
0.0301096
0.0300774
0.0300198
0.0299373
0.0298307
0.0297017
0.0295523
0.0293849
0.0292023
0.0290076
0.028804
0.0285946
0.0283827
0.0281711
0.0279625
0.0277594
0.0275638
0.0273773
0.0272013
0.0270366
0.0268839
0.0267433
0.026615
0.0264987
0.0263939
0.0263001
0.0262168
0.0261432
0.0260785
0.0260221
0.0259732
0.0259311
0.025895
0.0258647
0.0258392
0.0258185
0.0258015
0.025789
0.0257792
0.0257739
0.0257702
0.0257713
0.0257725
0.0257791
0.0257824
0.0257923
0.0285531
0.0285537
0.0285517
0.0285488
0.0285443
0.0285387
0.0285319
0.0285242
0.0285155
0.0285059
0.0284954
0.0284841
0.0284719
0.0284588
0.0284449
0.0284301
0.0284144
0.0283979
0.0283805
0.0283623
0.0283433
0.0283235
0.028303
0.0282818
0.0282599
0.0282375
0.0282146
0.0281911
0.0281673
0.0281432
0.0281189
0.0280945
0.0280701
0.0280458
0.0280218
0.0279984
0.0279756
0.0279537
0.0279331
0.027914
0.0278967
0.0278817
0.0278694
0.0278603
0.0278549
0.0278539
0.0278578
0.0278673
0.0278831
0.0279059
0.0279363
0.027975
0.0280226
0.0280795
0.0281461
0.0282226
0.028309
0.0284051
0.0285105
0.0286244
0.0287457
0.0288732
0.0290051
0.0291395
0.0292741
0.0294065
0.0295339
0.0296536
0.0297627
0.0298582
0.0299376
0.0299982
0.0300379
0.0300548
0.0300476
0.0300155
0.0299583
0.0298763
0.0297704
0.0296423
0.0294939
0.0293277
0.0291466
0.0289537
0.0287521
0.0285451
0.0283357
0.0281271
0.0279217
0.0277221
0.0275302
0.0273476
0.0271755
0.0270149
0.0268661
0.0267294
0.0266048
0.0264919
0.0263904
0.0262996
0.0262188
0.0261475
0.0260848
0.02603
0.0259824
0.0259413
0.0259061
0.0258763
0.025851
0.0258304
0.0258133
0.0258004
0.0257899
0.0257838
0.0257789
0.0257792
0.0257788
0.0257854
0.0257879
0.0258008
0.0285588
0.0285585
0.0285564
0.0285531
0.0285485
0.0285427
0.028536
0.0285284
0.0285198
0.0285104
0.0285002
0.028489
0.0284771
0.0284642
0.0284505
0.0284359
0.0284205
0.0284042
0.0283871
0.0283691
0.0283503
0.0283308
0.0283106
0.0282896
0.0282681
0.0282459
0.0282233
0.0282001
0.0281766
0.0281527
0.0281286
0.0281043
0.02808
0.0280558
0.0280317
0.028008
0.0279848
0.0279623
0.0279408
0.0279206
0.027902
0.0278854
0.0278711
0.0278598
0.0278518
0.0278478
0.0278485
0.0278545
0.0278665
0.0278853
0.0279116
0.0279461
0.0279895
0.0280422
0.0281048
0.0281775
0.0282605
0.0283535
0.0284562
0.0285679
0.0286876
0.028814
0.0289454
0.0290799
0.0292151
0.0293486
0.0294776
0.0295993
0.0297106
0.0298087
0.0298907
0.029954
0.0299963
0.0300157
0.0300106
0.0299803
0.0299244
0.0298433
0.0297378
0.0296095
0.0294606
0.0292935
0.0291112
0.0289168
0.0287137
0.0285052
0.0282945
0.0280848
0.0278788
0.0276789
0.0274871
0.0273052
0.0271343
0.0269752
0.0268285
0.0266942
0.0265722
0.0264622
0.0263635
0.0262757
0.0261979
0.0261294
0.0260693
0.026017
0.0259716
0.0259326
0.0258991
0.0258708
0.0258468
0.0258272
0.0258108
0.0257985
0.0257884
0.0257826
0.0257777
0.0257784
0.0257779
0.0257859
0.0257887
0.0258052
0.028566
0.0285645
0.0285621
0.0285582
0.0285535
0.0285477
0.0285412
0.0285336
0.0285254
0.0285162
0.0285063
0.0284954
0.0284838
0.0284713
0.0284579
0.0284436
0.0284285
0.0284125
0.0283957
0.028378
0.0283596
0.0283404
0.0283205
0.0282999
0.0282788
0.028257
0.0282347
0.0282119
0.0281887
0.0281651
0.0281412
0.0281171
0.0280928
0.0280684
0.0280441
0.0280199
0.0279959
0.0279724
0.0279496
0.0279276
0.0279069
0.0278876
0.0278703
0.0278555
0.0278435
0.0278351
0.0278309
0.0278315
0.0278379
0.0278507
0.0278707
0.0278988
0.0279356
0.0279819
0.0280381
0.0281047
0.0281818
0.0282693
0.028367
0.0284743
0.0285902
0.0287134
0.0288424
0.0289751
0.0291095
0.0292428
0.0293725
0.0294955
0.0296088
0.0297094
0.0297945
0.0298612
0.0299072
0.0299304
0.0299292
0.0299026
0.0298502
0.0297722
0.0296696
0.0295437
0.0293967
0.0292312
0.02905
0.0288564
0.0286539
0.0284459
0.0282357
0.0280265
0.0278213
0.0276224
0.0274321
0.0272519
0.0270831
0.0269266
0.0267828
0.0266516
0.026533
0.0264266
0.0263316
0.0262474
0.0261731
0.0261081
0.0260512
0.026002
0.0259593
0.0259227
0.0258914
0.0258649
0.0258424
0.0258241
0.0258085
0.0257969
0.025787
0.0257815
0.0257764
0.0257773
0.0257764
0.0257852
0.025788
0.0258071
0.0285751
0.028572
0.0285693
0.0285645
0.0285598
0.0285535
0.028547
0.0285394
0.0285314
0.0285223
0.0285126
0.0285019
0.0284905
0.0284782
0.028465
0.0284509
0.028436
0.0284201
0.0284035
0.028386
0.0283676
0.0283486
0.0283288
0.0283083
0.0282871
0.0282653
0.0282429
0.02822
0.0281966
0.0281726
0.0281482
0.0281234
0.0280982
0.0280727
0.0280468
0.0280208
0.0279946
0.0279685
0.0279425
0.0279169
0.0278919
0.0278679
0.0278453
0.0278245
0.027806
0.0277906
0.0277788
0.0277716
0.0277697
0.027774
0.0277855
0.0278049
0.0278332
0.0278712
0.0279194
0.0279785
0.0280486
0.0281299
0.0282222
0.0283249
0.0284372
0.0285579
0.0286854
0.0288178
0.0289529
0.0290881
0.0292207
0.0293477
0.0294659
0.0295723
0.0296638
0.0297375
0.0297908
0.0298215
0.0298278
0.0298084
0.0297628
0.0296911
0.0295939
0.0294728
0.0293296
0.0291669
0.0289878
0.0287955
0.0285936
0.0283856
0.0281751
0.0279654
0.0277596
0.0275603
0.0273697
0.0271897
0.0270216
0.0268662
0.026724
0.0265949
0.0264789
0.0263754
0.0262836
0.0262029
0.0261322
0.0260708
0.0260175
0.0259717
0.0259323
0.0258988
0.0258702
0.0258463
0.025826
0.0258096
0.0257956
0.0257854
0.0257765
0.0257719
0.0257673
0.025769
0.0257685
0.0257785
0.0257817
0.025803
0.0285852
0.0285803
0.0285773
0.0285715
0.0285666
0.02856
0.0285536
0.028546
0.0285381
0.0285292
0.0285197
0.0285093
0.0284981
0.028486
0.0284731
0.0284592
0.0284444
0.0284287
0.0284122
0.0283947
0.0283765
0.0283575
0.0283377
0.0283172
0.0282959
0.028274
0.0282514
0.0282281
0.0282041
0.0281794
0.0281541
0.0281281
0.0281013
0.0280739
0.0280457
0.0280168
0.0279872
0.027957
0.0279263
0.0278953
0.0278642
0.0278332
0.0278028
0.0277735
0.0277457
0.0277203
0.0276979
0.0276795
0.0276659
0.0276582
0.0276574
0.0276645
0.0276806
0.0277064
0.0277429
0.0277907
0.0278503
0.0279219
0.0280053
0.0281003
0.028206
0.0283215
0.0284453
0.0285755
0.02871
0.0288463
0.0289816
0.0291129
0.029237
0.0293507
0.0294508
0.0295343
0.0295983
0.0296404
0.0296584
0.029651
0.0296173
0.0295569
0.0294705
0.0293593
0.029225
0.0290701
0.0288975
0.0287106
0.028513
0.0283083
0.0281003
0.0278924
0.0276879
0.0274896
0.0273
0.027121
0.026954
0.0268001
0.0266597
0.0265329
0.0264195
0.0263189
0.0262304
0.0261531
0.0260861
0.0260284
0.0259789
0.0259367
0.0259008
0.0258706
0.025845
0.0258239
0.025806
0.0257917
0.0257796
0.0257708
0.0257631
0.0257595
0.0257555
0.0257578
0.0257575
0.0257683
0.0257717
0.0257944
0.0285963
0.0285895
0.0285861
0.0285793
0.0285742
0.0285671
0.0285607
0.0285529
0.0285452
0.0285363
0.028527
0.0285167
0.0285057
0.0284937
0.0284808
0.028467
0.0284523
0.0284366
0.0284201
0.0284026
0.0283842
0.028365
0.028345
0.0283241
0.0283024
0.0282798
0.0282564
0.0282321
0.0282069
0.0281807
0.0281535
0.0281252
0.0280956
0.0280648
0.0280326
0.027999
0.0279639
0.0279274
0.0278894
0.0278501
0.0278098
0.0277685
0.0277269
0.0276852
0.0276443
0.0276047
0.0275675
0.0275335
0.0275038
0.0274796
0.027462
0.0274522
0.0274515
0.0274609
0.0274815
0.027514
0.0275592
0.0276175
0.027689
0.0277735
0.0278704
0.0279789
0.0280976
0.0282249
0.0283587
0.0284966
0.0286358
0.0287733
0.0289059
0.0290303
0.0291431
0.029241
0.029321
0.0293802
0.0294162
0.0294272
0.0294119
0.0293697
0.0293007
0.0292058
0.0290865
0.0289451
0.0287842
0.0286073
0.0284179
0.0282198
0.0280168
0.0278126
0.0276107
0.0274143
0.027226
0.0270479
0.0268818
0.0267288
0.0265895
0.0264642
0.0263526
0.0262542
0.0261683
0.026094
0.0260303
0.025976
0.02593
0.0258914
0.0258591
0.0258324
0.0258101
0.025792
0.0257769
0.0257651
0.0257552
0.0257484
0.0257422
0.0257399
0.0257369
0.0257402
0.0257405
0.025752
0.0257558
0.0257794
0.0286079
0.028599
0.0285952
0.0285872
0.0285819
0.0285744
0.028568
0.0285601
0.0285525
0.0285437
0.0285345
0.0285243
0.0285135
0.0285015
0.0284888
0.028475
0.0284602
0.0284445
0.0284278
0.0284101
0.0283915
0.0283719
0.0283514
0.0283299
0.0283074
0.0282839
0.0282593
0.0282334
0.0282063
0.0281778
0.0281477
0.028116
0.0280823
0.0280465
0.0280086
0.0279682
0.0279253
0.0278797
0.0278315
0.0277807
0.0277275
0.0276721
0.0276149
0.0275564
0.0274974
0.0274386
0.027381
0.0273257
0.027274
0.0272272
0.0271867
0.0271538
0.02713
0.0271166
0.027115
0.0271261
0.027151
0.0271903
0.0272444
0.0273134
0.0273969
0.0274944
0.0276047
0.0277264
0.0278576
0.0279959
0.0281388
0.0282832
0.028426
0.0285637
0.0286927
0.0288097
0.0289112
0.028994
0.0290553
0.0290928
0.0291045
0.0290895
0.0290472
0.028978
0.028883
0.028764
0.0286235
0.0284645
0.0282906
0.0281056
0.0279133
0.0277178
0.0275226
0.0273312
0.0271466
0.0269713
0.0268073
0.026656
0.0265182
0.0263944
0.0262845
0.0261881
0.0261044
0.0260326
0.0259717
0.0259204
0.0258777
0.0258424
0.0258134
0.02579
0.0257709
0.0257558
0.0257435
0.0257343
0.0257266
0.0257218
0.0257172
0.0257164
0.0257144
0.0257185
0.0257193
0.0257313
0.0257352
0.0257592
0.0286197
0.0286087
0.0286043
0.0285951
0.0285897
0.0285816
0.0285752
0.0285671
0.0285596
0.0285508
0.0285418
0.0285316
0.0285208
0.0285089
0.0284961
0.0284822
0.0284673
0.0284513
0.0284343
0.0284162
0.0283971
0.0283768
0.0283555
0.0283329
0.0283091
0.028284
0.0282574
0.0282291
0.0281991
0.028167
0.0281326
0.0280957
0.028056
0.0280131
0.0279668
0.0279167
0.0278627
0.0278045
0.0277421
0.0276753
0.0276044
0.0275296
0.0274512
0.0273699
0.0272864
0.0272017
0.0271169
0.0270333
0.0269522
0.0268754
0.0268043
0.0267407
0.0266864
0.0266428
0.0266118
0.0265946
0.0265925
0.0266066
0.0266376
0.0266859
0.0267514
0.0268339
0.0269325
0.0270461
0.0271729
0.027311
0.0274576
0.0276101
0.0277652
0.0279194
0.0280691
0.0282105
0.02834
0.028454
0.028549
0.0286222
0.0286711
0.0286939
0.0286894
0.0286572
0.0285978
0.0285122
0.0284027
0.0282717
0.0281226
0.0279589
0.0277847
0.027604
0.0274207
0.0272385
0.027061
0.0268908
0.0267305
0.0265819
0.0264461
0.0263238
0.0262153
0.0261203
0.0260383
0.0259684
0.0259095
0.0258607
0.0258205
0.0257881
0.0257621
0.0257416
0.0257255
0.0257134
0.0257038
0.0256972
0.0256918
0.025689
0.0256862
0.0256869
0.0256861
0.0256911
0.0256925
0.0257049
0.0257091
0.0257328
0.0286313
0.0286179
0.0286131
0.0286026
0.028597
0.0285883
0.028582
0.0285738
0.0285663
0.0285575
0.0285486
0.0285384
0.0285276
0.0285156
0.0285027
0.0284886
0.0284734
0.0284571
0.0284396
0.0284209
0.0284009
0.0283797
0.0283571
0.028333
0.0283074
0.0282799
0.0282505
0.0282188
0.0281846
0.0281475
0.0281072
0.0280632
0.028015
0.0279623
0.0279045
0.0278413
0.0277722
0.0276969
0.0276153
0.0275272
0.0274327
0.027332
0.0272256
0.0271142
0.0269985
0.0268798
0.0267593
0.0266385
0.0265192
0.0264033
0.0262926
0.0261892
0.0260952
0.0260127
0.0259436
0.0258898
0.0258529
0.0258343
0.0258352
0.0258563
0.025898
0.0259603
0.0260427
0.0261444
0.026264
0.0263996
0.0265491
0.0267095
0.026878
0.0270509
0.0272247
0.0273954
0.0275589
0.0277114
0.027849
0.027968
0.0280652
0.028138
0.0281843
0.0282028
0.0281929
0.028155
0.0280904
0.0280009
0.0278893
0.0277589
0.0276136
0.0274573
0.0272943
0.0271285
0.0269637
0.0268033
0.0266502
0.0265068
0.0263747
0.026255
0.0261484
0.0260549
0.0259742
0.0259057
0.0258484
0.0258013
0.0257631
0.0257329
0.0257092
0.0256912
0.0256776
0.025668
0.0256609
0.0256566
0.0256533
0.0256525
0.0256514
0.0256534
0.0256537
0.0256595
0.0256615
0.025674
0.0256782
0.0257014
0.0286422
0.0286263
0.0286211
0.0286093
0.0286035
0.0285943
0.028588
0.0285795
0.0285722
0.0285633
0.0285544
0.0285441
0.0285332
0.028521
0.0285079
0.0284934
0.0284778
0.0284609
0.0284427
0.028423
0.028402
0.0283793
0.0283549
0.0283287
0.0283003
0.0282696
0.0282363
0.0281998
0.0281598
0.0281158
0.0280672
0.0280134
0.0279538
0.0278877
0.0278145
0.0277335
0.0276443
0.0275463
0.0274392
0.0273229
0.0271973
0.0270629
0.02692
0.0267695
0.0266124
0.02645
0.0262839
0.0261159
0.0259482
0.025783
0.0256226
0.0254697
0.0253266
0.0251959
0.02508
0.0249813
0.0249017
0.0248432
0.0248072
0.024795
0.0248072
0.0248443
0.0249063
0.0249924
0.0251018
0.0252328
0.0253835
0.0255514
0.0257336
0.0259267
0.0261272
0.026331
0.0265338
0.0267315
0.0269196
0.027094
0.0272506
0.0273857
0.0274964
0.0275802
0.0276354
0.0276611
0.0276575
0.0276255
0.0275671
0.0274848
0.027382
0.0272627
0.0271309
0.0269909
0.0268469
0.0267028
0.0265621
0.0264278
0.0263021
0.0261869
0.0260833
0.0259918
0.0259125
0.025845
0.0257887
0.0257427
0.0257057
0.0256769
0.0256549
0.0256388
0.0256271
0.0256195
0.0256144
0.0256121
0.0256107
0.0256116
0.025612
0.0256153
0.0256167
0.0256231
0.0256257
0.0256381
0.0256425
0.0256647
0.0286519
0.0286335
0.0286278
0.0286147
0.0286088
0.028599
0.0285927
0.028584
0.0285767
0.0285677
0.0285588
0.0285484
0.0285373
0.0285249
0.0285114
0.0284964
0.0284802
0.0284624
0.0284432
0.0284223
0.0283997
0.028375
0.0283483
0.0283191
0.0282872
0.0282521
0.0282133
0.0281704
0.0281227
0.0280693
0.0280097
0.0279429
0.0278681
0.0277843
0.0276907
0.0275864
0.0274708
0.0273431
0.0272031
0.0270504
0.0268851
0.0267075
0.0265183
0.0263184
0.0261091
0.0258922
0.0256695
0.0254434
0.0252164
0.0249913
0.0247709
0.0245584
0.0243567
0.0241688
0.0239977
0.0238461
0.0237165
0.0236112
0.0235321
0.0234807
0.0234581
0.0234652
0.0235021
0.0235686
0.0236641
0.0237874
0.0239368
0.0241102
0.0243049
0.0245178
0.0247456
0.0249841
0.0252293
0.0254766
0.0257213
0.0259587
0.0261841
0.026393
0.0265812
0.0267449
0.0268813
0.0269879
0.0270635
0.0271076
0.0271208
0.0271048
0.0270621
0.0269959
0.0269102
0.0268093
0.0266975
0.0265794
0.0264589
0.0263399
0.0262255
0.0261183
0.02602
0.025932
0.0258548
0.0257886
0.0257331
0.0256876
0.0256513
0.0256232
0.025602
0.0255869
0.0255765
0.0255702
0.0255666
0.0255658
0.0255658
0.025568
0.0255697
0.0255739
0.0255762
0.0255831
0.0255861
0.0255982
0.0256025
0.0256236
0.0286599
0.0286388
0.0286327
0.0286183
0.0286122
0.0286019
0.0285956
0.0285867
0.0285794
0.0285703
0.0285613
0.0285506
0.0285393
0.0285264
0.0285124
0.0284968
0.0284797
0.0284608
0.0284403
0.0284176
0.0283929
0.0283657
0.0283357
0.0283026
0.0282658
0.0282248
0.028179
0.0281274
0.0280694
0.0280038
0.0279296
0.0278456
0.0277508
0.027644
0.0275239
0.0273895
0.02724
0.0270744
0.0268924
0.0266937
0.0264784
0.026247
0.0260003
0.0257397
0.0254668
0.0251838
0.0248933
0.024598
0.0243011
0.024006
0.0237162
0.0234353
0.0231668
0.0229144
0.0226813
0.0224708
0.0222857
0.0221286
0.0220018
0.0219071
0.0218458
0.0218191
0.0218275
0.021871
0.0219493
0.0220617
0.0222067
0.0223826
0.0225872
0.0228177
0.023071
0.0233434
0.0236309
0.023929
0.0242329
0.0245377
0.024838
0.0251287
0.0254046
0.0256607
0.0258927
0.0260966
0.0262694
0.0264089
0.026514
0.0265847
0.0266223
0.0266288
0.0266076
0.0265625
0.0264979
0.0264186
0.0263293
0.0262346
0.0261385
0.0260445
0.0259555
0.0258735
0.0258001
0.0257361
0.0256816
0.0256365
0.0256003
0.0255722
0.0255511
0.0255363
0.0255264
0.0255207
0.0255179
0.0255178
0.0255188
0.0255219
0.0255244
0.0255293
0.0255322
0.0255393
0.0255426
0.0255543
0.0255585
0.0255783
0.0286656
0.0286418
0.0286353
0.0286194
0.0286133
0.0286024
0.0285961
0.028587
0.0285798
0.0285704
0.0285613
0.0285503
0.0285386
0.0285252
0.0285105
0.0284939
0.0284757
0.0284554
0.0284331
0.0284082
0.0283807
0.0283501
0.0283159
0.0282776
0.0282345
0.0281859
0.0281307
0.0280679
0.0279964
0.0279148
0.0278217
0.0277157
0.0275953
0.0274588
0.027305
0.0271325
0.0269402
0.0267272
0.026493
0.0262375
0.0259609
0.025664
0.0253481
0.0250149
0.0246669
0.0243067
0.0239376
0.0235631
0.0231871
0.0228136
0.0224469
0.022091
0.0217501
0.0214283
0.0211291
0.0208562
0.0206127
0.0204013
0.0202245
0.0200843
0.0199823
0.0199196
0.0198971
0.019915
0.0199732
0.0200713
0.0202083
0.0203828
0.0205931
0.0208369
0.0211114
0.0214135
0.0217397
0.0220856
0.0224469
0.0228184
0.0231948
0.0235705
0.0239396
0.0242962
0.0246346
0.0249491
0.0252351
0.0254882
0.0257053
0.0258842
0.0260243
0.0261259
0.0261909
0.0262223
0.026224
0.0262006
0.0261573
0.0260993
0.0260317
0.025959
0.0258853
0.0258138
0.0257472
0.0256871
0.0256347
0.0255904
0.0255542
0.0255256
0.025504
0.0254887
0.0254784
0.0254725
0.0254697
0.0254698
0.025471
0.0254744
0.0254773
0.0254823
0.0254855
0.0254926
0.0254959
0.0255071
0.0255111
0.0255294
0.0286683
0.0286417
0.0286348
0.0286176
0.0286114
0.0285999
0.0285937
0.0285844
0.0285771
0.0285674
0.0285581
0.0285466
0.0285345
0.0285203
0.0285047
0.028487
0.0284673
0.0284452
0.0284205
0.0283928
0.0283617
0.0283267
0.0282871
0.0282421
0.0281908
0.0281322
0.028065
0.0279878
0.0278989
0.0277969
0.0276797
0.0275456
0.0273926
0.027219
0.0270229
0.0268029
0.0265578
0.0262866
0.0259889
0.0256649
0.0253151
0.0249409
0.0245441
0.0241272
0.0236934
0.0232462
0.0227897
0.0223283
0.0218667
0.0214095
0.0209616
0.0205277
0.0201124
0.0197199
0.0193542
0.019019
0.0187175
0.0184526
0.0182267
0.0180417
0.0178994
0.0178009
0.017747
0.0177382
0.0177745
0.0178558
0.0179813
0.0181502
0.018361
0.0186122
0.0189015
0.0192264
0.0195839
0.0199705
0.0203822
0.0208144
0.0212621
0.0217195
0.0221807
0.0226391
0.0230881
0.0235208
0.0239306
0.0243114
0.0246575
0.0249645
0.0252289
0.0254489
0.0256241
0.0257556
0.0258462
0.0258998
0.0259214
0.0259166
0.0258912
0.0258511
0.0258015
0.0257472
0.0256921
0.0256394
0.025591
0.0255486
0.0255127
0.0254836
0.025461
0.0254445
0.0254331
0.0254262
0.0254226
0.025422
0.0254229
0.0254258
0.0254285
0.0254334
0.0254364
0.0254431
0.0254463
0.0254567
0.0254605
0.0254773
0.0286674
0.0286379
0.0286307
0.0286121
0.0286059
0.0285938
0.0285877
0.028578
0.0285707
0.0285607
0.028551
0.028539
0.0285262
0.0285111
0.0284944
0.0284751
0.0284536
0.0284291
0.0284015
0.0283701
0.0283345
0.0282938
0.0282473
0.0281938
0.0281321
0.0280608
0.0279782
0.0278826
0.0277718
0.0276439
0.0274964
0.0273271
0.0271337
0.026914
0.0266661
0.0263882
0.0260792
0.0257383
0.0253654
0.024961
0.0245264
0.0240637
0.0235755
0.0230654
0.0225374
0.0219961
0.0214466
0.0208941
0.0203439
0.0198017
0.0192725
0.0187617
0.0182739
0.0178136
0.0173849
0.0169913
0.0166359
0.0163215
0.0160503
0.0158242
0.0156445
0.0155124
0.0154286
0.0153936
0.0154075
0.0154703
0.0155815
0.0157405
0.0159465
0.0161983
0.0164944
0.0168331
0.017212
0.0176285
0.0180795
0.0185611
0.019069
0.0195982
0.0201428
0.0206966
0.0212523
0.0218025
0.0223393
0.0228547
0.023341
0.0237911
0.0241986
0.0245586
0.0248677
0.0251246
0.0253295
0.0254847
0.0255943
0.0256635
0.0256986
0.0257062
0.0256932
0.0256657
0.0256295
0.0255892
0.0255484
0.02551
0.0254756
0.0254464
0.0254227
0.0254046
0.0253914
0.0253827
0.0253775
0.0253755
0.0253751
0.025377
0.0253789
0.0253829
0.0253854
0.0253914
0.0253941
0.0254036
0.025407
0.0254224
0.0286622
0.0286298
0.0286222
0.0286022
0.028596
0.0285834
0.0285773
0.0285673
0.0285598
0.0285494
0.0285393
0.0285266
0.0285129
0.0284967
0.0284785
0.0284574
0.0284335
0.0284061
0.0283748
0.0283388
0.0282974
0.0282496
0.0281943
0.0281299
0.028055
0.0279677
0.0278658
0.0277471
0.0276089
0.0274487
0.0272637
0.0270511
0.0268082
0.0265326
0.0262223
0.0258754
0.025491
0.0250687
0.024609
0.0241131
0.0235833
0.0230226
0.0224349
0.0218248
0.0211976
0.0205589
0.0199147
0.0192711
0.0186342
0.01801
0.0174042
0.0168219
0.016268
0.0157469
0.0152624
0.0148178
0.0144159
0.0140591
0.0137493
0.0134879
0.0132761
0.0131148
0.0130045
0.0129455
0.012938
0.0129819
0.013077
0.013223
0.0134193
0.0136653
0.0139601
0.0143026
0.0146916
0.0151252
0.0156012
0.0161171
0.0166696
0.0172546
0.0178672
0.0185018
0.0191518
0.0198095
0.0204667
0.0211142
0.0217427
0.0223427
0.022905
0.0234215
0.0238852
0.024291
0.024636
0.0249195
0.0251433
0.0253114
0.0254295
0.0255047
0.0255448
0.0255576
0.0255506
0.0255304
0.0255027
0.0254719
0.0254412
0.0254131
0.0253887
0.0253688
0.0253533
0.0253423
0.0253346
0.0253304
0.025328
0.0253282
0.0253286
0.0253312
0.0253327
0.0253375
0.0253396
0.0253479
0.0253509
0.025365
0.0286518
0.0286165
0.0286085
0.0285872
0.028581
0.0285678
0.0285617
0.0285513
0.0285436
0.0285327
0.028522
0.0285085
0.0284938
0.028476
0.0284561
0.0284326
0.0284059
0.0283747
0.0283388
0.028297
0.0282485
0.0281917
0.0281254
0.0280475
0.0279561
0.0278488
0.0277229
0.0275756
0.0274036
0.0272039
0.0269731
0.0267081
0.0264059
0.0260638
0.0256799
0.0252526
0.0247814
0.0242666
0.0237097
0.0231129
0.0224797
0.0218144
0.0211224
0.0204095
0.0196822
0.0189472
0.0182114
0.0174816
0.0167644
0.0160659
0.015392
0.0147477
0.0141377
0.013566
0.013036
0.0125504
0.0121117
0.0117216
0.0113815
0.0110925
0.0108554
0.0106705
0.0105383
0.0104589
0.0104321
0.0104581
0.0105366
0.0106674
0.0108504
0.0110852
0.0113715
0.0117089
0.0120968
0.0125344
0.0130207
0.0135541
0.0141328
0.014754
0.0154143
0.0161093
0.0168334
0.01758
0.0183412
0.0191079
0.0198698
0.020616
0.021335
0.0220157
0.0226474
0.0232208
0.0237287
0.0241664
0.0245321
0.0248268
0.0250546
0.0252217
0.0253361
0.025407
0.0254434
0.0254544
0.0254478
0.0254303
0.0254071
0.0253822
0.0253582
0.0253369
0.025319
0.025305
0.0252943
0.0252871
0.025282
0.0252796
0.0252779
0.0252786
0.0252784
0.0252817
0.0252827
0.0252899
0.0252922
0.0253052
0.0286355
0.0285972
0.0285889
0.0285662
0.02856
0.0285462
0.0285401
0.0285293
0.0285213
0.0285098
0.0284984
0.0284838
0.0284677
0.0284482
0.028426
0.0283997
0.0283693
0.0283336
0.0282919
0.028243
0.0281855
0.0281177
0.0280376
0.027943
0.0278312
0.0276993
0.0275439
0.0273616
0.0271487
0.0269012
0.0266157
0.0262884
0.0259163
0.0254968
0.0250282
0.0245096
0.0239411
0.0233244
0.0226618
0.0219574
0.0212159
0.0204433
0.0196464
0.0188324
0.0180088
0.0171834
0.0163636
0.0155568
0.0147697
0.0140084
0.0132784
0.0125846
0.011931
0.0113209
0.0107573
0.0102422
0.0097773
0.00936385
0.00900269
0.00869434
0.00843911
0.0082371
0.00808828
0.00799256
0.00794977
0.00795974
0.00802233
0.00813742
0.00830495
0.00852492
0.00879737
0.00912239
0.00950005
0.00993038
0.0104133
0.0109484
0.0115351
0.0121723
0.0128579
0.0135895
0.014363
0.0151736
0.0160146
0.0168778
0.0177536
0.0186307
0.0194964
0.0203373
0.0211397
0.0218904
0.0225773
0.0231908
0.023724
0.0241735
0.0245399
0.0248268
0.0250414
0.0251929
0.0252918
0.025349
0.025375
0.025379
0.0253689
0.0253509
0.0253295
0.0253078
0.0252878
0.0252707
0.0252564
0.0252456
0.025237
0.0252314
0.0252267
0.0252249
0.0252226
0.025224
0.0252236
0.0252294
0.025231
0.025243
0.0286124
0.028571
0.0285625
0.0285384
0.0285322
0.0285178
0.0285117
0.0285003
0.028492
0.0284796
0.0284674
0.0284514
0.0284337
0.028412
0.0283871
0.0283572
0.0283224
0.0282811
0.0282324
0.0281746
0.0281061
0.0280246
0.0279278
0.0278127
0.027676
0.0275141
0.027323
0.0270986
0.0268366
0.0265325
0.0261825
0.0257827
0.0253301
0.0248225
0.0242588
0.0236391
0.0229649
0.0222389
0.0214655
0.0206502
0.0197997
0.0189214
0.0180235
0.0171146
0.0162031
0.0152973
0.0144053
0.0135342
0.0126906
0.0118804
0.0111084
0.0103788
0.00969493
0.00905942
0.00847426
0.00794089
0.00746029
0.00703303
0.00665939
0.00633941
0.00607295
0.00585975
0.0056995
0.00559185
0.00553646
0.00553304
0.0055814
0.00568141
0.00583308
0.00603655
0.00629209
0.00660012
0.00696117
0.00737584
0.00784481
0.00836869
0.00894796
0.00958281
0.010273
0.0110176
0.0118149
0.0126618
0.0135538
0.0144848
0.0154465
0.0164289
0.0174196
0.0184044
0.0193676
0.020293
0.0211642
0.0219664
0.0226868
0.0233162
0.0238495
0.0242862
0.0246303
0.0248896
0.0250746
0.0251978
0.025272
0.0253094
0.0253209
0.0253154
0.0253
0.02528
0.0252588
0.0252387
0.0252206
0.0252056
0.0251929
0.0251833
0.0251751
0.02517
0.0251651
0.0251642
0.0251621
0.0251664
0.0251672
0.0251783
0.0285816
0.0285372
0.0285284
0.028503
0.0284968
0.0284817
0.0284755
0.0284635
0.0284546
0.0284413
0.0284279
0.0284103
0.0283906
0.0283663
0.028338
0.0283039
0.0282636
0.0282154
0.0281581
0.0280895
0.0280076
0.0279095
0.0277923
0.0276522
0.0274855
0.0272876
0.0270539
0.0267796
0.0264598
0.0260897
0.0256652
0.0251827
0.0246394
0.024034
0.0233663
0.0226379
0.0218518
0.0210128
0.020127
0.0192018
0.0182457
0.0172676
0.0162772
0.0152838
0.0142965
0.0133239
0.0123739
0.0114533
0.0105684
0.00972401
0.00892435
0.00817266
0.00747138
0.00682229
0.00622656
0.00568488
0.00519755
0.00476455
0.00438566
0.00406047
0.00378849
0.00356917
0.00340194
0.00328625
0.00322161
0.00320764
0.00324402
0.0033306
0.00346737
0.00365451
0.00389237
0.00418151
0.00452272
0.00491695
0.00536535
0.00586919
0.0064298
0.00704847
0.00772631
0.00846403
0.00926176
0.0101187
0.0110328
0.0120004
0.0130159
0.0140713
0.0151561
0.0162571
0.0173586
0.0184427
0.0194903
0.0204818
0.0213988
0.0222255
0.0229499
0.0235649
0.0240691
0.0244666
0.0247661
0.02498
0.0251229
0.0252097
0.0252545
0.0252699
0.025266
0.0252509
0.0252302
0.0252079
0.0251861
0.0251666
0.0251492
0.025135
0.0251227
0.0251138
0.0251057
0.0251021
0.0250979
0.0251005
0.0251003
0.0251108
0.0285421
0.0284947
0.0284857
0.0284589
0.0284527
0.0284369
0.0284305
0.0284178
0.0284082
0.0283937
0.0283789
0.0283594
0.0283372
0.0283097
0.0282773
0.028238
0.0281912
0.0281347
0.0280669
0.0279853
0.0278871
0.027769
0.0276272
0.0274573
0.0272547
0.0270142
0.0267304
0.0263978
0.0260111
0.0255655
0.0250568
0.0244818
0.0238387
0.0231273
0.0223489
0.0215069
0.0206064
0.0196542
0.0186585
0.0176286
0.0165747
0.0155071
0.0144361
0.0133718
0.0123234
0.0112993
0.0103069
0.00935242
0.00844093
0.00757657
0.00676242
0.00600074
0.00529304
0.00464021
0.00404265
0.00350036
0.00301306
0.00258026
0.00220132
0.00187553
0.00160213
0.00138035
0.00120947
0.00108882
0.00101779
0.000995881
0.00102273
0.00109809
0.0012219
0.00139429
0.00161558
0.00188635
0.0022074
0.00257984
0.00300501
0.00348452
0.00402021
0.00461407
0.00526818
0.00598452
0.00676481
0.00761024
0.00852111
0.00949649
0.0105337
0.0116278
0.0127714
0.0139536
0.0151607
0.0163753
0.0175774
0.0187448
0.0198546
0.0208844
0.021815
0.0226312
0.0233239
0.0238907
0.024336
0.02467
0.024907
0.025064
0.0251583
0.0252063
0.025222
0.025217
0.0251998
0.0251769
0.0251518
0.0251278
0.0251053
0.0250861
0.0250689
0.0250558
0.025044
0.0250372
0.0250306
0.0250314
0.0250301
0.02504
0.0284931
0.0284427
0.0284334
0.0284053
0.0283991
0.0283825
0.0283758
0.0283622
0.0283518
0.0283359
0.0283193
0.0282974
0.0282723
0.0282409
0.0282036
0.028158
0.0281033
0.0280368
0.0279565
0.0278591
0.0277415
0.0275995
0.0274285
0.0272234
0.0269786
0.0266882
0.0263463
0.0259468
0.0254842
0.0249538
0.0243517
0.0236759
0.0229255
0.0221022
0.0212092
0.0202521
0.0192383
0.0181768
0.0170778
0.0159524
0.0148121
0.013668
0.0125312
0.0114115
0.0103179
0.00925809
0.00823856
0.00726448
0.00633988
0.00546768