/*--------------------------------*- C++ -*----------------------------------*\
| =========                 |                                                 |
| \\      /  F ield         | OpenFOAM: The Open Source CFD Toolbox           |
|  \\    /   O peration     | Version:  2406                                  |
|   \\  /    A nd           | Website:  www.openfoam.com                      |
|    \\/     M anipulation  |                                                 |
\*---------------------------------------------------------------------------*/
FoamFile
{
    version     2.0;
    format      ascii;
    arch        "LSB;label=32;scalar=64";
    class       surfaceScalarField;
    location    "29.7";
    object      phi;
}
// * * * * * * * * * * * * * * * * * * * * * * * * * * * * * * * * * * * * * //

dimensions      [0 3 -1 0 0 0 0];

oriented        oriented;

internalField   nonuniform List<scalar> 
28560
(
-9.92032e-09
9.91497e-09
3.82378e-08
-5.02766e-08
1.4765e-07
-1.09793e-07
3.05989e-07
-1.60926e-07
4.96813e-07
-1.92256e-07
7.03382e-07
-2.09365e-07
9.12887e-07
-2.11454e-07
1.11362e-06
-2.03297e-07
1.29806e-06
-1.86342e-07
1.46032e-06
-1.64306e-07
1.59794e-06
-1.3913e-07
1.71001e-06
-1.13505e-07
1.79795e-06
-8.89458e-08
1.86408e-06
-6.69774e-08
1.91179e-06
-4.82499e-08
1.94455e-06
-3.31483e-08
1.9658e-06
-2.1433e-08
1.97834e-06
-1.2599e-08
1.98421e-06
-5.7746e-09
1.98437e-06
3.54279e-11
1.97876e-06
5.93723e-09
1.96625e-06
1.29808e-08
1.94477e-06
2.2125e-08
1.91146e-06
3.41508e-08
1.86289e-06
4.96626e-08
1.7952e-06
6.90833e-08
1.70423e-06
9.26997e-08
1.58566e-06
1.20702e-07
1.43503e-06
1.53235e-07
1.24771e-06
1.90426e-07
1.019e-06
2.32403e-07
7.44047e-07
2.79287e-07
4.17905e-07
3.31169e-07
3.56047e-08
3.88082e-07
-4.07771e-07
4.49967e-07
-9.16965e-07
5.16645e-07
-1.49641e-06
5.87794e-07
-2.15004e-06
6.62928e-07
-2.88118e-06
7.41386e-07
-3.69227e-06
8.22325e-07
-4.5848e-06
9.04722e-07
-5.55903e-06
9.87377e-07
-6.61389e-06
1.06892e-06
-7.74682e-06
1.14786e-06
-8.95366e-06
1.22254e-06
-1.02285e-05
1.29127e-06
-1.15639e-05
1.35227e-06
-1.29502e-05
1.40375e-06
-1.43765e-05
1.44395e-06
-1.58299e-05
1.47117e-06
-1.7296e-05
1.48378e-06
-1.8759e-05
1.48032e-06
-2.02016e-05
1.45943e-06
-2.16054e-05
1.41999e-06
-2.29513e-05
1.36105e-06
-2.42193e-05
1.28191e-06
-2.53889e-05
1.18212e-06
-2.64395e-05
1.06152e-06
-2.73507e-05
9.20245e-07
-2.81025e-05
7.5877e-07
-2.86757e-05
5.7794e-07
-2.90524e-05
3.78999e-07
-2.92162e-05
1.63617e-07
-2.91529e-05
-6.60732e-08
-2.88509e-05
-3.07457e-07
-2.83017e-05
-5.57421e-07
-2.75003e-05
-8.12357e-07
-2.64457e-05
-1.06818e-06
-2.51415e-05
-1.32035e-06
-2.35961e-05
-1.56399e-06
-2.1823e-05
-1.79394e-06
-1.98411e-05
-2.00489e-06
-1.76742e-05
-2.19157e-06
-1.53514e-05
-2.34893e-06
-1.29065e-05
-2.47233e-06
-1.03768e-05
-2.55778e-06
-7.8032e-06
-2.60216e-06
-5.22835e-06
-2.60341e-06
-2.6958e-06
-2.56071e-06
-2.48528e-07
-2.47463e-06
2.07243e-06
-2.34712e-06
4.22939e-06
-2.18156e-06
6.18934e-06
-1.98265e-06
7.92506e-06
-1.75622e-06
9.416e-06
-1.509e-06
1.06489e-05
-1.24831e-06
1.16179e-05
-9.81726e-07
1.23247e-05
-7.16723e-07
1.27779e-05
-4.60332e-07
1.29923e-05
-2.18833e-07
1.29878e-05
2.49128e-09
1.27887e-05
1.9953e-07
1.24217e-05
3.69447e-07
1.19153e-05
5.10684e-07
1.12981e-05
6.22912e-07
1.05982e-05
7.06892e-07
9.8417e-06
7.64318e-07
9.05258e-06
7.97593e-07
8.25179e-06
8.09637e-07
7.45713e-06
8.03641e-07
6.68315e-06
7.82923e-07
5.94116e-06
7.507e-07
5.23952e-06
7.10043e-07
4.58378e-06
6.63675e-07
3.9772e-06
6.14077e-07
3.42085e-06
5.63253e-07
2.91427e-06
5.13021e-07
2.45543e-06
4.64619e-07
2.04158e-06
4.19267e-07
1.66895e-06
3.77341e-07
1.33405e-06
3.39427e-07
1.03313e-06
3.04627e-07
7.64208e-07
2.7269e-07
5.26263e-07
2.40647e-07
3.21838e-07
2.07486e-07
1.55908e-07
1.67501e-07
3.6863e-08
1.21273e-07
-2.54288e-08
6.27006e-08
-3.15211e-08
7.36994e-09
-3.15699e-08
4.88456e-08
-3.68117e-08
2.21959e-07
-2.23373e-07
5.16074e-07
-4.00014e-07
9.06216e-07
-5.48864e-07
1.36439e-06
-6.457e-07
1.85685e-06
-6.98206e-07
2.35622e-06
-7.06002e-07
2.83643e-06
-6.79614e-07
3.2793e-06
-6.25008e-07
3.67041e-06
-5.52077e-07
4.00232e-06
-4.67855e-07
4.27135e-06
-3.80113e-07
4.47872e-06
-2.94234e-07
4.62803e-06
-2.14812e-07
4.72522e-06
-1.44305e-07
4.77665e-06
-8.3887e-08
4.78865e-06
-3.30195e-08
4.76623e-06
9.93936e-09
4.71265e-06
4.77029e-08
4.62881e-06
8.35391e-08
4.51314e-06
1.21044e-07
4.36156e-06
1.63732e-07
4.16773e-06
2.14823e-07
3.92336e-06
2.77018e-07
3.61862e-06
3.52444e-07
3.24256e-06
4.42645e-07
2.78344e-06
5.48684e-07
2.22901e-06
6.71254e-07
1.56671e-06
8.10808e-07
7.83809e-07
9.67632e-07
-1.32427e-07
1.14188e-06
-1.19462e-06
1.33354e-06
-2.41504e-06
1.54235e-06
-3.80534e-06
1.76773e-06
-5.37618e-06
2.00865e-06
-7.13684e-06
2.26356e-06
-9.09479e-06
2.53031e-06
-1.12552e-05
2.80614e-06
-1.36204e-05
3.08764e-06
-1.61897e-05
3.37079e-06
-1.89585e-05
3.65097e-06
-2.19186e-05
3.92308e-06
-2.50574e-05
4.18162e-06
-2.8358e-05
4.42079e-06
-3.17992e-05
4.63468e-06
-3.53557e-05
4.81737e-06
-3.8998e-05
4.96312e-06
-4.26929e-05
5.06649e-06
-4.64042e-05
5.12251e-06
-5.00927e-05
5.12679e-06
-5.37172e-05
5.07558e-06
-5.72349e-05
4.96589e-06
-6.06022e-05
4.79555e-06
-6.37752e-05
4.56317e-06
-6.67104e-05
4.26822e-06
-6.93653e-05
3.91103e-06
-7.16991e-05
3.49274e-06
-7.36731e-05
3.01535e-06
-7.52512e-05
2.4817e-06
-7.64007e-05
1.89548e-06
-7.70927e-05
1.26127e-06
-7.73024e-05
5.84497e-07
-7.70098e-05
-1.28452e-07
-7.62002e-05
-8.70269e-07
-7.48644e-05
-1.63268e-06
-7.29998e-05
-2.40645e-06
-7.061e-05
-3.18143e-06
-6.77058e-05
-3.94656e-06
-6.43054e-05
-4.69003e-06
-6.04347e-05
-5.39942e-06
-5.61272e-05
-6.06189e-06
-5.14242e-05
-6.66447e-06
-4.63745e-05
-7.1944e-06
-4.10343e-05
-7.63952e-06
-3.54661e-05
-7.98868e-06
-2.97383e-05
-8.23222e-06
-2.3924e-05
-8.36247e-06
-1.80992e-05
-8.37413e-06
-1.23419e-05
-8.26469e-06
-6.73007e-06
-8.03478e-06
-1.33949e-06
-7.68829e-06
3.75783e-06
-7.23249e-06
8.4958e-06
-6.67787e-06
1.28161e-05
-6.03795e-06
1.66698e-05
-5.32877e-06
2.00187e-05
-4.56836e-06
2.28369e-05
-3.7761e-06
2.51105e-05
-2.97188e-06
2.68388e-05
-2.17536e-06
2.80335e-05
-1.40518e-06
2.87177e-05
-6.78216e-07
2.89254e-05
-8.99485e-09
2.86994e-05
5.90829e-07
2.80893e-05
1.11278e-06
2.71498e-05
1.55171e-06
2.59379e-05
1.90577e-06
2.45114e-05
2.1762e-06
2.29262e-05
2.36696e-06
2.12351e-05
2.48427e-06
1.9486e-05
2.53602e-06
1.7721e-05
2.53126e-06
1.59759e-05
2.47955e-06
1.42798e-05
2.39055e-06
1.26551e-05
2.27348e-06
1.11184e-05
2.13698e-06
9.68003e-06
1.98864e-06
8.34596e-06
1.83525e-06
7.11751e-06
1.68211e-06
5.99316e-06
1.53381e-06
4.96853e-06
1.39284e-06
4.03888e-06
1.26117e-06
3.19862e-06
1.13735e-06
2.44515e-06
1.02001e-06
1.77747e-06
9.02205e-07
1.20096e-06
7.79733e-07
7.23786e-07
6.40013e-07
3.60028e-07
4.82991e-07
1.21224e-07
2.98496e-07
8.79955e-09
1.19941e-07
-2.4029e-08
1.05323e-07
-1.41768e-07
3.92356e-07
-5.14279e-07
8.42259e-07
-8.49919e-07
1.41303e-06
-1.12363e-06
2.06945e-06
-1.30409e-06
2.76633e-06
-1.39914e-06
3.46795e-06
-1.41044e-06
4.13906e-06
-1.35441e-06
4.75467e-06
-1.24341e-06
5.29443e-06
-1.09482e-06
5.74698e-06
-9.22644e-07
6.10594e-06
-7.4118e-07
6.37128e-06
-5.61101e-07
6.5462e-06
-3.9102e-07
6.63691e-06
-2.35874e-07
6.65022e-06
-9.7829e-08
6.59278e-06
2.4091e-08
6.46937e-06
1.33189e-07
6.28233e-06
2.34801e-07
6.03063e-06
3.35459e-07
5.70977e-06
4.42327e-07
5.31164e-06
5.6247e-07
4.82495e-06
7.0237e-07
4.23561e-06
8.6751e-07
3.52734e-06
1.06222e-06
2.68227e-06
1.28964e-06
1.68148e-06
1.5519e-06
5.0547e-07
1.85027e-06
-8.65435e-07
2.18539e-06
-2.45072e-06
2.55734e-06
-4.26929e-06
2.96572e-06
-6.33904e-06
3.40951e-06
-8.67636e-06
3.8869e-06
-1.12955e-05
4.39519e-06
-1.42078e-05
4.9305e-06
-1.74211e-05
5.4877e-06
-2.0939e-05
6.06035e-06
-2.47599e-05
6.64065e-06
-2.88768e-05
7.21954e-06
-3.32764e-05
7.78684e-06
-3.7939e-05
8.33146e-06
-4.28383e-05
8.84169e-06
-4.79415e-05
9.30553e-06
-5.32098e-05
9.71099e-06
-5.85985e-05
1.00465e-05
-6.40584e-05
1.03013e-05
-6.9536e-05
1.04656e-05
-7.49752e-05
1.05312e-05
-8.03179e-05
1.0491e-05
-8.55052e-05
1.034e-05
-9.04786e-05
1.00747e-05
-9.51809e-05
9.69343e-06
-9.9557e-05
9.19607e-06
-0.000103555
8.58413e-06
-0.000107125
7.86057e-06
-0.000110224
7.02969e-06
-0.00011281
6.09697e-06
-0.000114848
5.06908e-06
-0.000116308
3.95372e-06
-0.000117162
2.75962e-06
-0.000117391
1.49655e-06
-0.000116979
1.75308e-07
-0.000115916
-1.19223e-06
-0.000114198
-2.59309e-06
-0.000111827
-4.01313e-06
-0.000108809
-5.43704e-06
-0.000105159
-6.84833e-06
-0.000100897
-8.22942e-06
-9.60495e-05
-9.56171e-06
-9.06514e-05
-1.08258e-05
-8.47431e-05
-1.20017e-05
-7.83729e-05
-1.30693e-05
-7.15958e-05
-1.40088e-05
-6.44737e-05
-1.48011e-05
-5.7075e-05
-1.54286e-05
-4.94739e-05
-1.58757e-05
-4.17495e-05
-1.61297e-05
-3.39851e-05
-1.61814e-05
-2.62663e-05
-1.60257e-05
-1.86801e-05
-1.56619e-05
-1.13129e-05
-1.50946e-05
-4.24877e-06
-1.43333e-05
2.43237e-06
-1.33928e-05
8.65678e-06
-1.22929e-05
1.43586e-05
-1.10574e-05
1.94817e-05
-9.71436e-06
2.3981e-05
-8.29419e-06
2.78237e-05
-6.82929e-06
3.09904e-05
-5.35267e-06
3.34754e-05
-3.89687e-06
3.52869e-05
-2.49274e-06
3.64468e-05
-1.16843e-06
3.69894e-05
5.16331e-08
3.69608e-05
1.1475e-06
3.64165e-05
2.10433e-06
3.54196e-05
2.91271e-06
3.40385e-05
3.56874e-06
3.23439e-05
4.07385e-06
3.04068e-05
4.43429e-06
2.82955e-05
4.66043e-06
2.6074e-05
4.76591e-06
2.37997e-05
4.76661e-06
2.15228e-05
4.67972e-06
1.92853e-05
4.5227e-06
1.71206e-05
4.31267e-06
1.5054e-05
4.06546e-06
1.31031e-05
3.79559e-06
1.12786e-05
3.51516e-06
9.5858e-06
3.23453e-06
8.02512e-06
2.96046e-06
6.59517e-06
2.69775e-06
5.29228e-06
2.44567e-06
4.11576e-06
2.20205e-06
3.06548e-06
1.95639e-06
2.14922e-06
1.70054e-06
1.37577e-06
1.41554e-06
7.6362e-07
1.09882e-06
3.24745e-07
7.37146e-07
7.35487e-08
3.74302e-07
4.8876e-08
1.54171e-07
-2.93359e-07
5.38406e-07
-9.00729e-07
1.1143e-06
-1.42181e-06
1.82221e-06
-1.83158e-06
2.62061e-06
-2.09913e-06
3.45598e-06
-2.2332e-06
4.28786e-06
-2.23935e-06
5.07522e-06
-2.13999e-06
5.78911e-06
-1.95483e-06
6.40525e-06
-1.70927e-06
6.90952e-06
-1.42507e-06
7.2932e-06
-1.12357e-06
7.55458e-06
-8.21243e-07
7.69538e-06
-5.30996e-07
7.72054e-06
-2.60344e-07
7.63545e-06
-1.23173e-08
7.445e-06
2.14825e-07
7.15172e-06
4.26559e-07
6.75501e-06
6.31492e-07
6.25014e-06
8.40152e-07
5.62815e-06
1.06401e-06
4.87577e-06
1.31438e-06
3.9759e-06
1.6016e-06
2.90817e-06
1.93437e-06
1.64978e-06
2.31949e-06
1.76209e-07
2.76178e-06
-1.53796e-06
3.26428e-06
-3.51835e-06
3.82845e-06
-5.7901e-06
4.45444e-06
-8.37717e-06
5.14117e-06
-1.13016e-05
5.88629e-06
-1.45826e-05
6.68602e-06
-1.82359e-05
7.53487e-06
-2.22722e-05
8.42542e-06
-2.66967e-05
9.34809e-06
-3.1508e-05
1.0291e-05
-3.66967e-05
1.12403e-05
-4.22456e-05
1.21797e-05
-4.81287e-05
1.30918e-05
-5.43113e-05
1.39575e-05
-6.07501e-05
1.47573e-05
-6.73942e-05
1.54719e-05
-7.4186e-05
1.60824e-05
-8.1062e-05
1.65713e-05
-8.79552e-05
1.69231e-05
-9.47959e-05
1.71247e-05
-0.000101514
1.71657e-05
-0.000108039
1.70386e-05
-0.000114306
1.67389e-05
-0.000120249
1.62648e-05
-0.00012581
1.56173e-05
-0.000130934
1.47997e-05
-0.000135572
1.38174e-05
-0.000139682
1.26776e-05
-0.000143225
1.13889e-05
-0.000146171
9.96094e-06
-0.00014849
8.40461e-06
-0.000150163
6.73151e-06
-0.000151172
4.95402e-06
-0.000151504
3.08532e-06
-0.00015115
1.13935e-06
-0.000150107
-8.69041e-07
-0.000148374
-2.92403e-06
-0.000145955
-5.00867e-06
-0.000142856
-7.10479e-06
-0.000139091
-9.19283e-06
-0.000134675
-1.12519e-05
-0.000129631
-1.32595e-05
-0.000123983
-1.5192e-05
-0.000117764
-1.70245e-05
-0.000111013
-1.87312e-05
-0.000103772
-2.02857e-05
-9.60932e-05
-2.16619e-05
-8.80328e-05
-2.28342e-05
-7.96543e-05
-2.37786e-05
-7.10273e-05
-2.44736e-05
-6.22269e-05
-2.49006e-05
-5.33332e-05
-2.50458e-05
-4.44299e-05
-2.49e-05
-3.56035e-05
-2.44602e-05
-2.69415e-05
-2.37297e-05
-1.85309e-05
-2.27187e-05
-1.04565e-05
-2.1444e-05
-2.79877e-06
-1.99295e-05
4.36726e-06
-1.82049e-05
1.09742e-05
-1.63054e-05
1.69637e-05
-1.42705e-05
2.22876e-05
-1.21428e-05
2.69094e-05
-9.96687e-06
3.08049e-05
-7.78748e-06
3.3963e-05
-5.64852e-06
3.63861e-05
-3.5915e-06
3.80898e-05
-1.65431e-06
3.91033e-05
1.30005e-07
3.94677e-05
1.73424e-06
3.92357e-05
3.13784e-06
3.84691e-05
4.32745e-06
3.72372e-05
5.29717e-06
3.5614e-05
6.04842e-06
3.36758e-05
6.58942e-06
3.14981e-05
6.9344e-06
2.91533e-05
7.10239e-06
2.67083e-05
7.11602e-06
2.42227e-05
6.99993e-06
2.17479e-05
6.77969e-06
1.93259e-05
6.48018e-06
1.69898e-05
6.12505e-06
1.47636e-05
5.73505e-06
1.26644e-05
5.32831e-06
1.07016e-05
4.91793e-06
8.88159e-06
4.51344e-06
7.2061e-06
4.11668e-06
5.67905e-06
3.72598e-06
4.30266e-06
3.32889e-06
3.08774e-06
2.91376e-06
2.04321e-06
2.45648e-06
1.19237e-06
1.9499e-06
5.49076e-07
1.37655e-06
1.47259e-07
7.78741e-07
1.9373e-07
1.86962e-07
-4.78831e-07
6.44156e-07
-1.36273e-06
1.31592e-06
-2.09149e-06
2.12541e-06
-2.6445e-06
3.02344e-06
-2.99706e-06
3.94841e-06
-3.16082e-06
4.85589e-06
-3.14767e-06
5.70057e-06
-2.98681e-06
6.45109e-06
-2.70646e-06
7.08062e-06
-2.34044e-06
7.57341e-06
-1.91886e-06
7.91895e-06
-1.47025e-06
8.11396e-06
-1.01699e-06
8.15835e-06
-5.761e-07
8.05496e-06
-1.57386e-07
7.80652e-06
2.35746e-07
7.41478e-06
6.06391e-07
6.87833e-06
9.629e-07
6.19199e-06
1.31787e-06
5.34572e-06
1.68653e-06
4.3247e-06
2.08527e-06
3.10932e-06
2.5301e-06
1.67593e-06
3.03548e-06
-2.41902e-09
3.61336e-06
-1.9549e-06
4.27281e-06
-4.2119e-06
5.01985e-06
-6.80395e-06
5.85765e-06
-9.76065e-06
6.7868e-06
-1.31097e-05
7.80546e-06
-1.68756e-05
8.90947e-06
-2.10786e-05
1.00922e-05
-2.57334e-05
1.13442e-05
-3.08476e-05
1.2653e-05
-3.64208e-05
1.40031e-05
-4.2443e-05
1.53755e-05
-4.88942e-05
1.6748e-05
-5.57434e-05
1.8096e-05
-6.29489e-05
1.93926e-05
-7.04588e-05
2.06097e-05
-7.82118e-05
2.17192e-05
-8.61388e-05
2.26939e-05
-9.41649e-05
2.35082e-05
-0.000102212
2.41398e-05
-0.000110199
2.45698e-05
-0.000118047
2.47834e-05
-0.00012568
2.47704e-05
-0.000133027
2.45249e-05
-0.00014002
2.40453e-05
-0.000146602
2.33336e-05
-0.000152719
2.23953e-05
-0.000158328
2.12384e-05
-0.000163389
1.98732e-05
-0.000167871
1.83116e-05
-0.000171748
1.65664e-05
-0.000175001
1.46516e-05
-0.000177612
1.25813e-05
-0.000179569
1.037e-05
-0.000180863
8.03262e-06
-0.000181488
5.58423e-06
-0.000181439
3.04032e-06
-0.000180714
4.16889e-07
-0.000179313
-2.26929e-06
-0.000177238
-5.00048e-06
-0.000174493
-7.75768e-06
-0.000171082
-1.05204e-05
-0.000167016
-1.32666e-05
-0.000162305
-1.59721e-05
-0.000156964
-1.8611e-05
-0.000151013
-2.11554e-05
-0.000144477
-2.35757e-05
-0.000137383
-2.58404e-05
-0.000129769
-2.79175e-05
-0.000121675
-2.97741e-05
-0.000113151
-3.13778e-05
-0.000104252
-3.26975e-05
-9.50412e-05
-3.37046e-05
-8.55886e-05
-3.4374e-05
-7.59698e-05
-3.46853e-05
-6.62659e-05
-3.46243e-05
-5.6562e-05
-3.41838e-05
-4.69461e-05
-3.33644e-05
-3.75071e-05
-3.21754e-05
-2.83328e-05
-3.06346e-05
-1.95088e-05
-2.87683e-05
-1.11159e-05
-2.66109e-05
-3.22901e-06
-2.42035e-05
4.08468e-06
-2.15935e-05
1.07669e-05
-1.88324e-05
1.67691e-05
-1.59746e-05
2.20537e-05
-1.30757e-05
2.65944e-05
-1.01911e-05
3.03769e-05
-7.37415e-06
3.33991e-05
-4.67518e-06
3.56715e-05
-2.13971e-06
3.7217e-05
1.9254e-07
3.80707e-05
2.28881e-06
3.82794e-05
4.12425e-06
3.78999e-05
5.68261e-06
3.6998e-05
6.95664e-06
3.56458e-05
7.94806e-06
3.39196e-05
8.66714e-06
3.18966e-05
9.13172e-06
2.96529e-05
9.36601e-06
2.72599e-05
9.39883e-06
2.47831e-05
9.26209e-06
2.22798e-05
8.98865e-06
1.97987e-05
8.6111e-06
1.73786e-05
8.15949e-06
1.50503e-05
7.66083e-06
1.28354e-05
7.13625e-06
1.07508e-05
6.60167e-06
8.80645e-06
6.06355e-06
7.01339e-06
5.52229e-06
5.37821e-06
4.96547e-06
3.9166e-06
4.37856e-06
2.6395e-06
3.73341e-06
1.57732e-06
3.01581e-06
7.49109e-07
2.20209e-06
2.10907e-07
1.32219e-06
4.02646e-07
2.11119e-07
-6.87023e-07
7.22015e-07
-1.87753e-06
1.46242e-06
-2.82763e-06
2.34058e-06
-3.52422e-06
3.29917e-06
-3.9529e-06
4.26916e-06
-4.13095e-06
5.20256e-06
-4.07908e-06
6.05082e-06
-3.83457e-06
6.78111e-06
-3.43527e-06
7.36517e-06
-2.92384e-06
7.78632e-06
-2.33896e-06
8.03281e-06
-1.71616e-06
8.09989e-06
-1.08338e-06
7.98531e-06
-4.61122e-07
7.6891e-06
1.39229e-07
7.21031e-06
7.14748e-07
6.54613e-06
1.27075e-06
5.68976e-06
1.81931e-06
4.62987e-06
2.37776e-06
3.34971e-06
2.96658e-06
1.8274e-06
3.60742e-06
3.61959e-08
4.32104e-06
-2.0544e-06
5.12572e-06
-4.47762e-06
6.03609e-06
-7.26798e-06
7.06254e-06
-1.04599e-05
8.21101e-06
-1.40864e-05
9.48317e-06
-1.81775e-05
1.08766e-05
-2.27584e-05
1.23849e-05
-2.78486e-05
1.39979e-05
-3.34595e-05
1.5701e-05
-3.95932e-05
1.74754e-05
-4.62408e-05
1.92977e-05
-5.33813e-05
2.11403e-05
-6.09809e-05
2.29713e-05
-6.89929e-05
2.47558e-05
-7.73584e-05
2.64567e-05
-8.60075e-05
2.80363e-05
-9.48614e-05
2.94577e-05
-0.000103835
3.06864e-05
-0.00011284
3.16918e-05
-0.000121787
3.2448e-05
-0.00013059
3.2935e-05
-0.000139168
3.31389e-05
-0.000147445
3.30518e-05
-0.000155355
3.26718e-05
-0.000162841
3.20018e-05
-0.000169854
3.10492e-05
-0.000176355
2.98249e-05
-0.000182311
2.83421e-05
-0.000187698
2.66159e-05
-0.000192496
2.46628e-05
-0.000196692
2.24992e-05
-0.000200275
2.0142e-05
-0.000203238
1.76079e-05
-0.000205576
1.49131e-05
-0.000207285
1.20735e-05
-0.000208362
9.10492e-06
-0.000208804
6.02283e-06
-0.000208609
2.843e-06
-0.000207774
-4.18377e-07
-0.000206299
-3.74433e-06
-0.000204181
-7.11675e-06
-0.00020142
-1.0516e-05
-0.000198015
-1.39206e-05
-0.000193969
-1.7307e-05
-0.000189286
-2.06489e-05
-0.000183971
-2.39177e-05
-0.000178035
-2.70821e-05
-0.000171492
-3.01079e-05
-0.000164362
-3.2959e-05
-0.000156669
-3.55971e-05
-0.000148447
-3.79828e-05
-0.000139735
-4.00763e-05
-0.00013058
-4.18386e-05
-0.000121037
-4.3233e-05
-0.00011117
-4.42261e-05
-0.00010105
-4.479e-05
-9.0757e-05
-4.49031e-05
-8.03743e-05
-4.45525e-05
-6.99912e-05
-4.37342e-05
-5.96994e-05
-4.24547e-05
-4.95913e-05
-4.07312e-05
-3.97577e-05
-3.85914e-05
-3.0286e-05
-3.60732e-05
-2.12582e-05
-3.32233e-05
-1.2749e-05
-3.00961e-05
-4.82449e-06
-2.67515e-05
2.45847e-06
-2.32535e-05
9.05321e-06
-1.96677e-05
1.49235e-05
-1.60598e-05
2.00436e-05
-1.2494e-05
2.43989e-05
-9.03117e-06
2.79852e-05
-5.72778e-06
3.08099e-05
-2.63463e-06
3.28912e-05
2.04289e-07
3.42589e-05
2.75285e-06
3.49536e-05
4.98376e-06
3.50266e-05
6.87934e-06
3.45381e-05
8.43201e-06
3.35562e-05
9.64446e-06
3.21542e-05
1.05292e-05
3.04083e-05
1.11075e-05
2.83944e-05
1.14085e-05
2.6186e-05
1.14665e-05
2.3851e-05
1.13198e-05
2.1451e-05
1.10078e-05
1.90382e-05
1.05689e-05
1.66573e-05
1.00389e-05
1.43431e-05
9.44759e-06
1.21244e-05
8.81826e-06
1.00217e-05
8.16368e-06
8.05491e-06
7.48787e-06
6.23735e-06
6.78036e-06
4.59139e-06
6.02459e-06
3.13214e-06
5.1894e-06
1.89856e-06
4.25148e-06
9.16949e-07
3.17868e-06
2.64269e-07
1.97996e-06
6.6349e-07
2.2684e-07
-9.11607e-07
7.73889e-07
-2.42994e-06
1.5586e-06
-3.60905e-06
2.47618e-06
-4.4451e-06
3.46105e-06
-4.93659e-06
4.43706e-06
-5.10905e-06
5.35261e-06
-4.99447e-06
6.15646e-06
-4.63985e-06
6.81485e-06
-4.09393e-06
7.29877e-06
-3.40877e-06
7.59121e-06
-2.63177e-06
7.67953e-06
-1.80516e-06
7.55762e-06
-9.61779e-07
7.22078e-06
-1.24712e-07
6.66565e-06
6.94157e-07
5.88665e-06
1.49353e-06
4.87529e-06
2.28203e-06
3.61809e-06
3.07644e-06
2.09635e-06
3.89952e-06
2.85563e-07
4.77743e-06
-1.84391e-06
5.73702e-06
-4.32602e-06
6.80334e-06
-7.19761e-06
7.99758e-06
-1.04968e-05
9.33563e-06
-1.42611e-05
1.08274e-05
-1.85259e-05
1.24763e-05
-2.33219e-05
1.428e-05
-2.8674e-05
1.62296e-05
-3.45985e-05
1.83106e-05
-4.11018e-05
2.05025e-05
-4.8178e-05
2.27788e-05
-5.58076e-05
2.51068e-05
-6.39564e-05
2.74487e-05
-7.25753e-05
2.97617e-05
-8.16009e-05
3.19997e-05
-9.09568e-05
3.41149e-05
-0.000100556
3.60599e-05
-0.000110306
3.77899e-05
-0.000120109
3.92644e-05
-0.000129867
4.04493e-05
-0.000139487
4.13175e-05
-0.000148884
4.185e-05
-0.000157979
4.20359e-05
-0.000166706
4.18715e-05
-0.000175008
4.13602e-05
-0.000182841
4.05105e-05
-0.000190168
3.93355e-05
-0.000196963
3.78515e-05
-0.000203209
3.60767e-05
-0.000208891
3.40305e-05
-0.000214001
3.17328e-05
-0.000218536
2.92029e-05
-0.00022249
2.64598e-05
-0.000225865
2.35215e-05
-0.000228657
2.04053e-05
-0.000230867
1.71272e-05
-0.000232493
1.37028e-05
-0.000233533
1.01472e-05
-0.000233983
6.47492e-06
-0.00023384
2.70093e-06
-0.000233098
-1.15943e-06
-0.000231753
-5.08991e-06
-0.000229799
-9.07286e-06
-0.000227228
-1.30889e-05
-0.000224036
-1.71162e-05
-0.000220217
-2.11306e-05
-0.000215766
-2.51047e-05
-0.000210682
-2.90078e-05
-0.000204966
-3.28059e-05
-0.00019862
-3.64613e-05
-0.000191654
-3.99332e-05
-0.000184083
-4.31777e-05
-0.000175926
-4.61488e-05
-0.000167213
-4.87991e-05
-0.000157981
-5.1081e-05
-0.000148276
-5.29485e-05
-0.000138154
-5.43587e-05
-0.000127681
-5.52737e-05
-0.000116931
-5.56628e-05
-0.000105989
-5.55044e-05
-9.49449e-05
-5.47875e-05
-8.3895e-05
-5.35135e-05
-7.29378e-05
-5.16964e-05
-6.21727e-05
-4.93639e-05
-5.16962e-05
-4.65562e-05
-4.16003e-05
-4.33249e-05
-3.19695e-05
-3.97316e-05
-2.28795e-05
-3.58454e-05
-1.43955e-05
-3.17404e-05
-6.57191e-06
-2.74932e-05
5.47853e-07
-2.31807e-05
6.9313e-06
-1.88777e-05
1.25563e-05
-1.46556e-05
1.74106e-05
-1.05809e-05
2.14915e-05
-6.71385e-06
2.48061e-05
-3.10807e-06
2.73709e-05
1.90677e-07
2.92122e-05
3.14523e-06
3.03667e-05
5.72793e-06
3.08805e-05
7.92141e-06
3.0809e-05
9.71918e-06
3.02155e-05
1.11258e-05
2.91696e-05
1.21566e-05
2.77444e-05
1.28367e-05
2.60143e-05
1.31994e-05
2.40522e-05
1.32845e-05
2.1927e-05
1.31355e-05
1.97014e-05
1.27967e-05
1.74314e-05
1.23113e-05
1.51636e-05
1.17169e-05
1.29393e-05
1.10448e-05
1.07894e-05
1.03145e-05
8.7446e-06
9.53483e-06
6.82633e-06
8.69865e-06
5.06545e-06
7.78812e-06
3.48349e-06
6.76983e-06
2.129e-06
5.61e-06
1.03677e-06
4.2665e-06
3.01465e-07
2.72202e-06
9.61854e-07
2.38232e-07
-1.14679e-06
8.07971e-07
-3.00449e-06
1.61561e-06
-4.41227e-06
2.54502e-06
-5.37689e-06
3.52277e-06
-5.91185e-06
4.46639e-06
-6.05355e-06
5.32105e-06
-5.8476e-06
6.03351e-06
-5.35246e-06
6.56961e-06
-4.62903e-06
6.90019e-06
-3.7392e-06
7.00824e-06
-2.73915e-06
6.88042e-06
-1.67714e-06
6.50908e-06
-5.90009e-07
5.88667e-06
4.97857e-07
5.00564e-06
1.57543e-06
3.85483e-06
2.64443e-06
2.41893e-06
3.71805e-06
6.76726e-07
4.81866e-06
-1.39874e-06
5.975e-06
-3.84022e-06
7.21885e-06
-6.68495e-06
8.58166e-06
-9.97324e-06
1.00915e-05
-1.37464e-05
1.17705e-05
-1.80447e-05
1.36336e-05
-2.29046e-05
1.5687e-05
-2.83572e-05
1.79284e-05
-3.4425e-05
2.03472e-05
-4.112e-05
2.2924e-05
-4.84417e-05
2.56315e-05
-5.63746e-05
2.84344e-05
-6.48868e-05
3.12899e-05
-7.393e-05
3.41486e-05
-8.34389e-05
3.6956e-05
-9.33334e-05
3.96544e-05
-0.000103521
4.21853e-05
-0.000113901
4.44924e-05
-0.000124368
4.65239e-05
-0.000134816
4.82352e-05
-0.000145145
4.95904e-05
-0.000155262
5.05634e-05
-0.000165086
5.1138e-05
-0.000174548
5.13076e-05
-0.00018359
5.10742e-05
-0.00019217
5.04466e-05
-0.000200253
4.94395e-05
-0.000207819
4.80714e-05
-0.000214851
4.63634e-05
-0.000221342
4.43381e-05
-0.000227288
4.20183e-05
-0.000232689
3.94265e-05
-0.000237545
3.65844e-05
-0.000241858
3.35124e-05
-0.000245632
3.02297e-05
-0.000248868
2.67539e-05
-0.000251567
2.31014e-05
-0.00025373
1.92873e-05
-0.000255355
1.53261e-05
-0.000256441
1.12313e-05
-0.000256983
7.01628e-06
-0.000256977
2.69459e-06
-0.000256417
-1.71983e-06
-0.000255294
-6.21199e-06
-0.0002536
-1.07655e-05
-0.000251325
-1.53618e-05
-0.000248458
-1.99801e-05
-0.000244989
-2.45964e-05
-0.000240906
-2.91834e-05
-0.0002362
-3.37096e-05
-0.000230861
-3.81396e-05
-0.000224883
-4.24335e-05
-0.000218263
-4.6547e-05
-0.000211003
-5.04317e-05
-0.000203109
-5.40357e-05
-0.000194596
-5.73043e-05
-0.000185489
-6.01813e-05
-0.000175819
-6.26107e-05
-0.000165631
-6.45386e-05
-0.000154982
-6.59154e-05
-0.000143939
-6.66985e-05
-0.000132582
-6.68544e-05
-0.000121001
-6.63617e-05
-0.000109296
-6.52127e-05
-9.75716e-05
-6.3415e-05
-8.59377e-05
-6.09926e-05
-7.45036e-05
-5.79855e-05
-6.33757e-05
-5.44488e-05
-5.26534e-05
-5.04505e-05
-4.24268e-05
-4.60693e-05
-3.27742e-05
-4.13909e-05
-2.3761e-05
-3.65049e-05
-1.54395e-05
-3.15014e-05
-7.84877e-06
-2.64682e-05
-1.01618e-06
-2.14885e-05
5.04176e-06
-1.66396e-05
1.0318e-05
-1.19912e-05
1.48141e-05
-7.60566e-06
1.85397e-05
-3.53664e-06
2.15123e-05
1.70665e-07
2.37578e-05
3.4804e-06
2.53104e-05
6.36663e-06
2.62132e-05
8.81415e-06
2.65178e-05
1.0819e-05
2.62835e-05
1.23887e-05
2.55759e-05
1.35421e-05
2.44651e-05
1.43083e-05
2.30227e-05
1.47249e-05
2.13204e-05
1.48361e-05
1.94261e-05
1.46893e-05
1.74037e-05
1.43323e-05
1.53094e-05
1.38096e-05
1.31948e-05
1.31586e-05
1.11015e-05
1.24061e-05
9.07046e-06
1.15657e-05
7.13256e-06
1.06345e-05
5.32796e-06
9.59377e-06
3.6861e-06
8.40854e-06
2.26513e-06
7.03412e-06
1.10839e-06
5.41757e-06
3.23736e-07
3.51319e-06
1.28166e-06
2.45267e-07
-1.38942e-06
8.25385e-07
-3.59015e-06
1.63604e-06
-5.21905e-06
2.55092e-06
-6.29498e-06
3.48931e-06
-6.84854e-06
4.36334e-06
-6.9294e-06
5.11545e-06
-6.59907e-06
5.69111e-06
-5.92922e-06
6.05622e-06
-4.99401e-06
6.18192e-06
-3.8656e-06
6.05139e-06
-2.60868e-06
5.65057e-06
-1.27675e-06
4.96989e-06
9.05666e-08
3.99838e-06
1.4691e-06
2.72347e-06
2.85027e-06
1.12748e-06
4.24029e-06
-8.12593e-07
5.65808e-06
-3.12637e-06
7.13239e-06
-5.84931e-06
8.69796e-06
-9.02196e-06
1.03915e-05
-1.26879e-05
1.22477e-05
-1.68914e-05
1.42952e-05
-2.1675e-05
1.65543e-05
-2.70763e-05
1.90351e-05
-3.31253e-05
2.17362e-05
-3.98416e-05
2.46451e-05
-4.72318e-05
2.77378e-05
-5.52869e-05
3.09797e-05
-6.39809e-05
3.4326e-05
-7.32687e-05
3.7723e-05
-8.30872e-05
4.11092e-05
-9.33553e-05
4.44177e-05
-0.000103977
4.75793e-05
-0.000114847
5.05253e-05
-0.000125851
5.31911e-05
-0.000136877
5.55197e-05
-0.000147815
5.74636e-05
-0.000158564
5.89869e-05
-0.000169038
6.0066e-05
-0.00017916
6.06885e-05
-0.000188873
6.08532e-05
-0.00019813
6.05676e-05
-0.0002069
5.98464e-05
-0.00021516
5.87096e-05
-0.000222897
5.71806e-05
-0.000230108
5.52847e-05
-0.000236789
5.3048e-05
-0.000242944
5.04964e-05
-0.000248578
4.76546e-05
-0.000253694
4.45463e-05
-0.000258301
4.11934e-05
-0.000262402
3.76161e-05
-0.000266003
3.3833e-05
-0.000269107
2.98609e-05
-0.000271719
2.57152e-05
-0.00027384
2.141e-05
-0.000275471
1.69582e-05
-0.000276611
1.2372e-05
-0.000277258
7.66325e-06
-0.000277407
2.84375e-06
-0.000277053
-2.07432e-06
-0.000276188
-7.0779e-06
-0.000274802
-1.21525e-05
-0.000272884
-1.72816e-05
-0.00027042
-2.24461e-05
-0.000267396
-2.76239e-05
-0.000263794
-3.27888e-05
-0.000259596
-3.79105e-05
-0.000254786
-4.29539e-05
-0.000249346
-4.78783e-05
-0.000243259
-5.26381e-05
-0.000236514
-5.71818e-05
-0.000229102
-6.14532e-05
-0.00022102
-6.53913e-05
-0.000212274
-6.89322e-05
-0.000202881
-7.20098e-05
-0.000192866
-7.45587e-05
-0.000182271
-7.65159e-05
-0.00017115
-7.78243e-05
-0.000159574
-7.84356e-05
-0.000147628
-7.83132e-05
-0.000135409
-7.74358e-05
-0.000123029
-7.57993e-05
-0.000110606
-7.3419e-05
-9.82647e-05
-7.03301e-05
-8.61291e-05
-6.65872e-05
-7.43191e-05
-6.22628e-05
-6.29463e-05
-5.74441e-05
-5.21095e-05
-5.22292e-05
-4.18927e-05
-4.67227e-05
-3.23633e-05
-4.10314e-05
-2.35717e-05
-3.52599e-05
-1.55529e-05
-2.95072e-05
-8.32765e-06
-2.38643e-05
-1.90496e-06
-1.84131e-05
3.71571e-06
-1.32253e-05
8.54282e-06
-8.36253e-06
1.25915e-05
-3.87667e-06
1.58833e-05
1.9012e-07
1.84459e-05
3.80552e-06
2.03142e-05
6.94746e-06
2.153e-05
9.60468e-06
2.2143e-05
1.17773e-05
2.22095e-05
1.34771e-05
2.17922e-05
1.4727e-05
2.09579e-05
1.55605e-05
1.97762e-05
1.60192e-05
1.83158e-05
1.61506e-05
1.66449e-05
1.60046e-05
1.48254e-05
1.56297e-05
1.29171e-05
1.50682e-05
1.09704e-05
1.43529e-05
9.03607e-06
1.35017e-05
7.15416e-06
1.25157e-05
5.37436e-06
1.13759e-05
3.73482e-06
1.00459e-05
2.30255e-06
8.47047e-06
1.12884e-06
6.58614e-06
3.29658e-07
4.3196e-06
1.60776e-06
2.49188e-07
-1.6356e-06
8.28346e-07
-4.17447e-06
1.62247e-06
-6.0088e-06
2.49613e-06
-7.17133e-06
3.36216e-06
-7.71226e-06
4.12848e-06
-7.6969e-06
4.73566e-06
-7.20497e-06
5.12883e-06
-6.32283e-06
5.27447e-06
-5.13889e-06
5.14441e-06
-3.73564e-06
4.72198e-06
-2.18579e-06
3.99215e-06
-5.46904e-07
2.94287e-06
1.14012e-06
1.55896e-06
2.85307e-06
-1.78085e-07
4.58747e-06
-2.29327e-06
6.35551e-06
-4.81788e-06
8.18276e-06
-7.79001e-06
1.01045e-05
-1.1253e-05
1.21609e-05
-1.52535e-05
1.4392e-05
-1.98387e-05
1.68328e-05
-2.50531e-05
1.95095e-05
-3.09352e-05
2.24363e-05
-3.75137e-05
2.56134e-05
-4.48048e-05
2.90271e-05
-5.28088e-05
3.26489e-05
-6.15082e-05
3.64368e-05
-7.08654e-05
4.03365e-05
-8.08224e-05
4.42826e-05
-9.13012e-05
4.82013e-05
-0.000102206
5.20134e-05
-0.000113427
5.56383e-05
-0.000124847
5.89976e-05
-0.000136342
6.20198e-05
-0.000147795
6.46434e-05
-0.000159097
6.68197e-05
-0.000170148
6.85138e-05
-0.000180868
6.9705e-05
-0.000191189
7.03859e-05
-0.000201063
7.05603e-05
-0.000210453
7.02412e-05
-0.000219335
6.94486e-05
-0.000227698
6.82072e-05
-0.000235536
6.65448e-05
-0.000242847
6.44903e-05
-0.000249638
6.20729e-05
-0.000255913
5.93212e-05
-0.000261681
5.62624e-05
-0.000266951
5.29223e-05
-0.000271732
4.93248e-05
-0.000276032
4.54917e-05
-0.000279861
4.14431e-05
-0.000283226
3.7197e-05
-0.000286136
3.27695e-05
-0.000288597
2.81752e-05
-0.000290616
2.3427e-05
-0.000292195
1.85366e-05
-0.000293338
1.35146e-05
-0.000294046
8.37098e-06
-0.000294317
3.11552e-06
-0.000294149
-2.24194e-06
-0.000293536
-7.6909e-06
-0.000292467
-1.32196e-05
-0.000290933
-1.88145e-05
-0.000288918
-2.44597e-05
-0.000286404
-3.01358e-05
-0.00028337
-3.58198e-05
-0.000279794
-4.14841e-05
-0.000275649
-4.70956e-05
-0.000270909
-5.26157e-05
-0.000265544
-5.79991e-05
-0.000259528
-6.3194e-05
-0.000252836
-6.81418e-05
-0.000245446
-7.27778e-05
-0.000237342
-7.70318e-05
-0.000228519
-8.08291e-05
-0.00021898
-8.40932e-05
-0.000208745
-8.67473e-05
-0.000197847
-8.87185e-05
-0.000186339
-8.99403e-05
-0.000174291
-9.03575e-05
-0.000161794
-8.99294e-05
-0.000148956
-8.8634e-05
-0.000135902
-8.6471e-05
-0.000122766
-8.34637e-05
-0.000109691
-7.96598e-05
-9.68215e-05
-7.51306e-05
-8.42959e-05
-6.99683e-05
-7.22423e-05
-6.42817e-05
-6.07728e-05
-5.81914e-05
-4.99803e-05
-5.18235e-05
-3.99364e-05
-4.53037e-05
-3.06914e-05
-3.87523e-05
-2.22758e-05
-3.22802e-05
-1.47035e-05
-2.5986e-05
-7.97446e-06
-1.99551e-05
-2.07855e-06
-1.42593e-05
3.00189e-06
-8.95805e-06
7.29014e-06
-4.09913e-06