/*--------------------------------*- C++ -*----------------------------------*\
| =========                 |                                                 |
| \\      /  F ield         | OpenFOAM: The Open Source CFD Toolbox           |
|  \\    /   O peration     | Version:  2406                                  |
|   \\  /    A nd           | Website:  www.openfoam.com                      |
|    \\/     M anipulation  |                                                 |
\*---------------------------------------------------------------------------*/
FoamFile
{
    version     2.0;
    format      ascii;
    arch        "LSB;label=32;scalar=64";
    class       volScalarField;
    location    "35.4";
    object      p;
}
// * * * * * * * * * * * * * * * * * * * * * * * * * * * * * * * * * * * * * //

dimensions      [0 2 -2 0 0 0 0];

internalField   nonuniform List<scalar> 
3600
(
0.0391206
0.039147
0.0391325
0.0391083
0.0390394
0.0389597
0.0388535
0.0387431
0.038616
0.03848
0.0383223
0.0381428
0.037931
0.0376849
0.0373976
0.0370675
0.0366918
0.0362724
0.0358135
0.0353254
0.034825
0.0343386
0.0339001
0.0335492
0.0333269
0.033271
0.0334116
0.0337673
0.0343423
0.0351238
0.036079
0.0371539
0.0382732
0.0393433
0.0402584
0.0409117
0.0412086
0.0410829
0.0405101
0.0395168
0.0381787
0.036612
0.0349501
0.0333255
0.0318433
0.0305777
0.0295588
0.0287911
0.0282462
0.0278919
0.0276772
0.0275692
0.027522
0.0275227
0.0275363
0.0275721
0.0275991
0.0276442
0.0276698
0.0277059
0.0390953
0.0391224
0.0391013
0.0390771
0.0390113
0.0389396
0.0388432
0.0387439
0.0386281
0.0385042
0.0383599
0.0381963
0.0380039
0.0377809
0.0375205
0.0372202
0.0368754
0.036486
0.0360543
0.0355895
0.0351059
0.0346243
0.0341725
0.033786
0.0335054
0.0333725
0.0334233
0.0336835
0.034163
0.0348536
0.0357262
0.0367291
0.0377887
0.0388122
0.039694
0.0403266
0.0406138
0.0404876
0.0399219
0.0389431
0.0376282
0.0360965
0.034485
0.032929
0.0315327
0.0303656
0.0294484
0.0287746
0.0283052
0.0280025
0.0278146
0.0277138
0.0276596
0.0276461
0.0276413
0.0276592
0.0276669
0.0276966
0.0277056
0.027742
0.0391049
0.0391401
0.0391167
0.0390905
0.0390203
0.038947
0.0388517
0.0387569
0.0386484
0.0385334
0.038399
0.0382454
0.0380625
0.0378475
0.0375916
0.0372896
0.0369342
0.0365216
0.0360492
0.0355203
0.0349474
0.0343561
0.0337843
0.0332783
0.0328874
0.0326581
0.0326289
0.0328263
0.0332605
0.0339232
0.0347852
0.0357945
0.0368774
0.0379406
0.0388769
0.0395759
0.0399361
0.0398827
0.039381
0.0384502
0.0371625
0.0356376
0.0340186
0.0324508
0.0310503
0.0298959
0.029013
0.0283945
0.027995
0.0277679
0.0276516
0.0276112
0.027602
0.0276195
0.0276328
0.0276615
0.0276718
0.0277054
0.0277125
0.027763
0.039122
0.0391592
0.0391299
0.039098
0.0390232
0.0389502
0.0388609
0.0387768
0.0386828
0.0385839
0.0384664
0.0383282
0.0381576
0.0379473
0.0376836
0.0373538
0.0369426
0.0364388
0.0358387
0.0351523
0.0344032
0.0336276
0.0328713
0.0321858
0.031624
0.0312349
0.0310586
0.0311228
0.0314394
0.0320021
0.0327851
0.0337412
0.0348023
0.0358806
0.0368736
0.0376717
0.0381704
0.038286
0.0379705
0.0372267
0.0361119
0.0347348
0.0332346
0.03176
0.0304349
0.0293478
0.0285318
0.0279845
0.0276608
0.027512
0.0274707
0.0274972
0.0275415
0.0275983
0.0276356
0.0276781
0.0276913
0.0277264
0.0277283
0.0277872
0.0391815
0.0392165
0.0391793
0.0391364
0.0390529
0.0389743
0.038886
0.0388065
0.0387206
0.0386282
0.0385136
0.0383683
0.0381749
0.0379162
0.0375683
0.0371083
0.0365173
0.0357886
0.0349303
0.0339665
0.0329361
0.0318885
0.0308799
0.0299673
0.0292046
0.0286389
0.0283075
0.0282356
0.0284345
0.0288996
0.0296093
0.0305232
0.0315824
0.0327091
0.0338098
0.0347808
0.0355172
0.0359263
0.0359423
0.0355426
0.0347562
0.0336667
0.032397
0.031091
0.029879
0.0288626
0.0280906
0.0275749
0.0272815
0.0271692
0.0271728
0.0272512
0.0273485
0.0274546
0.0275324
0.027606
0.0276397
0.0276888
0.027696
0.0277616
0.0392671
0.0392923
0.0392447
0.0391867
0.0390952
0.0390116
0.0389263
0.0388508
0.0387697
0.0386746
0.038545
0.0383607
0.038093
0.0377099
0.0371786
0.0364743
0.0355869
0.0345244
0.0333143
0.0319986
0.0306305
0.0292679
0.0279704
0.0267947
0.025793
0.0250089
0.024477
0.02422
0.024249
0.0245614
0.0251412
0.025957
0.0269627
0.0280957
0.0292792
0.0304235
0.0314327
0.0322125
0.032683
0.0327937
0.0325355
0.0319499
0.0311238
0.0301778
0.0292357
0.0284066
0.0277553
0.0273118
0.0270589
0.02697
0.0269907
0.0270875
0.0272068
0.0273376
0.0274399
0.0275344
0.0275838
0.0276415
0.0276528
0.0277162
0.0394017
0.0394099
0.0393505
0.0392728
0.0391715
0.0390772
0.0389875
0.038902
0.0388044
0.0386727
0.0384772
0.0381791
0.0377363
0.0371056
0.0362564
0.0351752
0.0338732
0.0323814
0.0307486
0.0290329
0.0272987
0.0256096
0.024027
0.0226047
0.0213892
0.0204166
0.0197143
0.0192988
0.0191775
0.0193471
0.0197952
0.0204982
0.0214228
0.0225235
0.0237441
0.025017
0.0262654
0.0274068
0.0283605
0.0290575
0.0294522
0.0295354
0.0293387
0.028935
0.0284198
0.027896
0.0274419
0.0271108
0.0269114
0.0268396
0.026859
0.0269493
0.0270658
0.0272002
0.0273129
0.0274199
0.0274832
0.0275487
0.0275669
0.027624
0.0395802
0.0395636
0.0394928
0.0393932
0.0392833
0.0391743
0.0390726
0.038959
0.0388146
0.0385965
0.0382619
0.0377518
0.0370173
0.0360159
0.034735
0.0331843
0.0314031
0.0294455
0.0273799
0.0252767
0.0232068
0.0212335
0.0194136
0.0177925
0.0164073
0.0152841
0.0144413
0.0138879
0.0136268
0.0136529
0.0139557
0.0145176
0.0153155
0.0163195
0.0174936
0.0187942
0.020171
0.0215659
0.0229153
0.024153
0.0252168
0.0260575
0.0266481
0.026993
0.0271272
0.0271138
0.0270214
0.026918
0.0268422
0.0268218
0.0268491
0.0269246
0.0270193
0.0271333
0.0272331
0.0273321
0.0273945
0.0274567
0.0274762
0.0275217
0.039813
0.0397641
0.0396833
0.0395579
0.0394359
0.0392995
0.0391646
0.0389861
0.0387392
0.038354
0.0377762
0.0369323
0.0357815
0.0342983
0.0325012
0.0304298
0.0281531
0.0257463
0.0232933
0.0208697
0.0185462
0.0163786
0.0144134
0.012683
0.0112119
0.010014
0.00909798
0.0084652
0.0081135
0.00803524
0.00822021
0.0086539
0.0093199
0.0101985
0.0112686
0.0125062
0.0138854
0.0153757
0.0169421
0.0185418
0.0201241
0.0216308
0.0230005
0.0241772
0.0251194
0.0258143
0.0262774
0.0265585
0.0267131
0.0268055
0.0268697
0.0269392
0.0270091
0.0270925
0.0271665
0.0272446
0.0272957
0.0273474
0.0273646
0.027398
0.0400946
0.040007
0.03992
0.039766
0.0396272
0.0394465
0.0392486
0.0389546
0.0385319
0.0378827
0.0369495
0.0356592
0.0339972
0.0319682
0.029629
0.0270501
0.0243265
0.0215474
0.0188025
0.0161628
0.0136894
0.0114233
0.00939648
0.00762644
0.00612557
0.00489759
0.00394405
0.00326098
0.00284347
0.00268251
0.00276855
0.00308903
0.00363149
0.00438194
0.00532781
0.00645671
0.00775857
0.00922376
0.0108428
0.0126022
0.0144803
0.0164411
0.0184287
0.020366
0.0221579
0.0237091
0.024943
0.0258337
0.0264053
0.026736
0.0269066
0.0270014
0.0270561
0.0271064
0.0271451
0.02719
0.0272176
0.0272494
0.0272581
0.0272795
0.0404137
0.0402825
0.0401912
0.0400017
0.0398323
0.0395776
0.0392699
0.0387903
0.0381008
0.0370814
0.0356879
0.0338649
0.0316392
0.0290528
0.0262021
0.0231831
0.0201081
0.0170683
0.0141478
0.0114029
0.00887836
0.00659727
0.00457653
0.00282052
0.00133246
0.000108878
-0.000852725
-0.00155914
-0.0020161
-0.00223281
-0.00221776
-0.00198212
-0.00153599
-0.000890567
-5.45218e-05
0.000964807
0.00216465
0.00354574
0.00511373
0.00687628
0.00883963
0.011001
0.0133379
0.0157966
0.0182814
0.0206571
0.0227645
0.0244655
0.0256838
0.0264463
0.0268492
0.0270337
0.0271008
0.0271274
0.0271312
0.0271391
0.0271373
0.0271453
0.0271421
0.0271544
0.0407494
0.0405727
0.0404788
0.0402451
0.040026
0.0396595
0.0391843
0.0384399
0.0373903
0.0359073
0.0339788
0.0315822
0.0287945
0.0256948
0.0224134
0.0190597
0.0157503
0.0125647
0.00957113
0.00680456
0.00429153
0.00203812
4.96226e-05
-0.00167883
-0.00314885
-0.00436738
-0.00533773
-0.00606708
-0.00656009
-0.00682499
-0.00686843
-0.00670005
-0.00632793
-0.00576167
-0.00500811
-0.00407305
-0.00295736
-0.0016577
-0.000163812
0.00154047
0.00347631
0.00566519
0.0081193
0.0108283
0.0137383
0.0167367
0.0196432
0.0222365
0.0243083
0.0257507
0.026593
0.0269922
0.0271282
0.0271522
0.0271271
0.0270976
0.0270631
0.0270447
0.0270266
0.0270323
0.0410595
0.0408362
0.0407365
0.040443
0.0401442
0.0396173
0.0389076
0.0378176
0.0363261
0.0343142
0.0318181
0.0288571
0.025559
0.022033
0.0184309
0.0148605
0.0114288
0.00819323
0.00520114
0.00246531
-3.20538e-06
-0.00221132
-0.00416056
-0.00586087
-0.00731514
-0.00853122
-0.00951128
-0.0102618
-0.0107855
-0.0110893
-0.011178
-0.0110596
-0.0107406
-0.0102296
-0.00953226
-0.00865441
-0.00759723
-0.00635841
-0.00492877
-0.00329213
-0.00142439
0.000705617
0.00313026
0.00587502
0.00893737
0.0122648
0.0157229
0.0190876
0.0220678
0.0243953
0.025933
0.0267541
0.0270708
0.0271367
0.0270988
0.0270374
0.026972
0.0269283
0.0268951
0.0268964
0.0413012
0.0410329
0.040921
0.0405497
0.040137
0.0393988
0.0383894
0.0368852
0.0348958
0.032328
0.029277
0.025805
0.022084
0.01824
0.0144308
0.0107483
0.00727966
0.00405534
0.00110242
-0.00158528
-0.00400706
-0.00617796
-0.00810181
-0.00979031
-0.011245
-0.0124731
-0.0134744
-0.014254
-0.0148125
-0.0151552
-0.0152848
-0.015208
-0.0149293
-0.0144563
-0.0137939
-0.012948
-0.0119207
-0.0107121
-0.00931635
-0.0077216
-0.00590803
-0.00384588
-0.00149844
0.00117707
0.00421359
0.00761834
0.0113329
0.0152019
0.0189472
0.0222088
0.0246587
0.0261658
0.0268623
0.0270573
0.0270379
0.0269546
0.0268617
0.0267943
0.0267462
0.0267433
0.0414054
0.0410932
0.0409567
0.0404849
0.0399195
0.0389207
0.0375567
0.0355931
0.0330846
0.029976
0.0264238
0.0225272
0.0184902
0.0144395
0.0105246
0.00681077
0.00336183
0.000181913
-0.00271785
-0.00535727
-0.00774063
-0.00988686
-0.0117989
-0.0134881
-0.0149535
-0.016201
-0.0172281
-0.0180384
-0.0186306
-0.0190087
-0.0191735
-0.0191304
-0.0188827
-0.0184366
-0.0177965
-0.0169678
-0.0159536
-0.0147555
-0.0133715
-0.0117945
-0.0100116
-0.00799969
-0.00572767
-0.0031509
-0.000222464
0.00310304
0.00683371
0.0109077
0.0151343
0.0191751
0.0225929
0.0250175
0.0263603
0.0268567
0.0269142
0.0268296
0.026715
0.0266247
0.026563
0.0265542
0.0413197
0.0409662
0.0407913
0.0401981
0.0394455
0.0381478
0.0363941
0.0339551
0.0309419
0.0273426
0.0233708
0.0191512
0.0149042
0.0107428
0.00679774
0.00310336
-0.000298828
-0.00342654
-0.00627874
-0.00888359
-0.0112459
-0.0133857
-0.0153029
-0.0170077
-0.0184961
-0.0197726
-0.0208324
-0.021678
-0.022306
-0.0227195
-0.0229176
-0.0229047
-0.0226825
-0.0222564
-0.0216298
-0.0208079
-0.0197941
-0.0185912
-0.0172
-0.0156174
-0.0138372
-0.0118442
-0.00961746
-0.00711972
-0.00430656
-0.00111799
0.00249349
0.00654451
0.0109535
0.0154867
0.0197262
0.0231543
0.0253923
0.0264526
0.0267068
0.0266557
0.0265305
0.026415
0.0263398
0.0263207
0.0409735
0.0405805
0.0403509
0.0396173
0.0386499
0.0370307
0.0348763
0.0319775
0.028506
0.024493
0.0201983
0.0157589
0.0113971
0.00720073
0.00327744
-0.000368873
-0.00371431
-0.00679266
-0.00960743
-0.0121909
-0.0145454
-0.0166904
-0.018622
-0.0203492
-0.0218649
-0.0231726
-0.0242654
-0.0251452
-0.0258068
-0.0262528
-0.0264806
-0.026494
-0.0262935
-0.0258835
-0.0252668
-0.0244482
-0.023431
-0.0222187
-0.0208139
-0.019216
-0.0174241
-0.0154293
-0.0132209
-0.0107716
-0.00804863
-0.00499426
-0.00154855
0.00235253
0.00671688
0.0114397
0.0162194
0.0205322
0.0238003
0.0256837
0.0263738
0.0264074
0.0262991
0.0261534
0.0260628
0.0260277
0.0403341
0.0399052
0.0396076
0.0387227
0.0375258
0.0355823
0.0330415
0.0297253
0.0258647
0.021528
0.0170085
0.0124416
0.00803969
0.00386003
-1.31312e-05
-0.00360201
-0.00689449
-0.00993478
-0.0127266
-0.0153032
-0.0176633
-0.0198245
-0.0217793
-0.0235354
-0.0250833
-0.0264255
-0.0275534
-0.0284683
-0.0291637
-0.0296412
-0.0298974
-0.0299349
-0.0297534
-0.0293566
-0.0287467
-0.027928
-0.0269041
-0.0256786
-0.0242557
-0.0226359
-0.0208226
-0.0188107
-0.0165982
-0.014167
-0.0114981
-0.0085446
-0.00525278
-0.00154087
0.00265244
0.0073325
0.012345
0.0172808
0.0215174
0.0244029
0.0258093
0.0260745
0.0260028
0.0258394
0.0257238
0.0256674
0.0393625
0.0389015
0.0385251
0.0374853
0.0360573
0.0338056
0.0309141
0.0272425
0.0230743
0.0185068
0.0138524
0.00923417
0.00484742
0.000717758
-0.00309086
-0.006621
-0.00986695
-0.0128787
-0.0156572
-0.0182353
-0.0206069
-0.0227881
-0.0247682
-0.0265538
-0.0281331
-0.0295083
-0.0306695
-0.0316172
-0.0323438
-0.0328504
-0.0331324
-0.0331917
-0.0330271
-0.0326418
-0.0320377
-0.0312185
-0.0301885
-0.0289509
-0.0275113
-0.0258708
-0.0240357
-0.0220027
-0.0197764
-0.0173448
-0.0147021
-0.011813
-0.00863987
-0.00510325
-0.00112264
0.0033782
0.00837592
0.0136286
0.018604
0.0225248
0.0248425
0.0256309
0.025608
0.0254631
0.0253096
0.0252265
0.0380709
0.0375841
0.037124
0.0359359
0.0342895
0.0317624
0.0285724
0.0246189
0.0202282
0.0155165
0.010803
0.00619127
0.00185567
-0.00220701
-0.00594851
-0.00942577
-0.0126351
-0.0156287
-0.0184035
-0.0209904
-0.0233791
-0.0255843
-0.0275922
-0.0294087
-0.0310205
-0.0324295
-0.033624
-0.0346045
-0.0353621
-0.035897
-0.0362037
-0.0362833
-0.0361341
-0.0357586
-0.0351585
-0.0343373
-0.0332999
-0.0320494
-0.0305931
-0.0289319
-0.0270748
-0.0250193
-0.0227747
-0.020332
-0.017696
-0.0148413
-0.0117482
-0.00834961
-0.00456994
-0.00030044
0.00452629
0.00982622
0.0152482
0.0200413
0.0233826
0.024943
0.0251246
0.0249841
0.024821
0.024689
0.0364682
0.0359625
0.0354181
0.0340954
0.0322534
0.0294947
0.0260661
0.0219061
0.0173717
0.0125898
0.00787628
0.00331156
-0.000950889
-0.00493846
-0.00861397
-0.0120435
-0.0152226
-0.0182032
-0.0209776
-0.0235748
-0.0259805
-0.0282083
-0.030242
-0.0320873
-0.0337292
-0.0351693
-0.0363951
-0.0374061
-0.0381925
-0.0387538
-0.0390835
-0.0391819
-0.0390469
-0.03868
-0.0380835
-0.0372601
-0.0362161
-0.0349539
-0.0334829
-0.0318037
-0.0299281
-0.0278528
-0.0255917
-0.0231361
-0.0204987
-0.0176601
-0.0146172
-0.0113173
-0.00770333
-0.00366123
0.000921556
0.0060821
0.0116672
0.0170564
0.0214038
0.0238415
0.024557
0.0243584
0.0242508
0.024034
0.0346128
0.0340978
0.0334738
0.0320377
0.0300312
0.0270916
0.0234878
0.0191939
0.0145862
0.00979459
0.00512445
0.000633036
-0.00354558
-0.00745743
-0.0110723
-0.0144612
-0.0176168
-0.0205897
-0.0233674
-0.0259769
-0.0284006
-0.0306512
-0.0327108
-0.0345845
-0.0362564
-0.0377276
-0.0389843
-0.0400256
-0.0408405
-0.0414276
-0.0417797
-0.041896
-0.0417742
-0.0414149
-0.0408209
-0.0399943
-0.0389428
-0.0376683
-0.0361829
-0.0344861
-0.0325935
-0.0305003
-0.0282247
-0.0257567
-0.0231156
-0.0202837
-0.0172719
-0.0140391
-0.0105515
-0.00670559
-0.00238025
0.00253969
0.00805868
0.0137627
0.0189176
0.0222876
0.0237838
0.0236065
0.0235514
0.0232548
0.0325518
0.0320372
0.0313411
0.0298149
0.0276776
0.0246075
0.0208865
0.0165211
0.0118952
0.00713796
0.00253935
-0.00186408
-0.00595512
-0.00979294
-0.0133514
-0.0167033
-0.0198378
-0.0228032
-0.025583
-0.0282022
-0.0306409
-0.0329109
-0.0349929
-0.0368918
-0.0385907
-0.0400901
-0.0413753
-0.0424445
-0.043286
-0.0438971
-0.04427
-0.0444029
-0.0442933
-0.0439408
-0.0433492
-0.0425194
-0.0414611
-0.0401751
-0.0386768
-0.0369643
-0.0350574
-0.0329494
-0.0306633
-0.0281862
-0.0255438
-0.0227167
-0.019727
-0.016541
-0.0131471
-0.00945942
-0.00537031
-0.00072868
0.00457499
0.0103489
0.0160148
0.02031
0.0226263
0.02277
0.0226572
0.0223485
0.0303709
0.0298677
0.0291102
0.0275198
0.0252868
0.0221348
0.0183498
0.0139661
0.0093662
0.00467547
0.000166141
-0.00414245
-0.00814715
-0.0119155
-0.0154233
-0.0187426
-0.0218593
-0.0248188
-0.0276012
-0.0302298
-0.0326827
-0.034971
-0.0370746
-0.0389978
-0.0407228
-0.0422496
-0.0435627
-0.0446591
-0.0455265
-0.0461607
-0.0465538
-0.0467024
-0.0466045
-0.0462581
-0.0456684
-0.0448348
-0.0437697
-0.0424721
-0.0409614
-0.0392336
-0.0373138
-0.0351924
-0.0328984
-0.0304151
-0.0277747
-0.0249538
-0.021984
-0.0188339
-0.0155115
-0.0119485
-0.00806104
-0.00369611
0.00131898
0.0069666
0.0128647
0.0179375
0.0210361
0.0218137
0.0215555
0.021298
0.0281312
0.0276497
0.0268413
0.0252102
0.0229123
0.019719
0.0159112
0.0115478
0.0070024
0.0023963
-0.00201687
-0.00623037
-0.0101528
-0.0138558
-0.0173164
-0.0206044
-0.0237027
-0.0266538
-0.0294355
-0.0320693
-0.0345322
-0.0368345
-0.0389556
-0.040899
-0.0426467
-0.0441973
-0.0455351
-0.0466557
-0.0475463
-0.0482013
-0.0486127
-0.0487754
-0.0486881
-0.0483472
-0.0477595
-0.0469223
-0.0458512
-0.0445431
-0.0430216
-0.0412802
-0.0393498
-0.0372172
-0.0349187
-0.0324324
-0.0297982
-0.0269869
-0.0240394
-0.0209216
-0.0176587
-0.0141954
-0.0104753
-0.00636418
-0.00165809
0.00372643
0.00964092
0.0152209
0.019073
0.0205999
0.0202827
0.0200613
0.0259208
0.0254718
0.0246246
0.0229755
0.0206408
0.0174418
0.0136455
0.00933277
0.00486217
0.000351954
-0.00396295
-0.00808415
-0.0119299
-0.015573
-0.018991
-0.0222502
-0.0253316
-0.0282744
-0.0310548
-0.0336927
-0.0361643
-0.0384793
-0.0406164
-0.0425786
-0.0443474
-0.0459204
-0.0472814
-0.0484246
-0.049337
-0.0500114
-0.05044
-0.0506157
-0.0505385
-0.0502024
-0.0496166
-0.0487759
-0.0476996
-0.0463813
-0.0448503
-0.0430963
-0.041157
-0.0390146
-0.0367138
-0.0342268
-0.0316026
-0.0288044
-0.0258831
-0.022798
-0.0195903
-0.0162105
-0.0126312
-0.00874281
-0.004338
0.000708821
0.00647855
0.0122703
0.0168165
0.019028
0.0188967
0.0186155
0.0237928
0.0233851
0.0225093
0.0208597
0.0185092
0.0153294
0.011566
0.0073206
0.00293238
-0.00148108
-0.00570284
-0.00973842
-0.0135145
-0.0171022
-0.0204799
-0.0237102
-0.0267728
-0.029704
-0.032479
-0.0351164
-0.0375921
-0.0399148
-0.0420633
-0.0440395
-0.0458249
-0.0474157
-0.0487957
-0.0499575
-0.0508883
-0.0515788
-0.052022
-0.0522086
-0.0521401
-0.0518079
-0.051224
-0.0503799
-0.0492995
-0.0479724
-0.0464339
-0.0446689
-0.0427232
-0.0405732
-0.0382731
-0.0357876
-0.0331771
-0.0303952
-0.0275047
-0.0244551
-0.0213031
-0.017998
-0.0145416
-0.0108452
-0.0067219
-0.00203659
0.00346956
0.00923034
0.0143294
0.0171044
0.0174085
0.0169625
0.0218204
0.0214633
0.0205701
0.0189365
0.0165882
0.0134483
0.00973474
0.0055689
0.00126749
-0.00305031
-0.0071847
-0.0111416
-0.0148549
-0.0183925
-0.0217338
-0.0249372
-0.0279819
-0.0309013
-0.0336705
-0.0363063
-0.0387849
-0.0411137
-0.0432719
-0.0452601
-0.04706
-0.0486663
-0.0500633
-0.0512413
-0.0521884
-0.0528929
-0.0533493
-0.0535452
-0.0534848
-0.0531557
-0.052574
-0.0517268
-0.0506433
-0.0493082
-0.047764
-0.0459894
-0.0440396
-0.0418833
-0.0395862
-0.0371041
-0.0345102
-0.0317469
-0.0288916
-0.0258802
-0.0227871
-0.0195527
-0.0162092
-0.012679
-0.00881449
-0.00448278
0.000677569
0.00623551
0.0116692
0.01489
0.0157508
0.015102
0.0200354
0.0197356
0.0188339
0.0172269
0.0148916
0.0118026
0.0081451
0.00406028
-0.000159512
-0.0043903
-0.00844826
-0.0123361
-0.0159946
-0.0194866
-0.0227937
-0.0259696
-0.0289944
-0.0318985
-0.0346579
-0.0372873
-0.0397639
-0.0420936
-0.0442564
-0.0462512
-0.0480604
-0.0496769
-0.0510858
-0.0522751
-0.0532344
-0.0539488
-0.0544152
-0.0546176
-0.0545635
-0.054236
-0.0536561
-0.0528056
-0.0517202
-0.050378
-0.0488302
-0.0470476
-0.0450961
-0.0429353
-0.0406439
-0.0381667
-0.0355921
-0.0328492
-0.0300325
-0.0270617
-0.0240314
-0.0208665
-0.0176309
-0.0142474
-0.0106197
-0.0066181
-0.0018507
0.00339172
0.00891408
0.0124622
0.0138498
0.0130454
0.0184895
0.0182543
0.0173546
0.0157855
0.0134734
0.010445
0.00684939
0.00284723
-0.00129468
-0.00544525
-0.00943549
-0.0132626
-0.0168733
-0.0203251
-0.0236016
-0.0267523
-0.0297584
-0.0326477
-0.0353971
-0.0380196
-0.0404933
-0.0428225
-0.0449882
-0.0469874
-0.0488037
-0.0504279
-0.0518462
-0.0530442
-0.0540132
-0.0547352
-0.05521
-0.0554171
-0.0553684
-0.0550418
-0.054464
-0.0536102
-0.052524
-0.0511756
-0.0496259
-0.0478365
-0.0458855
-0.0437215
-0.0414378
-0.0389663
-0.036413
-0.0336911
-0.0309155
-0.0279865
-0.0250222
-0.0219265
-0.018797
-0.0155459
-0.0121357
-0.00843534
-0.00407792
0.00077949
0.00617078
0.00991474
0.0117125
0.0108457
0.017189
0.0170223
0.0161332
0.0146083
0.0123235
0.00935827
0.00582221
0.00189645
-0.00217851
-0.00626142
-0.010197
-0.013974
-0.0175453
-0.0209616
-0.0242096
-0.0273347
-0.0303204
-0.0331916
-0.0359272
-0.0385381
-0.0410042
-0.0433276
-0.0454909
-0.047489
-0.0493071
-0.0509332
-0.0523558
-0.0535571
-0.0545314
-0.0552565
-0.0557361
-0.0559447
-0.0558993
-0.0555715
-0.054995
-0.0541372
-0.0530507
-0.0516963
-0.0501463
-0.0483509
-0.0464024
-0.0442358
-0.0419618
-0.0394962
-0.0369656
-0.0342644
-0.0315312
-0.0286436
-0.0257471
-0.0227197
-0.0196953
-0.0165659
-0.0133562
-0.00992736
-0.00597378
-0.00153677
0.00356034
0.00736169
0.00943783
0.00859772
0.0161649
0.0160716
0.0152041
0.0137326
0.011482
0.00858466
0.00510972
0.00125836
-0.00275529
-0.00677828
-0.0106678
-0.0144028
-0.0179415
-0.0213276
-0.0245512
-0.0276535
-0.0306206
-0.0334749
-0.0361975
-0.0387972
-0.0412554
-0.0435724
-0.0457323
-0.0477276
-0.0495456
-0.0511714
-0.0525963
-0.0537985
-0.0547762
-0.0555021
-0.0559851
-0.0561933
-0.0561506
-0.0558206
-0.0552456
-0.0543835
-0.0532977
-0.0519374
-0.0503886
-0.0485876
-0.046643
-0.044474
-0.0422108
-0.0397506
-0.0372432
-0.0345611
-0.0318702
-0.0290219
-0.0261935
-0.0232317
-0.020311
-0.0172939
-0.0142699
-0.0110836
-0.00751297
-0.00350388
0.00119615
0.00492644
0.00716662
0.00641159
0.0153988
0.0153792
0.0145425
0.0131295
0.0109159
0.00808596
0.00466801
0.000883494
-0.00308002
-0.00705555
-0.0109116
-0.0146151
-0.0181292
-0.02149
-0.0246916
-0.027771
-0.0307182
-0.0335528
-0.036259
-0.0388431
-0.0412892
-0.0435948
-0.0457466
-0.047734
-0.0495472
-0.0511674
-0.0525898
-0.0537879
-0.0547648
-0.0554871
-0.0559702
-0.0561746
-0.0561323
-0.0557975
-0.055223
-0.0543549
-0.0532697
-0.0519027
-0.0503555
-0.0485482
-0.0466083
-0.0444359
-0.0421838
-0.0397272
-0.0372426
-0.0345765
-0.0319266
-0.0291133
-0.0263513
-0.0234501
-0.0206304
-0.0177155
-0.0148638
-0.0118916
-0.00867472
-0.005079
-0.000829735
0.00272459
0.00503324
0.00438876
0.0149061
0.0149608
0.0141675
0.0128234
0.0106553
0.00789809
0.00454044
0.000822812
-0.00309318
-0.00702638
-0.0108551
-0.0145337
-0.0180293
-0.0213701
-0.024554
-0.0276142
-0.0305444
-0.0333617
-0.0360535
-0.0386235
-0.0410586
-0.0433533
-0.0454972
-0.0474762
-0.0492841
-0.0508977
-0.0523168
-0.0535092
-0.0544844
-0.0552015
-0.0556841
-0.0558831
-0.0558411
-0.0555005
-0.0549267
-0.054052
-0.052968
-0.0515936
-0.0500487
-0.0482342
-0.0462994
-0.0441221
-0.0418808
-0.0394248
-0.0369615
-0.0343069
-0.0316952
-0.0289107
-0.0262112
-0.0233632
-0.0206395
-0.0178156
-0.0151229
-0.0123369
-0.00944145
-0.00622919
-0.00244936
0.000852845
0.00314562
0.00261298
0.0146453
0.0147691
0.0140293
0.0127608
0.0106443
0.0079614
0.00466354
0.00100901
-0.00286639
-0.00676614
-0.0105775
-0.0142401
-0.0177244
-0.0210499
-0.0242188
-0.0272602
-0.0301724
-0.03297
-0.0356446
-0.038197
-0.0406177
-0.0428975
-0.0450301
-0.0469966
-0.0487957
-0.0503984
-0.0518109
-0.0529935
-0.0539639
-0.054672
-0.0551515
-0.0553419
-0.0552982
-0.0549488
-0.0543745
-0.0534906
-0.052407
-0.0510229
-0.0494797
-0.0476555
-0.0457249
-0.0435393
-0.0413072
-0.0388473
-0.0364024
-0.0337528
-0.0311749
-0.0284105
-0.0257677
-0.0229624
-0.0203277
-0.017581
-0.0150337
-0.012406
-0.00979873
-0.00693023
-0.00361521
-0.000613077
0.00158685
0.00115287
0.0146225
0.0148098
0.0141379
0.0129578
0.0109081
0.00830958
0.00508147
0.00149648
-0.00233384
-0.00619945
-0.00999476
-0.013645
-0.0171224
-0.0204377
-0.0235964
-0.0266236
-0.0295222
-0.0323041
-0.034965
-0.0375029
-0.0399122
-0.0421795
-0.044303
-0.0462583
-0.0480502
-0.0496426
-0.0510495
-0.0522224
-0.0531887
-0.0538874
-0.0543644
-0.0545455
-0.0545008
-0.0541419
-0.0535676
-0.0526736
-0.0515909
-0.0501955
-0.048654
-0.0468176
-0.0448904
-0.0426927
-0.0404679
-0.0379983
-0.0355681
-0.0329155
-0.0303656
-0.0276107
-0.0250168
-0.022241
-0.0196858
-0.0169999
-0.0145836
-0.0120859
-0.00973455
-0.00716465
-0.00429461
-0.00161529
0.000423153
6.77686e-05
0.0147743
0.0150125
0.014419
0.0133359
0.0113666
0.00885968
0.0057086
0.00219709
-0.00158685
-0.00542021
-0.00920396
-0.0128471
-0.0163232
-0.0196322
-0.0227834
-0.025797
-0.0286817
-0.0314462
-0.034092
-0.0366128
-0.0390089
-0.041261
-0.0433737
-0.0453155
-0.0470987
-0.0486783
-0.0500782
-0.0512387
-0.0521997
-0.0528862
-0.0533595
-0.0535285
-0.0534815
-0.0531102
-0.0525347
-0.0516273
-0.0505441
-0.0491338
-0.0475923
-0.0457391
-0.0438129
-0.0415971
-0.0393758
-0.0368888
-0.034468
-0.0318019
-0.0292724
-0.0265136
-0.0239589
-0.0211962
-0.018709
-0.0160644
-0.0137634
-0.0113664
-0.00923985
-0.00692035
-0.00446527
-0.00210938
-0.000289039
-0.000587318
0.0151067
0.0153836
0.0148824
0.0139111
0.0120466
0.00964898
0.00659477
0.00317254
-0.000550045
-0.00434148
-0.00810732
-0.0117421
-0.0152181
-0.0185249
-0.0216737
-0.0246799
-0.0275568
-0.0303099
-0.0329464
-0.0354556
-0.0378437
-0.0400853
-0.0421921
-0.044124
-0.0459028
-0.0474725
-0.0488691
-0.0500192
-0.0509779
-0.0516533
-0.0521254
-0.0522826
-0.0522353
-0.0518512
-0.051276
-0.0503539
-0.049271
-0.0478434
-0.0463015
-0.0444277
-0.0425007
-0.040261
-0.0380397
-0.0355267
-0.0331094
-0.0304181
-0.0279007
-0.0251224
-0.0225959
-0.0198274
-0.0173949
-0.0147691
-0.012567
-0.01024
-0.0083085
-0.00618945
-0.00411245
-0.00206109
-0.000499353
-0.000759268
0.0155351
0.0158329
0.0154305
0.0145797
0.0128414
0.0105681
0.00762802
0.00430941
0.000660967
-0.00307969
-0.00682321
-0.0104483
-0.0139257
-0.017232
-0.0203809
-0.0233805
-0.0262506
-0.0289919
-0.0316193
-0.0341159
-0.0364965
-0.0387267
-0.0408286
-0.0427501
-0.0445259
-0.0460851
-0.0474797
-0.0486186
-0.049576
-0.0502391
-0.0507105
-0.050854
-0.0508065
-0.0504067
-0.0498313
-0.0488907
-0.0478066
-0.0463567
-0.0448122
-0.0429112
-0.0409797
-0.0387075
-0.0364807
-0.0339305
-0.0315091
-0.0287781
-0.0262624
-0.0234466
-0.0209351
-0.0181387
-0.0157459
-0.0131133
-0.0109927
-0.0087031
-0.00693837
-0.00496847
-0.00322806
-0.00144502
-0.00016273
-0.00039696
0.0160805
0.016386
0.0160883
0.0153717
0.0137899
0.0116669
0.0088713
0.00568277
0.00213595
-0.00153245
-0.0052364
-0.00884252
-0.0123173
-0.0156249
-0.0187786
-0.0217789
-0.0246509
-0.027389
-0.0300165
-0.0325087
-0.0348906
-0.037117
-0.0392221
-0.0411398
-0.0429199
-0.0444742
-0.0458734
-0.0470053
-0.0479672
-0.0486209
-0.0490964
-0.0492278
-0.0491838
-0.0487687
-0.0481956
-0.0472355
-0.0461517
-0.0446766
-0.0431293
-0.041196
-0.0392581
-0.0369456
-0.0347091
-0.0321104
-0.0296777
-0.0268916
-0.0243673
-0.0214939
-0.0189842
-0.0161354
-0.0137667
-0.0110991
-0.00904246
-0.00675572
-0.00513168
-0.00325839
-0.00181088
-0.000244735
0.000758749
0.000546297
0.0166371
0.0169348
0.0167359
0.0161582
0.0147545
0.0128047
0.0101799
0.00714742
0.00372822
0.000155329
-0.00349153
-0.00706621
-0.0105324
-0.0138382
-0.0169974
-0.0199993
-0.0228757
-0.0256121
-0.0282428
-0.0307323
-0.0331192
-0.0353436
-0.0374561
-0.0393721
-0.0411612
-0.0427123
-0.0441207
-0.0452467
-0.046217
-0.0468614
-0.047344
-0.0474623
-0.0474236
-0.0469907
-0.0464205
-0.0454367
-0.0443525
-0.0428462
-0.0412938
-0.0393201
-0.0373716
-0.0350077
-0.0327549
-0.0300933
-0.0276401
-0.0247804
-0.0222353
-0.0192811
-0.0167581
-0.0138295
-0.0114682
-0.00873415
-0.00672418
-0.0044033
-0.00289644
-0.0010657
0.000132177
0.00154604
0.00229229
0.00210867
0.0172632
0.0175472
0.017437
0.0170051
0.0158036
0.0140582
0.0116415
0.00880149
0.00554952
0.0021071
-0.00145163
-0.00497384
-0.00841855
-0.0117191
-0.014887
-0.0178984
-0.0207905
-0.0235375
-0.0261849
-0.0286841
-0.0310891
-0.0333228
-0.0354551
-0.037379
-0.0391884
-0.0407445
-0.0421721
-0.0432988
-0.0442862
-0.0449262
-0.0454232
-0.0455312
-0.045504
-0.0450542
-0.0444916
-0.0434831
-0.0424014
-0.0408606
-0.0393044
-0.0372841
-0.0353239
-0.0328993
-0.0306263
-0.0278881
-0.025407
-0.0224551
-0.019878
-0.0168193
-0.0142687
-0.0112312
-0.00886169
-0.00602779
-0.00404912
-0.00165509
-0.00024617
0.00159757
0.00258522
0.0039222
0.00445012
0.00431485
0.0178233
0.0180852
0.0180437
0.0177516
0.0167619
0.0152461
0.0130687
0.0104582
0.00741238
0.00414081
0.000704736
-0.00273576
-0.00614046
-0.00942325
-0.0125961
-0.0156159
-0.0185282
-0.0212895
-0.0239614
-0.0264755
-0.0289076
-0.0311558
-0.0333172
-0.035254
-0.0370927
-0.038658
-0.0401133
-0.0412437
-0.0422555
-0.0428925
-0.0434099
-0.0435072
-0.0434956
-0.0430267
-0.0424742
-0.0414365
-0.0403581
-0.0387758
-0.0372144
-0.0351378
-0.0331623
-0.0306636
-0.028364
-0.0255319
-0.0230132
-0.0199467
-0.0173248
-0.0141337
-0.0115403
-0.0083612
-0.00596777
-0.0029974
-0.00103639
0.00147274
0.00279801
0.00471267
0.00552231
0.00686662
0.00722582
0.00717186
0.01844
0.0186816
0.0186898
0.0185282
0.0177556
0.0164942
0.0145929
0.0122544
0.00946332
0.00641021
0.00314265
-0.000180281
-0.00351937
-0.00677168
-0.00994766
-0.0129824
-0.0159282
-0.0187196
-0.0214351
-0.0239816
-0.0264602
-0.028739
-0.0309472
-0.0329105
-0.0347944
-0.0363801
-0.0378769
-0.0390198
-0.0400682
-0.0407085
-0.0412566
-0.0413474
-0.0413601
-0.0408737
-0.0403383
-0.0392707
-0.0382008
-0.0365738
-0.0350103
-0.0328709
-0.0308807
-0.0282976
-0.025969
-0.0230276
-0.0204653
-0.0172631
-0.0145865
-0.0112359
-0.00858712
-0.00523357
-0.00280363
0.000341008
0.00229356
0.00496171
0.00621022
0.00825602
0.00890851
0.0103512
0.0105926
0.0106667
0.0189215
0.0191364
0.0191753
0.0191213
0.0185565
0.0175637
0.0159682
0.0139466
0.0114604
0.00868417
0.00563874
0.00248467
-0.000752145
-0.00394536
-0.00711198
-0.0101546
-0.0131392
-0.0159661
-0.018739
-0.0213277
-0.0238693
-0.0261887
-0.0284602
-0.0304587
-0.0324029
-0.0340158
-0.0355676
-0.0367275
-0.037824
-0.0384699
-0.0390582
-0.0391422
-0.0391866
-0.0386801
-0.038167
-0.0370642
-0.0360059
-0.034326
-0.0327615
-0.0305478
-0.0285413
-0.0258584
-0.023496
-0.0204251
-0.017811
-0.0144476
-0.0117049
-0.00816326
-0.00544604
-0.00188122
0.00059683
0.00395742
0.00590752
0.00878314
0.00995481
0.0121972
0.0127001
0.0143397
0.0145055
0.014769
0.0194913
0.0196843
0.0197408
0.0197684
0.0193918
0.0186681
0.0174024
0.0157368
0.0136072
0.0111634
0.00839776
0.00546295
0.00236869
-0.000739553
-0.00388597
-0.00693754
-0.00997384
-0.0128537
-0.0157084
-0.0183623
-0.0209936
-0.0233755
-0.0257349
-0.027787
-0.0298132
-0.0314677
-0.0330931
-0.0342811
-0.0354415
-0.0361009
-0.036743
-0.0368253
-0.036913
-0.0363886
-0.0359078
-0.0347693
-0.0337308
-0.0319946
-0.0304352
-0.0281405
-0.0261216
-0.0233278
-0.0209326
-0.0177161
-0.0150479