/*--------------------------------*- C++ -*----------------------------------*\
| =========                 |                                                 |
| \\      /  F ield         | OpenFOAM: The Open Source CFD Toolbox           |
|  \\    /   O peration     | Version:  2406                                  |
|   \\  /    A nd           | Website:  www.openfoam.com                      |
|    \\/     M anipulation  |                                                 |
\*---------------------------------------------------------------------------*/
FoamFile
{
    version     2.0;
    format      ascii;
    arch        "LSB;label=32;scalar=64";
    class       surfaceScalarField;
    location    "46.4";
    object      phi;
}
// * * * * * * * * * * * * * * * * * * * * * * * * * * * * * * * * * * * * * //

dimensions      [0 3 -1 0 0 0 0];

oriented        oriented;

internalField   nonuniform List<scalar> 
28560
(
-1.66369e-08
1.66236e-08
3.54108e-08
-5.4433e-08
1.64482e-07
-1.29582e-07
3.58236e-07
-1.96929e-07
5.96531e-07
-2.40137e-07
8.57763e-07
-2.64737e-07
1.1241e-06
-2.68829e-07
1.37904e-06
-2.58176e-07
1.6114e-06
-2.34762e-07
1.81266e-06
-2.03808e-07
1.97923e-06
-1.68422e-07
2.11023e-06
-1.32708e-07
2.20825e-06
-9.91716e-08
2.27748e-06
-7.01715e-08
2.32367e-06
-4.67456e-08
2.35268e-06
-2.93984e-08
2.37018e-06
-1.76571e-08
2.38071e-06
-1.05814e-08
2.38748e-06
-6.68382e-09
2.39196e-06
-4.30471e-09
2.39393e-06
-1.68614e-09
2.39158e-06
2.76284e-09
2.38176e-06
1.03909e-08
2.36036e-06
2.21866e-08
2.32261e-06
3.8801e-08
2.26342e-06
6.05801e-08
2.17754e-06
8.76732e-08
2.05966e-06
1.20126e-07
1.90448e-06
1.57976e-07
1.70658e-06
2.01293e-07
1.46045e-06
2.50199e-07
1.16044e-06
3.04833e-07
8.00758e-07
3.6531e-07
3.75603e-07
4.31667e-07
-1.2076e-07
5.03816e-07
-6.93816e-07
5.81509e-07
-1.34862e-06
6.64307e-07
-2.08961e-06
7.51567e-07
-2.92034e-06
8.42426e-07
-3.84334e-06
9.35806e-07
-4.85984e-06
1.03041e-06
-5.9696e-06
1.12473e-06
-7.1707e-06
1.2171e-06
-8.45943e-06
1.30568e-06
-9.83014e-06
1.3885e-06
-1.12752e-05
1.46354e-06
-1.27848e-05
1.52875e-06
-1.43474e-05
1.58207e-06
-1.59492e-05
1.62151e-06
-1.75747e-05
1.6452e-06
-1.92066e-05
1.6514e-06
-2.08261e-05
1.63854e-06
-2.2413e-05
1.60526e-06
-2.3946e-05
1.55046e-06
-2.54031e-05
1.47325e-06
-2.67615e-05
1.37308e-06
-2.79982e-05
1.24965e-06
-2.90903e-05
1.10304e-06
-3.00151e-05
9.33653e-07
-3.0751e-05
7.42298e-07
-3.12774e-05
5.302e-07
-3.15754e-05
2.99038e-07
-3.16282e-05
5.09786e-08
-3.14216e-05
-2.11296e-07
-3.09447e-05
-4.84566e-07
-3.01904e-05
-7.65068e-07
-2.91555e-05
-1.0485e-06
-2.7842e-05
-1.33007e-06
-2.62567e-05
-1.60452e-06
-2.44123e-05
-1.86627e-06
-2.2327e-05
-2.1095e-06
-2.00249e-05
-2.32834e-06
-1.75358e-05
-2.51706e-06
-1.4895e-05
-2.67027e-06
-1.21423e-05
-2.78322e-06
-9.32139e-06
-2.85197e-06
-6.479e-06
-2.87368e-06
-3.66322e-06
-2.84682e-06
-9.22262e-07
-2.77131e-06
1.69713e-06
-2.64862e-06
4.15128e-06
-2.48182e-06
6.40106e-06
-2.27552e-06
8.41327e-06
-2.03566e-06
1.01618e-05
-1.76936e-06
1.16282e-05
-1.48451e-06
1.28026e-05
-1.18951e-06
1.36834e-05
-8.92768e-07
1.42769e-05
-6.02412e-07
1.45968e-05
-3.25858e-07
1.46633e-05
-6.95328e-08
1.45016e-05
1.61371e-07
1.41406e-05
3.63035e-07
1.36117e-05
5.33082e-07
1.29472e-05
6.70536e-07
1.21789e-05
7.75726e-07
1.13374e-05
8.50106e-07
1.04507e-05
8.96059e-07
9.54401e-06
9.1664e-07
8.6388e-06
9.15362e-07
7.75301e-06
8.95933e-07
6.90088e-06
8.62096e-07
6.09307e-06
8.17403e-07
5.33705e-06
7.6517e-07
4.63734e-06
7.08278e-07
3.99604e-06
6.49294e-07
3.4131e-06
5.9024e-07
2.88695e-06
5.32905e-07
2.41451e-06
4.78457e-07
1.99207e-06
4.2802e-07
1.61503e-06
3.81855e-07
1.27917e-06
3.40422e-07
9.802e-07
3.02698e-07
7.15613e-07
2.68316e-07
4.84046e-07
2.34234e-07
2.87586e-07
1.99418e-07
1.30805e-07
1.58301e-07
2.11859e-08
1.117e-07
-3.25203e-08
5.41032e-08
-3.28435e-08
1.43112e-09
-3.2895e-08
5.2125e-08
-3.31137e-08
2.54876e-07
-2.57143e-07
6.11384e-07
-4.81399e-07
1.09522e-06
-6.77982e-07
1.67183e-06
-8.10876e-07
2.29762e-06
-8.85924e-07
2.93489e-06
-9.00008e-07
3.54736e-06
-8.65705e-07
4.10878e-06
-7.90905e-07
4.59878e-06
-6.89637e-07
5.00694e-06
-5.7269e-07
5.32912e-06
-4.52004e-07
5.56855e-06
-3.36191e-07
5.73244e-06
-2.3244e-07
5.83148e-06
-1.44591e-07
5.87702e-06
-7.42619e-08
5.88007e-06
-2.03115e-08
5.84935e-06
2.02277e-08
5.79062e-06
5.19578e-08
5.70578e-06
8.02505e-08
5.59285e-06
1.10776e-07
5.4461e-06
1.48811e-07
5.25663e-06
1.98874e-07
5.01301e-06
2.64414e-07
4.70214e-06
3.47798e-07
4.30981e-06
4.5042e-07
3.82128e-06
5.72978e-07
3.22158e-06
7.15744e-07
2.49567e-06
8.78814e-07
1.62853e-06
1.06223e-06
6.05282e-07
1.26601e-06
-5.8874e-07
1.49002e-06
-1.96768e-06
1.7339e-06
-3.54483e-06
1.99683e-06
-5.33218e-06
2.27742e-06
-7.33989e-06
2.57362e-06
-9.57573e-06
2.88259e-06
-1.20445e-05
3.20077e-06
-1.47475e-05
3.52379e-06
-1.7682e-05
3.84657e-06
-2.08407e-05
4.16338e-06
-2.42118e-05
4.46798e-06
-2.7778e-05
4.75372e-06
-3.15175e-05
5.01374e-06
-3.54031e-05
5.24114e-06
-3.9403e-05
5.42918e-06
-4.34811e-05
5.57147e-06
-4.75972e-05
5.66212e-06
-5.17081e-05
5.69594e-06
-5.57679e-05
5.66849e-06
-5.97288e-05
5.57622e-06
-6.3542e-05
5.41653e-06
-6.71584e-05
5.18776e-06
-7.05293e-05
4.88922e-06
-7.36071e-05
4.52118e-06
-7.6346e-05
4.08485e-06
-7.87026e-05
3.58233e-06
-8.06365e-05
3.01667e-06
-8.21108e-05
2.39177e-06
-8.30926e-05
1.71245e-06
-8.35538e-05
9.84452e-07
-8.3471e-05
2.14439e-07
-8.28264e-05
-5.89946e-07
-8.16085e-05
-1.42007e-06
-7.98121e-05
-2.2663e-06
-7.74387e-05
-3.11798e-06
-7.44977e-05
-3.96353e-06
-7.10059e-05
-4.79047e-06
-6.69882e-05
-5.58557e-06
-6.2478e-05
-6.33505e-06
-5.75167e-05
-7.02486e-06
-5.21542e-05
-7.64095e-06
-4.64483e-05
-8.16974e-06
-4.04642e-05
-8.59852e-06
-3.42736e-05
-8.91595e-06
-2.7954e-05
-9.11259e-06
-2.1587e-05
-9.18139e-06
-1.52568e-05
-9.11815e-06
-9.04872e-06
-8.92195e-06
-3.0467e-06
-8.59537e-06
2.66841e-06
-8.14465e-06
8.02116e-06
-7.5797e-06
1.29435e-05
-6.91384e-06
1.73768e-05
-6.16343e-06
2.12736e-05
-5.34735e-06
2.45986e-05
-4.48627e-06
2.73302e-05
-3.60188e-06
2.94605e-05
-2.71603e-06
3.09955e-05
-1.84987e-06
3.19546e-05
-1.02304e-06
3.23695e-05
-2.52916e-07
3.22826e-05
4.45987e-07
3.17453e-05
1.06246e-06
3.08157e-05
1.5889e-06
2.95562e-05
2.02134e-06
2.80309e-05
2.35939e-06
2.63035e-05
2.60592e-06
2.4435e-05
2.76661e-06
2.24821e-05
2.84943e-06
2.04952e-05
2.86392e-06
1.85181e-05
2.82066e-06
1.65871e-05
2.73053e-06
1.4731e-05
2.60432e-06
1.29712e-05
2.45208e-06
1.13226e-05
2.28309e-06
9.79381e-06
2.1053e-06
8.38861e-06
1.92569e-06
7.10613e-06
1.74955e-06
5.9427e-06
1.58135e-06
4.89189e-06
1.42335e-06
3.94707e-06
1.27723e-06
3.10101e-06
1.14122e-06
2.34956e-06
1.01366e-06
1.69041e-06
8.87381e-07
1.12747e-06
7.58203e-07
6.67514e-07
6.13808e-07
3.22446e-07
4.54837e-07
1.0158e-07
2.72215e-07
2.74152e-09
1.00425e-07
-3.12408e-08
1.2164e-07
-1.54286e-07
4.66997e-07
-6.07143e-07
1.02111e-06
-1.03553e-06
1.7367e-06
-1.39848e-06
2.56972e-06
-1.64639e-06
3.46136e-06
-1.78264e-06
4.3624e-06
-1.80463e-06
5.22399e-06
-1.73195e-06
6.01048e-06
-1.58091e-06
6.69348e-06
-1.37634e-06
7.25755e-06
-1.1395e-06
7.69541e-06
-8.92393e-07
8.0094e-06
-6.51936e-07
8.20717e-06
-4.31655e-07
8.30092e-06
-2.39239e-07
8.30374e-06
-7.77307e-08
8.22819e-06
5.4929e-08
8.08368e-06
1.64583e-07
7.87549e-06
2.60195e-07
7.60352e-06
3.52387e-07
7.26228e-06
4.52358e-07
6.84097e-06
5.70631e-07
6.32434e-06
7.16251e-07
5.6936e-06
8.96209e-07
4.92747e-06
1.11536e-06
4.00318e-06
1.37662e-06
2.8972e-06
1.68145e-06
1.58583e-06
2.03027e-06
4.5614e-08
2.42297e-06
-1.74632e-06
2.85899e-06
-3.81188e-06
3.33737e-06
-6.17148e-06
3.85653e-06
-8.84347e-06
4.41399e-06
-1.18433e-05
5.00605e-06
-1.51826e-05
5.62759e-06
-1.88686e-05
6.27188e-06
-2.29027e-05
6.93053e-06
-2.728e-05
7.59359e-06
-3.19887e-05
8.24964e-06
-3.70094e-05
8.88606e-06
-4.23149e-05
9.48935e-06
-4.78704e-05
1.00455e-05
-5.36337e-05
1.05405e-05
-5.95557e-05
1.09607e-05
-6.55816e-05
1.12932e-05
-7.16518e-05
1.15265e-05
-7.7703e-05
1.16506e-05
-8.36697e-05
1.16574e-05
-8.94856e-05
1.15407e-05
-9.50848e-05
1.12964e-05
-0.000100403
1.09225e-05
-0.000105378
1.04189e-05
-0.000109951
9.78753e-06
-0.000114068
9.03163e-06
-0.00011768
8.15615e-06
-0.000120742
7.16728e-06
-0.000123213
6.0724e-06
-0.000125061
4.87997e-06
-0.000126257
3.59945e-06
-0.000126777
2.24129e-06
-0.000126604
8.16911e-07
-0.000125728
-6.61211e-07
-0.000124142
-2.17953e-06
-0.000121846
-3.72336e-06
-0.000118848
-5.27682e-06
-0.00011516
-6.82281e-06
-0.000110801
-8.34302e-06
-0.000105799
-9.81801e-06
-0.000100187
-1.12274e-05
-9.40049e-05
-1.25499e-05
-8.73024e-05
-1.37641e-05
-8.01348e-05
-1.48483e-05
-7.25655e-05
-1.57815e-05
-6.46646e-05
-1.65439e-05
-5.6509e-05
-1.71176e-05
-4.81813e-05
-1.74872e-05
-3.9769e-05
-1.76408e-05
-3.13631e-05
-1.75707e-05
-2.30568e-05
-1.72738e-05
-1.49438e-05
-1.67523e-05
-7.11598e-06
-1.60139e-05
3.3783e-07
-1.5072e-05
7.33444e-06
-1.39454e-05
1.37981e-05
-1.26582e-05
1.96623e-05
-1.12384e-05
2.48717e-05
-9.7181e-06
2.93834e-05
-8.13147e-06
3.31682e-05
-6.51422e-06
3.62116e-05
-4.90212e-06
3.85137e-05
-3.32984e-06
4.00898e-05
-1.82975e-06
4.09695e-05
-4.30839e-07
4.11956e-05
8.42265e-07
4.08231e-05
1.97004e-06
3.99165e-05
2.93864e-06
3.85482e-05
3.7402e-06
3.67949e-05
4.37284e-06
3.47356e-05
4.84036e-06
3.24481e-05
5.15168e-06
3.00069e-05
5.31996e-06
2.74805e-05
5.36167e-06
2.49297e-05
5.29534e-06
2.24069e-05
5.1406e-06
1.99546e-05
4.91699e-06
1.76061e-05
4.64332e-06
1.53855e-05
4.33667e-06
1.33087e-05
4.0124e-06
1.13841e-05
3.68306e-06
9.61449e-06
3.35914e-06
7.99768e-06
3.04726e-06
6.5297e-06
2.75192e-06
5.20442e-06
2.47195e-06
4.01877e-06
2.20478e-06
2.97044e-06
1.93956e-06
2.06484e-06
1.66821e-06
1.30854e-06
1.3721e-06
7.16991e-07
1.04987e-06
2.99272e-07
6.89691e-07
6.50745e-08
3.37541e-07
3.31857e-08
1.83852e-07
-3.34994e-07
6.55177e-07
-1.0812e-06
1.37479e-06
-1.75026e-06
2.27265e-06
-2.29639e-06
3.29585e-06
-2.6654e-06
4.37407e-06
-2.85919e-06
5.45123e-06
-2.87805e-06
6.47059e-06
-2.74905e-06
7.39123e-06
-2.49844e-06
8.17979e-06
-2.16282e-06
8.8177e-06
-1.77513e-06
9.29521e-06
-1.36837e-06
9.61322e-06
-9.68501e-07
9.77833e-06
-5.95835e-07
9.80191e-06
-2.62053e-07
9.69603e-06
2.85732e-08
9.47172e-06
2.79531e-07
9.13608e-06
5.00319e-07
8.69103e-06
7.05235e-07
8.13207e-06
9.11208e-07
7.44817e-06
1.136e-06
6.62209e-06
1.3963e-06
5.63138e-06
1.70639e-06
4.44952e-06
2.07727e-06
3.04729e-06
2.51651e-06
1.39395e-06
3.02853e-06
-5.41678e-07
3.61522e-06
-2.79037e-06
4.27662e-06
-5.38173e-06
5.01142e-06
-8.34342e-06
5.81713e-06
-1.17003e-05
6.68995e-06
-1.54733e-05
7.62447e-06
-1.96784e-05
8.61322e-06
-2.43255e-05
9.64625e-06
-2.94168e-05
1.0711e-05
-3.49459e-05
1.1792e-05
-4.0897e-05
1.28715e-05
-4.72439e-05
1.39293e-05
-5.39503e-05
1.49436e-05
-6.09694e-05
1.58915e-05
-6.8245e-05
1.67502e-05
-7.57127e-05
1.74973e-05
-8.33011e-05
1.8112e-05
-9.0934e-05
1.85756e-05
-9.85321e-05
1.88725e-05
-0.000106015
1.89903e-05
-0.000113305
1.89201e-05
-0.000120324
1.86564e-05
-0.000127002
1.81975e-05
-0.00013327
1.75447e-05
-0.00013907
1.6702e-05
-0.000144346
1.56759e-05
-0.000149052
1.44748e-05
-0.000153147
1.31088e-05
-0.000156595
1.1589e-05
-0.00015937
9.92757e-06
-0.000161448
8.13749e-06
-0.00016281
6.23228e-06
-0.000163445
4.22611e-06
-0.000163343
2.1338e-06
-0.000162499
-2.91016e-08
-0.000160914
-2.24618e-06
-0.00015859
-4.49998e-06
-0.000155536
-6.77187e-06
-0.000151762
-9.04187e-06
-0.000147284
-1.12885e-05
-0.000142123
-1.34888e-05
-0.000136304
-1.56183e-05
-0.00012986
-1.76511e-05
-0.000122826
-1.95601e-05
-0.000115248
-2.13173e-05
-0.000107174
-2.28946e-05
-9.86616e-05
-2.42641e-05
-8.97757e-05
-2.53991e-05
-8.05867e-05
-2.62749e-05
-7.11717e-05
-2.68699e-05
-6.16138e-05
-2.71665e-05
-5.20004e-05
-2.71521e-05
-4.24227e-05
-2.68202e-05
-3.2974e-05
-2.61709e-05
-2.37478e-05
-2.52116e-05
-1.48364e-05
-2.3957e-05
-6.32856e-06
-2.24292e-05
1.69196e-06
-2.06572e-05
9.14841e-06
-1.86762e-05
1.59727e-05
-1.65267e-05
2.21068e-05
-1.4253e-05
2.75041e-05
-1.19021e-05
3.21306e-05
-9.52217e-06
3.59656e-05
-7.16121e-06
3.90021e-05
-4.86545e-06
4.12476e-05
-2.67809e-06
4.2724e-05
-6.38045e-07
4.3467e-05
1.22126e-06
4.35254e-05
2.87291e-06
4.29597e-05
4.29725e-06
4.18406e-05
5.48252e-06
4.02459e-05
6.42499e-06
3.82583e-05
7.12887e-06
3.59622e-05
7.60562e-06
3.34405e-05
7.87307e-06
3.07718e-05
7.95399e-06
2.80282e-05
7.87472e-06
2.52728e-05
7.66337e-06
2.25592e-05
7.34859e-06
1.99303e-05
6.9578e-06
1.7419e-05
6.51665e-06
1.50483e-05
6.04726e-06
1.28332e-05
5.5686e-06
1.07809e-05
5.09412e-06
8.89511e-06
4.63336e-06
7.17474e-06
4.18783e-06
5.62085e-06
3.75556e-06
4.23285e-06
3.32372e-06
3.01857e-06
2.88084e-06
1.98408e-06
2.40313e-06
1.14915e-06
1.88506e-06
5.24389e-07
1.31075e-06
1.38633e-07
7.25859e-07
1.69548e-07
2.27449e-07
-5.60553e-07
7.97588e-07
-1.65728e-06
1.64922e-06
-2.59926e-06
2.68934e-06
-3.34078e-06
3.85407e-06
-3.82999e-06
5.06141e-06
-4.06988e-06
6.24934e-06
-4.06704e-06
7.35513e-06
-3.85753e-06
8.33478e-06
-3.47947e-06
9.15212e-06
-2.98221e-06
9.78719e-06
-2.41142e-06
1.02288e-05
-1.81141e-06
1.04769e-05
-1.21745e-06
1.05366e-05
-6.56309e-07
1.04173e-05
-1.43194e-07
1.01282e-05
3.17188e-07
9.67689e-06
7.3069e-07
9.06556e-06
1.11153e-06
8.29041e-06
1.48041e-06
7.34017e-06
1.86153e-06
6.19639e-06
2.27999e-06
4.83387e-06
2.75911e-06
3.2221e-06
3.3186e-06
1.32664e-06
3.97333e-06
-8.89143e-07
4.73312e-06
-3.46264e-06
5.60311e-06
-6.43057e-06
6.58454e-06
-9.82774e-06
7.67554e-06
-1.36858e-05
8.87161e-06
-1.80317e-05
1.01657e-05
-2.28868e-05
1.15482e-05
-2.82643e-05
1.30058e-05
-3.41686e-05
1.4522e-05
-4.05933e-05
1.6076e-05
-4.75197e-05
1.76433e-05
-5.49168e-05
1.91958e-05
-6.27401e-05
2.07024e-05
-7.09329e-05
2.21304e-05
-7.94268e-05
2.34466e-05
-8.81435e-05
2.46184e-05
-9.69978e-05
2.56153e-05
-0.000105899
2.64105e-05
-0.000114756
2.69812e-05
-0.000123477
2.73098e-05
-0.000131975
2.73841e-05
-0.000140168
2.71974e-05
-0.000147982
2.67479e-05
-0.000155349
2.60384e-05
-0.000162213
2.50757e-05
-0.000168524
2.38697e-05
-0.000174241
2.24328e-05
-0.00017933
2.07789e-05
-0.000183766
1.89233e-05
-0.000187527
1.68818e-05
-0.000190597
1.46705e-05
-0.000192966
1.23057e-05
-0.000194624
9.80359e-06
-0.000195565
7.18055e-06
-0.000195787
4.45297e-06
-0.000195288
1.63755e-06
-0.000194067
-1.24842e-06
-0.000192127
-4.18686e-06
-0.000189471
-7.15856e-06
-0.000186105
-1.01429e-05
-0.000182037
-1.31175e-05
-0.000177276
-1.60582e-05
-0.000171838
-1.89385e-05
-0.000165739
-2.17301e-05
-0.000159003
-2.44023e-05
-0.000151657
-2.69227e-05
-0.000143736
-2.92572e-05
-0.000135279
-3.13711e-05
-0.000126335
-3.32292e-05
-0.000116958
-3.47972e-05
-0.000107213
-3.60428e-05
-9.71685e-05
-3.69369e-05
-8.69029e-05
-3.74548e-05
-7.64998e-05
-3.75776e-05
-6.60481e-05
-3.72938e-05
-5.56403e-05
-3.65997e-05
-4.53712e-05
-3.55007e-05
-3.53352e-05
-3.40115e-05
-2.56252e-05
-3.2156e-05
-1.63303e-05
-2.99673e-05
-7.53353e-06
-2.74861e-05
6.88945e-07
-2.47603e-05
8.26987e-06
-2.18429e-05
1.51517e-05
-1.87908e-05
2.12877e-05
-1.56629e-05
2.66423e-05
-1.25185e-05
3.1192e-05
-9.41585e-06
3.49254e-05
-6.41057e-06
3.78443e-05
-3.55433e-06
3.99631e-05
-8.93629e-07
4.13096e-05
1.53144e-06
4.19244e-05
3.68828e-06
4.18607e-05
5.55279e-06
4.11826e-05
7.11014e-06
3.99635e-05
8.35521e-06
3.82839e-05
9.29257e-06
3.62282e-05
9.93605e-06
3.38818e-05
1.03075e-05
3.13276e-05
1.04357e-05
2.86434e-05
1.03539e-05
2.58997e-05
1.00984e-05
2.31571e-05
9.70593e-06
2.04663e-05
9.21257e-06
1.78671e-05
8.65102e-06
1.53898e-05
8.05027e-06
1.30547e-05
7.43271e-06
1.08768e-05
6.81499e-06
8.86343e-06
6.20374e-06
7.0228e-06
5.59942e-06
5.35851e-06
4.9894e-06
3.88297e-06
4.35951e-06
2.60392e-06
3.68198e-06
1.5481e-06
2.94451e-06
7.31158e-07
2.12503e-06
2.04292e-07
1.25782e-06
3.71858e-07
2.61549e-07
-8.18428e-07
9.0956e-07
-2.31026e-06
1.86335e-06
-3.54768e-06
3.00896e-06
-4.48843e-06
4.2704e-06
-5.08795e-06
5.55439e-06
-5.35408e-06
6.79336e-06
-5.30348e-06
7.91993e-06
-4.9835e-06
8.88857e-06
-4.44624e-06
9.66202e-06
-3.75486e-06
1.02203e-05
-2.96838e-06
1.05519e-05
-2.14234e-06
1.0656e-05
-1.32071e-06
1.05359e-05
-5.35777e-07
1.01982e-05
1.9496e-07
9.6479e-06
8.6775e-07
8.88659e-06
1.4922e-06
7.90962e-06
2.08855e-06
6.70509e-06
2.68495e-06
5.25295e-06
3.31359e-06
3.52564e-06
4.00716e-06
1.48905e-06
4.79546e-06
-8.95594e-07
5.70291e-06
-3.66993e-06
6.74719e-06
-6.87633e-06
7.9389e-06
-1.05561e-05
9.28205e-06
-1.47476e-05
1.0775e-05
-1.94844e-05
1.24111e-05
-2.47937e-05
1.41793e-05
-3.06939e-05
1.6064e-05
-3.71931e-05
1.8045e-05
-4.42866e-05
2.00965e-05
-5.19556e-05
2.21877e-05
-6.0166e-05
2.42826e-05
-6.8868e-05
2.6341e-05
-7.79967e-05
2.83195e-05
-8.74734e-05
3.01736e-05
-9.72083e-05
3.18592e-05
-0.000107103
3.33349e-05
-0.000117056
3.45637e-05
-0.000126963
3.55147e-05
-0.000136725
3.61638e-05
-0.000146248
3.64945e-05
-0.000155445
3.64977e-05
-0.000164242
3.61713e-05
-0.000172574
3.55196e-05
-0.000180388
3.45518e-05
-0.000187641
3.32812e-05
-0.0001943
3.17241e-05
-0.000200339
2.98985e-05
-0.000205739
2.78236e-05
-0.000210489
2.5519e-05
-0.000214578
2.30039e-05
-0.000218002
2.02974e-05
-0.000220756
1.74176e-05
-0.000222839
1.4382e-05
-0.000224248
1.12077e-05
-0.000224983
7.91104e-06
-0.000225041
4.50857e-06
-0.000224422
1.01683e-06
-0.000223124
-2.54699e-06
-0.000221144
-6.16478e-06
-0.000218483
-9.81701e-06
-0.00021514
-1.34824e-05
-0.000211114
-1.71374e-05
-0.000206409
-2.0756e-05
-0.00020103
-2.43095e-05
-0.000194984
-2.77662e-05
-0.000188283
-3.10915e-05
-0.000180946
-3.42479e-05
-0.000172994
-3.71958e-05
-0.000164457
-3.98933e-05
-0.000155374
-4.2298e-05
-0.000145788
-4.43674e-05
-0.000135754
-4.60603e-05
-0.000125336
-4.73388e-05
-0.000114605
-4.81695e-05
-0.000103642
-4.85255e-05
-9.25323e-05
-4.83877e-05
-8.137e-05
-4.77471e-05
-7.02518e-05
-4.66048e-05
-5.92762e-05
-4.49739e-05
-4.85415e-05
-4.28787e-05
-3.81429e-05
-4.03551e-05
-2.81708e-05
-3.74488e-05
-1.87084e-05
-3.42147e-05
-9.83047e-06
-3.07143e-05
-1.60215e-06
-2.70141e-05
5.92171e-06
-2.31832e-05
1.26969e-05
-1.92915e-05
1.86898e-05
-1.54079e-05
2.38774e-05
-1.15987e-05
2.82477e-05
-7.92614e-06
3.17992e-05
-4.44764e-06
3.45417e-05
-1.21448e-06
3.64969e-05
1.72916e-06
3.76978e-05
4.34731e-06
3.81899e-05
6.61326e-06
3.80295e-05
8.51049e-06
3.72836e-05
1.00333e-05
3.60273e-05
1.11872e-05
3.43417e-05
1.19881e-05
3.23107e-05
1.24619e-05
3.00178e-05
1.26421e-05
2.75433e-05
1.25686e-05
2.49607e-05
1.22845e-05
2.23358e-05
1.18338e-05
1.97241e-05
1.12592e-05
1.71718e-05
1.05997e-05
1.47139e-05
9.88765e-06
1.23786e-05
9.1482e-06
1.01845e-05
8.39513e-06
8.14955e-06
7.63325e-06
6.28398e-06
6.85229e-06
4.60715e-06
6.03645e-06
3.13092e-06
5.155e-06
1.8908e-06
4.18673e-06
9.09828e-07
3.10105e-06
2.61026e-07
1.91171e-06
6.29511e-07
2.86456e-07
-1.10195e-06
9.93478e-07
-3.02415e-06
2.02305e-06
-4.57296e-06
3.24173e-06
-5.71135e-06
4.56072e-06
-6.40536e-06
5.87544e-06
-6.67151e-06
7.11262e-06
-6.5404e-06
8.20101e-06
-6.07374e-06
9.09453e-06
-5.34007e-06
9.75608e-06
-4.41769e-06
1.01668e-05
-3.37956e-06
1.03157e-05
-2.29205e-06
1.02015e-05
-1.20688e-06
9.82555e-06
-1.60327e-07
9.19067e-06
8.29616e-07
8.29611e-06
1.76206e-06
7.13607e-06
2.65214e-06
5.69693e-06
3.52761e-06
3.95683e-06
4.42506e-06
1.88543e-06
5.38503e-06
-5.54788e-07
6.4475e-06
-3.40683e-06
7.64767e-06
-6.71669e-06
9.01304e-06
-1.0531e-05
1.05619e-05
-1.48944e-05
1.23028e-05
-1.98473e-05
1.42355e-05
-2.54233e-05
1.63518e-05
-3.16472e-05
1.8636e-05
-3.85323e-05
2.10656e-05
-4.60781e-05
2.36113e-05
-5.42682e-05
2.62368e-05
-6.30685e-05
2.8899e-05
-7.24269e-05
3.15486e-05
-8.22733e-05
3.41319e-05
-9.25216e-05
3.65925e-05
-0.000103072
3.88739e-05
-0.000113817
4.09221e-05
-0.000124641
4.26884e-05
-0.000135433
4.41315e-05
-0.000146083
4.5219e-05
-0.000156491
4.59283e-05
-0.000166568
4.62465e-05
-0.000176237
4.61701e-05
-0.000185436
4.57034e-05
-0.000194115
4.48576e-05
-0.000202237
4.36488e-05
-0.000209775
4.20968e-05
-0.00021671
4.02237e-05
-0.000223031
3.80525e-05
-0.000228732
3.56065e-05
-0.00023381
3.29084e-05
-0.000238265
2.99801e-05
-0.000242097
2.6842e-05
-0.000245308
2.35134e-05
-0.000247898
2.00123e-05
-0.000249867
1.63556e-05
-0.000251215
1.25591e-05
-0.00025194
8.63847e-06
-0.000252039
4.60881e-06
-0.000251507
4.85673e-07
-0.00025034
-3.71476e-06
-0.000248531
-7.97514e-06
-0.000246074
-1.22764e-05
-0.000242962
-1.65975e-05
-0.000239189
-2.09145e-05
-0.00023475
-2.52007e-05
-0.000229641
-2.94256e-05
-0.000223859
-3.35554e-05
-0.000217406
-3.75522e-05
-0.000210289
-4.13744e-05
-0.000202517
-4.4977e-05
-0.000194109
-4.83118e-05
-0.000185089
-5.13287e-05
-0.000175491
-5.39765e-05
-0.000165358
-5.62046e-05
-0.000154744
-5.79646e-05
-0.000143712
-5.92124e-05
-0.000132339
-5.99106e-05
-0.000120707
-6.00304e-05
-0.000108911
-5.95537e-05
-9.70503e-05
-5.84752e-05
-8.52303e-05
-5.68031e-05
-7.35573e-05
-5.45601e-05
-6.21367e-05
-5.17833e-05
-5.10696e-05
-4.85226e-05
-4.04502e-05
-4.48397e-05
-3.03636e-05
-4.08054e-05
-2.08843e-05
-3.6497e-05
-1.20748e-05
-3.19951e-05
-3.98616e-06
-2.73817e-05
3.3423e-06
-2.2737e-05
9.8819e-06
-1.8138e-05
1.56139e-05
-1.36571e-05
2.0529e-05
-9.36099e-06
2.46269e-05
-5.30998e-06
2.79162e-05
-1.55739e-06
3.04154e-05
1.85124e-06
3.2153e-05
4.87903e-06
3.31683e-05
7.49882e-06
3.35111e-05
9.69414e-06
3.32418e-05
1.14602e-05
3.24295e-05
1.28039e-05
3.11506e-05
1.37442e-05
2.94854e-05
1.43105e-05
2.75157e-05
1.45414e-05
2.5321e-05
1.44819e-05
2.29765e-05
1.41811e-05
2.05493e-05
1.36887e-05
1.80991e-05
1.30523e-05
1.56748e-05
1.23137e-05
1.33181e-05
1.1507e-05
1.10598e-05
1.06544e-05
8.92914e-06
9.7661e-06
6.94538e-06
8.83606e-06
5.13681e-06
7.84767e-06
3.52203e-06
6.7682e-06
2.14672e-06
5.56608e-06
1.0428e-06
4.2005e-06
3.02408e-07
2.65888e-06
9.28775e-07
3.07437e-07
-1.4054e-06
1.05983e-06
-3.78292e-06
2.1424e-06
-5.64974e-06
3.40336e-06
-6.97549e-06
4.74111e-06
-7.73984e-06
6.04045e-06
-7.97206e-06
7.22288e-06
-7.72082e-06
8.21447e-06
-7.06559e-06
8.96962e-06
-6.09391e-06
9.45262e-06
-4.90055e-06
9.64657e-06
-3.57266e-06
9.54137e-06
-2.18663e-06
9.13542e-06
-8.00398e-07
8.42735e-06
5.4792e-07
7.41511e-06
1.84215e-06
6.09068e-06
3.08659e-06
4.43905e-06
4.3039e-06
2.43594e-06
5.53075e-06
4.82822e-08
6.81273e-06
-2.76518e-06
8.19844e-06
-6.05153e-06
9.73377e-06
-9.86112e-06
1.14571e-05
-1.42443e-05
1.3396e-05
-1.92483e-05
1.55656e-05
-2.49143e-05
1.79685e-05
-3.12746e-05
2.05953e-05
-3.83494e-05
2.3426e-05
-4.61446e-05
2.64304e-05
-5.46489e-05
2.9569e-05
-6.38317e-05
3.2793e-05
-7.3642e-05
3.60457e-05
-8.4008e-05
3.92635e-05
-9.48395e-05
4.23782e-05
-0.00010603
4.53202e-05
-0.000117462
4.80218e-05
-0.000129011
5.04205e-05
-0.000140554
5.24625e-05
-0.000151974
5.41045e-05
-0.000163161
5.53151e-05
-0.000174021
5.60756e-05
-0.000184476
5.63787e-05
-0.000194461
5.62275e-05
-0.00020393
5.56336e-05
-0.000212846
5.46151e-05
-0.000221188
5.31947e-05
-0.000228942
5.1398e-05
-0.000236102
4.92519e-05
-0.000242667
4.67835e-05
-0.000248639
4.40192e-05
-0.000254021
4.09842e-05
-0.000258819
3.7702e-05
-0.000263038
3.41944e-05
-0.000266681
3.04815e-05
-0.000269753
2.65815e-05
-0.000272255
2.25112e-05
-0.000274188
1.8286e-05
-0.000275551
1.39205e-05
-0.000276343
9.42856e-06
-0.000276559
4.82388e-06
-0.000276193
1.20409e-07
-0.00027524
-4.66721e-06
-0.000273691
-9.52306e-06
-0.000271536
-1.44295e-05
-0.000268764
-1.93663e-05
-0.000265365
-2.43107e-05
-0.000261325
-2.92362e-05
-0.000256633
-3.41124e-05
-0.000251279
-3.89044e-05
-0.000245252
-4.35728e-05
-0.000238546
-4.80733e-05
-0.000231159
-5.23567e-05
-0.000223094
-5.63697e-05
-0.00021436
-6.00553e-05
-0.000204974
-6.33539e-05
-0.000194966
-6.62048e-05
-0.000184373
-6.85485e-05
-0.000173249
-7.03284e-05
-0.000161658
-7.14941e-05
-0.000149677
-7.20034e-05
-0.000137397
-7.18259e-05
-0.00012492
-7.0945e-05
-0.000112356
-6.93602e-05
-9.98223e-05
-6.70883e-05
-8.74362e-05
-6.4164e-05
-7.53149e-05
-6.06392e-05
-6.35696e-05
-5.6581e-05
-5.23023e-05
-5.20694e-05
-4.1603e-05
-4.71938e-05
-3.15475e-05
-4.20488e-05
-2.21971e-05
-3.67309e-05
-1.35987e-05
-3.1335e-05
-5.78556e-06
-2.59512e-05
1.22051e-06
-2.06638e-05
7.40777e-06
-1.55494e-05
1.27729e-05
-1.06766e-05
1.73199e-05
-6.10631e-06
2.10601e-05
-1.8911e-06
2.40121e-05
1.92474e-06
2.62026e-05
5.30588e-06
2.76674e-05
8.22689e-06
2.84517e-05
1.06733e-05
2.86106e-05
1.26425e-05
2.82081e-05
1.41444e-05
2.73153e-05
1.5201e-05
2.60087e-05
1.58459e-05
2.43667e-05
1.61218e-05
2.24674e-05
1.60787e-05
2.03844e-05
1.57697e-05
1.81869e-05
1.52485e-05
1.59343e-05
1.45645e-05
1.36808e-05
1.37598e-05
1.14687e-05
1.28647e-05
9.33911e-06
1.18956e-05
7.32148e-06
1.08516e-05
5.45432e-06
9.71592e-06
3.76476e-06
8.4546e-06
2.30893e-06
7.02512e-06
1.12802e-06
5.37568e-06
3.29006e-07
3.46453e-06
1.25381e-06
3.24497e-07
-1.72631e-06
1.10991e-06
-4.57579e-06
2.22411e-06
-6.75867e-06
3.49738e-06
-8.2531e-06
4.81561e-06
-9.05571e-06
6.05388e-06
-9.21278e-06
7.12941e-06
-8.79543e-06
7.96677e-06
-7.90442e-06
8.522e-06
-6.64891e-06
8.76174e-06
-5.14119e-06
8.67164e-06
-3.4826e-06
8.24266e-06
-1.7582e-06
7.47228e-06
-3.01178e-08
6.35556e-06
1.66431e-06
4.88417e-06
3.31345e-06
3.04131e-06
4.92929e-06
8.01284e-07
6.54389e-06
-1.87187e-06
8.20383e-06
-5.02269e-06
9.96358e-06
-8.70254e-06
1.18783e-05
-1.29659e-05
1.39972e-05
-1.78668e-05
1.63581e-05
-2.34548e-05
1.89841e-05
-2.97711e-05
2.18821e-05
-3.68452e-05
2.50429e-05
-4.46918e-05
2.84423e-05
-5.33074e-05
3.20421e-05
-6.26683e-05
3.57919e-05
-7.27281e-05
3.96296e-05
-8.34179e-05
4.34837e-05
-9.46466e-05
4.72754e-05
-0.000106304
5.09222e-05
-0.000118266
5.43416e-05
-0.0001304
5.74558e-05
-0.000142572
6.01956e-05
-0.000154654
6.25038e-05
-0.000166526
6.43372e-05
-0.000178087
6.56678e-05
-0.000189251
6.64818e-05
-0.000199951
6.67784e-05
-0.000210138
6.65678e-05
-0.000219776
6.58686e-05
-0.000228844
6.47052e-05
-0.000237332
6.31062e-05
-0.000245236
6.11019e-05
-0.000252557
5.87232e-05
-0.000259302
5.60005e-05
-0.000265478
5.29629e-05
-0.000271094
4.96379e-05
-0.000276157
4.60506e-05
-0.000280677
4.22244e-05
-0.00028466
3.81802e-05
-0.000288113
3.39372e-05
-0.000291042
2.95126e-05
-0.00029345
2.49218e-05
-0.000295342
2.01789e-05
-0.000296717
1.52969e-05
-0.000297576
1.0288e-05
-0.000297916
5.16415e-06
-0.000297733
-6.27584e-08
-0.000297021
-5.38013e-06
-0.000295772
-1.07742e-05
-0.000293973
-1.62297e-05
-0.000291613
-2.17286e-05
-0.000288677
-2.72501e-05
-0.000285147
-3.27698e-05
-0.000281004
-3.82587e-05
-0.00027623
-4.36831e-05
-0.000270804
-4.90038e-05
-0.000264706
-5.41757e-05
-0.000257921
-5.91478e-05
-0.000250433
-6.38631e-05
-0.000242235
-6.82596e-05
-0.000233324
-7.22703e-05
-0.00022371
-7.58253e-05
-0.000213411
-7.88536e-05
-0.00020246
-8.12852e-05
-0.000190905
-8.30545e-05
-0.000178811
-8.41029e-05
-0.000166259
-8.43834e-05
-0.000153346
-8.38631e-05
-0.000140184
-8.25267e-05
-0.000126897
-8.03793e-05
-0.000113618
-7.74475e-05
-0.00010048
-7.37797e-05
-8.76191e-05
-6.94451e-05
-7.51601e-05
-6.45308e-05
-6.32178e-05
-5.91379e-05
-5.1891e-05
-5.33769e-05
-4.12602e-05
-4.73625e-05
-3.1387e-05
-4.12085e-05
-2.23147e-05
-3.50235e-05
-1.40702e-05
-2.89079e-05
-6.66667e-06
-2.29522e-05
-1.06548e-07
-1.72357e-05
5.61573e-06
-1.18273e-05
1.0512e-05
-6.78586e-06
1.45992e-05
-2.16086e-06
1.78996e-05
2.00717e-06
2.04414e-05
5.68688e-06
2.22596e-05
8.85682e-06
2.33974e-05
1.15064e-05
2.39066e-05
1.3637e-05
2.38468e-05
1.52624e-05
2.32853e-05
1.64089e-05
2.22945e-05
1.71141e-05
2.09497e-05
1.74249e-05
1.93257e-05
1.73947e-05
1.74959e-05
1.70796e-05
1.5527e-05
1.65341e-05
1.34821e-05
1.58061e-05
1.14139e-05
1.4933e-05
9.37414e-06
1.3937e-05
7.40287e-06
1.28221e-05
5.54908e-06
1.15721e-05
3.84944e-06
1.0152e-05
2.37004e-06
8.50869e-06
1.1609e-06
6.57953e-06
3.38895e-07
4.29393e-06
1.58903e-06
3.39145e-07
-2.06129e-06
1.14615e-06
-5.38998e-06
2.27038e-06
-7.87684e-06
3.52456e-06
-9.51108e-06
4.78277e-06
-1.03107e-05
5.91192e-06
-1.03436e-05
6.82642e-06
-9.70815e-06
7.45109e-06
-8.52976e-06
7.74482e-06
-6.94159e-06
7.67753e-06
-5.0741e-06
7.23761e-06
-3.04206e-06
6.41673e-06
-9.37332e-07
5.21052e-06
1.17646e-06
3.60908e-06
3.26579e-06
1.59626e-06
5.32647e-06
-8.55005e-07
7.38059e-06
-3.78202e-06
9.471e-06
-7.2325e-06
1.16543e-05
-1.12613e-05
1.39924e-05
-1.59272e-05
1.65442e-05
-2.12877e-05
1.93577e-05
-2.73947e-05
2.2465e-05
-3.42892e-05
2.58785e-05
-4.19977e-05
2.95905e-05
-5.05282e-05
3.35732e-05
-5.98673e-05
3.77811e-05
-6.99777e-05
4.21522e-05
-8.07971e-05
4.66108e-05
-9.22384e-05
5.10703e-05
-0.000104192
5.54364e-05
-0.000116529
5.96124e-05
-0.000129112
6.35038e-05
-0.000141795
6.70238e-05
-0.000154439
7.00981e-05
-0.000166912
7.26678e-05
-0.000179101
7.46915e-05
-0.000190911
7.6145e-05
-0.000202265
7.70205e-05
-0.000213109
7.73238e-05
-0.000223404
7.70718e-05
-0.000233128
7.62892e-05
-0.000242267
7.50062e-05
-0.000250821
7.32562e-05
-0.00025879
7.10736e-05
-0.000266184
6.8493e-05
-0.000273011
6.55478e-05
-0.000279282
6.22698e-05
-0.000285011
5.86889e-05
-0.000290207
5.48326e-05
-0.000294885
5.07262e-05
-0.000299055
4.63924e-05
-0.000302729
4.1852e-05
-0.000305917
3.71232e-05
-0.000308628
3.22222e-05
-0.00031087
2.71634e-05
-0.000312652
2.19595e-05
-0.000313978
1.66219e-05
-0.000314851
1.11607e-05
-0.000315272
5.5858e-06
-0.000315241
-9.34014e-08
-0.000314753
-5.86703e-06
-0.000313802
-1.17243e-05
-0.000312377
-1.7653e-05
-0.000310465
-2.36387e-05
-0.000308049
-2.96639e-05
-0.000305109
-3.57076e-05
-0.00030162
-4.17442e-05
-0.000297557
-4.7743e-05
-0.00029289
-5.36672e-05
-0.000287589
-5.94736e-05
-0.000281621
-6.51117e-05
-0.000274956
-7.05238e-05
-0.000267567
-7.5645e-05
-0.000259429
-8.04038e-05
-0.000250527
-8.47229e-05
-0.000240855
-8.85211e-05
-0.00023042
-9.17153e-05
-0.000219247
-9.4224e-05
-0.000207375
-9.59704e-05
-0.000194868
-9.68868e-05
-0.000181808
-9.6919e-05
-0.000168301
-9.60307e-05
-0.00015447
-9.42075e-05
-0.000140455
-9.14596e-05
-0.000126408
-8.78242e-05
-0.000112486
-8.33648e-05
-9.88453e-05
-7.817e-05
-8.56324e-05
-7.23495e-05
-7.29797e-05
-6.60287e-05
-6.09996e-05
-5.93421e-05
-4.9781e-05
-5.24269e-05
-3.93883e-05
-4.54162e-05
-2.98625e-05
-3.8434e-05
-2.12241e-05
-3.15911e-05
-1.34768e-05
-2.49837e-05
-6.61216e-06
-1.86929e-05
-6.13211e-07
-1.27858e-05
4.54221e-06
-7.3174e-06
8.87989e-06
-2.33167e-06