/*--------------------------------*- C++ -*----------------------------------*\
| =========                 |                                                 |
| \\      /  F ield         | OpenFOAM: The Open Source CFD Toolbox           |
|  \\    /   O peration     | Version:  2406                                  |
|   \\  /    A nd           | Website:  www.openfoam.com                      |
|    \\/     M anipulation  |                                                 |
\*---------------------------------------------------------------------------*/
FoamFile
{
    version     2.0;
    format      ascii;
    arch        "LSB;label=32;scalar=64";
    class       volScalarField;
    location    "25.15";
    object      p;
}
// * * * * * * * * * * * * * * * * * * * * * * * * * * * * * * * * * * * * * //

dimensions      [0 2 -2 0 0 0 0];

internalField   nonuniform List<scalar> 
14400
(
0.0367076
0.036716
0.0367208
0.0367259
0.036723
0.036716
0.036701
0.0366809
0.036654
0.0366225
0.0365859
0.0365455
0.0365014
0.0364544
0.0364046
0.0363523
0.0362974
0.0362401
0.0361801
0.036117
0.0360505
0.0359802
0.0359053
0.0358255
0.0357399
0.0356482
0.0355496
0.0354436
0.0353296
0.0352072
0.035076
0.0349356
0.0347859
0.0346267
0.0344582
0.0342804
0.0340938
0.0338991
0.0336971
0.0334892
0.0332769
0.033062
0.0328469
0.0326341
0.0324267
0.0322281
0.0320419
0.0318721
0.0317228
0.0315984
0.0315032
0.0314415
0.0314174
0.0314348
0.0314971
0.031607
0.0317666
0.0319773
0.0322394
0.032552
0.0329133
0.0333202
0.0337681
0.0342515
0.0347632
0.0352951
0.0358381
0.0363818
0.0369155
0.0374279
0.0379075
0.0383433
0.0387245
0.0390415
0.0392861
0.0394517
0.0395336
0.0395295
0.0394393
0.0392654
0.0390125
0.0386874
0.0382988
0.037857
0.0373731
0.0368589
0.0363263
0.0357869
0.0352511
0.0347287
0.0342278
0.033755
0.0333152
0.032912
0.0325471
0.0322212
0.0319337
0.0316832
0.0314674
0.0312838
0.0311292
0.0310006
0.0308949
0.0308092
0.0307404
0.0306862
0.0306441
0.0306123
0.0305887
0.0305724
0.0305615
0.0305563
0.0305546
0.0305581
0.0305639
0.0305749
0.0305865
0.0306019
0.0306131
0.0306224
0.0366991
0.0367076
0.0367088
0.0367113
0.036706
0.036698
0.0366826
0.036663
0.0366373
0.0366074
0.0365727
0.0365344
0.0364925
0.0364477
0.0364
0.0363498
0.036297
0.0362417
0.0361836
0.0361226
0.0360581
0.0359899
0.0359174
0.0358402
0.0357576
0.035669
0.0355741
0.0354721
0.0353627
0.0352454
0.0351198
0.0349855
0.0348423
0.0346902
0.034529
0.034359
0.0341804
0.0339939
0.0338003
0.0336006
0.0333962
0.0331889
0.0329809
0.0327744
0.0325724
0.0323781
0.032195
0.0320268
0.0318776
0.0317515
0.0316529
0.031586
0.0315547
0.031563
0.0316142
0.0317112
0.0318562
0.0320505
0.0322946
0.032588
0.0329289
0.0333144
0.0337402
0.034201
0.03469
0.0351993
0.0357201
0.0362424
0.0367557
0.0372491
0.0377113
0.0381315
0.0384993
0.0388054
0.0390416
0.0392014
0.0392805
0.0392764
0.0391891
0.0390211
0.0387768
0.0384631
0.0380885
0.0376628
0.0371971
0.0367027
0.0361911
0.0356734
0.0351597
0.0346592
0.0341795
0.0337268
0.0333058
0.0329195
0.0325696
0.0322565
0.0319796
0.0317375
0.031528
0.0313486
0.0311965
0.0310689
0.0309628
0.0308757
0.0308046
0.0307476
0.0307022
0.0306669
0.0306396
0.0306197
0.0306051
0.0305963
0.0305909
0.0305906
0.030592
0.0305986
0.0306047
0.0306157
0.0306221
0.0306316
0.0366943
0.0367063
0.0367076
0.0367109
0.0367052
0.0366973
0.0366816
0.0366621
0.0366362
0.0366065
0.036572
0.0365341
0.0364926
0.0364484
0.0364014
0.0363521
0.0363003
0.0362461
0.0361892
0.0361295
0.0360665
0.0359999
0.0359291
0.0358537
0.035773
0.0356866
0.0355938
0.0354941
0.0353872
0.0352723
0.0351492
0.0350176
0.034877
0.0347273
0.0345684
0.0344005
0.0342238
0.0340386
0.0338458
0.0336463
0.0334415
0.0332329
0.0330226
0.032813
0.032607
0.0324076
0.0322184
0.0320433
0.0318864
0.0317519
0.0316443
0.0315679
0.031527
0.0315254
0.0315669
0.0316545
0.0317904
0.0319763
0.0322127
0.0324993
0.0328342
0.0332148
0.0336369
0.034095
0.0345826
0.0350916
0.035613
0.0361371
0.036653
0.0371498
0.037616
0.0380407
0.0384132
0.0387239
0.0389645
0.0391283
0.0392106
0.0392091
0.0391236
0.0389564
0.0387121
0.0383977
0.0380217
0.0375944
0.0371269
0.0366309
0.0361182
0.0356001
0.0350869
0.0345879
0.0341109
0.0336619
0.0332456
0.0328648
0.0325211
0.0322146
0.0319445
0.0317091
0.0315061
0.0313327
0.0311861
0.0310633
0.0309613
0.0308775
0.0308092
0.0307543
0.0307104
0.0306762
0.0306495
0.0306299
0.0306152
0.030606
0.0305999
0.030599
0.0305993
0.0306054
0.0306103
0.0306222
0.0306284
0.0306431
0.0366888
0.0367035
0.036704
0.0367073
0.0367004
0.0366921
0.0366758
0.0366562
0.0366305
0.0366013
0.0365675
0.0365306
0.0364903
0.0364476
0.0364022
0.0363546
0.0363047
0.0362526
0.036198
0.0361407
0.0360804
0.0360165
0.0359488
0.0358765
0.0357993
0.0357165
0.0356276
0.0355321
0.0354294
0.0353191
0.0352006
0.0350735
0.0349375
0.0347923
0.0346375
0.0344732
0.0342994
0.0341165
0.0339248
0.0337253
0.0335191
0.0333077
0.033093
0.0328774
0.0326635
0.0324547
0.0322545
0.0320669
0.031896
0.0317464
0.0316227
0.0315294
0.031471
0.0314518
0.0314754
0.0315451
0.0316635
0.0318324
0.0320523
0.0323232
0.0326433
0.0330102
0.0334197
0.0338666
0.0343442
0.0348449
0.0353597
0.0358787
0.0363913
0.0368865
0.0373528
0.0377791
0.0381547
0.0384699
0.038716
0.0388862
0.0389757
0.0389817
0.0389038
0.0387444
0.0385079
0.038201
0.0378326
0.0374127
0.0369527
0.0364644
0.0359598
0.0354503
0.0349463
0.0344573
0.033991
0.0335535
0.0331492
0.0327809
0.0324498
0.0321559
0.0318981
0.0316744
0.0314822
0.0313188
0.0311809
0.0310656
0.03097
0.0308913
0.0308269
0.0307749
0.0307329
0.0306998
0.0306735
0.0306537
0.0306382
0.030628
0.0306201
0.0306175
0.0306153
0.0306196
0.0306218
0.0306335
0.0306383
0.0306581
0.0366908
0.0367082
0.0367089
0.0367132
0.036706
0.0366975
0.0366806
0.0366606
0.0366343
0.0366048
0.0365708
0.0365339
0.0364939
0.0364517
0.0364071
0.0363606
0.0363121
0.0362617
0.0362089
0.0361537
0.0360956
0.0360343
0.0359691
0.0358995
0.035825
0.035745
0.0356589
0.035566
0.0354658
0.0353576
0.0352409
0.0351151
0.0349796
0.034834
0.0346778
0.0345107
0.0343326
0.0341437
0.0339442
0.033735
0.0335169
0.0332917
0.0330611
0.0328278
0.0325946
0.0323651
0.032143
0.0319327
0.0317389
0.0315663
0.0314198
0.0313045
0.031225
0.0311857
0.0311907
0.0312434
0.0313465
0.0315017
0.03171
0.0319709
0.0322833
0.0326442
0.0330499
0.0334949
0.0339729
0.034476
0.0349953
0.0355209
0.0360422
0.0365479
0.0370266
0.0374668
0.0378576
0.0381888
0.0384515
0.0386384
0.0387441
0.0387656
0.0387021
0.0385554
0.0383299
0.0380321
0.0376707
0.0372561
0.0367998
0.0363139
0.0358108
0.0353022
0.0347993
0.0343117
0.0338475
0.0334131
0.0330133
0.0326508
0.0323268
0.0320413
0.0317929
0.0315793
0.0313977
0.031245
0.0311176
0.0310125
0.0309263
0.0308562
0.0307994
0.0307541
0.0307177
0.0306893
0.0306667
0.0306498
0.0306364
0.0306277
0.0306207
0.0306187
0.0306164
0.0306213
0.0306232
0.030637
0.0306422
0.0306678
0.0366964
0.0367152
0.0367156
0.0367199
0.0367118
0.0367027
0.0366848
0.0366642
0.0366374
0.0366075
0.0365734
0.0365368
0.0364974
0.036456
0.0364126
0.0363677
0.036321
0.0362727
0.0362223
0.0361698
0.0361145
0.0360561
0.035994
0.0359277
0.0358563
0.0357794
0.0356963
0.0356061
0.0355081
0.0354016
0.0352859
0.0351599
0.0350231
0.0348746
0.0347137
0.0345398
0.0343527
0.0341523
0.0339387
0.0337126
0.0334751
0.0332278
0.0329729
0.0327131
0.0324518
0.0321928
0.0319403
0.0316992
0.0314745
0.0312713
0.031095
0.0309507
0.0308433
0.0307776
0.0307577
0.030787
0.0308683
0.0310034
0.0311934
0.031438
0.0317359
0.0320845
0.03248
0.0329173
0.0333901
0.0338907
0.0344105
0.0349396
0.0354677
0.0359834
0.0364753
0.0369318
0.0373417
0.0376947
0.0379812
0.0381936
0.0383258
0.0383741
0.0383372
0.0382163
0.0380152
0.03774
0.0373992
0.0370029
0.0365626
0.0360906
0.0355994
0.0351012
0.0346075
0.0341283
0.0336721
0.0332459
0.0328544
0.0325007
0.0321863
0.0319111
0.0316735
0.0314714
0.0313015
0.0311606
0.0310449
0.030951
0.0308754
0.030815
0.0307671
0.0307294
0.0306997
0.0306768
0.0306586
0.0306452
0.0306344
0.0306275
0.0306214
0.03062
0.0306176
0.0306227
0.0306238
0.0306388
0.0306438
0.0306738
0.0367097
0.0367294
0.0367296
0.0367339
0.036725
0.0367152
0.0366963
0.0366746
0.0366468
0.0366162
0.0365814
0.0365445
0.0365051
0.0364642
0.0364215
0.0363777
0.0363326
0.036286
0.0362377
0.0361874
0.0361346
0.0360787
0.0360191
0.035955
0.0358858
0.0358106
0.0357285
0.0356386
0.0355399
0.0354314
0.0353119
0.0351804
0.0350358
0.0348768
0.0347026
0.0345123
0.0343055
0.0340819
0.0338418
0.033586
0.0333158
0.0330333
0.032741
0.0324423
0.0321409
0.0318414
0.0315485
0.0312676
0.031004
0.0307634
0.0305512
0.030373
0.0302338
0.0301383
0.0300908
0.0300947
0.0301529
0.0302672
0.0304386
0.030667
0.0309511
0.0312886
0.0316757
0.0321077
0.0325783
0.0330803
0.0336052
0.0341435
0.0346847
0.035218
0.0357316
0.036214
0.0366538
0.0370401
0.037363
0.037614
0.0377863
0.0378755
0.0378791
0.0377976
0.0376339
0.0373935
0.0370841
0.0367157
0.0362994
0.0358478
0.0353734
0.0348888
0.034406
0.0339356
0.0334867
0.0330668
0.0326812
0.0323335
0.0320255
0.0317573
0.0315276
0.0313343
0.0311741
0.0310435
0.0309386
0.0308558
0.0307911
0.0307414
0.0307036
0.0306753
0.0306541
0.0306387
0.0306271
0.0306193
0.0306129
0.0306098
0.0306064
0.0306073
0.0306062
0.0306129
0.0306146
0.0306314
0.030637
0.0306707
0.0367282
0.0367478
0.0367475
0.036751
0.036741
0.0367299
0.0367097
0.0366868
0.0366577
0.0366262
0.0365909
0.0365537
0.0365144
0.0364739
0.0364322
0.0363896
0.036346
0.0363014
0.0362552
0.0362071
0.0361566
0.036103
0.0360454
0.035983
0.0359149
0.0358399
0.0357571
0.0356651
0.0355626
0.0354482
0.0353204
0.0351776
0.0350184
0.0348412
0.034645
0.0344286
0.0341916
0.0339339
0.0336559
0.0333588
0.0330444
0.0327154
0.0323749
0.0320269
0.0316758
0.0313268
0.0309851
0.0306565
0.0303467
0.0300616
0.0298069
0.0295882
0.0294106
0.0292789
0.0291973
0.0291692
0.0291976
0.0292843
0.0294303
0.0296357
0.0298994
0.0302193
0.0305919
0.0310128
0.0314763
0.0319755
0.0325023
0.0330477
0.0336016
0.0341532
0.0346914
0.0352044
0.0356807
0.036109
0.0364791
0.0367816
0.0370088
0.0371552
0.0372172
0.0371939
0.0370871
0.036901
0.0366427
0.036321
0.0359468
0.0355321
0.0350896
0.0346321
0.0341719
0.0337201
0.0332864
0.032879
0.032504
0.0321654
0.0318656
0.0316053
0.0313836
0.0311983
0.0310467
0.0309251
0.0308297
0.0307566
0.0307018
0.0306619
0.0306336
0.0306144
0.0306016
0.0305939
0.030589
0.030587
0.0305855
0.0305865
0.0305862
0.0305897
0.0305901
0.0305982
0.0306004
0.0306184
0.0306242
0.0306599
0.0367542
0.0367733
0.0367723
0.0367747
0.0367635
0.0367508
0.036729
0.0367046
0.0366742
0.0366414
0.0366051
0.0365674
0.0365278
0.0364875
0.0364463
0.0364046
0.0363622
0.0363189
0.0362742
0.0362277
0.0361786
0.036126
0.0360689
0.0360063
0.0359368
0.0358591
0.0357717
0.0356729
0.0355608
0.0354337
0.0352894
0.0351261
0.0349419
0.034735
0.0345041
0.0342484
0.0339673
0.0336613
0.0333312
0.0329789
0.032607
0.0322187
0.0318182
0.0314099
0.0309992
0.0305914
0.0301926
0.0298087
0.0294458
0.02911
0.028807
0.0285425
0.0283216
0.028149
0.028029
0.027965
0.0279598
0.0280153
0.0281327
0.0283121
0.0285527
0.0288525
0.0292086
0.0296169
0.0300721
0.030568
0.031097
0.0316505
0.0322192
0.0327928
0.0333602
0.03391
0.0344308
0.034911
0.0353399
0.0357073
0.0360046
0.0362249
0.0363632
0.0364172
0.0363869
0.0362751
0.0360873
0.0358312
0.0355166
0.0351551
0.0347589
0.034341
0.0339139
0.0334892
0.0330774
0.0326873
0.0323259
0.0319982
0.0317072
0.0314542
0.031239
0.0310601
0.0309148
0.0308
0.0307117
0.0306463
0.0305996
0.0305681
0.0305483
0.0305375
0.0305329
0.0305329
0.0305351
0.0305397
0.0305438
0.0305497
0.0305534
0.0305602
0.0305632
0.0305732
0.0305767
0.0305958
0.030602
0.0306387
0.0367865
0.0368043
0.0368024
0.0368031
0.0367903
0.0367757
0.0367522
0.0367259
0.036694
0.0366599
0.0366226
0.0365842
0.0365443
0.036504
0.0364632
0.0364222
0.0363806
0.0363383
0.0362946
0.0362488
0.0361999
0.0361469
0.0360885
0.0360231
0.0359492
0.0358648
0.0357679
0.0356564
0.0355278
0.0353797
0.0352097
0.0350154
0.0347946
0.0345456
0.0342672
0.0339586
0.0336201
0.0332524
0.0328575
0.0324378
0.0319969
0.0315387
0.0310682
0.0305907
0.0301119
0.0296378
0.0291747
0.0287288
0.0283065
0.0279139
0.0275568
0.0272408
0.026971
0.0267521
0.0265882
0.0264827
0.0264383
0.0264571
0.0265401
0.0266878
0.0268994
0.0271733
0.0275071
0.0278971
0.0283387
0.0288262
0.0293528
0.0299108
0.0304914
0.0310851
0.0316816
0.0322698
0.0328385
0.0333764
0.0338721
0.0343151
0.0346958
0.035006
0.0352391
0.0353909
0.0354594
0.0354454
0.0353524
0.0351863
0.0349554
0.03467
0.0343418
0.0339831
0.0336065
0.0332242
0.0328472
0.032485
0.0321457
0.0318351
0.0315574
0.0313146
0.0311075
0.0309351
0.0307956
0.030686
0.030603
0.0305431
0.0305022
0.0304769
0.0304636
0.0304595
0.0304615
0.0304681
0.0304766
0.0304869
0.0304963
0.0305068
0.0305145
0.0305245
0.0305299
0.0305417
0.0305463
0.030566
0.0305725
0.0306087
0.0368265
0.0368424
0.0368394
0.0368381
0.0368235
0.0368068
0.0367814
0.0367531
0.0367194
0.0366838
0.0366453
0.0366059
0.0365654
0.0365248
0.036484
0.036443
0.0364016
0.0363593
0.0363153
0.0362686
0.0362181
0.0361622
0.0360992
0.0360272
0.0359439
0.035847
0.0357337
0.0356011
0.0354464
0.0352666
0.0350588
0.0348203
0.0345491
0.0342436
0.0339028
0.0335269
0.0331165
0.0326736
0.0322008
0.0317018
0.0311807
0.0306426
0.0300931
0.029538
0.0289838
0.0284368
0.0279035
0.0273906
0.0269043
0.0264508
0.026036
0.0256653
0.0253438
0.025076
0.0248658
0.0247164
0.0246306
0.0246103
0.0246566
0.02477
0.0249499
0.0251951
0.0255034
0.0258717
0.0262961
0.0267715
0.0272921
0.0278509
0.0284402
0.0290514
0.0296749
0.0303007
0.0309179
0.0315155
0.0320824
0.0326077
0.033081
0.0334929
0.0338354
0.0341023
0.0342893
0.0343949
0.0344199
0.0343679
0.0342451
0.0340597
0.0338222
0.0335439
0.0332371
0.032914
0.0325861
0.0322638
0.0319561
0.0316701
0.031411
0.0311821
0.0309851
0.0308202
0.0306862
0.0305809
0.0305017
0.0304452
0.030408
0.0303867
0.0303777
0.0303783
0.0303854
0.0303971
0.0304108
0.0304262
0.0304404
0.0304553
0.0304668
0.0304799
0.030488
0.0305016
0.0305076
0.0305275
0.0305343
0.030569
0.0368735
0.0368871
0.0368827
0.0368788
0.0368624
0.0368432
0.0368157
0.0367853
0.0367498
0.0367125
0.0366726
0.0366321
0.0365908
0.0365496
0.0365082
0.0364667
0.0364245
0.036381
0.0363351
0.0362856
0.0362307
0.0361686
0.036097
0.0360132
0.0359145
0.0357976
0.0356592
0.0354958
0.0353038
0.0350799
0.034821
0.0345246
0.0341887
0.0338122
0.0333951
0.0329381
0.0324431
0.031913
0.0313515
0.0307632
0.0301532
0.0295274
0.0288921
0.0282537
0.0276191
0.026995
0.0263881
0.0258052
0.0252527
0.0247366
0.0242627
0.0238362
0.023462
0.0231443
0.0228868
0.0226925
0.022564
0.0225029
0.0225104
0.0225869
0.0227321
0.0229448
0.0232234
0.0235653
0.023967
0.0244243
0.0249324
0.0254853
0.0260763
0.0266979
0.0273418
0.0279989
0.0286594
0.0293131
0.0299493
0.0305572
0.0311262
0.0316461
0.0321075
0.0325025
0.0328247
0.0330696
0.0332353
0.0333224
0.033334
0.033276
0.0331562
0.0329846
0.0327722
0.0325307
0.0322718
0.0320066
0.0317449
0.031495
0.0312637
0.0310555
0.0308736
0.0307192
0.0305923
0.0304919
0.0304159
0.0303617
0.0303264
0.030307
0.0303001
0.0303032
0.0303131
0.0303281
0.0303453
0.0303642
0.030382
0.0304001
0.0304147
0.0304304
0.0304407
0.0304557
0.0304628
0.0304824
0.0304892
0.0305216
0.0369286
0.0369391
0.0369332
0.0369265
0.036908
0.0368862
0.0368566
0.0368238
0.0367865
0.0367472
0.0367059
0.036664
0.0366214
0.0365789
0.0365362
0.036493
0.0364487
0.0364022
0.0363521
0.0362968
0.0362339
0.0361609
0.036075
0.0359727
0.0358504
0.0357043
0.0355301
0.0353238
0.0350814
0.0347995
0.034475
0.0341057
0.0336903
0.0332285
0.0327213
0.0321706
0.0315793
0.0309515
0.030292
0.0296064
0.0289009
0.0281819
0.0274565
0.0267316
0.0260145
0.0253122
0.0246316
0.0239794
0.0233619
0.022785
0.0222543
0.0217746
0.0213504
0.0209856
0.0206835
0.0204468
0.0202776
0.0201775
0.0201474
0.0201876
0.0202978
0.0204772
0.0207243
0.0210369
0.0214122
0.0218468
0.0223366
0.0228767
0.0234617
0.0240853
0.0247405
0.0254194
0.0261138
0.0268145
0.0275118
0.0281955
0.0288555
0.0294812
0.0300627
0.0305905
0.0310563
0.0314532
0.0317762
0.0320226
0.032192
0.0322867
0.0323116
0.0322737
0.0321822
0.0320474
0.0318804
0.0316925
0.0314942
0.0312951
0.0311032
0.0309248
0.0307646
0.0306255
0.0305089
0.030415
0.0303427
0.0302905
0.0302561
0.030237
0.0302305
0.0302341
0.0302449
0.0302611
0.03028
0.0303009
0.0303209
0.0303413
0.0303582
0.0303757
0.0303878
0.0304036
0.0304117
0.0304306
0.0304374
0.0304668
0.0369914
0.0369982
0.0369907
0.0369806
0.0369601
0.0369354
0.0369037
0.0368685
0.0368292
0.0367879
0.0367448
0.0367011
0.0366568
0.0366123
0.0365672
0.0365211
0.0364728
0.0364209
0.0363637
0.0362986
0.036223
0.0361334
0.0360262
0.035897
0.0357416
0.0355551
0.0353329
0.0350705
0.0347638
0.0344094
0.0340046
0.0335481
0.0330394
0.0324795
0.0318704
0.0312154
0.0305186
0.0297854
0.0290217
0.0282341
0.0274296
0.0266155
0.0257993
0.0249886
0.0241908
0.0234131
0.0226624
0.0219452
0.0212676
0.0206353
0.0200531
0.0195257
0.0190569
0.0186502
0.0183083
0.0180334
0.0178274
0.0176914
0.0176261
0.0176316
0.0177077
0.0178535
0.0180677
0.0183487
0.018694
0.019101
0.0195663
0.0200861
0.0206562
0.0212714
0.0219262
0.0226145
0.0233292
0.0240629
0.0248072
0.0255534
0.026292
0.0270131
0.0277067
0.0283628
0.0289718
0.0295248
0.0300141
0.0304336
0.0307792
0.0310491
0.0312443
0.031368
0.0314262
0.0314267
0.0313789
0.0312934
0.0311809
0.0310517
0.0309152
0.0307795
0.0306511
0.0305348
0.0304338
0.0303498
0.0302833
0.0302338
0.0302001
0.0301806
0.030173
0.0301754
0.0301851
0.0302007
0.0302194
0.0302405
0.0302611
0.0302822
0.0303001
0.0303184
0.0303315
0.0303474
0.030356
0.0303738
0.0303803
0.0304064
0.0370623
0.0370648
0.0370555
0.0370418
0.0370192
0.0369915
0.0369577
0.0369199
0.0368786
0.0368351
0.0367899
0.0367438
0.036697
0.0366495
0.0366007
0.0365496
0.0364949
0.0364346
0.0363661
0.0362864
0.0361919
0.0360784
0.0359412
0.0357753
0.0355753
0.035336
0.0350523
0.0347196
0.0343339
0.0338923
0.0333932
0.032836
0.0322217
0.0315525
0.0308318
0.0300644
0.0292558
0.0284126
0.0275417
0.0266507
0.0257476
0.0248403
0.0239369
0.023045
0.0221724
0.021326
0.0205127
0.0197387
0.0190095
0.0183302
0.0177052
0.0171385
0.0166333
0.0161924
0.0158179
0.0155117
0.0152749
0.0151084
0.0150125
0.0149872
0.015032
0.0151462
0.0153286
0.0155776
0.0158915
0.016268
0.0167044
0.017198
0.0177453
0.0183427
0.0189858
0.0196701
0.0203901
0.0211402
0.0219138
0.0227036
0.0235019
0.0243
0.0250887
0.0258583
0.0265989
0.0273005
0.0279534
0.0285488
0.0290792
0.0295386
0.0299234
0.0302323
0.0304669
0.0306312
0.0307316
0.0307766
0.030776
0.03074
0.030679
0.0306026
0.0305193
0.0304361
0.0303582
0.0302896
0.0302323
0.0301877
0.0301557
0.0301357
0.0301264
0.0301265
0.0301338
0.030147
0.0301638
0.0301834
0.030203
0.0302234
0.0302411
0.0302591
0.0302723
0.0302877
0.0302963
0.0303125
0.0303187
0.0303413
0.0371412
0.0371384
0.0371274
0.0371097
0.0370851
0.0370543
0.0370184
0.036978
0.0369345
0.0368884
0.0368407
0.0367916
0.0367414
0.0366894
0.036635
0.0365766
0.0365123
0.0364395
0.0363549
0.0362545
0.0361338
0.0359876
0.0358104
0.0355963
0.0353393
0.0350338
0.0346745
0.0342571
0.0337782
0.0332359
0.0326296
0.0319602
0.0312302
0.0304434
0.0296047
0.0287203
0.0277972
0.0268431
0.0258662
0.024875
0.0238781
0.0228839
0.0219008
0.0209366
0.0199987
0.0190941
0.0182289
0.0174088
0.0166388
0.0159232
0.0152657
0.0146695
0.0141371
0.0136707
0.0132717
0.0129414
0.0126805
0.0124893
0.012368
0.0123162
0.0123334
0.0124187
0.012571
0.0127889
0.013071
0.0134154
0.01382
0.0142827
0.0148011
0.0153723
0.0159935
0.0166614
0.0173722
0.0181218
0.0189055
0.0197182
0.0205538
0.0214055
0.0222657
0.023126
0.0239772
0.0248092
0.0256118
0.0263743
0.0270865
0.0277389
0.0283236
0.0288343
0.0292673
0.0296215
0.0298991
0.0301046
0.0302453
0.0303302
0.0303696
0.0303739
0.0303535
0.0303175
0.0302736
0.0302283
0.0301859
0.0301498
0.0301216
0.0301022
0.0300912
0.0300884
0.0300922
0.0301018
0.0301151
0.0301316
0.0301487
0.0301669
0.0301829
0.0301995
0.0302117
0.0302258
0.0302338
0.0302482
0.0302537
0.0302729
0.0372278
0.037219
0.0372062
0.0371842
0.0371577
0.0371237
0.0370857
0.0370426
0.0369967
0.0369476
0.0368969
0.0368438
0.0367888
0.0367306
0.0366682
0.0365993
0.0365215
0.0364312
0.0363243
0.0361958
0.0360402
0.0358513
0.0356228
0.035348
0.0350207
0.034635
0.034186
0.0336701
0.0330848
0.0324297
0.0317055
0.030915
0.0300622
0.0291525
0.0281928
0.0271906
0.0261544
0.025093
0.0240156
0.0229314
0.0218496
0.0207787
0.0197272
0.0187027
0.0177122
0.016762
0.0158576
0.015004
0.0142053
0.013465
0.012786
0.0121706
0.0116207
0.0111376
0.0107224
0.0103755
0.0100974
0.00988795
0.0097469
0.00967373
0.00966771
0.00972792
0.00985326
0.0100425
0.0102942
0.010607
0.0109791
0.011409
0.0118948
0.0124346
0.0130265
0.0136684
0.0143578
0.0150922
0.0158687
0.0166839
0.0175339
0.0184141
0.0193189
0.0202418
0.0211752
0.0221104
0.0230377
0.023946
0.0248239
0.0256596
0.0264414
0.0271587
0.0278024
0.0283657
0.0288449
0.0292392
0.0295514
0.0297876
0.0299561
0.0300671
0.0301319
0.0301615
0.0301663
0.0301553
0.030136
0.030114
0.0300932
0.0300764
0.0300649
0.0300593
0.0300591
0.0300642
0.0300729
0.0300849
0.030098
0.0301127
0.0301258
0.0301397
0.03015
0.0301621
0.030169
0.0301812
0.0301859
0.030202
0.0373215
0.0373059
0.0372912
0.0372648
0.0372364
0.0371991
0.0371592
0.037113
0.0370646
0.037012
0.0369572
0.036899
0.0368375
0.0367708
0.0366974
0.0366142
0.0365181
0.0364043
0.0362679
0.0361027
0.0359023
0.0356596
0.0353675
0.035019
0.0346077
0.0341281
0.0335762
0.0329492
0.0322463
0.0314686
0.0306187
0.0297012
0.0287219
0.0276883
0.0266087
0.0254922
0.0243485
0.0231876
0.0220193
0.0208534
0.019699
0.0185649
0.0174589
0.0163882
0.0153591
0.0143771
0.0134469
0.0125724
0.0117569
0.0110029
0.0103126
0.00968741
0.00912853
0.00863668
0.00821226
0.00785541
0.00756598
0.00734364
0.00718783
0.00709783
0.00707278
0.00711168
0.00721341
0.0073768
0.00760057
0.00788341
0.00822401
0.00862101
0.00907311
0.00957899
0.0101374
0.010747
0.0114067
0.012115
0.0128705
0.0136715
0.014516
0.0154014
0.0163245
0.0172812
0.018266
0.0192725
0.0202926
0.0213164
0.0223328
0.0233293
0.0242922
0.0252076
0.0260618
0.0268424
0.0275393
0.0281453
0.028657
0.029075
0.0294038
0.0296515
0.0298287
0.0299473
0.03002
0.0300585
0.0300735
0.0300737
0.0300659
0.0300554
0.0300453
0.0300378
0.0300338
0.0300339
0.0300372
0.0300437
0.0300516
0.0300614
0.0300705
0.0300806
0.030088
0.0300974
0.0301024
0.0301124
0.0301161
0.0301295
0.0374214
0.0373982
0.0373818
0.0373506
0.0373205
0.03728
0.037238
0.0371886
0.0371371
0.0370802
0.0370204
0.0369554
0.0368853
0.0368072
0.0367191
0.036617
0.0364966
0.0363524
0.0361781
0.0359666
0.0357106
0.0354021
0.0350336
0.0345982
0.0340897
0.0335035
0.0328367
0.0320881
0.0312588
0.0303517
0.0293715
0.0283248
0.0272195
0.0260648
0.0248706
0.0236474
0.0224061
0.0211571
0.019911
0.0186773
0.0174652
0.0162829
0.0151375
0.0140353
0.0129819
0.0119815
0.0110379
0.0101541
0.00933233
0.00857429
0.00788125
0.00725405
0.00669317
0.00619883
0.00577095
0.00540929
0.00511339
0.00488265
0.00471634
0.00461358
0.0045734
0.00459477
0.00467654
0.00481755
0.00501661
0.00527252
0.0055841
0.00595023
0.00636988
0.00684211
0.0073661
0.00794118
0.0085668
0.00924252
0.00996799
0.0107428
0.0115666
0.0124386
0.0133576
0.0143219
0.0153286
0.0163738
0.017452
0.0185557
0.0196756
0.0208
0.0219154
0.0230064
0.0240564
0.0250487
0.025967
0.0267975
0.0275294
0.0281561
0.0286759
0.0290922
0.0294126
0.0296485
0.0298132
0.029921
0.0299856
0.0300194
0.0300326
0.0300337
0.0300283
0.030021
0.030014
0.0300091
0.0300065
0.0300068
0.0300086
0.0300126
0.0300164
0.0300219
0.0300256
0.0300315
0.0300343
0.0300418
0.0300444
0.0300556
0.0375263
0.0374947
0.0374765
0.0374404
0.0374088
0.0373649
0.0373207
0.0372678
0.0372126
0.0371504
0.0370842
0.0370104
0.036929
0.0368361
0.0367289
0.0366023
0.036451
0.0362683
0.0360469
0.0357787
0.0354554
0.0350688
0.0346114
0.0340763
0.0334585
0.0327545
0.031963
0.031085
0.0301234
0.0290835
0.0279722
0.0267981
0.0255712
0.0243024
0.0230029
0.0216845
0.0203585
0.019036
0.0177272
0.0164416
0.0151875
0.0139724
0.0128024
0.0116828
0.0106178
0.00961087
0.00866456
0.00778083
0.00696107
0.00620621
0.00551681
0.00489308
0.00433503
0.00384242
0.00341488
0.00305185
0.00275269
0.00251663
0.00234281
0.00223029
0.00217805
0.002185
0.00225003
0.00237198
0.0025497
0.00278205
0.00306793
0.00340634
0.00379638
0.00423731
0.00472856
0.00526978
0.00586084
0.00650186
0.00719319
0.00793534
0.00872901
0.00957486
0.0104735
0.011425
0.0124291
0.0134844
0.0145883
0.0157363
0.0169219
0.0181361
0.0193671
0.0206001
0.0218181
0.0230017
0.0241307
0.0251851
0.0261468
0.027001
0.0277378
0.0283534
0.0288497
0.0292345
0.0295203
0.0297222
0.0298565
0.0299393
0.0299849
0.0300052
0.0300097
0.0300055
0.0299972
0.0299881
0.0299797
0.0299733
0.0299683
0.0299656
0.0299635
0.0299634
0.0299626
0.0299646
0.0299645
0.0299695
0.0299708
0.0299804
0.0376344
0.0375936
0.0375739
0.0375327
0.0374998
0.0374522
0.0374058
0.0373487
0.037289
0.0372203
0.0371459
0.0370609
0.036965
0.036853
0.0367216
0.0365641
0.0363744
0.0361444
0.0358659
0.0355298
0.0351276
0.0346508
0.0340922
0.0334459
0.0327082
0.0318774
0.0309542
0.0299418
0.0288457
0.0276732
0.0264339
0.0251382
0.0237981
0.0224257
0.0210337
0.0196342
0.018239
0.0168588
0.0155036
0.014182
0.0129013
0.0116677
0.0104864
0.00936136
0.00829559
0.0072914
0.00635038
0.00547358
0.0046616
0.00391471
0.00323289
0.00261593
0.00206344
0.00157493
0.00114978
0.000787313
0.000486752
0.000247261
6.7938e-05
-5.21822e-05
-0.00011412
-0.000118946
-6.77664e-05
3.82905e-05
0.000198094
0.000410535
0.000674558
0.000989192
0.00135359
0.00176707
0.00222915
0.00273961
0.00329849
0.00390616
0.00456333
0.00527103
0.00603061
0.00684366
0.00771193
0.00863716
0.00962086
0.010664
0.0117666
0.0129275
0.0141434
0.0154086
0.0167147
0.0180495
0.0193976
0.0207398
0.0220541
0.0233167
0.0245033
0.0255914
0.026562
0.0274018
0.0281047
0.0286717
0.029111
0.0294367
0.029666
0.029818
0.0299111
0.0299617
0.0299834
0.029987
0.0299801
0.0299682
0.0299545
0.0299414
0.0299293
0.0299194
0.0299106
0.0299044
0.0298984
0.029896
0.0298927
0.0298952
0.029895
0.0299036
0.0377436
0.0376929
0.0376718
0.0376253
0.0375912
0.0375399
0.0374908
0.0374288
0.0373637
0.0372868
0.037202
0.0371028
0.0369887
0.0368529
0.0366913
0.0364959
0.0362594
0.0359726
0.0356265
0.0352114
0.0347187
0.0341402
0.0334695
0.0327022
0.0318364
0.0308724
0.0298135
0.0286653
0.0274358
0.026135
0.0247744
0.0233665
0.0219248
0.0204626
0.0189929
0.0175283
0.0160802
0.0146587
0.0132728
0.01193
0.0106363
0.00939676
0.00821502
0.00709386
0.0060352
0.00504027
0.00410979
0.00324404
0.00244298
0.00170639
0.00103384
0.000424815
-0.00012128
-0.000605103
-0.00102736
-0.00138879
-0.00169019
-0.00193239
-0.00211627
-0.00224276
-0.00231285
-0.00232756
-0.00228795
-0.00219513
-0.0020502
-0.00185424
-0.00160829
-0.00131334
-0.000970239
-0.000579684
-0.000142176
0.000342041
0.00087302
0.00145116
0.00207726
0.00275252
0.00347856
0.00425745
0.00509161
0.00598373
0.00693664
0.00795305
0.00903526
0.0101847
0.0114014
0.0126834
0.0140261
0.0154214
0.0168572
0.018317
0.0197799
0.0212209
0.0226123
0.0239256
0.0251335
0.0262126
0.0271463
0.0279262
0.0285528
0.0290354
0.0293898
0.0296364
0.029797
0.0298927
0.029942
0.0299603
0.0299589
0.0299467
0.0299288
0.0299095
0.0298901
0.0298728
0.0298567
0.029844
0.0298323
0.0298252
0.0298183
0.0298182
0.0298165
0.0298246
0.0378513
0.03779
0.0377676
0.0377158
0.0376805
0.0376251
0.037573
0.0375052
0.0374332
0.0373462
0.0372484
0.0371316
0.0369948
0.0368299
0.0366315
0.0363904
0.0360983
0.0357449
0.0353207
0.0348158
0.0342217
0.0335311
0.0327392
0.0318432
0.0308435
0.029743
0.0285477
0.0272658
0.0259079
0.0244864
0.0230147
0.0215071
0.019978
0.0184413
0.0169103
0.0153969
0.013912
0.0124645
0.0110621
0.00971083
0.00841548
0.00717951
0.00600533
0.00489453
0.00384798
0.00286605
0.0019487
0.00109564
0.000306388
-0.000419639
-0.00108309
-0.00168464
-0.00222498
-0.00270481
-0.00312482
-0.00348574
-0.0037883
-0.00403327
-0.00422145
-0.00435371
-0.00443096
-0.00445415
-0.0044243
-0.00434244
-0.00420966
-0.00402701
-0.00379555
-0.00351627
-0.00319006
-0.00281769
-0.00239974
-0.00193655
-0.00142817
-0.000874332
-0.000274338
0.000372943
0.00106913
0.00181637
0.0026173
0.00347508
0.00439324
0.00537558
0.00642595
0.00754785
0.00874405
0.0100159
0.0113628
0.0127809
0.0142629
0.0157966
0.0173645
0.0189438
0.0205066
0.0220212
0.0234543
0.0247736
0.0259516
0.0269681
0.0278128
0.0284865
0.0289997
0.0293712
0.0296246
0.029785
0.029876
0.0299186
0.029929
0.02992
0.0299
0.0298753
0.029849
0.0298241
0.0298006
0.0297811
0.0297633
0.0297512
0.0297404
0.0297377
0.0297344
0.0297424
0.0379542
0.0378818
0.0378584
0.037801
0.0377645
0.0377046
0.0376488
0.0375741
0.0374936
0.0373942
0.0372804
0.0371421
0.0369777
0.0367775
0.0365354
0.0362404
0.0358836
0.0354538
0.0349413
0.0343363
0.0336311
0.0328199
0.0318996
0.0308699
0.0297336
0.0284965
0.0271674
0.0257573
0.0242793
0.0227478
0.0211779
0.0195852
0.0179843
0.0163895
0.0148133
0.0132669
0.0117598
0.0102996
0.00889254
0.00754303
0.00625436
0.00502864
0.0038671
0.00277027
0.00173816
0.000770445
-0.000133451
-0.000974224
-0.00175263
-0.00246943
-0.00312537
-0.00372116
-0.00425747
-0.00473494
-0.00515421
-0.00551588
-0.00582059
-0.00606901
-0.00626182
-0.00639979
-0.00648373
-0.00651452
-0.00649309
-0.00642043
-0.00629756
-0.00612554
-0.00590541
-0.00563818
-0.0053248
-0.00496611
-0.00456281
-0.00411537
-0.00362403
-0.0030887
-0.00250891
-0.00188376
-0.00121184
-0.000491184
0.000280746
0.00110711
0.00199166
0.00293869
0.00395286
0.00503904
0.00620191
0.00744547
0.00877243
0.0101833
0.0116754
0.013242
0.0148707
0.0165432
0.0182347
0.0199139
0.0215451
0.0230898
0.024511
0.0257764
0.0268628
0.0277587
0.0284653
0.0289957
0.0293721
0.0296219
0.0297735
0.0298536
0.0298846
0.0298842
0.0298651
0.0298367
0.0298041
0.0297719
0.0297409
0.0297143
0.0296902
0.029673
0.0296581
0.0296527
0.0296477
0.0296557
0.0380486
0.0379648
0.0379404
0.0378774
0.0378396
0.0377747
0.0377143
0.0376312
0.0375404
0.0374259
0.0372925
0.0371284
0.0369311
0.0366893
0.0363958
0.0360386
0.035608
0.0350923
0.034482
0.0337678
0.0329436
0.0320052
0.030952
0.0297861
0.0285136
0.027143