/*--------------------------------*- C++ -*----------------------------------*\
| =========                 |                                                 |
| \\      /  F ield         | OpenFOAM: The Open Source CFD Toolbox           |
|  \\    /   O peration     | Version:  2406                                  |
|   \\  /    A nd           | Website:  www.openfoam.com                      |
|    \\/     M anipulation  |                                                 |
\*---------------------------------------------------------------------------*/
FoamFile
{
    version     2.0;
    format      ascii;
    arch        "LSB;label=32;scalar=64";
    class       volVectorField;
    location    "38.2";
    object      Uc;
}
// * * * * * * * * * * * * * * * * * * * * * * * * * * * * * * * * * * * * * //

dimensions      [0 1 -1 0 0 0 0];

internalField   nonuniform List<vector> 
900
(
(0.000280484 -0.000497564 0)
(0.00340708 -0.00119742 0)
(0.00697078 -0.000959742 0)
(0.00846398 -0.000551844 0)
(0.0089493 -0.000497523 0)
(0.00882386 -0.000789384 0)
(0.00877265 -0.00119858 0)
(0.00860012 -0.00166181 0)
(0.00756818 -0.00303902 0)
(0.00313172 -0.00483543 0)
(-0.00708916 -0.0031504 0)
(-0.0243903 0.00330813 0)
(-0.047811 0.0098265 0)
(-0.0728136 0.012503 0)
(-0.0949539 0.0119286 0)
(-0.11191 0.00970998 0)
(-0.122336 0.00654227 0)
(-0.125355 0.00281091 0)
(-0.120642 -0.00123926 0)
(-0.107795 -0.00536001 0)
(-0.087473 -0.00919032 0)
(-0.0600901 -0.0121372 0)
(-0.0287874 -0.0133692 0)
(0.00383092 -0.01185 0)
(0.0299649 -0.00642287 0)
(0.0440373 0.00114344 0)
(0.0402933 0.00712676 0)
(0.0261528 0.0074181 0)
(0.012342 0.00497395 0)
(0.00155527 0.00191429 0)
(0.00113825 -0.00318314 0)
(0.00655147 -0.00564986 0)
(0.0118042 -0.00410297 0)
(0.0134927 -0.00146623 0)
(0.012775 0.000173299 0)
(0.00954566 0.000973772 0)
(0.00329072 0.00145218 0)
(-0.00951993 0.00284331 0)
(-0.0322314 0.00864031 0)
(-0.0648274 0.0199832 0)
(-0.102587 0.0312879 0)
(-0.138342 0.0377786 0)
(-0.167881 0.0385591 0)
(-0.190539 0.0343544 0)
(-0.206666 0.0268705 0)
(-0.216184 0.0174006 0)
(-0.218933 0.00665772 0)
(-0.214734 -0.00488358 0)
(-0.203451 -0.016859 0)
(-0.184843 -0.0288083 0)
(-0.159107 -0.0398022 0)
(-0.126483 -0.0484647 0)
(-0.0886167 -0.0523255 0)
(-0.0478556 -0.0487252 0)
(-0.00936251 -0.0343195 0)
(0.0205381 -0.0117487 0)
(0.0329651 0.0111845 0)
(0.0276281 0.0202592 0)
(0.0160702 0.019948 0)
(0.00238446 0.0119131 0)
(0.00195883 -0.0080941 0)
(0.00785413 -0.0119562 0)
(0.0118167 -0.00786556 0)
(0.010705 -0.00157717 0)
(0.00529852 0.00343041 0)
(-0.00647443 0.00859729 0)
(-0.0281104 0.0177873 0)
(-0.0622894 0.0337994 0)
(-0.105447 0.0518388 0)
(-0.14827 0.0643351 0)
(-0.184678 0.0690026 0)
(-0.213332 0.0674491 0)
(-0.234624 0.060778 0)
(-0.249603 0.049916 0)
(-0.259255 0.0362671 0)
(-0.26404 0.020768 0)
(-0.264264 0.00399447 0)
(-0.259875 -0.0138034 0)
(-0.250701 -0.032303 0)
(-0.236259 -0.0511779 0)
(-0.216045 -0.0691367 0)
(-0.189467 -0.0845976 0)
(-0.156108 -0.0935612 0)
(-0.116748 -0.0924147 0)
(-0.0726514 -0.0745738 0)
(-0.0299765 -0.0407713 0)
(0.00274644 0.000826256 0)
(0.0108765 0.023783 0)
(0.0089116 0.0300744 0)
(0.000245894 0.0197507 0)
(0.00249871 -0.0129028 0)
(0.00663067 -0.0155869 0)
(0.00606676 -0.00684726 0)
(-0.00151617 0.00512177 0)
(-0.0170706 0.017451 0)
(-0.0440726 0.0344168 0)
(-0.0833735 0.0570976 0)
(-0.128629 0.0794491 0)
(-0.170403 0.0937095 0)
(-0.204214 0.0984737 0)
(-0.230155 0.0955946 0)
(-0.248846 0.0869636 0)
(-0.261412 0.0741403 0)
(-0.269278 0.0584202 0)
(-0.273642 0.0408566 0)
(-0.275223 0.0219762 0)
(-0.274502 0.00202648 0)
(-0.271561 -0.0191172 0)
(-0.266337 -0.0413557 0)
(-0.258306 -0.0648157 0)
(-0.24674 -0.0882618 0)
(-0.230312 -0.110619 0)
(-0.207242 -0.127128 0)
(-0.175919 -0.134041 0)
(-0.134138 -0.121294 0)
(-0.0847623 -0.0867472 0)
(-0.0320151 -0.0281704 0)
(-0.00189512 0.014147 0)
(0.00323498 0.0310208 0)
(-0.00146462 0.0210645 0)
(0.00223507 -0.017202 0)
(0.0020277 -0.015607 0)
(-0.00583674 0.000363073 0)
(-0.0229078 0.0215689 0)
(-0.0508163 0.0458764 0)
(-0.0896452 0.0744283 0)
(-0.133419 0.101548 0)
(-0.173253 0.119857 0)
(-0.2044 0.126201 0)
(-0.226851 0.122808 0)
(-0.241839 0.112622 0)
(-0.250706 0.0980216 0)
(-0.255269 0.0807618 0)
(-0.25686 0.0618846 0)
(-0.256759 0.042125 0)
(-0.255582 0.0216346 0)
(-0.253962 0.000442014 0)
(-0.252001 -0.0219181 0)
(-0.249961 -0.0455196 0)
(-0.24745 -0.071063 0)
(-0.244175 -0.0976236 0)
(-0.238592 -0.125213 0)
(-0.228744 -0.149302 0)
(-0.21104 -0.167146 0)
(-0.180964 -0.166723 0)
(-0.135683 -0.143188 0)
(-0.0747074 -0.0817735 0)
(-0.0148962 -0.0117176 0)
(0.00304546 0.029839 0)
(-0.00159263 0.0212683 0)
(0.000417764 -0.0170638 0)
(-0.0068609 -0.00736418 0)
(-0.0236801 0.0183664 0)
(-0.0499355 0.0502499 0)
(-0.0856366 0.0839981 0)
(-0.126101 0.116486 0)
(-0.163849 0.139838 0)
(-0.192725 0.149465 0)
(-0.212011 0.146603 0)
(-0.223439 0.135609 0)
(-0.228769 0.119463 0)
(-0.22992 0.100693 0)
(-0.228639 0.0808047 0)
(-0.22609 0.0605679 0)
(-0.223302 0.0403601 0)
(-0.220595 0.0199941 0)
(-0.21847 -0.000653277 0)
(-0.21685 -0.0222937 0)
(-0.216216 -0.0450068 0)
(-0.216308 -0.0699716 0)
(-0.217646 -0.0965278 0)
(-0.219127 -0.12608 0)
(-0.219993 -0.155017 0)
(-0.216306 -0.182927 0)
(-0.203139 -0.197871 0)
(-0.173537 -0.194292 0)
(-0.120935 -0.149412 0)
(-0.0483311 -0.0643579 0)
(0.00636054 0.0181742 0)
(-0.0021109 0.0224907 0)
(-0.00231098 -0.0109086 0)
(-0.0170765 0.00851515 0)
(-0.041526 0.0433909 0)
(-0.0729806 0.0832959 0)
(-0.109767 0.121399 0)
(-0.145205 0.151709 0)
(-0.173353 0.167204 0)
(-0.191197 0.167342 0)
(-0.200711 0.156584 0)
(-0.203945 0.139609 0)
(-0.203102 0.119446 0)
(-0.200145 0.0984501 0)
(-0.196517 0.077627 0)
(-0.192975 0.0573097 0)
(-0.19009 0.0374807 0)
(-0.187743 0.0176534 0)
(-0.186183 -0.00232176 0)
(-0.185015 -0.0232447 0)
(-0.184772 -0.0449146 0)
(-0.185039 -0.0686577 0)
(-0.186942 -0.0935634 0)
(-0.189723 -0.122069 0)
(-0.194391 -0.151281 0)
(-0.197998 -0.183978 0)
(-0.197829 -0.209967 0)
(-0.186033 -0.226862 0)
(-0.152021 -0.207867 0)
(-0.0935385 -0.141893 0)
(-0.00580363 -0.0151108 0)
(0.00370702 0.0249485 0)
(-0.00512422 0.00213113 0)
(-0.0260396 0.031944 0)
(-0.0550544 0.0740739 0)
(-0.0874094 0.118114 0)
(-0.120941 0.155416 0)
(-0.148745 0.179292 0)
(-0.16742 0.185283 0)
(-0.17651 0.176749 0)
(-0.179189 0.159659 0)
(-0.177463 0.138603 0)
(-0.173765 0.116406 0)
(-0.169638 0.0949051 0)
(-0.166051 0.0744387 0)
(-0.163273 0.0548906 0)
(-0.161464 0.0358869 0)
(-0.160206 0.0167482 0)
(-0.159642 -0.00262681 0)
(-0.159165 -0.0230962 0)
(-0.1594 -0.0441336 0)
(-0.159621 -0.0671792 0)
(-0.161273 -0.0907841 0)
(-0.163328 -0.117951 0)
(-0.167992 -0.145576 0)
(-0.172891 -0.178954 0)
(-0.178439 -0.209522 0)
(-0.177445 -0.240328 0)
(-0.162089 -0.244143 0)
(-0.123224 -0.211579 0)
(-0.0435848 -0.0797605 0)
(0.0181933 0.0205321 0)
(-0.00675283 0.0195908 0)
(-0.0309657 0.0580618 0)
(-0.0612141 0.10393 0)
(-0.0914339 0.148304 0)
(-0.11982 0.181669 0)
(-0.140095 0.197477 0)
(-0.151379 0.194696 0)
(-0.154616 0.179316 0)
(-0.153488 0.158014 0)
(-0.149636 0.134828 0)
(-0.145531 0.112305 0)
(-0.141919 0.0913961 0)
(-0.139476 0.0719143 0)
(-0.137937 0.0533035 0)
(-0.137342 0.0350424 0)
(-0.137042 0.016358 0)
(-0.137284 -0.00268565 0)
(-0.137247 -0.0229917 0)
(-0.137772 -0.0436656 0)
(-0.137735 -0.066313 0)
(-0.138939 -0.0888684 0)
(-0.139783 -0.114857 0)
(-0.143391 -0.140477 0)
(-0.147228 -0.172951 0)
(-0.154362 -0.204381 0)
(-0.158279 -0.24294 0)
(-0.155418 -0.26389 0)
(-0.131708 -0.260438 0)
(-0.0783114 -0.161742 0)
(0.0109987 0.00131112 0)
(-0.00717641 0.0391466 0)
(-0.0320483 0.0859431 0)
(-0.0611608 0.133537 0)
(-0.0876799 0.175829 0)
(-0.110498 0.203195 0)
(-0.124399 0.210578 0)
(-0.130431 0.2 0)
(-0.130265 0.179466 0)
(-0.127436 0.155421 0)
(-0.123264 0.131434 0)
(-0.119888 0.109424 0)
(-0.117378 0.089499 0)
(-0.11623 0.0710721 0)
(-0.11581 0.0532638 0)
(-0.116251 0.0355579 0)
(-0.116732 0.0171081 0)
(-0.117732 -0.00182232 0)
(-0.118176 -0.0222571 0)
(-0.119202 -0.0429385 0)
(-0.11918 -0.0657204 0)
(-0.120297 -0.0878303 0)
(-0.120107 -0.113225 0)
(-0.122481 -0.136929 0)
(-0.124121 -0.167573 0)
(-0.130536 -0.197077 0)
(-0.135718 -0.238777 0)
(-0.140354 -0.27062 0)
(-0.129288 -0.289854 0)
(-0.0935274 -0.224918 0)
(-0.0201786 -0.0451779 0)
(-0.0063633 0.0578722 0)
(-0.0295587 0.111239 0)
(-0.0555675 0.158271 0)
(-0.0776042 0.196613 0)
(-0.0952984 0.2176 0)
(-0.10444 0.217316 0)
(-0.107404 0.200888 0)
(-0.105731 0.176922 0)
(-0.102721 0.151645 0)
(-0.0991895 0.127881 0)
(-0.0969604 0.106954 0)
(-0.0955468 0.088184 0)
(-0.0954619 0.0708028 0)
(-0.0957929 0.0536798 0)
(-0.0969212 0.0364397 0)
(-0.0978289 0.0181505 0)
(-0.0993323 -0.000679175 0)
(-0.100035 -0.0212604 0)
(-0.101514 -0.0419696 0)
(-0.101568 -0.0650485 0)
(-0.102976 -0.0870652 0)
(-0.102302 -0.112587 0)
(-0.104166 -0.135306 0)
(-0.103775 -0.164726 0)
(-0.108461 -0.191296 0)
(-0.111677 -0.232577 0)
(-0.119261 -0.26943 0)
(-0.115538 -0.307959 0)
(-0.0919618 -0.272408 0)
(-0.035737 -0.113889 0)
(-0.00476442 0.0743322 0)
(-0.0246906 0.134443 0)
(-0.0467645 0.180439 0)
(-0.0643458 0.214783 0)
(-0.0776312 0.229603 0)
(-0.0834307 0.222993 0)
(-0.084623 0.201925 0)
(-0.0825217 0.175599 0)
(-0.0799337 0.149644 0)
(-0.0773219 0.126357 0)
(-0.0761107 0.10638 0)
(-0.0755422 0.0884889 0)
(-0.0761868 0.0718323 0)
(-0.0769792 0.0551052 0)
(-0.0785816 0.038128 0)
(-0.0797519 0.0198363 0)
(-0.0816844 0.00100569 0)
(-0.082563 -0.0198327 0)
(-0.0844925 -0.0406463 0)
(-0.0845924 -0.0641334 0)
(-0.0864266 -0.0861616 0)
(-0.0855002 -0.112059 0)
(-0.0875091 -0.134297 0)
(-0.0858863 -0.163342 0)
(-0.089583 -0.187693 0)
(-0.0901639 -0.227645 0)
(-0.097891 -0.265462 0)
(-0.0965153 -0.317331 0)
(-0.081473 -0.308042 0)
(-0.0335994 -0.176791 0)
(-0.00257923 0.086613 0)
(-0.0181839 0.152429 0)
(-0.0356021 0.196828 0)
(-0.0488826 0.22674 0)
(-0.058533 0.236381 0)
(-0.0621168 0.224633 0)
(-0.0626768 0.200531 0)
(-0.0608615 0.172849 0)
(-0.0591189 0.146982 0)
(-0.0574287 0.124483 0)
(-0.0570585 0.105554 0)
(-0.0570506 0.0885315 0)
(-0.0581664 0.0725963 0)
(-0.0591792 0.0562897 0)
(-0.0610914 0.0396508 0)
(-0.0623572 0.021439 0)
(-0.064623 0.00270826 0)
(-0.0655464 -0.0183242 0)
(-0.0678908 -0.039184 0)
(-0.0679637 -0.0630951 0)
(-0.0703057 -0.085194 0)
(-0.0691888 -0.111642 0)
(-0.071704 -0.133729 0)
(-0.0692577 -0.162886 0)
(-0.0727424 -0.185537 0)
(-0.0710616 -0.22412 0)
(-0.0788506 -0.261358 0)
(-0.0785472 -0.323825 0)
(-0.0706196 -0.337572 0)
(-0.0300556 -0.232667 0)
(-0.000250172 0.0946723 0)
(-0.0109016 0.166848 0)
(-0.0236623 0.210318 0)
(-0.0330609 0.237268 0)
(-0.0396726 0.242848 0)
(-0.0418395 0.227748 0)
(-0.0421304 0.20144 0)
(-0.0408077 0.17284 0)
(-0.0397806 0.146909 0)
(-0.0388018 0.124861 0)
(-0.0389802 0.106535 0)
(-0.0392913 0.0899907 0)
(-0.0406798 0.0744659 0)
(-0.0417555 0.0583377 0)
(-0.0438878 0.0418793 0)
(-0.0451467 0.0236098 0)
(-0.0477178 0.00489761 0)
(-0.0486038 -0.0164177 0)
(-0.0513784 -0.0373571 0)
(-0.0513684 -0.0617182 0)
(-0.0543287 -0.0838709 0)
(-0.053074 -0.110861 0)
(-0.0564817 -0.132964 0)
(-0.0536648 -0.162679 0)
(-0.0577695 -0.184409 0)
(-0.0543091 -0.221697 0)
(-0.0619903 -0.256214 0)
(-0.0613618 -0.324904 0)
(-0.0598391 -0.357844 0)
(-0.0259563 -0.280337 0)
(0.00218292 0.097395 0)
(-0.00331672 0.175147 0)
(-0.0112531 0.218265 0)
(-0.0170974 0.242276 0)
(-0.0212086 0.245172 0)
(-0.0224059 0.22754 0)
(-0.022876 0.200067 0)
(-0.0221917 0.171008 0)
(-0.0219655 0.145404 0)
(-0.0215375 0.123951 0)
(-0.022103 0.106339 0)
(-0.022488 0.0903706 0)
(-0.0239708 0.0753863 0)
(-0.0249059 0.0595944 0)
(-0.0271324 0.0434936 0)
(-0.0282173 0.0253319 0)
(-0.031021 0.00680385 0)
(-0.0317413 -0.0146638 0)
(-0.03495 -0.0355607 0)
(-0.0347763 -0.0602703 0)
(-0.038462 -0.0823947 0)
(-0.0370391 -0.109797 0)
(-0.0415753 -0.131819 0)
(-0.0385973 -0.162089 0)
(-0.0441088 -0.183366 0)
(-0.0397922 -0.220265 0)
(-0.0483899 -0.252425 0)
(-0.0472555 -0.325358 0)
(-0.0511149 -0.37334 0)
(-0.0222726 -0.320679 0)
(0.00429783 0.0956624 0)
(0.00413735 0.179747 0)
(0.000764128 0.223622 0)
(-0.00180786 0.246989 0)
(-0.00360108 0.248399 0)
(-0.00406267 0.230094 0)
(-0.00455493 0.202014 0)
(-0.00439599 0.172665 0)
(-0.00466833 0.146924 0)
(-0.00454964 0.125485 0)
(-0.00527525 0.108026 0)
(-0.00555316 0.0921854 0)
(-0.00701941 0.0774406 0)
(-0.00767981 0.0617441 0)
(-0.00994466 0.0458566 0)
(-0.0107242 0.0276643 0)
(-0.0137481 0.00925188 0)
(-0.0142072 -0.0124291 0)
(-0.0179408 -0.0332919 0)
(-0.0175819 -0.0583163 0)
(-0.0222157 -0.0803727 0)
(-0.020702 -0.108087 0)
(-0.0266849 -0.129975 0)
(-0.0237043 -0.160727 0)
(-0.031104 -0.181637 0)
(-0.0263167 -0.218043 0)
(-0.0365078 -0.24693 0)
(-0.0347523 -0.321858 0)
(-0.0439683 -0.382503 0)
(-0.0191381 -0.355332 0)
(0.00617598 0.0887822 0)
(0.0110762 0.177977 0)
(0.0123357 0.223749 0)
(0.0128056 0.24625 0)
(0.0130204 0.247564 0)
(0.013294 0.228892 0)
(0.0126077 0.200932 0)
(0.0123133 0.171509 0)
(0.0114784 0.145933 0)
(0.0114215 0.124704 0)
(0.0106194 0.107621 0)
(0.0106842 0.0921375 0)
(0.0094143 0.0778608 0)
(0.00931013 0.0624975 0)
(0.0071833 0.047057 0)
(0.00696008 0.029078 0)
(0.00380787 0.0110304 0)
(0.00378788 -0.0105998 0)
(-0.000519829 -0.0311896 0)
(9.21527e-05 -0.0562581 0)
(-0.00567992 -0.0780313 0)
(-0.0041252 -0.105795 0)
(-0.0118584 -0.127343 0)
(-0.00903701 -0.15837 0)
(-0.0188698 -0.179091 0)
(-0.0141263 -0.215668 0)
(-0.0267742 -0.242085 0)
(-0.0243694 -0.317902 0)
(-0.0385393 -0.38813 0)
(-0.0163522 -0.385048 0)
(0.00726278 0.0783945 0)
(0.0172629 0.173017 0)
(0.0228732 0.221608 0)
(0.0264306 0.246122 0)
(0.0289081 0.248226 0)
(0.0301042 0.231136 0)
(0.0297275 0.203789 0)
(0.0292296 0.174476 0)
(0.0281451 0.148525 0)
(0.0280873 0.126778 0)
(0.0273382 0.10938 0)
(0.0278805 0.0936576 0)
(0.0268538 0.0794793 0)
(0.0274406 0.0641471 0)
(0.0254557 0.0490143 0)
(0.0259275 0.0311334 0)
(0.022591 0.0134359 0)
(0.023122 -0.00811771 0)
(0.0180854 -0.0283638 0)
(0.0189568 -0.0533517 0)
(0.0117779 -0.07472 0)
(0.0132702 -0.102367 0)
(0.00345487 -0.123443 0)
(0.00602359 -0.154486 0)
(-0.00660442 -0.174777 0)
(-0.00206757 -0.211167 0)
(-0.0179214 -0.234747 0)
(-0.0149779 -0.310509 0)
(-0.0344312 -0.389285 0)
(-0.0138693 -0.411244 0)
(0.00764026 0.0641266 0)
(0.0220667 0.161532 0)
(0.0322031 0.214209 0)
(0.0387704 0.239739 0)
(0.0432965 0.244023 0)
(0.0456883 0.22832 0)
(0.0455486 0.202318 0)
(0.0451007 0.173371 0)
(0.0437096 0.147472 0)
(0.0438009 0.125552 0)
(0.0431166 0.108154 0)
(0.0443703 0.0925253 0)
(0.0437279 0.0787269 0)
(0.0453292 0.0637465 0)
(0.0436492 0.0491969 0)
(0.045133 0.0317518 0)
(0.0416887 0.014718 0)
(0.0429905 -0.00635295 0)
(0.0371739 -0.0258757 0)
(0.0383785 -0.0503513 0)
(0.0296206 -0.0709566 0)
(0.031007 -0.0981131 0)
(0.0188366 -0.118476 0)
(0.0210512 -0.149257 0)
(0.00525535 -0.169142 0)
(0.00942196 -0.205606 0)
(-0.010244 -0.227091 0)
(-0.00662129 -0.302248 0)
(-0.0314867 -0.387648 0)
(-0.0113918 -0.434284 0)
(0.00644837 0.0487735 0)
(0.0252614 0.147846 0)
(0.0396409 0.20468 0)
(0.0496599 0.234808 0)
(0.0569685 0.241591 0)
(0.0611244 0.229392 0)
(0.0621417 0.205186 0)
(0.0621949 0.176945 0)
(0.0608795 0.150646 0)
(0.0612297 0.127763 0)
(0.0605883 0.109566 0)
(0.0625501 0.0932361 0)
(0.0621747 0.0793356 0)
(0.0648422 0.0643006 0)
(0.0633288 0.0501942 0)
(0.0659115 0.0330888 0)
(0.0621844 0.0167877 0)
(0.0643224 -0.00370653 0)
(0.0575308 -0.0223137 0)
(0.0590945 -0.046083 0)
(0.0485352 -0.0657177 0)
(0.049805 -0.0921705 0)
(0.0350232 -0.111663 0)
(0.0368795 -0.141897 0)
(0.017598 -0.161094 0)
(0.0213525 -0.197139 0)
(-0.00283231 -0.216415 0)
(0.00142979 -0.290602 0)
(-0.0294951 -0.382514 0)
(-0.00880742 -0.455053 0)
(0.00408568 0.0323767 0)
(0.0258615 0.1274 0)
(0.0447939 0.189416 0)
(0.0582104 0.221728 0)
(0.0679577 0.232607 0)
(0.0743126 0.223142 0)
(0.0764599 0.201743 0)
(0.0776257 0.174785 0)
(0.0765272 0.148928 0)
(0.0775171 0.125789 0)
(0.0769169 0.107278 0)
(0.0798276 0.0907113 0)
(0.0796928 0.0769806 0)
(0.0837085 0.0622832 0)
(0.0823681 0.0488798 0)
(0.0863401 0.0325401 0)
(0.0823412 0.0173148 0)
(0.0855419 -0.00212371 0)
(0.0777645 -0.0193893 0)
(0.0798517 -0.0419396 0)
(0.0674459 -0.0601881 0)
(0.0687168 -0.0854771 0)
(0.0512177 -0.103817 0)
(0.0527743 -0.133124 0)
(0.029776 -0.151537 0)
(0.0331456 -0.187032 0)
(0.00395721 -0.204702 0)
(0.00913895 -0.277549 0)
(-0.0283793 -0.374979 0)
(-0.00583149 -0.47365 0)
(0.000575463 0.0192061 0)
(0.0240006 0.106662 0)
(0.0468677 0.172168 0)
(0.0642862 0.211373 0)
(0.0777692 0.225678 0)
(0.0872144 0.2212 0)
(0.0919388 0.202672 0)
(0.0949939 0.177406 0)
(0.0947898 0.151738 0)
(0.0966434 0.127707 0)
(0.0960174 0.108218 0)
(0.0997051 0.0905461 0)
(0.0994312 0.0764622 0)
(0.104601 0.0615577 0)
(0.103063 0.0487268 0)
(0.108329 0.0329611 0)
(0.103768 0.0189668 0)
(0.108038 0.000624847 0)
(0.0990581 -0.0150248 0)
(0.101785 -0.0361906 0)
(0.087392 -0.052786 0)
(0.0888681 -0.076701 0)
(0.0685252 -0.0936729 0)
(0.0699501 -0.121725 0)
(0.0429527 -0.13904 0)
(0.045941 -0.173362 0)
(0.0110518 -0.189478 0)
(0.0172318 -0.26078 0)
(-0.027882 -0.364432 0)
(-0.00220997 -0.490507 0)
(-0.00121567 0.00793207 0)
(0.0195559 0.0800397 0)
(0.0458107 0.148773 0)
(0.0664502 0.189809 0)
(0.0824869 0.209596 0)
(0.0954517 0.208552 0)
(0.102646 0.1944 0)
(0.108833 0.17187 0)
(0.110183 0.147918 0)
(0.114047 0.124397 0)
(0.113737 0.104864 0)
(0.118802 0.0869282 0)
(0.11823 0.0727943 0)
(0.124818 0.0581525 0)
(0.122784 0.0460226 0)
(0.129555 0.0312673 0)
(0.124217 0.0186876 0)
(0.129833 0.00193485 0)
(0.119591 -0.0118439 0)
(0.123331 -0.0311132 0)
(0.107033 -0.045771 0)
(0.109109 -0.0678078 0)
(0.0859798 -0.0831082 0)
(0.0874855 -0.10933 0)
(0.0563149 -0.125263 0)
(0.0589514 -0.157859 0)
(0.0179066 -0.17297 0)
(0.0254022 -0.242167 0)
(-0.0280658 -0.351793 0)
(0.00239891 -0.505414 0)
(-0.00194724 0.00144664 0)
(0.0136941 0.0594027 0)
(0.0405106 0.125346 0)
(0.0646061 0.174503 0)
(0.08517 0.196743 0)
(0.102611 0.201058 0)
(0.114131 0.189979 0)
(0.124408 0.170133 0)
(0.128414 0.147661 0)
(0.134938 0.124351 0)
(0.135345 0.104696 0)
(0.14189 0.086014 0)
(0.140834 0.0717061 0)
(0.148539 0.0567726 0)
(0.145578 0.0453574 0)
(0.15353 0.0311855 0)
(0.14703 0.0202317 0)
(0.153889 0.00480572 0)
(0.142134 -0.00677574 0)
(0.14704 -0.0242619 0)
(0.128652 -0.0365839 0)
(0.13161 -0.0566254 0)
(0.105426 -0.0697269 0)
(0.107247 -0.0936498 0)
(0.0714791 -0.107601 0)
(0.0738653 -0.137676 0)
(0.0260144 -0.151984 0)
(0.0352255 -0.218835 0)
(-0.027841 -0.336281 0)
(0.00870243 -0.518166 0)
(0.00111375 -0.00381868 0)
(0.00914849 0.0364424 0)
(0.0318275 0.0976589 0)
(0.0568938 0.143786 0)
(0.0781192 0.17137 0)
(0.100531 0.178521 0)
(0.115897 0.172853 0)
(0.13236 0.157057 0)
(0.140223 0.138129 0)
(0.151795 0.11709 0)
(0.154007 0.098816 0)
(0.1639 0.0809189 0)
(0.162634 0.0670816 0)
(0.172585 0.0527267 0)
(0.168279 0.0420379 0)
(0.178109 0.0290288 0)
(0.169778 0.0194648 0)
(0.178487 0.00593157 0)
(0.164648 -0.00369962 0)
(0.171368 -0.0187548 0)
(0.150548 -0.0288598 0)
(0.155017 -0.046148 0)
(0.125607 -0.0569747 0)
(0.12818 -0.077778 0)
(0.0875939 -0.0895671 0)
(0.089785 -0.116344 0)
(0.0348797 -0.130726 0)
(0.045875 -0.194182 0)
(-0.0270662 -0.319177 0)
(0.0173578 -0.527501 0)
(-0.000403219 -0.00861096 0)
(0.00261202 0.0295651 0)
(0.0180436 0.0779722 0)
(0.0434274 0.1288 0)
(0.0692654 0.153041 0)
(0.0967554 0.163004 0)
(0.117752 0.158527 0)
(0.140618 0.145488 0)
(0.15323 0.129326 0)
(0.17054 0.110384 0)
(0.175417 0.0940489 0)
(0.189338 0.0771459 0)
(0.188648 0.064589 0)
(0.201108 0.0507465 0)
(0.195967 0.0414857 0)
(0.207499 0.0291742 0)
(0.197586 0.0216487 0)
(0.20777 0.00928051 0)
(0.191875 0.00234386 0)
(0.20008 -0.011048 0)
(0.176539 -0.0179493 0)
(0.182391 -0.0329689 0)
(0.148977 -0.0401609 0)
(0.152581 -0.0576399 0)
(0.106047 -0.0656662 0)
(0.109497 -0.0883853 0)
(0.047083 -0.102621 0)
(0.0625565 -0.162286 0)
(-0.0204762 -0.298257 0)
(0.0307166 -0.531238 0)
(0.00480657 -0.00572405 0)
(0.00497918 0.0168787 0)
(-0.000231937 0.0571351 0)
(0.0208026 0.0909389 0)
(0.0417247 0.117689 0)
(0.0762604 0.128042 0)
(0.101638 0.128793 0)
(0.13416 0.120126 0)
(0.152152 0.108729 0)
(0.178394 0.09393 0)
(0.186763 0.0809739 0)
(0.207733 0.0668204 0)
(0.207957 0.0563879 0)
(0.2257 0.0444702 0)
(0.219215 0.0367589 0)
(0.234986 0.0263759 0)
(0.222078 0.0203674 0)
(0.236189 0.0104791 0)
(0.216143 0.00525554 0)
(0.228403 -0.00483666 0)
(0.199847 -0.00978983 0)
(0.210021 -0.0205483 0)
(0.170982 -0.0256219 0)
(0.179266 -0.0379687 0)
(0.126989 -0.044488 0)
(0.135616 -0.0627286 0)
(0.0670304 -0.0799005 0)
(0.0864694 -0.134887 0)
(-0.00506961 -0.276888 0)
(0.050659 -0.522236 0)
(-0.0235482 -0.0202372 0)
(-0.0231941 0.0376326 0)
(-0.017428 0.0627584 0)
(-0.0062629 0.0893035 0)
(0.0222819 0.0974999 0)
(0.0600561 0.102675 0)
(0.0907871 0.100372 0)
(0.130294 0.0936733 0)
(0.152996 0.0857058 0)
(0.186409 0.0747319 0)
(0.198053 0.0660222 0)
(0.225084 0.0552049 0)
(0.226629 0.0482859 0)
(0.249169 0.0388143 0)
(0.242161 0.0340619 0)
(0.261921 0.0255495 0)
(0.247068 0.0225021 0)
(0.265077 0.0142324 0)
(0.24206 0.012446 0)
(0.258955 0.0038757 0)
(0.226555 0.00314653 0)
(0.243083 -0.00608386 0)
(0.19909 -0.00600362 0)
(0.216684 -0.0164907 0)
(0.157554 -0.0172146 0)
(0.179497 -0.0323194 0)
(0.101416 -0.0452789 0)
(0.137427 -0.0940628 0)
(0.0446849 -0.240037 0)
(0.0884692 -0.489571 0)
(-0.0864112 0.0454703 0)
(-0.0874541 0.00874515 0)
(-0.116131 0.0416998 0)
(-0.070939 0.0474567 0)
(-0.0492967 0.0502026 0)
(0.00620647 0.0560476 0)
(0.0382347 0.057514 0)
(0.0911925 0.0551582 0)
(0.115775 0.0523982 0)
(0.162681 0.0468172 0)
(0.174754 0.0427109 0)
(0.216255 0.0365582 0)
(0.21608 0.0330222 0)
(0.254407 0.0273735 0)
(0.243228 0.0248859 0)
(0.280734 0.0198917 0)
(0.2591 0.0182151 0)
(0.297787 0.0138071 0)
(0.265286 0.0125042 0)
(0.30696 0.008769 0)
(0.262409 0.00731295 0)
(0.308997 0.00453852 0)
(0.250708 0.0020885 0)
(0.3044 0.000141256 0)
(0.230533 -0.00571152 0)
(0.293329 -0.0120023 0)
(0.202593 -0.034094 0)
(0.272574 -0.0824302 0)
(0.156664 -0.21001 0)
(0.148693 -0.404533 0)
(0.0819384 0.134259 0)
(0.120639 0.0751635 0)
(0.155403 0.0493163 0)
(0.20912 0.0280227 0)
(0.226892 0.0204116 0)
(0.276903 0.0146131 0)
(0.293431 0.0141537 0)
(0.34722 0.0137851 0)
(0.359525 0.0139457 0)
(0.413327 0.013706 0)
(0.417926 0.0132298 0)
(0.469711 0.0124618 0)
(0.46521 0.0115983 0)
(0.515153 0.0106053 0)
(0.5016 0.00965279 0)
(0.550804 0.0086579 0)
(0.528557 0.00776865 0)
(0.57821 0.00680745 0)
(0.547471 0.0061008 0)
(0.598591 0.00502739 0)
(0.559353 0.0047307 0)
(0.612797 0.00309827 0)
(0.564767 0.00368497 0)
(0.621116 0.000292401 0)
(0.562677 0.00239463 0)
(0.620662 -0.00653727 0)
(0.541799 -0.0043506 0)
(0.58533 -0.0344497 0)
(0.419934 -0.0525795 0)
(0.307078 -0.177505 0)
)
;

boundaryField
{
    movingWall
    {
        type            fixedValue;
        value           uniform (1 0 0);
    }
    fixedWalls
    {
        type            noSlip;
    }
    frontAndBack
    {
        type            empty;
    }
}


// ************************************************************************* //
