/*--------------------------------*- C++ -*----------------------------------*\
| =========                 |                                                 |
| \\      /  F ield         | OpenFOAM: The Open Source CFD Toolbox           |
|  \\    /   O peration     | Version:  2406                                  |
|   \\  /    A nd           | Website:  www.openfoam.com                      |
|    \\/     M anipulation  |                                                 |
\*---------------------------------------------------------------------------*/
FoamFile
{
    version     2.0;
    format      ascii;
    arch        "LSB;label=32;scalar=64";
    class       volScalarField;
    location    "2.15";
    object      p;
}
// * * * * * * * * * * * * * * * * * * * * * * * * * * * * * * * * * * * * * //

dimensions      [0 2 -2 0 0 0 0];

internalField   nonuniform List<scalar> 
14400
(
0.0031229
0.00312179
0.00312058
0.00311897
0.00311797
0.00311723
0.00311732
0.00311792
0.00311934
0.00312135
0.0031241
0.00312745
0.00313148
0.00313611
0.00314137
0.00314723
0.00315371
0.00316078
0.00316846
0.00317674
0.00318561
0.00319509
0.00320516
0.00321582
0.00322709
0.00323894
0.00325139
0.00326444
0.00327807
0.00329229
0.0033071
0.00332249
0.00333846
0.00335502
0.00337214
0.00338984
0.00340811
0.00342693
0.00344631
0.00346625
0.00348673
0.00350774
0.00352929
0.00355135
0.00357393
0.00359702
0.0036206
0.00364466
0.00366919
0.00369418
0.00371962
0.00374549
0.00377177
0.00379846
0.00382554
0.00385298
0.00388078
0.0039089
0.00393734
0.00396607
0.00399507
0.00402432
0.00405379
0.00408347
0.00411331
0.00414331
0.00417343
0.00420365
0.00423394
0.00426426
0.00429459
0.00432491
0.00435517
0.00438534
0.00441541
0.00444532
0.00447506
0.00450458
0.00453386
0.00456285
0.00459153
0.00461986
0.00464781
0.00467534
0.00470242
0.00472901
0.00475509
0.00478061
0.00480555
0.00482987
0.00485354
0.00487653
0.00489881
0.00492034
0.00494111
0.00496107
0.00498022
0.0049985
0.00501592
0.00503242
0.00504801
0.00506264
0.00507632
0.00508899
0.00510067
0.00511131
0.00512092
0.00512943
0.0051369
0.00514322
0.00514847
0.00515249
0.00515549
0.00515716
0.00515795
0.00515741
0.00515637
0.00515429
0.00515268
0.00515104
0.00312401
0.00312289
0.00312222
0.00312111
0.00312069
0.00312036
0.0031208
0.00312162
0.0031232
0.0031253
0.0031281
0.00313147
0.0031355
0.00314011
0.00314536
0.0031512
0.00315766
0.0031647
0.00317236
0.0031806
0.00318945
0.00319889
0.00320893
0.00321956
0.00323079
0.0032426
0.00325501
0.00326801
0.0032816
0.00329578
0.00331053
0.00332588
0.0033418
0.00335829
0.00337536
0.003393
0.0034112
0.00342996
0.00344927
0.00346914
0.00348954
0.00351048
0.00353195
0.00355393
0.00357643
0.00359943
0.00362292
0.00364689
0.00367132
0.00369622
0.00372155
0.00374732
0.0037735
0.00380008
0.00382705
0.00385438
0.00388205
0.00391006
0.00393838
0.00396698
0.00399585
0.00402497
0.00405431
0.00408385
0.00411356
0.00414342
0.0041734
0.00420347
0.00423361
0.00426378
0.00429397
0.00432413
0.00435424
0.00438426
0.00441417
0.00444393
0.00447351
0.00450287
0.00453199
0.00456082
0.00458935
0.00461752
0.00464531
0.00467269
0.00469961
0.00472605
0.00475197
0.00477735
0.00480214
0.00482631
0.00484984
0.00487269
0.00489483
0.00491623
0.00493687
0.00495671
0.00497573
0.0049939
0.00501119
0.00502759
0.00504307
0.00505761
0.00507119
0.00508377
0.00509537
0.00510593
0.00511548
0.00512395
0.00513139
0.0051377
0.00514301
0.00514712
0.00515031
0.00515227
0.0051535
0.00515351
0.00515324
0.00515186
0.00515103
0.0051494
0.00312522
0.00312356
0.00312289
0.00312165
0.00312131
0.00312099
0.0031215
0.00312237
0.00312399
0.00312611
0.00312894
0.00313232
0.00313636
0.00314097
0.00314622
0.00315205
0.0031585
0.00316554
0.00317319
0.00318142
0.00319026
0.00319969
0.00320971
0.00322033
0.00323154
0.00324334
0.00325574
0.00326872
0.00328229
0.00329645
0.00331119
0.00332651
0.00334242
0.00335889
0.00337594
0.00339356
0.00341174
0.00343048
0.00344977
0.00346962
0.00349
0.00351092
0.00353236
0.00355432
0.0035768
0.00359977
0.00362324
0.00364718
0.0036716
0.00369647
0.00372178
0.00374752
0.00377368
0.00380024
0.00382718
0.00385448
0.00388214
0.00391012
0.00393841
0.00396699
0.00399584
0.00402493
0.00405425
0.00408376
0.00411345
0.00414328
0.00417324
0.00420329
0.0042334
0.00426355
0.00429371
0.00432385
0.00435394
0.00438394
0.00441382
0.00444356
0.00447312
0.00450246
0.00453156
0.00456037
0.00458887
0.00461702
0.00464479
0.00467215
0.00469905
0.00472547
0.00475137
0.00477673
0.0048015
0.00482565
0.00484916
0.00487199
0.00489411
0.0049155
0.00493611
0.00495594
0.00497494
0.00499309
0.00501037
0.00502675
0.00504222
0.00505674
0.0050703
0.00508288
0.00509447
0.00510502
0.00511456
0.00512302
0.00513047
0.00513678
0.00514211
0.00514624
0.00514948
0.00515146
0.00515278
0.00515278
0.00515261
0.00515104
0.0051502
0.0051478
0.00312683
0.00312465
0.00312411
0.00312286
0.00312276
0.00312259
0.0031233
0.00312427
0.00312601
0.00312819
0.00313107
0.00313447
0.00313853
0.00314314
0.00314839
0.00315421
0.00316064
0.00316766
0.00317529
0.0031835
0.00319231
0.00320171
0.00321171
0.0032223
0.00323348
0.00324526
0.00325762
0.00327057
0.00328411
0.00329823
0.00331293
0.00332822
0.00334408
0.00336052
0.00337752
0.0033951
0.00341323
0.00343193
0.00345118
0.00347097
0.0034913
0.00351217
0.00353356
0.00355548
0.0035779
0.00360082
0.00362423
0.00364812
0.00367248
0.00369729
0.00372254
0.00374823
0.00377433
0.00380082
0.0038277
0.00385494
0.00388253
0.00391045
0.00393868
0.0039672
0.00399598
0.00402501
0.00405425
0.0040837
0.00411332
0.00414309
0.00417297
0.00420296
0.004233
0.00426309
0.00429318
0.00432324
0.00435326
0.00438319
0.00441301
0.00444268
0.00447216
0.00450144
0.00453046
0.00455921
0.00458764
0.00461572
0.00464343
0.00467071
0.00469755
0.0047239
0.00474974
0.00477503
0.00479973
0.00482383
0.00484727
0.00487004
0.0048921
0.00491343
0.00493399
0.00495375
0.0049727
0.0049908
0.00500803
0.00502436
0.00503978
0.00505425
0.00506778
0.00508031
0.00509186
0.00510238
0.0051119
0.00512035
0.0051278
0.00513412
0.0051395
0.00514369
0.00514706
0.00514917
0.00515073
0.00515088
0.00515102
0.00514945
0.00514879
0.00514571
0.00312783
0.00312504
0.00312443
0.00312294
0.00312284
0.00312259
0.00312334
0.00312432
0.00312609
0.00312829
0.00313119
0.0031346
0.00313866
0.00314328
0.00314852
0.00315434
0.00316076
0.00316777
0.00317539
0.00318359
0.00319239
0.00320178
0.00321176
0.00322234
0.0032335
0.00324526
0.0032576
0.00327054
0.00328406
0.00329816
0.00331285
0.00332811
0.00334396
0.00336037
0.00337736
0.00339492
0.00341304
0.00343172
0.00345095
0.00347072
0.00349104
0.00351189
0.00353327
0.00355517
0.00357757
0.00360048
0.00362388
0.00364776
0.0036721
0.0036969
0.00372215
0.00374782
0.00377391
0.0038004
0.00382728
0.00385452
0.0038821
0.00391002
0.00393825
0.00396676
0.00399555
0.00402458
0.00405383
0.00408328
0.00411291
0.00414268
0.00417258
0.00420257
0.00423263
0.00426272
0.00429283
0.00432291
0.00435294
0.00438289
0.00441272
0.00444241
0.00447191
0.0045012
0.00453025
0.00455901
0.00458746
0.00461557
0.00464329
0.0046706
0.00469745
0.00472383
0.00474968
0.00477499
0.00479971
0.00482382
0.00484729
0.00487007
0.00489215
0.00491349
0.00493406
0.00495384
0.0049728
0.00499091
0.00500815
0.00502449
0.00503992
0.0050544
0.00506793
0.00508047
0.00509203
0.00510255
0.00511208
0.00512054
0.005128
0.00513433
0.00513973
0.00514392
0.00514732
0.0051494
0.00515098
0.00515103
0.00515115
0.00514924
0.00514846
0.00514464
0.00312853
0.0031253
0.00312467
0.00312304
0.00312302
0.00312277
0.0031236
0.00312461
0.00312645
0.00312867
0.0031316
0.00313502
0.0031391
0.00314372
0.00314896
0.00315477
0.00316119
0.00316818
0.00317578
0.00318397
0.00319275
0.00320212
0.00321208
0.00322263
0.00323378
0.00324551
0.00325783
0.00327074
0.00328423
0.00329831
0.00331297
0.00332821
0.00334403
0.00336042
0.00337738
0.00339491
0.003413
0.00343165
0.00345086
0.00347061
0.0034909
0.00351173
0.00353308
0.00355495
0.00357733
0.00360022
0.00362359
0.00364745
0.00367177
0.00369655
0.00372178
0.00374744
0.00377351
0.00379998
0.00382684
0.00385407
0.00388164
0.00390955
0.00393776
0.00396627
0.00399505
0.00402407
0.00405332
0.00408276
0.00411239
0.00414216
0.00417206
0.00420205
0.00423211
0.00426221
0.00429231
0.0043224
0.00435244
0.00438239
0.00441223
0.00444193
0.00447144
0.00450074
0.0045298
0.00455857
0.00458704
0.00461515
0.00464288
0.0046702
0.00469707
0.00472345
0.00474932
0.00477463
0.00479937
0.00482349
0.00484696
0.00486975
0.00489184
0.00491318
0.00493376
0.00495354
0.00497251
0.00499062
0.00500786
0.0050242
0.00503963
0.00505411
0.00506764
0.00508018
0.00509174
0.00510227
0.0051118
0.00512026
0.00512774
0.00513408
0.00513952
0.00514374
0.0051472
0.00514931
0.00515098
0.00515101
0.0051512
0.00514911
0.00514832
0.00514397
0.00312836
0.00312474
0.00312404
0.0031222
0.00312215
0.00312181
0.00312265
0.00312363
0.00312549
0.0031277
0.00313065
0.00313407
0.00313815
0.00314277
0.00314801
0.00315381
0.00316022
0.00316721
0.0031748
0.00318297
0.00319174
0.0032011
0.00321105
0.00322159
0.00323272
0.00324443
0.00325674
0.00326963
0.00328311
0.00329718
0.00331183
0.00332705
0.00334286
0.00335924
0.00337619
0.0033937
0.00341179
0.00343043
0.00344962
0.00346937
0.00348966
0.00351048
0.00353183
0.0035537
0.00357608
0.00359897
0.00362235
0.00364621
0.00367055
0.00369534
0.00372058
0.00374625
0.00377234
0.00379884
0.00382572
0.00385297
0.00388057
0.0039085
0.00393675
0.0039653
0.00399411
0.00402317
0.00405246
0.00408196
0.00411163
0.00414145
0.0041714
0.00420144
0.00423156
0.00426171
0.00429188
0.00432203
0.00435213
0.00438215
0.00441206
0.00444182
0.0044714
0.00450077
0.0045299
0.00455874
0.00458728
0.00461546
0.00464326
0.00467065
0.00469759
0.00472404
0.00474997
0.00477536
0.00480015
0.00482434
0.00484787
0.00487072
0.00489286
0.00491426
0.0049349
0.00495473
0.00497374
0.0049919
0.00500918
0.00502556
0.00504103
0.00505554
0.0050691
0.00508167
0.00509326
0.0051038
0.00511336
0.00512184
0.00512934
0.00513569
0.00514114
0.00514535
0.00514882
0.00515088
0.00515254
0.00515244
0.00515257
0.00515021
0.00514931
0.00514452
0.0031276
0.00312372
0.00312298
0.00312101
0.00312097
0.00312059
0.00312146
0.00312243
0.00312431
0.00312653
0.00312949
0.00313292
0.003137
0.00314162
0.00314685
0.00315265
0.00315905
0.00316603
0.00317361
0.00318177
0.00319052
0.00319986
0.0032098
0.00322032
0.00323143
0.00324314
0.00325543
0.0032683
0.00328177
0.00329582
0.00331045
0.00332566
0.00334145
0.00335782
0.00337475
0.00339226
0.00341033
0.00342896
0.00344815
0.00346789
0.00348817
0.00350899
0.00353034
0.00355221
0.0035746
0.00359749
0.00362087
0.00364475
0.00366909
0.0036939
0.00371915
0.00374484
0.00377096
0.00379747
0.00382438
0.00385166
0.00387929
0.00390727
0.00393555
0.00396414
0.00399299
0.0040221
0.00405144
0.00408099
0.00411072
0.0041406
0.0041706
0.00420071
0.00423089
0.00426112
0.00429135
0.00432158
0.00435175
0.00438184
0.00441183
0.00444166
0.00447132
0.00450077
0.00452998
0.00455891
0.00458752
0.00461578
0.00464367
0.00467113
0.00469815
0.00472468
0.00475069
0.00477615
0.00480102
0.00482527
0.00484887
0.00487179
0.004894
0.00491546
0.00493615
0.00495604
0.0049751
0.00499331
0.00501064
0.00502706
0.00504257
0.00505712
0.00507071
0.00508331
0.00509493
0.0051055
0.00511508
0.00512357
0.0051311
0.00513747
0.00514295
0.00514716
0.00515066
0.00515271
0.00515438
0.00515422
0.00515434
0.00515182
0.00515086
0.00514579
0.00312594
0.00312186
0.00312107
0.00311897
0.00311889
0.00311845
0.0031193
0.00312024
0.00312212
0.00312433
0.00312729
0.0031307
0.00313479
0.0031394
0.00314463
0.00315042
0.00315682
0.00316379
0.00317135
0.0031795
0.00318825
0.00319758
0.0032075
0.00321802
0.00322912
0.00324081
0.00325309
0.00326596
0.00327942
0.00329346
0.00330808
0.00332329
0.00333907
0.00335543
0.00337237
0.00338988
0.00340795
0.00342659
0.00344578
0.00346553
0.00348582
0.00350665
0.00352802
0.00354991
0.00357231
0.00359523
0.00361864
0.00364254
0.00366692
0.00369177
0.00371706
0.0037428
0.00376896
0.00379553
0.00382249
0.00384983
0.00387753
0.00390556
0.00393392
0.00396258
0.00399152
0.00402071
0.00405014
0.00407977
0.00410959
0.00413957
0.00416968
0.00419989
0.00423018
0.00426051
0.00429086
0.0043212
0.00435149
0.0043817
0.0044118
0.00444176
0.00447155
0.00450112
0.00453045
0.0045595
0.00458824
0.00461663
0.00464464
0.00467223
0.00469937
0.00472602
0.00475215
0.00477772
0.00480271
0.00482707
0.00485078
0.0048738
0.00489611
0.00491767
0.00493845
0.00495843
0.00497758
0.00499586
0.00501327
0.00502976
0.00504533
0.00505994
0.00507359
0.00508624
0.0050979
0.00510851
0.00511814
0.00512666
0.00513421
0.00514059
0.00514608
0.00515029
0.00515378
0.00515578
0.00515742
0.00515716
0.00515722
0.00515453
0.0051535
0.00514821
0.00312358
0.00311937
0.00311856
0.00311638
0.00311629
0.0031158
0.00311665
0.00311758
0.00311946
0.00312166
0.00312462
0.00312803
0.00313212
0.00313672
0.00314195
0.00314773
0.00315412
0.00316108
0.00316864
0.00317678
0.00318551
0.00319483
0.00320475
0.00321525
0.00322634
0.00323802
0.00325029
0.00326315
0.0032766
0.00329064
0.00330526
0.00332046
0.00333624
0.0033526
0.00336954
0.00338705
0.00340513
0.00342377
0.00344298
0.00346273
0.00348304
0.00350389
0.00352528
0.00354719
0.00356963
0.00359257
0.00361602
0.00363996
0.00366438
0.00368927
0.00371462
0.00374041
0.00376663
0.00379326
0.00382029
0.0038477
0.00387547
0.00390359
0.00393203
0.00396078
0.00398981
0.0040191
0.00404863
0.00407837
0.0041083
0.00413839
0.00416862
0.00419895
0.00422936
0.00425983
0.00429031
0.00432078
0.0043512
0.00438155
0.0044118
0.0044419
0.00447183
0.00450155
0.00453102
0.00456022
0.0045891
0.00461764
0.00464579
0.00467352
0.0047008
0.00472759
0.00475386
0.00477957
0.00480468
0.00482917
0.00485301
0.00487615
0.00489858
0.00492025
0.00494114
0.00496122
0.00498046
0.00499884
0.00501633
0.0050329
0.00504854
0.00506322
0.00507693
0.00508964
0.00510135
0.00511201
0.00512167
0.00513022
0.0051378
0.0051442
0.00514971
0.00515392
0.00515742
0.0051594
0.00516103
0.00516071
0.00516074
0.00515795
0.00515687
0.00515145
0.00312038
0.00311607
0.00311523
0.00311297
0.00311285
0.00311232
0.00311315
0.00311405
0.00311592
0.0031181
0.00312106
0.00312446
0.00312854
0.00313313
0.00313836
0.00314413
0.00315051
0.00315747
0.00316502
0.00317315
0.00318188
0.00319119
0.0032011
0.00321159
0.00322268
0.00323436
0.00324663
0.00325948
0.00327293
0.00328696
0.00330158
0.00331679
0.00333258
0.00334895
0.0033659
0.00338342
0.00340151
0.00342017
0.0034394
0.00345918
0.00347952
0.0035004
0.00352182
0.00354377
0.00356625
0.00358925
0.00361275
0.00363674
0.00366122
0.00368618
0.0037116
0.00373746
0.00376376
0.00379048
0.0038176
0.00384511
0.00387298
0.00390121
0.00392976
0.00395863
0.00398778
0.0040172
0.00404686
0.00407674
0.00410681
0.00413705
0.00416743
0.00419792
0.00422849
0.00425911
0.00428976
0.0043204
0.004351
0.00438153
0.00441195
0.00444224
0.00447234
0.00450225
0.0045319
0.00456128
0.00459035
0.00461907
0.0046474
0.00467531
0.00470277
0.00472974
0.00475617
0.00478205
0.00480733
0.00483199
0.00485598
0.00487927
0.00490184
0.00492365
0.00494468
0.00496488
0.00498425
0.00500274
0.00502034
0.00503701
0.00505275
0.00506752
0.00508131
0.00509408
0.00510586
0.00511657
0.00512628
0.00513487
0.00514249
0.00514891
0.00515443
0.00515864
0.00516213
0.00516407
0.00516567
0.00516528
0.00516526
0.00516237
0.00516124
0.00515572
0.00311644
0.00311208
0.00311122
0.00310891
0.00310878
0.00310821
0.00310903
0.00310991
0.00311178
0.00311395
0.0031169
0.00312029
0.00312437
0.00312895
0.00313417
0.00313994
0.00314631
0.00315326
0.0031608
0.00316893
0.00317765
0.00318696
0.00319686
0.00320735
0.00321843
0.0032301
0.00324237
0.00325523
0.00326868
0.00328271
0.00329734
0.00331255
0.00332835
0.00334473
0.00336169
0.00337923
0.00339735
0.00341603
0.00343528
0.0034551
0.00347547
0.00349639
0.00351785
0.00353986
0.00356239
0.00358544
0.003609
0.00363306
0.00365762
0.00368265
0.00370815
0.00373411
0.0037605
0.00378732
0.00381455
0.00384217
0.00387016
0.00389851
0.00392719
0.00395619
0.00398549
0.00401506
0.00404487
0.00407491
0.00410514
0.00413555
0.0041661
0.00419677
0.00422753
0.00425834
0.00428918
0.00432001
0.00435081
0.00438154
0.00441217
0.00444266
0.00447297
0.00450308
0.00453295
0.00456254
0.00459181
0.00462074
0.00464928
0.00467739
0.00470505
0.00473221
0.00475885
0.00478492
0.00481039
0.00483522
0.00485939
0.00488286
0.00490559
0.00492756
0.00494874
0.00496909
0.00498859
0.00500721
0.00502493
0.00504172
0.00505756
0.00507242
0.00508631
0.00509916
0.00511101
0.00512178
0.00513155
0.00514018
0.00514783
0.00515428
0.00515982
0.00516403
0.00516752
0.00516945
0.00517103
0.0051706
0.00517054
0.00516758
0.00516642
0.00516082
0.0031117
0.0031073
0.00310641
0.00310407
0.00310391
0.00310331
0.00310412
0.00310498
0.00310682
0.00310898
0.00311192
0.00311531
0.00311937
0.00312395
0.00312916
0.00313492
0.00314129
0.00314823
0.00315577
0.00316389
0.00317261
0.00318191
0.00319181
0.00320229
0.00321338
0.00322505
0.00323732
0.00325018
0.00326363
0.00327768
0.00329232
0.00330754
0.00332336
0.00333976
0.00335674
0.00337431
0.00339245
0.00341117
0.00343046
0.00345031
0.00347073
0.0034917
0.00351322
0.00353528
0.00355788
0.003581
0.00360464
0.00362879
0.00365344
0.00367857
0.00370417
0.00373023
0.00375674
0.00378368
0.00381103
0.00383879
0.00386692
0.00389542
0.00392426
0.00395342
0.00398289
0.00401263
0.00404262
0.00407285
0.00410328
0.00413388
0.00416464
0.00419552
0.00422649
0.00425752
0.00428859
0.00431965
0.00435068
0.00438165
0.00441251
0.00444324
0.0044738
0.00450415
0.00453426
0.00456409
0.00459361
0.00462278
0.00465156
0.00467991
0.0047078
0.0047352
0.00476206
0.00478835
0.00481404
0.00483909
0.00486346
0.00488713
0.00491006
0.00493221
0.00495356
0.00497408
0.00499375
0.00501252
0.00503038
0.0050473
0.00506327
0.00507824
0.00509222
0.00510517
0.0051171
0.00512795
0.00513777
0.00514646
0.00515415
0.00516062
0.00516619
0.0051704
0.00517389
0.00517579
0.00517734
0.00517686
0.00517677
0.00517374
0.00517255
0.00516687
0.00310622
0.00310179
0.00310089
0.00309852
0.00309835
0.00309773
0.00309852
0.00309936
0.0031012
0.00310335
0.00310628
0.00310965
0.00311371
0.00311828
0.00312348
0.00312924
0.0031356
0.00314253
0.00315007
0.00315818
0.0031669
0.0031762
0.0031861
0.00319658
0.00320767
0.00321934
0.00323162
0.00324448
0.00325795
0.003272
0.00328665
0.0033019
0.00331773
0.00333416
0.00335117
0.00336877
0.00338694
0.0034057
0.00342504
0.00344494
0.00346541
0.00348644
0.00350803
0.00353016
0.00355284
0.00357604
0.00359977
0.00362401
0.00364876
0.003674
0.00369972
0.0037259
0.00375254
0.00377962
0.00380712
0.00383502
0.00386332
0.00389199
0.003921
0.00395035
0.00398
0.00400994
0.00404014
0.00407057
0.00410122
0.00413205
0.00416304
0.00419415
0.00422537
0.00425665
0.00428796
0.00431928
0.00435057
0.0043818
0.00441293
0.00444393
0.00447476
0.00450538
0.00453576
0.00456587
0.00459566
0.0046251
0.00465414
0.00468276
0.00471092
0.00473857
0.00476569
0.00479223
0.00481816
0.00484344
0.00486805
0.00489194
0.00491508
0.00493744
0.00495899
0.00497969
0.00499953
0.00501847
0.00503649
0.00505356
0.00506966
0.00508476
0.00509886
0.0051119
0.00512393
0.00513485
0.00514475
0.00515349
0.00516123
0.00516773
0.00517332
0.00517753
0.00518103
0.00518291
0.00518445
0.00518393
0.0051838
0.00518072
0.0051795
0.00517377
0.00309997
0.00309552
0.00309461
0.0030922
0.00309202
0.00309138
0.00309215
0.00309297
0.0030948
0.00309693
0.00309986
0.00310322
0.00310727
0.00311183
0.00311703
0.00312277
0.00312913
0.00313606
0.00314359
0.0031517
0.00316041
0.00316971
0.00317961
0.0031901
0.00320119
0.00321287
0.00322515
0.00323803
0.00325151
0.00326558
0.00328025
0.00329551
0.00331138
0.00332783
0.00334488
0.00336251
0.00338073
0.00339954
0.00341893
0.00343889
0.00345942
0.00348053
0.00350219
0.0035244
0.00354717
0.00357047
0.0035943
0.00361865
0.00364352
0.00366888
0.00369473
0.00372106
0.00374785
0.00377508
0.00380275
0.00383083
0.0038593
0.00388816
0.00391737
0.00394693
0.00397679
0.00400695
0.00403739
0.00406806
0.00409895
0.00413004
0.00416129
0.00419267
0.00422415
0.00425571
0.00428731
0.00431892
0.00435051
0.00438203
0.00441346
0.00444476
0.00447589
0.00450682
0.00453751
0.00456792
0.00459802
0.00462776
0.00465711
0.00468603
0.00471448
0.00474242
0.00476982
0.00479664
0.00482285
0.0048484
0.00487326
0.00489739
0.00492078
0.00494337
0.00496514
0.00498605
0.00500609
0.00502522
0.00504342
0.00506065
0.0050769
0.00509214
0.00510636
0.00511952
0.00513165
0.00514266
0.00515263
0.00516143
0.00516922
0.00517576
0.00518137
0.00518559
0.00518909
0.00519095
0.00519247
0.00519191
0.00519176
0.00518862
0.00518737
0.00518157
0.00309299
0.00308851
0.00308759
0.00308516
0.00308497
0.0030843
0.00308507
0.00308588
0.00308769
0.00308981
0.00309272
0.00309608
0.00310012
0.00310467
0.00310986
0.0031156
0.00312196
0.00312888
0.00313641
0.00314452
0.00315323
0.00316253
0.00317243
0.00318292
0.00319401
0.00320571
0.003218
0.00323089
0.00324438
0.00325847
0.00327317
0.00328846
0.00330435
0.00332084
0.00333792
0.0033556
0.00337387
0.00339274
0.00341218
0.00343221
0.00345282
0.003474
0.00349575
0.00351805
0.00354092
0.00356432
0.00358827
0.00361275
0.00363774
0.00366325
0.00368925
0.00371573
0.00374268
0.00377009
0.00379794
0.00382621
0.00385489
0.00388396
0.00391339
0.00394317
0.00397328
0.00400369
0.00403437
0.00406531
0.00409648
0.00412784
0.00415937
0.00419105
0.00422284
0.0042547
0.00428662
0.00431855
0.00435045
0.0043823
0.00441406
0.0044457
0.00447717
0.00450843
0.00453946
0.00457021
0.00460064
0.00463072
0.0046604
0.00468965
0.00471842
0.00474669
0.0047744
0.00480153
0.00482803
0.00485387
0.00487902
0.00490343
0.00492707
0.00494992
0.00497193
0.00499308
0.00501333
0.00503267
0.00505105
0.00506846
0.00508488
0.00510027
0.00511463
0.00512792
0.00514015
0.00515126
0.00516132
0.00517018
0.00517803
0.0051846
0.00519024
0.00519448
0.00519798
0.00519983
0.00520133
0.00520073
0.00520055
0.00519736
0.00519608
0.00519022
0.00308525
0.00308074
0.00307981
0.00307736
0.00307715
0.00307647
0.00307722
0.00307802
0.00307982
0.00308192
0.00308483
0.00308817
0.00309221
0.00309675
0.00310193
0.00310767
0.00311401
0.00312093
0.00312846
0.00313657
0.00314528
0.00315458
0.00316448
0.00317498
0.00318609
0.00319779
0.00321009
0.003223
0.00323651
0.00325063
0.00326535
0.00328067
0.0032966
0.00331313
0.00333026
0.00334799
0.00336631
0.00338524
0.00340475
0.00342486
0.00344554
0.00346681
0.00348866
0.00351107
0.00353404
0.00355757
0.00358164
0.00360626
0.0036314
0.00365705
0.00368322
0.00370987
0.00373701
0.00376461
0.00379267
0.00382115
0.00385005
0.00387935
0.00390903
0.00393906
0.00396943
0.00400011
0.00403108
0.00406231
0.00409377
0.00412544
0.0041573
0.0041893
0.00422142
0.00425362
0.00428588
0.00431816
0.00435042
0.00438263
0.00441476
0.00444676
0.0044786
0.00451024
0.00454164
0.00457276
0.00460356
0.004634
0.00466405
0.00469366
0.00472279
0.00475141
0.00477947
0.00480694
0.00483377
0.00485993
0.00488539
0.0049101
0.00493403
0.00495716
0.00497943
0.00500083
0.00502133
0.00504089
0.00505949
0.00507709
0.00509369
0.00510925
0.00512376
0.00513718
0.00514954
0.00516075
0.00517089
0.00517983
0.00518774
0.00519436
0.00520003
0.00520427
0.00520777
0.00520961
0.0052111
0.00521046
0.00521025
0.005207
0.00520569
0.00519976
0.00307677
0.00307224
0.0030713
0.00306883
0.00306861
0.00306791
0.00306865
0.00306942
0.00307122
0.00307331
0.00307621
0.00307954
0.00308356
0.0030881
0.00309328
0.003099
0.00310535
0.00311226
0.00311979
0.00312789
0.00313661
0.00314591
0.00315582
0.00316633
0.00317744
0.00318915
0.00320147
0.0032144
0.00322793
0.00324207
0.00325682
0.00327218
0.00328815
0.00330472
0.0033219
0.00333969
0.00335808
0.00337707
0.00339666
0.00341684
0.00343762
0.00345899
0.00348093
0.00350346
0.00352655
0.00355021
0.00357443
0.00359919
0.00362449
0.00365031
0.00367666
0.0037035
0.00373084
0.00375865
0.00378692
0.00381564
0.00384479
0.00387434
0.00390428
0.00393459
0.00396524
0.00399622
0.00402749
0.00405904
0.00409083
0.00412284
0.00415504
0.00418739
0.00421987
0.00425245
0.00428508
0.00431774
0.00435039
0.004383
0.00441552
0.00444792
0.00448016
0.00451221
0.00454401
0.00457554
0.00460674
0.00463759
0.00466804
0.00469804
0.00472756
0.00475656
0.004785
0.00481283
0.00484002
0.00486654
0.00489233
0.00491737
0.00494162
0.00496504
0.00498761
0.00500928
0.00503004
0.00504984
0.00506867
0.00508649
0.00510328
0.00511902
0.0051337
0.00514726
0.00515975
0.00517107
0.00518131
0.00519033
0.0051983
0.00520496
0.00521067
0.00521493
0.00521843
0.00522026
0.00522173
0.00522105
0.00522081
0.0052175
0.00521616
0.00521015
0.00306754
0.00306298
0.00306203
0.00305954
0.0030593
0.00305859
0.00305931
0.00306008
0.00306186
0.00306394
0.00306682
0.00307014
0.00307416
0.00307869
0.00308386
0.00308958
0.00309592
0.00310283
0.00311035
0.00311846
0.00312717
0.00313648
0.0031464
0.00315691
0.00316803
0.00317976
0.0031921
0.00320505
0.00321861
0.00323278
0.00324756
0.00326296
0.00327897
0.00329559
0.00331283
0.00333067
0.00334913
0.0033682
0.00338787
0.00340814
0.00342902
0.00345049
0.00347255
0.0034952
0.00351842
0.00354222
0.00356659
0.00359151
0.00361699
0.003643
0.00366953
0.00369658
0.00372414
0.00375218
0.00378069
0.00380966
0.00383907
0.0038689
0.00389912
0.00392973
0.0039607
0.00399199
0.0040236
0.00405549
0.00408764
0.00412001
0.00415258
0.00418532
0.00421819
0.00425117
0.00428421
0.00431729
0.00435037
0.0043834
0.00441635
0.00444919
0.00448187
0.00451435
0.0045466
0.00457856
0.00461021
0.00464149
0.00467237
0.00470281
0.00473275
0.00476217
0.00479101
0.00481925
0.00484683
0.00487372
0.00489988
0.00492528
0.00494987
0.00497362
0.0049965
0.00501847
0.0050395
0.00505957
0.00507865
0.00509669
0.0051137
0.00512963
0.00514449
0.00515821
0.00517083
0.00518228
0.00519262
0.00520173
0.00520976
0.00521647
0.00522221
0.00522649
0.00523
0.0052318
0.00523326
0.00523254
0.00523227
0.00522889
0.00522753
0.00522143
0.00305757
0.00305298
0.00305202
0.0030495
0.00304926
0.00304852
0.00304924
0.00304998
0.00305175
0.00305382
0.0030567
0.00306001
0.00306402
0.00306853
0.0030737
0.00307941
0.00308575
0.00309266
0.00310018
0.00310828
0.003117
0.00312631
0.00313623
0.00314676
0.00315789
0.00316964
0.00318199
0.00319497
0.00320855
0.00322275
0.00323757
0.00325301
0.00326907
0.00328574
0.00330304
0.00332095
0.00333948
0.00335863
0.00337839
0.00339876
0.00341973
0.00344132
0.0034635
0.00348628
0.00350965
0.00353361
0.00355814
0.00358323
0.00360889
0.0036351
0.00366184
0.00368912
0.0037169
0.00374519
0.00377396
0.0038032
0.00383289
0.00386301
0.00389355
0.00392448
0.00395578
0.00398742
0.00401939
0.00405165
0.00408418
0.00411695
0.00414992
0.00418307
0.00421637
0.00424978
0.00428327
0.00431679
0.00435032
0.00438382
0.00441724
0.00445054
0.0044837
0.00451666
0.00454938
0.00458182
0.00461394
0.0046457
0.00467704
0.00470794
0.00473834
0.00476821
0.00479749
0.00482616
0.00485416
0.00488146
0.00490802
0.0049338
0.00495876
0.00498286
0.00500608
0.00502837
0.00504971
0.00507006
0.0050894
0.0051077
0.00512493
0.00514107
0.00515611
0.00517
0.00518278
0.00519435
0.0052048
0.00521399
0.0052221
0.00522886
0.00523464
0.00523893
0.00524245
0.00524424
0.00524568
0.00524491
0.00524461
0.00524116
0.00523977
0.00523357
0.00304685
0.00304223
0.00304125
0.00303871
0.00303845
0.0030377
0.0030384
0.00303913
0.00304089
0.00304295
0.00304581
0.00304911
0.00305311
0.00305762
0.00306278
0.00306849
0.00307482
0.00308172
0.00308924
0.00309735
0.00310606
0.00311538
0.00312531
0.00313584
0.00314699
0.00315875
0.00317113
0.00318413
0.00319774
0.00321198
0.00322684
0.00324232
0.00325842
0.00327516
0.00329251
0.0033105
0.0033291
0.00334834
0.00336819
0.00338866
0.00340975
0.00343146
0.00345377
0.00347669
0.00350021
0.00352433
0.00354904
0.00357432
0.00360017
0.00362659
0.00365356
0.00368107
0.00370911
0.00373766
0.0037667
0.00379623
0.00382623
0.00385667
0.00388754
0.00391881
0.00395047
0.00398249
0.00401484
0.0040475
0.00408044
0.00411363
0.00414704
0.00418063
0.00421439
0.00424826
0.00428222
0.00431623
0.00435025
0.00438424
0.00441817
0.00445198
0.00448565
0.00451912
0.00455235
0.00458531
0.00461794
0.0046502
0.00468206
0.00471345
0.00474435
0.0047747
0.00480446
0.00483359
0.00486205
0.00488979
0.00491678
0.00494296
0.00496832
0.0049928
0.00501638
0.00503902
0.00506068
0.00508134
0.00510096
0.00511952
0.005137
0.00515336
0.0051686
0.00518267
0.0051956
0.00520731
0.00521788
0.00522717
0.00523535
0.00524217
0.00524798
0.00525229
0.00525581
0.00525758
0.005259
0.00525819
0.00525785
0.00525433
0.0052529
0.0052466
0.00303538
0.00303072
0.00302974
0.00302717
0.0030269
0.00302612
0.00302681
0.00302753
0.00302928
0.00303132
0.00303417
0.00303746
0.00304145
0.00304595
0.0030511
0.0030568
0.00306313
0.00307003
0.00307754
0.00308565
0.00309437
0.00310369
0.00311363
0.00312417
0.00313533
0.00314711
0.00315951
0.00317253
0.00318618
0.00320045
0.00321535
0.00323088
0.00324704
0.00326383
0.00328125
0.00329931
0.003318
0.00333732
0.00335727
0.00337785
0.00339906
0.0034209
0.00344335
0.00346642
0.0034901
0.00351439
0.00353928
0.00356476
0.00359083
0.00361747
0.00364468
0.00367244
0.00370074
0.00372957
0.00375891
0.00378875
0.00381907
0.00384985
0.00388107
0.00391271
0.00394475
0.00397717
0.00400993
0.00404301
0.00407639
0.00411003
0.00414391
0.00417799
0.00421223
0.0042466
0.00428107
0.0043156
0.00435014
0.00438467
0.00441913
0.00445349
0.0044877
0.00452172
0.00455551
0.00458901
0.00462219
0.00465501
0.0046874
0.00471933
0.00475076
0.00478163
0.0048119
0.00484153
0.00487047
0.00489869
0.00492613
0.00495277
0.00497855
0.00500344
0.0050274
0.0050504
0.00507241
0.00509339
0.00511332
0.00513216
0.0051499
0.0051665
0.00518195
0.00519621
0.00520931
0.00522116
0.00523185
0.00524124
0.0052495
0.00525637
0.00526222
0.00526655
0.00527008
0.00527183
0.00527323
0.00527236
0.00527199
0.00526839
0.00526691
0.00526052
0.00302316
0.00301846
0.00301746
0.00301487
0.00301458
0.00301379
0.00301446
0.00301516
0.0030169
0.00301893
0.00302177
0.00302505
0.00302903
0.00303352
0.00303866
0.00304435
0.00305067
0.00305757
0.00306508
0.00307319
0.00308191
0.00309123
0.00310118
0.00311173
0.00312291
0.0031347
0.00314712
0.00316017
0.00317385
0.00318816
0.0032031
0.00321867
0.00323489
0.00325174