/*--------------------------------*- C++ -*----------------------------------*\
| =========                 |                                                 |
| \\      /  F ield         | OpenFOAM: The Open Source CFD Toolbox           |
|  \\    /   O peration     | Version:  2406                                  |
|   \\  /    A nd           | Website:  www.openfoam.com                      |
|    \\/     M anipulation  |                                                 |
\*---------------------------------------------------------------------------*/
FoamFile
{
    version     2.0;
    format      ascii;
    arch        "LSB;label=32;scalar=64";
    class       volVectorField;
    location    "6";
    object      U;
}
// * * * * * * * * * * * * * * * * * * * * * * * * * * * * * * * * * * * * * //

dimensions      [0 1 -1 0 0 0 0];

internalField   nonuniform List<vector> 
16384
(
(2.84033e-06 -2.83471e-06 0)
(4.81762e-06 -1.53463e-06 0)
(-3.30224e-06 5.38244e-07 0)
(-2.22781e-05 2.53028e-06 0)
(-5.06611e-05 4.07696e-06 0)
(-8.67941e-05 5.17233e-06 0)
(-0.000128928 5.91654e-06 0)
(-0.000175537 6.40278e-06 0)
(-0.000225389 6.7046e-06 0)
(-0.000277517 6.87768e-06 0)
(-0.000331185 6.96306e-06 0)
(-0.000385845 6.99037e-06 0)
(-0.000441092 6.98071e-06 0)
(-0.000496638 6.94882e-06 0)
(-0.000552281 6.90483e-06 0)
(-0.000607884 6.8555e-06 0)
(-0.000663355 6.8052e-06 0)
(-0.000718639 6.75658e-06 0)
(-0.000773701 6.71103e-06 0)
(-0.000828522 6.66908e-06 0)
(-0.000883093 6.63069e-06 0)
(-0.00093741 6.59546e-06 0)
(-0.000991468 6.56282e-06 0)
(-0.00104527 6.53212e-06 0)
(-0.0010988 6.5026e-06 0)
(-0.00115206 6.47354e-06 0)
(-0.00120504 6.44423e-06 0)
(-0.00125772 6.41403e-06 0)
(-0.00131009 6.38237e-06 0)
(-0.00136213 6.34869e-06 0)
(-0.00141381 6.31246e-06 0)
(-0.00146511 6.27316e-06 0)
(-0.001516 6.23032e-06 0)
(-0.00156645 6.18355e-06 0)
(-0.00161642 6.13241e-06 0)
(-0.00166587 6.07649e-06 0)
(-0.00171477 6.0153e-06 0)
(-0.00176306 5.94841e-06 0)
(-0.0018107 5.87538e-06 0)
(-0.00185764 5.79582e-06 0)
(-0.00190383 5.70931e-06 0)
(-0.00194922 5.61541e-06 0)
(-0.00199373 5.51363e-06 0)
(-0.00203732 5.40354e-06 0)
(-0.00207992 5.28471e-06 0)
(-0.00212146 5.15673e-06 0)
(-0.00216186 5.01916e-06 0)
(-0.00220107 4.8716e-06 0)
(-0.002239 4.71363e-06 0)
(-0.00227558 4.54491e-06 0)
(-0.00231073 4.3651e-06 0)
(-0.00234436 4.17387e-06 0)
(-0.0023764 3.9709e-06 0)
(-0.00240677 3.75596e-06 0)
(-0.00243537 3.52886e-06 0)
(-0.00246212 3.2895e-06 0)
(-0.00248693 3.0378e-06 0)
(-0.00250973 2.77374e-06 0)
(-0.00253042 2.49731e-06 0)
(-0.00254892 2.20864e-06 0)
(-0.00256515 1.90797e-06 0)
(-0.00257904 1.59565e-06 0)
(-0.00259049 1.27209e-06 0)
(-0.00259944 9.37783e-07 0)
(-0.00260582 5.9338e-07 0)
(-0.00260957 2.40404e-07 0)
(-0.00261061 -1.19021e-07 0)
(-0.0026089 -4.92867e-07 0)
(-0.0026044 -8.71847e-07 0)
(-0.00259705 -1.25575e-06 0)
(-0.00258683 -1.64399e-06 0)
(-0.0025737 -2.03545e-06 0)
(-0.00255766 -2.42881e-06 0)
(-0.0025387 -2.82268e-06 0)
(-0.00251682 -3.21562e-06 0)
(-0.00249203 -3.60607e-06 0)
(-0.00246435 -3.99243e-06 0)
(-0.00243381 -4.37305e-06 0)
(-0.00240046 -4.74631e-06 0)
(-0.00236435 -5.11064e-06 0)
(-0.00232554 -5.46445e-06 0)
(-0.00228411 -5.80619e-06 0)
(-0.00224013 -6.13431e-06 0)
(-0.00219371 -6.44737e-06 0)
(-0.00214494 -6.74403e-06 0)
(-0.00209394 -7.02306e-06 0)
(-0.00204081 -7.28336e-06 0)
(-0.00198568 -7.52394e-06 0)
(-0.00192869 -7.74391e-06 0)
(-0.00186997 -7.94257e-06 0)
(-0.00180965 -8.1194e-06 0)
(-0.00174789 -8.27402e-06 0)
(-0.00168483 -8.40619e-06 0)
(-0.00162061 -8.51583e-06 0)
(-0.00155539 -8.60301e-06 0)
(-0.00148931 -8.66797e-06 0)
(-0.00142252 -8.71108e-06 0)
(-0.00135516 -8.73279e-06 0)
(-0.00128739 -8.73359e-06 0)
(-0.00121935 -8.71402e-06 0)
(-0.00115117 -8.67464e-06 0)
(-0.001083 -8.61604e-06 0)
(-0.00101497 -8.5387e-06 0)
(-0.000947219 -8.44294e-06 0)
(-0.000879894 -8.32889e-06 0)
(-0.000813135 -8.19638e-06 0)
(-0.00074709 -8.04499e-06 0)
(-0.000681916 -7.87388e-06 0)
(-0.00061778 -7.6817e-06 0)
(-0.000554867 -7.46656e-06 0)
(-0.000493378 -7.22594e-06 0)
(-0.00043354 -6.9566e-06 0)
(-0.000375609 -6.65451e-06 0)
(-0.000319874 -6.31469e-06 0)
(-0.000266662 -5.93116e-06 0)
(-0.000216346 -5.49682e-06 0)
(-0.000169347 -5.00341e-06 0)
(-0.000126134 -4.44142e-06 0)
(-8.72286e-05 -3.80002e-06 0)
(-5.31979e-05 -3.06659e-06 0)
(-2.46348e-05 -2.22862e-06 0)
(-2.12483e-06 -1.28757e-06 0)
(1.37603e-05 -2.59514e-07 0)
(2.26414e-05 8.63288e-07 0)
(2.44909e-05 1.97248e-06 0)
(1.99492e-05 2.91196e-06 0)
(1.11334e-05 3.24889e-06 0)
(2.2645e-06 2.27606e-06 0)
(1.56124e-06 -4.83748e-06 0)
(-8.38982e-06 8.33071e-06 0)
(-4.171e-05 2.79894e-05 0)
(-9.91156e-05 4.73817e-05 0)
(-0.000178347 6.39895e-05 0)
(-0.000276071 7.72908e-05 0)
(-0.000388721 8.75101e-05 0)
(-0.000513003 9.51144e-05 0)
(-0.000646087 0.000100608 0)
(-0.000785646 0.000104451 0)
(-0.000929826 0.000107034 0)
(-0.00107718 0.000108675 0)
(-0.00122661 0.000109626 0)
(-0.00137728 0.000110082 0)
(-0.0015286 0.000110192 0)
(-0.00168012 0.000110067 0)
(-0.00183155 0.000109786 0)
(-0.00198266 0.000109407 0)
(-0.00213333 0.000108969 0)
(-0.00228344 0.000108497 0)
(-0.00243295 0.000108006 0)
(-0.00258181 0.000107503 0)
(-0.00272998 0.000106991 0)
(-0.00287743 0.000106468 0)
(-0.00302415 0.000105932 0)
(-0.00317008 0.000105377 0)
(-0.0033152 0.000104798 0)
(-0.00345945 0.000104188 0)
(-0.00360279 0.00010354 0)
(-0.00374516 0.00010285 0)
(-0.00388649 0.00010211 0)
(-0.0040267 0.000101315 0)
(-0.0041657 0.000100458 0)
(-0.00430342 9.95337e-05 0)
(-0.00443975 9.85364e-05 0)
(-0.00457459 9.74603e-05 0)
(-0.00470781 9.62997e-05 0)
(-0.00483931 9.50487e-05 0)
(-0.00496895 9.37018e-05 0)
(-0.00509659 9.22532e-05 0)
(-0.00522211 9.06973e-05 0)
(-0.00534533 8.90286e-05 0)
(-0.00546612 8.72414e-05 0)
(-0.0055843 8.53302e-05 0)
(-0.0056997 8.32896e-05 0)
(-0.00581214 8.11145e-05 0)
(-0.00592145 7.87997e-05 0)
(-0.00602742 7.63405e-05 0)
(-0.00612986 7.37323e-05 0)
(-0.00622858 7.0971e-05 0)
(-0.00632336 6.80527e-05 0)
(-0.006414 6.49743e-05 0)
(-0.00650027 6.17328e-05 0)
(-0.00658196 5.8326e-05 0)
(-0.00665886 5.47525e-05 0)
(-0.00673074 5.10112e-05 0)
(-0.00679739 4.71024e-05 0)
(-0.00685857 4.30268e-05 0)
(-0.00691408 3.87861e-05 0)
(-0.00696371 3.4383e-05 0)
(-0.00700723 2.98213e-05 0)
(-0.00704446 2.51058e-05 0)
(-0.00707519 2.02426e-05 0)
(-0.00709924 1.52388e-05 0)
(-0.00711643 1.01028e-05 0)
(-0.00712661 4.84461e-06 0)
(-0.00712961 -5.23633e-07 0)
(-0.00712532 -5.99334e-06 0)
(-0.00711358 -1.15498e-05 0)
(-0.00709433 -1.71788e-05 0)
(-0.00706746 -2.2865e-05 0)
(-0.00703293 -2.85918e-05 0)
(-0.0069907 -3.43419e-05 0)
(-0.00694074 -4.00972e-05 0)
(-0.00688306 -4.58389e-05 0)
(-0.00681771 -5.15476e-05 0)
(-0.00674472 -5.72037e-05 0)
(-0.0066642 -6.27869e-05 0)
(-0.00657624 -6.82771e-05 0)
(-0.00648098 -7.36544e-05 0)
(-0.00637859 -7.8899e-05 0)
(-0.00626923 -8.39917e-05 0)
(-0.00615313 -8.89138e-05 0)
(-0.00603052 -9.36475e-05 0)
(-0.00590164 -9.8176e-05 0)
(-0.00576678 -0.000102484 0)
(-0.00562622 -0.000106557 0)
(-0.00548027 -0.000110382 0)
(-0.00532927 -0.000113948 0)
(-0.00517355 -0.000117246 0)
(-0.00501346 -0.000120268 0)
(-0.00484936 -0.000123008 0)
(-0.00468161 -0.000125462 0)
(-0.0045106 -0.000127627 0)
(-0.00433668 -0.000129502 0)
(-0.00416024 -0.000131087 0)
(-0.00398165 -0.000132386 0)
(-0.00380128 -0.000133399 0)
(-0.0036195 -0.000134131 0)
(-0.00343669 -0.000134584 0)
(-0.00325319 -0.000134762 0)
(-0.00306938 -0.000134667 0)
(-0.00288561 -0.000134299 0)
(-0.00270226 -0.000133657 0)
(-0.0025197 -0.000132735 0)
(-0.0023383 -0.000131524 0)
(-0.00215848 -0.000130012 0)
(-0.00198065 -0.000128177 0)
(-0.00180528 -0.000125993 0)
(-0.00163286 -0.000123427 0)
(-0.00146397 -0.000120434 0)
(-0.00129921 -0.000116963 0)
(-0.00113928 -0.000112953 0)
(-0.000984973 -0.00010833 0)
(-0.000837174 -0.000103015 0)
(-0.000696876 -9.69174e-05 0)
(-0.000565192 -8.99432e-05 0)
(-0.000443347 -8.19963e-05 0)
(-0.00033267 -7.29877e-05 0)
(-0.000234571 -6.28485e-05 0)
(-0.000150487 -5.15556e-05 0)
(-8.17883e-05 -3.91813e-05 0)
(-2.96409e-05 -2.59651e-05 0)
(5.24243e-06 -1.23712e-05 0)
(2.30157e-05 5.91822e-07 0)
(2.5265e-05 1.11848e-05 0)
(1.62179e-05 1.62823e-05 0)
(3.19187e-06 1.11012e-05 0)
(-5.47268e-07 3.34353e-06 0)
(-2.85947e-05 4.17655e-05 0)
(-9.1443e-05 9.02218e-05 0)
(-0.00018765 0.000137285 0)
(-0.000313862 0.000178385 0)
(-0.000465872 0.000212224 0)
(-0.000639187 0.000238994 0)
(-0.000829525 0.000259516 0)
(-0.00103309 0.000274809 0)
(-0.00124665 0.000285878 0)
(-0.00146758 0.000293623 0)
(-0.00169374 0.000298812 0)
(-0.00192349 0.000302071 0)
(-0.00215554 0.000303903 0)
(-0.00238894 0.000304702 0)
(-0.00262296 0.000304766 0)
(-0.00285708 0.00030432 0)
(-0.00309093 0.000303528 0)
(-0.00332425 0.000302506 0)
(-0.00355683 0.000301332 0)
(-0.00378856 0.000300055 0)
(-0.00401932 0.000298705 0)
(-0.00424904 0.000297296 0)
(-0.00447765 0.000295831 0)
(-0.00470509 0.000294304 0)
(-0.00493128 0.000292707 0)
(-0.00515615 0.000291027 0)
(-0.00537963 0.000289251 0)
(-0.00560162 0.000287362 0)
(-0.00582202 0.000285345 0)
(-0.00604072 0.000283184 0)
(-0.0062576 0.000280865 0)
(-0.00647253 0.000278371 0)
(-0.00668536 0.000275688 0)
(-0.00689594 0.000272799 0)
(-0.0071041 0.00026969 0)
(-0.00730967 0.000266346 0)
(-0.00751246 0.000262751 0)
(-0.00771226 0.000258892 0)
(-0.00790888 0.000254752 0)
(-0.00810208 0.000250318 0)
(-0.00829165 0.000245574 0)
(-0.00847733 0.000240506 0)
(-0.00865889 0.0002351 0)
(-0.00883605 0.000229342 0)
(-0.00900855 0.000223219 0)
(-0.00917611 0.000216717 0)
(-0.00933844 0.000209825 0)
(-0.00949524 0.000202532 0)
(-0.00964622 0.000194826 0)
(-0.00979105 0.000186699 0)
(-0.00992943 0.000178143 0)
(-0.010061 0.000169152 0)
(-0.0101855 0.000159719 0)
(-0.0103026 0.000149843 0)
(-0.0104119 0.000139521 0)
(-0.0105132 0.000128755 0)
(-0.0106061 0.000117548 0)
(-0.0106902 0.000105905 0)
(-0.0107653 9.38353e-05 0)
(-0.0108311 8.13487e-05 0)
(-0.0108872 6.84591e-05 0)
(-0.0109334 5.51831e-05 0)
(-0.0109695 4.15403e-05 0)
(-0.010995 2.7553e-05 0)
(-0.01101 1.32458e-05 0)
(-0.011014 -1.35168e-06 0)
(-0.0110069 -1.61958e-05 0)
(-0.0109886 -3.12643e-05 0)
(-0.0109589 -4.65194e-05 0)
(-0.0109177 -6.19193e-05 0)
(-0.010865 -7.74204e-05 0)
(-0.0108005 -9.29774e-05 0)
(-0.0107245 -0.000108543 0)
(-0.0106368 -0.000124068 0)
(-0.0105375 -0.000139502 0)
(-0.0104267 -0.000154794 0)
(-0.0103046 -0.000169892 0)
(-0.0101713 -0.000184745 0)
(-0.0100269 -0.000199299 0)
(-0.00987184 -0.000213505 0)
(-0.00970626 -0.000227313 0)
(-0.0095305 -0.000240675 0)
(-0.0093449 -0.000253545 0)
(-0.00914983 -0.00026588 0)
(-0.00894569 -0.00027764 0)
(-0.00873291 -0.000288788 0)
(-0.00851193 -0.000299291 0)
(-0.00828325 -0.00030912 0)
(-0.00804734 -0.000318252 0)
(-0.00780472 -0.000326664 0)
(-0.0075559 -0.000334341 0)
(-0.00730143 -0.000341272 0)
(-0.00704185 -0.000347449 0)
(-0.00677768 -0.000352868 0)
(-0.00650949 -0.00035753 0)
(-0.00623782 -0.000361436 0)
(-0.00596321 -0.000364592 0)
(-0.00568621 -0.000367005 0)
(-0.00540735 -0.000368679 0)
(-0.00512718 -0.000369619 0)
(-0.00484623 -0.000369828 0)
(-0.00456504 -0.000369303 0)
(-0.00428417 -0.000368034 0)
(-0.00400416 -0.000366004 0)
(-0.00372562 -0.000363184 0)
(-0.00344914 -0.000359532 0)
(-0.00317537 -0.000354989 0)
(-0.00290503 -0.000349481 0)
(-0.00263888 -0.000342909 0)
(-0.00237778 -0.000335155 0)
(-0.00212267 -0.000326078 0)
(-0.00187463 -0.00031551 0)
(-0.00163484 -0.000303261 0)
(-0.00140466 -0.00028912 0)
(-0.00118556 -0.000272859 0)
(-0.000979216 -0.000254247 0)
(-0.000787416 -0.000233057 0)
(-0.000612093 -0.000209098 0)
(-0.000455259 -0.000182254 0)
(-0.000318918 -0.000152547 0)
(-0.000204931 -0.000120245 0)
(-0.000114813 -8.60148e-05 0)
(-4.94051e-05 -5.11616e-05 0)
(-8.38508e-06 -1.80077e-05 0)
(1.0253e-05 9.56525e-06 0)
(1.13688e-05 2.5328e-05 0)
(2.83014e-06 1.98146e-05 0)
(-2.65927e-06 2.28589e-05 0)
(-4.93358e-05 0.000100378 0)
(-0.000141757 0.000187099 0)
(-0.000275467 0.000269542 0)
(-0.000445277 0.000341812 0)
(-0.000646071 0.000402046 0)
(-0.000872694 0.000450441 0)
(-0.00112025 0.000488181 0)
(-0.00138435 0.000516826 0)
(-0.00166121 0.000537981 0)
(-0.00194766 0.000553133 0)
(-0.0022411 0.000563579 0)
(-0.00253948 0.000570409 0)
(-0.00284117 0.00057451 0)
(-0.0031449 0.000576591 0)
(-0.00344973 0.000577202 0)
(-0.00375494 0.000576761 0)
(-0.00406 0.000575581 0)
(-0.00436452 0.000573885 0)
(-0.00466822 0.000571831 0)
(-0.00497087 0.000569521 0)
(-0.00527231 0.000567019 0)
(-0.00557241 0.00056436 0)
(-0.00587105 0.000561556 0)
(-0.00616813 0.000558605 0)
(-0.00646354 0.000555495 0)
(-0.00675717 0.000552207 0)
(-0.00704889 0.000548717 0)
(-0.00733859 0.000545 0)
(-0.00762611 0.000541029 0)
(-0.00791132 0.000536775 0)
(-0.00819403 0.000532212 0)
(-0.00847407 0.000527312 0)
(-0.00875126 0.000522046 0)
(-0.00902538 0.000516387 0)
(-0.00929621 0.000510307 0)
(-0.00956353 0.00050378 0)
(-0.00982708 0.000496777 0)
(-0.0100866 0.000489272 0)
(-0.0103418 0.000481238 0)
(-0.0105925 0.000472647 0)
(-0.0108383 0.000463473 0)
(-0.0110788 0.00045369 0)
(-0.0113139 0.000443273 0)
(-0.0115431 0.000432196 0)
(-0.0117661 0.000420437 0)
(-0.0119825 0.000407971 0)
(-0.012192 0.000394779 0)
(-0.0123942 0.000380839 0)
(-0.0125888 0.000366135 0)
(-0.0127752 0.00035065 0)
(-0.0129531 0.00033437 0)
(-0.0131222 0.000317286 0)
(-0.0132819 0.000299389 0)
(-0.0134319 0.000280675 0)
(-0.0135719 0.000261144 0)
(-0.0137013 0.000240797 0)
(-0.0138197 0.000219643 0)
(-0.0139269 0.000197694 0)
(-0.0140223 0.000174965 0)
(-0.0141056 0.000151478 0)
(-0.0141765 0.00012726 0)
(-0.0142345 0.000102342 0)
(-0.0142794 7.67609e-05 0)
(-0.0143109 5.05598e-05 0)
(-0.0143287 2.37861e-05 0)
(-0.0143324 -3.50595e-06 0)
(-0.0143219 -3.12506e-05 0)
(-0.014297 -5.93895e-05 0)
(-0.0142576 -8.78539e-05 0)
(-0.0142034 -0.000116569 0)
(-0.0141344 -0.000145457 0)
(-0.0140506 -0.000174434 0)
(-0.0139518 -0.000203415 0)
(-0.0138383 -0.00023231 0)
(-0.01371 -0.000261029 0)
(-0.0135671 -0.000289479 0)
(-0.0134097 -0.000317566 0)
(-0.0132381 -0.000345197 0)
(-0.0130525 -0.000372278 0)
(-0.0128532 -0.000398719 0)
(-0.0126405 -0.00042443 0)
(-0.0124149 -0.000449325 0)
(-0.0121768 -0.000473322 0)
(-0.0119266 -0.000496344 0)
(-0.0116648 -0.00051832 0)
(-0.011392 -0.000539183 0)
(-0.0111088 -0.000558874 0)
(-0.0108156 -0.000577343 0)
(-0.0105132 -0.000594543 0)
(-0.0102022 -0.000610438 0)
(-0.00988322 -0.000625 0)
(-0.00955689 -0.000638206 0)
(-0.0092239 -0.000650043 0)
(-0.00888492 -0.000660503 0)
(-0.00854065 -0.000669584 0)
(-0.00819174 -0.000677289 0)
(-0.00783888 -0.000683625 0)
(-0.00748275 -0.0006886 0)
(-0.00712402 -0.000692222 0)
(-0.00676335 -0.000694495 0)
(-0.00640144 -0.000695419 0)
(-0.00603895 -0.000694984 0)
(-0.00567658 -0.000693167 0)
(-0.00531504 -0.000689931 0)
(-0.00495508 -0.000685216 0)
(-0.00459747 -0.00067894 0)
(-0.00424305 -0.000670988 0)
(-0.00389272 -0.000661217 0)
(-0.00354747 -0.000649443 0)
(-0.0032084 -0.000635443 0)
(-0.00287671 -0.000618954 0)
(-0.00255378 -0.00059967 0)
(-0.00224111 -0.000577244 0)
(-0.00194039 -0.000551299 0)
(-0.00165352 -0.000521435 0)
(-0.00138253 -0.000487248 0)
(-0.00112966 -0.000448368 0)
(-0.000897257 -0.000404498 0)
(-0.000687751 -0.000355497 0)
(-0.00050352 -0.000301489 0)
(-0.000346742 -0.000243034 0)
(-0.000219153 -0.000181379 0)
(-0.000121713 -0.000118808 0)
(-5.41533e-05 -5.91606e-05 0)
(-1.4515e-05 -8.53958e-06 0)
(1.79845e-06 2.38955e-05 0)
(1.92984e-06 2.45292e-05 0)
(-4.41743e-06 5.27173e-05 0)
(-6.81618e-05 0.000182941 0)
(-0.000188224 0.000316736 0)
(-0.000356846 0.000440846 0)
(-0.000566643 0.00054921 0)
(-0.000811393 0.000639947 0)
(-0.00108528 0.000713496 0)
(-0.00138293 0.000771495 0)
(-0.00169955 0.000816084 0)
(-0.00203096 0.000849491 0)
(-0.00237368 0.000873819 0)
(-0.00272479 0.000890932 0)
(-0.00308194 0.000902421 0)
(-0.00344326 0.000909605 0)
(-0.00380725 0.000913546 0)
(-0.00417278 0.000915084 0)
(-0.00453898 0.000914867 0)
(-0.00490518 0.000913385 0)
(-0.00527087 0.000910993 0)
(-0.00563568 0.000907947 0)
(-0.00599931 0.000904419 0)
(-0.00636153 0.000900519 0)
(-0.00672216 0.000896311 0)
(-0.00708102 0.000891823 0)
(-0.00743797 0.00088706 0)
(-0.00779285 0.000882008 0)
(-0.00814552 0.000876644 0)
(-0.00849582 0.000870934 0)
(-0.00884358 0.000864843 0)
(-0.00918861 0.000858332 0)
(-0.00953074 0.000851357 0)
(-0.00986975 0.00084388 0)
(-0.0102054 0.000835856 0)
(-0.0105375 0.000827244 0)
(-0.0108658 0.000818001 0)
(-0.0111899 0.000808086 0)
(-0.0115097 0.000797457 0)
(-0.0118248 0.000786071 0)
(-0.012135 0.000773887 0)
(-0.0124398 0.000760864 0)
(-0.0127389 0.000746961 0)
(-0.013032 0.000732137 0)
(-0.0133188 0.000716354 0)
(-0.0135987 0.000699571 0)
(-0.0138715 0.000681752 0)
(-0.0141367 0.000662862 0)
(-0.0143939 0.000642866 0)
(-0.0146426 0.000621732 0)
(-0.0148824 0.000599432 0)
(-0.0151129 0.000575939 0)
(-0.0153335 0.000551231 0)
(-0.0155439 0.000525288 0)
(-0.0157435 0.000498096 0)
(-0.0159319 0.000469646 0)
(-0.0161086 0.000439931 0)
(-0.0162732 0.000408954 0)
(-0.016425 0.000376722 0)
(-0.0165638 0.000343247 0)
(-0.016689 0.000308549 0)
(-0.0168001 0.000272657 0)
(-0.0168968 0.000235606 0)
(-0.0169787 0.000197439 0)
(-0.0170453 0.000158206 0)
(-0.0170962 0.000117966 0)
(-0.0171312 7.67883e-05 0)
(-0.0171499 3.47479e-05 0)
(-0.017152 -8.07028e-06 0)
(-0.0171373 -5.15743e-05 0)
(-0.0171055 -9.56638e-05 0)
(-0.0170565 -0.000140232 0)
(-0.0169901 -0.000185163 0)
(-0.0169062 -0.000230337 0)
(-0.0168049 -0.000275627 0)
(-0.0166861 -0.000320901 0)
(-0.0165498 -0.000366022 0)
(-0.0163962 -0.000410853 0)
(-0.0162254 -0.000455251 0)
(-0.0160377 -0.000499074 0)
(-0.0158332 -0.000542179 0)
(-0.0156124 -0.000584426 0)
(-0.0153755 -0.000625676 0)
(-0.0151229 -0.000665795 0)
(-0.0148552 -0.000704651 0)
(-0.0145728 -0.000742123 0)
(-0.0142763 -0.000778093 0)
(-0.0139663 -0.000812452 0)
(-0.0136433 -0.000845103 0)
(-0.013308 -0.000875956 0)
(-0.0129612 -0.000904933 0)
(-0.0126034 -0.000931967 0)
(-0.0122355 -0.000957002 0)
(-0.0118582 -0.000979995 0)
(-0.0114722 -0.00100091 0)
(-0.0110783 -0.00101973 0)
(-0.0106773 -0.00103644 0)
(-0.01027 -0.00105104 0)
(-0.0098571 -0.00106353 0)
(-0.00943945 -0.00107391 0)
(-0.00901779 -0.0010822 0)
(-0.00859291 -0.00108841 0)
(-0.00816558 -0.00109253 0)
(-0.00773659 -0.00109456 0)
(-0.00730673 -0.00109449 0)
(-0.0068768 -0.00109227 0)
(-0.00644763 -0.00108783 0)
(-0.00602009 -0.00108108 0)
(-0.0055951 -0.00107188 0)
(-0.00517363 -0.00106005 0)
(-0.00475674 -0.00104536 0)
(-0.00434559 -0.00102753 0)
(-0.00394146 -0.00100621 0)
(-0.00354577 -0.000980989 0)
(-0.00316011 -0.0009514 0)
(-0.00278623 -0.000916917 0)
(-0.00242608 -0.000876974 0)
(-0.00208183 -0.000830978 0)
(-0.00175581 -0.000778345 0)
(-0.00145055 -0.000718552 0)
(-0.00116869 -0.000651208 0)
(-0.000912938 -0.000576171 0)
(-0.000685922 -0.000493706 0)
(-0.00049004 -0.000404724 0)
(-0.00032722 -0.000311104 0)
(-0.000198599 -0.000216144 0)
(-0.000104138 -0.000125159 0)
(-4.22004e-05 -4.62283e-05 0)
(-9.06716e-06 8.96029e-06 0)
(9.6857e-07 2.36196e-05 0)
(-5.80267e-06 9.17054e-05 0)
(-8.44628e-05 0.000287127 0)
(-0.000229344 0.000476327 0)
(-0.000429558 0.0006478 0)
(-0.000675468 0.000796382 0)
(-0.000959623 0.00092081 0)
(-0.00127548 0.00102212 0)
(-0.00161719 0.00110258 0)
(-0.0019796 0.00116499 0)
(-0.00235831 0.00121224 0)
(-0.00274957 0.00124708 0)
(-0.00315027 0.00127195 0)
(-0.00355785 0.00128898 0)
(-0.00397028 0.00129992 0)
(-0.0043859 0.00130622 0)
(-0.00480343 0.00130903 0)
(-0.00522188 0.00130925 0)
(-0.00564046 0.00130756 0)
(-0.00605858 0.00130447 0)
(-0.00647578 0.00130036 0)
(-0.00689169 0.00129546 0)
(-0.00730602 0.00128995 0)
(-0.00771853 0.00128393 0)
(-0.00812901 0.00127745 0)
(-0.00853725 0.00127052 0)
(-0.00894307 0.00126313 0)
(-0.00934627 0.00125526 0)
(-0.00974666 0.00124686 0)
(-0.010144 0.00123788 0)
(-0.0105382 0.00122828 0)
(-0.0109289 0.001218 0)
(-0.0113159 0.00120697 0)
(-0.0116989 0.00119515 0)
(-0.0120777 0.00118248 0)
(-0.0124519 0.0011689 0)
(-0.0128213 0.00115434 0)
(-0.0131855 0.00113876 0)
(-0.0135442 0.00112209 0)
(-0.013897 0.00110427 0)
(-0.0142435 0.00108526 0)
(-0.0145835 0.00106498 0)
(-0.0149163 0.0010434 0)
(-0.0152417 0.00102044 0)
(-0.0155591 0.000996067 0)
(-0.0158682 0.000970221 0)
(-0.0161684 0.000942854 0)
(-0.0164593 0.000913922 0)
(-0.0167404 0.000883381 0)
(-0.0170112 0.000851193 0)
(-0.0172712 0.000817324 0)
(-0.0175198 0.000781743 0)
(-0.0177566 0.000744428 0)
(-0.0179809 0.000705359 0)
(-0.0181924 0.000664527 0)
(-0.0183904 0.000621926 0)
(-0.0185744 0.000577561 0)
(-0.0187439 0.000531446 0)
(-0.0188985 0.000483601 0)
(-0.0190375 0.000434057 0)
(-0.0191605 0.000382857 0)
(-0.0192671 0.000330053 0)
(-0.0193567 0.000275707 0)
(-0.019429 0.000219893 0)
(-0.0194835 0.000162696 0)
(-0.0195199 0.000104214 0)
(-0.0195379 4.4556e-05 0)
(-0.0195371 -1.61598e-05 0)
(-0.0195172 -7.78045e-05 0)
(-0.0194782 -0.000140235 0)
(-0.0194196 -0.0002033 0)
(-0.0193416 -0.000266839 0)
(-0.0192439 -0.000330683 0)
(-0.0191265 -0.000394656 0)
(-0.0189894 -0.000458573 0)
(-0.0188328 -0.000522246 0)
(-0.0186568 -0.000585482 0)
(-0.0184615 -0.000648085 0)
(-0.0182472 -0.000709859 0)
(-0.0180142 -0.000770608 0)
(-0.0177629 -0.000830137 0)
(-0.0174936 -0.000888256 0)
(-0.0172069 -0.00094478 0)
(-0.0169033 -0.00099953 0)
(-0.0165832 -0.00105234 0)
(-0.0162474 -0.00110304 0)
(-0.0158965 -0.0011515 0)
(-0.0155312 -0.00119757 0)
(-0.0151521 -0.00124114 0)
(-0.0147602 -0.0012821 0)
(-0.014356 -0.00132035 0)
(-0.0139406 -0.00135582 0)
(-0.0135146 -0.00138846 0)
(-0.0130789 -0.00141821 0)
(-0.0126344 -0.00144505 0)
(-0.0121819 -0.00146896 0)
(-0.0117222 -0.00148993 0)
(-0.0112564 -0.00150797 0)
(-0.0107851 -0.00152309 0)
(-0.0103092 -0.00153528 0)
(-0.00982972 -0.00154457 0)
(-0.00934737 -0.00155095 0)
(-0.00886305 -0.00155441 0)
(-0.00837764 -0.00155492 0)
(-0.00789204 -0.0015524 0)
(-0.00740717 -0.00154677 0)
(-0.00692398 -0.00153788 0)
(-0.0064435 -0.00152554 0)
(-0.00596682 -0.00150948 0)
(-0.00549511 -0.00148938 0)
(-0.00502966 -0.00146484 0)
(-0.00457189 -0.00143538 0)
(-0.00412337 -0.00140042 0)
(-0.00368585 -0.00135933 0)
(-0.00326126 -0.00131138 0)
(-0.00285174 -0.0012558 0)
(-0.00245964 -0.00119181 0)
(-0.00208749 -0.00111862 0)
(-0.00173803 -0.00103557 0)
(-0.00141407 -0.000942186 0)
(-0.00111853 -0.000838329 0)
(-0.000854203 -0.000724429 0)
(-0.000623667 -0.000601756 0)
(-0.000429039 -0.000472811 0)
(-0.000271698 -0.000341842 0)
(-0.000151953 -0.000215481 0)
(-6.87247e-05 -0.000103497 0)
(-1.94202e-05 -1.96716e-05 0)
(9.75464e-08 1.70242e-05 0)
(-6.89292e-06 0.000138443 0)
(-9.82936e-05 0.00041023 0)
(-0.000264923 0.000662573 0)
(-0.000493145 0.000886702 0)
(-0.000771208 0.00107918 0)
(-0.0010904 0.00123997 0)
(-0.00144341 0.00137108 0)
(-0.00182388 0.00147563 0)
(-0.00222634 0.00155722 0)
(-0.00264616 0.00161947 0)
(-0.00307942 0.00166578 0)
(-0.00352286 0.00169922 0)
(-0.0039738 0.00172243 0)
(-0.00443007 0.00173764 0)
(-0.00488993 0.00174669 0)
(-0.00535199 0.00175105 0)
(-0.00581514 0.00175188 0)
(-0.00627854 0.00175007 0)
(-0.00674151 0.00174629 0)
(-0.00720352 0.00174104 0)
(-0.00766415 0.00173465 0)
(-0.00812304 0.00172735 0)
(-0.00857992 0.00171928 0)
(-0.0090345 0.00171052 0)
(-0.00948657 0.0017011 0)
(-0.00993588 0.00169101 0)
(-0.0103822 0.00168023 0)
(-0.0108253 0.00166869 0)
(-0.011265 0.00165636 0)
(-0.011701 0.00164316 0)
(-0.012133 0.00162901 0)
(-0.0125607 0.00161386 0)
(-0.0129839 0.00159763 0)
(-0.0134023 0.00158023 0)
(-0.0138154 0.0015616 0)
(-0.014223 0.00154166 0)
(-0.0146248 0.00152034 0)
(-0.0150202 0.00149756 0)
(-0.0154089 0.00147324 0)
(-0.0157905 0.00144731 0)
(-0.0161646 0.0014197 0)
(-0.0165306 0.00139034 0)
(-0.0168883 0.00135915 0)
(-0.0172369 0.00132607 0)
(-0.0175761 0.00129104 0)
(-0.0179053 0.00125399 0)
(-0.0182241 0.00121486 0)
(-0.0185318 0.0011736 0)
(-0.018828 0.00113017 0)
(-0.019112 0.00108451 0)
(-0.0193833 0.0010366 0)
(-0.0196414 0.000986398 0)
(-0.0198856 0.000933895 0)
(-0.0201155 0.000879076 0)
(-0.0203303 0.000821939 0)
(-0.0205296 0.000762493 0)
(-0.0207129 0.000700759 0)
(-0.0208794 0.000636768 0)
(-0.0210288 0.000570565 0)
(-0.0211605 0.00050221 0)
(-0.021274 0.000431772 0)
(-0.0213688 0.000359339 0)
(-0.0214445 0.00028501 0)
(-0.0215006 0.000208902 0)
(-0.0215368 0.000131143 0)
(-0.0215527 5.18799e-05 0)
(-0.0215479 -2.873e-05 0)
(-0.0215224 -0.000110515 0)
(-0.0214757 -0.000193287 0)
(-0.0214077 -0.000276845 0)
(-0.0213184 -0.00036098 0)
(-0.0212076 -0.000445468 0)
(-0.0210753 -0.000530079 0)
(-0.0209216 -0.000614573 0)
(-0.0207466 -0.000698703 0)
(-0.0205504 -0.000782217 0)
(-0.0203333 -0.000864863 0)
(-0.0200955 -0.000946385 0)
(-0.0198374 -0.00102653 0)
(-0.0195594 -0.00110504 0)
(-0.019262 -0.00118168 0)
(-0.0189457 -0.0012562 0)
(-0.018611 -0.00132838 0)
(-0.0182586 -0.001398 0)
(-0.0178891 -0.00146485 0)
(-0.0175033 -0.00152875 0)
(-0.0171019 -0.00158952 0)
(-0.0166857 -0.00164701 0)
(-0.0162555 -0.00170108 0)
(-0.0158122 -0.00175161 0)
(-0.0153567 -0.00179852 0)
(-0.0148898 -0.00184171 0)
(-0.0144125 -0.00188115 0)
(-0.0139256 -0.00191679 0)
(-0.0134302 -0.0019486 0)
(-0.012927 -0.00197658 0)
(-0.0124171 -0.00200073 0)
(-0.0119014 -0.00202106 0)
(-0.0113807 -0.00203759 0)
(-0.0108561 -0.00205031 0)
(-0.0103283 -0.00205922 0)
(-0.00979847 -0.00206431 0)
(-0.00926741 -0.00206552 0)
(-0.00873612 -0.00206277 0)
(-0.00820557 -0.00205591 0)
(-0.00767683 -0.00204476 0)
(-0.00715097 -0.00202906 0)
(-0.00662916 -0.00200846 0)
(-0.00611268 -0.00198254 0)
(-0.00560291 -0.00195077 0)
(-0.00510136 -0.00191251 0)
(-0.0046097 -0.00186704 0)
(-0.00412981 -0.00181353 0)
(-0.00366373 -0.00175104 0)
(-0.00321372 -0.00167861 0)
(-0.00278226 -0.00159524 0)
(-0.00237201 -0.00149997 0)
(-0.00198583 -0.00139198 0)
(-0.00162668 -0.00127071 0)
(-0.00129758 -0.00113604 0)
(-0.00100149 -0.000988554 0)
(-0.000741123 -0.000829861 0)
(-0.000518809 -0.000663031 0)
(-0.000336211 -0.000493151 0)
(-0.00019406 -0.000327987 0)
(-9.19281e-05 -0.000178721 0)
(-2.8327e-05 -6.07552e-05 0)
(-5.91065e-07 5.39592e-06 0)
(-7.75832e-06 0.000191673 0)
(-0.000109925 0.000549598 0)
(-0.00029533 0.000872108 0)
(-0.000548019 0.00115378 0)
(-0.000854365 0.00139351 0)
(-0.00120446 0.001593 0)
(-0.00159019 0.00175559 0)
(-0.00200468 0.00188551 0)
(-0.00244216 0.00198727 0)
(-0.00289775 0.00206531 0)
(-0.00336739 0.00212377 0)
(-0.00384772 0.00216633 0)
(-0.00433598 0.00219618 0)
(-0.0048299 0.00221603 0)
(-0.00532767 0.00222811 0)
(-0.00582782 0.00223422 0)
(-0.00632921 0.00223578 0)
(-0.00683091 0.00223391 0)
(-0.00733219 0.00222943 0)
(-0.00783246 0.00222297 0)
(-0.00833125 0.00221496 0)
(-0.00882818 0.0022057 0)
(-0.00932289 0.00219537 0)
(-0.0098151 0.00218408 0)
(-0.0103045 0.00217188 0)
(-0.0107909 0.00215876 0)
(-0.011274 0.0021447 0)
(-0.0117534 0.00212963 0)
(-0.0122291 0.0021135 0)
(-0.0127006 0.00209623 0)
(-0.0131677 0.00207773 0)
(-0.01363 0.00205791 0)
(-0.0140872 0.00203668 0)
(-0.0145391 0.00201396 0)
(-0.0149851 0.00198964 0)
(-0.015425 0.00196364 0)
(-0.0158583 0.00193586 0)
(-0.0162846 0.00190621 0)
(-0.0167035 0.0018746 0)
(-0.0171145 0.00184092 0)
(-0.0175172 0.00180511 0)
(-0.017911 0.00176705 0)
(-0.0182955 0.00172668 0)
(-0.01867 0.0016839 0)
(-0.0190342 0.00163864 0)
(-0.0193874 0.00159083 0)
(-0.0197291 0.00154038 0)
(-0.0200587 0.00148724 0)
(-0.0203756 0.00143135 0)
(-0.0206792 0.00137266 0)
(-0.020969 0.00131112 0)
(-0.0212442 0.00124672 0)
(-0.0215044 0.00117941 0)
(-0.0217488 0.0011092 0)
(-0.0219769 0.00103609 0)
(-0.0221882 0.000960083 0)
(-0.0223819 0.000881221 0)
(-0.0225576 0.000799545 0)
(-0.0227146 0.000715115 0)
(-0.0228524 0.000628009 0)
(-0.0229706 0.000538322 0)
(-0.0230685 0.000446165 0)
(-0.0231458 0.000351667 0)
(-0.023202 0.000254979 0)
(-0.0232367 0.000156265 0)
(-0.0232496 5.57101e-05 0)
(-0.0232403 -4.64828e-05 0)
(-0.0232085 -0.000150096 0)
(-0.0231541 -0.000254891 0)
(-0.0230769 -0.000360618 0)
(-0.0229767 -0.00046701 0)
(-0.0228535 -0.000573788 0)
(-0.0227074 -0.000680662 0)
(-0.0225384 -0.000787332 0)
(-0.0223465 -0.00089349 0)
(-0.0221321 -0.000998823 0)
(-0.0218954 -0.00110301 0)
(-0.0216366 -0.00120575 0)
(-0.0213563 -0.0013067 0)
(-0.0210547 -0.00140557 0)
(-0.0207325 -0.00150206 0)
(-0.0203902 -0.00159585 0)
(-0.0200284 -0.00168668 0)
(-0.0196478 -0.00177427 0)
(-0.0192492 -0.00185837 0)
(-0.0188333 -0.00193876 0)
(-0.0184008 -0.00201521 0)
(-0.0179528 -0.00208754 0)
(-0.0174899 -0.00215558 0)
(-0.0170133 -0.0022192 0)
(-0.0165237 -0.00227827 0)
(-0.0160222 -0.0023327 0)
(-0.0155097 -0.00238243 0)
(-0.0149872 -0.00242741 0)
(-0.0144556 -0.00246761 0)
(-0.013916 -0.00250303 0)
(-0.0133694 -0.00253367 0)
(-0.0128166 -0.00255953 0)
(-0.0122587 -0.00258063 0)
(-0.0116967 -0.00259698 0)
(-0.0111314 -0.00260857 0)
(-0.0105641 -0.00261537 0)
(-0.00999547 -0.0026173 0)
(-0.00942671 -0.00261427 0)
(-0.00885882 -0.00260609 0)
(-0.00829289 -0.00259252 0)
(-0.00773007 -0.00257322 0)
(-0.00717159 -0.00254779 0)
(-0.00661878 -0.00251566 0)
(-0.00607309 -0.0024762 0)
(-0.00553609 -0.00242861 0)
(-0.00500954 -0.00237199 0)
(-0.00449538 -0.00230533 0)
(-0.00399572 -0.00222749 0)
(-0.0035129 -0.00213729 0)
(-0.00304949 -0.00203353 0)
(-0.00260822 -0.00191506 0)
(-0.00219203 -0.00178091 0)
(-0.00180397 -0.00163043 0)
(-0.00144716 -0.00146352 0)
(-0.00112466 -0.00128087 0)
(-0.000839352 -0.0010844 0)
(-0.000593766 -0.000877675 0)
(-0.000389872 -0.000666498 0)
(-0.000228837 -0.000459589 0)
(-0.000110864 -0.000269298 0)
(-3.54365e-05 -0.000112316 0)
(-1.09004e-06 -1.03543e-05 0)
(-8.45226e-06 0.000250323 0)
(-0.00011967 0.000702821 0)
(-0.00032113 0.00110175 0)
(-0.000594971 0.0014454 0)
(-0.000925954 0.00173547 0)
(-0.00130307 0.00197577 0)
(-0.00171745 0.00217129 0)
(-0.00216172 0.00232759 0)
(-0.00262973 0.00245027 0)
(-0.00311643 0.00254469 0)
(-0.00361761 0.00261575 0)
(-0.0041298 0.00266779 0)
(-0.00465018 0.00270459 0)
(-0.00517643 0.00272932 0)
(-0.00570669 0.0027446 0)
(-0.00623946 0.00275258 0)
(-0.00677352 0.00275495 0)
(-0.00730791 0.00275303 0)
(-0.00784187 0.00274783 0)
(-0.00837478 0.00274009 0)
(-0.0089061 0.00273035 0)
(-0.00943543 0.00271897 0)
(-0.00996238 0.00270618 0)
(-0.0104866 0.00269213 0)
(-0.0110078 0.00267688 0)