/*--------------------------------*- C++ -*----------------------------------*\
| =========                 |                                                 |
| \\      /  F ield         | OpenFOAM: The Open Source CFD Toolbox           |
|  \\    /   O peration     | Version:  2406                                  |
|   \\  /    A nd           | Website:  www.openfoam.com                      |
|    \\/     M anipulation  |                                                 |
\*---------------------------------------------------------------------------*/
FoamFile
{
    version     2.0;
    format      ascii;
    arch        "LSB;label=32;scalar=64";
    class       volVectorField;
    location    "27";
    object      U;
}
// * * * * * * * * * * * * * * * * * * * * * * * * * * * * * * * * * * * * * //

dimensions      [0 1 -1 0 0 0 0];

internalField   nonuniform List<vector> 
900
(
(0.000321334 -0.000464269 0)
(0.00293925 -0.00103194 0)
(0.00601986 -0.000888736 0)
(0.00748661 -0.00056879 0)
(0.00803838 -0.000493334 0)
(0.00790893 -0.000676277 0)
(0.00764362 -0.000991241 0)
(0.00710864 -0.00138314 0)
(0.00580048 -0.0023602 0)
(0.00185598 -0.00375038 0)
(-0.00678681 -0.00300947 0)
(-0.0213146 0.0015839 0)
(-0.0413707 0.0073836 0)
(-0.0639135 0.0107815 0)
(-0.0850213 0.0111702 0)
(-0.102102 0.00968387 0)
(-0.113655 0.00710059 0)
(-0.118556 0.00382073 0)
(-0.116287 0.000113528 0)
(-0.106208 -0.00378862 0)
(-0.0886887 -0.00755343 0)
(-0.0638641 -0.0106606 0)
(-0.034388 -0.0123131 0)
(-0.00269365 -0.0115128 0)
(0.0239983 -0.00706942 0)
(0.040002 -6.12935e-05 0)
(0.0386481 0.00616632 0)
(0.0258903 0.00708427 0)
(0.0123856 0.00499344 0)
(0.00169049 0.00206424 0)
(0.00101303 -0.00278453 0)
(0.0053952 -0.00473918 0)
(0.00979453 -0.00363053 0)
(0.0113375 -0.00146203 0)
(0.010688 0.00010179 0)
(0.00760878 0.00108746 0)
(0.00165798 0.00183152 0)
(-0.00969388 0.00325536 0)
(-0.0291543 0.00770732 0)
(-0.0570847 0.0166146 0)
(-0.0903268 0.0265744 0)
(-0.123386 0.033377 0)
(-0.151938 0.0355106 0)
(-0.174482 0.0331003 0)
(-0.191012 0.0272498 0)
(-0.201514 0.019164 0)
(-0.205815 0.00957829 0)
(-0.203641 -0.00101852 0)
(-0.194797 -0.0122514 0)
(-0.178883 -0.0237261 0)
(-0.155958 -0.0346264 0)
(-0.12601 -0.0437622 0)
(-0.090447 -0.0488437 0)
(-0.051319 -0.0472771 0)
(-0.0135537 -0.0355844 0)
(0.0167759 -0.0148245 0)
(0.0310098 0.00823799 0)
(0.0269943 0.0188883 0)
(0.0157736 0.0194994 0)
(0.00249927 0.0120205 0)
(0.00155009 -0.00682783 0)
(0.00605071 -0.00986512 0)
(0.0091527 -0.00679899 0)
(0.00807586 -0.00150404 0)
(0.0030388 0.00321323 0)
(-0.00758431 0.00829654 0)
(-0.026391 0.0162836 0)
(-0.0554782 0.029464 0)
(-0.0927248 0.044984 0)
(-0.131321 0.0570415 0)
(-0.165467 0.0627453 0)
(-0.193126 0.062751 0)
(-0.214195 0.0580704 0)
(-0.229359 0.0494107 0)
(-0.239497 0.037788 0)
(-0.245109 0.024102 0)
(-0.246492 0.00892072 0)
(-0.243599 -0.00747579 0)
(-0.236261 -0.0247896 0)
(-0.223947 -0.0427845 0)
(-0.206143 -0.0603781 0)
(-0.182122 -0.0762521 0)
(-0.151449 -0.0867965 0)
(-0.114656 -0.0884899 0)
(-0.0730109 -0.0747312 0)
(-0.0320702 -0.0445984 0)
(0.000843044 -0.00370658 0)
(0.0106712 0.0217782 0)
(0.00863868 0.0294482 0)
(0.000416601 0.0199765 0)
(0.00175978 -0.0103446 0)
(0.00443899 -0.0123863 0)
(0.00342284 -0.00559389 0)
(-0.00347856 0.00468733 0)
(-0.0173013 0.0158407 0)
(-0.0405143 0.0306181 0)
(-0.073916 0.049835 0)
(-0.113211 0.0695599 0)
(-0.150998 0.0835138 0)
(-0.182631 0.0895214 0)
(-0.207427 0.088593 0)
(-0.225801 0.082263 0)
(-0.238564 0.0718598 0)
(-0.246854 0.0585097 0)
(-0.251784 0.0431187 0)
(-0.254074 0.0262395 0)
(-0.254209 0.0081286 0)
(-0.252288 -0.0112926 0)
(-0.248283 -0.0319539 0)
(-0.241691 -0.0540564 0)
(-0.23188 -0.0766114 0)
(-0.217536 -0.0988361 0)
(-0.19704 -0.116524 0)
(-0.168741 -0.126151 0)
(-0.130609 -0.118023 0)
(-0.0848618 -0.0886678 0)
(-0.0347873 -0.0337506 0)
(-0.0029867 0.0109295 0)
(0.00262809 0.0301523 0)
(-0.00125769 0.0211902 0)
(0.00134788 -0.0130518 0)
(0.000178011 -0.0116122 0)
(-0.0072113 0.00109693 0)
(-0.0221905 0.0191719 0)
(-0.0462063 0.0402041 0)
(-0.0792065 0.0648181 0)
(-0.117111 0.0888491 0)
(-0.152876 0.106455 0)
(-0.181947 0.114237 0)
(-0.203476 0.113191 0)
(-0.218332 0.105635 0)
(-0.227552 0.0936794 0)
(-0.232674 0.0789551 0)
(-0.23491 0.0624721 0)
(-0.235448 0.0448895 0)
(-0.234922 0.0264183 0)
(-0.233924 0.00709854 0)
(-0.232577 -0.0134539 0)
(-0.231164 -0.0353229 0)
(-0.229347 -0.0592114 0)
(-0.22698 -0.0844118 0)
(-0.222641 -0.111167 0)
(-0.214638 -0.135546 0)
(-0.199558 -0.155122 0)
(-0.173174 -0.158633 0)
(-0.132417 -0.140415 0)
(-0.0763465 -0.0853979 0)
(-0.0181259 -0.0159118 0)
(0.00253459 0.0278405 0)
(-0.0013808 0.0211691 0)
(-0.000168041 -0.0118064 0)
(-0.0072361 -0.0037464 0)
(-0.0221942 0.0168841 0)
(-0.0447859 0.0438113 0)
(-0.0753405 0.072931 0)
(-0.1102 0.101599 0)
(-0.143766 0.123522 0)
(-0.170552 0.134384 0)
(-0.189194 0.134148 0)
(-0.200644 0.126047 0)
(-0.206487 0.112835 0)
(-0.208281 0.0967815 0)
(-0.207711 0.0793947 0)
(-0.205858 0.0614507 0)
(-0.203745 0.0433153 0)
(-0.201683 0.0248638 0)
(-0.200114 0.00597519 0)
(-0.198924 -0.0139485 0)
(-0.198588 -0.0349808 0)
(-0.198874 -0.0582016 0)
(-0.200478 -0.0831192 0)
(-0.202436 -0.111248 0)
(-0.204283 -0.13953 0)
(-0.202347 -0.167866 0)
(-0.191921 -0.18524 0)
(-0.166358 -0.185799 0)
(-0.11872 -0.147719 0)
(-0.0511389 -0.0682728 0)
(0.00498879 0.0137711 0)
(-0.00121294 0.0223475 0)
(-0.00223142 -0.00573978 0)
(-0.0153402 0.0104077 0)
(-0.0366109 0.0385661 0)
(-0.0635585 0.0722934 0)
(-0.0952726 0.105508 0)
(-0.126344 0.133133 0)
(-0.152099 0.149063 0)
(-0.169294 0.151815 0)
(-0.178964 0.144263 0)
(-0.182704 0.130437 0)
(-0.182547 0.113239 0)
(-0.18022 0.094891 0)
(-0.177318 0.0765389 0)
(-0.174563 0.0585077 0)
(-0.172579 0.0407606 0)
(-0.171122 0.0228059 0)
(-0.170311 0.00445388 0)
(-0.169594 -0.0149473 0)
(-0.169473 -0.0351623 0)
(-0.169551 -0.0572876 0)
(-0.1712 -0.0805341 0)
(-0.173873 -0.107333 0)
(-0.178895 -0.135305 0)
(-0.183615 -0.16748 0)
(-0.185227 -0.194482 0)
(-0.176433 -0.213912 0)
(-0.14613 -0.200226 0)
(-0.0923849 -0.140927 0)
(-0.00884053 -0.0211456 0)
(0.00554916 0.0246062 0)
(-0.00429206 0.00580369 0)
(-0.0222586 0.030844 0)
(-0.047248 0.0651391 0)
(-0.0749802 0.102612 0)
(-0.104173 0.135703 0)
(-0.129042 0.15847 0)
(-0.146731 0.166496 0)
(-0.155988 0.161349 0)
(-0.159173 0.147662 0)
(-0.158079 0.129761 0)
(-0.155039 0.110463 0)
(-0.151634 0.0916449 0)
(-0.149099 0.0738166 0)
(-0.147659 0.0567447 0)
(-0.147432 0.0399263 0)
(-0.147678 0.022563 0)
(-0.148272 0.00449237 0)
(-0.148338 -0.014899 0)
(-0.148437 -0.0349468 0)
(-0.147888 -0.0566646 0)
(-0.148432 -0.0786345 0)
(-0.149434 -0.103775 0)
(-0.153521 -0.129534 0)
(-0.158884 -0.161627 0)
(-0.165619 -0.192292 0)
(-0.167103 -0.224557 0)
(-0.154294 -0.232379 0)
(-0.118811 -0.205084 0)
(-0.0445764 -0.0844694 0)
(0.0176455 0.0193428 0)
(-0.00540957 0.0206502 0)
(-0.0258613 0.0534051 0)
(-0.0517874 0.0910835 0)
(-0.077731 0.129168 0)
(-0.102653 0.159386 0)
(-0.121148 0.175616 0)
(-0.13226 0.175935 0)
(-0.135983 0.164245 0)
(-0.135425 0.146321 0)
(-0.132245 0.126277 0)
(-0.128928 0.106758 0)
(-0.126523 0.0889045 0)
(-0.125884 0.0725363 0)
(-0.12663 0.0567821 0)
(-0.128527 0.0407863 0)
(-0.130462 0.0235751 0)
(-0.132291 0.00518154 0)
(-0.132929 -0.014892 0)
(-0.133096 -0.0354662 0)
(-0.131781 -0.0574881 0)
(-0.131002 -0.0787524 0)
(-0.12971 -0.10254 0)
(-0.131429 -0.125536 0)
(-0.134595 -0.155634 0)
(-0.141998 -0.185982 0)
(-0.147962 -0.22501 0)
(-0.147204 -0.249163 0)
(-0.126318 -0.249565 0)
(-0.0759863 -0.160362 0)
(0.00783228 -0.00117103 0)
(-0.00561517 0.0370864 0)
(-0.0263963 0.07745 0)
(-0.0512181 0.116935 0)
(-0.0739761 0.153585 0)
(-0.0941358 0.179071 0)
(-0.107074 0.188174 0)
(-0.113353 0.181404 0)
(-0.113749 0.164645 0)
(-0.111517 0.144011 0)
(-0.108139 0.123353 0)
(-0.10592 0.104805 0)
(-0.105318 0.0886369 0)
(-0.106819 0.0739725 0)
(-0.109559 0.0593762 0)
(-0.113168 0.0438146 0)
(-0.116351 0.0262606 0)
(-0.119133 0.0070498 0)
(-0.120282 -0.0142425 0)
(-0.120753 -0.0359307 0)
(-0.11912 -0.0590201 0)
(-0.117639 -0.080431 0)
(-0.114541 -0.103733 0)
(-0.113936 -0.124269 0)
(-0.113784 -0.151466 0)
(-0.119356 -0.178513 0)
(-0.125876 -0.219394 0)
(-0.132246 -0.253731 0)
(-0.123772 -0.276148 0)
(-0.0900597 -0.219206 0)
(-0.0213288 -0.0476269 0)
(-0.0048312 0.0525257 0)
(-0.0239986 0.0990465 0)
(-0.0460861 0.138425 0)
(-0.0649762 0.172029 0)
(-0.0806543 0.192317 0)
(-0.0893266 0.194809 0)
(-0.0926375 0.182559 0)
(-0.091486 0.162388 0)
(-0.0890945 0.140649 0)
(-0.0865585 0.120614 0)
(-0.0859352 0.103869 0)
(-0.0870757 0.0897134 0)
(-0.0902605 0.0767361 0)
(-0.0942679 0.0630304 0)
(-0.098837 0.047591 0)
(-0.102586 0.0294127 0)
(-0.105871 0.00920626 0)
(-0.107283 -0.0134632 0)
(-0.108125 -0.0364262 0)
(-0.106472 -0.0609139 0)
(-0.104989 -0.0829975 0)
(-0.100988 -0.106702 0)
(-0.099155 -0.125837 0)
(-0.0960929 -0.150749 0)
(-0.0989938 -0.173409 0)
(-0.102802 -0.212377 0)
(-0.111711 -0.250842 0)
(-0.110448 -0.291629 0)
(-0.0883687 -0.262991 0)
(-0.0349257 -0.11245 0)
(-0.00347034 0.0659698 0)
(-0.019743 0.118888 0)
(-0.0383854 0.157829 0)
(-0.0533913 0.188244 0)
(-0.0651398 0.203409 0)
(-0.0707101 0.200306 0)
(-0.0722199 0.183667 0)
(-0.0705836 0.161236 0)
(-0.0686624 0.139171 0)
(-0.0672327 0.120272 0)
(-0.0679345 0.105396 0)
(-0.0702127 0.0929938 0)
(-0.0742495 0.0812494 0)
(-0.0786755 0.0679387 0)
(-0.0835004 0.0522518 0)
(-0.0872958 0.0332135 0)
(-0.0908259 0.0119302 0)
(-0.0923936 -0.0121736 0)
(-0.0937459 -0.036453 0)
(-0.0923117 -0.062491 0)
(-0.0913853 -0.0854931 0)
(-0.087201 -0.110077 0)
(-0.085372 -0.128624 0)
(-0.0806375 -0.152269 0)
(-0.0819322 -0.171252 0)
(-0.0824263 -0.207177 0)
(-0.0912184 -0.245686 0)
(-0.0924116 -0.299319 0)
(-0.0785354 -0.295721 0)
(-0.0330041 -0.171421 0)
(-0.00165479 0.0756778 0)
(-0.0141482 0.133949 0)
(-0.0287457 0.171886 0)
(-0.0400023 0.198709 0)
(-0.048459 0.209512 0)
(-0.0519128 0.201873 0)
(-0.0526735 0.182373 0)
(-0.0512459 0.158767 0)
(-0.0501435 0.137208 0)
(-0.0496475 0.119777 0)
(-0.0511481 0.106769 0)
(-0.053785 0.0958969 0)
(-0.0578852 0.0851643 0)
(-0.0620037 0.072129 0)
(-0.0665593 0.0562557 0)
(-0.0699947 0.0365422 0)
(-0.0735654 0.0144583 0)
(-0.0751324 -0.0108292 0)
(-0.0770496 -0.0362071 0)
(-0.0759198 -0.063697 0)
(-0.0759429 -0.0876416 0)
(-0.0720022 -0.113303 0)
(-0.0710833 -0.131791 0)
(-0.0656328 -0.154908 0)
(-0.0665988 -0.170978 0)
(-0.0643606 -0.203715 0)
(-0.0728105 -0.240281 0)
(-0.075038 -0.303921 0)
(-0.0680581 -0.322631 0)
(-0.0297235 -0.22422 0)
(0.000208988 0.0818821 0)
(-0.00803856 0.146079 0)
(-0.0186106 0.183658 0)
(-0.0264673 0.20803 0)
(-0.0321396 0.215363 0)
(-0.0341472 0.204691 0)
(-0.0344879 0.183129 0)
(-0.0334217 0.158842 0)
(-0.0328896 0.137686 0)
(-0.0328741 0.121357 0)
(-0.03451 0.109653 0)
(-0.0368249 0.0997619 0)
(-0.0403625 0.0896171 0)
(-0.043641 0.076584 0)
(-0.0475612 0.0604515 0)
(-0.0503296 0.040101 0)
(-0.0538049 0.0173691 0)
(-0.0552212 -0.00894508 0)
(-0.0577727 -0.0352368 0)
(-0.0570044 -0.0640287 0)
(-0.058362 -0.0888358 0)
(-0.0550245 -0.11556 0)
(-0.0558207 -0.134291 0)
(-0.0505792 -0.157537 0)
(-0.052542 -0.171788 0)
(-0.0485282 -0.201755 0)
(-0.0566807 -0.234396 0)
(-0.0585971 -0.303885 0)
(-0.0576825 -0.341103 0)
(-0.0258947 -0.269456 0)
(0.00211447 0.0835025 0)
(-0.00172557 0.152662 0)
(-0.00812079 0.190201 0)
(-0.0128635 0.212114 0)
(-0.0162135 0.2171 0)
(-0.0171889 0.204167 0)
(-0.0175344 0.181578 0)
(-0.0169301 0.157054 0)
(-0.0169288 0.136562 0)
(-0.0170104 0.121235 0)
(-0.0183143 0.110646 0)
(-0.0197176 0.101559 0)
(-0.0222024 0.0919732 0)
(-0.0241759 0.0790994 0)
(-0.0271656 0.0630402 0)
(-0.028959 0.042486 0)
(-0.032176 0.0195873 0)
(-0.0332075 -0.00727222 0)
(-0.0363824 -0.0340126 0)
(-0.0359134 -0.0636662 0)
(-0.0388741 -0.0890291 0)
(-0.0363476 -0.116565 0)
(-0.0393914 -0.135485 0)
(-0.0349636 -0.159045 0)
(-0.0390353 -0.172192 0)
(-0.034521 -0.200466 0)
(-0.043495 -0.229425 0)
(-0.0449796 -0.302929 0)
(-0.0492344 -0.355088 0)
(-0.0224628 -0.308163 0)
(0.0036653 0.0816507 0)
(0.00430464 0.156329 0)
(0.00182445 0.194857 0)
(-4.99118e-05 0.216174 0)
(-0.00125906 0.219787 0)
(-0.0013877 0.206181 0)
(-0.00156666 0.183038 0)
(-0.00123834 0.158373 0)
(-0.00135846 0.137936 0)
(-0.00113724 0.122817 0)
(-0.00169801 0.112549 0)
(-0.00183266 0.103658 0)
(-0.00302003 0.0943144 0)
(-0.00345088 0.0814764 0)
(-0.00539476 0.0655618 0)
(-0.00599109 0.0449231 0)
(-0.00886829 0.0220618 0)
(-0.00931805 -0.00508193 0)
(-0.0131695 -0.0319407 0)
(-0.0129527 -0.0620665 0)
(-0.0177643 -0.087667 0)
(-0.0162557 -0.115771 0)
(-0.021984 -0.13481 0)
(-0.0187963 -0.1588 0)
(-0.0256867 -0.171283 0)
(-0.0214133 -0.198325 0)
(-0.0320626 -0.223055 0)
(-0.033043 -0.298474 0)
(-0.0423631 -0.363149 0)
(-0.0195429 -0.341561 0)
(0.0049692 0.0755578 0)
(0.00981807 0.154281 0)
(0.0113324 0.194512 0)
(0.0121289 0.215002 0)
(0.0127902 0.218372 0)
(0.0134874 0.204353 0)
(0.0132962 0.181359 0)
(0.0134145 0.156663 0)
(0.0130996 0.136372 0)
(0.013755 0.121339 0)
(0.0139998 0.111296 0)
(0.0153572 0.102602 0)
(0.0156124 0.0936362 0)
(0.0169965 0.0811362 0)
(0.0162533 0.0657576 0)
(0.0171261 0.0455292 0)
(0.0146786 0.0232509 0)
(0.0150168 -0.00352832 0)
(0.0104857 -0.0298557 0)
(0.010569 -0.0597736 0)
(0.00385093 -0.0850186 0)
(0.00431469 -0.113207 0)
(-0.00431628 -0.132059 0)
(-0.00258905 -0.156365 0)
(-0.0128354 -0.168523 0)
(-0.00942912 -0.19525 0)
(-0.0226829 -0.216712 0)
(-0.023185 -0.293253 0)
(-0.037238 -0.367874 0)
(-0.0169727 -0.37056 0)
(0.00552824 0.0670708 0)
(0.0145024 0.149917 0)
(0.0197021 0.192695 0)
(0.0231872 0.214757 0)
(0.0258901 0.218585 0)
(0.02757 0.205834 0)
(0.0278349 0.183339 0)
(0.0279941 0.158698 0)
(0.0277695 0.137847 0)
(0.0289576 0.121969 0)
(0.0300135 0.111237 0)
(0.0328472 0.102004 0)
(0.0344348 0.093035 0)
(0.0376399 0.0806848 0)
(0.0379808 0.0658979 0)
(0.0403803 0.0462143 0)
(0.0382421 0.0247718 0)
(0.0394518 -0.00133212 0)
(0.0341717 -0.026744 0)
(0.0341874 -0.0560541 0)
(0.0255203 -0.0805175 0)
(0.0249728 -0.108434 0)
(0.0133353 -0.12686 0)
(0.0136009 -0.151347 0)
(-0.000233839 -0.163223 0)
(0.00216539 -0.189791 0)
(-0.014396 -0.208017 0)
(-0.01445 -0.284886 0)
(-0.0335094 -0.368385 0)
(-0.0146904 -0.396318 0)
(0.00554698 0.0555585 0)
(0.0179767 0.139766 0)
(0.0270208 0.185829 0)
(0.0331138 0.208526 0)
(0.0376538 0.213945 0)
(0.0405194 0.202187 0)
(0.0411135 0.180882 0)
(0.0414745 0.15645 0)
(0.0411167 0.135346 0)
(0.0427414 0.118749 0)
(0.0442813 0.107411 0)
(0.048474 0.097775 0)
(0.0511854 0.0889671 0)
(0.0562625 0.077113 0)
(0.0576321 0.0632905 0)
(0.06172 0.0446839 0)
(0.0599002 0.0246168 0)
(0.0621245 -0.000169372 0)
(0.0561562 -0.0239768 0)
(0.0562484 -0.0519769 0)
(0.0457434 -0.0750019 0)
(0.0443855 -0.102058 0)
(0.0298341 -0.119662 0)
(0.0288258 -0.144065 0)
(0.0113352 -0.155767 0)
(0.0127881 -0.182639 0)
(-0.00755381 -0.198566 0)
(-0.00690121 -0.275505 0)
(-0.0310917 -0.366374 0)
(-0.0124252 -0.419411 0)
(0.0044017 0.0438195 0)
(0.0200259 0.128382 0)
(0.0325159 0.17779 0)
(0.0415085 0.204185 0)
(0.0484491 0.211401 0)
(0.0529476 0.20252 0)
(0.054691 0.182694 0)
(0.0556408 0.158804 0)
(0.0554452 0.136951 0)
(0.0574198 0.118811 0)
(0.0591255 0.105935 0)
(0.0642812 0.0949781 0)
(0.0676138 0.0857542 0)
(0.0742548 0.07398 0)
(0.0762687 0.0610608 0)
(0.081904 0.0435469 0)
(0.0801866 0.0251201 0)
(0.0833768 0.00186502 0)
(0.0766477 -0.0199696 0)
(0.0769237 -0.0463575 0)
(0.0646468 -0.067593 0)
(0.0627275 -0.0934762 0)
(0.0453892 -0.110018 0)
(0.0434553 -0.134132 0)
(0.0223617 -0.145571 0)
(0.023164 -0.172621 0)
(-0.0014062 -0.186411 0)
(0.00018151 -0.263115 0)
(-0.0297418 -0.361202 0)
(-0.0100348 -0.440586 0)
(0.00284331 0.0311465 0)
(0.0201689 0.11118 0)
(0.0362722 0.164366 0)
(0.048031 0.192177 0)
(0.0569819 0.202491 0)
(0.0634168 0.195582 0)
(0.0661612 0.178171 0)
(0.0681502 0.155287 0)
(0.0680542 0.133558 0)
(0.0704607 0.114578 0)
(0.0719223 0.100626 0)
(0.0777666 0.0887212 0)
(0.0811665 0.0792103 0)
(0.0891471 0.0678117 0)
(0.0914691 0.0560157 0)
(0.0986041 0.0400199 0)
(0.0969308 0.0236752 0)
(0.101197 0.00250371 0)
(0.0938136 -0.0168308 0)
(0.0945339 -0.0409994 0)
(0.0807123 -0.0599148 0)
(0.0786503 -0.0840657 0)
(0.0588478 -0.0991996 0)
(0.0565114 -0.12267 0)
(0.0320202 -0.133811 0)
(0.032619 -0.161025 0)
(0.00359731 -0.173394 0)
(0.00667856 -0.249564 0)
(-0.0294712 -0.354107 0)
(-0.00726184 -0.460157 0)
(0.00060528 0.0211765 0)
(0.0185459 0.0949563 0)
(0.037325 0.150257 0)
(0.0521892 0.183602 0)
(0.0642177 0.196319 0)
(0.073296 0.19348 0)
(0.0783536 0.178378 0)
(0.0820734 0.156977 0)
(0.0827321 0.135161 0)
(0.0857024 0.114875 0)
(0.0867073 0.0992334 0)
(0.09272 0.0855071 0)
(0.095436 0.0750616 0)
(0.104013 0.0632945 0)
(0.105971 0.0523945 0)
(0.114076 0.0375619 0)
(0.112063 0.0234387 0)
(0.117248 0.00432338 0)
(0.109084 -0.0122467 0)
(0.110427 -0.0340862 0)
(0.0951597 -0.0504398 0)
(0.0934315 -0.0727181 0)
(0.0714104 -0.0862675 0)
(0.0692602 -0.108865 0)
(0.0414818 -0.119503 0)
(0.0423184 -0.146469 0)
(0.00846323 -0.157587 0)
(0.0135159 -0.232889 0)
(-0.0298681 -0.344493 0)
(-0.00380007 -0.478456 0)
(-0.000216555 0.0119609 0)
(0.0153821 0.0738101 0)
(0.036224 0.130754 0)
(0.0534817 0.164647 0)
(0.0672948 0.181402 0)
(0.0792688 0.180871 0)
(0.0863029 0.169437 0)
(0.0927199 0.15033 0)
(0.0945902 0.130018 0)
(0.099042 0.10994 0)
(0.0997825 0.0937937 0)
(0.106247 0.0792402 0)
(0.107863 0.0682405 0)
(0.116783 0.0564425 0)
(0.11775 0.0464254 0)
(0.126603 0.0330068 0)
(0.123817 0.0211177 0)
(0.130023 0.00444562 0)
(0.120997 -0.00923963 0)
(0.1234 -0.028303 0)
(0.106928 -0.0419246 0)
(0.106196 -0.0618771 0)
(0.0823293 -0.0736465 0)
(0.08099 -0.0948589 0)
(0.0500899 -0.104806 0)
(0.0515477 -0.131023 0)
(0.0126131 -0.141527 0)
(0.020219 -0.215151 0)
(-0.0311526 -0.333511 0)
(0.00061527 -0.495457 0)
(-0.00130296 0.00641463 0)
(0.0109316 0.0587344 0)
(0.0312995 0.112581 0)
(0.0510314 0.152844 0)
(0.0685735 0.170921 0)
(0.084247 0.174643 0)
(0.0950342 0.165477 0)
(0.104998 0.148685 0)
(0.109168 0.129552 0)
(0.115745 0.109502 0)
(0.116727 0.0928463 0)
(0.123699 0.0770711 0)
(0.124101 0.0654309 0)
(0.132781 0.0528938 0)
(0.132176 0.0435729 0)
(0.141065 0.0308402 0)
(0.136923 0.0211328 0)
(0.143766 0.00634691 0)
(0.133548 -0.00433636 0)
(0.137083 -0.0210064 0)
(0.11929 -0.0316617 0)
(0.11995 -0.0494277 0)
(0.0941351 -0.0589903 0)
(0.0940669 -0.0784946 0)
(0.0597703 -0.0871232 0)
(0.0622469 -0.111892 0)
(0.0177582 -0.121993 0)
(0.0287505 -0.193383 0)
(-0.0319399 -0.320231 0)
(0.00675688 -0.510862 0)
(0.000854203 0.00221317 0)
(0.00776784 0.0403617 0)
(0.0246563 0.0906593 0)
(0.0446601 0.126382 0)
(0.0619686 0.148211 0)
(0.081575 0.153513 0)
(0.0952508 0.14881 0)
(0.110379 0.135383 0)
(0.117757 0.119515 0)
(0.128491 0.101524 0)
(0.130861 0.0861917 0)
(0.140068 0.0709152 0)
(0.139748 0.0596214 0)
(0.149289 0.047333 0)
(0.146732 0.0387224 0)
(0.156268 0.0271454 0)
(0.149954 0.0191212 0)
(0.15796 0.00658319 0)
(0.145811 -0.00169444 0)
(0.151143 -0.0155116 0)
(0.131595 -0.0236815 0)
(0.134376 -0.0386202 0)
(0.106435 -0.0462056 0)
(0.10816 -0.0631777 0)
(0.0703114 -0.0705616 0)
(0.0738861 -0.0931406 0)
(0.0236006 -0.104019 0)
(0.0379827 -0.171639 0)
(-0.0324121 -0.306351 0)
(0.0150674 -0.523624 0)
(-0.00209725 -0.00214891 0)
(0.000314672 0.0357722 0)
(0.0127668 0.076025 0)
(0.0329759 0.1164 0)
(0.0546727 0.134447 0)
(0.0782572 0.141707 0)
(0.0967202 0.137393 0)
(0.117062 0.126101 0)
(0.128411 0.11239 0)
(0.143776 0.0960608 0)
(0.148342 0.082355 0)
(0.160468 0.0676761 0)
(0.1603 0.0573906 0)
(0.171152 0.0452578 0)
(0.167269 0.0378769 0)
(0.177361 0.0268243 0)
(0.169139 0.0208645 0)
(0.177831 0.0095181 0)
(0.163718 0.00413585 0)
(0.1703 -0.00801192 0)
(0.148611 -0.0128453 0)
(0.153141 -0.0258631 0)
(0.122145 -0.0300358 0)
(0.125812 -0.0445943 0)
(0.0831035 -0.048893 0)
(0.0893448 -0.0686787 0)
(0.0325362 -0.0800323 0)
(0.0534222 -0.143231 0)
(-0.0269877 -0.28922 0)
(0.0279683 -0.531717 0)
(0.00478933 0.00444375 0)
(0.00313299 0.0242623 0)
(-0.00215993 0.0581652 0)
(0.0146926 0.0827779 0)
(0.0313004 0.102862 0)
(0.0606922 0.110047 0)
(0.0823081 0.110185 0)
(0.110644 0.10255 0)
(0.126531 0.0932283 0)
(0.149196 0.0804836 0)
(0.156898 0.0700571 0)
(0.174661 0.0577692 0)
(0.175241 0.0495696 0)
(0.190139 0.0390922 0)
(0.184746 0.0332215 0)
(0.198037 0.0239218 0)
(0.186704 0.019464 0)
(0.198663 0.0105245 0)
(0.180503 0.00679856 0)
(0.191051 -0.00212781 0)
(0.164796 -0.00532619 0)
(0.174199 -0.0143716 0)
(0.138368 -0.0172673 0)
(0.14776 -0.027376 0)
(0.100231 -0.0316114 0)
(0.112768 -0.0479115 0)
(0.0502698 -0.0637309 0)
(0.0762722 -0.1214 0)
(-0.0132237 -0.273653 0)
(0.0466842 -0.528994 0)
(-0.0206025 -0.0122133 0)
(-0.0204333 0.0448781 0)
(-0.0129102 0.0643148 0)
(-0.00493122 0.0852581 0)
(0.0189004 0.0890992 0)
(0.0500334 0.0915787 0)
(0.0760899 0.0883915 0)
(0.109132 0.0817894 0)
(0.128849 0.0750618 0)
(0.156675 0.0651892 0)
(0.166933 0.0582771 0)
(0.189309 0.0486653 0)
(0.190674 0.0434187 0)
(0.209426 0.0349649 0)
(0.203126 0.0316165 0)
(0.219882 0.0239097 0)
(0.206406 0.0220741 0)
(0.222143 0.0144979 0)
(0.201082 0.0139129 0)
(0.216568 0.0060761 0)
(0.186817 0.00674003 0)
(0.203264 -0.00161652 0)
(0.162884 0.00012256 0)
(0.182532 -0.00940498 0)
(0.128093 -0.0084574 0)
(0.155027 -0.0228178 0)
(0.0821543 -0.0353156 0)
(0.125492 -0.0868321 0)
(0.0338081 -0.242804 0)
(0.0826577 -0.503556 0)
(-0.0820013 0.0517538 0)
(-0.0788908 0.0137796 0)
(-0.105401 0.0429495 0)
(-0.0647692 0.0470745 0)
(-0.0458728 0.0472618 0)
(0.00233493 0.0505659 0)
(0.0306027 0.0511723 0)
(0.0762932 0.0482631 0)
(0.0981818 0.0461993 0)
(0.138833 0.0409845 0)
(0.149602 0.0380712 0)
(0.186133 0.0325163 0)
(0.1858 0.0301432 0)
(0.220452 0.02501 0)
(0.209938 0.0235199 0)
(0.244984 0.0188951 0)
(0.224555 0.0180694 0)
(0.26198 0.0139518 0)
(0.23102 0.0134019 0)
(0.272791 0.0100097 0)
(0.230037 0.00920464 0)
(0.278445 0.00697428 0)
(0.222222 0.00492202 0)
(0.279832 0.003762 0)
(0.208283 -0.0024067 0)
(0.276891 -0.00836586 0)
(0.188146 -0.033142 0)
(0.262893 -0.086004 0)
(0.142987 -0.225322 0)
(0.139412 -0.433559 0)
(0.079857 0.135439 0)
(0.11887 0.0737323 0)
(0.158992 0.0506525 0)
(0.213753 0.0303249 0)
(0.234199 0.0231726 0)
(0.283632 0.0166782 0)
(0.299765 0.0154763 0)
(0.350719 0.0140707 0)
(0.360899 0.0137691 0)
(0.41152 0.0130297 0)
(0.413713 0.0124729 0)
(0.463054 0.0115879 0)
(0.456477 0.0107987 0)
(0.505063 0.00986449 0)
(0.489852 0.00899555 0)
(0.538764 0.00814559 0)
(0.515207 0.00728792 0)
(0.565511 0.00653622 0)
(0.533768 0.00579338 0)
(0.586382 0.00498834 0)
(0.546509 0.00459718 0)
(0.602198 0.00326432 0)
(0.554029 0.00370711 0)
(0.613083 0.000542784 0)
(0.554813 0.00232774 0)
(0.614623 -0.0068606 0)
(0.533716 -0.00618456 0)
(0.572905 -0.0391535 0)
(0.396078 -0.0642912 0)
(0.29189 -0.197654 0)
)
;

boundaryField
{
    movingWall
    {
        type            fixedValue;
        value           uniform (1 0 0);
    }
    fixedWalls
    {
        type            noSlip;
    }
    frontAndBack
    {
        type            empty;
    }
}


// ************************************************************************* //
