/*--------------------------------*- C++ -*----------------------------------*\
| =========                 |                                                 |
| \\      /  F ield         | OpenFOAM: The Open Source CFD Toolbox           |
|  \\    /   O peration     | Version:  2406                                  |
|   \\  /    A nd           | Website:  www.openfoam.com                      |
|    \\/     M anipulation  |                                                 |
\*---------------------------------------------------------------------------*/
FoamFile
{
    version     2.0;
    format      ascii;
    arch        "LSB;label=32;scalar=64";
    class       surfaceScalarField;
    location    "12.6";
    object      phi_0;
}
// * * * * * * * * * * * * * * * * * * * * * * * * * * * * * * * * * * * * * //

dimensions      [0 3 -1 0 0 0 0];

oriented        oriented;

internalField   nonuniform List<scalar> 
28560
(
8.56397e-09
-8.56115e-09
1.70681e-08
-8.50432e-09
1.76108e-08
-5.42473e-10
7.80604e-09
9.80499e-09
-1.23133e-08
2.01195e-08
-4.13962e-08
2.90829e-08
-7.76682e-08
3.6272e-08
-1.19376e-07
4.17081e-08
-1.64993e-07
4.56172e-08
-2.13296e-07
4.83026e-08
-2.6337e-07
5.0074e-08
-3.14582e-07
5.12118e-08
-3.66534e-07
5.19519e-08
-4.19015e-07
5.24809e-08
-4.71953e-07
5.29387e-08
-5.25377e-07
5.34241e-08
-5.7938e-07
5.40022e-08
-6.3409e-07
5.47106e-08
-6.89657e-07
5.55667e-08
-7.4623e-07
5.65729e-08
-8.03951e-07
5.77211e-08
-8.62947e-07
5.89963e-08
-9.23326e-07
6.0379e-08
-9.85174e-07
6.18475e-08
-1.04855e-06
6.33785e-08
-1.1135e-06
6.49482e-08
-1.18003e-06
6.65325e-08
-1.24814e-06
6.81076e-08
-1.31779e-06
6.96496e-08
-1.38893e-06
7.11348e-08
-1.46146e-06
7.25395e-08
-1.5353e-06
7.384e-08
-1.61032e-06
7.50124e-08
-1.68635e-06
7.60328e-08
-1.76323e-06
7.68772e-08
-1.84075e-06
7.75213e-08
-1.91869e-06
7.79408e-08
-1.9968e-06
7.81113e-08
-2.07481e-06
7.80081e-08
-2.15242e-06
7.76068e-08
-2.2293e-06
7.68829e-08
-2.30511e-06
7.58121e-08
-2.37948e-06
7.43706e-08
-2.45202e-06
7.25348e-08
-2.5223e-06
7.0282e-08
-2.58989e-06
6.75907e-08
-2.65433e-06
6.44406e-08
-2.71514e-06
6.0813e-08
-2.77183e-06
5.66918e-08
-2.8239e-06
5.20636e-08
-2.87082e-06
4.69183e-08
-2.91207e-06
4.12501e-08
-2.94712e-06
3.50579e-08
-2.97547e-06
2.83468e-08
-2.9966e-06
2.11279e-08
-3.01003e-06
1.34288e-08
-3.01531e-06
5.28645e-09
-3.01192e-06
-3.38924e-09
-2.99958e-06
-1.23408e-08
-2.97793e-06
-2.16584e-08
-2.94668e-06
-3.12487e-08
-2.90564e-06
-4.10395e-08
-2.85469e-06
-5.09503e-08
-2.79379e-06
-6.08926e-08
-2.72302e-06
-7.07708e-08
-2.64254e-06
-8.04836e-08
-2.55261e-06
-8.99253e-08
-2.45363e-06
-9.89877e-08
-2.34607e-06
-1.07562e-07
-2.23052e-06
-1.15541e-07
-2.1077e-06
-1.22823e-07
-1.97839e-06
-1.2931e-07
-1.84347e-06
-1.34916e-07
-1.70391e-06
-1.39565e-07
-1.56072e-06
-1.43193e-07
-1.41496e-06
-1.45752e-07
-1.26775e-06
-1.47212e-07
-1.1202e-06
-1.47556e-07
-9.73407e-07
-1.4679e-07
-8.28475e-07
-1.44932e-07
-6.86452e-07
-1.42023e-07
-5.48336e-07
-1.38115e-07
-4.15058e-07
-1.33278e-07
-2.87465e-07
-1.27593e-07
-1.66312e-07
-1.21152e-07
-5.22574e-08
-1.14055e-07
5.41491e-08
-1.06407e-07
1.52464e-07
-9.83149e-08
2.42352e-07
-8.98882e-08
3.23584e-07
-8.12322e-08
3.96032e-07
-7.24478e-08
4.59662e-07
-6.36297e-08
5.14526e-07
-5.48644e-08
5.60755e-07
-4.62287e-08
5.98545e-07
-3.77895e-08
6.28147e-07
-2.96023e-08
6.49859e-07
-2.17125e-08
6.64014e-07
-1.4155e-08
6.70966e-07
-6.95203e-09
6.71191e-07
-2.247e-10
6.64817e-07
6.37395e-09
6.52405e-07
1.24124e-08
6.34323e-07
1.80815e-08
6.10917e-07
2.34066e-08
5.82545e-07
2.83719e-08
5.49564e-07
3.29809e-08
5.12334e-07
3.72303e-08
4.71229e-07
4.1105e-08
4.26657e-07
4.45713e-08
3.79089e-07
4.75679e-08
3.29095e-07
4.9994e-08
2.77401e-07
5.16945e-08
2.2496e-07
5.2441e-08
1.7305e-07
5.19103e-08
1.23389e-07
4.96607e-08
7.82554e-08
4.51336e-08
4.05595e-08
3.76959e-08
1.36745e-08
2.6885e-08
7.95595e-10
1.28789e-08
7.95596e-10
8.61047e-09
-1.71718e-08
1.08336e-08
-1.07269e-08
-7.38094e-09
1.76724e-08
-5.07146e-08
5.31389e-08
-1.18877e-07
8.82822e-08
-2.09115e-07
1.19321e-07
-3.17648e-07
1.44805e-07
-4.40562e-07
1.64622e-07
-5.74305e-07
1.7936e-07
-7.15906e-07
1.89905e-07
-8.63053e-07
1.9722e-07
-1.01405e-06
2.02214e-07
-1.16777e-06
2.05672e-07
-1.32353e-06
2.08234e-07
-1.48098e-06
2.10392e-07
-1.64006e-06
2.12505e-07
-1.80087e-06
2.14816e-07
-1.96364e-06
2.17476e-07
-2.12863e-06
2.20562e-07
-2.29616e-06
2.24096e-07
-2.4665e-06
2.28061e-07
-2.63992e-06
2.32414e-07
-2.81663e-06
2.37091e-07
-2.9968e-06
2.4202e-07
-3.18054e-06
2.4712e-07
-3.3679e-06
2.52305e-07
-3.55886e-06
2.5749e-07
-3.75334e-06
2.62588e-07
-3.9512e-06
2.6751e-07
-4.15223e-06
2.72169e-07
-4.35617e-06
2.76477e-07
-4.56267e-06
2.80347e-07
-4.77135e-06
2.83691e-07
-4.98174e-06
2.86422e-07
-5.19332e-06
2.88451e-07
-5.40549e-06
2.89693e-07
-5.61761e-06
2.90061e-07
-5.82897e-06
2.89468e-07
-6.03879e-06
2.8783e-07
-6.24624e-06
2.85064e-07
-6.45045e-06
2.81087e-07
-6.65046e-06
2.7582e-07
-6.84527e-06
2.69185e-07
-7.03384e-06
2.61108e-07
-7.21508e-06
2.5152e-07
-7.38785e-06
2.40356e-07
-7.55096e-06
2.27556e-07
-7.70322e-06
2.13069e-07
-7.84338e-06
1.96854e-07
-7.97019e-06
1.78877e-07
-8.0824e-06
1.59121e-07
-8.17873e-06
1.37581e-07
-8.25794e-06
1.14269e-07
-8.31881e-06
8.92198e-08
-8.36017e-06
6.24869e-08
-8.38089e-06
3.41497e-08
-8.37995e-06
4.34324e-09
-8.35643e-06
-2.6909e-08
-8.30945e-06
-5.9318e-08
-8.23836e-06
-9.27458e-08
-8.14264e-06
-1.26973e-07
-8.02193e-06
-1.61748e-07
-7.87609e-06
-1.96793e-07
-7.70517e-06
-2.31806e-07
-7.50948e-06
-2.66462e-07
-7.28955e-06
-3.00421e-07
-7.04614e-06
-3.33328e-07
-6.78031e-06
-3.64825e-07
-6.49332e-06
-3.94551e-07
-6.1867e-06
-4.22157e-07
-5.86222e-06
-4.47304e-07
-5.52185e-06
-4.69679e-07
-5.16777e-06
-4.88999e-07
-4.80232e-06
-5.05015e-07
-4.42799e-06
-5.17525e-07
-4.04737e-06
-5.26373e-07
-3.66312e-06
-5.31458e-07
-3.27794e-06
-5.32733e-07
-2.89452e-06
-5.30208e-07
-2.5155e-06
-5.23953e-07
-2.14344e-06
-5.1409e-07
-1.78075e-06
-5.00796e-07
-1.42974e-06
-4.84294e-07
-1.09248e-06
-4.6485e-07
-7.70873e-07
-4.42762e-07
-4.66567e-07
-4.1836e-07
-1.80984e-07
-3.91989e-07
8.47069e-08
-3.64006e-07
3.29588e-07
-3.3477e-07
5.52989e-07
-3.04633e-07
7.54478e-07
-2.73936e-07
9.33848e-07
-2.43e-07
1.0911e-06
-2.12119e-07
1.22643e-06
-1.81559e-07
1.3402e-06
-1.51553e-07
1.43289e-06
-1.22301e-07
1.50515e-06
-9.39647e-08
1.55767e-06
-6.66749e-08
1.59125e-06
-4.05332e-08
1.60663e-06
-1.5604e-08
1.60487e-06
8.13518e-09
1.58674e-06
3.05422e-08
1.55312e-06
5.16935e-08
1.50495e-06
7.15819e-08
1.44311e-06
9.02075e-08
1.36854e-06
1.07557e-07
1.28218e-06
1.23592e-07
1.18505e-06
1.38229e-07
1.07831e-06
1.51317e-07
9.63262e-07
1.62612e-07
8.41517e-07
1.71738e-07
7.15064e-07
1.78148e-07
5.8643e-07
1.81075e-07
4.58852e-07
1.79489e-07
3.36451e-07
1.72062e-07
2.24365e-07
1.57219e-07
1.28719e-07
1.33341e-07
5.62247e-08
9.93795e-08
1.29034e-08
5.62003e-08
1.3699e-08
1.52275e-10
-1.73238e-08
-1.93199e-08
8.74557e-09
-7.09805e-08
6.93332e-08
-1.58801e-07
1.40959e-07
-2.81885e-07
2.11367e-07
-4.36579e-07
2.74015e-07
-6.17943e-07
3.26169e-07
-8.20773e-07
3.67452e-07
-1.04022e-06
3.98811e-07
-1.27215e-06
4.2183e-07
-1.51322e-06
4.38291e-07
-1.76093e-06
4.49923e-07
-2.01351e-06
4.58254e-07
-2.26983e-06
4.64554e-07
-2.52926e-06
4.69815e-07
-2.79153e-06
4.74777e-07
-3.05666e-06
4.79951e-07
-3.32485e-06
4.85663e-07
-3.59638e-06
4.92091e-07
-3.87158e-06
4.993e-07
-4.15079e-06
5.07271e-07
-4.43431e-06
5.15925e-07
-4.72236e-06
5.25142e-07
-5.01511e-06
5.34776e-07
-5.31266e-06
5.44664e-07
-5.61498e-06
5.54632e-07
-5.92199e-06
5.64499e-07
-6.23349e-06
5.74084e-07
-6.54918e-06
5.83201e-07
-6.86867e-06
5.91664e-07
-7.19149e-06
5.9929e-07
-7.51703e-06
6.05892e-07
-7.84463e-06
6.11287e-07
-8.1735e-06
6.15293e-07
-8.50278e-06
6.17728e-07
-8.8315e-06
6.18413e-07
-9.15861e-06
6.17173e-07
-9.48297e-06
6.13835e-07
-9.80337e-06
6.0823e-07
-1.01185e-05
6.00197e-07
-1.0427e-05
5.89576e-07
-1.07274e-05
5.76216e-07
-1.10182e-05
5.59975e-07
-1.12978e-05
5.40717e-07
-1.15646e-05
5.18319e-07
-1.18169e-05
4.92667e-07
-1.2053e-05
4.63665e-07
-1.22712e-05
4.3123e-07
-1.24696e-05
3.95301e-07
-1.26466e-05
3.55839e-07
-1.28003e-05
3.1283e-07
-1.2929e-05
2.66294e-07
-1.3031e-05
2.16281e-07
-1.31047e-05
1.62882e-07
-1.31484e-05
1.06232e-07
-1.31608e-05
4.65116e-08
-1.31404e-05
-1.60422e-08
-1.30861e-05
-8.11656e-08
-1.2997e-05
-1.48504e-07
-1.2872e-05
-2.1766e-07
-1.27108e-05
-2.88186e-07
-1.2513e-05
-3.59578e-07
-1.22785e-05
-4.3128e-07
-1.20076e-05
-5.0269e-07
-1.17009e-05
-5.73167e-07
-1.13593e-05
-6.4204e-07
-1.0984e-05
-7.08619e-07
-1.05766e-05
-7.72203e-07
-1.01391e-05
-8.32095e-07
-9.67363e-06
-8.87615e-07
-9.18282e-06
-9.38115e-07
-8.66951e-06
-9.82992e-07
-8.13681e-06
-1.0217e-06
-7.58806e-06
-1.05377e-06
-7.02678e-06
-1.0788e-06
-6.45663e-06
-1.09652e-06
-5.88138e-06
-1.10671e-06
-5.30483e-06
-1.10929e-06
-4.73074e-06
-1.10429e-06
-4.16287e-06
-1.09183e-06
-3.6048e-06
-1.07216e-06
-3.05999e-06
-1.0456e-06
-2.53168e-06
-1.0126e-06
-2.02287e-06
-9.73664e-07
-1.53626e-06
-9.29367e-07
-1.07428e-06
-8.80345e-07
-6.38996e-07
-8.27272e-07
-2.32162e-07
-7.7084e-07
1.44821e-07
-7.11752e-07
4.90888e-07
-6.50701e-07
8.05307e-07
-5.88356e-07
1.08766e-06
-5.25352e-07
1.33782e-06
-4.62277e-07
1.55592e-06
-3.99665e-07
1.74236e-06
-3.37988e-07
1.89771e-06
-2.77651e-07
2.02274e-06
-2.18995e-07
2.11836e-06
-1.62292e-07
2.18558e-06
-1.07752e-07
2.22549e-06
-5.55197e-08
2.23934e-06
-5.7132e-09
2.22826e-06
4.16211e-08
2.19352e-06
8.64379e-08
2.13638e-06
1.28718e-07
2.05816e-06
1.68431e-07
1.9602e-06
2.05516e-07
1.84394e-06
2.39854e-07
1.71093e-06
2.71232e-07
1.56295e-06
2.99301e-07
1.40204e-06
3.23525e-07
1.23065e-06
3.43121e-07
1.05182e-06
3.56985e-07
8.6926e-07
3.63631e-07
6.87619e-07
3.61129e-07
5.12579e-07
3.47102e-07
3.50948e-07
3.1885e-07
2.10556e-07
2.73733e-07
9.98381e-08
2.10098e-07
2.70399e-08
1.28998e-07
4.07389e-08
-1.17826e-08
-5.54102e-09
-6.07066e-08
5.76698e-08
-1.54304e-07
1.62931e-07
-2.94099e-07
2.80754e-07
-4.777e-07
3.94968e-07
-7.00288e-07
4.96602e-07
-9.55919e-07
5.818e-07
-1.23846e-06
6.4999e-07
-1.54219e-06
7.02544e-07
-1.86217e-06
7.41812e-07
-2.19438e-06
7.70496e-07
-2.53571e-06
7.91255e-07
-2.88393e-06
8.06473e-07
-3.23753e-06
8.18152e-07
-3.59559e-06
8.27883e-07
-3.95768e-06
8.36862e-07
-4.32366e-06
8.45931e-07
-4.69363e-06
8.55638e-07
-5.06783e-06
8.66291e-07
-5.44655e-06
8.78014e-07
-5.83007e-06
8.90792e-07
-6.21865e-06
9.04508e-07
-6.61249e-06
9.18976e-07
-7.01167e-06
9.33962e-07
-7.41621e-06
9.49199e-07
-7.82598e-06
9.64402e-07
-8.24075e-06
9.79271e-07
-8.66017e-06
9.93502e-07
-9.08375e-06
1.00678e-06
-9.5109e-06
1.01881e-06
-9.94087e-06
1.02927e-06
-1.03728e-05
1.03785e-06
-1.08058e-05
1.04425e-06
-1.12387e-05
1.04817e-06
-1.16703e-05
1.04931e-06
-1.20992e-05
1.04738e-06
-1.25242e-05
1.04211e-06
-1.29435e-05
1.03321e-06
-1.33557e-05
1.02043e-06
-1.3759e-05
1.00351e-06
-1.41517e-05
9.82219e-07
-1.45318e-05
9.56331e-07
-1.48975e-05
9.25637e-07
-1.52467e-05
8.89947e-07
-1.55775e-05
8.49089e-07
-1.58877e-05
8.02912e-07
-1.61753e-05
7.51293e-07
-1.64382e-05
6.94135e-07
-1.66743e-05
6.31374e-07
-1.68815e-05
5.62984e-07
-1.70576e-05
4.88981e-07
-1.72007e-05
4.09429e-07
-1.73089e-05
3.24447e-07
-1.73802e-05
2.34215e-07
-1.7413e-05
1.38979e-07
-1.74055e-05
3.90592e-08
-1.73564e-05
-6.51511e-08
-1.72644e-05
-1.73175e-07
-1.71285e-05
-2.84449e-07
-1.69478e-05
-3.98325e-07
-1.67219e-05
-5.14074e-07
-1.64506e-05
-6.30882e-07
-1.6134e-05
-7.47863e-07
-1.57727e-05
-8.64061e-07
-1.53674e-05
-9.78465e-07
-1.49194e-05
-1.09002e-06
-1.44304e-05
-1.19764e-06
-1.39023e-05
-1.30023e-06
-1.33377e-05
-1.3967e-06
-1.27394e-05
-1.486e-06
-1.21103e-05
-1.56713e-06
-1.14542e-05
-1.63914e-06
-1.07747e-05
-1.70119e-06
-1.00759e-05
-1.75255e-06
-9.36212e-06
-1.79262e-06
-8.63769e-06
-1.82094e-06
-7.90718e-06
-1.83722e-06
-7.17515e-06
-1.84131e-06
-6.44619e-06
-1.83326e-06
-5.72476e-06
-1.81326e-06
-5.01525e-06
-1.78168e-06
-4.32181e-06
-1.73904e-06
-3.64839e-06
-1.68602e-06
-2.99864e-06
-1.62341e-06
-2.37588e-06
-1.55212e-06
-1.7831e-06
-1.47313e-06
-1.22288e-06
-1.38749e-06
-6.9742e-07
-1.2963e-06
-2.08511e-07
-1.20066e-06
2.42452e-07
-1.10166e-06
6.54468e-07
-1.00037e-06
1.02691e-06
-8.97796e-07
1.35951e-06
-7.94876e-07
1.65232e-06
-6.92468e-07
1.90566e-06
-5.91335e-07
2.12015e-06
-4.92138e-07
2.29659e-06
-3.95436e-07
2.43598e-06
-3.01684e-07
2.53947e-06
-2.11238e-07
2.60831e-06
-1.24367e-07
2.64386e-06
-4.12628e-08
2.64754e-06
3.79469e-08
2.62081e-06
1.13166e-07
2.5652e-06
1.84323e-07
2.48231e-06
2.51324e-07
2.3738e-06
3.14023e-07
2.24148e-06
3.72176e-07
2.08733e-06
4.25386e-07
1.91359e-06
4.73039e-07
1.72288e-06
5.1423e-07
1.51833e-06
5.47673e-07
1.3037e-06
5.71617e-07
1.08357e-06
5.83757e-07
8.63519e-07
5.81185e-07
6.50208e-07
5.60413e-07
4.51494e-07
5.17563e-07
2.76378e-07
4.48849e-07
1.34901e-07
3.51576e-07
3.81594e-08
2.2574e-07
7.88983e-08
-2.5358e-08
1.9817e-08
-1.07232e-07
1.39544e-07
-2.4739e-07
3.03089e-07
-4.43764e-07
4.77128e-07
-6.91608e-07
6.42812e-07
-9.84546e-07
7.8954e-07
-1.31553e-06
9.12788e-07
-1.6776e-06
1.01206e-06
-2.06436e-06
1.08931e-06
-2.47031e-06
1.14776e-06
-2.89095e-06
1.19113e-06
-3.32276e-06
1.22307e-06
-3.76317e-06
1.24689e-06
-4.2104e-06
1.26538e-06
-4.66331e-06
1.28079e-06
-5.12126e-06
1.29481e-06
-5.58398e-06
1.30866e-06
-6.05146e-06
1.32312e-06
-6.52382e-06
1.33865e-06
-7.00125e-06
1.35545e-06
-7.48396e-06
1.3735e-06
-7.97209e-06
1.39264e-06
-8.46575e-06
1.41263e-06
-8.96489e-06
1.43311e-06
-9.4694e-06
1.45371e-06
-9.97899e-06
1.474e-06
-1.04933e-05
1.49355e-06
-1.10117e-05
1.5119e-06
-1.15335e-05
1.52862e-06
-1.20579e-05
1.54323e-06
-1.25839e-05
1.55528e-06
-1.31104e-05
1.56432e-06
-1.36361e-05
1.56992e-06
-1.41595e-05
1.57163e-06
-1.46792e-05
1.56903e-06
-1.51936e-05
1.56171e-06
-1.57008e-05
1.54929e-06
-1.61989e-05
1.53138e-06
-1.66861e-05
1.50763e-06
-1.71603e-05
1.47771e-06
-1.76194e-05
1.44131e-06
-1.80612e-05
1.39813e-06
-1.84835e-05
1.34793e-06
-1.8884e-05
1.29047e-06
-1.92605e-05
1.22555e-06
-1.96106e-05
1.15301e-06
-1.9932e-05
1.0727e-06
-2.02224e-05
9.84547e-07
-2.04796e-05
8.88503e-07
-2.07011e-05
7.84577e-07
-2.0885e-05
6.72838e-07
-2.1029e-05
5.53421e-07
-2.11311e-05
4.26535e-07
-2.11893e-05
2.92472e-07
-2.1202e-05
1.51616e-07
-2.11674e-05
4.44892e-09
-2.10841e-05
-1.48445e-07
-2.09509e-05
-3.06367e-07
-2.07668e-05
-4.68508e-07
-2.05312e-05
-6.33941e-07
-2.02436e-05
-8.01627e-07
-1.99041e-05
-9.70418e-07
-1.95129e-05
-1.13907e-06
-1.90707e-05
-1.30623e-06
-1.85787e-05
-1.4705e-06
-1.80383e-05
-1.6304e-06
-1.74515e-05
-1.78442e-06
-1.68207e-05
-1.93104e-06
-1.61487e-05
-2.06876e-06
-1.54386e-05
-2.1961e-06
-1.4694e-05
-2.31168e-06
-1.3919e-05
-2.41419e-06
-1.31177e-05
-2.50246e-06
-1.22947e-05
-2.57548e-06
-1.14549e-05
-2.63243e-06
-1.06032e-05
-2.67265e-06
-9.74473e-06
-2.69573e-06
-8.88457e-06
-2.70147e-06
-8.0279e-06
-2.68993e-06
-7.17977e-06
-2.66138e-06
-6.34513e-06
-2.61632e-06
-5.52869e-06
-2.55548e-06
-4.73492e-06
-2.47979e-06
-3.96799e-06
-2.39035e-06
-3.23169e-06
-2.28841e-06
-2.52945e-06
-2.17537e-06
-1.86425e-06
-2.05269e-06
-1.23866e-06
-1.9219e-06
-6.54764e-07
-1.78455e-06
-1.14241e-07
-1.64219e-06
3.81693e-07
-1.49631e-06
8.32237e-07
-1.34834e-06
1.23698e-06
-1.19962e-06
1.5959e-06
-1.05138e-06
1.90926e-06
-9.04701e-07
2.17766e-06
-7.6054e-07
2.40194e-06
-6.19707e-07
2.58312e-06
-4.82868e-07
2.72244e-06
-3.50555e-07
2.82124e-06
-2.23173e-07
2.881e-06
-1.01024e-07
2.90328e-06
1.56728e-08
2.8897e-06
1.26749e-07
2.84196e-06
2.32055e-07
2.76188e-06
3.31411e-07
2.65134e-06
4.24556e-07
2.51244e-06
5.11084e-07
2.34745e-06
5.90373e-07
2.15899e-06
6.61495e-07
1.9501e-06
7.23119e-07
1.72437e-06
7.73407e-07
1.48609e-06
8.09899e-07
1.24042e-06
8.29427e-07
9.93539e-07
8.28064e-07
7.52793e-07
8.01159e-07
5.26798e-07
7.43559e-07
3.25564e-07
6.50083e-07
1.60725e-07
5.16415e-07
4.612e-08
3.40344e-07
1.25018e-07
-3.93169e-08
5.91339e-08
-1.55513e-07
2.5574e-07
-3.44363e-07
4.91939e-07
-5.99638e-07
7.32402e-07
-9.13715e-07
9.5689e-07
-1.27829e-06
1.15412e-06
-1.68504e-06
1.31953e-06
-2.12611e-06
1.45314e-06
-2.59453e-06
1.55772e-06
-3.08432e-06
1.63756e-06
-3.59065e-06
1.69746e-06
-4.10974e-06
1.74216e-06
-4.63877e-06
1.77592e-06
-5.17577e-06
1.80238e-06
-5.71943e-06
1.82445e-06
-6.26895e-06
1.84434e-06
-6.82394e-06
1.86364e-06
-7.38422e-06
1.8834e-06
-7.9498e-06
1.90423e-06
-8.52076e-06
1.9264e-06
-9.09714e-06
1.94988e-06
-9.67898e-06
1.97449e-06
-1.02662e-05
1.99986e-06
-1.08586e-05
2.02554e-06
-1.1456e-05
2.05103e-06
-1.20577e-05
2.07575e-06
-1.26633e-05
2.09912e-06
-1.32719e-05
2.12051e-06
-1.38826e-05
2.13931e-06
-1.44943e-05
2.15492e-06
-1.51057e-05
2.1667e-06
-1.57154e-05
2.17406e-06
-1.63219e-05
2.17641e-06
-1.69235e-05
2.17317e-06
-1.75182e-05
2.1638e-06
-1.81043e-05
2.14777e-06
-1.86796e-05
2.12458e-06
-1.9242e-05
2.09376e-06
-1.97892e-05
2.05488e-06
-2.03191e-05
2.00755e-06
-2.08291e-05
1.95139e-06
-2.13171e-05
1.88608e-06
-2.17805e-05
1.81134e-06
-2.22169e-05
1.72692e-06
-2.2624e-05
1.63262e-06
-2.29993e-05
1.52827e-06
-2.33403e-05
1.41376e-06
-2.36448e-05
1.28905e-06
-2.39104e-05
1.15411e-06
-2.41349e-05
1.00903e-06
-2.4316e-05
8.53938e-07
-2.44516e-05
6.89056e-07
-2.45398e-05
5.147e-07
-2.45786e-05
3.31286e-07
-2.45663e-05
1.39344e-07
-2.45014e-05
-6.04708e-08
-2.43825e-05
-2.67375e-07
-2.42084e-05
-4.80446e-07
-2.39783e-05
-6.98616e-07
-2.36916e-05
-9.20673e-07
-2.33479e-05
-1.14526e-06
-2.29475e-05
-1.37089e-06
-2.24906e-05
-1.59594e-06
-2.19781e-05
-1.81867e-06
-2.14114e-05
-2.03726e-06
-2.0792e-05
-2.24979e-06
-2.01221e-05
-2.45431e-06
-1.94043e-05
-2.64885e-06
-1.86416e-05
-2.83146e-06
-1.78375e-05
-3.00023e-06
-1.69958e-05
-3.15335e-06
-1.61209e-05
-3.28914e-06
-1.52172e-05
-3.40608e-06
-1.42899e-05
-3.50282e-06
-1.33441e-05
-3.57828e-06
-1.23851e-05
-3.63161e-06
-1.14185e-05
-3.66227e-06
-1.04501e-05
-3.66997e-06
-9.48523e-06
-3.65476e-06
-8.52962e-06
-3.61699e-06
-7.58865e-06
-3.5573e-06
-6.66751e-06
-3.47662e-06
-5.77113e-06
-3.37616e-06
-4.90413e-06
-3.25735e-06
-4.07072e-06
-3.12183e-06
-3.2747e-06
-2.9714e-06
-2.5194e-06
-2.80799e-06
-1.80769e-06
-2.63361e-06
-1.14194e-06
-2.4503e-06
-5.24036e-07
-2.26009e-06
4.46233e-08
-2.06497e-06
5.63099e-07
-1.86682e-06
1.03089e-06
-1.66742e-06
1.4479e-06
-1.46839e-06
1.81439e-06
-1.27119e-06
2.13095e-06
-1.0771e-06
2.39844e-06
-8.87197e-07
2.61796e-06
-7.02389e-07
2.7908e-06
-5.23396e-07
2.91841e-06
-3.50781e-07
3.00235e-06
-1.84968e-07
3.0443e-06
-2.62799e-08
3.04602e-06
1.25029e-07
3.00936e-06
2.68719e-07
2.93627e-06
4.04505e-07
2.82883e-06
5.31994e-07
2.68932e-06
6.50595e-07
2.52026e-06
7.59433e-07
2.32452e-06
8.57235e-07
2.10542e-06
9.42214e-07
1.86689e-06
1.01194e-06
1.61356e-06
1.06322e-06
1.351e-06
1.09199e-06
1.08581e-06
1.09326e-06
8.25823e-07
1.06115e-06
5.80298e-07
9.89084e-07
3.60172e-07
8.70209e-07
1.78525e-07
6.98062e-07
5.14179e-08
4.67451e-07
1.76436e-07
-5.31531e-08
1.12287e-07
-2.03798e-07
4.06385e-07
-4.41866e-07
7.30007e-07
-7.56733e-07
1.04727e-06
-1.13761e-06
1.33777e-06
-1.574e-06
1.59051e-06
-2.05612e-06
1.80165e-06
-2.57517e-06
1.97219e-06
-3.12354e-06
2.10609e-06
-3.69488e-06
2.2089e-06
-4.28408e-06
2.28665e-06
-4.88715e-06
2.34523e-06
-5.50114e-06
2.38991e-06
-6.12393e-06
2.42517e-06
-6.75409e-06
2.45461e-06
-7.3907e-06
2.48095e-06
-8.03323e-06
2.50617e-06
-8.68139e-06
2.53156e-06
-9.33503e-06
2.55787e-06
-9.99407e-06
2.58544e-06
-1.06584e-05
2.61423e-06
-1.13279e-05
2.64399e-06
-1.20024e-05
2.67428e-06
-1.26813e-05
2.7045e-06
-1.33643e-05
2.734e-06
-1.40506e-05
2.76205e-06
-1.47393e-05
2.78789e-06
-1.54296e-05
2.81074e-06
-1.61201e-05
2.8298e-06
-1.68094e-05
2.84428e-06
-1.74961e-05
2.85342e-06
-1.81785e-05
2.85644e-06
-1.88547e-05
2.85261e-06
-1.95228e-05
2.84123e-06
-2.01806e-05
2.82162e-06
-2.0826e-05
2.79316e-06
-2.14567e-05
2.75526e-06
-2.20703e-05
2.70739e-06
-2.26645e-05
2.64904e-06
-2.32367e-05
2.5798e-06
-2.37846e-05
2.49927e-06
-2.43057e-05
2.40712e-06
-2.47974e-05
2.30307e-06
-2.52574e-05
2.18688e-06
-2.56831e-05
2.05839e-06
-2.60723e-05
1.91746e-06
-2.64226e-05
1.76403e-06
-2.67316e-05
1.59809e-06
-2.69972e-05
1.4197e-06
-2.72172e-05
1.22899e-06
-2.73894e-05
1.02619e-06
-2.75119e-05
8.11599e-07
-2.75829e-05
5.85638e-07
-2.76004e-05
3.48844e-07
-2.7563e-05
1.01886e-07
-2.7469e-05
-1.54421e-07
-2.73173e-05
-4.19107e-07
-2.71067e-05
-6.91037e-07
-2.68364e-05
-9.68902e-07
-2.65059e-05
-1.25122e-06
-2.61148e-05
-1.53632e-06
-2.56633e-05
-1.82239e-06
-2.51518e-05
-2.10743e-06
-2.45812e-05
-2.3893e-06
-2.39527e-05
-2.66577e-06
-2.3268e-05
-2.93447e-06
-2.25293e-05
-3.19299e-06
-2.17393e-05
-3.4389e-06
-2.0901e-05
-3.66975e-06
-2.0018e-05
-3.88319e-06
-1.90944e-05
-4.07694e-06
-1.81347e-05
-4.24888e-06
-1.71437e-05
-4.39708e-06
-1.61266e-05
-4.51988e-06
-1.50891e-05
-4.61585e-06
-1.40368e-05
-4.68392e-06
-1.29757e-05
-4.72335e-06
-1.19119e-05
-4.73376e-06
-1.08515e-05
-4.71517e-06
-9.80048e-06
-4.66798e-06
-8.76483e-06
-4.59295e-06
-7.7502e-06
-4.49125e-06
-6.76203e-06
-4.36434e-06
-5.80536e-06
-4.21401e-06
-4.88487e-06
-4.04232e-06
-4.00473e-06
-3.85153e-06
-3.16865e-06
-3.64407e-06
-2.3798e-06
-3.42246e-06
-1.6408e-06
-3.1893e-06
-9.53742e-07
-2.94715e-06
-3.20178e-07
-2.69853e-06
2.58849e-07
-2.44584e-06
7.82782e-07
-2.19135e-06
1.2515e-06
-1.93711e-06
1.6653e-06
-1.68499e-06
2.02482e-06
-1.43661e-06
2.33098e-06
-1.19337e-06
2.58501e-06
-9.5641e-07
2.78828e-06
-7.26672e-07
2.94238e-06
-5.04879e-07
3.049e-06
-2.91587e-07
3.10994e-06
-8.72228e-08
3.12711e-06
1.07865e-07
3.10248e-06
2.93346e-07
3.03816e-06
4.68827e-07
2.93638e-06
6.33774e-07
2.79957e-06
7.87404e-07
2.63043e-06
9.28575e-07
2.43201e-06
1.05566e-06
2.20783e-06
1.16639e-06
1.96204e-06
1.25773e-06
1.69953e-06
1.32574e-06
1.42611e-06
1.36541e-06
1.1487e-06
1.37066e-06
8.75558e-07
1.33429e-06
6.16487e-07
1.24815e-06
3.83243e-07
1.10345e-06
1.90095e-07
8.9121e-07
5.47266e-08
6.02819e-07
2.31163e-07
-6.66534e-08
1.7894e-07
-2.5122e-07
5.90951e-07
-5.38031e-07
1.01682e-06
-9.12058e-07
1.4213e-06
-1.35922e-06
1.78492e-06
-1.86667e-06
2.09796e-06
-2.42303e-06
2.35802e-06
-3.01848e-06
2.56763e-06
-3.64475e-06
2.73236e-06
-4.29509e-06
2.85924e-06
-4.96416e-06
2.95571e-06
-5.64783e-06
3.02889e-06
-6.34303e-06
3.08511e-06
-7.04757e-06
3.12971e-06
-7.75991e-06
3.16695e-06
-8.47905e-06
3.20009e-06
-9.20433e-06
3.23145e-06
-9.93533e-06
3.26256e-06
-1.06718e-05
3.2943e-06
-1.14134e-05
3.32705e-06
-1.21599e-05
3.36076e-06
-1.2911e-05
3.39509e-06
-1.36662e-05
3.42949e-06
-1.44249e-05
3.46324e-06
-1.51864e-05
3.49551e-06
-1.59498e-05
3.52541e-06
-1.67139e-05
3.552e-06
-1.74775e-05
3.57431e-06
-1.82391e-05
3.59137e-06
-1.8997e-05
3.60222e-06
-1.97495e-05
3.60593e-06
-2.04946e-05
3.60157e-06
-2.12303e-05
3.58827e-06
-2.19543e-05
3.56522e-06
-2.26643e-05
3.53164e-06
-2.3358e-05
3.48683e-06
-2.40328e-05
3.43013e-06
-2.46864e-05
3.36099e-06
-2.53163e-05
3.27888e-06
-2.59199e-05
3.18338e-06
-2.64947e-05
3.07412e-06
-2.70384e-05
2.95079e-06
-2.75485e-05
2.81315e-06
-2.80226e-05
2.66104e-06
-2.84585e-05
2.49432e-06
-2.8854e-05
2.31293e-06
-2.92069e-05
2.11687e-06
-2.9515e-05
1.9062e-06
-2.97763e-05
1.68105e-06
-2.99889e-05
1.4416e-06
-3.01509e-05
1.18816e-06
-3.02604e-05
9.21108e-07
-3.03157e-05
6.40938e-07
-3.03152e-05
3.48284e-07
-3.02572e-05
4.39215e-08
-3.01404e-05
-2.71209e-07
-2.99635e-05
-5.95989e-07
-2.97255e-05
-9.29107e-07
-2.94253e-05
-1.26905e-06
-2.90624e-05
-1.61409e-06
-2.86364e-05
-1.96231e-06
-2.81473e-05
-2.31155e-06
-2.75952e-05
-2.65948e-06
-2.6981e-05
-3.00358e-06
-2.63056e-05
-3.34118e-06
-2.55706e-05
-3.66947e-06
-2.4778e-05
-3.98556e-06
-2.39304e-05
-4.28651e-06
-2.30308e-05
-4.56937e-06
-2.20827e-05
-4.83126e-06
-2.10903e-05
-5.06939e-06
-2.0058e-05
-5.28114e-06
-1.8991e-05
-5.46413e-06
-1.78946e-05
-5.61624e-06
-1.67747e-05
-5.73569e-06
-1.56376e-05
-5.82108e-06
-1.44895e-05
-5.87143e-06
-1.33371e-05
-5.8862e-06
-1.21869e-05
-5.86533e-06
-1.10457e-05
-5.80923e-06
-9.91981e-06
-5.7188e-06
-8.81567e-06
-5.59538e-06
-7.73927e-06
-5.44074e-06
-6.69623e-06
-5.25705e-06
-5.69176e-06
-5.0468e-06
-4.73053e-06
-4.81276e-06
-3.81668e-06
-4.55792e-06
-2.95375e-06
-4.28539e-06
-2.14467e-06
-3.99838e-06
-1.39174e-06
-3.70007e-06
-6.96691e-07
-3.39358e-06
-6.06434e-08
-3.08189e-06
5.15815e-07
-2.76781e-06
1.0326e-06
-2.45389e-06
1.49008e-06
-2.14246e-06
1.889e-06
-1.83554e-06
2.23046e-06
-1.53483e-06
2.51583e-06
-1.24178e-06
2.7467e-06
-9.57536e-07
2.92482e-06
-6.82998e-07
3.05208e-06
-4.18852e-07
3.13049e-06
-1.65627e-07
3.16211e-06
7.62436e-08
3.14911e-06
3.06345e-07
3.09375e-06
5.24188e-07
2.99842e-06
7.29104e-07
2.8657e-06
9.20124e-07
2.69843e-06
1.09584e-06
2.49981e-06
1.25428e-06
2.27352e-06
1.39268e-06
2.02384e-06
1.50741e-06
1.75584e-06
1.59374e-06
1.47553e-06
1.64571e-06
1.19011e-06
1.65609e-06
9.08136e-07
1.61626e-06
6.39914e-07
1.51638e-06
3.97877e-07
1.34549e-06
1.972e-07
1.09189e-06
5.66561e-08
7.43363e-07
2.87819e-07
-7.97362e-08
2.58677e-07
-2.97353e-07
8.08568e-07
-6.31838e-07
1.3513e-06
-1.06384e-06
1.8533e-06
-1.57598e-06
2.29706e-06
-2.153e-06
2.67499e-06
-2.78186e-06
2.98688e-06
-3.45164e-06
3.23741e-06
-4.15338e-06
3.4341e-06
-4.87994e-06
3.5858e-06
-5.62574e-06
3.70151e-06
-6.38652e-06
3.78968e-06
-7.15915e-06
3.85775e-06
-7.94137e-06
3.91192e-06
-8.73157e-06
3.95716e-06
-9.52867e-06
3.99718e-06
-1.03319e-05
4.03467e-06
-1.11407e-05
4.07137e-06
-1.19547e-05
4.10825e-06
-1.27733e-05
4.14572e-06
-1.35963e-05
4.1837e-06
-1.44229e-05
4.22175e-06
-1.52526e-05
4.25919e-06
-1.60846e-05
4.29516e-06
-1.69177e-05
4.32865e-06
-1.77509e-05
4.3586e-06
-1.85828e-05
4.38388e-06
-1.94118e-05
4.40333e-06
-2.02362e-05
4.41582e-06
-2.10542e-05
4.4202e-06
-2.18637e-05
4.41539e-06
-2.26625e-05
4.40035e-06
-2.34483e-05
4.37407e-06
-2.42187e-05
4.33565e-06
-2.49713e-05
4.28425e-06
-2.57036e-05
4.21912e-06
-2.64131e-05
4.1396e-06
-2.70972e-05
4.04512e-06
-2.77535e-05
3.93521e-06
-2.83796e-05
3.80948e-06
-2.89731e-05
3.66763e-06
-2.95318e-05
3.50942e-06
-3.00533e-05
3.33472e-06
-3.05357e-05
3.14342e-06
-3.09769e-05
2.93549e-06
-3.13749e-05
2.71095e-06
-3.17279e-05
2.46987e-06
-3.20341e-05
2.21238e-06
-3.22917e-05
1.93866e-06
-3.2499e-05
1.64895e-06
-3.26544e-05
1.34358e-06
-3.27563e-05
1.02299e-06
-3.28031e-05
6.87683e-07
-3.27931e-05
3.38348e-07
-3.2725e-05
-2.41984e-08
-3.25973e-05
-3.98953e-07
-3.24085e-05
-7.84714e-07
-3.21576e-05
-1.18006e-06
-3.18433e-05
-1.58334e-06
-3.14647e-05
-1.99265e-06
-3.10212e-05
-2.40583e-06
-3.05123e-05
-2.82047e-06
-2.99378e-05
-3.23393e-06
-2.92981e-05
-3.6433e-06
-2.85938e-05
-4.04551e-06
-2.78259e-05
-4.43729e-06
-2.69963e-05
-4.81523e-06
-2.61069e-05
-5.17585e-06
-2.51607e-05
-5.51563e-06
-2.41608e-05
-5.83109e-06
-2.31114e-05
-6.11885e-06
-2.20168e-05
-6.37569e-06
-2.08823e-05
-6.59865e-06
-1.97135e-05
-6.78507e-06
-1.85165e-05
-6.93268e-06
-1.72979e-05
-7.03965e-06
-1.60647e-05
-7.10465e-06
-1.4824e-05
-7.1269e-06
-1.35831e-05
-7.10618e-06
-1.23495e-05
-7.04286e-06
-1.11304e-05
-6.9379e-06
-9.93294e-06
-6.79282e-06
-8.76398e-06
-6.6097e-06
-7.62993e-06
-6.3911e-06
-6.53674e-06
-6.13999e-06
-5.48977e-06
-5.85973e-06
-4.49375e-06
-5.55393e-06
-3.55274e-06
-5.2264e-06
-2.67008e-06
-4.88104e-06
-1.8484e-06
-4.52175e-06
-1.08962e-06
-4.15237e-06
-3.94968e-07
-3.77654e-06
2.34945e-07
-3.39772e-06
8.00105e-07
-3.01905e-06
1.30101e-06
-2.64337e-06
1.73863e-06
-2.27315e-06
2.11428e-06
-1.91048e-06
2.4296e-06
-1.55711e-06
2.68649e-06
-1.21442e-06
2.88699e-06
-8.83498e-07
3.03329e-06
-5.65155e-07
3.12767e-06
-2.60011e-07
3.17248e-06
3.14344e-08
3.17013e-06
3.08703e-07
3.12308e-06
5.71232e-07
3.03394e-06
8.18242e-07
2.90546e-06
1.0486e-06
2.74064e-06
1.26067e-06
2.54281e-06
1.45211e-06
2.31578e-06
1.61971e-06
2.06397e-06
1.75922e-06
1.79258e-06
1.86513e-06
1.50779e-06
1.9305e-06
1.21699e-06
1.94689e-06
9.29051e-07
1.9042e-06
6.54678e-07
1.79075e-06
4.06838e-07
1.59333e-06
2.01364e-07
1.29736e-06
5.77056e-08
8.87022e-07
3.45525e-07
-9.23746e-08
3.51051e-07
-3.41994e-07
1.05819e-06
-7.2273e-07
1.73204e-06
-1.21105e-06
2.34162e-06
-1.78631e-06
2.87232e-06
-2.43088e-06
3.31955e-06
-3.13001e-06
3.68601e-06
-3.87164e-06
3.97904e-06
-4.64613e-06
4.20859e-06
-5.4459e-06
4.38557e-06
-6.26514e-06
4.52075e-06
-7.09949e-06
4.62403e-06
-7.94574e-06
4.70399e-06
-8.80157e-06
4.76775e-06
-9.66534e-06
4.82092e-06
-1.05359e-05
4.86772e-06
-1.14123e-05
4.91111e-06
-1.2294e-05
4.95304e-06
-1.31803e-05
4.99456e-06
-1.40706e-05
5.03607e-06
-1.49644e-05
5.07744e-06
-1.58607e-05
5.11811e-06
-1.67588e-05
5.15728e-06
-1.76576e-05
5.1939e-06
-1.85557e-05
5.22681e-06
-1.94519e-05
5.25475e-06
-2.03444e-05
5.27639e-06
-2.12315e-05
5.29042e-06
-2.21112e-05
5.29551e-06
-2.29814e-05
5.29038e-06
-2.38398e-05
5.27381e-06
-2.46841e-05
5.24462e-06
-2.55117e-05
5.20176e-06
-2.63203e-05
5.14426e-06
-2.71073e-05
5.07124e-06
-2.78702e-05
4.98198e-06
-2.86065e-05
4.87585e-06
-2.93137e-05
4.75235e-06
-2.99896e-05
4.61109e-06
-3.06319e-05
4.45178e-06
-3.12385e-05
4.27426e-06
-3.18075e-05
4.07842e-06
-3.2337e-05
3.86423e-06
-3.28253e-05
3.63172e-06
-3.32708e-05
3.38098e-06
-3.3672e-05
3.1121e-06
-3.40273e-05
2.82525e-06
-3.43355e-05
2.52059e-06
-3.45952e-05
2.19833e-06
-3.4805e-05
1.85872e-06
-3.49635e-05
1.50208e-06
-3.50693e-05
1.12878e-06
-3.51209e-05
7.39332e-07
-3.51169e-05
3.34339e-07
-3.50557e-05
-8.54204e-08
-3.49357e-05
-5.1898e-07
-3.47552e-05
-9.65157e-07
-3.45128e-05
-1.42252e-06
-3.42067e-05
-1.88937e-06
-3.38357e-05
-2.3637e-06
-3.33983e-05
-2.84322e-06
-3.28934e-05
-3.32532e-06
-3.23203e-05
-3.80706e-06
-3.16784e-05
-4.28523e-06
-3.09676e-05
-4.75631e-06
-3.01883e-05
-5.21658e-06
-2.93414e-05
-5.66207e-06
-2.84286e-05
-6.0887e-06
-2.74519e-05
-6.49228e-06
-2.64144e-05
-6.86864e-06
-2.53196e-05
-7.21366e-06
-2.41719e-05
-7.52339e-06
-2.29764e-05
-7.79413e-06
-2.1739e-05
-8.02251e-06
-2.04661e-05
-8.2056e-06
-1.91647e-05
-8.34098e-06
-1.78426e-05
-8.42682e-06
-1.65075e-05
-8.46193e-06
-1.51679e-05
-8.44582e-06
-1.3832e-05
-8.37871e-06
-1.25084e-05
-8.26156e-06
-1.12052e-05
-8.09603e-06
-9.9304e-06
-7.88448e-06
-8.69161e-06
-7.62989e-06
-7.49582e-06
-7.33578e-06
-6.34938e-06
-7.00617e-06
-5.25791e-06
-6.6454e-06
-4.22624e-06
-6.25808e-06
-3.25831e-06
-5.84897e-06
-2.35723e-06
-5.42283e-06
-1.52524e-06