/*--------------------------------*- C++ -*----------------------------------*\
| =========                 |                                                 |
| \\      /  F ield         | OpenFOAM: The Open Source CFD Toolbox           |
|  \\    /   O peration     | Version:  2406                                  |
|   \\  /    A nd           | Website:  www.openfoam.com                      |
|    \\/     M anipulation  |                                                 |
\*---------------------------------------------------------------------------*/
FoamFile
{
    version     2.0;
    format      ascii;
    arch        "LSB;label=32;scalar=64";
    class       surfaceScalarField;
    location    "5";
    object      phi;
}
// * * * * * * * * * * * * * * * * * * * * * * * * * * * * * * * * * * * * * //

dimensions      [0 3 -1 0 0 0 0];

oriented        oriented;

internalField   nonuniform List<scalar> 
7080
(
-3.79622e-09
3.78183e-09
-1.29561e-07
1.27419e-07
-3.49045e-07
2.19257e-07
-6.31599e-07
2.8445e-07
-9.45268e-07
3.13798e-07
-1.2729e-06
3.29576e-07
-1.60446e-06
3.31963e-07
-1.93464e-06
3.32008e-07
-2.26205e-06
3.27995e-07
-2.58501e-06
3.24617e-07
-2.90397e-06
3.19667e-07
-3.21779e-06
3.15327e-07
-3.52682e-06
3.09812e-07
-3.8298e-06
3.04352e-07
-4.12667e-06
2.97686e-07
-4.41602e-06
2.90602e-07
-4.69741e-06
2.82214e-07
-4.96933e-06
2.73041e-07
-5.23098e-06
2.62445e-07
-5.48074e-06
2.50763e-07
-5.71753e-06
2.37527e-07
-5.93962e-06
2.22955e-07
-6.14568e-06
2.06706e-07
-6.33389e-06
1.88934e-07
-6.50277e-06
1.69408e-07
-6.65046e-06
1.48256e-07
-6.77543e-06
1.25353e-07
-6.87589e-06
1.00843e-07
-6.95038e-06
7.47095e-08
-6.99733e-06
4.71388e-08
-7.01553e-06
1.82299e-08
-7.00378e-06
-1.1767e-08
-6.96131e-06
-4.26404e-08
-6.88747e-06
-7.40691e-08
-6.78211e-06
-1.05745e-07
-6.64527e-06
-1.37286e-07
-6.47754e-06
-1.68322e-07
-6.27974e-06
-1.98439e-07
-6.05329e-06
-2.27257e-07
-5.79973e-06
-2.54375e-07
-5.52124e-06
-2.79471e-07
-5.22001e-06
-3.02198e-07
-4.8988e-06
-3.22368e-07
-4.56015e-06
-3.39717e-07
-4.20719e-06
-3.54257e-07
-3.84253e-06
-3.65794e-07
-3.46936e-06
-3.74581e-07
-3.09012e-06
-3.80384e-07
-2.70795e-06
-3.8367e-07
-2.32522e-06
-3.83844e-07
-1.94539e-06
-3.81372e-07
-1.57187e-06
-3.74532e-07
-1.21017e-06
-3.6325e-07
-8.67772e-07
-3.43222e-07
-5.55864e-07
-3.13349e-07
-2.90935e-07
-2.65439e-07
-9.16099e-08
-2.00473e-07
1.9615e-08
-1.11359e-07
4.13321e-08
-2.24083e-08
4.12862e-08
-1.30641e-07
1.32775e-07
-5.02798e-07
4.99631e-07
-1.05746e-06
7.71157e-07
-1.73703e-06
9.63305e-07
-2.49112e-06
1.06481e-06
-3.28374e-06
1.12091e-06
-4.09338e-06
1.13853e-06
-4.90558e-06
1.14262e-06
-5.71453e-06
1.13404e-06
-6.51491e-06
1.12326e-06
-7.30576e-06
1.1078e-06
-8.08411e-06
1.09186e-06
-8.8495e-06
1.07268e-06
-9.59917e-06
1.05219e-06
-1.03321e-05
1.02828e-06
-1.10453e-05
1.00198e-06
-1.1737e-05
9.7179e-07
-1.2404e-05
9.38285e-07
-1.30438e-05
9.0036e-07
-1.3653e-05
8.58329e-07
-1.42286e-05
8.11371e-07
-1.47667e-05
7.59652e-07
-1.5264e-05
7.02586e-07
-1.57166e-05
6.40293e-07
-1.61208e-05
5.72418e-07
-1.64726e-05
4.99125e-07
-1.67684e-05
4.20313e-07
-1.70045e-05
3.36275e-07
-1.71775e-05
2.47194e-07
-1.72842e-05
1.53556e-07
-1.73219e-05
5.58548e-08
-1.72884e-05
-4.51914e-08
-1.7182e-05
-1.48778e-07
-1.70016e-05
-2.53958e-07
-1.6747e-05
-3.59658e-07
-1.64185e-05
-4.64759e-07
-1.60178e-05
-5.68016e-07
-1.55466e-05
-6.6824e-07
-1.50083e-05
-7.64164e-07
-1.44063e-05
-8.54673e-07
-1.37453e-05
-9.3866e-07
-1.30302e-05
-1.01523e-06
-1.22669e-05
-1.08363e-06
-1.1461e-05
-1.14328e-06
-1.06191e-05
-1.19391e-06
-9.74706e-06
-1.23527e-06
-8.85168e-06
-1.2676e-06
-7.93872e-06
-1.29063e-06
-7.0151e-06
-1.3049e-06
-6.08692e-06
-1.30922e-06
-5.1625e-06
-1.30348e-06
-4.25077e-06
-1.28345e-06
-3.36538e-06
-1.24655e-06
-2.52395e-06
-1.18199e-06
-1.75198e-06
-1.08366e-06
-1.08209e-06
-9.33084e-07
-5.51253e-07
-7.30383e-07
-1.94415e-07
-4.66646e-07
-2.05264e-08
-1.9616e-07
2.14939e-08
-2.36307e-07
3.69245e-07
-8.10672e-07
1.07684e-06
-1.62865e-06
1.58906e-06
-2.60491e-06
1.94258e-06
-3.68069e-06
2.14132e-06
-4.80844e-06
2.25166e-06
-5.96179e-06
2.29309e-06
-7.12034e-06
2.30402e-06
-8.27579e-06
2.29096e-06
-9.41995e-06
2.27008e-06
-1.05506e-05
2.24008e-06
-1.16633e-05
2.20698e-06
-1.27566e-05
2.16766e-06
-1.38266e-05
2.1245e-06
-1.48714e-05
2.07476e-06
-1.58869e-05
2.01952e-06
-1.68702e-05
1.95672e-06
-1.78168e-05
1.88683e-06
-1.87232e-05
1.80832e-06
-1.95845e-05
1.72133e-06
-2.03964e-05
1.62471e-06
-2.11538e-05
1.51848e-06
-2.18518e-05
1.40183e-06
-2.2485e-05
1.27481e-06
-2.30486e-05
1.13698e-06
-2.35371e-05
9.88552e-07
-2.39456e-05
8.29542e-07
-2.42691e-05
6.60455e-07
-2.45033e-05
4.81816e-07
-2.4644e-05
2.94538e-07
-2.46878e-05
9.97058e-08
-2.46317e-05
-1.0131e-07
-2.44739e-05
-3.06868e-07
-2.42131e-05
-5.15166e-07
-2.38494e-05
-7.24091e-07
-2.33834e-05
-9.31532e-07
-2.28174e-05
-1.13508e-06
-2.21543e-05
-1.33254e-06
-2.13984e-05
-1.52147e-06
-2.05547e-05
-1.69985e-06
-1.96296e-05
-1.86555e-06
-1.86296e-05
-2.017e-06
-1.75625e-05
-2.15269e-06
-1.6436e-05
-2.27171e-06
-1.52588e-05
-2.37337e-06
-1.40388e-05
-2.45741e-06
-1.27849e-05
-2.52392e-06
-1.15049e-05
-2.57273e-06
-1.02082e-05
-2.60413e-06
-8.9032e-06
-2.61638e-06
-7.60121e-06
-2.60804e-06
-6.31451e-06
-2.5721e-06
-5.06172e-06
-2.50187e-06
-3.86583e-06
-2.37951e-06
-2.76069e-06
-2.19113e-06
-1.78646e-06
-1.90836e-06
-9.91795e-07
-1.52698e-06
-4.18549e-07
-1.04013e-06
-9.27187e-08
-5.23482e-07
-7.13285e-08
-3.20475e-07
6.87722e-07
-1.0551e-06
1.81239e-06
-2.07274e-06
2.60357e-06
-3.26518e-06
3.13513e-06
-4.56932e-06
3.44255e-06
-5.93145e-06
3.61324e-06
-7.32415e-06
3.68308e-06
-8.72361e-06
3.70253e-06
-1.01204e-05
3.68527e-06
-1.15042e-05
3.65268e-06
-1.28719e-05
3.60548e-06
-1.42175e-05
3.55132e-06
-1.55391e-05
3.48714e-06
-1.68316e-05
3.41564e-06
-1.80923e-05
3.33365e-06
-1.93164e-05
3.24219e-06
-2.05001e-05
3.13871e-06
-2.1638e-05
3.0235e-06
-2.27259e-05
2.89461e-06
-2.37577e-05
2.75197e-06
-2.47285e-05
2.5941e-06
-2.56319e-05
2.42085e-06
-2.64625e-05
2.2312e-06
-2.72137e-05
2.02512e-06
-2.78798e-05
1.80214e-06
-2.84545e-05
1.56254e-06
-2.89321e-05
1.30652e-06
-2.9307e-05
1.03487e-06
-2.95742e-05
7.48567e-07
-2.97289e-05
4.49046e-07
-2.97674e-05
1.38124e-07
-2.96866e-05
-1.82041e-07
-2.94844e-05
-5.08806e-07
-2.91598e-05
-8.39357e-07
-2.87131e-05
-1.17036e-06
-2.81454e-05
-1.49855e-06
-2.74595e-05
-1.82017e-06
-2.66591e-05
-2.13186e-06
-2.57496e-05
-2.42987e-06
-2.47371e-05
-2.71113e-06
-2.36289e-05
-2.97237e-06
-2.24331e-05
-3.21128e-06
-2.11587e-05
-3.42551e-06
-1.98149e-05
-3.61381e-06
-1.84116e-05
-3.775e-06
-1.69582e-05
-3.90888e-06
-1.5465e-05
-4.01531e-06
-1.39414e-05
-4.09432e-06
-1.23981e-05
-4.14573e-06
-1.08449e-05
-4.16736e-06
-9.29536e-06
-4.15598e-06
-7.76334e-06
-4.10194e-06
-6.27031e-06
-3.99352e-06
-4.84135e-06
-3.80633e-06
-3.51424e-06
-3.51728e-06
-2.33122e-06
-3.08941e-06
-1.34695e-06
-2.51093e-06
-6.07275e-07
-1.778e-06
-1.55509e-07
-9.75651e-07
-2.25721e-07
-3.71772e-07
1.05926e-06
-1.21828e-06
2.66231e-06
-2.38007e-06
3.7644e-06
-3.72954e-06
4.48764e-06
-5.19769e-06
4.91061e-06
-6.72568e-06
5.14395e-06
-8.28572e-06
5.2436e-06
-9.85206e-06
5.27132e-06
-1.14152e-05
5.24926e-06
-1.29636e-05
5.20324e-06
-1.44938e-05
5.13667e-06
-1.59989e-05
5.05841e-06
-1.74765e-05
4.96585e-06
-1.89208e-05
4.86175e-06
-2.03287e-05
4.74276e-06
-2.16945e-05
4.60963e-06
-2.30142e-05
4.45949e-06
-2.42815e-05
4.29233e-06
-2.54916e-05
4.10582e-06
-2.6638e-05
3.89962e-06
-2.77148e-05
3.67196e-06
-2.87153e-05
3.42246e-06
-2.96332e-05
3.14994e-06
-3.04614e-05
2.85426e-06
-3.11935e-05
2.53497e-06
-3.18227e-05
2.19243e-06
-3.23427e-05
1.82707e-06
-3.27474e-05
1.44003e-06
-3.30314e-05
1.03279e-06
-3.31895e-05
6.07406e-07
-3.32178e-05
1.66522e-07
-3.31131e-05
-2.86808e-07
-3.28733e-05
-7.48806e-07
-3.24974e-05
-1.21552e-06
-3.1986e-05
-1.68225e-06
-3.13407e-05
-2.14443e-06
-3.05648e-05
-2.59681e-06
-2.96627e-05
-3.03474e-06
-2.86406e-05
-3.45297e-06
-2.75054e-05
-3.84735e-06
-2.62657e-05
-4.21329e-06
-2.49305e-05
-4.54774e-06
-2.351e-05
-4.84738e-06
-2.20145e-05
-5.11068e-06
-2.04551e-05
-5.33591e-06
-1.88424e-05
-5.52303e-06
-1.71878e-05
-5.67162e-06
-1.55015e-05
-5.78206e-06
-1.37954e-05
-5.85363e-06
-1.20802e-05
-5.88394e-06
-1.03704e-05
-5.8677e-06
-8.68052e-06
-5.79298e-06
-7.03349e-06
-5.64246e-06
-5.45496e-06
-5.38574e-06
-3.98481e-06
-4.9893e-06
-2.66642e-06
-4.40817e-06
-1.55922e-06
-3.61997e-06
-7.13782e-07
-2.62311e-06
-1.86433e-07
-1.50491e-06
-4.12054e-07
-4.07773e-07
1.46482e-06
-1.33323e-06
3.5894e-06
-2.59635e-06
5.02414e-06
-4.05599e-06
5.94806e-06
-5.63785e-06
6.48963e-06
-7.27967e-06
6.78584e-06
-8.95359e-06
6.91505e-06
-1.06329e-05
6.95026e-06
-1.23085e-05
6.92267e-06
-1.3968e-05
6.86205e-06
-1.5608e-05
6.77475e-06
-1.72209e-05
6.67055e-06
-1.88043e-05
6.54744e-06
-2.03515e-05
6.40813e-06
-2.18595e-05
6.24915e-06
-2.33217e-05
6.07095e-06
-2.4734e-05
5.87036e-06
-2.60896e-05
5.647e-06
-2.73832e-05
5.39822e-06
-2.86078e-05
5.12337e-06
-2.97573e-05
4.82037e-06
-3.08242e-05
4.48861e-06
-3.18019e-05
4.12673e-06
-3.26828e-05
3.73449e-06
-3.34599e-05
3.31144e-06
-3.41261e-05
2.85804e-06
-3.46745e-05
2.37499e-06
-3.50986e-05
1.86376e-06
-3.53925e-05
1.32642e-06
-3.55509e-05
7.65672e-07
-3.55696e-05
1.85073e-07
-3.5445e-05
-4.11354e-07
-3.51751e-05
-1.01859e-06
-3.47589e-05
-1.63144e-06
-3.41971e-05
-2.24369e-06
-3.34916e-05
-2.84937e-06
-3.26463e-05
-3.44158e-06
-3.16661e-05
-4.01423e-06
-3.05579e-05
-4.56045e-06
-2.93294e-05
-5.07485e-06
-2.79903e-05
-5.55144e-06
-2.65506e-05
-5.98634e-06
-2.50218e-05
-6.37518e-06
-2.3415e-05
-6.71616e-06
-2.17428e-05
-7.00694e-06
-2.00167e-05
-7.24779e-06
-1.82492e-05
-7.43794e-06
-1.64513e-05
-7.57839e-06
-1.4636e-05
-7.66781e-06
-1.28144e-05
-7.70392e-06
-1.10019e-05
-7.67926e-06
-9.21315e-06
-7.58004e-06
-7.47169e-06
-7.38314e-06
-5.80313e-06
-7.05261e-06
-4.24821e-06
-6.54382e-06
-2.85074e-06
-5.80391e-06
-1.67282e-06
-4.79806e-06
-7.68481e-07
-3.52556e-06
-2.00863e-07
-2.07334e-06
-6.11672e-07
-4.28178e-07
1.89247e-06
-1.40494e-06
4.56986e-06
-2.73686e-06
6.35454e-06
-4.27336e-06
7.48767e-06
-5.93517e-06
8.15082e-06
-7.65701e-06
8.51029e-06
-9.41052e-06
8.66855e-06
-1.11684e-05
8.71034e-06
-1.29218e-05
8.67643e-06
-1.46581e-05
8.6003e-06
-1.63741e-05
8.49142e-06
-1.8062e-05
8.36019e-06
-1.97192e-05
8.20535e-06
-2.1339e-05
8.02938e-06
-2.29178e-05
7.82877e-06
-2.44491e-05
7.60358e-06
-2.59282e-05
7.35035e-06
-2.73484e-05
7.0683e-06
-2.87038e-05
6.75447e-06
-2.99872e-05
6.4078e-06
-3.11921e-05
6.02594e-06
-3.23106e-05
5.60798e-06
-3.33356e-05
5.15238e-06
-3.42591e-05
4.65873e-06
-3.50737e-05
4.1266e-06
-3.57716e-05
3.5565e-06
-3.63457e-05
2.9494e-06
-3.67886e-05
2.30711e-06
-3.70943e-05
1.63228e-06
-3.72567e-05
9.2829e-07
-3.72713e-05
1.99679e-07
-3.71341e-05
-5.48511e-07
-3.68429e-05
-1.30991e-06
-3.63966e-05
-2.07798e-06
-3.57957e-05
-2.84484e-06
-3.50425e-05
-3.60297e-06
-3.4141e-05
-4.34361e-06
-3.30967e-05
-5.05909e-06
-3.19171e-05
-5.74069e-06
-3.0611e-05
-6.38166e-06
-2.91889e-05
-6.97437e-06
-2.76621e-05
-7.51404e-06
-2.60431e-05
-7.99511e-06
-2.43447e-05
-8.41553e-06
-2.25805e-05
-8.77225e-06
-2.07632e-05
-9.06601e-06
-1.89067e-05
-9.29568e-06
-1.70229e-05
-9.46315e-06
-1.51256e-05
-9.56646e-06
-1.32265e-05
-9.60386e-06
-1.13415e-05
-9.56567e-06
-9.4856e-06
-9.43667e-06
-7.68253e-06
-9.18768e-06
-5.95805e-06
-8.7775e-06
-4.35356e-06
-8.14987e-06
-2.91373e-06
-7.24371e-06
-1.70246e-06
-6.01104e-06
-7.76028e-07
-4.45136e-06
-1.98859e-07
-2.65247e-06
-8.10279e-07
-4.43161e-07
2.33334e-06
-1.45551e-06
5.58424e-06
-2.83496e-06
7.73047e-06
-4.42502e-06
9.07893e-06
-6.14262e-06
9.8656e-06
-7.92047e-06
1.02886e-05
-9.72972e-06
1.04754e-05
-1.15427e-05
1.05233e-05
-1.33511e-05
1.04828e-05
-1.51421e-05
1.0391e-05
-1.69128e-05
1.02604e-05
-1.86553e-05
1.01022e-05
-2.0367e-05
9.91557e-06
-2.2041e-05
9.70281e-06
-2.3674e-05
9.46039e-06
-2.52589e-05
9.18784e-06
-2.67912e-05
8.8815e-06
-2.82636e-05
8.54007e-06
-2.96704e-05
8.16027e-06
-3.10039e-05
7.74058e-06
-3.22571e-05
7.27837e-06
-3.34221e-05
6.77232e-06
-3.44911e-05
6.2207e-06
-3.54557e-05
5.62287e-06
-3.63081e-05
4.97836e-06
-3.70396e-05
4.28768e-06
-3.76427e-05
3.55201e-06
-3.81093e-05
2.77348e-06
-3.84326e-05
1.95531e-06
-3.8606e-05
1.10157e-06
-3.86242e-05
2.17795e-07
-3.84828e-05
-6.89903e-07
-3.8179e-05
-1.61369e-06
-3.77112e-05
-2.5456e-06
-3.70799e-05
-3.47588e-06
-3.62872e-05
-4.3953e-06
-3.53374e-05
-5.29299e-06
-3.42365e-05
-6.15952e-06
-3.29927e-05
-6.98401e-06
-3.16155e-05
-7.75817e-06
-3.01167e-05
-8.47246e-06
-2.85089e-05
-9.12109e-06
-2.68062e-05
-9.69704e-06
-2.50228e-05
-1.01981e-05
-2.3174e-05
-1.06203e-05
-2.12739e-05
-1.09651e-05
-1.93379e-05
-1.12309e-05
-1.7379e-05
-1.14209e-05
-1.54122e-05
-1.15326e-05
-1.34498e-05
-1.1565e-05
-1.15084e-05
-1.15065e-05
-9.60308e-06
-1.13407e-05
-7.75798e-06
-1.10324e-05
-5.99897e-06
-1.05352e-05
-4.36778e-06
-9.78098e-06
-2.90969e-06
-8.70032e-06
-1.68898e-06
-7.23214e-06
-7.62367e-07
-5.37623e-06
-1.91572e-07
-3.22421e-06
-1.00068e-06
-4.51976e-07
2.78463e-06
-1.48838e-06
6.62449e-06
-2.90127e-06
9.14153e-06
-4.53013e-06
1.0711e-05
-6.28899e-06
1.16235e-05
-8.10893e-06
1.21111e-05
-9.96051e-06
1.23267e-05
-1.18158e-05
1.23808e-05
-1.36667e-05
1.23337e-05
-1.55005e-05
1.22266e-05
-1.73147e-05
1.2075e-05
-1.91012e-05
1.18903e-05
-2.08578e-05
1.16727e-05
-2.25775e-05
1.14239e-05
-2.4257e-05
1.11404e-05
-2.58893e-05
1.08213e-05
-2.74696e-05
1.04625e-05
-2.89907e-05
1.00622e-05
-3.04466e-05
9.61671e-06
-3.18292e-05
9.12407e-06
-3.31315e-05
8.58125e-06
-3.43449e-05
7.98645e-06
-3.54614e-05
7.33769e-06
-3.6472e-05
6.63397e-06
-3.73679e-05
5.87473e-06
-3.81402e-05
5.06036e-06
-3.87801e-05
4.19223e-06
-3.9279e-05
3.27266e-06
-3.96289e-05
2.30546e-06
-3.98225e-05
1.29531e-06
-3.98534e-05
2.48786e-07
-3.97164e-05
-8.26883e-07
-3.94079e-05
-1.9223e-06
-3.89257e-05
-3.02791e-06
-3.82698e-05
-4.13191e-06
-3.74422e-05
-5.22314e-06
-3.64473e-05
-6.2883e-06
-3.52912e-05
-7.31591e-06
-3.39831e-05
-8.29258e-06
-3.25336e-05
-9.20819e-06
-3.09557e-05
-1.00509e-05
-2.92636e-05
-1.08138e-05
-2.74732e-05
-1.1488e-05
-2.56007e-05
-1.20712e-05
-2.36634e-05
-1.25584e-05
-2.16773e-05
-1.29518e-05
-1.96595e-05
-1.32496e-05
-1.76246e-05
-1.34564e-05
-1.55887e-05
-1.35694e-05
-1.35654e-05
-1.3589e-05
-1.15715e-05
-1.35014e-05
-9.62299e-06
-1.32897e-05
-7.74407e-06
-1.29124e-05
-5.96103e-06
-1.23184e-05
-4.3159e-06
-1.14274e-05
-2.85444e-06
-1.01616e-05
-1.64055e-06
-8.44751e-06
-7.29702e-07
-6.28636e-06
-1.78173e-07
-3.77753e-06
-1.17854e-06
-4.60035e-07
3.24233e-06
-1.51527e-06
7.68195e-06
-2.95383e-06
1.05765e-05
-4.6126e-06
1.23711e-05
-6.40353e-06
1.34116e-05
-8.25663e-06
1.39649e-05
-1.01421e-05
1.42098e-05
-1.20318e-05
1.42707e-05
-1.3918e-05
1.4218e-05
-1.5788e-05
1.40965e-05
-1.76398e-05
1.39251e-05
-1.94653e-05
1.37155e-05
-2.12626e-05
1.34686e-05
-2.30248e-05
1.31856e-05
-2.47486e-05
1.2863e-05
-2.64269e-05
1.24991e-05
-2.80552e-05
1.20897e-05
-2.96259e-05
1.16323e-05
-3.1133e-05
1.11229e-05
-3.25682e-05
1.05587e-05
-3.3924e-05
9.93639e-06
-3.51916e-05
9.25352e-06
-3.63622e-05
8.50774e-06
-3.74263e-05
7.69762e-06
-3.83744e-05
6.82236e-06
-3.91965e-05
5.88213e-06
-3.9883e-05
4.87835e-06
-4.0424e-05
3.81346e-06
-4.08106e-05
2.69176e-06
-4.10339e-05
1.5185e-06
-4.10865e-05
3.01312e-07
-4.0962e-05
-9.51437e-07
-4.06556e-05
-2.22867e-06
-4.01643e-05
-3.51909e-06
-3.94875e-05
-4.80859e-06
-3.86266e-05
-6.0838e-06
-3.7586e-05
-7.32864e-06
-3.63724e-05
-8.52919e-06
-3.49955e-05
-9.6691e-06
-3.34672e-05
-1.0736e-05
-3.18022e-05
-1.17155e-05
-3.00166e-05
-1.25989e-05
-2.81286e-05
-1.33755e-05
-2.61568e-05
-1.40424e-05
-2.41209e-05
-1.45937e-05
-2.20395e-05
-1.50326e-05
-1.99317e-05
-1.53568e-05
-1.78142e-05
-1.55731e-05
-1.57047e-05
-1.56783e-05
-1.36179e-05
-1.56749e-05
-1.15717e-05
-1.55473e-05
-9.58223e-06
-1.52782e-05
-7.67423e-06
-1.48202e-05
-5.87422e-06
-1.41173e-05
-4.22416e-06
-1.30775e-05
-2.76982e-06
-1.16147e-05
-1.5737e-06
-9.64409e-06
-6.88506e-07
-7.17006e-06
-1.63138e-07
-4.30381e-06
-1.34067e-06
-4.65819e-07
3.70741e-06
-1.5364e-06
8.75651e-06
-2.99638e-06
1.20345e-05
-4.68046e-06
1.40585e-05
-6.49908e-06
1.52292e-05
-8.38141e-06
1.58499e-05
-1.02973e-05
1.61252e-05
-1.22186e-05
1.61942e-05
-1.41376e-05
1.6137e-05
-1.60421e-05
1.60028e-05
-1.79301e-05
1.58133e-05
-1.97939e-05
1.55808e-05
-2.16319e-05
1.53069e-05
-2.34371e-05
1.49921e-05
-2.52066e-05
1.4633e-05
-2.69334e-05
1.4227e-05
-2.8613e-05
1.37698e-05
-3.02376e-05
1.32579e-05
-3.18011e-05
1.2687e-05
-3.32951e-05
1.20535e-05
-3.47119e-05
1.13536e-05
-3.60417e-05
1.05841e-05
-3.72757e-05
9.7421e-06
-3.84032e-05
8.82565e-06
-3.94141e-05
7.83353e-06
-4.0297e-05
6.76551e-06
-4.10414e-05
5.62293e-06
-4.16358e-05
4.40821e-06
-4.20699e-05
3.126e-06
-4.23333e-05
1.78208e-06
-4.2417e-05
3.85088e-07
-4.23129e-05
-1.05544e-06
-4.2015e-05
-2.52661e-06
-4.15189e-05
-4.01524e-06
-4.08229e-05
-5.50459e-06
-3.99281e-05
-6.97877e-06
-3.88385e-05
-8.41841e-06
-3.75612e-05
-9.80673e-06
-3.61068e-05
-1.11238e-05
-3.44886e-05
-1.23546e-05
-3.27232e-05
-1.34812e-05
-3.08293e-05
-1.44932e-05
-2.88277e-05
-1.53774e-05
-2.67402e-05
-1.61304e-05
-2.45896e-05
-1.67449e-05
-2.23974e-05
-1.72252e-05
-2.01858e-05
-1.7569e-05
-1.79738e-05
-1.77856e-05
-1.57811e-05
-1.78717e-05
-1.36239e-05
-1.78325e-05
-1.1521e-05
-1.76509e-05
-9.48944e-06
-1.731e-05
-7.5539e-06
-1.67566e-05
-5.74115e-06
-1.59301e-05
-4.09282e-06
-1.47268e-05
-2.65424e-06
-1.30531e-05
-1.48568e-06
-1.08138e-05
-6.35743e-07
-8.01935e-06
-1.44293e-07
-4.79676e-06
-1.48465e-06
-4.72481e-07
4.17746e-06
-1.55755e-06
9.84387e-06
-3.03717e-06
1.35104e-05
-4.74432e-06
1.57671e-05
-6.58828e-06
1.70702e-05
-8.49767e-06
1.77601e-05
-1.04421e-05
1.80673e-05
-1.23936e-05
1.81459e-05
-1.43446e-05
1.8086e-05
-1.62831e-05
1.79412e-05
-1.82077e-05
1.77362e-05
-2.01107e-05
1.74836e-05
-2.19909e-05
1.71856e-05
-2.38415e-05
1.68424e-05
-2.56599e-05
1.64502e-05
-2.74391e-05
1.60058e-05
-2.91746e-05
1.55043e-05
-3.08588e-05
1.49417e-05
-3.24855e-05
1.43128e-05
-3.40459e-05
1.36134e-05
-3.5532e-05
1.28389e-05
-3.69336e-05
1.19853e-05
-3.82411e-05
1.1049e-05
-3.9443e-05
1.00272e-05
-4.05281e-05
8.91816e-06
-4.14839e-05
7.72103e-06
-4.22982e-05
6.4369e-06
-4.29581e-05
5.06792e-06
-4.34514e-05
3.61902e-06
-4.37658e-05
2.09631e-06
-4.38902e-05
5.09428e-07
-4.38148e-05
-1.13093e-06
-4.35315e-05
-2.80994e-06
-4.30344e-05
-4.51233e-06
-4.23205e-05
-6.21842e-06
-4.13898e-05
-7.90935e-06
-4.02461e-05
-9.56192e-06
-3.88968e-05
-1.11559e-05
-3.73533e-05
-1.2667e-05
-3.56308e-05
-1.40768e-05
-3.37482e-05
-1.53635e-05
-3.1727e-05
-1.6514e-05
-2.95919e-05
-1.75122e-05
-2.73682e-05
-1.83537e-05
-2.50827e-05
-1.90299e-05
-2.2761e-05
-1.95465e-05
-2.04285e-05
-1.9901e-05
-1.81077e-05
-2.01059e-05
-1.58205e-05
-2.01585e-05
-1.3585e-05
-2.00675e-05
-1.1421e-05
-1.98145e-05
-9.34621e-06
-1.93842e-05
-7.38525e-06
-1.87174e-05
-5.56472e-06
-1.77499e-05
-3.92539e-06
-1.63662e-05
-2.51141e-06
-1.44661e-05
-1.37991e-06
-1.19457e-05
-5.74072e-07
-8.82402e-06
-1.23138e-07
-5.24844e-06
-1.60697e-06
-4.78051e-07
4.65482e-06
-1.57704e-06
1.0947e-05
-3.07585e-06
1.50072e-05
-4.80559e-06
1.75003e-05
-6.67465e-06
1.89382e-05
-8.6111e-06
1.96992e-05
-1.05845e-05
2.00402e-05
-1.25668e-05
2.01305e-05
-1.4551e-05
2.00701e-05
-1.65251e-05
1.99172e-05
-1.84881e-05
1.96994e-05
-2.04329e-05
1.94299e-05
-2.23582e-05
1.91114e-05
-2.4258e-05
1.87434e-05
-2.61295e-05
1.83221e-05
-2.79661e-05
1.78435e-05
-2.97635e-05
1.73021e-05
-3.1514e-05
1.66931e-05
-3.32114e-05
1.60107e-05
-3.48468e-05
1.52495e-05
-3.64117e-05
1.44042e-05
-3.78955e-05
1.34697e-05
-3.92878e-05
1.24417e-05
-4.05762e-05
1.13161e-05
-4.17484e-05
1.00906e-05
-4.27904e-05
8.76339e-06
-4.36882e-05
7.33502e-06
-4.44272e-05
5.80716e-06
-4.49927e-05
4.1848e-06
-4.53704e-05
2.47419e-06
-4.55467e-05
6.85885e-07
-4.55092e-05
-1.16831e-06
-4.52476e-05
-3.07151e-06
-4.47537e-05
-5.00619e-06
-4.40228e-05
-6.9493e-06
-4.30537e-05
-8.87857e-06
-4.18494e-05
-1.07663e-05
-4.04175e-05
-1.25879e-05
-3.87706e-05
-1.4314e-05
-3.69258e-05
-1.5922e-05
-3.49047e-05
-1.73847e-05
-3.27328e-05
-1.86863e-05
-3.04389e-05
-1.98063e-05
-2.80532e-05
-2.07398e-05
-2.56076e-05
-2.14758e-05
-2.31326e-05
-2.2022e-05
-2.06581e-05
-2.23759e-05
-1.82104e-05
-2.2554e-05
-1.58145e-05
-2.25548e-05
-1.34907e-05
-2.23916e-05
-1.12601e-05
-2.20457e-05
-9.14058e-06
-2.15039e-05
-7.15655e-06
-2.07019e-05
-5.33393e-06
-1.95727e-05
-3.71199e-06
-1.79888e-05
-2.33298e-06
-1.5845e-05
-1.24989e-06
-1.30296e-05
-4.99116e-07
-9.57433e-06
-9.75348e-08
-5.65113e-06
-1.70427e-06
-4.84832e-07
5.13705e-06
-1.59798e-06
1.20624e-05
-3.1159e-06
1.65212e-05
-4.86805e-06
1.92539e-05
-6.76201e-06
2.0829e-05
-8.72548e-06
2.16634e-05
-1.0728e-05
2.20402e-05
-1.27418e-05
2.21445e-05
-1.476e-05
2.20862e-05
-1.67711e-05
2.19283e-05
-1.87745e-05
2.1701e-05
-2.07633e-05
2.14185e-05
-2.2737e-05
2.10836e-05
-2.46894e-05
2.06955e-05
-2.66185e-05
2.025e-05
-2.85178e-05
1.97423e-05
-3.03832e-05
1.91665e-05
-3.22071e-05
1.85165e-05
-3.39832e-05
1.7786e-05
-3.57026e-05
1.69684e-05
-3.73564e-05
1.60573e-05
-3.89335e-05
1.50465e-05
-4.04228e-05
1.39304e-05
-4.1811e-05
1.27039e-05
-4.30841e-05
1.13633e-05
-4.42269e-05
9.90583e-06
-4.52234e-05
8.33113e-06
-4.60565e-05
6.64005e-06
-4.67093e-05
4.83735e-06
-4.71645e-05
2.92917e-06
-4.74055e-05
9.26803e-07
-4.74171e-05
-1.15692e-06
-4.71856e-05
-3.303e-06
-4.67005e-05
-5.49144e-06
-4.59543e-05
-7.69541e-06
-4.49442e-05
-9.88867e-06
-4.36723e-05
-1.20381e-05
-4.21461e-05
-1.41141e-05
-4.03791e-05
-1.60808e-05
-3.83908e-05
-1.79102e-05
-3.62064e-05
-1.95689e-05
-3.38557e-05
-2.10368e-05
-3.1373e-05
-2.22886e-05
-2.87948e-05
-2.33178e-05
-2.61592e-05
-2.41111e-05
-2.35029e-05
-2.46781e-05
-2.08617e-05
-2.50167e-05
-1.82667e-05
-2.51488e-05
-1.57468e-05
-2.50744e-05
-1.33246e-05
-2.48135e-05
-1.10224e-05
-2.43475e-05
-8.8585e-06
-2.36676e-05
-6.85606e-06
-2.27041e-05
-5.03968e-06
-2.13886e-05
-3.4462e-06
-1.95822e-05
-2.11499e-06
-1.71757e-05
-1.09367e-06
-1.40511e-05
-4.10456e-07
-1.02568e-05
-6.78375e-08
-5.99419e-06
-1.77152e-06
-4.90545e-07
5.62703e-06
-1.61785e-06
1.31941e-05
-3.15526e-06
1.80567e-05
-4.93035e-06
2.10326e-05
-6.85e-06
2.27477e-05
-8.84145e-06
2.36578e-05
-1.08743e-05
2.40728e-05
-1.2921e-05
2.41935e-05
-1.49749e-05
2.41402e-05
-1.70251e-05
2.39804e-05
-1.90713e-05
2.37475e-05
-2.11072e-05
2.3456e-05
-2.31325e-05
2.31093e-05
-2.51416e-05
2.2706e-05
-2.7133e-05
2.22418e-05
-2.91003e-05
2.17108e-05
-3.10399e-05
2.11065e-05
-3.29443e-05
2.04219e-05
-3.48075e-05
1.96496e-05
-3.66202e-05
1.87818e-05
-3.83735e-05
1.7811e-05
-4.00558e-05
1.67294e-05
-4.16552e-05
1.55302e-05
-4.31572e-05
1.42065e-05
-4.45468e-05
1.27533e-05
-4.58068e-05
1.11662e-05
-4.6919e-05
9.44364e-06
-4.78638e-05
7.58525e-06
-4.86213e-05
5.59514e-06
-4.91709e-05
3.47899e-06
-4.94925e-05
1.24858e-06
-4.95668e-05
-1.08245e-06
-4.93767e-05
-3.49296e-06
-4.89078e-05
-5.96031e-06
-4.81496e-05
-8.45346e-06
-4.70968e-05
-1.09415e-05
-4.57497e-05
-1.3385e-05
-4.41158e-05
-1.57482e-05
-4.22094e-05
-1.79871e-05
-4.00526e-05
-2.00672e-05
-3.76747e-05
-2.19468e-05
-3.51113e-05
-2.36005e-05
-3.24034e-05
-2.49966e-05
-2.95951e-05
-2.61264e-05
-2.67327e-05
-2.69735e-05
-2.38611e-05
-2.75501e-05
-2.10232e-05
-2.78546e-05
-1.82565e-05
-2.79159e-05
-1.55943e-05
-2.77366e-05
-1.30624e-05
-2.73458e-05
-1.06841e-05
-2.67259e-05
-8.4773e-06
-2.58748e-05
-6.46336e-06
-2.47182e-05
-4.66443e-06
-2.31879e-05
-3.11371e-06
-2.11331e-05
-1.8465e-06
-1.8443e-05
-9.03657e-07
-1.49943e-05
-3.03602e-07
-1.08567e-05
-3.21861e-08
-6.26622e-06
-1.80363e-06
-4.97411e-07
6.12157e-06
-1.63887e-06
1.43377e-05
-3.19552e-06
1.96091e-05
-4.99333e-06
2.28317e-05
-6.93849e-06
2.46894e-05
-8.9579e-06
2.56778e-05
-1.10213e-05
2.61334e-05
-1.31013e-05
2.62736e-05
-1.51918e-05
2.62284e-05
-1.72823e-05
2.60706e-05
-1.93729e-05
2.58362e-05
-2.14579e-05
2.55405e-05
-2.35377e-05
2.51874e-05
-2.56071e-05
2.47749e-05
-2.76649e-05
2.42982e-05
-2.97054e-05
2.37508e-05
-3.17254e-05
2.31253e-05
-3.37176e-05
2.24136e-05
-3.56762e-05
2.16073e-05
-3.75919e-05
2.06971e-05
-3.94559e-05
1.96742e-05
-4.12559e-05
1.8529e-05
-4.29795e-05
1.72532e-05
-4.46112e-05
1.58377e-05
-4.61344e-05
1.4276e-05
-4.753e-05
1.25614e-05
-4.87775e-05
1.06908e-05
-4.98544e-05
8.66186e-06
-5.07373e-05
6.47774e-06
-5.14017e-05
4.14307e-06
-5.1823e-05
1.6697e-06
-5.19775e-05
-9.28189e-07
-5.18431e-05
-3.62741e-06
-5.1401e-05
-6.40263e-06
-5.06364e-05
-9.21811e-06
-4.95404e-05
-1.20376e-05
-4.81112e-05
-1.48142e-05
-4.63551e-05
-1.75043e-05
-4.42875e-05
-2.00546e-05
-4.19333e-05
-2.24215e-05
-3.93265e-05
-2.45533e-05
-3.65098e-05
-2.64174e-05
-3.35326e-05
-2.79735e-05
-3.04491e-05
-2.92101e-05
-2.73157e-05
-3.01065e-05
-2.41878e-05
-3.06781e-05
-2.11178e-05
-3.09242e-05
-1.8151e-05
-3.08828e-05
-1.53265e-05
-3.05606e-05
-1.26736e-05
-2.99988e-05
-1.02162e-05
-2.91828e-05
-7.9712e-06
-2.81198e-05
-5.95674e-06
-2.67322e-05
-4.19097e-06
-2.49536e-05
-2.70185e-06
-2.26219e-05
-1.51903e-06
-1.96258e-05
-6.74949e-07
-1.58381e-05
-1.76479e-07
-1.1355e-05
9.7092e-09
-6.45238e-06
-1.79364e-06
-5.02748e-07
6.62401e-06
-1.65803e-06
1.54978e-05
-3.23403e-06
2.11835e-05
-5.05486e-06
2.46566e-05
-7.02609e-06
2.666e-05
-9.07416e-06
2.77291e-05
-1.1169e-05
2.82282e-05
-1.32834e-05
2.83906e-05
-1.54118e-05
2.83571e-05
-1.75439e-05
2.82051e-05
-1.96809e-05
2.79737e-05
-2.18173e-05
2.76788e-05
-2.39541e-05
2.73249e-05
-2.6087e-05
2.69093e-05
-2.82152e-05
2.64271e-05
-3.03337e-05
2.58706e-05
-3.24397e-05
2.5232e-05
-3.45266e-05
2.45016e-05
-3.65888e-05
2.36701e-05
-3.86173e-05
2.27265e-05
-4.06032e-05
2.16606e-05
-4.25341e-05
2.04606e-05
-4.43969e-05
1.91164e-05
-4.6175e-05
1.76165e-05
-4.78507e-05
1.59521e-05
-4.94026e-05
1.41138e-05
-5.08077e-05
1.20963e-05
-5.20403e-05
9.89489e-06
-5.30731e-05
7.51082e-06
-5.38767e-05
4.94705e-06
-5.44217e-05
2.21498e-06
-5.46784e-05
-6.71257e-07
-5.46189e-05
-3.68664e-06
-5.42183e-05
-6.80315e-06
-5.34562e-05
-9.97997e-06
-5.23191e-05
-1.31748e-05
-5.08013e-05
-1.63318e-05
-4.89077e-05
-1.9398e-05
-4.66539e-05
-2.23081e-05
-4.40681e-05
-2.50075e-05
-4.11899e-05
-2.74314e-05
-3.80705e-05
-2.95371e-05
-3.477e-05
-3.12738e-05
-3.13553e-05
-3.26252e-05
-2.78962e-05
-3.35653e-05
-2.44616e-05
-3.41132e-05
-2.1116e-05
-3.42696e-05
-1.7915e-05
-3.40843e-05
-1.49049e-05
-3.35705e-05
-1.21187e-05
-3.27855e-05
-9.58097e-06
-3.17202e-05
-7.3059e-06
-3.03956e-05
-5.30667e-06
-2.87311e-05
-3.59524e-06
-2.66657e-05
-2.19208e-06
-2.40247e-05
-1.11928e-06
-2.06991e-05
-3.98919e-07
-1.65583e-05
-2.43843e-08
-1.173e-05
5.9588e-08
-6.53632e-06
-1.73425e-06
-5.09161e-07
7.12991e-06
-1.67759e-06
1.6668e-05
-3.27183e-06
2.2773e-05
-5.11458e-06
2.65003e-05
-7.11082e-06
2.86524e-05
-9.18668e-06
2.98052e-05
-1.13123e-05
3.03506e-05
-1.34606e-05
3.05387e-05
-1.56266e-05
3.05205e-05
-1.78008e-05
3.03787e-05
-1.99846e-05
3.01553e-05
-2.21736e-05
2.9867e-05
-2.43693e-05
2.95188e-05
-2.65681e-05
2.91073e-05
-2.87701e-05
2.86275e-05
-3.09709e-05
2.80706e-05
-3.31685e-05
2.74282e-05
-3.53568e-05
2.66892e-05
-3.75309e-05
2.58431e-05
-3.96821e-05
2.48771e-05
-4.18018e-05
2.37793e-05
-4.38774e-05
2.25357e-05
-4.58955e-05
2.11338e-05
-4.78388e-05
1.95593e-05
-4.96878e-05
1.78005e-05
-5.14195e-05
1.5845e-05
-5.3008e-05
1.36843e-05
-5.4424e-05
1.13105e-05
-5.56356e-05
8.72211e-06
-5.66085e-05
5.91951e-06
-5.73066e-05
2.91282e-06
-5.76936e-05
-2.8465e-07
-5.77338e-05
-3.64653e-06
-5.7395e-05
-7.14235e-06
-5.66491e-05
-1.07259e-05
-5.54761e-05
-1.43481e-05
-5.38653e-05
-1.79426e-05
-5.18184e-05
-2.14452e-05
-4.93508e-05
-2.47756e-05
-4.64938e-05
-2.78648e-05
-4.32935e-05
-3.06313e-05
-3.98118e-05
-3.30191e-05
-3.61221e-05
-3.49631e-05
-3.23076e-05
-3.644e-05
-2.84555e-05
-3.74169e-05
-2.46523e-05
-3.79168e-05
-2.09783e-05
-3.79428e-05
-1.75026e-05
-3.75605e-05
-1.42802e-05
-3.67922e-05
-1.13488e-05
-3.57174e-05
-8.73253e-06
-3.43357e-05
-6.44105e-06
-3.26876e-05
-4.47975e-06
-3.06915e-05
-2.85128e-06
-2.82947e-05
-1.56566e-06
-2.53095e-05
-6.34846e-07
-2.16305e-05
-6.83449e-08
-1.71239e-05
1.55966e-07
-1.19549e-05
1.18209e-07
-6.49784e-06
-1.61613e-06
-5.13324e-07
7.64332e-06
-1.69394e-06
1.7854e-05
-3.30592e-06
2.43837e-05
-5.17029e-06
2.83692e-05
-7.19146e-06
3.06732e-05
-9.29513e-06
3.19126e-05
-1.14516e-05
3.25073e-05
-1.3634e-05
3.27242e-05
-1.58381e-05
3.27252e-05
-1.80546e-05
3.25979e-05
-2.02861e-05
3.23876e-05
-2.25285e-05
3.21117e-05
-2.47845e-05
3.17756e-05
-2.70511e-05
3.13758e-05
-2.93295e-05
3.09068e-05
-3.16161e-05
3.03588e-05
-3.39097e-05
2.97227e-05
-3.62054e-05
2.89861e-05
-3.84988e-05
2.81373e-05
-4.07821e-05
2.71614e-05
-4.3047e-05
2.60449e-05
-4.52813e-05
2.47709e-05
-4.74713e-05
2.33245e-05
-4.95992e-05
2.16879e-05
-5.16443e-05
1.98463e-05
-5.35816e-05
1.77828e-05
-5.53825e-05
1.54857e-05
-5.70138e-05
1.29422e-05
-5.84386e-05
1.01475e-05
-5.96166e-05
7.09781e-06
-6.05042e-05
3.80095e-06
-6.10569e-05
2.68268e-07
-6.12297e-05
-3.47337e-06
-6.09803e-05
-7.39161e-06
-6.0271e-05
-1.14348e-05
-5.90728e-05
-1.55462e-05
-5.73673e-05
-1.96477e-05
-5.51517e-05
-2.3661e-05
-5.24395e-05
-2.74874e-05
-4.92653e-05
-3.10392e-05
-4.56828e-05
-3.42135e-05
-4.17666e-05
-3.69357e-05
-3.7607e-05
-3.91222e-05
-3.33082e-05
-4.07394e-05
-2.89795e-05
-4.1745e-05
-2.47307e-05
-4.21664e-05
-2.06627e-05
-4.20102e-05
-1.68618e-05
-4.13622e-05
-1.33951e-05
-4.02582e-05
-1.03054e-05
-3.88081e-05
-7.61531e-06
-3.70249e-05
-5.3273e-06
-3.49767e-05
-3.43499e-06
-3.2583e-05
-1.92718e-06
-2.98037e-05
-7.99373e-07
-2.64364e-05
-5.01185e-08
-2.2381e-05
3.26253e-07
-1.74994e-05
3.69386e-07
-1.19993e-05
1.87206e-07
-6.31475e-06
-1.42953e-06
-5.18607e-07
8.15811e-06
-1.70992e-06
1.90466e-05
-3.33738e-06
2.60059e-05
-5.22107e-06
3.02533e-05
-7.26486e-06
3.27126e-05
-9.39417e-06
3.40417e-05
-1.15795e-05
3.46889e-05
-1.37942e-05
3.49383e-05
-1.60348e-05
3.49625e-05
-1.82925e-05
3.48546e-05
-2.05707e-05
3.46631e-05
-2.28663e-05
3.44061e-05
-2.51827e-05
3.40898e-05
-2.75181e-05
3.37101e-05
-2.98746e-05
3.32614e-05
-3.22498e-05
3.27329e-05
-3.46436e-05
3.2115e-05
-3.70521e-05
3.13936e-05
-3.94722e-05
3.05561e-05
-4.18969e-05
2.95852e-05
-4.43188e-05