/*--------------------------------*- C++ -*----------------------------------*\
| =========                 |                                                 |
| \\      /  F ield         | OpenFOAM: The Open Source CFD Toolbox           |
|  \\    /   O peration     | Version:  2406                                  |
|   \\  /    A nd           | Website:  www.openfoam.com                      |
|    \\/     M anipulation  |                                                 |
\*---------------------------------------------------------------------------*/
FoamFile
{
    version     2.0;
    format      ascii;
    arch        "LSB;label=32;scalar=64";
    class       volVectorField;
    location    "46.1";
    object      Uold;
}
// * * * * * * * * * * * * * * * * * * * * * * * * * * * * * * * * * * * * * //

dimensions      [0 1 -1 0 0 0 0];

internalField   nonuniform List<vector> 
3600
(
(-1.96257e-05 4.13885e-06 0)
(0.000493438 -0.00024347 0)
(0.00151738 -0.000376926 0)
(0.00267854 -0.000398242 0)
(0.0037751 -0.000321111 0)
(0.00455701 -0.000215494 0)
(0.00506478 -0.00011773 0)
(0.00527955 -5.73724e-05 0)
(0.00535287 -3.46401e-05 0)
(0.00531075 -3.85057e-05 0)
(0.00523252 -4.91148e-05 0)
(0.00506552 -4.86809e-05 0)
(0.00478101 -2.61166e-05 0)
(0.00427265 2.34569e-05 0)
(0.0034687 0.000100259 0)
(0.00226052 0.00020554 0)
(0.000568389 0.000341149 0)
(-0.00170609 0.000507529 0)
(-0.0046355 0.000695622 0)
(-0.00829255 0.000891663 0)
(-0.0127141 0.00108839 0)
(-0.0179019 0.00129421 0)
(-0.023788 0.00152197 0)
(-0.0302318 0.00176998 0)
(-0.0370052 0.00200773 0)
(-0.0438023 0.0021822 0)
(-0.0502525 0.00223424 0)
(-0.0559513 0.00211738 0)
(-0.060493 0.00180656 0)
(-0.0635031 0.00130125 0)
(-0.0646674 0.000621909 0)
(-0.0637522 -0.000192615 0)
(-0.0606274 -0.00108958 0)
(-0.0552777 -0.00200418 0)
(-0.0478238 -0.00286371 0)
(-0.0385232 -0.0035907 0)
(-0.0277847 -0.00411001 0)
(-0.0161451 -0.00435632 0)
(-0.00426123 -0.0042854 0)
(0.00715593 -0.00388443 0)
(0.0173811 -0.00318148 0)
(0.0257847 -0.00224915 0)
(0.0318806 -0.00119882 0)
(0.0354376 -0.000165701 0)
(0.0364717 0.000719156 0)
(0.035292 0.00135641 0)
(0.0323832 0.00170621 0)
(0.0283751 0.00179054 0)
(0.0238517 0.00168112 0)
(0.0193434 0.00146202 0)
(0.0151716 0.00120677 0)
(0.0115608 0.000958638 0)
(0.00853341 0.000743038 0)
(0.00610772 0.000564352 0)
(0.0041618 0.000428889 0)
(0.00265971 0.000322846 0)
(0.00146973 0.00024363 0)
(0.000608464 0.000146429 0)
(6.65042e-05 3.5617e-05 0)
(-9.16758e-05 -9.93684e-05 0)
(0.000195072 -0.000468018 0)
(0.00152444 -0.00157484 0)
(0.00369768 -0.00212627 0)
(0.00600831 -0.00216003 0)
(0.00813207 -0.00176132 0)
(0.00962985 -0.00118671 0)
(0.0105192 -0.000611955 0)
(0.0107376 -0.00015904 0)
(0.010476 0.000152622 0)
(0.00974576 0.000376657 0)
(0.00861361 0.000599664 0)
(0.0069425 0.000913852 0)
(0.00460342 0.00137636 0)
(0.00134878 0.00202056 0)
(-0.0030278 0.00284956 0)
(-0.00876998 0.00386047 0)
(-0.0160566 0.00503264 0)
(-0.0250441 0.00634034 0)
(-0.0357744 0.00774379 0)
(-0.0481602 0.00919151 0)
(-0.0619133 0.010592 0)
(-0.0765721 0.0118126 0)
(-0.0915247 0.0126925 0)
(-0.106094 0.0130846 0)
(-0.119602 0.0128771 0)
(-0.131442 0.0120111 0)
(-0.141103 0.010477 0)
(-0.148193 0.00831214 0)
(-0.152426 0.00558829 0)
(-0.15361 0.00240728 0)
(-0.151643 -0.00110894 0)
(-0.1465 -0.00481733 0)
(-0.138236 -0.00855873 0)
(-0.126992 -0.0121538 0)
(-0.113006 -0.0154092 0)
(-0.0966198 -0.0181182 0)
(-0.0783018 -0.0200774 0)
(-0.0586343 -0.0210998 0)
(-0.0383287 -0.0210457 0)
(-0.0181751 -0.019847 0)
(0.00096635 -0.0175392 0)
(0.0182674 -0.0142748 0)
(0.032955 -0.0103263 0)
(0.0444462 -0.00605951 0)
(0.0523437 -0.00188525 0)
(0.0565629 0.00180193 0)
(0.0572589 0.00469637 0)
(0.0549183 0.0066268 0)
(0.0501897 0.00758837 0)
(0.043924 0.00771527 0)
(0.0368978 0.00723884 0)
(0.0298678 0.00640369 0)
(0.0232873 0.00543022 0)
(0.0175162 0.00446141 0)
(0.0125875 0.00359967 0)
(0.00856746 0.00285267 0)
(0.00529127 0.0022248 0)
(0.0028025 0.00157797 0)
(0.00101238 0.000901483 0)
(9.01115e-05 9.6556e-05 0)
(0.000334109 -0.00144896 0)
(0.00217095 -0.00378621 0)
(0.00501232 -0.00487313 0)
(0.00784167 -0.00480173 0)
(0.0102818 -0.00384132 0)
(0.0117971 -0.00246758 0)
(0.0124061 -0.00106087 0)
(0.0120079 0.000155638 0)
(0.0107619 0.00113894 0)
(0.00860294 0.00201921 0)
(0.00549691 0.00298346 0)
(0.00117922 0.00423644 0)
(-0.00460945 0.00589976 0)
(-0.012232 0.00803979 0)
(-0.0219761 0.0106428 0)
(-0.0341035 0.0136632 0)
(-0.0486957 0.0169959 0)
(-0.0656268 0.0204827 0)
(-0.0844571 0.0238635 0)
(-0.104497 0.026811 0)
(-0.124884 0.028985 0)
(-0.144744 0.0301256 0)
(-0.163291 0.0300805 0)
(-0.179905 0.0288137 0)
(-0.194134 0.0263686 0)
(-0.20568 0.0228463 0)
(-0.214357 0.0183726 0)
(-0.220063 0.0130923 0)
(-0.222746 0.00715438 0)
(-0.222381 0.00071939 0)
(-0.218964 -0.00604511 0)
(-0.212503 -0.0129507 0)
(-0.203035 -0.0197884 0)
(-0.190624 -0.0263142 0)
(-0.1754 -0.0322542 0)
(-0.157561 -0.0373004 0)
(-0.137421 -0.0411328 0)
(-0.115407 -0.0434374 0)
(-0.0920953 -0.0439544 0)
(-0.0681807 -0.042516 0)
(-0.0444812 -0.0391056 0)
(-0.0218484 -0.0338824 0)
(-0.00114662 -0.0272017 0)
(0.0168834 -0.0195795 0)
(0.0316209 -0.011638 0)
(0.0426955 -0.00402161 0)
(0.0499117 0.00269052 0)
(0.0533733 0.00805002 0)
(0.053358 0.0117993 0)
(0.0504579 0.0138903 0)
(0.0453621 0.0144904 0)
(0.0389586 0.0139219 0)
(0.0319771 0.0125948 0)
(0.0251418 0.0108887 0)
(0.0187985 0.00912112 0)
(0.0132863 0.00744375 0)
(0.00856569 0.00592379 0)
(0.00481646 0.00438941 0)
(0.00192754 0.00275522 0)
(0.000283233 0.000801344 0)
(0.000428477 -0.00266787 0)
(0.0025705 -0.00634764 0)
(0.00568824 -0.00785192 0)
(0.00850264 -0.00741526 0)
(0.010623 -0.00561842 0)
(0.0114875 -0.00316669 0)
(0.0111427 -0.000646568 0)
(0.0094478 0.00166705 0)
(0.00647856 0.00374724 0)
(0.00202723 0.00584212 0)
(-0.00410952 0.00825238 0)
(-0.0123508 0.0112847 0)
(-0.0230616 0.0150847 0)
(-0.0366141 0.0196892 0)
(-0.0531662 0.0249767 0)
(-0.0726358 0.0307157 0)
(-0.0945397 0.0364951 0)
(-0.118066 0.0417934 0)
(-0.14218 0.0460616 0)
(-0.165867 0.048886 0)
(-0.188267 0.0500304 0)
(-0.208768 0.0494472 0)
(-0.226974 0.0472069 0)
(-0.242668 0.0434604 0)
(-0.255745 0.0383812 0)
(-0.266168 0.0321536 0)
(-0.273934 0.0249462 0)
(-0.279045 0.0169222 0)
(-0.2815 0.00823009 0)
(-0.281281 -0.000976414 0)
(-0.278355 -0.010539 0)
(-0.272672 -0.0202704 0)
(-0.264178 -0.0299516 0)
(-0.252824 -0.0393079 0)
(-0.23859 -0.0480122 0)
(-0.221506 -0.0556724 0)
(-0.201697 -0.0618569 0)
(-0.179401 -0.066112 0)
(-0.155026 -0.0680253 0)
(-0.129143 -0.0672794 0)
(-0.102519 -0.0637412 0)
(-0.0760402 -0.0575109 0)
(-0.050682 -0.0489683 0)
(-0.0273532 -0.0387348 0)
(-0.00685102 -0.0276068 0)
(0.0102902 -0.01643 0)
(0.0237265 -0.00599132 0)
(0.0333875 0.00306179 0)
(0.0393104 0.010266 0)
(0.0417846 0.0153621 0)
(0.0411854 0.0183221 0)
(0.0381807 0.0193459 0)
(0.0334284 0.018831 0)
(0.027768 0.0172706 0)
(0.0217568 0.0151617 0)
(0.0160196 0.0128582 0)
(0.010726 0.0105548 0)
(0.00627884 0.00814047 0)
(0.00263818 0.00541949 0)
(0.000439442 0.00198984 0)
(0.000493513 -0.00412955 0)
(0.00277369 -0.00919225 0)
(0.00584012 -0.0108969 0)
(0.00819822 -0.00973547 0)
(0.00945979 -0.00673577 0)
(0.00908371 -0.00284903 0)
(0.00714454 0.00114272 0)
(0.00345201 0.00498518 0)
(-0.00204917 0.00872607 0)
(-0.00974339 0.0127768 0)
(-0.0200102 0.0175402 0)
(-0.0333505 0.023365 0)
(-0.0500669 0.030305 0)
(-0.07024 0.0381952 0)
(-0.0934936 0.0465611 0)
(-0.119033 0.054736 0)
(-0.14572 0.0619332 0)
(-0.17238 0.0674994 0)
(-0.198006 0.0710026 0)
(-0.221888 0.0722887 0)
(-0.243592 0.071387 0)
(-0.262896 0.0684648 0)
(-0.279717 0.063736 0)
(-0.294051 0.0574422 0)
(-0.30594 0.0498036 0)
(-0.315439 0.0410274 0)
(-0.322608 0.0312842 0)
(-0.327493 0.0207305 0)
(-0.330124 0.00949783 0)
(-0.330501 -0.0022787 0)
(-0.328597 -0.0144632 0)
(-0.324344 -0.0268866 0)
(-0.317643 -0.039344 0)
(-0.308355 -0.0515602 0)
(-0.296331 -0.0631884 0)
(-0.281415 -0.0737856 0)
(-0.2635 -0.0828308 0)
(-0.242554 -0.0897337 0)
(-0.218709 -0.0939019 0)
(-0.192292 -0.0948044 0)
(-0.163907 -0.0920948 0)
(-0.134412 -0.0857019 0)
(-0.104913 -0.0759315 0)
(-0.076603 -0.0634633 0)
(-0.0506375 -0.0492902 0)
(-0.0278899 -0.034536 0)
(-0.00891725 -0.0202738 0)
(0.00613035 -0.00737129 0)
(0.017282 0.00354887 0)
(0.024778 0.0120979 0)
(0.0288508 0.0180962 0)
(0.0299571 0.021592 0)
(0.0285507 0.0228578 0)
(0.0253651 0.0223649 0)
(0.020967 0.0206694 0)
(0.0161186 0.0182829 0)
(0.011158 0.0155204 0)
(0.00670612 0.0123837 0)
(0.00286608 0.00855877 0)
(0.000486373 0.00345792 0)
(0.000547387 -0.00564889 0)
(0.00279242 -0.0118923 0)
(0.00542606 -0.0133907 0)
(0.0068364 -0.0110316 0)
(0.00667499 -0.00641387 0)
(0.0044736 -0.000722235 0)
(0.000304927 0.00512522 0)
(-0.00610123 0.010996 0)
(-0.014982 0.0170741 0)
(-0.0268824 0.0239319 0)
(-0.0422578 0.0319749 0)
(-0.0614507 0.0414099 0)
(-0.0843477 0.0519449 0)
(-0.110353 0.0629439 0)
(-0.138366 0.0734421 0)
(-0.167072 0.0824966 0)
(-0.195231 0.0893487 0)
(-0.221906 0.093609 0)
(-0.246493 0.0951664 0)
(-0.268667 0.0941481 0)
(-0.288298 0.0907812 0)
(-0.305376 0.0853637 0)
(-0.319969 0.0781829 0)
(-0.332187 0.0695228 0)
(-0.342169 0.0596196 0)
(-0.350057 0.048685 0)
(-0.355997 0.0368798 0)
(-0.360112 0.0243431 0)
(-0.362507 0.0111771 0)
(-0.363239 -0.00251999 0)
(-0.362331 -0.0166599 0)
(-0.359734 -0.0311258 0)
(-0.355347 -0.0457702 0)
(-0.348983 -0.0603709 0)
(-0.340395 -0.0746243 0)
(-0.329259 -0.0881031 0)
(-0.315229 -0.100262 0)
(-0.297949 -0.110422 0)
(-0.277163 -0.117827 0)
(-0.252773 -0.121696 0)
(-0.224987 -0.121363 0)
(-0.194379 -0.116411 0)
(-0.161976 -0.106849 0)
(-0.129165 -0.0932102 0)
(-0.0975708 -0.0765652 0)
(-0.0687086 -0.0583507 0)
(-0.0437397 -0.0400947 0)
(-0.0231923 -0.0230874 0)
(-0.00710553 -0.00822313 0)
(0.00487387 0.0040021 0)
(0.0131003 0.0133547 0)
(0.0180347 0.0198154 0)
(0.0200315 0.023537 0)
(0.0196873 0.0249001 0)
(0.0174786 0.0244065 0)
(0.014166 0.0226265 0)
(0.0101747 0.0199298 0)
(0.00626676 0.0164166 0)
(0.00270518 0.0116617 0)
(0.000454866 0.00492733 0)
(0.00057626 -0.00723764 0)
(0.00255751 -0.0142967 0)
(0.00433264 -0.0150556 0)
(0.0043107 -0.0109681 0)
(0.00221116 -0.0042865 0)
(-0.0023322 0.00362696 0)
(-0.00930798 0.0118097 0)
(-0.0190894 0.0203434 0)
(-0.0320893 0.0295564 0)
(-0.0488715 0.0400762 0)
(-0.0697063 0.0520813 0)
(-0.0944193 0.0653429 0)
(-0.122199 0.0789822 0)
(-0.151762 0.0918813 0)
(-0.181654 0.102878 0)
(-0.210604 0.111183 0)
(-0.237701 0.11637 0)
(-0.262386 0.118403 0)
(-0.284382 0.117438 0)
(-0.303595 0.11379 0)
(-0.320069 0.107804 0)
(-0.333927 0.0998543 0)
(-0.345363 0.0902772 0)
(-0.354601 0.0793904 0)
(-0.361891 0.0674447 0)
(-0.367473 0.0546553 0)
(-0.371582 0.0411695 0)
(-0.374414 0.0271037 0)
(-0.376139 0.0125229 0)
(-0.376871 -0.0025188 0)
(-0.376683 -0.0179905 0)
(-0.375571 -0.033841 0)
(-0.373472 -0.0500019 0)
(-0.370217 -0.0663379 0)
(-0.365549 -0.0826394 0)
(-0.359077 -0.0985663 0)
(-0.35031 -0.113638 0)
(-0.338644 -0.127189 0)
(-0.323444 -0.138391 0)
(-0.304115 -0.146273 0)
(-0.280269 -0.149839 0)
(-0.251872 -0.148212 0)
(-0.219454 -0.140867 0)
(-0.184175 -0.127848 0)
(-0.147846 -0.109949 0)
(-0.112631 -0.0886959 0)
(-0.0806674 -0.0661095 0)
(-0.0534679 -0.0442104 0)
(-0.031681 -0.024561 0)
(-0.0150564 -0.0080164 0)
(-0.00298961 0.00511436 0)
(0.00525983 0.0148673 0)
(0.0102078 0.0214046 0)
(0.0124553 0.0250756 0)
(0.0124308 0.0263052 0)
(0.0108388 0.0256511 0)
(0.00813246 0.023466 0)
(0.00512414 0.0198969 0)
(0.00220812 0.0144272 0)
(0.00035233 0.00622919 0)
(0.00055365 -0.00865284 0)
(0.00195405 -0.0158864 0)
(0.00237327 -0.0152441 0)
(0.000423919 -0.00887656 0)
(-0.00410127 0.000306156 0)
(-0.0114555 0.0108704 0)
(-0.0217565 0.0219181 0)
(-0.0354555 0.0337813 0)
(-0.0530322 0.0468267 0)
(-0.0747947 0.0614861 0)
(-0.10051 0.0774032 0)
(-0.12927 0.0937147 0)
(-0.159664 0.109031 0)
(-0.190123 0.122102 0)
(-0.21933 0.131972 0)
(-0.246336 0.138239 0)
(-0.27059 0.140836 0)
(-0.291801 0.140006 0)
(-0.309914 0.136098 0)
(-0.325005 0.129571 0)
(-0.337289 0.120867 0)
(-0.347042 0.110442 0)
(-0.354607 0.0986745 0)
(-0.360319 0.0859035 0)
(-0.364525 0.0723738 0)
(-0.367522 0.0582808 0)
(-0.369587 0.0437368 0)
(-0.370937 0.0288195 0)
(-0.371764 0.0135476 0)
(-0.372198 -0.0020724 0)
(-0.372345 -0.018066 0)
(-0.372244 -0.0344457 0)
(-0.371896 -0.0512234 0)
(-0.371206 -0.0683616 0)
(-0.37 -0.0857721 0)
(-0.367954 -0.103255 0)
(-0.364604 -0.12048 0)
(-0.359284 -0.136917 0)
(-0.351171 -0.151818 0)
(-0.339295 -0.164185 0)
(-0.322688 -0.172826 0)
(-0.300545 -0.176448 0)
(-0.272515 -0.173892 0)
(-0.238946 -0.164407 0)
(-0.20114 -0.148012 0)
(-0.161327 -0.125732 0)
(-0.122416 -0.099645 0)
(-0.0872786 -0.0724787 0)
(-0.0580064 -0.0469115 0)
(-0.0352809 -0.0247874 0)
(-0.0186296 -0.00690033 0)
(-0.00695497 0.00677652 0)
(0.000703378 0.0165504 0)
(0.00521049 0.0228888 0)
(0.0071192 0.0262211 0)
(0.00713353 0.0270877 0)
(0.00573719 0.0257903 0)
(0.0037331 0.0224699 0)
(0.00160544 0.0165521 0)
(0.000235679 0.00719438 0)
(0.000450194 -0.00976566 0)
(0.000894471 -0.0163448 0)
(-0.000533764 -0.0136051 0)
(-0.00482843 -0.00445562 0)
(-0.0121583 0.00763529 0)
(-0.0226667 0.0212949 0)
(-0.0366373 0.0357631 0)
(-0.0544817 0.0515384 0)
(-0.0765299 0.0687831 0)
(-0.102537 0.0874223 0)
(-0.131621 0.10639 0)
(-0.162264 0.124297 0)
(-0.192851 0.139604 0)
(-0.221935 0.1513 0)
(-0.248541 0.158832 0)
(-0.272035 0.162182 0)
(-0.292151 0.161574 0)
(-0.308818 0.157481 0)
(-0.32221 0.150421 0)
(-0.332602 0.140988 0)
(-0.340406 0.129713 0)
(-0.346039 0.117098 0)
(-0.349954 0.103528 0)
(-0.352536 0.0893218 0)
(-0.35415 0.074684 0)
(-0.355072 0.0597645 0)
(-0.355552 0.044626 0)
(-0.355762 0.0293038 0)
(-0.355864 0.0137765 0)
(-0.355961 -0.00198226 0)
(-0.356158 -0.018032 0)
(-0.356513 -0.0344209 0)
(-0.357082 -0.0512101 0)
(-0.357856 -0.0684298 0)
(-0.358789 -0.0860912 0)
(-0.359718 -0.104132 0)
(-0.360354 -0.122403 0)
(-0.360197 -0.140589 0)
(-0.358517 -0.158171 0)
(-0.354293 -0.174335 0)
(-0.346278 -0.187951 0)
(-0.33308 -0.197575 0)
(-0.313437 -0.201585 0)
(-0.286533 -0.198423 0)
(-0.252457 -0.187011 0)
(-0.212531 -0.167226 0)
(-0.169473 -0.140329 0)
(-0.126994 -0.10903 0)
(-0.0889415 -0.0769968 0)
(-0.0579906 -0.0476958 0)
(-0.0349148 -0.0233216 0)
(-0.0187621 -0.00442537 0)
(-0.00804477 0.00937573 0)
(-0.00134727 0.0188388 0)
(0.00227267 0.0245804 0)
(0.00367994 0.0272215 0)
(0.0034572 0.0270516 0)
(0.00239507 0.0241932 0)
(0.00103265 0.0180632 0)
(0.000130122 0.00785914 0)
(0.00022992 -0.0102114 0)
(-0.000702025 -0.0150907 0)
(-0.00443383 -0.00956987 0)
(-0.0114029 0.00278623 0)
(-0.0218056 0.0181457 0)
(-0.0356629 0.0353058 0)
(-0.0533934 0.0536277 0)
(-0.0751662 0.073557 0)
(-0.100938 0.0947598 0)
(-0.129767 0.116469 0)
(-0.160259 0.137012 0)
(-0.19062 0.154815 0)
(-0.219395 0.168547 0)
(-0.24542 0.177622 0)
(-0.268072 0.181891 0)
(-0.286988 0.181674 0)
(-0.302188 0.177464 0)
(-0.313853 0.169954 0)
(-0.322416 0.159823 0)
(-0.328347 0.14777 0)
(-0.33221 0.134364 0)
(-0.334489 0.120099 0)
(-0.335659 0.105311 0)
(-0.336066 0.0902548 0)
(-0.33602 0.0750626 0)
(-0.335714 0.059821 0)
(-0.335323 0.0445363 0)
(-0.334946 0.0292043 0)
(-0.334684 0.0137731 0)
(-0.334596 -0.00180146 0)
(-0.334762 -0.017593 0)
(-0.335234 -0.0336603 0)
(-0.336091 -0.0500815 0)
(-0.33738 -0.0669155 0)
(-0.339154 -0.0842271 0)
(-0.341399 -0.102045 0)
(-0.34404 -0.120364 0)
(-0.34684 -0.13908 0)
(-0.34937 -0.157951 0)
(-0.350878 -0.176486 0)
(-0.350266 -0.193869 0)
(-0.346038 -0.208854 0)
(-0.336433 -0.219757 0)
(-0.319662 -0.224555 0)
(-0.294385 -0.221196 0)
(-0.260275 -0.208119 0)
(-0.218625 -0.184962 0)
(-0.172595 -0.153193 0)
(-0.126873 -0.116344 0)
(-0.0863603 -0.0792452 0)
(-0.0544228 -0.0463825 0)
(-0.0316602 -0.020151 0)
(-0.016607 -0.000783424 0)
(-0.00718281 0.0127245 0)
(-0.00176665 0.0213894 0)
(0.000917249 0.0261097 0)
(0.0016922 0.0272928 0)
(0.00140281 0.0250925 0)
(0.00063987 0.0189824 0)
(6.98527e-05 0.00824387 0)
(-0.000121327 -0.00974644 0)
(-0.00280755 -0.0118112 0)
(-0.00916855 -0.00293493 0)
(-0.0189793 0.0129289 0)
(-0.03254 0.0318342 0)
(-0.0497012 0.0527798 0)
(-0.0709178 0.0751216 0)
(-0.0959013 0.0989677 0)
(-0.124128 0.123294 0)
(-0.154041 0.146688 0)
(-0.184032 0.16718 0)
(-0.212346 0.183357 0)
(-0.237861 0.194297 0)
(-0.259718 0.199863 0)
(-0.277642 0.200285 0)
(-0.291558 0.19621 0)
(-0.301815 0.188393 0)
(-0.30885 0.177723 0)
(-0.31332 0.164985 0)
(-0.315805 0.150909 0)
(-0.316922 0.136021 0)
(-0.317112 0.120741 0)
(-0.316785 0.105304 0)
(-0.316173 0.089877 0)
(-0.315488 0.0745073 0)
(-0.314815 0.0592211 0)
(-0.314248 0.0439804 0)
(-0.313807 0.0287561 0)
(-0.313546 0.0134833 0)
(-0.313474 -0.00188268 0)
(-0.313651 -0.0174109 0)
(-0.314107 -0.0331504 0)
(-0.314923 -0.049171 0)
(-0.316159 -0.0655276 0)
(-0.317916 -0.0822943 0)
(-0.320263 -0.0995315 0)
(-0.32327 -0.117306 0)
(-0.326919 -0.135649 0)
(-0.331093 -0.154533 0)
(-0.335434 -0.17379 0)
(-0.339279 -0.193018 0)
(-0.341499 -0.211425 0)
(-0.340471 -0.227704 0)
(-0.334094 -0.239931 0)
(-0.320089 -0.245652 0)
(-0.29651 -0.24221 0)
(-0.262555 -0.227435 0)
(-0.219385 -0.200607 0)
(-0.170671 -0.163474 0)
(-0.122163 -0.120608 0)
(-0.0799946 -0.0784074 0)
(-0.0480371 -0.0424029 0)
(-0.0264815 -0.0150723 0)
(-0.0130454 0.00412525 0)
(-0.00526175 0.016657 0)
(-0.00116414 0.0239582 0)
(0.000521165 0.0267786 0)
(0.000834704 0.0254407 0)
(0.000460093 0.0195591 0)
(5.71494e-05 0.00851517 0)
(-0.000612261 -0.00798453 0)
(-0.00536299 -0.00607993 0)
(-0.0145375 0.00659601 0)
(-0.0272047 0.0261511 0)
(-0.0438203 0.0487669 0)
(-0.0639772 0.0735693 0)
(-0.0880448 0.0997106 0)
(-0.115146 0.126724 0)
(-0.14434 0.152897 0)
(-0.173673 0.176403 0)
(-0.201626 0.195326 0)
(-0.226651 0.208635 0)
(-0.248019 0.215883 0)
(-0.265177 0.217372 0)
(-0.278231 0.213713 0)
(-0.287414 0.20587 0)
(-0.293388 0.194823 0)
(-0.296775 0.181579 0)
(-0.298348 0.166936 0)
(-0.298675 0.15156 0)
(-0.298315 0.135868 0)
(-0.297586 0.120157 0)
(-0.296778 0.104548 0)
(-0.295991 0.0891123 0)
(-0.295339 0.0738285 0)
(-0.294815 0.0586785 0)
(-0.294456 0.0435976 0)
(-0.294228 0.0285472 0)
(-0.294157 0.0134618 0)
(-0.294225 -0.00169532 0)
(-0.294474 -0.0169818 0)
(-0.294916 -0.0324314 0)
(-0.295625 -0.0480981 0)
(-0.296649 -0.064021 0)
(-0.298097 -0.0802618 0)
(-0.300055 -0.0968782 0)
(-0.302653 -0.113953 0)
(-0.305983 -0.131567 0)
(-0.310123 -0.149807 0)
(-0.315022 -0.168713 0)
(-0.320453 -0.188213 0)
(-0.325828 -0.207996 0)
(-0.330079 -0.227329 0)
(-0.33149 -0.244851 0)
(-0.327717 -0.258404 0)
(-0.316007 -0.265048 0)
(-0.293827 -0.261426 0)
(-0.259844 -0.244622 0)
(-0.215112 -0.213525 0)
(-0.163884 -0.170285 0)
(-0.113199 -0.120988 0)
(-0.070452 -0.0739402 0)
(-0.0397318 -0.0357711 0)
(-0.0202423 -0.00833902 0)
(-0.0089117 0.00971255 0)
(-0.00287262 0.0205405 0)
(-0.000161673 0.0255148 0)
(0.00066802 0.0253554 0)
(0.000492658 0.019934 0)
(9.31453e-05 0.00875878 0)
(-0.00120809 -0.0047389 0)
(-0.00817444 0.00217273 0)
(-0.0201447 0.0189034 0)
(-0.0354909 0.0421727 0)
(-0.0548396 0.0684753 0)
(-0.0774251 0.0969063 0)
(-0.103441 0.12623 0)
(-0.131414 0.155303 0)
(-0.160164 0.181893 0)
(-0.187586 0.204062 0)
(-0.21245 0.220207 0)
(-0.233485 0.229781 0)
(-0.25038 0.232832 0)
(-0.262905 0.230097 0)
(-0.271562 0.222558 0)
(-0.276848 0.211443 0)
(-0.279655 0.197861 0)
(-0.280654 0.182824 0)
(-0.280616 0.167041 0)
(-0.279984 0.151039 0)
(-0.279196 0.135085 0)
(-0.278406 0.119341 0)
(-0.277786 0.103823 0)
(-0.277322 0.0885325 0)
(-0.277057 0.0734014 0)
(-0.276924 0.0583915 0)
(-0.276933 0.0434311 0)
(-0.277023 0.0284859 0)
(-0.277213 0.0134993 0)
(-0.277468 -0.00155228 0)
(-0.277826 -0.0167118 0)
(-0.278285 -0.0319969 0)
(-0.278907 -0.0474436 0)
(-0.279723 -0.0630721 0)
(-0.280825 -0.0789233 0)
(-0.282285 -0.0950356 0)
(-0.284237 -0.111476 0)
(-0.286798 -0.128325 0)
(-0.290129 -0.145701 0)
(-0.294339 -0.163733 0)
(-0.29949 -0.182542 0)
(-0.305436 -0.202154 0)
(-0.31171 -0.22236 0)
(-0.317284 -0.24249 0)
(-0.320408 -0.26112 0)
(-0.318507 -0.275825 0)
(-0.308408 -0.283111 0)
(-0.287008 -0.278808 0)
(-0.252494 -0.259169 0)
(-0.205905 -0.222708 0)
(-0.152315 -0.172373 0)
(-0.100305 -0.116342 0)
(-0.0584863 -0.065379 0)
(-0.0304189 -0.0264983 0)
(-0.0138121 -0.00044232 0)
(-0.00486254 0.0154643 0)
(-0.000718622 0.0234719 0)
(0.00071282 0.0249904 0)
(0.000653676 0.0203129 0)
(0.000158996 0.0091173 0)
(-0.00187114 0.000201078 0)
(-0.0110632 0.0130398 0)
(-0.0256504 0.0339282 0)
(-0.043347 0.0608078 0)
(-0.0649262 0.0905903 0)
(-0.0891888 0.122145 0)
(-0.116132 0.153737 0)
(-0.143787 0.183587 0)
(-0.170948 0.209214 0)
(-0.195548 0.228832 0)
(-0.216753 0.241318 0)
(-0.233592 0.24664 0)
(-0.246191 0.245355 0)
(-0.254635 0.238616 0)
(-0.259774 0.227725 0)
(-0.262265 0.21406 0)
(-0.263097 0.19874 0)
(-0.262865 0.182667 0)
(-0.262237 0.166388 0)
(-0.261477 0.150254 0)
(-0.260885 0.134383 0)
(-0.260464 0.118822 0)
(-0.260304 0.103514 0)
(-0.260308 0.0884174 0)
(-0.260493 0.0734467 0)
(-0.260758 0.0585604 0)
(-0.261116 0.0436928 0)
(-0.261496 0.0288193 0)
(-0.261924 0.0138948 0)
(-0.262359 -0.00109304 0)
(-0.262844 -0.0161755 0)
(-0.263364 -0.0313596 0)
(-0.263976 -0.0466688 0)
(-0.26469 -0.0621107 0)
(-0.265579 -0.0777087 0)
(-0.266687 -0.0934819 0)
(-0.268118 -0.109471 0)
(-0.269967 -0.125733 0)
(-0.272392 -0.142363 0)
(-0.275549 -0.1595 0)
(-0.279628 -0.177325 0)
(-0.284745 -0.196041 0)
(-0.290874 -0.215775 0)
(-0.297627 -0.236425 0)
(-0.304033 -0.257354 0)
(-0.308271 -0.277041 0)
(-0.307534 -0.292697 0)
(-0.298234 -0.30015 0)
(-0.276741 -0.294292 0)
(-0.240891 -0.270472 0)
(-0.191947 -0.227086 0)
(-0.136221 -0.168479 0)
(-0.0841535 -0.106018 0)
(-0.0451807 -0.0528399 0)
(-0.0211401 -0.0154528 0)
(-0.00792517 0.00781297 0)
(-0.00161662 0.0202355 0)
(0.000718808 0.0242255 0)
(0.000842424 0.020699 0)
(0.000236906 0.00960984 0)
(-0.00252277 0.00678194 0)
(-0.0137544 0.0262428 0)
(-0.0306007 0.0512064 0)
(-0.0501733 0.0814138 0)
(-0.0733458 0.11424 0)
(-0.0984566 0.148163 0)
(-0.12535 0.180946 0)
(-0.151714 0.210321 0)
(-0.176499 0.23383 0)
(-0.197799 0.250024 0)
(-0.215217 0.258349 0)
(-0.228088 0.259295 0)
(-0.236964 0.25392 0)
(-0.242189 0.24373 0)
(-0.244863 0.230238 0)
(-0.245663 0.214834 0)
(-0.245559 0.198532 0)
(-0.244975 0.182043 0)
(-0.244437 0.165721 0)
(-0.244023 0.149746 0)
(-0.24392 0.134112 0)
(-0.244021 0.118789 0)
(-0.24437 0.10368 0)
(-0.244828 0.0887275 0)
(-0.245412 0.0738493 0)
(-0.24601 0.0590118 0)
(-0.246651 0.0441629 0)
(-0.24726 0.0292892 0)
(-0.247877 0.0143586 0)
(-0.24846 -0.000631994 0)
(-0.249058 -0.0157039 0)
(-0.249648 -0.0308569 0)
(-0.250286 -0.0461057 0)
(-0.250968 -0.0614505 0)
(-0.251753 -0.0769031 0)
(-0.252659 -0.0924701 0)
(-0.25376 -0.10817 0)
(-0.25511 -0.124034 0)
(-0.256829 -0.14012 0)
(-0.259044 -0.15653 0)
(-0.261955 -0.173425 0)
(-0.265773 -0.191044 0)
(-0.270707 -0.209665 0)
(-0.276813 -0.229541 0)
(-0.283795 -0.250659 0)
(-0.290701 -0.272412 0)
(-0.295586 -0.293075 0)
(-0.295362 -0.309357 0)
(-0.285968 -0.316205 0)
(-0.263335 -0.307385 0)
(-0.225119 -0.27742 0)
(-0.173308 -0.225018 0)
(-0.116007 -0.157238 0)
(-0.0658452 -0.0896113 0)
(-0.0319183 -0.037233 0)
(-0.0128356 -0.00352887 0)
(-0.0033509 0.0152303 0)
(0.000407515 0.0228455 0)
(0.000939149 0.0210562 0)
(0.000303934 0.0102587 0)
(-0.00310799 0.014916 0)
(-0.0160725 0.0415402 0)
(-0.0347179 0.0704021 0)
(-0.0556159 0.103565 0)
(-0.0796891 0.13887 0)
(-0.104846 0.174297 0)
(-0.130858 0.207193 0)
(-0.155233 0.234992 0)
(-0.177204 0.255498 0)
(-0.195087 0.267715 0)
(-0.208931 0.271701 0)
(-0.218358 0.268454 0)
(-0.224296 0.259485 0)
(-0.227248 0.246546 0)
(-0.228435 0.231225 0)
(-0.228442 0.214797 0)
(-0.228133 0.19809 0)
(-0.227726 0.181589 0)
(-0.22761 0.165467 0)
(-0.227706 0.149761 0)
(-0.228132 0.134389 0)
(-0.228712 0.119274 0)
(-0.229482 0.104312 0)
(-0.230289 0.0894475 0)
(-0.231163 0.0746116 0)
(-0.231997 0.0597825 0)
(-0.232835 0.0449227 0)
(-0.233605 0.0300281 0)
(-0.234361 0.0150769 0)
(-0.235057 7.1497e-05 0)
(-0.235751 -0.0150023 0)
(-0.236416 -0.0301417 0)
(-0.237108 -0.0453561 0)
(-0.237813 -0.0606445 0)
(-0.238584 -0.0760125 0)
(-0.23942 -0.0914627 0)
(-0.240375 -0.107 0)
(-0.241467 -0.12264 0)
(-0.242774 -0.138406 0)
(-0.244369 -0.154362 0)
(-0.246403 -0.170607 0)
(-0.249064 -0.187338 0)
(-0.252615 -0.204831 0)
(-0.257323 -0.223472 0)
(-0.263334 -0.243609 0)
(-0.270423 -0.265345 0)
(-0.2776 -0.288016 0)
(-0.28275 -0.309593 0)
(-0.282356 -0.32603 0)
(-0.271885 -0.331099 0)
(-0.246837 -0.31729 0)
(-0.205145 -0.278441 0)
(-0.15012 -0.214751 0)
(-0.0925661 -0.137639 0)
(-0.0470883 -0.0681465 0)
(-0.0201162 -0.0200251 0)
(-0.00630484 0.00756721 0)
(-0.000420004 0.020379 0)
(0.000864457 0.0211571 0)
(0.00034769 0.0109761 0)
(-0.00355027 0.0242728 0)
(-0.0177995 0.0583787 0)
(-0.0376908 0.0908298 0)
(-0.0593181 0.126438 0)
(-0.0836086 0.163525 0)
(-0.108113 0.199544 0)
(-0.132623 0.231567 0)
(-0.154602 0.256927 0)
(-0.173634 0.273862 0)
(-0.188281 0.281885 0)
(-0.199012 0.281672 0)
(-0.205692 0.274681 0)
(-0.209533 0.262792 0)
(-0.211087 0.247858 0)
(-0.211581 0.231417 0)
(-0.211431 0.214536 0)
(-0.211359 0.197818 0)
(-0.211389 0.181532 0)
(-0.211802 0.165703 0)
(-0.212411 0.15027 0)
(-0.213302 0.135111 0)
(-0.21427 0.120134 0)
(-0.215363 0.105246 0)
(-0.216424 0.0903998 0)
(-0.21751 0.0755471 0)
(-0.218512 0.0606759 0)
(-0.219493 0.0457628 0)
(-0.220381 0.0308103 0)
(-0.22124 0.0158063 0)
(-0.222024 0.00075634 0)
(-0.222792 -0.0143469 0)
(-0.223517 -0.0294996 0)
(-0.224255 -0.0447065 0)
(-0.224988 -0.0599677 0)
(-0.225768 -0.0752849 0)
(-0.226583 -0.0906626 0)
(-0.227479 -0.106099 0)
(-0.228451 -0.121604 0)
(-0.229547 -0.13718 0)
(-0.230794 -0.152865 0)
(-0.232284 -0.168699 0)
(-0.23414 -0.184821 0)
(-0.236578 -0.201425 0)
(-0.239889 -0.218881 0)
(-0.244401 -0.237641 0)
(-0.250342 -0.258211 0)
(-0.257499 -0.280734 0)
(-0.264819 -0.304444 0)
(-0.269827 -0.326763 0)
(-0.268546 -0.342561 0)
(-0.255792 -0.344082 0)
(-0.226963 -0.322334 0)
(-0.180685 -0.271257 0)
(-0.122802 -0.194148 0)
(-0.0674893 -0.109968 0)
(-0.0301002 -0.0435087 0)
(-0.0107365 -0.00365459 0)
(-0.00187885 0.0162879 0)
(0.000580847 0.0207702 0)
(0.000361331 0.0116931 0)
(-0.00382083 0.034521 0)
(-0.0188649 0.0763305 0)
(-0.0394358 0.112062 0)
(-0.0612208 0.149607 0)
(-0.0851177 0.187795 0)
(-0.108423 0.223587 0)
(-0.131022 0.253942 0)
(-0.150443 0.276262 0)
(-0.166637 0.289333 0)
(-0.178411 0.293195 0)
(-0.186601 0.289125 0)
(-0.19125 0.27896 0)
(-0.193748 0.264832 0)
(-0.194592 0.248561 0)
(-0.194935 0.231537 0)
(-0.194994 0.214566 0)
(-0.195354 0.19804 0)
(-0.19588 0.182035 0)
(-0.196785 0.166483 0)
(-0.197817 0.15126 0)
(-0.199065 0.136239 0)
(-0.200311 0.121328 0)
(-0.201629 0.106455 0)
(-0.202865 0.0915851 0)
(-0.204097 0.076687 0)
(-0.205218 0.0617558 0)
(-0.206305 0.0467801 0)
(-0.207284 0.0317651 0)
(-0.208226 0.0167068 0)
(-0.20908 0.00161165 0)
(-0.209913 -0.0135218 0)
(-0.210692 -0.0286908 0)
(-0.211476 -0.0438956 0)
(-0.212243 -0.0591399 0)
(-0.213048 -0.0744223 0)
(-0.213874 -0.0897534 0)
(-0.214763 -0.105127 0)
(-0.2157 -0.120561 0)
(-0.216718 -0.136042 0)
(-0.217813 -0.151599 0)
(-0.219031 -0.167231 0)
(-0.220427 -0.183022 0)
(-0.222139 -0.199074 0)
(-0.224393 -0.215668 0)
(-0.227517 -0.233197 0)
(-0.231918 -0.25229 0)
(-0.23785 -0.27353 0)
(-0.245121 -0.297126 0)
(-0.252405 -0.321988 0)
(-0.256844 -0.344683 0)
(-0.253673 -0.358524 0)
(-0.237281 -0.353737 0)
(-0.203077 -0.320122 0)
(-0.15165 -0.252875 0)
(-0.0923578 -0.162176 0)
(-0.043569 -0.0762845 0)
(-0.0166549 -0.0195718 0)
(-0.0040938 0.00989543 0)
(0.000106977 0.0195636 0)
(0.00034042 0.012297 0)
(-0.00388096 0.0451692 0)
(-0.0191777 0.0947293 0)
(-0.0398575 0.133371 0)
(-0.0612688 0.172289 0)
(-0.0842573 0.210894 0)
(-0.105974 0.245739 0)
(-0.126449 0.273829 0)
(-0.143348 0.292761 0)
(-0.156969 0.301931 0)
(-0.166344 0.301892 0)
(-0.172598 0.294466 0)
(-0.175877 0.281764 0)
(-0.177642 0.266046 0)
(-0.178268 0.248986 0)
(-0.178791 0.231768 0)
(-0.179235 0.214931 0)
(-0.180073 0.198683 0)
(-0.181058 0.182956 0)
(-0.182372 0.167629 0)
(-0.183731 0.152545 0)
(-0.185243 0.137595 0)
(-0.186691 0.122694 0)
(-0.188175 0.107793 0)
(-0.189543 0.0928649 0)
(-0.19089 0.0778955 0)
(-0.192109 0.0628829 0)
(-0.193286 0.0478258 0)
(-0.194344 0.0327305 0)
(-0.195357 0.0176007 0)
(-0.196273 0.00244297 0)
(-0.19716 -0.0127373 0)
(-0.197981 -0.0279387 0)
(-0.198798 -0.0431557 0)
(-0.199588 -0.0583957 0)
(-0.200406 -0.0736532 0)
(-0.201234 -0.0889459 0)
(-0.202118 -0.104266 0)
(-0.203038 -0.119639 0)
(-0.204024 -0.13505 0)
(-0.205058 -0.15053 0)
(-0.206161 -0.166056 0)
(-0.207339 -0.181685 0)
(-0.208658 -0.197436 0)
(-0.210251 -0.213499 0)
(-0.21236 -0.230132 0)
(-0.215388 -0.247907 0)
(-0.219766 -0.267529 0)
(-0.225841 -0.289782 0)
(-0.233222 -0.31475 0)
(-0.240325 -0.34079 0)
(-0.243462 -0.363079 0)
(-0.237229 -0.372675 0)
(-0.215413 -0.357582 0)
(-0.174554 -0.30688 0)
(-0.118243 -0.220445 0)
(-0.0613152 -0.11966 0)
(-0.0240967 -0.0419387 0)
(-0.00719958 0.000672207 0)
(-0.000563233 0.0171557 0)
(0.000294869 0.0127324 0)
(-0.00374394 0.0558058 0)
(-0.0187874 0.113142 0)
(-0.0390616 0.154413 0)
(-0.0596562 0.194239 0)
(-0.0813428 0.232711 0)
(-0.101234 0.266086 0)
(-0.119526 0.291545 0)
(-0.134066 0.30697 0)
(-0.145452 0.312388 0)
(-0.15291 0.308826 0)
(-0.157769 0.298579 0)
(-0.160206 0.283921 0)
(-0.161665 0.267129 0)
(-0.162368 0.249653 0)
(-0.163219 0.232459 0)
(-0.164082 0.215834 0)
(-0.165352 0.19985 0)
(-0.166708 0.184335 0)
(-0.16833 0.169152 0)
(-0.169925 0.154133 0)
(-0.171623 0.139194 0)
(-0.173213 0.124259 0)
(-0.174817 0.109301 0)
(-0.176286 0.094298 0)
(-0.177725 0.0792479 0)
(-0.179028 0.0641487 0)
(-0.180284 0.0490081 0)
(-0.181413 0.0338311 0)
(-0.182494 0.0186292 0)
(-0.18347 0.003407 0)
(-0.18441 -0.0118228 0)
(-0.185275 -0.0270613 0)
(-0.186129 -0.0422966 0)
(-0.186944 -0.0575408 0)
(-0.18778 -0.0727828 0)
(-0.188617 -0.088049 0)
(-0.189502 -0.103327 0)
(-0.190417 -0.118656 0)
(-0.191393 -0.134017 0)
(-0.192409 -0.149455 0)
(-0.193475 -0.164934 0)
(-0.194574 -0.180508 0)
(-0.195722 -0.196142 0)
(-0.196976 -0.211958 0)
(-0.198468 -0.228069 0)
(-0.200506 -0.244912 0)
(-0.203502 -0.263095 0)
(-0.208036 -0.283613 0)