/*--------------------------------*- C++ -*----------------------------------*\
| =========                 |                                                 |
| \\      /  F ield         | OpenFOAM: The Open Source CFD Toolbox           |
|  \\    /   O peration     | Version:  2406                                  |
|   \\  /    A nd           | Website:  www.openfoam.com                      |
|    \\/     M anipulation  |                                                 |
\*---------------------------------------------------------------------------*/
FoamFile
{
    version     2.0;
    format      ascii;
    arch        "LSB;label=32;scalar=64";
    class       volVectorField;
    location    "16.2";
    object      U_0;
}
// * * * * * * * * * * * * * * * * * * * * * * * * * * * * * * * * * * * * * //

dimensions      [0 1 -1 0 0 0 0];

internalField   nonuniform List<vector> 
14400
(
(3.20825e-06 -3.19101e-06 0)
(1.79967e-05 -4.66746e-06 0)
(3.43174e-05 -4.45363e-06 0)
(4.69604e-05 -2.86546e-06 0)
(5.15917e-05 -8.89999e-07 0)
(4.74768e-05 1.26379e-06 0)
(3.50392e-05 3.21899e-06 0)
(1.51712e-05 4.85368e-06 0)
(-1.09254e-05 6.17194e-06 0)
(-4.20701e-05 7.21067e-06 0)
(-7.72572e-05 8.02707e-06 0)
(-0.000115712 8.68525e-06 0)
(-0.000156903 9.24609e-06 0)
(-0.000200525 9.76225e-06 0)
(-0.000246466 1.02759e-05 0)
(-0.000294763 1.08185e-05 0)
(-0.000345563 1.14113e-05 0)
(-0.000399086 1.20673e-05 0)
(-0.000455595 1.27928e-05 0)
(-0.000515371 1.35894e-05 0)
(-0.000578698 1.44553e-05 0)
(-0.00064585 1.53874e-05 0)
(-0.000717088 1.63816e-05 0)
(-0.000792657 1.7434e-05 0)
(-0.000872789 1.85412e-05 0)
(-0.000957699 1.97002e-05 0)
(-0.00104759 2.0909e-05 0)
(-0.00114267 2.21659e-05 0)
(-0.00124311 2.34695e-05 0)
(-0.00134911 2.48182e-05 0)
(-0.00146083 2.62102e-05 0)
(-0.00157844 2.7643e-05 0)
(-0.00170207 2.91127e-05 0)
(-0.00183186 3.06142e-05 0)
(-0.00196789 3.21405e-05 0)
(-0.00211024 3.36827e-05 0)
(-0.0022589 3.52291e-05 0)
(-0.00241385 3.67656e-05 0)
(-0.00257495 3.8275e-05 0)
(-0.00274202 3.97367e-05 0)
(-0.00291476 4.11266e-05 0)
(-0.00309277 4.24171e-05 0)
(-0.00327552 4.35765e-05 0)
(-0.00346234 4.45694e-05 0)
(-0.00365238 4.53568e-05 0)
(-0.00384466 4.5896e-05 0)
(-0.004038 4.61411e-05 0)
(-0.004231 4.60438e-05 0)
(-0.00442211 4.55537e-05 0)
(-0.00460954 4.462e-05 0)
(-0.0047913 4.31918e-05 0)
(-0.00496523 4.12203e-05 0)
(-0.00512897 3.86597e-05 0)
(-0.00528 3.54697e-05 0)
(-0.00541568 3.16168e-05 0)
(-0.00553325 2.70775e-05 0)
(-0.00562993 2.18371e-05 0)
(-0.00570291 1.58898e-05 0)
(-0.00574953 9.29448e-06 0)
(-0.00576703 2.14527e-06 0)
(-0.00575299 -5.73825e-06 0)
(-0.00570542 -1.41581e-05 0)
(-0.00562242 -2.29859e-05 0)
(-0.00550259 -3.2133e-05 0)
(-0.00534505 -4.14739e-05 0)
(-0.00514944 -5.08633e-05 0)
(-0.00491601 -6.01425e-05 0)
(-0.00464568 -6.9142e-05 0)
(-0.00434002 -7.76862e-05 0)
(-0.0040013 -8.5598e-05 0)
(-0.00363247 -9.27048e-05 0)
(-0.00323709 -9.88442e-05 0)
(-0.00281935 -0.00010387 0)
(-0.00238393 -0.000107657 0)
(-0.00193593 -0.000110108 0)
(-0.00148078 -0.000111156 0)
(-0.00102408 -0.00011077 0)
(-0.000571505 -0.000108955 0)
(-0.000128622 -0.000105751 0)
(0.000299209 -0.000101236 0)
(0.00070698 -9.55203e-05 0)
(0.00109016 -8.87445e-05 0)
(0.00144478 -8.10717e-05 0)
(0.00176754 -7.26833e-05 0)
(0.00205584 -6.37711e-05 0)
(0.00230786 -5.45307e-05 0)
(0.00252249 -4.51545e-05 0)
(0.0026994 -3.5825e-05 0)
(0.00283893 -2.67091e-05 0)
(0.00294208 -1.79533e-05 0)
(0.00301038 -9.67427e-06 0)
(0.00304592 -1.98593e-06 0)
(0.00305108 4.91865e-06 0)
(0.00302833 1.10109e-05 0)
(0.00298063 1.65305e-05 0)
(0.00291109 2.13509e-05 0)
(0.00282256 2.54194e-05 0)
(0.0027179 2.8777e-05 0)
(0.00259987 3.14747e-05 0)
(0.00247104 3.35688e-05 0)
(0.00233376 3.51228e-05 0)
(0.00219013 3.62041e-05 0)
(0.00204199 3.68813e-05 0)
(0.00189094 3.72219e-05 0)
(0.00173828 3.72901e-05 0)
(0.00158509 3.7144e-05 0)
(0.00143226 3.6833e-05 0)
(0.00128046 3.63944e-05 0)
(0.0011303 3.58491e-05 0)
(0.000982324 3.51965e-05 0)
(0.00083715 3.44066e-05 0)
(0.000695595 3.34115e-05 0)
(0.000558843 3.20933e-05 0)
(0.000428648 3.02708e-05 0)
(0.000307588 2.76852e-05 0)
(0.000199314 2.40059e-05 0)
(0.000108726 1.88486e-05 0)
(4.15951e-05 1.19938e-05 0)
(3.96091e-06 3.62579e-06 0)
(-2.80423e-06 -2.80629e-06 0)
(4.78234e-06 -1.80679e-05 0)
(3.07232e-05 -3.04045e-05 0)
(5.38485e-05 -2.62244e-05 0)
(6.51934e-05 -1.24633e-05 0)
(5.67703e-05 5.26504e-06 0)
(2.68013e-05 2.36259e-05 0)
(-2.42436e-05 4.06083e-05 0)
(-9.43121e-05 5.5322e-05 0)
(-0.000180793 6.7565e-05 0)
(-0.000281032 7.75337e-05 0)
(-0.000392674 8.56341e-05 0)
(-0.000513837 9.23536e-05 0)
(-0.000643177 9.81783e-05 0)
(-0.000779863 0.000103544 0)
(-0.00092352 0.000108809 0)
(-0.00107414 0.00011425 0)
(-0.001232 0.000120061 0)
(-0.00139755 0.000126368 0)
(-0.00157139 0.000133236 0)
(-0.00175416 0.000140692 0)
(-0.00194652 0.000148731 0)
(-0.00214914 0.000157332 0)
(-0.00236263 0.000166465 0)
(-0.00258761 0.000176097 0)
(-0.00282463 0.0001862 0)
(-0.00307422 0.000196747 0)
(-0.00333689 0.000207715 0)
(-0.00361311 0.000219086 0)
(-0.00390332 0.000230842 0)
(-0.00420797 0.000242962 0)
(-0.00452742 0.000255421 0)
(-0.00486204 0.000268187 0)
(-0.00521211 0.000281216 0)
(-0.00557786 0.000294452 0)
(-0.00595944 0.000307817 0)
(-0.00635684 0.000321219 0)
(-0.00676996 0.000334539 0)
(-0.00719851 0.000347634 0)
(-0.00764198 0.000360334 0)
(-0.00809965 0.000372441 0)
(-0.00857051 0.000383722 0)
(-0.00905323 0.000393919 0)
(-0.00954618 0.000402736 0)
(-0.0100473 0.000409851 0)
(-0.0105541 0.000414912 0)
(-0.0110638 0.000417539 0)
(-0.0115729 0.000417334 0)
(-0.0120776 0.000413884 0)
(-0.0125737 0.000406768 0)
(-0.0130564 0.000395568 0)
(-0.0135203 0.000379879 0)
(-0.0139598 0.000359324 0)
(-0.014369 0.000333567 0)
(-0.0147414 0.000302324 0)
(-0.0150705 0.000265387 0)
(-0.0153496 0.000222633 0)
(-0.0155721 0.000174042 0)
(-0.0157312 0.000119712 0)
(-0.0158208 5.98917e-05 0)
(-0.0158349 -4.99958e-06 0)
(-0.0157684 -7.46042e-05 0)
(-0.0156164 -0.000148183 0)
(-0.0153755 -0.000224903 0)
(-0.0150429 -0.00030381 0)
(-0.0146172 -0.000383816 0)
(-0.0140983 -0.00046372 0)
(-0.0134875 -0.00054223 0)
(-0.0127874 -0.000617992 0)
(-0.0120022 -0.000689622 0)
(-0.0111378 -0.000755745 0)
(-0.0102012 -0.000815031 0)
(-0.00920105 -0.000866239 0)
(-0.00814712 -0.000908258 0)
(-0.00705031 -0.000940144 0)
(-0.00592244 -0.000961157 0)
(-0.00477597 -0.00097079 0)
(-0.0036238 -0.000968791 0)
(-0.00247896 -0.000955179 0)
(-0.00135435 -0.000930245 0)
(-0.00026246 -0.00089455 0)
(0.000784934 -0.000848903 0)
(0.001777 -0.000794342 0)
(0.00270407 -0.000732092 0)
(0.00355785 -0.000663529 0)
(0.00433158 -0.000590128 0)
(0.00502009 -0.000513415 0)
(0.00561989 -0.000434916 0)
(0.00612914 -0.000356108 0)
(0.00654761 -0.000278377 0)
(0.0068766 -0.000202981 0)
(0.00711875 -0.000131019 0)
(0.00727789 -6.34258e-05 0)
(0.00735884 -1.0085e-06 0)
(0.00736745 5.576e-05 0)
(0.00730994 0.000106788 0)
(0.0071928 0.000151772 0)
(0.0070229 0.000190686 0)
(0.00680706 0.000223701 0)
(0.00655193 0.000251106 0)
(0.00626384 0.000273287 0)
(0.00594871 0.000290705 0)
(0.00561197 0.000303865 0)
(0.00525849 0.000313301 0)
(0.00489257 0.000319545 0)
(0.00451794 0.000323109 0)
(0.00413778 0.000324457 0)
(0.00375483 0.000323981 0)
(0.00337141 0.00032197 0)
(0.00298963 0.000318571 0)
(0.00261154 0.000313752 0)
(0.00223937 0.00030724 0)
(0.00187581 0.000298464 0)
(0.00152439 0.000286481 0)
(0.00118981 0.000269913 0)
(0.000878444 0.000246911 0)
(0.000598596 0.000215264 0)
(0.000360599 0.000172801 0)
(0.000175329 0.000118568 0)
(5.60447e-05 5.53932e-05 0)
(3.75559e-06 4.08503e-06 0)
(4.60549e-06 -3.47065e-05 0)
(2.62654e-05 -5.34608e-05 0)
(3.6774e-05 -3.74763e-05 0)
(2.62259e-05 -2.33367e-06 0)
(-1.39683e-05 4.1152e-05 0)
(-8.56935e-05 8.57985e-05 0)
(-0.00018817 0.000127478 0)
(-0.000318735 0.000164161 0)
(-0.000473923 0.000195262 0)
(-0.000650161 0.000221115 0)
(-0.000844223 0.000242567 0)
(-0.00105348 0.000260692 0)
(-0.00127601 0.00027659 0)
(-0.00151056 0.000291273 0)
(-0.00175652 0.00030559 0)
(-0.0020138 0.000320208 0)
(-0.00228267 0.000335608 0)
(-0.00256373 0.000352107 0)
(-0.00285773 0.000369888 0)
(-0.00316553 0.00038903 0)
(-0.00348803 0.000409542 0)
(-0.00382615 0.000431384 0)
(-0.00418077 0.000454495 0)
(-0.00455272 0.000478805 0)
(-0.0049428 0.000504247 0)
(-0.00535179 0.000530756 0)
(-0.00578039 0.000558277 0)
(-0.00622928 0.000586759 0)
(-0.00669912 0.000616149 0)
(-0.0071905 0.000646387 0)
(-0.00770395 0.000677399 0)
(-0.00823996 0.000709089 0)
(-0.0087989 0.000741328 0)
(-0.00938101 0.000773952 0)
(-0.00998641 0.000806749 0)
(-0.010615 0.000839454 0)
(-0.0112664 0.000871745 0)
(-0.0119401 0.000903235 0)
(-0.0126351 0.000933465 0)
(-0.01335 0.000961908 0)
(-0.0140831 0.000987958 0)
(-0.0148321 0.00101094 0)
(-0.0155942 0.00103009 0)
(-0.016366 0.0010446 0)
(-0.0171436 0.00105359 0)
(-0.0179223 0.00105611 0)
(-0.0186966 0.00105121 0)
(-0.0194607 0.00103788 0)
(-0.0202078 0.00101514 0)
(-0.0209306 0.000982023 0)
(-0.0216211 0.000937626 0)
(-0.022271 0.000881123 0)
(-0.0228713 0.000811813 0)
(-0.0234127 0.000729144 0)
(-0.0238859 0.000632756 0)
(-0.0242813 0.000522509 0)
(-0.0245897 0.000398521 0)
(-0.024802 0.000261189 0)
(-0.0249096 0.000111203 0)
(-0.0249049 -5.04376e-05 0)
(-0.0247808 -0.000222282 0)
(-0.0245316 -0.000402722 0)
(-0.0241529 -0.000589758 0)
(-0.0236416 -0.000781082 0)
(-0.0229965 -0.000974125 0)
(-0.022218 -0.00116609 0)
(-0.0213085 -0.00135402 0)
(-0.0202721 -0.00153484 0)
(-0.0191151 -0.00170544 0)
(-0.0178456 -0.00186275 0)
(-0.0164738 -0.00200382 0)
(-0.0150114 -0.0021259 0)
(-0.0134718 -0.00222656 0)
(-0.0118698 -0.00230369 0)
(-0.0102216 -0.00235567 0)
(-0.00854392 -0.00238134 0)
(-0.00685429 -0.00238011 0)
(-0.00517046 -0.00235196 0)
(-0.00351007 -0.00229746 0)
(-0.00189032 -0.00221776 0)
(-0.000327636 -0.00211457 0)
(0.0011627 -0.0019901 0)
(0.0025668 -0.00184699 0)
(0.00387248 -0.00168823 0)
(0.00506945 -0.00151708 0)
(0.00614946 -0.00133694 0)
(0.00710646 -0.00115126 0)
(0.00793659 -0.000963444 0)
(0.00863816 -0.00077672 0)
(0.00921159 -0.000594083 0)
(0.00965924 -0.000418207 0)
(0.00998525 -0.000251385 0)
(0.0101953 -9.54395e-05 0)
(0.0102965 4.82291e-05 0)
(0.0102968 0.000178436 0)
(0.0102046 0.000294711 0)
(0.0100294 0.000396895 0)
(0.00978051 0.000485159 0)
(0.00946718 0.000559987 0)
(0.00909851 0.000622123 0)
(0.00868313 0.00067251 0)
(0.00822911 0.000712233 0)
(0.00774385 0.000742459 0)
(0.00723401 0.000764379 0)
(0.00670553 0.000779148 0)
(0.00616364 0.000787818 0)
(0.00561292 0.000791279 0)
(0.0050575 0.000790177 0)
(0.00450115 0.000784831 0)
(0.00394761 0.000775136 0)
(0.00340084 0.000760448 0)
(0.0028654 0.000739467 0)
(0.00234689 0.000710116 0)
(0.00185236 0.000669466 0)
(0.00139076 0.000613755 0)
(0.000973188 0.000538726 0)
(0.000612799 0.000440513 0)
(0.000322422 0.000317765 0)
(0.000121751 0.000175654 0)
(1.24818e-05 4.27106e-05 0)
(2.82077e-06 -4.71844e-05 0)
(9.98214e-06 -6.2897e-05 0)
(-5.26009e-06 -2.51089e-05 0)
(-5.26507e-05 4.15812e-05 0)
(-0.000139237 0.000120826 0)
(-0.000266209 0.000201517 0)
(-0.000431963 0.000276999 0)
(-0.000633106 0.000343932 0)
(-0.000865465 0.000401304 0)
(-0.0011248 0.000449617 0)
(-0.00140729 0.000490259 0)
(-0.00170981 0.000525023 0)
(-0.00203004 0.000555785 0)
(-0.00236647 0.000584283 0)
(-0.00271829 0.000611997 0)
(-0.00308532 0.000640099 0)
(-0.00346783 0.00066945 0)
(-0.00386645 0.000700628 0)
(-0.00428204 0.000733976 0)
(-0.00471556 0.000769658 0)
(-0.00516806 0.00080771 0)
(-0.00564061 0.000848083 0)
(-0.00613425 0.000890687 0)
(-0.00664998 0.000935411 0)
(-0.00718879 0.000982145 0)
(-0.00775161 0.00103078 0)
(-0.00833933 0.00108123 0)
(-0.00895283 0.0011334 0)
(-0.00959292 0.00118718 0)
(-0.0102603 0.00124246 0)
(-0.0109558 0.0012991 0)
(-0.0116799 0.00135688 0)
(-0.0124331 0.00141557 0)
(-0.0132156 0.00147481 0)
(-0.0140275 0.0015342 0)
(-0.0148687 0.00159321 0)
(-0.0157386 0.00165119 0)
(-0.0166361 0.0017074 0)
(-0.0175601 0.00176094 0)
(-0.0185084 0.0018108 0)
(-0.0194786 0.00185583 0)
(-0.0204676 0.00189475 0)
(-0.0214714 0.00192614 0)
(-0.0224854 0.00194848 0)
(-0.0235042 0.00196016 0)
(-0.0245215 0.00195949 0)
(-0.0255302 0.00194472 0)
(-0.0265223 0.00191411 0)
(-0.0274893 0.00186594 0)
(-0.0284215 0.00179857 0)
(-0.0293089 0.00171048 0)
(-0.0301407 0.00160035 0)
(-0.0309059 0.00146709 0)
(-0.0315929 0.0013099 0)
(-0.0321904 0.00112835 0)
(-0.0326867 0.000922402 0)
(-0.0330708 0.00069248 0)
(-0.033332 0.000439502 0)
(-0.0334603 0.000164901 0)
(-0.0334466 -0.000129356 0)
(-0.0332833 -0.000440729 0)
(-0.0329639 -0.000766154 0)
(-0.0324835 -0.00110207 0)
(-0.031839 -0.00144442 0)
(-0.0310293 -0.00178878 0)
(-0.0300553 -0.00213033 0)
(-0.0289201 -0.00246405 0)
(-0.0276287 -0.00278473 0)
(-0.0261888 -0.00308715 0)
(-0.0246099 -0.00336617 0)
(-0.0229039 -0.00361687 0)
(-0.0210844 -0.00383467 0)
(-0.019167 -0.00401546 0)
(-0.0171691 -0.00415575 0)
(-0.0151092 -0.00425274 0)
(-0.0130071 -0.00430444 0)
(-0.0108832 -0.00430975 0)
(-0.00875851 -0.00426851 0)
(-0.00665398 -0.00418151 0)
(-0.00459023 -0.0040505 0)
(-0.00258716 -0.00387815 0)
(-0.000663572 -0.00366797 0)
(0.00116318 -0.00342423 0)
(0.00287752 -0.00315183 0)
(0.00446594 -0.00285612 0)
(0.00591719 -0.00254281 0)
(0.00722247 -0.00221772 0)
(0.0083755 -0.00188667 0)
(0.00937259 -0.00155526 0)
(0.0102125 -0.00122877 0)
(0.0108965 -0.000911986 0)
(0.011428 -0.000609097 0)
(0.0118125 -0.000323618 0)
(0.012057 -5.83812e-05 0)
(0.0121703 0.000184429 0)
(0.012162 0.000403574 0)
(0.0120427 0.000598414 0)
(0.0118234 0.000768928 0)
(0.0115152 0.000915674 0)
(0.0111291 0.0010397 0)
(0.010676 0.00114243 0)
(0.010166 0.00122558 0)
(0.00960861 0.00129106 0)
(0.0090127 0.00134083 0)
(0.00838618 0.00137684 0)
(0.00773622 0.00140087 0)
(0.00706929 0.00141443 0)
(0.00639125 0.00141861 0)
(0.00570762 0.00141395 0)
(0.00502379 0.00140029 0)
(0.00434541 0.00137653 0)
(0.00367873 0.00134054 0)
(0.00303106 0.00128895 0)
(0.0024112 0.0012171 0)
(0.00182987 0.00111915 0)
(0.00129996 0.000988673 0)
(0.000836565 0.000819879 0)
(0.000454259 0.000610335 0)
(0.000180388 0.00036531 0)
(1.99633e-05 0.000112654 0)
(2.13194e-07 -4.98242e-05 0)
(-1.38468e-05 -4.71458e-05 0)
(-6.43879e-05 2.48939e-05 0)
(-0.000160106 0.000133625 0)
(-0.00030475 0.00025755 0)
(-0.000498159 0.000382008 0)
(-0.000737418 0.000498103 0)
(-0.00101814 0.000601348 0)
(-0.0013354 0.000690423 0)
(-0.00168437 0.000766104 0)
(-0.00206078 0.000830409 0)
(-0.00246117 0.000885947 0)
(-0.00288296 0.000935451 0)
(-0.00332447 0.000981467 0)
(-0.00378478 0.00102617 0)
(-0.00426366 0.00107131 0)
(-0.00476136 0.00111816 0)
(-0.00527851 0.0011676 0)
(-0.005816 0.00122016 0)
(-0.00637486 0.00127612 0)
(-0.00695623 0.00133555 0)
(-0.00756124 0.00139842 0)
(-0.00819106 0.0014646 0)
(-0.00884684 0.00153397 0)
(-0.00952968 0.00160639 0)
(-0.0102407 0.00168171 0)
(-0.010981 0.00175982 0)
(-0.0117516 0.00184057 0)
(-0.0125535 0.00192383 0)
(-0.0133878 0.00200941 0)
(-0.0142552 0.00209706 0)
(-0.0151566 0.00218646 0)
(-0.0160926 0.00227718 0)
(-0.0170634 0.00236866 0)
(-0.0180693 0.0024602 0)
(-0.01911 0.00255093 0)
(-0.0201848 0.0026398 0)
(-0.0212924 0.00272557 0)
(-0.0224312 0.00280678 0)
(-0.0235987 0.00288181 0)
(-0.0247918 0.00294878 0)
(-0.0260064 0.00300567 0)
(-0.0272378 0.00305024 0)
(-0.0284801 0.00308011 0)
(-0.0297267 0.00309278 0)
(-0.0309699 0.00308565 0)
(-0.0322011 0.00305609 0)
(-0.0334108 0.00300148 0)
(-0.0345884 0.0029193 0)
(-0.0357227 0.00280717 0)
(-0.0368018 0.00266295 0)
(-0.0378133 0.00248481 0)
(-0.0387441 0.00227132 0)
(-0.0395811 0.00202153 0)
(-0.0403112 0.00173502 0)
(-0.0409213 0.00141201 0)
(-0.041399 0.00105338 0)
(-0.0417321 0.000660746 0)
(-0.0419097 0.000236465 0)
(-0.0419217 -0.000216328 0)
(-0.0417595 -0.000693742 0)
(-0.0414161 -0.00119113 0)
(-0.0408859 -0.00170316 0)
(-0.0401655 -0.00222385 0)
(-0.0392536 -0.00274668 0)
(-0.0381509 -0.00326468 0)
(-0.0368605 -0.00377054 0)
(-0.0353879 -0.00425677 0)
(-0.0337407 -0.00471586 0)
(-0.0319294 -0.00514041 0)
(-0.0299662 -0.00552332 0)
(-0.0278661 -0.00585799 0)
(-0.0256457 -0.00613846 0)
(-0.0233238 -0.00635959 0)
(-0.0209206 -0.00651723 0)
(-0.018458 -0.00660833 0)
(-0.0159587 -0.00663106 0)
(-0.013446 -0.00658492 0)
(-0.0109437 -0.00647075 0)
(-0.00847537 -0.00629073 0)
(-0.00606404 -0.00604838 0)
(-0.00373176 -0.00574846 0)
(-0.00149925 -0.00539684 0)
(0.000614558 -0.00500033 0)
(0.00259283 -0.00456652 0)
(0.00442112 -0.00410355 0)
(0.00608757 -0.00361986 0)
(0.00758314 -0.00312393 0)
(0.00890161 -0.0026241 0)
(0.0100396 -0.00212828 0)
(0.0109966 -0.00164379 0)
(0.0117747 -0.00117716 0)
(0.0123785 -0.000734037 0)
(0.0128144 -0.000319042 0)
(0.0130913 6.43303e-05 0)
(0.013219 0.000413543 0)
(0.0132089 0.000727143 0)
(0.0130729 0.00100466 0)
(0.0128236 0.00124651 0)
(0.0124735 0.00145385 0)
(0.0120352 0.00162849 0)
(0.0115205 0.00177271 0)
(0.0109411 0.00188912 0)
(0.0103075 0.00198049 0)
(0.00962965 0.00204958 0)
(0.00891659 0.00209896 0)
(0.00817659 0.00213083 0)
(0.00741731 0.00214678 0)
(0.00664593 0.00214766 0)
(0.00586949 0.00213323 0)
(0.0050952 0.00210204 0)
(0.00433082 0.00205113 0)
(0.00358512 0.00197588 0)
(0.00286826 0.00186994 0)
(0.00219233 0.00172546 0)
(0.00157167 0.00153371 0)
(0.00102322 0.00128651 0)
(0.00056371 0.00097886 0)
(0.000228229 0.000612749 0)
(2.58758e-05 0.000208649 0)
(-3.05769e-06 -3.99592e-05 0)
(-4.27019e-05 3.2283e-07 0)
(-0.000135313 0.000121331 0)
(-0.00028802 0.00028374 0)
(-0.000499919 0.000461607 0)
(-0.000768854 0.000637289 0)
(-0.00109014 0.00080013 0)
(-0.0014581 0.000944864 0)
(-0.00186694 0.00107013 0)
(-0.00231122 0.00117717 0)
(-0.00278628 0.00126878 0)
(-0.0032884 0.0013485 0)
(-0.00381487 0.00141999 0)
(-0.00436388 0.00148666 0)
(-0.00493449 0.00155144 0)
(-0.00552642 0.00161666 0)
(-0.00613991 0.00168405 0)
(-0.0067756 0.00175481 0)
(-0.00743439 0.00182968 0)
(-0.00811734 0.00190905 0)
(-0.00882561 0.00199306 0)
(-0.00956044 0.0020817 0)
(-0.0103231 0.00217487 0)
(-0.0111148 0.00227244 0)
(-0.0119369 0.00237425 0)
(-0.0127906 0.00248016 0)
(-0.0136774 0.00259004 0)
(-0.0145985 0.00270374 0)
(-0.0155552 0.00282107 0)
(-0.0165489 0.00294179 0)
(-0.0175806 0.00306554 0)
(-0.0186516 0.00319185 0)
(-0.0197625 0.00332009 0)
(-0.0209141 0.00344941 0)
(-0.0221066 0.00357876 0)
(-0.0233398 0.00370684 0)
(-0.0246131 0.00383209 0)
(-0.0259251 0.00395267 0)
(-0.0272739 0.00406644 0)
(-0.0286567 0.00417099 0)
(-0.0300698 0.00426362 0)
(-0.0315085 0.00434139 0)
(-0.0329673 0.0044011 0)
(-0.0344395 0.00443936 0)
(-0.0359174 0.00445264 0)
(-0.037392 0.00443733 0)
(-0.0388534 0.00438978 0)
(-0.0402908 0.00430645 0)
(-0.0416921 0.00418391 0)
(-0.0430448 0.00401904 0)
(-0.0443353 0.00380904 0)
(-0.0455495 0.00355161 0)
(-0.0466731 0.00324501 0)
(-0.0476913 0.00288817 0)
(-0.0485896 0.00248078 0)
(-0.0493535 0.00202338 0)
(-0.0499691 0.00151741 0)
(-0.050423 0.000965281 0)
(-0.050703 0.000370366 0)
(-0.0507977 -0.00026295 0)
(-0.0506974 -0.000929303 0)
(-0.0503937 -0.00162238 0)
(-0.0498802 -0.00233499 0)
(-0.0491523 -0.00305913 0)
(-0.0482077 -0.0037861 0)
(-0.0470461 -0.00450662 0)
(-0.0456699 -0.00521102 0)
(-0.0440837 -0.00588936 0)
(-0.042295 -0.00653164 0)
(-0.0403136 -0.00712803 0)
(-0.0381519 -0.00766902 0)
(-0.0358249 -0.00814573 0)
(-0.03335 -0.00855006 0)
(-0.0307466 -0.00887493 0)
(-0.0280364 -0.0091145 0)
(-0.0252428 -0.00926435 0)
(-0.0223904 -0.00932161 0)
(-0.0195052 -0.00928512 0)
(-0.0166135 -0.00915548 0)
(-0.0137421 -0.00893508 0)
(-0.0109173 -0.00862808 0)
(-0.00816483 -0.00824032 0)
(-0.00550903 -0.00777919 0)
(-0.00297267 -0.00725343 0)
(-0.000576377 -0.0066729 0)
(0.00166168 -0.0060483 0)
(0.00372612 -0.00539086 0)
(0.00560455 -0.00471204 0)
(0.00728776 -0.00402318 0)
(0.00876972 -0.00333523 0)
(0.0100476 -0.00265843 0)
(0.0111217 -0.00200208 0)
(0.0119952 -0.00137433 0)
(0.0126738 -0.000782048 0)
(0.0131656 -0.00023068 0)
(0.0134806 0.000275722 0)
(0.0136306 0.000734539 0)
(0.0136281 0.00114451 0)
(0.0134869 0.00150561 0)
(0.0132207 0.00181891 0)
(0.0128437 0.00208642 0)
(0.0123695 0.00231088 0)
(0.0118115 0.00249553 0)
(0.011182 0.00264392 0)
(0.010493 0.00275963 0)
(0.00975529 0.00284605 0)
(0.00897903 0.00290613 0)
(0.00817362 0.00294204 0)
(0.00734795 0.00295496 0)
(0.00651066 0.00294474 0)
(0.00567045 0.00290958 0)
(0.00483649 0.00284582 0)
(0.00401883 0.00274765 0)
(0.00322888 0.00260712 0)
(0.00247995 0.00241428 0)
(0.00178781 0.00215785 0)
(0.00117134 0.0018265 0)
(0.000649741 0.00141108 0)
(0.000265096 0.000907532 0)
(3.02807e-05 0.000325119 0)
(-6.69842e-06 -1.57701e-05 0)
(-7.49335e-05 8.43723e-05 0)
(-0.000214595 0.000271082 0)
(-0.000430787 0.000499819 0)
(-0.000717048 0.00074117 0)
(-0.0010687 0.000975292 0)
(-0.00147885 0.00119042 0)
(-0.0019403 0.001381 0)
(-0.00244618 0.00154604 0)
(-0.00299042 0.00168753 0)
(-0.00356796 0.00180923 0)
(-0.00417485 0.00191574 0)
(-0.00480829 0.00201173 0)
(-0.00546644 0.00210154 0)
(-0.00614834 0.00218886 0)
(-0.00685371 0.00227661 0)
(-0.0075828 0.002367 0)
(-0.00833625 0.00246153 0)
(-0.00911496 0.00256117 0)
(-0.00992003 0.00266645 0)
(-0.0107527 0.0027776 0)
(-0.0116142 0.00289466 0)
(-0.0125059 0.0030176 0)
(-0.0134294 0.0031463 0)
(-0.0143861 0.00328066 0)
(-0.0153776 0.0034206 0)
(-0.0164057 0.00356599 0)
(-0.017472 0.00371672 0)
(-0.0185783 0.00387258 0)
(-0.0197263 0.00403327 0)
(-0.0209177 0.00419835 0)
(-0.0221541 0.00436716 0)
(-0.0234367 0.00453884 0)
(-0.0247667 0.00471221 0)
(-0.0261445 0.00488581 0)
(-0.0275704 0.00505782 0)
(-0.0290438 0.00522606 0)
(-0.0305636 0.00538798 0)
(-0.0321276 0.00554063 0)
(-0.033733 0.0056807 0)
(-0.0353758 0.0058045 0)
(-0.0370508 0.00590804 0)
(-0.038752 0.00598703 0)
(-0.0404719 0.00603692 0)
(-0.0422019 0.00605305 0)
(-0.0439321 0.00603065 0)
(-0.0456516 0.00596499 0)
(-0.0473482 0.00585148 0)
(-0.0490088 0.00568578 0)
(-0.0506193 0.00546391 0)
(-0.0521648 0.00518243 0)
(-0.0536298 0.00483853 0)
(-0.0549984 0.00443013 0)
(-0.0562544 0.00395608 0)
(-0.0573815 0.00341615 0)
(-0.0583638 0.00281121 0)
(-0.0591855 0.00214327 0)
(-0.0598316 0.0014155 0)
(-0.060288 0.000632307 0)
(-0.0605416 -0.000200683 0)
(-0.0605806 -0.00107665 0)
(-0.0603949 -0.00198762 0)
(-0.059976 -0.00292451 0)
(-0.0593173 -0.00387727 0)
(-0.0584146 -0.00483496 0)
(-0.0572659 -0.00578594 0)
(-0.0558716 -0.00671801 0)
(-0.0542351 -0.00761862 0)
(-0.0523622 -0.00847509 0)
(-0.0502618 -0.00927487 0)
(-0.0479456 -0.0100058 0)
(-0.0454282 -0.0106562 0)
(-0.042727 -0.0112156 0)
(-0.0398622 -0.0116745 0)
(-0.0368563 -0.012025 0)
(-0.0337344 -0.0122607 0)
(-0.0305234 -0.0123773 0)
(-0.0272516 -0.0123726 0)
(-0.0239486 -0.0122465 0)
(-0.0206448 -0.0120013 0)
(-0.0173704 -0.0116414 0)
(-0.0141553 -0.0111736 0)
(-0.0110285 -0.0106067 0)
(-0.00801726 -0.0099512 0)
(-0.00514683 -0.00921932 0)
(-0.00243992 -0.00842446 0)
(8.37522e-05 -0.00758086 0)
(0.00240773 -0.00670321 0)
(0.00451907 -0.00580624 0)
(0.00640848 -0.00490434 0)
(0.00807035 -0.00401111 0)
(0.00950263 -0.00313911 0)
(0.0107067 -0.0022995 0)
(0.0116872 -0.00150188 0)
(0.0124514 -0.000754087 0)
(0.0130091 -6.21553e-05 0)
(0.0133724 0.000569723 0)
(0.0135545 0.00113913 0)
(0.01357 0.00164529 0)
(0.0134342 0.00208895 0)
(0.0131627 0.0024721 0)
(0.012771 0.00279779 0)
(0.0122741 0.00306981 0)
(0.0116866 0.00329243 0)
(0.0110222 0.00347006 0)
(0.0102938 0.00360694 0)
(0.00951349 0.0037068 0)
(0.00869245 0.00377249 0)
(0.00784135 0.00380563 0)
(0.00697044 0.00380622 0)
(0.00608993 0.00377229 0)
(0.00521037 0.00369953 0)
(0.0043431 0.00358107 0)
(0.00350072 0.00340736 0)
(0.00269782 0.00316627 0)
(0.00195166 0.00284361 0)
(0.00128314 0.00242412 0)
(0.000714005 0.00189315 0)
(0.000292104 0.00123867 0)
(3.34144e-05 0.000456789 0)
(-1.0582e-05 2.4097e-05 0)
(-0.000109568 0.000208439 0)
(-0.000299958 0.000479186 0)
(-0.000584499 0.000787836 0)
(-0.000950522 0.00110256 0)
(-0.00139041 0.00140224 0)
(-0.00189474 0.00167477 0)
(-0.00245451 0.00191496 0)
(-0.00306168 0.00212262 0)
(-0.00370943 0.00230087 0)
(-0.00439229 0.00245469 0)
(-0.00510612 0.00258988 0)
(-0.00584802 0.00271222 0)
(-0.00661616 0.00282701 0)
(-0.0074096 0.00293871 0)
(-0.00822808 0.00305087 0)
(-0.00907188 0.00316612 0)
(-0.00994164 0.00328631 0)
(-0.0108383 0.00341263 0)
(-0.011763 0.00354576 0)
(-0.012717 0.00368608 0)
(-0.0137018 0.00383374 0)
(-0.014719 0.00398878 0)
(-0.0157703 0.00415123 0)
(-0.0168576 0.0043211 0)
(-0.0179829 0.00449839 0)
(-0.0191484 0.00468309 0)
(-0.0203565 0.00487515 0)
(-0.0216096 0.00507441 0)
(-0.02291 0.00528053 0)
(-0.0242603 0.00549297 0)
(-0.0256625 0.00571092 0)
(-0.0271189 0.00593322 0)
(-0.028631 0.00615835 0)
(-0.0302 0.00638433 0)
(-0.0318267 0.00660876 0)
(-0.033511 0.00682873 0)
(-0.0352519 0.00704087 0)
(-0.0370477 0.00724129 0)
(-0.0388954 0.00742564 0)
(-0.040791 0.00758913 0)
(-0.0427292 0.00772654 0)
(-0.0447034 0.00783233 0)
(-0.0467056 0.00790071 0)
(-0.0487267 0.0079257 0)
(-0.0507558 0.00790129 0)
(-0.0527812 0.00782152 0)
(-0.0547894 0.00768067 0)
(-0.0567662 0.00747334 0)
(-0.0586962 0.00719467 0)
(-0.0605629 0.00684044 0)
(-0.0623492 0.00640725 0)
(-0.0640376 0.00589263 0)
(-0.0656099 0.00529521 0)
(-0.0670479 0.00461478 0)
(-0.0683335 0.00385244 0)
(-0.0694485 0.00301065 0)
(-0.0703757 0.00209327 0)
(-0.0710983 0.00110563 0)
(-0.0716006 5.45065e-05 0)
(-0.0718679 -0.0010519 0)
(-0.0718873 -0.00220398 0)
(-0.0716475 -0.00339081 0)
(-0.0711389 -0.00460027 0)
(-0.0703546 -0.00581912 0)
(-0.0692898 -0.00703323 0)
(-0.0679424 -0.00822771 0)
(-0.0663133 -0.00938719 0)
(-0.0644064 -0.010496 0)
(-0.062229 -0.0115386 0)
(-0.0597913 -0.0124995 0)
(-0.0571072 -0.0133642 0)
(-0.0541939 -0.0141191 0)
(-0.0510718 -0.0147516 0)
(-0.0477646 -0.0152513 0)
(-0.0442989 -0.0156092 0)
(-0.0407037 -0.0158191 0)
(-0.0370106 -0.015877 0)
(-0.0332526 -0.0157817 0)
(-0.0294643 -0.0155347 0)
(-0.0256807 -0.0151405 0)
(-0.0219368 -0.0146064 0)
(-0.0182669 -0.0139424 0)
(-0.014704 -0.0131607 0)
(-0.0112791 -0.0122759 0)
(-0.00802046 -0.0113043 0)
(-0.00495327 -0.0102633 0)
(-0.00209907 -0.00917128 0)
(0.000524543 -0.00804673 0)
(0.00290414 -0.00690796 0)
(0.00503056 -0.00577255 0)
(0.00689887 -0.00465687 0)
(0.00850824 -0.00357569 0)
(0.00986164 -0.00254193 0)
(0.0109655 -0.00156638 0)
(0.0118294 -0.000657564 0)
(0.0124654 0.00017826 0)
(0.0128876 0.000937103 0)
(0.0131118 0.00161711 0)
(0.0131546 0.00221836 0)
(0.0130335 0.00274264 0)
(0.0127659 0.00319313 0)
(0.0123689 0.00357407 0)
(0.0118594 0.0038904 0)
(0.0112532 0.00414735 0)
(0.0105655 0.00435007 0)
(0.00981029 0.00450313 0)
(0.00900095 0.00461016 0)
(0.00814996 0.00467334 0)
(0.00726934 0.00469296 0)
(0.00637089 0.00466698 0)
(0.00546662 0.0045906 0)
(0.00456922 0.00445598 0)
(0.00369259 0.00425195 0)
(0.00285268 0.00396408 0)
(0.0020683 0.00357492 0)
(0.00136239 0.00306464 0)
(0.000759073 0.00241213 0)
(0.000310665 0.00159623 0)
(3.55001e-05 0.000599148 0)
(-1.4657e-05 8.05974e-05 0)
(-0.000146009 0.000375079 0)
(-0.000389867 0.000749402 0)
(-0.000746379 0.00115227 0)
(-0.00119618 0.00155055 0)
(-0.00172841 0.00192285 0)
(-0.00233084 0.00225758 0)
(-0.00299249 0.00255063 0)
(-0.00370399 0.0028032 0)
(-0.00445774 0.00301989 0)
(-0.0052478 0.0032072 0)
(-0.00606985 0.00337231 0)
(-0.00692091 0.00352223 0)
(-0.00779917 0.00366324 0)
(-0.00870371 0.00380061 0)
(-0.00963434 0.00393848 0)
(-0.0105914 0.00407994 0)
(-0.0115755 0.00422717 0)
(-0.0125877 0.00438159 0)
(-0.0136293 0.00454411 0)
(-0.0147016 0.00471528 0)
(-0.0158064 0.00489542 0)
(-0.0169457 0.00508478 0)
(-0.0181215 0.00528358 0)
(-0.0193363 0.00549204 0)
(-0.0205928 0.00571036 0)
(-0.021894 0.00593874 0)
(-0.0232431 0.00617724 0)
(-0.0246433 0.00642579 0)
(-0.0260981 0.00668409 0)
(-0.0276108 0.00695152 0)
(-0.0291848 0.00722708 0)
(-0.0308231 0.00750931 0)
(-0.0325283 0.00779626 0)
(-0.0343025 0.00808541 0)
(-0.0361472 0.00837365 0)
(-0.038063 0.00865727 0)
(-0.0400496 0.00893192 0)
(-0.0421057 0.00919265 0)
(-0.0442285 0.00943392 0)
(-0.0464142 0.00964966 0)
(-0.0486574 0.0098333 0)
(-0.0509513 0.0099779 0)
(-0.0532876 0.0100762 0)
(-0.0556564 0.0101208 0)
(-0.0580462 0.0101043 0)
(-0.0604441 0.0100192 0)
(-0.0628357 0.00985868 0)
(-0.0652052 0.00961603 0)
(-0.0675357 0.00928534 0)
(-0.0698089 0.00886145 0)
(-0.0720057 0.0083402 0)
(-0.0741063 0.00771855 0)
(-0.0760901 0.00699474 0)
(-0.0779362 0.00616838 0)
(-0.0796235 0.00524064 0)
(-0.0811311 0.00421424 0)
(-0.0824381 0.00309358 0)
(-0.0835245 0.00188477 0)
(-0.084371 0.000595613 0)
(-0.0849593 -0.000764376 0)
(-0.0852729 -0.00218402 0)
(-0.0852966 -0.00365056 0)
(-0.0850175 -0.00514972 0)
(-0.0844249 -0.00666591 0)
(-0.0835107 -0.00818232 0)
(-0.0822697 -0.00968118 0)
(-0.0806999 -0.011144 0)
(-0.0788026 -0.0125518 0)
(-0.0765829 -0.0138854 0)
(-0.0740493 -0.0151261 0)
(-0.0712146 -0.0162554 0)
(-0.0680953 -0.017256 0)
(-0.064712 -0.0181121 0)
(-0.0610891 -0.0188096 0)
(-0.0572546 -0.0193365 0)
(-0.05324 -0.0196836 0)
(-0.04908 -0.0198445 0)
(-0.0448116 -0.0198163 0)
(-0.0404739 -0.0195991 0)
(-0.0361074 -0.0191969 0)
(-0.031753 -0.018617 0)
(-0.0274516 -0.0178702 0)
(-0.0232429 -0.0169704 0)
(-0.0191648 -0.0159346 0)
(-0.0152525 -0.0147818 0)
(-0.0115381 -0.0135331 0)
(-0.0080494 -0.0122109 0)
(-0.00481004 -0.0108379 0)
(-0.00183872 -0.00943717 0)
(0.000850854 -0.00803079 0)
(0.00324998 -0.00663971 0)
(0.00535489 -0.00528309 0)
(0.00716647 -0.00397788 0)
(0.00868992 -0.00273852 0)
(0.00993423 -0.00157669 0)
(0.0109117 -0.000501299 0)
(0.0116373 0.000481602 0)
(0.012128 0.00136863 0)
(0.0124024 0.00215888 0)
(0.0124798 0.00285367 0)
(0.0123801 0.00345612 0)
(0.012123 0.00397081 0)
(0.0117278 0.0044033 0)
(0.0112129 0.00475968 0)
(0.0105961 0.00504602 0)
(0.00989373 0.00526788 0)
(0.00912149 0.00542976 0)
(0.00829403 0.00553458 0)
(0.00742531 0.00558306 0)
(0.00652893 0.00557326 0)
(0.00561853 0.00550005 0)
(0.0047083 0.00535464 0)
(0.00381359 0.0051243 0)
(0.00295182 0.00479217 0)
(0.00214344 0.00433726 0)
(0.00141332 0.00373473 0)
(0.000787691 0.00295645 0)
(0.000322157 0.00197157 0)
(3.67346e-05 0.000748439 0)
(-1.88898e-05 0.000154468 0)
(-0.000183865 0.000586223 0)
(-0.000483246 0.00108452 0)
(-0.000914392 0.00159643 0)
(-0.00145087 0.00208863 0)