/*--------------------------------*- C++ -*----------------------------------*\
| =========                 |                                                 |
| \\      /  F ield         | OpenFOAM: The Open Source CFD Toolbox           |
|  \\    /   O peration     | Version:  2406                                  |
|   \\  /    A nd           | Website:  www.openfoam.com                      |
|    \\/     M anipulation  |                                                 |
\*---------------------------------------------------------------------------*/
FoamFile
{
    version     2.0;
    format      ascii;
    arch        "LSB;label=32;scalar=64";
    class       volVectorField;
    location    "26.3";
    object      Uold;
}
// * * * * * * * * * * * * * * * * * * * * * * * * * * * * * * * * * * * * * //

dimensions      [0 1 -1 0 0 0 0];

internalField   nonuniform List<vector> 
3600
(
(3.36616e-05 -3.38842e-05 0)
(0.000270959 -0.000110082 0)
(0.000644907 -0.000137674 0)
(0.00101569 -0.000135787 0)
(0.00137032 -0.000120553 0)
(0.00164938 -0.000100614 0)
(0.0018724 -8.30727e-05 0)
(0.00201841 -6.68917e-05 0)
(0.00210304 -5.35501e-05 0)
(0.00210991 -3.82322e-05 0)
(0.00203269 -1.99627e-05 0)
(0.00184347 5.84975e-06 0)
(0.00151417 3.96811e-05 0)
(0.00100683 8.45584e-05 0)
(0.000279771 0.000141105 0)
(-0.000713213 0.000212505 0)
(-0.00202472 0.00030014 0)
(-0.00370678 0.000406141 0)
(-0.00581147 0.000529427 0)
(-0.00837756 0.00066717 0)
(-0.0114293 0.000812886 0)
(-0.0149605 0.000960076 0)
(-0.018931 0.00110217 0)
(-0.0232498 0.00123239 0)
(-0.0277747 0.0013384 0)
(-0.0323051 0.00140025 0)
(-0.0365953 0.00139075 0)
(-0.0403625 0.00128248 0)
(-0.0433138 0.00105449 0)
(-0.0451651 0.00069918 0)
(-0.0456722 0.000224355 0)
(-0.0446482 -0.000345889 0)
(-0.0419907 -0.000973881 0)
(-0.037691 -0.00161048 0)
(-0.0318548 -0.00219977 0)
(-0.0246976 -0.00268306 0)
(-0.0165544 -0.00300565 0)
(-0.00785253 -0.00312334 0)
(0.000898599 -0.00301069 0)
(0.00916699 -0.0026678 0)
(0.016428 -0.00212487 0)
(0.0222509 -0.00144225 0)
(0.0263242 -0.000702677 0)
(0.0285348 1.24748e-06 0)
(0.0289425 0.000587796 0)
(0.0278092 0.00100179 0)
(0.0254951 0.00122845 0)
(0.0224475 0.00128794 0)
(0.0190571 0.00122584 0)
(0.0156822 0.00109062 0)
(0.0125281 0.000925649 0)
(0.00975614 0.000757629 0)
(0.0073781 0.000606189 0)
(0.00542417 0.000476627 0)
(0.00380388 0.00037707 0)
(0.0025085 0.000297368 0)
(0.00143761 0.000236054 0)
(0.000629928 0.000152781 0)
(9.4532e-05 4.90574e-05 0)
(-7.8744e-05 -8.46805e-05 0)
(0.000111574 -0.000271187 0)
(0.000585953 -0.000582633 0)
(0.00125261 -0.000681887 0)
(0.00188031 -0.000646369 0)
(0.00243715 -0.000544897 0)
(0.0028172 -0.000404948 0)
(0.00302657 -0.000259119 0)
(0.0030161 -0.000101281 0)
(0.00278149 6.38678e-05 0)
(0.00227112 0.000260519 0)
(0.0014356 0.000498299 0)
(0.00018983 0.00080141 0)
(-0.001562 0.00117719 0)
(-0.00393208 0.00164063 0)
(-0.0070409 0.00219528 0)
(-0.0110084 0.00285005 0)
(-0.0159508 0.00360194 0)
(-0.0219567 0.00444306 0)
(-0.0290759 0.00534721 0)
(-0.0372838 0.0062766 0)
(-0.0464679 0.00717432 0)
(-0.0563993 0.00796883 0)
(-0.0667444 0.0085698 0)
(-0.077075 0.00888026 0)
(-0.0869161 0.00880723 0)
(-0.095779 0.00828085 0)
(-0.103211 0.00726211 0)
(-0.108816 0.00575063 0)
(-0.112279 0.0037811 0)
(-0.113366 0.00142275 0)
(-0.111938 -0.00122817 0)
(-0.107932 -0.0040499 0)
(-0.101382 -0.00690221 0)
(-0.0924049 -0.00962756 0)
(-0.0812203 -0.0120596 0)
(-0.0681396 -0.0140283 0)
(-0.0535851 -0.0153748 0)
(-0.0380675 -0.0159642 0)
(-0.0221944 -0.0157088 0)
(-0.00661905 -0.0145841 0)
(0.00796771 -0.0126486 0)
(0.0209254 -0.0100479 0)
(0.0316772 -0.00700946 0)
(0.039819 -0.00381801 0)
(0.0451068 -0.000774246 0)
(0.0475555 0.00184979 0)
(0.0473634 0.00386163 0)
(0.044976 0.00517207 0)
(0.0409232 0.00580719 0)
(0.0358547 0.00587703 0)
(0.0303135 0.00554428 0)
(0.0248218 0.00496943 0)
(0.0196598 0.00429719 0)
(0.0150751 0.00362089 0)
(0.0110666 0.00301381 0)
(0.00770313 0.0024761 0)
(0.00486219 0.0020071 0)
(0.00262967 0.00148083 0)
(0.000969016 0.000879565 0)
(9.21869e-05 0.00011833 0)
(0.000141855 -0.000649503 0)
(0.000680112 -0.00124726 0)
(0.0013918 -0.00140725 0)
(0.00199318 -0.00127546 0)
(0.0024375 -0.000999138 0)
(0.00259345 -0.000620751 0)
(0.00244235 -0.00020565 0)
(0.00190587 0.000264417 0)
(0.000937935 0.00078704 0)
(-0.000560501 0.00141906 0)
(-0.00270306 0.00219049 0)
(-0.0056423 0.00315705 0)
(-0.00955087 0.00433987 0)
(-0.01461 0.0057679 0)
(-0.021001 0.00744119 0)
(-0.0288733 0.00935646 0)
(-0.0383305 0.0114726 0)
(-0.0493758 0.0137193 0)
(-0.061889 0.0159725 0)
(-0.0755833 0.0180677 0)
(-0.0900276 0.0198005 0)
(-0.104672 0.0209644 0)
(-0.118931 0.0213775 0)
(-0.132231 0.0209185 0)
(-0.144079 0.0195308 0)
(-0.154072 0.0172239 0)
(-0.161909 0.0140558 0)
(-0.16737 0.0101245 0)
(-0.170313 0.00555294 0)
(-0.170644 0.00048799 0)
(-0.168317 -0.00490647 0)
(-0.163324 -0.0104442 0)
(-0.1557 -0.0159202 0)
(-0.145527 -0.0211043 0)
(-0.132954 -0.0257498 0)
(-0.1182 -0.0295945 0)
(-0.101585 -0.0323825 0)
(-0.0835224 -0.0338804 0)
(-0.0645415 -0.0339145 0)
(-0.0452511 -0.0323974 0)
(-0.0263437 -0.029366 0)
(-0.00851571 -0.0249931 0)
(0.00754317 -0.0195925 0)
(0.0212604 -0.0135884 0)
(0.0321703 -0.00746928 0)
(0.0400275 -0.00172454 0)
(0.0447437 0.00322385 0)
(0.0464958 0.00707285 0)
(0.0455999 0.0096805 0)
(0.0426086 0.0110683 0)
(0.0380928 0.0114054 0)
(0.032734 0.0109485 0)
(0.0270314 0.00999176 0)
(0.0214848 0.00879021 0)
(0.0162909 0.00755236 0)
(0.0116967 0.00636181 0)
(0.0076555 0.00524135 0)
(0.00436038 0.00401711 0)
(0.00175935 0.00259337 0)
(0.000259599 0.000784329 0)
(0.000142864 -0.00101909 0)
(0.000622361 -0.00184279 0)
(0.00118362 -0.00198294 0)
(0.00153025 -0.00165656 0)
(0.00160073 -0.00109711 0)
(0.00125051 -0.000349126 0)
(0.00042434 0.00049577 0)
(-0.000992401 0.00148133 0)
(-0.003109 0.00261756 0)
(-0.0060874 0.00400517 0)
(-0.0101235 0.00570059 0)
(-0.0154414 0.00779166 0)
(-0.0222831 0.0103048 0)
(-0.030865 0.0132629 0)
(-0.0413647 0.0166258 0)
(-0.0538497 0.02032 0)
(-0.0682508 0.0241855 0)
(-0.0842949 0.027993 0)
(-0.101527 0.031433 0)
(-0.119337 0.03418 0)
(-0.137073 0.0359381 0)
(-0.154108 0.0365035 0)
(-0.169928 0.0357712 0)
(-0.184129 0.0337345 0)
(-0.196431 0.0304518 0)
(-0.206631 0.0260296 0)
(-0.2146 0.0205961 0)
(-0.220237 0.014297 0)
(-0.223471 0.00728437 0)
(-0.224236 -0.000275462 0)
(-0.222479 -0.00820368 0)
(-0.218147 -0.0162952 0)
(-0.211209 -0.0243178 0)
(-0.201651 -0.0319997 0)
(-0.189506 -0.0390345 0)
(-0.174864 -0.0450798 0)
(-0.157906 -0.049781 0)
(-0.138917 -0.052791 0)
(-0.118318 -0.0538204 0)
(-0.096655 -0.0526768 0)
(-0.0746078 -0.049324 0)
(-0.0529235 -0.0439088 0)
(-0.0323946 -0.0367815 0)
(-0.0137367 -0.0284606 0)
(0.00242587 -0.0195807 0)
(0.0156803 -0.0108053 0)
(0.0257628 -0.00274583 0)
(0.0326542 0.0041041 0)
(0.036451 0.00941676 0)
(0.0374908 0.0130528 0)
(0.0361724 0.0150671 0)
(0.0331039 0.0156806 0)
(0.0288133 0.0152296 0)
(0.0239369 0.014083 0)
(0.018841 0.0125816 0)
(0.013976 0.010939 0)
(0.00943078 0.00923977 0)
(0.00555442 0.00732335 0)
(0.00233715 0.00497409 0)
(0.000385755 0.00184844 0)
(0.000122705 -0.0013619 0)
(0.000442466 -0.00230653 0)
(0.000692977 -0.00231273 0)
(0.000598138 -0.00166646 0)
(7.41484e-05 -0.000684428 0)
(-0.00103041 0.00060245 0)
(-0.00282341 0.00208776 0)
(-0.00546284 0.00385761 0)
(-0.00914071 0.00594752 0)
(-0.0140896 0.00851162 0)
(-0.0205916 0.0116319 0)
(-0.0289212 0.0154143 0)
(-0.0393444 0.0198595 0)
(-0.0520261 0.0249303 0)
(-0.0670126 0.0304663 0)
(-0.084127 0.0362197 0)
(-0.102981 0.0418104 0)
(-0.122962 0.046802 0)
(-0.143373 0.0507519 0)
(-0.163507 0.0533181 0)
(-0.182781 0.0542843 0)
(-0.200734 0.0535756 0)
(-0.217053 0.0512157 0)
(-0.231517 0.047304 0)
(-0.243993 0.0419743 0)
(-0.254386 0.0353836 0)
(-0.262642 0.0276901 0)
(-0.26871 0.0190569 0)
(-0.272559 0.00964312 0)
(-0.27414 -0.000381977 0)
(-0.273404 -0.0108398 0)
(-0.27028 -0.0215227 0)
(-0.264691 -0.0321908 0)
(-0.256543 -0.0425513 0)
(-0.245757 -0.0522604 0)
(-0.232271 -0.0609121 0)
(-0.21609 -0.0680603 0)
(-0.197306 -0.0732348 0)
(-0.176157 -0.075999 0)
(-0.153048 -0.076002 0)
(-0.128588 -0.0730646 0)
(-0.103555 -0.0672347 0)
(-0.0788747 -0.0588413 0)
(-0.0554842 -0.0484729 0)
(-0.0342609 -0.0369221 0)
(-0.0158518 -0.0250593 0)
(-0.000685867 -0.0137153 0)
(0.0111094 -0.00357554 0)
(0.0195485 0.0048647 0)
(0.0248652 0.0113225 0)
(0.0273289 0.0157198 0)
(0.0274198 0.0181849 0)
(0.0255809 0.0190072 0)
(0.0224445 0.0185909 0)
(0.0184405 0.0173505 0)
(0.0141521 0.0156227 0)
(0.00979895 0.0135575 0)
(0.00588862 0.0110475 0)
(0.00250818 0.00774404 0)
(0.000419139 0.0031364 0)
(8.41367e-05 -0.00156799 0)
(0.000142952 -0.00243292 0)
(-8.21704e-05 -0.0021388 0)
(-0.000809845 -0.0010151 0)
(-0.00215396 0.000557935 0)
(-0.00426776 0.00258583 0)
(-0.00733187 0.0049666 0)
(-0.0115553 0.00784652 0)
(-0.0172285 0.0112964 0)
(-0.0246487 0.0155196 0)
(-0.0341629 0.0205998 0)
(-0.0460351 0.0266128 0)
(-0.0604591 0.0334603 0)
(-0.0774083 0.0409478 0)
(-0.0966488 0.0486879 0)
(-0.117655 0.0561858 0)
(-0.139737 0.0628575 0)
(-0.162106 0.0681821 0)
(-0.184057 0.0717604 0)
(-0.205002 0.0733802 0)
(-0.224529 0.0729751 0)
(-0.242338 0.0706055 0)
(-0.258259 0.0663975 0)
(-0.272182 0.0605265 0)
(-0.284077 0.0531774 0)
(-0.29394 0.0445422 0)
(-0.301807 0.0347979 0)
(-0.307717 0.0241149 0)
(-0.311716 0.0126461 0)
(-0.31382 0.000544778 0)
(-0.314029 -0.0120368 0)
(-0.312288 -0.0249224 0)
(-0.308507 -0.0379051 0)
(-0.302534 -0.0507192 0)
(-0.294184 -0.0630331 0)
(-0.283231 -0.0744267 0)
(-0.269463 -0.084401 0)
(-0.252702 -0.0923832 0)
(-0.232891 -0.0977782 0)
(-0.210141 -0.100025 0)
(-0.184827 -0.098704 0)
(-0.157602 -0.0936315 0)
(-0.129432 -0.0849697 0)
(-0.101482 -0.073261 0)
(-0.0750071 -0.0594082 0)
(-0.0511021 -0.0445283 0)
(-0.0305765 -0.0297695 0)
(-0.0137912 -0.0161074 0)
(-0.000798312 -0.0042511 0)
(0.00864856 0.00538512 0)
(0.0148325 0.012622 0)
(0.0181982 0.0175061 0)
(0.019127 0.0202472 0)
(0.0181986 0.0212231 0)
(0.0158375 0.0208502 0)
(0.0126769 0.0195381 0)
(0.00903301 0.0174756 0)
(0.00552884 0.0146109 0)
(0.00236941 0.0104734 0)
(0.000391193 0.00441249 0)
(2.58514e-05 -0.00162263 0)
(-0.000278773 -0.00215462 0)
(-0.0011382 -0.00136045 0)
(-0.00267748 0.000422325 0)
(-0.00505244 0.00278528 0)
(-0.00841623 0.00579893 0)
(-0.0130429 0.0093882 0)
(-0.0191931 0.0137724 0)
(-0.0272555 0.0190562 0)
(-0.0375571 0.025465 0)
(-0.0504485 0.0330289 0)
(-0.0660787 0.0417074 0)
(-0.0844429 0.051197 0)
(-0.1052 0.0610434 0)
(-0.127785 0.0705866 0)
(-0.151388 0.0791388 0)
(-0.175193 0.0860579 0)
(-0.198427 0.0909009 0)
(-0.220506 0.0934149 0)
(-0.240973 0.0935459 0)
(-0.25955 0.0913628 0)
(-0.276053 0.0870366 0)
(-0.290429 0.0807815 0)
(-0.302686 0.072844 0)
(-0.31292 0.0634624 0)
(-0.32125 0.0528664 0)
(-0.327839 0.0412513 0)
(-0.33283 0.028789 0)
(-0.336367 0.0156158 0)
(-0.338544 0.00185406 0)
(-0.339424 -0.0123894 0)
(-0.338994 -0.0269937 0)
(-0.337184 -0.0418172 0)
(-0.333828 -0.0566615 0)
(-0.328686 -0.0712589 0)
(-0.321416 -0.0852366 0)
(-0.311622 -0.0981102 0)
(-0.298854 -0.109267 0)
(-0.282704 -0.117998 0)
(-0.262865 -0.123537 0)
(-0.23927 -0.125167 0)
(-0.21219 -0.122344 0)
(-0.182348 -0.114862 0)
(-0.150913 -0.102984 0)
(-0.119445 -0.0875246 0)
(-0.0896166 -0.0697675 0)
(-0.0629426 -0.0512651 0)
(-0.0404029 -0.0334953 0)
(-0.0223855 -0.0175997 0)
(-0.00869063 -0.00424303 0)
(0.00109519 0.00629079 0)
(0.00754695 0.0140231 0)
(0.0111237 0.0191303 0)
(0.0124119 0.0219717 0)
(0.0118389 0.0229362 0)
(0.0100436 0.0224606 0)
(0.00740609 0.0207372 0)
(0.0046095 0.0177497 0)
(0.0019671 0.0129349 0)
(0.0003087 0.00555383 0)
(-5.89942e-05 -0.00141117 0)
(-0.000844923 -0.00126843 0)
(-0.00250759 0.000264956 0)
(-0.00504116 0.00291394 0)
(-0.00865835 0.00629578 0)
(-0.013511 0.0105787 0)
(-0.0199828 0.0157347 0)
(-0.0283748 0.0220542 0)
(-0.0391495 0.0296489 0)
(-0.0525958 0.0387027 0)
(-0.0689721 0.0490989 0)
(-0.0881895 0.0605695 0)
(-0.109944 0.0725138 0)
(-0.133548 0.0841903 0)
(-0.15818 0.0947397 0)
(-0.182899 0.103428 0)
(-0.20691 0.109699 0)
(-0.229524 0.113269 0)
(-0.250275 0.11405 0)
(-0.268821 0.112144 0)
(-0.285017 0.107757 0)
(-0.298821 0.101181 0)
(-0.310343 0.0927345 0)
(-0.319749 0.0827421 0)
(-0.327289 0.0714934 0)
(-0.33321 0.0592439 0)
(-0.337784 0.0461888 0)
(-0.341239 0.0324816 0)
(-0.343789 0.0182233 0)
(-0.345582 0.00348903 0)
(-0.346736 -0.0116743 0)
(-0.347283 -0.027217 0)
(-0.347205 -0.0430818 0)
(-0.346374 -0.0591668 0)
(-0.344578 -0.0753123 0)
(-0.341463 -0.091255 0)
(-0.336561 -0.106609 0)
(-0.329261 -0.120823 0)
(-0.318872 -0.133179 0)
(-0.304669 -0.142798 0)
(-0.286041 -0.148709 0)
(-0.262628 -0.149961 0)
(-0.234544 -0.145818 0)
(-0.202508 -0.135969 0)
(-0.167951 -0.12076 0)
(-0.132882 -0.101288 0)
(-0.0995973 -0.0793313 0)
(-0.070123 -0.056982 0)
(-0.0457738 -0.0361603 0)
(-0.0268548 -0.0181538 0)
(-0.0129669 -0.00355787 0)
(-0.00330663 0.00760158 0)
(0.0028487 0.015538 0)
(0.00624276 0.02066 0)
(0.00739946 0.023359 0)
(0.0069856 0.024086 0)
(0.00544282 0.0230192 0)
(0.00347356 0.0201531 0)
(0.00147703 0.0148736 0)
(0.00021523 0.006421 0)
(-0.000171995 -0.000896463 0)
(-0.00155508 0.000310391 0)
(-0.00417664 0.00284088 0)
(-0.00786378 0.00657542 0)
(-0.0129047 0.0112278 0)
(-0.0194465 0.0170945 0)
(-0.0279886 0.0242049 0)
(-0.0388388 0.0328941 0)
(-0.0524814 0.0432229 0)
(-0.0690705 0.0552355 0)
(-0.0886689 0.0685587 0)
(-0.11086 0.0826055 0)
(-0.135025 0.0964574 0)
(-0.160197 0.109156 0)
(-0.18543 0.11978 0)
(-0.209768 0.127677 0)
(-0.232495 0.132451 0)
(-0.25302 0.134002 0)
(-0.271017 0.132424 0)
(-0.286306 0.127996 0)
(-0.298937 0.121083 0)
(-0.309064 0.112112 0)
(-0.316989 0.101496 0)
(-0.323029 0.0896192 0)
(-0.327556 0.0767916 0)
(-0.330892 0.063263 0)
(-0.333358 0.0492022 0)
(-0.335198 0.0347258 0)
(-0.336638 0.0198903 0)
(-0.337831 0.00472389 0)
(-0.338912 -0.0107786 0)
(-0.339944 -0.0266257 0)
(-0.340961 -0.0428307 0)
(-0.341913 -0.0593801 0)
(-0.342683 -0.0762255 0)
(-0.343021 -0.0932404 0)
(-0.342544 -0.110195 0)
(-0.340674 -0.1267 0)
(-0.336653 -0.14217 0)
(-0.32953 -0.155781 0)
(-0.318266 -0.166483 0)
(-0.301856 -0.173047 0)
(-0.279582 -0.174227 0)
(-0.251267 -0.168984 0)
(-0.217583 -0.156825 0)
(-0.180177 -0.138113 0)
(-0.141627 -0.11428 0)
(-0.104951 -0.0877077 0)
(-0.0728982 -0.0612261 0)
(-0.0470973 -0.0372755 0)
(-0.0278103 -0.0173264 0)
(-0.0142141 -0.00174637 0)
(-0.00520986 0.00969852 0)
(0.000300164 0.0175659 0)
(0.00310318 0.0223492 0)
(0.00398834 0.0245623 0)
(0.00349712 0.0243942 0)
(0.00234619 0.0218469 0)
(0.000998759 0.0163066 0)
(0.000128463 0.00704473 0)
(-0.000320283 4.86489e-05 0)
(-0.00242335 0.00278088 0)
(-0.00615267 0.00658495 0)
(-0.0111363 0.0116359 0)
(-0.0177563 0.0178293 0)
(-0.0261452 0.02561 0)
(-0.0369069 0.0350542 0)
(-0.0503009 0.0464816 0)
(-0.0667578 0.0598114 0)
(-0.0861979 0.0748333 0)
(-0.108414 0.0908289 0)
(-0.132639 0.106865 0)
(-0.157998 0.121768 0)
(-0.183352 0.134488 0)
(-0.207738 0.144165 0)
(-0.230248 0.150313 0)
(-0.250289 0.15274 0)
(-0.267428 0.151569 0)
(-0.281558 0.147121 0)
(-0.292733 0.139878 0)
(-0.301249 0.130372 0)
(-0.307462 0.119142 0)
(-0.311831 0.106658 0)
(-0.31477 0.0933118 0)
(-0.316696 0.0793892 0)
(-0.317928 0.0650942 0)
(-0.318757 0.0505413 0)
(-0.319382 0.0357941 0)
(-0.319982 0.0208609 0)
(-0.320666 0.00572893 0)
(-0.321546 -0.00964314 0)
(-0.322683 -0.0252987 0)
(-0.324142 -0.0412923 0)
(-0.32594 -0.0576659 0)
(-0.328072 -0.074452 0)
(-0.33044 -0.0916409 0)
(-0.332853 -0.109163 0)
(-0.334937 -0.126834 0)
(-0.33611 -0.144304 0)
(-0.335502 -0.160976 0)
(-0.331978 -0.175957 0)
(-0.324167 -0.188012 0)
(-0.310656 -0.195629 0)
(-0.290251 -0.197165 0)
(-0.262401 -0.191176 0)
(-0.227596 -0.17685 0)
(-0.187698 -0.154519 0)
(-0.145878 -0.125982 0)
(-0.106072 -0.0944255 0)
(-0.0718267 -0.0636021 0)
(-0.0451585 -0.0366354 0)
(-0.0260637 -0.0150312 0)
(-0.0132963 0.00110383 0)
(-0.00526964 0.0124839 0)
(-0.000723914 0.0198386 0)
(0.0014179 0.0238639 0)
(0.00188692 0.0248404 0)
(0.00145548 0.022814 0)
(0.000648828 0.0172276 0)
(7.5023e-05 0.00742924 0)
(-0.00049958 0.00147022 0)
(-0.00342276 0.00621209 0)
(-0.00837034 0.0115599 0)
(-0.0147447 0.0181501 0)
(-0.0230373 0.0261515 0)
(-0.0333465 0.0361578 0)
(-0.0463514 0.0482551 0)
(-0.0621908 0.062658 0)
(-0.0811626 0.0790394 0)
(-0.102877 0.0968359 0)
(-0.126837 0.114948 0)
(-0.151967 0.13214 0)
(-0.177233 0.147097 0)
(-0.201425 0.158797 0)
(-0.223647 0.166541 0)
(-0.243107 0.170073 0)
(-0.259424 0.169468 0)
(-0.272414 0.165127 0)
(-0.282265 0.157622 0)
(-0.289293 0.147634 0)
(-0.294019 0.135815 0)
(-0.296939 0.122755 0)
(-0.298587 0.108909 0)
(-0.299377 0.0946198 0)
(-0.299685 0.0800989 0)
(-0.299751 0.0654746 0)
(-0.299784 0.0507924 0)
(-0.299888 0.0360613 0)
(-0.300164 0.0212501 0)
(-0.300655 0.00632158 0)
(-0.301425 -0.00877899 0)
(-0.302508 -0.0241011 0)
(-0.303971 -0.0397048 0)
(-0.305863 -0.0556444 0)
(-0.308255 -0.071982 0)
(-0.311174 -0.0887686 0)
(-0.314619 -0.106042 0)
(-0.31847 -0.123788 0)
(-0.322455 -0.141899 0)
(-0.326032 -0.160092 0)
(-0.328334 -0.177812 0)
(-0.328086 -0.194125 0)
(-0.323657 -0.207642 0)
(-0.313197 -0.21653 0)
(-0.294999 -0.218684 0)
(-0.26801 -0.212117 0)
(-0.232459 -0.195585 0)
(-0.190355 -0.169313 0)
(-0.145567 -0.135587 0)
(-0.103058 -0.0986205 0)
(-0.0673155 -0.0634139 0)
(-0.0405689 -0.0337372 0)
(-0.0223985 -0.011065 0)
(-0.0109072 0.00510947 0)
(-0.00419331 0.0158212 0)
(-0.000679123 0.0221242 0)
(0.000702062 0.02454 0)
(0.000876436 0.0232513 0)
(0.000458653 0.0178246 0)
(5.7764e-05 0.007704 0)
(-0.000711984 0.0034857 0)
(-0.00454224 0.0107605 0)
(-0.0107872 0.0179165 0)
(-0.0186054 0.0262605 0)
(-0.0286035 0.0363237 0)
(-0.040815 0.0488229 0)
(-0.0559474 0.0637885 0)
(-0.073945 0.0812191 0)
(-0.0949116 0.100445 0)
(-0.118118 0.120493 0)
(-0.142808 0.139911 0)
(-0.16768 0.157255 0)
(-0.191643 0.171194 0)
(-0.213509 0.180849 0)
(-0.232541 0.185771 0)
(-0.24816 0.186012 0)
(-0.260291 0.181982 0)
(-0.269059 0.174383 0)
(-0.274955 0.164019 0)
(-0.278508 0.151706 0)
(-0.280379 0.138138 0)
(-0.281097 0.12387 0)
(-0.281175 0.109276 0)
(-0.280938 0.0945973 0)
(-0.280662 0.0799437 0)
(-0.280469 0.0653567 0)
(-0.280462 0.0508149 0)
(-0.28065 0.0362821 0)
(-0.28106 0.0217019 0)
(-0.28167 0.0070278 0)
(-0.282501 -0.00779137 0)
(-0.283555 -0.0227939 0)
(-0.284884 -0.0380238 0)
(-0.286538 -0.0535211 0)
(-0.288612 -0.0693392 0)
(-0.291196 -0.0855383 0)
(-0.294403 -0.102195 0)
(-0.298295 -0.119384 0)
(-0.302873 -0.137163 0)
(-0.307965 -0.155511 0)
(-0.313146 -0.174242 0)
(-0.317588 -0.192875 0)
(-0.319976 -0.210472 0)
(-0.318456 -0.225501 0)
(-0.310791 -0.235788 0)
(-0.294721 -0.238681 0)
(-0.268637 -0.231532 0)
(-0.232424 -0.212526 0)
(-0.188252 -0.181785 0)
(-0.140777 -0.142235 0)
(-0.0961889 -0.0995481 0)
(-0.0598936 -0.0601777 0)
(-0.0340882 -0.0285602 0)
(-0.0175393 -0.00559378 0)
(-0.00776188 0.00978915 0)
(-0.00248009 0.0191601 0)
(-9.97453e-05 0.023482 0)
(0.000614627 0.0232359 0)
(0.000438619 0.0181978 0)
(8.01196e-05 0.0079321 0)
(-0.000942956 0.00611438 0)
(-0.00571754 0.0164266 0)
(-0.0132746 0.025622 0)
(-0.0225177 0.0358978 0)
(-0.0341643 0.0482238 0)
(-0.0481441 0.0633851 0)
(-0.0651407 0.0812748 0)
(-0.0848419 0.101568 0)
(-0.107127 0.123191 0)
(-0.130942 0.144756 0)
(-0.155345 0.16454 0)
(-0.1789 0.181004 0)
(-0.200566 0.192929 0)
(-0.219277 0.199684 0)
(-0.234553 0.201167 0)
(-0.246116 0.197807 0)
(-0.254247 0.190374 0)
(-0.259367 0.179838 0)
(-0.262199 0.167159 0)
(-0.263382 0.153187 0)
(-0.2636 0.138562 0)
(-0.263316 0.123727 0)
(-0.262935 0.108926 0)
(-0.262649 0.0942756 0)
(-0.262607 0.0797807 0)
(-0.262814 0.0654062 0)
(-0.263283 0.0510818 0)
(-0.263944 0.0367456 0)
(-0.264773 0.0223343 0)
(-0.265705 0.00780752 0)
(-0.266733 -0.00686972 0)
(-0.26783 -0.0217137 0)
(-0.269033 -0.0367415 0)
(-0.270375 -0.0519647 0)
(-0.271946 -0.0674077 0)
(-0.273847 -0.083108 0)
(-0.276227 -0.0991311 0)
(-0.279233 -0.115572 0)
(-0.283027 -0.132552 0)
(-0.287695 -0.150201 0)
(-0.293198 -0.168598 0)
(-0.299223 -0.187675 0)
(-0.305037 -0.207043 0)
(-0.309312 -0.225784 0)
(-0.31004 -0.242224 0)
(-0.304618 -0.253817 0)
(-0.290252 -0.25728 0)
(-0.264752 -0.249172 0)
(-0.227657 -0.227031 0)
(-0.18137 -0.190911 0)
(-0.131539 -0.14478 0)
(-0.0857569 -0.0962214 0)
(-0.0502164 -0.0534979 0)
(-0.0264873 -0.0210698 0)
(-0.0122497 0.000980085 0)
(-0.00444557 0.0146838 0)
(-0.000761162 0.0216553 0)
(0.00054818 0.0228982 0)
(0.000535419 0.0185195 0)
(0.000129882 0.00823449 0)
(-0.00118731 0.00942579 0)
(-0.00691202 0.0232786 0)
(-0.0157485 0.0347195 0)
(-0.0263415 0.0470745 0)
(-0.0395005 0.0618089 0)
(-0.0550094 0.0796991 0)
(-0.073479 0.10041 0)
(-0.0943072 0.123205 0)
(-0.117156 0.146585 0)
(-0.140701 0.168796 0)
(-0.163903 0.187955 0)
(-0.185296 0.202559 0)
(-0.20399 0.211626 0)
(-0.219134 0.214877 0)
(-0.230589 0.212638 0)
(-0.238411 0.205745 0)
(-0.243214 0.195289 0)
(-0.245629 0.182422 0)
(-0.246502 0.168147 0)
(-0.246456 0.153243 0)
(-0.2461 0.138214 0)
(-0.245758 0.123347 0)
(-0.245696 0.108738 0)
(-0.245961 0.0943823 0)
(-0.246595 0.0802001 0)
(-0.247508 0.0661036 0)
(-0.248655 0.0519966 0)
(-0.249924 0.0378102 0)
(-0.251265 0.0234879 0)
(-0.252592 0.00900357 0)
(-0.253886 -0.00565781 0)
(-0.255106 -0.0204901 0)
(-0.256273 -0.0354837 0)
(-0.257399 -0.0506218 0)
(-0.258555 -0.065896 0)
(-0.259818 -0.08131 0)
(-0.261327 -0.0968936 0)
(-0.263238 -0.112716 0)
(-0.265762 -0.128893 0)
(-0.269108 -0.145599 0)
(-0.273472 -0.163038 0)
(-0.278921 -0.181404 0)
(-0.285269 -0.200745 0)
(-0.29187 -0.220781 0)
(-0.297402 -0.240596 0)
(-0.29971 -0.258347 0)
(-0.295844 -0.271039 0)
(-0.282496 -0.274643 0)
(-0.256922 -0.264814 0)
(-0.218416 -0.238383 0)
(-0.169807 -0.195622 0)
(-0.118074 -0.142075 0)
(-0.0723701 -0.0880877 0)
(-0.0392029 -0.0434176 0)
(-0.0186625 -0.0119511 0)
(-0.00720374 0.00797152 0)
(-0.00163393 0.0187457 0)
(0.000496358 0.0221576 0)
(0.000678499 0.0188069 0)
(0.000195346 0.00863659 0)
(-0.00142036 0.0133728 0)
(-0.00803267 0.0312067 0)
(-0.0180405 0.045045 0)
(-0.0298312 0.059559 0)
(-0.0442784 0.0767442 0)
(-0.0609834 0.0972807 0)
(-0.080449 0.120531 0)
(-0.101779 0.145294 0)
(-0.124456 0.169674 0)
(-0.146958 0.191634 0)
(-0.168249 0.209257 0)
(-0.186929 0.221202 0)
(-0.202351 0.226844 0)
(-0.21395 0.22634 0)
(-0.221957 0.220481 0)
(-0.226734 0.210476 0)
(-0.22914 0.197646 0)
(-0.229902 0.183201 0)
(-0.229863 0.168073 0)
(-0.229539 0.152885 0)
(-0.229401 0.13796 0)
(-0.229609 0.123412 0)
(-0.230291 0.109204 0)
(-0.231377 0.0952343 0)
(-0.232831 0.0813706 0)
(-0.234509 0.0674983 0)
(-0.236338 0.0535185 0)
(-0.23819 0.0393704 0)
(-0.240012 0.025014 0)
(-0.241716 0.0104412 0)
(-0.243282 -0.00434202 0)
(-0.244663 -0.0193096 0)
(-0.24587 -0.034429 0)
(-0.246899 -0.0496606 0)
(-0.247799 -0.0649668 0)
(-0.248615 -0.0803198 0)
(-0.249452 -0.0957087 0)
(-0.250431 -0.11116 0)
(-0.251744 -0.126743 0)
(-0.253615 -0.142605 0)
(-0.256328 -0.158964 0)
(-0.260152 -0.176121 0)
(-0.265275 -0.194381 0)
(-0.271624 -0.213942 0)
(-0.27863 -0.234607 0)
(-0.284957 -0.255452 0)
(-0.288257 -0.274367 0)
(-0.285226 -0.287781 0)
(-0.272023 -0.290758 0)
(-0.245465 -0.277906 0)
(-0.204771 -0.24548 0)
(-0.153641 -0.194404 0)
(-0.100795 -0.132972 0)
(-0.0570183 -0.0747972 0)
(-0.0280031 -0.0306463 0)
(-0.0114581 -0.00192356 0)
(-0.00314282 0.0142931 0)
(0.000229804 0.0208607 0)
(0.000772049 0.0190543 0)
(0.000258147 0.00917328 0)
(-0.00163291 0.0179454 0)
(-0.00903488 0.0401684 0)
(-0.0200606 0.0565246 0)
(-0.0328481 0.073234 0)
(-0.0482971 0.0928386 0)
(-0.0658032 0.115835 0)
(-0.0857446 0.141225 0)
(-0.106959 0.167328 0)
(-0.128807 0.191915 0)
(-0.149659 0.212773 0)
(-0.168571 0.228086 0)
(-0.184294 0.236797 0)
(-0.196489 0.238735 0)
(-0.204903 0.234541 0)
(-0.210109 0.225454 0)
(-0.212693 0.212961 0)
(-0.213645 0.198493 0)
(-0.213668 0.183195 0)
(-0.213514 0.167839 0)
(-0.213537 0.152841 0)
(-0.214052 0.138336 0)
(-0.215064 0.124281 0)
(-0.216599 0.110536 0)
(-0.218504 0.0969392 0)
(-0.220704 0.0833356 0)
(-0.223033 0.0696075 0)
(-0.22542 0.0556688 0)
(-0.227737 0.0414742 0)
(-0.229944 0.0270038 0)
(-0.231958 0.0122661 0)
(-0.233765 -0.00271523 0)
(-0.235317 -0.0178998 0)
(-0.236624 -0.0332389 0)
(-0.237668 -0.0486776 0)
(-0.238482 -0.0641581 0)
(-0.239082 -0.0796301 0)
(-0.239539 -0.095049 0)
(-0.239925 -0.110402 0)
(-0.240382 -0.125702 0)
(-0.241085 -0.141039 0)
(-0.242298 -0.15657 0)
(-0.244336 -0.172583 0)
(-0.247559 -0.189456 0)
(-0.252256 -0.207646 0)
(-0.258462 -0.227475 0)
(-0.265671 -0.248857 0)
(-0.27246 -0.27076 0)
(-0.276255 -0.290691 0)
(-0.273275 -0.304275 0)
(-0.259205 -0.305423 0)
(-0.230493 -0.287641 0)
(-0.18675 -0.246829 0)
(-0.133076 -0.185724 0)
(-0.0806044 -0.116659 0)
(-0.0411725 -0.0571947 0)
(-0.0178065 -0.0163035 0)
(-0.00567326 0.00753098 0)
(-0.000452118 0.0186219 0)
(0.000737212 0.0190899 0)
(0.000306098 0.00978546 0)
(-0.00179649 0.0230099 0)
(-0.00982255 0.049935 0)
(-0.0216488 0.068866 0)
(-0.0351751 0.0877223 0)
(-0.0512889 0.109596 0)
(-0.0691726 0.134732 0)
(-0.0890818 0.161753 0)
(-0.109636 0.188518 0)
(-0.130141 0.21256 0)
(-0.148945 0.231601 0)
(-0.16527 0.244052 0)
(-0.178081 0.249241 0)
(-0.187368 0.24751 0)
(-0.193174 0.239982 0)
(-0.196341 0.228265 0)
(-0.197571 0.214006 0)
(-0.197871 0.198617 0)
(-0.197839 0.183082 0)
(-0.198082 0.167958 0)
(-0.198778 0.153444 0)
(-0.200102 0.139503 0)
(-0.201941 0.125971 0)
(-0.204254 0.112645 0)
(-0.206845 0.0993362 0)
(-0.209634 0.0858904 0)
(-0.212452 0.0722033 0)
(-0.215245 0.0582103 0)
(-0.217897 0.0438849 0)
(-0.220382 0.0292268 0)
(-0.222627 0.0142586 0)
(-0.224626 -0.000981559 0)
(-0.226333 -0.0164432 0)
(-0.227756 -0.0320651 0)
(-0.228869 -0.0477835 0)
(-0.229697 -0.0635259 0)
(-0.230237 -0.079229 0)
(-0.230532 -0.0948243 0)
(-0.230619 -0.110271 0)
(-0.230586 -0.125537 0)
(-0.230547 -0.140655 0)
(-0.230696 -0.1557 0)
(-0.231298 -0.170888 0)
(-0.232718 -0.186539 0)
(-0.235386 -0.203166 0)
(-0.239684 -0.221342 0)
(-0.245752 -0.241573 0)
(-0.253075 -0.263802 0)
(-0.26012 -0.286828 0)
(-0.263897 -0.307524 0)
(-0.260148 -0.320391 0)
(-0.243974 -0.317927 0)
(-0.211842 -0.292446 0)
(-0.164218 -0.240393 0)
(-0.108662 -0.167821 0)
(-0.0590286 -0.0935153 0)
(-0.026653 -0.03673 0)
(-0.00953653 -0.00240087 0)
(-0.00169715 0.0149722 0)
(0.000518911 0.0187143 0)
(0.00032912 0.01042 0)
(-0.00190552 0.0284745 0)
(-0.0103685 0.0603709 0)
(-0.0227521 0.0819137 0)
(-0.0367382 0.102835 0)
(-0.0531626 0.12678 0)
(-0.0710075 0.153692 0)
(-0.0904217 0.181815 0)
(-0.109871 0.208602 0)
(-0.128671 0.231445 0)
(-0.145225 0.248121 0)
(-0.158972 0.257377 0)
(-0.169122 0.258995 0)
(-0.175981 0.253856 0)
(-0.179829 0.243504 0)
(-0.181678 0.229813 0)
(-0.182245 0.214459 0)
(-0.182473 0.198735 0)
(-0.182799 0.183397 0)
(-0.183677 0.168775 0)
(-0.185125 0.154865 0)
(-0.187213 0.141498 0)
(-0.18975 0.128429 0)
(-0.192665 0.115429 0)
(-0.195752 0.102306 0)
(-0.198942 0.0889251 0)
(-0.202083 0.0752025 0)
(-0.20514 0.0610968 0)
(-0.208013 0.0465983 0)
(-0.21069 0.0317225 0)
(-0.213105 0.0165014 0)
(-0.215258 0.000983932 0)
(-0.217102 -0.0147739 0)
(-0.218647 -0.030702 0)
(-0.219863 -0.0467317 0)
(-0.220768 -0.0627804 0)
(-0.221348 -0.0787784 0)
(-0.221634 -0.0946418 0)
(-0.221634 -0.110316 0)
(-0.221404 -0.125733 0)
(-0.221001 -0.140888 0)
(-0.220547 -0.155782 0)
(-0.220223 -0.170544 0)
(-0.220316 -0.185382 0)
(-0.221232 -0.200736 0)
(-0.223461 -0.217198 0)
(-0.227498 -0.235552 0)
(-0.233508 -0.256412 0)
(-0.240975 -0.279749 0)
(-0.248033 -0.303956 0)
(-0.251267 -0.324952 0)
(-0.245663 -0.3357 0)
(-0.226024 -0.326892 0)
(-0.189048 -0.290115 0)
(-0.137281 -0.223575 0)
(-0.0815446 -0.140083 0)
(-0.0385334 -0.0652483 0)
(-0.0148821 -0.0165299 0)
(-0.00362841 0.00927752 0)
(0.000103054 0.0176274 0)
(0.000322518 0.0109727 0)
(-0.00193669 0.0341318 0)
(-0.0106006 0.0711562 0)
(-0.0232618 0.0952879 0)
(-0.037407 0.118116 0)
(-0.0537875 0.14384 0)
(-0.071211 0.172093 0)
(-0.0897459 0.200774 0)
(-0.107772 0.227001 0)
(-0.12467 0.248132 0)
(-0.138956 0.262098 0)
(-0.150312 0.268063 0)
(-0.15819 0.266297 0)
(-0.163167 0.25819 0)
(-0.16568 0.24562 0)
(-0.166817 0.230604 0)
(-0.167231 0.214739 0)
(-0.167743 0.199122 0)
(-0.168626 0.184259 0)
(-0.170186 0.170265 0)
(-0.172321 0.156971 0)
(-0.175032 0.144116 0)
(-0.17809 0.131414 0)
(-0.181421 0.118634 0)
(-0.184829 0.105602 0)
(-0.188268 0.0922084 0)
(-0.191604 0.0783917 0)
(-0.194825 0.0641317 0)
(-0.19784 0.0494306 0)
(-0.200651 0.0343163 0)
(-0.203193 0.0188262 0)
(-0.205469 0.0030174 0)
(-0.207432 -0.0130507 0)
(-0.209089 -0.0292995 0)
(-0.210408 -0.0456572 0)
(-0.211404 -0.0620319 0)
(-0.212059 -0.0783512 0)
(-0.212398 -0.0945196 0)
(-0.212418 -0.110478 0)
(-0.212156 -0.126138 0)
(-0.211635 -0.141474 0)
(-0.210923 -0.156436 0)
(-0.210123 -0.171085 0)
(-0.209418 -0.185511 0)
(-0.209118 -0.200032 0)
(-0.209659 -0.215117 0)
(-0.211638 -0.231581 0)
(-0.215581 -0.250343 0)
(-0.221736 -0.272202 0)
(-0.229337 -0.296948 0)
(-0.236199 -0.322294 0)
(-0.238065 -0.342699 0)
(-0.229374 -0.348967 0)
(-0.20455 -0.329971 0)
(-0.1617 -0.27724 0)
(-0.106382 -0.194155 0)
(-0.054244 -0.103497 0)
(-0.021715 -0.0362569 0)
(-0.00639716 0.000952468 0)
(-0.000510202 0.0154905 0)
(0.000284511 0.0113734 0)
(-0.00189484 0.0398404 0)
(-0.0105267 0.0821122 0)
(-0.0231871 0.108816 0)
(-0.0372032 0.133392 0)
(-0.0532118 0.160609 0)
(-0.0698871 0.189802 0)
(-0.087245 0.218571 0)
(-0.103646 0.24378 0)
(-0.118576 0.262847 0)
(-0.130704 0.273938 0)
(-0.139951 0.27669 0)
(-0.145993 0.271859 0)
(-0.149603 0.261283 0)
(-0.151303 0.247071 0)
(-0.15217 0.231273 0)
(-0.152744 0.215321 0)
(-0.153707 0.200083 0)
(-0.155174 0.185816 0)
(-0.157337 0.172455 0)
(-0.160013 0.159706 0)
(-0.163167 0.147258 0)
(-0.16656 0.134812 0)
(-0.170137 0.122159 0)
(-0.173719 0.109145 0)
(-0.177288 0.0956912 0)
(-0.180729 0.0817531 0)
(-0.184045 0.0673272 0)
(-0.187155 0.0524219 0)
(-0.190066 0.0370728 0)
(-0.192712 0.0213185 0)
(-0.195099 0.00522234 0)
(-0.197172 -0.0111551 0)
(-0.19894 -0.027727 0)
(-0.200364 -0.0444194 0)
(-0.201459 -0.0611301 0)
(-0.202204 -0.0777853 0)
(-0.202625 -0.0942786 0)
(-0.202715 -0.110551 0)
(-0.202504 -0.126502 0)
(-0.202 -0.142102 0)
(-0.201243 -0.157266 0)