/*--------------------------------*- C++ -*----------------------------------*\
| =========                 |                                                 |
| \\      /  F ield         | OpenFOAM: The Open Source CFD Toolbox           |
|  \\    /   O peration     | Version:  2406                                  |
|   \\  /    A nd           | Website:  www.openfoam.com                      |
|    \\/     M anipulation  |                                                 |
\*---------------------------------------------------------------------------*/
FoamFile
{
    version     2.0;
    format      ascii;
    arch        "LSB;label=32;scalar=64";
    class       surfaceScalarField;
    location    "41";
    object      phi;
}
// * * * * * * * * * * * * * * * * * * * * * * * * * * * * * * * * * * * * * //

dimensions      [0 3 -1 0 0 0 0];

oriented        oriented;

internalField   nonuniform List<scalar> 
8064
(
2.73701e-07
-2.73976e-07
1.26662e-06
-9.92919e-07
2.72373e-06
-1.45711e-06
4.28443e-06
-1.56069e-06
5.66044e-06
-1.37601e-06
6.69731e-06
-1.03687e-06
7.36765e-06
-6.70343e-07
7.73227e-06
-3.64624e-07
7.88989e-06
-1.57619e-07
7.93112e-06
-4.12246e-08
7.90204e-06
2.9078e-08
7.80184e-06
1.00199e-07
7.57882e-06
2.23019e-07
7.14969e-06
4.29134e-07
6.41243e-06
7.37257e-07
5.25756e-06
1.15487e-06
3.57044e-06
1.68712e-06
1.23345e-06
2.33698e-06
-1.86971e-06
3.10316e-06
-5.846e-06
3.97629e-06
-1.07847e-05
4.93874e-06
-1.67421e-05
5.95734e-06
-2.37251e-05
6.98298e-06
-3.16767e-05
7.95168e-06
-4.04665e-05
8.78975e-06
-4.98863e-05
9.41982e-06
-5.96526e-05
9.76628e-06
-6.94139e-05
9.76127e-06
-7.87657e-05
9.35185e-06
-8.72731e-05
8.50736e-06
-9.44984e-05
7.22537e-06
-0.00010003
5.53161e-06
-0.000103503
3.47277e-06
-0.000104634
1.13148e-06
-0.000103108
-1.52658e-06
-9.87394e-05
-4.36833e-06
-9.15345e-05
-7.20484e-06
-8.15981e-05
-9.9365e-06
-6.91731e-05
-1.24249e-05
-5.46597e-05
-1.45134e-05
-3.86198e-05
-1.60399e-05
-2.17694e-05
-1.68504e-05
-4.95265e-06
-1.68168e-05
1.09674e-05
-1.59201e-05
2.51077e-05
-1.41403e-05
3.66413e-05
-1.15336e-05
4.49899e-05
-8.34859e-06
4.9861e-05
-4.87112e-06
5.13207e-05
-1.45964e-06
4.97238e-05
1.59683e-06
4.57693e-05
3.95454e-06
4.02357e-05
5.53358e-06
3.39385e-05
6.2972e-06
2.75775e-05
6.36097e-06
2.16553e-05
5.9222e-06
1.64607e-05
5.19462e-06
1.21005e-05
4.3602e-06
8.55337e-06
3.54715e-06
5.72569e-06
2.82768e-06
3.50303e-06
2.22266e-06
1.80045e-06
1.70258e-06
6.11462e-07
1.18899e-06
1.63832e-08
5.95079e-07
1.63836e-08
9.35384e-07
-1.20936e-06
3.2958e-06
-3.35333e-06
6.44665e-06
-4.60798e-06
9.7074e-06
-4.82144e-06
1.25404e-05
-4.20905e-06
1.46344e-05
-3.1308e-06
1.58982e-05
-1.93418e-06
1.63971e-05
-8.63551e-07
1.62638e-05
-2.42531e-08
1.56124e-05
6.10122e-07
1.44813e-05
1.16025e-06
1.2798e-05
1.78346e-06
1.03937e-05
2.62736e-06
7.02941e-06
3.79338e-06
2.42446e-06
5.3422e-06
-3.71544e-06
7.29478e-06
-1.16756e-05
9.64727e-06
-2.17118e-05
1.23731e-05
-3.40186e-05
1.541e-05
-4.86855e-05
1.86432e-05
-6.56449e-05
2.18981e-05
-8.4634e-05
2.49465e-05
-0.000105186
2.75349e-05
-0.000126658
2.94241e-05
-0.000148292
3.04235e-05
-0.000169283
3.04111e-05
-0.000188854
2.93365e-05
-0.000206303
2.72101e-05
-0.000221037
2.40864e-05
-0.000232579
2.0049e-05
-0.000240558
1.52048e-05
-0.000244716
9.68927e-06
-0.000244928
3.68503e-06
-0.000241006
-2.79051e-06
-0.000232844
-9.68879e-06
-0.000220587
-1.66248e-05
-0.000204354
-2.34382e-05
-0.000184387
-2.99032e-05
-0.00016106
-3.57527e-05
-0.000134886
-4.06865e-05
-0.000106539
-4.43871e-05
-7.68481e-05
-4.65415e-05
-4.67842e-05
-4.68806e-05
-1.74669e-05
-4.52373e-05
9.96881e-06
-4.15761e-05
3.44644e-05
-3.60292e-05
5.48596e-05
-2.87437e-05
7.0387e-05
-2.03985e-05
8.06158e-05
-1.16885e-05
8.55631e-05
-3.35045e-06
8.54758e-05
4.04187e-06
8.10854e-05
9.92398e-06
7.34485e-05
1.39341e-05
6.37634e-05
1.6046e-05
5.31986e-05
1.6487e-05
4.27315e-05
1.56617e-05
3.30513e-05
1.40404e-05
2.45374e-05
1.20611e-05
1.73179e-05
1.00471e-05
1.13651e-05
8.17553e-06
6.60649e-06
6.46116e-06
3.03529e-06
4.76019e-06
7.73824e-07
2.85655e-06
7.90207e-07
1.42754e-06
-2.6369e-06
4.67395e-06
-6.59974e-06
8.75138e-06
-8.6854e-06
1.27796e-05
-8.84971e-06
1.61056e-05
-7.535e-06
1.83553e-05
-5.38053e-06
1.94029e-05
-2.98174e-06
1.92833e-05
-7.43965e-07
1.80837e-05
1.1754e-06
1.58487e-05
2.84511e-06
1.25075e-05
4.50138e-06
7.85276e-06
6.43822e-06
1.55409e-06
8.92604e-06
-6.79842e-06
1.21459e-05
-1.76326e-05
1.61764e-05
-3.13507e-05
2.10129e-05
-4.82642e-05
2.65608e-05
-6.85101e-05
3.2619e-05
-9.19595e-05
3.88594e-05
-0.000118154
4.48381e-05
-0.000146317
5.00608e-05
-0.000175445
5.40747e-05
-0.000204458
5.65472e-05
-0.000232334
5.7301e-05
-0.000258213
5.63018e-05
-0.000281421
5.36196e-05
-0.000301471
4.93866e-05
-0.000318025
4.3764e-05
-0.000330859
3.69204e-05
-0.00033983
2.90194e-05
-0.000344845
2.02207e-05
-0.00034586
1.07037e-05
-0.000342942
7.67481e-07
-0.000335887
-9.84569e-06
-0.000324926
-2.06502e-05
-0.000310062
-3.14881e-05
-0.000291373
-4.2128e-05
-0.000269008
-5.22684e-05
-0.000243203
-6.15576e-05
-0.000214306
-6.9583e-05
-0.000182802
-7.58917e-05
-0.000149329
-8.00142e-05
-0.000114694
-8.15153e-05
-7.98681e-05
-8.00636e-05
-4.59587e-05
-7.54855e-05
-1.41605e-05
-6.78274e-05
1.45251e-05
-5.74293e-05
3.90197e-05
-4.48931e-05
5.84381e-05
-3.11069e-05
7.22791e-05
-1.71915e-05
8.05777e-05
-4.25665e-06
8.34792e-05
7.02247e-06
8.1542e-05
1.58713e-05
7.57052e-05
2.18829e-05
6.7088e-05
2.51041e-05
5.68728e-05
2.5877e-05
4.61409e-05
2.47723e-05
3.57454e-05
2.24566e-05
2.62473e-05
1.95452e-05
1.7944e-05
1.64789e-05
1.09699e-05
1.34353e-05
5.44139e-06
1.02887e-05
1.60602e-06
6.69192e-06
2.39622e-06
1.7464e-06
-4.38331e-06
5.50506e-06
-1.03584e-05
9.96709e-06
-1.31474e-05
1.40761e-05
-1.29587e-05
1.71162e-05
-1.05751e-05
1.87061e-05
-6.97042e-06
1.87145e-05
-2.9901e-06
1.7135e-05
8.35472e-07
1.39629e-05
4.34751e-06
9.10194e-06
7.70611e-06
2.29786e-06
1.13055e-05
-6.85971e-06
1.55958e-05
-1.88706e-05
2.0937e-05
-3.42551e-05
2.75303e-05
-5.34534e-05
3.53747e-05
-7.66987e-05
4.42582e-05
-0.000103884
5.37456e-05
-0.00013446
6.31954e-05
-0.000167451
7.18501e-05
-0.000201601
7.89884e-05
-0.000235608
8.40677e-05
-0.000268322
8.67892e-05
-0.000298856
8.70808e-05
-0.00032659
8.50353e-05
-0.000351135
8.08467e-05
-0.000372273
7.47569e-05
-0.000389902
6.70164e-05
-0.000403997
5.78591e-05
-0.000414568
4.74905e-05
-0.000421634
3.60857e-05
-0.000425214
2.38007e-05
-0.00042531
1.07995e-05
-0.000421799
-2.74306e-06
-0.00041488
-1.67647e-05
-0.000404446
-3.10841e-05
-0.000390442
-4.54923e-05
-0.000372828
-5.97423e-05
-0.000351596
-7.35002e-05
-0.000326797
-8.63563e-05
-0.000298569
-9.7811e-05
-0.000267172
-0.000107289
-0.000233022
-0.000114164
-0.000196729
-0.000117807
-0.000159115
-0.000117678
-0.000121195
-0.000113406
-8.41334e-05
-0.000104889
-4.91764e-05
-9.23863e-05
-1.75095e-05
-7.656e-05
9.87164e-06
-5.8488e-05
3.21515e-05
-3.94714e-05
4.88052e-05
-2.09103e-05
5.99287e-05
-4.101e-06
6.57151e-05
1.00849e-05
6.66575e-05
2.09404e-05
6.35375e-05
2.82241e-05
5.73264e-05
3.20881e-05
4.90894e-05
3.30094e-05
3.98519e-05
3.1694e-05
3.04761e-05
2.8921e-05
2.15983e-05
2.53566e-05
1.36604e-05
2.13732e-05
7.02518e-06
1.69239e-05
2.17225e-06
1.15448e-05
4.56847e-06
1.95585e-06
-6.33916e-06
5.92643e-06
-1.4329e-05
1.03007e-05
-1.75217e-05
1.38774e-05
-1.65354e-05
1.59219e-05
-1.26196e-05
1.60812e-05
-7.12971e-06
1.42336e-05
-1.1425e-06
1.03006e-05
4.76846e-06
4.15815e-06
1.04899e-05
-4.5104e-06
1.63747e-05
-1.61824e-05
2.29774e-05
-3.14372e-05
3.08507e-05
-5.08465e-05
4.03463e-05
-7.4803e-05
5.14868e-05
-0.000103344
6.39155e-05
-0.000136
7.69145e-05
-0.000171762
8.95072e-05
-0.000209227
0.00010066
-0.000246889
0.000109512
-0.000283419
0.000115519
-0.000317816
0.000118465
-0.000349426
0.000118399
-0.000377884
0.000115539
-0.00040303
0.000110182
-0.000424839
0.000102655
-0.000443358
9.32763e-05
-0.000458673
8.23311e-05
-0.000470875
7.00612e-05
-0.000480049
5.66648e-05
-0.000486263
4.22999e-05
-0.000489554
2.70919e-05
-0.000489878
1.11236e-05
-0.000487175
-5.44633e-06
-0.000481602
-2.23382e-05
-0.000472999
-3.9687e-05
-0.000461224
-5.72667e-05
-0.000446143
-7.48241e-05
-0.000427608
-9.2035e-05
-0.000405495
-0.000108469
-0.000379722
-0.000123584
-0.000350294
-0.000136716
-0.000317353
-0.000147106
-0.000281237
-0.000153923
-0.000242534
-0.000156381
-0.000202108
-0.000153832
-0.000161098
-0.000145899
-0.000120856
-0.000132628
-8.28219e-05
-0.000114594
-4.83819e-05
-9.29279e-05
-1.86443e-05
-6.9209e-05
5.68131e-06
-4.5236e-05
2.42877e-05
-2.27074e-05
3.73187e-05
-2.94612e-06
4.51334e-05
1.31257e-05
4.82499e-05
2.51076e-05
4.73771e-05
3.29608e-05
4.33701e-05
3.70165e-05
3.71709e-05
3.78931e-05
2.97112e-05
3.63807e-05
2.18191e-05
3.32488e-05
1.41908e-05
2.90015e-05
7.4549e-06
2.36598e-05
2.34278e-06
1.6657e-05
6.91125e-06
2.07687e-06
-8.41603e-06
5.9599e-06
-1.8212e-05
9.76108e-06
-2.13229e-05
1.21929e-05
-1.89672e-05
1.25524e-05
-1.29791e-05
1.05417e-05
-5.11903e-06
6.01799e-06
3.38125e-06
-1.16716e-06
1.19536e-05
-1.13586e-05
2.06814e-05
-2.50733e-05
3.00894e-05
-4.29559e-05
4.08601e-05
-6.55967e-05
5.34914e-05
-9.32998e-05
6.80494e-05
-0.000125864
8.4051e-05
-0.000162459
0.00010051
-0.000201694
0.00011615
-0.000241899
0.000129713
-0.000281487
0.000140248
-0.000319209
0.000147234
-0.000354238
0.000150547
-0.000386111
0.000150339
-0.000414636
0.000146924
-0.000439795
0.000140697
-0.000461674
0.00013206
-0.000480412
0.000121393
-0.00049617
0.000109034
-0.000509108
9.52687e-05
-0.000519377
8.03311e-05
-0.000527116
6.44037e-05
-0.000532439
4.76226e-05
-0.000535418
3.00706e-05
-0.000536037
1.1743e-05
-0.000534336
-7.14716e-06
-0.000530386
-2.62888e-05
-0.000524052
-4.60208e-05
-0.000515173
-6.61455e-05
-0.000503545
-8.64518e-05
-0.000488917
-0.000106663
-0.000471001
-0.000126386
-0.000449494
-0.000145091
-0.000424119
-0.000162092
-0.000394679
-0.000176546
-0.000361123
-0.000187478
-0.000323641
-0.000193863
-0.000282773
-0.0001947
-0.000239454
-0.000189218
-0.000195033
-0.000177049
-0.000151193
-0.000158434
-0.000109776
-0.000134345
-7.24952e-05
-0.00010649
-4.06361e-05
-7.70951e-05
-1.48468e-05
-4.84967e-05
4.85282e-06
-2.26457e-05
1.87802e-05
-8.0168e-07
2.75675e-05
1.63204e-05
3.18507e-05
2.86776e-05
3.23286e-05
3.65386e-05
2.97973e-05
4.04243e-05
2.51208e-05
4.10572e-05
1.91724e-05
3.91972e-05
1.27926e-05
3.53813e-05
6.809e-06
2.96434e-05
2.13862e-06
2.13273e-05
9.04987e-06
2.08046e-06
-1.04965e-05
5.51406e-06
-2.16456e-05
8.20239e-06
-2.40112e-05
8.85651e-06
-1.96214e-05
6.85453e-06
-1.09771e-05
1.96202e-06
-2.26516e-07
-6.01706e-06
1.13603e-05
-1.73686e-05
2.33052e-05
-3.2618e-05
3.59307e-05
-5.24337e-05
4.99051e-05
-7.74042e-05
6.58305e-05
-0.00010775
8.38377e-05
-0.00014307
0.000103369
-0.00018225
0.00012323
-0.000223629
0.00014189
-0.000265377
0.000157897
-0.00030588
0.000170216
-0.000343972
0.000178339
-0.000378939
0.000182201
-0.000410435
0.000182044
-0.00043837
0.000178273
-0.000462807
0.000171361
-0.000483901
0.000161792
-0.000501859
0.000150019
-0.000516914
0.000136448
-0.000529306
0.000121426
-0.000539272
0.000105235
-0.000547035
8.80945e-05
-0.0005528
7.0168e-05
-0.00055674
5.15628e-05
-0.00055899
3.23208e-05
-0.000559633
1.2386e-05
-0.000558745
-8.03555e-06
-0.000556344
-2.86891e-05
-0.000552362
-5.00031e-05
-0.000546662
-7.18458e-05
-0.000539027
-9.4087e-05
-0.000529153
-0.000116537
-0.000516647
-0.000138892
-0.000501032
-0.000160706
-0.000481772
-0.000181351
-0.000458322
-0.000199996
-0.000430193
-0.000215607
-0.000397077
-0.00022698
-0.000358953
-0.000232823
-0.000316249
-0.000231922
-0.000269985
-0.000223313
-0.000221804
-0.000206615
-0.000173882
-0.000182268
-0.000128651
-0.00015172
-8.83603e-05
-0.000117386
-5.45755e-05
-8.22815e-05
-2.78722e-05
-4.9349e-05
-7.91682e-06
-2.07571e-05
6.00016e-06
2.40338e-06
1.4793e-05
1.98848e-05
1.92891e-05
3.20425e-05
2.02452e-05
3.94682e-05
1.84658e-05
4.28367e-05
1.48045e-05
4.28585e-05
1.01553e-05
4.00305e-05
5.45096e-06
3.43477e-05
1.68946e-06
2.50888e-05
1.07393e-05
1.905e-06
-1.24015e-05
4.43627e-06
-2.41769e-05
5.41712e-06
-2.49921e-05
3.65576e-06
-1.786e-05
-1.33378e-06
-5.98757e-06
-9.78025e-06
8.21995e-06
-2.19135e-05
2.34936e-05
-3.82023e-05
3.9594e-05
-5.9271e-05
5.69994e-05
-8.56905e-05
7.63246e-05
-0.000117632
9.77722e-05
-0.000154574
0.000120779
-0.000195223
0.000144019
-0.000237747
0.000165754
-0.000280201
0.000184344
-0.000320944
0.00019864
-0.000358832
0.000208105
-0.000393207
0.000212714
-0.000423782
0.000212776
-0.000450515
0.000208777
-0.000473521
0.000201279
-0.000493015
0.000190856
-0.000509276
0.000178052
-0.000522615
0.000163358
-0.000533361
0.000147193
-0.000541837
0.000129902
-0.000548353
0.000111751
-0.000553195
9.29364e-05
-0.000556616
7.35888e-05
-0.000558832
5.37792e-05
-0.000560027
3.35159e-05
-0.000560364
1.27229e-05
-0.000559939
-8.46115e-06
-0.000558736
-2.98918e-05
-0.000556765
-5.19743e-05
-0.000553954
-7.46571e-05
-0.000550136
-9.79042e-05
-0.00054504
-0.000121633
-0.000538265
-0.000145667
-0.000529273
-0.000169698
-0.000517386
-0.000193238
-0.000501804
-0.000215578
-0.00048166
-0.000235751
-0.000456114
-0.000252525
-0.000424499
-0.000264439
-0.000386518
-0.000269904
-0.000342438
-0.000267393
-0.000293332
-0.00025572
-0.000241204
-0.000234396
-0.000188866
-0.000204057
-0.000139559
-0.000166693
-9.62562e-05
-0.000125585
-6.0886e-05
-8.47192e-05
-3.38914e-05
-4.77516e-05
-1.44862e-05
-1.70019e-05
-1.40051e-06
6.79909e-06
6.6059e-06
2.40361e-05
1.05773e-05
3.54968e-05
1.13974e-05
4.20166e-05
9.93204e-06
4.43239e-05
7.09282e-06
4.28697e-05
3.84106e-06
3.75995e-05
1.1618e-06
2.77681e-05
1.19011e-05
1.47579e-06
-1.38773e-05
2.57041e-06
-2.52715e-05
1.21151e-06
-2.36332e-05
-3.52851e-06
-1.312e-05
-1.20562e-05
2.54011e-06
-2.45876e-05
2.07514e-05
-4.14412e-05
4.03472e-05
-6.31495e-05
6.13023e-05
-9.02369e-05
8.40869e-05
-0.000122859
0.000108947
-0.000160463
0.000135376
-0.000201687
0.000162004
-0.000244603
0.000186934
-0.000287172
0.000208324
-0.000327694
0.000224865
-0.000364995
0.000235941
-0.00039842
0.00024153
-0.000427696
0.000241989
-0.000452806
0.000237887
-0.000473913
0.000229884
-0.000491296
0.000218662
-0.000505313
0.000204872
-0.000516364
0.000189104
-0.000524866
0.00017186
-0.000531226
0.000153553
-0.000535825
0.000134501
-0.000539007
0.000114934
-0.000541075
9.50039e-05
-0.000542284
7.47984e-05
-0.000542851
5.4346e-05
-0.000542963
3.36273e-05
-0.000542813
1.25729e-05
-0.000542501
-8.77271e-06
-0.000541983
-3.04096e-05
-0.000541353
-5.26042e-05
-0.00054062
-7.53908e-05
-0.000539706
-9.88175e-05
-0.000538443
-0.000122897
-0.000536531
-0.000147579
-0.000533516
-0.000172713
-0.000528751
-0.000198003
-0.00052138
-0.000222949
-0.000510345
-0.000246786
-0.000494438
-0.000268432
-0.000472414
-0.000286463
-0.00044318
-0.000299138
-0.000406058
-0.000304516
-0.000361099
-0.000300679
-0.00030939
-0.000286105
-0.000253324
-0.000260123
-0.00019649
-0.000223527
-0.000143137
-0.000178938
-9.71345e-05
-0.000130721
-6.0795e-05
-8.40912e-05
-3.4289e-05
-4.35078e-05
-1.62092e-05
-1.12807e-05
-4.63848e-06
1.24654e-05
2.052e-06
2.88063e-05
5.09314e-06
3.89755e-05
5.52347e-06
4.38936e-05
4.30128e-06
4.40919e-05
2.3867e-06
3.9514e-05
7.0154e-07
2.94533e-05
1.26027e-05
7.27455e-07
-1.46047e-05
-1.95268e-07
-2.43488e-05
-4.41304e-06
-1.94154e-05
-1.26505e-05
-4.88251e-06
-2.51508e-05
1.50404e-05
-4.21236e-05
3.77242e-05
-6.39451e-05
6.21687e-05
-9.10531e-05
8.84102e-05
-0.000123602
0.000116636
-0.000161085
0.000146429
-0.00020217
0.000176462
-0.000244906
0.000204739
-0.000287181
0.000229209
-0.000327199
0.000248343
-0.000363716
0.000261382
-0.000396033
0.000268258
-0.000423863
0.00026936
-0.00044721
0.000265336
-0.000466281
0.000256957
-0.000481426
0.00024503
-0.000493093
0.000230329
-0.000501776
0.000213555
-0.000507978
0.000195306
-0.000512181
0.000176063
-0.000514821
0.000156193
-0.000516278
0.000135959
-0.000516874
0.000115529
-0.00051687
9.49998e-05
-0.000516477
7.44058e-05
-0.000515868
5.37363e-05
-0.00051519
3.29497e-05
-0.000514609
1.19914e-05
-0.000514198
-9.1835e-06
-0.000513942
-3.06652e-05
-0.000513967
-5.25795e-05
-0.000514335
-7.50223e-05
-0.000515066
-9.80873e-05
-0.000516115
-0.000121847
-0.000517349
-0.000146345
-0.000518498
-0.000171565
-0.000519104
-0.000197397
-0.000518473
-0.00022358
-0.000515624
-0.000249635
-0.000509279
-0.000274777
-0.000497903
-0.000297839
-0.000479826
-0.000317215
-0.000453472
-0.00033087
-0.000417703
-0.000336448
-0.000372262
-0.000331546
-0.000318214
-0.000314172
-0.000258354
-0.000283387
-0.000197183
-0.000240109
-0.000140153
-0.000187751
-9.21549e-05
-0.000132089
-5.57866e-05
-7.98761e-05
-3.06753e-05
-3.6392e-05
-1.45961e-05
-3.61384e-06
-4.97874e-06
1.9189e-05
1.3187e-07
3.38648e-05
2.15254e-06
4.18729e-05
2.23174e-06
4.40127e-05
1.3591e-06
4.03867e-05
4.03079e-07
3.04093e-05
1.30058e-05
-3.81695e-07
-1.4223e-05
-3.82936e-06
-2.09011e-05
-1.14146e-05
-1.18302e-05
-2.34792e-05
7.1821e-06
-4.01566e-05
3.17178e-05
-6.16547e-05
5.92223e-05
-8.82777e-05
8.87917e-05
-0.000120168
0.0001203
-0.000156909
0.000153377
-0.000197288
0.000186809
-0.000239406
0.00021858
-0.000281111
0.000246443
-0.000320495
0.000268593
-0.0003562
0.000284048
-0.000387449
0.00029263
-0.000413921
0.00029473
-0.000435627
0.000291066
-0.000452819
0.000282529
-0.000465924
0.000270062
-0.000475478
0.000254583
-0.000482068
0.000236919
-0.000486284
0.00021777
-0.000488671
0.000197692
-0.000489708
0.0001771
-0.000489796
0.000156282
-0.000489255
0.000135417
-0.000488329
0.000114603
-0.000487201
9.38728e-05
-0.00048601
7.32143e-05
-0.000484859
5.25855e-05
-0.000483841
3.19314e-05
-0.000483052
1.12028e-05
-0.000482543
-9.69273e-06
-0.000482342
-3.08658e-05
-0.000482551
-5.23708e-05
-0.00048326
-7.43129e-05
-0.000484553
-9.67945e-05
-0.000486489
-0.000119911
-0.000489081
-0.000143752
-0.000492258
-0.000168387
-0.000495815
-0.00019384
-0.000499342
-0.000220054
-0.00050215
-0.000246827
-0.000503201
-0.000273726
-0.000501058
-0.000299982
-0.000493901
-0.000324372
-0.000479649
-0.000345122
-0.000456218
-0.000359879
-0.00042195
-0.000365814
-0.000376198
-0.000359923
-0.000319972
-0.000339613
-0.000256501
-0.00030358
-0.000191348
-0.000252903
-0.00013137
-0.000192068
-8.25078e-05
-0.000128739
-4.73518e-05
-7.1548e-05
-2.45837e-05
-2.63819e-05
-1.10164e-05
5.62172e-06
-3.56629e-06
2.64147e-05
-5.09899e-08
3.83576e-05
1.04663e-06
4.29151e-05
8.6595e-07
4.05673e-05
3.01824e-07
3.09734e-05
1.33076e-05
-1.84583e-06
-1.23772e-05
-8.27633e-06
-1.44706e-05
-1.95355e-05
-5.71019e-07
-3.55244e-05
2.3171e-05
-5.63413e-05
5.25347e-05
-8.21088e-05
8.49898e-05
-0.000112915
0.000119598
-0.000148448
0.000155832
-0.000187674
0.000192603
-0.00022883
0.000227965
-0.000269777
0.000259526
-0.000308502
0.000285168
-0.000343502
0.000303593
-0.000373882
0.000314428
-0.000399263
0.000318011
-0.000419647
0.000315114
-0.000435322
0.000306741
-0.000446782
0.000293989
-0.000454649
0.00027793
-0.000459601
0.000259535
-0.000462302
0.000239621
-0.000463359
0.000218826
-0.000463282
0.000197616
-0.000462484
0.000176302
-0.000461272
0.000155069
-0.000459865
0.00013401
-0.000458411
0.000113149
-0.000457003
9.24651e-05
-0.0004557
7.19113e-05
-0.000454542
5.14278e-05
-0.000453566
3.09549e-05
-0.000452814
1.04514e-05
-0.000452311
-1.0196e-05
-0.000452103
-3.10736e-05
-0.000452273
-5.22015e-05
-0.000452912
-7.36733e-05
-0.00045413
-9.55765e-05
-0.00045604
-0.000118002
-0.000458745
-0.000141047
-0.000462318
-0.000164815
-0.000466756
-0.000189402
-0.000471929
-0.000214881
-0.000477499
-0.000241256
-0.000482828
-0.000268397
-0.000486868
-0.000295942
-0.000488082
-0.000323157
-0.000484427
-0.000348777
-0.000473446
-0.00037086
-0.000452556
-0.000386704
-0.000419552
-0.000392928
-0.000373354
-0.000385811
-0.000314904
-0.00036203
-0.000247962
-0.000319845
-0.000179367
-0.000260663
-0.000117573
-0.000190533
-6.94271e-05
-0.000119694
-3.69254e-05
-5.88836e-05
-1.73777e-05
-1.39261e-05
-6.64585e-06
1.56829e-05
-1.38276e-06
3.30945e-05
6.24319e-07
4.0908e-05
8.57974e-07
4.03337e-05
3.79567e-07
3.14518e-05
1.36871e-05
-3.62283e-06
-8.75437e-06
-1.33529e-05
-4.74053e-06
-2.82632e-05
1.43393e-05
-4.81095e-05
4.30172e-05
-7.2762e-05
7.71873e-05
-0.00010221
0.000114438
-0.00013621
0.000153598
-0.000173939
0.000193562
-0.000213852
0.000232516
-0.000253896
0.000268009
-0.000291989
0.000297619
-0.000326466
0.000319646
-0.000356278
0.000333405
-0.000380948
0.000339099
-0.000400447
0.00033751
-0.000415076
0.000329743
-0.000425379
0.000317045
-0.000432056
0.000300665
-0.000435862
0.000281736
-0.000437536
0.000261209
-0.000437734
0.000239819
-0.000436999
0.000218091
-0.000435746
0.000196364
-0.000434272
0.000174827
-0.000432767
0.000153564
-0.000431341
0.000132584
-0.000430047
0.000111855
-0.000428902
9.13205e-05
-0.000427906
7.09146e-05
-0.000427052
5.05736e-05
-0.000426338
3.02418e-05
-0.00042577
9.88314e-06
-0.000425364
-1.06027e-05
-0.000425167
-3.12701e-05
-0.00042524
-5.21287e-05
-0.000425666
-7.32473e-05
-0.000426553
-9.46896e-05
-0.000428028
-0.000116527
-0.000430231
-0.000138843
-0.000433306
-0.00016174
-0.000437373
-0.000185335
-0.000442495
-0.00020976
-0.000448614
-0.000235137
-0.000455467
-0.000261544
-0.000462476
-0.000288933
-0.000468614
-0.000317019
-0.000472283
-0.000345108
-0.000471254
-0.000371889
-0.000462741
-0.000395217
-0.000443687
-0.000411982
-0.000411351
-0.000418147
-0.000364235
-0.000409147
-0.000303268
-0.000380812
-0.000232941
-0.000330989
-0.000161689
-0.000261785
-9.97225e-05
-0.00018166
-5.43133e-05
-0.000104293
-2.59474e-05
-4.2292e-05
-1.02708e-05
6.2726e-09
-2.50336e-06
2.53271e-05
6.05771e-07
3.77988e-05
1.15904e-06
3.97804e-05
5.77839e-07
3.2033e-05
1.4265e-05
-5.58639e-06
-3.16798e-06
-1.86191e-05
8.29221e-06
-3.7142e-05
3.28622e-05
-6.04786e-05
6.63538e-05
-8.84049e-05
0.000105114
-0.000120678
0.000146711
-0.000156668
0.000189587
-0.000195096
0.000231991
-0.000234093
0.000271513
-0.000271574
0.00030549
-0.000305726
0.000331771
-0.000335308
0.000349227
-0.000359702
0.000357799
-0.000378805
0.000358202
-0.000392902
0.000351607
-0.000402564
0.000339405
-0.000408545
0.000323026
-0.000411671
0.000303791
-0.000412745
0.00028281
-0.000412476
0.00026094
-0.000411437
0.000238779
-0.000410049
0.000216704
-0.000408597
0.000194912
-0.000407247
0.000173478
-0.000406079
0.000152396
-0.000405112
0.000131617
-0.000404327
0.000111071
-0.000403692
9.06856e-05
-0.000403171
7.03934e-05
-0.000402734
5.01364e-05
-0.000402361
2.98688e-05
-0.000402039
9.56089e-06
-0.000401783
-1.08583e-05
-0.000401634
-3.14187e-05
-0.000401637
-5.21266e-05
-0.000401859
-7.3025e-05
-0.000402394
-9.41542e-05
-0.000403358
-0.000115563
-0.00040489
-0.000137312
-0.000407148
-0.000159482
-0.000410302
-0.000182181
-0.000414515
-0.000205547
-0.000419906
-0.000229747
-0.000426486
-0.000254964
-0.000434066
-0.000281353
-0.000442123
-0.000308962
-0.00044965
-0.000337582
-0.000454989
-0.000366549
-0.00045574
-0.000394467
-0.0004488
-0.000418922
-0.000430667
-0.00043628
-0.000398106
-0.000441708
-0.000349277
-0.000429641
-0.000285274
-0.000394992
-0.000211685
-0.000335375
-0.000138994
-0.000254351
-7.91614e-05
-0.000164126
-3.88053e-05
-8.2648e-05
-1.57854e-05
-2.30136e-05
-4.27419e-06
1.38158e-05
4.86517e-07
3.30381e-05
1.5161e-06
3.87508e-05
8.15334e-07
3.27338e-05
1.50803e-05
-7.56937e-06
4.40139e-06
-2.37814e-05
2.45042e-05
-4.55554e-05
5.46362e-05
-7.18609e-05
9.26594e-05
-0.000102317
0.000135569
-0.000136416
0.000180811
-0.000173159
0.00022633
-0.000210942
0.000269773
-0.000247776
0.000308348
-0.00028175
0.000339464
-0.000311416
0.000361437
-0.000335965
0.000373776
-0.000355169
0.000377003
-0.000369254
0.000372287
-0.000378782
0.000361135
-0.000384535
0.000345158
-0.000387397
0.000325887
-0.00038823
0.000304624
-0.000387796
0.000282377
-0.000386702
0.000259846
-0.000385384
0.000237461
-0.000384121
0.000215441
-0.000383064
0.000193855
-0.000382268
0.000172681
-0.000381724
0.000151852
-0.00038139
0.000131283
-0.000381209
0.00011089
-0.000381123
9.05998e-05
-0.000381084
7.03538e-05
-0.000381054
5.01068e-05
-0.000381011
2.98256e-05
-0.000380939
9.48886e-06
-0.000380854
-1.09432e-05
-0.000380788
-3.14848e-05
-0.000380775
-5.21395e-05
-0.00038087
-7.29295e-05
-0.000381148
-9.38768e-05
-0.0003817
-0.00011501
-0.000382643
-0.000136368
-0.000384118
-0.000158008
-0.00038629
-0.000180009
-0.000389348
-0.000202489
-0.000393488
-0.000225606
-0.000398882
-0.00024957
-0.000405606
-0.000274629
-0.000413541
-0.000301027
-0.000422216
-0.000328907
-0.000430623
-0.000358142
-0.000437022
-0.000388068
-0.000438804
-0.000417139
-0.000432532
-0.000442552
-0.000414266
-0.000459974
-0.00038034
-0.000463567
-0.000328738
-0.000446594
-0.000261057
-0.000403055
-0.000184595
-0.000330814
-0.000112434
-0.000236287
-5.77447e-05
-0.000137337
-2.45775e-05
-5.61808e-05
-7.5777e-06
-3.18398e-06
-2.66702e-07
2.57271e-05
1.66271e-06
3.68214e-05
1.0085e-06
3.3388e-05
1.60888e-05
-9.43579e-06
1.38372e-05
-2.84985e-05
4.35669e-05
-5.29933e-05
7.9131e-05
-8.15927e-05
0.000121259
-0.000113731
0.000167707
-0.000148634
0.000215714
-0.000185009
0.000262705
-0.000221076
0.00030584
-0.000254913
0.000342185
-0.000284896
0.000369446
-0.000309979
0.00038652
-0.000329748
0.000393545
-0.000344318
0.000391573
-0.000354198
0.000382167
-0.000360166
0.000367103
-0.000363137
0.00034813
-0.000364032
0.000326781
-0.000363664
0.000304257
-0.000362685
0.000281397
-0.000361556
0.000258716
-0.000360563
0.000236469
-0.000359851
0.000214728
-0.000359457
0.000193461
-0.000359355
0.00017258
-0.000359485
0.000151982
-0.000359771
0.000131569
-0.000360143
0.000111261
-0.000360537
9.09941e-05
-0.000360907
7.07235e-05
-0.000361219
5.04192e-05
-0.000361455
3.00617e-05
-0.000361606
9.63942e-06
-0.000361686
-1.08629e-05
-0.000361722
-3.14489e-05
-0.000361743
-5.21182e-05
-0.000361794
-7.28788e-05
-0.000361931
-9.374e-05
-0.000362224
-0.000114716
-0.000362761
-0.000135831
-0.000363651
-0.000157118
-0.000365027
-0.000178633
-0.000367056
-0.000200459
-0.000369938
-0.000222724
-0.000373896
-0.000245612
-0.000379148
-0.000269377
-0.000385835
-0.00029434
-0.000393904
-0.000320838
-0.000402925
-0.000349121
-0.000411864
-0.000379129
-0.000418846
-0.000410157
-0.000420992
-0.000440406
-0.000414468
-0.000466498
-0.000394885
-0.000483149
-0.000358246
-0.000483233
-0.000302635
-0.000458666
-0.000230724
-0.000402725
-0.000152451
-0.00031456
-8.39218e-05
-0.000205866
-3.77518e-05
-0.000102351
-1.30954e-05
-2.78404e-05
-2.04431e-06
1.4676e-05
1.3996e-06
3.33775e-05
1.09758e-06
3.369e-05
1.71864e-05
-1.10576e-05
2.48948e-05
-3.24534e-05
6.49627e-05
-5.90326e-05
0.00010571
-8.91771e-05
0.000151403
-0.000122134
0.000200664
-0.000156901
0.000250481
-0.000191989
0.000297794
-0.000225591
0.000339442
-0.00025598
0.000372573
-0.000281868
0.000395334
-0.000302597
0.000407249
-0.000318106
0.000409054
-0.000328797
0.000402264
-0.000335399
0.000388769
-0.000338833
0.000370536
-0.000340058
0.000349355
-0.000339947
0.00032667
-0.000339204
0.000303514
-0.00033833
0.000280524
-0.000337635
0.000258021
-0.000337265
0.000236099
-0.000337257
0.000214719
-0.00033757
0.000193775
-0.000338133
0.000173142
-0.000338858
0.000152707
-0.000339663
0.000132375
-0.00034048
0.000112077
-0.000341251
9.17655e-05
-0.000341939
7.14111e-05
-0.000342517
5.0998e-05
-0.000342975
3.05197e-05
-0.000343311
9.97487e-06
-0.000343538
-1.06356e-05
-0.00034368
-3.13067e-05
-0.000343765
-5.20335e-05
-0.000343829
-7.28146e-05
-0.000343918
-9.36516e-05
-0.000344083
-0.000114551
-0.00034439
-0.000135525
-0.000344914
-0.000156594
-0.000345753
-0.000177794
-0.000347031
-0.000199181
-0.000348912
-0.000220843
-0.000351601
-0.000242923
-0.000355346
-0.000265632
-0.000360408
-0.000289277
-0.000366989
-0.000314257
-0.000375094
-0.000341017
-0.000384312
-0.000369911
-0.000393543
-0.000400926
-0.000400705
-0.000433244
-0.000402554
-0.000464649
-0.000394778
-0.000490925
-0.000372533
-0.000505478
-0.000331646
-0.000499553
-0.000270765
-0.000463605
-0.000194561
-0.000390764
-0.000116815
-0.000283613
-5.62732e-05
-0.000162892
-2.13175e-05
-6.27961e-05
-5.10883e-06
-1.53267e-06
6.21963e-07
2.76467e-05
1.058e-06
3.3254e-05
1.82444e-05
-1.2298e-05
3.71928e-05
-3.54111e-05
8.80757e-05
-6.33806e-05
0.00013368
-9.4314e-05
0.000182337
-0.000127285
0.000233635
-0.000161119
0.000284315
-0.000194242
0.000330917
-0.000224941
0.000370141
-0.000251742
0.000399375
-0.000273711
0.000417303
-0.000290538
0.000424076
-0.000302456
0.000420972
-0.000310095
0.000409902
-0.000314335
0.000393009
-0.000316153
0.000372355
-0.000316477
0.000349678
-0.000316072
0.000326266
-0.000315497
0.000302938
-0.000315098
0.000280125
-0.000315045
0.000257968
-0.000315378
0.000236433
-0.000316058
0.000215399
-0.000317003
0.00019472
-0.000318119
0.000174259
-0.000319318
0.000153906
-0.000320523
0.00013358
-0.000321675
0.000113229
-0.000322729
9.28197e-05
-0.000323656
7.23383e-05
-0.00032444
5.17813e-05
-0.000325073
3.1153e-05
-0.00032556
1.0462e-05
-0.000325915
-1.02804e-05
-0.00032616
-3.10621e-05
-0.000326321
-5.18728e-05
-0.00032643
-7.27051e-05
-0.000326526
-9.35557e-05
-0.000326651
-0.000114426
-0.000326851
-0.000135324
-0.000327181
-0.000156264
-0.000327707
-0.000177268
-0.000328512
-0.000198376
-0.000329711
-0.000219645
-0.00033146
-0.000241174
-0.000333973
-0.000263119
-0.000337523
-0.000285728
-0.000342414
-0.000309366
-0.000348903
-0.000334528
-0.000357038
-0.000361775
-0.000366394
-0.00039157
-0.000375736
-0.000423902
-0.000382673
-0.000457712
-0.000383479
-0.000490119
-0.000373279
-0.000515679
-0.000346806
-0.000526026
-0.000300008
-0.000510404
-0.000232837
-0.000457935
-0.000153432
-0.000363018
-8.05633e-05
-0.000235761
-3.27325e-05
-0.000110627
-9.58454e-06
-2.46806e-05
-7.03229e-07
1.87654e-05
8.95812e-07
3.16549e-05
1.91402e-05
-1.30733e-05
5.02662e-05
-3.72311e-05
0.000112233
-6.589e-05
0.000162339
-9.68989e-05
0.000213346
-0.000129183
0.000265919
-0.000161466
0.000316598
-0.000192185
0.000361636
-0.000219795
0.000397751
-0.000243107
0.000422687
-0.000261515
0.000435711
-0.00027501
0.000437571
-0.000284057
0.000430019
-0.000289446
0.000415291
-0.000292132
0.000395696
-0.000293079
0.000373302
-0.000293121
0.00034972
-0.000292885
0.00032603
-0.000292777
0.00030283
-0.000293005
0.000280353
-0.00029363