/*--------------------------------*- C++ -*----------------------------------*\
| =========                 |                                                 |
| \\      /  F ield         | OpenFOAM: The Open Source CFD Toolbox           |
|  \\    /   O peration     | Version:  2406                                  |
|   \\  /    A nd           | Website:  www.openfoam.com                      |
|    \\/     M anipulation  |                                                 |
\*---------------------------------------------------------------------------*/
FoamFile
{
    version     2.0;
    format      ascii;
    arch        "LSB;label=32;scalar=64";
    class       volVectorField;
    location    "13.4";
    object      Uold;
}
// * * * * * * * * * * * * * * * * * * * * * * * * * * * * * * * * * * * * * //

dimensions      [0 1 -1 0 0 0 0];

internalField   nonuniform List<vector> 
14400
(
(4.53298e-06 -4.44416e-06 0)
(1.78124e-05 -6.09154e-06 0)
(2.90014e-05 -3.85469e-06 0)
(2.9076e-05 2.37131e-07 0)
(1.74747e-05 4.16811e-06 0)
(-5.72105e-06 7.68326e-06 0)
(-3.85977e-05 1.03342e-05 0)
(-7.909e-05 1.23558e-05 0)
(-0.000125419 1.37129e-05 0)
(-0.000175799 1.46524e-05 0)
(-0.000229143 1.52259e-05 0)
(-0.000284388 1.56088e-05 0)
(-0.000341074 1.58519e-05 0)
(-0.000398758 1.60603e-05 0)
(-0.000457396 1.62632e-05 0)
(-0.000516932 1.65139e-05 0)
(-0.000577538 1.68212e-05 0)
(-0.000639348 1.72058e-05 0)
(-0.000702603 1.76637e-05 0)
(-0.000767496 1.81977e-05 0)
(-0.000834253 1.87979e-05 0)
(-0.00090305 1.94588e-05 0)
(-0.000974064 2.01688e-05 0)
(-0.00104742 2.09195e-05 0)
(-0.00112323 2.16998e-05 0)
(-0.00120155 2.25007e-05 0)
(-0.00128244 2.33121e-05 0)
(-0.00136589 2.41253e-05 0)
(-0.00145189 2.49311e-05 0)
(-0.00154039 2.57211e-05 0)
(-0.00163129 2.64867e-05 0)
(-0.00172449 2.72196e-05 0)
(-0.00181986 2.79113e-05 0)
(-0.00191721 2.85532e-05 0)
(-0.00201635 2.91365e-05 0)
(-0.00211705 2.96524e-05 0)
(-0.00221905 3.00913e-05 0)
(-0.00232205 3.04436e-05 0)
(-0.00242574 3.0699e-05 0)
(-0.00252975 3.08467e-05 0)
(-0.00263369 3.08755e-05 0)
(-0.00273713 3.07736e-05 0)
(-0.00283959 3.05286e-05 0)
(-0.00294057 3.01276e-05 0)
(-0.00303952 2.95575e-05 0)
(-0.00313585 2.88048e-05 0)
(-0.00322892 2.78562e-05 0)
(-0.00331807 2.66983e-05 0)
(-0.00340259 2.53184e-05 0)
(-0.00348174 2.37048e-05 0)
(-0.00355473 2.18469e-05 0)
(-0.00362078 1.97359e-05 0)
(-0.00367906 1.73651e-05 0)
(-0.00372873 1.47308e-05 0)
(-0.00376897 1.18325e-05 0)
(-0.00379896 8.67341e-06 0)
(-0.00381789 5.2612e-06 0)
(-0.00382501 1.60825e-06 0)
(-0.0038196 -2.26786e-06 0)
(-0.00380104 -6.34408e-06 0)
(-0.00376877 -1.05917e-05 0)
(-0.00372234 -1.49764e-05 0)
(-0.00366143 -1.94583e-05 0)
(-0.00358584 -2.39921e-05 0)
(-0.00349554 -2.85282e-05 0)
(-0.00339066 -3.30125e-05 0)
(-0.00327149 -3.73882e-05 0)
(-0.00313851 -4.15964e-05 0)
(-0.00299239 -4.55774e-05 0)
(-0.00283398 -4.92721e-05 0)
(-0.00266429 -5.26239e-05 0)
(-0.00248451 -5.55795e-05 0)
(-0.00229601 -5.8091e-05 0)
(-0.00210025 -6.01169e-05 0)
(-0.00189884 -6.16239e-05 0)
(-0.00169346 -6.25873e-05 0)
(-0.00148586 -6.29925e-05 0)
(-0.0012778 -6.28351e-05 0)
(-0.00107106 -6.21212e-05 0)
(-0.000867377 -6.08675e-05 0)
(-0.000668418 -5.91005e-05 0)
(-0.000475762 -5.68557e-05 0)
(-0.000290867 -5.41768e-05 0)
(-0.000115048 -5.11139e-05 0)
(5.0541e-05 -4.77226e-05 0)
(0.000204921 -4.40617e-05 0)
(0.000347296 -4.01918e-05 0)
(0.000477057 -3.61739e-05 0)
(0.000593782 -3.20671e-05 0)
(0.00069723 -2.79282e-05 0)
(0.000787329 -2.38093e-05 0)
(0.000864167 -1.97579e-05 0)
(0.000927972 -1.58152e-05 0)
(0.000979097 -1.20165e-05 0)
(0.001018 -8.3898e-06 0)
(0.00104522 -4.95728e-06 0)
(0.00106135 -1.73363e-06 0)
(0.00106706 1.27122e-06 0)
(0.00106301 4.0548e-06 0)
(0.0010499 6.61695e-06 0)
(0.0010284 8.96533e-06 0)
(0.000999185 1.11059e-05 0)
(0.000962878 1.3054e-05 0)
(0.000920133 1.48166e-05 0)
(0.000871472 1.64145e-05 0)
(0.000817526 1.78483e-05 0)
(0.000758718 1.91423e-05 0)
(0.000695722 2.02787e-05 0)
(0.000628871 2.12837e-05 0)
(0.00055903 2.20997e-05 0)
(0.000486498 2.27537e-05 0)
(0.000412622 2.31055e-05 0)
(0.000337786 2.3182e-05 0)
(0.000264328 2.26707e-05 0)
(0.000192982 2.15961e-05 0)
(0.000127888 1.92829e-05 0)
(7.06042e-05 1.58161e-05 0)
(2.77654e-05 9.98151e-06 0)
(1.48831e-06 3.14611e-06 0)
(-3.75289e-06 -3.73351e-06 0)
(6.42967e-06 -1.7977e-05 0)
(1.95015e-05 -1.91329e-05 0)
(2.04573e-05 -4.25849e-06 0)
(-3.55364e-06 1.89694e-05 0)
(-5.49386e-05 4.21898e-05 0)
(-0.000133211 6.37238e-05 0)
(-0.000235352 8.12481e-05 0)
(-0.000357006 9.52822e-05 0)
(-0.000494397 0.000105639 0)
(-0.000643456 0.000113283 0)
(-0.000801446 0.000118617 0)
(-0.000965756 0.000122472 0)
(-0.00113497 0.000125277 0)
(-0.00130787 0.000127591 0)
(-0.00148404 0.000129696 0)
(-0.00166321 0.000131902 0)
(-0.00184557 0.000134342 0)
(-0.00203133 0.000137144 0)
(-0.00222092 0.000140335 0)
(-0.00241474 0.000143936 0)
(-0.00261325 0.000147914 0)
(-0.00281681 0.000152234 0)
(-0.00302578 0.000156837 0)
(-0.00324043 0.000161665 0)
(-0.00346096 0.000166652 0)
(-0.00368749 0.000171733 0)
(-0.00392004 0.000176841 0)
(-0.00415856 0.000181912 0)
(-0.00440294 0.000186881 0)
(-0.00465294 0.000191687 0)
(-0.00490827 0.000196267 0)
(-0.00516857 0.000200559 0)
(-0.00543336 0.000204502 0)
(-0.00570213 0.000208035 0)
(-0.00597426 0.000211095 0)
(-0.00624905 0.000213619 0)
(-0.00652574 0.000215543 0)
(-0.00680348 0.0002168 0)
(-0.00708134 0.000217324 0)
(-0.00735829 0.000217043 0)
(-0.00763324 0.000215885 0)
(-0.007905 0.000213777 0)
(-0.00817231 0.000210642 0)
(-0.00843379 0.000206402 0)
(-0.008688 0.000200978 0)
(-0.00893339 0.000194292 0)
(-0.00916835 0.000186268 0)
(-0.00939117 0.000176832 0)
(-0.00960006 0.000165915 0)
(-0.00979319 0.000153455 0)
(-0.00996863 0.000139402 0)
(-0.0101245 0.000123716 0)
(-0.0102587 0.000106374 0)
(-0.0103694 8.73714e-05 0)
(-0.0104545 6.67251e-05 0)
(-0.0105123 4.44767e-05 0)
(-0.0105408 2.06951e-05 0)
(-0.0105384 -4.52113e-06 0)
(-0.0105035 -3.10418e-05 0)
(-0.0104348 -5.8704e-05 0)
(-0.0103311 -8.73114e-05 0)
(-0.0101915 -0.000116635 0)
(-0.0100155 -0.000146414 0)
(-0.00980283 -0.000176358 0)
(-0.0095536 -0.000206152 0)
(-0.00926831 -0.00023546 0)
(-0.00894788 -0.000263931 0)
(-0.00859364 -0.000291203 0)
(-0.00820732 -0.000316914 0)
(-0.0077911 -0.000340711 0)
(-0.00734753 -0.000362252 0)
(-0.00687955 -0.000381222 0)
(-0.00639045 -0.000397337 0)
(-0.00588381 -0.000410353 0)
(-0.00536346 -0.000420073 0)
(-0.00483344 -0.000426352 0)
(-0.00429791 -0.000429105 0)
(-0.00376109 -0.000428305 0)
(-0.0032272 -0.000423987 0)
(-0.0027004 -0.000416247 0)
(-0.00218468 -0.00040524 0)
(-0.00168386 -0.000391174 0)
(-0.00120147 -0.000374304 0)
(-0.000740724 -0.000354929 0)
(-0.000304499 -0.000333375 0)
(0.000104737 -0.000309996 0)
(0.000484924 -0.000285157 0)
(0.00083443 -0.000259226 0)
(0.00115205 -0.000232566 0)
(0.00143699 -0.00020553 0)
(0.00168888 -0.000178443 0)
(0.0019077 -0.000151609 0)
(0.00209379 -0.000125296 0)
(0.0022478 -9.97348e-05 0)
(0.00237061 -7.51202e-05 0)
(0.00246337 -5.16076e-05 0)
(0.00252736 -2.93118e-05 0)
(0.00256403 -8.3139e-06 0)
(0.00257487 1.13432e-05 0)
(0.00256148 2.96413e-05 0)
(0.00252543 4.65954e-05 0)
(0.00246834 6.22302e-05 0)
(0.00239172 7.65992e-05 0)
(0.00229714 8.97415e-05 0)
(0.00218601 0.000101725 0)
(0.00205989 0.000112563 0)
(0.00192006 0.000122306 0)
(0.0017682 0.000130883 0)
(0.00160556 0.000138286 0)
(0.0014343 0.000144262 0)
(0.00125583 0.000148691 0)
(0.00107336 0.000150968 0)
(0.000888812 0.000150809 0)
(0.000707431 0.000146966 0)
(0.000532084 0.000139008 0)
(0.000371292 0.000124634 0)
(0.00022891 0.000103851 0)
(0.0001172 7.34574e-05 0)
(3.8391e-05 3.83593e-05 0)
(3.10857e-06 1.47231e-06 0)
(4.23805e-06 -2.94862e-05 0)
(3.71368e-06 -1.96353e-05 0)
(-2.32218e-05 2.13641e-05 0)
(-8.70583e-05 7.90562e-05 0)
(-0.000191529 0.000137098 0)
(-0.000334232 0.000191269 0)
(-0.000511844 0.000236578 0)
(-0.000718058 0.000273484 0)
(-0.000948037 0.000301644 0)
(-0.00119601 0.000322918 0)
(-0.00145819 0.000338384 0)
(-0.00173077 0.000349861 0)
(-0.00201162 0.000358505 0)
(-0.00229884 0.000365615 0)
(-0.00259167 0.00037199 0)
(-0.00288957 0.000378376 0)
(-0.00319263 0.00038518 0)
(-0.00350101 0.000392725 0)
(-0.00381521 0.000401129 0)
(-0.00413566 0.000410448 0)
(-0.00446293 0.000420628 0)
(-0.00479743 0.000431584 0)
(-0.0051396 0.000443178 0)
(-0.00548972 0.000455262 0)
(-0.00584799 0.000467666 0)
(-0.00621446 0.000480221 0)
(-0.00658911 0.00049275 0)
(-0.00697173 0.000505083 0)
(-0.00736203 0.000517045 0)
(-0.00775958 0.00052847 0)
(-0.00816382 0.000539187 0)
(-0.00857408 0.000549034 0)
(-0.00898957 0.000557844 0)
(-0.00940936 0.000565456 0)
(-0.00983243 0.000571704 0)
(-0.0102576 0.000576425 0)
(-0.0106837 0.000579454 0)
(-0.0111093 0.000580622 0)
(-0.011533 0.000579758 0)
(-0.011953 0.000576688 0)
(-0.0123678 0.000571236 0)
(-0.0127754 0.00056322 0)
(-0.0131741 0.000552458 0)
(-0.0135616 0.000538765 0)
(-0.0139358 0.000521957 0)
(-0.0142946 0.000501852 0)
(-0.0146354 0.000478275 0)
(-0.0149558 0.000451061 0)
(-0.0152533 0.00042006 0)
(-0.0155252 0.000385141 0)
(-0.0157689 0.000346202 0)
(-0.0159815 0.000303173 0)
(-0.0161605 0.000256025 0)
(-0.016303 0.000204776 0)
(-0.0164064 0.000149501 0)
(-0.0164681 9.03324e-05 0)
(-0.0164858 2.74744e-05 0)
(-0.0164572 -3.87983e-05 0)
(-0.0163803 -0.000108134 0)
(-0.0162533 -0.000180102 0)
(-0.0160749 -0.000254193 0)
(-0.0158441 -0.000329821 0)
(-0.0155603 -0.000406326 0)
(-0.0152234 -0.000482981 0)
(-0.0148337 -0.000559003 0)
(-0.0143922 -0.000633561 0)
(-0.0139004 -0.000705793 0)
(-0.0133603 -0.00077482 0)
(-0.0127745 -0.000839766 0)
(-0.0121462 -0.000899772 0)
(-0.0114791 -0.00095402 0)
(-0.0107774 -0.00100175 0)
(-0.0100458 -0.00104229 0)
(-0.00928932 -0.00107505 0)
(-0.00851344 -0.00109955 0)
(-0.00772378 -0.00111547 0)
(-0.0069262 -0.00112258 0)
(-0.00612661 -0.00112082 0)
(-0.00533095 -0.00111029 0)
(-0.00454505 -0.00109119 0)
(-0.00377457 -0.0010639 0)
(-0.00302488 -0.00102891 0)
(-0.00230103 -0.000986833 0)
(-0.00160763 -0.000938377 0)
(-0.000948814 -0.00088433 0)
(-0.000328207 -0.000825542 0)
(0.000251134 -0.000762897 0)
(0.000786729 -0.000697293 0)
(0.00127668 -0.000629621 0)
(0.00171968 -0.000560745 0)
(0.00211495 -0.000491481 0)
(0.00246228 -0.000422584 0)
(0.00276192 -0.000354734 0)
(0.00301455 -0.000288526 0)
(0.00322127 -0.000224466 0)
(0.00338347 -0.000162964 0)
(0.00350283 -0.000104338 0)
(0.00358124 -4.88199e-05 0)
(0.00362073 3.44792e-06 0)
(0.00362343 5.239e-05 0)
(0.00359153 9.80024e-05 0)
(0.00352727 0.000140319 0)
(0.0034328 0.000179423 0)
(0.00331038 0.000215389 0)
(0.00316206 0.000248319 0)
(0.00299014 0.000278236 0)
(0.00279659 0.000305165 0)
(0.00258395 0.00032894 0)
(0.00235427 0.00034939 0)
(0.00211074 0.000365951 0)
(0.00185579 0.000378093 0)
(0.00159408 0.000384539 0)
(0.00132879 0.000384231 0)
(0.00106723 0.000374739 0)
(0.000813669 0.000354523 0)
(0.000579568 0.000319644 0)
(0.000369693 0.000269388 0)
(0.00020064 0.000199559 0)
(7.40591e-05 0.000117391 0)
(1.00312e-05 2.78607e-05 0)
(-1.89167e-07 -2.90954e-05 0)
(-2.29763e-05 7.70566e-06 0)
(-9.03111e-05 8.76667e-05 0)
(-0.000205713 0.000190428 0)
(-0.000373663 0.000292708 0)
(-0.000588442 0.00038786 0)
(-0.000846836 0.000468418 0)
(-0.00114061 0.000534707 0)
(-0.00146452 0.000586274 0)
(-0.00181147 0.000625893 0)
(-0.00217709 0.00065542 0)
(-0.00255667 0.00067777 0)
(-0.00294761 0.000694961 0)
(-0.00334744 0.000709161 0)
(-0.00375512 0.000721799 0)
(-0.00416979 0.000734159 0)
(-0.00459141 0.000746995 0)
(-0.00502003 0.000760884 0)
(-0.00545608 0.000776067 0)
(-0.00589995 0.000792659 0)
(-0.00635216 0.000810587 0)
(-0.00681311 0.000829711 0)
(-0.00728317 0.000849797 0)
(-0.00776257 0.000870584 0)
(-0.0082514 0.000891772 0)
(-0.0087496 0.000913055 0)
(-0.00925696 0.000934116 0)
(-0.00977312 0.000954641 0)
(-0.0102975 0.000974313 0)
(-0.0108295 0.000992825 0)
(-0.0113682 0.00100987 0)
(-0.0119126 0.00102515 0)
(-0.0124616 0.00103836 0)
(-0.0130138 0.00104921 0)
(-0.0135678 0.00105742 0)
(-0.0141221 0.00106269 0)
(-0.0146749 0.00106473 0)
(-0.0152245 0.00106326 0)
(-0.0157687 0.00105798 0)
(-0.0163057 0.00104861 0)
(-0.016833 0.00103484 0)
(-0.0173485 0.00101638 0)
(-0.0178497 0.000992928 0)
(-0.0183339 0.000964187 0)
(-0.0187985 0.00092986 0)
(-0.0192407 0.000889657 0)
(-0.0196576 0.000843304 0)
(-0.0200462 0.000790545 0)
(-0.0204035 0.000731154 0)
(-0.0207262 0.00066494 0)
(-0.0210112 0.000591763 0)
(-0.0212553 0.000511542 0)
(-0.0214553 0.000424267 0)
(-0.021608 0.000330011 0)
(-0.0217105 0.000228942 0)
(-0.0217597 0.000121335 0)
(-0.021753 7.57783e-06 0)
(-0.0216878 -0.000111817 0)
(-0.021562 -0.000236208 0)
(-0.0213738 -0.000364825 0)
(-0.0211216 -0.000496765 0)
(-0.0208045 -0.000630999 0)
(-0.0204219 -0.00076638 0)
(-0.0199741 -0.000901652 0)
(-0.0194617 -0.00103547 0)
(-0.0188859 -0.00116642 0)
(-0.0182487 -0.00129302 0)
(-0.0175527 -0.0014138 0)
(-0.0168012 -0.00152727 0)
(-0.0159981 -0.00163199 0)
(-0.015148 -0.00172657 0)
(-0.0142558 -0.00180976 0)
(-0.0133274 -0.0018804 0)
(-0.0123688 -0.00193752 0)
(-0.0113864 -0.00198034 0)
(-0.0103872 -0.00200826 0)
(-0.00937812 -0.00202094 0)
(-0.00836626 -0.00201827 0)
(-0.0073588 -0.00200037 0)
(-0.00636276 -0.00196761 0)
(-0.00538497 -0.0019206 0)
(-0.00443199 -0.00186016 0)
(-0.00350994 -0.0017873 0)
(-0.0026245 -0.0017032 0)
(-0.00178078 -0.0016092 0)
(-0.000983306 -0.00150672 0)
(-0.000235932 -0.00139726 0)
(0.000458151 -0.00128234 0)
(0.00109645 -0.00116349 0)
(0.00167714 -0.00104219 0)
(0.00219909 -0.000919852 0)
(0.00266179 -0.000797781 0)
(0.00306533 -0.000677173 0)
(0.00341032 -0.000559079 0)
(0.00369787 -0.000444403 0)
(0.0039295 -0.000333891 0)
(0.00410706 -0.000228133 0)
(0.0042327 -0.00012757 0)
(0.00430873 -3.24961e-05 0)
(0.00433767 5.69136e-05 0)
(0.00432209 0.000140601 0)
(0.00426466 0.000218577 0)
(0.00416799 0.00029093 0)
(0.00403482 0.000357742 0)
(0.00386772 0.000419117 0)
(0.00366954 0.000475049 0)
(0.00344284 0.000525493 0)
(0.00319082 0.000570125 0)
(0.0029162 0.000608531 0)
(0.00262306 0.000639747 0)
(0.0023146 0.000662715 0)
(0.00199664 0.00067539 0)
(0.00167321 0.000675814 0)
(0.00135322 0.000660351 0)
(0.0010416 0.000626249 0)
(0.000751953 0.000568128 0)
(0.000489057 0.000484218 0)
(0.000273221 0.000369344 0)
(0.000105585 0.000230308 0)
(1.60408e-05 7.12388e-05 0)
(-5.16983e-06 -1.44862e-05 0)
(-5.37901e-05 6.93845e-05 0)
(-0.000167961 0.000204203 0)
(-0.0003419 0.00036466 0)
(-0.000580394 0.000521871 0)
(-0.000873151 0.000666998 0)
(-0.001217 0.000790537 0)
(-0.00160143 0.000892744 0)
(-0.00202107 0.000973253 0)
(-0.00246752 0.00103584 0)
(-0.0029362 0.00108328 0)
(-0.00342162 0.00111973 0)
(-0.00392096 0.00114818 0)
(-0.00443127 0.00117179 0)
(-0.00495134 0.00119274 0)
(-0.00548003 0.0012129 0)
(-0.00601719 0.00123347 0)
(-0.00656267 0.0012553 0)
(-0.00711683 0.0012788 0)
(-0.00767992 0.00130415 0)
(-0.00825238 0.00133125 0)
(-0.00883448 0.0013599 0)
(-0.00942647 0.00138975 0)
(-0.0100284 0.0014204 0)
(-0.0106403 0.00145139 0)
(-0.0112617 0.00148225 0)
(-0.0118924 0.00151249 0)
(-0.0125317 0.00154161 0)
(-0.0131788 0.00156912 0)
(-0.0138326 0.00159454 0)
(-0.014492 0.0016174 0)
(-0.0151557 0.00163723 0)
(-0.0158222 0.00165358 0)
(-0.0164897 0.00166601 0)
(-0.0171565 0.00167407 0)
(-0.0178207 0.00167734 0)
(-0.01848 0.00167539 0)
(-0.0191323 0.00166781 0)
(-0.0197752 0.00165418 0)
(-0.0204063 0.00163408 0)
(-0.021023 0.00160709 0)
(-0.0216226 0.00157281 0)
(-0.0222023 0.0015308 0)
(-0.0227592 0.00148065 0)
(-0.0232902 0.00142197 0)
(-0.0237923 0.00135435 0)
(-0.0242622 0.00127742 0)
(-0.0246966 0.00119085 0)
(-0.0250923 0.00109433 0)
(-0.0254457 0.000987625 0)
(-0.0257534 0.000870574 0)
(-0.0260119 0.000743096 0)
(-0.0262179 0.000605223 0)
(-0.0263679 0.000457109 0)
(-0.0264588 0.000299049 0)
(-0.0264873 0.000131493 0)
(-0.0264508 -4.49377e-05 0)
(-0.0263464 -0.000229445 0)
(-0.0261721 -0.000421042 0)
(-0.0259257 -0.000618554 0)
(-0.0256061 -0.000820616 0)
(-0.025212 -0.00102568 0)
(-0.0247433 -0.00123204 0)
(-0.0242 -0.00143783 0)
(-0.0235831 -0.00164104 0)
(-0.0228942 -0.00183959 0)
(-0.0221353 -0.00203131 0)
(-0.0213097 -0.00221401 0)
(-0.0204208 -0.00238552 0)
(-0.0194732 -0.00254371 0)
(-0.0184719 -0.00268658 0)
(-0.0174227 -0.00281224 0)
(-0.0163319 -0.00291904 0)
(-0.0152063 -0.00300552 0)
(-0.0140533 -0.00307053 0)
(-0.0128804 -0.00311319 0)
(-0.0116957 -0.00313298 0)
(-0.010507 -0.00312972 0)
(-0.00932259 -0.00310356 0)
(-0.00815035 -0.00305504 0)
(-0.00699809 -0.00298501 0)
(-0.00587329 -0.00289465 0)
(-0.004783 -0.00278544 0)
(-0.00373377 -0.00265911 0)
(-0.00273155 -0.0025176 0)
(-0.00178163 -0.00236299 0)
(-0.000888562 -0.00219751 0)
(-5.61695e-05 -0.00202341 0)
(0.00071251 -0.00184296 0)
(0.00141521 -0.00165836 0)
(0.00205042 -0.00147173 0)
(0.00261736 -0.00128505 0)
(0.00311592 -0.00110014 0)
(0.00354662 -0.000918591 0)
(0.00391054 -0.000741802 0)
(0.00420924 -0.000570935 0)
(0.00444467 -0.000406923 0)
(0.00461916 -0.000250478 0)
(0.00473523 -0.000102097 0)
(0.00479566 3.79027e-05 0)
(0.0048033 0.000169373 0)
(0.00476116 0.000292275 0)
(0.00467218 0.000406672 0)
(0.00453949 0.000512629 0)
(0.00436604 0.000610224 0)
(0.00415514 0.000699388 0)
(0.00390977 0.000779956 0)
(0.00363369 0.000851399 0)
(0.00333011 0.000912978 0)
(0.0030038 0.000963265 0)
(0.0026585 0.00100056 0)
(0.00230095 0.00102198 0)
(0.00193568 0.00102451 0)
(0.0015728 0.00100331 0)
(0.00121755 0.000954208 0)
(0.00088532 0.000870434 0)
(0.000580848 0.000748593 0)
(0.000328049 0.000582272 0)
(0.000128185 0.000375632 0)
(1.97871e-05 0.000129792 0)
(-1.04285e-05 1.64512e-05 0)
(-8.7114e-05 0.000169997 0)
(-0.000252218 0.000376023 0)
(-0.00048929 0.000605698 0)
(-0.000803017 0.000826399 0)
(-0.00117767 0.00102787 0)
(-0.00161002 0.00119942 0)
(-0.00208698 0.0013416 0)
(-0.00260316 0.00145447 0)
(-0.00314893 0.00154292 0)
(-0.00371969 0.00161082 0)
(-0.00430926 0.00166355 0)
(-0.00491478 0.0017052 0)
(-0.00553291 0.00173993 0)
(-0.00616236 0.00177068 0)
(-0.00680173 0.00179999 0)
(-0.00745076 0.00182945 0)
(-0.00810912 0.00186025 0)
(-0.00877702 0.00189293 0)
(-0.00945456 0.00192775 0)
(-0.010142 0.00196459 0)
(-0.0108395 0.00200317 0)
(-0.011547 0.002043 0)
(-0.0122644 0.00208353 0)
(-0.0129915 0.00212413 0)
(-0.0137276 0.00216413 0)
(-0.0144722 0.00220284 0)
(-0.0152243 0.00223958 0)
(-0.0159827 0.00227365 0)
(-0.0167462 0.00230439 0)
(-0.0175133 0.00233114 0)
(-0.0182823 0.00235327 0)
(-0.0190512 0.00237015 0)
(-0.0198182 0.00238119 0)
(-0.020581 0.00238581 0)
(-0.0213375 0.00238346 0)
(-0.0220851 0.00237357 0)
(-0.0228213 0.00235562 0)
(-0.0235437 0.00232908 0)
(-0.0242493 0.00229342 0)
(-0.0249356 0.00224813 0)
(-0.0255994 0.00219269 0)
(-0.026238 0.00212658 0)
(-0.0268483 0.0020493 0)
(-0.027427 0.00196034 0)
(-0.0279709 0.00185922 0)
(-0.0284769 0.00174548 0)
(-0.0289413 0.00161872 0)
(-0.0293609 0.00147858 0)
(-0.0297321 0.00132477 0)
(-0.0300513 0.00115712 0)
(-0.0303151 0.000975573 0)
(-0.03052 0.000780198 0)
(-0.0306624 0.000571242 0)
(-0.030739 0.000349139 0)
(-0.0307467 0.000114527 0)
(-0.0306826 -0.000131733 0)
(-0.0305438 -0.000388539 0)
(-0.0303281 -0.000654546 0)
(-0.0300334 -0.000928156 0)
(-0.0296583 -0.00120752 0)
(-0.0292017 -0.00149057 0)
(-0.0286632 -0.00177498 0)
(-0.028043 -0.00205825 0)
(-0.0273419 -0.00233772 0)
(-0.0265616 -0.00261056 0)
(-0.0257045 -0.00287389 0)
(-0.0247735 -0.00312477 0)
(-0.0237726 -0.00336029 0)
(-0.0227065 -0.0035776 0)
(-0.0215805 -0.00377399 0)
(-0.0204008 -0.00394694 0)
(-0.0191742 -0.00409419 0)
(-0.017908 -0.00421379 0)
(-0.0166102 -0.00430414 0)
(-0.015289 -0.00436405 0)
(-0.0139532 -0.00439276 0)
(-0.0126115 -0.00438997 0)
(-0.0112728 -0.00435587 0)
(-0.00994613 -0.00429111 0)
(-0.00864003 -0.0041968 0)
(-0.0073629 -0.00407449 0)
(-0.00612268 -0.00392613 0)
(-0.00492678 -0.00375401 0)
(-0.00378197 -0.00356072 0)
(-0.0026943 -0.00334909 0)
(-0.00166902 -0.00312207 0)
(-0.000710579 -0.00288274 0)
(0.000177454 -0.00263417 0)
(0.000992361 -0.00237938 0)
(0.00173227 -0.00212126 0)
(0.00239614 -0.00186254 0)
(0.00298366 -0.00160571 0)
(0.00349528 -0.00135301 0)
(0.00393203 -0.00110639 0)
(0.00429553 -0.000867486 0)
(0.00458785 -0.000637624 0)
(0.00481145 -0.000417834 0)
(0.00496908 -0.000208858 0)
(0.00506375 -1.11885e-05 0)
(0.00509856 0.000174907 0)
(0.00507683 0.000349315 0)
(0.0050018 0.000512048 0)
(0.00487693 0.000663134 0)
(0.0047055 0.000802598 0)
(0.00449119 0.000930283 0)
(0.00423736 0.00104587 0)
(0.00394818 0.0011486 0)
(0.00362726 0.00123736 0)
(0.00327991 0.00131024 0)
(0.00291025 0.00136484 0)
(0.00252569 0.00139745 0)
(0.0021311 0.00140396 0)
(0.00173749 0.00137835 0)
(0.00135023 0.00131491 0)
(0.000986226 0.00120542 0)
(0.000650223 0.00104431 0)
(0.000369218 0.000823238 0)
(0.000144953 0.000541996 0)
(2.24432e-05 0.000197199 0)
(-1.55744e-05 6.39457e-05 0)
(-0.000120828 0.000311461 0)
(-0.000338401 0.000606679 0)
(-0.000640726 0.00091849 0)
(-0.00103213 0.00121219 0)
(-0.00149088 0.00147692 0)
(-0.0020135 0.00170174 0)
(-0.00258401 0.00188788 0)
(-0.00319702 0.00203629 0)
(-0.00384158 0.00215319 0)
(-0.00451314 0.00224372 0)
(-0.00520494 0.00231462 0)
(-0.00591414 0.00237112 0)
(-0.00663711 0.00241842 0)
(-0.00737252 0.00246027 0)
(-0.00811877 0.00249984 0)
(-0.0088755 0.00253919 0)
(-0.0096422 0.00257977 0)
(-0.0104189 0.00262231 0)
(-0.0112056 0.0026671 0)
(-0.0120022 0.00271399 0)
(-0.0128088 0.00276259 0)
(-0.013625 0.00281229 0)
(-0.0144504 0.00286235 0)
(-0.0152846 0.00291194 0)
(-0.0161267 0.00296018 0)
(-0.0169757 0.00300617 0)
(-0.0178303 0.00304901 0)
(-0.0186892 0.0030878 0)
(-0.0195506 0.00312168 0)
(-0.0204128 0.00314981 0)
(-0.0212737 0.00317138 0)
(-0.0221312 0.00318561 0)
(-0.0229829 0.00319178 0)
(-0.0238266 0.00318917 0)
(-0.0246597 0.00317711 0)
(-0.0254795 0.00315496 0)
(-0.0262835 0.00312209 0)
(-0.0270689 0.0030779 0)
(-0.027833 0.00302178 0)
(-0.0285728 0.00295314 0)
(-0.0292856 0.00287138 0)
(-0.0299683 0.00277593 0)
(-0.0306179 0.0026662 0)
(-0.0312315 0.0025416 0)
(-0.0318058 0.00240157 0)
(-0.0323376 0.00224559 0)
(-0.0328236 0.00207317 0)
(-0.0332605 0.0018839 0)
(-0.0336448 0.00167745 0)
(-0.033973 0.0014536 0)
(-0.0342417 0.00121231 0)
(-0.0344473 0.000953683 0)
(-0.0345864 0.000678039 0)
(-0.0346555 0.000385929 0)
(-0.0346513 7.81617e-05 0)
(-0.0345708 -0.000244172 0)
(-0.034411 -0.000579685 0)
(-0.0341695 -0.00092668 0)
(-0.0338439 -0.00128314 0)
(-0.0334324 -0.00164675 0)
(-0.0329339 -0.00201487 0)
(-0.0323476 -0.0023846 0)
(-0.0316734 -0.00275275 0)
(-0.0309118 -0.00311596 0)
(-0.0300643 -0.00347065 0)
(-0.0291329 -0.00381314 0)
(-0.0281207 -0.0041397 0)
(-0.0270314 -0.0044466 0)
(-0.0258697 -0.00473018 0)
(-0.0246411 -0.00498696 0)
(-0.0233518 -0.00521367 0)
(-0.022009 -0.00540737 0)
(-0.0206204 -0.00556549 0)
(-0.0191944 -0.00568591 0)
(-0.0177401 -0.00576703 0)
(-0.0162667 -0.00580778 0)
(-0.014784 -0.00580769 0)
(-0.0133016 -0.0057669 0)
(-0.0118296 -0.00568616 0)
(-0.0103775 -0.00556682 0)
(-0.00895475 -0.00541078 0)
(-0.00757031 -0.0052205 0)
(-0.00623259 -0.00499887 0)
(-0.0049493 -0.0047492 0)
(-0.00372741 -0.0044751 0)
(-0.00257297 -0.00418039 0)
(-0.00149115 -0.00386902 0)
(-0.000486123 -0.00354499 0)
(0.00043888 -0.00321223 0)
(0.0012816 -0.00287453 0)
(0.00204072 -0.00253545 0)
(0.00271578 -0.00219829 0)
(0.00330714 -0.00186599 0)
(0.00381586 -0.00154114 0)
(0.00424367 -0.00122593 0)
(0.0045928 -0.000922135 0)
(0.00486595 -0.000631157 0)
(0.00506612 -0.000354019 0)
(0.00519662 -9.14162e-05 0)
(0.00526089 0.000156242 0)
(0.00526256 0.000388751 0)
(0.0052052 0.000606067 0)
(0.00509264 0.000808168 0)
(0.00492848 0.000995018 0)
(0.00471676 0.00116636 0)
(0.00446113 0.00132172 0)
(0.00416618 0.00146007 0)
(0.00383579 0.00157992 0)
(0.00347571 0.00167884 0)
(0.00309033 0.00175372 0)
(0.00268758 0.00179997 0)
(0.00227253 0.00181236 0)
(0.00185692 0.00178362 0)
(0.00144628 0.00170635 0)
(0.00105876 0.00157071 0)
(0.000699344 0.0013685 0)
(0.00039762 0.00108885 0)
(0.000155936 0.000726355 0)
(2.39298e-05 0.000272136 0)
(-2.06846e-05 0.000128086 0)
(-0.000154746 0.000494393 0)
(-0.000425412 0.000896912 0)
(-0.000793892 0.0013035 0)
(-0.00126396 0.00167896 0)
(-0.00180759 0.00201282 0)
(-0.00242089 0.00229491 0)
(-0.00308484 0.00252776 0)
(-0.00379397 0.00271371 0)
(-0.00453599 0.00286059 0)
(-0.00530645 0.00297502 0)
(-0.00609803 0.00306517 0)
(-0.00690799 0.0031375 0)
(-0.00773241 0.00319824 0)
(-0.00857002 0.00325195 0)
(-0.009419 0.00330244 0)
(-0.0102789 0.00335216 0)
(-0.0111491 0.00340287 0)
(-0.0120294 0.00345539 0)
(-0.0129195 0.00351007 0)
(-0.0138193 0.00356669 0)
(-0.0147284 0.00362475 0)
(-0.0156462 0.00368346 0)
(-0.0165722 0.0037419 0)
(-0.0175053 0.00379902 0)
(-0.0184446 0.00385373 0)
(-0.0193885 0.0039049 0)
(-0.0203357 0.00395142 0)
(-0.0212843 0.00399219 0)
(-0.0222324 0.00402616 0)
(-0.0231778 0.0040523 0)
(-0.0241182 0.00406968 0)
(-0.0250514 0.00407737 0)
(-0.0259747 0.00407456 0)
(-0.0268857 0.00406043 0)
(-0.0277817 0.00403427 0)
(-0.0286602 0.00399535 0)
(-0.0295184 0.00394303 0)
(-0.0303537 0.00387666 0)
(-0.0311635 0.0037956 0)
(-0.0319451 0.00369924 0)
(-0.0326958 0.00358695 0)
(-0.0334129 0.00345809 0)
(-0.0340937 0.00331203 0)
(-0.0347353 0.00314811 0)
(-0.035335 0.00296572 0)
(-0.0358898 0.00276424 0)
(-0.0363966 0.0025431 0)
(-0.0368522 0.0023018 0)
(-0.0372535 0.00203995 0)
(-0.0375971 0.00175726 0)
(-0.0378796 0.00145365 0)
(-0.0380974 0.0011292 0)
(-0.038247 0.000784266 0)
(-0.0383248 0.00041945 0)
(-0.0383274 3.56795e-05 0)
(-0.0382514 -0.000365787 0)
(-0.0380935 -0.000783328 0)
(-0.0378507 -0.00121495 0)
(-0.0375202 -0.00165827 0)
(-0.0370997 -0.00211051 0)
(-0.0365873 -0.00256854 0)
(-0.0359817 -0.00302886 0)
(-0.0352822 -0.00348763 0)
(-0.0344885 -0.00394075 0)
(-0.0336016 -0.00438387 0)
(-0.0326229 -0.00481248 0)
(-0.031555 -0.00522198 0)
(-0.0304011 -0.00560774 0)
(-0.0291657 -0.0059652 0)
(-0.027854 -0.00629 0)
(-0.0264723 -0.00657799 0)
(-0.025028 -0.00682543 0)
(-0.023529 -0.007029 0)
(-0.0219842 -0.00718592 0)
(-0.0204034 -0.00729403 0)
(-0.0187965 -0.00735184 0)
(-0.0171744 -0.0073586 0)
(-0.0155478 -0.00731431 0)
(-0.0139278 -0.00721974 0)
(-0.0123254 -0.00707643 0)
(-0.0107512 -0.00688663 0)
(-0.00921563 -0.00665329 0)
(-0.0077283 -0.00637996 0)
(-0.00629822 -0.00607068 0)
(-0.00493353 -0.00572995 0)
(-0.00364135 -0.00536254 0)
(-0.00242779 -0.0049734 0)
(-0.00129783 -0.00456758 0)
(-0.000255329 -0.00415002 0)
(0.000696965 -0.00372555 0)
(0.0015574 -0.0032987 0)
(0.00232533 -0.00287366 0)
(0.00300108 -0.00245422 0)
(0.0035858 -0.00204368 0)
(0.00408139 -0.00164486 0)
(0.00449035 -0.00126007 0)
(0.00481574 -0.000891119 0)
(0.00506094 -0.000539346 0)
(0.00522969 -0.00020568 0)
(0.00532586 0.000109318 0)
(0.00535354 0.00040535 0)
(0.00531672 0.000682314 0)
(0.00521967 0.00094015 0)
(0.00506638 0.00117877 0)
(0.00486128 0.00139783 0)
(0.00460838 0.0015967 0)
(0.00431263 0.0017741 0)
(0.00397819 0.00192817 0)
(0.00361119 0.00205597 0)
(0.00321622 0.00215365 0)
(0.00280166 0.0022158 0)
(0.00237274 0.00223597 0)
(0.00194178 0.00220563 0)
(0.00151448 0.00211556 0)
(0.00111004 0.00195406 0)
(0.000733774 0.00170997 0)
(0.000417251 0.00136934 0)
(0.000163425 0.000921165 0)
(2.49094e-05 0.000350753 0)
(-2.56483e-05 0.000208739 0)
(-0.000188159 0.000718939 0)
(-0.000511538 0.00124735 0)
(-0.000945895 0.0017619 0)
(-0.00149436 0.00222831 0)
(-0.0021225 0.00263749 0)
(-0.00282589 0.00298098 0)
(-0.00358232 0.00326323 0)
(-0.00438621 0.00348854 0)
(-0.00522384 0.00366666 0)
(-0.0060909 0.00380594 0)
(-0.00697946 0.00391612 0)
(-0.00788696 0.00400493 0)
(-0.00880921 0.00407968 0)
(-0.00974498 0.00414574 0)
(-0.0106923 0.0042075 0)
(-0.0116507 0.00426783 0)
(-0.0126192 0.00432871 0)
(-0.0135976 0.00439107 0)
(-0.0145853 0.00445526 0)
(-0.015582 0.00452097 0)
(-0.0165868 0.00458757 0)
(-0.0175991 0.00465408 0)
(-0.0186178 0.00471937 0)
(-0.0196418 0.00478217 0)
(-0.0206695 0.00484116 0)
(-0.0216993 0.004895 0)
(-0.0227293 0.00494235 0)
(-0.0237575 0.00498195 0)
(-0.0247815 0.00501256 0)
(-0.0257991 0.00503304 0)
(-0.0268078 0.00504231 0)
(-0.0278051 0.00503941 0)
(-0.0287884 0.00502342 0)
(-0.0297551 0.00499354 0)
(-0.0307028 0.00494903 0)
(-0.0316289 0.00488919 0)
(-0.0325311 0.00481338 0)
(-0.0334069 0.004721 0)
(-0.034254 0.00461142 0)
(-0.0350702 0.00448405 0)
(-0.0358532 0.00433825 0)
(-0.0366009 0.00417338 0)
(-0.037311 0.00398875 0)
(-0.0379811 0.00378366 0)
(-0.0386089 0.00355738 0)
(-0.0391919 0.00330921 0)
(-0.0397275 0.00303845 0)
(-0.0402128 0.00274447 0)
(-0.0406448 0.00242672 0)
(-0.0410203 0.0020848 0)
(-0.041336 0.00171847 0)
(-0.0415884 0.00132774 0)
(-0.0417736 0.000912857 0)
(-0.0418879 0.00047441 0)
(-0.0419273 1.33321e-05 0)
(-0.0418878 -0.000469048 0)
(-0.0417657 -0.000970973 0)
(-0.0415569 -0.00149024 0)
(-0.041258 -0.00202416 0)
(-0.0408655 -0.0025696 0)
(-0.0403766 -0.00312295 0)
(-0.0397887 -0.00368014 0)
(-0.0391 -0.00423669 0)
(-0.0383093 -0.00478775 0)
(-0.0374162 -0.00532814 0)
(-0.0364213 -0.00585245 0)
(-0.035326 -0.00635511 0)
(-0.034133 -0.00683047 0)
(-0.0328459 -0.00727293 0)
(-0.0314696 -0.00767704 0)
(-0.0300102 -0.00803761 0)
(-0.0284748 -0.00834988 0)
(-0.0268718 -0.00860956 0)
(-0.0252107 -0.00881301 0)
(-0.0235017 -0.00895731 0)
(-0.0217559 -0.00904036 0)
(-0.0199854 -0.00906094 0)
(-0.0182023 -0.00901878 0)
(-0.0164192 -0.00891455 0)
(-0.0146488 -0.0087499 0)
(-0.0129036 -0.00852739 0)
(-0.0111958 -0.00825046 0)
(-0.00953668 -0.00792334 0)
(-0.00793714 -0.00755093 0)
(-0.0064069 -0.00713869 0)
(-0.0049546 -0.00669249 0)
(-0.00358764 -0.00621846 0)
(-0.00231214 -0.00572284 0)
(-0.00113287 -0.00521184 0)
(-5.32577e-05 -0.00469146 0)
(0.000924589 -0.00416741 0)
(0.00179978 -0.00364496 0)
(0.00257259 -0.00312888 0)
(0.0032443 -0.00262334 0)
(0.00381709 -0.0021319 0)
(0.00429388 -0.00165749 0)
(0.00467822 -0.00120241 0)
(0.00497408 -0.000768367 0)
(0.0051858 -0.000356536 0)
(0.0053179 3.23555e-05 0)
(0.00537508 0.000397924 0)
(0.00536197 0.000740029 0)
(0.00528341 0.0010586 0)
(0.00514392 0.00135352 0)
(0.00494845 0.00162441 0)
(0.00470142 0.00187049 0)
(0.00440821 0.0020903 0)
(0.00407331 0.0022816 0)
(0.0037032 0.00244096 0)
(0.00330273 0.00256383 0)