/*--------------------------------*- C++ -*----------------------------------*\
| =========                 |                                                 |
| \\      /  F ield         | OpenFOAM: The Open Source CFD Toolbox           |
|  \\    /   O peration     | Version:  2406                                  |
|   \\  /    A nd           | Website:  www.openfoam.com                      |
|    \\/     M anipulation  |                                                 |
\*---------------------------------------------------------------------------*/
FoamFile
{
    version     2.0;
    format      ascii;
    arch        "LSB;label=32;scalar=64";
    class       volVectorField;
    location    "0.6";
    object      U;
}
// * * * * * * * * * * * * * * * * * * * * * * * * * * * * * * * * * * * * * //

dimensions      [0 1 -1 0 0 0 0];

internalField   nonuniform List<vector> 
3600
(
(-1.34017e-05 1.34429e-05 0)
(-0.000107694 4.05177e-05 0)
(-0.000242395 4.76636e-05 0)
(-0.000378327 4.89544e-05 0)
(-0.000520598 4.81997e-05 0)
(-0.000656335 4.77285e-05 0)
(-0.000794714 4.68447e-05 0)
(-0.000927115 4.6161e-05 0)
(-0.00106025 4.5154e-05 0)
(-0.00118783 4.42159e-05 0)
(-0.00131451 4.30194e-05 0)
(-0.00143578 4.18288e-05 0)
(-0.0015548 4.043e-05 0)
(-0.00166833 3.90016e-05 0)
(-0.0017785 3.74022e-05 0)
(-0.00188298 3.57525e-05 0)
(-0.00198315 3.39601e-05 0)
(-0.00207736 3.21067e-05 0)
(-0.00216648 3.01325e-05 0)
(-0.00224931 2.80932e-05 0)
(-0.00232638 2.59512e-05 0)
(-0.00239685 2.37448e-05 0)
(-0.00246099 2.14513e-05 0)
(-0.00251822 1.90975e-05 0)
(-0.00256865 1.66707e-05 0)
(-0.00261188 1.41905e-05 0)
(-0.00264795 1.16507e-05 0)
(-0.00267656 9.06645e-06 0)
(-0.00269772 6.43581e-06 0)
(-0.00271124 3.77169e-06 0)
(-0.00271708 1.0744e-06 0)
(-0.00271517 -1.64353e-06 0)
(-0.00270545 -4.38111e-06 0)
(-0.00268793 -7.12461e-06 0)
(-0.00266253 -9.87395e-06 0)
(-0.0026294 -1.26125e-05 0)
(-0.00258839 -1.53428e-05 0)
(-0.0025398 -1.80434e-05 0)
(-0.00248343 -2.07221e-05 0)
(-0.00241975 -2.33493e-05 0)
(-0.00234843 -2.59419e-05 0)
(-0.00227023 -2.84581e-05 0)
(-0.00218458 -3.09291e-05 0)
(-0.00209262 -3.32949e-05 0)
(-0.00199346 -3.56087e-05 0)
(-0.00188874 -3.77833e-05 0)
(-0.00177707 -3.99052e-05 0)
(-0.0016608 -4.18471e-05 0)
(-0.00153781 -4.37457e-05 0)
(-0.00141142 -4.54141e-05 0)
(-0.00127846 -4.70647e-05 0)
(-0.00114361 -4.84212e-05 0)
(-0.00100218 -4.98157e-05 0)
(-0.000860687 -5.08375e-05 0)
(-0.000712355 -5.20236e-05 0)
(-0.000566133 -5.27308e-05 0)
(-0.000412721 -5.36728e-05 0)
(-0.000265539 -5.2413e-05 0)
(-0.000119617 -4.49501e-05 0)
(-1.59914e-05 -1.62252e-05 0)
(-4.07146e-05 0.000107813 0)
(-0.000219444 0.000218525 0)
(-0.000456813 0.000248158 0)
(-0.000696082 0.000253824 0)
(-0.000944899 0.000251859 0)
(-0.00118455 0.000249393 0)
(-0.00142715 0.000245459 0)
(-0.00166077 0.000241454 0)
(-0.00189415 0.000236373 0)
(-0.0021188 0.000231008 0)
(-0.00234065 0.000224745 0)
(-0.00255364 0.000218097 0)
(-0.00276174 0.000210678 0)
(-0.00296061 0.00020283 0)
(-0.00315282 0.000194309 0)
(-0.00333528 0.000185349 0)
(-0.0035096 0.000175798 0)
(-0.00367355 0.000165817 0)
(-0.00382812 0.000155317 0)
(-0.00397169 0.000144414 0)
(-0.00410482 0.000133059 0)
(-0.00422635 0.000121336 0)
(-0.00433654 0.000109225 0)
(-0.00443458 9.67905e-05 0)
(-0.00452055 8.4031e-05 0)
(-0.00459387 7.10001e-05 0)
(-0.00465455 5.77073e-05 0)
(-0.00470218 4.42001e-05 0)
(-0.00473671 3.04962e-05 0)
(-0.00475791 1.66403e-05 0)
(-0.00476571 2.65525e-06 0)
(-0.00476001 -1.14139e-05 0)
(-0.00474073 -2.55417e-05 0)
(-0.00470791 -3.968e-05 0)
(-0.00466147 -5.38036e-05 0)
(-0.00460163 -6.78578e-05 0)
(-0.00452824 -8.1821e-05 0)
(-0.00444175 -9.56285e-05 0)
(-0.00434193 -0.000109267 0)
(-0.00422947 -0.000122656 0)
(-0.00410404 -0.000135798 0)
(-0.00396666 -0.00014859 0)
(-0.00381674 -0.000161058 0)
(-0.0036558 -0.000173067 0)
(-0.00348286 -0.000184684 0)
(-0.0033001 -0.000195722 0)
(-0.00310591 -0.000206312 0)
(-0.0029034 -0.000216193 0)
(-0.00269004 -0.00022559 0)
(-0.00247023 -0.00023413 0)
(-0.00224004 -0.000242189 0)
(-0.00200571 -0.000249213 0)
(-0.00176129 -0.000255822 0)
(-0.00151554 -0.000261171 0)
(-0.00125969 -0.000266292 0)
(-0.00100606 -0.0002697 0)
(-0.000742411 -0.000272382 0)
(-0.000488154 -0.000266851 0)
(-0.000235807 -0.000236029 0)
(-4.44348e-05 -0.000119313 0)
(-4.83638e-05 0.000243936 0)
(-0.000251558 0.000457013 0)
(-0.000519403 0.000514742 0)
(-0.000788127 0.000524978 0)
(-0.00106713 0.000521777 0)
(-0.0013359 0.000516241 0)
(-0.00160765 0.000508349 0)
(-0.00186954 0.000499632 0)
(-0.00213085 0.000489139 0)
(-0.00238253 0.000477675 0)
(-0.00263082 0.000464647 0)
(-0.0028693 0.000450579 0)
(-0.00310208 0.00043511 0)
(-0.00332459 0.000418598 0)
(-0.00353946 0.000400827 0)
(-0.00374344 0.000382048 0)
(-0.00393817 0.000362139 0)
(-0.0041213 0.000341285 0)
(-0.0042938 0.000319425 0)
(-0.004454 0.000296701 0)
(-0.00460241 0.000273095 0)
(-0.00473783 0.000248718 0)
(-0.0048605 0.000223581 0)
(-0.00496955 0.00019778 0)
(-0.00506506 0.000171345 0)
(-0.00514642 0.00014436 0)
(-0.00521359 0.000116868 0)
(-0.00526618 8.89493e-05 0)
(-0.00530412 6.06573e-05 0)
(-0.00532715 3.20701e-05 0)
(-0.0053352 3.24758e-06 0)
(-0.00532818 -2.57296e-05 0)
(-0.005306 -5.47978e-05 0)
(-0.00526871 -8.38709e-05 0)
(-0.00521624 -0.000112883 0)
(-0.00514881 -0.000141741 0)
(-0.0050663 -0.000170381 0)
(-0.00496917 -0.000198696 0)
(-0.00485722 -0.000226628 0)
(-0.00473118 -0.000254056 0)
(-0.00459072 -0.000280934 0)
(-0.00443693 -0.000307117 0)
(-0.00426923 -0.000332584 0)
(-0.00408923 -0.000357154 0)
(-0.00389594 -0.000380848 0)
(-0.00369165 -0.000403436 0)
(-0.00347474 -0.000425001 0)
(-0.00324849 -0.000445241 0)
(-0.00301028 -0.000464338 0)
(-0.00276476 -0.000481878 0)
(-0.00250786 -0.000498201 0)
(-0.00224617 -0.000512714 0)
(-0.00197346 -0.000526009 0)
(-0.00169904 -0.0005372 0)
(-0.0014136 -0.000547265 0)
(-0.00113037 -0.00055455 0)
(-0.00083603 -0.000559055 0)
(-0.0005518 -0.000549098 0)
(-0.000268416 -0.000489185 0)
(-5.21709e-05 -0.000265299 0)
(-5.02281e-05 0.000382644 0)
(-0.000260439 0.000699938 0)
(-0.000536389 0.000785053 0)
(-0.000812567 0.000799256 0)
(-0.00109931 0.000794599 0)
(-0.00137541 0.000785955 0)
(-0.00165469 0.000774083 0)
(-0.00192379 0.000760645 0)
(-0.00219234 0.000744683 0)
(-0.00245096 0.000727072 0)
(-0.00270612 0.000707188 0)
(-0.00295116 0.000685623 0)
(-0.00319035 0.000661996 0)
(-0.00341895 0.000636722 0)
(-0.0036397 0.000609578 0)
(-0.00384924 0.000580866 0)
(-0.00404926 0.000550469 0)
(-0.00423735 0.000518615 0)
(-0.00441452 0.000485258 0)
(-0.00457903 0.000450577 0)
(-0.00473143 0.000414576 0)
(-0.00487047 0.000377404 0)
(-0.00499642 0.000339095 0)
(-0.00510837 0.000299781 0)
(-0.00520641 0.00025952 0)
(-0.00528991 0.000218431 0)
(-0.00535886 0.000176588 0)
(-0.00541282 0.000134108 0)
(-0.00545174 9.10751e-05 0)
(-0.00547536 4.76053e-05 0)
(-0.0054836 3.7927e-06 0)
(-0.00547636 -4.02439e-05 0)
(-0.00545356 -8.44043e-05 0)
(-0.00541526 -0.000128562 0)
(-0.00536136 -0.000172615 0)
(-0.00529211 -0.000216425 0)
(-0.00520738 -0.00025989 0)
(-0.00510764 -0.000302857 0)
(-0.00499267 -0.00034523 0)
(-0.00486324 -0.000386837 0)
(-0.00471899 -0.000427593 0)
(-0.00456105 -0.000467301 0)
(-0.00438881 -0.000505902 0)
(-0.00420394 -0.000543158 0)
(-0.0040054 -0.000579058 0)
(-0.00379556 -0.000613308 0)
(-0.00357273 -0.000645968 0)
(-0.0033403 -0.000676663 0)
(-0.00309556 -0.000705566 0)
(-0.00284332 -0.00073218 0)
(-0.00257936 -0.000756854 0)
(-0.00231049 -0.0007789 0)
(-0.00203026 -0.000798936 0)
(-0.00174832 -0.000815976 0)
(-0.00145502 -0.000831008 0)
(-0.00116411 -0.000842205 0)
(-0.000861635 -0.000848759 0)
(-0.000569563 -0.00083499 0)
(-0.00027768 -0.000746705 0)
(-5.41045e-05 -0.000413747 0)
(-5.03237e-05 0.000529938 0)
(-0.000263139 0.000956403 0)
(-0.000542975 0.00107001 0)
(-0.000822846 0.00108839 0)
(-0.00111352 0.00108227 0)
(-0.00139317 0.0010703 0)
(-0.00167612 0.00105425 0)
(-0.00194864 0.00103578 0)
(-0.00222066 0.00101405 0)
(-0.00248256 0.000989905 0)
(-0.00274099 0.000962786 0)
(-0.00298913 0.000933277 0)
(-0.00323137 0.000901039 0)
(-0.00346287 0.000866497 0)
(-0.00368644 0.000829462 0)
(-0.00389864 0.000790258 0)
(-0.00410121 0.000748797 0)
(-0.0042917 0.000705334 0)
(-0.00447115 0.000659854 0)
(-0.00463777 0.000612565 0)
(-0.00479216 0.000563501 0)
(-0.00493302 0.000512843 0)
(-0.00506064 0.000460658 0)
(-0.0051741 0.000407109 0)
(-0.0052735 0.000352288 0)
(-0.00535818 0.000296348 0)
(-0.00542815 0.000239398 0)
(-0.00548296 0.000181589 0)
(-0.00552255 0.000123042 0)
(-0.00554666 6.39089e-05 0)
(-0.00555522 4.32137e-06 0)
(-0.00554811 -5.55636e-05 0)
(-0.00552526 -0.000115606 0)
(-0.00548671 -0.000175641 0)
(-0.00543238 -0.000235523 0)
(-0.0053625 -0.000295073 0)
(-0.00527693 -0.000354144 0)
(-0.00517616 -0.000412541 0)
(-0.00505995 -0.000470121 0)
(-0.00492908 -0.000526665 0)
(-0.00478318 -0.000582044 0)
(-0.00462339 -0.000636009 0)
(-0.00444909 -0.000688456 0)
(-0.00426197 -0.000739097 0)
(-0.00406094 -0.000787871 0)
(-0.00384845 -0.000834436 0)
(-0.00362275 -0.000878805 0)
(-0.00338729 -0.000920556 0)
(-0.00313929 -0.000959812 0)
(-0.00288368 -0.00099604 0)
(-0.0026161 -0.00102953 0)
(-0.00234355 -0.00105958 0)
(-0.00205939 -0.00108673 0)
(-0.00177353 -0.00111001 0)
(-0.00147597 -0.00113026 0)
(-0.00118091 -0.00114564 0)
(-0.000873874 -0.00115428 0)
(-0.000577459 -0.0011365 0)
(-0.000281043 -0.00101867 0)
(-5.43389e-05 -0.000571399 0)
(-5.08919e-05 0.00067345 0)
(-0.000266485 0.00120885 0)
(-0.000549708 0.00135063 0)
(-0.000832973 0.00137302 0)
(-0.00112715 0.00136525 0)
(-0.00141011 0.00134997 0)
(-0.00169648 0.00132977 0)
(-0.00197223 0.00130635 0)
(-0.00224755 0.00127895 0)
(-0.00251257 0.00124841 0)
(-0.00277413 0.00121419 0)
(-0.00302525 0.00117689 0)
(-0.00327042 0.00113619 0)
(-0.0035047 0.00109256 0)
(-0.00373099 0.00104581 0)
(-0.00394575 0.000996314 0)
(-0.00415081 0.000943991 0)
(-0.00434363 0.000889134 0)
(-0.00452529 0.000831751 0)
(-0.004694 0.000772086 0)
(-0.00485033 0.000710198 0)
(-0.004993 0.000646302 0)
(-0.00512229 0.000580493 0)
(-0.00523727 0.000512969 0)
(-0.00533804 0.000443851 0)
(-0.00542394 0.000373329 0)
(-0.00549498 0.000301542 0)
(-0.0055507 0.000228676 0)
(-0.00559104 0.000154886 0)
(-0.00561574 8.03611e-05 0)
(-0.00562471 5.26792e-06 0)
(-0.00561785 -7.01986e-05 0)
(-0.00559506 -0.000145862 0)
(-0.00555641 -0.000221515 0)
(-0.00550177 -0.000296975 0)
(-0.0054314 -0.00037202 0)
(-0.00534515 -0.000446462 0)
(-0.00524349 -0.000520061 0)
(-0.00512619 -0.000592631 0)
(-0.00499403 -0.000663904 0)
(-0.00484662 -0.000733709 0)
(-0.00468512 -0.000801744 0)
(-0.00450888 -0.000867862 0)
(-0.00431962 -0.00093172 0)
(-0.00411622 -0.000993217 0)
(-0.00390117 -0.00105195 0)
(-0.00367267 -0.0011079 0)
(-0.00343425 -0.00116058 0)
(-0.00318305 -0.00121009 0)
(-0.0029241 -0.00125581 0)
(-0.00265295 -0.00129804 0)
(-0.00237675 -0.001336 0)
(-0.00208867 -0.00137021 0)
(-0.00179891 -0.00139965 0)
(-0.00149719 -0.00142514 0)
(-0.00119803 -0.0014447 0)
(-0.000886635 -0.00145565 0)
(-0.000585972 -0.00143402 0)
(-0.000285312 -0.00128694 0)
(-5.51116e-05 -0.000725409 0)
(-5.13571e-05 0.000823233 0)
(-0.000269919 0.00147082 0)
(-0.000557265 0.00164155 0)
(-0.000844689 0.00166822 0)
(-0.00114323 0.0016588 0)
(-0.00143033 0.00164014 0)
(-0.00172092 0.00161563 0)
(-0.00200066 0.00158709 0)
(-0.00228 0.00155379 0)
(-0.00254884 0.0015166 0)
(-0.0028142 0.00147499 0)
(-0.00306893 0.00142959 0)
(-0.00331766 0.00138011 0)
(-0.00355532 0.00132704 0)
(-0.0037849 0.00127021 0)
(-0.00400278 0.00121002 0)
(-0.00421083 0.00114643 0)
(-0.00440647 0.00107975 0)
(-0.00459083 0.00101003 0)
(-0.00476204 0.000937532 0)
(-0.00492074 0.000862353 0)
(-0.0050656 0.000784739 0)
(-0.00519691 0.000704817 0)
(-0.00531373 0.000622818 0)
(-0.00541618 0.000538894 0)
(-0.00550357 0.00045327 0)
(-0.00557591 0.000366119 0)
(-0.00563274 0.000277661 0)
(-0.00567401 0.000188088 0)
(-0.00569943 9.76229e-05 0)
(-0.00570893 6.47014e-06 0)
(-0.00570239 -8.51376e-05 0)
(-0.0056797 -0.000176985 0)
(-0.00564093 -0.000268826 0)
(-0.00558595 -0.000360436 0)
(-0.00551501 -0.000451551 0)
(-0.00542795 -0.000541942 0)
(-0.00532524 -0.00063132 0)
(-0.00520664 -0.000719456 0)
(-0.00507294 -0.000806036 0)
(-0.00492371 -0.000890837 0)
(-0.00476015 -0.00097351 0)
(-0.00458158 -0.00105386 0)
(-0.00438973 -0.00113149 0)
(-0.00418347 -0.00120625 0)
(-0.00396532 -0.00127768 0)
(-0.00373343 -0.00134572 0)
(-0.00349141 -0.00140982 0)
(-0.00323631 -0.00147003 0)
(-0.0029733 -0.00152571 0)
(-0.00269778 -0.00157708 0)
(-0.0024171 -0.00162332 0)
(-0.00212424 -0.00166493 0)
(-0.00182963 -0.00170083 0)
(-0.00152276 -0.00173178 0)
(-0.00121847 -0.00175568 0)
(-0.000901652 -0.00176898 0)
(-0.000595759 -0.00174324 0)
(-0.000289905 -0.00156605 0)
(-5.58372e-05 -0.000886633 0)
(-5.22387e-05 0.00097134 0)
(-0.000274535 0.00173171 0)
(-0.000566666 0.00193156 0)
(-0.000858929 0.00196249 0)
(-0.00116247 0.00195131 0)
(-0.00145437 0.00192924 0)
(-0.00174982 0.0019004 0)
(-0.00203422 0.00186675 0)
(-0.00231825 0.00182757 0)
(-0.00259157 0.00178376 0)
(-0.00286137 0.00173479 0)
(-0.00312035 0.00168135 0)
(-0.00337325 0.00162313 0)
(-0.00361487 0.00156067 0)
(-0.0038483 0.00149382 0)
(-0.00406983 0.001423 0)
(-0.0042814 0.00134821 0)
(-0.00448035 0.00126979 0)
(-0.00466786 0.0011878 0)
(-0.00484202 0.00110255 0)
(-0.00500349 0.00101417 0)
(-0.0051509 0.000922927 0)
(-0.00528459 0.000828981 0)
(-0.00540358 0.000732599 0)
(-0.00550798 0.000633964 0)
(-0.00559712 0.000533332 0)
(-0.00567099 0.000430911 0)
(-0.00572914 0.000326956 0)
(-0.00577149 0.000221689 0)
(-0.00579778 0.000115372 0)
(-0.00580789 8.24331e-06 0)
(-0.00580173 -9.94271e-05 0)
(-0.00577918 -0.000207387 0)
(-0.00574028 -0.00031535 0)
(-0.00568492 -0.000423053 0)
(-0.00561333 -0.00053019 0)
(-0.00552533 -0.000636488 0)
(-0.00542142 -0.000741615 0)
(-0.00530132 -0.000845297 0)
(-0.00516582 -0.000947169 0)
(-0.00501449 -0.00104697 0)
(-0.00484854 -0.00114428 0)
(-0.00466724 -0.00123888 0)
(-0.00447238 -0.0013303 0)
(-0.00426277 -0.00141835 0)
(-0.00404099 -0.00150251 0)
(-0.00380513 -0.00158267 0)
(-0.00355889 -0.00165823 0)
(-0.00329922 -0.00172921 0)
(-0.00303144 -0.00179487 0)
(-0.0027508 -0.00185543 0)
(-0.00246484 -0.00191 0)
(-0.00216638 -0.00195906 0)
(-0.0018661 -0.00200146 0)
(-0.00155323 -0.00203798 0)
(-0.00124296 -0.00206628 0)
(-0.00091987 -0.00208209 0)
(-0.000607849 -0.00205227 0)
(-0.000295914 -0.00184474 0)
(-5.70281e-05 -0.00104653 0)
(-5.30996e-05 0.00112533 0)
(-0.0002796 0.00200165 0)
(-0.000577405 0.00223138 0)
(-0.00087536 0.00226677 0)
(-0.00118484 0.00225382 0)
(-0.00148242 0.00222827 0)
(-0.00178364 0.00219495 0)
(-0.00207356 0.00215603 0)
(-0.0023631 0.00211075 0)
(-0.0026417 0.00206008 0)
(-0.00291674 0.0020035 0)
(-0.0031807 0.00194172 0)
(-0.00343849 0.00187445 0)
(-0.00368477 0.00180226 0)
(-0.00392272 0.00172504 0)
(-0.00414853 0.00164324 0)
(-0.00436421 0.00155686 0)
(-0.00456704 0.0014663 0)
(-0.00475823 0.00137163 0)
(-0.00493584 0.00127322 0)
(-0.00510055 0.0011712 0)
(-0.00525096 0.00106589 0)
(-0.00538742 0.000957474 0)
(-0.00550894 0.000846251 0)
(-0.00561564 0.000732439 0)
(-0.00570682 0.000616327 0)
(-0.00578249 0.000498155 0)
(-0.00584217 0.000378213 0)
(-0.0058858 0.000256757 0)
(-0.00591309 0.000134085 0)
(-0.00592394 1.04684e-05 0)
(-0.00591823 -0.000113783 0)
(-0.00589584 -0.000238382 0)
(-0.00585681 -0.000363001 0)
(-0.00580101 -0.000487337 0)
(-0.00572867 -0.000611043 0)
(-0.0056396 -0.000733803 0)
(-0.00553428 -0.000855238 0)
(-0.00541243 -0.000975031 0)
(-0.00527484 -0.00109277 0)
(-0.00512106 -0.00120813 0)
(-0.00495231 -0.00132066 0)
(-0.00476782 -0.00143007 0)
(-0.00456944 -0.00153585 0)
(-0.00435591 -0.00163776 0)
(-0.00412988 -0.0017352 0)
(-0.00388936 -0.00182803 0)
(-0.00363816 -0.00191557 0)
(-0.00337314 -0.00199781 0)
(-0.00309973 -0.00207393 0)
(-0.00281307 -0.00214414 0)
(-0.0025209 -0.00220744 0)
(-0.00221584 -0.00226433 0)
(-0.00190884 -0.00231355 0)
(-0.00158889 -0.00235589 0)
(-0.00127152 -0.00238877 0)
(-0.000940997 -0.00240716 0)
(-0.000621766 -0.00237308 0)
(-0.000302634 -0.00213435 0)
(-5.82639e-05 -0.00121366 0)
(-5.42564e-05 0.00127959 0)
(-0.000285682 0.00227348 0)
(-0.000589929 0.00253356 0)
(-0.000894355 0.00257344 0)
(-0.00121054 0.00255865 0)
(-0.00151456 0.00252955 0)
(-0.0018223 0.00249169 0)
(-0.00211847 0.00244743 0)
(-0.00241427 0.002396 0)
(-0.00269886 0.00233843 0)
(-0.00297982 0.00227417 0)
(-0.00324945 0.002204 0)
(-0.00351279 0.00212763 0)
(-0.00376435 0.00204567 0)
(-0.00400742 0.00195801 0)
(-0.00423809 0.00186516 0)
(-0.00445843 0.00176714 0)
(-0.00466566 0.00166438 0)
(-0.00486102 0.00155698 0)
(-0.00504254 0.00144535 0)
(-0.00521092 0.00132963 0)
(-0.00536473 0.00121019 0)
(-0.00550433 0.00108725 0)
(-0.00562871 0.000961125 0)
(-0.00573801 0.000832075 0)
(-0.00583151 0.000700421 0)
(-0.00590921 0.000566434 0)
(-0.00597064 0.000430436 0)
(-0.00601573 0.000292719 0)
(-0.00604418 0.000153613 0)
(-0.00605588 1.34253e-05 0)
(-0.0060507 -0.000127499 0)
(-0.00602852 -0.000268835 0)
(-0.00598937 -0.000410219 0)
(-0.00593309 -0.000551307 0)
(-0.00585993 -0.000691709 0)
(-0.00576968 -0.000831069 0)
(-0.0056628 -0.000968961 0)
(-0.005539 -0.00110502 0)
(-0.00539908 -0.00123879 0)
(-0.00524255 -0.00136989 0)
(-0.00507065 -0.00149782 0)
(-0.00488259 -0.00162224 0)
(-0.00468023 -0.00174257 0)
(-0.00446228 -0.00185853 0)
(-0.00423144 -0.00196945 0)
(-0.00398566 -0.00207515 0)
(-0.00372883 -0.00217486 0)
(-0.00345773 -0.00226855 0)
(-0.00317792 -0.00235531 0)
(-0.00288443 -0.00243534 0)
(-0.00258518 -0.00250753 0)
(-0.00227261 -0.00257241 0)
(-0.00195795 -0.00262858 0)
(-0.00162993 -0.0026769 0)
(-0.00130449 -0.00271448 0)
(-0.000965494 -0.00273558 0)
(-0.00063801 -0.00269723 0)
(-0.000310639 -0.00242673 0)
(-5.98459e-05 -0.00138152 0)
(-5.54516e-05 0.00143966 0)
(-0.000292364 0.00255458 0)
(-0.000603951 0.00284586 0)
(-0.000915715 0.0028904 0)
(-0.00123954 0.00287372 0)
(-0.00155088 0.00284099 0)
(-0.00186604 0.00279843 0)
(-0.00216932 0.00274867 0)
(-0.00247222 0.00269086 0)
(-0.00276362 0.00262614 0)
(-0.0030513 0.00255392 0)
(-0.00332735 0.00247507 0)
(-0.00359696 0.00238926 0)
(-0.00385452 0.00229719 0)
(-0.00410337 0.00219873 0)
(-0.00433954 0.00209447 0)
(-0.00456515 0.00198442 0)
(-0.00477735 0.00186906 0)
(-0.00497743 0.00174853 0)
(-0.00516336 0.00162325 0)
(-0.00533587 0.00149341 0)
(-0.00549351 0.00135941 0)
(-0.00563666 0.00122149 0)
(-0.00576428 0.00108002 0)
(-0.00587652 0.00093528 0)
(-0.00597264 0.00078762 0)
(-0.00605265 0.000637346 0)
(-0.00611607 0.000484815 0)
(-0.00616281 0.000330349 0)
(-0.00619257 0.000174313 0)
(-0.00620525 1.70489e-05 0)
(-0.00620069 -0.000141064 0)
(-0.00617876 -0.000299664 0)
(-0.0061395 -0.000458348 0)
(-0.00608272 -0.000616736 0)
(-0.00600865 -0.000774394 0)
(-0.00591708 -0.000930926 0)
(-0.00580847 -0.00108586 0)
(-0.00568249 -0.00123878 0)
(-0.00553996 -0.00138918 0)
(-0.00538034 -0.00153664 0)
(-0.00520491 -0.00168059 0)
(-0.00501282 -0.00182065 0)
(-0.00480598 -0.00195616 0)
(-0.00458303 -0.00208679 0)
(-0.00434675 -0.00221181 0)
(-0.00409501 -0.002331 0)
(-0.00383181 -0.00244348 0)
(-0.00355381 -0.00254921 0)
(-0.00326675 -0.00264717 0)
(-0.00296548 -0.00273755 0)
(-0.00265819 -0.00281912 0)
(-0.00233707 -0.00289244 0)
(-0.0020137 -0.00295595 0)
(-0.00167648 -0.00301057 0)
(-0.00134183 -0.0030531 0)
(-0.000993181 -0.00307705 0)
(-0.000656315 -0.00303429 0)
(-0.000319555 -0.00273105 0)
(-6.15498e-05 -0.00155713 0)
(-5.68877e-05 0.00160167 0)
(-0.0003 0.00284015 0)
(-0.000619762 0.00316334 0)
(-0.000939712 0.00321262 0)
(-0.00127203 0.00319399 0)
(-0.00159152 0.00315753 0)
(-0.00191492 0.00311017 0)
(-0.00222611 0.00305479 0)
(-0.0025369 0.00299048 0)
(-0.00283587 0.00291849 0)
(-0.00313101 0.00283818 0)
(-0.0034142 0.0027505 0)
(-0.00369078 0.00265512 0)
(-0.00395498 0.00255278 0)
(-0.00421026 0.00244338 0)
(-0.00445252 0.00232753 0)
(-0.00468396 0.00220528 0)
(-0.00490167 0.00207716 0)
(-0.00510697 0.00194331 0)
(-0.00529779 0.00180421 0)
(-0.00547488 0.00166007 0)
(-0.00563677 0.00151133 0)
(-0.00578385 0.00135826 0)
(-0.00591506 0.00120126 0)
(-0.00603055 0.00104063 0)
(-0.00612958 0.000876779 0)
(-0.00621216 0.000710024 0)
(-0.00627779 0.00054076 0)
(-0.00632639 0.00036934 0)
(-0.00635763 0.000196162 0)
(-0.00637142 2.16013e-05 0)
(-0.00636758 -0.000153929 0)
(-0.00634597 -0.000330032 0)
(-0.00630662 -0.000506268 0)
(-0.00624933 -0.000682218 0)
(-0.00617432 -0.000857407 0)
(-0.00608134 -0.0010314 0)
(-0.00597086 -0.00120367 0)
(-0.00584253 -0.00137376 0)
(-0.00569716 -0.00154111 0)
(-0.00553418 -0.00170526 0)
(-0.00535488 -0.00186557 0)
(-0.00515838 -0.0020216 0)
(-0.00494661 -0.00217263 0)
(-0.00471816 -0.00231829 0)
(-0.00447588 -0.00245776 0)
(-0.00421754 -0.00259076 0)
(-0.00394727 -0.00271634 0)
(-0.00366161 -0.00283442 0)
(-0.00336648 -0.00294388 0)
(-0.00305655 -0.00304489 0)
(-0.00274027 -0.0031361 0)
(-0.00240959 -0.0032181 0)
(-0.00207647 -0.00328917 0)
(-0.00172896 -0.0033503 0)
(-0.00138398 -0.00339795 0)
(-0.00102449 -0.00342489 0)
(-0.000677072 -0.00337766 0)
(-0.000329743 -0.00304084 0)
(-6.35471e-05 -0.00173513 0)
(-5.84096e-05 0.0017697 0)
(-0.000308351 0.00313571 0)
(-0.000637211 0.00349177 0)
(-0.000966247 0.00354594 0)
(-0.00130801 0.0035253 0)
(-0.00163656 0.003485 0)
(-0.00196913 0.00343266 0)
(-0.00228911 0.00337145 0)
(-0.00260866 0.0033004 0)
(-0.00291602 0.00322086 0)
(-0.00321944 0.00313216 0)
(-0.00351055 0.00303532 0)
(-0.00379486 0.00293001 0)
(-0.00406641 0.00281704 0)
(-0.0043288 0.0026963 0)
(-0.0045778 0.00256847 0)
(-0.0048157 0.00243361 0)
(-0.00503949 0.0022923 0)
(-0.00525056 0.00214471 0)
(-0.00544678 0.00199135 0)
(-0.00562894 0.00183247 0)
(-0.00579552 0.00166854 0)
(-0.00594693 0.00149985 0)
(-0.0060821 0.00132686 0)
(-0.0062012 0.00114988 0)
(-0.00630345 0.000969353 0)
(-0.00638888 0.000785634 0)
(-0.00645696 0.000599147 0)
(-0.00650762 0.000410273 0)
(-0.00654053 0.000219444 0)
(-0.00655556 2.70641e-05 0)
(-0.00655255 -0.000166418 0)
(-0.00653134 -0.000360573 0)
(-0.00649193 -0.000554923 0)
(-0.00643411 -0.000749016 0)
(-0.00635809 -0.000942333 0)
(-0.0062636 -0.0011344 0)
(-0.00615112 -0.00132464 0)
(-0.00602022 -0.00151256 0)
(-0.00587175 -0.00169754 0)
(-0.00570509 -0.00187906 0)
(-0.00552156 -0.00205643 0)
(-0.00532019 -0.00222916 0)
(-0.00510299 -0.00239644 0)
(-0.00486846 -0.00255787 0)
(-0.00461954 -0.00271252 0)
(-0.0043539 -0.00286008 0)
(-0.00407579 -0.0029995 0)
(-0.00378162 -0.00313064 0)
(-0.00347751 -0.00325229 0)
(-0.00315796 -0.00336459 0)
(-0.00283167 -0.00346606 0)
(-0.00249036 -0.00355731 0)
(-0.00214636 -0.00363644 0)
(-0.00178738 -0.00370451 0)
(-0.00143088 -0.0037576 0)
(-0.00105931 -0.00378775 0)
(-0.000700133 -0.00373594 0)
(-0.000341027 -0.00336441 0)
(-6.57408e-05 -0.00192194 0)
(-6.01441e-05 0.00194116 0)
(-0.000317649 0.00343809 0)
(-0.000656515 0.00382796 0)
(-0.000995554 0.00388714 0)
(-0.00134771 0.00386442 0)
(-0.00168621 0.00382014 0)
(-0.00202884 0.00376268 0)
(-0.00235846 0.00369549 0)
(-0.00268763 0.00361751 0)
(-0.0030042 0.00353023 0)
(-0.00331669 0.00343293 0)
(-0.00361647 0.00332672 0)
(-0.00390923 0.00321124 0)
(-0.00418883 0.00308739 0)
(-0.00445899 0.00295505 0)
(-0.00471536 0.00281499 0)
(-0.0049603 0.00266725 0)
(-0.00519073 0.00251248 0)
(-0.00540809 0.00235086 0)
(-0.00561019 0.00218297 0)
(-0.00579787 0.00200906 0)
(-0.00596956 0.00182965 0)
(-0.00612571 0.00164507 0)
(-0.00626521 0.00145579 0)
(-0.00638823 0.00126217 0)
(-0.00649401 0.00106467 0)
(-0.00658256 0.00086369 0)
(-0.00665334 0.000659672 0)
(-0.00670628 0.000453032 0)
(-0.00674104 0.000244229 0)
(-0.00675748 3.36994e-05 0)
(-0.00675543 -0.000178077 0)
(-0.0067347 -0.000390638 0)
(-0.00669529 -0.000603472 0)
(-0.00663697 -0.000816088 0)
(-0.00655994 -0.00102793 0)
(-0.00646389 -0.00123848 0)
(-0.00634929 -0.00144712 0)
(-0.00621569 -0.00165331 0)
(-0.00606393 -0.00185636 0)
(-0.00589335 -0.00205572 0)
(-0.00570527 -0.00225062 0)
(-0.00549869 -0.00244052 0)
(-0.00527562 -0.00262455 0)
(-0.00503452 -0.00280221 0)
(-0.00477839 -0.00297251 0)
(-0.0045048 -0.00313509 0)
(-0.00421813 -0.00328879 0)
(-0.00391466 -0.00343343 0)
(-0.0036007 -0.00356766 0)
(-0.00327055 -0.00369165 0)
(-0.00293323 -0.00380372 0)
(-0.00258017 -0.00390454 0)
(-0.00222415 -0.00399201 0)
(-0.00185244 -0.00406728 0)
(-0.00148316 -0.00412605 0)
(-0.00109815 -0.00415954 0)
(-0.000725879 -0.00410305 0)
(-0.000353641 -0.0036957 0)
(-6.81994e-05 -0.00211243 0)
(-6.20013e-05 0.00211907 0)
(-0.000327761 0.0037515 0)
(-0.000677603 0.00417631 0)
(-0.0010276 0.00424067 0)
(-0.00139114 0.00421577 0)
(-0.00174055 0.00416737 0)
(-0.00209421 0.00410457 0)
(-0.00243439 0.00403115 0)
(-0.00277408 0.00394596 0)
(-0.00310073 0.00385063 0)
(-0.00342314 0.00374437 0)
(-0.00373239 0.00362842 0)
(-0.00403438 0.00350238 0)
(-0.00432277 0.00336724 0)
(-0.00460141 0.00322289 0)
(-0.0048658 0.00307014 0)
(-0.00511842 0.00290906 0)
(-0.00535608 0.00274037 0)
(-0.00558029 0.00256426 0)
(-0.00578879 0.00238136 0)
(-0.00598247 0.00219194 0)
(-0.00615972 0.00199657 0)
(-0.00632102 0.0017956 0)
(-0.00646522 0.00158954 0)
(-0.00659253 0.00137879 0)
(-0.00670215 0.00116382 0)
(-0.00679411 0.000945066 0)
(-0.00686785 0.000723002 0)
(-0.0069233 0.000498069 0)
(-0.00696011 0.000270756 0)
(-0.00697812 4.15265e-05 0)
(-0.00697715 -0.000189111 0)
(-0.006957 -0.000420661 0)
(-0.00691765 -0.000652584 0)
(-0.00685885 -0.000884352 0)
(-0.00678078 -0.00111537 0)
(-0.0066831 -0.00134508 0)
(-0.00656627 -0.00157283 0)
(-0.0064298 -0.00179802 0)
(-0.00627452 -0.00201992 0)
(-0.00609971 -0.00223792 0)
(-0.00590673 -0.00245118 0)
(-0.00569449 -0.0026591 0)
(-0.00546507 -0.00286073 0)
(-0.00521681 -0.00305554 0)
(-0.00495282 -0.0032424 0)
(-0.00467055 -0.00342092 0)
(-0.00437452 -0.00358981 0)
(-0.00406086 -0.00374886 0)
(-0.0037361 -0.00389657 0)
(-0.00339433 -0.00403308 0)
(-0.0030449 -0.00415656 0)
(-0.00267893 -0.00426769 0)
(-0.00230969 -0.00436417 0)
(-0.00192399 -0.00444722 0)
(-0.00154065 -0.0045121 0)
(-0.00114088 -0.00454927 0)
(-0.000754207 -0.00448801 0)
(-0.000367546 -0.00404351 0)
(-7.0932e-05 -0.00231347 0)
(-6.40586e-05 0.00230184 0)
(-0.000338848 0.00407405 0)
(-0.000700658 0.00453493 0)
(-0.00106261 0.00460462 0)
(-0.00143856 0.00457745 0)
(-0.00179985 0.00452477 0)
(-0.00216551 0.00445644 0)
(-0.00251718 0.00437657 0)
(-0.00286832 0.00428392 0)
(-0.00320591 0.00418027 0)
(-0.00353909 0.00406476 0)
(-0.00385862 0.00393876 0)
(-0.00417061 0.00380183 0)
(-0.00446849 0.00365506 0)
(-0.0047563 0.00349834 0)
(-0.00502937 0.00333255 0)
(-0.00529028 0.00315778 0)
(-0.00553573 0.00297479 0)
(-0.00576732 0.00278381 0)
(-0.00598272 0.00258552 0)
(-0.00618287 0.00238022 0)
(-0.00636611 0.00216851 0)
(-0.00653296 0.00195077 0)
(-0.00668223 0.00172756 0)
(-0.00681417 0.00149928 0)
(-0.00692794 0.00126646 0)
(-0.00702359 0.00102954 0)
(-0.00710055 0.000789039 0)
(-0.00715875 0.000545412 0)
(-0.00719781 0.000299178 0)
(-0.00721759 5.08281e-05 0)
(-0.00721786 -0.000199103 0)
(-0.00719842 -0.000450092 0)
(-0.00715924 -0.000701567 0)
(-0.00710003 -0.000952967 0)
(-0.00702096 -0.00120366 0)
(-0.00692165 -0.00145306 0)
(-0.00680254 -0.00170045 0)
(-0.0066631 -0.00194519 0)
(-0.00650416 -0.0021865 0)
(-0.00632495 -0.00242371 0)
(-0.00612681 -0.00265592 0)
(-0.0059086 -0.00288247 0)
(-0.00567243 -0.00310231 0)
(-0.00541655 -0.00331484 0)
(-0.00514415 -0.00351886 0)
(-0.00485255 -0.00371389 0)
(-0.00454644 -0.00389852 0)
(-0.00422175 -0.00407251 0)
(-0.00388526 -0.00423418 0)
(-0.00353083 -0.00438369 0)
(-0.00316817 -0.004519 0)
(-0.00278804 -0.00464084 0)
(-0.00240427 -0.00474666 0)
(-0.00200316 -0.00483781 0)
(-0.0016043 -0.00490907 0)
(-0.00118818 -0.00495007 0)
(-0.000785569 -0.0048839 0)
(-0.000382898 -0.00440087 0)
(-7.39109e-05 -0.00251907 0)
(-6.62677e-05 0.0024916 0)
(-0.000350848 0.0044089 0)
(-0.000725665 0.00490718 0)
(-0.00110059 0.00498238 0)
(-0.00149003 0.00495283 0)
(-0.00186421 0.00489568 0)
(-0.0022429 0.00482157 0)
(-0.00260704 0.00473496 0)
(-0.00297059 0.00463452 0)
(-0.00332003 0.00452218 0)
(-0.00366488 0.00439704 0)
(-0.00399551 0.00426055 0)
(-0.00431832 0.00411229 0)
(-0.00462647 0.00395342 0)
(-0.00492417 0.00378384 0)
(-0.00520659 0.00360451 0)
(-0.00547643 0.00341553 0)
(-0.00573028 0.00321773 0)
(-0.00596981 0.00301137 0)
(-0.00619263 0.00279716 0)
(-0.00639973 0.00257545 0)
(-0.00658941 0.00234688 0)
(-0.00676222 0.00211185 0)
(-0.00691696 0.00187095 0)
(-0.00705388 0.00162462 0)
(-0.00717213 0.00137341 0)
(-0.00727178 0.00111779 0)
(-0.00735223 0.000858304 0)
(-0.00741342 0.000595429 0)
(-0.00745496 0.000329705 0)
(-0.00747668 6.16506e-05 0)
(-0.00747835 -0.00020818 0)
(-0.00745976 -0.000479233 0)
(-0.00742084 -0.000750915 0)
(-0.00736127 -0.00102263 0)
(-0.00728121 -0.00129372 0)
(-0.00718024 -0.00156355 0)
(-0.00705878 -0.00183138 0)
(-0.00691624 -0.00209653 0)
(-0.00675345 -0.00235814 0)
(-0.00656955 -0.0026155 0)
(-0.00636593 -0.00286764 0)
(-0.00614133 -0.00311383 0)
(-0.00589792 -0.00335295 0)
(-0.00563384 -0.00358433 0)
(-0.00535237 -0.00380664 0)
(-0.00505068 -0.00401935 0)
(-0.00473364 -0.00422089 0)
(-0.00439699 -0.00441099 0)
(-0.00404777 -0.00458779 0)
(-0.00367956 -0.00475141 0)
(-0.0033025 -0.00489962 0)
(-0.00290698 -0.00503317 0)
(-0.00250738 -0.00514923 0)
(-0.00208949 -0.00524925 0)
(-0.00167372 -0.00532752 0)
(-0.00123982 -0.00537281 0)
(-0.000819839 -0.00530168 0)
(-0.000399765 -0.00477854 0)
(-7.72544e-05 -0.00273772 0)
(-6.86773e-05 0.00268774 0)
(-0.000363883 0.00475529 0)
(-0.000752797 0.00529233 0)
(-0.00114179 0.00537321 0)
(-0.00154583 0.00534115 0)
(-0.00193398 0.00527932 0)
(-0.00232677 0.00519917 0)
(-0.00270437 0.00510553 0)
(-0.00308132 0.00499697 0)
(-0.00344355 0.00487559 0)
(-0.00380096 0.0047404 0)
(-0.00414356 0.00459303 0)
(-0.00447799 0.004433 0)
(-0.00479716 0.00426159 0)
(-0.00510547 0.00407868 0)
(-0.00539791 0.00388535 0)
(-0.00567731 0.00368169 0)
(-0.00594013 0.00346862 0)
(-0.00618815 0.00324639 0)
(-0.00641889 0.0030158 0)
(-0.00663341 0.00277721 0)
(-0.00682996 0.0025313 0)
(-0.00700913 0.00227851 0)
(-0.0071697 0.00201947 0)
(-0.00731195 0.00175463 0)