/*--------------------------------*- C++ -*----------------------------------*\
| =========                 |                                                 |
| \\      /  F ield         | OpenFOAM: The Open Source CFD Toolbox           |
|  \\    /   O peration     | Version:  2406                                  |
|   \\  /    A nd           | Website:  www.openfoam.com                      |
|    \\/     M anipulation  |                                                 |
\*---------------------------------------------------------------------------*/
FoamFile
{
    version     2.0;
    format      ascii;
    arch        "LSB;label=32;scalar=64";
    class       volScalarField;
    location    "49.55";
    object      p;
}
// * * * * * * * * * * * * * * * * * * * * * * * * * * * * * * * * * * * * * //

dimensions      [0 2 -2 0 0 0 0];

internalField   nonuniform List<scalar> 
3600
(
0.0415031
0.0415362
0.041522
0.0415028
0.0414281
0.041348
0.0412345
0.0411242
0.040993
0.0408579
0.0406956
0.0405117
0.0402887
0.0400288
0.0397209
0.0393664
0.0389599
0.0385048
0.038004
0.0374696
0.0369199
0.0363847
0.0359016
0.0355145
0.0352678
0.0352018
0.0353485
0.0357267
0.0363405
0.0371751
0.038195
0.0393412
0.0405323
0.0416671
0.0426314
0.0433106
0.0436032
0.0434404
0.0427968
0.0417056
0.0402492
0.0385571
0.0367714
0.035037
0.0334614
0.0321249
0.0310524
0.030251
0.0296825
0.0293179
0.0290947
0.0289862
0.0289347
0.0289372
0.0289465
0.0289843
0.0290071
0.029054
0.0290767
0.0291139
0.041472
0.0415061
0.0414842
0.0414651
0.0413941
0.0413241
0.0412225
0.0411255
0.041007
0.0408848
0.0407366
0.0405693
0.0403667
0.0401315
0.0398528
0.0395307
0.0391576
0.0387348
0.0382635
0.0377548
0.037224
0.036694
0.0361954
0.0357672
0.0354545
0.0353025
0.0353502
0.0356241
0.0361345
0.0368712
0.0378024
0.0388716
0.0399989
0.0410841
0.0420132
0.042671
0.0429542
0.0427922
0.0421578
0.0410838
0.0396542
0.0380017
0.0362722
0.0346134
0.0331318
0.0319025
0.0309399
0.0302392
0.0297508
0.0294399
0.0292438
0.0291413
0.029081
0.0290674
0.0290566
0.0290752
0.0290774
0.0291083
0.0291139
0.0291514
0.0414782
0.0415227
0.041498
0.0414765
0.0413997
0.0413274
0.041227
0.0411355
0.041026
0.0409142
0.0407771
0.0406203
0.0404277
0.0402003
0.0399259
0.039601
0.0392154
0.0387657
0.0382472
0.0376639
0.0370296
0.036374
0.0357404
0.0351804
0.0347483
0.034494
0.0344588
0.0346695
0.0351366
0.0358494
0.0367755
0.0378579
0.0390167
0.0401505
0.0411439
0.0418781
0.0422444
0.0421637
0.0416003
0.040578
0.0391761
0.0375277
0.0357858
0.0341096
0.0326188
0.0313994
0.030471
0.0298281
0.0294141
0.0291844
0.029065
0.0290272
0.0290149
0.0290342
0.0290424
0.0290725
0.0290776
0.029113
0.0291166
0.0291686
0.0414881
0.0415369
0.041505
0.041477
0.0413945
0.0413232
0.0412312
0.0411538
0.0410631
0.0409708
0.0408536
0.0407137
0.0405342
0.040311
0.0400266
0.0396687
0.0392183
0.0386633
0.0379998
0.0372405
0.036413
0.0355581
0.034727
0.0339756
0.0333617
0.0329369
0.0327443
0.0328116
0.0331513
0.0337546
0.0345936
0.0356162
0.0367492
0.0378976
0.0389514
0.0397931
0.0403108
0.0404161
0.0400584
0.0392438
0.0380346
0.0365518
0.0349437
0.0333729
0.0319673
0.0308231
0.0299682
0.0294022
0.0290691
0.028922
0.0288815
0.0289138
0.0289571
0.0290169
0.0290493
0.0290929
0.0291002
0.0291368
0.0291345
0.0291954
0.041544
0.0415922
0.0415501
0.0415082
0.0414141
0.0413359
0.0412462
0.0411755
0.041096
0.0410121
0.0408992
0.0407511
0.0405456
0.040266
0.0398844
0.0393757
0.0387193
0.0379091
0.0369567
0.0358899
0.0347539
0.0336033
0.0325009
0.0315078
0.0306831
0.0300753
0.0297243
0.0296544
0.0298772
0.0303854
0.0311552
0.0321417
0.0332815
0.0344902
0.0356678
0.036703
0.0374836
0.0379112
0.0379156
0.037475
0.0366208
0.0354462
0.0340824
0.032687
0.031396
0.0303203
0.0295058
0.0289677
0.0286625
0.0285514
0.0285575
0.0286445
0.0287446
0.0288571
0.0289331
0.0290101
0.0290393
0.029091
0.0290945
0.0291628
0.0416277
0.0416668
0.0416113
0.0415509
0.0414472
0.041364
0.0412805
0.0412167
0.0411459
0.0410605
0.0409324
0.0407397
0.0404495
0.0400262
0.0394349
0.0386486
0.0376605
0.0364809
0.0351446
0.0336983
0.0322031
0.0307207
0.0293173
0.0280513
0.0269794
0.0261452
0.0255857
0.0253221
0.0253659
0.0257118
0.0263427
0.0272232
0.0283042
0.0295181
0.0307832
0.032004
0.0330783
0.0339063
0.0344029
0.0345159
0.0342351
0.0336079
0.0327257
0.0317207
0.030722
0.0298486
0.0291639
0.0287027
0.02844
0.0283521
0.0283746
0.0284791
0.0286014
0.0287388
0.0288401
0.0289382
0.0289835
0.0290439
0.0290515
0.0291179
0.0417657
0.0417866
0.0417149
0.0416292
0.0415133
0.0414172
0.0413308
0.0412561
0.0411687
0.0410414
0.0408389
0.0405151
0.0400246
0.0393177
0.0383668
0.0371578
0.0357112
0.0340618
0.0322692
0.0303958
0.0285149
0.0266928
0.024997
0.0234818
0.0221972
0.0211778
0.0204525
0.0200349
0.0199325
0.0201388
0.0206404
0.0214099
0.0224121
0.0235973
0.0249065
0.0262672
0.0275987
0.0288141
0.0298279
0.0305681
0.0309857
0.0310727
0.0308611
0.0304311
0.0298818
0.0293262
0.0288435
0.0284943
0.0282824
0.0282079
0.0282264
0.0283222
0.0284413
0.0285826
0.028696
0.0288081
0.0288692
0.0289385
0.028954
0.0290145
0.0419595
0.0419526
0.0418656
0.0417519
0.0416266
0.0415137
0.0414165
0.0413101
0.0411714
0.0409444
0.0405836
0.040016
0.0391942
0.0380693
0.0366389
0.0349147
0.0329506
0.0308046
0.0285586
0.026285
0.0240638
0.0219578
0.020029
0.0183201
0.0168709
0.0157041
0.0148395
0.0142827
0.0140372
0.0140942
0.0144435
0.0150636
0.0159311
0.0170124
0.0182703
0.019658
0.0211232
0.0226048
0.0240367
0.0253504
0.0264799
0.0273746
0.0280041
0.0283746
0.0285193
0.0285082
0.0284099
0.0283011
0.0282184
0.0281961
0.0282213
0.0282996
0.0283948
0.0285134
0.0286132
0.0287164
0.0287772
0.0288426
0.0288601
0.0289087
0.0422177
0.0421725
0.0420713
0.0419237
0.0417848
0.0416383
0.0415044
0.0413209
0.0410647
0.040643
0.0400033
0.0390536
0.0377635
0.0361017
0.0341062
0.0318193
0.0293293
0.0267141
0.0240716
0.0214764
0.0190076
0.0167167
0.0146549
0.0128492
0.0113269
0.0100966
0.00916906
0.00854081
0.00821102
0.00816791
0.00840195
0.00889488
0.00963036
0.0105853
0.0117382
0.0130624
0.0145313
0.0161127
0.0177708
0.0194618
0.0211334
0.0227261
0.0241744
0.0254205
0.0264166
0.0271507
0.0276351
0.0279263
0.0280807
0.0281714
0.0282318
0.028301
0.0283697
0.0284558
0.0285298
0.0286117
0.0286625
0.0287177
0.028734
0.0287705
0.0425488
0.0424572
0.0423473
0.0421628
0.0420059
0.0418053
0.0416
0.0412794
0.0408206
0.0400919
0.0390473
0.0375928
0.0357363
0.0334781
0.0309028
0.0280818
0.025133
0.0221432
0.0192162
0.0164165
0.0138125
0.0114371
0.00932668
0.00749125
0.00594665
0.00469052
0.00372736
0.00304822
0.00265049
0.00252096
0.00265164
0.00302633
0.00363339
0.00445571
0.00548091
0.0066941
0.00808517
0.009643
0.0113582
0.0132171
0.0151981
0.0172654
0.0193608
0.0214052
0.0232965
0.0249346
0.0262342
0.0271691
0.0277623
0.0281013
0.028271
0.0283641
0.0284161
0.0284664
0.0285042
0.0285512
0.0285785
0.0286131
0.0286213
0.0286454
0.0429304
0.0427855
0.0426697
0.0424386
0.0422469
0.0419548
0.0416214
0.0410796
0.0403114
0.0391543
0.037589
0.0355391
0.033067
0.03021
0.0270989
0.0238261
0.0205276
0.0172861
0.0141983
0.011309
0.00866984
0.00629333
0.00420168
0.00239064
0.000868086
-0.000376247
-0.00134101
-0.00203855
-0.00247166
-0.00265418
-0.00259248
-0.00230156
-0.00179011
-0.00107243
-0.000156439
0.000948127
0.00223876
0.00371468
0.00538176
0.00724738
0.00931845
0.011593
0.0140486
0.0166311
0.0192408
0.021737
0.0239495
0.0257329
0.027003
0.0277915
0.0282009
0.0283837
0.0284474
0.0284718
0.0284746
0.0284837
0.0284822
0.0284929
0.0284898
0.0285047
0.0433594
0.0431588
0.0430408
0.0427529
0.042504
0.0420745
0.0415445
0.0406884
0.0395044
0.037816
0.035653
0.0329724
0.029899
0.026504
0.0229555
0.0193521
0.0158329
0.0124612
0.00931749
0.00642066
0.00380554
0.00146557
-0.000586719
-0.00236572
-0.00386685
-0.00510453
-0.00607719
-0.00679821
-0.0072686
-0.00750164
-0.00750127
-0.00728103
-0.00684702
-0.00621167
-0.00538048
-0.00436128
-0.00315421
-0.0017573
-0.000160008
0.00165318
0.0037038
0.00601357
0.0085955
0.0114395
0.0144909
0.0176337
0.0206795
0.0233961
0.0255624
0.0270641
0.0279331
0.0283375
0.0284713
0.0284912
0.0284647
0.0284348
0.0284008
0.0283842
0.0283666
0.0283745
0.0437693
0.0435113
0.0433875
0.0430231
0.0426801
0.0420539
0.0412474
0.039983
0.0382917
0.0360033
0.0332148
0.0299237
0.0263153
0.0224841
0.0186206
0.0148126
0.011188
0.00778176
0.0046542
0.00179932
-0.00076103
-0.00304754
-0.00505226
-0.00679563
-0.00827305
-0.00950097
-0.0104761
-0.0112123
-0.0117082
-0.0119766
-0.0120193
-0.0118485
-0.0114683
-0.01089
-0.0101174
-0.00915785
-0.0080113
-0.00667623
-0.00514287
-0.00339555
-0.0014099
0.000844848
0.00340168
0.00628564
0.00949524
0.0129757
0.0165901
0.0201047
0.0232163
0.0256418
0.0272374
0.0280804
0.0284
0.028461
0.028422
0.028359
0.0282947
0.0282525
0.0282201
0.0282236
0.0441338
0.0438211
0.0436848
0.0432225
0.0427441
0.0418606
0.0407015
0.0389517
0.0366941
0.0337836
0.0303936
0.0265609
0.0225208
0.0183746
0.0143181
0.0104129
0.00676738
0.0033843
0.000306355
-0.00249318
-0.00499968
-0.00724309
-0.00921568
-0.0109409
-0.0124119
-0.0136458
-0.0146366
-0.0153976
-0.0159254
-0.0162316
-0.0163158
-0.016189
-0.015853
-0.0153178
-0.0145861
-0.0136644
-0.0125533
-0.0112527
-0.00975579
-0.00805066
-0.00611711
-0.003926
-0.00144033
0.00138102
0.00457222
0.00813736
0.0120195
0.0160554
0.0199612
0.0233589
0.0259079
0.0274675
0.0281824
0.0283747
0.0283544
0.028268
0.0281764
0.0281096
0.0280628
0.0280618
0.0443452
0.0439789
0.043815
0.043227
0.0425661
0.0413674
0.0397928
0.03751
0.0346688
0.0311622
0.0272389
0.022966
0.018613
0.0142704
0.0101243
0.00620155
0.00258871
-0.000740893
-0.00375666
-0.00650017
-0.00895865
-0.0111673
-0.0131158
-0.0148292
-0.0162974
-0.0175378
-0.018542
-0.0193234
-0.0198762
-0.0202119
-0.020328
-0.0202347
-0.019932
-0.0194287
-0.0187264
-0.0178307
-0.0167424
-0.0154621
-0.0139862
-0.0123065
-0.0104092
-0.0082714
-0.00586147
-0.00313724
-5.05245e-05
0.00343905
0.00734291
0.011591
0.0159943
0.0201968
0.0237525
0.0262673
0.0276568
0.02816
0.0282179
0.0281289
0.0280159
0.0279257
0.0278656
0.0278585
0.044367
0.0439511
0.0437428
0.0430051
0.0421207
0.0405638
0.0385358
0.035708
0.0323069
0.0282689
0.0239086
0.0193098
0.0147578
0.0103176
0.00615621
0.0022632
-0.00129356
-0.00456455
-0.00752505
-0.0102262
-0.0126532
-0.014844
-0.0167842
-0.0184997
-0.0199767
-0.0212334
-0.0222585
-0.0230655
-0.0236469
-0.0240136
-0.0241615
-0.0240997
-0.0238271
-0.0233509
-0.0226717
-0.0217942
-0.0207191
-0.0194471
-0.017977
-0.0163032
-0.0144182
-0.0123059
-0.00994441
-0.00729923
-0.00432441
-0.000967042
0.00282454
0.00705614
0.011653
0.0163649
0.0207724
0.0243309
0.0266523
0.0277442
0.0280029
0.0279469
0.0278234
0.0277067
0.0276333
0.0276155
0.0440815
0.0436178
0.0433453
0.042436
0.0412959
0.0393577
0.0368682
0.033521
0.0296203
0.0251434
0.0204563
0.015644
0.0109918
0.00652979
0.0024028
-0.00143382
-0.00492524
-0.00813919
-0.0110515
-0.0137191
-0.0161225
-0.0183012
-0.0202364
-0.0219547
-0.0234394
-0.024709
-0.0257505
-0.0265777
-0.0271815
-0.0275727
-0.027746
-0.0277099
-0.0274622
-0.0270089
-0.02635
-0.0254888
-0.0244263
-0.0231622
-0.0216969
-0.020026
-0.0181465
-0.0160471
-0.0137155
-0.0111266
-0.00824511
-0.00502202
-0.00139222
0.00269354
0.00725364
0.0121639
0.0171321
0.0216055
0.0249979
0.0269466
0.0276581
0.0276857
0.0275805
0.0274315
0.0273428
0.0273085
0.0434785
0.0429721
0.0426192
0.0415276
0.040116
0.0377981
0.0348687
0.0310577
0.0267408
0.0219294
0.0170232
0.0120949
0.00741782
0.00298356
-0.00108355
-0.00485636
-0.00828702
-0.0114546
-0.0143319
-0.0169786
-0.01937
-0.0215464
-0.0234848
-0.0252124
-0.02671
-0.0279967
-0.0290577
-0.0299071
-0.0305347
-0.0309508
-0.0311494
-0.0311379
-0.0309136
-0.0304812
-0.0298407
-0.0289937
-0.0279418
-0.0266832
-0.0252203
-0.023548
-0.0216671
-0.0195689
-0.0172487
-0.0146896
-0.0118692
-0.00874976
-0.00527128
-0.00137058
0.00302666
0.00790097
0.0131171
0.0182326
0.0226332
0.0256194
0.027081
0.0273438
0.0272758
0.0271077
0.0269931
0.0269371
0.042474
0.0419288
0.0414827
0.0402069
0.0385243
0.0358511
0.0325288
0.0283313
0.0236942
0.0186529
0.0136245
0.0086594
0.00401205
-0.000362159
-0.00435561
-0.00806213
-0.0114359
-0.0145627
-0.0174102
-0.0200393
-0.0224202
-0.0245936
-0.0265331
-0.0282666
-0.0297729
-0.0310718
-0.0321473
-0.0330135
-0.0336597
-0.0340955
-0.0343148
-0.0343237
-0.0341198
-0.0337059
-0.033083
-0.0322505
-0.0312113
-0.0299618
-0.028506
-0.0268371
-0.0249594
-0.022864
-0.0205519
-0.0180113
-0.015231
-0.0121856
-0.00882874
-0.0051029
-0.000912312
0.00378845
0.00899998
0.0144462
0.0196116
0.0236726
0.0260798
0.0268911
0.0268649
0.0267191
0.0265631
0.0264809
0.0411153
0.0405397
0.039995
0.038546
0.0366099
0.0336253
0.0299744
0.0254787
0.0206179
0.0154424
0.010371
0.00542735
0.000843944
-0.00345477
-0.00737302
-0.0110188
-0.0143448
-0.0174398
-0.0202659
-0.0228842
-0.0252601
-0.0274348
-0.0293791
-0.0311216
-0.0326393
-0.0339525
-0.0350443
-0.0359287
-0.0365944
-0.0370502
-0.03729
-0.0373185
-0.037134
-0.0367373
-0.0361306
-0.0353111
-0.0342838
-0.0330426
-0.0315942
-0.0299294
-0.0280559
-0.0259629
-0.0236567
-0.0211265
-0.0183704
-0.0153728
-0.0121025
-0.00851742
-0.00452304
-4.89854e-05
0.00500177
0.0105041
0.0161341
0.0211018
0.0245657
0.0261898
0.0263676
0.0262265
0.0260611
0.0259281
0.0393742
0.0387762
0.0381325
0.0365295
0.0343695
0.031129
0.027222
0.0225164
0.0175201
0.0122903
0.0072366
0.00235512
-0.00214315
-0.00635764
-0.0102004
-0.0137876
-0.0170689
-0.0201335
-0.0229382
-0.0255438
-0.027912
-0.0300843
-0.0320294
-0.0337762
-0.035301
-0.0366239
-0.0377277
-0.0386258
-0.0393069
-0.0397787
-0.0400357
-0.0400806
-0.039913
-0.0395315
-0.0389402
-0.0381335
-0.0371195
-0.0358886
-0.0344513
-0.0327952
-0.0309316
-0.0288469
-0.0265517
-0.024034
-0.0212989
-0.0183359
-0.015128
-0.0116494
-0.00781974
-0.00357126
0.00124597
0.00661241
0.0124241
0.0180026
0.0225166
0.0250479
0.0257896
0.0255765
0.025476
0.0252512
0.0373572
0.0367489
0.0360124
0.0342832
0.0319382
0.0285045
0.0244154
0.0195833
0.0145279
0.00930794
0.00431535
-0.000478451
-0.00488229
-0.00901221
-0.0127849
-0.01632
-0.019563
-0.0226024
-0.0253903
-0.0279865
-0.0303501
-0.0325224
-0.0344708
-0.0362242
-0.0377584
-0.0390929
-0.0402107
-0.0411237
-0.0418215
-0.0423097
-0.042584
-0.0426448
-0.0424937
-0.042126
-0.041549
-0.0407536
-0.0397516
-0.0385298
-0.0371033
-0.0354555
-0.0336031
-0.031528
-0.0292462
-0.0267421
-0.024027
-0.0210914
-0.0179297
-0.0145291
-0.0108284
-0.0067762
-0.00220779
0.00292105
0.00868336
0.0145793
0.0199474
0.0234291
0.0250055
0.0247986
0.024759
0.0244485
0.0350802
0.0344724
0.0336523
0.0318264
0.029337
0.0257704
0.0215658
0.0166767
0.0116207
0.00645606
0.0015518
-0.00313987
-0.00744564
-0.0114911
-0.0151962
-0.01868
-0.0218851
-0.0248973
-0.0276656
-0.0302485
-0.0326036
-0.0347713
-0.036719
-0.0384747
-0.0400144
-0.0413564
-0.0424845
-0.0434087
-0.0441198
-0.044621
-0.04491
-0.0449839
-0.0448472
-0.0444914
-0.0439278
-0.0431427
-0.042153
-0.0409406
-0.0395267
-0.0378891
-0.0360513
-0.0339896
-0.0317263
-0.0292405
-0.0265497
-0.023642
-0.020521
-0.0171817
-0.0135817
-0.00969035
-0.00535354
-0.000497581
0.00505835
0.0110308
0.0169364
0.0213697
0.0238114
0.0239381
0.0238324
0.0235148
0.0326839
0.0320904
0.0311994
0.0293091
0.026717
0.0230751
0.0188145
0.0139272
0.00891644
0.00383974
-0.000959844
-0.00554331
-0.00975326
-0.013719
-0.0173626
-0.0208004
-0.0239722
-0.0269606
-0.0297126
-0.0322848
-0.0346342
-0.0367999
-0.0387497
-0.0405099
-0.0420578
-0.0434093
-0.0445497
-0.0454864
-0.0462123
-0.0467271
-0.0470313
-0.047118
-0.0469955
-0.0466507
-0.0460996
-0.0453232
-0.0443449
-0.0431401
-0.0417377
-0.0401091
-0.0382858
-0.0362372
-0.0339939
-0.031528
-0.0288645
-0.0259859
-0.0229041
-0.0196171
-0.016098
-0.0123368
-0.00819972
-0.0036146
0.00165618
0.00751574
0.0136562
0.0189094
0.0221544
0.0229653
0.0226884
0.022437
0.0301984
0.0296302
0.0286806
0.0267535
0.0240937
0.0204224
0.0161499
0.0113048
0.00636665
0.00139488
-0.00329503
-0.00777037
-0.0118886
-0.0157776
-0.0193623
-0.0227537
-0.0258911
-0.0288525
-0.0315851
-0.0341423
-0.0364821
-0.0386415
-0.0405895
-0.0423503
-0.0439027
-0.0452598
-0.0464094
-0.047355
-0.0480927
-0.0486176
-0.0489347
-0.0490313
-0.0489212
-0.048585
-0.0480454
-0.0472763
-0.0463089
-0.045111
-0.0437207
-0.0421008
-0.0402934
-0.0382588
-0.0360383
-0.0335946
-0.0309626
-0.0281166
-0.0250769
-0.0218402
-0.0183917
-0.0147392
-0.010769
-0.00643569
-0.00146919
0.00413818
0.01029
0.0160917
0.0200996
0.0217244
0.0213667
0.0211634
0.0277685
0.0272388
0.0262444
0.0243076
0.0216124
0.017952
0.0137043
0.0089332
0.00408711
-0.000769452
-0.00534938
-0.00972035
-0.0137539
-0.0175724
-0.0211046
-0.0244543
-0.0275619
-0.0304999
-0.0332167
-0.0357621
-0.0380959
-0.040252
-0.0422016
-0.0439655
-0.0455253
-0.0468902
-0.048051
-0.0490069
-0.0497579
-0.0502937
-0.0506243
-0.0507307
-0.0506333
-0.0503048
-0.0497763
-0.0490129
-0.0480557
-0.0468628
-0.0454836
-0.0438705
-0.0420783
-0.0400559
-0.0378583
-0.0354364
-0.0328378
-0.0300258
-0.0270314
-0.0238452
-0.0204631
-0.0169058
-0.0130759
-0.00896896
-0.00429398
0.000975911
0.00698749
0.0130191
0.0177393
0.0200977
0.0199332
0.0196657
0.0254111
0.0249293
0.023901
0.0219734
0.0192645
0.0156405
0.0114374
0.00675493
0.00200488
-0.00273817
-0.00721574
-0.0114898
-0.0154461
-0.0191984
-0.0226808
-0.0259886
-0.0290652
-0.0319768
-0.0346748
-0.0372045
-0.0395289
-0.0416775
-0.0436251
-0.0453882
-0.0469519
-0.0483205
-0.0494895
-0.0504518
-0.0512132
-0.0517563
-0.052098
-0.0522111
-0.0521242
-0.0518009
-0.0512822
-0.0505224
-0.0495745
-0.0483848
-0.0470164
-0.0454086
-0.0436316
-0.0416203
-0.0394462
-0.0370457
-0.0344825
-0.0317057
-0.0287603
-0.0256261
-0.0223112
-0.0188416
-0.0151347
-0.0112278
-0.00682081
-0.0019224
0.00384363
0.00983374
0.015143
0.018086
0.0183992
0.0179428
0.0232558
0.022833
0.0217836
0.0198838
0.0171811
0.0136159
0.00947425
0.00489183
0.000240219
-0.00439205
-0.00877504
-0.0129605
-0.0168487
-0.0205421
-0.0239816
-0.0272529
-0.0303038
-0.0331935
-0.0358777
-0.0383958
-0.040715
-0.0428599
-0.0448094
-0.0465745
-0.0481453
-0.04952
-0.0506994
-0.0516696
-0.0524431
-0.0529941
-0.053348
-0.0534675
-0.0533918
-0.0530728
-0.0525637
-0.0518061
-0.0508672
-0.0496786
-0.0483202
-0.0467152
-0.0449525
-0.0429497
-0.0407983
-0.0384167
-0.0358892
-0.0331463
-0.0302523
-0.0271704
-0.0239256
-0.0205388
-0.0169461
-0.0132152
-0.00905374
-0.00452343
0.000921073
0.00667937
0.0123683
0.0157549
0.0166876
0.0159944
0.0212902
0.0209331
0.0198716
0.0180094
0.0153219
0.0118238
0.00774554
0.00326026
-0.00130301
-0.00583663
-0.010139
-0.014247
-0.0180764
-0.0217161
-0.025116
-0.0283509
-0.0313756
-0.034241
-0.0369088
-0.0394116
-0.0417226
-0.0438596
-0.0458077
-0.0475707
-0.0491453
-0.0505217
-0.0517085
-0.0526824
-0.0534651
-0.0540201
-0.0543835
-0.0545059
-0.0544392
-0.0541211
-0.0536201
-0.0528615
-0.0519303
-0.05074
-0.0493907
-0.0477857
-0.0460364
-0.0440391
-0.0419098
-0.0395441
-0.0370523
-0.0343409
-0.0315001
-0.0284694
-0.0252979
-0.0219906
-0.018509
-0.0149334
-0.010999
-0.0068117
-0.00173858
0.00367183
0.00948816
0.0131878
0.0147075
0.0138298
0.0196224
0.0193403
0.018279
0.0164666
0.0138053
0.0103841
0.00637378
0.00198567
-0.00249525
-0.00693894
-0.0111716
-0.0152124
-0.0189928
-0.022587
-0.0259549
-0.0291601
-0.032165
-0.0350118
-0.0376691
-0.0401619
-0.0424699
-0.0446035
-0.0465546
-0.0483189
-0.0499009
-0.0512815
-0.0524785
-0.0534576
-0.0542516
-0.0548112
-0.0551857
-0.0553108
-0.0552539
-0.0549359
-0.0544432
-0.0536821
-0.0527583
-0.0515641
-0.0502232
-0.0486152
-0.0468782
-0.0448828
-0.0427742
-0.0404203
-0.0379628
-0.035279
-0.0324913
-0.0295089
-0.026413
-0.0231814
-0.0198107
-0.0163736
-0.012652
-0.00877433
-0.00409748
0.000901895
0.00660934
0.0104884
0.012461
0.0115072
0.0182052
0.018002
0.0169494
0.015191
0.0125571
0.00921082
0.00526091
0.000958197
-0.00345679
-0.0078272
-0.0120068
-0.0159931
-0.0197347
-0.0232893
-0.026629
-0.029805
-0.0327901
-0.0356161
-0.0382608
-0.04074
-0.0430422
-0.0451682
-0.0471191
-0.0488804
-0.0504667
-0.0518471
-0.0530512
-0.0540312
-0.0548336
-0.0553936
-0.0557765
-0.0559001
-0.0558508
-0.0555287
-0.0550424
-0.0542747
-0.0533567
-0.0521545
-0.0508202
-0.0492051
-0.0474786
-0.0454803
-0.0433903
-0.041043
-0.0386177
-0.035956
-0.0332199
-0.0302809
-0.027261
-0.0241001
-0.02084
-0.0175272
-0.0140056
-0.0104028
-0.00612366
-0.00156094
0.00385845
0.00778187
0.0100567
0.00913187
0.0171294
0.017012
0.0159816
0.0142874
0.0116884
0.0084216
0.0045326
0.00031167
-0.00404497
-0.0083519
-0.0124891
-0.0164315
-0.0201442
-0.0236679
-0.0269877
-0.0301422
-0.0331149
-0.0359269
-0.0385661
-0.0410379
-0.0433405
-0.0454641
-0.0474204
-0.0491826
-0.0507777
-0.0521607
-0.0533754
-0.054358
-0.0551716
-0.0557327
-0.0561261
-0.0562481
-0.0562077
-0.0558806
-0.0554013
-0.0546253
-0.0537131
-0.0525002
-0.051172
-0.049546
-0.0478287
-0.0458228
-0.0437494
-0.0414028
-0.0390071
-0.0363607
-0.0336736
-0.030771
-0.0278256
-0.0247288
-0.021578
-0.0183767
-0.0150432
-0.0116822
-0.00778524
-0.00365825
0.00136024
0.00520449
0.00765564
0.00682911
0.016312
0.0162805
0.015282
0.013655
0.0110907
0.00789813
0.0040607
-9.17839e-05
-0.00440677
-0.00866707
-0.0127784
-0.0166895
-0.0203835
-0.0238823
-0.0271864
-0.0303199
-0.0332803
-0.0360762
-0.038708
-0.0411687
-0.0434692
-0.0455862
-0.047545
-0.0493038
-0.0509048
-0.052286
-0.0535088
-0.0544895
-0.0553118
-0.0558694
-0.0562709
-0.0563866
-0.0563529
-0.0560159
-0.0555416
-0.0547522
-0.0538435
-0.0526145
-0.05129
-0.0496471
-0.0479363
-0.0459161
-0.0438558
-0.0415023
-0.039132
-0.0364921
-0.0338495
-0.0309738
-0.0280989
-0.0250566
-0.0220112
-0.018908
-0.01575
-0.0125992
-0.00905733
-0.00534515
-0.000783875
0.00288118
0.0054087
0.00471204
0.0158362
0.0158929
0.0149422
0.0133942
0.010875
0.00776203
0.00397964
-0.0001055
-0.00438267
-0.0086034
-0.0126969
-0.016586
-0.0202703
-0.0237532
-0.0270502
-0.0301713
-0.0331278
-0.0359155
-0.0385481
-0.0410049
-0.0433109
-0.0454273
-0.0473952
-0.0491554
-0.050768
-0.0521507
-0.0533862
-0.0543672
-0.0552019
-0.055757
-0.0561696
-0.056279
-0.0562541
-0.0559062
-0.0554382
-0.0546332
-0.0537288
-0.0524803
-0.0511592
-0.0494948
-0.047789
-0.0457484
-0.0436986
-0.0413302
-0.0389814
-0.0363383
-0.033735
-0.0308753
-0.0280652
-0.0250657
-0.0221198
-0.0191001
-0.0161046
-0.013134
-0.0099153
-0.00658403
-0.00249707
0.000916615
0.00343647
0.00287374
0.015581
0.0157199
0.0148287
0.0133649
0.0108953
0.00785943
0.0041277
0.000100949
-0.0041502
-0.0083446
-0.012434
-0.016312
-0.0199961
-0.0234683
-0.026762
-0.0298708
-0.0328236
-0.0356002
-0.0382321
-0.0406811
-0.0429904
-0.045102
-0.0470771
-0.0488343
-0.0504567
-0.0518366
-0.0530831
-0.0540598
-0.0549055
-0.0554533
-0.0558754
-0.0559732
-0.0559554
-0.0555909
-0.0551273
-0.0543005
-0.0533979
-0.0521231
-0.0508025
-0.0491087
-0.0474043
-0.0453341
-0.0432902
-0.0408962
-0.038563
-0.0359044
-0.033333
-0.030475
-0.0277213
-0.0247494
-0.0218939
-0.0189402
-0.0160926
-0.0132719
-0.0103424
-0.00734931
-0.00372824
-0.000610393
0.00182728
0.00138628
0.0156348
0.0158501
0.0150367
0.0136723
0.0112711
0.00832338
0.00465424
0.000692049
-0.00352862
-0.00769758
-0.0117857
-0.015659
-0.0193499
-0.02282
-0.0261193
-0.0292249
-0.0321834
-0.0349582
-0.0375987
-0.0400483
-0.04237
-0.0444841
-0.0464746
-0.0482345
-0.0498739
-0.0512553
-0.052519
-0.0534942
-0.0543559
-0.0548979
-0.0553337
-0.0554202
-0.0554128
-0.0550307
-0.0545738
-0.0537229
-0.0528235
-0.0515183
-0.0501984
-0.0484695
-0.0467652
-0.0446577
-0.0426167
-0.0401871
-0.0378643
-0.0351774
-0.0326307
-0.0297593
-0.0270529
-0.0240911
-0.0213157
-0.0184083
-0.0156935
-0.0129926
-0.0103195
-0.0076181
-0.00443997
-0.00163851
0.000651133
0.000311907
0.0158327
0.0161091
0.0153871
0.0141306
0.011813
0.00895838
0.00535795
0.00146075
-0.00273145
-0.00688045
-0.0109751
-0.0148506
-0.0185555
-0.0220268
-0.0253349
-0.0284366
-0.0314009
-0.0341703
-0.0368184
-0.0392643
-0.0415974
-0.0437097
-0.0457149
-0.0474736
-0.0491297
-0.0505086
-0.0517894
-0.0527589
-0.0536365
-0.0541679
-0.0546169
-0.0546866
-0.0546889
-0.0542828
-0.0538313
-0.0529487
-0.0520505
-0.0507065
-0.0493842
-0.0476103
-0.0459019
-0.0437453
-0.0417015
-0.0392224
-0.0369026
-0.034171
-0.0316395
-0.0287354
-0.0260647
-0.0230916
-0.0203828
-0.0174982
-0.0148993
-0.0122865
-0.00983751
-0.00737833
-0.00461049
-0.00212464
-3.73384e-05
-0.000296905
0.0162857
0.0166078
0.0159952
0.0148642
0.0126608
0.00991911
0.00641136
0.00259601
-0.0015512
-0.00567149
-0.00976726
-0.013646
-0.0173687
-0.0208487
-0.0241744
-0.0272819
-0.0302628
-0.0330373
-0.0357043
-0.0381564
-0.0405118
-0.0426311
-0.0446612
-0.0464258
-0.048108
-0.0494897
-0.0507958
-0.0517633
-0.0526639
-0.0531868
-0.0536552
-0.0537086
-0.0537255
-0.0532945
-0.0528521
-0.0519355
-0.0510409
-0.0496535
-0.0483299
-0.0465042
-0.044791
-0.0425759
-0.0405264
-0.0379852
-0.0356629
-0.0328704
-0.0303457
-0.027389
-0.0247427
-0.0217352
-0.0190795
-0.0161918
-0.0136921
-0.0111353
-0.00888108
-0.00661474
-0.00422006
-0.0020323
-0.000187174
-0.000387192
0.0167752
0.0171206
0.0166288
0.015634
0.0135719
0.0109597
0.00756443
0.00384501
-0.000245152
-0.00432948
-0.0084242
-0.0123054
-0.0160486
-0.0195373
-0.0228825
-0.0259936
-0.0289915
-0.0317671
-0.0344528
-0.0369068
-0.0392853
-0.0414076
-0.0434645
-0.0452315
-0.046942
-0.048323
-0.0496569
-0.0506185
-0.0515443
-0.0520539
-0.0525432
-0.0525746
-0.0526069
-0.0521439
-0.0517107
-0.0507512
-0.0498592
-0.0484181
-0.0470908
-0.045201
-0.043479
-0.0411906
-0.0391295
-0.0365086
-0.0341755
-0.0313012
-0.0287724
-0.0257387
-0.0231032
-0.0200336
-0.0174153
-0.0144945
-0.0120758
-0.00953975
-0.0074516
-0.00532685
-0.00326362
-0.00134041
0.000240845
8.49167e-05
0.017464
0.0178148
0.0174507
0.0166086
0.0147248
0.0122722
0.00902516
0.00543115
0.00142848
-0.00259799
-0.00667469
-0.010551
-0.014313
-0.0178149
-0.0211882
-0.0243134
-0.027341
-0.0301298
-0.0328484
-0.035316
-0.0377315
-0.0398672
-0.0419639
-0.043742
-0.0454929
-0.0468802
-0.0482526
-0.0492132
-0.0501736
-0.0506732
-0.0511917
-0.0512023
-0.0512571
-0.0507613
-0.050343
-0.0493382
-0.048453
-0.0469533
-0.0456248
-0.0436631
-0.0419328
-0.0395601
-0.0374852
-0.0347694
-0.0324204
-0.0294446
-0.0269029
-0.0237676
-0.0211308
-0.0179701
-0.0153746
-0.0123886
-0.0100344
-0.0074831
-0.00553628
-0.0035032
-0.00173042
-2.75385e-05
0.00128643
0.00116619
0.0180666
0.0184043
0.0181646
0.0174855
0.0158103
0.0135476
0.0104814
0.00704393
0.00315749
-0.000785514
-0.0048272
-0.00868449
-0.01246
-0.0159686
-0.0193699
-0.0225046
-0.0255634
-0.0283609
-0.0311148
-0.0335922
-0.0360485
-0.0381947
-0.0403364
-0.0421232
-0.0439204
-0.0453112
-0.0467283
-0.0476843
-0.048685
-0.0491696
-0.049722
-0.0497054
-0.0497862
-0.0492496
-0.0488485
-0.047788
-0.0469105
-0.0453396
-0.0440092
-0.0419606
-0.0402191
-0.037744
-0.0356503
-0.0328181
-0.0304453
-0.0273422
-0.0247769
-0.0215098
-0.0188583
-0.0155724
-0.0129844
-0.00989652
-0.00759032
-0.0049836
-0.00315477
-0.00115997
0.000365247
0.00190505
0.00296864
0.00288422
0.0188413
0.0191582
0.0190249
0.0185159
0.0170753
0.0150398
0.0121959
0.00895645
0.00522931
0.00140727
-0.00256796
-0.00638604
-0.0101648
-0.013679
-0.0171151
-0.0202701
-0.0233754
-0.0261964
-0.0290036
-0.0315053
-0.0340203
-0.0361899
-0.0383936
-0.0401998
-0.0420589
-0.0434619
-0.0449374
-0.0458954
-0.0469488
-0.0474228
-0.04802
-0.0479784
-0.0480947
-0.0475174
-0.0471415
-0.0460231
-0.0451597
-0.0435128
-0.0421851
-0.0400411
-0.038291
-0.0357009
-0.033588
-0.0306216
-0.0282213
-0.0249673
-0.0223707
-0.0189421
-0.0162647
-0.0128183
-0.0102249
-0.00699621
-0.00472499
-0.00202148
-0.000293863
0.00171432
0.00302756
0.00446602
0.00530984
0.00527085
0.0194074
0.0196972
0.0196484
0.0193119
0.018124
0.0163549
0.0137749
0.0107828
0.00726096
0.00360901
-0.00026273
-0.0040065
-0.00776963
-0.0112709
-0.0147375
-0.017904
-0.0210591
-0.0238993
-0.0267668
-0.0292906
-0.0318737
-0.0340655
-0.0363418
-0.0381665
-0.0400987
-0.0415122
-0.0430573
-0.044014
-0.0451301
-0.0455884
-0.0462392
-0.0461653
-0.0463245
-0.0456965
-0.0453516
-0.0441629
-0.0433179
-0.0415795
-0.0402569
-0.0379991
-0.0362405
-0.0335133
-0.0313787
-0.0282518
-0.0258186
-0.0223824
-0.0197466
-0.01612
-0.0134068
-0.00975928
-0.0071501
-0.00373688
-0.00149151
0.00135592
0.00299489
0.00507541
0.00621062
0.00762317
0.00829324
0.00832037
0.0201728
0.0204381
0.0204405
0.0202598
0.0193212
0.0178455
0.0155664
0.0128693
0.00960413
0.00617463
0.00245333
-0.0011791
-0.00490346
-0.00838096
-0.0118806
-0.0150675
-0.0182904
-0.0211673
-0.0241186
-0.026683
-0.0293578
-0.0315883
-0.0339593
-0.0358161
-0.0378412
-0.0392761
-0.0409085
-0.0418723
-0.0430669
-0.0435153
-0.0442337
-0.0441309
-0.0443454
-0.0436679
-0.0433648
-0.0421043
-0.0412868
-0.0394525
-0.0381422
-0.0357624
-0.0340003
-0.0311228
-0.0289687
-0.0256618
-0.0231942
-0.0195491
-0.0168686
-0.0130093
-0.010252
-0.0063612
-0.00372779
-8.28495e-05
0.00214185
0.00518321
0.00673626
0.00894683
0.00992078
0.0113808
0.0119206
0.0120442
0.0206069
0.0208443
0.0208806
0.0208387
0.0201496
0.0189987
0.0170654
0.0147281
0.0117826
0.00865129
0.00514169
0.00168483
-0.00196166
-0.00537651
-0.00889626
-0.0120867
-0.0153825
-0.0182915
-0.0213408
-0.0239465
-0.026731
-0.0290022
-0.0314869
-0.0333772
-0.0355141
-0.0369698
-0.0387071
-0.0396749
-0.040964
-0.0413964
-0.0421966
-0.0420558
-0.0423379
-0.0415985
-0.041348
-0.04
-0.039219
-0.0372696
-0.0359791
-0.0334541
-0.0316939
-0.0286388
-0.0264683
-0.0229491
-0.0204481
-0.0165562
-0.0138302
-0.0096952
-0.00689268
-0.00271092
-5.497e-05
0.0038733
0.00607058
0.00936343
0.0108229
0.0132361
0.0140602
0.0156643
0.0161239
0.0163897
0.0213344
0.0215482
0.0215936
0.0216459
0.0211647
0.0203279
0.0187553
0.0168182
0.0142435
0.011472
0.00823324
0.00500655
0.00147636
-0.00185008
-0.00538433
-0.00858146
-0.0119689
-0.0149292
-0.0181059
-0.0207762
-0.0237014
-0.0260347
-0.0286616
-0.0306031
-0.0328769
-0.0343675
-0.0362316
-0.0372143
-0.0386171
-0.0390417
-0.0399407
-0.0397674
-0.0401322
-0.039334
-0.0391494
-0.0377142
-0.0369817
-0.0349144
-0.0336537
-0.0309767
-0.0292265
-0.0259813
-0.0237998
-0.020049
-0.0175164
-0.0133497
-0.0105769
-0.00612753
-0.00327676
0.00124539
0.00392528