/*--------------------------------*- C++ -*----------------------------------*\
| =========                 |                                                 |
| \\      /  F ield         | OpenFOAM: The Open Source CFD Toolbox           |
|  \\    /   O peration     | Version:  2406                                  |
|   \\  /    A nd           | Website:  www.openfoam.com                      |
|    \\/     M anipulation  |                                                 |
\*---------------------------------------------------------------------------*/
FoamFile
{
    version     2.0;
    format      ascii;
    arch        "LSB;label=32;scalar=64";
    class       surfaceScalarField;
    location    "8.3";
    object      phi_0;
}
// * * * * * * * * * * * * * * * * * * * * * * * * * * * * * * * * * * * * * //

dimensions      [0 3 -1 0 0 0 0];

oriented        oriented;

internalField   nonuniform List<scalar> 
28560
(
4.46209e-09
-4.45735e-09
3.06425e-09
1.39761e-09
-9.08043e-09
1.21445e-08
-3.21392e-08
2.30589e-08
-6.46539e-08
3.25148e-08
-1.04735e-07
4.00806e-08
-1.50557e-07
4.58223e-08
-2.00554e-07
4.99972e-08
-2.53464e-07
5.29101e-08
-3.08313e-07
5.48487e-08
-3.64375e-07
5.60617e-08
-4.21128e-07
5.67529e-08
-4.78211e-07
5.70832e-08
-5.35386e-07
5.71751e-08
-5.92505e-07
5.71194e-08
-6.49486e-07
5.69811e-08
-7.06291e-07
5.68046e-08
-7.6291e-07
5.66191e-08
-8.19352e-07
5.64421e-08
-8.75635e-07
5.62825e-08
-9.31778e-07
5.61436e-08
-9.87803e-07
5.60244e-08
-1.04372e-06
5.59212e-08
-1.09955e-06
5.58287e-08
-1.15529e-06
5.57405e-08
-1.21094e-06
5.56497e-08
-1.26649e-06
5.55491e-08
-1.32192e-06
5.54314e-08
-1.37721e-06
5.52893e-08
-1.43233e-06
5.51154e-08
-1.48723e-06
5.49023e-08
-1.54187e-06
5.46427e-08
-1.5962e-06
5.43291e-08
-1.65016e-06
5.3954e-08
-1.70367e-06
5.35097e-08
-1.75665e-06
5.29887e-08
-1.80904e-06
5.2383e-08
-1.86072e-06
5.16849e-08
-1.91161e-06
5.08866e-08
-1.96159e-06
4.99803e-08
-2.01055e-06
4.89581e-08
-2.05836e-06
4.78126e-08
-2.1049e-06
4.65365e-08
-2.15002e-06
4.51228e-08
-2.19358e-06
4.35648e-08
-2.23544e-06
4.18567e-08
-2.27543e-06
3.9993e-08
-2.3134e-06
3.7969e-08
-2.34918e-06
3.57811e-08
-2.38261e-06
3.34266e-08
-2.41351e-06
3.09037e-08
-2.44173e-06
2.82121e-08
-2.46708e-06
2.53528e-08
-2.48941e-06
2.23281e-08
-2.50855e-06
1.9142e-08
-2.52435e-06
1.57999e-08
-2.53666e-06
1.23091e-08
-2.54534e-06
8.67842e-09
-2.55025e-06
4.91809e-09
-2.5513e-06
1.0488e-09
-2.54837e-06
-2.93853e-09
-2.54136e-06
-7.00177e-09
-2.53023e-06
-1.11364e-08
-2.5149e-06
-1.53219e-08
-2.49537e-06
-1.95378e-08
-2.4716e-06
-2.37628e-08
-2.44363e-06
-2.79746e-08
-2.41148e-06
-3.215e-08
-2.37521e-06
-3.62655e-08
-2.33492e-06
-4.02973e-08
-2.2907e-06
-4.42213e-08
-2.24268e-06
-4.80142e-08
-2.19103e-06
-5.16529e-08
-2.13591e-06
-5.51155e-08
-2.07753e-06
-5.83809e-08
-2.0161e-06
-6.14297e-08
-1.95186e-06
-6.42443e-08
-1.88505e-06
-6.68087e-08
-1.81594e-06
-6.91092e-08
-1.74481e-06
-7.11345e-08
-1.67193e-06
-7.28757e-08
-1.5976e-06
-7.43262e-08
-1.52212e-06
-7.5482e-08
-1.44578e-06
-7.63418e-08
-1.36887e-06
-7.69065e-08
-1.29169e-06
-7.71795e-08
-1.21453e-06
-7.71661e-08
-1.13765e-06
-7.68737e-08
-1.06134e-06
-7.63111e-08
-9.85854e-07
-7.54887e-08
-9.11437e-07
-7.44175e-08
-8.38327e-07
-7.31095e-08
-7.66751e-07
-7.15764e-08
-6.96921e-07
-6.98302e-08
-6.29039e-07
-6.7882e-08
-5.63297e-07
-6.57419e-08
-4.99878e-07
-6.34187e-08
-4.38958e-07
-6.09197e-08
-3.80708e-07
-5.82501e-08
-3.25295e-07
-5.54132e-08
-2.72885e-07
-5.24101e-08
-2.23645e-07
-4.92397e-08
-1.77746e-07
-4.58993e-08
-1.35362e-07
-4.23844e-08
-9.66718e-08
-3.86898e-08
-6.18615e-08
-3.48103e-08
-3.11195e-08
-3.0742e-08
-4.63538e-09
-2.64841e-08
1.7406e-08
-2.20414e-08
3.48337e-08
-1.74278e-08
4.75055e-08
-1.26718e-08
5.53294e-08
-7.82383e-09
5.83091e-08
-2.97973e-09
5.6542e-08
1.76711e-09
5.03363e-08
6.20571e-09
4.0423e-08
9.91325e-09
2.79942e-08
1.24288e-08
1.50078e-08
1.29864e-08
4.60216e-09
1.04057e-08
4.60216e-09
-1.44268e-09
-3.0149e-09
-2.02881e-08
2.0243e-08
-6.43734e-08
5.623e-08
-1.33592e-07
9.22772e-08
-2.25176e-07
1.24099e-07
-3.35323e-07
1.50227e-07
-4.60139e-07
1.70638e-07
-5.96093e-07
1.85951e-07
-7.40198e-07
1.97016e-07
-8.90044e-07
2.04694e-07
-1.04375e-06
2.09772e-07
-1.19992e-06
2.12917e-07
-1.35751e-06
2.14674e-07
-1.5158e-06
2.1547e-07
-1.67432e-06
2.15631e-07
-1.83273e-06
2.15395e-07
-1.99086e-06
2.14933e-07
-2.1486e-06
2.14362e-07
-2.30591e-06
2.13753e-07
-2.46278e-06
2.13151e-07
-2.61921e-06
2.12575e-07
-2.77522e-06
2.12029e-07
-2.9308e-06
2.11506e-07
-3.08596e-06
2.10993e-07
-3.24069e-06
2.10469e-07
-3.39496e-06
2.09912e-07
-3.54871e-06
2.093e-07
-3.70188e-06
2.08607e-07
-3.8544e-06
2.07808e-07
-4.00616e-06
2.06878e-07
-4.15705e-06
2.0579e-07
-4.30693e-06
2.0452e-07
-4.45564e-06
2.0304e-07
-4.60301e-06
2.01324e-07
-4.74884e-06
1.99345e-07
-4.89293e-06
1.97077e-07
-5.03504e-06
1.94491e-07
-5.17492e-06
1.91563e-07
-5.31229e-06
1.88263e-07
-5.44688e-06
1.84565e-07
-5.57836e-06
1.80443e-07
-5.70642e-06
1.75872e-07
-5.83071e-06
1.70826e-07
-5.95087e-06
1.65283e-07
-6.06653e-06
1.59221e-07
-6.17729e-06
1.52621e-07
-6.28276e-06
1.45465e-07
-6.38254e-06
1.3774e-07
-6.47619e-06
1.29434e-07
-6.5633e-06
1.2054e-07
-6.64345e-06
1.11056e-07
-6.71622e-06
1.00982e-07
-6.78119e-06
9.03232e-08
-6.83796e-06
7.90919e-08
-6.88612e-06
6.7304e-08
-6.9253e-06
5.49814e-08
-6.95514e-06
4.21518e-08
-6.97531e-06
2.88487e-08
-6.98551e-06
1.51115e-08
-6.98545e-06
9.91396e-10
-6.97491e-06
-1.34777e-08
-6.95369e-06
-2.82205e-08
-6.92165e-06
-4.31831e-08
-6.87867e-06
-5.82986e-08
-6.82471e-06
-7.3496e-08
-6.75977e-06
-8.87008e-08
-6.68391e-06
-1.03835e-07
-6.59724e-06
-1.1882e-07
-6.49994e-06
-1.33573e-07
-6.39222e-06
-1.48013e-07
-6.27438e-06
-1.62058e-07
-6.14677e-06
-1.75628e-07
-6.00978e-06
-1.88645e-07
-5.86386e-06
-2.01035e-07
-5.70951e-06
-2.12727e-07
-5.54729e-06
-2.23656e-07
-5.37777e-06
-2.33761e-07
-5.20159e-06
-2.42989e-07
-5.0194e-06
-2.51296e-07
-4.83189e-06
-2.58643e-07
-4.63977e-06
-2.64999e-07
-4.44375e-06
-2.70343e-07
-4.24457e-06
-2.74663e-07
-4.04296e-06
-2.77952e-07
-3.83965e-06
-2.80214e-07
-3.63537e-06
-2.81461e-07
-3.43083e-06
-2.81708e-07
-3.22673e-06
-2.8098e-07
-3.02373e-06
-2.79306e-07
-2.8225e-06
-2.76719e-07
-2.62366e-06
-2.73256e-07
-2.42782e-06
-2.68953e-07
-2.23555e-06
-2.63848e-07
-2.0474e-06
-2.5798e-07
-1.8639e-06
-2.51383e-07
-1.68555e-06
-2.44087e-07
-1.51285e-06
-2.3612e-07
-1.34627e-06
-2.27501e-07
-1.18627e-06
-2.18245e-07
-1.03333e-06
-2.08358e-07
-8.879e-07
-1.97839e-07
-7.50457e-07
-1.86683e-07
-6.21483e-07
-1.74874e-07
-5.01472e-07
-1.62395e-07
-3.90935e-07
-1.49227e-07
-2.90393e-07
-1.35352e-07
-2.00375e-07
-1.2076e-07
-1.21404e-07
-1.05455e-07
-5.39804e-08
-8.94652e-08
1.44683e-09
-7.2855e-08
4.45198e-08
-5.57447e-08
7.50318e-08
-3.83359e-08
9.29992e-08
-2.09471e-08
9.8806e-08
-4.03975e-09
9.34025e-08
1.16092e-08
7.83872e-08
2.49286e-08
5.6478e-08
3.4338e-08
3.18361e-08
3.76283e-08
1.03348e-08
3.1907e-08
1.49369e-08
-1.26322e-08
9.6171e-09
-5.7741e-08
6.53521e-08
-1.38704e-07
1.37194e-07
-2.544e-07
2.07973e-07
-4.01192e-07
2.70891e-07
-5.74294e-07
3.23329e-07
-7.68702e-07
3.65047e-07
-9.79739e-07
3.96988e-07
-1.20332e-06
4.20594e-07
-1.43604e-06
4.37413e-07
-1.67517e-06
4.48904e-07
-1.9186e-06
4.56346e-07
-2.16473e-06
4.60806e-07
-2.4124e-06
4.63141e-07
-2.66078e-06
4.64014e-07
-2.90931e-06
4.63925e-07
-3.15762e-06
4.63238e-07
-3.40546e-06
4.62204e-07
-3.6527e-06
4.60991e-07
-3.89925e-06
4.59701e-07
-4.14506e-06
4.58389e-07
-4.39011e-06
4.57074e-07
-4.63435e-06
4.5575e-07
-4.87775e-06
4.54395e-07
-5.12026e-06
4.52974e-07
-5.36179e-06
4.51447e-07
-5.60226e-06
4.49768e-07
-5.84154e-06
4.47888e-07
-6.07949e-06
4.45757e-07
-6.31594e-06
4.43324e-07
-6.55068e-06
4.40535e-07
-6.7835e-06
4.37338e-07
-7.01414e-06
4.33679e-07
-7.24232e-06
4.29505e-07
-7.46774e-06
4.24761e-07
-7.69005e-06
4.19392e-07
-7.9089e-06
4.13343e-07
-8.1239e-06
4.0656e-07
-8.33463e-06
3.98988e-07
-8.54063e-06
3.90573e-07
-8.74146e-06
3.81264e-07
-8.93659e-06
3.71009e-07
-9.12553e-06
3.59761e-07
-9.30772e-06
3.47475e-07
-9.48261e-06
3.3411e-07
-9.64962e-06
3.1963e-07
-9.80816e-06
3.04002e-07
-9.95762e-06
2.87201e-07
-1.00974e-05
2.6921e-07
-1.02269e-05
2.50018e-07
-1.03454e-05
2.29622e-07
-1.04525e-05
2.08029e-07
-1.05474e-05
1.85256e-07
-1.06297e-05
1.6133e-07
-1.06986e-05
1.36289e-07
-1.07538e-05
1.10182e-07
-1.07948e-05
8.30702e-08
-1.08209e-05
5.50255e-08
-1.0832e-05
2.61327e-08
-1.08275e-05
-3.51347e-09
-1.08071e-05
-3.38053e-08
-1.07707e-05
-6.46264e-08
-1.07181e-05
-9.58479e-08
-1.0649e-05
-1.27334e-07
-1.05636e-05
-1.5894e-07
-1.04618e-05
-1.90514e-07
-1.03437e-05
-2.219e-07
-1.02096e-05
-2.52937e-07
-1.00597e-05
-2.83462e-07
-9.89439e-06
-3.1331e-07
-9.71413e-06
-3.4232e-07
-9.51942e-06
-3.70332e-07
-9.31088e-06
-3.97192e-07
-9.08916e-06
-4.22753e-07
-8.85501e-06
-4.46874e-07
-8.60924e-06
-4.69428e-07
-8.3527e-06
-4.90298e-07
-8.08631e-06
-5.0938e-07
-7.81102e-06
-5.26585e-07
-7.52783e-06
-5.41838e-07
-7.23775e-06
-5.55082e-07
-6.94182e-06
-5.66274e-07
-6.64109e-06
-5.7539e-07
-6.33662e-06
-5.82421e-07
-6.02946e-06
-5.87372e-07
-5.72066e-06
-5.90266e-07
-5.41123e-06
-5.91135e-07
-5.10218e-06
-5.90026e-07
-4.79449e-06
-5.86995e-07
-4.48911e-06
-5.82106e-07
-4.18694e-06
-5.75428e-07
-3.88886e-06
-5.67032e-07
-3.59571e-06
-5.56991e-07
-3.30832e-06
-5.45375e-07
-3.02746e-06
-5.32247e-07
-2.75388e-06
-5.17666e-07
-2.48832e-06
-5.01677e-07
-2.23151e-06
-4.84315e-07
-1.98415e-06
-4.65603e-07
-1.74696e-06
-4.45547e-07
-1.52066e-06
-4.2414e-07
-1.30598e-06
-4.01362e-07
-1.10367e-06
-3.7718e-07
-9.1451e-07
-3.51556e-07
-7.39287e-07
-3.2445e-07
-5.7881e-07
-2.95829e-07
-4.33893e-07
-2.65677e-07
-3.05334e-07
-2.34014e-07
-1.93885e-07
-2.00914e-07
-1.00208e-07
-1.66532e-07
-2.48089e-08
-1.31144e-07
3.20453e-08
-9.51901e-08
7.04439e-08
-5.93456e-08
9.10095e-08
-2.46054e-08
9.50713e-08
7.54742e-09
8.4889e-08
3.51109e-08
6.40347e-08
5.51923e-08
3.7671e-08
6.3992e-08
1.2901e-08
5.6677e-08
2.7838e-08
-2.47094e-08
3.43265e-08
-9.76642e-08
1.38307e-07
-2.16836e-07
2.56365e-07
-3.78595e-07
3.69733e-07
-5.77944e-07
4.70239e-07
-8.09184e-07
5.54568e-07
-1.06654e-06
6.22408e-07
-1.34463e-06
6.75071e-07
-1.63865e-06
7.14619e-07
-1.94457e-06
7.4333e-07
-2.25907e-06
7.63399e-07
-2.57951e-06
7.76791e-07
-2.90387e-06
7.85171e-07
-3.23063e-06
7.89898e-07
-3.55866e-06
7.92044e-07
-3.88716e-06
7.92428e-07
-4.21558e-06
7.91653e-07
-4.54352e-06
7.90149e-07
-4.87074e-06
7.88209e-07
-5.19706e-06
7.86016e-07
-5.52234e-06
7.83675e-07
-5.8465e-06
7.81232e-07
-6.16944e-06
7.78689e-07
-6.49106e-06
7.76017e-07
-6.81126e-06
7.7317e-07
-7.1299e-06
7.70086e-07
-7.44682e-06
7.66693e-07
-7.76185e-06
7.62916e-07
-8.07476e-06
7.58673e-07
-8.38532e-06
7.53881e-07
-8.69324e-06
7.48457e-07
-8.99822e-06
7.42313e-07
-9.29991e-06
7.35364e-07
-9.59792e-06
7.2752e-07
-9.89185e-06
7.18694e-07
-1.01813e-05
7.08797e-07
-1.04657e-05
6.97739e-07
-1.07445e-05
6.85434e-07
-1.10173e-05
6.71793e-07
-1.12835e-05
6.56732e-07
-1.15424e-05
6.40167e-07
-1.17934e-05
6.22019e-07
-1.20359e-05
6.02214e-07
-1.22691e-05
5.80681e-07
-1.24923e-05
5.5736e-07
-1.27049e-05
5.32194e-07
-1.2906e-05
5.05138e-07
-1.3095e-05
4.76157e-07
-1.3271e-05
4.45228e-07
-1.34333e-05
4.12339e-07
-1.35812e-05
3.77495e-07
-1.37139e-05
3.40713e-07
-1.38306e-05
3.02027e-07
-1.39308e-05
2.6149e-07
-1.40137e-05
2.1917e-07
-1.40787e-05
1.75154e-07
-1.41251e-05
1.29549e-07
-1.41526e-05
8.2478e-08
-1.41605e-05
3.40845e-08
-1.41486e-05
-1.54711e-08
-1.41164e-05
-6.601e-08
-1.40637e-05
-1.17338e-07
-1.39903e-05
-1.69244e-07
-1.38961e-05
-2.21504e-07
-1.37811e-05
-2.73884e-07
-1.36455e-05
-3.26136e-07
-1.34894e-05
-3.78007e-07
-1.33131e-05
-4.29237e-07
-1.3117e-05
-4.79565e-07
-1.29016e-05
-5.28729e-07
-1.26674e-05
-5.7647e-07
-1.24152e-05
-6.22534e-07
-1.21458e-05
-6.66677e-07
-1.18598e-05
-7.08665e-07
-1.15584e-05
-7.48279e-07
-1.12426e-05
-7.85317e-07
-1.09133e-05
-8.19596e-07
-1.05717e-05
-8.50954e-07
-1.0219e-05
-8.79251e-07
-9.85648e-06
-9.04374e-07
-9.48533e-06
-9.26233e-07
-9.10684e-06
-9.44763e-07
-8.7223e-06
-9.59928e-07
-8.33301e-06
-9.71714e-07
-7.94025e-06
-9.80133e-07
-7.5453e-06
-9.85218e-07
-7.14941e-06
-9.87026e-07
-6.7538e-06
-9.85628e-07
-6.35969e-06
-9.81112e-07
-5.96822e-06
-9.73578e-07
-5.58051e-06
-9.63132e-07
-5.19766e-06
-9.49887e-07
-4.8207e-06
-9.33952e-07
-4.45064e-06
-9.15434e-07
-4.08846e-06
-8.94429e-07
-3.7351e-06
-8.71022e-07
-3.3915e-06
-8.4528e-07
-3.05856e-06
-8.17252e-07
-2.7372e-06
-7.86964e-07
-2.42833e-06
-7.54419e-07
-2.13287e-06
-7.19597e-07
-1.85177e-06
-6.82459e-07
-1.586e-06
-6.42948e-07
-1.33656e-06
-6.00998e-07
-1.10447e-06
-5.56544e-07
-8.90763e-07
-5.09535e-07
-6.96483e-07
-4.59956e-07
-5.22643e-07
-4.07854e-07
-3.70186e-07
-3.53371e-07
-2.39929e-07
-2.96789e-07
-1.32487e-07
-2.38586e-07
-4.81638e-08
-1.79514e-07
1.3182e-08
-1.20691e-07
5.231e-08
-6.37334e-08
7.07652e-08
-1.09078e-08
7.11951e-08
3.46811e-08
5.75464e-08
6.88409e-08
3.54388e-08
8.60996e-08
1.25737e-08
7.95421e-08
4.04116e-08
-3.61494e-08
7.0476e-08
-1.36079e-07
2.38237e-07
-2.9248e-07
4.12766e-07
-4.98624e-07
5.75877e-07
-7.47707e-07
7.19322e-07
-1.03295e-06
8.39812e-07
-1.34787e-06
9.37326e-07
-1.68651e-06
1.01371e-06
-2.04363e-06
1.07173e-06
-2.41473e-06
1.11444e-06
-2.79613e-06
1.1448e-06
-3.18483e-06
1.16549e-06
-3.57849e-06
1.17883e-06
-3.9753e-06
1.18671e-06
-4.37392e-06
1.19066e-06
-4.77333e-06
1.19184e-06
-5.17281e-06
1.19113e-06
-5.57183e-06
1.18918e-06
-5.97003e-06
1.18641e-06
-6.36712e-06
1.18311e-06
-6.7629e-06
1.17945e-06
-7.15718e-06
1.17551e-06
-7.5498e-06
1.17131e-06
-7.9406e-06
1.16682e-06
-8.32941e-06
1.16198e-06
-8.71602e-06
1.1567e-06
-9.10022e-06
1.15089e-06
-9.48175e-06
1.14445e-06
-9.86033e-06
1.13725e-06
-1.02356e-05
1.12918e-06
-1.06073e-05
1.12013e-06
-1.09749e-05
1.10996e-06
-1.13381e-05
1.09855e-06
-1.16964e-05
1.08577e-06
-1.20492e-05
1.07151e-06
-1.2396e-05
1.05562e-06
-1.27363e-05
1.03799e-06
-1.30693e-05
1.01849e-06
-1.33945e-05
9.96992e-07
-1.37112e-05
9.73382e-07
-1.40185e-05
9.47541e-07
-1.43159e-05
9.1936e-07
-1.46024e-05
8.88736e-07
-1.48773e-05
8.55575e-07
-1.51397e-05
8.19793e-07
-1.53889e-05
7.81318e-07
-1.56238e-05
7.40093e-07
-1.58437e-05
6.96075e-07
-1.60477e-05
6.49239e-07
-1.6235e-05
5.99579e-07
-1.64046e-05
5.4711e-07
-1.65558e-05
4.91869e-07
-1.66876e-05
4.33915e-07
-1.67995e-05
3.73333e-07
-1.68906e-05
3.10232e-07
-1.69601e-05
2.44748e-07
-1.70076e-05
1.77043e-07
-1.70325e-05
1.07305e-07
-1.70341e-05
3.57472e-08
-1.70122e-05
-3.73909e-08
-1.69664e-05
-1.11847e-07
-1.68964e-05
-1.87335e-07
-1.68021e-05
-2.63548e-07
-1.66834e-05
-3.40162e-07
-1.65405e-05
-4.16837e-07
-1.63734e-05
-4.93218e-07
-1.61824e-05
-5.68941e-07
-1.5968e-05
-6.43638e-07
-1.57307e-05
-7.16935e-07
-1.54709e-05
-7.8846e-07
-1.51896e-05
-8.57849e-07
-1.48874e-05
-9.24743e-07
-1.45652e-05
-9.88799e-07
-1.42242e-05
-1.04969e-06
-1.38654e-05
-1.10711e-06
-1.34899e-05
-1.16078e-06
-1.30991e-05
-1.21044e-06
-1.26942e-05
-1.25587e-06
-1.22765e-05
-1.29688e-06
-1.18476e-05
-1.33331e-06
-1.14088e-05
-1.36504e-06
-1.09616e-05
-1.39198e-06
-1.05074e-05
-1.41409e-06
-1.00478e-05
-1.43135e-06
-9.58411e-06
-1.44378e-06
-9.1179e-06
-1.45143e-06
-8.65056e-06
-1.45437e-06
-8.18347e-06
-1.45272e-06
-7.71799e-06
-1.44659e-06
-7.25543e-06
-1.43613e-06
-6.79709e-06
-1.42148e-06
-6.34417e-06
-1.4028e-06
-5.89789e-06
-1.38024e-06
-5.45939e-06
-1.35394e-06
-5.02978e-06
-1.32403e-06
-4.61017e-06
-1.29064e-06
-4.20161e-06
-1.25384e-06
-3.80518e-06
-1.21369e-06
-3.42192e-06
-1.17022e-06
-3.0529e-06
-1.12343e-06
-2.69921e-06
-1.07329e-06
-2.36196e-06
-1.01972e-06
-2.04227e-06
-9.62637e-07
-1.74131e-06
-9.01949e-07
-1.4603e-06
-8.37561e-07
-1.20043e-06
-7.69407e-07
-9.62906e-07
-6.97475e-07
-7.48909e-07
-6.21851e-07
-5.59518e-07
-5.42762e-07
-3.95663e-07
-4.60644e-07
-2.58032e-07
-3.76217e-07
-1.46961e-07
-2.90585e-07
-6.22901e-08
-2.05362e-07
-3.19974e-09
-1.22824e-07
3.19821e-08
-4.60897e-08
4.60156e-08
2.06476e-08
4.29855e-08
7.1871e-08
2.86192e-08
1.00466e-07
1.0709e-08
9.74523e-08
5.11206e-08
-4.6477e-08
1.16953e-07
-1.71382e-07
3.63142e-07
-3.62732e-07
6.04116e-07
-6.10626e-07
8.23771e-07
-9.06232e-07
1.01493e-06
-1.24152e-06
1.1751e-06
-1.60923e-06
1.30503e-06
-2.00288e-06
1.40736e-06
-2.41685e-06
1.4857e-06
-2.84635e-06
1.54394e-06
-3.28741e-06
1.58586e-06
-3.73681e-06
1.61489e-06
-4.19198e-06
1.634e-06
-4.65091e-06
1.64565e-06
-5.11208e-06
1.65183e-06
-5.57432e-06
1.65408e-06
-6.03677e-06
1.65358e-06
-6.49876e-06
1.65117e-06
-6.95983e-06
1.64747e-06
-7.41959e-06
1.64287e-06
-7.87774e-06
1.6376e-06
-8.33402e-06
1.6318e-06
-8.7882e-06
1.62549e-06
-9.24005e-06
1.61866e-06
-9.6893e-06
1.61123e-06
-1.01357e-05
1.60311e-06
-1.0579e-05
1.59416e-06
-1.10188e-05
1.58425e-06
-1.14547e-05
1.57322e-06
-1.18865e-05
1.56094e-06
-1.23136e-05
1.54722e-06
-1.27356e-05
1.53192e-06
-1.31519e-05
1.51487e-06
-1.3562e-05
1.49589e-06
-1.39653e-05
1.47482e-06
-1.43612e-05
1.45149e-06
-1.47489e-05
1.42573e-06
-1.51278e-05
1.39738e-06
-1.54971e-05
1.36629e-06
-1.5856e-05
1.33228e-06
-1.62037e-05
1.29522e-06
-1.65393e-05
1.25495e-06
-1.68619e-05
1.21136e-06
-1.71706e-05
1.16432e-06
-1.74646e-05
1.11373e-06
-1.77428e-05
1.05951e-06
-1.80042e-05
1.00158e-06
-1.82481e-05
9.39903e-07
-1.84733e-05
8.74456e-07
-1.8679e-05
8.05244e-07
-1.88641e-05
7.32298e-07
-1.9028e-05
6.55682e-07
-1.91695e-05
5.75488e-07
-1.9288e-05
4.91843e-07
-1.93827e-05
4.04906e-07
-1.94528e-05
3.1487e-07
-1.94978e-05
2.21963e-07
-1.95169e-05
1.26448e-07
-1.95098e-05
2.86202e-08
-1.9476e-05
-7.11927e-08
-1.94152e-05
-1.72632e-07
-1.93272e-05
-2.75311e-07
-1.92119e-05
-3.78815e-07
-1.90694e-05
-4.82708e-07
-1.88997e-05
-5.86536e-07
-1.87031e-05
-6.89825e-07
-1.84799e-05
-7.92094e-07
-1.82307e-05
-8.92853e-07
-1.7956e-05
-9.9161e-07
-1.76566e-05
-1.08788e-06
-1.73333e-05
-1.18117e-06
-1.6987e-05
-1.27103e-06
-1.66188e-05
-1.35701e-06
-1.62298e-05
-1.43867e-06
-1.58213e-05
-1.51563e-06
-1.53946e-05
-1.58752e-06
-1.4951e-05
-1.65401e-06
-1.4492e-05
-1.71481e-06
-1.40192e-05
-1.76969e-06
-1.35341e-05
-1.81843e-06
-1.30383e-05
-1.8609e-06
-1.25333e-05
-1.89698e-06
-1.20207e-05
-1.92661e-06
-1.15023e-05
-1.94979e-06
-1.09796e-05
-1.96653e-06
-1.04541e-05
-1.97692e-06
-9.92739e-06
-1.98105e-06
-9.40104e-06
-1.97907e-06
-8.8765e-06
-1.97113e-06
-8.3552e-06
-1.95743e-06
-7.83852e-06
-1.93816e-06
-7.32781e-06
-1.91351e-06
-6.82437e-06
-1.88368e-06
-6.32945e-06
-1.84886e-06
-5.84427e-06
-1.80921e-06
-5.37002e-06
-1.76488e-06
-4.90789e-06
-1.71597e-06
-4.45903e-06
-1.66255e-06
-4.0246e-06
-1.60465e-06
-3.60578e-06
-1.54225e-06
-3.20377e-06
-1.4753e-06
-2.81978e-06
-1.40371e-06
-2.45507e-06
-1.32734e-06
-2.11094e-06
-1.24609e-06
-1.78869e-06
-1.15981e-06
-1.48966e-06
-1.06844e-06
-1.21517e-06
-9.7196e-07
-9.6651e-07
-8.70516e-07
-7.44842e-07
-7.6443e-07
-5.51177e-07
-6.54309e-07
-3.86258e-07
-5.41136e-07
-2.50449e-07
-4.26393e-07
-1.43599e-07
-3.12212e-07
-6.48789e-08
-2.01544e-07
-1.25989e-08
-9.83696e-08
1.59916e-08
-7.94289e-09
2.49331e-08
6.29295e-08
1.98252e-08
1.05574e-07
8.19562e-09
1.09082e-07
5.93163e-08
-5.56218e-08
1.72575e-07
-2.03126e-07
5.10646e-07
-4.26547e-07
8.27536e-07
-7.13003e-07
1.11023e-06
-1.05161e-06
1.35353e-06
-1.43298e-06
1.55648e-06
-1.84902e-06
1.72106e-06
-2.29269e-06
1.85104e-06
-2.75804e-06
1.95104e-06
-3.24001e-06
2.02591e-06
-3.73444e-06
2.08029e-06
-4.23794e-06
2.11839e-06
-4.74779e-06
2.14385e-06
-5.26186e-06
2.15972e-06
-5.77848e-06
2.16845e-06
-6.29637e-06
2.17197e-06
-6.81454e-06
2.17175e-06
-7.33224e-06
2.16888e-06
-7.8489e-06
2.16412e-06
-8.36403e-06
2.158e-06
-8.87727e-06
2.15083e-06
-9.38826e-06
2.14279e-06
-9.89671e-06
2.13394e-06
-1.04023e-05
2.12424e-06
-1.09047e-05
2.11364e-06
-1.14036e-05
2.102e-06
-1.18986e-05
2.08917e-06
-1.23894e-05
2.07499e-06
-1.28754e-05
2.05927e-06
-1.33563e-05
2.04182e-06
-1.38315e-05
2.02243e-06
-1.43005e-05
2.00089e-06
-1.47626e-05
1.97701e-06
-1.52173e-05
1.95057e-06
-1.56638e-05
1.92136e-06
-1.61015e-05
1.88916e-06
-1.65295e-05
1.85377e-06
-1.69472e-05
1.81499e-06
-1.73535e-05
1.77261e-06
-1.77476e-05
1.72644e-06
-1.81287e-05
1.6763e-06
-1.84958e-05
1.62202e-06
-1.88478e-05
1.56343e-06
-1.91839e-05
1.50042e-06
-1.9503e-05
1.43284e-06
-1.98041e-05
1.3606e-06
-2.00862e-05
1.28364e-06
-2.03482e-05
1.20191e-06
-2.05892e-05
1.1154e-06
-2.0808e-05
1.02413e-06
-2.10039e-05
9.28145e-07
-2.11758e-05
8.27555e-07
-2.13228e-05
7.22489e-07
-2.1444e-05
6.13123e-07
-2.15388e-05
4.99674e-07
-2.16064e-05
3.82404e-07
-2.1646e-05
2.61615e-07
-2.16572e-05
1.37654e-07
-2.16395e-05
1.09055e-08
-2.15925e-05
-1.18203e-07
-2.15159e-05
-2.49209e-07
-2.14096e-05
-3.81613e-07
-2.12735e-05
-5.14887e-07
-2.11078e-05
-6.48475e-07
-2.09125e-05
-7.81797e-07
-2.06881e-05
-9.14257e-07
-2.04349e-05
-1.04525e-06
-2.01536e-05
-1.17415e-06
-1.98449e-05
-1.30035e-06
-1.95095e-05
-1.42323e-06
-1.91485e-05
-1.5422e-06
-1.87629e-05
-1.65668e-06
-1.83538e-05
-1.7661e-06
-1.79225e-05
-1.86995e-06
-1.74704e-05
-1.96774e-06
-1.69989e-05
-2.05901e-06
-1.65095e-05
-2.14337e-06
-1.60039e-05
-2.22046e-06
-1.54836e-05
-2.29e-06
-1.49503e-05
-2.35173e-06
-1.44057e-05
-2.40548e-06
-1.38516e-05
-2.45113e-06
-1.32896e-05
-2.4886e-06
-1.27215e-05
-2.51789e-06
-1.2149e-05
-2.53904e-06
-1.15737e-05
-2.55215e-06
-1.09974e-05
-2.55736e-06
-1.04216e-05
-2.55484e-06
-9.84796e-06
-2.5448e-06
-9.27792e-06
-2.52747e-06
-8.71298e-06
-2.5031e-06
-8.15456e-06
-2.47193e-06
-7.60403e-06
-2.43421e-06
-7.06273e-06
-2.39016e-06
-6.53194e-06
-2.34e-06
-6.01293e-06
-2.28389e-06
-5.50694e-06
-2.22196e-06
-5.01519e-06
-2.15429e-06
-4.53894e-06
-2.08091e-06
-4.0794e-06
-2.00178e-06
-3.63786e-06
-1.91684e-06
-3.21561e-06
-1.82596e-06
-2.81398e-06
-1.72898e-06
-2.43433e-06
-1.62574e-06
-2.07805e-06
-1.51609e-06
-1.74655e-06
-1.39993e-06
-1.44123e-06
-1.27728e-06
-1.16343e-06
-1.14832e-06
-9.14378e-07
-1.01348e-06
-6.95129e-07
-8.73558e-07
-5.06463e-07
-7.29801e-07
-3.48774e-07
-5.84083e-07
-2.21935e-07
-4.39052e-07
-1.25147e-07
-2.98332e-07
-5.67709e-08
-1.66745e-07
-1.41479e-08
-5.05659e-08
6.60504e-09
4.21766e-08
1.08459e-08
1.01333e-07
5.6316e-09
1.14296e-07
6.49479e-08
-6.3665e-08
2.3624e-07
-2.31375e-07
6.78357e-07
-4.8381e-07
1.07997e-06
-8.05413e-07
1.43183e-06
-1.18333e-06
1.73145e-06
-1.60685e-06
1.97999e-06
-2.06694e-06
2.18116e-06
-2.55605e-06
2.34015e-06
-3.06782e-06
2.46281e-06
-3.59698e-06
2.55507e-06
-4.13921e-06
2.62252e-06
-4.691e-06
2.67018e-06
-5.24952e-06
2.70238e-06
-5.81255e-06
2.72274e-06
-6.37832e-06
2.73422e-06
-6.94547e-06
2.73912e-06
-7.51293e-06
2.73921e-06
-8.07986e-06
2.73581e-06
-8.64559e-06
2.72986e-06
-9.20959e-06
2.722e-06
-9.77139e-06
2.71263e-06
-1.03306e-05
2.70198e-06
-1.08868e-05
2.69013e-06
-1.14396e-05
2.67706e-06
-1.19886e-05
2.66269e-06
-1.25335e-05
2.64689e-06
-1.30738e-05
2.62947e-06
-1.36091e-05
2.61023e-06
-1.41387e-05
2.58895e-06
-1.46623e-05
2.5654e-06
-1.51792e-05
2.53934e-06
-1.56888e-05
2.5105e-06
-1.61905e-05
2.47866e-06
-1.66834e-05
2.44353e-06
-1.7167e-05
2.40489e-06
-1.76403e-05
2.36246e-06
-1.81025e-05
2.31599e-06
-1.85528e-05
2.26526e-06
-1.89902e-05
2.21e-06
-1.94137e-05
2.15e-06
-1.98225e-05
2.08505e-06
-2.02154e-05
2.01493e-06
-2.05914e-05
1.93948e-06
-2.09496e-05
1.85853e-06
-2.12887e-05
1.77196e-06
-2.16077e-05
1.67964e-06
-2.19056e-05
1.58153e-06
-2.21813e-05
1.47757e-06
-2.24336e-05
1.36777e-06
-2.26617e-05
1.25217e-06
-2.28644e-05
1.13086e-06
-2.30408e-05
1.00398e-06
-2.319e-05
8.71711e-07
-2.33112e-05
7.34279e-07
-2.34035e-05
5.91972e-07
-2.34662e-05
4.45126e-07
-2.34987e-05
2.94125e-07
-2.35005e-05
1.39408e-07
-2.3471e-05
-1.85404e-08
-2.341e-05
-1.79188e-07
-2.33173e-05
-3.41958e-07
-2.31927e-05
-5.06236e-07
-2.30362e-05
-6.71368e-07
-2.2848e-05
-8.36672e-07
-2.26284e-05
-1.00144e-06
-2.23777e-05
-1.16494e-06
-2.20965e-05
-1.32644e-06
-2.17854e-05
-1.48518e-06
-2.14454e-05
-1.64042e-06
-2.10772e-05
-1.79143e-06
-2.06819e-05
-1.93748e-06
-2.02607e-05
-2.07787e-06
-1.98149e-05
-2.21193e-06
-1.93458e-05
-2.33905e-06
-1.88549e-05
-2.45863e-06
-1.83437e-05
-2.57015e-06
-1.7814e-05
-2.67312e-06
-1.72673e-05
-2.76714e-06
-1.67055e-05
-2.85185e-06
-1.61302e-05
-2.92698e-06
-1.55434e-05
-2.99232e-06
-1.49468e-05
-3.04772e-06
-1.43422e-05
-3.09313e-06
-1.37316e-05
-3.12853e-06
-1.31166e-05
-3.154e-06
-1.24992e-05
-3.16965e-06
-1.18809e-05
-3.17566e-06
-1.12635e-05
-3.17224e-06
-1.06486e-05
-3.15967e-06
-1.00378e-05
-3.13822e-06
-9.43276e-06
-3.10818e-06
-8.83481e-06
-3.06987e-06
-8.24544e-06
-3.02358e-06
-7.66601e-06
-2.96959e-06
-7.09787e-06
-2.90814e-06
-6.54233e-06
-2.83944e-06
-6.00066e-06
-2.76363e-06
-5.47415e-06
-2.68081e-06
-4.96405e-06
-2.591e-06
-4.47165e-06
-2.49418e-06
-3.99825e-06
-2.39024e-06
-3.54519e-06
-2.27902e-06
-3.11383e-06
-2.16034e-06
-2.70557e-06
-2.034e-06
-2.32184e-06
-1.89982e-06
-1.96408e-06
-1.75769e-06
-1.63373e-06
-1.60764e-06
-1.33214e-06
-1.44991e-06
-1.06058e-06
-1.28504e-06
-8.20127e-07
-1.11401e-06
-6.11586e-07
-9.38342e-07
-4.35375e-07
-7.60294e-07
-2.91402e-07
-5.83024e-07
-1.78924e-07
-4.10811e-07
-9.63858e-08
-2.49283e-07
-4.12599e-08
-1.05692e-07
-9.86339e-09
1.07801e-08
2.82013e-09
8.86494e-08
3.35088e-09
1.13765e-07
6.82987e-08
-7.07295e-08
3.06969e-07
-2.56392e-07
8.64019e-07
-5.34842e-07
1.35842e-06
-8.88172e-07
1.78516e-06
-1.30173e-06
2.14501e-06
-1.7635e-06
2.44176e-06
-2.26358e-06
2.68124e-06
-2.7938e-06
2.87037e-06
-3.34747e-06
3.01647e-06
-3.91906e-06
3.12667e-06
-4.50412e-06
3.20758e-06
-5.09902e-06
3.26508e-06
-5.70088e-06
3.30423e-06
-6.30739e-06
3.32926e-06
-6.91674e-06
3.34357e-06
-7.52749e-06
3.34987e-06
-8.13852e-06
3.35023e-06
-8.74891e-06
3.3462e-06
-9.35795e-06
3.33889e-06
-9.96501e-06
3.32906e-06
-1.05696e-05
3.31719e-06
-1.11712e-05
3.30356e-06
-1.17693e-05
3.28828e-06
-1.23636e-05
3.27134e-06
-1.29535e-05
3.25265e-06
-1.35387e-05
3.23205e-06
-1.41186e-05
3.20934e-06
-1.46926e-05
3.18429e-06
-1.52603e-05
3.15663e-06
-1.5821e-05
3.1261e-06
-1.63741e-05
3.0924e-06
-1.69188e-05
3.05525e-06
-1.74545e-05
3.01435e-06
-1.79804e-05
2.9694e-06
-1.84956e-05
2.9201e-06
-1.89993e-05
2.86615e-06
-1.94905e-05
2.80726e-06
-1.99684e-05
2.74314e-06
-2.04319e-05
2.67353e-06
-2.08801e-05
2.59815e-06
-2.13118e-05
2.51676e-06
-2.1726e-05
2.42915e-06
-2.21216e-05
2.33509e-06
-2.24975e-05
2.23443e-06
-2.28526e-05
2.12701e-06
-2.31857e-05
2.01274e-06
-2.34957e-05
1.89154e-06
-2.37815e-05
1.76338e-06
-2.4042e-05
1.6283e-06
-2.42762e-05
1.48635e-06
-2.4483e-05
1.33767e-06
-2.46615e-05
1.18244e-06
-2.48106e-05
1.02089e-06
-2.49297e-05
8.53317e-07
-2.50178e-05
6.80082e-07
-2.50743e-05
5.01601e-07
-2.50985e-05
3.18348e-07
-2.50899e-05
1.3086e-07
-2.50482e-05
-6.02722e-08
-2.4973e-05
-2.54404e-07
-2.48641e-05
-4.50841e-07
-2.47215e-05
-6.48842e-07
-2.45452e-05
-8.47626e-07
-2.43355e-05
-1.04638e-06
-2.40927e-05
-1.24425e-06
-2.38173e-05
-1.44039e-06
-2.35098e-05
-1.6339e-06
-2.31711e-05
-1.82391e-06
-2.2802e-05
-2.00954e-06
-2.24035e-05
-2.18991e-06
-2.19768e-05
-2.36419e-06
-2.15231e-05
-2.53156e-06
-2.10438e-05
-2.69122e-06
-2.05404e-05
-2.84246e-06
-2.00144e-05
-2.98458e-06
-1.94676e-05
-3.11698e-06
-1.89016e-05
-3.2391e-06
-1.83183e-05
-3.35047e-06
-1.77195e-05
-3.45069e-06
-1.7107e-05
-3.53943e-06
-1.64829e-05
-3.61647e-06
-1.58489e-05
-3.68166e-06
-1.52071e-05
-3.73491e-06
-1.45594e-05
-3.77626e-06
-1.39076e-05
-3.80577e-06
-1.32537e-05
-3.82362e-06
-1.25993e-05
-3.83e-06
-1.19464e-05
-3.8252e-06
-1.12965e-05
-3.80954e-06
-1.06514e-05
-3.78334e-06
-1.00126e-05
-3.74697e-06
-9.38165e-06
-3.7008e-06
-8.76005e-06
-3.64518e-06
-8.1492e-06
-3.58044e-06
-7.55046e-06
-3.50688e-06
-6.96516e-06
-3.42473e-06
-6.39461e-06
-3.33418e-06
-5.8401e-06
-3.23532e-06
-5.3029e-06
-3.12821e-06
-4.7843e-06
-3.01277e-06
-4.28563e-06
-2.88891e-06
-3.80821e-06
-2.75644e-06
-3.35341e-06
-2.61513e-06
-2.92265e-06
-2.46476e-06
-2.51736e-06
-2.30511e-06
-2.13897e-06
-2.13607e-06
-1.78892e-06
-1.95769e-06
-1.46857e-06
-1.77025e-06
-1.1792e-06
-1.57441e-06
-9.21888e-07
-1.37133e-06
-6.97442e-07
-1.16279e-06
-5.06305e-07
-9.5143e-07
-3.48425e-07
-7.40905e-07
-2.23118e-07
-5.36118e-07
-1.2893e-07
-3.43472e-07
-6.34783e-08
-1.71143e-07
-2.32998e-08
-2.93984e-08
-3.68188e-09
6.90314e-08
1.5378e-09
1.08546e-07
6.98365e-08
-7.69366e-08
3.83906e-07
-2.78497e-07
1.06558e-06
-5.80138e-07
1.66006e-06
-9.61913e-07
2.16693e-06
-1.40756e-06
2.59066e-06
-1.90385e-06
2.93805e-06
-2.44002e-06
3.21741e-06
-3.00734e-06
3.43769e-06
-3.59872e-06
3.60785e-06
-4.20841e-06
3.73636e-06
-4.83181e-06
3.83098e-06
-5.46521e-06
3.89848e-06
-6.10566e-06
3.94468e-06
-6.7508e-06
3.9744e-06
-7.39878e-06
3.99155e-06
-8.04813e-06
3.99921e-06
-8.69766e-06
3.99976e-06
-9.34643e-06
3.99497e-06
-9.99364e-06
3.98611e-06
-1.06386e-05
3.97406e-06
-1.12808e-05
3.95939e-06
-1.19197e-05
3.94242e-06
-1.25547e-05
3.92329e-06
-1.31854e-05
3.902e-06
-1.38112e-05
3.87846e-06
-1.44316e-05
3.85247e-06
-1.50461e-05
3.82382e-06
-1.5654e-05
3.79224e-06
-1.62548e-05
3.75743e-06
-1.68478e-05
3.71908e-06
-1.74323e-05
3.67687e-06
-1.80075e-05
3.63045e-06
-1.85726e-05
3.57948e-06
-1.91268e-05
3.52362e-06
-1.96693e-05
3.46253e-06
-2.0199e-05
3.39587e-06
-2.07151e-05
3.3233e-06
-2.12164e-05
3.2445e-06
-2.17021e-05
3.15916e-06
-2.21709e-05
3.06698e-06
-2.26218e-05
2.96769e-06
-2.30537e-05
2.86104e-06
-2.34654e-05
2.74681e-06
-2.38558e-05
2.62481e-06
-2.42237e-05
2.4949e-06
-2.45679e-05
2.35696e-06
-2.48873e-05
2.21094e-06
-2.51808e-05
2.05682e-06
-2.54471e-05
1.89466e-06
-2.56853e-05
1.72456e-06
-2.58943e-05
1.54668e-06
-2.60732e-05
1.36125e-06
-2.62208e-05
1.16858e-06
-2.63366e-05
9.69029e-07
-2.64195e-05
7.63031e-07
-2.6469e-05
5.5109e-07
-2.64844e-05
3.3378e-07
-2.64653e-05
1.11739e-07
-2.64112e-05
-1.14331e-07
-2.6322e-05
-3.43667e-07
-2.61974e-05
-5.75449e-07
-2.60374e-05
-8.08806e-07
-2.58422e-05
-1.04282e-06
-2.5612e-05
-1.27655e-06
-2.53473e-05
-1.509e-06
-2.50485e-05
-1.73916e-06
-2.47164e-05
-1.96602e-06
-2.43518e-05
-2.18855e-06
-2.39556e-05
-2.40573e-06
-2.35289e-05
-2.61657e-06
-2.3073e-05
-2.82007e-06
-2.25893e-05
-3.01531e-06
-2.20791e-05
-3.20138e-06
-2.15441e-05
-3.37745e-06
-2.0986e-05
-3.54273e-06
-2.04064e-05
-3.69652e-06
-1.98074e-05
-3.83819e-06
-1.91906e-05
-3.96721e-06
-1.85582e-05
-4.08312e-06
-1.7912e-05