/*--------------------------------*- C++ -*----------------------------------*\
| =========                 |                                                 |
| \\      /  F ield         | OpenFOAM: The Open Source CFD Toolbox           |
|  \\    /   O peration     | Version:  2406                                  |
|   \\  /    A nd           | Website:  www.openfoam.com                      |
|    \\/     M anipulation  |                                                 |
\*---------------------------------------------------------------------------*/
FoamFile
{
    version     2.0;
    format      ascii;
    arch        "LSB;label=32;scalar=64";
    class       volVectorField;
    location    "6.8";
    object      U;
}
// * * * * * * * * * * * * * * * * * * * * * * * * * * * * * * * * * * * * * //

dimensions      [0 1 -1 0 0 0 0];

internalField   nonuniform List<vector> 
900
(
(-0.000139801 0.000131986 0)
(-0.000847333 0.000220742 0)
(-0.00180835 0.000276729 0)
(-0.00291135 0.000290891 0)
(-0.00403893 0.000298312 0)
(-0.00518599 0.000302692 0)
(-0.00634866 0.000307911 0)
(-0.00752716 0.000313441 0)
(-0.008719 0.000318415 0)
(-0.00991759 0.000321498 0)
(-0.0111106 0.000320979 0)
(-0.0122784 0.000314601 0)
(-0.0133923 0.000299507 0)
(-0.0144127 0.000272271 0)
(-0.0152882 0.000229135 0)
(-0.0159562 0.00016655 0)
(-0.0163459 8.20409e-05 0)
(-0.0163854 -2.4534e-05 0)
(-0.0160122 -0.000149306 0)
(-0.0151874 -0.000283728 0)
(-0.0139098 -0.000414391 0)
(-0.0122259 -0.000525001 0)
(-0.0102315 -0.000599877 0)
(-0.00806167 -0.000628128 0)
(-0.00587296 -0.000605984 0)
(-0.00382229 -0.00053502 0)
(-0.00205405 -0.000419422 0)
(-0.000714037 -0.000259572 0)
(8.80318e-05 -6.55067e-05 0)
(0.000139206 0.0001211 0)
(-0.000275442 0.00088722 0)
(-0.00188023 0.00172455 0)
(-0.00389605 0.00209242 0)
(-0.00619036 0.00221407 0)
(-0.00852948 0.00226043 0)
(-0.0109055 0.00228913 0)
(-0.0133026 0.00231566 0)
(-0.0157146 0.00233821 0)
(-0.0181295 0.00235006 0)
(-0.0205276 0.00234141 0)
(-0.0228777 0.00229975 0)
(-0.0251351 0.00220944 0)
(-0.0272388 0.00205185 0)
(-0.0291098 0.00180631 0)
(-0.0306516 0.00145232 0)
(-0.0317533 0.000973606 0)
(-0.0322973 0.000363748 0)
(-0.0321721 -0.000366952 0)
(-0.0312901 -0.00118647 0)
(-0.0296074 -0.00203759 0)
(-0.0271432 -0.00284205 0)
(-0.0239912 -0.0035122 0)
(-0.0203183 -0.00396877 0)
(-0.0163476 -0.00415929 0)
(-0.0123278 -0.00406725 0)
(-0.00850533 -0.00370389 0)
(-0.0051085 -0.00308236 0)
(-0.00236796 -0.00218684 0)
(-0.000514108 -0.000998329 0)
(8.93023e-05 0.00019245 0)
(-0.000375475 0.00204728 0)
(-0.00248358 0.00384727 0)
(-0.0050405 0.00457015 0)
(-0.00793771 0.00482094 0)
(-0.0108859 0.00491761 0)
(-0.0138801 0.00497173 0)
(-0.0168937 0.0050126 0)
(-0.0199148 0.00503709 0)
(-0.0229238 0.00503114 0)
(-0.0258925 0.00497427 0)
(-0.0287789 0.00484044 0)
(-0.0315251 0.00459792 0)
(-0.0340544 0.00421006 0)
(-0.0362698 0.00363777 0)
(-0.0380556 0.00284444 0)
(-0.0392806 0.00180377 0)
(-0.0398077 0.000510233 0)
(-0.0395084 -0.00100934 0)
(-0.0382823 -0.00268515 0)
(-0.0360806 -0.00440189 0)
(-0.0329313 -0.00600594 0)
(-0.0289567 -0.00732708 0)
(-0.024375 -0.00821283 0)
(-0.0194793 -0.00856499 0)
(-0.0145942 -0.00835985 0)
(-0.0100276 -0.00763282 0)
(-0.00603832 -0.00642141 0)
(-0.00285899 -0.00469851 0)
(-0.00070371 -0.00242332 0)
(7.89134e-05 2.79573e-05 0)
(-0.000420299 0.0034662 0)
(-0.00277313 0.00640657 0)
(-0.00559617 0.00754099 0)
(-0.0087879 0.00794217 0)
(-0.012029 0.00809788 0)
(-0.0153207 0.00818074 0)
(-0.018633 0.00823499 0)
(-0.0219537 0.00825618 0)
(-0.0252613 0.00822209 0)
(-0.0285262 0.00810017 0)
(-0.0317044 0.00784901 0)
(-0.034735 0.00741853 0)
(-0.0375373 0.00675149 0)
(-0.0400079 0.00578748 0)
(-0.0420205 0.0044704 0)
(-0.0434283 0.00276028 0)
(-0.0440707 0.000648993 0)
(-0.0437861 -0.00182157 0)
(-0.0424352 -0.00454186 0)
(-0.0399325 -0.00732777 0)
(-0.0362836 -0.0099276 0)
(-0.0316224 -0.0120544 0)
(-0.0262281 -0.0134449 0)
(-0.0205033 -0.01393 0)
(-0.014903 -0.0134809 0)
(-0.00983952 -0.0121893 0)
(-0.00560951 -0.0101654 0)
(-0.00242852 -0.00740865 0)
(-0.000397985 -0.00387848 0)
(0.000150371 -6.03003e-05 0)
(-0.000439103 0.00497874 0)
(-0.00288856 0.00911658 0)
(-0.00582499 0.0106783 0)
(-0.00914594 0.0112325 0)
(-0.0125187 0.01145 0)
(-0.0159498 0.0115661 0)
(-0.0194115 0.0116396 0)
(-0.0228953 0.0116649 0)
(-0.026384 0.011612 0)
(-0.029853 0.0114366 0)
(-0.0332639 0.011082 0)
(-0.0365612 0.0104792 0)
(-0.0396679 0.00954832 0)
(-0.0424804 0.00820362 0)
(-0.0448646 0.0063624 0)
(-0.0466529 0.00396027 0)
(-0.0476466 0.000972814 0)
(-0.0476251 -0.00255677 0)
(-0.0463707 -0.00648916 0)
(-0.0437119 -0.0105655 0)
(-0.0395872 -0.014406 0)
(-0.0341213 -0.0175499 0)
(-0.0276787 -0.0195521 0)
(-0.0208458 -0.0201153 0)
(-0.0143126 -0.0192009 0)
(-0.00868621 -0.0170232 0)
(-0.00432465 -0.013873 0)
(-0.0013922 -0.00985537 0)
(0.000220522 -0.00496396 0)
(0.000263702 0.00013072 0)
(-0.000440892 0.00652386 0)
(-0.00290915 0.011887 0)
(-0.00587711 0.013891 0)
(-0.0092412 0.0146055 0)
(-0.0126654 0.0148933 0)
(-0.0161615 0.0150547 0)
(-0.0197067 0.0151648 0)
(-0.0233002 0.0152178 0)
(-0.0269337 0.0151769 0)
(-0.0305933 0.0149874 0)
(-0.0342526 0.0145778 0)
(-0.0378688 0.0138595 0)
(-0.0413757 0.0127269 0)
(-0.0446756 0.0110619 0)
(-0.0476292 0.00874273 0)
(-0.0500454 0.00566114 0)
(-0.0516733 0.00175019 0)
(-0.0522037 -0.00297556 0)
(-0.0512924 -0.00836833 0)
(-0.0486176 -0.0140941 0)
(-0.0439875 -0.0196006 0)
(-0.0374873 -0.0241566 0)
(-0.0295867 -0.027001 0)
(-0.0211292 -0.0275999 0)
(-0.0131748 -0.0258809 0)
(-0.00670064 -0.0222776 0)
(-0.00221863 -0.0174625 0)
(0.00022043 -0.0118302 0)
(0.00112355 -0.00544046 0)
(0.000418446 0.000765742 0)
(-0.000433186 0.00806161 0)
(-0.00287559 0.0146581 0)
(-0.00582981 0.0171166 0)
(-0.00919038 0.0180021 0)
(-0.012624 0.0183732 0)
(-0.0161473 0.0185987 0)
(-0.019745 0.018772 0)
(-0.0234264 0.018889 0)
(-0.0271958 0.0189087 0)
(-0.0310549 0.0187678 0)
(-0.0349955 0.0183817 0)
(-0.038995 0.0176423 0)
(-0.0430072 0.0164158 0)
(-0.0469503 0.0145435 0)
(-0.0506892 0.0118487 0)
(-0.0540144 0.00815233 0)
(-0.056619 0.00330539 0)
(-0.0580818 -0.00275568 0)
(-0.0578852 -0.00991633 0)
(-0.055502 -0.0177768 0)
(-0.0505802 -0.0255502 0)
(-0.0431498 -0.0320994 0)
(-0.0336933 -0.0362083 0)
(-0.0231355 -0.0369499 0)
(-0.0128803 -0.0340596 0)
(-0.00460359 -0.0282308 0)
(0.000510358 -0.0208488 0)
(0.00239082 -0.0130282 0)
(0.00228661 -0.00501618 0)
(0.000599591 0.00198334 0)
(-0.000418959 0.00956669 0)
(-0.00280604 0.0173932 0)
(-0.00571739 0.020317 0)
(-0.00904414 0.0213859 0)
(-0.0124595 0.0218566 0)
(-0.0159843 0.022169 0)
(-0.0196122 0.0224381 0)
(-0.0233642 0.0226644 0)
(-0.0272603 0.0228057 0)
(-0.0313218 0.0227939 0)
(-0.0355652 0.0225352 0)
(-0.039997 0.021904 0)
(-0.0446035 0.020738 0)
(-0.0493354 0.0188322 0)
(-0.0540825 0.015939 0)
(-0.0586387 0.0117771 0)
(-0.0626588 0.00606407 0)
(-0.0656172 -0.00140551 0)
(-0.0668557 -0.0106052 0)
(-0.0657761 -0.0210332 0)
(-0.0620794 -0.0316016 0)
(-0.0556788 -0.0408619 0)
(-0.0463139 -0.0472683 0)
(-0.0339577 -0.0491926 0)
(-0.019848 -0.0455014 0)
(-0.00679305 -0.0365698 0)
(0.00182301 -0.0248615 0)
(0.00445888 -0.0134273 0)
(0.00346495 -0.00348502 0)
(0.000758319 0.00386126 0)
(-0.000399091 0.0110206 0)
(-0.00270659 0.0200664 0)
(-0.00555115 0.023465 0)
(-0.00881833 0.0247306 0)
(-0.0121899 0.0253179 0)
(-0.0156901 0.0257414 0)
(-0.0193217 0.0261408 0)
(-0.0231184 0.0265254 0)
(-0.0271176 0.0268564 0)
(-0.0313639 0.0270666 0)
(-0.0359042 0.0270585 0)
(-0.0407842 0.0266965 0)
(-0.0460388 0.0257942 0)
(-0.0516749 0.0241014 0)
(-0.0576424 0.0212905 0)
(-0.0637861 0.0169499 0)
(-0.0697862 0.0106164 0)
(-0.0751643 0.00192361 0)
(-0.0795004 -0.00906405 0)
(-0.0828488 -0.021559 0)
(-0.085395 -0.0345063 0)
(-0.0857369 -0.0470576 0)
(-0.0806087 -0.057921 0)
(-0.0677966 -0.0645526 0)
(-0.0478249 -0.0634973 0)
(-0.0245513 -0.0525574 0)
(-0.00494636 -0.0338494 0)
(0.00396201 -0.0149077 0)
(0.0038394 -0.00116841 0)
(0.000766732 0.00626629 0)
(-0.00037368 0.0124067 0)
(-0.00257803 0.0226539 0)
(-0.00533219 0.0265358 0)
(-0.00851318 0.0280105 0)
(-0.0118124 0.0287298 0)
(-0.015256 0.0292861 0)
(-0.018855 0.0298483 0)
(-0.0226555 0.0304388 0)
(-0.0267128 0.031028 0)
(-0.0310967 0.0315571 0)
(-0.0358891 0.031935 0)
(-0.0411839 0.0320274 0)
(-0.0470813 0.0316383 0)
(-0.0536745 0.0304854 0)
(-0.0610236 0.0281694 0)
(-0.0691142 0.0241508 0)
(-0.0778423 0.0178367 0)
(-0.0872642 0.00899258 0)
(-0.0983204 -0.00171462 0)
(-0.112771 -0.0133399 0)
(-0.129531 -0.0265609 0)
(-0.141826 -0.0434767 0)
(-0.143023 -0.0635469 0)
(-0.130905 -0.0813786 0)
(-0.105151 -0.0897853 0)
(-0.0691031 -0.0824459 0)
(-0.0306431 -0.056955 0)
(-0.00396734 -0.0236637 0)
(0.00222577 -0.000165381 0)
(0.000345917 0.00836586 0)
(-0.000342741 0.0137082 0)
(-0.00241997 0.0251317 0)
(-0.00505898 0.0295031 0)
(-0.00812469 0.0311966 0)
(-0.0113186 0.032059 0)
(-0.014666 0.0327645 0)
(-0.0181846 0.033515 0)
(-0.021931 0.0343512 0)
(-0.0259769 0.0352596 0)
(-0.0304165 0.0361986 0)
(-0.0353677 0.0370967 0)
(-0.0409778 0.0378392 0)
(-0.0474261 0.0382452 0)
(-0.0549197 0.0380319 0)
(-0.0636917 0.0367741 0)
(-0.0740212 0.0339017 0)
(-0.0864079 0.0290477 0)
(-0.102464 0.0230854 0)
(-0.125759 0.0179189 0)
(-0.157276 0.0117904 0)
(-0.187717 -0.00349447 0)
(-0.205531 -0.0322887 0)
(-0.209745 -0.0671439 0)
(-0.199947 -0.0996747 0)
(-0.175281 -0.122267 0)
(-0.135243 -0.126128 0)
(-0.0820151 -0.101068 0)
(-0.0275713 -0.0496848 0)
(-0.00194192 -0.00484037 0)
(-0.000408232 0.00965235 0)
(-0.000306563 0.0149086 0)
(-0.00223316 0.0274748 0)
(-0.00473165 0.0323388 0)
(-0.00765105 0.0342565 0)
(-0.0107027 0.0352667 0)
(-0.0139076 0.0361284 0)
(-0.0172874 0.0370813 0)
(-0.0209056 0.038189 0)
(-0.0248463 0.0394605 0)
(-0.0292237 0.0408814 0)
(-0.0341871 0.0424143 0)
(-0.0399343 0.0439873 0)
(-0.0467266 0.0454694 0)
(-0.0548985 0.0466304 0)
(-0.0649203 0.0471254 0)
(-0.0776059 0.0466805 0)
(-0.094602 0.0461321 0)
(-0.1196 0.0486125 0)
(-0.156287 0.0538361 0)
(-0.196981 0.0482318 0)
(-0.224184 0.019014 0)
(-0.236922 -0.0240615 0)
(-0.241857 -0.0701542 0)
(-0.236208 -0.115977 0)
(-0.223469 -0.152352 0)
(-0.195017 -0.174216 0)
(-0.146707 -0.163035 0)
(-0.0750602 -0.108522 0)
(-0.0109675 -0.0272464 0)
(-0.00027828 0.00866385 0)
(-0.000265998 0.0159929 0)
(-0.00202085 0.0296593 0)
(-0.00435453 0.0350148 0)
(-0.00709639 0.0371562 0)
(-0.00996684 0.0383099 0)
(-0.0129789 0.0393228 0)
(-0.016154 0.0404759 0)
(-0.0195575 0.04186 0)
(-0.0232796 0.0435118 0)
(-0.0274455 0.0454525 0)
(-0.0322243 0.0476925 0)
(-0.0378495 0.0502258 0)
(-0.0446505 0.0530116 0)
(-0.0530784 0.0559484 0)
(-0.063882 0.0589804 0)
(-0.0785697 0.062774 0)
(-0.0996628 0.0702179 0)
(-0.130735 0.0840981 0)
(-0.170669 0.0938958 0)
(-0.203251 0.0769766 0)
(-0.217046 0.0331341 0)
(-0.225069 -0.0169291 0)
(-0.227265 -0.0708377 0)
(-0.222812 -0.122096 0)
(-0.220803 -0.165534 0)
(-0.210895 -0.204603 0)
(-0.187609 -0.220071 0)
(-0.127328 -0.188493 0)
(-0.0418357 -0.0783272 0)
(0.00547573 0.00501898 0)
(-0.000222472 0.0169489 0)
(-0.00178942 0.0316637 0)
(-0.00393759 0.0375035 0)
(-0.00647344 0.039861 0)
(-0.00912503 0.0411436 0)
(-0.0118933 0.0422886 0)
(-0.014795 0.0436207 0)
(-0.0178915 0.0452603 0)
(-0.0212702 0.0472747 0)
(-0.0250552 0.0497252 0)
(-0.0294173 0.0526789 0)
(-0.0345978 0.0562116 0)
(-0.040955 0.0604067 0)
(-0.0490028 0.0653797 0)
(-0.0596623 0.0716047 0)
(-0.074755 0.0810542 0)
(-0.0962962 0.097569 0)
(-0.125565 0.119086 0)
(-0.158351 0.125218 0)
(-0.178921 0.0948512 0)
(-0.185531 0.0417416 0)
(-0.193793 -0.012107 0)
(-0.193439 -0.0699464 0)
(-0.186447 -0.121672 0)
(-0.182058 -0.163352 0)
(-0.180214 -0.204919 0)
(-0.180396 -0.242926 0)
(-0.151481 -0.255286 0)
(-0.0954183 -0.174034 0)
(0.0111866 -0.0176033 0)
(-0.00017832 0.01777 0)
(-0.00154942 0.0334733 0)
(-0.00349766 0.0397847 0)
(-0.00580419 0.0423421 0)
(-0.00820338 0.0437269 0)
(-0.0106807 0.0449681 0)
(-0.0132439 0.0464363 0)
(-0.0159437 0.0482817 0)
(-0.0188558 0.0506013 0)
(-0.0220891 0.0534954 0)
(-0.0257942 0.0570873 0)
(-0.0301847 0.0615364 0)
(-0.0355865 0.0670617 0)
(-0.0424804 0.0740396 0)
(-0.0516993 0.0835 0)
(-0.0646917 0.0983234 0)
(-0.08215 0.121768 0)
(-0.104043 0.146388 0)
(-0.127686 0.146857 0)
(-0.142028 0.107587 0)
(-0.150675 0.0507098 0)
(-0.163932 -0.00680233 0)
(-0.166509 -0.0731246 0)
(-0.160386 -0.132165 0)
(-0.150678 -0.172235 0)
(-0.141971 -0.202627 0)
(-0.147524 -0.238106 0)
(-0.139071 -0.282636 0)
(-0.119199 -0.254452 0)
(-0.0040172 -0.0646495 0)
(-0.000136336 0.0184562 0)
(-0.00131469 0.0350802 0)
(-0.00305845 0.0418402 0)
(-0.00512264 0.0445711 0)
(-0.00724455 0.0460204 0)
(-0.00939167 0.0473084 0)
(-0.0115597 0.0488511 0)
(-0.0137844 0.0508257 0)
(-0.0161219 0.053355 0)
(-0.0186526 0.0565708 0)
(-0.0214872 0.0606413 0)
(-0.0247771 0.0657935 0)
(-0.0287492 0.0723558 0)
(-0.0337411 0.0809104 0)
(-0.0402385 0.0928286 0)
(-0.0488505 0.111242 0)
(-0.0592297 0.138488 0)
(-0.0713494 0.164095 0)
(-0.0862492 0.161681 0)
(-0.0979617 0.120119 0)
(-0.109102 0.0629594 0)
(-0.123564 0.000991291 0)
(-0.128181 -0.0739923 0)
(-0.125067 -0.142953 0)
(-0.118766 -0.187899 0)
(-0.106217 -0.211236 0)
(-0.112138 -0.23349 0)
(-0.110359 -0.287415 0)
(-0.114098 -0.304036 0)
(-0.0248567 -0.141769 0)
(-0.000100641 0.0190184 0)
(-0.00110525 0.0364933 0)
(-0.00265187 0.0436748 0)
(-0.00446959 0.0465437 0)
(-0.00629858 0.0480038 0)
(-0.00808882 0.0492705 0)
(-0.00982103 0.0508049 0)
(-0.0115127 0.0528083 0)
(-0.0131957 0.0554205 0)
(-0.0149148 0.0587917 0)
(-0.0167264 0.0631141 0)
(-0.0186998 0.0686496 0)
(-0.0209208 0.075777 0)
(-0.0235046 0.0851488 0)
(-0.0264918 0.0981715 0)
(-0.0295583 0.1177 0)
(-0.0316607 0.14566 0)
(-0.0328808 0.171658 0)
(-0.0376955 0.170676 0)
(-0.0448632 0.131843 0)
(-0.0530817 0.0748529 0)
(-0.0631102 0.00912789 0)
(-0.0681773 -0.0678961 0)
(-0.0683383 -0.142789 0)
(-0.0725852 -0.192708 0)
(-0.0641153 -0.214828 0)
(-0.0758891 -0.225792 0)
(-0.0775358 -0.281813 0)
(-0.0958808 -0.335601 0)
(-0.0221966 -0.218588 0)
(-7.58687e-05 0.0194786 0)
(-0.000943386 0.0377305 0)
(-0.00231833 0.045283 0)
(-0.00390644 0.0482358 0)
(-0.00544212 0.0496497 0)
(-0.00685918 0.0508236 0)
(-0.00812867 0.0522607 0)
(-0.00925099 0.0541804 0)
(-0.010234 0.0567316 0)
(-0.0110855 0.0600684 0)
(-0.0118056 0.0643823 0)
(-0.0123779 0.06993 0)
(-0.0127499 0.0770722 0)
(-0.0128012 0.0863865 0)
(-0.0122015 0.0990228 0)
(-0.00991386 0.117191 0)
(-0.00438299 0.142665 0)
(0.0050895 0.168363 0)
(0.0122401 0.171478 0)
(0.0131204 0.137946 0)
(0.00927407 0.0823298 0)
(0.00471166 0.0144776 0)
(-0.00276341 -0.0632025 0)
(-0.00654935 -0.137189 0)
(-0.0234063 -0.189589 0)
(-0.0224933 -0.212359 0)
(-0.0431957 -0.214658 0)
(-0.045114 -0.265944 0)
(-0.0745092 -0.345033 0)
(-0.0169202 -0.276382 0)
(-6.7511e-05 0.0198737 0)
(-0.000861255 0.0388397 0)
(-0.00210241 0.0467252 0)
(-0.00348047 0.0497051 0)
(-0.00473088 0.0509808 0)
(-0.00577956 0.0519621 0)
(-0.00658291 0.0531933 0)
(-0.00712883 0.054907 0)
(-0.00740511 0.0572494 0)
(-0.00738992 0.0603625 0)
(-0.00703687 0.0644147 0)
(-0.00625933 0.069621 0)
(-0.00490235 0.0762713 0)
(-0.0026819 0.0847809 0)
(0.00096014 0.0958789 0)
(0.00722386 0.110912 0)
(0.0182663 0.131164 0)
(0.0360836 0.153669 0)
(0.0550351 0.161649 0)
(0.0668722 0.136637 0)
(0.0700178 0.0853396 0)
(0.0701342 0.0195499 0)
(0.0588886 -0.0552979 0)
(0.0536749 -0.124253 0)
(0.0258083 -0.173768 0)
(0.0184072 -0.197881 0)
(-0.0168228 -0.200129 0)
(-0.0203626 -0.250282 0)
(-0.0570636 -0.348953 0)
(-0.00922101 -0.323718 0)
(-8.86726e-05 0.0202705 0)
(-0.000900774 0.0398836 0)
(-0.00208535 0.0479847 0)
(-0.00331223 0.050882 0)
(-0.00429908 0.0519606 0)
(-0.00497245 0.0526762 0)
(-0.00530493 0.0536132 0)
(-0.00527696 0.0550112 0)
(-0.00486601 0.0570109 0)
(-0.00402911 0.0597337 0)
(-0.00269038 0.0633101 0)
(-0.00071835 0.0678944 0)
(0.00209834 0.0736723 0)
(0.00610687 0.0808774 0)
(0.0119071 0.0898359 0)
(0.0205743 0.101082 0)
(0.0341102 0.115154 0)
(0.0549849 0.130622 0)
(0.0811351 0.139343 0)
(0.104264 0.124044 0)
(0.114857 0.0827004 0)
(0.121972 0.0239096 0)
(0.10808 -0.0426308 0)
(0.100242 -0.105567 0)
(0.0632652 -0.148962 0)
(0.0497596 -0.172084 0)
(0.00301254 -0.173291 0)
(0.000307649 -0.224384 0)
(-0.045507 -0.342209 0)
(-0.00373931 -0.358801 0)
(-0.000135642 0.0207235 0)
(-0.00109647 0.0409557 0)
(-0.00227931 0.0492487 0)
(-0.00339467 0.0519873 0)
(-0.00414735 0.0526845 0)
(-0.00449189 0.0529898 0)
(-0.00438094 0.0535073 0)
(-0.00381109 0.0544791 0)
(-0.00275816 0.0560233 0)
(-0.00117705 0.0582286 0)
(0.00101914 0.0611802 0)
(0.00397197 0.0649625 0)
(0.00790255 0.0696576 0)
(0.0131479 0.075333 0)
(0.0202268 0.0820298 0)
(0.0299754 0.0897125 0)
(0.0436134 0.0983528 0)
(0.06347 0.106287 0)
(0.0881909 0.11094 0)
(0.117158 0.100928 0)
(0.131598 0.070982 0)
(0.14566 0.0235216 0)
(0.131876 -0.0299011 0)
(0.124534 -0.0829903 0)
(0.0822532 -0.1188 0)
(0.0669954 -0.143072 0)
(0.0121923 -0.147473 0)
(0.011802 -0.204016 0)
(-0.0418415 -0.334744 0)
(0.00140648 -0.388091 0)
(-0.000279331 0.0214642 0)
(-0.00160919 0.0422166 0)
(-0.00298486 0.0503754 0)
(-0.00405995 0.0527018 0)
(-0.00457271 0.0530364 0)
(-0.00451158 0.0528905 0)
(-0.00393099 0.0529372 0)
(-0.00281898 0.0534108 0)
(-0.00116599 0.0544191 0)
(0.00107547 0.0560225 0)
(0.00398613 0.0582594 0)
(0.00769854 0.0611552 0)
(0.012406 0.0647063 0)
(0.018395 0.0688578 0)
(0.0260124 0.0734932 0)
(0.035981 0.0782201 0)
(0.04832 0.0829181 0)
(0.0659271 0.0853641 0)
(0.0843125 0.0856466 0)
(0.111475 0.0763725 0)
(0.12425 0.0556733 0)
(0.141603 0.0197285 0)
(0.128428 -0.0190924 0)
(0.125341 -0.0612923 0)
(0.0826331 -0.0879325 0)
(0.0745368 -0.111121 0)
(0.0149792 -0.113825 0)
(0.0207247 -0.173777 0)
(-0.0411905 -0.319484 0)
(0.00612659 -0.41004 0)
(-0.000428147 0.022399 0)
(-0.00231653 0.0437834 0)
(-0.00383607 0.0518778 0)
(-0.00499863 0.0537244 0)
(-0.00533113 0.0532086 0)
(-0.00501469 0.0523867 0)
(-0.00400311 0.0518161 0)
(-0.00239465 0.0517137 0)
(-0.000188977 0.0521405 0)
(0.00262866 0.0531086 0)
(0.00612505 0.0546198 0)
(0.0104051 0.05664 0)
(0.0156128 0.0591144 0)
(0.0219839 0.061903 0)
(0.0296152 0.0648437 0)
(0.0393331 0.0673446 0)
(0.0498679 0.0694851 0)
(0.0652149 0.0687436 0)
(0.0775364 0.0666597 0)
(0.0995121 0.0570933 0)
(0.106975 0.0429433 0)
(0.123886 0.0160033 0)
(0.110113 -0.0101697 0)
(0.112846 -0.0421344 0)
(0.07071 -0.0607692 0)
(0.071673 -0.0836973 0)
(0.00833335 -0.0850328 0)
(0.0260762 -0.15093 0)
(-0.0444916 -0.308136 0)
(0.0123164 -0.431902 0)
(-0.00100097 0.0246428 0)
(-0.00414813 0.0459525 0)
(-0.00630098 0.0531199 0)
(-0.00727437 0.0538281 0)
(-0.00720997 0.0529119 0)
(-0.00623117 0.0514555 0)
(-0.00466956 0.0503068 0)
(-0.00249332 0.0496251 0)
(0.000242424 0.0494529 0)
(0.00357573 0.0497854 0)
(0.00754473 0.0505779 0)
(0.0122385 0.0517772 0)
(0.0177361 0.0532832 0)
(0.0242526 0.0549209 0)
(0.0315944 0.0565625 0)
(0.0408413 0.0574801 0)
(0.0496005 0.0581168 0)
(0.0629455 0.0557618 0)
(0.0708941 0.0529404 0)
(0.0882283 0.0437019 0)
(0.0901364 0.0340433 0)
(0.10541 0.0137166 0)
(0.0895648 -0.00306442 0)
(0.0981175 -0.0268206 0)
(0.0560487 -0.0380663 0)
(0.0686595 -0.0585509 0)
(0.000749357 -0.059458 0)
(0.0331876 -0.127859 0)
(-0.0480057 -0.292623 0)
(0.0205321 -0.457314 0)
(-0.00135804 0.0269373 0)
(-0.00566809 0.0490274 0)
(-0.00778475 0.0554088 0)
(-0.00951028 0.0550626 0)
(-0.00912684 0.0523203 0)
(-0.0080668 0.0499284 0)
(-0.00596414 0.0480405 0)
(-0.00329595 0.0467467 0)
(-3.34772e-05 0.0460277 0)
(0.00376451 0.0457668 0)
(0.00815183 0.0459529 0)
(0.0131691 0.0464387 0)
(0.018843 0.047175 0)
(0.0254079 0.0479145 0)
(0.0323507 0.048641 0)
(0.0411092 0.0485725 0)
(0.0483554 0.0483778 0)
(0.0600932 0.0455043 0)
(0.0650291 0.0427854 0)
(0.0792979 0.0347088 0)
(0.0770026 0.0282312 0)
(0.0912426 0.0130731 0)
(0.0724821 0.00265931 0)
(0.0863485 -0.014367 0)
(0.0420124 -0.0209476 0)
(0.0668875 -0.0377951 0)
(-0.00727872 -0.0393193 0)
(0.0442711 -0.105377 0)
(-0.0575834 -0.282821 0)
(0.0283613 -0.485597 0)
(-0.00479984 0.0341355 0)
(-0.0120352 0.0523156 0)
(-0.014917 0.0569913 0)
(-0.0147431 0.0534691 0)
(-0.0131422 0.0511917 0)
(-0.0104938 0.0479061 0)
(-0.00757309 0.0455645 0)
(-0.00413026 0.0437631 0)
(-0.000370347 0.0425317 0)
(0.00390267 0.0417336 0)
(0.00860325 0.0413272 0)
(0.0138836 0.0411773 0)
(0.0196188 0.0412496 0)
(0.0261836 0.0412538 0)
(0.0327182 0.0413677 0)
(0.0410221 0.040635 0)
(0.047116 0.0401687 0)
(0.0576271 0.037219 0)
(0.0605202 0.0352316 0)
(0.0730395 0.0286232 0)
(0.0678329 0.0246131 0)
(0.0820811 0.0138006 0)
(0.0605988 0.00772266 0)
(0.0792599 -0.00337369 0)
(0.0320222 -0.0076875 0)
(0.0674924 -0.0187752 0)
(-0.0140087 -0.0267663 0)
(0.0597235 -0.0819393 0)
(-0.0691474 -0.264276 0)
(0.0409383 -0.497207 0)
(-0.00217479 0.0419117 0)
(-0.0144315 0.0584791 0)
(-0.0144362 0.0597812 0)
(-0.0183135 0.0541498 0)
(-0.014894 0.0488226 0)
(-0.0132315 0.0444282 0)
(-0.00916563 0.0416907 0)
(-0.00533126 0.0392436 0)
(-0.000821884 0.0378421 0)
(0.0039176 0.0364951 0)
(0.00910918 0.0358773 0)
(0.0147667 0.0351079 0)
(0.0206436 0.0349295 0)
(0.0274593 0.034304 0)
(0.0336325 0.0342093 0)
(0.0419715 0.0331222 0)
(0.0470564 0.0326693 0)
(0.0573549 0.0302348 0)
(0.05847 0.0287822 0)
(0.0711007 0.0244485 0)
(0.0634543 0.0215822 0)
(0.0797159 0.015557 0)
(0.0558159 0.0108884 0)
(0.0804227 0.0062645 0)
(0.0310964 0.00048943 0)
(0.0768316 -0.00189562 0)
(-0.00970047 -0.0214911 0)
(0.083324 -0.0566155 0)
(-0.057878 -0.236978 0)
(0.0676057 -0.491952 0)
(-0.0295591 0.0623167 0)
(-0.0333975 0.0577011 0)
(-0.0304134 0.0611078 0)
(-0.0246364 0.0477678 0)
(-0.0166658 0.045808 0)
(-0.0101787 0.040569 0)
(-0.0043699 0.0378177 0)
(0.0019332 0.0354057 0)
(0.00696077 0.0336292 0)
(0.0133886 0.0319855 0)
(0.01854 0.030902 0)
(0.0256008 0.0296192 0)
(0.0309811 0.0290766 0)
(0.0391075 0.0278184 0)
(0.0442179 0.0276631 0)
(0.0540269 0.0260177 0)
(0.0572723 0.0260867 0)
(0.0696995 0.0235405 0)
(0.0680053 0.0235299 0)
(0.0844017 0.0199526 0)
(0.0730102 0.0195087 0)
(0.096153 0.0157074 0)
(0.0678826 0.0137652 0)
(0.104209 0.0125027 0)
(0.0498496 0.0066146 0)
(0.11347 0.0098376 0)
(0.0213102 -0.0196184 0)
(0.126757 -0.0516107 0)
(-0.00704001 -0.230865 0)
(0.114138 -0.502479 0)
(0.0172591 0.0941646 0)
(-0.0167126 0.0503404 0)
(0.0151212 0.053112 0)
(0.00538668 0.041046 0)
(0.0192124 0.0354831 0)
(0.0234392 0.0306178 0)
(0.0331326 0.0289176 0)
(0.0412954 0.0259736 0)
(0.0497051 0.0252854 0)
(0.0602859 0.0227135 0)
(0.0671489 0.0228629 0)
(0.0803828 0.0204528 0)
(0.0846936 0.0210505 0)
(0.101541 0.0187689 0)
(0.101806 0.0194607 0)
(0.123749 0.0175055 0)
(0.117622 0.0177206 0)
(0.146841 0.0165143 0)
(0.130734 0.0153818 0)
(0.170275 0.0157528 0)
(0.139136 0.0121053 0)
(0.193651 0.015406 0)
(0.140821 0.00773817 0)
(0.217505 0.0153238 0)
(0.134822 0.00230685 0)
(0.242778 0.0113857 0)
(0.118633 -0.0167988 0)
(0.254701 -0.0646055 0)
(0.0655933 -0.223316 0)
(0.177877 -0.462392 0)
(0.0746336 0.0596969 0)
(0.101532 0.0497179 0)
(0.164898 0.0372025 0)
(0.216677 0.0325715 0)
(0.237906 0.0271248 0)
(0.286199 0.0233365 0)
(0.293516 0.0199963 0)
(0.340702 0.0178007 0)
(0.336254 0.0153792 0)
(0.386242 0.014075 0)
(0.370973 0.0121763 0)
(0.426099 0.0114961 0)
(0.399727 0.00988412 0)
(0.462131 0.00963614 0)
(0.423808 0.00818832 0)
(0.495539 0.00822887 0)
(0.443857 0.00691172 0)
(0.527059 0.00707132 0)
(0.460048 0.00594605 0)
(0.557083 0.00599837 0)
(0.472125 0.00525301 0)
(0.585854 0.00482746 0)
(0.479667 0.00483907 0)
(0.613832 0.00317407 0)
(0.48252 0.00472722 0)
(0.639704 6.77298e-05 0)
(0.468297 0.00291171 0)
(0.619024 -0.016816 0)
(0.313581 -0.0333851 0)
(0.396883 -0.0966503 0)
)
;

boundaryField
{
    movingWall
    {
        type            fixedValue;
        value           uniform (1 0 0);
    }
    fixedWalls
    {
        type            noSlip;
    }
    frontAndBack
    {
        type            empty;
    }
}


// ************************************************************************* //
