/*--------------------------------*- C++ -*----------------------------------*\
| =========                 |                                                 |
| \\      /  F ield         | OpenFOAM: The Open Source CFD Toolbox           |
|  \\    /   O peration     | Version:  2406                                  |
|   \\  /    A nd           | Website:  www.openfoam.com                      |
|    \\/     M anipulation  |                                                 |
\*---------------------------------------------------------------------------*/
FoamFile
{
    version     2.0;
    format      ascii;
    arch        "LSB;label=32;scalar=64";
    class       surfaceScalarField;
    location    "37.4";
    object      phi_0;
}
// * * * * * * * * * * * * * * * * * * * * * * * * * * * * * * * * * * * * * //

dimensions      [0 3 -1 0 0 0 0];

oriented        oriented;

internalField   nonuniform List<scalar> 
7080
(
4.51465e-07
-4.51467e-07
1.72424e-06
-1.27277e-06
3.49346e-06
-1.76923e-06
5.29239e-06
-1.79893e-06
6.80203e-06
-1.50964e-06
7.87691e-06
-1.07488e-06
8.52273e-06
-6.45815e-07
8.83471e-06
-3.11981e-07
8.92127e-06
-8.65595e-08
8.85874e-06
6.25301e-08
8.66374e-06
1.94996e-07
8.28181e-06
3.81927e-07
7.61119e-06
6.70622e-07
6.5223e-06
1.08889e-06
4.87242e-06
1.64988e-06
2.51299e-06
2.35943e-06
-7.05099e-07
3.21808e-06
-4.92359e-06
4.21849e-06
-1.02644e-05
5.3408e-06
-1.68107e-05
6.54627e-06
-2.45839e-05
7.77325e-06
-3.35218e-05
8.93785e-06
-4.34588e-05
9.93704e-06
-5.41123e-05
1.06535e-05
-6.50784e-05
1.09661e-05
-7.58448e-05
1.07664e-05
-8.58202e-05
9.97547e-06
-9.43881e-05
8.56785e-06
-0.000100921
6.5332e-06
-0.000104859
3.93758e-06
-0.000105689
8.30178e-07
-0.000103165
-2.52372e-06
-9.71211e-05
-6.04421e-06
-8.75801e-05
-9.54105e-06
-7.47955e-05
-1.27846e-05
-5.92495e-05
-1.5546e-05
-4.16543e-05
-1.75952e-05
-2.29298e-05
-1.87246e-05
-4.1509e-06
-1.87788e-05
1.35375e-05
-1.76884e-05
2.90349e-05
-1.54975e-05
4.14159e-05
-1.2381e-05
5.00551e-05
-8.63923e-06
5.47197e-05
-4.66463e-06
5.56307e-05
-9.10982e-07
5.32489e-05
2.38182e-06
4.84399e-05
4.80897e-06
4.21577e-05
6.28228e-06
3.52853e-05
6.87236e-06
2.8509e-05
6.77633e-06
2.23021e-05
6.20689e-06
1.69163e-05
5.38577e-06
1.24265e-05
4.48978e-06
8.78891e-06
3.63762e-06
5.896e-06
2.89291e-06
3.62525e-06
2.27075e-06
1.88816e-06
1.7371e-06
6.72505e-07
1.21565e-06
6.43994e-08
6.08105e-07
6.43994e-08
1.2281e-06
-1.67956e-06
4.14879e-06
-4.19347e-06
7.86374e-06
-5.48417e-06
1.15159e-05
-5.45112e-06
1.44909e-05
-4.4846e-06
1.64851e-05
-3.06907e-06
1.74553e-05
-1.61606e-06
1.75107e-05
-3.67334e-07
1.67919e-05
6.3224e-07
1.53627e-05
1.49174e-06
1.31527e-05
2.40501e-06
9.96117e-06
3.57341e-06
5.48605e-06
5.14574e-06
-6.2812e-07
7.20306e-06
-8.74914e-06
9.77091e-06
-1.92224e-05
1.28327e-05
-3.23317e-05
1.63274e-05
-4.82455e-05
2.01323e-05
-6.69543e-05
2.40496e-05
-8.81947e-05
2.77867e-05
-0.000111406
3.09848e-05
-0.000135748
3.32795e-05
-0.00016018
3.43691e-05
-0.000183586
3.40596e-05
-0.000204896
3.22763e-05
-0.000223175
2.90455e-05
-0.000237666
2.44662e-05
-0.000247785
1.86867e-05
-0.000253132
1.18806e-05
-0.000253471
4.27578e-06
-0.000248687
-3.95293e-06
-0.00023869
-1.2521e-05
-0.000223673
-2.10617e-05
-0.000203923
-2.92909e-05
-0.000179874
-3.68337e-05
-0.000152139
-4.32806e-05
-0.000121533
-4.82015e-05
-8.90681e-05
-5.11892e-05
-5.59401e-05
-5.19068e-05
-2.3479e-05
-5.01494e-05
6.9273e-06
-4.59038e-05
3.394e-05
-3.93937e-05
5.63894e-05
-3.10886e-05
7.33981e-05
-2.16734e-05
8.44471e-05
-1.196e-05
8.95918e-05
-2.76282e-06
8.92657e-05
5.13509e-06
8.43348e-05
1.12131e-05
7.59896e-05
1.52176e-05
6.55833e-05
1.71827e-05
5.43881e-05
1.74021e-05
4.3434e-05
1.63399e-05
3.34148e-05
1.4509e-05
2.46892e-05
1.23632e-05
1.73524e-05
1.02297e-05
1.13433e-05
8.27989e-06
6.56507e-06
6.51531e-06
2.99933e-06
4.78138e-06
7.67644e-07
2.8398e-06
8.32043e-07
1.79505e-06
-3.47461e-06
5.66651e-06
-8.06493e-06
1.02672e-05
-1.00849e-05
1.45281e-05
-9.71206e-06
1.77242e-05
-7.68065e-06
1.94917e-05
-4.83654e-06
1.97422e-05
-1.86664e-06
1.85231e-05
8.51843e-07
1.58745e-05
3.28078e-06
1.1714e-05
5.65222e-06
5.78576e-06
8.33328e-06
-2.32205e-06
1.16812e-05
-1.31165e-05
1.59402e-05
-2.71207e-05
2.12072e-05
-4.47891e-05
2.74394e-05
-6.64098e-05
3.44534e-05
-9.19812e-05
4.18988e-05
-0.000121089
4.92402e-05
-0.00015285
5.5811e-05
-0.000186006
6.09421e-05
-0.000219127
6.41059e-05
-0.000250845
6.49972e-05
-0.000280005
6.35297e-05
-0.000305729
5.97835e-05
-0.000327396
5.39434e-05
-0.0003446
4.62486e-05
-0.000357088
3.69547e-05
-0.000364714
2.63122e-05
-0.000367409
1.45756e-05
-0.000365142
2.00918e-06
-0.000357933
-1.11619e-05
-0.000345816
-2.46375e-05
-0.000328827
-3.80516e-05
-0.000307109
-5.10084e-05
-0.000280906
-6.30365e-05
-0.000250597
-7.35895e-05
-0.00021674
-8.20586e-05
-0.000180103
-8.78263e-05
-0.00014168
-9.03303e-05
-0.000102671
-8.91581e-05
-6.4432e-05
-8.41428e-05
-2.83787e-05
-7.5447e-05
4.13383e-06
-6.36011e-05
3.19329e-05
-4.94724e-05
5.41369e-05
-3.4164e-05
7.02482e-05
-1.88741e-05
8.01458e-05
-4.76254e-06
8.40648e-05
7.29415e-06
8.26578e-05
1.66245e-05
7.69433e-05
2.28972e-05
6.81725e-05
2.61728e-05
5.76703e-05
2.68421e-05
4.66371e-05
2.55422e-05
3.59961e-05
2.30042e-05
2.63342e-05
1.98916e-05
1.79438e-05
1.66703e-05
1.09406e-05
1.35185e-05
5.41693e-06
1.03051e-05
1.59237e-06
6.66436e-06
2.42441e-06
2.12149e-06
-5.5961e-06
6.43894e-06
-1.23824e-05
1.12119e-05
-1.48578e-05
1.51878e-05
-1.36881e-05
1.75983e-05
-1.00911e-05
1.80817e-05
-5.31991e-06
1.65247e-05
-3.09592e-07
1.28755e-05
4.50104e-06
6.9938e-06
9.16244e-06
-1.44462e-06
1.40906e-05
-1.29527e-05
1.98413e-05
-2.81571e-05
2.68856e-05
-4.7674e-05
3.54571e-05
-7.19584e-05
4.54916e-05
-0.000101127
5.66076e-05
-0.000134774
6.81007e-05
-0.000171886
7.90109e-05
-0.000210957
8.83114e-05
-0.000250293
9.51465e-05
-0.000288334
9.89829e-05
-0.000323854
9.96267e-05
-0.000356008
9.71507e-05
-0.000384274
9.17961e-05
-0.000408376
8.38853e-05
-0.000428192
7.37593e-05
-0.000443687
6.17432e-05
-0.000454861
4.81293e-05
-0.00046172
3.31707e-05
-0.000464235
1.70911e-05
-0.000462386
1.60319e-07
-0.000456083
-1.7465e-05
-0.000445281
-3.54398e-05
-0.000429873
-5.34594e-05
-0.000409777
-7.11046e-05
-0.000384981
-8.78324e-05
-0.000355576
-0.000102995
-0.00032181
-0.000115824
-0.000284154
-0.000125483
-0.000243346
-0.000131138
-0.000200428
-0.000132076
-0.00015672
-0.00012785
-0.000113748
-0.000118419
-7.30964e-05
-0.000104253
-3.62312e-05
-8.63376e-05
-4.32932e-06
-6.60659e-05
2.18191e-05
-4.50225e-05
4.17939e-05
-2.47373e-05
5.55585e-05
-6.47048e-06
6.33619e-05
8.82108e-06
6.5723e-05
2.05362e-05
6.34628e-05
2.8433e-05
5.76563e-05
3.26486e-05
4.95141e-05
3.36844e-05
4.02089e-05
3.23094e-05
3.0717e-05
2.93835e-05
2.17405e-05
2.56468e-05
1.3739e-05
2.152e-05
7.06401e-06
1.698e-05
2.17093e-06
1.15574e-05
4.59534e-06
2.30323e-06
-7.89933e-06
6.64653e-06
-1.67257e-05
1.09452e-05
-1.91564e-05
1.38204e-05
-1.65633e-05
1.45189e-05
-1.07896e-05
1.27157e-05
-3.51674e-06
8.26054e-06
4.14555e-06
9.55139e-07
1.18064e-05
-9.59337e-06
1.9711e-05
-2.39943e-05
2.84915e-05
-4.29788e-05
3.88258e-05
-6.72114e-05
5.11183e-05
-9.70541e-05
6.52998e-05
-0.000132322
8.07591e-05
-0.000172113
9.63992e-05
-0.000214864
0.000110852
-0.000258668
0.000122814
-0.0003017
0.000131343
-0.000342521
0.000135967
-0.000380162
0.000136625
-0.000414072
0.000133536
-0.000443995
0.000127074
-0.000469866
0.000117667
-0.00049172
0.00010574
-0.000509642
9.16806e-05
-0.000523727
7.58283e-05
-0.000534064
5.84671e-05
-0.000540724
3.98298e-05
-0.00054374
2.01079e-05
-0.000543035
-5.44819e-07
-0.000538647
-2.18535e-05
-0.000530393
-4.36931e-05
-0.000518088
-6.57645e-05
-0.000501499
-8.76942e-05
-0.000480361
-0.00010897
-0.000454438
-0.000128918
-0.000423573
-0.000146689
-0.000387782
-0.000161274
-0.000347355
-0.000171565
-0.000302959
-0.000176473
-0.000255702
-0.000175106
-0.000207137
-0.000166984
-0.000159144
-0.000152246
-0.000113707
-0.000131775
-7.26105e-05
-0.000107162
-3.71645e-05
-8.04686e-05
-8.0745e-06
-5.38273e-05
1.45128e-05
-2.90578e-05
3.07966e-05
-7.46269e-06
4.11724e-05
1.01604e-05
4.6189e-05
2.34163e-05
4.65874e-05
3.22502e-05
4.33136e-05
3.69582e-05
3.74493e-05
3.81736e-05
3.00769e-05
3.67559e-05
2.21496e-05
3.35741e-05
1.44384e-05
2.92313e-05
7.60178e-06
2.38166e-05
2.37944e-06
1.67798e-05
6.97478e-06
2.34238e-06
-1.02417e-05
6.27261e-06
-2.06559e-05
9.42395e-06
-2.23077e-05
1.03881e-05
-1.75275e-05
8.48685e-06
-8.88833e-06
3.43685e-06
1.53326e-06
-4.99116e-06
1.25736e-05
-1.72071e-05
2.40224e-05
-3.38758e-05
3.63796e-05
-5.5806e-05
5.04217e-05
-8.3688e-05
6.67079e-05
-0.000117762
8.51918e-05
-0.000157524
0.000105063
-0.000201632
0.000124866
-0.000248112
0.000142879
-0.000294836
0.000157576
-0.000339979
0.000167957
-0.000382244
0.000173608
-0.000420852
0.000174576
-0.000455424
0.000171196
-0.000485842
0.000163954
-0.00051215
0.000153383
-0.000534491
0.000140007
-0.000553061
0.00012431
-0.000568088
0.000106707
-0.000579803
8.75427e-05
-0.000588422
6.70864e-05
-0.00059414
4.5548e-05
-0.000597112
2.30795e-05
-0.000597323
-3.33809e-07
-0.000594915
-2.4261e-05
-0.000589708
-4.89005e-05
-0.000581481
-7.39918e-05
-0.000569912
-9.92626e-05
-0.000554549
-0.000124333
-0.000534849
-0.000148618
-0.00051022
-0.000171318
-0.000480119
-0.000191375
-0.000444174
-0.00020751
-0.000402359
-0.000218288
-0.00035517
-0.000222295
-0.000303776
-0.000218378
-0.000250056
-0.000205966
-0.000196461
-0.00018537
-0.000145666
-0.000157957
-0.000100059
-0.000126076
-6.12566e-05
-9.26295e-05
-2.98878e-05
-6.04266e-05
-5.76392e-06
-3.15866e-05
1.17204e-05
-7.32392e-06
2.32672e-05
1.18695e-05
2.95824e-05
2.59351e-05
3.14368e-05
3.51038e-05
2.97263e-05
3.98841e-05
2.5448e-05
4.10342e-05
1.96162e-05
3.94059e-05
1.31861e-05
3.56613e-05
7.06297e-06
2.99398e-05
2.22142e-06
2.16213e-05
9.1962e-06
2.18424e-06
-1.24259e-05
5.16669e-06
-2.36384e-05
6.43761e-06
-2.35786e-05
4.68113e-06
-1.5771e-05
-6.59335e-07
-3.54787e-06
-9.85611e-06
1.073e-05
-2.32778e-05
2.59952e-05
-4.15655e-05
4.23101e-05
-6.55492e-05
6.03633e-05
-9.59313e-05
8.08038e-05
-0.000132861
0.000103638
-0.000175598
0.000127928
-0.00022247
0.000151935
-0.000271222
0.000173619
-0.000319583
0.00019124
-0.000365718
0.000203712
-0.0004084
0.000210639
-0.000446929
0.000212137
-0.000480994
0.00020864
-0.000510543
0.000200746
-0.000535704
0.000189116
-0.000556729
0.000174407
-0.00057395
0.000157229
-0.000587751
0.000138111
-0.000598531
0.000117488
-0.000606681
9.56917e-05
-0.000612554
7.29595e-05
-0.000616458
4.9452e-05
-0.000618635
2.52564e-05
-0.000619274
3.05829e-07
-0.000618411
-2.51237e-05
-0.000616038
-5.1274e-05
-0.000611994
-7.80353e-05
-0.000605963
-0.000105294
-0.000597452
-0.000132845
-0.000585772
-0.000160298
-0.000570049
-0.00018704
-0.000549267
-0.000212157
-0.000522376
-0.000234401
-0.000488469
-0.000252195
-0.000447041
-0.000263723
-0.000398279
-0.00026714
-0.00034334
-0.000260905
-0.000284478
-0.000244232
-0.000224901
-0.000217533
-0.000168273
-0.000182704
-0.000117893
-0.00014301
-7.58857e-05
-0.000102434
-4.28347e-05
-6.46376e-05
-1.81025e-05
-3.20561e-05
-5.39232e-07
-5.69377e-06
1.0978e-05
1.44179e-05
1.74071e-05
2.86748e-05
1.96339e-05
3.76573e-05
1.85801e-05
4.20879e-05
1.52318e-05
4.27542e-05
1.06131e-05
4.02801e-05
5.7701e-06
3.47827e-05
1.80739e-06
2.5584e-05
1.10036e-05
1.742e-06
-1.41679e-05
3.12859e-06
-2.5025e-05
1.74983e-06
-2.21999e-05
-3.48623e-06
-1.05349e-05
-1.30165e-05
5.98237e-06
-2.71502e-05
2.48638e-05
-4.64233e-05
4.52683e-05
-7.16088e-05
6.74956e-05
-0.0001034
9.21548e-05
-0.000141915
0.000119318
-0.000186292
0.000148015
-0.000234667
0.000176303
-0.000284587
0.000201855
-0.000333645
0.000222677
-0.000379946
0.00023754
-0.000422237
0.000246004
-0.000459817
0.000248219
-0.000492389
0.000244709
-0.000519952
0.000236203
-0.000542728
0.000223522
-0.000561103
0.000207491
-0.00057557
0.000188875
-0.000586679
0.000168337
-0.000594984
0.000146416
-0.000601011
0.000123515
-0.000605236
9.99164e-05
-0.00060807
7.5794e-05
-0.000609852
5.12334e-05
-0.00061084
2.62442e-05
-0.000611334
8.0005e-07
-0.000611321
-2.51363e-05
-0.000610933
-5.16626e-05
-0.000610123
-7.88447e-05
-0.000608702
-0.000106716
-0.000606311
-0.000135235
-0.000602359
-0.000164251
-0.00059598
-0.000193419
-0.000586004
-0.000222133
-0.000570989
-0.000249417
-0.000549319
-0.000273865
-0.000519437
-0.000293604
-0.000480193
-0.000306384
-0.000431287
-0.000309811
-0.000373727
-0.000301792
-0.000310118
-0.000281142
-0.000244562
-0.00024826
-0.000181978
-0.000205593
-0.000126879
-0.000157533
-8.20651e-05
-0.000109451
-4.80442e-05
-6.6077e-05
-2.3591e-05
-3.0147e-05
-6.89367e-06
-2.27946e-06
3.66175e-06
1.81193e-05
9.33685e-06
3.19822e-05
1.11904e-05
4.02344e-05
1.02386e-05
4.3706e-05
7.53436e-06
4.29843e-05
4.17812e-06
3.8139e-05
1.29864e-06
2.84635e-05
1.23022e-05
9.11301e-07
-1.50792e-05
1.11594e-08
-2.41248e-05
-4.74653e-06
-1.74422e-05
-1.41241e-05
-1.15736e-06
-2.84478e-05
2.03061e-05
-4.81058e-05
4.45218e-05
-7.37346e-05
7.08971e-05
-0.000105981
9.97421e-05
-0.000144981
0.000131154
-0.000189877
0.000164215
-0.00023874
0.000196878
-0.000288993
0.000226555
-0.000338083
0.000250945
-0.000383989
0.000268584
-0.000425369
0.00027892
-0.000461466
0.000282101
-0.000491982
0.000278735
-0.000516978
0.000269704
-0.000536794
0.000256019
-0.000551976
0.000238704
-0.000563192
0.000218707
-0.000571153
0.000196835
-0.000576546
0.00017373
-0.000579992
0.000149862
-0.000582023
0.000125547
-0.000583079
0.000100972
-0.000583512
7.62268e-05
-0.000583597
5.13184e-05
-0.000583559
2.62063e-05
-0.000583625
8.66316e-07
-0.000583858
-2.4904e-05
-0.0005844
-5.11199e-05
-0.000585321
-7.79239e-05
-0.000586605
-0.000105432
-0.000588122
-0.000133718
-0.000589557
-0.000162815
-0.000590337
-0.00019264
-0.000589531
-0.000222938
-0.000585786
-0.000253162
-0.000577299
-0.000282352
-0.000561909
-0.000308995
-0.000537341
-0.000330952
-0.000501656
-0.000345497
-0.000453873
-0.000349575
-0.000394673
-0.000340343
-0.000326926
-0.000316007
-0.000255711
-0.000276808
-0.000187449
-0.000225796
-0.000128119
-0.000168781
-8.12797e-05
-0.000112916
-4.72181e-05
-6.42085e-05
-2.3935e-05
-2.55625e-05
-8.87618e-06
3.06047e-06
7.68553e-08
2.30292e-05
4.50021e-06
3.5811e-05
5.65327e-06
4.2553e-05
4.68257e-06
4.3955e-05
2.71568e-06
4.01059e-05
8.47408e-07
3.03318e-05
1.31496e-05
-3.89682e-07
-1.46896e-05
-4.28311e-06
-2.02314e-05
-1.30079e-05
-8.71745e-06
-2.69897e-05
1.28245e-05
-4.64791e-05
3.97955e-05
-7.19107e-05
6.99534e-05
-0.000103829
0.000102815
-0.000142408
0.000138321
-0.0001869
0.000175646
-0.000235439
0.000212754
-0.000285399
0.000246839
-0.000334086
0.000275242
-0.000379306
0.000296165
-0.000419574
0.000308852
-0.00045405
0.000313397
-0.000482428
0.000310479
-0.000504836
0.000301143
-0.000521753
0.00028662
-0.000533896
0.000268162
-0.000542111
0.000246919
-0.000547258
0.000223854
-0.000550133
0.00019971
-0.000551416
0.000175014
-0.000551654
0.0001501
-0.000551264
0.000125156
-0.000550551
0.000100259
-0.000549736
7.5412e-05
-0.000548984
5.05658e-05
-0.000548429
2.56521e-05
-0.000548185
6.21671e-07
-0.000548364
-2.47249e-05
-0.000549082
-5.04014e-05
-0.000550459
-7.6547e-05
-0.000552606
-0.000103285
-0.000555588
-0.000130736
-0.000559385
-0.000159018
-0.000563806
-0.000188219
-0.000568391
-0.000218353
-0.000572273
-0.00024928
-0.00057405
-0.000280575
-0.00057169
-0.000311354
-0.000562564
-0.000340077
-0.000543685
-0.000364376
-0.000512232
-0.000381028
-0.000466372
-0.000386202
-0.000406271
-0.000376108
-0.000334964
-0.000348115
-0.000258579
-0.000302181
-0.000185269
-0.000242092
-0.000122677
-0.000175508
-7.50292e-05
-0.000111856
-4.20757e-05
-5.85161e-05
-2.08272e-05
-1.81881e-05
-7.98049e-06
1.01825e-05
-9.67497e-07
2.8798e-05
2.06367e-06
3.95218e-05
2.53978e-06
4.34789e-05
1.67821e-06
4.09674e-05
5.56843e-07
3.14532e-05
1.37065e-05
-2.1336e-06
-1.2556e-05
-9.61365e-06
-1.27514e-05
-2.2729e-05
4.3979e-06
-4.15429e-05
3.16383e-05
-6.62602e-05
6.45129e-05
-9.72496e-05
0.000100943
-0.000134702
0.000140268
-0.000178046
0.000181665
-0.000225602
0.000223202
-0.000274797
0.000261948
-0.000322823
0.000294865
-0.000367291
0.00031971
-0.00040653
0.000335404
-0.000439589
0.00034191
-0.000466131
0.000339939
-0.000486347
0.000330695
-0.000500849
0.000315645
-0.000510522
0.000296294
-0.000516379
0.000274019
-0.000519416
0.000249956
-0.000520514
0.000224952
-0.000520389
0.000199585
-0.000519574
0.000174199
-0.00051844
0.000148966
-0.000517224
0.000123941
-0.000516071
9.91056e-05
-0.000515061
7.44028e-05
-0.000514252
4.97567e-05
-0.00051369
2.50897e-05
-0.000513409
3.40983e-07
-0.000513511
-2.46236e-05
-0.000514082
-4.98299e-05
-0.00051525
-7.53789e-05
-0.00051717
-0.000101365
-0.000520009
-0.000127897
-0.000523922
-0.000155105
-0.000529006
-0.000183135
-0.000535223
-0.000212136
-0.000542277
-0.000242226
-0.000549452
-0.000273401
-0.000555412
-0.000305394
-0.000558036
-0.000337454
-0.000554347
-0.000368064
-0.000540713
-0.000394663
-0.000513408
-0.000413507
-0.00046964
-0.000419876
-0.000408918
-0.000408837
-0.000334386
-0.000376713
-0.000253348
-0.000323129
-0.000175946
-0.000252911
-0.000111569
-0.000176232
-6.47529e-05
-0.000105333
-3.41862e-05
-4.87548e-05
-1.57283e-05
-8.27546e-06
-5.44482e-06
1.85146e-05
-4.52361e-07
3.45293e-05
1.26339e-06
4.17632e-05
1.18151e-06
4.10493e-05
4.66782e-07
3.21679e-05
1.41733e-05
-4.3051e-06
-8.25085e-06
-1.57518e-05
-1.30462e-06
-3.34008e-05
2.20469e-05
-5.69834e-05
5.52209e-05
-8.66176e-05
9.41472e-05
-0.000122436
0.000136761
-0.000164056
0.000181887
-0.000210085
0.000227694
-0.000258129
0.000271246
-0.000305343
0.000309162
-0.00034914
0.000338662
-0.000387628
0.000358198
-0.000419699
0.000367475
-0.000444954
0.000367165
-0.000463611
0.000358596
-0.000476387
0.000343471
-0.000484315
0.000323573
-0.000488558
0.000300536
-0.000490231
0.000275692
-0.000490288
0.000250012
-0.000489464
0.000224128
-0.000488269
0.000198391
-0.000487022
0.000172952
-0.000485891
0.000147835
-0.000484945
0.000122994
-0.000484192
9.83525e-05
-0.000483615
7.38259e-05
-0.000483196
4.93379e-05
-0.000482928
2.48216e-05
-0.000482811
2.24161e-07
-0.000482911
-2.45232e-05
-0.000483294
-4.94473e-05
-0.00048407
-7.46028e-05
-0.000485389
-0.000100046
-0.000487434
-0.000125852
-0.000490422
-0.000152118
-0.000494577
-0.000178979
-0.000500103
-0.000206611
-0.000507099
-0.00023523
-0.000515443
-0.000265056
-0.0005246
-0.000296237
-0.000533371
-0.000328683
-0.000539635
-0.0003618
-0.000540182
-0.000394116
-0.000530819
-0.00042287
-0.000506953
-0.000443742
-0.000464801
-0.000450989
-0.00040318
-0.000438334
-0.000325407
-0.000400902
-0.000240221
-0.000338097
-0.000160058
-0.000256396
-9.59322e-05
-0.000169458
-5.19111e-05
-9.27758e-05
-2.49756e-05
-3.5211e-05
-9.8839e-06
3.42293e-06
-2.33106e-06
2.69765e-05
6.77762e-07
3.87543e-05
1.15995e-06
4.05671e-05
5.57324e-07
3.27705e-05
1.47306e-05
-6.76835e-06
-1.4825e-06
-2.23103e-05
1.42373e-05
-4.43559e-05
4.40925e-05
-7.23341e-05
8.31991e-05
-0.000106197
0.00012801
-0.000145682
0.000176246
-0.000189736
0.000225942
-0.000236278
0.000274236
-0.000282546
0.000317515
-0.0003258
0.000352416
-0.000363901
0.000376762
-0.000395529
0.000389826
-0.000420163
0.00039211
-0.000437994
0.000384995
-0.000449791
0.000370394
-0.000456702
0.000350382
-0.000460018
0.000326888
-0.000460962
0.000301481
-0.000460555
0.000275285
-0.000459551
0.000249009
-0.000458441
0.000223017
-0.000457493
0.000197443
-0.000456817
0.000172276
-0.000456418
0.000147436
-0.000456247
0.000122823
-0.000456233
9.83387e-05
-0.00045631
7.39034e-05
-0.000456429
4.94561e-05
-0.000456559
2.49524e-05
-0.000456695
3.59447e-07
-0.000456874
-2.43443e-05
-0.000457146
-4.91751e-05
-0.000457597
-7.41512e-05
-0.000458349
-9.92948e-05
-0.000459558
-0.000124643
-0.000461424
-0.000150252
-0.000464189
-0.000176214
-0.000468128
-0.000202672
-0.000473527
-0.000229831
-0.00048061
-0.000257973
-0.000489419
-0.000287429
-0.000499596
-0.000318505
-0.000510096
-0.000351301
-0.000518829
-0.000385382
-0.000522397
-0.000419301
-0.000516103
-0.000450037
-0.000494533
-0.000472559
-0.000452962
-0.000479905
-0.000389616
-0.000464248
-0.000308254
-0.000419458
-0.000219522
-0.000345128
-0.000138481
-0.0002505
-7.72216e-05
-0.000154035
-3.80582e-05
-7.43744e-05
-1.57763e-05
-1.8859e-05
-4.43081e-06
1.5631e-05
3.24527e-07
3.3999e-05
1.39662e-06
3.9495e-05
7.60464e-07
3.34067e-05
1.54911e-05
-9.33594e-06
7.85344e-06
-2.88203e-05
3.37217e-05
-5.4852e-05
7.01242e-05
-8.65686e-05
0.000114916
-0.000123667
0.000165108
-0.000165395
0.000217973
-0.000210087
0.000270634
-0.000255223
0.000319372
-0.000298012
0.000360303
-0.000336068
0.000390473
-0.000367806
0.0004085
-0.000392509
0.000414528
-0.00041026
0.000409861
-0.000421814
0.00039655
-0.000428382
0.000376962
-0.000431356
0.000353356
-0.000432063
0.000327595
-0.000431594
0.000301012
-0.000430734
0.000274425
-0.000429965
0.00024824
-0.000429522
0.000222575
-0.000429468
0.000197389
-0.000429758
0.000172566
-0.0004303
0.000147978
-0.000430987
0.000123509
-0.000431721
9.90724e-05
-0.000432424
7.46068e-05
-0.000433045
5.00766e-05
-0.000433555
2.54627e-05
-0.000433952
7.5637e-07
-0.000434259
-2.40375e-05
-0.000434517
-4.89166e-05
-0.000434793
-7.38757e-05
-0.000435174
-9.89137e-05
-0.000435778
-0.000124039
-0.000436756
-0.000149274
-0.000438303
-0.000174667
-0.000440669
-0.000200306
-0.000444158
-0.000226342
-0.000449118
-0.000253012
-0.000455887
-0.000280661
-0.000464656
-0.000309736
-0.000475246
-0.000340712
-0.000486743
-0.000373885
-0.000497071
-0.000408973
-0.000502611
-0.000444497
-0.00049814
-0.00047703
-0.000477444
-0.000500601
-0.000434966
-0.000506727
-0.000368615
-0.000485809
-0.000283148
-0.000430595
-0.000191861
-0.000341788
-0.000112641
-0.000233255
-5.73171e-05
-0.000129698
-2.47863e-05
-5.13898e-05
-7.82764e-06
-1.32768e-06
-4.16308e-07
2.65877e-05
1.58602e-06
3.74927e-05
9.81013e-07
3.40117e-05
1.64721e-05
-1.17894e-05
1.96429e-05
-3.47972e-05
5.67294e-05
-6.41714e-05
9.94984e-05
-9.87508e-05
0.000149495
-0.00013791
0.000204268
-0.000180412
0.000260475
-0.000224134
0.000314356
-0.000266396
0.000361634
-0.000304631
0.000398539
-0.000336951
0.000422792
-0.000362359
0.000433909
-0.000380743
0.000432912
-0.000392753
0.000421871
-0.000399594
0.000403391
-0.000402726
0.000380094
-0.000403571
0.000354201
-0.000403306
0.00032733
-0.000402766
0.000300472
-0.000402447
0.000274106
-0.000402569
0.000248362
-0.000403165
0.00022317
-0.000404155
0.000198379
-0.000405416
0.000173827
-0.000406813
0.000149375
-0.000408229
0.000124926
-0.000409571
0.000100414
-0.000410771
7.58072e-05
-0.000411789
5.10946e-05
-0.000412607
2.62806e-05
-0.000413229
1.37861e-06
-0.000413676
-2.35909e-05
-0.000413984
-4.86085e-05
-0.000414205
-7.36542e-05
-0.000414406
-9.87126e-05
-0.00041467
-0.000123775
-0.000415102
-0.000148842
-0.000415837
-0.000173932
-0.000417053
-0.00019909
-0.000418991
-0.000224404
-0.00042197
-0.000250033
-0.000426384
-0.000276246
-0.000432665
-0.000303455
-0.000441151
-0.000332226
-0.000451823
-0.000363212
-0.00046388
-0.000396916
-0.000475194
-0.000433183
-0.000481826
-0.000470398
-0.00047793
-0.000504496
-0.00045647
-0.000528187
-0.000411225
-0.000531054
-0.000340301
-0.000501518
-0.000250382
-0.000431707
-0.000158408
-0.000325228
-8.47341e-05
-0.000203372
-3.83552e-05
-9.77687e-05
-1.35274e-05
-2.61554e-05
-2.15448e-06
1.52147e-05
1.42466e-06
3.39136e-05
1.1273e-06
3.4309e-05
1.75994e-05
-1.39119e-05
3.35548e-05
-3.98054e-05
8.26229e-05
-7.17108e-05
0.000131404
-0.000108152
0.000185937
-0.000148163
0.000244278
-0.000190097
0.000302409
-0.000231583
0.000355842
-0.000270014
0.000400066
-0.000303215
0.00043174
-0.000329845
0.000449422
-0.000349497
0.00045356
-0.000362614
0.00044603
-0.000370307
0.000429564
-0.000374049
0.000407133
-0.000375344
0.000381389
-0.000375468
0.000354326
-0.000375335
0.000327197
-0.000375484
0.000300621
-0.000376147
0.000274769
-0.000377343
0.000249559
-0.000378975
0.000224802
-0.000380895
0.0002003
-0.000382953
0.000175884
-0.000385015
0.000151438
-0.000386978
0.000126889
-0.000388767
0.000102202
-0.000390331
7.73713e-05
-0.000391644
5.24075e-05
-0.000392697
2.73345e-05
-0.000393502
2.1828e-06
-0.000394078
-2.30144e-05
-0.000394462
-4.82247e-05
-0.000394698
-7.34186e-05
-0.000394839
-9.85715e-05
-0.000394948
-0.000123666
-0.000395098
-0.000148692
-0.000395379
-0.000173651
-0.000395906
-0.000198564
-0.000396835
-0.000223474
-0.000398394
-0.000248474
-0.000400904
-0.000273737
-0.000404796
-0.000299563
-0.000410585
-0.000326436
-0.000418741
-0.000355057
-0.000429386
-0.000386271
-0.000441779
-0.00042079
-0.000453645
-0.000458533
-0.000460571
-0.00049757
-0.000455924
-0.000532834
-0.000431811
-0.000555167
-0.00038164
-0.000551689
-0.000304556
-0.000508791
-0.000210573
-0.000419212
-0.000121288
-0.000292657
-5.76777e-05
-0.000161379
-2.22456e-05
-6.15876e-05
-5.33217e-06
-1.69868e-06
7.05027e-07
2.78764e-05
1.13918e-06
3.38749e-05
1.87385e-05
-1.55204e-05
4.90752e-05
-4.35089e-05
0.000110611
-7.70429e-05
0.000164938
-0.00011432
0.000223214
-0.000154056
0.000284014
-0.000194328
0.000342682
-0.000232707
0.00039422
-0.000266835
0.000434194
-0.000295005
0.00045991
-0.000316427
0.000470845
-0.000331235
0.000468368
-0.000340333
0.000455127
-0.000345127
0.000434358
-0.000347171
0.000409177
-0.000347843
0.000382062
-0.000348167
0.000354649
-0.000348761
0.00032779
-0.000349898
0.000301758
-0.00035161
0.000276481
-0.000353794
0.000251742
-0.000356289
0.000227298
-0.000358933
0.000202943
-0.000361582
0.000178533
-0.000364124
0.000153981
-0.000366479
0.000129243
-0.000368589
0.000104312
-0.000370419
7.92019e-05
-0.000371954
5.39425e-05
-0.000373193
2.85729e-05
-0.000374147
3.13671e-06
-0.00037484
-2.23215e-05
-0.000375305
-4.77594e-05
-0.000375584
-7.31394e-05
-0.000375725
-9.84304e-05
-0.000375781
-0.00012361
-0.000375808
-0.000148665
-0.000375868
-0.000173591
-0.000376034
-0.000198398
-0.0003764
-0.000223108
-0.000377102
-0.000247772
-0.000378351
-0.000272488
-0.000380472
-0.000297442
-0.000383932
-0.000322976
-0.000389328
-0.000349661
-0.000397246
-0.000378353
-0.000407914
-0.000410122
-0.000420569
-0.000445878
-0.00043263
-0.00048551
-0.000438995
-0.000526468
-0.00043205
-0.000562113
-0.000403065
-0.000580674
-0.000345622
-0.000566234
-0.000261247
-0.000503587
-0.000165178
-0.000388726
-8.39263e-05
-0.000242631
-3.44502e-05
-0.000111064
-1.02062e-05
-2.59426e-05
-6.71412e-07
1.83415e-05
9.99264e-07
3.22042e-05
1.97378e-05
-1.64871e-05
6.55623e-05
-4.56983e-05
0.000139823
-7.99426e-05
0.000199182
-0.000117087
0.000260358
-0.000155593
0.00032252
-0.0001934
0.000380488
-0.000228179
0.000429
-0.000257926
0.000463941
-0.000281421
0.000483406
-0.000298386
0.000487809
-0.000309404
0.000479386
-0.000315704
0.000461428
-0.000318819
0.000437473
-0.000320219
0.000410576
-0.000321055
0.000382898
-0.000322064
0.000355658
-0.000323598
0.000329324
-0.000325728
0.000303888
-0.000328361
0.000279115
-0.000331337
0.000254718
-0.000334482
0.000230443
-0.000337649
0.00020611
-0.000340719
0.000181603
-0.000343604
0.000156866
-0.000346243
0.000131882
-0.000348593
0.000106663
-0.000350631
8.12399e-05
-0.000352346
5.56572e-05
-0.000353739
2.9966e-05
-0.000354824
4.22125e-06
-0.000355623
-2.15223e-05
-0.000356169
-4.72132e-05
-0.000356502
-7.28062e-05
-0.000356668
-9.82647e-05
-0.000356716
-0.000123562
-0.000356696
-0.000148684
-0.00035666
-0.000173627
-0.000356658
-0.000198399
-0.000356748
-0.000223018
-0.000357003
-0.000247517
-0.000357539
-0.000271952
-0.000358554
-0.000296428
-0.000360379
-0.000321151
-0.000363527
-0.000346512
-0.000368684
-0.000373197
-0.000376546
-0.00040226
-0.000387392
-0.000435032
-0.000400302
-0.000472599
-0.000412158
-0.000514613
-0.000416881
-0.00055739
-0.00040569
-0.000591865
-0.000369228
-0.000602695
-0.000302264
-0.000570551
-0.00021077
-0.00048022
-0.000117283
-0.000336118
-5.07818e-05
-0.000177565
-1.69155e-05
-5.9809e-05
-2.75545e-06
4.18151e-06
7.20913e-07
2.87278e-05
2.04587e-05
-1.67492e-05
8.23116e-05
-4.62954e-05
0.000169369
-8.03777e-05
0.000233264
-0.00011654
0.000296521
-0.000153069
0.000359048
-0.000187894
0.000415313
-0.0002189
0.000460006
-0.000244477
0.000489518
-0.00026387
0.000502799
-0.000277234
0.000501173
-0.000285493
0.000487644
-0.000290047
0.000465982
-0.000292406
0.000439832
-0.000293852
0.000412022
-0.000295269
0.000384316
-0.00029713
0.000357519
-0.000299579
0.000331773
-0.000302557
0.000306866
-0.000305913
0.000282471
-0.000309472
0.000258277
-0.000313081
0.000234052
-0.000316615
0.000209644
-0.000319983
0.000184971
-0.000323118
0.000160001
-0.000325974
0.000134737
-0.000328517
0.000109206
-0.000330729
8.34517e-05
-0.000332601
5.75288e-05
-0.000334134
3.14994e-05
-0.000335341
5.4287e-06
-0.000336245
-2.06189e-05
-0.000336875
-4.65832e-05
-0.00033727
-7.24112e-05
-0.000337474
-9.80603e-05
-0.000337536
-0.000123501
-0.000337505
-0.000148715
-0.00033743
-0.000173703
-0.000337355
-0.000198474
-0.000337322
-0.000223051
-0.000337372
-0.000247466
-0.000337562
-0.000271762
-0.00033799
-0.000296001
-0.000338843
-0.000320297
-0.000340473
-0.000344883
-0.00034345
-0.00037022
-0.000348561
-0.000397148
-0.000356606
-0.000426987
-0.000367834
-0.000461371
-0.000380964
-0.000501482
-0.000392009
-0.000546346
-0.00039357
-0.000590304
-0.000375618
-0.000620647
-0.000328781
-0.000617388
-0.000250805
-0.000558195
-0.000155026
-0.000431897
-7.22767e-05
-0.000260314
-2.56095e-05
-0.000106476
-5.57953e-06
-1.58484e-05
3.03094e-07
2.28452e-05
2.07618e-05
-1.6306e-05
9.86176e-05
-4.53383e-05
0.000198401
-7.84767e-05
0.000266403
-0.000112959
0.000331003
-0.000146976
0.000393065
-0.00017855
0.000446887
-0.000205844
0.000487301
-0.000227645
0.000511319
-0.000243602
0.000518755
-0.000254209
0.000511781
-0.000260602
0.000494037
-0.000264222
0.000469602
-0.000266443
0.000442053
-0.000268312
0.000413892
-0.000270459
0.000386462
-0.00027314
0.0003602
-0.000276361
0.000334993
-0.000279994
0.0003105
-0.000283872
0.000286349
-0.000287837
0.000262242
-0.000291762
0.000237976
-0.00029555
0.000213432
-0.000299132
0.000188553
-0.000302457
0.000163325
-0.000305485
0.000137766
-0.00030819
0.000111911
-0.000310555
8.58159e-05
-0.00031257
5.95437e-05
-0.000314236
3.31662e-05
-0.000315566
6.75795e-06
-0.000316577
-1.96072e-05