/*--------------------------------*- C++ -*----------------------------------*\
| =========                 |                                                 |
| \\      /  F ield         | OpenFOAM: The Open Source CFD Toolbox           |
|  \\    /   O peration     | Version:  2406                                  |
|   \\  /    A nd           | Website:  www.openfoam.com                      |
|    \\/     M anipulation  |                                                 |
\*---------------------------------------------------------------------------*/
FoamFile
{
    version     2.0;
    format      ascii;
    arch        "LSB;label=32;scalar=64";
    class       volVectorField;
    location    "37.2";
    object      dU;
}
// * * * * * * * * * * * * * * * * * * * * * * * * * * * * * * * * * * * * * //

dimensions      [0 1 -1 0 0 0 0];

internalField   nonuniform List<vector> 
900
(
(1.37553e-05 -2.76979e-06 0)
(-8.78916e-06 -6.79047e-06 0)
(-4.19482e-05 -5.88673e-06 0)
(-4.73999e-05 -1.40299e-06 0)
(-5.25349e-05 5.0327e-06 0)
(-5.9228e-05 1.25244e-05 0)
(-8.14508e-05 1.91251e-05 0)
(-0.000124997 2.66802e-05 0)
(-0.000186222 5.97165e-05 0)
(-0.00020964 0.000109395 0)
(-0.000161992 0.000107959 0)
(-7.41209e-05 4.80128e-05 0)
(-8.26159e-06 -2.18397e-05 0)
(2.52043e-05 -7.89025e-05 0)
(8.73006e-05 -0.000119779 0)
(0.0002178 -0.000148157 0)
(0.000411015 -0.000170417 0)
(0.000621161 -0.000190434 0)
(0.000799738 -0.000209608 0)
(0.000863015 -0.000226583 0)
(0.000767896 -0.000236591 0)
(0.000454823 -0.000238249 0)
(4.6658e-06 -0.000227101 0)
(-0.000459439 -0.000210103 0)
(-0.000664421 -0.000187118 0)
(-0.000542323 -0.000151121 0)
(-0.000254292 -0.000103253 0)
(-7.39813e-05 -3.83465e-05 0)
(-2.1443e-05 -2.50935e-06 0)
(3.00606e-05 1.18721e-05 0)
(9.62661e-06 6.24244e-06 0)
(-1.35214e-05 -4.50086e-06 0)
(-3.90523e-05 -1.06007e-05 0)
(-3.85797e-05 -9.58468e-06 0)
(-4.07378e-05 4.39984e-07 0)
(-4.75462e-05 1.22574e-05 0)
(-7.04056e-05 2.86383e-05 0)
(-8.9153e-05 4.37512e-05 0)
(-0.000112032 3.28196e-05 0)
(-0.000177431 -1.21734e-05 0)
(-0.000246569 -9.53894e-05 0)
(-0.000225405 -0.000229624 0)
(-0.000148153 -0.000388511 0)
(-7.93501e-05 -0.000527753 0)
(1.3435e-05 -0.000623275 0)
(0.000163045 -0.000683238 0)
(0.000364609 -0.000724703 0)
(0.000577542 -0.000758326 0)
(0.000758699 -0.000787891 0)
(0.000830678 -0.00080508 0)
(0.000750449 -0.000793855 0)
(0.000458207 -0.000743325 0)
(2.68229e-05 -0.000638567 0)
(-0.00042497 -0.000513423 0)
(-0.000608269 -0.000384992 0)
(-0.000457534 -0.000295715 0)
(-0.000139131 -0.000233584 0)
(2.92132e-05 -0.000145443 0)
(3.0429e-05 -0.000100082 0)
(4.48685e-05 -8.36298e-05 0)
(3.75843e-06 3.7711e-05 0)
(-2.67898e-05 1.84889e-05 0)
(-4.98873e-05 5.62397e-06 0)
(-3.85367e-05 6.78983e-07 0)
(-3.34903e-05 1.00041e-05 0)
(-3.58433e-05 1.43758e-05 0)
(-5.88177e-05 -5.77176e-06 0)
(-0.000137978 -7.64162e-05 0)
(-0.000270082 -0.000208247 0)
(-0.000370003 -0.000399411 0)
(-0.000407076 -0.000591588 0)
(-0.000386995 -0.000766842 0)
(-0.000318796 -0.000940999 0)
(-0.000217464 -0.00109108 0)
(-7.4838e-05 -0.00119804 0)
(0.000109232 -0.00127305 0)
(0.000327023 -0.00133675 0)
(0.000546787 -0.00139735 0)
(0.000739167 -0.00145793 0)
(0.000840722 -0.00149496 0)
(0.000810908 -0.00148138 0)
(0.00058931 -0.00137584 0)
(0.000212832 -0.00114836 0)
(-0.000225875 -0.000833557 0)
(-0.00045792 -0.000473342 0)
(-0.000390323 -0.000250757 0)
(-9.90249e-05 -0.000126228 0)
(6.22146e-05 -0.000125755 0)
(4.25834e-05 -0.000141006 0)
(4.73073e-05 -0.00014757 0)
(-8.37139e-06 7.1154e-05 0)
(-4.49059e-05 3.9175e-05 0)
(-5.71181e-05 2.54613e-05 0)
(-3.43144e-05 1.39989e-05 0)
(-2.98081e-05 5.59714e-06 0)
(-7.2607e-05 -4.42989e-05 0)
(-0.000179952 -0.000158026 0)
(-0.000316995 -0.000357072 0)
(-0.000458423 -0.000591009 0)
(-0.00057543 -0.000817611 0)
(-0.000620074 -0.00102067 0)
(-0.000576246 -0.00118867 0)
(-0.000471952 -0.00132232 0)
(-0.000336204 -0.00142342 0)
(-0.000170214 -0.00150124 0)
(2.00209e-05 -0.00156983 0)
(0.000232795 -0.00164881 0)
(0.000445399 -0.00173935 0)
(0.000646266 -0.0018463 0)
(0.000788376 -0.00193528 0)
(0.000846436 -0.00198092 0)
(0.000763828 -0.00190893 0)
(0.000537842 -0.00167968 0)
(0.000217832 -0.00126949 0)
(-4.89526e-05 -0.000734166 0)
(-0.000114383 -0.000293023 0)
(-2.03425e-06 -3.1662e-05 0)
(2.1184e-05 -1.01347e-05 0)
(1.1524e-05 -0.000106065 0)
(3.9267e-05 -0.000125145 0)
(-2.77942e-05 0.000138436 0)
(-7.21292e-05 0.000100022 0)
(-7.46705e-05 8.66596e-05 0)
(-5.91834e-05 4.77126e-05 0)
(-9.85539e-05 -2.14103e-05 0)
(-0.000215104 -0.000171534 0)
(-0.000392663 -0.000394315 0)
(-0.000588691 -0.000665527 0)
(-0.000738462 -0.00093492 0)
(-0.000799493 -0.00115311 0)
(-0.00077462 -0.0012967 0)
(-0.000684622 -0.0013838 0)
(-0.000550757 -0.00143908 0)
(-0.000395886 -0.00147525 0)
(-0.000223401 -0.00150766 0)
(-4.30529e-05 -0.00154634 0)
(0.000150406 -0.00160967 0)
(0.000339849 -0.00169392 0)
(0.000531217 -0.00181066 0)
(0.000690934 -0.00192606 0)
(0.000818288 -0.00203262 0)
(0.000866791 -0.00204794 0)
(0.000822924 -0.00194315 0)
(0.000684924 -0.00162778 0)
(0.000484413 -0.00113778 0)
(0.00029395 -0.000588258 0)
(0.000195789 -0.000188507 0)
(7.80493e-06 1.70955e-05 0)
(-6.52989e-05 -0.000135209 0)
(3.0125e-05 -0.00012529 0)
(-4.67026e-05 0.000201149 0)
(-9.62253e-05 0.00016296 0)
(-0.000108889 0.000143224 0)
(-0.000145118 5.79917e-05 0)
(-0.00025943 -9.16331e-05 0)
(-0.000462058 -0.000334986 0)
(-0.000688622 -0.0006263 0)
(-0.00086349 -0.000907749 0)
(-0.000943665 -0.00111491 0)
(-0.000931908 -0.0012383 0)
(-0.000846091 -0.00129236 0)
(-0.000716121 -0.00130096 0)
(-0.000563672 -0.00129088 0)
(-0.000407726 -0.00127693 0)
(-0.000246663 -0.00127577 0)
(-8.94164e-05 -0.00128997 0)
(7.60031e-05 -0.00133488 0)
(0.000233543 -0.00140066 0)
(0.000401703 -0.00150408 0)
(0.000552082 -0.00161493 0)
(0.000707997 -0.00174752 0)
(0.000833339 -0.00183111 0)
(0.000933713 -0.00186799 0)
(0.000992893 -0.0017384 0)
(0.000954109 -0.00145635 0)
(0.000800816 -0.00101931 0)
(0.000593915 -0.000461865 0)
(9.72036e-05 -0.000260209 0)
(-0.000117939 -4.8475e-05 0)
(5.1797e-05 -0.000191989 0)
(-6.603e-05 0.00022852 0)
(-0.000130007 0.00019382 0)
(-0.000180959 0.000150114 0)
(-0.000300627 8.25136e-06 0)
(-0.000504837 -0.000215062 0)
(-0.000764254 -0.00051065 0)
(-0.000973128 -0.000794415 0)
(-0.00107629 -0.00100915 0)
(-0.00106431 -0.00112857 0)
(-0.00097335 -0.00116648 0)
(-0.000836157 -0.00115109 0)
(-0.000684792 -0.00111181 0)
(-0.000530539 -0.0010735 0)
(-0.000385914 -0.00104421 0)
(-0.000242348 -0.00103635 0)
(-0.000108612 -0.00104402 0)
(3.25599e-05 -0.00107986 0)
(0.000162336 -0.00112772 0)
(0.000307146 -0.00120721 0)
(0.000435807 -0.00128827 0)
(0.000588677 -0.00140072 0)
(0.000730525 -0.00148822 0)
(0.000897245 -0.00158878 0)
(0.001074 -0.00159142 0)
(0.00117526 -0.00153942 0)
(0.00125291 -0.00129301 0)
(0.000921812 -0.000842075 0)
(0.000422952 -0.000608227 0)
(2.36369e-05 8.07304e-05 0)
(-0.000107758 -0.000344801 0)
(-8.19901e-05 0.000162412 0)
(-0.00017657 0.00013281 0)
(-0.000299725 6.31853e-05 0)
(-0.000521474 -0.000116049 0)
(-0.000793409 -0.00036926 0)
(-0.00105305 -0.000648129 0)
(-0.00119025 -0.000866215 0)
(-0.00119494 -0.000989739 0)
(-0.00109801 -0.00102338 0)
(-0.000953278 -0.000999767 0)
(-0.00079162 -0.000950793 0)
(-0.000639206 -0.000899473 0)
(-0.000495811 -0.000863092 0)
(-0.000368614 -0.000841692 0)
(-0.000242654 -0.000844002 0)
(-0.000127887 -0.000857804 0)
(-2.59842e-06 -0.000895631 0)
(0.000109825 -0.000936095 0)
(0.000241943 -0.00100177 0)
(0.000355431 -0.00105897 0)
(0.000500897 -0.00114576 0)
(0.000634191 -0.00121045 0)
(0.000816586 -0.00131287 0)
(0.00102515 -0.00136254 0)
(0.00123297 -0.0014407 0)
(0.00147489 -0.00134571 0)
(0.00124714 -0.00120317 0)
(0.000992891 -0.000731117 0)
(0.000156402 -0.00029865 0)
(-0.000359213 -0.000329685 0)
(-9.71451e-05 8.1953e-07 0)
(-0.000234379 -2.38506e-05 0)
(-0.000439937 -0.000111363 0)
(-0.000748118 -0.000290359 0)
(-0.00105233 -0.000517763 0)
(-0.00127023 -0.000726878 0)
(-0.00131572 -0.000853814 0)
(-0.00123079 -0.000893127 0)
(-0.00107152 -0.000869518 0)
(-0.000897271 -0.000816531 0)
(-0.000730087 -0.000761589 0)
(-0.000587666 -0.000717721 0)
(-0.000458605 -0.000694763 0)
(-0.000348126 -0.000686053 0)
(-0.000236104 -0.000698939 0)
(-0.000135912 -0.00071736 0)
(-2.14506e-05 -0.000756168 0)
(7.82002e-05 -0.000790166 0)
(0.000201857 -0.000846148 0)
(0.000303223 -0.000886304 0)
(0.000441413 -0.000954269 0)
(0.000560298 -0.000996961 0)
(0.000735819 -0.00108328 0)
(0.000931541 -0.00113614 0)
(0.00117535 -0.00125314 0)
(0.00147501 -0.00126881 0)
(0.00151684 -0.00129685 0)
(0.0012952 -0.00087172 0)
(0.000416872 -0.000630761 0)
(-0.000120846 1.3145e-05 0)
(-0.000109142 -0.000202555 0)
(-0.000296961 -0.000219232 0)
(-0.000580194 -0.000305203 0)
(-0.000945155 -0.000451621 0)
(-0.00124476 -0.000619022 0)
(-0.00139597 -0.000741642 0)
(-0.00135564 -0.000785913 0)
(-0.00120593 -0.000765717 0)
(-0.00101394 -0.000712667 0)
(-0.000833138 -0.000653804 0)
(-0.000674356 -0.000608574 0)
(-0.000547027 -0.000579334 0)
(-0.000432161 -0.000571599 0)
(-0.000335517 -0.00057394 0)
(-0.000233097 -0.000595194 0)
(-0.000142745 -0.000616342 0)
(-3.37796e-05 -0.000656116 0)
(5.85559e-05 -0.000685223 0)
(0.000179288 -0.000735328 0)
(0.000273717 -0.000763484 0)
(0.000407854 -0.000818315 0)
(0.000513352 -0.000842726 0)
(0.000676337 -0.000909501 0)
(0.000845569 -0.000946339 0)
(0.00108461 -0.00105686 0)
(0.00141505 -0.00111076 0)
(0.00163266 -0.00119378 0)
(0.00164264 -0.000966499 0)
(0.00102264 -0.000481349 0)
(0.000284681 0.000180796 0)
(-0.000117061 -0.000393517 0)
(-0.000347579 -0.000399987 0)
(-0.000688903 -0.000469342 0)
(-0.00108015 -0.000562281 0)
(-0.00135597 -0.000656206 0)
(-0.00144152 -0.00069706 0)
(-0.0013357 -0.000680142 0)
(-0.00114743 -0.000626361 0)
(-0.000942862 -0.000565811 0)
(-0.000768049 -0.000514334 0)
(-0.000622146 -0.000484186 0)
(-0.000509858 -0.000468481 0)
(-0.000406578 -0.000472221 0)
(-0.000320939 -0.000480384 0)
(-0.000225158 -0.000505501 0)
(-0.000142593 -0.000525603 0)
(-3.72675e-05 -0.000564449 0)
(4.90413e-05 -0.000588521 0)
(0.000168328 -0.000635146 0)
(0.000258017 -0.000656164 0)
(0.000390892 -0.000705252 0)
(0.000487747 -0.000720205 0)
(0.000640297 -0.000775109 0)
(0.000781508 -0.000798527 0)
(0.000999355 -0.000894544 0)
(0.00132177 -0.000962909 0)
(0.00164852 -0.00111225 0)
(0.00199839 -0.0010674 0)
(0.00154286 -0.000746809 0)
(0.00052332 -0.00036346 0)
(-0.000119396 -0.000517045 0)
(-0.000384878 -0.000513054 0)
(-0.000760514 -0.000559852 0)
(-0.00115031 -0.000601223 0)
(-0.00139152 -0.000632292 0)
(-0.00142114 -0.000615168 0)
(-0.00127568 -0.000564327 0)
(-0.00107295 -0.000499897 0)
(-0.000873219 -0.000446127 0)
(-0.000713094 -0.000407942 0)
(-0.000582948 -0.000392532 0)
(-0.000484816 -0.000386401 0)
(-0.000390871 -0.00039705 0)
(-0.000313365 -0.000406308 0)
(-0.000221252 -0.000431861 0)
(-0.000143749 -0.000447894 0)
(-3.9595e-05 -0.000483919 0)
(4.26539e-05 -0.000501428 0)
(0.000161788 -0.000543839 0)
(0.000247742 -0.000557736 0)
(0.000379801 -0.000602225 0)
(0.00047001 -0.000611005 0)
(0.000614077 -0.00065986 0)
(0.000730542 -0.00067554 0)
(0.000913933 -0.000759421 0)
(0.00118328 -0.000830698 0)
(0.0015152 -0.00102266 0)
(0.0020076 -0.00114184 0)
(0.00171402 -0.00120904 0)
(0.000650137 -0.00107192 0)
(-0.000117173 -0.000562558 0)
(-0.000403222 -0.000548427 0)
(-0.0007957 -0.00057288 0)
(-0.00117052 -0.000570037 0)
(-0.00137997 -0.000555043 0)
(-0.00137076 -0.000502087 0)
(-0.00120419 -0.000438931 0)
(-0.00100053 -0.000377755 0)
(-0.000811001 -0.000338028 0)
(-0.000666967 -0.000313803 0)
(-0.000550362 -0.000310756 0)
(-0.00046405 -0.000310304 0)
(-0.000376576 -0.000324579 0)
(-0.000305118 -0.000332091 0)
(-0.000214616 -0.000356495 0)
(-0.00014067 -0.00036736 0)
(-3.62924e-05 -0.000400369 0)
(4.29571e-05 -0.000411503 0)
(0.000162515 -0.000450278 0)
(0.000245263 -0.000458082 0)
(0.000376366 -0.000498675 0)
(0.000460582 -0.000502602 0)
(0.000597134 -0.000547257 0)
(0.000692585 -0.000558087 0)
(0.000843292 -0.000633228 0)
(0.00104642 -0.000697236 0)
(0.00132138 -0.000893528 0)
(0.00181211 -0.00108063 0)
(0.00161257 -0.00136064 0)
(0.000653581 -0.00139352 0)
(-0.000109669 -0.000532428 0)
(-0.000408498 -0.000511689 0)
(-0.000800938 -0.000518883 0)
(-0.00114986 -0.000488121 0)
(-0.00133156 -0.000446426 0)
(-0.00129782 -0.000379771 0)
(-0.00112788 -0.000320225 0)
(-0.000934246 -0.000272168 0)
(-0.000761549 -0.00024975 0)
(-0.000635259 -0.000238518 0)
(-0.000532279 -0.000244971 0)
(-0.000456654 -0.000246709 0)
(-0.000374271 -0.000262102 0)
(-0.000307119 -0.00026551 0)
(-0.00021623 -0.000287456 0)
(-0.000143566 -0.000291651 0)
(-3.66735e-05 -0.000320693 0)
(4.18956e-05 -0.000324351 0)
(0.000163311 -0.000358342 0)
(0.000244038 -0.000359163 0)
(0.000374189 -0.000394516 0)
(0.000452817 -0.000392521 0)
(0.000582045 -0.000431946 0)
(0.000659079 -0.000436853 0)
(0.000778989 -0.000503064 0)
(0.000914514 -0.000553959 0)
(0.00111517 -0.000733064 0)
(0.00153654 -0.000926331 0)
(0.00140259 -0.00128609 0)
(0.000613872 -0.00139126 0)
(-0.000100999 -0.000449176 0)
(-0.000402892 -0.00042212 0)
(-0.000790693 -0.000416621 0)
(-0.00111497 -0.000367568 0)
(-0.00127792 -0.000314075 0)
(-0.00123335 -0.000245223 0)
(-0.00106646 -0.000198145 0)
(-0.00088501 -0.000165419 0)
(-0.000725971 -0.000160288 0)
(-0.000614836 -0.000159283 0)
(-0.000521802 -0.000172939 0)
(-0.000454835 -0.000174752 0)
(-0.000375185 -0.000190315 0)
(-0.000310753 -0.000188952 0)
(-0.000217621 -0.000208361 0)
(-0.00014437 -0.000205824 0)
(-3.30681e-05 -0.000230994 0)
(4.70374e-05 -0.000227584 0)
(0.000171744 -0.000256798 0)
(0.00025177 -0.000251087 0)
(0.000381012 -0.000280695 0)
(0.000453926 -0.000272264 0)
(0.000576134 -0.000305219 0)
(0.000637239 -0.000302654 0)
(0.00073326 -0.000360244 0)
(0.000810791 -0.000393191 0)
(0.000933481 -0.000544578 0)
(0.00125356 -0.000703086 0)
(0.00115036 -0.00105659 0)
(0.000547576 -0.00118386 0)
(-8.74367e-05 -0.000340544 0)
(-0.000389176 -0.000309548 0)
(-0.000764772 -0.000292475 0)
(-0.00106407 -0.000234893 0)
(-0.00121441 -0.000176534 0)
(-0.00116757 -0.000114141 0)
(-0.00101307 -8.22638e-05 0)
(-0.000847291 -6.64177e-05 0)
(-0.000704821 -7.75222e-05 0)
(-0.000608525 -8.49718e-05 0)
(-0.000525626 -0.000104517 0)
(-0.000466803 -0.000104715 0)
(-0.000389567 -0.000119843 0)
(-0.000327016 -0.000112484 0)
(-0.000230347 -0.000129003 0)
(-0.000154335 -0.000118986 0)
(-3.63546e-05 -0.00013982 0)
(4.83253e-05 -0.000128922 0)
(0.000178675 -0.00015263 0)
(0.00026057 -0.000139898 0)
(0.000390186 -0.000162579 0)
(0.000458238 -0.000146178 0)
(0.000573985 -0.000170155 0)
(0.000619738 -0.000156517 0)
(0.000697571 -0.000203076 0)
(0.000727916 -0.00021505 0)
(0.000791833 -0.000338984 0)
(0.00101625 -0.000446517 0)
(0.000922889 -0.000759231 0)
(0.000487077 -0.000869316 0)
(-7.49207e-05 -0.000226074 0)
(-0.000367611 -0.000188248 0)
(-0.000734004 -0.000159312 0)
(-0.00101594 -9.24491e-05 0)
(-0.00116224 -3.37693e-05 0)
(-0.00112343 2.39506e-05 0)
(-0.000981131 4.05703e-05 0)
(-0.000829673 4.33927e-05 0)
(-0.000697081 1.79034e-05 0)
(-0.000612269 4.40883e-06 0)
(-0.000535519 -2.03238e-05 0)
(-0.000483469 -1.83384e-05 0)
(-0.000406984 -3.3027e-05 0)
(-0.000345213 -1.96738e-05 0)
(-0.000243665 -3.31065e-05 0)
(-0.000162898 -1.58197e-05 0)
(-3.64868e-05 -3.19144e-05 0)
(5.54239e-05 -1.4e-05 0)
(0.000193287 -3.19401e-05 0)
(0.00027945 -1.28261e-05 0)
(0.000410987 -2.86148e-05 0)
(0.000475442 -4.43789e-06 0)
(0.000586611 -1.92015e-05 0)
(0.000618502 7.06663e-06 0)
(0.000683989 -2.79477e-05 0)
(0.000674743 -1.6995e-05 0)
(0.000691344 -0.000117608 0)
(0.000824407 -0.000172038 0)
(0.000727957 -0.000439838 0)
(0.000439015 -0.00051683 0)
(-5.46342e-05 -0.000132803 0)
(-0.000334908 -8.8576e-05 0)
(-0.000686749 -4.11418e-05 0)
(-0.000956096 3.43822e-05 0)
(-0.00110407 0.000100447 0)
(-0.00107792 0.000154747 0)
(-0.000955675 0.000162109 0)
(-0.000820159 0.000154104 0)
(-0.000700969 0.00011641 0)
(-0.000627115 9.79824e-05 0)
(-0.000557304 6.76888e-05 0)
(-0.000511596 7.23174e-05 0)
(-0.000436026 5.7397e-05 0)
(-0.000374373 7.70876e-05 0)
(-0.000267466 6.63434e-05 0)
(-0.000180409 9.09121e-05 0)
(-4.42321e-05 7.92098e-05 0)
(5.7353e-05 0.000103744 0)
(0.000204681 9.12308e-05 0)
(0.000297635 0.000116548 0)
(0.000433305 0.000107664 0)
(0.000495739 0.000140369 0)
(0.000604716 0.000135611 0)
(0.00062323 0.00017683 0)
(0.000682258 0.000154725 0)
(0.000639817 0.000190576 0)
(0.000628366 0.000107799 0)
(0.000683462 0.000105519 0)
(0.000576516 -0.00012518 0)
(0.000412058 -0.000158154 0)
(-3.53007e-05 -5.44468e-05 0)
(-0.000287378 4.69437e-07 0)
(-0.000628146 6.58004e-05 0)
(-0.000892594 0.000159329 0)
(-0.00104992 0.000232373 0)
(-0.00104903 0.000293945 0)
(-0.000946197 0.000295127 0)
(-0.000828104 0.000282964 0)
(-0.000714417 0.00023431 0)
(-0.000648367 0.000211646 0)
(-0.00058082 0.000174572 0)
(-0.000540205 0.000180211 0)
(-0.000464522 0.000164138 0)
(-0.000402441 0.000188705 0)
(-0.00028997 0.000180709 0)
(-0.000195389 0.000211426 0)
(-4.89352e-05 0.000204734 0)
(6.42043e-05 0.000235092 0)
(0.000222235 0.000228625 0)
(0.000324209 0.000259758 0)
(0.000466486 0.000258065 0)
(0.000529357 0.000299406 0)
(0.000639962 0.000304686 0)
(0.000646929 0.000361499 0)
(0.000704467 0.000352494 0)
(0.000629893 0.000413398 0)
(0.000600375 0.000343099 0)
(0.000580778 0.000387255 0)
(0.000461625 0.000176661 0)
(0.000408513 0.00019199 0)
(-3.2802e-06 -6.33211e-06 0)
(-0.000224802 5.42908e-05 0)
(-0.000544245 0.00013959 0)
(-0.000808496 0.000250778 0)
(-0.000980301 0.000347575 0)
(-0.0010065 0.000421769 0)
(-0.000935322 0.000429743 0)
(-0.000837286 0.00041771 0)
(-0.000736479 0.000360827 0)
(-0.000677805 0.000333767 0)
(-0.000613763 0.000287163 0)
(-0.000576616 0.000292004 0)
(-0.000500623 0.00027163 0)
(-0.00043682 0.000299611 0)
(-0.000318723 0.000291726 0)
(-0.000215696 0.000327238 0)
(-5.89806e-05 0.000322887 0)
(6.6377e-05 0.000357854 0)
(0.000235873 0.000354873 0)
(0.000347936 0.000391308 0)
(0.000499198 0.000395057 0)
(0.000564274 0.000445587 0)
(0.000680324 0.000460337 0)
(0.000677054 0.00053391 0)
(0.000738544 0.000538304 0)
(0.000632533 0.00062584 0)
(0.000598366 0.000564917 0)
(0.000505904 0.000655672 0)
(0.000377436 0.000453645 0)
(0.000430595 0.000527922 0)
(2.41372e-05 5.56127e-05 0)
(-0.000148695 0.000120134 0)
(-0.000446171 0.000204913 0)
(-0.000703492 0.000344352 0)
(-0.000892482 0.000457892 0)
(-0.000963772 0.000560777 0)
(-0.000925803 0.000576677 0)
(-0.000859021 0.00057299 0)
(-0.000765009 0.000507941 0)
(-0.000712436 0.000475346 0)
(-0.000646029 0.000415817 0)
(-0.000610138 0.000414589 0)
(-0.000532305 0.000386639 0)
(-0.000466332 0.000413097 0)
(-0.000343456 0.000404055 0)
(-0.000232173 0.000440846 0)
(-6.6235e-05 0.000439203 0)
(7.14802e-05 0.000476846 0)
(0.000252635 0.000478983 0)
(0.000376254 0.000520719 0)
(0.000539119 0.000532536 0)
(0.000609981 0.000593737 0)
(0.0007366 0.000621097 0)
(0.00072666 0.00071315 0)
(0.000797724 0.000733867 0)
(0.000658122 0.000848317 0)
(0.000628827 0.000795675 0)
(0.00045936 0.000929498 0)
(0.00033004 0.000719589 0)
(0.000487241 0.000863529 0)
(6.18495e-05 9.59976e-05 0)
(-7.94035e-05 0.00013557 0)
(-0.000331954 0.000225831 0)
(-0.000573666 0.000379713 0)
(-0.000779714 0.000541134 0)
(-0.000890028 0.000676961 0)
(-0.000906146 0.000723275 0)
(-0.000874728 0.000734377 0)
(-0.000803209 0.000665981 0)
(-0.000757543 0.000627173 0)
(-0.000691325 0.000549074 0)
(-0.000652669 0.000536692 0)
(-0.000571335 0.00049321 0)
(-0.000499617 0.000513585 0)
(-0.000371105 0.000496261 0)
(-0.000250368 0.000531839 0)
(-7.54376e-05 0.000526451 0)
(7.41829e-05 0.000566211 0)
(0.000267381 0.000567309 0)
(0.000402714 0.000615059 0)
(0.00058003 0.000629409 0)
(0.000659099 0.000702063 0)
(0.000801281 0.000737579 0)
(0.000787163 0.000847644 0)
(0.000872581 0.000881665 0)
(0.000695904 0.00102253 0)
(0.00068095 0.000978414 0)
(0.000421051 0.00116033 0)
(0.000308569 0.000947492 0)
(0.000581342 0.0011988 0)
(6.42391e-05 0.000148465 0)
(-1.9149e-05 0.000160421 0)
(-0.000209456 0.000245939 0)
(-0.000403677 0.000427535 0)
(-0.00061185 0.000617593 0)
(-0.000788788 0.000806872 0)
(-0.000859672 0.000876701 0)
(-0.00089385 0.000911089 0)
(-0.000845955 0.000838161 0)
(-0.000814289 0.000792146 0)
(-0.000743698 0.000693019 0)
(-0.000699382 0.000662639 0)
(-0.000610761 0.000599721 0)
(-0.00053171 0.000605529 0)
(-0.000396851 0.000577875 0)
(-0.000267689 0.000605052 0)
(-8.45892e-05 0.000597134 0)
(7.54551e-05 0.000633925 0)
(0.000280525 0.000638633 0)
(0.000428518 0.000689363 0)
(0.000622386 0.000713776 0)
(0.000714336 0.000796783 0)
(0.0008764 0.000849425 0)
(0.000863879 0.000978809 0)
(0.000969567 0.00103613 0)
(0.000756889 0.0012075 0)
(0.000771409 0.00118377 0)
(0.000421411 0.00141836 0)
(0.000366112 0.0012037 0)
(0.000747793 0.00160416 0)
(7.24328e-05 0.000155996 0)
(1.90792e-05 9.05809e-05 0)
(-6.72686e-05 0.000210506 0)
(-0.000212997 0.000380178 0)
(-0.000416095 0.000656198 0)
(-0.000641043 0.000888175 0)
(-0.000799383 0.00101635 0)
(-0.00089891 0.00107935 0)
(-0.000901817 0.0010129 0)
(-0.000887361 0.000961888 0)
(-0.000819999 0.000838187 0)
(-0.000765092 0.000785696 0)
(-0.000666648 0.000693583 0)
(-0.000573356 0.000679687 0)
(-0.000429413 0.00063057 0)
(-0.000287808 0.000647818 0)
(-9.56208e-05 0.000625882 0)
(7.66984e-05 0.000662577 0)
(0.000294925 0.000657459 0)
(0.000457914 0.000716224 0)
(0.00067257 0.000732788 0)
(0.000781514 0.000829476 0)
(0.000971179 0.000875825 0)
(0.000964534 0.00102253 0)
(0.00109826 0.00107984 0)
(0.000847155 0.00127545 0)
(0.000900318 0.00127171 0)
(0.000435117 0.0015625 0)
(0.0004933 0.00141649 0)
(0.000995436 0.00210393 0)
(-3.49433e-06 0.000137051 0)
(3.43685e-05 0.000110446 0)
(8.1935e-05 0.000199731 0)
(3.83545e-05 0.000425876 0)
(-0.00011515 0.000707796 0)
(-0.000440008 0.00099576 0)
(-0.000671218 0.00114245 0)
(-0.000890464 0.00123387 0)
(-0.000950446 0.00116956 0)
(-0.000976424 0.00111572 0)
(-0.000914678 0.000974902 0)
(-0.00085158 0.000900644 0)
(-0.000738355 0.000785539 0)
(-0.000628859 0.000746942 0)
(-0.000470206 0.000680448 0)
(-0.000316955 0.000678463 0)
(-0.000112055 0.000648063 0)
(6.92444e-05 0.000671762 0)
(0.000302623 0.000666691 0)
(0.000477436 0.000716524 0)
(0.00071359 0.00074067 0)
(0.000838764 0.000831247 0)
(0.00105493 0.000893492 0)
(0.00105903 0.00104258 0)
(0.00122138 0.00113183 0)
(0.000954195 0.00135833 0)
(0.00106938 0.00143321 0)
(0.000557064 0.00181933 0)
(0.000904303 0.00184955 0)
(0.00145313 0.00293876 0)
(4.34906e-05 0.000221691 0)
(7.75846e-05 1.87984e-05 0)
(0.000250142 0.000169063 0)
(0.000297765 0.000349448 0)
(0.00015102 0.00072024 0)
(-0.000213865 0.00100943 0)
(-0.000565625 0.00120828 0)
(-0.000869664 0.00131309 0)
(-0.00101256 0.00126598 0)
(-0.00107341 0.00121372 0)
(-0.00102923 0.00106414 0)
(-0.00095561 0.000973335 0)
(-0.000829998 0.00083677 0)
(-0.000697327 0.000776897 0)
(-0.000523545 0.000687149 0)
(-0.000350547 0.000671027 0)
(-0.000133943 0.000618137 0)
(6.43691e-05 0.000638923 0)
(0.000311081 0.000607568 0)
(0.000506402 0.000664765 0)
(0.00076528 0.000649847 0)
(0.0009171 0.000754858 0)
(0.00117075 0.000758047 0)
(0.00119827 0.000928728 0)
(0.0014164 0.00095807 0)
(0.00115592 0.0012319 0)
(0.00137305 0.00134942 0)
(0.000841266 0.00185459 0)
(0.00162512 0.00229146 0)
(0.00212218 0.00441458 0)
(-0.000208828 7.64345e-06 0)
(-2.50374e-05 0.000107539 0)
(0.000412221 0.000169248 0)
(0.000594552 0.000549334 0)
(0.000549817 0.000813924 0)
(4.93162e-05 0.00107959 0)
(-0.000368162 0.00121022 0)
(-0.000831463 0.00129678 0)
(-0.0010455 0.00124873 0)
(-0.00117246 0.00119822 0)
(-0.00114976 0.0010628 0)
(-0.0010766 0.000968971 0)
(-0.000936644 0.000836326 0)
(-0.000785528 0.000763873 0)
(-0.00058778 0.000668432 0)
(-0.000401472 0.000634768 0)
(-0.000162029 0.000572463 0)
(4.009e-05 0.000571935 0)
(0.000310203 0.00053129 0)
(0.000503617 0.000558466 0)
(0.00079049 0.000537872 0)
(0.000938803 0.000598331 0)
(0.00122606 0.000613445 0)
(0.00126202 0.000735822 0)
(0.0015321 0.000845015 0)
(0.00135433 0.00113556 0)
(0.00170463 0.00155081 0)
(0.00147343 0.00236919 0)
(0.00346359 0.00415996 0)
(0.00362461 0.00774596 0)
(0.000142611 0.000721199 0)
(0.000234363 1.43202e-05 0)
(0.000688812 0.000148459 0)
(0.000946955 0.000327121 0)
(0.000690039 0.00069811 0)
(0.000192305 0.000904262 0)
(-0.000339055 0.00104056 0)
(-0.000822434 0.0010838 0)
(-0.00110199 0.00104886 0)
(-0.00124978 0.000997976 0)
(-0.00124938 0.000886403 0)
(-0.00117396 0.000802472 0)
(-0.00102925 0.00068656 0)
(-0.000861323 0.000617033 0)
(-0.000651456 0.000525237 0)
(-0.000446842 0.000488232 0)
(-0.000198977 0.000416663 0)
(2.07928e-05 0.000412184 0)
(0.00029486 0.000346469 0)
(0.000511928 0.000375428 0)
(0.000806056 0.000303506 0)
(0.00099708 0.000380583 0)
(0.00131572 0.000302321 0)
(0.00143912 0.000475574 0)
(0.00182587 0.000452311 0)
(0.00187082 0.000898868 0)
(0.00261605 0.00133335 0)
(0.00341901 0.00296169 0)
(0.00710263 0.0061107 0)
(0.0058419 0.0125903 0)
(-0.000933458 -0.00219874 0)
(-0.000599992 0.000269357 0)
(0.000730148 0.000697061 0)
(0.00115132 0.000681882 0)
(0.00113508 0.000786906 0)
(0.000400548 0.000770274 0)
(-0.000177008 0.000720383 0)
(-0.000809899 0.00068535 0)
(-0.00111719 0.000642551 0)
(-0.00131997 0.000605067 0)
(-0.00133049 0.000548635 0)
(-0.00126143 0.000499809 0)
(-0.00110777 0.000437748 0)
(-0.000932588 0.000393504 0)
(-0.000703134 0.000335666 0)
(-0.000496708 0.000308746 0)
(-0.000225668 0.00025462 0)
(-1.79222e-05 0.000247682 0)
(0.000284549 0.000192087 0)
(0.00047213 0.000204866 0)
(0.000806464 0.00014873 0)
(0.000949796 0.000185705 0)
(0.00133135 0.000164965 0)
(0.00142233 0.000274789 0)
(0.00195986 0.00052299 0)
(0.00223727 0.00109946 0)
(0.00373984 0.00290017 0)
(0.00601962 0.00645615 0)
(0.01281 0.0148442 0)
(0.0100006 0.0263169 0)
(0.00261075 -0.00308823 0)
(0.0031637 0.000487766 0)
(0.00111066 0.000691846 0)
(0.00102757 0.000864257 0)
(0.000780564 0.000580017 0)
(0.000130039 0.000512167 0)
(-0.000422877 0.000308249 0)
(-0.000896098 0.000269115 0)
(-0.00117633 0.000224411 0)
(-0.00133455 0.000212151 0)
(-0.00134238 0.000209345 0)
(-0.00126934 0.000196912 0)
(-0.00111671 0.000194831 0)
(-0.000942485 0.00017812 0)
(-0.00071336 0.00017305 0)
(-0.000505167 0.000154185 0)
(-0.000237807 0.000151086 0)
(-2.20116e-05 0.000128737 0)
(0.000269945 0.000136019 0)
(0.000483994 0.000104088 0)
(0.000801274 0.000140493 0)
(0.00102481 9.06111e-05 0)
(0.00141308 0.000209942 0)
(0.0017988 0.000164239 0)
(0.00265677 0.0005823 0)
(0.00427479 0.000840704 0)
(0.00798431 0.00257537 0)
(0.0149802 0.00502075 0)
(0.0267224 0.0116085 0)
(0.0176794 0.0186001 0)
)
;

boundaryField
{
    movingWall
    {
        type            fixedValue;
        value           uniform (1 0 0);
    }
    fixedWalls
    {
        type            noSlip;
    }
    frontAndBack
    {
        type            empty;
    }
}


// ************************************************************************* //
