/*--------------------------------*- C++ -*----------------------------------*\
| =========                 |                                                 |
| \\      /  F ield         | OpenFOAM: The Open Source CFD Toolbox           |
|  \\    /   O peration     | Version:  2406                                  |
|   \\  /    A nd           | Website:  www.openfoam.com                      |
|    \\/     M anipulation  |                                                 |
\*---------------------------------------------------------------------------*/
FoamFile
{
    version     2.0;
    format      ascii;
    arch        "LSB;label=32;scalar=64";
    class       surfaceScalarField;
    location    "12";
    object      phi_0;
}
// * * * * * * * * * * * * * * * * * * * * * * * * * * * * * * * * * * * * * //

dimensions      [0 3 -1 0 0 0 0];

oriented        oriented;

internalField   nonuniform List<scalar> 
32512
(
7.29076e-09
-7.28207e-09
1.34616e-08
-6.17084e-09
1.20364e-08
1.42523e-09
1.25173e-09
1.07845e-08
-1.84829e-08
1.97344e-08
-4.60646e-08
2.75815e-08
-7.99727e-08
3.39082e-08
-1.18709e-07
3.87366e-08
-1.60975e-07
4.22654e-08
-2.05715e-07
4.47401e-08
-2.52121e-07
4.64067e-08
-2.99611e-07
4.74891e-08
-3.47789e-07
4.81786e-08
-3.96419e-07
4.86304e-08
-4.45384e-07
4.89651e-08
-4.94657e-07
4.92727e-08
-5.44274e-07
4.96168e-08
-5.94313e-07
5.00392e-08
-6.44878e-07
5.05649e-08
-6.96084e-07
5.12058e-08
-7.48048e-07
5.19642e-08
-8.00884e-07
5.28358e-08
-8.54695e-07
5.38117e-08
-9.09575e-07
5.48799e-08
-9.65602e-07
5.60267e-08
-1.02284e-06
5.7237e-08
-1.08133e-06
5.84957e-08
-1.14112e-06
5.97872e-08
-1.20222e-06
6.10956e-08
-1.26462e-06
6.24051e-08
-1.32832e-06
6.37e-08
-1.39329e-06
6.4964e-08
-1.45947e-06
6.61809e-08
-1.5268e-06
6.73344e-08
-1.59521e-06
6.84074e-08
-1.66459e-06
6.9383e-08
-1.73484e-06
7.02437e-08
-1.80581e-06
7.09715e-08
-1.87736e-06
7.15485e-08
-1.94931e-06
7.1956e-08
-2.02149e-06
7.21755e-08
-2.09368e-06
7.21878e-08
-2.16565e-06
7.1974e-08
-2.23716e-06
7.15148e-08
-2.30796e-06
7.0791e-08
-2.37774e-06
6.97836e-08
-2.44621e-06
6.84737e-08
-2.51306e-06
6.6843e-08
-2.57793e-06
6.48736e-08
-2.64048e-06
6.25486e-08
-2.70033e-06
5.9852e-08
-2.7571e-06
5.67692e-08
-2.81039e-06
5.32874e-08
-2.85978e-06
4.93957e-08
-2.90487e-06
4.50857e-08
-2.94522e-06
4.03518e-08
-2.98041e-06
3.51918e-08
-3.01002e-06
2.96075e-08
-3.03362e-06
2.36048e-08
-3.05082e-06
1.71952e-08
-3.06122e-06
1.03977e-08
-3.06446e-06
3.24087e-09
-3.06017e-06
-4.28772e-09
-3.04806e-06
-1.21083e-08
-3.02787e-06
-2.01932e-08
-2.99937e-06
-2.84973e-08
-2.9624e-06
-3.69667e-08
-2.91686e-06
-4.55409e-08
-2.86271e-06
-5.41537e-08
-2.79998e-06
-6.27335e-08
-2.72877e-06
-7.12043e-08
-2.64928e-06
-7.94868e-08
-2.56179e-06
-8.74991e-08
-2.46663e-06
-9.51584e-08
-2.36425e-06
-1.02382e-07
-2.25516e-06
-1.0909e-07
-2.13995e-06
-1.15205e-07
-2.01929e-06
-1.20656e-07
-1.89392e-06
-1.25378e-07
-1.7646e-06
-1.29314e-07
-1.63218e-06
-1.32418e-07
-1.49753e-06
-1.34652e-07
-1.36154e-06
-1.35994e-07
-1.22511e-06
-1.36431e-07
-1.08914e-06
-1.35964e-07
-9.54535e-07
-1.34607e-07
-8.22149e-07
-1.32386e-07
-6.9281e-07
-1.29339e-07
-5.67295e-07
-1.25515e-07
-4.46322e-07
-1.20973e-07
-3.30541e-07
-1.15781e-07
-2.20531e-07
-1.1001e-07
-1.1679e-07
-1.0374e-07
-1.97368e-08
-9.70533e-08
7.03059e-08
-9.00426e-08
1.53082e-07
-8.27764e-08
2.28416e-07
-7.53341e-08
2.96213e-07
-6.77967e-08
3.56452e-07
-6.02387e-08
4.09176e-07
-5.27241e-08
4.54486e-07
-4.53106e-08
4.92536e-07
-3.80497e-08
5.2352e-07
-3.09846e-08
5.47672e-07
-2.41511e-08
5.65248e-07
-1.7577e-08
5.76531e-07
-1.12824e-08
5.81812e-07
-5.28143e-09
5.81397e-07
4.15352e-10
5.75576e-07
5.82099e-09
5.64663e-07
1.0913e-08
5.48952e-07
1.57109e-08
5.28735e-07
2.02169e-08
5.043e-07
2.44352e-08
4.75933e-07
2.83674e-08
4.43924e-07
3.20087e-08
4.08579e-07
3.53445e-08
3.70235e-07
3.83444e-08
3.29279e-07
4.09552e-08
2.86188e-07
4.3091e-08
2.41568e-07
4.46198e-08
1.96222e-07
4.53468e-08
1.51228e-07
4.49941e-08
1.08048e-07
4.31794e-08
6.86415e-08
3.94068e-08
3.5547e-08
3.30946e-08
1.1817e-08
2.37299e-08
2.61175e-10
1.15558e-08
2.61109e-10
6.31612e-09
-1.35982e-08
4.45282e-09
-4.30775e-09
-1.58514e-08
2.17295e-08
-5.81024e-08
5.30357e-08
-1.21967e-07
8.35993e-08
-2.0498e-07
1.10594e-07
-3.04e-07
1.32928e-07
-4.15787e-07
1.50523e-07
-5.37362e-07
1.6384e-07
-6.6619e-07
1.73568e-07
-8.00241e-07
1.80458e-07
-9.37977e-07
1.85225e-07
-1.0783e-06
1.88501e-07
-1.22048e-06
1.90815e-07
-1.36411e-06
1.92592e-07
-1.50899e-06
1.94154e-07
-1.65511e-06
1.95736e-07
-1.80257e-06
1.97502e-07
-1.95156e-06
1.99553e-07
-2.1023e-06
2.01944e-07
-2.25503e-06
2.04695e-07
-2.40999e-06
2.07799e-07
-2.56741e-06
2.11232e-07
-2.72749e-06
2.14957e-07
-2.89039e-06
2.18927e-07
-3.05625e-06
2.23093e-07
-3.22515e-06
2.27398e-07
-3.39715e-06
2.31788e-07
-3.57226e-06
2.36204e-07
-3.75044e-06
2.40589e-07
-3.93163e-06
2.44882e-07
-4.11568e-06
2.49024e-07
-4.30246e-06
2.52953e-07
-4.49173e-06
2.56607e-07
-4.68325e-06
2.59925e-07
-4.8767e-06
2.62841e-07
-5.07175e-06
2.65291e-07
-5.26799e-06
2.67209e-07
-5.46497e-06
2.6853e-07
-5.6622e-06
2.69185e-07
-5.85913e-06
2.69109e-07
-6.05518e-06
2.68234e-07
-6.2497e-06
2.66493e-07
-6.442e-06
2.63819e-07
-6.63136e-06
2.60148e-07
-6.81699e-06
2.55415e-07
-6.99808e-06
2.49559e-07
-7.17376e-06
2.4252e-07
-7.34312e-06
2.34242e-07
-7.50525e-06
2.24673e-07
-7.65916e-06
2.13764e-07
-7.80387e-06
2.01474e-07
-7.93835e-06
1.87768e-07
-8.06157e-06
1.72619e-07
-8.17249e-06
1.56008e-07
-8.27007e-06
1.37929e-07
-8.35326e-06
1.18386e-07
-8.42105e-06
9.7397e-08
-8.47244e-06
7.4996e-08
-8.50648e-06
5.12312e-08
-8.52224e-06
2.616e-08
-8.51912e-06
1.16167e-10
-8.49593e-06
-2.74705e-08
-8.45227e-06
-5.57728e-08
-8.38755e-06
-8.49132e-08
-8.30134e-06
-1.14711e-07
-8.19333e-06
-1.44972e-07
-8.06339e-06
-1.75484e-07
-7.91152e-06
-2.06017e-07
-7.73793e-06
-2.36328e-07
-7.54298e-06
-2.66157e-07
-7.32723e-06
-2.95238e-07
-7.09143e-06
-3.23295e-07
-6.83654e-06
-3.50053e-07
-6.56368e-06
-3.75238e-07
-6.27418e-06
-3.98587e-07
-5.96954e-06
-4.19845e-07
-5.65142e-06
-4.38778e-07
-5.32162e-06
-4.55176e-07
-4.98209e-06
-4.68853e-07
-4.63485e-06
-4.79657e-07
-4.28203e-06
-4.87472e-07
-3.9258e-06
-4.92219e-07
-3.56837e-06
-4.9386e-07
-3.21194e-06
-4.92399e-07
-2.85866e-06
-4.87879e-07
-2.51066e-06
-4.80388e-07
-2.16995e-06
-4.70048e-07
-1.83845e-06
-4.5702e-07
-1.51792e-06
-4.41497e-07
-1.21001e-06
-4.23697e-07
-9.16154e-07
-4.03864e-07
-6.37639e-07
-3.82255e-07
-3.7555e-07
-3.59143e-07
-1.30788e-07
-3.34805e-07
9.59511e-08
-3.09515e-07
3.04173e-07
-2.83556e-07
4.93518e-07
-2.57142e-07
6.63839e-07
-2.30559e-07
8.15136e-07
-2.04021e-07
9.47555e-07
-1.77729e-07
1.06137e-06
-1.51863e-07
1.15696e-06
-1.26577e-07
1.23481e-06
-1.01999e-07
1.29547e-06
-7.8234e-08
1.33954e-06
-5.5361e-08
1.3677e-06
-3.3438e-08
1.38062e-06
-1.24997e-08
1.37899e-06
7.44666e-09
1.36356e-06
2.63474e-08
1.33502e-06
4.42456e-08
1.29411e-06
6.11278e-08
1.24155e-06
7.69911e-08
1.1781e-06
9.18193e-08
1.10454e-06
1.05572e-07
1.02171e-06
1.18172e-07
9.30571e-07
1.29485e-07
8.32227e-07
1.39299e-07
7.28025e-07
1.47293e-07
6.19642e-07
1.53002e-07
5.09215e-07
1.55774e-07
3.99481e-07
1.54728e-07
2.93937e-07
1.48724e-07
1.96955e-07
1.36389e-07
1.13784e-07
1.16265e-07
5.02258e-08
8.72878e-08
1.15553e-08
5.02261e-08
1.18165e-08
-1.59498e-09
-1.20032e-08
-2.28679e-08
1.69648e-08
-7.29533e-08
7.18147e-08
-1.547e-07
1.34782e-07
-2.671e-07
1.96e-07
-4.07e-07
2.50494e-07
-5.70275e-07
2.96203e-07
-7.52602e-07
3.32851e-07
-9.49926e-07
3.61164e-07
-1.15871e-06
3.82354e-07
-1.37605e-06
3.978e-07
-1.59969e-06
4.08858e-07
-1.82794e-06
4.16755e-07
-2.05966e-06
4.22538e-07
-2.29413e-06
4.27059e-07
-2.53096e-06
4.3098e-07
-2.77001e-06
4.34793e-07
-3.01136e-06
4.38846e-07
-3.25517e-06
4.43362e-07
-3.50169e-06
4.4847e-07
-3.75122e-06
4.54226e-07
-4.00405e-06
4.60627e-07
-4.26045e-06
4.67631e-07
-4.52066e-06
4.7517e-07
-4.78489e-06
4.83152e-07
-5.05327e-06
4.91476e-07
-5.3259e-06
5.00028e-07
-5.60281e-06
5.08693e-07
-5.88395e-06
5.17348e-07
-6.16923e-06
5.25869e-07
-6.45848e-06
5.3413e-07
-6.75146e-06
5.42002e-07
-7.04786e-06
5.49355e-07
-7.34731e-06
5.56055e-07
-7.64935e-06
5.61969e-07
-7.95347e-06
5.66962e-07
-8.25908e-06
5.70895e-07
-8.5655e-06
5.73631e-07
-8.872e-06
5.75032e-07
-9.17777e-06
5.74959e-07
-9.48194e-06
5.73274e-07
-9.78355e-06
5.69842e-07
-1.00816e-05
5.64527e-07
-1.0375e-05
5.57198e-07
-1.06625e-05
5.47728e-07
-1.09431e-05
5.35992e-07
-1.12154e-05
5.21873e-07
-1.14782e-05
5.0526e-07
-1.173e-05
4.8605e-07
-1.19695e-05
4.64151e-07
-1.21952e-05
4.39481e-07
-1.24057e-05
4.11969e-07
-1.25995e-05
3.81564e-07
-1.27751e-05
3.48227e-07
-1.2931e-05
3.11943e-07
-1.30658e-05
2.72717e-07
-1.3178e-05
2.30578e-07
-1.32662e-05
1.85584e-07
-1.3329e-05
1.37824e-07
-1.33652e-05
8.74209e-08
-1.33736e-05
3.45519e-08
-1.33529e-05
-2.0593e-08
-1.33024e-05
-7.79222e-08
-1.32212e-05
-1.36988e-07
-1.31086e-05
-1.97525e-07
-1.29641e-05
-2.59195e-07
-1.27875e-05
-3.21609e-07
-1.25786e-05
-3.84342e-07
-1.23377e-05
-4.46934e-07
-1.20651e-05
-5.08897e-07
-1.17616e-05
-5.69722e-07
-1.14279e-05
-6.28879e-07
-1.10654e-05
-6.85833e-07
-1.06754e-05
-7.40045e-07
-1.02596e-05
-7.90983e-07
-9.8201e-06
-8.38134e-07
-9.35894e-06
-8.81011e-07
-8.87855e-06
-9.1916e-07
-8.38155e-06
-9.52175e-07
-7.8707e-06
-9.79704e-07
-7.34891e-06
-1.00145e-06
-6.81917e-06
-1.0172e-06
-6.28459e-06
-1.0268e-06
-5.74827e-06
-1.03018e-06
-5.21333e-06
-1.02734e-06
-4.68283e-06
-1.01838e-06
-4.15977e-06
-1.00345e-06
-3.64702e-06
-9.82801e-07
-3.1473e-06
-9.56741e-07
-2.66315e-06
-9.25641e-07
-2.19692e-06
-8.89926e-07
-1.75072e-06
-8.50067e-07
-1.32641e-06
-8.06566e-07
-9.25602e-07
-7.59952e-07
-5.49642e-07
-7.10764e-07
-1.99615e-07
-6.59543e-07
1.23648e-07
-6.06818e-07
4.19618e-07
-5.53112e-07
6.87929e-07
-4.98871e-07
9.28489e-07
-4.44582e-07
1.1414e-06
-3.90641e-07
1.32695e-06
-3.37412e-07
1.48558e-06
-2.8521e-07
1.61788e-06
-2.34301e-07
1.72455e-06
-1.84905e-07
1.80639e-06
-1.37193e-07
1.86424e-06
-9.12934e-08
1.89904e-06
-4.72972e-08
1.91175e-06
-5.26421e-09
1.90334e-06
3.47608e-08
1.87482e-06
7.27628e-08
1.82723e-06
1.08719e-07
1.76163e-06
1.42594e-07
1.67912e-06
1.74325e-07
1.5809e-06
2.03797e-07
1.46825e-06
2.30818e-07
1.34265e-06
2.55082e-07
1.20582e-06
2.76127e-07
1.05983e-06
2.93288e-07
9.07203e-07
3.05629e-07
7.51088e-07
3.11889e-07
5.95395e-07
3.10421e-07
4.44941e-07
2.99178e-07
3.05535e-07
2.75795e-07
1.83926e-07
2.37874e-07
8.7515e-08
1.83698e-07
2.37882e-08
1.13953e-07
3.56047e-08
-1.2192e-08
1.88943e-10
-5.86579e-08
6.34307e-08
-1.44779e-07
1.57936e-07
-2.71246e-07
2.61249e-07
-4.3579e-07
3.60543e-07
-6.34311e-07
4.49016e-07
-8.61865e-07
5.23756e-07
-1.11335e-06
5.84338e-07
-1.38398e-06
6.31795e-07
-1.66955e-06
6.67916e-07
-1.96653e-06
6.94783e-07
-2.27215e-06
7.14476e-07
-2.5843e-06
7.28908e-07
-2.90149e-06
7.39731e-07
-3.22274e-06
7.48307e-07
-3.54747e-06
7.55709e-07
-3.87542e-06
7.62744e-07
-4.20657e-06
7.69989e-07
-4.54103e-06
7.77827e-07
-4.87904e-06
7.86484e-07
-5.22088e-06
7.96064e-07
-5.56683e-06
8.06577e-07
-5.91717e-06
8.17966e-07
-6.27212e-06
8.30123e-07
-6.63187e-06
8.42904e-07
-6.99654e-06
8.56142e-07
-7.36617e-06
8.69654e-07
-7.74072e-06
8.83244e-07
-8.12008e-06
8.96709e-07
-8.50405e-06
9.09838e-07
-8.89233e-06
9.22417e-07
-9.28456e-06
9.34229e-07
-9.68025e-06
9.45051e-07
-1.00789e-05
9.5466e-07
-1.04797e-05
9.62829e-07
-1.08821e-05
9.69329e-07
-1.12851e-05
9.73932e-07
-1.16879e-05
9.76408e-07
-1.20894e-05
9.76529e-07
-1.24885e-05
9.74069e-07
-1.2884e-05
9.68804e-07
-1.32747e-05
9.60517e-07
-1.36592e-05
9.48993e-07
-1.4036e-05
9.34027e-07
-1.44037e-05
9.15421e-07
-1.47607e-05
8.92989e-07
-1.51054e-05
8.66553e-07
-1.54361e-05
8.35953e-07
-1.57511e-05
8.01042e-07
-1.60486e-05
7.61692e-07
-1.63269e-05
7.17792e-07
-1.65842e-05
6.6926e-07
-1.68187e-05
6.16033e-07
-1.70285e-05
5.58082e-07
-1.7212e-05
4.95408e-07
-1.73673e-05
4.28049e-07
-1.74928e-05
3.56084e-07
-1.75869e-05
2.79633e-07
-1.76479e-05
1.98869e-07
-1.76745e-05
1.14015e-07
-1.76654e-05
2.53884e-08
-1.76191e-05
-6.68038e-08
-1.7535e-05
-1.62088e-07
-1.7412e-05
-2.59998e-07
-1.72495e-05
-3.60031e-07
-1.7047e-05
-4.61619e-07
-1.68045e-05
-5.64131e-07
-1.6522e-05
-6.66884e-07
-1.61998e-05
-7.69144e-07
-1.58385e-05
-8.70135e-07
-1.54392e-05
-9.69052e-07
-1.5003e-05
-1.06506e-06
-1.45315e-05
-1.15732e-06
-1.40266e-05
-1.24499e-06
-1.34903e-05
-1.32723e-06
-1.29252e-05
-1.40326e-06
-1.23339e-05
-1.47231e-06
-1.17194e-05
-1.53368e-06
-1.10848e-05
-1.58674e-06
-1.04336e-05
-1.63094e-06
-9.76921e-06
-1.66585e-06
-9.09531e-06
-1.69111e-06
-8.41562e-06
-1.70649e-06
-7.73392e-06
-1.71188e-06
-7.05394e-06
-1.70731e-06
-6.37942e-06
-1.6929e-06
-5.71394e-06
-1.66892e-06
-5.061e-06
-1.63574e-06
-4.4239e-06
-1.59384e-06
-3.80574e-06
-1.5438e-06
-3.20938e-06
-1.48629e-06
-2.6374e-06
-1.42204e-06
-2.09213e-06
-1.35184e-06
-1.57556e-06
-1.27652e-06
-1.0894e-06
-1.19693e-06
-6.35031e-07
-1.11391e-06
-2.13536e-07
-1.02831e-06
1.74297e-07
-9.40945e-07
5.2801e-07
-8.52583e-07
8.47352e-07
-7.63923e-07
1.13235e-06
-6.75642e-07
1.38326e-06
-5.88323e-07
1.60053e-06
-5.02478e-07
1.78478e-06
-4.18545e-07
1.93676e-06
-3.36887e-07
2.05736e-06
-2.57794e-07
2.14756e-06
-1.81491e-07
2.2084e-06
-1.08146e-07
2.24102e-06
-3.7876e-08
2.24655e-06
2.92322e-08
2.22619e-06
9.31143e-08
2.18121e-06
1.53705e-07
2.11289e-06
2.10914e-07
2.02261e-06
2.64601e-07
1.91187e-06
3.1454e-07
1.78231e-06
3.60377e-07
1.63581e-06
4.01577e-07
1.47458e-06
4.37366e-07
1.30121e-06
4.66654e-07
1.11888e-06
4.8796e-07
9.31438e-07
4.99329e-07
7.43583e-07
4.98276e-07
5.60977e-07
4.81784e-07
3.90339e-07
4.46433e-07
2.3946e-07
3.88753e-07
1.17147e-07
3.06011e-07
3.3319e-08
1.97781e-07
6.89238e-08
-2.35371e-08
2.3726e-08
-9.78458e-08
1.37739e-07
-2.23212e-07
2.83301e-07
-3.97462e-07
4.35499e-07
-6.16441e-07
5.79523e-07
-8.74797e-07
7.07371e-07
-1.16668e-06
8.15643e-07
-1.48631e-06
9.03966e-07
-1.82832e-06
9.73802e-07
-2.188e-06
1.0276e-06
-2.56144e-06
1.06821e-06
-2.94547e-06
1.09851e-06
-3.33769e-06
1.12113e-06
-3.73636e-06
1.1384e-06
-4.14028e-06
1.15223e-06
-4.54873e-06
1.16415e-06
-4.96131e-06
1.17532e-06
-5.3779e-06
1.18658e-06
-5.79855e-06
1.19848e-06
-6.22344e-06
1.21138e-06
-6.6528e-06
1.22542e-06
-7.08686e-06
1.24064e-06
-7.52585e-06
1.25696e-06
-7.96996e-06
1.27423e-06
-8.41931e-06
1.29226e-06
-8.87395e-06
1.31079e-06
-9.33385e-06
1.32955e-06
-9.79888e-06
1.34827e-06
-1.02688e-05
1.36663e-06
-1.07433e-05
1.38433e-06
-1.12219e-05
1.40105e-06
-1.17042e-05
1.41646e-06
-1.21893e-05
1.43023e-06
-1.26767e-05
1.44203e-06
-1.31654e-05
1.45151e-06
-1.36544e-05
1.45836e-06
-1.41427e-05
1.46222e-06
-1.46291e-05
1.46277e-06
-1.51122e-05
1.45967e-06
-1.55908e-05
1.45261e-06
-1.60632e-05
1.44126e-06
-1.6528e-05
1.42533e-06
-1.69835e-05
1.40451e-06
-1.7428e-05
1.37852e-06
-1.78597e-05
1.34711e-06
-1.82768e-05
1.31002e-06
-1.86772e-05
1.26702e-06
-1.90592e-05
1.21792e-06
-1.94207e-05
1.16254e-06
-1.97597e-05
1.10071e-06
-2.00742e-05
1.03233e-06
-2.03623e-05
9.57313e-07
-2.06219e-05
8.75603e-07
-2.0851e-05
7.87197e-07
-2.10477e-05
6.92138e-07
-2.12102e-05
5.90518e-07
-2.13366e-05
4.82484e-07
-2.14252e-05
3.68248e-07
-2.14744e-05
2.48084e-07
-2.14827e-05
1.22335e-07
-2.14489e-05
-8.485e-09
-2.13715e-05
-1.44148e-07
-2.12498e-05
-2.83813e-07
-2.10829e-05
-4.26907e-07
-2.08702e-05
-5.72686e-07
-2.06115e-05
-7.20328e-07
-2.03067e-05
-8.68936e-07
-1.99561e-05
-1.01754e-06
-1.95601e-05
-1.16511e-06
-1.91197e-05
-1.31055e-06
-1.8636e-05
-1.45273e-06
-1.81106e-05
-1.5905e-06
-1.75452e-05
-1.72268e-06
-1.69421e-05
-1.84809e-06
-1.63037e-05
-1.9656e-06
-1.56329e-05
-2.0741e-06
-1.49327e-05
-2.17252e-06
-1.42065e-05
-2.25992e-06
-1.34578e-05
-2.33541e-06
-1.26905e-05
-2.39824e-06
-1.19085e-05
-2.4478e-06
-1.1116e-05
-2.48361e-06
-1.03172e-05
-2.50535e-06
-9.51616e-06
-2.51288e-06
-8.71726e-06
-2.50621e-06
-7.92462e-06
-2.48554e-06
-7.14232e-06
-2.45122e-06
-6.37428e-06
-2.40378e-06
-5.62424e-06
-2.34388e-06
-4.8957e-06
-2.27234e-06
-4.19192e-06
-2.19007e-06
-3.51586e-06
-2.09811e-06
-2.87014e-06
-1.99755e-06
-2.2571e-06
-1.88956e-06
-1.67869e-06
-1.77533e-06
-1.13655e-06
-1.65605e-06
-6.31953e-07
-1.53291e-06
-1.65851e-07
-1.40705e-06
2.61124e-07
-1.27956e-06
6.48658e-07
-1.15146e-06
9.96692e-07
-1.02368e-06
1.30543e-06
-8.97063e-07
1.57531e-06
-7.72354e-07
1.80694e-06
-6.50181e-07
2.00113e-06
-5.31072e-07
2.15879e-06
-4.15457e-07
2.28098e-06
-3.03674e-07
2.36881e-06
-1.95982e-07
2.42351e-06
-9.25736e-08
2.44634e-06
6.40332e-09
2.43863e-06
1.00825e-07
2.40177e-06
1.90562e-07
2.33724e-06
2.75448e-07
2.2466e-06
3.5524e-07
2.13157e-06
4.29569e-07
1.99406e-06
4.97883e-07
1.83626e-06
5.5938e-07
1.6607e-06
6.12925e-07
1.4704e-06
6.5696e-07
1.26895e-06
6.89407e-07
1.0607e-06
7.07578e-07
8.5087e-07
7.08106e-07
6.45694e-07
6.8696e-07
4.52558e-07
6.39569e-07
2.80123e-07
5.61189e-07
1.38532e-07
4.47601e-07
3.99444e-08
2.9637e-07
1.08868e-07
-3.52023e-08
5.8928e-08
-1.37945e-07
2.40482e-07
-3.03799e-07
4.49155e-07
-5.27185e-07
6.58885e-07
-8.01647e-07
8.53985e-07
-1.12029e-06
1.02601e-06
-1.47622e-06
1.17157e-06
-1.86292e-06
1.29067e-06
-2.27452e-06
1.3854e-06
-2.70591e-06
1.459e-06
-3.15286e-06
1.51517e-06
-3.61197e-06
1.55762e-06
-4.08062e-06
1.58978e-06
-4.55689e-06
1.61466e-06
-5.03943e-06
1.63477e-06
-5.52738e-06
1.65211e-06
-6.02026e-06
1.6682e-06
-6.51783e-06
1.68416e-06
-7.02008e-06
1.70073e-06
-7.5271e-06
1.71839e-06
-8.03903e-06
1.73735e-06
-8.55606e-06
1.75766e-06
-9.07833e-06
1.77923e-06
-9.60594e-06
1.80185e-06
-1.01389e-05
1.82525e-06
-1.06773e-05
1.84912e-06
-1.12208e-05
1.87307e-06
-1.17692e-05
1.89673e-06
-1.23223e-05
1.91967e-06
-1.28794e-05
1.94147e-06
-1.344e-05
1.96168e-06
-1.40034e-05
1.97987e-06
-1.45688e-05
1.99557e-06
-1.51351e-05
2.00834e-06
-1.57013e-05
2.01771e-06
-1.62662e-05
2.02323e-06
-1.68284e-05
2.02445e-06
-1.73865e-05
2.02092e-06
-1.79391e-05
2.01221e-06
-1.84844e-05
1.99789e-06
-1.90206e-05
1.97755e-06
-1.95461e-05
1.95081e-06
-2.00589e-05
1.91729e-06
-2.0557e-05
1.87665e-06
-2.10385e-05
1.82856e-06
-2.15012e-05
1.77273e-06
-2.19431e-05
1.7089e-06
-2.2362e-05
1.63684e-06
-2.27558e-05
1.55635e-06
-2.31224e-05
1.46729e-06
-2.34596e-05
1.36953e-06
-2.37653e-05
1.26302e-06
-2.40374e-05
1.14773e-06
-2.42739e-05
1.02372e-06
-2.44729e-05
8.91076e-07
-2.46323e-05
7.4997e-07
-2.47505e-05
6.00638e-07
-2.48256e-05
4.43396e-07
-2.48562e-05
2.78646e-07
-2.48407e-05
1.0688e-07
-2.47779e-05
-7.13325e-08
-2.46667e-05
-2.55365e-07
-2.45061e-05
-4.44369e-07
-2.42955e-05
-6.37482e-07
-2.40345e-05
-8.33724e-07
-2.37228e-05
-1.03202e-06
-2.33606e-05
-1.23118e-06
-2.29482e-05
-1.42995e-06
-2.24863e-05
-1.62698e-06
-2.1976e-05
-1.82085e-06
-2.14186e-05
-2.0101e-06
-2.08159e-05
-2.19324e-06
-2.01698e-05
-2.36872e-06
-1.94829e-05
-2.53506e-06
-1.87577e-05
-2.69076e-06
-1.79974e-05
-2.83438e-06
-1.72054e-05
-2.96458e-06
-1.63852e-05
-3.0801e-06
-1.55408e-05
-3.17981e-06
-1.46763e-05
-3.26275e-06
-1.3796e-05
-3.3281e-06
-1.29043e-05
-3.37525e-06
-1.20059e-05
-3.40379e-06
-1.11052e-05
-3.41352e-06
-1.0207e-05
-3.40445e-06
-9.3157e-06
-3.37684e-06
-8.43578e-06
-3.33115e-06
-7.57151e-06
-3.26805e-06
-6.727e-06
-3.1884e-06
-5.90607e-06
-3.09326e-06
-5.1123e-06
-2.98384e-06
-4.34893e-06
-2.86147e-06
-3.61888e-06
-2.7276e-06
-2.92471e-06
-2.58374e-06
-2.2686e-06
-2.43144e-06
-1.65236e-06
-2.27229e-06
-1.07743e-06
-2.10783e-06
-5.44899e-07
-1.93958e-06
-5.54816e-08
-1.76898e-06
3.90427e-07
-1.59737e-06
7.92715e-07
-1.42596e-06
1.15157e-06
-1.25592e-06
1.46742e-06
-1.0882e-06
1.74089e-06
-9.23653e-07
1.97281e-06
-7.62988e-07
2.16414e-06
-6.06788e-07
2.31598e-06
-4.55516e-07
2.42953e-06
-3.09531e-07
2.50607e-06
-1.69112e-07
2.54695e-06
-3.4478e-08
2.5536e-06
9.41765e-08
2.52751e-06
2.16647e-07
2.47029e-06
3.32676e-07
2.38363e-06
4.41897e-07
2.26942e-06
5.43779e-07
2.12975e-06
6.37549e-07
1.96702e-06
7.22108e-07
1.78402e-06
7.95932e-07
1.58401e-06
8.56966e-07
1.37091e-06
9.02507e-07
1.14939e-06
9.29102e-07
9.2502e-07
9.32471e-07
7.04476e-07
9.07503e-07
4.95678e-07
8.48368e-07
3.08052e-07
7.48815e-07
1.52918e-07
6.02735e-07
4.4219e-08
4.05068e-07
1.53087e-07
-4.66059e-08
1.05534e-07
-1.77641e-07
3.71517e-07
-3.84047e-07
6.55561e-07
-6.56735e-07
9.31573e-07
-9.86719e-07
1.18397e-06
-1.36535e-06
1.40464e-06
-1.78456e-06
1.59078e-06
-2.23704e-06
1.74315e-06
-2.71638e-06
1.86474e-06
-3.21713e-06
1.95975e-06
-3.7348e-06
2.03283e-06
-4.2658e-06
2.08862e-06
-4.80737e-06
2.13135e-06
-5.35747e-06
2.16477e-06
-5.91466e-06
2.19196e-06
-6.47797e-06
2.21542e-06
-7.04683e-06
2.23706e-06
-7.62093e-06
2.25825e-06
-8.20016e-06
2.27996e-06
-8.78451e-06
2.30275e-06
-9.37406e-06
2.3269e-06
-9.96889e-06
2.35249e-06
-1.0569e-05
2.37938e-06
-1.11745e-05
2.40733e-06
-1.17853e-05
2.43599e-06
-1.24011e-05
2.46493e-06
-1.30217e-05
2.49369e-06
-1.36467e-05
2.52175e-06
-1.42756e-05
2.54858e-06
-1.49078e-05
2.57363e-06
-1.55424e-05
2.59631e-06
-1.61786e-05
2.61605e-06
-1.68153e-05
2.63227e-06
-1.74513e-05
2.64437e-06
-1.80854e-05
2.65177e-06
-1.87161e-05
2.6539e-06
-1.93418e-05
2.65017e-06
-1.99609e-05
2.64003e-06
-2.05716e-05
2.62295e-06
-2.11722e-05
2.5984e-06
-2.17605e-05
2.56589e-06
-2.23347e-05
2.52496e-06
-2.28925e-05
2.47517e-06
-2.3432e-05
2.41612e-06
-2.39509e-05
2.34745e-06
-2.4447e-05
2.26884e-06
-2.49181e-05
2.18002e-06
-2.5362e-05
2.08074e-06
-2.57765e-05
1.97083e-06
-2.61593e-05
1.85015e-06
-2.65084e-05
1.71861e-06
-2.68216e-05
1.5762e-06
-2.70968e-05
1.42295e-06
-2.73321e-05
1.25896e-06
-2.75254e-05
1.08441e-06
-2.7675e-05
8.99561e-07
-2.77791e-05
7.04743e-07
-2.78361e-05
5.00387e-07
-2.78445e-05
2.87026e-07
-2.78029e-05
6.53249e-08
-2.77102e-05
-1.64092e-07
-2.75652e-05
-4.00271e-07
-2.73674e-05
-6.42246e-07
-2.71159e-05
-8.88926e-07
-2.68106e-05
-1.13909e-06
-2.64512e-05
-1.3914e-06
-2.6038e-05
-1.64439e-06
-2.55714e-05
-1.89652e-06
-2.50523e-05
-2.14611e-06
-2.44817e-05
-2.39142e-06
-2.38611e-05
-2.63066e-06
-2.31924e-05
-2.86196e-06
-2.24777e-05
-3.08345e-06
-2.17195e-05
-3.29327e-06
-2.09207e-05
-3.48957e-06
-2.00845e-05
-3.67058e-06
-1.92144e-05
-3.83463e-06
-1.83144e-05
-3.98016e-06
-1.73884e-05
-4.10575e-06
-1.6441e-05
-4.21019e-06
-1.54766e-05
-4.29247e-06
-1.45e-05
-4.35182e-06
-1.35161e-05
-4.38769e-06
-1.25298e-05
-4.39983e-06
-1.1546e-05
-4.38825e-06
-1.05696e-05
-4.35325e-06
-9.60541e-06
-4.29538e-06
-8.65799e-06
-4.21547e-06
-7.73178e-06
-4.11461e-06
-6.83095e-06
-3.99409e-06
-5.95937e-06
-3.85543e-06
-5.12056e-06
-3.70029e-06
-4.31768e-06
-3.53047e-06
-3.55352e-06
-3.3479e-06
-2.83045e-06
-3.15451e-06
-2.15045e-06
-2.9523e-06
-1.51506e-06
-2.74322e-06
-9.25468e-07
-2.52917e-06
-3.82464e-07
-2.31198e-06
1.1351e-07
-2.09334e-06
5.62383e-07
-1.87484e-06
9.64308e-07
-1.65785e-06
1.31975e-06
-1.44364e-06
1.62939e-06
-1.23329e-06
1.8941e-06
-1.0277e-06
2.11492e-06
-8.27609e-07
2.29302e-06
-6.33615e-07
2.42967e-06
-4.46182e-07
2.52623e-06
-2.65676e-07
2.58415e-06
-9.23945e-08
2.60493e-06
7.33974e-08
2.59016e-06
2.31414e-07
2.54154e-06
3.81298e-07
2.46088e-06
5.22557e-07
2.35018e-06
6.54483e-07
2.21166e-06
7.76067e-07
2.04787e-06
8.85899e-07
1.86175e-06
9.82051e-07
1.65676e-06
1.06195e-06
1.43702e-06
1.12225e-06
1.20741e-06
1.15871e-06
9.73791e-07
1.16609e-06
7.43158e-07
1.13814e-06
5.23889e-07
1.06764e-06
3.26065e-07
9.46639e-07
1.61952e-07
7.66849e-07
4.67736e-08
5.20246e-07
1.99861e-07
-5.76051e-08
1.63139e-07
-2.1631e-07
5.30222e-07
-4.62626e-07
9.01878e-07
-7.83972e-07
1.25292e-06
-1.16875e-06
1.56875e-06
-1.60645e-06
1.84234e-06
-2.08771e-06
2.07204e-06
-2.60436e-06
2.2598e-06
-3.14944e-06
2.40982e-06
-3.71714e-06
2.52745e-06
-4.30274e-06
2.61844e-06
-4.90252e-06
2.6884e-06
-5.51361e-06
2.74245e-06
-6.1339e-06
2.78505e-06
-6.76186e-06
2.81992e-06
-7.39647e-06
2.85003e-06
-8.03707e-06
2.87766e-06
-8.68329e-06
2.90447e-06
-9.33493e-06
2.93159e-06
-9.99189e-06
2.95971e-06
-1.06541e-05
2.98916e-06
-1.13217e-05
3.02002e-06
-1.19944e-05
3.05212e-06
-1.26722e-05
3.08515e-06
-1.33549e-05
3.11868e-06
-1.40422e-05
3.15219e-06
-1.47336e-05
3.18508e-06
-1.54285e-05
3.21672e-06
-1.61264e-05
3.24644e-06
-1.68263e-05
3.27355e-06
-1.75273e-05
3.29733e-06
-1.82284e-05
3.31707e-06
-1.89281e-05
3.33203e-06
-1.96253e-05
3.3415e-06
-2.03182e-05
3.34475e-06
-2.10054e-05
3.34109e-06
-2.16851e-05
3.32982e-06
-2.23553e-05
3.31028e-06
-2.30142e-05
3.28184e-06
-2.36597e-05
3.24389e-06
-2.42897e-05
3.19588e-06
-2.4902e-05
3.13727e-06
-2.54944e-05
3.0676e-06
-2.60648e-05
2.98643e-06
-2.66107e-05
2.89339e-06
-2.713e-05
2.78815e-06
-2.76204e-05
2.67045e-06
-2.80798e-05
2.54008e-06
-2.85058e-05
2.39688e-06
-2.88964e-05
2.24076e-06
-2.92495e-05
2.07169e-06
-2.9563e-05
1.8897e-06
-2.9835e-05
1.69491e-06
-3.00635e-05
1.48748e-06
-3.02468e-05
1.26769e-06
-3.03831e-05
1.03587e-06
-3.04708e-05
7.92472e-07
-3.05085e-05
5.38028e-07
-3.04946e-05
2.73172e-07
-3.04282e-05
-1.13131e-09
-3.03078e-05
-2.84479e-07
-3.01327e-05
-5.75367e-07
-2.99021e-05
-8.72821e-07
-2.96155e-05
-1.17553e-06
-2.92726e-05
-1.48204e-06
-2.88732e-05
-1.79077e-06
-2.84176e-05
-2.10001e-06
-2.79062e-05
-2.4079e-06
-2.73398e-05
-2.71247e-06
-2.67196e-05
-3.01167e-06
-2.60469e-05
-3.30335e-06
-2.53236e-05
-3.58528e-06
-2.45518e-05
-3.85525e-06
-2.3734e-05
-4.111e-06
-2.28733e-05
-4.35033e-06
-2.19728e-05
-4.57109e-06
-2.10362e-05
-4.77125e-06
-2.00674e-05
-4.94891e-06
-1.90708e-05
-5.10235e-06
-1.80509e-05
-5.23008e-06
-1.70126e-05
-5.33083e-06
-1.59607e-05
-5.40363e-06
-1.49006e-05
-5.4478e-06
-1.38375e-05
-5.463e-06
-1.27765e-05
-5.44919e-06
-1.17231e-05
-5.4067e-06
-1.06823e-05
-5.33618e-06
-9.65912e-06
-5.23862e-06
-8.65842e-06
-5.11531e-06
-7.68469e-06
-4.96782e-06
-6.74213e-06
-4.79798e-06
-5.8346e-06
-4.60782e-06
-4.96553e-06
-4.39954e-06
-4.13794e-06
-4.17548e-06
-3.35442e-06
-3.93804e-06
-2.61708e-06
-3.68964e-06
-1.92761e-06
-3.43269e-06
-1.28726e-06
-3.16952e-06
-6.96853e-07
-2.90239e-06
-1.56818e-07
-2.63338e-06
3.3276e-07
-2.36441e-06
7.72134e-07
-2.09722e-06
1.16184e-06
-1.83334e-06
1.50265e-06
-1.5741e-06
1.79555e-06
-1.3206e-06
2.04168e-06
-1.07375e-06
2.24235e-06
-8.34276e-07
2.39892e-06
-6.02758e-07
2.51289e-06
-3.79643e-07
2.58579e-06
-1.653e-07
2.61925e-06
3.99391e-08
2.61496e-06
2.35709e-07
2.57469e-06
4.21561e-07
2.50038e-06
5.96872e-07
2.3941e-06
7.6076e-07
2.25819e-06
9.1198e-07
2.09528e-06
1.0488e-06
1.90845e-06
1.16889e-06
1.70126e-06
1.26914e-06
1.47797e-06
1.34554e-06
1.24364e-06
1.39304e-06
1.00432e-06
1.40541e-06
7.67283e-07
1.37517e-06
5.41284e-07
1.29364e-06
3.36934e-07
1.15099e-06
1.67204e-07
9.36578e-07
4.81588e-08
6.39292e-07
2.48019e-07
-6.81763e-08
2.31315e-07
-2.53686e-07
7.15731e-07
-5.38845e-07
1.18704e-06
-9.07675e-07
1.62175e-06
-1.34597e-06
2.00705e-06
-1.8413e-06
2.33768e-06
-2.38296e-06
2.6137e-06
-2.96188e-06
2.83871e-06
-3.5705e-06
3.01843e-06
-4.20264e-06
3.15959e-06
-4.85339e-06
3.26918e-06
-5.51887e-06
3.35388e-06
-6.19614e-06
3.41972e-06
-6.88304e-06
3.47195e-06
-7.57801e-06
3.51488e-06
-8.27995e-06
3.55198e-06
-8.98817e-06
3.58588e-06
-9.70221e-06
3.61851e-06
-1.04218e-05
3.65117e-06
-1.11467e-05
3.68464e-06
-1.18769e-05
3.71932e-06
-1.26121e-05
3.75525e-06
-1.33522e-05
3.79224e-06
-1.4097e-05
3.82991e-06
-1.4846e-05
3.86772e-06
-1.55989e-05
3.90504e-06
-1.6355e-05
3.94115e-06
-1.71135e-05
3.97529e-06
-1.78737e-05
4.00665e-06
-1.86346e-05
4.03437e-06
-1.93948e-05
4.05761e-06
-2.01533e-05
4.07551e-06
-2.09084e-05
4.08718e-06
-2.16587e-05
4.09178e-06
-2.24024e-05
4.08846e-06
-2.31377e-05
4.07639e-06
-2.38627e-05
4.05479e-06
-2.45753e-05
4.02289e-06
-2.52734e-05
3.97998e-06
-2.59549e-05
3.92539e-06
-2.66176e-05
3.85852e-06
-2.72591e-05
3.7788e-06
-2.78773e-05
3.68575e-06
-2.84698e-05
3.57894e-06
-2.90344e-05
3.458e-06
-2.95689e-05
3.32264e-06
-3.00711e-05
3.17264e-06
-3.05388e-05
3.00782e-06
-3.097e-05
2.82809e-06
-3.13627e-05
2.63342e-06
-3.17148e-05
2.42387e-06
-3.20247e-05
2.19952e-06
-3.22903e-05
1.96057e-06
-3.25101e-05
1.70728e-06
-3.26824e-05
1.43998e-06
-3.28056e-05
1.15911e-06
-3.28784e-05
8.65204e-07
-3.28992e-05
5.58887e-07
-3.2867e-05
2.40922e-07
-3.27803e-05
-8.77915e-08
-3.26385e-05
-4.2635e-07
-3.24403e-05
-7.73485e-07
-3.21852e-05
-1.12791e-06
-3.18726e-05
-1.48816e-06
-3.15021e-05
-1.8526e-06
-3.10734e-05
-2.21943e-06
-3.05867e-05
-2.5867e-06
-3.00423e-05
-2.95229e-06
-2.94408e-05
-3.31394e-06
-2.87832e-05
-3.66927e-06
-2.80708e-05
-4.0158e-06
-2.73051e-05
-4.35095e-06
-2.64883e-05
-4.6721e-06
-2.56227e-05
-4.97662e-06
-2.47111e-05
-5.26189e-06
-2.37568e-05
-5.52536e-06
-2.27635e-05
-5.7646e-06
-2.17351e-05
-5.97731e-06
-2.0676e-05
-6.16141e-06
-1.9591e-05
-6.31506e-06
-1.84851e-05
-6.4367e-06
-1.73637e-05
-6.52509e-06
-1.62321e-05
-6.57936e-06
-1.50961e-05
-6.59901e-06
-1.39614e-05
-6.58395e-06
-1.28335e-05
-6.53451e-06
-1.17183e-05
-6.45139e-06
-1.06212e-05
-6.33574e-06
-9.54747e-06
-6.18906e-06
-8.50209e-06
-6.0132e-06
-7.48973e-06
-5.81034e-06
-6.51464e-06
-5.58291e-06
-5.58064e-06
-5.33355e-06
-4.69105e-06
-5.06507e-06
-3.84872e-06
-4.78037e-06
-3.05597e-06
-4.48239e-06
-2.31463e-06
-4.17403e-06
-1.62602e-06
-3.85814e-06
-9.9098e-07
-3.53742e-06
-4.09936e-07
-3.21442e-06
1.17107e-07
-2.89146e-06
5.90531e-07
-2.57064e-06
1.01098e-06
-2.2538e-06
1.37941e-06
-1.94253e-06
1.69696e-06
-1.63815e-06
1.96498e-06
-1.34177e-06
2.18494e-06
-1.05423e-06
2.3584e-06
-7.76218e-07
2.48701e-06
-5.08257e-07
2.57249e-06
-2.50776e-07
2.61659e-06
-4.16294e-09
2.62114e-06
2.31156e-07
2.58805e-06
4.5465e-07
2.51934e-06
6.65582e-07
2.4172e-06
8.62902e-07
2.28405e-06
1.04514e-06
2.1226e-06
1.21025e-06
1.93601e-06
1.35548e-06
1.72795e-06
1.4772e-06
1.50277e-06
1.57073e-06
1.26564e-06
1.63017e-06
1.02279e-06
1.64826e-06
7.81712e-07
1.61625e-06
5.51469e-07
1.52388e-06
3.43077e-07
1.35938e-06
1.70003e-07
1.10965e-06
4.88123e-08
7.60482e-07
2.96832e-07
-7.83218e-08
3.09637e-07
-2.89659e-07
9.27068e-07
-6.12352e-07
1.50973e-06
-1.02715e-06
2.03655e-06
-1.5173e-06
2.49719e-06
-2.06846e-06
2.88883e-06
-2.66854e-06
3.21379e-06
-3.30755e-06
3.47772e-06
-3.97732e-06
3.6882e-06
-4.6713e-06
3.85357e-06
-5.38434e-06
3.98222e-06
-6.11245e-06
4.08199e-06
-6.85263e-06
4.1599e-06
-7.60266e-06
4.22198e-06
-8.36095e-06
4.27317e-06
-9.12639e-06
4.31741e-06
-9.8982e-06
4.3577e-06
-1.06759e-05
4.39619e-06
-1.14591e-05
4.43435e-06