/*--------------------------------*- C++ -*----------------------------------*\
| =========                 |                                                 |
| \\      /  F ield         | OpenFOAM: The Open Source CFD Toolbox           |
|  \\    /   O peration     | Version:  2406                                  |
|   \\  /    A nd           | Website:  www.openfoam.com                      |
|    \\/     M anipulation  |                                                 |
\*---------------------------------------------------------------------------*/
FoamFile
{
    version     2.0;
    format      ascii;
    arch        "LSB;label=32;scalar=64";
    class       volScalarField;
    location    "21.9";
    object      p;
}
// * * * * * * * * * * * * * * * * * * * * * * * * * * * * * * * * * * * * * //

dimensions      [0 2 -2 0 0 0 0];

internalField   nonuniform List<scalar> 
3600
(
0.0287769
0.0287851
0.0287771
0.0287648
0.0287384
0.0287077
0.0286686
0.0286267
0.0285804
0.0285325
0.0284827
0.0284319
0.0283798
0.0283265
0.0282715
0.0282144
0.0281553
0.0280947
0.0280342
0.0279762
0.0279244
0.0278836
0.0278599
0.0278599
0.0278906
0.0279584
0.0280682
0.028222
0.0284184
0.028651
0.0289082
0.0291733
0.0294247
0.0296379
0.0297874
0.0298499
0.0298071
0.0296491
0.0293759
0.0289987
0.0285377
0.0280212
0.0274792
0.0269426
0.0264358
0.025979
0.0255816
0.0252498
0.024979
0.0247673
0.0246023
0.0244813
0.0243892
0.024328
0.0242812
0.0242583
0.0242405
0.0242455
0.0242474
0.0242667
0.0287687
0.0287768
0.0287674
0.0287556
0.0287309
0.0287027
0.0286667
0.0286284
0.0285862
0.0285431
0.0284986
0.0284539
0.0284085
0.0283624
0.0283151
0.0282662
0.0282155
0.0281631
0.0281103
0.0280588
0.0280117
0.027973
0.027948
0.0279427
0.0279637
0.028017
0.0281078
0.0282387
0.0284094
0.0286146
0.0288444
0.0290831
0.0293107
0.0295034
0.0296365
0.0296871
0.0296369
0.0294763
0.0292052
0.0288351
0.0283861
0.0278865
0.0273659
0.0268545
0.0263749
0.0259454
0.0255733
0.0252632
0.0250092
0.0248093
0.0246511
0.0245331
0.0244406
0.0243771
0.024326
0.0242985
0.0242738
0.0242727
0.0242665
0.0242858
0.0287769
0.0287857
0.0287756
0.0287627
0.028737
0.0287077
0.0286712
0.0286323
0.0285903
0.0285475
0.028504
0.0284606
0.0284171
0.028373
0.0283276
0.0282797
0.0282291
0.0281752
0.0281187
0.0280607
0.0280042
0.0279529
0.0279125
0.0278894
0.0278913
0.0279256
0.0279988
0.0281152
0.0282755
0.0284754
0.0287054
0.0289497
0.0291874
0.0293937
0.0295422
0.0296079
0.0295705
0.0294185
0.0291504
0.0287772
0.0283197
0.0278082
0.0272748
0.0267526
0.0262667
0.0258369
0.0254703
0.0251707
0.0249302
0.0247451
0.0246008
0.0244953
0.0244127
0.0243572
0.0243112
0.0242877
0.0242641
0.0242657
0.0242591
0.0242863
0.0287903
0.0287968
0.0287854
0.0287705
0.0287444
0.0287143
0.0286783
0.0286398
0.0285993
0.0285584
0.0285178
0.0284777
0.028438
0.0283972
0.0283545
0.0283075
0.0282551
0.0281955
0.0281285
0.0280542
0.027975
0.0278946
0.0278191
0.027756
0.0277146
0.0277041
0.0277332
0.0278083
0.0279321
0.0281024
0.0283109
0.0285435
0.0287798
0.0289951
0.0291622
0.0292544
0.0292489
0.0291306
0.0288949
0.0285496
0.0281142
0.0276182
0.0270954
0.0265811
0.0261032
0.0256838
0.0253312
0.0250493
0.0248288
0.0246645
0.02454
0.0244521
0.0243835
0.0243389
0.0242996
0.0242808
0.024258
0.024261
0.0242524
0.0242846
0.0288203
0.0288226
0.0288096
0.0287908
0.0287627
0.0287291
0.0286908
0.0286493
0.0286068
0.0285634
0.0285211
0.0284786
0.028436
0.0283903
0.0283398
0.0282805
0.0282097
0.0281239
0.0280218
0.0279026
0.0277689
0.0276249
0.0274787
0.02734
0.0272212
0.0271345
0.0270922
0.0271035
0.0271745
0.0273054
0.0274908
0.0277184
0.0279691
0.0282187
0.0284387
0.0285998
0.0286748
0.0286427
0.0284918
0.0282233
0.0278509
0.027401
0.026907
0.0264068
0.0259331
0.0255135
0.0251609
0.0248828
0.0246709
0.0245201
0.024412
0.0243421
0.0242908
0.0242621
0.0242356
0.0242275
0.0242115
0.0242205
0.0242142
0.0242513
0.0288589
0.0288546
0.02884
0.0288163
0.0287865
0.0287492
0.028709
0.0286642
0.0286195
0.0285728
0.0285273
0.0284797
0.0284296
0.0283718
0.0283028
0.0282158
0.028106
0.0279674
0.027797
0.0275934
0.0273595
0.0271012
0.0268294
0.0265576
0.0263023
0.0260806
0.0259095
0.0258032
0.0257724
0.025822
0.0259509
0.0261506
0.0264056
0.0266935
0.0269867
0.0272542
0.0274643
0.0275886
0.0276055
0.0275044
0.0272871
0.0269704
0.0265814
0.0261566
0.0257315
0.02534
0.0250025
0.0247332
0.0245289
0.0243872
0.0242905
0.0242339
0.0241964
0.0241811
0.0241662
0.0241675
0.024158
0.0241713
0.0241667
0.0242048
0.0289111
0.0288986
0.0288821
0.0288522
0.0288197
0.0287764
0.028732
0.0286804
0.0286293
0.0285739
0.0285179
0.028455
0.0283839
0.0282955
0.0281835
0.0280371
0.0278485
0.0276087
0.0273137
0.026962
0.0265589
0.0261142
0.0256441
0.0251682
0.0247099
0.0242928
0.0239401
0.0236714
0.0235023
0.0234423
0.0234947
0.023655
0.0239121
0.0242472
0.0246354
0.025046
0.0254452
0.0257979
0.0260717
0.0262409
0.02629
0.0262175
0.026036
0.0257728
0.0254616
0.0251412
0.0248419
0.0245893
0.0243906
0.0242508
0.0241569
0.0241056
0.0240761
0.0240703
0.0240654
0.0240757
0.0240738
0.0240921
0.0240907
0.0241283
0.0289724
0.02895
0.028932
0.0288954
0.0288606
0.0288108
0.0287616
0.0287015
0.0286415
0.0285723
0.0284982
0.0284081
0.0282983
0.028154
0.0279651
0.027715
0.0273927
0.0269865
0.0264929
0.0259129
0.0252574
0.0245436
0.0237966
0.0230449
0.0223203
0.0216535
0.0210733
0.0206034
0.0202629
0.0200641
0.0200133
0.02011
0.0203474
0.0207121
0.0211848
0.0217395
0.0223451
0.0229654
0.0235615
0.0240947
0.02453
0.0248413
0.0250158
0.0250577
0.0249864
0.0248367
0.0246454
0.0244519
0.0242795
0.0241479
0.0240545
0.0240021
0.0239728
0.023969
0.023968
0.0239823
0.0239846
0.0240046
0.0240049
0.0240394
0.0290429
0.0290091
0.0289898
0.0289452
0.0289073
0.0288487
0.0287917
0.0287184
0.0286425
0.0285493
0.0284419
0.0283029
0.0281241
0.0278833
0.0275648
0.0271465
0.0266147
0.0259579
0.0251773
0.0242818
0.0232934
0.0222415
0.0211635
0.0200982
0.0190853
0.0181599
0.017353
0.0166887
0.016185
0.0158534
0.0157002
0.0157258
0.0159269
0.0162951
0.0168182
0.0174787
0.0182541
0.0191154
0.020027
0.0209468
0.0218277
0.022622
0.023286
0.0237886
0.0241165
0.0242811
0.0243118
0.0242555
0.024155
0.0240523
0.0239648
0.0239085
0.0238735
0.023865
0.0238619
0.0238751
0.0238785
0.023898
0.0238993
0.0239298
0.0291192
0.0290726
0.0290528
0.0290001
0.0289591
0.0288905
0.0288235
0.0287322
0.0286325
0.028502
0.0283411
0.0281232
0.0278341
0.0274422
0.0269267
0.0262609
0.0254332
0.024438
0.0232886
0.0220087
0.0206377
0.0192201
0.0178057
0.0164409
0.0151687
0.0140236
0.0130332
0.0122164
0.0115866
0.0111506
0.0109114
0.0108686
0.0110197
0.01136
0.0118837
0.0125824
0.0134455
0.0144574
0.0155958
0.0168293
0.018115
0.0193982
0.0206146
0.0216979
0.0225889
0.0232511
0.0236776
0.0238996
0.0239683
0.0239504
0.0238942
0.0238413
0.0237988
0.0237796
0.0237677
0.0237734
0.0237725
0.0237874
0.0237871
0.0238128
0.0291959
0.029135
0.0291151
0.029053
0.0290077
0.0289254
0.0288431
0.0287248
0.0285876
0.0283986
0.0281536
0.0278142
0.0273586
0.0267462
0.0259533
0.0249546
0.0237483
0.0223442
0.0207764
0.0190902
0.0173439
0.0155955
0.0139019
0.0123102
0.0108594
0.00957637
0.00848047
0.00758199
0.00688663
0.00639492
0.00610571
0.00601555
0.00612134
0.00641953
0.00690794
0.00758471
0.00844882
0.00949804
0.0107273
0.0121247
0.0136671
0.0153149
0.0170079
0.0186658
0.0201937
0.0214986
0.0225087
0.0231992
0.0235945
0.023768
0.0238017
0.0237765
0.0237328
0.0237009
0.0236755
0.0236681
0.0236584
0.0236654
0.0236616
0.0236826
0.0292685
0.0291924
0.0291733
0.0291013
0.0290507
0.0289515
0.028848
0.0286916
0.028499
0.0282237
0.0278545
0.0273396
0.0266503
0.0257399
0.024589
0.0231831
0.0215416
0.0196992
0.0177169
0.0156612
0.0136048
0.0116106
0.00973324
0.00801146
0.00647358
0.00513494
0.00400446
0.00308349
0.00237102
0.00186246
0.00155332
0.00143786
0.00151183
0.00177133
0.00221501
0.00284319
0.00365933
0.00466889
0.00587899
0.00729543
0.00891863
0.010737
0.0127181
0.0148008
0.0168894
0.0188597
0.0205755
0.0219259
0.0228562
0.0233962
0.0236352
0.0236966
0.023674
0.0236339
0.0235923
0.023567
0.0235437
0.0235392
0.0235295
0.0235457
0.0293252
0.0292326
0.0292143
0.0291305
0.0290713
0.0289487
0.0288135
0.0286021
0.0283282
0.0279293
0.0273859
0.0266327
0.0256379
0.0243563
0.0227836
0.0209285
0.0188415
0.0165871
0.0142511
0.0119132
0.00964928
0.00751553
0.00555494
0.00379169
0.00224071
0.000905593
-0.000213376
-0.00112119
-0.00182272
-0.00232511
-0.00263417
-0.00275664
-0.00269743
-0.00246127
-0.00205032
-0.00146507
-0.000702273
0.000244693
0.00138687
0.0027388
0.00431642
0.00613285
0.00818944
0.0104651
0.0129004
0.0153884
0.0177725
0.0198712
0.0215228
0.0226477
0.0232768
0.0235404
0.0235922
0.023561
0.023506
0.0234601
0.0234199
0.0234009
0.0233833
0.0233948
0.0293588
0.0292495
0.0292324
0.0291352
0.0290641
0.028911
0.0287315
0.0284443
0.0280576
0.0274909
0.0267165
0.0256596
0.024293
0.0225847
0.0205584
0.0182562
0.0157635
0.0131705
0.010577
0.0080624
0.00569311
0.00350895
0.00153631
-0.000216136
-0.00174498
-0.00305496
-0.00415039
-0.00503887
-0.00572584
-0.00621849
-0.00652206
-0.00664303
-0.00658625
-0.00635711
-0.005959
-0.00539442
-0.0046627
-0.00376004
-0.00267771
-0.0014014
8.87364e-05
0.00181753
0.00380898
0.0060791
0.0086182
0.0113732
0.014225
0.0169852
0.0194187
0.0213127
0.0225601
0.0232146
0.0234491
0.0234697
0.0234132
0.0233467
0.023287
0.0232507
0.0232232
0.0232293
0.0293505
0.0292238
0.0292067
0.0290925
0.0290028
0.0288077
0.028566
0.0281758
0.0276383
0.0268549
0.0257927
0.0243748
0.0225901
0.0204326
0.0179642
0.0152636
0.0124458
0.00961414
0.0068675
0.00427152
0.00187407
-0.000304843
-0.00225473
-0.00397899
-0.00548104
-0.0067693
-0.00784868
-0.00872621
-0.0094057
-0.00989283
-0.0101913
-0.0103068
-0.0102437
-0.0100079
-0.0096038
-0.00903616
-0.0083074
-0.00741772
-0.00636339
-0.005135
-0.00371685
-0.00208422
-0.000206315
0.00195305
0.00442179
0.00720502
0.0102533
0.0134362
0.0165266
0.0192308
0.0212822
0.0225608
0.0231619
0.0233242
0.0232966
0.0232157
0.0231358
0.0230792
0.0230403
0.0230394
0.0292908
0.0291473
0.0291289
0.0289945
0.028879
0.0286298
0.0283056
0.0277828
0.0270541
0.0260055
0.0246054
0.0227857
0.0205639
0.0179705
0.0151095
0.0120899
0.00904362
0.00607077
0.00325566
0.000641669
-0.00174414
-0.00389958
-0.00582531
-0.00753136
-0.00902294
-0.0103082
-0.0113896
-0.0122719
-0.0129561
-0.0134459
-0.0137431
-0.0138526
-0.0137781
-0.0135258
-0.0131011
-0.0125105
-0.0117591
-0.010851
-0.00978771
-0.00856614
-0.00717816
-0.00560573
-0.00382268
-0.00178946
0.000538056
0.0032039
0.00622324
0.00955128
0.0130381
0.0164075
0.0193013
0.0213997
0.022603
0.0230727
0.0231378
0.0230606
0.0229628
0.0228822
0.0228302
0.0228191
0.0291554
0.0289951
0.0289723
0.0288117
0.0286597
0.0283403
0.0279096
0.0272216
0.0262622
0.0249071
0.0231353
0.020899
0.018255
0.0152744
0.012098
0.00885262
0.00567024
0.0026341
-0.000194169
-0.00279525
-0.00515981
-0.00729801
-0.00921571
-0.0109244
-0.0124273
-0.0137297
-0.0148303
-0.0157308
-0.0164293
-0.0169276
-0.0172262
-0.0173288
-0.0172393
-0.016964
-0.0165091
-0.0158823
-0.015091
-0.0141419
-0.0130411
-0.0117908
-0.0103909
-0.00883194
-0.00709788
-0.00515611
-0.0029638
-0.00046183
0.00240405
0.0056628
0.00926539
0.0130295
0.0166185
0.0195909
0.0216065
0.0226148
0.0229012
0.0228642
0.0227591
0.0226502
0.0225828
0.0225574
0.0289355
0.0287596
0.0287292
0.0285372
0.0283383
0.0279329
0.0273723
0.0264894
0.025266
0.0235757
0.0214181
0.0187765
0.0157524
0.0124542
0.00904789
0.0056618
0.00241416
-0.000637294
-0.00345509
-0.00604052
-0.00839606
-0.010538
-0.0124721
-0.0142078
-0.0157439
-0.0170817
-0.0182159
-0.0191451
-0.0198651
-0.020376
-0.0206773
-0.0207723
-0.020665
-0.0203619
-0.0198702
-0.0191986
-0.0183562
-0.0173515
-0.016194
-0.0148897
-0.0134447
-0.0118574
-0.0101229
-0.00821977
-0.00611666
-0.00375714
-0.00107463
0.00200394
0.00551324
0.00938913
0.0134038
0.0171208
0.0200401
0.021808
0.0225318
0.0226047
0.0225158
0.0223769
0.0222906
0.0222456
0.0286059
0.0284152
0.0283719
0.0281413
0.0278826
0.0273742
0.0266606
0.0255575
0.0240471
0.0220101
0.0194761
0.0164661
0.0131246
0.00958821
0.00603301
0.0025745
-0.000691899
-0.00373595
-0.00654099
-0.0091229
-0.0114896
-0.0136583
-0.0156312
-0.0174135
-0.0189986
-0.020384
-0.0215605
-0.0225242
-0.0232689
-0.0237935
-0.0240968
-0.0241822
-0.0240537
-0.0237188
-0.0231856
-0.0224638
-0.0215641
-0.0204963
-0.0192722
-0.0178999
-0.0163904
-0.014747
-0.0129745
-0.011062
-0.00899359
-0.00672488
-0.00419633
-0.00131999
0.00198826
0.00576428
0.00991792
0.0141234
0.0178585
0.0205214
0.0219152
0.0222568
0.0222081
0.0220537
0.0219412
0.0218715
0.028164
0.0279606
0.0278998
0.0276251
0.0272957
0.0266707
0.0257867
0.0244471
0.0226402
0.020263
0.0173814
0.0140556
0.0104669
0.00676653
0.0031268
-0.000359509
-0.00362288
-0.00665787
-0.0094628
-0.0120617
-0.0144627
-0.0166803
-0.0187113
-0.0205558
-0.0222021
-0.023644
-0.024869
-0.0258712
-0.0266425
-0.0271811
-0.0274853
-0.0275585
-0.0274056
-0.0270346
-0.0264554
-0.0256785
-0.0247168
-0.0235809
-0.0222848
-0.0208375
-0.0192533
-0.0175379
-0.0157035
-0.013747
-0.0116668
-0.00943339
-0.00700437
-0.0042975
-0.00121239
0.00234943
0.006419
0.0108254
0.0151475
0.0186912
0.0209176
0.0217711
0.0218129
0.0216661
0.0215256
0.0214233
0.0275907
0.027376
0.0272917
0.0269666
0.0265557
0.0258025
0.0247359
0.0231532
0.0210544
0.0183601
0.015175
0.0115954
0.00782847
0.00402743
0.000349874
-0.00313862
-0.00639298
-0.00942723
-0.0122485
-0.0148837
-0.0173376
-0.0196201
-0.0217218
-0.0236379
-0.0253524
-0.0268555
-0.0281322
-0.0291746
-0.0299731
-0.030525
-0.0308283
-0.0308865
-0.0307054
-0.030294
-0.029664
-0.0288274
-0.0277994
-0.0265917
-0.0252207
-0.0236957
-0.0220334
-0.0202401
-0.0183326
-0.0163122
-0.0141889
-0.0119461
-0.00956176
-0.00696971
-0.00407718
-0.000760077
0.0030945
0.00746023
0.0120913
0.0163376
0.0194661
0.0210232
0.0213281
0.0211771
0.0210387
0.020883
0.0268957
0.0266729
0.0265606
0.0261819
0.0256829
0.0247964
0.0235438
0.0217231
0.0193503
0.0163747
0.0129382
0.00916642
0.00528089
0.00142607
-0.00226148
-0.00574334
-0.00899472
-0.012043
-0.0148991
-0.0175885
-0.0201109
-0.0224707
-0.0246529
-0.0266481
-0.0284364
-0.0300053
-0.031337
-0.0324219
-0.0332488
-0.0338139
-0.0341151
-0.0341559
-0.0339431
-0.0334868
-0.0328011
-0.0318995
-0.0308003
-0.0295164
-0.0280674
-0.0264624
-0.0247211
-0.0228483
-0.0208646
-0.0187717
-0.0165882
-0.0143063
-0.0119229
-0.00939087
-0.00663852
-0.00354277
4.79889e-05
0.00421559
0.00889767
0.0135856
0.0175486
0.0198994
0.0207272
0.0205635
0.0204659
0.0202364
0.0260715
0.025843
0.0256982
0.0252631
0.0246712
0.0236503
0.0222152
0.0201708
0.0175519
0.014338
0.0107037
0.00679591
0.00283972
-0.00103632
-0.00471892
-0.00819381
-0.0114514
-0.0145272
-0.0174315
-0.0201869
-0.0227868
-0.0252305
-0.0274978
-0.0295756
-0.0314405
-0.0330773
-0.0344659
-0.0355945
-0.0364502
-0.0370283
-0.0373261
-0.0373471
-0.0370995
-0.0365942
-0.0358483
-0.0348766
-0.0337014
-0.0323369
-0.0308066
-0.0291196
-0.0272988
-0.0253475
-0.0232887
-0.0211225
-0.0188732
-0.0165367
-0.0141258
-0.0116102
-0.00894432
-0.00602191
-0.00268685
0.0012079
0.00574546
0.0106161
0.0152053
0.0183776
0.0198961
0.0198407
0.0197632
0.0194765
0.0251438
0.0249138
0.0247342
0.024244
0.0235596
0.0224106
0.020805
0.0185603
0.0157305
0.0123248
0.00854387
0.00454719
0.000555319
-0.00332277
-0.00699624
-0.0104704
-0.013746
-0.016862
-0.0198263
-0.0226567
-0.025341
-0.0278736
-0.0302299
-0.0323937
-0.0343385
-0.0360461
-0.0374942
-0.0386684
-0.0395545
-0.040146
-0.0404402
-0.0404402
-0.0401556
-0.0395982
-0.0387882
-0.0377419
-0.0364863
-0.0350366
-0.0334214
-0.0316497
-0.0297488
-0.0277195
-0.0255884
-0.0233515
-0.0210374
-0.0186415
-0.0161884
-0.0136601
-0.0110367
-0.00823557
-0.0051175
-0.00151016
0.00276631
0.0076014
0.0125488
0.0164848
0.0187226
0.0190206
0.018891
0.0185977
0.0241175
0.0238896
0.0236733
0.02313
0.0223558
0.0210883
0.0193289
0.0169117
0.0139082
0.0103551
0.00647137
0.00242252
-0.00158124
-0.00545088
-0.00911557
-0.0125953
-0.0158972
-0.0190608
-0.0220904
-0.0249988
-0.0277687
-0.0303905
-0.032836
-0.0350857
-0.0371105
-0.0388894
-0.0403973
-0.0416176
-0.0425343
-0.0431392
-0.0434292
-0.0434071
-0.0430841
-0.0424724
-0.0415958
-0.040472
-0.0391328
-0.0375944
-0.0358916
-0.0340328
-0.0320512
-0.0299448
-0.0277443
-0.0254408
-0.0230667
-0.0206134
-0.0181143
-0.0155576
-0.0129462
-0.0102215
-0.00727171
-0.00393009
3.84158e-05
0.00467524
0.00973716
0.014265
0.0171924
0.0180513
0.0178495
0.0175807
0.0230325
0.0228122
0.0225602
0.0219697
0.0211132
0.0197424
0.0178513
0.0152937
0.0121553
0.00849646
0.0045473
0.000473982
-0.00352675
-0.00738423
-0.0110441
-0.0145367
-0.0178724
-0.0210894
-0.0241877
-0.0271758
-0.030032
-0.032743
-0.0352776
-0.0376136
-0.0397189
-0.0415698
-0.0431386
-0.0444058
-0.0453539
-0.0459727
-0.0462593
-0.0462152
-0.0458538
-0.0451874
-0.0442438
-0.043041
-0.041617
-0.0399881
-0.0381962
-0.036249
-0.0341864
-0.0320034
-0.0297364
-0.0273705
-0.0249426
-0.0224372
-0.0198948
-0.0173044
-0.0146877
-0.0120062
-0.00917946
-0.0060648
-0.0024044
0.00193236
0.00692053
0.0117935
0.0153594
0.0168395
0.0166701
0.0163996
0.0219018
0.0216933
0.0214069
0.0207752
0.0198448
0.0183871
0.0163875
0.0137204
0.0104818
0.00675189
0.00276549
-0.00131357
-0.00530303
-0.00914755
-0.0128061
-0.0163152
-0.0196871
-0.0229573
-0.0261223
-0.0291862
-0.0321243
-0.0349199
-0.0375394
-0.0399579
-0.0421405
-0.0440605
-0.045688
-0.0470004
-0.047979
-0.0486111
-0.0488941
-0.0488282
-0.0484293
-0.0477088
-0.0466992
-0.0454183
-0.0439104
-0.0421915
-0.0403113
-0.0382758
-0.0361334
-0.033875
-0.0315448
-0.0291205
-0.0266452
-0.0240945
-0.0215156
-0.018893
-0.0162644
-0.0136047
-0.0108654
-0.00793469
-0.00455776
-0.000566375
0.00421332
0.00918448
0.0132945
0.0153411
0.0153881
0.0150497
0.0207736
0.020583
0.0202662
0.0196026
0.0186102
0.0170853
0.0150026
0.0122579
0.00895235
0.00518214
0.00118139
-0.00288999
-0.00686388
-0.0106968
-0.0143576
-0.0178865
-0.0212957
-0.0246182
-0.027847
-0.0309829
-0.0339984
-0.0368743
-0.0395746
-0.0420717
-0.0443285
-0.046315
-0.0479993
-0.0493557
-0.0503642
-0.0510098
-0.0512905
-0.0512045
-0.0507705
-0.0499987
-0.0489266
-0.0475707
-0.0459825
-0.0441766
-0.0422112
-0.0400899
-0.0378704
-0.0355393
-0.0331494
-0.030671
-0.0281547
-0.0255654
-0.0229583
-0.0203087
-0.0176692
-0.0150198
-0.0123438
-0.00955766
-0.00643037
-0.00278761
0.00169348
0.0065644
0.0110652
0.0135819
0.0140026
0.0135418
0.0196607
0.0194921
0.019149
0.0184617
0.0174185
0.0158445
0.0137017
0.010907
0.00756144
0.00377405
-0.00022576
-0.00428176
-0.0082387
-0.0120611
-0.0157254
-0.0192728
-0.0227159
-0.0260843
-0.0293691
-0.032568
-0.0356516
-0.0385984
-0.0413707
-0.043938
-0.0462615
-0.0483077
-0.0500433
-0.0514392
-0.052475
-0.0531324
-0.053411
-0.053306
-0.0528399
-0.0520202
-0.0508905
-0.0494646
-0.047802
-0.0459144
-0.0438694
-0.041667
-0.0393755
-0.0369756
-0.034531
-0.032003
-0.029452
-0.0268306
-0.0242039
-0.0215343
-0.0188893
-0.016246
-0.013619
-0.0109457
-0.00803371
-0.00471755
-0.000587715
0.004044
0.00874174
0.0116217
0.0124773
0.0118897
0.0186123
0.0184717
0.0181088
0.0174086
0.0163282
0.014725
0.0125461
0.00972861
0.00636872
0.00258512
-0.00140054
-0.00543514
-0.0093744
-0.0131875
-0.016856
-0.0204206
-0.0238936
-0.027302
-0.0306353
-0.0338888
-0.0370319
-0.0400408
-0.0428766
-0.0455061
-0.0478891
-0.0499888
-0.0517709
-0.0532026
-0.0542639
-0.0549328
-0.0552108
-0.0550898
-0.0545963
-0.0537344
-0.0525543
-0.0510658
-0.0493373
-0.0473757
-0.0452596
-0.0429832
-0.0406269
-0.0381641
-0.0356709
-0.0330982
-0.030519
-0.0278715
-0.0252333
-0.0225506
-0.0199075
-0.0172709
-0.0146866
-0.0121025
-0.00937547
-0.00635253
-0.00259563
0.00170887
0.00640632
0.0095347
0.010792
0.0101207
0.0176329
0.0175233
0.0171463
0.0164419
0.0153358
0.0137201
0.0115252
0.00870697
0.00535232
0.00158739
-0.00237608
-0.00638637
-0.0103082
-0.0141119
-0.0177825
-0.0213591
-0.024854
-0.0282917
-0.0316615
-0.0349565
-0.0381457
-0.041203
-0.0440893
-0.0467683
-0.0491993
-0.0513421
-0.0531622
-0.0546229
-0.0557053
-0.056383
-0.0566606
-0.0565255
-0.0560092
-0.0551109
-0.0538882
-0.0523456
-0.050561
-0.0485352
-0.0463582
-0.0440169
-0.041605
-0.0390865
-0.0365522
-0.0339406
-0.0313397
-0.0286714
-0.0260292
-0.0233396
-0.0207062
-0.0180789
-0.0155359
-0.0130249
-0.0104579
-0.00769195
-0.00430621
-0.00037784
0.00415142
0.00740492
0.00897901
0.00828546
0.0167677
0.0166938
0.0163111
0.0156137
0.0144956
0.0128853
0.0106953
0.00789876
0.00456941
0.000838477
-0.00309382
-0.00707598
-0.0109796
-0.0147734
-0.0184443
-0.0220284
-0.0255383
-0.0289964
-0.0323922
-0.0357171
-0.0389404
-0.0420342
-0.0449591
-0.0476763
-0.050145
-0.0523217
-0.0541727
-0.0556569
-0.0567576
-0.0574433
-0.0577226
-0.057577
-0.0570444
-0.0561176
-0.0548624
-0.0532763
-0.0514477
-0.0493692
-0.0471437
-0.0447484
-0.0422918
-0.0397265
-0.0371597
-0.0345155
-0.0318996
-0.0292153
-0.0265755
-0.0238839
-0.0212672
-0.0186524
-0.0161523
-0.0137034
-0.011277
-0.00873346
-0.00570163
-0.00216845
0.00206903
0.00532406
0.00711666
0.00645278
0.016006
0.0159689
0.015587
0.0149047
0.0137855
0.0121947
0.0100264
0.00726942
0.00398087
0.000295298
-0.00359987
-0.00755151
-0.0114362
-0.0152184
-0.0188852
-0.0224692
-0.0259837
-0.0294491
-0.0328564
-0.0361955
-0.0394371
-0.0425509
-0.0454987
-0.0482386
-0.0507313
-0.0529292
-0.0548007
-0.0562999
-0.0574134
-0.0581039
-0.058385
-0.0582312
-0.0576879
-0.0567394
-0.0554616
-0.0538424
-0.0519823
-0.0498631
-0.0476022
-0.0451644
-0.0426751
-0.0400724
-0.0374825
-0.034812
-0.0321878
-0.0294914
-0.0268593
-0.0241688
-0.0215744
-0.0189744
-0.0165196
-0.014125
-0.0118244
-0.00947172
-0.00676807
-0.00362665
0.000239044
0.00338304
0.00529883
0.00469432
0.0153879
0.0153899
0.0150182
0.0143622
0.0132554
0.0117
0.00957197
0.0068739
0.00364407
1.79314e-05
-0.00383087
-0.00774707
-0.0116104
-0.0153788
-0.0190385
-0.022617
-0.0261283
-0.0295912
-0.0329987
-0.0363396
-0.0395863
-0.0427067
-0.0456643
-0.0484142
-0.0509194
-0.0531281
-0.0550122
-0.0565201
-0.0576435
-0.0583375
-0.0586229
-0.0584652
-0.0579187
-0.0569576
-0.0556688
-0.0540285
-0.0521509
-0.0500044
-0.0477224
-0.0452548
-0.0427457
-0.0401155
-0.0375124
-0.0348217
-0.0321957
-0.02949
-0.0268698
-0.0241816
-0.0216135
-0.0190285
-0.0166214
-0.0142745
-0.0120886
-0.0098983
-0.00749378
-0.00472455
-0.00127535
0.00166431
0.00361257
0.00307516
0.0148836
0.0149223
0.0145674
0.0139447
0.0128609
0.0113526
0.00927962
0.00665648
0.00350043
-5.40427e-05
-0.00384846
-0.00772435
-0.0115634
-0.0153147
-0.018962
-0.0225271
-0.0260248
-0.0294721
-0.0328652
-0.0361917
-0.0394273
-0.0425375
-0.0454889
-0.048233
-0.0507366
-0.0529431
-0.0548294
-0.0563372
-0.0574649
-0.0581591
-0.058449
-0.0582896
-0.0577457
-0.056779
-0.0554894
-0.0538386
-0.0519564
-0.0497948
-0.0475055
-0.0450197
-0.0425031
-0.0398546
-0.0372476
-0.0345422
-0.0319198
-0.0292062
-0.0266006
-0.0239135
-0.0213734
-0.0188016
-0.0164431
-0.014137
-0.0120568
-0.0100031
-0.00786856
-0.00544113
-0.00242732
0.000237685
0.0021307
0.00165183
0.0145307
0.0146058
0.0142771
0.0136982
0.0126515
0.0112048
0.00920411
0.00667421
0.00361067
0.000144107
-0.00358308
-0.00741021
-0.0112197
-0.0149504
-0.0185822
-0.0221295
-0.0256076
-0.0290314
-0.0324005
-0.0357017
-0.0389147
-0.0420025
-0.0449361
-0.0476627
-0.0501547
-0.0523495
-0.0542311
-0.0557332
-0.0568629
-0.0575566
-0.0578539
-0.0576971
-0.0571638
-0.0562003
-0.0549216
-0.0532722
-0.0513993
-0.0492353
-0.0469529
-0.0444608
-0.0419491
-0.039291
-0.0366891
-0.0339732
-0.0313594
-0.0286375
-0.0260478
-0.0233584
-0.0208461
-0.0182827
-0.0159722
-0.013699
-0.0117166
-0.00977546
-0.00788321
-0.0057604
-0.00318253
-0.000838799
0.000914723
0.000475966
0.0142775
0.0143829
0.0140855
0.013556
0.0125569
0.0111821
0.00926766
0.00684689
0.00389315
0.000530878
-0.00311568
-0.00688391
-0.0106571
-0.0143619
-0.017973
-0.021496
-0.0249462
-0.0283358
-0.0316689
-0.0349311
-0.0381076
-0.0411584
-0.0440605
-0.046756
-0.0492247
-0.0513965
-0.0532649
-0.0547538
-0.0558814
-0.0565715
-0.056877
-0.0567247
-0.0562072
-0.055253
-0.0539945
-0.0523553
-0.0505032
-0.0483471
-0.0460834
-0.0435941
-0.0410978
-0.0384367
-0.0358469
-0.0331226
-0.0305201
-0.0277873
-0.0252128
-0.0225149
-0.0200281
-0.0174655
-0.0152003
-0.01295
-0.011058
-0.00920617
-0.00753045
-0.00567075
-0.00351591
-0.00151655
2.01578e-05
-0.000401098
0.0141668
0.0142995
0.0140413
0.0135707
0.012634
0.0113449
0.00953334
0.00723969
0.00441653
0.0011788
-0.00236839
-0.00606351
-0.00979043
-0.0134639
-0.0170515
-0.0205483
-0.0239686
-0.0273204
-0.0306128
-0.0338294
-0.0369623
-0.0399679
-0.042831
-0.0454874
-0.0479263
-0.0500689
-0.0519202
-0.0533923
-0.0545174
-0.0552042
-0.0555216
-0.055378
-0.0548842
-0.0539468
-0.0527193
-0.0511001
-0.0492811
-0.0471429
-0.0449102
-0.0424324
-0.0399615
-0.0373023
-0.034731
-0.0319984
-0.0294091
-0.0266606
-0.0240991
-0.0213842
-0.0189189
-0.0163467
-0.014123
-0.0118832
-0.0100742
-0.0082885
-0.00680556
-0.0051645
-0.00340916
-0.00175397
-0.000498671
-0.000924136
0.0141217
0.0142727
0.0140555
0.0136467
0.0127823
0.0115885
0.00989353
0.00774341
0.00507115
0.00198021
-0.00144641
-0.00505003
-0.00871746
-0.0123501
-0.0159085
-0.0193743
-0.0227603
-0.0260684
-0.0293135
-0.0324758
-0.0355566
-0.0385071
-0.0413225
-0.0439304
-0.0463323
-0.048438
-0.0502674
-0.0517178
-0.0528386
-0.0535203
-0.0538512
-0.0537176
-0.0532523
-0.052336
-0.0511468
-0.0495535
-0.0477765
-0.0456624
-0.0434693
-0.0410076
-0.0385687
-0.0359128
-0.033363
-0.030619
-0.0280417
-0.0252696
-0.0227167
-0.0199734
-0.0175237
-0.0149289
-0.0127411
-0.0104973
-0.00876407
-0.00702033
-0.00570838
-0.00423892
-0.00285074
-0.00151611
-0.000586829
-0.0010325
0.0142023
0.0143682
0.014196
0.0138565
0.0130783
0.0119931
0.0104305
0.00844091
0.00594131
0.00302092
-0.000259983
-0.00375039
-0.00734142
-0.0109233
-0.0144483
-0.0178833
-0.0212376
-0.0245047
-0.027705
-0.0308138
-0.0338427
-0.0367365
-0.0395031
-0.0420602
-0.0444243
-0.0464914
-0.0482992
-0.0497276
-0.0508468
-0.0515251
-0.0518746
-0.051755
-0.0513255
-0.0504361
-0.0492943
-0.0477336
-0.0460084
-0.0439247
-0.0417798
-0.0393381
-0.0369374
-0.0342846
-0.0317587
-0.0289981
-0.026431
-0.0236253
-0.0210758
-0.0182906
-0.0158501
-0.0132175
-0.0110602
-0.00879554
-0.00713164
-0.00540482
-0.00424454
-0.00289734
-0.00183701
-0.000776145
-0.000190207
-0.000661655
0.0143006
0.0144712
0.0143411
0.0140696
0.013385
0.0124173
0.0110002
0.00918761
0.00688285
0.00416064
0.001055
-0.00229313
-0.00578452
-0.0092982
-0.0127803
-0.0161792
-0.0195012
-0.0227267
-0.0258832
-0.0289372
-0.0319137
-0.0347478
-0.0374643
-0.039967
-0.0422922
-0.0443178
-0.0461043
-0.047509
-0.048628
-0.0493027
-0.0496737
-0.0495691
-0.0491801
-0.0483194
-0.0472305
-0.0457046
-0.0440367
-0.0419843
-0.0398922
-0.0374691
-0.0351083
-0.0324536
-0.02995
-0.0271633
-0.0246012
-0.0217484
-0.0191951
-0.0163518
-0.0139134
-0.0112257
-0.00909343
-0.00678916
-0.00518959
-0.00345296
-0.0024283
-0.00115143
-0.000375429
0.000480778
0.000738685
0.000250723
0.0145126
0.0146864
0.0145978
0.0143977
0.0138167
0.0129781
0.01172
0.0100988
0.00800841
0.0055082
0.00260685
-0.000570204
-0.00393628
-0.00736386
-0.0107937
-0.0141553
-0.0174501
-0.0206427
-0.023766
-0.0267749
-0.0297089
-0.0324906
-0.0351645
-0.0376178
-0.0399103
-0.0418982
-0.0436693
-0.0450538
-0.0461788
-0.0468533
-0.0472526
-0.0471668
-0.0468254
-0.0459972
-0.0449688
-0.0434807
-0.041877
-0.0398573
-0.0378229
-0.0354167
-0.0330979
-0.0304352
-0.0279522
-0.0251288
-0.022567
-0.0196526
-0.0170891
-0.0141708
-0.0117287
-0.00896783
-0.00685748
-0.00449376
-0.00295676
-0.0011823
-0.000282458
0.000978181
0.00151288
0.00225328
0.00223158
0.00175481
0.0146854
0.0148525
0.0147978
0.0146625
0.0141873
0.0134851
0.0123981
0.0109846
0.00913048
0.00688264
0.00422086
0.00125445
-0.00195099
-0.00526214
-0.00862089
-0.0119338
-0.0152005
-0.0183623
-0.0214605
-0.0244308
-0.0273317
-0.0300667
-0.0327062
-0.035114
-0.0373807
-0.0393334
-0.0410951
-0.0424611
-0.0435977
-0.0442732
-0.0447061
-0.0446394
-0.0443504
-0.043554
-0.04259
-0.0411375
-0.0396005
-0.0376089
-0.0356325
-0.0332351
-0.0309558
-0.0282734
-0.0258056
-0.0229302
-0.0203615
-0.0173676
-0.0147865
-0.0117742
-0.00932353
-0.00647006
-0.00438081
-0.00193618
-0.00046397
0.0013786
0.00215775
0.00345934
0.0037899
0.0045196
0.00429347
0.00387631
0.0149777
0.01514
0.0151157
0.0150435
0.0146767
0.0141173
0.0132108
0.0120144
0.0104097
0.00843223
0.00603621
0.0033113
0.000298873
-0.00286821
-0.00613689
-0.00939253
-0.0126332
-0.0157735
-0.0188623
-0.0218112
-0.0246987
-0.0274039
-0.0300267
-0.0324026
-0.0346582
-0.0365861
-0.0383506
-0.0397057
-0.0408642
-0.041546
-0.0420213
-0.0419772
-0.0417481
-0.040985
-0.0400915
-0.0386738
-0.0372077
-0.0352404
-0.0333239
-0.0309281
-0.0286874
-0.0259743
-0.0235182
-0.0205767
-0.0179962
-0.0149065
-0.0123039
-0.0091801
-0.00672016
-0.00375558
-0.00169164
0.000855682
0.0022546
0.0041973
0.00485017
0.00625229
0.00640216
0.00723714
0.00689385
0.00660585
0.0151644
0.0153117
0.0153087
0.0152883
0.0150262
0.0146141
0.0138987
0.0129365
0.0116017
0.00992465
0.00782963
0.00539162
0.00261653
-0.000361635
-0.00350768
-0.00668088
-0.00988654
-0.0130025
-0.0160919
-0.0190294
-0.0219214
-0.0246103
-0.027235
-0.0295907
-0.0318515
-0.0337631
-0.0355437
-0.0368932
-0.0380843
-0.0387747
-0.0393005
-0.0392782
-0.0391147
-0.0383813
-0.0375615
-0.0361716
-0.034777
-0.0328238
-0.0309649
-0.028557
-0.0263502
-0.0235898
-0.0211396
-0.0181134
-0.0155157
-0.0123111
-0.00968441
-0.00643014
-0.00396331
-0.000867998
0.00116196
0.003836
0.00514708
0.00722631
0.00773742
0.00930543
0.00928017
0.0103447
0.0099645
0.00989524
0.015507
0.0156454
0.0156599
0.0156863
0.0155223
0.0152551
0.0147316
0.0140051
0.0129431
0.0115724
0.00979202
0.00766322
0.00515507
0.00239836
-0.00059679
-0.00366638
-0.00682862
-0.00992109
-0.0130238
-0.0159671
-0.018888
-0.0215833
-0.0242366
-0.0265934
-0.0288831
-0.0307952
-0.0326114
-0.0339671
-0.035206
-0.0359122
-0.0365001
-0.0365028
-0.0364133
-0.0357089
-0.0349683
-0.0336022
-0.0322819
-0.0303353
-0.0285348
-0.0261044
-0.0239308
-0.0211104
-0.0186652
-0.0155404
-0.0129265
-0.00959246
-0.00694628
-0.0035465
-0.00108251