/*--------------------------------*- C++ -*----------------------------------*\
| =========                 |                                                 |
| \\      /  F ield         | OpenFOAM: The Open Source CFD Toolbox           |
|  \\    /   O peration     | Version:  2406                                  |
|   \\  /    A nd           | Website:  www.openfoam.com                      |
|    \\/     M anipulation  |                                                 |
\*---------------------------------------------------------------------------*/
FoamFile
{
    version     2.0;
    format      ascii;
    arch        "LSB;label=32;scalar=64";
    class       surfaceScalarField;
    location    "5.85";
    object      phi;
}
// * * * * * * * * * * * * * * * * * * * * * * * * * * * * * * * * * * * * * //

dimensions      [0 3 -1 0 0 0 0];

oriented        oriented;

internalField   nonuniform List<scalar> 
28560
(
4.18868e-09
-4.19116e-09
1.30438e-09
3.13812e-09
-1.12753e-08
1.26517e-08
-3.33083e-08
2.24175e-08
-6.30025e-08
2.99566e-08
-9.85377e-08
3.60373e-08
-1.38442e-07
4.03252e-08
-1.81392e-07
4.35194e-08
-2.26511e-07
4.56378e-08
-2.73015e-07
4.71049e-08
-3.20428e-07
4.79824e-08
-3.68323e-07
4.85097e-08
-4.16466e-07
4.87361e-08
-4.64643e-07
4.8792e-08
-5.1275e-07
4.87076e-08
-5.60689e-07
4.85505e-08
-6.08423e-07
4.83352e-08
-6.55913e-07
4.80943e-08
-7.03148e-07
4.78323e-08
-7.50113e-07
4.75625e-08
-7.96806e-07
4.72841e-08
-8.43217e-07
4.70008e-08
-8.89341e-07
4.67093e-08
-9.35168e-07
4.64089e-08
-9.80687e-07
4.60957e-08
-1.02588e-06
4.57673e-08
-1.07073e-06
4.54198e-08
-1.11522e-06
4.50505e-08
-1.15932e-06
4.46559e-08
-1.203e-06
4.42331e-08
-1.24623e-06
4.3779e-08
-1.28898e-06
4.32908e-08
-1.33121e-06
4.27656e-08
-1.37288e-06
4.22007e-08
-1.41396e-06
4.15934e-08
-1.45439e-06
4.09408e-08
-1.49413e-06
4.02405e-08
-1.53313e-06
3.94898e-08
-1.57133e-06
3.8686e-08
-1.60869e-06
3.78268e-08
-1.64514e-06
3.69095e-08
-1.68062e-06
3.59318e-08
-1.71508e-06
3.48914e-08
-1.74845e-06
3.37861e-08
-1.78066e-06
3.2614e-08
-1.81164e-06
3.1373e-08
-1.84133e-06
3.00616e-08
-1.86965e-06
2.86783e-08
-1.89654e-06
2.72219e-08
-1.92191e-06
2.56914e-08
-1.9457e-06
2.40863e-08
-1.96783e-06
2.24063e-08
-1.98822e-06
2.06516e-08
-2.00681e-06
1.88226e-08
-2.02353e-06
1.69204e-08
-2.03829e-06
1.49464e-08
-2.05103e-06
1.29025e-08
-2.06169e-06
1.07912e-08
-2.0702e-06
8.61536e-09
-2.0765e-06
6.37863e-09
-2.08053e-06
4.08505e-09
-2.08225e-06
1.73927e-09
-2.0816e-06
-6.53535e-10
-2.07855e-06
-3.08762e-09
-2.07306e-06
-5.55672e-09
-2.06511e-06
-8.05405e-09
-2.05466e-06
-1.05724e-08
-2.04172e-06
-1.31041e-08
-2.02627e-06
-1.5641e-08
-2.00832e-06
-1.81748e-08
-1.98787e-06
-2.06969e-08
-1.96496e-06
-2.31983e-08
-1.9396e-06
-2.56702e-08
-1.91184e-06
-2.81035e-08
-1.88172e-06
-3.04892e-08
-1.84931e-06
-3.28185e-08
-1.81465e-06
-3.50828e-08
-1.77783e-06
-3.72737e-08
-1.73893e-06
-3.93833e-08
-1.69803e-06
-4.14042e-08
-1.65524e-06
-4.33295e-08
-1.61064e-06
-4.51528e-08
-1.56434e-06
-4.68686e-08
-1.51647e-06
-4.8472e-08
-1.46712e-06
-4.9959e-08
-1.41642e-06
-5.13261e-08
-1.3645e-06
-5.2571e-08
-1.31147e-06
-5.36918e-08
-1.25746e-06
-5.46876e-08
-1.20258e-06
-5.5558e-08
-1.14698e-06
-5.63033e-08
-1.09076e-06
-5.69241e-08
-1.03405e-06
-5.74212e-08
-9.76968e-07
-5.77953e-08
-9.19641e-07
-5.8047e-08
-8.62188e-07
-5.8176e-08
-8.04731e-07
-5.81814e-08
-7.47394e-07
-5.806e-08
-6.90308e-07
-5.78074e-08
-6.33609e-07
-5.74156e-08
-5.77446e-07
-5.68748e-08
-5.21979e-07
-5.61693e-08
-4.6739e-07
-5.52817e-08
-4.13883e-07
-5.41855e-08
-3.61693e-07
-5.28541e-08
-3.11088e-07
-5.12472e-08
-2.62381e-07
-4.93287e-08
-2.15928e-07
-4.70413e-08
-1.72147e-07
-4.4343e-08
-1.31504e-07
-4.11571e-08
-9.45344e-08
-3.74472e-08
-6.18303e-08
-3.31184e-08
-3.40249e-08
-2.81721e-08
-1.18013e-08
-2.25123e-08
4.24753e-09
-1.62745e-08
1.35529e-08
-9.45782e-09
1.61515e-08
-2.66259e-09
1.2521e-08
3.5694e-09
5.5399e-09
7.06532e-09
5.53731e-09
-3.11114e-09
-1.33399e-09
-2.40881e-08
2.41216e-08
-6.60295e-08
5.40569e-08
-1.281e-07
8.41293e-08
-2.07794e-07
1.08863e-07
-3.01657e-07
1.29203e-07
-4.06752e-07
1.44451e-07
-5.20155e-07
1.56007e-07
-6.39747e-07
1.64157e-07
-7.63599e-07
1.69919e-07
-8.90405e-07
1.73667e-07
-1.01903e-06
1.76039e-07
-1.14875e-06
1.77315e-07
-1.27894e-06
1.77865e-07
-1.40923e-06
1.77864e-07
-1.53932e-06
1.77514e-07
-1.66903e-06
1.7691e-07
-1.7982e-06
1.76151e-07
-1.92677e-06
1.75282e-07
-2.05466e-06
1.74344e-07
-2.18183e-06
1.73351e-07
-2.30824e-06
1.72313e-07
-2.43385e-06
1.7123e-07
-2.55862e-06
1.70099e-07
-2.68251e-06
1.68911e-07
-2.80547e-06
1.67657e-07
-2.92744e-06
1.66328e-07
-3.04835e-06
1.64913e-07
-3.16813e-06
1.63402e-07
-3.28672e-06
1.61785e-07
-3.40401e-06
1.6005e-07
-3.51991e-06
1.5819e-07
-3.63433e-06
1.56192e-07
-3.74716e-06
1.5405e-07
-3.85829e-06
1.51751e-07
-3.96758e-06
1.49289e-07
-4.07493e-06
1.46652e-07
-4.18019e-06
1.43833e-07
-4.28322e-06
1.40823e-07
-4.38388e-06
1.37612e-07
-4.48202e-06
1.34193e-07
-4.57748e-06
1.30557e-07
-4.67009e-06
1.26697e-07
-4.75969e-06
1.22605e-07
-4.84611e-06
1.18276e-07
-4.92916e-06
1.13702e-07
-5.00867e-06
1.08878e-07
-5.08445e-06
1.038e-07
-5.15632e-06
9.84642e-08
-5.22409e-06
9.28678e-08
-5.28757e-06
8.70093e-08
-5.34657e-06
8.08884e-08
-5.4009e-06
7.45061e-08
-5.45037e-06
6.78649e-08
-5.49481e-06
6.09687e-08
-5.53403e-06
5.38232e-08
-5.56786e-06
4.64355e-08
-5.59613e-06
3.88148e-08
-5.61869e-06
3.09718e-08
-5.63538e-06
2.29193e-08
-5.64606e-06
1.46718e-08
-5.6506e-06
6.24578e-09
-5.6489e-06
-2.34042e-09
-5.64086e-06
-1.10667e-08
-5.62638e-06
-1.99111e-08
-5.6054e-06
-2.88502e-08
-5.57787e-06
-3.78589e-08
-5.54377e-06
-4.69105e-08
-5.50308e-06
-5.59775e-08
-5.45581e-06
-6.50308e-08
-5.40199e-06
-7.4041e-08
-5.34169e-06
-8.29777e-08
-5.27496e-06
-9.18102e-08
-5.20192e-06
-1.00508e-07
-5.12268e-06
-1.0904e-07
-5.03737e-06
-1.17377e-07
-4.94617e-06
-1.25489e-07
-4.84925e-06
-1.33347e-07
-4.74681e-06
-1.40926e-07
-4.63907e-06
-1.48199e-07
-4.52627e-06
-1.55143e-07
-4.40865e-06
-1.61737e-07
-4.28649e-06
-1.67961e-07
-4.16006e-06
-1.73799e-07
-4.02964e-06
-1.79237e-07
-3.89553e-06
-1.84262e-07
-3.75803e-06
-1.88867e-07
-3.61745e-06
-1.93043e-07
-3.47409e-06
-1.96789e-07
-3.32828e-06
-2.001e-07
-3.18031e-06
-2.02978e-07
-3.0305e-06
-2.05422e-07
-2.87917e-06
-2.07434e-07
-2.72662e-06
-2.09014e-07
-2.57317e-06
-2.10163e-07
-2.41912e-06
-2.10876e-07
-2.26481e-06
-2.11147e-07
-2.11057e-06
-2.10963e-07
-1.95673e-06
-2.10303e-07
-1.80368e-06
-2.09137e-07
-1.65181e-06
-2.07425e-07
-1.50156e-06
-2.0511e-07
-1.35344e-06
-2.02123e-07
-1.20799e-06
-1.98372e-07
-1.06586e-06
-1.93755e-07
-9.27781e-07
-1.88135e-07
-7.94588e-07
-1.81376e-07
-6.67236e-07
-1.73295e-07
-5.46819e-07
-1.63732e-07
-4.3455e-07
-1.52462e-07
-3.31784e-07
-1.39347e-07
-2.39967e-07
-1.24152e-07
-1.60606e-07
-1.06878e-07
-9.51801e-08
-8.73883e-08
-4.49158e-08
-6.61388e-08
-1.0671e-08
-4.34268e-08
7.85421e-09
-2.10407e-08
1.21294e-08
-6.99908e-10
6.98056e-09
1.22204e-08
1.24342e-08
-1.2912e-08
1.14913e-08
-5.49588e-08
6.67099e-08
-1.2737e-07
1.26452e-07
-2.27225e-07
1.84609e-07
-3.51618e-07
2.33606e-07
-4.95916e-07
2.74241e-07
-6.56468e-07
3.05605e-07
-8.29325e-07
3.29689e-07
-1.01161e-06
3.47194e-07
-1.2006e-06
3.59782e-07
-1.3944e-06
3.68291e-07
-1.59131e-06
3.73848e-07
-1.79022e-06
3.77085e-07
-1.99015e-06
3.78696e-07
-2.19049e-06
3.79084e-07
-2.39073e-06
3.78642e-07
-2.59054e-06
3.77599e-07
-2.78967e-06
3.76157e-07
-2.98794e-06
3.74426e-07
-3.18522e-06
3.72498e-07
-3.38142e-06
3.70412e-07
-3.57644e-06
3.68199e-07
-3.77022e-06
3.65861e-07
-3.96267e-06
3.63398e-07
-4.15371e-06
3.60796e-07
-4.34325e-06
3.5804e-07
-4.53121e-06
3.55112e-07
-4.71746e-06
3.51991e-07
-4.9019e-06
3.48658e-07
-5.0844e-06
3.45091e-07
-5.26482e-06
3.41272e-07
-5.44302e-06
3.37179e-07
-5.61884e-06
3.32792e-07
-5.79211e-06
3.28093e-07
-5.96267e-06
3.23063e-07
-6.13031e-06
3.17681e-07
-6.29486e-06
3.1193e-07
-6.4561e-06
3.05791e-07
-6.61382e-06
2.99247e-07
-6.7678e-06
2.9228e-07
-6.91781e-06
2.84873e-07
-7.06361e-06
2.7701e-07
-7.20496e-06
2.68676e-07
-7.3416e-06
2.59857e-07
-7.47327e-06
2.50538e-07
-7.59971e-06
2.40709e-07
-7.72065e-06
2.30359e-07
-7.83581e-06
2.1948e-07
-7.94492e-06
2.08065e-07
-8.04769e-06
1.96109e-07
-8.14386e-06
1.8361e-07
-8.23313e-06
1.70568e-07
-8.31524e-06
1.56987e-07
-8.38991e-06
1.42873e-07
-8.45687e-06
1.28235e-07
-8.51586e-06
1.13085e-07
-8.56664e-06
9.74388e-08
-8.60894e-06
8.1317e-08
-8.64256e-06
6.47422e-08
-8.66727e-06
4.77414e-08
-8.68287e-06
3.03454e-08
-8.68918e-06
1.25885e-08
-8.68604e-06
-5.49083e-09
-8.67332e-06
-2.38509e-08
-8.65088e-06
-4.24464e-08
-8.61865e-06
-6.12287e-08
-8.57655e-06
-8.01461e-08
-8.52455e-06
-9.91443e-08
-8.46264e-06
-1.18166e-07
-8.39085e-06
-1.37153e-07
-8.30921e-06
-1.56045e-07
-8.21783e-06
-1.7478e-07
-8.1168e-06
-1.93295e-07
-8.00629e-06
-2.11529e-07
-7.88646e-06
-2.29419e-07
-7.75752e-06
-2.46904e-07
-7.61971e-06
-2.63926e-07
-7.4733e-06
-2.80428e-07
-7.31857e-06
-2.96354e-07
-7.15586e-06
-3.11654e-07
-6.9855e-06
-3.2628e-07
-6.80786e-06
-3.40189e-07
-6.62333e-06
-3.53342e-07
-6.43229e-06
-3.65706e-07
-6.23518e-06
-3.77251e-07
-6.03241e-06
-3.87954e-07
-5.82442e-06
-3.97797e-07
-5.61167e-06
-4.06765e-07
-5.3946e-06
-4.1485e-07
-5.17365e-06
-4.22045e-07
-4.9493e-06
-4.2835e-07
-4.72198e-06
-4.33764e-07
-4.49217e-06
-4.38287e-07
-4.26031e-06
-4.41919e-07
-4.02687e-06
-4.44654e-07
-3.79232e-06
-4.46484e-07
-3.55714e-06
-4.47389e-07
-3.32182e-06
-4.47339e-07
-3.08689e-06
-4.46286e-07
-2.85291e-06
-4.44164e-07
-2.62049e-06
-4.40882e-07
-2.3903e-06
-4.36321e-07
-2.1631e-06
-4.30331e-07
-1.93974e-06
-4.22722e-07
-1.72119e-06
-4.13273e-07
-1.50854e-06
-4.01712e-07
-1.30307e-06
-3.87747e-07
-1.1062e-06
-3.71021e-07
-9.19545e-07
-3.51202e-07
-7.44873e-07
-3.27876e-07
-5.8415e-07
-3.00762e-07
-4.39412e-07
-2.69483e-07
-3.12774e-07
-2.34049e-07
-2.06195e-07
-1.94371e-07
-1.21332e-07
-1.51343e-07
-5.91504e-08
-1.058e-07
-1.93952e-08
-6.09379e-08
-1.23272e-10
-1.99868e-08
3.6418e-09
8.45435e-09
1.61236e-08
-2.33241e-08
3.44199e-08
-8.71259e-08
1.30906e-07
-1.89467e-07
2.28154e-07
-3.246e-07
3.19762e-07
-4.89119e-07
3.97539e-07
-6.77413e-07
4.62267e-07
-8.85518e-07
5.13106e-07
-1.10884e-06
5.52563e-07
-1.34409e-06
5.81817e-07
-1.58801e-06
6.03162e-07
-1.83831e-06
6.17956e-07
-2.09291e-06
6.27851e-07
-2.35036e-06
6.33892e-07
-2.60941e-06
6.37141e-07
-2.86925e-06
6.38279e-07
-3.12916e-06
6.37931e-07
-3.38868e-06
6.36493e-07
-3.64745e-06
6.34299e-07
-3.90519e-06
6.31549e-07
-4.16171e-06
6.28399e-07
-4.41685e-06
6.24931e-07
-4.67046e-06
6.21198e-07
-4.92242e-06
6.17217e-07
-5.17262e-06
6.12991e-07
-5.42092e-06
6.08505e-07
-5.66722e-06
6.03739e-07
-5.91136e-06
5.98664e-07
-6.1532e-06
5.9325e-07
-6.39259e-06
5.87466e-07
-6.62936e-06
5.81281e-07
-6.86331e-06
5.7466e-07
-7.09427e-06
5.67574e-07
-7.32202e-06
5.59988e-07
-7.54634e-06
5.51873e-07
-7.76701e-06
5.43197e-07
-7.98379e-06
5.33929e-07
-8.19642e-06
5.24039e-07
-8.40464e-06
5.13499e-07
-8.60817e-06
5.02279e-07
-8.80673e-06
4.90351e-07
-9.00002e-06
4.77688e-07
-9.18774e-06
4.64266e-07
-9.36957e-06
4.50058e-07
-9.54519e-06
4.35044e-07
-9.71427e-06
4.19202e-07
-9.87648e-06
4.02514e-07
-1.00315e-05
3.84965e-07
-1.01789e-05
3.66542e-07
-1.03184e-05
3.47235e-07
-1.04497e-05
3.27039e-07
-1.05723e-05
3.05951e-07
-1.0686e-05
2.83973e-07
-1.07904e-05
2.61112e-07
-1.08852e-05
2.3738e-07
-1.09699e-05
2.12794e-07
-1.10444e-05
1.87374e-07
-1.11083e-05
1.6115e-07
-1.11613e-05
1.34155e-07
-1.12031e-05
1.06427e-07
-1.12334e-05
7.80124e-08
-1.12521e-05
4.89629e-08
-1.12588e-05
1.93357e-08
-1.12535e-05
-1.08058e-08
-1.12359e-05
-4.13923e-08
-1.1206e-05
-7.23492e-08
-1.11635e-05
-1.03597e-07
-1.11085e-05
-1.3505e-07
-1.10408e-05
-1.66621e-07
-1.09606e-05
-1.98215e-07
-1.08678e-05
-2.29739e-07
-1.07624e-05
-2.61093e-07
-1.06448e-05
-2.92178e-07
-1.05148e-05
-3.22892e-07
-1.03729e-05
-3.53137e-07
-1.02191e-05
-3.8281e-07
-1.00538e-05
-4.11816e-07
-9.87719e-06
-4.40058e-07
-9.6897e-06
-4.67445e-07
-9.49167e-06
-4.93889e-07
-9.28349e-06
-5.19309e-07
-9.06559e-06
-5.43628e-07
-8.83843e-06
-5.66778e-07
-8.60248e-06
-5.88696e-07
-8.35824e-06
-6.09328e-07
-8.10623e-06
-6.28629e-07
-7.84698e-06
-6.46558e-07
-7.58102e-06
-6.63088e-07
-7.3089e-06
-6.78194e-07
-7.0312e-06
-6.91863e-07
-6.74845e-06
-7.04083e-07
-6.46123e-06
-7.1485e-07
-6.17011e-06
-7.24162e-07
-5.87564e-06
-7.32017e-07
-5.57841e-06
-7.38411e-07
-5.27899e-06
-7.43332e-07
-4.97797e-06
-7.4676e-07
-4.67595e-06
-7.4866e-07
-4.37357e-06
-7.48975e-07
-4.07149e-06
-7.47624e-07
-3.77043e-06
-7.44489e-07
-3.47116e-06
-7.39419e-07
-3.17454e-06
-7.32211e-07
-2.88155e-06
-7.22615e-07
-2.59326e-06
-7.10317e-07
-2.3109e-06
-6.94954e-07
-2.03586e-06
-6.76084e-07
-1.76975e-06
-6.53234e-07
-1.51432e-06
-6.25841e-07
-1.27159e-06
-5.93375e-07
-1.04371e-06
-5.55218e-07
-8.33072e-07
-5.10934e-07
-6.42089e-07
-4.60024e-07
-4.73271e-07
-4.02528e-07
-3.28827e-07
-3.38487e-07
-2.10716e-07
-2.69268e-07
-1.19931e-07
-1.96375e-07
-5.65299e-08
-1.24317e-07
-1.85335e-08
-5.78564e-08
-2.06288e-09
-8.12716e-09
1.41144e-08
-3.19661e-08
6.60898e-08
-1.15357e-07
2.15128e-07
-2.45133e-07
3.57523e-07
-4.1249e-07
4.87719e-07
-6.13178e-07
5.98202e-07
-8.40483e-07
6.90078e-07
-1.09016e-06
7.6298e-07
-1.35708e-06
8.19961e-07
-1.63773e-06
8.62794e-07
-1.92849e-06
8.94391e-07
-2.22683e-06
9.16686e-07
-2.53037e-06
9.31863e-07
-2.83747e-06
9.41421e-07
-3.14668e-06
9.46812e-07
-3.457e-06
9.49032e-07
-3.76757e-06
9.4896e-07
-4.07782e-06
9.47188e-07
-4.38727e-06
9.442e-07
-4.69559e-06
9.40305e-07
-5.00248e-06
9.35735e-07
-5.30773e-06
9.30624e-07
-5.61115e-06
9.25059e-07
-5.91258e-06
9.19076e-07
-6.21184e-06
9.12686e-07
-6.50878e-06
9.05873e-07
-6.80323e-06
8.98613e-07
-7.09501e-06
8.9087e-07
-7.38395e-06
8.82603e-07
-7.66983e-06
8.73769e-07
-7.95246e-06
8.64322e-07
-8.23162e-06
8.54219e-07
-8.50705e-06
8.43412e-07
-8.77852e-06
8.31856e-07
-9.04577e-06
8.19508e-07
-9.30851e-06
8.06321e-07
-9.56645e-06
7.92253e-07
-9.8193e-06
7.77261e-07
-1.00667e-05
7.61302e-07
-1.03084e-05
7.44335e-07
-1.05441e-05
7.26321e-07
-1.07733e-05
7.07222e-07
-1.09957e-05
6.87001e-07
-1.12109e-05
6.65625e-07
-1.14186e-05
6.43063e-07
-1.16184e-05
6.19285e-07
-1.18099e-05
5.94268e-07
-1.19926e-05
5.6799e-07
-1.21662e-05
5.40434e-07
-1.23303e-05
5.11589e-07
-1.24845e-05
4.81448e-07
-1.26284e-05
4.5001e-07
-1.27615e-05
4.1728e-07
-1.28834e-05
3.83271e-07
-1.29939e-05
3.48001e-07
-1.30924e-05
3.11497e-07
-1.31787e-05
2.73792e-07
-1.32524e-05
2.34931e-07
-1.33131e-05
1.94962e-07
-1.33605e-05
1.53945e-07
-1.33944e-05
1.11949e-07
-1.34145e-05
6.90487e-08
-1.34204e-05
2.53303e-08
-1.34121e-05
-1.91132e-08
-1.33894e-05
-6.41804e-08
-1.3352e-05
-1.09762e-07
-1.33e-05
-1.55742e-07
-1.32331e-05
-2.01996e-07
-1.31514e-05
-2.48397e-07
-1.3055e-05
-2.94809e-07
-1.29438e-05
-3.41095e-07
-1.2818e-05
-3.87113e-07
-1.26776e-05
-4.3272e-07
-1.2523e-05
-4.77771e-07
-1.23543e-05
-5.22121e-07
-1.21717e-05
-5.65629e-07
-1.19757e-05
-6.08153e-07
-1.17665e-05
-6.49558e-07
-1.15446e-05
-6.89714e-07
-1.13103e-05
-7.28495e-07
-1.10642e-05
-7.65786e-07
-1.08068e-05
-8.01479e-07
-1.05385e-05
-8.35475e-07
-1.02599e-05
-8.67686e-07
-9.97166e-06
-8.98036e-07
-9.67429e-06
-9.2646e-07
-9.36841e-06
-9.52902e-07
-9.05466e-06
-9.77321e-07
-8.73366e-06
-9.99683e-07
-8.40606e-06
-1.01997e-06
-8.07249e-06
-1.03816e-06
-7.73361e-06
-1.05425e-06
-7.39007e-06
-1.06823e-06
-7.04251e-06
-1.0801e-06
-6.69161e-06
-1.08985e-06
-6.33802e-06
-1.09745e-06
-5.98244e-06
-1.10288e-06
-5.62556e-06
-1.10608e-06
-5.26812e-06
-1.10695e-06
-4.91089e-06
-1.10539e-06
-4.55471e-06
-1.1012e-06
-4.2005e-06
-1.09416e-06
-3.84924e-06
-1.08398e-06
-3.50208e-06
-1.07029e-06
-3.16026e-06
-1.05263e-06
-2.82523e-06
-1.03048e-06
-2.49857e-06
-1.00321e-06
-2.18213e-06
-9.70135e-07
-1.87792e-06
-9.30479e-07
-1.58821e-06
-8.83493e-07
-1.31545e-06
-8.28349e-07
-1.06229e-06
-7.64451e-07
-8.31394e-07
-6.91198e-07
-6.25554e-07
-6.08662e-07
-4.47148e-07
-5.17061e-07
-2.98435e-07
-4.18211e-07
-1.80514e-07
-3.14325e-07
-9.39934e-08
-2.11031e-07
-3.71828e-08
-1.14535e-07
-7.75935e-09
-3.77808e-08
6.47235e-09
-3.94907e-08
1.05039e-07
-1.40306e-07
3.16725e-07
-2.94643e-07
5.11062e-07
-4.90863e-07
6.84266e-07
-7.23718e-07
8.30532e-07
-9.85376e-07
9.5176e-07
-1.27129e-06
1.04848e-06
-1.57587e-06
1.1244e-06
-1.89547e-06
1.18202e-06
-2.22619e-06
1.22488e-06
-2.56538e-06
1.25552e-06
-2.91045e-06
1.27666e-06
-3.25963e-06
1.29026e-06
-3.61131e-06
1.29819e-06
-3.96438e-06
1.30176e-06
-4.31786e-06
1.30213e-06
-4.67108e-06
1.30008e-06
-5.02348e-06
1.29628e-06
-5.37464e-06
1.29114e-06
-5.72421e-06
1.285e-06
-6.07194e-06
1.27803e-06
-6.41756e-06
1.27037e-06
-6.76087e-06
1.26207e-06
-7.10166e-06
1.25317e-06
-7.43974e-06
1.24364e-06
-7.77489e-06
1.23346e-06
-8.10691e-06
1.22258e-06
-8.43557e-06
1.21097e-06
-8.76064e-06
1.19855e-06
-9.08189e-06
1.18527e-06
-9.39903e-06
1.17107e-06
-9.71181e-06
1.1559e-06
-1.00199e-05
1.13969e-06
-1.03231e-05
1.12239e-06
-1.0621e-05
1.10393e-06
-1.09133e-05
1.08426e-06
-1.11996e-05
1.06332e-06
-1.14796e-05
1.04105e-06
-1.17529e-05
1.01741e-06
-1.20192e-05
9.92334e-07
-1.2278e-05
9.65778e-07
-1.25289e-05
9.37694e-07
-1.27716e-05
9.08039e-07
-1.30055e-05
8.76772e-07
-1.32303e-05
8.43857e-07
-1.34455e-05
8.09262e-07
-1.36507e-05
7.72962e-07
-1.38453e-05
7.34937e-07
-1.40291e-05
6.95172e-07
-1.42015e-05
6.53663e-07
-1.4362e-05
6.10409e-07
-1.45103e-05
5.65423e-07
-1.46459e-05
5.18721e-07
-1.47684e-05
4.70333e-07
-1.48773e-05
4.20297e-07
-1.49722e-05
3.68662e-07
-1.50529e-05
3.15488e-07
-1.51188e-05
2.60845e-07
-1.51698e-05
2.04816e-07
-1.52054e-05
1.47494e-07
-1.52253e-05
8.89852e-08
-1.52294e-05
2.94044e-08
-1.52174e-05
-3.11207e-08
-1.51891e-05
-9.24523e-08
-1.51444e-05
-1.54443e-07
-1.50831e-05
-2.16934e-07
-1.50053e-05
-2.79761e-07
-1.49109e-05
-3.42751e-07
-1.47998e-05
-4.05723e-07
-1.46723e-05
-4.68492e-07
-1.45284e-05
-5.3087e-07
-1.43683e-05
-5.92665e-07
-1.41923e-05
-6.53684e-07
-1.40005e-05
-7.13736e-07
-1.37933e-05
-7.72631e-07
-1.3571e-05
-8.30184e-07
-1.33341e-05
-8.86214e-07
-1.30831e-05
-9.4055e-07
-1.28183e-05
-9.93028e-07
-1.25403e-05
-1.04349e-06
-1.22497e-05
-1.0918e-06
-1.1947e-05
-1.13783e-06
-1.1633e-05
-1.18146e-06
-1.13081e-05
-1.2226e-06
-1.09731e-05
-1.26115e-06
-1.06286e-05
-1.29704e-06
-1.02754e-05
-1.33022e-06
-9.91405e-06
-1.36065e-06
-9.54536e-06
-1.3883e-06
-9.17002e-06
-1.41314e-06
-8.78874e-06
-1.43516e-06
-8.40222e-06
-1.45437e-06
-8.01121e-06
-1.47074e-06
-7.61642e-06
-1.48426e-06
-7.21859e-06
-1.4949e-06
-6.81848e-06
-1.50261e-06
-6.41687e-06
-1.50731e-06
-6.01457e-06
-1.50887e-06
-5.61245e-06
-1.50713e-06
-5.21143e-06
-1.50184e-06
-4.81252e-06
-1.4927e-06
-4.41684e-06
-1.47929e-06
-4.02562e-06
-1.46114e-06
-3.64027e-06
-1.43763e-06
-3.26234e-06
-1.40806e-06
-2.8936e-06
-1.37161e-06
-2.53604e-06
-1.32738e-06
-2.19184e-06
-1.27436e-06
-1.86347e-06
-1.21159e-06
-1.55351e-06
-1.13802e-06
-1.26484e-06
-1.0529e-06
-1.00025e-06
-9.55545e-07
-7.62731e-07
-8.46037e-07
-5.54787e-07
-7.24791e-07
-3.78968e-07
-5.93999e-07
-2.36542e-07
-4.56544e-07
-1.28777e-07
-3.18913e-07
-5.44676e-08
-1.8857e-07
-1.29573e-08
-7.95965e-08
-6.30249e-09
-4.55118e-08
1.50063e-07
-1.61094e-07
4.33384e-07
-3.36722e-07
6.85987e-07
-5.58279e-07
9.06482e-07
-8.19471e-07
1.09146e-06
-1.11134e-06
1.24406e-06
-1.42895e-06
1.36607e-06
-1.76626e-06
1.46204e-06
-2.11948e-06
1.53534e-06
-2.48451e-06
1.59018e-06
-2.85859e-06
1.62976e-06
-3.23902e-06
1.65734e-06
-3.62393e-06
1.67538e-06
-4.01162e-06
1.68612e-06
-4.40087e-06
1.69123e-06
-4.79065e-06
1.69214e-06
-5.18021e-06
1.68987e-06
-5.56891e-06
1.68521e-06
-5.95629e-06
1.67874e-06
-6.34194e-06
1.67087e-06
-6.72553e-06
1.66185e-06
-7.10679e-06
1.65185e-06
-7.48546e-06
1.64096e-06
-7.86129e-06
1.62922e-06
-8.23404e-06
1.61662e-06
-8.60349e-06
1.60312e-06
-8.96938e-06
1.58869e-06
-9.33145e-06
1.57326e-06
-9.68945e-06
1.55676e-06
-1.00431e-05
1.53912e-06
-1.03921e-05
1.52027e-06
-1.07361e-05
1.50014e-06
-1.10749e-05
1.47865e-06
-1.1408e-05
1.45573e-06
-1.17352e-05
1.43129e-06
-1.2056e-05
1.40528e-06
-1.23701e-05
1.37762e-06
-1.26771e-05
1.34823e-06
-1.29766e-05
1.31706e-06
-1.32681e-05
1.28403e-06
-1.35512e-05
1.24909e-06
-1.38256e-05
1.21218e-06
-1.40906e-05
1.17324e-06
-1.43459e-05
1.13222e-06
-1.45909e-05
1.08908e-06
-1.48253e-05
1.04379e-06
-1.50485e-05
9.96302e-07
-1.52601e-05
9.46607e-07
-1.54595e-05
8.94687e-07
-1.56462e-05
8.40538e-07
-1.58199e-05
7.84163e-07
-1.59799e-05
7.2558e-07
-1.61259e-05
6.64815e-07
-1.62574e-05
6.0191e-07
-1.63739e-05
5.36916e-07
-1.64751e-05
4.69898e-07
-1.65605e-05
4.00938e-07
-1.66297e-05
3.30128e-07
-1.66825e-05
2.57577e-07
-1.67183e-05
1.83407e-07
-1.67371e-05
1.07754e-07
-1.67384e-05
3.07696e-08
-1.67222e-05
-4.73817e-08
-1.66881e-05
-1.26522e-07
-1.66361e-05
-2.06462e-07
-1.65661e-05
-2.86998e-07
-1.6478e-05
-3.6792e-07
-1.63718e-05
-4.49005e-07
-1.62476e-05
-5.30024e-07
-1.61054e-05
-6.10742e-07
-1.59455e-05
-6.90918e-07
-1.57679e-05
-7.70309e-07
-1.55731e-05
-8.48672e-07
-1.53612e-05
-9.25764e-07
-1.51326e-05
-1.00135e-06
-1.48878e-05
-1.07518e-06
-1.46271e-05
-1.14705e-06
-1.43511e-05
-1.21673e-06
-1.40603e-05
-1.28402e-06
-1.37552e-05
-1.34872e-06
-1.34366e-05
-1.41066e-06
-1.3105e-05
-1.46968e-06
-1.2761e-05
-1.52563e-06
-1.24055e-05
-1.57838e-06
-1.2039e-05
-1.62784e-06
-1.16624e-05
-1.67392e-06
-1.12763e-05
-1.71654e-06
-1.08815e-05
-1.75565e-06
-1.04789e-05
-1.79121e-06
-1.00691e-05
-1.82321e-06
-9.65287e-06
-1.85162e-06
-9.23106e-06
-1.87644e-06
-8.80443e-06
-1.89764e-06
-8.37374e-06
-1.91521e-06
-7.9398e-06
-1.92911e-06
-7.50342e-06
-1.93927e-06
-7.06543e-06
-1.94557e-06
-6.62671e-06
-1.94786e-06
-6.1882e-06
-1.94592e-06
-5.75087e-06
-1.93943e-06
-5.31583e-06
-1.92801e-06
-4.88426e-06
-1.91113e-06
-4.45748e-06
-1.88818e-06
-4.03698e-06
-1.85839e-06
-3.62443e-06
-1.82087e-06
-3.22167e-06
-1.7746e-06
-2.83082e-06
-1.71847e-06
-2.45416e-06
-1.65123e-06
-2.09427e-06
-1.57169e-06
-1.75385e-06
-1.47861e-06
-1.43589e-06
-1.37106e-06
-1.14329e-06
-1.24826e-06
-8.79209e-07
-1.1103e-06
-6.46263e-07
-9.5777e-07
-4.47316e-07
-7.93141e-07
-2.83868e-07
-6.19902e-07
-1.57872e-07
-4.45171e-07
-6.8669e-08
-2.77487e-07
-1.70655e-08
-1.31624e-07
-2.31556e-08
-5.05927e-08
2.00007e-07
-1.78743e-07
5.62606e-07
-3.72675e-07
8.78976e-07
-6.16208e-07
1.15055e-06
-9.02061e-07
1.37678e-06
-1.22023e-06
1.56242e-06
-1.56536e-06
1.71086e-06
-1.93099e-06
1.82769e-06
-2.31316e-06
1.91726e-06
-2.70758e-06
1.98454e-06
-3.11145e-06
2.03342e-06
-3.52196e-06
2.06773e-06
-3.93719e-06
2.09042e-06
-4.35536e-06
2.10415e-06
-4.77523e-06
2.11092e-06
-5.19567e-06
2.11243e-06
-5.61591e-06
2.10993e-06
-6.03523e-06
2.10438e-06
-6.45315e-06
2.09649e-06
-6.8692e-06
2.08676e-06
-7.28303e-06
2.07551e-06
-7.69431e-06
2.06297e-06
-8.10274e-06
2.04924e-06
-8.50806e-06
2.03438e-06
-8.90998e-06
2.01838e-06
-9.30825e-06
2.00123e-06
-9.70259e-06
1.98287e-06
-1.00927e-05
1.96322e-06
-1.04783e-05
1.9422e-06
-1.08591e-05
1.91975e-06
-1.12347e-05
1.89575e-06
-1.16049e-05
1.87014e-06
-1.19692e-05
1.84281e-06
-1.23273e-05
1.81369e-06
-1.26788e-05
1.78267e-06
-1.30233e-05
1.74967e-06
-1.33604e-05
1.71461e-06
-1.36898e-05
1.6774e-06
-1.40108e-05
1.63797e-06
-1.43231e-05
1.59622e-06
-1.46262e-05
1.5521e-06
-1.49197e-05
1.50552e-06
-1.5203e-05
1.45643e-06
-1.54757e-05
1.40477e-06
-1.57372e-05
1.35048e-06
-1.59871e-05
1.29353e-06
-1.62247e-05
1.23388e-06
-1.64497e-05
1.1715e-06
-1.66615e-05
1.10638e-06
-1.68596e-05
1.03851e-06
-1.70434e-05
9.67919e-07
-1.72125e-05
8.94617e-07
-1.73664e-05
8.18643e-07
-1.75046e-05
7.40052e-07
-1.76267e-05
6.58912e-07
-1.77321e-05
5.75307e-07
-1.78206e-05
4.8934e-07
-1.78916e-05
4.01129e-07
-1.79449e-05
3.10811e-07
-1.798e-05
2.18539e-07
-1.79967e-05
1.24486e-07
-1.79948e-05
2.88384e-08
-1.7974e-05
-6.81978e-08
-1.79341e-05
-1.66402e-07
-1.7875e-05
-2.65539e-07
-1.77966e-05
-3.65358e-07
-1.76989e-05
-4.65598e-07
-1.75819e-05
-5.65987e-07
-1.74456e-05
-6.66241e-07
-1.72902e-05
-7.66072e-07
-1.71159e-05
-8.65185e-07
-1.69228e-05
-9.63283e-07
-1.67114e-05
-1.06007e-06
-1.64818e-05
-1.15524e-06
-1.62345e-05
-1.24852e-06
-1.597e-05
-1.33961e-06
-1.56887e-05
-1.42824e-06
-1.53911e-05
-1.51415e-06
-1.50779e-05
-1.59709e-06
-1.47497e-05
-1.67682e-06
-1.44071e-05
-1.75313e-06
-1.40508e-05
-1.82584e-06
-1.36815e-05
-1.89475e-06
-1.33e-05
-1.95974e-06
-1.2907e-05
-2.02066e-06
-1.25033e-05
-2.07742e-06
-1.20897e-05
-2.12993e-06
-1.16671e-05
-2.17813e-06
-1.12361e-05
-2.22198e-06
-1.07977e-05
-2.26144e-06
-1.03527e-05
-2.29651e-06
-9.90174e-06
-2.32716e-06
-9.44582e-06
-2.35337e-06
-8.98572e-06
-2.37513e-06
-8.52227e-06
-2.39237e-06
-8.05633e-06
-2.40501e-06
-7.58879e-06
-2.41291e-06
-7.12057e-06
-2.41589e-06
-6.65265e-06
-2.41365e-06
-6.18607e-06
-2.40582e-06
-5.72197e-06
-2.39192e-06
-5.26159e-06
-2.37132e-06
-4.80633e-06
-2.34326e-06
-4.35771e-06
-2.30682e-06
-3.91747e-06
-2.26094e-06
-3.48753e-06
-2.20437e-06
-3.07006e-06
-2.13579e-06
-2.6674e-06
-2.05373e-06
-2.28221e-06
-1.95675e-06
-1.91725e-06
-1.84342e-06
-1.5756e-06
-1.71262e-06
-1.26022e-06
-1.56349e-06
-9.74433e-07
-1.39607e-06
-7.20952e-07
-1.21108e-06
-5.02943e-07
-1.01122e-06
-3.22162e-07
-8.00455e-07
-1.8119e-07
-5.86368e-07
-7.98896e-08
-3.78399e-07
-2.02267e-08
-1.91753e-07
-4.31118e-08
-5.4681e-08
2.54064e-07
-1.93298e-07
7.02483e-07
-4.0272e-07
1.08749e-06
-6.65071e-07
1.41363e-06
-9.72195e-07
1.68349e-06
-1.31313e-06
1.90377e-06
-1.68211e-06
2.07969e-06
-2.07221e-06
2.21805e-06
-2.47933e-06
2.32436e-06
-2.89899e-06
2.40439e-06
-3.32834e-06
2.46282e-06
-3.76448e-06
2.50403e-06
-4.20548e-06
2.5315e-06
-4.64948e-06
2.54829e-06
-5.09523e-06
2.55677e-06
-5.54157e-06
2.5589e-06
-5.98768e-06
2.55614e-06
-6.43282e-06
2.54965e-06
-6.87646e-06
2.54024e-06
-7.3181e-06
2.52852e-06
-7.75736e-06
2.51489e-06
-8.19389e-06
2.4996e-06
-8.62735e-06
2.48281e-06
-9.05744e-06
2.46458e-06
-9.48387e-06
2.44492e-06
-9.90633e-06
2.42381e-06
-1.03245e-05
2.40117e-06
-1.07382e-05
2.37695e-06
-1.11469e-05
2.35103e-06
-1.15504e-05
2.32334e-06
-1.19483e-05
2.29377e-06
-1.23402e-05
2.26221e-06
-1.27259e-05
2.22856e-06
-1.31048e-05
2.19271e-06
-1.34766e-05
2.15456e-06
-1.38408e-05
2.11401e-06
-1.41971e-05
2.07096e-06
-1.45449e-05
2.02531e-06
-1.48838e-05
1.97695e-06
-1.52133e-05
1.92581e-06
-1.55329e-05
1.87179e-06
-1.58421e-05
1.81482e-06
-1.61404e-05
1.75482e-06
-1.64273e-05
1.69172e-06
-1.67022e-05
1.62547e-06
-1.69646e-05
1.55601e-06
-1.7214e-05
1.48332e-06
-1.74498e-05
1.40736e-06
-1.76714e-05
1.32812e-06
-1.78785e-05
1.2456e-06
-1.80703e-05
1.15982e-06
-1.82464e-05
1.07081e-06
-1.84064e-05
9.78619e-07
-1.85496e-05
8.83315e-07
-1.86756e-05
7.84985e-07
-1.8784e-05
6.83734e-07
-1.88743e-05
5.79688e-07
-1.89462e-05
4.72993e-07
-1.89992e-05
3.63816e-07
-1.9033e-05
2.52345e-07
-1.90473e-05
1.38789e-07
-1.90418e-05
2.33747e-08
-1.90163e-05
-9.36485e-08
-1.89707e-05
-2.12014e-07
-1.89049e-05
-3.31439e-07
-1.88186e-05
-4.51622e-07
-1.8712e-05
-5.72249e-07
-1.8585e-05
-6.92993e-07
-1.84378e-05
-8.13515e-07
-1.82704e-05
-9.3347e-07
-1.80832e-05
-1.05251e-06
-1.78762e-05
-1.17027e-06
-1.76499e-05
-1.2864e-06
-1.74047e-05
-1.40056e-06
-1.71409e-05
-1.51239e-06
-1.6859e-05
-1.62155e-06
-1.65596e-05
-1.72773e-06
-1.62433e-05
-1.8306e-06
-1.59106e-05
-1.92989e-06
-1.55622e-05
-2.0253e-06
-1.51988e-05
-2.11659e-06
-1.48212e-05
-2.20354e-06
-1.44302e-05
-2.28594e-06
-1.40264e-05
-2.36361e-06
-1.36108e-05
-2.43641e-06
-1.31841e-05
-2.50422e-06
-1.27472e-05
-2.56694e-06
-1.2301e-05
-2.62451e-06
-1.18462e-05
-2.67686e-06
-1.13838e-05
-2.72398e-06
-1.09146e-05
-2.76584e-06
-1.04395e-05
-2.80243e-06
-9.95926e-06
-2.83372e-06
-9.47485e-06
-2.85967e-06
-8.98712e-06
-2.88024e-06
-8.49696e-06
-2.89531e-06
-8.0053e-06
-2.90472e-06
-7.51309e-06
-2.90824e-06
-7.02135e-06
-2.90553e-06
-6.53115e-06
-2.89615e-06
-6.04368e-06
-2.87953e-06
-5.56021e-06
-2.85492e-06
-5.08217e-06
-2.82144e-06
-4.61113e-06
-2.77799e-06
-4.14886e-06
-2.72334e-06
-3.69731e-06
-2.65604e-06
-3.25869e-06
-2.57453e-06
-2.83538e-06
-2.47713e-06
-2.4301e-06
-2.36216e-06
-2.04562e-06
-2.22797e-06
-1.6851e-06
-2.07327e-06
-1.35156e-06
-1.89706e-06
-1.04844e-06
-1.69932e-06
-7.78599e-07
-1.48088e-06
-5.45465e-07
-1.24454e-06
-3.51048e-07
-9.94704e-07
-1.98455e-07
-7.39272e-07
-8.79775e-08
-4.88485e-07
-2.23929e-08
-2.57882e-07
-6.52241e-08
-5.81049e-08
3.11444e-07
-2.0549e-07
8.5114e-07
-4.27984e-07
1.30892e-06
-7.06345e-07
1.69267e-06
-1.03167e-06
2.00826e-06
-1.39215e-06
2.26456e-06
-1.78164e-06
2.46885e-06
-2.19278e-06
2.6293e-06
-2.62131e-06
2.75269e-06
-3.06258e-06
2.84569e-06
-3.51368e-06
2.91377e-06
-3.97164e-06
2.96195e-06
-4.43451e-06
2.99424e-06
-4.9004e-06
3.01412e-06
-5.36803e-06
3.0243e-06
-5.83623e-06
3.02702e-06
-6.30415e-06
3.02396e-06
-6.77103e-06
3.01645e-06
-7.23632e-06
3.00544e-06
-7.6995e-06
2.99162e-06
-8.16015e-06
2.97546e-06
-8.6179e-06
2.95727e-06
-9.07239e-06
2.93722e-06
-9.5233e-06
2.91541e-06
-9.97031e-06
2.89185e-06
-1.04131e-05
2.86651e-06
-1.08513e-05
2.83933e-06
-1.12847e-05
2.81022e-06
-1.17128e-05
2.77908e-06
-1.21353e-05
2.7458e-06
-1.25519e-05
2.71027e-06
-1.29622e-05
2.67237e-06
-1.33657e-05
2.63198e-06
-1.3762e-05
2.58898e-06
-1.41507e-05
2.54324e-06
-1.45315e-05
2.49465e-06
-1.49037e-05
2.4431e-06
-1.52669e-05
2.38847e-06
-1.56207e-05
2.33065e-06
-1.59645e-05
2.26953e-06
-1.62977e-05
2.20503e-06
-1.662e-05
2.13703e-06
-1.69307e-05
2.06548e-06
-1.72294e-05
1.99028e-06
-1.75153e-05
1.91137e-06
-1.7788e-05
1.8287e-06
-1.8047e-05
1.74223e-06
-1.82916e-05
1.65193e-06
-1.85214e-05
1.5578e-06
-1.87356e-05
1.45983e-06
-1.89339e-05
1.35804e-06
-1.91156e-05
1.25249e-06
-1.92803e-05
1.14323e-06
-1.94273e-05
1.03035e-06
-1.95563e-05
9.1395e-07
-1.96668e-05
7.94158e-07
-1.97582e-05
6.71126e-07
-1.98303e-05
5.45032e-07
-1.98826e-05
4.16073e-07
-1.99147e-05
2.84474e-07
-1.99264e-05
1.50482e-07
-1.99174e-05
1.43678e-08
-1.98875e-05
-1.23575e-07
-1.98364e-05
-2.63031e-07
-1.97642e-05
-4.03667e-07
-1.96707e-05
-5.45127e-07
-1.95559e-05
-6.87042e-07
-1.94198e-05
-8.29028e-07
-1.92626e-05
-9.70688e-07
-1.90844e-05
-1.11162e-06
-1.88855e-05
-1.2514e-06
-1.86661e-05
-1.38963e-06
-1.84266e-05
-1.52589e-06
-1.81673e-05
-1.65977e-06
-1.78888e-05
-1.79086e-06
-1.75915e-05