/*--------------------------------*- C++ -*----------------------------------*\
| =========                 |                                                 |
| \\      /  F ield         | OpenFOAM: The Open Source CFD Toolbox           |
|  \\    /   O peration     | Version:  2406                                  |
|   \\  /    A nd           | Website:  www.openfoam.com                      |
|    \\/     M anipulation  |                                                 |
\*---------------------------------------------------------------------------*/
FoamFile
{
    version     2.0;
    format      ascii;
    arch        "LSB;label=32;scalar=64";
    class       surfaceScalarField;
    location    "34.6";
    object      phi;
}
// * * * * * * * * * * * * * * * * * * * * * * * * * * * * * * * * * * * * * //

dimensions      [0 3 -1 0 0 0 0];

oriented        oriented;

internalField   nonuniform List<scalar> 
28560
(
-3.58991e-09
3.59071e-09
4.71957e-08
-5.07856e-08
1.68189e-07
-1.20993e-07
3.47225e-07
-1.79036e-07
5.66628e-07
-2.19403e-07
8.07873e-07
-2.41245e-07
1.05395e-06
-2.46077e-07
1.29054e-06
-2.36588e-07
1.50665e-06
-2.1611e-07
1.69486e-06
-1.88209e-07
1.85123e-06
-1.56375e-07
1.97498e-06
-1.23751e-07
2.0679e-06
-9.2917e-08
2.13366e-06
-6.57654e-08
2.17711e-06
-4.34432e-08
2.20349e-06
-2.63837e-08
2.21793e-06
-1.44359e-08
2.22446e-06
-6.53463e-09
2.22599e-06
-1.53211e-09
2.22425e-06
1.74287e-09
2.21941e-06
4.84375e-09
2.21004e-06
9.36479e-09
2.19354e-06
1.65038e-08
2.1663e-06
2.72428e-08
2.12402e-06
4.22745e-08
2.062e-06
6.20246e-08
1.97528e-06
8.67156e-08
1.85883e-06
1.16446e-07
1.70757e-06
1.51266e-07
1.51634e-06
1.91228e-07
1.27993e-06
2.36409e-07
9.93029e-07
2.86902e-07
6.50243e-07
3.42787e-07
2.46155e-07
4.04088e-07
-2.24579e-07
4.70735e-07
-7.67104e-07
5.42525e-07
-1.3862e-06
6.19096e-07
-2.08611e-06
6.99909e-07
-2.87034e-06
7.8423e-07
-3.74147e-06
8.7113e-07
-4.70095e-06
9.59485e-07
-5.74894e-06
1.04799e-06
-6.88409e-06
1.13515e-06
-8.10344e-06
1.21935e-06
-9.40228e-06
1.29884e-06
-1.07741e-05
1.37178e-06
-1.22104e-05
1.43631e-06
-1.37009e-05
1.49052e-06
-1.52335e-05
1.53257e-06
-1.67941e-05
1.56069e-06
-1.83673e-05
1.57319e-06
-1.99359e-05
1.56856e-06
-2.14813e-05
1.54542e-06
-2.29839e-05
1.50263e-06
-2.44232e-05
1.43923e-06
-2.57777e-05
1.35454e-06
-2.70258e-05
1.2481e-06
-2.81456e-05
1.11979e-06
-2.91154e-05
9.69803e-07
-2.99141e-05
7.98711e-07
-3.05218e-05
6.07684e-07
-3.09202e-05
3.98374e-07
-3.10904e-05
1.70263e-07
-3.10151e-05
-7.53851e-08
-3.06869e-05
-3.28128e-07
-3.00952e-05
-5.91773e-07
-2.92344e-05
-8.60743e-07
-2.81038e-05
-1.13064e-06
-2.67071e-05
-1.39665e-06
-2.50535e-05
-1.65362e-06
-2.31574e-05
-1.89609e-06
-2.1039e-05
-2.11845e-06
-1.87239e-05
-2.3151e-06
-1.62432e-05
-2.48066e-06
-1.3633e-05
-2.61019e-06
-1.09336e-05
-2.69946e-06
-8.18844e-06
-2.74512e-06
-5.44345e-06
-2.74499e-06
-2.74524e-06
-2.69821e-06
-1.39849e-07
-2.60539e-06
2.3288e-06
-2.46865e-06
4.62043e-06
-2.29163e-06
6.69982e-06
-2.07939e-06
8.53801e-06
-1.83819e-06
1.01132e-05
-1.57524e-06
1.14116e-05
-1.29838e-06
1.24273e-05
-1.01571e-06
1.31625e-05
-7.35189e-07
1.36269e-05
-4.6433e-07
1.38368e-05
-2.09957e-07
1.38166e-05
2.02439e-08
1.35851e-05
2.31472e-07
1.3177e-05
4.08088e-07
1.2623e-05
5.54007e-07
1.19531e-05
6.69946e-07
1.11971e-05
7.55977e-07
1.03832e-05
8.13928e-07
9.53675e-06
8.46404e-07
8.6802e-06
8.56552e-07
7.83237e-06
8.4783e-07
7.00858e-06
8.23785e-07
6.22071e-06
7.87875e-07
5.47737e-06
7.43338e-07
4.78427e-06
6.93097e-07
4.14457e-06
6.39705e-07
3.55924e-06
5.85329e-07
3.02749e-06
5.31744e-07
2.54714e-06
4.80352e-07
2.11497e-06
4.32175e-07
1.72713e-06
3.87837e-07
1.37963e-06
3.47501e-07
1.06885e-06
3.10777e-07
7.9224e-07
2.76612e-07
5.49042e-07
2.43198e-07
3.41053e-07
2.07989e-07
1.73049e-07
1.68003e-07
5.23935e-08
1.20656e-07
-1.33146e-08
6.57081e-08
-2.27707e-08
9.45609e-09
-2.27707e-08
4.83489e-08
-4.47582e-08
2.36024e-07
-2.38461e-07
5.71259e-07
-4.56228e-07
1.02925e-06
-6.37023e-07
1.5737e-06
-7.63854e-07
2.16523e-06
-8.32781e-07
2.76636e-06
-8.47205e-07
3.34454e-06
-8.14771e-07
3.87399e-06
-7.45557e-07
4.33648e-06
-6.50695e-07
4.72138e-06
-5.41279e-07
5.02506e-06
-4.27431e-07
5.24974e-06
-3.17592e-07
5.40202e-06
-2.18051e-07
5.49129e-06
-1.32714e-07
5.52802e-06
-6.31147e-08
5.52228e-06
-8.69613e-09
5.48244e-06
3.3307e-08
5.41429e-06
6.66212e-08
5.32006e-06
9.59717e-08
5.19846e-06
1.26447e-07
5.04484e-06
1.62983e-07
4.85146e-06
2.09882e-07
4.60811e-06
2.70592e-07
4.30278e-06
3.47609e-07
3.92226e-06
4.42538e-07
3.45271e-06
5.56271e-07
2.87994e-06
6.89218e-07
2.18968e-06
8.4152e-07
1.36771e-06
1.0132e-06
3.99908e-07
1.20421e-06
-7.27579e-07
1.41439e-06
-2.02816e-06
1.64337e-06
-3.5145e-06
1.89043e-06
-5.19815e-06
2.15438e-06
-7.08908e-06
2.43345e-06
-9.19517e-06
2.72519e-06
-1.15217e-05
3.02648e-06
-1.4071e-05
3.33346e-06
-1.68415e-05
3.64162e-06
-1.98278e-05
3.94584e-06
-2.30203e-05
4.24045e-06
-2.64045e-05
4.51941e-06
-2.99616e-05
4.77639e-06
-3.36677e-05
5.00498e-06
-3.74948e-05
5.19883e-06
-4.14103e-05
5.35185e-06
-4.53781e-05
5.45832e-06
-4.93586e-05
5.51307e-06
-5.33095e-05
5.51159e-06
-5.71864e-05
5.45013e-06
-6.09436e-05
5.32574e-06
-6.45345e-05
5.13634e-06
-6.79126e-05
4.88071e-06
-7.10319e-05
4.55853e-06
-7.38477e-05
4.17034e-06
-7.63172e-05
3.71755e-06
-7.83998e-05
3.20241e-06
-8.00581e-05
2.62806e-06
-8.1258e-05
1.99861e-06
-8.19692e-05
1.31889e-06
-8.21655e-05
5.94704e-07
-8.18297e-05
-1.65497e-07
-8.0944e-05
-9.61146e-07
-7.94974e-05
-1.77471e-06
-7.74894e-05
-2.59979e-06
-7.4924e-05
-3.42606e-06
-7.18131e-05
-4.24163e-06
-6.81758e-05
-5.03394e-06
-6.40396e-05
-5.78977e-06
-5.94402e-05
-6.49548e-06
-5.44215e-05
-7.13718e-06
-4.90354e-05
-7.7012e-06
-4.33415e-05
-8.1745e-06
-3.74067e-05
-8.54505e-06
-3.13037e-05
-8.80247e-06
-2.51104e-05
-8.93841e-06
-1.89083e-05
-8.94713e-06
-1.27806e-05
-8.82589e-06
-6.81067e-06
-8.5753e-06
-1.07976e-06
-8.19956e-06
4.33509e-06
-7.70649e-06
9.36315e-06
-7.10745e-06
1.3942e-05
-6.41704e-06
1.80194e-05
-5.65265e-06
2.15548e-05
-4.83381e-06
2.45207e-05
-3.98151e-06
2.69027e-05
-3.11727e-06
2.87008e-05
-2.26238e-06
2.9928e-05
-1.43715e-06
3.06077e-05
-6.59494e-07
3.07807e-05
5.84353e-08
3.04944e-05
6.94393e-07
2.97997e-05
1.24875e-06
2.87568e-05
1.7128e-06
2.74279e-05
2.08491e-06
2.58752e-05
2.36666e-06
2.41591e-05
2.56253e-06
2.23361e-05
2.67947e-06
2.04577e-05
2.72625e-06
1.85687e-05
2.71282e-06
1.67069e-05
2.64966e-06
1.4903e-05
2.54728e-06
1.31803e-05
2.41574e-06
1.15557e-05
2.26428e-06
1.00399e-05
2.10113e-06
8.63832e-06
1.93337e-06
7.35188e-06
1.7668e-06
6.17814e-06
1.60592e-06
5.11223e-06
1.45374e-06
4.14809e-06
1.31164e-06
3.27979e-06
1.17907e-06
2.50313e-06
1.05328e-06
1.81713e-06
9.29191e-07
1.2255e-06
7.99621e-07
7.37146e-07
6.56359e-07
3.65131e-07
4.92671e-07
1.22383e-07
3.08455e-07
1.266e-08
1.1918e-07
-1.01107e-08
1.14267e-07
-1.59025e-07
4.43467e-07
-5.67662e-07
9.64956e-07
-9.77717e-07
1.64174e-06
-1.3138e-06
2.42629e-06
-1.54841e-06
3.26746e-06
-1.67395e-06
4.11598e-06
-1.69572e-06
4.92843e-06
-1.62722e-06
5.66975e-06
-1.48687e-06
6.31445e-06
-1.29539e-06
6.84681e-06
-1.07364e-06
7.26017e-06
-8.40795e-07
7.55554e-06
-6.12962e-07
7.73972e-06
-4.0223e-07
7.82319e-06
-2.16182e-07
7.81789e-06
-5.78137e-08
7.73516e-06
7.40301e-08
7.58416e-06
1.84312e-07
7.37017e-06
2.80608e-07
7.09389e-06
3.72255e-07
6.75104e-06
4.69295e-07
6.33256e-06
5.8146e-07
5.82509e-06
7.17355e-07
5.21176e-06
8.83919e-07
4.47315e-06
1.08622e-06
3.58814e-06
1.32755e-06
2.5347e-06
1.60971e-06
1.29049e-06
1.93343e-06
-1.66728e-07
2.29874e-06
-1.85867e-06
2.70514e-06
-3.80619e-06
3.15173e-06
-6.02885e-06
3.63705e-06
-8.54435e-06
4.15887e-06
-1.13679e-05
4.71398e-06
-1.45114e-05
5.29792e-06
-1.79828e-05
5.90484e-06
-2.1785e-05
6.52739e-06
-2.59153e-05
7.15678e-06
-3.03647e-05
7.78285e-06
-3.51174e-05
8.39427e-06
-4.01503e-05
8.97879e-06
-4.54334e-05
9.52357e-06
-5.09296e-05
1.00156e-05
-5.65952e-05
1.0442e-05
-6.23807e-05
1.07905e-05
-6.82317e-05
1.10499e-05
-7.409e-05
1.12101e-05
-7.98946e-05
1.12629e-05
-8.55829e-05
1.12014e-05
-9.10923e-05
1.1021e-05
-9.63609e-05
1.07187e-05
-0.000101328
1.02933e-05
-0.000105938
9.74552e-06
-0.000110134
9.0775e-06
-0.000113869
8.29291e-06
-0.000117095
7.39671e-06
-0.000119773
6.39504e-06
-0.000121865
5.29513e-06
-0.000123343
4.10519e-06
-0.000124178
2.83448e-06
-0.000124353
1.49352e-06
-0.000123849
9.10349e-08
-0.000122661
-1.35399e-06
-0.000120785
-2.83654e-06
-0.000118223
-4.33754e-06
-0.000114981
-5.8411e-06
-0.000111077
-7.33061e-06
-0.000106531
-8.78781e-06
-0.000101371
-1.01933e-05
-9.56345e-05
-1.15266e-05
-8.93632e-05
-1.27668e-05
-8.26077e-05
-1.38926e-05
-7.5426e-05
-1.4883e-05
-6.78828e-05
-1.57176e-05
-6.00502e-05
-1.63777e-05
-5.2006e-05
-1.68466e-05
-4.38338e-05
-1.71107e-05
-3.5621e-05
-1.71599e-05
-2.74584e-05
-1.69885e-05
-1.94378e-05
-1.65959e-05
-1.16506e-05
-1.59867e-05
-4.18595e-06
-1.51711e-05
2.87151e-06
-1.41649e-05
9.44354e-06
-1.29891e-05
1.54602e-05
-1.16694e-05
2.0862e-05
-1.02355e-05
2.56008e-05
-8.72033e-06
2.96419e-05
-7.15842e-06
3.29647e-05
-5.58515e-06
3.55628e-05
-4.03525e-06
3.74447e-05
-2.54142e-06
3.86371e-05
-1.13393e-06
3.9174e-05
1.57509e-07
3.91034e-05
1.31937e-06
3.84865e-05
2.32964e-06
3.7391e-05
3.18042e-06
3.58901e-05
3.86754e-06
3.40599e-05
4.39274e-06
3.19764e-05
4.76301e-06
2.97129e-05
4.98976e-06
2.73378e-05
5.0879e-06
2.49127e-05
5.07476e-06
2.2491e-05
4.96899e-06
2.01172e-05
4.78957e-06
1.78265e-05
4.5549e-06
1.56456e-05
4.2821e-06
1.35924e-05
3.98651e-06
1.1678e-05
3.68124e-06
9.90703e-06
3.37687e-06
8.2797e-06
3.08106e-06
6.79321e-06
2.79814e-06
5.44369e-06
2.52859e-06
4.22832e-06
2.26866e-06
3.14727e-06
2.01023e-06
2.20546e-06
1.74144e-06
1.41317e-06
1.44865e-06
7.8517e-07
1.12067e-06
3.37004e-07
7.56621e-07
7.80636e-08
3.7812e-07
6.7953e-08
1.68742e-07
-3.27767e-07
6.17945e-07
-1.01686e-06
1.29464e-06
-1.65441e-06
2.1449e-06
-2.16406e-06
3.10975e-06
-2.51326e-06
4.1289e-06
-2.6931e-06
5.14522e-06
-2.71204e-06
6.10851e-06
-2.59051e-06
6.97806e-06
-2.35642e-06
7.72392e-06
-2.04125e-06
8.32705e-06
-1.67677e-06
8.77846e-06
-1.29221e-06
9.07762e-06
-9.12118e-07
9.23029e-06
-5.54909e-07
9.24616e-06
-2.32051e-07
9.13629e-06
5.20555e-08
8.9107e-06
2.99622e-07
8.57646e-06
5.18551e-07
8.13601e-06
7.21065e-07
7.58615e-06
9.22108e-07
6.91777e-06
1.13768e-06
6.11596e-06
1.38326e-06
5.16082e-06
1.6725e-06
4.0284e-06
2.01634e-06
2.6919e-06
2.42272e-06
1.12279e-06
2.89666e-06
-7.08148e-07
3.44065e-06
-2.82998e-06
4.05526e-06
-5.27082e-06
4.73958e-06
-8.05712e-06
5.49144e-06
-1.12129e-05
6.30749e-06
-1.47588e-05
7.18292e-06
-1.8711e-05
8.11113e-06
-2.30805e-05
9.08344e-06
-2.78713e-05
1.00888e-05
-3.30802e-05
1.11137e-05
-3.86951e-05
1.21423e-05
-4.46948e-05
1.31565e-05
-5.10485e-05
1.41366e-05
-5.77159e-05
1.50617e-05
-6.46478e-05
1.59107e-05
-7.17865e-05
1.66623e-05
-7.90677e-05
1.72967e-05
-8.64214e-05
1.77957e-05
-9.37742e-05
1.81433e-05
-0.000101051
1.83266e-05
-0.000108176
1.83356e-05
-0.000115077
1.81636e-05
-0.000121683
1.78072e-05
-0.000127928
1.72659e-05
-0.000133751
1.65419e-05
-0.000139098
1.564e-05
-0.000143919
1.45667e-05
-0.000148172
1.33305e-05
-0.00015182
1.1941e-05
-0.000154832
1.04088e-05
-0.000157183
8.74554e-06
-0.000158851
6.96342e-06
-0.000159821
5.0754e-06
-0.000160082
3.09509e-06
-0.000159625
1.03673e-06
-0.000158449
-1.08495e-06
-0.000156551
-3.25245e-06
-0.000153937
-5.44982e-06
-0.000150617
-7.65804e-06
-0.000146601
-9.85685e-06
-0.000141907
-1.20245e-05
-0.000136557
-1.4138e-05
-0.000130578
-1.61725e-05
-0.000124002
-1.8102e-05
-0.00011687
-1.98993e-05
-0.000109226
-2.15366e-05
-0.000101123
-2.29861e-05
-9.26197e-05
-2.42206e-05
-8.3783e-05
-2.52144e-05
-7.46854e-05
-2.59443e-05
-6.54056e-05
-2.63905e-05
-5.60278e-05
-2.65376e-05
-4.66404e-05
-2.6376e-05
-3.73344e-05
-2.59019e-05
-2.82024e-05
-2.51188e-05
-1.93362e-05
-2.40373e-05
-1.08255e-05
-2.26756e-05
-2.75559e-06
-2.1059e-05
4.79428e-06
-1.92192e-05
1.17528e-05
-1.7194e-05
1.80581e-05
-1.50257e-05
2.36594e-05
-1.27597e-05
2.85179e-05
-1.04437e-05
3.2608e-05
-8.12533e-06
3.59182e-05
-5.85158e-06
3.84512e-05
-3.66692e-06
4.02208e-05
-1.61212e-06
4.12611e-05
2.7906e-07
4.16143e-05
1.97645e-06
4.13363e-05
3.45836e-06
4.04932e-05
4.71069e-06
3.91587e-05
5.72723e-06
3.7412e-05
6.50967e-06
3.53347e-05
7.06707e-06
3.30077e-05
7.41496e-06
3.05083e-05
7.5741e-06
2.79083e-05
7.56905e-06
2.52712e-05
7.42661e-06
2.26518e-05
7.17436e-06
2.00946e-05
6.8393e-06
1.76344e-05
6.44666e-06
1.52967e-05
6.01897e-06
1.30984e-05
5.57519e-06
1.10495e-05
5.1299e-06
9.15511e-06
4.69254e-06
7.41714e-06
4.26656e-06
5.83699e-06
3.84881e-06
4.41776e-06
3.42946e-06
3.16633e-06
2.99287e-06
2.09463e-06
2.52034e-06
1.21987e-06
1.99542e-06
5.63309e-07
1.41319e-06
1.48205e-07
7.93224e-07
2.16158e-07
2.10322e-07
-5.38089e-07
7.54363e-07
-1.56091e-06
1.55429e-06
-2.45434e-06
2.53819e-06
-3.14796e-06
3.6346e-06
-3.60968e-06
4.77439e-06
-3.83289e-06
5.89398e-06
-3.83163e-06
6.93845e-06
-3.63498e-06
7.86366e-06
-3.28163e-06
8.63724e-06
-2.81484e-06
9.23842e-06
-2.27794e-06
9.65681e-06
-1.7106e-06
9.89058e-06
-1.14589e-06
9.94402e-06
-6.08344e-07
9.82485e-06
-1.12891e-07
9.54159e-06
3.3532e-07
9.10093e-06
7.40285e-07
8.50565e-06
1.11382e-06
7.75304e-06
1.47368e-06
6.8339e-06
1.84125e-06
5.73236e-06
2.23922e-06
4.42634e-06
2.68928e-06
2.8885e-06
3.21033e-06
1.08756e-06
3.81728e-06
-1.01027e-06
4.52056e-06
-3.43984e-06
5.32622e-06
-6.23573e-06
6.23653e-06
-9.43103e-06
7.25057e-06
-1.30562e-05
8.36474e-06
-1.71378e-05
9.573e-06
-2.1697e-05
1.08667e-05
-2.67486e-05
1.22345e-05
-3.22992e-05
1.36617e-05
-3.83457e-05
1.513e-05
-4.48746e-05
1.66177e-05
-5.18606e-05
1.80997e-05
-5.92665e-05
1.95482e-05
-6.70433e-05
2.09333e-05
-7.51309e-05
2.22241e-05
-8.34594e-05
2.33903e-05
-9.19514e-05
2.44026e-05
-0.000100524
2.52345e-05
-0.00010909
2.58633e-05
-0.000117565
2.62702e-05
-0.000125863
2.64415e-05
-0.000133905
2.63684e-05
-0.000141616
2.60469e-05
-0.00014893
2.54772e-05
-0.000155786
2.46638e-05
-0.000162134
2.36141e-05
-0.000167931
2.23382e-05
-0.000173139
2.08482e-05
-0.00017773
1.91575e-05
-0.000181679
1.72803e-05
-0.00018497
1.52314e-05
-0.000187587
1.30259e-05
-0.00018952
1.06788e-05
-0.000190762
8.20534e-06
-0.000191308
5.62093e-06
-0.000191154
2.94111e-06
-0.000190299
1.82061e-07
-0.000188744
-2.63959e-06
-0.000186491
-5.50578e-06
-0.000183543
-8.39758e-06
-0.000179907
-1.12941e-05
-0.000175591
-1.41727e-05
-0.000170607
-1.70089e-05
-0.000164969
-1.97757e-05
-0.000158697
-2.24443e-05
-0.000151816
-2.49837e-05
-0.000144354
-2.7361e-05
-0.000136348
-2.95422e-05
-0.000127842
-3.14927e-05
-0.000118885
-3.31779e-05
-0.000109534
-3.45645e-05
-9.98568e-05
-3.56219e-05
-8.99245e-05
-3.63228e-05
-7.98167e-05
-3.66454e-05
-6.96187e-05
-3.6574e-05
-5.94199e-05
-3.61006e-05
-4.9313e-05
-3.52257e-05
-3.93915e-05
-3.39588e-05
-2.97482e-05
-3.23188e-05
-2.04733e-05
-3.03339e-05
-1.1652e-05
-2.80406e-05
-3.36297e-06
-2.5483e-05
4.32294e-06
-2.27116e-05
1.13444e-05
-1.97812e-05
1.76506e-05
-1.67498e-05
2.32019e-05
-1.36766e-05
2.79706e-05
-1.06203e-05
3.19412e-05
-7.63753e-06
3.51107e-05
-4.78167e-06
3.74905e-05
-2.10073e-06
3.91039e-05
3.63067e-07
3.99873e-05
2.57496e-06
4.01896e-05
4.50839e-06
3.97707e-05
6.14609e-06
3.88001e-05
7.4803e-06
3.73543e-05
8.51287e-06
3.55144e-05
9.25485e-06
3.3363e-05
9.7255e-06
3.09811e-05
9.95091e-06
2.84455e-05
9.96227e-06
2.58259e-05
9.79394e-06
2.31837e-05
9.48148e-06
2.05706e-05
9.05981e-06
1.8028e-05
8.5615e-06
1.5588e-05
8.0152e-06
1.32737e-05
7.44419e-06
1.11013e-05
6.865e-06
9.08171e-06
6.28613e-06
7.22343e-06
5.7071e-06
5.53476e-06
5.11813e-06
4.02646e-06
4.50117e-06
2.71391e-06
3.83289e-06
1.61897e-06
3.09037e-06
7.71654e-07
2.26051e-06
2.12474e-07
1.3524e-06
4.28633e-07
2.41332e-07
-7.7942e-07
8.57808e-07
-2.17738e-06
1.75158e-06
-3.34812e-06
2.8335e-06
-4.22988e-06
4.01918e-06
-4.79536e-06
5.23039e-06
-5.04409e-06
6.39749e-06
-4.99873e-06
7.46184e-06
-4.69933e-06
8.3773e-06
-4.19709e-06
9.11055e-06
-3.54809e-06
9.64035e-06
-2.80774e-06
9.95586e-06
-2.02611e-06
1.00544e-05
-1.24438e-06
9.93841e-06
-4.92404e-07
9.61308e-06
2.12441e-07
9.08298e-06
8.65421e-07
8.34975e-06
1.47351e-06
7.40997e-06
2.05361e-06
6.2537e-06
2.62995e-06
4.86385e-06
3.2311e-06
3.2163e-06
3.88677e-06
1.28075e-06
4.62483e-06
-9.77887e-07
5.46897e-06
-3.59777e-06
6.43716e-06
-6.61829e-06
7.54108e-06
-1.00783e-05
8.78624e-06
-1.40144e-05
1.01726e-05
-1.84592e-05
1.16954e-05
-2.34397e-05
1.33453e-05
-2.89756e-05
1.51088e-05
-3.5077e-05
1.69682e-05
-4.17434e-05
1.89009e-05
-4.89613e-05
2.08796e-05
-5.67036e-05
2.28723e-05
-6.49289e-05
2.4843e-05
-7.35814e-05
2.67522e-05
-8.25922e-05
2.8559e-05
-9.18812e-05
3.02222e-05
-0.000101359
3.17022e-05
-0.000110932
3.29629e-05
-0.000120502
3.3973e-05
-0.000129975
3.4707e-05
-0.000139258
3.51463e-05
-0.000148267
3.52791e-05
-0.000156925
3.51003e-05
-0.000165168
3.46106e-05
-0.000172937
3.38163e-05
-0.000180187
3.27277e-05
-0.000186882
3.13583e-05
-0.000192992
2.97239e-05
-0.000198495
2.78419e-05
-0.000203377
2.573e-05
-0.000207626
2.34064e-05
-0.000211235
2.08887e-05
-0.000214198
1.81944e-05
-0.000216512
1.534e-05
-0.000218175
1.23417e-05
-0.000219184
9.21512e-06
-0.000219539
5.97581e-06
-0.000219237
2.6393e-06
-0.000218277
-7.78376e-07
-0.000216656
-4.26054e-06
-0.000214373
-7.78905e-06
-0.000211426
-1.13444e-05
-0.000207815
-1.4905e-05
-0.000203541
-1.84466e-05
-0.000198607
-2.19428e-05
-0.000193019
-2.53639e-05
-0.000186786
-2.86774e-05
-0.000179922
-3.18478e-05
-0.000172446
-3.48372e-05
-0.000164383
-3.76051e-05
-0.000155766
-4.01098e-05
-0.000146634
-4.2309e-05
-0.000137038
-4.41611e-05
-0.000127033
-4.56263e-05
-0.000116687
-4.66689e-05
-0.000106074
-4.72585e-05
-9.52765e-05
-4.73717e-05
-8.43832e-05
-4.6994e-05
-7.34881e-05
-4.61208e-05
-6.2688e-05
-4.47589e-05
-5.20806e-05
-4.29263e-05
-4.17618e-05
-4.06527e-05
-3.18237e-05
-3.79786e-05
-2.23527e-05
-3.49541e-05
-1.3427e-05
-3.16373e-05
-5.11597e-06
-2.80922e-05
2.5212e-06
-2.4387e-05
9.43602e-06
-2.05914e-05
1.55909e-05
-1.67751e-05
2.09592e-05
-1.30058e-05
2.55254e-05
-9.34787e-06
2.92852e-05
-5.86059e-06
3.22458e-05
-2.59754e-06
3.44259e-05
3.94873e-07
3.58558e-05
3.07849e-06
3.65776e-05
5.42427e-06
3.66446e-05
7.41336e-06
3.61199e-05
9.03757e-06
3.50751e-05
1.02996e-05
3.3588e-05
1.12127e-05
3.17392e-05
1.17997e-05
2.96098e-05
1.20917e-05
2.72781e-05
1.21257e-05
2.48168e-05
1.19427e-05
2.22913e-05
1.15853e-05
1.97579e-05
1.10949e-05
1.72633e-05
1.05098e-05
1.48449e-05
9.86258e-06
1.25317e-05
9.17816e-06
1.03461e-05
8.47177e-06
8.30573e-06
7.74746e-06
6.42654e-06
6.99732e-06
4.72544e-06
6.20226e-06
3.22358e-06
5.33476e-06
1.9497e-06
4.36425e-06
9.44351e-07
3.26585e-06
2.6543e-07
2.03132e-06
6.94063e-07
2.64869e-07
-1.04429e-06
9.35773e-07
-2.84829e-06
1.89777e-06
-4.31011e-06
3.04555e-06
-5.37766e-06
4.28191e-06
-6.03172e-06
5.51944e-06
-6.28162e-06
6.68275e-06
-6.16203e-06
7.7102e-06
-5.72679e-06
8.55466e-06
-5.04155e-06
9.18298e-06
-4.17641e-06
9.5745e-06
-3.19927e-06
9.71867e-06
-2.17029e-06
9.61213e-06
-1.13783e-06
9.25555e-06
-1.35829e-07
8.65053e-06
8.17468e-07
7.79658e-06
1.71937e-06
6.68871e-06
2.58139e-06
5.31551e-06
3.4268e-06
3.65816e-06
4.2873e-06
1.69023e-06
5.19903e-06
-6.21552e-07
6.19855e-06
-3.31586e-06
7.31914e-06
-6.43477e-06
8.58788e-06
-1.00215e-05
1.00239e-05
-1.41182e-05
1.16377e-05
-1.87635e-05
1.34315e-05
-2.39906e-05
1.53997e-05
-2.9825e-05
1.75297e-05
-3.6282e-05
1.98024e-05
-4.33653e-05
2.2192e-05
-5.10639e-05
2.46668e-05
-5.93516e-05
2.71886e-05
-6.81853e-05
2.97133e-05
-7.75054e-05
3.21924e-05
-8.72367e-05
3.45743e-05
-9.72908e-05
3.68063e-05
-0.000107569
3.88374e-05
-0.000117967
4.062e-05
-0.000128377
4.21127e-05
-0.000138696
4.32817e-05
-0.000148825
4.41016e-05
-0.000158674
4.45563e-05
-0.000168166
4.46381e-05
-0.000177234
4.43476e-05
-0.000185826
4.36919e-05
-0.000193899
4.26837e-05
-0.000201422
4.13396e-05
-0.000208374
3.96791e-05
-0.000214739
3.77232e-05
-0.000220509
3.54935e-05
-0.000225678
3.30114e-05
-0.000230246
3.02977e-05
-0.000234211
2.73721e-05
-0.000237576
2.42532e-05
-0.00024034
2.09584e-05
-0.000242504
1.75039e-05
-0.000244067
1.39051e-05
-0.000245029
1.01765e-05
-0.000245386
6.33266e-06
-0.000245134
2.38785e-06
-0.000244269
-1.64297e-06
-0.000242786
-5.74397e-06
-0.000240677
-9.89778e-06
-0.000237937
-1.40852e-05
-0.000234557
-1.82846e-05
-0.000230532
-2.24714e-05
-0.000225857
-2.66179e-05
-0.000220528
-3.06927e-05
-0.000214545
-3.46605e-05
-0.00020791
-3.84824e-05
-0.000200632
-4.21156e-05
-0.000192723
-4.5514e-05
-0.000184204
-4.8629e-05
-0.000175103
-5.14102e-05
-0.000165457
-5.38068e-05
-0.000155314
-5.57694e-05
-0.000144731
-5.72517e-05
-0.000133777
-5.82128e-05
-0.000122529
-5.86192e-05
-0.000111077
-5.84469e-05
-9.95137e-05
-5.76837e-05
-8.79421e-05
-5.63305e-05
-7.64663e-05
-5.44021e-05
-6.51911e-05
-5.19278e-05
-5.42191e-05
-4.89507e-05
-4.3647e-05
-4.55261e-05
-3.35641e-05
-4.17202e-05
-2.40495e-05
-3.76068e-05
-1.51712e-05
-3.32652e-05
-6.98571e-06
-2.87769e-05
4.62621e-07
-2.42234e-05
7.14061e-06
-1.96838e-05
1.30258e-05
-1.5233e-05
1.81058e-05
-1.09406e-05
2.23781e-05
-6.86986e-06
2.58497e-05
-3.07665e-06
2.85371e-05
3.91049e-07
3.04672e-05
3.49417e-06
3.16771e-05
6.20343e-06
3.22145e-05
8.50026e-06
3.21366e-05
1.03775e-05
3.15096e-05
1.18396e-05
3.04067e-05
1.29027e-05
2.8905e-05
1.35933e-05
2.70836e-05
1.3947e-05
2.50201e-05
1.40063e-05
2.27878e-05
1.38176e-05
2.04538e-05
1.3429e-05
1.80772e-05
1.28865e-05
1.57083e-05
1.22314e-05
1.33891e-05
1.14974e-05
1.11538e-05
1.0707e-05
9.03103e-06
9.87026e-06
7.04594e-06
8.98241e-06
5.22373e-06
8.02447e-06
3.59329e-06
6.9652e-06
2.19188e-06
5.76566e-06
1.07105e-06
4.38668e-06
3.04092e-07
2.79828e-06
9.98155e-07
2.8336e-07
-1.32765e-06
9.94443e-07
-3.55937e-06
2.00221e-06
-5.31788e-06
3.18602e-06
-6.56147e-06
4.43622e-06
-7.28192e-06
5.65661e-06
-7.50201e-06
6.76659e-06
-7.27201e-06
7.70234e-06
-6.66254e-06
8.4167e-06
-5.7559e-06
8.87768e-06
-4.63739e-06
9.06598e-06
-3.38757e-06
8.97177e-06
-2.07607e-06
8.59109e-06
-7.57146e-07
7.92224e-06
5.33012e-07
6.96245e-06
1.77726e-06
5.70487e-06
2.97695e-06
4.13636e-06
4.14989e-06
2.2361e-06
5.32707e-06
-2.48628e-08
6.54826e-06
-2.68291e-06
7.85707e-06
-5.7803e-06
9.29595e-06
-9.3629e-06
1.09017e-05
-1.34774e-05
1.27024e-05
-1.81685e-05
1.4715e-05
-2.34761e-05
1.69453e-05
-2.94323e-05
1.93878e-05
-3.60594e-05
2.20269e-05
-4.33668e-05
2.48371e-05
-5.13487e-05
2.77843e-05
-5.99823e-05
3.08257e-05
-6.92263e-05
3.39108e-05
-7.90204e-05
3.69826e-05
-8.92863e-05
3.99792e-05
-9.99299e-05
4.2836e-05
-0.000110845
4.54894e-05
-0.000121918
4.78791e-05
-0.000133032
4.99516e-05
-0.000144074
5.16622e-05
-0.000154938
5.29766e-05
-0.000165529
5.38721e-05
-0.000175764
5.43367e-05
-0.000185576
5.43688e-05
-0.000194913
5.39752e-05
-0.000203735
5.31699e-05
-0.000212016
5.1972e-05
-0.000219736
5.04041e-05
-0.000226887
4.84907e-05
-0.000233465
4.62571e-05
-0.00023947
4.37284e-05
-0.000244905
4.09287e-05
-0.000249775
3.78809e-05
-0.000254084
3.46062e-05
-0.000257835
3.1124e-05
-0.000261035
2.74523e-05
-0.000263683
2.36073e-05
-0.000265783
1.96039e-05
-0.000267334
1.54561e-05
-0.000268335
1.11769e-05
-0.000268781
6.77919e-06
-0.000268669
2.27575e-06
-0.000267992
-2.32007e-06
-0.000266742
-6.99392e-06
-0.00026491
-1.17299e-05
-0.000262485
-1.65099e-05
-0.000259457
-2.13134e-05
-0.000255812
-2.61164e-05
-0.000251538
-3.08913e-05
-0.000246625
-3.56062e-05
-0.00024106
-4.02248e-05
-0.000234837
-4.47058e-05
-0.00022795
-4.90031e-05
-0.000220397
-5.30661e-05
-0.000212186
-5.684e-05
-0.00020333
-6.02668e-05
-0.00019385
-6.32868e-05
-0.000183779
-6.584e-05
-0.000173162
-6.78683e-05
-0.000162057
-6.93181e-05
-0.000150533
-7.01429e-05
-0.000138674
-7.0306e-05
-0.000126575
-6.97835e-05
-0.000114339
-6.85662e-05
-0.000102079
-6.66619e-05
-8.99113e-05
-6.40956e-05
-7.79519e-05
-6.091e-05
-6.63137e-05
-5.71643e-05
-5.51023e-05
-5.29317e-05
-4.44126e-05
-4.82965e-05
-3.4327e-05
-4.33508e-05
-2.49136e-05
-3.81904e-05
-1.6226e-05
-3.29111e-05
-8.30375e-06
-2.7606e-05
-1.17402e-06
-2.23628e-05
5.14739e-06
-1.72621e-05
1.06542e-05
-1.23767e-05
1.53488e-05
-7.77118e-06
1.92411e-05
-3.50127e-06
2.23491e-05
3.86145e-07
2.46989e-05
3.85363e-06
2.63252e-05
6.87392e-06
2.7272e-05
9.43069e-06
2.75922e-05
1.15194e-05
2.73474e-05
1.31476e-05
2.6606e-05
1.43347e-05
2.54414e-05
1.51115e-05
2.39298e-05
1.55179e-05
2.21466e-05
1.56008e-05
2.01643e-05
1.54112e-05
1.80504e-05
1.50004e-05
1.58653e-05
1.44166e-05
1.3662e-05
1.37007e-05
1.14861e-05
1.28829e-05
9.37722e-06
1.19792e-05
7.37085e-06
1.09888e-05
5.50167e-06
9.89365e-06
3.80767e-06
8.6592e-06
2.33538e-06
7.23795e-06
1.14669e-06
5.57537e-06
3.2708e-07
3.61789e-06
1.32524e-06
2.9825e-07
-1.6259e-06
1.03748e-06
-4.2986e-06
2.07026e-06
-6.35066e-06
3.26104e-06
-7.75225e-06
4.48837e-06
-8.50926e-06
5.64807e-06
-8.66171e-06
6.65528e-06
-8.27923e-06
7.44509e-06
-7.45235e-06
7.97133e-06
-6.28215e-06
8.20405e-06
-4.87011e-06
8.12585e-06
-3.30937e-06
7.72772e-06
-1.67794e-06
7.00476e-06
-3.41904e-08
5.95215e-06
1.58562e-06
4.56159e-06
3.16782e-06
2.81855e-06
4.71999e-06
7.00473e-07
6.26797e-06
-1.8239e-06
7.85145e-06
-4.79397e-06
9.51833e-06
-8.25556e-06
1.13187e-05
-1.22583e-05
1.32986e-05
-1.68521e-05
1.54956e-05
-2.20841e-05
1.79344e-05
-2.79946e-05
2.06255e-05
-3.46142e-05
2.35648e-05
-4.19603e-05
2.6734e-05
-5.0035e-05
3.01015e-05
-5.88217e-05
3.36238e-05
-6.82842e-05
3.72468e-05
-7.83651e-05
4.09066e-05
-8.89865e-05
4.45322e-05
-0.000100052
4.8048e-05
-0.00011145
5.13771e-05
-0.000123059
5.44452e-05
-0.000134754
5.71845e-05
-0.000146412
5.95369e-05
-0.000157917
6.14563e-05
-0.000169165
6.29103e-05
-0.000180068
6.38798e-05
-0.000190554
6.43586e-05
-0.000200569
6.43513e-05
-0.000210072
6.38715e-05
-0.000219036
6.29396e-05
-0.000227447
6.15804e-05
-0.000235296
5.98217e-05
-0.000242584
5.76923e-05
-0.000249315
5.5221e-05
-0.000255493
5.24359e-05
-0.000261128
4.93634e-05
-0.000266228
4.60283e-05
-0.000270801
4.24534e-05
-0.000274854
3.86592e-05
-0.000278394
3.46646e-05
-0.000281428
3.04861e-05
-0.00028396
2.6139e-05
-0.000285992
2.16367e-05
-0.000287528
1.69917e-05
-0.000288566
1.22155e-05
-0.000289106
7.31906e-06
-0.000289144
2.31335e-06
-0.000288674
-2.79031e-06
-0.000287688
-7.97971e-06
-0.000286177
-1.32412e-05
-0.000284128
-1.85589e-05
-0.000281527
-2.39143e-05
-0.000278358
-2.92856e-05
-0.000274602
-3.46469e-05
-0.000270241
-3.99675e-05
-0.000265254
-4.52117e-05
-0.000259622
-5.03379e-05
-0.000253326
-5.52988e-05
-0.000246351
-6.0041e-05
-0.000238686
-6.45054e-05
-0.000230325
-6.86279e-05
-0.000221271
-7.23405e-05
-0.000211538
-7.55728e-05
-0.000201152
-7.82546e-05
-0.000190152
-8.0318e-05
-0.000178594
-8.17008e-05
-0.00016655
-8.23502e-05
-0.000154108
-8.22258e-05
-0.000141371
-8.13033e-05
-0.000128455
-7.95773e-05
-0.000115488
-7.7063e-05
-0.0001026
-7.37977e-05
-8.99246e-05
-6.98397e-05
-7.75896e-05
-6.52667e-05
-6.57137e-05
-6.01724e-05
-5.4402e-05
-5.46625e-05
-4.3743e-05
-4.88494e-05
-3.38069e-05
-4.28472e-05
-2.46456e-05
-3.67673e-05
-1.62938e-05
-3.07145e-05
-8.77135e-06
-2.47845e-05
-2.08558e-06
-1.90625e-05
3.76581e-06
-1.36226e-05
8.79283e-06
-8.52829e-06
1.30118e-05
-3.83283e-06
1.6445e-05
4.20485e-07
1.91206e-05
4.19826e-06
2.10739e-05
7.47743e-06
2.23473e-05
1.02459e-05
2.29915e-05
1.25034e-05
2.30645e-05
1.42617e-05
2.26312e-05
1.55448e-05
2.17618e-05
1.63874e-05
2.05288e-05
1.68338e-05
1.90056e-05
1.69344e-05
1.7263e-05
1.67429e-05
1.53681e-05
1.63115e-05
1.3382e-05
1.56868e-05
1.136e-05
1.49049e-05
9.35172e-06
1.39874e-05
7.4029e-06
1.29376e-05
5.55812e-06
1.17384e-05
3.86484e-06
1.03525e-05
2.37879e-06
8.724e-06
1.17069e-06
6.78347e-06
3.34326e-07
4.45425e-06
1.65956e-06
3.10009e-07
-1.93591e-06
1.06585e-06
-5.05443e-06
2.10281e-06
-7.38763e-06
3.27074e-06
-8.92018e-06
4.4373e-06
-9.67581e-06
5.49152e-06
-9.71593e-06
6.34574e-06
-9.13345e-06
6.93527e-06
-8.04187e-06
7.21607e-06
-6.56295e-06
7.16094e-06
-4.81498e-06
6.75463e-06
-2.90306e-06
5.98872e-06
-9.12025e-07
4.85664e-06
1.09789e-06
3.34932e-06
3.09294e-06
1.45169e-06
5.06545e-06
-8.59707e-07
7.03138e-06
-3.6177e-06
9.02597e-06
-6.86415e-06
1.10979e-05
-1.06481e-05
1.33022e-05
-1.50226e-05
1.56932e-05
-2.0041e-05
1.83171e-05
-2.57526e-05
2.12072e-05
-3.21982e-05
2.43799e-05
-3.9406e-05
2.78333e-05
-4.73885e-05
3.15474e-05
-5.61393e-05
3.54848e-05
-6.56305e-05
3.95927e-05
-7.58117e-05
4.3805e-05
-8.66092e-05
4.80443e-05
-9.79281e-05
5.22254e-05
-0.000109655
5.6259e-05
-0.000121663
6.00561e-05
-0.000133819
6.35329e-05
-0.000145989
6.66152e-05
-0.000158046
6.9242e-05
-0.000169877
7.13673e-05
-0.000181382
7.29615e-05
-0.000192482
7.40103e-05
-0.000203115
7.45132e-05
-0.000213238
7.44812e-05
-0.000222821
7.39342e-05
-0.000231848
7.28982e-05
-0.000240311
7.14032e-05
-0.000248212
6.94813e-05
-0.000255555
6.71649e-05
-0.000262349
6.44863e-05
-0.000268605
6.14762e-05
-0.000274332
5.81637e-05
-0.000279545
5.45756e-05
-0.000284253
5.07367e-05
-0.000288469
4.66695e-05
-0.000292204
4.23941e-05
-0.000295468
3.79286e-05
-0.00029827
3.32887e-05
-0.00030062
2.84886e-05
-0.000302524
2.35404e-05
-0.000303987
1.84552e-05
-0.000305014
1.32425e-05
-0.000305607
7.91136e-06
-0.000305764
2.47043e-06
-0.000305482
-3.07154e-06
-0.000304757
-8.70511e-06
-0.000303579
-1.44196e-05
-0.000301935
-2.02025e-05
-0.000299811
-2.60386e-05
-0.000297187
-3.19094e-05
-0.000294041
-3.77923e-05
-0.000290349
-4.36598e-05
-0.000286082
-4.94788e-05
-0.00028121
-5.52099e-05
-0.000275702
-6.08066e-05
-0.000269527
-6.62155e-05
-0.000262657
-7.13757e-05
-0.000255066
-7.62194e-05
-0.000246734
-8.06723e-05
-0.000237651
-8.46555e-05
-0.000227819
-8.8087e-05
-0.000217252
-9.08846e-05
-0.000205984
-9.29693e-05
-0.000194065
-9.42688e-05
-0.000181569
-9.47222e-05
-0.000168588
-9.42844e-05
-0.000155235
-9.29299e-05
-0.000141642
-9.06566e-05
-0.000127951
-8.74882e-05
-0.000114316
-8.34751e-05
-0.000100889
-7.86931e-05
-8.78205e-05
-7.32412e-05
-7.52465e-05
-6.72366e-05
-6.32869e-05
-6.08089e-05
-5.20403e-05
-5.40938e-05
-4.15817e-05
-4.72259e-05
-3.19628e-05
-4.03335e-05
-2.32136e-05
-3.35337e-05
-1.5346e-05
-2.693e-05
-8.35756e-06
-2.0611e-05
-2.23519e-06
-1.46507e-05
3.04133e-06
-9.10935e-06
7.4973e-06