/*--------------------------------*- C++ -*----------------------------------*\
| =========                 |                                                 |
| \\      /  F ield         | OpenFOAM: The Open Source CFD Toolbox           |
|  \\    /   O peration     | Version:  2406                                  |
|   \\  /    A nd           | Website:  www.openfoam.com                      |
|    \\/     M anipulation  |                                                 |
\*---------------------------------------------------------------------------*/
FoamFile
{
    version     2.0;
    format      ascii;
    arch        "LSB;label=32;scalar=64";
    class       volVectorField;
    location    "21.45";
    object      U;
}
// * * * * * * * * * * * * * * * * * * * * * * * * * * * * * * * * * * * * * //

dimensions      [0 1 -1 0 0 0 0];

internalField   nonuniform List<vector> 
14400
(
(2.6477e-06 -2.63698e-06 0)
(2.80433e-05 -9.21126e-06 0)
(7.70149e-05 -1.48015e-05 0)
(0.000141766 -1.74174e-05 0)
(0.000212139 -1.82055e-05 0)
(0.000282705 -1.77486e-05 0)
(0.000349949 -1.66402e-05 0)
(0.000411997 -1.52358e-05 0)
(0.000468057 -1.37457e-05 0)
(0.000517955 -1.22777e-05 0)
(0.000561811 -1.08727e-05 0)
(0.000599832 -9.52878e-06 0)
(0.00063218 -8.21915e-06 0)
(0.000658919 -6.91477e-06 0)
(0.000679957 -5.61393e-06 0)
(0.000695037 -4.31219e-06 0)
(0.00070371 -2.95359e-06 0)
(0.000705353 -1.46639e-06 0)
(0.000699443 2.98799e-07 0)
(0.000685332 2.24081e-06 0)
(0.000662128 4.348e-06 0)
(0.000628921 6.64906e-06 0)
(0.000584729 9.1674e-06 0)
(0.000528465 1.19281e-05 0)
(0.000458935 1.49603e-05 0)
(0.000374814 1.82973e-05 0)
(0.000274634 2.19766e-05 0)
(0.000156772 2.60386e-05 0)
(1.94378e-05 3.05259e-05 0)
(-0.000139323 3.54812e-05 0)
(-0.000321624 4.09453e-05 0)
(-0.000529723 4.69547e-05 0)
(-0.000765993 5.35398e-05 0)
(-0.00103289 6.07216e-05 0)
(-0.00133289 6.85101e-05 0)
(-0.00166847 7.69016e-05 0)
(-0.00204198 8.58764e-05 0)
(-0.00245562 9.53968e-05 0)
(-0.00291133 0.000105405 0)
(-0.00341071 0.000115821 0)
(-0.0039549 0.000126541 0)
(-0.00454447 0.000137437 0)
(-0.00517936 0.000148355 0)
(-0.0058587 0.000159113 0)
(-0.00658078 0.000169508 0)
(-0.00734291 0.000179308 0)
(-0.00814133 0.000188263 0)
(-0.00897118 0.000196104 0)
(-0.0098264 0.000202546 0)
(-0.0106998 0.000207295 0)
(-0.0115829 0.000210054 0)
(-0.0124661 0.000210529 0)
(-0.0133387 0.000208433 0)
(-0.0141891 0.0002035 0)
(-0.0150047 0.000195488 0)
(-0.0157723 0.000184191 0)
(-0.016478 0.000169445 0)
(-0.017108 0.000151141 0)
(-0.0176482 0.000129231 0)
(-0.0180849 0.000103703 0)
(-0.0184051 7.46953e-05 0)
(-0.0185972 4.30109e-05 0)
(-0.0186487 9.0701e-06 0)
(-0.0185506 -2.8611e-05 0)
(-0.0182972 -6.83971e-05 0)
(-0.0178827 -0.000109388 0)
(-0.0173046 -0.000151002 0)
(-0.0165635 -0.000192463 0)
(-0.0156632 -0.000232907 0)
(-0.0146106 -0.00027142 0)
(-0.013416 -0.000307062 0)
(-0.0120928 -0.000338901 0)
(-0.0106578 -0.000366051 0)
(-0.00913074 -0.000387708 0)
(-0.00753363 -0.000403192 0)
(-0.00589074 -0.00041198 0)
(-0.00422774 -0.000413739 0)
(-0.00257106 -0.000408354 0)
(-0.000947201 -0.000395937 0)
(0.000618117 -0.000376838 0)
(0.00210069 -0.000351628 0)
(0.00347859 -0.000321085 0)
(0.00473284 -0.000286156 0)
(0.00584794 -0.000247912 0)
(0.00681231 -0.0002075 0)
(0.00761853 -0.000166085 0)
(0.00826339 -0.000124795 0)
(0.0087478 -8.46711e-05 0)
(0.0090765 -4.66006e-05 0)
(0.0092578 -1.12879e-05 0)
(0.00930333 2.02046e-05 0)
(0.00922495 4.66342e-05 0)
(0.00903741 6.96326e-05 0)
(0.00875798 8.91051e-05 0)
(0.00840249 0.000104431 0)
(0.00798652 0.000115774 0)
(0.00752522 0.000123495 0)
(0.00703265 0.000127979 0)
(0.00652145 0.000129646 0)
(0.00600269 0.000128936 0)
(0.00548579 0.000126282 0)
(0.00497849 0.000122102 0)
(0.00448689 0.000116782 0)
(0.00401559 0.000110675 0)
(0.00356778 0.000104096 0)
(0.00314541 9.7317e-05 0)
(0.00274934 9.05685e-05 0)
(0.00237953 8.40353e-05 0)
(0.00203525 7.78501e-05 0)
(0.00171533 7.20827e-05 0)
(0.0014184 6.67235e-05 0)
(0.00114332 6.16615e-05 0)
(0.000889612 5.66593e-05 0)
(0.000657948 5.13297e-05 0)
(0.000450759 4.51229e-05 0)
(0.0002727 3.73708e-05 0)
(0.00013082 2.74145e-05 0)
(3.36264e-05 1.50098e-05 0)
(-1.19891e-05 1.21594e-06 0)
(-8.00601e-06 -8.02051e-06 0)
(9.291e-06 -2.80938e-05 0)
(8.11771e-05 -8.08835e-05 0)
(0.000195778 -0.000119386 0)
(0.000340584 -0.000138622 0)
(0.000495029 -0.00014374 0)
(0.000648399 -0.000139665 0)
(0.000793107 -0.000130249 0)
(0.000924748 -0.000118142 0)
(0.00104113 -0.000105003 0)
(0.0011414 -9.17323e-05 0)
(0.00122541 -7.87056e-05 0)
(0.00129321 -6.59529e-05 0)
(0.00134477 -5.32959e-05 0)
(0.00137977 -4.04525e-05 0)
(0.00139752 -2.71197e-05 0)
(0.00139705 -1.30059e-05 0)
(0.00137688 2.13589e-06 0)
(0.00133518 1.86867e-05 0)
(0.00126981 3.69774e-05 0)
(0.0011783 5.71222e-05 0)
(0.001058 7.92919e-05 0)
(0.000905953 0.000103681 0)
(0.000718932 0.000130498 0)
(0.000493415 0.000159976 0)
(0.000225576 0.000192377 0)
(-8.87476e-05 0.00022799 0)
(-0.000454071 0.000267131 0)
(-0.000875275 0.000310131 0)
(-0.0013576 0.000357322 0)
(-0.00190664 0.000409024 0)
(-0.00252824 0.00046552 0)
(-0.00322847 0.000527038 0)
(-0.00401353 0.000593724 0)
(-0.00488954 0.000665625 0)
(-0.00586246 0.000742659 0)
(-0.00693784 0.000824601 0)
(-0.00812063 0.000911055 0)
(-0.00941493 0.00100144 0)
(-0.0108238 0.00109498 0)
(-0.0123488 0.00119067 0)
(-0.01399 0.0012873 0)
(-0.0157455 0.00138343 0)
(-0.0176113 0.00147739 0)
(-0.0195809 0.00156732 0)
(-0.0216455 0.00165117 0)
(-0.0237934 0.00172671 0)
(-0.0260101 0.0017916 0)
(-0.0282784 0.00184343 0)
(-0.0305782 0.00187976 0)
(-0.0328871 0.00189819 0)
(-0.03518 0.00189639 0)
(-0.0374296 0.00187222 0)
(-0.0396072 0.00182376 0)
(-0.0416825 0.00174938 0)
(-0.0436242 0.00164781 0)
(-0.045401 0.00151821 0)
(-0.0469816 0.0013602 0)
(-0.0483356 0.00117391 0)
(-0.049434 0.000960077 0)
(-0.0502496 0.000719993 0)
(-0.0507579 0.000455628 0)
(-0.0509376 0.000169978 0)
(-0.0507723 -0.000133383 0)
(-0.0502474 -0.000452315 0)
(-0.0493542 -0.000781508 0)
(-0.0480897 -0.00111589 0)
(-0.0464558 -0.00144995 0)
(-0.04446 -0.00177783 0)
(-0.042116 -0.00209337 0)
(-0.0394431 -0.0023903 0)
(-0.0364667 -0.00266234 0)
(-0.0332178 -0.00290343 0)
(-0.0297329 -0.00310789 0)
(-0.0260533 -0.00327064 0)
(-0.0222246 -0.0033874 0)
(-0.0182957 -0.00345485 0)
(-0.0143184 -0.00347087 0)
(-0.0103458 -0.00343463 0)
(-0.00643122 -0.00334669 0)
(-0.00262725 -0.00320907 0)
(0.0010158 -0.00302519 0)
(0.00445107 -0.00279982 0)
(0.00763639 -0.00253893 0)
(0.0105353 -0.00224943 0)
(0.0131182 -0.00193898 0)
(0.0153626 -0.0016156 0)
(0.0172542 -0.00128744 0)
(0.0187867 -0.000962384 0)
(0.0199618 -0.000647789 0)
(0.0207885 -0.000350226 0)
(0.0212826 -7.54868e-05 0)
(0.0214668 0.000171541 0)
(0.0213688 0.000389511 0)
(0.0210189 0.000576348 0)
(0.0204499 0.000730896 0)
(0.0196968 0.000853596 0)
(0.0187941 0.000945907 0)
(0.0177753 0.00101003 0)
(0.0166719 0.00104871 0)
(0.015513 0.00106508 0)
(0.0143243 0.00106244 0)
(0.0131281 0.00104412 0)
(0.0119432 0.00101339 0)
(0.0107848 0.00097331 0)
(0.00966464 0.000926707 0)
(0.00859113 0.000876094 0)
(0.00756996 0.000823639 0)
(0.00660428 0.000771112 0)
(0.0056953 0.000719817 0)
(0.00484281 0.000670495 0)
(0.00404597 0.000623201 0)
(0.00330412 0.000577154 0)
(0.00261782 0.000530587 0)
(0.00198987 0.000480651 0)
(0.00142642 0.000423462 0)
(0.000937646 0.000354557 0)
(0.000537645 0.000270094 0)
(0.000241542 0.000169687 0)
(6.46935e-05 6.19141e-05 0)
(1.77684e-06 -1.14694e-05 0)
(1.49777e-05 -7.74193e-05 0)
(0.000120074 -0.000195639 0)
(0.000273717 -0.000273169 0)
(0.00046151 -0.000311096 0)
(0.000657425 -0.000319515 0)
(0.000848817 -0.000308102 0)
(0.00102616 -0.000284647 0)
(0.00118363 -0.000254712 0)
(0.00131802 -0.000221885 0)
(0.00142779 -0.000188183 0)
(0.00151222 -0.000154472 0)
(0.00157085 -0.000120833 0)
(0.00160306 -8.68544e-05 0)
(0.00160782 -5.18461e-05 0)
(0.00158353 -1.49787e-05 0)
(0.00152797 2.45801e-05 0)
(0.00143845 6.75094e-05 0)
(0.00131165 0.000114573 0)
(0.00114361 0.000166368 0)
(0.000929936 0.000223519 0)
(0.00066582 0.000286584 0)
(0.000345966 0.000356107 0)
(-3.53754e-05 0.000432662 0)
(-0.000484422 0.000516862 0)
(-0.00100788 0.000609372 0)
(-0.00161294 0.000710904 0)
(-0.0023073 0.000822202 0)
(-0.00309916 0.000944013 0)
(-0.0039971 0.00107705 0)
(-0.0050101 0.00122195 0)
(-0.00614734 0.00137919 0)
(-0.00741802 0.0015491 0)
(-0.00883122 0.0017317 0)
(-0.0103955 0.00192674 0)
(-0.0121188 0.00213356 0)
(-0.0140079 0.00235109 0)
(-0.0160679 0.00257779 0)
(-0.0183024 0.00281161 0)
(-0.0207125 0.00304996 0)
(-0.0232965 0.0032897 0)
(-0.0260499 0.00352715 0)
(-0.0289646 0.00375812 0)
(-0.0320288 0.00397794 0)
(-0.0352271 0.00418153 0)
(-0.0385396 0.0043635 0)
(-0.0419429 0.00451824 0)
(-0.0454094 0.00464007 0)
(-0.0489081 0.00472336 0)
(-0.0524045 0.00476267 0)
(-0.0558613 0.00475297 0)
(-0.0592392 0.0046897 0)
(-0.0624969 0.00456897 0)
(-0.0655924 0.00438768 0)
(-0.0684834 0.00414366 0)
(-0.0711282 0.0038357 0)
(-0.0734863 0.0034637 0)
(-0.0755193 0.00302869 0)
(-0.0771912 0.00253288 0)
(-0.0784695 0.00197967 0)
(-0.0793254 0.00137366 0)
(-0.0797342 0.000720569 0)
(-0.0796758 2.71461e-05 0)
(-0.0791364 -0.000698529 0)
(-0.0781068 -0.00144688 0)
(-0.0765829 -0.00220857 0)
(-0.0745674 -0.00297287 0)
(-0.0720689 -0.00372831 0)
(-0.0691022 -0.00446291 0)
(-0.0656885 -0.00516444 0)
(-0.0618549 -0.00582057 0)
(-0.057635 -0.00641917 0)
(-0.0530678 -0.00694858 0)
(-0.0481983 -0.00739795 0)
(-0.0430765 -0.00775755 0)
(-0.0377569 -0.00801913 0)
(-0.0322977 -0.00817625 0)
(-0.0267605 -0.00822455 0)
(-0.0212085 -0.00816206 0)
(-0.015706 -0.00798935 0)
(-0.0103171 -0.00770968 0)
(-0.0051041 -0.007329 0)
(-0.000126592 -0.00685588 0)
(0.00456013 -0.00630128 0)
(0.00890626 -0.00567829 0)
(0.0128686 -0.00500165 0)
(0.0164118 -0.00428733 0)
(0.0195089 -0.00355191 0)
(0.0221421 -0.00281202 0)
(0.0243029 -0.00208374 0)
(0.0259925 -0.00138202 0)
(0.0272209 -0.000720015 0)
(0.0280074 -0.000108406 0)
(0.0283786 0.000443509 0)
(0.0283665 0.000929087 0)
(0.0280094 0.00134491 0)
(0.0273492 0.00168979 0)
(0.0264297 0.00196475 0)
(0.0252956 0.00217282 0)
(0.0239905 0.00231866 0)
(0.0225565 0.00240817 0)
(0.0210325 0.00244809 0)
(0.0194536 0.00244564 0)
(0.0178507 0.00240817 0)
(0.0162502 0.00234288 0)
(0.0146736 0.00225661 0)
(0.013138 0.00215561 0)
(0.0116563 0.00204541 0)
(0.0102375 0.00193064 0)
(0.00888753 0.00181479 0)
(0.00760992 0.00170003 0)
(0.00640687 0.00158693 0)
(0.00528034 0.00147411 0)
(0.00423335 0.00135804 0)
(0.0032713 0.00123294 0)
(0.00240317 0.00109107 0)
(0.00164224 0.000923831 0)
(0.00100583 0.00072427 0)
(0.000510887 0.000492169 0)
(0.000182764 0.000242721 0)
(1.70527e-05 3.82947e-05 0)
(1.76525e-05 -0.000142699 0)
(0.000138928 -0.000340238 0)
(0.000309512 -0.00046028 0)
(0.000512538 -0.000515816 0)
(0.000718507 -0.000523817 0)
(0.000914101 -0.000499606 0)
(0.00108918 -0.000455402 0)
(0.00123744 -0.00040001 0)
(0.00135519 -0.000339163 0)
(0.00144037 -0.000276102 0)
(0.00149168 -0.000212192 0)
(0.00150793 -0.000147489 0)
(0.00148764 -8.12054e-05 0)
(0.00142873 -1.20749e-05 0)
(0.0013284 6.13935e-05 0)
(0.00118298 0.000140744 0)
(0.00098806 0.000227476 0)
(0.000738492 0.0003229 0)
(0.000428311 0.000428256 0)
(5.08898e-05 0.000544721 0)
(-0.000401049 0.000673409 0)
(-0.000935424 0.000815417 0)
(-0.00156078 0.000971871 0)
(-0.00228631 0.00114394 0)
(-0.00312181 0.00133287 0)
(-0.00407768 0.00153991 0)
(-0.00516491 0.00176634 0)
(-0.00639495 0.00201337 0)
(-0.00777961 0.00228208 0)
(-0.00933088 0.00257331 0)
(-0.0110607 0.00288755 0)
(-0.0129805 0.00322483 0)
(-0.0151012 0.00358462 0)
(-0.0174323 0.0039657 0)
(-0.0199818 0.00436604 0)
(-0.0227554 0.00478276 0)
(-0.0257563 0.00521202 0)
(-0.0289841 0.00564901 0)
(-0.0324349 0.00608791 0)
(-0.0361005 0.00652192 0)
(-0.0399683 0.00694336 0)
(-0.0440205 0.00734373 0)
(-0.0482346 0.00771387 0)
(-0.052583 0.00804416 0)
(-0.0570334 0.00832473 0)
(-0.0615488 0.00854572 0)
(-0.0660887 0.00869753 0)
(-0.0706089 0.00877112 0)
(-0.0750628 0.00875827 0)
(-0.0794021 0.00865182 0)
(-0.0835777 0.00844589 0)
(-0.0875405 0.00813606 0)
(-0.0912425 0.00771954 0)
(-0.0946372 0.00719523 0)
(-0.0976807 0.0065638 0)
(-0.100332 0.0058277 0)
(-0.102555 0.00499115 0)
(-0.104315 0.00406008 0)
(-0.105584 0.0030421 0)
(-0.106338 0.00194645 0)
(-0.106557 0.000783844 0)
(-0.106229 -0.000433719 0)
(-0.105343 -0.00169305 0)
(-0.103896 -0.00297902 0)
(-0.101889 -0.00427599 0)
(-0.09933 -0.00556736 0)
(-0.0962307 -0.00683575 0)
(-0.0926093 -0.00806316 0)
(-0.0884893 -0.00923132 0)
(-0.0839 -0.0103219 0)
(-0.0788761 -0.0113169 0)
(-0.0734581 -0.0121991 0)
(-0.0676915 -0.0129521 0)
(-0.0616271 -0.0135614 0)
(-0.0553203 -0.0140144 0)
(-0.0488309 -0.0143009 0)
(-0.042222 -0.0144138 0)
(-0.0355594 -0.0143492 0)
(-0.0289111 -0.014107 0)
(-0.0223453 -0.0136909 0)
(-0.01593 -0.0131085 0)
(-0.00973161 -0.0123715 0)
(-0.00381318 -0.0114952 0)
(0.0017664 -0.0104985 0)
(0.00695392 -0.00940291 0)
(0.011703 -0.00823232 0)
(0.015975 -0.0070121 0)
(0.0197402 -0.00576829 0)
(0.0229782 -0.0045267 0)
(0.0256784 -0.00331205 0)
(0.0278402 -0.00214711 0)
(0.0294729 -0.00105208 0)
(0.0305944 -4.43562e-05 0)
(0.0312316 0.000862841 0)
(0.0314192 0.0016603 0)
(0.0311973 0.00234258 0)
(0.030611 0.00290809 0)
(0.0297085 0.00335882 0)
(0.0285393 0.0036999 0)
(0.0271529 0.00393906 0)
(0.0255971 0.00408602 0)
(0.0239171 0.00415186 0)
(0.0221541 0.00414844 0)
(0.0203448 0.00408787 0)
(0.018521 0.00398201 0)
(0.0167092 0.00384201 0)
(0.0149309 0.00367799 0)
(0.0132028 0.00349859 0)
(0.0115376 0.00331062 0)
(0.00994452 0.0031186 0)
(0.00843073 0.00292428 0)
(0.00700228 0.00272617 0)
(0.00566574 0.00251922 0)
(0.00442948 0.00229478 0)
(0.0033051 0.0020412 0)
(0.00230827 0.00174556 0)
(0.00145891 0.00139734 0)
(0.000776336 0.000994946 0)
(0.000300107 0.00055579 0)
(3.19797e-05 0.000146959 0)
(1.83221e-05 -0.000213238 0)
(0.000141745 -0.000492239 0)
(0.000310467 -0.000651425 0)
(0.000505543 -0.000718615 0)
(0.000695983 -0.000719448 0)
(0.000868402 -0.000675525 0)
(0.00101281 -0.000603604 0)
(0.00112301 -0.000515632 0)
(0.00119521 -0.000419323 0)
(0.00122702 -0.000318955 0)
(0.00121653 -0.000216201 0)
(0.00116169 -0.000110893 0)
(0.0010599 -1.66576e-06 0)
(0.000907754 0.000113535 0)
(0.000700869 0.000237079 0)
(0.000433836 0.000371405 0)
(0.000100242 0.000518907 0)
(-0.000307288 0.000681784 0)
(-0.000797074 0.000862088 0)
(-0.00137831 0.00106175 0)
(-0.00206104 0.00128261 0)
(-0.0028561 0.00152649 0)
(-0.00377511 0.00179521 0)
(-0.00483045 0.00209065 0)
(-0.0060352 0.00241468 0)
(-0.00740308 0.00276918 0)
(-0.00894831 0.0031559 0)
(-0.0106855 0.00357642 0)
(-0.0126292 0.00403193 0)
(-0.0147938 0.00452314 0)
(-0.0171932 0.00505002 0)
(-0.01984 0.00561169 0)
(-0.0227451 0.00620619 0)
(-0.0259172 0.00683033 0)
(-0.0293621 0.00747953 0)
(-0.0330818 0.00814775 0)
(-0.0370743 0.00882743 0)
(-0.0413326 0.00950944 0)
(-0.0458444 0.0101832 0)
(-0.0505919 0.0108368 0)
(-0.0555511 0.0114572 0)
(-0.0606926 0.0120304 0)
(-0.0659811 0.0125419 0)
(-0.0713762 0.0129771 0)
(-0.0768328 0.0133214 0)
(-0.0823025 0.0135613 0)
(-0.0877336 0.0136839 0)
(-0.0930731 0.0136781 0)
(-0.0982671 0.0135343 0)
(-0.103262 0.0132451 0)
(-0.108006 0.0128055 0)
(-0.11245 0.0122124 0)
(-0.116545 0.0114656 0)
(-0.120249 0.0105669 0)
(-0.123522 0.00952065 0)
(-0.126329 0.00833317 0)
(-0.128639 0.007013 0)
(-0.130424 0.00557056 0)
(-0.131663 0.00401807 0)
(-0.132338 0.00236939 0)
(-0.132434 0.00063995 0)
(-0.131942 -0.00115342 0)
(-0.130858 -0.00299255 0)
(-0.129179 -0.00485804 0)
(-0.126908 -0.00672928 0)
(-0.124054 -0.00858468 0)
(-0.120627 -0.0104018 0)
(-0.116645 -0.0121576 0)
(-0.112129 -0.0138285 0)
(-0.107105 -0.015391 0)
(-0.101604 -0.0168215 0)
(-0.0956645 -0.0180976 0)
(-0.0893279 -0.0191977 0)
(-0.0826422 -0.0201021 0)
(-0.0756603 -0.0207936 0)
(-0.0684399 -0.0212578 0)
(-0.0610432 -0.021484 0)
(-0.0535362 -0.0214656 0)
(-0.0459875 -0.0212004 0)
(-0.0384679 -0.0206916 0)
(-0.0310488 -0.0199473 0)
(-0.0238012 -0.0189807 0)
(-0.0167944 -0.0178104 0)
(-0.0100944 -0.0164594 0)
(-0.00376275 -0.014955 0)
(0.00214483 -0.013328 0)
(0.00757951 -0.0116116 0)
(0.0125005 -0.00984059 0)
(0.0168758 -0.00805019 0)
(0.020683 -0.00627501 0)
(0.0239095 -0.00454794 0)
(0.0265529 -0.00289915 0)
(0.0286205 -0.00135513 0)
(0.0301294 6.2227e-05 0)
(0.0311057 0.00133567 0)
(0.0315831 0.00245326 0)
(0.0316022 0.00340838 0)
(0.0312092 0.0041996 0)
(0.0304537 0.00483022 0)
(0.0293876 0.00530777 0)
(0.0280633 0.00564326 0)
(0.0265322 0.00585043 0)
(0.024843 0.00594485 0)
(0.0230412 0.00594316 0)
(0.0211676 0.00586227 0)
(0.0192578 0.00571861 0)
(0.0173426 0.00552747 0)
(0.0154471 0.0053023 0)
(0.0135918 0.00505408 0)
(0.0117933 0.00479054 0)
(0.0100648 0.00451549 0)
(0.00841787 0.00422819 0)
(0.00686344 0.00392281 0)
(0.00541362 0.00358854 0)
(0.00408307 0.00321028 0)
(0.00289027 0.00277092 0)
(0.0018585 0.00225535 0)
(0.001011 0.00165754 0)
(0.000403092 0.000990062 0)
(4.47876e-05 0.000310148 0)
(1.74288e-05 -0.0002825 0)
(0.000132304 -0.000637679 0)
(0.000283593 -0.000828729 0)
(0.000451231 -0.000899118 0)
(0.000604638 -0.000884229 0)
(0.000730932 -0.000812412 0)
(0.00082081 -0.000704992 0)
(0.000868569 -0.00057685 0)
(0.000870593 -0.000437372 0)
(0.000824231 -0.000291537 0)
(0.000726922 -0.000141002 0)
(0.000575607 1.49277e-05 0)
(0.000366345 0.00017847 0)
(9.40755e-05 0.00035272 0)
(-0.000247486 0.000541174 0)
(-0.000665883 0.000747406 0)
(-0.00116988 0.000974884 0)
(-0.00176941 0.00122687 0)
(-0.00247553 0.00150641 0)
(-0.00330034 0.00181639 0)
(-0.00425695 0.00215953 0)
(-0.0053594 0.00253854 0)
(-0.00662262 0.00295604 0)
(-0.00806236 0.00341466 0)
(-0.00969504 0.00391696 0)
(-0.0115376 0.0044653 0)
(-0.0136074 0.00506178 0)
(-0.0159215 0.005708 0)
(-0.0184968 0.00640482 0)
(-0.0213492 0.00715216 0)
(-0.0244929 0.00794868 0)
(-0.02794 0.00879153 0)
(-0.0316997 0.00967613 0)
(-0.0357773 0.0105959 0)
(-0.0401736 0.0115423 0)
(-0.0448842 0.0125045 0)
(-0.0498989 0.0134696 0)
(-0.0552009 0.0144226 0)
(-0.0607669 0.0153467 0)
(-0.0665672 0.0162239 0)
(-0.0725652 0.0170347 0)
(-0.0787188 0.0177595 0)
(-0.0849805 0.0183786 0)
(-0.0912986 0.0188728 0)
(-0.0976183 0.0192242 0)
(-0.103883 0.0194169 0)
(-0.110036 0.0194367 0)
(-0.11602 0.0192726 0)
(-0.121781 0.0189161 0)
(-0.127267 0.0183618 0)
(-0.132428 0.0176074 0)
(-0.13722 0.0166533 0)
(-0.141602 0.0155032 0)
(-0.145537 0.0141631 0)
(-0.148993 0.0126414 0)
(-0.151942 0.0109489 0)
(-0.154358 0.00909829 0)
(-0.156223 0.00710394 0)
(-0.157517 0.00498197 0)
(-0.158227 0.00274998 0)
(-0.158341 0.000426966 0)
(-0.157852 -0.00196667 0)
(-0.156753 -0.00440919 0)
(-0.155043 -0.00687758 0)
(-0.152723 -0.00934754 0)
(-0.149796 -0.0117936 0)
(-0.14627 -0.0141891 0)
(-0.142158 -0.0165066 0)
(-0.137475 -0.0187179 0)
(-0.132242 -0.0207942 0)
(-0.126486 -0.022707 0)
(-0.120238 -0.0244282 0)
(-0.113536 -0.0259306 0)
(-0.106422 -0.0271891 0)
(-0.0989448 -0.0281809 0)
(-0.0911604 -0.0288866 0)
(-0.0831287 -0.0292906 0)
(-0.074915 -0.0293826 0)
(-0.0665888 -0.0291574 0)
(-0.0582228 -0.028616 0)
(-0.049892 -0.0277656 0)
(-0.0416721 -0.0266202 0)
(-0.0336381 -0.0252 0)
(-0.0258633 -0.0235315 0)
(-0.0184171 -0.0216467 0)
(-0.0113641 -0.0195822 0)
(-0.00476267 -0.0173784 0)
(0.00133626 -0.0150782 0)
(0.0068902 -0.0127259 0)
(0.0118658 -0.0103656 0)
(0.0162393 -0.00804017 0)
(0.0199973 -0.00578981 0)
(0.023136 -0.00365098 0)
(0.0256622 -0.00165533 0)
(0.0275919 0.000170949 0)
(0.0289503 0.00180786 0)
(0.0297706 0.00324186 0)
(0.0300933 0.0044659 0)
(0.0299643 0.00547928 0)
(0.0294341 0.00628708 0)
(0.0285555 0.00689955 0)
(0.0273825 0.00733123 0)
(0.0259683 0.00759994 0)
(0.0243644 0.00772574 0)
(0.0226186 0.00772991 0)
(0.0207749 0.00763384 0)
(0.0188721 0.00745806 0)
(0.0169441 0.00722116 0)
(0.0150195 0.00693883 0)
(0.0131227 0.00662278 0)
(0.011274 0.00627973 0)
(0.00949121 0.00591054 0)
(0.00779064 0.00550954 0)
(0.00618893 0.00506447 0)
(0.00470465 0.00455735 0)
(0.00336 0.00396664 0)
(0.00218267 0.00327144 0)
(0.00120112 0.00245792 0)
(0.000485743 0.00152779 0)
(5.48776e-05 0.000518768 0)
(1.54375e-05 -0.000345323 0)
(0.000113453 -0.000764525 0)
(0.000234437 -0.000975844 0)
(0.000358085 -0.00103832 0)
(0.000455986 -0.000997454 0)
(0.000516374 -0.000888475 0)
(0.000531117 -0.000737104 0)
(0.000495312 -0.000560799 0)
(0.000405649 -0.000370165 0)
(0.000259247 -0.000170418 0)
(5.2799e-05 3.72471e-05 0)
(-0.000217962 0.000254447 0)
(-0.0005586 0.0004846 0)
(-0.00097614 0.000732141 0)
(-0.00147913 0.00100195 0)
(-0.00207763 0.00129896 0)
(-0.00278314 0.00162794 0)
(-0.00360851 0.00199339 0)
(-0.00456788 0.00239953 0)
(-0.0056766 0.00285031 0)
(-0.00695111 0.00334952 0)
(-0.00840889 0.00390079 0)
(-0.0100683 0.00450762 0)
(-0.0119485 0.00517335 0)
(-0.0140692 0.00590108 0)
(-0.0164503 0.00669344 0)
(-0.0191115 0.00755245 0)
(-0.022072 0.00847915 0)
(-0.0253497 0.00947333 0)
(-0.0289604 0.0105331 0)
(-0.0329171 0.0116547 0)
(-0.0372293 0.0128318 0)
(-0.0419017 0.0140558 0)
(-0.0469336 0.0153152 0)
(-0.0523182 0.0165954 0)
(-0.0580415 0.0178794 0)
(-0.0640826 0.0191474 0)
(-0.0704128 0.0203774 0)
(-0.0769965 0.0215457 0)
(-0.0837909 0.0226274 0)
(-0.0907477 0.0235974 0)
(-0.0978134 0.0244307 0)
(-0.104931 0.0251038 0)
(-0.112042 0.0255948 0)
(-0.119086 0.0258847 0)
(-0.126004 0.0259575 0)
(-0.13274 0.0258005 0)
(-0.139238 0.0254049 0)
(-0.145449 0.0247654 0)
(-0.151327 0.0238804 0)
(-0.156829 0.0227519 0)
(-0.161919 0.0213847 0)
(-0.166563 0.0197865 0)
(-0.170731 0.0179675 0)
(-0.174398 0.0159402 0)
(-0.177541 0.0137185 0)
(-0.180141 0.0113185 0)
(-0.182179 0.00875748 0)
(-0.183641 0.0060541 0)
(-0.184513 0.00322844 0)
(-0.184785 0.000301894 0)
(-0.184445 -0.0027028 0)
(-0.183487 -0.00576149 0)
(-0.181906 -0.00884856 0)
(-0.179697 -0.0119369 0)
(-0.17686 -0.0149978 0)
(-0.173397 -0.0180013 0)
(-0.169315 -0.0209158 0)
(-0.164623 -0.0237087 0)
(-0.159336 -0.0263464 0)
(-0.153472 -0.0287951 0)
(-0.147058 -0.0310209 0)
(-0.140123 -0.0329906 0)
(-0.132706 -0.0346728 0)
(-0.12485 -0.0360384 0)
(-0.116607 -0.0370616 0)
(-0.108034 -0.0377213 0)
(-0.0991956 -0.0380015 0)
(-0.0901611 -0.0378926 0)
(-0.0810056 -0.037392 0)
(-0.0718075 -0.0365049 0)
(-0.0626477 -0.0352443 0)
(-0.053608 -0.0336312 0)
(-0.0447693 -0.0316942 0)
(-0.0362098 -0.0294692 0)
(-0.0280038 -0.0269982 0)
(-0.0202195 -0.0243281 0)
(-0.0129181 -0.0215098 0)
(-0.00615236 -0.0185962 0)
(3.39959e-05 -0.0156409 0)
(0.00560711 -0.0126965 0)
(0.0105433 -0.00981351 0)
(0.0148292 -0.0070385 0)
(0.0184615 -0.00441317 0)
(0.0214473 -0.00197327 0)
(0.0238029 0.000252204 0)
(0.0255535 0.00224155 0)
(0.0267327 0.00398066 0)
(0.0273808 0.00546299 0)
(0.0275441 0.00668928 0)
(0.0272732 0.00766698 0)
(0.0266217 0.00840945 0)
(0.0256445 0.00893491 0)
(0.0243962 0.00926529 0)
(0.0229297 0.00942498 0)
(0.0212948 0.00943945 0)
(0.0195376 0.00933393 0)
(0.0176996 0.00913203 0)
(0.0158174 0.00885429 0)
(0.0139228 0.00851684 0)
(0.0120438 0.00812995 0)
(0.0102049 0.00769687 0)
(0.00842838 0.00721289 0)
(0.00673633 0.00666507 0)
(0.00515208 0.0060329 0)
(0.00370249 0.0052903 0)
(0.00242051 0.00440928 0)
(0.00134051 0.00336558 0)
(0.000545819 0.00214569 0)
(6.20897e-05 0.000761983 0)
(1.25913e-05 -0.000397748 0)
(8.70499e-05 -0.000862956 0)
(0.000166858 -0.00107894 0)
(0.000232216 -0.00111981 0)
(0.000258426 -0.00104113 0)
(0.000235486 -0.000884718 0)
(0.000156885 -0.000680307 0)
(1.87685e-05 -0.000447391 0)
(-0.000181792 -0.000197204 0)
(-0.000447962 6.53901e-05 0)
(-0.000783955 0.000340202 0)
(-0.0011955 0.000630245 0)
(-0.00169008 0.000940546 0)
(-0.00227706 0.00127722 0)
(-0.00296762 0.0016468 0)
(-0.00377472 0.00205583 0)
(-0.00471295 0.00251058 0)
(-0.00579847 0.00301693 0)
(-0.00704883 0.00358042 0)
(-0.00848287 0.00420621 0)
(-0.0101206 0.00489917 0)
(-0.011983 0.00566389 0)
(-0.014092 0.00650465 0)
(-0.01647 0.00742535 0)
(-0.0191394 0.00842928 0)
(-0.0221226 0.00951889 0)
(-0.025441 0.0106954 0)
(-0.0291145 0.0119585 0)
(-0.0331603 0.0133056 0)
(-0.0375925 0.014732 0)
(-0.0424207 0.0162295 0)
(-0.0476488 0.0177871 0)
(-0.0532748 0.0193901 0)
(-0.0592891 0.0210202 0)
(-0.0656744 0.0226556 0)
(-0.0724053 0.0242716 0)
(-0.0794483 0.0258405 0)
(-0.0867622 0.0273328 0)
(-0.0942987 0.028718 0)
(-0.102004 0.0299653 0)
(-0.10982 0.0310449 0)
(-0.117686 0.0319288 0)
(-0.12554 0.0325917 0)
(-0.13332 0.0330119 0)
(-0.140967 0.0331716 0)
(-0.148424 0.0330573 0)
(-0.15564 0.0326599 0)
(-0.162565 0.0319747 0)
(-0.169158 0.0310009 0)
(-0.175379 0.0297415 0)
(-0.181194 0.0282028 0)
(-0.186572 0.0263937 0)
(-0.191487 0.0243257 0)
(-0.195915 0.0220122 0)
(-0.199834 0.0194684 0)
(-0.203226 0.0167107 0)
(-0.206072 0.0137572 0)
(-0.208357 0.0106269 0)
(-0.210065 0.00734001 0)
(-0.211184 0.00391812 0)
(-0.211701 0.000384006 0)
(-0.211603 -0.0032381 0)
(-0.210882 -0.00692246 0)
(-0.209527 -0.0106416 0)
(-0.207532 -0.0143664 0)
(-0.204891 -0.0180656 0)
(-0.201602 -0.0217062 0)
(-0.197663 -0.0252533 0)
(-0.193078 -0.0286702 0)
(-0.187854 -0.0319188 0)
(-0.182002 -0.03496 0)
(-0.175541 -0.037754 0)
(-0.168492 -0.0402614 0)
(-0.160886 -0.0424438 0)
(-0.15276 -0.0442648 0)
(-0.14416 -0.0456914 0)
(-0.135138 -0.046695 0)
(-0.125756 -0.0472529 0)
(-0.116083 -0.047349 0)
(-0.106194 -0.0469755 0)
(-0.0961699 -0.0461335 0)
(-0.0860982 -0.0448332 0)
(-0.0760673 -0.043095 0)
(-0.0661669 -0.0409485 0)
(-0.0564858 -0.0384324 0)
(-0.0471092 -0.0355934 0)
(-0.0381171 -0.0324849 0)
(-0.0295826 -0.0291654 0)
(-0.0215701 -0.0256968 0)
(-0.0141343 -0.0221425 0)
(-0.00731957 -0.0185653 0)
(-0.00115934 -0.0150262 0)
(0.00432388 -0.0115824 0)
(0.00911843 -0.00828585 0)
(0.0132231 -0.00518233 0)
(0.0166467 -0.00231029 0)
(0.0194074 0.000299766 0)
(0.021532 0.00262574 0)
(0.0230552 0.00465414 0)
(0.0240183 0.00637995 0)
(0.0244685 0.00780622 0)
(0.0244571 0.00894338 0)
(0.0240383 0.00980828 0)
(0.0232679 0.010423 0)
(0.0222013 0.0108135 0)
(0.0208927 0.0110081 0)
(0.0193934 0.0110358 0)
(0.0177512 0.0109246 0)
(0.0160096 0.0106995 0)
(0.0142077 0.0103813 0)
(0.0123807 0.00998414 0)
(0.0105597 0.00951408 0)
(0.00877388 0.00896805 0)
(0.00705099 0.00833301 0)
(0.00541996 0.00758627 0)
(0.00391299 0.00669705 0)
(0.00256877 0.00562945 0)
(0.00142766 0.00434708 0)
(0.000583057 0.00281866 0)
(6.6465e-05 0.00102858 0)
(9.04104e-06 -0.000436608 0)
(5.42e-05 -0.000924641 0)
(8.32996e-05 -0.00112601 0)
(7.77027e-05 -0.00112919 0)
(1.77422e-05 -0.000999277 0)
(-0.000104189 -0.000784214 0)
(-0.000292551 -0.00051704 0)
(-0.000549959 -0.000218559 0)
(-0.000878943 0.00010011 0)
(-0.00128308 0.000435164 0)
(-0.00176771 0.000788052 0)
(-0.00234032 0.00116373 0)
(-0.00301069 0.00156929 0)
(-0.00379086 0.00201289 0)
(-0.00469506 0.00250301 0)
(-0.00573952 0.00304802 0)
(-0.00694231 0.00365585 0)
(-0.00832316 0.00433396 0)
(-0.00990332 0.00508924 0)
(-0.0117053 0.00592809 0)
(-0.0137528 0.00685645 0)
(-0.0160704 0.00787975 0)
(-0.018683 0.00900282 0)
(-0.021616 0.0102297 0)
(-0.0248941 0.0115634 0)
(-0.028541 0.0130053 0)
(-0.0325785 0.0145549 0)
(-0.0370254 0.0162092 0)
(-0.0418967 0.017962 0)
(-0.047202 0.0198036 0)
(-0.0529449 0.0217203 0)
(-0.0591216 0.0236939 0)
(-0.0657202 0.0257023 0)
(-0.0727201 0.0277188 0)
(-0.0800916 0.0297132 0)
(-0.0877968 0.0316521 0)
(-0.0957894 0.0335002 0)
(-0.104016 0.0352211 0)
(-0.112419 0.0367786 0)
(-0.120936 0.0381379 0)
(-0.129502 0.0392669 0)
(-0.138054 0.0401372 0)
(-0.146529 0.0407245 0)
(-0.154868 0.0410096 0)
(-0.163017 0.0409784 0)
(-0.170923 0.0406217 0)
(-0.178541 0.0399352 0)
(-0.185831 0.038919 0)
(-0.192756 0.0375769 0)
(-0.199284 0.0359162 0)
(-0.205387 0.033947 0)
(-0.21104 0.0316815 0)
(-0.21622 0.029134 0)
(-0.220907 0.0263202 0)
(-0.225083 0.0232571 0)
(-0.228731 0.0199629 0)
(-0.231834 0.0164567 0)
(-0.234379 0.0127588 0)
(-0.236352 0.00889024 0)
(-0.237739 0.00487342 0)
(-0.238527 0.000731925 0)
(-0.238705 -0.00350919 0)
(-0.238262 -0.00782324 0)
(-0.237185 -0.0121817 0)
(-0.235464 -0.0165541 0)
(-0.233092 -0.0209075 0)
(-0.230058 -0.0252069 0)
(-0.226357 -0.0294147 0)
(-0.221985 -0.0334911 0)
(-0.216941 -0.0373941 0)
(-0.211228 -0.0410797 0)
(-0.204852 -0.0445027 0)
(-0.197828 -0.0476173 0)
(-0.190175 -0.0503779 0)
(-0.181921 -0.0527402 0)
(-0.173102 -0.0546627 0)
(-0.163762 -0.0561082 0)
(-0.153957 -0.057045 0)
(-0.143752 -0.0574488 0)
(-0.13322 -0.0573039 0)
(-0.122444 -0.0566048 0)
(-0.111515 -0.0553568 0)
(-0.100528 -0.0535772 0)
(-0.0895819 -0.0512945 0)
(-0.078778 -0.0485489 0)
(-0.0682147 -0.0453908 0)
(-0.0579866 -0.0418796 0)
(-0.0481815 -0.0380816 0)
(-0.0388785 -0.0340681 0)
(-0.0301463 -0.029913 0)
(-0.0220417 -0.0256906 0)
(-0.0146094 -0.0214734 0)
(-0.00788151 -0.0173299 0)
(-0.00187811 -0.0133235 0)
(0.00339238 -0.00951046 0)
(0.00793245 -0.00593933 0)
(0.0117546 -0.00264986 0)
(0.0148805 0.000327371 0)
(0.0173401 0.00297128 0)
(0.0191706 0.00527028 0)
(0.0204157 0.00722195 0)
(0.021124 0.00883256 0)
(0.0213483 0.0101162 0)
(0.021144 0.0110935 0)
(0.0205677 0.0117906 0)
(0.0196759 0.0122372 0)
(0.0185236 0.0124649 0)
(0.0171636 0.0125051 0)
(0.0156449 0.012387 0)
(0.0140132 0.0121354 0)
(0.0123101 0.0117683 0)
(0.0105735 0.0112949 0)
(0.008839 0.0107143 0)
(0.00714063 0.0100134 0)
(0.00551326 0.00916789 0)
(0.00399486 0.00814219 0)
(0.00262987 0.00689218 0)
(0.0014643 0.00536861 0)
(0.000598487 0.00352171 0)
(6.81766e-05 0.00130764 0)
(4.94555e-06 -0.00045907 0)
(1.55371e-05 -0.000942285 0)
(-1.48719e-05 -0.00110629 0)
(-0.000102963 -0.00105342 0)
(-0.000262321 -0.000857466 0)
(-0.000497589 -0.000571615 0)
(-0.00081078 -0.00023132 0)
(-0.00120314 0.000142244 0)
(-0.00167684 0.00053898 0)
(-0.00223606 0.000956971 0)
(-0.00288756 0.00140003 0)
(-0.00364093 0.00187565 0)
(-0.0045086 0.00239346 0)
(-0.00550574 0.00296405 0)
(-0.00664995 0.00359813 0)
(-0.00796113 0.00430609 0)
(-0.00946111 0.00509769 0)
(-0.0111735 0.00598197 0)
(-0.0131233 0.00696723 0)
(-0.0153369 0.00806105 0)
(-0.0178415 0.00927025 0)
(-0.0206649 0.0106008 0)
(-0.0238349 0.0120577 0)
(-0.0273788 0.0136444 0)
(-0.0313226 0.0153628 0)
(-0.0356901 0.0172122 0)
(-0.0405016 0.0191888 0)
(-0.045773 0.0212855 0)
(-0.0515144 0.0234906 0)
(-0.0577286 0.0257877 0)
(-0.0644105 0.0281554 0)
(-0.071546 0.030567 0)