/*--------------------------------*- C++ -*----------------------------------*\
| =========                 |                                                 |
| \\      /  F ield         | OpenFOAM: The Open Source CFD Toolbox           |
|  \\    /   O peration     | Version:  2406                                  |
|   \\  /    A nd           | Website:  www.openfoam.com                      |
|    \\/     M anipulation  |                                                 |
\*---------------------------------------------------------------------------*/
FoamFile
{
    version     2.0;
    format      ascii;
    arch        "LSB;label=32;scalar=64";
    class       volVectorField;
    location    "46";
    object      Uold;
}
// * * * * * * * * * * * * * * * * * * * * * * * * * * * * * * * * * * * * * //

dimensions      [0 1 -1 0 0 0 0];

internalField   nonuniform List<vector> 
3600
(
(-1.00102e-05 -2.01416e-06 0)
(0.000493952 -0.000249646 0)
(0.00152223 -0.000380855 0)
(0.0026743 -0.000400796 0)
(0.0037651 -0.000322429 0)
(0.0045452 -0.000216446 0)
(0.00505129 -0.000117455 0)
(0.0052733 -5.58044e-05 0)
(0.00534862 -3.05138e-05 0)
(0.00531423 -3.16984e-05 0)
(0.00523457 -3.88036e-05 0)
(0.00506882 -3.52136e-05 0)
(0.00477686 -9.18143e-06 0)
(0.00426314 4.34274e-05 0)
(0.0034476 0.000123587 0)
(0.00223012 0.000231939 0)
(0.000525871 0.000370694 0)
(-0.00175601 0.000539519 0)
(-0.00468991 0.000730042 0)
(-0.00834194 0.000929057 0)
(-0.0127485 0.00113064 0)
(-0.0179058 0.00134245 0)
(-0.0237452 0.00157531 0)
(-0.0301232 0.00182378 0)
(-0.0368121 0.00205495 0)
(-0.0435058 0.0022149 0)
(-0.0498356 0.00224619 0)
(-0.0554008 0.00210472 0)
(-0.0598005 0.00176852 0)
(-0.0626676 0.00123936 0)
(-0.0636948 0.000539974 0)
(-0.0626578 -0.000289475 0)
(-0.0594341 -0.00119493 0)
(-0.0540184 -0.00211121 0)
(-0.0465374 -0.00296537 0)
(-0.0372573 -0.00368074 0)
(-0.026588 -0.00418329 0)
(-0.0150699 -0.00440982 0)
(-0.0033521 -0.00431838 0)
(0.00785954 -0.0038989 0)
(0.0178586 -0.00318164 0)
(0.0260285 -0.00224082 0)
(0.0319084 -0.00118809 0)
(0.0352796 -0.000157577 0)
(0.0361785 0.000721927 0)
(0.0349137 0.0013539 0)
(0.031976 0.00170086 0)
(0.0279779 0.00178579 0)
(0.0234991 0.00167994 0)
(0.0190455 0.00146571 0)
(0.0149369 0.00121519 0)
(0.0113788 0.000970588 0)
(0.00840075 0.000757135 0)
(0.00601016 0.00057933 0)
(0.00409465 0.000443601 0)
(0.00261454 0.00033673 0)
(0.00144049 0.00025585 0)
(0.00059718 0.000157698 0)
(5.81675e-05 4.5889e-05 0)
(-8.40238e-05 -8.98313e-05 0)
(0.000206718 -0.000472103 0)
(0.00151887 -0.00157166 0)
(0.00368928 -0.00211477 0)
(0.00597978 -0.00214623 0)
(0.00808726 -0.00175079 0)
(0.00957599 -0.00118488 0)
(0.0104573 -0.000617481 0)
(0.0106814 -0.000171327 0)
(0.0104193 0.000139461 0)
(0.00969669 0.000364223 0)
(0.00855994 0.000592182 0)
(0.0068873 0.000910021 0)
(0.00453556 0.0013773 0)
(0.00127187 0.00202351 0)
(-0.00311912 0.00285444 0)
(-0.00886857 0.00386357 0)
(-0.0161594 0.00503129 0)
(-0.0251359 0.00632839 0)
(-0.0358375 0.00771615 0)
(-0.0481648 0.00914028 0)
(-0.0618279 0.0105101 0)
(-0.0763602 0.0116927 0)
(-0.0911534 0.0125325 0)
(-0.105534 0.0128858 0)
(-0.118833 0.0126463 0)
(-0.13045 0.0117574 0)
(-0.139888 0.010212 0)
(-0.146761 0.00804759 0)
(-0.150788 0.00533701 0)
(-0.151788 0.00218119 0)
(-0.14966 -0.00129731 0)
(-0.144385 -0.00495679 0)
(-0.136025 -0.00863788 0)
(-0.124725 -0.0121633 0)
(-0.110727 -0.0153407 0)
(-0.094381 -0.0179673 0)
(-0.076155 -0.0198429 0)
(-0.056637 -0.0207873 0)
(-0.036532 -0.0206669 0)
(-0.0166302 -0.0194217 0)
(0.00222527 -0.0170931 0)
(0.0192133 -0.0138389 0)
(0.033587 -0.00993144 0)
(0.0447733 -0.00573312 0)
(0.0524029 -0.00164591 0)
(0.0563958 0.00194682 0)
(0.0569283 0.00475218 0)
(0.0544791 0.00660882 0)
(0.0497069 0.00751904 0)
(0.0434402 0.00761729 0)
(0.0364567 0.00713222 0)
(0.0294835 0.00630146 0)
(0.022975 0.00533963 0)
(0.0172686 0.00438483 0)
(0.0124026 0.00353593 0)
(0.00843459 0.00280067 0)
(0.00520071 0.00218035 0)
(0.00275421 0.00154256 0)
(0.000984333 0.000873673 0)
(9.65738e-05 8.57269e-05 0)
(0.000344809 -0.00145337 0)
(0.00215701 -0.00377208 0)
(0.00498429 -0.00484045 0)
(0.00778227 -0.00476287 0)
(0.0101943 -0.00380717 0)
(0.0116926 -0.00244843 0)
(0.0122864 -0.00105383 0)
(0.0118889 0.000152003 0)
(0.0106373 0.00113651 0)
(0.00848101 0.00202115 0)
(0.00536556 0.00299753 0)
(0.00104272 0.00425877 0)
(-0.00475837 0.00593029 0)
(-0.0123835 0.00807025 0)
(-0.0221246 0.0106696 0)
(-0.0342263 0.0136762 0)
(-0.048768 0.0169873 0)
(-0.0656104 0.0204381 0)
(-0.0843144 0.0237708 0)
(-0.104189 0.0266581 0)
(-0.124382 0.0287686 0)
(-0.144029 0.0298469 0)
(-0.162356 0.0297481 0)
(-0.178754 0.0284372 0)
(-0.192777 0.0259607 0)
(-0.204131 0.0224178 0)
(-0.212632 0.0179361 0)
(-0.218179 0.0126584 0)
(-0.220716 0.00673586 0)
(-0.22022 0.000327917 0)
(-0.216685 -0.00639518 0)
(-0.210124 -0.0132454 0)
(-0.200572 -0.0200109 0)
(-0.188102 -0.0264487 0)
(-0.172846 -0.0322837 0)
(-0.155014 -0.0372119 0)
(-0.13492 -0.0409162 0)
(-0.113004 -0.0430917 0)
(-0.0898397 -0.0434869 0)
(-0.0661288 -0.0419474 0)
(-0.0426775 -0.0384666 0)
(-0.0203357 -0.0332147 0)
(5.61027e-05 -0.0265502 0)
(0.0177642 -0.0189889 0)
(0.0321962 -0.0111441 0)
(0.0429859 -0.0036483 0)
(0.0499625 0.00293518 0)
(0.0532264 0.00817136 0)
(0.0530746 0.0118162 0)
(0.0500866 0.013828 0)
(0.0449623 0.0143789 0)
(0.0385654 0.0137874 0)
(0.0316279 0.0124585 0)
(0.0248465 0.0107637 0)
(0.0185678 0.00901257 0)
(0.0131152 0.00735367 0)
(0.00844779 0.00584768 0)
(0.00475097 0.00433003 0)
(0.00189058 0.00271169 0)
(0.000289048 0.00078766 0)
(0.000438142 -0.00267073 0)
(0.00254894 -0.00631807 0)
(0.00564132 -0.00779274 0)
(0.0084177 -0.00735134 0)
(0.0105036 -0.00556456 0)
(0.0113483 -0.0031397 0)
(0.0109844 -0.000639361 0)
(0.00928574 0.0016562 0)
(0.006305 0.00373735 0)
(0.00184923 0.00583672 0)
(-0.00430195 0.00826219 0)
(-0.0125503 0.0113016 0)
(-0.0232674 0.0151058 0)
(-0.0368067 0.0196981 0)
(-0.0533245 0.0249626 0)
(-0.0727216 0.0306566 0)
(-0.0945143 0.0363747 0)
(-0.117888 0.0415933 0)
(-0.14182 0.045777 0)
(-0.165308 0.0485174 0)
(-0.187507 0.0495897 0)
(-0.207815 0.048947 0)
(-0.225843 0.0466642 0)
(-0.241372 0.042889 0)
(-0.254298 0.0377961 0)
(-0.264582 0.0315656 0)
(-0.272216 0.0243679 0)
(-0.277202 0.016363 0)
(-0.279535 0.00770243 0)
(-0.279198 -0.00146123 0)
(-0.276156 -0.0109654 0)
(-0.27036 -0.0206228 0)
(-0.261759 -0.0302097 0)
(-0.250308 -0.0394519 0)
(-0.235992 -0.0480192 0)
(-0.218851 -0.0555234 0)
(-0.199016 -0.0615352 0)
(-0.176739 -0.0656118 0)
(-0.152431 -0.0673511 0)
(-0.126678 -0.0664537 0)
(-0.10024 -0.0628012 0)
(-0.0740072 -0.056511 0)
(-0.0489337 -0.0479694 0)
(-0.0259197 -0.0378 0)
(-0.0057316 -0.0267882 0)
(0.0111037 -0.0157648 0)
(0.0242678 -0.00549613 0)
(0.0336856 0.00338582 0)
(0.0394126 0.0104344 0)
(0.0417272 0.0153978 0)
(0.0410222 0.0182578 0)
(0.0379493 0.0192139 0)
(0.0331777 0.0186641 0)
(0.0275228 0.0170934 0)
(0.0215451 0.0149917 0)
(0.0158494 0.0127042 0)
(0.0106018 0.0104182 0)
(0.00620536 0.00802564 0)
(0.00259573 0.00533101 0)
(0.000444892 0.0019507 0)
(0.000500147 -0.00411723 0)
(0.00274083 -0.00912588 0)
(0.00576795 -0.0107869 0)
(0.00808029 -0.00962395 0)
(0.00930071 -0.00663965 0)
(0.00890253 -0.00279177 0)
(0.00694138 0.00117548 0)
(0.00324096 0.00499519 0)
(-0.00227605 0.00873976 0)
(-0.00997867 0.012795 0)
(-0.0202571 0.0175732 0)
(-0.0335929 0.0233949 0)
(-0.0502878 0.0303213 0)
(-0.0704037 0.038168 0)
(-0.0935616 0.0464702 0)
(-0.118961 0.0545535 0)
(-0.145477 0.0616499 0)
(-0.17195 0.0671104 0)
(-0.197389 0.0705208 0)
(-0.221098 0.0717268 0)
(-0.242648 0.0707657 0)
(-0.261821 0.067799 0)
(-0.278531 0.0630432 0)
(-0.292772 0.0567329 0)
(-0.304579 0.0490901 0)
(-0.314007 0.0403162 0)
(-0.321107 0.0305849 0)
(-0.325923 0.0200488 0)
(-0.328482 0.00884435 0)
(-0.328781 -0.00289482 0)
(-0.326789 -0.0150266 0)
(-0.322438 -0.0273814 0)
(-0.315627 -0.0397471 0)
(-0.306222 -0.0518476 0)
(-0.294073 -0.0633301 0)
(-0.279036 -0.0737533 0)
(-0.261007 -0.0825956 0)
(-0.239976 -0.0892769 0)
(-0.216083 -0.0932142 0)
(-0.189679 -0.0938988 0)
(-0.161373 -0.0910037 0)
(-0.13204 -0.0844844 0)
(-0.102774 -0.0746623 0)
(-0.0747589 -0.0622278 0)
(-0.0491162 -0.0481649 0)
(-0.0266992 -0.0335803 0)
(-0.0080276 -0.0195177 0)
(0.00675081 -0.00682329 0)
(0.0176826 0.00390307 0)
(0.0249926 0.0122789 0)
(0.0289265 0.0181374 0)
(0.0299243 0.0215248 0)
(0.0284552 0.0227204 0)
(0.0252333 0.0221872 0)
(0.0208339 0.0204796 0)
(0.0159995 0.0180967 0)
(0.011066 0.0153486 0)
(0.00665097 0.0122335 0)
(0.00283202 0.00844342 0)
(0.00049387 0.00340558 0)
(0.000550516 -0.00562721 0)
(0.00275026 -0.0117951 0)
(0.00533232 -0.013239 0)
(0.00669489 -0.0108889 0)
(0.00649143 -0.00629612 0)
(0.00427 -0.000657992 0)
(7.97094e-05 0.00516134 0)
(-0.00633685 0.0110051 0)
(-0.0152346 0.0170886 0)
(-0.0271418 0.0239455 0)
(-0.042515 0.0319931 0)
(-0.0616772 0.041402 0)
(-0.0845097 0.0518916 0)
(-0.110408 0.0628068 0)
(-0.138278 0.0732052 0)
(-0.166821 0.0821438 0)
(-0.194814 0.0888907 0)
(-0.221337 0.0930567 0)
(-0.245794 0.0945447 0)
(-0.267866 0.0934741 0)
(-0.287419 0.0900764 0)
(-0.304441 0.0846391 0)
(-0.318995 0.0774515 0)
(-0.331186 0.0687885 0)
(-0.341145 0.0588894 0)
(-0.349015 0.0479596 0)
(-0.354932 0.0361644 0)
(-0.359021 0.023639 0)
(-0.361378 0.0104915 0)
(-0.362064 -0.00318169 0)
(-0.361091 -0.0172847 0)
(-0.358413 -0.0317003 0)
(-0.35392 -0.046272 0)
(-0.347429 -0.0607755 0)
(-0.338687 -0.0748978 0)
(-0.327379 -0.0882107 0)
(-0.313157 -0.100163 0)
(-0.295687 -0.110083 0)
(-0.274719 -0.117218 0)
(-0.250189 -0.12081 0)
(-0.222323 -0.120213 0)
(-0.191727 -0.115045 0)
(-0.159436 -0.105344 0)
(-0.126847 -0.0916691 0)
(-0.0955574 -0.0750951 0)
(-0.0670545 -0.0570473 0)
(-0.0424443 -0.0390176 0)
(-0.0222289 -0.0222617 0)
(-0.00641563 -0.00763642 0)
(0.00533691 0.00437207 0)
(0.0133905 0.0135464 0)
(0.0181839 0.0198594 0)
(0.0200845 0.023475 0)
(0.0196694 0.0247627 0)
(0.0174274 0.0242298 0)
(0.0141013 0.0224309 0)
(0.0101162 0.0197369 0)
(0.00622963 0.0162379 0)
(0.00267928 0.0115212 0)
(0.000463377 0.00486059 0)
(0.000572329 -0.00718366 0)
(0.00250154 -0.0141376 0)
(0.00421144 -0.0148328 0)
(0.00414076 -0.0107692 0)
(0.0019985 -0.00412271 0)
(-0.00256377 0.0037234 0)
(-0.00956103 0.0118769 0)
(-0.0193546 0.0203793 0)
(-0.0323669 0.0295951 0)
(-0.0491446 0.0400975 0)
(-0.0699497 0.0520812 0)
(-0.0945951 0.0652761 0)
(-0.122267 0.0788272 0)
(-0.151692 0.0916048 0)
(-0.181432 0.102482 0)
(-0.210239 0.11067 0)
(-0.237212 0.115767 0)
(-0.261805 0.117727 0)
(-0.283738 0.116717 0)
(-0.302916 0.113038 0)
(-0.319376 0.107038 0)
(-0.333239 0.0990812 0)
(-0.344691 0.0895063 0)
(-0.353956 0.078622 0)
(-0.361274 0.0666841 0)
(-0.366888 0.0539002 0)
(-0.371024 0.0404231 0)
(-0.373878 0.0263638 0)
(-0.375614 0.011794 0)
(-0.376347 -0.00323548 0)
(-0.376139 -0.0186856 0)
(-0.374989 -0.034506 0)
(-0.372823 -0.0506183 0)
(-0.369471 -0.0668854 0)
(-0.364667 -0.0830861 0)
(-0.358021 -0.0988767 0)
(-0.349035 -0.113766 0)
(-0.337115 -0.127088 0)
(-0.321633 -0.138013 0)
(-0.30202 -0.145583 0)
(-0.277915 -0.148819 0)
(-0.249328 -0.146878 0)
(-0.216819 -0.139275 0)
(-0.181589 -0.126096 0)
(-0.145447 -0.108167 0)
(-0.110549 -0.0870241 0)
(-0.0789704 -0.0646607 0)
(-0.0521709 -0.0430549 0)
(-0.030733 -0.0237062 0)
(-0.014393 -0.00744059 0)
(-0.00253642 0.00546325 0)
(0.00554924 0.0150273 0)
(0.0103829 0.0214266 0)
(0.0125412 0.0249913 0)
(0.012464 0.0261574 0)
(0.0108383 0.0254626 0)
(0.00811966 0.0232674 0)
(0.00511536 0.0197037 0)
(0.00219678 0.0142737 0)
(0.000362466 0.00615575 0)
(0.000541957 -0.00857465 0)
(0.0018905 -0.0156785 0)
(0.00223585 -0.0149712 0)
(0.000244249 -0.00864989 0)
(-0.00431918 0.000485355 0)
(-0.0116875 0.0109687 0)
(-0.0220051 0.0219871 0)
(-0.035711 0.0338118 0)
(-0.0532837 0.0468498 0)
(-0.0750169 0.0614648 0)
(-0.100665 0.0773265 0)
(-0.129324 0.0935335 0)
(-0.159587 0.108737 0)
(-0.189914 0.12168 0)
(-0.218998 0.131447 0)
(-0.245914 0.137626 0)
(-0.270105 0.140169 0)
(-0.291291 0.139302 0)
(-0.309402 0.135382 0)
(-0.324517 0.12885 0)
(-0.336839 0.120155 0)
(-0.346646 0.109738 0)
(-0.354268 0.0979842 0)
(-0.360044 0.0852204 0)
(-0.36431 0.0716985 0)
(-0.367367 0.0576058 0)
(-0.369483 0.0430619 0)
(-0.37088 0.0281386 0)
(-0.37174 0.0128625 0)
(-0.3722 -0.00276406 0)
(-0.372357 -0.0187582 0)
(-0.372253 -0.0351345 0)
(-0.371877 -0.0518956 0)
(-0.371136 -0.0690032 0)
(-0.36984 -0.0863578 0)
(-0.367664 -0.103755 0)
(-0.364128 -0.120851 0)
(-0.358569 -0.13711 0)
(-0.350153 -0.151773 0)
(-0.337927 -0.163843 0)
(-0.320939 -0.172134 0)
(-0.298427 -0.175377 0)
(-0.270083 -0.172448 0)
(-0.236319 -0.162651 0)
(-0.198479 -0.146056 0)
(-0.158822 -0.123738 0)
(-0.120232 -0.0977829 0)
(-0.0855264 -0.0708959 0)
(-0.0566972 -0.0456782 0)
(-0.034361 -0.0239119 0)
(-0.018003 -0.00632473 0)
(-0.00654421 0.0071029 0)
(0.000968044 0.0166969 0)
(0.00536574 0.0228926 0)
(0.00720601 0.0261335 0)
(0.00717249 0.0269339 0)
(0.00575141 0.0256089 0)
(0.0037397 0.0222813 0)
(0.00160191 0.0163996 0)
(0.000245138 0.00712235 0)
(0.000426805 -0.00963727 0)
(0.000822161 -0.0160584 0)
(-0.000687994 -0.0132572 0)
(-0.00501657 -0.00417853 0)
(-0.0123807 0.00785391 0)
(-0.0228993 0.0214202 0)
(-0.0368797 0.0358565 0)
(-0.054721 0.0515776 0)
(-0.0767419 0.068792 0)
(-0.102693 0.0873488 0)
(-0.131682 0.106225 0)
(-0.162214 0.124 0)
(-0.19268 0.139188 0)
(-0.221668 0.150769 0)
(-0.2482 0.158223 0)
(-0.271661 0.161513 0)
(-0.291769 0.16088 0)
(-0.308463 0.156772 0)
(-0.321896 0.149718 0)
(-0.332352 0.140293 0)
(-0.340223 0.129035 0)
(-0.345936 0.116432 0)
(-0.349925 0.102876 0)
(-0.352585 0.0886763 0)
(-0.354266 0.0740445 0)
(-0.355255 0.0591223 0)
(-0.355791 0.0439812 0)
(-0.356055 0.0286497 0)
(-0.356199 0.013115 0)
(-0.356335 -0.00265479 0)
(-0.356561 -0.0187111 0)
(-0.35694 -0.0351062 0)
(-0.357517 -0.0518931 0)
(-0.358288 -0.0691039 0)
(-0.359192 -0.0867404 0)
(-0.360062 -0.104738 0)
(-0.360593 -0.122934 0)
(-0.360275 -0.141008 0)
(-0.358359 -0.158422 0)
(-0.353823 -0.174354 0)
(-0.345416 -0.187665 0)
(-0.33177 -0.196917 0)
(-0.311658 -0.200504 0)
(-0.28433 -0.196914 0)
(-0.249943 -0.185127 0)
(-0.209898 -0.165097 0)
(-0.166946 -0.138143 0)
(-0.124794 -0.107007 0)
(-0.087203 -0.0753078 0)
(-0.0567392 -0.0464345 0)
(-0.0340696 -0.02246 0)
(-0.0182155 -0.00390562 0)
(-0.0076951 0.00965312 0)
(-0.00113389 0.0189272 0)
(0.00240266 0.024548 0)
(0.00375131 0.0270991 0)
(0.00349521 0.0268861 0)
(0.00241591 0.0240097 0)
(0.00103719 0.0179117 0)
(0.000138925 0.00778763 0)
(0.000195129 -0.0100445 0)
(-0.000770939 -0.0147496 0)
(-0.0045861 -0.00918036 0)
(-0.0115736 0.00307653 0)
(-0.0220024 0.0183665 0)
(-0.0358609 0.0354206 0)
(-0.0535874 0.0537036 0)
(-0.0753393 0.0735566 0)
(-0.101056 0.094702 0)
(-0.129809 0.116296 0)
(-0.160193 0.13673 0)
(-0.190458 0.154401 0)
(-0.219142 0.168037 0)
(-0.245119 0.177029 0)
(-0.267746 0.181259 0)
(-0.28668 0.181018 0)
(-0.301914 0.176814 0)
(-0.313645 0.169314 0)
(-0.322279 0.159209 0)
(-0.328297 0.147177 0)
(-0.332241 0.133795 0)
(-0.334608 0.119543 0)
(-0.335852 0.104767 0)
(-0.336334 0.0897095 0)
(-0.336346 0.0745144 0)
(-0.336097 0.059259 0)
(-0.335749 0.0439608 0)
(-0.335413 0.0286083 0)
(-0.335182 0.0131593 0)
(-0.335125 -0.00243642 0)
(-0.335315 -0.018244 0)
(-0.335812 -0.0343274 0)
(-0.336688 -0.0507577 0)
(-0.337996 -0.0675978 0)
(-0.339777 -0.0849056 0)
(-0.342019 -0.102711 0)
(-0.34463 -0.120999 0)
(-0.347366 -0.139661 0)
(-0.349772 -0.158439 0)
(-0.351084 -0.17683 0)
(-0.35018 -0.193997 0)
(-0.345562 -0.208681 0)
(-0.335477 -0.219194 0)
(-0.318175 -0.22353 0)
(-0.292382 -0.219678 0)
(-0.257867 -0.206154 0)
(-0.216014 -0.182684 0)
(-0.170055 -0.150833 0)
(-0.124666 -0.114161 0)
(-0.0846617 -0.0774691 0)
(-0.053249 -0.0450913 0)
(-0.0309125 -0.0193251 0)
(-0.0161488 -0.000298823 0)
(-0.00691428 0.0129464 0)
(-0.00160913 0.0214458 0)
(0.00100129 0.0260439 0)
(0.00173625 0.0271631 0)
(0.0014242 0.024931 0)
(0.000644894 0.0188449 0)
(7.61098e-05 0.00818076 0)
(-0.000170308 -0.00951963 0)
(-0.00287093 -0.0113946 0)
(-0.00931652 -0.00248595 0)
(-0.0191293 0.0132524 0)
(-0.0327076 0.0320789 0)
(-0.0498589 0.0529041 0)
(-0.0710543 0.0751931 0)
(-0.0959992 0.0989339 0)
(-0.124151 0.123175 0)
(-0.153983 0.146431 0)
(-0.183878 0.166812 0)
(-0.212129 0.182871 0)
(-0.237594 0.193744 0)
(-0.259451 0.199257 0)
(-0.277392 0.199669 0)
(-0.291365 0.195592 0)
(-0.301684 0.187799 0)
(-0.308807 0.177149 0)
(-0.313359 0.164442 0)
(-0.315937 0.150383 0)
(-0.317131 0.135515 0)
(-0.317402 0.120239 0)
(-0.317136 0.104806 0)
(-0.316585 0.0893686 0)
(-0.315943 0.073989 0)
(-0.315312 0.0586835 0)
(-0.314772 0.0434261 0)
(-0.31436 0.0281797 0)
(-0.314117 0.0128897 0)
(-0.314068 -0.00249539 0)
(-0.314259 -0.0180362 0)
(-0.314735 -0.033788 0)
(-0.315568 -0.049814 0)
(-0.316828 -0.0661744 0)
(-0.318606 -0.0829383 0)
(-0.320976 -0.10017 0)
(-0.323996 -0.117932 0)
(-0.327648 -0.136252 0)
(-0.331793 -0.155097 0)
(-0.336059 -0.174286 0)
(-0.339753 -0.193396 0)
(-0.341726 -0.211617 0)
(-0.340331 -0.227614 0)
(-0.333472 -0.239453 0)
(-0.318898 -0.244683 0)
(-0.294738 -0.240696 0)
(-0.260293 -0.225398 0)
(-0.216852 -0.198199 0)
(-0.168173 -0.160954 0)
(-0.120017 -0.118314 0)
(-0.0783965 -0.0765865 0)
(-0.0469923 -0.0411647 0)
(-0.0258542 -0.0143127 0)
(-0.0126911 0.00451008 0)
(-0.00506482 0.0168095 0)
(-0.00106534 0.0239449 0)
(0.000570808 0.0266765 0)
(0.000855419 0.0252916 0)
(0.000465463 0.0194254 0)
(6.12834e-05 0.00845205 0)
(-0.000672719 -0.00771753 0)
(-0.00540553 -0.00562432 0)
(-0.0146604 0.0070611 0)
(-0.0273083 0.0264635 0)
(-0.0439306 0.0489897 0)
(-0.0640635 0.0736548 0)
(-0.088092 0.0997267 0)
(-0.115141 0.126611 0)
(-0.144251 0.152683 0)
(-0.173516 0.176051 0)
(-0.201395 0.194883 0)
(-0.226396 0.208104 0)
(-0.247752 0.215321 0)
(-0.264951 0.216791 0)
(-0.278052 0.213152 0)
(-0.287318 0.205329 0)
(-0.293371 0.194321 0)
(-0.296856 0.181104 0)
(-0.298513 0.166494 0)
(-0.298931 0.151132 0)
(-0.29864 0.135454 0)
(-0.297983 0.119738 0)
(-0.297224 0.104121 0)
(-0.296487 0.0886647 0)
(-0.295865 0.0733601 0)
(-0.295372 0.0581799 0)
(-0.295027 0.0430724 0)
(-0.294816 0.0279909 0)
(-0.294749 0.0128808 0)
(-0.294825 -0.0023015 0)
(-0.295074 -0.0176049 0)
(-0.295523 -0.0330694 0)
(-0.296234 -0.0487424 0)
(-0.29727 -0.0646686 0)
(-0.298728 -0.0809056 0)
(-0.300707 -0.0975159 0)
(-0.303326 -0.11458 0)
(-0.306683 -0.132182 0)
(-0.310841 -0.150405 0)
(-0.315743 -0.169283 0)
(-0.321137 -0.188734 0)
(-0.326413 -0.208425 0)
(-0.330466 -0.227597 0)
(-0.331554 -0.244856 0)
(-0.327318 -0.258017 0)
(-0.315031 -0.264142 0)
(-0.292228 -0.25991 0)
(-0.257698 -0.24251 0)
(-0.212646 -0.210967 0)
(-0.161446 -0.167614 0)
(-0.11115 -0.118585 0)
(-0.0690011 -0.0721341 0)
(-0.0388445 -0.0345889 0)
(-0.0197503 -0.00769139 0)
(-0.00865315 0.0100245 0)
(-0.00275505 0.0206169 0)
(-0.000109616 0.0254631 0)
(0.000682672 0.0252331 0)
(0.000494679 0.0198139 0)
(9.42193e-05 0.00870133 0)
(-0.00128094 -0.00441967 0)
(-0.00819525 0.00267912 0)
(-0.020243 0.0193991 0)
(-0.0355485 0.0424939 0)
(-0.0548925 0.0686978 0)
(-0.0774387 0.0969737 0)
(-0.103401 0.126211 0)
(-0.131317 0.155135 0)
(-0.159987 0.181622 0)
(-0.187365 0.203663 0)
(-0.212186 0.219743 0)
(-0.233236 0.229259 0)
(-0.250152 0.23231 0)
(-0.262749 0.229578 0)
(-0.271473 0.222076 0)
(-0.276859 0.210989 0)
(-0.279748 0.197448 0)
(-0.280849 0.182434 0)
(-0.280887 0.166676 0)
(-0.280339 0.150677 0)
(-0.279608 0.134724 0)
(-0.27888 0.118964 0)
(-0.278298 0.103429 0)
(-0.277874 0.0881082 0)
(-0.277629 0.0729497 0)
(-0.277519 0.0579043 0)
(-0.277534 0.042914 0)
(-0.277635 0.0279358 0)
(-0.277821 0.0129241 0)
(-0.278077 -0.00215168 0)
(-0.278427 -0.0173259 0)
(-0.278884 -0.032622 0)
(-0.279498 -0.0480702 0)
(-0.280313 -0.0636955 0)
(-0.281413 -0.0795358 0)
(-0.282883 -0.095634 0)
(-0.284847 -0.112057 0)
(-0.287433 -0.128889 0)
(-0.290791 -0.14625 0)
(-0.295035 -0.164269 0)
(-0.300208 -0.183062 0)
(-0.30615 -0.202646 0)
(-0.312363 -0.222789 0)
(-0.317784 -0.242788 0)
(-0.320623 -0.261177 0)
(-0.318283 -0.275497 0)
(-0.307606 -0.282235 0)
(-0.285557 -0.277271 0)
(-0.250457 -0.256955 0)
(-0.203523 -0.220011 0)
(-0.149977 -0.169562 0)
(-0.0984155 -0.113928 0)
(-0.0572386 -0.0636461 0)
(-0.029715 -0.0254886 0)
(-0.0134475 8.33603e-05 0)
(-0.00470247 0.0156507 0)
(-0.00065178 0.0234721 0)
(0.000726909 0.024887 0)
(0.000655073 0.0201945 0)
(0.000157788 0.00905481 0)
(-0.00195136 0.000543624 0)
(-0.011049 0.0135516 0)
(-0.0257071 0.0344052 0)
(-0.0433401 0.0610868 0)
(-0.0649045 0.0907597 0)
(-0.0891159 0.122143 0)
(-0.115998 0.153638 0)
(-0.143602 0.183336 0)
(-0.170697 0.208874 0)
(-0.195283 0.228389 0)
(-0.216474 0.240844 0)
(-0.233362 0.246141 0)
(-0.246006 0.244884 0)
(-0.254543 0.23817 0)
(-0.259759 0.22733 0)
(-0.262358 0.213699 0)
(-0.263272 0.19842 0)
(-0.263139 0.182365 0)
(-0.26258 0.166104 0)
(-0.261899 0.149964 0)
(-0.261356 0.134085 0)
(-0.260993 0.118498 0)
(-0.260863 0.103163 0)
(-0.260904 0.088026 0)
(-0.261102 0.073018 0)
(-0.261387 0.0580868 0)
(-0.261746 0.0431803 0)
(-0.262131 0.0282653 0)
(-0.262549 0.0133081 0)
(-0.262978 -0.00171048 0)
(-0.263445 -0.0168132 0)
(-0.263953 -0.032012 0)
(-0.264544 -0.047325 0)
(-0.265245 -0.0627633 0)
(-0.266116 -0.0783482 0)
(-0.267216 -0.0941017 0)
(-0.268642 -0.110066 0)
(-0.270498 -0.1263 0)
(-0.272938 -0.142905 0)
(-0.276126 -0.160021 0)
(-0.280243 -0.177832 0)
(-0.2854 -0.196539 0)
(-0.29155 -0.216258 0)
(-0.298276 -0.236864 0)
(-0.304567 -0.257681 0)
(-0.308554 -0.277139 0)
(-0.307403 -0.292395 0)
(-0.297527 -0.299268 0)
(-0.275373 -0.29267 0)
(-0.238919 -0.268116 0)
(-0.18964 -0.224196 0)
(-0.134016 -0.165571 0)
(-0.0824821 -0.103623 0)
(-0.0441782 -0.0513046 0)
(-0.0206193 -0.0145987 0)
(-0.00769292 0.00817593 0)
(-0.0015211 0.0203265 0)
(0.000737349 0.0241619 0)
(0.000844222 0.0205942 0)
(0.000233132 0.00954818 0)
(-0.00261064 0.0071512 0)
(-0.0137106 0.0267681 0)
(-0.0306237 0.0516819 0)
(-0.050112 0.0816762 0)
(-0.0732608 0.114387 0)
(-0.0983111 0.148127 0)
(-0.125143 0.180811 0)
(-0.151466 0.210037 0)
(-0.176206 0.233478 0)
(-0.19752 0.249596 0)
(-0.21495 0.257921 0)
(-0.227896 0.258868 0)
(-0.236833 0.253539 0)
(-0.242166 0.243384 0)
(-0.24492 0.229946 0)
(-0.245831 0.214572 0)
(-0.245802 0.198304 0)
(-0.245312 0.181823 0)
(-0.244835 0.165507 0)
(-0.244494 0.149515 0)
(-0.244432 0.133862 0)
(-0.244584 0.118503 0)
(-0.244958 0.103358 0)
(-0.245449 0.0883576 0)
(-0.246042 0.0734355 0)
(-0.246658 0.0585479 0)
(-0.247295 0.0436554 0)
(-0.247907 0.0287372 0)
(-0.248511 0.0137712 0)
(-0.249086 -0.00125156 0)
(-0.249662 -0.0163447 0)
(-0.250237 -0.0315121 0)
(-0.250849 -0.0467638 0)
(-0.251512 -0.0621027 0)
(-0.252272 -0.077539 0)
(-0.25316 -0.0930809 0)
(-0.254242 -0.108749 0)
(-0.255584 -0.124577 0)
(-0.257301 -0.140626 0)
(-0.25953 -0.157003 0)
(-0.262469 -0.173874 0)
(-0.266329 -0.191482 0)
(-0.271314 -0.210105 0)
(-0.277459 -0.229986 0)
(-0.284442 -0.251082 0)
(-0.291257 -0.272746 0)
(-0.295916 -0.293182 0)
(-0.295284 -0.309053 0)
(-0.285314 -0.315256 0)
(-0.262004 -0.305641 0)
(-0.223192 -0.274856 0)
(-0.171087 -0.221967 0)
(-0.113991 -0.15427 0)
(-0.0644636 -0.0874263 0)
(-0.0311804 -0.0359315 0)
(-0.0124928 -0.0029316 0)
(-0.00320482 0.0154399 0)
(0.000440688 0.022828 0)
(0.000945818 0.0209603 0)
(0.000298203 0.01019 0)
(-0.00319769 0.0152787 0)
(-0.0159909 0.0420311 0)
(-0.0346966 0.0708246 0)
(-0.0554918 0.103756 0)
(-0.0795368 0.13894 0)
(-0.10463 0.17418 0)
(-0.130588 0.206984 0)
(-0.154939 0.234653 0)
(-0.176887 0.255121 0)
(-0.19481 0.267296 0)
(-0.208688 0.271313 0)
(-0.218208 0.268089 0)
(-0.224216 0.259183 0)
(-0.227283 0.246285 0)
(-0.228549 0.231019 0)
(-0.228665 0.214618 0)
(-0.228424 0.197939 0)
(-0.228108 0.181437 0)
(-0.228045 0.165313 0)
(-0.22821 0.149582 0)
(-0.228671 0.134182 0)
(-0.229301 0.119023 0)
(-0.230092 0.104016 0)
(-0.230929 0.0890951 0)
(-0.23181 0.0742067 0)
(-0.232659 0.0593193 0)
(-0.23349 0.0444076 0)
(-0.234262 0.0294608 0)
(-0.235001 0.0144666 0)
(-0.235687 -0.000577313 0)
(-0.236356 -0.0156786 0)
(-0.237001 -0.030837 0)
(-0.237662 -0.0460585 0)
(-0.238342 -0.0613429 0)
(-0.23908 -0.0766958 0)
(-0.239889 -0.092119 0)
(-0.240814 -0.107621 0)
(-0.241886 -0.123217 0)
(-0.243175 -0.138936 0)
(-0.244766 -0.154842 0)
(-0.246808 -0.171046 0)
(-0.249496 -0.187746 0)
(-0.253095 -0.205227 0)
(-0.257861 -0.223874 0)
(-0.263931 -0.244026 0)
(-0.271037 -0.265758 0)
(-0.27815 -0.288342 0)
(-0.283077 -0.30969 0)
(-0.28228 -0.325657 0)
(-0.271215 -0.330025 0)
(-0.245493 -0.315307 0)
(-0.20323 -0.275637 0)
(-0.148009 -0.211496 0)
(-0.0908114 -0.134783 0)
(-0.0460534 -0.0662272 0)
(-0.019628 -0.0190864 0)
(-0.00608889 0.00795966 0)
(-0.000365609 0.0204437 0)
(0.000877511 0.021088 0)
(0.000339576 0.0109081 0)
(-0.00364287 0.0246295 0)
(-0.0176923 0.058847 0)
(-0.0376404 0.0912253 0)
(-0.0591509 0.126596 0)
(-0.0834111 0.163565 0)
(-0.107852 0.1994 0)
(-0.132317 0.231346 0)
(-0.154289 0.256599 0)
(-0.173316 0.273525 0)
(-0.188024 0.281533 0)
(-0.198802 0.281374 0)
(-0.205586 0.27442 0)
(-0.209502 0.2626 0)
(-0.211171 0.247707 0)
(-0.211739 0.231316 0)
(-0.211692 0.214452 0)
(-0.211681 0.197753 0)
(-0.211796 0.181456 0)
(-0.212253 0.165614 0)
(-0.212926 0.150146 0)
(-0.213847 0.134949 0)
(-0.214859 0.119919 0)
(-0.215968 0.104978 0)
(-0.217057 0.0900692 0)
(-0.218145 0.0751574 0)
(-0.219161 0.0602229 0)
(-0.220133 0.0452529 0)
(-0.221023 0.0302447 0)
(-0.221864 0.0151938 0)
(-0.222638 0.000102956 0)
(-0.223381 -0.0150305 0)
(-0.224087 -0.0302035 0)
(-0.224794 -0.0454193 0)
(-0.225502 -0.0606765 0)
(-0.226248 -0.0759793 0)
(-0.227036 -0.0913284 0)
(-0.227898 -0.106728 0)
(-0.228844 -0.122185 0)
(-0.229914 -0.137709 0)
(-0.231145 -0.153334 0)
(-0.232628 -0.169116 0)
(-0.234491 -0.185188 0)
(-0.236959 -0.201763 0)
(-0.240318 -0.219212 0)
(-0.244902 -0.237991 0)
(-0.250907 -0.258597 0)
(-0.258103 -0.281125 0)
(-0.265353 -0.304764 0)
(-0.270147 -0.326808 0)
(-0.268429 -0.342092 0)
(-0.255072 -0.342778 0)
(-0.225562 -0.320078 0)
(-0.178789 -0.268131 0)
(-0.120857 -0.19085 0)
(-0.0660967 -0.107338 0)
(-0.0294222 -0.042095 0)
(-0.010435 -0.00302321 0)
(-0.00179587 0.016461 0)
(0.000601403 0.0207308 0)
(0.000351286 0.0116212 0)
(-0.00391087 0.0348406 0)
(-0.0187285 0.0767303 0)
(-0.0393507 0.112379 0)
(-0.0610087 0.149676 0)
(-0.0848774 0.187751 0)
(-0.108123 0.223368 0)
(-0.130691 0.25367 0)
(-0.150122 0.275913 0)
(-0.166329 0.289008 0)
(-0.17818 0.292884 0)
(-0.186427 0.288888 0)
(-0.191187 0.278773 0)
(-0.193758 0.264718 0)
(-0.194714 0.248487 0)
(-0.195125 0.231508 0)
(-0.195282 0.214548 0)
(-0.195694 0.198032 0)
(-0.196299 0.18201 0)
(-0.197242 0.166437 0)
(-0.198333 0.151171 0)
(-0.199605 0.136105 0)
(-0.200892 0.121134 0)
(-0.202221 0.1062 0)
(-0.203483 0.091261 0)
(-0.204714 0.0762964 0)
(-0.205848 0.0612956 0)
(-0.206924 0.046256 0)
(-0.207904 0.0311794 0)
(-0.208826 0.0160676 0)
(-0.209671 0.00092635 0)
(-0.210477 -0.0142432 0)
(-0.211237 -0.0294364 0)
(-0.211988 -0.0446548 0)
(-0.212731 -0.0598973 0)
(-0.2135 -0.0751679 0)
(-0.214297 -0.0904701 0)
(-0.21515 -0.105808 0)
(-0.216058 -0.121188 0)
(-0.217045 -0.136613 0)
(-0.218116 -0.152101 0)
(-0.219316 -0.167668 0)
(-0.220705 -0.183392 0)
(-0.222429 -0.199392 0)
(-0.224711 -0.215951 0)
(-0.227897 -0.233477 0)
(-0.232371 -0.252602 0)
(-0.238391 -0.273882 0)
(-0.245694 -0.297506 0)
(-0.252923 -0.32226 0)
(-0.257106 -0.344653 0)
(-0.253485 -0.357836 0)
(-0.236445 -0.352138 0)
(-0.201606 -0.317442 0)
(-0.149792 -0.249504 0)
(-0.0906815 -0.158918 0)
(-0.0426221 -0.0742149 0)
(-0.0162598 -0.0186024 0)
(-0.00396905 0.0102258 0)
(0.000134603 0.0195757 0)
(0.000329091 0.0122283 0)
(-0.00397051 0.0454559 0)
(-0.0190278 0.0950819 0)
(-0.0397561 0.133648 0)
(-0.0610359 0.172323 0)
(-0.0839999 0.210829 0)
(-0.105663 0.245516 0)
(-0.126119 0.273579 0)
(-0.143039 0.292461 0)
(-0.156685 0.301683 0)
(-0.166144 0.301677 0)
(-0.172458 0.294337 0)
(-0.175847 0.281688 0)
(-0.17768 0.266042 0)
(-0.178412 0.249015 0)
(-0.178993 0.231834 0)
(-0.179527 0.214999 0)
(-0.180408 0.198752 0)
(-0.181464 0.182998 0)
(-0.182808 0.167639 0)
(-0.18422 0.152505 0)
(-0.185749 0.137501 0)
(-0.187234 0.122533 0)
(-0.188723 0.107564 0)
(-0.190114 0.0925611 0)
(-0.191457 0.0775194 0)
(-0.192687 0.062433 0)
(-0.193852 0.0473074 0)
(-0.194911 0.0321474 0)
(-0.195906 0.0169604 0)
(-0.196814 0.00175439 0)
(-0.197676 -0.0134652 0)
(-0.198481 -0.0286923 0)
(-0.19927 -0.0439255 0)
(-0.200038 -0.0591645 0)
(-0.200823 -0.0744124 0)
(-0.201626 -0.089676 0)
(-0.202476 -0.104961 0)
(-0.203368 -0.120279 0)
(-0.204324 -0.135634 0)
(-0.205333 -0.151041 0)
(-0.206414 -0.166498 0)
(-0.207576 -0.182048 0)
(-0.208895 -0.197735 0)
(-0.210498 -0.213743 0)
(-0.21265 -0.230348 0)
(-0.215735 -0.248134 0)
(-0.220212 -0.267797 0)
(-0.226363 -0.290126 0)
(-0.233798 -0.315099 0)
(-0.240797 -0.34103 0)
(-0.243663 -0.362877 0)
(-0.236905 -0.371726 0)
(-0.214446 -0.355518 0)
(-0.173007 -0.303807 0)
(-0.11651 -0.216862 0)
(-0.0600533 -0.116873 0)
(-0.0235787 -0.0404848 0)
(-0.00701517 0.00118922 0)
(-0.000522987 0.0172395 0)
(0.000282034 0.0126633 0)
(-0.00382796 0.0560341 0)
(-0.0186224 0.113404 0)
(-0.0389399 0.154597 0)
(-0.0594013 0.194179 0)
(-0.0810691 0.232565 0)
(-0.100913 0.265802 0)
(-0.119198 0.291264 0)
(-0.133771 0.306671 0)
(-0.145193 0.312169 0)
(-0.152739 0.30866 0)
(-0.15766 0.298511 0)
(-0.160203 0.283911 0)
(-0.161724 0.267189 0)
(-0.162526 0.249742 0)
(-0.163426 0.232576 0)
(-0.164371 0.215948 0)
(-0.165675 0.199956 0)
(-0.167096 0.184408 0)
(-0.168739 0.169186 0)
(-0.17038 0.154111 0)
(-0.172089 0.139112 0)
(-0.173711 0.124104 0)
(-0.175315 0.109073 0)
(-0.176803 0.0939908 0)
(-0.178236 0.0788629 0)
(-0.179547 0.0636861 0)
(-0.18079 0.0484719 0)
(-0.18192 0.0332266 0)
(-0.182983 0.0179625 0)
(-0.183951 0.00268885 0)
(-0.184868 -0.0125848 0)
(-0.18572 -0.0278516 0)
(-0.186546 -0.0431071 0)
(-0.187343 -0.0583517 0)
(-0.188149 -0.0735872 0)
(-0.188962 -0.088824 0)
(-0.189816 -0.104068 0)
(-0.190705 -0.11934 0)
(-0.191653 -0.134643 0)
(-0.192644 -0.150002 0)
(-0.193687 -0.165407 0)
(-0.194767 -0.180892 0)
(-0.195909 -0.196449 0)
(-0.19716 -0.212189 0)
(-0.198681 -0.228246 0)
(-0.200754 -0.245069 0)
(-0.20384 -0.263267 0)