/*--------------------------------*- C++ -*----------------------------------*\
| =========                 |                                                 |
| \\      /  F ield         | OpenFOAM: The Open Source CFD Toolbox           |
|  \\    /   O peration     | Version:  2406                                  |
|   \\  /    A nd           | Website:  www.openfoam.com                      |
|    \\/     M anipulation  |                                                 |
\*---------------------------------------------------------------------------*/
FoamFile
{
    version     2.0;
    format      ascii;
    arch        "LSB;label=32;scalar=64";
    class       volVectorField;
    location    "8.2";
    object      Uc;
}
// * * * * * * * * * * * * * * * * * * * * * * * * * * * * * * * * * * * * * //

dimensions      [0 1 -1 0 0 0 0];

internalField   nonuniform List<vector> 
900
(
(1.4986e-05 -5.70052e-05 0)
(-0.000764261 0.000138864 0)
(-0.00198496 0.000186122 0)
(-0.00323156 0.000198598 0)
(-0.00459842 0.000187455 0)
(-0.00593444 0.000188749 0)
(-0.00738533 0.000194827 0)
(-0.00887394 0.000212691 0)
(-0.0105088 0.000239587 0)
(-0.012255 0.000280942 0)
(-0.0141995 0.000339753 0)
(-0.0163367 0.000421428 0)
(-0.0187353 0.00052976 0)
(-0.0213794 0.000663408 0)
(-0.0242712 0.000812335 0)
(-0.0272765 0.000947059 0)
(-0.030205 0.00101704 0)
(-0.0326475 0.000947582 0)
(-0.0341521 0.00066553 0)
(-0.0340876 0.000128371 0)
(-0.0320825 -0.000615946 0)
(-0.0278214 -0.00142726 0)
(-0.0217704 -0.00205723 0)
(-0.0145004 -0.00233338 0)
(-0.00739752 -0.0020666 0)
(-0.00149607 -0.00141157 0)
(0.00212375 -0.000500571 0)
(0.0034057 0.00029167 0)
(0.0026446 0.000872518 0)
(0.000662071 0.000830626 0)
(-0.000280333 0.000807876 0)
(-0.00217324 0.00191113 0)
(-0.00489259 0.00229593 0)
(-0.00771669 0.00246271 0)
(-0.0108056 0.00253908 0)
(-0.013922 0.00264328 0)
(-0.0172761 0.00277682 0)
(-0.020759 0.00295676 0)
(-0.0245285 0.00318249 0)
(-0.028532 0.00346042 0)
(-0.0328798 0.00379351 0)
(-0.0375303 0.00417294 0)
(-0.0425177 0.00457607 0)
(-0.0477182 0.00493845 0)
(-0.0529844 0.00515384 0)
(-0.0579531 0.00504712 0)
(-0.0621726 0.00440799 0)
(-0.0649742 0.00302093 0)
(-0.0657335 0.000774446 0)
(-0.0637801 -0.00226558 0)
(-0.0588524 -0.00574879 0)
(-0.0508261 -0.00908331 0)
(-0.0404452 -0.011453 0)
(-0.028496 -0.0123094 0)
(-0.0167597 -0.0110879 0)
(-0.0067195 -0.00828798 0)
(-3.85752e-05 -0.00440938 0)
(0.00303836 -0.000869579 0)
(0.00296037 0.00194911 0)
(0.000790125 0.00245391 0)
(-0.00045196 0.00233953 0)
(-0.00300267 0.00474362 0)
(-0.00662213 0.00567072 0)
(-0.0103713 0.00608449 0)
(-0.0144641 0.00633528 0)
(-0.0186192 0.00662049 0)
(-0.0230771 0.0069747 0)
(-0.0277142 0.00741685 0)
(-0.0327017 0.00795214 0)
(-0.0379716 0.00857336 0)
(-0.0436251 0.00927035 0)
(-0.0495827 0.00998808 0)
(-0.0558289 0.0106398 0)
(-0.0621603 0.011046 0)
(-0.0683364 0.0109612 0)
(-0.0738986 0.0100434 0)
(-0.0783286 0.00795442 0)
(-0.0809607 0.00441956 0)
(-0.0812508 -0.000598926 0)
(-0.0786713 -0.00684235 0)
(-0.073021 -0.013636 0)
(-0.0640566 -0.0199477 0)
(-0.0522387 -0.0244455 0)
(-0.0380613 -0.02614 0)
(-0.023302 -0.0238337 0)
(-0.00999007 -0.0181845 0)
(-0.00071317 -0.0101795 0)
(0.00357404 -0.00273704 0)
(0.00351982 0.00317217 0)
(0.000925222 0.0045183 0)
(-0.000551738 0.00423979 0)
(-0.00347391 0.00812625 0)
(-0.00757943 0.00965326 0)
(-0.0118132 0.0103322 0)
(-0.0164323 0.0107845 0)
(-0.0211299 0.0112755 0)
(-0.0261662 0.0118745 0)
(-0.0314047 0.0125953 0)
(-0.037022 0.0134445 0)
(-0.0429366 0.014393 0)
(-0.0492425 0.0154084 0)
(-0.0558398 0.0163802 0)
(-0.0626981 0.0171542 0)
(-0.0696002 0.0174423 0)
(-0.076313 0.0168872 0)
(-0.08242 0.0150247 0)
(-0.0875012 0.0114526 0)
(-0.0910764 0.00589802 0)
(-0.0928493 -0.00157741 0)
(-0.092469 -0.0106262 0)
(-0.0894621 -0.0205337 0)
(-0.0827694 -0.0301519 0)
(-0.0718436 -0.0377259 0)
(-0.056492 -0.0416141 0)
(-0.0381766 -0.0393665 0)
(-0.0196397 -0.0311157 0)
(-0.00455017 -0.0179962 0)
(0.00338878 -0.00519316 0)
(0.00406434 0.00464253 0)
(0.0010457 0.00682165 0)
(-0.000566524 0.00628854 0)
(-0.00361346 0.0117647 0)
(-0.00790871 0.013938 0)
(-0.0123331 0.0149036 0)
(-0.0171646 0.0155839 0)
(-0.0220785 0.0163055 0)
(-0.0273502 0.0171805 0)
(-0.0328377 0.0182115 0)
(-0.0387285 0.0194099 0)
(-0.0449429 0.0207201 0)
(-0.0515908 0.0220914 0)
(-0.0585905 0.0233583 0)
(-0.0659508 0.0243115 0)
(-0.0735155 0.0245692 0)
(-0.0811519 0.0236935 0)
(-0.0886056 0.0211418 0)
(-0.0957244 0.0165276 0)
(-0.102465 0.00966333 0)
(-0.109027 0.000673831 0)
(-0.115095 -0.0104232 0)
(-0.118923 -0.023572 0)
(-0.117352 -0.0378986 0)
(-0.108698 -0.0510331 0)
(-0.0927254 -0.060195 0)
(-0.0703666 -0.0608343 0)
(-0.0446484 -0.0519945 0)
(-0.0186749 -0.033145 0)
(-0.000739256 -0.0113817 0)
(0.00400909 0.00559303 0)
(0.00108563 0.00956318 0)
(-0.000557078 0.00838886 0)
(-0.00359141 0.0155135 0)
(-0.00788508 0.0183513 0)
(-0.0123146 0.0196085 0)
(-0.0171573 0.0205167 0)
(-0.0220834 0.021469 0)
(-0.027376 0.0226226 0)
(-0.0328955 0.0239709 0)
(-0.0388439 0.025535 0)
(-0.045157 0.0272406 0)
(-0.0519792 0.0290327 0)
(-0.0592783 0.0307111 0)
(-0.0671477 0.0320441 0)
(-0.0755582 0.0325983 0)
(-0.0845789 0.0319264 0)
(-0.0942953 0.0295226 0)
(-0.105144 0.0252101 0)
(-0.117947 0.0190205 0)
(-0.133381 0.0107831 0)
(-0.149686 -0.00115156 0)
(-0.161431 -0.0188444 0)
(-0.163847 -0.0411599 0)
(-0.157381 -0.0631515 0)
(-0.142037 -0.0807709 0)
(-0.117666 -0.0879052 0)
(-0.0864099 -0.0831937 0)
(-0.0482647 -0.0619245 0)
(-0.0137878 -0.0279198 0)
(0.00273016 0.00293861 0)
(0.00117923 0.0118101 0)
(-0.000505016 0.0103561 0)
(-0.00340382 0.0190835 0)
(-0.00755754 0.0225847 0)
(-0.0118608 0.0241386 0)
(-0.0165764 0.025281 0)
(-0.021374 0.026471 0)
(-0.0265399 0.0279198 0)
(-0.0319415 0.0296122 0)
(-0.0378 0.0315917 0)
(-0.0440762 0.0337727 0)
(-0.0509658 0.036121 0)
(-0.0585088 0.0384259 0)
(-0.0669243 0.0404838 0)
(-0.0763755 0.0418773 0)
(-0.0872669 0.0422946 0)
(-0.100275 0.041525 0)
(-0.116752 0.0399239 0)
(-0.138174 0.0374814 0)
(-0.163729 0.031788 0)
(-0.187132 0.0167014 0)
(-0.200372 -0.010583 0)
(-0.203222 -0.0432716 0)
(-0.199105 -0.0741241 0)
(-0.185939 -0.101258 0)
(-0.164376 -0.117421 0)
(-0.133661 -0.122284 0)
(-0.0900678 -0.106026 0)
(-0.0409553 -0.0624972 0)
(1.89602e-05 -0.00915977 0)
(0.00203348 0.0134481 0)
(-0.000452748 0.0122736 0)
(-0.00315301 0.0226133 0)
(-0.00707123 0.0267917 0)
(-0.0111556 0.0286509 0)
(-0.0156409 0.0300209 0)
(-0.0202036 0.0314419 0)
(-0.0251256 0.0331807 0)
(-0.0302834 0.0352258 0)
(-0.0359151 0.0376516 0)
(-0.0420076 0.0403811 0)
(-0.04881 0.0434282 0)
(-0.056441 0.0466142 0)
(-0.0652642 0.0498393 0)
(-0.0756801 0.0528318 0)
(-0.088518 0.0556696 0)
(-0.1051 0.0587292 0)
(-0.127247 0.0626309 0)
(-0.155254 0.0651783 0)
(-0.1844 0.0586517 0)
(-0.205333 0.0342799 0)
(-0.214025 -0.00394052 0)
(-0.216072 -0.0436513 0)
(-0.213041 -0.081648 0)
(-0.203177 -0.11696 0)
(-0.189259 -0.141556 0)
(-0.167147 -0.15916 0)
(-0.130834 -0.155618 0)
(-0.080522 -0.119064 0)
(-0.0135106 -0.0398307 0)
(0.00528265 0.0137759 0)
(-0.00036972 0.0138822 0)
(-0.00280173 0.0256841 0)
(-0.00641455 0.0305104 0)
(-0.0102114 0.0326661 0)
(-0.0143929 0.034257 0)
(-0.0186388 0.0358986 0)
(-0.023222 0.0379263 0)
(-0.0280212 0.0403295 0)
(-0.0332881 0.0432335 0)
(-0.0390217 0.0465742 0)
(-0.0455184 0.0504512 0)
(-0.0529523 0.0547515 0)
(-0.0618185 0.0595735 0)
(-0.0727062 0.0649208 0)
(-0.0867444 0.0714201 0)
(-0.105393 0.0797539 0)
(-0.12972 0.0892985 0)
(-0.157578 0.0935814 0)
(-0.181972 0.081034 0)
(-0.195507 0.0459378 0)
(-0.19969 0.000151051 0)
(-0.200143 -0.0442019 0)
(-0.196086 -0.0868742 0)
(-0.188668 -0.125392 0)
(-0.181363 -0.154096 0)
(-0.171206 -0.181804 0)
(-0.152323 -0.194682 0)
(-0.114606 -0.180639 0)
(-0.047074 -0.0961346 0)
(0.0103779 0.0056734 0)
(-0.000300876 0.0154385 0)
(-0.00243662 0.0287105 0)
(-0.00568629 0.034201 0)
(-0.00913362 0.0366625 0)
(-0.0129379 0.0384543 0)
(-0.0167849 0.0402905 0)
(-0.0209298 0.0425671 0)
(-0.0252474 0.0452933 0)
(-0.0299904 0.0486426 0)
(-0.0351511 0.0525838 0)
(-0.0410458 0.0573185 0)
(-0.0478539 0.0628345 0)
(-0.0561237 0.0694822 0)
(-0.0664637 0.0775525 0)
(-0.0799621 0.0880312 0)
(-0.097594 0.101121 0)
(-0.119305 0.114014 0)
(-0.141851 0.116664 0)
(-0.159379 0.0967062 0)
(-0.168026 0.0529676 0)
(-0.171379 0.00213846 0)
(-0.171504 -0.0459624 0)
(-0.166858 -0.0916092 0)
(-0.158937 -0.130923 0)
(-0.152041 -0.158361 0)
(-0.147949 -0.188115 0)
(-0.144177 -0.213634 0)
(-0.125493 -0.225004 0)
(-0.08045 -0.168143 0)
(-0.00194256 -0.0213233 0)
(-0.000203159 0.0165407 0)
(-0.00200129 0.0310357 0)
(-0.00485534 0.0371293 0)
(-0.00791984 0.0398654 0)
(-0.0113103 0.0418351 0)
(-0.0147081 0.0438255 0)
(-0.0183493 0.0463152 0)
(-0.0220862 0.0493102 0)
(-0.0261686 0.0530547 0)
(-0.0305446 0.057525 0)
(-0.0355292 0.0630455 0)
(-0.0412227 0.0696741 0)
(-0.0481397 0.078003 0)
(-0.0566884 0.0884647 0)
(-0.0676764 0.102135 0)
(-0.081436 0.118413 0)
(-0.0975423 0.13279 0)
(-0.113464 0.133276 0)
(-0.126037 0.108188 0)
(-0.133896 0.0596542 0)
(-0.139915 0.00557319 0)
(-0.141933 -0.0472084 0)
(-0.138534 -0.0976128 0)
(-0.130455 -0.139356 0)
(-0.122602 -0.163947 0)
(-0.117887 -0.188942 0)
(-0.119909 -0.216733 0)
(-0.115523 -0.245398 0)
(-0.0890502 -0.221 0)
(-0.0300026 -0.0762669 0)
(-0.000136224 0.0176627 0)
(-0.00159461 0.0334249 0)
(-0.00401889 0.0401446 0)
(-0.00665377 0.0431667 0)
(-0.0095745 0.0452736 0)
(-0.0124577 0.0473659 0)
(-0.0155147 0.0499731 0)
(-0.0185689 0.0531285 0)
(-0.0218538 0.0571147 0)
(-0.0252511 0.0619256 0)
(-0.0290436 0.0679753 0)
(-0.033188 0.0753588 0)
(-0.0380881 0.0848389 0)
(-0.0438079 0.0968348 0)
(-0.0508096 0.112409 0)
(-0.0588839 0.130332 0)
(-0.0678863 0.145456 0)
(-0.0766958 0.145178 0)
(-0.0849774 0.118729 0)
(-0.0924009 0.0689745 0)
(-0.100157 0.0124855 0)
(-0.103168 -0.0456285 0)
(-0.102041 -0.101083 0)
(-0.0966815 -0.146204 0)
(-0.09217 -0.170039 0)
(-0.0879079 -0.190179 0)
(-0.0924131 -0.215162 0)
(-0.0939919 -0.255842 0)
(-0.0778169 -0.255716 0)
(-0.036578 -0.142986 0)
(-3.70215e-05 0.0181881 0)
(-0.00114104 0.0348599 0)
(-0.00313896 0.0421041 0)
(-0.00535078 0.0453493 0)
(-0.00781029 0.04756 0)
(-0.0101759 0.0496842 0)
(-0.0126431 0.0523496 0)
(-0.0149794 0.0555546 0)
(-0.0174202 0.0596571 0)
(-0.0197365 0.0645971 0)
(-0.0221984 0.0708839 0)
(-0.024544 0.078546 0)
(-0.0270822 0.0884562 0)
(-0.0294231 0.100859 0)
(-0.0317658 0.116816 0)
(-0.0333181 0.134811 0)
(-0.0343967 0.150149 0)
(-0.0350521 0.150634 0)
(-0.0375952 0.126027 0)
(-0.0419332 0.0776296 0)
(-0.0486503 0.0197157 0)
(-0.0514164 -0.0424959 0)
(-0.0535944 -0.100988 0)
(-0.0530597 -0.148042 0)
(-0.0555216 -0.171653 0)
(-0.055817 -0.188212 0)
(-0.0645194 -0.209523 0)
(-0.0708854 -0.258981 0)
(-0.0634827 -0.281091 0)
(-0.0296115 -0.194165 0)
(8.55716e-06 0.0188958 0)
(-0.000764305 0.0366071 0)
(-0.00232792 0.0444141 0)
(-0.00408347 0.0479112 0)
(-0.00604562 0.0501642 0)
(-0.00785415 0.0522595 0)
(-0.00969091 0.0548405 0)
(-0.0112734 0.0579434 0)
(-0.0128347 0.0619247 0)
(-0.0140393 0.0667033 0)
(-0.015151 0.0728092 0)
(-0.0156837 0.080169 0)
(-0.0159009 0.0896717 0)
(-0.0149619 0.101274 0)
(-0.0129631 0.116049 0)
(-0.00845132 0.132381 0)
(-0.00205648 0.146926 0)
(0.00596745 0.148747 0)
(0.0107786 0.128084 0)
(0.0121232 0.0833101 0)
(0.00799965 0.0262925 0)
(0.00537923 -0.0369998 0)
(-0.00155089 -0.0955751 0)
(-0.00752735 -0.14275 0)
(-0.0187702 -0.166093 0)
(-0.0259703 -0.180876 0)
(-0.0399104 -0.19877 0)
(-0.0503258 -0.255404 0)
(-0.0503159 -0.29799 0)
(-0.0262778 -0.238509 0)
(9.9226e-05 0.0188459 0)
(-0.000359211 0.0371012 0)
(-0.00153019 0.0453226 0)
(-0.00288807 0.048962 0)
(-0.00441972 0.051236 0)
(-0.00573023 0.0532166 0)
(-0.00701549 0.0556828 0)
(-0.00790138 0.0585758 0)
(-0.00867663 0.0623446 0)
(-0.00884773 0.0667703 0)
(-0.00876443 0.0724504 0)
(-0.00767239 0.0791017 0)
(-0.00595566 0.0876217 0)
(-0.00231776 0.0975839 0)
(0.00291866 0.110046 0)
(0.0119313 0.123265 0)
(0.0236738 0.135454 0)
(0.0390225 0.137848 0)
(0.0512391 0.122005 0)
(0.0596532 0.0833278 0)
(0.0589604 0.0307965 0)
(0.0568405 -0.0293773 0)
(0.0455954 -0.0843609 0)
(0.0336366 -0.129528 0)
(0.0142143 -0.152196 0)
(-0.000109022 -0.167207 0)
(-0.0201169 -0.184071 0)
(-0.0333452 -0.247219 0)
(-0.0393075 -0.305507 0)
(-0.0217287 -0.27236 0)
(0.000103365 0.0192572 0)
(-8.29794e-05 0.0383486 0)
(-0.000885332 0.0470485 0)
(-0.00181721 0.0509104 0)
(-0.0028926 0.0531185 0)
(-0.00368358 0.0549506 0)
(-0.00440165 0.0571251 0)
(-0.00461746 0.0596724 0)
(-0.00465953 0.0629806 0)
(-0.00392047 0.0668116 0)
(-0.00284828 0.0717295 0)
(-0.00046748 0.077299 0)
(0.00261986 0.0843747 0)
(0.00808984 0.0921748 0)
(0.0151287 0.101734 0)
(0.0265404 0.111076 0)
(0.0404955 0.119672 0)
(0.0596112 0.120866 0)
(0.0763157 0.108912 0)
(0.0906939 0.0774915 0)
(0.0932916 0.0325968 0)
(0.0922944 -0.0210058 0)
(0.0785644 -0.0693987 0)
(0.0629637 -0.110637 0)
(0.0380031 -0.131516 0)
(0.0187624 -0.147053 0)
(-0.00616364 -0.164464 0)
(-0.0217134 -0.235296 0)
(-0.0323552 -0.30914 0)
(-0.0193586 -0.300616 0)
(0.000185568 0.0186964 0)
(0.000216157 0.0379412 0)
(-0.00028734 0.0469236 0)
(-0.000913975 0.0508095 0)
(-0.0016674 0.0529786 0)
(-0.00205827 0.0545588 0)
(-0.00237439 0.0565083 0)
(-0.00204169 0.05866 0)
(-0.00154423 0.0615639 0)
(-6.37334e-05 0.0647677 0)
(0.00171017 0.0689378 0)
(0.00504833 0.0733904 0)
(0.0089443 0.0790156 0)
(0.015493 0.0847072 0)
(0.023118 0.0914979 0)
(0.0352534 0.0972472 0)
(0.0488456 0.102172 0)
(0.068201 0.10124 0)
(0.0851669 0.0914502 0)
(0.102287 0.0667319 0)
(0.106819 0.0310365 0)
(0.107159 -0.0137868 0)
(0.0927684 -0.0535124 0)
(0.0764182 -0.0893651 0)
(0.0492202 -0.107695 0)
(0.0286307 -0.124232 0)
(0.0013668 -0.142876 0)
(-0.0137939 -0.220947 0)
(-0.0280514 -0.307161 0)
(-0.017427 -0.324825 0)
(0.00012499 0.019018 0)
(0.000329599 0.0389891 0)
(5.38648e-05 0.0483453 0)
(-0.000221543 0.0524579 0)
(-0.000602833 0.0544395 0)
(-0.0005603 0.0558072 0)
(-0.000421567 0.0572901 0)
(0.000420506 0.0589504 0)
(0.00141179 0.0611865 0)
(0.00347137 0.0636028 0)
(0.00572907 0.066802 0)
(0.0096696 0.0700115 0)
(0.0138971 0.0741079 0)
(0.0208576 0.0777853 0)
(0.0282052 0.0821195 0)
(0.0399168 0.0848539 0)
(0.0516922 0.0867645 0)
(0.0691359 0.0837364 0)
(0.0833809 0.0750459 0)
(0.0998652 0.0553671 0)
(0.104436 0.0285517 0)
(0.10594 -0.00726288 0)
(0.0922823 -0.0379352 0)
(0.0779587 -0.0681309 0)
(0.0515584 -0.0834173 0)
(0.0327387 -0.100708 0)
(0.00476394 -0.121138 0)
(-0.00921311 -0.206524 0)
(-0.0266562 -0.304409 0)
(-0.0161411 -0.346783 0)
(0.000219732 0.0180558 0)
(0.000485883 0.037785 0)
(0.000379261 0.0472885 0)
(0.00026127 0.0512182 0)
(2.6124e-05 0.0531426 0)
(0.000329552 0.0541239 0)
(0.000653169 0.0553802 0)
(0.001865 0.0565682 0)
(0.0031079 0.0584065 0)
(0.00560837 0.0601774 0)
(0.00810585 0.0626878 0)
(0.0124439 0.0649053 0)
(0.016678 0.0678357 0)
(0.0237134 0.0699749 0)
(0.0303502 0.072488 0)
(0.0411842 0.0731379 0)
(0.0506949 0.0729886 0)
(0.0655979 0.0686535 0)
(0.0761742 0.0607756 0)
(0.0902697 0.04473 0)
(0.0934623 0.0252248 0)
(0.0958828 -0.00269434 0)
(0.0834633 -0.0252569 0)
(0.0727074 -0.0502212 0)
(0.0484034 -0.0621816 0)
(0.0332783 -0.0794314 0)
(0.00547766 -0.0999916 0)
(-0.00596765 -0.191043 0)
(-0.0267605 -0.298952 0)
(-0.0149357 -0.368404 0)
(4.77122e-05 0.0185561 0)
(0.000364495 0.0390909 0)
(0.000246994 0.0488199 0)
(0.000381707 0.0530769 0)
(0.000456021 0.0546343 0)
(0.00111288 0.0554163 0)
(0.00182526 0.0560328 0)
(0.00339966 0.0566696 0)
(0.00495117 0.0577271 0)
(0.00775927 0.058685 0)
(0.0103826 0.0602574 0)
(0.0148678 0.0613948 0)
(0.0188729 0.0631516 0)
(0.0256453 0.0639062 0)
(0.0313406 0.0649867 0)
(0.0410137 0.0640809 0)
(0.0483131 0.062698 0)
(0.0606445 0.0575688 0)
(0.0678075 0.0507264 0)
(0.0791472 0.0372111 0)
(0.0803327 0.0234039 0)
(0.0833463 0.00163835 0)
(0.0719188 -0.0141412 0)
(0.0649332 -0.0346069 0)
(0.042726 -0.0430754 0)
(0.0318088 -0.0598437 0)
(0.00430255 -0.0802892 0)
(-0.00358146 -0.176408 0)
(-0.0282615 -0.29357 0)
(-0.0132162 -0.389406 0)
(0.000226396 0.0173688 0)
(0.000382231 0.0372369 0)
(0.000323071 0.047008 0)
(0.000424105 0.0506217 0)
(0.000366642 0.0521586 0)
(0.00114206 0.052356 0)
(0.0017661 0.0528762 0)
(0.00358257 0.0530506 0)
(0.00514097 0.0538967 0)
(0.00821942 0.0543519 0)
(0.0108125 0.0555199 0)
(0.0154392 0.0559859 0)
(0.0191425 0.0571011 0)
(0.0256859 0.0569983 0)
(0.0304729 0.0572705 0)
(0.039183 0.0555198 0)
(0.044604 0.0535999 0)
(0.0549513 0.0483329 0)
(0.0593634 0.0425871 0)
(0.0686403 0.0311836 0)
(0.0678673 0.0214657 0)
(0.0715306 0.00437124 0)
(0.0606886 -0.00619856 0)
(0.0573853 -0.0229211 0)
(0.0368875 -0.028024 0)
(0.0307446 -0.0436604 0)
(0.00340545 -0.0627755 0)
(-0.0007735 -0.161613 0)
(-0.0305524 -0.287073 0)
(-0.0110023 -0.411232 0)
(-0.000214075 0.0182951 0)
(-0.000183971 0.0394108 0)
(-0.000668407 0.0491272 0)
(-0.000401352 0.0534718 0)
(-2.39524e-05 0.0543029 0)
(0.00109842 0.0544029 0)
(0.00221725 0.054006 0)
(0.00431979 0.0535726 0)
(0.00612985 0.0535133 0)
(0.00935889 0.0531495 0)
(0.01191 0.0534699 0)
(0.0164758 0.0530395 0)
(0.0197751 0.0533664 0)
(0.0258949 0.0523646 0)
(0.0297712 0.0520087 0)
(0.0374702 0.0495324 0)
(0.0413153 0.0475346 0)
(0.0499732 0.0421785 0)
(0.0522568 0.0377614 0)
(0.059975 0.0278521 0)
(0.0575098 0.0214599 0)
(0.0617204 0.00762774 0)
(0.0509339 0.00133622 0)
(0.0509295 -0.0125281 0)
(0.031416 -0.0144658 0)
(0.0303378 -0.0289625 0)
(0.00279863 -0.0457233 0)
(0.00306414 -0.145922 0)
(-0.0330893 -0.279876 0)
(-0.00740063 -0.432493 0)
(0.000317096 0.0173812 0)
(-7.42841e-05 0.0371585 0)
(-0.000521731 0.0468684 0)
(-0.000546787 0.0493479 0)
(-0.000917624 0.0502904 0)
(0.000191794 0.0494788 0)
(0.000815544 0.0493261 0)
(0.00315246 0.0485353 0)
(0.00478565 0.0486306 0)
(0.00829626 0.0479967 0)
(0.0107367 0.0483138 0)
(0.0154557 0.0475358 0)
(0.0184515 0.047748 0)
(0.024446 0.046359 0)
(0.0276107 0.0459233 0)
(0.034788 0.0432237 0)
(0.037392 0.0414878 0)
(0.0451841 0.0364821 0)
(0.0458206 0.033149 0)
(0.0529729 0.0247822 0)
(0.0491496 0.0205304 0)
(0.0543298 0.00936674 0)
(0.0433801 0.00580431 0)
(0.046461 -0.00571868 0)
(0.0273884 -0.00551672 0)
(0.031019 -0.0185691 0)
(0.00250915 -0.0322975 0)
(0.00720016 -0.130686 0)
(-0.0366138 -0.272549 0)
(-0.00276799 -0.454097 0)
(-0.00108805 0.0184786 0)
(-0.002117 0.0409299 0)
(-0.00355799 0.0500357 0)
(-0.00329396 0.0546163 0)
(-0.00235255 0.0541148 0)
(-0.000746734 0.0533197 0)
(0.000814557 0.0516645 0)
(0.00341701 0.0500574 0)
(0.00537828 0.0489947 0)
(0.00895506 0.0474265 0)
(0.0113013 0.0469331 0)
(0.0158972 0.0453232 0)
(0.0184811 0.0450241 0)
(0.0241111 0.0429722 0)
(0.0265595 0.0423932 0)
(0.0330647 0.0392823 0)
(0.0346525 0.0380085 0)
(0.041545 0.0330324 0)
(0.0409678 0.0310749 0)
(0.0475045 0.0235101 0)
(0.0426344 0.0215976 0)
(0.0484266 0.0119498 0)
(0.0369932 0.0113388 0)
(0.042813 0.0013126 0)
(0.0234927 0.00413249 0)
(0.0325305 -0.0074851 0)
(0.00306446 -0.017007 0)
(0.0140321 -0.112001 0)
(-0.0391911 -0.263694 0)
(0.0042738 -0.474467 0)
(0.001069 0.0201778 0)
(-0.000266033 0.0388081 0)
(-0.00233028 0.047652 0)
(-0.00294155 0.0470733 0)
(-0.00448402 0.0471983 0)
(-0.00287269 0.0452616 0)
(-0.00244084 0.0446422 0)
(0.000654893 0.0430344 0)
(0.00234313 0.0427389 0)
(0.00643892 0.0412299 0)
(0.00875233 0.0412351 0)
(0.0137086 0.0395464 0)
(0.0161427 0.0396238 0)
(0.0219388 0.0374361 0)
(0.0239345 0.0372825 0)
(0.030467 0.034185 0)
(0.031229 0.0335444 0)
(0.0382089 0.0290437 0)
(0.0365165 0.0279751 0)
(0.0436178 0.0216885 0)
(0.0376971 0.0207356 0)
(0.0450317 0.013022 0)
(0.0330242 0.0131038 0)
(0.0416791 0.00480019 0)
(0.0220458 0.00748803 0)
(0.035269 -0.00284394 0)
(0.00480561 -0.00904191 0)
(0.0209659 -0.0956737 0)
(-0.0417389 -0.255576 0)
(0.0135339 -0.492921 0)
(-0.005159 0.0178464 0)
(-0.0081147 0.0454422 0)
(-0.00907287 0.0530805 0)
(-0.00880701 0.0581308 0)
(-0.00633248 0.0548446 0)
(-0.00427808 0.0524134 0)
(-0.00216064 0.0490888 0)
(0.00104409 0.0460193 0)
(0.00315436 0.0441449 0)
(0.00720515 0.0413808 0)
(0.00937925 0.0405554 0)
(0.0141977 0.0379583 0)
(0.0162305 0.0376943 0)
(0.0217815 0.0349003 0)
(0.0232319 0.0348587 0)
(0.0293719 0.0314049 0)
(0.0295188 0.0314625 0)
(0.0359842 0.0268275 0)
(0.0336979 0.0272138 0)
(0.0403699 0.0209936 0)
(0.0339564 0.0223162 0)
(0.0414564 0.0146956 0)
(0.0288457 0.0177598 0)
(0.0393128 0.00946701 0)
(0.0183194 0.0150755 0)
(0.0367912 0.00542293 0)
(0.00482636 0.00425541 0)
(0.0329769 -0.0723209 0)
(-0.0382794 -0.245089 0)
(0.027826 -0.506929 0)
(0.00456789 0.0338167 0)
(-0.000618744 0.0414263 0)
(-0.0106029 0.0481678 0)
(-0.010573 0.0423431 0)
(-0.0134702 0.0417803 0)
(-0.00943986 0.0392987 0)
(-0.00857271 0.0384576 0)
(-0.00367158 0.036249 0)
(-0.00158953 0.0360256 0)
(0.00349191 0.0337647 0)
(0.00586803 0.0340446 0)
(0.0112622 0.0315601 0)
(0.0133593 0.0321721 0)
(0.0193018 0.0292943 0)
(0.0205015 0.0301255 0)
(0.027146 0.0266571 0)
(0.0266044 0.0276529 0)
(0.0340966 0.0234286 0)
(0.0306034 0.0246107 0)
(0.0393857 0.0196471 0)
(0.0313136 0.0210435 0)
(0.0425506 0.0157043 0)
(0.0281312 0.017244 0)
(0.0439627 0.0116601 0)
(0.0214028 0.0132032 0)
(0.0455321 0.0046849 0)
(0.0121488 0.000497805 0)
(0.0516195 -0.0616739 0)
(-0.0248649 -0.237805 0)
(0.0485118 -0.508983 0)
(-0.0113363 0.0118867 0)
(-0.0110467 0.0625243 0)
(-0.00229368 0.0629066 0)
(-0.00927334 0.0637362 0)
(-0.00688744 0.0550657 0)
(-0.00676319 0.0495466 0)
(-0.00571471 0.044871 0)
(-0.00313669 0.040238 0)
(-0.00153971 0.0383971 0)
(0.00271613 0.0344691 0)
(0.00467574 0.034066 0)
(0.0104975 0.0305174 0)
(0.0121758 0.0309004 0)
(0.0195944 0.0273981 0)
(0.0201625 0.0283602 0)
(0.0292768 0.0245402 0)
(0.0277276 0.0261261 0)
(0.0387696 0.021599 0)
(0.0338195 0.0240375 0)
(0.047379 0.0184386 0)
(0.0372994 0.0221111 0)
(0.0547537 0.0151845 0)
(0.037003 0.0206603 0)
(0.0613758 0.012366 0)
(0.0316469 0.0198369 0)
(0.0701158 0.0095191 0)
(0.023951 0.00760356 0)
(0.0942928 -0.0402168 0)
(0.0246968 -0.21697 0)
(0.0874627 -0.487793 0)
(-0.0730374 0.0613434 0)
(-0.0597 0.0292828 0)
(-0.0785438 0.0467978 0)
(-0.0539947 0.042843 0)
(-0.0496732 0.0374641 0)
(-0.0289389 0.0350853 0)
(-0.0208776 0.0333229 0)
(-0.00186007 0.0297933 0)
(0.00528665 0.029314 0)
(0.024639 0.0257293 0)
(0.0291508 0.025992 0)
(0.0500331 0.022448 0)
(0.0509713 0.023289 0)
(0.0743522 0.0197198 0)
(0.0707184 0.0210693 0)
(0.0977813 0.0174043 0)
(0.0881054 0.019158 0)
(0.120515 0.0154586 0)
(0.102663 0.0173392 0)
(0.14276 0.0139925 0)
(0.11391 0.0153338 0)
(0.164831 0.0133003 0)
(0.121692 0.0126739 0)
(0.187522 0.013135 0)
(0.127324 0.00735334 0)
(0.213057 0.00606757 0)
(0.137357 -0.0181828 0)
(0.243039 -0.0659961 0)
(0.146273 -0.207963 0)
(0.150125 -0.411068 0)
(0.0842359 0.129365 0)
(0.12748 0.0741008 0)
(0.175364 0.0578484 0)
(0.23129 0.04039 0)
(0.255488 0.032607 0)
(0.299827 0.024023 0)
(0.312155 0.0203422 0)
(0.352662 0.0157916 0)
(0.355864 0.0140815 0)
(0.395775 0.0113305 0)
(0.391268 0.0105709 0)
(0.432529 0.00877035 0)
(0.420849 0.00837267 0)
(0.464792 0.00722393 0)
(0.446044 0.00681998 0)
(0.493675 0.00623316 0)
(0.467733 0.00561422 0)
(0.519835 0.0055128 0)
(0.486481 0.00466703 0)
(0.543641 0.00480355 0)
(0.502704 0.00404378 0)
(0.565264 0.00374864 0)
(0.516717 0.00391987 0)
(0.584605 0.00159982 0)
(0.527921 0.00409007 0)
(0.599406 -0.00442233 0)
(0.526456 -0.000400645 0)
(0.585395 -0.0313172 0)
(0.426283 -0.0499625 0)
(0.314608 -0.180021 0)
)
;

boundaryField
{
    movingWall
    {
        type            fixedValue;
        value           uniform (1 0 0);
    }
    fixedWalls
    {
        type            noSlip;
    }
    frontAndBack
    {
        type            empty;
    }
}


// ************************************************************************* //
