/*--------------------------------*- C++ -*----------------------------------*\
| =========                 |                                                 |
| \\      /  F ield         | OpenFOAM: The Open Source CFD Toolbox           |
|  \\    /   O peration     | Version:  2406                                  |
|   \\  /    A nd           | Website:  www.openfoam.com                      |
|    \\/     M anipulation  |                                                 |
\*---------------------------------------------------------------------------*/
FoamFile
{
    version     2.0;
    format      ascii;
    arch        "LSB;label=32;scalar=64";
    class       volScalarField;
    location    "46.8";
    object      p;
}
// * * * * * * * * * * * * * * * * * * * * * * * * * * * * * * * * * * * * * //

dimensions      [0 2 -2 0 0 0 0];

internalField   nonuniform List<scalar> 
3600
(
0.0408313
0.040865
0.0408563
0.0408324
0.0407613
0.0406746
0.040565
0.0404518
0.0403283
0.0401973
0.0400482
0.0398756
0.0396698
0.0394256
0.0391372
0.0388017
0.0384174
0.0379857
0.0375117
0.0370059
0.0364869
0.0359822
0.0355275
0.0351642
0.0349344
0.0348766
0.0350209
0.0353854
0.0359731
0.0367694
0.0377391
0.0388256
0.0399503
0.0410165
0.0419162
0.042541
0.0427966
0.0426187
0.0419868
0.040932
0.0395356
0.0379174
0.0362142
0.0345576
0.033053
0.0317699
0.0307383
0.0299577
0.0294013
0.029032
0.0288038
0.0286783
0.0286174
0.0286009
0.0286038
0.0286254
0.0286464
0.0286818
0.0287056
0.0287385
0.0407986
0.0408335
0.0408163
0.0407923
0.0407246
0.0406478
0.0405501
0.0404503
0.0403398
0.0402221
0.0400868
0.0399303
0.0397437
0.0395227
0.0392613
0.0389559
0.0386026
0.0382008
0.0377536
0.0372703
0.0367662
0.0362631
0.0357908
0.035387
0.0350947
0.0349569
0.0350103
0.0352798
0.0357741
0.0364832
0.037375
0.038395
0.039466
0.0404918
0.0413642
0.0419736
0.0422237
0.0420482
0.0414246
0.0403839
0.0390088
0.0374227
0.0357665
0.034175
0.0327528
0.0315649
0.0306317
0.0299415
0.0294574
0.029137
0.0289339
0.0288147
0.0287469
0.0287166
0.0287021
0.0287066
0.0287093
0.02873
0.0287381
0.0287712
0.0408004
0.0408464
0.0408262
0.0407994
0.0407255
0.0406465
0.0405502
0.0404571
0.0403567
0.0402512
0.0401289
0.0399848
0.0398095
0.0395975
0.039341
0.0390337
0.038669
0.0382425
0.0377521
0.0372013
0.0366045
0.0359893
0.035396
0.0348726
0.0344697
0.0342346
0.0342062
0.0344102
0.0348561
0.0355338
0.0364115
0.0374347
0.0385264
0.0395901
0.0405162
0.0411921
0.0415164
0.0414151
0.0408576
0.0398669
0.0385214
0.0369449
0.0352846
0.0336857
0.0322643
0.0310944
0.0302004
0.029569
0.0291568
0.0289122
0.0287796
0.0287191
0.0286944
0.0286934
0.0286957
0.0287096
0.0287144
0.0287382
0.0287443
0.0287908
0.0408108
0.040861
0.0408323
0.0407971
0.0407149
0.0406347
0.0405443
0.0404641
0.0403811
0.0402951
0.0401919
0.0400648
0.0399018
0.0396936
0.0394267
0.0390875
0.0386606
0.0381345
0.0375067
0.0367888
0.0360064
0.035198
0.0344119
0.0337022
0.0331238
0.0327269
0.0325518
0.0326257
0.0329591
0.0335439
0.0343517
0.0353325
0.0364148
0.0375074
0.0385045
0.0392941
0.0397704
0.0398497
0.0394865
0.038687
0.0375137
0.03608
0.0345302
0.0330141
0.0316576
0.0305458
0.0297118
0.0291472
0.0288085
0.0286413
0.0285837
0.0285904
0.0286197
0.0286585
0.0286856
0.0287139
0.0287228
0.0287486
0.0287507
0.0288057
0.0408645
0.0409142
0.0408738
0.0408236
0.0407278
0.0406403
0.0405513
0.0404789
0.0404076
0.0403325
0.0402352
0.0401028
0.0399166
0.0396573
0.0393004
0.0388226
0.0382054
0.0374434
0.0365467
0.0355417
0.0344698
0.0333833
0.0323399
0.0313986
0.0306146
0.0300356
0.0296996
0.0296315
0.029842
0.0303251
0.0310572
0.0319958
0.0330788
0.0342256
0.0353395
0.0363142
0.0370427
0.0374313
0.0374152
0.0369736
0.0361397
0.0350011
0.0336858
0.0323397
0.0310964
0.0300549
0.029265
0.0287327
0.0284257
0.0282967
0.0282854
0.0283447
0.0284272
0.0285148
0.0285815
0.0286402
0.0286687
0.0287078
0.028715
0.0287768
0.0409506
0.0409905
0.0409336
0.0408625
0.0407522
0.0406572
0.04057
0.0405031
0.0404375
0.0403607
0.040247
0.0400723
0.0398045
0.0394101
0.0388552
0.0381159
0.0371834
0.0360688
0.034802
0.0334286
0.032004
0.0305894
0.0292465
0.0280348
0.0270075
0.0262093
0.0256745
0.0254253
0.0254715
0.0258092
0.0264204
0.0272717
0.0283143
0.0294833
0.0306985
0.0318679
0.0328926
0.0336764
0.0341384
0.0342278
0.0339376
0.0333117
0.0324414
0.0314502
0.030467
0.0296009
0.0289199
0.0284502
0.0281775
0.028069
0.0280747
0.0281542
0.0282612
0.0283764
0.02847
0.0285517
0.0285972
0.0286465
0.0286584
0.0287193
0.0410936
0.0411153
0.0410388
0.0409416
0.0408149
0.0407075
0.0406145
0.0405385
0.0404554
0.0403402
0.0401548
0.0398575
0.0394009
0.0387416
0.0378485
0.0367114
0.0353438
0.0337809
0.0320745
0.0302868
0.028485
0.0267359
0.0251023
0.0236398
0.0223953
0.0214056
0.0206973
0.0202868
0.0201802
0.0203733
0.020852
0.0215916
0.0225565
0.0236998
0.024963
0.0262763
0.0275602
0.02873
0.0297027
0.0304073
0.0307976
0.0308641
0.0306409
0.0302027
0.0296503
0.0290884
0.0286007
0.028239
0.0280163
0.0279229
0.0279271
0.0280013
0.0281071
0.0282279
0.0283331
0.0284287
0.0284884
0.0285465
0.0285649
0.0286207
0.0412959
0.0412891
0.0411919
0.0410651
0.0409222
0.0407969
0.040687
0.0405792
0.0404413
0.0402295
0.0398889
0.0393596
0.0385858
0.0375285
0.0361747
0.0345404
0.0326675
0.0306167
0.0284597
0.0262718
0.0241262
0.0220894
0.0202188
0.0185612
0.0171528
0.0160196
0.0151784
0.0146377
0.0143985
0.0144549
0.0147947
0.0153995
0.0162447
0.0172995
0.0185262
0.0198802
0.0213089
0.0227524
0.0241446
0.0254167
0.0265038
0.027354
0.0279394
0.0282641
0.0283663
0.0283121
0.0281775
0.0280329
0.0279237
0.0278749
0.0278832
0.0279422
0.0280276
0.0281313
0.0282265
0.0283179
0.0283788
0.0284363
0.0284568
0.0285026
0.0415734
0.0415283
0.0414116
0.0412521
0.0410894
0.0409327
0.0407817
0.0406004
0.0403447
0.039947
0.039337
0.0384444
0.0372216
0.0356505
0.0337503
0.0315697
0.0291809
0.026667
0.0241142
0.0216035
0.019206
0.0169796
0.0149697
0.0132092
0.0117207
0.0105178
0.00960732
0.00898995
0.00866176
0.00861456
0.00883667
0.00931323
0.0100267
0.0109573
0.0120828
0.0133789
0.0148186
0.0163703
0.017997
0.0196536
0.021286
0.0228324
0.0242276
0.025412
0.0263436
0.0270102
0.0274346
0.0276709
0.0277853
0.0278426
0.0278831
0.0279343
0.0279945
0.0280694
0.0281403
0.0282136
0.0282645
0.0283136
0.0283321
0.0283669
0.0419256
0.041834
0.0417014
0.0415062
0.0413169
0.0411079
0.0408787
0.040564
0.0401054
0.0394115
0.0384071
0.037028
0.0352537
0.0331011
0.0306286
0.0279185
0.0250686
0.0221766
0.0193326
0.0166119
0.0140736
0.0117602
0.00970092
0.00791335
0.00640718
0.0051857
0.00424798
0.00358948
0.00320318
0.00307962
0.00320767
0.00357466
0.00416715
0.00497137
0.00597421
0.00716357
0.0085289
0.0100604
0.0117475
0.0135754
0.0155199
0.0175412
0.0195791
0.0215506
0.0233565
0.024898
0.026102
0.0269469
0.0274698
0.0277552
0.0278931
0.027965
0.028008
0.0280511
0.0280885
0.0281321
0.0281616
0.028194
0.0282048
0.0282287
0.042347
0.0422034
0.0420581
0.0418208
0.0415891
0.0412933
0.0409311
0.0404026
0.039638
0.0385308
0.0370185
0.0350619
0.0326835
0.0299426
0.0269369
0.0237758
0.0205722
0.0174246
0.0144143
0.0116002
0.00902324
0.00670723
0.00466544
0.00290245
0.00141836
0.000209566
-0.000729214
-0.00140515
-0.00182634
-0.00200232
-0.00194329
-0.00166033
-0.00116447
-0.000466333
0.000425168
0.00150354
0.00276603
0.00421399
0.00585278
0.00768962
0.00972932
0.0119664
0.0143745
0.0168939
0.0194224
0.0218177
0.023918
0.0255857
0.0267557
0.027465
0.0278247
0.0279788
0.0280296
0.0280488
0.0280512
0.0280603
0.0280617
0.0280724
0.0280719
0.0280871
0.0428143
0.0426166
0.042461
0.0421715
0.0418732
0.0414448
0.0408807
0.0400463
0.0388698
0.0372456
0.0351446
0.032569
0.0295923
0.026315
0.0228668
0.0193705
0.0159389
0.0126568
0.00958669
0.00676533
0.00421386
0.00193957
-5.64921e-05
-0.00177843
-0.00323149
-0.00442252
-0.00535819
-0.00604612
-0.00649391
-0.00671017
-0.00670373
-0.0064841
-0.0060605
-0.00544172
-0.00463476
-0.00364417
-0.00247032
-0.00110865
0.000451677
0.00222733
0.00423933
0.00650778
0.00904256
0.0118282
0.0148048
0.0178504
0.0207775
0.023359
0.0253914
0.0267772
0.0275639
0.0279209
0.0280323
0.028047
0.0280194
0.0279935
0.0279633
0.0279499
0.0279352
0.027944
0.0432857
0.0430342
0.0428655
0.0425066
0.0421062
0.041488
0.0406439
0.0394115
0.0377323
0.0355213
0.0328001
0.0296205
0.0261068
0.0223915
0.0186215
0.0149162
0.0113736
0.00805501
0.00499933
0.00222164
-0.000273207
-0.00248996
-0.00443473
-0.00611609
-0.0075411
-0.00871738
-0.0096512
-0.0103495
-0.0108188
-0.0110664
-0.0110997
-0.0109268
-0.0105553
-0.00999297
-0.00924562
-0.00831732
-0.00720842
-0.00591482
-0.00442605
-0.00272465
-0.000785498
0.00142232
0.00393065
0.00676134
0.00990736
0.0133071
0.0168166
0.0202011
0.0231651
0.0254446
0.02692
0.0276849
0.0279635
0.0280149
0.027971
0.0279148
0.0278534
0.0278163
0.0277865
0.0277909
0.0437033
0.0434004
0.0432114
0.0427611
0.0422169
0.0413477
0.040148
0.0384402
0.0361978
0.033374
0.0300514
0.0263314
0.0223795
0.018345
0.0143745
0.0105688
0.00700161
0.00370735
0.00070292
-0.00201405
-0.00444939
-0.00661477
-0.00851908
-0.0101722
-0.0115808
-0.0127519
-0.0136905
-0.0144025
-0.0148928
-0.0151678
-0.0152333
-0.0150961
-0.0147623
-0.0142386
-0.01353
-0.0126403
-0.0115705
-0.0103183
-0.00887594
-0.00722946
-0.00535684
-0.00322758
-0.000803576
0.0019559
0.00508182
0.00857381
0.0123645
0.0162852
0.0200459
0.0232819
0.0256731
0.0271127
0.0277528
0.0279222
0.0278908
0.0278134
0.0277231
0.0276638
0.0276188
0.0276194
0.0439907
0.0436388
0.0434158
0.0428472
0.0421139
0.0409364
0.0393192
0.0370869
0.0342619
0.030847
0.0269873
0.0228251
0.0185525
0.0143172
0.0102506
0.00642533
0.0028883
-0.00035113
-0.00329252
-0.00594997
-0.00833449
-0.0104606
-0.012337
-0.0139733
-0.0153744
-0.0165465
-0.0174932
-0.0182195
-0.0187291
-0.0190272
-0.0191187
-0.0190091
-0.0187036
-0.0182075
-0.0175251
-0.0166599
-0.0156132
-0.0143841
-0.0129675
-0.011354
-0.00952725
-0.00746268
-0.00512611
-0.00247381
0.000541822
0.00396061
0.00778421
0.0119378
0.0162149
0.0202646
0.0236436
0.0260007
0.0272692
0.0277219
0.0277562
0.0276767
0.0275612
0.0274806
0.0274209
0.027416
0.0440693
0.0436714
0.0433981
0.0426852
0.0417226
0.0401925
0.0381204
0.03535
0.0319644
0.0280201
0.0237178
0.0192264
0.0147475
0.0104115
0.00632506
0.00252947
-0.00095212
-0.00412994
-0.00701364
-0.00962366
-0.0119721
-0.0140736
-0.0159353
-0.0175654
-0.0189673
-0.0201461
-0.0211041
-0.0218456
-0.0223734
-0.0226921
-0.0228052
-0.0227177
-0.0224335
-0.0219574
-0.0212926
-0.0204422
-0.0194076
-0.0181886
-0.0167822
-0.0151825
-0.0133786
-0.0113533
-0.00908079
-0.00652391
-0.00363507
-0.000357978
0.00335171
0.00750012
0.0119895
0.0165699
0.0208046
0.0241806
0.0263368
0.0273312
0.0275424
0.0274933
0.0273616
0.0272578
0.0271831
0.0271689
0.0438595
0.0434177
0.0430761
0.0421968
0.0409746
0.0390679
0.036533
0.0332472
0.0293591
0.0249751
0.0203393
0.015631
0.0110452
0.00668459
0.00262809
-0.00111194
-0.0045304
-0.00765074
-0.0104871
-0.0130622
-0.0153866
-0.0174741
-0.019329
-0.0209587
-0.0223649
-0.023552
-0.0245212
-0.0252766
-0.02582
-0.0261555
-0.0262862
-0.0262162
-0.0259488
-0.025488
-0.0248364
-0.0239967
-0.0229698
-0.0217561
-0.0203536
-0.0187586
-0.0169643
-0.0149592
-0.0127264
-0.010238
-0.00745605
-0.00432507
-0.000785079
0.00322056
0.00768568
0.0124911
0.0173051
0.0216005
0.0247938
0.0265957
0.0272158
0.0272404
0.0271191
0.0269867
0.026895
0.0268661
0.0433025
0.0428199
0.0423952
0.041336
0.0398399
0.0375567
0.0345815
0.0308345
0.0265274
0.0218076
0.0169472
0.0121202
0.00750435
0.00317
-0.000829864
-0.00450631
-0.00786561
-0.0109388
-0.0137402
-0.0162926
-0.0186034
-0.020685
-0.0225395
-0.0241732
-0.0255863
-0.0267829
-0.0277635
-0.0285316
-0.0290887
-0.0294386
-0.0295834
-0.0295273
-0.0292727
-0.0288233
-0.0281811
-0.0273485
-0.0263264
-0.025115
-0.023713
-0.022118
-0.0203257
-0.0183286
-0.0161166
-0.0136707
-0.0109647
-0.00795306
-0.00457935
-0.000766258
0.0035368
0.0083248
0.0134088
0.0183718
0.0225574
0.0253634
0.0266728
0.0269051
0.026814
0.0266638
0.0265459
0.0264973
0.0423586
0.0418391
0.0413208
0.0400787
0.0383115
0.0356747
0.0323065
0.0281736
0.0235432
0.0185917
0.0136041
0.00873762
0.00414651
-0.00013056
-0.00406158
-0.00767473
-0.0109818
-0.0140172
-0.0167929
-0.0193302
-0.0216333
-0.0237131
-0.0255695
-0.0272083
-0.0286285
-0.0298339
-0.0308243
-0.0316032
-0.0321715
-0.0325326
-0.0326885
-0.0326429
-0.0323979
-0.031957
-0.0313219
-0.0304948
-0.0294765
-0.0282674
-0.0268664
-0.0252716
-0.0234802
-0.0214869
-0.0192861
-0.0168653
-0.0142092
-0.0112838
-0.00804631
-0.00441939
-0.000330467
0.00429231
0.00939063
0.0147136
0.0196798
0.0235374
0.0257466
0.0264698
0.0264144
0.0262828
0.0261238
0.0260511
0.0410245
0.040474
0.039858
0.0384418
0.0364227
0.0334748
0.0297792
0.0253479
0.0204922
0.0154047
0.0103708
0.0055234
0.000992106
-0.00321221
-0.00707254
-0.0106281
-0.0138918
-0.0168984
-0.0196562
-0.0221844
-0.0244843
-0.0265654
-0.0284259
-0.0300709
-0.0314987
-0.0327129
-0.0337126
-0.0345011
-0.0350787
-0.0354491
-0.0356135
-0.0355755
-0.0353372
-0.0349017
-0.0342709
-0.033447
-0.0324308
-0.0312228
-0.0298227
-0.0282284
-0.0264383
-0.024448
-0.0222548
-0.0198496
-0.0172258
-0.0143591
-0.0112229
-0.00775046
-0.00387218
0.000522997
0.00546684
0.0108756
0.0163324
0.0210966
0.0243375
0.0258066
0.0259266
0.0258041
0.0256261
0.0255098
0.039322
0.0387483
0.0380368
0.0364645
0.0342253
0.0310208
0.0270712
0.0224293
0.0174374
0.0122936
0.00727452
0.00248602
-0.00196524
-0.00609055
-0.00988239
-0.0133861
-0.0166129
-0.0195961
-0.0223399
-0.0248618
-0.0271599
-0.029243
-0.0311076
-0.0327587
-0.0341935
-0.0354154
-0.036423
-0.0372195
-0.0378047
-0.0381821
-0.0383526
-0.0383198
-0.0380856
-0.0376533
-0.0370246
-0.0362022
-0.035187
-0.0339799
-0.0325809
-0.0309882
-0.0292012
-0.0272155
-0.0250304
-0.0226381
-0.0200379
-0.0172117
-0.0141483
-0.0107938
-0.00709593
-0.00293294
0.00177237
0.0070715
0.012726
0.0181415
0.0224036
0.0247458
0.0253618
0.0251801
0.0250474
0.0248524
0.0373059
0.0367188
0.0359194
0.0342166
0.0317975
0.0283976
0.0242693
0.019499
0.0144482
0.00931191
0.00435149
-0.000353236
-0.004715
-0.00876149
-0.01249
-0.0159484
-0.0191444
-0.022109
-0.0248425
-0.0273604
-0.0296586
-0.0317449
-0.0336146
-0.0352722
-0.0367143
-0.037944
-0.0389592
-0.0397629
-0.0403545
-0.0407373
-0.0409121
-0.0408824
-0.0406501
-0.0402185
-0.0395897
-0.0387664
-0.0377504
-0.0365426
-0.0351439
-0.0335528
-0.0317697
-0.0297898
-0.0276143
-0.025235
-0.0226555
-0.0198603
-0.0168507
-0.0135838
-0.0100298
-0.00607379
-0.00162797
0.00344685
0.00906329
0.014851
0.0199433
0.0232402
0.024605
0.0244226
0.0243439
0.024068
0.0350467
0.0344571
0.033581
0.0317766
0.0292204
0.025685
0.0214461
0.0166169
0.011567
0.00648294
0.00160846
-0.00299986
-0.00727
-0.0112407
-0.014911
-0.0183285
-0.021497
-0.0244451
-0.0271692
-0.0296835
-0.0319817
-0.0340709
-0.0359453
-0.0376091
-0.0390579
-0.0402946
-0.0413165
-0.0421263
-0.042723
-0.0431098
-0.0432872
-0.0432588
-0.0430265
-0.0425937
-0.0419631
-0.0411373
-0.040119
-0.0389092
-0.0375103
-0.0359204
-0.0341418
-0.0321687
-0.0300047
-0.0276398
-0.0250816
-0.0223139
-0.0193479
-0.0161476
-0.0127059
-0.00892138
-0.00471954
8.15372e-05
0.00550606
0.0114046
0.0170506
0.0213044
0.0234764
0.0235781
0.0234508
0.0231536
0.032632
0.032052
0.0311125
0.0292367
0.0265857
0.0229701
0.0186802
0.0138487
0.00884523
0.00384445
-0.000928121
-0.00543507
-0.00961581
-0.0135158
-0.0171334
-0.0205149
-0.0236597
-0.0265937
-0.0293105
-0.0318225
-0.0341218
-0.036215
-0.038095
-0.0397655
-0.0412215
-0.0424654
-0.0434939
-0.0443094
-0.0449106
-0.0453004
-0.0454793
-0.0454508
-0.0452169
-0.0447812
-0.0441468
-0.0433166
-0.0422942
-0.0410809
-0.0396803
-0.0380905
-0.0363158
-0.0343495
-0.0321979
-0.0298487
-0.0273133
-0.0245729
-0.0216466
-0.0185005
-0.0151486
-0.0115021
-0.00751418
-0.00299065
0.00215921
0.00795697
0.0138926
0.0189496
0.0219189
0.0226191
0.0223455
0.0220932
0.0301497
0.029591
0.0286017
0.0266824
0.0239734
0.0203238
0.0160287
0.0112356
0.00630698
0.0014057
-0.00326012
-0.00766767
-0.0117645
-0.0155994
-0.0191693
-0.0225177
-0.0256406
-0.0285612
-0.0312706
-0.0337801
-0.0360803
-0.0381769
-0.0400621
-0.041739
-0.0432017
-0.0444522
-0.0454866
-0.046307
-0.0469118
-0.0473035
-0.0474828
-0.0474529
-0.0472162
-0.0467762
-0.0461368
-0.0453008
-0.0442731
-0.0430548
-0.0416514
-0.0400605
-0.038289
-0.0363291
-0.03419
-0.0318573
-0.0293462
-0.0266341
-0.0237472
-0.0206496
-0.0173735
-0.0138389
-0.0100331
-0.00576525
-0.000923775
0.00463264
0.0106332
0.0162246
0.019986
0.0214117
0.0210607
0.0208495
0.0276894
0.0271635
0.0261381
0.0241999
0.0214644
0.0178182
0.013553
0.00882705
0.00399126
-0.000802601
-0.00536217
-0.00967512
-0.0136948
-0.0174709
-0.0209982
-0.0243173
-0.027421
-0.0303303
-0.0330342
-0.0355425
-0.0378449
-0.0399461
-0.0418375
-0.0435215
-0.0449916
-0.0462491
-0.0472897
-0.048115
-0.0487231
-0.0491163
-0.0492953
-0.0492631
-0.0490226
-0.0485772
-0.0479316
-0.0470884
-0.046054
-0.0448291
-0.0434214
-0.0418279
-0.0400583
-0.0381034
-0.0359765
-0.0336599
-0.031174
-0.028491
-0.0256446
-0.0225937
-0.0193863
-0.0159458
-0.0122951
-0.00825195
-0.00372132
0.00152081
0.00740071
0.0132484
0.0177458
0.0198513
0.0196596
0.0194012
0.0253284
0.0248458
0.0237963
0.0218591
0.0191207
0.0155041
0.0112909
0.00664704
0.00190943
-0.00277909
-0.0072399
-0.0114672
-0.0154184
-0.0191421
-0.0226315
-0.025924
-0.0290101
-0.0319085
-0.0346069
-0.0371138
-0.039418
-0.0415233
-0.0434206
-0.0451112
-0.0465881
-0.0478521
-0.0488983
-0.0497278
-0.0503387
-0.0507327
-0.0509108
-0.0508756
-0.0506306
-0.0501789
-0.0495261
-0.0486747
-0.0476325
-0.0463997
-0.0449867
-0.0433889
-0.04162
-0.0396684
-0.0375526
-0.035251
-0.0327904
-0.0301367
-0.027332
-0.0243275
-0.0211861
-0.017829
-0.0143128
-0.0104644
-0.0062285
-0.00132644
0.00429195
0.0101703
0.015249
0.0179387
0.0181612
0.0177469
0.0231369
0.0227075
0.0216454
0.0197254
0.0170018
0.0134336
0.00928627
0.00473233
9.29219e-05
-0.00449556
-0.00886631
-0.0130169
-0.0169079
-0.0205858
-0.0240423
-0.027312
-0.0303833
-0.0332732
-0.0359681
-0.0384754
-0.040783
-0.0428939
-0.0447981
-0.0464964
-0.0479811
-0.0492522
-0.0503046
-0.0511387
-0.0517525
-0.0521474
-0.0523244
-0.0522859
-0.0520359
-0.0515772
-0.0509166
-0.0500559
-0.0490051
-0.047763
-0.0463432
-0.0447394
-0.0429695
-0.0410193
-0.0389129
-0.0366243
-0.0341881
-0.0315628
-0.0288005
-0.0258424
-0.0227662
-0.0194865
-0.0160907
-0.0124123
-0.00844652
-0.00388356
0.00138126
0.00712083
0.0125472
0.0157278
0.0164964
0.0158772
0.0211671
0.0207995
0.0197347
0.0178435
0.0151457
0.0116359
0.00755879
0.00309315
-0.00145626
-0.00595645
-0.0102504
-0.0143364
-0.018177
-0.0218162
-0.0252448
-0.0284944
-0.0315528
-0.0344348
-0.0371265
-0.039634
-0.0419447
-0.0440607
-0.0459715
-0.047677
-0.049169
-0.0504467
-0.0515049
-0.0523432
-0.0529596
-0.053355
-0.0535306
-0.0534884
-0.0532331
-0.0527668
-0.0520979
-0.0512271
-0.0501667
-0.0489141
-0.0474863
-0.0458747
-0.0441023
-0.042151
-0.0400521
-0.037774
-0.0353603
-0.0327614
-0.0300407
-0.0271283
-0.0241172
-0.0209112
-0.0176268
-0.014099
-0.0103772
-0.00613836
-0.00127445
0.00420023
0.0097215
0.0132866
0.0145794
0.013793
0.0194615
0.0191638
0.0181066
0.0162541
0.0135897
0.0101442
0.00613825
0.00175684
-0.00271145
-0.00713459
-0.0113636
-0.0153954
-0.0191944
-0.0228014
-0.0262072
-0.0294407
-0.0324894
-0.0353662
-0.0380571
-0.0405668
-0.0428827
-0.0450054
-0.0469243
-0.0486383
-0.0501388
-0.0514243
-0.0524892
-0.0533325
-0.0539523
-0.0543486
-0.0545234
-0.0544775
-0.0542171
-0.0537429
-0.0530655
-0.0521837
-0.0511131
-0.0498486
-0.0484116
-0.0467901
-0.0450132
-0.0430581
-0.0409643
-0.0386933
-0.0362994
-0.0337238
-0.0310429
-0.0281739
-0.025227
-0.0220917
-0.0189126
-0.0155203
-0.0120187
-0.00808162
-0.00363221
0.00148851
0.00688498
0.0107004
0.0124044
0.0115414
0.0180441
0.0178227
0.0167826
0.014976
0.0123485
0.00896801
0.00502859
0.000722031
-0.00367898
-0.00804042
-0.0122197
-0.0162102
-0.0199779
-0.0235602
-0.0269483
-0.0301689
-0.0332098
-0.0360825
-0.038773
-0.0412849
-0.0436056
-0.0457347
-0.0476613
-0.0493833
-0.050892
-0.0521849
-0.0532565
-0.0541046
-0.0547278
-0.055125
-0.0552989
-0.0552493
-0.0549837
-0.0545012
-0.0538149
-0.0529214
-0.0518399
-0.0505621
-0.0491146
-0.047481
-0.0456976
-0.0437355
-0.0416438
-0.039376
-0.0369985
-0.0344417
-0.0317973
-0.0289679
-0.026083
-0.0230145
-0.0199358
-0.0166664
-0.0133642
-0.00970229
-0.00565827
-0.000943847
0.00416602
0.00808227
0.0100663
0.00921952
0.016931
0.0167916
0.0157796
0.0140267
0.0114397
0.00812489
0.00424829
8.90664e-06
-0.00433565
-0.00864749
-0.0127887
-0.0167481
-0.0204927
-0.0240569
-0.0274324
-0.0306441
-0.0336806
-0.0365521
-0.0392449
-0.0417616
-0.0440893
-0.0462269
-0.0481632
-0.049895
-0.0514137
-0.0527156
-0.0537953
-0.0546497
-0.0552776
-0.0556767
-0.0558508
-0.0557981
-0.0555279
-0.0550373
-0.0543423
-0.0534364
-0.0523433
-0.0510507
-0.0495913
-0.0479431
-0.0461508
-0.0441782
-0.0420852
-0.0398158
-0.0374504
-0.0349068
-0.0322943
-0.0294988
-0.0266717
-0.0236645
-0.0206809
-0.0175226
-0.0144017
-0.0109862
-0.0073246
-0.00303442
0.00168581
0.00556326
0.00771372
0.00694805
0.0161208
0.0160666
0.0150935
0.0134016
0.0108573
0.00760684
0.0037871
-0.000394971
-0.0046965
-0.00897341
-0.013091
-0.0170318
-0.0207633
-0.0243165
-0.0276845
-0.0308907
-0.0339248
-0.0367961
-0.0394918
-0.0420132
-0.044348
-0.0464937
-0.0484395
-0.050181
-0.0517097
-0.0530205
-0.0541086
-0.0549694
-0.0556024
-0.0560036
-0.0561784
-0.0561227
-0.0558482
-0.0553492
-0.0546452
-0.0537262
-0.0526208
-0.0513116
-0.0498386
-0.0481732
-0.0463692
-0.044382
-0.0422837
-0.0400072
-0.0376488
-0.0351116
-0.0325248
-0.0297557
-0.0269805
-0.0240267
-0.0211315
-0.018072
-0.0151153
-0.0119165
-0.00860644
-0.0047306
-0.000454706
0.00327199
0.0054951
0.00484303
0.0156079
0.0156401
0.0147187
0.013098
0.0106021
0.00741824
0.00365415
-0.000475265
-0.00474115
-0.00899216
-0.0130953
-0.0170257
-0.0207513
-0.0242994
-0.0276646
-0.0308693
-0.0339045
-0.036779
-0.0394805
-0.0420095
-0.0443541
-0.0465107
-0.0484685
-0.0502221
-0.0517632
-0.0530853
-0.0541841
-0.0550533
-0.0556935
-0.0560986
-0.0562758
-0.0562181
-0.0559406
-0.0554336
-0.0547211
-0.0537883
-0.0526701
-0.0513426
-0.0498544
-0.0481685
-0.0463498
-0.0443434
-0.0422353
-0.0399454
-0.0375878
-0.0350489
-0.0324805
-0.0297284
-0.026997
-0.0240865
-0.0212708
-0.0182963
-0.0154872
-0.0124752
-0.00948176
-0.00599106
-0.00217845
0.00131898
0.00353398
0.00300295
0.0153702
0.0154857
0.0146284
0.0130896
0.0106488
0.00753442
0.00382504
-0.000256136
-0.00449448
-0.00872991
-0.0128298
-0.0167603
-0.0204888
-0.0240384
-0.0274056
-0.0306116
-0.03365
-0.0365285
-0.0392364
-0.0417734
-0.044128
-0.0462956
-0.0482658
-0.0500318
-0.0515858
-0.0529198
-0.0540301
-0.0549082
-0.0555566
-0.0559661
-0.0561466
-0.0560874
-0.0558074
-0.055292
-0.0545711
-0.0536234
-0.0524915
-0.0511436
-0.0496381
-0.0479281
-0.0460914
-0.0440604
-0.0419374
-0.0396269
-0.037263
-0.0347131
-0.0321544
-0.0294079
-0.0267103
-0.0238303
-0.0210832
-0.018178
-0.0154991
-0.0126438
-0.00993095
-0.00678454
-0.00342935
-0.000208452
0.00192689
0.00150886
0.0153849
0.0155768
0.0147982
0.0133563
0.0109842
0.00794868
0.00430102
0.000271789
-0.00393823
-0.00816038
-0.0122609
-0.0161965
-0.0199326
-0.0234885
-0.0268618
-0.0300733
-0.0331183
-0.0360045
-0.0387223
-0.0412707
-0.0436388
-0.0458208
-0.0478069
-0.0495887
-0.0511591
-0.052508
-0.0536331
-0.0545232
-0.0551827
-0.0555991
-0.0557854
-0.0557263
-0.0554456
-0.0549227
-0.0541942
-0.0532311
-0.052085
-0.0507147
-0.0491899
-0.0474521
-0.0455935
-0.0435321
-0.0413886
-0.0390492
-0.0366713
-0.0340998
-0.0315406
-0.0287867
-0.0261109
-0.0232464
-0.0205547
-0.0177006
-0.0151339
-0.0124051
-0.00993714
-0.00708794
-0.00416785
-0.0012441
0.000749915
0.000429058
0.0156123
0.0158679
0.0151815
0.0138514
0.0115645
0.00861949
0.00504251
0.00107105
-0.00310905
-0.00732002
-0.0114263
-0.0153733
-0.0191235
-0.0226908
-0.0260744
-0.0292939
-0.0323473
-0.0352421
-0.0379708
-0.0405312
-0.0429137
-0.045111
-0.0471142
-0.0489129
-0.0505012
-0.0518664
-0.0530081
-0.0539114
-0.0545839
-0.0550081
-0.0552017
-0.0551434
-0.0548629
-0.0543323
-0.0535963
-0.0526165
-0.0514552
-0.0500598
-0.0485132
-0.0467431
-0.0448584
-0.0427601
-0.0405895
-0.0382123
-0.0358116
-0.0332064
-0.0306354
-0.0278593
-0.0251918
-0.0223251
-0.0196737
-0.0168501
-0.0143767
-0.0117437
-0.00948626
-0.00688434
-0.00436657
-0.00173836
6.53217e-05
-0.000176288
0.0160175
0.0163204
0.0157413
0.0145414
0.0123657
0.00953149
0.00604471
0.0021472
-0.00198978
-0.00618122
-0.0102887
-0.0142463
-0.0180118
-0.0215934
-0.0249905
-0.0282218
-0.0312876
-0.0341954
-0.0369391
-0.0395161
-0.0419176
-0.0441349
-0.0461601
-0.0479804
-0.0495915
-0.0509774
-0.0521401
-0.0530606
-0.0537502
-0.0541856
-0.0543901
-0.0543348
-0.0540572
-0.05352
-0.0527778
-0.051781
-0.0506044
-0.0491815
-0.047611
-0.0458042
-0.043889
-0.0417467
-0.0395424
-0.0371174
-0.0346843
-0.0320324
-0.0294372
-0.0266222
-0.023948
-0.0210596
-0.0184314
-0.0156156
-0.0132157
-0.0106471
-0.0085677
-0.00616196
-0.00400757
-0.0016546
-7.47556e-05
-0.000252927
0.0165491
0.0168779
0.0164169
0.0153627
0.0133268
0.0106261
0.00725155
0.00344717
-0.000631502
-0.00479315
-0.00889708
-0.0128645
-0.0166472
-0.0202459
-0.0236593
-0.0269048
-0.0299849
-0.032907
-0.0356674
-0.0382624
-0.0406851
-0.0429244
-0.0449743
-0.0468185
-0.0484554
-0.0498645
-0.0510516
-0.0519916
-0.0527011
-0.0531495
-0.0533672
-0.0533159
-0.0530427
-0.0524988
-0.0517508
-0.0507355
-0.0495423
-0.0480888
-0.0464917
-0.0446427
-0.0426922
-0.040498
-0.0382525
-0.0357687
-0.0332928
-0.0305798
-0.0279467
-0.0250748
-0.0223774
-0.0194456
-0.0168224
-0.0139895
-0.0116427
-0.00910647
-0.00717477
-0.00491375
-0.00308096
-0.000966961
0.00037259
0.000247409
0.0171711
0.0175064
0.0171709
0.0162791
0.0144193
0.0118839
0.00865554
0.00497491
0.000983406
-0.00312554
-0.00720889
-0.0111761
-0.0149711
-0.0185863
-0.0220182
-0.0252817
-0.028381
-0.0313229
-0.0341061
-0.0367254
-0.0391758
-0.0414436
-0.043525
-0.0453996
-0.0470691
-0.0485074
-0.0497251
-0.0506899
-0.0514251
-0.0518908
-0.0521264
-0.0520824
-0.0518171
-0.0512682
-0.0505165
-0.0494825
-0.0482731
-0.0467866
-0.0451609
-0.0432649
-0.0412745
-0.0390205
-0.0367261
-0.034172
-0.0316424
-0.0288528
-0.0261675
-0.0232191
-0.020481
-0.0174826
-0.0148449
-0.0119683
-0.00965414
-0.00711737
-0.00530563
-0.00313784
-0.00158474
0.000340089
0.00143971
0.00136499
0.0178309
0.0181547
0.0179397
0.0172196
0.0155679
0.0132299
0.0101824
0.00665872
0.00278554
-0.00124414
-0.00528761
-0.00924208
-0.0130433
-0.016673
-0.020124
-0.0234071
-0.0265282
-0.0294927
-0.032302
-0.0349489
-0.0374312
-0.0397315
-0.0418493
-0.0437587
-0.0454661
-0.0469379
-0.0481913
-0.0491845
-0.0499498
-0.0504357
-0.0506928
-0.0506575
-0.0504026
-0.0498488
-0.0490943
-0.04804
-0.0468137
-0.0452905
-0.0436333
-0.0416842
-0.0396486
-0.0373256
-0.0349741
-0.0323371
-0.0297421
-0.0268591
-0.0241064
-0.0210605
-0.0182634
-0.0151735
-0.0125014
-0.00955305
-0.00725134
-0.00468048
-0.00296401
-0.000838068
0.000474689
0.00227143
0.00314593
0.0031291
0.0185084
0.0188114
0.0187034
0.0181624
0.0167503
0.0146487
0.0118276
0.00850519
0.00479591
0.00088583
-0.00308379
-0.00700161
-0.010794
-0.0144316
-0.0179011
-0.0212077
-0.024357
-0.027352
-0.0301963
-0.0328799
-0.035404
-0.0377461
-0.0399101
-0.0418633
-0.043618
-0.0451312
-0.046429
-0.0474577
-0.0482608
-0.0487723
-0.0490572
-0.0490348
-0.0487951
-0.0482387
-0.0474847
-0.0464104
-0.0451683
-0.0436063
-0.0419164
-0.039909
-0.037824
-0.0354234
-0.0330072
-0.0302745
-0.0276024
-0.0246087
-0.0217729
-0.0186075
-0.0157326
-0.0125253
-0.00979867
-0.0067496
-0.00444118
-0.00180223
-0.000159988
0.00197524
0.00308204
0.00482084
0.00549496
0.00555486
0.0191571
0.0194332
0.0194056
0.0190382
0.0178808
0.0160492
0.0134958
0.0104199
0.0069213
0.00317629
-0.000680869
-0.00453185
-0.00829583
-0.0119298
-0.0154138
-0.0187441
-0.0219253
-0.0249556
-0.0278417
-0.0305687
-0.0331425
-0.0355336
-0.0377525
-0.0397565
-0.0415668
-0.0431282
-0.0444781
-0.0455477
-0.0463951
-0.0469364
-0.0472544
-0.0472473
-0.0470264
-0.0464681
-0.0457164
-0.0446207
-0.0433626
-0.041758
-0.040033
-0.0379607
-0.035821
-0.0333328
-0.0308433
-0.0280007
-0.0252394
-0.0221162
-0.0191814
-0.0158732
-0.0129016
-0.0095498
-0.00674903
-0.00356942
-0.00123666
0.00150468
0.00308947
0.00528493
0.00621294
0.00797109
0.00847357
0.00864167
0.019785
0.0200354
0.020063
0.0198569
0.0189618
0.0174331
0.0151953
0.0124199
0.00919199
0.00567019
0.00197953
-0.00176195
-0.00546685
-0.00908007
-0.012572
-0.015928
-0.019149
-0.0222259
-0.0251673
-0.0279515
-0.0305898
-0.0330435
-0.0353315
-0.0373987
-0.0392779
-0.0408982
-0.0423119
-0.0434312
-0.0443331
-0.0449111
-0.0452706
-0.0452838
-0.0450884
-0.0445312
-0.0437865
-0.0426701
-0.0413988
-0.0397499
-0.0379897
-0.0358476
-0.0336503
-0.0310657
-0.0284961
-0.0255303
-0.0226687
-0.0193977
-0.0163485
-0.0128743
-0.00978768
-0.00626403
-0.00337048
-3.01651e-05
0.0023424
0.00522068
0.00676005
0.00906677
0.00983417
0.0116944
0.0120508
0.0123724
0.0203446
0.0205663
0.020624
0.0205482
0.0199011
0.0186914
0.0168051
0.0143821
0.0114839
0.00824989
0.00478636
0.00120799
-0.00239797
-0.00596304
-0.00944945
-0.0128264
-0.0160913
-0.0192221
-0.0222309
-0.0250839
-0.0278009
-0.0303295
-0.0327007
-0.0348424
-0.0368036
-0.0384923
-0.0399811
-0.0411579
-0.0421237
-0.042744
-0.0431525
-0.0431894
-0.0430249
-0.0424699
-0.0417357
-0.0405975
-0.0393141
-0.0376169
-0.0358205
-0.0336016
-0.0313424
-0.0286507
-0.0259933
-0.0228895
-0.0199159
-0.0164775
-0.0132987
-0.00963427
-0.00641507
-0.0026917
0.000311767
0.00384334
0.00626863
0.00931902
0.0108202
0.0132903
0.0139056
0.0159564
0.0161831
0.016718
0.0208815
0.0210766
0.0211522
0.0211728
0.0207527
0.0198654
0.0183657
0.0163489
0.0138491
0.0109753
0.00781214
0.00446034
0.00100406
-0.00247942
-0.00594268
-0.00933703
-0.0126531
-0.0158517
-0.0189468
-0.0218885
-0.0247062
-0.0273293
-0.0298046
-0.0320379
-0.0340993
-0.0358706
-0.0374503
-0.0386957
-0.0397386
-0.0404097
-0.040878
-0.0409445
-0.0408199
-0.0402707
-0.0395539
-0.0383952
-0.0371045
-0.0353578
-0.0335273
-0.0312274
-0.0289057
-0.0260988
-0.0233494