/*--------------------------------*- C++ -*----------------------------------*\
| =========                 |                                                 |
| \\      /  F ield         | OpenFOAM: The Open Source CFD Toolbox           |
|  \\    /   O peration     | Version:  2406                                  |
|   \\  /    A nd           | Website:  www.openfoam.com                      |
|    \\/     M anipulation  |                                                 |
\*---------------------------------------------------------------------------*/
FoamFile
{
    version     2.0;
    format      ascii;
    arch        "LSB;label=32;scalar=64";
    class       volVectorField;
    location    "8.65";
    object      U;
}
// * * * * * * * * * * * * * * * * * * * * * * * * * * * * * * * * * * * * * //

dimensions      [0 1 -1 0 0 0 0];

internalField   nonuniform List<vector> 
14400
(
(4.33929e-06 -4.28006e-06 0)
(8.88704e-06 -1.72675e-06 0)
(1.81068e-06 2.8611e-06 0)
(-1.94355e-05 7.93233e-06 0)
(-5.4145e-05 1.17489e-05 0)
(-9.90624e-05 1.48115e-05 0)
(-0.000152578 1.68532e-05 0)
(-0.00021172 1.83422e-05 0)
(-0.000275392 1.92451e-05 0)
(-0.00034167 1.98419e-05 0)
(-0.000409958 2.01393e-05 0)
(-0.000479168 2.02931e-05 0)
(-0.000549042 2.0313e-05 0)
(-0.000619032 2.02821e-05 0)
(-0.000689074 2.02051e-05 0)
(-0.00075893 2.01235e-05 0)
(-0.000828627 2.00371e-05 0)
(-0.000898089 1.99647e-05 0)
(-0.000967374 1.99031e-05 0)
(-0.00103647 1.98591e-05 0)
(-0.00110545 1.98284e-05 0)
(-0.00117431 1.98121e-05 0)
(-0.00124311 1.98057e-05 0)
(-0.00131185 1.98077e-05 0)
(-0.00138054 1.98141e-05 0)
(-0.00144921 1.98224e-05 0)
(-0.00151783 1.9829e-05 0)
(-0.00158639 1.9831e-05 0)
(-0.00165487 1.98252e-05 0)
(-0.00172324 1.98086e-05 0)
(-0.00179144 1.9778e-05 0)
(-0.00185942 1.97306e-05 0)
(-0.00192712 1.9663e-05 0)
(-0.00199446 1.95722e-05 0)
(-0.00206135 1.9455e-05 0)
(-0.0021277 1.93082e-05 0)
(-0.0021934 1.91284e-05 0)
(-0.00225833 1.89124e-05 0)
(-0.00232237 1.86567e-05 0)
(-0.00238536 1.83581e-05 0)
(-0.00244717 1.80131e-05 0)
(-0.00250763 1.76187e-05 0)
(-0.00256658 1.71714e-05 0)
(-0.00262381 1.66684e-05 0)
(-0.00267916 1.61068e-05 0)
(-0.00273242 1.54839e-05 0)
(-0.00278338 1.47973e-05 0)
(-0.00283183 1.40449e-05 0)
(-0.00287755 1.32252e-05 0)
(-0.00292032 1.23368e-05 0)
(-0.00295991 1.1379e-05 0)
(-0.0029961 1.03515e-05 0)
(-0.00302865 9.25468e-06 0)
(-0.00305736 8.08949e-06 0)
(-0.00308199 6.85757e-06 0)
(-0.00310234 5.56125e-06 0)
(-0.00311821 4.20361e-06 0)
(-0.00312941 2.78847e-06 0)
(-0.00313577 1.32042e-06 0)
(-0.00313711 -1.95197e-07 0)
(-0.00313332 -1.75228e-06 0)
(-0.00312426 -3.344e-06 0)
(-0.00310984 -4.96283e-06 0)
(-0.00309 -6.60061e-06 0)
(-0.00306469 -8.24859e-06 0)
(-0.0030339 -9.89752e-06 0)
(-0.00299766 -1.15377e-05 0)
(-0.002956 -1.31592e-05 0)
(-0.00290902 -1.47519e-05 0)
(-0.00285682 -1.63053e-05 0)
(-0.00279956 -1.78094e-05 0)
(-0.00273742 -1.92539e-05 0)
(-0.0026706 -2.06293e-05 0)
(-0.00259935 -2.19261e-05 0)
(-0.00252394 -2.31356e-05 0)
(-0.00244468 -2.42497e-05 0)
(-0.00236186 -2.52613e-05 0)
(-0.00227586 -2.61639e-05 0)
(-0.00218701 -2.69523e-05 0)
(-0.0020957 -2.76222e-05 0)
(-0.00200232 -2.81706e-05 0)
(-0.00190726 -2.85953e-05 0)
(-0.00181093 -2.88957e-05 0)
(-0.00171372 -2.9072e-05 0)
(-0.00161604 -2.91256e-05 0)
(-0.00151827 -2.90591e-05 0)
(-0.00142081 -2.88759e-05 0)
(-0.00132402 -2.85801e-05 0)
(-0.00122827 -2.81768e-05 0)
(-0.0011339 -2.76715e-05 0)
(-0.00104123 -2.70702e-05 0)
(-0.000950564 -2.63789e-05 0)
(-0.000862202 -2.5604e-05 0)
(-0.000776408 -2.47517e-05 0)
(-0.000693434 -2.38279e-05 0)
(-0.000613513 -2.28381e-05 0)
(-0.000536864 -2.17873e-05 0)
(-0.000463691 -2.06798e-05 0)
(-0.000394189 -1.95192e-05 0)
(-0.000328538 -1.83084e-05 0)
(-0.00026692 -1.7049e-05 0)
(-0.000209503 -1.57425e-05 0)
(-0.000156466 -1.43887e-05 0)
(-0.000107971 -1.29881e-05 0)
(-6.42053e-05 -1.15387e-05 0)
(-2.53239e-05 -1.00415e-05 0)
(8.46878e-06 -8.49311e-06 0)
(3.7039e-05 -6.89711e-06 0)
(6.01616e-05 -5.24968e-06 0)
(7.77681e-05 -3.56195e-06 0)
(8.96165e-05 -1.83081e-06 0)
(9.58037e-05 -8.59612e-08 0)
(9.60952e-05 1.67031e-06 0)
(9.09757e-05 3.35941e-06 0)
(8.03123e-05 4.94967e-06 0)
(6.54944e-05 6.2132e-06 0)
(4.6841e-05 6.98727e-06 0)
(2.78429e-05 6.6065e-06 0)
(1.01849e-05 4.73099e-06 0)
(7.34129e-07 7.51918e-07 0)
(1.89739e-06 -8.9659e-06 0)
(-8.80919e-06 8.89445e-06 0)
(-4.78481e-05 3.43714e-05 0)
(-0.000116761 6.20023e-05 0)
(-0.000215948 8.5007e-05 0)
(-0.00033937 0.000104239 0)
(-0.000484015 0.000118541 0)
(-0.000643859 0.000129373 0)
(-0.000816041 0.000136842 0)
(-0.000996317 0.000142043 0)
(-0.00118276 0.00014529 0)
(-0.00137281 0.000147283 0)
(-0.0015654 0.00014828 0)
(-0.00175915 0.000148691 0)
(-0.00195357 0.000148675 0)
(-0.002148 0.000148453 0)
(-0.00234231 0.000148103 0)
(-0.00253623 0.00014773 0)
(-0.00272976 0.000147363 0)
(-0.00292283 0.00014704 0)
(-0.00311551 0.000146762 0)
(-0.00330778 0.000146533 0)
(-0.0034997 0.000146341 0)
(-0.00369125 0.000146174 0)
(-0.00388246 0.000146014 0)
(-0.00407329 0.000145845 0)
(-0.00426371 0.000145645 0)
(-0.00445364 0.000145396 0)
(-0.004643 0.000145077 0)
(-0.00483168 0.000144668 0)
(-0.00501953 0.000144148 0)
(-0.00520639 0.000143497 0)
(-0.00539208 0.000142693 0)
(-0.00557636 0.000141716 0)
(-0.00575901 0.000140543 0)
(-0.00593974 0.000139154 0)
(-0.00611827 0.000137527 0)
(-0.00629428 0.000135639 0)
(-0.0064674 0.000133469 0)
(-0.00663727 0.000130995 0)
(-0.00680349 0.000128196 0)
(-0.00696562 0.00012505 0)
(-0.00712322 0.000121538 0)
(-0.00727581 0.000117641 0)
(-0.0074229 0.000113341 0)
(-0.00756397 0.000108623 0)
(-0.00769849 0.000103472 0)
(-0.00782591 9.7877e-05 0)
(-0.00794568 9.18294e-05 0)
(-0.00805723 8.5323e-05 0)
(-0.00816 7.83551e-05 0)
(-0.00825343 7.09267e-05 0)
(-0.00833694 6.30428e-05 0)
(-0.00841 5.47124e-05 0)
(-0.00847207 4.59489e-05 0)
(-0.00852265 3.67705e-05 0)
(-0.00856123 2.71999e-05 0)
(-0.00858738 1.72646e-05 0)
(-0.00860069 6.99717e-06 0)
(-0.00860077 -3.56528e-06 0)
(-0.00858732 -1.43809e-05 0)
(-0.00856008 -2.54033e-05 0)
(-0.00851883 -3.6582e-05 0)
(-0.00846345 -4.78626e-05 0)
(-0.00839386 -5.91874e-05 0)
(-0.00831006 -7.04956e-05 0)
(-0.00821214 -8.17243e-05 0)
(-0.00810026 -9.28088e-05 0)
(-0.00797464 -0.000103683 0)
(-0.0078356 -0.000114282 0)
(-0.00768353 -0.00012454 0)
(-0.00751892 -0.000134392 0)
(-0.00734229 -0.000143778 0)
(-0.00715427 -0.000152638 0)
(-0.00695554 -0.000160916 0)
(-0.00674685 -0.000168564 0)
(-0.006529 -0.000175534 0)
(-0.00630285 -0.000181788 0)
(-0.00606929 -0.000187292 0)
(-0.00582927 -0.000192019 0)
(-0.00558372 -0.000195949 0)
(-0.00533365 -0.000199071 0)
(-0.00508003 -0.000201377 0)
(-0.00482385 -0.00020287 0)
(-0.00456611 -0.000203558 0)
(-0.00430778 -0.000203455 0)
(-0.00404982 -0.000202581 0)
(-0.00379314 -0.00020096 0)
(-0.00353865 -0.000198624 0)
(-0.00328722 -0.000195603 0)
(-0.00303965 -0.000191934 0)
(-0.00279674 -0.000187652 0)
(-0.00255923 -0.000182794 0)
(-0.00232781 -0.000177397 0)
(-0.00210314 -0.000171494 0)
(-0.00188585 -0.000165118 0)
(-0.00167652 -0.000158297 0)
(-0.00147572 -0.000151054 0)
(-0.00128399 -0.000143409 0)
(-0.00110183 -0.000135377 0)
(-0.000929767 -0.000126966 0)
(-0.000768297 -0.000118181 0)
(-0.00061793 -0.000109023 0)
(-0.000479158 -9.94901e-05 0)
(-0.000352508 -8.95775e-05 0)
(-0.000238464 -7.92861e-05 0)
(-0.000137574 -6.86153e-05 0)
(-5.02723e-05 -5.75829e-05 0)
(2.28966e-05 -4.621e-05 0)
(8.1655e-05 -3.45604e-05 0)
(0.000125537 -2.27085e-05 0)
(0.000154662 -1.0824e-05 0)
(0.000168805 8.97987e-07 0)
(0.000168979 1.20451e-05 0)
(0.000155536 2.2144e-05 0)
(0.000131383 3.02026e-05 0)
(9.80687e-05 3.51284e-05 0)
(6.21682e-05 3.46783e-05 0)
(2.70444e-05 2.71767e-05 0)
(4.64209e-06 1.01391e-05 0)
(-2.81375e-06 -1.83971e-06 0)
(-3.54356e-05 4.84007e-05 0)
(-0.000113709 0.00011152 0)
(-0.000233207 0.000177603 0)
(-0.000395553 0.000234688 0)
(-0.000591774 0.000282961 0)
(-0.000818576 0.000320333 0)
(-0.00106776 0.000349081 0)
(-0.00133554 0.000369771 0)
(-0.00161604 0.000384502 0)
(-0.00190642 0.000394263 0)
(-0.00220301 0.000400538 0)
(-0.00250408 0.000404127 0)
(-0.00280755 0.000405955 0)
(-0.00311253 0.000406532 0)
(-0.00341798 0.000406375 0)
(-0.00372351 0.00040576 0)
(-0.00402866 0.000404941 0)
(-0.00433332 0.000404036 0)
(-0.00463731 0.000403146 0)
(-0.00494063 0.000402297 0)
(-0.00524321 0.000401508 0)
(-0.00554506 0.000400759 0)
(-0.00584614 0.000400027 0)
(-0.0061464 0.000399271 0)
(-0.00644576 0.00039845 0)
(-0.00674415 0.000397514 0)
(-0.00704141 0.000396416 0)
(-0.00733739 0.000395103 0)
(-0.00763189 0.000393525 0)
(-0.00792466 0.000391627 0)
(-0.00821544 0.000389358 0)
(-0.00850391 0.000386662 0)
(-0.00878972 0.000383485 0)
(-0.0090725 0.000379772 0)
(-0.0093518 0.000375467 0)
(-0.00962717 0.000370515 0)
(-0.0098981 0.000364859 0)
(-0.0101641 0.000358444 0)
(-0.0104245 0.000351215 0)
(-0.0106787 0.000343119 0)
(-0.0109261 0.000334103 0)
(-0.011166 0.000324119 0)
(-0.0113977 0.000313121 0)
(-0.0116204 0.000301066 0)
(-0.0118334 0.000287916 0)
(-0.0120358 0.00027364 0)
(-0.012227 0.000258212 0)
(-0.012406 0.000241612 0)
(-0.012572 0.000223831 0)
(-0.0127243 0.000204866 0)
(-0.0128619 0.000184723 0)
(-0.0129842 0.000163422 0)
(-0.0130902 0.000140989 0)
(-0.0131794 0.000117465 0)
(-0.0132508 9.28997e-05 0)
(-0.0133039 6.73567e-05 0)
(-0.0133381 4.0911e-05 0)
(-0.0133528 1.36493e-05 0)
(-0.0133474 -1.43296e-05 0)
(-0.0133216 -4.29156e-05 0)
(-0.0132751 -7.19877e-05 0)
(-0.0132075 -0.000101415 0)
(-0.0131188 -0.000131057 0)
(-0.0130088 -0.000160766 0)
(-0.0128777 -0.000190388 0)
(-0.0127256 -0.000219761 0)
(-0.0125527 -0.000248723 0)
(-0.0123595 -0.000277108 0)
(-0.0121465 -0.000304751 0)
(-0.0119142 -0.000331489 0)
(-0.0116634 -0.000357162 0)
(-0.0113949 -0.000381616 0)
(-0.0111096 -0.000404705 0)
(-0.0108085 -0.000426294 0)
(-0.0104927 -0.000446258 0)
(-0.0101635 -0.000464485 0)
(-0.00982192 -0.000480877 0)
(-0.0094694 -0.000495352 0)
(-0.00910726 -0.000507846 0)
(-0.00873688 -0.00051831 0)
(-0.00835968 -0.000526713 0)
(-0.00797707 -0.000533041 0)
(-0.00759048 -0.000537298 0)
(-0.00720132 -0.000539503 0)
(-0.00681101 -0.000539691 0)
(-0.0064209 -0.00053791 0)
(-0.00603234 -0.00053422 0)
(-0.00564662 -0.000528694 0)
(-0.005265 -0.000521407 0)
(-0.00488865 -0.000512446 0)
(-0.00451873 -0.000501897 0)
(-0.00415631 -0.000489848 0)
(-0.00380243 -0.000476383 0)
(-0.00345807 -0.000461584 0)
(-0.00312416 -0.000445524 0)
(-0.00280159 -0.000428269 0)
(-0.0024912 -0.000409873 0)
(-0.00219383 -0.000390378 0)
(-0.00191029 -0.000369815 0)
(-0.00164137 -0.0003482 0)
(-0.00138786 -0.000325542 0)
(-0.00115056 -0.000301838 0)
(-0.00093027 -0.00027708 0)
(-0.000727804 -0.00025126 0)
(-0.000543947 -0.000224379 0)
(-0.00037954 -0.000196451 0)
(-0.000235291 -0.000167524 0)
(-0.000111999 -0.00013769 0)
(-1.01363e-05 -0.000107116 0)
(6.96841e-05 -7.60682e-05 0)
(0.000127564 -4.49748e-05 0)
(0.000163351 -1.44648e-05 0)
(0.00017838 1.44931e-05 0)
(0.000173424 4.05307e-05 0)
(0.000152255 6.15755e-05 0)
(0.000117228 7.48893e-05 0)
(7.65414e-05 7.65223e-05 0)
(3.4522e-05 6.23324e-05 0)
(6.44648e-06 2.76331e-05 0)
(-8.2916e-06 2.038e-05 0)
(-6.59032e-05 0.000120141 0)
(-0.000186779 0.000232828 0)
(-0.000357884 0.000346128 0)
(-0.00058174 0.000444949 0)
(-0.000846019 0.000528904 0)
(-0.00114781 0.000595263 0)
(-0.00147712 0.000646978 0)
(-0.00182993 0.00068513 0)
(-0.00219912 0.000712813 0)
(-0.00258137 0.000731782 0)
(-0.00297215 0.000744387 0)
(-0.00336925 0.000752072 0)
(-0.00377003 0.000756373 0)
(-0.00417324 0.00075824 0)
(-0.00457748 0.000758563 0)
(-0.00498213 0.000757878 0)
(-0.00538652 0.000756639 0)
(-0.00579037 0.000755092 0)
(-0.00619339 0.000753429 0)
(-0.00659546 0.000751723 0)
(-0.00699645 0.000750017 0)
(-0.00739627 0.000748293 0)
(-0.00779481 0.000746517 0)
(-0.00819198 0.000744627 0)
(-0.00858761 0.000742555 0)
(-0.00898155 0.000740217 0)
(-0.00937358 0.000737531 0)
(-0.00976346 0.000734406 0)
(-0.0101509 0.000730752 0)
(-0.0105355 0.000726474 0)
(-0.010917 0.000721479 0)
(-0.0112949 0.00071567 0)
(-0.0116687 0.000708951 0)
(-0.0120379 0.000701224 0)
(-0.0124019 0.00069239 0)
(-0.0127602 0.000682351 0)
(-0.013112 0.00067101 0)
(-0.0134566 0.000658268 0)
(-0.0137934 0.000644031 0)
(-0.0141214 0.000628207 0)
(-0.0144399 0.000610706 0)
(-0.014748 0.000591447 0)
(-0.0150447 0.00057035 0)
(-0.0153292 0.000547347 0)
(-0.0156004 0.000522376 0)
(-0.0158574 0.000495386 0)
(-0.0160991 0.000466338 0)
(-0.0163246 0.000435207 0)
(-0.0165328 0.00040198 0)
(-0.0167227 0.000366662 0)
(-0.0168933 0.000329273 0)
(-0.0170437 0.000289854 0)
(-0.0171729 0.000248462 0)
(-0.01728 0.000205175 0)
(-0.0173641 0.000160091 0)
(-0.0174245 0.000113329 0)
(-0.0174604 6.50301e-05 0)
(-0.0174712 1.53531e-05 0)
(-0.0174563 -3.55214e-05 0)
(-0.0174153 -8.73939e-05 0)
(-0.0173479 -0.000140047 0)
(-0.0172537 -0.000193246 0)
(-0.0171327 -0.000246742 0)
(-0.0169849 -0.000300273 0)
(-0.0168104 -0.000353566 0)
(-0.0166095 -0.000406342 0)
(-0.0163825 -0.000458314 0)
(-0.01613 -0.000509194 0)
(-0.0158527 -0.000558697 0)
(-0.0155513 -0.00060654 0)
(-0.0152269 -0.000652447 0)
(-0.0148803 -0.000696157 0)
(-0.0145129 -0.000737418 0)
(-0.0141258 -0.000775999 0)
(-0.0137205 -0.000811687 0)
(-0.0132984 -0.000844292 0)
(-0.012861 -0.000873651 0)
(-0.01241 -0.000899624 0)
(-0.011947 -0.000922103 0)
(-0.0114737 -0.000941006 0)
(-0.0109918 -0.000956283 0)
(-0.0105031 -0.000967912 0)
(-0.0100094 -0.0009759 0)
(-0.00951227 -0.00098028 0)
(-0.00901353 -0.000981114 0)
(-0.00851483 -0.000978483 0)
(-0.00801781 -0.00097249 0)
(-0.00752404 -0.000963255 0)
(-0.00703505 -0.00095091 0)
(-0.00655232 -0.000935597 0)
(-0.00607724 -0.000917461 0)
(-0.00561116 -0.000896648 0)
(-0.00515535 -0.000873299 0)
(-0.00471104 -0.000847549 0)
(-0.00427939 -0.000819516 0)
(-0.00386153 -0.000789306 0)
(-0.00345854 -0.000757006 0)
(-0.00307149 -0.000722679 0)
(-0.0027014 -0.000686371 0)
(-0.00234931 -0.000648105 0)
(-0.00201626 -0.000607886 0)
(-0.00170328 -0.000565705 0)
(-0.0014114 -0.000521548 0)
(-0.00114171 -0.000475401 0)
(-0.00089522 -0.00042727 0)
(-0.000673016 -0.000377194 0)
(-0.000476024 -0.000325274 0)
(-0.000305235 -0.000271703 0)
(-0.000161275 -0.000216806 0)
(-4.4848e-05 -0.000161108 0)
(4.41352e-05 -0.000105388 0)
(0.000105601 -5.08187e-05 0)
(0.000141088 9.51122e-07 0)
(0.000151672 4.75342e-05 0)
(0.00014157 8.5698e-05 0)
(0.000113593 0.000110966 0)
(7.659e-05 0.000117668 0)
(3.54663e-05 9.869e-05 0)
(6.81378e-06 4.64629e-05 0)
(-1.29291e-05 5.80336e-05 0)
(-9.40163e-05 0.000226789 0)
(-0.000256297 0.000403004 0)
(-0.000477491 0.000573712 0)
(-0.000760472 0.000722654 0)
(-0.00108897 0.000849155 0)
(-0.00146043 0.00095039 0)
(-0.00186308 0.00102997 0)
(-0.00229292 0.00108967 0)
(-0.00274182 0.00113359 0)
(-0.00320626 0.00116438 0)
(-0.00368103 0.00118532 0)
(-0.00416366 0.0011986 0)
(-0.00465105 0.00120644 0)
(-0.0051417 0.00121031 0)
(-0.0056339 0.00121155 0)
(-0.00612685 0.001211 0)
(-0.00661964 0.00120937 0)
(-0.00711188 0.00120706 0)
(-0.00760311 0.00120439 0)
(-0.00809314 0.00120149 0)
(-0.00858169 0.00119845 0)
(-0.00906862 0.00119525 0)
(-0.00955372 0.00119185 0)
(-0.0100368 0.00118818 0)
(-0.0105176 0.00118412 0)
(-0.010996 0.00117957 0)
(-0.0114716 0.0011744 0)
(-0.011944 0.00116847 0)
(-0.0124129 0.00116164 0)
(-0.0128778 0.00115378 0)
(-0.0133384 0.00114473 0)
(-0.0137939 0.00113436 0)
(-0.0142438 0.00112251 0)
(-0.0146875 0.00110904 0)
(-0.0151243 0.00109379 0)
(-0.0155533 0.00107663 0)
(-0.0159739 0.00105739 0)
(-0.0163851 0.00103593 0)
(-0.0167861 0.00101212 0)
(-0.0171758 0.000985818 0)
(-0.0175534 0.000956888 0)
(-0.0179177 0.000925211 0)
(-0.0182676 0.000890677 0)
(-0.0186021 0.000853185 0)
(-0.0189201 0.000812651 0)
(-0.0192204 0.000769008 0)
(-0.0195018 0.000722204 0)
(-0.0197631 0.000672211 0)
(-0.0200032 0.000619023 0)
(-0.0202211 0.000562657 0)
(-0.0204154 0.000503158 0)
(-0.0205852 0.000440598 0)
(-0.0207293 0.000375077 0)
(-0.0208469 0.000306727 0)
(-0.0209369 0.000235709 0)
(-0.0209986 0.000162214 0)
(-0.0210311 8.64671e-05 0)
(-0.0210338 8.72081e-06 0)
(-0.0210061 -7.0742e-05 0)
(-0.0209475 -0.000151611 0)
(-0.0208578 -0.000233548 0)
(-0.0207368 -0.000316194 0)
(-0.0205843 -0.000399167 0)
(-0.0204004 -0.000482067 0)
(-0.0201854 -0.00056448 0)
(-0.0199397 -0.000645984 0)
(-0.0196638 -0.000726147 0)
(-0.0193583 -0.000804537 0)
(-0.0190242 -0.000880727 0)
(-0.0186623 -0.000954295 0)
(-0.0182737 -0.00102483 0)
(-0.0178598 -0.00109195 0)
(-0.0174219 -0.00115528 0)
(-0.0169615 -0.00121447 0)
(-0.0164802 -0.00126923 0)
(-0.0159796 -0.00131926 0)
(-0.0154616 -0.00136433 0)
(-0.014928 -0.00140424 0)
(-0.0143807 -0.00143882 0)
(-0.0138216 -0.00146798 0)
(-0.0132527 -0.00149162 0)
(-0.012676 -0.00150973 0)
(-0.0120935 -0.00152232 0)
(-0.0115072 -0.00152944 0)
(-0.0109189 -0.00153118 0)
(-0.0103305 -0.00152767 0)
(-0.00974401 -0.00151906 0)
(-0.00916111 -0.00150552 0)
(-0.00858356 -0.00148725 0)
(-0.00801302 -0.00146446 0)
(-0.00745109 -0.00143735 0)
(-0.00689929 -0.00140615 0)
(-0.00635908 -0.00137106 0)
(-0.00583187 -0.00133226 0)
(-0.00531899 -0.00128994 0)
(-0.00482175 -0.00124423 0)
(-0.0043414 -0.00119526 0)
(-0.00387917 -0.00114311 0)
(-0.00343627 -0.00108784 0)
(-0.00301393 -0.00102947 0)
(-0.00261335 -0.000968015 0)
(-0.00223576 -0.000903446 0)
(-0.00188238 -0.000835738 0)
(-0.00155448 -0.000764876 0)
(-0.00125327 -0.000690872 0)
(-0.000980003 -0.000613806 0)
(-0.000735785 -0.000533847 0)
(-0.000521745 -0.000451327 0)
(-0.000338629 -0.00036677 0)
(-0.000187206 -0.000281025 0)
(-6.74227e-05 -0.000195302 0)
(2.07031e-05 -0.000111415 0)
(7.87811e-05 -3.17948e-05 0)
(0.000108077 4.00338e-05 0)
(0.000112946 9.9588e-05 0)
(9.65139e-05 0.000140545 0)
(6.77496e-05 0.000155414 0)
(3.21017e-05 0.000133948 0)
(6.19143e-06 6.53466e-05 0)
(-1.71381e-05 0.000109013 0)
(-0.000120293 0.000364865 0)
(-0.000321786 0.000616776 0)
(-0.000590519 0.000852795 0)
(-0.000929325 0.00105749 0)
(-0.00131783 0.00123066 0)
(-0.00175375 0.00137013 0)
(-0.00222349 0.00148034 0)
(-0.00272324 0.00156398 0)
(-0.00324395 0.00162616 0)
(-0.00378211 0.00167049 0)
(-0.00433194 0.00170115 0)
(-0.00489087 0.00172113 0)
(-0.00545541 0.00173335 0)
(-0.00602392 0.00173985 0)
(-0.0065944 0.0017424 0)
(-0.00716592 0.0017422 0)
(-0.00773739 0.00174023 0)
(-0.00830827 0.00173708 0)
(-0.00887797 0.00173319 0)
(-0.00944617 0.00172878 0)
(-0.0100125 0.00172397 0)
(-0.0105767 0.00171878 0)
(-0.0111386 0.00171316 0)
(-0.0116977 0.00170701 0)
(-0.0122538 0.0017002 0)
(-0.0128066 0.00169257 0)
(-0.0133556 0.00168395 0)
(-0.0139005 0.00167417 0)
(-0.0144407 0.00166303 0)
(-0.0149758 0.00165034 0)
(-0.015505 0.00163591 0)
(-0.0160278 0.00161952 0)
(-0.0165435 0.00160098 0)
(-0.0170513 0.00158008 0)
(-0.0175503 0.00155662 0)
(-0.0180397 0.0015304 0)
(-0.0185186 0.00150121 0)
(-0.0189859 0.00146886 0)
(-0.0194407 0.00143315 0)
(-0.0198817 0.00139391 0)
(-0.020308 0.00135096 0)
(-0.0207183 0.00130414 0)
(-0.0211115 0.00125331 0)
(-0.0214862 0.00119834 0)
(-0.0218412 0.00113913 0)
(-0.0221753 0.00107559 0)
(-0.0224872 0.00100767 0)
(-0.0227756 0.000935354 0)
(-0.0230392 0.000858635 0)
(-0.0232768 0.000777559 0)
(-0.0234872 0.000692204 0)
(-0.0236691 0.000602686 0)
(-0.0238217 0.000509159 0)
(-0.0239436 0.00041182 0)
(-0.0240341 0.000310908 0)
(-0.0240922 0.000206703 0)
(-0.0241171 9.95241e-05 0)
(-0.0241083 -1.02657e-05 0)
(-0.024065 -0.000122266 0)
(-0.023987 -0.000236042 0)
(-0.0238739 -0.00035112 0)
(-0.0237257 -0.000467 0)
(-0.0235422 -0.000583155 0)
(-0.0233238 -0.000699033 0)
(-0.0230707 -0.000814067 0)
(-0.0227835 -0.000927677 0)
(-0.0224628 -0.00103928 0)
(-0.0221093 -0.00114828 0)
(-0.0217242 -0.00125411 0)
(-0.0213084 -0.0013562 0)
(-0.0208634 -0.00145399 0)
(-0.0203905 -0.00154696 0)
(-0.0198913 -0.00163463 0)
(-0.0193674 -0.00171653 0)
(-0.0188207 -0.00179225 0)
(-0.018253 -0.00186142 0)
(-0.0176663 -0.00192372 0)
(-0.0170627 -0.0019789 0)
(-0.0164442 -0.00202675 0)
(-0.0158129 -0.00206712 0)
(-0.015171 -0.00209991 0)
(-0.0145208 -0.0021251 0)
(-0.0138642 -0.00214272 0)
(-0.0132036 -0.00215283 0)
(-0.0125409 -0.00215557 0)
(-0.0118784 -0.0021511 0)
(-0.0112178 -0.00213963 0)
(-0.0105613 -0.0021214 0)
(-0.00991076 -0.00209667 0)
(-0.00926787 -0.00206573 0)
(-0.00863442 -0.00202885 0)
(-0.00801208 -0.00198632 0)
(-0.00740243 -0.0019384 0)
(-0.00680699 -0.00188535 0)
(-0.00622723 -0.00182739 0)
(-0.00566457 -0.00176472 0)
(-0.00512039 -0.00169747 0)
(-0.00459604 -0.00162576 0)
(-0.00409287 -0.00154966 0)
(-0.00361221 -0.00146919 0)
(-0.00315539 -0.00138435 0)
(-0.0027238 -0.00129509 0)
(-0.00231877 -0.00120139 0)
(-0.0019417 -0.00110322 0)
(-0.00159395 -0.00100061 0)
(-0.00127688 -0.000893685 0)
(-0.000991722 -0.000782703 0)
(-0.000739692 -0.00066815 0)
(-0.000521624 -0.000550781 0)
(-0.000338321 -0.000431799 0)
(-0.000189771 -0.000312882 0)
(-7.59465e-05 -0.000196513 0)
(4.74676e-06 -8.59374e-05 0)
(5.37051e-05 1.41998e-05 0)
(7.52072e-05 9.81495e-05 0)
(7.26036e-05 0.000157824 0)
(5.45405e-05 0.000183843 0)
(2.68993e-05 0.000163022 0)
(5.27902e-06 8.13806e-05 0)
(-2.06324e-05 0.000172606 0)
(-0.000143417 0.000533407 0)
(-0.000380706 0.000873649 0)
(-0.000693412 0.00118371 0)
(-0.00108412 0.00145041 0)
(-0.00152836 0.00167476 0)
(-0.00202388 0.00185594 0)
(-0.00255527 0.00199948 0)
(-0.00311883 0.00210926 0)
(-0.00370467 0.00219149 0)
(-0.00430933 0.00225081 0)
(-0.00492658 0.00229236 0)
(-0.00555381 0.00231997 0)
(-0.00618726 0.00233727 0)
(-0.00682518 0.00234688 0)
(-0.00746539 0.00235105 0)
(-0.00810682 0.00235136 0)
(-0.00874823 0.00234905 0)
(-0.00938899 0.00234493 0)
(-0.0100284 0.00233957 0)
(-0.010666 0.00233328 0)
(-0.0113013 0.00232626 0)
(-0.011934 0.00231853 0)
(-0.0125636 0.00231004 0)
(-0.0131899 0.00230067 0)
(-0.0138124 0.00229027 0)
(-0.0144307 0.00227865 0)
(-0.0150443 0.00226558 0)
(-0.0156527 0.00225083 0)
(-0.0162552 0.00223417 0)
(-0.0168513 0.00221534 0)
(-0.0174403 0.00219409 0)
(-0.0180213 0.00217015 0)
(-0.0185937 0.00214327 0)
(-0.0191565 0.00211318 0)
(-0.0197087 0.00207961 0)
(-0.0202495 0.00204232 0)
(-0.0207777 0.00200103 0)
(-0.0212922 0.0019555 0)
(-0.0217919 0.00190549 0)
(-0.0222756 0.00185077 0)
(-0.022742 0.00179112 0)
(-0.0231899 0.00172635 0)
(-0.0236179 0.00165629 0)
(-0.0240247 0.00158078 0)
(-0.0244089 0.00149971 0)
(-0.0247692 0.00141298 0)
(-0.0251041 0.00132054 0)
(-0.0254124 0.00122238 0)
(-0.0256927 0.00111852 0)
(-0.0259437 0.00100904 0)
(-0.0261641 0.000894067 0)
(-0.0263527 0.000773762 0)
(-0.0265084 0.00064835 0)
(-0.0266302 0.000518107 0)
(-0.0267169 0.00038336 0)
(-0.0267679 0.000244491 0)
(-0.0267822 0.000101932 0)
(-0.0267593 -4.3832e-05 0)
(-0.0266987 -0.000192269 0)
(-0.0266 -0.000342802 0)
(-0.026463 -0.000494812 0)
(-0.0262876 -0.000647642 0)
(-0.026074 -0.000800605 0)
(-0.0258224 -0.000952985 0)
(-0.0255333 -0.00110405 0)
(-0.0252073 -0.00125305 0)
(-0.0248451 -0.00139923 0)
(-0.0244477 -0.00154185 0)
(-0.0240163 -0.00168016 0)
(-0.0235521 -0.00181344 0)
(-0.0230565 -0.00194099 0)
(-0.0225312 -0.00206214 0)
(-0.0219779 -0.00217628 0)
(-0.0213983 -0.00228284 0)
(-0.0207944 -0.00238128 0)
(-0.0201683 -0.00247115 0)
(-0.0195222 -0.00255207 0)
(-0.0188582 -0.00262369 0)
(-0.0181785 -0.00268578 0)
(-0.0174855 -0.00273815 0)
(-0.0167815 -0.00278069 0)
(-0.0160689 -0.00281338 0)
(-0.0153498 -0.00283626 0)
(-0.0146266 -0.00284942 0)
(-0.0139016 -0.00285305 0)
(-0.0131769 -0.00284735 0)
(-0.0124546 -0.0028326 0)
(-0.0117369 -0.00280911 0)
(-0.0110258 -0.00277722 0)
(-0.0103231 -0.00273727 0)
(-0.00963062 -0.00268963 0)
(-0.0089502 -0.00263466 0)
(-0.0082835 -0.00257269 0)
(-0.0076321 -0.00250405 0)
(-0.00699758 -0.002429 0)
(-0.00638141 -0.00234779 0)
(-0.00578506 -0.0022606 0)
(-0.00520996 -0.00216755 0)
(-0.00465752 -0.00206873 0)
(-0.00412917 -0.00196414 0)
(-0.00362632 -0.00185378 0)
(-0.00315041 -0.0017376 0)
(-0.00270289 -0.00161554 0)
(-0.00228522 -0.0014876 0)
(-0.00189884 -0.0013538 0)
(-0.0015452 -0.00121433 0)
(-0.00122558 -0.00106954 0)
(-0.000941257 -0.000920098 0)
(-0.000693131 -0.000767001 0)
(-0.000482018 -0.000611832 0)
(-0.000307955 -0.000456766 0)
(-0.000170886 -0.000304971 0)
(-6.92926e-05 -0.000160541 0)
(-1.69471e-06 -2.92272e-05 0)
(3.59874e-05 8.19232e-05 0)
(4.72702e-05 0.000163144 0)
(4.02768e-05 0.000203126 0)
(2.121e-05 0.000186088 0)
(4.29112e-06 9.49519e-05 0)
(-2.37572e-05 0.000246661 0)
(-0.000164276 0.00072829 0)
(-0.000434084 0.00116815 0)
(-0.000787077 0.00155987 0)
(-0.00122547 0.0018937 0)
(-0.00172097 0.00217263 0)
(-0.00227119 0.00239786 0)
(-0.00285893 0.00257641 0)
(-0.00348056 0.00271363 0)
(-0.00412538 0.00281692 0)
(-0.00479001 0.00289208 0)
(-0.00546782 0.00294523 0)
(-0.00615623 0.00298104 0)
(-0.00685122 0.00300385 0)
(-0.00755105 0.00301689 0)
(-0.00825333 0.00302288 0)
(-0.00895694 0.00302377 0)
(-0.00966051 0.00302108 0)
(-0.0103633 0.00301583 0)
(-0.0110645 0.00300875 0)
(-0.0117636 0.00300024 0)
(-0.0124599 0.00299054 0)
(-0.0131532 0.0029797 0)
(-0.0138428 0.00296769 0)
(-0.0145283 0.00295438 0)
(-0.0152093 0.00293956 0)
(-0.0158852 0.00292302 0)
(-0.0165554 0.00290449 0)
(-0.0172193 0.00288368 0)
(-0.0178762 0.0028603 0)
(-0.0185255 0.00283404 0)
(-0.0191662 0.00280459 0)
(-0.0197977 0.00277162 0)
(-0.0204189 0.00273481 0)
(-0.0210289 0.00269383 0)
(-0.0216266 0.00264837 0)
(-0.022211 0.00259811 0)
(-0.0227809 0.00254273 0)
(-0.0233351 0.00248192 0)
(-0.0238723 0.00241541 0)
(-0.0243913 0.00234291 0)
(-0.0248907 0.00226417 0)
(-0.0253691 0.00217896 0)
(-0.0258251 0.00208709 0)
(-0.0262573 0.00198837 0)
(-0.0266643 0.00188269 0)
(-0.0270446 0.00176995 0)
(-0.0273967 0.00165011 0)
(-0.0277193 0.00152317 0)
(-0.0280109 0.00138918 0)
(-0.0282703 0.00124828 0)
(-0.0284961 0.00110063 0)
(-0.0286871 0.000946462 0)
(-0.0288422 0.000786085 0)
(-0.0289602 0.00061986 0)
(-0.0290403 0.000448216 0)
(-0.0290815 0.000271647 0)
(-0.0290831 9.07089e-05 0)
(-0.0290446 -9.39803e-05 0)
(-0.0289655 -0.000281746 0)
(-0.0288455 -0.000471861 0)
(-0.0286844 -0.000663547 0)
(-0.0284823 -0.000855983 0)
(-0.0282394 -0.00104831 0)
(-0.027956 -0.00123965 0)
(-0.0276327 -0.00142909 0)
(-0.0272702 -0.0016157 0)
(-0.0268695 -0.00179857 0)
(-0.0264316 -0.00197677 0)
(-0.0259578 -0.00214939 0)
(-0.0254494 -0.00231556 0)
(-0.0249081 -0.00247442 0)
(-0.0243355 -0.00262517 0)
(-0.0237336 -0.00276705 0)
(-0.0231043 -0.00289938 0)
(-0.0224498 -0.00302153 0)
(-0.0217721 -0.00313294 0)
(-0.0210737 -0.00323315 0)
(-0.0203568 -0.00332177 0)
(-0.0196238 -0.00339851 0)
(-0.0188773 -0.00346316 0)
(-0.0181196 -0.00351561 0)
(-0.0173532 -0.00355582 0)
(-0.0165805 -0.00358386 0)
(-0.0158039 -0.00359987 0)
(-0.0150259 -0.00360407 0)
(-0.0142487 -0.00359673 0)
(-0.0134745 -0.00357819 0)
(-0.0127055 -0.00354883 0)
(-0.0119437 -0.00350908 0)
(-0.0111913 -0.00345937 0)
(-0.0104501 -0.00340014 0)
(-0.0097218 -0.00333183 0)
(-0.00900827 -0.00325486 0)
(-0.00831115 -0.00316961 0)
(-0.00763203 -0.00307642 0)
(-0.00697244 -0.00297556 0)
(-0.00633389 -0.00286726 0)
(-0.00571784 -0.00275166 0)
(-0.00512575 -0.00262884 0)
(-0.00455908 -0.00249883 0)
(-0.00401927 -0.0023616 0)
(-0.0035078 -0.00221708 0)
(-0.00302615 -0.00206521 0)
(-0.00257583 -0.00190597 0)
(-0.0021583 -0.00173943 0)
(-0.00177503 -0.00156581 0)
(-0.00142736 -0.00138558 0)
(-0.00111657 -0.00119957 0)
(-0.000843582 -0.00100905 0)
(-0.000609219 -0.000815973 0)
(-0.000413564 -0.00062302 0)
(-0.000256533 -0.000434025 0)
(-0.000136714 -0.000253926 0)
(-5.25744e-05 -8.95265e-05 0)
(-2.95681e-07 5.08407e-05 0)
(2.37425e-05 0.00015586 0)
(2.70417e-05 0.000212314 0)
(1.60198e-05 0.000202162 0)
(3.4467e-06 0.000105465 0)
(-2.64244e-05 0.00033052 0)
(-0.000182613 0.000947788 0)
(-0.000481559 0.0014981 0)
(-0.000871002 0.00197918 0)
(-0.00135281 0.00238546 0)
(-0.00189511 0.00272258 0)
(-0.00249531 0.00299435 0)
(-0.00313446 0.00320961 0)
(-0.00380893 0.00337548 0)
(-0.00450721 0.00350073 0)
(-0.005226 0.00359242 0)
(-0.0059583 0.00365767 0)
(-0.00670158 0.00370209 0)
(-0.00745164 0.0037307 0)
(-0.0082067 0.00374736 0)
(-0.00896427 0.00375526 0)
(-0.00972318 0.00375672 0)
(-0.0104819 0.00375355 0)
(-0.0112398 0.00374699 0)
(-0.0119957 0.00373788 0)
(-0.0127493 0.00372676 0)
(-0.0134996 0.00371391 0)
(-0.0142464 0.00369941 0)
(-0.0149889 0.00368323 0)
(-0.0157266 0.00366522 0)
(-0.016459 0.00364516 0)
(-0.0171854 0.00362278 0)
(-0.0179053 0.00359778 0)
(-0.0186178 0.00356981 0)
(-0.0193222 0.00353852 0)
(-0.0200177 0.00350355 0)
(-0.0207035 0.00346452 0)
(-0.0213785 0.00342104 0)
(-0.0220419 0.00337273 0)
(-0.0226924 0.00331921 0)
(-0.023329 0.00326009 0)
(-0.0239506 0.003195 0)
(-0.0245558 0.00312356 0)
(-0.0251435 0.00304542 0)
(-0.0257121 0.00296025 0)
(-0.0262604 0.00286772 0)
(-0.0267869 0.00276755 0)
(-0.0272902 0.00265948 0)
(-0.0277688 0.00254328 0)
(-0.0282212 0.00241877 0)
(-0.0286459 0.00228582 0)
(-0.0290414 0.00214434 0)
(-0.0294062 0.0019943 0)
(-0.0297388 0.00183574 0)
(-0.0300379 0.00166876 0)
(-0.030302 0.00149351 0)
(-0.0305299 0.00131024 0)
(-0.0307203 0.00111926 0)
(-0.0308721 0.000920955 0)
(-0.0309842 0.000715791 0)
(-0.0310556 0.000504308 0)
(-0.0310855 0.000287122 0)
(-0.0310733 6.4923e-05 0)
(-0.0310184 -0.000161528 0)
(-0.0309204 -0.000391405 0)
(-0.030779 -0.000623819 0)
(-0.0305942 -0.000857824 0)
(-0.0303661 -0.00109243 0)
(-0.0300949 -0.0013266 0)
(-0.0297813 -0.00155926 0)
(-0.0294256 -0.00178933 0)
(-0.029029 -0.00201571 0)
(-0.0285922 -0.00223729 0)
(-0.0281166 -0.00245297 0)
(-0.0276035 -0.00266168 0)
(-0.0270544 -0.00286236 0)
(-0.0264711 -0.00305403 0)
(-0.0258554 -0.00323571 0)
(-0.0252093 -0.00340654 0)
(-0.024535 -0.00356569 0)
(-0.0238346 -0.00371244 0)
(-0.0231105 -0.00384613 0)
(-0.0223651 -0.00396623 0)
(-0.021601 -0.00407228 0)
(-0.0208207 -0.00416397 0)
(-0.0200266 -0.00424104 0)
(-0.0192215 -0.00430339 0)
(-0.0184079 -0.00435099 0)
(-0.0175883 -0.00438394 0)
(-0.0167654 -0.0044024 0)
(-0.0159414 -0.00440666 0)
(-0.015119 -0.00439705 0)
(-0.0143003 -0.004374 0)
(-0.0134876 -0.00433797 0)
(-0.0126832 -0.00428946 0)
(-0.0118889 -0.00422901 0)
(-0.0111069 -0.00415715 0)
(-0.010339 -0.00407441 0)
(-0.00958689 -0.00398128 0)
(-0.00885234 -0.00387823 0)
(-0.00813696 -0.00376565 0)
(-0.00744229 -0.00364388 0)