/*--------------------------------*- C++ -*----------------------------------*\
| =========                 |                                                 |
| \\      /  F ield         | OpenFOAM: The Open Source CFD Toolbox           |
|  \\    /   O peration     | Version:  2406                                  |
|   \\  /    A nd           | Website:  www.openfoam.com                      |
|    \\/     M anipulation  |                                                 |
\*---------------------------------------------------------------------------*/
FoamFile
{
    version     2.0;
    format      ascii;
    arch        "LSB;label=32;scalar=64";
    class       volScalarField;
    location    "42.6";
    object      p;
}
// * * * * * * * * * * * * * * * * * * * * * * * * * * * * * * * * * * * * * //

dimensions      [0 2 -2 0 0 0 0];

internalField   nonuniform List<scalar> 
3600
(
0.0406863
0.0407181
0.0407029
0.0406822
0.0406072
0.0405263
0.0404124
0.0403006
0.040168
0.0400308
0.0398673
0.0396824
0.0394598
0.0392011
0.0388956
0.0385441
0.0381414
0.0376907
0.037195
0.036666
0.0361218
0.0355915
0.0351123
0.0347274
0.0344811
0.0344135
0.0345568
0.0349302
0.0355387
0.0363683
0.037385
0.0385315
0.039728
0.0408749
0.0418594
0.0425672
0.0428962
0.0427759
0.042178
0.0411321
0.039717
0.0380596
0.0363
0.0345832
0.0330176
0.0316853
0.0306133
0.0298104
0.0292398
0.0288734
0.0286494
0.0285412
0.0284907
0.0284946
0.0285057
0.0285451
0.0285694
0.0286175
0.028641
0.0286786
0.0406564
0.0406891
0.0406665
0.0406459
0.0405744
0.0405031
0.0404006
0.0403015
0.0401815
0.0400571
0.0399076
0.0397395
0.0395373
0.0393033
0.0390268
0.0387073
0.0383379
0.0379191
0.0374528
0.0369494
0.0364241
0.0358995
0.0354058
0.0349813
0.0346706
0.0345184
0.0345639
0.0348339
0.0353395
0.0360714
0.0369993
0.0380682
0.0392003
0.0402968
0.0412453
0.0419308
0.0422497
0.0421296
0.0415404
0.0405114
0.0391227
0.0375041
0.0357999
0.0341576
0.0326848
0.0314588
0.0304961
0.029794
0.0293043
0.0289928
0.028797
0.0286957
0.028637
0.0286253
0.0286165
0.0286367
0.0286404
0.0286724
0.0286787
0.0287166
0.0406641
0.0407067
0.0406813
0.0406582
0.0405812
0.0405075
0.040406
0.040312
0.0402003
0.0400857
0.0399471
0.0397892
0.039597
0.0393709
0.0390989
0.0387768
0.0383952
0.0379502
0.0374377
0.0368611
0.0362343
0.0355861
0.0349591
0.0344039
0.0339746
0.0337205
0.0336833
0.0338899
0.0343517
0.0350588
0.0359806
0.0370616
0.0382237
0.0393673
0.0403786
0.0411392
0.0415402
0.041501
0.040983
0.0400065
0.0386468
0.0370338
0.0353183
0.0336591
0.032177
0.03096
0.0300303
0.0293845
0.0289679
0.0287367
0.0286174
0.0285808
0.0285705
0.028592
0.0286025
0.0286345
0.0286411
0.0286778
0.028682
0.0287345
0.0406764
0.0407227
0.0406903
0.0406608
0.0405785
0.0405055
0.0404119
0.0403311
0.0402372
0.0401414
0.040022
0.0398809
0.039702
0.0394802
0.0391988
0.0388448
0.0383999
0.037852
0.0371973
0.0364478
0.0356308
0.0347861
0.0339643
0.0332204
0.0326117
0.0321893
0.0319963
0.0320608
0.0323956
0.0329934
0.0338271
0.0348466
0.0359803
0.0371351
0.0382025
0.0390661
0.039614
0.0397566
0.0394409
0.0386699
0.0375021
0.0360548
0.034474
0.0329213
0.0315254
0.0303842
0.0295283
0.0289594
0.0286233
0.0284744
0.0284337
0.0284671
0.0285126
0.0285749
0.02861
0.0286558
0.0286648
0.0287026
0.028701
0.0287623
0.0407346
0.0407797
0.0407377
0.0406947
0.0406013
0.0405213
0.0404295
0.0403544
0.0402708
0.0401824
0.0400668
0.0399174
0.0397129
0.0394359
0.0390593
0.0385576
0.0379108
0.0371124
0.0361738
0.035122
0.0340015
0.0328657
0.0317768
0.0307949
0.0299785
0.0293757
0.0290264
0.028955
0.0291736
0.0296758
0.030439
0.0314198
0.0325564
0.0337663
0.0349511
0.0360008
0.0368037
0.0372611
0.0373012
0.0368993
0.0360835
0.0349436
0.0336079
0.0322324
0.0309532
0.0298827
0.0290686
0.0285284
0.0282205
0.0281071
0.0281123
0.0281997
0.0283015
0.0284162
0.0284947
0.0285739
0.028605
0.0286579
0.0286621
0.0287307
0.0408206
0.0408562
0.0408016
0.0407408
0.0406384
0.0405531
0.0404669
0.0403978
0.040322
0.0402316
0.0401007
0.0399074
0.0396198
0.0392021
0.0386201
0.0378466
0.0368746
0.0357139
0.0343987
0.0329744
0.0315014
0.0300403
0.028656
0.0274064
0.0263472
0.0255218
0.0249668
0.0247036
0.0247444
0.0250843
0.0257073
0.0265793
0.0276528
0.0288616
0.0301257
0.0313509
0.0324362
0.033282
0.0338028
0.0339444
0.0336945
0.0330972
0.0322412
0.0312566
0.0302717
0.0294062
0.0287247
0.0282638
0.0280001
0.0279109
0.027933
0.0280377
0.0281612
0.0283004
0.0284039
0.028504
0.0285511
0.0286125
0.0286209
0.0286871
0.04096
0.0409774
0.0409078
0.0408225
0.0407084
0.0406103
0.0405207
0.0404402
0.0403475
0.0402154
0.0400114
0.0396892
0.0392052
0.0385097
0.0375754
0.0363877
0.0349664
0.0333453
0.031583
0.0297402
0.0278893
0.026095
0.024424
0.0229296
0.0216614
0.0206535
0.0199349
0.0195193
0.0194148
0.0196151
0.020108
0.020867
0.0218579
0.0230324
0.0243328
0.0256879
0.0270183
0.0282378
0.0292612
0.0300161
0.0304524
0.0305601
0.0303692
0.0299576
0.0294229
0.0288776
0.0284013
0.0280555
0.027845
0.027771
0.0277898
0.0278859
0.0280059
0.0281483
0.0282633
0.0283767
0.0284394
0.0285093
0.0285255
0.0285856
0.0411536
0.0411435
0.0410599
0.0409477
0.0408249
0.0407099
0.0406095
0.0404975
0.0403543
0.0401245
0.0397653
0.0392045
0.0383964
0.0372916
0.035888
0.034196
0.0322682
0.030161
0.0279548
0.0257201
0.0235357
0.0214631
0.0195635
0.0178788
0.0164486
0.0152953
0.0144391
0.0138854
0.0136385
0.01369
0.0140301
0.0146383
0.015492
0.0165585
0.0178015
0.0191753
0.0206285
0.022101
0.0235275
0.0248396
0.0259719
0.0268731
0.0275121
0.0278938
0.0280503
0.0280499
0.0279607
0.0278587
0.0277809
0.0277618
0.0277892
0.0278687
0.027965
0.0280844
0.0281853
0.0282891
0.0283509
0.0284165
0.0284345
0.0284824
0.0414087
0.0413613
0.0412648
0.0411201
0.0409843
0.0408364
0.0407001
0.0405125
0.0402545
0.0398343
0.0392025
0.0382681
0.0370019
0.035372
0.0334155
0.0311727
0.0287303
0.0261635
0.0235688
0.0210188
0.0185913
0.016337
0.0143065
0.0125265
0.0110241
0.00980823
0.00888953
0.008265
0.00793418
0.00788572
0.00811061
0.00859112
0.00931152
0.0102493
0.0113837
0.0126885
0.0141379
0.0157003
0.0173406
0.0190158
0.0206742
0.0222572
0.0236998
0.0249447
0.0259441
0.026685
0.0271784
0.0274791
0.0276419
0.0277391
0.027804
0.0278758
0.0279461
0.0280329
0.0281075
0.0281894
0.0282406
0.0282954
0.0283119
0.0283475
0.0417325
0.0416403
0.0415363
0.0413562
0.0412032
0.0410028
0.0407971
0.040476
0.0400205
0.039301
0.0382741
0.0368468
0.0350272
0.0328142
0.0302907
0.0275254
0.0246334
0.0216996
0.0188256
0.0160746
0.0135142
0.0111769
0.00909852
0.00728921
0.00576485
0.00452324
0.00356913
0.00289391
0.00249531
0.00236053
0.002482
0.00284393
0.00343512
0.00423884
0.00524313
0.00643347
0.0078001
0.00933229
0.0110211
0.0128533
0.0148081
0.0168507
0.0189244
0.0209518
0.0228325
0.0244674
0.0257707
0.0267145
0.0273188
0.0276681
0.0278457
0.0279436
0.0279985
0.0280497
0.0280879
0.0281344
0.0281615
0.0281952
0.0282033
0.0282263
0.0421022
0.0419583
0.0418496
0.0416248
0.0414385
0.0411494
0.0408194
0.0402834
0.039527
0.0383901
0.0368555
0.0348471
0.0324263
0.029628
0.0265801
0.023372
0.0201371
0.0169558
0.0139237
0.0110844
0.00848951
0.00615106
0.0040913
0.00230604
0.000803322
-0.000426867
-0.0013829
-0.00207677
-0.00251091
-0.00269876
-0.00264635
-0.00236832
-0.00187309
-0.00117468
-0.000280801
0.000798996
0.00206238
0.00350869
0.00514403
0.00697599
0.00901201
0.0112508
0.0136715
0.016222
0.0188052
0.0212832
0.0234879
0.0252736
0.0265537
0.027355
0.0277761
0.0279668
0.0280351
0.0280611
0.0280644
0.0280725
0.0280703
0.0280796
0.0280761
0.0280899
0.0425134
0.042316
0.0422058
0.0419265
0.0416853
0.0412636
0.0407433
0.0399024
0.0387419
0.0370881
0.0349713
0.0323478
0.0293398
0.0260153
0.0225389
0.0190064
0.0155545
0.0122452
0.00915809
0.0063117
0.00374064
0.00143837
-0.00058264
-0.00233658
-0.00381872
-0.00504314
-0.00600797
-0.0067261
-0.0071982
-0.00743708
-0.00744637
-0.00723929
-0.00682173
-0.00620599
-0.00539748
-0.00440401
-0.0032257
-0.00186062
-0.000298165
0.00147719
0.00348727
0.00575418
0.008292
0.0110922
0.0141029
0.0172114
0.0202334
0.0229394
0.0251081
0.0266214
0.0275052
0.0279215
0.0280627
0.0280855
0.0280599
0.0280289
0.0279939
0.0279757
0.0279573
0.0279641
0.0429005
0.0426479
0.0425326
0.0421798
0.0418482
0.0412367
0.0404489
0.0392123
0.0375594
0.0353222
0.0325963
0.0293773
0.0258465
0.022095
0.0183095
0.0145759
0.0110204
0.00767729
0.00460634
0.00180156
-0.000715444
-0.00296527
-0.00494006
-0.00665996
-0.00812019
-0.0093367
-0.0103058
-0.0110407
-0.0115396
-0.0118148
-0.0118677
-0.0117103
-0.0113465
-0.0107874
-0.0100371
-0.00910294
-0.00798511
-0.00668227
-0.00518477
-0.00347709
-0.00153474
0.000673161
0.0031803
0.00601273
0.00917116
0.0126038
0.0161782
0.0196652
0.0227652
0.0251942
0.0268035
0.0276618
0.0279929
0.0280589
0.0280217
0.0279578
0.0278924
0.0278483
0.0278151
0.0278175
0.0432379
0.0429326
0.0428057
0.0423589
0.0418972
0.0410375
0.0399091
0.0382026
0.0360003
0.0331587
0.0298471
0.0260997
0.0221467
0.0180866
0.0141116
0.0102828
0.00670705
0.00338725
0.000365583
-0.00238456
-0.00484899
-0.00705746
-0.00900239
-0.0107068
-0.0121635
-0.0133889
-0.0143765
-0.0151388
-0.0156716
-0.0159862
-0.0160815
-0.0159683
-0.0156484
-0.0151318
-0.0144212
-0.0135237
-0.01244
-0.0111705
-0.00970868
-0.008043
-0.0061533
-0.00401053
-0.00157724
0.00118823
0.00432165
0.00782929
0.0116582
0.0156499
0.0195265
0.0229129
0.0254679
0.0270426
0.0277732
0.0279743
0.0279573
0.0278706
0.027778
0.0277094
0.0276617
0.0276596
0.0434207
0.0430639
0.0429105
0.042343
0.0417059
0.0405424
0.0390129
0.0367906
0.0340225
0.0306017
0.0267706
0.0225936
0.0183344
0.0140818
0.0100193
0.00617372
0.00263078
-0.000635827
-0.00359624
-0.0062919
-0.00871064
-0.0108874
-0.0128119
-0.0145085
-0.0159667
-0.0172028
-0.0182077
-0.0189937
-0.0195544
-0.0199004
-0.0200288
-0.0199493
-0.0196621
-0.019176
-0.0184928
-0.0176187
-0.016555
-0.015303
-0.0138596
-0.0122171
-0.0103621
-0.00827182
-0.00591456
-0.00324789
-0.000222381
0.00320373
0.00704507
0.0112355
0.0155924
0.0197653
0.0233121
0.0258354
0.0272416
0.0277586
0.0278226
0.0277344
0.0276209
0.0275289
0.027468
0.0274598
0.043415
0.0430104
0.0428146
0.0421033
0.0412513
0.039743
0.0377758
0.0350266
0.0317158
0.0277785
0.0235218
0.0190265
0.0145727
0.0102248
0.006148
0.00233264
-0.00115439
-0.00436313
-0.00726991
-0.00992576
-0.0123166
-0.0144798
-0.016401
-0.018105
-0.0195776
-0.0208352
-0.0218659
-0.0226818
-0.0232745
-0.0236539
-0.0238155
-0.0237679
-0.02351
-0.0230492
-0.0223865
-0.0215272
-0.0204728
-0.0192249
-0.0177829
-0.0161423
-0.014296
-0.0122285
-0.00991789
-0.00732967
-0.00441695
-0.00112598
0.00259746
0.00676207
0.0112986
0.0159631
0.020343
0.0238959
0.0262295
0.0273377
0.027608
0.0275543
0.0274313
0.0273128
0.0272387
0.0272197
0.0431075
0.042657
0.0423992
0.0415232
0.0404255
0.0385502
0.0361378
0.0328863
0.029091
0.0247272
0.0201519
0.0154482
0.0108968
0.00652846
0.0024865
-0.00127245
-0.00469492
-0.00784823
-0.0107097
-0.0133357
-0.015708
-0.0178649
-0.0197876
-0.0215011
-0.0229878
-0.0242647
-0.0253174
-0.0261582
-0.0267772
-0.0271839
-0.0273725
-0.0273509
-0.027117
-0.0266769
-0.0260312
-0.025184
-0.0241371
-0.0228915
-0.0214485
-0.019805
-0.0179587
-0.0158995
-0.0136149
-0.0110804
-0.00825979
-0.00510367
-0.00154477
0.00246817
0.00695816
0.0118063
0.0167283
0.0211775
0.0245701
0.0265326
0.0272609
0.0272941
0.0271904
0.0270401
0.0269507
0.026915
0.0424906
0.0419991
0.041664
0.0406131
0.0392545
0.0370138
0.0341771
0.0304771
0.0262782
0.021589
0.0168002
0.0119836
0.00740858
0.0030687
-0.000913319
-0.00460891
-0.00797211
-0.0110816
-0.013912
-0.0165223
-0.0188888
-0.0210504
-0.0229837
-0.024714
-0.026221
-0.0275218
-0.0286003
-0.0294686
-0.0301157
-0.0305503
-0.030766
-0.0307694
-0.030558
-0.0301365
-0.0295057
-0.0286678
-0.0276257
-0.0263792
-0.0249316
-0.0232795
-0.0214249
-0.0193603
-0.0170815
-0.0145724
-0.0118098
-0.00875598
-0.00534886
-0.00152396
0.00279695
0.00759842
0.0127528
0.017825
0.0222077
0.0251994
0.0266771
0.0269529
0.0268867
0.0267188
0.0266032
0.0265457
0.0414837
0.0409552
0.0405304
0.0393027
0.0376836
0.035101
0.0318852
0.0278113
0.0233016
0.0183889
0.0134811
0.00862923
0.00408442
-0.000195265
-0.00410413
-0.00773464
-0.0110435
-0.0141159
-0.0169217
-0.0195208
-0.0218842
-0.0240506
-0.0259933
-0.0277377
-0.0292614
-0.0305816
-0.0316811
-0.032572
-0.0332421
-0.0336998
-0.033938
-0.0339623
-0.0337703
-0.0333649
-0.0327477
-0.0319191
-0.0308835
-0.0296386
-0.0281901
-0.0265333
-0.0246736
-0.0226039
-0.0203261
-0.0178294
-0.0151021
-0.0121193
-0.00883245
-0.00518326
-0.00107242
0.0035484
0.00868644
0.0140725
0.0192007
0.0232516
0.0256692
0.0264973
0.0264774
0.0263315
0.0261757
0.0260914
0.0401354
0.0395781
0.0390582
0.0376644
0.0358017
0.0329194
0.0293864
0.0250238
0.0202968
0.0152535
0.0103041
0.00547407
0.000993036
-0.00321148
-0.00704623
-0.010618
-0.0138824
-0.0169278
-0.0197183
-0.0223138
-0.0246802
-0.0268564
-0.0288125
-0.0305743
-0.0321175
-0.0334596
-0.0345822
-0.0354971
-0.0361914
-0.0366726
-0.0369336
-0.0369782
-0.0368046
-0.0364139
-0.0358089
-0.034988
-0.0339576
-0.0327133
-0.0312637
-0.029602
-0.0277372
-0.0256611
-0.0233806
-0.0208869
-0.0181778
-0.0152381
-0.012035
-0.00852566
-0.00461235
-0.000222496
0.00474672
0.0101757
0.0157508
0.0206887
0.024153
0.0257889
0.0259823
0.0258394
0.0256763
0.0255404
0.0384181
0.0378399
0.0372245
0.035683
0.0336048
0.0304762
0.0266956
0.0221297
0.0172709
0.0121749
0.00724314
0.00247495
-0.00192163
-0.00604285
-0.00980392
-0.01332
-0.0165439
-0.0195646
-0.0223407
-0.0249313
-0.0272984
-0.0294808
-0.0314464
-0.0332211
-0.0347796
-0.036139
-0.0372805
-0.038215
-0.0389297
-0.0394305
-0.0397108
-0.0397726
-0.0396153
-0.0392374
-0.0386438
-0.0378303
-0.0368062
-0.0355642
-0.0341168
-0.0324541
-0.0305895
-0.0285118
-0.0262331
-0.0237434
-0.0210479
-0.0181371
-0.0149922
-0.0115872
-0.00783838
-0.00367627
0.0010542
0.00633786
0.0120799
0.0176101
0.0221073
0.0246426
0.0254031
0.0251915
0.0250928
0.0248658
0.0364373
0.0358498
0.0351449
0.0334823
0.031226
0.0279113
0.0239545
0.0192658
0.0143493
0.00926296
0.00439132
-0.000290178
-0.00459353
-0.00863165
-0.0123251
-0.0157925
-0.0189833
-0.0219847
-0.0247512
-0.0273403
-0.0297112
-0.0319021
-0.0338797
-0.0356693
-0.0372451
-0.0386236
-0.0397858
-0.0407412
-0.0414775
-0.0419984
-0.0422986
-0.0423773
-0.0422357
-0.0418695
-0.0412865
-0.0404789
-0.0394601
-0.0382191
-0.0367735
-0.0351094
-0.0332457
-0.0311676
-0.0288923
-0.0264071
-0.0237233
-0.0208331
-0.0177292
-0.0143989
-0.0107776
-0.0068124
-0.00233383
0.00270593
0.00838726
0.0142194
0.01955
0.0230261
0.0246129
0.0244182
0.0243763
0.0240664
0.0342068
0.0336206
0.0328349
0.0310796
0.0286839
0.0252411
0.0211722
0.0164281
0.0115107
0.0064785
0.00169359
-0.00288719
-0.00709408
-0.0110498
-0.0146785
-0.0180988
-0.021257
-0.0242376
-0.0269917
-0.0295753
-0.0319458
-0.0341405
-0.0361255
-0.0379254
-0.0395144
-0.0409076
-0.0420867
-0.043059
-0.0438136
-0.0443512
-0.0446686
-0.0447614
-0.0446339
-0.0442776
-0.0437043
-0.0429019
-0.0418889
-0.0406496
-0.0392075
-0.037544
-0.0356847
-0.0336095
-0.0313426
-0.0288662
-0.026198
-0.0233283
-0.0202589
-0.0169858
-0.0134628
-0.00965814
-0.0054127
-0.000650052
0.00481718
0.010713
0.0165631
0.0209752
0.0234158
0.0235612
0.0234522
0.0231366
0.0318645
0.0312931
0.030439
0.0286219
0.0261269
0.0226114
0.018488
0.0137454
0.00887169
0.00392537
-0.000756924
-0.00523131
-0.00934435
-0.0132227
-0.0167934
-0.0201718
-0.0233021
-0.0262651
-0.0290099
-0.0315899
-0.0339623
-0.0361626
-0.0381571
-0.039969
-0.0415732
-0.0429826
-0.0441803
-0.0451707
-0.0459447
-0.0464995
-0.0468346
-0.0469414
-0.0468279
-0.0464808
-0.0459169
-0.0451185
-0.0441106
-0.0428716
-0.0414326
-0.0397686
-0.0379139
-0.0358417
-0.0335847
-0.0311186
-0.0284687
-0.0256204
-0.0225838
-0.0193582
-0.0159128
-0.0122371
-0.00819187
-0.00370279
0.00147435
0.00724721
0.0133186
0.0185304
0.0217645
0.0225875
0.0223147
0.0220626
0.0294375
0.0288916
0.0279806
0.0261284
0.0235678
0.0200239
0.0158885
0.0111867
0.00638343
0.00153969
-0.00303511
-0.00740332
-0.0114268
-0.0152309
-0.0187462
-0.0220825
-0.0251836
-0.0281254
-0.0308571
-0.0334288
-0.0357984
-0.0379992
-0.0399989
-0.0418178
-0.0434331
-0.0448542
-0.0460667
-0.047071
-0.0478611
-0.0484297
-0.0487799
-0.0488979
-0.0487967
-0.0484568
-0.0479015
-0.0471061
-0.0461035
-0.0448645
-0.0434296
-0.0417658
-0.0399175
-0.0378497
-0.0356057
-0.0331525
-0.0305253
-0.027702
-0.0247008
-0.0215204
-0.018142
-0.0145732
-0.0106945
-0.00645877
-0.00158923
0.00392445
0.0099969
0.0157379
0.0197239
0.0213454
0.0210031
0.0207942
0.0270676
0.0265598
0.0256057
0.0237444
0.0211493
0.017616
0.0135042
0.00887428
0.00416045
-0.000570669
-0.00503777
-0.00930369
-0.0132447
-0.016981
-0.020447
-0.0237457
-0.0268216
-0.0297451
-0.0324664
-0.035032
-0.0374013
-0.0396045
-0.0416115
-0.0434393
-0.0450674
-0.0465016
-0.0477303
-0.0487493
-0.0495566
-0.050139
-0.050505
-0.050634
-0.0505454
-0.0502121
-0.0496654
-0.0488721
-0.0478748
-0.0466348
-0.0452039
-0.043539
-0.0416973
-0.039633
-0.0374028
-0.0349628
-0.0323606
-0.0295639
-0.0266014
-0.0234664
-0.0201504
-0.0166746
-0.0129355
-0.00892676
-0.00435113
0.000821
0.00674483
0.0127018
0.0173848
0.019725
0.0195808
0.0193058
0.0247685
0.0243078
0.023321
0.0214688
0.0188603
0.0153624
0.0112938
0.00674994
0.00212971
-0.00249027
-0.00685703
-0.0110279
-0.0148938
-0.0185662
-0.0219854
-0.0252456
-0.0282944
-0.0311958
-0.0339029
-0.0364573
-0.0388218
-0.0410223
-0.043032
-0.0448635
-0.0465001
-0.0479424
-0.0491832
-0.0502124
-0.0510332
-0.0516256
-0.0520045
-0.0521411
-0.0520632
-0.0517341
-0.0511951
-0.0504023
-0.0494102
-0.0481682
-0.0467421
-0.0450757
-0.0432417
-0.0411809
-0.0389661
-0.0365397
-0.0339654
-0.031197
-0.0282774
-0.0251896
-0.021937
-0.0185465
-0.0149293
-0.0111207
-0.00681472
-0.00201612
0.00365557
0.00956282
0.0148163
0.0177302
0.0180567
0.0175976
0.0226675
0.0222647
0.0212578
0.019433
0.0168304
0.0133897
0.00938068
0.00493448
0.000410392
-0.00410103
-0.00837503
-0.0124591
-0.0162586
-0.0198743
-0.0232529
-0.0264793
-0.0295054
-0.0323881
-0.0350845
-0.0376306
-0.0399933
-0.0421933
-0.0442082
-0.0460451
-0.0476921
-0.0491435
-0.0503979
-0.0514376
-0.052273
-0.0528752
-0.0532676
-0.0534115
-0.0533448
-0.0530192
-0.0524884
-0.0516953
-0.0507087
-0.0494639
-0.0480427
-0.0463737
-0.0445478
-0.042489
-0.0402902
-0.0378761
-0.0353309
-0.0325907
-0.029717
-0.0266772
-0.0234911
-0.0201811
-0.0166768
-0.013044
-0.00898458
-0.00455508
0.000790613
0.00646175
0.0120779
0.0154269
0.0163567
0.0156709
0.0207497
0.0204113
0.019393
0.017605
0.0150172
0.0116419
0.00769482
0.00334373
-0.00109368
-0.00550807
-0.00970273
-0.0137106
-0.0174525
-0.0210159
-0.0243565
-0.0275484
-0.0305502
-0.0334105
-0.0360925
-0.0386254
-0.0409819
-0.0431761
-0.0451915
-0.0470284
-0.0486811
-0.0501362
-0.0513998
-0.052445
-0.053291
-0.0538985
-0.0543014
-0.0544486
-0.0543908
-0.0540656
-0.0535416
-0.0527458
-0.0517644
-0.0505149
-0.049099
-0.0474259
-0.0456086
-0.0435504
-0.0413683
-0.0389652
-0.0364503
-0.0337371
-0.030912
-0.0279201
-0.0248041
-0.0215717
-0.0181772
-0.0146995
-0.0108676
-0.00678169
-0.00180959
0.00351157
0.00924299
0.0128974
0.0143971
0.013537
0.0191225
0.0188572
0.0178396
0.0161005
0.0135383
0.0102384
0.006358
0.00210244
-0.0022538
-0.00657946
-0.0107053
-0.0146469
-0.0183405
-0.0218593
-0.0251687
-0.0283316
-0.0313143
-0.0341567
-0.0368287
-0.0393521
-0.0417061
-0.0438973
-0.0459163
-0.047755
-0.0494157
-0.0508756
-0.0521499
-0.053201
-0.0540588
-0.0546713
-0.0550854
-0.0552355
-0.0551872
-0.0548617
-0.0543451
-0.0535457
-0.0525701
-0.0513147
-0.0499047
-0.048226
-0.0464177
-0.0443583
-0.042193
-0.0397983
-0.0373139
-0.0346252
-0.0318498
-0.0289038
-0.025861
-0.0227032
-0.0194182
-0.0160791
-0.0124598
-0.00868418
-0.00410869
0.000800571
0.00641727
0.0102441
0.0121843
0.011254
0.0177369
0.0175481
0.0165394
0.0148533
0.0123182
0.00909196
0.00527134
0.00110028
-0.00319031
-0.00744309
-0.0115158
-0.0154031
-0.0190579
-0.0225369
-0.0258179
-0.0289514
-0.0319136
-0.0347346
-0.0373933
-0.0399023
-0.0422495
-0.0444323
-0.0464502
-0.0482851
-0.0499492
-0.0514082
-0.052689
-0.0537404
-0.0546061
-0.0552185
-0.0556407
-0.0557889
-0.0557478
-0.0554179
-0.0549071
-0.0541007
-0.0531299
-0.0518658
-0.0504612
-0.0487741
-0.0469747
-0.0449109
-0.0427622
-0.0403724
-0.037918
-0.0352498
-0.0325241
-0.0296203
-0.0266521
-0.0235645
-0.0203894
-0.0171749
-0.0137554
-0.0102552
-0.0060767
-0.00160431
0.00372343
0.00758859
0.00982411
0.0089231
0.0166841
0.0165782
0.0155917
0.0139685
0.0114681
0.00832025
0.00456039
0.000470759
-0.00376117
-0.00795031
-0.0119802
-0.0158231
-0.0194483
-0.0228958
-0.0261558
-0.0292663
-0.0322144
-0.0350196
-0.0376705
-0.0401697
-0.0425149
-0.0446928
-0.0467136
-0.048547
-0.0502175
-0.051677
-0.0529664
-0.0540186
-0.0548939
-0.0555062
-0.0559378
-0.0560836
-0.0560507
-0.0557155
-0.0552115
-0.0543968
-0.0534318
-0.0521572
-0.0507587
-0.049061
-0.0472706
-0.0451995
-0.043067
-0.0406781
-0.0382528
-0.0355999
-0.0329227
-0.0300555
-0.0271615
-0.0241385
-0.0210726
-0.0179703
-0.0147389
-0.0114815
-0.00768386
-0.00364724
0.00128139
0.00506242
0.0074703
0.0066637
0.0158798
0.0158566
0.0149012
0.0133439
0.0108783
0.00780392
0.0040962
7.54589e-05
-0.00411354
-0.00825498
-0.0122576
-0.016068
-0.019673
-0.0230939
-0.0263358
-0.0294229
-0.0323557
-0.0351414
-0.0377815
-0.0402659
-0.0426053
-0.0447727
-0.0467922
-0.0486185
-0.0502914
-0.0517456
-0.0530399
-0.0540874
-0.0549689
-0.0555755
-0.0560135
-0.0561518
-0.0561248
-0.0557794
-0.0552803
-0.0544528
-0.0534921
-0.0522026
-0.050809
-0.0490962
-0.0473136
-0.0452301
-0.0431122
-0.0407181
-0.0383195
-0.0356748
-0.0330433
-0.0302047
-0.0273821
-0.0244151
-0.0214554
-0.0184526
-0.015397
-0.0123509
-0.00890752
-0.00528591
-0.000812105
0.00278529
0.00526633
0.00458292
0.0154089
0.0154701
0.0145613
0.0130813
0.0106608
0.00766546
0.00401368
6.11817e-05
-0.00408817
-0.00818845
-0.0121713
-0.015958
-0.0195512
-0.0229539
-0.0261858
-0.0292569
-0.0321819
-0.0349549
-0.0375909
-0.0400664
-0.042406
-0.0445677
-0.046591
-0.0484135
-0.0500931
-0.0515442
-0.0528467
-0.0538905
-0.0547809
-0.0553822
-0.0558288
-0.0559591
-0.0559398
-0.0555833
-0.0550907
-0.0542486
-0.0532934
-0.0519868
-0.0505987
-0.0488674
-0.0470926
-0.0449921
-0.0428877
-0.0404824
-0.0381082
-0.0354639
-0.0328743
-0.0300548
-0.0272993
-0.0243778
-0.0215192
-0.0186021
-0.01571
-0.0128456
-0.00972505
-0.006485
-0.00248379
0.000857742
0.00332713
0.00276948
0.0151493
0.0152885
0.0144375
0.0130394
0.0106687
0.00775
0.00415026
0.000257667
-0.003863
-0.00793451
-0.0119105
-0.0156836
-0.0192736
-0.0226624
-0.0258871
-0.0289415
-0.0318575
-0.034614
-0.0372432
-0.0397047
-0.0420413
-0.0441918
-0.0462159
-0.0480292
-0.0497125
-0.0511551
-0.0524632
-0.0534979
-0.0543948
-0.0549853
-0.0554384
-0.0555553
-0.0555417
-0.0551685
-0.0546805
-0.0538183
-0.0528668
-0.0515369
-0.0501525
-0.0483961
-0.0466268
-0.0445018
-0.0424078
-0.0399822
-0.037628
-0.0349733
-0.0324199
-0.0296068
-0.0269113
-0.0240212
-0.0212559
-0.0184076
-0.0156651
-0.0129525
-0.0101217
-0.00722102
-0.00368518
-0.000644388
0.00173749
0.00129264
0.0151918
0.0154035
0.0146276
0.0133262
0.0110235
0.00819236
0.00465652
0.000830148
-0.0032571
-0.00730041
-0.011272
-0.0150375
-0.0186311
-0.0220141
-0.02524
-0.0282862
-0.031202
-0.0339501
-0.036581
-0.0390359
-0.0413772
-0.0435227
-0.0455546
-0.0473633
-0.0490563
-0.0504937
-0.0518126
-0.0528402
-0.0537479
-0.0543285
-0.0547918
-0.0548951
-0.0548904
-0.0544994
-0.0540186
-0.0531341
-0.0521883
-0.0508319
-0.0494522
-0.0476661
-0.0459021
-0.0437461
-0.0416608
-0.0392063
-0.0368687
-0.0341923
-0.0316693
-0.0288487
-0.0262054
-0.0233305
-0.020649
-0.0178507
-0.0152435
-0.0126532
-0.01008
-0.00747264
-0.00438047
-0.00166138
0.000565689
0.000213407
0.0153711
0.0156401
0.0149522
0.0137551
0.011535
0.00879613
0.00533023
0.0015707
-0.00248471
-0.00650466
-0.0104789
-0.0142431
-0.0178467
-0.0212268
-0.0244564
-0.0274928
-0.0304077
-0.0331433
-0.0357737
-0.0382168
-0.0405611
-0.0426964
-0.0447346
-0.0465339
-0.0482357
-0.049663
-0.050992
-0.0520076
-0.0529255
-0.0534909
-0.0539636
-0.0540476
-0.0540509
-0.0536358
-0.0531611
-0.0522475
-0.0513056
-0.049915
-0.0485378
-0.046713
-0.0449512
-0.0427536
-0.0406728
-0.0381769
-0.0358497
-0.0331365
-0.0306358
-0.0277898
-0.0251885
-0.0223083
-0.0196985
-0.0169272
-0.0144393
-0.0119399
-0.00959273
-0.0072294
-0.00454912
-0.00215102
-0.000134234
-0.000416015
0.0158015
0.0161138
0.0155305
0.0144545
0.0123463
0.00971885
0.00634605
0.00266985
-0.00133748
-0.00532532
-0.00929684
-0.0130606
-0.016678
-0.0200625
-0.0233045
-0.0263409
-0.0292653
-0.0319982
-0.034639
-0.0370794
-0.0394368
-0.0415698
-0.0436237
-0.04542
-0.047139
-0.0485611
-0.0499075
-0.0509143
-0.0518489
-0.052401
-0.0528887
-0.052954
-0.05297
-0.0525301
-0.0520653
-0.0511203
-0.0501854
-0.0487566
-0.0473835
-0.0455141
-0.0437546
-0.0415071
-0.0394287
-0.03688
-0.0345588
-0.031794
-0.0293083
-0.0264181
-0.0238486
-0.0209409
-0.0183902
-0.0156209
-0.0132363
-0.0107959
-0.00864585
-0.00647709
-0.00417199
-0.00207684
-0.000310811
-0.000541788
0.0162645
0.0165986
0.0161302
0.0151852
0.0132141
0.0107137
0.00745291
0.00387371
-7.36864e-05
-0.004022
-0.00798826
-0.0117505
-0.015384
-0.0187725
-0.0220286
-0.0250623
-0.0279963
-0.030722
-0.0333726
-0.0358055
-0.0381761
-0.0403025
-0.0423732
-0.0441625
-0.0459005
-0.0473134
-0.0486794
-0.0496731
-0.0506264
-0.0511601
-0.0516644
-0.051705
-0.0517347
-0.051263
-0.0508083
-0.0498236
-0.048895
-0.0474182
-0.0460475
-0.0441219
-0.0423617
-0.0400504
-0.0379696
-0.0353514
-0.0330293
-0.0301929
-0.0277126
-0.0247548
-0.0222047
-0.0192426
-0.0167362
-0.0139393
-0.0116406
-0.00922391
-0.00724264
-0.00521676
-0.00324489
-0.00141783
7.60984e-05
-0.000118668
0.016927
0.0172669
0.0169193
0.0161206
0.0143213
0.011977
0.00886211
0.0054083
0.00155021
-0.00233725
-0.00628176
-0.0100353
-0.0136835
-0.017081
-0.0203598
-0.0234017
-0.0263582
-0.029089
-0.0317633
-0.0342003
-0.0365976
-0.0387274
-0.0408275
-0.0426181
-0.0443867
-0.045797
-0.0471928
-0.0481783
-0.0491593
-0.0496777
-0.0502066
-0.0502239
-0.0502742
-0.0497703
-0.0493315
-0.0483049
-0.047387
-0.0458579
-0.0444925
-0.0425036
-0.0407436
-0.0383582
-0.0362737
-0.0335717
-0.0312442
-0.0283172
-0.0258345
-0.0227851
-0.0202431
-0.0171983
-0.0147223
-0.0118663
-0.00963726
-0.00720851
-0.00537129
-0.0034377
-0.00175731
-0.000152086
0.00106783
0.000902294
0.017503
0.0178313
0.0176008
0.0169577
0.0153583
0.0131984
0.0102603
0.00696177
0.00322073
-0.000580785
-0.00448671
-0.0082175
-0.011875
-0.0152748
-0.0185765
-0.021622
-0.0246024
-0.0273341
-0.0300344
-0.0324716
-0.0348993
-0.0370292
-0.0391637
-0.0409529
-0.0427577
-0.0441625
-0.0455941
-0.0465677
-0.0475819
-0.0480803
-0.0486385
-0.0486262
-0.0487007
-0.0481566
-0.0477363
-0.0466579
-0.045752
-0.0441585
-0.0427982
-0.0407315
-0.0389697
-0.0364928
-0.0344002
-0.0315934
-0.0292538
-0.0262111
-0.0237162
-0.0205457
-0.0179994
-0.0148383
-0.0123784
-0.00942657
-0.0072514
-0.00477006
-0.00305345
-0.00115777
0.000275308
0.0017188
0.0026846
0.0025505
0.0182548
0.0185643
0.0184342
0.0179531
0.0165774
0.0146369
0.011915
0.00881119
0.00522836
0.00154886
-0.00228826
-0.00597686
-0.00963411
-0.013036
-0.016368
-0.0194286
-0.022449
-0.0251967
-0.0279414
-0.0303936
-0.0328697
-0.0350129
-0.0371984
-0.0389971
-0.0408534
-0.0422613
-0.0437424
-0.0447106
-0.0457703
-0.046253
-0.0468513
-0.0468118
-0.0469202
-0.0463361
-0.0459425
-0.0448102
-0.043923
-0.0422604
-0.0409103
-0.0387578
-0.036997
-0.0344163
-0.0323159
-0.0293871
-0.0270319
-0.0238505
-0.0213363
-0.0180153
-0.0154541
-0.0121416
-0.00968522
-0.00659883
-0.00446474
-0.00188913
-0.000276214
0.00163426
0.00285696
0.00420357
0.00495001
0.00485972
0.0188002
0.0190844
0.0190344
0.0187167
0.0175817
0.0158972
0.0134307
0.0105689
0.00718857
0.00367874
-5.34141e-05
-0.00366541
-0.00730395
-0.0106897
-0.014048
-0.0171155
-0.0201795
-0.0229396
-0.0257361
-0.0282015
-0.0307353
-0.0328906
-0.035138
-0.0369451
-0.038864
-0.0402734
-0.0418148
-0.0427745
-0.0438898
-0.0443518
-0.0449991
-0.0449252
-0.0450748
-0.0444413
-0.0440803
-0.042882
-0.0420181
-0.0402714
-0.0389342
-0.0366778
-0.0349188
-0.0322127
-0.0301026
-0.0270259
-0.0246506
-0.0212995
-0.0187588
-0.0152513
-0.0126659
-0.00916153
-0.00669911
-0.00343433
-0.00133258
0.00138493
0.00290686
0.0048923
0.00594005
0.00726865
0.0078469
0.00782445
0.0195497
0.0198108
0.0198102
0.0196399
0.0187419
0.0173383
0.0151619
0.012587
0.00945779
0.00616752
0.00258508
-0.000914978
-0.00451299
-0.00787281
-0.011261
-0.0143453
-0.017472
-0.0202629
-0.0231354
-0.0256333
-0.0282491
-0.0304336
-0.0327648
-0.0345944
-0.0365959
-0.0380178
-0.0396373
-0.0405969
-0.0417835
-0.0422309
-0.0429411
-0.0428365
-0.0430398
-0.042358
-0.0420406
-0.0407751
-0.0399437
-0.0381086
-0.0367918
-0.0344233
-0.0326714
-0.0298267
-0.0277094
-0.0244652
-0.0220689
-0.0185212
-0.015949
-0.01222
-0.00960261
-0.00586399
-0.00338727
0.000103425
0.00217785
0.00508787
0.00652162
0.00864076
0.00953121
0.0109181
0.0113765
0.0114558
0.0199705
0.0202045
0.0202374
0.0201986
0.019538
0.0184449
0.0166013
0.0143754
0.011558
0.00856052
0.00518716
0.00186157
-0.00165785
-0.00495392
-0.00835966
-0.0114448
-0.0146397
-0.0174577
-0.0204209
-0.0229527
-0.0256687
-0.0278849
-0.0303192
-0.0321728
-0.0342755
-0.0357096
-0.0374246
-0.0383812
-0.0396549
-0.0400817
-0.0408692
-0.0407247
-0.0409942
-0.0402519
-0.039989
-0.0386406
-0.0378512
-0.0359086
-0.0346201
-0.0321166
-0.0303777
-0.0273671
-0.0252463
-0.0218025
-0.0193864
-0.0156046
-0.0130005
-0.00900708
-0.00635727
-0.00233666
0.000151995
0.00392062
0.00596053
0.00912135
0.0104591
0.0127857
0.0135307
0.015075
0.0154681
0.0156987
0.0206888
0.0209
0.0209425
0.0209937
0.0205309
0.0197376
0.0182401
0.0164008
0.0139431
0.0112965
0.00818792
0.00508844
0.00168364
-0.00152473
-0.0049438
-0.00803402
-0.0113169
-0.0141823
-0.0172666
-0.0198565
-0.0227045
-0.0249745
-0.027541
-0.0294369
-0.0316663
-0.033127
-0.0349597
-0.0359243
-0.0373046
-0.0377191
-0.0386007
-0.0384221
-0.0387728
-0.0379732
-0.0377783
-0.0363474
-0.0356118
-0.0335589
-0.0323087
-0.0296631
-0.0279452
-0.0247563
-0.0226373
-0.0189743
-0.0165404
-0.0124958
-0.00985864