/*--------------------------------*- C++ -*----------------------------------*\
| =========                 |                                                 |
| \\      /  F ield         | OpenFOAM: The Open Source CFD Toolbox           |
|  \\    /   O peration     | Version:  2406                                  |
|   \\  /    A nd           | Website:  www.openfoam.com                      |
|    \\/     M anipulation  |                                                 |
\*---------------------------------------------------------------------------*/
FoamFile
{
    version     2.0;
    format      ascii;
    arch        "LSB;label=32;scalar=64";
    class       surfaceScalarField;
    location    "100";
    object      phi;
}
// * * * * * * * * * * * * * * * * * * * * * * * * * * * * * * * * * * * * * //

dimensions      [0 3 -1 0 0 0 0];

oriented        oriented;

internalField   nonuniform List<scalar> 
1984
(
5.89734e-06
-5.89701e-06
1.61765e-05
-1.02791e-05
2.40408e-05
-7.8643e-06
2.75608e-05
-3.52008e-06
2.82685e-05
-7.07715e-07
2.7906e-05
3.62539e-07
2.66197e-05
1.28629e-06
2.29482e-05
3.67156e-06
1.34999e-05
9.44828e-06
-7.6468e-06
2.11467e-05
-4.46845e-05
3.70377e-05
-9.79069e-05
5.32224e-05
-0.000162309
6.44024e-05
-0.000228928
6.6619e-05
-0.000287759
5.88306e-05
-0.000331308
4.3549e-05
-0.000355127
2.38188e-05
-0.000357726
2.5997e-06
-0.000335859
-2.18675e-05
-0.000289948
-4.5911e-05
-0.00022204
-6.79081e-05
-0.000136629
-8.54108e-05
-4.17707e-05
-9.48583e-05
5.07737e-05
-9.25444e-05
0.000126011
-7.52375e-05
0.000166216
-4.02051e-05
0.000163673
2.54355e-06
0.000127186
3.64871e-05
8.05614e-05
4.66242e-05
4.09018e-05
3.96596e-05
1.32828e-05
2.7619e-05
1.32828e-05
1.14893e-05
-1.73863e-05
2.90686e-05
-2.78585e-05
4.06955e-05
-1.94911e-05
4.32086e-05
-6.03328e-06
3.76754e-05
4.82554e-06
2.43615e-05
1.36764e-05
-1.34054e-06
2.69883e-05
-4.86135e-05
5.09445e-05
-0.000124266
8.51009e-05
-0.000223952
0.000120833
-0.000334663
0.000147749
-0.000439603
0.000158162
-0.000527692
0.000152491
-0.000594895
0.000133822
-0.000640932
0.000104867
-0.000665939
6.85566e-05
-0.000669174
2.70537e-05
-0.000649137
-1.74372e-05
-0.000607563
-6.34417e-05
-0.000543528
-0.000109947
-0.000457435
-0.000154001
-0.000351627
-0.000191219
-0.000231201
-0.000215284
-0.000105657
-0.000218089
1.04526e-05
-0.000191347
0.000102936
-0.000132689
0.000149936
-4.44562e-05
0.000151408
3.50146e-05
0.000119613
7.84199e-05
7.2921e-05
8.63514e-05
2.72503e-05
7.32898e-05
4.0533e-05
1.41554e-05
-3.15417e-05
3.09189e-05
-4.4622e-05
3.64963e-05
-2.50686e-05
2.80023e-05
2.46079e-06
3.79327e-06
2.90345e-05
-4.28561e-05
6.03258e-05
-0.000121161
0.000105293
-0.000232024
0.000161808
-0.000360843
0.00021392
-0.000486102
0.000246092
-0.000594733
0.000256379
-0.00068342
0.00024685
-0.000751742
0.000220814
-0.000800746
0.000182825
-0.000832028
0.00013615
-0.000846757
8.32854e-05
-0.000844829
2.51258e-05
-0.000826913
-3.53537e-05
-0.000792619
-9.77358e-05
-0.000740786
-0.000161779
-0.000669968
-0.000224819
-0.000579107
-0.000282079
-0.000468627
-0.000325763
-0.000341547
-0.000345169
-0.000206429
-0.000326466
-7.94701e-05
-0.000259647
1.88259e-05
-0.000142752
6.68069e-05
-1.29664e-05
7.13819e-05
7.38448e-05
5.09496e-05
0.000106784
2.02072e-05
0.000104032
6.07403e-05
1.38002e-05
-4.53419e-05
2.20227e-05
-5.28444e-05
1.21075e-05
-1.51534e-05
-1.97715e-05
3.43398e-05
-7.95926e-05
8.88557e-05
-0.000174559
0.000155293
-0.000300564
0.000231298
-0.000437515
0.000298759
-0.000564684
0.000341089
-0.000672249
0.000353657
-0.000757778
0.000341909
-0.000822695
0.000311767
-0.000869974
0.000268093
-0.000902402
0.000215253
-0.000922331
0.000156079
-0.000931251
9.22057e-05
-0.000929409
2.32836e-05
-0.000918151
-4.66111e-05
-0.000896817
-0.00011907
-0.000863675
-0.000194921
-0.000816288
-0.000272207
-0.000751308
-0.000347059
-0.000664996
-0.000412076
-0.000554971
-0.000455194
-0.000420547
-0.000460889
-0.00027082
-0.000409374
-0.000126614
-0.000286959
-2.4972e-05
-0.000114608
1.4909e-05
3.39638e-05
1.83807e-05
0.000103312
7.50495e-06
0.000114908
6.82452e-05
7.53792e-06
-5.28799e-05
-1.81576e-06
-4.34907e-05
-3.66222e-05
1.9653e-05
-0.000101493
9.92106e-05
-0.00020039
0.000187752
-0.000327765
0.000282667
-0.000464254
0.000367787
-0.000588748
0.000423252
-0.000690293
0.000442634
-0.000768718
0.000432082
-0.000826253
0.000399445
-0.000866091
0.000351604
-0.000892096
0.000294097
-0.000907614
0.000230772
-0.000915372
0.000163836
-0.000917399
9.42332e-05
-0.00091571
2.15941e-05
-0.000910386
-5.19351e-05
-0.000901005
-0.000128451
-0.000886949
-0.000208977
-0.000866064
-0.000293092
-0.000834217
-0.000378906
-0.000784912
-0.00046138
-0.000709685
-0.000530421
-0.000601276
-0.000569298
-0.000455432
-0.000555218
-0.000280217
-0.000462174
-0.000114558
-0.000280267
-2.14272e-05
-5.91669e-05
8.52898e-07
8.1032e-05
1.21937e-06
0.000114541
6.94646e-05
-6.65257e-06
-4.62273e-05
-4.02717e-05
-9.87158e-06
-0.000104451
8.38327e-05
-0.000199395
0.000194154
-0.000320195
0.000308552
-0.00045076
0.000413233
-0.000570087
0.000487114
-0.000665704
0.000518869
-0.000736151
0.000513081
-0.00078456
0.000480491
-0.000815005
0.000429889
-0.000832088
0.000368687
-0.000839913
0.000301923
-0.000841741
0.0002326
-0.000840031
0.000162125
-0.000836504
9.07058e-05
-0.000833629
1.87196e-05
-0.000830611
-5.49535e-05
-0.000827865
-0.000131196
-0.000825946
-0.000210896
-0.000824293
-0.000294745
-0.000820288
-0.000382911
-0.000808286
-0.000473382
-0.000778564
-0.000560143
-0.000717163
-0.000630699
-0.000609098
-0.000663283
-0.000444466
-0.000626806
-0.000237513
-0.00048722
-6.12054e-05
-0.000235475
1.34297e-06
1.84837e-05
3.03045e-06
0.000112854
7.2495e-05
-2.63624e-05
-1.98648e-05
-8.58949e-05
4.96609e-05
-0.00017364
0.000171578
-0.000284488
0.000305001
-0.000406373
0.000430438
-0.000520516
0.000527376
-0.000612363
0.00057896
-0.000677665
0.000584172
-0.000719732
0.000555148
-0.000743433
0.000504192
-0.000754068
0.000440524
-0.000756576
0.000371195
-0.000754504
0.000299851
-0.000750339
0.000228434
-0.000745549
0.000157336
-0.000741183
8.63396e-05
-0.00073792
1.54568e-05
-0.000735493
-5.73806e-05
-0.000734529
-0.00013216
-0.000735864
-0.000209561
-0.000740088
-0.000290521
-0.000747228
-0.000375771
-0.000755316
-0.000465295
-0.000758528
-0.000556931
-0.00074361
-0.000645618
-0.00069045
-0.000716443
-0.000576089
-0.000741167
-0.000387043
-0.000676266
-0.000150338
-0.00047218
-2.58917e-06
-0.000129265
9.67767e-06
0.000100587
8.21727e-05
-4.56413e-05
2.57764e-05
-0.000125377
0.000129396
-0.000225996
0.000272198
-0.000338591
0.000417596
-0.000448014
0.000539861
-0.000539158
0.000618521
-0.000604012
0.000643814
-0.000644156
0.000624316
-0.000665347
0.000576338
-0.000673421
0.000512267
-0.000673985
0.000441088
-0.000671083
0.000368293
-0.000667179
0.000295948
-0.000663454
0.000224709
-0.000660272
0.000154154
-0.000657791
8.38591e-05
-0.00065559
1.32561e-05
-0.0006542
-5.87706e-05
-0.000653889
-0.000132471
-0.000655179
-0.000208272
-0.000658973
-0.000286727
-0.000666351
-0.000368392
-0.000677768
-0.000453878
-0.000691176
-0.000543523
-0.000700588
-0.000636206
-0.000690197
-0.000726834
-0.000634783
-0.000796581
-0.000504973
-0.000806076
-0.000288713
-0.00068844
-5.18462e-05
-0.000366132
1.64459e-05
3.2295e-05
9.86186e-05
-5.91029e-05
8.48793e-05
-0.000150255
0.000220548
-0.00025364
0.000375584
-0.000358272
0.000522227
-0.000450173
0.000631762
-0.000518818
0.000687166
-0.000561874
0.000686869
-0.000584425
0.000646868
-0.000593156
0.000585069
-0.000594005
0.000513116
-0.000591724
0.000438806
-0.000588864
0.000365433
-0.000586507
0.00029359
-0.000584857
0.00022306
-0.000583754
0.00015305
-0.00058297
8.30755e-05
-0.000582367
1.26524e-05
-0.000582043
-5.90943e-05
-0.00058235
-0.000132164
-0.000583724
-0.000206898
-0.000586877
-0.000283574
-0.000592802
-0.000362467
-0.000602505
-0.000444174
-0.000616195
-0.000529834
-0.000631569
-0.000620832
-0.000641269
-0.000717133
-0.0006267
-0.00081115
-0.000558535
-0.00087424
-0.000402127
-0.000844848
-0.000139494
-0.000628765
2.23968e-05
-0.000129596
0.000121015
-6.52632e-05
0.000150143
-0.000159041
0.000314325
-0.000257375
0.000473919
-0.000348751
0.000613603
-0.000422739
0.000705751
-0.000472777
0.000737204
-0.000500495
0.000714587
-0.000512591
0.000658963
-0.000515597
0.000588076
-0.000514712
0.000512231
-0.000513143
0.000437237
-0.000512087
0.000364377
-0.000511789
0.000293292
-0.000512002
0.000223273
-0.000512496
0.000153544
-0.000513104
8.36835e-05
-0.000513659
1.32074e-05
-0.000514455
-5.82981e-05
-0.000515561
-0.000131058
-0.000517213
-0.000205246
-0.000519825
-0.000280963
-0.000524066
-0.000358226
-0.000530987
-0.000437253
-0.000541861
-0.00051896
-0.000557116
-0.000605577
-0.000573942
-0.000700308
-0.000581096
-0.000803997
-0.000553222
-0.000902114
-0.000452524
-0.000945546
-0.00025285
-0.00082844
-1.17589e-05
-0.000370687
0.000109256
-6.39317e-05
0.000214074
-0.00015299
0.000403383
-0.00024095
0.000561879
-0.000317993
0.000690646
-0.000376083
0.00076384
-0.000412193
0.000773313
-0.000430282
0.000732676
-0.000437227
0.000665909
-0.000438718
0.000589566
-0.000438613
0.000512126
-0.000438805
0.00043743
-0.000439628
0.0003652
-0.000440942
0.000294606
-0.000442459
0.000224791
-0.000444061
0.000155145
-0.000445699
8.53218e-05
-0.000447416
1.49241e-05
-0.000449374
-5.63405e-05
-0.000451669
-0.000128763
-0.000454379
-0.000202536
-0.000457577
-0.000277765
-0.000461391
-0.000354412
-0.000466251
-0.000432393
-0.000473277
-0.000511934
-0.000484364
-0.00059449
-0.000500624
-0.000684047
-0.000518063
-0.000786557
-0.000518255
-0.000901922
-0.000468837
-0.000994964
-0.000332362
-0.000964915
-6.68114e-05
-0.000636237
4.2445e-05
-5.63275e-05
0.000270402
-0.000135434
0.00048249
-0.000210594
0.000637039
-0.000273501
0.000753553
-0.000318417
0.000808757
-0.00034477
0.000799666
-0.000357426
0.000745332
-0.000362486
0.000670968
-0.000364392
0.000591473
-0.000365796
0.00051353
-0.000367598
0.000439232
-0.000369738
0.000367339
-0.00037201
0.000296877
-0.000374252
0.000227033
-0.000376481
0.000157374
-0.000378764
8.76044e-05
-0.000381264
1.74247e-05
-0.000384084
-5.35209e-05
-0.000387346
-0.000125501
-0.000391116
-0.000198766
-0.000395376
-0.000273504
-0.000400028
-0.00034976
-0.000404983
-0.000427438
-0.000410506
-0.000506411
-0.00041786
-0.000587137
-0.000429576
-0.000672331
-0.000447232
-0.000768901
-0.000463755
-0.000885399
-0.000449461
-0.00100926
-0.000350612
-0.00106376
-0.000130307
-0.000856543
-8.78616e-05
-4.42734e-05
0.000314675
-0.000110147
0.000548363
-0.000171586
0.000698477
-0.000221295
0.000803262
-0.000255657
0.000843119
-0.000275433
0.000819442
-0.000285269
0.000755168
-0.000290039
0.000675738
-0.000292927
0.000594361
-0.000295663
0.000516265
-0.000298571
0.00044214
-0.000301505
0.000370274
-0.000304346
0.000299718
-0.000307082
0.00022977
-0.000309834
0.000160126
-0.000312743
9.05135e-05
-0.000315956
2.06378e-05
-0.000319601
-4.98764e-05
-0.000323753
-0.000121348
-0.000328442
-0.000194077
-0.000333616
-0.00026833
-0.00033911
-0.000344267
-0.000344671
-0.000421877
-0.000350139
-0.000500943
-0.000356037
-0.000581239
-0.000364489
-0.000663879
-0.000379199
-0.000754191
-0.000400256
-0.000864342
-0.000407673
-0.00100184
-0.000354717
-0.00111672
-0.000201693
-0.00100957
-0.000289554
-2.94235e-05
0.000344099
-8.01605e-05
0.0005991
-0.00012778
0.000746097
-0.000165555
0.000841037
-0.000191398
0.000868961
-0.000206609
0.000834653
-0.000215002
0.000763562
-0.000220041
0.000680777
-0.000223881
0.000598202
-0.000227535
0.00051992
-0.00023109
0.000445695
-0.000234467
0.000373651
-0.00023766
0.00030291
-0.000240771
0.000232881
-0.000243971
0.000163326
-0.000247423
9.3966e-05
-0.000251277
2.44913e-05
-0.000255645
-4.55081e-05
-0.000260604
-0.00011639
-0.000266185
-0.000188495
-0.000272342
-0.000262173
-0.000278893
-0.000337716
-0.000285485
-0.000415285
-0.000291639
-0.000494789
-0.00029718
-0.000575697
-0.000303275
-0.000657784
-0.00031345
-0.000744016
-0.000330668
-0.000847124
-0.000347403
-0.000985105
-0.000326583
-0.00113754
-0.000216073
-0.00112008
-0.000505628
-1.29932e-05
0.000357092
-4.77182e-05
0.000633825
-8.19328e-05
0.000780312
-0.000108838
0.000867942
-0.000127721
0.000887845
-0.000139593
0.000846525
-0.000147147
0.000771116
-0.00015248
0.00068611
-0.000156919
0.000602641
-0.000161027
0.000524027
-0.000164844
0.000449512
-0.000168402
0.000377209
-0.000171789
0.000306297
-0.000175178
0.00023627
-0.000178758
0.000166906
-0.000182698
9.79056e-05
-0.00018713
2.89235e-05
-0.000192167
-4.04716e-05
-0.00019787
-0.000110686
-0.000204266
-0.0001821
-0.00021132
-0.000255119
-0.000218899
-0.000330136
-0.000226724
-0.000407461
-0.000234309
-0.000487204
-0.000241124
-0.000568883
-0.000247242
-0.000651666
-0.000255088
-0.000736169
-0.000269329
-0.000832884
-0.00028808
-0.000966354
-0.000281863
-0.00114376
-0.000192057
-0.00120988
-0.000697685
3.82568e-06
0.000353266
-1.46494e-05
0.0006523
-3.5914e-05
0.000801576
-5.29231e-05
0.000884951
-6.56532e-05
0.000900575
-7.45421e-05
0.000855413
-8.129e-05
0.000777864
-8.66958e-05
0.000691516
-9.13959e-05
0.000607341
-9.56241e-05
0.000528255
-9.94517e-05
0.000453339
-0.000103014
0.000380771
-0.000106474
0.000309756
-0.000110043
0.00023984
-0.000113919
0.000170783
-0.000118275
0.000102261
-0.000123243
3.38919e-05
-0.000128935
-3.47791e-05
-0.000135411
-0.00010421
-0.000142694
-0.000174817
-0.00015075
-0.000247063
-0.000159454
-0.000321433
-0.000168542
-0.000398372
-0.000177547
-0.000478199
-0.000185796
-0.000560633
-0.000192789
-0.000644673
-0.00019977
-0.000729189
-0.00021151
-0.000821144
-0.000230434
-0.00094743
-0.000234482
-0.00113971
-0.000165383
-0.00127898
-0.000863068
1.93076e-05
0.000333959
1.78456e-05
0.000653762
9.20114e-06
0.000810221
1.78975e-07
0.000893973
-6.09174e-06
0.000906845
-1.19238e-05
0.000861245
-1.73777e-05
0.000783318
-2.24823e-05
0.00069662
-2.70985e-05
0.000611957
-3.11805e-05
0.000532338
-3.47757e-05
0.000456934
-3.81262e-05
0.000384122
-4.14725e-05
0.000313103
-4.50596e-05
0.000243427
-4.90947e-05
0.000174818
-5.37541e-05
0.00010692
-5.91805e-05
3.93183e-05
-6.5491e-05
-2.84686e-05
-7.27303e-05
-9.69707e-05
-8.09418e-05
-0.000166606
-9.01087e-05
-0.000237896
-0.000100138
-0.000311404
-0.000110833
-0.000387677
-0.000121803
-0.000467228
-0.000132405
-0.000550032
-0.000141859
-0.000635219
-0.000150293
-0.000720755
-0.000161538
-0.000809899
-0.000180017
-0.000928951
-0.000190138
-0.00112959
-0.000139333
-0.00132979
-0.0010024
3.4015e-05
0.000299944
4.91112e-05
0.000638666
5.38233e-05
0.000805509
5.56215e-05
0.000892175
5.42697e-05
0.000908197
5.0625e-05
0.00086489
4.57507e-05
0.000788192
4.08519e-05
0.000701519
3.65204e-05
0.000616289
3.2855e-05
0.000536003
2.97051e-05
0.000460084
2.67468e-05
0.00038708
2.36756e-05
0.000316174
2.02187e-05
0.000246884
1.61598e-05
0.000178877
1.13113e-05
0.000111769
5.51531e-06
4.51143e-05
-1.35596e-06
-2.15973e-05
-9.40231e-06
-8.89244e-05
-1.8635e-05
-0.000157373
-2.90408e-05
-0.00022749
-4.05432e-05
-0.000299901
-5.29732e-05
-0.000375247
-6.59483e-05
-0.000454253
-7.90078e-05
-0.000536972
-9.1381e-05
-0.000622846
-0.00010269
-0.000709446
-0.000115146
-0.000797443
-0.000134783
-0.000909314
-0.000151817
-0.00111255
-0.000117743
-0.00136386
-0.00112014
4.63655e-05
0.000253578
7.77902e-05
0.000607241
9.55211e-05
0.000787778
0.000106653
0.000881043
0.000111671
0.000903179
0.000111306
0.000865255
0.000107771
0.000791728
0.000103414
0.000705876
9.95331e-05
0.000620169
9.6476e-05
0.00053906
9.40167e-05
0.000462543
9.1716e-05
0.000389381
8.91832e-05
0.000318707
8.61004e-05
0.000249967
8.22176e-05
0.000182759
7.73226e-05
0.000116664
7.12347e-05
5.12023e-05
6.37935e-05
-1.41561e-05
5.4965e-05
-8.00959e-05
4.46651e-05
-0.000147073
3.29006e-05
-0.000215726
1.97353e-05
-0.000286736
5.35903e-06
-0.000360871
-1.02041e-05
-0.00043869
-2.63347e-05
-0.000520842
-4.25917e-05
-0.000606589
-5.81502e-05
-0.000693888
-7.38015e-05
-0.000781792
-9.57726e-05
-0.000887343
-0.000118259
-0.00109007
-9.95129e-05
-0.00138261
-0.00121966
5.46771e-05
0.000198901
0.000102213
0.000559705
0.0001333
0.000756691
0.000154193
0.00086015
0.000166231
0.000891141
0.000170267
0.000861219
0.000169134
0.000792861
0.000166026
0.000708984
0.000162954
0.000623241
0.000160668
0.000541346
0.000159033
0.000464179
0.000157551
0.000390862
0.000155741
0.000320517
0.000153215
0.000252493
0.000149675
0.000186299
0.000144878
0.00012146
0.000138611
5.747e-05
0.000130676
-6.22167e-06
0.000121031
-7.04505e-05
0.000109567
-0.000135609
9.6268e-05
-0.000202427
8.11818e-05
-0.00027165
6.44095e-05
-0.000344098
4.62287e-05
-0.000420509
2.69229e-05
-0.000501536
6.61309e-06
-0.000586279
-1.32397e-05
-0.000674035
-3.46525e-05
-0.000760379
-6.16434e-05
-0.000860352
-9.12537e-05
-0.00106046
-8.50271e-05
-0.00138883
-0.00130468
5.72013e-05
0.0001417
0.000120635
0.000496272
0.000165844
0.000711482
0.000197362
0.000828632
0.00021723
0.000871274
0.000226685
0.000851764
0.000228958
0.000790588
0.000227883
0.000710059
0.00022616
0.000624964
0.000225016
0.00054249
0.000224512
0.000464683
0.000224157
0.000391217
0.000223392
0.000321282
0.000221742
0.000254143
0.000218831
0.000189209
0.000214373
0.000125918
0.000208125
6.37184e-05
0.000199781
2.12274e-06
0.00018938
-6.00503e-05
0.000176735
-0.000122964
0.000161814
-0.000187505
0.000144612
-0.000254449
0.000125207
-0.000324693
0.000103717
-0.000399019
8.03076e-05
-0.000478127
5.55114e-05
-0.000561483
2.92857e-05
-0.000647809
2.67749e-08
-0.00073112
-3.1188e-05
-0.000829138
-6.79615e-05
-0.00102368
-7.29311e-05
-0.00138386
-0.00137762
5.30947e-05
8.86049e-05
0.000131178
0.000418189
0.000191109
0.000651551
0.000234337
0.000785404
0.000263527
0.000842084
0.000280159
0.000835131
0.000287509
0.000783238
0.000289806
0.000707762
0.000290342
0.000624428
0.000290866
0.000541966
0.000291798
0.000463751
0.00029279
0.000390226
0.000293264
0.000320808
0.000292673
0.000254734
0.000290564
0.000191319
0.000286575
0.000129907
0.000280406
6.98868e-05
0.000271902
1.06267e-05
0.000260746
-4.88934e-05
0.00024692
-0.000109139
0.00023033
-0.000170915
0.000210919
-0.000235038
0.000188713
-0.000302487
0.000163688
-0.000373994
0.000135928
-0.000450367
0.000105471
-0.000531025
7.24496e-05
-0.000614788
3.75108e-05
-0.000696181
-9.75266e-07
-0.000790652
-4.76203e-05
-0.000977037
-6.30391e-05
-0.00136845
-0.00144065
4.36558e-05
4.49491e-05
0.000132601
0.000329243
0.000206968
0.000577184
0.000262752
0.00072962
0.000302469
0.000802366
0.000327891
0.000809709
0.000342198
0.000768931
0.000349647
0.000700313
0.000353858
0.000620218
0.000357074
0.00053875
0.00036015
0.000460675
0.000363005
0.00038737
0.000365147
0.000318666
0.000366003
0.000253878
0.000365048
0.000192273
0.000361865
0.00013309
0.000356123
7.56294e-05
0.000347511
1.9238e-05
0.000335803
-3.7185e-05
0.000320902
-9.42379e-05
0.000302672
-0.000152685
0.000280973
-0.000213338
0.000255726
-0.00027724
0.000226757
-0.000345024
0.000193969
-0.00041758
0.000157102
-0.000494158
0.000116404
-0.000574089
7.28033e-05
-0.000652581
2.4788e-05
-0.000742636
-2.9443e-05
-0.000922806
-5.45537e-05
-0.00134334
-0.00149521
3.17038e-05
1.32454e-05
0.000123859
0.000237088
0.000210467
0.000490576
0.000279678
0.00066041
0.000331675
0.000750369
0.000368328
0.000773056
0.000392366
0.000744894
0.000407608
0.000685071
0.000417705
0.00061012
0.000425232
0.000531224
0.00043151
0.000454397
0.000436868
0.000382012
0.00044105
0.000314484
0.000443575
0.000251353
0.000443941
0.000191908
0.000441689
0.000135343
0.000436443
8.08752e-05
0.00042792
2.77612e-05
0.000415747
-2.50118e-05
0.000399831
-7.83227e-05
0.000379973
-0.000132827
0.000355906
-0.000189271
0.00032743
-0.000248764
0.000294179
-0.000311773
0.000255862
-0.000379262
0.000212008
-0.000450304
0.000162765
-0.000524846
0.000108939
-0.000598755
5.10546e-05
-0.000684752
-1.31664e-05
-0.000858585
-4.72076e-05
-0.00130929
-0.00154242
2.08274e-05
-7.58203e-06
0.00010473
0.000153185
0.000199958
0.000395348
0.000280826
0.000579542
0.000345783
0.000685412
0.000395533
0.000723306
0.000432142
0.000708284
0.000458373
0.00065884
0.000477384
0.00059111
0.000491795
0.000516813
0.000503284
0.000442908
0.000512616
0.00037268
0.000519889
0.000307211
0.000524845
0.000246397
0.000527105
0.000189648
0.000526254
0.000136194
0.000521943
8.51858e-05
0.000513767
3.59378e-05
0.000501307
-1.25524e-05
0.000484572
-6.15876e-05
0.000463158
-0.000111413
0.000436649
-0.000162762
0.000404682
-0.000216798
0.000366639
-0.00027373
0.000322036
-0.000334659
0.000270194
-0.000398461
0.000211304
-0.000465957
0.000146409
-0.00053386
7.80694e-05
-0.000616412
1.2412e-06
-0.000781757
-3.98708e-05
-0.00126818
-0.00158229
1.36115e-05
-2.11935e-05
7.90456e-05
8.77513e-05
0.000174728
0.000299665
0.000264237
0.000490033
0.000342035
0.000607615
0.000407534
0.000657807
0.000459956
0.000655862
0.000500955
0.00061784
0.00053269
0.000559375
0.000557372
0.00049213
0.000576802
0.000423478
0.000592127
0.000357355
0.000603886
0.000295451
0.000612172
0.00023811
0.000616874
0.000184946
0.000617715
0.000135352
0.000614457
8.84443e-05
0.000606798
4.35963e-05
0.000594068
1.7794e-07
0.000576429
-4.39492e-05
0.000553271
-8.82544e-05
0.000524022
-0.000133513
0.000488126
-0.000180902
0.000444698
-0.000230302
0.000393084
-0.000283045
0.000332411
-0.000337788
0.0002631
-0.000396646
0.000186578
-0.000457338
0.000107844
-0.000537679
2.29586e-05
-0.000696871
-2.96829e-05
-0.00121554
-0.00161197
1.11619e-05
-3.23554e-05
5.23423e-05
4.65709e-05
0.000133793
0.000218214
0.000224652
0.000399174
0.000313138
0.000519129
0.000394491
0.000576454
0.000465237
0.000585116
0.000524557
0.000558521
0.00057303
0.000510901
0.000612055
0.000453105
0.000643211
0.000392323
0.0006678
0.000332766
0.00068671
0.000276542
0.000700414
0.000224406
0.00070913
0.00017623
0.000712858
0.000131624
0.000711483
8.98198e-05
0.000704741
5.03381e-05
0.000692491
1.24285e-05
0.000673867
-2.53257e-05
0.000648938
-6.33251e-05
0.000616779
-0.000101354
0.000576632
-0.000140756
0.000527351
-0.00018102
0.000468177
-0.000223872
0.000398136
-0.000267747
0.000318157
-0.000316667
0.000230074
-0.000369255
0.000141622
-0.000449227
4.9432e-05
-0.000604681
-9.35312e-06
-0.00115676
-0.00162132
6.67324e-06
-3.90286e-05
2.31082e-05
3.01359e-05
7.90497e-05
0.000162273
0.000164607
0.000313616
0.000260992
0.000422744
0.000357911
0.000479536
0.000448901
0.000494126
0.000529561
0.00047786
0.000598293
0.000442169
0.000655348
0.00039605
0.000701772
0.000345899
0.000738776
0.000295762
0.000767432
0.000247886
0.000788567
0.000203271
0.000802742
0.000162055
0.000810288
0.000124079
0.000811349
8.87584e-05
0.000805944
5.57433e-05
0.000794042
2.43306e-05
0.000774425
-5.70854e-06
0.000747443
-3.63437e-05
0.000712058
-6.59687e-05
0.000667452
-9.61496e-05
0.000612335
-0.000125903
0.000546046
-0.000157583
0.000467633
-0.000189334
0.000378686
-0.000227719
0.000281154
-0.000271723
0.000185531
-0.000353604
9.18964e-05
-0.000511047
2.21816e-05
-0.00108704
-0.00159914
8.09329e-07
-3.98379e-05
-1.79562e-05
4.89015e-05
1.8034e-07
0.000144136
7.06731e-05
0.000243123
0.000170008
0.00032341
0.000281537
0.000368006
0.000393041
0.000382622
0.000496224
0.000374677
0.000587144
0.000351249
0.000664935
0.000318259
0.000729732
0.000281102
0.000782466
0.000243028
0.000824104
0.000206249
0.000855698
0.000171676
0.000878022
0.000139732
0.000891708
0.000110393
0.000897115
8.3351e-05
0.000894425
5.84336e-05
0.000883748
3.50077e-05
0.000864858
1.31812e-05
0.000836775
-8.26048e-06
0.000799629
-2.88234e-05
0.000752575
-4.90953e-05
0.000694426
-6.77539e-05
0.000625116
-8.82728e-05
0.000543435
-0.000107653
0.000451816
-0.000136101
0.000351913
-0.00017182
0.000256769
-0.00025846
0.000168201
-0.000422479
7.66965e-05
-0.000995536
-0.00152244
-7.44155e-05
3.45775e-05
-9.83418e-05
7.28278e-05
-9.726e-05
0.000143054
-3.78704e-05
0.000183733
6.61377e-05
0.000219402
0.000189393
0.000244751
0.000320889
0.000251126
0.000445837
0.000249729
0.000558369
0.000238717
0.000656338
0.00022029
0.000738942
0.000198498
0.000806839
0.000175131
0.000860928
0.000152159
0.000902506
0.000130098
0.000932615
0.000109622
0.000952286
9.07215e-05
0.00096228
7.33572e-05
0.000963072
5.7642e-05
0.000954888
4.31917e-05
0.000938143
2.99259e-05
0.000913134
1.67483e-05
0.000879117
5.19427e-06
0.000836544
-6.52278e-06
0.00078411
-1.53196e-05
0.000723073
-2.72359e-05
0.000652042
-3.66217e-05
0.000573973
-5.80327e-05
0.000488315
-8.61618e-05
0.000403826
-0.000173971
0.000322242
-0.000340895
0.000181403
-0.000854697
-0.00134104
-0.000279698
0.000314275
-0.000361713
0.000154843
-0.000335338
0.00011668
-0.000246492
9.48874e-05
-0.000124413
9.73228e-05
1.8131e-05
0.000102207
0.000162347
0.00010691
0.00030254
0.000109536
0.000432774
0.000108483
0.000549905
0.000103159
0.000652537
9.58657e-05
0.000740686
8.69829e-05
0.000814984
7.78608e-05
0.000876672
6.84097e-05
0.000926594
5.97009e-05
0.0009662
5.11154e-05
0.00099592
4.36376e-05
0.0010173
3.62572e-05
0.00103045
3.00506e-05
0.00103669
2.36788e-05
0.00103495
1.84948e-05
0.00102689
1.32504e-05
0.00101089
9.47549e-06
0.00099016
5.41234e-06
0.000961052
1.87161e-06
0.000927514
-3.08402e-06
0.00088324
-1.37586e-05
0.000834319
-3.72408e-05
0.000762994
-0.000102646
0.000667669
-0.000245569
0.000398761
-0.000585789
-0.00094228
0.000314275
0.000469118
0.000585798
0.000680686
0.000778008
0.000880215
0.000987125
0.00109666
0.00120514
0.0013083
0.00140417
0.00149115
0.00156901
0.00163742
0.00169712
0.00174824
0.00179188
0.00182813
0.00185818
0.00188186
0.00190036
0.00191361
0.00192308
0.0019285
0.00193037
0.00192728
0.00191353
0.00187628
0.00177364
0.00152807
0.00094228
)
;

boundaryField
{
    movingWall
    {
        type            calculated;
        value           uniform 0;
    }
    fixedWalls
    {
        type            calculated;
        value           uniform 0;
    }
    frontAndBack
    {
        type            empty;
    }
}


// ************************************************************************* //
