/*--------------------------------*- C++ -*----------------------------------*\
| =========                 |                                                 |
| \\      /  F ield         | OpenFOAM: The Open Source CFD Toolbox           |
|  \\    /   O peration     | Version:  2406                                  |
|   \\  /    A nd           | Website:  www.openfoam.com                      |
|    \\/     M anipulation  |                                                 |
\*---------------------------------------------------------------------------*/
FoamFile
{
    version     2.0;
    format      ascii;
    arch        "LSB;label=32;scalar=64";
    class       surfaceScalarField;
    location    "4.75";
    object      phi;
}
// * * * * * * * * * * * * * * * * * * * * * * * * * * * * * * * * * * * * * //

dimensions      [0 3 -1 0 0 0 0];

oriented        oriented;

internalField   nonuniform List<scalar> 
28560
(
3.25346e-09
-3.25521e-09
-1.83947e-10
3.68167e-09
-1.22666e-08
1.21448e-08
-3.25402e-08
2.0624e-08
-5.93885e-08
2.70806e-08
-9.11977e-08
3.22569e-08
-1.26718e-07
3.5891e-08
-1.64813e-07
3.85975e-08
-2.04749e-07
4.03911e-08
-2.45855e-07
4.16344e-08
-2.87733e-07
4.23776e-08
-3.30019e-07
4.2824e-08
-3.72515e-07
4.30153e-08
-4.15039e-07
4.30625e-08
-4.57504e-07
4.29912e-08
-4.99829e-07
4.28589e-08
-5.4198e-07
4.26778e-08
-5.83926e-07
4.2475e-08
-6.25656e-07
4.22538e-08
-6.67158e-07
4.20249e-08
-7.08427e-07
4.1787e-08
-7.49453e-07
4.1543e-08
-7.90231e-07
4.12899e-08
-8.30748e-07
4.10271e-08
-8.70994e-07
4.07514e-08
-9.10953e-07
4.04611e-08
-9.50608e-07
4.01535e-08
-9.8994e-07
3.98265e-08
-1.02893e-06
3.94777e-08
-1.06755e-06
3.91053e-08
-1.10578e-06
3.87072e-08
-1.14358e-06
3.82814e-08
-1.18094e-06
3.78262e-08
-1.21782e-06
3.73397e-08
-1.25418e-06
3.68202e-08
-1.29e-06
3.62659e-08
-1.32523e-06
3.5675e-08
-1.35985e-06
3.5046e-08
-1.3938e-06
3.4377e-08
-1.42705e-06
3.36665e-08
-1.45956e-06
3.29129e-08
-1.49127e-06
3.21147e-08
-1.52216e-06
3.12703e-08
-1.55216e-06
3.03783e-08
-1.58124e-06
2.94374e-08
-1.60933e-06
2.84464e-08
-1.6364e-06
2.7404e-08
-1.66238e-06
2.63094e-08
-1.68723e-06
2.51615e-08
-1.7109e-06
2.39598e-08
-1.73332e-06
2.27037e-08
-1.75445e-06
2.13927e-08
-1.77423e-06
2.00267e-08
-1.79261e-06
1.86059e-08
-1.80953e-06
1.71305e-08
-1.82494e-06
1.5601e-08
-1.83878e-06
1.40183e-08
-1.85102e-06
1.23835e-08
-1.86158e-06
1.06979e-08
-1.87043e-06
8.96333e-09
-1.87753e-06
7.1817e-09
-1.88282e-06
5.35537e-09
-1.88626e-06
3.48699e-09
-1.88782e-06
1.57951e-09
-1.88746e-06
-3.63748e-10
-1.88515e-06
-2.33919e-09
-1.88085e-06
-4.3429e-09
-1.87456e-06
-6.37065e-09
-1.86624e-06
-8.41796e-09
-1.85589e-06
-1.04801e-08
-1.84349e-06
-1.2552e-08
-1.82904e-06
-1.46285e-08
-1.81254e-06
-1.67042e-08
-1.79399e-06
-1.87737e-08
-1.77342e-06
-2.08311e-08
-1.75082e-06
-2.2871e-08
-1.72624e-06
-2.48875e-08
-1.69969e-06
-2.68748e-08
-1.67121e-06
-2.88275e-08
-1.64085e-06
-3.07399e-08
-1.60864e-06
-3.26066e-08
-1.57464e-06
-3.44225e-08
-1.5389e-06
-3.61827e-08
-1.50148e-06
-3.78824e-08
-1.46244e-06
-3.95175e-08
-1.42186e-06
-4.10839e-08
-1.3798e-06
-4.25782e-08
-1.33635e-06
-4.39972e-08
-1.29156e-06
-4.53383e-08
-1.24554e-06
-4.65992e-08
-1.19835e-06
-4.77781e-08
-1.15007e-06
-4.88735e-08
-1.1008e-06
-4.98844e-08
-1.05062e-06
-5.08099e-08
-9.99605e-07
-5.16493e-08
-9.47851e-07
-5.24013e-08
-8.95442e-07
-5.30648e-08
-8.42467e-07
-5.36372e-08
-7.89022e-07
-5.41154e-08
-7.35203e-07
-5.44931e-08
-6.81119e-07
-5.47633e-08
-6.26887e-07
-5.49123e-08
-5.72643e-07
-5.49261e-08
-5.18542e-07
-5.4779e-08
-4.64773e-07
-5.44467e-08
-4.11553e-07
-5.38845e-08
-3.59161e-07
-5.30554e-08
-3.0791e-07
-5.18871e-08
-2.58211e-07
-5.03301e-08
-2.10523e-07
-4.82736e-08
-1.65439e-07
-4.5663e-08
-1.23609e-07
-4.23331e-08
-8.58543e-08
-3.82503e-08
-5.30606e-08
-3.31765e-08
-2.62528e-08
-2.71829e-08
-6.4986e-09
-1.99793e-08
5.36511e-09
-1.20813e-08
8.81496e-09
-3.52846e-09
5.57456e-09
3.18427e-09
5.57131e-09
-3.66985e-09
1.69468e-10
-2.36656e-08
2.36814e-08
-6.21506e-08
5.01326e-08
-1.1801e-07
7.61603e-08
-1.88965e-07
9.73282e-08
-2.71951e-07
1.14624e-07
-3.64456e-07
1.27537e-07
-4.63968e-07
1.37302e-07
-5.68696e-07
1.44175e-07
-6.76997e-07
1.49023e-07
-7.8777e-07
1.52166e-07
-9.00053e-07
1.54143e-07
-1.01323e-06
1.55194e-07
-1.12678e-06
1.55634e-07
-1.2404e-06
1.55611e-07
-1.35383e-06
1.55299e-07
-1.46691e-06
1.54776e-07
-1.57955e-06
1.54126e-07
-1.69166e-06
1.53383e-07
-1.80318e-06
1.52581e-07
-1.9141e-06
1.5173e-07
-2.02435e-06
1.50838e-07
-2.13392e-06
1.49902e-07
-2.24277e-06
1.48921e-07
-2.35084e-06
1.47887e-07
-2.45811e-06
1.46794e-07
-2.56452e-06
1.45635e-07
-2.67002e-06
1.44402e-07
-2.77455e-06
1.43089e-07
-2.87803e-06
1.41689e-07
-2.98042e-06
1.40194e-07
-3.08162e-06
1.38599e-07
-3.18156e-06
1.36896e-07
-3.28017e-06
1.35081e-07
-3.37734e-06
1.33146e-07
-3.473e-06
1.31087e-07
-3.56704e-06
1.28896e-07
-3.65937e-06
1.26568e-07
-3.74989e-06
1.24097e-07
-3.83847e-06
1.21478e-07
-3.92503e-06
1.18706e-07
-4.00943e-06
1.15775e-07
-4.09156e-06
1.1268e-07
-4.17129e-06
1.09417e-07
-4.24852e-06
1.05981e-07
-4.32309e-06
1.02367e-07
-4.39489e-06
9.85731e-08
-4.46378e-06
9.45946e-08
-4.52963e-06
9.04292e-08
-4.59229e-06
8.60747e-08
-4.65164e-06
8.15293e-08
-4.70753e-06
7.67921e-08
-4.75983e-06
7.18628e-08
-4.80839e-06
6.67418e-08
-4.85308e-06
6.14304e-08
-4.89377e-06
5.59309e-08
-4.93032e-06
5.02463e-08
-4.96261e-06
4.43805e-08
-4.99049e-06
3.83387e-08
-5.01386e-06
3.21269e-08
-5.0326e-06
2.57522e-08
-5.04659e-06
1.92229e-08
-5.05574e-06
1.25481e-08
-5.05994e-06
5.73836e-09
-5.0591e-06
-1.19498e-09
-5.05315e-06
-8.23939e-09
-5.04201e-06
-1.53813e-08
-5.02564e-06
-2.26062e-08
-5.00397e-06
-2.98986e-08
-4.97697e-06
-3.72423e-08
-4.94462e-06
-4.462e-08
-4.90691e-06
-5.2014e-08
-4.86383e-06
-5.94059e-08
-4.8154e-06
-6.67767e-08
-4.76165e-06
-7.41074e-08
-4.70263e-06
-8.13784e-08
-4.63838e-06
-8.85701e-08
-4.56899e-06
-9.56632e-08
-4.49452e-06
-1.02638e-07
-4.41509e-06
-1.09477e-07
-4.3308e-06
-1.1616e-07
-4.24177e-06
-1.2267e-07
-4.14814e-06
-1.28991e-07
-4.05006e-06
-1.35105e-07
-3.94768e-06
-1.41e-07
-3.84117e-06
-1.4666e-07
-3.7307e-06
-1.52074e-07
-3.61647e-06
-1.5723e-07
-3.49865e-06
-1.6212e-07
-3.37745e-06
-1.66734e-07
-3.25307e-06
-1.71066e-07
-3.12572e-06
-1.75111e-07
-2.9956e-06
-1.78863e-07
-2.86293e-06
-1.82319e-07
-2.72792e-06
-1.85474e-07
-2.5908e-06
-1.88322e-07
-2.45179e-06
-1.90856e-07
-2.31113e-06
-1.93067e-07
-2.16906e-06
-1.94938e-07
-2.02585e-06
-1.96446e-07
-1.8818e-06
-1.9756e-07
-1.73721e-06
-1.9823e-07
-1.59248e-06
-1.98399e-07
-1.44802e-06
-1.97977e-07
-1.30435e-06
-1.96865e-07
-1.16207e-06
-1.94916e-07
-1.02193e-06
-1.91979e-07
-8.84795e-07
-1.87827e-07
-7.51729e-07
-1.82252e-07
-6.23953e-07
-1.74931e-07
-5.02967e-07
-1.65623e-07
-3.9042e-07
-1.53892e-07
-2.88277e-07
-1.39551e-07
-1.98575e-07
-1.22083e-07
-1.23541e-07
-1.01634e-07
-6.5163e-08
-7.78212e-08
-2.49104e-08
-5.2067e-08
-3.03347e-09
-2.51588e-08
3.13946e-09
-2.98223e-09
8.76691e-09
-1.23442e-08
1.24407e-08
-5.07881e-08
6.26251e-08
-1.15775e-07
1.15108e-07
-2.04323e-07
1.65274e-07
-3.13806e-07
2.07124e-07
-4.40135e-07
2.41611e-07
-5.80188e-07
2.68123e-07
-7.3058e-07
2.88422e-07
-8.88877e-07
3.03133e-07
-1.05276e-06
3.13675e-07
-1.22063e-06
3.20762e-07
-1.39105e-06
3.25352e-07
-1.56309e-06
3.27986e-07
-1.73592e-06
3.29254e-07
-1.90904e-06
3.29501e-07
-2.08202e-06
3.29062e-07
-2.25461e-06
3.28128e-07
-2.42658e-06
3.26869e-07
-2.5978e-06
3.25373e-07
-2.76817e-06
3.23713e-07
-2.9376e-06
3.21921e-07
-3.10602e-06
3.20017e-07
-3.27337e-06
3.18002e-07
-3.43958e-06
3.15875e-07
-3.60458e-06
3.13626e-07
-3.7683e-06
3.11243e-07
-3.93065e-06
3.08713e-07
-4.09154e-06
3.06022e-07
-4.25089e-06
3.03156e-07
-4.4086e-06
3.00103e-07
-4.56455e-06
2.96847e-07
-4.71863e-06
2.93377e-07
-4.87073e-06
2.89679e-07
-5.02072e-06
2.85742e-07
-5.16845e-06
2.81552e-07
-5.31381e-06
2.77097e-07
-5.45663e-06
2.72367e-07
-5.59678e-06
2.67348e-07
-5.73409e-06
2.6203e-07
-5.8684e-06
2.56401e-07
-5.99955e-06
2.5045e-07
-6.12737e-06
2.44168e-07
-6.25166e-06
2.37543e-07
-6.37227e-06
2.30567e-07
-6.48898e-06
2.2323e-07
-6.60163e-06
2.15525e-07
-6.71001e-06
2.07444e-07
-6.81392e-06
1.98981e-07
-6.91317e-06
1.90131e-07
-7.00755e-06
1.80889e-07
-7.09686e-06
1.71253e-07
-7.18091e-06
1.6122e-07
-7.25947e-06
1.50791e-07
-7.33237e-06
1.39967e-07
-7.39938e-06
1.28752e-07
-7.46032e-06
1.17149e-07
-7.51499e-06
1.05167e-07
-7.5632e-06
9.28131e-08
-7.60476e-06
8.00986e-08
-7.63951e-06
6.70362e-08
-7.66727e-06
5.3641e-08
-7.68788e-06
3.993e-08
-7.70119e-06
2.59226e-08
-7.70707e-06
1.16402e-08
-7.70538e-06
-2.89335e-09
-7.696e-06
-1.76524e-08
-7.67885e-06
-3.26091e-08
-7.65384e-06
-4.77335e-08
-7.6209e-06
-6.29942e-08
-7.57997e-06
-7.83576e-08
-7.53102e-06
-9.37889e-08
-7.47405e-06
-1.09252e-07
-7.40904e-06
-1.24709e-07
-7.33603e-06
-1.40121e-07
-7.25506e-06
-1.55451e-07
-7.16619e-06
-1.70658e-07
-7.0695e-06
-1.85702e-07
-6.9651e-06
-2.00545e-07
-6.85311e-06
-2.15146e-07
-6.73367e-06
-2.29469e-07
-6.60694e-06
-2.43475e-07
-6.4731e-06
-2.57129e-07
-6.33234e-06
-2.70397e-07
-6.18488e-06
-2.83245e-07
-6.03094e-06
-2.95645e-07
-5.87077e-06
-3.07569e-07
-5.70462e-06
-3.1899e-07
-5.53275e-06
-3.29887e-07
-5.35545e-06
-3.40239e-07
-5.17299e-06
-3.5003e-07
-4.98567e-06
-3.59245e-07
-4.79379e-06
-3.67871e-07
-4.59766e-06
-3.75897e-07
-4.39758e-06
-3.83313e-07
-4.19388e-06
-3.90109e-07
-3.98687e-06
-3.9627e-07
-3.77691e-06
-4.01779e-07
-3.56434e-06
-4.06612e-07
-3.34952e-06
-4.10732e-07
-3.13287e-06
-4.14086e-07
-2.91482e-06
-4.16603e-07
-2.69586e-06
-4.1818e-07
-2.47657e-06
-4.18686e-07
-2.2576e-06
-4.17939e-07
-2.03973e-06
-4.15721e-07
-1.82388e-06
-4.11737e-07
-1.61117e-06
-4.05658e-07
-1.40288e-06
-3.97042e-07
-1.2006e-06
-3.85446e-07
-1.00612e-06
-3.70261e-07
-8.21607e-07
-3.50976e-07
-6.49391e-07
-3.26834e-07
-4.92232e-07
-2.97429e-07
-3.52863e-07
-2.61994e-07
-2.34297e-07
-2.20757e-07
-1.38961e-07
-1.73452e-07
-6.89163e-08
-1.22484e-07
-2.43122e-08
-6.97789e-08
-3.30911e-09
-2.42268e-08
5.52135e-09
-2.12797e-08
3.33615e-08
-7.82722e-08
1.19964e-07
-1.68663e-07
2.04921e-07
-2.87046e-07
2.83671e-07
-4.30384e-07
3.49938e-07
-5.93762e-07
4.0475e-07
-7.73804e-07
4.4763e-07
-9.66572e-07
4.80796e-07
-1.16929e-06
5.05302e-07
-1.3792e-06
5.231e-07
-1.59435e-06
5.35356e-07
-1.81299e-06
5.43471e-07
-2.03391e-06
5.48342e-07
-2.25606e-06
5.50872e-07
-2.47877e-06
5.51647e-07
-2.70145e-06
5.51197e-07
-2.92373e-06
5.49856e-07
-3.14531e-06
5.47901e-07
-3.36598e-06
5.45497e-07
-3.58558e-06
5.42768e-07
-3.80397e-06
5.39776e-07
-4.02105e-06
5.36562e-07
-4.23672e-06
5.33136e-07
-4.45088e-06
5.29501e-07
-4.66342e-06
5.25643e-07
-4.87424e-06
5.21547e-07
-5.08324e-06
5.17194e-07
-5.2903e-06
5.12563e-07
-5.49528e-06
5.07633e-07
-5.69807e-06
5.02382e-07
-5.89851e-06
4.9679e-07
-6.09646e-06
4.90836e-07
-6.29177e-06
4.84499e-07
-6.48427e-06
4.77759e-07
-6.67379e-06
4.70596e-07
-6.86015e-06
4.62992e-07
-7.04316e-06
4.54926e-07
-7.22265e-06
4.4638e-07
-7.39839e-06
4.37336e-07
-7.5702e-06
4.27775e-07
-7.73785e-06
4.1768e-07
-7.90113e-06
4.07035e-07
-8.05981e-06
3.95824e-07
-8.21367e-06
3.84032e-07
-8.36246e-06
3.71645e-07
-8.50595e-06
3.5865e-07
-8.64389e-06
3.45036e-07
-8.77604e-06
3.30793e-07
-8.90214e-06
3.15913e-07
-9.02195e-06
3.00391e-07
-9.13521e-06
2.84221e-07
-9.24167e-06
2.67403e-07
-9.34107e-06
2.49936e-07
-9.43316e-06
2.31824e-07
-9.5177e-06
2.13073e-07
-9.59444e-06
1.93691e-07
-9.66315e-06
1.7369e-07
-9.72358e-06
1.53085e-07
-9.77551e-06
1.31894e-07
-9.81873e-06
1.10139e-07
-9.85302e-06
8.78447e-08
-9.8782e-06
6.50397e-08
-9.89408e-06
4.17561e-08
-9.90049e-06
1.80293e-08
-9.89728e-06
-6.10165e-09
-9.88431e-06
-3.05944e-08
-9.86146e-06
-5.54034e-08
-9.82863e-06
-8.04799e-08
-9.78575e-06
-1.05772e-07
-9.73275e-06
-1.31226e-07
-9.6696e-06
-1.56785e-07
-9.59628e-06
-1.82389e-07
-9.5128e-06
-2.07978e-07
-9.41919e-06
-2.33491e-07
-9.31552e-06
-2.58863e-07
-9.20186e-06
-2.84031e-07
-9.07832e-06
-3.08931e-07
-8.94503e-06
-3.33499e-07
-8.80214e-06
-3.57673e-07
-8.64983e-06
-3.8139e-07
-8.4883e-06
-4.04591e-07
-8.31778e-06
-4.27219e-07
-8.1385e-06
-4.49217e-07
-7.95073e-06
-4.70534e-07
-7.75476e-06
-4.91121e-07
-7.55087e-06
-5.10933e-07
-7.3394e-06
-5.2993e-07
-7.12065e-06
-5.48074e-07
-6.89498e-06
-5.65333e-07
-6.66274e-06
-5.81679e-07
-6.42429e-06
-5.97088e-07
-6.18001e-06
-6.11537e-07
-5.93026e-06
-6.25008e-07
-5.67545e-06
-6.37482e-07
-5.41596e-06
-6.48939e-07
-5.15221e-06
-6.59354e-07
-4.88462e-06
-6.68695e-07
-4.61363e-06
-6.76917e-07
-4.33971e-06
-6.83955e-07
-4.06338e-06
-6.89718e-07
-3.78521e-06
-6.94082e-07
-3.50581e-06
-6.96874e-07
-3.22592e-06
-6.97872e-07
-2.94639e-06
-6.96775e-07
-2.6682e-06
-6.93219e-07
-2.39252e-06
-6.86727e-07
-2.12075e-06
-6.76758e-07
-1.85451e-06
-6.62614e-07
-1.59576e-06
-6.43573e-07
-1.34669e-06
-6.18708e-07
-1.10992e-06
-5.87197e-07
-8.88235e-07
-5.47958e-07
-6.8489e-07
-5.00348e-07
-5.02998e-07
-4.43406e-07
-3.46068e-07
-3.77435e-07
-2.16712e-07
-3.02414e-07
-1.17612e-07
-2.21563e-07
-4.91045e-08
-1.3793e-07
-1.12216e-08
-6.23397e-08
-5.49398e-09
-2.84937e-08
6.15991e-08
-1.01818e-07
1.94025e-07
-2.1502e-07
3.17771e-07
-3.60124e-07
4.29307e-07
-5.33393e-07
5.23188e-07
-7.28997e-07
6.00801e-07
-9.43334e-07
6.62145e-07
-1.17203e-06
7.0991e-07
-1.41211e-06
7.45676e-07
-1.66052e-06
7.71918e-07
-1.91511e-06
7.90295e-07
-2.1739e-06
8.02664e-07
-2.43549e-06
8.1031e-07
-2.69869e-06
8.14472e-07
-2.96266e-06
8.16003e-07
-3.22671e-06
8.15652e-07
-3.49039e-06
8.13917e-07
-3.75329e-06
8.11202e-07
-4.01517e-06
8.07758e-07
-4.27578e-06
8.03772e-07
-4.53497e-06
7.99349e-07
-4.79258e-06
7.94555e-07
-5.04847e-06
7.89413e-07
-5.30252e-06
7.8393e-07
-5.5546e-06
7.78096e-07
-5.80457e-06
7.71891e-07
-6.0523e-06
7.65291e-07
-6.29764e-06
7.58267e-07
-6.54043e-06
7.50792e-07
-6.78052e-06
7.42834e-07
-7.01774e-06
7.34366e-07
-7.25191e-06
7.25357e-07
-7.48284e-06
7.15779e-07
-7.71034e-06
7.05603e-07
-7.93421e-06
6.94801e-07
-8.15423e-06
6.83345e-07
-8.37018e-06
6.71209e-07
-8.58185e-06
6.58365e-07
-8.78898e-06
6.44787e-07
-8.99135e-06
6.3045e-07
-9.1887e-06
6.15329e-07
-9.38077e-06
5.99401e-07
-9.5673e-06
5.82644e-07
-9.74803e-06
5.65036e-07
-9.92267e-06
5.46558e-07
-1.0091e-05
5.27194e-07
-1.02526e-05
5.06926e-07
-1.04073e-05
4.85742e-07
-1.05548e-05
4.63632e-07
-1.06948e-05
4.40588e-07
-1.0827e-05
4.16603e-07
-1.0951e-05
3.91678e-07
-1.10667e-05
3.65813e-07
-1.11737e-05
3.39015e-07
-1.12718e-05
3.11292e-07
-1.13606e-05
2.82659e-07
-1.144e-05
2.53133e-07
-1.15095e-05
2.22737e-07
-1.1569e-05
1.91498e-07
-1.16182e-05
1.5945e-07
-1.1657e-05
1.26628e-07
-1.16849e-05
9.30747e-08
-1.1702e-05
5.88377e-08
-1.17079e-05
2.39688e-08
-1.17025e-05
-1.14751e-08
-1.16857e-05
-4.74322e-08
-1.16573e-05
-8.3836e-08
-1.16173e-05
-1.20616e-07
-1.15654e-05
-1.57697e-07
-1.15017e-05
-1.95e-07
-1.14262e-05
-2.32444e-07
-1.13388e-05
-2.69944e-07
-1.12395e-05
-3.07411e-07
-1.11284e-05
-3.44757e-07
-1.10056e-05
-3.81891e-07
-1.08711e-05
-4.18721e-07
-1.07251e-05
-4.55155e-07
-1.05677e-05
-4.91103e-07
-1.03992e-05
-5.26473e-07
-1.02197e-05
-5.61179e-07
-1.00294e-05
-5.95133e-07
-9.8287e-06
-6.28254e-07
-9.61778e-06
-6.60463e-07
-9.39697e-06
-6.91685e-07
-9.1666e-06
-7.2185e-07
-8.92701e-06
-7.50895e-07
-8.67857e-06
-7.78761e-07
-8.42165e-06
-8.05395e-07
-8.15665e-06
-8.30751e-07
-7.88396e-06
-8.54787e-07
-7.60402e-06
-8.77467e-07
-7.31725e-06
-8.9876e-07
-7.02407e-06
-9.18636e-07
-6.72495e-06
-9.37066e-07
-6.42035e-06
-9.54019e-07
-6.11072e-06
-9.69456e-07
-5.79658e-06
-9.83327e-07
-5.47843e-06
-9.9556e-07
-5.15682e-06
-1.00606e-06
-4.83236e-06
-1.01468e-06
-4.5057e-06
-1.02125e-06
-4.17758e-06
-1.02549e-06
-3.84886e-06
-1.0271e-06
-3.52052e-06
-1.02562e-06
-3.19371e-06
-1.02053e-06
-2.86977e-06
-1.01115e-06
-2.55033e-06
-9.96691e-07
-2.23722e-06
-9.76183e-07
-1.93267e-06
-9.48594e-07
-1.63913e-06
-9.12664e-07
-1.35953e-06
-8.67235e-07
-1.09692e-06
-8.10901e-07
-8.5491e-07
-7.42761e-07
-6.36831e-07
-6.61695e-07
-4.46613e-07
-5.68021e-07
-2.87066e-07
-4.61987e-07
-1.61657e-07
-3.47351e-07
-7.12337e-08
-2.28116e-07
-1.79832e-08
-1.16082e-07
-2.32871e-08
-3.46426e-08
9.57668e-08
-1.22193e-07
2.8225e-07
-2.55409e-07
4.50288e-07
-4.23981e-07
5.98157e-07
-6.23351e-07
7.22098e-07
-8.46781e-07
8.24248e-07
-1.09043e-06
9.05428e-07
-1.34955e-06
9.68898e-07
-1.62105e-06
1.01686e-06
-1.90166e-06
1.05232e-06
-2.18913e-06
1.07745e-06
-2.48129e-06
1.09458e-06
-2.77667e-06
1.10539e-06
-3.07392e-06
1.11146e-06
-3.37213e-06
1.11392e-06
-3.67051e-06
1.11376e-06
-3.96853e-06
1.11165e-06
-4.26573e-06
1.10812e-06
-4.56179e-06
1.10354e-06
-4.85644e-06
1.09814e-06
-5.14947e-06
1.0921e-06
-5.44069e-06
1.08549e-06
-5.72992e-06
1.07838e-06
-6.01702e-06
1.07076e-06
-6.30183e-06
1.06263e-06
-6.58417e-06
1.05397e-06
-6.86391e-06
1.04475e-06
-7.14085e-06
1.03494e-06
-7.41482e-06
1.0245e-06
-7.68564e-06
1.0134e-06
-7.95312e-06
1.00158e-06
-8.21704e-06
9.89027e-07
-8.4772e-06
9.75688e-07
-8.73338e-06
9.61531e-07
-8.98534e-06
9.46518e-07
-9.23284e-06
9.30612e-07
-9.47565e-06
9.13778e-07
-9.71349e-06
8.95981e-07
-9.94612e-06
8.77186e-07
-1.01733e-05
8.5736e-07
-1.03946e-05
8.36471e-07
-1.06099e-05
8.14488e-07
-1.08189e-05
7.91383e-07
-1.10211e-05
7.67128e-07
-1.12165e-05
7.41698e-07
-1.14045e-05
7.15071e-07
-1.1585e-05
6.87227e-07
-1.17576e-05
6.5815e-07
-1.1922e-05
6.27826e-07
-1.20778e-05
5.96247e-07
-1.22247e-05
5.63407e-07
-1.23625e-05
5.29304e-07
-1.24908e-05
4.93944e-07
-1.26092e-05
4.57333e-07
-1.27175e-05
4.19488e-07
-1.28154e-05
3.80427e-07
-1.29025e-05
3.40176e-07
-1.29786e-05
2.98767e-07
-1.30434e-05
2.56237e-07
-1.30967e-05
2.12632e-07
-1.31381e-05
1.68002e-07
-1.31675e-05
1.22404e-07
-1.31845e-05
7.59024e-08
-1.31892e-05
2.85686e-08
-1.31811e-05
-1.95207e-08
-1.31602e-05
-6.82819e-08
-1.31264e-05
-1.17626e-07
-1.30795e-05
-1.67456e-07
-1.30195e-05
-2.17674e-07
-1.29463e-05
-2.68173e-07
-1.28598e-05
-3.18843e-07
-1.27601e-05
-3.69571e-07
-1.26471e-05
-4.20239e-07
-1.2521e-05
-4.70729e-07
-1.23819e-05
-5.2092e-07
-1.22298e-05
-5.70689e-07
-1.20648e-05
-6.19915e-07
-1.18873e-05
-6.68476e-07
-1.16973e-05
-7.16254e-07
-1.14952e-05
-7.6313e-07
-1.12811e-05
-8.08991e-07
-1.10554e-05
-8.53728e-07
-1.08184e-05
-8.97237e-07
-1.05704e-05
-9.39419e-07
-1.03118e-05
-9.80183e-07
-1.0043e-05
-1.01944e-06
-9.7644e-06
-1.05712e-06
-9.47636e-06
-1.09315e-06
-9.17936e-06
-1.12746e-06
-8.87384e-06
-1.16001e-06
-8.56026e-06
-1.19073e-06
-8.2391e-06
-1.2196e-06
-7.91084e-06
-1.24657e-06
-7.57597e-06
-1.2716e-06
-7.23501e-06
-1.29464e-06
-6.88848e-06
-1.31565e-06
-6.53693e-06
-1.33454e-06
-6.18092e-06
-1.35121e-06
-5.82109e-06
-1.36554e-06
-5.45808e-06
-1.37733e-06
-5.09264e-06
-1.38633e-06
-4.72559e-06
-1.39218e-06
-4.35788e-06
-1.39445e-06
-3.99059e-06
-1.39255e-06
-3.62499e-06
-1.38578e-06
-3.26257e-06
-1.37322e-06
-2.90507e-06
-1.35385e-06
-2.5545e-06
-1.32641e-06
-2.21325e-06
-1.28954e-06
-1.88394e-06
-1.24164e-06
-1.5697e-06
-1.18122e-06
-1.27374e-06
-1.10654e-06
-9.99904e-07
-1.01643e-06
-7.51668e-07
-9.09616e-07
-5.33323e-07
-7.8634e-07
-3.47908e-07
-6.47054e-07
-1.997e-07
-4.95749e-07
-9.02198e-08
-3.37102e-07
-2.36709e-08
-1.83125e-07
-4.66238e-08
-3.94244e-08
1.34775e-07
-1.38751e-07
3.82507e-07
-2.88944e-07
5.99879e-07
-4.77695e-07
7.87479e-07
-6.99599e-07
9.43781e-07
-9.47011e-07
1.07203e-06
-1.21578e-06
1.17418e-06
-1.5008e-06
1.2542e-06
-1.79888e-06
1.31503e-06
-2.10655e-06
1.36023e-06
-2.42151e-06
1.39256e-06
-2.7415e-06
1.41479e-06
-3.06495e-06
1.42902e-06
-3.39045e-06
1.43717e-06
-3.71703e-06
1.44069e-06
-4.04383e-06
1.44077e-06
-4.37026e-06
1.43827e-06
-4.69581e-06
1.43388e-06
-5.02014e-06
1.42806e-06
-5.34291e-06
1.42112e-06
-5.66389e-06
1.41328e-06
-5.98286e-06
1.40466e-06
-6.29962e-06
1.39533e-06
-6.61397e-06
1.38531e-06
-6.92575e-06
1.3746e-06
-7.23477e-06
1.36318e-06
-7.54084e-06
1.35101e-06
-7.84376e-06
1.33806e-06
-8.14335e-06
1.32427e-06
-8.43938e-06
1.30962e-06
-8.73165e-06
1.29403e-06
-9.01993e-06
1.27748e-06
-9.30398e-06
1.25992e-06
-9.58356e-06
1.24129e-06
-9.85842e-06
1.22155e-06
-1.01283e-05
1.20065e-06
-1.03929e-05
1.17856e-06
-1.0652e-05
1.15522e-06
-1.09052e-05
1.1306e-06
-1.11524e-05
1.10465e-06
-1.13931e-05
1.07734e-06
-1.16271e-05
1.04861e-06
-1.1854e-05
1.01845e-06
-1.20735e-05
9.86811e-07
-1.22854e-05
9.53668e-07
-1.24892e-05
9.18993e-07
-1.26846e-05
8.82761e-07
-1.28712e-05
8.44954e-07
-1.30489e-05
8.05556e-07
-1.32171e-05
7.64557e-07
-1.33755e-05
7.21951e-07
-1.35238e-05
6.77739e-07
-1.36617e-05
6.31927e-07
-1.37888e-05
5.84528e-07
-1.39048e-05
5.35562e-07
-1.40094e-05
4.85056e-07
-1.41022e-05
4.33043e-07
-1.41829e-05
3.79566e-07
-1.42513e-05
3.24674e-07
-1.43071e-05
2.68426e-07
-1.43499e-05
2.10888e-07
-1.43796e-05
1.52135e-07
-1.4396e-05
9.22487e-08
-1.43987e-05
3.13212e-08
-1.43877e-05
-3.05483e-08
-1.43627e-05
-9.32528e-08
-1.43237e-05
-1.56677e-07
-1.42705e-05
-2.20701e-07
-1.4203e-05
-2.85194e-07
-1.41212e-05
-3.50022e-07
-1.40251e-05
-4.15046e-07
-1.39146e-05
-4.80121e-07
-1.37898e-05
-5.45098e-07
-1.36508e-05
-6.09827e-07
-1.34976e-05
-6.74153e-07
-1.33305e-05
-7.37922e-07
-1.31496e-05
-8.00981e-07
-1.2955e-05
-8.63175e-07
-1.2747e-05
-9.24354e-07
-1.25259e-05
-9.8437e-07
-1.2292e-05
-1.04308e-06
-1.20455e-05
-1.10035e-06
-1.17869e-05
-1.15604e-06
-1.15165e-05
-1.21003e-06
-1.12346e-05
-1.26221e-06
-1.09418e-05
-1.31247e-06
-1.06384e-05
-1.36071e-06
-1.03249e-05
-1.40684e-06
-1.00018e-05
-1.45079e-06
-9.66955e-06
-1.49248e-06
-9.32865e-06
-1.53186e-06
-8.97962e-06
-1.56887e-06
-8.62298e-06
-1.60345e-06
-8.25926e-06
-1.63556e-06
-7.88901e-06
-1.66513e-06
-7.5128e-06
-1.6921e-06
-7.13123e-06
-1.71636e-06
-6.7449e-06
-1.73779e-06
-6.35449e-06
-1.75621e-06
-5.9607e-06
-1.77137e-06
-5.56435e-06
-1.78294e-06
-5.1663e-06
-1.79049e-06
-4.76757e-06
-1.79344e-06
-4.36933e-06
-1.79105e-06
-3.97293e-06
-1.78244e-06
-3.57991e-06
-1.76647e-06
-3.19216e-06
-1.74186e-06
-2.81175e-06
-1.70705e-06
-2.4412e-06
-1.66034e-06
-2.08321e-06
-1.59982e-06
-1.74107e-06
-1.52361e-06
-1.41807e-06
-1.42967e-06
-1.11825e-06
-1.31651e-06
-8.45215e-07
-1.18267e-06
-6.0362e-07
-1.02823e-06
-3.96788e-07
-8.53742e-07
-2.29796e-07
-6.63166e-07
-1.04858e-07
-4.61603e-07
-2.78288e-08
-2.60837e-07
-7.41387e-08
-4.33598e-08
1.77579e-07
-1.52466e-07
4.92523e-07
-3.16913e-07
7.63519e-07
-5.22775e-07
9.93795e-07
-7.6386e-07
1.18441e-06
-1.0317e-06
1.34004e-06
-1.32181e-06
1.464e-06
-1.62874e-06
1.56114e-06
-1.94918e-06
1.63525e-06
-2.27953e-06
1.69052e-06
-2.61744e-06
1.73028e-06
-2.96054e-06
1.75779e-06
-3.30727e-06
1.77558e-06
-3.65614e-06
1.78592e-06
-4.00615e-06
1.79054e-06
-4.35639e-06
1.79087e-06
-4.70625e-06
1.78798e-06
-5.05517e-06
1.78267e-06
-5.40277e-06
1.77551e-06
-5.7487e-06
1.7669e-06
-6.09268e-06
1.75712e-06
-6.43447e-06
1.74631e-06
-6.77385e-06
1.73457e-06
-7.11061e-06
1.72193e-06
-7.44454e-06
1.70839e-06
-7.77545e-06
1.69394e-06
-8.10311e-06
1.67854e-06
-8.42733e-06
1.66214e-06
-8.74788e-06
1.64469e-06
-9.06454e-06
1.62614e-06
-9.37707e-06
1.60643e-06
-9.68522e-06
1.58551e-06
-9.98875e-06
1.56332e-06
-1.02874e-05
1.5398e-06
-1.05809e-05
1.5149e-06
-1.08689e-05
1.48856e-06
-1.11512e-05
1.46074e-06
-1.14275e-05
1.43137e-06
-1.16974e-05
1.40041e-06
-1.19607e-05
1.36781e-06
-1.22169e-05
1.33351e-06
-1.24659e-05
1.29748e-06
-1.27072e-05
1.25967e-06
-1.29406e-05
1.22004e-06
-1.31656e-05
1.17856e-06
-1.33818e-05
1.13518e-06
-1.35891e-05
1.0899e-06
-1.37869e-05
1.04267e-06
-1.39749e-05
9.93497e-07
-1.41528e-05
9.42355e-07
-1.43202e-05
8.89242e-07
-1.44767e-05
8.34162e-07
-1.46219e-05
7.77123e-07
-1.47556e-05
7.18144e-07
-1.48773e-05
6.57251e-07
-1.49868e-05
5.94477e-07
-1.50837e-05
5.29868e-07
-1.51676e-05
4.63475e-07
-1.52384e-05
3.95363e-07
-1.52956e-05
3.25603e-07
-1.5339e-05
2.5428e-07
-1.53684e-05
1.81486e-07
-1.53834e-05
1.07323e-07
-1.5384e-05
3.19063e-08
-1.53699e-05
-4.46423e-08
-1.5341e-05
-1.2219e-07
-1.52971e-05
-2.00595e-07
-1.5238e-05
-2.79708e-07
-1.51638e-05
-3.5937e-07
-1.50744e-05
-4.39415e-07
-1.49697e-05
-5.19673e-07
-1.48498e-05
-5.99965e-07
-1.47148e-05
-6.8011e-07
-1.45646e-05
-7.59922e-07
-1.43995e-05
-8.39214e-07
-1.42195e-05
-9.17796e-07
-1.4025e-05
-9.95482e-07
-1.3816e-05
-1.07208e-06
-1.35928e-05
-1.14742e-06
-1.33558e-05
-1.2213e-06
-1.31052e-05
-1.29357e-06
-1.28414e-05
-1.36404e-06
-1.25647e-05
-1.43257e-06
-1.22756e-05
-1.499e-06
-1.19745e-05
-1.56319e-06
-1.16618e-05
-1.62501e-06
-1.1338e-05
-1.68435e-06
-1.10036e-05
-1.74109e-06
-1.06591e-05
-1.79515e-06
-1.0305e-05
-1.84644e-06
-9.94182e-06
-1.89488e-06
-9.57012e-06
-1.9404e-06
-9.19045e-06
-1.98295e-06
-8.80339e-06
-2.02246e-06
-8.4095e-06
-2.05885e-06
-8.0094e-06
-2.09202e-06
-7.60371e-06
-2.12187e-06
-7.19309e-06
-2.14823e-06
-6.77824e-06
-2.17088e-06
-6.35991e-06
-2.18951e-06
-5.93895e-06
-2.20373e-06
-5.51628e-06
-2.21297e-06
-5.09297e-06
-2.21657e-06
-4.67021e-06
-2.21362e-06
-4.24945e-06
-2.20303e-06
-3.83226e-06
-2.18347e-06
-3.42059e-06
-2.15337e-06
-3.01657e-06
-2.11088e-06
-2.6228e-06
-2.05398e-06
-2.24204e-06
-1.98039e-06
-1.87766e-06
-1.88789e-06
-1.53304e-06
-1.7741e-06
-1.21236e-06
-1.63717e-06
-9.19365e-07
-1.47542e-06
-6.59036e-07
-1.28867e-06
-4.35002e-07
-1.07743e-06
-2.53035e-07
-8.45462e-07
-1.15976e-07
-5.98067e-07
-3.09033e-08
-3.4659e-07
-1.04629e-07
-4.64163e-08
2.2347e-07
-1.63431e-07
6.10604e-07
-3.39621e-07
9.38941e-07
-5.5977e-07
1.21456e-06
-8.17002e-07
1.4413e-06
-1.10211e-06
1.62549e-06
-1.41027e-06
1.77204e-06
-1.7357e-06
1.8868e-06
-2.07497e-06
1.9745e-06
-2.42433e-06
2.04003e-06
-2.78138e-06
2.08738e-06
-3.14371e-06
2.12026e-06
-3.50973e-06
2.14167e-06
-3.87792e-06
2.15423e-06
-4.24725e-06
2.15996e-06
-4.6168e-06
2.16053e-06
-4.98592e-06
2.15719e-06
-5.35404e-06
2.1509e-06
-5.72075e-06
2.14231e-06
-6.08568e-06
2.13193e-06
-6.44854e-06
2.12007e-06
-6.80904e-06
2.10692e-06
-7.16697e-06
2.09259e-06
-7.52208e-06
2.07714e-06
-7.87415e-06
2.06057e-06
-8.22297e-06
2.04286e-06
-8.56831e-06
2.02398e-06
-8.90994e-06
2.00387e-06
-9.24763e-06
1.98247e-06
-9.58113e-06
1.95973e-06
-9.91019e-06
1.93559e-06
-1.02346e-05
1.90997e-06
-1.0554e-05
1.88281e-06
-1.08681e-05
1.85404e-06
-1.11767e-05
1.82361e-06
-1.14795e-05
1.79144e-06
-1.17762e-05
1.75748e-06
-1.20664e-05
1.72166e-06
-1.23498e-05
1.68392e-06
-1.26261e-05
1.64421e-06
-1.2895e-05
1.60246e-06
-1.31561e-05
1.55864e-06
-1.3409e-05
1.51267e-06
-1.36534e-05
1.46453e-06
-1.3889e-05
1.41416e-06
-1.41153e-05
1.36154e-06
-1.43319e-05
1.30663e-06
-1.45386e-05
1.2494e-06
-1.47349e-05
1.18984e-06
-1.49204e-05
1.12794e-06
-1.50948e-05
1.06369e-06
-1.52577e-05
9.97088e-07
-1.54087e-05
9.2816e-07
-1.55474e-05
8.56924e-07
-1.56735e-05
7.83413e-07
-1.57867e-05
7.0767e-07
-1.58865e-05
6.29749e-07
-1.59728e-05
5.49717e-07
-1.6045e-05
4.67649e-07
-1.6103e-05
3.83635e-07
-1.61465e-05
2.97775e-07
-1.61752e-05
2.10182e-07
-1.61888e-05
1.2098e-07
-1.61872e-05
3.03074e-08
-1.61702e-05
-6.16892e-08
-1.61375e-05
-1.5485e-07
-1.60891e-05
-2.49005e-07
-1.60249e-05
-3.43974e-07
-1.59447e-05
-4.39567e-07
-1.58486e-05
-5.35587e-07
-1.57364e-05
-6.31828e-07
-1.56084e-05
-7.28078e-07
-1.54644e-05
-8.2412e-07
-1.53046e-05
-9.19734e-07
-1.51292e-05
-1.01469e-06
-1.49383e-05
-1.10878e-06
-1.47321e-05
-1.20176e-06
-1.45108e-05
-1.29342e-06
-1.42747e-05
-1.38354e-06
-1.40242e-05
-1.4719e-06
-1.37595e-05
-1.55831e-06
-1.34811e-05
-1.64255e-06
-1.31893e-05
-1.72445e-06
-1.28846e-05
-1.80382e-06
-1.25674e-05
-1.8805e-06
-1.22382e-05
-1.95434e-06
-1.18974e-05
-2.0252e-06
-1.15457e-05
-2.09295e-06
-1.11835e-05
-2.15748e-06
-1.08113e-05
-2.21869e-06
-1.04298e-05
-2.2765e-06
-1.00395e-05
-2.33082e-06
-9.64102e-06
-2.38158e-06
-9.2349e-06
-2.42869e-06
-8.82179e-06
-2.47208e-06
-8.40232e-06
-2.51163e-06
-7.97713e-06
-2.54719e-06
-7.54692e-06
-2.57857e-06
-7.11242e-06
-2.60551e-06
-6.67442e-06
-2.62765e-06
-6.23378e-06
-2.64449e-06
-5.79147e-06
-2.65541e-06
-5.3486e-06
-2.65958e-06
-4.90638e-06
-2.65596e-06
-4.46628e-06
-2.64327e-06
-4.02994e-06
-2.61993e-06
-3.59933e-06
-2.58412e-06
-3.17662e-06
-2.53369e-06
-2.76444e-06
-2.46629e-06
-2.36561e-06
-2.3793e-06
-1.98358e-06
-2.27009e-06
-1.62176e-06
-2.13593e-06
-1.28451e-06
-1.97461e-06
-9.75711e-07
-1.78415e-06
-7.00635e-07
-1.56402e-06
-4.63216e-07
-1.31461e-06
-2.69802e-07
-1.03934e-06
-1.23733e-07
-7.43576e-07
-3.29122e-08
-4.38204e-07
-1.37148e-07
-4.88945e-08
2.71755e-07
-1.7233e-07
7.35104e-07
-3.58139e-07
1.12386e-06
-5.90107e-07
1.44709e-06
-8.60785e-07
1.7115e-06
-1.16033e-06
1.9253e-06
-1.48363e-06
2.09507e-06
-1.82456e-06
2.22782e-06
-2.17957e-06
2.32934e-06
-2.54478e-06
2.40525e-06
-2.91775e-06
2.46022e-06
-3.29603e-06
2.4985e-06
-3.678e-06
2.52354e-06
-4.06212e-06
2.53829e-06
-4.44736e-06
2.54511e-06
-4.83277e-06
2.54588e-06
-5.2177e-06
2.54204e-06
-5.60157e-06
2.53469e-06
-5.98394e-06
2.52461e-06
-6.36443e-06
2.51235e-06
-6.74273e-06
2.49829e-06
-7.11856e-06
2.48267e-06
-7.49166e-06
2.46562e-06
-7.86179e-06
2.44719e-06
-8.22871e-06
2.42741e-06
-8.59218e-06
2.40626e-06
-8.95198e-06
2.3837e-06
-9.30785e-06
2.35967e-06
-9.65955e-06
2.3341e-06
-1.00068e-05
2.30694e-06
-1.03494e-05
2.2781e-06
-1.0687e-05
2.24751e-06
-1.10194e-05
2.21511e-06
-1.13462e-05
2.18081e-06
-1.16672e-05
2.14454e-06
-1.1982e-05
2.10622e-06
-1.22904e-05
2.06579e-06
-1.2592e-05
2.02318e-06
-1.28864e-05
1.97831e-06
-1.31734e-05
1.93112e-06
-1.34525e-05
1.88154e-06
-1.37235e-05
1.82952e-06
-1.39858e-05
1.77499e-06
-1.42393e-05
1.71791e-06
-1.44834e-05
1.65823e-06
-1.47178e-05
1.59591e-06
-1.49421e-05
1.53091e-06
-1.5156e-05
1.46321e-06
-1.5359e-05
1.39278e-06
-1.55507e-05
1.31961e-06
-1.57307e-05
1.2437e-06
-1.58987e-05
1.16506e-06
-1.60543e-05
1.0837e-06
-1.61971e-05
9.9966e-07
-1.63267e-05
9.12971e-07
-1.64427e-05
8.23688e-07
-1.65449e-05
7.31875e-07
-1.66328e-05
6.37612e-07
-1.67061e-05
5.4099e-07
-1.67646e-05
4.42114e-07
-1.6808e-05
3.41105e-07
-1.68359e-05
2.38094e-07
-1.68482e-05
1.33231e-07
-1.68445e-05
2.66746e-08
-1.68248e-05
-8.13993e-08
-1.67889e-05
-1.90804e-07
-1.67365e-05
-3.01338e-07
-1.66677e-05
-4.12792e-07
-1.65823e-05
-5.24942e-07
-1.64803e-05
-6.37557e-07
-1.63617e-05
-7.50395e-07
-1.62266e-05
-8.63209e-07
-1.60749e-05
-9.75744e-07
-1.59069e-05
-1.08774e-06
-1.57226e-05
-1.19895e-06
-1.55223e-05
-1.30909e-06
-1.53061e-05
-1.41791e-06
-1.50743e-05