/*--------------------------------*- C++ -*----------------------------------*\
| =========                 |                                                 |
| \\      /  F ield         | OpenFOAM: The Open Source CFD Toolbox           |
|  \\    /   O peration     | Version:  2406                                  |
|   \\  /    A nd           | Website:  www.openfoam.com                      |
|    \\/     M anipulation  |                                                 |
\*---------------------------------------------------------------------------*/
FoamFile
{
    version     2.0;
    format      ascii;
    arch        "LSB;label=32;scalar=64";
    class       surfaceScalarField;
    location    "32.7";
    object      phi_0;
}
// * * * * * * * * * * * * * * * * * * * * * * * * * * * * * * * * * * * * * //

dimensions      [0 3 -1 0 0 0 0];

oriented        oriented;

internalField   nonuniform List<scalar> 
28560
(
-4.34143e-10
4.34121e-10
5.40391e-08
-5.4473e-08
1.77595e-07
-1.23556e-07
3.56842e-07
-1.79246e-07
5.74003e-07
-2.17161e-07
8.11147e-07
-2.37144e-07
1.0522e-06
-2.41058e-07
1.28388e-06
-2.31679e-07
1.49611e-06
-2.12227e-07
1.68214e-06
-1.86028e-07
1.8384e-06
-1.56262e-07
1.96415e-06
-1.25748e-07
2.06093e-06
-9.6781e-08
2.13196e-06
-7.10316e-08
2.18147e-06
-4.95092e-08
2.21406e-06
-3.25856e-08
2.23421e-06
-2.0155e-08
2.24553e-06
-1.13197e-08
2.25062e-06
-5.08565e-09
2.25051e-06
1.06282e-10
2.24594e-06
4.56642e-09
2.23543e-06
1.05132e-08
2.21663e-06
1.88037e-08
2.18628e-06
3.03428e-08
2.14049e-06
4.5795e-08
2.07489e-06
6.56032e-08
1.98485e-06
9.00395e-08
1.86558e-06
1.19265e-07
1.71219e-06
1.53388e-07
1.51969e-06
1.92507e-07
1.28296e-06
2.36725e-07
9.96819e-07
2.86143e-07
6.55984e-07
3.40835e-07
2.55171e-07
4.00813e-07
-2.10819e-07
4.6599e-07
-7.46973e-07
5.36153e-07
-1.3579e-06
6.10932e-07
-2.04769e-06
6.89785e-07
-2.81967e-06
7.71984e-07
-3.67629e-06
8.56614e-07
-4.61886e-06
9.4257e-07
-5.64743e-06
1.02857e-06
-6.7606e-06
1.11317e-06
-7.95537e-06
1.19478e-06
-9.22707e-06
1.27169e-06
-1.05692e-05
1.34214e-06
-1.19735e-05
1.40428e-06
-1.34298e-05
1.45631e-06
-1.49262e-05
1.49642e-06
-1.64491e-05
1.5229e-06
-1.79833e-05
1.53414e-06
-1.95119e-05
1.52865e-06
-2.10171e-05
1.50515e-06
-2.24796e-05
1.46252e-06
-2.38794e-05
1.39986e-06
-2.5196e-05
1.31652e-06
-2.64081e-05
1.21211e-06
-2.74946e-05
1.08652e-06
-2.84346e-05
9.39988e-07
-2.92077e-05
7.73086e-07
-2.97947e-05
5.87013e-07
-3.0178e-05
3.83351e-07
-3.03396e-05
1.6159e-07
-3.02629e-05
-7.67272e-08
-2.99411e-05
-3.21838e-07
-2.93639e-05
-5.77194e-07
-2.85264e-05
-8.37433e-07
-2.74281e-05
-1.0983e-06
-2.6073e-05
-1.35516e-06
-2.44699e-05
-1.60304e-06
-2.26332e-05
-1.83671e-06
-2.05824e-05
-2.0508e-06
-1.83425e-05
-2.23997e-06
-1.59434e-05
-2.3991e-06
-1.34199e-05
-2.52351e-06
-1.08107e-05
-2.60917e-06
-8.15774e-06
-2.65295e-06
-5.50494e-06
-2.6528e-06
-2.897e-06
-2.60795e-06
-3.77986e-07
-2.51901e-06
2.01006e-06
-2.38804e-06
4.2286e-06
-2.21854e-06
6.24391e-06
-2.01532e-06
8.02827e-06
-1.78435e-06
9.56077e-06
-1.53251e-06
1.0828e-05
-1.26723e-06
1.18242e-05
-9.96199e-07
1.25512e-05
-7.26997e-07
1.30179e-05
-4.6674e-07
1.32395e-05
-2.21597e-07
1.32413e-05
-1.76605e-09
1.3037e-05
2.04257e-07
1.26621e-05
3.74926e-07
1.21453e-05
5.168e-07
1.15151e-05
6.30203e-07
1.08001e-05
7.15037e-07
1.00271e-05
7.72994e-07
9.2206e-06
8.06489e-07
8.40213e-06
8.18461e-07
7.58997e-06
8.12163e-07
6.79903e-06
7.90945e-07
6.04094e-06
7.58091e-07
5.32425e-06
7.16688e-07
4.65471e-06
6.69536e-07
4.03562e-06
6.19097e-07
3.46815e-06
5.67467e-07
2.95177e-06
5.1638e-07
2.48456e-06
4.67208e-07
2.0636e-06
4.20962e-07
1.68534e-06
3.78261e-07
1.34606e-06
3.39275e-07
1.04243e-06
3.03632e-07
7.72116e-07
2.70315e-07
5.34536e-07
2.37581e-07
3.31548e-07
2.02988e-07
1.67849e-07
1.63699e-07
5.05523e-08
1.17297e-07
-1.31128e-08
6.36651e-08
-2.21268e-08
9.01397e-09
-2.21268e-08
5.22224e-08
-5.1788e-08
2.45255e-07
-2.47505e-07
5.81973e-07
-4.60275e-07
1.03588e-06
-6.33153e-07
1.57083e-06
-7.5211e-07
2.14887e-06
-8.15185e-07
2.73465e-06
-8.26835e-07
3.29794e-06
-7.94977e-07
3.81507e-06
-7.29351e-07
4.26937e-06
-6.40332e-07
4.65114e-06
-5.38027e-07
4.95691e-06
-4.31524e-07
5.18846e-06
-3.28323e-07
5.35139e-06
-2.33969e-07
5.45377e-06
-1.5189e-07
5.50461e-06
-8.3419e-08
5.51246e-06
-2.80085e-08
5.48457e-06
1.65702e-08
5.42561e-06
5.38742e-08
5.33777e-06
8.79493e-08
5.21917e-06
1.2316e-07
5.06569e-06
1.63998e-07
4.87016e-06
2.14337e-07
4.62316e-06
2.77336e-07
4.31358e-06
3.55381e-07
3.92907e-06
4.50109e-07
3.45656e-06
5.62546e-07
2.88255e-06
6.93278e-07
2.19331e-06
8.42625e-07
1.37507e-06
1.01075e-06
4.14121e-07
1.19768e-06
-7.03031e-07
1.4033e-06
-1.98942e-06
1.62723e-06
-3.45734e-06
1.86873e-06
-5.11795e-06
2.1266e-06
-6.98084e-06
2.39904e-06
-9.05355e-06
2.68364e-06
-1.13411e-05
2.97729e-06
-1.38453e-05
3.27623e-06
-1.65647e-05
3.57602e-06
-1.94938e-05
3.87166e-06
-2.26229e-05
4.15764e-06
-2.59378e-05
4.42807e-06
-2.94198e-05
4.67681e-06
-3.30457e-05
4.89764e-06
-3.6788e-05
5.08441e-06
-4.0615e-05
5.23121e-06
-4.44912e-05
5.33253e-06
-4.83781e-05
5.38336e-06
-5.22346e-05
5.37936e-06
-5.60174e-05
5.31691e-06
-5.96819e-05
5.19319e-06
-6.31829e-05
5.00619e-06
-6.64752e-05
4.75479e-06
-6.95141e-05
4.43872e-06
-7.22561e-05
4.05853e-06
-7.46596e-05
3.61567e-06
-7.66855e-05
3.11237e-06
-7.82972e-05
2.55175e-06
-7.9462e-05
1.93787e-06
-8.01505e-05
1.27549e-06
-8.03375e-05
5.70342e-07
-8.00064e-05
-1.69471e-07
-7.91402e-05
-9.42899e-07
-7.77288e-05
-1.73329e-06
-7.57717e-05
-2.53425e-06
-7.32734e-05
-3.33574e-06
-7.02455e-05
-4.12622e-06
-6.67071e-05
-4.89354e-06
-6.26852e-05
-5.62495e-06
-5.82146e-05
-6.30728e-06
-5.33382e-05
-6.92722e-06
-4.81065e-05
-7.47166e-06
-4.25775e-05
-7.92811e-06
-3.68159e-05
-8.28514e-06
-3.08922e-05
-8.53284e-06
-2.48818e-05
-8.66335e-06
-1.88633e-05
-8.67127e-06
-1.29172e-05
-8.5541e-06
-7.12363e-06
-8.31254e-06
-1.56096e-06
-7.95071e-06
3.69668e-06
-7.47619e-06
8.58127e-06
-6.8999e-06
1.30328e-05
-6.23587e-06
1.7001e-05
-5.50075e-06
2.0447e-05
-4.71322e-06
2.33442e-05
-3.89335e-06
2.56789e-05
-3.06169e-06
2.74507e-05
-2.23856e-06
2.86726e-05
-1.44352e-06
2.9365e-05
-6.94162e-07
2.95673e-05
1.90553e-09
2.93274e-05
6.14919e-07
2.8691e-05
1.15317e-06
2.77164e-05
1.60483e-06
2.64628e-05
1.96859e-06
2.49899e-05
2.24586e-06
2.33557e-05
2.44076e-06
2.16144e-05
2.55977e-06
1.98154e-05
2.61111e-06
1.80022e-05
2.60416e-06
1.62115e-05
2.54884e-06
1.4473e-05
2.45514e-06
1.28099e-05
2.33264e-06
1.12388e-05
2.19021e-06
9.77047e-06
2.03578e-06
8.41066e-06
1.87618e-06
7.1608e-06
1.71707e-06
6.01894e-06
1.56283e-06
4.98078e-06
1.41641e-06
4.04087e-06
1.27919e-06
3.19386e-06
1.15064e-06
2.43606e-06
1.02812e-06
1.76689e-06
9.0675e-07
1.19021e-06
7.79667e-07
7.14817e-07
6.39091e-07
3.53338e-07
4.78776e-07
1.1803e-07
2.98973e-07
1.20545e-08
1.1499e-07
-1.00722e-08
1.17454e-07
-1.69242e-07
4.4882e-07
-5.78871e-07
9.66601e-07
-9.78056e-07
1.63211e-06
-1.29866e-06
2.39836e-06
-1.51837e-06
3.21628e-06
-1.6331e-06
4.03949e-06
-1.65004e-06
4.82767e-06
-1.58316e-06
5.54856e-06
-1.45024e-06
6.17877e-06
-1.27055e-06
6.70384e-06
-1.06309e-06
7.1174e-06
-8.45085e-07
7.4199e-06
-6.30819e-07
7.61687e-06
-4.30941e-07
7.71706e-06
-2.5208e-07
7.73047e-06
-9.6832e-08
7.66653e-06
3.59315e-08
7.53266e-06
1.50439e-07
7.33301e-06
2.53523e-07
7.06763e-06
3.53337e-07
6.73203e-06
4.58756e-07
6.31759e-06
5.78442e-07
5.81176e-06
7.20164e-07
5.19879e-06
8.90309e-07
4.46046e-06
1.09371e-06
3.5769e-06
1.33367e-06
2.5272e-06
1.61225e-06
1.29001e-06
1.93047e-06
-1.56031e-07
2.28867e-06
-1.8319e-06
2.68661e-06
-3.75778e-06
3.12356e-06
-5.95261e-06
3.59813e-06
-8.43352e-06
4.10814e-06
-1.12152e-05
4.65037e-06
-1.4309e-05
5.2204e-06
-1.77224e-05
5.81243e-06
-2.1458e-05
6.41925e-06
-2.55129e-05
7.03224e-06
-2.98781e-05
7.64146e-06
-3.4538e-05
8.23588e-06
-3.94699e-05
8.80358e-06
-4.46444e-05
9.33209e-06
-5.00251e-05
9.80877e-06
-5.55694e-05
1.02212e-05
-6.12292e-05
1.05574e-05
-6.69514e-05
1.08066e-05
-7.26793e-05
1.09591e-05
-7.83535e-05
1.10067e-05
-8.39132e-05
1.09431e-05
-8.92974e-05
1.07635e-05
-9.44456e-05
1.04652e-05
-9.92994e-05
1.0047e-05
-0.000103803
9.50954e-06
-0.000107903
8.85505e-06
-0.000111551
8.08708e-06
-0.000114703
7.21051e-06
-0.000117319
6.23136e-06
-0.000119363
5.15675e-06
-0.000120806
3.99475e-06
-0.000121623
2.75448e-06
-0.000121794
1.44629e-06
-0.000121302
7.86499e-08
-0.000120142
-1.32956e-06
-0.000118311
-2.77359e-06
-0.00011581
-4.23472e-06
-0.000112647
-5.69743e-06
-0.000108837
-7.14552e-06
-0.000104402
-8.56122e-06
-9.93699e-05
-9.92566e-06
-9.37757e-05
-1.12191e-05
-8.76617e-05
-1.24213e-05
-8.10772e-05
-1.35117e-05
-7.40787e-05
-1.44701e-05
-6.67298e-05
-1.52771e-05
-5.91004e-05
-1.59146e-05
-5.12664e-05
-1.63668e-05
-4.33091e-05
-1.66207e-05
-3.53134e-05
-1.66669e-05
-2.73673e-05
-1.65002e-05
-1.95597e-05
-1.61201e-05
-1.19793e-05
-1.55311e-05
-4.71213e-06
-1.47434e-05
2.15999e-06
-1.3772e-05
8.56151e-06
-1.26374e-05
1.4425e-05
-1.13642e-05
1.9693e-05
-9.98118e-06
2.43192e-05
-8.51962e-06
2.82704e-05
-7.01281e-06
3.15265e-05
-5.49466e-06
3.40814e-05
-3.99847e-06
3.59426e-05
-2.55537e-06
3.71385e-05
-1.19395e-06
3.76989e-05
5.45008e-08
3.76703e-05
1.18178e-06
3.71121e-05
2.163e-06
3.6089e-05
2.99171e-06
3.46712e-05
3.66365e-06
3.29317e-05
4.18028e-06
3.09434e-05
4.54804e-06
2.87769e-05
4.7776e-06
2.64981e-05
4.88298e-06
2.41664e-05
4.88057e-06
2.18335e-05
4.78804e-06
1.95427e-05
4.62345e-06
1.73285e-05
4.40438e-06
1.5217e-05
4.14725e-06
1.32264e-05
3.86683e-06
1.13677e-05
3.57579e-06
9.64607e-06
3.2844e-06
8.06237e-06
3.00012e-06
6.61441e-06
2.72715e-06
5.29905e-06
2.46601e-06
4.11407e-06
2.21309e-06
3.06019e-06
1.96063e-06
2.14255e-06
1.69731e-06
1.37138e-06
1.41026e-06
7.60983e-07
1.08917e-06
3.26142e-07
7.33813e-07
7.54148e-08
3.65717e-07
6.53426e-08
1.70134e-07
-3.39376e-07
6.16618e-07
-1.02536e-06
1.28248e-06
-1.64392e-06
2.11276e-06
-2.12893e-06
3.04967e-06
-2.45527e-06
4.03565e-06
-2.61908e-06
5.0171e-06
-2.6315e-06
5.94747e-06
-2.51353e-06
6.78925e-06
-2.29201e-06
7.51489e-06
-1.99619e-06
8.10672e-06
-1.65492e-06
8.55606e-06
-1.29442e-06
8.8617e-06
-9.36459e-07
9.02796e-06
-5.97205e-07
9.06253e-06
-2.8665e-07
8.97426e-06
-8.56169e-09
8.77103e-06
2.39161e-07
8.458e-06
4.63468e-07
8.03632e-06
6.75202e-07
7.5021e-06
8.87557e-07
6.84616e-06
1.11469e-06
6.05418e-06
1.37042e-06
5.10728e-06
1.66707e-06
3.98285e-06
2.01473e-06
2.65559e-06
2.42097e-06
1.09845e-06
2.89081e-06
-7.16407e-07
3.42711e-06
-2.81681e-06
4.03087e-06
-5.22978e-06
4.70164e-06
-7.98081e-06
5.43765e-06
-1.1093e-05
6.23579e-06
-1.45864e-05
7.09144e-06
-1.84764e-05
7.99814e-06
-2.27733e-05
8.94734e-06
-2.74811e-05
9.92816e-06
-3.2596e-05
1.09274e-05
-3.81062e-05
1.19295e-05
-4.39908e-05
1.29168e-05
-5.02196e-05
1.38703e-05
-5.67533e-05
1.47696e-05
-6.35438e-05
1.55941e-05
-7.05351e-05
1.63233e-05
-7.76644e-05
1.69381e-05
-8.48638e-05
1.74206e-05
-9.20618e-05
1.77555e-05
-9.91854e-05
1.79301e-05
-0.000106161
1.79349e-05
-0.000112918
1.77632e-05
-0.000119386
1.74116e-05
-0.000125502
1.68797e-05
-0.000131207
1.61697e-05
-0.000136446
1.52859e-05
-0.000141171
1.42349e-05
-0.000145341
1.30249e-05
-0.000148919
1.16651e-05
-0.000151875
1.01661e-05
-0.000154182
8.53916e-06
-0.000155822
6.7964e-06
-0.000156778
4.95053e-06
-0.000157038
3.015e-06
-0.000156596
1.00383e-06
-0.000155449
-1.06845e-06
-0.000153594
-3.18452e-06
-0.000151039
-5.32873e-06
-0.000147791
-7.4824e-06
-0.000143863
-9.62562e-06
-0.000139271
-1.17372e-05
-0.000134038
-1.37945e-05
-0.00012819
-1.57736e-05
-0.00012176
-1.76491e-05
-0.000114786
-1.93948e-05
-0.000107314
-2.09837e-05
-9.93954e-05
-2.23891e-05
-9.10875e-05
-2.35849e-05
-8.24555e-05
-2.45465e-05
-7.35707e-05
-2.52516e-05
-6.45099e-05
-2.56816e-05
-5.5355e-05
-2.58218e-05
-4.61922e-05
-2.56631e-05
-3.71099e-05
-2.52023e-05
-2.81981e-05
-2.4443e-05
-1.95458e-05
-2.33956e-05
-1.12401e-05
-2.20778e-05
-3.36355e-06
-2.05139e-05
4.00696e-06
-1.87348e-05
1.08024e-05
-1.67767e-05
1.69631e-05
-1.46803e-05
2.24397e-05
-1.24894e-05
2.71949e-05
-1.02499e-05
3.1204e-05
-8.0075e-06
3.4456e-05
-5.80737e-06
3.69543e-05
-3.6923e-06
3.87106e-05
-1.70176e-06
3.97598e-05
1.32555e-07
4.01418e-05
1.78096e-06
3.99108e-05
3.22274e-06
3.91303e-05
4.4442e-06
3.78713e-05
5.43922e-06
3.62102e-05
6.20916e-06
3.42254e-05
6.76242e-06
3.19948e-05
7.11359e-06
2.95931e-05
7.28224e-06
2.70895e-05
7.29166e-06
2.45456e-05
7.1673e-06
2.20145e-05
6.93548e-06
1.95398e-05
6.622e-06
1.71555e-05
6.2511e-06
1.48868e-05
5.84447e-06
1.27508e-05
5.42041e-06
1.07579e-05
4.99306e-06
8.9135e-06
4.57154e-06
7.22027e-06
4.15923e-06
5.68022e-06
3.75314e-06
4.29698e-06
3.34387e-06
3.07773e-06
2.91656e-06
2.03438e-06
2.45361e-06
1.1837e-06
1.93985e-06
5.46072e-07
1.37145e-06
1.43529e-07
7.68261e-07
2.08871e-07
2.0955e-07
-5.48926e-07
7.45283e-07
-1.56109e-06
1.52641e-06
-2.42506e-06
2.48093e-06
-3.08344e-06
3.53946e-06
-3.5138e-06
4.63638e-06
-3.716e-06
5.71225e-06
-3.70737e-06
6.71622e-06
-3.5175e-06
7.6076e-06
-3.1834e-06
8.3565e-06
-2.74509e-06
8.94344e-06
-2.24187e-06
9.35823e-06
-1.70921e-06
9.59817e-06
-1.17639e-06
9.66588e-06
-6.64915e-07
9.56694e-06
-1.87715e-07
9.30748e-06
2.50897e-07
8.89201e-06
6.5464e-07
8.32142e-06
1.03405e-06
7.59177e-06
1.40485e-06
6.69333e-06
1.786e-06
5.6104e-06
2.19762e-06
4.32172e-06
2.6591e-06
2.80124e-06
3.18755e-06
1.01925e-06
3.79672e-06
-1.05634e-06
4.49656e-06
-3.45873e-06
5.2932e-06
-6.22097e-06
6.18935e-06
-9.37481e-06
7.1847e-06
-1.29495e-05
8.2763e-06
-1.69704e-05
9.45862e-06
-2.14582e-05
1.07235e-05
-2.64266e-05
1.20599e-05
-3.18819e-05
1.34534e-05
-3.78208e-05
1.48862e-05
-4.42298e-05
1.63372e-05
-5.10842e-05
1.77818e-05
-5.83476e-05
1.91928e-05
-6.59722e-05
2.05414e-05
-7.38996e-05
2.17977e-05
-8.20619e-05
2.29319e-05
-9.03838e-05
2.39159e-05
-9.87844e-05
2.4724e-05
-0.00010718
2.53339e-05
-0.000115487
2.57276e-05
-0.000123623
2.58916e-05
-0.00013151
2.58172e-05
-0.000139076
2.55003e-05
-0.000146254
2.49412e-05
-0.000152986
2.4144e-05
-0.000159222
2.31157e-05
-0.000164919
2.18661e-05
-0.00017004
2.0407e-05
-0.000174556
1.87513e-05
-0.000178444
1.69129e-05
-0.000181685
1.49063e-05
-0.000184265
1.27462e-05
-0.000186174
1.04476e-05
-0.000187403
8.02552e-06
-0.000187948
5.49509e-06
-0.000187804
2.87178e-06
-0.000186972
1.71638e-07
-0.000185452
-2.58884e-06
-0.000183245
-5.39174e-06
-0.000180355
-8.21835e-06
-0.000176789
-1.1048e-05
-0.000172556
-1.38586e-05
-0.000167667
-1.6626e-05
-0.000162138
-1.93238e-05
-0.000155988
-2.19239e-05
-0.000149241
-2.43962e-05
-0.000141927
-2.67089e-05
-0.000134081
-2.8829e-05
-0.000125747
-3.07231e-05
-0.000116974
-3.23579e-05
-0.000107819
-3.37017e-05
-9.8346e-05
-3.47249e-05
-8.86258e-05
-3.54018e-05
-7.87361e-05
-3.57114e-05
-6.87601e-05
-3.56391e-05
-5.87849e-05
-3.51775e-05
-4.89006e-05
-3.43273e-05
-3.91984e-05
-3.30979e-05
-2.97683e-05
-3.15078e-05
-2.06979e-05
-2.95842e-05
-1.20702e-05
-2.73625e-05
-3.96157e-06
-2.48852e-05
3.55912e-06
-2.22009e-05
1.04323e-05
-1.93626e-05
1.66085e-05
-1.6426e-05
2.20492e-05
-1.34483e-05
2.67278e-05
-1.0486e-05
3.06293e-05
-7.59378e-06
3.37507e-05
-4.82316e-06
3.61035e-05
-2.2203e-06
3.77105e-05
1.73972e-07
3.86071e-05
2.32619e-06
3.88407e-05
4.21062e-06
3.84694e-05
5.81051e-06
3.75603e-05
7.1182e-06
3.61876e-05
8.1352e-06
3.44293e-05
8.8718e-06
3.23654e-05
9.34616e-06
3.00741e-05
9.58297e-06
2.76295e-05
9.61187e-06
2.50994e-05
9.46558e-06
2.25434e-05
9.17808e-06
2.00116e-05
8.78284e-06
1.7545e-05
8.31112e-06
1.51749e-05
7.79053e-06
1.29244e-05
7.24353e-06
1.08099e-05
6.68607e-06
8.84272e-06
6.12637e-06
7.03186e-06
5.564e-06
5.38604e-06
4.98968e-06
3.91632e-06
4.38629e-06
2.63804e-06
3.73189e-06
1.57259e-06
3.0053e-06
7.48983e-07
2.19506e-06
2.06075e-07
1.31117e-06
4.14946e-07
2.38309e-07
-7.87235e-07
8.40627e-07
-2.16341e-06
1.70729e-06
-3.29172e-06
2.7502e-06
-4.12636e-06
3.88815e-06
-4.65176e-06
5.04731e-06
-4.87515e-06
6.16282e-06
-4.82288e-06
7.1805e-06
-4.53518e-06
8.05774e-06
-4.06064e-06
8.7636e-06
-3.45094e-06
9.27792e-06
-2.75619e-06
9.58973e-06
-2.02103e-06
9.69514e-06
-1.2818e-06
9.59485e-06
-5.64624e-07
9.29158e-06
1.1556e-07
8.78754e-06
7.54929e-07
8.08224e-06
1.35994e-06
7.17058e-06
1.94571e-06
6.04168e-06
2.53376e-06
4.67824e-06
3.14944e-06
3.05669e-06
3.81917e-06
1.14789e-06
4.5679e-06
-1.08166e-06
5.4171e-06
-3.66833e-06
6.3834e-06
-6.64971e-06
7.47794e-06
-1.00629e-05
8.70642e-06
-1.3943e-05
1.00695e-05
-1.83213e-05
1.1563e-05
-2.32237e-05
1.31787e-05
-2.86689e-05
1.49038e-05
-3.46665e-05
1.67212e-05
-4.12156e-05
1.8609e-05
-4.8303e-05
2.05407e-05
-5.5902e-05
2.24852e-05
-6.39721e-05
2.44073e-05
-7.24593e-05
2.62689e-05
-8.12965e-05
2.803e-05
-9.04058e-05
2.96508e-05
-9.97011e-05
3.10929e-05
-0.00010909
3.23211e-05
-0.000118479
3.3305e-05
-0.000127775
3.402e-05
-0.000136889
3.44475e-05
-0.000145738
3.45761e-05
-0.000154246
3.44005e-05
-0.00016235
3.39212e-05
-0.000169994
3.31439e-05
-0.000177131
3.20785e-05
-0.000183725
3.07379e-05
-0.000189747
2.91375e-05
-0.000195175
2.72939e-05
-0.000199992
2.52245e-05
-0.000204188
2.2947e-05
-0.000207754
2.04788e-05
-0.000210685
1.78369e-05
-0.000212976
1.50377e-05
-0.000214626
1.20972e-05
-0.000215631
9.03105e-06
-0.000215991
5.85469e-06
-0.000215703
2.58362e-06
-0.000214765
-7.66163e-07
-0.000213176
-4.178e-06
-0.000210934
-7.63382e-06
-0.000208038
-1.11143e-05
-0.000204488
-1.45979e-05
-0.000200285
-1.8061e-05
-0.000195434
-2.14773e-05
-0.00018994
-2.48179e-05
-0.000183813
-2.8051e-05
-0.000177067
-3.11421e-05
-0.000169721
-3.40543e-05
-0.000161802
-3.67484e-05
-0.000153341
-3.91842e-05
-0.000144378
-4.13208e-05
-0.000134962
-4.31182e-05
-0.000125148
-4.45385e-05
-0.000115002
-4.55475e-05
-0.000104598
-4.61161e-05
-9.40144e-05
-4.62223e-05
-8.33396e-05
-4.58523e-05
-7.26646e-05
-4.50023e-05
-6.20837e-05
-4.36788e-05
-5.16918e-05
-4.18997e-05
-4.15824e-05
-3.96936e-05
-3.18453e-05
-3.70997e-05
-2.25642e-05
-3.41663e-05
-1.38158e-05
-3.09493e-05
-5.66768e-06
-2.75108e-05
1.82242e-06
-2.39161e-05
8.60705e-06
-2.02329e-05
1.46494e-05
-1.65283e-05
1.99236e-05
-1.28679e-05
2.44144e-05
-9.31396e-06
2.81179e-05
-5.92376e-06
3.1041e-05
-2.74922e-06
3.32025e-05
1.64734e-07
3.46319e-05
2.7812e-06
3.53705e-05
5.07195e-06
3.547e-05
7.01867e-06
3.4992e-05
8.61322e-06
3.40059e-05
9.8579e-06
3.25869e-05
1.07651e-05
3.08133e-05
1.13566e-05
2.87636e-05
1.16616e-05
2.65136e-05
1.17156e-05
2.41339e-05
1.15577e-05
2.16881e-05
1.12287e-05
1.92309e-05
1.07682e-05
1.68083e-05
1.02132e-05
1.4457e-05
9.59482e-06
1.22059e-05
8.93723e-06
1.00771e-05
8.25509e-06
8.08885e-06
7.55229e-06
6.25715e-06
6.82138e-06
4.59916e-06
6.04428e-06
3.13589e-06
5.19515e-06
1.89557e-06
4.24562e-06
9.17564e-07
3.17307e-06
2.57731e-07
1.971e-06
6.72677e-07
2.5954e-07
-1.04678e-06
9.10282e-07
-2.81415e-06
1.83669e-06
-4.21812e-06
2.93585e-06
-5.22552e-06
4.11498e-06
-5.83088e-06
5.29208e-06
-6.05225e-06
6.39721e-06
-5.92801e-06
7.37348e-06
-5.51145e-06
8.17729e-06
-4.86444e-06
8.77758e-06
-4.05124e-06
9.15438e-06
-3.13298e-06
9.29653e-06
-2.16318e-06
9.19912e-06
-1.18439e-06
8.86065e-06
-2.26155e-07
8.28026e-06
6.95953e-07
7.45513e-06
1.58006e-06
6.37831e-06
2.43676e-06
5.03713e-06
3.28689e-06
3.41225e-06
4.15864e-06
1.47757e-06
5.08412e-06
-7.99149e-07
6.09589e-06
-3.45502e-06
7.22377e-06
-6.53025e-06
8.49234e-06
-1.00661e-05
9.9193e-06
-1.4103e-05
1.15148e-05
-1.86779e-05
1.32813e-05
-2.38226e-05
1.52142e-05
-2.95615e-05
1.73019e-05
-3.59093e-05
1.95265e-05
-4.28691e-05
2.18636e-05
-5.04302e-05
2.42823e-05
-5.85668e-05
2.67455e-05
-6.72368e-05
2.92108e-05
-7.63824e-05
3.16308e-05
-8.59306e-05
3.39556e-05
-9.57957e-05
3.6134e-05
-0.000105882
3.81164e-05
-0.000116088
3.98568e-05
-0.00012631
4.13148e-05
-0.000136446
4.24573e-05
-0.000146401
4.32597e-05
-0.000156087
4.37057e-05
-0.000165427
4.37878e-05
-0.000174357
4.3506e-05
-0.000182823
4.28668e-05
-0.000190784
4.18822e-05
-0.000198208
4.05682e-05
-0.000205073
3.89434e-05
-0.000211364
3.70281e-05
-0.000217069
3.48433e-05
-0.000222185
3.24098e-05
-0.000226709
2.9748e-05
-0.000230639
2.68772e-05
-0.000233976
2.38158e-05
-0.00023672
2.05809e-05
-0.000238871
1.71888e-05
-0.000240429
1.36546e-05
-0.000241391
9.99306e-06
-0.000241755
6.21863e-06
-0.000241517
2.34579e-06
-0.000240672
-1.61049e-06
-0.000239216
-5.6343e-06
-0.000237142
-9.70827e-06
-0.000234443
-1.38133e-05
-0.000231113
-1.79277e-05
-0.000227146
-2.20274e-05
-0.000222539
-2.60849e-05
-0.000217287
-3.00694e-05
-0.000211392
-3.39465e-05
-0.000204856
-3.76779e-05
-0.000197688
-4.12222e-05
-0.000189902
-4.45347e-05
-0.000181518
-4.75682e-05
-0.000172564
-5.02741e-05
-0.000163079
-5.26036e-05
-0.000153108
-5.45092e-05
-0.000142709
-5.59465e-05
-0.000131949
-5.68765e-05
-0.000120904
-5.72671e-05
-0.00010966
-5.7096e-05
-9.83111e-05
-5.63516e-05
-8.69549e-05
-5.5035e-05
-7.56936e-05
-5.3161e-05
-6.46293e-05
-5.07579e-05
-5.38617e-05
-4.78673e-05
-4.34854e-05
-4.45426e-05
-3.35873e-05
-4.08475e-05
-2.42447e-05
-3.68533e-05
-1.55244e-05
-3.26365e-05
-7.48157e-06
-2.82757e-05
-1.60134e-07
-2.38498e-05
6.40727e-06
-1.94353e-05
1.21984e-05
-1.51051e-05
1.72012e-05
-1.09266e-05
2.14131e-05
-6.96113e-06
2.48411e-05
-3.2632e-06
2.75016e-05
1.20633e-07
2.94212e-05
3.15237e-06
3.06364e-05
5.80351e-06
3.11937e-05
8.05588e-06
3.11493e-05
9.90228e-06
3.05677e-05
1.13468e-05
2.95198e-05
1.24045e-05
2.80808e-05
1.31006e-05
2.63273e-05
1.3469e-05
2.43348e-05
1.35503e-05
2.21746e-05
1.33889e-05
1.99119e-05
1.30309e-05
1.76045e-05
1.25206e-05
1.53018e-05
1.18976e-05
1.30449e-05
1.11941e-05
1.08678e-05
1.04321e-05
8.79906e-06
9.62108e-06
6.86382e-06
8.75662e-06
5.08726e-06
7.82084e-06
3.49805e-06
6.78436e-06
2.13278e-06
5.61089e-06
1.04162e-06
4.26422e-06
2.95562e-07
2.71706e-06
9.6824e-07
2.75611e-07
-1.32239e-06
9.60326e-07
-3.49886e-06
1.92391e-06
-5.18171e-06
3.04963e-06
-6.35124e-06
4.23367e-06
-7.01492e-06
5.38632e-06
-7.2049e-06
6.43308e-06
-6.97477e-06
7.31508e-06
-6.39346e-06
7.98851e-06
-5.53787e-06
8.42304e-06
-4.48577e-06
8.59947e-06
-3.30941e-06
8.50677e-06
-2.07048e-06
8.13897e-06
-8.16587e-07
7.49188e-06
4.20929e-07
6.56021e-06
1.62762e-06
5.33493e-06
2.80534e-06
3.80135e-06
3.97034e-06
1.93788e-06
5.15036e-06
-2.84271e-07
6.38079e-06
-2.90054e-06
7.70038e-06
-5.95161e-06
9.14696e-06
-9.48139e-06
1.07535e-05
-1.35345e-05
1.25455e-05
-1.81538e-05
1.45386e-05
-2.33774e-05
1.67384e-05
-2.92363e-05
1.91402e-05
-3.57517e-05
2.17296e-05
-4.29326e-05
2.44828e-05
-5.07731e-05
2.73671e-05
-5.92511e-05
3.03416e-05
-6.83262e-05
3.33573e-05
-7.79399e-05
3.63592e-05
-8.80162e-05
3.92871e-05
-9.8464e-05
4.20786e-05
-0.00010918
4.46719e-05
-0.000120055
4.70085e-05
-0.000130975
4.90363e-05
-0.000141829
5.07116e-05
-0.000152516
5.20011e-05
-0.00016294
5.2882e-05
-0.000173023
5.33423e-05
-0.000182697
5.33799e-05
-0.00019191
5.3001e-05
-0.000200623
5.22186e-05
-0.000208807
5.10509e-05
-0.000216444
4.95195e-05
-0.000223524
4.76481e-05
-0.000230042
4.54611e-05
-0.000235997
4.29829e-05
-0.00024139
4.0237e-05
-0.000246226
3.72458e-05
-0.000250509
3.40302e-05
-0.000254241
3.06093e-05
-0.000257426
2.7001e-05
-0.000260066
2.32213e-05
-0.000262163
1.92852e-05
-0.000263715
1.52067e-05
-0.000264721
1.0999e-05
-0.000265177
6.67508e-06
-0.000265079
2.2479e-06
-0.000264421
-2.26902e-06
-0.000263194
-6.86117e-06
-0.00026139
-1.15125e-05
-0.000258998
-1.6205e-05
-0.000256008
-2.0918e-05
-0.000252407
-2.56277e-05
-0.000248185
-3.03069e-05
-0.000243331
-3.49241e-05
-0.000237834
-3.94435e-05
-0.000231687
-4.38249e-05
-0.000224886
-4.80232e-05
-0.000217431
-5.19892e-05
-0.00020933
-5.56698e-05
-0.000200595
-5.9009e-05
-0.000191249
-6.19489e-05
-0.000181327
-6.44319e-05
-0.000170871
-6.64022e-05
-0.000159939
-6.78085e-05
-0.0001486
-6.86063e-05
-0.000136935
-6.87608e-05
-0.000125037
-6.82493e-05
-0.000113009
-6.70634e-05
-0.000100959
-6.52109e-05
-8.90006e-05
-6.27162e-05
-7.72472e-05
-5.96207e-05
-6.58085e-05
-5.59813e-05
-5.47875e-05
-5.18685e-05
-4.4277e-05
-4.73638e-05
-3.43576e-05
-4.25559e-05
-2.50962e-05
-3.75371e-05
-1.65455e-05
-3.24004e-05
-8.74508e-06
-2.72358e-05
-1.72177e-06
-2.21284e-05
4.50848e-06
-1.71568e-05
9.93927e-06
-1.23919e-05
1.45727e-05
-7.89663e-06
1.84188e-05
-3.72544e-06
2.14953e-05
7.58717e-08
2.38281e-05
3.47074e-06
2.54515e-05
6.43245e-06
2.64088e-05
8.94496e-06
2.6752e-05
1.10035e-05
2.65413e-05
1.26152e-05
2.58436e-05
1.37984e-05
2.47304e-05
1.45822e-05
2.32757e-05
1.50049e-05
2.15532e-05
1.51115e-05
1.96334e-05
1.49507e-05
1.75822e-05
1.45718e-05
1.54586e-05
1.40211e-05
1.33148e-05
1.3338e-05
1.11956e-05
1.25513e-05
9.1402e-06
1.16765e-05
7.18386e-06
1.0713e-05
5.361e-06
9.64369e-06
3.70918e-06
8.43618e-06
2.2741e-06
7.04597e-06
1.1161e-06
5.42222e-06
3.18192e-07
3.51497e-06
1.28643e-06
2.87901e-07
-1.61029e-06
9.94296e-07
-4.20526e-06
1.97421e-06
-6.16162e-06
3.09775e-06
-7.47478e-06
4.25081e-06
-8.16798e-06
5.3368e-06
-8.29088e-06
6.27756e-06
-7.91554e-06
7.01318e-06
-7.12907e-06
7.50049e-06
-6.02518e-06
7.71055e-06
-4.69583e-06
7.62532e-06
-3.22418e-06
7.23395e-06
-1.67912e-06
6.52901e-06
-1.11642e-07
5.50291e-06
1.44702e-06
4.14489e-06
2.98564e-06
2.43854e-06
4.51169e-06
3.60292e-07
6.0486e-06
-2.12116e-06
7.63181e-06
-5.04432e-06
9.30394e-06
-8.45337e-06
1.11094e-05
-1.23958e-05
1.30894e-05
-1.69195e-05
1.52772e-05
-2.20693e-05
1.76953e-05
-2.7884e-05
2.03532e-05
-3.43929e-05
2.32472e-05
-4.16128e-05
2.63601e-05
-4.95456e-05
2.96623e-05
-5.81752e-05
3.31125e-05
-6.74665e-05
3.66584e-05
-7.73638e-05
4.02388e-05
-8.77916e-05
4.37851e-05
-9.86564e-05
4.72241e-05
-0.00010985
5.04811e-05
-0.000121256
5.34842e-05
-0.000132752
5.61675e-05
-0.000144218
5.84743e-05
-0.000155541
6.03596e-05
-0.000166621
6.17914e-05
-0.00017737
6.27505e-05
-0.000187718
6.32301e-05
-0.00019761
6.32343e-05
-0.000207006
6.27754e-05
-0.000215878
6.18729e-05
-0.000224209
6.05504e-05
-0.000231993
5.88345e-05
-0.000239227
5.67531e-05
-0.000245912
5.4334e-05
-0.000252056
5.16046e-05
-0.000257664
4.85907e-05
-0.000262743
4.53165e-05
-0.000267302
4.18044e-05
-0.000271346
3.80747e-05
-0.000274883
3.41461e-05
-0.000277917
3.0035e-05
-0.000280453
2.57567e-05
-0.000282492
2.13248e-05
-0.000284038
1.67519e-05
-0.000285088
1.20495e-05
-0.000285642
7.22907e-06
-0.000285696
2.30165e-06
-0.000285244
-2.72114e-06
-0.000284278
-7.82683e-06
-0.000282789
-1.30015e-05
-0.000280765
-1.82292e-05
-0.000278191
-2.34913e-05
-0.000275053
-2.87661e-05
-0.000271332
-3.40276e-05
-0.000267011
-3.92457e-05
-0.000262069
-4.4385e-05
-0.000256489
-4.94049e-05
-0.000250254
-5.4259e-05
-0.000243348
-5.88951e-05
-0.000235762
-6.32559e-05
-0.000227491
-6.72792e-05
-0.000218541
-7.08991e-05
-0.000208925
-7.40478e-05
-0.00019867
-7.66575e-05
-0.000187816
-7.86631e-05
-0.000176417
-8.0005e-05
-0.000164545
-8.06327e-05
-0.000152286
-8.05078e-05
-0.000139743
-7.96072e-05
-0.000127027
-7.79262e-05
-0.000114264
-7.54798e-05
-0.00010158
-7.23041e-05
-8.91062e-05
-6.84554e-05
-7.69661e-05
-6.40086e-05
-6.52759e-05
-5.9054e-05
-5.41382e-05
-5.36935e-05
-4.36398e-05
-4.80355e-05
-3.38498e-05
-4.21904e-05
-2.48195e-05
-3.62661e-05
-1.65837e-05
-3.03643e-05
-9.16233e-06
-2.45781e-05
-2.56338e-06
-1.89909e-05
3.21505e-06
-1.36751e-05
8.18254e-06
-8.69294e-06
1.23552e-05
-4.09674e-06
1.57549e-05
7.09857e-08
1.84099e-05
3.77742e-06
2.03551e-05
6.99982e-06
2.16325e-05
9.72617e-06
2.22918e-05
1.19558e-05
2.23903e-05
1.36999e-05
2.19915e-05
1.4981e-05
2.11638e-05
1.58326e-05
1.99784e-05
1.6297e-05
1.85065e-05
1.64225e-05
1.68177e-05
1.62606e-05
1.49773e-05
1.58615e-05
1.30454e-05
1.52699e-05
1.10762e-05
1.45204e-05
9.11882e-06
1.36339e-05
7.21833e-06
1.26135e-05
5.41882e-06
1.14432e-05
3.76714e-06
1.00879e-05
2.31796e-06
8.49515e-06
1.14035e-06
6.59984e-06
3.25525e-07
4.32979e-06
1.61196e-06
2.96845e-07
-1.90713e-06
1.01313e-06
-4.92154e-06
1.98857e-06
-7.13707e-06
3.08062e-06
-8.56683e-06
4.16589e-06
-9.25325e-06
5.1421e-06
-9.2671e-06
5.9287e-06
-8.70214e-06
6.46585e-06
-7.66623e-06
6.71197e-06
-6.2713e-06
6.64004e-06
-4.62391e-06
6.23334e-06
-2.81748e-06
5.48087e-06
-9.26648e-07
4.37307e-06
9.96162e-07
2.89797e-06
2.92212e-06
1.03819e-06
4.84542e-06
-1.23109e-06
6.78097e-06
-3.94301e-06
8.76052e-06
-7.13863e-06
1.08274e-05
-1.08653e-05
1.30306e-05
-1.51739e-05
1.5418e-05
-2.01152e-05
1.80308e-05
-2.57364e-05
2.08984e-05
-3.20763e-05
2.40352e-05
-3.91622e-05
2.74392e-05
-4.70062e-05
3.10912e-05
-5.5602e-05
3.49559e-05
-6.49229e-05
3.89832e-05
-7.492e-05
4.31096e-05
-8.55223e-05
4.72607e-05
-9.66378e-05
5.13543e-05
-0.000108157
5.53041e-05
-0.000119957
5.90239e-05
-0.000131908
6.24324e-05
-0.000143881
6.54574e-05
-0.000155753
6.80392e-05
-0.000167411
7.01327e-05
-0.00017876
7.17085e-05
-0.00018972
7.27518e-05
-0.000200231
7.32614e-05
-0.000210249
7.32473e-05
-0.000219742
7.27279e-05
-0.000228695
7.1728e-05
-0.000237098
7.02762e-05
-0.000244951
6.84034e-05
-0.000252258
6.61412e-05
-0.000259025
6.35205e-05
-0.000265262
6.05713e-05
-0.00027098
5.7322e-05
-0.000276188
5.37989e-05
-0.000280898
5.00264e-05
-0.00028512
4.60266e-05
-0.000288865
4.18195e-05
-0.000292142
3.74229e-05
-0.00029496
3.28528e-05
-0.000297326
2.81232e-05
-0.000299248
2.32466e-05
-0.00030073
1.82341e-05
-0.000301776
1.30956e-05
-0.000302387
7.84041e-06
-0.000302563
2.47753e-06
-0.000302301
-2.98393e-06
-0.000301593
-8.5342e-06
-0.000300432
-1.41623e-05
-0.000298806
-1.98554e-05
-0.000296699
-2.55981e-05
-0.000294094
-3.13718e-05
-0.000290967
-3.71539e-05
-0.000287296
-4.2917e-05
-0.000283053
-4.86284e-05
-0.000278208
-5.42493e-05
-0.000272733
-5.97341e-05
-0.000266598
-6.50305e-05
-0.000259774
-7.00791e-05
-0.00025224
-7.48138e-05
-0.000243976
-7.91627e-05
-0.000234975
-8.30494e-05
-0.000225237
-8.63947e-05
-0.000214781
-8.91193e-05
-0.000203639
-9.11472e-05
-0.000191863
-9.24091e-05
-0.000179524
-9.28467e-05
-0.000166714
-9.24169e-05
-0.000153545
-9.10956e-05
-0.000140143
-8.88814e-05
-0.00012665
-8.57971e-05
-0.000113214
-8.18916e-05
-9.99844e-05
-7.72381e-05
-8.71065e-05
-7.19319e-05
-7.4714e-05
-6.60861e-05
-6.2924e-05
-5.98256e-05
-5.18329e-05
-5.32815e-05
-4.15148e-05
-4.65842e-05
-3.2021e-05
-3.98581e-05
-2.33817e-05
-3.32174e-05
-1.56096e-05
-2.6763e-05
-8.70277e-06
-2.05818e-05
-2.64917e-06
-1.47465e-05
2.57083e-06
-9.31675e-06
6.98205e-06
-4.34023e-06