/*--------------------------------*- C++ -*----------------------------------*\
| =========                 |                                                 |
| \\      /  F ield         | OpenFOAM: The Open Source CFD Toolbox           |
|  \\    /   O peration     | Version:  2406                                  |
|   \\  /    A nd           | Website:  www.openfoam.com                      |
|    \\/     M anipulation  |                                                 |
\*---------------------------------------------------------------------------*/
FoamFile
{
    version     2.0;
    format      ascii;
    arch        "LSB;label=32;scalar=64";
    class       surfaceScalarField;
    location    "13.4";
    object      phi;
}
// * * * * * * * * * * * * * * * * * * * * * * * * * * * * * * * * * * * * * //

dimensions      [0 3 -1 0 0 0 0];

oriented        oriented;

internalField   nonuniform List<scalar> 
28560
(
8.77952e-09
-8.77727e-09
1.93359e-08
-1.05565e-08
2.38526e-08
-4.51657e-09
1.90534e-08
4.79948e-09
4.63127e-09
1.44221e-08
-1.85003e-08
2.31316e-08
-4.88266e-08
3.03263e-08
-8.47438e-08
3.59172e-08
-1.24801e-07
4.00573e-08
-1.67807e-07
4.3006e-08
-2.12859e-07
4.50523e-08
-2.5933e-07
4.64703e-08
-3.06827e-07
4.74975e-08
-3.55153e-07
4.83261e-08
-4.04255e-07
4.91021e-08
-4.54185e-07
4.99298e-08
-5.05063e-07
5.08774e-08
-5.57047e-07
5.19843e-08
-6.10315e-07
5.32676e-08
-6.65043e-07
5.4728e-08
-7.21397e-07
5.63548e-08
-7.79527e-07
5.81298e-08
-8.39557e-07
6.00302e-08
-9.01588e-07
6.20309e-08
-9.65694e-07
6.41053e-08
-1.03192e-06
6.62271e-08
-1.10029e-06
6.83697e-08
-1.1708e-06
7.05074e-08
-1.24341e-06
7.26148e-08
-1.31808e-06
7.46671e-08
-1.39472e-06
7.66396e-08
-1.47323e-06
7.85079e-08
-1.55347e-06
8.02475e-08
-1.63531e-06
8.18338e-08
-1.71855e-06
8.32416e-08
-1.803e-06
8.44452e-08
-1.88841e-06
8.54183e-08
-1.97455e-06
8.61335e-08
-2.06111e-06
8.65623e-08
-2.14778e-06
8.66755e-08
-2.23423e-06
8.64422e-08
-2.32006e-06
8.58307e-08
-2.40487e-06
8.48082e-08
-2.48821e-06
8.33408e-08
-2.5696e-06
8.13944e-08
-2.64854e-06
7.89343e-08
-2.72446e-06
7.59266e-08
-2.7968e-06
7.23382e-08
-2.86494e-06
6.81379e-08
-2.92824e-06
6.32975e-08
-2.98603e-06
5.77927e-08
-3.03763e-06
5.16042e-08
-3.08235e-06
4.47194e-08
-3.11949e-06
3.7134e-08
-3.14834e-06
2.88529e-08
-3.16823e-06
1.98919e-08
-3.17858e-06
1.03451e-08
-3.17849e-06
-8.72554e-11
-3.16773e-06
-1.07609e-08
-3.14565e-06
-2.2074e-08
-3.11186e-06
-3.37956e-08
-3.06602e-06
-4.58379e-08
-3.00793e-06
-5.80921e-08
-2.93749e-06
-7.04357e-08
-2.85476e-06
-8.27354e-08
-2.75991e-06
-9.48484e-08
-2.65328e-06
-1.06625e-07
-2.53537e-06
-1.1791e-07
-2.40682e-06
-1.2855e-07
-2.26843e-06
-1.38392e-07
-2.12114e-06
-1.4729e-07
-1.96603e-06
-1.55109e-07
-1.8043e-06
-1.61727e-07
-1.63726e-06
-1.67039e-07
-1.4663e-06
-1.70962e-07
-1.29287e-06
-1.73436e-07
-1.11844e-06
-1.74423e-07
-9.44527e-07
-1.73916e-07
-7.72596e-07
-1.71931e-07
-6.04083e-07
-1.68513e-07
-4.40352e-07
-1.63731e-07
-2.82675e-07
-1.57677e-07
-1.32211e-07
-1.50463e-07
1.00093e-08
-1.4222e-07
1.431e-07
-1.33091e-07
2.66328e-07
-1.23228e-07
3.79117e-07
-1.12788e-07
4.81046e-07
-1.0193e-07
5.71855e-07
-9.08086e-08
6.51427e-07
-7.95722e-08
7.19786e-07
-6.83592e-08
7.77081e-07
-5.7295e-08
8.23572e-07
-4.64908e-08
8.59613e-07
-3.60411e-08
8.85638e-07
-2.60248e-08
9.02142e-07
-1.65041e-08
9.09668e-07
-7.52529e-09
9.08858e-07
8.09826e-10
9.00068e-07
8.78943e-09
8.84072e-07
1.59967e-08
8.61412e-07
2.26593e-08
8.32628e-07
2.87841e-08
7.98249e-07
3.43794e-08
7.58777e-07
3.94721e-08
7.14689e-07
4.40877e-08
6.66441e-07
4.82481e-08
6.14475e-07
5.19657e-08
5.59238e-07
5.52367e-08
5.01204e-07
5.80342e-08
4.40907e-07
6.02973e-08
3.78988e-07
6.19189e-08
3.16259e-07
6.27294e-08
2.53782e-07
6.24769e-08
1.92976e-07
6.08059e-08
1.35741e-07
5.72351e-08
8.45726e-08
5.11681e-08
4.26174e-08
4.19551e-08
1.34398e-08
2.91776e-08
2.0454e-10
1.32353e-08
2.04539e-10
1.0692e-08
-1.94694e-08
1.93437e-08
-1.92077e-08
1.11006e-08
3.72686e-09
-1.96758e-08
3.5576e-08
-7.38945e-08
6.86409e-08
-1.49584e-07
9.88212e-08
-2.43532e-07
1.24275e-07
-3.5218e-07
1.44565e-07
-4.72174e-07
1.60051e-07
-6.0065e-07
1.71482e-07
-7.35347e-07
1.7975e-07
-8.74612e-07
1.85735e-07
-1.01734e-06
1.90225e-07
-1.16289e-06
1.93874e-07
-1.31098e-06
1.97193e-07
-1.4616e-06
2.00554e-07
-1.61494e-06
2.04213e-07
-1.77128e-06
2.08323e-07
-1.93097e-06
2.12959e-07
-2.09438e-06
2.18139e-07
-2.26186e-06
2.23836e-07
-2.43372e-06
2.29993e-07
-2.61023e-06
2.36536e-07
-2.79158e-06
2.43379e-07
-2.9779e-06
2.50428e-07
-3.16926e-06
2.57588e-07
-3.36566e-06
2.64764e-07
-3.56701e-06
2.7186e-07
-3.77318e-06
2.78782e-07
-3.98395e-06
2.85436e-07
-4.19904e-06
2.91732e-07
-4.41811e-06
2.97579e-07
-4.64075e-06
3.02885e-07
-4.86647e-06
3.0756e-07
-5.09474e-06
3.11512e-07
-5.32495e-06
3.1465e-07
-5.55641e-06
3.1688e-07
-5.78838e-06
3.18107e-07
-6.02005e-06
3.18232e-07
-6.25053e-06
3.17155e-07
-6.47886e-06
3.14774e-07
-6.70402e-06
3.10982e-07
-6.92488e-06
3.05672e-07
-7.14027e-06
2.98736e-07
-7.34894e-06
2.90063e-07
-7.54955e-06
2.79545e-07
-7.7407e-06
2.67077e-07
-7.92092e-06
2.52557e-07
-8.08868e-06
2.35894e-07
-8.24239e-06
2.17005e-07
-8.38042e-06
1.95826e-07
-8.50112e-06
1.72308e-07
-8.60283e-06
1.46428e-07
-8.68389e-06
1.18187e-07
-8.74266e-06
8.76224e-08
-8.77757e-06
5.48063e-08
-8.78708e-06
1.98526e-08
-8.77002e-06
-1.7143e-08
-8.72489e-06
-5.58968e-08
-8.65076e-06
-9.62047e-08
-8.54676e-06
-1.37788e-07
-8.4123e-06
-1.80303e-07
-8.24702e-06
-2.23372e-07
-8.05088e-06
-2.66578e-07
-7.82414e-06
-3.09467e-07
-7.56743e-06
-3.5156e-07
-7.2817e-06
-3.92357e-07
-6.96826e-06
-4.31347e-07
-6.62879e-06
-4.6802e-07
-6.26531e-06
-5.01879e-07
-5.88015e-06
-5.32446e-07
-5.47598e-06
-5.59281e-07
-5.05572e-06
-5.81991e-07
-4.62252e-06
-6.00236e-07
-4.17974e-06
-6.13746e-07
-3.73085e-06
-6.22324e-07
-3.27942e-06
-6.25856e-07
-2.82902e-06
-6.24309e-07
-2.38322e-06
-6.17739e-07
-1.94544e-06
-6.06285e-07
-1.51901e-06
-5.90169e-07
-1.10699e-06
-5.69688e-07
-7.12255e-07
-5.45203e-07
-3.37339e-07
-5.17136e-07
1.55224e-08
-4.85953e-07
3.44445e-07
-4.5215e-07
6.47903e-07
-4.16246e-07
9.24736e-07
-3.78763e-07
1.17415e-06
-3.40218e-07
1.39568e-06
-3.01109e-07
1.58923e-06
-2.61903e-07
1.75496e-06
-2.2303e-07
1.89335e-06
-1.84875e-07
2.00508e-06
-1.47773e-07
2.09106e-06
-1.12002e-07
2.15234e-06
-7.77884e-08
2.19012e-06
-4.53079e-08
2.20559e-06
-1.46625e-08
2.2003e-06
1.40855e-08
2.17542e-06
4.08719e-08
2.13236e-06
6.57268e-08
2.07245e-06
8.86913e-08
1.99701e-06
1.09823e-07
1.90729e-06
1.29185e-07
1.80454e-06
1.4684e-07
1.68996e-06
1.62833e-07
1.56475e-06
1.77173e-07
1.43017e-06
1.89812e-07
1.28759e-06
2.00621e-07
1.13853e-06
2.09358e-07
9.84817e-07
2.15627e-07
8.28706e-07
2.1884e-07
6.73019e-07
2.18164e-07
5.21344e-07
2.12481e-07
3.78211e-07
2.00367e-07
2.49211e-07
1.80169e-07
1.40905e-07
1.50261e-07
6.02966e-08
1.09786e-07
1.33022e-08
6.02297e-08
1.35067e-08
4.30618e-09
-2.37754e-08
-5.05358e-09
-9.84759e-09
-4.20496e-08
4.07231e-08
-1.12069e-07
1.05596e-07
-2.1559e-07
1.72162e-07
-3.49962e-07
2.33193e-07
-5.10957e-07
2.8527e-07
-6.93838e-07
3.27446e-07
-8.94049e-07
3.60262e-07
-1.10761e-06
3.85039e-07
-1.33128e-06
4.03423e-07
-1.56263e-06
4.17089e-07
-1.79997e-06
4.27561e-07
-2.04223e-06
4.3613e-07
-2.28885e-06
4.43822e-07
-2.5397e-06
4.514e-07
-2.79488e-06
4.59395e-07
-3.0547e-06
4.68138e-07
-3.31954e-06
4.77803e-07
-3.58984e-06
4.88439e-07
-3.86601e-06
5.00006e-07
-4.14842e-06
5.12401e-07
-4.43736e-06
5.25477e-07
-4.73304e-06
5.3906e-07
-5.03557e-06
5.52961e-07
-5.34497e-06
5.66982e-07
-5.66112e-06
5.80922e-07
-5.98384e-06
5.9458e-07
-6.31282e-06
6.07757e-07
-6.64764e-06
6.20255e-07
-6.98779e-06
6.31882e-07
-7.33265e-06
6.42443e-07
-7.68152e-06
6.5175e-07
-8.03357e-06
6.59614e-07
-8.3879e-06
6.65846e-07
-8.74351e-06
6.70258e-07
-9.09929e-06
6.72661e-07
-9.45405e-06
6.72864e-07
-9.80649e-06
6.70675e-07
-1.01552e-05
6.65897e-07
-1.04988e-05
6.58331e-07
-1.08356e-05
6.47775e-07
-1.11639e-05
6.34026e-07
-1.14821e-05
6.16878e-07
-1.17881e-05
5.96127e-07
-1.20802e-05
5.71575e-07
-1.23561e-05
5.43029e-07
-1.26139e-05
5.1031e-07
-1.28512e-05
4.73257e-07
-1.3066e-05
4.31732e-07
-1.32558e-05
3.8563e-07
-1.34183e-05
3.34884e-07
-1.35514e-05
2.79475e-07
-1.36526e-05
2.19439e-07
-1.37199e-05
1.54875e-07
-1.3751e-05
8.59546e-08
-1.37441e-05
1.29021e-08
-1.36973e-05
-6.39045e-08
-1.36091e-05
-1.44108e-07
-1.34782e-05
-2.27167e-07
-1.33034e-05
-3.12501e-07
-1.30843e-05
-3.99435e-07
-1.28205e-05
-4.87209e-07
-1.25121e-05
-5.74991e-07
-1.21596e-05
-6.61889e-07
-1.17642e-05
-7.46958e-07
-1.13274e-05
-8.29222e-07
-1.0851e-05
-9.0769e-07
-1.03377e-05
-9.81371e-07
-9.79026e-06
-1.0493e-06
-9.21213e-06
-1.11057e-06
-8.60709e-06
-1.16433e-06
-7.97926e-06
-1.20982e-06
-7.33311e-06
-1.24639e-06
-6.67333e-06
-1.27352e-06
-6.00482e-06
-1.29084e-06
-5.33256e-06
-1.29811e-06
-4.66158e-06
-1.29529e-06
-3.99685e-06
-1.28247e-06
-3.34324e-06
-1.2599e-06
-2.70539e-06
-1.22802e-06
-2.0877e-06
-1.18738e-06
-1.49423e-06
-1.13868e-06
-9.28645e-07
-1.08272e-06
-3.94203e-07
-1.02039e-06
1.06319e-07
-9.52672e-07
5.70624e-07
-8.80552e-07
9.96913e-07
-8.05053e-07
1.38388e-06
-7.27187e-07
1.73071e-06
-6.47936e-07
2.03704e-06
-5.68228e-07
2.30293e-06
-4.88923e-07
2.52885e-06
-4.10797e-07
2.7156e-06
-3.34528e-07
2.8643e-06
-2.60696e-07
2.97628e-06
-1.89773e-07
3.0531e-06
-1.22124e-07
3.09643e-06
-5.79955e-08
3.1082e-06
2.31368e-09
3.09009e-06
5.89863e-08
3.04406e-06
1.11752e-07
2.972e-06
1.60753e-07
2.87577e-06
2.06057e-07
2.7572e-06
2.47756e-07
2.6181e-06
2.85933e-07
2.46031e-06
3.20631e-07
2.28566e-06
3.51821e-07
2.09611e-06
3.79359e-07
1.8938e-06
4.02935e-07
1.68113e-06
4.22022e-07
1.46096e-06
4.35803e-07
1.23669e-06
4.43106e-07
1.01252e-06
4.42334e-07
7.93583e-07
4.31419e-07
5.8611e-07
4.0784e-07
3.9748e-07
3.68799e-07
2.36049e-07
3.11692e-07
1.10621e-07
2.35214e-07
2.94945e-08
1.41356e-07
4.30012e-08
-6.4894e-09
-1.72857e-08
-4.24433e-08
2.61065e-08
-1.1803e-07
1.1631e-07
-2.36577e-07
2.24142e-07
-3.97115e-07
3.32701e-07
-5.95911e-07
4.31988e-07
-8.27783e-07
5.17142e-07
-1.0871e-06
5.86768e-07
-1.36848e-06
6.4164e-07
-1.66717e-06
6.83729e-07
-1.97928e-06
7.15531e-07
-2.30181e-06
7.39619e-07
-2.63262e-06
7.5837e-07
-2.97031e-06
7.73817e-07
-3.31408e-06
7.87592e-07
-3.6636e-06
8.00928e-07
-4.0189e-06
8.14691e-07
-4.38019e-06
8.29433e-07
-4.74784e-06
8.45451e-07
-5.12225e-06
8.62841e-07
-5.50379e-06
8.81553e-07
-5.89282e-06
9.01426e-07
-6.28957e-06
9.22227e-07
-6.69418e-06
9.43674e-07
-7.10668e-06
9.65457e-07
-7.52694e-06
9.87248e-07
-7.95474e-06
1.00871e-06
-8.38967e-06
1.02952e-06
-8.83124e-06
1.04932e-06
-9.27879e-06
1.06781e-06
-9.73155e-06
1.08464e-06
-1.01886e-05
1.0995e-06
-1.06489e-05
1.11209e-06
-1.11114e-05
1.12208e-06
-1.15747e-05
1.12918e-06
-1.20376e-05
1.13308e-06
-1.24984e-05
1.13349e-06
-1.29556e-05
1.13011e-06
-1.34076e-05
1.12263e-06
-1.38525e-05
1.11076e-06
-1.42883e-05
1.0942e-06
-1.47132e-05
1.07264e-06
-1.51249e-05
1.04577e-06
-1.55214e-05
1.01329e-06
-1.59001e-05
9.7491e-07
-1.62589e-05
9.30326e-07
-1.65951e-05
8.79265e-07
-1.69063e-05
8.21472e-07
-1.71898e-05
7.56722e-07
-1.74428e-05
6.84829e-07
-1.76629e-05
6.05661e-07
-1.78471e-05
5.19148e-07
-1.7993e-05
4.25295e-07
-1.80977e-05
3.24197e-07
-1.81589e-05
2.16048e-07
-1.81741e-05
1.0115e-07
-1.81411e-05
-2.00712e-08
-1.8058e-05
-1.47058e-07
-1.79229e-05
-2.79126e-07
-1.77347e-05
-4.15453e-07
-1.74921e-05
-5.55078e-07
-1.71946e-05
-6.96915e-07
-1.68421e-05
-8.39751e-07
-1.64348e-05
-9.82267e-07
-1.59736e-05
-1.12305e-06
-1.546e-05
-1.26062e-06
-1.48957e-05
-1.39344e-06
-1.42835e-05
-1.51995e-06
-1.36262e-05
-1.63863e-06
-1.29276e-05
-1.74796e-06
-1.21916e-05
-1.84651e-06
-1.1423e-05
-1.93298e-06
-1.06266e-05
-2.00618e-06
-9.80791e-06
-2.0651e-06
-8.9725e-06
-2.10893e-06
-8.12626e-06
-2.13708e-06
-7.27518e-06
-2.14919e-06
-6.42532e-06
-2.14515e-06
-5.58267e-06
-2.12511e-06
-4.75311e-06
-2.08946e-06
-3.94228e-06
-2.03884e-06
-3.15554e-06
-1.97412e-06
-2.39786e-06
-1.89635e-06
-1.67378e-06
-1.8068e-06
-9.87339e-07
-1.70684e-06
-3.42031e-07
-1.59798e-06
2.59207e-07
-1.48179e-06
8.14024e-07
-1.35987e-06
1.32066e-06
-1.23382e-06
1.77793e-06
-1.1052e-06
2.18519e-06
-9.75495e-07
2.54235e-06
-8.4608e-07
2.84977e-06
-7.18212e-07
3.10824e-06
-5.93e-07
3.31894e-06
-4.71396e-07
3.48335e-06
-3.54189e-07
3.60323e-06
-2.42002e-07
3.68054e-06
-1.35303e-07
3.71727e-06
-3.44222e-08
3.71575e-06
6.05065e-08
3.67814e-06
1.49363e-07
3.60672e-06
2.32177e-07
3.50375e-06
3.09027e-07
3.3715e-06
3.80008e-07
3.21223e-06
4.45198e-07
3.02825e-06
5.04612e-07
2.82193e-06
5.58143e-07
2.59579e-06
6.05499e-07
2.35259e-06
6.46131e-07
2.09547e-06
6.7915e-07
1.82804e-06
7.03233e-07
1.55461e-06
7.16533e-07
1.28034e-06
7.16602e-07
1.01141e-06
7.00355e-07
7.55123e-07
6.64123e-07
5.20006e-07
6.03916e-07
3.15687e-07
5.1601e-07
1.52765e-07
3.98137e-07
4.27817e-08
2.51339e-07
8.5783e-08
-1.92259e-08
1.9403e-09
-8.66026e-08
9.34832e-08
-2.06929e-07
2.36637e-07
-3.80263e-07
3.97476e-07
-6.03398e-07
5.55836e-07
-8.71057e-07
6.99647e-07
-1.17695e-06
8.23036e-07
-1.51461e-06
9.24428e-07
-1.87797e-06
1.005e-06
-2.26174e-06
1.06749e-06
-2.66155e-06
1.11534e-06
-3.07403e-06
1.1521e-06
-3.49673e-06
1.18107e-06
-3.92799e-06
1.20507e-06
-4.36681e-06
1.22641e-06
-4.8127e-06
1.24683e-06
-5.26557e-06
1.26755e-06
-5.72551e-06
1.28938e-06
-6.19281e-06
1.31275e-06
-6.66776e-06
1.33779e-06
-7.15067e-06
1.36446e-06
-7.64177e-06
1.39252e-06
-8.14118e-06
1.42164e-06
-8.64892e-06
1.45141e-06
-9.16484e-06
1.48138e-06
-9.68867e-06
1.51107e-06
-1.02199e-05
1.53999e-06
-1.07581e-05
1.56765e-06
-1.13023e-05
1.59356e-06
-1.18517e-05
1.61722e-06
-1.24053e-05
1.63818e-06
-1.29617e-05
1.65598e-06
-1.35198e-05
1.67015e-06
-1.4078e-05
1.68027e-06
-1.46347e-05
1.68591e-06
-1.51883e-05
1.68665e-06
-1.57369e-05
1.68209e-06
-1.62786e-05
1.67181e-06
-1.68114e-05
1.65542e-06
-1.73331e-05
1.63252e-06
-1.78417e-05
1.60271e-06
-1.83346e-05
1.5656e-06
-1.88096e-05
1.52079e-06
-1.92642e-05
1.46787e-06
-1.96958e-05
1.40647e-06
-2.01017e-05
1.33621e-06
-2.04791e-05
1.25674e-06
-2.08254e-05
1.16773e-06
-2.11376e-05
1.06891e-06
-2.14128e-05
9.60049e-07
-2.16482e-05
8.40999e-07
-2.18407e-05
7.11699e-07
-2.19876e-05
5.72194e-07
-2.20861e-05
4.22651e-07
-2.21334e-05
2.63378e-07
-2.21271e-05
9.48353e-08
-2.20648e-05
-8.23486e-08
-2.19445e-05
-2.6737e-07
-2.17644e-05
-4.59237e-07
-2.1523e-05
-6.56775e-07
-2.12195e-05
-8.58624e-07
-2.08532e-05
-1.06324e-06
-2.0424e-05
-1.26893e-06
-1.99324e-05
-1.47384e-06
-1.93795e-05
-1.67598e-06
-1.87668e-05
-1.87328e-06
-1.80967e-05
-2.06361e-06
-1.73718e-05
-2.2448e-06
-1.65957e-05
-2.4147e-06
-1.57725e-05
-2.57122e-06
-1.49066e-05
-2.71236e-06
-1.40033e-05
-2.83629e-06
-1.30681e-05
-2.94135e-06
-1.21071e-05
-3.02613e-06
-1.11266e-05
-3.08948e-06
-1.01331e-05
-3.13055e-06
-9.13347e-06
-3.14882e-06
-8.13451e-06
-3.14411e-06
-7.14303e-06
-3.1166e-06
-6.16569e-06
-3.0668e-06
-5.20896e-06
-2.99557e-06
-4.27897e-06
-2.90411e-06
-3.38146e-06
-2.79387e-06
-2.52168e-06
-2.66657e-06
-1.70436e-06
-2.52416e-06
-9.33623e-07
-2.36872e-06
-2.12964e-07
-2.20245e-06
4.54772e-07
-2.02761e-06
1.0674e-06
-1.84645e-06
1.62339e-06
-1.66119e-06
2.12183e-06
-1.47394e-06
2.56243e-06
-1.28668e-06
2.94542e-06
-1.10121e-06
3.27156e-06
-9.1914e-07
3.54203e-06
-7.41864e-07
3.75838e-06
-5.70543e-07
3.92249e-06
-4.06111e-07
4.03647e-06
-2.49278e-07
4.10259e-06
-1.00542e-07
4.1233e-06
3.97894e-08
4.10111e-06
1.71557e-07
4.03856e-06
2.9473e-07
3.93822e-06
4.0936e-07
3.8027e-06
5.15526e-07
3.63462e-06
6.13281e-07
3.43665e-06
7.0258e-07
3.21159e-06
7.83208e-07
2.9624e-06
8.5469e-07
2.69234e-06
9.16193e-07
2.40507e-06
9.66417e-07
2.10482e-06
1.00349e-06
1.79652e-06
1.02483e-06
1.486e-06
1.02712e-06
1.18015e-06
1.00621e-06
8.87037e-07
9.57235e-07
6.16043e-07
8.7491e-07
3.77966e-07
7.54087e-07
1.85272e-07
5.90831e-07
5.2752e-08
3.83859e-07
1.38535e-07
-3.28681e-08
3.48084e-08
-1.34027e-07
1.94642e-07
-3.02567e-07
4.05177e-07
-5.34535e-07
6.29443e-07
-8.23897e-07
8.45198e-07
-1.16343e-06
1.03918e-06
-1.54551e-06
1.20512e-06
-1.96277e-06
1.34168e-06
-2.4085e-06
1.45073e-06
-2.87696e-06
1.53595e-06
-3.36345e-06
1.60183e-06
-3.86433e-06
1.65299e-06
-4.37694e-06
1.69368e-06
-4.89945e-06
1.72758e-06
-5.43071e-06
1.75767e-06
-5.97009e-06
1.78621e-06
-6.51736e-06
1.81482e-06
-7.07251e-06
1.84453e-06
-7.63567e-06
1.87591e-06
-8.20702e-06
1.90914e-06
-8.78671e-06
1.94415e-06
-9.37482e-06
1.98063e-06
-9.97132e-06
2.01813e-06
-1.0576e-05
2.0561e-06
-1.11886e-05
2.09393e-06
-1.18084e-05
2.13097e-06
-1.2435e-05
2.16656e-06
-1.30674e-05
2.20003e-06
-1.37045e-05
2.23072e-06
-1.43453e-05
2.25798e-06
-1.49883e-05
2.2812e-06
-1.56321e-05
2.29976e-06
-1.6275e-05
2.31307e-06
-1.69153e-05
2.32059e-06
-1.75512e-05
2.32176e-06
-1.81806e-05
2.31607e-06
-1.88015e-05
2.30301e-06
-1.94118e-05
2.28209e-06
-2.00092e-05
2.25284e-06
-2.05915e-05
2.21476e-06
-2.11562e-05
2.1674e-06
-2.17008e-05
2.11028e-06
-2.2223e-05
2.04292e-06
-2.272e-05
1.96486e-06
-2.31891e-05
1.87564e-06
-2.36277e-05
1.77482e-06
-2.40329e-05
1.66196e-06
-2.44019e-05
1.5367e-06
-2.47317e-05
1.39869e-06
-2.50193e-05
1.24768e-06
-2.52618e-05
1.08351e-06
-2.54562e-05
9.06108e-07
-2.55996e-05
7.15569e-07
-2.56891e-05
5.12127e-07
-2.57219e-05
2.96199e-07
-2.56955e-05
6.84e-08
-2.56074e-05
-1.70439e-07
-2.54555e-05
-4.19263e-07
-2.5238e-05
-6.76777e-07
-2.49533e-05
-9.41448e-07
-2.46004e-05
-1.2115e-06
-2.41787e-05
-1.48495e-06
-2.36881e-05
-1.75956e-06
-2.3129e-05
-2.03293e-06
-2.25024e-05
-2.30251e-06
-2.18101e-05
-2.56558e-06
-2.10544e-05
-2.81936e-06
-2.02382e-05
-3.06104e-06
-1.93651e-05
-3.2878e-06
-1.84394e-05
-3.49691e-06
-1.7466e-05
-3.68575e-06
-1.64504e-05
-3.85189e-06
-1.53986e-05
-3.99316e-06
-1.43171e-05
-4.10765e-06
-1.32127e-05
-4.19383e-06
-1.20927e-05
-4.25052e-06
-1.09646e-05
-4.277e-06
-9.83569e-06
-4.27298e-06
-8.71367e-06
-4.23862e-06
-7.60593e-06
-4.17454e-06
-6.51969e-06
-4.08182e-06
-5.46184e-06
-3.96196e-06
-4.43887e-06
-3.81684e-06
-3.45676e-06
-3.64868e-06
-2.5209e-06
-3.46002e-06
-1.63605e-06
-3.25357e-06
-8.06268e-07
-3.03223e-06
-3.48898e-08
-2.79898e-06
6.75476e-07
-2.55682e-06
1.32295e-06
-2.30867e-06
1.90637e-06
-2.05736e-06
2.42524e-06
-1.80554e-06
2.87968e-06
-1.55565e-06
3.27041e-06
-1.30986e-06
3.5986e-06
-1.07006e-06
3.86591e-06
-8.37845e-07
4.0743e-06
-6.14503e-07
4.22605e-06
-4.01029e-07
4.32365e-06
-1.9814e-07
4.36974e-06
-6.30247e-09
4.36707e-06
1.74225e-07
4.31845e-06
3.43348e-07
4.22674e-06
5.01077e-07
4.0948e-06
6.47463e-07
3.92556e-06
7.82515e-07
3.72203e-06
9.06118e-07
3.4873e-06
1.01793e-06
3.22473e-06
1.11727e-06
2.93793e-06
1.20299e-06
2.63097e-06
1.27337e-06
2.30851e-06
1.32595e-06
1.97593e-06
1.35741e-06
1.63955e-06
1.3635e-06
1.30675e-06
1.339e-06
9.86215e-07
1.27777e-06
6.88075e-07
1.17305e-06
4.24253e-07
1.01791e-06
2.08982e-07
8.06103e-07
5.97974e-08
5.33043e-07
1.98332e-07
-4.67785e-08
8.15869e-08
-1.8274e-07
3.30603e-07
-4.01199e-07
6.23636e-07
-6.93841e-07
9.22085e-07
-1.05143e-06
1.20279e-06
-1.46451e-06
1.45225e-06
-1.9239e-06
1.66452e-06
-2.42123e-06
1.83902e-06
-2.94915e-06
1.97865e-06
-3.50147e-06
2.08827e-06
-4.07323e-06
2.1736e-06
-4.66062e-06
2.24037e-06
-5.26082e-06
2.29388e-06
-5.8719e-06
2.33865e-06
-6.49259e-06
2.37836e-06
-7.12215e-06
2.41578e-06
-7.76022e-06
2.45289e-06
-8.40666e-06
2.49097e-06
-9.06144e-06
2.53069e-06
-9.72459e-06
2.57229e-06
-1.03961e-05
2.61563e-06
-1.10758e-05
2.66032e-06
-1.17634e-05
2.70578e-06
-1.24586e-05
2.7513e-06
-1.31608e-05
2.7961e-06
-1.38692e-05
2.83934e-06
-1.45828e-05
2.88018e-06
-1.53005e-05
2.91778e-06
-1.60211e-05
2.9513e-06
-1.67431e-05
2.97992e-06
-1.74647e-05
3.00288e-06
-1.81844e-05
3.01943e-06
-1.89002e-05
3.02888e-06
-1.96102e-05
3.03054e-06
-2.03122e-05
3.02381e-06
-2.10042e-05
3.00807e-06
-2.1684e-05
2.98276e-06
-2.23492e-05
2.94734e-06
-2.29977e-05
2.90128e-06
-2.36269e-05
2.84405e-06
-2.42347e-05
2.77514e-06
-2.48184e-05
2.69403e-06
-2.53757e-05
2.6002e-06
-2.5904e-05
2.49312e-06
-2.64006e-05
2.37229e-06
-2.6863e-05
2.23717e-06
-2.72883e-05
2.0873e-06
-2.76739e-05
1.92222e-06
-2.80167e-05
1.74154e-06
-2.8314e-05
1.54496e-06
-2.85627e-05
1.33225e-06
-2.876e-05
1.10337e-06
-2.89028e-05
8.58387e-07
-2.89883e-05
5.9759e-07
-2.90136e-05
3.21475e-07
-2.89759e-05
3.07748e-08
-2.88729e-05
-2.73505e-07
-2.8702e-05
-5.9009e-07
-2.84614e-05
-9.17409e-07
-2.81493e-05
-1.25359e-06
-2.77643e-05
-1.59648e-06
-2.73056e-05
-1.94362e-06
-2.67729e-05
-2.29228e-06
-2.61663e-05
-2.63951e-06
-2.54867e-05
-2.98212e-06
-2.47355e-05
-3.31676e-06
-2.39149e-05
-3.63998e-06
-2.30277e-05
-3.94823e-06
-2.20775e-05
-4.23799e-06
-2.10686e-05
-4.50581e-06
-2.0006e-05
-4.74836e-06
-1.88954e-05
-4.96253e-06
-1.7743e-05
-5.14553e-06
-1.65558e-05
-5.29487e-06
-1.53411e-05
-5.40852e-06
-1.41067e-05
-5.48492e-06
-1.28607e-05
-5.52303e-06
-1.16113e-05
-5.52238e-06
-1.03668e-05
-5.48305e-06
-9.13564e-06
-5.40573e-06
-7.92577e-06
-5.29168e-06
-6.74501e-06
-5.14272e-06
-5.60071e-06
-4.96114e-06
-4.49969e-06
-4.74971e-06
-3.44814e-06
-4.51157e-06
-2.45154e-06
-4.25016e-06
-1.51462e-06
-3.96915e-06
-6.41284e-07
-3.67232e-06
1.65383e-07
-3.36348e-06
9.0312e-07
-3.0464e-06
1.57048e-06
-2.72471e-06
2.16676e-06
-2.40183e-06
2.69202e-06
-2.08091e-06
3.14692e-06
-1.76476e-06
3.53271e-06
-1.45586e-06
3.85116e-06
-1.15629e-06
4.1044e-06
-8.6775e-07
4.29494e-06
-5.91563e-07
4.42549e-06
-3.28692e-07
4.49897e-06
-7.9784e-08
4.51841e-06
1.54787e-07
4.4869e-06
3.74853e-07
4.4076e-06
5.80385e-07
4.28366e-06
7.71399e-07
4.11831e-06
9.47867e-07
3.91483e-06
1.1096e-06
3.67663e-06
1.25613e-06
3.40734e-06
1.38656e-06
3.1109e-06
1.49944e-06
2.79168e-06
1.59259e-06
2.45465e-06
1.66298e-06
2.10553e-06
1.70653e-06
1.75099e-06
1.71804e-06
1.39884e-06
1.69116e-06
1.05824e-06
1.61837e-06
7.40058e-07
1.49123e-06
4.57234e-07
1.30073e-06
2.2552e-07
1.03782e-06
6.45515e-08
6.94012e-07
2.62884e-07
-6.0669e-08
1.42256e-07
-2.31652e-07
5.01586e-07
-5.00573e-07
8.92558e-07
-8.54624e-07
1.27614e-06
-1.28118e-06
1.62934e-06
-1.7683e-06
1.93938e-06
-2.30517e-06
2.20138e-06
-2.88227e-06
2.41612e-06
-3.49156e-06
2.58793e-06
-4.12643e-06
2.72314e-06
-4.78167e-06
2.82884e-06
-5.45333e-06
2.91203e-06
-6.1385e-06
2.97905e-06
-6.83515e-06
3.03531e-06
-7.54196e-06
3.08517e-06
-8.25809e-06
3.1319e-06
-8.98304e-06
3.17784e-06
-9.71653e-06
3.22446e-06
-1.04584e-05
3.27255e-06
-1.12084e-05
3.32233e-06
-1.19664e-05
3.37362e-06
-1.2732e-05
3.4259e-06
-1.35047e-05
3.47846e-06
-1.42838e-05
3.53041e-06
-1.50685e-05
3.58079e-06
-1.58577e-05
3.62858e-06
-1.66503e-05
3.67274e-06
-1.74447e-05
3.71224e-06
-1.82395e-05
3.74609e-06
-1.90329e-05
3.77334e-06
-1.98231e-05
3.79306e-06
-2.06081e-05
3.80442e-06
-2.13858e-05
3.80661e-06
-2.21542e-05
3.79892e-06
-2.29111e-05
3.78066e-06
-2.36542e-05
3.75121e-06
-2.43814e-05
3.70999e-06
-2.50905e-05
3.65643e-06
-2.57793e-05
3.59002e-06
-2.64454e-05
3.51023e-06
-2.70868e-05
3.41653e-06
-2.77012e-05
3.3084e-06
-2.82863e-05
3.18527e-06
-2.88398e-05
3.04661e-06
-2.93593e-05
2.89182e-06
-2.98424e-05
2.72033e-06
-3.02867e-05
2.53159e-06
-3.06895e-05
2.32504e-06
-3.10482e-05
2.10021e-06
-3.136e-05
1.8567e-06
-3.16219e-05
1.59422e-06
-3.18312e-05
1.31262e-06
-3.19847e-05
1.01194e-06
-3.20796e-05
6.92444e-07
-3.21127e-05
3.54635e-07
-3.20813e-05
-6.96284e-10
-3.19823e-05
-3.72444e-07
-3.18132e-05
-7.59176e-07
-3.15715e-05
-1.1591e-06
-3.12551e-05
-1.57008e-06
-3.0862e-05
-1.98958e-06
-3.03908e-05
-2.41475e-06
-2.98407e-05
-2.84237e-06
-2.92113e-05
-3.26893e-06
-2.85028e-05
-3.69061e-06
-2.77162e-05
-4.10338e-06
-2.68531e-05
-4.50306e-06
-2.5916e-05
-4.88532e-06
-2.49082e-05
-5.24584e-06
-2.38337e-05
-5.58032e-06
-2.26974e-05
-5.88462e-06
-2.15051e-05
-6.15483e-06
-2.02633e-05
-6.38735e-06
-1.89791e-05
-6.57901e-06
-1.76605e-05
-6.72713e-06
-1.63159e-05
-6.8296e-06
-1.4954e-05
-6.88493e-06
-1.3584e-05
-6.89235e-06
-1.22153e-05
-6.85178e-06
-1.08571e-05
-6.76389e-06
-9.51873e-06
-6.63006e-06
-8.20906e-06
-6.45239e-06
-6.93657e-06
-6.23362e-06
-5.7092e-06
-5.97708e-06
-4.53418e-06
-5.68658e-06
-3.41798e-06
-5.36637e-06
-2.36616e-06
-5.02097e-06
-1.3834e-06
-4.65508e-06
-4.73393e-07
-4.27349e-06
3.61111e-07
-3.88091e-06
1.11831e-06
-3.48191e-06
1.7973e-06
-3.08082e-06
2.39802e-06
-2.68162e-06
2.92115e-06
-2.2879e-06
3.36809e-06
-1.90279e-06
3.74076e-06
-1.52896e-06
4.0416e-06
-1.16859e-06
4.27339e-06
-8.23361e-07
4.43924e-06
-4.94537e-07
4.54241e-06
-1.82958e-07
4.58632e-06
1.10874e-07
4.57446e-06
3.86723e-07
4.51032e-06
6.44524e-07
4.39744e-06
8.84278e-07
4.23937e-06
1.10593e-06
4.03972e-06
1.30925e-06
3.8022e-06
1.49364e-06
3.53072e-06
1.65803e-06
3.22949e-06
1.80067e-06
2.90315e-06
1.91894e-06
2.55692e-06
2.00921e-06
2.19679e-06
2.06665e-06
1.82973e-06
2.0851e-06
1.46389e-06
2.05699e-06
1.10892e-06
1.97334e-06
7.76293e-07
1.82386e-06
4.79866e-07
1.59716e-06
2.36598e-07
1.28108e-06
6.76185e-08
8.62991e-07
3.30502e-07
-7.43992e-08
2.16655e-07
-2.80156e-07
7.07343e-07
-5.99331e-07
1.21173e-06
-1.0146e-06
1.69141e-06
-1.50987e-06
2.12461e-06
-2.07065e-06
2.50015e-06
-2.68431e-06
2.81505e-06
-3.34018e-06
3.07198e-06
-4.02944e-06
3.27719e-06
-4.74508e-06
3.43878e-06
-5.48163e-06
3.5654e-06
-6.23501e-06
3.66541e-06
-7.00225e-06
3.74629e-06
-7.78127e-06
3.81433e-06
-8.57066e-06
3.87456e-06
-9.36951e-06
3.93075e-06
-1.01772e-05
3.98554e-06
-1.09933e-05
4.04057e-06
-1.18175e-05
4.09671e-06
-1.26493e-05
4.15417e-06
-1.34884e-05
4.21266e-06
-1.4334e-05
4.27155e-06
-1.51855e-05
4.32995e-06
-1.60419e-05
4.38681e-06
-1.69021e-05
4.44095e-06
-1.77647e-05
4.49118e-06
-1.86282e-05
4.53628e-06
-1.9491e-05
4.57506e-06
-2.03513e-05
4.60637e-06
-2.12071e-05
4.62914e-06
-2.20564e-05
4.64235e-06
-2.28971e-05
4.64511e-06
-2.37271e-05
4.63657e-06
-2.45441e-05
4.616e-06
-2.53462e-05
4.58273e-06
-2.61312e-05
4.53619e-06
-2.6897e-05
4.47582e-06
-2.76417e-05
4.40113e-06
-2.83634e-05
4.31165e-06
-2.906e-05
4.2069e-06
-2.97299e-05
4.08639e-06
-3.03711e-05
3.94961e-06
-3.09818e-05
3.796e-06
-3.15602e-05
3.62497e-06
-3.21042e-05
3.43587e-06
-3.2612e-05
3.22806e-06
-3.30812e-05
3.00084e-06
-3.35097e-05
2.75355e-06
-3.38951e-05
2.48554e-06
-3.42346e-05
2.19624e-06
-3.45256e-05
1.8852e-06
-3.47651e-05
1.55211e-06
-3.495e-05
1.19686e-06
-3.50771e-05
8.19579e-07
-3.51432e-05
4.20672e-07
-3.51447e-05
8.72779e-10
-3.50785e-05
-4.38715e-07
-3.4941e-05
-8.96606e-07
-3.47292e-05
-1.37089e-06
-3.44401e-05
-1.85922e-06
-3.40709e-05
-2.35881e-06
-3.36192e-05
-2.86641e-06
-3.30832e-05
-3.37837e-06
-3.24615e-05
-3.89062e-06
-3.17534e-05
-4.39871e-06
-3.09589e-05
-4.89788e-06
-3.00788e-05
-5.38314e-06
-2.91149e-05
-5.84929e-06
-2.80697e-05
-6.29106e-06
-2.69468e-05
-6.70319e-06
-2.57509e-05
-7.08053e-06
-2.44875e-05
-7.41817e-06
-2.31633e-05
-7.71153e-06
-2.17858e-05
-7.95651e-06
-2.03634e-05
-8.14955e-06
-1.89052e-05
-8.28779e-06
-1.7421e-05
-8.36912e-06
-1.59211e-05
-8.39227e-06
-1.44161e-05
-8.35683e-06
-1.29166e-05
-8.26332e-06
-1.14335e-05
-8.11319e-06
-9.97716e-06
-7.90874e-06
-8.55763e-06
-7.65315e-06
-7.18438e-06
-7.35033e-06
-5.86611e-06
-7.00486e-06
-4.6106e-06
-6.62188e-06
-3.42467e-06
-6.2069e-06
-2.31403e-06
-5.76573e-06
-1.28324e-06
-5.30427e-06
-3.35758e-07
-4.82839e-06
5.26138e-07
-4.34381e-06
1.30123e-06
-3.85592e-06
1.98934e-06
-3.36973e-06
2.59119e-06
-2.88975e-06
3.10832e-06
-2.41993e-06
3.54299e-06
-1.96363e-06
3.89801e-06
-1.5236e-06
4.17664e-06
-1.10199e-06
4.38248e-06
-7.00376e-07
4.51935e-06
-3.19826e-07
4.5912e-06
3.90236e-08
4.60205e-06
3.75874e-07
4.55592e-06
6.9065e-07
4.45683e-06
9.83369e-07
4.30877e-06
1.25399e-06
4.11575e-06
1.50227e-06
3.88186e-06
1.72754e-06
3.61131e-06
1.92858e-06
3.30861e-06
2.10336e-06
2.97867e-06
2.24888e-06
2.62695e-06
2.36093e-06
2.2597e-06
2.4339e-06
1.88415e-06
2.46065e-06
1.50878e-06
2.43236e-06
1.14366e-06
2.33847e-06
8.00831e-07
2.16668e-06
4.94902e-07
1.90309e-06
2.4375e-07
1.53224e-06
6.95101e-08
1.03723e-06
4.00012e-07
-8.78975e-08
3.04553e-07
-3.279e-07
9.47346e-07
-6.96625e-07
1.58046e-06
-1.17229e-06
2.16708e-06
-1.73531e-06
2.68763e-06
-2.36861e-06
3.13345e-06
-3.05773e-06
3.50417e-06
-3.79076e-06
3.80501e-06
-4.55812e-06
4.04455e-06
-5.35233e-06
4.23298e-06
-6.16769e-06
4.38076e-06
-6.99998e-06
4.4977e-06
-7.84618e-06
4.59248e-06
-8.70415e-06
4.67231e-06
-9.57245e-06
4.74286e-06
-1.04501e-05
4.80836e-06
-1.13362e-05
4.87173e-06
-1.22304e-05
4.93476e-06
-1.31321e-05
4.99835e-06
-1.40405e-05
5.06265e-06
-1.49552e-05
5.12728e-06
-1.58751e-05
5.19144e-06
-1.67992e-05
5.25408e-06
-1.77263e-05
5.31395e-06
-1.86551e-05
5.36969e-06
-1.95838e-05
5.41993e-06
-2.05108e-05
5.46327e-06
-2.14341e-05
5.49839e-06
-2.23518e-05
5.52404e-06
-2.32617e-05
5.53905e-06
-2.41617e-05
5.5424e-06
-2.50498e-05
5.53316e-06
-2.59238e-05
5.51054e-06
-2.67816e-05
5.47387e-06
-2.76215e-05
5.42258e-06
-2.84415e-05
5.35619e-06
-2.924e-05
5.27431e-06
-3.00154e-05
5.17655e-06
-3.07663e-05
5.06256e-06
-3.14914e-05
4.93197e-06
-3.21893e-05
4.78437e-06
-3.2859e-05
4.61929e-06
-3.34992e-05
4.43616e-06
-3.41086e-05
4.23436e-06
-3.46859e-05
4.01316e-06
-3.52296e-05
3.77174e-06
-3.5738e-05
3.50926e-06
-3.62092e-05
3.2248e-06
-3.66412e-05
2.91749e-06
-3.70314e-05
2.58646e-06
-3.73772e-05
2.23097e-06
-3.76755e-05
1.8504e-06
-3.79229e-05
1.44433e-06
-3.8116e-05
1.01261e-06
-3.82507e-05
5.55398e-07
-3.8323e-05
7.32041e-08
-3.83287e-05
-4.33026e-07
-3.82634e-05
-9.61901e-07
-3.81228e-05
-1.51152e-06
-3.79025e-05
-2.07947e-06
-3.75986e-05
-2.66276e-06
-3.72071e-05
-3.25787e-06
-3.67248e-05
-3.86073e-06
-3.61487e-05
-4.46673e-06
-3.54766e-05
-5.07076e-06
-3.47072e-05
-5.66729e-06
-3.38399e-05
-6.2504e-06
-3.28753e-05
-6.81389e-06
-3.1815e-05
-7.35138e-06
-3.06618e-05
-7.85641e-06
-2.94197e-05
-8.32261e-06
-2.80941e-05
-8.74378e-06
-2.66915e-05
-9.11408e-06
-2.52199e-05
-9.42818e-06
-2.3688e-05
-9.68137e-06
-2.21061e-05
-9.86972e-06
-2.0485e-05
-9.9902e-06
-1.88365e-05
-1.00408e-05
-1.71729e-05
-1.00205e-05
-1.55066e-05
-9.92956e-06
-1.38505e-05
-9.76929e-06
-1.22171e-05
-9.54214e-06
-1.06186e-05
-9.25167e-06
-9.06652e-06
-8.9024e-06
-7.57162e-06
-8.49976e-06
-6.1436e-06
-8.04989e-06
-4.79099e-06
-7.55951e-06
-3.52102e-06
-7.0357e-06
-2.33954e-06
-6.48575e-06
-1.251e-06
-5.91694e-06
-2.58436e-07
-5.33637e-06
6.36468e-07
-4.75082e-06
1.4333e-06