/*--------------------------------*- C++ -*----------------------------------*\
| =========                 |                                                 |
| \\      /  F ield         | OpenFOAM: The Open Source CFD Toolbox           |
|  \\    /   O peration     | Version:  2406                                  |
|   \\  /    A nd           | Website:  www.openfoam.com                      |
|    \\/     M anipulation  |                                                 |
\*---------------------------------------------------------------------------*/
FoamFile
{
    version     2.0;
    format      ascii;
    arch        "LSB;label=32;scalar=64";
    class       volVectorField;
    location    "31.8";
    object      U_0;
}
// * * * * * * * * * * * * * * * * * * * * * * * * * * * * * * * * * * * * * //

dimensions      [0 1 -1 0 0 0 0];

internalField   nonuniform List<vector> 
900
(
(0.000583686 -0.000591337 0)
(0.00323414 -0.000781518 0)
(0.0056454 -0.000538625 0)
(0.00691594 -0.000188996 0)
(0.00700189 -2.80787e-05 0)
(0.00643841 5.49578e-05 0)
(0.00522103 0.000193422 0)
(0.00284812 0.000136564 0)
(-0.00195397 -0.000333455 0)
(-0.01102 -5.90978e-05 0)
(-0.0252938 0.00227719 0)
(-0.0442593 0.00566758 0)
(-0.0656076 0.007977 0)
(-0.085254 0.00816497 0)
(-0.0996371 0.00637747 0)
(-0.106569 0.00319127 0)
(-0.104608 -0.000837364 0)
(-0.0932279 -0.00508176 0)
(-0.072733 -0.00902831 0)
(-0.0449686 -0.011917 0)
(-0.0132505 -0.0128223 0)
(0.0173073 -0.0109719 0)
(0.0410157 -0.0061505 0)
(0.0530598 0.00031329 0)
(0.0514644 0.0051398 0)
(0.0395107 0.00611625 0)
(0.024942 0.00448538 0)
(0.0130894 0.00261426 0)
(0.00535163 0.00132916 0)
(0.000824767 0.000639394 0)
(0.000925794 -0.0033309 0)
(0.00576623 -0.00503985 0)
(0.00906406 -0.00321865 0)
(0.00968736 -0.000517084 0)
(0.00717253 0.00153542 0)
(0.00158062 0.00333231 0)
(-0.00864502 0.00602252 0)
(-0.0262003 0.0110057 0)
(-0.0532005 0.0193804 0)
(-0.0879425 0.0290774 0)
(-0.123789 0.0356602 0)
(-0.155196 0.0370243 0)
(-0.17983 0.0331508 0)
(-0.19659 0.0249358 0)
(-0.205269 0.0137156 0)
(-0.205745 0.000683274 0)
(-0.197871 -0.0132345 0)
(-0.181504 -0.0272196 0)
(-0.156915 -0.0399104 0)
(-0.124673 -0.0493645 0)
(-0.0864303 -0.0530221 0)
(-0.0453019 -0.0485672 0)
(-0.00608227 -0.035059 0)
(0.025073 -0.0148236 0)
(0.0426716 0.00540058 0)
(0.0450475 0.0182089 0)
(0.0368615 0.0213427 0)
(0.0238282 0.0178079 0)
(0.011434 0.0120366 0)
(0.00177254 0.00552961 0)
(0.00117393 -0.00684241 0)
(0.00584231 -0.00909765 0)
(0.00685319 -0.00404705 0)
(0.00338534 0.00262528 0)
(-0.00580051 0.00897134 0)
(-0.0224866 0.0168812 0)
(-0.049864 0.0293248 0)
(-0.0879887 0.0454859 0)
(-0.130444 0.0594319 0)
(-0.170309 0.066704 0)
(-0.203937 0.0668338 0)
(-0.230001 0.0607354 0)
(-0.248809 0.0496565 0)
(-0.26094 0.0347952 0)
(-0.26704 0.0172537 0)
(-0.26741 -0.00218531 0)
(-0.262172 -0.0228947 0)
(-0.250698 -0.0441088 0)
(-0.232234 -0.0643392 0)
(-0.206017 -0.0811966 0)
(-0.171797 -0.0911286 0)
(-0.130392 -0.0900764 0)
(-0.0845536 -0.0750777 0)
(-0.0397787 -0.0470034 0)
(-0.00432118 -0.013751 0)
(0.0149681 0.0121754 0)
(0.0207056 0.0250787 0)
(0.0174292 0.0269669 0)
(0.00987045 0.0222588 0)
(0.00154726 0.0117049 0)
(0.00115925 -0.0102841 0)
(0.00332387 -0.0108656 0)
(-0.00075383 -0.000350206 0)
(-0.0117421 0.0127904 0)
(-0.0320488 0.0279199 0)
(-0.0641278 0.0477104 0)
(-0.10645 0.0705636 0)
(-0.151655 0.0895488 0)
(-0.192349 0.0994873 0)
(-0.225286 0.0998714 0)
(-0.250051 0.0923433 0)
(-0.267495 0.0789215 0)
(-0.279052 0.0614883 0)
(-0.285987 0.0413383 0)
(-0.289451 0.0192083 0)
(-0.290109 -0.00472603 0)
(-0.288231 -0.03027 0)
(-0.283398 -0.0569002 0)
(-0.27464 -0.083696 0)
(-0.260238 -0.108443 0)
(-0.237889 -0.127263 0)
(-0.205171 -0.134558 0)
(-0.160968 -0.124524 0)
(-0.107887 -0.0943507 0)
(-0.0548725 -0.0494521 0)
(-0.016402 -0.00648826 0)
(0.00088396 0.0193436 0)
(0.00607891 0.0293539 0)
(0.00465177 0.0283669 0)
(0.000605686 0.0158489 0)
(0.000522404 -0.011837 0)
(-0.00263006 -0.00737724 0)
(-0.0142373 0.011179 0)
(-0.0353983 0.0340059 0)
(-0.0679744 0.0609698 0)
(-0.110397 0.0905223 0)
(-0.155451 0.115481 0)
(-0.194997 0.129254 0)
(-0.225472 0.130976 0)
(-0.246766 0.122996 0)
(-0.260053 0.108139 0)
(-0.267334 0.0890509 0)
(-0.270541 0.0675719 0)
(-0.27147 0.0447815 0)
(-0.271561 0.0210461 0)
(-0.271733 -0.00373804 0)
(-0.272266 -0.0299119 0)
(-0.273212 -0.0579158 0)
(-0.274064 -0.0877721 0)
(-0.273283 -0.118422 0)
(-0.26781 -0.146825 0)
(-0.25304 -0.167394 0)
(-0.223494 -0.172017 0)
(-0.175798 -0.152474 0)
(-0.113319 -0.106087 0)
(-0.0510659 -0.0446249 0)
(-0.0133148 0.00340165 0)
(-0.00168546 0.0255459 0)
(0.00109906 0.0296015 0)
(0.000158699 0.0173736 0)
(-0.00115415 -0.00933065 0)
(-0.0118785 0.00369306 0)
(-0.0318108 0.0323873 0)
(-0.0624559 0.0662621 0)
(-0.10233 0.10249 0)
(-0.145585 0.134384 0)
(-0.183603 0.153832 0)
(-0.211495 0.15827 0)
(-0.229129 0.150478 0)
(-0.238037 0.134323 0)
(-0.240758 0.113477 0)
(-0.239882 0.0906247 0)
(-0.237393 0.067207 0)
(-0.234779 0.0438039 0)
(-0.232868 0.0203886 0)
(-0.232201 -0.00325024 0)
(-0.233087 -0.0276657 0)
(-0.236012 -0.0537386 0)
(-0.241052 -0.0821604 0)
(-0.248051 -0.113306 0)
(-0.255404 -0.146317 0)
(-0.259217 -0.177884 0)
(-0.25234 -0.200766 0)
(-0.226132 -0.203655 0)
(-0.174884 -0.174397 0)
(-0.103048 -0.109484 0)
(-0.0335124 -0.0301412 0)
(-0.00478282 0.0163038 0)
(0.000219556 0.0282693 0)
(0.000355115 0.0179014 0)
(-0.00362855 -0.000858957 0)
(-0.0224931 0.0231979 0)
(-0.0494114 0.0619197 0)
(-0.0856241 0.104271 0)
(-0.125849 0.143759 0)
(-0.162708 0.171165 0)
(-0.18949 0.180962 0)
(-0.205153 0.174989 0)
(-0.211642 0.158354 0)
(-0.211787 0.135889 0)
(-0.208865 0.111506 0)
(-0.205094 0.0872417 0)
(-0.201857 0.0638439 0)
(-0.199649 0.0412013 0)
(-0.198478 0.0189014 0)
(-0.198254 -0.00350832 0)
(-0.199109 -0.0264974 0)
(-0.201358 -0.0504756 0)
(-0.205451 -0.0760414 0)
(-0.212106 -0.103982 0)
(-0.221766 -0.135086 0)
(-0.233389 -0.169169 0)
(-0.242614 -0.203221 0)
(-0.240526 -0.228616 0)
(-0.215646 -0.229579 0)
(-0.159926 -0.187727 0)
(-0.0792095 -0.099352 0)
(-0.0102425 -0.00686987 0)
(0.000837588 0.0274773 0)
(0.000397873 0.0188574 0)
(-0.00602593 0.013895 0)
(-0.0313392 0.049373 0)
(-0.0620623 0.0960206 0)
(-0.09914 0.14263 0)
(-0.134712 0.179698 0)
(-0.162335 0.198261 0)
(-0.178353 0.197027 0)
(-0.184664 0.181519 0)
(-0.184345 0.158273 0)
(-0.180964 0.132534 0)
(-0.177322 0.10747 0)
(-0.174615 0.0839054 0)
(-0.173269 0.0616876 0)
(-0.172924 0.0401317 0)
(-0.173248 0.018697 0)
(-0.173935 -0.00308983 0)
(-0.175002 -0.0254884 0)
(-0.176601 -0.04864 0)
(-0.179198 -0.0727917 0)
(-0.183416 -0.0983699 0)
(-0.190199 -0.126131 0)
(-0.20032 -0.157157 0)
(-0.213066 -0.191971 0)
(-0.223807 -0.227844 0)
(-0.222394 -0.25412 0)
(-0.195253 -0.248618 0)
(-0.132234 -0.184358 0)
(-0.0403569 -0.0624422 0)
(0.00225152 0.0208925 0)
(-0.0015376 0.0204622 0)
(-0.00761332 0.0334642 0)
(-0.0365331 0.0792635 0)
(-0.0677951 0.130622 0)
(-0.102236 0.176938 0)
(-0.130912 0.207369 0)
(-0.149665 0.215399 0)
(-0.15761 0.20412 0)
(-0.158454 0.181602 0)
(-0.155619 0.15497 0)
(-0.152515 0.128928 0)
(-0.150659 0.105071 0)
(-0.15029 0.0830128 0)
(-0.151084 0.0619471 0)
(-0.152393 0.0410394 0)
(-0.153848 0.019888 0)
(-0.155145 -0.00174619 0)
(-0.156293 -0.0238644 0)
(-0.157396 -0.0465394 0)
(-0.158803 -0.0698048 0)
(-0.161013 -0.0939296 0)
(-0.16489 -0.119497 0)
(-0.171555 -0.147637 0)
(-0.18186 -0.17988 0)
(-0.19488 -0.216923 0)
(-0.205157 -0.254964 0)
(-0.200561 -0.278831 0)
(-0.16609 -0.256272 0)
(-0.0909249 -0.154939 0)
(-0.00262114 -0.00573873 0)
(-0.00053755 0.0243333 0)
(-0.00795639 0.0552273 0)
(-0.0372765 0.109738 0)
(-0.0663724 0.162813 0)
(-0.0961544 0.205699 0)
(-0.117811 0.22776 0)
(-0.129668 0.225711 0)
(-0.132806 0.206474 0)
(-0.131646 0.17966 0)
(-0.129262 0.152193 0)
(-0.128203 0.127372 0)
(-0.128742 0.105125 0)
(-0.130613 0.0842924 0)
(-0.133135 0.0637927 0)
(-0.135734 0.0429242 0)
(-0.138049 0.0214735 0)
(-0.139844 -0.000592955 0)
(-0.141166 -0.0231263 0)
(-0.142079 -0.0459629 0)
(-0.142784 -0.0689836 0)
(-0.143583 -0.0922056 0)
(-0.145067 -0.115937 0)
(-0.148215 -0.141086 0)
(-0.154309 -0.169525 0)
(-0.16456 -0.203834 0)
(-0.178232 -0.244726 0)
(-0.186813 -0.285109 0)
(-0.175785 -0.29798 0)
(-0.123786 -0.235669 0)
(-0.0336891 -0.0654721 0)
(0.0112762 0.0255346 0)
(-0.00709531 0.0764228 0)
(-0.0341054 0.1383 0)
(-0.0594263 0.190781 0)
(-0.0839622 0.228378 0)
(-0.0996775 0.241642 0)
(-0.10701 0.230927 0)
(-0.107995 0.206186 0)
(-0.106976 0.177573 0)
(-0.106251 0.151015 0)
(-0.107374 0.128029 0)
(-0.10986 0.107294 0)
(-0.113296 0.0873029 0)
(-0.11691 0.0669837 0)
(-0.120276 0.0458647 0)
(-0.123066 0.0239053 0)
(-0.125168 0.00124853 0)
(-0.126567 -0.0218409 0)
(-0.127389 -0.0451069 0)
(-0.127852 -0.0683888 0)
(-0.128191 -0.0916521 0)
(-0.128746 -0.115001 0)
(-0.129978 -0.138766 0)
(-0.132576 -0.163977 0)
(-0.137911 -0.193517 0)
(-0.149328 -0.231216 0)
(-0.1628 -0.278229 0)
(-0.167898 -0.316301 0)
(-0.136268 -0.298564 0)
(-0.0765295 -0.161201 0)
(0.0192534 0.0138654 0)
(-0.00530502 0.0946086 0)
(-0.0279915 0.163175 0)
(-0.0486814 0.213822 0)
(-0.0679773 0.245758 0)
(-0.0790501 0.251431 0)
(-0.0837124 0.234312 0)
(-0.0842315 0.206299 0)
(-0.0843551 0.177418 0)
(-0.0854726 0.152291 0)
(-0.088343 0.130864 0)
(-0.0921681 0.111096 0)
(-0.0965615 0.0914108 0)
(-0.100817 0.0708662 0)
(-0.104651 0.0491858 0)
(-0.10775 0.0264545 0)
(-0.110041 0.00298998 0)
(-0.111502 -0.020793 0)
(-0.112262 -0.0445551 0)
(-0.112491 -0.0680357 0)
(-0.112497 -0.091198 0)
(-0.112608 -0.114214 0)
(-0.113062 -0.137431 0)
(-0.114339 -0.161239 0)
(-0.116415 -0.187764 0)
(-0.124433 -0.220218 0)
(-0.135668 -0.264872 0)
(-0.14899 -0.314601 0)
(-0.133624 -0.33482 0)
(-0.101122 -0.243127 0)
(0.00913129 -0.0163511 0)
(-0.00291658 0.108108 0)
(-0.0200002 0.183305 0)
(-0.0358573 0.231737 0)
(-0.0504398 0.258562 0)
(-0.0581502 0.258042 0)
(-0.0615696 0.236268 0)
(-0.0625445 0.206445 0)
(-0.0639404 0.178138 0)
(-0.0663961 0.154576 0)
(-0.0702237 0.134475 0)
(-0.0746528 0.115435 0)
(-0.0794129 0.0959029 0)
(-0.0839203 0.0750646 0)
(-0.087978 0.0527844 0)
(-0.0912819 0.0292614 0)
(-0.0937589 0.00492576 0)
(-0.0953636 -0.0197113 0)
(-0.0962204 -0.0441644 0)
(-0.096496 -0.0681275 0)
(-0.0964662 -0.0915 0)
(-0.0964996 -0.114353 0)
(-0.0964114 -0.137161 0)
(-0.0973303 -0.159909 0)
(-0.0972937 -0.18464 0)
(-0.103191 -0.213059 0)
(-0.109653 -0.253219 0)
(-0.126134 -0.305747 0)
(-0.121921 -0.352809 0)
(-0.111874 -0.305127 0)
(-0.011092 -0.0711628 0)
(-0.000238928 0.115883 0)
(-0.0110114 0.198098 0)
(-0.0220992 0.244796 0)
(-0.0323223 0.26772 0)
(-0.0374988 0.263066 0)
(-0.0402878 0.238656 0)
(-0.0418439 0.208248 0)
(-0.0441712 0.180788 0)
(-0.0473898 0.158421 0)
(-0.0516063 0.139141 0)
(-0.0561894 0.120423 0)
(-0.0609627 0.100774 0)
(-0.0654577 0.0795018 0)
(-0.0695264 0.0565693 0)
(-0.0728991 0.0322571 0)
(-0.0755069 0.00707967 0)
(-0.0772887 -0.0183535 0)
(-0.0783459 -0.0434458 0)
(-0.0788513 -0.067792 0)
(-0.0789707 -0.0913538 0)
(-0.0794351 -0.114074 0)
(-0.0791796 -0.136849 0)
(-0.08096 -0.159256 0)
(-0.0797793 -0.183267 0)
(-0.0850398 -0.20834 0)
(-0.0859712 -0.242985 0)
(-0.102653 -0.292166 0)
(-0.102065 -0.356211 0)
(-0.106783 -0.352166 0)
(-0.0203305 -0.144867 0)
(0.00246867 0.117699 0)
(-0.00169467 0.207295 0)
(-0.00817584 0.253252 0)
(-0.0145269 0.273785 0)
(-0.0178281 0.266603 0)
(-0.0204281 0.240626 0)
(-0.0225964 0.209983 0)
(-0.0254644 0.183204 0)
(-0.02884 0.161714 0)
(-0.0327974 0.143062 0)
(-0.0369281 0.124656 0)
(-0.041184 0.105026 0)
(-0.0452466 0.0835359 0)
(-0.0490235 0.0601687 0)
(-0.0522916 0.0352356 0)
(-0.0549891 0.0093271 0)
(-0.0570451 -0.0168481 0)
(-0.0584874 -0.0426095 0)
(-0.05958 -0.067356 0)
(-0.0599804 -0.0911707 0)
(-0.0613601 -0.113661 0)
(-0.0608521 -0.136236 0)
(-0.0640586 -0.158119 0)
(-0.0620489 -0.182124 0)
(-0.0685909 -0.205888 0)
(-0.0654761 -0.237549 0)
(-0.0822292 -0.2814 0)
(-0.080693 -0.352089 0)
(-0.0951307 -0.380997 0)
(-0.019092 -0.212697 0)
(0.00483345 0.113442 0)
(0.00747455 0.210709 0)
(0.00547471 0.257578 0)
(0.00285291 0.277194 0)
(0.00124717 0.269341 0)
(-0.00095905 0.243297 0)
(-0.0032861 0.213034 0)
(-0.0062048 0.186764 0)
(-0.00928839 0.165682 0)
(-0.0126246 0.147267 0)
(-0.0160107 0.128932 0)
(-0.0195123 0.109202 0)
(-0.022943 0.087458 0)
(-0.0262528 0.0636931 0)
(-0.0292808 0.0382666 0)
(-0.0319892 0.0118319 0)
(-0.0343663 -0.0148236 0)
(-0.0362255 -0.0410718 0)
(-0.0383163 -0.0660472 0)
(-0.0390683 -0.0900555 0)
(-0.0421384 -0.112405 0)
(-0.0415554 -0.135068 0)
(-0.0469843 -0.156517 0)
(-0.0441846 -0.180532 0)
(-0.052969 -0.20308 0)
(-0.0467002 -0.232679 0)
(-0.0639879 -0.271091 0)
(-0.058784 -0.344768 0)
(-0.0810815 -0.401537 0)
(-0.0155045 -0.272888 0)
(0.00660319 0.103578 0)
(0.0160777 0.208439 0)
(0.0185441 0.257815 0)
(0.0192932 0.27804 0)
(0.0193572 0.270791 0)
(0.0175924 0.245307 0)
(0.0151457 0.215246 0)
(0.0123325 0.188983 0)
(0.00984428 0.167896 0)
(0.00752923 0.149564 0)
(0.00534197 0.131368 0)
(0.00306023 0.111766 0)
(0.000708504 0.0901084 0)
(-0.00175571 0.0663684 0)
(-0.00428999 0.0409098 0)
(-0.00682608 0.0143421 0)
(-0.00958352 -0.0124473 0)
(-0.0117753 -0.0388974 0)
(-0.0152895 -0.0640272 0)
(-0.0163234 -0.0879475 0)
(-0.0217376 -0.110218 0)
(-0.0209774 -0.132556 0)
(-0.0292831 -0.153859 0)
(-0.025699 -0.178051 0)
(-0.038042 -0.200589 0)
(-0.0298477 -0.230074 0)
(-0.0492986 -0.263774 0)
(-0.0400435 -0.335815 0)
(-0.0685718 -0.411571 0)
(-0.010599 -0.322903 0)
(0.00753723 0.0889339 0)
(0.0236157 0.20041 0)
(0.0305676 0.254034 0)
(0.0349055 0.276275 0)
(0.0370135 0.271311 0)
(0.0363278 0.247672 0)
(0.0343148 0.218351 0)
(0.0319438 0.191961 0)
(0.0301993 0.170447 0)
(0.0289882 0.151805 0)
(0.0280755 0.133506 0)
(0.0270921 0.113946 0)
(0.0258896 0.0924075 0)
(0.0243463 0.0688057 0)
(0.0223272 0.0435187 0)
(0.020089 0.0170713 0)
(0.0168525 -0.00957105 0)
(0.0144372 -0.0357742 0)
(0.0092948 -0.0608836 0)
(0.00785829 -0.0843188 0)
(-0.000247875 -0.106941 0)
(0.00046797 -0.128297 0)
(-0.0114135 -0.150255 0)
(-0.00668602 -0.173649 0)
(-0.0234817 -0.196487 0)
(-0.0132812 -0.225479 0)
(-0.0363057 -0.256032 0)
(-0.0232704 -0.326858 0)
(-0.0580797 -0.417666 0)
(-0.00605753 -0.364874 0)
(0.0073326 0.0709411 0)
(0.0293552 0.186606 0)
(0.0410807 0.245841 0)
(0.0491079 0.271631 0)
(0.0535729 0.269957 0)
(0.054088 0.248638 0)
(0.0525203 0.219926 0)
(0.050537 0.192963 0)
(0.049511 0.1706 0)
(0.0494756 0.151436 0)
(0.0500335 0.133054 0)
(0.050628 0.113744 0)
(0.0508723 0.0926919 0)
(0.0506086 0.0696935 0)
(0.04933 0.0451509 0)
(0.0477622 0.0194618 0)
(0.0441024 -0.00647065 0)
(0.0416002 -0.0319446 0)
(0.0349534 -0.0565741 0)
(0.0328216 -0.079393 0)
(0.022331 -0.101933 0)
(0.0227692 -0.122439 0)
(0.0069767 -0.144942 0)
(0.0127377 -0.167376 0)
(-0.00961171 -0.191968 0)
(0.00272484 -0.220149 0)
(-0.0261273 -0.249239 0)
(-0.00959244 -0.316613 0)
(-0.0503706 -0.417002 0)
(-0.00143017 -0.399913 0)
(0.00575127 0.0515242 0)
(0.0325222 0.167038 0)
(0.0493321 0.233094 0)
(0.0618388 0.263734 0)
(0.0693435 0.266807 0)
(0.0720164 0.249257 0)
(0.0717513 0.222198 0)
(0.0705745 0.194959 0)
(0.070232 0.171471 0)
(0.0711165 0.151305 0)
(0.0728456 0.132458 0)
(0.0748049 0.113194 0)
(0.0762771 0.0926356 0)
(0.077267 0.0703563 0)
(0.0764946 0.0467568 0)
(0.0757229 0.0221004 0)
(0.0714734 -0.0027726 0)
(0.0691647 -0.0272914 0)
(0.0608549 -0.0509503 0)
(0.0583261 -0.0731844 0)
(0.0453265 -0.0949191 0)
(0.0452554 -0.115212 0)
(0.0261087 -0.137564 0)
(0.0321972 -0.159229 0)
(0.00447208 -0.184528 0)
(0.0192859 -0.211331 0)
(-0.0174136 -0.240569 0)
(0.00318773 -0.305111 0)
(-0.0450993 -0.413519 0)
(0.00273274 -0.429671 0)
(0.00325099 0.0334756 0)
(0.0323871 0.142239 0)
(0.0547039 0.215062 0)
(0.0718265 0.252003 0)
(0.0828868 0.260349 0)
(0.0879815 0.247002 0)
(0.0892335 0.22192 0)
(0.0889618 0.194533 0)
(0.0892564 0.169825 0)
(0.0909312 0.148487 0)
(0.0937074 0.129114 0)
(0.0970756 0.109976 0)
(0.0997421 0.0901752 0)
(0.102314 0.0690391 0)
(0.10208 0.046863 0)
(0.102586 0.0238273 0)
(0.0978589 0.000585628 0)
(0.096236 -0.0223349 0)
(0.0863449 -0.0445555 0)
(0.08394 -0.0656889 0)
(0.068465 -0.086419 0)
(0.0682394 -0.106358 0)
(0.0456701 -0.128009 0)
(0.0518259 -0.149687 0)
(0.0188676 -0.174964 0)
(0.0352824 -0.201185 0)
(-0.0102736 -0.230451 0)
(0.0151187 -0.290846 0)
(-0.0424405 -0.404262 0)
(0.00707267 -0.453856 0)
(0.000767843 0.0187537 0)
(0.0288427 0.113384 0)
(0.0563641 0.191908 0)
(0.0788253 0.235905 0)
(0.0942174 0.250913 0)
(0.10326 0.243207 0)
(0.107538 0.22162 0)
(0.10921 0.19511 0)
(0.110479 0.169528 0)
(0.11277 0.146776 0)
(0.115977 0.126459 0)
(0.120282 0.107069 0)
(0.123405 0.0877905 0)
(0.127338 0.0677778 0)
(0.127149 0.0471167 0)
(0.128942 0.0258645 0)
(0.123475 0.00446557 0)
(0.122863 -0.0166427 0)
(0.111312 -0.0372541 0)
(0.109597 -0.0570557 0)
(0.0915947 -0.0766659 0)
(0.091739 -0.0959023 0)
(0.0657246 -0.116693 0)
(0.0721527 -0.137898 0)
(0.0338908 -0.162195 0)
(0.0516582 -0.187819 0)
(-0.0030089 -0.216738 0)
(0.027798 -0.274621 0)
(-0.0409939 -0.392475 0)
(0.012194 -0.473271 0)
(-0.000411322 0.00813073 0)
(0.0223154 0.0827953 0)
(0.0538117 0.16359 0)
(0.0805519 0.214801 0)
(0.100604 0.236129 0)
(0.113754 0.234096 0)
(0.121684 0.216519 0)
(0.126183 0.191774 0)
(0.129173 0.166125 0)
(0.132607 0.142446 0)
(0.136228 0.121389 0)
(0.141599 0.101874 0)
(0.144869 0.083218 0)
(0.150341 0.0645268 0)
(0.150054 0.0456553 0)
(0.153573 0.0265402 0)
(0.147474 0.00738084 0)
(0.148531 -0.0114823 0)
(0.135573 -0.0300798 0)
(0.135374 -0.0480357 0)
(0.11497 -0.0661614 0)
(0.116272 -0.0841122 0)
(0.0865461 -0.103684 0)
(0.0935877 -0.123884 0)
(0.0494467 -0.147086 0)
(0.0684069 -0.171891 0)
(0.00396368 -0.200361 0)
(0.0405378 -0.256098 0)
(-0.0401043 -0.376914 0)
(0.0191415 -0.490794 0)
(-0.000258275 0.00154868 0)
(0.0148957 0.0550092 0)
(0.0463945 0.132514 0)
(0.0771977 0.189052 0)
(0.102174 0.217507 0)
(0.121452 0.221845 0)
(0.135026 0.20945 0)
(0.144308 0.187741 0)
(0.150463 0.163228 0)
(0.156168 0.139303 0)
(0.160195 0.117658 0)
(0.166625 0.0978764 0)
(0.169228 0.0795754 0)
(0.175897 0.0619684 0)
(0.174687 0.0447086 0)
(0.179809 0.0276603 0)
(0.172521 0.010688 0)
(0.175453 -0.00587471 0)
(0.160813 -0.0223999 0)
(0.162529 -0.0383505 0)
(0.139537 -0.0548252 0)
(0.14246 -0.0710438 0)
(0.10872 -0.089077 0)
(0.116772 -0.107303 0)
(0.0660775 -0.128681 0)
(0.0864648 -0.151344 0)
(0.0111569 -0.180081 0)
(0.0544386 -0.235336 0)
(-0.0407169 -0.36058 0)
(0.0271507 -0.510179 0)
(7.50185e-05 -0.00233576 0)
(0.00818774 0.0333492 0)
(0.0342665 0.100952 0)
(0.0649133 0.158715 0)
(0.0942277 0.191269 0)
(0.118802 0.201148 0)
(0.138726 0.193907 0)
(0.154434 0.17631 0)
(0.16547 0.154487 0)
(0.175609 0.131961 0)
(0.181352 0.110933 0)
(0.190292 0.0917189 0)
(0.19263 0.0742073 0)
(0.201271 0.0579089 0)
(0.19906 0.0423493 0)
(0.206414 0.0274338 0)
(0.197809 0.0127305 0)
(0.203347 -0.00137257 0)
(0.186916 -0.0155848 0)
(0.191349 -0.029159 0)
(0.165629 -0.0434484 0)
(0.170838 -0.0572058 0)
(0.132736 -0.0729313 0)
(0.142143 -0.0881524 0)
(0.0844511 -0.107259 0)
(0.106266 -0.126683 0)
(0.0186181 -0.156225 0)
(0.0688985 -0.209921 0)
(-0.0463931 -0.340913 0)
(0.0355848 -0.525908 0)
(-0.00104232 -0.00279931 0)
(0.00161694 0.0201708 0)
(0.0180911 0.0757156 0)
(0.0469241 0.127657 0)
(0.0792953 0.162894 0)
(0.111388 0.176388 0)
(0.138767 0.173917 0)
(0.163033 0.160786 0)
(0.180553 0.142698 0)
(0.197459 0.122709 0)
(0.206082 0.103463 0)
(0.219251 0.0855393 0)
(0.221463 0.0693099 0)
(0.232914 0.0544152 0)
(0.229015 0.0406097 0)
(0.238952 0.0276795 0)
(0.227932 0.0152251 0)
(0.236299 0.00346553 0)
(0.216802 -0.0083127 0)
(0.224207 -0.0193429 0)
(0.194474 -0.0310813 0)
(0.202347 -0.0419285 0)
(0.15879 -0.0547732 0)
(0.170335 -0.0664026 0)
(0.105569 -0.0827343 0)
(0.129835 -0.0979453 0)
(0.0310452 -0.127873 0)
(0.087778 -0.176617 0)
(-0.0510186 -0.312103 0)
(0.0487107 -0.52359 0)
(-0.00616621 0.00084364 0)
(-0.0137646 0.013215 0)
(-0.00538679 0.0565578 0)
(0.0145649 0.0943649 0)
(0.0499579 0.126278 0)
(0.0855673 0.14045 0)
(0.120976 0.142144 0)
(0.15488 0.134321 0)
(0.179462 0.121276 0)
(0.205825 0.105734 0)
(0.218624 0.0902163 0)
(0.23921 0.0752747 0)
(0.242286 0.061713 0)
(0.259464 0.0491344 0)
(0.254053 0.0377725 0)
(0.269047 0.0271171 0)
(0.254956 0.0172333 0)
(0.268387 0.00789609 0)
(0.244641 -0.00112478 0)
(0.257378 -0.00953092 0)
(0.222187 -0.018303 0)
(0.235669 -0.0261365 0)
(0.185424 -0.0354342 0)
(0.202771 -0.0433737 0)
(0.130558 -0.0560831 0)
(0.160844 -0.0678718 0)
(0.0541709 -0.0975096 0)
(0.116713 -0.142848 0)
(-0.0355387 -0.275854 0)
(0.0755694 -0.507145 0)
(-0.0277784 0.0259377 0)
(-0.0459879 0.0175036 0)
(-0.0353776 0.0499882 0)
(-0.0161707 0.0691457 0)
(0.021298 0.0958333 0)
(0.0625356 0.102084 0)
(0.103961 0.1064 0)
(0.148494 0.101302 0)
(0.178213 0.0931981 0)
(0.215701 0.0818397 0)
(0.231148 0.0712018 0)
(0.261784 0.0595811 0)
(0.263915 0.0500541 0)
(0.290191 0.0400844 0)
(0.280585 0.0323777 0)
(0.30451 0.0240292 0)
(0.283652 0.0177588 0)
(0.306741 0.0106405 0)
(0.274123 0.00542402 0)
(0.297911 -0.000701906 0)
(0.25205 -0.00526804 0)
(0.278843 -0.0106804 0)
(0.216749 -0.0155705 0)
(0.249993 -0.0208234 0)
(0.165598 -0.0287004 0)
(0.212711 -0.0386473 0)
(0.0953168 -0.0656941 0)
(0.170334 -0.118793 0)
(0.0106349 -0.250977 0)
(0.117693 -0.504666 0)
(0.0154548 0.0731782 0)
(-0.0751243 0.0136679 0)
(-0.0465236 0.0328208 0)
(-0.0585418 0.0325219 0)
(-0.0114934 0.0472837 0)
(0.0249586 0.0518538 0)
(0.0738875 0.0594787 0)
(0.1265 0.0587879 0)
(0.157162 0.0577864 0)
(0.210097 0.0523401 0)
(0.222218 0.0480612 0)
(0.271219 0.0413862 0)
(0.26582 0.0366499 0)
(0.312821 0.030429 0)
(0.291677 0.0262484 0)
(0.339147 0.0209397 0)
(0.303081 0.0174356 0)
(0.353576 0.0130562 0)
(0.302397 0.0101011 0)
(0.358598 0.00660905 0)
(0.290954 0.00394163 0)
(0.355955 0.00114494 0)
(0.269216 -0.00190218 0)
(0.34736 -0.00462772 0)
(0.236644 -0.00940481 0)
(0.331136 -0.0160512 0)
(0.18272 -0.0345213 0)
(0.290172 -0.0890245 0)
(0.0757531 -0.22052 0)
(0.178257 -0.453014 0)
(0.0744053 0.0671047 0)
(0.0987338 0.0524948 0)
(0.141885 0.0350967 0)
(0.188638 0.0266509 0)
(0.1963 0.0185167 0)
(0.252433 0.0159662 0)
(0.256772 0.0144532 0)
(0.326762 0.0142908 0)
(0.323871 0.0142964 0)
(0.401009 0.0137938 0)
(0.386834 0.0134815 0)
(0.466219 0.012334 0)
(0.437709 0.0118922 0)
(0.519147 0.0102797 0)
(0.475364 0.0100283 0)
(0.560637 0.00807496 0)
(0.500918 0.00827874 0)
(0.592559 0.00595894 0)
(0.515933 0.0068141 0)
(0.616799 0.00394283 0)
(0.521695 0.00563316 0)
(0.634973 0.0018916 0)
(0.519136 0.00473766 0)
(0.648383 -0.000433962 0)
(0.50804 0.00386981 0)
(0.654563 -0.0039826 0)
(0.473086 0.000668734 0)
(0.612209 -0.0198343 0)
(0.30089 -0.0334848 0)
(0.390771 -0.0961079 0)
)
;

boundaryField
{
    movingWall
    {
        type            fixedValue;
        value           uniform (1 0 0);
    }
    fixedWalls
    {
        type            noSlip;
    }
    frontAndBack
    {
        type            empty;
    }
}


// ************************************************************************* //
