/*--------------------------------*- C++ -*----------------------------------*\
| =========                 |                                                 |
| \\      /  F ield         | OpenFOAM: The Open Source CFD Toolbox           |
|  \\    /   O peration     | Version:  2406                                  |
|   \\  /    A nd           | Website:  www.openfoam.com                      |
|    \\/     M anipulation  |                                                 |
\*---------------------------------------------------------------------------*/
FoamFile
{
    version     2.0;
    format      ascii;
    arch        "LSB;label=32;scalar=64";
    class       volVectorField;
    location    "13";
    object      U_0;
}
// * * * * * * * * * * * * * * * * * * * * * * * * * * * * * * * * * * * * * //

dimensions      [0 1 -1 0 0 0 0];

internalField   nonuniform List<vector> 
16384
(
(4.19967e-06 -4.16277e-06 0)
(1.70537e-05 -4.96605e-06 0)
(2.61701e-05 -3.63155e-06 0)
(2.59128e-05 -1.68132e-06 0)
(1.44553e-05 2.00188e-07 0)
(-7.6081e-06 1.73217e-06 0)
(-3.87589e-05 2.94568e-06 0)
(-7.71203e-05 3.809e-06 0)
(-0.000121024 4.36694e-06 0)
(-0.000168983 4.69715e-06 0)
(-0.000219795 4.86883e-06 0)
(-0.000272561 4.93894e-06 0)
(-0.000326658 4.95297e-06 0)
(-0.000381695 4.94568e-06 0)
(-0.00043747 4.94228e-06 0)
(-0.000493927 4.95999e-06 0)
(-0.000551113 5.00956e-06 0)
(-0.000609146 5.0968e-06 0)
(-0.000668191 5.22389e-06 0)
(-0.000728432 5.39046e-06 0)
(-0.000790062 5.5945e-06 0)
(-0.000853268 5.83302e-06 0)
(-0.000918227 6.10254e-06 0)
(-0.000985095 6.39942e-06 0)
(-0.00105401 6.72003e-06 0)
(-0.00112508 7.06092e-06 0)
(-0.00119841 7.41885e-06 0)
(-0.00127406 7.79084e-06 0)
(-0.00135208 8.1741e-06 0)
(-0.00143248 8.56602e-06 0)
(-0.00151528 8.96409e-06 0)
(-0.00160045 9.36587e-06 0)
(-0.00168795 9.76894e-06 0)
(-0.00177771 1.01709e-05 0)
(-0.00186964 1.05691e-05 0)
(-0.00196364 1.0961e-05 0)
(-0.00205957 1.13438e-05 0)
(-0.00215728 1.17144e-05 0)
(-0.00225658 1.20695e-05 0)
(-0.00235726 1.24057e-05 0)
(-0.00245909 1.27189e-05 0)
(-0.0025618 1.30051e-05 0)
(-0.00266511 1.32596e-05 0)
(-0.00276869 1.34775e-05 0)
(-0.00287218 1.36534e-05 0)
(-0.00297519 1.37815e-05 0)
(-0.0030773 1.38555e-05 0)
(-0.00317805 1.3869e-05 0)
(-0.00327695 1.3815e-05 0)
(-0.00337345 1.36864e-05 0)
(-0.00346699 1.34757e-05 0)
(-0.00355695 1.31756e-05 0)
(-0.0036427 1.27786e-05 0)
(-0.00372356 1.22776e-05 0)
(-0.00379882 1.16655e-05 0)
(-0.00386774 1.09362e-05 0)
(-0.00392958 1.0084e-05 0)
(-0.00398356 9.10449e-06 0)
(-0.00402891 7.99482e-06 0)
(-0.00406486 6.75398e-06 0)
(-0.00409064 5.38395e-06 0)
(-0.00410554 3.8866e-06 0)
(-0.00410884 2.24387e-06 0)
(-0.00409987 4.79338e-07 0)
(-0.00407808 -1.39086e-06 0)
(-0.00404295 -3.35626e-06 0)
(-0.00399406 -5.4035e-06 0)
(-0.00393112 -7.51551e-06 0)
(-0.00385395 -9.672e-06 0)
(-0.00376248 -1.18499e-05 0)
(-0.00365682 -1.4024e-05 0)
(-0.00353722 -1.61673e-05 0)
(-0.00340409 -1.82511e-05 0)
(-0.00325799 -2.02458e-05 0)
(-0.00309968 -2.21219e-05 0)
(-0.00293004 -2.38503e-05 0)
(-0.00275013 -2.54033e-05 0)
(-0.00256115 -2.6755e-05 0)
(-0.00236443 -2.78824e-05 0)
(-0.0021614 -2.8766e-05 0)
(-0.00195361 -2.93907e-05 0)
(-0.00174265 -2.97456e-05 0)
(-0.00153017 -2.98249e-05 0)
(-0.00131783 -2.9628e-05 0)
(-0.0011073 -2.91597e-05 0)
(-0.000900184 -2.84299e-05 0)
(-0.000698038 -2.74536e-05 0)
(-0.000502326 -2.62496e-05 0)
(-0.000314401 -2.48403e-05 0)
(-0.000135477 -2.32531e-05 0)
(3.33623e-05 -2.15255e-05 0)
(0.000191194 -1.96762e-05 0)
(0.000337281 -1.77333e-05 0)
(0.000471047 -1.5734e-05 0)
(0.000592082 -1.3708e-05 0)
(0.000700145 -1.16833e-05 0)
(0.000795154 -9.68518e-06 0)
(0.000877173 -7.73673e-06 0)
(0.000946402 -5.85806e-06 0)
(0.00100316 -4.06582e-06 0)
(0.00104786 -2.37322e-06 0)
(0.001081 -7.90084e-07 0)
(0.00110316 6.76681e-07 0)
(0.00111496 2.02035e-06 0)
(0.00111702 3.23737e-06 0)
(0.00111001 4.35543e-06 0)
(0.00109462 5.35481e-06 0)
(0.00107148 6.24276e-06 0)
(0.00104124 7.02916e-06 0)
(0.0010045 7.72295e-06 0)
(0.000961834 8.33338e-06 0)
(0.00091379 8.86987e-06 0)
(0.000860872 9.3416e-06 0)
(0.000803562 9.7569e-06 0)
(0.000742322 1.01226e-05 0)
(0.000677611 1.04427e-05 0)
(0.000609911 1.07174e-05 0)
(0.000539756 1.094e-05 0)
(0.00046778 1.10946e-05 0)
(0.000394781 1.11509e-05 0)
(0.000321799 1.10571e-05 0)
(0.000250227 1.07309e-05 0)
(0.000181937 1.00463e-05 0)
(0.000119425 8.81914e-06 0)
(6.59113e-05 6.79974e-06 0)
(2.52454e-05 3.72164e-06 0)
(1.16191e-06 -3.09573e-07 0)
(-3.58152e-06 -3.58017e-06 0)
(5.13418e-06 -1.71397e-05 0)
(1.96901e-05 -1.94726e-05 0)
(2.02259e-05 -5.60387e-06 0)
(-2.4277e-06 1.4503e-05 0)
(-5.16754e-05 3.54356e-05 0)
(-0.000126458 5.43759e-05 0)
(-0.000223776 7.02947e-05 0)
(-0.000339802 8.28917e-05 0)
(-0.000470703 9.24081e-05 0)
(-0.000613003 9.93295e-05 0)
(-0.000763791 0.000104214 0)
(-0.000920789 0.000107606 0)
(-0.00108233 0.000109992 0)
(-0.0012473 0.000111777 0)
(-0.00141503 0.000113286 0)
(-0.00158523 0.000114762 0)
(-0.00175787 0.000116381 0)
(-0.00193313 0.000118256 0)
(-0.00211131 0.000120457 0)
(-0.00229278 0.000123015 0)
(-0.00247795 0.000125934 0)
(-0.00266723 0.000129199 0)
(-0.00286101 0.000132783 0)
(-0.00305963 0.000136648 0)
(-0.00326341 0.000140753 0)
(-0.00347258 0.000145055 0)
(-0.00368733 0.000149509 0)
(-0.0039078 0.000154068 0)
(-0.00413403 0.000158689 0)
(-0.00436604 0.000163327 0)
(-0.00460377 0.000167938 0)
(-0.0048471 0.000172478 0)
(-0.00509584 0.000176903 0)
(-0.00534974 0.000181168 0)
(-0.00560851 0.000185229 0)
(-0.00587176 0.00018904 0)
(-0.00613906 0.000192553 0)
(-0.00640991 0.000195721 0)
(-0.00668374 0.000198493 0)
(-0.00695992 0.000200818 0)
(-0.00723773 0.00020264 0)
(-0.00751641 0.000203904 0)
(-0.00779511 0.000204552 0)
(-0.00807289 0.00020452 0)
(-0.00834875 0.000203747 0)
(-0.00862161 0.000202165 0)
(-0.0088903 0.000199707 0)
(-0.00915358 0.000196302 0)
(-0.00941011 0.00019188 0)
(-0.00965849 0.000186369 0)
(-0.00989722 0.0001797 0)
(-0.0101247 0.000171804 0)
(-0.0103394 0.000162615 0)
(-0.0105395 0.000152076 0)
(-0.0107232 0.000140133 0)
(-0.0108888 0.000126744 0)
(-0.0110344 0.000111876 0)
(-0.0111582 9.55131e-05 0)
(-0.0112583 7.76535e-05 0)
(-0.0113328 5.83156e-05 0)
(-0.0113801 3.75392e-05 0)
(-0.0113985 1.53897e-05 0)
(-0.0113863 -8.04084e-06 0)
(-0.0113422 -3.26381e-05 0)
(-0.0112647 -5.82746e-05 0)
(-0.011153 -8.47817e-05 0)
(-0.0110062 -0.000111961 0)
(-0.0108237 -0.000139589 0)
(-0.0106053 -0.000167417 0)
(-0.010351 -0.000195174 0)
(-0.0100614 -0.000222571 0)
(-0.00973709 -0.000249307 0)
(-0.00937931 -0.000275069 0)
(-0.00898959 -0.000299543 0)
(-0.00856984 -0.000322415 0)
(-0.00812234 -0.000343384 0)
(-0.00764973 -0.000362164 0)
(-0.00715495 -0.000378492 0)
(-0.00664127 -0.000392136 0)
(-0.00611218 -0.000402898 0)
(-0.0055714 -0.000410626 0)
(-0.00502279 -0.000415209 0)
(-0.00447033 -0.00041659 0)
(-0.00391802 -0.000414761 0)
(-0.00336983 -0.000409766 0)
(-0.00282969 -0.000401702 0)
(-0.00230134 -0.000390713 0)
(-0.00178835 -0.000376992 0)
(-0.00129405 -0.000360766 0)
(-0.000821444 -0.000342305 0)
(-0.000373233 -0.00032191 0)
(4.82498e-05 -0.000299884 0)
(0.000441045 -0.000276542 0)
(0.000803601 -0.000252217 0)
(0.00113477 -0.000227236 0)
(0.00143376 -0.000201914 0)
(0.0017002 -0.000176544 0)
(0.00193403 -0.000151399 0)
(0.00213555 -0.000126723 0)
(0.00230533 -0.00010273 0)
(0.0024442 -7.96014e-05 0)
(0.00255322 -5.74843e-05 0)
(0.00263361 -3.64929e-05 0)
(0.00268675 -1.6711e-05 0)
(0.00271409 1.80797e-06 0)
(0.00271717 1.90679e-05 0)
(0.00269753 3.50583e-05 0)
(0.00265675 4.97996e-05 0)
(0.00259634 6.33337e-05 0)
(0.00251781 7.5715e-05 0)
(0.0024226 8.70041e-05 0)
(0.00231209 9.72623e-05 0)
(0.00218761 0.000106544 0)
(0.00205046 0.00011489 0)
(0.00190193 0.000122313 0)
(0.00174333 0.00012879 0)
(0.00157607 0.000134242 0)
(0.00140172 0.000138513 0)
(0.00122214 0.000141347 0)
(0.0010396 0.000142348 0)
(0.00085692 0.000140952 0)
(0.000677722 0.00013638 0)
(0.000506575 0.000127623 0)
(0.000349186 0.000113469 0)
(0.000212399 9.26886e-05 0)
(0.000103862 6.46209e-05 0)
(3.10852e-05 3.09826e-05 0)
(-3.04096e-07 1.1583e-06 0)
(3.87477e-06 -2.65998e-05 0)
(5.17834e-06 -2.0038e-05 0)
(-2.03129e-05 1.84371e-05 0)
(-8.10904e-05 6.96931e-05 0)
(-0.000180117 0.000122728 0)
(-0.000315778 0.000171473 0)
(-0.000484089 0.000213165 0)
(-0.000680009 0.000246998 0)
(-0.000898362 0.000273346 0)
(-0.00113437 0.000293203 0)
(-0.00138394 0.000307816 0)
(-0.0016438 0.000318462 0)
(-0.00191146 0.000326321 0)
(-0.00218522 0.000332412 0)
(-0.00246396 0.000337565 0)
(-0.00274714 0.000342424 0)
(-0.00303456 0.000347459 0)
(-0.00332637 0.000352997 0)
(-0.00362287 0.000359238 0)
(-0.00392452 0.000366288 0)
(-0.00423181 0.000374177 0)
(-0.00454526 0.000382881 0)
(-0.00486536 0.000392339 0)
(-0.00519255 0.000402463 0)
(-0.00552719 0.000413146 0)
(-0.00586959 0.000424275 0)
(-0.00621994 0.000435729 0)
(-0.00657835 0.000447383 0)
(-0.00694484 0.000459115 0)
(-0.00731934 0.000470799 0)
(-0.00770166 0.000482311 0)
(-0.00809152 0.000493526 0)
(-0.00848856 0.00050432 0)
(-0.00889231 0.000514567 0)
(-0.00930218 0.000524141 0)
(-0.00971753 0.000532913 0)
(-0.0101376 0.000540753 0)
(-0.0105615 0.000547529 0)
(-0.0109882 0.000553106 0)
(-0.0114168 0.000557343 0)
(-0.011846 0.0005601 0)
(-0.0122746 0.000561228 0)
(-0.0127013 0.000560576 0)
(-0.0131244 0.00055799 0)
(-0.0135425 0.000553309 0)
(-0.0139539 0.00054637 0)
(-0.0143568 0.000537007 0)
(-0.0147492 0.00052505 0)
(-0.0151293 0.000510331 0)
(-0.0154947 0.000492683 0)
(-0.0158435 0.000471945 0)
(-0.0161731 0.000447962 0)
(-0.0164814 0.000420589 0)
(-0.0167657 0.000389702 0)
(-0.0170236 0.000355192 0)
(-0.0172525 0.000316979 0)
(-0.0174498 0.000275014 0)
(-0.017613 0.000229282 0)
(-0.0177395 0.000179815 0)
(-0.0178268 0.000126687 0)
(-0.0178726 7.0025e-05 0)
(-0.0178746 1.00153e-05 0)
(-0.0178307 -5.29963e-05 0)
(-0.017739 -0.000118771 0)
(-0.0175981 -0.000186945 0)
(-0.0174066 -0.000257066 0)
(-0.0171635 -0.000328615 0)
(-0.0168684 -0.000401017 0)
(-0.016521 -0.000473638 0)
(-0.0161218 -0.000545797 0)
(-0.0156714 -0.000616772 0)
(-0.0151713 -0.000685812 0)
(-0.0146232 -0.000752149 0)
(-0.0140294 -0.00081501 0)
(-0.0133929 -0.000873635 0)
(-0.0127168 -0.000927287 0)
(-0.0120051 -0.000975277 0)
(-0.0112618 -0.00101697 0)
(-0.0104918 -0.00105181 0)
(-0.0096999 -0.00107932 0)
(-0.00889136 -0.00109913 0)
(-0.00807163 -0.00111099 0)
(-0.00724629 -0.00111474 0)
(-0.00642097 -0.00111037 0)
(-0.00560128 -0.00109799 0)
(-0.00479273 -0.00107782 0)
(-0.00400063 -0.0010502 0)
(-0.00323004 -0.0010156 0)
(-0.00248571 -0.000974569 0)
(-0.00177197 -0.000927744 0)
(-0.00109274 -0.000875837 0)
(-0.000451419 -0.000819611 0)
(0.00014907 -0.000759851 0)
(0.000706353 -0.000697346 0)
(0.00121861 -0.000632907 0)
(0.00168455 -0.000567329 0)
(0.00210341 -0.000501345 0)
(0.00247491 -0.000435644 0)
(0.00279924 -0.000370855 0)
(0.00307703 -0.000307535 0)
(0.00330925 -0.000246162 0)
(0.00349722 -0.000187135 0)
(0.0036425 -0.000130769 0)
(0.0037469 -7.73007e-05 0)
(0.00381238 -2.68876e-05 0)
(0.00384101 2.0378e-05 0)
(0.00383491 6.44813e-05 0)
(0.00379625 0.000105444 0)
(0.00372718 0.000143334 0)
(0.00362984 0.000178249 0)
(0.00350631 0.000210306 0)
(0.00335861 0.000239619 0)
(0.00318873 0.000266283 0)
(0.00299864 0.000290353 0)
(0.00279032 0.000311815 0)
(0.00256585 0.000330554 0)
(0.00232744 0.000346315 0)
(0.0020776 0.000358655 0)
(0.00181923 0.000366886 0)
(0.00155582 0.000370013 0)
(0.00129162 0.000366674 0)
(0.00103187 0.000355093 0)
(0.000782971 0.000333101 0)
(0.000552587 0.000298282 0)
(0.000349572 0.000248428 0)
(0.000183637 0.000182625 0)
(6.51903e-05 0.000103895 0)
(3.77215e-06 2.53625e-05 0)
(1.8218e-06 -2.59344e-05 0)
(-1.78798e-05 4.91107e-06 0)
(-7.96969e-05 8.07357e-05 0)
(-0.000189091 0.000174601 0)
(-0.000346917 0.000270206 0)
(-0.000550333 0.000358252 0)
(-0.000794305 0.000434218 0)
(-0.00107281 0.000496689 0)
(-0.00137971 0.000546166 0)
(-0.00170935 0.000584218 0)
(-0.00205683 0.000612892 0)
(-0.00241816 0.000634345 0)
(-0.00279029 0.000650609 0)
(-0.00317103 0.000663465 0)
(-0.00355894 0.000674388 0)
(-0.00395321 0.000684538 0)
(-0.0043535 0.000694782 0)
(-0.00475983 0.000705725 0)
(-0.00517249 0.000717754 0)
(-0.00559191 0.00073108 0)
(-0.00601859 0.000745778 0)
(-0.00645307 0.000761821 0)
(-0.00689584 0.000779107 0)
(-0.00734737 0.00079748 0)
(-0.007808 0.000816753 0)
(-0.00827801 0.000836715 0)
(-0.00875753 0.000857142 0)
(-0.0092466 0.0008778 0)
(-0.00974513 0.000898455 0)
(-0.0102529 0.000918868 0)
(-0.0107695 0.000938801 0)
(-0.0112946 0.000958014 0)
(-0.0118274 0.000976269 0)
(-0.0123673 0.000993326 0)
(-0.0129135 0.00100894 0)
(-0.0134648 0.00102288 0)
(-0.0140203 0.0010349 0)
(-0.0145786 0.00104474 0)
(-0.0151385 0.00105217 0)
(-0.0156984 0.00105692 0)
(-0.0162568 0.00105875 0)
(-0.016812 0.00105738 0)
(-0.017362 0.00105256 0)
(-0.017905 0.00104402 0)
(-0.0184389 0.00103147 0)
(-0.0189615 0.00101465 0)
(-0.0194705 0.000993258 0)
(-0.0199635 0.000967025 0)
(-0.020438 0.000935667 0)
(-0.0208913 0.000898911 0)
(-0.0213208 0.000856497 0)
(-0.0217235 0.000808177 0)
(-0.0220966 0.00075373 0)
(-0.0224371 0.000692964 0)
(-0.022742 0.000625727 0)
(-0.0230082 0.000551915 0)
(-0.0232327 0.000471479 0)
(-0.0234126 0.000384441 0)
(-0.0235447 0.000290897 0)
(-0.0236264 0.000191028 0)
(-0.0236548 8.51053e-05 0)
(-0.0236274 -2.6506e-05 0)
(-0.0235419 -0.000143268 0)
(-0.0233964 -0.000264631 0)
(-0.0231891 -0.00038989 0)
(-0.0229186 -0.000518227 0)
(-0.0225842 -0.000648716 0)
(-0.0221854 -0.000780332 0)
(-0.0217221 -0.000911954 0)
(-0.0211951 -0.00104238 0)
(-0.0206055 -0.00117036 0)
(-0.0199549 -0.00129457 0)
(-0.0192459 -0.00141368 0)
(-0.0184812 -0.00152636 0)
(-0.0176645 -0.00163129 0)
(-0.0167997 -0.00172721 0)
(-0.0158917 -0.00181294 0)
(-0.0149454 -0.00188739 0)
(-0.0139666 -0.0019496 0)
(-0.0129611 -0.00199876 0)
(-0.0119353 -0.00203425 0)
(-0.0108957 -0.0020556 0)
(-0.00984908 -0.00206257 0)
(-0.00880217 -0.00205513 0)
(-0.00776174 -0.00203345 0)
(-0.00673444 -0.0019979 0)
(-0.00572673 -0.00194908 0)
(-0.00474474 -0.00188777 0)
(-0.00379428 -0.00181489 0)
(-0.00288068 -0.00173156 0)
(-0.00200879 -0.00163898 0)
(-0.00118286 -0.00153846 0)
(-0.000406582 -0.00143138 0)
(0.000316997 -0.00131913 0)
(0.000985444 -0.00120307 0)
(0.001597 -0.00108464 0)
(0.00215054 -0.000965123 0)
(0.0026455 -0.000845742 0)
(0.0030819 -0.000727627 0)
(0.00346026 -0.000611786 0)
(0.00378158 -0.000499093 0)
(0.00404726 -0.000390286 0)
(0.00425905 -0.000285962 0)
(0.00441898 -0.000186576 0)
(0.00452928 -9.24513e-05 0)
(0.00459237 -3.79462e-06 0)
(0.00461076 7.93056e-05 0)
(0.00458701 0.000156855 0)
(0.00452372 0.00022893 0)
(0.00442347 0.000295661 0)
(0.0042888 0.000357202 0)
(0.00412224 0.000413708 0)
(0.00392629 0.000465294 0)
(0.00370344 0.000511999 0)
(0.00345625 0.000553739 0)
(0.00318742 0.000590251 0)
(0.00289985 0.000621023 0)
(0.00259678 0.000645223 0)
(0.00228197 0.000661613 0)
(0.00195985 0.000668456 0)
(0.00163571 0.000663451 0)
(0.00131592 0.000643692 0)
(0.00100808 0.000605742 0)
(0.000721117 0.0005459 0)
(0.000465201 0.000460859 0)
(0.000251723 0.000349046 0)
(9.42007e-05 0.000213367 0)
(6.94097e-06 6.65237e-05 0)
(-4.6801e-07 -1.18769e-05 0)
(-4.49915e-05 6.23738e-05 0)
(-0.000149018 0.000189599 0)
(-0.000313617 0.000337058 0)
(-0.000536423 0.000484253 0)
(-0.000812682 0.000619225 0)
(-0.00113603 0.000736031 0)
(-0.00149941 0.000832808 0)
(-0.00189589 0.000910291 0)
(-0.00231912 0.000970708 0)
(-0.00276362 0.001017 0)
(-0.00322492 0.00105229 0)
(-0.00369957 0.00107955 0)
(-0.00418506 0.00110142 0)
(-0.00467968 0.0011201 0)
(-0.00518242 0.00113733 0)
(-0.00569279 0.00115444 0)
(-0.00621072 0.00117236 0)
(-0.0067364 0.00119168 0)
(-0.00727019 0.00121276 0)
(-0.00781257 0.00123573 0)
(-0.008364 0.00126054 0)
(-0.00892496 0.00128706 0)
(-0.00949581 0.00131505 0)
(-0.0100768 0.00134422 0)
(-0.0106682 0.00137425 0)
(-0.01127 0.00140478 0)
(-0.011882 0.00143545 0)
(-0.0125041 0.00146588 0)
(-0.0131357 0.0014957 0)
(-0.0137764 0.00152451 0)
(-0.0144254 0.00155194 0)
(-0.0150819 0.00157762 0)
(-0.0157447 0.00160115 0)
(-0.0164129 0.00162217 0)
(-0.0170849 0.00164028 0)
(-0.0177594 0.00165513 0)
(-0.0184349 0.00166632 0)
(-0.0191094 0.00167348 0)
(-0.0197813 0.00167623 0)
(-0.0204486 0.00167419 0)
(-0.0211091 0.00166697 0)
(-0.0217605 0.00165419 0)
(-0.0224007 0.00163546 0)
(-0.0230271 0.00161038 0)
(-0.0236372 0.00157856 0)
(-0.0242284 0.0015396 0)
(-0.0247977 0.0014931 0)
(-0.0253424 0.00143868 0)
(-0.0258595 0.00137597 0)
(-0.0263459 0.00130462 0)
(-0.0267986 0.00122428 0)
(-0.0272141 0.00113468 0)
(-0.0275894 0.00103557 0)
(-0.0279211 0.000926769 0)
(-0.0282058 0.000808173 0)
(-0.0284404 0.000679759 0)
(-0.0286216 0.000541606 0)
(-0.0287461 0.000393909 0)
(-0.028811 0.000236987 0)
(-0.0288135 7.13045e-05 0)
(-0.0287508 -0.000102541 0)
(-0.0286206 -0.000283806 0)
(-0.0284209 -0.000471552 0)
(-0.0281499 -0.000664699 0)
(-0.0278063 -0.000862007 0)
(-0.0273893 -0.00106208 0)
(-0.0268986 -0.00126339 0)
(-0.0263344 -0.00146426 0)
(-0.0256975 -0.0016629 0)
(-0.0249894 -0.00185746 0)
(-0.024212 -0.002046 0)
(-0.0233682 -0.00222656 0)
(-0.0224612 -0.00239718 0)
(-0.0214951 -0.00255594 0)
(-0.0204745 -0.00270098 0)
(-0.0194045 -0.00283058 0)
(-0.0182911 -0.00294314 0)
(-0.0171403 -0.00303725 0)
(-0.015959 -0.00311175 0)
(-0.0147542 -0.00316567 0)
(-0.0135332 -0.00319838 0)
(-0.0123036 -0.00320947 0)
(-0.0110731 -0.00319889 0)
(-0.00984923 -0.00316688 0)
(-0.00863957 -0.00311396 0)
(-0.00745143 -0.003041 0)
(-0.00629185 -0.00294909 0)
(-0.00516745 -0.00283961 0)
(-0.0040844 -0.00271416 0)
(-0.00304831 -0.0025745 0)
(-0.00206417 -0.00242257 0)
(-0.00113632 -0.00226037 0)
(-0.000268378 -0.00208999 0)
(0.000536669 -0.00191349 0)
(0.0012766 -0.00173291 0)
(0.00194997 -0.00155024 0)
(0.00255592 -0.00136732 0)
(0.00309426 -0.00118586 0)
(0.00356538 -0.00100741 0)
(0.00397025 -0.000833301 0)
(0.00431028 -0.000664691 0)
(0.0045873 -0.000502518 0)
(0.00480346 -0.000347517 0)
(0.00496121 -0.000200227 0)
(0.00506317 -6.10026e-05 0)
(0.00511213 6.99653e-05 0)
(0.00511095 0.000192628 0)
(0.00506253 0.000307046 0)
(0.00496979 0.000413358 0)
(0.00483564 0.000511739 0)
(0.00466299 0.000602359 0)
(0.00445472 0.000685329 0)
(0.00421376 0.000760642 0)
(0.00394313 0.000828104 0)
(0.00364601 0.000887252 0)
(0.00332583 0.000937264 0)
(0.00298644 0.000976854 0)
(0.00263222 0.00100416 0)
(0.0022683 0.00101664 0)
(0.00190071 0.001011 0)
(0.0015366 0.000983143 0)
(0.0011844 0.00092832 0)
(0.000853952 0.000841443 0)
(0.000556517 0.000717815 0)
(0.000305123 0.000554466 0)
(0.000116373 0.000352518 0)
(9.08061e-06 0.000121146 0)
(-2.71126e-06 1.68726e-05 0)
(-7.3673e-05 0.000155659 0)
(-0.000223066 0.000349625 0)
(-0.00044672 0.000562014 0)
(-0.000738362 0.000769415 0)
(-0.00109081 0.000958064 0)
(-0.00149604 0.00112117 0)
(-0.00194585 0.00125677 0)
(-0.00243247 0.00136608 0)
(-0.00294896 0.00145213 0)
(-0.0034894 0.00151887 0)
(-0.00404897 0.00157047 0)
(-0.00462395 0.00161091 0)
(-0.0052116 0.00164373 0)
(-0.00581005 0.0016719 0)
(-0.00641813 0.0016978 0)
(-0.00703523 0.00172323 0)
(-0.00766118 0.00174948 0)
(-0.00829606 0.00177738 0)
(-0.00894016 0.00180741 0)
(-0.00959385 0.00183975 0)
(-0.0102575 0.00187438 0)
(-0.0109315 0.00191108 0)
(-0.0116161 0.00194954 0)
(-0.0123114 0.00198936 0)
(-0.0130174 0.00203005 0)
(-0.0137341 0.00207114 0)
(-0.0144611 0.00211208 0)
(-0.015198 0.00215236 0)
(-0.015944 0.00219141 0)
(-0.0166985 0.00222869 0)
(-0.0174603 0.00226366 0)
(-0.0182283 0.00229578 0)
(-0.0190013 0.00232451 0)
(-0.0197777 0.00234932 0)
(-0.0205558 0.00236967 0)
(-0.021334 0.00238505 0)
(-0.0221102 0.00239495 0)
(-0.0228824 0.00239886 0)
(-0.0236485 0.00239626 0)
(-0.0244061 0.00238666 0)
(-0.0251529 0.00236955 0)
(-0.0258864 0.00234443 0)
(-0.0266039 0.00231081 0)
(-0.0273028 0.00226819 0)
(-0.0279803 0.00221605 0)
(-0.0286334 0.00215391 0)
(-0.0292592 0.00208127 0)
(-0.0298547 0.00199766 0)
(-0.0304168 0.00190262 0)
(-0.0309421 0.0017957 0)
(-0.0314275 0.00167653 0)
(-0.0318695 0.00154475 0)
(-0.0322649 0.00140008 0)
(-0.0326102 0.00124234 0)
(-0.032902 0.00107142 0)
(-0.033137 0.000887346 0)
(-0.0333118 0.000690275 0)
(-0.0334232 0.000480514 0)
(-0.0334681 0.000258532 0)
(-0.0334437 2.49865e-05 0)
(-0.0333471 -0.000219212 0)
(-0.033176 -0.000473082 0)
(-0.0329283 -0.00073533 0)
(-0.0326022 -0.00100447 0)
(-0.0321965 -0.0012788 0)
(-0.0317103 -0.00155644 0)
(-0.0311434 -0.00183531 0)
(-0.0304959 -0.00211315 0)
(-0.0297688 -0.00238756 0)
(-0.0289636 -0.00265604 0)
(-0.0280825 -0.00291599 0)
(-0.0271284 -0.00316478 0)
(-0.0261047 -0.00339979 0)
(-0.0250158 -0.00361844 0)
(-0.0238666 -0.00381824 0)
(-0.0226626 -0.00399685 0)
(-0.0214101 -0.00415215 0)
(-0.0201157 -0.00428223 0)
(-0.0187867 -0.00438548 0)
(-0.0174307 -0.00446063 0)
(-0.0160558 -0.00450674 0)
(-0.01467 -0.00452329 0)
(-0.0132819 -0.00451014 0)
(-0.0118998 -0.00446758 0)
(-0.010532 -0.00439628 0)
(-0.00918656 -0.00429736 0)
(-0.00787142 -0.00417226 0)
(-0.00659395 -0.00402281 0)
(-0.0053611 -0.00385113 0)
(-0.00417919 -0.0036596 0)
(-0.00305393 -0.00345079 0)
(-0.00199029 -0.00322742 0)
(-0.00099247 -0.00299231 0)
(-6.39393e-05 -0.0027483 0)
(0.000792647 -0.00249814 0)
(0.00157545 -0.00224455 0)
(0.00228335 -0.00199009 0)
(0.00291597 -0.00173713 0)
(0.00347359 -0.00148779 0)
(0.00395709 -0.00124397 0)
(0.00436792 -0.00100729 0)
(0.00470796 -0.000779086 0)
(0.00497949 -0.00056042 0)
(0.00518512 -0.000352087 0)
(0.00532768 -0.000154633 0)
(0.00541018 3.16244e-05 0)
(0.00543572 0.000206556 0)
(0.00540749 0.000370186 0)
(0.00532871 0.000522642 0)
(0.00520257 0.000664102 0)
(0.00503229 0.000794732 0)
(0.00482109 0.000914619 0)
(0.00457225 0.00102368 0)
(0.00428914 0.00112159 0)
(0.00397533 0.00120766 0)
(0.00363467 0.0012807 0)
(0.00327145 0.00133895 0)
(0.00289053 0.00137987 0)
(0.00249752 0.0014001 0)
(0.00209899 0.0013953 0)
(0.00170265 0.00136015 0)
(0.00131756 0.00128852 0)
(0.000954305 0.00117375 0)
(0.00062516 0.00100936 0)
(0.000344718 0.000790214 0)
(0.000132307 0.000514327 0)
(1.04368e-05 0.000185586 0)
(-4.99753e-06 6.07017e-05 0)
(-0.000102925 0.000286257 0)
(-0.000298959 0.000563174 0)
(-0.000583543 0.000852238 0)
(-0.000946058 0.00112839 0)
(-0.0013765 0.00137702 0)
(-0.00186494 0.00159119 0)
(-0.00240185 0.00176935 0)
(-0.00297858 0.0019135 0)
(-0.00358758 0.00202772 0)
(-0.00422256 0.00211708 0)
(-0.00487843 0.0021869 0)
(-0.00555129 0.00224224 0)
(-0.00623825 0.00228757 0)
(-0.00693733 0.00232667 0)
(-0.00764727 0.00236256 0)
(-0.00836736 0.00239753 0)
(-0.00909732 0.00243323 0)
(-0.00983714 0.00247071 0)
(-0.010587 0.00251059 0)
(-0.0113471 0.00255311 0)
(-0.0121178 0.00259822 0)
(-0.0128992 0.00264565 0)
(-0.0136915 0.00269497 0)
(-0.0144945 0.00274564 0)
(-0.0153082 0.00279705 0)
(-0.0161322 0.00284851 0)
(-0.016966 0.00289935 0)
(-0.0178088 0.00294882 0)
(-0.0186597 0.00299622 0)
(-0.0195176 0.0030408 0)
(-0.0203813 0.00308185 0)
(-0.0212493 0.00311865 0)
(-0.0221199 0.00315049 0)
(-0.0229914 0.00317669 0)
(-0.0238618 0.00319658 0)
(-0.024729 0.00320948 0)
(-0.0255909 0.00321476 0)
(-0.0264452 0.00321178 0)
(-0.0272893 0.00319994 0)
(-0.0281209 0.00317862 0)
(-0.0289374 0.00314722 0)
(-0.029736 0.00310515 0)
(-0.030514 0.00305183 0)
(-0.0312687 0.00298668 0)
(-0.0319971 0.00290911 0)
(-0.0326964 0.00281854 0)
(-0.0333636 0.00271442 0)
(-0.0339955 0.00259619 0)
(-0.0345892 0.00246331 0)
(-0.0351413 0.0023153 0)
(-0.0356487 0.0021517 0)
(-0.036108 0.00197212 0)
(-0.036516 0.00177626 0)
(-0.0368692 0.00156392 0)
(-0.0371644 0.001335 0)
(-0.037398 0.00108958 0)
(-0.0375669 0.000827873 0)
(-0.0376678 0.000550309 0)
(-0.0376975 0.000257507 0)
(-0.0376531 -4.96817e-05 0)
(-0.0375318 -0.000370124 0)
(-0.0373311 -0.000702513 0)
(-0.0370489 -0.00104522 0)
(-0.0366831 -0.00139636 0)
(-0.0362324 -0.00175379 0)
(-0.0356957 -0.00211511 0)
(-0.0350727 -0.00247769 0)
(-0.0343634 -0.0028387 0)
(-0.0335685 -0.00319508 0)
(-0.0326894 -0.00354369 0)
(-0.0317283 -0.00388122 0)
(-0.0306878 -0.00420434 0)
(-0.0295715 -0.00450972 0)
(-0.0283837 -0.00479407 0)
(-0.0271293 -0.00505421 0)
(-0.0258142 -0.00528716 0)
(-0.0244446 -0.00549016 0)
(-0.0230277 -0.00566076 0)
(-0.0215711 -0.00579685 0)
(-0.0200829 -0.00589675 0)
(-0.0185716 -0.00595921 0)
(-0.0170462 -0.00598348 0)
(-0.0155157 -0.00596931 0)
(-0.0139892 -0.005917 0)
(-0.012476 -0.00582735 0)
(-0.0109849 -0.00570169 0)
(-0.00952473 -0.00554183 0)
(-0.00810372 -0.00535005 0)
(-0.00672967 -0.00512902 0)
(-0.00540975 -0.00488174 0)
(-0.00415044 -0.00461152 0)
(-0.00295742 -0.00432184 0)
(-0.00183556 -0.00401631 0)
(-0.000788848 -0.00369859 0)
(0.000179584 -0.00337228 0)
(0.00106749 -0.0030409 0)
(0.00187349 -0.00270777 0)
(0.002597 -0.00237602 0)
(0.0032382 -0.00204844 0)
(0.00379794 -0.00172754 0)
(0.00427771 -0.00141546 0)
(0.00467951 -0.001114 0)
(0.00500578 -0.000824598 0)
(0.00525932 -0.000548337 0)
(0.00544321 -0.000285983 0)
(0.00556071 -3.80085e-05 0)
(0.00561522 0.000195363 0)
(0.00561021 0.000414103 0)
(0.00554919 0.000618318 0)
(0.00543566 0.000808182 0)
(0.00527313 0.00098385 0)
(0.00506514 0.00114537 0)
(0.00481526 0.00129259 0)
(0.00452718 0.00142501 0)
(0.00420477 0.0015417 0)
(0.00385222 0.00164112 0)
(0.00347414 0.00172098 0)
(0.00307576 0.00177807 0)
(0.00266304 0.00180816 0)
(0.00224294 0.00180584 0)
(0.0018236 0.00176455 0)
(0.0014146 0.00167662 0)
(0.00102719 0.00153362 0)
(0.000674563 0.00132692 0)
(0.000372726 0.00104855 0)
(0.000143202 0.000692571 0)
(1.12458e-05 0.000256799 0)
(-7.21646e-06 0.000119436 0)
(-0.000132049 0.00045454 0)
(-0.000375023 0.000831136 0)
(-0.000721124 0.00120891 0)
(-0.0011552 0.00156237 0)
(-0.00166423 0.00187704 0)
(-0.00223615 0.0021466 0)
(-0.00285999 0.00237048 0)
(-0.00352612 0.00255188 0)
(-0.0042264 0.00269617 0)
(-0.00495414 0.00280977 0)
(-0.00570406 0.00289924 0)
(-0.00647209 0.00297077 0)
(-0.00725529 0.00302981 0)
(-0.00805158 0.00308095 0)
(-0.00885964 0.00312786 0)
(-0.0096787 0.00317331 0)
(-0.0105084 0.00321929 0)
(-0.0113486 0.00326709 0)
(-0.0121993 0.00331743 0)
(-0.0130607 0.00337059 0)
(-0.0139329 0.00342649 0)
(-0.0148158 0.00348478 0)
(-0.0157094 0.0035449 0)
(-0.0166135 0.00360617 0)
(-0.0175276 0.00366779 0)
(-0.0184512 0.00372892 0)
(-0.0193834 0.00378865 0)
(-0.0203232 0.00384608 0)
(-0.0212695 0.00390028 0)
(-0.0222209 0.00395033 0)
(-0.0231757 0.00399532 0)
(-0.0241323 0.00403437 0)
(-0.0250887 0.0040666 0)
(-0.0260429 0.00409119 0)
(-0.0269926 0.00410731 0)
(-0.0279356 0.00411419 0)
(-0.0288695 0.00411107 0)
(-0.0297917 0.00409723 0)
(-0.0306998 0.00407197 0)
(-0.0315911 0.00403462 0)
(-0.032463 0.00398452 0)
(-0.0333128 0.00392102 0)
(-0.0341379 0.00384348 0)
(-0.0349355 0.00375127 0)
(-0.0357028 0.00364376 0)
(-0.0364371 0.00352033 0)
(-0.0371355 0.00338035 0)
(-0.0377951 0.00322322 0)
(-0.0384131 0.00304835 0)
(-0.0389864 0.0028552 0)
(-0.039512 0.00264324 0)
(-0.0399867 0.00241206 0)
(-0.0404074 0.0021613 0)
(-0.0407709 0.00189073 0)
(-0.0410739 0.00160026 0)
(-0.041313 0.00128996 0)
(-0.0414851 0.000960121 0)
(-0.0415868 0.000611229 0)
(-0.0416149 0.000244034 0)
(-0.0415664 -0.000140453 0)
(-0.0414382 -0.000540964 0)
(-0.0412276 -0.000955854 0)
(-0.040932 -0.0013832 0)
(-0.0405494 -0.00182074 0)
(-0.0400777 -0.00226592 0)
(-0.0395157 -0.00271587 0)
(-0.0388624 -0.0031674 0)
(-0.0381174 -0.00361708 0)
(-0.0372811 -0.00406125 0)
(-0.0363543 -0.00449603 0)
(-0.0353387 -0.00491743 0)
(-0.0342367 -0.00532137 0)
(-0.0330516 -0.00570373 0)
(-0.0317873 -0.00606045 0)
(-0.0304488 -0.0063876 0)
(-0.0290417 -0.00668145 0)
(-0.0275725 -0.00693851 0)
(-0.0260484 -0.00715569 0)
(-0.0244774 -0.00733028 0)
(-0.0228681 -0.00746009 0)
(-0.0212296 -0.00754344 0)
(-0.0195715 -0.00757929 0)
(-0.0179036 -0.00756719 0)
(-0.016236 -0.00750736 0)
(-0.0145789 -0.00740069 0)
(-0.0129422 -0.0072487 0)
(-0.0113358 -0.00705355 0)
(-0.00976907 -0.00681795 0)
(-0.00825084 -0.00654516 0)
(-0.00678933 -0.00623887 0)
(-0.00539201 -0.00590315 0)
(-0.00406548 -0.00554232 0)
(-0.0028154 -0.00516087 0)
(-0.00164649 -0.0047634 0)
(-0.000562429 -0.00435445 0)
(0.000434067 -0.00393842 0)
(0.00134126 -0.00351954 0)
(0.00215836 -0.00310175 0)
(0.00288546 -0.00268865 0)
(0.00352344 -0.0022834 0)
(0.00407386 -0.00188877 0)
(0.0045389 -0.00150706 0)
(0.00492126 -0.00114014 0)
(0.00522404 -0.000789433 0)
(0.00545064 -0.000455943 0)
(0.00560469 -0.000140317 0)
(0.00568995 0.000157115 0)
(0.00571026 0.00043627 0)
(0.00566949 0.000697237 0)
(0.00557151 0.000940186 0)
(0.00542018 0.00116527 0)
(0.00521934 0.0013725 0)
(0.00497288 0.00156165 0)
(0.0046848 0.00173208 0)
(0.00435924 0.0018826 0)
(0.00400068 0.00201131 0)
(0.003614 0.00211539 0)
(0.00320469 0.00219095 0)
(0.00277902 0.00223288 0)
(0.00234423 0.00223468 0)
(0.00190884 0.00218844 0)
(0.00148285 0.00208486 0)
(0.00107811 0.00191353 0)
(0.000708657 0.00166331 0)
(0.000391655 0.00132299 0)
(0.000150287 0.000882193 0)
(1.16877e-05 0.000332455 0)
(-9.35592e-06 0.00019298 0)
(-0.00016075 0.000660353 0)
(-0.00045033 0.00115349 0)
(-0.00085766 0.00163214 0)
(-0.00136302 0.00207144 0)
(-0.00195024 0.00245804 0)
(-0.00260504 0.00278701 0)
(-0.00331488 0.00305937 0)
(-0.00406912 0.00327996 0)
(-0.00485895 0.00345578 0)
(-0.00567732 0.00359477 0)
(-0.00651873 0.00370488 0)
(-0.00737901 0.00379349 0)
(-0.00825515 0.00386709 0)
(-0.00914505 0.00393106 0)
(-0.0100473 0.00398971 0)
(-0.0109612 0.0040463 0)
(-0.0118861 0.00410311 0)
(-0.0128219 0.00416166 0)
(-0.0137684 0.00422277 0)
(-0.0147257 0.00428671 0)
(-0.0156937 0.00435335 0)
(-0.0166721 0.00442225 0)
(-0.0176606 0.0044927 0)
(-0.0186588 0.00456386 0)
(-0.019666 0.00463474 0)
(-0.0206814 0.00470429 0)
(-0.0217038 0.00477141 0)
(-0.0227319 0.00483499 0)
(-0.0237643 0.0048939 0)
(-0.0247994 0.00494703 0)
(-0.0258351 0.00499329 0)
(-0.0268697 0.00503164 0)
(-0.0279007 0.00506105 0)
(-0.0289261 0.00508057 0)
(-0.0299433 0.00508927 0)
(-0.03095 0.00508629 0)
(-0.0319437 0.0050708 0)
(-0.0329218 0.00504203 0)
(-0.0338818 0.00499926 0)
(-0.0348212 0.00494177 0)
(-0.0357374 0.00486891 0)
(-0.036628 0.00478001 0)
(-0.0374904 0.00467444 0)
(-0.0383222 0.00455154 0)
(-0.039121 0.00441067 0)
(-0.0398843 0.00425119 0)