/*--------------------------------*- C++ -*----------------------------------*\
| =========                 |                                                 |
| \\      /  F ield         | OpenFOAM: The Open Source CFD Toolbox           |
|  \\    /   O peration     | Version:  2406                                  |
|   \\  /    A nd           | Website:  www.openfoam.com                      |
|    \\/     M anipulation  |                                                 |
\*---------------------------------------------------------------------------*/
FoamFile
{
    version     2.0;
    format      ascii;
    arch        "LSB;label=32;scalar=64";
    class       volScalarField;
    location    "89.5";
    object      p;
}
// * * * * * * * * * * * * * * * * * * * * * * * * * * * * * * * * * * * * * //

dimensions      [0 2 -2 0 0 0 0];

internalField   nonuniform List<scalar> 
4096
(
7.94076e-09
2.44484e-05
2.8157e-05
3.88079e-06
-5.01123e-05
-0.000128589
-0.000223327
-0.000327527
-0.000438004
-0.000555571
-0.000684465
-0.000830763
-0.00100134
-0.00120257
-0.00144001
-0.00171833
-0.00204142
-0.00241203
-0.0028311
-0.00329684
-0.00380308
-0.00433834
-0.00488454
-0.00541666
-0.0059035
-0.00630927
-0.00659616
-0.00672749
-0.00667093
-0.00640164
-0.00590505
-0.00517929
-0.00423685
-0.00310442
-0.0018196
-0.000453876
0.000910954
0.00218054
0.00325397
0.00403272
0.00443237
0.00439639
0.00390796
0.00298646
0.00170934
0.000184865
-0.00146052
-0.00309266
-0.00460116
-0.00590882
-0.00697179
-0.00778406
-0.00836521
-0.00875224
-0.00898916
-0.0091185
-0.00917629
-0.00919007
-0.00917903
-0.00915524
-0.00912514
-0.00909176
-0.00905824
-0.00902943
-2.16624e-05
3.30731e-06
5.55824e-06
-1.97011e-05
-7.22007e-05
-0.000146483
-0.000235024
-0.00033185
-0.000434428
-0.000543824
-0.000664057
-0.000800939
-0.000960543
-0.00114848
-0.00136978
-0.00162876
-0.00192972
-0.00227599
-0.00266945
-0.00310933
-0.00359089
-0.00410479
-0.0046367
-0.00516673
-0.00566837
-0.00610812
-0.00644691
-0.0066436
-0.00665974
-0.0064644
-0.00603863
-0.00537761
-0.00448817
-0.00338698
-0.00213302
-0.000790655
0.000560125
0.00182397
0.00289798
0.00368124
0.0040869
0.0040563
0.00357109
0.00265439
0.00136386
-0.000166909
-0.00181272
-0.00342728
-0.00489824
-0.00614565
-0.00714227
-0.0078803
-0.00838906
-0.0087174
-0.00891532
-0.00902497
-0.00907827
-0.00909769
-0.00909771
-0.00908713
-0.00907057
-0.00904962
-0.00902427
-0.00899579
-2.99719e-05
-1.71915e-06
-2.81797e-07
-2.87587e-05
-8.38981e-05
-0.000158174
-0.000243158
-0.000332932
-0.000425679
-0.000523391
-0.000630905
-0.000754275
-0.000899656
-0.00107216
-0.00127751
-0.00152066
-0.00180738
-0.00214358
-0.00253473
-0.00298501
-0.00349559
-0.0040615
-0.00466825
-0.00529043
-0.00589314
-0.00643508
-0.00687201
-0.00716035
-0.00726066
-0.00714111
-0.00678034
-0.00616939
-0.00531416
-0.00424572
-0.00301589
-0.00168577
-0.000334498
0.000943762
0.0020458
0.00286878
0.00332217
0.00334176
0.00290233
0.00202312
0.000770715
-0.00073559
-0.00237991
-0.0039784
-0.00542665
-0.00663428
-0.00755769
-0.00822329
-0.00865152
-0.00889832
-0.00902323
-0.00907463
-0.00908662
-0.00908032
-0.00906735
-0.00905301
-0.00903859
-0.00902226
-0.00899883
-0.00896581
-1.91528e-05
1.19931e-05
1.08566e-05
-2.4385e-05
-8.65572e-05
-0.000164596
-0.000248073
-0.000330868
-0.000412053
-0.000495203
-0.00058696
-0.00069445
-0.000825355
-0.000986157
-0.00118427
-0.00142868
-0.0017307
-0.00210341
-0.00255948
-0.00310694
-0.00374483
-0.0044608
-0.00523068
-0.00601969
-0.00678497
-0.00747922
-0.00805485
-0.00846745
-0.00867819
-0.00865507
-0.00837444
-0.0078257
-0.00702081
-0.0059986
-0.0047991
-0.00347945
-0.0021154
-0.000797619
0.000372976
0.00129344
0.00186958
0.00202927
0.00173579
0.000997074
-0.000128773
-0.00153608
-0.00309297
-0.00464065
-0.00605643
-0.00723157
-0.00812489
-0.00872043
-0.009075
-0.00924143
-0.00928376
-0.00925819
-0.00920527
-0.00914952
-0.00910255
-0.0090674
-0.0090422
-0.00902156
-0.00899524
-0.00895695
1.62619e-05
4.68653e-05
3.89139e-05
-7.77773e-06
-8.10318e-05
-0.000165482
-0.00024853
-0.00032448
-0.000393384
-0.000461803
-0.000539069
-0.000635531
-0.00076154
-0.000928587
-0.00115088
-0.00144629
-0.00183518
-0.00233643
-0.00296209
-0.00371305
-0.00457699
-0.00552861
-0.00653183
-0.00754264
-0.00851238
-0.00939142
-0.0101324
-0.0106927
-0.0110356
-0.0111299
-0.0109515
-0.0104922
-0.00977049
-0.0088174
-0.00766761
-0.00637154
-0.00499699
-0.00362688
-0.00235563
-0.00128278
-0.000504061
-9.97618e-05
-0.000121085
-0.000578281
-0.00143397
-0.0026028
-0.00396088
-0.00536164
-0.00666936
-0.00777321
-0.00861349
-0.00917701
-0.00948676
-0.00960362
-0.00959048
-0.00950579
-0.00939508
-0.00928802
-0.00919963
-0.00913421
-0.00908936
-0.00905784
-0.00902614
-0.00898505
8.24849e-05
0.000107901
8.81006e-05
2.53036e-05
-6.22596e-05
-0.000154919
-0.000239023
-0.000308934
-0.000367855
-0.000427246
-0.000500113
-0.000602291
-0.000751795
-0.000970122
-0.00128279
-0.00171713
-0.00229709
-0.00303724
-0.0039384
-0.0049864
-0.00615323
-0.00739998
-0.00868055
-0.00994503
-0.0111427
-0.0122245
-0.0131457
-0.0138672
-0.0143558
-0.0145832
-0.0145284
-0.0141862
-0.0135751
-0.0127179
-0.0116424
-0.0103911
-0.00902105
-0.00760367
-0.00622246
-0.00496879
-0.00393508
-0.0032049
-0.00284181
-0.00287807
-0.00330538
-0.00406917
-0.00507205
-0.00618741
-0.00728289
-0.00824335
-0.0089934
-0.00950468
-0.00978653
-0.00988168
-0.00984715
-0.00973677
-0.00959528
-0.00945496
-0.0093346
-0.00924188
-0.00917651
-0.00913214
-0.00909491
-0.00905412
0.000187763
0.000202693
0.000166135
8.34545e-05
-2.05243e-05
-0.000122462
-0.000209448
-0.000277761
-0.000336275
-0.000401118
-0.00049341
-0.000638935
-0.000868158
-0.00121552
-0.00171592
-0.00239834
-0.00327921
-0.00435825
-0.00561788
-0.00702589
-0.00853965
-0.01011
-0.0116842
-0.0132098
-0.0146364
-0.015918
-0.0170144
-0.0178914
-0.0185215
-0.0188832
-0.0189627
-0.0187571
-0.0182759
-0.0175351
-0.0165586
-0.0153803
-0.0140453
-0.0126106
-0.0111439
-0.00972211
-0.00842732
-0.00734044
-0.00653254
-0.00605407
-0.00592439
-0.00612667
-0.00660511
-0.00726899
-0.00800776
-0.00871228
-0.00929711
-0.00971422
-0.00995446
-0.0100394
-0.0100042
-0.00989711
-0.00975482
-0.00960771
-0.00947528
-0.00936831
-0.00928983
-0.0092363
-0.00919612
-0.00915885
0.000341888
0.000340755
0.00028329
0.00017808
5.62407e-05
-5.8385e-05
-0.000151607
-0.000228597
-0.000304289
-0.000403653
-0.000559738
-0.000812444
-0.00120616
-0.00178445
-0.00258223
-0.00361812
-0.00489039
-0.00637753
-0.00804229
-0.00983633
-0.011705
-0.0135918
-0.0154413
-0.0172017
-0.0188264
-0.0202752
-0.0215142
-0.0225164
-0.0232616
-0.0237373
-0.0239382
-0.0238637
-0.0235149
-0.0229017
-0.0220439
-0.0209687
-0.0197101
-0.0183097
-0.0168171
-0.01529
-0.0137926
-0.012393
-0.0111586
-0.0101486
-0.00940602
-0.00894884
-0.00876516
-0.00881434
-0.00902954
-0.00932878
-0.00963182
-0.00987678
-0.0100299
-0.0100855
-0.0100578
-0.00997069
-0.00984835
-0.00971829
-0.00959548
-0.00949161
-0.00941236
-0.00935738
-0.00931873
-0.00928757
0.00055453
0.000532274
0.000450781
0.0003213
0.0001807
5.16921e-05
-5.98865e-05
-0.000164873
-0.000289087
-0.000470791
-0.000758243
-0.00120581
-0.00186668
-0.00278299
-0.00397677
-0.00544559
-0.00716406
-0.00908855
-0.0111634
-0.0133272
-0.0155175
-0.0176751
-0.0197463
-0.0216841
-0.0234494
-0.0250101
-0.026341
-0.027423
-0.0282443
-0.0288005
-0.0290935
-0.0291252
-0.0288915
-0.0283987
-0.0276647
-0.0267111
-0.0255624
-0.0242471
-0.0227979
-0.0212527
-0.0196544
-0.0180508
-0.0164932
-0.0150344
-0.0137243
-0.0126046
-0.011703
-0.0110282
-0.0105689
-0.0102956
-0.0101612
-0.0101111
-0.0100946
-0.0100749
-0.0100328
-0.00996546
-0.00987648
-0.00977821
-0.00968222
-0.00959768
-0.00953089
-0.0094836
-0.00945144
-0.00942786
0.000832533
0.000785333
0.000676763
0.00052479
0.000363215
0.00020965
6.2076e-05
-0.000101974
-0.000322706
-0.000654364
-0.00116006
-0.00190278
-0.00293317
-0.00427836
-0.00593672
-0.00787932
-0.0100557
-0.0124019
-0.0148482
-0.0173255
-0.0197696
-0.022124
-0.0243417
-0.0263847
-0.0282236
-0.0298363
-0.0312069
-0.0323244
-0.033184
-0.0337869
-0.0341387
-0.0342433
-0.0340975
-0.0337075
-0.0330885
-0.0322573
-0.0312314
-0.0300298
-0.0286726
-0.027182
-0.0255819
-0.0238989
-0.0221629
-0.0204077
-0.018672
-0.0169989
-0.0154349
-0.0140266
-0.0128158
-0.0118333
-0.0110931
-0.0105833
-0.0102653
-0.0100833
-0.00998036
-0.00991177
-0.00985374
-0.00979426
-0.00973595
-0.00968267
-0.00963932
-0.00960792
-0.00958638
-0.00957061
0.00117668
0.00110102
0.000967328
0.000792423
0.000603512
0.000409985
0.00019793
-7.05259e-05
-0.000452238
-0.00101674
-0.00183599
-0.00296996
-0.00445278
-0.0062855
-0.0084368
-0.0108497
-0.0134517
-0.0161639
-0.0189092
-0.0216179
-0.0242305
-0.0266992
-0.0289876
-0.0310689
-0.0329245
-0.0345421
-0.0359139
-0.0370358
-0.0379079
-0.0385341
-0.0389206
-0.0390728
-0.038992
-0.038685
-0.0381633
-0.0374398
-0.0365277
-0.0354403
-0.0341903
-0.0327897
-0.0312494
-0.0295798
-0.0277915
-0.0258974
-0.0239153
-0.0218714
-0.0198053
-0.0177725
-0.0158455
-0.0141072
-0.012638
-0.0114977
-0.0107033
-0.0102184
-0.00996532
-0.00985281
-0.00980606
-0.00978375
-0.0097668
-0.00975163
-0.00973877
-0.00972898
-0.00972071
-0.00971189
0.00157822
0.00147442
0.00131584
0.00111664
0.000888967
0.000631634
0.00031485
-0.000116604
-0.000735478
-0.00162091
-0.00284236
-0.00444274
-0.00642808
-0.00876672
-0.0113963
-0.0142356
-0.0171962
-0.0201925
-0.0231481
-0.026
-0.0286994
-0.031211
-0.0335106
-0.035583
-0.0374193
-0.039015
-0.0403684
-0.0414801
-0.0423529
-0.0429915
-0.0434018
-0.043589
-0.0435574
-0.0433143
-0.0428692
-0.0422323
-0.041414
-0.0404243
-0.0392718
-0.037963
-0.036502
-0.0348899
-0.0331251
-0.0312047
-0.0291268
-0.0268959
-0.0245289
-0.0220647
-0.0195715
-0.0171513
-0.0149328
-0.0130494
-0.0116041
-0.0106318
-0.0100824
-0.00983957
-0.009769
-0.00977005
-0.00979152
-0.0098155
-0.00983599
-0.00985048
-0.0098564
-0.00985318
0.002016
0.00188688
0.00170687
0.00147394
0.00118963
0.000835609
0.000363791
-0.000297716
-0.00123255
-0.00251899
-0.00421021
-0.00631998
-0.00881909
-0.0116416
-0.0146984
-0.0178911
-0.0211246
-0.024315
-0.0273946
-0.0303131
-0.0330357
-0.0355406
-0.0378154
-0.0398545
-0.0416563
-0.0432215
-0.044552
-0.0456509
-0.046522
-0.0471699
-0.0475993
-0.0478151
-0.0478233
-0.0476308
-0.0472453
-0.0466751
-0.0459289
-0.0450147
-0.0439392
-0.0427066
-0.0413183
-0.0397712
-0.0380581
-0.0361679
-0.0340869
-0.0318019
-0.0293074
-0.0266143
-0.0237636
-0.020839
-0.0179751
-0.0153487
-0.013146
-0.0115067
-0.0104688
-0.0099495
-0.0097785
-0.00977602
-0.00982803
-0.00988822
-0.00994115
-0.00997984
-0.00999959
-0.0100007
0.00245337
0.00230423
0.00209771
0.00182213
0.00145754
0.000966772
0.000284093
-0.000675001
-0.00199593
-0.0037431
-0.00594101
-0.00856662
-0.0115533
-0.0148051
-0.0182137
-0.0216734
-0.0250912
-0.0283936
-0.031527
-0.0344564
-0.0371618
-0.0396333
-0.0418682
-0.0438675
-0.045634
-0.0471713
-0.0484831
-0.049573
-0.0504451
-0.0511032
-0.051551
-0.0517929
-0.051835
-0.0516834
-0.0513444
-0.0508251
-0.0501325
-0.0492736
-0.048254
-0.047077
-0.0457434
-0.0442497
-0.0425877
-0.0407438
-0.0386994
-0.0364328
-0.0339228
-0.0311569
-0.0281429
-0.0249269
-0.0216113
-0.0183661
-0.0154186
-0.0130056
-0.0112923
-0.0102997
-0.00989053
-0.00982701
-0.00989279
-0.00998339
-0.0100656
-0.0101268
-0.0101594
-0.0101645
0.00284242
0.00267554
0.0024382
0.00210467
0.00163065
0.000959836
1.16534e-05
-0.00130369
-0.00306182
-0.00530096
-0.00800876
-0.0111221
-0.0145406
-0.0181461
-0.021821
-0.0254616
-0.0289857
-0.0323352
-0.0354732
-0.0383801
-0.0410485
-0.0434778
-0.0456717
-0.047635
-0.049373
-0.05089
-0.05219
-0.0532768
-0.0541536
-0.0548236
-0.05529
-0.0555564
-0.0556282
-0.0555105
-0.0552086
-0.0547285
-0.0540762
-0.0532573
-0.0522767
-0.0511375
-0.0498407
-0.0483836
-0.0467593
-0.0449557
-0.0429548
-0.0407328
-0.0382621
-0.0355159
-0.0324767
-0.0291521
-0.0255963
-0.0219344
-0.0183773
-0.0152057
-0.0127027
-0.01104
-0.0101961
-0.00995381
-0.00999981
-0.0101121
-0.0102196
-0.0103019
-0.0103467
-0.0103563
0.00312099
0.00293598
0.00266293
0.00225372
0.00163989
0.000748139
-0.000511505
-0.0022245
-0.00444513
-0.0071768
-0.0103659
-0.0139117
-0.0176875
-0.0215627
-0.0254202
-0.0291667
-0.032736
-0.0360876
-0.0392011
-0.0420699
-0.0446959
-0.0470848
-0.0492438
-0.0511795
-0.0528974
-0.054402
-0.055697
-0.0567853
-0.0576697
-0.0583529
-0.0588375
-0.0591267
-0.0592246
-0.0591357
-0.0588645
-0.0584158
-0.0577946
-0.0570055
-0.0560526
-0.0549388
-0.0536651
-0.0522303
-0.0506293
-0.0488529
-0.0468863
-0.0447087
-0.0422927
-0.0396065
-0.0366185
-0.0333082
-0.029685
-0.0258154
-0.0218539
-0.0180602
-0.0147729
-0.0123107
-0.0108241
-0.0102156
-0.0101606
-0.0102821
-0.0104114
-0.0105138
-0.0105722
-0.0105883
0.00322124
0.00302056
0.00270378
0.00220027
0.00141899
0.00027339
-0.0013286
-0.00345803
-0.00613897
-0.00933502
-0.0129518
-0.0168573
-0.0209081
-0.0249711
-0.0289379
-0.0327308
-0.0363024
-0.0396291
-0.0427043
-0.0455311
-0.0481176
-0.0504728
-0.0526051
-0.0545214
-0.0562267
-0.057725
-0.0590193
-0.060112
-0.0610055
-0.0617018
-0.0622034
-0.0625131
-0.0626341
-0.0625701
-0.0623249
-0.0619024
-0.0613065
-0.0605411
-0.0596094
-0.0585138
-0.0572554
-0.0558337
-0.0542454
-0.0524843
-0.0505396
-0.0483952
-0.0460281
-0.0434085
-0.0405008
-0.0372694
-0.0336915
-0.029781
-0.025623
-0.0214117
-0.0174669
-0.0141879
-0.011908
-0.0107165
-0.0103996
-0.0104989
-0.0106466
-0.0107703
-0.0108456
-0.0108716
0.00308511
0.00286724
0.002498
0.00188371
0.000913921
-0.000506026
-0.0024623
-0.00500301
-0.0081169
-0.0117261
-0.0157003
-0.0198854
-0.0241306
-0.0283085
-0.0323254
-0.0361222
-0.039669
-0.0429571
-0.04599
-0.0487773
-0.0513304
-0.0536592
-0.0557721
-0.0576752
-0.059373
-0.0608687
-0.0621646
-0.0632628
-0.0641652
-0.0648737
-0.0653906
-0.0657182
-0.0658593
-0.0658169
-0.0655941
-0.0651942
-0.0646202
-0.063875
-0.0629612
-0.0618806
-0.060634
-0.0592213
-0.0576405
-0.0558875
-0.0539551
-0.0518319
-0.049501
-0.046938
-0.0441105
-0.040979
-0.0375036
-0.0336603
-0.0294719
-0.0250515
-0.0206484
-0.0166574
-0.0135334
-0.0115832
-0.0107866
-0.0107653
-0.0109321
-0.0110775
-0.0111756
-0.0112162
0.00266295
0.00242573
0.00199673
0.0012599
8.99977e-05
-0.00160986
-0.0039126
-0.00683803
-0.0103369
-0.0142927
-0.0185469
-0.0229322
-0.0272989
-0.0315318
-0.0355547
-0.0393268
-0.0428339
-0.0460781
-0.0490701
-0.0518229
-0.0543486
-0.0566571
-0.0587558
-0.0606498
-0.0623428
-0.0638373
-0.0651353
-0.0662386
-0.0671489
-0.0678681
-0.0683981
-0.0687411
-0.0688995
-0.0688759
-0.0686727
-0.0682927
-0.0677381
-0.0670113
-0.0661139
-0.0650473
-0.0638121
-0.0624079
-0.0608335
-0.0590861
-0.0571611
-0.0550512
-0.0527447
-0.0502241
-0.0474636
-0.0444273
-0.0410709
-0.0373495
-0.0332401
-0.0287815
-0.0241306
-0.0196132
-0.015712
-0.0129149
-0.0114397
-0.0111008
-0.0112785
-0.0114447
-0.0115704
-0.0116322
0.00192329
0.00166463
0.00117125
0.000306527
-0.00106424
-0.00303449
-0.0056582
-0.00892465
-0.012747
-0.0169756
-0.0214323
-0.025945
-0.030372
-0.0346135
-0.0386116
-0.0423418
-0.0458019
-0.0490021
-0.0519566
-0.0546797
-0.0571829
-0.0594752
-0.0615626
-0.0634493
-0.0651383
-0.0666317
-0.0679313
-0.0690386
-0.0699553
-0.0706832
-0.0712242
-0.0715803
-0.0717535
-0.0717461
-0.0715602
-0.0711978
-0.0706609
-0.0699511
-0.0690696
-0.0680172
-0.0667941
-0.0653998
-0.0638332
-0.0620924
-0.0601742
-0.0580741
-0.0557848
-0.0532948
-0.0505856
-0.047629
-0.0443844
-0.0408006
-0.0368277
-0.032448
-0.0277294
-0.0228962
-0.0183782
-0.0147491
-0.0124694
-0.0115906
-0.0116858
-0.0118858
-0.012041
-0.0121318
0.000856421
0.000575094
1.62126e-05
-0.000974839
-0.0025366
-0.00475426
-0.00766008
-0.0112123
-0.0152897
-0.0197172
-0.0243049
-0.0288827
-0.0333212
-0.0375377
-0.0414908
-0.0451695
-0.0485805
-0.0517384
-0.054659
-0.057356
-0.0598399
-0.062118
-0.0641953
-0.0660752
-0.06776
-0.0692515
-0.0705515
-0.0716614
-0.0725829
-0.0733177
-0.0738677
-0.0742347
-0.0744205
-0.0744271
-0.0742563
-0.0739098
-0.073389
-0.0726952
-0.0718292
-0.0707913
-0.0695815
-0.0681991
-0.0666429
-0.0649114
-0.0630022
-0.0609124
-0.0586376
-0.0561709
-0.0535005
-0.0506065
-0.0474566
-0.044003
-0.0401857
-0.035951
-0.0312957
-0.0263387
-0.0214072
-0.0170624
-0.0139388
-0.0123621
-0.0121546
-0.0124247
-0.0126019
-0.0127306
-0.000525238
-0.000828509
-0.00145036
-0.00255959
-0.00429347
-0.00672551
-0.00986597
-0.0136432
-0.0179072
-0.0224646
-0.027121
-0.0317136
-0.0361271
-0.0402953
-0.0441913
-0.0478142
-0.0511762
-0.0542941
-0.0571836
-0.0598569
-0.062323
-0.0645877
-0.066655
-0.0685276
-0.0702073
-0.0716959
-0.0729949
-0.074106
-0.0750308
-0.0757709
-0.0763282
-0.0767042
-0.0769008
-0.0769195
-0.076762
-0.0764296
-0.0759235
-0.0752447
-0.0743936
-0.0733705
-0.0721749
-0.0708062
-0.0692631
-0.0675441
-0.0656472
-0.0635703
-0.0613108
-0.0588649
-0.0562258
-0.053381
-0.0503076
-0.0469666
-0.0433
-0.0392374
-0.0347263
-0.0297959
-0.0246529
-0.0197734
-0.0158579
-0.0134974
-0.0127578
-0.0130712
-0.0132728
-0.0134419
-0.00218815
-0.00251035
-0.00318946
-0.00440346
-0.00628425
-0.00889183
-0.0122157
-0.0161572
-0.0205438
-0.0251709
-0.029845
-0.0344135
-0.0387762
-0.0428814
-0.0467138
-0.0502794
-0.0535938
-0.0566738
-0.059534
-0.0621849
-0.0646336
-0.0668848
-0.0689415
-0.0708058
-0.0724794
-0.073964
-0.075261
-0.0763721
-0.0772989
-0.078043
-0.078606
-0.0789896
-0.0791952
-0.0792244
-0.0790785
-0.0787587
-0.078266
-0.077601
-0.0767643
-0.0757558
-0.0745751
-0.0732214
-0.0716935
-0.0699898
-0.0681086
-0.0660482
-0.0638067
-0.0613823
-0.0587715
-0.0559676
-0.0529561
-0.0497088
-0.0461765
-0.0422871
-0.0379605
-0.033159
-0.0279768
-0.0227646
-0.0181898
-0.0150287
-0.0136417
-0.0138084
-0.0140782
-0.0142833
-0.00408123
-0.00441811
-0.00514606
-0.00644791
-0.0084469
-0.0111894
-0.0146458
-0.0186951
-0.0231483
-0.0277952
-0.0324473
-0.0369639
-0.0412587
-0.0452926
-0.0490587
-0.0525675
-0.0558359
-0.0588797
-0.0617117
-0.0643406
-0.0667718
-0.0690089
-0.0710541
-0.0729093
-0.0745759
-0.0760555
-0.0773496
-0.0784597
-0.0793875
-0.0801344
-0.080702
-0.0810918
-0.0813052
-0.0813434
-0.0812076
-0.080899
-0.0804183
-0.0797662
-0.078943
-0.0779487
-0.0767829
-0.0754449
-0.0739335
-0.0722474
-0.0703848
-0.0683442
-0.0661242
-0.0637237
-0.0611414
-0.0583747
-0.0554157
-0.0522462
-0.048829
-0.0451
-0.0409698
-0.0363566
-0.0312643
-0.0259096
-0.0208575
-0.0169629
-0.0148889
-0.0146352
-0.0150602
-0.0152763
-0.00614181
-0.00648802
-0.00725473
-0.00862591
-0.0107137
-0.0135519
-0.0170941
-0.0212016
-0.0256749
-0.0303027
-0.0349041
-0.0393501
-0.0435671
-0.0475258
-0.0512255
-0.0546791
-0.0579031
-0.060912
-0.0637165
-0.0663233
-0.0687366
-0.070959
-0.0729921
-0.0748374
-0.0764964
-0.0779703
-0.0792608
-0.0803693
-0.0812972
-0.0820461
-0.0826173
-0.0830123
-0.0832321
-0.0832781
-0.0831512
-0.0828524
-0.0823826
-0.0817421
-0.0809315
-0.0799507
-0.0787995
-0.0774773
-0.0759831
-0.0743157
-0.0724737
-0.0704556
-0.0682602
-0.0658868
-0.0633353
-0.0606053
-0.057694
-0.0545915
-0.0512724
-0.0476855
-0.0437459
-0.0393486
-0.0344319
-0.0290925
-0.0237571
-0.0192576
-0.0164804
-0.0156463
-0.0162185
-0.016444
-0.00830128
-0.00865046
-0.00944522
-0.0108674
-0.0130162
-0.0159142
-0.0195016
-0.0236266
-0.0280837
-0.0326641
-0.0371953
-0.0415597
-0.0456944
-0.0495776
-0.0532125
-0.0566129
-0.0597944
-0.0627696
-0.0655469
-0.0681316
-0.0705267
-0.0727339
-0.0747545
-0.0765895
-0.0782404
-0.0797084
-0.0809949
-0.0821012
-0.0830288
-0.0837791
-0.0843531
-0.0847522
-0.0849776
-0.0850302
-0.084911
-0.0846208
-0.0841605
-0.0835306
-0.0827315
-0.0817634
-0.080626
-0.0793192
-0.0778423
-0.0761941
-0.0743738
-0.0723799
-0.0702115
-0.0678681
-0.0653499
-0.0626581
-0.0597931
-0.0567513
-0.0535178
-0.0500554
-0.0462915
-0.0421166
-0.037425
-0.032219
-0.0267772
-0.0218278
-0.0183758
-0.0169674
-0.0175196
-0.017796
-0.0104903
-0.0108352
-0.0116475
-0.0131037
-0.0152888
-0.0182161
-0.0218153
-0.0259261
-0.0303407
-0.0348546
-0.0393043
-0.0435823
-0.0476343
-0.051444
-0.0550169
-0.0583668
-0.0615077
-0.0644502
-0.067201
-0.0697638
-0.0721406
-0.0743325
-0.0763404
-0.0781651
-0.0798079
-0.0812698
-0.0825521
-0.0836561
-0.0845831
-0.0853341
-0.0859104
-0.086313
-0.0865429
-0.0866011
-0.0864885
-0.0862059
-0.085754
-0.0851334
-0.0843446
-0.0833879
-0.0822635
-0.0809713
-0.0795109
-0.0778819
-0.0760833
-0.0741144
-0.0719744
-0.069663
-0.0671807
-0.0645294
-0.0617113
-0.0587275
-0.0555714
-0.0522191
-0.0486138
-0.0446542
-0.0402118
-0.0352181
-0.0298168
-0.024588
-0.0205667
-0.0186399
-0.0189221
-0.0193311
-0.0126425
-0.0129758
-0.0137959
-0.0152712
-0.0174719
-0.0204037
-0.023989
-0.0280625
-0.032417
-0.0368535
-0.0412168
-0.0454083
-0.0493803
-0.0531204
-0.0566351
-0.0599375
-0.0630399
-0.0659511
-0.0686762
-0.0712176
-0.0735765
-0.0757534
-0.0777488
-0.0795636
-0.0811984
-0.0826545
-0.0839328
-0.0850345
-0.0859606
-0.0867122
-0.0872902
-0.0876957
-0.0879294
-0.0879924
-0.0878853
-0.087609
-0.0871642
-0.0865517
-0.0857719
-0.0848255
-0.0837127
-0.0824339
-0.0809891
-0.0793782
-0.0776009
-0.0756568
-0.0735456
-0.0712672
-0.0688225
-0.0662136
-0.063444
-0.0605176
-0.0574344
-0.0541817
-0.0507193
-0.046961
-0.042774
-0.0380392
-0.0327934
-0.0274607
-0.0230325
-0.020621
-0.0204283
-0.0210465
-0.0146982
-0.0150141
-0.0158321
-0.0173138
-0.0195133
-0.0224306
-0.0259834
-0.0300045
-0.0342889
-0.0386436
-0.0429208
-0.0470291
-0.0509261
-0.0546017
-0.0580627
-0.0613211
-0.0643876
-0.0672693
-0.0699699
-0.0724908
-0.0748325
-0.0769952
-0.0789789
-0.0807842
-0.0824117
-0.0838624
-0.085137
-0.0862365
-0.0871619
-0.0879139
-0.0884934
-0.0889012
-0.0891381
-0.089205
-0.0891025
-0.0888314
-0.0883926
-0.0877867
-0.0870146
-0.0860769
-0.0849742
-0.0837073
-0.0822765
-0.0806824
-0.0789251
-0.0770048
-0.0749217
-0.0726763
-0.0702697
-0.0677044
-0.0649846
-0.0621161
-0.0591036
-0.0559436
-0.052611
-0.0490381
-0.0451002
-0.0406482
-0.0356419
-0.0303623
-0.025693
-0.0228331
-0.0221102
-0.0229368
-0.0166017
-0.016902
-0.0177066
-0.0191844
-0.0213697
-0.0242587
-0.0277666
-0.0317265
-0.0359369
-0.0402104
-0.0444055
-0.0484368
-0.0522654
-0.0558827
-0.0592951
-0.0625135
-0.0655471
-0.0684014
-0.0710792
-0.073581
-0.0759069
-0.0780564
-0.0800294
-0.0818262
-0.0834473
-0.0848933
-0.0861648
-0.0872626
-0.0881874
-0.0889399
-0.0895207
-0.0899305
-0.0901701
-0.0902401
-0.0901412
-0.0898743
-0.0894402
-0.0888396
-0.0880735
-0.0871429
-0.0860486
-0.0847916
-0.083373
-0.0817936
-0.0800543
-0.078156
-0.0760996
-0.073886
-0.0715169
-0.0689953
-0.0663259
-0.0635158
-0.0605728
-0.057501
-0.0542878
-0.0508844
-0.0471823
-0.0430227
-0.03831
-0.0332053
-0.028439
-0.0251951
-0.0240388
-0.0249966
-0.0183149
-0.0185901
-0.0193807
-0.0208452
-0.0230066
-0.0258581
-0.0293134
-0.033208
-0.0373457
-0.0415422
-0.0456621
-0.0496243
-0.0533924
-0.0569583
-0.0603279
-0.0635106
-0.0665145
-0.0693441
-0.0720013
-0.074486
-0.0767975
-0.0789354
-0.0808992
-0.0826889
-0.0843047
-0.085747
-0.0870162
-0.0881129
-0.0890376
-0.0897907
-0.0903728
-0.0907844
-0.0910261
-0.0910986
-0.0910025
-0.0907387
-0.0903079
-0.0897111
-0.0889494
-0.088024
-0.086936
-0.0856868
-0.084278
-0.0827109
-0.0809872
-0.0791083
-0.077076
-0.074892
-0.0725587
-0.0700796
-0.0674599
-0.0647078
-0.0618335
-0.0588463
-0.0557445
-0.0524966
-0.0490142
-0.0451446
-0.0407546
-0.0359102
-0.0311743
-0.0276626
-0.0261997
-0.0271929
-0.0198092
-0.020046
-0.0208216
-0.0222664
-0.0243983
-0.027207
-0.0306052
-0.0344335
-0.0385033
-0.0426289
-0.0466823
-0.050585
-0.0543015
-0.0578237
-0.0611565
-0.0643084
-0.0672864
-0.0700944
-0.0727334
-0.0752032
-0.0775026
-0.0796307
-0.081587
-0.0833711
-0.0849831
-0.0864229
-0.0876909
-0.0887874
-0.0897126
-0.0904667
-0.0910503
-0.0914636
-0.0917072
-0.0917816
-0.0916874
-0.0914255
-0.0909967
-0.0904022
-0.089643
-0.0887207
-0.0876367
-0.0863929
-0.0849911
-0.0834334
-0.0817221
-0.0798595
-0.077848
-0.0756904
-0.0733898
-0.0709505
-0.0683786
-0.0656829
-0.0628755
-0.0599698
-0.0569727
-0.0538677
-0.0505883
-0.0469973
-0.042939
-0.0384096
-0.0338171
-0.030178
-0.0285138
-0.029453
-0.021064
-0.021255
-0.0220054
-0.0234272
-0.0255283
-0.0282913
-0.031631
-0.035393
-0.0394001
-0.0434617
-0.0474595
-0.0513135
-0.0549879
-0.0584745
-0.0617769
-0.064903
-0.0678592
-0.0706489
-0.0732729
-0.0757303
-0.07802
-0.0801406
-0.0820915
-0.083872
-0.0854817
-0.0869207
-0.0881888
-0.0892861
-0.0902126
-0.0909684
-0.0915538
-0.0919689
-0.0922141
-0.0922899
-0.0921968
-0.0919358
-0.0915077
-0.0909137
-0.0901551
-0.0892336
-0.0881511
-0.0869097
-0.0855118
-0.0839601
-0.0822575
-0.0804072
-0.0784125
-0.0762771
-0.0740051
-0.0716018
-0.069074
-0.0664316
-0.0636881
-0.0608601
-0.0579612
-0.0549881
-0.0518946
-0.0485641
-0.0448337
-0.0406487
-0.0362881
-0.0326479
-0.0308669
-0.0316854
-0.0220678
-0.0222071
-0.0229227
-0.0243153
-0.0263853
-0.0291053
-0.0323893
-0.0360879
-0.0400261
-0.0440346
-0.0479881
-0.051805
-0.0554477
-0.0589068
-0.0621854
-0.065291
-0.0682298
-0.071005
-0.0736171
-0.0760651
-0.0783477
-0.0804634
-0.0824112
-0.0841902
-0.0857999
-0.0872397
-0.0885095
-0.0896089
-0.0905378
-0.0912961
-0.0918838
-0.0923009
-0.0925476
-0.0926244
-0.0925318
-0.0922706
-0.0918417
-0.0912465
-0.0904865
-0.0895634
-0.0884795
-0.0872374
-0.0858399
-0.0842903
-0.0825922
-0.0807496
-0.0787668
-0.0766485
-0.0743999
-0.0720272
-0.0695385
-0.0669447
-0.0642606
-0.0615052
-0.0586978
-0.0558456
-0.052921
-0.0498296
-0.0464137
-0.0425829
-0.0385145
-0.0349718
-0.0331398
-0.0338027
-0.022818
-0.0229001
-0.0235735
-0.0249296
-0.0269634
-0.0296389
-0.0328693
-0.0365105
-0.0403921
-0.0443547
-0.0482712
-0.0520591
-0.0556784
-0.0591175
-0.0623787
-0.0654693
-0.0683953
-0.0711598
-0.0737633
-0.0762051
-0.0784836
-0.0805973
-0.0825447
-0.0843247
-0.0859365
-0.0873793
-0.0886525
-0.0897557
-0.0906884
-0.0914502
-0.0920409
-0.0924605
-0.0927088
-0.0927864
-0.0926936
-0.0924311
-0.0920001
-0.0914019
-0.0906381
-0.0897108
-0.0886225
-0.0873762
-0.0859752
-0.0844233
-0.0827249
-0.0808848
-0.0789083
-0.076801
-0.0745695
-0.072221
-0.0697649
-0.0672132
-0.0645822
-0.0618929
-0.0591692
-0.0564269
-0.0536541
-0.050779
-0.0476577
-0.0441757
-0.0404332
-0.0370597
-0.0352304
-0.0357304
-0.0233203
-0.023341
-0.0239655
-0.0252775
-0.0272679
-0.029895
-0.0330725
-0.036662
-0.0404978
-0.0444227
-0.0483099
-0.0520761
-0.0556789
-0.0591045
-0.0623543
-0.065435
-0.0683526
-0.0711103
-0.073709
-0.076148
-0.0784257
-0.0805404
-0.0824903
-0.0842741
-0.0858905
-0.0873387
-0.0886176
-0.0897265
-0.0906645
-0.0914311
-0.0920259
-0.0924484
-0.0926987
-0.0927769
-0.0926833
-0.0924187
-0.0919841
-0.091381
-0.0906112
-0.089677
-0.088581
-0.0873267
-0.0859179
-0.084359
-0.082655
-0.0808115
-0.0788348
-0.0767318
-0.0745099
-0.0721779
-0.0697464
-0.0672288
-0.0646429
-0.0620116
-0.0593623
-0.0567182
-0.0540805
-0.0513986
-0.0485472
-0.0453978
-0.0419935
-0.0388383
-0.0370596
-0.0374082
-0.023588
-0.0235455
-0.0241146
-0.0253736
-0.0273127
-0.0298863
-0.0330093
-0.0365491
-0.0403442
-0.0442379
-0.0481029
-0.0518543
-0.0554473
-0.0588657
-0.0621098
-0.0651855
-0.0680991
-0.0708541
-0.0734518
-0.0758915
-0.0781718
-0.0802907
-0.0822463
-0.0840369
-0.085661
-0.0871172
-0.0884043
-0.089521
-0.0904663
-0.0912393
-0.0918393
-0.0922658
-0.0925184
-0.0925972
-0.0925025
-0.0922348
-0.0917954
-0.0911856
-0.0904074
-0.0894633
-0.0883563
-0.08709
-0.0856689
-0.0840974
-0.0823821
-0.0805289
-0.078545
-0.0764384
-0.0742177
-0.0718933
-0.069477
-0.0669839
-0.0644333
-0.0618501
-0.0592646
-0.0567061
-0.0541867
-0.051675
-0.0490661
-0.0462257
-0.043156
-0.0402515
-0.0385677
-0.0387873
-0.0236409
-0.0235366
-0.0240437
-0.0252393
-0.0271177
-0.0296309
-0.0326949
-0.0361825
-0.0399368
-0.043802
-0.0476498
-0.0513923
-0.0549815
-0.0583987
-0.0616424
-0.0647181
-0.067632
-0.0703884
-0.0729888
-0.075433
-0.0777195
-0.0798461
-0.0818109
-0.0836118
-0.0852468
-0.0867141
-0.088012
-0.0891391
-0.090094
-0.0908753
-0.0914821
-0.0919136
-0.0921693
-0.092249
-0.0921528
-0.0918814
-0.0914358
-0.0908175
-0.0900285
-0.0890715
-0.0879498
-0.0866674
-0.0852289
-0.0836398
-0.0819068
-0.0800369
-0.0780382
-0.0759191
-0.0736907
-0.0713638
-0.0689517
-0.0664718
-0.0639449
-0.0613981
-0.0588644
-0.0563779
-0.0539598
-0.0515955
-0.0492007
-0.0466415
-0.0438919
-0.0412572
-0.0397096
-0.0398263
-0.0235044
-0.023344
-0.0237817
-0.0249014
-0.0267069
-0.0291499
-0.0321471
-0.0355761
-0.0392854
-0.0431211
-0.0469532
-0.0506904
-0.0542805
-0.0577015
-0.0609497
-0.06403
-0.0669486
-0.0697104
-0.0723175
-0.0747699
-0.0770663
-0.0792046
-0.0811823
-0.0829971
-0.0846465
-0.0861283
-0.0874405
-0.0885809
-0.0895479
-0.0903399
-0.0909554
-0.0913934
-0.0916531
-0.0917341
-0.0916365
-0.0913607
-0.0909078
-0.0902792
-0.089477
-0.0885041
-0.087364
-0.0860609
-0.0846
-0.0829874
-0.08123
-0.0793358
-0.0773138
-0.0751739
-0.0729276
-0.0705874
-0.0681674
-0.0656882
-0.0631709
-0.0606466
-0.0581509
-0.0557215
-0.0533879
-0.0511486
-0.048939
-0.0466317
-0.0441811
-0.0418253
-0.0404488
-0.0404885
-0.0232084
-0.0230012
-0.0233623
-0.0243918
-0.0261088
-0.0284683
-0.031387
-0.0347472
-0.0384032
-0.042204
-0.0460183
-0.0497507
-0.0533441
-0.0567723
-0.0600291
-0.0631181
-0.0660457
-0.0688169
-0.0714346
-0.0738993
-0.0762097
-0.0783636
-0.0803584
-0.0821912
-0.0838591
-0.0853593
-0.0866892
-0.0878464
-0.0888286
-0.0896338
-0.0902603
-0.0907065
-0.0909715
-0.0910547
-0.0909559
-0.0906753
-0.090214
-0.0895735
-0.0887558
-0.087764
-0.0866017
-0.0852734
-0.0837848
-0.0821423
-0.0803536
-0.0784272
-0.0763731
-0.0742022
-0.0719271
-0.0695617
-0.0671228
-0.0646311
-0.0621069
-0.0595904
-0.0571152
-0.0547267
-0.0524602
-0.0503242
-0.048272
-0.0461866
-0.0440112
-0.0419359
-0.0407533
-0.040739
-0.0227852
-0.0225443
-0.022822
-0.0237458
-0.0253565
-0.0276151
-0.0304393
-0.033716
-0.0373062
-0.0410621
-0.0448521
-0.0485765
-0.0521727
-0.0556097
-0.0588779
-0.0619793
-0.0649196
-0.0677043
-0.0703368
-0.0728179
-0.0751466
-0.0773207
-0.079337
-0.0811923
-0.0828831
-0.0844061
-0.085758
-0.0869358
-0.0879367
-0.0887583
-0.0893983
-0.089855
-0.0901271
-0.0902135
-0.0901139
-0.0898284
-0.089358
-0.088704
-0.0878686
-0.0868548
-0.0856666
-0.0843086
-0.0827868
-0.0811081
-0.0792806
-0.0773137
-0.075218
-0.0730056