/*--------------------------------*- C++ -*----------------------------------*\
| =========                 |                                                 |
| \\      /  F ield         | OpenFOAM: The Open Source CFD Toolbox           |
|  \\    /   O peration     | Version:  2406                                  |
|   \\  /    A nd           | Website:  www.openfoam.com                      |
|    \\/     M anipulation  |                                                 |
\*---------------------------------------------------------------------------*/
FoamFile
{
    version     2.0;
    format      ascii;
    arch        "LSB;label=32;scalar=64";
    class       volVectorField;
    location    "24.95";
    object      U_0;
}
// * * * * * * * * * * * * * * * * * * * * * * * * * * * * * * * * * * * * * //

dimensions      [0 1 -1 0 0 0 0];

internalField   nonuniform List<vector> 
14400
(
(-1.04071e-06 1.00586e-06 0)
(2.81661e-05 -1.20398e-05 0)
(0.000113078 -2.64992e-05 0)
(0.000244974 -3.65295e-05 0)
(0.000406988 -4.25564e-05 0)
(0.000585443 -4.51248e-05 0)
(0.000768757 -4.50881e-05 0)
(0.000948091 -4.31616e-05 0)
(0.00111708 -3.99461e-05 0)
(0.00127142 -3.59248e-05 0)
(0.0014085 -3.14798e-05 0)
(0.00152703 -2.69042e-05 0)
(0.00162672 -2.24146e-05 0)
(0.00170803 -1.81618e-05 0)
(0.0017719 -1.42389e-05 0)
(0.00181957 -1.06798e-05 0)
(0.00185243 -7.49849e-06 0)
(0.00187183 -4.8181e-06 0)
(0.00187856 -2.55272e-06 0)
(0.00187351 -2.46275e-07 0)
(0.00185734 2.00274e-06 0)
(0.00182981 4.25172e-06 0)
(0.0017903 6.65879e-06 0)
(0.00173764 9.36973e-06 0)
(0.00167009 1.25231e-05 0)
(0.00158536 1.62497e-05 0)
(0.00148067 2.06675e-05 0)
(0.00135276 2.58789e-05 0)
(0.00119802 3.19697e-05 0)
(0.0010125 3.90095e-05 0)
(0.000792008 4.70527e-05 0)
(0.000532175 5.61394e-05 0)
(0.000228529 6.62964e-05 0)
(-0.000123447 7.75362e-05 0)
(-0.000528233 8.98555e-05 0)
(-0.000990189 0.000103232 0)
(-0.00151345 0.000117622 0)
(-0.00210182 0.000132953 0)
(-0.00275863 0.000149125 0)
(-0.0034866 0.000166002 0)
(-0.00428768 0.000183415 0)
(-0.0051629 0.000201157 0)
(-0.00611221 0.000218985 0)
(-0.00713433 0.000236619 0)
(-0.0082266 0.000253748 0)
(-0.00938489 0.000270031 0)
(-0.0106035 0.000285102 0)
(-0.011875 0.000298574 0)
(-0.0131905 0.000310049 0)
(-0.0145392 0.000319121 0)
(-0.0159088 0.000325382 0)
(-0.0172854 0.000328433 0)
(-0.0186536 0.00032789 0)
(-0.0199969 0.000323388 0)
(-0.0212974 0.000314597 0)
(-0.0225366 0.00030122 0)
(-0.0236951 0.000283012 0)
(-0.0247532 0.000259779 0)
(-0.0256913 0.000231404 0)
(-0.0264897 0.000197833 0)
(-0.0271298 0.000159032 0)
(-0.0275943 0.000115561 0)
(-0.0278669 6.91254e-05 0)
(-0.0279307 1.85172e-05 0)
(-0.0277741 -3.76861e-05 0)
(-0.0273904 -9.68292e-05 0)
(-0.0267716 -0.000157595 0)
(-0.0259154 -0.000219217 0)
(-0.0248233 -0.000280564 0)
(-0.0235014 -0.00034038 0)
(-0.0219601 -0.000397308 0)
(-0.0202148 -0.000449936 0)
(-0.0182858 -0.00049685 0)
(-0.0161976 -0.000536688 0)
(-0.0139794 -0.000568208 0)
(-0.011664 -0.000590349 0)
(-0.00928715 -0.000602292 0)
(-0.00688696 -0.000603521 0)
(-0.0045026 -0.000593864 0)
(-0.00217327 -0.00057352 0)
(6.30334e-05 -0.000543074 0)
(0.00217075 -0.000503474 0)
(0.00411792 -0.000456001 0)
(0.00587721 -0.000402207 0)
(0.0074268 -0.00034384 0)
(0.008751 -0.000282748 0)
(0.0098406 -0.000220791 0)
(0.010693 -0.000159743 0)
(0.0113117 -0.000101193 0)
(0.0117063 -4.64284e-05 0)
(0.0118919 3.17168e-06 0)
(0.0118864 4.56717e-05 0)
(0.0117102 8.16635e-05 0)
(0.0113885 0.000112232 0)
(0.0109464 0.000136723 0)
(0.0104082 0.000154914 0)
(0.00979747 0.000167303 0)
(0.00913631 0.000174531 0)
(0.00844479 0.000177281 0)
(0.0077405 0.000176268 0)
(0.00703835 0.000172202 0)
(0.00635055 0.000165761 0)
(0.00568669 0.000157572 0)
(0.00505391 0.000148199 0)
(0.0044571 0.000138136 0)
(0.00389917 0.000127806 0)
(0.00338135 0.000117564 0)
(0.00290344 0.000107691 0)
(0.00246415 9.83968e-05 0)
(0.00206142 8.98071e-05 0)
(0.0016928 8.19446e-05 0)
(0.00135592 7.47035e-05 0)
(0.0010491 6.78166e-05 0)
(0.000772019 6.08247e-05 0)
(0.000526418 5.3058e-05 0)
(0.000316796 4.36888e-05 0)
(0.000150652 3.18843e-05 0)
(3.74342e-05 1.72954e-05 0)
(-1.51172e-05 1.13209e-06 0)
(-9.58585e-06 -9.6111e-06 0)
(1.17286e-05 -2.79401e-05 0)
(0.000130403 -0.000131464 0)
(0.000361382 -0.000236298 0)
(0.000690988 -0.000312595 0)
(0.00108307 -0.000359257 0)
(0.00151037 -0.000380066 0)
(0.001948 -0.000380195 0)
(0.00237597 -0.000364722 0)
(0.00277921 -0.000338142 0)
(0.00314693 -0.000304214 0)
(0.00347202 -0.000265983 0)
(0.00375031 -0.00022583 0)
(0.00397991 -0.000185539 0)
(0.00416066 -0.00014637 0)
(0.00429351 -0.000109119 0)
(0.00438009 -7.41716e-05 0)
(0.0044222 -4.15756e-05 0)
(0.00442164 -1.1243e-05 0)
(0.00437986 1.73626e-05 0)
(0.00429725 4.53121e-05 0)
(0.00417322 7.33866e-05 0)
(0.00400625 0.000102609 0)
(0.00379342 0.000134136 0)
(0.00353041 0.00016916 0)
(0.00321152 0.000208858 0)
(0.0028297 0.000254342 0)
(0.00237671 0.000306617 0)
(0.00184321 0.000366548 0)
(0.00121902 0.000434848 0)
(0.000493269 0.000512065 0)
(-0.000345313 0.000598578 0)
(-0.00130819 0.000694603 0)
(-0.00240674 0.000800182 0)
(-0.00365203 0.000915176 0)
(-0.00505445 0.00103925 0)
(-0.00662349 0.00117183 0)
(-0.0083673 0.0013121 0)
(-0.0102924 0.00145895 0)
(-0.0124032 0.00161098 0)
(-0.0147016 0.00176645 0)
(-0.0171869 0.00192328 0)
(-0.0198548 0.00207911 0)
(-0.0226978 0.00223124 0)
(-0.0257044 0.00237673 0)
(-0.0288593 0.00251243 0)
(-0.0321431 0.002635 0)
(-0.0355324 0.00274106 0)
(-0.0389999 0.00282716 0)
(-0.0425147 0.00288995 0)
(-0.0460425 0.00292619 0)
(-0.0495465 0.00293288 0)
(-0.0529869 0.0029073 0)
(-0.0563227 0.00284707 0)
(-0.0595114 0.00275025 0)
(-0.06251 0.00261536 0)
(-0.0652756 0.00244145 0)
(-0.0677662 0.00222813 0)
(-0.0699411 0.00197561 0)
(-0.0717616 0.00168474 0)
(-0.0731921 0.00135709 0)
(-0.0741998 0.000994864 0)
(-0.0747558 0.000601071 0)
(-0.0748379 0.000180603 0)
(-0.0744277 -0.000260976 0)
(-0.0735076 -0.000722377 0)
(-0.0720728 -0.00119579 0)
(-0.0701228 -0.00167423 0)
(-0.067664 -0.0021501 0)
(-0.0647098 -0.00261534 0)
(-0.0612815 -0.00306147 0)
(-0.057408 -0.00347978 0)
(-0.0531257 -0.00386147 0)
(-0.0484787 -0.00419798 0)
(-0.0435182 -0.00448121 0)
(-0.038302 -0.00470385 0)
(-0.0328939 -0.00485968 0)
(-0.0273621 -0.00494389 0)
(-0.0217787 -0.00495335 0)
(-0.0162179 -0.00488687 0)
(-0.0107542 -0.00474535 0)
(-0.00546123 -0.00453188 0)
(-0.000409149 -0.00425173 0)
(0.0043366 -0.00391222 0)
(0.00871734 -0.00352248 0)
(0.0126827 -0.00309317 0)
(0.0161922 -0.00263597 0)
(0.019216 -0.00216319 0)
(0.0217359 -0.00168716 0)
(0.0237457 -0.00121981 0)
(0.0252506 -0.000772084 0)
(0.0262668 -0.000353753 0)
(0.0268208 2.64832e-05 0)
(0.0269489 0.000363809 0)
(0.0266931 0.000655405 0)
(0.0260999 0.000898656 0)
(0.0252199 0.0010931 0)
(0.0241047 0.00124035 0)
(0.0228053 0.00134347 0)
(0.0213702 0.00140655 0)
(0.0198445 0.0014344 0)
(0.0182687 0.00143222 0)
(0.0166778 0.00140535 0)
(0.0151016 0.00135898 0)
(0.0135639 0.00129804 0)
(0.0120834 0.001227 0)
(0.0106733 0.00114987 0)
(0.0093426 0.00107007 0)
(0.00809598 0.000990419 0)
(0.00693502 0.000913077 0)
(0.00585881 0.000839432 0)
(0.004865 0.000769965 0)
(0.00395092 0.000704065 0)
(0.00311491 0.000639835 0)
(0.00235779 0.000573956 0)
(0.00168423 0.000501728 0)
(0.00110384 0.000417607 0)
(0.000631225 0.000316646 0)
(0.000282657 0.00019793 0)
(7.52008e-05 7.11847e-05 0)
(1.9557e-06 -1.4363e-05 0)
(2.58361e-05 -0.000111493 0)
(0.000233487 -0.000361625 0)
(0.000583962 -0.000587101 0)
(0.00105983 -0.000751622 0)
(0.00161139 -0.000853062 0)
(0.00220526 -0.000898131 0)
(0.00280949 -0.000896798 0)
(0.00339766 -0.000859432 0)
(0.00394915 -0.000795588 0)
(0.00444866 -0.000713502 0)
(0.00488545 -0.000619974 0)
(0.00525257 -0.000520393 0)
(0.00554606 -0.000418839 0)
(0.00576413 -0.000318208 0)
(0.0059065 -0.000220343 0)
(0.00597375 -0.000126158 0)
(0.00596658 -3.5731e-05 0)
(0.00588559 5.17131e-05 0)
(0.00573082 0.000137306 0)
(0.0055009 0.000222774 0)
(0.00519305 0.000310485 0)
(0.00480286 0.000403038 0)
(0.00432404 0.000503219 0)
(0.00374826 0.000613899 0)
(0.00306526 0.000737895 0)
(0.00226291 0.000877849 0)
(0.0013274 0.00103611 0)
(0.000243561 0.00121467 0)
(-0.00100482 0.00141505 0)
(-0.00243459 0.00163833 0)
(-0.00406279 0.00188507 0)
(-0.00590619 0.00215532 0)
(-0.00798077 0.00244856 0)
(-0.0103012 0.0027637 0)
(-0.0128804 0.00309901 0)
(-0.0157285 0.00345208 0)
(-0.0188529 0.00381973 0)
(-0.0222569 0.00419802 0)
(-0.0259398 0.00458219 0)
(-0.0298958 0.00496669 0)
(-0.0341139 0.0053452 0)
(-0.0385771 0.00571077 0)
(-0.0432628 0.00605588 0)
(-0.0481422 0.00637264 0)
(-0.0531809 0.00665296 0)
(-0.0583388 0.00688871 0)
(-0.063571 0.00707201 0)
(-0.0688283 0.00719538 0)
(-0.074058 0.00725195 0)
(-0.0792048 0.00723565 0)
(-0.0842119 0.00714137 0)
(-0.0890219 0.00696507 0)
(-0.0935777 0.00670389 0)
(-0.0978237 0.00635617 0)
(-0.101706 0.00592155 0)
(-0.105174 0.00540093 0)
(-0.108181 0.00479648 0)
(-0.110683 0.00411163 0)
(-0.112642 0.00335104 0)
(-0.114025 0.00252063 0)
(-0.114804 0.00162746 0)
(-0.114955 0.000679389 0)
(-0.114461 -0.000314249 0)
(-0.113314 -0.00134066 0)
(-0.11151 -0.00238958 0)
(-0.10905 -0.00344877 0)
(-0.105942 -0.00450449 0)
(-0.102205 -0.00554193 0)
(-0.097861 -0.00654566 0)
(-0.0929406 -0.00749974 0)
(-0.0874821 -0.00838801 0)
(-0.0815307 -0.00919437 0)
(-0.0751391 -0.00990318 0)
(-0.0683667 -0.0104997 0)
(-0.0612795 -0.0109706 0)
(-0.0539496 -0.0113043 0)
(-0.0464541 -0.0114917 0)
(-0.0388742 -0.0115267 0)
(-0.0312941 -0.0114064 0)
(-0.0237994 -0.0111314 0)
(-0.0164758 -0.0107064 0)
(-0.00940684 -0.01014 0)
(-0.00267263 -0.00944462 0)
(0.00365232 -0.00863625 0)
(0.00950082 -0.00773405 0)
(0.0148147 -0.00675971 0)
(0.0195463 -0.00573667 0)
(0.0236597 -0.00468934 0)
(0.0271317 -0.0036421 0)
(0.0299524 -0.00261847 0)
(0.0321249 -0.00164006 0)
(0.0336661 -0.00072545 0)
(0.0346051 0.000109536 0)
(0.0349808 0.000852054 0)
(0.0348415 0.00149402 0)
(0.0342438 0.00203147 0)
(0.0332488 0.00246398 0)
(0.0319207 0.00279456 0)
(0.0303239 0.00302919 0)
(0.0285213 0.00317619 0)
(0.0265723 0.00324554 0)
(0.0245313 0.00324826 0)
(0.0224466 0.00319579 0)
(0.0203597 0.00309945 0)
(0.0183048 0.00297007 0)
(0.0163091 0.00281759 0)
(0.0143931 0.00265086 0)
(0.012571 0.00247738 0)
(0.0108518 0.0023031 0)
(0.0092403 0.00213212 0)
(0.00773845 0.00196637 0)
(0.00634688 0.00180523 0)
(0.00506667 0.00164521 0)
(0.00390119 0.00147976 0)
(0.00285776 0.00129964 0)
(0.00194885 0.00109419 0)
(0.00119204 0.000854328 0)
(0.000605074 0.000578723 0)
(0.000216481 0.000284235 0)
(2.02305e-05 4.41424e-05 0)
(3.57151e-05 -0.000241282 0)
(0.000309764 -0.000689917 0)
(0.000749578 -0.00106321 0)
(0.00133055 -0.00133136 0)
(0.00199012 -0.00149483 0)
(0.00269058 -0.00156471 0)
(0.00339573 -0.00155654 0)
(0.00407548 -0.00148674 0)
(0.00470592 -0.00137068 0)
(0.00526878 -0.00122181 0)
(0.00575069 -0.00105136 0)
(0.0061423 -0.000868307 0)
(0.00643745 -0.00067946 0)
(0.0066323 -0.00048965 0)
(0.00672455 -0.000301924 0)
(0.0067127 -0.000117734 0)
(0.0065955 6.28946e-05 0)
(0.00637105 0.00024133 0)
(0.00603648 0.000419865 0)
(0.00558761 0.000601755 0)
(0.00501823 0.000791114 0)
(0.00432 0.000992613 0)
(0.00348222 0.00121125 0)
(0.00249178 0.00145214 0)
(0.00133324 0.00172022 0)
(-1.09815e-05 0.00202006 0)
(-0.00156023 0.00235563 0)
(-0.0033352 0.0027301 0)
(-0.0053573 0.00314574 0)
(-0.0076481 0.00360379 0)
(-0.0102285 0.00410441 0)
(-0.0131182 0.0046466 0)
(-0.0163346 0.00522815 0)
(-0.0198921 0.00584553 0)
(-0.0238011 0.00649386 0)
(-0.0280674 0.00716682 0)
(-0.0326911 0.0078566 0)
(-0.0376659 0.0085539 0)
(-0.0429786 0.00924801 0)
(-0.0486084 0.00992694 0)
(-0.0545269 0.0105776 0)
(-0.0606978 0.0111862 0)
(-0.0670778 0.0117383 0)
(-0.0736165 0.0122197 0)
(-0.0802578 0.0126163 0)
(-0.0869409 0.0129149 0)
(-0.0936011 0.0131036 0)
(-0.100172 0.0131716 0)
(-0.106586 0.0131103 0)
(-0.112776 0.0129128 0)
(-0.118677 0.0125746 0)
(-0.124227 0.012093 0)
(-0.129367 0.0114677 0)
(-0.134042 0.0107003 0)
(-0.138205 0.00979439 0)
(-0.141811 0.00875546 0)
(-0.144821 0.0075906 0)
(-0.147202 0.00630845 0)
(-0.148927 0.00491912 0)
(-0.149973 0.00343409 0)
(-0.150324 0.00186619 0)
(-0.149968 0.000229533 0)
(-0.148896 -0.00146105 0)
(-0.147109 -0.00319013 0)
(-0.144611 -0.004938 0)
(-0.141408 -0.00668619 0)
(-0.137516 -0.00841484 0)
(-0.132954 -0.0101029 0)
(-0.127746 -0.0117282 0)
(-0.121926 -0.0132683 0)
(-0.115529 -0.0146999 0)
(-0.1086 -0.016 0)
(-0.101189 -0.0171461 0)
(-0.0933535 -0.0181168 0)
(-0.0851571 -0.0188924 0)
(-0.0766693 -0.0194556 0)
(-0.0679655 -0.0197924 0)
(-0.0591259 -0.0198925 0)
(-0.0502347 -0.0197502 0)
(-0.041379 -0.019365 0)
(-0.0326473 -0.0187416 0)
(-0.0241278 -0.0178906 0)
(-0.015907 -0.0168282 0)
(-0.00806771 -0.0155759 0)
(-0.000687322 -0.0141602 0)
(0.00616397 -0.0126121 0)
(0.0124248 -0.0109655 0)
(0.018044 -0.00925657 0)
(0.0229822 -0.00752259 0)
(0.0272123 -0.0058004 0)
(0.0307205 -0.00412522 0)
(0.0335067 -0.00252938 0)
(0.0355838 -0.00104174 0)
(0.0369774 0.000313645 0)
(0.0377257 0.00151881 0)
(0.0378772 0.00256156 0)
(0.037489 0.00343548 0)
(0.0366252 0.00414001 0)
(0.0353539 0.00467992 0)
(0.0337457 0.00506464 0)
(0.0318702 0.00530733 0)
(0.0297948 0.00542391 0)
(0.0275823 0.00543206 0)
(0.0252894 0.00535023 0)
(0.0229656 0.00519684 0)
(0.020653 0.00498947 0)
(0.0183856 0.00474426 0)
(0.01619 0.00447536 0)
(0.0140857 0.00419435 0)
(0.0120868 0.00390973 0)
(0.0102026 0.00362625 0)
(0.00843996 0.00334435 0)
(0.00680483 0.00305961 0)
(0.00530444 0.00276269 0)
(0.00394923 0.00243993 0)
(0.00275427 0.00207547 0)
(0.00173987 0.0016555 0)
(0.000926178 0.00117631 0)
(0.000358586 0.000656362 0)
(3.83497e-05 0.000173581 0)
(4.21479e-05 -0.00040186 0)
(0.000360266 -0.00108303 0)
(0.000860096 -0.00161845 0)
(0.00150931 -0.00199337 0)
(0.00223412 -0.00221588 0)
(0.00299275 -0.00230376 0)
(0.00374588 -0.00227914 0)
(0.00446113 -0.00216483 0)
(0.00511256 -0.0019822 0)
(0.00568001 -0.00175 0)
(0.00614816 -0.00148393 0)
(0.00650563 -0.00119653 0)
(0.00674409 -0.000897336 0)
(0.00685739 -0.000593036 0)
(0.0068407 -0.000287757 0)
(0.0066898 1.67009e-05 0)
(0.00640037 0.000320627 0)
(0.00596722 0.000626104 0)
(0.00538384 0.000937017 0)
(0.00464188 0.00125855 0)
(0.00373069 0.00159701 0)
(0.00263704 0.00195953 0)
(0.00134503 0.00235368 0)
(-0.000163896 0.00278709 0)
(-0.00191076 0.003267 0)
(-0.00391861 0.00379991 0)
(-0.006212 0.0043912 0)
(-0.00881622 0.00504482 0)
(-0.0117565 0.00576307 0)
(-0.0150568 0.00654638 0)
(-0.0187393 0.00739319 0)
(-0.0228227 0.00829983 0)
(-0.0273214 0.0092604 0)
(-0.0322441 0.0102667 0)
(-0.0375931 0.0113082 0)
(-0.0433629 0.0123719 0)
(-0.0495394 0.0134427 0)
(-0.0560997 0.014503 0)
(-0.0630112 0.0155339 0)
(-0.0702323 0.0165146 0)
(-0.0777124 0.0174238 0)
(-0.0853929 0.0182399 0)
(-0.0932088 0.0189417 0)
(-0.10109 0.019509 0)
(-0.108962 0.0199237 0)
(-0.11675 0.0201699 0)
(-0.12438 0.0202343 0)
(-0.131777 0.0201069 0)
(-0.138873 0.0197809 0)
(-0.145602 0.0192526 0)
(-0.151904 0.0185216 0)
(-0.157725 0.0175903 0)
(-0.163019 0.0164636 0)
(-0.167743 0.0151491 0)
(-0.171861 0.013656 0)
(-0.175344 0.0119954 0)
(-0.178166 0.01018 0)
(-0.180308 0.00822368 0)
(-0.181754 0.00614142 0)
(-0.182492 0.00394934 0)
(-0.182513 0.00166462 0)
(-0.181813 -0.000694333 0)
(-0.180389 -0.00310811 0)
(-0.178243 -0.0055567 0)
(-0.175379 -0.00801775 0)
(-0.171805 -0.0104679 0)
(-0.167534 -0.0128825 0)
(-0.16258 -0.0152356 0)
(-0.156965 -0.0174998 0)
(-0.150713 -0.019647 0)
(-0.143855 -0.0216481 0)
(-0.136429 -0.0234737 0)
(-0.128478 -0.025095 0)
(-0.120051 -0.0264839 0)
(-0.111206 -0.0276141 0)
(-0.102006 -0.0284621 0)
(-0.0925217 -0.029008 0)
(-0.0828301 -0.0292365 0)
(-0.073013 -0.0291378 0)
(-0.0631566 -0.0287084 0)
(-0.0533504 -0.0279514 0)
(-0.0436852 -0.0268777 0)
(-0.0342518 -0.0255052 0)
(-0.025139 -0.0238591 0)
(-0.0164315 -0.0219714 0)
(-0.00820885 -0.01988 0)
(-0.000542862 -0.0176278 0)
(0.00650334 -0.015261 0)
(0.0128769 -0.0128283 0)
(0.0185363 -0.0103789 0)
(0.023452 -0.00796093 0)
(0.0276077 -0.00562033 0)
(0.0309996 -0.00339908 0)
(0.0336372 -0.00133361 0)
(0.035543 0.000545703 0)
(0.0367515 0.00221548 0)
(0.0373083 0.00366006 0)
(0.0372684 0.00487156 0)
(0.0366948 0.00584971 0)
(0.0356559 0.00660124 0)
(0.0342236 0.00713909 0)
(0.0324706 0.00748125 0)
(0.0304677 0.0076495 0)
(0.0282825 0.00766809 0)
(0.0259769 0.00756241 0)
(0.0236061 0.00735778 0)
(0.0212177 0.00707827 0)
(0.0188513 0.00674573 0)
(0.0165388 0.00637872 0)
(0.0143052 0.00599158 0)
(0.0121699 0.00559339 0)
(0.0101478 0.00518707 0)
(0.00825183 0.0047687 0)
(0.00649465 0.00432732 0)
(0.004891 0.00384582 0)
(0.0034596 0.00330343 0)
(0.00222488 0.00268062 0)
(0.00121161 0.00196756 0)
(0.000484244 0.00117565 0)
(5.40496e-05 0.00036945 0)
(4.58503e-05 -0.000581929 0)
(0.000389793 -0.00151811 0)
(0.000923805 -0.00222439 0)
(0.00160877 -0.0027049 0)
(0.00236194 -0.00297922 0)
(0.00313768 -0.00307426 0)
(0.00389411 -0.00302005 0)
(0.00459716 -0.00284639 0)
(0.00521959 -0.00258079 0)
(0.00573995 -0.00224722 0)
(0.00614137 -0.00186568 0)
(0.00641066 -0.00145209 0)
(0.00653732 -0.00101839 0)
(0.00651266 -0.000572887 0)
(0.00632896 -0.000120476 0)
(0.00597867 0.000336999 0)
(0.00545373 0.000800481 0)
(0.00474486 0.00127339 0)
(0.00384099 0.00176137 0)
(0.00272879 0.00227192 0)
(0.00139227 0.00281397 0)
(-0.000187402 0.00339741 0)
(-0.00203191 0.00403261 0)
(-0.00416559 0.00472972 0)
(-0.00661495 0.00549814 0)
(-0.00940799 0.00634586 0)
(-0.0125733 0.00727898 0)
(-0.0161391 0.00830115 0)
(-0.0201318 0.00941331 0)
(-0.0245746 0.0106133 0)
(-0.0294864 0.0118958 0)
(-0.03488 0.0132518 0)
(-0.0407609 0.0146692 0)
(-0.047126 0.0161321 0)
(-0.0539623 0.0176211 0)
(-0.0612463 0.0191139 0)
(-0.0689435 0.0205851 0)
(-0.0770087 0.0220072 0)
(-0.085386 0.0233511 0)
(-0.0940109 0.0245871 0)
(-0.102811 0.0256859 0)
(-0.111708 0.0266196 0)
(-0.120621 0.0273627 0)
(-0.129468 0.0278928 0)
(-0.138167 0.0281914 0)
(-0.146642 0.0282444 0)
(-0.15482 0.028042 0)
(-0.162634 0.0275791 0)
(-0.170025 0.0268547 0)
(-0.176941 0.0258715 0)
(-0.183336 0.024636 0)
(-0.189173 0.0231572 0)
(-0.194421 0.0214464 0)
(-0.199052 0.0195171 0)
(-0.203046 0.0173838 0)
(-0.206386 0.0150625 0)
(-0.209057 0.0125697 0)
(-0.211049 0.00992284 0)
(-0.212354 0.00714002 0)
(-0.212962 0.00423995 0)
(-0.21287 0.00124217 0)
(-0.212073 -0.00183282 0)
(-0.210568 -0.00496344 0)
(-0.208354 -0.00812675 0)
(-0.205432 -0.0112983 0)
(-0.201804 -0.0144519 0)
(-0.197476 -0.0175595 0)
(-0.192455 -0.0205914 0)
(-0.186754 -0.0235158 0)
(-0.18039 -0.0262994 0)
(-0.173384 -0.0289076 0)
(-0.165764 -0.0313048 0)
(-0.157564 -0.0334554 0)
(-0.148826 -0.0353242 0)
(-0.139598 -0.0368776 0)
(-0.129937 -0.0380847 0)
(-0.119908 -0.0389186 0)
(-0.109584 -0.0393574 0)
(-0.0990432 -0.0393854 0)
(-0.0883722 -0.0389945 0)
(-0.0776613 -0.0381848 0)
(-0.0670046 -0.0369655 0)
(-0.0564976 -0.0353548 0)
(-0.0462354 -0.0333801 0)
(-0.0363105 -0.0310776 0)
(-0.026811 -0.0284911 0)
(-0.0178186 -0.0256709 0)
(-0.00940681 -0.0226726 0)
(-0.00163956 -0.0195552 0)
(0.00542977 -0.016379 0)
(0.0117593 -0.0132045 0)
(0.0173192 -0.0100899 0)
(0.0220922 -0.0070901 0)
(0.0260732 -0.00425439 0)
(0.02927 -0.00162575 0)
(0.0317026 0.000760493 0)
(0.0334025 0.00287762 0)
(0.0344123 0.004708 0)
(0.0347846 0.00624324 0)
(0.0345797 0.00748405 0)
(0.0338648 0.00843956 0)
(0.0327108 0.00912639 0)
(0.0311909 0.00956733 0)
(0.0293774 0.00978983 0)
(0.0273399 0.00982435 0)
(0.0251434 0.00970271 0)
(0.0228467 0.00945641 0)
(0.0205014 0.00911507 0)
(0.0181516 0.00870484 0)
(0.0158341 0.00824687 0)
(0.0135788 0.00775585 0)
(0.0114107 0.00723861 0)
(0.00935078 0.00669315 0)
(0.00741882 0.00610825 0)
(0.00563539 0.0054643 0)
(0.00402447 0.00473579 0)
(0.0026163 0.00389612 0)
(0.00144219 0.00292545 0)
(0.000585043 0.00182075 0)
(6.64455e-05 0.00062095 0)
(4.76676e-05 -0.000772532 0)
(0.00040326 -0.00197474 0)
(0.000949622 -0.00285348 0)
(0.00164196 -0.00343337 0)
(0.00239094 -0.00374813 0)
(0.00314757 -0.0038359 0)
(0.00386785 -0.00373584 0)
(0.00451648 -0.00348536 0)
(0.00506525 -0.0031182 0)
(0.00549168 -0.00266345 0)
(0.00577758 -0.00214505 0)
(0.005908 -0.00158187 0)
(0.00587015 -0.000987874 0)
(0.00565257 -0.000372472 0)
(0.00524422 0.000259098 0)
(0.00463375 0.000905419 0)
(0.00380874 0.00156855 0)
(0.0027551 0.00225367 0)
(0.00145649 0.00296867 0)
(-0.000106092 0.0037237 0)
(-0.00195457 0.00453058 0)
(-0.00411383 0.00540214 0)
(-0.00661146 0.0063514 0)
(-0.0094773 0.00739076 0)
(-0.0127426 0.00853107 0)
(-0.0164388 0.00978081 0)
(-0.0205966 0.0111453 0)
(-0.0252438 0.0126262 0)
(-0.0304043 0.0142207 0)
(-0.0360958 0.0159214 0)
(-0.0423285 0.0177163 0)
(-0.049103 0.0195881 0)
(-0.0564095 0.0215148 0)
(-0.0642261 0.0234698 0)
(-0.0725186 0.0254223 0)
(-0.0812403 0.027338 0)
(-0.0903326 0.0291802 0)
(-0.0997264 0.0309108 0)
(-0.109344 0.0324915 0)
(-0.1191 0.0338857 0)
(-0.128909 0.0350595 0)
(-0.13868 0.0359828 0)
(-0.148329 0.0366307 0)
(-0.157773 0.0369836 0)
(-0.166938 0.0370279 0)
(-0.175754 0.0367561 0)
(-0.184164 0.0361657 0)
(-0.192116 0.0352595 0)
(-0.199568 0.0340445 0)
(-0.206485 0.032531 0)
(-0.212839 0.0307323 0)
(-0.218608 0.0286636 0)
(-0.223774 0.0263414 0)
(-0.228324 0.0237832 0)
(-0.232244 0.0210073 0)
(-0.235527 0.0180319 0)
(-0.238164 0.0148756 0)
(-0.240148 0.0115574 0)
(-0.241472 0.00809617 0)
(-0.242129 0.0045116 0)
(-0.242113 0.000823871 0)
(-0.241418 -0.00294586 0)
(-0.240036 -0.0067752 0)
(-0.237963 -0.0106401 0)
(-0.235194 -0.0145148 0)
(-0.231724 -0.0183711 0)
(-0.227552 -0.0221786 0)
(-0.222678 -0.0259045 0)
(-0.217105 -0.0295133 0)
(-0.210841 -0.0329672 0)
(-0.203895 -0.036226 0)
(-0.196287 -0.0392482 0)
(-0.188039 -0.041991 0)
(-0.179183 -0.0444116 0)
(-0.169759 -0.0464684 0)
(-0.159813 -0.0481218 0)
(-0.149404 -0.0493363 0)
(-0.138598 -0.0500817 0)
(-0.127472 -0.0503347 0)
(-0.116109 -0.0500804 0)
(-0.104602 -0.0493136 0)
(-0.0930474 -0.04804 0)
(-0.0815472 -0.0462761 0)
(-0.070204 -0.0440502 0)
(-0.05912 -0.0414011 0)
(-0.0483935 -0.0383778 0)
(-0.0381177 -0.0350378 0)
(-0.0283774 -0.0314452 0)
(-0.0192482 -0.0276691 0)
(-0.0107946 -0.0237812 0)
(-0.00306934 -0.0198534 0)
(0.00388699 -0.0159563 0)
(0.0100462 -0.0121569 0)
(0.0153925 -0.00851698 0)
(0.0199219 -0.00509167 0)
(0.0236427 -0.00192811 0)
(0.0265744 0.000935524 0)
(0.0287475 0.0034709 0)
(0.0302028 0.00565997 0)
(0.0309907 0.00749516 0)
(0.0311696 0.00897907 0)
(0.0308047 0.0101239 0)
(0.0299655 0.0109501 0)
(0.0287243 0.0114854 0)
(0.0271535 0.0117625 0)
(0.0253235 0.0118176 0)
(0.0233006 0.0116879 0)
(0.0211459 0.0114101 0)
(0.018914 0.0110174 0)
(0.0166523 0.010538 0)
(0.0144018 0.00999314 0)
(0.0121973 0.00939444 0)
(0.0100693 0.0087431 0)
(0.00804566 0.00802882 0)
(0.00615413 0.00723033 0)
(0.0044255 0.0063175 0)
(0.00289715 0.00525548 0)
(0.00160806 0.00401135 0)
(0.000657129 0.00256244 0)
(7.51842e-05 0.000914576 0)
(4.81399e-05 -0.000967054 0)
(0.00040432 -0.00243635 0)
(0.000944529 -0.00348203 0)
(0.00161922 -0.00414996 0)
(0.00233461 -0.00448982 0)
(0.00303912 -0.00455253 0)
(0.00368718 -0.00438746 0)
(0.00424259 -0.00404007 0)
(0.00467644 -0.00355045 0)
(0.00496532 -0.00295248 0)
(0.00508973 -0.00227365 0)
(0.00503282 -0.00153524 0)
(0.00477934 -0.000752636 0)
(0.00431473 6.4181e-05 0)
(0.00362421 0.000910223 0)
(0.00269211 0.00178506 0)
(0.00150113 0.00269239 0)
(3.17816e-05 0.00363961 0)
(-0.0017381 0.00463728 0)
(-0.00383361 0.00569849 0)
(-0.00628286 0.00683805 0)
(-0.00911671 0.00807151 0)
(-0.0123682 0.00941411 0)
(-0.0160715 0.0108796 0)
(-0.0202609 0.0124789 0)
(-0.0249689 0.0142192 0)
(-0.0302245 0.0161028 0)
(-0.0360512 0.0181265 0)
(-0.042465 0.0202808 0)
(-0.0494721 0.0225498 0)
(-0.0570677 0.0249108 0)
(-0.0652341 0.0273351 0)
(-0.0739396 0.0297877 0)
(-0.0831389 0.0322289 0)
(-0.0927727 0.0346146 0)
(-0.10277 0.0368984 0)
(-0.113048 0.0390331 0)
(-0.123519 0.0409723 0)
(-0.134088 0.0426725 0)
(-0.144662 0.0440947 0)
(-0.155149 0.0452059 0)
(-0.165462 0.0459797 0)
(-0.175522 0.0463971 0)
(-0.185259 0.0464465 0)
(-0.194611 0.0461232 0)
(-0.20353 0.0454288 0)
(-0.211972 0.0443699 0)
(-0.219906 0.0429578 0)
(-0.227306 0.041207 0)
(-0.234151 0.0391342 0)
(-0.240428 0.0367579 0)
(-0.246124 0.0340972 0)
(-0.251231 0.0311719 0)
(-0.255741 0.0280015 0)
(-0.259649 0.0246056 0)
(-0.262948 0.0210033 0)
(-0.265632 0.0172134 0)
(-0.267697 0.013255 0)
(-0.269134 0.00914673 0)
(-0.269938 0.00490794 0)
(-0.270099 0.000558519 0)
(-0.269611 -0.00388059 0)
(-0.268464 -0.0083871 0)
(-0.266649 -0.0129368 0)
(-0.264156 -0.0175034 0)
(-0.260976 -0.0220578 0)
(-0.257101 -0.0265682 0)
(-0.252523 -0.0309995 0)
(-0.247236 -0.0353134 0)
(-0.241238 -0.0394683 0)
(-0.234528 -0.0434194 0)
(-0.227114 -0.0471192 0)
(-0.219005 -0.0505183 0)
(-0.21022 -0.0535661 0)
(-0.200787 -0.056212 0)
(-0.19074 -0.058407 0)
(-0.180128 -0.0601054 0)
(-0.169007 -0.0612667 0)
(-0.157447 -0.0618576 0)
(-0.145528 -0.0618538 0)
(-0.133341 -0.061242 0)
(-0.120985 -0.0600215 0)
(-0.108568 -0.0582047 0)
(-0.0962023 -0.0558181 0)
(-0.0840001 -0.0529018 0)
(-0.0720741 -0.0495087 0)
(-0.0605317 -0.0457026 0)
(-0.0494733 -0.0415568 0)
(-0.0389889 -0.0371507 0)
(-0.029157 -0.0325678 0)
(-0.0200428 -0.0278929 0)
(-0.011698 -0.0232093 0)
(-0.00416037 -0.0185967 0)
(0.00254536 -0.0141294 0)
(0.00840718 -0.00987428 0)
(0.013425 -0.00589015 0)
(0.0176097 -0.00222615 0)
(0.0209831 0.00107885 0)
(0.0235766 0.00399687 0)
(0.0254314 0.00651125 0)
(0.026597 0.0086166 0)
(0.0271309 0.0103186 0)
(0.0270967 0.011633 0)
(0.0265626 0.0125849 0)
(0.0255999 0.0132065 0)
(0.0242802 0.0135357 0)
(0.0226739 0.0136133 0)
(0.020848 0.0134809 0)
(0.0188647 0.013178 0)
(0.0167807 0.0127395 0)
(0.0146464 0.0121926 0)
(0.0125064 0.0115547 0)
(0.0104005 0.0108306 0)
(0.00836525 0.010012 0)
(0.00643677 0.00907646 0)
(0.00465355 0.00798949 0)
(0.00306087 0.00670723 0)
(0.00170569 0.0051819 0)
(0.000699367 0.0033683 0)
(8.02024e-05 0.00123584 0)
(4.75775e-05 -0.00116043 0)
(0.000395205 -0.00288914 0)
(0.000912977 -0.00408923 0)
(0.00154726 -0.00482855 0)
(0.00220177 -0.00517407 0)
(0.00282315 -0.00519064 0)
(0.00336497 -0.00493855 0)
(0.00379051 -0.00447165 0)
(0.00407029 -0.0038362 0)
(0.00418001 -0.00307054 0)
(0.0040987 -0.00220515 0)
(0.00380742 -0.00126307 0)
(0.00328813 -0.000260474 0)
(0.00252276 0.000792765 0)
(0.00149239 0.00189254 0)
(0.000176545 0.00304001 0)
(-0.00144742 0.00424104 0)
(-0.0034048 0.00550571 0)
(-0.00572389 0.00684754 0)
(-0.00843594 0.0082826 0)
(-0.011575 0.00982845 0)
(-0.0151771 0.0115028 0)
(-0.0192795 0.013322 0)
(-0.0239186 0.0152994 0)
(-0.0291287 0.0174441 0)
(-0.0349396 0.0197592 0)
(-0.0413738 0.0222409 0)
(-0.0484452 0.0248774 0)
(-0.0561556 0.0276488 0)
(-0.0644938 0.0305268 0)
(-0.0734339 0.0334751 0)
(-0.0829342 0.0364501 0)
(-0.0929378 0.0394023 0)
(-0.103374 0.0422777 0)
(-0.114158 0.0450202 0)
(-0.125199 0.0475734 0)
(-0.136398 0.0498833 0)
(-0.147654 0.0519006 0)
(-0.15887 0.0535822 0)
(-0.169952 0.0548932 0)
(-0.180816 0.0558072 0)
(-0.191386 0.0563066 0)
(-0.201601 0.0563827 0)
(-0.211405 0.0560342 0)
(-0.220757 0.0552667 0)
(-0.229624 0.054091 0)
(-0.23798 0.0525223 0)
(-0.245807 0.0505785 0)
(-0.25309 0.0482797 0)
(-0.259822 0.0456468 0)
(-0.265994 0.0427015 0)
(-0.271601 0.0394649 0)
(-0.27664 0.0359582 0)
(-0.281107 0.0322017 0)
(-0.285 0.028215 0)
(-0.288315 0.0240173 0)
(-0.291049 0.019627 0)
(-0.293198 0.0150625 0)
(-0.294757 0.0103419 0)
(-0.295721 0.00548346 0)
(-0.296081 0.000506281 0)
(-0.295831 -0.00456966 0)
(-0.29496 -0.0097229 0)
(-0.293458 -0.01493 0)
(-0.291312 -0.0201653 0)
(-0.28851 -0.0253998 0)
(-0.285037 -0.0306017 0)
(-0.280879 -0.035735 0)
(-0.276022 -0.0407601 0)
(-0.270453 -0.0456327 0)
(-0.26416 -0.0503048 0)
(-0.257136 -0.0547242 0)
(-0.249378 -0.0588354 0)
(-0.240887 -0.0625804 0)
(-0.231675 -0.0658998 0)
(-0.221762 -0.0687344 0)
(-0.211178 -0.0710271 0)
(-0.199967 -0.0727253 0)
(-0.188185 -0.0737827 0)
(-0.175905 -0.0741628 0)
(-0.16321 -0.0738405 0)
(-0.1502 -0.0728046 0)
(-0.136985 -0.0710595 0)
(-0.123684 -0.0686265 0)
(-0.110424 -0.0655436 0)
(-0.0973312 -0.0618653 0)
(-0.0845331 -0.0576607 0)
(-0.0721498 -0.0530114 0)
(-0.060292 -0.048008 0)
(-0.0490577 -0.0427476 0)
(-0.0385299 -0.0373292 0)
(-0.0287753 -0.0318512 0)
(-0.0198442 -0.026408 0)
(-0.0117708 -0.0210877 0)
(-0.00457453 -0.0159704 0)
(0.00173864 -0.0111267 0)
(0.00717464 -0.00661651 0)
(0.0117501 -0.00248891 0)
(0.0154913 0.00121871 0)
(0.0184333 0.00448083 0)
(0.0206194 0.00728393 0)
(0.0221004 0.00962639 0)
(0.0229339 0.011518 0)
(0.0231831 0.0129792 0)
(0.0229157 0.0140395 0)
(0.022202 0.0147361 0)
(0.0211128 0.0151109 0)
(0.0197182 0.0152085 0)
(0.0180853 0.0150729 0)
(0.0162774 0.0147443 0)
(0.0143527 0.0142555 0)
(0.0123642 0.0136291 0)
(0.0103607 0.0128741 0)
(0.00838736 0.0119843 0)
(0.00648883 0.0109368 0)
(0.00471177 0.00969263 0)
(0.00310947 0.00819898 0)
(0.0017365 0.00639269 0)
(0.000712651 0.00420544 0)
(8.1661e-05 0.00157033 0)
(4.61035e-05 -0.00134839 0)
(0.000376892 -0.0033209 0)
(0.000857043 -0.00465606 0)
(0.00142936 -0.00544476 0)
(0.00199679 -0.00577231 0)
(0.00250517 -0.00571834 0)
(0.00290789 -0.00535447 0)
(0.00316812 -0.00474291 0)
(0.00325596 -0.00393582 0)
(0.00314612 -0.00297542 0)
(0.00281596 -0.00189451 0)
(0.00224411 -0.000717201 0)
(0.00140934 0.000540291 0)
(0.000289685 0.0018689 0)
(-0.00113837 0.00326606 0)
(-0.00290048 0.00473509 0)
(-0.00502497 0.00628453 0)
(-0.00754312 0.00792739 0)
(-0.0104892 0.00968023 0)
(-0.0139003 0.0115618 0)
(-0.0178154 0.0135918 0)
(-0.0222742 0.0157887 0)
(-0.0273155 0.0181682 0)
(-0.032975 0.020741 0)
(-0.0392828 0.0235109 0)
(-0.0462609 0.0264735 0)
(-0.05392 0.029615 0)
(-0.0622578 0.0329112 0)
(-0.0712565 0.0363278 0)
(-0.0808816 0.0398207 0)
(-0.0910818 0.0433374 0)
(-0.101789 0.0468184 0)
(-0.112921 0.0501996 0)
(-0.124384 0.0534152 0)
(-0.136075 0.0564001 0)
(-0.147889 0.0590935 0)
(-0.15972 0.0614406 0)
(-0.171469 0.0633956 0)
(-0.183043 0.0649222 0)
(-0.19436 0.0659949 0)
(-0.205351 0.0665983 0)
(-0.215956 0.0667264 0)
(-0.226131 0.0663818 0)
(-0.235838 0.0655736 0)
(-0.245052 0.0643166 0)
(-0.253751 0.0626292 0)
(-0.261921 0.0605328 0)
(-0.269554 0.05805 0)
(-0.276644 0.0552045 0)