/*--------------------------------*- C++ -*----------------------------------*\
| =========                 |                                                 |
| \\      /  F ield         | OpenFOAM: The Open Source CFD Toolbox           |
|  \\    /   O peration     | Version:  2406                                  |
|   \\  /    A nd           | Website:  www.openfoam.com                      |
|    \\/     M anipulation  |                                                 |
\*---------------------------------------------------------------------------*/
FoamFile
{
    version     2.0;
    format      ascii;
    arch        "LSB;label=32;scalar=64";
    class       surfaceScalarField;
    location    "0.5";
    object      phi;
}
// * * * * * * * * * * * * * * * * * * * * * * * * * * * * * * * * * * * * * //

dimensions      [0 3 -1 0 0 0 0];

oriented        oriented;

internalField   nonuniform List<scalar> 
28560
(
-9.7878e-10
9.78287e-10
-1.49699e-08
1.45139e-08
-3.85952e-08
2.3668e-08
-6.69837e-08
2.88772e-08
-9.74033e-08
3.06168e-08
-1.28162e-07
3.12192e-08
-1.59002e-07
3.11229e-08
-1.89595e-07
3.10118e-08
-2.2007e-07
3.07942e-08
-2.50313e-07
3.06323e-08
-2.80403e-07
3.04248e-08
-3.10265e-07
3.02335e-08
-3.39932e-07
3.0007e-08
-3.69351e-07
2.97767e-08
-3.98529e-07
2.9518e-08
-4.27429e-07
2.92471e-08
-4.56044e-07
2.8952e-08
-4.84348e-07
2.86411e-08
-5.12326e-07
2.83086e-08
-5.39957e-07
2.79587e-08
-5.67223e-07
2.75886e-08
-5.94105e-07
2.72007e-08
-6.20586e-07
2.67937e-08
-6.46647e-07
2.63688e-08
-6.7227e-07
2.59255e-08
-6.97437e-07
2.54647e-08
-7.22132e-07
2.49862e-08
-7.46337e-07
2.44906e-08
-7.70036e-07
2.3978e-08
-7.93211e-07
2.34487e-08
-8.15848e-07
2.29031e-08
-8.3793e-07
2.23415e-08
-8.59441e-07
2.17641e-08
-8.80367e-07
2.11714e-08
-9.00692e-07
2.05637e-08
-9.20403e-07
1.99413e-08
-9.39484e-07
1.93047e-08
-9.57922e-07
1.8654e-08
-9.75704e-07
1.79898e-08
-9.92817e-07
1.73124e-08
-1.00925e-06
1.66221e-08
-1.02498e-06
1.59195e-08
-1.04001e-06
1.52048e-08
-1.05433e-06
1.44785e-08
-1.06791e-06
1.3741e-08
-1.08075e-06
1.29928e-08
-1.09285e-06
1.22341e-08
-1.10418e-06
1.14656e-08
-1.11475e-06
1.06875e-08
-1.12454e-06
9.90047e-09
-1.13354e-06
9.10481e-09
-1.14175e-06
8.30102e-09
-1.14915e-06
7.48958e-09
-1.15575e-06
6.67096e-09
-1.16153e-06
5.84563e-09
-1.16649e-06
5.0141e-09
-1.17062e-06
4.17686e-09
-1.17392e-06
3.33442e-09
-1.17638e-06
2.48728e-09
-1.178e-06
1.63598e-09
-1.17878e-06
7.81036e-10
-1.17871e-06
-7.70041e-11
-1.17778e-06
-9.37595e-10
-1.17601e-06
-1.80018e-09
-1.17338e-06
-2.66419e-09
-1.16989e-06
-3.52906e-09
-1.16555e-06
-4.3942e-09
-1.16036e-06
-5.25902e-09
-1.15431e-06
-6.12292e-09
-1.14741e-06
-6.98529e-09
-1.13966e-06
-7.8455e-09
-1.13106e-06
-8.70294e-09
-1.12162e-06
-9.55697e-09
-1.11133e-06
-1.04069e-08
-1.10022e-06
-1.12522e-08
-1.08827e-06
-1.20921e-08
-1.07549e-06
-1.29259e-08
-1.0619e-06
-1.3753e-08
-1.0475e-06
-1.45728e-08
-1.0323e-06
-1.53844e-08
-1.0163e-06
-1.61873e-08
-9.99519e-07
-1.69807e-08
-9.81964e-07
-1.77639e-08
-9.63644e-07
-1.85362e-08
-9.44573e-07
-1.9297e-08
-9.24762e-07
-2.00454e-08
-9.04224e-07
-2.07809e-08
-8.82972e-07
-2.15026e-08
-8.61021e-07
-2.22099e-08
-8.38386e-07
-2.29021e-08
-8.15082e-07
-2.35784e-08
-7.91125e-07
-2.42383e-08
-7.66534e-07
-2.48809e-08
-7.41324e-07
-2.55056e-08
-7.15516e-07
-2.61119e-08
-6.89127e-07
-2.66988e-08
-6.62177e-07
-2.72661e-08
-6.34687e-07
-2.78125e-08
-6.06678e-07
-2.83384e-08
-5.78169e-07
-2.88419e-08
-5.49186e-07
-2.93241e-08
-5.19747e-07
-2.97823e-08
-4.8988e-07
-3.0219e-08
-4.59602e-07
-3.06294e-08
-4.28946e-07
-3.10193e-08
-3.97923e-07
-3.13799e-08
-3.66575e-07
-3.1723e-08
-3.34902e-07
-3.20319e-08
-3.02961e-07
-3.23313e-08
-2.70726e-07
-3.25889e-08
-2.3828e-07
-3.28573e-08
-2.05545e-07
-3.30718e-08
-1.72652e-07
-3.33362e-08
-1.39469e-07
-3.34804e-08
-1.06359e-07
-3.35986e-08
-7.35914e-08
-3.29788e-08
-4.29498e-08
-3.11716e-08
-1.72417e-08
-2.57439e-08
-1.64604e-09
-1.61368e-08
-1.6459e-09
-1.45396e-08
1.49938e-08
-5.34298e-08
5.34045e-08
-1.0968e-07
7.91152e-08
-1.74889e-07
9.37308e-08
-2.44737e-07
9.96532e-08
-3.15922e-07
1.01863e-07
-3.87655e-07
1.02087e-07
-4.59121e-07
1.01866e-07
-5.30385e-07
1.01331e-07
-6.01188e-07
1.00795e-07
-6.71614e-07
1.00154e-07
-7.41523e-07
9.94941e-08
-8.10943e-07
9.87512e-08
-8.79778e-07
9.79639e-08
-9.48019e-07
9.71011e-08
-1.01559e-06
9.61826e-08
-1.08248e-06
9.51937e-08
-1.14861e-06
9.41449e-08
-1.21396e-06
9.30292e-08
-1.27846e-06
9.18523e-08
-1.3421e-06
9.06113e-08
-1.4048e-06
8.93095e-08
-1.46654e-06
8.79457e-08
-1.52728e-06
8.65222e-08
-1.58696e-06
8.50388e-08
-1.64555e-06
8.34973e-08
-1.70301e-06
8.1898e-08
-1.7593e-06
8.02424e-08
-1.81438e-06
7.85311e-08
-1.86821e-06
7.67655e-08
-1.92076e-06
7.49465e-08
-1.97198e-06
7.30754e-08
-2.02184e-06
7.11532e-08
-2.07032e-06
6.91811e-08
-2.11736e-06
6.71603e-08
-2.16295e-06
6.5092e-08
-2.20704e-06
6.29776e-08
-2.24961e-06
6.08182e-08
-2.29063e-06
5.86151e-08
-2.33006e-06
5.63698e-08
-2.36789e-06
5.40834e-08
-2.40407e-06
5.17573e-08
-2.43859e-06
4.9393e-08
-2.47142e-06
4.69918e-08
-2.50253e-06
4.45551e-08
-2.5319e-06
4.20844e-08
-2.55951e-06
3.9581e-08
-2.58534e-06
3.70465e-08
-2.60936e-06
3.44824e-08
-2.63156e-06
3.18901e-08
-2.65192e-06
2.92711e-08
-2.67043e-06
2.66271e-08
-2.68706e-06
2.39596e-08
-2.7018e-06
2.12702e-08
-2.71463e-06
1.85604e-08
-2.72556e-06
1.58319e-08
-2.73455e-06
1.30863e-08
-2.74161e-06
1.03254e-08
-2.74672e-06
7.55075e-09
-2.74988e-06
4.76413e-09
-2.75108e-06
1.96726e-09
-2.75031e-06
-8.38093e-10
-2.74757e-06
-3.65015e-09
-2.74286e-06
-6.4671e-09
-2.73617e-06
-9.28711e-09
-2.72751e-06
-1.21083e-08
-2.71688e-06
-1.49288e-08
-2.70427e-06
-1.77468e-08
-2.68969e-06
-2.05602e-08
-2.67315e-06
-2.33671e-08
-2.65466e-06
-2.61656e-08
-2.63421e-06
-2.89536e-08
-2.61183e-06
-3.17291e-08
-2.58751e-06
-3.449e-08
-2.56128e-06
-3.72343e-08
-2.53314e-06
-3.99599e-08
-2.50312e-06
-4.26646e-08
-2.47122e-06
-4.53463e-08
-2.43747e-06
-4.80029e-08
-2.40188e-06
-5.06321e-08
-2.36448e-06
-5.32318e-08
-2.32529e-06
-5.57999e-08
-2.28433e-06
-5.83339e-08
-2.24163e-06
-6.08319e-08
-2.19721e-06
-6.32915e-08
-2.1511e-06
-6.57105e-08
-2.10334e-06
-6.80867e-08
-2.05396e-06
-7.04178e-08
-2.00298e-06
-7.27018e-08
-1.95044e-06
-7.49362e-08
-1.89639e-06
-7.71191e-08
-1.84085e-06
-7.92481e-08
-1.78387e-06
-8.13212e-08
-1.72548e-06
-8.33361e-08
-1.66573e-06
-8.52911e-08
-1.60466e-06
-8.71836e-08
-1.54232e-06
-8.90122e-08
-1.47876e-06
-9.07743e-08
-1.41401e-06
-9.24689e-08
-1.34813e-06
-9.40928e-08
-1.28117e-06
-9.56462e-08
-1.21318e-06
-9.71247e-08
-1.14421e-06
-9.85305e-08
-1.07432e-06
-9.98569e-08
-1.00356e-06
-1.0111e-07
-9.31969e-07
-1.02279e-07
-8.59637e-07
-1.03377e-07
-7.86576e-07
-1.04383e-07
-7.12895e-07
-1.0533e-07
-6.38575e-07
-1.06175e-07
-5.63772e-07
-1.06985e-07
-4.88409e-07
-1.07668e-07
-4.12768e-07
-1.08331e-07
-3.36793e-07
-1.08643e-07
-2.61354e-07
-1.08466e-07
-1.87269e-07
-1.06203e-07
-1.17993e-07
-1.00071e-07
-5.79768e-08
-8.48937e-08
-1.6091e-08
-5.80222e-08
-1.71956e-08
-2.37861e-08
3.87332e-08
-7.93914e-08
1.09812e-07
-1.56533e-07
1.56253e-07
-2.44122e-07
1.82058e-07
-3.37389e-07
1.9322e-07
-4.32293e-07
1.97431e-07
-5.2795e-07
1.98172e-07
-6.2331e-07
1.97834e-07
-7.18422e-07
1.96925e-07
-8.12946e-07
1.9589e-07
-9.06962e-07
1.94672e-07
-1.00029e-06
1.9337e-07
-1.09295e-06
1.91922e-07
-1.18483e-06
1.90367e-07
-1.27589e-06
1.88674e-07
-1.36606e-06
1.86863e-07
-1.45528e-06
1.8492e-07
-1.54349e-06
1.82855e-07
-1.63064e-06
1.80663e-07
-1.71665e-06
1.78349e-07
-1.80147e-06
1.75911e-07
-1.88504e-06
1.73354e-07
-1.9673e-06
1.70677e-07
-2.04821e-06
1.67884e-07
-2.12769e-06
1.64974e-07
-2.2057e-06
1.61951e-07
-2.28219e-06
1.58816e-07
-2.3571e-06
1.55572e-07
-2.43037e-06
1.5222e-07
-2.50196e-06
1.48763e-07
-2.57182e-06
1.45203e-07
-2.6399e-06
1.41542e-07
-2.70615e-06
1.37782e-07
-2.77053e-06
1.33926e-07
-2.833e-06
1.29976e-07
-2.8935e-06
1.25935e-07
-2.95199e-06
1.21806e-07
-3.00844e-06
1.17589e-07
-3.06281e-06
1.1329e-07
-3.11505e-06
1.08909e-07
-3.16513e-06
1.04449e-07
-3.21301e-06
9.99142e-08
-3.25867e-06
9.53061e-08
-3.30205e-06
9.06277e-08
-3.34315e-06
8.58819e-08
-3.38191e-06
8.10714e-08
-3.41832e-06
7.61992e-08
-3.45235e-06
7.12681e-08
-3.48397e-06
6.6281e-08
-3.51315e-06
6.12409e-08
-3.53988e-06
5.61508e-08
-3.56412e-06
5.10138e-08
-3.58587e-06
4.58328e-08
-3.6051e-06
4.06111e-08
-3.6218e-06
3.53516e-08
-3.63594e-06
3.00577e-08
-3.64752e-06
2.47324e-08
-3.65652e-06
1.93791e-08
-3.66293e-06
1.4001e-08
-3.66675e-06
8.60145e-09
-3.66795e-06
3.18381e-09
-3.66655e-06
-2.24851e-09
-3.66253e-06
-7.69206e-09
-3.65589e-06
-1.31434e-08
-3.64663e-06
-1.85989e-08
-3.63475e-06
-2.40551e-08
-3.62025e-06
-2.95082e-08
-3.60314e-06
-3.49548e-08
-3.58341e-06
-4.0391e-08
-3.56109e-06
-4.5813e-08
-3.53618e-06
-5.12172e-08
-3.50869e-06
-5.65997e-08
-3.47863e-06
-6.19565e-08
-3.44602e-06
-6.72838e-08
-3.41088e-06
-7.25776e-08
-3.37322e-06
-7.78339e-08
-3.33306e-06
-8.30486e-08
-3.29043e-06
-8.82177e-08
-3.24535e-06
-9.33372e-08
-3.19785e-06
-9.84028e-08
-3.14795e-06
-1.0341e-07
-3.0957e-06
-1.08356e-07
-3.0411e-06
-1.13235e-07
-2.98422e-06
-1.18043e-07
-2.92507e-06
-1.22777e-07
-2.86369e-06
-1.27432e-07
-2.80014e-06
-1.32004e-07
-2.73444e-06
-1.36488e-07
-2.66665e-06
-1.40881e-07
-2.5968e-06
-1.45177e-07
-2.52496e-06
-1.49375e-07
-2.45116e-06
-1.53468e-07
-2.37545e-06
-1.57453e-07
-2.29791e-06
-1.61326e-07
-2.21857e-06
-1.65083e-07
-2.13749e-06
-1.68721e-07
-2.05474e-06
-1.72235e-07
-1.97037e-06
-1.75621e-07
-1.88445e-06
-1.78877e-07
-1.79705e-06
-1.81998e-07
-1.70822e-06
-1.84982e-07
-1.61803e-06
-1.87825e-07
-1.52656e-06
-1.90525e-07
-1.43386e-06
-1.93076e-07
-1.34003e-06
-1.95482e-07
-1.24511e-06
-1.97731e-07
-1.14921e-06
-1.99836e-07
-1.05235e-06
-2.01776e-07
-9.54681e-07
-2.0358e-07
-8.5618e-07
-2.05208e-07
-7.57048e-07
-2.0672e-07
-6.57213e-07
-2.08014e-07
-5.57044e-07
-2.09144e-07
-4.56499e-07
-2.09643e-07
-3.5669e-07
-2.08979e-07
-2.58535e-07
-2.04677e-07
-1.66245e-07
-1.93144e-07
-8.47366e-08
-1.66401e-07
-2.56374e-08
-1.17987e-07
-4.27967e-08
-2.91185e-08
6.736e-08
-9.4375e-08
1.75428e-07
-1.83005e-07
2.44141e-07
-2.824e-07
2.81455e-07
-3.87747e-07
2.9799e-07
-4.9476e-07
3.04241e-07
-6.0263e-07
3.05552e-07
-7.10198e-07
3.05107e-07
-8.17525e-07
3.03814e-07
-9.2421e-07
3.02238e-07
-1.03033e-06
3.00387e-07
-1.13568e-06
2.98367e-07
-1.24028e-06
2.96128e-07
-1.34397e-06
2.93708e-07
-1.44675e-06
2.9108e-07
-1.54851e-06
2.88263e-07
-1.6492e-06
2.85243e-07
-1.74873e-06
2.82033e-07
-1.84704e-06
2.78626e-07
-1.94407e-06
2.7503e-07
-2.03974e-06
2.71244e-07
-2.134e-06
2.67273e-07
-2.22677e-06
2.63117e-07
-2.31799e-06
2.5878e-07
-2.4076e-06
2.54264e-07
-2.49554e-06
2.49574e-07
-2.58174e-06
2.44712e-07
-2.66615e-06
2.3968e-07
-2.74871e-06
2.34483e-07
-2.82936e-06
2.29124e-07
-2.90804e-06
2.23607e-07
-2.98471e-06
2.17934e-07
-3.0593e-06
2.1211e-07
-3.13178e-06
2.06138e-07
-3.20207e-06
2.00022e-07
-3.27015e-06
1.93766e-07
-3.33595e-06
1.87374e-07
-3.39944e-06
1.80851e-07
-3.46057e-06
1.74199e-07
-3.5193e-06
1.67423e-07
-3.57558e-06
1.60527e-07
-3.62937e-06
1.53516e-07
-3.68065e-06
1.46393e-07
-3.72936e-06
1.39164e-07
-3.77547e-06
1.31832e-07
-3.81896e-06
1.24401e-07
-3.85979e-06
1.16877e-07
-3.89792e-06
1.09264e-07
-3.93333e-06
1.01566e-07
-3.966e-06
9.37873e-08
-3.99589e-06
8.59336e-08
-4.02299e-06
7.80091e-08
-4.04726e-06
7.00187e-08
-4.0687e-06
6.1967e-08
-4.08727e-06
5.38589e-08
-4.10297e-06
4.56994e-08
-4.11578e-06
3.74933e-08
-4.12568e-06
2.92457e-08
-4.13267e-06
2.09616e-08
-4.13673e-06
1.26462e-08
-4.13786e-06
4.30457e-09
-4.13605e-06
-4.05797e-09
-4.13129e-06
-1.24362e-08
-4.12358e-06
-2.08246e-08
-4.11293e-06
-2.9218e-08
-4.09932e-06
-3.76107e-08
-4.08278e-06
-4.59973e-08
-4.06329e-06
-5.43721e-08
-4.04088e-06
-6.27295e-08
-4.01554e-06
-7.10637e-08
-3.98729e-06
-7.9369e-08
-3.95614e-06
-8.76394e-08
-3.9221e-06
-9.58691e-08
-3.88521e-06
-1.04052e-07
-3.84546e-06
-1.12182e-07
-3.80289e-06
-1.20254e-07
-3.75752e-06
-1.2826e-07
-3.70937e-06
-1.36195e-07
-3.65847e-06
-1.44053e-07
-3.60486e-06
-1.51827e-07
-3.54856e-06
-1.5951e-07
-3.48961e-06
-1.67098e-07
-3.42804e-06
-1.74583e-07
-3.3639e-06
-1.81958e-07
-3.29722e-06
-1.89219e-07
-3.22805e-06
-1.96357e-07
-3.15643e-06
-2.03367e-07
-3.08241e-06
-2.10242e-07
-3.00604e-06
-2.16976e-07
-2.92737e-06
-2.23563e-07
-2.84646e-06
-2.29997e-07
-2.76336e-06
-2.3627e-07
-2.67813e-06
-2.42378e-07
-2.59083e-06
-2.48314e-07
-2.50153e-06
-2.54072e-07
-2.41027e-06
-2.59646e-07
-2.31715e-06
-2.6503e-07
-2.22221e-06
-2.7022e-07
-2.12553e-06
-2.75209e-07
-2.02718e-06
-2.79991e-07
-1.92725e-06
-2.84564e-07
-1.82578e-06
-2.8892e-07
-1.72289e-06
-2.93057e-07
-1.61862e-06
-2.96967e-07
-1.51308e-06
-3.00653e-07
-1.40632e-06
-3.04101e-07
-1.29845e-06
-3.07322e-07
-1.18953e-06
-3.10295e-07
-1.07969e-06
-3.13046e-07
-9.68936e-07
-3.15535e-07
-8.57492e-07
-3.17811e-07
-7.45286e-07
-3.19759e-07
-6.32749e-07
-3.21369e-07
-5.19829e-07
-3.22047e-07
-4.07749e-07
-3.20844e-07
-2.9735e-07
-3.14467e-07
-1.93091e-07
-2.97404e-07
-9.99358e-08
-2.58774e-07
-3.10463e-08
-1.87255e-07
-7.33128e-08
-3.1007e-08
9.81634e-08
-1.00767e-07
2.46006e-07
-1.95057e-07
3.3812e-07
-3.00275e-07
3.8725e-07
-4.11472e-07
4.09182e-07
-5.24216e-07
4.1742e-07
-6.37794e-07
4.1927e-07
-7.51014e-07
4.18685e-07
-8.63979e-07
4.16986e-07
-9.76266e-07
4.1484e-07
-1.08796e-06
4.12321e-07
-1.19885e-06
4.09541e-07
-1.30893e-06
4.06465e-07
-1.41808e-06
4.03127e-07
-1.52625e-06
3.99505e-07
-1.63334e-06
3.95618e-07
-1.7393e-06
3.91455e-07
-1.84404e-06
3.87026e-07
-1.94749e-06
3.82329e-07
-2.04958e-06
3.77371e-07
-2.15025e-06
3.72151e-07
-2.24941e-06
3.66677e-07
-2.34701e-06
3.60949e-07
-2.44297e-06
3.54973e-07
-2.53722e-06
3.48752e-07
-2.62972e-06
3.4229e-07
-2.72038e-06
3.35593e-07
-2.80915e-06
3.28664e-07
-2.89596e-06
3.21508e-07
-2.98076e-06
3.1413e-07
-3.06349e-06
3.06535e-07
-3.14409e-06
2.98727e-07
-3.2225e-06
2.90712e-07
-3.29867e-06
2.82496e-07
-3.37255e-06
2.74082e-07
-3.44409e-06
2.65477e-07
-3.51323e-06
2.56687e-07
-3.57993e-06
2.47716e-07
-3.64415e-06
2.3857e-07
-3.70583e-06
2.29255e-07
-3.76494e-06
2.19777e-07
-3.82142e-06
2.10141e-07
-3.87525e-06
2.00354e-07
-3.92638e-06
1.90421e-07
-3.97478e-06
1.80349e-07
-4.02041e-06
1.70143e-07
-4.06324e-06
1.5981e-07
-4.10324e-06
1.49356e-07
-4.14037e-06
1.38788e-07
-4.17461e-06
1.2811e-07
-4.20593e-06
1.17331e-07
-4.2343e-06
1.06456e-07
-4.25971e-06
9.54918e-08
-4.28214e-06
8.44452e-08
-4.30155e-06
7.33229e-08
-4.31794e-06
6.21314e-08
-4.33129e-06
5.08776e-08
-4.34159e-06
3.95684e-08
-4.34882e-06
2.82107e-08
-4.35297e-06
1.68115e-08
-4.35404e-06
5.37788e-09
-4.35202e-06
-6.08298e-09
-4.34691e-06
-1.75638e-08
-4.33869e-06
-2.90574e-08
-4.32738e-06
-4.05562e-08
-4.31297e-06
-5.20528e-08
-4.29547e-06
-6.35396e-08
-4.27488e-06
-7.5009e-08
-4.25122e-06
-8.64532e-08
-4.22448e-06
-9.78644e-08
-4.19469e-06
-1.09235e-07
-4.16185e-06
-1.20556e-07
-4.12599e-06
-1.31821e-07
-4.08711e-06
-1.4302e-07
-4.04525e-06
-1.54146e-07
-4.00042e-06
-1.6519e-07
-3.95265e-06
-1.76145e-07
-3.90197e-06
-1.87001e-07
-3.8484e-06
-1.9775e-07
-3.79198e-06
-2.08384e-07
-3.73274e-06
-2.18893e-07
-3.67072e-06
-2.29271e-07
-3.60595e-06
-2.39506e-07
-3.53848e-06
-2.49592e-07
-3.46835e-06
-2.59519e-07
-3.39561e-06
-2.69279e-07
-3.3203e-06
-2.78863e-07
-3.24247e-06
-2.88262e-07
-3.16217e-06
-2.97469e-07
-3.07946e-06
-3.06473e-07
-2.9944e-06
-3.15267e-07
-2.90704e-06
-3.23842e-07
-2.81745e-06
-3.3219e-07
-2.72568e-06
-3.40303e-07
-2.63181e-06
-3.48172e-07
-2.5359e-06
-3.5579e-07
-2.43802e-06
-3.63149e-07
-2.33824e-06
-3.70242e-07
-2.23664e-06
-3.7706e-07
-2.13329e-06
-3.83597e-07
-2.02826e-06
-3.89846e-07
-1.92164e-06
-3.95799e-07
-1.81351e-06
-4.01453e-07
-1.70395e-06
-4.06798e-07
-1.59304e-06
-4.11833e-07
-1.48086e-06
-4.16546e-07
-1.36753e-06
-4.20945e-07
-1.25308e-06
-4.25007e-07
-1.13768e-06
-4.28755e-07
-1.02131e-06
-4.32149e-07
-9.04233e-07
-4.35223e-07
-7.86353e-07
-4.37858e-07
-6.68127e-07
-4.39972e-07
-5.4946e-07
-4.40863e-07
-4.31607e-07
-4.39156e-07
-3.15314e-07
-4.30758e-07
-2.05188e-07
-4.0814e-07
-1.06334e-07
-3.57304e-07
-3.29179e-08
-2.61534e-07
-1.06017e-07
-3.17743e-08
1.2947e-07
-1.03525e-07
3.18309e-07
-2.00336e-07
4.34256e-07
-3.08171e-07
4.95295e-07
-4.21957e-07
5.22529e-07
-5.37205e-07
5.32671e-07
-6.53257e-07
5.35e-07
-7.68917e-07
5.34245e-07
-8.84317e-07
5.32125e-07
-9.99022e-07
5.29398e-07
-1.11313e-06
5.26202e-07
-1.22641e-06
5.22651e-07
-1.33888e-06
5.18723e-07
-1.45038e-06
5.1445e-07
-1.56088e-06
5.09817e-07
-1.67029e-06
5.04839e-07
-1.77853e-06
4.9951e-07
-1.88552e-06
4.9384e-07
-1.99121e-06
4.87827e-07
-2.09549e-06
4.8148e-07
-2.19832e-06
4.748e-07
-2.29961e-06
4.67793e-07
-2.39929e-06
4.60463e-07
-2.4973e-06
4.52816e-07
-2.59357e-06
4.44857e-07
-2.68804e-06
4.36591e-07
-2.78063e-06
4.28024e-07
-2.87128e-06
4.19162e-07
-2.95993e-06
4.1001e-07
-3.04653e-06
4.00576e-07
-3.131e-06
3.90864e-07
-3.2133e-06
3.80882e-07
-3.29336e-06
3.70637e-07
-3.37113e-06
3.60134e-07
-3.44656e-06
3.4938e-07
-3.51959e-06
3.38384e-07
-3.59018e-06
3.27151e-07
-3.65827e-06
3.15688e-07
-3.72382e-06
3.04004e-07
-3.78677e-06
2.92104e-07
-3.8471e-06
2.79998e-07
-3.90475e-06
2.67691e-07
-3.95968e-06
2.55192e-07
-4.01186e-06
2.42509e-07
-4.06125e-06
2.29649e-07
-4.1078e-06
2.16619e-07
-4.1515e-06
2.03429e-07
-4.1923e-06
1.90085e-07
-4.23017e-06
1.76595e-07
-4.26509e-06
1.62969e-07
-4.29703e-06
1.49214e-07
-4.32596e-06
1.35338e-07
-4.35186e-06
1.2135e-07
-4.37472e-06
1.07257e-07
-4.3945e-06
9.30697e-08
-4.41119e-06
7.87952e-08
-4.42478e-06
6.44425e-08
-4.43525e-06
5.00204e-08
-4.44259e-06
3.55377e-08
-4.44679e-06
2.10033e-08
-4.44785e-06
6.42622e-09
-4.44574e-06
-8.18436e-09
-4.44048e-06
-2.28193e-08
-4.43205e-06
-3.74691e-08
-4.42047e-06
-5.21246e-08
-4.40572e-06
-6.67762e-08
-4.38781e-06
-8.14142e-08
-4.36676e-06
-9.60289e-08
-4.34256e-06
-1.1061e-07
-4.31523e-06
-1.25149e-07
-4.28478e-06
-1.39634e-07
-4.25122e-06
-1.54057e-07
-4.21458e-06
-1.68405e-07
-4.17486e-06
-1.8267e-07
-4.13209e-06
-1.96841e-07
-4.0863e-06
-2.10907e-07
-4.0375e-06
-2.24858e-07
-3.98573e-06
-2.38682e-07
-3.93102e-06
-2.5237e-07
-3.8734e-06
-2.6591e-07
-3.81289e-06
-2.79292e-07
-3.74955e-06
-2.92504e-07
-3.68341e-06
-3.05535e-07
-3.61451e-06
-3.18376e-07
-3.54289e-06
-3.31013e-07
-3.46861e-06
-3.43438e-07
-3.3917e-06
-3.55638e-07
-3.31223e-06
-3.67602e-07
-3.23024e-06
-3.79321e-07
-3.14578e-06
-3.90782e-07
-3.05892e-06
-4.01975e-07
-2.96972e-06
-4.1289e-07
-2.87824e-06
-4.23515e-07
-2.78454e-06
-4.33841e-07
-2.6887e-06
-4.43857e-07
-2.59076e-06
-4.53553e-07
-2.49082e-06
-4.6292e-07
-2.38894e-06
-4.71946e-07
-2.2852e-06
-4.80625e-07
-2.17967e-06
-4.88944e-07
-2.07244e-06
-4.96898e-07
-1.96357e-06
-5.04476e-07
-1.85317e-06
-5.11672e-07
-1.7413e-06
-5.18474e-07
-1.62806e-06
-5.24882e-07
-1.51352e-06
-5.30881e-07
-1.3978e-06
-5.36475e-07
-1.28095e-06
-5.41644e-07
-1.16313e-06
-5.46402e-07
-1.04432e-06
-5.50714e-07
-9.24796e-07
-5.54597e-07
-8.04451e-07
-5.5793e-07
-6.83756e-07
-5.60564e-07
-5.62583e-07
-5.61697e-07
-4.42194e-07
-5.59548e-07
-3.23279e-07
-5.49212e-07
-2.10505e-07
-5.21134e-07
-1.09104e-07
-4.57996e-07
-3.36827e-08
-3.37533e-07
-1.39208e-07
-3.1872e-08
1.6105e-07
-1.04405e-07
3.91624e-07
-2.02366e-07
5.31772e-07
-3.11482e-07
6.04907e-07
-4.26558e-07
6.37454e-07
-5.43044e-07
6.49481e-07
-6.603e-07
6.5225e-07
-7.77124e-07
6.51303e-07
-8.93674e-07
6.48742e-07
-1.00951e-06
6.45421e-07
-1.12475e-06
6.41538e-07
-1.23914e-06
6.37204e-07
-1.35271e-06
6.32413e-07
-1.46531e-06
6.27194e-07
-1.5769e-06
6.21536e-07
-1.68738e-06
6.15453e-07
-1.79668e-06
6.08943e-07
-1.90473e-06
6.02015e-07
-2.01144e-06
5.94669e-07
-2.11675e-06
5.86914e-07
-2.22058e-06
5.78754e-07
-2.32286e-06
5.70194e-07
-2.42351e-06
5.61241e-07
-2.52248e-06
5.51901e-07
-2.61969e-06
5.4218e-07
-2.71507e-06
5.32086e-07
-2.80856e-06
5.21624e-07
-2.90009e-06
5.10803e-07
-2.9896e-06
4.9963e-07
-3.07703e-06
4.88111e-07
-3.16232e-06
4.76256e-07
-3.24541e-06
4.64071e-07
-3.32624e-06
4.51565e-07
-3.40476e-06
4.38746e-07
-3.48091e-06
4.25623e-07
-3.55464e-06
4.12204e-07
-3.6259e-06
3.98497e-07
-3.69464e-06
3.84511e-07
-3.76081e-06
3.70255e-07
-3.82437e-06
3.55739e-07
-3.88527e-06
3.4097e-07
-3.94347e-06
3.25959e-07
-3.99892e-06
3.10715e-07
-4.0516e-06
2.95246e-07
-4.10145e-06
2.79562e-07
-4.14845e-06
2.63674e-07
-4.19255e-06
2.4759e-07
-4.23374e-06
2.3132e-07
-4.27197e-06
2.14874e-07
-4.30722e-06
1.98262e-07
-4.33946e-06
1.81494e-07
-4.36867e-06
1.6458e-07
-4.39482e-06
1.4753e-07
-4.41789e-06
1.30355e-07
-4.43786e-06
1.13064e-07
-4.45471e-06
9.56684e-08
-4.46843e-06
7.81787e-08
-4.479e-06
6.06054e-08
-4.48642e-06
4.29592e-08
-4.49066e-06
2.52511e-08
-4.49172e-06
7.492e-09
-4.4896e-06
-1.0307e-08
-4.48429e-06
-2.81347e-08
-4.47579e-06
-4.59798e-08
-4.4641e-06
-6.38308e-08
-4.44922e-06
-8.16762e-08
-4.43115e-06
-9.95042e-08
-4.4099e-06
-1.17303e-07
-4.38548e-06
-1.35061e-07
-4.3579e-06
-1.52766e-07
-4.32716e-06
-1.70405e-07
-4.29329e-06
-1.87967e-07
-4.25631e-06
-2.05438e-07
-4.21622e-06
-2.22807e-07
-4.17305e-06
-2.40061e-07
-4.12683e-06
-2.57186e-07
-4.07757e-06
-2.74171e-07
-4.02532e-06
-2.91001e-07
-3.97009e-06
-3.07665e-07
-3.91192e-06
-3.24148e-07
-3.85085e-06
-3.40438e-07
-3.78691e-06
-3.56522e-07
-3.72014e-06
-3.72385e-07
-3.65058e-06
-3.88016e-07
-3.57828e-06
-4.03399e-07
-3.50329e-06
-4.18523e-07
-3.42565e-06
-4.33373e-07
-3.34541e-06
-4.47937e-07
-3.26263e-06
-4.62201e-07
-3.17737e-06
-4.76151e-07
-3.08967e-06
-4.89776e-07
-2.99961e-06
-5.03061e-07
-2.90724e-06
-5.15994e-07
-2.81264e-06
-5.28563e-07
-2.71586e-06
-5.40754e-07
-2.61697e-06
-5.52556e-07
-2.51606e-06
-5.63957e-07
-2.41318e-06
-5.74945e-07
-2.30843e-06
-5.85508e-07
-2.20186e-06
-5.95636e-07
-2.09358e-06
-6.05318e-07
-1.98364e-06
-6.14542e-07
-1.87215e-06
-6.23301e-07
-1.75917e-06
-6.31582e-07
-1.64482e-06
-6.39381e-07
-1.52915e-06
-6.46682e-07
-1.41229e-06
-6.53488e-07
-1.29428e-06
-6.59778e-07
-1.17529e-06
-6.65561e-07
-1.05531e-06
-6.70803e-07
-9.34598e-07
-6.75508e-07
-8.13046e-07
-6.79553e-07
-6.91127e-07
-6.82728e-07
-5.68691e-07
-6.8413e-07
-4.47003e-07
-6.81576e-07
-3.26736e-07
-6.69321e-07
-2.12624e-07
-6.35769e-07
-1.10024e-07
-5.6013e-07
-3.37874e-08
-4.14593e-07
-1.7269e-07
-3.19867e-08
1.92605e-07
-1.04954e-07
4.65224e-07
-2.03551e-07
6.29742e-07
-3.13408e-07
7.15073e-07
-4.29245e-07
7.52923e-07
-5.46476e-07
7.66818e-07
-6.64461e-07
7.69997e-07
-7.81995e-07
7.6884e-07
-8.99246e-07
7.65823e-07
-1.01577e-06
7.61901e-07
-1.13169e-06
7.57322e-07
-1.24677e-06
7.52202e-07
-1.36102e-06
7.46545e-07
-1.47428e-06
7.40376e-07
-1.58654e-06
7.33688e-07
-1.69767e-06
7.26497e-07
-1.80763e-06
7.188e-07
-1.91631e-06
7.10608e-07
-2.02367e-06
7.01924e-07
-2.1296e-06
6.92756e-07
-2.23404e-06
6.83108e-07
-2.33693e-06
6.7299e-07
-2.43818e-06
6.62406e-07
-2.53773e-06
6.51366e-07
-2.63551e-06
6.39877e-07
-2.73146e-06
6.27946e-07
-2.8255e-06
6.15582e-07
-2.91757e-06
6.02794e-07
-3.00761e-06
5.89591e-07
-3.09555e-06
5.7598e-07
-3.18134e-06
5.61972e-07
-3.26492e-06
5.47576e-07
-3.34623e-06
5.32802e-07
-3.42521e-06
5.17658e-07
-3.50181e-06
5.02156e-07
-3.57597e-06
4.86305e-07
-3.64765e-06
4.70115e-07
-3.7168e-06
4.53596e-07
-3.78336e-06
4.3676e-07
-3.8473e-06
4.19617e-07
-3.90856e-06
4.02177e-07
-3.9671e-06
3.84451e-07
-4.02289e-06
3.66451e-07
-4.07587e-06
3.48187e-07
-4.12603e-06
3.29671e-07
-4.17331e-06
3.10913e-07
-4.21768e-06
2.91925e-07
-4.25912e-06
2.7272e-07
-4.29759e-06
2.53307e-07
-4.33305e-06
2.33699e-07
-4.3655e-06
2.13908e-07
-4.39489e-06
1.93946e-07
-4.42121e-06
1.73824e-07
-4.44443e-06
1.53555e-07
-4.46453e-06
1.33151e-07
-4.4815e-06
1.12624e-07
-4.49532e-06
9.19866e-08
-4.50598e-06
7.12514e-08
-4.51346e-06
5.0431e-08
-4.51775e-06
2.95383e-08
-4.51885e-06
8.58626e-09
-4.51674e-06
-1.24122e-08
-4.51143e-06
-3.34438e-08
-4.5029e-06
-5.44953e-08
-4.49117e-06
-7.55531e-08
-4.47623e-06
-9.66036e-08
-4.45809e-06
-1.17633e-07
-4.43675e-06
-1.38628e-07
-4.41221e-06
-1.59574e-07
-4.3845e-06
-1.80456e-07
-4.35362e-06
-2.01261e-07
-4.31958e-06
-2.21974e-07
-4.28241e-06
-2.4258e-07
-4.24211e-06
-2.63065e-07
-4.19872e-06
-2.83414e-07
-4.15226e-06
-3.03612e-07
-4.10274e-06
-3.23642e-07
-4.05021e-06
-3.43492e-07
-3.99468e-06
-3.63144e-07
-3.9362e-06
-3.82583e-07
-3.87479e-06
-4.01794e-07
-3.81049e-06
-4.20762e-07
-3.74335e-06
-4.3947e-07
-3.6734e-06
-4.57903e-07
-3.60069e-06
-4.76045e-07
-3.52527e-06
-4.9388e-07
-3.44719e-06
-5.11393e-07
-3.36648e-06
-5.28569e-07
-3.28322e-06
-5.4539e-07
-3.19746e-06
-5.61843e-07
-3.10925e-06
-5.7791e-07
-3.01865e-06
-5.93578e-07
-2.92573e-06
-6.08832e-07
-2.83056e-06
-6.23655e-07
-2.7332e-06
-6.38033e-07
-2.63371e-06
-6.51953e-07
-2.53218e-06
-6.654e-07
-2.42868e-06
-6.78359e-07
-2.32328e-06
-6.90818e-07
-2.21606e-06
-7.02763e-07
-2.1071e-06
-7.14183e-07
-1.99648e-06
-7.25063e-07
-1.8843e-06
-7.35394e-07
-1.77061e-06
-7.45162e-07
-1.65554e-06
-7.54359e-07
-1.53914e-06
-7.62972e-07
-1.42155e-06
-7.70996e-07
-1.30279e-06
-7.78414e-07
-1.18305e-06
-7.85227e-07
-1.0623e-06
-7.91405e-07
-9.40819e-07
-7.96942e-07
-8.18485e-07
-8.01708e-07
-6.95775e-07
-8.05442e-07
-5.72525e-07
-8.07131e-07
-4.50008e-07
-8.04205e-07
-3.28897e-07
-7.90047e-07
-2.13963e-07
-7.51027e-07
-1.10656e-07
-6.62779e-07
-3.393e-08
-4.91983e-07
-2.06168e-07
-3.20356e-08
2.24305e-07
-1.05324e-07
5.39265e-07
-2.04429e-07
7.28339e-07
-3.14899e-07
8.25994e-07
-4.31388e-07
8.6919e-07
-5.49273e-07
8.8497e-07
-6.67903e-07
8.8855e-07
-7.86066e-07
8.87174e-07
-9.03937e-07
8.8369e-07
-1.02107e-06
8.79158e-07
-1.13759e-06
8.73877e-07
-1.25326e-06
8.67964e-07
-1.3681e-06
8.61433e-07
-1.48195e-06
8.54306e-07
-1.59478e-06
8.46583e-07
-1.70649e-06
8.38275e-07
-1.81701e-06
8.29384e-07
-1.92625e-06
8.1992e-07
-2.03415e-06
8.09888e-07
-2.14063e-06
7.99296e-07
-2.24561e-06
7.88152e-07
-2.34902e-06
7.76464e-07
-2.45079e-06
7.64239e-07
-2.55085e-06
7.51487e-07
-2.64913e-06
7.38217e-07
-2.74557e-06
7.24438e-07
-2.84009e-06
7.1016e-07
-2.93263e-06
6.95392e-07
-3.02313e-06
6.80145e-07
-3.11152e-06
6.64429e-07
-3.19775e-06
6.48254e-07
-3.28176e-06
6.31633e-07
-3.36348e-06
6.14575e-07
-3.44287e-06
5.97092e-07
-3.51986e-06
5.79195e-07
-3.59441e-06
5.60897e-07
-3.66646e-06
5.42208e-07
-3.73596e-06
5.23141e-07
-3.80287e-06
5.03709e-07
-3.86714e-06
4.83922e-07
-3.92872e-06
4.63794e-07
-3.98757e-06
4.43338e-07
-4.04365e-06
4.22565e-07
-4.09692e-06
4.01489e-07
-4.14734e-06
3.80122e-07
-4.19487e-06
3.58478e-07
-4.23949e-06
3.36569e-07
-4.28116e-06
3.1441e-07
-4.31984e-06
2.92012e-07
-4.35551e-06
2.69391e-07
-4.38814e-06
2.46559e-07
-4.41771e-06
2.2353e-07
-4.44418e-06
2.00317e-07
-4.46755e-06
1.76936e-07
-4.48779e-06
1.53399e-07
-4.50487e-06
1.29722e-07
-4.5188e-06
1.05918e-07
-4.52954e-06
8.20015e-08
-4.53709e-06
5.79876e-08
-4.54144e-06
3.38908e-08
-4.54258e-06
9.72608e-09
-4.54051e-06
-1.44916e-08
-4.53521e-06
-3.87471e-08
-4.52668e-06
-6.3025e-08
-4.51493e-06
-8.73099e-08
-4.49996e-06
-1.11586e-07
-4.48177e-06
-1.35838e-07
-4.46036e-06
-1.60049e-07
-4.43574e-06
-1.84203e-07
-4.40793e-06
-2.08284e-07
-4.37694e-06
-2.32276e-07
-4.34277e-06
-2.56161e-07
-4.30545e-06
-2.79924e-07
-4.265e-06
-3.03546e-07
-4.22143e-06
-3.27011e-07
-4.17476e-06
-3.50302e-07
-4.12504e-06
-3.734e-07
-4.07227e-06
-3.9629e-07
-4.0165e-06
-4.18952e-07
-3.95775e-06
-4.41368e-07
-3.89606e-06
-4.63522e-07
-3.83146e-06
-4.85395e-07
-3.76401e-06
-5.06969e-07
-3.69373e-06
-5.28226e-07
-3.62067e-06
-5.49148e-07
-3.54488e-06
-5.69717e-07
-3.46641e-06
-5.89914e-07
-3.3853e-06
-6.09721e-07
-3.30162e-06
-6.29121e-07
-3.21542e-06
-6.48096e-07
-3.12676e-06
-6.66628e-07
-3.03569e-06
-6.84698e-07
-2.94229e-06
-7.02291e-07
-2.84662e-06
-7.19388e-07
-2.74874e-06
-7.35972e-07
-2.64873e-06
-7.52028e-07
-2.54665e-06
-7.67538e-07
-2.44259e-06
-7.82486e-07
-2.33661e-06
-7.96858e-07
-2.2288e-06
-8.10637e-07
-2.11924e-06
-8.2381e-07
-2.00801e-06
-8.36361e-07
-1.8952e-06
-8.48279e-07
-1.78088e-06
-8.59547e-07
-1.66516e-06
-8.70157e-07
-1.5481e-06
-8.80092e-07
-1.42984e-06
-8.89347e-07
-1.3104e-06
-8.97902e-07
-1.18997e-06
-9.05758e-07
-1.06853e-06
-9.12882e-07
-9.46337e-07
-9.19261e-07
-8.23282e-07
-9.2476e-07
-6.99838e-07
-9.29066e-07
-5.75836e-07
-9.31052e-07
-4.52558e-07
-9.27764e-07
-3.30688e-07
-9.11684e-07
-2.15041e-07
-8.6715e-07
-1.11132e-07
-7.66155e-07
-3.40138e-08
-5.69893e-07
-2.3983e-07
-3.21802e-08
2.56076e-07
-1.05829e-07
6.13587e-07
-2.05449e-07
8.27359e-07
-3.16524e-07
9.37424e-07
-4.33657e-07
9.85992e-07
-5.52197e-07
1.00367e-06
-6.71482e-07
1.00764e-06
-7.90292e-07
1.00604e-06
-9.08805e-07
1.00208e-06
-1.02657e-06
9.9693e-07
-1.14373e-06
9.90939e-07
-1.26001e-06
9.84228e-07
-1.37547e-06
9.76818e-07
-1.48993e-06
9.68729e-07
-1.60337e-06
9.59964e-07
-1.71567e-06
9.50534e-07
-1.82679e-06
9.40443e-07
-1.93661e-06
9.29702e-07
-2.04509e-06
9.18316e-07
-2.15214e-06
9.06295e-07
-2.25768e-06
8.93647e-07
-2.36164e-06
8.80382e-07
-2.46396e-06
8.66509e-07
-2.56455e-06
8.52038e-07
-2.66336e-06
8.36979e-07
-2.7603e-06
8.21344e-07
-2.85533e-06
8.05142e-07
-2.94836e-06
7.88386e-07
-3.03935e-06
7.71087e-07
-3.12821e-06
7.53256e-07
-3.2149e-06
7.34906e-07
-3.29936e-06
7.1605e-07
-3.38152e-06
6.96699e-07
-3.46133e-06
6.76867e-07
-3.53874e-06
6.56567e-07
-3.61369e-06
6.35812e-07
-3.68613e-06
6.14615e-07
-3.756e-06
5.9299e-07
-3.82328e-06
5.7095e-07
-3.88789e-06
5.4851e-07
-3.94981e-06
5.25684e-07
-4.00899e-06
5.02486e-07
-4.06538e-06
4.78931e-07
-4.11894e-06
4.55032e-07
-4.16965e-06
4.30804e-07
-4.21746e-06
4.06263e-07
-4.26233e-06
3.81423e-07
-4.30424e-06
3.56299e-07
-4.34315e-06
3.30906e-07
-4.37904e-06
3.0526e-07
-4.41187e-06
2.79376e-07
-4.44162e-06
2.53269e-07
-4.46827e-06
2.26955e-07
-4.49179e-06
2.0045e-07
-4.51217e-06
1.7377e-07
-4.52939e-06
1.4693e-07
-4.54342e-06
1.19948e-07
-4.55427e-06
9.28383e-08
-4.5619e-06
6.5619e-08
-4.56632e-06
3.83061e-08
-4.56751e-06
1.09166e-08
-4.56547e-06
-1.65326e-08
-4.56019e-06
-4.40244e-08
-4.55167e-06
-7.15414e-08
-4.53991e-06
-9.9066e-08
-4.52491e-06
-1.26581e-07
-4.50667e-06
-1.54067e-07
-4.4852e-06
-1.81508e-07
-4.46051e-06
-2.08884e-07
-4.4326e-06
-2.36178e-07
-4.4015e-06
-2.6337e-07
-4.3672e-06
-2.90442e-07
-4.32974e-06
-3.17374e-07
-4.28912e-06
-3.44148e-07
-4.24536e-06
-3.70744e-07
-4.1985e-06
-3.97143e-07
-4.14856e-06