/*--------------------------------*- C++ -*----------------------------------*\
| =========                 |                                                 |
| \\      /  F ield         | OpenFOAM: The Open Source CFD Toolbox           |
|  \\    /   O peration     | Version:  2406                                  |
|   \\  /    A nd           | Website:  www.openfoam.com                      |
|    \\/     M anipulation  |                                                 |
\*---------------------------------------------------------------------------*/
FoamFile
{
    version     2.0;
    format      ascii;
    arch        "LSB;label=32;scalar=64";
    class       volScalarField;
    location    "18.4";
    object      p;
}
// * * * * * * * * * * * * * * * * * * * * * * * * * * * * * * * * * * * * * //

dimensions      [0 2 -2 0 0 0 0];

internalField   nonuniform List<scalar> 
900
(
-4.65863e-09
-2.844e-05
-8.94249e-05
-0.000182082
-0.000304328
-0.000452787
-0.000625476
-0.000820148
-0.00103314
-0.00125353
-0.00145013
-0.00156444
-0.00152866
-0.00128572
-0.000789977
-7.54376e-06
0.00105789
0.00230982
0.0035151
0.0043307
0.00442805
0.00369363
0.00236392
0.000917376
-0.000228432
-0.000937464
-0.00130663
-0.00147557
-0.0015309
-0.00153606
2.87827e-05
-1.27913e-06
-6.09687e-05
-0.00015097
-0.000267908
-0.00040947
-0.000572449
-0.000755207
-0.000957823
-0.00118157
-0.00142611
-0.00166589
-0.00181903
-0.00177332
-0.00143787
-0.00075602
0.000277478
0.00155691
0.00283389
0.00374647
0.00393684
0.00325288
0.00189571
0.000387127
-0.000731251
-0.00130197
-0.0015032
-0.00155393
-0.00155118
-0.00154242
8.83252e-05
5.41901e-05
-7.82036e-06
-9.53028e-05
-0.000210135
-0.000351118
-0.000521288
-0.000735363
-0.001023
-0.00141564
-0.00191557
-0.00247048
-0.00297345
-0.00328447
-0.00326723
-0.00283068
-0.00197328
-0.00078286
0.000539086
0.00166929
0.00223783
0.00199822
0.00101592
-0.000275428
-0.00129514
-0.00176604
-0.00183568
-0.00176895
-0.00169778
-0.0016692
0.000170564
0.000135253
6.93175e-05
-2.19509e-05
-0.000149296
-0.000323282
-0.000573957
-0.000960238
-0.0015559
-0.00240146
-0.00345733
-0.00459506
-0.00564003
-0.00642593
-0.00681454
-0.0067191
-0.0061346
-0.00512386
-0.00380562
-0.00239534
-0.00119884
-0.000526959
-0.000534494
-0.00107099
-0.00171168
-0.00209654
-0.00215671
-0.00205741
-0.00195693
-0.00191484
0.000247278
0.000213368
0.000140817
3.41359e-05
-0.000136088
-0.000413842
-0.000888117
-0.00167822
-0.00287032
-0.00443765
-0.00622402
-0.00800493
-0.00956555
-0.0107499
-0.0114763
-0.0117167
-0.0114607
-0.0107228
-0.00955459
-0.00804905
-0.00636939
-0.00475391
-0.00345348
-0.00263122
-0.00229107
-0.00224937
-0.00229343
-0.00227269
-0.00221691
-0.00220097
0.000275345
0.000243249
0.000156521
1.03944e-05
-0.000261221
-0.000766448
-0.00167278
-0.00312368
-0.00511565
-0.00745871
-0.00985963
-0.0120426
-0.0138236
-0.0151243
-0.015946
-0.0163213
-0.0162667
-0.0157954
-0.0149241
-0.0136598
-0.0120127
-0.0100204
-0.00778836
-0.00556909
-0.0037522
-0.00267059
-0.00232808
-0.0024459
-0.00246179
-0.00250304
0.000196912
0.000162929
4.58448e-05
-0.000180739
-0.000643417
-0.00153482
-0.00307199
-0.00531856
-0.00807501
-0.010964
-0.0136286
-0.0158533
-0.0175641
-0.0187728
-0.0195282
-0.0198821
-0.0198833
-0.0195713
-0.0189612
-0.0180347
-0.0167311
-0.0149514
-0.0125992
-0.00968888
-0.00657459
-0.00402344
-0.00271745
-0.00258566
-0.00279432
-0.00284289
-5.08111e-05
-9.60417e-05
-0.00026865
-0.000630475
-0.00138563
-0.00279768
-0.0050517
-0.00802261
-0.0112876
-0.0143764
-0.0169997
-0.0190744
-0.0206378
-0.0217546
-0.0224719
-0.0228212
-0.0228401
-0.022569
-0.0220418
-0.0212694
-0.0202191
-0.0187923
-0.0168006
-0.0140124
-0.0104241
-0.00665448
-0.00387256
-0.00276957
-0.00336243
-0.00327494
-0.000520947
-0.000591594
-0.000849026
-0.00139989
-0.00252355
-0.00450843
-0.00741543
-0.0108916
-0.0143636
-0.0174073
-0.0198861
-0.0218495
-0.0233872
-0.0245494
-0.0253404
-0.0257498
-0.0257826
-0.0254723
-0.0248733
-0.0240397
-0.0230009
-0.0217259
-0.0200669
-0.017728
-0.0143968
-0.0101929
-0.0061762
-0.00389396
-0.00375357
-0.00393449
-0.00123851
-0.00134948
-0.00171628
-0.00249065
-0.00400486
-0.00651568
-0.00991216
-0.0136504
-0.0171255
-0.0200532
-0.0224585
-0.024468
-0.0261596
-0.0275245
-0.0285009
-0.0290253
-0.0290729
-0.0286696
-0.0278863
-0.0268206
-0.0255712
-0.024195
-0.0226286
-0.0206275
-0.0178269
-0.0139586
-0.00944302
-0.00549942
-0.00361781
-0.00509382
-0.00218883
-0.00235248
-0.00283977
-0.0038396
-0.00570715
-0.00862898
-0.0123322
-0.0161562
-0.019563
-0.022433
-0.0249131
-0.0271461
-0.0291551
-0.0308505
-0.0320976
-0.0327806
-0.0328452
-0.0323125
-0.0312709
-0.029857
-0.0282306
-0.0265332
-0.0247992
-0.022888
-0.0205514
-0.0173306
-0.0127974
-0.00753261
-0.00505372
-0.00644953
-0.0033156
-0.00353824
-0.0041401
-0.00533648
-0.00747987
-0.0106773
-0.0145406
-0.0183652
-0.0217247
-0.0246459
-0.027346
-0.0299403
-0.0323734
-0.0344695
-0.0360255
-0.0368808
-0.036959
-0.0362801
-0.0349509
-0.0331421
-0.0310578
-0.0288983
-0.0268021
-0.024749
-0.0226471
-0.0199479
-0.015763
-0.0102416
-0.00756114
-0.0068817
-0.00453499
-0.00481421
-0.00551008
-0.00685315
-0.00917797
-0.0125299
-0.0164597
-0.0202689
-0.0236394
-0.0267092
-0.0297234
-0.0327468
-0.0356401
-0.0381503
-0.0400159
-0.0410378
-0.0411217
-0.0402908
-0.0386726
-0.0364699
-0.0339208
-0.031256
-0.02871
-0.0263598
-0.0242421
-0.0218191
-0.0181888
-0.0130028
-0.00927884
-0.00595738
-0.00575305
-0.00607698
-0.00683531
-0.00826859
-0.0106829
-0.0140936
-0.018039
-0.0218477
-0.0252828
-0.0285535
-0.0319076
-0.0353561
-0.0386867
-0.0415839
-0.0437385
-0.0449146
-0.0449978
-0.0440162
-0.0421233
-0.0395531
-0.0365811
-0.0334448
-0.0304506
-0.0277287
-0.0254306
-0.0231153
-0.0200823
-0.0154216
-0.010572
-0.00529084
-0.00688603
-0.00723395
-0.00801802
-0.00948682
-0.011908
-0.015302
-0.019231
-0.0230552
-0.0265834
-0.0300557
-0.0337117
-0.037521
-0.0412186
-0.0444434
-0.0468469
-0.0481594
-0.0482419
-0.0471221
-0.044984
-0.0420903
-0.0387673
-0.035243
-0.0318669
-0.028786
-0.0262521
-0.023943
-0.0214256
-0.0173522
-0.0122609
-0.00620006
-0.00787119
-0.00821427
-0.00898971
-0.0104406
-0.0127995
-0.0161114
-0.0199842
-0.0238247
-0.0274478
-0.0310774
-0.0349459
-0.0390042
-0.0429599
-0.046423
-0.0490153
-0.0504367
-0.0505256
-0.0492962
-0.0469669
-0.0438161
-0.0402394
-0.0364282
-0.0327788
-0.029413
-0.0266887
-0.0243364
-0.022221
-0.0187452
-0.0142651
-0.00835634
-0.00867031
-0.00898447
-0.00971457
-0.0110926
-0.0133313
-0.0164918
-0.0202513
-0.0240898
-0.0277873
-0.0315038
-0.0354648
-0.039628
-0.0437033
-0.0472886
-0.0499853
-0.0514696
-0.0515718
-0.0502762
-0.0478413
-0.0445282
-0.0408253
-0.0368215
-0.0330659
-0.0294585
-0.0266796
-0.0242435
-0.0224677
-0.0195387
-0.0161136
-0.0107734
-0.00927208
-0.00953393
-0.0101845
-0.0114382
-0.013485
-0.0164257
-0.0200202
-0.0238127
-0.0275342
-0.0312621
-0.035192
-0.0393066
-0.0433467
-0.0469193
-0.0496215
-0.0511152
-0.0512297
-0.049931
-0.0474841
-0.0441384
-0.0404302
-0.0363358
-0.0326521
-0.0288282
-0.0261784
-0.0235883
-0.0221968
-0.0196649
-0.0173847
-0.0126918
-0.00968489
-0.00987575
-0.0104161
-0.0115032
-0.0132909
-0.015929
-0.0192867
-0.0229715
-0.0266602
-0.0303337
-0.0341324
-0.0380674
-0.0419301
-0.045357
-0.0479677
-0.0494166
-0.049544
-0.0482998
-0.0459337
-0.0426929
-0.0390545
-0.0350602
-0.0314159
-0.0275744
-0.0251044
-0.0223354
-0.0214322
-0.0190783
-0.0179488
-0.0138723
-0.00992611
-0.0100369
-0.0104426
-0.0113273
-0.0128064
-0.0150606
-0.0180804
-0.0215671
-0.0251662
-0.0287474
-0.0323649
-0.0360392
-0.0396229
-0.0428008
-0.0452393
-0.046599
-0.0467387
-0.0455958
-0.0433934
-0.0403415
-0.0368652
-0.0330481
-0.0294633
-0.0257672
-0.0234141
-0.020611
-0.0201795
-0.0177286
-0.0177979
-0.0142376
-0.0100244
-0.0100591
-0.0103164
-0.0109621
-0.012094
-0.0139002
-0.0164767
-0.0196488
-0.0230861
-0.0265562
-0.0300017
-0.0334079
-0.036681
-0.0395624
-0.0417841
-0.0430325
-0.0431863
-0.0421698
-0.0401732
-0.0373479
-0.0340806
-0.0304432
-0.0269779
-0.0234682
-0.0212345
-0.0185045
-0.0184775
-0.0157057
-0.0169189
-0.0133307
-0.0100088
-0.00997951
-0.0100829
-0.0104624
-0.0112182
-0.012539
-0.0145888
-0.0173259
-0.0205006
-0.0238263
-0.027137
-0.0303363
-0.0333486
-0.0359611
-0.0379756
-0.0391177
-0.0392881
-0.0383957
-0.0366018
-0.0339939
-0.0309281
-0.0274554
-0.0241493
-0.0208216
-0.0187641
-0.0161184
-0.0164434
-0.0132849
-0.015336
-0.0107764
-0.00991568
-0.00984064
-0.0097863
-0.00987345
-0.0102362
-0.0110647
-0.0125517
-0.0147598
-0.0175568
-0.0206688
-0.0238604
-0.0269342
-0.0297879
-0.0322234
-0.0340948
-0.0351667
-0.0353626
-0.0345753
-0.0329481
-0.0305193
-0.0276283
-0.0243118
-0.0211882
-0.0180332
-0.0162054
-0.013579
-0.0143282
-0.0106913
-0.0134653
-0.00775696
-0.00976865
-0.00965042
-0.00944146
-0.00922559
-0.0091929
-0.00955724
-0.0105022
-0.0121485
-0.0144787
-0.0172797
-0.0203093
-0.0232926
-0.026074
-0.0284353
-0.0302508
-0.0313078
-0.0315512
-0.0308648
-0.0293822
-0.0271122
-0.0243963
-0.0212563
-0.0183449
-0.0153546
-0.0137715
-0.0110336
-0.0123321
-0.00795879
-0.0120655
-0.00640959
-0.00962438
-0.00943379
-0.00906617
-0.00850995
-0.00811663
-0.00807321
-0.00855189
-0.00968938
-0.0115406
-0.0139583
-0.0167503
-0.0196136
-0.0223484
-0.0246962
-0.0265257
-0.0276254
-0.0279572
-0.0273989
-0.0260816
-0.0239965
-0.0214953
-0.0185743
-0.0159053
-0.0130545
-0.0116701
-0.00867245
-0.0104775
-0.00496183
-0.0111443
-0.00428554
-0.00948302
-0.0091562
-0.00865043
-0.00772763
-0.00704083
-0.00664651
-0.00677439
-0.00753005
-0.00897894
-0.0110241
-0.0135418
-0.0162396
-0.0189059
-0.021249
-0.0231255
-0.0243075
-0.0247684
-0.0243756
-0.0232796
-0.0214311
-0.0192025
-0.0165294
-0.0141219
-0.0113641
-0.0100831
-0.00677101
-0.00863519
-0.00169263
-0.00870747
0.00689028
-0.00972781
-0.00889454
-0.00821776
-0.00683787
-0.00599868
-0.00529897
-0.00523468
-0.00574551
-0.00692891
-0.00869491
-0.0109889
-0.0135199
-0.0161167
-0.0184485
-0.0203932
-0.021673
-0.0223012
-0.0220938
-0.0212496
-0.0196405
-0.0177173
-0.0152663
-0.0131022
-0.0103756
-0.00905388
-0.00547392
-0.00662411
0.00169033
-0.00212445
0.0263935
-0.0104198
-0.00869793
-0.00783707
-0.00599367
-0.00500215
-0.00408588
-0.00396067
-0.00433118
-0.00539326
-0.00700351
-0.00918063
-0.0115906
-0.0141603
-0.0164806
-0.0185109
-0.0198819
-0.0206879
-0.0206407
-0.0200318
-0.0186288
-0.0169605
-0.0146729
-0.0126701
-0.00991183
-0.00840103
-0.00440882
-0.00391571
0.00617563
0.0100551
0.0395969
-0.0156381
-0.00822709
-0.0074623
-0.00502927
-0.00414756
-0.00308895
-0.00298554
-0.00328153
-0.00433126
-0.00586498
-0.00803031
-0.0103626
-0.0129646
-0.0152616
-0.0174036
-0.0188121
-0.0198175
-0.0198443
-0.0195204
-0.0181599
-0.0168355
-0.0144508
-0.0128042
-0.00966696
-0.00811122
-0.00299416
0.00101547
0.0174846
0.0399658
0.0801403
-0.019704
-0.00799825
-0.00680059
-0.00471039
-0.00322828
-0.00229745
-0.00222617
-0.00254292
-0.00366378
-0.00518735
-0.00741338
-0.0097161
-0.0123705
-0.0146297
-0.0168443
-0.0182207
-0.0193242
-0.0193385
-0.0191258
-0.0177929
-0.0165339
-0.0142325
-0.0123899
-0.00944374
-0.00697923
-0.00162599
0.0095011
0.0420444
0.113416
0.229194
)
;

boundaryField
{
    movingWall
    {
        type            zeroGradient;
    }
    fixedWalls
    {
        type            zeroGradient;
    }
    frontAndBack
    {
        type            empty;
    }
}


// ************************************************************************* //
