/*--------------------------------*- C++ -*----------------------------------*\
| =========                 |                                                 |
| \\      /  F ield         | OpenFOAM: The Open Source CFD Toolbox           |
|  \\    /   O peration     | Version:  2406                                  |
|   \\  /    A nd           | Website:  www.openfoam.com                      |
|    \\/     M anipulation  |                                                 |
\*---------------------------------------------------------------------------*/
FoamFile
{
    version     2.0;
    format      ascii;
    arch        "LSB;label=32;scalar=64";
    class       volVectorField;
    location    "5.8";
    object      U;
}
// * * * * * * * * * * * * * * * * * * * * * * * * * * * * * * * * * * * * * //

dimensions      [0 1 -1 0 0 0 0];

internalField   nonuniform List<vector> 
900
(
(-3.39923e-05 8.2098e-06 0)
(-0.000706563 0.000165109 0)
(-0.00171848 0.000209615 0)
(-0.00275052 0.000227653 0)
(-0.00387983 0.000229731 0)
(-0.00498815 0.000239152 0)
(-0.00617483 0.00025109 0)
(-0.00737477 0.000269182 0)
(-0.00865454 0.00029038 0)
(-0.00997226 0.000315379 0)
(-0.0113688 0.000343438 0)
(-0.0128124 0.000373262 0)
(-0.0143223 0.000404599 0)
(-0.0158635 0.000433296 0)
(-0.0174285 0.000457847 0)
(-0.0189622 0.000469645 0)
(-0.0204173 0.000463969 0)
(-0.0216981 0.000426247 0)
(-0.0227031 0.000349038 0)
(-0.0232866 0.000214681 0)
(-0.0233 2.22687e-05 0)
(-0.0225871 -0.000235009 0)
(-0.0210275 -0.000527502 0)
(-0.0185926 -0.000832676 0)
(-0.0153356 -0.0010721 0)
(-0.0115665 -0.00121268 0)
(-0.00755152 -0.00116272 0)
(-0.00400259 -0.000947955 0)
(-0.00105947 -0.000501409 0)
(0.000181993 0.000115097 0)
(-0.000233256 0.000732901 0)
(-0.00163587 0.00154855 0)
(-0.00361523 0.00183534 0)
(-0.00565008 0.00195908 0)
(-0.00785378 0.0020154 0)
(-0.0100447 0.00207775 0)
(-0.0123544 0.00214718 0)
(-0.0146875 0.00223017 0)
(-0.0171317 0.00232187 0)
(-0.0196237 0.00241774 0)
(-0.0222132 0.00251438 0)
(-0.0248461 0.00259939 0)
(-0.0275357 0.00266638 0)
(-0.0302161 0.00269164 0)
(-0.0328551 0.00266108 0)
(-0.0353515 0.00253537 0)
(-0.0376118 0.00229005 0)
(-0.039478 0.00187057 0)
(-0.0407854 0.00125202 0)
(-0.0413211 0.000383985 0)
(-0.0408753 -0.000718032 0)
(-0.0392455 -0.00204977 0)
(-0.0362861 -0.00347666 0)
(-0.0319884 -0.00488807 0)
(-0.0264636 -0.00597665 0)
(-0.0201777 -0.00660965 0)
(-0.0135665 -0.0064302 0)
(-0.00766672 -0.00556911 0)
(-0.00264953 -0.00371647 0)
(-0.000112051 -0.000993818 0)
(-0.000315912 0.0018472 0)
(-0.00204965 0.00354454 0)
(-0.00448341 0.00418544 0)
(-0.00697502 0.00445224 0)
(-0.00966014 0.00458937 0)
(-0.0123287 0.00471827 0)
(-0.0151247 0.00486007 0)
(-0.0179412 0.00501938 0)
(-0.0208718 0.00519307 0)
(-0.0238457 0.00536632 0)
(-0.0269143 0.00553285 0)
(-0.030016 0.00566319 0)
(-0.0331618 0.00574213 0)
(-0.0362759 0.00571906 0)
(-0.0393193 0.00556263 0)
(-0.0421769 0.0051947 0)
(-0.0447431 0.00456631 0)
(-0.0468407 0.00357662 0)
(-0.0482853 0.00218144 0)
(-0.0488332 0.000296305 0)
(-0.0482437 -0.00204244 0)
(-0.0462626 -0.00481065 0)
(-0.0427054 -0.00774895 0)
(-0.0375064 -0.0106223 0)
(-0.0308102 -0.0128289 0)
(-0.0231444 -0.014064 0)
(-0.0152297 -0.0136155 0)
(-0.0083244 -0.01181 0)
(-0.00270044 -0.00802363 0)
(-7.24823e-05 -0.00259434 0)
(-0.000351051 0.00310543 0)
(-0.0022282 0.00575799 0)
(-0.00484834 0.00676616 0)
(-0.00751792 0.00717019 0)
(-0.01039 0.00738346 0)
(-0.0132408 0.00757242 0)
(-0.0162236 0.00777911 0)
(-0.019225 0.00800515 0)
(-0.0223439 0.00824949 0)
(-0.0255063 0.00848743 0)
(-0.028769 0.00871067 0)
(-0.0320696 0.0088734 0)
(-0.0354256 0.0089532 0)
(-0.038763 0.00887341 0)
(-0.042051 0.00858777 0)
(-0.0451779 0.00797944 0)
(-0.048045 0.00697588 0)
(-0.0504721 0.00542587 0)
(-0.0522675 0.00325957 0)
(-0.0531558 0.00034364 0)
(-0.0528454 -0.00328534 0)
(-0.0509841 -0.00760469 0)
(-0.0472777 -0.0122465 0)
(-0.0415103 -0.0168236 0)
(-0.0337977 -0.020371 0)
(-0.024724 -0.0222478 0)
(-0.015524 -0.0212861 0)
(-0.00781922 -0.0181412 0)
(-0.0021063 -0.0120073 0)
(8.68913e-05 -0.00378127 0)
(-0.000343538 0.00439543 0)
(-0.00224486 0.0080443 0)
(-0.00491349 0.00943745 0)
(-0.00762869 0.00998451 0)
(-0.0105524 0.0102809 0)
(-0.0134519 0.0105353 0)
(-0.0164893 0.0108161 0)
(-0.0195481 0.0111189 0)
(-0.0227355 0.0114486 0)
(-0.0259786 0.0117686 0)
(-0.0293445 0.0120721 0)
(-0.0327764 0.0122958 0)
(-0.0363072 0.0124135 0)
(-0.0398736 0.0123209 0)
(-0.0434649 0.0119593 0)
(-0.046984 0.0111685 0)
(-0.0503507 0.00984936 0)
(-0.0533895 0.00778614 0)
(-0.055902 0.0048652 0)
(-0.0575694 0.000871257 0)
(-0.0580161 -0.00419919 0)
(-0.0567318 -0.0103699 0)
(-0.0532103 -0.0171941 0)
(-0.046957 -0.0240907 0)
(-0.0379297 -0.0295815 0)
(-0.0267747 -0.0323294 0)
(-0.0155858 -0.0304731 0)
(-0.00667093 -0.0252088 0)
(-0.000993449 -0.015893 0)
(0.00036784 -0.00458032 0)
(-0.000334055 0.00570053 0)
(-0.0022128 0.0103707 0)
(-0.00485861 0.0121529 0)
(-0.00755356 0.0128428 0)
(-0.0104596 0.0132192 0)
(-0.0133425 0.0135378 0)
(-0.0163701 0.013893 0)
(-0.0194264 0.0142767 0)
(-0.0226273 0.0147007 0)
(-0.0259033 0.0151193 0)
(-0.0293354 0.0155305 0)
(-0.032876 0.0158563 0)
(-0.036579 0.0160721 0)
(-0.0403993 0.0160484 0)
(-0.0443562 0.0157191 0)
(-0.0483785 0.0148787 0)
(-0.0524193 0.0134002 0)
(-0.0563237 0.010986 0)
(-0.0598997 0.00745554 0)
(-0.0627939 0.00245995 0)
(-0.0645332 -0.00410985 0)
(-0.064408 -0.0124157 0)
(-0.061586 -0.0220116 0)
(-0.0551214 -0.0321251 0)
(-0.0445459 -0.0405592 0)
(-0.0305295 -0.0446368 0)
(-0.0163381 -0.041379 0)
(-0.00535338 -0.032777 0)
(0.000510663 -0.0190346 0)
(0.000735174 -0.00442482 0)
(-0.000307566 0.00690916 0)
(-0.00212563 0.012569 0)
(-0.00471236 0.0147386 0)
(-0.00735393 0.0155749 0)
(-0.01021 0.0160381 0)
(-0.0130449 0.016429 0)
(-0.0160322 0.0168729 0)
(-0.019056 0.0173557 0)
(-0.0222432 0.0179015 0)
(-0.025528 0.0184542 0)
(-0.0290093 0.0190233 0)
(-0.0326503 0.019516 0)
(-0.0365334 0.0199181 0)
(-0.0406363 0.0200754 0)
(-0.0450212 0.0199245 0)
(-0.0496553 0.0192119 0)
(-0.0545464 0.0177868 0)
(-0.0595856 0.0152523 0)
(-0.0646203 0.0113383 0)
(-0.0692982 0.00550015 0)
(-0.0730725 -0.00256596 0)
(-0.075037 -0.0133079 0)
(-0.0739406 -0.0264432 0)
(-0.0681791 -0.0411202 0)
(-0.0564196 -0.0541491 0)
(-0.0392558 -0.0605509 0)
(-0.0209655 -0.0555891 0)
(-0.00599994 -0.0420856 0)
(0.00182408 -0.0219157 0)
(0.00112339 -0.00333787 0)
(-0.000289166 0.0081446 0)
(-0.00203305 0.0148211 0)
(-0.00453308 0.0173883 0)
(-0.00709593 0.0183772 0)
(-0.00987341 0.0189267 0)
(-0.0126327 0.0193912 0)
(-0.0155503 0.0199254 0)
(-0.0185117 0.0205145 0)
(-0.0216543 0.0211961 0)
(-0.0249162 0.021908 0)
(-0.0284153 0.0226766 0)
(-0.032126 0.023399 0)
(-0.0361635 0.0240817 0)
(-0.0405321 0.0245508 0)
(-0.0453481 0.0247611 0)
(-0.0506325 0.0244145 0)
(-0.0564766 0.023352 0)
(-0.0628598 0.0210659 0)
(-0.0697343 0.0171895 0)
(-0.0768424 0.0109168 0)
(-0.0836808 0.00165934 0)
(-0.0892691 -0.0115301 0)
(-0.0919381 -0.0288141 0)
(-0.0891731 -0.0496209 0)
(-0.0781852 -0.0694721 0)
(-0.0593212 -0.080122 0)
(-0.0366205 -0.0746009 0)
(-0.0144587 -0.0556673 0)
(0.000947251 -0.0261006 0)
(0.00125694 -0.00153042 0)
(-0.000253746 0.009193 0)
(-0.00190116 0.016805 0)
(-0.00430114 0.0197572 0)
(-0.00677134 0.0208975 0)
(-0.00945656 0.0215387 0)
(-0.0121229 0.0220825 0)
(-0.0149507 0.022721 0)
(-0.0178235 0.023433 0)
(-0.0208913 0.0242791 0)
(-0.0240911 0.0251865 0)
(-0.0275639 0.0262099 0)
(-0.0312907 0.0272348 0)
(-0.0354257 0.0283052 0)
(-0.0399982 0.0292309 0)
(-0.0451937 0.0300104 0)
(-0.0510979 0.0303121 0)
(-0.0579253 0.030005 0)
(-0.0657971 0.0284854 0)
(-0.0748757 0.025323 0)
(-0.0851588 0.0194343 0)
(-0.0964309 0.00989152 0)
(-0.107901 -0.00502268 0)
(-0.117563 -0.026446 0)
(-0.121575 -0.0548069 0)
(-0.114951 -0.0839685 0)
(-0.0974724 -0.102055 0)
(-0.0709147 -0.100327 0)
(-0.0384738 -0.0797039 0)
(-0.0056524 -0.0375388 0)
(0.000897586 -0.00120052 0)
(-0.000231923 0.0103201 0)
(-0.00177629 0.0189209 0)
(-0.00405366 0.0222764 0)
(-0.00640805 0.023577 0)
(-0.00897342 0.0243047 0)
(-0.0115175 0.0249234 0)
(-0.014222 0.0256566 0)
(-0.0169681 0.0264871 0)
(-0.0199165 0.0274956 0)
(-0.0230009 0.028607 0)
(-0.0263838 0.0299085 0)
(-0.0300471 0.0312813 0)
(-0.0341844 0.0328217 0)
(-0.0388437 0.0343333 0)
(-0.0442844 0.0358924 0)
(-0.0506606 0.0371537 0)
(-0.0583397 0.0380804 0)
(-0.0676376 0.0380158 0)
(-0.0790568 0.0365797 0)
(-0.0930781 0.0324663 0)
(-0.110146 0.0244444 0)
(-0.129963 0.00962906 0)
(-0.149951 -0.0150083 0)
(-0.163568 -0.0521357 0)
(-0.162905 -0.0935275 0)
(-0.148137 -0.123997 0)
(-0.118793 -0.133382 0)
(-0.0776266 -0.120917 0)
(-0.0231042 -0.065277 0)
(0.000345036 -0.00628392 0)
(-0.000187415 0.0111532 0)
(-0.00160984 0.0206043 0)
(-0.00376007 0.0243358 0)
(-0.0059925 0.0257855 0)
(-0.00843178 0.0266022 0)
(-0.0108394 0.0272938 0)
(-0.0134018 0.0281318 0)
(-0.0159883 0.0290873 0)
(-0.0187754 0.0302782 0)
(-0.0216807 0.0316128 0)
(-0.0248937 0.0332291 0)
(-0.0283799 0.034994 0)
(-0.0323771 0.0370812 0)
(-0.0369289 0.0392877 0)
(-0.0423759 0.0418125 0)
(-0.0489161 0.0443223 0)
(-0.0570959 0.0469723 0)
(-0.0674424 0.0491542 0)
(-0.0809228 0.0507616 0)
(-0.0986644 0.050472 0)
(-0.121924 0.0467774 0)
(-0.150376 0.0346777 0)
(-0.179312 0.00710359 0)
(-0.198067 -0.0421051 0)
(-0.19908 -0.0997564 0)
(-0.186635 -0.146216 0)
(-0.159969 -0.171156 0)
(-0.119561 -0.175211 0)
(-0.0565264 -0.115733 0)
(-0.00210371 -0.0238175 0)
(-0.000166508 0.0121548 0)
(-0.00146576 0.0225589 0)
(-0.00346626 0.0266952 0)
(-0.00554951 0.0283064 0)
(-0.00783042 0.0291949 0)
(-0.010066 0.0299436 0)
(-0.0124454 0.0308523 0)
(-0.0148255 0.0319032 0)
(-0.0173952 0.0332364 0)
(-0.0200516 0.0347593 0)
(-0.0230063 0.0366569 0)
(-0.0261957 0.0387895 0)
(-0.0298941 0.0414206 0)
(-0.0341121 0.0443454 0)
(-0.0392558 0.0479303 0)
(-0.0455129 0.0518762 0)
(-0.0535759 0.0566588 0)
(-0.0640865 0.0618274 0)
(-0.078396 0.0678413 0)
(-0.097986 0.0733816 0)
(-0.124279 0.0760592 0)
(-0.155535 0.0665712 0)
(-0.184463 0.0323624 0)
(-0.199409 -0.0328635 0)
(-0.199249 -0.105321 0)
(-0.191012 -0.163436 0)
(-0.173829 -0.201166 0)
(-0.145243 -0.224191 0)
(-0.0937391 -0.183667 0)
(-0.016134 -0.0641574 0)
(-0.000113318 0.0127209 0)
(-0.00127574 0.0238581 0)
(-0.00313414 0.0283503 0)
(-0.00507636 0.0300944 0)
(-0.00720749 0.0310562 0)
(-0.00926817 0.0318482 0)
(-0.0114581 0.0328372 0)
(-0.013604 0.0339755 0)
(-0.0159202 0.0354607 0)
(-0.0182578 0.037162 0)
(-0.0208657 0.0393411 0)
(-0.0236147 0.0418194 0)
(-0.0268272 0.0449785 0)
(-0.0304201 0.0485838 0)
(-0.0348606 0.0532073 0)
(-0.0402074 0.0585714 0)
(-0.047236 0.0655556 0)
(-0.0564256 0.0738945 0)
(-0.0692096 0.0846801 0)
(-0.0866572 0.0961939 0)
(-0.109647 0.104188 0)
(-0.135071 0.0943229 0)
(-0.156313 0.0511118 0)
(-0.165032 -0.0273095 0)
(-0.1658 -0.10779 0)
(-0.161052 -0.171916 0)
(-0.152078 -0.21686 0)
(-0.137898 -0.255455 0)
(-0.105585 -0.24516 0)
(-0.0379952 -0.133278 0)
(-0.000101427 0.0136072 0)
(-0.00113344 0.0256666 0)
(-0.00282971 0.0305595 0)
(-0.00459739 0.0324599 0)
(-0.00654103 0.0334573 0)
(-0.00838576 0.0342653 0)
(-0.01034 0.0352618 0)
(-0.0122052 0.0364251 0)
(-0.0142134 0.0379659 0)
(-0.0161701 0.0397502 0)
(-0.0183531 0.0420903 0)
(-0.0205538 0.0447786 0)
(-0.0231345 0.0483068 0)
(-0.0258732 0.0523882 0)
(-0.0292782 0.0578097 0)
(-0.0331574 0.0642433 0)
(-0.03828 0.0729928 0)
(-0.0446252 0.0837846 0)
(-0.053387 0.0982387 0)
(-0.0645978 0.11372 0)
(-0.0789662 0.124498 0)
(-0.093711 0.112783 0)
(-0.106394 0.0630806 0)
(-0.112042 -0.0229669 0)
(-0.116627 -0.108366 0)
(-0.11438 -0.177421 0)
(-0.110986 -0.223872 0)
(-0.105376 -0.270372 0)
(-0.0880835 -0.284309 0)
(-0.0409237 -0.20849 0)
(-4.00507e-05 0.0138641 0)
(-0.000939973 0.0265042 0)
(-0.00249971 0.0317184 0)
(-0.00412818 0.0337137 0)
(-0.00592178 0.0347571 0)
(-0.00757337 0.0355512 0)
(-0.00931817 0.0365811 0)
(-0.0108973 0.037752 0)
(-0.0125957 0.039367 0)
(-0.0141273 0.0412063 0)
(-0.0158418 0.0436872 0)
(-0.0173929 0.0465031 0)
(-0.0192327 0.0502867 0)
(-0.0209161 0.0546252 0)
(-0.0230483 0.0605174 0)
(-0.0250354 0.0674655 0)
(-0.0276885 0.0771047 0)
(-0.0301761 0.0888903 0)
(-0.0335032 0.104826 0)
(-0.0363373 0.121549 0)
(-0.0400899 0.133326 0)
(-0.0431114 0.121132 0)
(-0.0485201 0.0703697 0)
(-0.0530219 -0.0169362 0)
(-0.0631831 -0.104627 0)
(-0.0665692 -0.178272 0)
(-0.0721018 -0.225527 0)
(-0.0731853 -0.27775 0)
(-0.0670811 -0.31012 0)
(-0.0309697 -0.262787 0)
(-5.06894e-05 0.0146894 0)
(-0.000832143 0.0282493 0)
(-0.00224501 0.0338526 0)
(-0.00368809 0.0359991 0)
(-0.00528265 0.0370145 0)
(-0.0066916 0.0377676 0)
(-0.00817049 0.0387016 0)
(-0.00942451 0.0397889 0)
(-0.0107686 0.0413124 0)
(-0.0118481 0.0430569 0)
(-0.0130667 0.0454763 0)
(-0.0139452 0.048199 0)
(-0.0150271 0.0519617 0)
(-0.0156199 0.0561963 0)
(-0.0164647 0.0620871 0)
(-0.0165014 0.0688359 0)
(-0.016703 0.0783543 0)
(-0.0153139 0.0895081 0)
(-0.0134949 0.104729 0)
(-0.00836743 0.120038 0)
(-0.00244662 0.131478 0)
(0.0058507 0.12052 0)
(0.00762489 0.0741274 0)
(0.00600032 -0.00827332 0)
(-0.00808074 -0.093778 0)
(-0.0173198 -0.169373 0)
(-0.0332128 -0.216921 0)
(-0.0429974 -0.275148 0)
(-0.0493825 -0.326136 0)
(-0.0257573 -0.30682 0)
(2.2377e-05 0.0146117 0)
(-0.000663552 0.0285618 0)
(-0.00197275 0.0344379 0)
(-0.0033111 0.0366025 0)
(-0.00479245 0.0376337 0)
(-0.00602145 0.0382862 0)
(-0.00732002 0.0392064 0)
(-0.00827786 0.0401988 0)
(-0.00932549 0.0417091 0)
(-0.00994818 0.0433539 0)
(-0.0107036 0.0457392 0)
(-0.010889 0.0483098 0)
(-0.0112546 0.0519654 0)
(-0.010763 0.0558951 0)
(-0.0104555 0.0614682 0)
(-0.00868684 0.0675002 0)
(-0.00690749 0.0760904 0)
(-0.00232266 0.0854244 0)
(0.00309104 0.0982099 0)
(0.0139616 0.110043 0)
(0.0261813 0.119408 0)
(0.0433482 0.110178 0)
(0.0514362 0.0714242 0)
(0.0543476 -0.00132204 0)
(0.0385901 -0.0799167 0)
(0.0249592 -0.153865 0)
(-0.000201267 -0.19923 0)
(-0.0171636 -0.261381 0)
(-0.0336182 -0.326796 0)
(-0.0195918 -0.338185 0)
(-3.48755e-05 0.0154902 0)
(-0.000637231 0.0304263 0)
(-0.00186197 0.0366651 0)
(-0.00302213 0.0389985 0)
(-0.00430814 0.0398985 0)
(-0.00528539 0.0404561 0)
(-0.00630555 0.0411365 0)
(-0.00693337 0.0419233 0)
(-0.00763441 0.043163 0)
(-0.00781872 0.0445188 0)
(-0.00813419 0.0466027 0)
(-0.00770601 0.0487783 0)
(-0.00747363 0.0520412 0)
(-0.00607539 0.055356 0)
(-0.00491014 0.0602678 0)
(-0.00175337 0.0651526 0)
(0.00127206 0.0723428 0)
(0.00795356 0.0792407 0)
(0.0149971 0.0889544 0)
(0.0287341 0.0964048 0)
(0.0428453 0.102616 0)
(0.0644475 0.0942187 0)
(0.0759584 0.064231 0)
(0.083228 0.00403102 0)
(0.0673177 -0.063075 0)
(0.0508827 -0.131615 0)
(0.0182156 -0.174083 0)
(-0.0034075 -0.242222 0)
(-0.0257232 -0.322806 0)
(-0.0160533 -0.360545 0)
(6.68686e-05 0.0150824 0)
(-0.000526234 0.0301686 0)
(-0.00170138 0.0366235 0)
(-0.00283323 0.0388108 0)
(-0.0040982 0.0397124 0)
(-0.00494084 0.0400402 0)
(-0.00587331 0.0406954 0)
(-0.00622946 0.041289 0)
(-0.00671851 0.0424788 0)
(-0.0064765 0.0436204 0)
(-0.00644243 0.0455708 0)
(-0.0054107 0.0474093 0)
(-0.00469718 0.0503566 0)
(-0.00247443 0.0530556 0)
(-0.000717087 0.0572715 0)
(0.00352309 0.0609673 0)
(0.00713336 0.066657 0)
(0.0150498 0.0712042 0)
(0.0221764 0.077898 0)
(0.0366614 0.0814157 0)
(0.0493695 0.0842601 0)
(0.0712187 0.0757982 0)
(0.0824844 0.0535204 0)
(0.0927704 0.00622699 0)
(0.0778401 -0.0465174 0)
(0.0623199 -0.106314 0)
(0.0266706 -0.144192 0)
(0.00527477 -0.218721 0)
(-0.0216789 -0.31313 0)
(-0.0141265 -0.380582 0)
(-9.14926e-05 0.0161923 0)
(-0.000662199 0.0324743 0)
(-0.00190135 0.0392185 0)
(-0.00287549 0.0416775 0)
(-0.00393093 0.0422701 0)
(-0.0045156 0.0424854 0)
(-0.00513342 0.0426973 0)
(-0.00517765 0.0429657 0)
(-0.00534675 0.0436841 0)
(-0.00473796 0.044363 0)
(-0.00439086 0.0458192 0)
(-0.00290824 0.0470601 0)
(-0.00188318 0.0494186 0)
(0.000894536 0.0512884 0)
(0.00291701 0.0546555 0)
(0.00777629 0.057061 0)
(0.0113944 0.0613372 0)
(0.0197227 0.0637434 0)
(0.0259487 0.0680675 0)
(0.0397978 0.0684548 0)
(0.0494865 0.068969 0)
(0.0690486 0.0599625 0)
(0.0771262 0.043868 0)
(0.0884665 0.00754692 0)
(0.0743205 -0.0311095 0)
(0.0622471 -0.0819867 0)
(0.0262275 -0.115332 0)
(0.00828711 -0.19546 0)
(-0.0222059 -0.30159 0)
(-0.0117214 -0.396967 0)
(0.00010404 0.0155379 0)
(-0.000623782 0.0316338 0)
(-0.00185519 0.0385504 0)
(-0.00292306 0.0404546 0)
(-0.00415792 0.0410797 0)
(-0.00467772 0.0408522 0)
(-0.00539563 0.041121 0)
(-0.00519426 0.0411277 0)
(-0.00528647 0.0418712 0)
(-0.00428158 0.0423043 0)
(-0.0037284 0.0436673 0)
(-0.00174532 0.0445355 0)
(-0.000486252 0.0465957 0)
(0.00285147 0.0478417 0)
(0.00498271 0.0505806 0)
(0.0103546 0.0519689 0)
(0.0136677 0.0550943 0)
(0.0221434 0.0559377 0)
(0.0270402 0.0584444 0)
(0.0398874 0.0568844 0)
(0.0462604 0.055869 0)
(0.0630032 0.0468302 0)
(0.0668456 0.0352225 0)
(0.0779287 0.00748134 0)
(0.0639916 -0.0188622 0)
(0.0562925 -0.0604883 0)
(0.0206405 -0.0884205 0)
(0.00747278 -0.173177 0)
(-0.0260264 -0.29124 0)
(-0.0103816 -0.415645 0)
(-0.000321254 0.0170618 0)
(-0.00114534 0.0348739 0)
(-0.00277372 0.0418694 0)
(-0.00369543 0.0444399 0)
(-0.00453896 0.044414 0)
(-0.00475051 0.0441348 0)
(-0.0049909 0.0436258 0)
(-0.00449393 0.0431663 0)
(-0.00425795 0.0431868 0)
(-0.0029794 0.0429856 0)
(-0.00223771 0.0437027 0)
(1.97129e-05 0.0438518 0)
(0.00134058 0.0452783 0)
(0.00493442 0.0456838 0)
(0.00693277 0.0477011 0)
(0.0124301 0.0480324 0)
(0.0151931 0.0502665 0)
(0.0233684 0.0497658 0)
(0.0268305 0.05129 0)
(0.0383893 0.0483256 0)
(0.0417806 0.0471224 0)
(0.0559665 0.0381742 0)
(0.0558033 0.0305976 0)
(0.0664251 0.00893607 0)
(0.051998 -0.00722797 0)
(0.0496522 -0.0408636 0)
(0.0150572 -0.0634196 0)
(0.00884717 -0.151923 0)
(-0.0292702 -0.280585 0)
(-0.00723134 -0.434413 0)
(0.000237685 0.0165908 0)
(-0.000970353 0.0335448 0)
(-0.00255237 0.0407135 0)
(-0.0037783 0.0415849 0)
(-0.00535966 0.0417357 0)
(-0.00559587 0.0406677 0)
(-0.00631142 0.040507 0)
(-0.00553173 0.0398037 0)
(-0.00538045 0.0401032 0)
(-0.00366005 0.0397375 0)
(-0.00280943 0.0405611 0)
(-7.0513e-05 0.0404181 0)
(0.00134624 0.0417445 0)
(0.00538389 0.0416622 0)
(0.00726438 0.043347 0)
(0.0130703 0.0429969 0)
(0.0152533 0.0446519 0)
(0.0233963 0.0433782 0)
(0.0254754 0.0441925 0)
(0.0362998 0.0407179 0)
(0.0371701 0.0393666 0)
(0.0498318 0.0312263 0)
(0.0464378 0.0262287 0)
(0.057004 0.0091883 0)
(0.0416036 6.79474e-05 0)
(0.0442655 -0.0267623 0)
(0.00987434 -0.0442695 0)
(0.0102746 -0.133474 0)
(-0.0344553 -0.27149 0)
(-0.00316929 -0.453994 0)
(-0.0011776 0.018231 0)
(-0.00295057 0.0383626 0)
(-0.00546872 0.0451173 0)
(-0.00635504 0.0480284 0)
(-0.00661504 0.0467959 0)
(-0.00635704 0.0457778 0)
(-0.00611269 0.0441895 0)
(-0.00505731 0.0427374 0)
(-0.00449541 0.04194 0)
(-0.00261603 0.0406927 0)
(-0.00167962 0.0407288 0)
(0.0011729 0.0397474 0)
(0.00247906 0.0404711 0)
(0.00657587 0.0395801 0)
(0.00814627 0.0407683 0)
(0.0138568 0.0395902 0)
(0.0154149 0.0408957 0)
(0.0231185 0.0387774 0)
(0.0240454 0.0396494 0)
(0.0338957 0.0355073 0)
(0.0328557 0.035271 0)
(0.0442742 0.0273917 0)
(0.0383869 0.0257002 0)
(0.0494571 0.0117057 0)
(0.0327597 0.00877368 0)
(0.0410466 -0.0123965 0)
(0.00683091 -0.0245458 0)
(0.0150807 -0.112703 0)
(-0.0384086 -0.261764 0)
(0.00319058 -0.474101 0)
(0.00108936 0.0203028 0)
(-0.000851164 0.0369918 0)
(-0.00385026 0.0436826 0)
(-0.00564548 0.0416405 0)
(-0.00844169 0.0411519 0)
(-0.00823031 0.0391006 0)
(-0.00915797 0.0386489 0)
(-0.00756022 0.0372486 0)
(-0.00722009 0.0372771 0)
(-0.00468034 0.0360964 0)
(-0.00362517 0.0366162 0)
(-0.000182268 0.0354817 0)
(0.00122518 0.0364312 0)
(0.00580915 0.03518 0)
(0.00724232 0.0364135 0)
(0.0133417 0.0347837 0)
(0.0143403 0.0360159 0)
(0.022327 0.0335744 0)
(0.0221087 0.0343508 0)
(0.0321404 0.0303925 0)
(0.0293398 0.0302839 0)
(0.0410635 0.0236701 0)
(0.0331953 0.0228588 0)
(0.0457287 0.0119127 0)
(0.0280384 0.0112934 0)
(0.0409429 -0.00542214 0)
(0.00662248 -0.0135055 0)
(0.0211618 -0.0953661 0)
(-0.0417936 -0.253524 0)
(0.011975 -0.492529 0)
(-0.00535155 0.0181633 0)
(-0.00887611 0.0444154 0)
(-0.0107773 0.0502879 0)
(-0.0115483 0.0540366 0)
(-0.0101606 0.0502187 0)
(-0.00944917 0.0476965 0)
(-0.00856559 0.0445008 0)
(-0.00685526 0.0416119 0)
(-0.00600722 0.0400089 0)
(-0.00350133 0.0375225 0)
(-0.00248466 0.0371266 0)
(0.000901204 0.0349757 0)
(0.00205968 0.0353849 0)
(0.00656873 0.0333155 0)
(0.00764403 0.0342541 0)
(0.0135572 0.031902 0)
(0.0140827 0.0331732 0)
(0.021627 0.0300219 0)
(0.0207638 0.0314982 0)
(0.0300328 0.0268214 0)
(0.0262983 0.028611 0)
(0.0373321 0.0215132 0)
(0.0280658 0.0241997 0)
(0.0415314 0.0140306 0)
(0.0221251 0.018172 0)
(0.040638 0.00470177 0)
(0.00552737 0.0021971 0)
(0.0325361 -0.07144 0)
(-0.0395096 -0.243392 0)
(0.0254697 -0.507914 0)
(0.00476582 0.0349883 0)
(-0.000762825 0.0410872 0)
(-0.0113668 0.046134 0)
(-0.0124275 0.0389892 0)
(-0.016661 0.038114 0)
(-0.0140669 0.0356763 0)
(-0.0146406 0.0351408 0)
(-0.0112672 0.0331996 0)
(-0.0105314 0.0333323 0)
(-0.00695273 0.0313381 0)
(-0.00569019 0.0319949 0)
(-0.00162389 0.029822 0)
(-0.000254734 0.0308982 0)
(0.00478611 0.0284696 0)
(0.00580707 0.0298941 0)
(0.0123251 0.02709 0)
(0.0123291 0.0287458 0)
(0.0208058 0.0253971 0)
(0.0187588 0.0270847 0)
(0.0296707 0.0229858 0)
(0.0239972 0.0245048 0)
(0.0379528 0.0194031 0)
(0.0262954 0.0207347 0)
(0.0444248 0.0141671 0)
(0.0232855 0.0153859 0)
(0.0479461 0.00515918 0)
(0.0124717 5.99877e-05 0)
(0.0506505 -0.0607012 0)
(-0.028042 -0.23791 0)
(0.0447415 -0.513386 0)
(-0.0113729 0.0121347 0)
(-0.0111814 0.0624783 0)
(-0.00283774 0.0618831 0)
(-0.0111763 0.0621418 0)
(-0.0100764 0.0532673 0)
(-0.0116832 0.0478049 0)
(-0.0120426 0.0433166 0)
(-0.0110055 0.0388011 0)
(-0.0105663 0.0371536 0)
(-0.00757949 0.0333036 0)
(-0.00644604 0.0330985 0)
(-0.00159565 0.029646 0)
(-0.000357544 0.0302308 0)
(0.00648617 0.0269239 0)
(0.00707812 0.0280809 0)
(0.0161805 0.0246073 0)
(0.0152187 0.026354 0)
(0.0269444 0.0222978 0)
(0.0232454 0.0248299 0)
(0.0380852 0.0196294 0)
(0.0298976 0.0233846 0)
(0.0488272 0.0164098 0)
(0.0331207 0.0221221 0)
(0.0587441 0.0131697 0)
(0.0301112 0.021058 0)
(0.0693913 0.0102867 0)
(0.0223242 0.00847196 0)
(0.0913105 -0.0395004 0)
(0.0177782 -0.219478 0)
(0.0813842 -0.497465 0)
(-0.0722206 0.0637551 0)
(-0.0591459 0.0293065 0)
(-0.0788481 0.0463183 0)
(-0.0553173 0.0421499 0)
(-0.0521832 0.036831 0)
(-0.0323273 0.0345557 0)
(-0.0251031 0.0329029 0)
(-0.00673542 0.0294096 0)
(-0.000164183 0.028999 0)
(0.0186741 0.0253908 0)
(0.0227879 0.0257097 0)
(0.0432447 0.0221295 0)
(0.0439691 0.023021 0)
(0.0670026 0.019452 0)
(0.0634145 0.0208413 0)
(0.0902267 0.0172407 0)
(0.0809515 0.0190165 0)
(0.113255 0.0154302 0)
(0.0961766 0.0173312 0)
(0.136362 0.0140571 0)
(0.108493 0.0154629 0)
(0.159765 0.013358 0)
(0.117416 0.0128588 0)
(0.183921 0.0131235 0)
(0.123865 0.00728174 0)
(0.210378 0.00571568 0)
(0.133766 -0.020109 0)
(0.237606 -0.0708013 0)
(0.133212 -0.221503 0)
(0.139668 -0.436746 0)
(0.0817093 0.132124 0)
(0.125248 0.0738877 0)
(0.175738 0.0578665 0)
(0.231649 0.0401019 0)
(0.255754 0.0323574 0)
(0.30002 0.0236246 0)
(0.312138 0.0199905 0)
(0.3525 0.0153854 0)
(0.355448 0.0137354 0)
(0.395235 0.0109669 0)
(0.390451 0.010282 0)
(0.431627 0.00847002 0)
(0.419662 0.00814449 0)
(0.463569 0.00699245 0)
(0.444558 0.00664347 0)
(0.492207 0.00607405 0)
(0.466067 0.00546923 0)
(0.518244 0.00543077 0)
(0.484785 0.00453974 0)
(0.542076 0.00477874 0)
(0.501072 0.0039215 0)
(0.563841 0.00373563 0)
(0.515092 0.00373791 0)
(0.583173 0.00151815 0)
(0.525747 0.0035524 0)
(0.596299 -0.0050963 0)
(0.519758 -0.00286595 0)
(0.571168 -0.0362743 0)
(0.399173 -0.0619687 0)
(0.296838 -0.199704 0)
)
;

boundaryField
{
    movingWall
    {
        type            fixedValue;
        value           uniform (1 0 0);
    }
    fixedWalls
    {
        type            noSlip;
    }
    frontAndBack
    {
        type            empty;
    }
}


// ************************************************************************* //
