/*--------------------------------*- C++ -*----------------------------------*\
| =========                 |                                                 |
| \\      /  F ield         | OpenFOAM: The Open Source CFD Toolbox           |
|  \\    /   O peration     | Version:  2406                                  |
|   \\  /    A nd           | Website:  www.openfoam.com                      |
|    \\/     M anipulation  |                                                 |
\*---------------------------------------------------------------------------*/
FoamFile
{
    version     2.0;
    format      ascii;
    arch        "LSB;label=32;scalar=64";
    class       surfaceScalarField;
    location    "22.4";
    object      phi;
}
// * * * * * * * * * * * * * * * * * * * * * * * * * * * * * * * * * * * * * //

dimensions      [0 3 -1 0 0 0 0];

oriented        oriented;

internalField   nonuniform List<scalar> 
1740
(
4.93045e-06
-4.91698e-06
1.31618e-05
-8.32649e-06
2.02099e-05
-7.0198e-06
2.39055e-05
-3.71035e-06
2.49841e-05
-1.04217e-06
2.42495e-05
7.64828e-07
2.23552e-05
1.94937e-06
1.87094e-05
3.69888e-06
1.04536e-05
8.37527e-06
-7.61399e-06
1.84255e-05
-4.00306e-05
3.29631e-05
-8.82725e-05
4.88005e-05
-0.000148755
6.09512e-05
-0.000212916
6.4525e-05
-0.000271586
5.90115e-05
-0.000318347
4.706e-05
-0.000348868
3.08373e-05
-0.000360196
1.1557e-05
-0.000350022
-9.87738e-06
-0.000317086
-3.28178e-05
-0.000261156
-5.56748e-05
-0.000184931
-7.63582e-05
-9.47028e-05
-9.01684e-05
-3.41791e-06
-9.18313e-05
6.99062e-05
-7.33204e-05
0.000104264
-3.47334e-05
9.31434e-05
1.15568e-05
5.76832e-05
3.50859e-05
2.18153e-05
3.62606e-05
2.18123e-05
9.05258e-06
-1.39092e-05
2.12821e-05
-2.06201e-05
3.01866e-05
-1.58876e-05
3.22222e-05
-5.79847e-06
2.71221e-05
4.01631e-06
1.35768e-05
1.4229e-05
-1.22253e-05
2.76909e-05
-5.72472e-05
4.87437e-05
-0.00012608
7.71565e-05
-0.00021544
0.000107317
-0.000313877
0.000130618
-0.000407562
0.000141765
-0.000487204
0.000139956
-0.000549596
0.000126257
-0.000594369
0.000103168
-0.000621375
7.34836e-05
-0.000630053
3.90516e-05
-0.000619675
7.43633e-07
-0.000589179
-4.06063e-05
-0.000537577
-8.46752e-05
-0.000464257
-0.000128938
-0.000370138
-0.000170584
-0.000259155
-0.000200844
-0.000140212
-0.000210877
-2.91111e-05
-0.000183844
5.14508e-05
-0.000115255
7.97476e-05
-1.61354e-05
6.27198e-05
5.14577e-05
2.74273e-05
7.14902e-05
4.87536e-05
9.92169e-06
-2.37712e-05
1.98474e-05
-3.05892e-05
2.27066e-05
-1.86673e-05
1.40512e-05
2.92082e-06
-8.98564e-06
2.71669e-05
-5.23698e-05
5.77669e-05
-0.000122611
9.80995e-05
-0.000220144
0.000146284
-0.000333093
0.000190043
-0.000443142
0.000217559
-0.000537775
0.000225571
-0.000613009
0.000217275
-0.000669311
0.000196471
-0.000708917
0.000166041
-0.000734133
0.000128575
-0.000746555
8.60345e-05
-0.000746915
3.95265e-05
-0.000735149
-1.10682e-05
-0.000710291
-6.55012e-05
-0.000670582
-0.000124675
-0.000613701
-0.000186024
-0.000537021
-0.00024781
-0.000439477
-0.000298729
-0.000322187
-0.000328857
-0.000193756
-0.000312299
-7.17155e-05
-0.000237394
8.36552e-06
-9.52999e-05
2.90008e-05
3.06775e-05
1.45192e-05
8.64561e-05
6.3391e-05
7.01204e-06
-3.08287e-05
7.93036e-06
-3.1618e-05
-4.01819e-06
-6.77678e-06
-3.45204e-05
3.33545e-05
-8.91971e-05
8.17667e-05
-0.000172722
0.00014117
-0.00028065
0.000205823
-0.000396402
0.000261884
-0.000501453
0.000294865
-0.000586679
0.000302402
-0.000651322
0.000289794
-0.000697351
0.000262968
-0.000727795
0.000226656
-0.000746203
0.000184216
-0.000755695
0.000137904
-0.000758574
8.87526e-05
-0.000756162
3.70783e-05
-0.00074897
-1.83445e-05
-0.000736421
-7.79415e-05
-0.000716817
-0.000144314
-0.000686991
-0.000215642
-0.000641973
-0.000292905
-0.000575941
-0.000364635
-0.000482164
-0.000422895
-0.00035875
-0.000435755
-0.000211534
-0.000384674
-7.39729e-05
-0.000232572
-2.78376e-06
-4.06951e-05
3.87328e-06
7.99549e-05
6.70771e-05
-9.52353e-08
-3.06328e-05
-1.40465e-05
-1.75249e-05
-4.73376e-05
2.66555e-05
-0.000105114
9.134e-05
-0.00018982
0.000166594
-0.000295604
0.000247083
-0.000406281
0.000316544
-0.000503829
0.000359444
-0.000579095
0.00037018
-0.000631816
0.000355335
-0.000665092
0.000323337
-0.00068302
0.000281181
-0.000690008
0.000233934
-0.000689967
0.000184436
-0.000686027
0.000134256
-0.000680536
8.34782e-05
-0.000675067
3.19108e-05
-0.000670781
-2.2486e-05
-0.000667968
-8.04287e-05
-0.000666121
-0.000146104
-0.000662786
-0.000218646
-0.000652907
-0.000302849
-0.000628242
-0.000389127
-0.000576519
-0.000474945
-0.000485306
-0.000527043
-0.000346355
-0.000524272
-0.000170825
-0.000407509
-3.34125e-05
-0.000178885
4.52745e-06
4.26571e-05
7.15216e-05
-1.26382e-05
-1.81484e-05
-4.59954e-05
1.58149e-05
-0.000101825
8.23208e-05
-0.000181086
0.000170552
-0.000279125
0.000264449
-0.000382007
0.0003498
-0.000472622
0.000406937
-0.000539648
0.000426358
-0.000581971
0.0004124
-0.000603723
0.000377012
-0.000610077
0.000329628
-0.000606253
0.00027732
-0.000596681
0.000224361
-0.000584715
0.000172456
-0.000572626
0.000122235
-0.000561991
7.28482e-05
-0.000553828
2.39204e-05
-0.000549411
-2.68865e-05
-0.000549699
-7.982e-05
-0.000555912
-0.000139869
-0.000567747
-0.000206333
-0.000582677
-0.000287865
-0.000593927
-0.000377357
-0.000587984
-0.0004808
-0.000547309
-0.000567477
-0.000449707
-0.00062212
-0.000285382
-0.000571508
-8.90961e-05
-0.000376641
5.88703e-06
-5.1155e-05
7.7046e-05
-2.6373e-05
8.29052e-06
-7.73909e-05
6.71579e-05
-0.00014923
0.000154206
-0.000237314
0.000258865
-0.000332045
0.000359175
-0.000417665
0.000435508
-0.000481345
0.00047067
-0.000518971
0.000464155
-0.000534733
0.000428334
-0.000534827
0.00037732
-0.000525421
0.000320409
-0.000511836
0.00026389
-0.000497588
0.000210254
-0.000484599
0.000159528
-0.000473371
0.000111108
-0.000463929
6.33571e-05
-0.000456032
1.61156e-05
-0.000450433
-3.26665e-05
-0.000448165
-8.19517e-05
-0.000451718
-0.000136625
-0.000463033
-0.000194771
-0.000483237
-0.000268002
-0.000509799
-0.000350436
-0.000532773
-0.000457955
-0.000536004
-0.000564049
-0.00049089
-0.000666747
-0.000376956
-0.000686425
-0.000175716
-0.000576853
-1.06442e-05
-0.000217671
6.71214e-05
-3.8498e-05
4.65345e-05
-0.000101873
0.000130583
-0.000180668
0.000232668
-0.000266601
0.000344713
-0.00034851
0.000440792
-0.000412437
0.000499309
-0.000451252
0.000509358
-0.00046644
0.000479317
-0.000465158
0.000426985
-0.000454602
0.000366703
-0.000441199
0.000306927
-0.000429253
0.000251851
-0.000420431
0.000201374
-0.000414542
0.000153532
-0.00041004
0.000106613
-0.000405499
5.86897e-05
-0.000399655
1.0378e-05
-0.00039286
-3.96512e-05
-0.000386016
-8.85595e-05
-0.000382222
-0.000140738
-0.000384717
-0.000191904
-0.000397487
-0.000255676
-0.000422203
-0.000325253
-0.000454202
-0.000426296
-0.000481513
-0.000536316
-0.000478139
-0.000669822
-0.000416279
-0.000748876
-0.000261831
-0.000730165
-5.22342e-05
-0.000430715
1.66363e-05
-4.46816e-05
9.12534e-05
-0.000112908
0.000199178
-0.000190591
0.000310263
-0.000267645
0.000421954
-0.000333623
0.00050672
-0.00037792
0.000543776
-0.000398453
0.000530026
-0.000400426
0.000481513
-0.000392442
0.00041915
-0.000381835
0.000356246
-0.000374219
0.000299421
-0.000371837
0.000249539
-0.000373998
0.000203623
-0.000378377
0.000157904
-0.000381952
0.000110285
-0.000382572
5.92032e-05
-0.000378604
6.55441e-06
-0.000370285
-4.82175e-05
-0.0003583
-0.00010029
-0.000345749
-0.000153718
-0.000336166
-0.000201069
-0.000335188
-0.000257258
-0.000347835
-0.000312055
-0.000375072
-0.000399655
-0.00041047
-0.000500353
-0.000432865
-0.000647469
-0.000411549
-0.000769691
-0.000312287
-0.000829289
-0.00011714
-0.000626257
-9.90736e-05
-4.54519e-05
0.00013648
-0.000112462
0.000266237
-0.000183906
0.000381331
-0.000249282
0.000487225
-0.000299981
0.000557144
-0.000328994
0.000572733
-0.000338182
0.000539117
-0.000334826
0.0004781
-0.000327848
0.000412038
-0.000323923
0.000352186
-0.000326865
0.000302222
-0.000336411
0.000258922
-0.000349716
0.000216841
-0.000363134
0.000171153
-0.000373192
0.000120351
-0.00037785
6.36556e-05
-0.000375607
4.45349e-06
-0.000366759
-5.73741e-05
-0.00035166
-0.000115071
-0.000332904
-0.000172966
-0.000313308
-0.000220143
-0.000298572
-0.000272712
-0.000295056
-0.000314886
-0.000308694
-0.000386824
-0.000339574
-0.000468797
-0.000373339
-0.000614075
-0.000381908
-0.000760538
-0.000324882
-0.000886171
-0.000175862
-0.000775881
-0.000274942
-4.0677e-05
0.000177253
-0.00010128
0.000327155
-0.000163068
0.000443027
-0.000216165
0.000540487
-0.00025412
0.000595104
-0.000273105
0.000591973
-0.000277347
0.000543546
-0.000274832
0.000475813
-0.000273931
0.00041128
-0.000279815
0.000358209
-0.000293921
0.000316451
-0.000313719
0.000278792
-0.000335116
0.000238375
-0.000354251
0.000190277
-0.000368042
0.000134319
-0.000375008
7.049e-05
-0.00037397
3.68086e-06
-0.000365377
-6.62818e-05
-0.000349271
-0.000130758
-0.00032769
-0.000195102
-0.000302312
-0.000244888
-0.000277984
-0.000297856
-0.000260218
-0.00033183
-0.000257697
-0.000390328
-0.000275399
-0.000450272
-0.000306903
-0.000583266
-0.000329354
-0.000737443
-0.000299809
-0.000915393
-0.000187507
-0.000889463
-0.000463087
-3.26042e-05
0.000209728
-8.39213e-05
0.000378445
-0.000134987
0.000493784
-0.000176743
0.000582099
-0.000204829
0.000622966
-0.000217803
0.000604894
-0.000221106
0.000546727
-0.000222438
0.000477012
-0.000228821
0.00041747
-0.000243446
0.000372622
-0.000265548
0.000338373
-0.000291379
0.00030439
-0.000316659
0.000263563
-0.000338111
0.000211482
-0.0003533
0.000149553
-0.000361377
7.82574e-05
-0.000361397
3.93257e-06
-0.000354023
-7.41048e-05
-0.000339003
-0.000145319
-0.000318011
-0.000216767
-0.000291459
-0.000270731
-0.00026318
-0.000327068
-0.000236593
-0.000357488
-0.000221198
-0.000406857
-0.000224665
-0.000445843
-0.000247815
-0.000561072
-0.000273542
-0.000710853
-0.000260062
-0.000928339
-0.000171144
-0.000978686
-0.000634533
-2.19553e-05
0.000231859
-6.17885e-05
0.000418479
-0.000101443
0.000533433
-0.000133022
0.000613815
-0.00015376
0.000643793
-0.000163918
0.000615347
-0.000168863
0.000551898
-0.000175053
0.000483439
-0.00018767
0.00043027
-0.000208038
0.000393143
-0.000234086
0.000364611
-0.000261862
0.000332256
-0.000287576
0.000289524
-0.000308788
0.000232691
-0.000323673
0.000164773
-0.000331929
8.63454e-05
-0.000332706
5.17575e-06
-0.000326943
-8.02747e-05
-0.000314163
-0.000157447
-0.000296068
-0.000235558
-0.00027188
-0.000294049
-0.000244637
-0.000355299
-0.00021508
-0.00038597
-0.000191963
-0.000431204
-0.000183333
-0.000453335
-0.00019655
-0.000549039
-0.000221472
-0.000684924
-0.000219718
-0.000929877
-0.000151863
-0.0010466
-0.000786839
-1.0607e-05
0.000242414
-3.82541e-05
0.000445957
-6.69196e-05
0.000561891
-8.95226e-05
0.000636195
-0.000104606
0.000658695
-0.000113264
0.000623897
-0.000120043
0.000558531
-0.000129757
0.000492938
-0.00014569
0.000445985
-0.000167922
0.000415083
-0.000193862
0.000390367
-0.000220123
0.000358196
-0.000243676
0.000313015
-0.00026303
0.00025168
-0.000276739
0.00017861
-0.000284892
9.40337e-05
-0.000286477
7.1288e-06
-0.000282702
-8.46979e-05
-0.000272824
-0.00016668
-0.000259017
-0.000250245
-0.000239563
-0.000312583
-0.000217172
-0.000378815
-0.000190121
-0.000411869
-0.000165611
-0.00045708
-0.000149871
-0.000467815
-0.000154527
-0.000545794
-0.000176049
-0.000662154
-0.000182018
-0.000924036
-0.000132179
-0.00109599
-0.000919588
1.1222e-06
0.000241546
-1.37565e-05
0.000460914
-3.14903e-05
0.000579746
-4.60333e-05
0.000650849
-5.64979e-05
0.000669334
-6.44376e-05
0.000632141
-7.28676e-05
0.000567248
-8.45528e-05
0.000504865
-0.000101007
0.000462697
-0.00012167
0.000435898
-0.000144306
0.000413304
-0.000166598
0.00038057
-0.000186411
0.000333238
-0.000203047
0.000268275
-0.000215165
0.000191272
-0.000223118
0.000101732
-0.000225543
1.02755e-05
-0.000223923
-8.68621e-05
-0.000217097
-0.000172588
-0.000207999
-0.0002602
-0.000194267
-0.00032518
-0.000178698
-0.000395528
-0.000157618
-0.000431607
-0.000136744
-0.000479384
-0.00011944
-0.000483661
-0.000119497
-0.000547342
-0.000138633
-0.000641538
-0.000150854
-0.000912431
-0.000115846
-0.00113019
-0.00103611
1.18391e-05
0.000229695
9.57329e-06
0.000462834
2.31986e-06
0.000586887
-4.4402e-06
0.000657276
-1.03616e-05
0.000675107
-1.6875e-05
0.000638447
-2.53088e-05
0.000575541
-3.65157e-05
0.000515763
-5.05421e-05
0.000476517
-6.68973e-05
0.000451854
-8.40268e-05
0.000430286
-0.000100879
0.000396972
-0.000115972
0.000348348
-0.000129313
0.000281075
-0.000139523
0.000201724
-0.000147332
0.000108839
-0.000150906
1.43724e-05
-0.000152024
-8.66495e-05
-0.000148841
-0.000174957
-0.000144996
-0.000265181
-0.000137692
-0.000331381
-0.000130111
-0.000404469
-0.000117192
-0.000443139
-0.000103558
-0.000494641
-8.92957e-05
-0.000496326
-8.85959e-05
-0.000549912
-0.000106533
-0.000621823
-0.000124372
-0.000895696
-0.000102258
-0.0011511
-0.00113918
2.14131e-05
0.000208626
3.16151e-05
0.000452627
3.48829e-05
0.000583881
3.55485e-05
0.00065672
3.42059e-05
0.000676717
2.94473e-05
0.000643503
2.17479e-05
0.000583621
1.22035e-05
0.000525548
2.09015e-06
0.000487012
-8.27962e-06
0.000462344
-1.83137e-05
0.000440773
-2.83136e-05
0.000406985
-3.74919e-05
0.000358137
-4.66071e-05
0.000290044
-5.42172e-05
0.000210141
-6.15179e-05
0.000115753
-6.61597e-05
2.00295e-05
-7.03142e-05
-8.31752e-05
-7.13435e-05
-0.000172722
-7.32617e-05
-0.00026427
-7.28014e-05
-0.000330436
-7.36551e-05
-0.000404931
-6.98478e-05
-0.000445284
-6.56064e-05
-0.000500561
-5.80103e-05
-0.000502023
-6.06346e-05
-0.000549383
-7.95762e-05
-0.000600724
-0.000103
-0.0008739
-9.15638e-05
-0.00116089
-0.00123165
2.85017e-05
0.000180114
5.06462e-05
0.000429941
6.43228e-05
0.000570147
7.31422e-05
0.000647419
7.74447e-05
0.000672294
7.60952e-05
0.00064449
7.09644e-05
0.000588634
6.46623e-05
0.000531402
5.9836e-05
0.000491679
5.64495e-05
0.000465173
5.4363e-05
0.000442801
5.18393e-05
0.000408872
4.91893e-05
0.000360945
4.48261e-05
0.000293637
4.03669e-05
0.000215015
3.39351e-05
0.000121234
2.82521e-05
2.6414e-05
2.06512e-05
-7.6728e-05
1.44977e-05
-0.0001656
5.81799e-06
-0.000256988
-1.38837e-06
-0.000321978
-1.1218e-05
-0.000396756
-1.70147e-05
-0.000437849
-2.32544e-05
-0.000496335
-2.44096e-05
-0.000498823
-3.32774e-05
-0.000543038
-5.50628e-05
-0.000576416
-8.47189e-05
-0.000846532
-8.2891e-05
-0.0011606
-0.00131564
3.29307e-05
0.000147649
6.61977e-05
0.00039667
9.04917e-05
0.000546259
0.000107297
0.000630769
0.000117618
0.000662354
0.000120142
0.000642257
0.000117873
0.000591422
0.000114772
0.000534724
0.000114853
0.00049217
0.000118251
0.000461817
0.000124301
0.000437421
0.000129885
0.000403156
0.000134699
0.000356988
0.000136138
0.000291871
0.000135878
0.000216354
0.000131231
0.000125325
0.000125081
3.38674e-05
0.000114367
-6.68191e-05
0.000103045
-0.00015279
8.73752e-05
-0.000242446
7.23432e-05
-0.000305244
5.35762e-05
-0.000379488
3.83482e-05
-0.000420541
2.13371e-05
-0.000481342
1.02697e-05
-0.000485201
-7.12518e-06
-0.00052842
-3.33193e-05
-0.000547024
-6.96716e-05
-0.000813087
-7.59729e-05
-0.00115149
-0.00139287
3.34765e-05
0.000114116
7.64778e-05
0.000352907
0.000111265
0.000511424
0.000137585
0.000603742
0.000155864
0.000643972
0.000164642
0.000632876
0.000167266
0.000588725
0.000168191
0.000533136
0.000173052
0.00048724
0.000182356
0.000451713
0.000195751
0.000424101
0.000208844
0.000389157
0.000220902
0.000345265
0.000228046
0.00028369
0.000231966
0.00021304
0.000229232
0.00012685
0.000222761
4.11916e-05
0.000209129
-5.45923e-05
0.000192719
-0.0001353
0.000170043
-0.000221452
0.000147235
-0.00028105
0.000119722
-0.000354015
9.54378e-05
-0.000394347
6.7798e-05
-0.00045631
4.65201e-05
-0.000461309
1.9261e-05
-0.000504689
-1.23711e-05
-0.000511782
-5.63495e-05
-0.000773101
-7.00817e-05
-0.00113429
-0.00146462
3.11596e-05
8.35793e-05
8.12049e-05
0.000302995
0.000126131
0.000467085
0.000161061
0.000569108
0.000187239
0.000618327
0.000202553
0.000617864
0.000210341
0.000581645
0.000215115
0.000528532
0.00022355
0.000479651
0.000237061
0.000438118
0.000256218
0.000405903
0.000275849
0.000369178
0.00029484
0.000327406
0.000307974
0.000269981
0.000316503
0.000205844
0.000316378
0.0001262
0.000310399
4.87077e-05
0.000294886
-4.00599e-05
0.000274666
-0.000113334
0.000246455
-0.00019453
0.000217433
-0.000249966
0.000182608
-0.000320917
0.000150526
-0.000359628
0.000113056
-0.000421296
8.18992e-05
-0.000426647
4.40508e-05
-0.000470533
6.5451e-06
-0.000469434
-4.55274e-05
-0.00072575
-6.52201e-05
-0.00110984
-0.00153178
2.55487e-05
5.78384e-05
7.86735e-05
0.000248818
0.000132093
0.000413578
0.000177518
0.000522598
0.000214386
0.000581363
0.000239653
0.000591615
0.000255887
0.000565404
0.000266295
0.000517152
0.000278467
0.000467557
0.000294414
0.000421061
0.00031668
0.000383893
0.000340077
0.000344539
0.000363671
0.000304332
0.000381215
0.000251085
0.000393396
0.000194432
0.00039544
0.000122672
0.000390121
5.49951e-05
0.000373439
-2.50596e-05
0.000350745
-8.94585e-05
0.000318605
-0.00016441
0.000284955
-0.000214783
0.000244054
-0.000282552
0.000205084
-0.000318466
0.000158326
-0.000377972
0.000117696
-0.000382741
6.90272e-05
-0.000426884
2.58972e-05
-0.000421191
-3.50668e-05
-0.000671437
-6.0122e-05
-0.00107918
-0.00159473
2.06231e-05
3.78844e-05
7.13345e-05
0.000198673
0.000130114
0.00035553
0.00018217
0.000471221
0.000227494
0.000536755
0.000262195
0.00055732
0.000287618
0.000540939
0.00030542
0.000499442
0.000322471
0.000451701
0.000340801
0.000402472
0.000364689
0.00036134
0.000389779
0.000318857
0.000415887
0.000279684
0.000436374
0.000229751
0.000451547
0.000180865
0.000455941
0.000117239
0.000452269
6.04625e-05
0.000436203
-1.02302e-05
0.000413412
-6.45871e-05
0.000380057
-0.000132597
0.000344339
-0.000176501
0.000299521
-0.000239762
0.000255245
-0.000270781
0.000200302
-0.000325989
0.000151016
-0.000328619
9.16328e-05
-0.000372305
4.3327e-05
-0.000365608
-2.68706e-05
-0.000608455
-5.51729e-05
-0.0010428
-0.00165311
1.21483e-05
2.54118e-05
5.53683e-05
0.000154074
0.000114554
0.00029616
0.000175503
0.000408573
0.000233092
0.000479012
0.000281162
0.000507676
0.000320172
0.000501986
0.000348854
0.000469352
0.000373656
0.00042721
0.000395655
0.000379014
0.00042052
0.000337009
0.000445157
0.000292637
0.000470845
0.000254753
0.000491344
0.000207577
0.000507333
0.000165826
0.000512778
0.000110017
0.00051057
6.37908e-05
0.000495689
2.67114e-06
0.000474012
-4.15781e-05
0.000440612
-0.000101572
0.000403721
-0.000137902
0.000355192
-0.000194311
0.00030552
-0.000218671
0.000242205
-0.000267124
0.000184754
-0.000267271
0.000115374
-0.000309958
6.40271e-05
-0.000307416
-1.51672e-05
-0.000539883
-4.65443e-05
-0.00100253
-0.00170484
1.1733e-05
1.38156e-05
4.17847e-05
0.00012553
9.31367e-05
0.000245436
0.000151187
0.000352181
0.000212941
0.0004182
0.000271522
0.000449892
0.000324074
0.000450735
0.000367161
0.000426296
0.00040439
0.000391606
0.000435195
0.000347734
0.000465242
0.000308767
0.000491897
0.000265159
0.00051826
0.000230307
0.000538681
0.000186088
0.000555118
0.000151437
0.000561316
0.000102547
0.000560611
6.67671e-05
0.000547341
1.44138e-05
0.000527265
-1.88394e-05
0.00049441
-7.06241e-05
0.00045671
-9.68554e-05
0.000405132
-0.000145241
0.000350904
-0.000159898
0.000280858
-0.000200731
0.000216857
-0.000196588
0.000138878
-0.000237975
8.52692e-05
-0.000243389
-2.82864e-06
-0.000461927
-3.42083e-05
-0.000957218
-0.0017451
-8.37828e-06
2.29723e-05
8.89899e-06
0.000106136
5.27789e-05
0.000201684
0.000115285
0.000286645
0.000187723
0.000345375
0.000258499
0.000376549
0.00032668
0.00038256
0.000384885
0.000366032
0.000436516
0.000340497
0.000478659
0.000303671
0.00051661
0.000271663
0.000547807
0.000231991
0.00057621
0.000202941
0.000597183
0.000163079
0.000613669
0.000136128
0.000619799
9.4288e-05
0.000619407
6.84731e-05
0.000606201
2.52849e-05
0.000586196
2.67039e-06
0.000551859
-3.90548e-05
0.000512
-5.51648e-05
0.000455663
-9.25585e-05
0.000396935
-9.86558e-05
0.000320099
-0.00012942
0.000252488
-0.000124834
0.000169169
-0.000163876
0.000119561
-0.000186167
2.94804e-05
-0.000387659
-4.18979e-06
-0.000910997
-0.00176013
1.13093e-05
8.14732e-06
-4.69849e-06
0.00012561
5.46384e-06
0.000191375
4.94672e-05
0.00024675
0.000116975
0.000279413
0.000196676
0.000298732
0.000278933
0.000302151
0.000355309
0.0002898
0.000424739
0.000273167
0.000483353
0.000244351
0.00053486
0.000222431
0.000575883
0.000189894
0.00061149
0.00016974
0.000636347
0.000136933
0.000655795
0.000119264
0.000662688
8.58492e-05
0.000663414
7.06515e-05
0.000649632
3.71012e-05
0.000629786
2.60003e-05
0.000594047
-5.95252e-06
0.000553915
-1.05223e-05
0.000496848
-3.91363e-05
0.000440007
-3.54961e-05
0.000366452
-6.09779e-05
0.000304888
-5.38951e-05
0.000226087
-9.23928e-05
0.000180521
-0.000126665
8.8498e-05
-0.000308002
4.9842e-05
-0.000843916
-0.00171961
-6.19548e-05
8.05634e-05
-5.13052e-05
0.000110068
-3.45351e-05
0.000174906
2.24377e-06
0.000203213
7.67288e-05
0.000203331
0.000158874
0.000212296
0.000249236
0.000211353
0.000334741
0.00020141
0.000415126
0.000193278
0.000483669
0.000173316
0.000544908
0.000162108
0.000592953
0.000139322
0.000634791
0.000128993
0.000663203
0.000105866
0.000686121
9.7564e-05
0.000694725
7.44079e-05
0.000698298
6.84699e-05
0.000686397
4.58956e-05
0.000671002
4.30296e-05
0.000639072
2.24318e-05
0.000607384
2.3132e-05
0.000557752
6.13298e-06
0.000515628
9.08835e-06
0.000452984
-4.61e-06
0.000410088
-7.88462e-06
0.000341916
-3.51985e-05
0.000311033
-9.36064e-05
0.000248856
-0.000267596
0.000189299
-0.000774499
-0.00156574
-0.00025696
0.000316223
-0.000291465
0.000153274
-0.000276313
0.000160272
-0.000194645
0.000129404
-0.000102454
0.000113807
7.81404e-06
0.00010534
0.000118236
0.000103286
0.00022385
9.61313e-05
0.000325301
9.41643e-05
0.000412122
8.55584e-05
0.000494629
8.21367e-05
0.000560206
7.23895e-05
0.000623255
6.87038e-05
0.00066893
5.86452e-05
0.000714208
5.53568e-05
0.000741255
4.55253e-05
0.000770522
4.28e-05
0.000780205
3.38067e-05
0.000796022
3.17129e-05
0.000790723
2.4312e-05
0.000797155
2.273e-05
0.00078087
1.74054e-05
0.000783086
1.55278e-05
0.000761146
1.0289e-05
0.00076291
3.89067e-06
0.000738993
-1.8761e-05
0.000729743
-5.8885e-05
0.000669294
-0.000202792
0.000470285
-0.000482263
-0.00105603
0.000335277
0.000474297
0.000637122
0.000762827
0.000875584
0.000977876
0.00108159
0.00117551
0.00127083
0.00135435
0.00143802
0.00150823
0.00157866
0.00163491
0.00169222
0.00173503
0.00178014
0.00181078
0.00184531
0.00186581
0.00189198
0.00190469
0.00192416
0.00192831
0.00193514
0.00190626
0.0018434
0.0016196
0.0011518
)
;

boundaryField
{
    movingWall
    {
        type            calculated;
        value           uniform 0;
    }
    fixedWalls
    {
        type            calculated;
        value           uniform 0;
    }
    frontAndBack
    {
        type            empty;
    }
}


// ************************************************************************* //
