/*--------------------------------*- C++ -*----------------------------------*\
| =========                 |                                                 |
| \\      /  F ield         | OpenFOAM: The Open Source CFD Toolbox           |
|  \\    /   O peration     | Version:  2406                                  |
|   \\  /    A nd           | Website:  www.openfoam.com                      |
|    \\/     M anipulation  |                                                 |
\*---------------------------------------------------------------------------*/
FoamFile
{
    version     2.0;
    format      ascii;
    arch        "LSB;label=32;scalar=64";
    class       volVectorField;
    location    "24.4";
    object      U;
}
// * * * * * * * * * * * * * * * * * * * * * * * * * * * * * * * * * * * * * //

dimensions      [0 1 -1 0 0 0 0];

internalField   nonuniform List<vector> 
14400
(
(-7.29783e-06 7.25533e-06 0)
(1.78124e-05 -1.38554e-05 0)
(0.00010191 -3.19721e-05 0)
(0.000225006 -4.55341e-05 0)
(0.000379209 -5.18706e-05 0)
(0.000543809 -5.4507e-05 0)
(0.000713794 -5.35689e-05 0)
(0.000877212 -5.09499e-05 0)
(0.00103209 -4.68244e-05 0)
(0.00117255 -4.2128e-05 0)
(0.0012984 -3.6983e-05 0)
(0.00140735 -3.18566e-05 0)
(0.00150016 -2.68148e-05 0)
(0.00157646 -2.20759e-05 0)
(0.00163742 -1.76533e-05 0)
(0.00168352 -1.36234e-05 0)
(0.00171594 -9.95355e-06 0)
(0.00173535 -6.63194e-06 0)
(0.00174259 -3.58385e-06 0)
(0.00173806 -7.35083e-07 0)
(0.00172201 2.0276e-06 0)
(0.0016942 4.82372e-06 0)
(0.00165406 7.79554e-06 0)
(0.00160051 1.10885e-05 0)
(0.00153202 1.48558e-05 0)
(0.00144658 1.92449e-05 0)
(0.0013417 2.43975e-05 0)
(0.00121449 3.04413e-05 0)
(0.00106167 3.74895e-05 0)
(0.000879615 4.56375e-05 0)
(0.000664477 5.49641e-05 0)
(0.000412188 6.55304e-05 0)
(0.00011856 7.73809e-05 0)
(-0.000220655 9.05424e-05 0)
(-0.000609684 0.000105023 0)
(-0.00105265 0.000120807 0)
(-0.00155347 0.000137853 0)
(-0.00211575 0.000156089 0)
(-0.00274267 0.000175406 0)
(-0.00343682 0.000195654 0)
(-0.00420007 0.00021664 0)
(-0.00503343 0.000238123 0)
(-0.00593689 0.000259816 0)
(-0.00690925 0.000281386 0)
(-0.00794804 0.000302454 0)
(-0.00904936 0.000322601 0)
(-0.0102078 0.000341373 0)
(-0.0114164 0.000358286 0)
(-0.0126665 0.000372837 0)
(-0.013948 0.000384509 0)
(-0.015249 0.000392783 0)
(-0.0165562 0.000397146 0)
(-0.017855 0.000397102 0)
(-0.0191293 0.000392186 0)
(-0.0203621 0.000381968 0)
(-0.0215355 0.000366074 0)
(-0.0226309 0.000344191 0)
(-0.0236294 0.000316082 0)
(-0.0245119 0.000281606 0)
(-0.0252597 0.000240726 0)
(-0.0258548 0.000193531 0)
(-0.0262801 0.000140249 0)
(-0.0265198 8.12643e-05 0)
(-0.0265603 1.71331e-05 0)
(-0.02639 -5.14064e-05 0)
(-0.0260002 -0.000123427 0)
(-0.0253852 -0.000197809 0)
(-0.0245431 -0.000273252 0)
(-0.0234757 -0.000348287 0)
(-0.0221895 -0.000421304 0)
(-0.0206949 -0.000490596 0)
(-0.0190073 -0.000554402 0)
(-0.0171464 -0.000610975 0)
(-0.0151366 -0.00065865 0)
(-0.013006 -0.00069592 0)
(-0.0107863 -0.000721517 0)
(-0.00851212 -0.000734483 0)
(-0.00621997 -0.000734241 0)
(-0.00394729 -0.000720643 0)
(-0.00173139 -0.000694001 0)
(0.000391722 -0.000655096 0)
(0.00238851 -0.000605153 0)
(0.00422898 -0.000545796 0)
(0.00588768 -0.00047897 0)
(0.00734449 -0.000406849 0)
(0.00858515 -0.00033172 0)
(0.00960159 -0.000255872 0)
(0.010392 -0.000181484 0)
(0.0109604 -0.000110518 0)
(0.0113163 -4.46443e-05 0)
(0.0114739 1.48189e-05 0)
(0.0114514 6.69334e-05 0)
(0.0112695 0.000111146 0)
(0.0109509 0.000147264 0)
(0.0105191 0.000175423 0)
(0.00999739 0.000196024 0)
(0.0094082 0.000209682 0)
(0.00877242 0.000217156 0)
(0.00810885 0.000219298 0)
(0.00743399 0.000216986 0)
(0.00676176 0.000211102 0)
(0.00610363 0.000202466 0)
(0.00546843 0.000191856 0)
(0.00486297 0.000179929 0)
(0.00429158 0.000167311 0)
(0.00375722 0.000154466 0)
(0.00326061 0.000141873 0)
(0.00280204 0.000129794 0)
(0.00237955 0.000118594 0)
(0.00199204 0.000108276 0)
(0.0016359 9.90877e-05 0)
(0.00131049 9.06e-05 0)
(0.00101204 8.28918e-05 0)
(0.000743018 7.47347e-05 0)
(0.000501756 6.60279e-05 0)
(0.000297221 5.4206e-05 0)
(0.000132357 3.96123e-05 0)
(2.30001e-05 1.8665e-05 0)
(-2.65856e-05 -2.24201e-06 0)
(-1.78774e-05 -1.76023e-05 0)
(1.35273e-05 -1.76374e-05 0)
(0.000123552 -0.000124242 0)
(0.000348475 -0.000213461 0)
(0.000646936 -0.000281058 0)
(0.0010077 -0.000318106 0)
(0.0013925 -0.000334473 0)
(0.00178876 -0.000332099 0)
(0.00217232 -0.000317904 0)
(0.00253559 -0.000294373 0)
(0.00286581 -0.000265546 0)
(0.00315987 -0.000233178 0)
(0.00341225 -0.000199466 0)
(0.00362267 -0.000165402 0)
(0.00378958 -0.00013204 0)
(0.00391407 -9.97695e-05 0)
(0.00399635 -6.89206e-05 0)
(0.00403771 -3.94357e-05 0)
(0.00403863 -1.11545e-05 0)
(0.0039997 1.63337e-05 0)
(0.0039206 4.35526e-05 0)
(0.00380049 7.11988e-05 0)
(0.00363745 0.000100064 0)
(0.00342864 0.000131043 0)
(0.00317004 0.00016508 0)
(0.00285649 0.00020314 0)
(0.00248166 0.000246165 0)
(0.00203816 0.000295044 0)
(0.00151758 0.000350572 0)
(0.000910686 0.000413429 0)
(0.000207559 0.00048416 0)
(-0.00060217 0.000563166 0)
(-0.00152911 0.000650687 0)
(-0.00258387 0.000746803 0)
(-0.00377678 0.000851413 0)
(-0.00511762 0.000964225 0)
(-0.00661531 0.00108473 0)
(-0.00827758 0.00121219 0)
(-0.0101106 0.00134559 0)
(-0.0121186 0.00148364 0)
(-0.0143036 0.00162477 0)
(-0.0166648 0.00176709 0)
(-0.0191985 0.00190843 0)
(-0.0218975 0.00204634 0)
(-0.0247514 0.00217812 0)
(-0.0277456 0.00230088 0)
(-0.0308619 0.00241158 0)
(-0.0340782 0.00250708 0)
(-0.0373688 0.00258423 0)
(-0.0407042 0.00263993 0)
(-0.044052 0.0026712 0)
(-0.0473767 0.00267526 0)
(-0.0506408 0.0026496 0)
(-0.0538045 0.00259203 0)
(-0.0568273 0.00250075 0)
(-0.0596678 0.00237441 0)
(-0.0622848 0.00221216 0)
(-0.0646377 0.00201366 0)
(-0.0666874 0.00177917 0)
(-0.0683968 0.00150955 0)
(-0.0697314 0.0012063 0)
(-0.0706599 0.000871578 0)
(-0.071155 0.000508263 0)
(-0.0711939 0.000119926 0)
(-0.0707586 -0.000289141 0)
(-0.0698368 -0.000713927 0)
(-0.0684219 -0.00114873 0)
(-0.0665141 -0.00158719 0)
(-0.0641202 -0.00202237 0)
(-0.0612539 -0.00244681 0)
(-0.0579367 -0.00285273 0)
(-0.054197 -0.00323211 0)
(-0.0500709 -0.00357693 0)
(-0.0456014 -0.00387943 0)
(-0.0408384 -0.0041323 0)
(-0.035838 -0.00432901 0)
(-0.0306617 -0.00446406 0)
(-0.0253752 -0.0045333 0)
(-0.0200476 -0.00453411 0)
(-0.0147496 -0.00446567 0)
(-0.00955244 -0.00432908 0)
(-0.00452549 -0.00412742 0)
(0.000264839 -0.00386571 0)
(0.00475713 -0.00355085 0)
(0.00889655 -0.00319129 0)
(0.0126364 -0.00279684 0)
(0.0159393 -0.00237819 0)
(0.0187783 -0.00194648 0)
(0.0211373 -0.00151288 0)
(0.0230117 -0.00108807 0)
(0.0244074 -0.000681829 0)
(0.0253412 -0.000302648 0)
(0.0258388 4.25315e-05 0)
(0.0259342 0.000348521 0)
(0.0256677 0.00061195 0)
(0.0250842 0.000831248 0)
(0.0242314 0.0010065 0)
(0.0231579 0.00113928 0)
(0.0219115 0.00123235 0)
(0.020538 0.00128941 0)
(0.0190794 0.00131476 0)
(0.0175737 0.0013131 0)
(0.016054 0.00128916 0)
(0.0145477 0.00124765 0)
(0.0130776 0.00119291 0)
(0.0116608 0.00112906 0)
(0.0103102 0.00105958 0)
(0.00903367 0.000987694 0)
(0.00783646 0.000915768 0)
(0.00671907 0.000846014 0)
(0.00568224 0.000779307 0)
(0.004722 0.00071661 0)
(0.00383872 0.000656554 0)
(0.00302779 0.00059849 0)
(0.00229497 0.000537642 0)
(0.00163938 0.00047201 0)
(0.00107816 0.000392586 0)
(0.000616049 0.000299923 0)
(0.00028078 0.000184405 0)
(7.1555e-05 6.95524e-05 0)
(-2.21324e-06 -2.64791e-05 0)
(3.12209e-05 -0.000100763 0)
(0.000211596 -0.000348802 0)
(0.000549112 -0.000551252 0)
(0.000976354 -0.000701054 0)
(0.00148143 -0.000787425 0)
(0.0020141 -0.000824616 0)
(0.00255849 -0.000819069 0)
(0.00308297 -0.000783407 0)
(0.00357647 -0.00072478 0)
(0.00402161 -0.000651434 0)
(0.00441273 -0.000568345 0)
(0.00474158 -0.000480237 0)
(0.00500622 -0.000389913 0)
(0.00520343 -0.000299662 0)
(0.00533308 -0.000210622 0)
(0.0053941 -0.000123441 0)
(0.00538657 -3.80335e-05 0)
(0.00530959 4.61131e-05 0)
(0.00516215 0.00013003 0)
(0.00494201 0.000215113 0)
(0.00464606 0.00030314 0)
(0.00426961 0.000396159 0)
(0.00380661 0.00049645 0)
(0.00324928 0.00060641 0)
(0.00258823 0.000728472 0)
(0.00181244 0.000864989 0)
(0.00090941 0.00101814 0)
(-0.000134644 0.00118982 0)
(-0.00133451 0.0013816 0)
(-0.00270564 0.0015946 0)
(-0.00426378 0.00182953 0)
(-0.00602451 0.00208655 0)
(-0.00800277 0.00236532 0)
(-0.0102124 0.00266491 0)
(-0.0126655 0.00298377 0)
(-0.0153719 0.00331967 0)
(-0.0183388 0.00366966 0)
(-0.0215695 0.00403006 0)
(-0.0250638 0.00439639 0)
(-0.0288167 0.0047634 0)
(-0.032818 0.00512515 0)
(-0.0370525 0.00547501 0)
(-0.0414992 0.00580582 0)
(-0.0461314 0.00611002 0)
(-0.0509168 0.0063798 0)
(-0.0558181 0.00660733 0)
(-0.0607929 0.00678491 0)
(-0.0657946 0.00690521 0)
(-0.0707733 0.00696144 0)
(-0.0756762 0.00694755 0)
(-0.080449 0.00685839 0)
(-0.0850365 0.00668982 0)
(-0.0893837 0.00643883 0)
(-0.0934367 0.00610362 0)
(-0.0971432 0.00568364 0)
(-0.100454 0.00517961 0)
(-0.103323 0.00459354 0)
(-0.105708 0.00392871 0)
(-0.107571 0.00318966 0)
(-0.108879 0.00238219 0)
(-0.109606 0.00151331 0)
(-0.109727 0.000591259 0)
(-0.109228 -0.000374562 0)
(-0.108098 -0.00137359 0)
(-0.106334 -0.00239416 0)
(-0.103937 -0.00342354 0)
(-0.100917 -0.00444807 0)
(-0.0972903 -0.00545323 0)
(-0.0930804 -0.00642385 0)
(-0.0883176 -0.00734429 0)
(-0.0830394 -0.00819876 0)
(-0.0772905 -0.00897159 0)
(-0.0711227 -0.00964766 0)
(-0.0645943 -0.0102128 0)
(-0.0577699 -0.0106544 0)
(-0.0507196 -0.0109616 0)
(-0.0435185 -0.011126 0)
(-0.0362452 -0.0111421 0)
(-0.0289811 -0.0110077 0)
(-0.0218085 -0.0107241 0)
(-0.0148096 -0.0102964 0)
(-0.00806425 -0.00973348 0)
(-0.00164864 -0.00904785 0)
(0.00436666 -0.00825545 0)
(0.00991839 -0.00737516 0)
(0.0149521 -0.00642814 0)
(0.0194238 -0.00543713 0)
(0.0233006 -0.00442564 0)
(0.0265621 -0.003417 0)
(0.0292005 -0.00243354 0)
(0.0312206 -0.00149573 0)
(0.0326397 -0.000621451 0)
(0.0334863 0.000174562 0)
(0.0337992 0.000881154 0)
(0.0336256 0.00149096 0)
(0.0330197 0.00200037 0)
(0.0320399 0.0024094 0)
(0.030747 0.00272125 0)
(0.0292022 0.00294189 0)
(0.0274648 0.00307938 0)
(0.0255907 0.00314336 0)
(0.0236312 0.00314431 0)
(0.0216312 0.00309315 0)
(0.01963 0.00300055 0)
(0.0176591 0.00287684 0)
(0.0157446 0.0027313 0)
(0.0139048 0.00257244 0)
(0.0121539 0.00240711 0)
(0.0104993 0.00224122 0)
(0.00894709 0.0020781 0)
(0.007497 0.00192014 0)
(0.00615316 0.00176557 0)
(0.00491262 0.00161228 0)
(0.0037851 0.00145154 0)
(0.00277023 0.00127747 0)
(0.00189138 0.00107448 0)
(0.00115157 0.000841311 0)
(0.000590184 0.000565143 0)
(0.000200184 0.000283486 0)
(2.16681e-05 2.73508e-05 0)
(4.45987e-05 -0.000222227 0)
(0.000279314 -0.00064661 0)
(0.000700039 -0.000978633 0)
(0.00121566 -0.00121574 0)
(0.00181394 -0.00135249 0)
(0.00243584 -0.00140773 0)
(0.00306492 -0.0013935 0)
(0.00366479 -0.00132786 0)
(0.00422279 -0.00122303 0)
(0.00471827 -0.00109157 0)
(0.00514371 -0.000941956 0)
(0.00548836 -0.000781626 0)
(0.0057484 -0.000615362 0)
(0.00591847 -0.000446767 0)
(0.0059965 -0.000277752 0)
(0.0059793 -0.00010923 0)
(0.00586477 5.90322e-05 0)
(0.00564956 0.000228086 0)
(0.00533004 0.000399831 0)
(0.00490096 0.00057684 0)
(0.00435588 0.000762315 0)
(0.0036864 0.000959938 0)
(0.00288234 0.00117375 0)
(0.00193142 0.00140797 0)
(0.000819465 0.00166682 0)
(-0.000469615 0.00195431 0)
(-0.00195347 0.00227405 0)
(-0.00365103 0.00262906 0)
(-0.00558196 0.0030216 0)
(-0.00776617 0.00345308 0)
(-0.0102231 0.00392388 0)
(-0.0129712 0.00443333 0)
(-0.0160269 0.00497959 0)
(-0.0194039 0.00555957 0)
(-0.0231124 0.00616886 0)
(-0.0271585 0.00680169 0)
(-0.0315428 0.00745087 0)
(-0.0362602 0.0081078 0)
(-0.0412991 0.00876251 0)
(-0.0466407 0.00940381 0)
(-0.0522591 0.0100195 0)
(-0.0581212 0.0105964 0)
(-0.0641868 0.0111211 0)
(-0.070409 0.0115799 0)
(-0.0767353 0.0119594 0)
(-0.0831082 0.0122469 0)
(-0.0894666 0.0124305 0)
(-0.0957471 0.0125001 0)
(-0.101885 0.0124466 0)
(-0.107815 0.0122634 0)
(-0.113476 0.0119455 0)
(-0.118805 0.01149 0)
(-0.123746 0.0108961 0)
(-0.128245 0.0101653 0)
(-0.132253 0.0093005 0)
(-0.135727 0.00830691 0)
(-0.138629 0.00719122 0)
(-0.140924 0.00596176 0)
(-0.142586 0.00462834 0)
(-0.143591 0.00320218 0)
(-0.143922 0.0016958 0)
(-0.143568 0.000123022 0)
(-0.142522 -0.0015011 0)
(-0.140781 -0.00316027 0)
(-0.138349 -0.00483705 0)
(-0.135235 -0.00651281 0)
(-0.131453 -0.00816787 0)
(-0.127022 -0.00978159 0)
(-0.121969 -0.0113325 0)
(-0.116323 -0.0127987 0)
(-0.110123 -0.014158 0)
(-0.103412 -0.0153881 0)
(-0.0962406 -0.0164679 0)
(-0.0886648 -0.0173769 0)
(-0.0807472 -0.0180968 0)
(-0.0725562 -0.0186116 0)
(-0.0641653 -0.0189084 0)
(-0.0556529 -0.0189783 0)
(-0.0471006 -0.0188166 0)
(-0.0385927 -0.0184234 0)
(-0.0302144 -0.0178043 0)
(-0.0220506 -0.01697 0)
(-0.0141842 -0.0159367 0)
(-0.00669396 -0.0147255 0)
(0.000346475 -0.0133624 0)
(0.0068708 -0.0118769 0)
(0.0128214 -0.0103018 0)
(0.0181506 -0.0086714 0)
(0.0228223 -0.00702114 0)
(0.0268121 -0.00538577 0)
(0.0301085 -0.00379845 0)
(0.0327131 -0.00228951 0)
(0.0346399 -0.000885444 0)
(0.0359154 0.000391859 0)
(0.0365771 0.00152578 0)
(0.0366724 0.00250526 0)
(0.0362567 0.00332489 0)
(0.0353917 0.00398468 0)
(0.0341426 0.00448958 0)
(0.0325764 0.00484877 0)
(0.0307594 0.00507487 0)
(0.0287552 0.00518295 0)
(0.0266228 0.00518968 0)
(0.0244157 0.00511233 0)
(0.0221802 0.00496819 0)
(0.0199561 0.00477356 0)
(0.0177745 0.00454365 0)
(0.0156614 0.00429136 0)
(0.0136337 0.00402779 0)
(0.0117068 0.00376018 0)
(0.00988669 0.00349353 0)
(0.00818427 0.00322681 0)
(0.00660012 0.00295719 0)
(0.00514939 0.00267294 0)
(0.00383214 0.00236456 0)
(0.00267793 0.00201095 0)
(0.0016865 0.0016075 0)
(0.000910192 0.00113764 0)
(0.000337206 0.000641501 0)
(4.74472e-05 0.000151578 0)
(5.13928e-05 -0.000375437 0)
(0.000319362 -0.00100874 0)
(0.000793409 -0.00148642 0)
(0.00136337 -0.00181566 0)
(0.00201511 -0.00200191 0)
(0.00268203 -0.00206956 0)
(0.00334739 -0.00203796 0)
(0.00397147 -0.00193065 0)
(0.00454092 -0.0017655 0)
(0.00503283 -0.00155937 0)
(0.00543831 -0.00132453 0)
(0.00574446 -0.00107108 0)
(0.00594554 -0.000805859 0)
(0.00603384 -0.000533713 0)
(0.00600491 -0.000257246 0)
(0.00585283 2.25296e-05 0)
(0.0055726 0.000306198 0)
(0.00515766 0.000595626 0)
(0.00460087 0.0008939 0)
(0.00389312 0.00120514 0)
(0.00302377 0.00153435 0)
(0.00197987 0.00188726 0)
(0.000746417 0.00227004 0)
(-0.00069393 0.00268904 0)
(-0.00236053 0.0031505 0)
(-0.00427461 0.00366014 0)
(-0.0064587 0.00422292 0)
(-0.00893612 0.00484265 0)
(-0.0117302 0.00552175 0)
(-0.0148635 0.00626102 0)
(-0.0183566 0.00705943 0)
(-0.0222275 0.00791397 0)
(-0.0264902 0.00881955 0)
(-0.0311536 0.00976885 0)
(-0.0362208 0.0107523 0)
(-0.0416878 0.0117581 0)
(-0.0475426 0.0127721 0)
(-0.053765 0.0137782 0)
(-0.060326 0.0147586 0)
(-0.0671876 0.015694 0)
(-0.0743036 0.0165641 0)
(-0.08162 0.0173483 0)
(-0.0890762 0.0180264 0)
(-0.0966063 0.0185788 0)
(-0.104141 0.0189878 0)
(-0.111608 0.0192374 0)
(-0.118936 0.0193145 0)
(-0.126054 0.0192084 0)
(-0.132894 0.0189119 0)
(-0.139392 0.0184204 0)
(-0.14549 0.0177328 0)
(-0.151132 0.0168506 0)
(-0.156272 0.015778 0)
(-0.160866 0.0145216 0)
(-0.164879 0.01309 0)
(-0.168279 0.0114939 0)
(-0.17104 0.00974533 0)
(-0.173141 0.00785783 0)
(-0.174566 0.0058462 0)
(-0.1753 0.00372642 0)
(-0.175336 0.00151558 0)
(-0.174668 -0.000768048 0)
(-0.173293 -0.00310506 0)
(-0.171212 -0.00547482 0)
(-0.168431 -0.00785541 0)
(-0.164956 -0.0102236 0)
(-0.1608 -0.012555 0)
(-0.15598 -0.0148237 0)
(-0.150515 -0.017003 0)
(-0.144433 -0.0190651 0)
(-0.137763 -0.0209818 0)
(-0.130544 -0.0227247 0)
(-0.122818 -0.024266 0)
(-0.114637 -0.0255789 0)
(-0.106056 -0.0266386 0)
(-0.0971387 -0.0274232 0)
(-0.0879548 -0.0279142 0)
(-0.0785792 -0.0280979 0)
(-0.0690924 -0.0279659 0)
(-0.0595783 -0.0275159 0)
(-0.0501238 -0.0267523 0)
(-0.0408169 -0.0256864 0)
(-0.031745 -0.0243366 0)
(-0.0229935 -0.022728 0)
(-0.0146436 -0.0208922 0)
(-0.00677096 -0.0188662 0)
(0.000556055 -0.0166915 0)
(0.00727794 -0.0144129 0)
(0.0133452 -0.0120768 0)
(0.0187194 -0.00973036 0)
(0.0233739 -0.00741938 0)
(0.0272947 -0.00518715 0)
(0.0304802 -0.00307304 0)
(0.0329416 -0.00111128 0)
(0.034702 0.000670036 0)
(0.0357963 0.00224965 0)
(0.0362696 0.00361361 0)
(0.036176 0.00475531 0)
(0.0355765 0.0056753 0)
(0.0345372 0.00638066 0)
(0.0331269 0.0068842 0)
(0.031415 0.00720331 0)
(0.0294686 0.00735889 0)
(0.0273518 0.0073739 0)
(0.0251226 0.00727242 0)
(0.0228334 0.00707813 0)
(0.0205281 0.00681379 0)
(0.0182451 0.00649955 0)
(0.0160125 0.00615302 0)
(0.0138565 0.00578685 0)
(0.0117918 0.00540997 0)
(0.00983763 0.00502351 0)
(0.008 0.00462483 0)
(0.00630084 0.00420054 0)
(0.00474177 0.00373754 0)
(0.00335975 0.00321021 0)
(0.00215277 0.00260813 0)
(0.00118837 0.00190978 0)
(0.000453304 0.00114721 0)
(6.77136e-05 0.000344698 0)
(5.52414e-05 -0.000541486 0)
(0.000341917 -0.00139972 0)
(0.000843631 -0.00202719 0)
(0.00143765 -0.00244422 0)
(0.00210709 -0.0026713 0)
(0.00277989 -0.00274025 0)
(0.00343895 -0.00267911 0)
(0.0040424 -0.00251699 0)
(0.00457653 -0.00227749 0)
(0.00501682 -0.00198141 0)
(0.00535323 -0.00164453 0)
(0.00557087 -0.00127926 0)
(0.00566197 -0.000894177 0)
(0.0056162 -0.000495042 0)
(0.00542628 -8.48617e-05 0)
(0.00508306 0.000335567 0)
(0.00457799 0.000767486 0)
(0.00390057 0.0012139 0)
(0.0030394 0.00167941 0)
(0.00198076 0.00217001 0)
(0.000709073 0.00269283 0)
(-0.000793799 0.00325586 0)
(-0.00254821 0.00386757 0)
(-0.00457686 0.00453648 0)
(-0.00690425 0.00527067 0)
(-0.00955633 0.00607724 0)
(-0.0125596 0.00696181 0)
(-0.0159403 0.00792808 0)
(-0.0197232 0.00897735 0)
(-0.0239305 0.0101082 0)
(-0.0285805 0.0113163 0)
(-0.0336862 0.0125941 0)
(-0.0392538 0.0139307 0)
(-0.045282 0.0153118 0)
(-0.0517604 0.01672 0)
(-0.0586688 0.0181345 0)
(-0.0659768 0.0195321 0)
(-0.073644 0.0208871 0)
(-0.0816197 0.0221722 0)
(-0.0898448 0.0233593 0)
(-0.0982522 0.0244205 0)
(-0.106769 0.0253289 0)
(-0.11532 0.0260595 0)
(-0.123825 0.0265901 0)
(-0.132207 0.0269022 0)
(-0.140392 0.0269808 0)
(-0.148308 0.0268154 0)
(-0.155889 0.0263996 0)
(-0.163075 0.0257313 0)
(-0.169815 0.0248119 0)
(-0.17606 0.0236464 0)
(-0.181773 0.0222428 0)
(-0.186919 0.0206114 0)
(-0.19147 0.0187646 0)
(-0.195405 0.0167163 0)
(-0.198702 0.0144819 0)
(-0.201348 0.0120776 0)
(-0.20333 0.00952056 0)
(-0.204638 0.00682883 0)
(-0.205263 0.00402117 0)
(-0.2052 0.00111724 0)
(-0.204444 -0.00186232 0)
(-0.202992 -0.00489571 0)
(-0.200843 -0.00795984 0)
(-0.197998 -0.0110302 0)
(-0.19446 -0.0140805 0)
(-0.190235 -0.017083 0)
(-0.185332 -0.020008 0)
(-0.179765 -0.0228245 0)
(-0.17355 -0.0254997 0)
(-0.16671 -0.028 0)
(-0.159274 -0.030291 0)
(-0.151278 -0.0323383 0)
(-0.142762 -0.0341085 0)
(-0.133776 -0.0355698 0)
(-0.124377 -0.0366932 0)
(-0.114629 -0.0374539 0)
(-0.104604 -0.0378317 0)
(-0.0943806 -0.0378131 0)
(-0.0840416 -0.0373916 0)
(-0.0736759 -0.0365687 0)
(-0.0633746 -0.0353545 0)
(-0.0532302 -0.0337678 0)
(-0.0433344 -0.031836 0)
(-0.0337762 -0.0295947 0)
(-0.0246399 -0.0270869 0)
(-0.0160037 -0.0243613 0)
(-0.00793748 -0.0214716 0)
(-0.000501974 -0.0184743 0)
(0.00625259 -0.0154275 0)
(0.0122872 -0.0123885 0)
(0.0175745 -0.00941281 0)
(0.0220995 -0.00655219 0)
(0.0258592 -0.00385318 0)
(0.0288627 -0.0013559 0)
(0.0311312 0.000906963 0)
(0.0326968 0.00291101 0)
(0.0336023 0.00464052 0)
(0.0338991 0.00608859 0)
(0.0336469 0.00725684 0)
(0.0329104 0.00815482 0)
(0.0317585 0.00879891 0)
(0.0302608 0.00921122 0)
(0.0284869 0.009418 0)
(0.0265022 0.00944825 0)
(0.0243691 0.00933192 0)
(0.0221419 0.00909878 0)
(0.0198709 0.0087763 0)
(0.0175955 0.00838912 0)
(0.0153531 0.00795627 0)
(0.0131682 0.0074917 0)
(0.0110701 0.00700022 0)
(0.0090713 0.0064806 0)
(0.00720203 0.00591939 0)
(0.005467 0.00530044 0)
(0.00391153 0.00459441 0)
(0.00253401 0.0037827 0)
(0.00141709 0.00283631 0)
(0.000548835 0.00176961 0)
(8.41418e-05 0.000590429 0)
(5.6238e-05 -0.000717232 0)
(0.000348508 -0.00180956 0)
(0.000855801 -0.00258712 0)
(0.00144773 -0.00308587 0)
(0.00210427 -0.00334344 0)
(0.00274975 -0.00340069 0)
(0.00336626 -0.00329546 0)
(0.0039106 -0.00306272 0)
(0.00436863 -0.00273197 0)
(0.00471468 -0.00232763 0)
(0.00493749 -0.00186876 0)
(0.00502028 -0.0013696 0)
(0.004953 -0.000840142 0)
(0.00472253 -0.000286628 0)
(0.00431834 0.0002879 0)
(0.00372757 0.000883252 0)
(0.00293758 0.0015017 0)
(0.00193335 0.00214777 0)
(0.00069861 0.00282795 0)
(-0.000785567 0.00355042 0)
(-0.0025402 0.00432469 0)
(-0.00458898 0.00516119 0)
(-0.00695771 0.00607066 0)
(-0.00967424 0.00706353 0)
(-0.0127676 0.00814922 0)
(-0.0162672 0.00933534 0)
(-0.0202018 0.010627 0)
(-0.0245978 0.0120262 0)
(-0.0294782 0.0135311 0)
(-0.0348607 0.0151357 0)
(-0.0407563 0.0168298 0)
(-0.0471676 0.0185982 0)
(-0.0540873 0.0204214 0)
(-0.0614975 0.0222752 0)
(-0.0693687 0.0241314 0)
(-0.0776598 0.0259585 0)
(-0.0863183 0.0277221 0)
(-0.0952815 0.0293865 0)
(-0.104478 0.0309155 0)
(-0.113829 0.0322737 0)
(-0.123254 0.0334282 0)
(-0.132668 0.0343491 0)
(-0.141988 0.0350113 0)
(-0.151135 0.0353943 0)
(-0.160035 0.0354832 0)
(-0.16862 0.0352688 0)
(-0.176831 0.0347469 0)
(-0.184615 0.0339184 0)
(-0.191927 0.0327883 0)
(-0.198732 0.0313653 0)
(-0.204998 0.029661 0)
(-0.2107 0.0276893 0)
(-0.215818 0.0254657 0)
(-0.220335 0.0230069 0)
(-0.224239 0.0203305 0)
(-0.227518 0.0174544 0)
(-0.230162 0.0143973 0)
(-0.232163 0.0111778 0)
(-0.233513 0.00781537 0)
(-0.234203 0.0043298 0)
(-0.234228 0.000741725 0)
(-0.23358 -0.00292724 0)
(-0.232253 -0.00665419 0)
(-0.230242 -0.0104147 0)
(-0.227542 -0.0141825 0)
(-0.22415 -0.0179294 0)
(-0.220065 -0.0216247 0)
(-0.215288 -0.0252356 0)
(-0.209824 -0.028727 0)
(-0.20368 -0.0320615 0)
(-0.19687 -0.0351999 0)
(-0.189412 -0.0381017 0)
(-0.181333 -0.0407257 0)
(-0.172663 -0.0430307 0)
(-0.163444 -0.0449771 0)
(-0.153724 -0.0465277 0)
(-0.143561 -0.0476494 0)
(-0.133023 -0.0483143 0)
(-0.122184 -0.0485016 0)
(-0.111128 -0.0481987 0)
(-0.0999442 -0.0474024 0)
(-0.0887282 -0.0461197 0)
(-0.0775784 -0.0443684 0)
(-0.0665943 -0.042177 0)
(-0.0558743 -0.0395842 0)
(-0.0455133 -0.036638 0)
(-0.0356003 -0.0333946 0)
(-0.0262167 -0.029916 0)
(-0.0174343 -0.026269 0)
(-0.0093146 -0.0225223 0)
(-0.00190736 -0.0187451 0)
(0.00474941 -0.0150047 0)
(0.0106298 -0.0113649 0)
(0.01572 -0.00788425 0)
(0.020018 -0.00461483 0)
(0.0235332 -0.00160081 0)
(0.0262865 0.00112245 0)
(0.028309 0.00352908 0)
(0.0296421 0.00560313 0)
(0.0303358 0.00733861 0)
(0.0304477 0.00873922 0)
(0.0300417 0.00981754 0)
(0.0291849 0.010594 0)
(0.0279475 0.0110954 0)
(0.0263983 0.0113534 0)
(0.0246052 0.0114022 0)
(0.0226303 0.0112773 0)
(0.020533 0.0110129 0)
(0.0183625 0.0106404 0)
(0.0161671 0.0101856 0)
(0.0139809 0.00966811 0)
(0.0118434 0.00909754 0)
(0.00977488 0.00847505 0)
(0.00781458 0.0077884 0)
(0.00597217 0.00701882 0)
(0.00430211 0.0061337 0)
(0.00280565 0.00510454 0)
(0.00157963 0.0038929 0)
(0.000615425 0.00248936 0)
(9.4905e-05 0.00087961 0)
(5.60131e-05 -0.000892113 0)
(0.000344615 -0.00221549 0)
(0.000839094 -0.00313483 0)
(0.00140573 -0.00370283 0)
(0.00202128 -0.00397563 0)
(0.00260857 -0.00400453 0)
(0.00314873 -0.0038379 0)
(0.00359812 -0.00351685 0)
(0.00394201 -0.00307656 0)
(0.00415384 -0.0025447 0)
(0.00422094 -0.00194301 0)
(0.00412455 -0.00128706 0)
(0.00385202 -0.000587648 0)
(0.0033871 0.000149034 0)
(0.00271558 0.000920398 0)
(0.00182043 0.00172733 0)
(0.000684402 0.00257355 0)
(-0.000712544 0.00346551 0)
(-0.00239205 0.00441187 0)
(-0.00437862 0.00542326 0)
(-0.00669893 0.00651165 0)
(-0.00938216 0.00768974 0)
(-0.0124592 0.00897017 0)
(-0.0159622 0.0103646 0)
(-0.0199232 0.0118825 0)
(-0.0243729 0.0135306 0)
(-0.0293393 0.0153115 0)
(-0.0348454 0.0172229 0)
(-0.0409079 0.0192572 0)
(-0.0475348 0.0214009 0)
(-0.054724 0.0236342 0)
(-0.062462 0.0259316 0)
(-0.0707225 0.0282616 0)
(-0.0794661 0.0305878 0)
(-0.0886406 0.0328698 0)
(-0.0981821 0.0350642 0)
(-0.108016 0.0371266 0)
(-0.118061 0.0390126 0)
(-0.128229 0.0406803 0)
(-0.138431 0.0420912 0)
(-0.14858 0.043212 0)
(-0.158591 0.0440155 0)
(-0.168387 0.044481 0)
(-0.177896 0.0445949 0)
(-0.187057 0.0443501 0)
(-0.195818 0.0437456 0)
(-0.204135 0.0427859 0)
(-0.211971 0.0414797 0)
(-0.219298 0.0398395 0)
(-0.226093 0.0378802 0)
(-0.232338 0.0356187 0)
(-0.238019 0.0330732 0)
(-0.243124 0.0302623 0)
(-0.247644 0.0272051 0)
(-0.25157 0.0239209 0)
(-0.254895 0.0204287 0)
(-0.257612 0.0167477 0)
(-0.259713 0.0128968 0)
(-0.261191 0.0088954 0)
(-0.262038 0.00476337 0)
(-0.262246 0.000521195 0)
(-0.261806 -0.00380953 0)
(-0.260709 -0.00820579 0)
(-0.258947 -0.0126428 0)
(-0.25651 -0.0170935 0)
(-0.253389 -0.0215287 0)
(-0.249578 -0.025916 0)
(-0.24507 -0.0302203 0)
(-0.23986 -0.0344035 0)
(-0.233948 -0.0384243 0)
(-0.227335 -0.0422388 0)
(-0.22003 -0.0458008 0)
(-0.212046 -0.0490621 0)
(-0.203403 -0.0519742 0)
(-0.19413 -0.0544887 0)
(-0.184265 -0.0565592 0)
(-0.173856 -0.0581429 0)
(-0.162961 -0.0592023 0)
(-0.151651 -0.059707 0)
(-0.140004 -0.0596358 0)
(-0.128111 -0.0589778 0)
(-0.116071 -0.0577344 0)
(-0.103986 -0.0559197 0)
(-0.0919663 -0.053561 0)
(-0.080121 -0.0506985 0)
(-0.0685583 -0.0473841 0)
(-0.0573813 -0.0436803 0)
(-0.046686 -0.039658 0)
(-0.0365586 -0.0353939 0)
(-0.0270736 -0.0309685 0)
(-0.0182932 -0.0264628 0)
(-0.0102662 -0.0219567 0)
(-0.00302821 -0.0175264 0)
(0.00339802 -0.0132425 0)
(0.00900205 -0.00916872 0)
(0.0137851 -0.00536057 0)
(0.0177594 -0.00186419 0)
(0.0209476 0.00128432 0)
(0.0233818 0.00405945 0)
(0.0251037 0.00644657 0)
(0.0261628 0.00844193 0)
(0.0266161 0.0100522 0)
(0.0265259 0.0112935 0)
(0.0259593 0.0121907 0)
(0.0249847 0.0127752 0)
(0.023672 0.0130833 0)
(0.0220874 0.013154 0)
(0.0202967 0.0130265 0)
(0.0183568 0.0127382 0)
(0.0163246 0.0123212 0)
(0.0142436 0.0118008 0)
(0.0121627 0.0111919 0)
(0.0101106 0.0104988 0)
(0.00813569 0.0097114 0)
(0.00625406 0.00880878 0)
(0.00452932 0.00775541 0)
(0.00296766 0.00651174 0)
(0.0016778 0.00502843 0)
(0.000655769 0.00326887 0)
(0.000101322 0.00119408 0)
(5.44078e-05 -0.00106465 0)
(0.000330861 -0.00260945 0)
(0.000796294 -0.00365702 0)
(0.00131667 -0.00427814 0)
(0.00186568 -0.00454819 0)
(0.00236648 -0.0045298 0)
(0.00279918 -0.00428229 0)
(0.00312044 -0.00385287 0)
(0.00331469 -0.00328221 0)
(0.00335469 -0.00260069 0)
(0.00322594 -0.00183221 0)
(0.00290757 -0.000992995 0)
(0.00238391 -9.4101e-05 0)
(0.00163525 0.000858901 0)
(0.000643231 0.00186439 0)
(-0.000613719 0.0029248 0)
(-0.00215792 0.00404573 0)
(-0.00401475 0.00523588 0)
(-0.00621147 0.00650634 0)
(-0.00877822 0.00787023 0)
(-0.0117471 0.00934179 0)
(-0.0151522 0.0109356 0)
(-0.0190284 0.0126652 0)
(-0.0234102 0.0145421 0)
(-0.0283303 0.0165743 0)
(-0.0338176 0.0187651 0)
(-0.0398949 0.0211118 0)
(-0.0465773 0.0236049 0)
(-0.0538696 0.0262275 0)
(-0.0617646 0.0289549 0)
(-0.0702417 0.0317549 0)
(-0.0792661 0.0345885 0)
(-0.0887886 0.0374105 0)
(-0.0987461 0.0401712 0)
(-0.109064 0.042818 0)
(-0.119657 0.0452978 0)
(-0.130436 0.0475587 0)
(-0.141305 0.0495523 0)
(-0.15217 0.051236 0)
(-0.162944 0.0525737 0)
(-0.17354 0.0535372 0)
(-0.183886 0.0541067 0)
(-0.193916 0.0542704 0)
(-0.203574 0.054024 0)
(-0.212815 0.0533699 0)
(-0.221601 0.052316 0)
(-0.229905 0.0508747 0)
(-0.237704 0.0490617 0)
(-0.244981 0.0468947 0)
(-0.251722 0.0443934 0)
(-0.257918 0.0415778 0)
(-0.263562 0.0384685 0)
(-0.268645 0.0350857 0)
(-0.273164 0.0314496 0)
(-0.277113 0.0275798 0)
(-0.280487 0.0234956 0)
(-0.283282 0.0192158 0)
(-0.285492 0.0147593 0)
(-0.287111 0.0101448 0)
(-0.288132 0.0053916 0)
(-0.288548 0.000519498 0)
(-0.288351 -0.00445056 0)
(-0.287529 -0.00949616 0)
(-0.286074 -0.014593 0)
(-0.283972 -0.0197144 0)
(-0.281212 -0.0248308 0)
(-0.27778 -0.0299095 0)
(-0.273663 -0.0349145 0)
(-0.268849 -0.0398056 0)
(-0.263326 -0.0445389 0)
(-0.257086 -0.0490669 0)
(-0.250122 -0.0533382 0)
(-0.242435 -0.0572988 0)
(-0.234029 -0.0608925 0)
(-0.224919 -0.0640623 0)
(-0.215126 -0.0667516 0)
(-0.204685 -0.0689067 0)
(-0.19364 -0.0704783 0)
(-0.182052 -0.0714239 0)
(-0.169991 -0.0717106 0)
(-0.157543 -0.0713166 0)
(-0.144806 -0.070234 0)
(-0.131889 -0.0684696 0)
(-0.118908 -0.0660462 0)
(-0.105986 -0.0630028 0)
(-0.0932449 -0.0593933 0)
(-0.0808074 -0.0552857 0)
(-0.0687884 -0.0507593 0)
(-0.0572937 -0.0459018 0)
(-0.0464165 -0.0408065 0)
(-0.0362357 -0.0355686 0)
(-0.0268144 -0.0302823 0)
(-0.0182003 -0.025038 0)
(-0.0104253 -0.0199198 0)
(-0.00350741 -0.015004 0)
(0.00254874 -0.0103578 0)
(0.00774997 -0.00603802 0)
(0.0121138 -0.00209072 0)
(0.0156669 0.00144934 0)
(0.0184453 0.00455897 0)
(0.0204923 0.00722664 0)
(0.0218591 0.00945219 0)
(0.0226026 0.0112464 0)
(0.0227859 0.01263 0)
(0.0224743 0.0136322 0)
(0.0217373 0.014289 0)
(0.0206424 0.014641 0)
(0.0192586 0.0147306 0)
(0.017648 0.0145993 0)
(0.0158744 0.0142848 0)
(0.0139885 0.0138174 0)
(0.0120478 0.0132174 0)
(0.0100893 0.0124923 0)
(0.00816992 0.0116345 0)
(0.00631335 0.0106214 0)
(0.00459183 0.00941466 0)
(0.00301803 0.0079636 0)
(0.00170974 0.0062075 0)
(0.000668396 0.00408201 0)
(0.000102862 0.00152293 0)
(5.19454e-05 -0.00122837 0)
(0.000309034 -0.00297591 0)
(0.000730481 -0.00413113 0)
(0.00118479 -0.00478364 0)
(0.00164272 -0.00502876 0)
(0.00202964 -0.00494095 0)
(0.00232468 -0.00459056 0)
(0.00248562 -0.00403068 0)
(0.00249576 -0.00330691 0)
(0.00232725 -0.00245167 0)
(0.00196338 -0.00149033 0)
(0.00138088 -0.000439004 0)
(0.000560586 0.000691629 0)
(-0.00052105 0.00189723 0)
(-0.00188696 0.00317767 0)
(-0.00356362 0.0045374 0)
(-0.00557869 0.00598422 0)
(-0.00796305 0.00752932 0)
(-0.0107495 0.00918624 0)
(-0.0139735 0.0109704 0)
(-0.0176717 0.0128976 0)
(-0.0218819 0.0149833 0)
(-0.0266408 0.0172405 0)
(-0.0319828 0.0196786 0)
(-0.0379375 0.0223013 0)
(-0.0445275 0.0251053 0)
(-0.0517661 0.0280792 0)
(-0.0596545 0.0312027 0)
(-0.0681803 0.0344458 0)
(-0.0773161 0.0377696 0)
(-0.0870184 0.041127 0)
(-0.0972285 0.0444639 0)
(-0.107873 0.047721 0)
(-0.118868 0.0508368 0)
(-0.130119 0.0537495 0)
(-0.141528 0.0564002 0)
(-0.152996 0.058735 0)
(-0.164426 0.0607073 0)
(-0.175728 0.0622794 0)
(-0.18682 0.0634229 0)
(-0.197631 0.0641192 0)
(-0.2081 0.0643588 0)
(-0.218177 0.0641402 0)
(-0.227823 0.063469 0)
(-0.237006 0.0623566 0)
(-0.245703 0.0608184 0)
(-0.253894 0.058873 0)