/*--------------------------------*- C++ -*----------------------------------*\
| =========                 |                                                 |
| \\      /  F ield         | OpenFOAM: The Open Source CFD Toolbox           |
|  \\    /   O peration     | Version:  2406                                  |
|   \\  /    A nd           | Website:  www.openfoam.com                      |
|    \\/     M anipulation  |                                                 |
\*---------------------------------------------------------------------------*/
FoamFile
{
    version     2.0;
    format      ascii;
    arch        "LSB;label=32;scalar=64";
    class       volVectorField;
    location    "8.8";
    object      Uold;
}
// * * * * * * * * * * * * * * * * * * * * * * * * * * * * * * * * * * * * * //

dimensions      [0 1 -1 0 0 0 0];

internalField   nonuniform List<vector> 
3600
(
(2.11266e-05 -1.99283e-05 0)
(-3.40346e-06 1.10224e-05 0)
(-0.00011401 3.77311e-05 0)
(-0.000287069 5.74645e-05 0)
(-0.000504355 6.45932e-05 0)
(-0.000734679 6.78361e-05 0)
(-0.000976516 6.67428e-05 0)
(-0.00121317 6.56577e-05 0)
(-0.0014509 6.35554e-05 0)
(-0.00168076 6.22344e-05 0)
(-0.00190934 6.06419e-05 0)
(-0.00213095 5.9587e-05 0)
(-0.00235024 5.82827e-05 0)
(-0.00256294 5.71531e-05 0)
(-0.00277168 5.56642e-05 0)
(-0.00297287 5.40553e-05 0)
(-0.00316749 5.19609e-05 0)
(-0.00335228 4.95083e-05 0)
(-0.00352692 4.6436e-05 0)
(-0.00368822 4.2803e-05 0)
(-0.00383489 3.84214e-05 0)
(-0.00396371 3.33216e-05 0)
(-0.00407273 2.73852e-05 0)
(-0.00415878 2.06534e-05 0)
(-0.00421967 1.30878e-05 0)
(-0.00425255 4.77584e-06 0)
(-0.00425546 -4.22701e-06 0)
(-0.00422633 -1.37632e-05 0)
(-0.00416399 -2.3679e-05 0)
(-0.00406758 -3.37426e-05 0)
(-0.00393729 -4.37179e-05 0)
(-0.00377387 -5.33221e-05 0)
(-0.00357917 -6.2277e-05 0)
(-0.00335572 -7.02973e-05 0)
(-0.00310707 -7.71224e-05 0)
(-0.00283734 -8.25271e-05 0)
(-0.00255146 -8.63309e-05 0)
(-0.00225457 -8.84261e-05 0)
(-0.00195236 -8.87568e-05 0)
(-0.00165019 -8.73649e-05 0)
(-0.00135371 -8.43274e-05 0)
(-0.00106764 -7.98297e-05 0)
(-0.000796838 -7.40481e-05 0)
(-0.000544694 -6.7268e-05 0)
(-0.000314843 -5.9695e-05 0)
(-0.000108943 -5.1649e-05 0)
(7.05436e-05 -4.32754e-05 0)
(0.000223681 -3.48622e-05 0)
(0.000348608 -2.6405e-05 0)
(0.00044676 -1.81167e-05 0)
(0.00051585 -9.76954e-06 0)
(0.000558233 -1.50997e-06 0)
(0.000569981 7.14034e-06 0)
(0.000554439 1.59461e-05 0)
(0.000505472 2.54419e-05 0)
(0.000429744 3.44794e-05 0)
(0.000322098 4.23285e-05 0)
(0.000202372 4.37955e-05 0)
(8.04815e-05 3.43822e-05 0)
(6.57908e-06 7.12543e-06 0)
(-1.01961e-05 3.22367e-06 0)
(-0.000176793 0.000171112 0)
(-0.000524213 0.000310159 0)
(-0.000993326 0.000415144 0)
(-0.00156027 0.000467776 0)
(-0.00216644 0.000496104 0)
(-0.00280459 0.000502028 0)
(-0.00344182 0.00050153 0)
(-0.00408341 0.000494308 0)
(-0.00471229 0.000486991 0)
(-0.00533622 0.000477658 0)
(-0.00594499 0.000468777 0)
(-0.00654426 0.000458359 0)
(-0.0071264 0.000447292 0)
(-0.00769401 0.000433998 0)
(-0.00824031 0.000418744 0)
(-0.00876511 0.000400333 0)
(-0.00926175 0.000378742 0)
(-0.00972776 0.000353055 0)
(-0.0101563 0.000323135 0)
(-0.0105431 0.000288326 0)
(-0.0108811 0.000248541 0)
(-0.0111653 0.000203445 0)
(-0.0113885 0.000153178 0)
(-0.0115457 9.7828e-05 0)
(-0.0116307 3.79143e-05 0)
(-0.0116394 -2.59632e-05 0)
(-0.0115676 -9.28193e-05 0)
(-0.0114132 -0.000161535 0)
(-0.0111749 -0.000230687 0)
(-0.010854 -0.000298752 0)
(-0.0104526 -0.000364042 0)
(-0.00997563 -0.000424871 0)
(-0.00942922 -0.000479575 0)
(-0.00882168 -0.000526635 0)
(-0.00816251 -0.000564751 0)
(-0.0074628 -0.000592899 0)
(-0.00673416 -0.000610431 0)
(-0.00598913 -0.000617046 0)
(-0.00523982 -0.000612897 0)
(-0.00449861 -0.000598446 0)
(-0.00377642 -0.000574599 0)
(-0.00308401 -0.000542416 0)
(-0.00242973 -0.000503311 0)
(-0.00182184 -0.000458587 0)
(-0.00126538 -0.000409787 0)
(-0.000766073 -0.000358005 0)
(-0.000325765 -0.000304497 0)
(5.13085e-05 -0.000249714 0)
(0.000365695 -0.000194329 0)
(0.000612786 -0.000137899 0)
(0.000794502 -8.05777e-05 0)
(0.00090394 -2.12871e-05 0)
(0.000944756 3.93143e-05 0)
(0.00090787 0.000101231 0)
(0.000804111 0.000159471 0)
(0.000629261 0.000207222 0)
(0.000418602 0.000225232 0)
(0.000191586 0.000192508 0)
(3.27748e-05 7.96702e-05 0)
(-4.42993e-05 0.000125683 0)
(-0.00035402 0.00053296 0)
(-0.000929408 0.000859964 0)
(-0.00166102 0.00110074 0)
(-0.00252648 0.00123493 0)
(-0.00344562 0.0013088 0)
(-0.0044114 0.00133297 0)
(-0.00537967 0.00133635 0)
(-0.00635552 0.00132328 0)
(-0.00731584 0.00130579 0)
(-0.00826831 0.00128284 0)
(-0.00919916 0.00125835 0)
(-0.0101137 0.0012297 0)
(-0.0110016 0.00119775 0)
(-0.0118646 0.00115998 0)
(-0.0126933 0.00111616 0)
(-0.0134862 0.00106419 0)
(-0.0142339 0.00100347 0)
(-0.0149319 0.000932311 0)
(-0.0155707 0.00085009 0)
(-0.0161437 0.000755645 0)
(-0.0166413 0.000648658 0)
(-0.0170559 0.000528699 0)
(-0.0173783 0.000396133 0)
(-0.0176014 0.000251521 0)
(-0.0177175 9.62178e-05 0)
(-0.0177211 -6.80431e-05 0)
(-0.0176077 -0.000238789 0)
(-0.017375 -0.00041314 0)
(-0.0170225 -0.000587647 0)
(-0.0165525 -0.000758597 0)
(-0.0159692 -0.000922012 0)
(-0.0152799 -0.00107393 0)
(-0.0144937 -0.00121053 0)
(-0.0136223 -0.00132834 0)
(-0.0126792 -0.00142442 0)
(-0.0116793 -0.00149649 0)
(-0.0106385 -0.00154312 0)
(-0.00957344 -0.00156368 0)
(-0.00850047 -0.00155851 0)
(-0.00743592 -0.00152873 0)
(-0.00639445 -0.00147633 0)
(-0.00539027 -0.00140376 0)
(-0.00443477 -0.00131412 0)
(-0.00353895 -0.00121046 0)
(-0.0027101 -0.0010961 0)
(-0.001956 -0.000973693 0)
(-0.00128002 -0.000845821 0)
(-0.000688013 -0.000713786 0)
(-0.000180598 -0.000578699 0)
(0.000236053 -0.000440047 0)
(0.000562732 -0.000297637 0)
(0.000790714 -0.000150059 0)
(0.000922784 1.72222e-06 0)
(0.000948282 0.000155509 0)
(0.000879054 0.000301028 0)
(0.00071135 0.000420182 0)
(0.000486865 0.000476503 0)
(0.000229523 0.000422434 0)
(4.21122e-05 0.000201093 0)
(-7.56697e-05 0.000338071 0)
(-0.00051973 0.00106763 0)
(-0.00130153 0.0016252 0)
(-0.00225979 0.00202164 0)
(-0.00337565 0.00225141 0)
(-0.00455067 0.00237941 0)
(-0.00578251 0.00242808 0)
(-0.00701803 0.00243827 0)
(-0.00826417 0.00241999 0)
(-0.00949233 0.00239052 0)
(-0.0107105 0.00235027 0)
(-0.0119013 0.00230461 0)
(-0.0130696 0.00225054 0)
(-0.0142024 0.00218883 0)
(-0.0153004 0.00211604 0)
(-0.016352 0.00203138 0)
(-0.0173542 0.00193177 0)
(-0.0182954 0.00181597 0)
(-0.0191694 0.00168149 0)
(-0.0199646 0.00152722 0)
(-0.0206728 0.00135155 0)
(-0.0212823 0.00115406 0)
(-0.0217841 0.000934408 0)
(-0.0221676 0.000693456 0)
(-0.0224247 0.000432561 0)
(-0.0225469 0.0001543 0)
(-0.0225287 -0.00013803 0)
(-0.0223655 -0.000440015 0)
(-0.0220561 -0.000746554 0)
(-0.0216008 -0.00105173 0)
(-0.0210036 -0.00134922 0)
(-0.0202707 -0.00163242 0)
(-0.0194116 -0.00189479 0)
(-0.0184381 -0.00213011 0)
(-0.0173647 -0.00233283 0)
(-0.0162075 -0.00249829 0)
(-0.0149846 -0.00262296 0)
(-0.0137146 -0.00270464 0)
(-0.012417 -0.00274251 0)
(-0.0111108 -0.00273724 0)
(-0.00981463 -0.00269075 0)
(-0.00854544 -0.00260632 0)
(-0.00731939 -0.00248801 0)
(-0.00614952 -0.00234083 0)
(-0.00504826 -0.00216977 0)
(-0.00402402 -0.00198012 0)
(-0.00308559 -0.00177623 0)
(-0.00223706 -0.00156214 0)
(-0.00148502 -0.00134003 0)
(-0.000830624 -0.0011115 0)
(-0.000280825 -0.000875876 0)
(0.000164661 -0.000632687 0)
(0.000496209 -0.000380162 0)
(0.00071622 -0.000119853 0)
(0.00081333 0.000143584 0)
(0.000799675 0.000394017 0)
(0.000671553 0.000601607 0)
(0.000472054 0.000711964 0)
(0.000226624 0.000648893 0)
(4.18291e-05 0.00032364 0)
(-9.79925e-05 0.0006332 0)
(-0.000651489 0.00177169 0)
(-0.00160823 0.00260729 0)
(-0.00275933 0.00318273 0)
(-0.00408701 0.0035222 0)
(-0.00547477 0.00371139 0)
(-0.00692552 0.00378894 0)
(-0.00837822 0.00380703 0)
(-0.00984294 0.00378295 0)
(-0.0112864 0.00373865 0)
(-0.0127176 0.00367671 0)
(-0.0141159 0.00360364 0)
(-0.0154861 0.00351637 0)
(-0.0168126 0.00341535 0)
(-0.0180954 0.00329634 0)
(-0.0193207 0.00315775 0)
(-0.0204844 0.00299562 0)
(-0.0215729 0.00280789 0)
(-0.0225789 0.00259134 0)
(-0.0234887 0.00234434 0)
(-0.024293 0.00206496 0)
(-0.0249785 0.00175279 0)
(-0.0255355 0.00140783 0)
(-0.0259521 0.00103169 0)
(-0.0262198 0.000626883 0)
(-0.02633 0.000197603 0)
(-0.0262771 -0.000250843 0)
(-0.0260571 -0.00071164 0)
(-0.0256696 -0.00117699 0)
(-0.0251162 -0.00163804 0)
(-0.0244025 -0.00208545 0)
(-0.0235366 -0.00250956 0)
(-0.0225302 -0.00290097 0)
(-0.0213974 -0.00325079 0)
(-0.0201551 -0.00355121 0)
(-0.018822 -0.00379574 0)
(-0.0174187 -0.00397958 0)
(-0.0159663 -0.00409986 0)
(-0.0144867 -0.00415565 0)
(-0.0130009 -0.00414816 0)
(-0.0115296 -0.0040804 0)
(-0.0100914 -0.00395722 0)
(-0.00870366 -0.00378465 0)
(-0.0073805 -0.00356992 0)
(-0.00613507 -0.0033203 0)
(-0.0049761 -0.00304339 0)
(-0.00391257 -0.00274548 0)
(-0.00294841 -0.00243226 0)
(-0.00209009 -0.00210688 0)
(-0.00133836 -0.00177147 0)
(-0.000700021 -0.00142517 0)
(-0.000174456 -0.00106713 0)
(0.000228679 -0.000695171 0)
(0.000511908 -0.000311483 0)
(0.000663661 7.66229e-05 0)
(0.000696031 0.000446661 0)
(0.000605321 0.000756533 0)
(0.000434466 0.000932635 0)
(0.000210194 0.0008699 0)
(3.78733e-05 0.00044498 0)
(-0.000116543 0.000986492 0)
(-0.000762476 0.00260152 0)
(-0.00186563 0.00374849 0)
(-0.00317788 0.00451569 0)
(-0.0046812 0.00496955 0)
(-0.00624339 0.00522065 0)
(-0.00787231 0.00532714 0)
(-0.0095002 0.00535224 0)
(-0.0111407 0.005321 0)
(-0.0127563 0.0052594 0)
(-0.0143577 0.00517227 0)
(-0.0159211 0.00506694 0)
(-0.0174516 0.00494032 0)
(-0.0189311 0.00479245 0)
(-0.0203592 0.00461831 0)
(-0.02172 0.00441552 0)
(-0.0230087 0.00417921 0)
(-0.0242098 0.00390656 0)
(-0.025315 0.00359369 0)
(-0.0263092 0.00323852 0)
(-0.0271821 0.00283895 0)
(-0.0279192 0.00239475 0)
(-0.0285099 0.00190645 0)
(-0.0289417 0.00137669 0)
(-0.0292057 0.000809412 0)
(-0.0292929 0.000210726 0)
(-0.0291983 -0.000411735 0)
(-0.028918 -0.00104844 0)
(-0.0284523 -0.00168859 0)
(-0.0278043 -0.00232012 0)
(-0.0269806 -0.00293043 0)
(-0.0259913 -0.0035066 0)
(-0.0248499 -0.00403617 0)
(-0.0235727 -0.00450752 0)
(-0.022179 -0.00491048 0)
(-0.0206901 -0.00523679 0)
(-0.0191289 -0.00548039 0)
(-0.0175191 -0.00563787 0)
(-0.0158851 -0.00570837 0)
(-0.0142498 -0.00569385 0)
(-0.0126362 -0.00559865 0)
(-0.0110642 -0.00542952 0)
(-0.00955275 -0.00519472 0)
(-0.00811655 -0.00490409 0)
(-0.00676928 -0.00456747 0)
(-0.00551958 -0.00419507 0)
(-0.0043761 -0.00379534 0)
(-0.00334195 -0.00337585 0)
(-0.00242274 -0.00294079 0)
(-0.00161797 -0.00249292 0)
(-0.000933435 -0.00203108 0)
(-0.000367249 -0.00155406 0)
(7.17461e-05 -0.00105899 0)
(0.000387003 -0.000548668 0)
(0.000567379 -3.25348e-05 0)
(0.000625268 0.000460514 0)
(0.000557169 0.000877038 0)
(0.000405321 0.00112363 0)
(0.000197167 0.00106814 0)
(3.48692e-05 0.000552764 0)
(-0.00013029 0.00139472 0)
(-0.000850134 0.00354872 0)
(-0.00207278 0.00504007 0)
(-0.00351815 0.00601448 0)
(-0.00516715 0.00658942 0)
(-0.00687361 0.00690431 0)
(-0.00864929 0.00703989 0)
(-0.0104204 0.00707079 0)
(-0.012204 0.00703059 0)
(-0.0139593 0.00694885 0)
(-0.0156984 0.0068329 0)
(-0.0173951 0.00669047 0)
(-0.019055 0.00651864 0)
(-0.020658 0.00631675 0)
(-0.0222035 0.0060791 0)
(-0.0236737 0.00580237 0)
(-0.0250633 0.00548085 0)
(-0.0263553 0.0051109 0)
(-0.0275405 0.00468801 0)
(-0.0286025 0.00420972 0)
(-0.0295301 0.00367381 0)
(-0.0303078 0.00308033 0)
(-0.030924 0.00243054 0)
(-0.0313655 0.00172825 0)
(-0.0316228 0.000979081 0)
(-0.0316865 0.000191304 0)
(-0.0315512 -0.00062482 0)
(-0.0312133 -0.00145672 0)
(-0.0306735 -0.00229025 0)
(-0.0299353 -0.00310977 0)
(-0.0290067 -0.003899 0)
(-0.0278989 -0.00464145 0)
(-0.0266276 -0.00532125 0)
(-0.0252109 -0.00592374 0)
(-0.0236709 -0.00643617 0)
(-0.0220311 -0.00684832 0)
(-0.0203177 -0.00715283 0)
(-0.0185568 -0.00734572 0)
(-0.0167758 -0.00742634 0)
(-0.0150004 -0.0073976 0)
(-0.0132558 -0.00726546 0)
(-0.0115641 -0.007039 0)
(-0.00994586 -0.00672918 0)
(-0.00841683 -0.00634896 0)
(-0.00699123 -0.00591133 0)
(-0.00567749 -0.00542963 0)
(-0.00448365 -0.00491495 0)
(-0.00341149 -0.00437713 0)
(-0.00246512 -0.00382169 0)
(-0.00164205 -0.00325217 0)
(-0.000946264 -0.0026671 0)
(-0.000373793 -0.00206483 0)
(6.79857e-05 -0.00144154 0)
(0.000384165 -0.000800515 0)
(0.000564363 -0.000152912 0)
(0.000621892 0.000465876 0)
(0.000553493 0.00099151 0)
(0.00040179 0.00131016 0)
(0.000194721 0.00126374 0)
(3.38379e-05 0.000659282 0)
(-0.000142114 0.00184025 0)
(-0.000923632 0.00458036 0)
(-0.00224453 0.00644041 0)
(-0.00379963 0.00763236 0)
(-0.00556853 0.00833128 0)
(-0.00739363 0.00870947 0)
(-0.00928986 0.00887266 0)
(-0.0111785 0.00890747 0)
(-0.0130795 0.00885641 0)
(-0.0149492 0.00875229 0)
(-0.0168018 0.00860489 0)
(-0.0186087 0.00842209 0)
(-0.0203762 0.00820104 0)
(-0.0220824 0.00794024 0)
(-0.0237269 0.00763334 0)
(-0.0252904 0.00727597 0)
(-0.0267669 0.0068616 0)
(-0.0281383 0.00638573 0)
(-0.0293948 0.00584327 0)
(-0.0305184 0.00523132 0)
(-0.0314973 0.00454762 0)
(-0.0323145 0.00379254 0)
(-0.0329577 0.00296811 0)
(-0.0334124 0.0020794 0)
(-0.0336682 0.00113384 0)
(-0.0337146 0.000142022 0)
(-0.0335457 -0.00088296 0)
(-0.0331572 -0.00192524 0)
(-0.0325498 -0.00296699 0)
(-0.0317272 -0.00398865 0)
(-0.0306981 -0.0049699 0)
(-0.029475 -0.00589023 0)
(-0.0280752 -0.00673001 0)
(-0.0265191 -0.00747119 0)
(-0.0248312 -0.0080982 0)
(-0.0230382 -0.0085986 0)
(-0.0211691 -0.00896364 0)
(-0.0192535 -0.00918874 0)
(-0.0173219 -0.00927347 0)
(-0.0154034 -0.00922189 0)
(-0.0135263 -0.00904186 0)
(-0.0117154 -0.00874514 0)
(-0.00999357 -0.00834594 0)
(-0.00837815 -0.00786097 0)
(-0.00688437 -0.00730699 0)
(-0.00552058 -0.00670122 0)
(-0.00429415 -0.00605801 0)
(-0.00320513 -0.00539004 0)
(-0.00225567 -0.00470451 0)
(-0.00144047 -0.004006 0)
(-0.000761011 -0.00329271 0)
(-0.000210307 -0.00256247 0)
(0.000206353 -0.00181011 0)
(0.000496512 -0.00103904 0)
(0.000650872 -0.000261543 0)
(0.000684434 0.000480719 0)
(0.000594199 0.00111304 0)
(0.000424409 0.00150085 0)
(0.000203385 0.00146057 0)
(3.49411e-05 0.000764421 0)
(-0.000151358 0.00232262 0)
(-0.000982888 0.00569075 0)
(-0.00238413 0.00794171 0)
(-0.00402956 0.00936214 0)
(-0.00589778 0.0101894 0)
(-0.00782165 0.0106321 0)
(-0.00981859 0.0108226 0)
(-0.0118056 0.0108603 0)
(-0.0138055 0.0107972 0)
(-0.0157722 0.0106692 0)
(-0.0177215 0.0104886 0)
(-0.0196233 0.0102631 0)
(-0.0214847 0.00999006 0)
(-0.0232825 0.00966688 0)
(-0.0250164 0.00928649 0)
(-0.0266659 0.00884341 0)
(-0.0282249 0.00833022 0)
(-0.0296739 0.00774147 0)
(-0.0310025 0.00707138 0)
(-0.0321915 0.00631654 0)
(-0.0332278 0.00547459 0)
(-0.0340932 0.0045461 0)
(-0.0347739 0.00353386 0)
(-0.0352537 0.00244415 0)
(-0.0355206 0.00128627 0)
(-0.0355626 7.32269e-05 0)
(-0.0353724 -0.0011788 0)
(-0.0349443 -0.00245034 0)
(-0.0342786 -0.00371944 0)
(-0.0333785 -0.00496206 0)
(-0.0322535 -0.00615324 0)
(-0.0309172 -0.00726787 0)
(-0.0293886 -0.00828197 0)
(-0.0276905 -0.00917362 0)
(-0.0258502 -0.00992401 0)
(-0.0238971 -0.0105182 0)
(-0.0218636 -0.0109459 0)
(-0.0197825 -0.0112017 0)
(-0.0176881 -0.0112854 0)
(-0.0156129 -0.011202 0)
(-0.0135894 -0.0109616 0)
(-0.0116459 -0.0105789 0)
(-0.00980894 -0.010072 0)
(-0.00809865 -0.009462 0)
(-0.00653224 -0.00877048 0)
(-0.00511865 -0.00801957 0)
(-0.00386493 -0.00722786 0)
(-0.0027692 -0.00641181 0)
(-0.00183118 -0.00558092 0)
(-0.00104187 -0.00474127 0)
(-0.000399421 -0.00389076 0)
(0.000107228 -0.00302661 0)
(0.000475586 -0.00214182 0)
(0.00071656 -0.00123954 0)
(0.000822212 -0.000332596 0)
(0.000810128 0.00053127 0)
(0.000677558 0.00126704 0)
(0.000471994 0.00171893 0)
(0.000222183 0.00167724 0)
(3.76608e-05 0.000878393 0)
(-0.000159549 0.00283045 0)
(-0.00103333 0.00685848 0)
(-0.00250135 0.00951721 0)
(-0.00422194 0.0111741 0)
(-0.00617292 0.0121326 0)
(-0.0081796 0.0126402 0)
(-0.0102616 0.0128575 0)
(-0.0123325 0.0128976 0)
(-0.0144174 0.012822 0)
(-0.0164686 0.0126698 0)
(-0.0185035 0.0124557 0)
(-0.0204908 0.0121872 0)
(-0.0224386 0.0118615 0)
(-0.0243227 0.011475 0)
(-0.0261429 0.0110198 0)
(-0.0278781 0.0104891 0)
(-0.0295217 0.00987456 0)
(-0.0310534 0.00916953 0)
(-0.0324618 0.00836746 0)
(-0.0337265 0.00746422 0)
(-0.0348332 0.00645714 0)
(-0.0357616 0.00534681 0)
(-0.0364961 0.00413658 0)
(-0.0370183 0.00283383 0)
(-0.0373139 0.00144965 0)
(-0.0373685 -4.10757e-07 0)
(-0.0371726 -0.00149689 0)
(-0.036719 -0.00301624 0)
(-0.0360068 -0.0045318 0)
(-0.0350394 -0.00601433 0)
(-0.0338268 -0.00743346 0)
(-0.0323843 -0.00875881 0)
(-0.030733 -0.00996154 0)
(-0.0288981 -0.0110156 0)
(-0.0269091 -0.0118987 0)
(-0.0247975 -0.0125936 0)
(-0.0225976 -0.0130879 0)
(-0.0203443 -0.0133755 0)
(-0.0180744 -0.0134558 0)
(-0.0158241 -0.0133346 0)
(-0.0136304 -0.0130234 0)
(-0.0115268 -0.01254 0)
(-0.00954592 -0.0119064 0)
(-0.00771298 -0.0111491 0)
(-0.00604985 -0.0102956 0)
(-0.00456801 -0.00937449 0)
(-0.00327548 -0.00841007 0)
(-0.00216883 -0.00742409 0)
(-0.00124497 -0.00642944 0)
(-0.000490189 -0.00543442 0)
(0.000101972 -0.00443681 0)
(0.000548206 -0.00343303 0)
(0.00085002 -0.00241364 0)
(0.00102299 -0.00138083 0)
(0.00106113 -0.000347237 0)
(0.000985629 0.000633781 0)
(0.000794103 0.00146683 0)
(0.000538643 0.00197443 0)
(0.000248571 0.00191948 0)
(4.15535e-05 0.00100216 0)
(-0.000166246 0.00336387 0)
(-0.00107525 0.00808009 0)
(-0.00259913 0.0111616 0)
(-0.00438284 0.0130629 0)
(-0.00640388 0.0141562 0)
(-0.0084814 0.0147305 0)
(-0.010637 0.0149756 0)
(-0.0127815 0.0150189 0)
(-0.0149424 0.0149317 0)
(-0.0170704 0.0147565 0)
(-0.0191847 0.0145101 0)
(-0.0212533 0.0141999 0)
(-0.0232851 0.013823 0)
(-0.0252554 0.0133742 0)
(-0.0271645 0.012845 0)
(-0.0289905 0.0122271 0)
(-0.0307268 0.0115108 0)
(-0.0323519 0.0106883 0)
(-0.0338538 0.00975185 0)
(-0.0352106 0.00869635 0)
(-0.0364063 0.00751847 0)
(-0.0374183 0.00621845 0)
(-0.0382286 0.0047999 0)
(-0.0388157 0.00327108 0)
(-0.0391623 0.00164482 0)
(-0.0392511 -6.06389e-05 0)
(-0.0390702 -0.00182205 0)
(-0.0386108 -0.00361102 0)
(-0.0378716 -0.00539511 0)
(-0.0368572 -0.0071388 0)
(-0.03558 -0.00880535 0)
(-0.0340579 -0.0103586 0)
(-0.032315 -0.0117648 0)
(-0.0303778 -0.0129942 0)
(-0.0282756 -0.0140221 0)
(-0.0260381 -0.014829 0)
(-0.0236968 -0.0154014 0)
(-0.021284 -0.0157312 0)
(-0.0188355 -0.0158165 0)
(-0.0163891 -0.0156618 0)
(-0.0139866 -0.0152784 0)
(-0.0116698 -0.0146855 0)
(-0.00948167 -0.0139086 0)
(-0.00745874 -0.0129798 0)
(-0.00563346 -0.0119341 0)
(-0.0040251 -0.0108088 0)
(-0.00264648 -0.00963689 0)
(-0.00149444 -0.0084481 0)
(-0.000563355 -0.00726087 0)
(0.000166587 -0.00608727 0)
(0.000708509 -0.00492547 0)
(0.00108737 -0.00377101 0)
(0.00131098 -0.0026112 0)
(0.00140179 -0.00144628 0)
(0.00135716 -0.000287673 0)
(0.00120328 0.000806271 0)
(0.000938591 0.00172964 0)
(0.000621171 0.00228264 0)
(0.000281103 0.0021991 0)
(4.62699e-05 0.00114163 0)
(-0.000172356 0.00391602 0)
(-0.00111186 0.00934281 0)
(-0.00268343 0.012859 0)
(-0.0045211 0.0150111 0)
(-0.00660235 0.0162424 0)
(-0.00874153 0.0168853 0)
(-0.0109621 0.0171597 0)
(-0.013173 0.0172079 0)
(-0.0154036 0.0171113 0)
(-0.0176039 0.0169155 0)
(-0.0197947 0.01664 0)
(-0.0219436 0.0162915 0)
(-0.0240606 0.0158668 0)
(-0.0261207 0.0153597 0)
(-0.0281248 0.0147602 0)
(-0.0300504 0.0140585 0)
(-0.0318912 0.0132435 0)
(-0.0336245 0.0123057 0)
(-0.0352376 0.0112359 0)
(-0.0367068 0.0100274 0)
(-0.0380141 0.00867596 0)
(-0.0391344 0.00718086 0)
(-0.0400464 0.00554557 0)
(-0.0407251 0.003779 0)
(-0.04115 0.00189581 0)
(-0.0413008 -8.2555e-05 0)
(-0.041164 -0.00212795 0)
(-0.0407315 -0.00420558 0)
(-0.0400049 -0.00627545 0)
(-0.0389938 -0.00829418 0)
(-0.0377168 -0.010218 0)
(-0.0361973 -0.0120056 0)
(-0.0344614 -0.0136203 0)
(-0.0325334 -0.0150317 0)
(-0.0304344 -0.0162156 0)
(-0.0281818 -0.0171532 0)
(-0.0257922 -0.0178297 0)
(-0.0232836 -0.0182343 0)
(-0.0206818 -0.0183599 0)
(-0.018021 -0.018205 0)
(-0.015348 -0.017775 0)
(-0.0127176 -0.0170858 0)
(-0.0101928 -0.0161631 0)
(-0.00783349 -0.015044 0)
(-0.00569599 -0.0137726 0)
(-0.00381951 -0.012399 0)
(-0.00223124 -0.0109699 0)
(-0.000933964 -0.0095284 0)
(7.84634e-05 -0.00810312 0)
(0.000833437 -0.00671327 0)
(0.00135425 -0.00535897 0)
(0.00167894 -0.00403504 0)
(0.00182626 -0.00272445 0)
(0.00182992 -0.00142381 0)
(0.00169367 -0.000141655 0)
(0.00145123 0.00106 0)
(0.00110318 0.00206495 0)
(0.000714997 0.00265064 0)
(0.000317972 0.00252008 0)
(5.15762e-05 0.00129741 0)
(-0.000177527 0.00448673 0)
(-0.00114319 0.010644 0)
(-0.00275587 0.0146056 0)
(-0.00464027 0.0170145 0)
(-0.00677424 0.0183876 0)
(-0.0089683 0.0191021 0)
(-0.0112478 0.0194086 0)
(-0.0135202 0.0194648 0)
(-0.015817 0.0193624 0)
(-0.0180876 0.0191504 0)
(-0.0203546 0.0188505 0)
(-0.0225854 0.0184692 0)
(-0.0247915 0.0180027 0)
(-0.0269476 0.0174434 0)
(-0.0290557 0.0167799 0)
(-0.0310929 0.0160005 0)
(-0.033053 0.0150925 0)
(-0.0349125 0.0140441 0)
(-0.0366578 0.0128444 0)
(-0.0382633 0.0114845 0)
(-0.039709 0.00995831 0)
(-0.0409664 0.00826388 0)
(-0.0420111 0.00640409 0)
(-0.0428145 0.0043885 0)
(-0.0433534 0.00223427 0)
(-0.0436067 -3.22702e-05 0)
(-0.0435638 -0.00237551 0)
(-0.0432233 -0.00475097 0)
(-0.0425984 -0.00710807 0)
(-0.0417127 -0.00939402 0)
(-0.0405982 -0.0115591 0)
(-0.0392856 -0.0135608 0)
(-0.037799 -0.015367 0)
(-0.0361477 -0.0169547 0)
(-0.0343262 -0.0183081 0)
(-0.0323162 -0.0194136 0)
(-0.0300951 -0.0202566 0)
(-0.0276453 -0.020819 0)
(-0.0249655 -0.0210807 0)
(-0.0220774 -0.0210226 0)
(-0.0190321 -0.0206325 0)
(-0.0159056 -0.0199112 0)
(-0.0127965 -0.0188763 0)
(-0.00981028 -0.0175661 0)
(-0.00705239 -0.0160352 0)
(-0.00460653 -0.0143525 0)
(-0.00253508 -0.0125878 0)
(-0.000860996 -0.0108084 0)
(0.000415538 -0.00906313 0)
(0.0013298 -0.00738576 0)
(0.00192057 -0.00578255 0)
(0.00224734 -0.00424895 0)
(0.00234889 -0.00276217 0)
(0.0022786 -0.00131266 0)
(0.00205328 9.70386e-05 0)
(0.00171921 0.00140375 0)
(0.00128216 0.00248212 0)
(0.000817322 0.00308698 0)
(0.000358225 0.00288899 0)
(5.73447e-05 0.00147272 0)
(-0.000182326 0.00507227 0)
(-0.00117103 0.0119767 0)
(-0.00281957 0.0163928 0)
(-0.00474498 0.019064 0)
(-0.0069257 0.0205827 0)
(-0.00916935 0.0213722 0)
(-0.0115031 0.0217143 0)
(-0.0138337 0.0217828 0)
(-0.0161944 0.0216794 0)
(-0.0185347 0.0214571 0)
(-0.020879 0.0211396 0)
(-0.0231948 0.0207329 0)
(-0.0254952 0.0202329 0)
(-0.0277552 0.0196301 0)
(-0.0299777 0.0189119 0)
(-0.03214 0.0180641 0)
(-0.0342359 0.0170722 0)
(-0.0362416 0.0159215 0)
(-0.0381425 0.0145988 0)
(-0.0399112 0.0130923 0)
(-0.0415253 0.0113937 0)
(-0.0429533 0.00949887 0)
(-0.0441679 0.00741029 0)
(-0.0451385 0.00513902 0)
(-0.0458427 0.00270719 0)
(-0.0462656 0.000150191 0)
(-0.0464103 -0.00248308 0)
(-0.0462976 -0.00513243 0)
(-0.0459692 -0.00773261 0)
(-0.0454777 -0.0102219 0)
(-0.0448761 -0.0125515 0)
(-0.0441991 -0.0146911 0)
(-0.0434515 -0.0166298 0)
(-0.0425992 -0.0183698 0)
(-0.0415732 -0.0199172 0)
(-0.0402796 -0.0212708 0)
(-0.0386196 -0.0224146 0)
(-0.0365079 -0.0233142 0)
(-0.0338941 -0.0239199 0)
(-0.0307744 -0.0241746 0)
(-0.0272024 -0.0240254 0)
(-0.0232851 -0.0234365 0)
(-0.0191785 -0.0224002 0)
(-0.0150646 -0.0209454 0)
(-0.011137 -0.0191355 0)
(-0.00756588 -0.0170658 0)
(-0.00448797 -0.0148447 0)
(-0.00197713 -0.0125836 0)
(-5.85272e-05 -0.0103709 0)
(0.00130573 -0.00827174 0)
(0.0021754 -0.00630878 0)
(0.00264442 -0.00448254 0)
(0.00278738 -0.0027634 0)
(0.00269283 -0.00113169 0)
(0.00240378 0.000421579 0)
(0.00198886 0.00183698 0)
(0.00146572 0.0029833 0)
(0.000923496 0.0035943 0)
(0.000400357 0.00330766 0)
(6.34434e-05 0.00166794 0)
(-0.000186366 0.00567145 0)
(-0.00119486 0.0133376 0)
(-0.0028746 0.0182163 0)
(-0.00483608 0.0211552 0)
(-0.00705862 0.0228236 0)
(-0.0093476 0.0236923 0)
(-0.0117322 0.0240747 0)
(-0.0141185 0.024161 0)
(-0.0165418 0.0240632 0)
(-0.0189522 0.023838 0)
(-0.0213755 0.0235116 0)
(-0.0237803 0.0230891 0)
(-0.0261809 0.0225662 0)
(-0.0285534 0.0219314 0)
(-0.0309017 0.0211704 0)
(-0.0332035 0.0202667 0)
(-0.0354533 0.0192031 0)
(-0.0376268 0.0179619 0)
(-0.0397089 0.0165265 0)
(-0.0416705 0.0148819 0)
(-0.0434873 0.0130166 0)
(-0.0451257 0.0109246 0)
(-0.0465578 0.00860909 0)
(-0.0477557 0.00608594 0)
(-0.0487079 0.00338865 0)
(-0.0494216 0.000571217 0)
(-0.0499368 -0.00229307 0)
(-0.0503243 -0.00511926 0)
(-0.0506801 -0.00782535 0)
(-0.0511019 -0.0103497 0)
(-0.0516617 -0.0126654 0)
(-0.0523755 -0.014784 0)
(-0.0531876 -0.016748 0)
(-0.0539676 -0.0186119 0)
(-0.0545268 -0.0204209 0)
(-0.0546454 -0.0221903 0)
(-0.0541062 -0.0238946 0)
(-0.0527262 -0.0254642 0)
(-0.0503848 -0.0267937 0)
(-0.0470415 -0.0277564 0)
(-0.0427489 -0.0282251 0)
(-0.0376504 -0.0280947 0)
(-0.0319753 -0.0273021 0)
(-0.026013 -0.0258446 0)
(-0.0200894 -0.023784 0)
(-0.0145178 -0.0212462 0)
(-0.00957165 -0.0183972 0)
(-0.0054327 -0.0154234 0)
(-0.00219398 -0.0124886 0)
(0.000163138 -0.00972254 0)
(0.00171816 -0.00718748 0)
(0.00261436 -0.00490201 0)
(0.00298581 -0.00283107 0)
(0.00298182 -0.00093987 0)
(0.00269485 0.000801316 0)
(0.00223382 0.00234588 0)
(0.00164128 0.00356391 0)
(0.00102836 0.00417256 0)
(0.000442976 0.00377774 0)
(6.97602e-05 0.00188449 0)
(-0.000190033 0.00628258 0)
(-0.00121556 0.0147231 0)
(-0.0029221 0.020072 0)
(-0.00491507 0.0232838 0)
(-0.00717482 0.0251066 0)
(-0.00950519 0.0260593 0)
(-0.0119372 0.0264875 0)
(-0.014377 0.026598 0)
(-0.0168619 0.0265135 0)
(-0.0193424 0.0262944 0)
(-0.0218467 0.0259692 0)
(-0.0243441 0.0255425 0)
(-0.0268509 0.0250096 0)
(-0.0293442 0.0243569 0)
(-0.0318296 0.0235683 0)
(-0.0342856 0.0226245 0)
(-0.0367076 0.0215054 0)
(-0.0390715 0.0201895 0)
(-0.0413621 0.0186566 0)
(-0.0435493 0.0168875 0)
(-0.0456083 0.0148677 0)
(-0.0475062 0.0125909 0)
(-0.0492201 0.0100648 0)
(-0.0507372 0.00731907 0)
(-0.0520776 0.00441262 0)
(-0.053302 0.00143616 0)
(-0.0545268 -0.00149556 0)
(-0.055911 -0.00426502 0)
(-0.0576304 -0.00678307 0)
(-0.0598261 -0.00901842 0)
(-0.0625569 -0.0110124 0)
(-0.0657603 -0.0128706 0)
(-0.0692463 -0.0147339 0)
(-0.0727153 -0.0167384 0)
(-0.0758007 -0.0189774 0)
(-0.0781172 -0.0214741 0)
(-0.0793093 -0.0241712 0)
(-0.0790877 -0.0269345 0)
(-0.0772585 -0.0295696 0)
(-0.0737387 -0.0318452 0)
(-0.0685703 -0.0335228 0)
(-0.0619211 -0.0343878 0)
(-0.0540858 -0.0342814 0)
(-0.0454656 -0.0331303 0)
(-0.0365451 -0.0309653 0)
(-0.027834 -0.0279299 0)
(-0.0198191 -0.0242595 0)
(-0.0128798 -0.0202517 0)
(-0.00726023 -0.0162001 0)
(-0.00301972 -0.0123579 0)
(-8.43976e-05 -0.00887643 0)
(0.00174492 -0.00582389 0)
(0.00268956 -0.00317025 0)
(0.00299631 -0.000861908 0)
(0.00284376 0.0011652 0)
(0.00241108 0.00289257 0)
(0.00178858 0.00420534 0)
(0.00112374 0.00481369 0)
(0.00048391 0.00429654 0)
(7.61456e-05 0.00212208 0)
(-0.000192829 0.00690277 0)
(-0.00123197 0.0161279 0)
(-0.00296067 0.0219533 0)
(-0.00498045 0.0254431 0)
(-0.00727283 0.0274252 0)
(-0.00964068 0.0284672 0)
(-0.0121169 0.0289476 0)
(-0.0146078 0.02909 0)
(-0.0171528 0.0290278 0)
(-0.0197035 0.0288252 0)
(-0.0222899 0.0285133 0)
(-0.024883 0.0280962 0)
(-0.0275012 0.0275685 0)
(-0.0301229 0.0269148 0)
(-0.0327559 0.026117 0)
(-0.0353802 0.0251526 0)
(-0.0379927 0.0239983 0)
(-0.0405701 0.0226286 0)
(-0.0430981 0.0210186 0)
(-0.0455473 0.0191456 0)
(-0.0478951 0.0169935 0)
(-0.050116 0.0145601 0)
(-0.0522053 0.0118688 0)
(-0.0541891 0.00898126 0)
(-0.0561563 0.00600818 0)
(-0.0582712 0.00310486 0)
(-0.0607772 0.000444731 0)
(-0.063955 -0.00182977 0)
(-0.068056 -0.00366269 0)
(-0.0732157 -0.00512105 0)
(-0.0793914 -0.0063929 0)
(-0.0863393 -0.00774529 0)
(-0.0936426 -0.00945806 0)
(-0.100773 -0.0117566 0)
(-0.107164 -0.0147636 0)
(-0.11228 -0.0184759 0)
(-0.115659 -0.0227672 0)
(-0.11694 -0.027406 0)
(-0.115876 -0.0320825 0)
(-0.112342 -0.0364383 0)
(-0.106345 -0.0400989 0)
(-0.098034 -0.0427082 0)
(-0.0877161 -0.0439674 0)
(-0.0758537 -0.0436777 0)
(-0.0630612 -0.0417799 0)
(-0.0500564 -0.038386 0)
(-0.0376012 -0.0337783 0)
(-0.0263835 -0.0283847 0)
(-0.0169329 -0.0226906 0)
(-0.00951059 -0.0171635 0)
(-0.00412922 -0.0121348 0)
(-0.000559439 -0.00779258 0)
(0.00152676 -0.00414571 0)
(0.00251797 -0.0011272 0)
(0.00273081 0.00137776 0)
(0.0024601 0.00340197 0)
(0.00188047 0.004869 0)
(0.00119965 0.00550008 0)
(0.000520938 0.00485796 0)
(8.25097e-05 0.00238025 0)
(-0.000195089 0.00753169 0)
(-0.00124448 0.0175505 0)
(-0.00299023 0.0238589 0)
(-0.00503166 0.027632 0)
(-0.0073515 0.0297788 0)
(-0.0097523 0.0309164 0)
(-0.0122686 0.0314561 0)
(-0.0148074 0.0316387 0)
(-0.0174102 0.0316085 0)
(-0.0200297 0.0314341 0)
(-0.0226985 0.0311489 0)
(-0.0253889 0.0307567 0)
(-0.028122 0.0302517 0)
(-0.0308785 0.0296164 0)
(-0.0336683 0.0288308 0)
(-0.0364738 0.0278693 0)
(-0.0392941 0.0267048 0)
(-0.0421081 0.0253076 0)
(-0.0449037 0.0236489 0)
(-0.0476554 0.0217031 0)
(-0.0503493 0.0194578 0)
(-0.0529793 0.0169264 0)
(-0.0555837 0.0141695 0)
(-0.0582677 0.011315 0)
(-0.0612456 0.00856517 0)
(-0.0648456 0.00617013 0)
(-0.0694773 0.00436015 0)
(-0.0755335 0.00325246 0)
(-0.0832673 0.00277542 0)
(-0.0926818 0.00265104 0)
(-0.10349 0.00244931 0)
(-0.11515 0.00169182 0)
(-0.12696 -3.6885e-05 0)
(-0.138177 -0.00300695 0)
(-0.148107 -0.00730683 0)
(-0.156154 -0.0128489 0)
(-0.161843 -0.0193996 0)
(-0.164807 -0.0266142 0)
(-0.164785 -0.0340696 0)
(-0.161612 -0.0412895 0)
(-0.155226 -0.0477699 0)
(-0.145686 -0.0530059 0)
(-0.133207 -0.0565282 0)
(-0.118192 -0.0579537 0)
(-0.101266 -0.0570454 0)
(-0.0832712 -0.0537814 0)
(-0.0652312 -0.0483997 0)
(-0.0482227 -0.0414132 0)
(-0.0332292 -0.0335295 0)
(-0.0209279 -0.0255371 0)
(-0.0116042 -0.0180956 0)
(-0.00510474 -0.0116517 0)
(-0.001012 -0.00633937 0)
(0.00124624 -0.00211075 0)
(0.00219163 0.00121263 0)
(0.0022988 0.00374589 0)
(0.00188124 0.00548758 0)
(0.00124377 0.00620017 0)
(0.000551802 0.00545059 0)
(8.89435e-05 0.0026577 0)
(-0.000196151 0.00816401 0)
(-0.00125133 0.0189818 0)
(-0.00300822 0.0257779 0)
(-0.00506542 0.0298393 0)
(-0.00740692 0.0321565 0)
(-0.00983549 0.033396 0)
(-0.0123871 0.0340027 0)
(-0.0149698 0.0342347 0)
(-0.0176268 0.0342477 0)
(-0.0203127 0.0341143 0)
(-0.0230621 0.0338707 0)
(-0.0258498 0.0335208 0)
(-0.0286995 0.0330582 0)
(-0.0315946 0.0324638 0)
(-0.0345481 0.0317156 0)