/*--------------------------------*- C++ -*----------------------------------*\
| =========                 |                                                 |
| \\      /  F ield         | OpenFOAM: The Open Source CFD Toolbox           |
|  \\    /   O peration     | Version:  2406                                  |
|   \\  /    A nd           | Website:  www.openfoam.com                      |
|    \\/     M anipulation  |                                                 |
\*---------------------------------------------------------------------------*/
FoamFile
{
    version     2.0;
    format      ascii;
    arch        "LSB;label=32;scalar=64";
    class       volVectorField;
    location    "43";
    object      U_0;
}
// * * * * * * * * * * * * * * * * * * * * * * * * * * * * * * * * * * * * * //

dimensions      [0 1 -1 0 0 0 0];

internalField   nonuniform List<vector> 
4096
(
(-1.91312e-05 1.16181e-05 0)
(0.000367731 -9.66738e-05 0)
(0.0011974 -0.000176307 0)
(0.00219696 -0.000197317 0)
(0.00315778 -0.000170375 0)
(0.00393082 -0.000121983 0)
(0.0044559 -7.5326e-05 0)
(0.00475058 -4.51683e-05 0)
(0.00487622 -3.70471e-05 0)
(0.00490242 -4.86105e-05 0)
(0.00488142 -7.13782e-05 0)
(0.00483164 -9.73866e-05 0)
(0.00473415 -0.000119868 0)
(0.00454233 -0.000135221 0)
(0.00419294 -0.000142162 0)
(0.00361539 -0.000140974 0)
(0.0027362 -0.00013048 0)
(0.00147972 -0.000108783 0)
(-0.000230036 -7.35638e-05 0)
(-0.00246776 -2.31314e-05 0)
(-0.00530013 4.45504e-05 0)
(-0.00877734 0.000132062 0)
(-0.0129244 0.000245834 0)
(-0.0177299 0.000396268 0)
(-0.0231376 0.000592511 0)
(-0.0290415 0.000834158 0)
(-0.0352852 0.00110553 0)
(-0.0416641 0.0013765 0)
(-0.0479322 0.00160903 0)
(-0.0538127 0.00176614 0)
(-0.0590155 0.00181949 0)
(-0.0632578 0.00175167 0)
(-0.0662823 0.00155251 0)
(-0.0678657 0.00122255 0)
(-0.0678129 0.000800115 0)
(-0.0659476 0.000312845 0)
(-0.0622023 -0.000236934 0)
(-0.056614 -0.000814637 0)
(-0.0492908 -0.00137621 0)
(-0.0404401 -0.00187324 0)
(-0.0303772 -0.00225615 0)
(-0.0195222 -0.00247788 0)
(-0.00836608 -0.00250357 0)
(0.00251643 -0.00232667 0)
(0.0125165 -0.0019246 0)
(0.021068 -0.0013164 0)
(0.0276985 -0.000595187 0)
(0.0320972 0.000136131 0)
(0.0341727 0.000768867 0)
(0.0340547 0.0012153 0)
(0.0320998 0.00145826 0)
(0.0288091 0.00149201 0)
(0.0247358 0.00135716 0)
(0.0204098 0.00112746 0)
(0.0162477 0.00087365 0)
(0.0125145 0.00064233 0)
(0.00933405 0.000454627 0)
(0.00672328 0.000314441 0)
(0.00463195 0.000216296 0)
(0.00297982 0.000150413 0)
(0.00169128 0.000102979 0)
(0.000729349 5.28047e-05 0)
(0.000111188 -2.12247e-05 0)
(-7.52408e-05 -9.10113e-05 0)
(6.94602e-05 -0.000355678 0)
(0.00114739 -0.00119118 0)
(0.0030116 -0.00173422 0)
(0.00515964 -0.00185654 0)
(0.00717811 -0.00163275 0)
(0.00877967 -0.00121607 0)
(0.00983343 -0.000759663 0)
(0.0103433 -0.000373049 0)
(0.0103925 -0.000105152 0)
(0.0100824 5.2817e-05 0)
(0.00947813 0.000151326 0)
(0.00857632 0.000256115 0)
(0.00729934 0.000428329 0)
(0.00551018 0.000709447 0)
(0.00303447 0.00112365 0)
(-0.00031789 0.00168045 0)
(-0.00473868 0.00238465 0)
(-0.0104105 0.00323862 0)
(-0.017488 0.00424008 0)
(-0.0260758 0.00537849 0)
(-0.0361964 0.00663176 0)
(-0.0477596 0.00795602 0)
(-0.0605423 0.00927739 0)
(-0.0741903 0.0104927 0)
(-0.0882443 0.0114843 0)
(-0.102184 0.0121403 0)
(-0.11548 0.0123708 0)
(-0.127638 0.0121149 0)
(-0.138229 0.0113427 0)
(-0.146898 0.0100539 0)
(-0.153366 0.00827458 0)
(-0.157433 0.00605424 0)
(-0.158957 0.00346297 0)
(-0.157829 0.000592663 0)
(-0.153978 -0.0024416 0)
(-0.147392 -0.00558116 0)
(-0.138153 -0.00872396 0)
(-0.12638 -0.0117412 0)
(-0.112273 -0.0144883 0)
(-0.096117 -0.0168064 0)
(-0.0783 -0.018532 0)
(-0.0593095 -0.0195089 0)
(-0.0397173 -0.0196081 0)
(-0.0201746 -0.0187627 0)
(-0.00141637 -0.0169402 0)
(0.0157422 -0.0142026 0)
(0.0305725 -0.0107018 0)
(0.0424719 -0.00675273 0)
(0.0510107 -0.00273059 0)
(0.056009 0.00097255 0)
(0.0575405 0.00401457 0)
(0.0559101 0.00618244 0)
(0.0517076 0.00739674 0)
(0.0457229 0.00772604 0)
(0.0387926 0.00736946 0)
(0.0316623 0.00658161 0)
(0.0248965 0.00560025 0)
(0.0188411 0.00460353 0)
(0.0136436 0.00369944 0)
(0.00931068 0.0029277 0)
(0.00578339 0.00226136 0)
(0.00301657 0.00161215 0)
(0.00105136 0.00087642 0)
(4.14443e-05 0.000129124 0)
(0.000144504 -0.00112776 0)
(0.00173535 -0.00303811 0)
(0.00423239 -0.00414175 0)
(0.00697272 -0.00431315 0)
(0.00943114 -0.00373404 0)
(0.0112644 -0.00272281 0)
(0.0123149 -0.00159438 0)
(0.0125698 -0.000572981 0)
(0.0120932 0.000242133 0)
(0.0109541 0.000875207 0)
(0.00916425 0.00143819 0)
(0.00664335 0.00208132 0)
(0.0032163 0.00294613 0)
(-0.00135968 0.00413205 0)
(-0.00736447 0.00569329 0)
(-0.015081 0.00764937 0)
(-0.0247557 0.00999402 0)
(-0.036557 0.0126959 0)
(-0.0505171 0.0156819 0)
(-0.0664754 0.018813 0)
(-0.084048 0.0218736 0)
(-0.102653 0.0245941 0)
(-0.121591 0.0267072 0)
(-0.140156 0.0280052 0)
(-0.157718 0.0283703 0)
(-0.173766 0.0277705 0)
(-0.187919 0.0262374 0)
(-0.199907 0.0238393 0)
(-0.209546 0.0206607 0)
(-0.216717 0.0167907 0)
(-0.221346 0.0123225 0)
(-0.223389 0.00736135 0)
(-0.222823 0.00203159 0)
(-0.219651 -0.00354227 0)
(-0.213881 -0.00928957 0)
(-0.205553 -0.0150945 0)
(-0.194705 -0.0208012 0)
(-0.181411 -0.0262325 0)
(-0.165794 -0.0311802 0)
(-0.148041 -0.0354079 0)
(-0.128421 -0.0386607 0)
(-0.107293 -0.0406806 0)
(-0.085113 -0.0412371 0)
(-0.0624378 -0.0401701 0)
(-0.0399238 -0.0374168 0)
(-0.0183044 -0.0330304 0)
(0.00162939 -0.0271833 0)
(0.0191177 -0.0202649 0)
(0.0335641 -0.0127841 0)
(0.0445153 -0.00535887 0)
(0.0517613 0.00138642 0)
(0.0553352 0.00694452 0)
(0.0554598 0.0110072 0)
(0.0526397 0.0134617 0)
(0.0475928 0.0144029 0)
(0.0411229 0.0141072 0)
(0.0340102 0.0129564 0)
(0.0269091 0.0113426 0)
(0.0202812 0.00958992 0)
(0.0143869 0.00790025 0)
(0.00933574 0.00632251 0)
(0.00517865 0.00475086 0)
(0.00204049 0.00298756 0)
(0.000178368 0.000972915 0)
(0.00019702 -0.00215421 0)
(0.00212671 -0.00534819 0)
(0.00496746 -0.00699901 0)
(0.00789955 -0.00707408 0)
(0.0103181 -0.00593187 0)
(0.011866 -0.00409569 0)
(0.0123912 -0.00205415 0)
(0.0118723 -0.000138183 0)
(0.0103352 0.00152162 0)
(0.00777542 0.00299458 0)
(0.00409732 0.00448113 0)
(-0.000904195 0.00623625 0)
(-0.0075288 0.00848569 0)
(-0.0161226 0.0113797 0)
(-0.0270168 0.0149771 0)
(-0.0404609 0.0192554 0)
(-0.0565374 0.0241008 0)
(-0.0750757 0.0292841 0)
(-0.0956023 0.0344467 0)
(-0.117381 0.0391443 0)
(-0.139549 0.0429483 0)
(-0.161276 0.0455425 0)
(-0.18188 0.046762 0)
(-0.200861 0.0465763 0)
(-0.217886 0.0450482 0)
(-0.232758 0.0422933 0)
(-0.245379 0.0384495 0)
(-0.255712 0.0336568 0)
(-0.263758 0.0280453 0)
(-0.26953 0.0217322 0)
(-0.273031 0.0148274 0)
(-0.274253 0.00744308 0)
(-0.273193 -0.000305098 0)
(-0.2699 -0.00832471 0)
(-0.264341 -0.0165475 0)
(-0.256492 -0.0248109 0)
(-0.246318 -0.0329573 0)
(-0.233801 -0.0407705 0)
(-0.218956 -0.0479992 0)
(-0.201838 -0.0543401 0)
(-0.182574 -0.0594542 0)
(-0.161375 -0.062981 0)
(-0.13856 -0.0645734 0)
(-0.114571 -0.0639482 0)
(-0.0899824 -0.060934 0)
(-0.065495 -0.0555244 0)
(-0.0419037 -0.0479268 0)
(-0.0200186 -0.0385506 0)
(-0.000626318 -0.0280367 0)
(0.0156313 -0.0171714 0)
(0.0283378 -0.00675493 0)
(0.0373453 0.00246825 0)
(0.0427182 0.00993464 0)
(0.0446904 0.0153334 0)
(0.0437006 0.0185974 0)
(0.0403501 0.0198944 0)
(0.0353396 0.0195912 0)
(0.0293834 0.0181696 0)
(0.0231149 0.0161159 0)
(0.0170194 0.0138098 0)
(0.0114245 0.0114325 0)
(0.00655738 0.00891532 0)
(0.0027008 0.00597072 0)
(0.000270878 0.00227843 0)
(0.000242823 -0.00335639 0)
(0.00238448 -0.00791008 0)
(0.00532033 -0.00997446 0)
(0.00808891 -0.00970659 0)
(0.010034 -0.00772668 0)
(0.0108162 -0.00480276 0)
(0.010309 -0.00159304 0)
(0.00848043 0.00149352 0)
(0.00529785 0.00434429 0)
(0.000645568 0.00712055 0)
(-0.00572017 0.0101369 0)
(-0.014149 0.0137515 0)
(-0.025037 0.0182434 0)
(-0.0387291 0.0237438 0)
(-0.0554117 0.0302013 0)
(-0.0749975 0.0373674 0)
(-0.0970412 0.0447916 0)
(-0.120755 0.0518728 0)
(-0.145157 0.0579898 0)
(-0.169283 0.0626498 0)
(-0.192346 0.065567 0)
(-0.213795 0.0666557 0)
(-0.233298 0.0659757 0)
(-0.250687 0.0636727 0)
(-0.265906 0.059931 0)
(-0.278967 0.054942 0)
(-0.289922 0.0488853 0)
(-0.298834 0.0419198 0)
(-0.305768 0.0341803 0)
(-0.31077 0.0257806 0)
(-0.31386 0.0168192 0)
(-0.315037 0.00738409 0)
(-0.31431 -0.0024502 0)
(-0.311706 -0.0126205 0)
(-0.307191 -0.0230194 0)
(-0.300673 -0.0335182 0)
(-0.292077 -0.0439469 0)
(-0.281302 -0.0540842 0)
(-0.268267 -0.0636471 0)
(-0.252896 -0.0722866 0)
(-0.235163 -0.0795912 0)
(-0.215106 -0.0851043 0)
(-0.192864 -0.0883563 0)
(-0.168711 -0.0889175 0)
(-0.143088 -0.0864647 0)
(-0.116626 -0.0808587 0)
(-0.0901314 -0.0722209 0)
(-0.0645372 -0.0609808 0)
(-0.0408111 -0.0478816 0)
(-0.0198151 -0.0338678 0)
(-0.00218724 -0.0199756 0)
(0.0117232 -0.00714086 0)
(0.021885 0.00387505 0)
(0.0284763 0.0125628 0)
(0.0317972 0.018716 0)
(0.0322604 0.0223696 0)
(0.0303921 0.0237926 0)
(0.0268019 0.0234372 0)
(0.022122 0.021842 0)
(0.0169339 0.0194994 0)
(0.0117217 0.0167073 0)
(0.00688694 0.0134501 0)
(0.00288786 0.00936045 0)
(0.000295477 0.00381929 0)
(0.000290561 -0.00467971 0)
(0.00252706 -0.0105452 0)
(0.00529932 -0.0127708 0)
(0.00754208 -0.0118214 0)
(0.00858825 -0.00866996 0)
(0.00814521 -0.00435933 0)
(0.00611394 0.000303807 0)
(0.00243614 0.00489007 0)
(-0.00300338 0.00937424 0)
(-0.0104669 0.0140395 0)
(-0.0203523 0.0193235 0)
(-0.0330875 0.0256331 0)
(-0.0490121 0.0331847 0)
(-0.0682184 0.0419033 0)
(-0.0904227 0.0513913 0)
(-0.11492 0.0609755 0)
(-0.140688 0.0698485 0)
(-0.166615 0.0772715 0)
(-0.191736 0.0827351 0)
(-0.215355 0.086005 0)
(-0.237048 0.087072 0)
(-0.256604 0.086071 0)
(-0.273963 0.0832132 0)
(-0.289154 0.0787374 0)
(-0.302257 0.0728791 0)
(-0.313373 0.0658542 0)
(-0.322613 0.05785 0)
(-0.330086 0.0490225 0)
(-0.335888 0.0394979 0)
(-0.340097 0.029376 0)
(-0.342762 0.0187317 0)
(-0.343919 0.00761588 0)
(-0.343599 -0.00393645 0)
(-0.341822 -0.0158742 0)
(-0.338562 -0.0281033 0)
(-0.33372 -0.0405233 0)
(-0.327195 -0.0529829 0)
(-0.318832 -0.0652793 0)
(-0.308465 -0.0771308 0)
(-0.295897 -0.0881729 0)
(-0.280941 -0.0979485 0)
(-0.263432 -0.105921 0)
(-0.243271 -0.111499 0)
(-0.220479 -0.114089 0)
(-0.195255 -0.113173 0)
(-0.168039 -0.108404 0)
(-0.139551 -0.0997078 0)
(-0.110784 -0.0873933 0)
(-0.0829242 -0.0721966 0)
(-0.0571971 -0.0552304 0)
(-0.0346498 -0.0378238 0)
(-0.0159617 -0.0212645 0)
(-0.00135464 -0.00656258 0)
(0.00935324 0.00560799 0)
(0.0165147 0.01492 0)
(0.0205258 0.0213288 0)
(0.0218272 0.0250239 0)
(0.0209133 0.0263853 0)
(0.0183359 0.0259193 0)
(0.0146703 0.024143 0)
(0.0104702 0.021408 0)
(0.00625952 0.0177249 0)
(0.00263192 0.0126561 0)
(0.000258409 0.0053306 0)
(0.000337868 -0.00606606 0)
(0.00251799 -0.013051 0)
(0.00482328 -0.0150619 0)
(0.00615106 -0.0130161 0)
(0.00587378 -0.00831997 0)
(0.00376494 -0.00229301 0)
(-0.000255923 0.00414645 0)
(-0.00629845 0.0106383 0)
(-0.014601 0.0172947 0)
(-0.0255624 0.0245295 0)
(-0.0396373 0.0328369 0)
(-0.0571536 0.0425167 0)
(-0.0781213 0.0534905 0)
(-0.102093 0.0652419 0)
(-0.128164 0.0769119 0)
(-0.155154 0.0875265 0)
(-0.181884 0.096257 0)
(-0.207409 0.102586 0)
(-0.231101 0.10632 0)
(-0.252617 0.10751 0)
(-0.271823 0.10635 0)
(-0.288719 0.103107 0)
(-0.303382 0.0980697 0)
(-0.315938 0.0915182 0)
(-0.326534 0.0837097 0)
(-0.335329 0.0748678 0)
(-0.342483 0.0651785 0)
(-0.348149 0.0547908 0)
(-0.352468 0.0438194 0)
(-0.355561 0.0323467 0)
(-0.357528 0.0204215 0)
(-0.358447 0.00806071 0)
(-0.358377 -0.00473247 0)
(-0.35734 -0.0179302 0)
(-0.355326 -0.0314802 0)
(-0.352267 -0.0453223 0)
(-0.348056 -0.0593522 0)
(-0.342528 -0.0734149 0)
(-0.335462 -0.0872713 0)
(-0.326579 -0.100586 0)
(-0.315552 -0.112907 0)
(-0.302026 -0.123659 0)
(-0.285652 -0.132163 0)
(-0.266147 -0.137669 0)
(-0.243364 -0.139433 0)
(-0.21739 -0.136828 0)
(-0.188649 -0.129468 0)
(-0.157981 -0.117365 0)
(-0.12664 -0.101055 0)
(-0.0961917 -0.0816517 0)
(-0.0682589 -0.0607378 0)
(-0.0441794 -0.0400741 0)
(-0.0246876 -0.0211933 0)
(-0.00981617 -0.00510927 0)
(0.000875099 0.00769477 0)
(0.007985 0.0171613 0)
(0.0120688 0.0234545 0)
(0.0136173 0.0269404 0)
(0.0131317 0.0280731 0)
(0.0111534 0.0273377 0)
(0.00824897 0.0250756 0)
(0.00500497 0.0212836 0)
(0.00208544 0.0154665 0)
(0.000185484 0.0066048 0)
(0.000374306 -0.00742551 0)
(0.00228476 -0.0151664 0)
(0.00376662 -0.0164743 0)
(0.00377222 -0.012873 0)
(0.00176742 -0.00625038 0)
(-0.00241415 0.00182391 0)
(-0.00885156 0.0104194 0)
(-0.0177268 0.0192933 0)
(-0.0294046 0.028712 0)
(-0.044325 0.0391625 0)
(-0.0628103 0.0510111 0)
(-0.0848253 0.0642059 0)
(-0.109823 0.078165 0)
(-0.136772 0.0918936 0)
(-0.164386 0.104278 0)
(-0.191431 0.114399 0)
(-0.216963 0.121714 0)
(-0.240385 0.126047 0)
(-0.261393 0.12749 0)
(-0.279891 0.126288 0)
(-0.29591 0.122758 0)
(-0.309566 0.117243 0)
(-0.321027 0.110079 0)
(-0.330491 0.101572 0)
(-0.338171 0.0919927 0)
(-0.344284 0.0815667 0)
(-0.349038 0.0704738 0)
(-0.352629 0.0588508 0)
(-0.355231 0.0467948 0)
(-0.357001 0.0343661 0)
(-0.358074 0.0215884 0)
(-0.358561 0.00845392 0)
(-0.358533 -0.00505884 0)
(-0.358019 -0.0189567 0)
(-0.357028 -0.0332345 0)
(-0.355541 -0.0478852 0)
(-0.353481 -0.0628665 0)
(-0.350714 -0.0780924 0)
(-0.347026 -0.0934006 0)
(-0.342124 -0.108532 0)
(-0.335617 -0.1231 0)
(-0.327031 -0.13657 0)
(-0.315818 -0.148251 0)
(-0.30141 -0.157303 0)
(-0.283285 -0.162792 0)
(-0.261081 -0.163786 0)
(-0.234729 -0.159498 0)
(-0.204616 -0.149472 0)
(-0.171711 -0.133793 0)
(-0.137602 -0.113257 0)
(-0.104351 -0.0894341 0)
(-0.0741206 -0.0644832 0)
(-0.0486297 -0.0406788 0)
(-0.0286613 -0.0198009 0)
(-0.0139967 -0.00277848 0)
(-0.00384278 0.0102316 0)
(0.00270514 0.0194757 0)
(0.00637049 0.0253748 0)
(0.00771797 0.0284072 0)
(0.00730662 0.029029 0)
(0.00570666 0.0275411 0)
(0.00352697 0.0239016 0)
(0.00144213 0.0175814 0)
(0.000106954 0.00753482 0)
(0.000383421 -0.00861983 0)
(0.00174354 -0.0165637 0)
(0.00200969 -0.0166005 0)
(0.000293134 -0.0109902 0)
(-0.00381113 -0.00208021 0)
(-0.0103964 0.0083837 0)
(-0.0195846 0.0195399 0)
(-0.0316491 0.0312876 0)
(-0.0469799 0.0439914 0)
(-0.0658859 0.0580334 0)
(-0.0883296 0.0734129 0)
(-0.113736 0.0895433 0)
(-0.141018 0.105347 0)
(-0.168817 0.119588 0)
(-0.195844 0.13124 0)
(-0.221121 0.1397 0)
(-0.244045 0.144785 0)
(-0.264319 0.146608 0)
(-0.28186 0.145457 0)
(-0.296725 0.141705 0)
(-0.309065 0.135758 0)
(-0.319096 0.128015 0)
(-0.327073 0.118846 0)
(-0.333267 0.108575 0)
(-0.337953 0.0974744 0)
(-0.341389 0.0857616 0)
(-0.343814 0.0735991 0)
(-0.345436 0.0611004 0)
(-0.346436 0.0483362 0)
(-0.346974 0.0353394 0)
(-0.347189 0.0221111 0)
(-0.347193 0.0086277 0)
(-0.347056 -0.00514722 0)
(-0.346806 -0.0192514 0)
(-0.346475 -0.033726 0)
(-0.346094 -0.0486101 0)
(-0.345632 -0.0639204 0)
(-0.34502 -0.0796404 0)
(-0.34411 -0.0956975 0)
(-0.342671 -0.111937 0)
(-0.340354 -0.12809 0)
(-0.336682 -0.143737 0)
(-0.33104 -0.158278 0)
(-0.322688 -0.170906 0)
(-0.310812 -0.18062 0)
(-0.294616 -0.186274 0)
(-0.273471 -0.186697 0)
(-0.247105 -0.180883 0)
(-0.215829 -0.168243 0)
(-0.180742 -0.1489 0)
(-0.143817 -0.123933 0)
(-0.107725 -0.0954649 0)
(-0.0753008 -0.0663773 0)
(-0.0487137 -0.0395668 0)
(-0.028745 -0.0170419 0)
(-0.0147994 0.00049529 0)
(-0.00562098 0.0133117 0)
(-1.52055e-05 0.0219922 0)
(0.00290635 0.0271775 0)
(0.00383288 0.0293691 0)
(0.00338268 0.0288566 0)
(0.0021789 0.0255693 0)
(0.000872679 0.0189797 0)
(4.66278e-05 0.00812153 0)
(0.000346243 -0.00946121 0)
(0.000825357 -0.0168691 0)
(-0.00052209 -0.0150488 0)
(-0.00431377 -0.00701094 0)
(-0.0107886 0.00451553 0)
(-0.020019 0.0177034 0)
(-0.0321758 0.0317915 0)
(-0.0475549 0.0468082 0)
(-0.0664335 0.0630581 0)
(-0.088798 0.0805898 0)
(-0.114112 0.0988678 0)
(-0.141296 0.116789 0)
(-0.16896 0.133013 0)
(-0.195749 0.146382 0)
(-0.220625 0.156193 0)
(-0.242944 0.162216 0)
(-0.262392 0.164571 0)
(-0.278888 0.163583 0)
(-0.29251 0.159687 0)
(-0.30345 0.153359 0)
(-0.311976 0.145073 0)
(-0.318404 0.135272 0)
(-0.323067 0.124343 0)
(-0.326292 0.11261 0)
(-0.328382 0.100328 0)
(-0.329605 0.0876879 0)
(-0.33019 0.0748188 0)
(-0.330324 0.0618003 0)
(-0.330161 0.0486696 0)
(-0.32983 0.0354309 0)
(-0.329441 0.0220651 0)
(-0.329083 0.008539 0)
(-0.328809 -0.00518992 0)
(-0.328645 -0.0191801 0)
(-0.328642 -0.0335051 0)
(-0.328849 -0.0482265 0)
(-0.329287 -0.0633995 0)
(-0.329953 -0.079058 0)
(-0.330791 -0.0952059 0)
(-0.331679 -0.111792 0)
(-0.332392 -0.128682 0)
(-0.332571 -0.145618 0)
(-0.331685 -0.162174 0)
(-0.329008 -0.177701 0)
(-0.323627 -0.191299 0)
(-0.314482 -0.201802 0)
(-0.30048 -0.20783 0)
(-0.280685 -0.207922 0)
(-0.254568 -0.200772 0)
(-0.222322 -0.185581 0)
(-0.185165 -0.162458 0)
(-0.145498 -0.132799 0)
(-0.10671 -0.0994204 0)
(-0.0724326 -0.0661246 0)
(-0.0453041 -0.0365472 0)
(-0.0259569 -0.0128358 0)
(-0.0132387 0.00471813 0)
(-0.00539345 0.0168826 0)
(-0.000949754 0.0245965 0)
(0.00112806 0.0285788 0)
(0.00162004 0.0292038 0)
(0.00119651 0.0264328 0)
(0.000489337 0.0197871 0)
(1.76321e-05 0.00844641 0)
(0.000246575 -0.00972556 0)
(-0.000511223 -0.0157164 0)
(-0.00381801 -0.0114775 0)
(-0.00993439 -0.000658124 0)
(-0.0189492 0.0137526 0)
(-0.0309355 0.0299268 0)
(-0.0460759 0.0472223 0)
(-0.064584 0.0656738 0)
(-0.0864745 0.085325 0)
(-0.111296 0.105726 0)
(-0.138042 0.125811 0)
(-0.165331 0.144161 0)
(-0.191752 0.159471 0)
(-0.216181 0.17089 0)
(-0.237904 0.178098 0)
(-0.256571 0.181195 0)
(-0.27209 0.180537 0)
(-0.284558 0.176621 0)
(-0.294207 0.170002 0)
(-0.301362 0.161241 0)
(-0.306401 0.150863 0)
(-0.309714 0.139326 0)
(-0.311679 0.12701 0)
(-0.312636 0.114209 0)
(-0.312875 0.101139 0)
(-0.312631 0.0879434 0)
(-0.312088 0.0747077 0)
(-0.311385 0.0614703 0)
(-0.310625 0.0482345 0)
(-0.309889 0.0349787 0)
(-0.309244 0.0216675 0)
(-0.308742 0.00826047 0)
(-0.308414 -0.00528861 0)
(-0.308286 -0.0190428 0)
(-0.308406 -0.0330796 0)
(-0.308827 -0.0474643 0)
(-0.309598 -0.0622648 0)
(-0.310764 -0.0775398 0)
(-0.312346 -0.0933383 0)
(-0.314329 -0.109683 0)
(-0.31663 -0.126553 0)
(-0.319061 -0.143847 0)
(-0.32128 -0.161338 0)
(-0.322742 -0.178617 0)
(-0.322657 -0.195019 0)
(-0.319968 -0.209565 0)
(-0.313392 -0.220931 0)
(-0.30154 -0.227481 0)
(-0.283138 -0.227407 0)
(-0.257361 -0.219025 0)
(-0.224244 -0.201228 0)
(-0.185113 -0.17407 0)
(-0.142849 -0.139332 0)
(-0.101685 -0.100739 0)
(-0.0661597 -0.0632861 0)
(-0.0393024 -0.0314202 0)
(-0.0213046 -0.00720331 0)
(-0.0102664 0.00972483 0)
(-0.00396564 0.0206798 0)
(-0.000738272 0.0268223 0)
(0.000536725 0.0287986 0)
(0.000675529 0.026718 0)
(0.000336444 0.0202127 0)
(2.28728e-05 0.00863275 0)
(6.83164e-05 -0.00917473 0)
(-0.00224857 -0.0127814 0)
(-0.00775949 -0.0056369 0)
(-0.0163335 0.00822298 0)
(-0.0279223 0.0256902 0)
(-0.0426028 0.045008 0)
(-0.0604982 0.0655916 0)
(-0.0816291 0.0873161 0)
(-0.105651 0.109803 0)
(-0.131687 0.132074 0)
(-0.158417 0.152689 0)
(-0.184399 0.170187 0)
(-0.208411 0.183523 0)
(-0.22964 0.192234 0)
(-0.247676 0.196362 0)
(-0.262407 0.196276 0)
(-0.273937 0.192532 0)
(-0.282536 0.185769 0)
(-0.288578 0.176646 0)
(-0.292502 0.16578 0)
(-0.294754 0.153708 0)
(-0.295758 0.140873 0)
(-0.295884 0.12761 0)
(-0.295437 0.114159 0)
(-0.294653 0.100674 0)
(-0.293706 0.0872446 0)
(-0.292716 0.0739054 0)
(-0.291761 0.0606567 0)
(-0.29089 0.0474733 0)
(-0.290138 0.0343159 0)
(-0.28953 0.0211394 0)
(-0.289083 0.00789936 0)
(-0.288811 -0.00545007 0)
(-0.288735 -0.0189657 0)
(-0.288894 -0.0327122 0)
(-0.289336 -0.0467478 0)
(-0.290119 -0.0611343 0)
(-0.291308 -0.0759329 0)
(-0.292969 -0.0912065 0)
(-0.295154 -0.107013 0)
(-0.297888 -0.123398 0)
(-0.301132 -0.140372 0)
(-0.304746 -0.157878 0)
(-0.308427 -0.175735 0)
(-0.311645 -0.193569 0)
(-0.313578 -0.21072 0)
(-0.313067 -0.226148 0)
(-0.30864 -0.23837 0)
(-0.298628 -0.245471 0)
(-0.281416 -0.245241 0)
(-0.255859 -0.235528 0)
(-0.221811 -0.214835 0)
(-0.180722 -0.183145 0)
(-0.136043 -0.142771 0)
(-0.0930111 -0.0986921 0)
(-0.0571527 -0.0574254 0)
(-0.0316195 -0.0241485 0)
(-0.0157261 -0.000396012 0)
(-0.00670697 0.0150906 0)
(-0.00202446 0.0240904 0)
(3.19927e-05 0.027797 0)
(0.000577101 0.0266494 0)
(0.000396111 0.0204802 0)
(5.75008e-05 0.00880922 0)
(-0.000191307 -0.00758451 0)
(-0.00431501 -0.00781292 0)
(-0.012134 0.00261599 0)
(-0.0231552 0.019642 0)
(-0.037213 0.0402197 0)
(-0.0543379 0.0626786 0)
(-0.0745268 0.0863774 0)
(-0.0975306 0.110881 0)
(-0.122638 0.135324 0)
(-0.148656 0.158301 0)
(-0.174152 0.178228 0)
(-0.197815 0.19383 0)
(-0.218711 0.204434 0)
(-0.23634 0.209967 0)
(-0.250547 0.210782 0)
(-0.261432 0.207479 0)
(-0.269286 0.200786 0)
(-0.274529 0.191462 0)
(-0.277651 0.180229 0)
(-0.279152 0.167716 0)
(-0.279496 0.154436 0)
(-0.27908 0.140771 0)
(-0.278223 0.126989 0)
(-0.277159 0.113255 0)
(-0.276049 0.0996557 0)
(-0.274992 0.0862227 0)
(-0.274044 0.0729489 0)
(-0.273229 0.0598039 0)
(-0.272552 0.0467441 0)
(-0.272014 0.0337212 0)
(-0.271608 0.0206879 0)
(-0.271333 0.00760089 0)
(-0.27119 -0.00558157 0)
(-0.271195 -0.0189067 0)
(-0.271379 -0.0324228 0)
(-0.271778 -0.0461746 0)
(-0.272448 -0.0602099 0)
(-0.273455 -0.0745792 0)
(-0.274877 -0.0893396 0)
(-0.276801 -0.104555 0)
(-0.279304 -0.120294 0)
(-0.282446 -0.136626 0)
(-0.286231 -0.153596 0)
(-0.290566 -0.171196 0)
(-0.295193 -0.189301 0)
(-0.299609 -0.207579 0)
(-0.302979 -0.225383 0)
(-0.304071 -0.241612 0)
(-0.30125 -0.254614 0)
(-0.29259 -0.262154 0)
(-0.276155 -0.261559 0)
(-0.250478 -0.250125 0)
(-0.215254 -0.225905 0)
(-0.172118 -0.188866 0)
(-0.125253 -0.142149 0)
(-0.0811229 -0.0925164 0)
(-0.0462246 -0.048326 0)
(-0.0232425 -0.0150387 0)
(-0.0100822 0.00702243 0)
(-0.00325609 0.0200965 0)
(-0.000184338 0.0262027 0)
(0.000749636 0.0263704 0)
(0.000602241 0.0207659 0)
(0.000112008 0.00907981 0)
(-0.000516918 -0.00478844 0)
(-0.006564 -0.000684903 0)
(-0.0166663 0.0132709 0)
(-0.0300008 0.0334508 0)
(-0.0462633 0.0570592 0)
(-0.065413 0.0824687 0)
(-0.0872644 0.108858 0)
(-0.111277 0.135394 0)
(-0.136439 0.160762 0)
(-0.161399 0.18331 0)
(-0.184783 0.201529 0)
(-0.205525 0.214471 0)
(-0.223001 0.22187 0)
(-0.236986 0.224005 0)
(-0.247553 0.221501 0)
(-0.254996 0.215159 0)
(-0.259765 0.205847 0)
(-0.262393 0.194401 0)
(-0.263427 0.181557 0)
(-0.263373 0.167911 0)
(-0.262653 0.153903 0)
(-0.261599 0.139835 0)
(-0.260444 0.125884 0)
(-0.259337 0.112139 0)
(-0.258362 0.0986237 0)
(-0.257552 0.0853227 0)
(-0.256911 0.0721966 0)
(-0.256426 0.0591962 0)
(-0.256075 0.0462699 0)
(-0.255836 0.0333684 0)
(-0.255693 0.0204477 0)
(-0.25563 0.0074693 0)
(-0.255648 -0.00560246 0)
(-0.255758 -0.0188027 0)
(-0.25598 -0.032164 0)
(-0.256343 -0.0457178 0)
(-0.256892 -0.0594966 0)
(-0.257683 -0.0735362 0)
(-0.25879 -0.0878795 0)
(-0.260298 -0.102579 0)
(-0.262305 -0.117703 0)
(-0.264913 -0.133333 0)
(-0.268209 -0.149562 0)
(-0.272239 -0.166477 0)
(-0.276953 -0.184123 0)
(-0.282139 -0.202432 0)
(-0.287319 -0.221119 0)
(-0.291647 -0.239535 0)
(-0.293817 -0.2565 0)
(-0.292043 -0.27015 0)
(-0.284158 -0.277871 0)
(-0.267921 -0.27644 0)
(-0.241588 -0.262529 0)
(-0.204759 -0.233726 0)
(-0.159405 -0.190167 0)
(-0.110715 -0.136369 0)
(-0.0666677 -0.081636 0)
(-0.0344327 -0.0362255 0)
(-0.015174 -0.0047876 0)
(-0.00511525 0.0142218 0)
(-0.000522539 0.0238001 0)
(0.00096963 0.0258797 0)
(0.000859841 0.0211495 0)
(0.000174824 0.00950203 0)
(-0.000871907 -0.000697414 0)
(-0.00882672 0.0085985 0)
(-0.0210555 0.0261553 0)
(-0.0364406 0.0493606 0)
(-0.054521 0.0757831 0)
(-0.0751603 0.103772 0)
(-0.097966 0.132232 0)
(-0.122139 0.159917 0)
(-0.146477 0.185183 0)
(-0.169613 0.206323 0)
(-0.190357 0.222066 0)
(-0.207933 0.231858 0)
(-0.222006 0.235827 0)
(-0.232589 0.234569 0)
(-0.239958 0.22894 0)
(-0.244572 0.21991 0)
(-0.246994 0.208442 0)
(-0.247814 0.195393 0)
(-0.247574 0.181461 0)
(-0.24673 0.167161 0)
(-0.245627 0.152839 0)
(-0.244501 0.138693 0)
(-0.243496 0.124815 0)
(-0.242681 0.111224 0)
(-0.242074 0.0978928 0)
(-0.241664 0.0847728 0)
(-0.241419 0.0718071 0)
(-0.241307 0.0589393 0)
(-0.241294 0.0461182 0)
(-0.241353 0.0332995 0)
(-0.241462 0.020446 0)
(-0.241607 0.00752595 0)
(-0.241786 -0.00548879 0)
(-0.24201 -0.0186225 0)
(-0.242291 -0.0318961 0)
(-0.242651 -0.0453295 0)
(-0.243125 -0.0589429 0)
(-0.243754 -0.0727583 0)
(-0.244597 -0.0868028 0)
(-0.245725 -0.101113 0)
(-0.247225 -0.115739 0)
(-0.249203 -0.130754 0)
(-0.251774 -0.146255 0)
(-0.255055 -0.162365 0)
(-0.259129 -0.179215 0)
(-0.263992 -0.196908 0)
(-0.269472 -0.215439 0)
(-0.275111 -0.23456 0)
(-0.280037 -0.253604 0)
(-0.282854 -0.27126 0)
(-0.2816 -0.285372 0)
(-0.273864 -0.292843 0)
(-0.257126 -0.289797 0)
(-0.22943 -0.272205 0)
(-0.190425 -0.237267 0)
(-0.142689 -0.185709 0)
(-0.0928509 -0.124372 0)
(-0.0506891 -0.0660147 0)
(-0.0230615 -0.0220164 0)
(-0.00829988 0.00552321 0)
(-0.00141883 0.0201376 0)
(0.000997005 0.0250034 0)
(0.00106994 0.0215911 0)
(0.000234913 0.0100777 0)
(-0.0012109 0.00469317 0)
(-0.0109331 0.0198764 0)
(-0.0250301 0.0409882 0)
(-0.0420908 0.0669795 0)
(-0.0615166 0.0958725 0)
(-0.0830574 0.125927 0)
(-0.106121 0.155727 0)
(-0.129717 0.183663 0)
(-0.152567 0.207911 0)
(-0.173407 0.226877 0)
(-0.191294 0.23963 0)
(-0.20574 0.246028 0)
(-0.216664 0.246559 0)
(-0.224287 0.242096 0)
(-0.229053 0.233694 0)
(-0.231539 0.222442 0)
(-0.232367 0.209338 0)
(-0.23212 0.195206 0)
(-0.231285 0.180657 0)
(-0.230231 0.166098 0)
(-0.229205 0.151761 0)
(-0.228349 0.13775 0)
(-0.227725 0.124077 0)
(-0.22734 0.110708 0)
(-0.227169 0.0975816 0)
(-0.227173 0.0846328 0)
(-0.227306 0.0717991 0)
(-0.227529 0.0590259 0)
(-0.227808 0.0462684 0)
(-0.228117 0.0334902 0)
(-0.228437 0.0206621 0)
(-0.228759 0.00775956 0)
(-0.229082 -0.00523803 0)
(-0.229415 -0.0183469 0)
(-0.229768 -0.0315801 0)
(-0.230158 -0.04495 0)
(-0.23061 -0.0584678 0)
(-0.231154 -0.0721457 0)
(-0.231831 -0.0859982 0)
(-0.232691 -0.100046 0)
(-0.233802 -0.11432 0)
(-0.235247 -0.128872 0)
(-0.237135 -0.14378 0)
(-0.239595 -0.159158 0)
(-0.242764 -0.175162 0)
(-0.246763 -0.191974 0)
(-0.251634 -0.20976 0)
(-0.257243 -0.228579 0)
(-0.263139 -0.248212 0)
(-0.268402 -0.267934 0)
(-0.271504 -0.286228 0)
(-0.270268 -0.300525 0)
(-0.262012 -0.307092 0)
(-0.243962 -0.30125 0)
(-0.214062 -0.278228 0)
(-0.172252 -0.235075 0)
(-0.122148 -0.173943 0)
(-0.0724791 -0.105516 0)
(-0.034771 -0.0466057 0)
(-0.0133755 -0.00723233 0)
(-0.00322708 0.0145551 0)
(0.000636975 0.0234132 0)
(0.00115749 0.0219422 0)
(0.000285494 0.01076 0)
(-0.00152156 0.0112484 0)
(-0.0127511 0.0328494 0)
(-0.0283472 0.0573874 0)
(-0.046645 0.0858449 0)
(-0.0669082 0.116772 0)
(-0.0887707 0.148297 0)
(-0.111475 0.178679 0)
(-0.133918 0.206042 0)
(-0.154847 0.22853 0)
(-0.173177 0.244785 0)
(-0.188234 0.254266 0)
(-0.19979 0.257231 0)
(-0.207978 0.254491 0)
(-0.213193 0.247154 0)
(-0.216002 0.236427 0)
(-0.217046 0.22346 0)
(-0.216946 0.209229 0)
(-0.216228 0.194471 0)
(-0.215291 0.179681 0)
(-0.214403 0.165142 0)
(-0.213712 0.150978 0)
(-0.213281 0.137206 0)
(-0.213109 0.123781 0)
(-0.213166 0.110633 0)
(-0.213401 0.0976851 0)
(-0.213764 0.0848673 0)
(-0.21421 0.0721208 0)
(-0.2147 0.0593987 0)
(-0.215206 0.0466646 0)
(-0.215708 0.0338909 0)
(-0.216192 0.021056 0)
(-0.216654 0.00814246 0)
(-0.217096 -0.00486406 0)
(-0.217525 -0.0179742 0)
(-0.217951 -0.0311963 0)
(-0.218389 -0.0445377 0)
(-0.218857 -0.0580048 0)
(-0.219376 -0.0716039 0)
(-0.219974 -0.0853413 0)
(-0.220683 -0.0992266 0)
(-0.221547 -0.113276 0)
(-0.222626 -0.127518 0)
(-0.223998 -0.142005 0)
(-0.225773 -0.156823 0)
(-0.228089 -0.172108 0)
(-0.231106 -0.188049 0)
(-0.234981 -0.204887 0)
(-0.239796 -0.222856 0)
(-0.245449 -0.242077 0)
(-0.251479 -0.262341 0)
(-0.256877 -0.282807 0)
(-0.259929 -0.301639 0)
(-0.258187 -0.315679 0)
(-0.248665 -0.320345 0)
(-0.228377 -0.309985 0)
(-0.195343 -0.279122 0)
(-0.150173 -0.225215 0)
(-0.098213 -0.153398 0)
(-0.0511434 -0.0803028 0)
(-0.0208427 -0.0255767 0)
(-0.00617151 0.00622069 0)
(-0.000224638 0.0206654 0)
(0.00108515 0.021979 0)
(0.000325721 0.0114724 0)
(-0.0017576 0.0187405 0)
(-0.0141451 0.047151 0)
(-0.0308258 0.0749212 0)
(-0.0498987 0.10547 0)
(-0.0704996 0.137945 0)
(-0.0921602 0.170321 0)
(-0.114005 0.200575 0)
(-0.134897 0.226673 0)
(-0.153682 0.246853 0)
(-0.169497 0.260072 0)
(-0.181922 0.266198 0)
(-0.190954 0.265855 0)
(-0.196901 0.260139 0)
(-0.200287 0.250344 0)
(-0.201754 0.237776 0)
(-0.201951 0.223586 0)
(-0.201447 0.208671 0)
(-0.200682 0.193648 0)
(-0.199953 0.178879 0)
(-0.199429 0.164529 0)
(-0.199178 0.150624 0)
(-0.1992 0.137116 0)
(-0.199459 0.123924 0)
(-0.199902 0.110958 0)
(-0.200472 0.0981404 0)
(-0.201121 0.0854046 0)
(-0.201806 0.0727005 0)
(-0.202496 0.0599905 0)
(-0.203172 0.0472473 0)
(-0.203817 0.034451 0)
(-0.204426 0.0215871 0)
(-0.204996 0.0086438 0)
(-0.205532 -0.004388 0)
(-0.206041 -0.0175151 0)
(-0.206534 -0.0307429 0)
(-0.207024 -0.044076 0)
(-0.207525 -0.0575184 0)
(-0.208054 -0.0710735 0)
(-0.208628 -0.0847442 0)
(-0.20927 -0.0985339 0)
(-0.210005 -0.112449 0)
(-0.210868 -0.126502 0)
(-0.211909 -0.140722 0)
(-0.213204 -0.155163 0)
(-0.21486 -0.169921 0)
(-0.217028 -0.185156 0)
(-0.219891 -0.201103 0)
(-0.223641 -0.218064 0)
(-0.228398 -0.236352 0)
(-0.234074 -0.25614 0)
(-0.240163 -0.277191 0)
(-0.245516 -0.298457 0)
(-0.248159 -0.31761 0)
(-0.245305 -0.33066 0)
(-0.233643 -0.331907 0)
(-0.21007 -0.314571 0)
(-0.172972 -0.27271 0)
(-0.124209 -0.205389 0)
(-0.0719436 -0.123456 0)
(-0.0313831 -0.0512893 0)
(-0.0103702 -0.00586271 0)
(-0.00163208 0.0162419 0)
(0.000851757 0.0214405 0)
(0.000360399 0.0121323 0)
(-0.00189067 0.0269067 0)
(-0.015032 0.0623684 0)
(-0.0323622 0.0931406 0)
(-0.0517557 0.125383 0)
(-0.0722364 0.158906 0)
(-0.0932557 0.191547 0)
(-0.113872 0.221057 0)
(-0.132976 0.245355 0)
(-0.149568 0.262869 0)
(-0.16301 0.272916 0)
(-0.17311 0.275759 0)
(-0.180045 0.272356 0)
(-0.18426 0.264037 0)
(-0.186362 0.252235 0)
(-0.187014 0.238293 0)
(-0.186826 0.223307 0)
(-0.186288 0.208057 0)
(-0.18574 0.193023 0)
(-0.185378 0.178434 0)
(-0.185289 0.164347 0)
(-0.185481 0.150716 0)
(-0.185918 0.137449 0)
(-0.186542 0.124444 0)
(-0.187296 0.111609 0)
(-0.188126 0.0988709 0)
(-0.18899 0.0861722 0)
(-0.189853 0.0734729 0)
(-0.190693 0.0607447 0)
(-0.191496 0.0479684 0)
(-0.19225 0.0351308 0)