/*--------------------------------*- C++ -*----------------------------------*\
| =========                 |                                                 |
| \\      /  F ield         | OpenFOAM: The Open Source CFD Toolbox           |
|  \\    /   O peration     | Version:  2406                                  |
|   \\  /    A nd           | Website:  www.openfoam.com                      |
|    \\/     M anipulation  |                                                 |
\*---------------------------------------------------------------------------*/
FoamFile
{
    version     2.0;
    format      ascii;
    arch        "LSB;label=32;scalar=64";
    class       surfaceScalarField;
    location    "9.3";
    object      phi;
}
// * * * * * * * * * * * * * * * * * * * * * * * * * * * * * * * * * * * * * //

dimensions      [0 3 -1 0 0 0 0];

oriented        oriented;

internalField   nonuniform List<scalar> 
7080
(
4.48593e-08
-4.4941e-08
-4.44609e-08
9.11689e-08
-2.58506e-07
2.13696e-07
-5.67083e-07
3.10955e-07
-9.22346e-07
3.55282e-07
-1.29928e-06
3.79487e-07
-1.68037e-06
3.81431e-07
-2.05851e-06
3.80571e-07
-2.43124e-06
3.73291e-07
-2.7975e-06
3.68481e-07
-3.15849e-06
3.6171e-07
-3.51365e-06
3.57163e-07
-3.8639e-06
3.51076e-07
-4.20781e-06
3.457e-07
-4.54512e-06
3.38193e-07
-4.87339e-06
3.29877e-07
-5.19112e-06
3.18618e-07
-5.49491e-06
3.05191e-07
-5.78205e-06
2.87961e-07
-6.04826e-06
2.67375e-07
-6.28978e-06
2.42211e-07
-6.50169e-06
2.12802e-07
-6.67956e-06
1.78354e-07
-6.81827e-06
1.39287e-07
-6.91337e-06
9.53071e-08
-6.96026e-06
4.70939e-08
-6.95529e-06
-5.09216e-09
-6.89528e-06
-6.02124e-08
-6.77831e-06
-1.17462e-07
-6.60347e-06
-1.75458e-07
-6.37137e-06
-2.32965e-07
-6.08399e-06
-2.884e-07
-5.74489e-06
-3.40314e-07
-5.35908e-06
-3.87172e-07
-4.93297e-06
-4.276e-07
-4.47418e-06
-4.60411e-07
-3.99123e-06
-4.84602e-07
-3.49341e-06
-4.99601e-07
-2.99013e-06
-5.04994e-07
-2.49095e-06
-5.00987e-07
-2.00478e-06
-4.87813e-07
-1.54007e-06
-4.66439e-07
-1.10393e-06
-4.37608e-07
-7.02656e-07
-4.02843e-07
-3.40782e-07
-3.63073e-07
-2.2097e-08
-3.2003e-07
2.51438e-07
-2.744e-07
4.78095e-07
-2.27751e-07
6.57729e-07
-1.80124e-07
7.89551e-07
-1.32665e-07
8.7401e-07
-8.45388e-08
9.09976e-07
-3.65672e-08
8.97598e-07
1.2739e-08
8.35341e-07
6.18677e-08
7.24748e-07
1.11408e-07
5.6915e-07
1.55341e-07
3.82044e-07
1.88297e-07
1.91016e-07
1.90723e-07
4.35465e-08
1.48791e-07
4.35121e-08
-9.554e-08
4.88215e-08
-4.89695e-07
4.85581e-07
-1.1402e-06
8.60915e-07
-1.98233e-06
1.15242e-06
-2.93943e-06
1.30848e-06
-3.95792e-06
1.39658e-06
-5.00111e-06
1.42065e-06
-6.04741e-06
1.4251e-06
-7.08684e-06
1.40895e-06
-8.11268e-06
1.39236e-06
-9.1237e-06
1.36923e-06
-1.01165e-05
1.34786e-06
-1.10902e-05
1.32161e-06
-1.20406e-05
1.29396e-06
-1.29647e-05
1.25939e-06
-1.38563e-05
1.21936e-06
-1.47098e-05
1.16953e-06
-1.55169e-05
1.11035e-06
-1.62697e-05
1.03846e-06
-1.69579e-05
9.53911e-07
-1.75718e-05
8.54277e-07
-1.81e-05
7.39774e-07
-1.85321e-05
6.09119e-07
-1.88568e-05
4.63209e-07
-1.90643e-05
3.02182e-07
-1.91454e-05
1.28028e-07
-1.90929e-05
-5.75324e-08
-1.89012e-05
-2.51254e-07
-1.85679e-05
-4.49933e-07
-1.80928e-05
-6.49254e-07
-1.74792e-05
-8.4495e-07
-1.67333e-05
-1.03217e-06
-1.5865e-05
-1.20628e-06
-1.48868e-05
-1.36267e-06
-1.38143e-05
-1.49722e-06
-1.26652e-05
-1.6064e-06
-1.14591e-05
-1.68738e-06
-1.02168e-05
-1.73847e-06
-8.95965e-06
-1.75871e-06
-7.70867e-06
-1.74861e-06
-6.48387e-06
-1.70921e-06
-5.30403e-06
-1.64315e-06
-4.18546e-06
-1.55305e-06
-3.14254e-06
-1.44305e-06
-2.18644e-06
-1.31645e-06
-1.32648e-06
-1.17784e-06
-5.68716e-07
-1.02997e-06
8.17356e-08
-8.76708e-07
6.22392e-07
-7.19135e-07
1.05013e-06
-5.59619e-07
1.36374e-06
-3.97055e-07
1.55989e-06
-2.32683e-07
1.63763e-06
-6.44525e-08
1.59455e-06
1.04214e-07
1.4352e-06
2.70841e-07
1.16941e-06
4.19678e-07
8.27057e-07
5.30513e-07
4.57948e-07
5.57936e-07
1.46854e-07
4.59985e-07
1.89086e-07
-2.55677e-07
3.04436e-07
-9.69845e-07
1.20323e-06
-2.04475e-06
1.93539e-06
-3.3709e-06
2.48243e-06
-4.85587e-06
2.79404e-06
-6.42642e-06
2.97106e-06
-8.03697e-06
3.03242e-06
-9.65541e-06
3.04729e-06
-1.12668e-05
3.02195e-06
-1.2859e-05
2.98797e-06
-1.44277e-05
2.93973e-06
-1.5966e-05
2.88933e-06
-1.74706e-05
2.82802e-06
-1.89336e-05
2.75992e-06
-2.03493e-05
2.67699e-06
-2.17075e-05
2.58019e-06
-2.29991e-05
2.4629e-06
-2.42112e-05
2.32479e-06
-2.53318e-05
2.16066e-06
-2.63458e-05
1.96994e-06
-2.72393e-05
1.74912e-06
-2.79964e-05
1.49837e-06
-2.86027e-05
1.21634e-06
-2.90434e-05
9.04843e-07
-2.9306e-05
5.65222e-07
-2.93792e-05
2.01572e-07
-2.9255e-05
-1.81893e-07
-2.8928e-05
-5.78683e-07
-2.83967e-05
-9.82032e-07
-2.76635e-05
-1.38359e-06
-2.6735e-05
-1.77495e-06
-2.5622e-05
-2.14701e-06
-2.43393e-05
-2.49106e-06
-2.29057e-05
-2.79868e-06
-2.13431e-05
-3.06238e-06
-1.96764e-05
-3.27592e-06
-1.79324e-05
-3.43435e-06
-1.61392e-05
-3.53479e-06
-1.43251e-05
-3.57578e-06
-1.25185e-05
-3.5584e-06
-1.07458e-05
-3.48485e-06
-9.03194e-06
-3.35995e-06
-7.39884e-06
-3.18879e-06
-5.86575e-06
-2.97881e-06
-4.44802e-06
-2.73638e-06
-3.1585e-06
-2.4696e-06
-2.00615e-06
-2.18395e-06
-9.98581e-07
-1.88605e-06
-1.40324e-07
-1.5784e-06
5.63472e-07
-1.26469e-06
1.10976e-06
-9.43686e-07
1.49322e-06
-6.16936e-07
1.71139e-06
-2.82268e-07
1.76063e-06
5.4608e-08
1.64642e-06
3.861e-07
1.38112e-06
6.84894e-07
1.00255e-06
9.10712e-07
5.706e-07
9.89689e-07
1.91831e-07
8.4066e-07
3.81032e-07
-4.12905e-07
7.14788e-07
-1.43472e-06
2.22674e-06
-2.89869e-06
3.39517e-06
-4.64983e-06
4.23418e-06
-6.58483e-06
4.7251e-06
-8.61776e-06
5.00367e-06
-1.07003e-05
5.11131e-06
-1.27935e-05
5.1396e-06
-1.48797e-05
5.10482e-06
-1.69416e-05
5.04866e-06
-1.89724e-05
4.96746e-06
-2.09609e-05
4.87647e-06
-2.29012e-05
4.76555e-06
-2.47818e-05
4.63904e-06
-2.65939e-05
4.48662e-06
-2.83236e-05
4.30842e-06
-2.99585e-05
4.09562e-06
-3.1482e-05
3.84688e-06
-3.28785e-05
3.55536e-06
-3.41297e-05
3.21986e-06
-3.52182e-05
2.83614e-06
-3.61253e-05
2.40461e-06
-3.68345e-05
1.92444e-06
-3.73292e-05
1.39898e-06
-3.7596e-05
8.31524e-07
-3.76236e-05
2.29068e-07
-3.74047e-05
-4.00816e-07
-3.69354e-05
-1.04758e-06
-3.62167e-05
-1.70008e-06
-3.52541e-05
-2.34526e-06
-3.40579e-05
-2.96996e-06
-3.2643e-05
-3.56037e-06
-3.1029e-05
-4.10334e-06
-2.92393e-05
-4.58645e-06
-2.73008e-05
-4.99871e-06
-2.52433e-05
-5.33115e-06
-2.30984e-05
-5.57681e-06
-2.0899e-05
-5.73174e-06
-1.8678e-05
-5.7942e-06
-1.64679e-05
-5.76611e-06
-1.42991e-05
-5.65112e-06
-1.22001e-05
-5.45663e-06
-1.01959e-05
-5.19061e-06
-8.30855e-06
-4.86423e-06
-6.55551e-06
-4.48736e-06
-4.9515e-06
-4.07206e-06
-3.50691e-06
-3.62683e-06
-2.23055e-06
-3.16137e-06
-1.1279e-06
-2.67973e-06
-2.05067e-07
-2.18702e-06
5.34066e-07
-1.68188e-06
1.08326e-06
-1.16621e-06
1.43939e-06
-6.37802e-07
1.59832e-06
-1.05001e-07
1.56589e-06
4.18875e-07
1.35533e-06
8.94203e-07
1.00681e-06
1.25955e-06
5.83509e-07
1.41127e-06
1.98924e-07
1.22581e-06
5.78789e-07
-5.37648e-07
1.25168e-06
-1.82346e-06
3.51742e-06
-3.62654e-06
5.19629e-06
-5.74755e-06
6.35952e-06
-8.06925e-06
7.04612e-06
-1.04937e-05
7.43198e-06
-1.29713e-05
7.58903e-06
-1.54581e-05
7.62981e-06
-1.79356e-05
7.58301e-06
-2.03826e-05
7.49874e-06
-2.27906e-05
7.37639e-06
-2.51448e-05
7.23337e-06
-2.74368e-05
7.05874e-06
-2.96518e-05
6.85648e-06
-3.17783e-05
6.61432e-06
-3.3799e-05
6.33123e-06
-3.56985e-05
5.99644e-06
-3.74573e-05
5.60746e-06
-3.90569e-05
5.15607e-06
-4.04761e-05
4.64059e-06
-4.16955e-05
4.05644e-06
-4.26944e-05
3.40469e-06
-4.34549e-05
2.68563e-06
-4.39599e-05
1.9047e-06
-4.4196e-05
1.0679e-06
-4.41525e-05
1.85821e-07
-4.38235e-05
-7.2988e-07
-4.32074e-05
-1.66394e-06
-4.23078e-05
-2.60025e-06
-4.11333e-05
-3.52053e-06
-3.96979e-05
-4.40645e-06
-3.80202e-05
-5.23921e-06
-3.6124e-05
-6.00106e-06
-3.40366e-05
-6.67546e-06
-3.17891e-05
-7.24794e-06
-2.94154e-05
-7.70685e-06
-2.69509e-05
-8.04327e-06
-2.44323e-05
-8.25239e-06
-2.18962e-05
-8.33239e-06
-1.93782e-05
-8.28626e-06
-1.69118e-05
-8.11949e-06
-1.45281e-05
-7.84245e-06
-1.2254e-05
-7.46647e-06
-1.01131e-05
-7.00697e-06
-8.12407e-06
-6.47787e-06
-6.30205e-06
-5.89571e-06
-4.65748e-06
-5.27247e-06
-3.19889e-06
-4.62129e-06
-1.93126e-06
-3.94796e-06
-8.60132e-07
-3.25917e-06
1.11646e-08
-2.5533e-06
6.76749e-07
-1.83253e-06
1.13374e-06
-1.0944e-06
1.37807e-06
-3.49851e-07
1.41562e-06
3.82235e-07
1.25994e-06
1.04944e-06
9.51693e-07
1.56918e-06
5.56188e-07
1.80616e-06
1.88621e-07
1.59507e-06
7.67287e-07
-6.4541e-07
1.89385e-06
-2.15867e-06
5.03385e-06
-4.25175e-06
7.28422e-06
-6.68706e-06
8.79667e-06
-9.33363e-06
9.68845e-06
-1.20837e-05
1.01827e-05
-1.48868e-05
1.03886e-05
-1.76959e-05
1.04389e-05
-2.04923e-05
1.03763e-05
-2.3252e-05
1.02579e-05
-2.5965e-05
1.00866e-05
-2.86134e-05
9.88106e-06
-3.1187e-05
9.6299e-06
-3.36677e-05
9.33624e-06
-3.60416e-05
8.98615e-06
-3.82885e-05
8.5772e-06
-4.03908e-05
8.09689e-06
-4.23259e-05
7.5416e-06
-4.40734e-05
6.90203e-06
-4.56098e-05
6.17618e-06
-4.69141e-05
5.35957e-06
-4.79644e-05
4.4543e-06
-4.87419e-05
3.46231e-06
-4.92293e-05
2.39168e-06
-4.94135e-05
1.25171e-06
-4.92849e-05
5.71211e-08
-4.88391e-05
-1.17574e-06
-4.80764e-05
-2.42639e-06
-4.7003e-05
-3.67327e-06
-4.56303e-05
-4.89253e-06
-4.39756e-05
-6.06037e-06
-4.20609e-05
-7.15283e-06
-3.99134e-05
-8.14737e-06
-3.75642e-05
-9.02333e-06
-3.5048e-05
-9.76272e-06
-3.24021e-05
-1.03512e-05
-2.96657e-05
-1.0778e-05
-2.6879e-05
-1.10374e-05
-2.40819e-05
-1.11276e-05
-2.13135e-05
-1.1053e-05
-1.86102e-05
-1.0821e-05
-1.60056e-05
-1.04456e-05
-1.35286e-05
-9.94175e-06
-1.12042e-05
-9.33006e-06
-9.05144e-06
-8.6291e-06
-7.08538e-06
-7.86075e-06
-5.31548e-06
-7.04106e-06
-3.74882e-06
-6.1873e-06
-2.38842e-06
-5.3073e-06
-1.23775e-06
-4.4096e-06
-2.98006e-07
-3.49221e-06
4.26832e-07
-2.55756e-06
9.35447e-07
-1.60237e-06
1.22499e-06
-6.40045e-07
1.30193e-06
3.05844e-07
1.18037e-06
1.1699e-06
9.00581e-07
1.84957e-06
5.28684e-07
2.17656e-06
1.78328e-07
1.94623e-06
9.44636e-07
-7.30707e-07
2.62314e-06
-2.43168e-06
6.74082e-06
-4.76732e-06
9.61667e-06
-7.46769e-06
1.1502e-05
-1.03882e-05
1.26073e-05
-1.34117e-05
1.32103e-05
-1.64867e-05
1.34628e-05
-1.9563e-05
1.35186e-05
-2.26225e-05
1.34358e-05
-2.56389e-05
1.32771e-05
-2.86014e-05
1.30496e-05
-3.149e-05
1.27721e-05
-3.42926e-05
1.24332e-05
-3.69888e-05
1.20346e-05
-3.95628e-05
1.15609e-05
-4.19919e-05
1.10081e-05
-4.42563e-05
1.03621e-05
-4.63313e-05
9.61821e-06
-4.81947e-05
8.7662e-06
-4.98211e-05
7.80389e-06
-5.11882e-05
6.72725e-06
-5.22726e-05
5.53966e-06
-5.30549e-05
4.24514e-06
-5.35174e-05
2.85475e-06
-5.3647e-05
1.3816e-06
-5.34346e-05
-1.55005e-07
-5.2877e-05
-1.73351e-06
-5.19757e-05
-3.32775e-06
-5.07391e-05
-4.91022e-06
-4.9181e-05
-6.45108e-06
-4.73214e-05
-7.92074e-06
-4.51852e-05
-9.28979e-06
-4.28028e-05
-1.05308e-05
-4.02085e-05
-1.16188e-05
-3.74402e-05
-1.25322e-05
-3.45389e-05
-1.32538e-05
-3.15473e-05
-1.37709e-05
-2.85094e-05
-1.40768e-05
-2.5469e-05
-1.41694e-05
-2.24693e-05
-1.40542e-05
-1.95506e-05
-1.37411e-05
-1.67501e-05
-1.32476e-05
-1.40996e-05
-1.25934e-05
-1.16261e-05
-1.18049e-05
-9.34966e-06
-1.09065e-05
-7.28485e-06
-9.92678e-06
-5.43969e-06
-8.88688e-06
-3.81876e-06
-7.80928e-06
-2.42188e-06
-6.70449e-06
-1.24891e-06
-5.58344e-06
-2.97401e-07
-4.44366e-06
4.32025e-07
-3.28772e-06
9.40868e-07
-2.11076e-06
1.22844e-06
-9.28254e-07
1.30257e-06
2.32566e-07
1.17844e-06
1.29337e-06
8.96708e-07
2.13255e-06
5.24618e-07
2.5478e-06
1.75526e-07
2.29685e-06
1.11986e-06
-8.04595e-07
3.42401e-06
-2.66414e-06
8.60464e-06
-5.20328e-06
1.21499e-05
-8.12573e-06
1.44272e-05
-1.1275e-05
1.5752e-05
-1.45265e-05
1.64633e-05
-1.78273e-05
1.67598e-05
-2.11255e-05
1.68174e-05
-2.4403e-05
1.67102e-05
-2.76322e-05
1.65063e-05
-3.08021e-05
1.62169e-05
-3.38906e-05
1.58602e-05
-3.68846e-05
1.54251e-05
-3.97617e-05
1.49111e-05
-4.25045e-05
1.43018e-05
-4.50883e-05
1.35912e-05
-4.74917e-05
1.27639e-05
-4.96879e-05
1.18138e-05
-5.16531e-05
1.07301e-05
-5.33602e-05
9.51033e-06
-5.47852e-05
8.15116e-06
-5.59033e-05
6.65732e-06
-5.66941e-05
5.03518e-06
-5.71387e-05
3.29903e-06
-5.72237e-05
1.46617e-06
-5.69397e-05
-4.39073e-07
-5.6284e-05
-2.38939e-06
-5.52592e-05
-4.35236e-06
-5.38753e-05
-6.29394e-06
-5.21481e-05
-8.17783e-06
-5.01001e-05
-9.96826e-06
-4.77589e-05
-1.16303e-05
-4.51575e-05
-1.31314e-05
-4.23326e-05
-1.44427e-05
-3.93248e-05
-1.5539e-05
-3.61773e-05
-1.64002e-05
-3.29361e-05
-1.7011e-05
-2.96485e-05
-1.73632e-05
-2.63628e-05
-1.74538e-05
-2.31271e-05
-1.72888e-05
-1.99874e-05
-1.68795e-05
-1.69865e-05
-1.62474e-05
-1.41614e-05
-1.54172e-05
-1.1543e-05
-1.44224e-05
-9.15369e-06
-1.32947e-05
-7.00863e-06
-1.20712e-05
-5.1143e-06
-1.07802e-05
-3.47217e-06
-9.45106e-06
-2.07752e-06
-8.09824e-06
-9.25039e-07
-6.7359e-06
-6.79411e-09
-5.36113e-06
6.81638e-07
-3.97646e-06
1.14616e-06
-2.57456e-06
1.38941e-06
-1.17219e-06
1.42167e-06
2.01027e-07
1.25973e-06
1.45424e-06
9.45541e-07
2.44758e-06
5.47887e-07
2.94402e-06
1.81817e-07
2.66394e-06
1.30081e-06
-8.64443e-07
4.28659e-06
-2.85541e-06
1.06025e-05
-5.56432e-06
1.48547e-05
-8.67325e-06
1.75416e-05
-1.20156e-05
1.90919e-05
-1.54601e-05
1.99121e-05
-1.89525e-05
2.02511e-05
-2.24394e-05
2.03077e-05
-2.5903e-05
2.01734e-05
-2.93148e-05
1.9921e-05
-3.26637e-05
1.95658e-05
-3.59264e-05
1.91254e-05
-3.90893e-05
1.85883e-05
-4.21283e-05
1.79521e-05
-4.50251e-05
1.71992e-05
-4.77533e-05
1.6321e-05
-5.029e-05
1.53012e-05
-5.26066e-05
1.41319e-05
-5.46777e-05
1.28017e-05
-5.6474e-05
1.13078e-05
-5.79698e-05
9.64743e-06
-5.91382e-05
7.82661e-06
-5.99568e-05
5.85418e-06
-6.0405e-05
3.74783e-06
-6.04681e-05
1.52953e-06
-6.01361e-05
-7.70794e-07
-5.94063e-05
-3.11919e-06
-5.82826e-05
-5.47604e-06
-5.67769e-05
-7.7999e-06
-5.49076e-05
-1.00474e-05
-5.26998e-05
-1.21765e-05
-5.01836e-05
-1.4147e-05
-4.73931e-05
-1.59225e-05
-4.43658e-05
-1.74708e-05
-4.11416e-05
-1.8764e-05
-3.77635e-05
-1.97792e-05
-3.42773e-05
-2.04981e-05
-3.07324e-05
-2.09092e-05
-2.71807e-05
-2.10064e-05
-2.36768e-05
-2.07938e-05
-2.02749e-05
-2.02822e-05
-1.70279e-05
-1.94956e-05
-1.39824e-05
-1.84634e-05
-1.11781e-05
-1.72277e-05
-8.64362e-06
-1.58297e-05
-6.3974e-06
-1.43184e-05
-4.44565e-06
-1.27323e-05
-2.78649e-06
-1.11111e-05
-1.40938e-06
-9.47542e-06
-3.01695e-07
-7.84439e-06
5.52415e-07
-6.21501e-06
1.16477e-06
-4.58958e-06
1.54782e-06
-2.95706e-06
1.70912e-06
-1.33427e-06
1.6628e-06
2.48249e-07
1.4282e-06
1.68795e-06
1.05001e-06
2.82703e-06
5.9972e-07
3.39318e-06
1.97013e-07
3.06821e-06
1.49733e-06
-9.17338e-07
5.19982e-06
-3.02033e-06
1.27105e-05
-5.87277e-06
1.77005e-05
-9.13925e-06
2.08115e-05
-1.2645e-05
2.25926e-05
-1.62536e-05
2.35228e-05
-1.991e-05
2.39035e-05
-2.35596e-05
2.39583e-05
-2.71854e-05
2.3796e-05
-3.07583e-05
2.34942e-05
-3.42675e-05
2.30724e-05
-3.76891e-05
2.25469e-05
-4.10092e-05
2.19062e-05
-4.42027e-05
2.11453e-05
-4.72504e-05
2.02451e-05
-5.01247e-05
1.91948e-05
-5.28013e-05
1.79764e-05
-5.525e-05
1.65801e-05
-5.74432e-05
1.49936e-05
-5.93494e-05
1.32135e-05
-6.09402e-05
1.12372e-05
-6.21861e-05
9.07204e-06
-6.30619e-05
6.72925e-06
-6.35447e-05
4.23033e-06
-6.36184e-05
1.60273e-06
-6.32726e-05
-1.11669e-06
-6.25064e-05
-3.88567e-06
-6.13266e-05
-6.65574e-06
-5.97497e-05
-9.37677e-06
-5.77988e-05
-1.19981e-05
-5.55025e-05
-1.44725e-05
-5.28921e-05
-1.6757e-05
-4.99994e-05
-1.88147e-05
-4.68561e-05
-2.06135e-05
-4.3494e-05
-2.21254e-05
-3.99468e-05
-2.33257e-05
-3.62524e-05
-2.41917e-05
-3.2456e-05
-2.47049e-05
-2.86108e-05
-2.48507e-05
-2.47787e-05
-2.46251e-05
-2.10275e-05
-2.40325e-05
-1.74276e-05
-2.30949e-05
-1.40455e-05
-2.18445e-05
-1.09401e-05
-2.03326e-05
-8.15551e-06
-1.86134e-05
-5.72041e-06
-1.67532e-05
-3.6449e-06
-1.48069e-05
-1.92488e-06
-1.2831e-05
-5.42566e-07
-1.08569e-05
5.25143e-07
-8.91226e-06
1.30609e-06
-6.99518e-06
1.82366e-06
-5.10761e-06
2.10064e-06
-3.23324e-06
2.15244e-06
-1.38686e-06
1.99936e-06
4.02233e-07
1.66478e-06
2.02139e-06
1.19764e-06
3.29528e-06
6.73429e-07
3.91583e-06
2.18862e-07
3.52415e-06
1.71529e-06
-9.6117e-07
6.15885e-06
-3.15898e-06
1.49158e-05
-6.1334e-06
2.06703e-05
-9.53457e-06
2.42187e-05
-1.31811e-05
2.62363e-05
-1.69328e-05
2.72791e-05
-2.07338e-05
2.77029e-05
-2.45289e-05
2.77571e-05
-2.83019e-05
2.75683e-05
-3.20237e-05
2.72189e-05
-3.56842e-05
2.67327e-05
-3.92593e-05
2.61244e-05
-4.27352e-05
2.53823e-05
-4.60862e-05
2.44984e-05
-4.92928e-05
2.34521e-05
-5.23262e-05
2.22298e-05
-5.51609e-05
2.08116e-05
-5.77647e-05
1.91852e-05
-6.01078e-05
1.73373e-05
-6.21558e-05
1.52626e-05
-6.38771e-05
1.2959e-05
-6.52387e-05
1.04345e-05
-6.62125e-05
7.70339e-06
-6.67735e-05
4.79197e-06
-6.69059e-05
1.73534e-06
-6.66024e-05
-1.41977e-06
-6.58686e-05
-4.61934e-06
-6.47211e-05
-7.80311e-06
-6.31869e-05
-1.09111e-05
-6.12982e-05
-1.38868e-05
-5.9088e-05
-1.66829e-05
-5.6584e-05
-1.92614e-05
-5.38056e-05
-2.15935e-05
-5.07635e-05
-2.36561e-05
-4.74626e-05
-2.54268e-05
-4.39083e-05
-2.68807e-05
-4.01133e-05
-2.79873e-05
-3.61056e-05
-2.87133e-05
-3.1933e-05
-2.9024e-05
-2.76659e-05
-2.88931e-05
-2.33934e-05
-2.83055e-05
-1.92189e-05
-2.72702e-05
-1.52483e-05
-2.58156e-05
-1.15807e-05
-2.40011e-05
-8.29593e-06
-2.18984e-05
-5.44943e-06
-1.96005e-05
-3.0659e-06
-1.71905e-05
-1.14374e-06
-1.4754e-05
3.42898e-07
-1.23434e-05
1.43241e-06
-1.00026e-05
2.17181e-06
-7.73419e-06
2.6038e-06
-5.54044e-06
2.76878e-06
-3.39753e-06
2.69585e-06
-1.31487e-06
2.41604e-06
6.83076e-07
1.95974e-06
2.47655e-06
1.38272e-06
3.87374e-06
7.66193e-07
4.53087e-06
2.46402e-07
4.04574e-06
1.96096e-06
-1.00106e-06
7.15545e-06
-3.28142e-06
1.72017e-05
-6.36127e-06
2.37429e-05
-9.87902e-06
2.77402e-05
-1.36483e-05
3.00001e-05
-1.75261e-05
3.11592e-05
-2.14566e-05
3.16292e-05
-2.53845e-05
3.16862e-05
-2.92947e-05
3.14752e-05
-3.31586e-05
3.10833e-05
-3.69671e-05
3.05385e-05
-4.06964e-05
2.98537e-05
-4.43332e-05
2.90168e-05
-4.78516e-05
2.80166e-05
-5.12321e-05
2.68308e-05
-5.44448e-05
2.5442e-05
-5.74631e-05
2.38283e-05
-6.02525e-05
2.19743e-05
-6.27809e-05
1.98643e-05
-6.50103e-05
1.74915e-05
-6.69056e-05
1.48533e-05
-6.84304e-05
1.19588e-05
-6.95548e-05
8.82698e-06
-7.02553e-05
5.49213e-06
-7.05227e-05
2.00212e-06
-7.03627e-05
-1.57994e-06
-6.98006e-05
-5.18184e-06
-6.88761e-05
-8.72766e-06
-6.76388e-05
-1.21485e-05
-6.61355e-05
-1.53901e-05
-6.43999e-05
-1.84185e-05
-6.24418e-05
-2.12193e-05
-6.02438e-05
-2.37913e-05
-5.77638e-05
-2.61359e-05
-5.49442e-05
-2.8246e-05
-5.1727e-05
-3.00976e-05
-4.80692e-05
-3.16446e-05
-4.39593e-05
-3.28229e-05
-3.94276e-05
-3.35552e-05
-3.45526e-05
-3.37679e-05
-2.94574e-05
-3.34001e-05
-2.4302e-05
-3.24253e-05
-1.92644e-05
-3.08526e-05
-1.45224e-05
-2.87429e-05
-1.02302e-05
-2.61899e-05
-6.50362e-06
-2.3327e-05
-3.40694e-06
-2.02865e-05
-9.54751e-07
-1.72063e-05
8.84205e-07
-1.41816e-05
2.16992e-06
-1.12886e-05
2.98047e-06
-8.54389e-06
3.39211e-06
-5.95271e-06
3.47671e-06
-3.48118e-06
3.28878e-06
-1.12788e-06
2.87909e-06
1.09389e-06
2.29128e-06
3.06303e-06
1.59218e-06
4.57429e-06
8.71583e-07
5.24964e-06
2.77744e-07
4.6414e-06
2.23768e-06
-1.03461e-06
8.18781e-06
-3.38654e-06
1.95618e-05
-6.55837e-06
2.69098e-05
-1.01787e-05
3.1367e-05
-1.40574e-05
3.38758e-05
-1.80495e-05
3.51564e-05
-2.20998e-05
3.56777e-05
-2.61532e-05
3.57436e-05
-3.01962e-05
3.55173e-05
-3.42009e-05
3.50912e-05
-3.81598e-05
3.44972e-05
-4.20496e-05
3.37461e-05
-4.58582e-05
3.28256e-05
-4.956e-05
3.17205e-05
-5.31355e-05
3.04066e-05
-5.6554e-05
2.88623e-05
-5.9788e-05
2.70628e-05
-6.28009e-05
2.49886e-05
-6.55575e-05
2.26215e-05
-6.80166e-05
1.99518e-05
-7.014e-05
1.69772e-05
-7.18902e-05
1.37099e-05
-7.32407e-05
1.0178e-05
-7.41796e-05
6.43175e-06
-7.47202e-05
2.54308e-06
-7.49034e-05
-1.39621e-06
-7.4799e-05
-5.28608e-06
-7.44933e-05
-9.03306e-06
-7.40726e-05
-1.25692e-05
-7.35981e-05
-1.58644e-05
-7.30862e-05
-1.89305e-05
-7.2494e-05
-2.18118e-05
-7.17193e-05
-2.45663e-05
-7.06125e-05
-2.72431e-05
-6.89988e-05
-2.98603e-05
-6.67061e-05
-3.23909e-05
-6.35946e-05
-3.47567e-05
-5.9583e-05
-3.68353e-05
-5.46669e-05
-3.84719e-05
-4.89306e-05
-3.9505e-05
-4.25442e-05
-3.97871e-05
-3.57531e-05
-3.92174e-05
-2.88518e-05
-3.77544e-05
-2.21534e-05
-3.54422e-05
-1.59494e-05
-3.23941e-05
-1.04774e-05
-2.87999e-05
-5.89196e-06
-2.48718e-05
-2.25779e-06
-2.08413e-05
4.47683e-07
-1.68868e-05
2.30993e-06
-1.31517e-05
3.45481e-06
-9.6882e-06
4.01562e-06
-6.51448e-06
4.12028e-06
-3.58497e-06
3.87062e-06
-8.79346e-07
3.35463e-06
1.61112e-06
2.6415e-06
3.77473e-06
1.81763e-06
5.39986e-06
9.86533e-07
6.07883e-06
3.12322e-07
5.31779e-06
2.54901e-06
-1.06595e-06
9.24892e-06
-3.48121e-06
2.19828e-05
-6.73405e-06
3.01548e-05
-1.04452e-05
3.50821e-05
-1.44222e-05
3.78469e-05
-1.85189e-05
3.92554e-05
-2.26811e-05
3.98352e-05
-2.68547e-05
3.99184e-05
-3.10279e-05
3.96869e-05
-3.51744e-05
3.92382e-05
-3.92884e-05
3.86081e-05
-4.33478e-05
3.78056e-05
-4.73421e-05
3.68173e-05
-5.12461e-05
3.56243e-05
-5.50411e-05
3.41995e-05
-5.8696e-05
3.25167e-05
-6.21822e-05
3.05474e-05
-6.54612e-05
2.8267e-05
-6.84954e-05
2.56542e-05
-7.12411e-05
2.26969e-05
-7.36602e-05
1.93951e-05
-7.5721e-05
1.57701e-05
-7.74144e-05
1.18704e-05
-7.87625e-05
7.77943e-06
-7.98344e-05
3.61424e-06
-8.07455e-05
-4.85533e-07
-8.16486e-05
-4.3835e-06
-8.27031e-05
-7.9788e-06
-8.40364e-05
-1.12362e-05
-8.57012e-05
-1.41998e-05
-8.76475e-05
-1.69844e-05
-8.97127e-05
-1.97467e-05
-9.16349e-05
-2.26442e-05
-9.30836e-05
-2.57944e-05
-9.37021e-05
-2.92416e-05
-9.31532e-05
-3.29397e-05
-9.11609e-05
-3.67487e-05
-8.75463e-05
-4.04497e-05
-8.22525e-05
-4.37653e-05
-7.53606e-05
-4.63969e-05
-6.70908e-05
-4.80566e-05
-5.77931e-05
-4.85151e-05
-4.79179e-05
-4.76293e-05
-3.79755e-05
-4.53849e-05
-2.84766e-05
-4.18925e-05
-1.98739e-05
-3.7403e-05
-1.2503e-05
-3.22421e-05
-6.55086e-06
-2.67939e-05
-2.04713e-06
-2.13897e-05
1.10803e-06
-1.63075e-05
3.10395e-06
-1.16832e-05
4.16367e-06
-7.57504e-06
4.51028e-06
-3.93044e-06
4.33026e-06
-7.00478e-07
3.77986e-06
2.16292e-06
2.97679e-06
4.57622e-06
2.04264e-06
6.33585e-06
1.10448e-06
7.01481e-06
3.48637e-07
6.07596e-06
2.89644e-06
-1.09185e-06
1.03386e-05
-3.56223e-06
2.44619e-05
-6.88662e-06
3.34742e-05
-1.06792e-05
3.88817e-05
-1.47459e-05
4.19105e-05
-1.89402e-05
4.34552e-05
-2.32093e-05
4.41027e-05
-2.75006e-05
4.42139e-05
-3.18043e-05
4.399e-05
-3.60961e-05
4.35334e-05
-4.03722e-05
4.28841e-05
-4.46126e-05
4.20488e-05
-4.88085e-05
4.10134e-05
-5.29363e-05
3.97544e-05
-5.6978e-05
3.82417e-05
-6.09028e-05
3.64435e-05
-6.46818e-05
3.43269e-05
-6.82751e-05
3.18619e-05
-7.16441e-05
2.90239e-05
-7.47467e-05
2.58009e-05
-7.75529e-05
2.2202e-05
-8.00533e-05
1.82716e-05
-8.22848e-05
1.41025e-05
-8.43475e-05
9.84305e-06
-8.64207e-05
5.68794e-06
-8.875e-05
1.84451e-06
-9.16114e-05
-1.52178e-06
-9.52448e-05
-4.34489e-06
-9.97861e-05
-6.69477e-06
-0.000105209
-8.7764e-06
-0.000111305
-1.08889e-05
-0.000117691
-1.33606e-05
-0.000123858
-1.6477e-05
-0.000129229
-2.04232e-05
-0.000133224
-2.52464e-05
-0.000135318
-3.08456e-05
-0.000135088
-3.6979e-05
-0.000132247
-4.32905e-05
-0.000126672
-4.93401e-05
-0.000118419
-5.46493e-05
-0.000107736
-5.87399e-05
-9.50573e-05
-6.11939e-05
-8.09906e-05
-6.1696e-05
-6.62752e-05
-6.01011e-05
-5.17136e-05
-5.64542e-05
-3.80853e-05
-5.10323e-05
-2.60421e-05
-4.42852e-05
-1.60272e-05
-3.68098e-05
-8.22505e-06
-2.91914e-05
-2.57564e-06
-2.1958e-05
1.16966e-06
-1.54277e-05
3.35765e-06
-9.76417e-06
4.36007e-06
-4.93177e-06
4.50539e-06
-8.47148e-07
4.06873e-06
2.60106e-06
3.25542e-06
5.3878e-06
2.24976e-06
7.34351e-06
1.22005e-06
8.04218e-06
3.86019e-07
6.91259e-06
3.2812e-06
-1.11608e-06
1.14494e-05
-3.63448e-06
2.69861e-05
-7.02125e-06
3.68526e-05
-1.08859e-05
4.27501e-05
-1.50336e-05
4.60519e-05
-1.93183e-05
4.77422e-05
-2.3689e-05
4.84683e-05
-2.80948e-05
4.86208e-05
-3.25288e-05
4.84199e-05
-3.69687e-05
4.79736e-05
-4.14138e-05
4.73259e-05
-4.58463e-05
4.64812e-05
-5.02599e-05
4.54243e-05
-5.46331e-05
4.41271e-05
-5.89496e-05
4.2556e-05
-6.31798e-05
4.0673e-05
-6.72951e-05
3.84403e-05
-7.12563e-05
3.58225e-05
-7.50279e-05
3.27939e-05
-7.85774e-05
2.93495e-05
-8.19007e-05
2.5524e-05
-8.50435e-05
2.14137e-05
-8.81405e-05
1.71982e-05
-9.1438e-05
1.31399e-05
-9.52984e-05
9.54737e-06
-0.00010015
6.69566e-06
-0.0001064
4.7272e-06
-0.000114318
3.57253e-06
-0.000123945
2.93155e-06
-0.000135044
2.32244e-06
-0.000147115
1.18279e-06
-0.000159459
-1.01677e-06
-0.000171262
-4.67322e-06
-0.000181692
-9.9923e-06
-0.000189971
-1.6966e-05
-0.000195429
-2.53869e-05
-0.000197532
-3.4874e-05
-0.000195909
-4.49129e-05
-0.000190358
-5.48888e-05
-0.000180874
-6.41317e-05
-0.000167663
-7.195e-05
-0.000151162
-7.76933e-05
-0.000132056
-8.0801e-05
-0.000111261
-8.08953e-05
-8.98778e-05
-7.78364e-05
-6.90937e-05
-7.18168e-05
-5.0034e-05
-6.33443e-05
-3.36024e-05
-5.32422e-05
-2.03398e-05
-4.24533e-05
-1.03731e-05
-3.19256e-05
-3.45919e-06
-2.23405e-05
8.84089e-07
-1.41086e-05
3.2371e-06
-7.28344e-06
4.14897e-06
-1.76041e-06
4.08948e-06
2.66222e-06
3.41313e-06
6.0623e-06
2.4118e-06
8.34702e-06
1.32445e-06
9.12699e-06
4.23105e-07
7.81672e-06
3.70291e-06
-1.13416e-06
1.25816e-05
-3.69227e-06
2.95536e-05
-7.13242e-06
4.02878e-05
-1.10604e-05
4.66858e-05
-1.52816e-05
5.02703e-05
-1.96506e-05
5.21171e-05
-2.41185e-05
5.29348e-05
-2.86367e-05
5.31438e-05
-3.32011e-05
5.29839e-05
-3.77923e-05
5.25687e-05
-4.24128e-05
5.19465e-05
-4.7048e-05
5.11196e-05
-5.16948e-05
5.00716e-05
-5.63346e-05
4.87695e-05
-6.0954e-05
4.7176e-05
-6.55255e-05
4.52467e-05
-7.00233e-05
4.2939e-05
-7.44127e-05
4.02137e-05
-7.86691e-05
3.70511e-05
-8.27871e-05
3.34692e-05
-8.68217e-05
2.95595e-05
-9.09288e-05
2.55221e-05
-9.54185e-05
2.16888e-05
-0.00010077
1.84922e-05
-0.00010759
1.63686e-05
-0.000116495
1.56016e-05
-0.000127945
1.61775e-05
-0.000142089
1.77182e-05
-0.00015869
1.95332e-05
-0.000177129
2.07618e-05
-0.000196501
2.05562e-05
-0.000215753
1.82363e-05
-0.000233813
1.33878e-05
-0.000249689
5.88438e-06
-0.000262522
-4.13159e-06
-0.000271607
-1.63e-05
-0.000276392
-3.00874e-05
-0.000276467
-4.48368e-05
-0.000271562
-5.97918e-05
-0.00026156
-7.41319e-05
-0.000246524
-8.69833e-05
-0.000226747
-9.74689e-05
-0.000202804
-0.000104741
-0.000175607
-0.000108092
-0.000146409
-0.000107032
-0.000116761
-0.000101465
-8.83532e-05
-9.17512e-05
-6.27854e-05
-7.88111e-05
-4.12782e-05
-6.39599e-05
-2.44582e-05
-4.8747e-05
-1.2294e-05
-3.45037e-05
-4.23549e-06
-2.21685e-05
5.49205e-07
-1.20668e-05
2.92694e-06
-4.13975e-06
3.66878e-06
1.92207e-06
3.36972e-06
6.35935e-06
2.49806e-06
9.22095e-06
1.40989e-06
1.02124e-05
4.59677e-07
8.7699e-06
4.1611e-06
-1.15015e-06
1.37259e-05
-3.73964e-06
3.21485e-05
-7.22272e-06
4.37619e-05
-1.12037e-05
5.06702e-05
-1.54886e-05
5.45482e-05
-1.99334e-05
5.65638e-05
-2.44916e-05
5.74874e-05
-2.91173e-05
5.777e-05
-3.38095e-05
5.76716e-05
-3.85522e-05
5.73113e-05
-4.33519e-05
5.67424e-05
-4.81977e-05
5.59648e-05
-5.30906e-05
5.49614e-05
-5.80162e-05
5.36943e-05
-6.29652e-05
5.21224e-05
-6.79143e-05
5.01949e-05
-7.2844e-05
4.78664e-05
-7.77308e-05
4.50995e-05
-8.25762e-05
4.18946e-05
-8.74317e-05
3.83237e-05
-9.24649e-05
3.45909e-05
-9.80217e-05
3.10779e-05
-0.000104681
2.83468e-05
-0.000113225
2.70349e-05
-0.000124505
2.76476e-05
-0.000139216
3.0312e-05
-0.000157667
3.46279e-05
-0.00017964
3.96904e-05
-0.000204394
4.42869e-05
-0.0002308
4.71685e-05
-0.000257546
4.73024e-05
-0.000283324
4.40151e-05
-0.000306966
3.703e-05
-0.000327502
2.6421e-05
-0.000344173
1.25402e-05
-0.000356402
-4.07051e-06
-0.000363749
-2.27397e-05
-0.000365865
-4.27209e-05
-0.000362456
-6.31998e-05
-0.000353279
-8.33089e-05
-0.000338163
-0.000102098
-0.000317078
-0.000118552
-0.000290236
-0.000131582
-0.000258211
-0.000140114
-0.000222066
-0.000143174
-0.000183413
-0.000140117
-0.000144365
-0.000130797
-0.000107315
-0.000115861
-7.4529e-05
-9.67446e-05
-4.76589e-05
-7.56183e-05
-2.73734e-05
-5.4788e-05
-1.33357e-05
-3.62077e-05
-4.50929e-06
-2.08918e-05
3.89243e-07
-9.03993e-06
2.57665e-06
-2.63465e-07
3.02126e-06
5.91269e-06
2.4706e-06
9.77404e-06
1.46783e-06
1.12124e-05
4.96111e-07
9.74475e-06
4.65569e-06
-1.15803e-06
1.48825e-05
-3.76831e-06
3.47689e-05
-7.28317e-06
4.72723e-05
-1.13064e-05
5.47017e-05
-1.56455e-05
5.8885e-05
-2.01578e-05
6.10827e-05
-2.47994e-05
6.21281e-05
-2.95269e-05
6.2503e-05
-3.43433e-05
6.24879e-05
-3.92361e-05
6.22086e-05
-4.42161e-05
6.17231e-05
-4.92774e-05
6.10297e-05
-5.4426e-05
6.0111e-05
-5.96529e-05
5.89243e-05
-6.49547e-05
5.74253e-05
-7.03158e-05
5.55586e-05
-7.57281e-05
5.32799e-05
-8.11917e-05
5.05654e-05
-8.67589e-05
4.74629e-05
-9.25847e-05
4.41515e-05
-9.90235e-05
4.10309e-05
-0.000106705
3.87607e-05
-0.00011655
3.81939e-05
-0.000129641
4.01272e-05
-0.00014694
4.49475e-05
-0.00016896
5.23341e-05
-0.000195543
6.1212e-05
-0.000225828
6.99767e-05
-0.000258435
7.68953e-05
-0.000291749
8.04836e-05
-0.000324192
7.97462e-05
-0.000354407
7.42299e-05
-0.000381347
6.39699e-05
-0.000404291
4.93637e-05
-0.000422796
3.1043e-05
-0.000436613
9.7438e-06
-0.000445591
-1.37644e-05
-0.000449584
-3.87323e-05
-0.000448376
-6.44108e-05
-0.000441649
-9.00403e-05
-0.000428982
-0.000114768
-0.000409912
-0.000137626
-0.000384052
-0.000157443
-0.000351274
-0.000172894
-0.000311937
-0.000182509
-0.000267127
-0.000184925
-0.000218824
-0.000179096
-0.000169878
-0.000164806
-0.000123675
-0.000142945
-8.34542e-05
-0.000115839
-5.14426e-05
-8.67982e-05
-2.82707e-05
-5.93814e-05
-1.3052e-05
-3.61091e-05
-4.07163e-06
-1.80221e-05
5.14171e-07
-4.84751e-06
2.24051e-06
4.18417e-06
2.28823e-06
9.7287e-06
1.49272e-06
1.20049e-05
5.35181e-07
1.07054e-05
5.18925e-06
-1.16284e-06
1.60388e-05
-3.78274e-06
3.73936e-05
-7.31546e-06
5.07953e-05
-1.13669e-05
5.8756e-05
-1.57467e-05
6.3257e-05
-2.03139e-05
6.56511e-05
-2.50274e-05
6.68353e-05
-2.98468e-05
6.73224e-05
-3.47787e-05
6.74146e-05
-3.98151e-05
6.72443e-05
-4.49718e-05
6.68754e-05
-5.02484e-05
6.63051e-05
-5.56571e-05
6.55161e-05
-6.11959e-05
6.44618e-05
-6.687e-05
6.30963e-05
-7.26753e-05
6.13625e-05
-7.86243e-05
5.92263e-05
-8.47587e-05
5.66983e-05
-9.12172e-05
5.39191e-05
-9.83208e-05
5.12536e-05
-0.000106694
4.94025e-05
-0.000117325
4.93897e-05
-0.000131476
5.23433e-05
-0.000150381
5.90312e-05
-0.000174816
6.93808e-05
-0.00020474
8.22572e-05
-0.000239209
9.56794e-05
-0.000276571
0.000107339
-0.000314851
0.000115174