/*--------------------------------*- C++ -*----------------------------------*\
| =========                 |                                                 |
| \\      /  F ield         | OpenFOAM: The Open Source CFD Toolbox           |
|  \\    /   O peration     | Version:  2406                                  |
|   \\  /    A nd           | Website:  www.openfoam.com                      |
|    \\/     M anipulation  |                                                 |
\*---------------------------------------------------------------------------*/
FoamFile
{
    version     2.0;
    format      ascii;
    arch        "LSB;label=32;scalar=64";
    class       volVectorField;
    location    "28.4";
    object      U;
}
// * * * * * * * * * * * * * * * * * * * * * * * * * * * * * * * * * * * * * //

dimensions      [0 1 -1 0 0 0 0];

internalField   nonuniform List<vector> 
3600
(
(3.49054e-05 -3.85215e-05 0)
(0.000457342 -0.000193402 0)
(0.00116904 -0.000257063 0)
(0.00190771 -0.000258894 0)
(0.00261628 -0.000223192 0)
(0.00316909 -0.000176384 0)
(0.00359886 -0.000131123 0)
(0.00386535 -9.2611e-05 0)
(0.00401643 -6.33475e-05 0)
(0.00403577 -3.98483e-05 0)
(0.00394844 -1.99522e-05 0)
(0.00372875 2.80084e-06 0)
(0.0033651 3.24162e-05 0)
(0.00280874 7.54841e-05 0)
(0.00201285 0.000135462 0)
(0.000908836 0.000216652 0)
(-0.000568931 0.000320193 0)
(-0.00249022 0.00044702 0)
(-0.00491349 0.000593531 0)
(-0.00788447 0.000753424 0)
(-0.0114251 0.000918246 0)
(-0.0155239 0.00108348 0)
(-0.0201233 0.00124668 0)
(-0.0251077 0.00140286 0)
(-0.0303007 0.00153563 0)
(-0.0354652 0.00161682 0)
(-0.0403178 0.00161115 0)
(-0.0445448 0.00148726 0)
(-0.0478305 0.00122529 0)
(-0.0498801 0.000822545 0)
(-0.0504489 0.000293072 0)
(-0.0493586 -0.000332946 0)
(-0.0465216 -0.001013 0)
(-0.0419482 -0.00169443 0)
(-0.0357642 -0.00231916 0)
(-0.0282068 -0.00282724 0)
(-0.0196315 -0.00316364 0)
(-0.0104861 -0.00328431 0)
(-0.00129827 -0.00316466 0)
(0.00738244 -0.00280604 0)
(0.0150174 -0.00224061 0)
(0.0211633 -0.00153104 0)
(0.0255013 -0.000763122 0)
(0.0279132 -3.25202e-05 0)
(0.0284601 0.000575769 0)
(0.0274084 0.00100436 0)
(0.0251293 0.00123752 0)
(0.0220823 0.0012967 0)
(0.0186749 0.00122998 0)
(0.0152771 0.0010888 0)
(0.0121071 0.000918321 0)
(0.0093301 0.000746066 0)
(0.00696367 0.000591387 0)
(0.00503487 0.00045926 0)
(0.00345726 0.000357119 0)
(0.00221626 0.000274534 0)
(0.00121739 0.000209814 0)
(0.000488873 0.000125126 0)
(3.76083e-05 2.67875e-05 0)
(-8.25276e-05 -8.79603e-05 0)
(0.000185829 -0.000452917 0)
(0.00111042 -0.00111422 0)
(0.00247854 -0.00136688 0)
(0.00384385 -0.00134033 0)
(0.00510865 -0.00114385 0)
(0.00605358 -0.00086696 0)
(0.00669259 -0.000572101 0)
(0.00693793 -0.000277664 0)
(0.00682243 1.34454e-06 0)
(0.0062891 0.000284015 0)
(0.00532697 0.000582224 0)
(0.00384916 0.000929781 0)
(0.00177481 0.00134867 0)
(-0.00103241 0.00187084 0)
(-0.00471073 0.00251135 0)
(-0.0094181 0.00328291 0)
(-0.01529 0.00417658 0)
(-0.0224298 0.00517407 0)
(-0.0308733 0.00623736 0)
(-0.0405614 0.00731848 0)
(-0.0513109 0.00834749 0)
(-0.0628041 0.00923497 0)
(-0.0746076 0.00987027 0)
(-0.0862086 0.0101432 0)
(-0.0970699 0.00995964 0)
(-0.106674 0.00926064 0)
(-0.114568 0.0080252 0)
(-0.120375 0.00627367 0)
(-0.123814 0.0040597 0)
(-0.124691 0.00146807 0)
(-0.122898 -0.00139418 0)
(-0.118409 -0.00439855 0)
(-0.111285 -0.0074018 0)
(-0.101664 -0.0102455 0)
(-0.0897864 -0.0127643 0)
(-0.0759786 -0.0147893 0)
(-0.0606765 -0.0161639 0)
(-0.044403 -0.016755 0)
(-0.0277767 -0.0164771 0)
(-0.0114622 -0.0153077 0)
(0.00383961 -0.0133084 0)
(0.0174763 -0.0106277 0)
(0.0288605 -0.00749722 0)
(0.037575 -0.00420572 0)
(0.0433639 -0.0010597 0)
(0.046228 0.00166268 0)
(0.0463562 0.00376111 0)
(0.0441876 0.00513941 0)
(0.0402591 0.0058183 0)
(0.0352349 0.00590709 0)
(0.0296876 0.00557178 0)
(0.0241657 0.00497921 0)
(0.0189807 0.00428036 0)
(0.0143949 0.00357342 0)
(0.0104247 0.00293453 0)
(0.00713593 0.00236546 0)
(0.00441403 0.00186821 0)
(0.00232511 0.00132609 0)
(0.000825289 0.000742015 0)
(6.70098e-05 5.98402e-05 0)
(0.000259381 -0.00116711 0)
(0.00139853 -0.00249316 0)
(0.00300955 -0.00296275 0)
(0.00452231 -0.00282998 0)
(0.0058218 -0.00234547 0)
(0.00664087 -0.00165937 0)
(0.00696638 -0.000902914 0)
(0.00666726 -0.000100893 0)
(0.00572695 0.000719465 0)
(0.00402837 0.0016068 0)
(0.00148518 0.002594 0)
(-0.00207178 0.00375815 0)
(-0.00681548 0.00514926 0)
(-0.0129646 0.00682874 0)
(-0.0207217 0.00881278 0)
(-0.030261 0.0110948 0)
(-0.0416661 0.013607 0)
(-0.0548826 0.0162398 0)
(-0.0696706 0.0188181 0)
(-0.0855933 0.021123 0)
(-0.102062 0.0229051 0)
(-0.118409 0.0239425 0)
(-0.13398 0.0240702 0)
(-0.148195 0.0232075 0)
(-0.160592 0.0213454 0)
(-0.170821 0.0185377 0)
(-0.178642 0.0148761 0)
(-0.183891 0.0104822 0)
(-0.186473 0.00549285 0)
(-0.186331 6.23109e-05 0)
(-0.183448 -0.00564377 0)
(-0.177834 -0.0114401 0)
(-0.169537 -0.0171248 0)
(-0.158649 -0.0224717 0)
(-0.145324 -0.0272379 0)
(-0.129785 -0.0311648 0)
(-0.112357 -0.0339992 0)
(-0.0934539 -0.0355099 0)
(-0.073611 -0.0355249 0)
(-0.0534427 -0.0339584 0)
(-0.0336488 -0.0308492 0)
(-0.0149354 -0.0263718 0)
(0.00199786 -0.0208429 0)
(0.0165652 -0.0146886 0)
(0.028288 -0.00840062 0)
(0.0369021 -0.00247185 0)
(0.0422996 0.00266787 0)
(0.0446316 0.00670355 0)
(0.0441958 0.00947603 0)
(0.0415317 0.0109897 0)
(0.037221 0.0114017 0)
(0.0319667 0.0109671 0)
(0.0263099 0.00998769 0)
(0.020785 0.00873162 0)
(0.0156281 0.00742154 0)
(0.0111003 0.00615219 0)
(0.0071735 0.0049598 0)
(0.00402469 0.00369046 0)
(0.00159553 0.00229208 0)
(0.000228356 0.000634303 0)
(0.000287773 -0.00194235 0)
(0.00145213 -0.00390285 0)
(0.00299389 -0.00448941 0)
(0.00428378 -0.00411113 0)
(0.00519741 -0.00319066 0)
(0.00544572 -0.00192071 0)
(0.00497885 -0.000493579 0)
(0.0036172 0.0010797 0)
(0.00126854 0.00277173 0)
(-0.0022643 0.00467522 0)
(-0.00716909 0.00685181 0)
(-0.0137058 0.00942278 0)
(-0.0221302 0.0124516 0)
(-0.0326889 0.0159937 0)
(-0.0455387 0.0200042 0)
(-0.0606815 0.0243663 0)
(-0.0778952 0.0288329 0)
(-0.096705 0.0330712 0)
(-0.116439 0.0366826 0)
(-0.136329 0.0393074 0)
(-0.155644 0.0406746 0)
(-0.173765 0.0406493 0)
(-0.190236 0.0392058 0)
(-0.204735 0.0364098 0)
(-0.217061 0.0323727 0)
(-0.227083 0.0272378 0)
(-0.234724 0.0211535 0)
(-0.239925 0.0142761 0)
(-0.242648 0.00675995 0)
(-0.242846 -0.00123021 0)
(-0.240483 -0.00952101 0)
(-0.235514 -0.0179133 0)
(-0.227913 -0.0261823 0)
(-0.217665 -0.0340625 0)
(-0.204802 -0.0412537 0)
(-0.189408 -0.0474176 0)
(-0.171661 -0.0522028 0)
(-0.151836 -0.0552632 0)
(-0.130354 -0.0563092 0)
(-0.10776 -0.0551467 0)
(-0.0847383 -0.0517388 0)
(-0.0620486 -0.0462314 0)
(-0.0404984 -0.0389757 0)
(-0.0208216 -0.0304912 0)
(-0.00365836 -0.0214148 0)
(0.0105624 -0.0124099 0)
(0.0215641 -0.00409145 0)
(0.0293067 0.00304005 0)
(0.0338644 0.00863929 0)
(0.0355448 0.0125407 0)
(0.0347292 0.0147691 0)
(0.0320188 0.0155224 0)
(0.027964 0.0151291 0)
(0.0232311 0.0139654 0)
(0.0182347 0.0123922 0)
(0.0134556 0.0106458 0)
(0.00901691 0.00883972 0)
(0.00526604 0.00684927 0)
(0.00219543 0.00452702 0)
(0.000359021 0.00161459 0)
(0.000285147 -0.00275625 0)
(0.00132627 -0.00525842 0)
(0.00255728 -0.00581197 0)
(0.00333952 -0.00500718 0)
(0.00352981 -0.00345389 0)
(0.00282885 -0.00136731 0)
(0.00113063 0.0010115 0)
(-0.00179815 0.00370835 0)
(-0.00614624 0.00670991 0)
(-0.0121956 0.0101658 0)
(-0.0202345 0.0141646 0)
(-0.0305756 0.0188508 0)
(-0.0434761 0.0242479 0)
(-0.0590589 0.0303117 0)
(-0.0772214 0.0368016 0)
(-0.0975596 0.0433385 0)
(-0.119403 0.0493937 0)
(-0.141911 0.0544417 0)
(-0.164254 0.0580385 0)
(-0.185719 0.0599206 0)
(-0.205789 0.0599801 0)
(-0.224105 0.0582506 0)
(-0.240454 0.0548404 0)
(-0.254705 0.0499116 0)
(-0.266794 0.0436358 0)
(-0.276684 0.0361933 0)
(-0.284363 0.0277505 0)
(-0.289816 0.018472 0)
(-0.293033 0.00851119 0)
(-0.293984 -0.00197089 0)
(-0.292631 -0.0128072 0)
(-0.288906 -0.0238012 0)
(-0.282732 -0.0347256 0)
(-0.274008 -0.0452983 0)
(-0.262643 -0.0551855 0)
(-0.248559 -0.0639883 0)
(-0.231742 -0.0712652 0)
(-0.212261 -0.0765459 0)
(-0.190336 -0.0793906 0)
(-0.166355 -0.0794403 0)
(-0.140923 -0.0765066 0)
(-0.114825 -0.0706273 0)
(-0.0890103 -0.0621254 0)
(-0.0644517 -0.0515883 0)
(-0.0420662 -0.0398139 0)
(-0.0225361 -0.0276794 0)
(-0.00630989 -0.0160224 0)
(0.00647502 -0.00553326 0)
(0.0158293 0.00328232 0)
(0.0219712 0.0101204 0)
(0.0251505 0.0148685 0)
(0.0258229 0.0176166 0)
(0.0244268 0.018625 0)
(0.0216019 0.0182876 0)
(0.0178133 0.0170308 0)
(0.0136753 0.0152174 0)
(0.00945002 0.0130393 0)
(0.00565783 0.0104427 0)
(0.00239903 0.0071718 0)
(0.000400387 0.0028324 0)
(0.000260956 -0.0034489 0)
(0.00103755 -0.00624814 0)
(0.00171278 -0.0065299 0)
(0.00169846 -0.00506495 0)
(0.000823863 -0.00263982 0)
(-0.00120938 0.000537574 0)
(-0.00458892 0.0042016 0)
(-0.00960594 0.00843778 0)
(-0.0165594 0.0132571 0)
(-0.0257974 0.0188592 0)
(-0.037664 0.0253231 0)
(-0.0524148 0.0327384 0)
(-0.0701367 0.0409638 0)
(-0.0906058 0.0496978 0)
(-0.113279 0.0583719 0)
(-0.137319 0.0663277 0)
(-0.161799 0.0729014 0)
(-0.185852 0.077619 0)
(-0.208812 0.0802031 0)
(-0.230199 0.0805909 0)
(-0.249722 0.0788452 0)
(-0.267199 0.0751294 0)
(-0.282558 0.0696386 0)
(-0.295772 0.0625941 0)
(-0.306875 0.0542031 0)
(-0.315915 0.0446681 0)
(-0.322972 0.0341628 0)
(-0.328108 0.0228496 0)
(-0.331391 0.0108666 0)
(-0.332848 -0.0016481 0)
(-0.332484 -0.0145607 0)
(-0.330244 -0.0277117 0)
(-0.326033 -0.0409128 0)
(-0.319688 -0.053914 0)
(-0.311009 -0.0664 0)
(-0.299747 -0.0779627 0)
(-0.285659 -0.0881127 0)
(-0.268529 -0.0962793 0)
(-0.24826 -0.101863 0)
(-0.224918 -0.104288 0)
(-0.198843 -0.103113 0)
(-0.170667 -0.0981233 0)
(-0.141362 -0.0894536 0)
(-0.112132 -0.077626 0)
(-0.0843013 -0.0635412 0)
(-0.0590473 -0.0483323 0)
(-0.0372533 -0.0331767 0)
(-0.019322 -0.0190759 0)
(-0.00530711 -0.00675725 0)
(0.00505058 0.00335158 0)
(0.0120456 0.0110482 0)
(0.0161127 0.0163438 0)
(0.0176223 0.0194082 0)
(0.0171427 0.0205902 0)
(0.0151121 0.0203013 0)
(0.012183 0.018969 0)
(0.0087093 0.0168273 0)
(0.00533433 0.0138912 0)
(0.00228466 0.00980409 0)
(0.000378673 0.00406048 0)
(0.000209536 -0.0040094 0)
(0.000569395 -0.00678038 0)
(0.000447952 -0.0064992 0)
(-0.000633702 -0.00410385 0)
(-0.00288967 -0.000522162 0)
(-0.00661179 0.00408237 0)
(-0.0120943 0.00944449 0)
(-0.019677 0.0157209 0)
(-0.0297552 0.0229373 0)
(-0.0426752 0.0312992 0)
(-0.0587253 0.040785 0)
(-0.0779263 0.0512879 0)
(-0.100008 0.0623426 0)
(-0.124286 0.0732921 0)
(-0.149845 0.0832897 0)
(-0.175657 0.0915956 0)
(-0.200849 0.0976481 0)
(-0.224726 0.101178 0)
(-0.246831 0.102111 0)
(-0.266855 0.100557 0)
(-0.284652 0.0967015 0)
(-0.300156 0.0908031 0)
(-0.313414 0.0831267 0)
(-0.324514 0.0739493 0)
(-0.333616 0.0635159 0)
(-0.34088 0.0520524 0)
(-0.346496 0.0397379 0)
(-0.350623 0.0267262 0)
(-0.353412 0.0131303 0)
(-0.354959 -0.000948193 0)
(-0.355324 -0.0154252 0)
(-0.354493 -0.0302001 0)
(-0.352394 -0.0451533 0)
(-0.348853 -0.0601066 0)
(-0.343623 -0.0748152 0)
(-0.336348 -0.0889263 0)
(-0.326606 -0.101975 0)
(-0.313908 -0.113362 0)
(-0.297792 -0.122382 0)
(-0.277883 -0.128257 0)
(-0.25404 -0.130244 0)
(-0.226458 -0.127747 0)
(-0.195806 -0.1205 0)
(-0.163242 -0.108701 0)
(-0.130369 -0.0931169 0)
(-0.0989708 -0.0750257 0)
(-0.0707099 -0.0560208 0)
(-0.0467097 -0.0376521 0)
(-0.0274386 -0.021133 0)
(-0.0127025 -0.0071692 0)
(-0.00204326 0.00393648 0)
(0.00515159 0.0121892 0)
(0.00936013 0.0177369 0)
(0.0111644 0.0209065 0)
(0.0109943 0.0220682 0)
(0.00949426 0.0216632 0)
(0.00707073 0.019923 0)
(0.00442512 0.0169043 0)
(0.00189456 0.0121742 0)
(0.000299723 0.00516223 0)
(0.000118868 -0.00426597 0)
(-0.000120635 -0.00654319 0)
(-0.00130191 -0.00534662 0)
(-0.00372982 -0.00171586 0)
(-0.00768343 0.00334494 0)
(-0.0134401 0.0097566 0)
(-0.0214157 0.017272 0)
(-0.0319656 0.0261047 0)
(-0.0455282 0.0362466 0)
(-0.0623275 0.0478074 0)
(-0.0824401 0.0605211 0)
(-0.105487 0.0739337 0)
(-0.130776 0.0871899 0)
(-0.157256 0.0993619 0)
(-0.183882 0.109537 0)
(-0.209673 0.117108 0)
(-0.233927 0.121727 0)
(-0.256109 0.123341 0)
(-0.275923 0.122054 0)
(-0.293189 0.118121 0)
(-0.307909 0.11185 0)
(-0.320168 0.103604 0)
(-0.330171 0.0937283 0)
(-0.338153 0.0825549 0)
(-0.344404 0.0703568 0)
(-0.349189 0.0573665 0)
(-0.352782 0.043748 0)
(-0.3554 0.0296276 0)
(-0.357247 0.0150782 0)
(-0.358458 0.000153329 0)
(-0.359142 -0.015122 0)
(-0.359329 -0.0307156 0)
(-0.359003 -0.0465907 0)
(-0.358044 -0.0626656 0)
(-0.356248 -0.0788061 0)
(-0.353269 -0.0947765 0)
(-0.34864 -0.110223 0)
(-0.341733 -0.124623 0)
(-0.331825 -0.137286 0)
(-0.318126 -0.14734 0)
(-0.299933 -0.153803 0)
(-0.276766 -0.155677 0)
(-0.248609 -0.152143 0)
(-0.216067 -0.142777 0)
(-0.180511 -0.127804 0)
(-0.14398 -0.108225 0)
(-0.108918 -0.0858025 0)
(-0.0775872 -0.0627059 0)
(-0.0515434 -0.0410057 0)
(-0.0312417 -0.0221324 0)
(-0.0162902 -0.00676116 0)
(-0.00581233 0.00506592 0)
(0.000995405 0.0135609 0)
(0.00491723 0.0191222 0)
(0.00649616 0.0221261 0)
(0.00640375 0.0230201 0)
(0.00509867 0.0220134 0)
(0.00329539 0.0191731 0)
(0.0014135 0.0140269 0)
(0.000208799 0.00599877 0)
(-1.96954e-05 -0.00415403 0)
(-0.00105018 -0.00539505 0)
(-0.00354002 -0.00290659 0)
(-0.00755767 0.00227551 0)
(-0.0134745 0.00916248 0)
(-0.0215393 0.01779 0)
(-0.0322842 0.0279261 0)
(-0.0460118 0.0397862 0)
(-0.0631094 0.0532327 0)
(-0.0835313 0.0681346 0)
(-0.107016 0.083844 0)
(-0.132738 0.099504 0)
(-0.15969 0.113963 0)
(-0.186664 0.126224 0)
(-0.212675 0.1355 0)
(-0.236871 0.141409 0)
(-0.258716 0.143825 0)
(-0.277821 0.142898 0)
(-0.294065 0.13891 0)
(-0.30745 0.132278 0)
(-0.318184 0.123443 0)
(-0.326532 0.11287 0)
(-0.332865 0.100962 0)
(-0.337532 0.0880767 0)
(-0.340904 0.0744815 0)
(-0.34328 0.0603847 0)
(-0.344949 0.0459135 0)
(-0.34612 0.0311543 0)
(-0.346988 0.0161372 0)
(-0.347681 0.000874826 0)
(-0.348319 -0.0146523 0)
(-0.348962 -0.030461 0)
(-0.349653 -0.0465772 0)
(-0.350356 -0.0630002 0)
(-0.350983 -0.0797034 0)
(-0.351316 -0.0965882 0)
(-0.351007 -0.113464 0)
(-0.349506 -0.129988 0)
(-0.34607 -0.145624 0)
(-0.33973 -0.159595 0)
(-0.329392 -0.170878 0)
(-0.313938 -0.178237 0)
(-0.292488 -0.180363 0)
(-0.264663 -0.176097 0)
(-0.230929 -0.164762 0)
(-0.192793 -0.146516 0)
(-0.152816 -0.122624 0)
(-0.11419 -0.0954227 0)
(-0.0800019 -0.0678788 0)
(-0.0522595 -0.042696 0)
(-0.031459 -0.0215967 0)
(-0.0167908 -0.00506662 0)
(-0.0070359 0.00712184 0)
(-0.000980005 0.0155567 0)
(0.00223748 0.0207474 0)
(0.00343683 0.0232172 0)
(0.00317968 0.0231854 0)
(0.00219188 0.0207267 0)
(0.000951041 0.0153766 0)
(0.00012583 0.00659715 0)
(-0.000219015 -0.00346887 0)
(-0.00224513 -0.00302266 0)
(-0.00627917 0.00115161 0)
(-0.0120977 0.00820378 0)
(-0.0201903 0.0172713 0)
(-0.0307484 0.0285107 0)
(-0.0443864 0.0416672 0)
(-0.0612568 0.0568569 0)
(-0.0815853 0.0736831 0)
(-0.10494 0.0916386 0)
(-0.130694 0.109644 0)
(-0.157657 0.126518 0)
(-0.184692 0.141001 0)
(-0.210591 0.152206 0)
(-0.234512 0.159569 0)
(-0.255744 0.162953 0)
(-0.273947 0.162469 0)
(-0.288931 0.158494 0)
(-0.300827 0.151515 0)
(-0.309868 0.14212 0)
(-0.316483 0.130866 0)
(-0.321091 0.118277 0)
(-0.324168 0.104766 0)
(-0.326099 0.0906668 0)
(-0.327253 0.0761957 0)
(-0.327888 0.0615058 0)
(-0.328238 0.0466677 0)
(-0.328446 0.0317203 0)
(-0.328653 0.0166543 0)
(-0.328938 0.00145291 0)
(-0.329398 -0.0139277 0)
(-0.33009 -0.0295271 0)
(-0.33109 -0.0454004 0)
(-0.332433 -0.0615907 0)
(-0.334145 -0.0781416 0)
(-0.336172 -0.0950622 0)
(-0.338378 -0.112318 0)
(-0.34045 -0.129773 0)
(-0.34187 -0.147143 0)
(-0.341823 -0.163908 0)
(-0.339196 -0.179252 0)
(-0.332586 -0.191998 0)
(-0.320473 -0.200643 0)
(-0.301462 -0.20348 0)
(-0.274723 -0.198899 0)
(-0.24043 -0.18582 0)
(-0.20018 -0.164256 0)
(-0.157049 -0.13573 0)
(-0.115156 -0.103348 0)
(-0.0785084 -0.0710762 0)
(-0.0496686 -0.0424703 0)
(-0.0289641 -0.0194197 0)
(-0.0151428 -0.00218401 0)
(-0.00644962 0.00998322 0)
(-0.00146764 0.0178807 0)
(0.000973509 0.0222573 0)
(0.00165157 0.023445 0)
(0.00135861 0.0215707 0)
(0.000631195 0.0162344 0)
(7.89132e-05 0.00697117 0)
(-0.000477159 -0.00211459 0)
(-0.0036717 0.000701855 0)
(-0.00942189 0.0069316 0)
(-0.0171695 0.0161436 0)
(-0.0275411 0.0277154 0)
(-0.0406251 0.0418929 0)
(-0.0570606 0.0583248 0)
(-0.0767431 0.0768966 0)
(-0.0996509 0.0968338 0)
(-0.124927 0.117186 0)
(-0.151652 0.136502 0)
(-0.178418 0.153437 0)
(-0.204111 0.166802 0)
(-0.227613 0.175925 0)
(-0.24827 0.180511 0)
(-0.265567 0.180701 0)
(-0.279437 0.176883 0)
(-0.289963 0.169691 0)
(-0.297565 0.159811 0)
(-0.302689 0.147961 0)
(-0.305924 0.134749 0)
(-0.307753 0.120687 0)
(-0.308662 0.106133 0)
(-0.308976 0.0913423 0)
(-0.308989 0.0764503 0)
(-0.308855 0.0615371 0)
(-0.308717 0.0466144 0)
(-0.308625 0.0316805 0)
(-0.308649 0.0167012 0)
(-0.308807 0.0016493 0)
(-0.309158 -0.0135203 0)
(-0.309736 -0.0288425 0)
(-0.310622 -0.0443681 0)
(-0.311877 -0.0601427 0)
(-0.3136 -0.0762285 0)
(-0.315851 -0.0926826 0)
(-0.318679 -0.109564 0)
(-0.322023 -0.126892 0)
(-0.325696 -0.144621 0)
(-0.329247 -0.162547 0)
(-0.331908 -0.180223 0)
(-0.332479 -0.19683 0)
(-0.329346 -0.21108 0)
(-0.320578 -0.221184 0)
(-0.304259 -0.224981 0)
(-0.278982 -0.220279 0)
(-0.244538 -0.20547 0)
(-0.202515 -0.180309 0)
(-0.156573 -0.146665 0)
(-0.111859 -0.108618 0)
(-0.0734688 -0.0715056 0)
(-0.0443799 -0.0397577 0)
(-0.0245734 -0.0153814 0)
(-0.0120936 0.00199149 0)
(-0.00481465 0.0134836 0)
(-0.000976589 0.0202746 0)
(0.000590761 0.0229889 0)
(0.000866572 0.0219189 0)
(0.000484148 0.0168007 0)
(7.0762e-05 0.00725547 0)
(-0.00079528 0.000100695 0)
(-0.00530121 0.00601313 0)
(-0.0128779 0.0146377 0)
(-0.0226047 0.0262622 0)
(-0.0352457 0.0406052 0)
(-0.0507264 0.0579285 0)
(-0.0696415 0.077682 0)
(-0.091546 0.0993898 0)
(-0.116143 0.121832 0)
(-0.142193 0.143639 0)
(-0.16861 0.16313 0)
(-0.19391 0.178964 0)
(-0.217108 0.190152 0)
(-0.237236 0.196308 0)
(-0.253903 0.197459 0)
(-0.266867 0.194075 0)
(-0.2764 0.186853 0)
(-0.282867 0.176661 0)
(-0.286929 0.16433 0)
(-0.289157 0.150621 0)
(-0.290191 0.136105 0)
(-0.290466 0.121212 0)
(-0.290391 0.106189 0)
(-0.290168 0.091187 0)
(-0.289978 0.0762479 0)
(-0.289857 0.0613824 0)
(-0.289859 0.0465553 0)
(-0.289949 0.0317392 0)
(-0.290145 0.0168907 0)
(-0.290414 0.0019862 0)
(-0.290787 -0.013007 0)
(-0.291271 -0.0281061 0)
(-0.291938 -0.0433413 0)
(-0.292846 -0.0587393 0)
(-0.294113 -0.0743484 0)
(-0.295845 -0.0902265 0)
(-0.298184 -0.106458 0)
(-0.301229 -0.123136 0)
(-0.305043 -0.140353 0)
(-0.309534 -0.158148 0)
(-0.314393 -0.17643 0)
(-0.318921 -0.194846 0)
(-0.321936 -0.212616 0)
(-0.321664 -0.228358 0)
(-0.31584 -0.239997 0)
(-0.30201 -0.244847 0)
(-0.278161 -0.240023 0)
(-0.243613 -0.223237 0)
(-0.199939 -0.19396 0)
(-0.151448 -0.154512 0)
(-0.10452 -0.11039 0)
(-0.0653684 -0.0685836 0)
(-0.0371523 -0.0344942 0)
(-0.0190426 -0.0096504 0)
(-0.00839451 0.00694451 0)
(-0.00266763 0.0170471 0)
(-8.55279e-05 0.0218024 0)
(0.000701454 0.0218601 0)
(0.000512308 0.0171892 0)
(0.000103261 0.00752074 0)
(-0.0011512 0.00323164 0)
(-0.0070293 0.0129232 0)
(-0.0164358 0.0242115 0)
(-0.0280737 0.0384236 0)
(-0.0428294 0.0556911 0)
(-0.0604024 0.0761862 0)
(-0.0812834 0.0990604 0)
(-0.104645 0.123382 0)
(-0.129947 0.147494 0)
(-0.155658 0.169701 0)
(-0.180666 0.188254 0)
(-0.203516 0.20196 0)
(-0.223436 0.210124 0)
(-0.239682 0.212713 0)
(-0.252202 0.210137 0)
(-0.261074 0.20322 0)
(-0.2669 0.192939 0)
(-0.270257 0.18032 0)
(-0.271939 0.166236 0)
(-0.272517 0.151388 0)
(-0.272575 0.136234 0)
(-0.272419 0.121065 0)
(-0.272328 0.105999 0)
(-0.272362 0.0910765 0)
(-0.272594 0.0762628 0)
(-0.272959 0.0615188 0)
(-0.273447 0.0467848 0)
(-0.273971 0.0320269 0)
(-0.274517 0.0172085 0)
(-0.275025 0.00232109 0)
(-0.27551 -0.012647 0)
(-0.27596 -0.0276888 0)
(-0.276433 -0.0428077 0)
(-0.276973 -0.0580025 0)
(-0.277688 -0.0732931 0)
(-0.278683 -0.0887134 0)
(-0.280123 -0.104332 0)
(-0.282165 -0.120248 0)
(-0.284999 -0.136603 0)
(-0.288751 -0.153555 0)
(-0.293465 -0.171244 0)
(-0.298938 -0.189697 0)
(-0.304598 -0.208673 0)
(-0.309289 -0.227445 0)
(-0.311152 -0.244548 0)
(-0.307623 -0.257591 0)
(-0.295746 -0.263298 0)
(-0.272901 -0.257965 0)
(-0.237939 -0.238532 0)
(-0.192486 -0.204178 0)
(-0.141692 -0.158051 0)
(-0.0933875 -0.107549 0)
(-0.0548461 -0.0618195 0)
(-0.0287931 -0.0266175 0)
(-0.0131789 -0.00266026 0)
(-0.00466757 0.012198 0)
(-0.000685529 0.0198355 0)
(0.000705387 0.0215117 0)
(0.000647448 0.0175679 0)
(0.000161463 0.00788568 0)
(-0.00152965 0.00737934 0)
(-0.00877699 0.0215036 0)
(-0.0199317 0.0356642 0)
(-0.0333183 0.0525668 0)
(-0.0499107 0.0727977 0)
(-0.069131 0.0963179 0)
(-0.0913316 0.121897 0)
(-0.115315 0.148109 0)
(-0.140369 0.172929 0)
(-0.164789 0.194469 0)
(-0.187548 0.211075 0)
(-0.207311 0.22181 0)
(-0.223594 0.226365 0)
(-0.235938 0.225119 0)
(-0.244669 0.218895 0)
(-0.250159 0.208841 0)
(-0.25326 0.196125 0)
(-0.254637 0.181818 0)
(-0.255096 0.166723 0)
(-0.2551 0.151399 0)
(-0.255106 0.136142 0)
(-0.255257 0.121088 0)
(-0.255699 0.106233 0)
(-0.256371 0.0915333 0)
(-0.257266 0.0769021 0)
(-0.258259 0.0622763 0)
(-0.259309 0.0475926 0)
(-0.260305 0.0328244 0)
(-0.261225 0.0179511 0)
(-0.262 0.00298217 0)
(-0.262642 -0.0120724 0)
(-0.263128 -0.0271845 0)
(-0.263506 -0.0423333 0)
(-0.263799 -0.0574933 0)
(-0.264097 -0.0726554 0)
(-0.264479 -0.0878237 0)
(-0.265091 -0.103033 0)
(-0.266081 -0.118355 0)
(-0.267665 -0.133915 0)
(-0.270055 -0.149895 0)
(-0.273476 -0.166526 0)
(-0.278058 -0.184055 0)
(-0.283731 -0.202627 0)
(-0.290016 -0.22212 0)
(-0.295805 -0.241846 0)
(-0.299145 -0.260219 0)
(-0.297187 -0.274464 0)
(-0.286505 -0.280598 0)
(-0.263904 -0.273986 0)
(-0.227879 -0.250709 0)
(-0.180295 -0.209899 0)
(-0.127507 -0.156037 0)
(-0.0790369 -0.0994121 0)
(-0.0428555 -0.0511905 0)
(-0.0202644 -0.0168544 0)
(-0.00769384 0.00487993 0)
(-0.0016237 0.0167016 0)
(0.000660981 0.0207559 0)
(0.000803694 0.0179352 0)
(0.000230611 0.00836766 0)
(-0.00189038 0.0124811 0)
(-0.0103964 0.0315842 0)
(-0.0231047 0.04873 0)
(-0.0379688 0.0683098 0)
(-0.0560074 0.0913806 0)
(-0.076336 0.117583 0)
(-0.0991629 0.14527 0)
(-0.12297 0.172533 0)
(-0.146969 0.197099 0)
(-0.169387 0.217026 0)
(-0.189377 0.230888 0)
(-0.205796 0.2381 0)
(-0.218502 0.238811 0)
(-0.227349 0.23384 0)
(-0.233014 0.224402 0)
(-0.236074 0.21187 0)
(-0.23751 0.197486 0)
(-0.237956 0.182243 0)
(-0.238124 0.166787 0)
(-0.238314 0.151488 0)
(-0.238831 0.136468 0)
(-0.239663 0.121723 0)
(-0.240854 0.107159 0)
(-0.242258 0.0926769 0)
(-0.243829 0.0781699 0)
(-0.245412 0.063573 0)
(-0.246963 0.0488351 0)
(-0.248366 0.0339462 0)
(-0.249608 0.0189061 0)
(-0.25062 0.00374327 0)
(-0.251416 -0.011512 0)
(-0.25197 -0.0268137 0)
(-0.252323 -0.0421212 0)
(-0.252486 -0.0573906 0)
(-0.252529 -0.0725891 0)
(-0.252504 -0.0876962 0)
(-0.252524 -0.102712 0)
(-0.252697 -0.117674 0)
(-0.253208 -0.132659 0)
(-0.254259 -0.147818 0)
(-0.256124 -0.163373 0)
(-0.259078 -0.17964 0)
(-0.263358 -0.196967 0)
(-0.268999 -0.215645 0)
(-0.275617 -0.235655 0)
(-0.282115 -0.256328 0)
(-0.286398 -0.275872 0)
(-0.285311 -0.290988 0)
(-0.274923 -0.296819 0)
(-0.251575 -0.287623 0)
(-0.213565 -0.258718 0)
(-0.163454 -0.209556 0)
(-0.109267 -0.14717 0)
(-0.0624599 -0.085484 0)
(-0.0306492 -0.0374347 0)
(-0.0124791 -0.00597512 0)
(-0.00335867 0.0118492 0)
(0.000316502 0.0193809 0)
(0.000875007 0.0182498 0)
(0.000290604 0.00898423 0)
(-0.00221104 0.0184928 0)
(-0.0118019 0.0430509 0)
(-0.0258008 0.0632366 0)
(-0.0418063 0.0854063 0)
(-0.0608348 0.111088 0)
(-0.0816973 0.139517 0)
(-0.104479 0.168628 0)
(-0.12742 0.196095 0)
(-0.149746 0.219526 0)
(-0.169714 0.23706 0)
(-0.186725 0.247618 0)
(-0.199875 0.25104 0)
(-0.209386 0.247977 0)
(-0.215399 0.239673 0)
(-0.218857 0.227648 0)
(-0.22043 0.213375 0)
(-0.221106 0.198048 0)
(-0.221394 0.182484 0)
(-0.221863 0.16713 0)
(-0.222631 0.152152 0)
(-0.223871 0.137523 0)
(-0.225453 0.123135 0)
(-0.227359 0.108838 0)
(-0.229397 0.0945091 0)
(-0.231515 0.0800474 0)
(-0.233553 0.0653987 0)
(-0.235479 0.0505323 0)
(-0.237186 0.0354563 0)
(-0.238671 0.0201905 0)
(-0.239868 0.004779 0)
(-0.240801 -0.0107312 0)
(-0.241439 -0.0262816 0)
(-0.241823 -0.0418163 0)
(-0.241953 -0.0572796 0)
(-0.24189 -0.0726224 0)
(-0.241663 -0.0878085 0)
(-0.241355 -0.102813 0)
(-0.241039 -0.117644 0)
(-0.240846 -0.132332 0)
(-0.240927 -0.146979 0)
(-0.241514 -0.161743 0)
(-0.242887 -0.176906 0)
(-0.24539 -0.192846 0)
(-0.249342 -0.210047 0)
(-0.254882 -0.228923 0)
(-0.2617 -0.249577 0)
(-0.268649 -0.271284 0)
(-0.273446 -0.291921 0)
(-0.272493 -0.307444 0)
(-0.261393 -0.311836 0)
(-0.236053 -0.298154 0)
(-0.19503 -0.261073 0)
(-0.14212 -0.201501 0)
(-0.0878143 -0.130412 0)
(-0.045202 -0.0665699 0)
(-0.0195622 -0.0217718 0)
(-0.00626365 0.00443017 0)
(-0.000522522 0.0169389 0)
(0.000785279 0.0183002 0)
(0.000329574 0.00965781 0)
(-0.00244929 0.0252088 0)
(-0.0128585 0.0555602 0)
(-0.0278066 0.0787483 0)
(-0.0445593 0.103305 0)
(-0.0640894 0.131233 0)
(-0.08493 0.161322 0)
(-0.10708 0.191135 0)
(-0.128628 0.218015 0)
(-0.148889 0.239587 0)
(-0.166223 0.254185 0)
(-0.180321 0.261164 0)
(-0.190541 0.260836 0)
(-0.197444 0.254354 0)
(-0.201386 0.243311 0)
(-0.203469 0.229417 0)
(-0.204345 0.214116 0)
(-0.204922 0.198451 0)
(-0.205534 0.183013 0)
(-0.206598 0.168036 0)
(-0.208074 0.15351 0)
(-0.210037 0.139294 0)
(-0.212282 0.125212 0)
(-0.214768 0.111097 0)
(-0.217289 0.0968253 0)
(-0.219805 0.0823142 0)
(-0.222165 0.0675279 0)
(-0.224355 0.0524587 0)
(-0.226275 0.037131 0)
(-0.227936 0.0215832 0)
(-0.229274 0.00587163 0)
(-0.230318 -0.00994177 0)
(-0.231035 -0.0257887 0)
(-0.231468 -0.0416002 0)
(-0.23161 -0.0573124 0)
(-0.231516 -0.0728633 0)
(-0.231202 -0.0882083 0)
(-0.230737 -0.103306 0)
(-0.230165 -0.118146 0)
(-0.229579 -0.132728 0)
(-0.229074 -0.147112 0)
(-0.228816 -0.161388 0)
(-0.229021 -0.175767 0)
(-0.23 -0.190555 0)
(-0.232144 -0.206244 0)
(-0.235844 -0.223417 0)
(-0.241338 -0.242665 0)
(-0.248324 -0.264148 0)
(-0.255581 -0.287019 0)
(-0.26045 -0.3086 0)
(-0.258876 -0.323752 0)
(-0.245835 -0.325013 0)
(-0.217159 -0.304035 0)
(-0.172077 -0.25567 0)
(-0.11674 -0.183705 0)
(-0.0646337 -0.10593 0)
(-0.0292913 -0.0442088 0)
(-0.0105999 -0.00645656 0)
(-0.00198015 0.0129076 0)
(0.000493221 0.0178564 0)
(0.000339959 0.010321 0)
(-0.00259246 0.0324527 0)
(-0.0135228 0.0688672 0)
(-0.0290529 0.0949964 0)
(-0.0461502 0.121703 0)
(-0.0657074 0.151481 0)
(-0.0860319 0.182667 0)
(-0.10708 0.21252 0)
(-0.126872 0.238151 0)
(-0.144875 0.257327 0)
(-0.159604 0.268667 0)
(-0.171051 0.272029 0)
(-0.178823 0.268204 0)
(-0.183759 0.258805 0)
(-0.186343 0.245666 0)
(-0.187727 0.230564 0)
(-0.188463 0.214803 0)
(-0.189329 0.199218 0)
(-0.19048 0.184157 0)
(-0.192199 0.169666 0)
(-0.194326 0.155591 0)
(-0.196883 0.141726 0)
(-0.199626 0.12786 0)
(-0.20252 0.113833 0)
(-0.205364 0.0995361 0)
(-0.20814 0.0849104 0)
(-0.210708 0.069938 0)
(-0.213074 0.0546317 0)
(-0.215142 0.0390281 0)
(-0.216933 0.0231803 0)
(-0.218384 0.00715357 0)
(-0.219527 -0.00897782 0)
(-0.220326 -0.0251383 0)
(-0.220824 -0.0412473 0)
(-0.22101 -0.0572353 0)
(-0.220938 -0.0730296 0)
(-0.220617 -0.0885817 0)
(-0.220109 -0.103838 0)
(-0.21944 -0.118784 0)
(-0.218682 -0.133395 0)
(-0.217891 -0.147709 0)
(-0.217174 -0.161762 0)
(-0.21667 -0.175699 0)
(-0.216606 -0.18972 0)
(-0.217318 -0.204234 0)
(-0.219231 -0.219789 0)
(-0.222836 -0.237163 0)
(-0.22839 -0.257054 0)
(-0.235615 -0.27968 0)
(-0.242996 -0.303865 0)
(-0.247484 -0.326043 0)
(-0.244257 -0.339568 0)
(-0.227915 -0.335033 0)
(-0.194352 -0.303049 0)
(-0.144684 -0.239682 0)
(-0.0883017 -0.155175 0)
(-0.0422892 -0.0753673 0)
(-0.0164245 -0.0219114 0)
(-0.00417153 0.00662995 0)
(3.81827e-06 0.0165948 0)
(0.000318969 0.0108654 0)
(-0.0026128 0.0399175 0)
(-0.0137158 0.0825244 0)
(-0.0294332 0.111467 0)
(-0.0464729 0.140008 0)
(-0.06562 0.171173 0)
(-0.0850191 0.202885 0)
(-0.104625 0.232184 0)
(-0.122468 0.256054 0)
(-0.138199 0.2725 0)
(-0.150519 0.280494 0)
(-0.159701 0.280423 0)
(-0.165566 0.27353 0)
(-0.169146 0.261805 0)
(-0.170964 0.247207 0)
(-0.172138 0.231464 0)
(-0.173075 0.21567 0)
(-0.174409 0.200431 0)
(-0.176137 0.185865 0)
(-0.178441 0.171868 0)
(-0.181088 0.158187 0)
(-0.184077 0.144584 0)
(-0.187159 0.130843 0)
(-0.190314 0.116825 0)
(-0.193358 0.102439 0)
(-0.196295 0.0876514 0)
(-0.198996 0.0724587 0)
(-0.20148 0.0568901 0)
(-0.203657 0.0409904 0)
(-0.205549 0.0248253 0)
(-0.207095 0.0084665 0)
(-0.208325 -0.00799958 0)
(-0.209202 -0.024491 0)
(-0.209769 -0.040915 0)
(-0.21001 -0.0571972 0)
(-0.20998 -0.0732532 0)
(-0.209685 -0.0890332 0)
(-0.209183 -0.104473 0)
(-0.208497 -0.11956 0)
(-0.207686 -0.134256 0)
(-0.206787 -0.148594 0)
(-0.205869 -0.162575 0)
(-0.205014 -0.176303 0)
(-0.20436 -0.189884 0)
(-0.204143 -0.203617 0)
(-0.204705 -0.217922 0)
(-0.206567 -0.233544 0)
(-0.210233 -0.251377 0)
(-0.216058 -0.272315 0)
(-0.22354 -0.296456 0)
(-0.230894 -0.32202 0)
(-0.234242 -0.344068 0)
(-0.228175 -0.353739 0)
(-0.20677 -0.339593 0)
(-0.167093 -0.291626 0)
(-0.113101 -0.210468 0)
(-0.059197 -0.116473 0)
(-0.023773 -0.0435142 0)
(-0.0072201 -0.00245415 0)
(-0.000688553 0.0141486 0)
(0.000273807 0.0112267 0)
(-0.0025177 0.0473659 0)
(-0.0134573 0.0962511 0)
(-0.0289858 0.127905 0)
(-0.0456051 0.157996 0)
(-0.0639697 0.190135 0)
(-0.0821327 0.2219 0)
(-0.100078 0.250195 0)
(-0.115911 0.271967 0)
(-0.129475 0.285538 0)
(-0.13967 0.290269 0)
(-0.147008 0.287077 0)
(-0.15147 0.277601 0)
(-0.154195 0.26411 0)
(-0.155674 0.248575 0)
(-0.156933 0.2326 0)
(-0.158224 0.21703 0)
(-0.160045 0.202249 0)
(-0.162272 0.188178 0)
(-0.165024 0.174608 0)
(-0.168029 0.161226 0)
(-0.171288 0.14779 0)
(-0.174563 0.134094 0)
(-0.177858 0.120026 0)
(-0.181005 0.105513 0)
(-0.184027 0.0905436 0)
(-0.186806 0.0751214 0)
(-0.189368 0.0592889 0)
(-0.191624 0.043095 0)
(-0.193599 0.0266155 0)
(-0.195229 0.00992653 0)
(-0.196546 -0.00687402 0)
(-0.197507 -0.0236993 0)
(-0.198155 -0.0404437 0)
(-0.198472 -0.0570292 0)
(-0.198511 -0.0733592 0)
(-0.198274 -0.0893832 0)
(-0.197822 -0.105027 0)
(-0.197172 -0.12028 0)
(-0.196382 -0.135097 0)
(-0.19548 -0.149515 0)
(-0.194518 -0.163514 0)
(-0.193545 -0.177187 0)
(-0.192632 -0.19057 0)