/*--------------------------------*- C++ -*----------------------------------*\
| =========                 |                                                 |
| \\      /  F ield         | OpenFOAM: The Open Source CFD Toolbox           |
|  \\    /   O peration     | Version:  2406                                  |
|   \\  /    A nd           | Website:  www.openfoam.com                      |
|    \\/     M anipulation  |                                                 |
\*---------------------------------------------------------------------------*/
FoamFile
{
    version     2.0;
    format      ascii;
    arch        "LSB;label=32;scalar=64";
    class       surfaceScalarField;
    location    "34.75";
    object      phi;
}
// * * * * * * * * * * * * * * * * * * * * * * * * * * * * * * * * * * * * * //

dimensions      [0 3 -1 0 0 0 0];

oriented        oriented;

internalField   nonuniform List<scalar> 
7080
(
2.5063e-07
-2.50221e-07
1.29751e-06
-1.05566e-06
2.76268e-06
-1.46337e-06
4.26555e-06
-1.51126e-06
5.52336e-06
-1.25679e-06
6.40573e-06
-8.87895e-07
6.93345e-06
-5.26071e-07
7.1857e-06
-2.54649e-07
7.27114e-06
-8.29503e-08
7.23841e-06
3.28802e-08
7.08605e-06
1.55972e-07
6.73753e-06
3.51352e-07
6.08894e-06
6.54388e-07
5.00909e-06
1.08634e-06
3.36781e-06
1.65078e-06
1.02373e-06
2.3555e-06
-2.16151e-06
3.19985e-06
-6.32531e-06
4.18098e-06
-1.15863e-05
5.28144e-06
-1.80372e-05
6.4748e-06
-2.57176e-05
7.70877e-06
-3.45879e-05
8.903e-06
-4.44961e-05
9.94442e-06
-5.51617e-05
1.07035e-05
-6.61682e-05
1.10431e-05
-7.6977e-05
1.08418e-05
-8.696e-05
1.001e-05
-9.54502e-05
8.50996e-06
-0.000101796
6.3569e-06
-0.000105413
3.61975e-06
-0.000105829
4.09505e-07
-0.000102721
-3.12412e-06
-9.59418e-05
-6.80215e-06
-8.55558e-05
-1.04167e-05
-7.18524e-05
-1.37403e-05
-5.53634e-05
-1.65312e-05
-3.68567e-05
-1.85523e-05
-1.73141e-05
-1.95909e-05
2.12966e-06
-1.9492e-05
2.02709e-05
-1.81888e-05
3.59635e-05
-1.57358e-05
4.82485e-05
-1.23238e-05
5.64938e-05
-8.27531e-06
6.04832e-05
-4.01179e-06
6.04595e-05
1.3234e-08
5.70688e-05
3.38819e-06
5.12454e-05
5.83235e-06
4.40211e-05
7.23763e-06
3.63561e-05
7.68604e-06
2.89868e-05
7.38832e-06
2.23891e-05
6.62088e-06
1.67742e-05
5.63082e-06
1.21782e-05
4.61572e-06
8.50666e-06
3.68137e-06
5.62058e-06
2.90183e-06
3.36755e-06
2.25701e-06
1.6398e-06
1.74036e-06
4.53907e-07
1.18547e-06
-1.25046e-07
5.88662e-07
-1.24984e-07
1.00723e-06
-1.24908e-06
3.35043e-06
-3.3999e-06
6.31972e-06
-4.41938e-06
9.2257e-06
-4.41569e-06
1.15885e-05
-3.60942e-06
1.31329e-05
-2.43179e-06
1.38369e-05
-1.22503e-06
1.37682e-05
-1.87992e-07
1.30399e-05
6.45616e-07
1.16584e-05
1.40958e-06
9.52878e-06
2.28145e-06
6.41731e-06
3.45436e-06
2.02606e-06
5.03571e-06
-3.99415e-06
7.09189e-06
-1.19874e-05
9.62583e-06
-2.22853e-05
1.26297e-05
-3.51612e-05
1.60472e-05
-5.07943e-05
1.97802e-05
-6.91843e-05
2.36328e-05
-9.00763e-05
2.73222e-05
-0.000112911
3.0491e-05
-0.000136851
3.27832e-05
-0.000160865
3.38915e-05
-0.000183844
3.36126e-05
-0.000204718
3.18479e-05
-0.000222542
2.86037e-05
-0.000236544
2.39612e-05
-0.000246136
1.80653e-05
-0.0002509
1.11004e-05
-0.000250572
3.28924e-06
-0.000245028
-5.12011e-06
-0.000234275
-1.38441e-05
-0.00021846
-2.25681e-05
-0.00019788
-3.09332e-05
-0.000172998
-3.85447e-05
-0.000144472
-4.49705e-05
-0.000113158
-4.97729e-05
-8.01164e-05
-5.25346e-05
-4.65867e-05
-5.29239e-05
-1.39373e-05
-5.07451e-05
1.64255e-05
-4.60127e-05
4.31576e-05
-3.89832e-05
6.51126e-05
-3.01722e-05
8.14461e-05
-2.03074e-05
9.17244e-05
-1.02453e-05
9.59675e-05
-8.56788e-07
9.46782e-05
7.10537e-06
8.87801e-05
1.31038e-05
7.95254e-05
1.69045e-05
6.82903e-05
1.85804e-05
5.63905e-05
1.84836e-05
4.48643e-05
1.7118e-05
3.44152e-05
1.50371e-05
2.53722e-05
1.26938e-05
1.78152e-05
1.04419e-05
1.16422e-05
8.40662e-06
6.74153e-06
6.6334e-06
3.07729e-06
4.83174e-06
7.56185e-07
2.90964e-06
6.21236e-07
1.4774e-06
-2.72631e-06
4.57826e-06
-6.51431e-06
8.29249e-06
-8.1319e-06
1.16808e-05
-7.81519e-06
1.41699e-05
-6.09844e-06
1.54084e-05
-3.67701e-06
1.53428e-05
-1.15788e-06
1.39806e-05
1.17241e-06
1.13473e-05
3.28264e-06
7.30729e-06
5.45208e-06
1.58506e-06
8.01025e-06
-6.25606e-06
1.13025e-05
-1.67101e-05
1.55007e-05
-3.02906e-05
2.06858e-05
-4.74404e-05
2.67937e-05
-6.84644e-05
3.3676e-05
-9.33873e-05
4.09977e-05
-0.000121833
4.82579e-05
-0.000152961
5.47973e-05
-0.000185558
5.99588e-05
-0.000218216
6.31936e-05
-0.000249555
6.41738e-05
-0.000278385
6.2778e-05
-0.000303784
5.90704e-05
-0.000325098
5.32192e-05
-0.000341902
4.54601e-05
-0.000353941
3.60433e-05
-0.000361075
2.52303e-05
-0.000363233
1.32751e-05
-0.000360385
4.43738e-07
-0.000352532
-1.29876e-05
-0.000339702
-2.67028e-05
-0.000321974
-4.03414e-05
-0.000299496
-5.3469e-05
-0.000272529
-6.55824e-05
-0.000241481
-7.60977e-05
-0.000206951
-8.43892e-05
-0.000169755
-8.98204e-05
-0.000130932
-9.1836e-05
-9.17245e-05
-9.00377e-05
-5.35091e-05
-8.43048e-05
-1.77053e-05
-7.48529e-05
1.43565e-05
-6.22839e-05
4.154e-05
-4.75257e-05
6.30123e-05
-3.17334e-05
7.82796e-05
-1.61259e-05
8.72351e-05
-1.83575e-06
9.01549e-05
1.02058e-05
8.77304e-05
1.93607e-05
8.10067e-05
2.53343e-05
7.13055e-05
2.82197e-05
5.99923e-05
2.8458e-05
4.83111e-05
2.67488e-05
3.71656e-05
2.3858e-05
2.71384e-05
2.04941e-05
1.84611e-05
1.70938e-05
1.125e-05
1.38653e-05
5.54657e-06
1.05362e-05
1.63975e-06
6.83497e-06
2.26218e-06
1.75743e-06
-4.47564e-06
5.19012e-06
-9.9528e-06
8.99592e-06
-1.19261e-05
1.20523e-05
-1.0874e-05
1.37592e-05
-7.7979e-06
1.37473e-05
-3.66709e-06
1.19377e-05
6.54661e-07
8.23205e-06
4.87474e-06
2.47982e-06
9.03358e-06
-5.6916e-06
1.3618e-05
-1.6802e-05
1.91154e-05
-3.1489e-05
2.5981e-05
-5.0351e-05
3.4353e-05
-7.38475e-05
4.41696e-05
-0.000102115
5.50461e-05
-0.000134809
6.63508e-05
-0.00017099
7.71552e-05
-0.000209224
8.64643e-05
-0.000247846
9.33883e-05
-0.000285286
9.7364e-05
-0.000320281
9.81498e-05
-0.000351952
9.5802e-05
-0.000379759
9.05387e-05
-0.000403414
8.26789e-05
-0.000422789
7.25506e-05
-0.000437847
6.04792e-05
-0.000448584
4.67489e-05
-0.000454999
3.16249e-05
-0.000457076
1.53414e-05
-0.000454769
-1.86162e-06
-0.000448006
-1.9737e-05
-0.000436697
-3.79862e-05
-0.000420749
-5.62518e-05
-0.000400098
-7.40722e-05
-0.000374742
-9.08803e-05
-0.000344799
-0.000105977
-0.000310553
-0.000118564
-0.000272524
-0.000127776
-0.000231508
-0.000132779
-0.000188596
-0.00013288
-0.00014514
-0.000127696
-0.000102671
-0.000117267
-6.27347e-05
-0.000102175
-2.67353e-05
-8.3494e-05
4.2346e-06
-6.26834e-05
2.94468e-05
-4.1333e-05
4.85487e-05
-2.09412e-05
6.14816e-05
-2.74284e-06
6.84778e-05
1.23458e-05
7.00422e-05
2.37434e-05
6.70149e-05
3.12244e-05
6.04824e-05
3.49627e-05
5.1704e-05
3.55086e-05
4.18488e-05
3.36887e-05
3.19221e-05
3.04095e-05
2.25735e-05
2.6421e-05
1.42924e-05
2.21435e-05
7.3532e-06
1.74548e-05
2.32397e-06
1.18692e-05
4.57293e-06
1.87904e-06
-6.35197e-06
5.27065e-06
-1.33563e-05
8.61121e-06
-1.52613e-05
1.06428e-05
-1.29134e-05
1.07714e-05
-7.92362e-06
8.63571e-06
-1.53488e-06
4.11601e-06
5.17735e-06
-3.03796e-06
1.20292e-05
-1.32166e-05
1.92167e-05
-2.70606e-05
2.74661e-05
-4.52891e-05
3.73508e-05
-6.85732e-05
4.9273e-05
-9.72878e-05
6.3078e-05
-0.00013132
7.82143e-05
-0.000169876
9.36164e-05
-0.000211505
0.000107997
-0.00025436
0.000120031
-0.000296623
0.00012875
-0.000336819
0.00013361
-0.000373947
0.000134522
-0.000407427
0.000131662
-0.000436986
0.000125396
-0.000462542
0.000116131
-0.00048412
0.000104293
-0.000501795
9.02583e-05
-0.000515656
7.43677e-05
-0.000525782
5.68953e-05
-0.00053223
3.80844e-05
-0.000535017
1.81307e-05
-0.000534115
-2.77052e-06
-0.000529441
-2.44281e-05
-0.000520853
-4.66002e-05
-0.000508154
-6.89859e-05
-0.000491104
-9.11642e-05
-0.00046945
-0.000112584
-0.00044297
-0.000132511
-0.000411544
-0.000150047
-0.000375246
-0.000164132
-0.000334442
-0.00017364
-0.000289886
-0.000177491
-0.00024277
-0.000174862
-0.000194698
-0.000165383
-0.000147551
-0.000149356
-0.000103251
-0.000127821
-6.34524e-05
-0.000102497
-2.9318e-05
-7.54745e-05
-1.41673e-06
-4.88378e-05
2.01432e-05
-2.42935e-05
3.55579e-05
-3.05037e-06
4.51652e-05
1.41536e-05
4.94887e-05
2.69244e-05
4.92382e-05
3.52301e-05
4.53873e-05
3.9382e-05
3.90047e-05
4.0083e-05
3.1213e-05
3.82215e-05
2.2917e-05
3.47218e-05
1.4937e-05
3.01429e-05
7.84762e-06
2.45408e-05
2.51747e-06
1.72202e-05
7.0899e-06
1.86638e-06
-8.21268e-06
4.80568e-06
-1.63026e-05
7.05762e-06
-1.75055e-05
7.32104e-06
-1.31806e-05
5.05589e-06
-5.65506e-06
-8.07924e-08
3.59902e-06
-8.29771e-06
1.3394e-05
-2.0057e-05
2.37848e-05
-3.6018e-05
3.51742e-05
-5.7011e-05
4.84538e-05
-8.37203e-05
6.40538e-05
-0.000116429
8.19743e-05
-0.000154728
0.000101367
-0.000197419
0.000120895
-0.000242654
0.000138837
-0.000288356
0.000153684
-0.000332683
0.000164339
-0.000374297
0.000170344
-0.000412381
0.000171672
-0.00044653
0.000168647
-0.000476612
0.000161716
-0.000502663
0.000151418
-0.000524817
0.000138255
-0.000543264
0.000122712
-0.000558219
0.000105187
-0.000569903
8.60306e-05
-0.000578523
6.54994e-05
-0.000584253
4.38066e-05
-0.00058722
2.10968e-05
-0.000587484
-2.50001e-06
-0.00058502
-2.68781e-05
-0.000579706
-5.1893e-05
-0.000571307
-7.73574e-05
-0.000559471
-0.000102967
-0.000543735
-0.000128282
-0.00052355
-0.000152654
-0.000498342
-0.000175212
-0.000467606
-0.000194823
-0.000431047
-0.000210154
-0.000388749
-0.000219746
-0.000341343
-0.000222227
-0.000290135
-0.000216556
-0.000237097
-0.000202364
-0.000184695
-0.000180201
-0.000135491
-0.000151686
-9.16611e-05
-0.000119299
-5.45593e-05
-8.59398e-05
-2.46255e-05
-5.42365e-05
-1.59496e-06
-2.60911e-05
1.50768e-05
-2.53506e-06
2.60067e-05
1.59813e-05
3.17997e-05
2.94184e-05
3.32043e-05
3.79665e-05
3.10768e-05
4.21924e-05
2.64495e-05
4.28426e-05
2.02958e-05
4.08582e-05
1.36273e-05
3.68113e-05
7.27754e-06
3.08717e-05
2.3386e-06
2.21654e-05
9.41586e-06
1.67556e-06
-9.88543e-06
3.69783e-06
-1.83313e-05
4.2255e-06
-1.8029e-05
2.02053e-06
-1.09779e-05
-3.3763e-06
-2.55857e-07
-1.23119e-05
1.25356e-05
-2.51437e-05
2.62284e-05
-4.25591e-05
4.12039e-05
-6.53872e-05
5.80063e-05
-9.43668e-05
7.74396e-05
-0.000129701
9.93939e-05
-0.000170779
0.000123061
-0.000216095
0.000146691
-0.000263526
0.000168336
-0.000310841
0.000186163
-0.000356182
0.000199039
-0.000398273
0.000206445
-0.000436379
0.000208468
-0.000470169
0.000205479
-0.000499577
0.000198075
-0.000524719
0.000186878
-0.000545829
0.00017255
-0.000563222
0.000155669
-0.000577261
0.00013677
-0.000588325
0.000116268
-0.000596787
9.45056e-05
-0.000602987
7.17066e-05
-0.000607215
4.80378e-05
-0.000609701
2.35781e-05
-0.000610592
-1.61788e-06
-0.000609948
-2.75381e-05
-0.000607715
-5.41469e-05
-0.000603708
-8.13909e-05
-0.000597584
-0.000109122
-0.000588818
-0.000137083
-0.000576696
-0.000164814
-0.000560323
-0.000191624
-0.000538689
-0.000216498
-0.000510784
-0.000238099
-0.000475801
-0.000254767
-0.000433391
-0.000264672
-0.000383955
-0.000266021
-0.00032888
-0.000257463
-0.000270604
-0.000238495
-0.000212388
-0.000209912
-0.000157755
-0.000173939
-0.000109665
-0.000134028
-6.98385e-05
-9.40593e-05
-3.85435e-05
-5.7376e-05
-1.50624e-05
-2.60074e-05
1.67767e-06
-7.4399e-07
1.26321e-05
1.84736e-05
1.8657e-05
3.19573e-05
2.05452e-05
4.03112e-05
1.92209e-05
4.41821e-05
1.56275e-05
4.44541e-05
1.08372e-05
4.16171e-05
5.84543e-06
3.58603e-05
1.84236e-06
2.61856e-05
1.12581e-05
1.22597e-06
-1.11107e-05
1.77083e-06
-1.88788e-05
-1.08505e-07
-1.61497e-05
-5.46957e-06
-5.61757e-06
-1.46892e-05
8.96089e-06
-2.81556e-05
2.60011e-05
-4.64083e-05
4.44761e-05
-7.02685e-05
6.50619e-05
-0.000100467
8.81987e-05
-0.000137216
0.000114184
-0.000179798
0.000141968
-0.000226528
0.000169785
-0.00027509
0.000195243
-0.000323114
0.000216352
-0.000368674
0.000231711
-0.000410468
0.000240821
-0.000447759
0.000243721
-0.000480226
0.000240921
-0.000507849
0.000233085
-0.000530823
0.000221034
-0.00054951
0.000205547
-0.000564374
0.000187398
-0.000575942
0.000167221
-0.00058475
0.000145565
-0.000591309
0.000122817
-0.000596082
9.92727e-05
-0.000599467
7.50909e-05
-0.000601798
5.03724e-05
-0.000603337
2.51254e-05
-0.000604278
-6.63089e-07
-0.000604741
-2.70565e-05
-0.000604761
-5.41034e-05
-0.000604266
-8.18593e-05
-0.000603041
-0.000110317
-0.000600684
-0.000139408
-0.000596557
-0.000168909
-0.000589739
-0.000198409
-0.000579014
-0.000227191
-0.00056291
-0.000254172
-0.000539837
-0.000277812
-0.00050834
-0.000296145
-0.000467467
-0.000306873
-0.000417222
-0.00030769
-0.000358972
-0.000296732
-0.000295635
-0.000273237
-0.000231453
-0.000238116
-0.000171175
-0.000194304
-0.00011884
-0.000146398
-7.66371e-05
-9.95835e-05
-4.4643e-05
-5.80122e-05
-2.15207e-05
-2.38738e-05
-5.62371e-06
2.56387e-06
4.47103e-06
2.18559e-05
9.84579e-06
3.49236e-05
1.14969e-05
4.25271e-05
1.03797e-05
4.55586e-05
7.57205e-06
4.44246e-05
4.14435e-06
3.92744e-05
1.26931e-06
2.90641e-05
1.25182e-05
4.53242e-07
-1.15644e-05
-1.06416e-06
-1.73564e-05
-5.97193e-06
-1.12445e-05
-1.50504e-05
3.46779e-06
-2.86255e-05
2.25341e-05
-4.71518e-05
4.45353e-05
-7.12989e-05
6.8623e-05
-0.000101785
9.55568e-05
-0.000138862
0.000125277
-0.000181838
0.000157169
-0.000228981
0.000189114
-0.00027785
0.000218664
-0.000325943
0.000243341
-0.000371198
0.000261618
-0.000412227
0.000272747
-0.000448229
0.000276835
-0.000478878
0.00027438
-0.000504193
0.00026625
-0.00052448
0.000253384
-0.000540241
0.000236809
-0.000552109
0.000217428
-0.000560764
0.000196067
-0.000566877
0.000173345
-0.000571054
0.000149753
-0.000573823
0.000125593
-0.000575616
0.00010107
-0.000576782
7.62575e-05
-0.000577597
5.11843e-05
-0.000578279
2.57987e-05
-0.000578997
4.40176e-08
-0.000579886
-2.61827e-05
-0.000581039
-5.29681e-05
-0.000582499
-8.04211e-05
-0.000584224
-0.000108615
-0.000586049
-0.000137608
-0.000587609
-0.000167373
-0.000588265
-0.000197778
-0.000587008
-0.000228472
-0.0005824
-0.000258804
-0.00057257
-0.000287665
-0.000555344
-0.000313393
-0.000528534
-0.000333704
-0.000490431
-0.00034581
-0.000440452
-0.000346726
-0.000379788
-0.000333911
-0.000311804
-0.000306105
-0.000241841
-0.000264267
-0.000176146
-0.000212092
-0.000120045
-0.000155677
-7.62535e-05
-0.000101799
-4.44662e-05
-5.5652e-05
-2.26057e-05
-1.9291e-05
-8.32158e-06
7.58198e-06
2.25854e-07
2.63806e-05
4.44976e-06
3.83137e-05
5.49575e-06
4.45146e-05
4.4922e-06
4.54387e-05
2.54425e-06
4.12215e-05
7.45264e-07
3.0874e-05
1.32648e-05
-7.15884e-07
-1.08561e-05
-4.88619e-06
-1.31772e-05
-1.33639e-05
-2.78021e-06
-2.65906e-05
1.67017e-05
-4.48817e-05
4.08129e-05
-6.87272e-05
6.83848e-05
-9.8764e-05
9.86484e-05
-0.000135287
0.000132081
-0.000177753
0.000167733
-0.000224491
0.000203906
-0.000273046
0.000237659
-0.000320765
0.000266379
-0.000365431
0.000287997
-0.000405493
0.000301674
-0.000440067
0.000307311
-0.000468789
0.00030555
-0.000491738
0.000297317
-0.000509325
0.000283829
-0.000522217
0.000266265
-0.00053121
0.000245794
-0.000537141
0.000223348
-0.000540788
0.000199707
-0.000542833
0.000175383
-0.000543827
0.000150743
-0.000544196
0.000125958
-0.000544251
0.000101126
-0.000544221
7.62298e-05
-0.000544268
5.12381e-05
-0.00054452
2.60599e-05
-0.000545085
6.21391e-07
-0.000546066
-2.51865e-05
-0.000547567
-5.14483e-05
-0.000549694
-7.82749e-05
-0.000552531
-0.000105755
-0.000556121
-0.000133995
-0.0005604
-0.000163069
-0.000565125
-0.000193029
-0.000569755
-0.000223818
-0.00057332
-0.000255216
-0.000574291
-0.000286672
-0.000570516
-0.000317148
-0.000559294
-0.00034491
-0.000537681
-0.000367409
-0.000503094
-0.000381304
-0.000454175
-0.000382825
-0.000391765
-0.000368513
-0.000319609
-0.000336422
-0.000244269
-0.000287434
-0.000173721
-0.000226227
-0.000114755
-0.00016077
-7.04661e-05
-9.99449e-05
-3.99149e-05
-4.98502e-05
-2.00704e-05
-1.22669e-05
-7.9388e-06
1.42406e-05
-1.23312e-06
3.16051e-05
1.69515e-06
4.1578e-05
2.18508e-06
4.49478e-05
1.41437e-06
4.19837e-05
4.15054e-07
3.18737e-05
1.36739e-05
-2.27215e-06
-8.5914e-06
-9.57037e-06
-5.85589e-06
-2.19649e-05
9.59858e-06
-3.95382e-05
3.42954e-05
-6.26175e-05
6.38823e-05
-9.16231e-05
9.74072e-05
-0.000126925
0.000133946
-0.000168122
0.000173291
-0.000213793
0.000213403
-0.00026152
0.000251644
-0.000308592
0.000284732
-0.000352574
0.000310371
-0.000391745
0.000327171
-0.00042507
0.000335009
-0.000452155
0.0003344
-0.000473099
0.000326505
-0.000488438
0.000312662
-0.000498979
0.000294381
-0.000505691
0.000272983
-0.000509538
0.00024965
-0.000511404
0.00022522
-0.000512012
0.000200323
-0.00051192
0.000175294
-0.000511517
0.000150343
-0.00051106
0.000125501
-0.000510701
0.000100766
-0.00051053
7.60532e-05
-0.000510593
5.12949e-05
-0.00051093
2.6386e-05
-0.00051158
1.25863e-06
-0.000512602
-2.41793e-05
-0.000514081
-4.99861e-05
-0.000516131
-7.62446e-05
-0.000518887
-0.000103018
-0.000522501
-0.000130402
-0.000527105
-0.000158486
-0.000532765
-0.00018739
-0.000539389
-0.000217214
-0.000546604
-0.000248019
-0.000553575
-0.000279717
-0.000558814
-0.000311922
-0.000560025
-0.000343709
-0.000554097
-0.000373346
-0.000537373
-0.000398035
-0.000506342
-0.000413862
-0.00045874
-0.000416121
-0.000394914
-0.000400251
-0.000318957
-0.000363393
-0.000238795
-0.000306385
-0.000164387
-0.000235175
-0.000103994
-0.000160332
-6.07305e-05
-9.31097e-05
-3.25516e-05
-4.04394e-05
-1.54173e-05
-2.89065e-06
-5.73502e-06
2.19292e-05
-9.44639e-07
3.67895e-05
7.86398e-07
4.32234e-05
8.42702e-07
4.19279e-05
2.99605e-07
3.24234e-05
1.39753e-05
-4.19643e-06
-4.41352e-06
-1.4965e-05
4.93938e-06
-3.14313e-05
2.60329e-05
-5.33224e-05
5.62059e-05
-8.0952e-05
9.14875e-05
-0.000114513
0.00013098
-0.000153899
0.000173312
-0.000197904
0.000217303
-0.000244397
0.000259881
-0.000290596
0.000297844
-0.000333937
0.000328061
-0.000372427
0.00034886
-0.000404893
0.000359625
-0.000430818
0.000360933
-0.000450333
0.000353905
-0.000464031
0.000340199
-0.000472868
0.000321491
-0.000477941
0.000299449
-0.000480353
0.000275387
-0.000481062
0.000250355
-0.000480837
0.000224989
-0.000480225
0.000199708
-0.000479584
0.00017465
-0.00047911
0.000149868
-0.000478893
0.000125283
-0.000478948
0.000100824
-0.000479257
7.63664e-05
-0.000479788
5.18337e-05
-0.00048052
2.71267e-05
-0.000481447
2.19704e-06
-0.000482593
-2.30205e-05
-0.000484013
-4.85511e-05
-0.000485801
-7.44406e-05
-0.000488089
-0.000100713
-0.000491048
-0.000127425
-0.000494879
-0.000154637
-0.000499795
-0.000182458
-0.00050597
-0.000211023
-0.000513464
-0.00024051
-0.000522079
-0.000271088
-0.00053116
-0.000302828
-0.000539334
-0.000335524
-0.000544268
-0.000368403
-0.000542547
-0.000399748
-0.000529888
-0.000426514
-0.000501861
-0.000444144
-0.000455246
-0.000446865
-0.000389851
-0.00042879
-0.000310189
-0.000386051
-0.000225821
-0.000319546
-0.000148932
-0.000237223
-8.90491e-05
-0.000152996
-4.85471e-05
-8.09442e-05
-2.3821e-05
-2.76217e-05
-9.84834e-06
7.9538e-06
-2.74351e-06
2.96795e-05
1.97146e-07
4.02814e-05
8.09326e-07
4.131e-05
3.97832e-07
3.28348e-05
1.4369e-05
-6.35102e-06
1.92105e-06
-2.06913e-05
1.93248e-05
-4.11164e-05
4.6425e-05
-6.70111e-05
8.21368e-05
-9.86108e-05
0.000123067
-0.000135722
0.000168118
-0.000177648
0.000215227
-0.000222464
0.000262139
-0.000267626
0.000305036
-0.000310355
0.000340588
-0.000348486
0.00036619
-0.000380555
0.000380942
-0.000405953
0.000385024
-0.000424712
0.000379702
-0.00043749
0.000366686
-0.000445309
0.000348027
-0.00044941
0.000325595
-0.000450989
0.000301037
-0.000451102
0.000275503
-0.000450541
0.000249801
-0.000449864
0.000224314
-0.000449385
0.000199233
-0.000449261
0.000174526
-0.000449518
0.000150126
-0.000450121
0.000125884
-0.000450995
0.000101695
-0.000452063
7.74281e-05
-0.000453252
5.30159e-05
-0.000454513
2.83781e-05
-0.000455816
3.49026e-06
-0.000457165
-2.16847e-05
-0.000458587
-4.71423e-05
-0.000460148
-7.2894e-05
-0.000461949
-9.89277e-05
-0.000464134
-0.000125256
-0.000466893
-0.000151894
-0.000470464
-0.000178902
-0.000475116
-0.000206384
-0.000481126
-0.000234514
-0.000488686
-0.00026354
-0.000497776
-0.000293749
-0.000507922
-0.000325387
-0.000517895
-0.000358436
-0.000525364
-0.000392284
-0.000526673
-0.000425207
-0.000516963
-0.000453855
-0.000490934
-0.000472894
-0.000444443
-0.000475282
-0.000376854
-0.000453641
-0.000293369
-0.000403032
-0.000205618
-0.000324972
-0.000128234
-0.000230377
-7.13257e-05
-0.000137847
-3.54237e-05
-6.35204e-05
-1.50009e-05
-1.24658e-05
-4.52415e-06
1.92046e-05
-3.08892e-08
3.57922e-05
1.09081e-06
4.01886e-05
6.2838e-07
3.33024e-05
1.49984e-05
-8.61499e-06
1.05061e-05
-2.64292e-05
3.71855e-05
-5.04879e-05
7.04315e-05
-7.98371e-05
0.000111519
-0.000114549
0.000157742
-0.000153946
0.000207535
-0.000196763
0.000258016
-0.000240564
0.00030595
-0.000282713
0.000347165
-0.000320698
0.000378578
-0.000352874
0.000398351
-0.000378336
0.000406405
-0.000397051
0.000403727
-0.000409581
0.000392233
-0.000417035
0.000374129
-0.000420705
0.000351696
-0.000421921
0.000326803
-0.000421794
0.000300908
-0.000421189
0.000274891
-0.000420651
0.000249261
-0.000420497
0.000224154
-0.000420833
0.000199569
-0.000421656
0.000175347
-0.000422882
0.000151354
-0.000424408
0.000127411
-0.000426119
0.00010341
-0.000427921
7.92348e-05
-0.000429734
5.48359e-05
-0.000431505
3.01569e-05
-0.0004332
5.19513e-06
-0.000434812
-2.00627e-05
-0.000436351
-4.55905e-05
-0.000437859
-7.13742e-05
-0.000439397
-9.73763e-05
-0.000441066
-0.000123574
-0.000443001
-0.000149945
-0.000445396
-0.000176496
-0.000448497
-0.000203271
-0.00045262
-0.000230381
-0.000458112
-0.000258038
-0.000465298
-0.000286556
-0.000474317
-0.000316361
-0.000484881
-0.000347867
-0.000495882
-0.000381278
-0.00050498
-0.000416106
-0.000508253
-0.000450579
-0.000500269
-0.000480875
-0.000474887
-0.000500661
-0.000427169
-0.00050136
-0.000356319
-0.000473885
-0.000268775
-0.000412522
-0.000178899
-0.000320255
-0.000103758
-0.000212991
-5.26248e-05
-0.000114653
-2.28387e-05
-4.22551e-05
-7.32676e-06
3.68977e-06
-4.84717e-07
2.89486e-05
1.4037e-06
3.82959e-05
9.02628e-07
3.38041e-05
1.58976e-05
-1.07635e-05
2.12445e-05
-3.16935e-05
5.81815e-05
-5.88278e-05
9.75155e-05
-9.08705e-05
0.000143613
-0.000127656
0.000194498
-0.000168003
0.000247918
-0.000210195
0.000300191
-0.000251543
0.000347323
-0.000289574
0.000385186
-0.000322197
0.000411221
-0.000348335
0.000424485
-0.00036764
0.000425725
-0.000380628
0.000416714
-0.000388308
0.000399925
-0.000392076
0.000377898
-0.000393304
0.000352934
-0.000393233
0.000326732
-0.000392757
0.00030044
-0.000392483
0.000274618
-0.000392704
0.000249487
-0.000393528
0.000224979
-0.000394908
0.000200951
-0.000396745
0.000177183
-0.000398898
0.000153508
-0.000401246
0.000129754
-0.000403667
0.000105829
-0.000406077
8.16392e-05
-0.000408404
5.71568e-05
-0.000410603
3.23483e-05
-0.000412644
7.22797e-06
-0.000414518
-1.81984e-05
-0.000416227
-4.38914e-05
-0.000417794
-6.98189e-05
-0.000419252
-9.59287e-05
-0.000420663
-0.000122175
-0.000422109
-0.00014851
-0.000423717
-0.000174899
-0.000425662
-0.000201336
-0.000428195
-0.000227857
-0.000431651
-0.000254591
-0.000436447
-0.000281767
-0.000443016
-0.000309798
-0.000451665
-0.000339224
-0.000462266
-0.000370681
-0.000473821
-0.000404555
-0.000483898
-0.000440503
-0.000488228
-0.000476546
-0.000480709
-0.000508178
-0.000454383
-0.000527684
-0.000403714
-0.000524551
-0.000328298
-0.000487941
-0.000236708
-0.000411845
-0.000146879
-0.000302821
-7.76141e-05
-0.00018391
-3.48907e-05
-8.49761e-05
-1.2225e-05
-1.8974e-05
-1.80816e-06
1.85333e-05
1.42279e-06
3.50654e-05
1.1115e-06
3.41194e-05
1.70095e-05
-1.26552e-05
3.38604e-05
-3.61869e-05
8.17761e-05
-6.57057e-05
0.000126965
-9.95675e-05
0.00017752
-0.000137331
0.000232214
-0.000177372
0.000287986
-0.000217699
0.000340483
-0.0002556
0.00038524
-0.000288944
0.000418505
-0.00031613
0.000438415
-0.000336646
0.000444983
-0.000350667
0.00043975
-0.000359175
0.000425208
-0.000363472
0.000404223
-0.000365061
0.000379475
-0.000365219
0.000353092
-0.000364977
0.00032648
-0.000364958
0.00030042
-0.000365516
0.000275168
-0.000366731
0.000250702
-0.000368568
0.000226812
-0.000370891
0.000203275
-0.000373562
0.000179851
-0.000376429
0.000156378
-0.000379381
0.000132707
-0.000382313
0.000108766
-0.00038516
8.44893e-05
-0.000387863
5.98664e-05
-0.000390393
3.48833e-05
-0.000392721
9.56492e-06
-0.000394843
-1.60686e-05
-0.000396755
-4.19706e-05
-0.000398468
-6.80965e-05
-0.000399999
-9.43874e-05
-0.000401382
-0.000120783
-0.00040266
-0.000147223
-0.000403904
-0.000173646
-0.000405215
-0.000200016
-0.000406756
-0.000226308
-0.000408763
-0.000252576
-0.00041159
-0.000278935
-0.000415697
-0.000305687
-0.000421628
-0.000333289
-0.000429831
-0.000362475
-0.000440336
-0.000394049
-0.000452181
-0.000428656
-0.000462765
-0.000465962
-0.000467292
-0.000503649
-0.00045887
-0.000536106
-0.000429713
-0.000553704
-0.000374066
-0.00054359
-0.000292793
-0.000493124
-0.000197943
-0.000397677
-0.000111764
-0.000270092
-5.2474e-05
-0.000144262
-1.99798e-05
-5.14688e-05
-4.4992e-06
3.04898e-06
9.18835e-07
2.96459e-05
1.18556e-06
3.38519e-05
1.81931e-05
-1.40856e-05
4.79151e-05
-3.95286e-05
0.0001073
-7.06264e-05
0.000158
-0.000105383
0.00021234
-0.00014308
0.000269872
-0.000181762
0.000326711
-0.000219336
0.000378035
-0.000253254
0.000419188
-0.000281812
0.00044705
-0.000303916
0.000460542
-0.00031958
0.00046064
-0.000329423
0.000449611
-0.000334758
0.00043054
-0.000337011
0.000406491
-0.000337628
0.000380091
-0.000337679
0.000353154
-0.000337933
0.000326734
-0.000338752
0.000301248
-0.000340283
0.000276699
-0.000342459
0.000252884
-0.000345167
0.000229519
-0.000348234
0.000206345
-0.000351524
0.000183139
-0.000354899
0.000159755
-0.000358273
0.000136077
-0.00036156
0.000112052
-0.000364717
8.76408e-05
-0.000367696
6.28419e-05
-0.000370477
3.76577e-05
-0.000373036
1.21184e-05
-0.000375368
-1.37443e-05
-0.000377466
-3.98803e-05
-0.000379336
-6.62344e-05
-0.000380986
-9.27458e-05
-0.000382434
-0.000119342
-0.000383703
-0.000145963
-0.000384828
-0.000172527
-0.000385862
-0.000198991
-0.000386891
-0.000225285
-0.000388054
-0.00025142
-0.000389586
-0.000277408
-0.000391843
-0.000303434
-0.000395347
-0.000329788
-0.000400727
-0.000357097
-0.000408577
-0.000386202
-0.000419019
-0.000418215
-0.000431068
-0.000453915
-0.000441761
-0.000492955
-0.000445589
-0.000532279
-0.000434666
-0.000564621
-0.000400494
-0.00057776
-0.0003377
-0.000555914
-0.000249817
-0.000485567
-0.000154132
-0.000365777
-7.68686e-05
-0.000221526
-3.10597e-05
-9.72636e-05
-8.87894e-06
-1.91394e-05
-2.32591e-07
2.10047e-05
1.09142e-06
3.25269e-05
1.92862e-05
-1.49865e-05
6.2857e-05
-4.16009e-05
0.000133986
-7.34641e-05
0.000189784
-0.000108238
0.000247165
-0.00014496
0.00030654
-0.000181478
0.000363259
-0.000215751
0.00041227
-0.000245512
0.000448966
-0.000269518
0.000471029
-0.000287154
0.000478189
-0.000298885
0.00047235
-0.000305663
0.000456395
-0.00030898
0.000433839
-0.000310232
0.000407745
-0.000310696
0.000380541
-0.000311183
0.000353642
-0.000312212
0.000327752
-0.000313925
0.000302962
-0.000316329
0.000279095
-0.000319273
0.00025583
-0.000322619
0.000232859
-0.000326194
0.000209922
-0.000329886
0.000186829
-0.000333583
0.000163455
-0.000337225
0.000139717
-0.000340747
0.000115578
-0.000344119
9.10147e-05
-0.000347303
6.60316e-05
-0.000350284
4.06425e-05
-0.000353038
1.48788e-05
-0.000355559
-1.12178e-05
-0.000357836
-3.75966e-05
-0.000359872
-6.41916e-05
-0.000361669
-9.09422e-05
-0.000363239
-0.000117765
-0.000364594
-0.000144601
-0.000365755
-0.000171359
-0.000366745
-0.000197995
-0.000367606
-0.000224419
-0.0003684
-0.000250621
-0.000369256
-0.000276547
-0.000370393
-0.000302294
-0.000372193
-0.000327984
-0.000375223
-0.000354066
-0.00038023
-0.000381195
-0.000387907
-0.000410536
-0.000398448
-0.000443376
-0.000410657
-0.000480744
-0.000421016
-0.000521923
-0.00042298
-0.000562652
-0.000407575
-0.000593168
-0.000365828
-0.000597652
-0.00029392
-0.000557489
-0.00020002
-0.000459672
-0.000108574
-0.000312994
-4.62144e-05
-0.000159597
-1.50058e-05
-5.03599e-05
-2.12528e-06
8.12786e-06
8.51894e-07
2.95446e-05
2.01387e-05
-1.52505e-05
7.80745e-05
-4.22378e-05
0.00016106
-7.40605e-05
0.00022154
-0.000108055
0.000281227
-0.000143065
0.00034151
-0.000176875
0.000397115
-0.000207604
0.000442975
-0.000233331
0.000474726
-0.000253259
0.000490943
-0.000267189
0.000492144
-0.000275938
0.000481092
-0.000280662
0.000461139
-0.000282888
0.000436061
-0.000283875
0.000408749
-0.000284674
0.000381338
-0.000285842
0.000354823
-0.000287684
0.000329593
-0.000290191
0.000305479
-0.000293288
0.00028219
-0.00029679
0.00025934
-0.000300567
0.000236635
-0.000304469
0.000213828
-0.000308414
0.000190772
-0.000312316
0.000167359
-0.000316137
0.000143536
-0.000319827
0.000119268
-0.000323365
9.45489e-05
-0.000326717
6.93809e-05
-0.000329866
4.3787e-05
-0.000332787
1.77962e-05
-0.000335471
-8.53945e-06
-0.000337902
-3.51704e-05
-0.000340081
-6.20184e-05
-0.000342006
-8.90236e-05
-0.000343687
-0.000116089
-0.000345134
-0.000143161
-0.000346364
-0.000170134
-0.000347391
-0.000196974
-0.000348238
-0.000223575
-0.000348928
-0.000249936
-0.000349519
-0.000275958
-0.000350113
-0.000301703
-0.00035094
-0.00032716
-0.000352392
-0.000352616
-0.000355122
-0.000378465
-0.000359971
-0.000405687
-0.00036776
-0.00043559
-0.000378602
-0.0004699
-0.000390934
-0.000509595
-0.00040028
-0.000553301
-0.00039881
-0.00059464
-0.000376382
-0.000620069
-0.000324331
-0.000609544
-0.000242206
-0.000541798
-0.000145666
-0.000409546
-6.64907e-05
-0.000238768
-2.2944e-05
-9.38921e-05
-4.87638e-06
-9.94631e-06
4.87745e-07
2.418e-05
2.06287e-05
-1.49143e-05
9.29432e-05
-4.15285e-05
0.000187747
-7.25937e-05
0.000252525
-0.000105149
0.000313835
-0.000137907
0.000374212
-0.000168695
0.000427933
-0.000195864
0.000470104
-0.000217857
0.000496738
-0.000234275
0.000507331
-0.00024526
0.000503141
-0.00025187
0.000487677
-0.000255339
0.000464615
-0.00025712
0.000437823
-0.000258275
0.000409907
-0.00025962
0.000382667
-0.000261491
0.000356695
-0.000264036
0.000332126
-0.000267152
0.000308595
-0.000270729
0.000285758
-0.000274585
0.000263197
-0.000278615
0.000240657
-0.000282697
0.000217912
-0.000286781
0.000194852
-0.000290803
0.000171383
-0.000294741
0.000147471
-0.000298553
0.000123083
-0.000302223
9.82195e-05
-0.000305716
7.28779e-05
-0.000309016
4.70886e-05
-0.000312091
2.0876e-05
-0.000314929
-5.69754e-06