/*--------------------------------*- C++ -*----------------------------------*\
| =========                 |                                                 |
| \\      /  F ield         | OpenFOAM: The Open Source CFD Toolbox           |
|  \\    /   O peration     | Version:  2406                                  |
|   \\  /    A nd           | Website:  www.openfoam.com                      |
|    \\/     M anipulation  |                                                 |
\*---------------------------------------------------------------------------*/
FoamFile
{
    version     2.0;
    format      ascii;
    arch        "LSB;label=32;scalar=64";
    class       volVectorField;
    location    "26.15";
    object      U;
}
// * * * * * * * * * * * * * * * * * * * * * * * * * * * * * * * * * * * * * //

dimensions      [0 1 -1 0 0 0 0];

internalField   nonuniform List<vector> 
3600
(
(3.21831e-05 -3.23887e-05 0)
(0.000255969 -0.00010413 0)
(0.000608575 -0.000130172 0)
(0.000957603 -0.000128305 0)
(0.0012908 -0.000113851 0)
(0.00155158 -9.48375e-05 0)
(0.00175839 -7.8269e-05 0)
(0.00189179 -6.31028e-05 0)
(0.00196676 -5.08213e-05 0)
(0.00196806 -3.65761e-05 0)
(0.00188881 -1.92603e-05 0)
(0.00170143 5.82158e-06 0)
(0.00137698 3.91986e-05 0)
(0.000877428 8.37624e-05 0)
(0.000160966 0.000139898 0)
(-0.000817628 0.000210509 0)
(-0.00210976 0.000296829 0)
(-0.00376592 0.000400976 0)
(-0.0058371 0.000522032 0)
(-0.00836134 0.000657454 0)
(-0.0113629 0.000801034 0)
(-0.0148361 0.000946289 0)
(-0.0187422 0.00108641 0)
(-0.022993 0.00121446 0)
(-0.0274496 0.00131832 0)
(-0.031916 0.00137873 0)
(-0.0361505 0.0013694 0)
(-0.039875 0.0012635 0)
(-0.0427999 0.00104018 0)
(-0.0446433 0.000691481 0)
(-0.0451619 0.000224544 0)
(-0.0441687 -0.000337332 0)
(-0.0415598 -0.000957246 0)
(-0.0373241 -0.00158676 0)
(-0.031564 -0.00217055 0)
(-0.0244912 -0.0026504 0)
(-0.016436 -0.00297194 0)
(-0.00782082 -0.00309115 0)
(0.000849697 -0.00298253 0)
(0.0090483 -0.00264586 0)
(0.0162543 -0.00211075 0)
(0.0220397 -0.00143672 0)
(0.0260946 -0.000705504 0)
(0.0283052 -8.65013e-06 0)
(0.0287291 0.000572986 0)
(0.0276246 0.000984694 0)
(0.0253471 0.00121162 0)
(0.0223388 0.0012733 0)
(0.0189861 0.00121441 0)
(0.0156439 0.00108255 0)
(0.0125159 0.000920544 0)
(0.00976289 0.00075491 0)
(0.00739713 0.000605286 0)
(0.00544986 0.000477068 0)
(0.00383153 0.000378479 0)
(0.00253466 0.000299482 0)
(0.00145938 0.000238684 0)
(0.000645553 0.000155804 0)
(0.000102457 5.19761e-05 0)
(-7.71835e-05 -8.3134e-05 0)
(0.000105594 -0.000256183 0)
(0.000551843 -0.000548622 0)
(0.00117838 -0.000641411 0)
(0.00176578 -0.000606185 0)
(0.00228309 -0.000508209 0)
(0.002629 -0.000373045 0)
(0.00280864 -0.000232702 0)
(0.00277583 -8.1273e-05 0)
(0.00252639 7.65953e-05 0)
(0.0020114 0.000265109 0)
(0.00118196 0.000494525 0)
(-4.55364e-05 0.000789481 0)
(-0.00176702 0.00115761 0)
(-0.00409382 0.00161336 0)
(-0.0071456 0.00215933 0)
(-0.0110401 0.00280341 0)
(-0.0158918 0.00354232 0)
(-0.0217876 0.0043686 0)
(-0.0287777 0.00525715 0)
(-0.0368404 0.00617139 0)
(-0.0458688 0.00705582 0)
(-0.0556427 0.0078406 0)
(-0.0658383 0.0084375 0)
(-0.0760373 0.00875131 0)
(-0.0857726 0.00868989 0)
(-0.0945605 0.00818291 0)
(-0.10195 0.00718998 0)
(-0.107545 0.00570867 0)
(-0.111028 0.0037716 0)
(-0.112162 0.001446 0)
(-0.110803 -0.00117353 0)
(-0.106886 -0.00396663 0)
(-0.10044 -0.00679415 0)
(-0.0915807 -0.00949949 0)
(-0.0805227 -0.0119171 0)
(-0.0675746 -0.0138776 0)
(-0.0531549 -0.0152227 0)
(-0.0377707 -0.0158179 0)
(-0.0220257 -0.0155753 0)
(-0.00656913 -0.0144698 0)
(0.00791193 -0.0125586 0)
(0.0207803 -0.00998608 0)
(0.0314615 -0.00697724 0)
(0.0395536 -0.00381458 0)
(0.0448132 -0.000796414 0)
(0.0472553 0.00180728 0)
(0.0470766 0.00380556 0)
(0.04472 0.00510988 0)
(0.0407106 0.00574588 0)
(0.0356922 0.00582214 0)
(0.0302017 0.00549927 0)
(0.0247561 0.00493572 0)
(0.0196316 0.00427456 0)
(0.0150745 0.0036082 0)
(0.0110833 0.00300941 0)
(0.0077282 0.00247837 0)
(0.00488791 0.00201444 0)
(0.00265057 0.00149191 0)
(0.000980829 0.000891741 0)
(9.49845e-05 0.000126182 0)
(0.000133934 -0.000612848 0)
(0.000638448 -0.00117296 0)
(0.00130352 -0.00132049 0)
(0.00185952 -0.00119009 0)
(0.00226039 -0.000921266 0)
(0.00238009 -0.000553611 0)
(0.00219946 -0.000151341 0)
(0.0016443 0.000302812 0)
(0.000670159 0.000806381 0)
(-0.000817689 0.00141603 0)
(-0.00293069 0.00216304 0)
(-0.00581844 0.00310405 0)
(-0.00965236 0.00426087 0)
(-0.0146116 0.00566147 0)
(-0.0208759 0.00730447 0)
(-0.0285933 0.00918545 0)
(-0.0378676 0.0112642 0)
(-0.0487064 0.013473 0)
(-0.0609987 0.0156925 0)
(-0.0744713 0.0177635 0)
(-0.0887087 0.0194868 0)
(-0.103175 0.020659 0)
(-0.117293 0.0210983 0)
(-0.130495 0.0206805 0)
(-0.142287 0.0193449 0)
(-0.15226 0.0170962 0)
(-0.160109 0.0139887 0)
(-0.165608 0.0101173 0)
(-0.16861 0.00560295 0)
(-0.169015 0.000591082 0)
(-0.166779 -0.00475532 0)
(-0.161886 -0.0102508 0)
(-0.154374 -0.0156907 0)
(-0.14432 -0.020846 0)
(-0.131874 -0.0254705 0)
(-0.117252 -0.029303 0)
(-0.100774 -0.0320884 0)
(-0.0828489 -0.0335939 0)
(-0.0640041 -0.033646 0)
(-0.0448454 -0.0321568 0)
(-0.0260621 -0.0291618 0)
(-0.00834794 -0.0248317 0)
(0.0076096 -0.0194777 0)
(0.0212395 -0.0135211 0)
(0.0320775 -0.00744774 0)
(0.0398792 -0.00174442 0)
(0.0445579 0.00316923 0)
(0.0462913 0.00699227 0)
(0.0453959 0.00958442 0)
(0.0424224 0.0109678 0)
(0.0379377 0.0113108 0)
(0.0326172 0.0108677 0)
(0.0269538 0.00992938 0)
(0.0214421 0.00874783 0)
(0.0162752 0.00752893 0)
(0.011699 0.00635489 0)
(0.00766676 0.0052477 0)
(0.00437324 0.00403348 0)
(0.00176794 0.00261417 0)
(0.000261833 0.000799142 0)
(0.000134236 -0.000959195 0)
(0.000579287 -0.00172727 0)
(0.00109515 -0.00185072 0)
(0.00139999 -0.00152878 0)
(0.0014327 -0.000982535 0)
(0.00105426 -0.000253405 0)
(0.000209968 0.000568222 0)
(-0.0012093 0.00152381 0)
(-0.00330928 0.00262302 0)
(-0.00624589 0.00396614 0)
(-0.0102112 0.00561175 0)
(-0.0154252 0.00764922 0)
(-0.0221279 0.0101064 0)
(-0.030534 0.0130053 0)
(-0.0408215 0.0163055 0)
(-0.0530623 0.0199352 0)
(-0.0671982 0.0237399 0)
(-0.0829733 0.0274991 0)
(-0.0999534 0.0309127 0)
(-0.117547 0.0336616 0)
(-0.135113 0.0354504 0)
(-0.152029 0.036071 0)
(-0.167777 0.0354112 0)
(-0.181948 0.0334568 0)
(-0.194252 0.0302599 0)
(-0.204481 0.0259227 0)
(-0.212497 0.0205705 0)
(-0.218195 0.0143474 0)
(-0.221501 0.00740469 0)
(-0.222347 -9.15686e-05 0)
(-0.220678 -0.00796261 0)
(-0.216441 -0.0160035 0)
(-0.209605 -0.0239824 0)
(-0.200155 -0.0316281 0)
(-0.188125 -0.0386352 0)
(-0.173603 -0.0446627 0)
(-0.156771 -0.0493572 0)
(-0.137912 -0.052373 0)
(-0.117447 -0.0534211 0)
(-0.0959154 -0.0523089 0)
(-0.0739966 -0.0489989 0)
(-0.0524339 -0.0436353 0)
(-0.0320175 -0.0365648 0)
(-0.0134614 -0.0283027 0)
(0.00261018 -0.0194804 0)
(0.0157842 -0.0107589 0)
(0.0257969 -0.00274851 0)
(0.0326302 0.00405909 0)
(0.0363831 0.00933822 0)
(0.0373951 0.0129519 0)
(0.0360663 0.0149567 0)
(0.0330028 0.0155736 0)
(0.0287288 0.0151368 0)
(0.0238749 0.0140116 0)
(0.0188019 0.0125344 0)
(0.0139563 0.0109158 0)
(0.00942464 0.00923742 0)
(0.00555562 0.00733764 0)
(0.00234013 0.00499753 0)
(0.000386744 0.00186678 0)
(0.000114104 -0.00127782 0)
(0.000402 -0.00215076 0)
(0.000613376 -0.00213861 0)
(0.000485995 -0.00150233 0)
(-6.34221e-05 -0.000541851 0)
(-0.00118044 0.000714509 0)
(-0.0029707 0.00216108 0)
(-0.00558501 0.00387994 0)
(-0.00920959 0.00590594 0)
(-0.0140697 0.00839298 0)
(-0.020443 0.0114266 0)
(-0.0286003 0.0151156 0)
(-0.0388076 0.0194637 0)
(-0.0512324 0.0244359 0)
(-0.0659304 0.0298763 0)
(-0.0827424 0.0355463 0)
(-0.101304 0.0410786 0)
(-0.121027 0.046048 0)
(-0.141232 0.0500167 0)
(-0.161221 0.0526394 0)
(-0.180407 0.0536907 0)
(-0.198319 0.0530853 0)
(-0.214637 0.0508372 0)
(-0.229129 0.0470385 0)
(-0.241654 0.0418178 0)
(-0.252109 0.0353294 0)
(-0.260436 0.0277298 0)
(-0.266582 0.0191818 0)
(-0.27051 0.00984485 0)
(-0.272171 -0.000111248 0)
(-0.271517 -0.0105072 0)
(-0.268475 -0.021135 0)
(-0.26297 -0.0317545 0)
(-0.254909 -0.0420736 0)
(-0.244215 -0.0517491 0)
(-0.230826 -0.0603769 0)
(-0.214749 -0.0675126 0)
(-0.196077 -0.072688 0)
(-0.175048 -0.075468 0)
(-0.152063 -0.0755025 0)
(-0.12773 -0.0726114 0)
(-0.102823 -0.0668402 0)
(-0.0782628 -0.0585136 0)
(-0.0549825 -0.048215 0)
(-0.0338581 -0.0367325 0)
(-0.0155367 -0.0249333 0)
(-0.00044954 -0.013647 0)
(0.0112742 -0.00355882 0)
(0.0196486 0.00483643 0)
(0.0249098 0.0112576 0)
(0.0273301 0.0156294 0)
(0.0273925 0.0180826 0)
(0.02554 0.0189069 0)
(0.0224025 0.0185047 0)
(0.0184059 0.0172865 0)
(0.0141284 0.0155844 0)
(0.00978605 0.0135443 0)
(0.00588376 0.011056 0)
(0.00250778 0.00776631 0)
(0.000419303 0.00315587 0)
(7.59681e-05 -0.00146221 0)
(0.000108253 -0.00224442 0)
(-0.000145152 -0.00193445 0)
(-0.00089093 -0.000829791 0)
(-0.00224184 0.000709685 0)
(-0.00434485 0.00269047 0)
(-0.00737578 0.00501017 0)
(-0.0115348 0.00780917 0)
(-0.0171045 0.0111579 0)
(-0.024375 0.0152609 0)
(-0.0336902 0.0202081 0)
(-0.0453149 0.0260814 0)
(-0.0594495 0.0327904 0)
(-0.0760816 0.0401491 0)
(-0.0950003 0.0477842 0)
(-0.115709 0.0552161 0)
(-0.137544 0.0618728 0)
(-0.15973 0.0672355 0)
(-0.181569 0.0708972 0)
(-0.202463 0.0726328 0)
(-0.221989 0.0723621 0)
(-0.239836 0.0701335 0)
(-0.255821 0.0660648 0)
(-0.269826 0.0603251 0)
(-0.281811 0.0530962 0)
(-0.291766 0.0445686 0)
(-0.299725 0.0349196 0)
(-0.305722 0.0243202 0)
(-0.3098 0.0129252 0)
(-0.311977 0.000889251 0)
(-0.312252 -0.0116338 0)
(-0.310571 -0.0244664 0)
(-0.306845 -0.0374012 0)
(-0.300926 -0.0501722 0)
(-0.292631 -0.0624485 0)
(-0.281737 -0.0738116 0)
(-0.268035 -0.0837646 0)
(-0.25135 -0.0917374 0)
(-0.231628 -0.0971378 0)
(-0.208981 -0.0994072 0)
(-0.183781 -0.098127 0)
(-0.156679 -0.0931124 0)
(-0.128636 -0.0845221 0)
(-0.10081 -0.0728929 0)
(-0.0744485 -0.0591205 0)
(-0.0506427 -0.0443159 0)
(-0.0302024 -0.0296238 0)
(-0.0134915 -0.0160194 0)
(-0.000566344 -0.00421339 0)
(0.00881737 0.00537906 0)
(0.0149439 0.0125799 0)
(0.0182609 0.0174384 0)
(0.0191532 0.0201672 0)
(0.0182016 0.0211445 0)
(0.0158293 0.0207848 0)
(0.0126664 0.0194936 0)
(0.0090253 0.0174552 0)
(0.00552518 0.0146136 0)
(0.0023689 0.0104929 0)
(0.000391232 0.00443164 0)
(1.87679e-05 -0.00149782 0)
(-0.000303947 -0.00194238 0)
(-0.00117635 -0.00113966 0)
(-0.00271455 0.000610989 0)
(-0.00507194 0.00292355 0)
(-0.00839471 0.00586676 0)
(-0.0129489 0.00936356 0)
(-0.0189853 0.0136261 0)
(-0.0268841 0.0187606 0)
(-0.0369682 0.0249972 0)
(-0.0495906 0.0323777 0)
(-0.06491 0.0408742 0)
(-0.0829403 0.0501994 0)
(-0.103368 0.0599169 0)
(-0.12566 0.0693856 0)
(-0.149033 0.077929 0)
(-0.172686 0.0849051 0)
(-0.195845 0.0898588 0)
(-0.217915 0.0925205 0)
(-0.238428 0.0928188 0)
(-0.257089 0.0908082 0)
(-0.273701 0.0866492 0)
(-0.288199 0.0805486 0)
(-0.300581 0.0727491 0)
(-0.310935 0.0634876 0)
(-0.319377 0.0529943 0)
(-0.326064 0.0414663 0)
(-0.33114 0.0290777 0)
(-0.334747 0.0159678 0)
(-0.336982 0.00226129 0)
(-0.337907 -0.0119326 0)
(-0.337511 -0.0264915 0)
(-0.335727 -0.0412723 0)
(-0.332391 -0.0560762 0)
(-0.327265 -0.0706357 0)
(-0.320012 -0.0845789 0)
(-0.310237 -0.0974232 0)
(-0.297498 -0.108559 0)
(-0.28139 -0.11728 0)
(-0.26161 -0.122825 0)
(-0.238097 -0.12448 0)
(-0.211117 -0.121701 0)
(-0.181395 -0.114285 0)
(-0.150091 -0.102489 0)
(-0.118754 -0.0871206 0)
(-0.0890476 -0.0694547 0)
(-0.0624785 -0.0510355 0)
(-0.0400246 -0.0333361 0)
(-0.0220776 -0.0174982 0)
(-0.00844412 -0.00418953 0)
(0.00128484 0.0063037 0)
(0.00768388 0.014003 0)
(0.0112145 0.0190872 0)
(0.0124663 0.0219179 0)
(0.0118679 0.0228844 0)
(0.0100578 0.0224212 0)
(0.00741305 0.0207172 0)
(0.00461358 0.0177512 0)
(0.00196963 0.0129542 0)
(0.000309291 0.00557365 0)
(-6.40953e-05 -0.00127361 0)
(-0.000856006 -0.00104756 0)
(-0.00251155 0.000481425 0)
(-0.00502 0.00308055 0)
(-0.00858949 0.0063893 0)
(-0.0133641 0.0105703 0)
(-0.0197165 0.0155924 0)
(-0.0279381 0.0217395 0)
(-0.0384855 0.0291297 0)
(-0.0516507 0.0379584 0)
(-0.067704 0.0481297 0)
(-0.0865795 0.0593975 0)
(-0.108004 0.0711861 0)
(-0.131324 0.0827756 0)
(-0.155746 0.0933196 0)
(-0.180343 0.102082 0)
(-0.204319 0.108491 0)
(-0.226971 0.112242 0)
(-0.247816 0.113227 0)
(-0.266497 0.111527 0)
(-0.282849 0.107336 0)
(-0.296818 0.100938 0)
(-0.308499 0.0926454 0)
(-0.318052 0.0827822 0)
(-0.32572 0.0716397 0)
(-0.331749 0.0594759 0)
(-0.336411 0.04649 0)
(-0.339935 0.0328392 0)
(-0.342536 0.0186281 0)
(-0.344366 0.00393462 0)
(-0.345543 -0.0111918 0)
(-0.346104 -0.0266997 0)
(-0.346029 -0.0425305 0)
(-0.345194 -0.0585818 0)
(-0.343387 -0.0746931 0)
(-0.340257 -0.0906019 0)
(-0.335338 -0.105923 0)
(-0.328023 -0.120107 0)
(-0.317626 -0.132439 0)
(-0.30343 -0.142044 0)
(-0.284829 -0.147955 0)
(-0.26147 -0.149226 0)
(-0.23347 -0.145125 0)
(-0.201545 -0.135342 0)
(-0.167121 -0.12022 0)
(-0.132192 -0.100847 0)
(-0.099042 -0.0789922 0)
(-0.0696826 -0.0567352 0)
(-0.0454233 -0.0359892 0)
(-0.0265728 -0.0180414 0)
(-0.01274 -0.00349132 0)
(-0.00312868 0.0076311 0)
(0.00298174 0.0155386 0)
(0.00633637 0.020641 0)
(0.00746125 0.0233319 0)
(0.0070244 0.024062 0)
(0.00546629 0.0230079 0)
(0.00348723 0.0201597 0)
(0.00148352 0.0148969 0)
(0.000216551 0.00644335 0)
(-0.000173945 -0.000754055 0)
(-0.00154702 0.000522098 0)
(-0.00413694 0.00302954 0)
(-0.00777082 0.00669165 0)
(-0.0127293 0.0112415 0)
(-0.0191511 0.0169661 0)
(-0.0275224 0.0238918 0)
(-0.0381453 0.0323511 0)
(-0.0515037 0.0424201 0)
(-0.0677666 0.0541654 0)
(-0.0870205 0.0672456 0)
(-0.108885 0.0811042 0)
(-0.132775 0.0948504 0)
(-0.157754 0.107541 0)
(-0.182892 0.118251 0)
(-0.207231 0.126312 0)
(-0.230039 0.131303 0)
(-0.250706 0.133094 0)
(-0.268884 0.131759 0)
(-0.284371 0.127557 0)
(-0.297201 0.120845 0)
(-0.307513 0.112042 0)
(-0.315598 0.101563 0)
(-0.321772 0.0897927 0)
(-0.326405 0.0770473 0)
(-0.329821 0.0635814 0)
(-0.332344 0.0495691 0)
(-0.334223 0.0351313 0)
(-0.335687 0.0203283 0)
(-0.336895 0.00519082 0)
(-0.337981 -0.0102845 0)
(-0.339012 -0.0261051 0)
(-0.340023 -0.0422836 0)
(-0.340965 -0.0588061 0)
(-0.341718 -0.0756238 0)
(-0.342034 -0.0926102 0)
(-0.341529 -0.109536 0)
(-0.339627 -0.12601 0)
(-0.33557 -0.14145 0)
(-0.328415 -0.155035 0)
(-0.317129 -0.165716 0)
(-0.300716 -0.172272 0)
(-0.278467 -0.17346 0)
(-0.250213 -0.16825 0)
(-0.216627 -0.156152 0)
(-0.179353 -0.137526 0)
(-0.140951 -0.113801 0)
(-0.104423 -0.0873412 0)
(-0.0724969 -0.0609633 0)
(-0.0467917 -0.0370961 0)
(-0.0275719 -0.0172083 0)
(-0.0140248 -0.00167266 0)
(-0.00506108 0.00973912 0)
(0.000413172 0.0175822 0)
(0.00318483 0.0223507 0)
(0.00404447 0.0245597 0)
(0.00353338 0.024398 0)
(0.00236769 0.0218646 0)
(0.00100847 0.0163381 0)
(0.00013034 0.00707167 0)
(-0.000317744 0.00018386 0)
(-0.00239098 0.00295998 0)
(-0.0060603 0.00671678 0)
(-0.0109594 0.0116679 0)
(-0.0174588 0.0177225 0)
(-0.0256835 0.0253131 0)
(-0.036224 0.0345157 0)
(-0.0493413 0.0456566 0)
(-0.0654753 0.0586828 0)
(-0.0845743 0.0734197 0)
(-0.106465 0.0891896 0)
(-0.130423 0.105093 0)
(-0.155601 0.119976 0)
(-0.180881 0.132789 0)
(-0.205296 0.142653 0)
(-0.227923 0.149049 0)
(-0.248145 0.151755 0)
(-0.265502 0.150863 0)
(-0.279863 0.146672 0)
(-0.291261 0.139652 0)
(-0.299973 0.130327 0)
(-0.306349 0.119237 0)
(-0.310844 0.106856 0)
(-0.313873 0.0935849 0)
(-0.315857 0.0797154 0)
(-0.317123 0.0654588 0)
(-0.317968 0.0509355 0)
(-0.318596 0.0362132 0)
(-0.319191 0.0213032 0)
(-0.319868 0.00619428 0)
(-0.320739 -0.00915424 0)
(-0.321868 -0.0247857 0)
(-0.323321 -0.0407549 0)
(-0.325114 -0.0571045 0)
(-0.32724 -0.0738669 0)
(-0.329599 -0.0910327 0)
(-0.331999 -0.108532 0)
(-0.334062 -0.12618 0)
(-0.335205 -0.143625 0)
(-0.33456 -0.160271 0)
(-0.330994 -0.175224 0)
(-0.323144 -0.187254 0)
(-0.309606 -0.194851 0)
(-0.2892 -0.196382 0)
(-0.261387 -0.190411 0)
(-0.226663 -0.176135 0)
(-0.18689 -0.153887 0)
(-0.145224 -0.125461 0)
(-0.105578 -0.0940298 0)
(-0.0714708 -0.0633239 0)
(-0.0449043 -0.0364502 0)
(-0.0258756 -0.0149109 0)
(-0.0131517 0.00118101 0)
(-0.00515749 0.0125317 0)
(-0.000639224 0.0198676 0)
(0.00147896 0.0238841 0)
(0.00192771 0.0248625 0)
(0.00147984 0.0228463 0)
(0.000659471 0.0172701 0)
(7.69684e-05 0.00746184 0)
(-0.000491269 0.00158403 0)
(-0.00336183 0.00633298 0)
(-0.00821885 0.0116045 0)
(-0.014476 0.0180631 0)
(-0.0226095 0.0258835 0)
(-0.0327125 0.0356465 0)
(-0.0454532 0.0474457 0)
(-0.0609829 0.0615158 0)
(-0.0796198 0.0775726 0)
(-0.101014 0.0950996 0)
(-0.124708 0.113042 0)
(-0.149663 0.130191 0)
(-0.174863 0.145237 0)
(-0.199101 0.157137 0)
(-0.221464 0.165159 0)
(-0.241134 0.169005 0)
(-0.257697 0.168717 0)
(-0.27094 0.164664 0)
(-0.281025 0.157403 0)
(-0.288251 0.147606 0)
(-0.293131 0.135929 0)
(-0.296158 0.122966 0)
(-0.297871 0.109185 0)
(-0.29869 0.0949377 0)
(-0.299002 0.0804443 0)
(-0.299054 0.0658405 0)
(-0.299063 0.051177 0)
(-0.299139 0.0364656 0)
(-0.299389 0.0216767 0)
(-0.299857 0.00677321 0)
(-0.30061 -0.00829999 0)
(-0.301682 -0.0235935 0)
(-0.303142 -0.0391685 0)
(-0.305037 -0.0550808 0)
(-0.307436 -0.0713934 0)
(-0.310366 -0.0881582 0)
(-0.313822 -0.105413 0)
(-0.317681 -0.123143 0)
(-0.321666 -0.14124 0)
(-0.325232 -0.159418 0)
(-0.327509 -0.17712 0)
(-0.327225 -0.19341 0)
(-0.322751 -0.2069 0)
(-0.312249 -0.215761 0)
(-0.294028 -0.217895 0)
(-0.267051 -0.21133 0)
(-0.231561 -0.194832 0)
(-0.189573 -0.168636 0)
(-0.144941 -0.135027 0)
(-0.102603 -0.0981991 0)
(-0.0670086 -0.0631256 0)
(-0.0403671 -0.0335521 0)
(-0.0222604 -0.0109474 0)
(-0.0108069 0.00518599 0)
(-0.00411873 0.0158737 0)
(-0.000624809 0.0221649 0)
(0.000738676 0.0245797 0)
(0.000898094 0.0232985 0)
(0.000467735 0.0178782 0)
(5.92846e-05 0.00774195 0)
(-0.000696813 0.00356066 0)
(-0.00444987 0.0107945 0)
(-0.0105732 0.0178415 0)
(-0.0182425 0.0260188 0)
(-0.0280456 0.0358549 0)
(-0.0400155 0.0480575 0)
(-0.0548547 0.0626767 0)
(-0.0725324 0.0797484 0)
(-0.0931824 0.0986596 0)
(-0.116122 0.11849 0)
(-0.140632 0.137829 0)
(-0.165438 0.155241 0)
(-0.18945 0.169384 0)
(-0.211469 0.179337 0)
(-0.230725 0.184608 0)
(-0.246607 0.185201 0)
(-0.259004 0.181491 0)
(-0.268012 0.174158 0)
(-0.274102 0.163997 0)
(-0.277795 0.151826 0)
(-0.279751 0.138348 0)
(-0.280508 0.124133 0)
(-0.280587 0.109567 0)
(-0.280324 0.0949031 0)
(-0.280006 0.0802601 0)
(-0.279764 0.065685 0)
(-0.279709 0.0511596 0)
(-0.279852 0.0366489 0)
(-0.280224 0.0220965 0)
(-0.280805 0.00745487 0)
(-0.281616 -0.00732861 0)
(-0.28266 -0.022294 0)
(-0.283988 -0.037487 0)
(-0.285649 -0.0529494 0)
(-0.287739 -0.0687363 0)
(-0.290346 -0.0849093 0)
(-0.293581 -0.101546 0)
(-0.297503 -0.118722 0)
(-0.30211 -0.136493 0)
(-0.307225 -0.154837 0)
(-0.312418 -0.173565 0)
(-0.316856 -0.192192 0)
(-0.31922 -0.209774 0)
(-0.31766 -0.224778 0)
(-0.309946 -0.235032 0)
(-0.293837 -0.237893 0)
(-0.267743 -0.230727 0)
(-0.231572 -0.211738 0)
(-0.187504 -0.181066 0)
(-0.140187 -0.141639 0)
(-0.0957784 -0.0991075 0)
(-0.0596384 -0.0598869 0)
(-0.0339375 -0.0283807 0)
(-0.0174474 -0.00548213 0)
(-0.00770221 0.00986423 0)
(-0.00244001 0.0192181 0)
(-7.40681e-05 0.0235364 0)
(0.000628925 0.0232954 0)
(0.000444019 0.0182602 0)
(8.08094e-05 0.0079738 0)
(-0.000920388 0.00613221 0)
(-0.00559334 0.0163458 0)
(-0.0129997 0.0253974 0)
(-0.0220654 0.0354701 0)
(-0.0334875 0.0475225 0)
(-0.0472019 0.0623399 0)
(-0.0638947 0.079851 0)
(-0.0832906 0.0997863 0)
(-0.105305 0.121138 0)
(-0.12893 0.14257 0)
(-0.153252 0.162385 0)
(-0.176848 0.179037 0)
(-0.198662 0.191271 0)
(-0.217601 0.1984 0)
(-0.233147 0.200271 0)
(-0.244981 0.197266 0)
(-0.253353 0.190124 0)
(-0.258662 0.179805 0)
(-0.261622 0.16727 0)
(-0.262872 0.153382 0)
(-0.263104 0.138798 0)
(-0.262796 0.123977 0)
(-0.262366 0.109179 0)
(-0.262017 0.0945285 0)
(-0.261908 0.0800387 0)
(-0.262051 0.0656774 0)
(-0.262462 0.0513752 0)
(-0.263075 0.0370696 0)
(-0.263866 0.0226957 0)
(-0.264771 0.00821158 0)
(-0.265781 -0.00641992 0)
(-0.26687 -0.0212171 0)
(-0.268075 -0.0361988 0)
(-0.269425 -0.0513785 0)
(-0.271015 -0.0667823 0)
(-0.272941 -0.0824495 0)
(-0.275353 -0.0984468 0)
(-0.278399 -0.11487 0)
(-0.282236 -0.131842 0)
(-0.286949 -0.149492 0)
(-0.292495 -0.167898 0)
(-0.298552 -0.186985 0)
(-0.304382 -0.20636 0)
(-0.30865 -0.225098 0)
(-0.309346 -0.241518 0)
(-0.303875 -0.253076 0)
(-0.289456 -0.256495 0)
(-0.263928 -0.248352 0)
(-0.226858 -0.226212 0)
(-0.180666 -0.190155 0)
(-0.130995 -0.144158 0)
(-0.0853989 -0.0957746 0)
(-0.0500149 -0.0532162 0)
(-0.0263836 -0.0209026 0)
(-0.0121974 0.00108408 0)
(-0.00441902 0.0147583 0)
(-0.000748188 0.0217208 0)
(0.000553297 0.0229657 0)
(0.000536294 0.0185866 0)
(0.000129601 0.00827747 0)
(-0.00115742 0.00936778 0)
(-0.00675801 0.0230564 0)
(-0.0154186 0.0343182 0)
(-0.0258119 0.0464342 0)
(-0.0387262 0.0608524 0)
(-0.0539602 0.0783634 0)
(-0.0721352 0.0986858 0)
(-0.0926951 0.121153 0)
(-0.115339 0.144334 0)
(-0.138782 0.16652 0)
(-0.162 0.18583 0)
(-0.183525 0.200733 0)
(-0.202437 0.210192 0)
(-0.217848 0.213863 0)
(-0.229575 0.212015 0)
(-0.237639 0.205445 0)
(-0.242627 0.195226 0)
(-0.245162 0.182512 0)
(-0.246087 0.168317 0)
(-0.24604 0.153444 0)
(-0.245643 0.138417 0)
(-0.245235 0.123539 0)
(-0.245096 0.10892 0)
(-0.245284 0.0945614 0)
(-0.245844 0.0803885 0)
(-0.246694 0.0663131 0)
(-0.247789 0.0522383 0)
(-0.249016 0.038093 0)
(-0.250326 0.0238187 0)
(-0.251632 0.00938676 0)
(-0.252914 -0.00521979 0)
(-0.254129 -0.0199968 0)
(-0.255298 -0.0349365 0)
(-0.256433 -0.0500236 0)
(-0.257604 -0.0652512 0)
(-0.258889 -0.0806246 0)
(-0.260427 -0.0961751 0)
(-0.262373 -0.111973 0)
(-0.26494 -0.128137 0)
(-0.268336 -0.14484 0)
(-0.272754 -0.162288 0)
(-0.278257 -0.180672 0)
(-0.284653 -0.200037 0)
(-0.291286 -0.220094 0)
(-0.296825 -0.239918 0)
(-0.29911 -0.257657 0)
(-0.295194 -0.27031 0)
(-0.281785 -0.273859 0)
(-0.256167 -0.263978 0)
(-0.217672 -0.237535 0)
(-0.169153 -0.194836 0)
(-0.117586 -0.14144 0)
(-0.0720729 -0.0876523 0)
(-0.0390551 -0.0431575 0)
(-0.018599 -0.0118002 0)
(-0.00718155 0.00806816 0)
(-0.00162982 0.0188213 0)
(0.00049375 0.0222292 0)
(0.0006754 0.0188746 0)
(0.000194219 0.00867834 0)
(-0.00138408 0.0132224 0)
(-0.00785394 0.0308212 0)
(-0.0176669 0.0444465 0)
(-0.0292433 0.0586893 0)
(-0.0434369 0.0755241 0)
(-0.0598731 0.0956629 0)
(-0.0790715 0.118539 0)
(-0.100187 0.143031 0)
(-0.122733 0.167308 0)
(-0.145221 0.189359 0)
(-0.166611 0.207249 0)
(-0.185488 0.219585 0)
(-0.201163 0.225671 0)
(-0.213031 0.225596 0)
(-0.221279 0.2201 0)
(-0.226243 0.210361 0)
(-0.228765 0.1977 0)
(-0.229575 0.183339 0)
(-0.229524 0.168236 0)
(-0.229149 0.153038 0)
(-0.228937 0.138091 0)
(-0.22906 0.123522 0)
(-0.229659 0.109304 0)
(-0.23067 0.0953391 0)
(-0.232059 0.0814949 0)
(-0.233684 0.0676554 0)
(-0.235473 0.0537194 0)
(-0.237295 0.0396231 0)
(-0.239096 0.0253242 0)
(-0.240787 0.010812 0)
(-0.242347 -0.00390917 0)
(-0.243726 -0.0188152 0)
(-0.244938 -0.0338751 0)
(-0.245975 -0.0490505 0)
(-0.246887 -0.0643051 0)
(-0.247719 -0.0796121 0)
(-0.248576 -0.0949617 0)
(-0.249581 -0.110382 0)
(-0.250926 -0.125943 0)
(-0.252837 -0.141796 0)
(-0.255599 -0.158157 0)
(-0.259479 -0.175331 0)
(-0.264662 -0.19362 0)
(-0.271068 -0.213217 0)
(-0.278117 -0.233916 0)
(-0.28446 -0.254781 0)
(-0.287743 -0.27369 0)
(-0.284661 -0.287063 0)
(-0.271388 -0.289972 0)
(-0.244775 -0.277052 0)
(-0.204083 -0.244604 0)
(-0.153045 -0.193599 0)
(-0.100373 -0.132346 0)
(-0.0567885 -0.0743954 0)
(-0.0279042 -0.0304188 0)
(-0.011425 -0.00179165 0)
(-0.00313901 0.0143825 0)
(0.000223902 0.020935 0)
(0.000766861 0.0191197 0)
(0.000256558 0.00921194 0)
(-0.00159186 0.0176892 0)
(-0.00883868 0.0396032 0)
(-0.019658 0.0557154 0)
(-0.0322256 0.0721271 0)
(-0.0474243 0.0913586 0)
(-0.0646819 0.113958 0)
(-0.0843973 0.139012 0)
(-0.105459 0.164923 0)
(-0.127251 0.189515 0)
(-0.148164 0.210579 0)
(-0.167236 0.226258 0)
(-0.183192 0.235424 0)
(-0.195644 0.237826 0)
(-0.2043 0.23404 0)
(-0.209695 0.22526 0)
(-0.2124 0.212964 0)
(-0.2134 0.198594 0)
(-0.213411 0.183321 0)
(-0.213202 0.167948 0)
(-0.213147 0.152917 0)
(-0.213574 0.13838 0)
(-0.214503 0.124307 0)
(-0.215963 0.11056 0)
(-0.217806 0.0969803 0)
(-0.219957 0.0834086 0)
(-0.222249 0.0697251 0)
(-0.224609 0.0558405 0)
(-0.226908 0.0417067 0)
(-0.229104 0.0273011 0)
(-0.231112 0.0126302 0)
(-0.232918 -0.00228411 0)
(-0.234474 -0.0174032 0)
(-0.235787 -0.0326793 0)
(-0.236839 -0.048059 0)
(-0.237663 -0.0634852 0)
(-0.238274 -0.0789084 0)
(-0.238744 -0.0942847 0)
(-0.239145 -0.109602 0)
(-0.23962 -0.124874 0)
(-0.240348 -0.140193 0)
(-0.241593 -0.155717 0)
(-0.243674 -0.171738 0)
(-0.246949 -0.188635 0)
(-0.251707 -0.206862 0)
(-0.257972 -0.226738 0)
(-0.26523 -0.248166 0)
(-0.27204 -0.270098 0)
(-0.275819 -0.290026 0)
(-0.272783 -0.303563 0)
(-0.258636 -0.304629 0)
(-0.22986 -0.286763 0)
(-0.186118 -0.245927 0)
(-0.132547 -0.184918 0)
(-0.0802632 -0.116072 0)
(-0.041012 -0.056848 0)
(-0.0177467 -0.0161153 0)
(-0.00565964 0.00764363 0)
(-0.00045584 0.0187013 0)
(0.000732281 0.0191525 0)
(0.000304508 0.00982043 0)
(-0.00175301 0.0226396 0)
(-0.00961815 0.0491814 0)
(-0.0212348 0.0678418 0)
(-0.0345449 0.0863822 0)
(-0.0504229 0.107874 0)
(-0.0680897 0.132633 0)
(-0.0878221 0.159375 0)
(-0.108287 0.186041 0)
(-0.128803 0.210196 0)
(-0.147725 0.229547 0)
(-0.164247 0.24244 0)
(-0.177298 0.248118 0)
(-0.186821 0.246841 0)
(-0.192823 0.239673 0)
(-0.196118 0.228195 0)
(-0.197405 0.214061 0)
(-0.197699 0.198708 0)
(-0.197616 0.183154 0)
(-0.197781 0.167989 0)
(-0.198391 0.153433 0)
(-0.199633 0.139464 0)
(-0.2014 0.125924 0)
(-0.203654 0.11261 0)
(-0.206201 0.0993304 0)
(-0.208956 0.0859286 0)
(-0.211752 0.0722964 0)
(-0.21453 0.058366 0)
(-0.217173 0.0441082 0)
(-0.219656 0.0295204 0)
(-0.221901 0.0146233 0)
(-0.223904 -0.000546344 0)
(-0.225617 -0.0159397 0)
(-0.227048 -0.0314969 0)
(-0.228171 -0.047155 0)
(-0.229009 -0.0628426 0)
(-0.229558 -0.0784966 0)
(-0.229862 -0.0940491 0)
(-0.229957 -0.10946 0)
(-0.229932 -0.124695 0)
(-0.229903 -0.13979 0)
(-0.230065 -0.154821 0)
(-0.230688 -0.170006 0)
(-0.23214 -0.185668 0)
(-0.234854 -0.202323 0)
(-0.239209 -0.220545 0)
(-0.245337 -0.240833 0)
(-0.252709 -0.263119 0)
(-0.259775 -0.286181 0)
(-0.263532 -0.306871 0)
(-0.259719 -0.31968 0)
(-0.243458 -0.317116 0)
(-0.211259 -0.29154 0)
(-0.163645 -0.239473 0)
(-0.108213 -0.167043 0)
(-0.0587785 -0.0930022 0)
(-0.0265535 -0.0364547 0)
(-0.00950423 -0.0022516 0)
(-0.00169406 0.0150628 0)
(0.000516133 0.0187761 0)
(0.000327901 0.0104518 0)
(-0.00186225 0.0279877 0)
(-0.0101659 0.0594276 0)
(-0.022345 0.0806781 0)
(-0.0361271 0.101275 0)
(-0.0523396 0.124842 0)
(-0.0700062 0.151413 0)
(-0.0892955 0.179328 0)
(-0.108714 0.206114 0)
(-0.127579 0.229173 0)
(-0.144289 0.246244 0)
(-0.158245 0.255991 0)
(-0.168622 0.258104 0)
(-0.175678 0.253383 0)
(-0.179668 0.243329 0)
(-0.181587 0.229806 0)
(-0.182161 0.214513 0)
(-0.182345 0.198778 0)
(-0.1826 0.183394 0)
(-0.183395 0.168721 0)
(-0.184765 0.154773 0)
(-0.186784 0.141389 0)
(-0.189267 0.128326 0)
(-0.192142 0.115351 0)
(-0.195201 0.102269 0)
(-0.198372 0.0889423 0)
(-0.201501 0.0752821 0)
(-0.204552 0.061245 0)
(-0.207423 0.0468186 0)
(-0.210102 0.0320168 0)
(-0.212521 0.0168699 0)
(-0.21468 0.00142523 0)
(-0.216533 -0.0142625 0)
(-0.218089 -0.0301246 0)
(-0.219315 -0.0460934 0)
(-0.220231 -0.0620875 0)
(-0.220821 -0.0780375 0)
(-0.221115 -0.0938598 0)
(-0.221122 -0.109499 0)
(-0.220894 -0.124888 0)
(-0.220491 -0.140019 0)
(-0.220036 -0.154896 0)
(-0.219713 -0.169647 0)
(-0.219814 -0.184485 0)
(-0.22075 -0.199852 0)
(-0.223015 -0.216346 0)
(-0.227103 -0.234753 0)
(-0.23317 -0.25568 0)
(-0.240684 -0.279082 0)
(-0.247759 -0.303327 0)
(-0.250964 -0.32431 0)
(-0.245284 -0.33498 0)
(-0.225549 -0.326052 0)
(-0.188509 -0.289176 0)
(-0.136775 -0.222657 0)
(-0.0811929 -0.139376 0)
(-0.0383766 -0.0648423 0)
(-0.0148265 -0.0163262 0)
(-0.0036149 0.00938856 0)
(0.000103112 0.017692 0)
(0.000321862 0.0110027 0)
(-0.00189643 0.0335325 0)
(-0.0104098 0.0700303 0)
(-0.0228792 0.0938534 0)
(-0.0368398 0.116357 0)
(-0.0530387 0.141722 0)
(-0.0703261 0.169683 0)
(-0.0887858 0.198234 0)
(-0.10683 0.224554 0)
(-0.123831 0.24599 0)
(-0.138291 0.260414 0)
(-0.14985 0.266893 0)
(-0.157926 0.265604 0)
(-0.163054 0.257864 0)
(-0.165657 0.245525 0)
(-0.166816 0.230612 0)
(-0.167202 0.214756 0)
(-0.167651 0.199098 0)
(-0.168458 0.184177 0)
(-0.169943 0.170135 0)
(-0.172015 0.156813 0)
(-0.174676 0.143955 0)
(-0.177698 0.131272 0)
(-0.181005 0.11853 0)
(-0.184398 0.105548 0)
(-0.187828 0.0922159 0)
(-0.191161 0.0784668 0)
(-0.194381 0.0642791 0)
(-0.197399 0.0496532 0)
(-0.200215 0.0346154 0)
(-0.202762 0.0192017 0)
(-0.205047 0.00346766 0)
(-0.207019 -0.0125286 0)
(-0.208688 -0.0287103 0)
(-0.210019 -0.0450067 0)
(-0.211027 -0.0613272 0)
(-0.211694 -0.0776 0)
(-0.212042 -0.0937298 0)
(-0.212069 -0.109657 0)
(-0.211809 -0.125293 0)
(-0.211284 -0.140609 0)
(-0.210563 -0.155556 0)
(-0.209751 -0.170193 0)
(-0.209034 -0.184612 0)
(-0.208729 -0.199133 0)
(-0.209278 -0.214234 0)
(-0.211283 -0.230735 0)
(-0.21527 -0.249555 0)
(-0.221478 -0.27149 0)
(-0.22912 -0.296307 0)
(-0.235989 -0.321687 0)
(-0.237811 -0.342061 0)
(-0.22903 -0.348225 0)
(-0.204105 -0.329089 0)
(-0.161208 -0.276272 0)
(-0.105957 -0.193278 0)
(-0.0540071 -0.102917 0)
(-0.0216335 -0.0359694 0)
(-0.00637014 0.00109313 0)
(-0.000507286 0.0155635 0)
(0.000284315 0.0114028 0)
(-0.00186012 0.0391385 0)
(-0.0103569 0.0808176 0)
(-0.0228446 0.107201 0)
(-0.0367009 0.131461 0)
(-0.0525621 0.158348 0)
(-0.069143 0.187305 0)
(-0.0864698 0.216023 0)
(-0.102926 0.241411 0)
(-0.117982 0.260855 0)
(-0.130286 0.272445 0)
(-0.139718 0.275712 0)
(-0.145921 0.271322 0)
(-0.149637 0.261055 0)
(-0.151382 0.24701 0)
(-0.152237 0.23126 0)
(-0.152763 0.215282 0)
(-0.153658 0.199986 0)
(-0.155056 0.185662 0)
(-0.157158 0.172263 0)
(-0.159789 0.1595 0)
(-0.16291 0.147063 0)
(-0.166284 0.134649 0)
(-0.169849 0.122042 0)
(-0.173428 0.109085 0)
(-0.176996 0.0956962 0)
(-0.180439 0.0818287 0)
(-0.183758 0.0674771 0)
(-0.186873 0.0526487 0)
(-0.18979 0.0373776 0)
(-0.192444 0.0217013 0)
(-0.19484 0.00568149 0)
(-0.196923 -0.0106227 0)
(-0.198702 -0.0271262 0)
(-0.200138 -0.0437565 0)
(-0.201247 -0.0604131 0)
(-0.202004 -0.0770229 0)
(-0.202436 -0.0934801 0)
(-0.202533 -0.109726 0)
(-0.202325 -0.125658 0)