/*--------------------------------*- C++ -*----------------------------------*\
| =========                 |                                                 |
| \\      /  F ield         | OpenFOAM: The Open Source CFD Toolbox           |
|  \\    /   O peration     | Version:  2406                                  |
|   \\  /    A nd           | Website:  www.openfoam.com                      |
|    \\/     M anipulation  |                                                 |
\*---------------------------------------------------------------------------*/
FoamFile
{
    version     2.0;
    format      ascii;
    arch        "LSB;label=32;scalar=64";
    class       surfaceScalarField;
    location    "26.4";
    object      phi_0;
}
// * * * * * * * * * * * * * * * * * * * * * * * * * * * * * * * * * * * * * //

dimensions      [0 3 -1 0 0 0 0];

oriented        oriented;

internalField   nonuniform List<scalar> 
1740
(
5.61668e-06
-5.61667e-06
1.37329e-05
-8.11618e-06
1.96949e-05
-5.962e-06
2.20882e-05
-2.39333e-06
2.15595e-05
5.28741e-07
1.86309e-05
2.92859e-06
1.24613e-05
6.16952e-06
9.5465e-07
1.15067e-05
-2.05283e-05
2.14829e-05
-5.66072e-05
3.60789e-05
-0.00010781
5.12032e-05
-0.000169559
6.17487e-05
-0.000232372
6.28127e-05
-0.000284842
5.24706e-05
-0.000318244
3.34013e-05
-0.000326767
8.52302e-06
-0.000307554
-1.92132e-05
-0.000259701
-4.78522e-05
-0.000186381
-7.33199e-05
-9.5017e-05
-9.13644e-05
1.15313e-06
-9.61701e-05
8.55834e-05
-8.44303e-05
0.000140824
-5.52411e-05
0.000156358
-1.55334e-05
0.000135412
2.09458e-05
9.57522e-05
3.96598e-05
5.61898e-05
3.95624e-05
2.65984e-05
2.95914e-05
8.13648e-06
1.84619e-05
8.13648e-06
9.00834e-06
-1.4625e-05
2.09474e-05
-2.00552e-05
2.66742e-05
-1.16888e-05
2.37221e-05
5.587e-07
1.12788e-05
1.29721e-05
-1.32066e-05
2.7414e-05
-5.6177e-05
4.91399e-05
-0.000125578
8.09076e-05
-0.000220781
0.000116686
-0.00032964
0.000144938
-0.000434911
0.000156474
-0.000523304
0.000150142
-0.000588467
0.000127975
-0.000628882
9.2886e-05
-0.000643912
4.84309e-05
-0.000633876
-1.5127e-06
-0.000596765
-5.63241e-05
-0.00053384
-0.000110778
-0.000445817
-0.000161343
-0.000335663
-0.000201518
-0.000210469
-0.000221364
-8.35902e-05
-0.00021131
2.74295e-05
-0.000166261
0.000103803
-9.19067e-05
0.000135047
-1.02986e-05
0.000126573
4.8134e-05
9.36721e-05
7.24634e-05
5.33761e-05
6.98874e-05
1.84469e-05
5.33912e-05
2.65833e-05
8.76295e-06
-2.3388e-05
1.57869e-05
-2.70791e-05
1.1274e-05
-7.17591e-06
-8.50725e-06
2.03399e-05
-4.82756e-05
5.27404e-05
-0.000116257
9.5395e-05
-0.000217291
0.000150174
-0.000342288
0.000205905
-0.000470924
0.000245321
-0.000586382
0.000260395
-0.00068148
0.000251573
-0.000753961
0.000222624
-0.000804487
0.000178501
-0.000835028
0.000123427
-0.000847051
6.04536e-05
-0.000839617
-8.94648e-06
-0.000814441
-8.14999e-05
-0.000768233
-0.000156986
-0.000698447
-0.000231129
-0.000603146
-0.000296819
-0.00048265
-0.000341859
-0.000342657
-0.000351302
-0.000197301
-0.000311617
-6.91409e-05
-0.000220067
1.87613e-05
-9.82007e-05
5.82665e-05
8.62881e-06
6.18834e-05
6.88465e-05
4.33761e-05
8.83947e-05
1.68399e-05
7.99274e-05
4.34233e-05
4.42534e-06
-2.78133e-05
-8.1286e-07
-2.18409e-05
-2.4751e-05
1.67623e-05
-7.32385e-05
6.88274e-05
-0.000153885
0.000133387
-0.00026886
0.00021037
-0.000404987
0.000286301
-0.000539732
0.00034065
-0.000657193
0.000362782
-0.000751149
0.000354351
-0.000821398
0.000321822
-0.000870845
0.00027207
-0.000903216
0.000210872
-0.000922076
0.000142288
-0.000930098
6.84751e-05
-0.000928471
-1.05735e-05
-0.000917813
-9.21572e-05
-0.000896131
-0.000178668
-0.000859127
-0.000268133
-0.000800492
-0.000355454
-0.000712111
-0.00043024
-0.000588046
-0.000475368
-0.000430599
-0.000469064
-0.000258912
-0.000391754
-0.000109751
-0.000247361
-1.93729e-05
-8.17496e-05
1.48268e-05
3.46468e-05
1.89674e-05
8.42541e-05
8.40559e-06
9.04891e-05
5.18289e-05
-5.19923e-06
-2.26141e-05
-2.99347e-05
2.89451e-06
-8.0919e-05
6.77466e-05
-0.000163903
0.000151812
-0.00028009
0.000249574
-0.000416619
0.000346898
-0.000550478
0.00042016
-0.000663682
0.000453854
-0.000749976
0.000449076
-0.000810032
0.000414407
-0.000847752
0.000359542
-0.000868825
0.000293143
-0.000878843
0.000220889
-0.000882406
0.000145851
-0.000882951
6.90196e-05
-0.000884344
-9.18019e-06
-0.000885101
-9.14002e-05
-0.000886011
-0.000177758
-0.000884496
-0.000269649
-0.000873495
-0.000366454
-0.000840581
-0.000463155
-0.000769503
-0.000546446
-0.000645839
-0.000592728
-0.000467168
-0.000570425
-0.000262115
-0.000452414
-9.49348e-05
-0.00024893
-1.71762e-05
-4.31118e-05
2.20732e-06
6.48705e-05
3.10319e-06
8.95933e-05
5.4932e-05
-2.01445e-05
-2.46958e-06
-6.87128e-05
5.14628e-05
-0.000147322
0.000146356
-0.000256691
0.000261181
-0.000386823
0.000379707
-0.000515993
0.000476068
-0.000623732
0.000527899
-0.000701483
0.000531605
-0.000750057
0.000497651
-0.000774698
0.000439047
-0.000782913
0.000367758
-0.000781811
0.000292041
-0.000776732
0.00021581
-0.000771073
0.000140193
-0.000766988
6.49339e-05
-0.000765883
-1.0285e-05
-0.000768925
-8.83586e-05
-0.000777729
-0.000168953
-0.00079317
-0.000254209
-0.000813176
-0.000346447
-0.000829676
-0.000446655
-0.000825943
-0.000550179
-0.000776127
-0.000642545
-0.000654005
-0.000692547
-0.000452651
-0.000653768
-0.000215976
-0.000485605
-4.96567e-05
-0.000209431
-1.1636e-06
1.63775e-05
2.79379e-06
8.56359e-05
5.77258e-05
-3.76866e-05
3.5217e-05
-0.000108606
0.000122383
-0.000207131
0.00024488
-0.00032662
0.00038067
-0.000449335
0.000502423
-0.000553661
0.000580394
-0.000627229
0.000601467
-0.000669675
0.000574051
-0.000687197
0.000515173
-0.000688898
0.000440748
-0.000683677
0.000362537
-0.000677247
0.000285612
-0.000672323
0.000210886
-0.000669301
0.000137171
-0.000667673
6.33061e-05
-0.000666321
-1.16373e-05
-0.000666949
-8.77302e-05
-0.000670805
-0.000165098
-0.000680833
-0.00024418
-0.000700376
-0.000326904
-0.000730182
-0.00041685
-0.00076291
-0.00051745
-0.000778493
-0.000626961
-0.000742836
-0.000728204
-0.00061732
-0.000779285
-0.000391677
-0.000711248
-0.000132961
-0.000468147
-2.55857e-06
-0.000114024
4.58601e-06
7.84913e-05
6.23118e-05
-5.30598e-05
8.82768e-05
-0.000139154
0.000208477
-0.000245576
0.000351302
-0.000360081
0.000495176
-0.000462947
0.000605288
-0.000538046
0.000655493
-0.000581219
0.00064464
-0.000598308
0.000591139
-0.000599294
0.00051616
-0.000594558
0.000436012
-0.000590983
0.000358961
-0.000590974
0.000285603
-0.000593976
0.000213888
-0.000598023
0.000141218
-0.000601169
6.64523e-05
-0.000602301
-1.05059e-05
-0.000601615
-8.84157e-05
-0.000600463
-0.00016625
-0.000601449
-0.000243195
-0.00060853
-0.000319822
-0.000626335
-0.000399045
-0.000657219
-0.000486566
-0.00069539
-0.00058879
-0.000718268
-0.000705327
-0.00068335
-0.000814202
-0.000539593
-0.000855005
-0.000283003
-0.000724737
-4.28654e-05
-0.000354162
7.93936e-06
2.76865e-05
7.02512e-05
-6.22181e-05
0.000150495
-0.000154312
0.000300571
-0.000257867
0.000454857
-0.000358154
0.000595463
-0.000437885
0.000685019
-0.000487533
0.000705141
-0.000509525
0.000666632
-0.000513565
0.00059518
-0.000510894
0.000513488
-0.000510111
0.000435229
-0.000514375
0.000363225
-0.000522953
0.000294181
-0.00053335
0.000224285
-0.000542948
0.000150817
-0.000549747
7.32504e-05
-0.000552783
-7.46951e-06
-0.000551812
-8.93863e-05
-0.000547856
-0.000170206
-0.000542933
-0.000248118
-0.000540304
-0.000322451
-0.000544672
-0.000394677
-0.000561525
-0.000469713
-0.000593775
-0.00055654
-0.000633904
-0.000665199
-0.000654403
-0.000793702
-0.000604063
-0.000905346
-0.000428603
-0.000900197
-0.000136
-0.000646766
1.07193e-05
-0.000119032
8.09705e-05
-6.3272e-05
0.000213767
-0.000152745
0.000390044
-0.000245898
0.00054801
-0.000328376
0.000677941
-0.00038706
0.000743703
-0.000418335
0.000736416
-0.0004288
0.000677096
-0.000429474
0.000595854
-0.000430399
0.000514413
-0.00043682
0.000441651
-0.000448773
0.000375178
-0.00046394
0.000309349
-0.00047942
0.000239764
-0.000492826
0.000164223
-0.00050255
8.2975e-05
-0.000507356
-2.66375e-06
-0.000507401
-8.93415e-05
-0.000502897
-0.00017471
-0.000495181
-0.000255834
-0.00048654
-0.000331092
-0.000480561
-0.000400657
-0.000482776
-0.000467498
-0.000500225
-0.000539091
-0.000536095
-0.000629328
-0.000579096
-0.000750701
-0.000588083
-0.000896359
-0.000494258
-0.000994021
-0.000261949
-0.000879075
-1.27304e-05
-0.000368251
6.82401e-05
-5.67774e-05
0.000270544
-0.000137111
0.000470377
-0.000215998
0.000626897
-0.000280949
0.000742892
-0.000323141
0.000785895
-0.000343069
0.000756344
-0.000349049
0.000683077
-0.000351373
0.000598178
-0.000357507
0.000520546
-0.000369664
0.000453808
-0.000386287
0.0003918
-0.000404756
0.000327818
-0.000422545
0.000257552
-0.000437761
0.000179439
-0.000448947
9.41608e-05
-0.000455469
3.85822e-06
-0.000456757
-8.80537e-05
-0.000453394
-0.000178073
-0.000446271
-0.000262956
-0.000436874
-0.00034049
-0.000427353
-0.000410177
-0.000420969
-0.000473882
-0.000424154
-0.000535906
-0.000444757
-0.000608725
-0.000485568
-0.00070989
-0.000523681
-0.000858246
-0.000505463
-0.00101224
-0.000358194
-0.00102634
-6.77628e-05
-0.000658682
4.77228e-07
-4.43574e-05
0.000314902
-0.000111416
0.000537436
-0.000174509
0.000689991
-0.000223616
0.000791998
-0.00025364
0.00081592
-0.000267266
0.000769969
-0.00027256
0.000688371
-0.000277831
0.000603449
-0.000287831
0.000530546
-0.00030286
0.000468837
-0.000320975
0.000409916
-0.000339948
0.000346791
-0.000357879
0.000275483
-0.000373342
0.000194902
-0.000385225
0.000106044
-0.000392799
1.1433e-05
-0.000395712
-8.51415e-05
-0.000394106
-0.000179678
-0.000388675
-0.000268386
-0.000380563
-0.000348603
-0.000371668
-0.000419072
-0.00036392
-0.00048163
-0.00036124
-0.000538586
-0.000369337
-0.000600628
-0.000397247
-0.000681981
-0.000442454
-0.000813039
-0.000467891
-0.000986802
-0.000382307
-0.00111193
-0.00014029
-0.000900699
-0.000139812
-2.83654e-05
0.000343267
-7.96705e-05
0.000588741
-0.000126963
0.000737283
-0.000162568
0.000827603
-0.000184085
0.000837437
-0.000194643
0.000780527
-0.000200676
0.000694404
-0.000208009
0.000610782
-0.000219272
0.000541809
-0.000234042
0.000483607
-0.000250765
0.000426638
-0.000267893
0.000363919
-0.000284181
0.000291771
-0.000298635
0.000209356
-0.000310412
0.00011782
-0.000318879
1.99007e-05
-0.000323669
-8.03518e-05
-0.000324798
-0.00017855
-0.000322657
-0.000270528
-0.000317713
-0.000353546
-0.000311565
-0.00042522
-0.000305228
-0.000487967
-0.00030138
-0.000542435
-0.000303076
-0.000598932
-0.00032034
-0.000664717
-0.000360088
-0.000773291
-0.000404985
-0.000941906
-0.00037731
-0.0011396
-0.000208138
-0.00106987
-0.00034795
-1.08332e-05
0.0003541
-4.49281e-05
0.000622836
-7.6916e-05
0.000769271
-0.000100924
0.000851611
-0.000115945
0.000852458
-0.000124556
0.000789137
-0.00013106
0.000700908
-0.000138809
0.000618531
-0.000149057
0.000552057
-0.000161364
0.000495914
-0.000174804
0.000440079
-0.000188511
0.000377626
-0.0002018
0.00030506
-0.000214087
0.000221643
-0.000224834
0.000128568
-0.000233642
2.8708e-05
-0.000240192
-7.38019e-05
-0.000244314
-0.000174427
-0.0002463
-0.000268541
-0.000246234
-0.000353612
-0.000245062
-0.000426392
-0.000243354
-0.000489675
-0.00024268
-0.00054311
-0.000243738
-0.000597874
-0.000254589
-0.000653866
-0.000282434
-0.000745445
-0.000328286
-0.000896054
-0.000336261
-0.00113163
-0.000223811
-0.00118232
-0.000571762
6.93813e-06
0.000347162
-9.06139e-06
0.000638835
-2.71999e-05
0.00078741
-4.10895e-05
0.0008655
-5.08241e-05
0.000862193
-5.80961e-05
0.000796409
-6.46652e-05
0.000707477
-7.1462e-05
0.000625328
-7.89561e-05
0.000559551
-8.70284e-05
0.000503986
-9.55649e-05
0.000448615
-0.000104409
0.000386471
-0.000113446
0.000314098
-0.000122552
0.000230749
-0.000131571
0.000137586
-0.000140307
3.74439e-05
-0.000148652
-6.54561e-05
-0.000156114
-0.000166966
-0.000162706
-0.000261949
-0.000168307
-0.000348011
-0.000172895
-0.000421804
-0.000176993
-0.000485577
-0.000181307
-0.000538796
-0.000186123
-0.000593058
-0.000195762
-0.000644227
-0.000215723
-0.000725484
-0.000257083
-0.000854694
-0.000282786
-0.00110592
-0.000205454
-0.00125965
-0.000777216
2.38403e-05
0.000323322
2.5217e-05
0.000637459
2.07398e-05
0.000791887
1.65306e-05
0.00086971
1.20181e-05
0.000866705
6.73498e-06
0.000801693
1.29603e-06
0.000712916
-3.75191e-06
0.000630376
-7.75316e-06
0.000563553
-1.09894e-05
0.000507222
-1.40779e-05
0.000451703
-1.75683e-05
0.000389961
-2.18872e-05
0.000318416
-2.73548e-05
0.000236216
-3.42176e-05
0.000144449
-4.24601e-05
4.56865e-05
-5.21611e-05
-5.57552e-05
-6.29173e-05
-0.00015621
-7.43605e-05
-0.000250506
-8.58082e-05
-0.000336563
-9.77493e-05
-0.000409863
-0.00010872
-0.000474607
-0.000119637
-0.000527879
-0.000129545
-0.00058315
-0.000140625
-0.000633147
-0.000156525
-0.000709584
-0.000191521
-0.000819698
-0.000224212
-0.00107323
-0.000177225
-0.00130664
-0.000954441
3.80288e-05
0.000285293
5.70829e-05
0.000618405
6.5987e-05
0.000782983
7.12576e-05
0.000864439
7.17269e-05
0.000866236
6.81374e-05
0.000805282
6.34538e-05
0.0007176
6.05439e-05
0.000633285
6.03731e-05
0.000563723
6.23353e-05
0.00050526
6.5085e-05
0.000448954
6.73827e-05
0.000387663
6.82307e-05
0.000317568
6.68758e-05
0.000237571
6.25929e-05
0.000148732
5.51617e-05
5.31177e-05
4.45621e-05
-4.51555e-05
3.07463e-05
-0.000142394
1.52148e-05
-0.000234974
-3.42944e-06
-0.000317919
-2.05591e-05
-0.000392733
-3.97365e-05
-0.000455429
-5.77064e-05
-0.000509909
-7.39672e-05
-0.000566889
-9.02735e-05
-0.00061684
-0.000107127
-0.00069273
-0.000138431
-0.000788394
-0.000173511
-0.00103815
-0.000148483
-0.00133167
-0.00110292
4.83746e-05
0.000236918
8.47189e-05
0.00058206
0.000107093
0.000760608
0.000122128
0.000849404
0.000128893
0.000859471
0.000128677
0.000805498
0.000125884
0.000720393
0.000124866
0.000634304
0.000127718
0.000560871
0.000133952
0.000499026
0.00014175
0.000441155
0.000149218
0.000380196
0.000154726
0.00031206
0.000157154
0.000235144
0.00015538
0.000150505
0.000148872
5.96264e-05
0.000137485
-3.37692e-05
0.00012159
-0.000126498
0.000101315
-0.000214699
7.85844e-05
-0.000295188
5.35727e-05
-0.000367721
2.71611e-05
-0.000429018
4.32638e-06
-0.000487074
-2.13142e-05
-0.000541248
-4.21527e-05
-0.000596002
-6.20824e-05
-0.000672801
-9.21548e-05
-0.000758322
-0.000129857
-0.00100045
-0.000123911
-0.00133761
-0.00122683
5.34491e-05
0.000183469
0.000106425
0.000529084
0.000142648
0.000724385
0.000167877
0.000824176
0.00018174
0.000845608
0.000185459
0.000801779
0.000184452
0.000721401
0.000184671
0.000634084
0.00018947
0.000556072
0.000198906
0.00048959
0.000210929
0.000429133
0.000223074
0.00036805
0.000232987
0.000302147
0.000239095
0.000229036
0.000240019
0.000149581
0.000234885
6.47604e-05
0.000223305
-2.21892e-05
0.000205624
-0.000108817
0.000182257
-0.000191333
0.000154925
-0.000267856
0.000123876
-0.000336672
9.23766e-05
-0.000397519
6.06163e-05
-0.000455314
2.9563e-05
-0.000510195
4.25694e-06
-0.000570696
-2.43785e-05
-0.000644165
-5.62812e-05
-0.000726419
-9.62927e-05
-0.00096044
-0.000103934
-0.00132997
-0.00133077
5.22712e-05
0.000131198
0.00012013
0.000461225
0.000171012
0.000673503
0.000207743
0.000787445
0.000230718
0.000822634
0.000241014
0.000791483
0.000243721
0.000718693
0.000245576
0.00063223
0.000251269
0.000550379
0.000262028
0.000478831
0.000276198
0.000414963
0.000291203
0.000353045
0.000304161
0.00028919
0.00031292
0.000220277
0.000315833
0.000146668
0.000311775
6.88185e-05
0.000300217
-1.06309e-05
0.000281306
-8.99066e-05
0.000255645
-0.000165672
0.000224511
-0.000236722
0.000189236
-0.000301397
0.000152505
-0.000360788
0.000114775
-0.000417584
7.90816e-05
-0.000474501
4.49246e-05
-0.000536539
1.02264e-05
-0.000609467
-2.43786e-05
-0.000691814
-6.9027e-05
-0.000915791
-8.95199e-05
-0.00130948
-0.00142029
4.53497e-05
8.58485e-05
0.000124765
0.000381809
0.000189928
0.00060834
0.000238701
0.000738672
0.000271872
0.000789463
0.00028986
0.000773495
0.000297345
0.000711208
0.000301326
0.000628248
0.000307503
0.000544203
0.000318465
0.000467868
0.000333357
0.000400071
0.000349834
0.000336568
0.000364868
0.000274155
0.000375775
0.000209371
0.000380524
0.000141918
0.000377827
7.15156e-05
0.000366784
4.1186e-07
0.000347586
-7.07088e-05
0.000320737
-0.000138822
0.00028749
-0.000203475
0.000249545
-0.000263452
0.000208968
-0.000320211
0.000167135
-0.00037575
0.000125962
-0.000433329
8.48242e-05
-0.000495401
4.45502e-05
-0.000569193
4.3671e-06
-0.000651631
-4.83147e-05
-0.00086311
-8.01526e-05
-0.00127764
-0.00150044
3.54876e-05
5.03609e-05
0.000119438
0.000297859
0.000197417
0.000530362
0.000259353
0.000676736
0.000305188
0.000743627
0.000334975
0.000743708
0.000351369
0.000694814
0.000360402
0.000619215
0.000368218
0.000536387
0.000378717
0.00045737
0.00039245
0.000386337
0.00040793
0.000321088
0.000422576
0.00025951
0.00043366
0.000198287
0.000438857
0.000136721
0.000436556
7.38166e-05
0.000426054
1.09141e-05
0.00040685
-5.1505e-05
0.000379746
-0.000111718
0.00034566
-0.000169389
0.00030643
-0.000224223
0.000263487
-0.000277267
0.000218601
-0.000330864
0.000172497
-0.000387226
0.000125462
-0.000448365
7.76066e-05
-0.000521338
2.8289e-05
-0.000602314
-2.90812e-05
-0.000805739
-7.21054e-05
-0.00123462
-0.00157255
2.48432e-05
2.55177e-05
0.000104511
0.000218191
0.000190704
0.000444168
0.000264521
0.000602919
0.000323054
0.000685095
0.000365519
0.000701243
0.000393221
0.000667112
0.000410626
0.00060181
0.000423057
0.000523956
0.000434965
0.000445462
0.000448247
0.000373055
0.00046256
0.000306774
0.000476123
0.000245947
0.000486607
0.000187802
0.000491832
0.000131497
0.00049003
7.56184e-05
0.000480307
2.06372e-05
0.000462102
-3.33005e-05
0.000436044
-8.56597e-05
0.000402604
-0.000135949
0.000363566
-0.000185184
0.000319422
-0.000233124
0.000272086
-0.000283528
0.000220689
-0.000335828
0.000167089
-0.000394765
0.000109624
-0.000463873
5.28175e-05
-0.000545507
-1.09829e-05
-0.000741939
-6.03438e-05
-0.00118526
-0.00163289
1.53093e-05
1.02084e-05
8.11918e-05
0.000152309
0.000168979
0.000356382
0.000253313
0.000518585
0.00032696
0.000611448
0.00038666
0.000641543
0.000430814
0.000622958
0.000462162
0.000570462
0.000484258
0.00050186
0.000501239
0.000428481
0.000515984
0.00035831
0.000529444
0.000293314
0.000541098
0.000234294
0.00054952
0.00017938
0.000553196
0.000127821
0.000550462
7.83526e-05
0.000540607
3.04918e-05
0.000522851
-1.55439e-05
0.000497646
-6.04548e-05
0.000464902
-0.000103205
0.000426132
-0.000146414
0.000380756
-0.000187747
0.000330637
-0.000233409
0.000273315
-0.000278507
0.000212494
-0.000333944
0.000143983
-0.000395362
7.9814e-05
-0.000481338
8.7757e-06
-0.000670901
-4.80007e-05
-0.00112848
-0.00168089
5.84697e-06
4.36142e-06
5.27908e-05
0.000105365
0.00012943
0.000279743
0.000217783
0.000430232
0.000303457
0.000525773
0.000378549
0.000566451
0.000441609
0.000559899
0.000491059
0.000521012
0.000528224
0.000464695
0.000556397
0.000400308
0.000578195
0.000336511
0.000595373
0.000276136
0.000608494
0.000221173
0.000617204
0.000170671
0.000620802
0.000124222
0.00061821
8.09444e-05
0.000608893
3.98089e-05
0.000591985
1.36442e-06
0.000567958
-3.64273e-05
0.000536053
-7.13009e-05
0.000497364
-0.000107726
0.000450476
-0.00014086
0.000396903
-0.000179836
0.000333286
-0.000214889
0.000264101
-0.00026476
0.000182676
-0.000313937
0.000109578
-0.000408241
2.52353e-05
-0.000586558
-4.57208e-05
-0.00105752
-0.00172661
-8.93195e-06
1.32934e-05
1.47673e-05
8.16654e-05
7.42893e-05
0.000220221
0.000165947
0.000338574
0.000261859
0.000429861
0.000357087
0.000471223
0.000442448
0.000474538
0.000513768
0.000449691
0.000571097
0.000407366
0.000615835
0.00035557
0.000649734
0.000302613
0.000674924
0.000250945
0.000692618
0.000203479
0.000703612
0.000159677
0.000707833
0.000120002
0.000705265
8.35123e-05
0.000695489
4.95842e-05
0.000678243
1.86106e-05
0.000653426
-1.16101e-05
0.000620738
-3.86131e-05
0.00058003
-6.70177e-05
0.000530583
-9.14117e-05
0.000472582
-0.000121835
0.00040373
-0.000146038
0.000327604
-0.000188634
0.000237168
-0.000223501
0.000153805
-0.000324878
5.03269e-05
-0.00048308
-3.44655e-05
-0.000972731
-0.00176108
-4.22272e-05
5.55206e-05
-4.09473e-05
8.03855e-05
-4.49923e-06
0.000183773
7.8743e-05
0.000255332
0.000177908
0.000330696
0.000289904
0.000359226
0.000394911
0.000369532
0.000489143
0.000355459
0.000569124
0.000327385
0.000634742
0.000289952
0.000685753
0.000251602
0.000725392
0.000211307
0.000753376
0.000175494
0.000772686
0.000140367
0.00078213
0.000110558
0.000784073
8.15692e-05
0.000776678
5.69786e-05
0.000762174
3.31154e-05
0.000738328
1.22355e-05
0.000707197
-7.48244e-06
0.0006666
-2.64201e-05
0.000617779
-4.25907e-05
0.000559104
-6.316e-05
0.000490305
-7.72384e-05
0.000412635
-0.000110963
0.000324304
-0.00013517
0.000233137
-0.000233711
0.000135632
-0.000385575
4.06407e-05
-0.00087774
-0.00172044
-0.000142261
0.000197781
-0.000131406
6.95309e-05
-9.7392e-05
0.000149759
-5.31273e-06
0.000163253
0.000105491
0.000219893
0.000234794
0.000229923
0.000355798
0.000248528
0.000473959
0.000237299
0.000573601
0.000227742
0.000659941
0.000203611
0.000727954
0.000183589
0.000782945
0.000156316
0.000822496
0.000135943
0.000851402
0.000111462
0.000867706
9.42536e-05
0.00087535
7.39257e-05
0.000872133
6.01954e-05
0.000861288
4.39604e-05
0.000841068
3.24558e-05
0.000813409
2.0176e-05
0.000777622
9.36705e-06
0.000734544
4.87384e-07
0.000683037
-1.16527e-05
0.000624217
-1.84193e-05
0.000554009
-4.07549e-05
0.000480876
-6.20368e-05
0.000388457
-0.000141293
0.000315412
-0.00031253
0.000191145
-0.000753473
-0.00152929
-8.76493e-05
0.000285431
-0.000162205
0.000144086
-0.000142502
0.000130056
-8.73716e-05
0.000108122
2.80014e-05
0.00010452
0.000153756
0.000104168
0.000292257
0.000110027
0.000420455
0.000109101
0.000539552
0.000108646
0.000642218
0.000100945
0.000730702
9.51049e-05
0.000802846
8.41729e-05
0.000861951
7.68377e-05
0.00090784
6.55719e-05
0.000942967
5.91273e-05
0.000968072
4.88202e-05
0.000984242
4.40257e-05
0.000993424
3.47778e-05
0.000994212
3.16679e-05
0.000991178
2.32101e-05
0.000978898
2.16471e-05
0.000966229
1.31565e-05
0.000941961
1.26157e-05
0.000921678
1.86306e-06
0.000879643
1.28067e-06
0.000841202
-2.3596e-05
0.000750869
-5.09602e-05
0.000645046
-0.000206706
0.000404413
-0.00051284
-0.00112488
0.000285431
0.000429517
0.000559573
0.000667695
0.000772215
0.000876383
0.00098641
0.00109551
0.00120416
0.0013051
0.00140021
0.00148438
0.00156122
0.00162679
0.00168592
0.00173474
0.00177876
0.00181354
0.00184521
0.00186842
0.00189006
0.00190322
0.00191584
0.0019177
0.00191898
0.00189538
0.00184442
0.00163772
0.00112488
)
;

boundaryField
{
    movingWall
    {
        type            calculated;
        value           uniform 0;
    }
    fixedWalls
    {
        type            calculated;
        value           uniform 0;
    }
    frontAndBack
    {
        type            empty;
    }
}


// ************************************************************************* //
