/*--------------------------------*- C++ -*----------------------------------*\
| =========                 |                                                 |
| \\      /  F ield         | OpenFOAM: The Open Source CFD Toolbox           |
|  \\    /   O peration     | Version:  2406                                  |
|   \\  /    A nd           | Website:  www.openfoam.com                      |
|    \\/     M anipulation  |                                                 |
\*---------------------------------------------------------------------------*/
FoamFile
{
    version     2.0;
    format      ascii;
    arch        "LSB;label=32;scalar=64";
    class       surfaceScalarField;
    location    "43.5";
    object      phi_0;
}
// * * * * * * * * * * * * * * * * * * * * * * * * * * * * * * * * * * * * * //

dimensions      [0 3 -1 0 0 0 0];

oriented        oriented;

internalField   nonuniform List<scalar> 
8064
(
2.36131e-07
-2.36115e-07
1.1773e-06
-9.41174e-07
2.59166e-06
-1.41436e-06
4.11817e-06
-1.52651e-06
5.45879e-06
-1.34062e-06
6.45134e-06
-9.92554e-07
7.06747e-06
-6.16127e-07
7.37337e-06
-3.05895e-07
7.47708e-06
-1.03713e-07
7.47395e-06
3.13409e-09
7.4206e-06
5.33423e-08
7.3131e-06
1.07506e-07
7.09706e-06
2.16036e-07
6.68451e-06
4.12551e-07
5.96889e-06
7.15624e-07
4.83808e-06
1.13081e-06
3.17603e-06
1.66205e-06
8.64367e-07
2.31166e-06
-2.21452e-06
3.07889e-06
-6.17038e-06
3.95586e-06
-1.10962e-05
4.9258e-06
-1.70532e-05
5.95707e-06
-2.40549e-05
7.00162e-06
-3.20505e-05
7.99564e-06
-4.09149e-05
8.86438e-06
-5.04432e-05
9.52829e-06
-6.03517e-05
9.90855e-06
-7.02851e-05
9.93336e-06
-7.98306e-05
9.54546e-06
-8.85406e-05
8.71005e-06
-9.59619e-05
7.42128e-06
-0.000101665
5.70327e-06
-0.000105269
3.60335e-06
-0.000106474
1.20537e-06
-0.000104953
-1.52094e-06
-0.000100503
-4.45011e-06
-9.31222e-05
-7.38065e-06
-8.2913e-05
-1.02092e-05
-7.0121e-05
-1.2792e-05
-5.51557e-05
-1.49653e-05
-3.85966e-05
-1.65591e-05
-2.11859e-05
-1.74107e-05
-3.79911e-06
-1.73868e-05
1.26671e-05
-1.64663e-05
2.7273e-05
-1.46059e-05
3.91652e-05
-1.18922e-05
4.77265e-05
-8.5613e-06
5.2654e-05
-4.92755e-06
5.40152e-05
-1.3612e-06
5.2184e-05
1.83127e-06
4.79009e-05
4.28306e-06
4.19913e-05
5.90963e-06
3.53176e-05
6.67362e-06
2.86165e-05
6.70113e-06
2.24112e-05
6.20532e-06
1.69959e-05
5.41525e-06
1.24722e-05
4.52371e-06
8.80769e-06
3.66454e-06
5.89612e-06
2.91157e-06
3.61132e-06
2.2848e-06
1.85963e-06
1.75169e-06
6.32067e-07
1.22757e-06
1.53135e-08
6.16753e-07
1.53134e-08
8.8101e-07
-1.11713e-06
3.17458e-06
-3.23474e-06
6.27947e-06
-4.51926e-06
9.50804e-06
-4.75507e-06
1.2302e-05
-4.13459e-06
1.43344e-05
-3.02497e-06
1.55119e-05
-1.79358e-06
1.59096e-05
-7.03613e-07
1.56768e-05
1.29142e-07
1.49485e-05
7.31413e-07
1.377e-05
1.23183e-06
1.20756e-05
1.80186e-06
9.69184e-06
2.59984e-06
6.37219e-06
3.7322e-06
1.82757e-06
5.26024e-06
-4.24305e-06
7.20144e-06
-1.21305e-05
9.54953e-06
-2.20981e-05
1.22792e-05
-3.43507e-05
1.53315e-05
-4.89918e-05
1.85969e-05
-6.59707e-05
2.19047e-05
-8.50407e-05
2.50271e-05
-0.000105746
2.77065e-05
-0.000127445
2.96952e-05
-0.000149372
3.07914e-05
-0.000170706
3.08623e-05
-0.000190646
2.98484e-05
-0.000208467
2.77543e-05
-0.000223552
2.4631e-05
-0.000235403
2.05609e-05
-0.000243633
1.56507e-05
-0.000247966
1.00365e-05
-0.000248267
3.90401e-06
-0.00024435
-2.71173e-06
-0.000236083
-9.78708e-06
-0.000223619
-1.69141e-05
-0.00020707
-2.39296e-05
-0.00018668
-3.05998e-05
-0.000162824
-3.66477e-05
-0.000136029
-4.17609e-05
-0.00010698
-4.56076e-05
-7.65311e-05
-4.78596e-05
-4.56847e-05
-4.82332e-05
-1.56004e-05
-4.65505e-05
1.25672e-05
-4.27735e-05
3.76928e-05
-3.70178e-05
5.85739e-05
-2.94424e-05
7.44257e-05
-2.07794e-05
8.4789e-05
-1.17245e-05
8.96901e-05
-3.06982e-06
8.9367e-05
4.60616e-06
8.45944e-05
1.06823e-05
7.6477e-05
1.4791e-05
6.62704e-05
1.69078e-05
5.51968e-05
1.72789e-05
4.42734e-05
1.63386e-05
3.42101e-05
1.4587e-05
2.53884e-05
1.24862e-05
1.79265e-05
1.03736e-05
1.17803e-05
8.43098e-06
6.86298e-06
6.66899e-06
3.16162e-06
4.92893e-06
8.07557e-07
2.97081e-06
8.2287e-07
1.37969e-06
-2.49681e-06
4.58194e-06
-6.43698e-06
8.64468e-06
-8.58201e-06
1.26709e-05
-8.78127e-06
1.59803e-05
-7.44398e-06
1.81814e-05
-5.22614e-06
1.91475e-05
-2.75969e-06
1.89274e-05
-4.83423e-07
1.76311e-05
1.42544e-06
1.53251e-05
3.03739e-06
1.19528e-05
4.60407e-06
7.31219e-06
6.44251e-06
1.06858e-06
8.84345e-06
-7.1978e-06
1.19986e-05
-1.79247e-05
1.59872e-05
-3.15271e-05
2.08039e-05
-4.83332e-05
2.63555e-05
-6.85023e-05
3.24483e-05
-9.1933e-05
3.87622e-05
-0.000118193
4.48572e-05
-0.000146521
5.02324e-05
-0.000175913
5.44192e-05
-0.000205271
5.70647e-05
-0.000233548
5.7972e-05
-0.00025985
5.7093e-05
-0.000283477
5.44898e-05
-0.00030392
5.02913e-05
-0.000320824
4.46588e-05
-0.000333956
3.77624e-05
-0.000343163
2.97683e-05
-0.000348351
2.08385e-05
-0.000349469
1.11548e-05
-0.000346574
1.00832e-06
-0.000339472
-9.81291e-06
-0.00032839
-2.08692e-05
-0.000313325
-3.19794e-05
-0.00029435
-4.29045e-05
-0.000271615
-5.33351e-05
-0.000245355
-6.29072e-05
-0.000215923
-7.1193e-05
-0.00018381
-7.77211e-05
-0.000149669
-8.20008e-05
-0.000114326
-8.35758e-05
-7.87795e-05
-8.2097e-05
-4.41753e-05
-7.73776e-05
-1.17362e-05
-6.94569e-05
1.75276e-05
-5.87062e-05
4.24622e-05
-4.5714e-05
6.21711e-05
-3.14334e-05
7.61412e-05
-1.70399e-05
8.44344e-05
-3.68702e-06
8.71594e-05
7.95727e-06
8.49184e-05
1.7032e-05
7.86812e-05
2.31449e-05
6.96106e-05
2.63495e-05
5.89332e-05
2.70161e-05
4.7767e-05
2.57532e-05
3.69879e-05
2.32653e-05
2.71634e-05
2.0198e-05
1.85855e-05
1.70089e-05
1.13786e-05
1.38759e-05
5.65447e-06
1.0653e-05
1.67159e-06
6.95369e-06
2.49446e-06
1.71314e-06
-4.20996e-06
5.46451e-06
-1.01884e-05
9.9556e-06
-1.30731e-05
1.41006e-05
-1.29263e-05
1.71524e-05
-1.04957e-05
1.87148e-05
-6.7886e-06
1.86623e-05
-2.70714e-06
1.70067e-05
1.17222e-06
1.3772e-05
4.6601e-06
8.88364e-06
7.92574e-06
2.10124e-06
1.13865e-05
-6.98444e-06
1.55282e-05
-1.88805e-05
2.07395e-05
-3.41208e-05
2.72389e-05
-5.31659e-05
3.50323e-05
-7.62768e-05
4.39148e-05
-0.000103382
5.3461e-05
-0.000133971
6.30374e-05
-0.000167091
7.18823e-05
-0.000201489
7.92546e-05
-0.000235838
8.45819e-05
-0.000268955
8.75364e-05
-0.000299915
8.80242e-05
-0.000328068
8.61255e-05
-0.000353005
8.20294e-05
-0.000374493
7.5978e-05
-0.000392427
6.8225e-05
-0.000406777
5.90087e-05
-0.000417553
4.85387e-05
-0.000424778
3.69935e-05
-0.000428471
2.45311e-05
-0.000428631
1.13149e-05
-0.000425144
-2.47811e-06
-0.00041819
-1.67674e-05
-0.000407673
-3.13858e-05
-0.000393533
-4.61192e-05
-0.000375724
-6.0714e-05
-0.000354233
-7.48259e-05
-0.000329108
-8.80326e-05
-0.000300484
-9.98171e-05
-0.000268622
-0.000109583
-0.000233946
-0.000116677
-0.000197078
-0.000120444
-0.000158858
-0.000120318
-0.000120327
-0.000115908
-8.2677e-05
-0.000107107
-4.71972e-05
-9.4186e-05
-1.50854e-05
-7.78258e-05
1.26475e-05
-5.91663e-05
3.51464e-05
-3.95388e-05
5.18845e-05
-2.04252e-05
6.30039e-05
-3.1621e-06
6.86594e-05
1.13765e-05
6.93746e-05
2.24297e-05
6.5952e-05
2.97722e-05
5.93909e-05
3.35771e-05
5.07883e-05
3.43557e-05
4.11967e-05
3.28569e-05
3.14951e-05
2.98996e-05
2.23264e-05
2.61776e-05
1.41319e-05
2.20704e-05
7.27577e-06
1.75091e-05
2.25215e-06
1.19773e-05
4.74661e-06
1.9416e-06
-6.15156e-06
5.94899e-06
-1.41957e-05
1.04001e-05
-1.75242e-05
1.40502e-05
-1.65764e-05
1.61325e-05
-1.2578e-05
1.62867e-05
-6.94285e-06
1.44074e-05
-8.27864e-07
1.04425e-05
5.13718e-06
4.29903e-06
1.08036e-05
-4.32109e-06
1.65459e-05
-1.58888e-05
2.29542e-05
-3.099e-05
3.06294e-05
-5.02152e-05
3.99647e-05
-7.39858e-05
5.10095e-05
-0.000102379
6.34252e-05
-0.000134971
7.65066e-05
-0.000170789
8.92793e-05
-0.000208444
0.000100692
-0.000246411
0.000109849
-0.000283321
0.000116165
-0.000318129
0.00011939
-0.000350145
0.000119552
-0.000378981
0.000116859
-0.000404463
0.000111607
-0.00042656
0.000104127
-0.000445325
9.47422e-05
-0.000460842
8.37429e-05
-0.00047321
7.13767e-05
-0.000482518
5.78458e-05
-0.000488835
4.33109e-05
-0.000492203
2.78989e-05
-0.000492581
1.16928e-05
-0.000489897
-5.16138e-06
-0.000484321
-2.23441e-05
-0.000475684
-4.00222e-05
-0.000463843
-5.79602e-05
-0.000448658
-7.58996e-05
-0.000429976
-9.35075e-05
-0.000407667
-0.000110341
-0.000381645
-0.00012584
-0.00035191
-0.000139317
-0.000318601
-0.000149986
-0.000282062
-0.000156983
-0.00024289
-0.000159489
-0.000201968
-0.000156829
-0.000160461
-0.000148615
-0.000119753
-0.000134894
-8.13098e-05
-0.000116269
-4.65473e-05
-9.39288e-05
-1.65745e-05
-6.95116e-05
7.89045e-06
-4.48901e-05
2.65403e-05
-2.1812e-05
3.95543e-05
-1.63749e-06
4.72697e-05
1.47143e-05
5.0222e-05
2.68199e-05
4.91293e-05
3.46699e-05
4.48649e-05
3.86201e-05
3.83917e-05
3.93301e-05
3.06592e-05
3.76321e-05
2.25078e-05
3.43291e-05
1.46408e-05
2.99374e-05
7.69451e-06
2.44554e-05
2.41889e-06
1.72529e-05
7.1655e-06
2.0866e-06
-8.23816e-06
6.05616e-06
-1.81653e-05
9.9824e-06
-2.14504e-05
1.25217e-05
-1.91158e-05
1.29431e-05
-1.29993e-05
1.09545e-05
-4.95428e-06
6.43976e-06
3.68686e-06
-7.09368e-07
1.22863e-05
-1.08194e-05
2.09136e-05
-2.43885e-05
3.0115e-05
-4.20709e-05
4.06366e-05
-6.44838e-05
5.30422e-05
-9.19712e-05
6.74521e-05
-0.000124381
8.34196e-05
-0.000160932
9.99764e-05
-0.000200265
0.000115839
-0.000240705
0.000129719
-0.000280628
0.000140616
-0.000318738
0.000147959
-0.000354161
0.000151587
-0.000386402
0.000151632
-0.000415252
0.000148402
-0.000440687
0.000142294
-0.000462794
0.000133715
-0.000481719
0.000123052
-0.000497626
0.00011065
-0.000510684
9.68008e-05
-0.00052105
8.17429e-05
-0.000528866
6.56617e-05
-0.00053425
4.86951e-05
-0.000537278
3.0927e-05
-0.000537939
1.2354e-05
-0.000536266
-6.83509e-06
-0.000532331
-2.6279e-05
-0.000526002
-4.63515e-05
-0.000517113
-6.68485e-05
-0.000505459
-8.75541e-05
-0.000490781
-0.000108185
-0.000472787
-0.000128335
-0.000451167
-0.00014746
-0.000425634
-0.000164851
-0.000395984
-0.000179635
-0.000362164
-0.000190804
-0.000324362
-0.000197291
-0.000283125
-0.000198066
-0.000239411
-0.000192329
-0.000194593
-0.000179711
-0.000150389
-0.000160473
-0.000108674
-0.000135644
-7.11763e-05
-0.000107009
-3.91848e-05
-7.68816e-05
-1.33308e-05
-4.76659e-05
6.37437e-06
-2.13427e-05
2.0274e-05
8.14675e-07
2.89933e-05
1.81006e-05
3.31613e-05
3.05018e-05
3.34852e-05
3.82963e-05
3.077e-05
4.20452e-05
2.5893e-05
4.25092e-05
1.97401e-05
4.04819e-05
1.31635e-05
3.65141e-05
7.00346e-06
3.06154e-05
2.19798e-06
2.20584e-05
9.36348e-06
2.1199e-06
-1.03581e-05
5.69361e-06
-2.1739e-05
8.55299e-06
-2.43098e-05
9.34488e-06
-1.99077e-05
7.43006e-06
-1.10845e-05
2.59553e-06
-1.19755e-07
-5.31695e-06
1.15993e-05
-1.65529e-05
2.35222e-05
-3.16162e-05
3.5977e-05
-5.11868e-05
4.96856e-05
-7.58862e-05
6.5336e-05
-0.000105987
8.31431e-05
-0.000141145
0.00010261
-0.000180296
0.00012257
-0.0002218
0.00014148
-0.000263808
0.000157847
-0.00030466
0.000170571
-0.000343133
0.000179089
-0.000378469
0.000183295
-0.000410295
0.000183414
-0.000438509
0.000179845
-0.000463173
0.000173066
-0.000484446
0.000163568
-0.000502543
0.000151812
-0.000517704
0.000138213
-0.000530177
0.000123123
-0.000540206
0.00010683
-0.000548019
8.95561e-05
-0.000553825
7.14675e-05
-0.000557802
5.26718e-05
-0.000560086
3.32117e-05
-0.000560765
1.30323e-05
-0.000559911
-7.68846e-06
-0.000557545
-2.86457e-05
-0.000553595
-5.03012e-05
-0.000547926
-7.2518e-05
-0.000540318
-9.5162e-05
-0.000530465
-0.000118038
-0.000517967
-0.000140833
-0.000502341
-0.000163086
-0.000483043
-0.000184149
-0.000459514
-0.000203164
-0.000431257
-0.000219061
-0.000397952
-0.000230596
-0.000359581
-0.000236437
-0.000316575
-0.000235335
-0.000269979
-0.000226307
-0.000221468
-0.000208984
-0.00017326
-0.000183853
-0.000127823
-0.000152446
-8.7418e-05
-0.000117286
-5.35992e-05
-8.14848e-05
-2.69029e-05
-4.80389e-05
-6.97313e-06
-1.91151e-05
6.9121e-06
4.21533e-06
1.56533e-05
2.17607e-05
2.00751e-05
3.38745e-05
2.09262e-05
4.11942e-05
1.90175e-05
4.44179e-05
1.52127e-05
4.42867e-05
1.04182e-05
4.13086e-05
5.58282e-06
3.54508e-05
1.72566e-06
2.59156e-05
1.10891e-05
1.97961e-06
-1.23377e-05
4.70543e-06
-2.44648e-05
5.89836e-06
-2.55027e-05
4.30375e-06
-1.83131e-05
-5.74705e-07
-6.20602e-06
-8.91487e-06
8.22041e-06
-2.09031e-05
2.35875e-05
-3.69797e-05
3.95989e-05
-5.77701e-05
5.67673e-05
-8.38822e-05
7.57977e-05
-0.000115549
9.70027e-05
-0.000152314
0.000119908
-0.000192937
0.000143233
-0.000235596
0.000165229
-0.000278321
0.000184205
-0.000319413
0.000198939
-0.000357673
0.000208831
-0.000392396
0.000213812
-0.000423273
0.000214172
-0.000450253
0.000210394
-0.000473454
0.000203045
-0.000493096
0.000192708
-0.000509466
0.000179937
-0.000522884
0.00016523
-0.000533686
0.000149015
-0.000542205
0.000131642
-0.000548757
0.000113381
-0.000553631
9.44306e-05
-0.000557086
7.49221e-05
-0.00055934
5.49258e-05
-0.000560578
3.44495e-05
-0.000560963
1.34175e-05
-0.000560593
-8.05814e-06
-0.000559449
-2.979e-05
-0.000557538
-5.22118e-05
-0.000554789
-7.52677e-05
-0.000551033
-9.89178e-05
-0.000545996
-0.000123074
-0.000539276
-0.000147553
-0.00053033
-0.000172032
-0.000518472
-0.000196007
-0.000502893
-0.000218744
-0.00048271
-0.000239243
-0.000457071
-0.000256235
-0.000425295
-0.000268213
-0.000387082
-0.000273548
-0.000342711
-0.000270679
-0.000293283
-0.000258413
-0.000240846
-0.000236289
-0.00018827
-0.000205022
-0.000138836
-0.000166721
-9.55228e-05
-0.000124798
-6.02209e-05
-8.33408e-05
-3.33095e-05
-4.60265e-05
-1.39723e-05
-1.5122e-05
-9.17646e-07
8.70606e-06
7.04939e-06
2.59074e-05
1.09724e-05
3.72712e-05
1.17235e-05
4.36667e-05
1.01718e-05
4.58385e-05
7.23985e-06
4.42406e-05
3.90578e-06
3.87848e-05
1.1737e-06
2.86476e-05
1.22628e-05
1.58952e-06
-1.39272e-05
2.93017e-06
-2.58055e-05
1.8217e-06
-2.43943e-05
-2.73284e-06
-1.37585e-05
-1.11041e-05
2.16523e-06
-2.34709e-05
2.05872e-05
-4.01001e-05
4.02167e-05
-6.15147e-05
6.10135e-05
-8.82716e-05
8.35243e-05
-0.000120592
0.000108118
-0.000157998
0.000134409
-0.000199182
0.000161093
-0.000242227
0.000186277
-0.000285063
0.000208066
-0.000325929
0.000225071
-0.000363592
0.000236602
-0.000397352
0.000242591
-0.000426913
0.000243373
-0.000452254
0.000239513
-0.000473538
0.000231678
-0.000491052
0.000220559
-0.00050516
0.000206817
-0.000516274
0.000191051
-0.000524819
0.000173775
-0.000531211
0.000155407
-0.000535838
0.000136269
-0.000539052
0.000116595
-0.00054116
9.65381e-05
-0.000542421
7.61833e-05
-0.000543053
5.55573e-05
-0.000543241
3.46375e-05
-0.000543176
1.3353e-05
-0.000542965
-8.26983e-06
-0.00054255
-3.02042e-05
-0.000542025
-5.27375e-05
-0.000541393
-7.58995e-05
-0.000540576
-9.97341e-05
-0.000539403
-0.000124248
-0.000537572
-0.000149383
-0.000534627
-0.000174977
-0.000529917
-0.000200717
-0.000522579
-0.000226082
-0.000511544
-0.000250279
-0.000495587
-0.000272191
-0.000473448
-0.000290353
-0.000444018
-0.000302977
-0.000406616
-0.000308081
-0.000361311
-0.000303718
-0.000309229
-0.000288371
-0.000252829
-0.000261421
-0.000195776
-0.000223774
-0.000142368
-0.000178206
-9.64661e-05
-0.000129243
-6.03074e-05
-8.21852e-05
-3.39659e-05
-4.14634e-05
-1.59932e-05
-9.26664e-06
-4.46731e-06
1.43815e-05
2.1985e-06
3.06054e-05
5.21205e-06
4.06531e-05
5.60378e-06
4.54467e-05
4.33757e-06
4.55068e-05
2.388e-06
4.07344e-05
6.91348e-07
3.03443e-05
1.29542e-05
8.8081e-07
-1.4808e-05
2.45361e-07
-2.517e-05
-3.70182e-06
-2.04471e-05
-1.17168e-05
-5.74354e-06
-2.40213e-05
1.44697e-05
-4.07656e-05
3.73316e-05
-6.22954e-05
6.17465e-05
-8.90667e-05
8.77848e-05
-0.000121296
0.000115754
-0.000158554
0.000145377
-0.000199573
0.000175427
-0.000242415
0.000203935
-0.00028494
0.000228803
-0.000325291
0.000248417
-0.00036216
0.000261939
-0.000394802
0.000269245
-0.00042291
0.000270698
-0.000446477
0.000266941
-0.000465714
0.00025875
-0.000480977
0.000246941
-0.000492721
0.000232302
-0.000501449
0.000215545
-0.000507676
0.000197278
-0.000511892
0.000177992
-0.000514545
0.00015806
-0.000516024
0.000137748
-0.000516655
0.000117227
-0.000516707
9.65902e-05
-0.000516394
7.58705e-05
-0.000515889
5.50517e-05
-0.000515338
3.40865e-05
-0.000514899
1.29142e-05
-0.000514654
-8.51437e-06
-0.00051457
-3.02882e-05
-0.000514768
-5.25395e-05
-0.000515306
-7.53622e-05
-0.000516194
-9.8846e-05
-0.000517386
-0.000123056
-0.000518742
-0.000148027
-0.00051999
-0.000173729
-0.000520671
-0.000200036
-0.000520085
-0.000226668
-0.000517244
-0.000253119
-0.00051086
-0.000278576
-0.00049938
-0.000301833
-0.000481116
-0.000321242
-0.000454476
-0.00033472
-0.000418323
-0.000339871
-0.000372424
-0.000334271
-0.000317901
-0.000315944
-0.000257645
-0.00028403
-0.000196255
-0.000239596
-0.000139242
-0.000186255
-9.14641e-05
-0.000129963
-5.53922e-05
-7.75353e-05
-3.05165e-05
-3.41423e-05
-1.45814e-05
-1.55358e-06
-5.012e-06
2.1036e-05
8.31819e-08
3.5558e-05
2.09611e-06
4.34338e-05
2.17149e-06
4.54314e-05
1.30594e-06
4.16e-05
3.74879e-07
3.12754e-05
1.33291e-05
-1.9259e-07
-1.46154e-05
-3.32155e-06
-2.20411e-05
-1.06107e-05
-1.3158e-05
-2.24364e-05
6.08216e-06
-3.88787e-05
3.0912e-05
-6.00987e-05
5.85516e-05
-8.6396e-05
8.80438e-05
-0.00011796
0.000119349
-0.000154453
0.000152246
-0.000194729
0.000185653
-0.000236917
0.000217616
-0.000278842
0.00024586
-0.000318538
0.000268499
-0.000354583
0.000284461
-0.000386148
0.000293505
-0.000412889
0.000295986
-0.000434807
0.000292616
-0.000452153
0.000284287
-0.000465357
0.000271955
-0.000474964
0.000256548
-0.000481571
0.000238909
-0.000485776
0.00021975
-0.000488138
0.00019964
-0.000489149
0.000179003
-0.00048922
0.000158131
-0.000488682
0.000137209
-0.000487787
0.000116332
-0.000486726
9.55292e-05
-0.000485638
7.47828e-05
-0.00048463
5.40433e-05
-0.00048379
3.32469e-05
-0.00048321
1.23342e-05
-0.000482941
-8.78334e-06
-0.000482997
-3.02324e-05
-0.00048347
-5.20665e-05
-0.000484442
-7.439e-05
-0.000485986
-9.73018e-05
-0.000488153
-0.00012089
-0.000490947
-0.000145233
-0.00049429
-0.000170386
-0.000497972
-0.000196354
-0.00050158
-0.000223061
-0.000504419
-0.00025028
-0.000505443
-0.000277552
-0.000503203
-0.000304073
-0.000495863
-0.000328582
-0.000481321
-0.000349262
-0.000457479
-0.000363713
-0.000422684
-0.000369066
-0.000376325
-0.000362304
-0.000319491
-0.000340864
-0.00025554
-0.000303548
-0.000190165
-0.00025163
-0.000130287
-0.000189841
-8.17718e-05
-0.00012605
-4.70198e-05
-6.88944e-05
-2.45352e-05
-2.40381e-05
-1.11185e-05
7.61918e-06
-3.71952e-06
2.8159e-05
-2.06567e-07
3.99208e-05
9.12955e-07
4.43119e-05
7.71725e-07
4.17412e-05
2.60919e-07
3.17862e-05
1.359e-05
-1.62761e-06
-1.29878e-05
-7.72437e-06
-1.59443e-05
-1.86696e-05
-2.21277e-06
-3.44109e-05
2.18235e-05
-5.49681e-05
5.14692e-05
-8.04359e-05
8.40194e-05
-0.000110927
0.000118535
-0.000146194
0.000154616
-0.000185278
0.000191331
-0.000226458
0.000226833
-0.000267583
0.00025874
-0.000306589
0.000284865
-0.000341908
0.000303818
-0.000372592
0.000315145
-0.00039823
0.000319143
-0.000418813
0.000316568
-0.000434623
0.000308426
-0.000446156
0.00029582
-0.000454041
0.00027984
-0.000458964
0.000261471
-0.000461601
0.000241546
-0.00046257
0.00022072
-0.000462401
0.000199471
-0.000461517
0.000178119
-0.000460242
0.000156855
-0.000458806
0.000135773
-0.000457367
0.000114893
-0.000456024
9.4187e-05
-0.000454841
7.35997e-05
-0.000453859
5.30605e-05
-0.000453109
3.24977e-05
-0.000452631
1.18561e-05
-0.000452446
-8.96888e-06
-0.000452584
-3.00946e-05
-0.000453117
-5.15329e-05
-0.000454128
-7.33797e-05
-0.00045571
-9.57197e-05
-0.000457964
-0.000118636
-0.000460982
-0.000142215
-0.000464825
-0.000166543
-0.000469481
-0.000191698
-0.000474812
-0.00021773
-0.000480474
-0.000244618
-0.000485822
-0.000272203
-0.0004898
-0.000300095
-0.000490858
-0.000327524
-0.000486932
-0.000353187
-0.000475549
-0.000375096
-0.00045411
-0.000390505
-0.00042042
-0.000395993
-0.000373451
-0.000387833
-0.000314251
-0.000362747
-0.000246746
-0.000319134
-0.00017794
-0.000258648
-0.000116345
-0.000187645
-6.86706e-05
-0.000116569
-3.66399e-05
-5.60688e-05
-1.74037e-05
-1.16171e-05
-6.80718e-06
1.75625e-05
-1.57926e-06
3.46929e-05
4.51006e-07
4.22816e-05
7.40921e-07
4.14513e-05
3.32373e-07
3.21947e-05
1.39224e-05
-3.38299e-06
-9.60481e-06
-1.27658e-05
-6.56153e-06
-2.74053e-05
1.24268e-05
-4.69892e-05
4.14074e-05
-7.13728e-05
7.58528e-05
-0.000100531
0.000113178
-0.000134265
0.000152268
-0.00017182
0.000192172
-0.000211704
0.000231215
-0.000251873
0.000267002
-0.000290204
0.000297071
-0.000324971
0.000319633
-0.000355068
0.000333914
-0.00037998
0.000340057
-0.000399658
0.000338821
-0.000414397
0.000331307
-0.000424741
0.000318769
-0.000431389
0.000302469
-0.000435109
0.000283559
-0.000436648
0.00026301
-0.00043668
0.000241578
-0.000435765
0.000219804
-0.000434335
0.000198041
-0.000432705
0.000176489
-0.000431082
0.000155232
-0.000429589
0.00013428
-0.000428289
0.000113593
-0.000427207
9.31042e-05
-0.000426343
7.27362e-05
-0.000425693
5.24108e-05
-0.000425253
3.20574e-05
-0.000425021
1.16236e-05
-0.000425005
-8.98486e-06
-0.000425241
-2.98585e-05
-0.000425776
-5.09974e-05
-0.000426681
-7.24747e-05
-0.000428048
-9.43525e-05
-0.000429989
-0.000116695
-0.000432629
-0.000139574
-0.000436097
-0.000163076
-0.000440498
-0.000187296
-0.000445886
-0.000212343
-0.000452192
-0.000238311
-0.000459147
-0.000265249
-0.000466163
-0.000293079
-0.000472203
-0.000321484
-0.000475656
-0.000349735
-0.000474272
-0.00037648
-0.000465246
-0.000399531
-0.000445508
-0.000415731
-0.000412333
-0.000421009
-0.000364287
-0.000410793
-0.00030244
-0.000380981
-0.00023149
-0.000329598
-0.00016007
-0.000259065
-9.84257e-05
-0.000178213
-5.35904e-05
-0.000100904
-2.57231e-05
-3.94844e-05
-1.03141e-05
2.1536e-06
-2.66302e-06
2.70418e-05
4.38738e-07
3.91799e-05
1.04242e-06
4.08476e-05
5.32002e-07
3.27051e-05
1.44544e-05
-5.34479e-06
-4.26002e-06
-1.80715e-05
6.16513e-06
-3.63197e-05
3.0675e-05
-5.94129e-05
6.45007e-05
-8.70885e-05
0.000103528
-0.000119114
0.000145204
-0.000154912
0.000188066
-0.000193265
0.000230524
-0.000232327
0.000270277
-0.000269994
0.000304668
-0.000304397
0.000331474
-0.000334237
0.000349473
-0.000358851
0.000358528
-0.000378112
0.000359318
-0.000392291
0.000353001
-0.000401955
0.000340972
-0.000407859
0.000324673
-0.000410836
0.000305446
-0.000411701
0.000284424
-0.000411179
0.000262488
-0.000409861
0.00024026
-0.000408193
0.000218136
-0.000406479
0.000196327
-0.000404906
0.000174916
-0.000403569
0.000153896
-0.000402501
0.000133212
-0.000401694
0.000112786
-0.000401121
9.25311e-05
-0.000400748
7.23632e-05
-0.000400545
5.22075e-05
-0.000400488
3.20005e-05
-0.000400559
1.16943e-05
-0.000400761
-8.78276e-06
-0.000401124
-2.9495e-05
-0.00040168
-5.04421e-05
-0.000402481
-7.16731e-05
-0.000403605
-9.32281e-05
-0.000405151
-0.000115149
-0.000407239
-0.000137486
-0.000410012
-0.000160303
-0.000413623
-0.000183685
-0.00041822
-0.000207745
-0.00042391
-0.000232621
-0.000430693
-0.000258465
-0.000438372
-0.000285401
-0.000446414
-0.000313441
-0.000453803
-0.000342346
-0.000458866
-0.000371416
-0.000459181
-0.000399216
-0.000451626
-0.000423287
-0.000432685
-0.000439949
-0.000399146
-0.000444333
-0.00034925
-0.000430877
-0.000284266
-0.000394582
-0.000210035
-0.000333295
-0.000137269
-0.00025098
-7.78957e-05
-0.000160278
-3.81624e-05
-7.92177e-05
-1.5608e-05
-2.04007e-05
-4.31649e-06
1.57503e-05
3.76307e-07
3.44871e-05
1.42623e-06
3.97977e-05
7.79162e-07
3.33522e-05
1.52335e-05
-7.35698e-06
3.09696e-06
-2.32831e-05
2.20912e-05
-4.48213e-05
5.22132e-05
-7.09151e-05
9.05945e-05
-0.000101161
0.000133774
-0.000135075
0.000179118
-0.000171711
0.000224701
-0.000209503
0.000268316
-0.000246465
0.000307239
-0.000280643
0.000338846
-0.000310535
0.000361367
-0.00033528
0.000374218
-0.000354617
0.000377865
-0.000368756
0.000373456
-0.00037825
0.000362495
-0.000383881
0.000346602
-0.000386534
0.000327327
-0.000387086
0.000305998
-0.000386314
0.000283652
-0.000384846
0.00026102
-0.000383143
0.000238558
-0.00038151
0.000216503
-0.000380119
0.000194936
-0.000379044
0.000173841
-0.000378294
0.000153146
-0.000377838
0.000132756
-0.000377627
0.000112575
-0.000377609
9.25126e-05
-0.000377735
7.24894e-05
-0.000377968
5.24404e-05
-0.00037828
3.23125e-05
-0.000378651
1.20648e-05
-0.000379082
-8.35154e-06
-0.000379597
-2.89801e-05
-0.000380215
-4.98234e-05
-0.000380977
-7.09112e-05
-0.000381939
-9.22665e-05
-0.000383175
-0.000113913
-0.000384784
-0.000135878
-0.000386885
-0.000158202
-0.000389628
-0.000180942
-0.000393185
-0.000204189
-0.000397736
-0.00022807
-0.000403439
-0.000252762
-0.000410362
-0.000278478
-0.000418375
-0.000305428
-0.000427
-0.000333721
-0.00043522
-0.000363197
-0.000441278
-0.000393157
-0.000442547
-0.000422018
-0.000435565
-0.000446931
-0.000416382
-0.000463516
-0.000381359
-0.0004659
-0.000328582
-0.000447359
-0.000259861
-0.000402016
-0.000182804
-0.000328037
-0.000110722
-0.00023236
-5.6622e-05
-0.000133317
-2.4064e-05
-5.29588e-05
-7.42479e-06
-8.88939e-07
-2.69231e-07
2.73315e-05
1.62515e-06
3.79033e-05
9.89838e-07
3.39875e-05
1.62234e-05
-9.24419e-06
1.23412e-05
-2.80811e-05
4.09281e-05
-5.23904e-05
7.65225e-05
-8.08255e-05
0.000119029
-0.00011281
0.000165758
-0.0001476
0.000213908
-0.000183944
0.000261046
-0.000220083
0.000304455
-0.000254074
0.00034123
-0.000284245
0.000369017
-0.000309497
0.000386618
-0.000329377
0.000394098
-0.000343976
0.000392465
-0.000353793
0.000383273
-0.0003596
0.000368302
-0.000362315
0.000349317
-0.000362866
0.000327878
-0.000362086
0.000305218
-0.000360649
0.000282214
-0.000359041
0.000259412
-0.000357577
0.000237094
-0.000356424
0.00021535
-0.000355644
0.000194156
-0.000355229
0.000173426
-0.000355131
0.000153047
-0.000355286
0.000132911
-0.000355628
0.000112917
-0.000356099
9.29835e-05
-0.000356651
7.30421e-05
-0.000357251
5.30403e-05
-0.000357875
3.29365e-05
-0.000358508
1.26978e-05
-0.000359152
-7.70731e-06
-0.000359825
-2.83071e-05
-0.000360543
-4.91063e-05
-0.000361332
-7.01219e-05
-0.000362233
-9.13658e-05
-0.000363296
-0.000112849
-0.000364591
-0.000134583
-0.000366205
-0.000156588
-0.000368253
-0.000178894
-0.000370883
-0.000201558
-0.000374278
-0.000224675
-0.000378647
-0.000248393
-0.000384195
-0.000272931
-0.000391054
-0.000298569
-0.000399162
-0.000325612
-0.000408084
-0.000354275
-0.000416777
-0.000384465
-0.000423351
-0.000415444
-0.000424907
-0.000445375
-0.000417586
-0.000470837
-0.00039699
-0.000486495
-0.000359157
-0.000485192
-0.000302298
-0.000458875
-0.000229346
-0.000400989
-0.000150607
-0.000311099
-8.23652e-05
-0.000201559
-3.68583e-05
-9.84656e-05
-1.27014e-05
-2.50459e-05
-1.9097e-06
1.65398e-05
1.43011e-06
3.45635e-05
1.10086e-06
3.43168e-05
1.73242e-05
-1.091e-05
2.32512e-05
-3.2144e-05
6.21621e-05
-5.85966e-05
0.000102975
-8.86337e-05
0.000149067
-0.0001215
0.000198625
-0.000156222
0.00024863
-0.000191341
0.000296164
-0.000225049
0.000338164
-0.000255587
0.000371768
-0.000281618
0.000395048
-0.00030244
0.00040744
-0.000317961
0.000409619
-0.000328568
0.000403072
-0.000334983
0.000389688
-0.000338126
0.000371444
-0.000338963
0.000350154
-0.000338384
0.000327299
-0.000337115
0.000303949
-0.000335685
0.000280785
-0.000334431
0.000258158
-0.000333529
0.000236191
-0.000333036
0.000214857
-0.000332935
0.000194055
-0.000333166
0.000173657
-0.000333656
0.000153537
-0.000334329
0.000133584
-0.00033512
0.000113709
-0.000335978
9.3841e-05
-0.000336862
7.39267e-05
-0.000337747
5.39253e-05
-0.000338617
3.38059e-05
-0.000339463
1.35441e-05
-0.00034029
-6.88046e-06
-0.000341111
-2.74856e-05
-0.000341941
-4.82765e-05
-0.0003428
-6.92628e-05
-0.000343716
-9.04503e-05
-0.000344722
-0.000111843
-0.000345861
-0.000133444
-0.00034719
-0.000155259
-0.000348786
-0.000177299
-0.000350753
-0.000199591
-0.000353236
-0.000222192
-0.000356425
-0.000245204
-0.000360554
-0.000268801
-0.000365874
-0.000293249
-0.000372578
-0.000318908
-0.000380667
-0.000346186
-0.000389725
-0.000375406
-0.000398644
-0.000406525
-0.000405329
-0.000438691
-0.000406512
-0.000469653
-0.000397859
-0.000495148
-0.000374518
-0.000508534
-0.000332362
-0.000501031
-0.000270201
-0.00046315
-0.000193033
-0.000388267
-0.000115049
-0.000279544
-5.50113e-05
-0.000158503
-2.06755e-05
-5.93817e-05
-4.83234e-06
6.9669e-07
7.22374e-07
2.90088e-05
1.08263e-06
3.39565e-05
1.84068e-05
-1.22052e-05
3.54563e-05
-3.52278e-05
8.51847e-05
-6.31348e-05
0.000130882
-9.40214e-05
0.000179953
-0.000126964
0.000231568
-0.000160812
0.000282478
-0.000194006
0.000329358
-0.000224819
0.000368977
-0.00025174
0.000398689
-0.000273788
0.000417096
-0.00029062
0.000424272
-0.000302446
0.000421445
-0.000309885
0.000410512
-0.000313817
0.00039362
-0.000315223
0.00037285
-0.000315043
0.000349974
-0.000314066
0.000326322
-0.000312877
0.000302761
-0.000311853
0.000279761
-0.000311192
0.000257497
-0.00031096
0.000235959
-0.000311136
0.000215034
-0.000311657
0.000194576
-0.00031244
0.00017444
-0.000313405
0.000154502
-0.000314481
0.000134661
-0.000315614
0.000114842
-0.000316761
9.49881e-05
-0.000317894
7.50591e-05
-0.000318994
5.50251e-05
-0.000320052
3.48639e-05
-0.000321066
1.45586e-05
-0.000322043
-5.90379e-06
-0.000322994
-2.65344e-05
-0.000323933
-4.73375e-05
-0.000324877
-6.83186e-05
-0.000325847
-8.94807e-05
-0.000326865
-0.000110825
-0.000327957
-0.000132351
-0.000329157
-0.000154058
-0.000330509
-0.000175947
-0.000332075
-0.000198025
-0.000333951
-0.000220317
-0.000336276
-0.000242879
-0.000339249
-0.000265828
-0.000343131
-0.000289367
-0.000348219
-0.00031382
-0.000354765
-0.00033964
-0.000362815
-0.000367356
-0.000371941
-0.000397398
-0.000380902
-0.00042973
-0.000387293
-0.000463262
-0.000387363
-0.000495078
-0.000376211
-0.000519686
-0.000348571
-0.000528671
-0.000300454
-0.000511267
-0.000232023
-0.000456698
-0.000151834
-0.000359733
-7.90493e-05
-0.000231288
-3.18488e-05
-0.000106582
-9.17306e-06
-2.1979e-05
-5.41092e-07
2.03768e-05
9.37926e-07
3.24775e-05
1.93448e-05
-1.30402e-05
4.84965e-05
-3.71821e-05
0.000109327
-6.58438e-05
0.000159544
-9.68656e-05
0.000210975
-0.000129178
0.00026388
-0.00016152
0.00031482
-0.000192331
0.000360169
-0.000220042
0.000396688
-0.000243427
0.000422074
-0.000261841
0.000435511
-0.000275248
0.000437679
-0.000284099
0.000430296
-0.000289179
0.000415592
-0.000291448
0.000395889
-0.00029188
0.000373281
-0.000291327
0.000349422
-0.000290445
0.00032544
-0.000289668
0.000301984
-0.000289234
0.000279327
-0.00028923