/*--------------------------------*- C++ -*----------------------------------*\
| =========                 |                                                 |
| \\      /  F ield         | OpenFOAM: The Open Source CFD Toolbox           |
|  \\    /   O peration     | Version:  2406                                  |
|   \\  /    A nd           | Website:  www.openfoam.com                      |
|    \\/     M anipulation  |                                                 |
\*---------------------------------------------------------------------------*/
FoamFile
{
    version     2.0;
    format      ascii;
    arch        "LSB;label=32;scalar=64";
    class       surfaceScalarField;
    location    "8.15";
    object      phi;
}
// * * * * * * * * * * * * * * * * * * * * * * * * * * * * * * * * * * * * * //

dimensions      [0 3 -1 0 0 0 0];

oriented        oriented;

internalField   nonuniform List<scalar> 
7080
(
1.5422e-08
-1.54828e-08
-1.24447e-07
1.42026e-07
-3.90147e-07
2.65326e-07
-7.44134e-07
3.56556e-07
-1.14097e-06
3.969e-07
-1.55704e-06
4.18738e-07
-1.97708e-06
4.20471e-07
-2.39393e-06
4.19358e-07
-2.80532e-06
4.12053e-07
-3.20936e-06
4.06337e-07
-3.60689e-06
3.98357e-07
-3.99664e-06
3.91805e-07
-4.37918e-06
3.83477e-07
-4.75269e-06
3.75375e-07
-5.11682e-06
3.65112e-07
-5.46904e-06
3.53885e-07
-5.80799e-06
3.39929e-07
-6.13049e-06
3.23962e-07
-6.43422e-06
3.04646e-07
-6.71538e-06
2.82401e-07
-6.97081e-06
2.56217e-07
-7.1962e-06
2.26375e-07
-7.38779e-06
1.92185e-07
-7.54105e-06
1.53945e-07
-7.65205e-06
1.11338e-07
-7.71654e-06
6.48356e-08
-7.73107e-06
1.45603e-08
-7.69239e-06
-3.87236e-08
-7.5983e-06
-9.44122e-08
-7.44735e-06
-1.51404e-07
-7.23939e-06
-2.08652e-07
-6.97545e-06
-2.64786e-07
-6.65804e-06
-3.18464e-07
-6.29102e-06
-3.6824e-07
-5.87966e-06
-4.1273e-07
-5.43048e-06
-4.50696e-07
-4.95107e-06
-4.81009e-07
-4.44987e-06
-5.02935e-07
-3.93573e-06
-5.15853e-07
-3.41783e-06
-5.19739e-07
-2.90497e-06
-5.14596e-07
-2.40566e-06
-5.01142e-07
-1.92737e-06
-4.79921e-07
-1.47686e-06
-4.52238e-07
-1.05938e-06
-4.18908e-07
-6.79437e-07
-3.81504e-07
-3.39876e-07
-3.40716e-07
-4.32306e-08
-2.97992e-07
2.09426e-07
-2.5348e-07
4.16457e-07
-2.08144e-07
5.77299e-07
-1.61282e-07
6.89658e-07
-1.13232e-07
7.52144e-07
-6.24865e-08
7.60757e-07
-9.24905e-09
7.1362e-07
4.76374e-08
6.07903e-07
1.05276e-07
4.49933e-07
1.58972e-07
2.57658e-07
1.91862e-07
8.02814e-08
1.78706e-07
8.02364e-08
-1.47673e-07
1.30084e-07
-6.17051e-07
6.11601e-07
-1.3386e-06
9.83223e-07
-2.23861e-06
1.25577e-06
-3.24509e-06
1.39922e-06
-4.30768e-06
1.47977e-06
-5.39401e-06
1.50264e-06
-6.48337e-06
1.50675e-06
-7.56664e-06
1.49138e-06
-8.63639e-06
1.47392e-06
-9.69108e-06
1.4494e-06
-1.07266e-05
1.42502e-06
-1.17419e-05
1.3954e-06
-1.27324e-05
1.36362e-06
-1.36956e-05
1.32524e-06
-1.46256e-05
1.28161e-06
-1.55177e-05
1.22929e-06
-1.63646e-05
1.16877e-06
-1.71597e-05
1.09734e-06
-1.78942e-05
1.01509e-06
-1.856e-05
9.19979e-07
-1.91471e-05
8.12063e-07
-1.96465e-05
6.90098e-07
-2.00481e-05
5.54511e-07
-2.03427e-05
4.05072e-07
-2.05213e-05
2.42986e-07
-2.05762e-05
6.92723e-08
-2.05008e-05
-1.13802e-07
-2.02908e-05
-3.03864e-07
-1.99437e-05
-4.97536e-07
-1.94598e-05
-6.91243e-07
-1.8842e-05
-8.80781e-07
-1.80966e-05
-1.06185e-06
-1.72324e-05
-1.23004e-06
-1.62613e-05
-1.38109e-06
-1.51978e-05
-1.51121e-06
-1.40586e-05
-1.61705e-06
-1.28619e-05
-1.69628e-06
-1.16272e-05
-1.74716e-06
-1.03741e-05
-1.76938e-06
-9.12202e-06
-1.7631e-06
-7.88967e-06
-1.73012e-06
-6.69388e-06
-1.6723e-06
-5.55e-06
-1.59304e-06
-4.4707e-06
-1.4951e-06
-3.46698e-06
-1.38258e-06
-2.54699e-06
-1.25802e-06
-1.71792e-06
-1.12498e-06
-9.84665e-07
-9.84547e-07
-3.52724e-07
-8.38655e-07
1.73771e-07
-6.86124e-07
5.88135e-07
-5.26892e-07
8.84792e-07
-3.5805e-07
1.05487e-06
-1.79432e-07
1.09382e-06
9.21653e-09
9.98355e-07
1.99772e-07
7.82948e-07
3.74505e-07
4.81168e-07
4.91947e-07
1.7599e-07
4.8402e-07
2.54951e-07
-3.03638e-07
4.33793e-07
-1.0771e-06
1.38888e-06
-2.19751e-06
2.1033e-06
-3.54967e-06
2.61204e-06
-5.04842e-06
2.89873e-06
-6.62584e-06
3.06129e-06
-8.24187e-06
3.12007e-06
-9.86632e-06
3.1351e-06
-1.14858e-05
3.1126e-06
-1.30878e-05
3.07957e-06
-1.46685e-05
3.03204e-06
-1.62206e-05
2.98043e-06
-1.77411e-05
2.91799e-06
-1.92229e-05
2.84838e-06
-2.0661e-05
2.76536e-06
-2.20465e-05
2.66991e-06
-2.33721e-05
2.55689e-06
-2.4627e-05
2.42609e-06
-2.58013e-05
2.27341e-06
-2.68824e-05
2.09824e-06
-2.78584e-05
1.89756e-06
-2.87158e-05
1.67103e-06
-2.94416e-05
1.41704e-06
-3.00222e-05
1.13626e-06
-3.04454e-05
8.28931e-07
-3.06993e-05
4.97417e-07
-3.07743e-05
1.44272e-07
-3.06622e-05
-2.26044e-07
-3.03581e-05
-6.08526e-07
-2.98598e-05
-9.96635e-07
-2.9169e-05
-1.38328e-06
-2.82908e-05
-1.76048e-06
-2.72346e-05
-2.12e-06
-2.60132e-05
-2.45359e-06
-2.46434e-05
-2.75333e-06
-2.3145e-05
-3.01224e-06
-2.15407e-05
-3.2242e-06
-1.9855e-05
-3.385e-06
-1.81137e-05
-3.49157e-06
-1.63429e-05
-3.54335e-06
-1.45683e-05
-3.54084e-06
-1.28143e-05
-3.48724e-06
-1.11034e-05
-3.38611e-06
-9.45591e-06
-3.24352e-06
-7.88886e-06
-3.06473e-06
-6.41718e-06
-2.8569e-06
-5.0524e-06
-2.62492e-06
-3.80477e-06
-2.37483e-06
-2.68197e-06
-2.10891e-06
-1.69233e-06
-1.83006e-06
-8.42905e-07
-1.53648e-06
-1.43648e-07
-1.22742e-06
3.96415e-07
-8.98344e-07
7.64902e-07
-5.48703e-07
9.54576e-07
-1.79928e-07
9.60891e-07
1.93086e-07
8.00581e-07
5.36085e-07
5.12992e-07
7.79273e-07
1.94893e-07
8.03838e-07
4.50001e-07
-4.4389e-07
8.74958e-07
-1.48805e-06
2.43462e-06
-2.94861e-06
3.55948e-06
-4.67169e-06
4.33556e-06
-6.56384e-06
4.78683e-06
-8.54647e-06
5.04342e-06
-1.05774e-05
5.1472e-06
-1.26203e-05
5.17699e-06
-1.46597e-05
5.1485e-06
-1.66787e-05
5.09727e-06
-1.86715e-05
5.02169e-06
-2.06276e-05
4.93494e-06
-2.2542e-05
4.8296e-06
-2.44048e-05
4.70958e-06
-2.62091e-05
4.56708e-06
-2.79432e-05
4.40243e-06
-2.95974e-05
4.20883e-06
-3.11581e-05
3.98521e-06
-3.26127e-05
3.72605e-06
-3.39458e-05
3.42997e-06
-3.51428e-05
3.09301e-06
-3.61874e-05
2.71456e-06
-3.70644e-05
2.2928e-06
-3.77578e-05
1.82894e-06
-3.82536e-05
1.32408e-06
-3.85386e-05
7.82161e-07
-3.86024e-05
2.07848e-07
-3.84366e-05
-3.9163e-07
-3.80367e-05
-1.00798e-06
-3.74018e-05
-1.63084e-06
-3.65352e-05
-2.24895e-06
-3.54444e-05
-2.8499e-06
-3.41419e-05
-3.42099e-06
-3.26441e-05
-3.94963e-06
-3.09716e-05
-4.42382e-06
-2.91486e-05
-4.83311e-06
-2.7202e-05
-5.16848e-06
-2.51608e-05
-5.42375e-06
-2.30552e-05
-5.5946e-06
-2.09156e-05
-5.68044e-06
-1.87715e-05
-5.68233e-06
-1.6651e-05
-5.60525e-06
-1.45797e-05
-5.45487e-06
-1.25806e-05
-5.24035e-06
-1.06732e-05
-4.96981e-06
-8.87426e-06
-4.65393e-06
-7.19695e-06
-4.30017e-06
-5.65291e-06
-3.91738e-06
-4.2511e-06
-3.50901e-06
-3.00111e-06
-3.07906e-06
-1.91136e-06
-2.62489e-06
-9.93252e-07
-2.1451e-06
-2.57412e-07
-1.63324e-06
2.82424e-07
-1.08873e-06
6.17689e-07
-5.14588e-07
7.43473e-07
6.64786e-08
6.75909e-07
6.04055e-07
4.55336e-07
9.98463e-07
1.77692e-07
1.08193e-06
6.2671e-07
-5.46764e-07
1.42113e-06
-1.8094e-06
3.70218e-06
-3.5506e-06
5.29893e-06
-5.58023e-06
6.36956e-06
-7.7938e-06
6.99992e-06
-1.01029e-05
7.35641e-06
-1.24644e-05
7.509e-06
-1.48379e-05
7.55399e-06
-1.72073e-05
7.51871e-06
-1.95528e-05
7.44589e-06
-2.18673e-05
7.33732e-06
-2.41378e-05
7.20813e-06
-2.63577e-05
7.05082e-06
-2.85147e-05
6.86909e-06
-3.06001e-05
6.65386e-06
-3.26e-05
6.40452e-06
-3.45026e-05
6.11278e-06
-3.6292e-05
5.77646e-06
-3.79535e-05
5.38875e-06
-3.94693e-05
4.94742e-06
-4.0823e-05
4.44774e-06
-4.1996e-05
3.88885e-06
-4.29715e-05
3.26902e-06
-4.37318e-05
2.59016e-06
-4.4262e-05
1.85465e-06
-4.45478e-05
1.06836e-06
-4.45784e-05
2.3854e-07
-4.43458e-05
-6.24326e-07
-4.3846e-05
-1.50809e-06
-4.30794e-05
-2.39805e-06
-4.2051e-05
-3.27817e-06
-4.07709e-05
-4.13111e-06
-3.9254e-05
-4.93915e-06
-3.75201e-05
-5.68495e-06
-3.55936e-05
-6.35204e-06
-3.35023e-05
-6.92626e-06
-3.12772e-05
-7.3955e-06
-2.89514e-05
-7.75161e-06
-2.65589e-05
-7.98913e-06
-2.41339e-05
-8.10766e-06
-2.17092e-05
-8.10916e-06
-1.93158e-05
-8.00088e-06
-1.69815e-05
-7.79108e-06
-1.47314e-05
-7.4926e-06
-1.25859e-05
-7.11696e-06
-1.05628e-05
-6.67892e-06
-8.67551e-06
-6.18891e-06
-6.93555e-06
-5.65898e-06
-5.35168e-06
-5.0939e-06
-3.9331e-06
-4.49899e-06
-2.68797e-06
-3.87058e-06
-1.62739e-06
-3.20672e-06
-7.6208e-07
-2.4986e-06
-1.05772e-07
-1.74579e-06
3.32387e-07
-9.52261e-07
5.47385e-07
-1.49068e-07
5.54061e-07
5.98374e-07
3.9289e-07
1.1591e-06
1.56508e-07
1.31963e-06
7.83157e-07
-6.31433e-07
2.04934e-06
-2.07319e-06
5.1468e-06
-4.04307e-06
7.26376e-06
-6.32135e-06
8.64941e-06
-8.79283e-06
9.46723e-06
-1.13615e-05
9.92555e-06
-1.39836e-05
1.01275e-05
-1.66163e-05
1.01865e-05
-1.92436e-05
1.01429e-05
-2.18437e-05
1.00453e-05
-2.44087e-05
9.89955e-06
-2.69234e-05
9.72196e-06
-2.93803e-05
9.50529e-06
-3.17649e-05
9.25264e-06
-3.4067e-05
8.95388e-06
-3.62708e-05
8.6072e-06
-3.83628e-05
8.20296e-06
-4.03251e-05
7.73775e-06
-4.21415e-05
7.20356e-06
-4.37923e-05
6.59727e-06
-4.52593e-05
5.91348e-06
-4.65223e-05
5.15116e-06
-4.75631e-05
4.30883e-06
-4.83627e-05
3.38931e-06
-4.89051e-05
2.39645e-06
-4.91753e-05
1.33838e-06
-4.91623e-05
2.25267e-07
-4.88577e-05
-9.2876e-07
-4.82583e-05
-2.10726e-06
-4.73651e-05
-3.2907e-06
-4.61848e-05
-4.45778e-06
-4.47294e-05
-5.5857e-06
-4.30163e-05
-6.65117e-06
-4.10684e-05
-7.63161e-06
-3.89134e-05
-8.50565e-06
-3.65832e-05
-9.25505e-06
-3.41127e-05
-9.86433e-06
-3.15393e-05
-1.03233e-05
-2.89012e-05
-1.06254e-05
-2.62364e-05
-1.07707e-05
-2.35813e-05
-1.07624e-05
-2.09699e-05
-1.06106e-05
-1.84324e-05
-1.03267e-05
-1.59954e-05
-9.92808e-06
-1.36804e-05
-9.43026e-06
-1.15051e-05
-8.85289e-06
-9.48258e-06
-8.20994e-06
-7.62327e-06
-7.51731e-06
-5.93449e-06
-6.78136e-06
-4.42377e-06
-6.0091e-06
-3.09749e-06
-5.19578e-06
-1.96498e-06
-4.33904e-06
-1.03548e-06
-3.42725e-06
-3.21301e-07
-2.46023e-06
1.6904e-07
-1.44194e-06
4.31235e-07
-4.11975e-07
4.79274e-07
5.50917e-07
3.53449e-07
1.28381e-06
1.43016e-07
1.53067e-06
9.25448e-07
-6.93931e-07
2.7421e-06
-2.2757e-06
6.73429e-06
-4.42793e-06
9.41317e-06
-6.90698e-06
1.11332e-05
-9.58716e-06
1.2146e-05
-1.23653e-05
1.27076e-05
-1.51966e-05
1.29584e-05
-1.80363e-05
1.30295e-05
-2.08687e-05
1.29754e-05
-2.36707e-05
1.28501e-05
-2.64342e-05
1.26636e-05
-2.91427e-05
1.24329e-05
-3.17878e-05
1.21512e-05
-3.43536e-05
1.18206e-05
-3.68288e-05
1.143e-05
-3.9196e-05
1.09762e-05
-4.14405e-05
1.04483e-05
-4.35427e-05
9.84155e-06
-4.5485e-05
9.1467e-06
-4.72461e-05
8.35965e-06
-4.88063e-05
7.47442e-06
-5.01438e-05
6.48972e-06
-5.12388e-05
5.40442e-06
-5.20711e-05
4.22225e-06
-5.2623e-05
2.9487e-06
-5.28785e-05
1.59427e-06
-5.28255e-05
1.723e-07
-5.24551e-05
-1.29915e-06
-5.17637e-05
-2.79893e-06
-5.07526e-05
-4.30219e-06
-4.94291e-05
-5.78179e-06
-4.78068e-05
-7.20878e-06
-4.59052e-05
-8.55362e-06
-4.37501e-05
-9.78773e-06
-4.13727e-05
-1.08841e-05
-3.88092e-05
-1.18198e-05
-3.60992e-05
-1.25756e-05
-3.32851e-05
-1.31389e-05
-3.04101e-05
-1.35019e-05
-2.75171e-05
-1.36653e-05
-2.46469e-05
-1.3634e-05
-2.18375e-05
-1.34216e-05
-1.9122e-05
-1.30435e-05
-1.65289e-05
-1.25226e-05
-1.40809e-05
-1.18795e-05
-1.17955e-05
-1.11397e-05
-9.68472e-06
-1.03216e-05
-7.75733e-06
-9.44594e-06
-6.01818e-06
-8.52112e-06
-4.47196e-06
-7.5564e-06
-3.12208e-06
-6.54592e-06
-1.97498e-06
-5.48705e-06
-1.03728e-06
-4.36483e-06
-3.19131e-07
-3.17914e-06
1.72498e-07
-1.93306e-06
4.34493e-07
-6.74648e-07
4.81345e-07
5.04946e-07
3.54246e-07
1.41019e-06
1.42802e-07
1.74323e-06
1.06802e-06
-7.45939e-07
3.48452e-06
-2.4405e-06
8.4326e-06
-4.73874e-06
1.17058e-05
-7.37874e-06
1.37756e-05
-1.0226e-05
1.49889e-05
-1.31717e-05
1.56545e-05
-1.61701e-05
1.59532e-05
-1.91752e-05
1.6035e-05
-2.21717e-05
1.59689e-05
-2.51358e-05
1.58141e-05
-2.80595e-05
1.55849e-05
-3.09255e-05
1.52984e-05
-3.37248e-05
1.49484e-05
-3.64406e-05
1.45356e-05
-3.90607e-05
1.40483e-05
-4.15666e-05
1.34813e-05
-4.39425e-05
1.28227e-05
-4.61676e-05
1.20659e-05
-4.8223e-05
1.12008e-05
-5.00859e-05
1.02218e-05
-5.1735e-05
9.12249e-06
-5.31469e-05
7.90105e-06
-5.42999e-05
6.55665e-06
-5.51718e-05
5.09379e-06
-5.57432e-05
3.51959e-06
-5.5996e-05
1.84689e-06
-5.59163e-05
9.23365e-08
-5.54935e-05
-1.72187e-06
-5.47228e-05
-3.56952e-06
-5.36047e-05
-5.41993e-06
-5.21467e-05
-7.23937e-06
-5.0363e-05
-8.99196e-06
-4.8275e-05
-1.06409e-05
-4.59113e-05
-1.21506e-05
-4.33071e-05
-1.34874e-05
-4.05031e-05
-1.46228e-05
-3.75447e-05
-1.55328e-05
-3.44804e-05
-1.62021e-05
-3.13595e-05
-1.66215e-05
-2.82312e-05
-1.67923e-05
-2.51422e-05
-1.67217e-05
-2.21352e-05
-1.64274e-05
-1.92474e-05
-1.593e-05
-1.65101e-05
-1.5259e-05
-1.39469e-05
-1.44413e-05
-1.15757e-05
-1.35101e-05
-9.40682e-06
-1.24893e-05
-7.44672e-06
-1.14055e-05
-5.69683e-06
-1.02699e-05
-4.15799e-06
-9.09494e-06
-2.82944e-06
-7.87354e-06
-1.71359e-06
-6.60291e-06
-8.13395e-07
-5.26421e-06
-1.35927e-07
-3.85699e-06
3.14335e-07
-2.38256e-06
5.36142e-07
-8.9719e-07
5.45882e-07
4.95973e-07
3.86886e-07
1.56811e-06
1.52474e-07
1.97847e-06
1.21987e-06
-7.85213e-07
4.26819e-06
-2.56831e-06
1.0222e-05
-4.98262e-06
1.41166e-05
-7.75203e-06
1.655e-05
-1.07347e-05
1.79696e-05
-1.38171e-05
1.8741e-05
-1.69525e-05
1.90877e-05
-2.00938e-05
1.91796e-05
-2.32263e-05
1.91011e-05
-2.63257e-05
1.89162e-05
-2.93847e-05
1.8644e-05
-3.23852e-05
1.83012e-05
-3.53186e-05
1.78822e-05
-3.8167e-05
1.7386e-05
-4.09182e-05
1.68001e-05
-4.35527e-05
1.61174e-05
-4.60539e-05
1.53246e-05
-4.84001e-05
1.44134e-05
-5.05709e-05
1.33722e-05
-5.25422e-05
1.21942e-05
-5.4291e-05
1.08718e-05
-5.57917e-05
9.40267e-06
-5.70204e-05
7.78581e-06
-5.79523e-05
6.02627e-06
-5.8565e-05
4.13254e-06
-5.88374e-05
2.11967e-06
-5.87525e-05
7.56757e-09
-5.82971e-05
-2.17727e-06
-5.74636e-05
-4.40315e-06
-5.62507e-05
-6.63293e-06
-5.4665e-05
-8.82543e-06
-5.27208e-05
-1.09366e-05
-5.04411e-05
-1.29211e-05
-4.78574e-05
-1.4735e-05
-4.50093e-05
-1.63363e-05
-4.19432e-05
-1.76897e-05
-3.87113e-05
-1.87656e-05
-3.53694e-05
-1.9545e-05
-3.19749e-05
-2.00168e-05
-2.8585e-05
-2.01834e-05
-2.52535e-05
-2.00541e-05
-2.20298e-05
-1.96522e-05
-1.89563e-05
-1.90043e-05
-1.60681e-05
-1.81484e-05
-1.33907e-05
-1.71194e-05
-1.0942e-05
-1.59599e-05
-8.73074e-06
-1.4701e-05
-6.76021e-06
-1.3377e-05
-5.02742e-06
-1.2003e-05
-3.52815e-06
-1.05951e-05
-2.2562e-06
-9.14552e-06
-1.20888e-06
-7.6511e-06
-3.84321e-07
-6.08848e-06
2.14126e-07
-4.45626e-06
5.85379e-07
-2.7532e-06
7.30662e-07
-1.04333e-06
6.6978e-07
5.57808e-07
4.49826e-07
1.78707e-06
1.71338e-07
2.25816e-06
1.39077e-06
-8.18902e-07
5.08336e-06
-2.6742e-06
1.20816e-05
-5.18238e-06
1.66189e-05
-8.05662e-06
1.94271e-05
-1.11494e-05
2.10578e-05
-1.4344e-05
2.19371e-05
-1.75926e-05
2.23328e-05
-2.08479e-05
2.24355e-05
-2.40955e-05
2.23458e-05
-2.73116e-05
2.21325e-05
-3.04891e-05
2.18191e-05
-3.36102e-05
2.14221e-05
-3.66663e-05
2.09363e-05
-3.96396e-05
2.03588e-05
-4.25175e-05
1.96763e-05
-4.528e-05
1.88794e-05
-4.79101e-05
1.79533e-05
-5.0385e-05
1.68877e-05
-5.26832e-05
1.56693e-05
-5.47789e-05
1.42894e-05
-5.66472e-05
1.27392e-05
-5.826e-05
1.1015e-05
-5.95904e-05
9.11544e-06
-6.06099e-05
7.04547e-06
-6.12924e-05
4.81456e-06
-6.16125e-05
2.43958e-06
-6.15488e-05
-5.64085e-08
-6.10836e-05
-2.64252e-06
-6.02056e-05
-5.28117e-06
-5.89104e-05
-7.92794e-06
-5.72026e-05
-1.0533e-05
-5.50963e-05
-1.30426e-05
-5.26158e-05
-1.54011e-05
-4.97961e-05
-1.75542e-05
-4.66815e-05
-1.94502e-05
-4.33255e-05
-2.10451e-05
-3.97879e-05
-2.23025e-05
-3.61335e-05
-2.31987e-05
-3.24288e-05
-2.37206e-05
-2.87405e-05
-2.38709e-05
-2.51314e-05
-2.36621e-05
-2.16596e-05
-2.31233e-05
-1.83743e-05
-2.22886e-05
-1.53159e-05
-2.12062e-05
-1.25131e-05
-1.99212e-05
-9.98457e-06
-1.8488e-05
-7.73727e-06
-1.69473e-05
-5.77063e-06
-1.53434e-05
-4.07609e-06
-1.36967e-05
-2.64288e-06
-1.20283e-05
-1.45767e-06
-1.03299e-05
-5.11121e-07
-8.59789e-06
2.04856e-07
-6.80359e-06
6.91685e-07
-4.94364e-06
9.52672e-07
-3.01328e-06
9.92226e-07
-1.08377e-06
8.34782e-07
7.16286e-07
5.32515e-07
2.08809e-06
1.95526e-07
2.59634e-06
1.58561e-06
-8.45068e-07
5.92669e-06
-2.75865e-06
1.40018e-05
-5.34334e-06
1.91996e-05
-8.30388e-06
2.2393e-05
-1.14885e-05
2.42401e-05
-1.47779e-05
2.52307e-05
-1.81239e-05
2.56775e-05
-2.14786e-05
2.57936e-05
-2.48288e-05
2.56955e-05
-2.81508e-05
2.54572e-05
-3.14386e-05
2.51068e-05
-3.46744e-05
2.46602e-05
-3.78505e-05
2.41126e-05
-4.09489e-05
2.34592e-05
-4.39575e-05
2.26853e-05
-4.6856e-05
2.17794e-05
-4.9627e-05
2.07249e-05
-5.22468e-05
1.95088e-05
-5.46929e-05
1.81159e-05
-5.69376e-05
1.65352e-05
-5.89537e-05
1.47558e-05
-6.07101e-05
1.27722e-05
-6.2176e-05
1.05818e-05
-6.33186e-05
8.18868e-06
-6.41065e-05
5.60271e-06
-6.45085e-05
2.842e-06
-6.44973e-05
-6.74791e-08
-6.40493e-05
-3.09039e-06
-6.31479e-05
-6.1826e-06
-6.17846e-05
-9.2913e-06
-5.99614e-05
-1.23563e-05
-5.76921e-05
-1.53122e-05
-5.5003e-05
-1.80906e-05
-5.19328e-05
-2.06248e-05
-4.85319e-05
-2.28515e-05
-4.48606e-05
-2.4717e-05
-4.09869e-05
-2.61767e-05
-3.69842e-05
-2.72021e-05
-3.29285e-05
-2.77769e-05
-2.88964e-05
-2.79039e-05
-2.49612e-05
-2.75978e-05
-2.11916e-05
-2.68938e-05
-1.76469e-05
-2.58338e-05
-1.43761e-05
-2.44779e-05
-1.14139e-05
-2.28837e-05
-8.78206e-06
-2.11208e-05
-6.48688e-06
-1.92427e-05
-4.52384e-06
-1.73073e-05
-2.87757e-06
-1.53429e-05
-1.5288e-06
-1.3378e-05
-4.5472e-07
-1.14037e-05
3.6294e-07
-9.41645e-06
9.40573e-07
-7.38073e-06
1.2859e-06
-5.28993e-06
1.40788e-06
-3.13445e-06
1.31495e-06
-9.91943e-07
1.03732e-06
9.95105e-07
6.33414e-07
2.49063e-06
2.24771e-07
3.00649e-06
1.80971e-06
-8.68613e-07
6.79135e-06
-2.83127e-06
1.59691e-05
-5.47981e-06
2.18418e-05
-8.51265e-06
2.5429e-05
-1.17749e-05
2.74976e-05
-1.51457e-05
2.86033e-05
-1.85768e-05
2.91048e-05
-2.20206e-05
2.92383e-05
-2.54646e-05
2.91365e-05
-2.8886e-05
2.88789e-05
-3.22798e-05
2.84981e-05
-3.56291e-05
2.80094e-05
-3.89268e-05
2.74083e-05
-4.21555e-05
2.66876e-05
-4.53036e-05
2.58317e-05
-4.83507e-05
2.4826e-05
-5.12794e-05
2.36522e-05
-5.40652e-05
2.22941e-05
-5.66846e-05
2.07341e-05
-5.91078e-05
1.89579e-05
-6.1305e-05
1.69521e-05
-6.32415e-05
1.47082e-05
-6.4882e-05
1.22216e-05
-6.61881e-05
9.4944e-06
-6.71219e-05
6.53595e-06
-6.7645e-05
3.36491e-06
-6.77227e-05
9.86492e-09
-6.73242e-05
-3.48906e-06
-6.64267e-05
-7.08016e-06
-6.50177e-05
-1.07003e-05
-6.30974e-05
-1.42764e-05
-6.06807e-05
-1.77287e-05
-5.77974e-05
-2.09737e-05
-5.44913e-05
-2.39306e-05
-5.08181e-05
-2.65243e-05
-4.68432e-05
-2.86915e-05
-4.26386e-05
-3.03807e-05
-3.82819e-05
-3.15584e-05
-3.38537e-05
-3.22044e-05
-2.94378e-05
-3.23194e-05
-2.51177e-05
-3.19171e-05
-2.09758e-05
-3.10353e-05
-1.7087e-05
-2.97217e-05
-1.35167e-05
-2.80479e-05
-1.03135e-05
-2.6086e-05
-7.50888e-06
-2.39253e-05
-5.11322e-06
-2.16375e-05
-3.11998e-06
-1.93005e-05
-1.50637e-06
-1.69557e-05
-2.42047e-07
-1.46425e-05
7.08997e-07
-1.23539e-05
1.37796e-06
-1.00859e-05
1.79326e-06
-7.79503e-06
1.9718e-06
-5.46925e-06
1.93039e-06
-3.09191e-06
1.68284e-06
-7.45538e-07
1.26625e-06
1.41307e-06
7.46228e-07
3.00907e-06
2.56885e-07
3.4975e-06
2.06574e-06
-8.87282e-07
7.67686e-06
-2.89103e-06
1.79799e-05
-5.5937e-06
2.45404e-05
-8.68854e-06
2.85295e-05
-1.20186e-05
3.08252e-05
-1.54619e-05
3.2051e-05
-1.89705e-05
3.26121e-05
-2.24973e-05
3.27686e-05
-2.6031e-05
3.26696e-05
-2.95497e-05
3.24005e-05
-3.30497e-05
3.19981e-05
-3.65152e-05
3.14772e-05
-3.99403e-05
3.08336e-05
-4.33085e-05
3.00576e-05
-4.66087e-05
2.91323e-05
-4.98211e-05
2.804e-05
-5.29285e-05
2.676e-05
-5.59057e-05
2.52726e-05
-5.8728e-05
2.3557e-05
-6.1364e-05
2.15949e-05
-6.37808e-05
1.93693e-05
-6.59395e-05
1.68678e-05
-6.77998e-05
1.40823e-05
-6.93165e-05
1.10118e-05
-7.04441e-05
7.66388e-06
-7.11359e-05
4.05718e-06
-7.13487e-05
2.22916e-07
-7.10446e-05
-3.79288e-06
-7.01962e-05
-7.92844e-06
-6.87896e-05
-1.21068e-05
-6.68283e-05
-1.62379e-05
-6.43329e-05
-2.02241e-05
-6.13408e-05
-2.39659e-05
-5.79013e-05
-2.73704e-05
-5.40711e-05
-3.03548e-05
-4.99105e-05
-3.28525e-05
-4.54812e-05
-3.48103e-05
-4.08484e-05
-3.61918e-05
-3.60825e-05
-3.69707e-05
-3.12639e-05
-3.71386e-05
-2.64829e-05
-3.66984e-05
-2.18401e-05
-3.56789e-05
-1.7438e-05
-3.4124e-05
-1.33752e-05
-3.21115e-05
-9.73372e-06
-2.97277e-05
-6.57251e-06
-2.70873e-05
-3.91964e-06
-2.42904e-05
-1.77443e-06
-2.14466e-05
-1.08546e-07
-1.86213e-05
1.12247e-06
-1.58744e-05
1.97398e-06
-1.32049e-05
2.49759e-06
-1.06105e-05
2.74094e-06
-8.03762e-06
2.73616e-06
-5.46563e-06
2.51233e-06
-2.86698e-06
2.09151e-06
-3.2611e-07
1.51959e-06
1.98652e-06
8.7052e-07
3.65634e-06
2.92096e-07
4.07787e-06
2.35689e-06
-9.04826e-07
8.57748e-06
-2.94407e-06
2.00238e-05
-5.69321e-06
2.72828e-05
-8.84174e-06
3.16812e-05
-1.22314e-05
3.42098e-05
-1.57398e-05
3.55612e-05
-1.93196e-05
3.61879e-05
-2.29247e-05
3.63745e-05
-2.65451e-05
3.62868e-05
-3.01602e-05
3.60159e-05
-3.3768e-05
3.56032e-05
-3.73538e-05
3.50629e-05
-4.09135e-05
3.4391e-05
-4.44315e-05
3.35753e-05
-4.78981e-05
3.25971e-05
-5.12941e-05
3.14356e-05
-5.46028e-05
3.00672e-05
-5.77987e-05
2.8468e-05
-6.08564e-05
2.66134e-05
-6.37424e-05
2.44803e-05
-6.64209e-05
2.20469e-05
-6.88487e-05
1.92951e-05
-7.09795e-05
1.62122e-05
-7.27609e-05
1.27927e-05
-7.41391e-05
9.04153e-06
-7.50593e-05
4.97698e-06
-7.54713e-05
6.34525e-07
-7.53343e-05
-3.93021e-06
-7.46235e-05
-8.6395e-06
-7.33349e-05
-1.33954e-05
-7.14878e-05
-1.80851e-05
-6.91207e-05
-2.25912e-05
-6.62835e-05
-2.68031e-05
-6.30265e-05
-3.06273e-05
-5.93901e-05
-3.3991e-05
-5.5401e-05
-3.68415e-05
-5.10741e-05
-3.91369e-05
-4.64241e-05
-4.08418e-05
-4.14773e-05
-4.1917e-05
-3.6288e-05
-4.23279e-05
-3.09443e-05
-4.20417e-05
-2.55721e-05
-4.10511e-05
-2.0324e-05
-3.93716e-05
-1.53659e-05
-3.70696e-05
-1.0853e-05
-3.42399e-05
-6.91176e-06
-3.10287e-05
-3.62085e-06
-2.75804e-05
-1.00733e-06
-2.40604e-05
9.53307e-07
-2.0581e-05
2.32173e-06
-1.72434e-05
3.18248e-06
-1.40646e-05
3.62162e-06
-1.10504e-05
3.72043e-06
-8.13525e-06
3.53892e-06
-5.28518e-06
3.12811e-06
-2.45475e-06
2.5248e-06
2.75729e-07
1.78777e-06
2.72533e-06
1.0015e-06
4.44058e-06
3.2891e-07
4.75266e-06
2.68471e-06
-9.18284e-07
9.49409e-06
-2.98746e-06
2.21005e-05
-5.77674e-06
3.00681e-05
-8.97253e-06
3.4883e-05
-1.24159e-05
3.76507e-05
-1.59843e-05
3.91343e-05
-1.96315e-05
3.98339e-05
-2.33122e-05
4.00591e-05
-2.70184e-05
3.99925e-05
-3.07308e-05
3.97314e-05
-3.44493e-05
3.93217e-05
-3.8161e-05
3.87771e-05
-4.18633e-05
3.80937e-05
-4.55427e-05
3.72567e-05
-4.91908e-05
3.62457e-05
-5.27898e-05
3.50363e-05
-5.63236e-05
3.36016e-05
-5.97674e-05
3.19131e-05
-6.3095e-05
2.99416e-05
-6.62713e-05
2.76578e-05
-6.9258e-05
2.50341e-05
-7.20072e-05
2.20454e-05
-7.4467e-05
1.86725e-05
-7.65779e-05
1.49044e-05
-7.82791e-05
1.07432e-05
-7.9511e-05
6.20942e-06
-8.02245e-05
1.34838e-06
-8.03894e-05
-3.76482e-06
-8.00052e-05
-9.02348e-06
-7.91039e-05
-1.42965e-05
-7.77466e-05
-1.94422e-05
-7.60069e-05
-2.43309e-05
-7.39475e-05
-2.88625e-05
-7.15964e-05
-3.29786e-05
-6.8932e-05
-3.66556e-05
-6.58842e-05
-3.98898e-05
-6.23509e-05
-4.26705e-05
-5.82288e-05
-4.49646e-05
-5.34452e-05
-4.67011e-05
-4.7991e-05
-4.77829e-05
-4.19382e-05
-4.80949e-05
-3.5448e-05
-4.75422e-05
-2.87566e-05
-4.60633e-05
-2.21518e-05
-4.36754e-05
-1.59305e-05
-4.04613e-05
-1.03602e-05
-3.66e-05
-5.6373e-06
-3.23031e-05
-1.86748e-06
-2.78312e-05
9.41617e-07
-2.33896e-05
2.86154e-06
-1.91643e-05
4.01866e-06
-1.52209e-05
4.55714e-06
-1.15901e-05
4.61882e-06
-8.19586e-06
4.31667e-06
-4.98443e-06
3.74367e-06
-1.88031e-06
2.96558e-06
1.05208e-06
2.06318e-06
3.62966e-06
1.13669e-06
5.36479e-06
3.67103e-07
5.52471e-06
3.0506e-06
-9.31008e-07
1.04206e-05
-3.02537e-06
2.41994e-05
-5.84853e-06
3.28841e-05
-9.08501e-06
3.81225e-05
-1.25757e-05
4.1136e-05
-1.61986e-05
4.27588e-05
-1.99085e-05
4.35394e-05
-2.36617e-05
4.3813e-05
-2.74517e-05
4.3779e-05
-3.12614e-05
4.35412e-05
-3.50926e-05
4.315e-05
-3.89346e-05
4.26188e-05
-4.27871e-05
4.19438e-05
-4.66384e-05
4.11075e-05
-5.04825e-05
4.00879e-05
-5.43033e-05
3.88564e-05
-5.80863e-05
3.73829e-05
-6.18074e-05
3.56335e-05
-6.54407e-05
3.35736e-05
-6.89504e-05
3.11668e-05
-7.22955e-05
2.8378e-05
-7.54247e-05
2.5174e-05
-7.82813e-05
2.15281e-05
-8.08013e-05
1.74238e-05
-8.29226e-05
1.28638e-05
-8.45928e-05
7.87912e-06
-8.57857e-05
2.54067e-06
-8.65162e-05
-3.03478e-06
-8.68523e-05
-8.68781e-06
-8.69102e-05
-1.42389e-05
-8.68293e-05
-1.95234e-05
-8.67279e-05
-2.44326e-05
-8.66531e-05
-2.89374e-05
-8.65447e-05
-3.30873e-05
-8.62244e-05
-3.69761e-05
-8.5419e-05
-4.06955e-05
-8.38072e-05
-4.42824e-05
-8.10816e-05
-4.76904e-05
-7.70076e-05
-5.0775e-05
-7.14736e-05
-5.33172e-05
-6.45197e-05
-5.50487e-05
-5.63509e-05
-5.57115e-05
-4.73202e-05
-5.50937e-05
-3.78983e-05
-5.3098e-05
-2.8611e-05
-4.97481e-05
-1.99743e-05
-4.52374e-05
-1.2415e-05
-3.98617e-05
-6.21739e-06
-3.40296e-05
-1.49105e-06
-2.8115e-05
1.81568e-06
-2.24719e-05
3.87665e-06
-1.72807e-05
4.92612e-06
-1.26406e-05
5.21035e-06
-8.47864e-06
4.93993e-06
-4.71542e-06
4.28763e-06
-1.22627e-06
3.37636e-06
1.96149e-06
2.32768e-06
4.68054e-06
1.26873e-06
6.42124e-06
4.04845e-07
6.39134e-06
3.45409e-06
-9.39085e-07
1.13582e-05
-3.05299e-06
2.63212e-05
-5.90404e-06
3.57313e-05
-9.17535e-06
4.14003e-05
-1.27082e-05
4.46667e-05
-1.63809e-05
4.64366e-05
-2.01498e-05
4.73074e-05
-2.39727e-05
4.764e-05
-2.78452e-05
4.76513e-05
-3.17522e-05
4.74515e-05
-3.56978e-05
4.7096e-05
-3.96739e-05
4.65977e-05
-4.36828e-05
4.59532e-05
-4.77156e-05
4.51426e-05
-5.17688e-05
4.41418e-05
-5.5829e-05
4.29185e-05
-5.9884e-05
4.14387e-05
-6.39116e-05
3.96627e-05
-6.78871e-05
3.75499e-05
-7.17747e-05
3.50557e-05
-7.55327e-05
3.21367e-05
-7.9108e-05
2.87504e-05
-8.24427e-05
2.48634e-05
-8.54758e-05
2.04578e-05
-8.81596e-05
1.55483e-05
-9.04777e-05
1.0198e-05
-9.24742e-05
4.53774e-06
-9.42746e-05
-1.23379e-06
-9.60894e-05
-6.87259e-06
-9.81789e-05
-1.2149e-05
-0.000100782
-1.69201e-05
-0.000104025
-2.11899e-05
-0.000107844
-2.51183e-05
-0.000111955
-2.89762e-05
-0.000115877
-3.30535e-05
-0.000119006
-3.75665e-05
-0.000120707
-4.25813e-05
-0.000120411
-4.79864e-05
-0.000117691
-5.34951e-05
-0.000112316
-5.86924e-05
-0.000104282
-6.30814e-05
-9.38308e-05
-6.61634e-05
-8.14325e-05
-6.74918e-05
-6.77651e-05
-6.67662e-05
-5.36466e-05
-6.38664e-05
-3.99495e-05
-5.89357e-05
-2.74788e-05
-5.23322e-05
-1.68599e-05
-4.46499e-05
-8.44761e-06
-3.65266e-05
-2.30343e-06
-2.86175e-05
1.76359e-06
-2.13466e-05
4.1026e-06
-1.49812e-05
5.12187e-06
-9.49647e-06
5.19863e-06
-4.79392e-06
4.64894e-06
-6.74751e-07
3.7029e-06
2.90541e-06
2.55793e-06
5.82788e-06
1.38985e-06
7.58655e-06
4.40925e-07
7.34325e-06
3.89353e-06
-9.46136e-07
1.22994e-05
-3.07386e-06
2.84532e-05
-5.94541e-06
3.85953e-05
-9.24401e-06
4.47016e-05
-1.28116e-05
4.82283e-05
-1.65274e-05
5.01537e-05
-2.03494e-05
5.11246e-05
-2.4237e-05
5.15279e-05
-2.8188e-05
5.15984e-05
-3.21897e-05
5.14529e-05
-3.62489e-05
5.11519e-05
-4.03603e-05
5.07084e-05
-4.45294e-05
5.01196e-05
-4.87504e-05
4.93628e-05
-5.30236e-05
4.84127e-05
-5.73386e-05
4.72326e-05
-6.16868e-05
4.5785e-05
-6.6049e-05
4.4024e-05
-7.04031e-05
4.19024e-05
-7.47152e-05
3.93669e-05
-7.8945e-05
3.63652e-05
-8.30421e-05
3.28467e-05
-8.69556e-05
2.87758e-05
-9.06452e-05
2.41466e-05
-9.41111e-05
1.90131e-05
-9.74308e-05
1.3517e-05
-0.000100803
7.90905e-06
-0.000104563
2.52526e-06
-0.000109147
-2.28893e-06
-0.00011499
-6.30694e-06
-0.000122373
-9.53731e-06
-0.000131288
-1.22748e-05
-0.000141368
-1.50393e-05
-0.000151908
-1.84356e-05
-0.000161982
-2.29788e-05
-0.000170583
-2.89641e-05
-0.000176766
-3.63977e-05
-0.000179741
-4.50099e-05
-0.000178937
-5.42972e-05
-0.000174029
-6.35992e-05
-0.000164954
-7.21536e-05
-0.000151935
-7.91815e-05
-0.000135485
-8.39401e-05
-0.000116416
-8.5835e-05
-9.58028e-05
-8.44782e-05
-7.49112e-05
-7.98278e-05
-5.50508e-05
-7.21917e-05
-3.7396e-05
-6.23058e-05
-2.2788e-05
-5.11336e-05
-1.16112e-05
-3.97958e-05
-3.78142e-06
-2.91749e-05
1.14144e-06
-1.99056e-05
3.77925e-06
-1.21325e-05
4.76552e-06
-5.78203e-06
4.65347e-06
-5.60604e-07
3.86018e-06
3.69643e-06
2.71735e-06
6.97329e-06
1.48774e-06
8.81318e-06
4.73126e-07
8.36106e-06
4.36506e-06
-9.47064e-07
1.32455e-05
-3.08135e-06
3.0596e-05
-5.96585e-06
4.14764e-05
-9.28435e-06
4.80271e-05
-1.28798e-05
5.18221e-05
-1.66325e-05
5.39121e-05
-2.05018e-05
5.49935e-05
-2.44489e-05
5.54797e-05
-2.8474e-05
5.56237e-05
-3.25667e-05
5.55494e-05
-3.6737e-05
5.53229e-05
-4.09827e-05
5.49574e-05
-4.5313e-05
5.44507e-05
-4.97261e-05
5.37786e-05
-5.42262e-05
5.29139e-05
-5.88078e-05
5.18164e-05
-6.34668e-05
5.04451e-05
-6.81885e-05
4.87476e-05
-7.29555e-05
4.66704e-05
-7.77383e-05
4.41513e-05
-8.25029e-05
4.11309e-05
-8.72096e-05
3.75547e-05
-9.18324e-05
3.33995e-05
-9.63858e-05
2.87013e-05
-0.00010098
2.36087e-05
-0.000105884
1.84211e-05
-0.000111566
1.35922e-05
-0.000118675
9.63542e-06
-0.000127906
6.94223e-06
-0.000139775
5.56348e-06
-0.000154399
5.08687e-06
-0.000171353
4.68097e-06
-0.000189707
3.31522e-06
-0.000208183
4.21673e-08
-0.000225398
-5.76144e-06
-0.000240064
-1.42972e-05
-0.000251098
-2.53612e-05
-0.000257667
-3.84395e-05
-0.000259171
-5.27905e-05
-0.000255235
-6.75328e-05
-0.000245705
-8.16812e-05
-0.000230671
-9.42132e-05
-0.000210518
-0.000104091
-0.000185981
-0.00011037
-0.000158193
-0.000112264
-0.000128677
-0.000109344
-9.92445e-05
-0.000101623
-7.1784e-05
-8.97675e-05
-4.79405e-05
-7.49759e-05
-2.8799e-05
-5.89392e-05
-1.46896e-05
-4.32829e-05
-5.23572e-06
-2.93615e-05
3.97059e-07
-1.77634e-05
3.1929e-06
-8.58005e-06
4.06671e-06
-1.43219e-06
3.73793e-06
4.02272e-06
2.76228e-06
7.95167e-06
1.55014e-06
1.00222e-05
5.00423e-07
9.41415e-06
4.86383e-06
-9.46421e-07
1.41864e-05
-3.07949e-06
3.27327e-05
-5.967e-06
4.43557e-05
-9.29515e-06
5.13573e-05
-1.29083e-05
5.54287e-05
-1.6688e-05
5.76925e-05
-2.05952e-05
5.88953e-05
-2.45931e-05
5.94773e-05
-2.86839e-05
5.971e-05
-3.28602e-05
5.9725e-05
-3.71352e-05
5.95941e-05
-4.15103e-05
5.93313e-05
-4.59987e-05
5.8936e-05
-5.06033e-05
5.83819e-05
-5.53335e-05
5.76414e-05
-6.01893e-05
5.66709e-05
-6.51725e-05
5.5426e-05
-7.02751e-05
5.3849e-05
-7.54868e-05
5.18801e-05
-8.07868e-05
4.94502e-05
-8.61547e-05
4.6497e-05
-9.15769e-05
4.29758e-05
-9.70834e-05
3.89046e-05
-0.000102804
3.44204e-05
-0.000109055
2.98586e-05
-0.00011642
2.57853e-05
-0.000125756
2.29274e-05
-0.000138051
2.19293e-05