/*--------------------------------*- C++ -*----------------------------------*\
| =========                 |                                                 |
| \\      /  F ield         | OpenFOAM: The Open Source CFD Toolbox           |
|  \\    /   O peration     | Version:  2406                                  |
|   \\  /    A nd           | Website:  www.openfoam.com                      |
|    \\/     M anipulation  |                                                 |
\*---------------------------------------------------------------------------*/
FoamFile
{
    version     2.0;
    format      ascii;
    arch        "LSB;label=32;scalar=64";
    class       volVectorField;
    location    "42.25";
    object      U;
}
// * * * * * * * * * * * * * * * * * * * * * * * * * * * * * * * * * * * * * //

dimensions      [0 1 -1 0 0 0 0];

internalField   nonuniform List<vector> 
14400
(
(-1.88827e-05 1.8842e-05 0)
(-5.48176e-06 -9.74416e-06 0)
(0.00010104 -4.19428e-05 0)
(0.00028885 -7.09983e-05 0)
(0.000546586 -8.86002e-05 0)
(0.000840609 -9.85487e-05 0)
(0.00115494 -9.97587e-05 0)
(0.00146253 -9.53043e-05 0)
(0.00175169 -8.57334e-05 0)
(0.00200655 -7.34774e-05 0)
(0.00222274 -5.96244e-05 0)
(0.00239535 -4.59685e-05 0)
(0.00252713 -3.34051e-05 0)
(0.00262106 -2.29268e-05 0)
(0.00268418 -1.48677e-05 0)
(0.00272302 -9.43333e-06 0)
(0.00274521 -6.38031e-06 0)
(0.00275674 -5.32839e-06 0)
(0.00276271 -5.65446e-06 0)
(0.00276591 -6.69551e-06 0)
(0.0027673 -7.74031e-06 0)
(0.00276563 -8.16318e-06 0)
(0.00275794 -7.43651e-06 0)
(0.00273977 -5.19271e-06 0)
(0.0027057 -1.20536e-06 0)
(0.00264968 4.61953e-06 0)
(0.00256542 1.22966e-05 0)
(0.00244653 2.18017e-05 0)
(0.00228665 3.31183e-05 0)
(0.00207938 4.62592e-05 0)
(0.00181826 6.1276e-05 0)
(0.00149668 7.82472e-05 0)
(0.00110788 9.72608e-05 0)
(0.000644995 0.000118391 0)
(0.000101166 0.000141678 0)
(-0.000530309 0.000167115 0)
(-0.00125577 0.000194631 0)
(-0.00208095 0.000224092 0)
(-0.00301076 0.000255289 0)
(-0.00404899 0.000287935 0)
(-0.0051981 0.00032167 0)
(-0.00645892 0.000356055 0)
(-0.00783048 0.000390579 0)
(-0.00930973 0.000424664 0)
(-0.0108914 0.000457672 0)
(-0.0125681 0.000488919 0)
(-0.0143296 0.000517684 0)
(-0.0161638 0.000543223 0)
(-0.0180557 0.000564783 0)
(-0.0199883 0.000581612 0)
(-0.0219425 0.000592975 0)
(-0.0238968 0.000598162 0)
(-0.0258285 0.000596498 0)
(-0.0277128 0.000587354 0)
(-0.0295241 0.000570156 0)
(-0.0312356 0.000544397 0)
(-0.03282 0.000509652 0)
(-0.0342497 0.000465592 0)
(-0.0354973 0.000412009 0)
(-0.036536 0.00034884 0)
(-0.0373399 0.00027619 0)
(-0.037885 0.000194369 0)
(-0.038149 0.000103918 0)
(-0.0381127 5.64015e-06 0)
(-0.03776 -9.93741e-05 0)
(-0.0370788 -0.000209726 0)
(-0.0360619 -0.0003237 0)
(-0.0347072 -0.000439269 0)
(-0.0330185 -0.000554113 0)
(-0.0310062 -0.00066566 0)
(-0.0286873 -0.00077115 0)
(-0.026086 -0.000867717 0)
(-0.0232335 -0.000952494 0)
(-0.0201679 -0.00102274 0)
(-0.0169334 -0.00107598 0)
(-0.0135799 -0.00111012 0)
(-0.0101616 -0.00112364 0)
(-0.00673564 -0.00111564 0)
(-0.00336061 -0.00108601 0)
(-9.45624e-05 -0.00103541 0)
(0.00300683 -0.000965343 0)
(0.00589218 -0.000878074 0)
(0.00851623 -0.000776543 0)
(0.0108414 -0.000664217 0)
(0.012839 -0.000544909 0)
(0.0144902 -0.000422572 0)
(0.0157863 -0.000301081 0)
(0.0167288 -0.000184033 0)
(0.0173286 -7.45721e-05 0)
(0.0176054 2.47377e-05 0)
(0.0175858 0.000111999 0)
(0.0173024 0.000186004 0)
(0.0167916 0.000246219 0)
(0.016092 0.000292719 0)
(0.0152427 0.000326102 0)
(0.014282 0.000347376 0)
(0.0132458 0.000357852 0)
(0.0121668 0.000359022 0)
(0.0110739 0.000352473 0)
(0.00999156 0.000339776 0)
(0.00893953 0.00032245 0)
(0.00793343 0.000301862 0)
(0.00698445 0.000279256 0)
(0.0061003 0.000255651 0)
(0.00528498 0.000231954 0)
(0.00454025 0.000208815 0)
(0.0038648 0.000186852 0)
(0.00325649 0.000166384 0)
(0.00271048 0.000147831 0)
(0.00222278 0.000131174 0)
(0.00178663 0.000116664 0)
(0.00139856 0.000103744 0)
(0.00105197 9.24246e-05 0)
(0.000747305 8.11593e-05 0)
(0.00048122 6.96944e-05 0)
(0.000262021 5.49495e-05 0)
(9.27463e-05 3.736e-05 0)
(-1.14253e-05 1.32214e-05 0)
(-4.654e-05 -9.19991e-06 0)
(-2.28378e-05 -2.2369e-05 0)
(8.48436e-06 6.18704e-06 0)
(0.000147227 -0.000150651 0)
(0.000480016 -0.000314402 0)
(0.000970515 -0.000461329 0)
(0.00160322 -0.00055937 0)
(0.00231372 -0.000615645 0)
(0.0030668 -0.000626538 0)
(0.00380694 -0.000602666 0)
(0.00450449 -0.000549179 0)
(0.0051249 -0.000477021 0)
(0.00565417 -0.000393812 0)
(0.00608007 -0.000308637 0)
(0.00640474 -0.000227659 0)
(0.00663288 -0.000156289 0)
(0.00677702 -9.72456e-05 0)
(0.00684994 -5.17688e-05 0)
(0.00686632 -1.89758e-05 0)
(0.00683808 3.26811e-06 0)
(0.00677481 1.83418e-05 0)
(0.00668129 3.0147e-05 0)
(0.00655798 4.28322e-05 0)
(0.00640032 6.02391e-05 0)
(0.00619966 8.56609e-05 0)
(0.00594366 0.000121581 0)
(0.00561752 0.000169675 0)
(0.00520463 0.000230877 0)
(0.00468752 0.000305599 0)
(0.00404826 0.000393945 0)
(0.00326885 0.000495927 0)
(0.00233135 0.000611574 0)
(0.00121792 0.000740975 0)
(-8.90188e-05 0.000884223 0)
(-0.00160664 0.00104131 0)
(-0.00335138 0.00121203 0)
(-0.00533844 0.00139581 0)
(-0.00758128 0.0015917 0)
(-0.0100909 0.00179825 0)
(-0.0128754 0.00201352 0)
(-0.0159389 0.00223502 0)
(-0.0192811 0.00245977 0)
(-0.022897 0.0026843 0)
(-0.026776 0.0029047 0)
(-0.0309016 0.00311671 0)
(-0.0352515 0.00331579 0)
(-0.0397973 0.00349723 0)
(-0.0445048 0.00365627 0)
(-0.0493343 0.0037882 0)
(-0.054241 0.0038885 0)
(-0.0591758 0.00395291 0)
(-0.064086 0.00397756 0)
(-0.068916 0.003959 0)
(-0.0736085 0.00389435 0)
(-0.0781049 0.00378124 0)
(-0.0823466 0.00361797 0)
(-0.0862759 0.00340343 0)
(-0.0898363 0.00313722 0)
(-0.0929739 0.00281962 0)
(-0.0956377 0.00245162 0)
(-0.0977804 0.00203498 0)
(-0.0993591 0.00157224 0)
(-0.100336 0.00106678 0)
(-0.100678 0.00052284 0)
(-0.100361 -5.44039e-05 0)
(-0.0993627 -0.000658823 0)
(-0.0976731 -0.0012833 0)
(-0.0952875 -0.0019197 0)
(-0.0922105 -0.00255896 0)
(-0.0884556 -0.00319105 0)
(-0.0840458 -0.00380518 0)
(-0.079014 -0.0043899 0)
(-0.0734031 -0.00493339 0)
(-0.0672662 -0.00542369 0)
(-0.0606663 -0.00584911 0)
(-0.0536758 -0.00619861 0)
(-0.0463761 -0.00646225 0)
(-0.0388561 -0.00663169 0)
(-0.0312112 -0.00670062 0)
(-0.0235413 -0.00666518 0)
(-0.015949 -0.00652434 0)
(-0.00853716 -0.00628012 0)
(-0.00140663 -0.00593774 0)
(0.00534656 -0.00550552 0)
(0.0116337 -0.00499475 0)
(0.0173758 -0.00441923 0)
(0.0225062 -0.00379481 0)
(0.0269721 -0.00313868 0)
(0.0307364 -0.0024687 0)
(0.0337785 -0.00180256 0)
(0.0360948 -0.00115703 0)
(0.0376986 -0.000547314 0)
(0.0386187 1.35968e-05 0)
(0.0388985 0.000515342 0)
(0.0385938 0.000950478 0)
(0.0377702 0.00131458 0)
(0.0365003 0.00160616 0)
(0.0348608 0.00182648 0)
(0.0329295 0.00197915 0)
(0.0307827 0.0020697 0)
(0.0284921 0.00210511 0)
(0.0261237 0.00209323 0)
(0.0237352 0.00204235 0)
(0.0213762 0.0019607 0)
(0.0190866 0.0018562 0)
(0.0168979 0.00173602 0)
(0.0148322 0.00160666 0)
(0.0129049 0.0014735 0)
(0.0111231 0.00134128 0)
(0.00948982 0.00121342 0)
(0.00800128 0.00109292 0)
(0.00665315 0.000981026 0)
(0.00543527 0.000878915 0)
(0.00434209 0.000784839 0)
(0.00336268 0.000697759 0)
(0.00249793 0.000611545 0)
(0.0017424 0.000523348 0)
(0.00111078 0.0004221 0)
(0.000605808 0.000308723 0)
(0.000253148 0.000173213 0)
(4.90173e-05 4.63103e-05 0)
(-9.38569e-06 -4.64922e-05 0)
(3.76124e-05 -9.4842e-05 0)
(0.000300483 -0.000480221 0)
(0.000842787 -0.000861391 0)
(0.00158575 -0.00119341 0)
(0.00251229 -0.00142184 0)
(0.0035336 -0.00155061 0)
(0.00460443 -0.00157524 0)
(0.00565068 -0.00151442 0)
(0.00663187 -0.00138238 0)
(0.00750122 -0.0012023 0)
(0.00823787 -0.00099342 0)
(0.00882395 -0.000776221 0)
(0.00925973 -0.000566184 0)
(0.00954942 -0.000375925 0)
(0.00970713 -0.000212574 0)
(0.00974766 -7.91228e-05 0)
(0.00968809 2.61632e-05 0)
(0.00954189 0.000108426 0)
(0.00931912 0.000175706 0)
(0.00902332 0.000237565 0)
(0.00865189 0.000304157 0)
(0.00819528 0.000385051 0)
(0.00763815 0.000488502 0)
(0.00695998 0.00062089 0)
(0.00613669 0.000786627 0)
(0.00514168 0.00098832 0)
(0.00394707 0.00122721 0)
(0.00252443 0.00150366 0)
(0.000845489 0.00181756 0)
(-0.00111752 0.00216862 0)
(-0.00339139 0.00255637 0)
(-0.00600152 0.00298002 0)
(-0.00897126 0.00343824 0)
(-0.0123211 0.00392888 0)
(-0.0160679 0.00444867 0)
(-0.0202234 0.00499309 0)
(-0.0247936 0.00555627 0)
(-0.0297777 0.00613092 0)
(-0.0351668 0.00670844 0)
(-0.0409436 0.00727901 0)
(-0.0470816 0.0078318 0)
(-0.0535454 0.00835523 0)
(-0.0602902 0.00883723 0)
(-0.0672629 0.00926566 0)
(-0.0744026 0.00962857 0)
(-0.081642 0.00991462 0)
(-0.0889083 0.0101134 0)
(-0.0961252 0.0102156 0)
(-0.103214 0.0102136 0)
(-0.110096 0.010101 0)
(-0.116693 0.00987337 0)
(-0.122929 0.00952789 0)
(-0.128731 0.00906349 0)
(-0.134031 0.00848071 0)
(-0.138766 0.00778169 0)
(-0.142877 0.00697002 0)
(-0.146314 0.00605071 0)
(-0.149032 0.00503008 0)
(-0.15099 0.00391571 0)
(-0.152156 0.00271646 0)
(-0.152506 0.00144241 0)
(-0.152021 0.000104969 0)
(-0.150687 -0.00128316 0)
(-0.148501 -0.0027079 0)
(-0.145465 -0.00415375 0)
(-0.141588 -0.00560384 0)
(-0.136889 -0.00703989 0)
(-0.131392 -0.00844234 0)
(-0.125133 -0.00979054 0)
(-0.118154 -0.0110629 0)
(-0.110507 -0.0122375 0)
(-0.102253 -0.0132922 0)
(-0.0934611 -0.0142054 0)
(-0.0842114 -0.0149567 0)
(-0.0745906 -0.0155277 0)
(-0.0646939 -0.0159025 0)
(-0.0546229 -0.0160688 0)
(-0.0444849 -0.0160185 0)
(-0.0343911 -0.0157484 0)
(-0.0244545 -0.0152606 0)
(-0.0147879 -0.014563 0)
(-0.00550186 -0.0136691 0)
(0.00329826 -0.0125981 0)
(0.0115144 -0.0113745 0)
(0.0190585 -0.0100269 0)
(0.0258542 -0.0085876 0)
(0.0318397 -0.00709117 0)
(0.0369685 -0.00557325 0)
(0.0412116 -0.00406924 0)
(0.0445576 -0.00261297 0)
(0.0470135 -0.00123543 0)
(0.0486041 3.62798e-05 0)
(0.0493714 0.00117994 0)
(0.0493732 0.00217885 0)
(0.0486807 0.00302223 0)
(0.0473759 0.00370534 0)
(0.0455489 0.00422926 0)
(0.0432939 0.0046003 0)
(0.0407063 0.00482936 0)
(0.0378788 0.00493082 0)
(0.0348987 0.0049216 0)
(0.0318454 0.00481993 0)
(0.028788 0.00464447 0)
(0.0257852 0.00441326 0)
(0.0228833 0.00414329 0)
(0.0201184 0.00384959 0)
(0.0175144 0.00354551 0)
(0.0150877 0.00324164 0)
(0.0128439 0.00294685 0)
(0.0107859 0.00266633 0)
(0.00890702 0.00240367 0)
(0.00720502 0.00215697 0)
(0.00566911 0.0019235 0)
(0.00430278 0.00169204 0)
(0.00309887 0.00145483 0)
(0.00207718 0.00119232 0)
(0.00123628 0.000903652 0)
(0.000613748 0.000575315 0)
(0.000197049 0.000257696 0)
(1.74719e-05 -5.29805e-06 0)
(6.344e-05 -0.000269667 0)
(0.000438838 -0.000959494 0)
(0.00116378 -0.00160144 0)
(0.00211263 -0.00213974 0)
(0.00326561 -0.0025088 0)
(0.00451208 -0.00270952 0)
(0.00580222 -0.00273869 0)
(0.00704879 -0.00262324 0)
(0.00820608 -0.00238793 0)
(0.00921926 -0.0020693 0)
(0.0100638 -0.00169978 0)
(0.0107177 -0.00131251 0)
(0.0111793 -0.000933501 0)
(0.0114513 -0.000583421 0)
(0.011547 -0.000274301 0)
(0.0114801 -1.09516e-05 0)
(0.0112665 0.000209577 0)
(0.0109175 0.000396181 0)
(0.0104401 0.000562622 0)
(0.00983335 0.000725361 0)
(0.00908899 0.000901853 0)
(0.0081904 0.00110861 0)
(0.00711418 0.00135989 0)
(0.00583097 0.00166675 0)
(0.00430737 0.00203687 0)
(0.00250727 0.00247478 0)
(0.00039347 0.00298253 0)
(-0.0020713 0.00356039 0)
(-0.00492333 0.00420754 0)
(-0.00819707 0.00492229 0)
(-0.0119242 0.00570212 0)
(-0.0161326 0.00654338 0)
(-0.020845 0.00744088 0)
(-0.0260778 0.0083874 0)
(-0.0318392 0.00937344 0)
(-0.0381283 0.010387 0)
(-0.0449333 0.0114134 0)
(-0.052231 0.0124358 0)
(-0.0599859 0.0134353 0)
(-0.0681501 0.0143914 0)
(-0.0766639 0.0152828 0)
(-0.0854568 0.0160877 0)
(-0.0944492 0.016785 0)
(-0.103554 0.0173547 0)
(-0.112678 0.017779 0)
(-0.121728 0.018042 0)
(-0.130607 0.0181313 0)
(-0.139224 0.0180372 0)
(-0.147487 0.0177536 0)
(-0.155315 0.0172773 0)
(-0.162629 0.0166084 0)
(-0.16936 0.0157498 0)
(-0.175446 0.0147067 0)
(-0.180833 0.0134865 0)
(-0.185474 0.0120983 0)
(-0.189331 0.0105528 0)
(-0.192372 0.00886195 0)
(-0.194571 0.00703883 0)
(-0.195909 0.00509754 0)
(-0.19637 0.00305317 0)
(-0.195947 0.000921892 0)
(-0.194634 -0.00127901 0)
(-0.192433 -0.00353097 0)
(-0.189349 -0.00581405 0)
(-0.185391 -0.00810681 0)
(-0.180574 -0.0103862 0)
(-0.17492 -0.0126274 0)
(-0.168454 -0.0148042 0)
(-0.16121 -0.0168887 0)
(-0.153225 -0.018852 0)
(-0.144549 -0.020664 0)
(-0.135234 -0.0222948 0)
(-0.125345 -0.0237144 0)
(-0.114952 -0.0248944 0)
(-0.104135 -0.0258085 0)
(-0.0929826 -0.0264336 0)
(-0.0815896 -0.0267509 0)
(-0.0700582 -0.0267472 0)
(-0.0584959 -0.0264154 0)
(-0.0470138 -0.0257557 0)
(-0.0357251 -0.024776 0)
(-0.0247425 -0.0234919 0)
(-0.0141766 -0.0219271 0)
(-0.00413315 -0.0201128 0)
(0.00528928 -0.0180866 0)
(0.0140011 -0.0158917 0)
(0.021924 -0.0135758 0)
(0.0289925 -0.011189 0)
(0.0351553 -0.00878257 0)
(0.0403772 -0.00640727 0)
(0.0446389 -0.0041116 0)
(0.0479389 -0.00194026 0)
(0.0502927 6.72891e-05 0)
(0.0517332 0.00187806 0)
(0.0523099 0.00346663 0)
(0.0520878 0.00481577 0)
(0.051145 0.00591695 0)
(0.0495709 0.00677015 0)
(0.0474621 0.00738347 0)
(0.0449199 0.00777213 0)
(0.0420457 0.00795729 0)
(0.0389379 0.00796435 0)
(0.035688 0.00782151 0)
(0.0323792 0.00755789 0)
(0.0290821 0.00720237 0)
(0.0258568 0.00678197 0)
(0.0227489 0.00632146 0)
(0.0197942 0.00584176 0)
(0.0170142 0.00536059 0)
(0.0144255 0.00488999 0)
(0.0120313 0.00443837 0)
(0.00983807 0.00400582 0)
(0.00783936 0.00358946 0)
(0.00604452 0.00317462 0)
(0.00444563 0.00274906 0)
(0.00306875 0.00228616 0)
(0.00190694 0.00178106 0)
(0.00101273 0.00121568 0)
(0.000366865 0.000646185 0)
(4.91597e-05 0.000121406 0)
(7.99334e-05 -0.000510978 0)
(0.000540977 -0.00158367 0)
(0.00141256 -0.00253382 0)
(0.0025252 -0.00330166 0)
(0.00385275 -0.00381907 0)
(0.00526209 -0.00408547 0)
(0.00669901 -0.00410252 0)
(0.00806502 -0.00390652 0)
(0.00931166 -0.00353528 0)
(0.0103788 -0.00304015 0)
(0.0112406 -0.00246853 0)
(0.0118726 -0.00186736 0)
(0.0122724 -0.00127408 0)
(0.0124409 -0.000717786 0)
(0.0123898 -0.000215414 0)
(0.01213 0.0002269 0)
(0.0116738 0.000614153 0)
(0.0110277 0.000960165 0)
(0.0101926 0.00128576 0)
(0.0091602 0.00161569 0)
(0.00791394 0.00197602 0)
(0.00642807 0.00239125 0)
(0.00466967 0.00288239 0)
(0.00259987 0.00346557 0)
(0.000176096 0.00415172 0)
(-0.00264618 0.00494694 0)
(-0.00591151 0.00585336 0)
(-0.00966301 0.00687008 0)
(-0.0139408 0.00799391 0)
(-0.0187806 0.0092196 0)
(-0.0242121 0.0105397 0)
(-0.0302569 0.0119443 0)
(-0.0369272 0.0134201 0)
(-0.0442232 0.0149501 0)
(-0.052132 0.0165136 0)
(-0.0606262 0.018086 0)
(-0.0696628 0.0196391 0)
(-0.0791837 0.0211422 0)
(-0.0891162 0.0225626 0)
(-0.0993744 0.0238672 0)
(-0.109862 0.0250234 0)
(-0.120476 0.0260005 0)
(-0.131106 0.0267711 0)
(-0.141644 0.0273117 0)
(-0.151983 0.0276036 0)
(-0.16202 0.0276334 0)
(-0.171661 0.0273928 0)
(-0.180821 0.0268789 0)
(-0.189423 0.0260931 0)
(-0.197401 0.0250411 0)
(-0.204702 0.0237321 0)
(-0.211279 0.0221777 0)
(-0.217094 0.0203919 0)
(-0.222119 0.01839 0)
(-0.226331 0.0161884 0)
(-0.229712 0.0138041 0)
(-0.232249 0.011255 0)
(-0.233934 0.00855886 0)
(-0.234761 0.00573426 0)
(-0.234726 0.00280016 0)
(-0.233827 -0.000223715 0)
(-0.232066 -0.00331669 0)
(-0.229444 -0.00645681 0)
(-0.225966 -0.00962061 0)
(-0.22164 -0.0127828 0)
(-0.216475 -0.0159161 0)
(-0.210485 -0.018991 0)
(-0.203688 -0.0219757 0)
(-0.196107 -0.0248363 0)
(-0.18777 -0.0275369 0)
(-0.178713 -0.0300401 0)
(-0.168978 -0.0323076 0)
(-0.158618 -0.0343011 0)
(-0.147692 -0.0359831 0)
(-0.136269 -0.0373185 0)
(-0.124429 -0.0382755 0)
(-0.112259 -0.0388276 0)
(-0.0998544 -0.0389543 0)
(-0.0873197 -0.0386433 0)
(-0.0747634 -0.0378908 0)
(-0.0622984 -0.0367029 0)
(-0.0500394 -0.035096 0)
(-0.0381005 -0.0330965 0)
(-0.0265924 -0.0307407 0)
(-0.0156208 -0.0280736 0)
(-0.00528361 -0.0251481 0)
(0.00433067 -0.022023 0)
(0.0131447 -0.0187612 0)
(0.0210933 -0.0154281 0)
(0.0281248 -0.0120895 0)
(0.0342017 -0.00880985 0)
(0.0393009 -0.00565029 0)
(0.0434149 -0.00266714 0)
(0.0465516 8.97726e-05 0)
(0.0487351 0.00257849 0)
(0.0500052 0.0047662 0)
(0.0504174 0.00663026 0)
(0.0500414 0.00815882 0)
(0.0489594 0.00935101 0)
(0.0472642 0.0102165 0)
(0.0450549 0.0107748 0)
(0.0424344 0.0110532 0)
(0.0395044 0.0110857 0)
(0.0363632 0.0109099 0)
(0.0331002 0.0105657 0)
(0.0297962 0.0100925 0)
(0.026518 0.00952785 0)
(0.0233227 0.00890524 0)
(0.0202508 0.00825385 0)
(0.0173367 0.00759551 0)
(0.0145977 0.0069461 0)
(0.0120534 0.00631049 0)
(0.00970521 0.00568761 0)
(0.00757188 0.0050616 0)
(0.00564728 0.00441628 0)
(0.00396647 0.00371927 0)
(0.00251951 0.00295867 0)
(0.0013778 0.00211004 0)
(0.000519524 0.00122159 0)
(7.60605e-05 0.000334921 0)
(9.25517e-05 -0.000793588 0)
(0.000621611 -0.00230652 0)
(0.00160854 -0.00359423 0)
(0.0028465 -0.00459778 0)
(0.00430015 -0.00525413 0)
(0.00581503 -0.00556563 0)
(0.00733204 -0.00554314 0)
(0.00874301 -0.00523475 0)
(0.0099983 -0.00469344 0)
(0.0110346 -0.00398642 0)
(0.0118266 -0.00317673 0)
(0.0123491 -0.00232501 0)
(0.0125997 -0.00147973 0)
(0.0125776 -0.000677464 0)
(0.012292 6.10381e-05 0)
(0.0117497 0.000729646 0)
(0.0109572 0.00133678 0)
(0.00991364 0.00190253 0)
(0.00861099 0.00245597 0)
(0.007031 0.00303109 0)
(0.0051464 0.00366308 0)
(0.0029207 0.00438456 0)
(0.000310721 0.00522295 0)
(-0.00273173 0.00619867 0)
(-0.00625702 0.00732478 0)
(-0.0103156 0.00860743 0)
(-0.0149555 0.0100469 0)
(-0.0202204 0.0116387 0)
(-0.0261476 0.0133742 0)
(-0.0327656 0.0152408 0)
(-0.0400918 0.0172217 0)
(-0.0481301 0.0192954 0)
(-0.0568688 0.021435 0)
(-0.066279 0.0236082 0)
(-0.0763132 0.0257779 0)
(-0.0869055 0.0279023 0)
(-0.0979724 0.0299368 0)
(-0.109415 0.0318354 0)
(-0.121124 0.0335528 0)
(-0.132979 0.0350459 0)
(-0.144857 0.0362763 0)
(-0.156638 0.0372112 0)
(-0.168203 0.037825 0)
(-0.179445 0.0380994 0)
(-0.190266 0.0380241 0)
(-0.20058 0.0375956 0)
(-0.210316 0.0368174 0)
(-0.219413 0.035698 0)
(-0.227825 0.0342507 0)
(-0.235516 0.032492 0)
(-0.242457 0.0304407 0)
(-0.248631 0.028117 0)
(-0.254022 0.0255418 0)
(-0.258622 0.0227362 0)
(-0.262426 0.0197208 0)
(-0.265429 0.0165162 0)
(-0.267629 0.0131423 0)
(-0.269024 0.00961887 0)
(-0.269612 0.00596549 0)
(-0.269392 0.00220196 0)
(-0.268362 -0.00165132 0)
(-0.26652 -0.00557298 0)
(-0.263863 -0.00954016 0)
(-0.26039 -0.0135282 0)
(-0.2561 -0.01751 0)
(-0.250995 -0.0214558 0)
(-0.245078 -0.0253332 0)
(-0.238355 -0.0291063 0)
(-0.230837 -0.0327363 0)
(-0.22254 -0.0361814 0)
(-0.213487 -0.0393974 0)
(-0.203706 -0.0423381 0)
(-0.193237 -0.0449564 0)
(-0.182127 -0.0472056 0)
(-0.170434 -0.0490407 0)
(-0.158225 -0.0504201 0)
(-0.145582 -0.0513076 0)
(-0.132593 -0.0516739 0)
(-0.119357 -0.051499 0)
(-0.105983 -0.050773 0)
(-0.0925848 -0.0494981 0)
(-0.0792799 -0.047689 0)
(-0.0661877 -0.0453728 0)
(-0.0534263 -0.0425894 0)
(-0.041109 -0.0393898 0)
(-0.0293425 -0.0358345 0)
(-0.018224 -0.0319923 0)
(-0.00784017 -0.0279373 0)
(0.0017346 -0.023747 0)
(0.0104386 -0.0195 0)
(0.0182229 -0.0152739 0)
(0.025052 -0.0111437 0)
(0.0309031 -0.00717966 0)
(0.0357666 -0.00344616 0)
(0.0396464 -5.53866e-08 0)
(0.0425602 0.00311065 0)
(0.0445398 0.00584819 0)
(0.0456316 0.00818621 0)
(0.045896 0.0101106 0)
(0.0454068 0.0116202 0)
(0.0442488 0.012726 0)
(0.0425165 0.0134511 0)
(0.0403087 0.0138284 0)
(0.0377274 0.0138988 0)
(0.0348708 0.0137087 0)
(0.0318334 0.0133069 0)
(0.0286985 0.0127423 0)
(0.0255417 0.0120608 0)
(0.0224223 0.0113039 0)
(0.0193936 0.0105051 0)
(0.0164891 0.00968973 0)
(0.0137445 0.00887036 0)
(0.0111722 0.00805008 0)
(0.00880324 0.00721465 0)
(0.00663637 0.00634523 0)
(0.00471805 0.00540514 0)
(0.00303874 0.00437244 0)
(0.00168972 0.00321325 0)
(0.000650393 0.00195486 0)
(9.88964e-05 0.000620532 0)
(0.000101278 -0.00111416 0)
(0.000681752 -0.00311802 0)
(0.00175616 -0.0047693 0)
(0.00308511 -0.00601296 0)
(0.00462218 -0.00679537 0)
(0.00619237 -0.00712603 0)
(0.00773062 -0.00702951 0)
(0.0091201 -0.00656892 0)
(0.0103107 -0.00581538 0)
(0.0112375 -0.00485358 0)
(0.0118772 -0.0037632 0)
(0.0122051 -0.00261848 0)
(0.0122195 -0.00147821 0)
(0.0119181 -0.000385111 0)
(0.0113072 0.000637967 0)
(0.0103878 0.00158683 0)
(0.00915909 0.00247523 0)
(0.00761018 0.00333127 0)
(0.00572203 0.00419363 0)
(0.00346423 0.00510632 0)
(0.000797372 0.00611382 0)
(-0.00232644 0.00725633 0)
(-0.00596017 0.00856641 0)
(-0.0101595 0.010067 0)
(-0.0149794 0.0117708 0)
(-0.0204714 0.0136813 0)
(-0.0266806 0.0157935 0)
(-0.0336433 0.0180951 0)
(-0.0413839 0.0205674 0)
(-0.049912 0.023185 0)
(-0.0592203 0.0259158 0)
(-0.0692813 0.0287204 0)
(-0.0800466 0.0315529 0)
(-0.0914464 0.0343608 0)
(-0.10339 0.0370872 0)
(-0.115769 0.0396724 0)
(-0.12846 0.0420567 0)
(-0.141333 0.0441831 0)
(-0.15425 0.0460001 0)
(-0.16708 0.0474636 0)
(-0.179695 0.0485389 0)
(-0.191981 0.0492013 0)
(-0.203837 0.0494366 0)
(-0.215177 0.04924 0)
(-0.225933 0.0486156 0)
(-0.236051 0.0475746 0)
(-0.24549 0.0461339 0)
(-0.254222 0.0443144 0)
(-0.262229 0.0421397 0)
(-0.269499 0.0396347 0)
(-0.276027 0.0368249 0)
(-0.281811 0.0337352 0)
(-0.286852 0.0303898 0)
(-0.29115 0.0268117 0)
(-0.294707 0.0230226 0)
(-0.297524 0.0190433 0)
(-0.299602 0.0148933 0)
(-0.300938 0.0105916 0)
(-0.30153 0.00615695 0)
(-0.301373 0.00160827 0)
(-0.300463 -0.00303485 0)
(-0.298792 -0.00775159 0)
(-0.296353 -0.0125193 0)
(-0.293138 -0.017313 0)
(-0.289139 -0.0221049 0)
(-0.284347 -0.0268637 0)
(-0.278756 -0.0315545 0)
(-0.272362 -0.0361381 0)
(-0.265164 -0.0405714 0)
(-0.257163 -0.0448072 0)
(-0.248369 -0.0487944 0)
(-0.238796 -0.0524788 0)
(-0.228468 -0.0558044 0)
(-0.217417 -0.0587142 0)
(-0.205688 -0.0611519 0)
(-0.193336 -0.0630644 0)
(-0.180428 -0.0644036 0)
(-0.167048 -0.0651288 0)
(-0.153289 -0.0652095 0)
(-0.139256 -0.0646269 0)
(-0.125064 -0.0633765 0)
(-0.110838 -0.0614687 0)
(-0.0967051 -0.05893 0)
(-0.0827929 -0.0558021 0)
(-0.0692281 -0.0521416 0)
(-0.0561301 -0.0480172 0)
(-0.0436096 -0.0435081 0)
(-0.0317651 -0.0387007 0)
(-0.0206817 -0.0336856 0)
(-0.0104301 -0.0285549 0)
(-0.0010669 -0.0233995 0)
(0.00736523 -0.0183072 0)
(0.0148362 -0.0133608 0)
(0.021328 -0.00863678 0)
(0.0268337 -0.00420427 0)
(0.0313576 -0.000123846 0)
(0.0349151 0.00355363 0)
(0.0375339 0.00678825 0)
(0.0392537 0.00955236 0)
(0.0401277 0.0118315 0)
(0.0402216 0.0136254 0)
(0.0396131 0.0149474 0)
(0.0383892 0.0158244 0)
(0.0366447 0.0162945 0)
(0.0344765 0.0164054 0)
(0.0319833 0.0162106 0)
(0.0292572 0.0157672 0)
(0.0263864 0.0151311 0)
(0.0234452 0.0143555 0)
(0.0205034 0.0134855 0)
(0.0176105 0.0125574 0)
(0.0148186 0.011593 0)
(0.0121531 0.0106015 0)
(0.00965907 0.00957276 0)
(0.0073434 0.00848627 0)
(0.00526581 0.00730229 0)
(0.00342103 0.00598673 0)
(0.00191981 0.00449393 0)
(0.000745766 0.00282155 0)
(0.000114828 0.000966457 0)
(0.000109029 -0.00145904 0)
(0.000730852 -0.00398837 0)
(0.00187026 -0.00601585 0)
(0.00325882 -0.00749166 0)
(0.00483763 -0.00837542 0)
(0.00641281 -0.00868867 0)
(0.00791312 -0.00847462 0)
(0.00921464 -0.0078153 0)
(0.0102677 -0.00680302 0)
(0.0110077 -0.0055415 0)
(0.0114143 -0.00412754 0)
(0.0114642 -0.00264818 0)
(0.0111569 -0.001171 0)
(0.010488 0.000257413 0)
(0.00945999 0.00161461 0)
(0.00806668 0.00290091 0)
(0.00629755 0.00413771 0)
(0.00412995 0.00536292 0)
(0.00153175 0.00662584 0)
(-0.00154084 0.00798062 0)
(-0.00513967 0.00948008 0)
(-0.00932305 0.0111701 0)
(-0.0141512 0.0130857 0)
(-0.0196833 0.0152487 0)
(-0.025973 0.0176677 0)
(-0.0330653 0.0203385 0)
(-0.0409934 0.0232459 0)
(-0.049775 0.026364 0)
(-0.0594095 0.0296576 0)
(-0.0698748 0.033082 0)
(-0.0811256 0.0365835 0)
(-0.093092 0.0401 0)
(-0.105681 0.0435625 0)
(-0.118776 0.0468975 0)
(-0.132247 0.0500303 0)
(-0.14595 0.0528883 0)
(-0.159737 0.0554047 0)
(-0.173464 0.0575217 0)
(-0.186992 0.059193 0)
(-0.2002 0.0603851 0)
(-0.212981 0.0610775 0)
(-0.225247 0.0612624 0)
(-0.236929 0.060943 0)
(-0.247976 0.0601319 0)
(-0.258353 0.0588488 0)
(-0.268036 0.0571185 0)
(-0.277013 0.054969 0)
(-0.28528 0.0524302 0)
(-0.292836 0.0495318 0)
(-0.299686 0.0463032 0)
(-0.305835 0.0427725 0)
(-0.31129 0.0389659 0)
(-0.316056 0.0349079 0)
(-0.320138 0.0306208 0)
(-0.323541 0.0261254 0)
(-0.326267 0.0214409 0)
(-0.328316 0.0165853 0)
(-0.329686 0.011576 0)
(-0.330375 0.00642978 0)
(-0.330376 0.00116391 0)
(-0.329684 -0.00420366 0)
(-0.328289 -0.00965355 0)
(-0.32618 -0.0151644 0)
(-0.323344 -0.020712 0)
(-0.31977 -0.0262691 0)
(-0.315441 -0.0318043 0)
(-0.310343 -0.0372818 0)
(-0.304462 -0.042661 0)
(-0.297784 -0.0478959 0)
(-0.290299 -0.0529352 0)
(-0.281999 -0.0577228 0)
(-0.272883 -0.0621975 0)
(-0.262957 -0.0662948 0)
(-0.252234 -0.0699475 0)
(-0.240739 -0.0730878 0)
(-0.22851 -0.0756496 0)
(-0.215599 -0.0775709 0)
(-0.202073 -0.0787967 0)
(-0.188014 -0.0792822 0)
(-0.173523 -0.0789957 0)
(-0.158711 -0.0779215 0)
(-0.143707 -0.0760616 0)
(-0.128645 -0.0734372 0)
(-0.113669 -0.0700893 0)
(-0.098919 -0.0660771 0)
(-0.0845361 -0.0614768 0)
(-0.0706506 -0.0563781 0)
(-0.0573811 -0.0508807 0)
(-0.0448304 -0.0450905 0)
(-0.0330843 -0.0391153 0)
(-0.0222104 -0.0330615 0)
(-0.0122593 -0.0270312 0)
(-0.00326624 -0.0211202 0)
(0.00474737 -0.0154165 0)
(0.0117714 -0.00999973 0)
(0.0178056 -0.0049404 0)
(0.0228586 -0.000299468 0)
(0.0269481 0.00387248 0)
(0.0301006 0.00753626 0)
(0.0323536 0.0106653 0)
(0.033755 0.0132468 0)
(0.0343652 0.0152826 0)
(0.0342547 0.0167895 0)
(0.0335054 0.0177982 0)
(0.0322051 0.0183521 0)
(0.0304483 0.0185044 0)
(0.0283277 0.0183151 0)
(0.0259373 0.0178468 0)
(0.0233604 0.0171611 0)
(0.020679 0.0163136 0)
(0.0179561 0.0153508 0)
(0.0152586 0.0143045 0)
(0.0126253 0.0131912 0)
(0.0101157 0.0120064 0)
(0.00774716 0.0107288 0)
(0.00559323 0.00931686 0)
(0.00365612 0.00772298 0)
(0.00206359 0.00588816 0)
(0.000805776 0.00377521 0)
(0.000124775 0.00135058 0)
(0.000115602 -0.00182859 0)
(0.000769527 -0.00491026 0)
(0.00195349 -0.00731852 0)
(0.00337145 -0.00901091 0)
(0.00495113 -0.00996383 0)
(0.00648147 -0.0102157 0)
(0.00788535 -0.00983325 0)
(0.00903363 -0.00892184 0)
(0.00987823 -0.00759813 0)
(0.0103562 -0.0059865 0)
(0.0104512 -0.00420116 0)
(0.0101421 -0.00234086 0)
(0.00942889 -0.000479916 0)
(0.00830496 0.00133394 0)
(0.00676711 0.00308167 0)
(0.00480038 0.00477106 0)
(0.00238274 0.00643353 0)
(-0.00052187 0.00811843 0)
(-0.00395958 0.0098861 0)
(-0.00798742 0.0118 0)
(-0.0126681 0.0139191 0)
(-0.018067 0.0162917 0)
(-0.0242467 0.0189506 0)
(-0.0312628 0.0219117 0)
(-0.0391591 0.0251734 0)
(-0.0479642 0.028718 0)
(-0.0576871 0.0325129 0)
(-0.0683149 0.0365119 0)
(-0.0798091 0.0406567 0)
(-0.0921046 0.0448773 0)
(-0.105109 0.0490942 0)
(-0.118706 0.0532208 0)
(-0.132758 0.057167 0)
(-0.147113 0.0608432 0)
(-0.161611 0.0641653 0)
(-0.176095 0.0670591 0)
(-0.190416 0.0694631 0)
(-0.204439 0.0713314 0)
(-0.21805 0.0726342 0)
(-0.231153 0.0733574 0)
(-0.243677 0.073501 0)
(-0.25557 0.0730766 0)
(-0.266796 0.0721053 0)
(-0.277334 0.0706148 0)
(-0.287176 0.0686368 0)
(-0.296321 0.0662055 0)
(-0.304772 0.0633553 0)
(-0.312539 0.0601202 0)
(-0.31963 0.0565327 0)
(-0.326056 0.0526231 0)
(-0.331829 0.0484196 0)
(-0.336958 0.0439478 0)
(-0.341452 0.0392311 0)
(-0.345319 0.0342906 0)
(-0.348565 0.0291454 0)
(-0.351195 0.023813 0)
(-0.353211 0.0183096 0)
(-0.354615 0.0126504 0)
(-0.355405 0.00685042 0)
(-0.355577 0.000924714 0)
(-0.355127 -0.00511092 0)
(-0.354044 -0.0112393 0)
(-0.352318 -0.0174411 0)
(-0.349935 -0.0236944 0)
(-0.346878 -0.0299735 0)
(-0.343128 -0.0362485 0)
(-0.338663 -0.0424846 0)
(-0.333459 -0.0486413 0)
(-0.327494 -0.0546719 0)
(-0.320741 -0.0605232 0)
(-0.313179 -0.0661354 0)
(-0.304786 -0.0714424 0)
(-0.295549 -0.0763725 0)
(-0.285459 -0.0808491 0)
(-0.274516 -0.0847931 0)
(-0.262735 -0.0881247 0)
(-0.250143 -0.0907663 0)
(-0.236786 -0.0926459 0)
(-0.222727 -0.0937008 0)
(-0.208051 -0.0938817 0)
(-0.192861 -0.0931558 0)
(-0.177283 -0.0915109 0)
(-0.161454 -0.0889572 0)
(-0.145529 -0.0855289 0)
(-0.129669 -0.0812841 0)
(-0.114037 -0.076303 0)
(-0.0987919 -0.0706851 0)
(-0.0840807 -0.0645443 0)
(-0.0700359 -0.0580042 0)
(-0.056769 -0.0511925 0)
(-0.0443692 -0.0442357 0)
(-0.0329028 -0.037255 0)
(-0.0224148 -0.0303633 0)
(-0.0129313 -0.0236628 0)
(-0.00446334 -0.0172446 0)
(0.00299023 -0.0111885 0)
(0.00943927 -0.00556362 0)
(0.0149009 -0.000427918 0)
(0.0193985 0.00417136 0)
(0.0229624 0.00819866 0)
(0.0256301 0.0116311 0)
(0.0274489 0.0144598 0)
(0.0284749 0.0166908 0)
(0.0287756 0.018345 0)
(0.0284264 0.0194582 0)
(0.0275122 0.0200788 0)
(0.0261202 0.0202652 0)
(0.0243434 0.0200821 0)
(0.0222679 0.0195959 0)
(0.0199827 0.0188698 0)
(0.0175601 0.0179586 0)
(0.015079 0.0169036 0)
(0.0125903 0.0157281 0)
(0.0101667 0.0144338 0)
(0.00783756 0.0129998 0)
(0.00568952 0.0113829 0)
(0.00373475 0.00952218 0)
(0.00211453 0.00734497 0)
(0.000826838 0.00477812 0)
(0.000127808 0.00175651 0)
(0.000121912 -0.0022156 0)
(0.000800338 -0.00586374 0)
(0.00200892 -0.00864462 0)
(0.00342514 -0.0105253 0)
(0.00496263 -0.0115035 0)
(0.00639549 -0.0116398 0)
(0.00764182 -0.0110303 0)
(0.00856978 -0.00980777 0)
(0.00913428 -0.00811631 0)
(0.00927579 -0.00610211 0)
(0.00898242 -0.00389636 0)
(0.00823514 -0.00160763 0)
(0.0070341 0.000685841 0)
(0.00536868 0.00293863 0)
(0.00322848 0.00513857 0)
(0.000587823 0.00730394 0)
(-0.00258833 0.00947836 0)
(-0.00635027 0.0117234 0)
(-0.0107576 0.0141098 0)
(-0.0158786 0.0167079 0)
(-0.0217828 0.0195788 0)
(-0.0285369 0.0227676 0)
(-0.0361978 0.026299 0)
(-0.0448081 0.0301759 0)
(-0.0543908 0.0343792 0)
(-0.0649457 0.0388699 0)
(-0.0764462 0.0435911 0)
(-0.0888366 0.0484696 0)
(-0.102031 0.0534185 0)
(-0.115917 0.0583402 0)
(-0.130354 0.0631301 0)
(-0.145185 0.0676814 0)
(-0.160241 0.0718912 0)
(-0.175352 0.0756656 0)
(-0.190354 0.0789246 0)
(-0.205099 0.0816056 0)
(-0.219457 0.0836651 0)
(-0.233325 0.0850787 0)
(-0.246621 0.0858396 0)
(-0.259286 0.0859558 0)
(-0.271283 0.0854475 0)
(-0.282589 0.0843434 0)
(-0.293195 0.0826781 0)
(-0.303099 0.0804895 0)
(-0.31231 0.0778167 0)
(-0.320836 0.0746983 0)
(-0.328692 0.071172 0)
(-0.33589 0.0672731 0)
(-0.342447 0.0630346 0)
(-0.348377 0.0584868 0)
(-0.353695 0.0536575 0)
(-0.358415 0.0485713 0)
(-0.362551 0.0432507 0)
(-0.366114 0.0377155 0)
(-0.369116 0.0319834 0)
(-0.371566 0.0260702 0)
(-0.373472 0.0199902 0)
(-0.37484 0.0137567 0)
(-0.375672 0.00738211 0)