/*--------------------------------*- C++ -*----------------------------------*\
| =========                 |                                                 |
| \\      /  F ield         | OpenFOAM: The Open Source CFD Toolbox           |
|  \\    /   O peration     | Version:  2406                                  |
|   \\  /    A nd           | Website:  www.openfoam.com                      |
|    \\/     M anipulation  |                                                 |
\*---------------------------------------------------------------------------*/
FoamFile
{
    version     2.0;
    format      ascii;
    arch        "LSB;label=32;scalar=64";
    class       volVectorField;
    location    "4";
    object      U_0;
}
// * * * * * * * * * * * * * * * * * * * * * * * * * * * * * * * * * * * * * //

dimensions      [0 1 -1 0 0 0 0];

internalField   nonuniform List<vector> 
3600
(
(-2.34449e-06 2.2818e-06 0)
(-4.51787e-05 1.60339e-05 0)
(-0.000141517 2.91524e-05 0)
(-0.000277952 3.67421e-05 0)
(-0.000435691 4.07927e-05 0)
(-0.000604365 4.24622e-05 0)
(-0.000777326 4.28943e-05 0)
(-0.000951018 4.27334e-05 0)
(-0.00112375 4.23227e-05 0)
(-0.00129476 4.18132e-05 0)
(-0.00146369 4.12553e-05 0)
(-0.00163031 4.06526e-05 0)
(-0.00179437 3.99922e-05 0)
(-0.00195559 3.92577e-05 0)
(-0.00211361 3.84332e-05 0)
(-0.00226804 3.75045e-05 0)
(-0.00241843 3.64587e-05 0)
(-0.00256428 3.52839e-05 0)
(-0.00270507 3.39689e-05 0)
(-0.0028402 3.2503e-05 0)
(-0.00296907 3.08763e-05 0)
(-0.00309101 2.90797e-05 0)
(-0.00320534 2.71054e-05 0)
(-0.00331134 2.49467e-05 0)
(-0.00340829 2.25991e-05 0)
(-0.00349542 2.00599e-05 0)
(-0.003572 1.73292e-05 0)
(-0.00363726 1.44099e-05 0)
(-0.00369049 1.13082e-05 0)
(-0.00373099 8.03388e-06 0)
(-0.0037581 4.59818e-06 0)
(-0.00377127 1.02819e-06 0)
(-0.00376994 -2.61979e-06 0)
(-0.00375367 -6.38501e-06 0)
(-0.0037222 -1.02299e-05 0)
(-0.00367534 -1.41016e-05 0)
(-0.00361302 -1.79599e-05 0)
(-0.00353531 -2.17691e-05 0)
(-0.00344246 -2.54903e-05 0)
(-0.00333485 -2.90844e-05 0)
(-0.00321301 -3.25134e-05 0)
(-0.0030776 -3.57417e-05 0)
(-0.00292945 -3.87376e-05 0)
(-0.00276945 -4.14741e-05 0)
(-0.00259864 -4.39302e-05 0)
(-0.00241809 -4.60914e-05 0)
(-0.00222895 -4.79499e-05 0)
(-0.00203238 -4.95039e-05 0)
(-0.00182956 -5.07543e-05 0)
(-0.0016217 -5.16982e-05 0)
(-0.00141004 -5.23139e-05 0)
(-0.00119602 -5.25348e-05 0)
(-0.000981523 -5.22044e-05 0)
(-0.000769313 -5.10111e-05 0)
(-0.000563788 -4.84041e-05 0)
(-0.000371978 -4.35373e-05 0)
(-0.000204592 -3.52832e-05 0)
(-7.60233e-05 -2.27026e-05 0)
(-2.54587e-06 -6.15114e-06 0)
(7.44098e-06 7.35927e-06 0)
(-1.68449e-05 4.58512e-05 0)
(-0.00016017 0.000156935 0)
(-0.000407887 0.000251169 0)
(-0.000739595 0.000310288 0)
(-0.00111681 0.000342768 0)
(-0.00151968 0.000357897 0)
(-0.00193407 0.000363011 0)
(-0.00235176 0.000362881 0)
(-0.00276834 0.000360226 0)
(-0.0031815 0.000356362 0)
(-0.00358999 0.00035181 0)
(-0.00399291 0.000346698 0)
(-0.00438951 0.000340988 0)
(-0.00477896 0.000334589 0)
(-0.00516038 0.0003274 0)
(-0.00553277 0.000319321 0)
(-0.00589506 0.000310259 0)
(-0.00624608 0.000300125 0)
(-0.00658456 0.000288834 0)
(-0.00690915 0.000276305 0)
(-0.00721842 0.000262465 0)
(-0.00751087 0.000247244 0)
(-0.00778492 0.000230584 0)
(-0.00803895 0.000212436 0)
(-0.00827129 0.000192766 0)
(-0.00848024 0.000171559 0)
(-0.00866411 0.000148815 0)
(-0.00882122 0.000124562 0)
(-0.00894994 9.885e-05 0)
(-0.00904869 7.17576e-05 0)
(-0.00911603 4.3394e-05 0)
(-0.0091506 1.3905e-05 0)
(-0.00915128 -1.65152e-05 0)
(-0.00911712 -4.77174e-05 0)
(-0.00904737 -7.94635e-05 0)
(-0.00894157 -0.000111483 0)
(-0.00879953 -0.000143499 0)
(-0.0086214 -0.000175219 0)
(-0.0084076 -0.000206345 0)
(-0.0081589 -0.000236574 0)
(-0.00787639 -0.000265616 0)
(-0.00756144 -0.000293193 0)
(-0.00721573 -0.000319055 0)
(-0.00684119 -0.000342985 0)
(-0.00643997 -0.000364805 0)
(-0.0060144 -0.000384382 0)
(-0.00556695 -0.000401629 0)
(-0.00510017 -0.000416491 0)
(-0.0046167 -0.000428928 0)
(-0.0041193 -0.000438848 0)
(-0.00361094 -0.000446001 0)
(-0.0030951 -0.000449763 0)
(-0.00257636 -0.000448813 0)
(-0.0020613 -0.000440659 0)
(-0.00155999 -0.000421098 0)
(-0.00108783 -0.000383908 0)
(-0.000667174 -0.000321416 0)
(-0.000326078 -0.000227485 0)
(-0.000100225 -0.000105728 0)
(-4.86148e-06 -1.46839e-06 0)
(-3.14152e-05 0.000146789 0)
(-0.000263761 0.000408436 0)
(-0.000626502 0.0006092 0)
(-0.00109675 0.00073772 0)
(-0.00162414 0.000810986 0)
(-0.00218563 0.000847135 0)
(-0.00276349 0.000860865 0)
(-0.00334684 0.000862159 0)
(-0.00392941 0.000856963 0)
(-0.00450769 0.000848346 0)
(-0.00507956 0.000837655 0)
(-0.00564351 0.000825327 0)
(-0.00619829 0.000811388 0)
(-0.00674263 0.0007957 0)
(-0.00727521 0.000778074 0)
(-0.00779461 0.000758312 0)
(-0.00829932 0.000736217 0)
(-0.00878769 0.0007116 0)
(-0.00925798 0.000684278 0)
(-0.00970833 0.000654078 0)
(-0.0101368 0.000620837 0)
(-0.0105413 0.000584409 0)
(-0.0109198 0.000544667 0)
(-0.01127 0.000501511 0)
(-0.0115897 0.000454873 0)
(-0.0118767 0.000404722 0)
(-0.0121287 0.000351073 0)
(-0.0123435 0.000293989 0)
(-0.0125188 0.000233593 0)
(-0.0126527 0.000170068 0)
(-0.0127433 0.000103663 0)
(-0.0127887 3.46941e-05 0)
(-0.0127876 -3.64694e-05 0)
(-0.0127387 -0.000109349 0)
(-0.0126409 -0.000183439 0)
(-0.0124939 -0.000258174 0)
(-0.0122973 -0.00033294 0)
(-0.0120514 -0.000407088 0)
(-0.0117567 -0.000479951 0)
(-0.0114143 -0.000550862 0)
(-0.0110256 -0.000619169 0)
(-0.0105925 -0.000684256 0)
(-0.0101171 -0.00074556 0)
(-0.00960205 -0.000802589 0)
(-0.0090501 -0.000854932 0)
(-0.00846435 -0.000902272 0)
(-0.00784806 -0.000944376 0)
(-0.00720462 -0.00098108 0)
(-0.00653759 -0.00101222 0)
(-0.00585069 -0.00103749 0)
(-0.00514802 -0.00105619 0)
(-0.00443446 -0.0010668 0)
(-0.00371631 -0.00106622 0)
(-0.00300254 -0.00104891 0)
(-0.0023064 -0.00100585 0)
(-0.00164752 -0.000924146 0)
(-0.00105338 -0.000788405 0)
(-0.000556762 -0.000586691 0)
(-0.000205563 -0.000324928 0)
(-1.8909e-05 -6.71667e-05 0)
(-4.10515e-05 0.000294008 0)
(-0.000336337 0.000754622 0)
(-0.000781983 0.00108593 0)
(-0.00135033 0.00129785 0)
(-0.00198099 0.00142043 0)
(-0.00264939 0.0014826 0)
(-0.00333614 0.00150748 0)
(-0.00402923 0.00151098 0)
(-0.00472151 0.00150279 0)
(-0.00540878 0.00148811 0)
(-0.00608836 0.00146934 0)
(-0.00675831 0.00144735 0)
(-0.00741697 0.0014223 0)
(-0.00806277 0.00139404 0)
(-0.00869405 0.0013623 0)
(-0.00930911 0.00132677 0)
(-0.00990609 0.00128715 0)
(-0.0104831 0.00124312 0)
(-0.0110379 0.0011944 0)
(-0.0115686 0.00114069 0)
(-0.0120727 0.00108174 0)
(-0.0125478 0.00101731 0)
(-0.0129916 0.000947201 0)
(-0.0134014 0.000871248 0)
(-0.0137748 0.000789349 0)
(-0.014109 0.000701466 0)
(-0.0144016 0.000607636 0)
(-0.0146499 0.00050798 0)
(-0.0148515 0.000402716 0)
(-0.0150041 0.000292165 0)
(-0.0151054 0.00017676 0)
(-0.0151537 5.70426e-05 0)
(-0.0151471 -6.63315e-05 0)
(-0.0150844 -0.000192586 0)
(-0.0149645 -0.000320849 0)
(-0.0147869 -0.00045016 0)
(-0.0145513 -0.000579481 0)
(-0.0142581 -0.000707718 0)
(-0.013908 -0.000833751 0)
(-0.0135023 -0.000956457 0)
(-0.0130427 -0.00107474 0)
(-0.0125314 -0.00118757 0)
(-0.0119709 -0.001294 0)
(-0.0113643 -0.00139319 0)
(-0.0107149 -0.00148445 0)
(-0.0100262 -0.00156724 0)
(-0.00930209 -0.00164113 0)
(-0.00854642 -0.00170581 0)
(-0.00776337 -0.00176094 0)
(-0.00695727 -0.00180592 0)
(-0.00613294 -0.00183948 0)
(-0.005296 -0.00185891 0)
(-0.00445373 -0.00185902 0)
(-0.00361621 -0.00183064 0)
(-0.00279813 -0.00175925 0)
(-0.00202085 -0.0016244 0)
(-0.00131413 -0.00140197 0)
(-0.000713161 -0.0010726 0)
(-0.000276086 -0.000641009 0)
(-2.78349e-05 -0.000177057 0)
(-4.72362e-05 0.000470104 0)
(-0.000383415 0.00116033 0)
(-0.000885255 0.00163604 0)
(-0.00152037 0.00193718 0)
(-0.00222045 0.00211163 0)
(-0.00295959 0.00220108 0)
(-0.00371746 0.00223765 0)
(-0.00448164 0.00224338 0)
(-0.00524463 0.00223176 0)
(-0.00600195 0.00221016 0)
(-0.00675065 0.00218208 0)
(-0.00748852 0.00214889 0)
(-0.00821367 0.00211091 0)
(-0.0089243 0.00206799 0)
(-0.00961853 0.0020198 0)
(-0.0102945 0.00196592 0)
(-0.01095 0.00190596 0)
(-0.0115831 0.00183947 0)
(-0.0121914 0.00176604 0)
(-0.0127725 0.0016853 0)
(-0.013324 0.00159685 0)
(-0.0138433 0.00150038 0)
(-0.0143276 0.00139561 0)
(-0.0147742 0.00128232 0)
(-0.0151804 0.00116037 0)
(-0.0155433 0.00102973 0)
(-0.01586 0.00089046 0)
(-0.016128 0.00074275 0)
(-0.0163444 0.000586933 0)
(-0.0165068 0.000423487 0)
(-0.0166129 0.000253053 0)
(-0.0166606 7.64308e-05 0)
(-0.0166481 -0.000105412 0)
(-0.016574 -0.000291349 0)
(-0.0164372 -0.000480108 0)
(-0.0162371 -0.000670284 0)
(-0.0159737 -0.000860367 0)
(-0.0156473 -0.00104877 0)
(-0.0152589 -0.00123387 0)
(-0.0148098 -0.00141404 0)
(-0.0143021 -0.0015877 0)
(-0.0137383 -0.00175335 0)
(-0.0131212 -0.00190963 0)
(-0.0124541 -0.00205533 0)
(-0.0117409 -0.00218946 0)
(-0.0109855 -0.0023112 0)
(-0.010192 -0.00241997 0)
(-0.00936485 -0.00251526 0)
(-0.00850863 -0.00259656 0)
(-0.00762811 -0.00266295 0)
(-0.00672848 -0.00271253 0)
(-0.00581585 -0.0027414 0)
(-0.00489792 -0.00274218 0)
(-0.00398525 -0.00270204 0)
(-0.00309309 -0.00260084 0)
(-0.00224358 -0.00241033 0)
(-0.00146776 -0.00209689 0)
(-0.000802852 -0.00163179 0)
(-0.000314439 -0.00101411 0)
(-3.22918e-05 -0.000312587 0)
(-5.08601e-05 0.000664578 0)
(-0.000412332 0.00160594 0)
(-0.000950466 0.00223722 0)
(-0.00162941 0.00263217 0)
(-0.00237513 0.00286002 0)
(-0.00316039 0.00297702 0)
(-0.00396419 0.0030251 0)
(-0.00477388 0.00303267 0)
(-0.00558191 0.00301709 0)
(-0.00638374 0.00298788 0)
(-0.00717633 0.00294963 0)
(-0.00795737 0.00290419 0)
(-0.00872484 0.00285206 0)
(-0.0094768 0.00279308 0)
(-0.0102113 0.00272688 0)
(-0.0109262 0.00265294 0)
(-0.0116194 0.00257075 0)
(-0.0122887 0.00247976 0)
(-0.0129316 0.00237943 0)
(-0.0135456 0.00226926 0)
(-0.0141281 0.00214878 0)
(-0.0146763 0.00201755 0)
(-0.0151874 0.00187522 0)
(-0.0156585 0.0017215 0)
(-0.0160867 0.00155624 0)
(-0.0164689 0.00137939 0)
(-0.0168022 0.00119103 0)
(-0.0170837 0.000991455 0)
(-0.0173105 0.000781097 0)
(-0.01748 0.000560613 0)
(-0.0175897 0.000330863 0)
(-0.0176374 9.293e-05 0)
(-0.0176211 -0.000151886 0)
(-0.0175394 -0.000402072 0)
(-0.0173912 -0.000655916 0)
(-0.0171758 -0.000911533 0)
(-0.0168931 -0.0011669 0)
(-0.0165435 -0.00141988 0)
(-0.0161282 -0.0016683 0)
(-0.0156487 -0.00190998 0)
(-0.0151072 -0.00214281 0)
(-0.0145064 -0.00236478 0)
(-0.0138496 -0.00257407 0)
(-0.0131404 -0.00276908 0)
(-0.012383 -0.00294849 0)
(-0.0115816 -0.00311123 0)
(-0.0107408 -0.00325649 0)
(-0.00986555 -0.00338363 0)
(-0.00896062 -0.00349194 0)
(-0.00803118 -0.00358022 0)
(-0.00708274 -0.00364596 0)
(-0.00612169 -0.00368408 0)
(-0.00515598 -0.00368501 0)
(-0.00419641 -0.00363225 0)
(-0.00325852 -0.0034999 0)
(-0.00236498 -0.00325156 0)
(-0.00154795 -0.00284328 0)
(-0.000846548 -0.00223525 0)
(-0.00033093 -0.00141851 0)
(-3.37856e-05 -0.000460181 0)
(-5.29588e-05 0.000869993 0)
(-0.000429635 0.0020764 0)
(-0.000990631 0.00287125 0)
(-0.00169785 0.00336346 0)
(-0.00247336 0.00364572 0)
(-0.00328878 0.00379022 0)
(-0.00412248 0.00384943 0)
(-0.0049617 0.0038584 0)
(-0.00579888 0.00383843 0)
(-0.00662955 0.00380116 0)
(-0.00745066 0.00375225 0)
(-0.00825991 0.00369401 0)
(-0.00905523 0.00362708 0)
(-0.00983464 0.00355134 0)
(-0.0105961 0.00346631 0)
(-0.0113375 0.00337142 0)
(-0.0120566 0.003266 0)
(-0.0127511 0.00314941 0)
(-0.0134185 0.00302098 0)
(-0.0140562 0.00288009 0)
(-0.0146614 0.00272613 0)
(-0.0152313 0.00255859 0)
(-0.015763 0.002377 0)
(-0.0162534 0.00218103 0)
(-0.0166994 0.00197046 0)
(-0.0170979 0.00174524 0)
(-0.0174457 0.00150548 0)
(-0.0177398 0.00125153 0)
(-0.017977 0.000983952 0)
(-0.0181546 0.000703574 0)
(-0.0182698 0.000411488 0)
(-0.0183203 0.000109066 0)
(-0.0183039 -0.000202036 0)
(-0.018219 -0.000519893 0)
(-0.0180644 -0.000842322 0)
(-0.0178393 -0.00116692 0)
(-0.0175436 -0.00149109 0)
(-0.0171778 -0.00181211 0)
(-0.0167429 -0.0021272 0)
(-0.0162406 -0.00243357 0)
(-0.0156734 -0.00272851 0)
(-0.0150443 -0.00300947 0)
(-0.0143567 -0.00327412 0)
(-0.0136147 -0.00352043 0)
(-0.0128228 -0.00374671 0)
(-0.0119858 -0.00395163 0)
(-0.0111086 -0.00413419 0)
(-0.0101964 -0.00429358 0)
(-0.00925467 -0.00442896 0)
(-0.00828874 -0.00453885 0)
(-0.00730449 -0.0046202 0)
(-0.00630853 -0.00466678 0)
(-0.00530907 -0.00466688 0)
(-0.00431711 -0.00460025 0)
(-0.00334854 -0.00443512 0)
(-0.00242662 -0.00412654 0)
(-0.00158457 -0.0036195 0)
(-0.000863171 -0.00286218 0)
(-0.000334892 -0.00183686 0)
(-3.36737e-05 -0.000611379 0)
(-5.42109e-05 0.00108187 0)
(-0.000440224 0.00256221 0)
(-0.00101587 0.00352627 0)
(-0.0017417 0.00411845 0)
(-0.00253722 0.00445603 0)
(-0.00337311 0.00462808 0)
(-0.00422724 0.00469815 0)
(-0.0050867 0.00470822 0)
(-0.00594398 0.00468362 0)
(-0.00679465 0.00463812 0)
(-0.00763575 0.0045784 0)
(-0.00846502 0.00450723 0)
(-0.00928041 0.00442536 0)
(-0.0100799 0.00433267 0)
(-0.0108616 0.00422862 0)
(-0.0116232 0.00411251 0)
(-0.0123625 0.00398358 0)
(-0.0130772 0.00384104 0)
(-0.0137647 0.00368409 0)
(-0.0144223 0.00351197 0)
(-0.0150472 0.00332395 0)
(-0.0156366 0.0031194 0)
(-0.0161873 0.00289774 0)
(-0.0166961 0.00265854 0)
(-0.0171598 0.00240154 0)
(-0.0175751 0.00212665 0)
(-0.0179386 0.00183399 0)
(-0.018247 0.00152396 0)
(-0.018497 0.00119724 0)
(-0.0186856 0.000854809 0)
(-0.0188097 0.000498001 0)
(-0.0188666 0.000128481 0)
(-0.0188542 -0.000251727 0)
(-0.0187703 -0.00064026 0)
(-0.0186136 -0.00103443 0)
(-0.0183832 -0.00143127 0)
(-0.0180788 -0.00182756 0)
(-0.0177008 -0.00221994 0)
(-0.0172503 -0.00260494 0)
(-0.0167292 -0.00297909 0)
(-0.01614 -0.00333902 0)
(-0.015486 -0.00368155 0)
(-0.0147711 -0.00400379 0)
(-0.0139996 -0.00430323 0)
(-0.0131765 -0.00457779 0)
(-0.0123071 -0.00482583 0)
(-0.0113968 -0.00504616 0)
(-0.0104515 -0.00523787 0)
(-0.00947672 -0.00539996 0)
(-0.00847852 -0.00553076 0)
(-0.00746304 -0.00562671 0)
(-0.00643723 -0.00568048 0)
(-0.00540957 -0.00567821 0)
(-0.00439139 -0.00559589 0)
(-0.00339901 -0.00539565 0)
(-0.0024564 -0.00502366 0)
(-0.00159781 -0.00441338 0)
(-0.000865388 -0.00350063 0)
(-0.000332359 -0.00225947 0)
(-3.27607e-05 -0.000761698 0)
(-5.50512e-05 0.00129782 0)
(-0.000447391 0.00305797 0)
(-0.00103321 0.00419532 0)
(-0.00177224 0.00488967 0)
(-0.00258228 0.00528352 0)
(-0.00343332 0.00548336 0)
(-0.00430279 0.00556428 0)
(-0.00517766 0.0055754 0)
(-0.00605042 0.00554615 0)
(-0.00691673 0.0054925 0)
(-0.00777371 0.00542213 0)
(-0.00861916 0.00533822 0)
(-0.00945111 0.00524165 0)
(-0.0102676 0.00513226 0)
(-0.0110666 0.00500944 0)
(-0.0118461 0.00487237 0)
(-0.0126037 0.00472016 0)
(-0.0133371 0.00455186 0)
(-0.0140437 0.00436655 0)
(-0.0147208 0.0041633 0)
(-0.0153656 0.00394124 0)
(-0.0159749 0.00369958 0)
(-0.0165457 0.00343763 0)
(-0.0170745 0.00315484 0)
(-0.017558 0.00285086 0)
(-0.0179925 0.00252552 0)
(-0.0183746 0.00217896 0)
(-0.0187006 0.00181159 0)
(-0.0189669 0.00142417 0)
(-0.0191701 0.00101784 0)
(-0.0193069 0.000594148 0)
(-0.0193743 0.000155058 0)
(-0.0193695 -0.000297027 0)
(-0.0192902 -0.000759283 0)
(-0.0191349 -0.00122848 0)
(-0.0189022 -0.00170103 0)
(-0.0185917 -0.00217305 0)
(-0.0182038 -0.00264043 0)
(-0.0177394 -0.00309893 0)
(-0.0172006 -0.00354433 0)
(-0.01659 -0.00397248 0)
(-0.0159112 -0.0043795 0)
(-0.0151685 -0.00476185 0)
(-0.0143668 -0.00511646 0)
(-0.0135115 -0.0054408 0)
(-0.0126086 -0.00573294 0)
(-0.0116641 -0.00599147 0)
(-0.0106844 -0.00621537 0)
(-0.00967574 -0.00640357 0)
(-0.0086446 -0.00655424 0)
(-0.00759764 -0.00666337 0)
(-0.00654218 -0.00672256 0)
(-0.00548711 -0.00671581 0)
(-0.00444419 -0.00661526 0)
(-0.0034303 -0.00637676 0)
(-0.00247016 -0.00593732 0)
(-0.00159903 -0.00521864 0)
(-0.000860148 -0.0041443 0)
(-0.000326487 -0.0026813 0)
(-3.14416e-05 -0.00090889 0)
(-5.573e-05 0.00151675 0)
(-0.000453111 0.00356108 0)
(-0.00104701 0.00487485 0)
(-0.00179665 0.00567326 0)
(-0.00261857 0.00612436 0)
(-0.00348223 0.00635246 0)
(-0.00436473 0.00644444 0)
(-0.00525291 0.00645678 0)
(-0.00613927 0.00642312 0)
(-0.00701954 0.00636161 0)
(-0.00789094 0.00628098 0)
(-0.00875135 0.0061848 0)
(-0.00959886 0.00607405 0)
(-0.0104316 0.00594854 0)
(-0.0112476 0.00580755 0)
(-0.0120448 0.00565015 0)
(-0.012821 0.00547528 0)
(-0.0135737 0.00528186 0)
(-0.0143004 0.00506877 0)
(-0.0149984 0.00483492 0)
(-0.0156647 0.00457927 0)
(-0.0162961 0.00430085 0)
(-0.0168894 0.00399881 0)
(-0.0174411 0.00367246 0)
(-0.0179475 0.0033213 0)
(-0.0184048 0.00294509 0)
(-0.0188092 0.0025439 0)
(-0.0191566 0.00211813 0)
(-0.0194432 0.00166861 0)
(-0.0196651 0.00119659 0)
(-0.0198186 0.000703818 0)
(-0.0199001 0.000192561 0)
(-0.0199065 -0.000334399 0)
(-0.0198351 -0.00087375 0)
(-0.0196838 -0.00142168 0)
(-0.019451 -0.00197393 0)
(-0.019136 -0.00252584 0)
(-0.0187389 -0.00307248 0)
(-0.0182607 -0.00360875 0)
(-0.0177034 -0.00412952 0)
(-0.01707 -0.00462978 0)
(-0.0163642 -0.00510479 0)
(-0.015591 -0.00555026 0)
(-0.0147557 -0.00596248 0)
(-0.0138645 -0.00633842 0)
(-0.0129241 -0.00667578 0)
(-0.0119413 -0.00697294 0)
(-0.0109231 -0.00722879 0)
(-0.00987678 -0.00744225 0)
(-0.00880926 -0.00761138 0)
(-0.00772781 -0.00773178 0)
(-0.00664031 -0.00779406 0)
(-0.00555613 -0.00778003 0)
(-0.00448756 -0.00765791 0)
(-0.00345211 -0.00737712 0)
(-0.00247532 -0.00686532 0)
(-0.0015934 -0.00603233 0)
(-0.000850451 -0.00478993 0)
(-0.000318517 -0.00309964 0)
(-2.98511e-05 -0.00105171 0)
(-5.63775e-05 0.00173829 0)
(-0.000458454 0.00407048 0)
(-0.00105974 0.00556334 0)
(-0.00181905 0.00646753 0)
(-0.00265191 0.00697692 0)
(-0.00352734 0.00723388 0)
(-0.00442217 0.00733733 0)
(-0.00532313 0.00735126 0)
(-0.00622275 0.0073136 0)
(-0.00711681 0.00724474 0)
(-0.00800263 0.00715444 0)
(-0.00887819 0.00704667 0)
(-0.00974167 0.0069225 0)
(-0.0105913 0.00678169 0)
(-0.0114251 0.00662342 0)
(-0.0122412 0.0064466 0)
(-0.0130373 0.00625002 0)
(-0.013811 0.00603241 0)
(-0.0145598 0.00579246 0)
(-0.0152809 0.00552889 0)
(-0.0159713 0.00524044 0)
(-0.0166278 0.00492594 0)
(-0.0172468 0.00458434 0)
(-0.0178249 0.00421474 0)
(-0.0183579 0.00381649 0)
(-0.018842 0.0033892 0)
(-0.0192728 0.00293282 0)
(-0.019646 0.00244772 0)
(-0.0199572 0.00193471 0)
(-0.0202021 0.00139514 0)
(-0.0203763 0.000830945 0)
(-0.0204758 0.000244653 0)
(-0.020497 -0.000360555 0)
(-0.0204364 -0.000980861 0)
(-0.0202915 -0.00161182 0)
(-0.0200603 -0.00224843 0)
(-0.0197416 -0.00288519 0)
(-0.0193353 -0.0035162 0)
(-0.0188423 -0.00413536 0)
(-0.0182647 -0.00473649 0)
(-0.0176055 -0.00531355 0)
(-0.0168691 -0.0058608 0)
(-0.0160608 -0.00637307 0)
(-0.0151867 -0.00684586 0)
(-0.014254 -0.00727555 0)
(-0.0132702 -0.00765941 0)
(-0.0122431 -0.00799563 0)
(-0.0111807 -0.00828304 0)
(-0.010091 -0.00852057 0)
(-0.008982 -0.00870629 0)
(-0.00786157 -0.00883548 0)
(-0.00673825 -0.00889778 0)
(-0.00562201 -0.00887288 0)
(-0.00452576 -0.00872496 0)
(-0.0034677 -0.00839692 0)
(-0.00247422 -0.00780688 0)
(-0.00158238 -0.00685287 0)
(-0.000837004 -0.00543547 0)
(-0.00030864 -0.00351258 0)
(-2.79916e-05 -0.00118918 0)
(-5.70506e-05 0.00196242 0)
(-0.000463924 0.00458602 0)
(-0.00107261 0.00626043 0)
(-0.00184156 0.00727205 0)
(-0.00268533 0.00784081 0)
(-0.00357259 0.00812736 0)
(-0.00447991 0.00824284 0)
(-0.00539397 0.00825888 0)
(-0.00630728 0.00821779 0)
(-0.00721572 0.00814224 0)
(-0.0081167 0.00804303 0)
(-0.00900831 0.00792452 0)
(-0.00988883 0.00778789 0)
(-0.0107566 0.00763282 0)
(-0.0116097 0.00745838 0)
(-0.0124463 0.0072633 0)
(-0.0132643 0.00704621 0)
(-0.0140612 0.00680562 0)
(-0.0148345 0.00654003 0)
(-0.0155815 0.0062479 0)
(-0.0162991 0.00592775 0)
(-0.0169839 0.00557815 0)
(-0.0176323 0.00519779 0)
(-0.0182406 0.00478555 0)
(-0.0188045 0.00434052 0)
(-0.0193196 0.00386212 0)
(-0.0197814 0.00335014 0)
(-0.0201849 0.00280481 0)
(-0.0205254 0.00222692 0)
(-0.0207978 0.00161784 0)
(-0.0209972 0.00097964 0)
(-0.0211189 0.00031511 0)
(-0.0211585 -0.000372187 0)
(-0.0211119 -0.0010779 0)
(-0.0209759 -0.00179692 0)
(-0.0207478 -0.0025234 0)
(-0.0204261 -0.00325086 0)
(-0.0200102 -0.00397235 0)
(-0.0195009 -0.00468057 0)
(-0.0189002 -0.0053681 0)
(-0.0182114 -0.00602765 0)
(-0.0174395 -0.00665231 0)
(-0.0165903 -0.00723581 0)
(-0.015671 -0.00777274 0)
(-0.0146897 -0.00825873 0)
(-0.013655 -0.0086906 0)
(-0.0125761 -0.00906628 0)
(-0.0114621 -0.00938458 0)
(-0.0103223 -0.00964457 0)
(-0.00916549 -0.00984437 0)
(-0.00800059 -0.00997908 0)
(-0.0068369 -0.0100375 0)
(-0.00568508 -0.00999714 0)
(-0.0045587 -0.00981819 0)
(-0.00347672 -0.00943687 0)
(-0.00246633 -0.00876171 0)
(-0.00156539 -0.00767905 0)
(-0.0008193 -0.00607908 0)
(-0.000296527 -0.00391823 0)
(-2.58052e-05 -0.00132024 0)
(-5.77669e-05 0.00218927 0)
(-0.000469703 0.0051079 0)
(-0.00108612 0.00696633 0)
(-0.00186509 0.00808706 0)
(-0.00272019 0.00871631 0)
(-0.00361976 0.00903325 0)
(-0.00454016 0.00916144 0)
(-0.00546798 0.00918023 0)
(-0.00639578 0.00913642 0)
(-0.00731951 0.00905497 0)
(-0.00823669 0.00894775 0)
(-0.00914553 0.00881953 0)
(-0.0100444 0.00867155 0)
(-0.0109318 0.00850345 0)
(-0.011806 0.00831414 0)
(-0.0126651 0.0081022 0)
(-0.013507 0.00786605 0)
(-0.0143295 0.00760397 0)
(-0.0151301 0.00731421 0)
(-0.0159059 0.00699499 0)
(-0.0166539 0.00664452 0)
(-0.0173706 0.00626108 0)
(-0.0180523 0.00584307 0)
(-0.018695 0.00538904 0)
(-0.0192942 0.00489779 0)
(-0.0198451 0.00436847 0)
(-0.0203427 0.00380061 0)
(-0.0207817 0.00319427 0)
(-0.0211566 0.00255009 0)
(-0.0214616 0.00186942 0)
(-0.0216911 0.00115442 0)
(-0.0218396 0.000408075 0)
(-0.0219018 -0.000365665 0)
(-0.0218727 -0.00116191 0)
(-0.0217484 -0.00197482 0)
(-0.0215253 -0.00279763 0)
(-0.0212012 -0.00362278 0)
(-0.0207753 -0.00444204 0)
(-0.0202478 -0.00524671 0)
(-0.0196208 -0.00602791 0)
(-0.018898 -0.00677687 0)
(-0.0180847 -0.0074852 0)
(-0.0171877 -0.00814531 0)
(-0.0162153 -0.00875065 0)
(-0.0151768 -0.00929598 0)
(-0.0140824 -0.00977754 0)
(-0.0129427 -0.010193 0)
(-0.0117686 -0.0105412 0)
(-0.0105705 -0.0108214 0)
(-0.00935866 -0.0110319 0)
(-0.00814308 -0.011168 0)
(-0.00693396 -0.0112174 0)
(-0.00574276 -0.0111559 0)
(-0.00458378 -0.0109395 0)
(-0.0034767 -0.0104976 0)
(-0.0024495 -0.00972932 0)
(-0.00154073 -0.00850936 0)
(-0.000796194 -0.00671855 0)
(-0.000281596 -0.00431426 0)
(-2.32087e-05 -0.00144356 0)
(-5.85241e-05 0.00241902 0)
(-0.000475812 0.00563647 0)
(-0.00110038 0.00768149 0)
(-0.00188988 0.00891305 0)
(-0.0027569 0.00960399 0)
(-0.00366943 0.0099522 0)
(-0.00460363 0.0100938 0)
(-0.00554601 0.0101161 0)
(-0.00648918 0.0100704 0)
(-0.0074292 0.00998395 0)
(-0.0083637 0.00986976 0)
(-0.00929102 0.00973299 0)
(-0.0102097 0.00957495 0)
(-0.0111183 0.00939522 0)
(-0.0120152 0.00919257 0)
(-0.0128988 0.00896538 0)
(-0.0137669 0.00871185 0)
(-0.0146175 0.00843003 0)
(-0.0154481 0.00811788 0)
(-0.0162558 0.00777332 0)
(-0.0170376 0.00739424 0)
(-0.01779 0.00697857 0)
(-0.0185091 0.00652432 0)
(-0.0191906 0.00602968 0)
(-0.0198298 0.00549308 0)
(-0.0204217 0.00491328 0)
(-0.0209605 0.00428949 0)
(-0.0214405 0.00362146 0)
(-0.0218555 0.00290963 0)
(-0.0221989 0.00215524 0)
(-0.0224642 0.00136041 0)
(-0.0226448 0.000528322 0)
(-0.0227345 -0.000336756 0)
(-0.0227273 -0.00122939 0)
(-0.022618 -0.00214294 0)
(-0.0224023 -0.00306966 0)
(-0.0220771 -0.00400071 0)
(-0.0216406 -0.00492642 0)
(-0.021093 -0.00583643 0)
(-0.0204362 -0.00672009 0)
(-0.0196741 -0.0075668 0)
(-0.0188126 -0.0083664 0)
(-0.0178597 -0.00910964 0)
(-0.0168248 -0.00978855 0)
(-0.0157191 -0.0103968 0)
(-0.0145545 -0.0109299 0)
(-0.0133436 -0.0113853 0)
(-0.0120991 -0.0117619 0)
(-0.0108334 -0.0120593 0)
(-0.00955826 -0.0122762 0)
(-0.00828504 -0.012408 0)
(-0.00702503 -0.0124422 0)
(-0.00579056 -0.0123523 0)
(-0.00459669 -0.0120905 0)
(-0.00346378 -0.0115795 0)
(-0.00242051 -0.0107087 0)
(-0.00150597 -0.00934165 0)
(-0.000766151 -0.00735091 0)
(-0.000263121 -0.00469772 0)
(-2.01058e-05 -0.00155751 0)
(-5.93112e-05 0.00265179 0)
(-0.00048219 0.00617209 0)
(-0.00111529 0.00840637 0)
(-0.00191585 0.00975058 0)
(-0.00279537 0.0105045 0)
(-0.00372152 0.0108849 0)
(-0.00467023 0.0110408 0)
(-0.00562796 0.0110674 0)
(-0.00658738 0.0110206 0)
(-0.00754464 0.0109302 0)
(-0.00849753 0.0108102 0)
(-0.00944453 0.0106662 0)
(-0.0103843 0.0104996 0)
(-0.0113157 0.0103098 0)
(-0.0122371 0.0100955 0)
(-0.0131469 0.00985491 0)
(-0.0140435 0.00958595 0)
(-0.0149246 0.00928642 0)
(-0.0157879 0.00895397 0)
(-0.0166307 0.00858617 0)
(-0.0174498 0.00818054 0)
(-0.0182417 0.0077346 0)
(-0.0190025 0.00724593 0)
(-0.0197276 0.00671225 0)
(-0.020412 0.00613152 0)
(-0.0210503 0.00550204 0)
(-0.0216363 0.00482255 0)
(-0.0221636 0.0040924 0)
(-0.0226252 0.0033117 0)
(-0.0230136 0.00248142 0)
(-0.0233212 0.00160361 0)
(-0.0235404 0.000681502 0)
(-0.0236636 -0.000280356 0)
(-0.0236835 -0.00127599 0)
(-0.0235936 -0.00229797 0)
(-0.0233884 -0.0033374 0)
(-0.0230636 -0.00438407 0)
(-0.0226167 -0.00542655 0)
(-0.0220471 -0.00645256 0)
(-0.0213565 -0.0074493 0)
(-0.0205492 -0.00840391 0)
(-0.0196317 -0.00930402 0)
(-0.0186132 -0.0101383 0)
(-0.0175049 -0.010897 0)
(-0.01632 -0.0115725 0)
(-0.0150727 -0.0121593 0)
(-0.0137781 -0.0126546 0)
(-0.0124514 -0.0130573 0)
(-0.0111072 -0.0133677 0)
(-0.00975927 -0.0135853 0)
(-0.00842067 -0.0137058 0)
(-0.00710394 -0.0137165 0)
(-0.00582236 -0.0135894 0)
(-0.0045917 -0.0132726 0)
(-0.00343293 -0.0126822 0)
(-0.00237527 -0.0116979 0)
(-0.00145812 -0.0101727 0)
(-0.00072732 -0.00797221 0)
(-0.000240259 -0.00506479 0)
(-1.63886e-05 -0.00166004 0)
(-6.0113e-05 0.00288771 0)
(-0.000488743 0.00671503 0)
(-0.00113069 0.0091414 0)
(-0.00194273 0.0106002 0)
(-0.00283528 0.0114183 0)
(-0.00377564 0.011832 0)
(-0.00473949 0.012003 0)
(-0.00571327 0.0120348 0)
(-0.0066897 0.011988 0)
(-0.00766507 0.0118948 0)
(-0.0086373 0.0117703 0)
(-0.00960504 0.0116204 0)
(-0.0105672 0.0114467 0)
(-0.0115226 0.0112487 0)
(-0.0124701 0.0110247 0)
(-0.0134081 0.0107728 0)
(-0.0143352 0.0104906 0)
(-0.0152492 0.0101757 0)
(-0.016148 0.0098254 0)
(-0.0170289 0.00943685 0)
(-0.0178888 0.00900715 0)
(-0.0187243 0.00853336 0)
(-0.0195312 0.00801254 0)
(-0.0203048 0.00744186 0)
(-0.02104 0.00681871 0)
(-0.0217308 0.00614077 0)
(-0.0223706 0.00540624 0)
(-0.0229522 0.00461388 0)
(-0.0234677 0.00376331 0)
(-0.0239087 0.00285511 0)
(-0.0242664 0.00189108 0)
(-0.0245318 0.000874393 0)
(-0.0246956 -0.000190218 0)
(-0.0247492 -0.00129629 0)
(-0.0246843 -0.00243557 0)
(-0.0244938 -0.00359797 0)
(-0.024172 -0.00477165 0)
(-0.0237152 -0.00594321 0)
(-0.0231219 -0.00709803 0)
(-0.0223934 -0.00822069 0)
(-0.0215342 -0.00929556 0)
(-0.0205516 -0.0103075 0)
(-0.0194563 -0.0112425 0)
(-0.0182616 -0.0120887 0)
(-0.016983 -0.0128365 0)
(-0.0156381 -0.0134794 0)
(-0.014245 -0.014014 0)
(-0.0128219 -0.0144398 0)
(-0.0113864 -0.0147577 0)
(-0.00995486 -0.0149684 0)
(-0.00854224 -0.0150685 0)
(-0.00716261 -0.0150454 0)
(-0.00583023 -0.0148697 0)
(-0.00456152 -0.0144862 0)
(-0.00337786 -0.0138041 0)
(-0.00230874 -0.0126939 0)
(-0.00139354 -0.0109982 0)
(-0.000677531 -0.00857727 0)
(-0.000212051 -0.00541068 0)
(-1.19362e-05 -0.00174869 0)
(-6.09129e-05 0.0031268 0)
(-0.000495361 0.00726549 0)
(-0.00114636 0.0098869 0)
(-0.00197021 0.0114623 0)
(-0.00287619 0.0123461 0)
(-0.00383121 0.012794 0)
(-0.00481074 0.0129811 0)
(-0.00580115 0.0130191 0)
(-0.00679522 0.0129733 0)
(-0.00778939 0.0128785 0)
(-0.00878176 0.0127507 0)
(-0.00977117 0.0125966 0)
(-0.0107567 0.0124177 0)
(-0.0117374 0.0122133 0)
(-0.0127124 0.0119818 0)
(-0.0136803 0.0117209 0)
(-0.0146397 0.0114281 0)
(-0.0155889 0.0111005 0)
(-0.0165258 0.0107351 0)
(-0.0174479 0.0103287 0)
(-0.0183522 0.00987784 0)
(-0.0192353 0.00937913 0)
(-0.020093 0.00882898 0)
(-0.0209205 0.00822393 0)
(-0.0217124 0.00756065 0)
(-0.0224623 0.00683611 0)
(-0.0231631 0.00604772 0)
(-0.0238068 0.00519355 0)
(-0.0243847 0.00427252 0)
(-0.0248871 0.00328462 0)
(-0.025304 0.00223119 0)
(-0.0256245 0.00111517 0)
(-0.0258379 -5.86496e-05 0)
(-0.0259333 -0.00128343 0)
(-0.0259005 -0.0025501 0)
(-0.0257305 -0.0038473 0)
(-0.0254154 -0.0051614 0)
(-0.02495 -0.00647668 0)
(-0.0243317 -0.00777573 0)
(-0.023561 -0.00903994 0)
(-0.0226424 -0.0102502 0)
(-0.0215842 -0.0113879 0)
(-0.0203987 -0.0124357 0)
(-0.0191018 -0.0133786 0)
(-0.0177124 -0.0142049 0)
(-0.0162517 -0.0149065 0)
(-0.014742 -0.0154797 0)
(-0.0132056 -0.0159242 0)
(-0.0116638 -0.0162422 0)
(-0.010136 -0.0164359 0)
(-0.00863967 -0.0165037 0)
(-0.00719064 -0.0164336 0)
(-0.00580413 -0.0161956 0)
(-0.00449703 -0.015731 0)
(-0.00329081 -0.0149427 0)
(-0.00221484 -0.013692 0)
(-0.00130793 -0.0118119 0)
(-0.000614253 -0.00915938 0)
(-0.000177406 -0.00572945 0)
(-6.61449e-06 -0.00182049 0)
(-6.16937e-05 0.00336907 0)
(-0.000501928 0.00782354 0)
(-0.00116206 0.0106431 0)
(-0.0019979 0.0123371 0)
(-0.00291759 0.0132881 0)
(-0.00388762 0.0137715 0)
(-0.0048832 0.0139756 0)
(-0.00589065 0.0140208 0)
(-0.00690284 0.0139771 0)
(-0.00791634 0.0138819 0)
(-0.00892945 0.0137524 0)
(-0.00994123 0.0135958 0)
(-0.010951 0.0134135 0)
(-0.0119581 0.0132049 0)
(-0.0129617 0.0129682 0)
(-0.0139609 0.0127009 0)
(-0.0149545 0.0124002 0)
(-0.0159409 0.012063 0)
(-0.0169184 0.0116857 0)
(-0.0178847 0.0112649 0)
(-0.0188369 0.0107964 0)
(-0.0197716 0.0102763 0)
(-0.0206849 0.00970033 0)
(-0.0215718 0.00906422 0)
(-0.0224266 0.00836384 0)
(-0.0232428 0.00759526 0)
(-0.0240126 0.00675497 0)
(-0.0247272 0.00584008 0)
(-0.025377 0.00484858 0)
(-0.0259511 0.00377962 0)
(-0.0264377 0.00263385 0)
(-0.0268244 0.00141372 0)
(-0.027098 0.000123839 0)
(-0.0272455 -0.00122872 0)
(-0.0272541 -0.00263417 0)
(-0.027112 -0.0040798 0)
(-0.0268091 -0.00555002 0)
(-0.0263378 -0.00702646 0)
(-0.0256937 -0.00848836 0)
(-0.0248763 -0.00991319 0)
(-0.0238899 -0.0112776 0)
(-0.0227438 -0.0125583 0)
(-0.0214522 -0.0137338 0)
(-0.0200342 -0.0147851 0)
(-0.0185129 -0.0156974 0)
(-0.0169143 -0.0164609 0)
(-0.0152661 -0.017071 0)
(-0.0135958 -0.0175281 0)
(-0.0119295 -0.0178362 0)
(-0.0102907 -0.0179999 0)
(-0.00869985 -0.0180199 0)
(-0.00717469 -0.0178861 0)
(-0.00573137 -0.0175683 0)
(-0.00438689 -0.0170051 0)
(-0.0031623 -0.0160935 0)
(-0.00208621 -0.0146856 0)
(-0.00119618 -0.0126058 0)
(-0.000534558 -0.00971002 0)
(-0.0001351 -0.00601383 0)
(-2.48612e-07 -0.00187197 0)