/*--------------------------------*- C++ -*----------------------------------*\
| =========                 |                                                 |
| \\      /  F ield         | OpenFOAM: The Open Source CFD Toolbox           |
|  \\    /   O peration     | Version:  2406                                  |
|   \\  /    A nd           | Website:  www.openfoam.com                      |
|    \\/     M anipulation  |                                                 |
\*---------------------------------------------------------------------------*/
FoamFile
{
    version     2.0;
    format      ascii;
    arch        "LSB;label=32;scalar=64";
    class       surfaceScalarField;
    location    "24";
    object      phi_0;
}
// * * * * * * * * * * * * * * * * * * * * * * * * * * * * * * * * * * * * * //

dimensions      [0 3 -1 0 0 0 0];

oriented        oriented;

internalField   nonuniform List<scalar> 
32512
(
3.18182e-09
-3.10564e-09
3.91219e-08
-3.594e-08
1.07928e-07
-6.88057e-08
2.00728e-07
-9.28e-08
3.08347e-07
-1.07618e-07
4.23177e-07
-1.1483e-07
5.39344e-07
-1.16167e-07
6.5251e-07
-1.13166e-07
7.59607e-07
-1.07097e-07
8.58579e-07
-9.89719e-08
9.4816e-07
-8.95814e-08
1.02769e-06
-7.95301e-08
1.09696e-06
-6.92682e-08
1.15608e-06
-5.91177e-08
1.20537e-06
-4.9295e-08
1.2453e-06
-3.99283e-08
1.27637e-06
-3.10715e-08
1.29909e-06
-2.27148e-08
1.31388e-06
-1.4796e-08
1.3211e-06
-7.21925e-09
1.3208e-06
2.9656e-10
1.3131e-06
7.70357e-09
1.29768e-06
1.54252e-08
1.27403e-06
2.36421e-08
1.24141e-06
3.26195e-08
1.19879e-06
4.26278e-08
1.14485e-06
5.3938e-08
1.07804e-06
6.68099e-08
9.96548e-07
8.14899e-08
8.98346e-07
9.82021e-08
7.812e-07
1.17147e-07
6.42703e-07
1.38497e-07
4.80315e-07
1.62388e-07
2.91379e-07
1.88936e-07
7.31687e-08
2.18211e-07
-1.77077e-07
2.50246e-07
-4.62112e-07
2.85034e-07
-7.84626e-07
3.22514e-07
-1.1472e-06
3.62569e-07
-1.55221e-06
4.05016e-07
-2.00181e-06
4.49597e-07
-2.49779e-06
4.95979e-07
-3.04153e-06
5.43744e-07
-3.63392e-06
5.92388e-07
-4.27524e-06
6.41323e-07
-4.96512e-06
6.89878e-07
-5.70243e-06
7.37307e-07
-6.48522e-06
7.82797e-07
-7.3107e-06
8.2548e-07
-8.17515e-06
8.64444e-07
-9.0739e-06
8.98754e-07
-1.00014e-05
9.27461e-07
-1.0951e-05
9.49626e-07
-1.19153e-05
9.64334e-07
-1.2886e-05
9.70713e-07
-1.3854e-05
9.6795e-07
-1.48093e-05
9.55307e-07
-1.57414e-05
9.32137e-07
-1.66393e-05
8.97897e-07
-1.74915e-05
8.52164e-07
-1.82861e-05
7.94648e-07
-1.90113e-05
7.25206e-07
-1.96552e-05
6.43865e-07
-2.02061e-05
5.50858e-07
-2.06527e-05
4.46662e-07
-2.09847e-05
3.3198e-07
-2.11923e-05
2.0756e-07
-2.12666e-05
7.43566e-08
-2.11965e-05
-7.00889e-08
-2.09779e-05
-2.18601e-07
-2.06073e-05
-3.70676e-07
-2.0081e-05
-5.26212e-07
-1.93988e-05
-6.82265e-07
-1.85623e-05
-8.36449e-07
-1.75761e-05
-9.86223e-07
-1.64472e-05
-1.12891e-06
-1.51854e-05
-1.26177e-06
-1.38034e-05
-1.38204e-06
-1.23164e-05
-1.48703e-06
-1.07421e-05
-1.57421e-06
-9.10084e-06
-1.64131e-06
-7.41444e-06
-1.6864e-06
-5.70643e-06
-1.70801e-06
-4.00124e-06
-1.70519e-06
-2.32364e-06
-1.6776e-06
-6.98052e-07
-1.62559e-06
8.52343e-07
-1.55039e-06
2.30587e-06
-1.45352e-06
3.64303e-06
-1.33716e-06
4.84744e-06
-1.20441e-06
5.90621e-06
-1.05878e-06
6.81018e-06
-9.03965e-07
7.55409e-06
-7.43908e-07
8.13671e-06
-5.82619e-07
8.56065e-06
-4.23946e-07
8.83211e-06
-2.71463e-07
8.96046e-06
-1.2834e-07
8.95742e-06
3.03239e-09
8.83725e-06
1.2017e-07
8.61526e-06
2.2199e-07
8.30742e-06
3.07846e-07
7.9299e-06
3.77521e-07
7.49852e-06
4.31371e-07
7.02827e-06
4.70255e-07
6.53287e-06
4.95399e-07
6.02458e-06
5.08285e-07
5.51403e-06
5.10553e-07
5.01012e-06
5.03909e-07
4.52007e-06
4.90047e-07
4.04948e-06
4.70594e-07
3.60243e-06
4.47055e-07
3.18163e-06
4.20793e-07
2.78863e-06
3.93006e-07
2.42391e-06
3.64722e-07
2.08711e-06
3.36794e-07
1.77723e-06
3.09884e-07
1.49278e-06
2.84452e-07
1.23206e-06
2.60714e-07
9.93464e-07
2.38598e-07
7.75779e-07
2.17684e-07
5.78631e-07
1.97148e-07
4.02903e-07
1.75728e-07
2.51141e-07
1.51762e-07
1.27768e-07
1.23373e-07
3.87371e-08
8.90308e-08
-1.02233e-08
4.89605e-08
-1.84697e-08
8.24657e-09
-1.84694e-08
3.56082e-08
-3.87138e-08
1.4672e-07
-1.47052e-07
3.23756e-07
-2.45842e-07
5.49899e-07
-3.18944e-07
8.07597e-07
-3.65316e-07
1.08124e-06
-3.88471e-07
1.35798e-06
-3.9291e-07
1.6278e-06
-3.82985e-07
1.88321e-06
-3.62502e-07
2.11886e-06
-3.34627e-07
2.33118e-06
-3.019e-07
2.51795e-06
-2.66303e-07
2.67801e-06
-2.29328e-07
2.81095e-06
-1.92056e-07
2.91687e-06
-1.55211e-07
2.99616e-06
-1.19222e-07
3.04935e-06
-8.42604e-08
3.07691e-06
-5.02773e-08
3.07916e-06
-1.70417e-08
3.05606e-06
1.58773e-08
3.00731e-06
4.90489e-08
2.9319e-06
8.31099e-08
2.82843e-06
1.18895e-07
2.6948e-06
1.57272e-07
2.52825e-06
1.99168e-07
2.32535e-06
2.4553e-07
2.08199e-06
2.97304e-07
1.7934e-06
3.55391e-07
1.45426e-06
4.20632e-07
1.05869e-06
4.93774e-07
6.00381e-07
5.75457e-07
7.26788e-08
6.66198e-07
-5.31319e-07
7.66386e-07
-1.21859e-06
8.76208e-07
-1.99611e-06
9.95732e-07
-2.87069e-06
1.12482e-06
-3.84878e-06
1.26313e-06
-4.93636e-06
1.41009e-06
-6.13865e-06
1.56486e-06
-7.46e-06
1.72636e-06
-8.90358e-06
1.89319e-06
-1.04713e-05
2.06365e-06
-1.21633e-05
2.23577e-06
-1.39782e-05
2.40727e-06
-1.59124e-05
2.5756e-06
-1.79605e-05
2.73798e-06
-2.01147e-05
2.89144e-06
-2.23648e-05
3.03288e-06
-2.46984e-05
3.15912e-06
-2.71009e-05
3.26696e-06
-2.95554e-05
3.35327e-06
-3.2043e-05
3.41505e-06
-3.45429e-05
3.44947e-06
-3.70325e-05
3.45397e-06
-3.94881e-05
3.42628e-06
-4.18846e-05
3.36449e-06
-4.41964e-05
3.26709e-06
-4.63972e-05
3.13294e-06
-4.84607e-05
2.96139e-06
-5.03607e-05
2.75221e-06
-5.20717e-05
2.50567e-06
-5.3569e-05
2.2225e-06
-5.48291e-05
1.90398e-06
-5.58302e-05
1.55194e-06
-5.65524e-05
1.16881e-06
-5.69781e-05
7.57679e-07
-5.70935e-05
3.22977e-07
-5.68854e-05
-1.3378e-07
-5.63387e-05
-6.16724e-07
-5.54503e-05
-1.10703e-06
-5.42174e-05
-1.60352e-06
-5.26423e-05
-2.10135e-06
-5.07302e-05
-2.59438e-06
-4.84908e-05
-3.07588e-06
-4.59381e-05
-3.53883e-06
-4.30911e-05
-3.97595e-06
-3.9973e-05
-4.37991e-06
-3.66116e-05
-4.74342e-06
-3.30392e-05
-5.05941e-06
-2.92921e-05
-5.3213e-06
-2.54103e-05
-5.52312e-06
-2.14369e-05
-5.65981e-06
-1.74175e-05
-5.72741e-06
-1.33994e-05
-5.72327e-06
-9.43075e-06
-5.64626e-06
-5.55939e-06
-5.49695e-06
-1.83213e-06
-5.27766e-06
1.70697e-06
-4.99262e-06
5.01729e-06
-4.64748e-06
8.0619e-06
-4.24902e-06
1.08102e-05
-3.80704e-06
1.32374e-05
-3.33121e-06
1.53258e-05
-2.83233e-06
1.7065e-05
-2.32174e-06
1.84517e-05
-1.81071e-06
1.94904e-05
-1.31016e-06
2.01923e-05
-8.30218e-07
2.05752e-05
-3.79886e-07
2.06609e-05
3.44535e-08
2.04794e-05
4.03554e-07
2.00602e-05
7.27048e-07
1.94366e-05
1.00106e-06
1.8643e-05
1.225e-06
1.77134e-05
1.39989e-06
1.66807e-05
1.5281e-06
1.55758e-05
1.61315e-06
1.44269e-05
1.65939e-06
1.32591e-05
1.67172e-06
1.20939e-05
1.65533e-06
1.0949e-05
1.61545e-06
9.83888e-06
1.55718e-06
8.77438e-06
1.48528e-06
7.76326e-06
1.40413e-06
6.81039e-06
1.31759e-06
5.91826e-06
1.22893e-06
5.08732e-06
1.14081e-06
4.31662e-06
1.05515e-06
3.60432e-06
9.73014e-07
2.94845e-06
8.94468e-07
2.3477e-06
8.18437e-07
1.80227e-06
7.42578e-07
1.31472e-06
6.63277e-07
8.90584e-07
5.75899e-07
5.38443e-07
4.75514e-07
2.68943e-07
3.58531e-07
9.19154e-08
2.25988e-07
9.74386e-09
9.0418e-08
-8.72544e-09
6.79589e-08
-1.06672e-07
2.44394e-07
-3.23486e-07
5.05397e-07
-5.06845e-07
8.27692e-07
-6.41238e-07
1.18901e-06
-7.26636e-07
1.56947e-06
-7.68934e-07
1.95233e-06
-7.75765e-07
2.3241e-06
-7.54757e-07
2.67438e-06
-7.1278e-07
2.99543e-06
-6.5568e-07
3.28176e-06
-5.88227e-07
3.52964e-06
-5.14183e-07
3.73672e-06
-4.36407e-07
3.90163e-06
-3.56967e-07
4.02367e-06
-2.7725e-07
4.1025e-06
-1.98058e-07
4.13793e-06
-1.19686e-07
4.12963e-06
-4.19816e-08
4.07701e-06
3.55838e-08
3.97899e-06
1.13894e-07
3.8339e-06
1.94141e-07
3.63925e-06
2.77754e-07
3.39176e-06
3.66389e-07
3.08718e-06
4.61855e-07
2.72027e-06
5.6607e-07
2.28484e-06
6.80968e-07
1.77368e-06
8.08462e-07
1.17872e-06
9.50348e-07
4.91083e-07
1.10827e-06
-2.98794e-07
1.28365e-06
-1.20096e-06
1.47762e-06
-2.22578e-06
1.69102e-06
-3.38369e-06
1.9243e-06
-4.68501e-06
2.17752e-06
-6.13961e-06
2.45033e-06
-7.75666e-06
2.74187e-06
-9.54431e-06
3.05078e-06
-1.15093e-05
3.37511e-06
-1.36568e-05
3.71234e-06
-1.59898e-05
4.05932e-06
-1.85088e-05
4.41225e-06
-2.12119e-05
4.76674e-06
-2.40939e-05
5.1178e-06
-2.71466e-05
5.45993e-06
-3.03582e-05
5.78722e-06
-3.37137e-05
6.09344e-06
-3.71944e-05
6.37218e-06
-4.07786e-05
6.61702e-06
-4.44411e-05
6.82165e-06
-4.81542e-05
6.98005e-06
-5.18876e-05
7.08664e-06
-5.56089e-05
7.13639e-06
-5.92844e-05
7.12493e-06
-6.28791e-05
7.04865e-06
-6.63576e-05
6.90479e-06
-6.96845e-05
6.6914e-06
-7.28248e-05
6.40743e-06
-7.57446e-05
6.0527e-06
-7.84111e-05
5.62788e-06
-8.07933e-05
5.13447e-06
-8.28624e-05
4.57476e-06
-8.45918e-05
3.95185e-06
-8.59574e-05
3.26959e-06
-8.69382e-05
2.53274e-06
-8.75161e-05
1.74672e-06
-8.76757e-05
9.17311e-07
-8.74127e-05
5.99859e-08
-8.66999e-05
-8.46593e-07
-8.55488e-05
-1.76784e-06
-8.39544e-05
-2.70138e-06
-8.19195e-05
-3.63848e-06
-7.94513e-05
-4.5695e-06
-7.65617e-05
-5.48405e-06
-7.32664e-05
-6.37113e-06
-6.9586e-05
-7.21924e-06
-6.55453e-05
-8.01661e-06
-6.11739e-05
-8.75135e-06
-5.65056e-05
-9.41168e-06
-5.15789e-05
-9.9862e-06
-4.6436e-05
-1.04642e-05
-4.11234e-05
-1.08358e-05
-3.56905e-05
-1.10926e-05
-3.019e-05
-1.12279e-05
-2.46764e-05
-1.12369e-05
-1.92056e-05
-1.11171e-05
-1.38339e-05
-1.08686e-05
-8.6171e-06
-1.04945e-05
-3.60938e-06
-1.00003e-05
1.138e-06
-9.39486e-06
5.5787e-06
-8.68971e-06
9.66933e-06
-7.89767e-06
1.33739e-05
-7.03579e-06
1.66632e-05
-6.12157e-06
1.95155e-05
-5.17405e-06
2.19174e-05
-4.21264e-06
2.3864e-05
-3.25674e-06
2.53588e-05
-2.325e-06
2.64135e-05
-1.43464e-06
2.7049e-05
-6.01018e-07
2.72906e-05
1.61903e-07
2.7171e-05
8.46669e-07
2.67277e-05
1.44438e-06
2.60015e-05
1.95121e-06
2.50352e-05
2.36614e-06
2.38724e-05
2.69094e-06
2.25557e-05
2.92985e-06
2.11259e-05
3.08914e-06
1.9621e-05
3.17662e-06
1.80752e-05
3.20121e-06
1.65182e-05
3.17239e-06
1.49756e-05
3.0998e-06
1.3468e-05
2.99285e-06
1.20117e-05
2.86045e-06
1.06186e-05
2.71069e-06
9.29685e-06
2.55068e-06
8.05136e-06
2.38631e-06
6.88449e-06
2.22202e-06
5.79691e-06
2.0606e-06
4.78855e-06
1.90283e-06
3.85968e-06
1.74731e-06
3.012e-06
1.59025e-06
2.24971e-06
1.42558e-06
1.58011e-06
1.24549e-06
1.01378e-06
1.04185e-06
5.63488e-07
8.08824e-07
2.41647e-07
5.47829e-07
5.54931e-08
2.76572e-07
4.67677e-08
9.17942e-08
-1.98467e-07
3.17454e-07
-5.49145e-07
6.40057e-07
-8.29448e-07
1.02952e-06
-1.0307e-06
1.45962e-06
-1.15674e-06
1.90769e-06
-1.217e-06
2.35467e-06
-1.22275e-06
2.78507e-06
-1.18515e-06
3.18664e-06
-1.11435e-06
3.55001e-06
-1.01905e-06
3.8682e-06
-9.06413e-07
4.13613e-06
-7.82112e-07
4.35019e-06
-6.50469e-07
4.50783e-06
-5.14601e-07
4.60715e-06
-3.76575e-07
4.64663e-06
-2.37539e-07
4.62479e-06
-9.78445e-08
4.53994e-06
4.28669e-08
4.38995e-06
1.8557e-07
4.17205e-06
3.31803e-07
3.8826e-06
4.83586e-07
3.517e-06
6.43353e-07
3.06952e-06
8.13868e-07
2.53327e-06
9.98111e-07
1.90007e-06
1.19927e-06
1.16058e-06
1.42045e-06
3.0431e-07
1.66474e-06
-6.80279e-07
1.93494e-06
-1.80553e-06
2.23352e-06
-3.08439e-06
2.56252e-06
-4.53016e-06
2.9234e-06
-6.15613e-06
3.31699e-06
-7.97522e-06
3.74339e-06
-9.9996e-06
4.2019e-06
-1.22402e-05
4.69094e-06
-1.47063e-05
5.208e-06
-1.74051e-05
5.74956e-06
-2.03411e-05
6.31105e-06
-2.35155e-05
6.88681e-06
-2.69264e-05
7.47015e-06
-3.05674e-05
8.05334e-06
-3.44284e-05
8.62774e-06
-3.84946e-05
9.18393e-06
-4.27466e-05
9.71194e-06
-4.71608e-05
1.02014e-05
-5.17092e-05
1.06419e-05
-5.63602e-05
1.10232e-05
-6.10786e-05
1.13355e-05
-6.58267e-05
1.15697e-05
-7.05644e-05
1.17177e-05
-7.52504e-05
1.17727e-05
-7.98429e-05
1.17289e-05
-8.43e-05
1.1582e-05
-8.85807e-05
1.13293e-05
-9.26451e-05
1.09692e-05
-9.64554e-05
1.05017e-05
-9.9976e-05
9.92802e-06
-0.000103174
9.2505e-06
-0.000106019
8.47267e-06
-0.000108483
7.59901e-06
-0.000110543
6.63489e-06
-0.000112178
5.58654e-06
-0.000113369
4.46096e-06
-0.000114103
3.26592e-06
-0.000114366
2.01041e-06
-0.000114155
7.06248e-07
-0.000113451
-6.44086e-07
-0.000112265
-2.03287e-06
-0.000110593
-3.44015e-06
-0.000108438
-4.85581e-06
-0.000105808
-6.26805e-06
-0.000102714
-7.66377e-06
-9.91693e-05
-9.029e-06
-9.51913e-05
-1.03491e-05
-9.08019e-05
-1.16087e-05
-8.60263e-05
-1.27922e-05
-8.08939e-05
-1.38837e-05
-7.54382e-05
-1.48673e-05
-6.96968e-05
-1.57276e-05
-6.37113e-05
-1.64497e-05
-5.75268e-05
-1.70202e-05
-5.11925e-05
-1.74269e-05
-4.47604e-05
-1.766e-05
-3.82853e-05
-1.7712e-05
-3.18238e-05
-1.75785e-05
-2.5434e-05
-1.72584e-05
-1.91743e-05
-1.67542e-05
-1.31022e-05
-1.60724e-05
-7.27397e-06
-1.52231e-05
-1.74302e-06
-1.42207e-05
3.44231e-06
-1.3083e-05
8.23719e-06
-1.18307e-05
1.26026e-05
-1.04869e-05
1.65073e-05
-9.07877e-06
1.99273e-05
-7.63265e-06
2.28468e-05
-6.17624e-06
2.52585e-05
-4.73673e-06
2.7164e-05
-3.34011e-06
2.85733e-05
-2.01036e-06
2.95043e-05
-7.69084e-07
2.99846e-05
3.664e-07
3.0045e-05
1.38393e-06
2.97248e-05
2.27143e-06
2.90669e-05
3.02407e-06
2.81172e-05
3.64063e-06
2.69232e-05
4.12383e-06
2.55324e-05
4.47993e-06
2.39909e-05
4.7181e-06
2.23423e-05
4.84982e-06
2.06265e-05
4.88819e-06
1.88791e-05
4.84722e-06
1.71308e-05
4.7412e-06
1.54071e-05
4.58413e-06
1.37286e-05
4.38916e-06
1.21111e-05
4.16819e-06
1.0566e-05
3.93138e-06
9.10131e-06
3.68675e-06
7.72216e-06
3.43974e-06
6.43225e-06
3.19274e-06
5.23486e-06
2.9447e-06
4.13411e-06
2.691e-06
3.13615e-06
2.42354e-06
2.24999e-06
2.13165e-06
1.48789e-06
1.80395e-06
8.64976e-07
1.43174e-06
3.98093e-07
1.01471e-06
1.04205e-07
5.70461e-07
1.50972e-07
1.07272e-07
-3.0574e-07
3.6602e-07
-8.07893e-07
7.2949e-07
-1.19292e-06
1.16138e-06
-1.46258e-06
1.63183e-06
-1.62719e-06
2.11595e-06
-1.70112e-06
2.59314e-06
-1.69994e-06
3.04664e-06
-1.63865e-06
3.46307e-06
-1.53078e-06
3.83193e-06
-1.38791e-06
4.14507e-06
-1.21955e-06
4.39622e-06
-1.03326e-06
4.5805e-06
-8.34752e-07
4.69401e-06
-6.28108e-07
4.73341e-06
-4.15976e-07
4.69561e-06
-1.99739e-07
4.57743e-06
2.03378e-08
4.37531e-06
2.44983e-07
4.08509e-06
4.75794e-07
3.70172e-06
7.1517e-07
3.21912e-06
9.66189e-07
2.62996e-06
1.23251e-06
1.92559e-06
1.51824e-06
1.09606e-06
1.82764e-06
1.2985e-07
2.16548e-06
-9.85804e-07
2.53611e-06
-2.26478e-06
2.94372e-06
-3.72195e-06
3.39211e-06
-5.37283e-06
3.8844e-06
-7.23321e-06
4.42289e-06
-9.31868e-06
5.00887e-06
-1.16442e-05
5.64251e-06
-1.42235e-05
6.32267e-06
-1.70684e-05
7.04683e-06
-2.01884e-05
7.81097e-06
-2.35899e-05
8.60949e-06
-2.72755e-05
9.43516e-06
-3.12436e-05
1.02791e-05
-3.54878e-05
1.1131e-05
-3.99964e-05
1.19788e-05
-4.47525e-05
1.28094e-05
-4.97336e-05
1.36088e-05
-5.49118e-05
1.43621e-05
-6.02542e-05
1.50544e-05
-6.57235e-05
1.56707e-05
-7.12785e-05
1.61969e-05
-7.68753e-05
1.66199e-05
-8.24678e-05
1.69279e-05
-8.8009e-05
1.71108e-05
-9.34518e-05
1.71606e-05
-9.87502e-05
1.70711e-05
-0.00010386
1.68383e-05
-0.000108738
1.64603e-05
-0.000113346
1.59371e-05
-0.000117647
1.52704e-05
-0.000121609
1.44636e-05
-0.000125202
1.35213e-05
-0.000128401
1.24495e-05
-0.000131183
1.1255e-05
-0.00013353
9.94551e-06
-0.000135424
8.52952e-06
-0.000136854
7.01604e-06
-0.000137808
5.41473e-06
-0.000138277
3.73571e-06
-0.000138257
1.98994e-06
-0.000137748
1.97485e-07
-0.000136735
-1.65674e-06
-0.000135231
-3.53735e-06
-0.000133235
-5.43562e-06
-0.000130753
-7.33825e-06
-0.000127791
-9.23045e-06
-0.000124358
-1.10965e-05
-0.000120467
-1.29197e-05
-0.000116134
-1.46824e-05
-0.000111376
-1.63662e-05
-0.000106217
-1.7952e-05
-0.00010068
-1.94202e-05
-9.47965e-05
-2.0751e-05
-8.8599e-05
-2.1925e-05
-8.21254e-05
-2.29234e-05
-7.54172e-05
-2.37284e-05
-6.852e-05
-2.43241e-05
-6.14832e-05
-2.46968e-05
-5.43595e-05
-2.48358e-05
-4.72043e-05
-2.47337e-05
-4.00753e-05
-2.43875e-05
-3.30313e-05
-2.37982e-05
-2.61318e-05
-2.29719e-05
-1.94355e-05
-2.19195e-05
-1.29994e-05
-2.06568e-05
-6.878e-06
-1.92044e-05
-1.12166e-06
-1.7587e-05
4.22539e-06
-1.5834e-05
9.12248e-06
-1.39759e-05
1.35365e-05
-1.20467e-05
1.74423e-05
-1.0082e-05
2.08224e-05
-8.11677e-06
2.36674e-05
-6.18514e-06
2.59767e-05
-4.31965e-06
2.77576e-05
-2.55003e-06
2.90267e-05
-9.0262e-07
2.98089e-05
6.01721e-07
3.01334e-05
1.94686e-06
3.00382e-05
3.11926e-06
2.95657e-05
4.1132e-06
2.87618e-05
4.92768e-06
2.76752e-05
5.56661e-06
2.63549e-05
6.03837e-06
2.48496e-05
6.35511e-06
2.32058e-05
6.53193e-06
2.1467e-05
6.58606e-06
1.96723e-05
6.53592e-06
1.78561e-05
6.40028e-06
1.60479e-05
6.19745e-06
1.42716e-05
5.94448e-06
1.25465e-05
5.65645e-06
1.08875e-05
5.34574e-06
9.30593e-06
5.02132e-06
7.81058e-06
4.68808e-06
6.40901e-06
4.34627e-06
5.10879e-06
3.99121e-06
3.91881e-06
3.61352e-06
2.8504e-06
3.20006e-06
1.91823e-06
2.73612e-06
1.1409e-06
2.20907e-06
5.41434e-07
1.61418e-06
1.48496e-07
9.63399e-07
2.99469e-07
1.16174e-07
-4.21913e-07
3.94013e-07
-1.08573e-06
7.79949e-07
-1.57885e-06
1.23267e-06
-1.9153e-06
1.71916e-06
-2.11369e-06
2.21266e-06
-2.19462e-06
2.69141e-06
-2.17869e-06
3.13781e-06
-2.08505e-06
3.53771e-06
-1.93069e-06
3.87979e-06
-1.72999e-06
4.15495e-06
-1.49471e-06
4.35579e-06
-1.23411e-06
4.47614e-06
-9.55102e-07
4.5106e-06
-6.62568e-07
4.45416e-06
-3.5954e-07
4.30187e-06
-4.74441e-08
4.04845e-06
2.73757e-07
3.68808e-06
6.05349e-07
3.21409e-06
9.49792e-07
2.61869e-06
1.31056e-06
1.89287e-06
1.69201e-06
1.02617e-06
2.09921e-06
6.65551e-09
2.53775e-06
-1.1794e-06
3.0137e-06
-2.54668e-06
3.53276e-06
-4.11141e-06
4.10084e-06
-5.8908e-06
4.72311e-06
-7.90264e-06
5.40394e-06
-1.01649e-05
6.14661e-06
-1.26949e-05
6.95296e-06
-1.55093e-05
7.82322e-06
-1.86225e-05
8.75573e-06
-2.20466e-05
9.74681e-06
-2.57904e-05
1.07906e-05
-2.98583e-05
1.18789e-05
-3.42501e-05
1.30013e-05
-3.89599e-05
1.4145e-05
-4.39759e-05
1.52951e-05
-4.92798e-05
1.64349e-05
-5.4847e-05
1.7546e-05
-6.06465e-05
1.86089e-05
-6.66415e-05
1.96038e-05
-7.27902e-05
2.05108e-05
-7.90463e-05
2.13105e-05
-8.53608e-05
2.19852e-05
-9.16827e-05
2.25188e-05
-9.79602e-05
2.28975e-05
-0.000104143
2.31102e-05
-0.00011018
2.31486e-05
-0.000116027
2.3007e-05
-0.000121638
2.26829e-05
-0.000126976
2.21759e-05
-0.000132004
2.14883e-05
-0.000136691
2.06241e-05
-0.00014101
1.95892e-05
-0.000144937
1.83909e-05
-0.000148453
1.70374e-05
-0.000151542
1.55379e-05
-0.000154189
1.3902e-05
-0.000156384
1.21401e-05
-0.000158117
1.02626e-05
-0.000159381
8.28049e-06
-0.000160171
6.20483e-06
-0.000160483
4.04721e-06
-0.000160314
1.82079e-06
-0.000159657
-4.58942e-07
-0.000158517
-2.79646e-06
-0.000156894
-5.16117e-06
-0.000154787
-7.54231e-06
-0.0001522
-9.92528e-06
-0.000149137
-1.22936e-05
-0.000145603
-1.46298e-05
-0.000141608
-1.69149e-05
-0.000137162
-1.9129e-05
-0.000132277
-2.12507e-05
-0.000126971
-2.32577e-05
-0.000121265
-2.5127e-05
-0.00011518
-2.6835e-05
-0.000108747
-2.83581e-05
-0.000101998
-2.96729e-05
-9.4969e-05
-3.07573e-05
-8.77023e-05
-3.15907e-05
-8.0244e-05
-3.21551e-05
-7.26443e-05
-3.24355e-05
-6.49572e-05
-3.24209e-05
-5.72397e-05
-3.21049e-05
-4.95515e-05
-3.14864e-05
-4.19533e-05
-3.05701e-05
-3.45065e-05
-2.93663e-05
-2.72716e-05
-2.78917e-05
-2.03073e-05
-2.61687e-05
-1.36689e-05
-2.42254e-05
-7.40838e-06
-2.20945e-05
-1.57157e-06
-1.98127e-05
3.80196e-06
-1.74202e-05
8.6782e-06
-1.49583e-05
1.3031e-05
-1.24696e-05
1.68424e-05
-9.99647e-06
2.0102e-05
-7.57929e-06
2.28079e-05
-5.2559e-06
2.49658e-05
-3.06051e-06
2.65906e-05
-1.02311e-06
2.77048e-05
8.32628e-07
2.8336e-05
2.48808e-06
2.85199e-05
3.92929e-06
2.82973e-05
5.15027e-06
2.77132e-05
6.15075e-06
2.68153e-05
6.93621e-06
2.56531e-05
7.51735e-06
2.42757e-05
7.90929e-06
2.27311e-05
8.13068e-06
2.10644e-05
8.20263e-06
1.93171e-05
8.14763e-06
1.75261e-05
7.98846e-06
1.57235e-05
7.74708e-06
1.39364e-05
7.44355e-06
1.21871e-05
7.09498e-06
1.0494e-05
6.71448e-06
8.87186e-06
6.31019e-06
7.33362e-06
5.88451e-06
5.89128e-06
5.43356e-06
4.55742e-06
4.94738e-06
3.34668e-06
4.4108e-06
2.27715e-06
3.80565e-06
1.37193e-06
3.11428e-06
6.61148e-07
2.32496e-06
1.8506e-07
1.43949e-06
4.84528e-07
1.20147e-07
-5.4206e-07
4.05517e-07
-1.3711e-06
7.97996e-07
-1.97133e-06
1.25256e-06
-2.36987e-06
1.73372e-06
-2.59485e-06
2.2132e-06
-2.67411e-06
2.66838e-06
-2.63387e-06
3.08107e-06
-2.49773e-06
3.43655e-06
-2.28617e-06
3.72282e-06
-2.01626e-06
3.92993e-06
-1.70182e-06
4.04935e-06
-1.35352e-06
4.07351e-06
-9.7927e-07
3.99539e-06
-5.84444e-07
3.80806e-06
-1.72216e-07
3.5044e-06
2.5622e-07
3.07674e-06
7.01418e-07
2.51658e-06
1.16551e-06
1.81434e-06
1.65204e-06
9.59111e-07
2.16579e-06
-6.14761e-08
2.7126e-06
-1.2614e-06
3.29914e-06
-2.65624e-06
3.93259e-06
-4.26295e-06
4.6204e-06
-6.09999e-06
5.36981e-06
-8.18669e-06
6.18754e-06
-1.05429e-05
7.07931e-06
-1.31884e-05
8.04942e-06
-1.61421e-05
9.10034e-06
-1.94215e-05
1.02323e-05
-2.30414e-05
1.14432e-05
-2.70135e-05
1.27277e-05
-3.13447e-05
1.4078e-05
-3.6037e-05
1.54829e-05
-4.10861e-05
1.6928e-05
-4.64811e-05
1.83962e-05
-5.22037e-05
1.98676e-05
-5.82283e-05
2.13198e-05
-6.45222e-05
2.27288e-05
-7.10458e-05
2.40696e-05
-7.77538e-05
2.53169e-05
-8.45959e-05
2.6446e-05
-9.15188e-05
2.74336e-05
-9.84669e-05
2.82587e-05
-0.000105385
2.89031e-05
-0.000112218
2.9352e-05
-0.000118915
2.9594e-05
-0.000125426
2.96214e-05
-0.000131707
2.94302e-05
-0.00013772
2.90196e-05
-0.000143429
2.83918e-05
-0.000148805
2.75515e-05
-0.000153822
2.65053e-05
-0.000158459
2.52617e-05
-0.0001627
2.38304e-05
-0.000166531
2.22218e-05
-0.000169941
2.04469e-05
-0.00017292
1.8517e-05
-0.000175461
1.64437e-05
-0.00017756
1.42384e-05
-0.00017921
1.19128e-05
-0.000180408
9.47836e-06
-0.00018115
6.94668e-06
-0.000181432
4.32977e-06
-0.000181253
1.64149e-06
-0.000180604
-1.10746e-06
-0.000179491
-3.90973e-06
-0.000177909
-6.74369e-06
-0.000175855
-9.59605e-06
-0.000173329
-1.24511e-05
-0.000170331
-1.52913e-05
-0.000166863
-1.8098e-05
-0.000162928
-2.08504e-05
-0.00015853
-2.35266e-05
-0.000153678
-2.61027e-05
-0.000148382
-2.85535e-05
-0.000142657
-3.08526e-05
-0.000136519
-3.29725e-05
-0.000129992
-3.48851e-05
-0.000123102
-3.65627e-05
-0.000115882
-3.79779e-05
-0.000108368
-3.9105e-05
-0.000100602
-3.99207e-05
-9.26326e-05
-4.04049e-05
-8.45117e-05
-4.05418e-05
-7.62959e-05
-4.03207e-05
-6.80454e-05
-3.9737e-05
-5.9823e-05
-3.87925e-05
-5.1693e-05
-3.74962e-05
-4.37202e-05
-3.58646e-05
-3.59679e-05
-3.3921e-05
-2.84975e-05
-3.16958e-05
-2.13666e-05
-2.92255e-05
-1.46277e-05
-2.65516e-05
-8.32796e-06
-2.37199e-05
-2.50758e-06
-2.07787e-05
2.80051e-06
-1.77777e-05
7.57062e-06
-1.47666e-05
1.17849e-05
-1.17936e-05
1.54336e-05
-8.90458e-06
1.85147e-05
-6.14159e-06
2.10336e-05
-3.54207e-06
2.30045e-05
-1.13827e-06
2.44483e-05
1.04435e-06
2.53913e-05
2.98626e-06
2.58676e-05
4.67401e-06
2.59161e-05
6.10221e-06
2.55804e-05
7.27195e-06
2.4907e-05
8.19071e-06
2.39445e-05
8.87176e-06
2.2742e-05
9.33325e-06
2.13474e-05
9.59721e-06
1.98067e-05
9.68831e-06
1.81626e-05
9.63258e-06
1.64537e-05
9.45602e-06
1.4714e-05
9.18318e-06
1.29732e-05
8.83578e-06
1.12564e-05
8.43125e-06
9.58519e-06
7.98145e-06
7.97821e-06
7.49149e-06
6.45274e-06
6.95903e-06
5.026e-06
6.37412e-06
3.71684e-06
5.71996e-06
2.54769e-06
4.9748e-06
1.54687e-06
4.1151e-06
7.51612e-07
3.12022e-06
2.12404e-07
1.9787e-06
6.96932e-07
1.20395e-07
-6.62455e-07
4.03752e-07
-1.65446e-06
7.88974e-07
-2.35655e-06
1.22849e-06
-2.80938e-06
1.68505e-06
-3.05141e-06
2.12937e-06
-3.11842e-06
2.5382e-06
-3.0427e-06
2.89294e-06
-2.85248e-06
3.17845e-06
-2.57168e-06
3.38211e-06
-2.21992e-06
3.49306e-06
-1.81276e-06
3.50158e-06
-1.36204e-06
3.39859e-06
-8.76283e-07
3.17522e-06
-3.61072e-07
2.82239e-06
1.80612e-07
2.33053e-06
7.48082e-07
1.68923e-06
1.34271e-06
8.87006e-07
1.96774e-06
-8.89942e-08
2.62804e-06
-1.25312e-06
3.32992e-06
-2.62136e-06
4.08083e-06
-4.21131e-06
4.88909e-06
-6.04216e-06
5.76344e-06
-8.13435e-06
6.71259e-06
-1.05093e-05
7.74472e-06
-1.31886e-05
8.8669e-06
-1.61938e-05
1.00845e-05
-1.9545e-05
1.14006e-05
-2.32601e-05
1.28155e-05
-2.73539e-05
1.43261e-05
-3.18367e-05
1.5926e-05
-3.67136e-05
1.76046e-05
-4.1983e-05
1.93474e-05
-4.76359e-05
2.11358e-05
-5.36557e-05
2.29478e-05
-6.00172e-05
2.47578e-05
-6.66873e-05
2.65376e-05
-7.36249e-05
2.82574e-05
-8.07823e-05
2.98862e-05
-8.81063e-05
3.13936e-05
-9.55399e-05
3.27504e-05
-0.000103024
3.39298e-05
-0.000110499
3.49084e-05
-0.000117906
3.56665e-05
-0.000125192
3.61889e-05
-0.000132305
3.64652e-05
-0.0001392
3.6489e-05
-0.000145837
3.62582e-05
-0.000152181
3.57745e-05
-0.000158204
3.50426e-05
-0.000163882
3.40699e-05
-0.000169197
3.28658e-05
-0.000174132
3.14408e-05
-0.000178677
2.98069e-05
-0.000182823
2.79763e-05
-0.000186563
2.59615e-05
-0.000189891
2.37751e-05
-0.000192804
2.14295e-05
-0.000195297
1.89368e-05
-0.000197367
1.6309e-05
-0.000199012
1.35576e-05
-0.000200228
1.06942e-05
-0.000201011
7.7301e-06
-0.000201359
4.67703e-06
-0.000201265
1.54793e-06
-0.000200725
-1.64716e-06
-0.000199739
-4.89638e-06
-0.000198299
-8.18319e-06
-0.000196402
-1.14933e-05
-0.000194043
-1.48104e-05
-0.000191217
-1.81165e-05
-0.000187923
-2.1392e-05
-0.000184159
-2.46152e-05
-0.000179923
-2.77624e-05
-0.000175218
-3.08077e-05
-0.000170048
-3.37235e-05
-0.00016442
-3.64801e-05
-0.000158347
-3.90463e-05
-0.000151842
-4.13901e-05
-0.000144926
-4.34785e-05
-0.000137625
-4.5279e-05
-0.00012997
-4.67601e-05
-0.000121998
-4.78925e-05
-0.000113753
-4.86498e-05
-0.000105284
-4.90102e-05
-9.66478e-05
-4.89573e-05
-8.79034e-05
-4.84813e-05
-7.91161e-05
-4.75798e-05
-7.03534e-05
-4.62589e-05
-6.16849e-05
-4.4533e-05
-5.31802e-05
-4.24257e-05
-4.49074e-05
-3.99686e-05
-3.69317e-05
-3.72012e-05
-2.93134e-05
-3.41698e-05
-2.21075e-05
-3.09259e-05
-1.53616e-05
-2.75245e-05
-9.11615e-06
-2.40231e-05
-3.40338e-06
-2.04794e-05
1.75265e-06
-1.69496e-05
6.33588e-06
-1.34878e-05
1.03381e-05
-1.01439e-05
1.3759e-05
-6.96288e-06
1.6605e-05
-3.9843e-06
1.88906e-05
-1.24125e-06
2.06364e-05
1.2404e-06
2.18689e-05
3.44159e-06
2.26207e-05
5.3504e-06
2.29297e-05
6.96292e-06
2.28381e-05
8.28233e-06
2.23912e-05
9.31862e-06
2.16366e-05
1.00879e-05
2.06224e-05
1.06113e-05
1.93966e-05
1.09142e-05
1.80049e-05
1.10242e-05
1.64907e-05
1.09702e-05
1.48936e-05
1.07803e-05
1.32493e-05
1.04801e-05
1.15893e-05
1.00912e-05
9.94162e-06
9.62917e-06
8.33096e-06
9.10215e-06
6.78029e-06
8.5097e-06
5.31203e-06
7.84237e-06
3.94998e-06
7.08201e-06
2.72152e-06
6.20326e-06
1.66039e-06
5.17623e-06
8.10333e-07
3.97028e-06
2.29967e-07
2.55906e-06
9.26899e-07
1.17669e-07
-7.80124e-07
3.90873e-07
-1.92766e-06
7.56581e-07
-2.72226e-06
1.16566e-06
-3.21846e-06
1.57986e-06
-3.46562e-06
1.96933e-06
-3.50789e-06
2.31057e-06
-3.38393e-06
2.58471e-06
-3.12662e-06
2.77625e-06
-2.76321e-06
2.87191e-06
-2.31559e-06
2.85988e-06
-1.80073e-06
2.72909e-06
-1.23125e-06
2.46875e-06
-6.15946e-07
2.06793e-06
3.97531e-08
1.51511e-06
7.33426e-07
7.98019e-07
1.46518e-06
-9.67911e-08
2.23752e-06
-1.18411e-06
3.05505e-06
-2.48026e-06
3.92419e-06
-4.00325e-06
4.8529e-06
-5.77272e-06
5.85031e-06
-7.80988e-06
6.92626e-06
-1.01372e-05
8.09076e-06
-1.2778e-05
9.35334e-06
-1.57556e-05
1.07223e-05
-1.90928e-05
1.22042e-05
-2.28108e-05
1.38025e-05
-2.69277e-05
1.55175e-05
-3.14578e-05
1.73455e-05
-3.64098e-05
1.92782e-05
-4.1786e-05
2.13023e-05
-4.75811e-05
2.33997e-05
-5.37811e-05
2.55474e-05
-6.03631e-05
2.77178e-05
-6.72951e-05
2.98797e-05
-7.4536e-05
3.19988e-05
-8.20374e-05
3.4039e-05
-8.97438e-05
3.59638e-05
-9.75954e-05
3.77378e-05
-0.00010553
3.93278e-05
-0.000113483
4.0704e-05
-0.000121394
4.1841e-05
-0.000129205
4.27189e-05
-0.000136861
4.33226e-05
-0.000144315
4.36429e-05
-0.000151525
4.36755e-05
-0.000158457
4.34204e-05
-0.000165081
4.28819e-05
-0.000171373
4.20674e-05
-0.000177318
4.09867e-05
-0.000182899
3.96515e-05
-0.000188108
3.80746e-05
-0.000192937
3.62696e-05
-0.00019738
3.42503e-05
-0.000201435
3.20307e-05
-0.000205097
2.96242e-05
-0.000208366
2.70441e-05
-0.00021124
2.4303e-05
-0.000213716
2.1413e-05
-0.000215793
1.8386e-05
-0.000217469
1.52332e-05
-0.00021874
1.19656e-05
-0.000219604
8.59405e-06
-0.000220057
5.12954e-06
-0.000220092
1.58348e-06
-0.000219707
-2.03275e-06
-0.000218896
-5.7072e-06
-0.000217653
-9.42621e-06
-0.000215971
-1.31753e-05
-0.000213843
-1.69385e-05
-0.000211261
-2.06978e-05
-0.00020822
-2.44334e-05
-0.000204712
-2.81231e-05
-0.000200732
-3.17424e-05
-0.000196276
-3.52643e-05
-0.00019134
-3.8659e-05
-0.000185926
-4.18945e-05
-0.000180036
-4.49364e-05
-0.000173677
-4.77487e-05
-0.000166862
-5.02938e-05
-0.000159607
-5.25338e-05
-0.000151936
-5.4431e-05
-0.000143879
-5.59493e-05
-0.000135474
-5.70552e-05
-0.000126764
-5.77195e-05
-0.000117804
-5.79182e-05
-0.00010865
-5.76346e-05
-9.93699e-05
-5.68601e-05
-9.00334e-05
-5.55954e-05
-8.0715e-05
-5.38514e-05
-7.14912e-05
-5.16494e-05
-6.24387e-05
-4.90211e-05
-5.36322e-05
-4.60078e-05
-4.51422e-05
-4.26598e-05
-3.70339e-05
-3.90342e-05
-2.93649e-05
-3.51935e-05
-2.21846e-05
-3.12035e-05
-1.55332e-05
-2.71307e-05
-9.44191e-06
-2.30409e-05
-3.93256e-06
-1.89972e-05
9.81626e-07
-1.5058e-05
5.29558e-06
-1.12768e-05
9.01174e-06
-7.70046e-06
1.21395e-05
-4.36896e-06
1.46948e-05
-1.31496e-06
1.66998e-05
1.43666e-06
1.81815e-05
3.86867e-06
1.91728e-05
5.97163e-06
1.9711e-05
7.7441e-06
1.98375e-05
9.19209e-06
1.95968e-05
1.03286e-05
1.90354e-05
1.11727e-05
1.82008e-05
1.17488e-05
1.71401e-05
1.20849e-05
1.58991e-05
1.22112e-05
1.45212e-05
1.21581e-05
1.30469e-05
1.19545e-05
1.1513e-05
1.16251e-05
9.95308e-06
1.1189e-05
8.39789e-06
1.06573e-05
6.87601e-06
1.00316e-05
5.41536e-06
9.30302e-06
4.04502e-06
8.45236e-06
2.79751e-06
7.45077e-06
1.71184e-06
6.26191e-06
8.37183e-07
4.84493e-06
2.37839e-07
3.15841e-06
1.16474e-06
1.12357e-07
-8.92481e-07
3.68061e-07
-2.18337e-06
7.02936e-07
-3.05714e-06
1.06714e-06
-3.58267e-06
1.42214e-06
-3.82061e-06
1.73805e-06
-3.8238e-06
1.99141e-06
-3.63728e-06
2.16328e-06
-3.2985e-06
2.23781e-06
-2.83774e-06
2.20103e-06
-2.2788e-06
2.03999e-06
-1.63969e-06
1.7421e-06
-9.33369e-07
1.29466e-06
-1.68496e-07
6.84337e-07
6.50072e-07
-1.02968e-07
1.52073e-06
-1.08258e-06
2.44479e-06
-2.2712e-06
3.42614e-06
-3.68709e-06
4.47095e-06
-5.35021e-06
5.58731e-06
-7.28217e-06
6.78486e-06
-9.50613e-06
8.07427e-06
-1.20465e-05
9.46658e-06
-1.49282e-05
1.09725e-05
-1.81764e-05
1.26015e-05
-2.18149e-05
1.43609e-05
-2.58657e-05
1.62549e-05
-3.03469e-05
1.82837e-05
-3.5272e-05
2.04426e-05
-4.06479e-05
2.27215e-05
-4.64741e-05