/*--------------------------------*- C++ -*----------------------------------*\
| =========                 |                                                 |
| \\      /  F ield         | OpenFOAM: The Open Source CFD Toolbox           |
|  \\    /   O peration     | Version:  2406                                  |
|   \\  /    A nd           | Website:  www.openfoam.com                      |
|    \\/     M anipulation  |                                                 |
\*---------------------------------------------------------------------------*/
FoamFile
{
    version     2.0;
    format      ascii;
    arch        "LSB;label=32;scalar=64";
    class       surfaceScalarField;
    location    "1.4";
    object      phi_0;
}
// * * * * * * * * * * * * * * * * * * * * * * * * * * * * * * * * * * * * * //

dimensions      [0 3 -1 0 0 0 0];

oriented        oriented;

internalField   nonuniform List<scalar> 
28560
(
1.45492e-09
-1.44594e-09
-2.25435e-09
3.70926e-09
-1.31526e-08
1.08982e-08
-3.01476e-08
1.6995e-08
-5.15618e-08
2.14142e-08
-7.58286e-08
2.42668e-08
-1.01747e-07
2.59183e-08
-1.28503e-07
2.67563e-08
-1.55602e-07
2.70983e-08
-1.82768e-07
2.71659e-08
-2.09864e-07
2.70967e-08
-2.36831e-07
2.69669e-08
-2.63644e-07
2.68133e-08
-2.90296e-07
2.66511e-08
-3.1678e-07
2.64841e-08
-3.43092e-07
2.6312e-08
-3.69225e-07
2.61329e-08
-3.9517e-07
2.5945e-08
-4.20916e-07
2.57468e-08
-4.46453e-07
2.55371e-08
-4.71769e-07
2.53152e-08
-4.96849e-07
2.50805e-08
-5.21682e-07
2.48327e-08
-5.46253e-07
2.45714e-08
-5.7055e-07
2.42964e-08
-5.94557e-07
2.40075e-08
-6.18262e-07
2.37046e-08
-6.41649e-07
2.33875e-08
-6.64705e-07
2.30559e-08
-6.87415e-07
2.27099e-08
-7.09764e-07
2.23493e-08
-7.31738e-07
2.19739e-08
-7.53322e-07
2.15836e-08
-7.745e-07
2.11783e-08
-7.95258e-07
2.0758e-08
-8.15581e-07
2.03224e-08
-8.35452e-07
1.98715e-08
-8.54857e-07
1.94052e-08
-8.73781e-07
1.89234e-08
-8.92207e-07
1.8426e-08
-9.10119e-07
1.79129e-08
-9.27503e-07
1.7384e-08
-9.44343e-07
1.68394e-08
-9.60622e-07
1.62788e-08
-9.76324e-07
1.57024e-08
-9.91434e-07
1.511e-08
-1.00594e-06
1.45016e-08
-1.01981e-06
1.38772e-08
-1.03305e-06
1.32369e-08
-1.04563e-06
1.25807e-08
-1.05754e-06
1.19086e-08
-1.06876e-06
1.12207e-08
-1.07928e-06
1.0517e-08
-1.08907e-06
9.79774e-09
-1.09814e-06
9.06301e-09
-1.10645e-06
8.31296e-09
-1.114e-06
7.5478e-09
-1.12077e-06
6.76774e-09
-1.12674e-06
5.97303e-09
-1.1319e-06
5.16396e-09
-1.13624e-06
4.34085e-09
-1.13975e-06
3.50416e-09
-1.1424e-06
2.65437e-09
-1.1442e-06
1.79415e-09
-1.14512e-06
9.24529e-10
-1.14514e-06
1.49895e-11
-1.14427e-06
-8.67282e-10
-1.14249e-06
-1.77734e-09
-1.13979e-06
-2.69669e-09
-1.13617e-06
-3.6253e-09
-1.13161e-06
-4.56244e-09
-1.1261e-06
-5.50733e-09
-1.11964e-06
-6.45917e-09
-1.11222e-06
-7.4171e-09
-1.10384e-06
-8.38019e-09
-1.0945e-06
-9.34748e-09
-1.08418e-06
-1.03179e-08
-1.07289e-06
-1.12905e-08
-1.06062e-06
-1.22641e-08
-1.04739e-06
-1.32375e-08
-1.03318e-06
-1.42096e-08
-1.018e-06
-1.51791e-08
-1.00185e-06
-1.61447e-08
-9.84747e-07
-1.71052e-08
-9.66688e-07
-1.80591e-08
-9.47683e-07
-1.90052e-08
-9.27741e-07
-1.9942e-08
-9.06873e-07
-2.08681e-08
-8.85091e-07
-2.17821e-08
-8.62408e-07
-2.26825e-08
-8.3884e-07
-2.35679e-08
-8.14404e-07
-2.44367e-08
-7.89116e-07
-2.52876e-08
-7.62997e-07
-2.6119e-08
-7.36067e-07
-2.69296e-08
-7.08349e-07
-2.77179e-08
-6.79867e-07
-2.84826e-08
-6.50645e-07
-2.92222e-08
-6.20709e-07
-2.99356e-08
-5.90087e-07
-3.06215e-08
-5.58808e-07
-3.1279e-08
-5.26901e-07
-3.19072e-08
-4.94396e-07
-3.25056e-08
-4.61322e-07
-3.30738e-08
-4.2771e-07
-3.3612e-08
-3.93589e-07
-3.41205e-08
-3.5899e-07
-3.45992e-08
-3.23945e-07
-3.50456e-08
-2.88493e-07
-3.54515e-08
-2.52698e-07
-3.57952e-08
-2.16668e-07
-3.60295e-08
-1.80605e-07
-3.60631e-08
-1.44869e-07
-3.57363e-08
-1.10074e-07
-3.47948e-08
-7.72028e-08
-3.28713e-08
-4.7703e-08
-2.94998e-08
-2.35139e-08
-2.4189e-08
-6.86686e-09
-1.66471e-08
3.52352e-10
-7.21921e-09
3.52351e-10
-3.73122e-09
2.28526e-09
-2.12314e-08
2.12095e-08
-5.43946e-08
4.40615e-08
-1.00918e-07
6.35179e-08
-1.57452e-07
7.79482e-08
-2.20755e-07
8.75702e-08
-2.88214e-07
9.33769e-08
-3.5796e-07
9.65028e-08
-4.28784e-07
9.79219e-08
-4.99962e-07
9.83444e-08
-5.71096e-07
9.82306e-08
-6.41978e-07
9.78486e-08
-7.12503e-07
9.73384e-08
-7.82616e-07
9.67642e-08
-8.52282e-07
9.61502e-08
-9.21472e-07
9.55022e-08
-9.90158e-07
9.48185e-08
-1.05831e-06
9.40957e-08
-1.12589e-06
9.33304e-08
-1.19288e-06
9.25199e-08
-1.25922e-06
9.16621e-08
-1.3249e-06
9.07556e-08
-1.38986e-06
8.97993e-08
-1.45408e-06
8.87925e-08
-1.51752e-06
8.77346e-08
-1.58014e-06
8.6625e-08
-1.6419e-06
8.54633e-08
-1.70276e-06
8.42491e-08
-1.76269e-06
8.29823e-08
-1.82164e-06
8.16623e-08
-1.87958e-06
8.0289e-08
-1.93647e-06
7.88622e-08
-1.99227e-06
7.73816e-08
-2.04693e-06
7.58469e-08
-2.10043e-06
7.4258e-08
-2.15273e-06
7.26148e-08
-2.20377e-06
7.09169e-08
-2.25353e-06
6.91643e-08
-2.30196e-06
6.73569e-08
-2.34903e-06
6.54946e-08
-2.3947e-06
6.35772e-08
-2.43892e-06
6.16047e-08
-2.48166e-06
5.95771e-08
-2.52287e-06
5.74945e-08
-2.56253e-06
5.53568e-08
-2.60058e-06
5.31642e-08
-2.637e-06
5.09168e-08
-2.67173e-06
4.86148e-08
-2.70475e-06
4.62585e-08
-2.73602e-06
4.38481e-08
-2.7655e-06
4.13841e-08
-2.79314e-06
3.88668e-08
-2.81892e-06
3.62968e-08
-2.8428e-06
3.36746e-08
-2.86474e-06
3.10009e-08
-2.8847e-06
2.82765e-08
-2.90266e-06
2.55022e-08
-2.91857e-06
2.26789e-08
-2.9324e-06
1.98078e-08
-2.94413e-06
1.68899e-08
-2.95371e-06
1.39264e-08
-2.96113e-06
1.0919e-08
-2.96634e-06
7.86917e-09
-2.96933e-06
4.77885e-09
-2.97005e-06
1.65013e-09
-2.96852e-06
-1.5224e-09
-2.96466e-06
-4.72366e-09
-2.95848e-06
-7.95866e-09
-2.94995e-06
-1.12254e-08
-2.93905e-06
-1.45206e-08
-2.92578e-06
-1.78414e-08
-2.9101e-06
-2.11853e-08
-2.89201e-06
-2.45493e-08
-2.87149e-06
-2.79303e-08
-2.84855e-06
-3.13251e-08
-2.82317e-06
-3.47304e-08
-2.79534e-06
-3.81426e-08
-2.76507e-06
-4.15582e-08
-2.73236e-06
-4.49732e-08
-2.69722e-06
-4.83839e-08
-2.65964e-06
-5.17862e-08
-2.61965e-06
-5.51758e-08
-2.57724e-06
-5.85485e-08
-2.53245e-06
-6.18999e-08
-2.48528e-06
-6.52255e-08
-2.43576e-06
-6.85207e-08
-2.38393e-06
-7.17808e-08
-2.32979e-06
-7.50011e-08
-2.2734e-06
-7.81767e-08
-2.21478e-06
-8.13029e-08
-2.15397e-06
-8.43747e-08
-2.09102e-06
-8.73873e-08
-2.02597e-06
-9.03359e-08
-1.95888e-06
-9.32155e-08
-1.88978e-06
-9.60214e-08
-1.81875e-06
-9.87488e-08
-1.74584e-06
-1.01393e-07
-1.67111e-06
-1.0395e-07
-1.59463e-06
-1.06415e-07
-1.51647e-06
-1.08785e-07
-1.43669e-06
-1.11055e-07
-1.35538e-06
-1.13224e-07
-1.2726e-06
-1.15287e-07
-1.18843e-06
-1.17244e-07
-1.10294e-06
-1.19094e-07
-1.01623e-06
-1.20834e-07
-9.2837e-07
-1.2246e-07
-8.39459e-07
-1.23956e-07
-7.49626e-07
-1.25284e-07
-6.59064e-07
-1.26358e-07
-5.68091e-07
-1.27002e-07
-4.77253e-07
-1.26901e-07
-3.87467e-07
-1.25522e-07
-3.00208e-07
-1.22054e-07
-2.17709e-07
-1.15371e-07
-1.43097e-07
-1.04112e-07
-8.03443e-08
-8.69417e-08
-3.38245e-08
-6.3167e-08
-7.15839e-09
-3.38853e-08
-6.80604e-09
-1.10127e-08
1.32979e-08
-4.4351e-08
5.45478e-08
-9.84451e-08
9.81557e-08
-1.69924e-07
1.34997e-07
-2.54599e-07
1.62623e-07
-3.48439e-07
1.8141e-07
-4.48115e-07
1.93053e-07
-5.51166e-07
1.99554e-07
-6.55928e-07
2.02684e-07
-7.61358e-07
2.03775e-07
-8.66842e-07
2.03715e-07
-9.72035e-07
2.03041e-07
-1.07674e-06
2.02047e-07
-1.18086e-06
2.00878e-07
-1.2843e-06
1.99594e-07
-1.38702e-06
1.98219e-07
-1.48895e-06
1.96755e-07
-1.59006e-06
1.95199e-07
-1.69028e-06
1.93549e-07
-1.78955e-06
1.91799e-07
-1.88784e-06
1.89947e-07
-1.98507e-06
1.87991e-07
-2.0812e-06
1.85928e-07
-2.17617e-06
1.83759e-07
-2.26992e-06
1.81481e-07
-2.36239e-06
1.79095e-07
-2.45352e-06
1.76599e-07
-2.54327e-06
1.73993e-07
-2.63156e-06
1.71277e-07
-2.71835e-06
1.6845e-07
-2.80357e-06
1.65512e-07
-2.88717e-06
1.62463e-07
-2.96909e-06
1.59303e-07
-3.04928e-06
1.56032e-07
-3.12767e-06
1.52648e-07
-3.20421e-06
1.49153e-07
-3.27884e-06
1.45546e-07
-3.3515e-06
1.41828e-07
-3.42214e-06
1.37997e-07
-3.4907e-06
1.34055e-07
-3.55712e-06
1.30001e-07
-3.62136e-06
1.25836e-07
-3.68334e-06
1.2156e-07
-3.74302e-06
1.17173e-07
-3.80033e-06
1.12675e-07
-3.85524e-06
1.08067e-07
-3.90767e-06
1.03351e-07
-3.95758e-06
9.85249e-08
-4.00491e-06
9.35913e-08
-4.04962e-06
8.85507e-08
-4.09164e-06
8.34041e-08
-4.13092e-06
7.81526e-08
-4.16742e-06
7.27975e-08
-4.20109e-06
6.73403e-08
-4.23187e-06
6.17825e-08
-4.25972e-06
5.61258e-08
-4.28459e-06
5.03724e-08
-4.30644e-06
4.45242e-08
-4.32521e-06
3.85836e-08
-4.34087e-06
3.25531e-08
-4.35338e-06
2.64356e-08
-4.3627e-06
2.02339e-08
-4.36878e-06
1.39515e-08
-4.37159e-06
7.59198e-09
-4.3711e-06
1.15524e-09
-4.36728e-06
-5.34604e-09
-4.36008e-06
-1.19167e-08
-4.34949e-06
-1.85471e-08
-4.33549e-06
-2.52342e-08
-4.31803e-06
-3.19728e-08
-4.29712e-06
-3.87576e-08
-4.27272e-06
-4.55828e-08
-4.24483e-06
-5.24428e-08
-4.21343e-06
-5.93312e-08
-4.17851e-06
-6.62417e-08
-4.14007e-06
-7.31676e-08
-4.09811e-06
-8.01019e-08
-4.05263e-06
-8.70372e-08
-4.00364e-06
-9.39661e-08
-3.95114e-06
-1.00881e-07
-3.89516e-06
-1.07773e-07
-3.8357e-06
-1.14635e-07
-3.77279e-06
-1.21458e-07
-3.70645e-06
-1.28234e-07
-3.63673e-06
-1.34953e-07
-3.56364e-06
-1.41606e-07
-3.48724e-06
-1.48185e-07
-3.40756e-06
-1.54679e-07
-3.32465e-06
-1.6108e-07
-3.23858e-06
-1.67379e-07
-3.14939e-06
-1.73564e-07
-3.05715e-06
-1.79628e-07
-2.96192e-06
-1.8556e-07
-2.86379e-06
-1.91351e-07
-2.76282e-06
-1.96992e-07
-2.65909e-06
-2.02474e-07
-2.5527e-06
-2.07786e-07
-2.44373e-06
-2.12922e-07
-2.33227e-06
-2.17872e-07
-2.21843e-06
-2.22628e-07
-2.1023e-06
-2.27184e-07
-1.98399e-06
-2.31532e-07
-1.86361e-06
-2.35668e-07
-1.74127e-06
-2.39587e-07
-1.61708e-06
-2.43284e-07
-1.49116e-06
-2.46751e-07
-1.36365e-06
-2.49972e-07
-1.2347e-06
-2.52906e-07
-1.10452e-06
-2.55462e-07
-9.73425e-07
-2.57453e-07
-8.41908e-07
-2.5852e-07
-7.10776e-07
-2.58032e-07
-5.81332e-07
-2.54966e-07
-4.55585e-07
-2.47801e-07
-3.36461e-07
-2.34494e-07
-2.27927e-07
-2.12646e-07
-1.34888e-07
-1.79981e-07
-6.27304e-08
-1.35324e-07
-1.64457e-08
-8.017e-08
-2.32517e-08
-1.72795e-08
3.05775e-08
-6.43299e-08
1.01598e-07
-1.36233e-07
1.70059e-07
-2.28088e-07
2.26852e-07
-3.34912e-07
2.69447e-07
-4.52183e-07
2.9868e-07
-5.76206e-07
3.17076e-07
-7.0423e-07
3.27577e-07
-8.34355e-07
3.3281e-07
-9.6536e-07
3.34779e-07
-1.0965e-06
3.34852e-07
-1.22733e-06
3.3387e-07
-1.35759e-06
3.32308e-07
-1.48712e-06
3.3041e-07
-1.61581e-06
3.28289e-07
-1.74358e-06
3.2599e-07
-1.87036e-06
3.23527e-07
-1.99606e-06
3.20902e-07
-2.12062e-06
3.1811e-07
-2.24397e-06
3.15148e-07
-2.36604e-06
3.12013e-07
-2.48675e-06
3.08702e-07
-2.60603e-06
3.05214e-07
-2.72382e-06
3.01545e-07
-2.84004e-06
2.97697e-07
-2.95461e-06
2.93668e-07
-3.06747e-06
2.89457e-07
-3.17854e-06
2.85064e-07
-3.28775e-06
2.80488e-07
-3.39503e-06
2.7573e-07
-3.50031e-06
2.7079e-07
-3.60351e-06
2.65667e-07
-3.70457e-06
2.60362e-07
-3.80341e-06
2.54873e-07
-3.89997e-06
2.49203e-07
-3.99416e-06
2.4335e-07
-4.08593e-06
2.37315e-07
-4.1752e-06
2.31099e-07
-4.26191e-06
2.24702e-07
-4.34598e-06
2.18123e-07
-4.42734e-06
2.11365e-07
-4.50593e-06
2.04427e-07
-4.58168e-06
1.9731e-07
-4.65453e-06
1.90016e-07
-4.7244e-06
1.82545e-07
-4.79123e-06
1.74897e-07
-4.85495e-06
1.67076e-07
-4.91551e-06
1.59081e-07
-4.97283e-06
1.50916e-07
-5.02686e-06
1.4258e-07
-5.07753e-06
1.34077e-07
-5.12479e-06
1.25408e-07
-5.16857e-06
1.16577e-07
-5.20881e-06
1.07584e-07
-5.24547e-06
9.84348e-08
-5.27847e-06
8.91307e-08
-5.30777e-06
7.96755e-08
-5.33332e-06
7.00731e-08
-5.35507e-06
6.03274e-08
-5.37296e-06
5.04427e-08
-5.38694e-06
4.04237e-08
-5.39699e-06
3.02755e-08
-5.40304e-06
2.00034e-08
-5.40506e-06
9.61291e-09
-5.40301e-06
-8.90287e-10
-5.39686e-06
-1.14982e-08
-5.38657e-06
-2.2205e-08
-5.37212e-06
-3.30034e-08
-5.35346e-06
-4.38855e-08
-5.33059e-06
-5.4843e-08
-5.30348e-06
-6.58675e-08
-5.27212e-06
-7.69499e-08
-5.23648e-06
-8.80808e-08
-5.19656e-06
-9.92503e-08
-5.15235e-06
-1.10448e-07
-5.10386e-06
-1.21663e-07
-5.05107e-06
-1.32885e-07
-4.99401e-06
-1.44102e-07
-4.93268e-06
-1.55301e-07
-4.86709e-06
-1.66471e-07
-4.79726e-06
-1.77598e-07
-4.72323e-06
-1.8867e-07
-4.64501e-06
-1.99674e-07
-4.56265e-06
-2.10595e-07
-4.47618e-06
-2.21419e-07
-4.38566e-06
-2.32133e-07
-4.29112e-06
-2.42722e-07
-4.19263e-06
-2.53171e-07
-4.09024e-06
-2.63465e-07
-3.98403e-06
-2.73589e-07
-3.87407e-06
-2.83529e-07
-3.76043e-06
-2.9327e-07
-3.64319e-06
-3.02796e-07
-3.52245e-06
-3.12092e-07
-3.3983e-06
-3.21145e-07
-3.27083e-06
-3.29939e-07
-3.14016e-06
-3.3846e-07
-3.00639e-06
-3.46695e-07
-2.86963e-06
-3.5463e-07
-2.73e-06
-3.62253e-07
-2.58763e-06
-3.69552e-07
-2.44265e-06
-3.76517e-07
-2.29518e-06
-3.83137e-07
-2.14536e-06
-3.89404e-07
-1.99334e-06
-3.95307e-07
-1.83926e-06
-4.00828e-07
-1.6833e-06
-4.05933e-07
-1.52566e-06
-4.10546e-07
-1.36661e-06
-4.14511e-07
-1.20655e-06
-4.17517e-07
-1.04608e-06
-4.18988e-07
-8.86176e-07
-4.17938e-07
-7.28343e-07
-4.12799e-07
-5.74862e-07
-4.01282e-07
-4.28992e-07
-3.80364e-07
-2.9511e-07
-3.46528e-07
-1.78674e-07
-2.96417e-07
-8.59759e-08
-2.28022e-07
-2.37886e-08
-1.42357e-07
-4.70403e-08
-2.19251e-08
5.25027e-08
-7.94727e-08
1.59146e-07
-1.6519e-07
2.55776e-07
-2.72685e-07
3.34348e-07
-3.96188e-07
3.9295e-07
-5.30772e-07
4.33264e-07
-6.72525e-07
4.5883e-07
-8.18557e-07
4.73609e-07
-9.66869e-07
4.81122e-07
-1.11616e-06
4.84069e-07
-1.26561e-06
4.84307e-07
-1.41474e-06
4.82996e-07
-1.56324e-06
4.80804e-07
-1.71091e-06
4.78082e-07
-1.85762e-06
4.75002e-07
-2.00327e-06
4.71636e-07
-2.14775e-06
4.68012e-07
-2.29099e-06
4.64138e-07
-2.43289e-06
4.60013e-07
-2.57338e-06
4.55633e-07
-2.71236e-06
4.50997e-07
-2.84976e-06
4.46101e-07
-2.98549e-06
4.40943e-07
-3.11946e-06
4.35523e-07
-3.25161e-06
4.29839e-07
-3.38183e-06
4.23891e-07
-3.51005e-06
4.17678e-07
-3.63619e-06
4.11201e-07
-3.76016e-06
4.04459e-07
-3.88188e-06
3.97452e-07
-4.00127e-06
3.90182e-07
-4.11825e-06
3.82647e-07
-4.23274e-06
3.74849e-07
-4.34465e-06
3.66787e-07
-4.45391e-06
3.58464e-07
-4.56044e-06
3.49878e-07
-4.66416e-06
3.41032e-07
-4.76498e-06
3.31925e-07
-4.86284e-06
3.2256e-07
-4.95766e-06
3.12936e-07
-5.04935e-06
3.03056e-07
-5.13784e-06
2.9292e-07
-5.22306e-06
2.82531e-07
-5.30493e-06
2.71889e-07
-5.38339e-06
2.60997e-07
-5.45834e-06
2.49856e-07
-5.52974e-06
2.38469e-07
-5.59749e-06
2.26839e-07
-5.66155e-06
2.14967e-07
-5.72182e-06
2.02858e-07
-5.77826e-06
1.90513e-07
-5.83079e-06
1.77937e-07
-5.87935e-06
1.65134e-07
-5.92387e-06
1.52106e-07
-5.96429e-06
1.3886e-07
-6.00056e-06
1.25399e-07
-6.03261e-06
1.11729e-07
-6.0604e-06
9.78554e-08
-6.08385e-06
8.37841e-08
-6.10293e-06
6.95217e-08
-6.11758e-06
5.50749e-08
-6.12776e-06
4.04512e-08
-6.13341e-06
2.56583e-08
-6.13451e-06
1.07046e-08
-6.131e-06
-4.40101e-09
-6.12284e-06
-1.96492e-08
-6.11002e-06
-3.50298e-08
-6.09249e-06
-5.05325e-08
-6.07023e-06
-6.61462e-08
-6.04321e-06
-8.18591e-08
-6.01142e-06
-9.76591e-08
-5.97484e-06
-1.13533e-07
-5.93345e-06
-1.29468e-07
-5.88725e-06
-1.4545e-07
-5.83624e-06
-1.61463e-07
-5.78041e-06
-1.77494e-07
-5.71977e-06
-1.93526e-07
-5.65432e-06
-2.09543e-07
-5.5841e-06
-2.25527e-07
-5.50911e-06
-2.41462e-07
-5.42937e-06
-2.5733e-07
-5.34493e-06
-2.73112e-07
-5.25582e-06
-2.8879e-07
-5.16207e-06
-3.04344e-07
-5.06373e-06
-3.19754e-07
-4.96086e-06
-3.35001e-07
-4.85352e-06
-3.50065e-07
-4.74177e-06
-3.64924e-07
-4.62567e-06
-3.79559e-07
-4.50531e-06
-3.93948e-07
-4.38077e-06
-4.08071e-07
-4.25213e-06
-4.21906e-07
-4.1195e-06
-4.35433e-07
-3.98296e-06
-4.48631e-07
-3.84262e-06
-4.6148e-07
-3.6986e-06
-4.73959e-07
-3.55101e-06
-4.86048e-07
-3.39998e-06
-4.97728e-07
-3.24563e-06
-5.08981e-07
-3.0881e-06
-5.19788e-07
-2.92751e-06
-5.30134e-07
-2.76403e-06
-5.40002e-07
-2.59779e-06
-5.49377e-07
-2.42895e-06
-5.58244e-07
-2.25767e-06
-5.66584e-07
-2.08413e-06
-5.74368e-07
-1.90852e-06
-5.8154e-07
-1.73109e-06
-5.87984e-07
-1.55213e-06
-5.93469e-07
-1.3721e-06
-5.9755e-07
-1.19166e-06
-5.99425e-07
-1.01186e-06
-5.97737e-07
-8.34302e-07
-5.90357e-07
-6.61375e-07
-5.74209e-07
-4.96494e-07
-5.45246e-07
-3.44272e-07
-4.9875e-07
-2.1061e-07
-4.30079e-07
-1.02674e-07
-3.35959e-07
-2.89119e-08
-2.1612e-07
-7.59522e-08
-2.50307e-08
7.75334e-08
-8.99109e-08
2.24026e-07
-1.85536e-07
3.51401e-07
-3.04318e-07
4.5313e-07
-4.39784e-07
5.28416e-07
-5.86646e-07
5.80126e-07
-7.40823e-07
6.13006e-07
-8.99349e-07
6.32135e-07
-1.06019e-06
6.41963e-07
-1.22202e-06
6.45899e-07
-1.38401e-06
6.46293e-07
-1.54563e-06
6.44623e-07
-1.70658e-06
6.4175e-07
-1.86663e-06
6.38135e-07
-2.02564e-06
6.34009e-07
-2.18348e-06
6.29475e-07
-2.34004e-06
6.24577e-07
-2.49523e-06
6.19329e-07
-2.64895e-06
6.13734e-07
-2.80111e-06
6.0779e-07
-2.95161e-06
6.01497e-07
-3.10036e-06
5.94852e-07
-3.24727e-06
5.87853e-07
-3.39225e-06
5.805e-07
-3.5352e-06
5.72792e-07
-3.67604e-06
5.64729e-07
-3.81467e-06
5.56312e-07
-3.95101e-06
5.47539e-07
-4.08497e-06
5.38413e-07
-4.21645e-06
5.28933e-07
-4.34537e-06
5.191e-07
-4.47164e-06
5.08916e-07
-4.59517e-06
4.9838e-07
-4.71587e-06
4.87495e-07
-4.83367e-06
4.76261e-07
-4.94847e-06
4.6468e-07
-5.06019e-06
4.52753e-07
-5.16875e-06
4.40482e-07
-5.27406e-06
4.27869e-07
-5.37604e-06
4.14914e-07
-5.4746e-06
4.01622e-07
-5.56968e-06
3.87993e-07
-5.66118e-06
3.74031e-07
-5.74902e-06
3.59737e-07
-5.83314e-06
3.45114e-07
-5.91345e-06
3.30167e-07
-5.98988e-06
3.14897e-07
-6.06235e-06
2.9931e-07
-6.13079e-06
2.83407e-07
-6.19513e-06
2.67195e-07
-6.25529e-06
2.50677e-07
-6.31121e-06
2.33858e-07
-6.36283e-06
2.16745e-07
-6.41006e-06
1.99341e-07
-6.45286e-06
1.81655e-07
-6.49115e-06
1.63691e-07
-6.52488e-06
1.45458e-07
-6.55398e-06
1.26963e-07
-6.57842e-06
1.08214e-07
-6.59811e-06
8.92208e-08
-6.61303e-06
6.99914e-08
-6.62312e-06
5.05362e-08
-6.62832e-06
3.08657e-08
-6.62861e-06
1.09912e-08
-6.62394e-06
-9.07557e-09
-6.61426e-06
-2.9322e-08
-6.59956e-06
-4.97348e-08
-6.57979e-06
-7.03001e-08
-6.55493e-06
-9.10032e-08
-6.52496e-06
-1.11829e-07
-6.48986e-06
-1.3276e-07
-6.44961e-06
-1.53781e-07
-6.40421e-06
-1.74874e-07
-6.35364e-06
-1.96019e-07
-6.2979e-06
-2.17199e-07
-6.237e-06
-2.38393e-07
-6.17095e-06
-2.5958e-07
-6.09975e-06
-2.80739e-07
-6.02343e-06
-3.01848e-07
-5.94201e-06
-3.22885e-07
-5.85552e-06
-3.43825e-07
-5.76398e-06
-3.64646e-07
-5.66745e-06
-3.85322e-07
-5.56597e-06
-4.05828e-07
-5.45958e-06
-4.26139e-07
-5.34835e-06
-4.4623e-07
-5.23235e-06
-4.66073e-07
-5.11163e-06
-4.85642e-07
-4.98628e-06
-5.0491e-07
-4.85638e-06
-5.2385e-07
-4.72201e-06
-5.42435e-07
-4.58328e-06
-5.60638e-07
-4.44028e-06
-5.78432e-07
-4.29312e-06
-5.9579e-07
-4.14192e-06
-6.12684e-07
-3.98679e-06
-6.2909e-07
-3.82785e-06
-6.44981e-07
-3.66525e-06
-6.60331e-07
-3.49911e-06
-6.75117e-07
-3.32959e-06
-6.89316e-07
-3.15682e-06
-7.02904e-07
-2.98096e-06
-7.1586e-07
-2.80217e-06
-7.28163e-07
-2.62063e-06
-7.39792e-07
-2.43649e-06
-7.50718e-07
-2.24996e-06
-7.60897e-07
-2.06125e-06
-7.70251e-07
-1.87061e-06
-7.78622e-07
-1.67838e-06
-7.85701e-07
-1.48502e-06
-7.90911e-07
-1.29123e-06
-7.93219e-07
-1.09807e-06
-7.90897e-07
-9.07171e-07
-7.81253e-07
-7.20972e-07
-7.60408e-07
-5.42964e-07
-7.23253e-07
-3.77948e-07
-6.63766e-07
-2.32219e-07
-5.75809e-07
-1.13708e-07
-4.54469e-07
-3.21698e-08
-2.97658e-07
-1.08122e-07
-2.69372e-08
1.04471e-07
-9.65664e-08
2.93655e-07
-1.98839e-07
4.53673e-07
-3.25322e-07
5.79613e-07
-4.6898e-07
6.72074e-07
-6.24213e-07
7.35359e-07
-7.8679e-07
7.75583e-07
-9.53691e-07
7.99035e-07
-1.12287e-06
8.1114e-07
-1.293e-06
8.16027e-07
-1.46324e-06
8.16539e-07
-1.63309e-06
8.14472e-07
-1.80222e-06
8.10875e-07
-1.9704e-06
8.06316e-07
-2.13747e-06
8.01085e-07
-2.30331e-06
7.95315e-07
-2.4678e-06
7.89066e-07
-2.63083e-06
7.8236e-07
-2.7923e-06
7.75203e-07
-2.95211e-06
7.67598e-07
-3.11016e-06
7.59544e-07
-3.26634e-06
7.51039e-07
-3.42057e-06
7.42083e-07
-3.57275e-06
7.32676e-07
-3.72278e-06
7.22817e-07
-3.87055e-06
7.12508e-07
-4.01599e-06
7.01749e-07
-4.15899e-06
6.9054e-07
-4.29946e-06
6.78883e-07
-4.43731e-06
6.66779e-07
-4.57244e-06
6.54229e-07
-4.70476e-06
6.41236e-07
-4.83418e-06
6.27799e-07
-4.9606e-06
6.13923e-07
-5.08395e-06
5.99607e-07
-5.20413e-06
5.84855e-07
-5.32104e-06
5.69669e-07
-5.43461e-06
5.54051e-07
-5.54475e-06
5.38004e-07
-5.65136e-06
5.21531e-07
-5.75437e-06
5.04634e-07
-5.8537e-06
4.87317e-07
-5.94925e-06
4.69583e-07
-6.04095e-06
4.51436e-07
-6.12872e-06
4.3288e-07
-6.21247e-06
4.1392e-07
-6.29213e-06
3.94559e-07
-6.36762e-06
3.74802e-07
-6.43887e-06
3.54656e-07
-6.5058e-06
3.34126e-07
-6.56834e-06
3.13217e-07
-6.62642e-06
2.91937e-07
-6.67997e-06
2.70293e-07
-6.72892e-06
2.48291e-07
-6.7732e-06
2.2594e-07
-6.81276e-06
2.03249e-07
-6.84753e-06
1.80226e-07
-6.87745e-06
1.56882e-07
-6.90246e-06
1.33228e-07
-6.92251e-06
1.09273e-07
-6.93755e-06
8.50311e-08
-6.94753e-06
6.05138e-08
-6.9524e-06
3.57345e-08
-6.95212e-06
1.07076e-08
-6.94664e-06
-1.4552e-08
-6.93593e-06
-4.00285e-08
-6.91996e-06
-6.57052e-08
-6.8987e-06
-9.15646e-08
-6.87211e-06
-1.17588e-07
-6.84019e-06
-1.43757e-07
-6.8029e-06
-1.7005e-07
-6.76023e-06
-1.96447e-07
-6.71218e-06
-2.22926e-07
-6.65874e-06
-2.49462e-07
-6.5999e-06
-2.76034e-07
-6.53568e-06
-3.02615e-07
-6.46608e-06
-3.2918e-07
-6.39111e-06
-3.55703e-07
-6.31081e-06
-3.82156e-07
-6.22518e-06
-4.08511e-07
-6.13427e-06
-4.34739e-07
-6.0381e-06
-4.6081e-07
-5.93673e-06
-4.86694e-07
-5.8302e-06
-5.1236e-07
-5.71856e-06
-5.37776e-07
-5.60188e-06
-5.6291e-07
-5.48022e-06
-5.87729e-07
-5.35367e-06
-6.12201e-07
-5.22228e-06
-6.36293e-07
-5.08616e-06
-6.5997e-07
-4.9454e-06
-6.83199e-07
-4.80009e-06
-7.05947e-07
-4.65034e-06
-7.2818e-07
-4.49627e-06
-7.49865e-07
-4.33798e-06
-7.70968e-07
-4.17562e-06
-7.91458e-07
-4.0093e-06
-8.11302e-07
-3.83916e-06
-8.30469e-07
-3.66535e-06
-8.48928e-07
-3.48801e-06
-8.66651e-07
-3.30731e-06
-8.83608e-07
-3.12339e-06
-8.99773e-07
-2.93644e-06
-9.15117e-07
-2.74662e-06
-9.29611e-07
-2.55412e-06
-9.43217e-07
-2.35914e-06
-9.55879e-07
-2.1619e-06
-9.67491e-07
-1.96267e-06
-9.77855e-07
-1.76178e-06
-9.86588e-07
-1.55971e-06
-9.92978e-07
-1.35717e-06
-9.95768e-07
-1.1552e-06
-9.92861e-07
-9.55452e-07
-9.81002e-07
-7.60369e-07
-9.5549e-07
-5.73512e-07
-9.10111e-07
-3.99846e-07
-8.37432e-07
-2.46009e-07
-7.29645e-07
-1.20541e-07
-5.79937e-07
-3.40959e-08
-3.84103e-07
-1.42218e-07
-2.80197e-08
1.3249e-07
-1.00535e-07
3.66171e-07
-2.0703e-07
5.60168e-07
-3.3853e-07
7.11113e-07
-4.87591e-07
8.21136e-07
-6.48357e-07
8.96126e-07
-8.16468e-07
9.43694e-07
-9.8885e-07
9.71417e-07
-1.16345e-06
9.85736e-07
-1.33893e-06
9.91516e-07
-1.5145e-06
9.92099e-07
-1.68962e-06
9.89594e-07
-1.86398e-06
9.85235e-07
-2.03736e-06
9.79695e-07
-2.20959e-06
9.73318e-07
-2.38054e-06
9.66267e-07
-2.55009e-06
9.58618e-07
-2.71813e-06
9.504e-07
-2.88455e-06
9.41624e-07
-3.04925e-06
9.32294e-07
-3.21212e-06
9.22412e-07
-3.37306e-06
9.11977e-07
-3.53196e-06
9.0099e-07
-3.68874e-06
8.89451e-07
-3.84328e-06
8.77361e-07
-3.99549e-06
8.64721e-07
-4.14528e-06
8.51532e-07
-4.29253e-06
8.37796e-07
-4.43716e-06
8.23515e-07
-4.57908e-06
8.08691e-07
-4.71817e-06
7.93325e-07
-4.85436e-06
7.77421e-07
-4.98754e-06
7.6098e-07
-5.11762e-06
7.44005e-07
-5.24451e-06
7.26499e-07
-5.36812e-06
7.08465e-07
-5.48836e-06
6.89906e-07
-5.60513e-06
6.70826e-07
-5.71836e-06
6.51228e-07
-5.82794e-06
6.31115e-07
-5.9338e-06
6.10492e-07
-6.03585e-06
5.89363e-07
-6.134e-06
5.67733e-07
-6.22817e-06
5.45606e-07
-6.31827e-06
5.22988e-07
-6.40424e-06
4.99884e-07
-6.48598e-06
4.763e-07
-6.56342e-06
4.52243e-07
-6.63648e-06
4.27719e-07
-6.70509e-06
4.02735e-07
-6.76917e-06
3.77299e-07
-6.82866e-06
3.51419e-07
-6.88347e-06
3.25104e-07
-6.93354e-06
2.98364e-07
-6.97881e-06
2.71208e-07
-7.01921e-06
2.43647e-07
-7.05467e-06
2.15693e-07
-7.08515e-06
1.87357e-07
-7.11057e-06
1.58652e-07
-7.13089e-06
1.29592e-07
-7.14605e-06
1.00192e-07
-7.156e-06
7.04667e-08
-7.1607e-06
4.04326e-08
-7.1601e-06
1.01068e-08
-7.15416e-06
-2.04925e-08
-7.14284e-06
-5.13461e-08
-7.12612e-06
-8.24339e-08
-7.10395e-06
-1.13735e-07
-7.07631e-06
-1.45226e-07
-7.04318e-06
-1.76885e-07
-7.00454e-06
-2.08687e-07
-6.96038e-06
-2.40607e-07
-6.91069e-06
-2.72617e-07
-6.85546e-06
-3.04691e-07
-6.7947e-06
-3.368e-07
-6.7284e-06
-3.68913e-07
-6.65658e-06
-4.01e-07
-6.57925e-06
-4.3303e-07
-6.49644e-06
-4.64969e-07
-6.40817e-06
-4.96784e-07
-6.31447e-06
-5.28439e-07
-6.21538e-06
-5.59899e-07
-6.11094e-06
-5.91129e-07
-6.00121e-06
-6.22089e-07
-5.88624e-06
-6.52744e-07
-5.7661e-06
-6.83054e-07
-5.64085e-06
-7.1298e-07
-5.51057e-06
-7.42484e-07
-5.37534e-06
-7.71524e-07
-5.23524e-06
-8.00061e-07
-5.09039e-06
-8.28056e-07
-4.94087e-06
-8.55467e-07
-4.78679e-06
-8.82255e-07
-4.62828e-06
-9.08379e-07
-4.46544e-06
-9.33801e-07
-4.29842e-06
-9.58481e-07
-4.12734e-06
-9.8238e-07
-3.95235e-06
-1.00546e-06
-3.77359e-06
-1.02769e-06
-3.59121e-06
-1.04903e-06
-3.40538e-06
-1.06944e-06
-3.21626e-06
-1.08889e-06
-3.02402e-06
-1.10735e-06
-2.82885e-06
-1.12478e-06
-2.63093e-06
-1.14114e-06
-2.43047e-06
-1.15634e-06
-2.22769e-06
-1.17027e-06
-2.02287e-06
-1.18268e-06
-1.81635e-06
-1.19311e-06
-1.60859e-06
-1.20074e-06
-1.40029e-06
-1.20407e-06
-1.19251e-06
-1.20064e-06
-9.86874e-07
-1.18664e-06
-7.85855e-07
-1.15651e-06
-5.93074e-07
-1.10289e-06
-4.13647e-07
-1.01686e-06
-2.54494e-07
-8.88799e-07
-1.24595e-07
-7.09836e-07
-3.51745e-08
-4.73523e-07
-1.77392e-07
-2.85942e-08
1.61084e-07
-1.02784e-07
4.4036e-07
-2.11865e-07
6.6925e-07
-3.46542e-07
8.45789e-07
-4.99095e-07
9.73688e-07
-6.63472e-07
1.0605e-06
-8.35202e-07
1.11542e-06
-1.01116e-06
1.14737e-06
-1.18927e-06
1.16385e-06
-1.36822e-06
1.17047e-06
-1.5472e-06
1.17107e-06
-1.72569e-06
1.16809e-06
-1.9034e-06
1.16294e-06
-2.08009e-06
1.15639e-06
-2.25561e-06
1.14884e-06
-2.42982e-06
1.14048e-06
-2.6026e-06
1.1314e-06
-2.77383e-06
1.12163e-06
-2.94341e-06
1.1112e-06
-3.11123e-06
1.10011e-06
-3.27717e-06
1.08836e-06
-3.44115e-06
1.07595e-06
-3.60304e-06
1.06289e-06
-3.76276e-06
1.04917e-06
-3.92019e-06
1.0348e-06
-4.07525e-06
1.01977e-06
-4.22782e-06
1.0041e-06
-4.3778e-06
9.87783e-07
-4.52511e-06
9.70821e-07
-4.66964e-06
9.53217e-07
-4.81129e-06
9.34975e-07
-4.94996e-06
9.16098e-07
-5.08557e-06
8.96588e-07
-5.21802e-06
8.7645e-07
-5.3472e-06
8.55687e-07
-5.47304e-06
8.34303e-07
-5.59544e-06
8.12302e-07
-5.7143e-06
7.89688e-07
-5.82954e-06
7.66466e-07
-5.94106e-06
7.42641e-07
-6.04879e-06
7.18218e-07
-6.15263e-06
6.93202e-07
-6.25249e-06
6.67598e-07
-6.3483e-06
6.41414e-07
-6.43997e-06
6.14655e-07
-6.52741e-06
5.87328e-07
-6.61055e-06
5.59441e-07
-6.68931e-06
5.31001e-07
-6.76361e-06
5.02016e-07
-6.83337e-06
4.72495e-07
-6.89852e-06
4.42447e-07
-6.95898e-06
4.11883e-07
-7.01469e-06
3.80813e-07
-7.06557e-06
3.49247e-07
-7.11156e-06
3.17199e-07
-7.1526e-06
2.8468e-07
-7.18861e-06
2.51705e-07
-7.21954e-06
2.18287e-07
-7.24533e-06
1.84442e-07
-7.26592e-06
1.50187e-07
-7.28127e-06
1.15537e-07
-7.29131e-06
8.0512e-08
-7.29601e-06
4.51304e-08
-7.29532e-06
9.41261e-09
-7.28919e-06
-2.66199e-08
-7.27759e-06
-6.29447e-08
-7.26049e-06
-9.95381e-08
-7.23785e-06
-1.36375e-07
-7.20964e-06
-1.7343e-07
-7.17585e-06
-2.10675e-07
-7.13646e-06
-2.48081e-07
-7.09145e-06
-2.8562e-07
-7.0408e-06
-3.23259e-07
-6.98453e-06
-3.60967e-07
-6.92262e-06
-3.9871e-07
-6.85508e-06
-4.36452e-07
-6.78192e-06
-4.74159e-07
-6.70316e-06
-5.11792e-07
-6.61881e-06
-5.49314e-07
-6.52891e-06
-5.86684e-07
-6.43349e-06
-6.23863e-07
-6.33258e-06
-6.60808e-07
-6.22623e-06
-6.97478e-07
-6.11449e-06
-7.33829e-07
-5.99742e-06
-7.69816e-07
-5.87508e-06
-8.05395e-07
-5.74754e-06
-8.40521e-07
-5.61487e-06
-8.75146e-07
-5.47717e-06
-9.09226e-07
-5.33452e-06
-9.42712e-07
-5.18702e-06
-9.75559e-07
-5.03477e-06
-1.00772e-06
-4.87788e-06
-1.03914e-06
-4.71647e-06
-1.06979e-06
-4.55066e-06
-1.09961e-06
-4.38058e-06
-1.12856e-06
-4.20637e-06
-1.15659e-06
-4.02817e-06
-1.18366e-06
-3.84614e-06
-1.20972e-06
-3.66042e-06
-1.23474e-06
-3.47119e-06
-1.25867e-06
-3.2786e-06
-1.28148e-06
-3.08284e-06
-1.30311e-06
-2.88409e-06
-1.32353e-06
-2.68254e-06
-1.34268e-06
-2.47841e-06
-1.36048e-06
-2.27191e-06
-1.37676e-06
-2.06332e-06
-1.39126e-06
-1.85298e-06
-1.40345e-06
-1.64135e-06
-1.41236e-06
-1.42913e-06
-1.41629e-06
-1.21736e-06
-1.41241e-06
-1.00768e-06
-1.39632e-06
-8.0257e-07
-1.36162e-06
-6.05731e-07
-1.29973e-06
-4.22405e-07
-1.20018e-06
-2.59733e-07
-1.05147e-06
-1.27e-07
-8.42569e-07
-3.57744e-08
-5.64749e-07
-2.13167e-07
-2.88876e-08
1.89972e-07
-1.04038e-07
5.15511e-07
-2.14699e-07
7.7991e-07
-3.51396e-07
9.82487e-07
-5.0623e-07
1.12852e-06
-6.73006e-07
1.22728e-06
-8.47161e-07
1.28958e-06
-1.02552e-06
1.32573e-06
-1.20599e-06
1.34432e-06
-1.38726e-06
1.35173e-06
-1.56851e-06
1.35233e-06
-1.74926e-06
1.34884e-06
-1.92918e-06
1.34286e-06
-2.10807e-06
1.33528e-06
-2.28576e-06
1.32653e-06
-2.46213e-06
1.31684e-06
-2.63704e-06
1.30631e-06
-2.81039e-06
1.29498e-06
-2.98206e-06
1.28287e-06
-3.15195e-06
1.27e-06
-3.31994e-06
1.25635e-06
-3.48593e-06
1.24194e-06
-3.64982e-06
1.22678e-06
-3.8115e-06
1.21085e-06
-3.97087e-06
1.19417e-06
-4.12783e-06
1.17673e-06
-4.28227e-06
1.15854e-06
-4.4341e-06
1.13961e-06
-4.58321e-06
1.11993e-06
-4.7295e-06
1.09951e-06
-4.87288e-06
1.07836e-06
-5.01325e-06
1.05647e-06
-5.15052e-06
1.03385e-06
-5.28458e-06
1.01051e-06
-5.41535e-06
9.86451e-07
-5.54272e-06
9.61676e-07
-5.66661e-06
9.36191e-07
-5.78692e-06
9.10002e-07
-5.90357e-06
8.83113e-07
-6.01646e-06
8.55531e-07
-6.1255e-06
8.27263e-07
-6.23062e-06
7.98314e-07
-6.33171e-06
7.68691e-07
-6.4287e-06
7.38402e-07
-6.5215e-06
7.07455e-07
-6.61003e-06
6.75857e-07
-6.6942e-06
6.43616e-07
-6.77394e-06
6.10743e-07
-6.84918e-06
5.77247e-07
-6.91982e-06
5.43138e-07
-6.9858e-06
5.08427e-07
-7.04704e-06
4.73125e-07
-7.10347e-06
4.37246e-07
-7.15503e-06
4.00801e-07
-7.20163e-06
3.63805e-07
-7.24323e-06
3.26273e-07
-7.27974e-06
2.88221e-07
-7.31112e-06
2.49664e-07
-7.3373e-06
2.10621e-07
-7.35822e-06
1.7111e-07
-7.37384e-06
1.31152e-07
-7.38409e-06
9.07666e-08
-7.38894e-06
4.99764e-08
-7.38833e-06
8.80478e-09
-7.38223e-06
-3.27238e-08
-7.37059e-06
-7.45834e-08
-7.35338e-06
-1.16747e-07
-7.33057e-06
-1.59185e-07
-7.30213e-06
-2.01869e-07
-7.26804e-06
-2.44767e-07
-7.22827e-06
-2.87846e-07
-7.18282e-06
-3.31071e-07
-7.13167e-06
-3.74408e-07
-7.07482e-06
-4.1782e-07
-7.01226e-06
-4.61266e-07
-6.94401e-06
-5.04709e-07
-6.87006e-06
-5.48106e-07