/*--------------------------------*- C++ -*----------------------------------*\
| =========                 |                                                 |
| \\      /  F ield         | OpenFOAM: The Open Source CFD Toolbox           |
|  \\    /   O peration     | Version:  2406                                  |
|   \\  /    A nd           | Website:  www.openfoam.com                      |
|    \\/     M anipulation  |                                                 |
\*---------------------------------------------------------------------------*/
FoamFile
{
    version     2.0;
    format      ascii;
    arch        "LSB;label=32;scalar=64";
    class       surfaceScalarField;
    location    "7.8";
    object      phi;
}
// * * * * * * * * * * * * * * * * * * * * * * * * * * * * * * * * * * * * * //

dimensions      [0 3 -1 0 0 0 0];

oriented        oriented;

internalField   nonuniform List<scalar> 
7080
(
4.172e-09
-4.31786e-09
-1.37589e-07
1.47425e-07
-4.02678e-07
2.65416e-07
-7.46806e-07
3.5031e-07
-1.13492e-06
3.90714e-07
-1.54018e-06
4.11401e-07
-1.95146e-06
4.1513e-07
-2.35966e-06
4.13954e-07
-2.76353e-06
4.08239e-07
-3.16054e-06
4.02362e-07
-3.55136e-06
3.95344e-07
-3.93485e-06
3.88488e-07
-4.31106e-06
3.80712e-07
-4.67865e-06
3.72287e-07
-5.03668e-06
3.62384e-07
-5.38325e-06
3.50937e-07
-5.7165e-06
3.37334e-07
-6.0339e-06
3.21376e-07
-6.3328e-06
3.02582e-07
-6.61005e-06
2.80708e-07
-6.8623e-06
2.55382e-07
-7.08589e-06
2.26394e-07
-7.27699e-06
1.93515e-07
-7.43167e-06
1.56669e-07
-7.54601e-06
1.15846e-07
-7.61621e-06
7.12097e-08
-7.63881e-06
2.30545e-08
-7.6108e-06
-2.81269e-08
-7.52985e-06
-8.16713e-08
-7.39447e-06
-1.36718e-07
-7.2042e-06
-1.92241e-07
-6.95972e-06
-2.47062e-07
-6.663e-06
-2.99897e-07
-6.31734e-06
-3.49407e-07
-5.92735e-06
-3.94263e-07
-5.49886e-06
-4.33215e-07
-5.03882e-06
-4.65164e-07
-4.55503e-06
-4.8923e-07
-4.05588e-06
-5.04806e-07
-3.55009e-06
-5.11603e-07
-3.04628e-06
-5.09656e-07
-2.55277e-06
-4.99339e-07
-2.07715e-06
-4.81302e-07
-1.62619e-06
-4.56461e-07
-1.20553e-06
-4.25864e-07
-8.19775e-07
-3.90677e-07
-4.72286e-07
-3.51974e-07
-1.65657e-07
-3.10782e-07
9.85227e-08
-2.67761e-07
3.18661e-07
-2.23414e-07
4.93754e-07
-1.77606e-07
6.2156e-07
-1.30141e-07
7.00359e-07
-8.00296e-08
7.25815e-07
-2.68425e-08
6.95859e-07
3.03142e-08
6.05693e-07
8.95392e-08
4.61172e-07
1.46772e-07
2.73377e-07
1.87058e-07
9.30571e-08
1.84393e-07
9.30147e-08
-1.52997e-07
1.43054e-07
-6.05854e-07
6.00733e-07
-1.30277e-06
9.52581e-07
-2.16226e-06
1.20553e-06
-3.12738e-06
1.3453e-06
-4.14457e-06
1.42143e-06
-5.18768e-06
1.4478e-06
-6.23407e-06
1.452e-06
-7.27621e-06
1.44043e-06
-8.3061e-06
1.42357e-06
-9.32207e-06
1.40188e-06
-1.03203e-05
1.3781e-06
-1.12993e-05
1.35073e-06
-1.22553e-05
1.31988e-06
-1.31852e-05
1.28383e-06
-1.40841e-05
1.24192e-06
-1.49472e-05
1.19266e-06
-1.57683e-05
1.13516e-06
-1.65408e-05
1.06814e-06
-1.72573e-05
9.90719e-07
-1.79097e-05
9.01889e-07
-1.84895e-05
8.00988e-07
-1.89879e-05
6.87452e-07
-1.9396e-05
5.61113e-07
-1.97051e-05
4.22105e-07
-1.99068e-05
2.71049e-07
-1.99936e-05
1.09027e-07
-1.99592e-05
-6.23077e-08
-1.97987e-05
-2.40768e-07
-1.95093e-05
-4.23602e-07
-1.90902e-05
-6.07571e-07
-1.85434e-05
-7.89013e-07
-1.78733e-05
-9.63986e-07
-1.70872e-05
-1.12841e-06
-1.61952e-05
-1.27827e-06
-1.52097e-05
-1.40981e-06
-1.41455e-05
-1.51973e-06
-1.30192e-05
-1.60537e-06
-1.18485e-05
-1.66488e-06
-1.06518e-05
-1.69734e-06
-9.44777e-06
-1.70274e-06
-8.25416e-06
-1.68207e-06
-7.08769e-06
-1.6371e-06
-5.96352e-06
-1.57038e-06
-4.89473e-06
-1.48487e-06
-3.8925e-06
-1.3838e-06
-2.96576e-06
-1.27024e-06
-2.12196e-06
-1.14699e-06
-1.36688e-06
-1.01594e-06
-7.06256e-07
-8.78254e-07
-1.45079e-07
-7.33664e-07
3.09632e-07
-5.81161e-07
6.51382e-07
-4.18568e-07
8.7013e-07
-2.44383e-07
9.60063e-07
-5.83408e-08
9.13925e-07
1.33979e-07
7.43638e-07
3.16964e-07
4.72339e-07
4.53699e-07
1.82174e-07
4.74857e-07
2.71223e-07
-2.98767e-07
4.40708e-07
-1.03223e-06
1.34436e-06
-2.09863e-06
2.01818e-06
-3.37583e-06
2.49221e-06
-4.79677e-06
2.76982e-06
-6.29116e-06
2.92472e-06
-7.82591e-06
2.9882e-06
-9.3695e-06
3.00389e-06
-1.09102e-05
2.98757e-06
-1.24354e-05
2.95653e-06
-1.3941e-05
2.91418e-06
-1.54206e-05
2.86493e-06
-1.68705e-05
2.80731e-06
-1.8285e-05
2.74112e-06
-1.96586e-05
2.66381e-06
-2.09841e-05
2.57383e-06
-2.22542e-05
2.46867e-06
-2.34597e-05
2.34646e-06
-2.45912e-05
2.20498e-06
-2.5638e-05
2.04249e-06
-2.65888e-05
1.85726e-06
-2.74319e-05
1.64808e-06
-2.81551e-05
1.41411e-06
-2.87464e-05
1.15518e-06
-2.9194e-05
8.71812e-07
-2.9487e-05
5.65421e-07
-2.96158e-05
2.38337e-07
-2.95723e-05
-1.06058e-07
-2.93509e-05
-4.63369e-07
-2.89485e-05
-8.28186e-07
-2.83648e-05
-1.19422e-06
-2.76033e-05
-1.55446e-06
-2.66707e-05
-1.90141e-06
-2.55773e-05
-2.2274e-06
-2.4337e-05
-2.52494e-06
-2.29668e-05
-2.78704e-06
-2.14865e-05
-3.00763e-06
-1.99181e-05
-3.18185e-06
-1.8285e-05
-3.30631e-06
-1.66116e-05
-3.37931e-06
-1.4922e-05
-3.40091e-06
-1.32397e-05
-3.37286e-06
-1.15867e-05
-3.29844e-06
-9.9829e-06
-3.18222e-06
-8.44576e-06
-3.02959e-06
-6.99034e-06
-2.84635e-06
-5.62903e-06
-2.63805e-06
-4.37241e-06
-2.40958e-06
-3.22919e-06
-2.16432e-06
-2.20803e-06
-1.90406e-06
-1.31703e-06
-1.62826e-06
-5.66647e-07
-1.33474e-06
3.28964e-08
-1.01987e-06
4.67699e-07
-6.80919e-07
7.28649e-07
-3.18867e-07
8.0646e-07
5.56669e-08
7.13861e-07
4.12469e-07
4.78107e-07
6.89001e-07
1.91889e-07
7.66067e-07
4.63449e-07
-4.26354e-07
8.6031e-07
-1.40447e-06
2.32867e-06
-2.78171e-06
3.38517e-06
-4.39798e-06
4.10939e-06
-6.17988e-06
4.54377e-06
-8.04642e-06
4.78892e-06
-9.96247e-06
4.89743e-06
-1.18909e-05
4.92845e-06
-1.38176e-05
4.90825e-06
-1.57264e-05
4.86087e-06
-1.76111e-05
4.7933e-06
-1.94625e-05
4.7117e-06
-2.12753e-05
4.61493e-06
-2.30412e-05
4.50247e-06
-2.47532e-05
4.37099e-06
-2.64017e-05
4.21798e-06
-2.79773e-05
4.03986e-06
-2.94685e-05
3.83371e-06
-3.08637e-05
3.59629e-06
-3.21497e-05
3.32498e-06
-3.3313e-05
3.01731e-06
-3.43394e-05
2.67162e-06
-3.52147e-05
2.28687e-06
-3.59246e-05
1.86311e-06
-3.64558e-05
1.40149e-06
-3.67959e-05
9.04543e-07
-3.69342e-05
3.76241e-07
-3.68622e-05
-1.77849e-07
-3.65741e-05
-7.50627e-07
-3.60674e-05
-1.33349e-06
-3.5343e-05
-1.91655e-06
-3.44058e-05
-2.48888e-06
-3.3265e-05
-3.03893e-06
-3.19335e-05
-3.55495e-06
-3.04285e-05
-4.02554e-06
-2.87705e-05
-4.44018e-06
-2.69832e-05
-4.78973e-06
-2.50924e-05
-5.06701e-06
-2.31258e-05
-5.26707e-06
-2.11117e-05
-5.38753e-06
-1.90779e-05
-5.42865e-06
-1.70516e-05
-5.39324e-06
-1.50578e-05
-5.2864e-06
-1.31193e-05
-5.11512e-06
-1.12559e-05
-4.88756e-06
-9.48481e-06
-4.61247e-06
-7.82002e-06
-4.29815e-06
-6.27361e-06
-3.95181e-06
-4.85566e-06
-3.57842e-06
-3.57615e-06
-3.18041e-06
-2.44465e-06
-2.75683e-06
-1.47316e-06
-2.30429e-06
-6.73636e-07
-1.81742e-06
-6.15561e-08
-1.29252e-06
3.52387e-07
-7.31687e-07
5.58216e-07
-1.51434e-07
5.67542e-07
4.03943e-07
4.0829e-07
8.4498e-07
1.70448e-07
1.00541e-06
6.31375e-07
-5.20011e-07
1.3762e-06
-1.69472e-06
3.51598e-06
-3.32685e-06
5.01124e-06
-5.22046e-06
6.0116e-06
-7.29396e-06
6.61628e-06
-9.45666e-06
6.95791e-06
-1.16728e-05
7.115e-06
-1.39014e-05
7.16221e-06
-1.6128e-05
7.13737e-06
-1.83336e-05
7.07086e-06
-2.05108e-05
6.97361e-06
-2.26485e-05
6.85333e-06
-2.47398e-05
6.70938e-06
-2.67746e-05
6.54085e-06
-2.87441e-05
6.34364e-06
-3.06371e-05
6.11424e-06
-3.24422e-05
5.84796e-06
-3.41464e-05
5.5408e-06
-3.57359e-05
5.18846e-06
-3.71958e-05
4.78744e-06
-3.85109e-05
4.33458e-06
-3.9665e-05
3.8278e-06
-4.06425e-05
3.26601e-06
-4.14276e-05
2.64962e-06
-4.20058e-05
1.98064e-06
-4.23636e-05
1.26299e-06
-4.24897e-05
5.02626e-07
-4.23754e-05
-2.92321e-07
-4.20151e-05
-1.11161e-06
-4.14067e-05
-1.94299e-06
-4.05523e-05
-2.77247e-06
-3.94584e-05
-3.5847e-06
-3.81361e-05
-4.36357e-06
-3.66011e-05
-5.09276e-06
-3.48733e-05
-5.75653e-06
-3.29765e-05
-6.34043e-06
-3.09379e-05
-6.83203e-06
-2.87873e-05
-7.22161e-06
-2.65558e-05
-7.50266e-06
-2.42753e-05
-7.6722e-06
-2.19773e-05
-7.73093e-06
-1.96916e-05
-7.6831e-06
-1.74461e-05
-7.53606e-06
-1.52654e-05
-7.29975e-06
-1.31711e-05
-6.98564e-06
-1.11812e-05
-6.60597e-06
-9.31038e-06
-6.17223e-06
-7.57085e-06
-5.69438e-06
-5.97265e-06
-5.17918e-06
-4.52557e-06
-4.62992e-06
-3.23895e-06
-4.04519e-06
-2.12463e-06
-3.42039e-06
-1.19461e-06
-2.7482e-06
-4.64406e-07
-2.02392e-06
5.47546e-08
-1.25037e-06
3.5268e-07
-4.50225e-07
4.39501e-07
3.1907e-07
3.42835e-07
9.40328e-07
1.48456e-07
1.20314e-06
7.7936e-07
-5.94904e-07
1.9634e-06
-1.92763e-06
4.85942e-06
-3.76475e-06
6.83708e-06
-5.88122e-06
8.13268e-06
-8.18712e-06
8.91525e-06
-1.05837e-05
9.3554e-06
-1.3035e-05
9.56133e-06
-1.54975e-05
9.62382e-06
-1.79567e-05
9.59276e-06
-2.03921e-05
9.5045e-06
-2.27956e-05
9.3739e-06
-2.51544e-05
9.20998e-06
-2.74605e-05
9.01261e-06
-2.97022e-05
8.78038e-06
-3.18696e-05
8.50847e-06
-3.39499e-05
8.19228e-06
-3.59302e-05
7.82604e-06
-3.77961e-05
7.40461e-06
-3.95323e-05
6.92265e-06
-4.11223e-05
6.37576e-06
-4.25495e-05
5.76012e-06
-4.37964e-05
5.07327e-06
-4.48458e-05
4.31415e-06
-4.56808e-05
3.48363e-06
-4.62856e-05
2.58469e-06
-4.66459e-05
1.62287e-06
-4.67498e-05
6.06303e-07
-4.6588e-05
-4.54041e-07
-4.61547e-05
-1.54446e-06
-4.54483e-05
-2.64864e-06
-4.44716e-05
-3.74809e-06
-4.32323e-05
-4.82256e-06
-4.17434e-05
-5.85084e-06
-4.00226e-05
-6.81155e-06
-3.80929e-05
-7.68408e-06
-3.59812e-05
-8.44962e-06
-3.37185e-05
-9.09206e-06
-3.13384e-05
-9.59892e-06
-2.88762e-05
-9.96199e-06
-2.63676e-05
-1.01778e-05
-2.38477e-05
-1.02478e-05
-2.13499e-05
-1.0178e-05
-1.89044e-05
-9.97854e-06
-1.65382e-05
-9.66309e-06
-1.4274e-05
-9.2471e-06
-1.21304e-05
-8.74701e-06
-1.0122e-05
-8.17818e-06
-8.26039e-06
-7.55387e-06
-6.55444e-06
-6.88306e-06
-5.01255e-06
-6.17023e-06
-3.64248e-06
-5.41361e-06
-2.45448e-06
-4.60747e-06
-1.4591e-06
-3.7423e-06
-6.70595e-07
-2.81235e-06
-9.94429e-08
-1.82048e-06
2.44744e-07
-7.95397e-07
3.71415e-07
1.93609e-07
3.07931e-07
1.00147e-06
1.36983e-07
1.37598e-06
9.14706e-07
-6.50241e-07
2.60739e-06
-2.10561e-06
6.32923e-06
-4.10469e-06
8.82681e-06
-6.39892e-06
1.04356e-05
-8.89036e-06
1.14031e-05
-1.14731e-05
1.19434e-05
-1.41103e-05
1.21977e-05
-1.67569e-05
1.22741e-05
-1.93985e-05
1.2235e-05
-2.20139e-05
1.21226e-05
-2.45945e-05
1.19557e-05
-2.71267e-05
1.17444e-05
-2.96017e-05
1.1489e-05
-3.20069e-05
1.11875e-05
-3.43311e-05
1.08342e-05
-3.65606e-05
1.04235e-05
-3.86814e-05
9.94833e-06
-4.06778e-05
9.40246e-06
-4.25333e-05
8.77947e-06
-4.42302e-05
8.07397e-06
-4.57505e-05
7.28144e-06
-4.70752e-05
6.39901e-06
-4.81858e-05
5.4256e-06
-4.90641e-05
4.36255e-06
-4.96928e-05
3.21387e-06
-5.00563e-05
1.98671e-06
-5.01415e-05
6.91541e-07
-4.9938e-05
-6.57631e-07
-4.94394e-05
-2.04337e-06
-4.86437e-05
-3.44495e-06
-4.75537e-05
-4.83885e-06
-4.61779e-05
-6.19937e-06
-4.45304e-05
-7.49954e-06
-4.26312e-05
-8.71215e-06
-4.05058e-05
-9.81101e-06
-3.8185e-05
-1.07722e-05
-3.57036e-05
-1.15753e-05
-3.31e-05
-1.22045e-05
-3.04141e-05
-1.26498e-05
-2.76869e-05
-1.29072e-05
-2.49578e-05
-1.29789e-05
-2.22645e-05
-1.28734e-05
-1.96407e-05
-1.26044e-05
-1.71157e-05
-1.21901e-05
-1.47138e-05
-1.16509e-05
-1.24542e-05
-1.10085e-05
-1.03509e-05
-1.02831e-05
-8.41424e-06
-9.49209e-06
-6.65111e-06
-8.64741e-06
-5.06748e-06
-7.75517e-06
-3.6684e-06
-6.81345e-06
-2.46146e-06
-5.81547e-06
-1.45467e-06
-4.74924e-06
-6.60216e-07
-3.60771e-06
-8.69024e-08
-2.39316e-06
2.56719e-07
-1.14004e-06
3.80847e-07
7.11499e-08
3.13535e-07
1.06706e-06
1.38747e-07
1.55357e-06
1.05257e-06
-6.94421e-07
3.29351e-06
-2.24618e-06
7.89452e-06
-4.37267e-06
1.09411e-05
-6.80752e-06
1.28772e-05
-9.446e-06
1.40349e-05
-1.21763e-05
1.46764e-05
-1.49609e-05
1.49783e-05
-1.77535e-05
1.50672e-05
-2.054e-05
1.50188e-05
-2.32988e-05
1.4881e-05
-2.60214e-05
1.46763e-05
-2.86935e-05
1.44157e-05
-3.13062e-05
1.41e-05
-3.38458e-05
1.37262e-05
-3.6301e-05
1.32879e-05
-3.86568e-05
1.27782e-05
-4.08986e-05
1.2189e-05
-4.30096e-05
1.15125e-05
-4.49725e-05
1.07412e-05
-4.67681e-05
9.86873e-06
-4.83771e-05
8.88962e-06
-4.97793e-05
7.80048e-06
-5.09543e-05
6.60005e-06
-5.18823e-05
5.29001e-06
-5.2544e-05
3.87525e-06
-5.2922e-05
2.3645e-06
-5.30011e-05
7.70547e-07
-5.27691e-05
-8.895e-07
-5.2218e-05
-2.59424e-06
-5.13444e-05
-4.31818e-06
-5.01504e-05
-6.03225e-06
-4.86445e-05
-7.70457e-06
-4.68416e-05
-9.30156e-06
-4.47636e-05
-1.07892e-05
-4.24387e-05
-1.21347e-05
-3.99018e-05
-1.33079e-05
-3.71925e-05
-1.42832e-05
-3.43547e-05
-1.50409e-05
-3.14347e-05
-1.55683e-05
-2.84795e-05
-1.58609e-05
-2.55346e-05
-1.59221e-05
-2.26431e-05
-1.57634e-05
-1.9843e-05
-1.54029e-05
-1.71671e-05
-1.48645e-05
-1.46415e-05
-1.4175e-05
-1.22861e-05
-1.33626e-05
-1.0114e-05
-1.24538e-05
-8.13376e-06
-1.14713e-05
-6.34941e-06
-1.04306e-05
-4.76355e-06
-9.34027e-06
-3.37744e-06
-8.19853e-06
-2.19503e-06
-6.99754e-06
-1.22075e-06
-5.72254e-06
-4.63963e-07
-4.36474e-06
6.91647e-08
-2.9252e-06
3.71773e-07
-1.44371e-06
4.56402e-07
-1.18741e-08
3.53145e-07
1.16799e-06
1.51251e-07
1.75801e-06
1.20231e-06
-7.28031e-07
4.01399e-06
-2.35479e-06
9.53692e-06
-4.58143e-06
1.31564e-05
-7.1278e-06
1.54326e-05
-9.88373e-06
1.67857e-05
-1.27326e-05
1.75301e-05
-1.56362e-05
1.78799e-05
-1.85471e-05
1.79811e-05
-2.1452e-05
1.79232e-05
-2.43288e-05
1.77598e-05
-2.71697e-05
1.75173e-05
-2.99601e-05
1.72075e-05
-3.26909e-05
1.68313e-05
-3.53484e-05
1.63849e-05
-3.79208e-05
1.58609e-05
-4.03925e-05
1.52509e-05
-4.27486e-05
1.45457e-05
-4.49712e-05
1.37359e-05
-4.7042e-05
1.28127e-05
-4.8941e-05
1.17683e-05
-5.06472e-05
1.05963e-05
-5.21386e-05
9.29245e-06
-5.33932e-05
7.85497e-06
-5.43884e-05
6.28557e-06
-5.51027e-05
4.58977e-06
-5.55157e-05
2.77763e-06
-5.56092e-05
8.64096e-07
-5.53682e-05
-1.1306e-06
-5.47817e-05
-3.18094e-06
-5.38439e-05
-5.25626e-06
-5.25552e-05
-7.32131e-06
-5.09232e-05
-9.33713e-06
-4.8963e-05
-1.12624e-05
-4.6698e-05
-1.30549e-05
-4.41599e-05
-1.46736e-05
-4.13876e-05
-1.6081e-05
-3.84271e-05
-1.72447e-05
-3.53291e-05
-1.81398e-05
-3.21477e-05
-1.87507e-05
-2.89379e-05
-1.90718e-05
-2.57533e-05
-1.91078e-05
-2.26436e-05
-1.88741e-05
-1.96531e-05
-1.83944e-05
-1.68188e-05
-1.76998e-05
-1.41692e-05
-1.68254e-05
-1.1725e-05
-1.58078e-05
-9.49821e-06
-1.46813e-05
-7.49486e-06
-1.34754e-05
-5.71515e-06
-1.22108e-05
-4.15721e-06
-1.0899e-05
-2.81733e-06
-9.53861e-06
-1.69476e-06
-8.12084e-06
-7.8937e-07
-6.62769e-06
-1.06977e-07
-5.048e-06
3.49744e-07
-3.38101e-06
5.76219e-07
-1.67151e-06
5.88922e-07
-2.26431e-08
4.21483e-07
1.33299e-06
1.72289e-07
2.0105e-06
1.37314e-06
-7.55461e-07
4.76076e-06
-2.44199e-06
1.12387e-05
-4.74833e-06
1.54499e-05
-7.38402e-06
1.80763e-05
-1.02347e-05
1.96298e-05
-1.31801e-05
2.04792e-05
-1.61816e-05
2.08777e-05
-1.91911e-05
2.09921e-05
-2.21959e-05
2.09257e-05
-2.5174e-05
2.07383e-05
-2.81182e-05
2.04601e-05
-3.1014e-05
2.01033e-05
-3.38528e-05
1.9669e-05
-3.66206e-05
1.91524e-05
-3.93057e-05
1.85451e-05
-4.18923e-05
1.78371e-05
-4.43648e-05
1.70175e-05
-4.6705e-05
1.60756e-05
-4.88937e-05
1.50008e-05
-5.09093e-05
1.37836e-05
-5.27296e-05
1.24162e-05
-5.43305e-05
1.0893e-05
-5.56873e-05
9.21149e-06
-5.67748e-05
7.37277e-06
-5.75677e-05
5.38255e-06
-5.8042e-05
3.2518e-06
-5.81753e-05
9.9733e-07
-5.79481e-05
-1.35765e-06
-5.73455e-05
-3.7834e-06
-5.63579e-05
-6.24366e-06
-5.49827e-05
-8.69626e-06
-5.32254e-05
-1.1094e-05
-5.1101e-05
-1.33863e-05
-4.86344e-05
-1.5521e-05
-4.58604e-05
-1.7447e-05
-4.28236e-05
-1.91171e-05
-3.9577e-05
-2.04906e-05
-3.61802e-05
-2.15359e-05
-3.26971e-05
-2.2233e-05
-2.91929e-05
-2.25751e-05
-2.57312e-05
-2.25687e-05
-2.23711e-05
-2.22335e-05
-1.91642e-05
-2.16005e-05
-1.61532e-05
-2.071e-05
-1.33701e-05
-1.96077e-05
-1.08363e-05
-1.8341e-05
-8.56245e-06
-1.69544e-05
-6.55108e-06
-1.54863e-05
-4.79737e-06
-1.39638e-05
-3.29357e-06
-1.24025e-05
-2.0295e-06
-1.08019e-05
-9.984e-07
-9.15199e-06
-1.94306e-07
-7.43088e-06
3.81335e-07
-5.62422e-06
7.30293e-07
-3.72867e-06
8.50923e-07
-1.79359e-06
7.64996e-07
6.54924e-08
5.1099e-07
1.58398e-06
1.99233e-07
2.32594e-06
1.57043e-06
-7.77383e-07
5.52982e-06
-2.51205e-06
1.29898e-05
-4.88291e-06
1.78083e-05
-7.59149e-06
2.07942e-05
-1.05204e-05
2.25527e-05
-1.35466e-05
2.35103e-05
-1.66313e-05
2.39597e-05
-1.9726e-05
2.40895e-05
-2.28188e-05
2.40173e-05
-2.5888e-05
2.38092e-05
-2.89274e-05
2.3499e-05
-3.19227e-05
2.30997e-05
-3.4866e-05
2.26122e-05
-3.77436e-05
2.20307e-05
-4.05438e-05
2.13454e-05
-4.32509e-05
2.05448e-05
-4.58493e-05
1.96162e-05
-4.832e-05
1.85468e-05
-5.0643e-05
1.7324e-05
-5.27957e-05
1.59366e-05
-5.47538e-05
1.43745e-05
-5.64909e-05
1.26304e-05
-5.79793e-05
1.07001e-05
-5.91901e-05
8.58369e-06
-6.00937e-05
6.28626e-06
-6.06609e-05
3.81907e-06
-6.08639e-05
1.20032e-06
-6.06775e-05
-1.54409e-06
-6.00808e-05
-4.38016e-06
-5.9059e-05
-7.2656e-06
-5.76051e-05
-1.01503e-05
-5.57218e-05
-1.29776e-05
-5.3423e-05
-1.56854e-05
-5.07348e-05
-1.82095e-05
-4.7696e-05
-2.04862e-05
-4.43576e-05
-2.2456e-05
-4.07813e-05
-2.40673e-05
-3.70372e-05
-2.52804e-05
-3.32011e-05
-2.60696e-05
-2.93509e-05
-2.64259e-05
-2.55625e-05
-2.63576e-05
-2.19067e-05
-2.58898e-05
-1.84449e-05
-2.50626e-05
-1.52275e-05
-2.39279e-05
-1.2291e-05
-2.25446e-05
-9.65821e-06
-2.09743e-05
-7.33823e-06
-1.92746e-05
-5.32918e-06
-1.74958e-05
-3.61965e-06
-1.56734e-05
-2.19415e-06
-1.38285e-05
-1.03403e-06
-1.19619e-05
-1.24748e-07
-1.00619e-05
5.47088e-07
-8.10215e-06
9.85524e-07
-6.06369e-06
1.19778e-06
-3.93964e-06
1.18576e-06
-1.7834e-06
9.7767e-07
2.7616e-07
6.17875e-07
1.94027e-06
2.30813e-07
2.71747e-06
1.79902e-06
-7.96037e-07
6.31689e-06
-2.57072e-06
1.47807e-05
-4.99516e-06
2.02194e-05
-7.7647e-06
2.35725e-05
-1.07598e-05
2.55411e-05
-1.38556e-05
2.66103e-05
-1.70132e-05
2.71138e-05
-2.01843e-05
2.72625e-05
-2.33578e-05
2.71888e-05
-2.65128e-05
2.6965e-05
-2.96438e-05
2.66288e-05
-3.27375e-05
2.61936e-05
-3.57865e-05
2.56604e-05
-3.87778e-05
2.5022e-05
-4.17003e-05
2.42673e-05
-4.45383e-05
2.33827e-05
-4.72763e-05
2.23538e-05
-4.9895e-05
2.11652e-05
-5.23735e-05
1.98022e-05
-5.46879e-05
1.82508e-05
-5.6812e-05
1.64983e-05
-5.87167e-05
1.45349e-05
-6.03708e-05
1.2354e-05
-6.17407e-05
9.95352e-06
-6.27916e-05
7.33712e-06
-6.34881e-05
4.51548e-06
-6.37952e-05
1.50742e-06
-6.36803e-05
-1.65892e-06
-6.31151e-05
-4.94527e-06
-6.20778e-05
-8.3028e-06
-6.05556e-05
-1.16724e-05
-5.85474e-05
-1.49855e-05
-5.60658e-05
-1.81668e-05
-5.31384e-05
-2.11366e-05
-4.98085e-05
-2.38158e-05
-4.61342e-05
-2.61299e-05
-4.21868e-05
-2.80144e-05
-3.80478e-05
-2.94189e-05
-3.3806e-05
-3.0311e-05
-2.95528e-05
-3.06785e-05
-2.53789e-05
-3.0531e-05
-2.13689e-05
-2.98994e-05
-1.75976e-05
-2.88334e-05
-1.41262e-05
-2.73989e-05
-1.09988e-05
-2.56715e-05
-8.24187e-06
-2.37309e-05
-5.86364e-06
-2.16523e-05
-3.85748e-06
-1.95018e-05
-2.20374e-06
-1.73266e-05
-8.76843e-07
-1.51554e-05
1.53107e-07
-1.29911e-05
9.11123e-07
-1.08203e-05
1.42036e-06
-8.61039e-06
1.69208e-06
-6.33638e-06
1.74026e-06
-3.98617e-06
1.57111e-06
-1.61631e-06
1.22015e-06
6.30134e-07
7.38386e-07
2.41788e-06
2.6582e-07
3.19523e-06
2.06212e-06
-8.11766e-07
7.11984e-06
-2.62029e-06
1.66063e-05
-5.09027e-06
2.26761e-05
-7.91213e-06
2.64039e-05
-1.09649e-05
2.85874e-05
-1.41224e-05
2.97726e-05
-1.73462e-05
3.03345e-05
-2.05882e-05
3.05071e-05
-2.38385e-05
3.04376e-05
-2.7077e-05
3.02049e-05
-3.02994e-05
2.98505e-05
-3.34933e-05
2.93884e-05
-3.66523e-05
2.88193e-05
-3.97644e-05
2.81346e-05
-4.28191e-05
2.73219e-05
-4.58014e-05
2.63654e-05
-4.86958e-05
2.52482e-05
-5.14829e-05
2.39526e-05
-5.41413e-05
2.24607e-05
-5.66457e-05
2.07553e-05
-5.89679e-05
1.88206e-05
-6.10757e-05
1.6643e-05
-6.2934e-05
1.42124e-05
-6.45041e-05
1.15237e-05
-6.57447e-05
8.57775e-06
-6.66127e-05
5.38352e-06
-6.70647e-05
1.95947e-06
-6.70591e-05
-1.66456e-06
-6.65583e-05
-5.44602e-06
-6.55326e-05
-9.3286e-06
-6.39628e-05
-1.32422e-05
-6.18442e-05
-1.71042e-05
-5.91889e-05
-2.08223e-05
-5.6027e-05
-2.42986e-05
-5.24069e-05
-2.74361e-05
-4.83933e-05
-3.01437e-05
-4.4065e-05
-3.23429e-05
-3.95119e-05
-3.39723e-05
-3.48319e-05
-3.49912e-05
-3.01279e-05
-3.53828e-05
-2.55042e-05
-3.51549e-05
-2.10621e-05
-3.43416e-05
-1.68947e-05
-3.3001e-05
-1.30811e-05
-3.12128e-05
-9.68086e-06
-2.90718e-05
-6.73091e-06
-2.66811e-05
-4.24335e-06
-2.41399e-05
-2.20869e-06
-2.15368e-05
-5.98293e-07
-1.89368e-05
6.26418e-07
-1.63806e-05
1.51066e-06
-1.3875e-05
2.09428e-06
-1.14047e-05
2.41419e-06
-8.92942e-06
2.49192e-06
-6.41545e-06
2.35042e-06
-3.8429e-06
2.00141e-06
-1.26979e-06
1.48876e-06
1.14624e-06
8.70639e-07
3.03114e-06
3.0373e-07
3.76821e-06
2.36269e-06
-8.25526e-07
7.93617e-06
-2.66325e-06
1.8461e-05
-5.17271e-06
2.51719e-05
-8.04041e-06
2.92809e-05
-1.11445e-05
3.16847e-05
-1.43581e-05
3.29908e-05
-1.76434e-05
3.36162e-05
-2.09529e-05
3.38189e-05
-2.42779e-05
3.37607e-05
-2.75995e-05
3.35275e-05
-3.09146e-05
3.31646e-05
-3.42122e-05
3.26864e-05
-3.74873e-05
3.20937e-05
-4.07287e-05
3.13762e-05
-4.39272e-05
3.05199e-05
-4.70685e-05
2.95067e-05
-5.01378e-05
2.83172e-05
-5.31157e-05
2.69304e-05
-5.59803e-05
2.53252e-05
-5.87054e-05
2.34803e-05
-6.12606e-05
2.13756e-05
-6.36108e-05
1.89931e-05
-6.57164e-05
1.63179e-05
-6.75329e-05
1.33401e-05
-6.90118e-05
1.00566e-05
-7.01013e-05
6.473e-06
-7.07483e-05
2.60649e-06
-7.0901e-05
-1.51178e-06
-7.05128e-05
-5.83419e-06
-6.95465e-05
-1.02949e-05
-6.79791e-05
-1.48095e-05
-6.58061e-05
-1.92771e-05
-6.3043e-05
-2.35852e-05
-5.97253e-05
-2.76162e-05
-5.59055e-05
-3.12557e-05
-5.16493e-05
-3.43997e-05
-4.70324e-05
-3.69597e-05
-4.21384e-05
-3.88661e-05
-3.70594e-05
-4.00701e-05
-3.18971e-05
-4.05449e-05
-2.67631e-05
-4.02888e-05
-2.17764e-05
-3.93282e-05
-1.70576e-05
-3.77195e-05
-1.27197e-05
-3.55505e-05
-8.85671e-06
-3.29345e-05
-5.53465e-06
-3.0003e-05
-2.78429e-06
-2.68898e-05
-6.02215e-07
-2.37188e-05
1.0467e-06
-2.05852e-05
2.21685e-06
-1.7551e-05
2.97517e-06
-1.46325e-05
3.38415e-06
-1.18143e-05
3.50214e-06
-9.04621e-06
3.36724e-06
-6.28196e-06
3.01595e-06
-3.4895e-06
2.46831e-06
-7.24955e-07
1.77824e-06
1.84028e-06
1.01197e-06
3.79184e-06
3.43754e-07
4.4434e-06
2.70277e-06
-8.37249e-07
8.76429e-06
-2.70013e-06
2.03413e-05
-5.24402e-06
2.77021e-05
-8.15234e-06
3.21988e-05
-1.13028e-05
3.48284e-05
-1.45681e-05
3.6261e-05
-1.79114e-05
3.69562e-05
-2.1286e-05
3.71961e-05
-2.46847e-05
3.71577e-05
-2.80897e-05
3.6934e-05
-3.14998e-05
3.65739e-05
-3.49053e-05
3.60927e-05
-3.83027e-05
3.54907e-05
-4.16825e-05
3.47565e-05
-4.50367e-05
3.3874e-05
-4.83524e-05
3.28227e-05
-5.16155e-05
3.15803e-05
-5.48074e-05
3.01225e-05
-5.79061e-05
2.84239e-05
-6.08845e-05
2.64588e-05
-6.37105e-05
2.42017e-05
-6.63461e-05
2.16288e-05
-6.87471e-05
1.8719e-05
-7.0863e-05
1.54562e-05
-7.26376e-05
1.18312e-05
-7.40099e-05
7.84535e-06
-7.49173e-05
3.51392e-06
-7.52994e-05
-1.12961e-06
-7.51042e-05
-6.02939e-06
-7.42944e-05
-1.11047e-05
-7.28536e-05
-1.62503e-05
-7.07892e-05
-2.13417e-05
-6.81301e-05
-2.62444e-05
-6.49204e-05
-3.08261e-05
-6.12095e-05
-3.4967e-05
-5.70439e-05
-3.85656e-05
-5.24648e-05
-4.15393e-05
-4.75115e-05
-4.382e-05
-4.22322e-05
-4.535e-05
-3.66967e-05
-4.60811e-05
-3.10061e-05
-4.59802e-05
-2.52966e-05
-4.50384e-05
-1.9733e-05
-4.32836e-05
-1.44936e-05
-4.07904e-05
-9.74751e-06
-3.76809e-05
-5.63239e-06
-3.41185e-05
-2.23458e-06
-3.02876e-05
4.17501e-07
-2.63713e-05
2.35337e-06
-2.25207e-05
3.64372e-06
-1.88419e-05
4.38677e-06
-1.5375e-05
4.68209e-06
-1.21106e-05
4.6246e-06
-8.98752e-06
4.28236e-06
-5.94147e-06
3.71558e-06
-2.92042e-06
2.95938e-06
2.79843e-08
2.08184e-06
2.72228e-06
1.15934e-06
4.70797e-06
3.85112e-07
5.22554e-06
3.08367e-06
-8.47126e-07
9.60204e-06
-2.73134e-06
2.22429e-05
-5.30499e-06
3.02617e-05
-8.24917e-06
3.51526e-05
-1.14415e-05
3.80137e-05
-1.47546e-05
3.95788e-05
-1.81528e-05
4.03508e-05
-2.15904e-05
4.0636e-05
-2.50616e-05
4.0627e-05
-2.85505e-05
4.0424e-05
-3.20575e-05
4.00798e-05
-3.55746e-05
3.96103e-05
-3.91003e-05
3.90158e-05
-4.26269e-05
3.82833e-05
-4.61483e-05
3.7395e-05
-4.96531e-05
3.63276e-05
-5.3129e-05
3.5056e-05
-5.65581e-05
3.35517e-05
-5.99193e-05
3.17849e-05
-6.3185e-05
2.97245e-05
-6.63221e-05
2.73387e-05
-6.92899e-05
2.45965e-05
-7.20402e-05
2.14692e-05
-7.45165e-05
1.79325e-05
-7.66556e-05
1.39702e-05
-7.83891e-05
9.57883e-06
-7.96487e-05
4.77355e-06
-8.03739e-05
-4.04446e-07
-8.05214e-05
-5.88183e-06
-8.00754e-05
-1.15507e-05
-7.90519e-05
-1.72738e-05
-7.74952e-05
-2.28984e-05
-7.54631e-05
-2.82767e-05
-7.30043e-05
-3.32852e-05
-7.01367e-05
-3.7835e-05
-6.6836e-05
-4.1867e-05
-6.30393e-05
-4.53369e-05
-5.86665e-05
-4.81938e-05
-5.36523e-05
-5.03653e-05
-4.79806e-05
-5.17543e-05
-4.17114e-05
-5.22506e-05
-3.49952e-05
-5.1756e-05
-2.8066e-05
-5.02141e-05
-2.12184e-05
-4.76391e-05
-1.4767e-05
-4.4133e-05
-9.00072e-06
-3.98856e-05
-4.13712e-06
-3.51513e-05
-2.96202e-07
-3.02127e-05
2.51043e-06
-2.5327e-05
4.35987e-06
-2.06919e-05
5.3928e-06
-1.6407e-05
5.76989e-06
-1.24887e-05
5.65117e-06
-8.86732e-06
5.1615e-06
-5.45372e-06
4.40627e-06
-2.16253e-06
3.45095e-06
9.79673e-07
2.38737e-06
3.79087e-06
1.30753e-06
5.78069e-06
4.2645e-07
6.1155e-06
3.50541e-06
-8.54752e-07
1.04475e-05
-2.75615e-06
2.41621e-05
-5.35466e-06
3.28462e-05
-8.32981e-06
3.81376e-05
-1.15594e-05
4.12365e-05
-1.49163e-05
4.29407e-05
-1.8366e-05
4.3797e-05
-2.18639e-05
4.41366e-05
-2.54062e-05
4.41676e-05
-2.89786e-05
4.39977e-05
-3.25833e-05
4.36837e-05
-3.62148e-05
4.32425e-05
-3.98735e-05
4.26741e-05
-4.35541e-05
4.19643e-05
-4.72527e-05
4.10934e-05
-5.09603e-05
4.00356e-05
-5.46667e-05
3.87622e-05
-5.83558e-05
3.72409e-05
-6.20077e-05
3.54369e-05
-6.55958e-05
3.33127e-05
-6.90863e-05
3.08294e-05
-7.24371e-05
2.79474e-05
-7.55969e-05
2.4629e-05
-7.85052e-05
2.08409e-05
-8.10946e-05
1.65597e-05
-8.3296e-05
1.17804e-05
-8.50488e-05
6.5264e-06
-8.63152e-05
8.62006e-07
-8.70968e-05
-5.10023e-06
-8.74449e-05
-1.12026e-05
-8.74566e-05
-1.72623e-05
-8.72482e-05
-2.3107e-05
-8.69123e-05
-2.86132e-05
-8.64677e-05
-3.37306e-05
-8.58263e-05
-3.84774e-05
-8.47875e-05
-4.2907e-05
-8.30678e-05
-4.70579e-05
-8.03567e-05
-5.09063e-05
-7.63843e-05
-5.43393e-05
-7.09844e-05
-5.71557e-05
-6.41415e-05
-5.90952e-05
-5.60143e-05
-5.98851e-05
-4.69318e-05
-5.92984e-05
-3.73627e-05
-5.72102e-05
-2.78565e-05
-5.36409e-05
-1.8968e-05
-4.8776e-05
-1.11713e-05
-4.2949e-05
-4.79289e-06
-3.65924e-05
3.06059e-08
-3.01505e-05
3.34144e-06
-2.40038e-05
5.32365e-06
-1.83885e-05
6.23053e-06
-1.3397e-05
6.33367e-06
-8.9689e-06
5.86314e-06
-4.98545e-06
5.01059e-06
-1.30708e-06
3.90277e-06
2.08337e-06
2.67561e-06
5.02353e-06
1.44898e-06
6.99941e-06
4.66018e-07
7.10822e-06
3.96619e-06
-8.59915e-07
1.12979e-05
-2.77381e-06
2.60936e-05
-5.39165e-06
3.54499e-05
-8.3923e-06
4.1148e-05
-1.16539e-05
4.4491e-05
-1.50498e-05
4.63415e-05
-1.85468e-05
4.72903e-05
-2.21016e-05
4.76938e-05
-2.57122e-05
4.77763e-05
-2.93663e-05
4.76529e-05
-3.30683e-05
4.73847e-05
-3.6815e-05
4.69897e-05
-4.06096e-05
4.64681e-05
-4.44493e-05
4.58043e-05
-4.83331e-05
4.49769e-05
-5.22551e-05
4.39576e-05
-5.62077e-05
4.27146e-05
-6.01779e-05
4.12111e-05
-6.41481e-05
3.9407e-05
-6.80935e-05
3.7258e-05
-7.19815e-05
3.47173e-05
-7.577e-05
3.17358e-05
-7.94071e-05
2.82661e-05
-8.28327e-05
2.42664e-05
-8.59843e-05
1.97112e-05
-8.88093e-05
1.46054e-05
-9.12863e-05
9.00337e-06
-9.34511e-05
3.02678e-06
-9.54189e-05
-3.1325e-06
-9.73847e-05
-9.23698e-06
-9.95868e-05
-1.50605e-05
-0.000102233
-2.04616e-05
-0.000105405
-2.54409e-05
-0.000108989
-3.01477e-05
-0.000112639
-3.48276e-05
-0.000115819
-3.97267e-05
-0.000117886
-4.49904e-05
-0.000118198
-5.0594e-05
-0.000116216
-5.63191e-05
-0.000111592
-6.1778e-05
-0.000104216
-6.64698e-05
-9.42443e-05
-6.98556e-05
-8.21009e-05
-7.14412e-05
-6.84503e-05
-7.08612e-05
-5.41364e-05
-6.79556e-05
-4.00888e-05
-6.28252e-05
-2.7193e-05
-5.5846e-05
-1.61606e-05
-4.76267e-05
-7.41739e-06
-3.88941e-05
-1.0691e-06
-3.03536e-05
3.06822e-06
-2.2525e-05
5.36034e-06
-1.56908e-05
6.25014e-06
-9.85685e-06
6.14742e-06
-4.88532e-06
5.39949e-06
-5.55842e-07
4.24988e-06
3.22845e-06
2.91695e-06
6.36251e-06
1.57273e-06
8.33507e-06
5.01468e-07
8.19012e-06
4.462e-06
-8.6198e-07
1.21505e-05
-2.78281e-06
2.80323e-05
-5.41354e-06
3.80665e-05
-8.43325e-06
4.41776e-05
-1.17207e-05
4.77715e-05
-1.51499e-05
4.97757e-05
-1.86887e-05
5.08257e-05
-2.22956e-05
5.13033e-05
-2.59703e-05
5.14493e-05
-2.97025e-05
5.13865e-05
-3.34993e-05
5.11807e-05
-3.73599e-05
5.08511e-05
-4.12906e-05
5.03984e-05
-4.52917e-05
4.98059e-05
-4.93659e-05
4.90509e-05
-5.35108e-05
4.81028e-05
-5.77227e-05
4.69265e-05
-6.19924e-05
4.5481e-05
-6.63063e-05
4.37209e-05
-7.0643e-05
4.15948e-05
-7.49731e-05
3.90474e-05
-7.92574e-05
3.60204e-05
-8.3449e-05
3.24577e-05
-8.74977e-05
2.83153e-05
-9.13658e-05
2.35795e-05
-9.50545e-05
1.82943e-05
-9.8644e-05
1.2593e-05
-0.000102333
6.71576e-06
-0.000106453
9.87864e-07
-0.000111429
-4.26084e-06
-0.000117668
-8.82181e-06
-0.000125403
-1.27265e-05
-0.000134554
-1.62905e-05
-0.000144654
-2.00464e-05
-0.000154895
-2.4584e-05
-0.000164252
-3.03657e-05
-0.000171652
-3.75849e-05
-0.000176128
-4.61117e-05
-0.000176922
-5.55177e-05
-0.000173546
-6.51476e-05
-0.000165804
-7.42045e-05
-0.000153818
-8.18348e-05
-0.000138038
-8.72161e-05
-0.000119243
-8.96513e-05
-9.85229e-05
-8.86732e-05
-7.71971e-05
-8.41502e-05
-5.66763e-05
-7.63668e-05
-3.82652e-05
-6.60394e-05
-2.29381e-05
-5.42218e-05
-1.11879e-05
-4.2106e-05
-2.98252e-06
-3.07298e-05
2.11467e-06
-2.07903e-05
4.76486e-06
-1.2505e-05
5.6519e-06
-5.77551e-06
5.38013e-06
-2.80389e-07
4.39807e-06
4.20542e-06
3.07081e-06
7.69631e-06
1.66515e-06
9.73146e-06
5.30422e-07
9.33617e-06
4.98637e-06
-8.60603e-07
1.30016e-05
-2.78194e-06
2.99714e-05
-5.41797e-06
4.06883e-05
-8.44915e-06
4.72185e-05
-1.1755e-05
5.10702e-05
-1.52103e-05
5.32358e-05
-1.87842e-05
5.43959e-05
-2.24366e-05
5.49581e-05
-2.61691e-05
5.51799e-05
-2.99738e-05
5.51923e-05
-3.38602e-05
5.50661e-05
-3.78307e-05
5.48221e-05
-4.18946e-05
5.44617e-05
-4.60562e-05
5.39677e-05
-5.03222e-05
5.33165e-05
-5.46946e-05
5.24753e-05
-5.91748e-05
5.14064e-05
-6.37588e-05
5.0065e-05
-6.84383e-05
4.84003e-05
-7.31977e-05
4.63542e-05
-7.80138e-05
4.38634e-05
-8.28559e-05
4.08624e-05
-8.76912e-05
3.72928e-05
-9.24996e-05
3.31236e-05
-9.73064e-05
2.83862e-05
-0.000102235
2.32224e-05
-0.000107568
1.79258e-05
-0.00011379