/*--------------------------------*- C++ -*----------------------------------*\
| =========                 |                                                 |
| \\      /  F ield         | OpenFOAM: The Open Source CFD Toolbox           |
|  \\    /   O peration     | Version:  2406                                  |
|   \\  /    A nd           | Website:  www.openfoam.com                      |
|    \\/     M anipulation  |                                                 |
\*---------------------------------------------------------------------------*/
FoamFile
{
    version     2.0;
    format      ascii;
    arch        "LSB;label=32;scalar=64";
    class       volVectorField;
    location    "29.1";
    object      Uold;
}
// * * * * * * * * * * * * * * * * * * * * * * * * * * * * * * * * * * * * * //

dimensions      [0 1 -1 0 0 0 0];

internalField   nonuniform List<vector> 
14400
(
(-1.32498e-05 1.31892e-05 0)
(5.54879e-06 -1.16134e-05 0)
(0.000100497 -3.68336e-05 0)
(0.000256081 -5.8305e-05 0)
(0.000462681 -7.04331e-05 0)
(0.000693152 -7.68973e-05 0)
(0.000937004 -7.71997e-05 0)
(0.00117473 -7.38423e-05 0)
(0.00139949 -6.71708e-05 0)
(0.00160037 -5.88629e-05 0)
(0.00177504 -4.95021e-05 0)
(0.00191973 -4.02103e-05 0)
(0.00203612 -3.14598e-05 0)
(0.00212533 -2.38614e-05 0)
(0.00219139 -1.7597e-05 0)
(0.00223769 -1.28225e-05 0)
(0.00226861 -9.4131e-06 0)
(0.00228747 -7.18565e-06 0)
(0.00229726 -5.79891e-06 0)
(0.00229959 -4.88739e-06 0)
(0.00229513 -4.03468e-06 0)
(0.00228312 -2.85728e-06 0)
(0.00226176 -1.00223e-06 0)
(0.00222817 1.80944e-06 0)
(0.00217871 5.79118e-06 0)
(0.00210909 1.10841e-05 0)
(0.00201464 1.77798e-05 0)
(0.00189037 2.59344e-05 0)
(0.00173112 3.5593e-05 0)
(0.00153158 4.68011e-05 0)
(0.00128627 5.96145e-05 0)
(0.000989593 7.40965e-05 0)
(0.00063581 9.03113e-05 0)
(0.000219106 0.000108312 0)
(-0.000266332 0.00012813 0)
(-0.000826196 0.000149759 0)
(-0.00146591 0.000173151 0)
(-0.00219044 0.000198204 0)
(-0.00300412 0.000224761 0)
(-0.00391042 0.000252602 0)
(-0.00491176 0.000281443 0)
(-0.00600929 0.000310938 0)
(-0.00720268 0.000340675 0)
(-0.00848993 0.000370187 0)
(-0.00986727 0.00039895 0)
(-0.0113289 0.000426396 0)
(-0.0128672 0.000451916 0)
(-0.0144722 0.000474879 0)
(-0.016132 0.000494632 0)
(-0.0178326 0.000510521 0)
(-0.0195582 0.000521892 0)
(-0.0212909 0.000528111 0)
(-0.0230114 0.000528566 0)
(-0.0246986 0.000522681 0)
(-0.0263305 0.000509927 0)
(-0.0278838 0.000489826 0)
(-0.0293347 0.000461973 0)
(-0.0306588 0.000426042 0)
(-0.0318318 0.000381808 0)
(-0.0328295 0.000329165 0)
(-0.0336286 0.000268152 0)
(-0.034207 0.000198973 0)
(-0.0345441 0.000122025 0)
(-0.0346215 3.79276e-05 0)
(-0.0344237 -5.24607e-05 0)
(-0.0339383 -0.000148018 0)
(-0.0331569 -0.000247352 0)
(-0.0320756 -0.000348795 0)
(-0.0306956 -0.00045042 0)
(-0.0290234 -0.00055007 0)
(-0.0270717 -0.0006454 0)
(-0.0248592 -0.000733946 0)
(-0.0224108 -0.00081321 0)
(-0.0197577 -0.000880758 0)
(-0.0169366 -0.000934334 0)
(-0.0139897 -0.000971981 0)
(-0.0109632 -0.00099216 0)
(-0.00790665 -0.000993859 0)
(-0.00487124 -0.000976683 0)
(-0.00190851 -0.000940913 0)
(0.000931401 -0.000887534 0)
(0.0036014 -0.000818212 0)
(0.0060591 -0.000735231 0)
(0.00826824 -0.000641389 0)
(0.0102 -0.000539852 0)
(0.0118336 -0.000433988 0)
(0.0131575 -0.000327185 0)
(0.0141686 -0.000222674 0)
(0.0148726 -0.000123369 0)
(0.0152832 -3.17363e-05 0)
(0.0154208 5.02934e-05 0)
(0.0153115 0.000121373 0)
(0.0149854 0.000180745 0)
(0.0144755 0.0002282 0)
(0.0138156 0.000264022 0)
(0.0130394 0.000288894 0)
(0.0121794 0.000303814 0)
(0.0112653 0.000309979 0)
(0.0103238 0.000308719 0)
(0.00937816 0.000301383 0)
(0.00844761 0.000289309 0)
(0.00754767 0.000273725 0)
(0.00668996 0.000255772 0)
(0.005883 0.000236404 0)
(0.00513183 0.000216491 0)
(0.00443941 0.000196677 0)
(0.00380573 0.000177586 0)
(0.00322995 0.000159568 0)
(0.00270845 0.000143073 0)
(0.00223844 0.000128126 0)
(0.0018142 0.000115023 0)
(0.00143324 0.000103259 0)
(0.00108968 9.2895e-05 0)
(0.000784736 8.24396e-05 0)
(0.000515444 7.16718e-05 0)
(0.000290824 5.75188e-05 0)
(0.000114101 4.03387e-05 0)
(1.85862e-06 1.62081e-05 0)
(-4.12962e-05 -6.92358e-06 0)
(-2.22429e-05 -2.18281e-05 0)
(1.07974e-05 -5.10212e-06 0)
(0.00013496 -0.00013695 0)
(0.000414271 -0.000264068 0)
(0.000810388 -0.000372371 0)
(0.00131009 -0.000440969 0)
(0.00186201 -0.000478384 0)
(0.00244224 -0.00048368 0)
(0.00301078 -0.000465657 0)
(0.00354888 -0.000428059 0)
(0.00403267 -0.000378342 0)
(0.00445333 -0.000321112 0)
(0.00480168 -0.000261975 0)
(0.00507833 -0.000204485 0)
(0.00528453 -0.000151899 0)
(0.00542684 -0.000105819 0)
(0.00551152 -6.71019e-05 0)
(0.00554644 -3.53457e-05 0)
(0.00553774 -9.46635e-06 0)
(0.00549049 1.23938e-05 0)
(0.00540694 3.24403e-05 0)
(0.00528687 5.31295e-05 0)
(0.00512696 7.68534e-05 0)
(0.00492126 0.000105821 0)
(0.00466121 0.000141883 0)
(0.0043363 0.000186505 0)
(0.00393436 0.000240751 0)
(0.00344212 0.000305355 0)
(0.00284551 0.000380807 0)
(0.00212997 0.000467444 0)
(0.00128065 0.000565519 0)
(0.000282614 0.000675228 0)
(-0.000879063 0.0007967 0)
(-0.00221903 0.000929951 0)
(-0.00375139 0.00107482 0)
(-0.00548936 0.00123088 0)
(-0.00744483 0.00139743 0)
(-0.00962783 0.00157335 0)
(-0.012046 0.00175715 0)
(-0.0147042 0.0019469 0)
(-0.0176036 0.00214027 0)
(-0.0207417 0.00233448 0)
(-0.0241112 0.0025264 0)
(-0.0277004 0.00271253 0)
(-0.0314925 0.00288914 0)
(-0.0354656 0.00305225 0)
(-0.0395926 0.00319782 0)
(-0.0438416 0.00332175 0)
(-0.0481763 0.00342002 0)
(-0.0525558 0.00348881 0)
(-0.0569359 0.0035245 0)
(-0.0612693 0.00352385 0)
(-0.0655066 0.00348398 0)
(-0.0695965 0.00340247 0)
(-0.0734872 0.00327742 0)
(-0.0771269 0.00310747 0)
(-0.0804644 0.00289182 0)
(-0.0834498 0.00263028 0)
(-0.0860358 0.00232334 0)
(-0.0881775 0.00197212 0)
(-0.0898337 0.00157848 0)
(-0.0909671 0.00114501 0)
(-0.0915452 0.000675113 0)
(-0.0915408 0.000173021 0)
(-0.0909327 -0.000356169 0)
(-0.0897058 -0.000906459 0)
(-0.0878526 -0.00147094 0)
(-0.0853726 -0.00204182 0)
(-0.0822739 -0.00261044 0)
(-0.0785729 -0.0031674 0)
(-0.0742951 -0.00370267 0)
(-0.0694749 -0.00420577 0)
(-0.0641563 -0.00466605 0)
(-0.0583923 -0.00507294 0)
(-0.0522446 -0.00541634 0)
(-0.0457835 -0.00568697 0)
(-0.0390864 -0.0058768 0)
(-0.0322371 -0.00597945 0)
(-0.0253244 -0.00599059 0)
(-0.0184398 -0.00590825 0)
(-0.0116762 -0.00573311 0)
(-0.00512543 -0.00546859 0)
(0.0011242 -0.00512092 0)
(0.00699001 -0.00469902 0)
(0.0123973 -0.00421417 0)
(0.0172816 -0.00367964 0)
(0.0215904 -0.00311016 0)
(0.0252848 -0.0025213 0)
(0.0283402 -0.00192876 0)
(0.0307476 -0.00134775 0)
(0.0325126 -0.00079229 0)
(0.0336557 -0.000274687 0)
(0.0342104 0.000194929 0)
(0.0342221 0.000608911 0)
(0.0337456 0.000962237 0)
(0.0328428 0.00125252 0)
(0.0315802 0.00147984 0)
(0.0300261 0.00164649 0)
(0.0282481 0.0017566 0)
(0.026311 0.0018157 0)
(0.0242747 0.00183027 0)
(0.0221927 0.00180737 0)
(0.0201116 0.00175411 0)
(0.0180697 0.0016775 0)
(0.0160981 0.00158398 0)
(0.0142196 0.00147951 0)
(0.0124508 0.00136915 0)
(0.0108007 0.00125742 0)
(0.00927474 0.00114769 0)
(0.00787151 0.00104299 0)
(0.00658925 0.000944701 0)
(0.00542027 0.000854165 0)
(0.00436139 0.00076988 0)
(0.00340377 0.000691019 0)
(0.00255034 0.000611728 0)
(0.00179719 0.000529269 0)
(0.00116099 0.000432657 0)
(0.000645677 0.000322426 0)
(0.000279859 0.000187945 0)
(6.13512e-05 5.86376e-05 0)
(-6.98031e-06 -4.1193e-05 0)
(3.44062e-05 -9.69915e-05 0)
(0.000256943 -0.000414719 0)
(0.000699445 -0.000708528 0)
(0.00128896 -0.000952169 0)
(0.00201123 -0.00111232 0)
(0.0027965 -0.00119804 0)
(0.00361412 -0.00121007 0)
(0.00441085 -0.00116408 0)
(0.00516061 -0.0010706 0)
(0.00583083 -0.000945259 0)
(0.00640781 -0.000800029 0)
(0.00687795 -0.000647454 0)
(0.00723993 -0.000496657 0)
(0.00749377 -0.000355162 0)
(0.00764606 -0.000227214 0)
(0.00770337 -0.000114793 0)
(0.00767405 -1.71397e-05 0)
(0.00756424 6.84375e-05 0)
(0.0073784 0.0001464 0)
(0.0071171 0.000222231 0)
(0.00677733 0.000301994 0)
(0.00635173 0.000391705 0)
(0.00582915 0.000496928 0)
(0.00519478 0.000622408 0)
(0.00443095 0.000771929 0)
(0.00351766 0.000948286 0)
(0.0024334 0.0011534 0)
(0.00115561 0.00138851 0)
(-0.000338713 0.00165432 0)
(-0.0020726 0.00195118 0)
(-0.00406868 0.00227906 0)
(-0.00634867 0.00263756 0)
(-0.00893288 0.00302576 0)
(-0.0118395 0.00344204 0)
(-0.015084 0.00388397 0)
(-0.0186781 0.0043481 0)
(-0.022629 0.00482993 0)
(-0.0269385 0.00532382 0)
(-0.0316023 0.00582302 0)
(-0.0366091 0.00631972 0)
(-0.0419403 0.00680519 0)
(-0.0475698 0.00726994 0)
(-0.0534636 0.00770394 0)
(-0.0595801 0.00809687 0)
(-0.065871 0.0084384 0)
(-0.0722814 0.00871845 0)
(-0.0787511 0.00892751 0)
(-0.0852158 0.00905686 0)
(-0.0916082 0.00909881 0)
(-0.097859 0.00904689 0)
(-0.103899 0.00889596 0)
(-0.109659 0.00864229 0)
(-0.115072 0.00828365 0)
(-0.120074 0.00781924 0)
(-0.124604 0.0072497 0)
(-0.128607 0.00657708 0)
(-0.132031 0.00580477 0)
(-0.13483 0.00493745 0)
(-0.136964 0.00398106 0)
(-0.138397 0.00294281 0)
(-0.139102 0.00183113 0)
(-0.139056 0.000655696 0)
(-0.138243 -0.000572508 0)
(-0.136654 -0.00184121 0)
(-0.134286 -0.00313681 0)
(-0.131145 -0.00444439 0)
(-0.127241 -0.00574773 0)
(-0.122596 -0.00702939 0)
(-0.117235 -0.00827088 0)
(-0.111195 -0.00945283 0)
(-0.104519 -0.0105553 0)
(-0.0972612 -0.0115582 0)
(-0.0894809 -0.0124418 0)
(-0.0812478 -0.0131871 0)
(-0.072639 -0.0137766 0)
(-0.0637392 -0.0141952 0)
(-0.0546394 -0.0144303 0)
(-0.0454361 -0.0144733 0)
(-0.0362298 -0.0143194 0)
(-0.0271237 -0.0139687 0)
(-0.018221 -0.013426 0)
(-0.00962382 -0.0127017 0)
(-0.00143011 -0.0118109 0)
(0.00626802 -0.0107737 0)
(0.0133868 -0.00961442 0)
(0.0198529 -0.00836076 0)
(0.0256053 -0.00704296 0)
(0.030597 -0.00569267 0)
(0.0347962 -0.00434177 0)
(0.0381874 -0.00302114 0)
(0.0407716 -0.00175952 0)
(0.0425662 -0.000582454 0)
(0.0436045 0.000488631 0)
(0.0439341 0.00143708 0)
(0.0436153 0.00225145 0)
(0.0427186 0.00292566 0)
(0.0413224 0.00345888 0)
(0.0395094 0.00385507 0)
(0.037364 0.00412242 0)
(0.034969 0.00427242 0)
(0.0324032 0.0043191 0)
(0.0297388 0.00427789 0)
(0.0270397 0.00416493 0)
(0.0243609 0.00399606 0)
(0.0217467 0.00378647 0)
(0.0192328 0.00354984 0)
(0.0168437 0.00329854 0)
(0.0145974 0.00304259 0)
(0.0125019 0.00279056 0)
(0.0105627 0.00254765 0)
(0.00877628 0.00231762 0)
(0.0071435 0.00209893 0)
(0.00565654 0.00188926 0)
(0.00432191 0.00167792 0)
(0.00313502 0.00145732 0)
(0.00211858 0.00120817 0)
(0.00127338 0.000928797 0)
(0.000640723 0.000604817 0)
(0.000210417 0.000283901 0)
(2.0372e-05 7.86312e-06 0)
(5.44134e-05 -0.000245984 0)
(0.000362229 -0.000806177 0)
(0.00094078 -0.00129734 0)
(0.00168113 -0.00169004 0)
(0.00256751 -0.00194783 0)
(0.00351453 -0.00208046 0)
(0.0044889 -0.00209199 0)
(0.00542816 -0.00200483 0)
(0.0063026 -0.00183722 0)
(0.00707372 -0.00161356 0)
(0.00772478 -0.00135414 0)
(0.0082386 -0.00107921 0)
(0.00861185 -0.000804172 0)
(0.00884242 -0.000541319 0)
(0.00893548 -0.000297821 0)
(0.00889587 -7.67982e-05 0)
(0.00873018 0.000123102 0)
(0.00844218 0.000306654 0)
(0.00803336 0.000481594 0)
(0.00750041 0.000657479 0)
(0.00683565 0.000844851 0)
(0.00602609 0.00105419 0)
(0.00505419 0.0012952 0)
(0.0038981 0.00157616 0)
(0.00253266 0.00190363 0)
(0.000930136 0.00228244 0)
(-0.000938729 0.00271577 0)
(-0.00310395 0.00320543 0)
(-0.0055954 0.00375208 0)
(-0.00844209 0.00435543 0)
(-0.0116713 0.00501415 0)
(-0.0153075 0.00572586 0)
(-0.0193718 0.00648681 0)
(-0.0238803 0.00729165 0)
(-0.0288431 0.00813319 0)
(-0.0342632 0.00900226 0)
(-0.0401355 0.0098876 0)
(-0.0464453 0.010776 0)
(-0.0531684 0.0116524 0)
(-0.0602702 0.0125002 0)
(-0.0677061 0.0133018 0)
(-0.0754216 0.014039 0)
(-0.0833537 0.0146934 0)
(-0.0914318 0.0152475 0)
(-0.0995794 0.0156846 0)
(-0.107716 0.0159897 0)
(-0.115759 0.0161499 0)
(-0.123625 0.0161547 0)
(-0.131234 0.0159962 0)
(-0.138507 0.0156692 0)
(-0.14537 0.0151712 0)
(-0.151756 0.0145021 0)
(-0.157602 0.0136644 0)
(-0.162851 0.0126626 0)
(-0.167456 0.011503 0)
(-0.171374 0.0101937 0)
(-0.174569 0.00874428 0)
(-0.17701 0.00716551 0)
(-0.178674 0.00546943 0)
(-0.179542 0.00366921 0)
(-0.1796 0.00177915 0)
(-0.178841 -0.000185265 0)
(-0.177261 -0.00220733 0)
(-0.174861 -0.00426901 0)
(-0.171646 -0.00635084 0)
(-0.167629 -0.00843191 0)
(-0.162826 -0.0104898 0)
(-0.157258 -0.0125006 0)
(-0.150953 -0.014439 0)
(-0.143946 -0.0162787 0)
(-0.136278 -0.0179923 0)
(-0.127998 -0.0195523 0)
(-0.11916 -0.0209313 0)
(-0.109829 -0.0221027 0)
(-0.100076 -0.0230419 0)
(-0.0899805 -0.0237266 0)
(-0.0796277 -0.0241384 0)
(-0.0691102 -0.0242633 0)
(-0.0585255 -0.0240927 0)
(-0.0479753 -0.0236244 0)
(-0.0375633 -0.0228626 0)
(-0.0273937 -0.021819 0)
(-0.0175694 -0.0205123 0)
(-0.00818926 -0.0189679 0)
(0.000653325 -0.0172179 0)
(0.00887299 -0.0152996 0)
(0.0163941 -0.0132547 0)
(0.0231526 -0.0111279 0)
(0.0290974 -0.00896547 0)
(0.0341919 -0.00681376 0)
(0.0384145 -0.00471748 0)
(0.0417596 -0.00271834 0)
(0.0442378 -0.000853601 0)
(0.0458756 0.000845122 0)
(0.0467149 0.00235288 0)
(0.0468114 0.00365209 0)
(0.0462335 0.0047329 0)
(0.0450592 0.00559313 0)
(0.043374 0.00623798 0)
(0.0412674 0.00667909 0)
(0.0388297 0.00693361 0)
(0.0361491 0.00702273 0)
(0.033308 0.00697043 0)
(0.0303821 0.00680187 0)
(0.0274367 0.00654241 0)
(0.0245278 0.00621609 0)
(0.0216991 0.00584533 0)
(0.0189858 0.00544935 0)
(0.0164103 0.00504469 0)
(0.0139908 0.00464282 0)
(0.0117332 0.00425191 0)
(0.00964703 0.00387229 0)
(0.00772895 0.0035014 0)
(0.00599184 0.00312523 0)
(0.00443109 0.00273178 0)
(0.00307623 0.00229483 0)
(0.00192333 0.00180846 0)
(0.00102878 0.00125368 0)
(0.000376238 0.000682681 0)
(5.15015e-05 0.000141322 0)
(6.65262e-05 -0.000445351 0)
(0.000435882 -0.00130499 0)
(0.00111789 -0.00202622 0)
(0.00197128 -0.00258259 0)
(0.00297612 -0.00294182 0)
(0.00403164 -0.00311561 0)
(0.00510213 -0.00311398 0)
(0.00611755 -0.00296661 0)
(0.00704625 -0.00270096 0)
(0.00784557 -0.00235092 0)
(0.00849715 -0.00194611 0)
(0.00898121 -0.00151507 0)
(0.00929277 -0.00108005 0)
(0.0094275 -0.000658268 0)
(0.00938838 -0.00025985 0)
(0.00917741 0.000111258 0)
(0.00879786 0.000457504 0)
(0.00824937 0.000786479 0)
(0.00752851 0.00111004 0)
(0.00662625 0.00144276 0)
(0.00552843 0.00180055 0)
(0.00421495 0.00219916 0)
(0.00266075 0.00265306 0)
(0.000836271 0.00317446 0)
(-0.00129128 0.0037729 0)
(-0.00375686 0.00445507 0)
(-0.00659626 0.005225 0)
(-0.009845 0.0060843 0)
(-0.013537 0.00703245 0)
(-0.0177033 0.0080669 0)
(-0.0223708 0.00918297 0)
(-0.0275607 0.0103737 0)
(-0.0332873 0.0116293 0)
(-0.0395557 0.0129373 0)
(-0.0463614 0.0142818 0)
(-0.053688 0.0156439 0)
(-0.0615071 0.0170015 0)
(-0.0697776 0.01833 0)
(-0.0784459 0.019603 0)
(-0.0874467 0.0207928 0)
(-0.0967044 0.0218714 0)
(-0.106135 0.0228118 0)
(-0.115648 0.0235884 0)
(-0.125151 0.0241785 0)
(-0.134549 0.0245629 0)
(-0.143749 0.024726 0)
(-0.152664 0.0246565 0)
(-0.16121 0.0243476 0)
(-0.169313 0.0237965 0)
(-0.176904 0.0230043 0)
(-0.183925 0.0219754 0)
(-0.190325 0.0207172 0)
(-0.196062 0.0192396 0)
(-0.201099 0.0175544 0)
(-0.205408 0.0156748 0)
(-0.208967 0.0136151 0)
(-0.211757 0.0113908 0)
(-0.213765 0.00901772 0)
(-0.21498 0.00651271 0)
(-0.215396 0.00389316 0)
(-0.215008 0.00117729 0)
(-0.213814 -0.0016157 0)
(-0.211816 -0.00446547 0)
(-0.209015 -0.00735029 0)
(-0.205417 -0.0102468 0)
(-0.201031 -0.01313 0)
(-0.195868 -0.0159729 0)
(-0.189944 -0.0187464 0)
(-0.183279 -0.0214196 0)
(-0.175898 -0.02396 0)
(-0.167833 -0.0263334 0)
(-0.159123 -0.0285048 0)
(-0.149813 -0.0304392 0)
(-0.139956 -0.0321019 0)
(-0.129616 -0.03346 0)
(-0.118861 -0.0344835 0)
(-0.107771 -0.0351464 0)
(-0.0964329 -0.0354282 0)
(-0.0849392 -0.0353147 0)
(-0.0733894 -0.0347997 0)
(-0.0618866 -0.0338854 0)
(-0.0505364 -0.0325829 0)
(-0.0394446 -0.0309128 0)
(-0.0287152 -0.0289046 0)
(-0.0184477 -0.0265964 0)
(-0.00873583 -0.0240338 0)
(0.000335207 -0.0212683 0)
(0.00868982 -0.0183562 0)
(0.0162637 -0.0153569 0)
(0.023005 -0.0123305 0)
(0.0288752 -0.00933669 0)
(0.0338495 -0.00643266 0)
(0.0379182 -0.00367142 0)
(0.041086 -0.0011003 0)
(0.0433729 0.00124049 0)
(0.0448136 0.00331903 0)
(0.0454571 0.00511265 0)
(0.0453653 0.00660842 0)
(0.0446114 0.00780337 0)
(0.0432779 0.00870403 0)
(0.0414531 0.0093257 0)
(0.0392288 0.00969101 0)
(0.0366957 0.00982848 0)
(0.0339421 0.00977042 0)
(0.0310487 0.00955136 0)
(0.0280891 0.00920582 0)
(0.0251251 0.00876728 0)
(0.0222099 0.00826583 0)
(0.0193826 0.00772809 0)
(0.0166773 0.00717411 0)
(0.0141123 0.00661868 0)
(0.0117094 0.00606631 0)
(0.00947285 0.00551584 0)
(0.0074245 0.00495195 0)
(0.00556186 0.0043586 0)
(0.00392343 0.00370397 0)
(0.00250288 0.00297496 0)
(0.00137494 0.00214641 0)
(0.000521196 0.0012617 0)
(7.70553e-05 0.000358903 0)
(7.52118e-05 -0.000673148 0)
(0.000489925 -0.0018704 0)
(0.0012467 -0.00283929 0)
(0.00217843 -0.00356066 0)
(0.00325917 -0.00401248 0)
(0.00437443 -0.00421158 0)
(0.00548579 -0.0041768 0)
(0.00651699 -0.00394626 0)
(0.00743536 -0.00355771 0)
(0.00819542 -0.00305481 0)
(0.00877815 -0.00247675 0)
(0.00916194 -0.00186013 0)
(0.00934053 -0.00123375 0)
(0.00930717 -0.000619232 0)
(0.0090621 -2.8968e-05 0)
(0.00860342 0.000533034 0)
(0.00792971 0.00107115 0)
(0.0070348 0.00159664 0)
(0.00590864 0.00212629 0)
(0.00453471 0.00268034 0)
(0.00289083 0.00328058 0)
(0.000948603 0.00394829 0)
(-0.00132522 0.00470268 0)
(-0.00396799 0.00555957 0)
(-0.00701939 0.0065308 0)
(-0.0105201 0.00762396 0)
(-0.01451 0.00884254 0)
(-0.0190263 0.0101862 0)
(-0.0241024 0.0116508 0)
(-0.0297654 0.0132289 0)
(-0.0360345 0.0149091 0)
(-0.042919 0.0166757 0)
(-0.0504166 0.0185091 0)
(-0.0585115 0.0203848 0)
(-0.0671735 0.0222741 0)
(-0.0763572 0.0241442 0)
(-0.0860023 0.0259594 0)
(-0.0960349 0.0276818 0)
(-0.106369 0.0292727 0)
(-0.116908 0.0306943 0)
(-0.127551 0.0319113 0)
(-0.138194 0.0328918 0)
(-0.148732 0.0336088 0)
(-0.159064 0.0340412 0)
(-0.169099 0.0341736 0)
(-0.178749 0.0339971 0)
(-0.187941 0.0335085 0)
(-0.19661 0.03271 0)
(-0.204701 0.0316084 0)
(-0.212171 0.0302141 0)
(-0.218983 0.0285407 0)
(-0.225111 0.0266037 0)
(-0.230533 0.0244202 0)
(-0.235234 0.0220081 0)
(-0.239204 0.0193857 0)
(-0.242432 0.0165715 0)
(-0.244914 0.013584 0)
(-0.246645 0.0104417 0)
(-0.24762 0.00716322 0)
(-0.247838 0.00376745 0)
(-0.247294 0.000273825 0)
(-0.245987 -0.00329733 0)
(-0.243914 -0.00692447 0)
(-0.241073 -0.0105845 0)
(-0.237465 -0.0142522 0)
(-0.23309 -0.0179004 0)
(-0.22795 -0.0214991 0)
(-0.222054 -0.0250158 0)
(-0.215409 -0.0284152 0)
(-0.20803 -0.0316595 0)
(-0.199937 -0.0347084 0)
(-0.191156 -0.0375201 0)
(-0.181722 -0.0400517 0)
(-0.171676 -0.0422603 0)
(-0.161069 -0.0441042 0)
(-0.149964 -0.0455444 0)
(-0.138429 -0.0465462 0)
(-0.126546 -0.0470808 0)
(-0.114403 -0.0471266 0)
(-0.102098 -0.0466714 0)
(-0.0897336 -0.0457129 0)
(-0.0774181 -0.0442602 0)
(-0.0652615 -0.0423335 0)
(-0.0533735 -0.0399646 0)
(-0.0418609 -0.037196 0)
(-0.0308254 -0.0340797 0)
(-0.0203612 -0.0306757 0)
(-0.0105531 -0.0270502 0)
(-0.00147524 -0.0232737 0)
(0.00680991 -0.0194184 0)
(0.0142523 -0.0155568 0)
(0.0208145 -0.0117593 0)
(0.0264721 -0.00809257 0)
(0.0312139 -0.00461803 0)
(0.0350416 -0.00139012 0)
(0.0379708 0.001545 0)
(0.0400304 0.00415072 0)
(0.0412626 0.00640102 0)
(0.0417226 0.00828118 0)
(0.0414774 0.00978803 0)
(0.0406037 0.0109297 0)
(0.039186 0.0117249 0)
(0.0373133 0.0122013 0)
(0.0350767 0.0123938 0)
(0.0325644 0.0123423 0)
(0.0298613 0.0120893 0)
(0.0270428 0.0116779 0)
(0.0241783 0.0111487 0)
(0.0213226 0.0105389 0)
(0.0185262 0.00987852 0)
(0.0158218 0.00919055 0)
(0.0132452 0.008486 0)
(0.0108108 0.00776704 0)
(0.00855168 0.00701952 0)
(0.00647018 0.00622438 0)
(0.00461557 0.00534556 0)
(0.00298212 0.00435997 0)
(0.00166334 0.00323334 0)
(0.000642299 0.00198799 0)
(9.81618e-05 0.000643713 0)
(8.04267e-05 -0.000925931 0)
(0.000525202 -0.00249201 0)
(0.00133103 -0.00372243 0)
(0.00230996 -0.00460827 0)
(0.00342901 -0.00514124 0)
(0.00456129 -0.00534618 0)
(0.00566499 -0.00525354 0)
(0.00665849 -0.00491155 0)
(0.00750833 -0.00436971 0)
(0.0081672 -0.00368203 0)
(0.00861598 -0.00289767 0)
(0.00883189 -0.00206108 0)
(0.00880754 -0.00120715 0)
(0.00853376 -0.00036109 0)
(0.0080075 0.000463372 0)
(0.0072221 0.00126329 0)
(0.00617026 0.00204609 0)
(0.0048386 0.00282777 0)
(0.00320896 0.00363092 0)
(0.00125599 0.00448214 0)
(-0.00105152 0.00540936 0)
(-0.00375079 0.00643929 0)
(-0.00688312 0.00759528 0)
(-0.0104926 0.00889576 0)
(-0.0146238 0.0103534 0)
(-0.01932 0.0119746 0)
(-0.0246206 0.01376 0)
(-0.0305594 0.0157042 0)
(-0.0371616 0.017796 0)
(-0.0444423 0.0200188 0)
(-0.0524036 0.0223497 0)
(-0.0610326 0.0247602 0)
(-0.0703003 0.0272153 0)
(-0.0801599 0.0296747 0)
(-0.0905477 0.0320935 0)
(-0.101384 0.0344231 0)
(-0.112573 0.0366135 0)
(-0.124012 0.0386152 0)
(-0.135587 0.040381 0)
(-0.147184 0.0418686 0)
(-0.158691 0.0430417 0)
(-0.169999 0.0438715 0)
(-0.181011 0.0443374 0)
(-0.191638 0.044427 0)
(-0.201807 0.0441358 0)
(-0.211454 0.0434664 0)
(-0.220529 0.0424271 0)
(-0.228995 0.0410313 0)
(-0.236823 0.0392958 0)
(-0.243992 0.03724 0)
(-0.250488 0.0348845 0)
(-0.256302 0.0322507 0)
(-0.261429 0.0293601 0)
(-0.265866 0.0262337 0)
(-0.269611 0.0228917 0)
(-0.272661 0.019354 0)
(-0.275016 0.0156395 0)
(-0.276673 0.0117668 0)
(-0.277628 0.0077541 0)
(-0.277878 0.00361996 0)
(-0.277416 -0.000616627 0)
(-0.276238 -0.00493565 0)
(-0.274335 -0.00931562 0)
(-0.271701 -0.0137331 0)
(-0.268329 -0.0181622 0)
(-0.264211 -0.0225741 0)
(-0.259342 -0.026937 0)
(-0.253717 -0.0312153 0)
(-0.247337 -0.0353698 0)
(-0.240203 -0.039358 0)
(-0.232323 -0.0431336 0)
(-0.22371 -0.0466478 0)
(-0.214385 -0.0498497 0)
(-0.204377 -0.0526872 0)
(-0.193724 -0.0551089 0)
(-0.182476 -0.0570653 0)
(-0.170693 -0.0585111 0)
(-0.158448 -0.0594069 0)
(-0.145823 -0.0597217 0)
(-0.132914 -0.0594344 0)
(-0.119823 -0.0585362 0)
(-0.106662 -0.0570314 0)
(-0.0935475 -0.0549383 0)
(-0.0805975 -0.0522894 0)
(-0.0679294 -0.0491308 0)
(-0.0556564 -0.0455207 0)
(-0.0438845 -0.0415279 0)
(-0.0327103 -0.0372288 0)
(-0.0222188 -0.0327055 0)
(-0.0124823 -0.0280428 0)
(-0.00355997 -0.0233259 0)
(0.00450217 -0.0186379 0)
(0.011671 -0.0140581 0)
(0.0179256 -0.00966047 0)
(0.0232571 -0.00551186 0)
(0.0276682 -0.00167102 0)
(0.031173 0.00181278 0)
(0.0337978 0.0049008 0)
(0.0355805 0.00756596 0)
(0.036571 0.00979354 0)
(0.0368303 0.0115816 0)
(0.03643 0.0129408 0)
(0.0354492 0.0138935 0)
(0.0339738 0.0144726 0)
(0.0320909 0.0147191 0)
(0.0298895 0.0146796 0)
(0.0274521 0.0144038 0)
(0.0248591 0.0139412 0)
(0.0221779 0.0133386 0)
(0.0194732 0.012636 0)
(0.0167914 0.0118655 0)
(0.0141828 0.0110459 0)
(0.0116733 0.0101844 0)
(0.00930845 0.00926975 0)
(0.00709807 0.00828092 0)
(0.00510359 0.00717855 0)
(0.00332339 0.00592757 0)
(0.0018689 0.00448241 0)
(0.000727361 0.0028364 0)
(0.000112253 0.000983706 0)
(8.44105e-05 -0.00119126 0)
(0.000548943 -0.00314276 0)
(0.0013823 -0.00463731 0)
(0.00237994 -0.0056776 0)
(0.0035011 -0.00627184 0)
(0.00460858 -0.006456 0)
(0.00565688 -0.00627488 0)
(0.00656028 -0.00578873 0)
(0.0072848 -0.00506014 0)
(0.00778221 -0.004154 0)
(0.00803364 -0.00312941 0)
(0.00801556 -0.00203805 0)
(0.00771939 -0.000919969 0)
(0.00713325 0.000197326 0)
(0.00625005 0.00130017 0)
(0.00505744 0.00238815 0)
(0.00354098 0.00347308 0)
(0.00167883 0.00457681 0)
(-0.000556439 0.00572849 0)
(-0.00319984 0.0069613 0)
(-0.00629191 0.00830901 0)
(-0.0098782 0.00980281 0)
(-0.0140066 0.0114687 0)
(-0.0187253 0.0133254 0)
(-0.0240801 0.0153838 0)
(-0.0301115 0.0176459 0)
(-0.0368524 0.0201054 0)
(-0.0443247 0.0227476 0)
(-0.0525372 0.0255495 0)
(-0.0614828 0.0284799 0)
(-0.0711364 0.0314999 0)
(-0.0814537 0.0345627 0)
(-0.0923706 0.0376149 0)
(-0.103804 0.040598 0)
(-0.115655 0.0434504 0)
(-0.127811 0.0461099 0)
(-0.14015 0.0485167 0)
(-0.152549 0.0506159 0)
(-0.164886 0.0523601 0)
(-0.177046 0.0537109 0)
(-0.188922 0.0546402 0)
(-0.200424 0.0551307 0)
(-0.211474 0.0551747 0)
(-0.222011 0.0547739 0)
(-0.231987 0.0539375 0)
(-0.241366 0.0526809 0)
(-0.250125 0.0510238 0)
(-0.258249 0.0489889 0)
(-0.265729 0.0466008 0)
(-0.27256 0.0438843 0)
(-0.278743 0.0408642 0)
(-0.284279 0.0375646 0)
(-0.289169 0.0340082 0)
(-0.293418 0.0302166 0)
(-0.297024 0.0262099 0)
(-0.299991 0.0220071 0)
(-0.302316 0.0176261 0)
(-0.303998 0.0130842 0)
(-0.305033 0.00839834 0)
(-0.305417 0.00358564 0)
(-0.305142 -0.00133625 0)
(-0.304199 -0.00634853 0)
(-0.30258 -0.0114307 0)
(-0.300273 -0.0165601 0)
(-0.297265 -0.0217111 0)
(-0.293545 -0.0268548 0)
(-0.289098 -0.0319585 0)
(-0.283913 -0.0369852 0)
(-0.277978 -0.0418933 0)
(-0.271284 -0.0466365 0)
(-0.263825 -0.0511641 0)
(-0.255599 -0.0554212 0)
(-0.246613 -0.0593492 0)
(-0.236878 -0.0628875 0)
(-0.226418 -0.0659742 0)
(-0.215264 -0.0685487 0)
(-0.203463 -0.070553 0)
(-0.191075 -0.0719354 0)
(-0.178171 -0.0726518 0)
(-0.164841 -0.0726696 0)
(-0.151184 -0.0719692 0)
(-0.137314 -0.0705465 0)
(-0.123352 -0.0684143 0)
(-0.109427 -0.0656028 0)
(-0.0956693 -0.0621592 0)
(-0.0822087 -0.0581468 0)
(-0.0691685 -0.0536422 0)
(-0.0566627 -0.0487327 0)
(-0.0447928 -0.0435133 0)
(-0.0336457 -0.0380827 0)
(-0.0232929 -0.0325402 0)
(-0.0137897 -0.0269828 0)
(-0.00517663 -0.0215031 0)
(0.00251946 -0.016187 0)
(0.00928412 -0.0111128 0)
(0.015114 -0.00635023 0)
(0.0200158 -0.00195918 0)
(0.0240062 0.00201075 0)
(0.0271113 0.00552136 0)
(0.029368 0.00854673 0)
(0.0308227 0.011074 0)
(0.031533 0.0131039 0)
(0.0315652 0.0146503 0)
(0.0309948 0.0157401 0)
(0.0299023 0.0164108 0)
(0.0283735 0.0167091 0)
(0.0264923 0.0166873 0)
(0.0243437 0.0164004 0)
(0.0220032 0.0159024 0)
(0.019546 0.0152422 0)
(0.0170303 0.0144602 0)
(0.0145192 0.0135837 0)
(0.0120502 0.0126255 0)
(0.00968177 0.0115788 0)
(0.007433 0.0104213 0)
(0.0053777 0.0091111 0)
(0.00352121 0.00760008 0)
(0.00199013 0.00582984 0)
(0.000777852 0.00376029 0)
(0.000120515 0.00135653 0)
(8.69543e-05 -0.00146814 0)
(0.000561607 -0.003814 0)
(0.00140286 -0.00556833 0)
(0.00239222 -0.00674732 0)
(0.00348083 -0.00737791 0)
(0.00452308 -0.00750987 0)
(0.00546985 -0.00720492 0)
(0.00623253 -0.00653727 0)
(0.00677692 -0.00558393 0)
(0.00705462 -0.00442121 0)
(0.00704719 -0.00311805 0)
(0.00673054 -0.00173265 0)
(0.00609464 -0.000309041 0)
(0.00512437 0.00112449 0)
(0.00380782 0.002556 0)
(0.00212592 0.00398924 0)
(5.60317e-05 0.00544181 0)
(-0.00243306 0.00694245 0)
(-0.00537867 0.00852728 0)
(-0.00882542 0.0102358 0)
(-0.0128223 0.0121065 0)
(-0.0174212 0.0141732 0)
(-0.0226735 0.0164618 0)
(-0.0286271 0.0189882 0)
(-0.0353229 0.0217572 0)
(-0.0427918 0.0247618 0)
(-0.0510513 0.0279838 0)
(-0.0601026 0.0313936 0)
(-0.069928 0.034951 0)
(-0.080489 0.0386054 0)
(-0.091725 0.0422971 0)
(-0.103554 0.0459586 0)
(-0.115876 0.0495175 0)
(-0.128572 0.0528988 0)
(-0.141515 0.0560287 0)
(-0.154572 0.0588383 0)
(-0.167611 0.0612665 0)
(-0.180507 0.0632627 0)
(-0.193146 0.0647888 0)
(-0.205429 0.0658192 0)
(-0.217275 0.0663412 0)
(-0.228619 0.0663534 0)
(-0.239412 0.0658639 0)
(-0.249618 0.0648888 0)
(-0.259217 0.0634499 0)
(-0.268195 0.0615727 0)
(-0.276547 0.0592852 0)
(-0.284272 0.0566158 0)
(-0.291373 0.053593 0)
(-0.297856 0.0502442 0)
(-0.303727 0.0465956 0)
(-0.308991 0.0426714 0)
(-0.313655 0.0384942 0)
(-0.317724 0.0340847 0)
(-0.321201 0.029462 0)
(-0.324091 0.0246438 0)
(-0.326394 0.0196465 0)
(-0.328109 0.0144858 0)
(-0.329237 0.00917687 0)
(-0.329771 0.00373509 0)
(-0.329707 -0.00182369 0)
(-0.329037 -0.0074825 0)
(-0.327749 -0.0132226 0)
(-0.325833 -0.019023 0)
(-0.323272 -0.0248596 0)
(-0.32005 -0.0307047 0)
(-0.316148 -0.0365261 0)
(-0.311545 -0.0422869 0)
(-0.306222 -0.0479447 0)
(-0.300156 -0.0534516 0)
(-0.293329 -0.0587536 0)
(-0.285723 -0.0637912 0)
(-0.277325 -0.0684997 0)
(-0.26813 -0.0728103 0)
(-0.258138 -0.0766511 0)
(-0.247362 -0.0799496 0)
(-0.235827 -0.0826344 0)
(-0.223573 -0.0846386 0)
(-0.210656 -0.0859026 0)
(-0.197149 -0.0863779 0)
(-0.183146 -0.0860297 0)
(-0.168753 -0.0848408 0)
(-0.154096 -0.0828131 0)
(-0.139312 -0.0799698 0)
(-0.124544 -0.0763555 0)
(-0.109942 -0.0720351 0)
(-0.0956513 -0.0670921 0)
(-0.0818114 -0.0616247 0)
(-0.0685487 -0.0557421 0)
(-0.0559736 -0.0495596 0)
(-0.0441775 -0.0431943 0)
(-0.0332322 -0.0367607 0)
(-0.0231896 -0.0303676 0)
(-0.0140841 -0.0241156 0)
(-0.00593408 -0.0180955 0)
(0.00125489 -0.0123878 0)
(0.00748798 -0.00706192 0)
(0.0127795 -0.0021764 0)
(0.0171515 0.00222181 0)
(0.0206341 0.0060977 0)
(0.0232652 0.00942898 0)
(0.0250915 0.0122067 0)
(0.0261682 0.0144359 0)
(0.0265596 0.0161351 0)
(0.0263367 0.0173359 0)
(0.0255782 0.0180811 0)
(0.0243641 0.0184221 0)
(0.0227792 0.0184159 0)
(0.020902 0.0181205 0)
(0.0188141 0.0175913 0)
(0.0165816 0.0168756 0)
(0.0142783 0.0160084 0)
(0.0119522 0.0150077 0)
(0.00967361 0.013872 0)
(0.00747198 0.0125778 0)
(0.0054328 0.0110815 0)
(0.00357042 0.00932181 0)
(0.00202304 0.00722727 0)
(0.000791276 0.00472378 0)
(0.000122209 0.00174674 0)
(8.87737e-05 -0.00174921 0)
(0.000565325 -0.00448688 0)
(0.00139572 -0.00648646 0)
(0.00234991 -0.00777918 0)
(0.00337075 -0.00841326 0)
(0.00430645 -0.00845503 0)
(0.00510469 -0.00798566 0)
(0.00567555 -0.0070951 0)
(0.005985 -0.00587594 0)
(0.00598528 -0.00441612 0)
(0.00565837 -0.00279401 0)
(0.00497963 -0.00107314 0)
(0.00393695 0.000699999 0)
(0.00251134 0.00249821 0)
(0.000684994 0.00431315 0)
(-0.00156881 0.00615444 0)
(-0.00428179 0.00804674 0)
(-0.00749496 0.0100263 0)
(-0.0112553 0.0121359 0)
(-0.0156158 0.0144203 0)
(-0.0206315 0.0169204 0)
(-0.0263572 0.0196695 0)
(-0.0328423 0.0226893 0)
(-0.0401282 0.0259879 0)
(-0.0482433 0.0295587 0)
(-0.0571998 0.0333803 0)
(-0.0669909 0.0374163 0)
(-0.0775875 0.0416169 0)
(-0.0889371 0.0459195 0)
(-0.100963 0.0502506 0)
(-0.113567 0.0545285 0)
(-0.12663 0.0586662 0)
(-0.140019 0.062576 0)
(-0.153594 0.0661732 0)
(-0.167213 0.0693811 0)
(-0.18074 0.072134 0)
(-0.194049 0.07438 0)
(-0.207032 0.0760825 0)
(-0.219597 0.07722 0)
(-0.231674 0.0777851 0)
(-0.243207 0.0777827 0)
(-0.25416 0.0772277 0)
(-0.264509 0.0761424 0)
(-0.27424 0.0745544 0)
(-0.283349 0.0724943 0)
(-0.291835 0.0699943 0)
(-0.299706 0.0670866 0)
(-0.306968 0.0638027 0)
(-0.31363 0.0601727 0)
(-0.319702 0.056225 0)
(-0.325195 0.0519856 0)
(-0.330119 0.0474787 0)
(-0.334483 0.0427262 0)