/*--------------------------------*- C++ -*----------------------------------*\
| =========                 |                                                 |
| \\      /  F ield         | OpenFOAM: The Open Source CFD Toolbox           |
|  \\    /   O peration     | Version:  2406                                  |
|   \\  /    A nd           | Website:  www.openfoam.com                      |
|    \\/     M anipulation  |                                                 |
\*---------------------------------------------------------------------------*/
FoamFile
{
    version     2.0;
    format      ascii;
    arch        "LSB;label=32;scalar=64";
    class       volVectorField;
    location    "11.4";
    object      U;
}
// * * * * * * * * * * * * * * * * * * * * * * * * * * * * * * * * * * * * * //

dimensions      [0 1 -1 0 0 0 0];

internalField   nonuniform List<vector> 
14400
(
(5.12242e-06 -5.03261e-06 0)
(1.5048e-05 -4.31254e-06 0)
(1.66749e-05 -3.05522e-07 0)
(3.80021e-06 4.9224e-06 0)
(-2.32496e-05 9.23026e-06 0)
(-6.22732e-05 1.28134e-05 0)
(-0.000111183 1.52933e-05 0)
(-0.000167024 1.71006e-05 0)
(-0.000228196 1.82084e-05 0)
(-0.000292609 1.89246e-05 0)
(-0.000359372 1.92817e-05 0)
(-0.000427304 1.94663e-05 0)
(-0.000496049 1.95076e-05 0)
(-0.000565068 1.95086e-05 0)
(-0.000634322 1.94841e-05 0)
(-0.00070365 1.94847e-05 0)
(-0.000773167 1.95131e-05 0)
(-0.000842897 1.95904e-05 0)
(-0.000913003 1.97117e-05 0)
(-0.000983576 1.98825e-05 0)
(-0.00105477 2.00951e-05 0)
(-0.00112668 2.03475e-05 0)
(-0.00119943 2.06314e-05 0)
(-0.00127308 2.09417e-05 0)
(-0.00134771 2.12705e-05 0)
(-0.00142335 2.16117e-05 0)
(-0.00150003 2.19578e-05 0)
(-0.00157775 2.23026e-05 0)
(-0.00165646 2.26388e-05 0)
(-0.00173614 2.29598e-05 0)
(-0.0018167 2.32587e-05 0)
(-0.00189805 2.35286e-05 0)
(-0.00198007 2.37624e-05 0)
(-0.00206262 2.39531e-05 0)
(-0.00214554 2.40933e-05 0)
(-0.00222862 2.41759e-05 0)
(-0.00231167 2.41935e-05 0)
(-0.00239444 2.41386e-05 0)
(-0.00247666 2.40041e-05 0)
(-0.00255805 2.37826e-05 0)
(-0.0026383 2.34672e-05 0)
(-0.00271708 2.30508e-05 0)
(-0.00279404 2.2527e-05 0)
(-0.00286879 2.18896e-05 0)
(-0.00294096 2.11328e-05 0)
(-0.00301013 2.02515e-05 0)
(-0.00307588 1.92411e-05 0)
(-0.00313777 1.80978e-05 0)
(-0.00319537 1.68187e-05 0)
(-0.00324823 1.54017e-05 0)
(-0.0032959 1.38462e-05 0)
(-0.00333792 1.21522e-05 0)
(-0.00337386 1.03216e-05 0)
(-0.00340328 8.35735e-06 0)
(-0.00342576 6.26413e-06 0)
(-0.00344092 4.04824e-06 0)
(-0.00344837 1.71777e-06 0)
(-0.00344779 -7.17374e-07 0)
(-0.00343887 -3.24537e-06 0)
(-0.00342135 -5.85249e-06 0)
(-0.00339503 -8.52305e-06 0)
(-0.00335974 -1.12395e-05 0)
(-0.0033154 -1.39826e-05 0)
(-0.00326199 -1.67313e-05 0)
(-0.00319953 -1.94632e-05 0)
(-0.00312816 -2.21546e-05 0)
(-0.00304805 -2.47811e-05 0)
(-0.00295949 -2.73175e-05 0)
(-0.00286282 -2.97385e-05 0)
(-0.00275847 -3.20193e-05 0)
(-0.00264694 -3.41355e-05 0)
(-0.00252883 -3.60641e-05 0)
(-0.00240476 -3.77838e-05 0)
(-0.00227546 -3.92753e-05 0)
(-0.0021417 -4.05221e-05 0)
(-0.00200427 -4.15105e-05 0)
(-0.00186404 -4.22302e-05 0)
(-0.00172188 -4.26745e-05 0)
(-0.00157868 -4.28403e-05 0)
(-0.00143532 -4.27283e-05 0)
(-0.00129271 -4.23432e-05 0)
(-0.00115169 -4.16932e-05 0)
(-0.00101312 -4.07899e-05 0)
(-0.000877778 -3.96481e-05 0)
(-0.000746413 -3.82855e-05 0)
(-0.000619711 -3.67219e-05 0)
(-0.000498295 -3.49791e-05 0)
(-0.000382716 -3.30801e-05 0)
(-0.000273457 -3.10487e-05 0)
(-0.000170921 -2.89089e-05 0)
(-7.54409e-05 -2.66845e-05 0)
(1.2726e-05 -2.43985e-05 0)
(9.33915e-05 -2.20727e-05 0)
(0.000166436 -1.97274e-05 0)
(0.000231798 -1.73809e-05 0)
(0.000289477 -1.50499e-05 0)
(0.000339515 -1.27482e-05 0)
(0.000382005 -1.04882e-05 0)
(0.000417066 -8.27914e-06 0)
(0.00044486 -6.12937e-06 0)
(0.000465552 -4.04318e-06 0)
(0.000479354 -2.02625e-06 0)
(0.000486452 -7.83222e-08 0)
(0.000487094 1.79567e-06 0)
(0.000481463 3.60011e-06 0)
(0.000469852 5.32703e-06 0)
(0.000452427 6.9847e-06 0)
(0.000429561 8.55501e-06 0)
(0.000401401 1.00499e-05 0)
(0.000368494 1.14268e-05 0)
(0.000330985 1.27007e-05 0)
(0.000289797 1.37743e-05 0)
(0.000245144 1.46614e-05 0)
(0.000198717 1.51413e-05 0)
(0.000150992 1.52111e-05 0)
(0.000105151 1.43651e-05 0)
(6.23747e-05 1.25759e-05 0)
(2.82679e-05 8.82937e-06 0)
(4.9175e-06 3.82266e-06 0)
(-2.05586e-06 -2.0469e-06 0)
(4.60996e-06 -1.51892e-05 0)
(4.98537e-06 -4.7426e-06 0)
(-1.84762e-05 1.87197e-05 0)
(-7.31802e-05 4.76016e-05 0)
(-0.000160286 7.33033e-05 0)
(-0.000275486 9.55561e-05 0)
(-0.000415134 0.000112536 0)
(-0.000573125 0.000125511 0)
(-0.000745711 0.00013452 0)
(-0.000928195 0.000140783 0)
(-0.00111804 0.00014472 0)
(-0.00131241 0.000147195 0)
(-0.00150998 0.00014858 0)
(-0.00170934 0.000149401 0)
(-0.00191003 0.000149889 0)
(-0.00211154 0.000150323 0)
(-0.0023139 0.000150813 0)
(-0.00251707 0.000151479 0)
(-0.00272128 0.00015235 0)
(-0.00292669 0.000153457 0)
(-0.00313357 0.000154784 0)
(-0.0033421 0.000156317 0)
(-0.0035525 0.000158019 0)
(-0.0037649 0.000159855 0)
(-0.00397943 0.000161782 0)
(-0.00419612 0.000163756 0)
(-0.00441499 0.00016573 0)
(-0.00463598 0.000167659 0)
(-0.00485896 0.000169496 0)
(-0.00508376 0.000171192 0)
(-0.00531014 0.0001727 0)
(-0.0055378 0.000173972 0)
(-0.00576639 0.000174957 0)
(-0.00599547 0.000175606 0)
(-0.00622457 0.00017587 0)
(-0.00645313 0.000175699 0)
(-0.00668054 0.000175041 0)
(-0.00690613 0.000173849 0)
(-0.00712917 0.000172073 0)
(-0.00734886 0.000169667 0)
(-0.00756437 0.000166584 0)
(-0.00777478 0.000162781 0)
(-0.00797915 0.000158219 0)
(-0.0081765 0.00015286 0)
(-0.00836578 0.00014667 0)
(-0.00854593 0.000139622 0)
(-0.00871587 0.000131691 0)
(-0.00887448 0.000122859 0)
(-0.00902063 0.000113117 0)
(-0.00915322 0.000102458 0)
(-0.00927111 9.08866e-05 0)
(-0.0093732 7.84148e-05 0)
(-0.00945844 6.50631e-05 0)
(-0.00952578 5.08619e-05 0)
(-0.00957424 3.58517e-05 0)
(-0.00960291 2.00838e-05 0)
(-0.00961094 3.62023e-06 0)
(-0.00959759 -1.34654e-05 0)
(-0.0095622 -3.10883e-05 0)
(-0.00950426 -4.91519e-05 0)
(-0.00942334 -6.75487e-05 0)
(-0.00931919 -8.61604e-05 0)
(-0.0091917 -0.000104859 0)
(-0.00904091 -0.000123507 0)
(-0.00886706 -0.000141959 0)
(-0.00867053 -0.000160065 0)
(-0.00845191 -0.00017767 0)
(-0.00821196 -0.000194615 0)
(-0.00795165 -0.000210745 0)
(-0.0076721 -0.000225904 0)
(-0.00737462 -0.000239945 0)
(-0.0070607 -0.000252726 0)
(-0.00673197 -0.000264119 0)
(-0.0063902 -0.000274007 0)
(-0.00603731 -0.000282291 0)
(-0.00567529 -0.000288889 0)
(-0.00530623 -0.00029374 0)
(-0.00493227 -0.000296804 0)
(-0.0045556 -0.000298064 0)
(-0.00417839 -0.000297523 0)
(-0.00380281 -0.000295211 0)
(-0.00343097 -0.000291177 0)
(-0.00306492 -0.000285492 0)
(-0.00270662 -0.000278245 0)
(-0.0023579 -0.000269543 0)
(-0.00202047 -0.000259505 0)
(-0.0016959 -0.000248265 0)
(-0.00138558 -0.000235962 0)
(-0.00109076 -0.000222743 0)
(-0.000812489 -0.000208754 0)
(-0.000551667 -0.000194143 0)
(-0.000309011 -0.000179054 0)
(-8.5077e-05 -0.000163622 0)
(0.000119739 -0.000147976 0)
(0.000305185 -0.000132234 0)
(0.000471147 -0.000116502 0)
(0.000617626 -0.000100874 0)
(0.000744738 -8.54295e-05 0)
(0.000852679 -7.02362e-05 0)
(0.000941738 -5.53507e-05 0)
(0.00101224 -4.08139e-05 0)
(0.00106462 -2.66642e-05 0)
(0.00109926 -1.2923e-05 0)
(0.0011167 3.79095e-07 0)
(0.00111739 1.32305e-05 0)
(0.00110198 2.55884e-05 0)
(0.00107095 3.74354e-05 0)
(0.00102517 4.86809e-05 0)
(0.000965214 5.92756e-05 0)
(0.00089236 6.90143e-05 0)
(0.000807401 7.7772e-05 0)
(0.000712475 8.51011e-05 0)
(0.000608829 9.07318e-05 0)
(0.000500242 9.3733e-05 0)
(0.000388812 9.36179e-05 0)
(0.000281148 8.85674e-05 0)
(0.000180492 7.80876e-05 0)
(9.72984e-05 5.93201e-05 0)
(3.45358e-05 3.45867e-05 0)
(3.78214e-06 4.89654e-06 0)
(5.2208e-07 -1.69249e-05 0)
(-1.98428e-05 1.93114e-05 0)
(-8.21682e-05 7.95159e-05 0)
(-0.000188764 0.000149583 0)
(-0.000342131 0.000213537 0)
(-0.000535044 0.000269458 0)
(-0.000763461 0.000313688 0)
(-0.00101887 0.000348092 0)
(-0.0012964 0.000373008 0)
(-0.00158946 0.000390801 0)
(-0.00189442 0.000402692 0)
(-0.00220716 0.000410545 0)
(-0.00252561 0.000415435 0)
(-0.0028476 0.000418572 0)
(-0.00317226 0.000420648 0)
(-0.0034987 0.000422336 0)
(-0.00382677 0.000423989 0)
(-0.00415629 0.000425913 0)
(-0.00448745 0.000428228 0)
(-0.00482037 0.000431022 0)
(-0.00515532 0.000434283 0)
(-0.00549251 0.00043798 0)
(-0.00583214 0.000442036 0)
(-0.00617436 0.000446363 0)
(-0.00651924 0.000450855 0)
(-0.0068668 0.0004554 0)
(-0.00721697 0.00045988 0)
(-0.00756958 0.000464174 0)
(-0.0079244 0.000468158 0)
(-0.00828108 0.000471705 0)
(-0.00863921 0.000474689 0)
(-0.00899827 0.00047698 0)
(-0.00935764 0.000478448 0)
(-0.00971663 0.000478963 0)
(-0.0100744 0.000478394 0)
(-0.0104301 0.00047661 0)
(-0.0107828 0.000473482 0)
(-0.0111313 0.000468884 0)
(-0.0114746 0.000462691 0)
(-0.0118113 0.000454786 0)
(-0.0121402 0.000445054 0)
(-0.0124599 0.000433392 0)
(-0.0127689 0.000419701 0)
(-0.0130657 0.000403895 0)
(-0.0133488 0.000385899 0)
(-0.0136166 0.00036565 0)
(-0.0138675 0.000343101 0)
(-0.0140998 0.000318221 0)
(-0.0143119 0.000290995 0)
(-0.0145022 0.000261429 0)
(-0.0146692 0.000229549 0)
(-0.0148112 0.000195401 0)
(-0.0149267 0.000159056 0)
(-0.0150144 0.000120608 0)
(-0.015073 8.01795e-05 0)
(-0.0151011 3.79151e-05 0)
(-0.0150978 -6.01135e-06 0)
(-0.0150619 -5.13992e-05 0)
(-0.0149929 -9.80207e-05 0)
(-0.0148899 -0.000145621 0)
(-0.0147526 -0.000193919 0)
(-0.0145808 -0.00024261 0)
(-0.0143744 -0.000291366 0)
(-0.0141337 -0.000339839 0)
(-0.0138591 -0.000387665 0)
(-0.0135514 -0.000434466 0)
(-0.0132114 -0.000479859 0)
(-0.0128405 -0.000523454 0)
(-0.0124401 -0.000564866 0)
(-0.0120119 -0.000603719 0)
(-0.0115578 -0.000639651 0)
(-0.0110802 -0.000672322 0)
(-0.0105812 -0.00070142 0)
(-0.0100636 -0.000726666 0)
(-0.00953008 -0.000747822 0)
(-0.0089835 -0.000764692 0)
(-0.00842685 -0.000777132 0)
(-0.0078632 -0.000785046 0)
(-0.00729565 -0.000788396 0)
(-0.00672731 -0.000787195 0)
(-0.00616124 -0.000781513 0)
(-0.00560047 -0.000771472 0)
(-0.0050479 -0.000757243 0)
(-0.00450633 -0.000739046 0)
(-0.00397839 -0.000717138 0)
(-0.00346654 -0.000691812 0)
(-0.00297302 -0.00066339 0)
(-0.00249989 -0.000632215 0)
(-0.00204894 -0.000598643 0)
(-0.00162176 -0.000563034 0)
(-0.00121969 -0.00052575 0)
(-0.000843824 -0.000487145 0)
(-0.000495054 -0.000447554 0)
(-0.000174034 -0.000407299 0)
(0.000118779 -0.000366672 0)
(0.000383119 -0.000325941 0)
(0.000618884 -0.000285343 0)
(0.000826135 -0.000245084 0)
(0.00100505 -0.000205338 0)
(0.00115594 -0.000166253 0)
(0.00127918 -0.000127947 0)
(0.00137527 -9.05233e-05 0)
(0.00144474 -5.40586e-05 0)
(0.00148825 -1.86374e-05 0)
(0.00150642 1.56717e-05 0)
(0.00150011 4.87554e-05 0)
(0.00147006 8.05037e-05 0)
(0.00141747 0.000110692 0)
(0.00134328 0.000139086 0)
(0.00124932 0.000165205 0)
(0.00113694 0.000188555 0)
(0.00100918 0.000208146 0)
(0.000868143 0.000223027 0)
(0.000719051 0.000231294 0)
(0.000565112 0.000231373 0)
(0.000415163 0.000219984 0)
(0.000273439 0.000195464 0)
(0.000153783 0.000153683 0)
(5.93003e-05 9.73858e-05 0)
(8.76021e-06 2.81874e-05 0)
(-5.19718e-06 -3.03568e-06 0)
(-5.26529e-05 7.78718e-05 0)
(-0.000162296 0.000188731 0)
(-0.000327349 0.000310677 0)
(-0.000551195 0.000422213 0)
(-0.000822754 0.000519905 0)
(-0.00113826 0.000598561 0)
(-0.00148707 0.000660525 0)
(-0.00186396 0.000706507 0)
(-0.00226088 0.000740029 0)
(-0.00267364 0.000763224 0)
(-0.00309709 0.000779067 0)
(-0.00352867 0.00078947 0)
(-0.00396555 0.000796448 0)
(-0.00440652 0.000801272 0)
(-0.00485031 0.000805101 0)
(-0.00529657 0.000808611 0)
(-0.00574491 0.000812348 0)
(-0.00619541 0.000816573 0)
(-0.00664808 0.000821452 0)
(-0.00710315 0.000826996 0)
(-0.00756073 0.000833161 0)
(-0.00802099 0.000839827 0)
(-0.00848397 0.000846846 0)
(-0.0089497 0.000854035 0)
(-0.00941808 0.000861198 0)
(-0.00988893 0.000868124 0)
(-0.010362 0.000874596 0)
(-0.0108368 0.000880389 0)
(-0.0113128 0.000885276 0)
(-0.0117895 0.000889026 0)
(-0.012266 0.000891405 0)
(-0.0127416 0.000892177 0)
(-0.0132152 0.000891107 0)
(-0.0136856 0.000887961 0)
(-0.0141518 0.000882505 0)
(-0.0146124 0.000874512 0)
(-0.0150659 0.000863759 0)
(-0.0155108 0.000850031 0)
(-0.0159455 0.000833125 0)
(-0.0163682 0.000812851 0)
(-0.0167772 0.000789032 0)
(-0.0171705 0.00076151 0)
(-0.0175464 0.000730149 0)
(-0.0179027 0.000694833 0)
(-0.0182376 0.000655474 0)
(-0.018549 0.000612011 0)
(-0.0188349 0.000564412 0)
(-0.0190933 0.000512678 0)
(-0.0193223 0.000456846 0)
(-0.01952 0.000396987 0)
(-0.0196845 0.000333215 0)
(-0.0198142 0.000265679 0)
(-0.0199073 0.000194575 0)
(-0.0199625 0.000120138 0)
(-0.0199782 4.26507e-05 0)
(-0.0199534 -3.75612e-05 0)
(-0.0198871 -0.000120126 0)
(-0.0197784 -0.000204629 0)
(-0.0196267 -0.000290609 0)
(-0.0194317 -0.000377566 0)
(-0.0191934 -0.00046496 0)
(-0.0189118 -0.000552215 0)
(-0.0185875 -0.000638727 0)
(-0.0182211 -0.000723863 0)
(-0.0178138 -0.000806976 0)
(-0.0173668 -0.000887406 0)
(-0.0168817 -0.000964492 0)
(-0.0163605 -0.00103758 0)
(-0.0158054 -0.00110603 0)
(-0.0152188 -0.00116924 0)
(-0.0146035 -0.00122663 0)
(-0.0139624 -0.00127769 0)
(-0.0132988 -0.00132194 0)
(-0.012616 -0.001359 0)
(-0.0119174 -0.00138853 0)
(-0.0112068 -0.00141031 0)
(-0.0104879 -0.00142417 0)
(-0.00976436 -0.00143005 0)
(-0.00904 -0.00142799 0)
(-0.00831853 -0.0014181 0)
(-0.00760359 -0.0014006 0)
(-0.00689871 -0.00137577 0)
(-0.00620727 -0.00134399 0)
(-0.00553247 -0.0013057 0)
(-0.00487729 -0.00126139 0)
(-0.00424449 -0.00121162 0)
(-0.00363656 -0.00115695 0)
(-0.00305575 -0.001098 0)
(-0.00250402 -0.00103538 0)
(-0.00198305 -0.000969708 0)
(-0.00149424 -0.000901586 0)
(-0.00103875 -0.000831594 0)
(-0.000617443 -0.00076028 0)
(-0.00023098 -0.00068815 0)
(0.000120228 -0.000615667 0)
(0.000435962 -0.000543243 0)
(0.000716192 -0.00047124 0)
(0.000961035 -0.000399969 0)
(0.00117077 -0.000329693 0)
(0.00134576 -0.000260632 0)
(0.00148653 -0.000192976 0)
(0.00159363 -0.000126885 0)
(0.0016678 -6.25258e-05 0)
(0.00170974 -5.49932e-08 0)
(0.00172046 6.03028e-05 0)
(0.00170086 0.000118296 0)
(0.00165238 0.000173503 0)
(0.00157624 0.000225427 0)
(0.0014747 0.000273218 0)
(0.00134954 0.000315899 0)
(0.00120449 0.000351825 0)
(0.0010422 0.000379224 0)
(0.000868984 0.000395145 0)
(0.000688617 0.000396802 0)
(0.000511455 0.000379535 0)
(0.000341996 0.000340273 0)
(0.000196597 0.000273634 0)
(7.83655e-05 0.000180896 0)
(1.2498e-05 6.22519e-05 0)
(-1.06664e-05 2.78223e-05 0)
(-8.60392e-05 0.000175832 0)
(-0.000245433 0.000354047 0)
(-0.000471427 0.000540441 0)
(-0.000767732 0.000709958 0)
(-0.00111844 0.000857959 0)
(-0.00152002 0.000978312 0)
(-0.00195958 0.00107387 0)
(-0.00243182 0.00114594 0)
(-0.00292744 0.00119926 0)
(-0.00344201 0.00123703 0)
(-0.00396957 0.00126344 0)
(-0.00450728 0.00128137 0)
(-0.0050518 0.00129374 0)
(-0.00560166 0.00130251 0)
(-0.00615527 0.0013094 0)
(-0.0067121 0.00131548 0)
(-0.00727154 0.00132159 0)
(-0.00783356 0.00132817 0)
(-0.00839801 0.00133548 0)
(-0.008965 0.00134357 0)
(-0.00953454 0.00135239 0)
(-0.0101067 0.00136177 0)
(-0.0106814 0.0013715 0)
(-0.0112585 0.00138129 0)
(-0.0118379 0.00139086 0)
(-0.0124191 0.00139987 0)
(-0.0130018 0.001408 0)
(-0.0135852 0.0014149 0)
(-0.0141688 0.00142021 0)
(-0.0147517 0.00142357 0)
(-0.0153328 0.00142462 0)
(-0.0159111 0.00142299 0)
(-0.0164852 0.00141833 0)
(-0.0170538 0.00141027 0)
(-0.0176153 0.00139846 0)
(-0.0181682 0.00138256 0)
(-0.0187106 0.00136222 0)
(-0.0192406 0.00133713 0)
(-0.0197564 0.001307 0)
(-0.0202557 0.00127155 0)
(-0.0207366 0.00123053 0)
(-0.0211967 0.00118372 0)
(-0.0216338 0.00113094 0)
(-0.0220458 0.00107205 0)
(-0.0224302 0.00100695 0)
(-0.0227848 0.000935566 0)
(-0.0231074 0.0008579 0)
(-0.0233957 0.000773988 0)
(-0.0236476 0.000683925 0)
(-0.023861 0.00058786 0)
(-0.0240339 0.000486001 0)
(-0.0241646 0.000378617 0)
(-0.0242513 0.000266036 0)
(-0.0242924 0.000148652 0)
(-0.0242867 2.69209e-05 0)
(-0.0242329 -9.86364e-05 0)
(-0.0241301 -0.000227435 0)
(-0.0239777 -0.000358829 0)
(-0.023775 -0.000492109 0)
(-0.0235221 -0.000626511 0)
(-0.0232189 -0.000761216 0)
(-0.0228659 -0.000895358 0)
(-0.0224638 -0.00102803 0)
(-0.0220135 -0.00115829 0)
(-0.0215164 -0.00128519 0)
(-0.0209742 -0.00140774 0)
(-0.0203889 -0.00152497 0)
(-0.0197626 -0.00163593 0)
(-0.0190981 -0.00173968 0)
(-0.0183981 -0.00183533 0)
(-0.0176659 -0.00192206 0)
(-0.0169049 -0.00199911 0)
(-0.0161187 -0.00206581 0)
(-0.0153111 -0.00212157 0)
(-0.0144861 -0.00216595 0)
(-0.0136479 -0.0021986 0)
(-0.0128006 -0.0022193 0)
(-0.0119484 -0.00222797 0)
(-0.0110956 -0.00222466 0)
(-0.0102464 -0.00220956 0)
(-0.00940478 -0.00218298 0)
(-0.00857484 -0.00214535 0)
(-0.00776033 -0.00209722 0)
(-0.00696486 -0.00203923 0)
(-0.00619179 -0.00197213 0)
(-0.00544424 -0.00189672 0)
(-0.00472504 -0.00181386 0)
(-0.00403673 -0.00172443 0)
(-0.00338156 -0.00162936 0)
(-0.00276146 -0.00152954 0)
(-0.00217806 -0.00142588 0)
(-0.00163269 -0.00131922 0)
(-0.00112641 -0.0012104 0)
(-0.000660013 -0.00110015 0)
(-0.000234027 -0.000989176 0)
(0.000151224 -0.000878091 0)
(0.000495634 -0.000767442 0)
(0.000799257 -0.000657698 0)
(0.00106233 -0.000549265 0)
(0.00128519 -0.000442485 0)
(0.00146834 -0.000337659 0)
(0.00161234 -0.000235052 0)
(0.00171796 -0.000134938 0)
(0.00178595 -3.75958e-05 0)
(0.0018174 5.66034e-05 0)
(0.0018133 0.000147216 0)
(0.00177528 0.00023357 0)
(0.00170473 0.000314826 0)
(0.00160421 0.000389692 0)
(0.00147578 0.000456591 0)
(0.00132365 0.000513138 0)
(0.00115083 0.000556592 0)
(0.000964342 0.000582892 0)
(0.000768268 0.000587857 0)
(0.000574079 0.000565445 0)
(0.000386427 0.000510792 0)
(0.000223822 0.000417086 0)
(8.97253e-05 0.000282767 0)
(1.4351e-05 0.000105199 0)
(-1.59947e-05 7.53913e-05 0)
(-0.000119465 0.000313289 0)
(-0.000329181 0.000574632 0)
(-0.000616686 0.000836055 0)
(-0.000985579 0.00107117 0)
(-0.00141461 0.00127505 0)
(-0.00190041 0.00144154 0)
(-0.00242766 0.00157428 0)
(-0.00299119 0.00167548 0)
(-0.00358051 0.00175115 0)
(-0.00419119 0.00180567 0)
(-0.00481659 0.00184445 0)
(-0.00545377 0.0018714 0)
(-0.00609895 0.00189038 0)
(-0.00675053 0.00190406 0)
(-0.00740663 0.00191476 0)
(-0.00806656 0.00192397 0)
(-0.00872951 0.00193284 0)
(-0.00939529 0.00194199 0)
(-0.0100636 0.00195182 0)
(-0.0107344 0.00196241 0)
(-0.0114076 0.0019737 0)
(-0.0120831 0.00198547 0)
(-0.0127607 0.00199744 0)
(-0.0134401 0.00200923 0)
(-0.0141209 0.00202043 0)
(-0.0148026 0.0020306 0)
(-0.0154846 0.00203927 0)
(-0.016166 0.00204594 0)
(-0.016846 0.00205013 0)
(-0.0175235 0.00205134 0)
(-0.0181971 0.00204905 0)
(-0.0188656 0.00204275 0)
(-0.0195273 0.00203196 0)
(-0.0201807 0.00201617 0)
(-0.0208238 0.00199489 0)
(-0.0214548 0.00196766 0)
(-0.0220716 0.00193403 0)
(-0.0226719 0.00189359 0)
(-0.0232537 0.00184593 0)
(-0.0238144 0.00179072 0)
(-0.0243517 0.00172764 0)
(-0.0248631 0.00165642 0)
(-0.0253461 0.00157686 0)
(-0.0257983 0.0014888 0)
(-0.0262172 0.00139215 0)
(-0.0266003 0.00128688 0)
(-0.0269452 0.00117301 0)
(-0.0272496 0.00105067 0)
(-0.0275112 0.000920036 0)
(-0.027728 0.00078136 0)
(-0.0278979 0.00063498 0)
(-0.0280191 0.000481311 0)
(-0.0280899 0.00032085 0)
(-0.0281089 0.000154175 0)
(-0.0280748 -1.80558e-05 0)
(-0.0279866 -0.000195099 0)
(-0.0278433 -0.000376131 0)
(-0.0276446 -0.000560251 0)
(-0.0273902 -0.00074648 0)
(-0.0270799 -0.00093377 0)
(-0.0267142 -0.001121 0)
(-0.0262937 -0.00130701 0)
(-0.0258193 -0.00149057 0)
(-0.0252923 -0.00167041 0)
(-0.0247143 -0.00184525 0)
(-0.0240872 -0.00201379 0)
(-0.0234133 -0.00217474 0)
(-0.0226951 -0.00232682 0)
(-0.0219356 -0.0024688 0)
(-0.021138 -0.00259951 0)
(-0.0203057 -0.00271784 0)
(-0.0194425 -0.00282281 0)
(-0.0185524 -0.00291352 0)
(-0.0176396 -0.00298923 0)
(-0.0167084 -0.00304933 0)
(-0.0157633 -0.00309338 0)
(-0.0148087 -0.00312109 0)
(-0.0138494 -0.00313238 0)
(-0.01289 -0.00312732 0)
(-0.0119348 -0.00310616 0)
(-0.0109884 -0.00306932 0)
(-0.0100552 -0.0030174 0)
(-0.00913906 -0.00295113 0)
(-0.00824407 -0.00287139 0)
(-0.00737384 -0.00277916 0)
(-0.00653173 -0.00267552 0)
(-0.00572082 -0.00256164 0)
(-0.00494388 -0.0024387 0)
(-0.00420334 -0.00230793 0)
(-0.00350131 -0.00217056 0)
(-0.00283956 -0.00202779 0)
(-0.00221958 -0.00188078 0)
(-0.00164252 -0.00173062 0)
(-0.00110925 -0.00157833 0)
(-0.0006204 -0.00142486 0)
(-0.000176343 -0.00127102 0)
(0.000222768 -0.00111757 0)
(0.000576948 -0.000965153 0)
(0.000886408 -0.000814317 0)
(0.00115147 -0.000665541 0)
(0.00137263 -0.00051925 0)
(0.00155046 -0.000375827 0)
(0.00168572 -0.000235669 0)
(0.00177921 -9.91985e-05 0)
(0.00183206 3.30419e-05 0)
(0.00184534 0.000160386 0)
(0.00182079 0.000281874 0)
(0.00175992 0.000396284 0)
(0.0016655 0.000501836 0)
(0.00153974 0.000596308 0)
(0.00138722 0.000676538 0)
(0.00121112 0.000738778 0)
(0.00101896 0.000777847 0)
(0.000814975 0.000788115 0)
(0.000611432 0.000762103 0)
(0.000413124 0.000692882 0)
(0.000240137 0.000571771 0)
(9.64354e-05 0.000393481 0)
(1.5358e-05 0.000151734 0)
(-2.08102e-05 0.000139287 0)
(-0.000151047 0.000490488 0)
(-0.0004096 0.000851797 0)
(-0.000757304 0.00120001 0)
(-0.00119739 0.00150921 0)
(-0.00170303 0.00177504 0)
(-0.00227076 0.00199225 0)
(-0.00288269 0.00216566 0)
(-0.00353376 0.0022988 0)
(-0.0042123 0.00239907 0)
(-0.00491394 0.0024722 0)
(-0.00563149 0.00252487 0)
(-0.00636199 0.0025621 0)
(-0.00710134 0.0025887 0)
(-0.00784785 0.0026081 0)
(-0.00859941 0.00262322 0)
(-0.00935522 0.00263599 0)
(-0.0101143 0.00264789 0)
(-0.0108763 0.00265974 0)
(-0.0116407 0.00267205 0)
(-0.0124075 0.00268496 0)
(-0.0131762 0.00269839 0)
(-0.0139467 0.00271209 0)
(-0.0147186 0.00272567 0)
(-0.0154914 0.00273865 0)
(-0.0162645 0.00275051 0)
(-0.0170373 0.00276065 0)
(-0.0178088 0.00276846 0)
(-0.0185782 0.00277332 0)
(-0.0193441 0.00277455 0)
(-0.0201054 0.00277152 0)
(-0.0208605 0.00276354 0)
(-0.0216077 0.00274997 0)
(-0.0223453 0.00273015 0)
(-0.0230713 0.00270344 0)
(-0.0237836 0.00266922 0)
(-0.0244801 0.00262691 0)
(-0.0251583 0.00257594 0)
(-0.025816 0.00251579 0)
(-0.0264505 0.002446 0)
(-0.0270594 0.00236615 0)
(-0.0276399 0.00227587 0)
(-0.0281894 0.00217488 0)
(-0.0287054 0.00206297 0)
(-0.0291851 0.00193998 0)
(-0.0296259 0.00180586 0)
(-0.0300254 0.00166064 0)
(-0.0303811 0.00150443 0)
(-0.0306906 0.00133743 0)
(-0.0309518 0.00115995 0)
(-0.0311624 0.000972372 0)
(-0.0313207 0.000775199 0)
(-0.0314248 0.000569017 0)
(-0.0314732 0.000354514 0)
(-0.0314646 0.000132479 0)
(-0.0313978 -9.62037e-05 0)
(-0.031272 -0.000330549 0)
(-0.0310865 -0.000569478 0)
(-0.0308409 -0.000811816 0)
(-0.0305353 -0.0010563 0)
(-0.0301698 -0.00130159 0)
(-0.0297448 -0.00154625 0)
(-0.0292614 -0.00178879 0)
(-0.0287205 -0.00202767 0)
(-0.0281237 -0.00226128 0)
(-0.0274727 -0.00248801 0)
(-0.0267698 -0.00270622 0)
(-0.0260174 -0.00291428 0)
(-0.0252184 -0.0031106 0)
(-0.0243758 -0.00329362 0)
(-0.0234931 -0.00346187 0)
(-0.0225741 -0.00361399 0)
(-0.0216227 -0.00374872 0)
(-0.0206432 -0.00386495 0)
(-0.0196401 -0.00396175 0)
(-0.0186179 -0.00403836 0)
(-0.0175815 -0.00409423 0)
(-0.0165356 -0.00412902 0)
(-0.0154853 -0.00414261 0)
(-0.0144353 -0.00413512 0)
(-0.0133905 -0.00410686 0)
(-0.0123556 -0.0040584 0)
(-0.0113352 -0.00399048 0)
(-0.0103337 -0.00390405 0)
(-0.00935528 -0.00380022 0)
(-0.00840375 -0.00368026 0)
(-0.00748273 -0.00354555 0)
(-0.00659548 -0.00339757 0)
(-0.00574493 -0.00323784 0)
(-0.00493366 -0.00306794 0)
(-0.00416388 -0.00288943 0)
(-0.00343748 -0.00270383 0)
(-0.002756 -0.00251264 0)
(-0.00212064 -0.00231725 0)
(-0.00153232 -0.00211897 0)
(-0.000991678 -0.001919 0)
(-0.000499099 -0.00171839 0)
(-5.47362e-05 -0.0015181 0)
(0.000341436 -0.00131895 0)
(0.000689644 -0.00112167 0)
(0.000990222 -0.000926858 0)
(0.0012437 -0.00073508 0)
(0.00145065 -0.000546844 0)
(0.00161188 -0.000362681 0)
(0.00172822 -0.000183168 0)
(0.00180084 -9.03556e-06 0)
(0.00183085 0.000158803 0)
(0.00182009 0.000319077 0)
(0.00177011 0.000470146 0)
(0.00168385 0.000609709 0)
(0.0015636 0.000734859 0)
(0.00141415 0.000841616 0)
(0.00123878 0.000925175 0)
(0.00104536 0.00097919 0)
(0.00083822 0.000996489 0)
(0.000630221 0.000968039 0)
(0.000426367 0.00088464 0)
(0.000247893 0.000735393 0)
(9.927e-05 0.000511013 0)
(1.55955e-05 0.000201099 0)
(-2.53668e-05 0.000218189 0)
(-0.000181243 0.000705082 0)
(-0.000486777 0.00118238 0)
(-0.000892678 0.0016283 0)
(-0.00140166 0.00201896 0)
(-0.00198132 0.00235163 0)
(-0.00262797 0.00262288 0)
(-0.00332108 0.00283927 0)
(-0.00405565 0.00300604 0)
(-0.00481883 0.00313223 0)
(-0.00560639 0.00322505 0)
(-0.00641059 0.00329253 0)
(-0.00722854 0.00334081 0)
(-0.00805584 0.00337565 0)
(-0.00889083 0.00340126 0)
(-0.00973116 0.00342116 0)
(-0.010576 0.00343771 0)
(-0.0114241 0.0034527 0)
(-0.0122751 0.00346716 0)
(-0.0131283 0.00348172 0)
(-0.0139834 0.00349653 0)
(-0.0148399 0.00351153 0)
(-0.0156975 0.00352638 0)
(-0.0165554 0.00354063 0)
(-0.0174132 0.00355367 0)
(-0.0182701 0.00356485 0)
(-0.019125 0.00357343 0)
(-0.019977 0.00357865 0)
(-0.0208249 0.0035797 0)
(-0.0216672 0.00357578 0)
(-0.0225023 0.00356605 0)
(-0.0233286 0.00354971 0)
(-0.0241441 0.00352592 0)
(-0.0249469 0.00349389 0)
(-0.0257347 0.00345284 0)
(-0.0265052 0.00340201 0)
(-0.0272559 0.0033407 0)
(-0.0279843 0.00326825 0)
(-0.0286879 0.00318406 0)
(-0.0293638 0.00308759 0)
(-0.0300094 0.00297838 0)
(-0.0306219 0.00285605 0)
(-0.0311985 0.0027203 0)
(-0.0317364 0.00257093 0)
(-0.0322331 0.00240786 0)
(-0.0326859 0.00223108 0)
(-0.0330922 0.00204071 0)
(-0.0334496 0.00183696 0)
(-0.0337558 0.00162018 0)
(-0.0340088 0.00139079 0)
(-0.0342064 0.00114938 0)
(-0.034347 0.000896592 0)
(-0.0344289 0.000633226 0)
(-0.0344508 0.000360176 0)
(-0.0344114 7.8453e-05 0)
(-0.0343099 -0.000210822 0)
(-0.0341455 -0.000506417 0)
(-0.0339178 -0.000806992 0)
(-0.0336267 -0.0011111 0)
(-0.0332721 -0.0014172 0)
(-0.0328546 -0.00172364 0)
(-0.0323748 -0.0020287 0)
(-0.0318337 -0.00233057 0)
(-0.0312325 -0.00262737 0)
(-0.030573 -0.00291719 0)
(-0.029857 -0.00319807 0)
(-0.0290869 -0.00346803 0)
(-0.0282652 -0.00372512 0)
(-0.0273949 -0.00396741 0)
(-0.0264794 -0.00419303 0)
(-0.0255222 -0.0044002 0)
(-0.0245273 -0.00458727 0)
(-0.0234988 -0.00475273 0)
(-0.0224412 -0.00489524 0)
(-0.0213591 -0.00501365 0)
(-0.0202576 -0.00510706 0)
(-0.0191414 -0.0051748 0)
(-0.0180159 -0.00521647 0)
(-0.0168861 -0.00523191 0)
(-0.0157572 -0.00522127 0)
(-0.0146344 -0.00518495 0)
(-0.0135227 -0.00512365 0)
(-0.0124268 -0.00503827 0)
(-0.0113515 -0.00493 0)
(-0.0103012 -0.00480021 0)
(-0.00927991 -0.00465045 0)
(-0.0082915 -0.00448243 0)
(-0.00733938 -0.00429797 0)
(-0.00642662 -0.00409896 0)
(-0.0055559 -0.00388732 0)
(-0.00472953 -0.003665 0)
(-0.00394944 -0.00343386 0)
(-0.00321719 -0.00319575 0)
(-0.002534 -0.00295238 0)
(-0.00190077 -0.00270536 0)
(-0.00131808 -0.00245614 0)
(-0.00078628 -0.00220605 0)
(-0.000305461 -0.00195624 0)
(0.00012447 -0.00170772 0)
(0.000503806 -0.00146137 0)
(0.000832949 -0.00121796 0)
(0.00111249 -0.000978154 0)
(0.00134308 -0.000742599 0)
(0.00152558 -0.000511958 0)
(0.00166084 -0.000286965 0)
(0.00175014 -6.85434e-05 0)
(0.00179461 0.000142142 0)
(0.00179616 0.000343501 0)
(0.0017564 0.000533462 0)
(0.00167835 0.000709194 0)
(0.00156435 0.000867089 0)
(0.00141934 0.00100234 0)
(0.00124665 0.00110906 0)
(0.00105437 0.00117972 0)
(0.000846929 0.00120554 0)
(0.000637581 0.00117581 0)
(0.000431557 0.00107894 0)
(0.000250798 0.000901525 0)
(0.000100211 0.000630273 0)
(1.55914e-05 0.000250661 0)
(-2.95561e-05 0.000311578 0)
(-0.000209542 0.000955965 0)
(-0.00055964 0.00156518 0)
(-0.00102106 0.00212002 0)
(-0.00159598 0.00259986 0)
(-0.00224655 0.00300453 0)
(-0.00296873 0.00333329 0)
(-0.00373934 0.00359494 0)
(-0.00455336 0.00379693 0)
(-0.00539675 0.00395015 0)
(-0.00626539 0.0040635 0)
(-0.00715103 0.00414642 0)
(-0.0080509 0.00420627 0)
(-0.00896034 0.00424976 0)
(-0.00987771 0.00428188 0)
(-0.0108005 0.00430672 0)
(-0.0117278 0.00432711 0)
(-0.0126583 0.00434511 0)
(-0.0135914 0.00436196 0)
(-0.0145263 0.00437837 0)
(-0.0154625 0.00439454 0)
(-0.0163995 0.00441038 0)
(-0.0173365 0.0044255 0)
(-0.0182729 0.00443932 0)
(-0.0192079 0.00445114 0)
(-0.0201403 0.00446015 0)
(-0.0210692 0.00446546 0)
(-0.0219932 0.00446616 0)
(-0.0229109 0.00446126 0)
(-0.0238207 0.00444979 0)
(-0.0247207 0.00443075 0)
(-0.025609 0.00440317 0)
(-0.0264835 0.00436606 0)
(-0.027342 0.00431848 0)
(-0.0281819 0.0042595 0)
(-0.0290009 0.00418826 0)
(-0.0297962 0.00410394 0)
(-0.0305651 0.0040058 0)
(-0.0313048 0.00389317 0)
(-0.0320126 0.00376546 0)
(-0.0326855 0.0036222 0)
(-0.0333207 0.00346301 0)
(-0.0339154 0.00328761 0)
(-0.0344668 0.00309587 0)
(-0.0349723 0.00288776 0)
(-0.0354293 0.00266338 0)
(-0.0358352 0.00242296 0)
(-0.0361879 0.00216685 0)
(-0.0364851 0.00189554 0)
(-0.0367248 0.00160964 0)
(-0.0369052 0.0013099 0)
(-0.0370247 0.00099719 0)
(-0.037082 0.00067249 0)
(-0.0370758 0.00033692 0)
(-0.0370052 -8.28231e-06 0)
(-0.0368694 -0.000361761 0)
(-0.0366679 -0.000722038 0)
(-0.0364005 -0.00108752 0)
(-0.036067 -0.0014565 0)
(-0.0356679 -0.00182715 0)
(-0.0352035 -0.00219756 0)
(-0.0346747 -0.0025657 0)
(-0.0340825 -0.00292946 0)
(-0.0334283 -0.00328665 0)
(-0.0327138 -0.00363502 0)
(-0.031941 -0.00397229 0)
(-0.0311121 -0.00429616 0)
(-0.03023 -0.00460431 0)
(-0.0292975 -0.00489449 0)
(-0.0283181 -0.0051645 0)
(-0.0272955 -0.00541224 0)
(-0.0262336 -0.00563574 0)
(-0.0251368 -0.00583321 0)
(-0.0240097 -0.00600305 0)
(-0.0228571 -0.00614392 0)
(-0.0216843 -0.0062547 0)
(-0.0204963 -0.0063346 0)
(-0.0192988 -0.00638312 0)
(-0.018097 -0.00640008 0)
(-0.0168965 -0.00638565 0)
(-0.0157027 -0.0063403 0)
(-0.0145211 -0.00626486 0)
(-0.0133567 -0.00616043 0)
(-0.0122145 -0.00602843 0)
(-0.0110992 -0.0058705 0)
(-0.0100152 -0.00568853 0)
(-0.00896653 -0.00548458 0)
(-0.00795679 -0.00526085 0)
(-0.00698921 -0.00501962 0)
(-0.0060666 -0.00476322 0)
(-0.00519134 -0.00449398 0)
(-0.00436539 -0.00421418 0)
(-0.0035903 -0.00392601 0)
(-0.00286726 -0.00363156 0)
(-0.00219708 -0.00333275 0)
(-0.00158028 -0.00303133 0)
(-0.00101707 -0.00272886 0)
(-0.000507418 -0.00242675 0)
(-5.11064e-05 -0.00212618 0)
(0.000352297 -0.00182819 0)
(0.000703325 -0.00153369 0)
(0.0010027 -0.00124348 0)
(0.00125117 -0.000958307 0)