/*--------------------------------*- C++ -*----------------------------------*\
| =========                 |                                                 |
| \\      /  F ield         | OpenFOAM: The Open Source CFD Toolbox           |
|  \\    /   O peration     | Version:  2406                                  |
|   \\  /    A nd           | Website:  www.openfoam.com                      |
|    \\/     M anipulation  |                                                 |
\*---------------------------------------------------------------------------*/
FoamFile
{
    version     2.0;
    format      ascii;
    arch        "LSB;label=32;scalar=64";
    class       volVectorField;
    location    "45.65";
    object      U_0;
}
// * * * * * * * * * * * * * * * * * * * * * * * * * * * * * * * * * * * * * //

dimensions      [0 1 -1 0 0 0 0];

internalField   nonuniform List<vector> 
14400
(
(-6.77474e-06 6.67047e-06 0)
(1.62969e-05 -1.17391e-05 0)
(0.000126317 -3.54589e-05 0)
(0.000318369 -5.45936e-05 0)
(0.000572276 -6.7748e-05 0)
(0.000865335 -7.47567e-05 0)
(0.00117496 -7.62464e-05 0)
(0.00148123 -7.31412e-05 0)
(0.00176806 -6.65639e-05 0)
(0.0020238 -5.77073e-05 0)
(0.00224135 -4.77345e-05 0)
(0.00241793 -3.76839e-05 0)
(0.00255453 -2.83968e-05 0)
(0.00265499 -2.0473e-05 0)
(0.00272511 -1.42519e-05 0)
(0.0027716 -9.81219e-06 0)
(0.00280126 -7.04687e-06 0)
(0.00282 -5.7789e-06 0)
(0.00283221 -5.57008e-06 0)
(0.00284052 -5.91252e-06 0)
(0.00284552 -6.2865e-06 0)
(0.00284585 -6.0419e-06 0)
(0.00283871 -4.67564e-06 0)
(0.00281986 -2.12271e-06 0)
(0.00278388 1.71725e-06 0)
(0.00272488 6.93474e-06 0)
(0.00263673 1.35619e-05 0)
(0.00251316 2.16071e-05 0)
(0.00234787 3.10827e-05 0)
(0.00213445 4.20182e-05 0)
(0.00186638 5.44623e-05 0)
(0.00153698 6.84742e-05 0)
(0.00113938 8.41108e-05 0)
(0.000666648 0.000101411 0)
(0.000111844 0.000120382 0)
(-0.00053176 0.000140991 0)
(-0.00127049 0.000163154 0)
(-0.00211003 0.000186738 0)
(-0.00305519 0.000211549 0)
(-0.00410961 0.000237337 0)
(-0.00527553 0.000263797 0)
(-0.00655355 0.000290567 0)
(-0.00794237 0.000317232 0)
(-0.00943862 0.000343333 0)
(-0.0110367 0.000368371 0)
(-0.0127285 0.000391814 0)
(-0.0145038 0.000413111 0)
(-0.0163496 0.000431694 0)
(-0.0182507 0.000446993 0)
(-0.0201895 0.000458441 0)
(-0.0221462 0.000465485 0)
(-0.0240993 0.000467589 0)
(-0.0260252 0.000464248 0)
(-0.027899 0.000454988 0)
(-0.0296946 0.000439384 0)
(-0.031385 0.000417058 0)
(-0.0329427 0.000387695 0)
(-0.0343401 0.000351066 0)
(-0.0355499 0.000307019 0)
(-0.0365454 0.000255396 0)
(-0.0373023 0.000196657 0)
(-0.0377971 0.000133016 0)
(-0.0380054 6.43445e-05 0)
(-0.037908 -1.30225e-05 0)
(-0.0374944 -9.61468e-05 0)
(-0.036752 -0.000182614 0)
(-0.0356743 -0.000271217 0)
(-0.0342608 -0.000360468 0)
(-0.0325167 -0.000448609 0)
(-0.0304537 -0.000533688 0)
(-0.0280905 -0.000613611 0)
(-0.0254524 -0.000686212 0)
(-0.022572 -0.000749342 0)
(-0.019488 -0.000800963 0)
(-0.0162458 -0.000839257 0)
(-0.0128953 -0.000862725 0)
(-0.00949104 -0.000870297 0)
(-0.00608973 -0.000861409 0)
(-0.00274924 -0.000836078 0)
(0.000473432 -0.000794929 0)
(0.00352399 -0.000739197 0)
(0.0063527 -0.000670684 0)
(0.00891612 -0.000591681 0)
(0.0111786 -0.000504849 0)
(0.0131133 -0.000413076 0)
(0.0147033 -0.000319319 0)
(0.0159413 -0.000226443 0)
(0.0168302 -0.000137049 0)
(0.0173819 -5.32042e-05 0)
(0.0176183 2.26371e-05 0)
(0.0175641 8.67066e-05 0)
(0.0172502 0.000140982 0)
(0.0167153 0.000186786 0)
(0.0159984 0.00022292 0)
(0.0151372 0.00024902 0)
(0.0141689 0.000265877 0)
(0.0131287 0.000274534 0)
(0.0120489 0.00027611 0)
(0.0109574 0.000271778 0)
(0.00987827 0.000262712 0)
(0.00883082 0.000250029 0)
(0.00783017 0.00023476 0)
(0.00688732 0.000217824 0)
(0.00600954 0.000200014 0)
(0.00520088 0.000181997 0)
(0.00446264 0.000164316 0)
(0.00379387 0.000147398 0)
(0.00319182 0.000131568 0)
(0.00265242 0.000117047 0)
(0.00217076 0.000103948 0)
(0.00174153 9.22603e-05 0)
(0.00135971 8.1813e-05 0)
(0.00102121 7.22402e-05 0)
(0.000723739 6.29493e-05 0)
(0.00046763 5.31177e-05 0)
(0.000256476 4.17926e-05 0)
(9.71689e-05 2.8163e-05 0)
(-1.62563e-06 1.20328e-05 0)
(-3.60914e-05 -4.41937e-06 0)
(-1.35379e-05 -1.35542e-05 0)
(1.05748e-05 -1.54053e-05 0)
(0.000155855 -0.00016033 0)
(0.000484641 -0.000335611 0)
(0.000989933 -0.000481444 0)
(0.00162567 -0.00058369 0)
(0.00234566 -0.000639445 0)
(0.00310098 -0.000651726 0)
(0.00384709 -0.00062687 0)
(0.00454691 -0.000573149 0)
(0.0051726 -0.000499685 0)
(0.00570615 -0.000415569 0)
(0.00613907 -0.000329072 0)
(0.00647122 -0.000247035 0)
(0.00670909 -0.000174464 0)
(0.00686374 -0.000114346 0)
(0.00694852 -6.7658e-05 0)
(0.00697694 -3.3592e-05 0)
(0.00696085 -9.94258e-06 0)
(0.0069089 6.67757e-06 0)
(0.00682543 2.03323e-05 0)
(0.00671024 3.52017e-05 0)
(0.00655846 5.52822e-05 0)
(0.00636085 8.39181e-05 0)
(0.00610489 0.000123416 0)
(0.00577576 0.000175355 0)
(0.00535697 0.000240656 0)
(0.00483114 0.000319755 0)
(0.00418048 0.000412834 0)
(0.00338703 0.000520001 0)
(0.00243284 0.000641395 0)
(0.00129997 0.000777199 0)
(-2.93091e-05 0.000927568 0)
(-0.00157236 0.00109252 0)
(-0.00334575 0.00127183 0)
(-0.00536482 0.00146489 0)
(-0.00764301 0.00167065 0)
(-0.0101913 0.00188755 0)
(-0.0130173 0.0021135 0)
(-0.016125 0.00234585 0)
(-0.0195135 0.00258141 0)
(-0.0231771 0.0028165 0)
(-0.0271044 0.00304697 0)
(-0.0312778 0.00326828 0)
(-0.0356741 0.00347565 0)
(-0.0402638 0.00366408 0)
(-0.0450114 0.00382854 0)
(-0.049876 0.00396406 0)
(-0.0548118 0.00406586 0)
(-0.0597685 0.00412945 0)
(-0.0646924 0.00415076 0)
(-0.0695271 0.00412618 0)
(-0.0742143 0.00405271 0)
(-0.0786951 0.00392792 0)
(-0.0829103 0.00375007 0)
(-0.0868019 0.00351811 0)
(-0.0903134 0.00323171 0)
(-0.093391 0.0028913 0)
(-0.0959841 0.00249806 0)
(-0.0980459 0.00205405 0)
(-0.099534 0.00156209 0)
(-0.100411 0.00102615 0)
(-0.100646 0.00045236 0)
(-0.100217 -0.000153122 0)
(-0.099102 -0.000787706 0)
(-0.0972906 -0.00144225 0)
(-0.0947814 -0.00210759 0)
(-0.0915812 -0.00277382 0)
(-0.0877052 -0.00343026 0)
(-0.0831784 -0.00406549 0)
(-0.0780358 -0.0046675 0)
(-0.0723223 -0.00522395 0)
(-0.066093 -0.00572249 0)
(-0.0594127 -0.00615112 0)
(-0.0523556 -0.00649865 0)
(-0.0450044 -0.00675514 0)
(-0.0374494 -0.00691236 0)
(-0.0297867 -0.00696431 0)
(-0.0221169 -0.00690759 0)
(-0.0145425 -0.00674174 0)
(-0.00716599 -0.0064695 0)
(-8.74571e-05 -0.00609686 0)
(0.00659838 -0.00563301 0)
(0.0128045 -0.00509009 0)
(0.018454 -0.00448273 0)
(0.0234824 -0.00382757 0)
(0.0278396 -0.00314249 0)
(0.0314911 -0.00244593 0)
(0.034419 -0.00175606 0)
(0.0366221 -0.00109004 0)
(0.0381151 -0.000463606 0)
(0.0389291 0.000108305 0)
(0.0391116 0.000618083 0)
(0.0387189 0.00105985 0)
(0.0378161 0.00142822 0)
(0.0364769 0.00172122 0)
(0.0347785 0.00194038 0)
(0.0327985 0.00208976 0)
(0.0306127 0.00217531 0)
(0.0282924 0.0022044 0)
(0.0259026 0.0021853 0)
(0.0235003 0.00212662 0)
(0.021134 0.00203692 0)
(0.0188427 0.00192434 0)
(0.0166569 0.0017963 0)
(0.0145982 0.00165938 0)
(0.0126807 0.0015192 0)
(0.0109115 0.0013804 0)
(0.00929223 0.00124665 0)
(0.00781979 0.00112063 0)
(0.00648786 0.00100398 0)
(0.00528816 0.000897122 0)
(0.00421204 0.00079912 0)
(0.00325214 0.000707419 0)
(0.00240428 0.000617767 0)
(0.0016691 0.000524393 0)
(0.00105314 0.000420898 0)
(0.000568495 0.000302348 0)
(0.00022869 0.000169702 0)
(4.3118e-05 3.77386e-05 0)
(-3.31807e-06 -3.51389e-05 0)
(3.25327e-05 -0.000119458 0)
(0.000321074 -0.000484895 0)
(0.000852727 -0.000870514 0)
(0.00161507 -0.00118973 0)
(0.00253978 -0.00141413 0)
(0.00356825 -0.00153589 0)
(0.00463657 -0.0015599 0)
(0.00568568 -0.00149899 0)
(0.00666571 -0.00137084 0)
(0.00753844 -0.00119547 0)
(0.00827818 -0.000993116 0)
(0.00887153 -0.000782395 0)
(0.00931598 -0.000578876 0)
(0.0096177 -0.000394103 0)
(0.00978888 -0.000235093 0)
(0.00984475 -0.000104302 0)
(0.00980074 4.05165e-08 0)
(0.00966991 8.3227e-05 0)
(0.00946096 0.000153068 0)
(0.0091767 0.00021895 0)
(0.00881343 0.000290642 0)
(0.00836099 0.000377245 0)
(0.00780336 0.00048651 0)
(0.00711975 0.000624512 0)
(0.00628593 0.00079537 0)
(0.00527533 0.00100153 0)
(0.0040601 0.0012442 0)
(0.00261191 0.00152384 0)
(0.000902465 0.00184052 0)
(-0.00109605 0.0021941 0)
(-0.00341055 0.00258425 0)
(-0.00606657 0.00301026 0)
(-0.00908755 0.00347079 0)
(-0.012494 0.00396355 0)
(-0.0163024 0.00448514 0)
(-0.0205243 0.00503083 0)
(-0.0251651 0.00559451 0)
(-0.030223 0.00616866 0)
(-0.0356881 0.00674444 0)
(-0.0415417 0.00731182 0)
(-0.0477558 0.00785975 0)
(-0.0542932 0.00837649 0)
(-0.0611074 0.00884987 0)
(-0.0681435 0.00926767 0)
(-0.0753386 0.00961796 0)
(-0.0826237 0.00988948 0)
(-0.0899246 0.010072 0)
(-0.0971634 0.0101564 0)
(-0.104261 0.0101353 0)
(-0.111136 0.0100029 0)
(-0.117712 0.00975488 0)
(-0.123911 0.00938903 0)
(-0.129661 0.00890468 0)
(-0.134894 0.00830286 0)
(-0.139547 0.00758616 0)
(-0.143564 0.00675861 0)
(-0.146894 0.00582566 0)
(-0.149492 0.00479399 0)
(-0.151322 0.00367162 0)
(-0.152352 0.00246775 0)
(-0.152558 0.00119246 0)
(-0.151921 -0.000143231 0)
(-0.150434 -0.0015249 0)
(-0.148094 -0.00293769 0)
(-0.144903 -0.00436736 0)
(-0.140873 -0.00579737 0)
(-0.136025 -0.0072094 0)
(-0.130384 -0.00858393 0)
(-0.123989 -0.0099005 0)
(-0.116883 -0.0111379 0)
(-0.109121 -0.0122745 0)
(-0.100764 -0.013289 0)
(-0.0918847 -0.0141603 0)
(-0.0825632 -0.014869 0)
(-0.0728879 -0.0153975 0)
(-0.0629548 -0.015731 0)
(-0.0528664 -0.0158583 0)
(-0.0427301 -0.0157722 0)
(-0.0326571 -0.0154706 0)
(-0.0227599 -0.0149565 0)
(-0.0131504 -0.0142386 0)
(-0.00393784 -0.013331 0)
(0.00477408 -0.0122534 0)
(0.0128893 -0.01103 0)
(0.0203219 -0.00968965 0)
(0.0269981 -0.00826399 0)
(0.0328585 -0.00678698 0)
(0.0378593 -0.00529343 0)
(0.0419736 -0.0038178 0)
(0.0451922 -0.00239272 0)
(0.0475251 -0.001047 0)
(0.0489998 0.000193025 0)
(0.0496588 0.00130497 0)
(0.0495602 0.00227321 0)
(0.0487768 0.00308813 0)
(0.0473915 0.0037455 0)
(0.0454947 0.00424665 0)
(0.0431806 0.00459806 0)
(0.0405443 0.00481062 0)
(0.0376781 0.00489862 0)
(0.0346687 0.00487876 0)
(0.0315945 0.00476904 0)
(0.0285242 0.00458779 0)
(0.0255151 0.00435276 0)
(0.0226131 0.00408053 0)
(0.0198529 0.00378594 0)
(0.0172585 0.00348182 0)
(0.0148443 0.00317878 0)
(0.0126169 0.00288499 0)
(0.0105764 0.00260599 0)
(0.00871871 0.00234435 0)
(0.00703734 0.00209929 0)
(0.00552622 0.0018663 0)
(0.00418184 0.00163714 0)
(0.00300555 0.00140048 0)
(0.00200479 0.00114395 0)
(0.00119284 0.000858329 0)
(0.000583051 0.000545546 0)
(0.000195703 0.000231273 0)
(1.60087e-05 7.33533e-06 0)
(4.9948e-05 -0.000299793 0)
(0.000459408 -0.00097916 0)
(0.00116288 -0.00163104 0)
(0.00213517 -0.00216001 0)
(0.00328333 -0.00252729 0)
(0.00453784 -0.00272126 0)
(0.00582397 -0.00274954 0)
(0.00707331 -0.00263289 0)
(0.00822809 -0.00240038 0)
(0.00924378 -0.00208524 0)
(0.01009 -0.00172127 0)
(0.0107499 -0.00133965 0)
(0.0112189 -0.000966545 0)
(0.0115018 -0.000621399 0)
(0.0116098 -0.000316026 0)
(0.0115571 -5.44827e-05 0)
(0.0113579 0.000166397 0)
(0.0110229 0.000355876 0)
(0.0105574 0.000527689 0)
(0.00995964 0.000698193 0)
(0.0092198 0.000884487 0)
(0.00832046 0.00110263 0)
(0.00723734 0.00136633 0)
(0.00594062 0.00168616 0)
(0.00439651 0.00206936 0)
(0.00256883 0.00252023 0)
(0.000420265 0.00304077 0)
(-0.00208646 0.0036314 0)
(-0.00498766 0.00429147 0)
(-0.00831783 0.00501953 0)
(-0.0121086 0.0058132 0)
(-0.0163878 0.00666882 0)
(-0.0211779 0.00758105 0)
(-0.0264946 0.00854239 0)
(-0.0323454 0.0095429 0)
(-0.0387283 0.01057 0)
(-0.0456299 0.0116086 0)
(-0.0530253 0.0126412 0)
(-0.0608769 0.0136483 0)
(-0.0691347 0.0146087 0)
(-0.0777368 0.0155008 0)
(-0.0866104 0.0163022 0)
(-0.0956735 0.0169918 0)
(-0.104837 0.0175493 0)
(-0.114007 0.0179566 0)
(-0.123088 0.0181985 0)
(-0.131983 0.0182624 0)
(-0.140599 0.0181392 0)
(-0.148847 0.0178232 0)
(-0.156642 0.017312 0)
(-0.163908 0.016606 0)
(-0.170577 0.0157088 0)
(-0.176587 0.0146261 0)
(-0.181886 0.013366 0)
(-0.186427 0.011938 0)
(-0.190175 0.0103535 0)
(-0.193096 0.00862479 0)
(-0.195168 0.0067655 0)
(-0.196372 0.00479021 0)
(-0.196694 0.00271455 0)
(-0.196127 0.0005552 0)
(-0.194667 -0.00167049 0)
(-0.192315 -0.00394433 0)
(-0.189079 -0.00624435 0)
(-0.18497 -0.00854868 0)
(-0.180004 -0.010834 0)
(-0.174202 -0.0130754 0)
(-0.167592 -0.0152462 0)
(-0.160209 -0.0173182 0)
(-0.152093 -0.0192624 0)
(-0.143292 -0.0210488 0)
(-0.133864 -0.0226474 0)
(-0.123872 -0.0240287 0)
(-0.11339 -0.0251647 0)
(-0.102498 -0.0260298 0)
(-0.0912867 -0.0266019 0)
(-0.0798518 -0.0268634 0)
(-0.0682962 -0.0268022 0)
(-0.056728 -0.0264126 0)
(-0.0452584 -0.0256964 0)
(-0.0340003 -0.0246627 0)
(-0.023066 -0.0233287 0)
(-0.0125647 -0.0217193 0)
(-0.00260077 -0.0198665 0)
(0.0067289 -0.0178089 0)
(0.0153368 -0.0155901 0)
(0.0231467 -0.013258 0)
(0.0300955 -0.0108625 0)
(0.0361343 -0.0084546 0)
(0.0412301 -0.0060842 0)
(0.0453665 -0.00379878 0)
(0.048543 -0.0016429 0)
(0.0507769 0.000344522 0)
(0.0521034 0.00213199 0)
(0.0525734 0.00369532 0)
(0.0522528 0.00501814 0)
(0.0512208 0.00609259 0)
(0.0495674 0.00691934 0)
(0.0473897 0.00750704 0)
(0.044789 0.00787141 0)
(0.0418668 0.0080339 0)
(0.0387211 0.00802024 0)
(0.0354431 0.00785871 0)
(0.0321148 0.00757857 0)
(0.0288068 0.00720858 0)
(0.0255776 0.00677581 0)
(0.0224727 0.00630469 0)
(0.0195257 0.00581623 0)
(0.0167593 0.00532748 0)
(0.0141867 0.00485087 0)
(0.0118137 0.00439358 0)
(0.00964164 0.0039569 0)
(0.00766978 0.00353571 0)
(0.00589818 0.00311859 0)
(0.00433047 0.00268898 0)
(0.00297566 0.00222837 0)
(0.00184882 0.00172243 0)
(0.00096503 0.00117148 0)
(0.000363463 0.000605641 0)
(3.73016e-05 0.000129081 0)
(6.29629e-05 -0.000539612 0)
(0.000566965 -0.00160593 0)
(0.00140831 -0.00256209 0)
(0.0025466 -0.00331659 0)
(0.00386391 -0.0038277 0)
(0.00527885 -0.00408407 0)
(0.00670688 -0.00409847 0)
(0.0080724 -0.00390132 0)
(0.00931252 -0.0035346 0)
(0.0103792 -0.00304603 0)
(0.0112395 -0.00248396 0)
(0.0118752 -0.00189289 0)
(0.01228 -0.00130995 0)
(0.0124572 -0.000762544 0)
(0.0124161 -0.000266999 0)
(0.0121681 0.000171632 0)
(0.0117233 0.000558777 0)
(0.0110874 0.000908731 0)
(0.0102593 0.00124231 0)
(0.00922968 0.00158406 0)
(0.00798012 0.00195944 0)
(0.0064839 0.00239225 0)
(0.00470707 0.00290259 0)
(0.00261017 0.00350579 0)
(0.000150169 0.00421213 0)
(-0.00271766 0.0050273 0)
(-0.00603802 0.0059533 0)
(-0.00985406 0.00698933 0)
(-0.0142059 0.00813235 0)
(-0.019129 0.00937727 0)
(-0.0246528 0.0107167 0)
(-0.0307983 0.0121403 0)
(-0.0375765 0.0136345 0)
(-0.0449866 0.0151818 0)
(-0.0530136 0.0167604 0)
(-0.061628 0.018345 0)
(-0.0707844 0.0199065 0)
(-0.0804217 0.0214133 0)
(-0.0904645 0.0228321 0)
(-0.100824 0.0241293 0)
(-0.111402 0.0252718 0)
(-0.122092 0.0262289 0)
(-0.132783 0.0269733 0)
(-0.143365 0.027482 0)
(-0.15373 0.0277368 0)
(-0.163776 0.027725 0)
(-0.173408 0.0274395 0)
(-0.182542 0.0268779 0)
(-0.191103 0.0260428 0)
(-0.199026 0.0249407 0)
(-0.206257 0.0235816 0)
(-0.212753 0.021978 0)
(-0.218476 0.0201443 0)
(-0.2234 0.0180965 0)
(-0.227501 0.0158515 0)
(-0.230765 0.0134269 0)
(-0.233178 0.0108407 0)
(-0.234734 0.00811134 0)
(-0.235426 0.00525759 0)
(-0.235252 0.00229878 0)
(-0.23421 -0.000744829 0)
(-0.232303 -0.00385199 0)
(-0.229533 -0.0070011 0)
(-0.225906 -0.0101681 0)
(-0.22143 -0.0133272 0)
(-0.216116 -0.0164506 0)
(-0.209978 -0.0195086 0)
(-0.203036 -0.0224693 0)
(-0.195313 -0.0252985 0)
(-0.18684 -0.0279605 0)
(-0.177653 -0.030418 0)
(-0.167797 -0.0326331 0)
(-0.157326 -0.034568 0)
(-0.1463 -0.036186 0)
(-0.134792 -0.037453 0)
(-0.12288 -0.0383385 0)
(-0.110655 -0.0388173 0)
(-0.098213 -0.0388708 0)
(-0.085658 -0.0384881 0)
(-0.0730995 -0.0376674 0)
(-0.0606502 -0.0364165 0)
(-0.0484241 -0.0347531 0)
(-0.0365342 -0.0327053 0)
(-0.0250901 -0.0303102 0)
(-0.0141955 -0.0276138 0)
(-0.0039465 -0.024669 0)
(0.00557064 -0.0215346 0)
(0.0142807 -0.0182733 0)
(0.0221207 -0.0149495 0)
(0.029041 -0.0116281 0)
(0.0350059 -0.00837244 0)
(0.0399938 -0.0052427 0)
(0.0439986 -0.00229331 0)
(0.0470298 0.00042711 0)
(0.0491123 0.00287757 0)
(0.0502871 0.0050263 0)
(0.0506104 0.00685159 0)
(0.0501525 0.00834234 0)
(0.0489966 0.00949831 0)
(0.0472356 0.0103297 0)
(0.0449693 0.0108563 0)
(0.0423007 0.0111059 0)
(0.0393317 0.0111125 0)
(0.0361599 0.0109138 0)
(0.0328752 0.0105497 0)
(0.029557 0.0100595 0)
(0.0262728 0.00948038 0)
(0.0230771 0.00884593 0)
(0.0200122 0.00818456 0)
(0.0171085 0.00751842 0)
(0.0143866 0.0068621 0)
(0.01186 0.00622165 0)
(0.00953703 0.00559375 0)
(0.00742486 0.00496584 0)
(0.00553201 0.00431762 0)
(0.00387138 0.00362495 0)
(0.00246233 0.00286699 0)
(0.001325 0.00203771 0)
(0.00052158 0.00116119 0)
(5.70242e-05 0.000332017 0)
(7.25548e-05 -0.000824744 0)
(0.000648862 -0.002338 0)
(0.0015972 -0.00363052 0)
(0.00286179 -0.00462011 0)
(0.00430081 -0.00526817 0)
(0.00581986 -0.00556832 0)
(0.00732462 -0.00554208 0)
(0.00873315 -0.00523231 0)
(0.00997899 -0.0046959 0)
(0.0110124 -0.00399651 0)
(0.0118001 -0.00319786 0)
(0.0123234 -0.00235795 0)
(0.0125755 -0.00152463 0)
(0.0125585 -0.000732526 0)
(0.0122786 -1.41014e-06 0)
(0.0117431 0.000663954 0)
(0.0109561 0.00127271 0)
(0.00991559 0.00184559 0)
(0.0086115 0.00241176 0)
(0.00702417 0.00300497 0)
(0.00512449 0.00365969 0)
(0.00287482 0.00440761 0)
(0.000230843 0.00527499 0)
(-0.00285625 0.00628121 0)
(-0.00643732 0.00743848 0)
(-0.010563 0.00875239 0)
(-0.0152813 0.010223 0)
(-0.020636 0.0118458 0)
(-0.0266638 0.013612 0)
(-0.0333926 0.0155092 0)
(-0.0408386 0.01752 0)
(-0.0490044 0.0196224 0)
(-0.0578762 0.0217885 0)
(-0.0674223 0.0239851 0)
(-0.0775925 0.0261736 0)
(-0.0883175 0.0283112 0)
(-0.0995106 0.0303521 0)
(-0.11107 0.0322494 0)
(-0.122882 0.0339573 0)
(-0.134826 0.0354324 0)
(-0.146777 0.0366364 0)
(-0.158612 0.0375371 0)
(-0.170214 0.0381095 0)
(-0.181475 0.0383365 0)
(-0.192298 0.0382086 0)
(-0.202598 0.0377237 0)
(-0.212305 0.0368863 0)
(-0.221361 0.035706 0)
(-0.229721 0.0341971 0)
(-0.237349 0.0323768 0)
(-0.24422 0.0302647 0)
(-0.250315 0.0278814 0)
(-0.255622 0.0252484 0)
(-0.260132 0.0223869 0)
(-0.26384 0.0193183 0)
(-0.266742 0.0160631 0)
(-0.268837 0.0126418 0)
(-0.270122 0.00907424 0)
(-0.270595 0.00538051 0)
(-0.270256 0.00158078 0)
(-0.269102 -0.00230411 0)
(-0.267131 -0.0062524 0)
(-0.264342 -0.0102405 0)
(-0.260732 -0.0142433 0)
(-0.256303 -0.018233 0)
(-0.251056 -0.0221794 0)
(-0.244994 -0.0260492 0)
(-0.238125 -0.0298062 0)
(-0.230462 -0.0334111 0)
(-0.222022 -0.0368218 0)
(-0.212828 -0.0399938 0)
(-0.202911 -0.0428812 0)
(-0.192313 -0.0454371 0)
(-0.181082 -0.0476156 0)
(-0.169278 -0.0493724 0)
(-0.156972 -0.0506674 0)
(-0.144245 -0.0514658 0)
(-0.131188 -0.0517404 0)
(-0.117902 -0.051473 0)
(-0.104497 -0.0506563 0)
(-0.0910849 -0.0492945 0)
(-0.0777854 -0.0474045 0)
(-0.0647167 -0.0450156 0)
(-0.0519955 -0.0421692 0)
(-0.0397337 -0.0389176 0)
(-0.0280358 -0.0353223 0)
(-0.016997 -0.0314522 0)
(-0.00670134 -0.0273812 0)
(0.00277907 -0.0231863 0)
(0.0113847 -0.0189452 0)
(0.0190689 -0.0147342 0)
(0.0257974 -0.010627 0)
(0.0315491 -0.00669239 0)
(0.0363156 -0.00299324 0)
(0.0401017 0.000414771 0)
(0.0429258 0.00348486 0)
(0.0448204 0.0061803 0)
(0.0458323 0.00847565 0)
(0.0460227 0.0103576 0)
(0.0454658 0.0118256 0)
(0.044247 0.0128914 0)
(0.042461 0.0135784 0)
(0.0402076 0.0139201 0)
(0.0375882 0.0139577 0)
(0.034702 0.0137378 0)
(0.0316422 0.0133093 0)
(0.0284934 0.0127212 0)
(0.0253289 0.0120194 0)
(0.0222099 0.0112449 0)
(0.0191854 0.0104313 0)
(0.0162933 0.00960314 0)
(0.0135616 0.00877369 0)
(0.0110114 0.00794408 0)
(0.00865976 0.00710294 0)
(0.00652325 0.00622792 0)
(0.00462159 0.00528974 0)
(0.00298139 0.00425946 0)
(0.00163079 0.00311983 0)
(0.000655551 0.00187947 0)
(7.3593e-05 0.000606965 0)
(7.99464e-05 -0.00114433 0)
(0.000711993 -0.00315093 0)
(0.00174131 -0.00480296 0)
(0.00309689 -0.00602934 0)
(0.0046144 -0.0067992 0)
(0.00618594 -0.00711589 0)
(0.00770737 -0.00701396 0)
(0.0090911 -0.00655212 0)
(0.0102682 -0.00580476 0)
(0.0111889 -0.00485307 0)
(0.0118207 -0.00377676 0)
(0.0121459 -0.00264717 0)
(0.0121579 -0.00152188 0)
(0.0118571 -0.000441288 0)
(0.0112465 0.000573212 0)
(0.0103275 0.00151912 0)
(0.00909619 0.00241121 0)
(0.00754075 0.00327838 0)
(0.00563952 0.00415938 0)
(0.00336061 0.00509786 0)
(0.000662635 0.0061373 0)
(-0.00250342 0.00731659 0)
(-0.00619163 0.0086668 0)
(-0.0104582 0.0102094 0)
(-0.0153584 0.0119562 0)
(-0.0209437 0.0139096 0)
(-0.0272591 0.0160642 0)
(-0.0343402 0.0184075 0)
(-0.0422103 0.0209204 0)
(-0.0508777 0.0235768 0)
(-0.0603326 0.0263439 0)
(-0.0705451 0.029181 0)
(-0.0814633 0.0320408 0)
(-0.0930138 0.0348692 0)
(-0.105102 0.0376079 0)
(-0.117616 0.0401961 0)
(-0.130429 0.0425731 0)
(-0.143408 0.0446816 0)
(-0.156414 0.0464702 0)
(-0.169314 0.0478955 0)
(-0.18198 0.0489236 0)
(-0.194298 0.0495313 0)
(-0.20617 0.0497056 0)
(-0.21751 0.0494435 0)
(-0.228253 0.0487505 0)
(-0.238345 0.047639 0)
(-0.247748 0.046127 0)
(-0.256436 0.0442366 0)
(-0.264392 0.041992 0)
(-0.271605 0.0394187 0)
(-0.27807 0.0365425 0)
(-0.283786 0.0333889 0)
(-0.288753 0.0299822 0)
(-0.292973 0.0263456 0)
(-0.296447 0.0225012 0)
(-0.299177 0.0184698 0)
(-0.301161 0.0142712 0)
(-0.302398 0.0099248 0)
(-0.302886 0.00544964 0)
(-0.30262 0.000865046 0)
(-0.301594 -0.00380892 0)
(-0.299802 -0.008551 0)
(-0.297236 -0.0133379 0)
(-0.293889 -0.018144 0)
(-0.289752 -0.0229408 0)
(-0.284818 -0.0276964 0)
(-0.279081 -0.0323752 0)
(-0.272538 -0.0369374 0)
(-0.265188 -0.0413395 0)
(-0.257036 -0.0455336 0)
(-0.24809 -0.0494687 0)
(-0.238368 -0.0530906 0)
(-0.227895 -0.0563434 0)
(-0.216705 -0.0591707 0)
(-0.204845 -0.0615175 0)
(-0.192373 -0.0633318 0)
(-0.179359 -0.0645674 0)
(-0.165887 -0.0651857 0)
(-0.152053 -0.0651585 0)
(-0.137963 -0.0644698 0)
(-0.123734 -0.0631176 0)
(-0.109491 -0.0611152 0)
(-0.09536 -0.0584914 0)
(-0.0814689 -0.0552902 0)
(-0.0679424 -0.0515695 0)
(-0.0548981 -0.0473994 0)
(-0.042444 -0.0428593 0)
(-0.0306759 -0.0380353 0)
(-0.0196761 -0.0330172 0)
(-0.00951264 -0.0278958 0)
(-0.000239626 -0.0227605 0)
(0.00810219 -0.0176971 0)
(0.0154844 -0.0127867 0)
(0.02189 -0.00810394 0)
(0.027313 -0.00371638 0)
(0.0317579 0.000316773 0)
(0.0352407 0.00394576 0)
(0.0377888 0.00713158 0)
(0.0394425 0.00984729 0)
(0.0402548 0.0120791 0)
(0.040292 0.013827 0)
(0.0396317 0.015105 0)
(0.0383619 0.0159403 0)
(0.0365772 0.0163714 0)
(0.0343758 0.0164462 0)
(0.0318553 0.0162187 0)
(0.0291095 0.0157457 0)
(0.0262247 0.0150838 0)
(0.0232775 0.0142854 0)
(0.0203336 0.013396 0)
(0.0174473 0.0124511 0)
(0.0146625 0.0114732 0)
(0.0120145 0.01047 0)
(0.00953267 0.00943341 0)
(0.00724427 0.00834069 0)
(0.0051785 0.00715795 0)
(0.00337168 0.0058469 0)
(0.00186202 0.00437517 0)
(0.000756718 0.00272889 0)
(8.60063e-05 0.000939578 0)
(8.60045e-05 -0.00149109 0)
(0.000761833 -0.0040256 0)
(0.0018502 -0.00605049 0)
(0.0032647 -0.00750655 0)
(0.00481958 -0.00837441 0)
(0.00639358 -0.0086719 0)
(0.00787327 -0.00845114 0)
(0.00916629 -0.00779069 0)
(0.0102026 -0.00678534 0)
(0.0109334 -0.00553545 0)
(0.0113285 -0.00413723 0)
(0.0113719 -0.00267464 0)
(0.0110574 -0.00121354 0)
(0.0103836 0.000202147 0)
(0.00934888 0.00155186 0)
(0.00794727 0.00283793 0)
(0.00616496 0.00408304 0)
(0.00397803 0.00532601 0)
(0.00135157 0.0066162 0)
(-0.00175972 0.00800719 0)
(-0.00540962 0.0095505 0)
(-0.0096574 0.0112903 0)
(-0.0145642 0.0132597 0)
(-0.0201893 0.0154789 0)
(-0.0265863 0.0179549 0)
(-0.0337998 0.0206826 0)
(-0.041862 0.0236456 0)
(-0.0507892 0.0268175 0)
(-0.0605786 0.0301621 0)
(-0.0712056 0.0336334 0)
(-0.0826212 0.0371763 0)
(-0.0947516 0.0407268 0)
(-0.107499 0.0442141 0)
(-0.120744 0.0475633 0)
(-0.134352 0.0506982 0)
(-0.148176 0.0535458 0)
(-0.162066 0.056039 0)
(-0.175876 0.0581209 0)
(-0.189469 0.059746 0)
(-0.202722 0.0608824 0)
(-0.215531 0.0615115 0)
(-0.227811 0.061627 0)
(-0.239494 0.0612341 0)
(-0.250531 0.0603467 0)
(-0.26089 0.058986 0)
(-0.270548 0.0571777 0)
(-0.279494 0.0549507 0)
(-0.287725 0.0523353 0)
(-0.295242 0.0493619 0)
(-0.302049 0.04606 0)
(-0.308151 0.0424578 0)
(-0.313554 0.0385818 0)
(-0.318265 0.0344564 0)
(-0.322289 0.0301042 0)
(-0.325628 0.0255462 0)
(-0.328284 0.0208016 0)
(-0.330258 0.0158889 0)
(-0.331548 0.0108255 0)
(-0.33215 0.00562888 0)
(-0.332059 0.000316673 0)
(-0.331266 -0.00509254 0)
(-0.329764 -0.0105788 0)
(-0.327542 -0.01612 0)
(-0.324586 -0.0216912 0)
(-0.320883 -0.0272643 0)
(-0.316419 -0.0328068 0)
(-0.31118 -0.0382823 0)
(-0.305151 -0.043649 0)
(-0.298321 -0.0488603 0)
(-0.290678 -0.0538642 0)
(-0.282218 -0.0586039 0)
(-0.27294 -0.063018 0)
(-0.262851 -0.0670419 0)
(-0.251968 -0.0706087 0)
(-0.240317 -0.0736515 0)
(-0.227939 -0.0761054 0)
(-0.214888 -0.0779099 0)
(-0.201235 -0.0790126 0)
(-0.187064 -0.0793711 0)
(-0.172478 -0.0789569 0)
(-0.157592 -0.0777575 0)
(-0.142535 -0.0757783 0)
(-0.127442 -0.0730439 0)
(-0.112456 -0.069598 0)
(-0.097718 -0.0655025 0)
(-0.0833665 -0.0608352 0)
(-0.0695295 -0.0556869 0)
(-0.0563226 -0.0501574 0)
(-0.0438453 -0.044352 0)
(-0.0321799 -0.0383772 0)
(-0.0213909 -0.0323374 0)
(-0.011526 -0.0263327 0)
(-0.00261802 -0.0204564 0)
(0.00531337 -0.0147943 0)
(0.0122592 -0.00942406 0)
(0.0182199 -0.00441439 0)
(0.0232042 0.00017512 0)
(0.0272296 0.00429491 0)
(0.0303226 0.00790657 0)
(0.0325202 0.0109841 0)
(0.0338705 0.0135151 0)
(0.0344333 0.0155018 0)
(0.03428 0.0169613 0)
(0.0334921 0.0179248 0)
(0.0321585 0.018436 0)
(0.0303731 0.0185485 0)
(0.0282303 0.0183226 0)
(0.0258222 0.0178212 0)
(0.0232351 0.0171058 0)
(0.0205468 0.0162323 0)
(0.0178257 0.0152467 0)
(0.0151302 0.0141814 0)
(0.0125098 0.0130519 0)
(0.0100074 0.0118548 0)
(0.00766241 0.0105684 0)
(0.00551544 0.00915468 0)
(0.00361404 0.00756541 0)
(0.00200744 0.00575076 0)
(0.000820445 0.00367029 0)
(9.37513e-05 0.00131248 0)
(9.12311e-05 -0.00186014 0)
(0.000801557 -0.00494654 0)
(0.00192925 -0.00734708 0)
(0.00337179 -0.00901567 0)
(0.00492298 -0.00994821 0)
(0.00644884 -0.0101818 0)
(0.00782779 -0.00979123 0)
(0.0089641 -0.00887901 0)
(0.00978802 -0.00756337 0)
(0.0102533 -0.0059654 0)
(0.0103327 -0.00419786 0)
(0.0100126 -0.00235621 0)
(0.00928675 -0.000512308 0)
(0.00815109 0.00128911 0)
(0.006598 0.00303143 0)
(0.00461234 0.00472472 0)
(0.00216842 0.00640195 0)
(-0.000771292 0.00811335 0)
(-0.00425581 0.00991918 0)
(-0.00834358 0.0118819 0)
(-0.013099 0.0140588 0)
(-0.0185881 0.0164959 0)
(-0.0248738 0.0192236 0)
(-0.0320113 0.0222555 0)
(-0.0400437 0.0255883 0)
(-0.0489982 0.0292026 0)
(-0.0588821 0.0330643 0)
(-0.0696795 0.0371259 0)
(-0.0813489 0.0413273 0)
(-0.093821 0.0455965 0)
(-0.106999 0.0498522 0)
(-0.120762 0.0540056 0)
(-0.134968 0.057965 0)
(-0.14946 0.0616399 0)
(-0.164079 0.0649459 0)
(-0.178663 0.067809 0)
(-0.193064 0.0701691 0)
(-0.207148 0.0719818 0)
(-0.220802 0.0732195 0)
(-0.233934 0.0738702 0)
(-0.246474 0.0739357 0)
(-0.258372 0.0734299 0)
(-0.269595 0.0723751 0)
(-0.280125 0.0708004 0)
(-0.289953 0.0687384 0)
(-0.29908 0.0662239 0)
(-0.30751 0.0632919 0)
(-0.315252 0.0599766 0)
(-0.322316 0.0563105 0)
(-0.328712 0.0523243 0)
(-0.33445 0.048046 0)
(-0.339541 0.0435015 0)
(-0.343992 0.0387141 0)
(-0.347812 0.033705 0)
(-0.351006 0.0284936 0)
(-0.353579 0.0230975 0)
(-0.355532 0.0175332 0)
(-0.356867 0.0118163 0)
(-0.357582 0.00596214 0)
(-0.357673 -1.37251e-05 0)
(-0.357134 -0.00609482 0)
(-0.355955 -0.0122634 0)
(-0.354127 -0.0184995 0)
(-0.351633 -0.0247802 0)
(-0.348457 -0.031079 0)
(-0.34458 -0.0373652 0)
(-0.33998 -0.0436028 0)
(-0.334634 -0.0497503 0)
(-0.328518 -0.0557601 0)
(-0.321609 -0.0615782 0)
(-0.313883 -0.067144 0)
(-0.305321 -0.0723907 0)
(-0.295911 -0.0772463 0)
(-0.285646 -0.0816345 0)
(-0.274528 -0.0854765 0)
(-0.262574 -0.0886934 0)
(-0.249816 -0.0912093 0)
(-0.2363 -0.0929543 0)
(-0.222095 -0.0938684 0)
(-0.207288 -0.0939055 0)
(-0.191985 -0.0930366 0)
(-0.176314 -0.0912533 0)
(-0.160417 -0.0885697 0)
(-0.144448 -0.0850239 0)
(-0.128568 -0.0806772 0)
(-0.112939 -0.0756125 0)
(-0.0977194 -0.0699309 0)
(-0.0830531 -0.063747 0)
(-0.0690688 -0.0571843 0)
(-0.0558742 -0.0503688 0)
(-0.0435544 -0.0434253 0)
(-0.0321718 -0.0364722 0)
(-0.0217679 -0.0296193 0)
(-0.0123663 -0.022966 0)
(-0.00397566 -0.0166007 0)
(0.00340604 -0.010601 0)
(0.0097893 -0.00503378 0)
(0.0151911 4.40267e-05 0)
(0.0196345 0.00458614 0)
(0.023149 0.00855752 0)
(0.0257719 0.0119356 0)
(0.0275494 0.0147117 0)
(0.028538 0.0168918 0)
(0.0288043 0.0184972 0)
(0.0284247 0.0195639 0)
(0.0274834 0.0201405 0)
(0.0260694 0.0202859 0)
(0.0242736 0.020065 0)
(0.0221856 0.0195445 0)
(0.0198903 0.0187877 0)
(0.0174657 0.0178496 0)
(0.0149823 0.0167713 0)
(0.0125022 0.0155764 0)
(0.0100811 0.0142667 0)
(0.00777133 0.0128222 0)
(0.00562554 0.0112015 0)
(0.00370299 0.00934631 0)
(0.00206382 0.00718888 0)
(0.000845495 0.00466101 0)
(9.67155e-05 0.00170692 0)
(9.57847e-05 -0.00224768 0)
(0.00083199 -0.0058998 0)
(0.00197928 -0.00866745 0)
(0.00341801 -0.0105203 0)
(0.0049226 -0.0114738 0)
(0.00634756 -0.0115899 0)
(0.00756495 -0.010971 0)
(0.00847755 -0.00974801 0)
(0.00901765 -0.00806546 0)
(0.0091428 -0.00606629 0)
(0.00882945 -0.00387931 0)
(0.00806601 -0.00160959 0)
(0.00684574 0.000667813 0)
(0.00516029 0.00291079 0)
(0.00299432 0.0051101 0)
(0.000321619 0.00728648 0)
(-0.00289682 0.00948527 0)
(-0.0067128 0.0117688 0)
(-0.0111888 0.0142073 0)
(-0.0163941 0.0168695 0)
(-0.0223995 0.0198144 0)
(-0.0292715 0.0230842 0)
(-0.0370668 0.0267005 0)
(-0.0458267 0.0306634 0)
(-0.0555724 0.0349515 0)
(-0.0663013 0.0395234 0)
(-0.0779835 0.0443201 0)
(-0.0905594 0.0492662 0)
(-0.103939 0.0542724 0)
(-0.118004 0.0592388 0)
(-0.132609 0.0640586 0)
(-0.147594 0.0686238 0)
(-0.162787 0.0728304 0)
(-0.178014 0.0765847 0)
(-0.193111 0.0798078 0)
(-0.207931 0.0824388 0)
(-0.222347 0.0844364 0)
(-0.236256 0.0857786 0)
(-0.249581 0.0864611 0)
(-0.262265 0.086494 0)
(-0.274272 0.0858994 0)
(-0.285582 0.0847076 0)
(-0.296188 0.0829541 0)
(-0.306089 0.0806776 0)
(-0.315293 0.0779177 0)
(-0.323811 0.0747134 0)
(-0.331656 0.0711025 0)
(-0.338841 0.0671204 0)
(-0.345382 0.0628002 0)
(-0.351293 0.0581721 0)
(-0.356589 0.0532639 0)
(-0.361284 0.0481004 0)
(-0.36539 0.042704 0)
(-0.368921 0.0370947 0)
(-0.371885 0.0312903 0)
(-0.374293 0.0253068 0)
(-0.376153 0.0191589 0)
(-0.377468 0.01286 0)
(-0.378243 0.00642293 0)
(-0.378477 -0.000139247 0)