/*--------------------------------*- C++ -*----------------------------------*\
| =========                 |                                                 |
| \\      /  F ield         | OpenFOAM: The Open Source CFD Toolbox           |
|  \\    /   O peration     | Version:  2406                                  |
|   \\  /    A nd           | Website:  www.openfoam.com                      |
|    \\/     M anipulation  |                                                 |
\*---------------------------------------------------------------------------*/
FoamFile
{
    version     2.0;
    format      ascii;
    arch        "LSB;label=32;scalar=64";
    class       volVectorField;
    location    "44";
    object      U;
}
// * * * * * * * * * * * * * * * * * * * * * * * * * * * * * * * * * * * * * //

dimensions      [0 1 -1 0 0 0 0];

internalField   nonuniform List<vector> 
3600
(
(-1.10614e-05 -2.81878e-06 0)
(0.000485653 -0.000234811 0)
(0.00145665 -0.000357203 0)
(0.0025488 -0.000376009 0)
(0.00358246 -0.000306017 0)
(0.00432808 -0.000210796 0)
(0.00482662 -0.000123454 0)
(0.00505898 -6.97775e-05 0)
(0.00516209 -4.95452e-05 0)
(0.00515415 -5.16897e-05 0)
(0.00510139 -5.81945e-05 0)
(0.00494915 -5.29562e-05 0)
(0.00466562 -2.65545e-05 0)
(0.00414911 2.56093e-05 0)
(0.0033281 0.000104207 0)
(0.00209621 0.000211441 0)
(0.00037151 0.00034964 0)
(-0.00194412 0.000518873 0)
(-0.00492479 0.0007088 0)
(-0.00864233 0.000904916 0)
(-0.013133 0.00110094 0)
(-0.0183942 0.00130738 0)
(-0.0243517 0.00153811 0)
(-0.0308547 0.00178974 0)
(-0.0376638 0.002028 0)
(-0.04446 0.0021963 0)
(-0.0508618 0.00223406 0)
(-0.0564574 0.0020959 0)
(-0.0608395 0.00175969 0)
(-0.0636373 0.00122861 0)
(-0.0645462 0.000526812 0)
(-0.0633465 -0.000303652 0)
(-0.0599261 -0.00120753 0)
(-0.0542902 -0.00211832 0)
(-0.0465809 -0.0029627 0)
(-0.0370771 -0.00366369 0)
(-0.0262059 -0.00414805 0)
(-0.0145176 -0.00435373 0)
(-0.00267541 -0.00424098 0)
(0.00861263 -0.00380218 0)
(0.0186342 -0.00307037 0)
(0.0267807 -0.00212188 0)
(0.032593 -0.00106963 0)
(0.0358675 -4.77044e-05 0)
(0.0366441 0.000816122 0)
(0.0352477 0.00142709 0)
(0.0321716 0.00174984 0)
(0.0280454 0.00181011 0)
(0.0234497 0.00168191 0)
(0.0189071 0.00145016 0)
(0.014732 0.00118766 0)
(0.0111398 0.000936191 0)
(0.00814754 0.000719511 0)
(0.00576644 0.000540864 0)
(0.00387288 0.000405849 0)
(0.00242559 0.000300297 0)
(0.00129487 0.000221249 0)
(0.000492405 0.000124141 0)
(1.16973e-05 1.58434e-05 0)
(-0.000100745 -0.000107933 0)
(0.000192959 -0.000463627 0)
(0.0014559 -0.00149687 0)
(0.00349862 -0.00200106 0)
(0.0056569 -0.00202635 0)
(0.00763935 -0.0016599 0)
(0.00904141 -0.00113457 0)
(0.00988273 -0.000610707 0)
(0.0101015 -0.000193977 0)
(0.0098657 0.000101131 0)
(0.00917159 0.000329124 0)
(0.00806245 0.000569904 0)
(0.00639405 0.000907777 0)
(0.00402978 0.00139269 0)
(0.000725863 0.00205592 0)
(-0.00372591 0.00290198 0)
(-0.00956744 0.00393027 0)
(-0.0169809 0.0051207 0)
(-0.026121 0.00644679 0)
(-0.0370254 0.00786781 0)
(-0.0495919 0.00933006 0)
(-0.0635119 0.0107368 0)
(-0.0782975 0.0119482 0)
(-0.0933144 0.0127981 0)
(-0.107868 0.0131377 0)
(-0.121273 0.012858 0)
(-0.132924 0.0119062 0)
(-0.142321 0.0102799 0)
(-0.149082 0.00802432 0)
(-0.152938 0.00521884 0)
(-0.153714 0.00197187 0)
(-0.151322 -0.00158911 0)
(-0.145753 -0.00531664 0)
(-0.137081 -0.00904828 0)
(-0.125461 -0.0126029 0)
(-0.11115 -0.0157868 0)
(-0.0945049 -0.018396 0)
(-0.0760101 -0.020232 0)
(-0.0562593 -0.0211168 0)
(-0.0359702 -0.0209224 0)
(-0.0159314 -0.0195945 0)
(0.00300756 -0.0171825 0)
(0.0200372 -0.01385 0)
(0.0344103 -0.00987466 0)
(0.045571 -0.00562055 0)
(0.0531473 -0.00149018 0)
(0.0570719 0.00213374 0)
(0.0575102 0.00495713 0)
(0.0549507 0.00681731 0)
(0.0500423 0.00771415 0)
(0.0436345 0.00778408 0)
(0.0365065 0.00725952 0)
(0.0294138 0.00638565 0)
(0.0228108 0.00538263 0)
(0.017051 0.00439231 0)
(0.0121641 0.00351571 0)
(0.0082058 0.00275857 0)
(0.00500951 0.00212366 0)
(0.00260807 0.00147237 0)
(0.000913565 0.000803067 0)
(6.92665e-05 4.12322e-05 0)
(0.000323186 -0.00140227 0)
(0.00205342 -0.00357674 0)
(0.0047048 -0.00456568 0)
(0.00732628 -0.00448202 0)
(0.00957626 -0.00359018 0)
(0.0109589 -0.00232127 0)
(0.0114907 -0.00102229 0)
(0.0110696 0.000115598 0)
(0.00982658 0.00106228 0)
(0.00767757 0.00195017 0)
(0.0045605 0.00295388 0)
(0.000201779 0.00426159 0)
(-0.00566769 0.00598082 0)
(-0.013409 0.00817336 0)
(-0.0233144 0.0108274 0)
(-0.0356421 0.0138997 0)
(-0.0504682 0.0172837 0)
(-0.0676441 0.0208132 0)
(-0.0866997 0.024214 0)
(-0.106909 0.0271449 0)
(-0.127383 0.0292585 0)
(-0.147231 0.0302978 0)
(-0.165671 0.0301202 0)
(-0.18209 0.0287022 0)
(-0.196055 0.0260993 0)
(-0.207284 0.0224225 0)
(-0.215609 0.0178056 0)
(-0.220938 0.0123996 0)
(-0.22323 0.00635933 0)
(-0.222469 -0.000150057 0)
(-0.218656 -0.00695626 0)
(-0.211808 -0.0138665 0)
(-0.201968 -0.0206676 0)
(-0.189212 -0.0271127 0)
(-0.173681 -0.0329266 0)
(-0.155588 -0.0378031 0)
(-0.135262 -0.041429 0)
(-0.113143 -0.0435021 0)
(-0.0898202 -0.0437803 0)
(-0.0659907 -0.0421181 0)
(-0.0424672 -0.0385221 0)
(-0.0200847 -0.0331714 0)
(0.000319365 -0.0264321 0)
(0.0180356 -0.018819 0)
(0.032474 -0.0109407 0)
(0.0432851 -0.00342033 0)
(0.0502829 0.00318423 0)
(0.0535673 0.00843976 0)
(0.0534074 0.0120946 0)
(0.0503845 0.0140999 0)
(0.0451847 0.0146199 0)
(0.0386965 0.0139757 0)
(0.0316573 0.0125795 0)
(0.0247938 0.010814 0)
(0.0184556 0.00899919 0)
(0.0129754 0.00728645 0)
(0.00831261 0.00574143 0)
(0.00463554 0.00419053 0)
(0.00183241 0.00256404 0)
(0.000262397 0.000685909 0)
(0.000409408 -0.00255661 0)
(0.00240813 -0.00596513 0)
(0.00528904 -0.00732087 0)
(0.00786245 -0.00687895 0)
(0.00977113 -0.00519622 0)
(0.0104914 -0.00290916 0)
(0.0100564 -0.000551535 0)
(0.008319 0.00164749 0)
(0.00531985 0.00368055 0)
(0.000831414 0.00579718 0)
(-0.00537698 0.0082785 0)
(-0.0137304 0.0114058 0)
(-0.0246026 0.015305 0)
(-0.0383621 0.0200065 0)
(-0.0551635 0.0253878 0)
(-0.0749018 0.0312096 0)
(-0.09706 0.0370424 0)
(-0.120782 0.0423434 0)
(-0.145002 0.0465518 0)
(-0.168689 0.0492573 0)
(-0.190994 0.0502379 0)
(-0.211319 0.049464 0)
(-0.229292 0.0470222 0)
(-0.244715 0.043076 0)
(-0.257499 0.0378071 0)
(-0.267617 0.0314054 0)
(-0.275071 0.0240435 0)
(-0.279868 0.0158877 0)
(-0.282007 0.0070901 0)
(-0.281468 -0.00219169 0)
(-0.278221 -0.0117943 0)
(-0.272215 -0.0215247 0)
(-0.2634 -0.0311575 0)
(-0.251732 -0.0404121 0)
(-0.237202 -0.0489568 0)
(-0.219853 -0.0563989 0)
(-0.199825 -0.0623115 0)
(-0.177376 -0.0662538 0)
(-0.152933 -0.0678352 0)
(-0.127083 -0.0667684 0)
(-0.100598 -0.062955 0)
(-0.0743554 -0.0565282 0)
(-0.0493082 -0.0478898 0)
(-0.0263263 -0.0376649 0)
(-0.00616187 -0.0266323 0)
(0.0106897 -0.0156045 0)
(0.023908 -0.00533064 0)
(0.0334237 0.00357076 0)
(0.0392599 0.0106494 0)
(0.0416825 0.015644 0)
(0.041048 0.0185163 0)
(0.0380113 0.0194563 0)
(0.0332309 0.0188578 0)
(0.0275487 0.0172166 0)
(0.0215319 0.0150357 0)
(0.0158056 0.0126726 0)
(0.0105441 0.0103236 0)
(0.00614366 0.00787701 0)
(0.0025646 0.00515793 0)
(0.000423344 0.00182671 0)
(0.000465495 -0.00392676 0)
(0.002565 -0.00858984 0)
(0.00535425 -0.0101006 0)
(0.00745292 -0.00895805 0)
(0.00850023 -0.00613152 0)
(0.0079862 -0.00247408 0)
(0.00595609 0.00130626 0)
(0.00220484 0.00501158 0)
(-0.00336467 0.00871241 0)
(-0.0111542 0.0128156 0)
(-0.0215649 0.0176946 0)
(-0.0350949 0.0236631 0)
(-0.0520472 0.0307504 0)
(-0.0724836 0.038776 0)
(-0.0960012 0.0472481 0)
(-0.121758 0.0554748 0)
(-0.148579 0.0626496 0)
(-0.175267 0.0681155 0)
(-0.20082 0.0714542 0)
(-0.224551 0.072533 0)
(-0.24605 0.0714026 0)
(-0.26512 0.068247 0)
(-0.281694 0.0632918 0)
(-0.295782 0.0567856 0)
(-0.30743 0.0489523 0)
(-0.316697 0.0400005 0)
(-0.32364 0.0301025 0)
(-0.328304 0.0194158 0)
(-0.330716 0.00807466 0)
(-0.33087 -0.00378194 0)
(-0.328737 -0.0160125 0)
(-0.324243 -0.0284409 0)
(-0.317289 -0.0408536 0)
(-0.307734 -0.0529663 0)
(-0.295433 -0.0644241 0)
(-0.280237 -0.0747783 0)
(-0.262054 -0.0835081 0)
(-0.240872 -0.0900324 0)
(-0.216849 -0.0937795 0)
(-0.190341 -0.0942528 0)
(-0.161977 -0.0911508 0)
(-0.132631 -0.0844517 0)
(-0.103405 -0.0745038 0)
(-0.0754628 -0.0620082 0)
(-0.049907 -0.0479483 0)
(-0.027548 -0.0334069 0)
(-0.00888741 -0.0193983 0)
(0.00595317 -0.00673601 0)
(0.0170012 0.00399001 0)
(0.0244705 0.0123966 0)
(0.0285614 0.0182907 0)
(0.0297006 0.0217009 0)
(0.0283261 0.0228854 0)
(0.0251638 0.0223104 0)
(0.0207855 0.0205354 0)
(0.0159561 0.0180773 0)
(0.0110225 0.0152549 0)
(0.00660508 0.0120727 0)
(0.00281075 0.00824232 0)
(0.000474814 0.00325681 0)
(0.00050739 -0.00532807 0)
(0.00253254 -0.0110335 0)
(0.00485862 -0.0123101 0)
(0.00600893 -0.0100176 0)
(0.00564904 -0.00564388 0)
(0.00332854 -0.000242519 0)
(-0.000927584 0.0053622 0)
(-0.00741228 0.0110979 0)
(-0.0164068 0.017167 0)
(-0.0284643 0.0241236 0)
(-0.0440483 0.0323305 0)
(-0.063482 0.0419493 0)
(-0.0866339 0.0526528 0)
(-0.112868 0.0637738 0)
(-0.141045 0.0743198 0)
(-0.169815 0.0833309 0)
(-0.197933 0.0900536 0)
(-0.224479 0.0941192 0)
(-0.248878 0.0954435 0)
(-0.270834 0.0941773 0)
(-0.29024 0.0905648 0)
(-0.307102 0.0849142 0)
(-0.3215 0.0775181 0)
(-0.333545 0.0686617 0)
(-0.343377 0.0585809 0)
(-0.351136 0.0474861 0)
(-0.356963 0.0355376 0)
(-0.360976 0.0228747 0)
(-0.363272 0.00960105 0)
(-0.363904 -0.00418155 0)
(-0.362885 -0.0183794 0)
(-0.360159 -0.0328683 0)
(-0.355617 -0.0474909 0)
(-0.349066 -0.0620139 0)
(-0.340254 -0.0761214 0)
(-0.328858 -0.0893752 0)
(-0.314533 -0.101222 0)
(-0.296941 -0.110986 0)
(-0.275847 -0.117921 0)
(-0.251189 -0.121276 0)
(-0.223218 -0.120431 0)
(-0.19255 -0.115031 0)
(-0.160244 -0.105151 0)
(-0.127694 -0.0913739 0)
(-0.0964943 -0.0747913 0)
(-0.0680938 -0.0568128 0)
(-0.0435675 -0.0388977 0)
(-0.0233684 -0.02225 0)
(-0.0074963 -0.00769469 0)
(0.00439561 0.00430328 0)
(0.0126286 0.0135047 0)
(0.0176202 0.0198648 0)
(0.0196918 0.0235096 0)
(0.0194166 0.0248023 0)
(0.0172654 0.0242392 0)
(0.013997 0.0223918 0)
(0.0100454 0.0196329 0)
(0.0061756 0.0160684 0)
(0.00265739 0.0113036 0)
(0.000445574 0.00469878 0)
(0.00052207 -0.00676417 0)
(0.00224765 -0.0131444 0)
(0.00370065 -0.0136794 0)
(0.00343642 -0.00973132 0)
(0.00116763 -0.00337193 0)
(-0.00347152 0.00420005 0)
(-0.0105334 0.0121308 0)
(-0.0204167 0.020556 0)
(-0.033572 0.0298083 0)
(-0.0505538 0.0404752 0)
(-0.0716214 0.0526769 0)
(-0.0965616 0.0661265 0)
(-0.12453 0.0799002 0)
(-0.1542 0.0928462 0)
(-0.184098 0.103789 0)
(-0.212954 0.111948 0)
(-0.239884 0.116926 0)
(-0.264361 0.118714 0)
(-0.286139 0.117497 0)
(-0.305147 0.113605 0)
(-0.321444 0.107391 0)
(-0.335161 0.0992356 0)
(-0.346495 0.0894728 0)
(-0.355666 0.0784184 0)
(-0.362922 0.0663206 0)
(-0.368495 0.0533915 0)
(-0.372614 0.0397767 0)
(-0.375466 0.0255918 0)
(-0.377214 0.0109033 0)
(-0.377963 -0.00423207 0)
(-0.377779 -0.019778 0)
(-0.376649 -0.0356761 0)
(-0.374501 -0.0518484 0)
(-0.371157 -0.068148 0)
(-0.36635 -0.0843514 0)
(-0.359681 -0.100104 0)
(-0.350651 -0.114912 0)
(-0.338656 -0.128101 0)
(-0.323074 -0.138842 0)
(-0.303333 -0.146181 0)
(-0.279088 -0.149157 0)
(-0.250363 -0.146949 0)
(-0.217749 -0.139111 0)
(-0.182462 -0.125766 0)
(-0.146333 -0.107772 0)
(-0.111504 -0.0866715 0)
(-0.0800308 -0.0644408 0)
(-0.0533177 -0.0430028 0)
(-0.0319134 -0.0238066 0)
(-0.0155198 -0.00762694 0)
(-0.0035392 0.00525282 0)
(0.00472612 0.0148505 0)
(0.00974614 0.021293 0)
(0.0120822 0.0248979 0)
(0.0121431 0.0260711 0)
(0.0106218 0.0253621 0)
(0.00797643 0.0231213 0)
(0.00502103 0.0195017 0)
(0.00215789 0.0140232 0)
(0.000343265 0.00597313 0)
(0.000484539 -0.00799648 0)
(0.00160473 -0.0144237 0)
(0.00171041 -0.0135886 0)
(-0.000444429 -0.00745394 0)
(-0.0050998 0.00133118 0)
(-0.0125268 0.0115222 0)
(-0.0229154 0.0223346 0)
(-0.0367363 0.0341348 0)
(-0.0544898 0.0472693 0)
(-0.0764533 0.0621044 0)
(-0.102365 0.0782117 0)
(-0.131269 0.0946638 0)
(-0.161725 0.110031 0)
(-0.192144 0.123046 0)
(-0.221222 0.132768 0)
(-0.248037 0.138822 0)
(-0.272077 0.141178 0)
(-0.293081 0.140103 0)
(-0.311018 0.135964 0)
(-0.325977 0.129229 0)
(-0.338181 0.120342 0)
(-0.347904 0.109757 0)
(-0.355486 0.0978465 0)
(-0.361255 0.0849456 0)
(-0.365549 0.0712939 0)
(-0.368654 0.0570828 0)
(-0.37084 0.0424226 0)
(-0.372313 0.0273903 0)
(-0.373257 0.0120066 0)
(-0.373796 -0.00371882 0)
(-0.374029 -0.0198059 0)
(-0.37399 -0.0362603 0)
(-0.373674 -0.0530852 0)
(-0.372978 -0.0702327 0)
(-0.37172 -0.0876021 0)
(-0.369564 -0.10498 0)
(-0.366032 -0.122019 0)
(-0.360448 -0.138175 0)
(-0.351979 -0.152689 0)
(-0.339659 -0.164562 0)
(-0.322543 -0.172615 0)
(-0.29987 -0.175597 0)
(-0.271358 -0.172413 0)
(-0.237437 -0.162403 0)
(-0.199487 -0.14568 0)
(-0.159782 -0.123342 0)
(-0.121212 -0.0974849 0)
(-0.0865632 -0.0707758 0)
(-0.0577945 -0.0457667 0)
(-0.0354689 -0.0241644 0)
(-0.0190567 -0.00667563 0)
(-0.00747282 0.00674227 0)
(0.000199322 0.0163665 0)
(0.00477373 0.0226214 0)
(0.0067694 0.0259014 0)
(0.00686716 0.0267244 0)
(0.00554834 0.0253807 0)
(0.00361253 0.0220151 0)
(0.00155014 0.0160958 0)
(0.000226291 0.00691055 0)
(0.000368314 -0.00889948 0)
(0.000527029 -0.0145714 0)
(-0.00118019 -0.0117035 0)
(-0.00562834 -0.00289069 0)
(-0.0130446 0.00874007 0)
(-0.0236044 0.0220176 0)
(-0.0376607 0.0362856 0)
(-0.0556294 0.052045 0)
(-0.0778394 0.0694092 0)
(-0.103999 0.088216 0)
(-0.133191 0.107324 0)
(-0.163859 0.125289 0)
(-0.194379 0.140548 0)
(-0.223314 0.152104 0)
(-0.249724 0.159433 0)
(-0.273012 0.162553 0)
(-0.292945 0.16172 0)
(-0.309477 0.15742 0)
(-0.322792 0.150182 0)
(-0.333171 0.140599 0)
(-0.341024 0.129197 0)
(-0.346759 0.116472 0)
(-0.350821 0.1028 0)
(-0.353581 0.0884955 0)
(-0.355393 0.0737555 0)
(-0.35652 0.058727 0)
(-0.357203 0.0434716 0)
(-0.357604 0.0280256 0)
(-0.357878 0.0123712 0)
(-0.358123 -0.00351335 0)
(-0.358441 -0.0196807 0)
(-0.358888 -0.036172 0)
(-0.359517 -0.0530398 0)
(-0.360319 -0.0703055 0)
(-0.361244 -0.0879706 0)
(-0.362121 -0.105962 0)
(-0.362653 -0.124118 0)
(-0.362323 -0.142111 0)
(-0.360383 -0.159405 0)
(-0.355796 -0.175174 0)
(-0.347308 -0.188285 0)
(-0.333542 -0.197307 0)
(-0.313275 -0.200655 0)
(-0.285765 -0.196841 0)
(-0.251199 -0.184887 0)
(-0.210999 -0.164774 0)
(-0.167946 -0.137851 0)
(-0.125747 -0.106845 0)
(-0.0881555 -0.0753465 0)
(-0.0576988 -0.0466709 0)
(-0.0350154 -0.0228557 0)
(-0.0190979 -0.00436659 0)
(-0.00847212 0.00918306 0)
(-0.00177012 0.0185086 0)
(0.00190752 0.0241788 0)
(0.00339054 0.0267749 0)
(0.00324977 0.0265634 0)
(0.00226455 0.0236648 0)
(0.000975587 0.0175455 0)
(0.000121089 0.00754492 0)
(0.000140627 -0.00912517 0)
(-0.00105751 -0.0130367 0)
(-0.00500894 -0.00748046 0)
(-0.0120691 0.00443728 0)
(-0.0225116 0.0192945 0)
(-0.0363969 0.0360848 0)
(-0.0541981 0.0542485 0)
(-0.0760704 0.0741951 0)
(-0.101951 0.095517 0)
(-0.130849 0.11735 0)
(-0.161342 0.137958 0)
(-0.19162 0.155729 0)
(-0.220243 0.169339 0)
(-0.246078 0.178231 0)
(-0.268546 0.182294 0)
(-0.287313 0.181879 0)
(-0.302425 0.177497 0)
(-0.314073 0.169846 0)
(-0.322694 0.159606 0)
(-0.328749 0.147468 0)
(-0.332796 0.133993 0)
(-0.335304 0.119663 0)
(-0.336736 0.104806 0)
(-0.337422 0.0896702 0)
(-0.337658 0.0743823 0)
(-0.337627 0.0590265 0)
(-0.337494 0.0436105 0)
(-0.337347 0.0281324 0)
(-0.337285 0.0125463 0)
(-0.33736 -0.00318555 0)
(-0.337652 -0.019128 0)
(-0.338212 -0.0353314 0)
(-0.339119 -0.0518646 0)
(-0.340424 -0.0687778 0)
(-0.342181 -0.0861278 0)
(-0.344376 -0.103935 0)
(-0.346933 -0.122188 0)
(-0.349609 -0.140774 0)
(-0.35196 -0.15944 0)
(-0.353214 -0.177685 0)
(-0.352252 -0.19468 0)
(-0.347558 -0.209171 0)
(-0.337374 -0.219484 0)
(-0.31994 -0.223628 0)
(-0.293987 -0.21962 0)
(-0.259292 -0.206002 0)
(-0.217265 -0.182529 0)
(-0.171152 -0.150762 0)
(-0.125644 -0.114254 0)
(-0.0855492 -0.0777429 0)
(-0.0540695 -0.0455372 0)
(-0.031668 -0.0198656 0)
(-0.0168289 -0.000885763 0)
(-0.00749255 0.0123924 0)
(-0.00207666 0.0209364 0)
(0.000652699 0.0255907 0)
(0.00149704 0.0267263 0)
(0.00128062 0.0244878 0)
(0.000588981 0.0184029 0)
(6.26207e-05 0.00790199 0)
(-0.000209487 -0.00844686 0)
(-0.00311646 -0.00952904 0)
(-0.00961856 -0.000726647 0)
(-0.0194529 0.0146105 0)
(-0.0330045 0.0329931 0)
(-0.0501633 0.0535937 0)
(-0.0714169 0.0758124 0)
(-0.0964493 0.0996856 0)
(-0.12471 0.124103 0)
(-0.1546 0.147558 0)
(-0.184504 0.16804 0)
(-0.212672 0.184121 0)
(-0.238015 0.194908 0)
(-0.259714 0.200299 0)
(-0.277531 0.200559 0)
(-0.291408 0.196352 0)
(-0.301707 0.188439 0)
(-0.308864 0.177706 0)
(-0.313529 0.16493 0)
(-0.316269 0.150828 0)
(-0.317687 0.135917 0)
(-0.31821 0.120602 0)
(-0.31823 0.105113 0)
(-0.317969 0.0896086 0)
(-0.317623 0.0741332 0)
(-0.317269 0.0587124 0)
(-0.316992 0.0433115 0)
(-0.316804 0.0279059 0)
(-0.316754 0.0124385 0)
(-0.316849 -0.00312705 0)
(-0.317145 -0.0188492 0)
(-0.317674 -0.0347668 0)
(-0.318517 -0.0509389 0)
(-0.319737 -0.0674109 0)
(-0.321441 -0.0842479 0)
(-0.323701 -0.101504 0)
(-0.326592 -0.119241 0)
(-0.3301 -0.137485 0)
(-0.334105 -0.156209 0)
(-0.338242 -0.175239 0)
(-0.34183 -0.194166 0)
(-0.343716 -0.212191 0)
(-0.342252 -0.227998 0)
(-0.335324 -0.239665 0)
(-0.32067 -0.244766 0)
(-0.296403 -0.240704 0)
(-0.261825 -0.225411 0)
(-0.218222 -0.198292 0)
(-0.169364 -0.161195 0)
(-0.121017 -0.118711 0)
(-0.0792152 -0.0771288 0)
(-0.0476602 -0.0417784 0)
(-0.0264125 -0.0149734 0)
(-0.0131582 0.00387556 0)
(-0.0054484 0.0162062 0)
(-0.00135359 0.023396 0)
(0.00037201 0.0261484 0)
(0.000740864 0.0247677 0)
(0.000423616 0.018925 0)
(5.30852e-05 0.0081512 0)
(-0.000688817 -0.00650304 0)
(-0.00559163 -0.00364695 0)
(-0.0148166 0.00884148 0)
(-0.0274383 0.0278016 0)
(-0.0439925 0.0498932 0)
(-0.0641067 0.0743794 0)
(-0.0881609 0.10042 0)
(-0.115247 0.127451 0)
(-0.144398 0.153673 0)
(-0.173639 0.177184 0)
(-0.201458 0.196046 0)
(-0.226332 0.209237 0)
(-0.247573 0.216351 0)
(-0.26466 0.217719 0)
(-0.277721 0.213973 0)
(-0.286996 0.206081 0)
(-0.293147 0.19502 0)
(-0.296782 0.181786 0)
(-0.298665 0.167166 0)
(-0.299345 0.15181 0)
(-0.299369 0.136125 0)
(-0.299038 0.120396 0)
(-0.29863 0.104736 0)
(-0.298235 0.0892132 0)
(-0.297954 0.0738035 0)
(-0.297773 0.0584899 0)
(-0.297721 0.0432124 0)
(-0.297758 0.0279386 0)
(-0.297906 0.0126122 0)
(-0.298142 -0.00279366 0)
(-0.298508 -0.0183245 0)
(-0.299014 -0.0340025 0)
(-0.299733 -0.0498692 0)
(-0.300719 -0.0659527 0)
(-0.302082 -0.0823043 0)
(-0.303914 -0.0989741 0)
(-0.306351 -0.116039 0)
(-0.309494 -0.133579 0)
(-0.313426 -0.151681 0)
(-0.3181 -0.170385 0)
(-0.323287 -0.189625 0)
(-0.328388 -0.209089 0)
(-0.332316 -0.228041 0)
(-0.333327 -0.245114 0)
(-0.329054 -0.258148 0)
(-0.316745 -0.264221 0)
(-0.293913 -0.26003 0)
(-0.259318 -0.242754 0)
(-0.214142 -0.211409 0)
(-0.162744 -0.168249 0)
(-0.112184 -0.119371 0)
(-0.0697513 -0.0729483 0)
(-0.0393623 -0.0353941 0)
(-0.0201161 -0.00842642 0)
(-0.00892636 0.00932821 0)
(-0.00294535 0.0199796 0)
(-0.000235213 0.0248504 0)
(0.000620143 0.0246359 0)
(0.000477507 0.0192632 0)
(9.32731e-05 0.00838342 0)
(-0.00126255 -0.00312658 0)
(-0.00829558 0.00466749 0)
(-0.0202212 0.0211048 0)
(-0.0354538 0.0437334 0)
(-0.0546859 0.069523 0)
(-0.0771808 0.0976648 0)
(-0.103125 0.126899 0)
(-0.131022 0.155971 0)
(-0.159672 0.182574 0)
(-0.186968 0.204713 0)
(-0.211701 0.220788 0)
(-0.232634 0.230269 0)
(-0.249489 0.233246 0)
(-0.262058 0.23047 0)
(-0.270846 0.222932 0)
(-0.276346 0.211851 0)
(-0.279439 0.198328 0)
(-0.280781 0.18336 0)
(-0.281128 0.167643 0)
(-0.280908 0.15169 0)
(-0.280547 0.135757 0)
(-0.280187 0.119997 0)
(-0.279992 0.104421 0)
(-0.279935 0.0890235 0)
(-0.280054 0.0737397 0)
(-0.280273 0.0585318 0)
(-0.280598 0.0433344 0)
(-0.280959 0.0281201 0)
(-0.281373 0.0128428 0)
(-0.2818 -0.00251019 0)
(-0.282277 -0.0179684 0)
(-0.282798 -0.0335366 0)
(-0.283426 -0.0492369 0)
(-0.284192 -0.065077 0)
(-0.285193 -0.0810858 0)
(-0.286503 -0.0972927 0)
(-0.288263 -0.113757 0)
(-0.290597 -0.130559 0)
(-0.293675 -0.147814 0)
(-0.297616 -0.165658 0)
(-0.302488 -0.184217 0)
(-0.30815 -0.203529 0)
(-0.31413 -0.223389 0)
(-0.319386 -0.243132 0)
(-0.322143 -0.261331 0)
(-0.3198 -0.275559 0)
(-0.309174 -0.282335 0)
(-0.287191 -0.277531 0)
(-0.252116 -0.257489 0)
(-0.205111 -0.220842 0)
(-0.151356 -0.170642 0)
(-0.0994526 -0.115064 0)
(-0.0578945 -0.0647085 0)
(-0.0300795 -0.026374 0)
(-0.0136496 -0.000704645 0)
(-0.00480306 0.0149531 0)
(-0.000702496 0.0228113 0)
(0.000719563 0.0242551 0)
(0.000662742 0.0196289 0)
(0.000163581 0.00874284 0)
(-0.00189494 0.00187386 0)
(-0.0110592 0.0154975 0)
(-0.0255083 0.0360025 0)
(-0.0430264 0.0622166 0)
(-0.064433 0.0915063 0)
(-0.0885556 0.122797 0)
(-0.115374 0.154306 0)
(-0.142909 0.184146 0)
(-0.169941 0.209771 0)
(-0.194422 0.229359 0)
(-0.215541 0.241805 0)
(-0.232361 0.2471 0)
(-0.245025 0.245825 0)
(-0.253624 0.239135 0)
(-0.258999 0.228327 0)
(-0.261793 0.214766 0)
(-0.262981 0.19956 0)
(-0.263142 0.183595 0)
(-0.262933 0.167408 0)
(-0.262605 0.151338 0)
(-0.26245 0.135493 0)
(-0.262465 0.119911 0)
(-0.262729 0.104532 0)
(-0.26314 0.0893078 0)
(-0.263708 0.0741569 0)
(-0.264327 0.0590387 0)
(-0.265002 0.0438946 0)
(-0.265658 0.0287071 0)
(-0.266316 0.0134427 0)
(-0.266931 -0.00189946 0)
(-0.267541 -0.0173362 0)
(-0.268131 -0.0328606 0)
(-0.268755 -0.0484808 0)
(-0.269423 -0.0641906 0)
(-0.270211 -0.0799999 0)
(-0.271163 -0.0959169 0)
(-0.272391 -0.111974 0)
(-0.273993 -0.128223 0)
(-0.276138 -0.144758 0)
(-0.27899 -0.161722 0)
(-0.282752 -0.179304 0)
(-0.287549 -0.19772 0)
(-0.293362 -0.217109 0)
(-0.299806 -0.237384 0)
(-0.305901 -0.257916 0)
(-0.309804 -0.277187 0)
(-0.308684 -0.292409 0)
(-0.298936 -0.299417 0)
(-0.276945 -0.293139 0)
(-0.240611 -0.269 0)
(-0.191306 -0.225509 0)
(-0.135445 -0.167101 0)
(-0.0834757 -0.105118 0)
(-0.0447079 -0.0525008 0)
(-0.0208427 -0.0155667 0)
(-0.00775017 0.00738915 0)
(-0.0015167 0.0196162 0)
(0.000777676 0.0235076 0)
(0.000873984 0.020028 0)
(0.000245371 0.00924927 0)
(-0.00251099 0.0084361 0)
(-0.01362 0.0285677 0)
(-0.0302418 0.0530788 0)
(-0.0495769 0.0826149 0)
(-0.0725242 0.114975 0)
(-0.0974514 0.148662 0)
(-0.12418 0.181376 0)
(-0.150401 0.210746 0)
(-0.175061 0.234268 0)
(-0.196281 0.25047 0)
(-0.213684 0.258822 0)
(-0.226629 0.259827 0)
(-0.235666 0.254551 0)
(-0.241134 0.24449 0)
(-0.244111 0.231145 0)
(-0.245263 0.215895 0)
(-0.245541 0.199741 0)
(-0.245361 0.183384 0)
(-0.24524 0.167168 0)
(-0.24525 0.151262 0)
(-0.245571 0.135654 0)
(-0.246092 0.120302 0)
(-0.246852 0.105108 0)
(-0.247705 0.0900083 0)
(-0.248663 0.0749239 0)
(-0.249609 0.0598228 0)
(-0.250564 0.0446601 0)
(-0.251451 0.0294303 0)
(-0.252304 0.0141129 0)
(-0.253075 -0.00128291 0)
(-0.25381 -0.0167632 0)
(-0.254483 -0.0323129 0)
(-0.255147 -0.0479303 0)
(-0.255796 -0.0636003 0)
(-0.256493 -0.0793199 0)
(-0.257253 -0.0950833 0)
(-0.258157 -0.110899 0)
(-0.259262 -0.126791 0)
(-0.260696 -0.142815 0)
(-0.262593 -0.159076 0)
(-0.265165 -0.175738 0)
(-0.268633 -0.193056 0)
(-0.273221 -0.211323 0)
(-0.278995 -0.230811 0)
(-0.285665 -0.251525 0)
(-0.292274 -0.272873 0)
(-0.296862 -0.293137 0)
(-0.296315 -0.309029 0)
(-0.286554 -0.315502 0)
(-0.263514 -0.306353 0)
(-0.224903 -0.276169 0)
(-0.172803 -0.223756 0)
(-0.115408 -0.156244 0)
(-0.0653403 -0.0890982 0)
(-0.0315607 -0.0372018 0)
(-0.0125912 -0.00385063 0)
(-0.00319438 0.0146781 0)
(0.000503374 0.0221724 0)
(0.000986035 0.0204202 0)
(0.000314636 0.00992198 0)
(-0.0030596 0.0164687 0)
(-0.0158127 0.0436412 0)
(-0.0341579 0.0720035 0)
(-0.0547678 0.104505 0)
(-0.078571 0.139379 0)
(-0.103511 0.174607 0)
(-0.129336 0.20746 0)
(-0.153569 0.235285 0)
(-0.175442 0.255849 0)
(-0.193303 0.268144 0)
(-0.207209 0.272244 0)
(-0.216792 0.269146 0)
(-0.22296 0.260355 0)
(-0.226205 0.247606 0)
(-0.227723 0.232476 0)
(-0.228088 0.21623 0)
(-0.22815 0.199689 0)
(-0.228127 0.183332 0)
(-0.2284 0.167323 0)
(-0.228891 0.15169 0)
(-0.229711 0.136341 0)
(-0.230685 0.121193 0)
(-0.231841 0.106134 0)
(-0.233022 0.0911062 0)
(-0.234254 0.0760428 0)
(-0.235425 0.0609234 0)
(-0.236572 0.045718 0)
(-0.237622 0.0304301 0)
(-0.238619 0.01505 0)
(-0.239516 -0.000407736 0)
(-0.240363 -0.0159414 0)
(-0.241129 -0.0315325 0)
(-0.241866 -0.0471727 0)
(-0.24256 -0.0628444 0)
(-0.243263 -0.0785366 0)
(-0.243973 -0.0942383 0)
(-0.24475 -0.109942 0)
(-0.245614 -0.125657 0)
(-0.246651 -0.141401 0)
(-0.247938 -0.157238 0)
(-0.249635 -0.173272 0)
(-0.25194 -0.189711 0)
(-0.255129 -0.206844 0)
(-0.259482 -0.225078 0)
(-0.26516 -0.244785 0)
(-0.271947 -0.266093 0)
(-0.278853 -0.288356 0)
(-0.283748 -0.309557 0)
(-0.283093 -0.325655 0)
(-0.272334 -0.330426 0)
(-0.246972 -0.316388 0)
(-0.204976 -0.277431 0)
(-0.149739 -0.213829 0)
(-0.0921342 -0.13704 0)
(-0.0467401 -0.0679961 0)
(-0.0198603 -0.0202526 0)
(-0.00612853 0.00709052 0)
(-0.000309865 0.0197658 0)
(0.000916333 0.0205694 0)
(0.000358379 0.0106682 0)
(-0.00346836 0.0256472 0)
(-0.0174295 0.060178 0)
(-0.0369587 0.092105 0)
(-0.0582577 0.127077 0)
(-0.0822445 0.163776 0)
(-0.106513 0.199643 0)
(-0.130829 0.23167 0)
(-0.152686 0.257113 0)
(-0.171661 0.274178 0)
(-0.186348 0.282367 0)
(-0.197205 0.282359 0)
(-0.204096 0.275596 0)
(-0.208203 0.263943 0)
(-0.210062 0.249236 0)
(-0.210875 0.233008 0)
(-0.211056 0.21632 0)
(-0.211318 0.199778 0)
(-0.21169 0.183641 0)
(-0.212449 0.167931 0)
(-0.21341 0.152574 0)
(-0.214657 0.137439 0)
(-0.21598 0.122425 0)
(-0.217426 0.107433 0)
(-0.218834 0.0924123 0)
(-0.220255 0.0773161 0)
(-0.221579 0.0621344 0)
(-0.222863 0.0468504 0)
(-0.224031 0.031474 0)
(-0.22514 0.0160047 0)
(-0.226137 0.000460365 0)
(-0.227077 -0.0151501 0)
(-0.227926 -0.0308065 0)
(-0.228735 -0.0464945 0)
(-0.229484 -0.0621961 0)
(-0.230222 -0.0778946 0)
(-0.230938 -0.0935788 0)
(-0.231681 -0.109233 0)
(-0.232449 -0.124859 0)
(-0.233298 -0.140454 0)
(-0.234261 -0.156053 0)
(-0.235437 -0.171703 0)
(-0.236954 -0.187549 0)
(-0.23904 -0.203798 0)
(-0.241995 -0.220838 0)
(-0.246162 -0.239144 0)
(-0.251786 -0.25925 0)
(-0.258664 -0.281328 0)
(-0.265749 -0.304638 0)
(-0.270553 -0.326616 0)
(-0.269075 -0.342135 0)
(-0.256112 -0.343448 0)
(-0.227056 -0.321581 0)
(-0.180563 -0.270511 0)
(-0.122537 -0.193581 0)
(-0.0672073 -0.109749 0)
(-0.0298791 -0.0436587 0)
(-0.0105741 -0.00406453 0)
(-0.00177632 0.0157366 0)
(0.000627548 0.020233 0)
(0.000369888 0.0114128 0)
(-0.00371125 0.0356508 0)
(-0.0184054 0.0777631 0)
(-0.038567 0.112966 0)
(-0.0599953 0.149912 0)
(-0.0835668 0.187767 0)
(-0.10663 0.223468 0)
(-0.129042 0.253894 0)
(-0.14837 0.276375 0)
(-0.16455 0.289665 0)
(-0.176415 0.293787 0)
(-0.184774 0.290005 0)
(-0.189659 0.280127 0)
(-0.192422 0.266269 0)
(-0.193548 0.25024 0)
(-0.19417 0.233433 0)
(-0.194511 0.216659 0)
(-0.19515 0.200311 0)
(-0.195962 0.184462 0)
(-0.197159 0.169036 0)
(-0.198492 0.153894 0)
(-0.200045 0.138901 0)
(-0.201602 0.123954 0)
(-0.203232 0.108975 0)
(-0.20478 0.0939255 0)
(-0.206321 0.0787758 0)
(-0.207747 0.0635223 0)
(-0.209128 0.048159 0)
(-0.210387 0.0326978 0)
(-0.211587 0.0171454 0)
(-0.212671 0.0015202 0)
(-0.213699 -0.0141631 0)
(-0.214628 -0.0298843 0)
(-0.215514 -0.0456237 0)
(-0.21633 -0.061365 0)
(-0.217126 -0.0770864 0)
(-0.217885 -0.0927804 0)
(-0.218652 -0.108426 0)
(-0.219417 -0.124028 0)
(-0.220218 -0.139568 0)
(-0.221058 -0.155074 0)
(-0.221991 -0.170549 0)
(-0.223079 -0.186084 0)
(-0.224468 -0.201793 0)
(-0.226389 -0.217972 0)
(-0.22918 -0.235035 0)
(-0.233263 -0.253634 0)
(-0.238907 -0.274385 0)
(-0.245938 -0.297534 0)
(-0.253032 -0.322018 0)
(-0.257323 -0.344421 0)
(-0.254021 -0.358062 0)
(-0.237495 -0.353168 0)
(-0.203145 -0.319552 0)
(-0.151577 -0.252422 0)
(-0.0921959 -0.161966 0)
(-0.0434057 -0.0763873 0)
(-0.0165292 -0.0199308 0)
(-0.00401087 0.00939784 0)
(0.000141953 0.0190708 0)
(0.000346177 0.0120385 0)
(-0.00375175 0.0460036 0)
(-0.0186539 0.095748 0)
(-0.0388922 0.133874 0)
(-0.0599303 0.172243 0)
(-0.0825833 0.210579 0)
(-0.104061 0.245409 0)
(-0.124365 0.273652 0)
(-0.141201 0.292838 0)
(-0.154845 0.302323 0)
(-0.164344 0.302632 0)
(-0.170782 0.295557 0)
(-0.174291 0.283178 0)
(-0.17629 0.267741 0)
(-0.17715 0.25092 0)
(-0.177892 0.233915 0)
(-0.178553 0.217272 0)
(-0.179606 0.201206 0)
(-0.180814 0.185642 0)
(-0.182358 0.170448 0)
(-0.183959 0.155454 0)
(-0.18572 0.140538 0)
(-0.187426 0.125606 0)
(-0.189174 0.110603 0)
(-0.190815 0.0954984 0)
(-0.19244 0.0802781 0)
(-0.193943 0.0649405 0)
(-0.195403 0.0494887 0)
(-0.196739 0.0339339 0)
(-0.198019 0.0182896 0)
(-0.199182 0.00257356 0)
(-0.200286 -0.0131928 0)
(-0.201288 -0.0289902 0)
(-0.202242 -0.0447919 0)
(-0.203117 -0.0605834 0)
(-0.203965 -0.0763368 0)
(-0.204766 -0.0920492 0)
(-0.205565 -0.107694 0)
(-0.206349 -0.123285 0)
(-0.207153 -0.138796 0)
(-0.207966 -0.154258 0)
(-0.208817 -0.169653 0)
(-0.209724 -0.185044 0)
(-0.210757 -0.200465 0)
(-0.212056 -0.21612 0)
(-0.213866 -0.232284 0)
(-0.2166 -0.24955 0)
(-0.220699 -0.268652 0)
(-0.226529 -0.290408 0)
(-0.233717 -0.314943 0)
(-0.240684 -0.340647 0)
(-0.243733 -0.362713 0)
(-0.237436 -0.372204 0)
(-0.215554 -0.357121 0)
(-0.174618 -0.306536 0)
(-0.118223 -0.220305 0)
(-0.0612339 -0.119766 0)
(-0.0240143 -0.0422667 0)
(-0.00714022 0.00021369 0)
(-0.000540318 0.0166981 0)
(0.00029794 0.0124882 0)
(-0.0036037 0.0563109 0)
(-0.0182246 0.113714 0)
(-0.0380388 0.154497 0)
(-0.0582541 0.193832 0)
(-0.0796043 0.232109 0)
(-0.0992665 0.265555 0)
(-0.117404 0.291261 0)
(-0.131906 0.30704 0)
(-0.143338 0.312866 0)
(-0.150932 0.309727 0)
(-0.155965 0.299873 0)
(-0.158599 0.28555 0)
(-0.16024 0.269031 0)
(-0.161112 0.251782 0)
(-0.162112 0.234789 0)
(-0.163123 0.218355 0)
(-0.164536 0.202557 0)
(-0.166048 0.187213 0)
(-0.167832 0.172174 0)
(-0.169602 0.157255 0)
(-0.171485 0.142361 0)
(-0.173275 0.127405 0)
(-0.17509 0.112357 0)
(-0.176788 0.0971886 0)
(-0.17847 0.081898 0)
(-0.180032 0.0664817 0)
(-0.181556 0.0509497 0)
(-0.182961 0.0353102 0)
(-0.184315 0.0195826 0)
(-0.185552 0.00378212 0)
(-0.186734 -0.012063 0)
(-0.18781 -0.0279355 0)
(-0.188837 -0.0438012 0)
(-0.189779 -0.0596489 0)
(-0.190689 -0.0754429 0)
(-0.191544 -0.0911861 0)
(-0.19239 -0.106845 0)
(-0.193212 -0.122443 0)
(-0.194047 -0.137947 0)
(-0.19488 -0.153403 0)
(-0.195732 -0.168775 0)
(-0.196598 -0.184128 0)
(-0.1975 -0.199441 0)
(-0.198505 -0.214855 0)
(-0.199743 -0.230499 0)
(-0.201529 -0.246828 0)
(-0.204277 -0.264474 0)