/*--------------------------------*- C++ -*----------------------------------*\
| =========                 |                                                 |
| \\      /  F ield         | OpenFOAM: The Open Source CFD Toolbox           |
|  \\    /   O peration     | Version:  2406                                  |
|   \\  /    A nd           | Website:  www.openfoam.com                      |
|    \\/     M anipulation  |                                                 |
\*---------------------------------------------------------------------------*/
FoamFile
{
    version     2.0;
    format      ascii;
    arch        "LSB;label=32;scalar=64";
    class       volScalarField;
    location    "12";
    object      p;
}
// * * * * * * * * * * * * * * * * * * * * * * * * * * * * * * * * * * * * * //

dimensions      [0 2 -2 0 0 0 0];

internalField   nonuniform List<scalar> 
14400
(
-1.20595e-08
-1.34977e-06
-4.35637e-06
-8.65408e-06
-1.36252e-05
-1.88258e-05
-2.39587e-05
-2.88467e-05
-3.34039e-05
-3.7607e-05
-4.14711e-05
-4.50323e-05
-4.83345e-05
-5.14208e-05
-5.43275e-05
-5.70816e-05
-5.96989e-05
-6.21838e-05
-6.45297e-05
-6.67199e-05
-6.87284e-05
-7.05216e-05
-7.20587e-05
-7.3293e-05
-7.41729e-05
-7.46423e-05
-7.46415e-05
-7.41079e-05
-7.29763e-05
-7.11793e-05
-6.86483e-05
-6.5313e-05
-6.11029e-05
-5.5947e-05
-4.97746e-05
-4.25157e-05
-3.41018e-05
-2.44663e-05
-1.3545e-05
-1.27734e-06
1.23934e-05
2.75189e-05
4.4145e-05
6.23111e-05
8.20484e-05
0.00010338
0.000126318
0.000150865
0.000177011
0.000204733
0.000233994
0.000264741
0.000296906
0.000330404
0.000365132
0.00040097
0.000437782
0.000475415
0.000513684
0.000552405
0.000591371
0.000630362
0.000669144
0.000707473
0.000745098
0.000781761
0.000817205
0.000851173
0.000883414
0.000913686
0.00094176
0.000967425
0.000990489
0.00101078
0.00102817
0.00104253
0.0010538
0.00106191
0.00106687
0.00106868
0.0010674
0.00106312
0.00105594
0.00104603
0.00103353
0.00101865
0.00100158
0.000982558
0.000961809
0.000939575
0.000916098
0.000891623
0.000866388
0.000840627
0.000814566
0.000788418
0.000762387
0.00073666
0.000711412
0.000686803
0.000662979
0.000640062
0.000618175
0.000597435
0.000577925
0.000559723
0.000542907
0.000527541
0.000513687
0.0005014
0.000490734
0.000481737
0.000474451
0.000468907
0.000465112
0.000463025
0.000462522
0.000463328
0.000464973
0.000466453
1.31868e-06
-3.80683e-08
-2.75125e-06
-6.59685e-06
-1.10443e-05
-1.57228e-05
-2.03848e-05
-2.48753e-05
-2.91125e-05
-3.30675e-05
-3.67452e-05
-4.01695e-05
-4.33724e-05
-4.63863e-05
-4.92387e-05
-5.19495e-05
-5.4529e-05
-5.69779e-05
-5.9287e-05
-6.14383e-05
-6.34053e-05
-6.51542e-05
-6.66449e-05
-6.78315e-05
-6.86634e-05
-6.90858e-05
-6.90406e-05
-6.84665e-05
-6.72997e-05
-6.54746e-05
-6.29238e-05
-5.95791e-05
-5.53712e-05
-5.02307e-05
-4.40885e-05
-3.68762e-05
-2.85267e-05
-1.89747e-05
-8.15753e-06
3.98432e-06
1.75063e-05
3.24593e-05
4.88881e-05
6.68314e-05
8.632e-05
0.000107376
0.000130013
0.000154232
0.000180024
0.000207366
0.000236222
0.00026654
0.000298253
0.000331279
0.000365516
0.000400845
0.000437127
0.000474218
0.000511944
0.000550113
0.000588524
0.00062696
0.000665192
0.000702978
0.000740072
0.000776221
0.000811171
0.000844669
0.000876468
0.00090633
0.00093403
0.000959359
0.000982128
0.00100217
0.00101935
0.00103356
0.00104472
0.00105277
0.00105771
0.00105957
0.00105837
0.00105423
0.00104723
0.00103754
0.00102531
0.00101072
0.000993988
0.000975327
0.000954967
0.000933144
0.000910098
0.000886068
0.000861289
0.000835992
0.0008104
0.000784722
0.000759159
0.000733897
0.000709108
0.000684949
0.000661563
0.000639086
0.000617634
0.000597298
0.000578174
0.000560346
0.000543883
0.000528848
0.000515297
0.000503281
0.000492843
0.000484022
0.000476846
0.000471332
0.000467473
0.00046522
0.00046445
0.00046494
0.000466451
0.000467933
4.3715e-06
2.63819e-06
-1.40627e-07
-3.63506e-06
-7.57799e-06
-1.17099e-05
-1.5847e-05
-1.98718e-05
-2.37178e-05
-2.73575e-05
-3.07889e-05
-3.40258e-05
-3.70884e-05
-3.99982e-05
-4.2773e-05
-4.54244e-05
-4.79565e-05
-5.03649e-05
-5.26374e-05
-5.47536e-05
-5.66861e-05
-5.84007e-05
-5.98575e-05
-6.10114e-05
-6.18129e-05
-6.22086e-05
-6.21417e-05
-6.15526e-05
-6.03793e-05
-5.85579e-05
-5.60228e-05
-5.27075e-05
-4.85446e-05
-4.34664e-05
-3.74056e-05
-3.02953e-05
-2.207e-05
-1.26659e-05
-2.02148e-06
9.92146e-06
2.32175e-05
3.79164e-05
5.40628e-05
7.16946e-05
9.08427e-05
0.000111529
0.000133768
0.000157561
0.0001829
0.000209763
0.000238115
0.000267906
0.000299073
0.000331533
0.000365188
0.000399924
0.00043561
0.000472084
0.000509191
0.000546745
0.000584545
0.000622377
0.000660015
0.000697224
0.000733759
0.000769371
0.00080381
0.000836827
0.000868177
0.000897626
0.00092495
0.000949944
0.00097242
0.000992217
0.0010092
0.00102325
0.0010343
0.00104229
0.00104722
0.00104911
0.001048
0.00104398
0.00103717
0.00102769
0.00101571
0.00100142
0.000985015
0.000966717
0.000946749
0.000925345
0.000902741
0.000879172
0.000854872
0.000830067
0.000804977
0.000779809
0.000754759
0.000730012
0.000705738
0.000682092
0.000659215
0.000637237
0.000616268
0.000596407
0.000577747
0.000560365
0.000544326
0.00052969
0.000516507
0.000504817
0.000494656
0.00048605
0.000479013
0.000473547
0.000469633
0.000467222
0.000466204
0.000466431
0.000467954
0.000469583
8.80747e-06
6.48578e-06
3.18973e-06
-3.69318e-07
-4.16653e-06
-8.03794e-06
-1.18595e-05
-1.55594e-05
-1.91005e-05
-2.24702e-05
-2.56735e-05
-2.87243e-05
-3.16405e-05
-3.44386e-05
-3.71311e-05
-3.97244e-05
-4.2218e-05
-4.46036e-05
-4.68657e-05
-4.89816e-05
-5.09221e-05
-5.26523e-05
-5.41316e-05
-5.53151e-05
-5.61535e-05
-5.6594e-05
-5.65805e-05
-5.60546e-05
-5.49552e-05
-5.32194e-05
-5.0783e-05
-4.75804e-05
-4.35454e-05
-3.86113e-05
-3.27117e-05
-2.57806e-05
-1.77532e-05
-8.56621e-06
1.84137e-06
1.35277e-05
2.65471e-05
4.095e-05
5.67811e-05
7.40792e-05
9.28761e-05
0.000113195
0.000135052
0.000158449
0.000183381
0.000209828
0.000237758
0.000267123
0.000297861
0.000329893
0.000363124
0.000397442
0.000432717
0.000468799
0.000505525
0.000542712
0.000580164
0.000617669
0.000655001
0.000691927
0.000728202
0.000763578
0.000797804
0.000830631
0.000861815
0.000891118
0.000918318
0.000943206
0.000965596
0.000985321
0.00100224
0.00101626
0.00102728
0.00103526
0.00104019
0.00104208
0.001041
0.00103701
0.00103024
0.00102082
0.00100892
0.000994718
0.000978423
0.00096025
0.000940425
0.000919183
0.000896759
0.00087339
0.000849309
0.000824741
0.000799904
0.000775007
0.000750243
0.000725796
0.000701834
0.000678509
0.000655963
0.000634319
0.000613687
0.000594169
0.000575847
0.000558796
0.000543079
0.000528749
0.000515849
0.000504415
0.000494473
0.000486043
0.000479131
0.000473733
0.000469835
0.000467399
0.000466348
0.000466605
0.000468432
0.000470401
1.39921e-05
1.09429e-05
6.92109e-06
3.09514e-06
-7.38227e-07
-4.49751e-06
-8.11573e-06
-1.15694e-05
-1.48561e-05
-1.79852e-05
-2.09744e-05
-2.38443e-05
-2.66145e-05
-2.9301e-05
-3.19135e-05
-3.44553e-05
-3.69221e-05
-3.93027e-05
-4.15785e-05
-4.37245e-05
-4.57097e-05
-4.74977e-05
-4.90474e-05
-5.03131e-05
-5.12456e-05
-5.17922e-05
-5.18974e-05
-5.15029e-05
-5.05484e-05
-4.89719e-05
-4.67095e-05
-4.36965e-05
-3.98671e-05
-3.51554e-05
-2.94951e-05
-2.28206e-05
-1.50671e-05
-6.17125e-06
3.92822e-06
1.529e-05
2.79694e-05
4.20175e-05
5.74807e-05
7.43992e-05
9.28066e-05
0.000112729
0.000134182
0.000157174
0.0001817
0.000207745
0.000235277
0.000264254
0.000294616
0.000326288
0.000359177
0.000393174
0.000428151
0.000463963
0.000500447
0.000537422
0.000574692
0.000612046
0.000649258
0.000686095
0.000722309
0.000757652
0.00079187
0.000824711
0.000855926
0.000885276
0.000912533
0.000937486
0.000959942
0.000979735
0.000996721
0.00101079
0.00102185
0.00102987
0.00103482
0.00103673
0.00103564
0.00103165
0.00102486
0.00101541
0.00100348
0.000989248
0.000972926
0.000954732
0.000934895
0.000913654
0.000891246
0.000867912
0.000843884
0.000819391
0.000794652
0.000769875
0.000745255
0.000720973
0.000697196
0.000674077
0.000651754
0.000630348
0.000609968
0.000590709
0.000572653
0.000555869
0.000540415
0.00052634
0.000513682
0.000502469
0.000492723
0.000484454
0.000477668
0.000472358
0.000468516
0.000466122
0.000465124
0.000465497
0.000467641
0.000469922
1.93855e-05
1.5537e-05
1.06829e-05
6.47157e-06
2.48429e-06
-1.26773e-06
-4.76924e-06
-8.04402e-06
-1.1126e-05
-1.40493e-05
-1.68481e-05
-1.95533e-05
-2.21899e-05
-2.47755e-05
-2.73198e-05
-2.98246e-05
-3.22832e-05
-3.46818e-05
-3.69996e-05
-3.92094e-05
-4.12785e-05
-4.31688e-05
-4.48383e-05
-4.62406e-05
-4.7326e-05
-4.80417e-05
-4.8332e-05
-4.81389e-05
-4.74023e-05
-4.60603e-05
-4.40492e-05
-4.13045e-05
-3.77606e-05
-3.33513e-05
-2.80103e-05
-2.16716e-05
-1.42699e-05
-5.74106e-06
3.97731e-06
1.49451e-05
2.72191e-05
4.08524e-05
5.58932e-05
7.23843e-05
9.03617e-05
0.000109854
0.000130882
0.000153455
0.000177573
0.000203222
0.000230378
0.000259
0.000289032
0.000320402
0.000353022
0.000386785
0.000421566
0.000457221
0.00049359
0.000530493
0.000567733
0.000605099
0.000642365
0.000679293
0.000715636
0.000751137
0.000785541
0.000818589
0.000850027
0.00087961
0.000907103
0.000932288
0.000954968
0.000974968
0.000992141
0.00100637
0.00101757
0.00102568
0.0010307
0.00103264
0.00103155
0.00102752
0.00102067
0.00101113
0.000999088
0.000984731
0.000968271
0.000949934
0.000929955
0.000908577
0.000886044
0.0008626
0.000838481
0.000813921
0.000789141
0.000764349
0.000739742
0.000715503
0.000691797
0.000668776
0.000646575
0.000625316
0.000605102
0.000586026
0.000568166
0.000551587
0.000536342
0.000522475
0.000510017
0.000498992
0.000489416
0.000481296
0.000474634
0.000469424
0.000465665
0.000463347
0.000462441
0.000462951
0.000465355
0.000467874
2.45155e-05
1.98467e-05
1.41147e-05
9.44952e-06
5.23224e-06
1.4132e-06
-2.03885e-06
-5.19226e-06
-8.11674e-06
-1.08721e-05
-1.35108e-05
-1.6076e-05
-1.86001e-05
-2.11046e-05
-2.3601e-05
-2.60906e-05
-2.85658e-05
-3.10111e-05
-3.34038e-05
-3.57148e-05
-3.79099e-05
-3.99497e-05
-4.17907e-05
-4.33859e-05
-4.46849e-05
-4.56342e-05
-4.61779e-05
-4.62578e-05
-4.58133e-05
-4.47824e-05
-4.31013e-05
-4.07048e-05
-3.75271e-05
-3.35012e-05
-2.85602e-05
-2.2637e-05
-1.5665e-05
-7.57876e-06
1.68582e-06
1.21906e-05
2.39947e-05
3.71536e-05
5.17184e-05
6.77349e-05
8.52427e-05
0.000104274
0.000124852
0.000146992
0.000170697
0.000195959
0.000222756
0.000251052
0.000280795
0.000311919
0.000344337
0.000377946
0.000412624
0.000448229
0.000484603
0.000521565
0.00055892
0.000596454
0.000633939
0.000671132
0.000707782
0.000743629
0.000778408
0.000811853
0.000843704
0.000873704
0.000901613
0.000927202
0.000950265
0.00097062
0.000988112
0.00100262
0.00101404
0.00102234
0.00102748
0.00102948
0.00102841
0.00102434
0.00101739
0.00100772
0.000995509
0.000980947
0.000964259
0.000945675
0.000925442
0.000903807
0.000881023
0.00085734
0.000833002
0.000808246
0.000783297
0.000758367
0.000733656
0.000709346
0.000685603
0.000662579
0.000640408
0.000619207
0.00059908
0.000580113
0.000562382
0.000545946
0.000530855
0.000517147
0.000504848
0.000493977
0.000484546
0.000476557
0.000470012
0.000464906
0.000461239
0.000459013
0.000458211
0.00045885
0.000461451
0.000464137
2.8962e-05
2.34811e-05
1.68667e-05
1.1718e-05
7.22935e-06
3.29681e-06
-1.53133e-07
-3.23037e-06
-6.03865e-06
-8.66307e-06
-1.11747e-05
-1.36296e-05
-1.60688e-05
-1.8519e-05
-2.09942e-05
-2.34967e-05
-2.60188e-05
-2.85439e-05
-3.10481e-05
-3.3501e-05
-3.58667e-05
-3.81047e-05
-4.01705e-05
-4.20158e-05
-4.35895e-05
-4.48373e-05
-4.57027e-05
-4.61267e-05
-4.60483e-05
-4.54046e-05
-4.4131e-05
-4.21617e-05
-3.94296e-05
-3.58667e-05
-3.14045e-05
-2.59745e-05
-1.95083e-05
-1.19382e-05
-3.19786e-06
6.77717e-06
1.80489e-05
3.06758e-05
4.47126e-05
6.02086e-05
7.72074e-05
9.57453e-05
0.00011585
0.000137542
0.000160828
0.000185704
0.000212154
0.000240148
0.000269637
0.000300559
0.000332833
0.000366358
0.000401016
0.000436667
0.000473153
0.000510295
0.000547896
0.00058574
0.000623596
0.000661217
0.000698345
0.000734713
0.000770048
0.000804075
0.000836522
0.000867123
0.000895625
0.00092179
0.000945399
0.000966261
0.00098421
0.000999114
0.00101088
0.00101944
0.00102477
0.00102689
0.00102586
0.00102176
0.00101472
0.00100489
0.000992456
0.000977631
0.00096064
0.000941727
0.000921144
0.000899151
0.000876009
0.000851977
0.000827307
0.000802241
0.000777012
0.000751836
0.000726915
0.000702434
0.00067856
0.000655444
0.000633218
0.000611998
0.000591884
0.00057296
0.000555296
0.000538948
0.000523961
0.000510366
0.000498188
0.000487439
0.000478126
0.00047025
0.00046381
0.000458802
0.000455229
0.000453096
0.000452393
0.000453143
0.000455881
0.000458677
3.23445e-05
2.60755e-05
1.85985e-05
1.29623e-05
8.1853e-06
4.11351e-06
6.34225e-07
-2.40122e-06
-5.12856e-06
-7.65688e-06
-1.00752e-05
-1.24526e-05
-1.48387e-05
-1.72662e-05
-1.97522e-05
-2.23006e-05
-2.49042e-05
-2.75461e-05
-3.02016e-05
-3.28393e-05
-3.54221e-05
-3.79084e-05
-4.02526e-05
-4.24054e-05
-4.43146e-05
-4.59251e-05
-4.71792e-05
-4.80171e-05
-4.83767e-05
-4.81939e-05
-4.74031e-05
-4.59368e-05
-4.37264e-05
-4.07023e-05
-3.67941e-05
-3.1931e-05
-2.60421e-05
-1.90573e-05
-1.09073e-05
-1.52444e-06
9.15648e-06
2.11977e-05
3.46577e-05
4.959e-05
6.60424e-05
8.40559e-05
0.000103664
0.000124889
0.000147746
0.000172236
0.000198348
0.000226055
0.000255317
0.000286075
0.000318251
0.000351751
0.000386459
0.000422237
0.000458929
0.000496357
0.000534322
0.000572606
0.000610974
0.000649173
0.000686939
0.000723995
0.000760059
0.000794844
0.000828067
0.000859449
0.000888722
0.000915635
0.000939957
0.000961482
0.000980034
0.00099547
0.00100768
0.00101661
0.00102222
0.00102452
0.00102357
0.00101947
0.00101233
0.00100233
0.000989657
0.000974525
0.000957176
0.000937863
0.000916852
0.000894415
0.000870823
0.000846345
0.000821245
0.000795772
0.000770166
0.00074465
0.000719428
0.000694688
0.0006706
0.000647313
0.000624959
0.000603652
0.000583488
0.000564549
0.000546898
0.000530589
0.00051566
0.00050214
0.000490046
0.000479388
0.000470168
0.000462386
0.000456037
0.000451117
0.00044763
0.000445583
0.000444967
0.000445807
0.000448641
0.000451506
3.43102e-05
2.72855e-05
1.89785e-05
1.28663e-05
7.79932e-06
3.57625e-06
4.73494e-08
-2.9725e-06
-5.64898e-06
-8.1136e-06
-1.04723e-05
-1.28063e-05
-1.51739e-05
-1.76135e-05
-2.01457e-05
-2.27766e-05
-2.54996e-05
-2.82981e-05
-3.11469e-05
-3.4014e-05
-3.68614e-05
-3.96466e-05
-4.23228e-05
-4.48398e-05
-4.7144e-05
-4.91795e-05
-5.08871e-05
-5.22058e-05
-5.30721e-05
-5.34203e-05
-5.31829e-05
-5.22909e-05
-5.06734e-05
-4.82585e-05
-4.49734e-05
-4.07446e-05
-3.54985e-05
-2.91618e-05
-2.16618e-05
-1.29276e-05
-2.89017e-06
8.51675e-06
2.13556e-05
3.56844e-05
5.15556e-05
6.9015e-05
8.81007e-05
0.000108842
0.000131258
0.000155355
0.000181129
0.00020856
0.000237611
0.00026823
0.000300345
0.000333865
0.000368678
0.000404651
0.000441629
0.000479433
0.000517865
0.000556705
0.000595711
0.000634627
0.000673179
0.000711081
0.00074804
0.000783756
0.000817931
0.000850272
0.000880495
0.000908332
0.000933537
0.000955889
0.000975198
0.000991308
0.0010041
0.0010135
0.00101948
0.00102204
0.00102124
0.00101717
0.00100996
0.000999794
0.00098686
0.000971391
0.000953639
0.000933872
0.000912367
0.000889412
0.00086529
0.000840284
0.000814668
0.000788702
0.000762634
0.000736693
0.00071109
0.000686016
0.000661641
0.000638116
0.000615572
0.000594119
0.000573852
0.000554846
0.000537163
0.000520851
0.000505942
0.000492461
0.00048042
0.000469825
0.000460676
0.000452968
0.000446694
0.000441849
0.000438438
0.000436467
0.000435927
0.00043684
0.000439741
0.000442653
3.45255e-05
2.67816e-05
1.76839e-05
1.11161e-05
5.76701e-06
1.38961e-06
-2.20143e-06
-5.22575e-06
-7.87713e-06
-1.03079e-05
-1.26395e-05
-1.49646e-05
-1.73495e-05
-1.98378e-05
-2.24539e-05
-2.52057e-05
-2.80881e-05
-3.10846e-05
-3.417e-05
-3.73118e-05
-4.04715e-05
-4.36056e-05
-4.66663e-05
-4.96024e-05
-5.2359e-05
-5.48787e-05
-5.71012e-05
-5.89635e-05
-6.04003e-05
-6.13441e-05
-6.17253e-05
-6.14723e-05
-6.05119e-05
-5.87695e-05
-5.61692e-05
-5.26347e-05
-4.80889e-05
-4.24553e-05
-3.56578e-05
-2.76216e-05
-1.82738e-05
-7.54425e-06
4.63378e-06
1.83227e-05
3.35797e-05
5.04554e-05
6.89934e-05
8.92284e-05
0.000111185
0.000134877
0.000160305
0.000187456
0.0002163
0.000246792
0.000278864
0.000312432
0.000347389
0.000383606
0.000420928
0.000459181
0.000498165
0.000537656
0.000577411
0.000617166
0.000656638
0.000695533
0.000733543
0.000770355
0.000805655
0.000839132
0.000870485
0.000899427
0.000925695
0.000949048
0.00096928
0.000986221
0.000999739
0.00100975
0.00101621
0.00101912
0.00101854
0.00101456
0.00100732
0.000997004
0.000983813
0.000967992
0.000949808
0.000929543
0.000907491
0.000883955
0.000859235
0.000833628
0.000807421
0.000780886
0.000754281
0.000727843
0.000701789
0.000676314
0.000651591
0.000627771
0.000604983
0.000583336
0.000562921
0.000543808
0.000526056
0.000509705
0.000494785
0.000481314
0.0004693
0.000458745
0.000449645
0.000441992
0.000435778
0.000430996
0.000427649
0.000425744
0.000425269
0.000426245
0.000429202
0.000432151
3.2671e-05
2.42457e-05
1.43999e-05
7.40148e-06
1.78365e-06
-2.74566e-06
-6.4063e-06
-9.45083e-06
-1.20995e-05
-1.45238e-05
-1.68595e-05
-1.92096e-05
-2.16475e-05
-2.42218e-05
-2.696e-05
-2.98723e-05
-3.29546e-05
-3.6191e-05
-3.95565e-05
-4.30181e-05
-4.65368e-05
-5.00683e-05
-5.3564e-05
-5.69713e-05
-6.02342e-05
-6.32936e-05
-6.60873e-05
-6.85506e-05
-7.06159e-05
-7.22134e-05
-7.3271e-05
-7.37142e-05
-7.3467e-05
-7.24517e-05
-7.05893e-05
-6.78e-05
-6.40036e-05
-5.91198e-05
-5.3069e-05
-4.57729e-05
-3.71548e-05
-2.71406e-05
-1.56595e-05
-2.64501e-06
1.19647e-05
2.82252e-05
4.61852e-05
6.58851e-05
8.73558e-05
0.000110617
0.000135677
0.000162529
0.000191152
0.000221505
0.000253531
0.000287151
0.000322264
0.000358745
0.000396445
0.000435191
0.000474783
0.000514998
0.000555587
0.000596281
0.000636789
0.000676805
0.000716008
0.000754072
0.000790664
0.000825454
0.000858121
0.000888358
0.000915879
0.000940424
0.000961765
0.000979715
0.000994127
0.0010049
0.00101198
0.00101537
0.00101512
0.00101131
0.00100411
0.000993678
0.000980253
0.000964085
0.000945455
0.000924665
0.000902027
0.00087786
0.000852485
0.000826213
0.000799349
0.000772178
0.00074497
0.000717971
0.000691406
0.000665473
0.00064035
0.000616186
0.000593111
0.000571231
0.000550631
0.00053138
0.000513529
0.000497114
0.000482158
0.000468675
0.000456667
0.000446133
0.000437065
0.000429452
0.000423283
0.000418552
0.000415259
0.000413412
0.000412996
0.00041403
0.000417042
0.00042003
2.84386e-05
1.93701e-05
8.81929e-06
1.4173e-06
-4.45331e-06
-9.12911e-06
-1.28637e-05
-1.59413e-05
-1.8607e-05
-2.10502e-05
-2.34196e-05
-2.58273e-05
-2.83532e-05
-3.10502e-05
-3.39487e-05
-3.70607e-05
-4.03832e-05
-4.39008e-05
-4.75886e-05
-5.14136e-05
-5.53362e-05
-5.93114e-05
-6.32894e-05
-6.72165e-05
-7.10352e-05
-7.46844e-05
-7.81002e-05
-8.12154e-05
-8.39602e-05
-8.62619e-05
-8.80454e-05
-8.92334e-05
-8.97465e-05
-8.95038e-05
-8.8423e-05
-8.64208e-05
-8.34136e-05
-7.9318e-05
-7.40508e-05
-6.75304e-05
-5.96768e-05
-5.04126e-05
-3.96633e-05
-2.73585e-05
-1.34325e-05
2.17505e-06
1.95177e-05
3.86415e-05
5.95835e-05
8.23707e-05
0.000107018
0.000133527
0.000161884
0.000192059
0.000224001
0.00025764
0.000292883
0.000329611
0.000367681
0.000406924
0.000447143
0.000488112
0.000529584
0.000571282
0.000612909
0.000654149
0.000694668
0.000734124
0.000772165
0.000808443
0.000842613
0.000874346
0.00090333
0.000929282
0.000951952
0.000971127
0.000986642
0.000998378
0.00100627
0.0010103
0.00101052
0.00100702
0.000999948
0.000989492
0.000975888
0.000959406
0.000940344
0.000919023
0.000895776
0.000870945
0.000844869
0.000817881
0.000790304
0.000762439
0.000734569
0.000706952
0.000679822
0.000653382
0.000627813
0.000603266
0.000579868
0.000557723
0.000536913
0.0005175
0.000499529
0.000483031
0.000468022
0.000454511
0.000442495
0.000431969
0.000422919
0.000415333
0.0004092
0.000404509
0.000401263
0.000399467
0.000399107
0.000400199
0.000403274
0.000406309
2.153e-05
1.1856e-05
6.42947e-07
-7.13536e-06
-1.3242e-05
-1.80575e-05
-2.18689e-05
-2.49905e-05
-2.76911e-05
-3.01767e-05
-3.26076e-05
-3.51041e-05
-3.77516e-05
-4.06068e-05
-4.37024e-05
-4.7052e-05
-5.06535e-05
-5.44922e-05
-5.8543e-05
-6.27727e-05
-6.71413e-05
-7.16029e-05
-7.61068e-05
-8.05977e-05
-8.50163e-05
-8.92999e-05
-9.33821e-05
-9.71932e-05
-0.00010066
-0.000103708
-0.000106259
-0.000108231
-0.000109542
-0.000110108
-0.000109843
-0.000108661
-0.000106475
-0.000103198
-9.87453e-05
-9.30317e-05
-8.59749e-05
-7.74948e-05
-6.75143e-05
-5.59599e-05
-4.27626e-05
-2.78581e-05
-1.11884e-05
7.29802e-06
2.76444e-05
4.98845e-05
7.40415e-05
0.000100126
0.000128133
0.000158041
0.000189812
0.000223384
0.000258674
0.000295572
0.000333943
0.000373624
0.000414423
0.000456119
0.000498461
0.000541173
0.000583952
0.000626474
0.000668393
0.000709352
0.000748984
0.000786917
0.000822784
0.00085623
0.000886917
0.000914532
0.000938797
0.000959473
0.000976367
0.000989337
0.000998298
0.00100322
0.00100414
0.00100114
0.000994373
0.000984031
0.000970362
0.00095365
0.000934212
0.00091239
0.000888543
0.000863035
0.000836232
0.00080849
0.000780153
0.000751543
0.00072296
0.000694675
0.00066693
0.00063994
0.000613885
0.000588919
0.00056517
0.000542735
0.000521694
0.000502102
0.000483998
0.000467404
0.000452333
0.000438785
0.000426753
0.000416225
0.000407185
0.000399619
0.000393512
0.000388855
0.00038565
0.000383901
0.000383597
0.000384751
0.000387901
0.000390998
1.16562e-05
1.41349e-06
-1.042e-05
-1.8548e-05
-2.48741e-05
-2.98225e-05
-3.37127e-05
-3.68884e-05
-3.96403e-05
-4.219e-05
-4.47085e-05
-4.73232e-05
-5.01242e-05
-5.31711e-05
-5.64989e-05
-6.01221e-05
-6.40395e-05
-6.82365e-05
-7.26881e-05
-7.7361e-05
-8.22142e-05
-8.72012e-05
-9.22698e-05
-9.73633e-05
-0.000102421
-0.000107377
-0.000112162
-0.000116706
-0.000120931
-0.000124759
-0.000128108
-0.000130894
-0.000133032
-0.000134434
-0.000135011
-0.000134674
-0.000133333
-0.000130901
-0.000127289
-0.000122412
-0.000116185
-0.000108528
-9.93608e-05
-8.86092e-05
-7.62019e-05
-6.20716e-05
-4.61566e-05
-2.84008e-05
-8.75496e-06
1.28218e-05
3.63607e-05
6.18814e-05
8.93897e-05
0.000118876
0.000150312
0.000183649
0.000218816
0.000255715
0.000294222
0.000334184
0.000375418
0.000417709
0.000460813
0.000504455
0.000548333
0.000592116
0.000635455
0.000677979
0.000719304
0.000759042
0.000796801
0.000832199
0.000864867
0.00089446
0.000920665
0.000943208
0.000961862
0.000976454
0.000986869
0.000993054
0.000995023
0.000992851
0.000986679
0.000976706
0.000963184
0.000946414
0.000926731
0.000904502
0.000880113
0.000853958
0.000826432
0.00079792
0.000768793
0.000739399
0.000710056
0.000681055
0.000652651
0.000625066
0.000598487
0.000573071
0.000548942
0.000526198
0.000504909
0.000485126
0.00046688
0.000450186
0.000435048
0.000421459
0.000409407
0.000398873
0.000389839
0.000382287
0.000376202
0.000371574
0.000368405
0.000366703
0.000366455
0.000367678
0.00037092
0.000374094
-1.46227e-06
-1.22379e-05
-2.46513e-05
-3.31038e-05
-3.96338e-05
-4.47087e-05
-4.86797e-05
-5.19186e-05
-5.47374e-05
-5.73716e-05
-6.00021e-05
-6.27623e-05
-6.57464e-05
-6.90167e-05
-7.26092e-05
-7.65397e-05
-8.0807e-05
-8.53968e-05
-9.02841e-05
-9.54348e-05
-0.000100807
-0.000106354
-0.000112021
-0.000117751
-0.000123479
-0.000129139
-0.000134659
-0.000139963
-0.000144973
-0.000149606
-0.000153778
-0.000157401
-0.000160386
-0.000162643
-0.000164081
-0.000164607
-0.000164133
-0.000162568
-0.000159824
-0.000155816
-0.000150459
-0.000143673
-0.000135379
-0.000125504
-0.000113975
-0.000100723
-8.56856e-05
-6.88019e-05
-5.00179e-05
-2.92864e-05
-6.56805e-06
1.81663e-05
4.49335e-05
7.37361e-05
0.000104559
0.000137369
0.000172107
0.000208695
0.000247021
0.000286949
0.00032831
0.000370904
0.0004145
0.000458832
0.000503607
0.0005485
0.000593159
0.000637211
0.000680264
0.000721913
0.000761745
0.000799351
0.000834329
0.000866297
0.0008949
0.000919819
0.000940781
0.000957567
0.00097002
0.000978048
0.00098163
0.000980818
0.000975736
0.000966574
0.000953587
0.000937084
0.000917423
0.000894995
0.000870217
0.000843518
0.000815329
0.000786073
0.000756155
0.000725953
0.000695816
0.000666056
0.000636946
0.000608722
0.000581579
0.000555677
0.00053114
0.000508063
0.000486511
0.000466526
0.000448131
0.000431334
0.000416127
0.000402497
0.000390424
0.000379885
0.000370855
0.000363316
0.000357249
0.000352647
0.000349512
0.000347855
0.000347665
0.000348964
0.000352314
0.000355581
-1.80948e-05
-2.93688e-05
-4.23235e-05
-5.10765e-05
-5.77961e-05
-6.29918e-05
-6.7046e-05
-7.03572e-05
-7.32574e-05
-7.59953e-05
-7.87604e-05
-8.16917e-05
-8.48865e-05
-8.8409e-05
-9.22965e-05
-9.65649e-05
-0.000101213
-0.000106227
-0.000111581
-0.000117241
-0.000123163
-0.0001293
-0.000135595
-0.000141988
-0.000148414
-0.000154804
-0.000161081
-0.000167168
-0.000172982
-0.000178438
-0.000183449
-0.000187923
-0.000191769
-0.000194894
-0.000197206
-0.000198613
-0.000199024
-0.00019835
-0.000196506
-0.000193408
-0.000188975
-0.000183129
-0.000175796
-0.000166904
-0.000156382
-0.000144165
-0.000130188
-0.000114389
-9.67127e-05
-7.71052e-05
-5.55208e-05
-3.19217e-05
-6.28003e-06
2.14191e-05
5.11754e-05
8.29713e-05
0.000116768
0.000152505
0.000190094
0.000229421
0.000270343
0.000312683
0.000356236
0.000400761
0.000445986
0.000491606
0.000537285
0.000582659
0.000627337
0.00067091
0.000712951
0.000753026
0.000790702
0.000825551
0.000857168
0.000885177
0.000909242
0.000929079
0.000944465
0.000955248
0.000961349
0.000962774
0.00095961
0.000952022
0.000940254
0.000924618
0.000905484
0.000883269
0.000858426
0.000831425
0.000802742
0.000772847
0.000742192
0.000711199
0.000680253
0.000649701
0.000619841
0.000590929
0.000563174
0.000536742
0.000511761
0.000488321
0.000466482
0.00044628
0.000427727
0.00041082
0.000395543
0.000381873
0.00036978
0.000359235
0.00035021
0.000342681
0.000336631
0.000332052
0.000328948
0.000327335
0.000327206
0.000328586
0.000332059
0.000335433
-3.85004e-05
-5.02396e-05
-6.36983e-05
-7.27296e-05
-7.96259e-05
-8.49378e-05
-8.90779e-05
-9.24705e-05
-9.54662e-05
-9.83259e-05
-0.000101247
-0.000104373
-0.000107804
-0.000111605
-0.000115815
-0.000120449
-0.000125507
-0.000130973
-0.000136821
-0.000143017
-0.000149515
-0.000156266
-0.000163214
-0.000170294
-0.000177439
-0.000184576
-0.000191629
-0.000198514
-0.000205146
-0.000211437
-0.000217296
-0.000222631
-0.000227346
-0.00023135
-0.000234549
-0.000236853
-0.000238172
-0.000238423
-0.000237522
-0.000235394
-0.000231962
-0.000227157
-0.000220911
-0.000213159
-0.000203837
-0.000192885
-0.00018024
-0.000165846
-0.000149645
-0.000131583
-0.00011161
-8.96827e-05
-6.57641e-05
-3.98278e-05
-1.18594e-05
1.81415e-05
5.01591e-05
8.41563e-05
0.000120078
0.000157843
0.000197347
0.000238456
0.000281009
0.000324812
0.000369639
0.000415228
0.000461285
0.000507476
0.000553438
0.000598772
0.000643051
0.000685827
0.000726634
0.000765001
0.00080046
0.000832561
0.000860881
0.000885043
0.000904727
0.000919683
0.000929741
0.000934824
0.000934945
0.000930218
0.00092085
0.000907134
0.000889445
0.000868219
0.000843942
0.000817135
0.00078833
0.00075806
0.000726837
0.000695146
0.000663428
0.000632078
0.000601435
0.000571785
0.00054336
0.000516342
0.000490862
0.000467014
0.000444853
0.000424406
0.000405675
0.000388646
0.000373291
0.000359575
0.00034746
0.000336908
0.000327885
0.000320364
0.000314327
0.000309766
0.000306689
0.000305117
0.000305048
0.000306513
0.00031012
0.000313614
-6.2927e-05
-7.50993e-05
-8.90268e-05
-9.83157e-05
-0.000105377
-0.000110802
-0.000115031
-0.000118514
-0.000121619
-0.000124618
-0.000127714
-0.000131056
-0.000134747
-0.000138851
-0.000143408
-0.000148434
-0.000153926
-0.000159869
-0.000166237
-0.000172991
-0.000180089
-0.000187476
-0.000195095
-0.00020288
-0.000210761
-0.000218661
-0.000226501
-0.000234194
-0.000241653
-0.000248787
-0.000255501
-0.000261702
-0.000267295
-0.000272187
-0.000276288
-0.000279511
-0.000281772
-0.000282994
-0.000283103
-0.000282032
-0.000279718
-0.000276103
-0.000271131
-0.000264751
-0.000256911
-0.000247561
-0.000236652
-0.000224133
-0.000209955
-0.000194069
-0.000176428
-0.000156988
-0.000135708
-0.000112554
-8.74979e-05
-6.05216e-05
-3.16158e-05
-7.80721e-07
3.19689e-05
6.66035e-05
0.000103079
0.000141331
0.000181272
0.000222791
0.000265744
0.000309953
0.000355202
0.00040123
0.000447731
0.000494352
0.00054069
0.000586298
0.000630691
0.000673351
0.000713737
0.000751304
0.000785516
0.000815862
0.000841879
0.000863168
0.000879413
0.000890394
0.000896003
0.000896245
0.000891248
0.000881253
0.000866608
0.000847755
0.000825211
0.000799545
0.000771361
0.000741271
0.000709876
0.000677744
0.000645402
0.000613317
0.000581893
0.000551468
0.000522313
0.000494635
0.000468585
0.000444261
0.000421717
0.000400976
0.000382028
0.000364847
0.000349392
0.000335615
0.000323467
0.000312899
0.000303871
0.00029635
0.000290318
0.000285767
0.000282709
0.000281171
0.000281157
0.000282706
0.000286456
0.000290078
-9.16111e-05
-0.000104186
-0.000118548
-0.000128076
-0.000135292
-0.000140827
-0.00014515
-0.000148733
-0.00015196
-0.000155114
-0.000158405
-0.000161984
-0.000165955
-0.000170385
-0.000175312
-0.000180752
-0.000186701
-0.000193143
-0.000200051
-0.000207386
-0.000215102
-0.000223143
-0.00023145
-0.000239955
-0.000248584
-0.000257259
-0.000265894
-0.000274404
-0.000282696
-0.000290676
-0.000298251
-0.000305325
-0.000311805
-0.000317601
-0.000322628
-0.000326806
-0.00033006
-0.000332326
-0.000333543
-0.000333662
-0.000332637
-0.000330431
-0.000327008
-0.000322338
-0.00031639
-0.000309138
-0.00030055
-0.000290599
-0.000279251
-0.000266477
-0.000252242
-0.000236513
-0.000219257
-0.000200438
-0.00018002
-0.000157965
-0.000134233
-0.00010878
-8.15597e-05
-5.25231e-05
-2.16218e-05
1.11839e-05
4.59341e-05
8.2648e-05
0.000121322
0.000161919
0.000204362
0.000248517
0.000294194
0.000341128
0.000388984
0.000437347
0.000485729
0.000533571
0.000580254
0.000625117
0.000667472
0.000706627
0.000741915
0.000772715
0.000798487
0.000818787
0.000833299
0.000841843
0.000844391
0.000841069
0.00083215
0.000818043
0.000799274
0.000776462
0.000750286
0.00072146
0.000690702
0.000658704
0.000626114
0.000593513
0.000561408
0.000530221
0.000500292
0.000471878
0.000445163
0.000420265
0.000397249
0.000376132
0.000356899