/*--------------------------------*- C++ -*----------------------------------*\
| =========                 |                                                 |
| \\      /  F ield         | OpenFOAM: The Open Source CFD Toolbox           |
|  \\    /   O peration     | Version:  2406                                  |
|   \\  /    A nd           | Website:  www.openfoam.com                      |
|    \\/     M anipulation  |                                                 |
\*---------------------------------------------------------------------------*/
FoamFile
{
    version     2.0;
    format      ascii;
    arch        "LSB;label=32;scalar=64";
    class       volVectorField;
    location    "25.9";
    object      Uold;
}
// * * * * * * * * * * * * * * * * * * * * * * * * * * * * * * * * * * * * * //

dimensions      [0 1 -1 0 0 0 0];

internalField   nonuniform List<vector> 
14400
(
(-1.03421e-05 1.02879e-05 0)
(1.04834e-05 -1.21701e-05 0)
(9.76806e-05 -3.34919e-05 0)
(0.000233975 -5.07281e-05 0)
(0.000410617 -5.97779e-05 0)
(0.000604041 -6.42132e-05 0)
(0.000806634 -6.38876e-05 0)
(0.00100304 -6.09838e-05 0)
(0.00118904 -5.5756e-05 0)
(0.00135648 -4.94665e-05 0)
(0.00150412 -4.24274e-05 0)
(0.0016289 -3.53829e-05 0)
(0.00173181 -2.85672e-05 0)
(0.00181297 -2.23712e-05 0)
(0.00187465 -1.68912e-05 0)
(0.00191849 -1.22593e-05 0)
(0.00194705 -8.43052e-06 0)
(0.00196221 -5.35124e-06 0)
(0.00196592 -2.86266e-06 0)
(0.00195937 -7.90611e-07 0)
(0.00194331 1.09385e-06 0)
(0.00191764 3.02228e-06 0)
(0.00188161 5.24067e-06 0)
(0.00183366 7.97738e-06 0)
(0.00177156 1.1445e-05 0)
(0.00169241 1.58235e-05 0)
(0.00159281 2.12627e-05 0)
(0.00146889 2.78792e-05 0)
(0.00131647 3.5763e-05 0)
(0.00113107 4.49823e-05 0)
(0.00090807 5.55908e-05 0)
(0.000642681 6.76315e-05 0)
(0.000330057 8.11393e-05 0)
(-3.46821e-05 9.61387e-05 0)
(-0.000456378 0.00011264 0)
(-0.000939753 0.000130631 0)
(-0.00148931 0.000150072 0)
(-0.0021092 0.000170887 0)
(-0.00280309 0.000192956 0)
(-0.003574 0.000216112 0)
(-0.00442412 0.000240137 0)
(-0.00535465 0.000264759 0)
(-0.00636563 0.000289652 0)
(-0.00745576 0.000314441 0)
(-0.0086223 0.000338697 0)
(-0.00986088 0.000361953 0)
(-0.0111654 0.000383702 0)
(-0.0125282 0.000403406 0)
(-0.0139395 0.000420509 0)
(-0.0153881 0.00043444 0)
(-0.0168607 0.000444629 0)
(-0.0183427 0.000450513 0)
(-0.0198176 0.000451547 0)
(-0.0212679 0.000447215 0)
(-0.0226746 0.000437042 0)
(-0.0240178 0.0004206 0)
(-0.0252771 0.000397527 0)
(-0.0264313 0.000367537 0)
(-0.0274593 0.000330435 0)
(-0.0283402 0.000286133 0)
(-0.0290536 0.000234674 0)
(-0.0295802 0.000176245 0)
(-0.0299019 0.0001112 0)
(-0.0300028 4.00815e-05 0)
(-0.0298691 -3.63664e-05 0)
(-0.02949 -0.000117183 0)
(-0.0288581 -0.000201183 0)
(-0.0279698 -0.000286961 0)
(-0.0268257 -0.000372904 0)
(-0.0254314 -0.000457212 0)
(-0.0237971 -0.000537943 0)
(-0.0219387 -0.000613063 0)
(-0.0198769 -0.000680518 0)
(-0.0176378 -0.000738308 0)
(-0.0152523 -0.000784585 0)
(-0.0127556 -0.000817745 0)
(-0.0101864 -0.00083652 0)
(-0.0075861 -0.000840069 0)
(-0.00499767 -0.000828045 0)
(-0.00246428 -0.000800643 0)
(-2.80624e-05 -0.000758625 0)
(0.00227135 -0.000703297 0)
(0.00439812 -0.00063647 0)
(0.00632139 -0.00056037 0)
(0.00801636 -0.000477532 0)
(0.00946497 -0.000390665 0)
(0.0106564 -0.000302513 0)
(0.0115872 -0.000215711 0)
(0.0122609 -0.000132658 0)
(0.0126878 -5.54121e-05 0)
(0.0128837 1.43882e-05 0)
(0.0128692 7.55641e-05 0)
(0.0126686 0.000127408 0)
(0.0123082 0.000169655 0)
(0.0118156 0.000202447 0)
(0.0112183 0.000226255 0)
(0.0105429 0.000241817 0)
(0.00981393 0.000250045 0)
(0.00905369 0.000251974 0)
(0.00828166 0.000248665 0)
(0.0075142 0.000241184 0)
(0.00676474 0.000230519 0)
(0.00604358 0.000217603 0)
(0.00535851 0.000203222 0)
(0.00471445 0.00018811 0)
(0.00411465 0.000172816 0)
(0.00355979 0.000157889 0)
(0.00304994 0.000143637 0)
(0.00258263 0.000130473 0)
(0.00215629 0.000118416 0)
(0.00176656 0.00010775 0)
(0.0014122 9.80192e-05 0)
(0.0010886 8.93164e-05 0)
(0.000797882 8.03005e-05 0)
(0.000537741 7.08391e-05 0)
(0.000317507 5.80977e-05 0)
(0.000140143 4.2391e-05 0)
(2.27487e-05 1.97627e-05 0)
(-2.99349e-05 -2.83172e-06 0)
(-1.96495e-05 -1.93301e-05 0)
(1.16236e-05 -1.0188e-05 0)
(0.000125851 -0.000127097 0)
(0.000372935 -0.000233595 0)
(0.000713837 -0.000320179 0)
(0.00113634 -0.000372061 0)
(0.00159633 -0.000398411 0)
(0.0020759 -0.000399879 0)
(0.00254371 -0.000384285 0)
(0.00298704 -0.000354681 0)
(0.00338801 -0.0003166 0)
(0.00374075 -0.000272994 0)
(0.0040378 -0.000227504 0)
(0.00427889 -0.000182205 0)
(0.00446331 -0.000139125 0)
(0.00459419 -9.92473e-05 0)
(0.00467416 -6.32544e-05 0)
(0.00470733 -3.11059e-05 0)
(0.0046968 -2.43362e-06 0)
(0.00464552 2.36109e-05 0)
(0.0045549 4.81204e-05 0)
(0.00442517 7.24528e-05 0)
(0.00425465 9.80669e-05 0)
(0.00404004 0.000126484 0)
(0.0037761 0.000159169 0)
(0.00345596 0.000197482 0)
(0.00307115 0.000242608 0)
(0.0026119 0.00029554 0)
(0.00206735 0.00035706 0)
(0.00142588 0.000427755 0)
(0.000675273 0.000508037 0)
(-0.000196944 0.00059816 0)
(-0.00120332 0.000698242 0)
(-0.00235624 0.000808259 0)
(-0.00366763 0.000928032 0)
(-0.00514871 0.0010572 0)
(-0.00680968 0.00119517 0)
(-0.00865932 0.0013411 0)
(-0.0107046 0.00149384 0)
(-0.0129503 0.00165193 0)
(-0.0153984 0.00181354 0)
(-0.0180479 0.00197652 0)
(-0.0208944 0.00213839 0)
(-0.0239295 0.00229634 0)
(-0.0271408 0.00244733 0)
(-0.0305118 0.00258809 0)
(-0.0340214 0.0027152 0)
(-0.0376445 0.00282518 0)
(-0.0413517 0.00291454 0)
(-0.04511 0.00297986 0)
(-0.0488827 0.0030179 0)
(-0.0526303 0.00302564 0)
(-0.0563108 0.00300038 0)
(-0.0598803 0.00293975 0)
(-0.0632939 0.00284183 0)
(-0.0665062 0.00270517 0)
(-0.0694716 0.00252882 0)
(-0.0721459 0.00231241 0)
(-0.0744861 0.00205613 0)
(-0.0764514 0.00176082 0)
(-0.078004 0.00142798 0)
(-0.0791094 0.00105979 0)
(-0.0797374 0.000659174 0)
(-0.0798621 0.000229809 0)
(-0.0794632 -0.000223855 0)
(-0.078526 -0.000696574 0)
(-0.077042 -0.00118232 0)
(-0.0750098 -0.00167428 0)
(-0.072435 -0.00216497 0)
(-0.069331 -0.00264624 0)
(-0.0657191 -0.00310945 0)
(-0.0616288 -0.00354562 0)
(-0.0570977 -0.00394563 0)
(-0.0521714 -0.00430051 0)
(-0.0469033 -0.00460165 0)
(-0.041354 -0.00484122 0)
(-0.0355906 -0.00501242 0)
(-0.0296856 -0.00510986 0)
(-0.0237155 -0.00512988 0)
(-0.0177596 -0.00507078 0)
(-0.011898 -0.00493307 0)
(-0.00621002 -0.00471956 0)
(-0.00077185 -0.00443539 0)
(0.00434516 -0.00408791 0)
(0.0090766 -0.00368648 0)
(0.0133667 -0.0032421 0)
(0.0171702 -0.00276702 0)
(0.0204532 -0.00227417 0)
(0.0231944 -0.00177664 0)
(0.0253851 -0.00128711 0)
(0.0270299 -0.000817301 0)
(0.0281451 -0.000377529 0)
(0.0287586 2.36902e-05 0)
(0.0289076 0.000379882 0)
(0.0286377 0.000686731 0)
(0.028 0.000942089 0)
(0.0270493 0.00114582 0)
(0.025842 0.00129962 0)
(0.0244339 0.00140665 0)
(0.0228784 0.00147124 0)
(0.0212252 0.00149851 0)
(0.0195186 0.00149403 0)
(0.0177976 0.00146348 0)
(0.0160946 0.00141247 0)
(0.014436 0.00134621 0)
(0.0128418 0.00126956 0)
(0.0113269 0.00118666 0)
(0.00990009 0.00110132 0)
(0.00856733 0.00101633 0)
(0.00732875 0.000934303 0)
(0.00618457 0.000856348 0)
(0.00512963 0.00078365 0)
(0.00416333 0.000714828 0)
(0.00327949 0.000649227 0)
(0.00248319 0.000581629 0)
(0.00177234 0.000509737 0)
(0.00116465 0.000423517 0)
(0.000664624 0.000323271 0)
(0.000302101 0.000198215 0)
(7.62543e-05 7.38649e-05 0)
(-2.77612e-06 -2.97983e-05 0)
(3.20269e-05 -9.55339e-05 0)
(0.000229578 -0.000373352 0)
(0.000612839 -0.000617764 0)
(0.0011128 -0.000811499 0)
(0.00171645 -0.0009327 0)
(0.00236474 -0.000993096 0)
(0.00303496 -0.000996554 0)
(0.00368565 -0.00095716 0)
(0.00429883 -0.00088356 0)
(0.00485011 -0.000787217 0)
(0.00532991 -0.000676052 0)
(0.00572714 -0.000558102 0)
(0.00603959 -0.00043886 0)
(0.00626491 -0.000322937 0)
(0.00640544 -0.000212994 0)
(0.00646312 -0.000110564 0)
(0.00644161 -1.56862e-05 0)
(0.00634332 7.26178e-05 0)
(0.00617023 0.00015639 0)
(0.00592224 0.000238392 0)
(0.00559742 0.000321996 0)
(0.00519121 0.000410887 0)
(0.00469663 0.000508886 0)
(0.00410399 0.000619703 0)
(0.00340126 0.000746769 0)
(0.00257415 0.000893082 0)
(0.00160663 0.00106112 0)
(0.000481227 0.0012528 0)
(-0.00082044 0.00146946 0)
(-0.00231724 0.00171192 0)
(-0.00402802 0.00198048 0)
(-0.00597115 0.00227493 0)
(-0.00816401 0.00259457 0)
(-0.0106225 0.00293811 0)
(-0.0133602 0.00330364 0)
(-0.0163883 0.00368851 0)
(-0.0197142 0.00408928 0)
(-0.0233415 0.00450165 0)
(-0.027269 0.00492042 0)
(-0.0314901 0.00533954 0)
(-0.0359923 0.00575213 0)
(-0.0407572 0.0061506 0)
(-0.0457597 0.00652679 0)
(-0.0509685 0.00687212 0)
(-0.056346 0.00717787 0)
(-0.0618491 0.0074353 0)
(-0.0674291 0.00763595 0)
(-0.0730332 0.00777185 0)
(-0.0786051 0.00783573 0)
(-0.084086 0.00782118 0)
(-0.0894155 0.00772283 0)
(-0.0945329 0.00753649 0)
(-0.0993783 0.00725919 0)
(-0.103893 0.00688926 0)
(-0.108021 0.00642634 0)
(-0.11171 0.00587141 0)
(-0.114909 0.00522674 0)
(-0.117576 0.00449591 0)
(-0.119669 0.00368374 0)
(-0.121154 0.00279631 0)
(-0.122001 0.00184095 0)
(-0.122188 0.000826209 0)
(-0.121697 -0.000238143 0)
(-0.120516 -0.0013411 0)
(-0.118641 -0.00247045 0)
(-0.116074 -0.00361281 0)
(-0.112823 -0.00475366 0)
(-0.108906 -0.00587746 0)
(-0.104345 -0.0069678 0)
(-0.0991709 -0.00800757 0)
(-0.0934234 -0.00897928 0)
(-0.0871487 -0.00986536 0)
(-0.0804007 -0.0106486 0)
(-0.0732411 -0.0113125 0)
(-0.0657385 -0.0118422 0)
(-0.0579682 -0.0122245 0)
(-0.0500111 -0.0124487 0)
(-0.0419528 -0.0125074 0)
(-0.0338824 -0.0123966 0)
(-0.0258909 -0.0121163 0)
(-0.0180697 -0.0116707 0)
(-0.0105087 -0.0110686 0)
(-0.00329417 -0.0103229 0)
(0.00349305 -0.00945081 0)
(0.00977957 -0.00847291 0)
(0.0155014 -0.00741284 0)
(0.0206054 -0.00629634 0)
(0.0250511 -0.00515033 0)
(0.0288115 -0.00400189 0)
(0.0318738 -0.0028772 0)
(0.0342394 -0.00180056 0)
(0.0359244 -0.000793495 0)
(0.0369579 0.000126025 0)
(0.0373813 0.000944099 0)
(0.0372463 0.00165124 0)
(0.0366132 0.00224244 0)
(0.0355479 0.00271701 0)
(0.0341201 0.00307816 0)
(0.0323998 0.00333253 0)
(0.030456 0.00348937 0)
(0.0283538 0.00355992 0)
(0.026153 0.00355655 0)
(0.0239065 0.00349217 0)
(0.0216601 0.00337949 0)
(0.019451 0.00323076 0)
(0.0173094 0.00305702 0)
(0.0152568 0.00286837 0)
(0.0133095 0.00267298 0)
(0.0114756 0.0024779 0)
(0.00976161 0.00228731 0)
(0.00816649 0.00210425 0)
(0.00669363 0.00192713 0)
(0.00533847 0.00175387 0)
(0.00411011 0.00157494 0)
(0.00300666 0.00138373 0)
(0.00205227 0.00116273 0)
(0.00124929 0.00090992 0)
(0.000640047 0.00061059 0)
(0.00021682 0.000305244 0)
(2.33352e-05 2.79199e-05 0)
(4.8563e-05 -0.000228163 0)
(0.000315149 -0.000712104 0)
(0.000806731 -0.00111764 0)
(0.00142482 -0.00142782 0)
(0.0021556 -0.00162198 0)
(0.00292812 -0.0017146 0)
(0.00371822 -0.00171412 0)
(0.00447769 -0.00164064 0)
(0.00518604 -0.00150902 0)
(0.00581433 -0.00133695 0)
(0.00635051 -0.00113788 0)
(0.00678037 -0.000924663 0)
(0.00709964 -0.000706628 0)
(0.00730373 -0.000491255 0)
(0.00739317 -0.000283054 0)
(0.00736797 -8.44457e-05 0)
(0.00722981 0.000104556 0)
(0.00697884 0.000285775 0)
(0.00661447 0.000462809 0)
(0.0061335 0.000640549 0)
(0.0055304 0.000824911 0)
(0.00479642 0.00102238 0)
(0.00391978 0.00123963 0)
(0.00288552 0.00148314 0)
(0.00167584 0.00175884 0)
(0.00027044 0.00207187 0)
(-0.00135286 0.00242633 0)
(-0.00321758 0.00282525 0)
(-0.00534781 0.0032705 0)
(-0.00776754 0.00376283 0)
(-0.0104998 0.00430184 0)
(-0.013566 0.00488601 0)
(-0.0169848 0.00551261 0)
(-0.0207716 0.00617761 0)
(-0.0249374 0.00687558 0)
(-0.0294878 0.0075996 0)
(-0.0344221 0.00834113 0)
(-0.0397329 0.00909005 0)
(-0.0454048 0.00983473 0)
(-0.0514143 0.0105622 0)
(-0.0577297 0.0112582 0)
(-0.0643109 0.011908 0)
(-0.07111 0.0124962 0)
(-0.0780721 0.0130075 0)
(-0.0851362 0.0134272 0)
(-0.0922364 0.0137415 0)
(-0.0993035 0.0139378 0)
(-0.106266 0.0140054 0)
(-0.113053 0.0139354 0)
(-0.119594 0.0137212 0)
(-0.125821 0.0133584 0)
(-0.131668 0.0128447 0)
(-0.137076 0.0121802 0)
(-0.141989 0.0113671 0)
(-0.146357 0.0104094 0)
(-0.150135 0.0093131 0)
(-0.153285 0.00808563 0)
(-0.155774 0.00673605 0)
(-0.157573 0.00527479 0)
(-0.158662 0.00371356 0)
(-0.159024 0.00206535 0)
(-0.158646 0.000344379 0)
(-0.157523 -0.00143388 0)
(-0.155652 -0.00325268 0)
(-0.153037 -0.00509401 0)
(-0.149688 -0.00693855 0)
(-0.145617 -0.0087657 0)
(-0.140845 -0.0105537 0)
(-0.135396 -0.0122796 0)
(-0.129302 -0.0139197 0)
(-0.122601 -0.0154497 0)
(-0.115337 -0.0168451 0)
(-0.107561 -0.0180818 0)
(-0.0993321 -0.0191366 0)
(-0.0907149 -0.019988 0)
(-0.0817814 -0.0206168 0)
(-0.0726093 -0.0210071 0)
(-0.0632823 -0.0211468 0)
(-0.0538882 -0.0210287 0)
(-0.0445185 -0.0206509 0)
(-0.0352664 -0.0200173 0)
(-0.0262254 -0.0191381 0)
(-0.0174876 -0.0180294 0)
(-0.00914143 -0.0167134 0)
(-0.00127018 -0.0152179 0)
(0.00605018 -0.0135753 0)
(0.0127527 -0.0118217 0)
(0.018781 -0.00999599 0)
(0.0240908 -0.00813825 0)
(0.0286508 -0.00628848 0)
(0.0324439 -0.00448521 0)
(0.0354672 -0.00276413 0)
(0.0377321 -0.00115689 0)
(0.0392642 0.000309955 0)
(0.0401021 0.00161575 0)
(0.040296 0.00274621 0)
(0.0399063 0.00369368 0)
(0.039001 0.0044569 0)
(0.0376533 0.00504061 0)
(0.0359392 0.00545474 0)
(0.0339345 0.00571353 0)
(0.0317126 0.0058343 0)
(0.029342 0.00583652 0)
(0.026885 0.00574045 0)
(0.0243957 0.00556653 0)
(0.0219207 0.00533407 0)
(0.0194964 0.00506113 0)
(0.0171529 0.00476315 0)
(0.0149099 0.00445344 0)
(0.0127844 0.00414101 0)
(0.0107829 0.00383226 0)
(0.00891649 0.0035268 0)
(0.00718459 0.00322204 0)
(0.00560228 0.00290534 0)
(0.00416805 0.00256604 0)
(0.00291268 0.00218045 0)
(0.00183471 0.00174243 0)
(0.000990523 0.00123279 0)
(0.00036704 0.000694414 0)
(5.16472e-05 0.000162849 0)
(5.79248e-05 -0.000401371 0)
(0.000371255 -0.00113555 0)
(0.000940009 -0.00172619 0)
(0.00164043 -0.00216241 0)
(0.00245588 -0.00243114 0)
(0.00330432 -0.00255073 0)
(0.00416049 -0.00253631 0)
(0.00497093 -0.00241423 0)
(0.00571392 -0.00220653 0)
(0.00635734 -0.00193736 0)
(0.00688755 -0.00162631 0)
(0.00728787 -0.00129125 0)
(0.00755214 -0.000945659 0)
(0.00767334 -0.000599949 0)
(0.00764971 -0.000260503 0)
(0.00747849 6.95216e-05 0)
(0.00715844 0.000390387 0)
(0.00668627 0.000705153 0)
(0.00605756 0.00101945 0)
(0.00526473 0.00134085 0)
(0.00429741 0.00167842 0)
(0.00314148 0.00204201 0)
(0.00177943 0.00244169 0)
(0.000190272 0.00288712 0)
(-0.00164989 0.00338699 0)
(-0.00376733 0.00394861 0)
(-0.00618985 0.00457754 0)
(-0.00894585 0.00527744 0)
(-0.0120634 0.00604997 0)
(-0.0155689 0.00689469 0)
(-0.0194863 0.00780908 0)
(-0.0238357 0.00878845 0)
(-0.028632 0.00982585 0)
(-0.0338841 0.010912 0)
(-0.0395931 0.012035 0)
(-0.0457518 0.0131807 0)
(-0.0523436 0.0143324 0)
(-0.0593419 0.0154709 0)
(-0.0667097 0.0165755 0)
(-0.0744003 0.0176238 0)
(-0.0823575 0.0185927 0)
(-0.0905167 0.0194591 0)
(-0.0988068 0.0202005 0)
(-0.107151 0.0207958 0)
(-0.115471 0.0212259 0)
(-0.123686 0.0214748 0)
(-0.131717 0.0215291 0)
(-0.139488 0.021379 0)
(-0.146925 0.0210184 0)
(-0.153963 0.0204444 0)
(-0.16054 0.0196573 0)
(-0.166603 0.0186604 0)
(-0.172104 0.0174599 0)
(-0.177002 0.0160639 0)
(-0.181263 0.0144827 0)
(-0.184857 0.0127281 0)
(-0.187762 0.0108133 0)
(-0.189958 0.00875253 0)
(-0.191431 0.00656125 0)
(-0.192169 0.00425579 0)
(-0.192166 0.0018535 0)
(-0.191415 -0.000627221 0)
(-0.189917 -0.00316683 0)
(-0.187671 -0.00574453 0)
(-0.184683 -0.00833811 0)
(-0.18096 -0.0109239 0)
(-0.176513 -0.0134766 0)
(-0.171358 -0.0159694 0)
(-0.165513 -0.0183741 0)
(-0.159004 -0.0206609 0)
(-0.151861 -0.0227994 0)
(-0.14412 -0.0247582 0)
(-0.135825 -0.0265064 0)
(-0.127026 -0.0280135 0)
(-0.117781 -0.0292509 0)
(-0.108154 -0.0301923 0)
(-0.0982177 -0.0308155 0)
(-0.0880515 -0.0311026 0)
(-0.0777401 -0.0310417 0)
(-0.0673735 -0.0306273 0)
(-0.0570455 -0.0298616 0)
(-0.0468516 -0.0287545 0)
(-0.0368877 -0.0273238 0)
(-0.027248 -0.0255954 0)
(-0.0180229 -0.0236026 0)
(-0.00929737 -0.0213853 0)
(-0.00114868 -0.018989 0)
(0.00635483 -0.0164631 0)
(0.0131554 -0.0138598 0)
(0.019207 -0.0112323 0)
(0.0244763 -0.00863279 0)
(0.0289433 -0.00611134 0)
(0.0326017 -0.00371392 0)
(0.0354592 -0.0014811 0)
(0.0375371 0.000553197 0)
(0.0388698 0.00236262 0)
(0.0395038 0.00392906 0)
(0.0394966 0.00524294 0)
(0.038914 0.00630305 0)
(0.0378288 0.00711602 0)
(0.0363178 0.00769547 0)
(0.0344591 0.00806073 0)
(0.0323295 0.00823558 0)
(0.0300026 0.00824655 0)
(0.0275453 0.00812172 0)
(0.0250187 0.00788895 0)
(0.0224736 0.00757515 0)
(0.0199548 0.00720435 0)
(0.0174951 0.0067977 0)
(0.015124 0.00637084 0)
(0.0128583 0.0059351 0)
(0.0107188 0.00549306 0)
(0.00871138 0.00504276 0)
(0.00685871 0.00457002 0)
(0.00516116 0.00406032 0)
(0.00365761 0.00348488 0)
(0.00234466 0.00283085 0)
(0.00129518 0.00207315 0)
(0.000494447 0.00124524 0)
(7.39784e-05 0.000373384 0)
(6.40757e-05 -0.000594914 0)
(0.000408704 -0.00160583 0)
(0.00102736 -0.00239213 0)
(0.00177758 -0.00295291 0)
(0.00263864 -0.00328785 0)
(0.00351942 -0.00342165 0)
(0.00439334 -0.00337816 0)
(0.00520303 -0.00319054 0)
(0.00592612 -0.00288843 0)
(0.00652827 -0.00250235 0)
(0.0069948 -0.0020579 0)
(0.00730695 -0.00157772 0)
(0.00745673 -0.00107913 0)
(0.00743458 -0.000575106 0)
(0.00723595 -7.35448e-05 0)
(0.0068547 0.000422106 0)
(0.00628574 0.000912836 0)
(0.00552134 0.00140343 0)
(0.00455212 0.00190204 0)
(0.00336499 0.00241941 0)
(0.00194364 0.00296813 0)
(0.000267659 0.00356177 0)
(-0.00168687 0.00421394 0)
(-0.00394731 0.00493742 0)
(-0.0065435 0.00574336 0)
(-0.00950699 0.00664066 0)
(-0.0128698 0.00763545 0)
(-0.0166629 0.00873077 0)
(-0.0209154 0.00992641 0)
(-0.0256523 0.0112188 0)
(-0.0308933 0.0126008 0)
(-0.0366514 0.0140618 0)
(-0.0429311 0.0155876 0)
(-0.0497272 0.0171603 0)
(-0.0570235 0.0187585 0)
(-0.0647923 0.0203572 0)
(-0.0729937 0.0219287 0)
(-0.0815761 0.023443 0)
(-0.090477 0.0248686 0)
(-0.0996241 0.0261735 0)
(-0.108938 0.0273268 0)
(-0.118333 0.0282989 0)
(-0.127722 0.0290634 0)
(-0.137018 0.0295977 0)
(-0.146134 0.0298834 0)
(-0.154991 0.029907 0)
(-0.163513 0.0296599 0)
(-0.171633 0.0291382 0)
(-0.179292 0.0283425 0)
(-0.186438 0.0272773 0)
(-0.193029 0.0259505 0)
(-0.199027 0.0243727 0)
(-0.204404 0.0225566 0)
(-0.209136 0.0205168 0)
(-0.213204 0.0182688 0)
(-0.216594 0.0158292 0)
(-0.219292 0.013215 0)
(-0.22129 0.0104438 0)
(-0.222581 0.00753391 0)
(-0.223158 0.00450387 0)
(-0.223017 0.00137311 0)
(-0.222153 -0.00183813 0)
(-0.220565 -0.00510844 0)
(-0.218251 -0.00841505 0)
(-0.21521 -0.0117336 0)
(-0.211446 -0.0150377 0)
(-0.206961 -0.0182993 0)
(-0.201763 -0.0214877 0)
(-0.195864 -0.0245706 0)
(-0.189277 -0.0275134 0)
(-0.182024 -0.0302799 0)
(-0.174132 -0.0328326 0)
(-0.165632 -0.0351335 0)
(-0.156566 -0.0371449 0)
(-0.146982 -0.0388303 0)
(-0.136938 -0.0401558 0)
(-0.126498 -0.0410912 0)
(-0.115737 -0.0416118 0)
(-0.104737 -0.0416989 0)
(-0.0935852 -0.041342 0)
(-0.0823766 -0.0405394 0)
(-0.0712092 -0.0392986 0)
(-0.0601833 -0.0376376 0)
(-0.0493991 -0.0355838 0)
(-0.0389544 -0.0331745 0)
(-0.0289426 -0.0304554 0)
(-0.0194507 -0.0274795 0)
(-0.0105572 -0.0243055 0)
(-0.00233102 -0.020996 0)
(0.00517018 -0.0176157 0)
(0.0119005 -0.0142294 0)
(0.0178265 -0.0108999 0)
(0.0229276 -0.00768654 0)
(0.0271964 -0.00464328 0)
(0.0306382 -0.00181738 0)
(0.0332715 0.000751961 0)
(0.0351273 0.00303455 0)
(0.0362484 0.00500994 0)
(0.0366882 0.00666771 0)
(0.0365096 0.00800735 0)
(0.0357827 0.00903777 0)
(0.0345828 0.00977619 0)
(0.0329876 0.0102469 0)
(0.0310752 0.0104795 0)
(0.0289201 0.0105072 0)
(0.0265936 0.0103648 0)
(0.0241583 0.0100871 0)
(0.0216722 0.00970665 0)
(0.0191807 0.009253 0)
(0.0167268 0.00874943 0)
(0.0143385 0.00821348 0)
(0.0120482 0.00765244 0)
(0.0098696 0.00706647 0)
(0.00783478 0.00644176 0)
(0.00594789 0.00576064 0)
(0.00425713 0.00499028 0)
(0.00275958 0.0041086 0)
(0.0015446 0.00308194 0)
(0.000598903 0.00192371 0)
(9.20333e-05 0.000641743 0)
(6.70426e-05 -0.000805304 0)
(0.000428662 -0.00211243 0)
(0.00107319 -0.00310112 0)
(0.00184453 -0.00378326 0)
(0.00271725 -0.00417407 0)
(0.00359278 -0.00430679 0)
(0.00444275 -0.00421586 0)
(0.00520669 -0.00394205 0)
(0.00586164 -0.00352327 0)
(0.00637167 -0.00299645 0)
(0.00672125 -0.0023932 0)
(0.00688988 -0.00174058 0)
(0.00686773 -0.00105943 0)
(0.00664257 -0.000364794 0)
(0.0062067 0.00033446 0)
(0.00555002 0.00103518 0)
(0.00466289 0.00173969 0)
(0.0035323 0.00245512 0)
(0.002143 0.00319272 0)
(0.000475512 0.00396689 0)
(-0.00149319 0.00479414 0)
(-0.00379031 0.00569184 0)
(-0.00644636 0.00667704 0)
(-0.00949468 0.00776518 0)
(-0.0129701 0.00896906 0)
(-0.0169076 0.0102979 0)
(-0.0213407 0.0117567 0)
(-0.0262997 0.0133459 0)
(-0.0318098 0.0150606 0)
(-0.037889 0.0168914 0)
(-0.0445465 0.0188231 0)
(-0.051781 0.0208357 0)
(-0.0595791 0.0229041 0)
(-0.0679139 0.0249984 0)
(-0.0767453 0.0270842 0)
(-0.0860191 0.029124 0)
(-0.0956687 0.0310775 0)
(-0.105616 0.0329035 0)
(-0.115776 0.0345612 0)
(-0.126055 0.0360119 0)
(-0.136358 0.0372203 0)
(-0.146591 0.0381559 0)
(-0.156663 0.0387937 0)
(-0.16649 0.0391154 0)
(-0.175994 0.0391087 0)
(-0.185107 0.038768 0)
(-0.193771 0.0380932 0)
(-0.201938 0.0370894 0)
(-0.209568 0.0357658 0)
(-0.216628 0.034135 0)
(-0.223094 0.0322121 0)
(-0.228948 0.030014 0)
(-0.234174 0.0275586 0)
(-0.238762 0.0248645 0)
(-0.242703 0.0219504 0)
(-0.24599 0.018835 0)
(-0.248616 0.0155373 0)
(-0.250577 0.0120757 0)
(-0.251865 0.00846919 0)
(-0.252477 0.00473685 0)
(-0.252405 0.000898398 0)
(-0.251644 -0.00302553 0)
(-0.250187 -0.00701301 0)
(-0.248028 -0.0110405 0)
(-0.245162 -0.0150823 0)
(-0.241582 -0.0191106 0)
(-0.237286 -0.0230949 0)
(-0.232273 -0.0270016 0)
(-0.226543 -0.0307946 0)
(-0.220102 -0.0344347 0)
(-0.21296 -0.0378803 0)
(-0.205131 -0.0410875 0)
(-0.196637 -0.0440109 0)
(-0.187508 -0.0466049 0)
(-0.177782 -0.0488243 0)
(-0.167506 -0.050626 0)
(-0.156736 -0.0519706 0)
(-0.145541 -0.0528241 0)
(-0.133997 -0.0531596 0)
(-0.122191 -0.0529589 0)
(-0.110218 -0.0522144 0)
(-0.0981781 -0.0509296 0)
(-0.0861781 -0.0491201 0)
(-0.0743255 -0.0468142 0)
(-0.062728 -0.0440516 0)
(-0.0514897 -0.0408834 0)
(-0.040709 -0.0373698 0)
(-0.0304763 -0.0335787 0)
(-0.0208719 -0.0295835 0)
(-0.0119647 -0.0254603 0)
(-0.0038114 -0.0212862 0)
(0.00354406 -0.0171367 0)
(0.0100705 -0.0130839 0)
(0.0157495 -0.00919455 0)
(0.0205751 -0.00552846 0)
(0.0245533 -0.00213729 0)
(0.0277022 0.000936729 0)
(0.0300515 0.00366168 0)
(0.0316415 0.00601662 0)
(0.0325232 0.00799181 0)
(0.0327563 0.00958868 0)
(0.0324085 0.0108191 0)
(0.0315525 0.0117045 0)
(0.030265 0.012274 0)
(0.0286223 0.012563 0)
(0.0267008 0.0126107 0)
(0.0245706 0.012458 0)
(0.0222995 0.0121449 0)
(0.0199438 0.0117087 0)
(0.0175584 0.0111807 0)
(0.0151824 0.0105854 0)
(0.0128599 0.00993592 0)
(0.0106136 0.0092357 0)
(0.0084861 0.00847282 0)
(0.00648728 0.00762704 0)
(0.00467558 0.00666216 0)
(0.00305148 0.005545 0)
(0.0017198 0.00423134 0)
(0.000670928 0.0027078 0)
(0.000103751 0.000957491 0)
(6.87406e-05 -0.00102105 0)
(0.000437454 -0.00263046 0)
(0.00108781 -0.00381845 0)
(0.00185452 -0.00461099 0)
(0.0027071 -0.00504093 0)
(0.00354168 -0.00515222 0)
(0.00432788 -0.00499143 0)
(0.00500318 -0.00460786 0)
(0.005544 -0.00404812 0)
(0.00591336 -0.00335545 0)
(0.00609485 -0.00256717 0)
(0.00606641 -0.00171421 0)
(0.00581616 -0.000820273 0)
(0.00532894 9.82739e-05 0)
(0.00459346 0.00103235 0)
(0.0035951 0.00197989 0)
(0.00231894 0.00294528 0)
(0.000745944 0.00393868 0)
(-0.00114574 0.00497495 0)
(-0.00338256 0.0060725 0)
(-0.00599461 0.00725179 0)
(-0.00901584 0.00853374 0)
(-0.0124827 0.00993808 0)
(-0.0164332 0.0114818 0)
(-0.020905 0.0131775 0)
(-0.0259333 0.0150327 0)
(-0.0315493 0.0170484 0)
(-0.0377772 0.0192193 0)
(-0.0446323 0.0215326 0)
(-0.052119 0.0239687 0)
(-0.0602287 0.0265009 0)
(-0.0689384 0.029096 0)
(-0.0782098 0.0317144 0)
(-0.0879895 0.0343117 0)
(-0.0982091 0.0368394 0)
(-0.108788 0.0392469 0)
(-0.119633 0.0414832 0)
(-0.130648 0.0434992 0)
(-0.141729 0.0452494 0)
(-0.152777 0.0466939 0)
(-0.163693 0.0477998 0)
(-0.174389 0.0485419 0)
(-0.184782 0.0489031 0)
(-0.194804 0.0488745 0)
(-0.204395 0.0484542 0)
(-0.213508 0.0476469 0)
(-0.222104 0.0464625 0)
(-0.230156 0.0449153 0)
(-0.237641 0.0430223 0)
(-0.244543 0.0408026 0)
(-0.250852 0.0382766 0)
(-0.25656 0.0354648 0)
(-0.261662 0.032388 0)
(-0.266153 0.0290666 0)
(-0.27003 0.0255202 0)
(-0.273289 0.0217681 0)
(-0.275927 0.017829 0)
(-0.277938 0.0137211 0)
(-0.279318 0.00946273 0)
(-0.28006 0.00507231 0)
(-0.280157 0.000568877 0)
(-0.279601 -0.00402753 0)
(-0.278384 -0.00869544 0)
(-0.276495 -0.0134115 0)
(-0.273924 -0.01815 0)
(-0.270661 -0.0228823 0)
(-0.266695 -0.0275769 0)
(-0.262018 -0.0321986 0)
(-0.256622 -0.0367084 0)
(-0.250501 -0.0410638 0)
(-0.243653 -0.0452185 0)
(-0.236082 -0.049123 0)
(-0.227795 -0.0527252 0)
(-0.218808 -0.0559714 0)
(-0.209145 -0.0588072 0)
(-0.198841 -0.0611796 0)
(-0.18794 -0.0630385 0)
(-0.176498 -0.0643387 0)
(-0.164585 -0.0650424 0)
(-0.152282 -0.0651212 0)
(-0.13968 -0.0645582 0)
(-0.126884 -0.0633496 0)
(-0.114005 -0.061506 0)
(-0.101158 -0.0590533 0)
(-0.0884624 -0.0560321 0)
(-0.0760372 -0.0524968 0)
(-0.0639956 -0.0485145 0)
(-0.052444 -0.0441619 0)
(-0.0414782 -0.0395235 0)
(-0.0311814 -0.0346879 0)
(-0.0216231 -0.0297452 0)
(-0.0128586 -0.0247844 0)
(-0.00492867 -0.0198905 0)
(0.00213978 -0.0151432 0)
(0.00833266 -0.0106144 0)
(0.0136481 -0.00636764 0)
(0.0180956 -0.0024564 0)
(0.0216954 0.00107641 0)
(0.024478 0.00419933 0)
(0.026484 0.0068928 0)
(0.0277629 0.00914937 0)
(0.0283731 0.0109734 0)
(0.0283796 0.0123807 0)
(0.0278538 0.013397 0)
(0.0268694 0.0140564 0)
(0.0255031 0.0143994 0)
(0.0238284 0.0144703 0)
(0.0219188 0.0143145 0)
(0.0198383 0.0139756 0)
(0.0176515 0.0134922 0)
(0.0154073 0.0128954 0)
(0.0131606 0.0122049 0)
(0.0109437 0.0114279 0)
(0.00880942 0.0105557 0)
(0.00677534 0.00956585 0)
(0.0049101 0.00841939 0)
(0.00321987 0.00707098 0)
(0.00182237 0.00546428 0)
(0.000713266 0.00355551 0)
(0.000110523 0.00130035 0)
(6.90041e-05 -0.00124075 0)
(0.00043571 -0.00315139 0)
(0.00107404 -0.00452959 0)
(0.00181244 -0.00541711 0)
(0.00261536 -0.00586584 0)
(0.00337557 -0.0059321 0)
(0.00406062 -0.00567588 0)
(0.00460686 -0.00515573 0)
(0.00499001 -0.00442732 0)
(0.00517243 -0.00354013 0)
(0.0051367 -0.00253685 0)
(0.00485918 -0.00145167 0)
(0.00432563 -0.000310434 0)
(0.00351769 0.000869991 0)
(0.00241994 0.00208116 0)
(0.00101271 0.00332296 0)
(-0.000724789 0.00460261 0)
(-0.00281815 0.00593394 0)
(-0.00529625 0.00733586 0)
(-0.00819264 0.00883085 0)
(-0.0115441 0.010443 0)
(-0.0153906 0.012196 0)
(-0.0197726 0.0141107 0)
(-0.0247303 0.0162037 0)
(-0.0303006 0.0184849 0)
(-0.0365147 0.0209566 0)
(-0.0433952 0.0236127 0)
(-0.0509542 0.0264376 0)
(-0.0591903 0.0294066 0)
(-0.0680868 0.0324859 0)
(-0.0776107 0.0356335 0)
(-0.0877117 0.0387997 0)
(-0.098323 0.0419291 0)
(-0.109363 0.0449623 0)
(-0.120736 0.0478379 0)
(-0.13234 0.0504956 0)
(-0.144067 0.0528786 0)
(-0.155808 0.0549358 0)
(-0.16746 0.056624 0)
(-0.178925 0.0579094 0)
(-0.190117 0.0587676 0)
(-0.200962 0.0591844 0)
(-0.211398 0.0591544 0)
(-0.221375 0.0586804 0)
(-0.230855 0.0577719 0)
(-0.23981 0.0564435 0)
(-0.248219 0.0547139 0)
(-0.256069 0.0526039 0)
(-0.263351 0.0501363 0)
(-0.270058 0.0473339 0)
(-0.276189 0.0442199 0)
(-0.281742 0.0408167 0)
(-0.286716 0.0371459 0)
(-0.291111 0.0332282 0)
(-0.294927 0.0290832 0)
(-0.298162 0.0247297 0)
(-0.300816 0.0201855 0)
(-0.302885 0.0154681 0)
(-0.304367 0.0105947 0)
(-0.305256 0.00558261 0)
(-0.305546 0.000449632 0)
(-0.305229 -0.00478542 0)
(-0.304296 -0.0101022 0)
(-0.302735 -0.0154786 0)
(-0.300534 -0.0208895 0)
(-0.297678 -0.0263072 0)
(-0.294153 -0.0317001 0)
(-0.289941 -0.0370325 0)
(-0.285027 -0.0422645 0)
(-0.279394 -0.0473512 0)
(-0.27303 -0.0522433 0)
(-0.265921 -0.0568867 0)
(-0.258062 -0.0612234 0)
(-0.249451 -0.0651921 0)
(-0.240095 -0.0687295 0)
(-0.23001 -0.071772 0)
(-0.219223 -0.0742575 0)
(-0.207776 -0.0761279 0)
(-0.195722 -0.0773317 0)
(-0.183133 -0.077827 0)
(-0.170093 -0.0775838 0)
(-0.156703 -0.0765869 0)
(-0.143076 -0.0748378 0)
(-0.129335 -0.0723559 0)
(-0.115612 -0.0691792 0)
(-0.102042 -0.0653633 0)
(-0.0887574 -0.0609802 0)
(-0.0758857 -0.0561158 0)
(-0.0635447 -0.0508659 0)
(-0.0518386 -0.0453334 0)
(-0.0408558 -0.039624 0)
(-0.0306674 -0.0338422 0)
(-0.0213271 -0.0280888 0)
(-0.0128714 -0.0224579 0)
(-0.00532151 -0.0170349 0)
(0.00131521 -0.0118952 0)
(0.00704366 -0.00710347 0)
(0.0118795 -0.00271283 0)
(0.0158481 0.00123568 0)
(0.0189836 0.00471332 0)
(0.0213287 0.00770399 0)
(0.0229343 0.0102042 0)
(0.0238579 0.0122228 0)
(0.0241647 0.0137801 0)
(0.0239233 0.0149069 0)
(0.0232078 0.0156422 0)
(0.0220913 0.0160311 0)
(0.0206494 0.0161217 0)
(0.0189508 0.0159622 0)
(0.0170664 0.0155968 0)
(0.0150532 0.0150625 0)
(0.0129751 0.014385 0)
(0.0108734 0.0135758 0)
(0.00881087 0.0126292 0)
(0.00681348 0.0115216 0)
(0.00495953 0.0102111 0)
(0.00326264 0.00864042 0)
(0.00185032 0.00674062 0)
(0.000724311 0.00443716 0)
(0.00011177 0.0016578 0)
(6.84598e-05 -0.00145752 0)
(0.000425482 -0.00365817 0)
(0.00103519 -0.00520912 0)
(0.00172249 -0.00616913 0)
(0.00244682 -0.0066106 0)
(0.00309957 -0.00660369 0)
(0.00364642 -0.00622281 0)
(0.00402365 -0.00553635 0)
(0.00420627 -0.00460915 0)
(0.00415631 -0.0034966 0)
(0.00385509 -0.0022462 0)
(0.00327727 -0.000894629 0)
(0.00240582 0.000530998 0)
(0.00121881 0.00201431 0)
(-0.000303924 0.00354845 0)
(-0.00218754 0.00513612 0)
(-0.0044592 0.00678816 0)
(-0.00715133 0.00852252 0)
(-0.0102998 0.0103622 0)
(-0.0139447 0.0123335 0)
(-0.0181286 0.0144631 0)
(-0.0228949 0.0167757 0)
(-0.0282859 0.0192912 0)
(-0.0343397 0.0220225 0)
(-0.0410875 0.0249731 0)
(-0.0485503 0.0281363 0)
(-0.0567363 0.0314937 0)
(-0.0656379 0.0350156 0)
(-0.0752305 0.0386609 0)
(-0.0854704 0.0423783 0)
(-0.0962958 0.0461077 0)
(-0.107627 0.0497824 0)
(-0.119369 0.0533318 0)
(-0.131416 0.0566843 0)
(-0.143655 0.0597707 0)
(-0.15597 0.0625273 0)
(-0.16825 0.0648985 0)
(-0.180388 0.0668389 0)
(-0.19229 0.0683146 0)
(-0.203875 0.0693033 0)
(-0.215075 0.0697938 0)
(-0.225834 0.0697849 0)
(-0.236112 0.069284 0)
(-0.245878 0.068305 0)
(-0.25511 0.0668668 0)
(-0.263793 0.064992 0)
(-0.271919 0.062705 0)
(-0.279484 0.0600315 0)
(-0.286486 0.0569972 0)