/*--------------------------------*- C++ -*----------------------------------*\
| =========                 |                                                 |
| \\      /  F ield         | OpenFOAM: The Open Source CFD Toolbox           |
|  \\    /   O peration     | Version:  2406                                  |
|   \\  /    A nd           | Website:  www.openfoam.com                      |
|    \\/     M anipulation  |                                                 |
\*---------------------------------------------------------------------------*/
FoamFile
{
    version     2.0;
    format      ascii;
    arch        "LSB;label=32;scalar=64";
    class       volVectorField;
    location    "9.65";
    object      U;
}
// * * * * * * * * * * * * * * * * * * * * * * * * * * * * * * * * * * * * * //

dimensions      [0 1 -1 0 0 0 0];

internalField   nonuniform List<vector> 
3600
(
(2.66991e-05 -2.50247e-05 0)
(1.91496e-05 3.43606e-08 0)
(-6.10171e-05 2.53281e-05 0)
(-0.000210133 4.57222e-05 0)
(-0.00040204 5.33034e-05 0)
(-0.000611287 5.70739e-05 0)
(-0.000832045 5.60247e-05 0)
(-0.00104878 5.53094e-05 0)
(-0.00126785 5.34446e-05 0)
(-0.00147951 5.28044e-05 0)
(-0.00169264 5.18539e-05 0)
(-0.00189959 5.18203e-05 0)
(-0.00210803 5.14933e-05 0)
(-0.0023112 5.16278e-05 0)
(-0.00251472 5.13412e-05 0)
(-0.00271245 5.11355e-05 0)
(-0.00290798 5.03595e-05 0)
(-0.0030956 4.93448e-05 0)
(-0.00327711 4.75957e-05 0)
(-0.00344704 4.53278e-05 0)
(-0.00360572 4.2164e-05 0)
(-0.00374785 3.82556e-05 0)
(-0.00387264 3.33358e-05 0)
(-0.00397509 2.75413e-05 0)
(-0.00405381 2.0722e-05 0)
(-0.00410436 1.30418e-05 0)
(-0.00412538 4.4753e-06 0)
(-0.00411343 -4.75919e-06 0)
(-0.00406785 -1.45632e-05 0)
(-0.00398666 -2.46583e-05 0)
(-0.0038705 -3.48407e-05 0)
(-0.00371919 -4.47906e-05 0)
(-0.0035351 -5.4238e-05 0)
(-0.00331999 -6.28652e-05 0)
(-0.00307802 -7.03924e-05 0)
(-0.00281272 -7.65652e-05 0)
(-0.00252979 -8.11578e-05 0)
(-0.00223396 -8.40424e-05 0)
(-0.00193186 -8.51012e-05 0)
(-0.00162855 -8.43777e-05 0)
(-0.00133079 -8.18833e-05 0)
(-0.00104301 -7.78391e-05 0)
(-0.000771277 -7.23595e-05 0)
(-0.000518526 -6.58034e-05 0)
(-0.000289651 -5.83159e-05 0)
(-8.55764e-05 -5.03207e-05 0)
(9.00067e-05 -4.18959e-05 0)
(0.000238189 -3.34519e-05 0)
(0.000355962 -2.4904e-05 0)
(0.000446034 -1.65995e-05 0)
(0.00050516 -8.22528e-06 0)
(0.000537138 -8.29873e-08 0)
(0.000537606 8.35987e-06 0)
(0.000511467 1.66317e-05 0)
(0.000453584 2.51926e-05 0)
(0.000372279 3.2471e-05 0)
(0.000266289 3.76641e-05 0)
(0.000155428 3.56795e-05 0)
(5.44775e-05 2.42451e-05 0)
(-3.53405e-07 3.57203e-07 0)
(2.04291e-06 -1.99227e-05 0)
(-0.000133003 0.000128061 0)
(-0.000431689 0.000263729 0)
(-0.000862754 0.000373634 0)
(-0.00139123 0.000429809 0)
(-0.00196583 0.000461873 0)
(-0.00257329 0.000469037 0)
(-0.00318171 0.000470693 0)
(-0.00379651 0.000464837 0)
(-0.00439918 0.000460399 0)
(-0.00500077 0.000453831 0)
(-0.00558824 0.00044904 0)
(-0.00617148 0.000442656 0)
(-0.00673934 0.000436528 0)
(-0.00729851 0.000427981 0)
(-0.00783847 0.000417943 0)
(-0.0083625 0.000404346 0)
(-0.00886025 0.000387621 0)
(-0.00933195 0.000366164 0)
(-0.00976722 0.000340163 0)
(-0.0101639 0.000308439 0)
(-0.0105116 0.000271169 0)
(-0.0108067 0.000227656 0)
(-0.0110394 0.000178291 0)
(-0.0112057 0.000122948 0)
(-0.0112973 6.24006e-05 0)
(-0.011311 -2.84816e-06 0)
(-0.011241 -7.1569e-05 0)
(-0.0110864 -0.000142663 0)
(-0.0108448 -0.000214496 0)
(-0.0105185 -0.000285521 0)
(-0.0101091 -0.000353879 0)
(-0.00962261 -0.000417821 0)
(-0.00906482 -0.000475545 0)
(-0.00844532 -0.000525422 0)
(-0.00777333 -0.000566034 0)
(-0.00706137 -0.000596201 0)
(-0.00632085 -0.000615197 0)
(-0.00556593 -0.000622547 0)
(-0.00480852 -0.000618413 0)
(-0.00406276 -0.000603112 0)
(-0.00333925 -0.000577689 0)
(-0.00265053 -0.000543112 0)
(-0.00200433 -0.00050107 0)
(-0.00141061 -0.000452809 0)
(-0.000873291 -0.000400246 0)
(-0.00039967 -0.000344408 0)
(1.00386e-05 -0.000286986 0)
(0.000350275 -0.000228322 0)
(0.000623677 -0.000169599 0)
(0.00082475 -0.000110277 0)
(0.000958001 -5.12145e-05 0)
(0.00101673 8.5748e-06 0)
(0.00100789 6.72183e-05 0)
(0.000925166 0.000124184 0)
(0.000783595 0.000172585 0)
(0.000585852 0.000205766 0)
(0.000368988 0.000205208 0)
(0.000159002 0.000159336 0)
(2.25693e-05 5.35805e-05 0)
(-3.07049e-05 7.16256e-05 0)
(-0.000310358 0.000442742 0)
(-0.000841327 0.000765961 0)
(-0.00154302 0.00101832 0)
(-0.00238041 0.00116072 0)
(-0.00327934 0.00124249 0)
(-0.00422667 0.00126941 0)
(-0.00517802 0.00127679 0)
(-0.00613912 0.00126616 0)
(-0.00708447 0.00125373 0)
(-0.00802558 0.00123575 0)
(-0.00894507 0.00121852 0)
(-0.00985288 0.00119713 0)
(-0.0107344 0.00117386 0)
(-0.0115957 0.00114437 0)
(-0.012423 0.00110932 0)
(-0.0132181 0.0010652 0)
(-0.0139673 0.00101195 0)
(-0.0146688 0.000946817 0)
(-0.0153088 0.000869582 0)
(-0.0158829 0.000778327 0)
(-0.0163775 0.00067313 0)
(-0.0167868 0.000553139 0)
(-0.0170985 0.000419179 0)
(-0.017307 0.000271684 0)
(-0.0174026 0.000112526 0)
(-0.0173815 -5.64921e-05 0)
(-0.0172378 -0.000232394 0)
(-0.0169712 -0.000412162 0)
(-0.0165806 -0.000591945 0)
(-0.0160704 -0.000767908 0)
(-0.0154447 -0.000935803 0)
(-0.0147126 -0.00109157 0)
(-0.0138834 -0.0012312 0)
(-0.0129706 -0.0013511 0)
(-0.0119875 -0.0014482 0)
(-0.0109511 -0.00152001 0)
(-0.00987729 -0.00156503 0)
(-0.00878462 -0.00158239 0)
(-0.00768934 -0.00157249 0)
(-0.00660986 -0.00153626 0)
(-0.00556061 -0.00147596 0)
(-0.00455784 -0.001394 0)
(-0.00361235 -0.00129396 0)
(-0.00273699 -0.00117894 0)
(-0.00193787 -0.00105293 0)
(-0.00122437 -0.000918591 0)
(-0.000598047 -0.000779298 0)
(-6.59808e-05 -0.000636312 0)
(0.000373691 -0.0004917 0)
(0.000714114 -0.000344991 0)
(0.000959338 -0.000197442 0)
(0.00110131 -4.81856e-05 0)
(0.0011473 9.9192e-05 0)
(0.00109036 0.000241007 0)
(0.000948489 0.000363169 0)
(0.00072619 0.0004479 0)
(0.000469489 0.000460834 0)
(0.000209578 0.000372561 0)
(3.39259e-05 0.000154783 0)
(-6.35239e-05 0.000262314 0)
(-0.00048905 0.000947862 0)
(-0.00124431 0.00150655 0)
(-0.00219374 0.00192367 0)
(-0.00330466 0.00216775 0)
(-0.00448249 0.00230815 0)
(-0.00571946 0.00236127 0)
(-0.00696077 0.00237695 0)
(-0.00821484 0.00236173 0)
(-0.00944941 0.0023386 0)
(-0.010677 0.00230435 0)
(-0.0118753 0.00226757 0)
(-0.0130543 0.00222206 0)
(-0.0141956 0.00217045 0)
(-0.0153045 0.00210676 0)
(-0.016364 0.00203127 0)
(-0.0173744 0.00193898 0)
(-0.0183192 0.00182929 0)
(-0.0191949 0.00169832 0)
(-0.0199849 0.00154551 0)
(-0.0206831 0.00136836 0)
(-0.0212741 0.00116712 0)
(-0.0217507 0.000941102 0)
(-0.0220995 0.000691999 0)
(-0.0223143 0.000421279 0)
(-0.0223854 0.000132443 0)
(-0.0223095 -0.000170874 0)
(-0.0220817 -0.00048342 0)
(-0.0217033 -0.000799773 0)
(-0.021175 -0.00111344 0)
(-0.0205035 -0.00141794 0)
(-0.0196955 -0.00170636 0)
(-0.0187627 -0.00197215 0)
(-0.0177174 -0.00220897 0)
(-0.016576 -0.00241119 0)
(-0.0153547 -0.00257408 0)
(-0.0140735 -0.0026939 0)
(-0.012751 -0.0027684 0)
(-0.0114087 -0.00279645 0)
(-0.0100654 -0.00277879 0)
(-0.00874225 -0.00271714 0)
(-0.00745579 -0.00261517 0)
(-0.0062245 -0.00247692 0)
(-0.00506092 -0.00230817 0)
(-0.00397956 -0.00211403 0)
(-0.00298765 -0.00190087 0)
(-0.00209572 -0.00167319 0)
(-0.00130591 -0.00143623 0)
(-0.00062609 -0.00119227 0)
(-5.46634e-05 -0.000944399 0)
(0.00040082 -0.000692231 0)
(0.000744336 -0.00043755 0)
(0.000967128 -0.00017978 0)
(0.00107679 7.54638e-05 0)
(0.00106598 0.00032076 0)
(0.000954155 0.000534385 0)
(0.000746108 0.000686375 0)
(0.000491306 0.000726076 0)
(0.000222792 0.000602226 0)
(3.66945e-05 0.000267818 0)
(-8.82854e-05 0.000539346 0)
(-0.00063893 0.00163384 0)
(-0.00159271 0.00248101 0)
(-0.002762 0.00308858 0)
(-0.00411399 0.00344962 0)
(-0.00553325 0.00365564 0)
(-0.00701823 0.00373916 0)
(-0.00850441 0.00376354 0)
(-0.0100045 0.00374239 0)
(-0.01148 0.00370455 0)
(-0.0129453 0.00364837 0)
(-0.0143734 0.00358404 0)
(-0.0157746 0.00350464 0)
(-0.0171269 0.00341266 0)
(-0.0184349 0.00330074 0)
(-0.0196784 0.00316847 0)
(-0.0208569 0.00300949 0)
(-0.0219509 0.00282254 0)
(-0.0229557 0.00260276 0)
(-0.0238527 0.00234931 0)
(-0.0246347 0.00205942 0)
(-0.0252847 0.00173372 0)
(-0.0257951 0.00137218 0)
(-0.0261518 0.000977727 0)
(-0.0263492 0.000553423 0)
(-0.0263776 0.000104879 0)
(-0.0262353 -0.000361897 0)
(-0.0259184 -0.000838921 0)
(-0.0254301 -0.00131792 0)
(-0.0247732 -0.0017894 0)
(-0.0239565 -0.00224396 0)
(-0.0229889 -0.00267181 0)
(-0.0218847 -0.00306372 0)
(-0.0206582 -0.00341095 0)
(-0.0193285 -0.00370578 0)
(-0.0179139 -0.0039418 0)
(-0.0164366 -0.00411399 0)
(-0.0149175 -0.00421943 0)
(-0.0133802 -0.00425678 0)
(-0.0118457 -0.00422727 0)
(-0.0103369 -0.00413357 0)
(-0.00887219 -0.00398101 0)
(-0.0074717 -0.00377559 0)
(-0.00614905 -0.00352559 0)
(-0.00491979 -0.00323856 0)
(-0.00379154 -0.00292358 0)
(-0.00277519 -0.0025873 0)
(-0.00187261 -0.00223709 0)
(-0.00109159 -0.00187644 0)
(-0.000429917 -0.00150948 0)
(0.000105044 -0.00113597 0)
(0.000517905 -0.000758168 0)
(0.00079986 -0.000375857 0)
(0.000959047 3.24303e-06 0)
(0.000987851 0.000367532 0)
(0.000906406 0.000687132 0)
(0.000719548 0.000918917 0)
(0.000478142 0.00099466 0)
(0.000217033 0.000839865 0)
(3.46368e-05 0.000385874 0)
(-0.000109703 0.000888419 0)
(-0.000770597 0.00247216 0)
(-0.00189709 0.00364736 0)
(-0.00325686 0.00446013 0)
(-0.00481558 0.00494329 0)
(-0.00643929 0.00521501 0)
(-0.00813257 0.00532829 0)
(-0.00982234 0.00535938 0)
(-0.0115261 0.00532979 0)
(-0.0131998 0.00527313 0)
(-0.0148599 0.00518956 0)
(-0.0164751 0.00509033 0)
(-0.0180564 0.00496798 0)
(-0.0195779 0.00482462 0)
(-0.0210442 0.00465167 0)
(-0.022432 0.00444796 0)
(-0.02374 0.00420594 0)
(-0.0249462 0.00392374 0)
(-0.0260453 0.00359579 0)
(-0.0270167 0.00322114 0)
(-0.0278527 0.00279712 0)
(-0.0285351 0.00232507 0)
(-0.0290564 0.00180601 0)
(-0.0294022 0.00124455 0)
(-0.0295676 0.000645748 0)
(-0.0295436 1.77103e-05 0)
(-0.0293295 -0.000630829 0)
(-0.0289231 -0.00128889 0)
(-0.0283294 -0.00194513 0)
(-0.0275527 -0.002587 0)
(-0.0266041 -0.00320209 0)
(-0.0254942 -0.00377782 0)
(-0.0242394 -0.00430235 0)
(-0.0228558 -0.00476466 0)
(-0.0213643 -0.00515501 0)
(-0.0197849 -0.00546538 0)
(-0.018142 -0.00568955 0)
(-0.0164579 -0.00582392 0)
(-0.0147586 -0.00586694 0)
(-0.0130669 -0.00582041 0)
(-0.0114079 -0.00568802 0)
(-0.00980171 -0.00547697 0)
(-0.00827027 -0.00519543 0)
(-0.00682831 -0.00485454 0)
(-0.00549232 -0.00446465 0)
(-0.00426999 -0.00403793 0)
(-0.00317212 -0.0035835 0)
(-0.00219961 -0.00311121 0)
(-0.00135937 -0.00262585 0)
(-0.000647576 -0.00213278 0)
(-7.04922e-05 -0.00163179 0)
(0.000378131 -0.00112555 0)
(0.000690304 -0.000613901 0)
(0.00087537 -0.000106579 0)
(0.000925984 0.00038113 0)
(0.000862868 0.000811133 0)
(0.00069092 0.00112772 0)
(0.000461046 0.00124413 0)
(0.00020919 0.00106351 0)
(3.23649e-05 0.000494731 0)
(-0.00012617 0.00129974 0)
(-0.000878549 0.00344587 0)
(-0.0021506 0.00498809 0)
(-0.00367263 0.00602362 0)
(-0.00540792 0.00663616 0)
(-0.00720564 0.00697487 0)
(-0.00907536 0.00711735 0)
(-0.0109361 0.00715278 0)
(-0.0128102 0.00711174 0)
(-0.0146482 0.00703175 0)
(-0.0164694 0.00691525 0)
(-0.0182384 0.00677387 0)
(-0.0199672 0.00659991 0)
(-0.0216266 0.0063947 0)
(-0.0232212 0.00614867 0)
(-0.024725 0.00585969 0)
(-0.0261363 0.00551926 0)
(-0.0274309 0.00512481 0)
(-0.0286029 0.00467037 0)
(-0.0296302 0.00415499 0)
(-0.0305047 0.0035764 0)
(-0.0312072 0.00293692 0)
(-0.0317303 0.00223901 0)
(-0.0320594 0.00148927 0)
(-0.0321902 0.000695158 0)
(-0.032114 -0.000132385 0)
(-0.0318317 -0.000981554 0)
(-0.0313419 -0.00183811 0)
(-0.0306512 -0.00268744 0)
(-0.0297656 -0.00351376 0)
(-0.0286977 -0.00430164 0)
(-0.0274598 -0.00503568 0)
(-0.0260697 -0.00570151 0)
(-0.0245447 -0.00628579 0)
(-0.022907 -0.00677676 0)
(-0.0211778 -0.00716472 0)
(-0.0193829 -0.00744205 0)
(-0.0175464 -0.00760426 0)
(-0.0156964 -0.0076494 0)
(-0.013858 -0.00757967 0)
(-0.0120592 -0.00739978 0)
(-0.0103229 -0.00711897 0)
(-0.00867372 -0.00674796 0)
(-0.00712826 -0.00630132 0)
(-0.00570465 -0.00579282 0)
(-0.0044109 -0.00523855 0)
(-0.00325762 -0.00465076 0)
(-0.00224428 -0.00404239 0)
(-0.00137616 -0.00341993 0)
(-0.000646875 -0.00279024 0)
(-6.05327e-05 -0.0021531 0)
(0.000391812 -0.00151151 0)
(0.000703842 -0.000865027 0)
(0.000886899 -0.00022517 0)
(0.000934369 0.000389519 0)
(0.000868045 0.000932601 0)
(0.000693045 0.00133617 0)
(0.000460812 0.00149407 0)
(0.000208121 0.00128819 0)
(3.13682e-05 0.000603795 0)
(-0.000140811 0.00176163 0)
(-0.000972247 0.00453011 0)
(-0.00236796 0.00646946 0)
(-0.0040278 0.0077398 0)
(-0.0059124 0.00848455 0)
(-0.00785688 0.00888876 0)
(-0.00987496 0.00905774 0)
(-0.011879 0.00909411 0)
(-0.0138955 0.00903807 0)
(-0.0158707 0.00893048 0)
(-0.0178265 0.0087761 0)
(-0.0197238 0.00858644 0)
(-0.021576 0.00835362 0)
(-0.0233509 0.00807796 0)
(-0.0250532 0.00774902 0)
(-0.0266546 0.00736362 0)
(-0.0281533 0.00691246 0)
(-0.029523 0.00639236 0)
(-0.0307574 0.00579709 0)
(-0.0318329 0.00512587 0)
(-0.0327412 0.00437707 0)
(-0.033462 0.00355422 0)
(-0.0339878 0.00266149 0)
(-0.0343037 0.00170777 0)
(-0.0344057 0.000703251 0)
(-0.0342856 -0.000337999 0)
(-0.0339453 -0.00140079 0)
(-0.0333845 -0.00246741 0)
(-0.0326116 -0.00351982 0)
(-0.031634 -0.00453905 0)
(-0.030466 -0.00550677 0)
(-0.0291206 -0.00640506 0)
(-0.0276165 -0.00721727 0)
(-0.0259709 -0.00792809 0)
(-0.024206 -0.00852383 0)
(-0.0223427 -0.00899297 0)
(-0.0204069 -0.00932614 0)
(-0.0184236 -0.00951741 0)
(-0.0164228 -0.00956375 0)
(-0.0144326 -0.00946712 0)
(-0.0124853 -0.00923283 0)
(-0.010608 -0.00887203 0)
(-0.00883024 -0.00839825 0)
(-0.00717275 -0.00783019 0)
(-0.00565703 -0.00718599 0)
(-0.00429258 -0.00648679 0)
(-0.00309054 -0.0057491 0)
(-0.00204874 -0.00499001 0)
(-0.00117027 -0.00421838 0)
(-0.000444999 -0.00344304 0)
(0.000126312 -0.00266375 0)
(0.000556742 -0.00188368 0)
(0.000842783 -0.00110147 0)
(0.000998922 -0.000329974 0)
(0.0010199 0.000409884 0)
(0.000929347 0.00106357 0)
(0.000732677 0.00155163 0)
(0.000482653 0.001748 0)
(0.000216595 0.001514 0)
(3.22729e-05 0.00071121 0)
(-0.000152513 0.00226744 0)
(-0.00105004 0.00571031 0)
(-0.00254982 0.00807419 0)
(-0.00432628 0.00959201 0)
(-0.00633782 0.0104735 0)
(-0.00840743 0.0109436 0)
(-0.0105523 0.0111378 0)
(-0.0126789 0.0111728 0)
(-0.0148175 0.0110992 0)
(-0.0169106 0.0109607 0)
(-0.0189826 0.0107646 0)
(-0.0209916 0.0105219 0)
(-0.022952 0.0102246 0)
(-0.0248292 0.00987171 0)
(-0.0266286 0.00945204 0)
(-0.0283196 0.00896118 0)
(-0.0299004 0.00838916 0)
(-0.0313428 0.00773209 0)
(-0.0326405 0.00698361 0)
(-0.0337679 0.00614311 0)
(-0.0347163 0.00520979 0)
(-0.0354643 0.00418849 0)
(-0.0360041 0.00308539 0)
(-0.0363199 0.00191193 0)
(-0.0364083 0.000681515 0)
(-0.0362617 -0.000588195 0)
(-0.0358835 -0.00187813 0)
(-0.0352753 -0.0031667 0)
(-0.0344479 -0.00443231 0)
(-0.0334108 -0.00565293 0)
(-0.0321797 -0.00680787 0)
(-0.0307679 -0.00787741 0)
(-0.0291929 -0.00884354 0)
(-0.0274691 -0.00968963 0)
(-0.025615 -0.0104004 0)
(-0.0236475 -0.0109624 0)
(-0.0215895 -0.0113635 0)
(-0.0194642 -0.011595 0)
(-0.0173027 -0.0116511 0)
(-0.0151364 -0.0115317 0)
(-0.013004 -0.0112413 0)
(-0.0109406 -0.0107921 0)
(-0.00898515 -0.0102006 0)
(-0.00716696 -0.00949041 0)
(-0.00551526 -0.00868556 0)
(-0.00404432 -0.00781436 0)
(-0.00276786 -0.00689965 0)
(-0.00168271 -0.00596468 0)
(-0.00078934 -0.00502214 0)
(-7.24018e-05 -0.0040838 0)
(0.000472501 -0.00314961 0)
(0.000864704 -0.00222278 0)
(0.00110526 -0.00130031 0)
(0.00121356 -0.000395661 0)
(0.00118666 0.000468758 0)
(0.00105132 0.00123074 0)
(0.00081351 0.00179968 0)
(0.000528858 0.00202916 0)
(0.00023525 0.00175971 0)
(3.49069e-05 0.000827778 0)
(-0.000163268 0.0028109 0)
(-0.00111838 0.0069717 0)
(-0.00270715 0.00978201 0)
(-0.00458324 0.0115568 0)
(-0.00670303 0.0125776 0)
(-0.00887975 0.0131131 0)
(-0.0111336 0.0133308 0)
(-0.0133661 0.0133624 0)
(-0.0156112 0.013269 0)
(-0.017808 0.0130974 0)
(-0.0199837 0.0128571 0)
(-0.0220935 0.0125583 0)
(-0.0241536 0.0121929 0)
(-0.0261272 0.0117585 0)
(-0.0280204 0.0112431 0)
(-0.0298005 0.0106409 0)
(-0.0314659 0.00994131 0)
(-0.0329868 0.00913955 0)
(-0.0343562 0.00822919 0)
(-0.0355468 0.00720971 0)
(-0.0365493 0.00608124 0)
(-0.0373406 0.00485005 0)
(-0.0379126 0.00352469 0)
(-0.0382492 0.00211974 0)
(-0.0383482 0.000652563 0)
(-0.0382039 -0.000854638 0)
(-0.0378237 -0.00237803 0)
(-0.0372134 -0.00389165 0)
(-0.0363889 -0.00537042 0)
(-0.035363 -0.00679022 0)
(-0.0341529 -0.00812974 0)
(-0.0327697 -0.00936982 0)
(-0.0312251 -0.0104936 0)
(-0.0295239 -0.011485 0)
(-0.0276732 -0.0123284 0)
(-0.0256773 -0.0130079 0)
(-0.0235484 -0.0135071 0)
(-0.0213023 -0.0138113 0)
(-0.0189682 -0.0139082 0)
(-0.0165811 -0.0137914 0)
(-0.0141895 -0.013461 0)
(-0.011843 -0.0129278 0)
(-0.00959849 -0.01221 0)
(-0.00750328 -0.0113369 0)
(-0.00560358 -0.0103409 0)
(-0.00392594 -0.00926106 0)
(-0.00249197 -0.00813037 0)
(-0.0013 -0.00698213 0)
(-0.00034797 -0.00583577 0)
(0.000386629 -0.00470804 0)
(0.000916386 -0.00359976 0)
(0.00127057 -0.00251405 0)
(0.00145813 -0.00144522 0)
(0.00150647 -0.000406027 0)
(0.001417 0.000581041 0)
(0.00122157 0.00144713 0)
(0.000927416 0.00209091 0)
(0.000594676 0.00234547 0)
(0.000262075 0.00202958 0)
(3.8898e-05 0.000953757 0)
(-0.000172071 0.0033854 0)
(-0.00117624 0.00830083 0)
(-0.00284127 0.0115767 0)
(-0.00480298 0.0136178 0)
(-0.00701643 0.0147816 0)
(-0.00928659 0.0153835 0)
(-0.0116364 0.0156248 0)
(-0.0139635 0.0156528 0)
(-0.0163048 0.0155395 0)
(-0.0185969 0.0153344 0)
(-0.0208694 0.0150495 0)
(-0.0230757 0.014694 0)
(-0.0252335 0.0142597 0)
(-0.0273041 0.0137423 0)
(-0.0292945 0.0131291 0)
(-0.0311705 0.0124126 0)
(-0.0329305 0.0115815 0)
(-0.0345428 0.0106299 0)
(-0.0359998 0.00955125 0)
(-0.0372724 0.00834497 0)
(-0.0383503 0.00701221 0)
(-0.0392091 0.00556103 0)
(-0.0398408 0.00400319 0)
(-0.0402306 0.00235768 0)
(-0.0403805 0.000647652 0)
(-0.0402914 -0.00109825 0)
(-0.0399797 -0.00284985 0)
(-0.0394617 -0.00457629 0)
(-0.0387626 -0.00625012 0)
(-0.0379007 -0.00784819 0)
(-0.036893 -0.00935317 0)
(-0.0357418 -0.0107521 0)
(-0.0344422 -0.0120346 0)
(-0.0329759 -0.0131895 0)
(-0.0313223 -0.0142026 0)
(-0.0294578 -0.0150548 0)
(-0.0273699 -0.0157217 0)
(-0.0250566 -0.0161768 0)
(-0.0225388 -0.0163929 0)
(-0.0198547 -0.0163492 0)
(-0.0170679 -0.0160332 0)
(-0.0142529 -0.0154481 0)
(-0.0114994 -0.0146105 0)
(-0.0088901 -0.0135558 0)
(-0.00650592 -0.0123279 0)
(-0.0044014 -0.0109825 0)
(-0.00261811 -0.00957025 0)
(-0.00116277 -0.00814216 0)
(-3.29126e-05 -0.00673056 0)
(0.000803412 -0.00536167 0)
(0.00137191 -0.00403923 0)
(0.00171822 -0.00276649 0)
(0.00186552 -0.00153373 0)
(0.00185505 -0.00035093 0)
(0.00169689 0.000761529 0)
(0.00143154 0.00172997 0)
(0.00106943 0.00244314 0)
(0.000677472 0.00271374 0)
(0.000295995 0.00233739 0)
(4.39875e-05 0.00109674 0)
(-0.000180473 0.00399024 0)
(-0.00122821 0.00969311 0)
(-0.00295975 0.013451 0)
(-0.00499613 0.015766 0)
(-0.00729143 0.0170759 0)
(-0.00964407 0.0177455 0)
(-0.0120797 0.018011 0)
(-0.0144926 0.018036 0)
(-0.0169228 0.0179037 0)
(-0.0193051 0.0176663 0)
(-0.0216714 0.0173382 0)
(-0.0239736 0.0169275 0)
(-0.0262311 0.0164258 0)
(-0.0284038 0.0158266 0)
(-0.0304997 0.0151165 0)
(-0.0324831 0.014286 0)
(-0.0343523 0.0133227 0)
(-0.036074 0.0122197 0)
(-0.0376398 0.0109697 0)
(-0.0390185 0.00957213 0)
(-0.0401993 0.00802968 0)
(-0.0411575 0.0063532 0)
(-0.0418882 0.00455969 0)
(-0.0423826 0.00267557 0)
(-0.0426543 0.000733555 0)
(-0.0427208 -0.00122771 0)
(-0.0426187 -0.00316953 0)
(-0.0423846 -0.00505686 0)
(-0.0420593 -0.00686421 0)
(-0.0416664 -0.00857735 0)
(-0.0412146 -0.0101935 0)
(-0.0406827 -0.0117173 0)
(-0.0400282 -0.0131546 0)
(-0.0391845 -0.0145062 0)
(-0.0380782 -0.0157616 0)
(-0.0366333 -0.0168965 0)
(-0.0347919 -0.0178715 0)
(-0.0325182 -0.0186368 0)
(-0.0298158 -0.019137 0)
(-0.0267237 -0.0193211 0)
(-0.0233261 -0.0191494 0)
(-0.0197361 -0.018605 0)
(-0.0160973 -0.0176946 0)
(-0.0125547 -0.0164568 0)
(-0.00925378 -0.0149507 0)
(-0.006306 -0.0132578 0)
(-0.0037973 -0.0114594 0)
(-0.00175943 -0.00963828 0)
(-0.000197301 -0.00785232 0)
(0.00093116 -0.00614695 0)
(0.00167166 -0.00453406 0)
(0.00209667 -0.00301853 0)
(0.00225506 -0.00158495 0)
(0.00221255 -0.000237091 0)
(0.00199642 0.00101059 0)
(0.00166243 0.00208318 0)
(0.00122837 0.00286138 0)
(0.000771286 0.00313852 0)
(0.000334743 0.00268578 0)
(4.98607e-05 0.00125675 0)
(-0.000187403 0.00461679 0)
(-0.00127294 0.0111334 0)
(-0.00306284 0.0153872 0)
(-0.00516499 0.0179833 0)
(-0.00753318 0.0194432 0)
(-0.0099603 0.0201832 0)
(-0.0124746 0.0204752 0)
(-0.0149681 0.0205 0)
(-0.0174836 0.0203519 0)
(-0.0199546 0.020086 0)
(-0.0224152 0.0197192 0)
(-0.0248165 0.0192579 0)
(-0.0271795 0.0186934 0)
(-0.0294634 0.0180173 0)
(-0.0316771 0.0172146 0)
(-0.0337835 0.0162738 0)
(-0.0357813 0.0151813 0)
(-0.0376351 0.0139282 0)
(-0.039336 0.0125069 0)
(-0.0408516 0.0109171 0)
(-0.0421718 0.0091643 0)
(-0.0432755 0.00726499 0)
(-0.0441674 0.00524621 0)
(-0.044856 0.00314821 0)
(-0.0453821 0.00102029 0)
(-0.0457973 -0.00108354 0)
(-0.0461762 -0.00311491 0)
(-0.0465875 -0.00503977 0)
(-0.0470899 -0.00684658 0)
(-0.0477035 -0.0085474 0)
(-0.048408 -0.0101738 0)
(-0.0491291 -0.0117663 0)
(-0.0497526 -0.0133618 0)
(-0.0501286 -0.0149809 0)
(-0.0500973 -0.0166181 0)
(-0.0495018 -0.0182375 0)
(-0.0482156 -0.0197727 0)
(-0.0461516 -0.0211338 0)
(-0.0432841 -0.0222158 0)
(-0.0396476 -0.022915 0)
(-0.0353495 -0.0231407 0)
(-0.0305523 -0.0228344 0)
(-0.0254753 -0.021976 0)
(-0.0203578 -0.0205979 0)
(-0.0154511 -0.0187744 0)
(-0.0109693 -0.0166235 0)
(-0.00708629 -0.0142761 0)
(-0.00389399 -0.0118715 0)
(-0.00142626 -0.00951725 0)
(0.000362371 -0.00729818 0)
(0.00154379 -0.00524686 0)
(0.00223193 -0.00337524 0)
(0.00251977 -0.00166106 0)
(0.00251564 -9.69452e-05 0)
(0.00227967 0.00131507 0)
(0.00189489 0.00250524 0)
(0.00139469 0.00335047 0)
(0.000872083 0.00362747 0)
(0.000377184 0.00308248 0)
(5.64282e-05 0.00143852 0)
(-0.000194273 0.0052699 0)
(-0.00131391 0.0126266 0)
(-0.00315553 0.0173893 0)
(-0.0053162 0.0202736 0)
(-0.00774968 0.0218874 0)
(-0.0102447 0.0227011 0)
(-0.0128321 0.023023 0)
(-0.0154022 0.0230515 0)
(-0.0180006 0.0228922 0)
(-0.02056 0.0226033 0)
(-0.0231172 0.0222037 0)
(-0.0256226 0.0216986 0)
(-0.0280991 0.0210787 0)
(-0.0305055 0.0203331 0)
(-0.0328516 0.0194454 0)
(-0.0350996 0.0184015 0)
(-0.0372481 0.0171861 0)
(-0.0392606 0.0157882 0)
(-0.041128 0.0142004 0)
(-0.0428186 0.012424 0)
(-0.0443277 0.0104709 0)
(-0.0456461 0.00836981 0)
(-0.0468027 0.00616764 0)
(-0.0478447 0.0039302 0)
(-0.0488655 0.00173397 0)
(-0.0499776 -0.000346715 0)
(-0.0513122 -0.00225869 0)
(-0.0529753 -0.00398541 0)
(-0.0550318 -0.00555545 0)
(-0.057469 -0.00703829 0)
(-0.0601974 -0.00852974 0)
(-0.0630443 -0.0101303 0)
(-0.0657796 -0.0119222 0)
(-0.0681325 -0.0139505 0)
(-0.0698282 -0.0162099 0)
(-0.0706077 -0.0186409 0)
(-0.0702605 -0.0211324 0)
(-0.0686365 -0.0235324 0)
(-0.0656698 -0.0256619 0)
(-0.0613804 -0.0273362 0)
(-0.0558894 -0.028384 0)
(-0.0494065 -0.0286736 0)
(-0.0422334 -0.0281293 0)
(-0.0347272 -0.0267536 0)
(-0.0272854 -0.0246249 0)
(-0.0202825 -0.021902 0)
(-0.014047 -0.018787 0)
(-0.00879528 -0.0155111 0)
(-0.00463987 -0.0122731 0)
(-0.00155892 -0.00923605 0)
(0.000542342 -0.0064812 0)
(0.00183417 -0.0040426 0)
(0.00247932 -0.00189345 0)
(0.00265671 -9.07566e-06 0)
(0.00248521 0.00163111 0)
(0.00209558 0.00297374 0)
(0.00155176 0.00390031 0)
(0.000972617 0.00417703 0)
(0.000421127 0.00352664 0)
(6.34954e-05 0.00164167 0)
(-0.000199767 0.00593709 0)
(-0.0013489 0.0141526 0)
(-0.00323634 0.019435 0)
(-0.00544928 0.0226136 0)
(-0.00794216 0.0243861 0)
(-0.0105001 0.0252779 0)
(-0.0131568 0.0256348 0)
(-0.0158012 0.025673 0)
(-0.0184821 0.0255098 0)
(-0.0211317 0.0252061 0)
(-0.0237893 0.0247832 0)
(-0.0264055 0.0242447 0)
(-0.0290051 0.0235805 0)
(-0.0315469 0.0227771 0)
(-0.0340421 0.0218162 0)
(-0.0364524 0.0206807 0)
(-0.0387769 0.0193533 0)
(-0.0409788 0.0178215 0)
(-0.043051 0.0160792 0)
(-0.0449674 0.0141335 0)
(-0.0467379 0.0120111 0)
(-0.0483826 0.00976619 0)
(-0.0499804 0.00748296 0)
(-0.0516507 0.0052708 0)
(-0.0535751 0.00324466 0)
(-0.0559526 0.00149625 0)
(-0.0589778 6.2337e-05 0)
(-0.0627756 -0.00109538 0)
(-0.0673748 -0.00209141 0)
(-0.0726733 -0.00309709 0)
(-0.0784523 -0.00430704 0)
(-0.0843882 -0.00590158 0)
(-0.090098 -0.00801304 0)
(-0.0951702 -0.0107031 0)
(-0.0992102 -0.0139508 0)
(-0.101862 -0.017654 0)
(-0.102837 -0.0216364 0)
(-0.101926 -0.0256643 0)
(-0.0990151 -0.0294637 0)
(-0.0940932 -0.0327458 0)
(-0.0872678 -0.0352292 0)
(-0.0787644 -0.036674 0)
(-0.0689391 -0.0369065 0)
(-0.0582547 -0.0358571 0)
(-0.0472688 -0.0335715 0)
(-0.0365648 -0.0302313 0)
(-0.026706 -0.0261182 0)
(-0.0181332 -0.0215935 0)
(-0.0111334 -0.0170076 0)
(-0.00577951 -0.0126698 0)
(-0.00198611 -0.00876681 0)
(0.000476606 -0.00539158 0)
(0.00186981 -0.00252606 0)
(0.00248141 -0.000123973 0)
(0.00252838 0.00187212 0)
(0.00222158 0.0034431 0)
(0.00168026 0.00449015 0)
(0.00106588 0.00478069 0)
(0.000465061 0.004019 0)
(7.10799e-05 0.0018688 0)
(-0.000205344 0.00662882 0)
(-0.00138081 0.0157253 0)
(-0.00330838 0.0215385 0)
(-0.0055677 0.0250185 0)
(-0.00811399 0.0269551 0)
(-0.01073 0.0279304 0)
(-0.013452 0.0283284 0)
(-0.0161685 0.0283835 0)
(-0.0189311 0.0282248 0)
(-0.0216724 0.027916 0)
(-0.0244343 0.027481 0)
(-0.0271679 0.0269214 0)
(-0.0299005 0.0262265 0)
(-0.0325913 0.0253797 0)
(-0.0352531 0.0243607 0)
(-0.037848 0.0231491 0)
(-0.0403764 0.021726 0)
(-0.0428034 0.0200785 0)
(-0.0451285 0.0182059 0)
(-0.0473406 0.0161306 0)
(-0.0494822 0.0139097 0)
(-0.0516317 0.0116465 0)
(-0.0539579 0.00948908 0)
(-0.0566953 0.00761042 0)
(-0.0601461 0.0061655 0)
(-0.0646023 0.00523797 0)
(-0.0702926 0.00479738 0)
(-0.0772992 0.00468563 0)
(-0.0855342 0.00463959 0)
(-0.0947263 0.00433969 0)
(-0.104465 0.00347013 0)
(-0.114241 0.00177191 0)
(-0.123517 -0.000918493 0)
(-0.131764 -0.00465167 0)
(-0.138505 -0.00936285 0)
(-0.14333 -0.0148842 0)
(-0.145911 -0.0209598 0)
(-0.146 -0.0272668 0)
(-0.14344 -0.0334322 0)
(-0.138165 -0.0390574 0)
(-0.130225 -0.0437369 0)
(-0.119795 -0.0470949 0)
(-0.107205 -0.048814 0)
(-0.0929492 -0.0486903 0)
(-0.0776913 -0.0466655 0)
(-0.062219 -0.0428796 0)
(-0.0473855 -0.0376584 0)
(-0.033976 -0.0315059 0)
(-0.0226061 -0.0249891 0)
(-0.0135921 -0.0186648 0)
(-0.00695744 -0.0129308 0)
(-0.00244897 -0.00801977 0)
(0.000311301 -0.00396306 0)
(0.00176635 -0.000698667 0)
(0.00228638 0.00188405 0)
(0.00221072 0.00382678 0)
(0.0017524 0.00507496 0)
(0.00114178 0.00541797 0)
(0.000506788 0.00455247 0)
(7.91711e-05 0.00211901 0)
(-0.000209284 0.00732683 0)
(-0.00140621 0.0173164 0)
(-0.00336817 0.0236687 0)
(-0.00566809 0.0274561 0)
(-0.00826256 0.0295625 0)
(-0.0109323 0.0306278 0)
(-0.0137164 0.0310746 0)
(-0.0165033 0.0311559 0)
(-0.0193475 0.0310127 0)
(-0.0221822 0.0307118 0)
(-0.0250523 0.0302792 0)
(-0.0279101 0.029715 0)
(-0.0307853 0.0290075 0)
(-0.0336385 0.0281367 0)
(-0.0364847 0.0270804 0)
(-0.0392875 0.0258147 0)
(-0.0420505 0.0243203 0)
(-0.0447449 0.0225876 0)
(-0.0473854 0.0206307 0)
(-0.0499931 0.0185043 0)
(-0.0526727 0.0163246 0)
(-0.0556032 0.0142787 0)
(-0.059092 0.0126102 0)
(-0.063526 0.0115647 0)
(-0.0693326 0.0113095 0)
(-0.076854 0.0118538 0)
(-0.0862659 0.013011 0)
(-0.0974967 0.0144169 0)
(-0.110236 0.0155992 0)
(-0.123968 0.0160671 0)
(-0.13806 0.0153974 0)
(-0.151839 0.0132925 0)
(-0.164664 0.00960893 0)
(-0.175964 0.00435463 0)
(-0.185264 -0.00232764 0)
(-0.192177 -0.0101875 0)
(-0.196404 -0.0188888 0)
(-0.197706 -0.0280332 0)
(-0.195908 -0.0371712 0)
(-0.19088 -0.045819 0)
(-0.182567 -0.0534651 0)
(-0.171003 -0.059598 0)
(-0.15637 -0.0637289 0)
(-0.139038 -0.065456 0)
(-0.119624 -0.0645163 0)
(-0.0989952 -0.0608838 0)
(-0.0782487 -0.0548092 0)
(-0.0585816 -0.046869 0)
(-0.0411181 -0.0378642 0)
(-0.0266702 -0.0287125 0)
(-0.0155994 -0.0201922 0)
(-0.00776878 -0.0128379 0)
(-0.00271172 -0.00683401 0)
(0.0002119 -0.0021394 0)
(0.0015984 0.00142128 0)
(0.00198491 0.00398643 0)
(0.00173573 0.00558372 0)
(0.00119038 0.00605807 0)
(0.000545114 0.00511863 0)
(8.81656e-05 0.00239358 0)
(-0.000213287 0.00804767 0)
(-0.00142791 0.0189488 0)
(-0.00341774 0.0258505 0)
(-0.00575172 0.0299528 0)
(-0.00838775 0.0322359 0)
(-0.0111058 0.0333987 0)
(-0.0139473 0.033903 0)
(-0.0168013 0.0340206 0)
(-0.0197252 0.0339048 0)
(-0.0226536 0.0336256 0)
(-0.0256342 0.0332113 0)
(-0.0286212 0.0326605 0)
(-0.0316475 0.0319605 0)
(-0.0346756 0.0310881 0)
(-0.0377236 0.0300191 0)
(-0.0407584 0.0287273 0)
(-0.0437903 0.027196 0)
(-0.0468037 0.0254271 0)
(-0.0498431 0.0234663 0)
(-0.0529887 0.0214309 0)
(-0.0564486 0.0195377 0)
(-0.0605529 0.0181007 0)
(-0.0657886 0.0174791 0)
(-0.0726989 0.0179652 0)
(-0.0817799 0.0196574 0)
(-0.0933098 0.0223734 0)
(-0.107266 0.025654 0)
(-0.123287 0.0288494 0)
(-0.140752 0.0312551 0)
(-0.158875 0.032241 0)
(-0.17684 0.0313467 0)
(-0.193884 0.0283178 0)
(-0.209365 0.0231041 0)
(-0.22278 0.0158264 0)
(-0.233772 0.00673859 0)
(-0.242088 -0.0038173 0)
(-0.247557 -0.0154392 0)
(-0.25003 -0.0276896 0)
(-0.249365 -0.0400949 0)
(-0.245393 -0.0521495 0)
(-0.237931 -0.0632978 0)
(-0.226806 -0.0729443 0)
(-0.211917 -0.0804494 0)
(-0.193318 -0.0851889 0)
(-0.171321 -0.0866035 0)
(-0.146604 -0.0843413 0)
(-0.12026 -0.0783604 0)
(-0.0937753 -0.0690921 0)
(-0.0688476 -0.0574347 0)
(-0.0470705 -0.0446938 0)
(-0.0295482 -0.0322303 0)
(-0.0166219 -0.0211659 0)
(-0.00791366 -0.0120759 0)
(-0.00259305 -0.0050591 0)
(0.000247543 0.000109788 0)
(0.00144142 0.0037096 0)
(0.00158924 0.0059054 0)
(0.00120014 0.00665106 0)
(0.000579353 0.00570151 0)
(9.87591e-05 0.00269221 0)
(-0.000215078 0.00876505 0)
(-0.00144112 0.0205824 0)
(-0.00345163 0.0280395 0)
(-0.00581258 0.0324625 0)
(-0.00848371 0.0349295 0)
(-0.0112444 0.0361979 0)
(-0.0141387 0.0367697 0)
(-0.0170564 0.0369358 0)
(-0.0200576 0.0368619 0)
(-0.0230788 0.0366213 0)
(-0.026171 0.0362452 0)
(-0.0292908 0.0357302 0)
(-0.0324744 0.0350632 0)
(-0.0356879 0.0342178 0)
(-0.0389536 0.0331684 0)
(-0.0422444 0.031889 0)
(-0.0455827 0.0303718 0)
(-0.0489777 0.0286449 0)
(-0.0525259 0.0268145 0)