/*--------------------------------*- C++ -*----------------------------------*\
| =========                 |                                                 |
| \\      /  F ield         | OpenFOAM: The Open Source CFD Toolbox           |
|  \\    /   O peration     | Version:  2406                                  |
|   \\  /    A nd           | Website:  www.openfoam.com                      |
|    \\/     M anipulation  |                                                 |
\*---------------------------------------------------------------------------*/
FoamFile
{
    version     2.0;
    format      ascii;
    arch        "LSB;label=32;scalar=64";
    class       surfaceScalarField;
    location    "48.25";
    object      phi;
}
// * * * * * * * * * * * * * * * * * * * * * * * * * * * * * * * * * * * * * //

dimensions      [0 3 -1 0 0 0 0];

oriented        oriented;

internalField   nonuniform List<scalar> 
7080
(
2.19661e-07
-2.19106e-07
1.40038e-06
-1.1912e-06
3.11925e-06
-1.71663e-06
4.89802e-06
-1.78906e-06
6.35352e-06
-1.45393e-06
7.31548e-06
-9.68803e-07
7.81611e-06
-4.98141e-07
7.98001e-06
-1.66963e-07
7.97088e-06
1.25043e-08
7.87776e-06
9.2904e-08
7.71796e-06
1.64079e-07
7.40621e-06
3.14301e-07
6.81519e-06
5.97285e-07
5.78275e-06
1.03882e-06
4.15368e-06
1.63909e-06
1.76751e-06
2.39783e-06
-1.52482e-06
3.30767e-06
-5.86889e-06
4.36181e-06
-1.13896e-05
5.54217e-06
-1.81862e-05
6.82168e-06
-2.6299e-05
8.14297e-06
-3.56793e-05
9.4152e-06
-4.6153e-05
1.05124e-05
-5.7405e-05
1.12919e-05
-6.89725e-05
1.16059e-05
-8.02656e-05
1.13271e-05
-9.06064e-05
1.03682e-05
-9.92879e-05
8.70093e-06
-0.000105632
6.35464e-06
-0.000109044
3.4135e-06
-0.000109056
3.00111e-09
-0.000105359
-3.71414e-06
-9.78364e-05
-7.54755e-06
-8.65902e-05
-1.12791e-05
-7.19567e-05
-1.46724e-05
-5.4523e-05
-1.7478e-05
-3.51165e-05
-1.9454e-05
-1.47805e-05
-2.0386e-05
5.29297e-06
-2.01233e-05
2.38535e-05
-1.86093e-05
3.97257e-05
-1.59165e-05
5.19455e-05
-1.22591e-05
5.99024e-05
-7.98694e-06
6.34282e-05
-3.54775e-06
6.28335e-05
5.85115e-07
5.88409e-05
3.99133e-06
5.24554e-05
6.39598e-06
4.47603e-05
7.70983e-06
3.67408e-05
8.04189e-06
2.91323e-05
7.62862e-06
2.23915e-05
6.7647e-06
1.67038e-05
5.70414e-06
1.20801e-05
4.64368e-06
8.40725e-06
3.68278e-06
5.53379e-06
2.8892e-06
3.30153e-06
2.23624e-06
1.59905e-06
1.71496e-06
4.39141e-07
1.15949e-06
-1.23122e-07
5.71782e-07
-1.23065e-07
1.10778e-06
-1.31695e-06
3.85995e-06
-3.94478e-06
7.42956e-06
-5.27016e-06
1.09462e-05
-5.30413e-06
1.37693e-05
-4.26453e-06
1.55487e-05
-2.7482e-06
1.62736e-05
-1.21694e-06
1.60773e-05
2.62124e-08
1.51602e-05
9.30191e-07
1.35946e-05
1.65274e-06
1.13158e-05
2.43888e-06
8.07353e-06
3.54743e-06
3.52596e-06
5.13498e-06
-2.73395e-06
7.28336e-06
-1.10996e-05
9.98622e-06
-2.19413e-05
1.32146e-05
-3.55553e-05
1.68921e-05
-5.21298e-05
2.09011e-05
-7.16449e-05
2.50174e-05
-9.37916e-05
2.89216e-05
-0.000117924
3.222e-05
-0.000143104
3.45318e-05
-0.000168205
3.55415e-05
-0.000192042
3.50546e-05
-0.000213499
3.29915e-05
-0.000231618
2.93822e-05
-0.000245633
2.43317e-05
-0.000254976
1.80075e-05
-0.000259253
1.06136e-05
-0.00025823
2.38986e-06
-0.000251808
-6.40094e-06
-0.000240024
-1.54618e-05
-0.000223052
-2.44652e-05
-0.000201224
-3.30389e-05
-0.00017504
-4.07749e-05
-0.000145199
-4.7228e-05
-0.000112605
-5.19502e-05
-7.83717e-05
-5.45186e-05
-4.379e-05
-5.46042e-05
-1.0279e-05
-5.20249e-05
2.07136e-05
-4.68218e-05
4.78164e-05
-3.92886e-05
6.98735e-05
-2.99863e-05
8.60512e-05
-1.96888e-05
9.59461e-05
-9.29223e-06
9.96272e-05
3.05647e-07
9.76607e-05
8.3431e-06
9.10439e-05
1.42917e-05
8.11021e-05
1.79448e-05
6.92722e-05
1.94135e-05
5.69057e-05
1.90927e-05
4.50495e-05
1.75203e-05
3.43928e-05
1.52722e-05
2.52394e-05
1.28053e-05
1.7642e-05
1.04695e-05
1.14778e-05
8.37711e-06
6.61724e-06
6.56802e-06
3.0089e-06
4.7501e-06
7.36302e-07
2.84425e-06
6.03459e-07
1.70103e-06
-3.0175e-06
5.44929e-06
-7.70955e-06
1.0027e-05
-9.84542e-06
1.42376e-05
-9.52872e-06
1.73258e-05
-7.35206e-06
1.88609e-05
-4.29171e-06
1.88137e-05
-1.16721e-06
1.72656e-05
1.5718e-06
1.43347e-05
3.86593e-06
9.94391e-06
6.04566e-06
3.83218e-06
8.55805e-06
-4.47656e-06
1.18631e-05
-1.55396e-05
1.62097e-05
-2.99408e-05
2.16981e-05
-4.81748e-05
2.82391e-05
-7.05697e-05
3.56327e-05
-9.71209e-05
4.34725e-05
-0.000127363
5.11769e-05
-0.00016032
5.80115e-05
-0.00019463
6.32728e-05
-0.000228765
6.6403e-05
-0.000261278
6.70985e-05
-0.000290955
6.52782e-05
-0.000316887
6.10496e-05
-0.000338454
5.46176e-05
-0.000355264
4.62468e-05
-0.000367098
3.62083e-05
-0.00037384
2.47799e-05
-0.000375438
1.22281e-05
-0.000371879
-1.16959e-06
-0.000363171
-1.51263e-05
-0.000349352
-2.93133e-05
-0.00033051
-4.33564e-05
-0.000306807
-5.68037e-05
-0.000278523
-6.91329e-05
-0.000246096
-7.97391e-05
-0.000210158
-8.7978e-05
-0.00017157
-9.31988e-05
-0.000131423
-9.4843e-05
-9.10117e-05
-9.25235e-05
-5.17615e-05
-8.61496e-05
-1.51321e-05
-7.59841e-05
1.75215e-05
-6.26891e-05
4.50547e-05
-4.72554e-05
6.66413e-05
-3.08926e-05
8.18058e-05
-1.48583e-05
9.04692e-05
-3.03366e-07
9.29465e-05
1.18387e-05
8.99807e-05
2.09443e-05
8.26803e-05
2.67458e-05
7.24309e-05
2.93781e-05
6.06506e-05
2.93283e-05
4.86123e-05
2.73415e-05
3.72258e-05
2.42109e-05
2.70615e-05
2.06589e-05
1.83319e-05
1.71166e-05
1.11292e-05
1.37915e-05
5.47096e-06
1.04093e-05
1.61383e-06
6.71969e-06
2.21847e-06
2.10045e-06
-5.10784e-06
6.38712e-06
-1.20039e-05
1.12338e-05
-1.46773e-05
1.51923e-05
-1.3491e-05
1.7489e-05
-9.63907e-06
1.77024e-05
-4.50814e-06
1.58087e-05
7.30647e-07
1.17887e-05
5.58738e-06
5.56822e-06
1.00857e-05
-3.20502e-06
1.48124e-05
-1.50797e-05
2.04276e-05
-3.07661e-05
2.75402e-05
-5.09336e-05
3.63676e-05
-7.60844e-05
4.68356e-05
-0.000106332
5.84709e-05
-0.000141228
7.05094e-05
-0.000179664
8.18837e-05
-0.000220019
9.1503e-05
-0.000260485
9.84447e-05
-0.000299422
0.000102173
-0.000335561
0.000102502
-0.000368059
9.95505e-05
-0.000396417
9.35887e-05
-0.000420393
8.49763e-05
-0.00043989
7.4069e-05
-0.000454895
6.12123e-05
-0.000465422
4.67037e-05
-0.000471481
3.08187e-05
-0.000473062
1.37995e-05
-0.000470123
-4.10551e-06
-0.000462592
-2.26408e-05
-0.000450381
-4.1496e-05
-0.000433397
-6.02996e-05
-0.000411579
-7.85702e-05
-0.000384934
-9.57175e-05
-0.000353591
-0.000111014
-0.000317859
-0.000123636
-0.000278293
-0.000132689
-0.000235734
-0.000137326
-0.000191331
-0.000136855
-0.000146497
-0.000130918
-0.00010282
-0.000119606
-6.18915e-05
-0.000103573
-2.51368e-05
-8.39797e-05
6.3522e-06
-6.23629e-05
3.1865e-05
-4.03676e-05
5.10727e-05
-1.95164e-05
6.39394e-05
-1.04548e-06
7.07207e-05
1.41429e-05
7.19534e-05
2.54852e-05
6.85227e-05
3.27852e-05
6.15694e-05
3.62531e-05
5.24047e-05
3.64872e-05
4.22363e-05
3.43545e-05
3.20873e-05
3.07965e-05
2.26075e-05
2.6575e-05
1.42705e-05
2.21255e-05
7.32739e-06
1.73319e-05
2.31396e-06
1.17381e-05
4.5193e-06
2.34509e-06
-7.44903e-06
6.77294e-06
-1.64475e-05
1.12586e-05
-1.91555e-05
1.41586e-05
-1.64016e-05
1.47379e-05
-1.0214e-05
1.26314e-05
-2.40685e-06
7.81413e-06
5.55215e-06
1.13448e-07
1.32876e-05
-1.08191e-05
2.10238e-05
-2.5661e-05
2.9658e-05
-4.52074e-05
3.99817e-05
-7.02102e-05
5.25509e-05
-0.00010106
6.72284e-05
-0.000137562
8.33503e-05
-0.000178736
9.96598e-05
-0.0002229
0.000114691
-0.000268014
0.000127018
-0.000312155
0.000135669
-0.000353837
0.000140154
-0.000392094
0.000140461
-0.000426397
0.000136839
-0.000456521
0.000129711
-0.000482421
0.000119527
-0.000504155
0.000106748
-0.000521821
9.17685e-05
-0.00053553
7.49487e-05
-0.000545378
5.65714e-05
-0.000551436
3.68869e-05
-0.00055373
1.60948e-05
-0.000552239
-5.60564e-06
-0.00054688
-2.80197e-05
-0.000537507
-5.08979e-05
-0.000523915
-7.39293e-05
-0.000505854
-9.66757e-05
-0.00048306
-0.000118563
-0.000455303
-0.000138828
-0.000422461
-0.000156537
-0.00038462
-0.000170591
-0.000342171
-0.000179834
-0.00029592
-0.000183164
-0.000247124
-0.000179764
-0.000197473
-0.000169301
-0.000148931
-0.00015215
-0.000103483
-0.000129454
-6.28144e-05
-0.000103046
-2.80773e-05
-7.51106e-05
1.98289e-07
-4.77859e-05
2.19484e-05
-2.27849e-05
3.74015e-05
-1.29044e-06
4.69171e-05
1.59882e-05
5.10404e-05
2.86865e-05
5.05136e-05
3.67974e-05
4.63533e-05
4.06704e-05
3.96737e-05
4.10461e-05
3.16326e-05
3.8858e-05
2.31541e-05
3.50584e-05
1.50578e-05
3.02413e-05
7.90334e-06
2.44828e-05
2.53707e-06
1.71253e-05
7.05579e-06
2.46763e-06
-9.9086e-06
6.58319e-06
-2.05736e-05
9.98098e-06
-2.25419e-05
1.09477e-05
-1.73743e-05
8.86848e-06
-8.12894e-06
3.45889e-06
2.99841e-06
-5.36424e-06
1.43763e-05
-1.80089e-05
2.59274e-05
-3.51483e-05
3.81602e-05
-5.77048e-05
5.22083e-05
-8.64422e-05
6.8713e-05
-0.000121644
8.77447e-05
-0.000162758
0.000108333
-0.000208338
0.000128919
-0.000256264
0.000147571
-0.000304277
0.000162689
-0.000350468
0.00017319
-0.000393515
0.000178695
-0.000432654
0.000179268
-0.000467531
0.000175313
-0.000498066
0.000167344
-0.000524338
0.000155953
-0.000546521
0.000141679
-0.000564844
0.00012504
-0.000579554
0.000106452
-0.000590904
8.62769e-05
-0.000599123
6.47752e-05
-0.000604405
4.21619e-05
-0.000606887
1.85777e-05
-0.000606635
-5.84934e-06
-0.000603622
-3.10169e-05
-0.000597717
-5.67796e-05
-0.00058867
-8.29464e-05
-0.000576109
-0.000109202
-0.000559543
-0.00013509
-0.000538394
-0.000159934
-0.000512057
-0.000182828
-0.000480007
-0.000202596
-0.000441938
-0.000217857
-0.000397949
-0.000227108
-0.000348721
-0.000228951
-0.000295643
-0.000222343
-0.000240801
-0.000206961
-0.000186785
-0.000183448
-0.000136261
-0.000153555
-9.14568e-05
-0.000119911
-5.37086e-05
-8.55353e-05
-2.33919e-05
-5.31121e-05
-1.66824e-07
-2.45267e-05
1.65634e-05
-7.5998e-07
2.74433e-05
1.77928e-05
3.30965e-05
3.11248e-05
3.42965e-05
3.94592e-05
3.19329e-05
4.33912e-05
2.70736e-05
4.3711e-05
2.07181e-05
4.13963e-05
1.38901e-05
3.70694e-05
7.41872e-06
3.09351e-05
2.38983e-06
2.21607e-05
9.43289e-06
2.40628e-06
-1.23101e-05
5.66812e-06
-2.38463e-05
7.21742e-06
-2.40837e-05
5.42731e-06
-1.55894e-05
-1.45247e-07
-2.55194e-06
-9.73162e-06
1.25842e-05
-2.35602e-05
2.82088e-05
-4.2311e-05
4.46811e-05
-6.68788e-05
6.27331e-05
-9.80952e-05
8.34306e-05
-0.000136148
0.000106773
-0.000180258
0.000131863
-0.000228619
0.000156703
-0.00027882
0.00017913
-0.000328447
0.000197211
-0.000375595
0.00020985
-0.000419013
0.000216623
-0.000458022
0.000217723
-0.000492349
0.000213613
-0.000521988
0.000204973
-0.000547112
0.00019249
-0.000568014
0.000176877
-0.000585063
0.00015875
-0.00059867
0.000138668
-0.000609256
0.000117054
-0.000617222
9.42555e-05
-0.000622929
7.04897e-05
-0.000626683
4.59175e-05
-0.000628718
2.06071e-05
-0.000629184
-5.39431e-06
-0.000628134
-3.20835e-05
-0.000625508
-5.94284e-05
-0.000621105
-8.73779e-05
-0.00061456
-0.000115779
-0.00060532
-0.000144366
-0.000592633
-0.00017266
-0.000575559
-0.000199943
-0.000553038
-0.000225159
-0.000524014
-0.000246923
-0.000487644
-0.000263517
-0.000443575
-0.000273054
-0.000392251
-0.000273698
-0.000335149
-0.000264086
-0.000274857
-0.000243758
-0.000214809
-0.000213612
-0.000158684
-0.000176041
-0.000109528
-0.000134689
-6.90459e-05
-9.35902e-05
-3.74077e-05
-5.61539e-05
-1.37834e-05
-2.43748e-05
2.97786e-06
1.04689e-06
1.38697e-05
2.0243e-05
1.97673e-05
3.35778e-05
2.1482e-05
4.16836e-05
1.99619e-05
4.52466e-05
1.61722e-05
4.51884e-05
1.12014e-05
4.2056e-05
6.04944e-06
3.60836e-05
1.9163e-06
2.63113e-05
1.13489e-05
2.05045e-06
-1.43575e-05
3.7776e-06
-2.55803e-05
2.64957e-06
-2.29521e-05
-2.69826e-06
-1.02448e-05
-1.25283e-05
7.27731e-06
-2.70799e-05
2.71332e-05
-4.67921e-05
4.7917e-05
-7.25283e-05
7.0414e-05
-0.000105087
9.52856e-05
-0.000144676
0.000123015
-0.000190395
0.000152484
-0.000240246
0.000181707
-0.000291597
0.000208045
-0.000341894
0.000229418
-0.000389156
0.00024446
-0.000432113
0.000252796
-0.000470087
0.000254581
-0.000502826
0.000250447
-0.000530386
0.000241156
-0.000553046
0.000227617
-0.000571246
0.000210671
-0.000585524
0.000191139
-0.000596464
0.000169674
-0.000604646
0.000146838
-0.00061061
0.000123009
-0.000614835
9.84758e-05
-0.000617729
7.33822e-05
-0.000619623
4.78175e-05
-0.000620781
2.17749e-05
-0.000621392
-4.76774e-06
-0.000621571
-3.18844e-05
-0.000621345
-5.96286e-05
-0.000620634
-8.80609e-05
-0.000619208
-0.000117173
-0.000616648
-0.000146893
-0.000612285
-0.000176989
-0.000605159
-0.000207033
-0.000594002
-0.000236282
-0.000577278
-0.000263616
-0.000553326
-0.000287441
-0.00052063
-0.000305726
-0.000478206
-0.000316102
-0.000426077
-0.000316197
-0.000365704
-0.000304118
-0.000300179
-0.000279127
-0.000233969
-0.000242247
-0.000172043
-0.000196612
-0.000118571
-0.000147067
-7.57275e-05
-9.90028e-05
-4.34572e-05
-5.66564e-05
-2.02692e-05
-2.21491e-05
-4.41355e-06
4.37411e-06
5.58008e-06
2.35773e-05
1.08123e-05
3.64382e-05
1.22928e-05
4.37624e-05
1.09886e-05
4.64796e-05
7.99167e-06
4.5053e-05
4.38201e-06
3.96792e-05
1.354e-06
2.93432e-05
1.26935e-05
1.30088e-06
-1.5657e-05
7.61577e-07
-2.50399e-05
-3.80109e-06
-1.83889e-05
-1.33474e-05
-6.93716e-07
-2.80095e-05
2.19393e-05
-4.80924e-05
4.72228e-05
-7.42093e-05
7.4035e-05
-0.00010713
0.000103343
-0.000147091
0.000135249
-0.000193238
0.000169171
-0.000243518
0.000202768
-0.000295164
0.000233362
-0.000345461
0.000258348
-0.000392292
0.000276259
-0.000434294
0.00028647
-0.000470735
0.000289249
-0.000501374
0.00028523
-0.000526336
0.000275422
-0.000546033
0.000260865
-0.00056107
0.000242669
-0.000572166
0.00022178
-0.000580064
0.00019905
-0.00058547
0.000175093
-0.000589014
0.000150392
-0.000591227
0.000125228
-0.000592541
9.9793e-05
-0.000593297
7.41373e-05
-0.000593763
4.82793e-05
-0.00059415
2.21522e-05
-0.000594622
-4.30824e-06
-0.000595308
-3.12152e-05
-0.000596297
-5.86593e-05
-0.000597625
-8.67552e-05
-0.000599247
-0.000115575
-0.000600986
-0.000145179
-0.000602467
-0.000175534
-0.000603027
-0.000206499
-0.000601625
-0.000237709
-0.000596773
-0.000268492
-0.000586533
-0.000297704
-0.000568645
-0.000323635
-0.000540834
-0.000343932
-0.000501328
-0.000355721
-0.00044953
-0.000355931
-0.00038671
-0.000341957
-0.000316422
-0.00031254
-0.000244281
-0.000268752
-0.000176824
-0.000214522
-0.000119556
-0.000156264
-7.51752e-05
-0.000101032
-4.32026e-05
-5.4112e-05
-2.1366e-05
-1.74568e-05
-7.19312e-06
9.4152e-06
1.2055e-06
2.8044e-05
5.25958e-06
3.97192e-05
6.11978e-06
4.56212e-05
4.9235e-06
4.62603e-05
2.78628e-06
4.18152e-05
8.28841e-07
3.1312e-05
1.35234e-05
5.06171e-08
-1.57138e-05
-3.50049e-06
-2.14829e-05
-1.21489e-05
-9.75161e-06
-2.63706e-05
1.35336e-05
-4.62436e-05
4.18008e-05
-7.21291e-05
7.31113e-05
-0.000104632
0.000106527
-0.00014404
0.000142751
-0.000189659
0.000180857
-0.000239518
0.000219029
-0.000290819
0.000254058
-0.000340676
0.000283215
-0.000386793
0.000304454
-0.000427644
0.000317104
-0.000462424
0.000321239
-0.000490879
0.000317697
-0.000513219
0.00030756
-0.000529994
0.000292189
-0.00054199
0.00027285
-0.000550097
0.000250768
-0.00055521
0.000226883
-0.000558137
0.00020197
-0.000559565
0.000176513
-0.000560037
0.00015086
-0.000559965
0.000125153
-0.000559646
9.94761e-05
-0.000559298
7.37922e-05
-0.000559075
4.8064e-05
-0.0005591
2.21879e-05
-0.00055948
-3.91498e-06
-0.000560315
-3.0364e-05
-0.000561707
-5.72477e-05
-0.000563756
-8.46851e-05
-0.000566542
-0.000112766
-0.000570099
-0.000141598
-0.000574356
-0.000171252
-0.000579057
-0.000201773
-0.000583646
-0.000233095
-0.000587131
-0.000264983
-0.000587946
-0.000296867
-0.00058388
-0.000327682
-0.000572144
-0.000355651
-0.000549694
-0.000378158
-0.000513848
-0.000391768
-0.000463201
-0.000392598
-0.000398646
-0.000377094
-0.000324118
-0.000343279
-0.000246502
-0.00029214
-0.00017413
-0.000228637
-0.000114022
-0.000161146
-6.92373e-05
-9.89004e-05
-3.86101e-05
-4.80924e-05
-1.88797e-05
-1.03196e-05
-6.92612e-06
1.60816e-05
-4.15132e-07
3.32054e-05
2.31295e-06
4.28843e-05
2.60347e-06
4.5969e-05
1.64315e-06
4.27666e-05
4.90646e-07
3.24653e-05
1.40079e-05
-1.70785e-06
-1.40127e-05
-8.87628e-06
-1.42927e-05
-2.20199e-05
3.3776e-06
-4.11218e-05
3.26557e-05
-6.62653e-05
6.6935e-05
-9.77595e-05
0.000104623
-0.000135923
0.000144686
-0.000180232
0.000187074
-0.000228993
0.000229617
-0.000279446
0.000269494
-0.000328615
0.000303228
-0.000373956
0.000328567
-0.00041377
0.000344271
-0.000447113
0.000350457
-0.000473723
0.000347854
-0.000493862
0.000337846
-0.000508226
0.000321931
-0.000517763
0.000301736
-0.000523533
0.000278627
-0.000526555
0.000253799
-0.000527725
0.000228058
-0.000527753
0.000202006
-0.000527174
0.000175937
-0.000526351
0.000150041
-0.000525523
0.000124325
-0.000524831
9.87822e-05
-0.000524361
7.33155e-05
-0.000524162
4.78575e-05
-0.000524279
2.22931e-05
-0.000524758
-3.44984e-06
-0.000525662
-2.9476e-05
-0.000527077
-5.58513e-05
-0.00052911
-8.26717e-05
-0.000531891
-0.000110006
-0.000535555
-0.000137956
-0.000540218
-0.000166611
-0.000545929
-0.000196084
-0.00055258
-0.000226464
-0.000559783
-0.000257798
-0.00056669
-0.000289976
-0.00057179
-0.000322595
-0.000572745
-0.000354706
-0.000566373
-0.000384539
-0.000548914
-0.000409234
-0.000516738
-0.00042478
-0.000467495
-0.000426342
-0.000401553
-0.000409223
-0.000323192
-0.000370503
-0.000240705
-0.000311121
-0.00016448
-0.000237367
-0.000103041
-0.000160333
-5.94236e-05
-9.17053e-05
-3.1289e-05
-3.84474e-05
-1.43505e-05
-8.53974e-07
-4.89928e-06
2.37611e-05
-3.3647e-07
3.83232e-05
1.18271e-06
4.44569e-05
1.05069e-06
4.28987e-05
3.64441e-07
3.31587e-05
1.43739e-05
-3.95634e-06
-1.00754e-05
-1.51761e-05
-3.0461e-06
-3.29862e-05
2.11551e-05
-5.69115e-05
5.6601e-05
-8.70378e-05
9.70359e-05
-0.000123439
0.000141036
-0.000165894
0.00018712
-0.000212962
0.000234149
-0.000262184
0.000278822
-0.000310481
0.000317793
-0.000355148
0.000347882
-0.000394196
0.000367615
-0.000426551
0.000376614
-0.000451852
0.000375756
-0.000470417
0.000366408
-0.000483024
0.00035045
-0.000490784
0.000329682
-0.00049489
0.000305837
-0.000496485
0.000280215
-0.000496521
0.000253832
-0.000495739
0.00022727
-0.000494644
0.000200908
-0.00049356
0.00017485
-0.00049266
0.000149141
-0.000492028
0.000123692
-0.000491679
9.84381e-05
-0.000491611
7.32524e-05
-0.000491808
4.80626e-05
-0.000492265
2.27599e-05
-0.000492992
-2.7103e-06
-0.000494023
-2.84311e-05
-0.000495417
-5.44414e-05
-0.000497264
-8.08076e-05
-0.000499685
-0.000107567
-0.000502832
-0.000134792
-0.00050688
-0.000162545
-0.000512012
-0.000190935
-0.000518372
-0.000220087
-0.000525994
-0.000250161
-0.000534657
-0.000281299
-0.000543696
-0.000313545
-0.000551726
-0.000346665
-0.000556394
-0.00037986
-0.000554238
-0.000411382
-0.000540883
-0.000438129
-0.000511772
-0.00045545
-0.000463574
-0.000457421
-0.000396083
-0.000437997
-0.000314001
-0.000393207
-0.000227304
-0.000324068
-0.000148682
-0.000238957
-8.79305e-05
-0.00015246
-4.72546e-05
-7.9126e-05
-2.2688e-05
-2.54259e-05
-8.97255e-06
1.00431e-05
-2.12859e-06
3.14736e-05
5.80282e-07
4.1747e-05
1.00092e-06
4.24719e-05
4.53831e-07
3.37061e-05
1.48233e-05
-6.52938e-06
-3.56357e-06
-2.19361e-05
1.24085e-05
-4.4267e-05
4.34509e-05
-7.26384e-05
8.50112e-05
-0.000107076
0.000131452
-0.000147229
0.000181217
-0.00019221
0.000232089
-0.000239787
0.000281748
-0.000287111
0.000326139
-0.000331208
0.000361907
-0.000369896
0.000386566
-0.000401802
0.000399535
-0.000426492
0.000401305
-0.000444204
0.00039348
-0.000455811
0.000378017
-0.000462502
0.000357151
-0.00046562
0.000332802
-0.00046639
0.000306616
-0.000465846
0.000279673
-0.00046473
0.000252723
-0.000463544
0.000226085
-0.00046256
0.000199927
-0.00046191
0.000174199
-0.000461614
0.000148846
-0.00046165
0.000123725
-0.000461964
9.87488e-05
-0.000462508
7.37893e-05
-0.000463237
4.87843e-05
-0.000464129
2.36407e-05
-0.000465174
-1.67659e-06
-0.000466389
-2.72296e-05
-0.000467809
-5.30351e-05
-0.000469498
-7.91341e-05
-0.000471545
-0.000105537
-0.000474073
-0.00013228
-0.000477243
-0.000159391
-0.000481254
-0.000186939
-0.000486335
-0.00021502
-0.000492716
-0.000243794
-0.000500552
-0.000273475
-0.000509791
-0.000304317
-0.000519943
-0.000336522
-0.000529777
-0.000370033
-0.000536958
-0.000404206
-0.000537807
-0.000437283
-0.000527392
-0.000465865
-0.000500291
-0.000484522
-0.000452231
-0.000486056
-0.000382544
-0.000462895
-0.000296627
-0.000409986
-0.000206594
-0.000328988
-0.000127654
-0.000231397
-7.01311e-05
-0.000136642
-3.42459e-05
-6.13082e-05
-1.40706e-05
-1.01287e-05
-3.88075e-06
2.12853e-05
3.56247e-07
3.75146e-05
1.27627e-06
4.15518e-05
6.79543e-07
3.43085e-05
1.55037e-05
-9.26798e-06
5.67182e-06
-2.87484e-05
3.19396e-05
-5.52054e-05
6.98513e-05
-8.73804e-05
0.000117223
-0.000125145
0.000169176
-0.00016761
0.000223704
-0.00021326
0.00027771
-0.000259341
0.000327841
-0.000302992
0.000369768
-0.000341623
0.000400544
-0.000373676
0.000418603
-0.000398415
0.000424276
-0.000416039
0.000418915
-0.000427342
0.000404784
-0.000433625
0.00038429
-0.00043629
0.000359815
-0.000436694
0.000333197
-0.000435911
0.000305831
-0.000434737
0.000278492
-0.000433648
0.000251633
-0.000432908
0.00022534
-0.000432595
0.000199615
-0.000432706
0.000174308
-0.000433173
0.000149315
-0.000433925
0.000124478
-0.000434883
9.97125e-05
-0.000435993
7.49041e-05
-0.000437208
5.00069e-05
-0.000438505
2.49465e-05
-0.000439874
-2.97002e-07
-0.000441323
-2.5769e-05
-0.000442873
-5.14727e-05
-0.000444562
-7.74321e-05
-0.000446444
-0.000103641
-0.000448599
-0.000130111
-0.000451134
-0.000156842
-0.000454203
-0.000183858
-0.000458004
-0.000211207
-0.000462798
-0.000238989
-0.000468876
-0.000267388
-0.00047651
-0.000296675
-0.0004858
-0.000327225
-0.000496436
-0.000359392
-0.000507313
-0.000393324
-0.0005161
-0.000428493
-0.00051887
-0.000463092
-0.000510139
-0.000493251
-0.000483652
-0.000512542
-0.000434333
-0.000512214
-0.000361349
-0.000482973
-0.000271366
-0.000418976
-0.000179321
-0.000323445
-0.000102906
-0.000213059
-5.14633e-05
-0.000112751
-2.18546e-05
-3.97404e-05
-6.63467e-06
6.06205e-06
-7.31287e-08
3.09519e-05
1.59621e-06
3.98777e-05
9.54116e-07
3.49517e-05
1.64541e-05
-1.18915e-05
1.75354e-05
-3.50207e-05
5.51414e-05
-6.49456e-05
9.97204e-05
-0.000100048
0.000152382
-0.00013996
0.000209054
-0.000183235
0.000267018
-0.000227889
0.000322344
-0.000270949
0.000370929
-0.000309828
0.000408635
-0.000342465
0.000433201
-0.000367956
0.000444088
-0.000386181
0.000442518
-0.00039792
0.000430652
-0.000404392
0.00041127
-0.00040713
0.000387027
-0.000407532
0.000360227
-0.000406799
0.000332464
-0.000405739
0.000304779
-0.000404877
0.00027763
-0.000404438
0.0002512
-0.000404503
0.000225404
-0.00040502
0.000200135
-0.000405916
0.000175201
-0.000407086
0.000150486
-0.000408453
0.000125841
-0.000409941
0.000101197
-0.000411505
7.64618e-05
-0.000413108
5.16044e-05
-0.000414738
2.65677e-05
-0.000416386
1.34231e-06
-0.000418061
-2.41051e-05
-0.000419773
-4.97711e-05
-0.000421547
-7.56695e-05
-0.000423412
-0.000101788
-0.000425412
-0.000128123
-0.000427606
-0.000154661
-0.000430082
-0.000181393
-0.000432971
-0.000208328
-0.000436467
-0.000235502
-0.000440838
-0.000263026
-0.000446432
-0.000291088
-0.00045362
-0.000320044
-0.000462658
-0.000350358
-0.000473396
-0.00038259
-0.000484839
-0.000417053
-0.000494577
-0.000453354
-0.000498352
-0.000489476
-0.000490023
-0.000520868
-0.000462523
-0.000539712
-0.00041018
-0.000535314
-0.000332565
-0.000496595
-0.000238547
-0.000417463
-0.00014676
-0.000304848
-7.66114e-05
-0.000182891
-3.38746e-05
-8.24744e-05
-1.148e-05
-1.63312e-05
-1.35784e-06
2.08318e-05
1.63246e-06
3.68872e-05
1.16729e-06
3.54213e-05
1.76217e-05
-1.42143e-05
3.17063e-05
-4.0381e-05
8.13783e-05
-7.29669e-05
0.00013223
-0.00011
0.000189466
-0.000150829
0.00024983
-0.000193531
0.000309751
-0.000235863
0.000364639
-0.000274906
0.000409988
-0.000308519
0.000442222
-0.000335226
0.000459917
-0.000354754
0.000463597
-0.000367541
0.00045531
-0.000374821
0.000437917
-0.000378053
0.000414504
-0.000378796
0.000387757
-0.00037828
0.000359712
-0.000377448
0.000331622
-0.000376818
0.00030415
-0.000376672
0.000277476
-0.000377048
0.000251576
-0.000377911
0.000226262
-0.000379146
0.000201372
-0.000380662
0.000176715
-0.000382353
0.00015218
-0.000384157
0.000127645
-0.000386013
0.000103059
-0.000387896
7.83488e-05
-0.000389781
5.34963e-05
-0.000391665
2.84579e-05
-0.000393543
3.2295e-06
-0.000395427
-2.22134e-05
-0.000397322
-4.78663e-05
-0.000399245
-7.37365e-05
-0.00040121
-9.98127e-05
-0.000403239
-0.000126084
-0.000405355
-0.000152534
-0.0004076
-0.000179138
-0.000410034
-0.000205885
-0.000412768
-0.00023276
-0.000415975
-0.000259812
-0.000419934
-0.000287123
-0.000425027
-0.000314947
-0.000431722
-0.000343659
-0.000440409
-0.000373901
-0.000451091
-0.00040637
-0.000462817
-0.000441627
-0.000473021
-0.000479272
-0.000476929
-0.000516959
-0.000467615
-0.000549025
-0.000437186
-0.00056574
-0.000379752
-0.000554031
-0.000296195
-0.000501025
-0.000198982
-0.000402066
-0.000111198
-0.000270679
-5.14807e-05
-0.000142186
-1.9191e-05
-4.86226e-05
-4.00404e-06
5.64176e-06
1.15214e-06
3.1729e-05
1.24819e-06
3.5325e-05
1.88675e-05
-1.59875e-05
4.76588e-05
-4.43802e-05
0.000109861
-7.86999e-05
0.000166479
-0.000116622
0.000227458
-0.000157212
0.000290377
-0.000198209
0.000350795
-0.000237315
0.000403719
-0.00027186
0.000444566
-0.000300232
0.000470579
-0.000321527
0.000481238
-0.000336044
0.000478106
-0.000344662
0.000463948
-0.000348907
0.000442159
-0.000350284
0.000415896
-0.000350218
0.00038769
-0.000349681
0.000359187
-0.000349333
0.000331273
-0.000349441
0.000304267
-0.000350104
0.000278139
-0.000351246
0.000252724
-0.000352779
0.000227794
-0.000354573
0.00020317
-0.000356545
0.000178684
-0.000358607
0.000154243
-0.000360719
0.000129753
-0.000362837
0.000105175
-0.000364951
8.04571e-05
-0.000367043
5.55851e-05
-0.00036912
3.05276e-05
-0.000371178
5.2813e-06
-0.00037323
-2.01703e-05
-0.000375279
-4.58249e-05
-0.00037734
-7.16841e-05
-0.000379419
-9.77418e-05
-0.00038153
-0.000123983
-0.000383676
-0.000150396
-0.000385872
-0.000176949
-0.000388135
-0.00020363
-0.000390508
-0.000230394
-0.000393072
-0.000257253
-0.000395997
-0.000284204
-0.000399557
-0.000311391
-0.000404188
-0.000339032
-0.000410433
-0.000367658
-0.00041882
-0.000397986
-0.000429444
-0.000431003
-0.000441338
-0.00046738
-0.000451588
-0.000506707
-0.000454718
-0.000545896
-0.000442806
-0.000577647
-0.000407234
-0.000589602
-0.00034251
-0.000565745
-0.000252268
-0.000492316
-0.0001544
-0.000368548
-7.60499e-05
-0.000220535
-3.02345e-05
-9.44243e-05
-8.34564e-06
-1.62545e-05
3.00631e-08
2.3358e-05
1.16186e-06
3.41928e-05
2.00309e-05
-1.71218e-05
6.47309e-05
-4.6876e-05
0.000139696
-8.20022e-05
0.000201517
-0.000119837
0.000265352
-0.000159203
0.000329684
-0.00019766
0.000389287
-0.000233025
0.000439042
-0.000262993
0.000474554
-0.000286493
0.000494049
-0.000303147
0.000497904
-0.000313719
0.000488654
-0.000319392
0.000469628
-0.000321805
0.000444553
-0.000322355
0.00041645
-0.000322246
0.000387565
-0.00032216
0.000359103
-0.000322515
0.000331616
-0.000323384
0.000305137
-0.000324758
0.000279504
-0.000326502
0.00025447
-0.000328524
0.000229809
-0.000330702
0.000205349
-0.000332977
0.000180957
-0.000335284
0.000156553
-0.000337603
0.000132071
-0.000339903
0.00010748
-0.000342185
8.27413e-05
-0.000344437
5.78428e-05
-0.000346668
3.27626e-05
-0.000348875
7.49515e-06
-0.000351071
-1.79684e-05
-0.000353258
-4.36298e-05
-0.000355451
-6.94844e-05
-0.000357652
-9.5533e-05
-0.000359872
-0.000121756
-0.000362108
-0.000148153
-0.000364364
-0.000174687
-0.000366631
-0.000201357
-0.000368915
-0.000228104
-0.000371231
-0.000254933
-0.000373648
-0.000281782
-0.000376314
-0.000308722
-0.000379529
-0.000335814
-0.000383765
-0.00036342
-0.000389679
-0.000392071
-0.000397893
-0.000422788
-0.000408574
-0.0004567
-0.000420558
-0.000494722
-0.00043039
-0.000536067
-0.000431562
-0.00057647
-0.00041505
-0.000606116
-0.000371747
-0.00060904
-0.000297749
-0.000566329
-0.000201466
-0.000464825
-0.000108223
-0.000313801
-4.53934e-05
-0.000157226
-1.44395e-05
-4.72212e-05
-1.82976e-06
1.07519e-05
9.32594e-07
3.14258e-05
2.09638e-05
-1.74957e-05
8.2189e-05
-4.76907e-05
0.000169988
-8.27166e-05
0.000236467
-0.000119588
0.000302298
-0.000156953
0.000367001
-0.000192334
0.000424719
-0.00022378
0.00047046
-0.000249406
0.000500217
-0.000268642
0.000513268
-0.000281549
0.000510839
-0.000289233
0.000496328
-0.000293028
0.000473445
-0.000294538
0.000446058
-0.000294961
0.000416891
-0.00029524
0.000387841
-0.000295804
0.000359682
-0.000296881
0.000332691
-0.000298419
0.000306687
-0.00030036
0.000281443
-0.000302553
0.000256671
-0.000304924
0.000232178
-0.00030737
0.000207801
-0.000309862
0.000183446
-0.000312349
0.000159043
-0.000314827
0.000134547
-0.000317275
0.000109927
-0.000319697
8.51591e-05
-0.000322083
6.02266e-05
-0.000324442
3.51168e-05
-0.000326771
9.82004e-06
-0.000329082
-1.5664e-05
-0.000331375
-4.13422e-05
-0.000333664
-6.72019e-05
-0.000335951
-9.32517e-05
-0.000338248
-0.000119465
-0.000340553
-0.000145854
-0.000342868
-0.000172377
-0.000345179
-0.000199052
-0.000347478
-0.000225809
-0.000349744
-0.000252671
-0.000351986
-0.000279542
-0.000354246
-0.000306465
-0.00035668
-0.000333382
-0.000359594
-0.000360508
-0.000363545
-0.000388121
-0.000369277
-0.000417057
-0.00037754
-0.000448439
-0.000388431
-0.000483829
-0.000400433
-0.000524068
-0.000409151
-0.000567748
-0.000406782
-0.000608486
-0.000383109
-0.000632702
-0.000329316
-0.000620124
-0.000244948
-0.000549195
-0.00014615
-0.000412611
-6.58247e-05
-0.000237548
-2.23287e-05
-9.07012e-05
-4.55716e-06
-7.02801e-06
5.85339e-07
2.62842e-05
2.15508e-05
-1.71513e-05
9.92897e-05
-4.69338e-05
0.000199853
-8.10632e-05
0.000270506
-0.000116264
0.000337559
-0.000151073
0.000401749
-0.000183103
0.000456784
-0.000210696
0.00049801
-0.00023239
0.000521932
-0.000248045
0.00052889
-0.000258063
0.000520871
-0.000263759
0.000501999
-0.000266487
0.000476181
-0.000267714
0.000447263
-0.000268396
0.000417577
-0.000269234
0.000388661
-0.000270452
0.000360902
-0.00027215
0.000334375
-0.000274212
0.000308749
-0.000276562
0.000283783
-0.000279066
0.000259176
-0.000281671
0.000234776
-0.000284301
0.000210433
-0.000286945
0.000186086
-0.000289567
0.000161667
-0.000292173
0.000137151
-0.000294744
0.000112501
-0.000297288
8.77038e-05
-0.000299794
6.27361e-05
-0.00030227
3.7595e-05
-0.00030471
1.22646e-05
-0.000307124
-1.32455e-05
-0.000309512