/*--------------------------------*- C++ -*----------------------------------*\
| =========                 |                                                 |
| \\      /  F ield         | OpenFOAM: The Open Source CFD Toolbox           |
|  \\    /   O peration     | Version:  2406                                  |
|   \\  /    A nd           | Website:  www.openfoam.com                      |
|    \\/     M anipulation  |                                                 |
\*---------------------------------------------------------------------------*/
FoamFile
{
    version     2.0;
    format      ascii;
    arch        "LSB;label=32;scalar=64";
    class       surfaceScalarField;
    location    "34.6";
    object      phi;
}
// * * * * * * * * * * * * * * * * * * * * * * * * * * * * * * * * * * * * * //

dimensions      [0 3 -1 0 0 0 0];

oriented        oriented;

internalField   nonuniform List<scalar> 
1740
(
6.48452e-06
-6.4537e-06
1.81602e-05
-1.18383e-05
2.70488e-05
-8.81641e-06
3.05379e-05
-3.52339e-06
3.1011e-05
-4.03058e-07
3.03678e-05
6.65307e-07
2.96202e-05
8.26965e-07
2.73506e-05
2.29361e-06
1.83901e-05
9.15118e-06
-4.91126e-06
2.38543e-05
-4.8079e-05
4.38931e-05
-0.000111582
6.41542e-05
-0.000187524
7.64344e-05
-0.000262834
7.57104e-05
-0.000327092
6.46744e-05
-0.000374169
4.74547e-05
-0.000400078
2.63093e-05
-0.000402337
2.56032e-06
-0.000379137
-2.28237e-05
-0.000330131
-4.88575e-05
-0.000256312
-7.35211e-05
-0.000162676
-9.38506e-05
-5.82329e-05
-0.00010441
4.01571e-05
-9.90887e-05
0.000110234
-6.99649e-05
0.000132008
-2.21787e-05
0.000106398
2.61001e-05
6.23844e-05
4.35092e-05
2.27414e-05
4.01446e-05
2.27487e-05
1.32684e-05
-1.96235e-05
3.16892e-05
-3.03767e-05
4.38872e-05
-2.09299e-05
4.58825e-05
-5.60971e-06
3.93877e-05
6.06648e-06
2.36183e-05
1.6318e-05
-7.52134e-06
3.19399e-05
-6.45755e-05
5.94717e-05
-0.00015238
9.68616e-05
-0.000263529
0.000134216
-0.000380288
0.000159699
-0.00048546
0.000168605
-0.000570903
0.000161147
-0.00063551
0.00013953
-0.000679602
0.000108047
-0.000702864
7.00434e-05
-0.00070463
2.75454e-05
-0.000684122
-1.84339e-05
-0.000640334
-6.6862e-05
-0.000572635
-0.000116836
-0.000481135
-0.000164937
-0.000368257
-0.000206874
-0.000240154
-0.000232146
-0.000108961
-0.000230422
6.3348e-06
-0.000184466
8.04692e-05
-9.62718e-05
9.62292e-05
1.09215e-05
7.0318e-05
6.84997e-05
2.9849e-05
8.05781e-05
5.20047e-05
1.6763e-05
-3.63054e-05
3.37605e-05
-4.74976e-05
3.90921e-05
-2.61273e-05
2.86412e-05
4.8877e-06
4.59588e-07
3.43948e-05
-5.39522e-05
7.09155e-05
-0.000143733
0.000121919
-0.000266898
0.00018249
-0.00040337
0.000233272
-0.00052965
0.000260826
-0.000634215
0.000264605
-0.000715267
0.000249889
-0.000774782
0.000220832
-0.000815864
0.000180784
-0.000840908
0.000133283
-0.000851279
8.0525e-05
-0.000847414
2.37547e-05
-0.00082888
-3.70819e-05
-0.000794402
-0.000101457
-0.000742006
-0.000169633
-0.000669443
-0.000237802
-0.000574549
-0.000302451
-0.000457524
-0.000349555
-0.000321535
-0.000367174
-0.000178512
-0.000327192
-5.13995e-05
-0.000223397
2.07464e-05
-5.99345e-05
3.30656e-05
5.5851e-05
1.54813e-05
9.88525e-05
6.76558e-05
1.55074e-05
-5.1854e-05
2.18608e-05
-5.40484e-05
8.74746e-06
-1.30289e-05
-2.92117e-05
4.27468e-05
-9.86249e-05
0.000103752
-0.000205557
0.000177645
-0.000340597
0.00025672
-0.000478731
0.000320484
-0.000598457
0.000352668
-0.000693229
0.000355067
-0.00076422
0.00033512
-0.000814161
0.000299485
-0.000846977
0.000253358
-0.000866805
0.000200342
-0.000876863
0.00014315
-0.000879275
8.2759e-05
-0.000875097
1.95361e-05
-0.000864424
-4.78387e-05
-0.00084623
-0.000119529
-0.00081826
-0.000197647
-0.000776847
-0.000279014
-0.000716545
-0.000362901
-0.000631499
-0.000434556
-0.000515315
-0.000483733
-0.000368513
-0.000474058
-0.00020129
-0.000390619
-6.01032e-05
-0.000200835
2.49299e-06
-7.22672e-06
3.59658e-06
9.79982e-05
7.09325e-05
7.15765e-06
-5.8887e-05
-6.193e-06
-4.05725e-05
-4.74079e-05
2.84386e-05
-0.000121174
0.000116743
-0.000229234
0.000211943
-0.000361267
0.0003098
-0.000493438
0.000388902
-0.00060473
0.000431722
-0.000688325
0.000436344
-0.000746341
0.000413352
-0.000782813
0.000371891
-0.000802745
0.000319737
-0.000811102
0.000262038
-0.000812131
0.000201677
-0.000809067
0.000140428
-0.000804197
7.81544e-05
-0.000798961
1.46571e-05
-0.000794164
-5.24453e-05
-0.000789645
-0.000123667
-0.000784178
-0.00020303
-0.000774518
-0.000288308
-0.000754626
-0.000382893
-0.000715211
-0.000473835
-0.000642943
-0.00055643
-0.000525309
-0.000591826
-0.000356134
-0.00056034
-0.000157368
-0.000399062
-2.27226e-05
-0.000142401
3.16841e-06
7.27457e-05
7.40737e-05
-1.09588e-05
-4.80912e-05
-5.1218e-05
-3.26221e-07
-0.000122365
9.94896e-05
-0.000223282
0.000217618
-0.00034538
0.000333857
-0.000468769
0.000432976
-0.000572299
0.000492209
-0.000646
0.000505329
-0.000691979
0.000482229
-0.000715803
0.000437118
-0.000723337
0.000379398
-0.000720372
0.000316777
-0.000711475
0.00025318
-0.000700225
0.000190447
-0.000688978
0.000129289
-0.000679428
6.86411e-05
-0.000672643
8.09365e-06
-0.000669679
-5.53559e-05
-0.000671095
-0.000121865
-0.000677322
-0.000196739
-0.000687178
-0.000277887
-0.000697179
-0.00037282
-0.000699342
-0.000471085
-0.000678914
-0.000576825
-0.000616333
-0.00065415
-0.000489144
-0.000688079
-0.000289171
-0.000598315
-7.61092e-05
-0.000357843
7.02603e-06
-8.59503e-06
8.04615e-05
-3.25088e-05
-1.55095e-05
-9.77434e-05
6.53093e-05
-0.000189517
0.000191366
-0.000299682
0.000328015
-0.000414103
0.000448223
-0.000512741
0.000531683
-0.000582347
0.000561872
-0.000622211
0.000545386
-0.00063907
0.000499285
-0.000639728
0.000438007
-0.000630801
0.000370661
-0.000617499
0.000303622
-0.000603105
0.000238914
-0.000589672
0.000177045
-0.000578028
0.000117723
-0.00056879
5.93067e-05
-0.00056221
1.58399e-06
-0.000559119
-5.86788e-05
-0.000560157
-0.0001207
-0.000566745
-0.0001905
-0.000579463
-0.000264894
-0.00059824
-0.000354419
-0.000619395
-0.00044949
-0.000632842
-0.000563525
-0.000621027
-0.000665722
-0.000553532
-0.000754973
-0.000408782
-0.000744163
-0.000172032
-0.000593748
-5.35501e-06
-0.000175688
7.55553e-05
-5.17763e-05
3.59639e-05
-0.000134319
0.000147932
-0.000234364
0.000291046
-0.000339768
0.000433314
-0.000435709
0.000543836
-0.000506309
0.000602178
-0.000546679
0.000602145
-0.000562027
0.00056073
-0.000560925
0.00049813
-0.000550519
0.000427556
-0.000536895
0.000356978
-0.000523463
0.000290108
-0.000511608
0.000227027
-0.000501659
0.000166996
-0.000493189
0.000109292
-0.000486188
5.21755e-05
-0.000480522
-3.93716e-06
-0.00047703
-6.23732e-05
-0.000476277
-0.000121179
-0.000480011
-0.000187108
-0.000489295
-0.000255198
-0.000505885
-0.000338321
-0.00052915
-0.000425674
-0.000554724
-0.000538377
-0.000570543
-0.000649396
-0.000551001
-0.000774147
-0.000467988
-0.000828315
-0.000279498
-0.00078035
-4.5509e-05
-0.000414541
3.20451e-05
-6.21159e-05
9.80801e-05
-0.000151549
0.00023776
-0.000249451
0.000388772
-0.000342443
0.000526455
-0.000417701
0.000618983
-0.00046471
0.000649383
-0.000484948
0.000622526
-0.000486648
0.000562657
-0.000478635
0.000490259
-0.00046735
0.000416409
-0.000457137
0.000346863
-0.00044911
0.000282127
-0.000442911
0.00022091
-0.000437648
0.000161688
-0.000432367
0.000104113
-0.00042698
4.6637e-05
-0.000421363
-9.38875e-06
-0.00041651
-6.75159e-05
-0.000412884
-0.000124511
-0.000412328
-0.000188122
-0.000415832
-0.000251214
-0.000426069
-0.000328725
-0.000444072
-0.00040701
-0.000469893
-0.000513249
-0.00049674
-0.000621806
-0.000506198
-0.000764791
-0.000468455
-0.000865523
-0.000345898
-0.000902673
-0.000115969
-0.000645436
-8.18599e-05
-6.41327e-05
0.000161977
-0.000152299
0.000325995
-0.000241929
0.000477955
-0.000319836
0.000604259
-0.000376339
0.000675218
-0.000405912
0.000678965
-0.00041433
0.000630865
-0.000410756
0.000559027
-0.000403172
0.000482544
-0.000396488
0.000409593
-0.000392732
0.000342988
-0.000391132
0.000280374
-0.000390234
0.00021997
-0.000388777
0.000160061
-0.000385872
0.000101272
-0.000381705
4.22448e-05
-0.00037629
-1.46051e-05
-0.000370783
-7.33696e-05
-0.000365419
-0.000129507
-0.00036187
-0.000192209
-0.000360463
-0.000252049
-0.000363881
-0.000326085
-0.000373413
-0.000396689
-0.000392384
-0.000495203
-0.000419257
-0.000594048
-0.000443156
-0.000741384
-0.000438946
-0.000868957
-0.00036542
-0.000976011
-0.000190001
-0.000821189
-0.000271672
-5.83391e-05
0.000220404
-0.000138347
0.000406292
-0.000215546
0.000554939
-0.000278297
0.000667146
-0.000319941
0.000716848
-0.000338815
0.000698141
-0.000342608
0.000634834
-0.00033982
0.000556457
-0.000336902
0.00047976
-0.000336745
0.000409564
-0.000339371
0.000345745
-0.000342931
0.000283989
-0.000345662
0.000222864
-0.000346501
0.000160859
-0.000344849
9.98392e-05
-0.000341224
3.84435e-05
-0.000335753
-1.97521e-05
-0.000329796
-7.96814e-05
-0.000323426
-0.000135386
-0.000318311
-0.000197907
-0.000314068
-0.000255576
-0.000313027
-0.000327994
-0.00031536
-0.000393408
-0.000325383
-0.000486311
-0.000344345
-0.00057405
-0.000369012
-0.00071766
-0.000381584
-0.000855601
-0.000340007
-0.00101738
-0.000209895
-0.000953028
-0.000482433
-4.75826e-05
0.000267918
-0.000115727
0.000474413
-0.000179541
0.000618404
-0.000228744
0.000716235
-0.000259353
0.000747283
-0.000272165
0.000710971
-0.0002752
0.000637746
-0.000275554
0.00055667
-0.00027783
0.000481848
-0.000283149
0.000414673
-0.000290233
0.00035269
-0.000297028
0.000290564
-0.000301888
0.000227698
-0.00030417
0.000162882
-0.000303447
9.92297e-05
-0.000300483
3.5131e-05
-0.00029535
-2.45922e-05
-0.000289577
-8.59545e-05
-0.000283013
-0.000141436
-0.000277469
-0.000204177
-0.000271966
-0.000260288
-0.000268753
-0.000332215
-0.000266772
-0.000394302
-0.000270292
-0.000484077
-0.000280912
-0.000562197
-0.000300272
-0.000699488
-0.000316875
-0.000837867
-0.000293267
-0.00104042
-0.000190053
-0.0010566
-0.000672874
-3.3319e-05
0.000301434
-8.68553e-05
0.000528072
-0.00013654
0.00066798
-0.000173858
0.000753662
-0.000196549
0.000770073
-0.00020677
0.000721525
-0.00021147
0.000642647
-0.000215777
0.000561198
-0.000222546
0.000488803
-0.000231638
0.00042391
-0.000241334
0.00036261
-0.000249863
0.000299162
-0.000255879
0.000233999
-0.000259126
0.000166071
-0.000259218
9.96897e-05
-0.000257088
3.27575e-05
-0.00025264
-2.85456e-05
-0.00024757
-9.14967e-05
-0.00024145
-0.000146863
-0.00023636
-0.000210023
-0.00023077
-0.00026492
-0.000227015
-0.000337058
-0.00022283
-0.000397226
-0.000222217
-0.000486121
-0.000226011
-0.000556977
-0.000239588
-0.000687423
-0.000257024
-0.000819205
-0.000246732
-0.00105054
-0.000167131
-0.00113628
-0.000840462
-1.76504e-05
0.000319138
-5.5639e-05
0.00056586
-9.19445e-05
0.000704086
-0.000119005
0.000780529
-0.000135837
0.0007868
-0.000144827
0.000730468
-0.000151183
0.00064885
-0.000158232
0.000568019
-0.000167417
0.00049778
-0.000178108
0.000434306
-0.000188608
0.000372979
-0.000197705
0.000307933
-0.000204276
0.000240577
-0.00020839
0.00016979
-0.000209521
0.000101009
-0.000208718
3.14417e-05
-0.000205574
-3.12855e-05
-0.000201949
-9.58225e-05
-0.000197023
-0.000151114
-0.000193237
-0.000214757
-0.000188596
-0.000268556
-0.000185801
-0.000341111
-0.00018163
-0.000400024
-0.000179815
-0.000489525
-0.000179417
-0.000555749
-0.000187721
-0.000680833
-0.000203008
-0.000802365
-0.000201977
-0.00105175
-0.000143346
-0.00119442
-0.000984458
-1.27307e-06
0.000320697
-2.30598e-05
0.000587592
-4.61337e-05
0.000727215
-6.41392e-05
0.000798595
-7.6317e-05
0.00079917
-8.48337e-05
0.000739305
-9.27121e-05
0.000656983
-0.000101471
0.000576999
-0.000111546
0.000508125
-0.000122238
0.000445146
-0.000132278
0.000383371
-0.000141071
0.00031678
-0.000147691
0.000247644
-0.00015247
0.000174456
-0.000154675
0.000103769
-0.000155472
3.19027e-05
-0.00015406
-3.1987e-05
-0.000152476
-9.80213e-05
-0.000149397
-0.00015327
-0.000147619
-0.000217472
-0.000144644
-0.000270311
-0.000143696
-0.000343369
-0.000140824
-0.000401322
-0.000140018
-0.000492041
-0.000138596
-0.000555341
-0.000144807
-0.000676601
-0.000159096
-0.000786362
-0.000165346
-0.00104624
-0.000123548
-0.00123534
-0.00110874
1.44625e-05
0.000306358
8.88475e-06
0.000592753
-1.63373e-06
0.000737688
-1.10116e-05
0.000807657
-1.87223e-05
0.000806834
-2.61643e-05
0.000746595
-3.41804e-05
0.00066486
-4.29283e-05
0.000585425
-5.20611e-05
0.000517067
-6.13017e-05
0.000453976
-6.97852e-05
0.000391764
-7.75997e-05
0.000324125
-8.38724e-05
0.000253998
-8.92292e-05
0.000179241
-9.26543e-05
0.000107483
-9.54724e-05
3.39924e-05
-9.63792e-05
-3.05399e-05
-9.75837e-05
-9.77478e-05
-9.71697e-05
-0.000152841
-9.82787e-05
-0.000217563
-9.78612e-05
-0.000269513
-9.975e-05
-0.00034302
-9.93201e-05
-0.000400102
-0.000101104
-0.00049217
-0.000100667
-0.000553751
-0.000106863
-0.000672596
-0.000120969
-0.000770201
-0.00013396
-0.00103446
-0.000107085
-0.00126093
-0.0012167
2.91071e-05
0.000277626
3.95921e-05
0.000582071
4.16433e-05
0.00073586
4.03633e-05
0.000808958
3.70551e-05
0.00081042
3.09297e-05
0.000753002
2.32462e-05
0.000672885
1.52336e-05
0.000593637
7.83837e-06
0.000524857
9.51688e-07
0.000460968
-5.10114e-06
0.000398329
-1.11144e-05
0.000330121
-1.63515e-05
0.000259879
-2.1791e-05
0.000184471
-2.61259e-05
0.000112611
-3.08812e-05
3.82849e-05
-3.42117e-05
-2.62487e-05
-3.8514e-05
-9.42074e-05
-4.1202e-05
-0.000148961
-4.57544e-05
-0.000214126
-4.8486e-05
-0.00026527
-5.39144e-05
-0.000339132
-5.67791e-05
-0.000395322
-6.25361e-05
-0.000488427
-6.52062e-05
-0.000548791
-7.4043e-05
-0.000666208
-8.95662e-05
-0.00075234
-0.000108729
-0.00101707
-9.39905e-05
-0.00127398
-0.00131166
4.12847e-05
0.000236488
6.76447e-05
0.00055507
8.21947e-05
0.000721367
8.99019e-05
0.000800781
9.21368e-05
0.000808194
8.88532e-05
0.000755986
8.30327e-05
0.000678619
7.68663e-05
0.00059935
7.2129e-05
0.000529467
6.81865e-05
0.000464347
6.51001e-05
0.000401419
6.1277e-05
0.000333288
5.74246e-05
0.000263936
5.20984e-05
0.000189
4.69368e-05
0.000118205
4.01496e-05
4.4101e-05
3.41591e-05
-1.95624e-05
2.63557e-05
-8.75983e-05
2.00545e-05
-0.000141647
1.14426e-05
-0.000207001
4.91502e-06
-0.000257323
-4.75414e-06
-0.000331329
-1.15969e-05
-0.00038655
-2.22059e-05
-0.000480132
-2.91773e-05
-0.000539353
-4.25164e-05
-0.000655648
-6.10254e-05
-0.000731112
-8.70676e-05
-0.000993373
-8.33893e-05
-0.00127552
-0.00139616
4.9949e-05
0.00018702
9.15631e-05
0.000513214
0.00011906
0.000694228
0.000135605
0.000784262
0.000143763
0.000800402
0.000143754
0.000756231
0.000139986
0.000682857
0.000135753
0.000603725
0.000133614
0.000532168
0.000132802
0.000465158
0.000133128
0.000401806
0.00013221
0.000334039
0.000130589
0.000266438
0.000126243
0.00019297
0.000121055
0.000124445
0.000112902
5.1626e-05
0.000104792
-1.02087e-05
9.3859e-05
-7.75931e-05
8.41573e-05
-0.000130452
7.14932e-05
-0.000195636
6.10097e-05
-0.000244995
4.67253e-05
-0.000318815
3.53661e-05
-0.000372868
1.90518e-05
-0.000466172
6.58486e-06
-0.000524014
-1.29931e-05
-0.00063911
-3.56748e-05
-0.000705198
-6.88133e-05
-0.000963191
-7.4646e-05
-0.00126696
-0.00147209
5.30386e-05
0.000134101
0.000109549
0.000455846
0.000150558
0.000653303
0.000178233
0.000755899
0.000194736
0.000783961
0.000200529
0.000749921
0.000200823
0.000682579
0.000199369
0.000604545
0.000200041
0.000531501
0.000202013
0.000462405
0.000205444
0.000398538
0.000207194
0.000331387
0.000207798
0.000266218
0.000204544
0.00019517
0.000199594
0.000130012
0.000190354
5.9622e-05
0.000180417
5.97467e-07
0.000166556
-6.52216e-05
0.000153557
-0.000116268
0.000136793
-0.000180684
0.000122177
-0.000228762
0.000102943
-0.000301828
8.66253e-05
-0.000354341
6.39449e-05
-0.000446326
4.50983e-05
-0.000502206
1.76694e-05
-0.000615296
-1.07186e-05
-0.000673157
-5.22607e-05
-0.000925484
-6.71166e-05
-0.00124877
-0.00154079
4.95868e-05
8.52013e-05
0.000119056
0.000386256
0.00017417
0.000598726
0.000212558
0.000717634
0.000237777
0.000759219
0.00025002
0.000737861
0.000254958
0.000678283
0.000256796
0.000602734
0.000260297
0.000528803
0.000265015
0.000457496
0.000271569
0.000392951
0.000276321
0.000326231
0.000279793
0.000263896
0.000278532
0.000195813
0.000274909
0.000134971
0.000265763
6.79177e-05
0.000255197
1.27141e-05
0.000239555
-5.07086e-05
0.000224262
-9.91432e-05
0.000204191
-0.000162107
0.000185925
-0.000208259
0.000161873
-0.000279769
0.000140371
-0.000330015
0.000110735
-0.000419403
8.47056e-05
-0.000472514
4.81008e-05
-0.000582474
1.31438e-05
-0.000633592
-3.75402e-05
-0.000879343
-6.03673e-05
-0.00122155
-0.00160302
4.01821e-05
4.50948e-05
0.000118849
0.00030637
0.000188028
0.000529687
0.000240416
0.000664165
0.000278192
0.000721585
0.000300881
0.000714303
0.000313987
0.000665359
0.000321021
0.000594809
0.000328097
0.000521964
0.000335101
0.000449446
0.0003439
0.00038456
0.000350638
0.000318296
0.000356301
0.000258858
0.000356651
0.000194112
0.000354431
0.000138026
0.000345713
7.50914e-05
0.000335092
2.43925e-05
0.000318278
-3.56987e-05
0.000301254
-8.07649e-05
0.000278251
-0.000141267
0.000256466
-0.000184684
0.00022746
-0.00025345
0.000200367
-0.00030047
0.000163083
-0.000385614
0.000128929
-0.000434874
8.1558e-05
-0.000539932
3.8682e-05
-0.000585813
-2.29001e-05
-0.000823889
-5.34781e-05
-0.00118573
-0.00165908
2.97262e-05
1.6183e-05
0.000108747
0.00022752
0.00018934
0.000449903
0.000252379
0.00060151
0.000301559
0.000673016
0.000335333
0.000680683
0.000358436
0.000643119
0.000373479
0.000579605
0.000386511
0.000510055
0.000397634
0.000437854
0.000409799
0.000373708
0.000419213
0.000308166
0.000427683
0.000251876
0.000430348
0.000190529
0.000430408
0.000139646
0.000423227
8.11508e-05
0.000413744
3.57901e-05
0.000397062
-2.03873e-05
0.000379476
-6.0941e-05
0.000354622
-0.000118123
0.00033004
-0.000157387
0.000296487
-0.000222108
0.000263688
-0.000264195
0.000218203
-0.000343173
0.000175087
-0.000387006
0.000115664
-0.000485134
6.41624e-05
-0.00052761
-9.37542e-06
-0.000757056
-4.6294e-05
-0.00114144
-0.00170838
1.87106e-05
-2.70887e-06
8.88972e-05
0.00015575
0.000175704
0.000363144
0.000252823
0.000522689
0.000318245
0.000607762
0.000367982
0.000629513
0.000405992
0.000605518
0.000432577
0.000551761
0.00045433
0.00048892
0.000471007
0.000419818
0.000487116
0.000358385
0.000498967
0.000294795
0.00050976
0.000242023
0.000514193
0.000184419
0.000516211
0.000138711
0.000510431
8.50693e-05
0.000502193
4.52806e-05
0.000485778
-6.09386e-06
0.00046779
-4.14519e-05
0.000440996
-9.38385e-05
0.000413334
-0.000127821
0.00037458
-0.000186497
0.000335267
-0.000222284
0.000280618
-0.000292822
0.000227619
-0.000330108
0.000155031
-0.000419088
9.44856e-05
-0.000460755
7.5319e-06
-0.000679902
-3.57983e-05
-0.00108988
-0.00174893
1.66217e-05
-1.91301e-05
6.63499e-05
0.00010751
0.000146245
0.000283948
0.000225826
0.000444538
0.00030139
0.000532835
0.000366966
0.000564269
0.000422637
0.000550964
0.00046644
0.000507543
0.000502949
0.00045396
0.000530821
0.00039112
0.000555605
0.000335379
0.000573317
0.000276029
0.000588833
0.000228452
0.000596609
0.000175425
0.000601602
0.000135854
0.000597974
8.72981e-05
0.000591467
5.41864e-05
0.000575814
7.9065e-06
0.00055772
-2.05757e-05
0.000529427
-6.75571e-05
0.00049894
-9.39452e-05
0.00045547
-0.000145566
0.000409871
-0.000172265
0.000346298
-0.000232699
0.000283126
-0.000260632
0.000196998
-0.000338388
0.000126935
-0.000381031
2.58323e-05
-0.000588058
-2.1394e-05
-0.00102961
-0.00177592
2.61116e-06
-2.12325e-05
3.15092e-05
7.63545e-05
9.81753e-05
0.000217376
0.000184821
0.000355073
0.000276487
0.000441196
0.000360612
0.000477852
0.000437216
0.000474995
0.000500211
0.000442767
0.000554359
0.000400882
0.000596085
0.00034764
0.000631965
0.000300721
0.000657694
0.000248402
0.000679288
0.000208124
0.000691398
0.000161267
0.000699738
0.000128825
0.000698333
8.64856e-05
0.000693382
6.05435e-05
0.000677985
2.08483e-05
0.000659362
-3.58423e-07
0.000628612
-3.96487e-05
0.000594717
-5.81301e-05
0.000545156
-9.95933e-05
0.000492704
-0.000117293
0.000419097
-0.000164263
0.000346774
-0.000184481
0.000249235
-0.000249442
0.000173868
-0.00029886
6.29651e-05
-0.000492329
9.70357e-06
-0.000964798
-0.00177659
1.66596e-05
-4.13644e-05
6.02648e-06
9.09975e-05
2.93712e-05
0.000194129
9.78739e-05
0.00029058
0.000191576
0.000348435
0.000294196
0.000376333
0.000394214
0.000376359
0.00048256
0.000353807
0.000560594
0.000324801
0.000622912
0.000284099
0.00067616
0.000249731
0.000715197
0.000208003
0.000747522
0.000178248
0.000767079
0.00014026
0.000781463
0.000117113
0.000783535
8.27652e-05
0.000781423
6.56563e-05
0.000766611
3.364e-05
0.000748287
2.14856e-05
0.000715836
-9.79798e-06
0.000680273
-1.81839e-05
0.000627744
-5.04992e-05
0.000572993
-5.66322e-05
0.000497077
-9.29214e-05
0.000423588
-0.000102284
0.000324193
-0.000156409
0.000244806
-0.00020597
0.000124337
-0.000383146
6.32253e-05
-0.000875995
-0.00172167
-7.77876e-05
4.69265e-05
-6.98205e-05
7.84024e-05
-4.5681e-05
0.000170302
1.72588e-05
0.000221024
0.000127064
0.000237844
0.00024249
0.000257204
0.00036201
0.000257514
0.000469163
0.000244301
0.000566532
0.000228754
0.000645772
0.000202647
0.000714176
0.000182707
0.000765209
0.000154574
0.000807686
0.00013708
0.000834587
0.00011076
0.000855281
9.77226e-05
0.000861479
7.37525e-05
0.00086348
6.50609e-05
0.000851021
4.3026e-05
0.00083623
3.78769e-05
0.000805676
1.72943e-05
0.000774859
1.44882e-05
0.000725128
-4.94642e-06
0.000678252
-7.58762e-06
0.000606896
-2.74683e-05
0.000544579
-3.75271e-05
0.000451232
-7.34851e-05
0.000381765
-0.000135137
0.000283126
-0.000305969
0.00019977
-0.00078411
-0.00155664
-0.000285789
0.000309429
-0.00033827
0.000140261
-0.000316675
0.000149996
-0.000210398
0.000122553
-8.45075e-05
0.000113733
6.13129e-05
0.000113526
0.000204203
0.000115942
0.000335721
0.000111897
0.000457636
0.000108626
0.000558972
9.95665e-05
0.000651231
9.27125e-05
0.000722636
8.14048e-05
0.000788007
7.43166e-05
0.000834027
6.30018e-05
0.000877585
5.7137e-05
0.000902645
4.67551e-05
0.000928864
4.23226e-05
0.000936295
3.31575e-05
0.000948592
2.98485e-05
0.000940652
2.19264e-05
0.000941507
1.92152e-05
0.000919683
1.2247e-05
0.000910795
9.25106e-06
0.000876255
7.75474e-07
0.000857799
-6.34508e-06
0.000810336
-3.26737e-05
0.000772056
-7.18466e-05
0.000682981
-0.000213014
0.000471021
-0.000481927
-0.0010468
0.000328991
0.000455649
0.000607371
0.000726403
0.000839151
0.000949859
0.00106691
0.00117689
0.00128726
0.00138493
0.0014795
0.00155882
0.00163499
0.00169566
0.00175477
0.00179889
0.00184348
0.00187359
0.00190614
0.0019245
0.00194695
0.00195489
0.00196775
0.00196292
0.00195914
0.00191697
0.00184127
0.00160768
0.00114009
)
;

boundaryField
{
    movingWall
    {
        type            calculated;
        value           uniform 0;
    }
    fixedWalls
    {
        type            calculated;
        value           uniform 0;
    }
    frontAndBack
    {
        type            empty;
    }
}


// ************************************************************************* //
