/*--------------------------------*- C++ -*----------------------------------*\
| =========                 |                                                 |
| \\      /  F ield         | OpenFOAM: The Open Source CFD Toolbox           |
|  \\    /   O peration     | Version:  2406                                  |
|   \\  /    A nd           | Website:  www.openfoam.com                      |
|    \\/     M anipulation  |                                                 |
\*---------------------------------------------------------------------------*/
FoamFile
{
    version     2.0;
    format      ascii;
    arch        "LSB;label=32;scalar=64";
    class       volScalarField;
    location    "27.1";
    object      p;
}
// * * * * * * * * * * * * * * * * * * * * * * * * * * * * * * * * * * * * * //

dimensions      [0 2 -2 0 0 0 0];

internalField   nonuniform List<scalar> 
14400
(
0.0382307
0.03824
0.0382465
0.038254
0.0382532
0.0382482
0.0382342
0.0382146
0.0381874
0.038155
0.0381171
0.0380754
0.0380298
0.0379815
0.0379306
0.0378775
0.0378219
0.0377639
0.0377029
0.0376385
0.03757
0.0374967
0.0374178
0.0373325
0.0372401
0.0371398
0.0370309
0.0369127
0.0367846
0.0366462
0.0364969
0.0363363
0.0361642
0.0359804
0.0357848
0.0355778
0.0353596
0.0351312
0.0348935
0.0346479
0.0343962
0.0341408
0.0338842
0.0336297
0.0333808
0.0331415
0.0329162
0.0327096
0.0325268
0.0323729
0.032253
0.0321723
0.0321357
0.0321478
0.0322127
0.0323338
0.0325136
0.0327538
0.033055
0.0334162
0.0338356
0.0343094
0.0348328
0.0353991
0.0360003
0.0366268
0.037268
0.0379118
0.0385454
0.0391555
0.0397285
0.0402507
0.0407096
0.0410932
0.0413914
0.0415959
0.0417009
0.0417032
0.0416025
0.0414012
0.0411049
0.0407218
0.0402621
0.0397384
0.0391641
0.0385538
0.0379218
0.0372823
0.0366483
0.0360315
0.0354417
0.0348871
0.0343734
0.0339048
0.0334834
0.0331095
0.0327824
0.0324998
0.0322589
0.0320562
0.0318878
0.0317499
0.0316385
0.0315499
0.0314806
0.0314275
0.0313877
0.031359
0.0313389
0.0313263
0.0313191
0.0313175
0.0313192
0.0313258
0.0313345
0.0313482
0.031362
0.0313795
0.0313921
0.0314021
0.0382214
0.0382307
0.0382331
0.0382374
0.0382335
0.038227
0.0382124
0.0381934
0.0381676
0.0381373
0.0381018
0.0380628
0.0380199
0.0379744
0.037926
0.0378752
0.0378219
0.0377659
0.0377069
0.0376444
0.0375779
0.0375067
0.0374302
0.0373476
0.0372583
0.0371615
0.0370567
0.0369433
0.0368205
0.036688
0.0365451
0.0363916
0.0362272
0.0360515
0.0358646
0.0356666
0.0354578
0.0352388
0.0350106
0.0347745
0.034532
0.0342853
0.0340368
0.0337894
0.0335465
0.033312
0.03309
0.0328852
0.0327022
0.0325462
0.0324222
0.0323353
0.0322903
0.0322919
0.0323441
0.0324505
0.0326136
0.0328352
0.0331161
0.0334556
0.0338519
0.0343016
0.0348001
0.035341
0.0359165
0.0365176
0.0371338
0.0377534
0.038364
0.0389525
0.0395056
0.0400102
0.0404538
0.0408247
0.0411131
0.0413108
0.0414122
0.0414142
0.0413163
0.0411213
0.0408345
0.0404639
0.0400198
0.0395142
0.0389605
0.0383726
0.0377647
0.0371502
0.0365417
0.0359502
0.0353853
0.0348542
0.0343625
0.0339139
0.03351
0.0331512
0.0328364
0.0325636
0.03233
0.0321321
0.0319665
0.0318295
0.0317173
0.0316268
0.0315545
0.0314977
0.0314537
0.0314207
0.0313961
0.0313791
0.0313675
0.0313616
0.031359
0.0313613
0.031365
0.0313738
0.0313817
0.0313943
0.0314017
0.031412
0.0382147
0.0382282
0.0382307
0.0382361
0.0382318
0.0382254
0.0382105
0.0381915
0.0381656
0.0381355
0.0381003
0.0380617
0.0380195
0.0379747
0.0379273
0.0378776
0.0378255
0.0377709
0.0377133
0.0376524
0.0375876
0.0375182
0.0374436
0.0373631
0.037276
0.0371816
0.0370793
0.0369685
0.0368485
0.0367189
0.0365791
0.0364286
0.0362671
0.0360944
0.0359101
0.0357145
0.0355077
0.0352902
0.0350628
0.0348266
0.0345833
0.0343346
0.0340831
0.0338316
0.0335835
0.0333426
0.0331131
0.0328997
0.0327072
0.0325409
0.032406
0.0323078
0.0322513
0.0322413
0.0322821
0.0323774
0.03253
0.0327419
0.0330139
0.0333455
0.033735
0.0341793
0.0346734
0.0352114
0.0357853
0.0363861
0.0370032
0.037625
0.0382388
0.0388315
0.0393895
0.0398995
0.0403488
0.0407254
0.0410193
0.041222
0.0413277
0.0413329
0.0412373
0.0410434
0.0407567
0.0403852
0.0399394
0.0394316
0.0388755
0.0382855
0.0376759
0.0370605
0.0364523
0.0358625
0.0353005
0.0347737
0.0342877
0.0338458
0.0334495
0.0330989
0.0327926
0.0325281
0.0323025
0.0321122
0.0319534
0.0318223
0.0317152
0.0316289
0.0315599
0.0315058
0.0314636
0.0314318
0.0314079
0.0313912
0.0313794
0.0313731
0.0313696
0.0313711
0.0313736
0.0313817
0.0313883
0.0314019
0.0314091
0.0314249
0.0382067
0.0382236
0.0382252
0.0382306
0.038225
0.038218
0.0382024
0.0381833
0.0381575
0.0381281
0.0380938
0.0380566
0.0380159
0.037973
0.0379276
0.0378802
0.0378304
0.0377783
0.0377234
0.0376653
0.0376034
0.0375372
0.0374659
0.037389
0.0373057
0.0372155
0.0371176
0.0370115
0.0368965
0.036772
0.0366375
0.0364924
0.0363362
0.0361684
0.0359888
0.0357971
0.0355933
0.0353779
0.0351512
0.0349144
0.0346686
0.0344157
0.0341581
0.0338985
0.0336402
0.0333873
0.0331439
0.0329149
0.0327054
0.0325208
0.0323667
0.0322485
0.0321715
0.0321408
0.032161
0.0322358
0.0323684
0.0325608
0.032814
0.0331278
0.0335005
0.0339291
0.0344089
0.034934
0.0354966
0.0360878
0.0366971
0.0373131
0.037923
0.0385139
0.0390721
0.0395842
0.0400373
0.0404194
0.04072
0.0409306
0.0410449
0.0410593
0.0409731
0.0407887
0.0405112
0.0401488
0.0397119
0.0392129
0.0386656
0.0380845
0.0374842
0.0368788
0.0362813
0.035703
0.0351535
0.0346403
0.0341685
0.0337415
0.0333604
0.0330251
0.0327337
0.0324836
0.0322714
0.0320933
0.0319453
0.0318236
0.0317243
0.0316442
0.03158
0.0315294
0.0314895
0.031459
0.0314355
0.0314185
0.0314058
0.0313982
0.0313927
0.0313922
0.0313919
0.031398
0.0314014
0.0314148
0.0314204
0.0314419
0.038206
0.0382264
0.0382284
0.0382352
0.0382292
0.0382222
0.0382058
0.0381863
0.0381598
0.03813
0.0380954
0.0380583
0.0380182
0.0379761
0.0379319
0.0378861
0.0378382
0.0377884
0.0377359
0.0376805
0.0376215
0.0375582
0.03749
0.0374162
0.0373361
0.037249
0.0371542
0.0370511
0.0369388
0.0368168
0.0366842
0.0365402
0.0363843
0.0362156
0.0360336
0.0358379
0.0356283
0.0354048
0.0351678
0.0349181
0.034657
0.0343864
0.0341087
0.0338268
0.0335446
0.0332661
0.0329961
0.0327399
0.032503
0.0322912
0.0321105
0.0319668
0.0318655
0.0318121
0.0318112
0.0318668
0.0319822
0.0321594
0.0323994
0.032702
0.0330657
0.0334874
0.0339625
0.034485
0.0350475
0.0356408
0.0362546
0.0368775
0.0374968
0.0380993
0.0386713
0.0391991
0.0396697
0.0400705
0.0403907
0.0406212
0.0407552
0.0407885
0.04072
0.0405515
0.040288
0.0399373
0.0395097
0.0390178
0.0384756
0.037898
0.0373
0.0366962
0.0361002
0.0355238
0.0349771
0.0344678
0.0340015
0.0335815
0.0332092
0.0328842
0.0326044
0.0323668
0.0321678
0.0320031
0.0318682
0.0317591
0.0316716
0.0316023
0.0315476
0.0315052
0.0314723
0.0314475
0.0314285
0.031415
0.0314048
0.031399
0.0313944
0.0313947
0.0313942
0.0314009
0.031404
0.0314196
0.0314256
0.0314535
0.0382087
0.0382313
0.038233
0.0382401
0.0382331
0.0382255
0.0382079
0.0381875
0.0381603
0.0381301
0.0380955
0.0380589
0.0380196
0.0379789
0.0379365
0.0378928
0.0378475
0.0378005
0.0377512
0.0376991
0.0376435
0.0375839
0.0375193
0.0374492
0.0373727
0.0372891
0.0371976
0.0370973
0.0369875
0.036867
0.0367349
0.0365902
0.0364318
0.0362588
0.0360701
0.035865
0.0356431
0.0354042
0.0351486
0.0348771
0.034591
0.0342925
0.0339843
0.0336699
0.0333533
0.0330393
0.0327332
0.0324408
0.032168
0.0319212
0.0317065
0.0315301
0.0313978
0.031315
0.0312865
0.0313163
0.0314076
0.0315625
0.0317822
0.0320664
0.0324136
0.0328209
0.0332839
0.0337968
0.0343524
0.0349418
0.035555
0.0361807
0.0368065
0.0374193
0.0380055
0.0385514
0.0390435
0.0394692
0.0398171
0.0400774
0.0402427
0.0403081
0.0402717
0.0401346
0.0399009
0.0395781
0.039176
0.0387069
0.0381848
0.0376247
0.0370418
0.0364512
0.0358668
0.0353009
0.0347642
0.0342648
0.0338087
0.0333995
0.0330387
0.032726
0.0324593
0.0322356
0.0320509
0.0319006
0.03178
0.0316848
0.0316103
0.031553
0.0315091
0.0314762
0.0314513
0.0314333
0.0314197
0.0314106
0.0314033
0.0313998
0.0313963
0.0313974
0.0313966
0.0314036
0.0314058
0.0314226
0.0314285
0.0314613
0.0382192
0.0382435
0.0382453
0.0382526
0.0382448
0.0382363
0.0382174
0.0381958
0.0381672
0.0381361
0.0381008
0.038064
0.038025
0.0379851
0.0379441
0.0379023
0.0378593
0.0378149
0.0377685
0.0377195
0.0376671
0.0376106
0.0375491
0.0374817
0.0374075
0.0373257
0.0372352
0.0371348
0.0370234
0.0368998
0.0367625
0.03661
0.0364409
0.0362538
0.0360474
0.0358207
0.0355731
0.0353045
0.0350151
0.0347062
0.0343796
0.0340378
0.0336842
0.033323
0.0329591
0.0325979
0.0322452
0.0319074
0.031591
0.0313025
0.0310484
0.0308351
0.0306683
0.0305534
0.0304953
0.0304979
0.0305642
0.0306965
0.0308958
0.0311619
0.0314934
0.0318876
0.0323402
0.0328459
0.0333975
0.0339867
0.0346038
0.0352378
0.0358767
0.0365075
0.0371168
0.0376908
0.0382159
0.0386791
0.0390683
0.0393731
0.0395852
0.0396986
0.0397104
0.0396204
0.039432
0.0391514
0.038788
0.0383534
0.0378614
0.0373269
0.0367655
0.0361924
0.0356222
0.035068
0.0345408
0.0340496
0.0336011
0.0331993
0.0328464
0.0325422
0.0322851
0.032072
0.0318988
0.031761
0.0316536
0.0315717
0.0315106
0.0314663
0.0314348
0.0314134
0.0313989
0.0313901
0.0313844
0.0313819
0.0313802
0.0313811
0.0313809
0.0313846
0.0313855
0.0313942
0.031397
0.0314159
0.0314223
0.0314592
0.0382352
0.03826
0.0382613
0.0382681
0.0382589
0.038249
0.0382283
0.0382051
0.038175
0.0381428
0.0381069
0.03807
0.0380314
0.0379926
0.0379531
0.0379134
0.0378729
0.0378313
0.0377879
0.0377419
0.0376925
0.0376388
0.0375797
0.0375142
0.0374411
0.0373592
0.0372672
0.0371636
0.0370467
0.0369148
0.0367659
0.0365982
0.0364096
0.0361985
0.0359633
0.0357029
0.0354168
0.035105
0.0347684
0.0344087
0.0340284
0.0336309
0.0332204
0.0328019
0.032381
0.0319637
0.0315566
0.0311662
0.0307995
0.0304631
0.0301636
0.0299073
0.0296999
0.0295469
0.0294528
0.0294216
0.0294562
0.0295588
0.0297305
0.0299711
0.0302796
0.0306533
0.0310885
0.0315801
0.0321217
0.0327053
0.0333219
0.033961
0.0346112
0.03526
0.0358942
0.0365004
0.0370648
0.0375741
0.0380159
0.0383788
0.0386536
0.0388331
0.0389128
0.0388912
0.0387701
0.0385544
0.0382522
0.0378741
0.0374332
0.036944
0.0364219
0.0358824
0.0353405
0.0348097
0.0343018
0.0338266
0.0333913
0.0330011
0.0326584
0.0323638
0.0321161
0.0319127
0.0317496
0.0316224
0.0315261
0.0314557
0.0314064
0.0313738
0.0313537
0.0313432
0.0313388
0.0313392
0.0313416
0.0313462
0.0313503
0.0313561
0.0313596
0.0313663
0.0313691
0.0313794
0.0313828
0.031403
0.0314095
0.0314486
0.0382591
0.038284
0.0382846
0.0382905
0.0382798
0.0382681
0.0382453
0.0382201
0.0381882
0.0381545
0.0381176
0.0380802
0.0380417
0.0380036
0.0379654
0.0379274
0.0378889
0.0378496
0.0378085
0.0377648
0.0377174
0.0376651
0.0376066
0.0375406
0.0374655
0.0373797
0.0372813
0.0371683
0.0370385
0.0368894
0.0367187
0.0365239
0.0363028
0.0360532
0.0357739
0.0354637
0.0351227
0.0347515
0.0343517
0.0339261
0.033478
0.0330118
0.0325326
0.0320463
0.0315591
0.0310776
0.0306088
0.0301595
0.0297367
0.0293473
0.0289978
0.0286943
0.0284425
0.0282476
0.0281141
0.0280457
0.0280454
0.0281153
0.0282563
0.0284687
0.0287513
0.0291021
0.0295175
0.029993
0.0305228
0.0310996
0.0317151
0.0323596
0.0330223
0.0336915
0.0343546
0.0349984
0.0356094
0.0361742
0.03668
0.0371147
0.0374679
0.037731
0.037898
0.0379655
0.0379334
0.0378047
0.0375856
0.0372854
0.0369158
0.0364905
0.0360245
0.0355333
0.0350319
0.0345347
0.034054
0.0336007
0.0331828
0.0328062
0.0324746
0.0321893
0.0319497
0.0317538
0.0315981
0.0314787
0.0313906
0.0313291
0.0312892
0.0312664
0.0312563
0.0312557
0.031261
0.0312705
0.0312814
0.0312937
0.0313045
0.0313161
0.0313244
0.0313351
0.0313407
0.0313533
0.0313582
0.0313796
0.0313866
0.0314266
0.0382897
0.038314
0.0383136
0.0383178
0.038305
0.038291
0.0382659
0.0382384
0.0382045
0.0381692
0.0381312
0.0380932
0.0380549
0.0380174
0.0379802
0.0379437
0.0379069
0.0378694
0.0378299
0.0377874
0.0377405
0.0376877
0.0376274
0.0375576
0.0374765
0.0373816
0.0372706
0.0371406
0.0369888
0.0368122
0.0366078
0.0363729
0.0361049
0.0358021
0.0354633
0.0350881
0.0346772
0.0342323
0.0337561
0.0332522
0.0327253
0.0321806
0.0316241
0.0310623
0.030502
0.0299502
0.0294141
0.0289009
0.0284173
0.0279704
0.0275664
0.0272113
0.0269106
0.0266694
0.0264918
0.0263815
0.0263412
0.026373
0.0264779
0.0266562
0.026907
0.0272285
0.0276178
0.0280708
0.0285823
0.0291461
0.0297546
0.0303991
0.0310699
0.0317561
0.0324459
0.0331271
0.0337865
0.034411
0.0349875
0.0355037
0.035948
0.0363106
0.0365837
0.0367618
0.0368424
0.0368261
0.0367169
0.0365216
0.0362501
0.0359147
0.0355292
0.0351086
0.034668
0.0342218
0.0337834
0.0333642
0.0329736
0.0326184
0.0323033
0.0320307
0.0318011
0.0316131
0.0314643
0.0313509
0.0312688
0.0312134
0.03118
0.0311641
0.0311613
0.0311682
0.0311812
0.0311983
0.0312165
0.0312356
0.0312526
0.0312696
0.0312825
0.0312969
0.0313055
0.0313201
0.0313263
0.0313483
0.0313556
0.0313949
0.0383288
0.0383519
0.0383502
0.0383523
0.0383373
0.0383205
0.0382929
0.0382627
0.0382266
0.0381894
0.0381501
0.0381113
0.0380727
0.0380354
0.0379989
0.0379631
0.0379271
0.0378901
0.0378507
0.0378074
0.0377585
0.0377021
0.0376359
0.0375574
0.0374639
0.0373525
0.0372198
0.0370623
0.0368765
0.0366588
0.036406
0.0361151
0.035784
0.0354113
0.0349966
0.0345406
0.034045
0.0335127
0.0329476
0.0323545
0.0317391
0.0311074
0.0304664
0.0298229
0.0291842
0.0285578
0.0279508
0.0273704
0.0268237
0.0263171
0.0258569
0.0254488
0.0250981
0.0248093
0.0245866
0.0244332
0.0243517
0.024344
0.0244111
0.0245532
0.0247698
0.0250593
0.0254191
0.0258459
0.0263352
0.0268815
0.0274783
0.028118
0.0287921
0.0294908
0.0302036
0.0309191
0.0316252
0.0323093
0.0329588
0.033561
0.0341039
0.0345764
0.0349692
0.0352746
0.0354877
0.0356062
0.0356311
0.0355664
0.0354194
0.0351999
0.03492
0.0345936
0.0342351
0.033859
0.0334791
0.0331077
0.0327552
0.0324299
0.0321377
0.0318822
0.0316652
0.0314864
0.0313442
0.0312359
0.031158
0.0311064
0.0310768
0.0310651
0.031067
0.0310791
0.0310976
0.0311205
0.0311445
0.0311693
0.0311918
0.0312138
0.0312312
0.0312493
0.0312609
0.0312776
0.0312855
0.0313076
0.0313152
0.0313528
0.0383761
0.0383972
0.0383939
0.0383932
0.0383757
0.0383558
0.0383253
0.0382924
0.0382539
0.0382147
0.038174
0.0381342
0.0380951
0.0380576
0.0380209
0.037985
0.0379487
0.0379106
0.0378692
0.0378225
0.0377682
0.0377038
0.0376264
0.0375326
0.0374189
0.0372814
0.0371161
0.0369187
0.036685
0.0364114
0.0360944
0.0357316
0.0353215
0.0348634
0.0343582
0.0338078
0.0332153
0.0325849
0.0319217
0.0312316
0.0305211
0.0297973
0.0290675
0.0283391
0.0276199
0.0269172
0.0262385
0.0255907
0.0249808
0.024415
0.0238992
0.0234389
0.0230388
0.0227032
0.0224356
0.0222391
0.022116
0.0220679
0.0220958
0.0221997
0.0223793
0.0226331
0.0229592
0.0233546
0.0238157
0.0243378
0.0249155
0.0255423
0.0262111
0.0269134
0.0276403
0.0283816
0.0291267
0.0298639
0.0305814
0.031267
0.0319086
0.0324947
0.0330143
0.0334583
0.033819
0.0340915
0.0342732
0.0343647
0.0343698
0.0342952
0.0341502
0.0339465
0.0336971
0.0334159
0.0331166
0.0328121
0.0325139
0.0322316
0.0319726
0.0317421
0.0315433
0.0313773
0.0312439
0.0311414
0.0310672
0.0310181
0.0309903
0.0309803
0.0309841
0.0309986
0.0310199
0.0310461
0.0310738
0.0311025
0.0311289
0.0311546
0.0311755
0.0311965
0.0312107
0.0312289
0.0312381
0.0312598
0.0312675
0.0313022
0.0384328
0.0384511
0.0384461
0.0384422
0.0384219
0.0383986
0.0383652
0.0383292
0.0382882
0.0382468
0.0382044
0.0381633
0.0381231
0.0380845
0.0380468
0.0380094
0.0379708
0.0379293
0.0378829
0.0378289
0.0377644
0.0376861
0.0375901
0.0374723
0.0373281
0.0371528
0.0369416
0.0366896
0.0363925
0.0360467
0.0356492
0.0351983
0.0346935
0.0341357
0.033527
0.0328707
0.0321713
0.0314345
0.0306665
0.0298742
0.0290649
0.0282466
0.0274268
0.0266136
0.0258148
0.0250378
0.0242899
0.0235781
0.0229088
0.022288
0.021721
0.0212129
0.0207678
0.0203895
0.0200812
0.0198453
0.0196837
0.0195977
0.0195882
0.0196551
0.019798
0.0200157
0.0203064
0.0206679
0.021097
0.0215899
0.0221423
0.0227489
0.0234036
0.0240999
0.0248301
0.0255858
0.0263579
0.0271363
0.0279106
0.0286694
0.0294015
0.0300952
0.0307392
0.031323
0.0318371
0.0322736
0.0326269
0.0328938
0.033074
0.03317
0.0331877
0.0331353
0.0330233
0.032864
0.0326701
0.0324547
0.03223
0.0320067
0.0317938
0.0315985
0.0314255
0.0312779
0.0311568
0.0310621
0.0309923
0.0309454
0.0309184
0.0309084
0.0309121
0.0309266
0.0309484
0.0309756
0.0310048
0.0310354
0.0310641
0.0310922
0.0311155
0.0311385
0.0311547
0.0311738
0.0311841
0.031205
0.0312126
0.0312438
0.038499
0.0385138
0.0385067
0.0384989
0.0384758
0.0384488
0.0384123
0.0383731
0.0383297
0.0382859
0.0382415
0.0381985
0.0381565
0.038116
0.0380758
0.0380351
0.0379917
0.0379437
0.0378882
0.0378219
0.037741
0.0376413
0.0375178
0.0373654
0.0371786
0.036952
0.0366801
0.036358
0.0359815
0.0355475
0.0350539
0.0345004
0.0338878
0.0332184
0.0324961
0.0317257
0.0309132
0.0300653
0.0291895
0.0282937
0.0273859
0.0264746
0.0255678
0.0246738
0.0238002
0.0229547
0.0221441
0.0213751
0.0206535
0.0199848
0.0193738
0.0188247
0.0183413
0.0179265
0.017583
0.0173126
0.0171169
0.0169968
0.0169527
0.0169845
0.0170918
0.0172734
0.0175279
0.0178532
0.0182469
0.0187059
0.0192267
0.0198051
0.0204366
0.0211158
0.0218367
0.0225928
0.0233766
0.0241801
0.0249943
0.0258099
0.0266165
0.0274035
0.02816
0.028875
0.0295379
0.0301389
0.0306695
0.031123
0.0314947
0.031783
0.0319887
0.0321159
0.0321712
0.0321639
0.0321046
0.0320053
0.0318782
0.0317349
0.0315857
0.0314397
0.0313036
0.0311827
0.0310799
0.030997
0.030934
0.0308903
0.030864
0.0308532
0.0308553
0.0308679
0.030888
0.0309139
0.0309424
0.0309727
0.0310017
0.0310303
0.0310546
0.0310783
0.0310955
0.0311148
0.0311255
0.0311451
0.0311524
0.0311797
0.0385754
0.0385858
0.0385765
0.0385645
0.0385384
0.0385074
0.038468
0.0384254
0.0383793
0.0383328
0.038286
0.0382404
0.0381957
0.0381518
0.0381072
0.0380605
0.0380092
0.0379504
0.0378806
0.0377955
0.0376904
0.0375597
0.0373978
0.0371984
0.0369553
0.0366624
0.0363142
0.0359059
0.0354342
0.0348968
0.0342932
0.0336245
0.0328932
0.0321035
0.0312607
0.0303714
0.0294428
0.028483
0.0275003
0.0265036
0.0255015
0.0245028
0.023516
0.022549
0.0216096
0.0207049
0.0198414
0.0190251
0.0182612
0.0175545
0.016909
0.0163283
0.0158152
0.0153721
0.015001
0.0147032
0.0144797
0.014331
0.0142573
0.0142582
0.0143331
0.014481
0.0147005
0.0149899
0.0153472
0.0157699
0.0162552
0.0168
0.0174007
0.0180534
0.0187536
0.0194963
0.0202761
0.0210867
0.0219214
0.0227727
0.0236321
0.0244906
0.0253386
0.0261657
0.0269613
0.0277147
0.0284155
0.0290542
0.0296226
0.0301144
0.0305256
0.0308549
0.0311041
0.0312777
0.0313831
0.0314295
0.0314277
0.0313893
0.0313255
0.0312467
0.0311622
0.0310791
0.0310031
0.030938
0.0308859
0.0308478
0.0308234
0.030812
0.0308118
0.0308213
0.0308382
0.0308609
0.0308867
0.0309148
0.0309423
0.0309697
0.0309934
0.0310166
0.0310337
0.0310523
0.031063
0.0310808
0.0310876
0.0311108
0.0386622
0.0386671
0.0386556
0.0386387
0.0386097
0.0385746
0.0385322
0.0384862
0.0384372
0.0383875
0.0383378
0.0382887
0.0382399
0.0381906
0.0381391
0.0380832
0.0380197
0.0379449
0.0378543
0.0377425
0.0376036
0.0374312
0.0372184
0.0369582
0.0366438
0.0362692
0.035829
0.0353194
0.034738
0.0340842
0.0333592
0.0325658
0.0317086
0.0307934
0.0298273
0.0288183
0.0277751
0.0267067
0.0256225
0.0245319
0.023444
0.0223677
0.0213114
0.0202829
0.0192895
0.0183377
0.0174334
0.0165817
0.0157871
0.0150535
0.014384
0.0137814
0.0132477
0.0127848
0.0123938
0.0120756
0.0118306
0.011659
0.0115606
0.0115348
0.011581
0.011698
0.0118847
0.0121394
0.0124604
0.0128458
0.0132933
0.0138007
0.0143651
0.0149838
0.0156537
0.0163712
0.0171325
0.0179333
0.018769
0.019634
0.0205222
0.0214268
0.0223399
0.0232528
0.024156
0.0250392
0.0258914
0.0267018
0.0274594
0.0281542
0.0287777
0.0293231
0.0297864
0.0301666
0.0304655
0.0306883
0.0308427
0.0309385
0.0309864
0.030998
0.030984
0.0309542
0.0309168
0.0308782
0.0308432
0.0308148
0.0307948
0.0307839
0.0307817
0.0307877
0.0308002
0.0308182
0.0308397
0.0308638
0.0308879
0.0309125
0.030934
0.0309552
0.0309711
0.030988
0.030998
0.0310136
0.0310197
0.031039
0.0387595
0.038758
0.038744
0.038722
0.0386901
0.0386509
0.0386054
0.0385557
0.0385037
0.0384503
0.0383968
0.0383428
0.0382881
0.038231
0.0381693
0.0381
0.038019
0.0379217
0.0378022
0.0376543
0.0374707
0.0372441
0.0369667
0.036631
0.0362302
0.0357585
0.0352116
0.0345869
0.0338836
0.033103
0.0322483
0.0313243
0.0303376
0.0292958
0.0282076
0.0270824
0.0259301
0.0247608
0.0235844
0.0224108
0.0212491
0.0201081
0.0189959
0.0179197
0.0168862
0.0159009
0.0149689
0.0140944
0.013281
0.0125315
0.0118484
0.0112335
0.0106882
0.0102135
0.0098101
0.0094783
0.00921814
0.0090294
0.00891159
0.00886405
0.00888587
0.00897597
0.00913311
0.00935589
0.00964277
0.0099921
0.0104021
0.010871
0.0113967
0.0119773
0.0126106
0.0132944
0.0140262
0.0148034
0.0156231
0.0164819
0.0173758
0.0183004
0.0192501
0.0202186
0.0211982
0.0221803
0.0231549
0.024111
0.0250368
0.02592
0.0267484
0.0275108
0.0281974
0.0288007
0.0293165
0.0297436
0.0300848
0.0303459
0.0305358
0.0306651
0.0307455
0.0307887
0.0308056
0.0308057
0.0307965
0.0307842
0.0307726
0.0307648
0.0307618
0.0307644
0.0307722
0.0307848
0.0308006
0.0308193
0.0308385
0.0308586
0.0308765
0.0308944
0.030908
0.0309225
0.030931
0.0309441
0.0309493
0.0309651
0.0388671
0.038858
0.0388416
0.038814
0.0387794
0.0387358
0.0386874
0.0386338
0.0385782
0.0385204
0.0384618
0.0384014
0.0383384
0.0382703
0.0381944
0.0381065
0.0380017
0.0378739
0.0377165
0.0375216
0.0372812
0.0369869
0.0366305
0.0362045
0.0357025
0.0351197
0.0344531
0.0337019
0.0328674
0.031953
0.0309641
0.0299075
0.0287919
0.0276266
0.0264218
0.0251883
0.0239368
0.0226781
0.0214225
0.0201798
0.018959
0.0177684
0.0166153
0.0155062
0.0144467
0.0134416
0.0124946
0.0116091
0.0107876
0.0100322
0.00934443
0.00872532
0.00817566
0.00769586
0.00728608
0.00694622
0.00667596
0.00647479
0.00634204
0.00627686
0.00627826
0.00634513
0.00647624
0.00667026
0.00692581
0.00724143
0.00761564
0.00804696
0.00853393
0.00907508
0.00966903
0.0103144
0.0110098
0.0117539
0.0125453
0.0133822
0.0142628
0.0151847
0.0161449
0.0171395
0.0181634
0.0192104
0.0202727
0.0213406
0.0224032
0.0234477
0.0244602
0.0254263
0.0263316
0.0271628
0.0279088
0.0285615
0.0291166
0.0295739
0.0299377
0.030216
0.0304194
0.0305605
0.0306522
0.0307071
0.0307361
0.0307485
0.0307516
0.0307507
0.0307493
0.0307498
0.0307531
0.0307598
0.0307692
0.0307813
0.0307943
0.0308087
0.0308216
0.030835
0.0308451
0.0308563
0.0308627
0.0308732
0.0308773
0.03089
0.0389842
0.0389665
0.0389477
0.0389143
0.0388771
0.038829
0.0387776
0.0387197
0.0386601
0.0385968
0.0385316
0.0384624
0.0383881
0.0383052
0.0382102
0.0380975
0.0379613
0.0377942
0.0375882
0.0373345
0.0370242
0.0366482
0.0361986
0.0356681
0.0350514
0.0343452
0.0335484
0.0326624
0.0316908
0.0306393
0.0295155
0.0283286
0.0270888
0.0258072
0.0244955
0.0231651
0.0218277
0.0204941
0.0191747
0.0178788
0.0166148
0.0153902
0.0142114
0.0130837
0.0120116
0.0109987
0.0100479
0.00916143
0.0083409
0.00758752
0.00690207
0.00628502
0.00573655
0.00525662
0.004845
0.00450126
0.00422485
0.00401506
0.00387106
0.00379191
0.00377657
0.00382389
0.00393268
0.00410165
0.00432949
0.0046149
0.00495656
0.00535321
0.00580368
0.00630688
0.00686187
0.00746784
0.00812416
0.00883033
0.00958598
0.0103908
0.0112444
0.0121463
0.0130956
0.0140908
0.0151296
0.0162085
0.0173224
0.0184646
0.0196259
0.0207953
0.021959
0.0231017
0.0242063
0.0252552
0.0262313
0.0271193
0.0279069
0.0285863
0.0291546
0.0296143
0.0299728
0.0302413
0.0304335
0.0305641
0.0306477
0.0306972
0.0307236
0.0307355
0.0307395
0.03074
0.0307399
0.030741
0.0307436
0.0307485
0.0307544
0.0307619
0.0307687
0.0307767
0.0307823
0.0307895
0.0307932
0.030801
0.0308037
0.0308141
0.0391098
0.0390824
0.0390613
0.0390217
0.0389821
0.0389295
0.038875
0.0388123
0.0387477
0.0386774
0.0386038
0.038523
0.0384339
0.0383314
0.0382113
0.0380667
0.0378905
0.0376739
0.0374079
0.0370829
0.0366892
0.0362179
0.0356614
0.0350135
0.0342707
0.0334314
0.0324971
0.0314714
0.0303605
0.0291726
0.0279176
0.0266065
0.0252514
0.0238647
0.0224589
0.0210464
0.0196387
0.0182465
0.0168797
0.0155469
0.0142555
0.0130118
0.011821
0.0106873
0.00961388
0.00860333
0.00765747
0.00677755
0.00596443
0.00521856
0.00454014
0.00392912
0.00338526
0.00290821
0.00249744
0.00215234
0.0018722
0.00165621
0.00150346
0.00141297
0.00138369
0.00141449
0.00150417
0.00165152
0.00185528
0.00211422
0.00242714
0.0027929
0.00321048
0.00367899
0.00419773
0.00476622
0.00538424
0.00605182
0.00676925
0.00753709
0.00835606
0.00922701
0.0101507
0.0111278
0.0121581
0.0132411
0.0143746
0.0155548
0.0167761
0.01803
0.0193051
0.0205872
0.021859
0.0231009
0.0242918
0.0254104
0.0264369
0.0273548
0.0281524
0.0288241
0.0293707
0.0297994
0.0301224
0.0303551
0.0305146
0.0306176
0.0306793
0.0307126
0.0307274
0.0307315
0.0307298
0.0307262
0.0307223
0.0307196
0.0307176
0.0307175
0.0307174
0.030719
0.0307194
0.0307221
0.0307225
0.0307275
0.0307287
0.0307374
0.0392422
0.039204
0.0391808
0.0391348
0.039093
0.0390356
0.0389777
0.0389095
0.0388388
0.0387598
0.0386752
0.0385796
0.0384713
0.0383437
0.0381918
0.038007
0.0377812
0.0375042
0.0371663
0.036757
0.0362669
0.0356873
0.0350117
0.0342357
0.0333578
0.0323789
0.0313031
0.0301366
0.0288883
0.0275687
0.0261898
0.0247645
0.0233063
0.0218285
0.0203443
0.0188659
0.0174047
0.0159707
0.0145728
0.0132185
0.0119139
0.0106641
0.00947285
0.00834318
0.00727717
0.00627625
0.00534134
0.00447291
0.00367113
0.00293591
0.00226698
0.00166394
0.00112629
0.000653448
0.000244762
-0.000100485
-0.00038307
-0.000603835
-0.000763684
-0.000863589
-0.000904585
-0.000887764
-0.000814271
-0.000685283
-0.000501996
-0.000265596
2.27675e-05
0.000362019
0.000751197
0.0011895
0.00167631
0.0022113
0.00279439
0.00342586
0.00410635
0.00483685
0.00561875
0.00645373
0.00734371
0.00829068
0.00929655
0.0103628
0.01149
0.0126778
0.0139236
0.0152227
0.0165674
0.0179464
0.0193445
0.0207428
0.0221189
0.0234481
0.0247047
0.025864
0.0269051
0.0278124
0.0285775
0.0292001
0.0296875
0.0300532
0.0303152
0.0304932
0.0306065
0.0306728
0.0307064
0.0307191
0.030719
0.0307123
0.0307025
0.0306924
0.0306824
0.0306742
0.0306665
0.0306611
0.0306556
0.0306533
0.0306501
0.0306522
0.030652
0.0306596
0.039379
0.0393291
0.0393039
0.0392513
0.0392076
0.0391451
0.0390835
0.0390086
0.0389304
0.0388405
0.0387419
0.0386274
0.0384948
0.0383359
0.0381445
0.0379106
0.0376249
0.0372763
0.0368543
0.0363483
0.0357493
0.0350499
0.0342452
0.0333329
0.0323141
0.0311924
0.0299747
0.0286702
0.02729
0.0258471
0.0243553
0.0228289
0.0212824
0.0197297
0.0181837
0.0166564
0.0151583
0.0136984
0.0122842
0.0109218
0.00961599
0.00837037
0.00718749
0.00606909
0.00501622
0.00402941
0.0031088
0.00225424
0.00146539
0.000741771
8.28207e-05
-0.000512073
-0.00104356
-0.0015123
-0.001919
-0.00226439
-0.00254923
-0.00277433
-0.00294054
-0.00304879
-0.00310004
-0.00309533
-0.00303574
-0.00292239
-0.00275643
-0.00253901
-0.00227123
-0.00195415
-0.00158873
-0.00117575
-0.000715819
-0.000209297
0.00034377
0.000943689
0.00159117
0.00228736
0.00303389
0.00383284
0.00468673
0.00559844
0.00657107
0.00760772
0.00871122
0.00988363
0.0111258
0.0124367
0.0138126
0.0152464
0.0167269
0.0182382
0.0197595
0.0212657
0.0227281
0.0241163
0.025401
0.0265563
0.0275627
0.0284094
0.0290952
0.0296282
0.0300242
0.0303038
0.03049
0.030605
0.0306686
0.0306972
0.0307032
0.0306962
0.0306819
0.0306648
0.0306469
0.0306303
0.0306146
0.0306019
0.03059
0.0305825
0.0305753
0.0305746
0.0305727
0.03058
0.0395174
0.0394549
0.039428
0.0393687
0.039323
0.0392551
0.039189
0.0391062
0.0390187
0.0389152
0.0387991
0.0386611
0.0384985
0.0383012
0.038062
0.0377693
0.0374132
0.0369814
0.0364635
0.0358492
0.0351307
0.034302
0.0333605
0.0323067
0.0311444
0.0298804
0.0285243
0.0270879
0.025585
0.0240304
0.0224393
0.0208271
0.0192087
0.0175979
0.016007
0.0144471
0.0129274
0.0114555
0.0100375
0.00867785
0.00737991
0.00614588
0.00497714
0.00387435
0.00283767
0.0018669
0.000961609
0.000121187
-0.000655038
-0.00136778
-0.00201774
-0.00260562
-0.0031321
-0.00359786
-0.00400354
-0.00434982
-0.00463739
-0.00486698
-0.00503936
-0.00515536
-0.00521587
-0.00522184
-0.00517427
-0.00507424
-0.00492282
-0.00472112
-0.00447023
-0.0041712
-0.00382498
-0.00343242
-0.00299417
-0.00251065
-0.00198202
-0.00140805
-0.000788151
-0.000121237
0.000594278
0.00136053
0.00218021
0.00305656
0.0039933
0.00499452
0.00606442
0.00720705
0.00842583
0.00972295
0.0110986
0.0125503
0.0140715
0.015651
0.0172722
0.0189125
0.0205437
0.0221331
0.0236455
0.0250464
0.0263049
0.027398
0.0283127
0.0290475
0.0296121
0.030025
0.0303106
0.030495
0.0306036
0.0306585
0.0306773
0.0306739
0.0306573
0.0306345
0.030609
0.0305842
0.0305604
0.0305401
0.0305216
0.0305086
0.0304971
0.0304937
0.0304901
0.0304973
0.0396536
0.0395779
0.0395495
0.0394833
0.0394357
0.0393617
0.0392903
0.0391981
0.039099
0.0389787
0.038841
0.0386744
0.0384753
0.038232
0.0379362
0.037575
0.0371377
0.0366118
0.0359872
0.0352544
0.0344074
0.0334424
0.0323595
0.0311622
0.0298574
0.0284549
0.0269671
0.0254085
0.0237949
0.0221425
0.0204677
0.0187862
0.0171126
0.0154602
0.0138403
0.0122624
0.0107343
0.00926193
0.00784972
0.00650068
0.0052167
0.00399877
0.0028472
0.00176179
0.000742001
-0.000212899
-0.00110375
-0.00193142
-0.00269676
-0.00340058
-0.00404361
-0.00462654
-0.00514998
-0.00561454
-0.00602078
-0.00636925
-0.00666054
-0.00689527
-0.00707409
-0.00719772
-0.00726696
-0.00728266
-0.00724574
-0.00715719
-0.00701803
-0.00682934
-0.00659216
-0.00630754
-0.00597647
-0.00559982
-0.00517832
-0.00471252
-0.0042027
-0.00364882
-0.00305047
-0.00240679
-0.00171641
-0.0009774
-0.00018719
0.00065742
0.00156028
0.00252585
0.00355905
0.00466511
0.00584921
0.007116
0.00846899
0.00990966
0.0114364
0.0130436
0.0147199
0.0164478
0.0182029
0.0199536
0.0216631
0.023291
0.0247973
0.0261466
0.0273123
0.0282796
0.0290479
0.0296292
0.0300456
0.0303256
0.030499
0.0305942
0.0306352
0.0306411
0.0306256
0.0305989
0.0305667
0.030534
0.0305021
0.0304742
0.0304489
0.0304304
0.0304145
0.0304083
0.0304028
0.0304104
0.0397834
0.0396939
0.0396642
0.039591
0.0395413
0.0394605
0.0393826
0.0392791
0.0391658
0.0390252
0.0388614
0.0386603
0.0384181
0.0381207
0.0377593
0.0373197
0.0367911
0.0361608
0.0354199
0.0345604
0.0335784