/*--------------------------------*- C++ -*----------------------------------*\
| =========                 |                                                 |
| \\      /  F ield         | OpenFOAM: The Open Source CFD Toolbox           |
|  \\    /   O peration     | Version:  2406                                  |
|   \\  /    A nd           | Website:  www.openfoam.com                      |
|    \\/     M anipulation  |                                                 |
\*---------------------------------------------------------------------------*/
FoamFile
{
    version     2.0;
    format      ascii;
    arch        "LSB;label=32;scalar=64";
    class       volVectorField;
    location    "48.85";
    object      Uold;
}
// * * * * * * * * * * * * * * * * * * * * * * * * * * * * * * * * * * * * * //

dimensions      [0 1 -1 0 0 0 0];

internalField   nonuniform List<vector> 
3600
(
(-2.47925e-05 1.02399e-05 0)
(0.000421413 -0.000213246 0)
(0.00133701 -0.00033885 0)
(0.00239071 -0.000362355 0)
(0.00338803 -0.000292668 0)
(0.00409515 -0.00019563 0)
(0.00454741 -0.000107026 0)
(0.0047344 -5.57713e-05 0)
(0.00480229 -4.14692e-05 0)
(0.00477894 -5.17369e-05 0)
(0.00473311 -6.5442e-05 0)
(0.00460541 -6.43553e-05 0)
(0.00435496 -3.81616e-05 0)
(0.00387064 1.63601e-05 0)
(0.00307653 9.79899e-05 0)
(0.00186526 0.000207319 0)
(0.000156916 0.000346498 0)
(-0.00214615 0.000516385 0)
(-0.00511818 0.000707681 0)
(-0.00883353 0.000905853 0)
(-0.0133317 0.00110393 0)
(-0.0186152 0.00131225 0)
(-0.0246141 0.00154579 0)
(-0.0311816 0.00180284 0)
(-0.0380791 0.00204982 0)
(-0.0449862 0.00222901 0)
(-0.0515152 0.00227732 0)
(-0.0572452 0.00214649 0)
(-0.0617566 0.00181205 0)
(-0.0646654 0.00127571 0)
(-0.0656529 0.000561072 0)
(-0.0644867 -0.000289532 0)
(-0.061043 -0.00121984 0)
(-0.0553185 -0.00216166 0)
(-0.0474505 -0.00303919 0)
(-0.0377178 -0.00377235 0)
(-0.0265539 -0.00428417 0)
(-0.0145223 -0.00450862 0)
(-0.00230687 -0.00440221 0)
(0.00935747 -0.00395464 0)
(0.0197268 -0.00319811 0)
(0.0281616 -0.00221077 0)
(0.0341752 -0.00111025 0)
(0.0375472 -3.80118e-05 0)
(0.0383135 0.000869881 0)
(0.036812 0.00151132 0)
(0.0335601 0.00184745 0)
(0.0292209 0.00190519 0)
(0.0244057 0.00176395 0)
(0.0196624 0.00151502 0)
(0.0153173 0.00123614 0)
(0.0115904 0.000971334 0)
(0.00849328 0.000744891 0)
(0.0060328 0.000559521 0)
(0.00407571 0.000420436 0)
(0.00257733 0.000312778 0)
(0.00139928 0.000233313 0)
(0.000554325 0.000135494 0)
(3.41484e-05 2.41187e-05 0)
(-0.00010086 -0.000108583 0)
(0.000168649 -0.000398014 0)
(0.00135976 -0.00140378 0)
(0.00333287 -0.00192356 0)
(0.00544604 -0.0019664 0)
(0.00738214 -0.00159702 0)
(0.00872586 -0.00105924 0)
(0.00948969 -0.000525967 0)
(0.00962624 -0.000117656 0)
(0.00932267 0.000150572 0)
(0.00859425 0.000338969 0)
(0.00749227 0.000541565 0)
(0.00586649 0.000853413 0)
(0.00356666 0.00132951 0)
(0.000333157 0.00199666 0)
(-0.00405136 0.00285236 0)
(-0.00983457 0.00389053 0)
(-0.017201 0.00509053 0)
(-0.0263114 0.00642752 0)
(-0.0372113 0.00786323 0)
(-0.0498103 0.00934646 0)
(-0.0638082 0.0107828 0)
(-0.0787209 0.0120323 0)
(-0.0939097 0.0129252 0)
(-0.10867 0.0133072 0)
(-0.122301 0.0130631 0)
(-0.134181 0.0121345 0)
(-0.143793 0.0105152 0)
(-0.150744 0.00824799 0)
(-0.154752 0.0054113 0)
(-0.155632 0.00211375 0)
(-0.153291 -0.00151596 0)
(-0.147711 -0.00532826 0)
(-0.13896 -0.0091576 0)
(-0.127189 -0.0128185 0)
(-0.112654 -0.0161115 0)
(-0.0957112 -0.0188248 0)
(-0.0768501 -0.0207509 0)
(-0.0566741 -0.0217015 0)
(-0.0359168 -0.0215385 0)
(-0.0153888 -0.0201992 0)
(0.00403249 -0.0177285 0)
(0.0215079 -0.0142916 0)
(0.0362589 -0.0101744 0)
(0.047704 -0.00575669 0)
(0.0554511 -0.00146116 0)
(0.0594256 0.0023077 0)
(0.0597955 0.00523805 0)
(0.0570681 0.00715703 0)
(0.0519196 0.00806554 0)
(0.0452361 0.00811034 0)
(0.0378286 0.00753974 0)
(0.03048 0.00661383 0)
(0.0236551 0.00556341 0)
(0.0177126 0.00453534 0)
(0.0126729 0.00363226 0)
(0.00858781 0.00285866 0)
(0.00527702 0.00221531 0)
(0.00277446 0.00155628 0)
(0.000987219 0.000869976 0)
(8.08872e-05 6.55162e-05 0)
(0.000299189 -0.00127712 0)
(0.00197072 -0.00341561 0)
(0.00457938 -0.00444143 0)
(0.00718274 -0.00438793 0)
(0.00940604 -0.00348024 0)
(0.0107378 -0.00217513 0)
(0.0111915 -0.000848401 0)
(0.0106842 0.000277368 0)
(0.00937373 0.00116926 0)
(0.00719818 0.00197253 0)
(0.00410464 0.00289191 0)
(-0.00018973 0.00413931 0)
(-0.00597011 0.00583308 0)
(-0.0136157 0.00802752 0)
(-0.0234301 0.0106989 0)
(-0.0356842 0.0137958 0)
(-0.0504676 0.0172124 0)
(-0.0676506 0.020788 0)
(-0.0867763 0.0242542 0)
(-0.107124 0.0272677 0)
(-0.127794 0.0294727 0)
(-0.14788 0.0305998 0)
(-0.166576 0.0304958 0)
(-0.183254 0.0291302 0)
(-0.197462 0.0265545 0)
(-0.208909 0.0228783 0)
(-0.21742 0.0182356 0)
(-0.222899 0.012778 0)
(-0.225304 0.00666119 0)
(-0.224615 5.15022e-05 0)
(-0.220833 -0.00687734 0)
(-0.213969 -0.0139306 0)
(-0.204065 -0.0208919 0)
(-0.191189 -0.0275096 0)
(-0.17548 -0.0335011 0)
(-0.157147 -0.0385503 0)
(-0.136517 -0.0423307 0)
(-0.114035 -0.0445246 0)
(-0.090298 -0.0448737 0)
(-0.0660184 -0.0432181 0)
(-0.04203 -0.039555 0)
(-0.019193 -0.0340625 0)
(0.00162756 -0.0271157 0)
(0.0196976 -0.019249 0)
(0.0344056 -0.011098 0)
(0.0453893 -0.00331617 0)
(0.0524551 0.00351037 0)
(0.0557061 0.00892663 0)
(0.0554203 0.0126707 0)
(0.0522015 0.0146957 0)
(0.0467613 0.0151807 0)
(0.04002 0.0144685 0)
(0.032736 0.0129933 0)
(0.0256538 0.011155 0)
(0.0191229 0.00928319 0)
(0.0134778 0.00753174 0)
(0.00866552 0.00596329 0)
(0.00485705 0.00439227 0)
(0.00193342 0.00272712 0)
(0.000280627 0.000758912 0)
(0.000389097 -0.00238606 0)
(0.00235587 -0.00576971 0)
(0.00523671 -0.00718883 0)
(0.00782734 -0.00678176 0)
(0.00973381 -0.00505932 0)
(0.0104167 -0.00270526 0)
(0.00991792 -0.000301452 0)
(0.00811524 0.0018767 0)
(0.00508114 0.00382033 0)
(0.000605829 0.0058034 0)
(-0.005539 0.00815533 0)
(-0.0137958 0.011193 0)
(-0.0245572 0.0150561 0)
(-0.0382123 0.0197639 0)
(-0.0549331 0.0251813 0)
(-0.0746398 0.0310649 0)
(-0.0968364 0.03699 0)
(-0.120678 0.0424126 0)
(-0.145088 0.0467603 0)
(-0.169015 0.0496043 0)
(-0.19158 0.0507065 0)
(-0.212164 0.0500266 0)
(-0.230377 0.047647 0)
(-0.246014 0.0437303 0)
(-0.258982 0.0384603 0)
(-0.269254 0.0320288 0)
(-0.276835 0.0246107 0)
(-0.281732 0.0163733 0)
(-0.283947 0.00746948 0)
(-0.283461 -0.00194306 0)
(-0.280242 -0.0117009 0)
(-0.274238 -0.0216103 0)
(-0.265396 -0.0314442 0)
(-0.253664 -0.0409179 0)
(-0.239029 -0.0496924 0)
(-0.221527 -0.0573638 0)
(-0.201292 -0.0634895 0)
(-0.178579 -0.067609 0)
(-0.153815 -0.0693096 0)
(-0.127596 -0.0682831 0)
(-0.100708 -0.0644157 0)
(-0.07405 -0.0578353 0)
(-0.0486011 -0.0489522 0)
(-0.0252574 -0.038414 0)
(-0.0047938 -0.0270323 0)
(0.0122807 -0.0156568 0)
(0.025638 -0.00507096 0)
(0.0352094 0.0040793 0)
(0.04102 0.0113269 0)
(0.043346 0.0164053 0)
(0.042556 0.0192843 0)
(0.0393276 0.0201735 0)
(0.0343378 0.0194922 0)
(0.0284506 0.0177612 0)
(0.0222403 0.0155013 0)
(0.0163416 0.0130794 0)
(0.0109213 0.0106907 0)
(0.00638109 0.00821006 0)
(0.0026739 0.00542926 0)
(0.000443683 0.00195704 0)
(0.000450029 -0.00372544 0)
(0.00255065 -0.00839757 0)
(0.0053878 -0.0100009 0)
(0.00753782 -0.00888525 0)
(0.00860401 -0.00598269 0)
(0.00806601 -0.00222418 0)
(0.00599531 0.0016125 0)
(0.00221858 0.00527371 0)
(-0.00332838 0.00883772 0)
(-0.0110427 0.012755 0)
(-0.0213375 0.0174671 0)
(-0.0347405 0.0233315 0)
(-0.0515791 0.0303904 0)
(-0.0719431 0.0384526 0)
(-0.0954541 0.0470177 0)
(-0.121291 0.0553872 0)
(-0.148277 0.062741 0)
(-0.175193 0.0683978 0)
(-0.201002 0.0719147 0)
(-0.224988 0.0731415 0)
(-0.246721 0.0721206 0)
(-0.265993 0.0690344 0)
(-0.282734 0.0641113 0)
(-0.296956 0.0576039 0)
(-0.30871 0.0497406 0)
(-0.318058 0.0407336 0)
(-0.325064 0.030757 0)
(-0.329777 0.0199693 0)
(-0.332226 0.00850455 0)
(-0.33241 -0.00349963 0)
(-0.330299 -0.0159029 0)
(-0.32582 -0.0285302 0)
(-0.31887 -0.0411678 0)
(-0.309307 -0.0535289 0)
(-0.296979 -0.0652527 0)
(-0.281729 -0.0758801 0)
(-0.263453 -0.0848743 0)
(-0.242133 -0.0916319 0)
(-0.217917 -0.0955549 0)
(-0.191158 -0.0961188 0)
(-0.162488 -0.092998 0)
(-0.132796 -0.0861578 0)
(-0.103207 -0.0759495 0)
(-0.0749128 -0.0630973 0)
(-0.0490471 -0.0486234 0)
(-0.0264407 -0.0336574 0)
(-0.00760624 -0.0192569 0)
(0.00733567 -0.00626834 0)
(0.0184155 0.00469871 0)
(0.0258549 0.0132525 0)
(0.0298595 0.0192036 0)
(0.0308699 0.022596 0)
(0.029336 0.0237118 0)
(0.0260035 0.0230455 0)
(0.0214534 0.02118 0)
(0.0164641 0.0186482 0)
(0.0113795 0.0157712 0)
(0.00682866 0.0125404 0)
(0.00291248 0.00862419 0)
(0.000493185 0.00344563 0)
(0.000498611 -0.0051188 0)
(0.00256388 -0.0108917 0)
(0.00498693 -0.0122862 0)
(0.00621693 -0.00999514 0)
(0.0058926 -0.00549936 0)
(0.00356498 3.08176e-05 0)
(-0.000693723 0.00568221 0)
(-0.00714259 0.0113297 0)
(-0.0160381 0.0172055 0)
(-0.0279528 0.0239345 0)
(-0.0433818 0.0319638 0)
(-0.0626925 0.0415 0)
(-0.0857825 0.0522257 0)
(-0.112044 0.0634606 0)
(-0.140342 0.0741927 0)
(-0.169317 0.0834311 0)
(-0.197686 0.090387 0)
(-0.224491 0.0946609 0)
(-0.249127 0.0961513 0)
(-0.271284 0.0950024 0)
(-0.290846 0.0914608 0)
(-0.307823 0.0858403 0)
(-0.322297 0.0784408 0)
(-0.33439 0.0695537 0)
(-0.344247 0.0594202 0)
(-0.352017 0.0482537 0)
(-0.357845 0.0362161 0)
(-0.361855 0.0234464 0)
(-0.36415 0.0100472 0)
(-0.364785 -0.00388218 0)
(-0.363775 -0.0182505 0)
(-0.361066 -0.0329359 0)
(-0.356549 -0.0477829 0)
(-0.35003 -0.0625579 0)
(-0.341252 -0.0769414 0)
(-0.329886 -0.0904878 0)
(-0.315578 -0.10263 0)
(-0.297976 -0.11267 0)
(-0.276831 -0.119836 0)
(-0.252068 -0.123343 0)
(-0.223926 -0.12254 0)
(-0.193024 -0.117046 0)
(-0.160432 -0.106928 0)
(-0.127571 -0.0927854 0)
(-0.0960691 -0.0757489 0)
(-0.0674081 -0.0572846 0)
(-0.0426851 -0.0389082 0)
(-0.0223573 -0.0218674 0)
(-0.00641971 -0.00701041 0)
(0.0054844 0.00518924 0)
(0.0136807 0.0144956 0)
(0.0185949 0.0208759 0)
(0.0205548 0.0244774 0)
(0.0201486 0.0256901 0)
(0.0178553 0.0250361 0)
(0.0144483 0.0231078 0)
(0.0103619 0.0202837 0)
(0.00637176 0.0166574 0)
(0.00274461 0.0117837 0)
(0.00046044 0.00493743 0)
(0.000522832 -0.00657238 0)
(0.0023325 -0.0130996 0)
(0.003929 -0.0137674 0)
(0.00376668 -0.00977667 0)
(0.00155041 -0.00324657 0)
(-0.00306811 0.00446558 0)
(-0.0100763 0.0124071 0)
(-0.0198481 0.0206821 0)
(-0.0328301 0.0296891 0)
(-0.0496275 0.0401162 0)
(-0.0705492 0.0521758 0)
(-0.0954322 0.0656173 0)
(-0.12345 0.079512 0)
(-0.153277 0.0926741 0)
(-0.183408 0.103883 0)
(-0.212532 0.112308 0)
(-0.239719 0.117518 0)
(-0.264416 0.119484 0)
(-0.286364 0.118388 0)
(-0.30549 0.114566 0)
(-0.321856 0.108378 0)
(-0.335602 0.100214 0)
(-0.346935 0.0904184 0)
(-0.356085 0.0793118 0)
(-0.363306 0.0671473 0)
(-0.368841 0.0541394 0)
(-0.372922 0.0404339 0)
(-0.375743 0.0261452 0)
(-0.377469 0.0113375 0)
(-0.378207 -0.0039356 0)
(-0.378026 -0.0196411 0)
(-0.376913 -0.0357239 0)
(-0.374798 -0.0521085 0)
(-0.371503 -0.0686492 0)
(-0.366758 -0.0851213 0)
(-0.360163 -0.101166 0)
(-0.351214 -0.116277 0)
(-0.339295 -0.129766 0)
(-0.32377 -0.140777 0)
(-0.304047 -0.148324 0)
(-0.279765 -0.151408 0)
(-0.250932 -0.149175 0)
(-0.218136 -0.141154 0)
(-0.182609 -0.12747 0)
(-0.146211 -0.109012 0)
(-0.111125 -0.0873791 0)
(-0.0794456 -0.0646214 0)
(-0.0525927 -0.0427231 0)
(-0.0311124 -0.0231678 0)
(-0.0146908 -0.0067391 0)
(-0.00272089 0.00628653 0)
(0.00550147 0.0159398 0)
(0.0104476 0.0223664 0)
(0.0126882 0.0259085 0)
(0.0126376 0.0269975 0)
(0.0110019 0.0262061 0)
(0.00824152 0.0238929 0)
(0.00518213 0.0201999 0)
(0.00222636 0.0145897 0)
(0.000353618 0.00625303 0)
(0.000498132 -0.00785575 0)
(0.001749 -0.0145253 0)
(0.00203895 -0.0138213 0)
(4.00048e-06 -0.00758536 0)
(-0.00457561 0.00141078 0)
(-0.0119382 0.0117283 0)
(-0.0222023 0.022492 0)
(-0.0358386 0.0340798 0)
(-0.0533756 0.0469488 0)
(-0.0751692 0.0615873 0)
(-0.101011 0.0776481 0)
(-0.129976 0.0942123 0)
(-0.160608 0.109813 0)
(-0.191284 0.123121 0)
(-0.220641 0.133136 0)
(-0.247716 0.13944 0)
(-0.271964 0.141983 0)
(-0.293119 0.141031 0)
(-0.311145 0.136958 0)
(-0.326142 0.130241 0)
(-0.338342 0.121339 0)
(-0.348031 0.110715 0)
(-0.355559 0.0987512 0)
(-0.361267 0.0857874 0)
(-0.365499 0.0720666 0)
(-0.368549 0.0577806 0)
(-0.370691 0.0430384 0)
(-0.372133 0.0279143 0)
(-0.373062 0.0124255 0)
(-0.373601 -0.00342241 0)
(-0.37385 -0.0196532 0)
(-0.373841 -0.0362761 0)
(-0.373568 -0.0532967 0)
(-0.372931 -0.0706685 0)
(-0.371742 -0.0882904 0)
(-0.36967 -0.105945 0)
(-0.366234 -0.12328 0)
(-0.360752 -0.139738 0)
(-0.352384 -0.154539 0)
(-0.340148 -0.166657 0)
(-0.323078 -0.174878 0)
(-0.300393 -0.177909 0)
(-0.271793 -0.17462 0)
(-0.237706 -0.164332 0)
(-0.199532 -0.14717 0)
(-0.159582 -0.124283 0)
(-0.120799 -0.097843 0)
(-0.0860057 -0.0706043 0)
(-0.0571686 -0.0451775 0)
(-0.0348287 -0.023286 0)
(-0.0184317 -0.00562257 0)
(-0.00687958 0.00787665 0)
(0.000742442 0.0175088 0)
(0.00524992 0.0237197 0)
(0.00716256 0.0269268 0)
(0.00717044 0.0276712 0)
(0.00575785 0.0262521 0)
(0.00373604 0.022803 0)
(0.00159901 0.0167302 0)
(0.000232222 0.00721887 0)
(0.000397852 -0.00884615 0)
(0.000732619 -0.0148626 0)
(-0.000757661 -0.0121055 0)
(-0.00506925 -0.00312704 0)
(-0.0123772 0.00873612 0)
(-0.0228169 0.022101 0)
(-0.0366806 0.0362538 0)
(-0.0544227 0.0517669 0)
(-0.0764303 0.0689026 0)
(-0.102499 0.0876191 0)
(-0.131741 0.106818 0)
(-0.162594 0.12502 0)
(-0.19338 0.140593 0)
(-0.222606 0.152464 0)
(-0.249278 0.160061 0)
(-0.272774 0.163378 0)
(-0.292846 0.162669 0)
(-0.309453 0.158429 0)
(-0.322786 0.151202 0)
(-0.33314 0.141595 0)
(-0.340935 0.130148 0)
(-0.346598 0.117367 0)
(-0.35058 0.103635 0)
(-0.353264 0.0892696 0)
(-0.355011 0.0744694 0)
(-0.356092 0.0593796 0)
(-0.356746 0.0440588 0)
(-0.357142 0.0285386 0)
(-0.357431 0.0127963 0)
(-0.357712 -0.00319479 0)
(-0.358083 -0.019492 0)
(-0.358597 -0.03614 0)
(-0.359303 -0.0531936 0)
(-0.36019 -0.0706749 0)
(-0.361205 -0.088584 0)
(-0.362175 -0.106845 0)
(-0.362802 -0.125288 0)
(-0.362569 -0.143578 0)
(-0.360725 -0.161163 0)
(-0.356224 -0.177196 0)
(-0.3478 -0.190512 0)
(-0.334054 -0.199643 0)
(-0.313743 -0.202963 0)
(-0.28611 -0.198949 0)
(-0.251344 -0.186609 0)
(-0.210895 -0.165954 0)
(-0.167599 -0.138402 0)
(-0.125224 -0.106782 0)
(-0.0875605 -0.074785 0)
(-0.0571208 -0.0457714 0)
(-0.0344968 -0.021764 0)
(-0.0186397 -0.00318736 0)
(-0.00806798 0.0103793 0)
(-0.00141983 0.0196729 0)
(0.00219629 0.0252807 0)
(0.00361184 0.0278041 0)
(0.00339911 0.0275166 0)
(0.00234753 0.0245256 0)
(0.00100389 0.0182318 0)
(0.000122587 0.00787134 0)
(0.000188053 -0.00919884 0)
(-0.000794087 -0.0135555 0)
(-0.00450495 -0.0080726 0)
(-0.011411 0.00407048 0)
(-0.0217061 0.0191583 0)
(-0.0354166 0.0359833 0)
(-0.0529831 0.053985 0)
(-0.0746389 0.0737066 0)
(-0.100391 0.0949022 0)
(-0.129317 0.116794 0)
(-0.15998 0.137632 0)
(-0.190528 0.155729 0)
(-0.219446 0.169678 0)
(-0.245553 0.178857 0)
(-0.268229 0.18313 0)
(-0.287134 0.182842 0)
(-0.302312 0.178516 0)
(-0.313967 0.170866 0)
(-0.322543 0.160591 0)
(-0.328523 0.148398 0)
(-0.332473 0.134859 0)
(-0.33488 0.120468 0)
(-0.336214 0.105555 0)
(-0.336817 0.0903719 0)
(-0.33699 0.0750431 0)
(-0.336923 0.0596495 0)
(-0.336782 0.0441936 0)
(-0.336657 0.0286675 0)
(-0.336647 0.0130185 0)
(-0.336801 -0.0027976 0)
(-0.337196 -0.0188513 0)
(-0.337878 -0.0351974 0)
(-0.33892 -0.0519073 0)
(-0.340366 -0.0690318 0)
(-0.342265 -0.0866257 0)
(-0.344597 -0.104705 0)
(-0.347281 -0.123251 0)
(-0.350071 -0.142141 0)
(-0.35252 -0.161107 0)
(-0.353852 -0.179632 0)
(-0.35294 -0.196862 0)
(-0.348259 -0.211511 0)
(-0.33803 -0.221866 0)
(-0.320475 -0.225892 0)
(-0.294315 -0.221577 0)
(-0.259339 -0.207456 0)
(-0.217002 -0.183328 0)
(-0.170624 -0.150858 0)
(-0.124973 -0.113726 0)
(-0.0848848 -0.0767819 0)
(-0.0535186 -0.044352 0)
(-0.0312504 -0.0186057 0)
(-0.0165136 0.000372472 0)
(-0.00724751 0.0136111 0)
(-0.00188724 0.0220943 0)
(0.000790549 0.0266792 0)
(0.00158359 0.0277384 0)
(0.00132153 0.025399 0)
(0.000596882 0.0191205 0)
(6.00487e-05 0.00823375 0)
(-0.000144189 -0.00868418 0)
(-0.00280479 -0.0103022 0)
(-0.00905246 -0.00152421 0)
(-0.0187159 0.0140856 0)
(-0.0320838 0.0326787 0)
(-0.0490329 0.0532687 0)
(-0.0700537 0.0753237 0)
(-0.0949332 0.0990564 0)
(-0.123176 0.123495 0)
(-0.153212 0.147161 0)
(-0.183369 0.167977 0)
(-0.211836 0.184419 0)
(-0.237453 0.195519 0)
(-0.259369 0.201138 0)
(-0.277322 0.201533 0)
(-0.291263 0.197379 0)
(-0.301555 0.189457 0)
(-0.308653 0.178674 0)
(-0.313216 0.165828 0)
(-0.315833 0.151649 0)
(-0.317115 0.136667 0)
(-0.317507 0.121295 0)
(-0.317408 0.105765 0)
(-0.31705 0.090234 0)
(-0.316637 0.0747453 0)
(-0.31625 0.0593186 0)
(-0.315978 0.0439119 0)
(-0.315836 0.0284926 0)
(-0.315871 0.0129952 0)
(-0.316088 -0.00262479 0)
(-0.316538 -0.0184331 0)
(-0.317249 -0.0344745 0)
(-0.318293 -0.0508114 0)
(-0.319728 -0.0674904 0)
(-0.321648 -0.0845747 0)
(-0.324118 -0.102113 0)
(-0.327205 -0.12016 0)
(-0.330885 -0.13873 0)
(-0.335032 -0.157781 0)
(-0.339275 -0.177122 0)
(-0.342927 -0.196322 0)
(-0.344826 -0.214555 0)
(-0.343311 -0.230469 0)
(-0.336253 -0.242103 0)
(-0.321373 -0.246985 0)
(-0.296783 -0.242492 0)
(-0.261808 -0.226562 0)
(-0.217804 -0.198667 0)
(-0.168643 -0.160792 0)
(-0.120185 -0.117698 0)
(-0.0784814 -0.0757821 0)
(-0.0471382 -0.0403512 0)
(-0.0260886 -0.0135951 0)
(-0.012966 0.00517107 0)
(-0.00533529 0.017419 0)
(-0.00129131 0.0245305 0)
(0.000397744 0.0272009 0)
(0.000740426 0.025709 0)
(0.000412047 0.0196553 0)
(4.67813e-05 0.00847817 0)
(-0.000608376 -0.00693481 0)
(-0.00524751 -0.00469035 0)
(-0.0142148 0.00782843 0)
(-0.0266539 0.0270947 0)
(-0.0430027 0.0493717 0)
(-0.0629053 0.0738312 0)
(-0.0867743 0.0997621 0)
(-0.113805 0.126786 0)
(-0.143051 0.153187 0)
(-0.172522 0.17703 0)
(-0.200626 0.196276 0)
(-0.22578 0.209813 0)
(-0.247239 0.217181 0)
(-0.26447 0.218698 0)
(-0.27759 0.215007 0)
(-0.286849 0.207097 0)
(-0.292919 0.195968 0)
(-0.296427 0.182641 0)
(-0.29815 0.167922 0)
(-0.298654 0.152476 0)
(-0.298499 0.136721 0)
(-0.298 0.120946 0)
(-0.297444 0.105266 0)
(-0.296932 0.089748 0)
(-0.296572 0.074362 0)
(-0.296357 0.0590841 0)
(-0.296318 0.0438453 0)
(-0.29642 0.028603 0)
(-0.296681 0.0132905 0)
(-0.297077 -0.00212923 0)
(-0.297645 -0.0177109 0)
(-0.29839 -0.0334839 0)
(-0.299376 -0.049495 0)
(-0.300647 -0.0657743 0)
(-0.302304 -0.082372 0)
(-0.304428 -0.0993336 0)
(-0.307144 -0.116728 0)
(-0.310541 -0.134623 0)
(-0.314692 -0.15309 0)
(-0.319541 -0.172152 0)
(-0.324849 -0.191719 0)
(-0.330007 -0.211455 0)
(-0.333915 -0.230593 0)
(-0.334816 -0.247726 0)
(-0.330325 -0.26065 0)
(-0.317678 -0.266399 0)
(-0.29439 -0.261643 0)
(-0.259267 -0.243581 0)
(-0.213586 -0.211327 0)
(-0.161844 -0.167324 0)
(-0.111217 -0.117879 0)
(-0.0689805 -0.0712674 0)
(-0.0388913 -0.0337944 0)
(-0.0198835 -0.00699108 0)
(-0.00883634 0.0106198 0)
(-0.00293156 0.0211581 0)
(-0.000256948 0.025928 0)
(0.000585273 0.0255864 0)
(0.000450007 0.0199866 0)
(8.40574e-05 0.00869494 0)
(-0.00117237 -0.00377212 0)
(-0.00794012 0.00335211 0)
(-0.0196174 0.0198752 0)
(-0.034667 0.0428332 0)
(-0.053696 0.0687938 0)
(-0.0760132 0.0969338 0)
(-0.101852 0.12616 0)
(-0.129797 0.155377 0)
(-0.158627 0.182295 0)
(-0.186193 0.204837 0)
(-0.211197 0.221294 0)
(-0.232357 0.231068 0)
(-0.249356 0.23422 0)
(-0.261985 0.231508 0)
(-0.270745 0.223944 0)
(-0.276149 0.212777 0)
(-0.279084 0.199134 0)
(-0.280231 0.184037 0)
(-0.280356 0.168201 0)
(-0.279907 0.152152 0)
(-0.27932 0.136156 0)
(-0.278754 0.120371 0)
(-0.278381 0.104805 0)
(-0.278188 0.0894517 0)
(-0.278218 0.074238 0)
(-0.278402 0.0591172 0)
(-0.278749 0.0440124 0)
(-0.279193 0.028884 0)
(-0.279747 0.0136733 0)
(-0.28037 -0.00164472 0)
(-0.281093 -0.0171106 0)
(-0.281904 -0.0327381 0)
(-0.282858 -0.048556 0)
(-0.283975 -0.0645752 0)
(-0.28534 -0.0808246 0)
(-0.287018 -0.0973293 0)
(-0.289135 -0.114141 0)
(-0.291804 -0.131327 0)
(-0.295182 -0.148987 0)
(-0.299377 -0.167239 0)
(-0.304446 -0.186188 0)
(-0.310236 -0.205845 0)
(-0.316262 -0.225977 0)
(-0.321468 -0.245883 0)
(-0.324061 -0.264094 0)
(-0.321418 -0.278134 0)
(-0.310343 -0.284471 0)
(-0.287773 -0.278954 0)
(-0.252037 -0.257962 0)
(-0.204426 -0.220272 0)
(-0.150302 -0.169185 0)
(-0.0983963 -0.113136 0)
(-0.0571412 -0.062778 0)
(-0.0296845 -0.0246902 0)
(-0.0134989 0.000729324 0)
(-0.00478665 0.0162004 0)
(-0.000743126 0.0239143 0)
(0.000665525 0.0252032 0)
(0.000625986 0.0203327 0)
(0.000152727 0.00903253 0)
(-0.00180266 0.00101004 0)
(-0.0107173 0.0139236 0)
(-0.0249412 0.034568 0)
(-0.0422915 0.0611324 0)
(-0.0635235 0.0906004 0)
(-0.0875293 0.121954 0)
(-0.114333 0.153584 0)
(-0.142001 0.18371 0)
(-0.169261 0.209742 0)
(-0.194007 0.229752 0)
(-0.21535 0.242537 0)
(-0.232323 0.248048 0)
(-0.245045 0.246857 0)
(-0.253615 0.240144 0)
(-0.258876 0.229233 0)
(-0.261492 0.215524 0)
(-0.262448 0.200152 0)
(-0.262347 0.184029 0)
(-0.261857 0.16771 0)
(-0.26125 0.151547 0)
(-0.260827 0.135654 0)
(-0.260602 0.120076 0)
(-0.260665 0.104747 0)
(-0.260925 0.0896161 0)
(-0.261398 0.074591 0)
(-0.261984 0.0596205 0)
(-0.262692 0.0446319 0)
(-0.263448 0.0295936 0)
(-0.26427 0.014457 0)
(-0.265113 -0.00079284 0)
(-0.266008 -0.0161859 0)
(-0.266934 -0.031726 0)
(-0.267934 -0.0474299 0)
(-0.269011 -0.0632957 0)
(-0.270226 -0.0793346 0)
(-0.271612 -0.0955511 0)
(-0.273267 -0.111969 0)
(-0.275276 -0.12863 0)
(-0.277794 -0.145611 0)
(-0.280974 -0.163036 0)
(-0.285005 -0.181071 0)
(-0.290004 -0.199907 0)
(-0.295938 -0.219657 0)
(-0.302409 -0.240201 0)
(-0.308419 -0.260871 0)
(-0.312104 -0.280102 0)
(-0.310607 -0.295047 0)
(-0.300307 -0.301492 0)
(-0.277606 -0.294338 0)
(-0.240488 -0.269079 0)
(-0.190497 -0.224417 0)
(-0.134275 -0.165128 0)
(-0.0824025 -0.102841 0)
(-0.0440355 -0.0504489 0)
(-0.0205367 -0.0138941 0)
(-0.00766312 0.00875727 0)
(-0.00153421 0.020764 0)
(0.00072773 0.0244538 0)
(0.000838 0.0207065 0)
(0.000234811 0.00951404 0)
(-0.00242523 0.00736644 0)
(-0.0133171 0.0267641 0)
(-0.029751 0.0514653 0)
(-0.0489502 0.0813758 0)
(-0.0717731 0.113946 0)
(-0.0966575 0.147788 0)
(-0.123453 0.180752 0)
(-0.149863 0.210519 0)
(-0.17476 0.234489 0)
(-0.196207 0.251089 0)
(-0.213765 0.259708 0)
(-0.226779 0.260837 0)
(-0.235784 0.255552 0)
(-0.241134 0.245382 0)
(-0.243913 0.231863 0)
(-0.244811 0.216409 0)
(-0.244789 0.200052 0)
(-0.244288 0.183516 0)
(-0.243836 0.167163 0)
(-0.243525 0.151175 0)
(-0.243547 0.135545 0)
(-0.243807 0.120235 0)
(-0.244351 0.105139 0)
(-0.245046 0.0901902 0)
(-0.245908 0.0752948 0)
(-0.246828 0.0604087 0)
(-0.247828 0.0454705 0)
(-0.248831 0.0304588 0)
(-0.24987 0.0153361 0)
(-0.250896 9.53582e-05 0)
(-0.251948 -0.0152846 0)
(-0.252995 -0.0308014 0)
(-0.254079 -0.0464634 0)
(-0.255185 -0.0622621 0)
(-0.256361 -0.0781964 0)
(-0.257612 -0.0942579 0)
(-0.259003 -0.110447 0)
(-0.260576 -0.126778 0)
(-0.262444 -0.143286 0)
(-0.26473 -0.160059 0)
(-0.267634 -0.177237 0)
(-0.271367 -0.195048 0)
(-0.276141 -0.21376 0)
(-0.282011 -0.233616 0)
(-0.288676 -0.254585 0)
(-0.295157 -0.276034 0)
(-0.299469 -0.296191 0)
(-0.298469 -0.311706 0)
(-0.288058 -0.317471 0)
(-0.264196 -0.307271 0)
(-0.2247 -0.275789 0)
(-0.17187 -0.222114 0)
(-0.114175 -0.153805 0)
(-0.0643402 -0.0866218 0)
(-0.0310193 -0.0351728 0)
(-0.012369 -0.00228435 0)
(-0.00314368 0.0159143 0)
(0.000483408 0.0231356 0)
(0.000961992 0.021081 0)
(0.000306453 0.0101656 0)
(-0.00298895 0.015223 0)
(-0.0155727 0.0416521 0)
(-0.03378 0.0702522 0)
(-0.0542996 0.10316 0)
(-0.0780414 0.138297 0)
(-0.103011 0.17378 0)
(-0.128965 0.206995 0)
(-0.15341 0.235283 0)
(-0.175498 0.256293 0)
(-0.193526 0.268925 0)
(-0.207508 0.273202 0)
(-0.217072 0.27013 0)
(-0.223121 0.261236 0)
(-0.226165 0.248297 0)
(-0.227411 0.232928 0)
(-0.227456 0.216433 0)
(-0.227163 0.19966 0)
(-0.226773 0.183113 0)
(-0.226678 0.166972 0)
(-0.226821 0.151278 0)
(-0.227323 0.135942 0)
(-0.228023 0.12088 0)
(-0.228958 0.105976 0)
(-0.22998 0.0911611 0)
(-0.23112 0.0763548 0)
(-0.232271 0.0615222 0)
(-0.233472 0.0466147 0)
(-0.23465 0.0316185 0)
(-0.23585 0.0165047 0)
(-0.237021 0.00127025 0)
(-0.238209 -0.0141006 0)
(-0.239379 -0.029604 0)
(-0.240572 -0.0452441 0)
(-0.241762 -0.0610115 0)
(-0.242991 -0.0768991 0)
(-0.244241 -0.0928943 0)
(-0.245556 -0.108983 0)
(-0.246942 -0.125161 0)
(-0.248466 -0.141429 0)
(-0.250195 -0.157831 0)
(-0.252274 -0.174443 0)
(-0.254892 -0.191449 0)
(-0.258317 -0.209109 0)
(-0.26282 -0.227803 0)
(-0.268554 -0.247871 0)
(-0.27529 -0.269406 0)
(-0.282016 -0.291716 0)
(-0.286573 -0.312726 0)
(-0.285388 -0.328321 0)
(-0.273886 -0.33222 0)
(-0.247602 -0.316936 0)
(-0.204648 -0.276518 0)
(-0.148691 -0.211626 0)
(-0.090917 -0.134264 0)
(-0.0459096 -0.0655174 0)
(-0.0194645 -0.0183946 0)
(-0.00597453 0.00847301 0)
(-0.000279324 0.0207799 0)
(0.000913012 0.0212303 0)
(0.000354284 0.0108993 0)
(-0.0034197 0.02427 0)
(-0.0172708 0.0580591 0)
(-0.0367213 0.0902668 0)
(-0.0579842 0.125681 0)
(-0.0819757 0.162707 0)
(-0.106335 0.198924 0)
(-0.130819 0.231393 0)
(-0.152882 0.257321 0)
(-0.172028 0.27479 0)
(-0.186812 0.283233 0)
(-0.197664 0.283304 0)
(-0.204453 0.276468 0)
(-0.208362 0.264622 0)
(-0.209949 0.249654 0)
(-0.21043 0.233133 0)
(-0.21024 0.216159 0)
(-0.210107 0.199366 0)
(-0.210082 0.183038 0)
(-0.210452 0.16721 0)
(-0.211052 0.15182 0)
(-0.211973 0.136739 0)
(-0.213021 0.121863 0)
(-0.214248 0.107085 0)
(-0.215501 0.0923431 0)
(-0.216834 0.0775743 0)
(-0.218144 0.0627525 0)
(-0.219487 0.0478416 0)
(-0.220791 0.0328325 0)
(-0.222111 0.0177038 0)
(-0.223395 0.00245428 0)
(-0.224693 -0.012927 0)
(-0.225964 -0.0284364 0)
(-0.227253 -0.0440745 0)
(-0.228529 -0.0598338 0)
(-0.229829 -0.0757036 0)
(-0.231126 -0.0916727 0)
(-0.232452 -0.10772 0)
(-0.23379 -0.123834 0)
(-0.235176 -0.139993 0)
(-0.236626 -0.156211 0)
(-0.238228 -0.172506 0)
(-0.240098 -0.188993 0)
(-0.242456 -0.205851 0)
(-0.245597 -0.223438 0)
(-0.249861 -0.2422 0)
(-0.255485 -0.262642 0)
(-0.262255 -0.284896 0)
(-0.2691 -0.308178 0)
(-0.273499 -0.329852 0)
(-0.271411 -0.344718 0)
(-0.257615 -0.344963 0)
(-0.227553 -0.321649 0)
(-0.18007 -0.268988 0)
(-0.121409 -0.190869 0)
(-0.066121 -0.106848 0)
(-0.0292837 -0.0413998 0)
(-0.010304 -0.00247264 0)
(-0.00168307 0.0168472 0)
(0.000648382 0.02092 0)
(0.000370647 0.0116441 0)
(-0.00368947 0.0341979 0)
(-0.0183407 0.0755795 0)
(-0.0384879 0.1111 0)
(-0.059937 0.148529 0)
(-0.0835747 0.186773 0)
(-0.106773 0.2229 0)
(-0.129368 0.253811 0)
(-0.148876 0.276759 0)
(-0.165172 0.290384 0)
(-0.177063 0.294664 0)
(-0.185341 0.290856 0)
(-0.19005 0.280809 0)
(-0.192549 0.266679 0)
(-0.193349 0.250326 0)
(-0.193596 0.233183 0)
(-0.193533 0.216097 0)
(-0.193755 0.19949 0)
(-0.194156 0.183457 0)
(-0.194958 0.167935 0)
(-0.195929 0.152795 0)
(-0.197161 0.137901 0)
(-0.198449 0.123146 0)
(-0.199866 0.108442 0)
(-0.201266 0.0937373 0)
(-0.202724 0.078985 0)
(-0.204139 0.0641646 0)
(-0.205582 0.0492498 0)
(-0.206979 0.0342324 0)
(-0.208394 0.0190969 0)
(-0.209769 0.00384068 0)
(-0.21116 -0.0115431 0)
(-0.212521 -0.0270534 0)
(-0.213901 -0.042688 0)
(-0.215262 -0.0584431 0)
(-0.216643 -0.0743059 0)
(-0.218013 -0.0902706 0)
(-0.219398 -0.106312 0)
(-0.220771 -0.122424 0)
(-0.222152 -0.13857 0)
(-0.223523 -0.15475 0)
(-0.224924 -0.17094 0)
(-0.226403 -0.187197 0)
(-0.228095 -0.2036 0)
(-0.230228 -0.220416 0)
(-0.23314 -0.238027 0)
(-0.237251 -0.257058 0)
(-0.242828 -0.278094 0)
(-0.249685 -0.301346 0)
(-0.256475 -0.325695 0)
(-0.26029 -0.347655 0)
(-0.256298 -0.360455 0)
(-0.238853 -0.354277 0)
(-0.203436 -0.319013 0)
(-0.150907 -0.250253 0)
(-0.0910703 -0.158902 0)
(-0.0425825 -0.0736656 0)
(-0.0161545 -0.0180483 0)
(-0.00384821 0.0106478 0)
(0.00018544 0.0198148 0)
(0.000351571 0.0122821 0)
(-0.0037587 0.044537 0)
(-0.0186875 0.0935678 0)
(-0.0389764 0.13204 0)
(-0.0600899 0.170929 0)
(-0.0828612 0.209708 0)
(-0.104503 0.245012 0)
(-0.124987 0.273747 0)
(-0.141965 0.293351 0)
(-0.155667 0.303082 0)
(-0.165124 0.303446 0)
(-0.171416 0.296245 0)
(-0.174689 0.28361 0)
(-0.176377 0.267831 0)
(-0.176874 0.250636 0)
(-0.177216 0.233261 0)
(-0.177459 0.216292 0)
(-0.178089 0.199966 0)
(-0.178887 0.184232 0)
(-0.180044 0.16897 0)
(-0.181294 0.154017 0)
(-0.182746 0.139248 0)
(-0.184196 0.124562 0)
(-0.185743 0.109893 0)
(-0.187244 0.0951977 0)
(-0.188793 0.0804426 0)
(-0.19029 0.0656094 0)
(-0.191813 0.0506799 0)
(-0.193288 0.0356445 0)
(-0.194782 0.020493 0)
(-0.196233 0.00522069 0)
(-0.197699 -0.0101747 0)
(-0.199133 -0.025695 0)
(-0.200581 -0.0413334 0)
(-0.202006 -0.0570906 0)
(-0.203448 -0.0729502 0)
(-0.204873 -0.0889135 0)
(-0.206311 -0.104952 0)
(-0.20773 -0.121069 0)
(-0.209145 -0.137222 0)
(-0.210525 -0.153415 0)
(-0.211882 -0.169596 0)
(-0.213215 -0.185793 0)
(-0.214582 -0.202002 0)
(-0.216117 -0.218388 0)
(-0.218065 -0.235193 0)
(-0.220839 -0.252983 0)
(-0.22489 -0.272463 0)
(-0.23058 -0.294427 0)
(-0.237526 -0.318958 0)
(-0.244121 -0.344394 0)
(-0.246621 -0.365838 0)
(-0.239552 -0.374273 0)
(-0.216675 -0.357664 0)
(-0.17465 -0.305283 0)
(-0.1174 -0.217536 0)
(-0.0602571 -0.11668 0)
(-0.0235221 -0.0399916 0)
(-0.00691683 0.00163911 0)
(-0.000471439 0.0175332 0)
(0.000304326 0.0127547 0)
(-0.00363892 0.0548937 0)
(-0.0183552 0.111606 0)
(-0.0382823 0.152753 0)
(-0.0586214 0.192639 0)
(-0.0801309 0.231397 0)
(-0.0999704 0.265339 0)
(-0.118273 0.29151 0)
(-0.132874 0.307633 0)
(-0.144311 0.313606 0)
(-0.151804 0.310416 0)
(-0.15664 0.300343 0)
(-0.158995 0.285686 0)
(-0.160296 0.268768 0)
(-0.160787 0.251105 0)
(-0.16138 0.233721 0)
(-0.161974 0.216954 0)
(-0.162975 0.200903 0)
(-0.164091 0.185411 0)
(-0.165507 0.170335 0)
(-0.166947 0.155497 0)
(-0.168542 0.140797 0)
(-0.170095 0.12614 0)
(-0.171726 0.111484 0)
(-0.173297 0.0967851 0)
(-0.174914 0.0820247 0)
(-0.176475 0.0671813 0)
(-0.178067 0.0522428 0)
(-0.17961 0.037196 0)
(-0.181174 0.0220354 0)
(-0.182695 0.00675232 0)
(-0.18423 -0.00865059 0)
(-0.185729 -0.0241792 0)
(-0.18724 -0.0398217 0)
(-0.188723 -0.0555841 0)
(-0.190219 -0.071445 0)
(-0.191695 -0.0874137 0)
(-0.193182 -0.103458 0)
(-0.194647 -0.119592 0)
(-0.196109 -0.135769 0)
(-0.197533 -0.152005 0)
(-0.198919 -0.168234 0)
(-0.200241 -0.184479 0)
(-0.201508 -0.200678 0)
(-0.202772 -0.216926 0)
(-0.204165 -0.233313 0)
(-0.206002 -0.250261 0)
(-0.208706 -0.268374 0)
(-0.21288 -0.288656 0)
(-0.21876 -0.311928 0)