/*--------------------------------*- C++ -*----------------------------------*\
| =========                 |                                                 |
| \\      /  F ield         | OpenFOAM: The Open Source CFD Toolbox           |
|  \\    /   O peration     | Version:  2406                                  |
|   \\  /    A nd           | Website:  www.openfoam.com                      |
|    \\/     M anipulation  |                                                 |
\*---------------------------------------------------------------------------*/
FoamFile
{
    version     2.0;
    format      ascii;
    arch        "LSB;label=32;scalar=64";
    class       volVectorField;
    location    "27.6";
    object      U;
}
// * * * * * * * * * * * * * * * * * * * * * * * * * * * * * * * * * * * * * //

dimensions      [0 1 -1 0 0 0 0];

internalField   nonuniform List<vector> 
900
(
(0.000615383 -0.000617086 0)
(0.00321797 -0.000776455 0)
(0.00557714 -0.00056962 0)
(0.00695341 -0.000251558 0)
(0.00719414 -5.60845e-05 0)
(0.00666134 7.83427e-05 0)
(0.00535098 0.000224532 0)
(0.00284317 0.000194922 0)
(-0.00196098 -0.000145475 0)
(-0.0106293 0.000165715 0)
(-0.0239585 0.00219349 0)
(-0.0414479 0.00512564 0)
(-0.0610382 0.0071704 0)
(-0.0791882 0.00741379 0)
(-0.0926366 0.00589841 0)
(-0.0993329 0.00308206 0)
(-0.0979132 -0.000563664 0)
(-0.0878408 -0.00441257 0)
(-0.0693689 -0.0080009 0)
(-0.0441589 -0.0106304 0)
(-0.0151863 -0.011479 0)
(0.0128749 -0.00987523 0)
(0.0348555 -0.00560684 0)
(0.04635 9.37833e-05 0)
(0.0455633 0.00433881 0)
(0.0354479 0.00526433 0)
(0.022717 0.00394551 0)
(0.012095 0.00237829 0)
(0.00500373 0.00125445 0)
(0.000776199 0.000616521 0)
(0.00088634 -0.00328408 0)
(0.00528289 -0.00478643 0)
(0.00830334 -0.00320827 0)
(0.00897898 -0.000772943 0)
(0.00668964 0.00133709 0)
(0.00122914 0.00333826 0)
(-0.00877945 0.00610854 0)
(-0.0256036 0.0108497 0)
(-0.0509477 0.0184341 0)
(-0.0832077 0.0270851 0)
(-0.116673 0.0330389 0)
(-0.146349 0.0343575 0)
(-0.169863 0.0309255 0)
(-0.186091 0.023487 0)
(-0.194712 0.0131855 0)
(-0.19559 0.00115183 0)
(-0.188547 -0.0117036 0)
(-0.173437 -0.0246552 0)
(-0.150565 -0.0364335 0)
(-0.120446 -0.0452773 0)
(-0.0846269 -0.0488678 0)
(-0.0459725 -0.0450985 0)
(-0.0088753 -0.0330256 0)
(0.0208692 -0.0147294 0)
(0.038021 0.00375753 0)
(0.0409615 0.0156873 0)
(0.0338519 0.0189356 0)
(0.0220281 0.0161313 0)
(0.0106131 0.0111146 0)
(0.00163932 0.00516561 0)
(0.00102269 -0.00640713 0)
(0.00486598 -0.00828823 0)
(0.00556524 -0.00389723 0)
(0.00216943 0.0021963 0)
(-0.00670177 0.00854149 0)
(-0.022787 0.016497 0)
(-0.048707 0.0282585 0)
(-0.0843031 0.0429881 0)
(-0.124041 0.0557236 0)
(-0.161793 0.0625454 0)
(-0.19407 0.0628355 0)
(-0.219455 0.0573302 0)
(-0.238016 0.0471283 0)
(-0.250193 0.0333162 0)
(-0.256474 0.0169221 0)
(-0.257106 -0.00126653 0)
(-0.252297 -0.0206253 0)
(-0.241503 -0.040451 0)
(-0.224028 -0.0593756 0)
(-0.199162 -0.0752558 0)
(-0.166639 -0.0848736 0)
(-0.127176 -0.0844949 0)
(-0.0832846 -0.0712834 0)
(-0.0401476 -0.045824 0)
(-0.00561448 -0.0150637 0)
(0.0135917 0.0095266 0)
(0.0193955 0.0222302 0)
(0.0163955 0.0246291 0)
(0.00928796 0.0206523 0)
(0.00145799 0.0109272 0)
(0.000843197 -0.00910463 0)
(0.00198243 -0.00938276 0)
(-0.0022358 -0.000167274 0)
(-0.0129687 0.012053 0)
(-0.0324754 0.0267713 0)
(-0.0627806 0.0455964 0)
(-0.10238 0.0667715 0)
(-0.144942 0.0844184 0)
(-0.183894 0.0939635 0)
(-0.216034 0.0947119 0)
(-0.24067 0.0879827 0)
(-0.258364 0.0755701 0)
(-0.270285 0.0592041 0)
(-0.277557 0.0401522 0)
(-0.281209 0.0191816 0)
(-0.281903 -0.00348212 0)
(-0.279954 -0.0276463 0)
(-0.275074 -0.0527401 0)
(-0.266409 -0.0779662 0)
(-0.252373 -0.10134 0)
(-0.230773 -0.119405 0)
(-0.199302 -0.127044 0)
(-0.15686 -0.118813 0)
(-0.105799 -0.0917467 0)
(-0.054395 -0.050199 0)
(-0.0162947 -0.00908036 0)
(0.00111847 0.0165436 0)
(0.00604749 0.0268948 0)
(0.00458496 0.0264563 0)
(0.000629045 0.0148998 0)
(7.23759e-05 -0.00970427 0)
(-0.00395444 -0.00535801 0)
(-0.0153027 0.0111172 0)
(-0.0356988 0.0324665 0)
(-0.0665918 0.0580572 0)
(-0.106497 0.0857708 0)
(-0.149121 0.109243 0)
(-0.187298 0.12266 0)
(-0.217472 0.12493 0)
(-0.239155 0.117928 0)
(-0.253188 0.104182 0)
(-0.261266 0.0861524 0)
(-0.26513 0.0656304 0)
(-0.266434 0.0437267 0)
(-0.26655 0.0208898 0)
(-0.26641 -0.00289115 0)
(-0.266358 -0.0278614 0)
(-0.266555 -0.0544012 0)
(-0.266665 -0.0825615 0)
(-0.265308 -0.111472 0)
(-0.259633 -0.138494 0)
(-0.245264 -0.158613 0)
(-0.217001 -0.164317 0)
(-0.171517 -0.147649 0)
(-0.111654 -0.105298 0)
(-0.0511031 -0.0470702 0)
(-0.0129581 0.000608265 0)
(-0.00119518 0.0233067 0)
(0.00135201 0.0277826 0)
(0.000245336 0.0165285 0)
(-0.00153909 -0.0063391 0)
(-0.0126239 0.00582288 0)
(-0.0318033 0.0315211 0)
(-0.06106 0.0630892 0)
(-0.0987684 0.0972041 0)
(-0.139847 0.127389 0)
(-0.176676 0.146363 0)
(-0.204618 0.151518 0)
(-0.223042 0.144964 0)
(-0.233115 0.130143 0)
(-0.237048 0.110472 0)
(-0.237219 0.088536 0)
(-0.23548 0.0658016 0)
(-0.2332 0.042922 0)
(-0.23115 0.0200021 0)
(-0.229847 -0.00301786 0)
(-0.22966 -0.0265178 0)
(-0.231192 -0.0512798 0)
(-0.234744 -0.0779984 0)
(-0.24038 -0.107204 0)
(-0.246735 -0.138372 0)
(-0.250151 -0.168695 0)
(-0.243798 -0.191566 0)
(-0.219338 -0.196267 0)
(-0.170996 -0.170752 0)
(-0.102369 -0.110401 0)
(-0.0343684 -0.0336148 0)
(-0.00452619 0.0137505 0)
(0.000465612 0.0267035 0)
(0.000417227 0.0172493 0)
(-0.00371536 0.0025067 0)
(-0.0221764 0.0247036 0)
(-0.047826 0.0596323 0)
(-0.0822924 0.0991819 0)
(-0.120605 0.136557 0)
(-0.156327 0.1631 0)
(-0.183259 0.173577 0)
(-0.199997 0.169119 0)
(-0.207956 0.154133 0)
(-0.20973 0.13314 0)
(-0.208344 0.109844 0)
(-0.205924 0.0862556 0)
(-0.20368 0.0631386 0)
(-0.20197 0.0404881 0)
(-0.200664 0.0180768 0)
(-0.199614 -0.00429261 0)
(-0.198968 -0.026832 0)
(-0.199188 -0.0497646 0)
(-0.200978 -0.0736434 0)
(-0.20539 -0.099401 0)
(-0.213194 -0.128173 0)
(-0.223656 -0.160285 0)
(-0.232662 -0.193296 0)
(-0.231543 -0.219165 0)
(-0.208973 -0.222627 0)
(-0.156741 -0.185271 0)
(-0.0796481 -0.101653 0)
(-0.0111984 -0.0101015 0)
(0.000974621 0.0258777 0)
(0.000358154 0.018353 0)
(-0.00575858 0.0169322 0)
(-0.0299805 0.0496832 0)
(-0.0591438 0.0920399 0)
(-0.0944926 0.135771 0)
(-0.128814 0.171313 0)
(-0.156391 0.190191 0)
(-0.173526 0.19066 0)
(-0.18152 0.177212 0)
(-0.183117 0.155855 0)
(-0.181745 0.131598 0)
(-0.180049 0.107481 0)
(-0.179141 0.0843098 0)
(-0.179195 0.0619034 0)
(-0.179669 0.0396977 0)
(-0.180017 0.0173752 0)
(-0.179856 -0.00518638 0)
(-0.179194 -0.0278795 0)
(-0.178324 -0.0505271 0)
(-0.177939 -0.0732053 0)
(-0.179024 -0.0964048 0)
(-0.182941 -0.121238 0)
(-0.190914 -0.14939 0)
(-0.202593 -0.182098 0)
(-0.213521 -0.217231 0)
(-0.213577 -0.244568 0)
(-0.189107 -0.242334 0)
(-0.129943 -0.183263 0)
(-0.0418458 -0.0661433 0)
(0.00191771 0.0183444 0)
(-0.00151377 0.0199805 0)
(-0.0070289 0.0354571 0)
(-0.0343237 0.0779392 0)
(-0.0639376 0.124943 0)
(-0.0969181 0.16888 0)
(-0.125112 0.19883 0)
(-0.144679 0.208345 0)
(-0.15434 0.199495 0)
(-0.15722 0.179354 0)
(-0.156607 0.154733 0)
(-0.155798 0.130167 0)
(-0.156208 0.107151 0)
(-0.157913 0.0851888 0)
(-0.160323 0.0634177 0)
(-0.162598 0.0411406 0)
(-0.164167 0.0182393 0)
(-0.164657 -0.00509954 0)
(-0.164055 -0.0284183 0)
(-0.162568 -0.0513301 0)
(-0.160744 -0.0735892 0)
(-0.159393 -0.0954107 0)
(-0.159762 -0.117642 0)
(-0.163445 -0.142011 0)
(-0.171789 -0.170911 0)
(-0.184174 -0.205937 0)
(-0.19522 -0.243779 0)
(-0.192456 -0.26956 0)
(-0.16106 -0.251151 0)
(-0.0898495 -0.155386 0)
(-0.00383491 -0.00881884 0)
(-8.68303e-05 0.0236428 0)
(-0.0071944 0.0556986 0)
(-0.0346153 0.106673 0)
(-0.0621801 0.155673 0)
(-0.09089 0.196954 0)
(-0.112703 0.219631 0)
(-0.125899 0.220077 0)
(-0.130989 0.203805 0)
(-0.131955 0.179616 0)
(-0.131851 0.154282 0)
(-0.133104 0.13096 0)
(-0.135903 0.109432 0)
(-0.139776 0.0883457 0)
(-0.143852 0.0665777 0)
(-0.147376 0.0435876 0)
(-0.149837 0.0195043 0)
(-0.15093 -0.00520064 0)
(-0.150637 -0.0298066 0)
(-0.149097 -0.0536398 0)
(-0.146673 -0.0761833 0)
(-0.143925 -0.0973196 0)
(-0.141779 -0.117539 0)
(-0.141612 -0.138285 0)
(-0.145208 -0.162267 0)
(-0.154093 -0.193194 0)
(-0.16789 -0.232599 0)
(-0.17762 -0.273755 0)
(-0.168852 -0.289622 0)
(-0.120068 -0.232352 0)
(-0.0342631 -0.0683697 0)
(0.0111383 0.0242269 0)
(-0.00629104 0.0751146 0)
(-0.0313294 0.133485 0)
(-0.0552937 0.182413 0)
(-0.0790802 0.219398 0)
(-0.0953563 0.234467 0)
(-0.10421 0.227113 0)
(-0.107106 0.20568 0)
(-0.108075 0.179801 0)
(-0.109413 0.155375 0)
(-0.112543 0.13381 0)
(-0.11693 0.113595 0)
(-0.121994 0.0929964 0)
(-0.126865 0.0709088 0)
(-0.130978 0.0470242 0)
(-0.133894 0.0216772 0)
(-0.135401 -0.00444335 0)
(-0.135467 -0.030435 0)
(-0.13423 -0.0554519 0)
(-0.131983 -0.0788324 0)
(-0.129151 -0.100298 0)
(-0.126353 -0.120052 0)
(-0.124377 -0.138964 0)
(-0.12445 -0.158837 0)
(-0.128041 -0.183769 0)
(-0.139178 -0.218693 0)
(-0.153336 -0.265415 0)
(-0.160123 -0.305605 0)
(-0.131081 -0.291908 0)
(-0.0740914 -0.160349 0)
(0.0178966 0.0124262 0)
(-0.00456747 0.0915278 0)
(-0.0253708 0.156784 0)
(-0.0449175 0.204515 0)
(-0.0637137 0.236813 0)
(-0.0755205 0.245256 0)
(-0.0816309 0.232083 0)
(-0.083791 0.20757 0)
(-0.0854965 0.181431 0)
(-0.0881355 0.158366 0)
(-0.0923731 0.13826 0)
(-0.097422 0.118843 0)
(-0.102809 0.0982905 0)
(-0.107806 0.0756149 0)
(-0.112042 0.0507028 0)
(-0.115149 0.0240409 0)
(-0.116973 -0.00349911 0)
(-0.117473 -0.0308506 0)
(-0.116734 -0.0569952 0)
(-0.114959 -0.0811272 0)
(-0.112507 -0.102866 0)
(-0.109938 -0.122341 0)
(-0.10763 -0.140426 0)
(-0.106774 -0.158245 0)
(-0.107066 -0.17911 0)
(-0.114629 -0.207573 0)
(-0.126381 -0.250955 0)
(-0.14106 -0.302216 0)
(-0.127992 -0.325632 0)
(-0.0968988 -0.238366 0)
(0.00774093 -0.0172429 0)
(-0.00231159 0.103395 0)
(-0.0177 0.175472 0)
(-0.0325763 0.221635 0)
(-0.0467281 0.249713 0)
(-0.0551101 0.252872 0)
(-0.0596631 0.235541 0)
(-0.0618106 0.209275 0)
(-0.0642114 0.183541 0)
(-0.0674725 0.16181 0)
(-0.0718627 0.14282 0)
(-0.0766772 0.123923 0)
(-0.0816384 0.103311 0)
(-0.0862147 0.0801119 0)
(-0.0901902 0.0543392 0)
(-0.0932753 0.0265883 0)
(-0.095357 -0.00215715 0)
(-0.0963837 -0.0307325 0)
(-0.0964081 -0.057982 0)
(-0.0955687 -0.0830052 0)
(-0.094033 -0.105324 0)
(-0.0924133 -0.124792 0)
(-0.0902936 -0.14234 0)
(-0.0898104 -0.158704 0)
(-0.0883335 -0.177012 0)
(-0.0938348 -0.200391 0)
(-0.100881 -0.238294 0)
(-0.1185 -0.291905 0)
(-0.116416 -0.341919 0)
(-0.106765 -0.297765 0)
(-0.0111863 -0.0702958 0)
(0.000189139 0.10987 0)
(-0.00914123 0.189034 0)
(-0.0193852 0.234056 0)
(-0.0291582 0.258941 0)
(-0.0347983 0.258569 0)
(-0.0383092 0.238814 0)
(-0.0405105 0.211843 0)
(-0.0431845 0.186648 0)
(-0.0463922 0.165796 0)
(-0.0502582 0.147398 0)
(-0.0542694 0.128674 0)
(-0.0583358 0.107869 0)
(-0.0621193 0.084205 0)
(-0.0655274 0.0577722 0)
(-0.068366 0.0292307 0)
(-0.0705854 -0.000363233 0)
(-0.0721302 -0.0297782 0)
(-0.0730058 -0.0578089 0)
(-0.0733682 -0.0834233 0)
(-0.0729985 -0.106223 0)
(-0.0730693 -0.12582 0)
(-0.0717324 -0.143376 0)
(-0.0729862 -0.15919 0)
(-0.0709844 -0.176284 0)
(-0.0760815 -0.195546 0)
(-0.0778654 -0.227064 0)
(-0.0955311 -0.276791 0)
(-0.0972967 -0.343814 0)
(-0.10184 -0.34243 0)
(-0.0197663 -0.140558 0)
(0.00265409 0.110702 0)
(-0.00033531 0.197089 0)
(-0.00605368 0.241865 0)
(-0.0118106 0.264845 0)
(-0.0152151 0.262449 0)
(-0.0180095 0.241356 0)
(-0.0202429 0.213976 0)
(-0.0228274 0.189032 0)
(-0.0254496 0.168605 0)
(-0.0282405 0.150497 0)
(-0.0309455 0.131889 0)
(-0.0336705 0.111048 0)
(-0.0362905 0.0872373 0)
(-0.0388442 0.0605555 0)
(-0.0412496 0.0316651 0)
(-0.0435082 0.0016451 0)
(-0.0456072 -0.0282148 0)
(-0.0473967 -0.0567566 0)
(-0.0492948 -0.0827531 0)
(-0.0501299 -0.105928 0)
(-0.0523752 -0.125543 0)
(-0.0518657 -0.143074 0)
(-0.0554556 -0.158417 0)
(-0.0534318 -0.175318 0)
(-0.0601023 -0.192713 0)
(-0.0581894 -0.220535 0)
(-0.0756945 -0.264363 0)
(-0.0768406 -0.33855 0)
(-0.0908982 -0.37006 0)
(-0.0186541 -0.205501 0)
(0.00471349 0.105927 0)
(0.00822084 0.19957 0)
(0.00692098 0.245561 0)
(0.00500875 0.267902 0)
(0.00370064 0.265051 0)
(0.00178962 0.243877 0)
(-0.000150962 0.216591 0)
(-0.002288 0.191668 0)
(-0.00403839 0.171138 0)
(-0.00555638 0.15289 0)
(-0.00680637 0.134179 0)
(-0.00806591 0.113284 0)
(-0.00941185 0.0894649 0)
(-0.0110038 0.0628055 0)
(-0.0128813 0.0339647 0)
(-0.0150612 0.00399378 0)
(-0.0177066 -0.0257706 0)
(-0.0202148 -0.0543119 0)
(-0.0239053 -0.0803313 0)
(-0.0258716 -0.103636 0)
(-0.0307792 -0.123373 0)
(-0.0312533 -0.141076 0)
(-0.0379191 -0.156284 0)
(-0.0359084 -0.173319 0)
(-0.0450789 -0.189279 0)
(-0.0404035 -0.214568 0)
(-0.0581989 -0.252235 0)
(-0.056009 -0.329787 0)
(-0.0777349 -0.389411 0)
(-0.0152631 -0.263354 0)
(0.00613986 0.0960841 0)
(0.0160703 0.196523 0)
(0.0191872 0.245039 0)
(0.0208237 0.268019 0)
(0.0216188 0.265957 0)
(0.0206731 0.245428 0)
(0.0190664 0.218196 0)
(0.0173766 0.192838 0)
(0.0165203 0.171725 0)
(0.0163486 0.153076 0)
(0.0166721 0.134258 0)
(0.0170213 0.113516 0)
(0.0171053 0.0900645 0)
(0.0166459 0.0639277 0)
(0.0154175 0.0357288 0)
(0.0135022 0.00637509 0)
(0.0102855 -0.0228037 0)
(0.007285 -0.0508213 0)
(0.00174258 -0.0766333 0)
(-0.00123762 -0.0995006 0)
(-0.00891172 -0.119424 0)
(-0.0100785 -0.13691 0)
(-0.0203436 -0.152381 0)
(-0.0182162 -0.169786 0)
(-0.0310907 -0.185854 0)
(-0.0247415 -0.210827 0)
(-0.0443718 -0.24321 0)
(-0.0382913 -0.319596 0)
(-0.0661452 -0.39887 0)
(-0.0106392 -0.311681 0)
(0.00672858 0.0821396 0)
(0.0226758 0.188002 0)
(0.0301928 0.240508 0)
(0.0355364 0.265331 0)
(0.038694 0.265445 0)
(0.0392003 0.246708 0)
(0.0383505 0.220087 0)
(0.0372555 0.194246 0)
(0.0371614 0.172181 0)
(0.0380956 0.152744 0)
(0.0397403 0.133579 0)
(0.0414802 0.112926 0)
(0.042813 0.0899472 0)
(0.0433969 0.0645474 0)
(0.0427113 0.0373198 0)
(0.04118 0.00900252 0)
(0.0374281 -0.0191831 0)
(0.0340118 -0.0462234 0)
(0.0269099 -0.0713521 0)
(0.0230157 -0.0935503 0)
(0.012514 -0.113491 0)
(0.0107865 -0.130679 0)
(-0.00330657 -0.147027 0)
(-0.000564142 -0.164033 0)
(-0.0179846 -0.180702 0)
(-0.00965782 -0.20518 0)
(-0.0324563 -0.233853 0)
(-0.0225126 -0.309189 0)
(-0.0565174 -0.404345 0)
(-0.00633597 -0.352559 0)
(0.00627577 0.0655491 0)
(0.0273798 0.174045 0)
(0.039497 0.231547 0)
(0.0486025 0.259456 0)
(0.054422 0.262674 0)
(0.0565374 0.246395 0)
(0.0564815 0.220572 0)
(0.0558542 0.194059 0)
(0.0562646 0.170727 0)
(0.0580146 0.150261 0)
(0.0607471 0.130683 0)
(0.0637446 0.110243 0)
(0.0662342 0.0880406 0)
(0.0679407 0.0637874 0)
(0.0677679 0.0380232 0)
(0.0668899 0.0113083 0)
(0.0626652 -0.0152715 0)
(0.0591919 -0.0409247 0)
(0.0506474 -0.0647633 0)
(0.0460831 -0.086258 0)
(0.0332978 -0.105677 0)
(0.0308909 -0.122598 0)
(0.0133804 -0.139652 0)
(0.0168622 -0.156532 0)
(-0.00597655 -0.174995 0)
(0.00461963 -0.198934 0)
(-0.0235773 -0.225757 0)
(-0.00977854 -0.297966 0)
(-0.0496273 -0.403657 0)
(-0.00195005 -0.387135 0)
(0.00477407 0.0482132 0)
(0.0295677 0.154974 0)
(0.0463854 0.2183 0)
(0.059778 0.250363 0)
(0.0687346 0.257765 0)
(0.0732485 0.245146 0)
(0.0747307 0.221217 0)
(0.0749425 0.194608 0)
(0.0757511 0.170038 0)
(0.0778848 0.148242 0)
(0.0811245 0.127918 0)
(0.0848781 0.107451 0)
(0.088006 0.0859585 0)
(0.0906206 0.0629223 0)
(0.0906302 0.038753 0)
(0.0904167 0.0138359 0)
(0.0856624 -0.010895 0)
(0.0824119 -0.0348402 0)
(0.0725272 -0.0571758 0)
(0.0677517 -0.0776445 0)
(0.0528713 -0.096253 0)
(0.0500949 -0.113187 0)
(0.0296351 -0.130318 0)
(0.0335677 -0.147305 0)
(0.00589829 -0.166756 0)
(0.0192082 -0.189761 0)
(-0.0164134 -0.216162 0)
(0.00193096 -0.285583 0)
(-0.0451191 -0.400305 0)
(0.0020434 -0.417087 0)
(0.00275528 0.0323583 0)
(0.0288247 0.1315 0)
(0.0504276 0.200134 0)
(0.0680265 0.237411 0)
(0.0805238 0.249445 0)
(0.0877066 0.240967 0)
(0.0910373 0.219462 0)
(0.0923131 0.19323 0)
(0.093535 0.16767 0)
(0.0958628 0.144567 0)
(0.0992622 0.123458 0)
(0.103541 0.102964 0)
(0.106961 0.0822725 0)
(0.110487 0.0606905 0)
(0.11058 0.038433 0)
(0.111247 0.0156827 0)
(0.106066 -0.00681084 0)
(0.103471 -0.0286313 0)
(0.0924436 -0.0491107 0)
(0.0880803 -0.0681688 0)
(0.0713503 -0.0858106 0)
(0.0688228 -0.10243 0)
(0.0456421 -0.119396 0)
(0.0501143 -0.136834 0)
(0.0176406 -0.156671 0)
(0.0330622 -0.179571 0)
(-0.0109071 -0.205838 0)
(0.012699 -0.270977 0)
(-0.0432341 -0.391625 0)
(0.00624504 -0.442002 0)
(0.000942315 0.019426 0)
(0.0252585 0.105136 0)
(0.0509072 0.17775 0)
(0.0730178 0.220593 0)
(0.0894567 0.238099 0)
(0.100513 0.23475 0)
(0.107017 0.217014 0)
(0.110459 0.192357 0)
(0.112683 0.16658 0)
(0.115319 0.142388 0)
(0.118426 0.120355 0)
(0.122766 0.0995563 0)
(0.125728 0.0793675 0)
(0.129721 0.0590196 0)
(0.129385 0.0385606 0)
(0.130792 0.0179305 0)
(0.124962 -0.00230984 0)
(0.12327 -0.0219697 0)
(0.111136 -0.0405759 0)
(0.10776 -0.0581009 0)
(0.0892485 -0.0746918 0)
(0.0876674 -0.0907279 0)
(0.0616952 -0.107325 0)
(0.0670446 -0.124666 0)
(0.0297875 -0.144171 0)
(0.047237 -0.166759 0)
(-0.00534088 -0.192621 0)
(0.0243726 -0.254864 0)
(-0.0425161 -0.380279 0)
(0.0112474 -0.46247 0)
(0.000101024 0.00992494 0)
(0.019521 0.0781981 0)
(0.0476389 0.151198 0)
(0.0730409 0.199349 0)
(0.0935571 0.221897 0)
(0.108492 0.223551 0)
(0.118719 0.209943 0)
(0.125241 0.187765 0)
(0.12939 0.162782 0)
(0.133164 0.138309 0)
(0.136291 0.115805 0)
(0.140955 0.0949287 0)
(0.143339 0.0753321 0)
(0.147868 0.0562621 0)
(0.146949 0.0376452 0)
(0.149369 0.0192483 0)
(0.142898 0.001363 0)
(0.142582 -0.0159317 0)
(0.129494 -0.0324624 0)
(0.127771 -0.0481363 0)
(0.10757 -0.0634117 0)
(0.107573 -0.078324 0)
(0.078557 -0.0941929 0)
(0.0851733 -0.1108 0)
(0.0423651 -0.12976 0)
(0.0618648 -0.15179 0)
(-0.000293516 -0.177424 0)
(0.0364497 -0.237137 0)
(-0.042102 -0.365609 0)
(0.0180624 -0.481311 0)
(1.87222e-05 0.00386455 0)
(0.0132257 0.0545169 0)
(0.0401277 0.123389 0)
(0.0682439 0.174624 0)
(0.0926336 0.202316 0)
(0.112952 0.209168 0)
(0.128419 0.200442 0)
(0.139744 0.181781 0)
(0.147343 0.158848 0)
(0.153702 0.135104 0)
(0.157495 0.112719 0)
(0.162941 0.0919459 0)
(0.164509 0.0728558 0)
(0.169481 0.0548459 0)
(0.167396 0.0377642 0)
(0.170703 0.0213342 0)
(0.163045 0.00552326 0)
(0.164241 -0.00955781 0)
(0.149791 -0.0241415 0)
(0.149978 -0.0379365 0)
(0.127732 -0.0517877 0)
(0.129599 -0.0651849 0)
(0.0970885 -0.0799462 0)
(0.105133 -0.0948736 0)
(0.0561026 -0.112736 0)
(0.077947 -0.132849 0)
(0.00493641 -0.159223 0)
(0.0498871 -0.217642 0)
(-0.043072 -0.350833 0)
(0.0260416 -0.50257 0)
(-0.000147601 0.000178453 0)
(0.00693865 0.0359613 0)
(0.0289232 0.0957745 0)
(0.0559246 0.146564 0)
(0.0835133 0.176581 0)
(0.108094 0.187524 0)
(0.129129 0.183243 0)
(0.146405 0.168755 0)
(0.158868 0.14908 0)
(0.169766 0.127552 0)
(0.17579 0.106576 0)
(0.183739 0.0869011 0)
(0.185399 0.06891 0)
(0.191952 0.0522938 0)
(0.188976 0.036861 0)
(0.193962 0.0224243 0)
(0.185066 0.00869511 0)
(0.188397 -0.00413357 0)
(0.172325 -0.0166561 0)
(0.174967 -0.028285 0)
(0.150267 -0.0402919 0)
(0.154385 -0.0515172 0)
(0.117841 -0.0644754 0)
(0.127533 -0.0767601 0)
(0.0718144 -0.0930888 0)
(0.0958692 -0.110137 0)
(0.0107074 -0.138204 0)
(0.064203 -0.193773 0)
(-0.0490199 -0.333 0)
(0.0345575 -0.520775 0)
(-0.00164896 0.000529348 0)
(-0.000321375 0.0249706 0)
(0.01361 0.0746074 0)
(0.0386398 0.118616 0)
(0.0681851 0.149547 0)
(0.0988018 0.162684 0)
(0.125925 0.162169 0)
(0.150678 0.15179 0)
(0.169231 0.136087 0)
(0.186541 0.117684 0)
(0.19598 0.0992473 0)
(0.208211 0.0815172 0)
(0.210489 0.0652899 0)
(0.219806 0.0503507 0)
(0.215674 0.036734 0)
(0.222966 0.0242189 0)
(0.211971 0.0125239 0)
(0.217766 0.00180783 0)
(0.198885 -0.00861749 0)
(0.204206 -0.0180011 0)
(0.175767 -0.0279238 0)
(0.182503 -0.0366211 0)
(0.140922 -0.0473681 0)
(0.153013 -0.0564683 0)
(0.0906359 -0.070921 0)
(0.117761 -0.0838948 0)
(0.0216244 -0.113416 0)
(0.0825888 -0.163083 0)
(-0.0542978 -0.306531 0)
(0.0477319 -0.520966 0)
(-0.00637537 0.00577562 0)
(-0.0151647 0.0198433 0)
(-0.00738575 0.0576904 0)
(0.00969089 0.0893502 0)
(0.0416763 0.116209 0)
(0.0741828 0.128702 0)
(0.107662 0.131102 0)
(0.140071 0.125129 0)
(0.164787 0.114141 0)
(0.190296 0.100223 0)
(0.203935 0.0858111 0)
(0.22307 0.071474 0)
(0.226812 0.0582669 0)
(0.241659 0.0459466 0)
(0.236714 0.0348894 0)
(0.248876 0.0247226 0)
(0.235409 0.0154708 0)
(0.246051 0.00707359 0)
(0.223421 -0.000941154 0)
(0.233906 -0.00795453 0)
(0.200485 -0.0154169 0)
(0.212852 -0.021464 0)
(0.165147 -0.0294617 0)
(0.183317 -0.035312 0)
(0.114042 -0.0471737 0)
(0.147651 -0.0567643 0)
(0.0438367 -0.0870382 0)
(0.11143 -0.131538 0)
(-0.0387701 -0.271643 0)
(0.0747859 -0.506402 0)
(-0.0293183 0.0310909 0)
(-0.0445014 0.0233019 0)
(-0.0355444 0.0516921 0)
(-0.0172155 0.0663738 0)
(0.016469 0.08846 0)
(0.0537469 0.0938476 0)
(0.0916317 0.097804 0)
(0.132625 0.0936895 0)
(0.161565 0.0871103 0)
(0.196452 0.0770866 0)
(0.212601 0.0675419 0)
(0.240718 0.0566986 0)
(0.243999 0.0477189 0)
(0.267366 0.0381922 0)
(0.258992 0.0308504 0)
(0.279779 0.0229862 0)
(0.260372 0.0171893 0)
(0.280528 0.0107947 0)
(0.249822 0.00621887 0)
(0.271462 0.00109034 0)
(0.228162 -0.00277034 0)
(0.254108 -0.00687408 0)
(0.19525 -0.0111231 0)
(0.22968 -0.0148266 0)
(0.148773 -0.0227061 0)
(0.199448 -0.0308387 0)
(0.0853502 -0.0593138 0)
(0.165043 -0.111243 0)
(0.0083372 -0.249875 0)
(0.117569 -0.505792 0)
(0.0161099 0.0762838 0)
(-0.0661968 0.0187002 0)
(-0.0377413 0.0358224 0)
(-0.0488362 0.0338644 0)
(-0.00771597 0.0448184 0)
(0.0240082 0.0481597 0)
(0.0679816 0.0546635 0)
(0.114301 0.0538308 0)
(0.143858 0.0533983 0)
(0.19151 0.0485586 0)
(0.204416 0.0449264 0)
(0.249297 0.0388397 0)
(0.245522 0.034537 0)
(0.288914 0.0288142 0)
(0.269704 0.0249125 0)
(0.314044 0.0201431 0)
(0.280136 0.0168558 0)
(0.328243 0.0131625 0)
(0.279477 0.0103754 0)
(0.334405 0.00776331 0)
(0.269434 0.00512289 0)
(0.334735 0.00340678 0)
(0.250838 0.000151194 0)
(0.330959 -0.00142743 0)
(0.222944 -0.00682368 0)
(0.321133 -0.0122122 0)
(0.17531 -0.0316447 0)
(0.287228 -0.0866392 0)
(0.0750286 -0.22136 0)
(0.17867 -0.454932 0)
(0.0744535 0.0656871 0)
(0.0991914 0.0514699 0)
(0.144832 0.0352552 0)
(0.192707 0.0278308 0)
(0.202511 0.020435 0)
(0.257587 0.0174929 0)
(0.261956 0.0155368 0)
(0.328534 0.0149621 0)
(0.325032 0.014511 0)
(0.398431 0.0139327 0)
(0.383763 0.0133691 0)
(0.460347 0.012329 0)
(0.431679 0.0117122 0)
(0.511198 0.0102948 0)
(0.467423 0.0098894 0)
(0.551587 0.0081799 0)
(0.491969 0.00822869 0)
(0.58333 0.00618491 0)
(0.506911 0.0068782 0)
(0.608378 0.00430501 0)
(0.513644 0.00584208 0)
(0.628366 0.00239166 0)
(0.513093 0.00503924 0)
(0.644481 9.27723e-05 0)
(0.505028 0.00418761 0)
(0.654106 -0.00346469 0)
(0.473713 0.0010548 0)
(0.614309 -0.0196058 0)
(0.303283 -0.0337758 0)
(0.391989 -0.0964704 0)
)
;

boundaryField
{
    movingWall
    {
        type            fixedValue;
        value           uniform (1 0 0);
    }
    fixedWalls
    {
        type            noSlip;
    }
    frontAndBack
    {
        type            empty;
    }
}


// ************************************************************************* //
