/*--------------------------------*- C++ -*----------------------------------*\
| =========                 |                                                 |
| \\      /  F ield         | OpenFOAM: The Open Source CFD Toolbox           |
|  \\    /   O peration     | Version:  2406                                  |
|   \\  /    A nd           | Website:  www.openfoam.com                      |
|    \\/     M anipulation  |                                                 |
\*---------------------------------------------------------------------------*/
FoamFile
{
    version     2.0;
    format      ascii;
    arch        "LSB;label=32;scalar=64";
    class       surfaceScalarField;
    location    "30.4";
    object      phi;
}
// * * * * * * * * * * * * * * * * * * * * * * * * * * * * * * * * * * * * * //

dimensions      [0 3 -1 0 0 0 0];

oriented        oriented;

internalField   nonuniform List<scalar> 
7080
(
3.24106e-07
-3.2372e-07
1.53262e-06
-1.21856e-06
3.17043e-06
-1.63581e-06
4.82404e-06
-1.66298e-06
6.21693e-06
-1.39189e-06
7.21608e-06
-1.00539e-06
7.82804e-06
-6.10413e-07
8.10519e-06
-2.79971e-07
8.14297e-06
-3.52464e-08
7.99905e-06
1.43985e-07
7.70798e-06
2.94796e-07
7.23892e-06
4.71805e-07
6.52803e-06
7.16513e-07
5.46755e-06
1.06649e-06
3.93955e-06
1.53674e-06
1.81249e-06
2.13735e-06
-1.03746e-06
2.86309e-06
-4.72863e-06
3.70661e-06
-9.35769e-06
4.64735e-06
-1.49951e-05
5.65854e-06
-2.16646e-05
6.69385e-06
-2.9326e-05
7.68892e-06
-3.78503e-05
8.55448e-06
-4.70075e-05
9.18886e-06
-5.64604e-05
9.48389e-06
-6.57749e-05
9.34296e-06
-7.44417e-05
8.69078e-06
-8.19133e-05
7.48976e-06
-8.76449e-05
5.74254e-06
-9.11378e-05
3.4964e-06
-9.19782e-05
8.35969e-07
-8.98723e-05
-2.11787e-06
-8.46751e-05
-5.21657e-06
-7.64162e-05
-8.2847e-06
-6.53181e-05
-1.11296e-05
-5.18083e-05
-1.3546e-05
-3.65139e-05
-1.53337e-05
-2.02425e-05
-1.63129e-05
-3.93104e-06
-1.6353e-05
1.14243e-05
-1.53961e-05
2.48724e-05
-1.34852e-05
3.56143e-05
-1.0775e-05
4.31171e-05
-7.52857e-06
4.71854e-05
-4.08765e-06
4.7993e-05
-8.1731e-07
4.60331e-05
1.95647e-06
4.20236e-05
4.01537e-06
3.67559e-05
5.27667e-06
3.09714e-05
5.80009e-06
2.52482e-05
5.73694e-06
1.99798e-05
5.28637e-06
1.53646e-05
4.62735e-06
1.147e-05
3.91083e-06
8.25573e-06
3.22205e-06
5.64158e-06
2.62788e-06
3.52897e-06
2.11584e-06
1.85342e-06
1.68707e-06
6.47089e-07
1.20577e-06
-1.32188e-08
6.69524e-07
-1.3135e-08
1.16998e-06
-1.484e-06
3.79042e-06
-3.83994e-06
7.04899e-06
-4.87941e-06
1.02254e-05
-4.83747e-06
1.28601e-05
-4.01509e-06
1.46739e-05
-2.81817e-06
1.56169e-05
-1.54747e-06
1.57095e-05
-3.74339e-07
1.50427e-05
6.32115e-07
1.36456e-05
1.53632e-06
1.1497e-05
2.43935e-06
8.46028e-06
3.50019e-06
4.33046e-06
4.83696e-06
-1.17086e-06
6.55417e-06
-8.33411e-06
8.68351e-06
-1.74449e-05
1.12268e-05
-2.87313e-05
1.41239e-05
-4.23379e-05
1.72826e-05
-5.82658e-05
2.05402e-05
-7.63261e-05
2.36788e-05
-9.60966e-05
2.64189e-05
-0.000116933
2.84738e-05
-0.000138014
2.95795e-05
-0.000158428
2.95439e-05
-0.000177257
2.82536e-05
-0.000193652
2.5685e-05
-0.00020689
2.18824e-05
-0.000216388
1.69535e-05
-0.000221713
1.10472e-05
-0.000222575
4.35279e-06
-0.000218816
-2.9129e-06
-0.00021041
-1.04984e-05
-0.000197462
-1.81241e-05
-0.000180221
-2.54723e-05
-0.000159089
-3.21968e-05
-0.000134638
-3.79221e-05
-0.00010762
-4.22711e-05
-7.89642e-05
-4.48853e-05
-4.97533e-05
-4.54797e-05
-2.11859e-05
-4.38831e-05
5.50423e-06
-4.01013e-05
2.91358e-05
-3.43437e-05
4.86999e-05
-2.7042e-05
6.34571e-05
-1.88108e-05
7.30377e-05
-1.03785e-05
7.74786e-05
-2.48264e-06
7.72372e-05
4.24719e-06
7.31146e-05
9.37687e-06
6.61567e-05
1.27321e-05
5.74739e-05
1.43874e-05
4.81054e-05
1.46269e-05
3.88641e-05
1.38375e-05
3.03148e-05
1.2438e-05
2.27431e-05
1.07679e-05
1.62559e-05
9.10081e-06
1.08204e-05
7.53054e-06
6.40074e-06
6.1001e-06
3.01385e-06
4.57605e-06
7.9503e-07
2.88815e-06
7.72472e-07
1.64715e-06
-3.13139e-06
5.01367e-06
-7.22173e-06
9.00414e-06
-8.86839e-06
1.26791e-05
-8.52507e-06
1.55046e-05
-6.84095e-06
1.71247e-05
-4.44595e-06
1.74465e-05
-1.86824e-06
1.64243e-05
6.45451e-07
1.40718e-05
2.98811e-06
1.03067e-05
5.30362e-06
4.9698e-06
7.7827e-06
-2.23613e-06
1.07128e-05
-1.16767e-05
1.4288e-05
-2.37646e-05
1.86543e-05
-3.88645e-05
2.37996e-05
-5.72352e-05
2.96173e-05
-7.89218e-05
3.5835e-05
-0.000103676
4.20651e-05
-0.000130894
4.77908e-05
-0.000159659
5.24803e-05
-0.00018885
5.56502e-05
-0.000217301
5.69692e-05
-0.000243935
5.62616e-05
-0.000267856
5.35147e-05
-0.000288373
4.88205e-05
-0.000304994
4.23523e-05
-0.000317387
3.43143e-05
-0.000325341
2.49371e-05
-0.00032873
1.44538e-05
-0.000327487
3.11492e-06
-0.00032159
-8.81875e-06
-0.00031106
-2.10508e-05
-0.00029597
-3.325e-05
-0.000276466
-4.50241e-05
-0.000252793
-5.59277e-05
-0.000225332
-6.54507e-05
-0.000194624
-7.30521e-05
-0.000161404
-7.81821e-05
-0.000126601
-8.03595e-05
-9.13268e-05
-7.92305e-05
-5.68229e-05
-7.46716e-05
-2.43829e-05
-6.68413e-05
4.76309e-06
-5.62324e-05
2.95512e-05
-4.36309e-05
4.91997e-05
-3.00434e-05
6.3264e-05
-1.65519e-05
7.16905e-05
-4.17079e-06
7.4801e-05
6.28089e-06
7.32854e-05
1.4271e-05
6.81022e-05
1.9593e-05
6.03865e-05
2.23698e-05
5.12551e-05
2.29898e-05
4.17012e-05
2.20172e-05
3.24427e-05
2.00417e-05
2.39637e-05
1.76014e-05
1.64859e-05
1.50166e-05
1.01597e-05
1.2445e-05
5.07514e-06
9.66145e-06
1.53143e-06
6.44879e-06
2.30518e-06
1.89728e-06
-5.01951e-06
5.5253e-06
-1.08554e-05
9.54305e-06
-1.28732e-05
1.28763e-05
-1.18604e-05
1.4976e-05
-8.93226e-06
1.54598e-05
-4.93123e-06
1.41994e-05
-6.04107e-07
1.10572e-05
3.78475e-06
5.91228e-06
8.13224e-06
-1.49722e-06
1.27079e-05
-1.15261e-05
1.78068e-05
-2.46482e-05
2.38268e-05
-4.13355e-05
3.09662e-05
-6.19784e-05
3.92853e-05
-8.67278e-05
4.85351e-05
-0.000115382
5.82543e-05
-0.000147289
6.77218e-05
-0.00018139
7.61418e-05
-0.000216368
8.2741e-05
-0.000250882
8.69629e-05
-0.000283751
8.84853e-05
-0.000314063
8.72441e-05
-0.000341176
8.33363e-05
-0.000364683
7.69818e-05
-0.000384339
6.84377e-05
-0.000400007
5.7986e-05
-0.00041161
4.58892e-05
-0.000419099
3.24053e-05
-0.000422426
1.77698e-05
-0.000421539
2.22623e-06
-0.00041637
-1.39779e-05
-0.000406849
-3.05523e-05
-0.000392907
-4.71615e-05
-0.000374506
-6.33846e-05
-0.000351668
-7.87176e-05
-0.000324516
-9.25481e-05
-0.000293321
-0.000104186
-0.00025856
-0.000112881
-0.000220945
-0.000117911
-0.000181458
-0.000118658
-0.000141315
-0.000114758
-0.000101917
-0.000106192
-6.47112e-05
-9.3399e-05
-3.10536e-05
-7.72607e-05
-2.04533e-06
-5.90332e-05
2.1554e-05
-4.0145e-05
3.93791e-05
-2.19967e-05
5.14128e-05
-5.76393e-06
5.79727e-05
7.69771e-06
5.96474e-05
1.7898e-05
5.72931e-05
2.4707e-05
5.1915e-05
2.83457e-05
4.45999e-05
2.93178e-05
3.63146e-05
2.83063e-05
2.78837e-05
2.60233e-05
1.9849e-05
2.30327e-05
1.26468e-05
1.96449e-05
6.54933e-06
1.57405e-05
2.086e-06
1.09165e-05
4.37927e-06
1.97929e-06
-6.99654e-06
5.48818e-06
-1.43773e-05
8.9875e-06
-1.63675e-05
1.13173e-05
-1.4199e-05
1.1934e-05
-9.54652e-06
1.04457e-05
-3.44722e-06
6.68004e-06
3.16409e-06
3.85637e-07
1.0079e-05
-8.72947e-06
1.72514e-05
-2.11283e-05
2.51103e-05
-3.734e-05
3.40248e-05
-5.79059e-05
4.43999e-05
-8.31763e-05
5.62461e-05
-0.000113154
6.92741e-05
-0.000147325
8.27192e-05
-0.000184649
9.55947e-05
-0.000223703
0.000106793
-0.00026296
0.00011542
-0.000301057
0.000120862
-0.000336948
0.00012288
-0.000369919
0.000121485
-0.000399536
0.000116892
-0.000425563
0.000109395
-0.000447895
9.93452e-05
-0.000466503
8.70745e-05
-0.000481399
7.29076e-05
-0.000492611
5.71203e-05
-0.000500162
3.99688e-05
-0.000504056
2.1668e-05
-0.000504266
2.43187e-06
-0.000500722
-1.75342e-05
-0.000493311
-3.79839e-05
-0.000481874
-5.86271e-05
-0.000466219
-7.90743e-05
-0.000446146
-9.88321e-05
-0.000421484
-0.000117256
-0.000392153
-0.000133566
-0.00035824
-0.000146844
-0.000320086
-0.000156114
-0.000278367
-0.000160424
-0.000234145
-0.000159023
-0.000188861
-0.000151514
-0.000144232
-0.000138059
-0.000102065
-0.000119451
-6.3996e-05
-9.71157e-05
-3.12638e-05
-7.28846e-05
-4.56041e-06
-4.86978e-05
1.59211e-05
-2.62394e-05
3.03862e-05
-6.75374e-06
3.92762e-05
9.02063e-06
4.32438e-05
2.07577e-05
4.30819e-05
2.85204e-05
3.97494e-05
3.26687e-05
3.42156e-05
3.38493e-05
2.74498e-05
3.28065e-05
2.0218e-05
3.02681e-05
1.32235e-05
2.66566e-05
6.97553e-06
2.19852e-05
2.24789e-06
1.56628e-05
6.62674e-06
1.93148e-06
-8.92168e-06
4.93103e-06
-1.73835e-05
7.3341e-06
-1.87619e-05
7.97538e-06
-1.48436e-05
6.3471e-06
-7.91407e-06
2.05634e-06
8.41237e-07
-5.14137e-06
1.03622e-05
-1.56411e-05
2.05756e-05
-2.9924e-05
3.15313e-05
-4.86091e-05
4.37906e-05
-7.22514e-05
5.76613e-05
-0.000101169
7.33101e-05
-0.000135179
9.02475e-05
-0.000173485
0.00010757
-0.000214717
0.000123939
-0.000257204
0.000138069
-0.000299317
0.00014889
-0.000339726
0.00015581
-0.000377482
0.000158598
-0.00041199
0.000157366
-0.000442918
0.000152389
-0.000470127
0.000144076
-0.000493605
0.000132846
-0.000513428
0.000119143
-0.00052973
0.000103352
-0.000542675
8.58319e-05
-0.000552432
6.68623e-05
-0.00055916
4.66872e-05
-0.00056298
2.54844e-05
-0.00056396
3.41483e-06
-0.000562094
-1.93903e-05
-0.000557291
-4.27711e-05
-0.000549358
-6.65384e-05
-0.000537999
-9.04062e-05
-0.000522821
-0.00011398
-0.000503357
-0.000136685
-0.000479121
-0.000157765
-0.000449688
-0.000176238
-0.000414816
-0.000190948
-0.000374589
-0.000200614
-0.000329564
-0.000204012
-0.00028089
-0.000200157
-0.000230319
-0.000188603
-0.000180082
-0.000169668
-0.000132582
-0.000144602
-8.99754e-05
-0.000115486
-5.37563e-05
-8.49156e-05
-2.45822e-05
-5.54199e-05
-2.3526e-06
-2.89903e-05
1.34597e-05
-6.80461e-06
2.35852e-05
1.06225e-05
2.87928e-05
2.32977e-05
2.99486e-05
3.15045e-05
2.79416e-05
3.58411e-05
2.37423e-05
3.7001e-05
1.82189e-05
3.57763e-05
1.2252e-05
3.2624e-05
6.56567e-06
2.76545e-05
2.12108e-06
2.01134e-05
8.73648e-06
1.71501e-06
-1.06344e-05
3.77951e-06
-1.9455e-05
4.51333e-06
-1.94919e-05
2.82836e-06
-1.31616e-05
-1.73434e-06
-3.34953e-06
-9.58075e-06
8.68805e-06
-2.10596e-05
2.18431e-05
-3.67106e-05
3.62298e-05
-5.71433e-05
5.19676e-05
-8.29525e-05
6.96055e-05
-0.000114408
8.91217e-05
-0.000151211
0.000110121
-0.000192345
0.000131389
-0.000236207
0.000151443
-0.000280947
0.000168688
-0.000324851
0.000181986
-0.000366577
0.000190629
-0.000405197
0.000194446
-0.00044014
0.000193557
-0.000471113
0.000188357
-0.00049803
0.000179324
-0.000520965
0.000167029
-0.000540113
0.000152013
-0.000555754
0.000134801
-0.000568215
0.000115828
-0.00057784
9.54698e-05
-0.000584964
7.39936e-05
-0.000589883
5.16098e-05
-0.000592839
2.8439e-05
-0.000594003
4.57185e-06
-0.000593455
-1.9951e-05
-0.000591168
-4.50752e-05
-0.000586989
-7.07399e-05
-0.000580616
-9.6805e-05
-0.000571584
-0.000123042
-0.000559255
-0.000149046
-0.000542838
-0.000174216
-0.000521441
-0.000197669
-0.00049418
-0.000218244
-0.000460342
-0.000234485
-0.000419614
-0.00024477
-0.000372331
-0.000247467
-0.000319685
-0.000241269
-0.000263819
-0.00022555
-0.000207662
-0.000200768
-0.000154493
-0.00016866
-0.000107242
-0.000132165
-6.78374e-05
-9.4823e-05
-3.68707e-05
-5.99495e-05
-1.3867e-05
-2.9802e-05
2.20349e-06
-5.4364e-06
1.24234e-05
1.3085e-05
1.78271e-05
2.61137e-05
1.93449e-05
3.43285e-05
1.79451e-05
3.84141e-05
1.45342e-05
3.91887e-05
1.00825e-05
3.70895e-05
5.46606e-06
3.22676e-05
1.74242e-06
2.38527e-05
1.04785e-05
1.25695e-06
-1.18903e-05
1.87522e-06
-2.00754e-05
3.1938e-07
-1.79355e-05
-4.33122e-06
-8.51128e-06
-1.2488e-05
4.80489e-06
-2.45852e-05
2.07849e-05
-4.1089e-05
3.83425e-05
-6.26223e-05
5.77614e-05
-8.97541e-05
7.90934e-05
-0.000122751
0.000102599
-0.000161247
0.00012761
-0.0002041
0.00015297
-0.000249547
0.000176827
-0.000295586
0.000197474
-0.000340393
0.000213484
-0.000382546
0.000224128
-0.000421064
0.000229133
-0.000455344
0.000228713
-0.0004851
0.000223298
-0.000510304
0.000213546
-0.00053114
0.000200143
-0.000547949
0.000183823
-0.000561179
0.000165228
-0.000571329
0.00014494
-0.000578908
0.000123396
-0.000584393
0.000100949
-0.000588216
7.78133e-05
-0.000590744
5.41398e-05
-0.000592277
2.9978e-05
-0.000593041
5.34672e-06
-0.000593183
-1.9795e-05
-0.000592756
-4.54832e-05
-0.000591704
-7.177e-05
-0.000589829
-9.86555e-05
-0.000586754
-0.00012609
-0.000581884
-0.000153888
-0.000574372
-0.000181701
-0.000563109
-0.000208905
-0.000546769
-0.000234558
-0.000523925
-0.000257307
-0.000493265
-0.000275409
-0.000453916
-0.000286798
-0.000405825
-0.000289345
-0.000350136
-0.000281229
-0.00028938
-0.000261514
-0.000227351
-0.000230685
-0.000168455
-0.000191058
-0.000116684
-0.000146597
-7.45127e-05
-0.000102124
-4.24618e-05
-6.1861e-05
-1.95107e-05
-2.8393e-05
-4.06398e-06
-2.37201e-06
5.44023e-06
1.66046e-05
1.02701e-05
2.94877e-05
1.15519e-05
3.71296e-05
1.02793e-05
4.04501e-05
7.48149e-06
3.9888e-05
4.12979e-06
3.56066e-05
1.29613e-06
2.66903e-05
1.17661e-05
4.97863e-07
-1.23891e-05
-8.64328e-07
-1.87086e-05
-5.28223e-06
-1.35206e-05
-1.34349e-05
-3.52392e-07
-2.57074e-05
1.7075e-05
-4.25668e-05
3.76514e-05
-6.45566e-05
6.03318e-05
-9.22282e-05
8.54408e-05
-0.000125847
0.000112714
-0.000165047
0.000141808
-0.000208659
0.000171225
-0.000254821
0.00019914
-0.000301406
0.000223417
-0.000346442
0.000242519
-0.00038838
0.000255429
-0.000426132
0.000261891
-0.000459047
0.000262057
-0.000486843
0.000256521
-0.000509574
0.000246039
-0.000527555
0.00023154
-0.0005413
0.000213899
-0.000551427
0.000193963
-0.000558594
0.000172406
-0.000563433
0.000149789
-0.000566516
0.000126487
-0.000568335
0.000102773
-0.000569298
7.87782e-05
-0.000569736
5.45776e-05
-0.000569917
3.01533e-05
-0.000570048
5.47021e-06
-0.000570291
-1.95633e-05
-0.000570756
-4.50324e-05
-0.00057149
-7.10528e-05
-0.000572452
-9.77115e-05
-0.000573472
-0.000125089
-0.000574191
-0.000153189
-0.00057399
-0.000181922
-0.000571918
-0.000210997
-0.00056664
-0.000239856
-0.000556442
-0.000267524
-0.000539341
-0.000292528
-0.000513341
-0.000312816
-0.000476852
-0.000325849
-0.000429254
-0.000328839
-0.000371482
-0.000319294
-0.000306428
-0.000295745
-0.00023885
-0.000258636
-0.000174547
-0.000210899
-0.000118787
-0.000157878
-7.46775e-05
-0.000105967
-4.24883e-05
-6.05749e-05
-2.0517e-05
-2.43393e-05
-6.45737e-06
2.55348e-06
1.67762e-06
2.13559e-05
5.47685e-06
3.33395e-05
6.19008e-06
3.97379e-05
4.96205e-06
4.11257e-05
2.84225e-06
3.77247e-05
8.78016e-07
2.86651e-05
1.26446e-05
-6.29271e-07
-1.17669e-05
-4.51819e-06
-1.48105e-05
-1.23123e-05
-5.73913e-06
-2.43986e-05
1.17413e-05
-4.11592e-05
3.38239e-05
-6.30596e-05
5.95562e-05
-9.06105e-05
8.78719e-05
-0.00012407
0.000118902
-0.00016315
0.000151783
-0.00020671
0.000185367
-0.000252892
0.000217397
-0.000299445
0.000245691
-0.000344253
0.000268215
-0.000385588
0.000283848
-0.000422241
0.000292073
-0.000453485
0.000293129
-0.000479063
0.000287624
-0.000499116
0.000276566
-0.000514121
0.000261034
-0.000524765
0.000242177
-0.000531845
0.00022097
-0.000536157
0.000198269
-0.000538434
0.000174675
-0.000539296
0.000150647
-0.000539248
0.000126434
-0.000538674
0.000102199
-0.000537869
7.79743e-05
-0.000537052
5.3765e-05
-0.000536395
2.9503e-05
-0.00053604
5.12571e-06
-0.000536117
-1.94745e-05
-0.000536744
-4.43899e-05
-0.000538034
-6.97471e-05
-0.000540069
-9.56575e-05
-0.000542882
-0.000122256
-0.000546399
-0.000149652
-0.000550367
-0.000177934
-0.00055425
-0.000207093
-0.00055712
-0.000236966
-0.000557539
-0.000267086
-0.00055351
-0.00029654
-0.000542541
-0.000323771
-0.000521915
-0.000346464
-0.000489206
-0.000361542
-0.000443041
-0.000365454
-0.00038398
-0.000354805
-0.000315199
-0.000327416
-0.000242542
-0.000283557
-0.000173427
-0.000226994
-0.0001146
-0.000164798
-6.96903e-05
-0.000105487
-3.84669e-05
-5.55691e-05
-1.82956e-05
-1.76211e-05
-6.20689e-06
9.26005e-06
2.3737e-07
2.68933e-05
2.82944e-06
3.71382e-05
2.98955e-06
4.09655e-05
1.89832e-06
3.88076e-05
6.05192e-07
2.99598e-05
1.32441e-05
-2.11765e-06
-9.65689e-06
-8.98091e-06
-7.92512e-06
-2.04976e-05
5.76189e-06
-3.67418e-05
2.80049e-05
-5.81025e-05
5.51747e-05
-8.49628e-05
8.64325e-05
-0.000117639
0.000120543
-0.000155882
0.000157159
-0.000198728
0.000194627
-0.00024434
0.000230992
-0.000290456
0.000263513
-0.000334771
0.000290016
-0.000375399
0.000308846
-0.000410958
0.000319417
-0.000440658
0.000321777
-0.000464235
0.000316716
-0.000481942
0.000305336
-0.000494398
0.000289032
-0.000502477
0.00026912
-0.000507134
0.000246843
-0.000509294
0.000223136
-0.000509757
0.000198739
-0.000509167
0.00017409
-0.000508002
0.000149486
-0.000506595
0.000125028
-0.000505162
0.000100767
-0.000503845
7.66532e-05
-0.00050273
5.26458e-05
-0.000501889
2.86537e-05
-0.000501386
4.61365e-06
-0.000501304
-1.95697e-05
-0.00050174
-4.39672e-05
-0.000502821
-6.86816e-05
-0.000504691
-9.38045e-05
-0.0005075
-0.000119465
-0.000511375
-0.000145794
-0.000516372
-0.000172954
-0.000522389
-0.000201091
-0.000529054
-0.000230316
-0.000535558
-0.000260596
-0.000540491
-0.000291618
-0.000541701
-0.00032257
-0.00053629
-0.000351882
-0.00052085
-0.000376987
-0.000492059
-0.000394251
-0.000447656
-0.000399212
-0.000387679
-0.000387395
-0.000315557
-0.000355681
-0.000238353
-0.000304196
-0.000165367
-0.000237781
-0.00010488
-0.000165969
-6.07355e-05
-9.97106e-05
-3.17035e-05
-4.66479e-05
-1.41175e-05
-8.32371e-06
-4.36627e-06
1.71477e-05
2.42853e-07
3.25302e-05
1.6724e-06
3.95423e-05
1.37319e-06
3.91062e-05
4.97997e-07
3.08419e-05
1.3743e-05
-3.95228e-06
-5.72229e-06
-1.41246e-05
2.27347e-06
-2.95432e-05
2.11499e-05
-4.99664e-05
4.84471e-05
-7.57653e-05
8.09503e-05
-0.000107123
0.000117802
-0.000144003
0.000157404
-0.000185533
0.000198696
-0.000230117
0.000239196
-0.000275452
0.000276328
-0.00031917
0.000307219
-0.000359148
0.000329994
-0.000393867
0.000343554
-0.000422395
0.000347942
-0.000444475
0.000343848
-0.000460407
0.000332645
-0.000470965
0.000315885
-0.000477168
0.000295232
-0.000480133
0.000272078
-0.000480883
0.000247589
-0.000480283
0.000222529
-0.000478975
0.000197428
-0.000477406
0.000172517
-0.00047584
0.00014792
-0.000474423
0.000123609
-0.000473206
9.9552e-05
-0.000472202
7.56516e-05
-0.000471401
5.18499e-05
-0.000470801
2.80597e-05
-0.000470414
4.23615e-06
-0.000470285
-1.96892e-05
-0.000470486
-4.37538e-05
-0.000471131
-6.8024e-05
-0.000472368
-9.25539e-05
-0.000474382
-0.000117437
-0.000477383
-0.000142779
-0.000481587
-0.000168736
-0.000487166
-0.000195499
-0.000494174
-0.000223296
-0.000502413
-0.000252345
-0.000511249
-0.000282772
-0.000519373
-0.000314436
-0.000524585
-0.000346661
-0.000523681
-0.000377884
-0.000512636
-0.000405291
-0.000487232
-0.000424613
-0.000444267
-0.000430359
-0.000383208
-0.000416743
-0.000307793
-0.000379614
-0.000226567
-0.00031901
-0.000150982
-0.000241555
-9.07337e-05
-0.000159961
-4.91606e-05
-8.8223e-05
-2.3524e-05
-3.39643e-05
-9.07273e-06
2.69424e-06
-1.87368e-06
2.53265e-05
9.16175e-07
3.67518e-05
1.25034e-06
3.87665e-05
5.58003e-07
3.15351e-05
1.42969e-05
-6.01048e-06
2.71932e-07
-1.96097e-05
1.59161e-05
-3.88636e-05
4.03715e-05
-6.32211e-05
7.28394e-05
-9.29834e-05
0.000110693
-0.000128012
0.000152856
-0.000167813
0.000197194
-0.000210899
0.000241801
-0.000255209
0.0002835
-0.000298239
0.000319373
-0.000337765
0.000346742
-0.000372004
0.000364245
-0.000399923
0.000371473
-0.000421152
0.000369182
-0.000436044
0.000358742
-0.000445438
0.000342049
-0.000450515
0.000320965
-0.0004525
0.000297225
-0.000452534
0.000272115
-0.000451516
0.000246577
-0.000450104
0.000221119
-0.000448695
0.000196023
-0.000447504
0.000171326
-0.000446594
0.000147011
-0.000445954
0.000122967
-0.000445521
9.91177e-05
-0.00044523
7.53563e-05
-0.000445019
5.16341e-05
-0.000444852
2.78853e-05
-0.000444716
4.09233e-06
-0.000444634
-1.97814e-05
-0.000444658
-4.3741e-05
-0.000444878
-6.7816e-05
-0.00044542
-9.20237e-05
-0.000446456
-0.000116415
-0.000448196
-0.000141052
-0.000450896
-0.000166049
-0.000454838
-0.000191569
-0.000460301
-0.000217844
-0.000467477
-0.000245179
-0.000476344
-0.000273914
-0.000486445
-0.000304343
-0.000496605
-0.000336507
-0.000504614
-0.000369878
-0.000507024
-0.000402883
-0.00049924
-0.000432398
-0.000476194
-0.000453405
-0.000433766
-0.00045917
-0.000370936
-0.000442446
-0.000292004
-0.000397943
-0.000207417
-0.000326141
-0.00013106
-0.000236316
-7.34798e-05
-0.000145799
-3.64235e-05
-7.10177e-05
-1.51438e-05
-1.85831e-05
-4.24406e-06
1.44282e-05
3.3502e-07
3.21764e-05
1.34342e-06
3.77578e-05
7.19364e-07
3.21643e-05
1.50168e-05
-8.18395e-06
8.42713e-06
-2.51468e-05
3.29242e-05
-4.79725e-05
6.3147e-05
-7.57999e-05
0.000100699
-0.00010879
0.000143648
-0.000146401
0.000190486
-0.000187665
0.000238432
-0.000230593
0.000284739
-0.000272884
0.000325772
-0.00031207
0.000358564
-0.000346251
0.000380908
-0.000374109
0.000392105
-0.000395198
0.000392551
-0.000409761
0.000383745
-0.000418718
0.000367688
-0.000423303
0.000346633
-0.000424892
0.000322545
-0.000424692
0.000297023
-0.000423682
0.000271098
-0.000422509
0.000245403
-0.000421562
0.000220167
-0.000420992
0.000195452
-0.000420818
0.000171149
-0.00042096
0.000147154
-0.000421315
0.000123322
-0.000421766
9.95717e-05
-0.000422221
7.58135e-05
-0.000422603
5.20224e-05
-0.000422875
2.81623e-05
-0.000423018
4.24308e-06
-0.000423049
-1.97426e-05
-0.000423006
-4.37739e-05
-0.00042296
-6.78519e-05
-0.000423007
-9.19659e-05
-0.00042328
-0.000116131
-0.000423948
-0.000140373
-0.000425233
-0.000164754
-0.000427409
-0.000189382
-0.000430809
-0.000214436
-0.00043579
-0.00024019
-0.000442677
-0.000267021
-0.000451607
-0.000295407
-0.0004623
-0.000325809
-0.000473696
-0.000358478
-0.000483567
-0.000393009
-0.000488194
-0.000427768
-0.000482417
-0.00045918
-0.000460341
-0.000481243
-0.000417051
-0.000485737
-0.000351299
-0.000463697
-0.000268466
-0.000408979
-0.00018156
-0.000323224
-0.000106992
-0.000220369
-5.49066e-05
-0.000123101
-2.4009e-05
-4.94835e-05
-7.77285e-06
-1.81011e-06
-5.75355e-07
2.49775e-05
1.41315e-06
3.57654e-05
9.08513e-07
3.26698e-05
1.59222e-05
-1.02661e-05
1.86687e-05
-3.0284e-05
5.30057e-05
-5.61917e-05
8.90058e-05
-8.6813e-05
0.00013137
-0.000122105
0.00017891
-0.000161091
0.000229507
-0.000202392
0.000279715
-0.000243684
0.000326056
-0.000282647
0.000364725
-0.000317036
0.000392972
-0.000345405
0.000409272
-0.000366989
0.000413703
-0.000381965
0.000407526
-0.000391139
0.00039293
-0.000395844
0.000372394
-0.000397499
0.000348298
-0.000397449
0.000322496
-0.00039671
0.000296292
-0.000395988
0.000270376
-0.000395641
0.000245061
-0.000395808
0.000220335
-0.000396448
0.000196096
-0.000397453
0.000172153
-0.000398667
0.000148369
-0.000399953
0.000124605
-0.000401182
0.0001008
-0.000402267
7.68949e-05
-0.000403143
5.2894e-05
-0.000403779
2.87919e-05
-0.000404164
4.62239e-06
-0.000404318
-1.9597e-05
-0.000404272
-4.38271e-05
-0.000404086
-6.80474e-05
-0.00040383
-9.22305e-05
-0.000403604
-0.000116367
-0.000403529
-0.000140457
-0.000403768
-0.000164524
-0.000404531
-0.000188627
-0.000406102
-0.000212873
-0.000408836
-0.000237464
-0.000413164
-0.000262699
-0.00041952
-0.000289056
-0.000428207
-0.000317127
-0.000439098
-0.00034759
-0.000451231
-0.000380879
-0.000462283
-0.000416717
-0.000468187
-0.000453277
-0.000463125
-0.000486302
-0.000440396
-0.000508465
-0.000394467
-0.000509623
-0.000324385
-0.000479065
-0.000237463
-0.000410146
-0.00015013
-0.000307704
-8.08435e-05
-0.000192381
-3.69947e-05
-9.33299e-05
-1.33716e-05
-2.54313e-05
-2.35639e-06
1.39631e-05
1.19115e-06
3.22184e-05
1.0367e-06
3.28275e-05
1.69593e-05
-1.2124e-05
3.07549e-05
-3.47371e-05
7.568e-05
-6.31021e-05
0.000117304
-9.57191e-05
0.000164031
-0.000132301
0.000215446
-0.000171471
0.000268703
-0.000211551
0.000319763
-0.000250075
0.000364594
-0.000284879
0.000399505
-0.000314081
0.000422183
-0.000336768
0.000431941
-0.000352757
0.000429697
-0.000362799
0.000417554
-0.000368116
0.000398249
-0.000370249
0.000374515
-0.000370584
0.000348633
-0.000370275
0.000322178
-0.000370047
0.000296063
-0.000370313
0.000270635
-0.000371174
0.000245922
-0.000372589
0.000221745
-0.000374396
0.000197904
-0.000376432
0.000174185
-0.000378517
0.000150457
-0.000380522
0.00012661
-0.000382333
0.000102613
-0.00038388
7.84446e-05
-0.000385115
5.41336e-05
-0.000386022
2.97032e-05
-0.000386599
5.20564e-06
-0.000386869
-1.93205e-05
-0.000386865
-4.38238e-05
-0.000386638
-6.82674e-05
-0.000386245
-9.26151e-05
-0.000385763
-0.000116841
-0.000385276
-0.000140936
-0.000384896
-0.000164896
-0.000384764
-0.000188752
-0.000385078
-0.000212552
-0.000386107
-0.000236429
-0.00038823
-0.000260572
-0.000391923
-0.000285359
-0.000397732
-0.000311315
-0.000406096
-0.000339224
-0.000417038
-0.000369936
-0.000429626
-0.000404128
-0.000441361
-0.000441542
-0.00044766
-0.000480001
-0.000441929
-0.000514196
-0.000416642
-0.000534906
-0.000366002
-0.000529706
-0.000290171
-0.000485981
-0.000199684
-0.000398197
-0.000115218
-0.00027685
-5.53042e-05
-0.00015324
-2.16905e-05
-5.90439e-05
-5.43222e-06
-2.29956e-06
4.90148e-07
2.62957e-05
1.04869e-06
3.22676e-05
1.80066e-05
-1.35614e-05
4.42862e-05
-3.81324e-05
0.000100329
-6.82046e-05
0.000147315
-0.000101947
0.000197833
-0.000138816
0.000252279
-0.000177113
0.000307041
-0.000214996
0.000357623
-0.00025002
0.000399648
-0.000280317
0.000429789
-0.000304448
0.000446336
-0.000322056
0.000449542
-0.000333498
0.000441156
-0.000339971
0.000424025
-0.000342923
0.000401214
-0.000343901
0.000375492
-0.000344101
0.000348845
-0.0003444
0.000322476
-0.000345215
0.000296887
-0.000346711
0.000272131
-0.000348804
0.000248021
-0.000351345
0.000224286
-0.000354124
0.000200686
-0.000356968
0.000177028
-0.00035971
0.000153202
-0.000362244
0.000129141
-0.000364475
0.000104844
-0.000366358
8.0323e-05
-0.000367854
5.56274e-05
-0.000368961
3.08054e-05
-0.000369683
5.92309e-06
-0.000370047
-1.89621e-05
-0.000370086
-4.37902e-05
-0.000369851
-6.85096e-05
-0.000369392
-9.30806e-05
-0.000368774
-0.000117466
-0.000368063
-0.000141654
-0.000367339
-0.000165626
-0.000366691
-0.000189406
-0.000366246
-0.000213002
-0.000366177
-0.000236503
-0.00036675
-0.000260003
-0.000368349
-0.000283764
-0.00037151
-0.000308156
-0.000376866
-0.00033387
-0.000384997
-0.000361808
-0.000396013
-0.000393112
-0.000408949
-0.000428608
-0.000420948
-0.000468001
-0.000426728
-0.000508418
-0.000418721
-0.000542906
-0.000388685
-0.000559743
-0.000331113
-0.000543548
-0.00024861
-0.000480709
-0.000156628
-0.000368831
-8.0049e-05
-0.000229823
-3.32055e-05
-0.000105872
-1.00839e-05
-2.54296e-05
-8.03403e-07
1.7021e-05
9.18322e-07
3.05437e-05
1.8927e-05
-1.45065e-05
5.87495e-05
-4.03393e-05
0.000126232
-7.13445e-05
0.000178244
-0.000105362
0.000231901
-0.000141612
0.000288478
-0.000178178
0.000343637
-0.000213184
0.000392592
-0.000244347
0.000430828
-0.000270172
0.000455587
-0.000289698
0.000465872
-0.00030309
0.000462913
-0.000311141
0.000449213
-0.000315326
0.000428193
-0.000317132
0.000403023
-0.00031796
0.000376306
-0.000318734
0.00034962
-0.000320034
0.000323765
-0.000322022
0.000298875
-0.00032468
0.000274781
-0.000327817
0.000251158
-0.000331244
0.000227707
-0.000334745
0.000204188
-0.000338169
0.000180449
-0.000341375
0.000156409
-0.000344281
0.000132046
-0.000346812
0.000107379
-0.000348938
8.24498e-05
-0.000350631
5.73245e-05
-0.000351895
3.20725e-05
-0.000352738
6.77016e-06
-0.000353188
-1.85071e-05
-0.00035328
-4.3693e-05
-0.000353063
-6.87211e-05
-0.000352588
-9.35506e-05
-0.000351915
-0.000118133
-0.000351102
-0.000142462
-0.000350215
-0.000166508
-0.000349314
-0.000190302
-0.00034848
-0.000213832
-0.000347809
-0.000237171
-0.000347462
-0.000260346
-0.000347687
-0.000283536
-0.000348895
-0.000306946
-0.000351668
-0.000331095
-0.000356756
-0.00035672
-0.000364835
-0.000385032
-0.000376077
-0.000417369
-0.000389302
-0.000454773
-0.000401106
-0.000496617
-0.000405198
-0.000538809
-0.000392944
-0.000571999
-0.0003556
-0.000580882
-0.000289054
-0.000547267
-0.000200217
-0.000457664
-0.000111379
-0.000318681
-4.86899e-05
-0.000168538
-1.63907e-05
-5.77384e-05
-2.80197e-06
3.43576e-06
6.60589e-07
2.70756e-05
1.95887e-05
-1.48472e-05
7.35644e-05
-4.11754e-05
0.000152644
-7.2329e-05
0.000209332
-0.000105827
0.000265464
-0.000140691
0.000323302
-0.000174897
0.000377888
-0.000206646
0.000424317
-0.00023391
0.000458125
-0.000255603
0.000477267
-0.000271221
0.000481515
-0.000281366
0.00047305
-0.000287131
0.000454998
-0.000290097
0.000431156
-0.000291645
0.000404587
-0.000292942
0.000377602
-0.000294622
0.000351313
-0.000297013
0.000326155
-0.000300083
0.000301956
-0.000303711
0.000278408
-0.00030766
0.000255114
-0.000311744
0.00023179
-0.000315767
0.000208216
-0.000319608
0.000184289
-0.000323152
0.000159956
-0.000326336
0.000135228
-0.000329101
0.000110144
-0.000331424
8.47698e-05
-0.000333281
5.91812e-05
-0.000334681
3.34686e-05
-0.00033563
7.71613e-06
-0.000336159
-1.79825e-05
-0.0003363
-4.35557e-05
-0.000336105
-6.89212e-05
-0.000335622
-9.40379e-05
-0.000334915
-0.000118845
-0.00033404
-0.000143342
-0.00033306
-0.000167492
-0.000332026
-0.00019134
-0.000330998
-0.000214863
-0.000330029
-0.000238144
-0.000329206
-0.000261172
-0.000328658
-0.000284086
-0.000328645
-0.00030696
-0.000329587
-0.000330155
-0.000332157
-0.000354151
-0.000337196
-0.000379993
-0.000345502
-0.000409065
-0.000357161
-0.000443112
-0.000370621
-0.000483162
-0.000381541
-0.000527884
-0.00038238
-0.000571163
-0.000363361
-0.000599891
-0.000315975
-0.000594655
-0.000239226
-0.000534414
-0.00014702
-0.000410898
-6.90036e-05
-0.000246553
-2.45186e-05
-0.000102209
-5.62242e-06
-1.54651e-05
2.74106e-07
2.11764e-05
1.98659e-05
-1.46083e-05
8.81285e-05
-4.0703e-05
0.00017881
-7.12905e-05
0.000239841
-0.000103591
0.000297816
-0.000136474
0.000356131
-0.000167913
0.000409357
-0.000196268
0.000452633
-0.000219819
0.000481693
-0.00023788
0.000495299
-0.000250349
0.000493994
-0.000258152
0.000480831
-0.000262538
0.000459389
-0.000265052
0.000433651
-0.000266881
0.000406418
-0.000268929
0.000379634
-0.000271571
0.000353955
-0.00027494
0.000329512
-0.000278887
0.000305904
-0.000283246
0.000282757
-0.000287775
0.000259644
-0.000292315
0.000236323
-0.000296699
0.000212601
-0.000300834
0.000188419
-0.000304623
0.000163746
-0.000308021
0.000138624
-0.000310973
0.000113098
-0.000313463
8.72598e-05
-0.000315469
6.11898e-05
-0.000316998
3.49989e-05
-0.000318056
8.77731e-06
-0.000318674
-1.73621e-05
-0.000318881