/*--------------------------------*- C++ -*----------------------------------*\
| =========                 |                                                 |
| \\      /  F ield         | OpenFOAM: The Open Source CFD Toolbox           |
|  \\    /   O peration     | Version:  2406                                  |
|   \\  /    A nd           | Website:  www.openfoam.com                      |
|    \\/     M anipulation  |                                                 |
\*---------------------------------------------------------------------------*/
FoamFile
{
    version     2.0;
    format      ascii;
    arch        "LSB;label=32;scalar=64";
    class       volVectorField;
    location    "22.7";
    object      U;
}
// * * * * * * * * * * * * * * * * * * * * * * * * * * * * * * * * * * * * * //

dimensions      [0 1 -1 0 0 0 0];

internalField   nonuniform List<vector> 
14400
(
(1.9125e-06 -1.91393e-06 0)
(3.15133e-05 -1.11741e-05 0)
(9.68852e-05 -2.00164e-05 0)
(0.000189088 -2.51151e-05 0)
(0.000294864 -2.75714e-05 0)
(0.000405917 -2.80399e-05 0)
(0.000516188 -2.72682e-05 0)
(0.000621781 -2.57557e-05 0)
(0.000720382 -2.38387e-05 0)
(0.000810727 -2.17282e-05 0)
(0.000892199 -1.95479e-05 0)
(0.000964555 -1.73611e-05 0)
(0.00102773 -1.51924e-05 0)
(0.00108171 -1.30422e-05 0)
(0.00112646 -1.08947e-05 0)
(0.00116191 -8.73137e-06 0)
(0.00118793 -6.58183e-06 0)
(0.00120424 -4.52259e-06 0)
(0.00121024 -2.47919e-06 0)
(0.00120559 -9.95883e-08 0)
(0.00118992 2.43216e-06 0)
(0.00116237 5.07988e-06 0)
(0.00112205 7.90976e-06 0)
(0.0010679 1.09764e-05 0)
(0.000998638 1.43365e-05 0)
(0.000912743 1.80533e-05 0)
(0.000808432 2.21937e-05 0)
(0.000683652 2.68262e-05 0)
(0.000536081 3.20184e-05 0)
(0.000363136 3.78342e-05 0)
(0.000162003 4.43309e-05 0)
(-7.03321e-05 5.15572e-05 0)
(-0.000337031 5.955e-05 0)
(-0.000641349 6.83332e-05 0)
(-0.000986565 7.79147e-05 0)
(-0.0013759 8.82846e-05 0)
(-0.00181245 9.94133e-05 0)
(-0.00229905 0.000111248 0)
(-0.0028382 0.000123713 0)
(-0.00343194 0.000136704 0)
(-0.00408173 0.000150089 0)
(-0.00478831 0.000163706 0)
(-0.00555159 0.000177362 0)
(-0.00637051 0.000190835 0)
(-0.00724292 0.000203874 0)
(-0.00816549 0.0002162 0)
(-0.00913362 0.000227513 0)
(-0.0101413 0.00023749 0)
(-0.0111813 0.000245798 0)
(-0.0122448 0.000252093 0)
(-0.0133216 0.00025603 0)
(-0.0144004 0.000257268 0)
(-0.0154683 0.000255479 0)
(-0.0165116 0.000250359 0)
(-0.0175154 0.000241629 0)
(-0.0184643 0.000229052 0)
(-0.0193421 0.000212436 0)
(-0.0201325 0.000191648 0)
(-0.0208191 0.000166626 0)
(-0.0213858 0.000137351 0)
(-0.0218176 0.000103902 0)
(-0.0221006 6.70981e-05 0)
(-0.0222206 2.78293e-05 0)
(-0.0221662 -1.56995e-05 0)
(-0.0219302 -6.22198e-05 0)
(-0.0215058 -0.000110452 0)
(-0.0208894 -0.000159629 0)
(-0.0200809 -0.000208893 0)
(-0.0190839 -0.000257257 0)
(-0.0179054 -0.00030366 0)
(-0.0165565 -0.000346995 0)
(-0.0150521 -0.000386148 0)
(-0.0134109 -0.000420043 0)
(-0.011655 -0.000447684 0)
(-0.00980967 -0.000468206 0)
(-0.0079028 -0.000480919 0)
(-0.00596421 -0.000485351 0)
(-0.00402489 -0.000481283 0)
(-0.00211613 -0.000468769 0)
(-0.000268596 -0.00044815 0)
(0.00148859 -0.000420046 0)
(0.00312878 -0.000385336 0)
(0.00462864 -0.000345117 0)
(0.00596885 -0.000300656 0)
(0.00713464 -0.000253328 0)
(0.00811616 -0.000204545 0)
(0.00890862 -0.000155687 0)
(0.00951221 -0.000108041 0)
(0.00993175 -6.27208e-05 0)
(0.0101763 -2.04346e-05 0)
(0.0102601 1.76696e-05 0)
(0.0101963 4.91398e-05 0)
(0.0100019 7.6166e-05 0)
(0.00969796 9.93175e-05 0)
(0.00930339 0.000117573 0)
(0.00883678 0.000131025 0)
(0.00831631 0.000140118 0)
(0.00775887 0.000145321 0)
(0.00717966 0.000147148 0)
(0.00659196 0.000146134 0)
(0.00600705 0.00014281 0)
(0.00543414 0.000137683 0)
(0.00488051 0.000131221 0)
(0.00435155 0.000123849 0)
(0.003851 0.000115942 0)
(0.00338108 0.000107824 0)
(0.00294274 9.9767e-05 0)
(0.00253583 9.19884e-05 0)
(0.0021594 8.46466e-05 0)
(0.00181191 7.78293e-05 0)
(0.00149159 7.15356e-05 0)
(0.00119688 6.56534e-05 0)
(0.000926845 5.99316e-05 0)
(0.00068183 5.39571e-05 0)
(0.000464021 4.71422e-05 0)
(0.000277979 3.87774e-05 0)
(0.000130796 2.81734e-05 0)
(3.10592e-05 1.50918e-05 0)
(-1.45477e-05 7.27379e-07 0)
(-8.69662e-06 -8.71433e-06 0)
(1.11642e-05 -3.15038e-05 0)
(0.000105522 -0.000105503 0)
(0.000268122 -0.000168037 0)
(0.000484798 -0.000206435 0)
(0.000728244 -0.000224823 0)
(0.000982104 -0.000228504 0)
(0.00123338 -0.000222226 0)
(0.00147316 -0.000209626 0)
(0.00169567 -0.000193279 0)
(0.00189739 -0.000174874 0)
(0.00207623 -0.000155435 0)
(0.00223095 -0.000135508 0)
(0.00236074 -0.000115318 0)
(0.00246489 -9.48822e-05 0)
(0.00254263 -7.40983e-05 0)
(0.002593 -5.28034e-05 0)
(0.00261478 -3.08441e-05 0)
(0.00260656 -8.07634e-06 0)
(0.00256671 1.5736e-05 0)
(0.00249304 4.11258e-05 0)
(0.002383 6.82299e-05 0)
(0.00223387 9.73318e-05 0)
(0.0020424 0.000128813 0)
(0.0018048 0.000163109 0)
(0.00151675 0.000200709 0)
(0.00117332 0.000242144 0)
(0.000768952 0.000287967 0)
(0.000297465 0.000338735 0)
(-0.000247912 0.000394983 0)
(-0.000874479 0.000457192 0)
(-0.00158996 0.00052577 0)
(-0.00240236 0.000601017 0)
(-0.00331981 0.000683107 0)
(-0.00435035 0.000772061 0)
(-0.00550168 0.000867727 0)
(-0.00678094 0.000969757 0)
(-0.00819439 0.00107759 0)
(-0.00974713 0.00119043 0)
(-0.0114428 0.00130724 0)
(-0.0132831 0.00142671 0)
(-0.0152677 0.00154727 0)
(-0.0173939 0.00166708 0)
(-0.0196562 0.00178406 0)
(-0.0220461 0.00189588 0)
(-0.024552 0.00200002 0)
(-0.027159 0.00209378 0)
(-0.0298489 0.00217437 0)
(-0.0326002 0.00223893 0)
(-0.0353883 0.00228461 0)
(-0.0381857 0.00230865 0)
(-0.0409622 0.00230843 0)
(-0.0436853 0.00228156 0)
(-0.0463208 0.00222591 0)
(-0.0488333 0.00213976 0)
(-0.0511866 0.00202177 0)
(-0.0533442 0.00187108 0)
(-0.0552705 0.00168738 0)
(-0.0569306 0.00147092 0)
(-0.0582919 0.00122257 0)
(-0.0593238 0.000943833 0)
(-0.0599986 0.000636836 0)
(-0.0602921 0.000304899 0)
(-0.0601861 -4.72875e-05 0)
(-0.0596649 -0.000417772 0)
(-0.0587177 -0.00080112 0)
(-0.057341 -0.00119144 0)
(-0.0555367 -0.00158253 0)
(-0.0533128 -0.00196776 0)
(-0.050684 -0.00234017 0)
(-0.0476715 -0.00269258 0)
(-0.0443029 -0.00301777 0)
(-0.0406127 -0.00330864 0)
(-0.0366411 -0.00355849 0)
(-0.0324344 -0.0037612 0)
(-0.0280437 -0.00391148 0)
(-0.0235243 -0.00400511 0)
(-0.018935 -0.0040392 0)
(-0.0143364 -0.00401228 0)
(-0.00979012 -0.00392454 0)
(-0.00535707 -0.00377784 0)
(-0.00109612 -0.00357574 0)
(0.00293739 -0.00332345 0)
(0.00669311 -0.00302763 0)
(0.010127 -0.00269621 0)
(0.0132025 -0.00233804 0)
(0.0158915 -0.00196259 0)
(0.0181749 -0.00157952 0)
(0.0200431 -0.00119833 0)
(0.021496 -0.000827933 0)
(0.0225424 -0.000476354 0)
(0.0231987 -0.000150676 0)
(0.0234896 0.0001421 0)
(0.0234478 0.000401172 0)
(0.0231083 0.000623672 0)
(0.0225086 0.000807733 0)
(0.02169 0.000953748 0)
(0.0206934 0.00106339 0)
(0.0195586 0.00113923 0)
(0.0183234 0.00118457 0)
(0.0170223 0.00120315 0)
(0.0156862 0.00119899 0)
(0.014342 0.00117612 0)
(0.0130121 0.0011385 0)
(0.0117147 0.00108981 0)
(0.0104637 0.00103348 0)
(0.00926916 0.000972515 0)
(0.00813778 0.00090952 0)
(0.00707317 0.000846624 0)
(0.00607652 0.000785421 0)
(0.00514729 0.000726865 0)
(0.00428403 0.00067114 0)
(0.00348532 0.000617501 0)
(0.00275089 0.000564118 0)
(0.00208282 0.000507973 0)
(0.0014867 0.000444936 0)
(0.000972379 0.000370276 0)
(0.000553856 0.000279976 0)
(0.000246177 0.000173786 0)
(6.42311e-05 6.10743e-05 0)
(1.3632e-06 -1.39539e-05 0)
(2.00343e-05 -9.69048e-05 0)
(0.000168236 -0.000268132 0)
(0.000398742 -0.000398543 0)
(0.000694848 -0.00047878 0)
(0.00102091 -0.000516981 0)
(0.00135738 -0.000523384 0)
(0.00168781 -0.000507434 0)
(0.00200041 -0.000476664 0)
(0.00228712 -0.000436581 0)
(0.00254263 -0.000390905 0)
(0.00276336 -0.000341935 0)
(0.00294682 -0.000290919 0)
(0.00309101 -0.000238362 0)
(0.00319404 -0.000184285 0)
(0.00325386 -0.00012841 0)
(0.0032681 -7.0288e-05 0)
(0.00323397 -9.35379e-06 0)
(0.00314826 5.50036e-05 0)
(0.0030073 0.000123377 0)
(0.00280679 0.000196373 0)
(0.00254178 0.000274859 0)
(0.00220679 0.000359721 0)
(0.00179561 0.000451934 0)
(0.00130122 0.000552592 0)
(0.000715782 0.000662893 0)
(3.06076e-05 0.000784104 0)
(-0.000763861 0.000917515 0)
(-0.00167799 0.00106438 0)
(-0.00272284 0.00122584 0)
(-0.00391002 0.00140286 0)
(-0.00525147 0.00159615 0)
(-0.00675916 0.00180609 0)
(-0.00844475 0.00203264 0)
(-0.0103192 0.00227534 0)
(-0.0123924 0.00253319 0)
(-0.0146725 0.00280462 0)
(-0.0171658 0.00308746 0)
(-0.0198757 0.00337891 0)
(-0.0228027 0.00367548 0)
(-0.0259437 0.00397305 0)
(-0.0292916 0.00426687 0)
(-0.0328348 0.00455159 0)
(-0.0365572 0.00482133 0)
(-0.040438 0.00506985 0)
(-0.0444514 0.00529056 0)
(-0.0485672 0.0054768 0)
(-0.0527504 0.00562187 0)
(-0.0569625 0.00571933 0)
(-0.0611612 0.00576309 0)
(-0.0653016 0.00574759 0)
(-0.0693367 0.00566802 0)
(-0.0732182 0.00552038 0)
(-0.0768976 0.00530168 0)
(-0.0803265 0.00500998 0)
(-0.083458 0.00464448 0)
(-0.0862471 0.0042056 0)
(-0.0886516 0.00369499 0)
(-0.0906325 0.00311552 0)
(-0.0921549 0.00247132 0)
(-0.0931882 0.00176777 0)
(-0.0937067 0.00101154 0)
(-0.0936889 0.000210103 0)
(-0.0931211 -0.000628446 0)
(-0.0919953 -0.0014925 0)
(-0.0903069 -0.00237196 0)
(-0.0880597 -0.00325522 0)
(-0.0852635 -0.00412971 0)
(-0.0819348 -0.00498225 0)
(-0.0780967 -0.00579921 0)
(-0.073779 -0.0065668 0)
(-0.069018 -0.00727134 0)
(-0.0638565 -0.0078995 0)
(-0.0583435 -0.00843871 0)
(-0.0525338 -0.00887753 0)
(-0.0464872 -0.00920601 0)
(-0.0402684 -0.00941611 0)
(-0.0339454 -0.00950207 0)
(-0.0275891 -0.00946074 0)
(-0.0212718 -0.00929183 0)
(-0.0150661 -0.00899815 0)
(-0.00904313 -0.00858562 0)
(-0.0032716 -0.00806327 0)
(0.00218417 -0.00744301 0)
(0.00726554 -0.00673939 0)
(0.011921 -0.00596909 0)
(0.0161073 -0.00515039 0)
(0.0197907 -0.00430255 0)
(0.0229477 -0.00344511 0)
(0.0255656 -0.00259719 0)
(0.0276423 -0.00177681 0)
(0.0291864 -0.00100014 0)
(0.0302181 -0.000280164 0)
(0.0307659 0.000372086 0)
(0.0308644 0.000947069 0)
(0.0305569 0.00144032 0)
(0.0298917 0.00184999 0)
(0.0289194 0.00217683 0)
(0.0276921 0.0024241 0)
(0.0262612 0.0025971 0)
(0.0246765 0.00270275 0)
(0.0229843 0.00274905 0)
(0.0212267 0.00274462 0)
(0.0194406 0.00269831 0)
(0.0176576 0.00261879 0)
(0.0159037 0.00251431 0)
(0.0141995 0.00239241 0)
(0.0125603 0.00225977 0)
(0.0109968 0.00212203 0)
(0.00951586 0.00198352 0)
(0.00812134 0.00184706 0)
(0.0068152 0.00171364 0)
(0.00559885 0.00158213 0)
(0.00447456 0.00144895 0)
(0.00344692 0.00130807 0)
(0.00252426 0.00115131 0)
(0.00171936 0.000969579 0)
(0.00104927 0.000755607 0)
(0.000530655 0.000509415 0)
(0.000188647 0.000247512 0)
(1.74162e-05 3.6368e-05 0)
(2.52316e-05 -0.00018933 0)
(0.00020696 -0.000484887 0)
(0.000478852 -0.00069447 0)
(0.000820175 -0.00082073 0)
(0.00118872 -0.000878534 0)
(0.00156326 -0.000884229 0)
(0.00192575 -0.000852598 0)
(0.00226302 -0.00079553 0)
(0.00256576 -0.000721821 0)
(0.00282738 -0.000637473 0)
(0.00304307 -0.000546215 0)
(0.00320898 -0.000450042 0)
(0.00332171 -0.000349711 0)
(0.00337779 -0.000245145 0)
(0.00337346 -0.000135749 0)
(0.00330449 -2.06185e-05 0)
(0.00316602 0.000101334 0)
(0.0029525 0.000231311 0)
(0.0026577 0.000370588 0)
(0.00227463 0.000520499 0)
(0.0017954 0.00068258 0)
(0.00121129 0.000858518 0)
(0.000512597 0.00105017 0)
(-0.000311383 0.00125956 0)
(-0.00127238 0.00148884 0)
(-0.00238312 0.00174024 0)
(-0.00365731 0.00201592 0)
(-0.00510942 0.00231792 0)
(-0.0067545 0.00264794 0)
(-0.00860785 0.00300726 0)
(-0.0106846 0.00339655 0)
(-0.0129994 0.00381575 0)
(-0.0155655 0.00426391 0)
(-0.0183945 0.00473911 0)
(-0.0214954 0.00523835 0)
(-0.0248743 0.00575747 0)
(-0.0285333 0.00629108 0)
(-0.0324701 0.0068326 0)
(-0.0366771 0.00737424 0)
(-0.0411416 0.00790709 0)
(-0.0458446 0.00842123 0)
(-0.0507613 0.00890592 0)
(-0.0558608 0.00934981 0)
(-0.0611064 0.00974121 0)
(-0.0664558 0.0100684 0)
(-0.0718622 0.0103201 0)
(-0.0772749 0.0104853 0)
(-0.0826399 0.0105543 0)
(-0.0879016 0.0105185 0)
(-0.0930032 0.0103706 0)
(-0.0978884 0.0101052 0)
(-0.102502 0.00971869 0)
(-0.10679 0.00920914 0)
(-0.110704 0.00857671 0)
(-0.114195 0.00782342 0)
(-0.117223 0.00695315 0)
(-0.119747 0.00597157 0)
(-0.121737 0.00488605 0)
(-0.123162 0.00370557 0)
(-0.124 0.00244068 0)
(-0.124234 0.00110348 0)
(-0.12385 -0.000293006 0)
(-0.122841 -0.00173514 0)
(-0.121204 -0.00320584 0)
(-0.118943 -0.00468838 0)
(-0.116067 -0.00616496 0)
(-0.112589 -0.00761692 0)
(-0.108528 -0.00902481 0)
(-0.103912 -0.0103687 0)
(-0.0987697 -0.0116286 0)
(-0.0931392 -0.0127844 0)
(-0.0870631 -0.0138166 0)
(-0.0805901 -0.0147069 0)
(-0.0737746 -0.0154381 0)
(-0.0666762 -0.0159954 0)
(-0.0593593 -0.0163664 0)
(-0.0518927 -0.0165417 0)
(-0.0443486 -0.0165158 0)
(-0.0368015 -0.016287 0)
(-0.0293274 -0.0158579 0)
(-0.0220025 -0.015236 0)
(-0.0149014 -0.0144331 0)
(-0.00809614 -0.0134654 0)
(-0.00165436 -0.0123534 0)
(0.00436194 -0.0111209 0)
(0.00989788 -0.00979475 0)
(0.014907 -0.00840383 0)
(0.0193522 -0.0069781 0)
(0.0232068 -0.00554763 0)
(0.0264549 -0.00414158 0)
(0.0290921 -0.00278711 0)
(0.0311255 -0.00150846 0)
(0.0325718 -0.000327604 0)
(0.0334585 0.000739003 0)
(0.0338231 0.00167957 0)
(0.0337095 0.00248651 0)
(0.0331683 0.00315687 0)
(0.0322541 0.0036921 0)
(0.0310239 0.00409755 0)
(0.0295354 0.00438187 0)
(0.0278446 0.00455624 0)
(0.026005 0.00463367 0)
(0.0240656 0.00462821 0)
(0.0220704 0.00455431 0)
(0.0200574 0.0044262 0)
(0.0180586 0.00425733 0)
(0.0160999 0.00405996 0)
(0.0142013 0.00384466 0)
(0.0123777 0.00361991 0)
(0.0106401 0.00339158 0)
(0.00899611 0.00316242 0)
(0.00745202 0.00293156 0)
(0.00601406 0.00269411 0)
(0.00469012 0.00244119 0)
(0.00349125 0.00216059 0)
(0.00243268 0.00183874 0)
(0.00153409 0.00146461 0)
(0.000814478 0.00103685 0)
(0.000314018 0.000574399 0)
(3.33623e-05 0.000149128 0)
(2.7823e-05 -0.000295607 0)
(0.000225346 -0.00072797 0)
(0.000515117 -0.0010188 0)
(0.00087252 -0.0011878 0)
(0.00125082 -0.00125957 0)
(0.00162766 -0.00125779 0)
(0.00198428 -0.00120292 0)
(0.002307 -0.00111123 0)
(0.00258587 -0.000994661 0)
(0.00281344 -0.000861343 0)
(0.00298379 -0.00071625 0)
(0.00309169 -0.000561942 0)
(0.00313211 -0.000399236 0)
(0.0030997 -0.000227765 0)
(0.0029886 -4.64127e-05 0)
(0.00279223 0.000146387 0)
(0.00250317 0.000352453 0)
(0.00211312 0.000573784 0)
(0.0016128 0.000812537 0)
(0.000991959 0.001071 0)
(0.000239271 0.00135166 0)
(-0.000657707 0.00165724 0)
(-0.00171256 0.00199066 0)
(-0.00294005 0.00235506 0)
(-0.00435606 0.00275366 0)
(-0.00597746 0.00318966 0)
(-0.00782197 0.00366606 0)
(-0.00990783 0.00418543 0)
(-0.0122534 0.00474966 0)
(-0.0148765 0.00535978 0)
(-0.0177941 0.00601561 0)
(-0.0210212 0.00671563 0)
(-0.0245702 0.00745672 0)
(-0.0284503 0.00823403 0)
(-0.0326662 0.00904084 0)
(-0.0372173 0.00986851 0)
(-0.0420974 0.0107065 0)
(-0.0472937 0.0115424 0)
(-0.0527862 0.0123622 0)
(-0.0585479 0.0131504 0)
(-0.0645446 0.0138903 0)
(-0.0707351 0.0145648 0)
(-0.077072 0.0151563 0)
(-0.0835025 0.0156477 0)
(-0.0899694 0.0160225 0)
(-0.0964124 0.0162659 0)
(-0.10277 0.0163644 0)
(-0.108978 0.016307 0)
(-0.114977 0.016085 0)
(-0.120707 0.0156924 0)
(-0.126111 0.0151258 0)
(-0.131137 0.0143844 0)
(-0.135736 0.0134704 0)
(-0.139865 0.0123879 0)
(-0.143485 0.0111437 0)
(-0.146563 0.00974657 0)
(-0.14907 0.00820702 0)
(-0.150983 0.00653742 0)
(-0.15228 0.00475165 0)
(-0.152948 0.00286502 0)
(-0.152975 0.000894108 0)
(-0.152354 -0.0011431 0)
(-0.151081 -0.00322693 0)
(-0.149158 -0.00533779 0)
(-0.146587 -0.00745381 0)
(-0.143379 -0.00955232 0)
(-0.139546 -0.0116097 0)
(-0.135104 -0.0136013 0)
(-0.130076 -0.015502 0)
(-0.12449 -0.0172863 0)
(-0.118377 -0.0189286 0)
(-0.111775 -0.0204037 0)
(-0.104729 -0.0216874 0)
(-0.097288 -0.0227571 0)
(-0.089508 -0.0235925 0)
(-0.0814498 -0.0241764 0)
(-0.07318 -0.0244951 0)
(-0.0647692 -0.0245393 0)
(-0.056292 -0.0243051 0)
(-0.0478256 -0.0237935 0)
(-0.0394488 -0.0230119 0)
(-0.0312403 -0.0219734 0)
(-0.0232776 -0.020697 0)
(-0.0156353 -0.0192074 0)
(-0.00838345 -0.0175342 0)
(-0.0015865 -0.0157112 0)
(0.00469845 -0.0137757 0)
(0.0104227 -0.011767 0)
(0.0155469 -0.00972549 0)
(0.0200421 -0.0076912 0)
(0.0238901 -0.00570261 0)
(0.027084 -0.00379557 0)
(0.0296277 -0.00200217 0)
(0.0315365 -0.000348986 0)
(0.0328361 0.00114211 0)
(0.0335615 0.00245543 0)
(0.0337561 0.00358159 0)
(0.0334703 0.00451729 0)
(0.0327595 0.00526504 0)
(0.0316826 0.00583252 0)
(0.0302996 0.00623185 0)
(0.0286703 0.00647861 0)
(0.0268518 0.00659089 0)
(0.0248977 0.00658822 0)
(0.0228567 0.0064907 0)
(0.0207716 0.00631799 0)
(0.0186789 0.00608857 0)
(0.016609 0.00581889 0)
(0.0145865 0.0055226 0)
(0.0126308 0.00520974 0)
(0.0107571 0.0048859 0)
(0.00897811 0.00455156 0)
(0.0073054 0.00420151 0)
(0.00575115 0.00382489 0)
(0.00432992 0.00340613 0)
(0.00306006 0.0029273 0)
(0.00196486 0.00237266 0)
(0.00106752 0.00173614 0)
(0.00042513 0.00103155 0)
(4.71937e-05 0.000320481 0)
(2.83707e-05 -0.000407239 0)
(0.000227867 -0.000979657 0)
(0.000515661 -0.00134916 0)
(0.000864299 -0.00155444 0)
(0.00122469 -0.00163193 0)
(0.00157386 -0.00161374 0)
(0.0018929 -0.00152644 0)
(0.00216808 -0.00139059 0)
(0.00238915 -0.00122106 0)
(0.00254804 -0.00102777 0)
(0.00263772 -0.000816584 0)
(0.00265151 -0.0005903 0)
(0.00258249 -0.000349486 0)
(0.00242312 -9.32091e-05 0)
(0.00216504 0.000180426 0)
(0.00179889 0.00047389 0)
(0.00131424 0.000789993 0)
(0.000699506 0.00113177 0)
(-5.80517e-05 0.00150247 0)
(-0.000972408 0.00190551 0)
(-0.0020588 0.00234458 0)
(-0.00333375 0.00282362 0)
(-0.00481504 0.00334677 0)
(-0.00652167 0.00391833 0)
(-0.00847368 0.00454256 0)
(-0.0106919 0.00522347 0)
(-0.0131976 0.00596453 0)
(-0.0160119 0.00676831 0)
(-0.0191552 0.00763613 0)
(-0.0226461 0.00856767 0)
(-0.0265011 0.00956065 0)
(-0.0307327 0.0106105 0)
(-0.0353493 0.0117101 0)
(-0.0403534 0.0128498 0)
(-0.0457413 0.0140169 0)
(-0.0515016 0.0151962 0)
(-0.0576153 0.0163699 0)
(-0.0640549 0.017518 0)
(-0.0707847 0.0186186 0)
(-0.077761 0.0196486 0)
(-0.0849329 0.0205842 0)
(-0.0922433 0.021402 0)
(-0.0996306 0.0220792 0)
(-0.107029 0.0225947 0)
(-0.114373 0.0229298 0)
(-0.121595 0.0230685 0)
(-0.12863 0.0229981 0)
(-0.135415 0.0227093 0)
(-0.141893 0.0221966 0)
(-0.148009 0.0214577 0)
(-0.153715 0.020494 0)
(-0.158968 0.0193096 0)
(-0.16373 0.0179116 0)
(-0.167967 0.0163096 0)
(-0.171653 0.014515 0)
(-0.174762 0.0125413 0)
(-0.177276 0.0104034 0)
(-0.179176 0.00811755 0)
(-0.18045 0.00570132 0)
(-0.181087 0.00317341 0)
(-0.181077 0.000553615 0)
(-0.180416 -0.00213702 0)
(-0.1791 -0.00487603 0)
(-0.177126 -0.00764008 0)
(-0.174497 -0.0104043 0)
(-0.171217 -0.0131424 0)
(-0.167294 -0.015827 0)
(-0.162739 -0.0184291 0)
(-0.157567 -0.020919 0)
(-0.151799 -0.023266 0)
(-0.14546 -0.0254391 0)
(-0.138582 -0.0274073 0)
(-0.131201 -0.0291404 0)
(-0.123362 -0.0306097 0)
(-0.115114 -0.0317887 0)
(-0.106515 -0.0326542 0)
(-0.0976269 -0.033187 0)
(-0.0885194 -0.0333733 0)
(-0.0792665 -0.0332047 0)
(-0.0699466 -0.0326799 0)
(-0.0606411 -0.0318045 0)
(-0.0514331 -0.0305916 0)
(-0.0424054 -0.0290615 0)
(-0.0336396 -0.0272421 0)
(-0.0252136 -0.0251674 0)
(-0.0172007 -0.0228776 0)
(-0.00966759 -0.020417 0)
(-0.00267338 -0.0178338 0)
(0.00373175 -0.0151777 0)
(0.00950732 -0.0124991 0)
(0.0146232 -0.00984732 0)
(0.0190602 -0.00726914 0)
(0.0228101 -0.00480765 0)
(0.0258755 -0.00250076 0)
(0.0282702 -0.000380572 0)
(0.030018 0.00152768 0)
(0.0311525 0.00320607 0)
(0.0317158 0.00464418 0)
(0.0317571 0.00583904 0)
(0.0313315 0.00679466 0)
(0.0304979 0.00752143 0)
(0.0293174 0.00803508 0)
(0.0278511 0.00835564 0)
(0.0261585 0.00850616 0)
(0.0242959 0.00851149 0)
(0.022315 0.00839695 0)
(0.0202622 0.00818712 0)
(0.0181776 0.00790461 0)
(0.0160956 0.00756885 0)
(0.0140449 0.00719491 0)
(0.0120494 0.00679228 0)
(0.0101291 0.00636383 0)
(0.00830218 0.00590516 0)
(0.00658623 0.00540441 0)
(0.00500044 0.00484329 0)
(0.00356743 0.0041995 0)
(0.00231545 0.00345122 0)
(0.00127344 0.00258418 0)
(0.000514825 0.00160058 0)
(5.81726e-05 0.000541057 0)
(2.74938e-05 -0.000517509 0)
(0.000218224 -0.00122446 0)
(0.000487499 -0.0016646 0)
(0.000806085 -0.00189622 0)
(0.00112464 -0.00196869 0)
(0.00142017 -0.00192332 0)
(0.00167412 -0.00179297 0)
(0.00187305 -0.00160235 0)
(0.00200661 -0.00136886 0)
(0.00206608 -0.00110373 0)
(0.00204333 -0.000813255 0)
(0.00192996 -0.000500004 0)
(0.00171691 -0.000163902 0)
(0.0013941 0.00019691 0)
(0.000950236 0.000585408 0)
(0.000372758 0.00100524 0)
(-0.000352244 0.00146045 0)
(-0.00124005 0.00195535 0)
(-0.00230732 0.00249447 0)
(-0.00357214 0.0030826 0)
(-0.00505396 0.00372474 0)
(-0.00677365 0.00442616 0)
(-0.00875328 0.00519225 0)
(-0.011016 0.00602834 0)
(-0.0135857 0.00693948 0)
(-0.0164866 0.00793 0)
(-0.0197423 0.00900313 0)
(-0.0233755 0.0101604 0)
(-0.0274063 0.0114014 0)
(-0.031852 0.0127227 0)
(-0.0367251 0.0141183 0)
(-0.0420323 0.0155783 0)
(-0.0477738 0.0170895 0)
(-0.0539415 0.0186348 0)
(-0.0605188 0.0201937 0)
(-0.0674798 0.0217424 0)
(-0.0747891 0.0232542 0)
(-0.0824025 0.0247002 0)
(-0.0902674 0.0260506 0)
(-0.098324 0.0272748 0)
(-0.106507 0.0283434 0)
(-0.114748 0.0292285 0)
(-0.122976 0.0299047 0)
(-0.13112 0.0303503 0)
(-0.139112 0.0305475 0)
(-0.146888 0.0304829 0)
(-0.154387 0.0301476 0)
(-0.161555 0.0295372 0)
(-0.168341 0.0286514 0)
(-0.174705 0.0274937 0)
(-0.180608 0.0260708 0)
(-0.186018 0.0243926 0)
(-0.190909 0.0224708 0)
(-0.195256 0.0203194 0)
(-0.19904 0.0179537 0)
(-0.202244 0.0153906 0)
(-0.204853 0.0126476 0)
(-0.206854 0.00974351 0)
(-0.208236 0.00669787 0)
(-0.208987 0.00353122 0)
(-0.209101 0.000265146 0)
(-0.208568 -0.00307758 0)
(-0.207381 -0.0064729 0)
(-0.205537 -0.00989526 0)
(-0.203031 -0.0133175 0)
(-0.199863 -0.0167107 0)
(-0.196033 -0.0200441 0)
(-0.191546 -0.0232853 0)
(-0.18641 -0.0264003 0)
(-0.180637 -0.0293535 0)
(-0.174245 -0.0321085 0)
(-0.167257 -0.0346283 0)
(-0.159702 -0.0368763 0)
(-0.151617 -0.0388169 0)
(-0.143044 -0.0404165 0)
(-0.134036 -0.0416449 0)
(-0.124651 -0.0424762 0)
(-0.114955 -0.0428898 0)
(-0.105022 -0.0428722 0)
(-0.0949309 -0.0424173 0)
(-0.0847663 -0.0415275 0)
(-0.0746157 -0.0402143 0)
(-0.0645686 -0.0384982 0)
(-0.0547141 -0.0364087 0)
(-0.0451395 -0.0339837 0)
(-0.0359277 -0.0312684 0)
(-0.0271558 -0.0283144 0)
(-0.0188934 -0.0251777 0)
(-0.0112015 -0.0219174 0)
(-0.00413097 -0.0185939 0)
(0.00227742 -0.0152671 0)
(0.00799396 -0.0119946 0)
(0.0129999 -0.00883052 0)
(0.0172876 -0.00582381 0)
(0.0208601 -0.00301714 0)
(0.0237311 -0.000445926 0)
(0.0259241 0.00186241 0)
(0.0274721 0.00388892 0)
(0.0284163 0.00562331 0)
(0.0288054 0.0070638 0)
(0.0286937 0.0082166 0)
(0.0281399 0.00909518 0)
(0.0272051 0.00971912 0)
(0.0259511 0.0101128 0)
(0.0244385 0.0103042 0)
(0.0227253 0.0103227 0)
(0.0208652 0.0101983 0)
(0.0189071 0.00995937 0)
(0.0168943 0.00963111 0)
(0.0148644 0.00923401 0)
(0.01285 0.00878217 0)
(0.0108794 0.00828179 0)
(0.00897795 0.00773022 0)
(0.00716969 0.00711554 0)
(0.0054795 0.0064173 0)
(0.00393548 0.00560874 0)
(0.00257186 0.00466075 0)
(0.00142417 0.00354802 0)
(0.000580018 0.00225644 0)
(6.60325e-05 0.000799267 0)
(2.55454e-05 -0.000621323 0)
(0.000198931 -0.00144975 0)
(0.000435684 -0.00194732 0)
(0.000705683 -0.00219187 0)
(0.000961207 -0.00224628 0)
(0.00117997 -0.00216129 0)
(0.0013443 -0.00197597 0)
(0.00144125 -0.00171885 0)
(0.00146044 -0.00140934 0)
(0.0013925 -0.00105937 0)
(0.00122792 -0.000675082 0)
(0.000956371 -0.000258271 0)
(0.000566281 0.00019226 0)
(4.46051e-05 0.00067969 0)
(-0.00062327 0.00120842 0)
(-0.00145356 0.00178354 0)
(-0.00246406 0.00241059 0)
(-0.00367415 0.00309535 0)
(-0.00510476 0.00384384 0)
(-0.00677834 0.00466228 0)
(-0.00871877 0.0055571 0)
(-0.0109512 0.00653484 0)
(-0.0135019 0.00760193 0)
(-0.0163977 0.00876441 0)
(-0.0196655 0.0100275 0)
(-0.0233315 0.0113949 0)
(-0.0274202 0.0128685 0)
(-0.0319534 0.0144473 0)
(-0.0369487 0.0161271 0)
(-0.042418 0.0178997 0)
(-0.0483664 0.0197525 0)
(-0.054791 0.0216683 0)
(-0.0616794 0.0236251 0)
(-0.0690091 0.0255966 0)
(-0.0767474 0.0275523 0)
(-0.0848512 0.0294586 0)
(-0.0932682 0.0312795 0)
(-0.101937 0.0329779 0)
(-0.110792 0.0345169 0)
(-0.119759 0.035861 0)
(-0.128765 0.0369777 0)
(-0.137736 0.0378382 0)
(-0.146601 0.0384185 0)
(-0.155291 0.0386998 0)
(-0.163743 0.0386687 0)
(-0.171901 0.0383174 0)
(-0.179715 0.037643 0)
(-0.187142 0.0366473 0)
(-0.194144 0.0353363 0)
(-0.200689 0.033719 0)
(-0.20675 0.0318075 0)
(-0.212306 0.0296155 0)
(-0.217335 0.0271589 0)
(-0.221822 0.0244544 0)
(-0.225751 0.0215197 0)
(-0.229109 0.0183734 0)
(-0.231883 0.0150346 0)
(-0.234062 0.0115229 0)
(-0.235635 0.00785891 0)
(-0.236592 0.00406379 0)
(-0.236921 0.000159915 0)
(-0.236614 -0.00382912 0)
(-0.23566 -0.00787838 0)
(-0.234052 -0.0119611 0)
(-0.231782 -0.0160486 0)
(-0.228842 -0.0201101 0)
(-0.225229 -0.0241123 0)
(-0.220939 -0.0280199 0)
(-0.215973 -0.0317952 0)
(-0.210335 -0.0353982 0)
(-0.204032 -0.0387873 0)
(-0.19708 -0.0419198 0)
(-0.189496 -0.0447521 0)
(-0.181309 -0.0472415 0)
(-0.172552 -0.0493465 0)
(-0.163268 -0.0510284 0)
(-0.153511 -0.0522531 0)
(-0.14334 -0.052992 0)
(-0.132827 -0.0532237 0)
(-0.12205 -0.0529355 0)
(-0.111096 -0.0521245 0)
(-0.100056 -0.0507983 0)
(-0.0890275 -0.0489757 0)
(-0.0781084 -0.0466866 0)
(-0.0673968 -0.0439712 0)
(-0.0569875 -0.0408794 0)
(-0.0469706 -0.0374693 0)
(-0.0374285 -0.0338052 0)
(-0.0284345 -0.0299556 0)
(-0.0200516 -0.0259915 0)
(-0.0123313 -0.0219837 0)
(-0.00531351 -0.0180011 0)
(0.000973822 -0.0141092 0)
(0.00651423 -0.0103679 0)
(0.0113025 -0.00683061 0)
(0.015344 -0.00354307 0)
(0.0186544 -0.000542472 0)
(0.0212586 0.00214317 0)
(0.0231906 0.00449536 0)
(0.0244919 0.00650518 0)
(0.0252114 0.00817304 0)
(0.0254032 0.00950814 0)
(0.025126 0.0105275 0)
(0.0244409 0.0112547 0)
(0.0234098 0.0117185 0)
(0.022094 0.0119512 0)
(0.0205524 0.0119862 0)
(0.0188403 0.0118569 0)
(0.0170083 0.0115936 0)
(0.0151022 0.0112223 0)
(0.0131629 0.0107618 0)
(0.0112266 0.0102221 0)
(0.00932628 0.0096032 0)
(0.00749309 0.00889365 0)
(0.00575846 0.00807136 0)
(0.00415678 0.00710506 0)
(0.00272886 0.00595758 0)
(0.00151701 0.00459079 0)
(0.000619923 0.00297159 0)
(7.075e-05 0.00108281 0)
(2.27173e-05 -0.000714611 0)
(0.00017148 -0.00164492 0)
(0.000363411 -0.00218179 0)
(0.000568231 -0.00242252 0)
(0.00074151 -0.00244351 0)
(0.000862405 -0.00230481 0)
(0.000914596 -0.00205135 0)
(0.000885881 -0.00171487 0)
(0.000765847 -0.00131609 0)
(0.000544275 -0.000866935 0)
(0.000210038 -0.00037266 0)
(-0.00024951 0.000166305 0)
(-0.000848846 0.000752803 0)
(-0.0016044 0.00139176 0)
(-0.00253454 0.00208932 0)
(-0.00365952 0.00285234 0)
(-0.00500141 0.003688 0)
(-0.00658398 0.00460372 0)
(-0.00843266 0.00560711 0)
(-0.0105744 0.00670584 0)
(-0.0130373 0.00790767 0)
(-0.0158507 0.00922012 0)
(-0.0190442 0.0106502 0)
(-0.0226476 0.012204 0)
(-0.0266893 0.0138858 0)
(-0.0311957 0.0156974 0)
(-0.0361898 0.0176375 0)
(-0.0416894 0.0197006 0)
(-0.047706 0.0218763 0)
(-0.0542426 0.0241491 0)
(-0.061293 0.0264973 0)
(-0.0688404 0.028894 0)
(-0.0768566 0.0313065 0)
(-0.0853022 0.0336974 0)
(-0.0941268 0.0360259 0)
(-0.10327 0.0382486 0)
(-0.112665 0.0403213 0)
(-0.122236 0.0422007 0)
(-0.131907 0.043846 0)
(-0.141601 0.0452205 0)
(-0.151241 0.0462924 0)
(-0.160755 0.047036 0)
(-0.170077 0.0474321 0)
(-0.179148 0.0474679 0)
(-0.187913 0.0471368 0)
(-0.196329 0.0464378 0)
(-0.204355 0.0453748 0)
(-0.211959 0.0439556 0)
(-0.219114 0.0421917 0)
(-0.225796 0.0400967 0)
(-0.231986 0.0376863 0)
(-0.237667 0.0349776 0)
(-0.242824 0.0319886 0)
(-0.247445 0.0287377 0)
(-0.251519 0.025244 0)
(-0.255033 0.0215269 0)
(-0.257978 0.017606 0)
(-0.260344 0.0135016 0)
(-0.262122 0.00923427 0)
(-0.263301 0.00482542 0)
(-0.263871 0.000297462 0)
(-0.263823 -0.00432594 0)
(-0.263145 -0.0090196 0)
(-0.261828 -0.0137564 0)
(-0.259859 -0.0185072 0)
(-0.257229 -0.0232401 0)
(-0.253928 -0.0279206 0)
(-0.249946 -0.0325115 0)
(-0.245275 -0.0369721 0)
(-0.23991 -0.0412594 0)
(-0.233849 -0.0453273 0)
(-0.227094 -0.0491276 0)
(-0.219653 -0.0526105 0)
(-0.21154 -0.0557256 0)
(-0.202777 -0.0584232 0)
(-0.193395 -0.0606553 0)
(-0.183436 -0.0623778 0)
(-0.172952 -0.063552 0)
(-0.162006 -0.0641466 0)
(-0.150673 -0.0641393 0)
(-0.139038 -0.0635189 0)
(-0.127197 -0.0622863 0)
(-0.115251 -0.0604556 0)
(-0.103309 -0.0580545 0)
(-0.0914805 -0.0551238 0)
(-0.0798756 -0.0517166 0)
(-0.0686004 -0.047897 0)
(-0.0577539 -0.0437374 0)
(-0.0474263 -0.0393167 0)
(-0.037696 -0.0347172 0)
(-0.0286286 -0.0300223 0)
(-0.0202762 -0.0253134 0)
(-0.0126771 -0.0206685 0)
(-0.00585633 -0.0161596 0)
(0.000173732 -0.0118513 0)
(0.00541229 -0.00780019 0)
(0.00986921 -0.00405327 0)
(0.0135641 -0.000647784 0)
(0.0165254 0.00238934 0)
(0.0187897 0.00504159 0)
(0.0204006 0.00730275 0)
(0.0214081 0.00917656 0)
(0.0218673 0.010676 0)
(0.0218372 0.011822 0)
(0.0213792 0.0126426 0)
(0.0205556 0.0131705 0)
(0.019428 0.0134416 0)
(0.0180559 0.0134924 0)
(0.0164959 0.0133578 0)
(0.0148002 0.0130682 0)
(0.0130168 0.0126471 0)
(0.0111897 0.0121085 0)
(0.00935914 0.0114552 0)
(0.00756359 0.0106767 0)
(0.00584145 0.00974962 0)
(0.00423383 0.00863831 0)
(0.00278818 0.00729722 0)
(0.00155325 0.00567478 0)
(0.000635369 0.00371814 0)
(7.24746e-05 0.00137951 0)
(1.90795e-05 -0.000793822 0)
(0.000136581 -0.0018005 0)
(0.000272375 -0.002354 0)
(0.000396649 -0.00257088 0)
(0.000469789 -0.0025409 0)
(0.000473105 -0.00233285 0)
(0.000392089 -0.00199682 0)
(0.000215441 -0.00156693 0)
(-6.73588e-05 -0.00106432 0)
(-0.000467614 -0.000500037 0)
(-0.000998424 0.000122326 0)
(-0.00167516 0.000804384 0)
(-0.00251565 0.00155116 0)
(-0.00354013 0.00236975 0)
(-0.00477113 0.00326837 0)
(-0.00623329 0.00425581 0)
(-0.00795321 0.00534109 0)
(-0.00995923 0.00653332 0)
(-0.0122813 0.00784163 0)
(-0.0149506 0.00927503 0)
(-0.0179993 0.0108422 0)
(-0.02146 0.0125512 0)
(-0.0253649 0.0144087 0)
(-0.0297447 0.0164196 0)
(-0.0346277 0.0185857 0)
(-0.0400379 0.0209052 0)
(-0.0459934 0.0233712 0)
(-0.0525047 0.0259712 0)
(-0.0595733 0.0286861 0)
(-0.0671897 0.0314901 0)
(-0.0753326 0.0343506 0)
(-0.0839683 0.0372285 0)
(-0.0930511 0.0400796 0)
(-0.102524 0.0428553 0)
(-0.112319 0.0455049 0)
(-0.122363 0.0479772 0)
(-0.132576 0.0502229 0)
(-0.142877 0.052196 0)