/*--------------------------------*- C++ -*----------------------------------*\
| =========                 |                                                 |
| \\      /  F ield         | OpenFOAM: The Open Source CFD Toolbox           |
|  \\    /   O peration     | Version:  2406                                  |
|   \\  /    A nd           | Website:  www.openfoam.com                      |
|    \\/     M anipulation  |                                                 |
\*---------------------------------------------------------------------------*/
FoamFile
{
    version     2.0;
    format      ascii;
    arch        "LSB;label=32;scalar=64";
    class       volScalarField;
    location    "39.8";
    object      p;
}
// * * * * * * * * * * * * * * * * * * * * * * * * * * * * * * * * * * * * * //

dimensions      [0 2 -2 0 0 0 0];

internalField   nonuniform List<scalar> 
14400
(
-1.05086e-09
8.54944e-06
1.95232e-05
2.75931e-05
2.93142e-05
2.25206e-05
6.2262e-06
-1.96381e-05
-5.44605e-05
-9.71729e-05
-0.000146467
-0.000200997
-0.000259539
-0.000321128
-0.000385129
-0.000451279
-0.000519686
-0.000590831
-0.000665451
-0.000744502
-0.000829094
-0.000920304
-0.00101941
-0.00112758
-0.0012459
-0.00137542
-0.00151709
-0.00167181
-0.00184043
-0.00202375
-0.00222247
-0.00243723
-0.00266852
-0.00291663
-0.00318164
-0.00346332
-0.0037611
-0.00407396
-0.00440046
-0.00473859
-0.00508579
-0.0054389
-0.00579416
-0.00614716
-0.00649291
-0.0068259
-0.00714009
-0.00742908
-0.0076862
-0.00790464
-0.00807761
-0.00819851
-0.00826115
-0.00825987
-0.00818982
-0.0080471
-0.00782898
-0.00753408
-0.0071625
-0.00671603
-0.00619823
-0.00561423
-0.00497105
-0.00427852
-0.00354768
-0.00279088
-0.00202235
-0.00125754
-0.000512858
0.00019483
0.000848619
0.00143212
0.00193002
0.00232867
0.00261669
0.00278541
0.00282939
0.00274666
0.00253896
0.00221167
0.00177367
0.00123694
0.000616064
-7.24089e-05
-0.000810735
-0.00158073
-0.00236452
-0.00314526
-0.00390772
-0.00463873
-0.00532789
-0.00596684
-0.00654939
-0.0070726
-0.00753565
-0.0079394
-0.00828629
-0.00857997
-0.00882488
-0.009026
-0.00918849
-0.00931749
-0.00941792
-0.00949436
-0.00955098
-0.00959145
-0.00961896
-0.00963623
-0.00964549
-0.00964857
-0.00964684
-0.00964135
-0.00963278
-0.00962159
-0.00960814
-0.00959283
-0.00957643
-0.00956036
-0.00954716
-0.0095397
-8.51053e-06
7.48209e-08
1.0168e-05
1.63232e-05
1.63736e-05
8.5192e-06
-8.14241e-06
-3.36961e-05
-6.76123e-05
-0.000108944
-0.00015652
-0.000209126
-0.000265663
-0.000325265
-0.000387367
-0.000451748
-0.000518522
-0.0005881
-0.000661182
-0.000738652
-0.000821543
-0.000911037
-0.00100819
-0.0011141
-0.00122981
-0.00135633
-0.00149459
-0.00164548
-0.00180985
-0.00198849
-0.00218216
-0.0023915
-0.00261705
-0.00285918
-0.00311802
-0.00339346
-0.003685
-0.00399178
-0.00431248
-0.00464523
-0.00498764
-0.00533671
-0.0056888
-0.00603966
-0.00638445
-0.00671772
-0.00703355
-0.00732559
-0.00758718
-0.00781152
-0.00799179
-0.00812132
-0.00819381
-0.00820352
-0.00814544
-0.00801553
-0.00781087
-0.00752989
-0.00717253
-0.00674033
-0.00623654
-0.00566661
-0.00503769
-0.0043583
-0.0036393
-0.00289349
-0.00213501
-0.00137919
-0.00064237
5.86183e-05
0.000706867
0.00128595
0.0017805
0.0021768
0.00246338
0.00263151
0.00267568
0.0025939
0.00238789
0.00206308
0.0016284
0.00109593
0.000480358
-0.00020168
-0.00093236
-0.00169346
-0.00246715
-0.00323667
-0.00398701
-0.00470524
-0.00538065
-0.00600544
-0.0065746
-0.00708528
-0.0075366
-0.00792975
-0.00826741
-0.00855335
-0.00879208
-0.00898856
-0.00914786
-0.009275
-0.00937474
-0.00945149
-0.00950919
-0.00955136
-0.009581
-0.00960069
-0.00961255
-0.00961829
-0.00961926
-0.00961644
-0.00961056
-0.0096021
-0.00959143
-0.00957896
-0.00956533
-0.0095517
-0.00953972
-0.0095322
-1.97424e-05
-1.01078e-05
1.48653e-07
4.77744e-06
3.22554e-06
-5.80687e-06
-2.30531e-05
-4.85413e-05
-8.17646e-05
-0.00012185
-0.000167723
-0.000218281
-0.000272535
-0.000329717
-0.000389344
-0.00045125
-0.000515575
-0.000582735
-0.000653392
-0.000728392
-0.000808698
-0.000895346
-0.000989376
-0.00109182
-0.00120366
-0.00132587
-0.00145934
-0.00160497
-0.00176362
-0.00193612
-0.00212329
-0.00232586
-0.00254447
-0.00277963
-0.00303164
-0.00330054
-0.00358606
-0.00388753
-0.00420385
-0.0045334
-0.00487397
-0.00522275
-0.00557627
-0.0059304
-0.00628036
-0.00662075
-0.00694559
-0.00724848
-0.00752262
-0.00776105
-0.00795676
-0.00810286
-0.00819284
-0.0082207
-0.00818121
-0.00807011
-0.00788427
-0.00762191
-0.00728278
-0.00686825
-0.00638134
-0.00582703
-0.0052128
-0.00454735
-0.00384105
-0.00310634
-0.0023573
-0.00160925
-0.000878497
-0.000181894
0.000463593
0.00104145
0.00153618
0.0019339
0.00222295
0.00239441
0.00244259
0.00236534
0.00216428
0.00184476
0.00141573
0.000889339
0.000280393
-0.000394308
-0.00111676
-0.00186858
-0.00263178
-0.00338953
-0.00412676
-0.00483061
-0.00549071
-0.00609959
-0.00665244
-0.00714666
-0.00758181
-0.0079595
-0.0082828
-0.00855576
-0.00878315
-0.00897005
-0.00912161
-0.00924281
-0.0093383
-0.00941234
-0.00946868
-0.00951062
-0.00954095
-0.00956203
-0.0095758
-0.00958383
-0.00958735
-0.00958729
-0.00958433
-0.00957893
-0.00957143
-0.00956211
-0.00955142
-0.00953998
-0.00952797
-0.00951904
-2.89939e-05
-1.7084e-05
-4.81012e-06
1.56086e-08
-2.00846e-06
-1.17683e-05
-2.97593e-05
-5.58206e-05
-8.93081e-05
-0.000129258
-0.000174541
-0.000224035
-0.000276763
-0.000331993
-0.000389299
-0.00044857
-0.000510015
-0.000574105
-0.000641532
-0.000713158
-0.000789947
-0.000872908
-0.000963062
-0.00106141
-0.0011689
-0.00128647
-0.00141505
-0.00155554
-0.00170888
-0.00187602
-0.0020579
-0.00225546
-0.00246954
-0.0027009
-0.0029501
-0.00321748
-0.00350305
-0.00380643
-0.00412676
-0.00446262
-0.00481197
-0.00517207
-0.00553944
-0.00590987
-0.00627839
-0.00663933
-0.00698642
-0.00731286
-0.00761148
-0.00787489
-0.00809569
-0.00826665
-0.00838091
-0.00843221
-0.00841508
-0.00832507
-0.00815892
-0.00791472
-0.00759212
-0.00719244
-0.00671875
-0.00617587
-0.00557066
-0.00491218
-0.00421097
-0.00347928
-0.00273107
-0.00198163
-0.00124729
-0.000544996
0.000108144
0.000695393
0.00120097
0.00161063
0.00191233
0.00209671
0.00215765
0.00209262
0.00190289
0.00159357
0.00117349
0.000654776
5.23731e-05
-0.000616684
-0.00133406
-0.00208095
-0.00283896
-0.00359083
-0.00432111
-0.00501666
-0.00566706
-0.00626465
-0.00680445
-0.00728399
-0.00770346
-0.0080648
-0.00837146
-0.00862797
-0.00883953
-0.00901165
-0.00914979
-0.00925918
-0.00934459
-0.00941032
-0.00946008
-0.00949703
-0.00952381
-0.00954259
-0.00955513
-0.00956281
-0.00956671
-0.0095676
-0.00956605
-0.00956238
-0.00955676
-0.00954925
-0.00953996
-0.00952899
-0.0095151
-0.00950367
-3.36686e-05
-1.95321e-05
-5.10772e-06
2.44859e-07
-2.11244e-06
-1.27511e-05
-3.19053e-05
-5.91543e-05
-9.36228e-05
-0.000134158
-0.00017949
-0.000228406
-0.000279894
-0.000333238
-0.000388063
-0.000444344
-0.000502374
-0.000562725
-0.000626174
-0.000693651
-0.000766164
-0.000844751
-0.00093044
-0.00102423
-0.00112708
-0.00123997
-0.00136387
-0.00149982
-0.0016489
-0.0018123
-0.00199122
-0.00218691
-0.0024006
-0.0026334
-0.00288627
-0.00315993
-0.00345472
-0.00377054
-0.00410672
-0.00446191
-0.00483402
-0.00522014
-0.00561646
-0.00601835
-0.00642033
-0.00681614
-0.00719891
-0.00756124
-0.0078954
-0.00819351
-0.00844776
-0.00865058
-0.00879488
-0.00887423
-0.00888307
-0.00881691
-0.00867247
-0.00844785
-0.0081427
-0.00775829
-0.00729769
-0.00676576
-0.00616919
-0.00551666
-0.00481866
-0.00408738
-0.00333659
-0.00258146
-0.00183823
-0.00112385
-0.000455522
0.0001498
0.000676
0.0011084
0.00143439
0.001644
0.00173042
0.00169043
0.00152468
0.00123772
0.000837951
0.00033724
-0.000249564
-0.00090534
-0.0016115
-0.00234887
-0.00309856
-0.00384276
-0.00456549
-0.00525309
-0.00589463
-0.00648205
-0.00701018
-0.00747659
-0.00788137
-0.00822662
-0.00851611
-0.00875478
-0.0089483
-0.00910265
-0.00922377
-0.0093173
-0.00938834
-0.00944141
-0.00948033
-0.00950827
-0.00952783
-0.00954103
-0.00954946
-0.00955433
-0.00955651
-0.00955662
-0.00955501
-0.00955183
-0.00954702
-0.00954036
-0.00953162
-0.00952036
-0.00950409
-0.00948999
-3.21784e-05
-1.62013e-05
-1.6922e-08
5.6647e-06
2.69745e-06
-9.24969e-06
-3.0138e-05
-5.92346e-05
-9.53628e-05
-0.00013711
-0.000183002
-0.000231695
-0.000282117
-0.00033356
-0.000385715
-0.000438663
-0.000492826
-0.000548913
-0.000607832
-0.000670626
-0.000738395
-0.000812251
-0.00089328
-0.000982542
-0.00108109
-0.00119001
-0.00131047
-0.00144373
-0.00159121
-0.00175446
-0.00193514
-0.00213496
-0.00235566
-0.00259884
-0.00286593
-0.00315798
-0.00347562
-0.00381884
-0.00418691
-0.00457823
-0.00499028
-0.00541954
-0.00586153
-0.00631078
-0.006761
-0.00720515
-0.00763558
-0.00804428
-0.00842298
-0.00876342
-0.00905751
-0.00929754
-0.00947637
-0.00958759
-0.00962573
-0.00958638
-0.00946638
-0.00926389
-0.0089786
-0.00861177
-0.00816635
-0.00764707
-0.00706046
-0.00641486
-0.0057204
-0.00498894
-0.00423394
-0.00347024
-0.00271384
-0.00198154
-0.00129055
-0.000657949
-0.00010018
0.000367577
0.000732024
0.000982353
0.00111081
0.00111318
0.000989063
0.000742085
0.000379803
-8.65543e-05
-0.000642575
-0.00127134
-0.00195422
-0.00267182
-0.0034048
-0.00413484
-0.00484531
-0.00552191
-0.00615304
-0.00673006
-0.0072473
-0.00770194
-0.00809376
-0.00842474
-0.00869867
-0.00892065
-0.00909664
-0.00923302
-0.00933616
-0.00941218
-0.00946661
-0.00950434
-0.00952946
-0.00954534
-0.00955463
-0.00955934
-0.00956098
-0.00956061
-0.00955893
-0.00955637
-0.0095531
-0.00954904
-0.00954389
-0.00953715
-0.00952826
-0.00951631
-0.00949772
-0.00948121
-2.35448e-05
-6.19233e-06
1.11768e-05
1.67153e-05
1.26122e-05
-1.25273e-06
-2.45459e-05
-5.61756e-05
-9.46079e-05
-0.000138118
-0.000184991
-0.000233729
-0.000283197
-0.000332708
-0.00038204
-0.00043141
-0.00048141
-0.000532924
-0.000587038
-0.000644954
-0.000707921
-0.000777185
-0.000853972
-0.000939505
-0.00103505
-0.00114195
-0.00126172
-0.00139607
-0.00154692
-0.0017164
-0.00190677
-0.00212038
-0.00235952
-0.00262631
-0.00292251
-0.00324939
-0.00360751
-0.00399659
-0.00441539
-0.00486159
-0.00533177
-0.00582142
-0.006325
-0.00683604
-0.0073473
-0.00785091
-0.00833859
-0.00880181
-0.00923199
-0.00962068
-0.00995975
-0.0102416
-0.0104591
-0.0106062
-0.0106775
-0.0106688
-0.0105771
-0.0104007
-0.0101393
-0.00979392
-0.00936751
-0.00886445
-0.00829093
-0.00765485
-0.00696581
-0.00623513
-0.00547567
-0.00470177
-0.00392896
-0.00317367
-0.00245293
-0.00178382
-0.00118303
-0.000666254
-0.000247539
6.12984e-05
0.000251295
0.000316856
0.000256164
7.14065e-05
-0.000231186
-0.000641532
-0.00114612
-0.00172865
-0.0023708
-0.00305315
-0.00375615
-0.00446098
-0.00515039
-0.00580934
-0.00642548
-0.0069894
-0.00749468
-0.00793786
-0.00831813
-0.00863704
-0.00889805
-0.0091061
-0.00926717
-0.00938774
-0.0094745
-0.00953388
-0.00957186
-0.00959372
-0.00960396
-0.00960622
-0.00960339
-0.0095976
-0.00959038
-0.00958275
-0.00957532
-0.00956836
-0.00956187
-0.00955558
-0.00954898
-0.0095413
-0.00953167
-0.00951881
-0.00949825
-0.00947982
-6.98359e-06
1.12575e-05
2.91517e-05
3.39065e-05
2.79812e-05
1.14776e-05
-1.49391e-05
-4.97736e-05
-9.10913e-05
-0.000136823
-0.000185
-0.000233973
-0.000282561
-0.000330125
-0.000376564
-0.000422271
-0.000468046
-0.000514993
-0.000564422
-0.000617754
-0.000676454
-0.000741997
-0.000815867
-0.000899599
-0.00099484
-0.00110342
-0.00122742
-0.00136921
-0.00153142
-0.00171693
-0.00192872
-0.00216979
-0.00244293
-0.00275055
-0.00309446
-0.00347568
-0.00389423
-0.00434904
-0.00483783
-0.0053571
-0.00590219
-0.00646736
-0.00704591
-0.00763035
-0.00821262
-0.00878422
-0.00933641
-0.00986042
-0.0103476
-0.0107895
-0.0111782
-0.0115062
-0.0117669
-0.0119543
-0.0120633
-0.0120899
-0.0120313
-0.0118859
-0.0116532
-0.0113344
-0.0109319
-0.0104499
-0.00989393
-0.00927137
-0.00859112
-0.00786371
-0.00710124
-0.00631722
-0.00552645
-0.00474477
-0.00398874
-0.00327524
-0.00262103
-0.00204218
-0.0015535
-0.00116788
-0.000895703
-0.000744231
-0.000717146
-0.000814199
-0.00103107
-0.00135943
-0.00178727
-0.00229945
-0.00287843
-0.00350519
-0.00416017
-0.00482424
-0.00547957
-0.00611038
-0.00670344
-0.00724844
-0.00773805
-0.00816793
-0.00853646
-0.00884447
-0.00909481
-0.00929193
-0.00944146
-0.00954972
-0.00962337
-0.00966897
-0.00969277
-0.00970035
-0.0096966
-0.00968551
-0.00967026
-0.00965325
-0.00963615
-0.00962004
-0.00960555
-0.00959289
-0.00958194
-0.00957232
-0.00956332
-0.00955398
-0.00954318
-0.00952933
-0.00950733
-0.00948762
1.83347e-05
3.69747e-05
5.46963e-05
5.79344e-05
4.94135e-05
2.95006e-05
-7.58344e-07
-3.94215e-05
-8.41235e-05
-0.00013244
-0.000182158
-0.000231502
-0.000279287
-0.00032496
-0.000368592
-0.000410794
-0.000452618
-0.000495441
-0.000540854
-0.000590574
-0.000646383
-0.000710117
-0.000783688
-0.000869145
-0.000968756
-0.00108508
-0.001221
-0.00137977
-0.00156489
-0.00178004
-0.0020289
-0.00231491
-0.00264106
-0.00300962
-0.00342192
-0.00387813
-0.00437719
-0.0049167
-0.00549296
-0.00610104
-0.0067349
-0.00738756
-0.00805129
-0.00871779
-0.0093784
-0.0100242
-0.0106463
-0.0112359
-0.0117844
-0.0122837
-0.012726
-0.0131042
-0.013412
-0.0136437
-0.0137946
-0.013861
-0.0138402
-0.0137305
-0.0135317
-0.0132445
-0.0128712
-0.0124155
-0.0118823
-0.0112784
-0.0106117
-0.00989178
-0.00912976
-0.00833809
-0.00753053
-0.00672199
-0.00592824
-0.00516565
-0.00445071
-0.00379965
-0.00322784
-0.00274917
-0.00237549
-0.00211593
-0.00197635
-0.00195895
-0.0020619
-0.00227932
-0.00260144
-0.00301499
-0.00350388
-0.00405003
-0.0046343
-0.00523754
-0.00584151
-0.00642968
-0.00698792
-0.00750484
-0.00797205
-0.00838413
-0.00873844
-0.00903483
-0.00927529
-0.0094635
-0.00960445
-0.00970396
-0.00976835
-0.00980402
-0.00981721
-0.00981364
-0.00979842
-0.00977586
-0.00974945
-0.00972187
-0.00969505
-0.00967026
-0.00964821
-0.00962919
-0.00961305
-0.00959936
-0.00958731
-0.00957582
-0.00956357
-0.00954877
-0.00952595
-0.00950565
5.34042e-05
7.1945e-05
8.87725e-05
8.97187e-05
7.77994e-05
5.37091e-05
1.89311e-05
-2.41088e-05
-7.26007e-05
-0.000123777
-0.000175212
-0.000225057
-0.000272173
-0.000316159
-0.000357307
-0.000396503
-0.000435109
-0.000474837
-0.000517642
-0.00056564
-0.000621077
-0.00068633
-0.000763961
-0.000856787
-0.000967958
-0.00110101
-0.00125984
-0.0014487
-0.00167197
-0.00193401
-0.00223891
-0.00259013
-0.00299032
-0.00344099
-0.00394235
-0.00449319
-0.00509088
-0.00573139
-0.00640943
-0.00711859
-0.00785158
-0.00860037
-0.00935641
-0.0101109
-0.0108546
-0.0115787
-0.0122742
-0.0129324
-0.013545
-0.014104
-0.0146023
-0.0150331
-0.0153904
-0.015669
-0.0158646
-0.0159738
-0.0159939
-0.0159237
-0.0157626
-0.0155114
-0.0151722
-0.0147479
-0.0142431
-0.0136634
-0.0130161
-0.0123096
-0.0115537
-0.0107596
-0.00993973
-0.00910774
-0.00827823
-0.00746662
-0.00668874
-0.00596053
-0.00529755
-0.00471442
-0.00422425
-0.003838
-0.00356389
-0.00340684
-0.00336807
-0.00344482
-0.00363033
-0.00391412
-0.00428237
-0.00471873
-0.00520519
-0.00572307
-0.006254
-0.00678091
-0.00728871
-0.00776489
-0.00819979
-0.00858669
-0.00892167
-0.00920341
-0.00943277
-0.00961242
-0.00974643
-0.00983985
-0.00989838
-0.00992795
-0.00993448
-0.00992359
-0.0099004
-0.00986939
-0.00983426
-0.00979797
-0.00976273
-0.00973005
-0.00970085
-0.00967553
-0.00965407
-0.00963606
-0.00962068
-0.0096068
-0.00959303
-0.00957743
-0.00955442
-0.00953423
9.94219e-05
0.000117336
0.000132517
0.000130382
0.000114272
8.528e-05
4.53822e-05
-2.48621e-06
-5.50771e-05
-0.000109315
-0.000162619
-0.000213137
-0.000259852
-0.000302583
-0.000341912
-0.000379067
-0.000415791
-0.000454221
-0.000496789
-0.000546163
-0.000605242
-0.000677177
-0.00076544
-0.000873883
-0.00100678
-0.00116883
-0.00136504
-0.00160056
-0.00188047
-0.00220942
-0.00259137
-0.00302921
-0.00352455
-0.00407751
-0.00468665
-0.00534897
-0.00606005
-0.00681415
-0.00760444
-0.00842321
-0.0092621
-0.0101123
-0.0109646
-0.0118099
-0.0126389
-0.0134426
-0.0142122
-0.0149393
-0.0156159
-0.0162345
-0.0167885
-0.0172715
-0.0176782
-0.0180037
-0.0182443
-0.0183969
-0.0184592
-0.0184301
-0.0183091
-0.0180969
-0.0177952
-0.0174068
-0.0169353
-0.0163858
-0.0157644
-0.0150783
-0.014336
-0.0135473
-0.0127229
-0.011875
-0.0110167
-0.0101618
-0.00932521
-0.00852189
-0.00776708
-0.00707557
-0.00646128
-0.00593667
-0.00551213
-0.00519536
-0.00499088
-0.00489957
-0.00491846
-0.0050407
-0.0052558
-0.00555018
-0.00590789
-0.00631153
-0.00674328
-0.00718586
-0.00762345
-0.00804237
-0.00843156
-0.00878276
-0.00909054
-0.00935207
-0.00956684
-0.00973625
-0.00986321
-0.00995175
-0.0100067
-0.0100332
-0.0100366
-0.0100221
-0.00999476
-0.00995883
-0.00991815
-0.00987584
-0.00983435
-0.00979544
-0.00976028
-0.00972948
-0.00970318
-0.00968111
-0.00966253
-0.00964635
-0.00963116
-0.00961501
-0.00959245
-0.00957299
0.000157773
0.000174486
0.000187227
0.000181227
0.000160179
0.00012564
8.01242e-05
2.70829e-05
-2.98288e-05
-8.72889e-05
-0.000142643
-0.000194122
-0.00024092
-0.000283159
-0.000321795
-0.000358482
-0.000395441
-0.000435356
-0.000481294
-0.000536673
-0.00060528
-0.000691304
-0.000799389
-0.000934653
-0.00110265
-0.00130926
-0.00156045
-0.00186203
-0.00221924
-0.00263646
-0.0031168
-0.00366188
-0.00427165
-0.00494436
-0.00567659
-0.00646339
-0.00729853
-0.00817466
-0.00908361
-0.0100166
-0.0109643
-0.0119175
-0.0128665
-0.0138019
-0.0147146
-0.0155957
-0.0164366
-0.0172293
-0.0179664
-0.0186411
-0.019247
-0.0197788
-0.0202315
-0.020601
-0.0208841
-0.0210782
-0.0211814
-0.0211928
-0.0211121
-0.02094
-0.0206779
-0.0203283
-0.0198942
-0.01938
-0.0187907
-0.0181324
-0.0174123
-0.0166384
-0.01582
-0.0149672
-0.0140914
-0.0132046
-0.01232
-0.0114512
-0.0106123
-0.00981764
-0.00908123
-0.00841634
-0.00783496
-0.00734722
-0.0069608
-0.00668037
-0.0065072
-0.00643885
-0.00646917
-0.00658849
-0.00678415
-0.00704123
-0.00734341
-0.00767403
-0.00801704
-0.00835782
-0.00868392
-0.00898537
-0.00925492
-0.00948795
-0.00968222
-0.00983755
-0.00995541
-0.0100385
-0.0100906
-0.0101158
-0.0101187
-0.0101039
-0.0100757
-0.0100384
-0.0099955
-0.00995027
-0.00990523
-0.00986237
-0.00982307
-0.00978819
-0.00975811
-0.00973272
-0.00971147
-0.00969336
-0.00967707
-0.00966071
-0.00963919
-0.00962099
0.000229982
0.000244858
0.000254325
0.000243703
0.000217042
0.000176417
0.000124906
6.64523e-05
5.06024e-06
-5.57887e-05
-0.000113468
-0.000166399
-0.000214085
-0.000257053
-0.000296725
-0.000335292
-0.000375589
-0.000421007
-0.00047545
-0.000543326
-0.000629569
-0.000739662
-0.000879627
-0.00105596
-0.00127547
-0.00154501
-0.00187115
-0.00225976
-0.00271562
-0.00324203
-0.0038406
-0.00451106
-0.00525127
-0.00605731
-0.00692368
-0.00784353
-0.00880894
-0.00981115
-0.0108408
-0.0118883
-0.0129437
-0.0139971
-0.015039
-0.0160598
-0.0170505
-0.0180026
-0.018908
-0.0197593
-0.0205498
-0.0212733
-0.0219243
-0.0224981
-0.0229907
-0.0233987
-0.0237192
-0.0239505
-0.024091
-0.0241401
-0.0240979
-0.0239649
-0.0237427
-0.0234331
-0.023039
-0.0225639
-0.022012
-0.0213882
-0.0206985
-0.0199493
-0.0191482
-0.0183036
-0.0174245
-0.0165212
-0.0156046
-0.0146864
-0.0137792
-0.0128958
-0.0120496
-0.0112537
-0.0105207
-0.00986247
-0.00928916
-0.00880888
-0.00842709
-0.0081461
-0.00796482
-0.00787858
-0.00787931
-0.00795597
-0.00809519
-0.00828216
-0.00850156
-0.00873854
-0.00897955
-0.009213
-0.00942962
-0.00962266
-0.00978778
-0.00992282
-0.0100275
-0.0101028
-0.0101512
-0.0101755
-0.0101792
-0.0101661
-0.0101398
-0.0101041
-0.0100622
-0.0100171
-0.00997139
-0.00992715
-0.00988594
-0.00984883
-0.00981644
-0.0097889
-0.00976584
-0.00974645
-0.00972955
-0.00971341
-0.00969343
-0.0096769
0.000317635
0.000329976
0.000335295
0.000319346
0.000286501
0.000239379
0.000181616
0.000117598
5.15869e-05
-1.28885e-05
-7.33506e-05
-0.000128527
-0.000178348
-0.000223853
-0.000267057
-0.000310826
-0.000358775
-0.000415212
-0.000485116
-0.000574138
-0.000688603
-0.000835466
-0.00102221
-0.00125662
-0.00154651
-0.00189924
-0.00232135
-0.00281805
-0.00339285
-0.00404733
-0.00478097
-0.00559121
-0.00647359
-0.00742198
-0.00842885
-0.00948558
-0.0105827
-0.0117104
-0.0128582
-0.0140158
-0.015173
-0.0163196
-0.0174459
-0.0185429
-0.0196019
-0.0206148
-0.0215744
-0.0224739
-0.0233075
-0.02407
-0.0247567
-0.0253637
-0.025888
-0.0263267
-0.026678
-0.0269403
-0.0271129
-0.0271954
-0.027188
-0.0270917
-0.0269076
-0.0266376
-0.0262841
-0.0258501
-0.025339
-0.0247549
-0.0241024
-0.0233867
-0.0226138
-0.02179
-0.0209227
-0.0200198
-0.0190901
-0.018143
-0.0171888
-0.0162384
-0.0153036
-0.0143963
-0.0135288
-0.0127134
-0.0119616
-0.011284
-0.0106897
-0.0101853
-0.009775
-0.00945973
-0.00923709
-0.00910134
-0.00904368
-0.00905282
-0.00911573
-0.00921853
-0.00934747
-0.00948978
-0.00963431
-0.00977198
-0.00989601
-0.0100018
-0.0100868
-0.01015
-0.0101921
-0.0102143
-0.0102189
-0.0102085
-0.0101859
-0.010154
-0.0101157
-0.0100735
-0.0100299
-0.00998685
-0.0099461
-0.00990885
-0.00987592
-0.00984765
-0.00982391
-0.00980411
-0.00978724
-0.00977178
-0.00975374
-0.00973918
0.00042228
0.000431333
0.00043161
0.000409705
0.000370227
0.000316334
0.000252178
0.000182496
0.000111687
4.31962e-05
-2.07841e-05
-7.94193e-05
-0.000133193
-0.00018379
-0.000233965
-0.000287433
-0.000348797
-0.000423519
-0.0005179
-0.000639062
-0.000794881
-0.000993829
-0.00124472
-0.00155632
-0.00193688
-0.00239365
-0.0029323
-0.00355661
-0.00426814
-0.00506613
-0.00594759
-0.00690749
-0.00793899
-0.00903382
-0.0101826
-0.011375
-0.0126005
-0.013848
-0.0151065
-0.0163652
-0.0176136
-0.0188418
-0.0200404
-0.0212007
-0.0223148
-0.0233754
-0.0243762
-0.0253115
-0.0261762
-0.0269662
-0.027678
-0.0283084
-0.0288551
-0.0293163
-0.0296906
-0.0299772
-0.0301757
-0.0302862
-0.0303092
-0.0302456
-0.0300967
-0.0298643
-0.0295504
-0.0291575
-0.0286887
-0.028147
-0.0275363
-0.0268605
-0.0261242
-0.0253323
-0.0244901
-0.0236037
-0.0226796
-0.0217248
-0.0207473
-0.0197555
-0.0187589
-0.0177676
-0.0167923
-0.0158444
-0.0149356
-0.0140775
-0.0132813
-0.0125572
-0.0119139
-0.0113577
-0.0108925
-0.0105188
-0.0102337
-0.0100315
-0.00990326
-0.00983793
-0.00982311
-0.00984596
-0.00989407
-0.00995628
-0.0100232
-0.0100873
-0.0101434
-0.0101879
-0.0102192
-0.0102367
-0.0102408
-0.0102329
-0.0102147
-0.010188
-0.0101551
-0.010118
-0.0100789
-0.0100395
-0.0100015
-0.00996625
-0.00993464
-0.00990724
-0.00988412
-0.00986489
-0.00984878
-0.00983449
-0.00981868
-0.00980622
0.000545315
0.000550283
0.000544628
0.000516237
0.000469821
0.000409016
0.000338408
0.00026296
0.000187063
0.000113923
4.52996e-05
-1.85516e-05
-7.88099e-05
-0.00013796
-0.000199672
-0.000268718
-0.000350922
-0.000453136
-0.000583203
-0.000749855
-0.000962531
-0.00123106
-0.0015652
-0.00197415
-0.00246587
-0.00304663
-0.00372049
-0.00448905
-0.00535135
-0.00630399
-0.00734131
-0.00845577
-0.00963825
-0.0108785
-0.0121654
-0.0134874
-0.0148327
-0.0161896
-0.0175468
-0.0188932
-0.0202186
-0.0215134
-0.0227689
-0.0239772
-0.0251314
-0.0262251
-0.0272532
-0.028211
-0.0290946
-0.0299007
-0.0306269
-0.031271
-0.0318314
-0.0323069
-0.032697
-0.0330012
-0.0332196
-0.0333526
-0.0334009
-0.0333657
-0.0332481
-0.03305
-0.0327732
-0.0324199
-0.0319925
-0.0314938
-0.0309267
-0.0302943
-0.0296
-0.0288475
-0.0280406
-0.0271836
-0.026281
-0.0253377
-0.0243593
-0.0233517
-0.0223218
-0.0212771
-0.0202261
-0.0191783
-0.0181439
-0.0171343
-0.016161
-0.0152361
-0.0143714
-0.0135776
-0.0128642
-0.0122381
-0.0117036
-0.0112616
-0.0109093
-0.010641
-0.0104475
-0.0103179
-0.0102399
-0.0102012
-0.0101899
-0.0101957
-0.0102101
-0.0102265
-0.0102403
-0.0102485
-0.0102494
-0.0102426
-0.0102283
-0.0102073
-0.0101809
-0.0101506
-0.0101178
-0.0100841
-0.010051
-0.0100197
-0.00999127
-0.00996635
-0.00994519
-0.00992759
-0.00991298
-0.00990031
-0.0098869
-0.00987654
0.000687838
0.000687917
0.000675469
0.000640182
0.000586669
0.000518927
0.000441848
0.000360463
0.000278984
0.000200211
0.000125316
5.38188e-05
-1.63146e-05
-8.85466e-05
-0.000167666
-0.000259727
-0.000372007
-0.000512952
-0.000692068
-0.000919692
-0.00120663
-0.00156366
-0.00200091
-0.00252717
-0.00314933
-0.00387183
-0.00469638
-0.00562189
-0.00664454
-0.0077581
-0.00895424
-0.010223
-0.0115531
-0.0129326
-0.0143489
-0.0157894
-0.0172416
-0.0186934
-0.0201334
-0.021551
-0.0229364
-0.0242808
-0.0255766
-0.0268168
-0.0279957
-0.0291081
-0.0301501
-0.031118
-0.0320092
-0.0328213
-0.0335526
-0.0342019
-0.0347684
-0.0352514
-0.0356508
-0.0359668
-0.0361997
-0.0363502
-0.0364192
-0.0364079
-0.0363176
-0.03615
-0.0359069
-0.0355901
-0.0352019
-0.0347445
-0.0342203
-0.0336318
-0.0329816
-0.0322724
-0.0315068
-0.0306877
-0.0298181
-0.028901
-0.0279399
-0.0269385
-0.0259011
-0.0248326
-0.0237388
-0.0226264
-0.0215034
-0.0203792
-0.0192643
-0.0181706
-0.017111
-0.016099
-0.0151479
-0.0142704
-0.0134774
-0.0127773
-0.0121751
-0.0116719
-0.0112647
-0.010947
-0.0107088
-0.0105381
-0.010422
-0.0103476
-0.010303
-0.0102782
-0.010265
-0.0102571
-0.0102504
-0.0102419
-0.0102301
-0.0102144
-0.0101949
-0.0101721
-0.010147
-0.0101206
-0.0100941
-0.0100686
-0.010045
-0.0100241
-0.0100062
-0.00999131
-0.00997892
-0.00996829
-0.0099573
-0.00994893
0.000850492
0.000844916
0.000824884
0.000782413
0.00072178
0.000647154
0.000563563
0.000475918
0.000388063
0.000302219
0.000218801
0.000136427
5.20299e-05
-3.90275e-05
-0.000142872
-0.000267059
-0.000420511
-0.000613383
-0.000856819
-0.00116255
-0.00154232
-0.00200723
-0.00256695
-0.00322906
-0.00399847
-0.0048771
-0.00586378
-0.00695435
-0.008142
-0.00941765
-0.0107704
-0.0121881
-0.0136576
-0.0151653
-0.0166978
-0.0182416
-0.0197841
-0.0213132
-0.022818
-0.0242885
-0.025716
-0.0270928
-0.0284123
-0.0296691
-0.0308585
-0.0319768
-0.033021
-0.0339888
-0.0348782
-0.0356881
-0.0364173
-0.0370654
-0.0376321
-0.0381174
-0.0385214
-0.0388446
-0.0390877
-0.0392515
-0.0393372
-0.0393458
-0.0392788
-0.0391378
-0.0389244
-0.0386405
-0.038288
-0.0378687
-0.0373849
-0.0368384
-0.0362314
-0.0355657
-0.0348434
-0.0340662
-0.033236
-0.0323545
-0.0314234
-0.0304446
-0.0294202
-0.0283527
-0.0272451
-0.0261013
-0.0249266
-0.0237273
-0.0225116
-0.0212896
-0.0200732
-0.0188762
-0.017714
-0.0166027
-0.0155585
-0.0145968
-0.0137304
-0.012969
-0.0123177
-0.0117769
-0.011342
-0.011004
-0.0107509
-0.0105685
-0.0104424
-0.0103587
-0.0103052
-0.0102718
-0.0102508
-0.0102363
-0.0102244
-0.0102126
-0.0101995
-0.0101846
-0.0101679
-0.0101499
-0.0101313
-0.0101131
-0.0100958
-0.0100803
-0.0100669
-0.0100555
-0.010046
-0.0100377
-0.0100291
-0.0100225
0.00103341
0.00102129
0.000993041
0.000943293
0.000875595
0.000794163
0.000703922
0.000609451
0.000514029
0.000419114
0.000324186
0.000226785
0.000122619
5.66538e-06
-0.000131748
-0.000298863
-0.000506348
-0.000766035
-0.00109049
-0.00149239
-0.0019838
-0.00257529
-0.00327523
-0.00408909
-0.00501911
-0.00606412
-0.00721972
-0.00847855
-0.00983078
-0.0112646
-0.0127668
-0.0143232
-0.0159192
-0.0175402
-0.019172
-0.0208011
-0.022415
-0.0240024
-0.0255531
-0.0270584
-0.0285107
-0.0299038
-0.0312325
-0.0324926
-0.0336807
-0.0347945
-0.035832
-0.0367917
-0.0376728
-0.0384746
-0.0391968
-0.0398394
-0.0404025
-0.0408865
-0.0412919
-0.0416193
-0.0418695
-0.0420436
-0.0421426
-0.0421679
-0.0421207
-0.0420025
-0.0418151
-0.04156
-0.041239
-0.0408539
-0.0404064
-0.0398984
-0.0393314
-0.038707
-0.0380267
-0.0372915
-0.0365026
-0.0356607
-0.0347664
-0.0338202
-0.0328226
-0.031774
-0.0306752
-0.0295275
-0.0283332
-0.0270955
-0.0258195
-0.0245122
-0.023183
-0.0218438
-0.0205095
-0.0191972
-0.0179261
-0.0167162
-0.0155875
-0.0145578
-0.0136417
-0.0128486
-0.0121822
-0.0116399
-0.0112134
-0.0108898
-0.0106535
-0.0104876
-0.0103759
-0.0103038
-0.0102591
-0.0102323
-0.0102162
-0.0102059
-0.0101979
-0.0101905
-0.0101824
-0.0101734
-0.0101638
-0.0101538
-0.010144
-0.010135
-0.010127
-0.0101201
-0.010114
-0.0101083
-0.0101019
-0.0100968
0.00123605
0.00121633
0.00117931
0.00112239
0.00104779
0.00095958
0.000862372
0.000760174
0.000655499
0.000548852
0.000438597
0.000321006
0.000190362
3.90621e-05
-0.000142285
-0.000364703
-0.000640574
-0.000983189
-0.0014061
-0.00192229
-0.0025433
-0.00327833
-0.00413353
-0.00511156
-0.00621138
-0.00742842
-0.00875486
-0.0101802
-0.0116916
-0.0132749
-0.0149149
-0.0165957
-0.0183018
-0.020018
-0.0217301
-0.023425
-0.0250909
-0.0267176
-0.0282963
-0.0298196
-0.0312816
-0.0326773
-0.0340031
-0.0352561
-0.0364342
-0.037536
-0.0385606
-0.0395073
-0.0403758
-0.0411663
-0.0418787
-0.0425135
-0.043071
-0.043552
-0.0439569
-0.0442867
-0.0445422
-0.0447244
-0.0448345
-0.0448737
-0.0448433
-0.0447448
-0.0445797
-0.0443495
-0.0440559
-0.0437005
-0.0432849
-0.0428108
-0.0422794
-0.0416922
-0.0410503
-0.0403543
-0.039605
-0.0388026
-0.0379469
-0.0370376
-0.0360739
-0.035055
-0.03398
-0.0328481
-0.0316589
-0.0304129
-0.0291118
-0.0277592
-0.0263609
-0.0249255
-0.0234652
-0.0219955
-0.0205356
-0.0191076
-0.0177358
-0.0164447
-0.0152577
-0.0141943
-0.0132685
-0.0124873
-0.0118497
-0.0113476
-0.0109668
-0.0106895
-0.010496
-0.0103672
-0.0102859
-0.0102378
-0.0102115
-0.0101989
-0.0101939
-0.0101928
-0.010193
-0.0101933
-0.010193
-0.010192
-0.0101906
-0.010189
-0.0101872
-0.0101853
-0.0101831
-0.0101802
-0.0101757
-0.0101717
0.00145618
0.00142882
0.00138239
0.00131835
0.00123704
0.00114198
0.00103722
0.000925974
0.000809779
0.000687997
0.000557691
0.000413673
0.000248616
5.3171e-05
-0.000183864
-0.000475265
-0.000834921
-0.00127716
-0.00181587
-0.00246355
-0.00323032
-0.00412311
-0.00514512
-0.00629559
-0.00756987
-0.00895979
-0.0104542
-0.0120394
-0.0137002
-0.0154201
-0.0171824
-0.0189702
-0.0207676
-0.0225594
-0.024332
-0.0260732
-0.0277726
-0.0294213
-0.0310121
-0.0325393
-0.0339985
-0.0353863
-0.0367004
-0.0379391
-0.0391014
-0.0401867
-0.0411949
-0.0421261
-0.0429804
-0.0437581
-0.0444599
-0.0450863
-0.0456378
-0.0461151
-0.0465191
-0.0468505
-0.0471103
-0.0472994
-0.047419
-0.0474702
-0.0474542
-0.0473725
-0.0472265
-0.0470177
-0.0467475
-0.0464176
-0.0460293
-0.0455842
-0.0450836
-0.0445285
-0.04392
-0.0432588
-0.0425451
-0.041779
-0.04096
-0.0400872
-0.0391594
-0.0381747
-0.0371313
-0.0360269
-0.0348592
-0.0336264
-0.0323274
-0.0309624
-0.0295334
-0.0280451
-0.0265055
-0.0249265
-0.0233248
-0.0217212
-0.0201412
-0.0186132
-0.0171668
-0.0158307
-0.01463
-0.0135831
-0.0126999