/*--------------------------------*- C++ -*----------------------------------*\
| =========                 |                                                 |
| \\      /  F ield         | OpenFOAM: The Open Source CFD Toolbox           |
|  \\    /   O peration     | Version:  2406                                  |
|   \\  /    A nd           | Website:  www.openfoam.com                      |
|    \\/     M anipulation  |                                                 |
\*---------------------------------------------------------------------------*/
FoamFile
{
    version     2.0;
    format      ascii;
    arch        "LSB;label=32;scalar=64";
    class       volVectorField;
    location    "39.8";
    object      U;
}
// * * * * * * * * * * * * * * * * * * * * * * * * * * * * * * * * * * * * * //

dimensions      [0 1 -1 0 0 0 0];

internalField   nonuniform List<vector> 
14400
(
(-6.6281e-06 6.52204e-06 0)
(1.74937e-05 -1.20551e-05 0)
(0.000129017 -3.58564e-05 0)
(0.000322501 -5.4928e-05 0)
(0.000577405 -6.79536e-05 0)
(0.000870927 -7.48284e-05 0)
(0.00118055 -7.62212e-05 0)
(0.00148657 -7.30755e-05 0)
(0.00177313 -6.65144e-05 0)
(0.00202875 -5.77158e-05 0)
(0.00224649 -4.78187e-05 0)
(0.00242358 -3.78351e-05 0)
(0.00256093 -2.8583e-05 0)
(0.00266223 -2.06459e-05 0)
(0.00273306 -1.43569e-05 0)
(0.00277992 -9.79853e-06 0)
(0.00280942 -6.87662e-06 0)
(0.00282733 -5.43958e-06 0)
(0.00283801 -5.08668e-06 0)
(0.00284415 -5.35616e-06 0)
(0.0028463 -5.66872e-06 0)
(0.0028436 -5.15526e-06 0)
(0.00283358 -3.7584e-06 0)
(0.00281196 -1.31145e-06 0)
(0.00277365 2.38336e-06 0)
(0.00271299 7.42548e-06 0)
(0.00262398 1.38561e-05 0)
(0.00250046 2.16923e-05 0)
(0.0023362 3.09488e-05 0)
(0.00212486 4.16523e-05 0)
(0.00186001 5.38454e-05 0)
(0.00153507 6.75802e-05 0)
(0.00114331 8.29067e-05 0)
(0.000677941 9.98593e-05 0)
(0.000132184 0.000118444 0)
(-0.000500532 0.000138627 0)
(-0.00122639 0.00016033 0)
(-0.00205096 0.000183424 0)
(-0.00297896 0.000207723 0)
(-0.004014 0.000232988 0)
(-0.00515834 0.000258925 0)
(-0.00641265 0.000285186 0)
(-0.00777579 0.000311371 0)
(-0.00924462 0.000337038 0)
(-0.0108138 0.000361706 0)
(-0.0124758 0.000384861 0)
(-0.0142206 0.00040597 0)
(-0.0160359 0.000424485 0)
(-0.0179071 0.000439854 0)
(-0.0198173 0.000451527 0)
(-0.0217475 0.000458967 0)
(-0.0236768 0.000461654 0)
(-0.0255826 0.000459094 0)
(-0.0274407 0.000450825 0)
(-0.0292259 0.000436427 0)
(-0.030912 0.000415528 0)
(-0.0324721 0.000387812 0)
(-0.0338795 0.00035304 0)
(-0.0351072 0.000311052 0)
(-0.0361293 0.000261687 0)
(-0.0369213 0.000205187 0)
(-0.0374602 0.000143301 0)
(-0.0377227 7.66892e-05 0)
(-0.0376887 2.83743e-06 0)
(-0.0373455 -7.75939e-05 0)
(-0.0366821 -0.00016184 0)
(-0.0356904 -0.000248408 0)
(-0.0343688 -0.000335943 0)
(-0.0327211 -0.000422765 0)
(-0.0307575 -0.000507002 0)
(-0.0284948 -0.000586633 0)
(-0.0259564 -0.00065955 0)
(-0.0231726 -0.00072364 0)
(-0.0201804 -0.000776879 0)
(-0.0170227 -0.000817433 0)
(-0.0137477 -0.000843763 0)
(-0.010408 -0.000854721 0)
(-0.00705871 -0.000849646 0)
(-0.00375662 -0.000828426 0)
(-0.000557877 -0.000791544 0)
(0.00248358 -0.000740081 0)
(0.00531791 -0.000675686 0)
(0.00790111 -0.000600504 0)
(0.0101965 -0.00051707 0)
(0.0121759 -0.000428173 0)
(0.0138206 -0.000336703 0)
(0.0151216 -0.000245495 0)
(0.0160794 -0.000157163 0)
(0.0167041 -7.39058e-05 0)
(0.0170148 2.07587e-06 0)
(0.0170358 6.77425e-05 0)
(0.0167959 0.000122896 0)
(0.0163308 0.000169523 0)
(0.0156795 0.000207188 0)
(0.0148788 0.000235014 0)
(0.0139652 0.000253607 0)
(0.0129735 0.000263981 0)
(0.0119358 0.000267212 0)
(0.0108804 0.000264433 0)
(0.00983123 0.000256792 0)
(0.0088083 0.000245389 0)
(0.00782714 0.000231247 0)
(0.00689928 0.000215284 0)
(0.0060326 0.000198299 0)
(0.0052317 0.000180968 0)
(0.00449842 0.000163845 0)
(0.0038323 0.000147373 0)
(0.00323105 0.00013189 0)
(0.002691 0.000117632 0)
(0.00220756 0.000104726 0)
(0.00177574 9.31751e-05 0)
(0.00139071 8.28215e-05 0)
(0.00104857 7.33126e-05 0)
(0.000747152 6.40678e-05 0)
(0.000486862 5.42726e-05 0)
(0.000271359 4.29723e-05 0)
(0.000107632 2.93306e-05 0)
(4.52378e-06 1.31222e-05 0)
(-3.34746e-05 -3.59564e-06 0)
(-1.31615e-05 -1.31809e-05 0)
(1.08995e-05 -1.66134e-05 0)
(0.000158515 -0.000162946 0)
(0.000490186 -0.000338542 0)
(0.000998059 -0.00048377 0)
(0.00163533 -0.000584981 0)
(0.0023557 -0.000639707 0)
(0.00311048 -0.000651268 0)
(0.00385557 -0.000626154 0)
(0.00455445 -0.000572639 0)
(0.00517974 -0.00049973 0)
(0.00571374 -0.000416328 0)
(0.00614801 -0.000330491 0)
(0.00648226 -0.000248868 0)
(0.00672262 -0.000176325 0)
(0.00687968 -0.000115784 0)
(0.00696628 -6.82454e-05 0)
(0.00699551 -3.29973e-05 0)
(0.00697892 -7.99933e-06 0)
(0.00692504 9.93986e-06 0)
(0.0068384 2.46809e-05 0)
(0.00671926 4.02682e-05 0)
(0.00656308 6.07553e-05 0)
(0.00636121 8.91178e-05 0)
(0.00610201 0.000127751 0)
(0.00577123 0.000178344 0)
(0.00535291 0.000241919 0)
(0.0048301 0.000319012 0)
(0.00418537 0.000409871 0)
(0.00340108 0.000514636 0)
(0.00245953 0.00063344 0)
(0.0013431 0.000766434 0)
(3.43457e-05 0.000913733 0)
(-0.00148375 0.00107532 0)
(-0.00322742 0.00125095 0)
(-0.00521168 0.00144003 0)
(-0.00744974 0.00164154 0)
(-0.00995236 0.00185397 0)
(-0.0127272 0.00207531 0)
(-0.0157783 0.00230302 0)
(-0.019105 0.00253404 0)
(-0.0227021 0.0027648 0)
(-0.0265587 0.00299132 0)
(-0.0306584 0.00320923 0)
(-0.0349788 0.0034139 0)
(-0.0394917 0.00360051 0)
(-0.044163 0.00376418 0)
(-0.0489534 0.00390011 0)
(-0.0538188 0.00400363 0)
(-0.0587105 0.00407037 0)
(-0.0635766 0.00409635 0)
(-0.0683624 0.00407803 0)
(-0.0730113 0.00401239 0)
(-0.0774659 0.00389703 0)
(-0.0816685 0.00373015 0)
(-0.0855622 0.00351063 0)
(-0.0890917 0.00323803 0)
(-0.092204 0.00291261 0)
(-0.0948488 0.00253538 0)
(-0.0969798 0.00210816 0)
(-0.0985548 0.00163352 0)
(-0.0995359 0.00111506 0)
(-0.0998918 0.000558273 0)
(-0.0995987 -3.07136e-05 0)
(-0.0986356 -0.000648352 0)
(-0.0969893 -0.00128779 0)
(-0.0946569 -0.00193968 0)
(-0.0916429 -0.00259457 0)
(-0.0879607 -0.00324212 0)
(-0.0836326 -0.00387131 0)
(-0.0786909 -0.00447045 0)
(-0.0731776 -0.00502749 0)
(-0.0671446 -0.00553029 0)
(-0.0606538 -0.00596696 0)
(-0.0537761 -0.00632631 0)
(-0.0465912 -0.00659827 0)
(-0.0391866 -0.00677437 0)
(-0.0316555 -0.00684821 0)
(-0.0240962 -0.00681588 0)
(-0.0166094 -0.00667631 0)
(-0.00929606 -0.00643151 0)
(-0.00225528 -0.0060867 0)
(0.00441851 -0.00565027 0)
(0.010638 -0.00513355 0)
(0.0163254 -0.00455048 0)
(0.0214148 -0.00391701 0)
(0.0258541 -0.00325052 0)
(0.0296062 -0.00256905 0)
(0.0326505 -0.00189055 0)
(0.0349827 -0.00123209 0)
(0.0366145 -0.000609391 0)
(0.0375734 -3.69016e-05 0)
(0.0379024 0.000475491 0)
(0.0376562 0.000922446 0)
(0.036897 0.00129878 0)
(0.0356951 0.0016016 0)
(0.0341258 0.00183183 0)
(0.0322652 0.00199304 0)
(0.0301876 0.00209072 0)
(0.0279637 0.00213185 0)
(0.025658 0.00212433 0)
(0.0233278 0.00207653 0)
(0.0210218 0.0019968 0)
(0.01878 0.00189315 0)
(0.0166336 0.00177295 0)
(0.0146053 0.00164279 0)
(0.0127103 0.0015083 0)
(0.010957 0.00137421 0)
(0.00934782 0.00124427 0)
(0.00788087 0.00112127 0)
(0.00655069 0.00100694 0)
(0.00534979 0.000901848 0)
(0.00427019 0.000805145 0)
(0.00330508 0.000714398 0)
(0.00245071 0.000625454 0)
(0.00170803 0.000532611 0)
(0.00108386 0.000429467 0)
(0.000590591 0.000310952 0)
(0.00024218 0.000177685 0)
(4.92315e-05 4.38616e-05 0)
(-2.51072e-06 -3.25077e-05 0)
(3.29615e-05 -0.000122232 0)
(0.00032419 -0.000490447 0)
(0.00085874 -0.000876292 0)
(0.00162332 -0.00119394 0)
(0.00254883 -0.001416 0)
(0.00357664 -0.00153554 0)
(0.00464325 -0.00155809 0)
(0.00569027 -0.0014968 0)
(0.00666857 -0.00136935 0)
(0.00754055 -0.00119548 0)
(0.00828093 -0.000994999 0)
(0.00887639 -0.000786048 0)
(0.00932421 -0.00058375 0)
(0.0096301 -0.000399322 0)
(0.00980561 -0.000239632 0)
(0.00986534 -0.000107175 0)
(0.00982412 -4.03998e-07 0)
(0.00969467 8.56052e-05 0)
(0.00948561 0.000158219 0)
(0.0092 0.000226354 0)
(0.00883472 0.000299353 0)
(0.00838035 0.000385923 0)
(0.00782179 0.000493854 0)
(0.00713934 0.000629179 0)
(0.00630969 0.000796132 0)
(0.00530713 0.00099736 0)
(0.00410454 0.00123428 0)
(0.00267422 0.0015075 0)
(0.000988424 0.00181718 0)
(-0.00098017 0.00216318 0)
(-0.003258 0.00254515 0)
(-0.00587013 0.00296232 0)
(-0.00883956 0.00341332 0)
(-0.0121864 0.00389592 0)
(-0.0159271 0.00440678 0)
(-0.020073 0.00494136 0)
(-0.0246296 0.00549376 0)
(-0.0295956 0.00605674 0)
(-0.0349619 0.00662179 0)
(-0.0407108 0.00717923 0)
(-0.0468157 0.00771844 0)
(-0.0532409 0.00822806 0)
(-0.0599419 0.00869632 0)
(-0.0668658 0.00911138 0)
(-0.0739522 0.00946166 0)
(-0.0811343 0.0097362 0)
(-0.0883403 0.00992493 0)
(-0.0954947 0.010019 0)
(-0.10252 0.010011 0)
(-0.109338 0.00989502 0)
(-0.115873 0.00966686 0)
(-0.122048 0.00932399 0)
(-0.127793 0.00886554 0)
(-0.133041 0.00829222 0)
(-0.137729 0.00760628 0)
(-0.141802 0.00681137 0)
(-0.145207 0.00591248 0)
(-0.147901 0.00491584 0)
(-0.149846 0.00382896 0)
(-0.15101 0.00266051 0)
(-0.151367 0.00142021 0)
(-0.150899 0.00011861 0)
(-0.149594 -0.00123142 0)
(-0.147451 -0.00261512 0)
(-0.144469 -0.00401834 0)
(-0.140658 -0.00542543 0)
(-0.136036 -0.00681879 0)
(-0.130628 -0.00817952 0)
(-0.124468 -0.00948769 0)
(-0.117598 -0.0107226 0)
(-0.11007 -0.011863 0)
(-0.101943 -0.0128878 0)
(-0.0932852 -0.0137761 0)
(-0.0841749 -0.0145086 0)
(-0.0746973 -0.0150673 0)
(-0.0649458 -0.015437 0)
(-0.0550201 -0.015606 0)
(-0.0450254 -0.0155663 0)
(-0.0350707 -0.0153146 0)
(-0.0252669 -0.014853 0)
(-0.0157247 -0.0141888 0)
(-0.00655247 -0.0133347 0)
(0.0021462 -0.0123092 0)
(0.010275 -0.0111353 0)
(0.0177472 -0.00984042 0)
(0.0244878 -0.00845538 0)
(0.0304354 -0.00701323 0)
(0.0355442 -0.00554817 0)
(0.0397848 -0.00409425 0)
(0.0431451 -0.00268398 0)
(0.0456314 -0.0013467 0)
(0.0472683 -0.000108486 0)
(0.0480956 0.00100829 0)
(0.0481677 0.00198655 0)
(0.0475537 0.00281611 0)
(0.0463336 0.00349199 0)
(0.0445951 0.00401458 0)
(0.0424298 0.00438941 0)
(0.0399309 0.00462647 0)
(0.0371891 0.00473919 0)
(0.0342903 0.00474351 0)
(0.0313125 0.00465681 0)
(0.0283243 0.00449692 0)
(0.0253836 0.00428128 0)
(0.0225373 0.00402624 0)
(0.019821 0.00374658 0)
(0.0172601 0.00345516 0)
(0.0148703 0.0031627 0)
(0.0126596 0.00287753 0)
(0.0106294 0.00260542 0)
(0.00877661 0.00234916 0)
(0.00709603 0.00210821 0)
(0.0055824 0.00187834 0)
(0.00423296 0.00165155 0)
(0.00304966 0.00141667 0)
(0.00204044 0.00116135 0)
(0.00121909 0.00087616 0)
(0.000599525 0.000562404 0)
(0.000203487 0.000244667 0)
(1.70856e-05 1.34984e-05 0)
(5.03474e-05 -0.000304157 0)
(0.000462081 -0.000987457 0)
(0.00116751 -0.00163908 0)
(0.00214063 -0.00216512 0)
(0.00328787 -0.00252842 0)
(0.00453989 -0.00271884 0)
(0.0058226 -0.002745 0)
(0.00706846 -0.00262813 0)
(0.00822059 -0.00239725 0)
(0.00923521 -0.00208514 0)
(0.0100823 -0.00172482 0)
(0.0107453 -0.00134667 0)
(0.0112192 -0.000976097 0)
(0.0115082 -0.000631991 0)
(0.0116228 -0.00032592 0)
(0.0115766 -6.20223e-05 0)
(0.0113831 0.000162465 0)
(0.0110527 0.000356157 0)
(0.0105907 0.000531983 0)
(0.00999567 0.000705477 0)
(0.00925872 0.000893009 0)
(0.00836344 0.00111011 0)
(0.00728675 0.00137025 0)
(0.00600015 0.00168402 0)
(0.00447111 0.00205888 0)
(0.00266454 0.00249945 0)
(0.000544115 0.00300807 0)
(-0.00192658 0.0035854 0)
(-0.00478314 0.00423098 0)
(-0.00805939 0.0049434 0)
(-0.0117864 0.00572029 0)
(-0.0159915 0.00655803 0)
(-0.0206969 0.00745135 0)
(-0.0259182 0.00839297 0)
(-0.0316632 0.00937325 0)
(-0.0379303 0.0103801 0)
(-0.0447073 0.0113989 0)
(-0.0519705 0.0124129 0)
(-0.0596842 0.0134031 0)
(-0.0678004 0.0143493 0)
(-0.0762599 0.0152303 0)
(-0.0849925 0.0160247 0)
(-0.0939192 0.0167117 0)
(-0.102954 0.0172717 0)
(-0.112005 0.017687 0)
(-0.12098 0.0179423 0)
(-0.129784 0.0180253 0)
(-0.138325 0.0179268 0)
(-0.146517 0.0176407 0)
(-0.154275 0.0171643 0)
(-0.161526 0.0164976 0)
(-0.168199 0.0156437 0)
(-0.174234 0.0146076 0)
(-0.179578 0.0133968 0)
(-0.184185 0.0120204 0)
(-0.188016 0.0104888 0)
(-0.191041 0.008814 0)
(-0.193234 0.00700877 0)
(-0.194575 0.00508711 0)
(-0.19505 0.00306401 0)
(-0.194651 0.000955468 0)
(-0.193373 -0.00122187 0)
(-0.191215 -0.00345036 0)
(-0.188185 -0.00570931 0)
(-0.184291 -0.00797716 0)
(-0.179548 -0.0102314 0)
(-0.173977 -0.0124479 0)
(-0.167603 -0.0146007 0)
(-0.160459 -0.0166625 0)
(-0.152584 -0.0186047 0)
(-0.144023 -0.0203979 0)
(-0.134831 -0.0220125 0)
(-0.125069 -0.0234193 0)
(-0.114809 -0.0245902 0)
(-0.104128 -0.0254996 0)
(-0.093114 -0.0261246 0)
(-0.0818599 -0.0264469 0)
(-0.0704666 -0.0264534 0)
(-0.0590398 -0.0261372 0)
(-0.0476891 -0.0254983 0)
(-0.0365257 -0.0245443 0)
(-0.025661 -0.0232906 0)
(-0.0152037 -0.0217601 0)
(-0.00525803 -0.0199833 0)
(0.00407873 -0.0179969 0)
(0.0127182 -0.0158432 0)
(0.0205831 -0.0135687 0)
(0.0276087 -0.0112225 0)
(0.0337442 -0.00885483 0)
(0.0389546 -0.0065152 0)
(0.043221 -0.004251 0)
(0.046541 -0.00210644 0)
(0.048929 -0.000120971 0)
(0.0504168 0.00167298 0)
(0.0510529 0.00325069 0)
(0.0509002 0.00459491 0)
(0.0500348 0.00569666 0)
(0.0485435 0.00655537 0)
(0.0465209 0.00717836 0)
(0.0440657 0.00758002 0)
(0.0412775 0.00778052 0)
(0.0382527 0.00780438 0)
(0.0350817 0.00767886 0)
(0.0318459 0.00743238 0)
(0.0286162 0.00709312 0)
(0.0254516 0.00668776 0)
(0.0223986 0.00624054 0)
(0.019492 0.00577248 0)
(0.0167558 0.00530076 0)
(0.0142046 0.00483806 0)
(0.0118457 0.00439191 0)
(0.00968164 0.00396396 0)
(0.00771288 0.00354954 0)
(0.00594051 0.00313763 0)
(0.00436899 0.00271197 0)
(0.00300806 0.00225417 0)
(0.00187346 0.0017496 0)
(0.000980927 0.00119775 0)
(0.000371194 0.000627101 0)
(3.83885e-05 0.000139346 0)
(6.32572e-05 -0.000545214 0)
(0.000568605 -0.00161592 0)
(0.00141029 -0.00257077 0)
(0.00254722 -0.00332056 0)
(0.00386118 -0.00382592 0)
(0.00527123 -0.00407751 0)
(0.00669377 -0.00408946 0)
(0.00805429 -0.00389279 0)
(0.00929093 -0.00352928 0)
(0.0103564 -0.00304592 0)
(0.0112184 -0.00248996 0)
(0.0118584 -0.00190465 0)
(0.0122699 -0.00132608 0)
(0.0124557 -0.000780855 0)
(0.0124241 -0.000284995 0)
(0.0121859 0.000156284 0)
(0.0117506 0.000547776 0)
(0.0111237 0.000902776 0)
(0.0103044 0.00124088 0)
(0.00928388 0.00158541 0)
(0.00804494 0.00196075 0)
(0.00656217 0.00238993 0)
(0.00480315 0.00289271 0)
(0.00272996 0.00348444 0)
(0.000301034 0.00417572 0)
(-0.00252705 0.00497272 0)
(-0.00579785 0.00587794 0)
(-0.00955355 0.00689096 0)
(-0.0138334 0.00800903 0)
(-0.0186724 0.00922723 0)
(-0.0240994 0.0105383 0)
(-0.0301352 0.0119323 0)
(-0.0367913 0.0133959 0)
(-0.0440671 0.0149121 0)
(-0.0519492 0.0164601 0)
(-0.0604095 0.0180151 0)
(-0.0694047 0.0195494 0)
(-0.0788766 0.0210324 0)
(-0.0887526 0.0224318 0)
(-0.0989474 0.0237149 0)
(-0.109366 0.0248498 0)
(-0.119904 0.0258064 0)
(-0.130456 0.0265578 0)
(-0.140912 0.0270813 0)
(-0.151169 0.0273588 0)
(-0.161124 0.0273774 0)
(-0.170685 0.0271293 0)
(-0.179767 0.0266119 0)
(-0.188296 0.0258268 0)
(-0.196207 0.02478 0)
(-0.203446 0.0234805 0)
(-0.209968 0.02194 0)
(-0.215735 0.0201723 0)
(-0.22072 0.0181925 0)
(-0.2249 0.0160169 0)
(-0.228256 0.0136624 0)
(-0.230778 0.0111463 0)
(-0.232456 0.00848632 0)
(-0.233284 0.00570074 0)
(-0.233258 0.00280822 0)
(-0.232378 -0.000171778 0)
(-0.230644 -0.00321882 0)
(-0.228059 -0.00631158 0)
(-0.224627 -0.00942728 0)
(-0.220356 -0.0125408 0)
(-0.215256 -0.0156253 0)
(-0.20934 -0.0186519 0)
(-0.202626 -0.0215897 0)
(-0.195136 -0.0244054 0)
(-0.1869 -0.0270642 0)
(-0.177953 -0.0295293 0)
(-0.168335 -0.0317637 0)
(-0.158099 -0.0337296 0)
(-0.147304 -0.0353908 0)
(-0.136018 -0.0367129 0)
(-0.124318 -0.0376648 0)
(-0.11229 -0.0382205 0)
(-0.10003 -0.0383601 0)
(-0.0876376 -0.0380713 0)
(-0.0752215 -0.0373502 0)
(-0.0628922 -0.0362026 0)
(-0.0507626 -0.034644 0)
(-0.0389449 -0.0327 0)
(-0.0275484 -0.0304058 0)
(-0.0166773 -0.0278049 0)
(-0.00642812 -0.0249486 0)
(0.00311159 -0.0218942 0)
(0.0118653 -0.0187028 0)
(0.0197684 -0.0154382 0)
(0.0267697 -0.0121647 0)
(0.0328317 -0.00894515 0)
(0.0379312 -0.0058397 0)
(0.0420599 -0.00290336 0)
(0.0452254 -0.000184701 0)
(0.0474507 0.0022746 0)
(0.0487744 0.00444192 0)
(0.0492502 0.00629454 0)
(0.0489459 0.00782016 0)
(0.0479419 0.00901712 0)
(0.0463284 0.00989407 0)
(0.0442027 0.0104691 0)
(0.0416653 0.0107684 0)
(0.0388165 0.0108243 0)
(0.0357525 0.0106732 0)
(0.0325622 0.0103538 0)
(0.029325 0.0099046 0)
(0.0261084 0.00936217 0)
(0.0229679 0.00875976 0)
(0.0199466 0.00812577 0)
(0.0170761 0.0074825 0)
(0.0143786 0.00684489 0)
(0.0118686 0.00621943 0)
(0.009556 0.00560336 0)
(0.00744907 0.00498468 0)
(0.00555739 0.00434357 0)
(0.00389472 0.0036561 0)
(0.00248123 0.00290116 0)
(0.00133778 0.00207171 0)
(0.000528053 0.00118968 0)
(5.79697e-05 0.000346032 0)
(7.27019e-05 -0.000831022 0)
(0.00064911 -0.00234815 0)
(0.00159569 -0.0036376 0)
(0.00285621 -0.00462032 0)
(0.00428898 -0.0052608 0)
(0.00580046 -0.00555523 0)
(0.00729756 -0.00552678 0)
(0.00869969 -0.00521889 0)
(0.00994155 -0.00468809 0)
(0.0109742 -0.00399693 0)
(0.0117647 -0.00320756 0)
(0.0122943 -0.00237637 0)
(0.0125558 -0.0015498 0)
(0.0125503 -0.000761511 0)
(0.0122835 -3.09416e-05 0)
(0.0117619 0.00063682 0)
(0.0109892 0.00124997 0)
(0.00996349 0.00182782 0)
(0.00867522 0.00239784 0)
(0.00710573 0.00299211 0)
(0.00522733 0.00364367 0)
(0.00300409 0.00438323 0)
(0.000393452 0.00523666 0)
(-0.00265164 0.00622341 0)
(-0.00618048 0.00735616 0)
(-0.0102423 0.00864119 0)
(-0.014884 0.0100792 0)
(-0.0201485 0.0116663 0)
(-0.0260717 0.0133944 0)
(-0.0326814 0.0152511 0)
(-0.0399938 0.0172199 0)
(-0.048012 0.0192793 0)
(-0.0567236 0.0214024 0)
(-0.0660986 0.023557 0)
(-0.0760891 0.0257058 0)
(-0.0866291 0.0278076 0)
(-0.0976353 0.029818 0)
(-0.10901 0.0316916 0)
(-0.120642 0.0333836 0)
(-0.132415 0.034852 0)
(-0.144208 0.036059 0)
(-0.1559 0.0369726 0)
(-0.167376 0.0375679 0)
(-0.178529 0.0378275 0)
(-0.189263 0.0377412 0)
(-0.199494 0.0373062 0)
(-0.209151 0.036526 0)
(-0.218175 0.0354093 0)
(-0.226521 0.0339693 0)
(-0.234152 0.0322224 0)
(-0.241042 0.030187 0)
(-0.24717 0.0278833 0)
(-0.252524 0.0253317 0)
(-0.257094 0.022553 0)
(-0.260875 0.0195678 0)
(-0.263863 0.0163961 0)
(-0.266055 0.0130578 0)
(-0.26745 0.0095724 0)
(-0.268045 0.00595915 0)
(-0.26784 0.00223769 0)
(-0.266831 -0.00157184 0)
(-0.265017 -0.00544827 0)
(-0.262397 -0.009369 0)
(-0.258968 -0.0133097 0)
(-0.25473 -0.0172438 0)
(-0.249684 -0.0211419 0)
(-0.243834 -0.024972 0)
(-0.237187 -0.0286988 0)
(-0.229753 -0.0322844 0)
(-0.221547 -0.0356877 0)
(-0.212593 -0.0388653 0)
(-0.202919 -0.0417719 0)
(-0.192563 -0.0443615 0)
(-0.181572 -0.0465883 0)
(-0.170004 -0.0484081 0)
(-0.157925 -0.0497804 0)
(-0.145415 -0.0506694 0)
(-0.132561 -0.0510465 0)
(-0.119461 -0.0508917 0)
(-0.106222 -0.0501955 0)
(-0.0929548 -0.0489597 0)
(-0.0797771 -0.0471981 0)
(-0.0668061 -0.0449374 0)
(-0.054158 -0.0422161 0)
(-0.0419451 -0.0390838 0)
(-0.0302726 -0.0355998 0)
(-0.0192369 -0.031831 0)
(-0.0089239 -0.0278499 0)
(0.000592651 -0.0237324 0)
(0.00925135 -0.0195556 0)
(0.0170037 -0.0153957 0)
(0.0238139 -0.0113261 0)
(0.0296593 -0.00741605 0)
(0.03453 -0.00372867 0)
(0.0384295 -0.000320108 0)
(0.041375 0.00276218 0)
(0.0433973 0.0054807 0)
(0.0445415 0.007809 0)
(0.0448667 0.00973255 0)
(0.0444448 0.0112492 0)
(0.0433591 0.0123691 0)
(0.0417014 0.0131138 0)
(0.0395695 0.0135148 0)
(0.0370627 0.0136115 0)
(0.0342786 0.0134488 0)
(0.0313095 0.0130742 0)
(0.0282392 0.0125355 0)
(0.0251411 0.0118779 0)
(0.0220769 0.011142 0)
(0.0190963 0.0103615 0)
(0.0162382 0.00956085 0)
(0.013532 0.00875392 0)
(0.0109999 0.00794239 0)
(0.00866031 0.00711558 0)
(0.00653085 0.00625175 0)
(0.00463222 0.00532197 0)
(0.00299191 0.0042971 0)
(0.00163882 0.00315875 0)
(0.000659999 0.00191304 0)
(7.42905e-05 0.000623925 0)
(7.99223e-05 -0.00115058 0)
(0.000710623 -0.0031594 0)
(0.00173579 -0.00480581 0)
(0.00308427 -0.00602278 0)
(0.00459241 -0.00678329 0)
(0.00615363 -0.0070938 0)
(0.00766541 -0.00699065 0)
(0.00904173 -0.00653307 0)
(0.010215 -0.00579472 0)
(0.011136 -0.00485518 0)
(0.0117726 -0.00379215 0)
(0.0121068 -0.00267488 0)
(0.0121315 -0.00155928 0)
(0.0118461 -0.00048464 0)
(0.011253 0.000527895 0)
(0.010353 0.00147524 0)
(0.00914205 0.00237081 0)
(0.00760878 0.00324155 0)
(0.00573247 0.00412403 0)
(0.0034827 0.00505975 0)
(0.0008199 0.00609046 0)
(-0.00230297 0.00725394 0)
(-0.005938 0.00858087 0)
(-0.0101396 0.010093 0)
(-0.0149614 0.0118028 0)
(-0.0204539 0.0137136 0)
(-0.0266609 0.015821 0)
(-0.0336175 0.0181135 0)
(-0.0413471 0.0205727 0)
(-0.0498583 0.0231736 0)
(-0.0591425 0.0258843 0)
(-0.0691715 0.0286657 0)
(-0.0798961 0.0314717 0)
(-0.091246 0.0342504 0)
(-0.10313 0.036945 0)
(-0.115441 0.0394968 0)
(-0.128057 0.0418467 0)
(-0.140847 0.0439388 0)
(-0.153677 0.0457226 0)
(-0.166416 0.0471551 0)
(-0.178938 0.0482025 0)
(-0.191132 0.0488411 0)
(-0.202897 0.0490573 0)
(-0.21415 0.048847 0)
(-0.224823 0.0482144 0)
(-0.234863 0.047171 0)
(-0.24423 0.0457334 0)
(-0.252896 0.0439227 0)
(-0.260843 0.041762 0)
(-0.268061 0.0392761 0)
(-0.274542 0.03649 0)
(-0.280286 0.0334284 0)
(-0.285292 0.0301152 0)
(-0.289562 0.0265731 0)
(-0.293097 0.0228236 0)
(-0.295898 0.0188872 0)
(-0.297965 0.0147832 0)
(-0.299296 0.0105305 0)
(-0.29989 0.00614758 0)
(-0.299741 0.00165316 0)
(-0.298845 -0.00293342 0)
(-0.297195 -0.00759162 0)
(-0.294783 -0.0122991 0)
(-0.291602 -0.0170314 0)
(-0.287644 -0.0217609 0)
(-0.282901 -0.0264571 0)
(-0.277366 -0.0310855 0)
(-0.271037 -0.0356081 0)
(-0.26391 -0.0399824 0)
(-0.255991 -0.0441622 0)
(-0.247285 -0.0480975 0)
(-0.237809 -0.0517355 0)
(-0.227586 -0.0550212 0)
(-0.216648 -0.0578988 0)
(-0.205038 -0.0603134 0)
(-0.192811 -0.062213 0)
(-0.180034 -0.0635503 0)
(-0.166787 -0.0642855 0)
(-0.153164 -0.0643883 0)
(-0.139267 -0.0638401 0)
(-0.125211 -0.0626361 0)
(-0.111117 -0.060786 0)
(-0.0971098 -0.0583152 0)
(-0.0833172 -0.0552641 0)
(-0.0698633 -0.0516873 0)
(-0.0568666 -0.0476518 0)
(-0.0444364 -0.0432348 0)
(-0.0326706 -0.0385205 0)
(-0.0216538 -0.0335975 0)
(-0.0114565 -0.0285561 0)
(-0.00213528 -0.0234855 0)
(0.00626707 -0.0184718 0)
(0.0137203 -0.0135965 0)
(0.0202061 -0.00893494 0)
(0.0257173 -0.00455517 0)
(0.0302576 -0.00051708 0)
(0.0338423 0.00312891 0)
(0.0364979 0.00634303 0)
(0.0382635 0.00909736 0)
(0.039191 0.0113769 0)
(0.0393446 0.0131802 0)
(0.0388004 0.0145195 0)
(0.0376438 0.0154198 0)
(0.0359674 0.0159179 0)
(0.0338675 0.0160593 0)
(0.0314401 0.0158962 0)
(0.0287777 0.015484 0)
(0.0259658 0.0148776 0)
(0.0230809 0.0141289 0)
(0.0201888 0.013283 0)
(0.0173447 0.012375 0)
(0.0145931 0.0114279 0)
(0.0119705 0.0104498 0)
(0.00950733 0.00943342 0)
(0.007232 0.00835672 0)
(0.00517466 0.00718629 0)
(0.0033725 0.00588373 0)
(0.00186445 0.00441552 0)
(0.000758745 0.002765 0)
(8.64026e-05 0.000958384 0)
(8.57918e-05 -0.00149654 0)
(0.000758691 -0.00403033 0)
(0.00184034 -0.00604622 0)
(0.00324454 -0.00749003 0)
(0.00478695 -0.00834702 0)
(0.00634809 -0.00863852 0)
(0.00781657 -0.00841855 0)
(0.00910181 -0.00776587 0)
(0.0101351 -0.00677405 0)
(0.0108683 -0.00554127 0)
(0.0112711 -0.00416114 0)
(0.0113272 -0.00271516 0)
(0.0110296 -0.0012672 0)
(0.0103759 0.000139858 0)
(0.00936408 0.00148553 0)
(0.00798771 0.00277115 0)
(0.00623329 0.00401751 0)
(0.0040778 0.0052609 0)
(0.00148781 0.00654795 0)
(-0.00158006 0.00792968 0)
(-0.0051774 0.00945569 0)
(-0.00936126 0.011169 0)
(-0.0141908 0.0131026 0)
(-0.0197235 0.0152771 0)
(-0.0260119 0.0177006 0)
(-0.0330996 0.0203694 0)
(-0.0410185 0.0232685 0)
(-0.0497852 0.0263728 0)
(-0.0593979 0.0296477 0)
(-0.0698333 0.0330488 0)
(-0.0810453 0.0365228 0)
(-0.0929632 0.0400078 0)
(-0.105493 0.0434354 0)
(-0.118521 0.0467329 0)
(-0.131915 0.0498263 0)
(-0.145533 0.0526443 0)
(-0.159229 0.0551211 0)
(-0.172861 0.0572005 0)
(-0.186293 0.0588373 0)
(-0.199404 0.059999 0)
(-0.212089 0.0606661 0)
(-0.224263 0.0608312 0)
(-0.235857 0.0604982 0)
(-0.246822 0.0596796 0)
(-0.257123 0.0583951 0)
(-0.266736 0.0566694 0)
(-0.27565 0.0545301 0)
(-0.28386 0.0520067 0)
(-0.291366 0.0491287 0)
(-0.298172 0.0459251 0)
(-0.304283 0.0424234 0)
(-0.309706 0.0386497 0)
(-0.314446 0.034628 0)
(-0.318508 0.0303806 0)
(-0.321895 0.025928 0)
(-0.324611 0.0212892 0)
(-0.326654 0.0164821 0)
(-0.328024 0.0115238 0)
(-0.328718 0.00643105 0)
(-0.328729 0.00122095 0)
(-0.328052 -0.00408869 0)
(-0.326677 -0.00947873 0)
(-0.324594 -0.014928 0)
(-0.32179 -0.0204127 0)
(-0.318252 -0.0259059 0)
(-0.313965 -0.0313766 0)
(-0.308916 -0.0367897 0)
(-0.30309 -0.0421052 0)
(-0.296475 -0.0472779 0)
(-0.289059 -0.0522577 0)
(-0.280835 -0.0569893 0)
(-0.271803 -0.061413 0)
(-0.261968 -0.0654653 0)
(-0.251344 -0.0690805 0)
(-0.239955 -0.0721922 0)
(-0.227838 -0.0747355 0)
(-0.215046 -0.0766497 0)
(-0.201643 -0.0778806 0)
(-0.187711 -0.0783843 0)
(-0.173348 -0.0781293 0)
(-0.158667 -0.0770998 0)
(-0.143791 -0.0752971 0)
(-0.128854 -0.0727417 0)
(-0.113996 -0.0694727 0)
(-0.0993592 -0.0655479 0)
(-0.0850799 -0.0610412 0)
(-0.0712883 -0.05604 0)
(-0.0581018 -0.050642 0)
(-0.0456229 -0.0449507 0)
(-0.033937 -0.0390719 0)
(-0.0231121 -0.0331102 0)
(-0.0131989 -0.027166 0)
(-0.00423286 -0.0213339 0)
(0.00376412 -0.0157006 0)
(0.0107817 -0.0103448 0)
(0.0168192 -0.00533617 0)
(0.0218851 -0.000735171 0)
(0.0259966 0.00340795 0)
(0.0291799 0.00705402 0)
(0.0314716 0.0101761 0)
(0.0329189 0.0127608 0)
(0.0335805 0.0148088 0)
(0.0335264 0.0163355 0)
(0.0328361 0.0173699 0)
(0.0315969 0.0179537 0)
(0.0299006 0.0181382 0)
(0.0278402 0.0179818 0)
(0.0255066 0.0175456 0)
(0.0229851 0.0168898 0)
(0.0203534 0.0160693 0)
(0.01768 0.0151299 0)
(0.0150236 0.0141037 0)
(0.0124347 0.0130066 0)
(0.00995681 0.0118361 0)
(0.00763043 0.010571 0)
(0.00549705 0.00917406 0)
(0.00360499 0.00759695 0)
(0.00200413 0.00578876 0)
(0.000819968 0.00370617 0)
(9.38338e-05 0.00133191 0)
(9.0814e-05 -0.00186392 0)
(0.000796522 -0.00494534 0)
(0.00191483 -0.00733269 0)
(0.0033439 -0.008986 0)
(0.0048797 -0.00990656 0)
(0.0063906 -0.0101353 0)
(0.00775745 -0.00974874 0)
(0.00888648 -0.00884913 0)
(0.0097092 -0.00755279 0)
(0.0101799 -0.00597793 0)
(0.010271 -0.00423412 0)
(0.00996813 -0.00241394 0)
(0.00926435 -0.000587197 0)
(0.00815462 0.00120233 0)
(0.0066309 0.00293772 0)
(0.00467812 0.00462746 0)
(0.0022714 0.00630201 0)
(-0.000625339 0.00800841 0)
(-0.00405906 0.0098037 0)
(-0.00808582 0.0117475 0)
(-0.0127676 0.0138951 0)
(-0.0181681 0.0162915 0)
(-0.0243486 0.0189675 0)
(-0.0313628 0.0219376 0)
(-0.0392533 0.0252 0)
(-0.0480472 0.0287373 0)
(-0.0577524 0.0325174 0)
(-0.0683547 0.0364949 0)
(-0.0798145 0.040612 0)
(-0.0920659 0.0447993 0)
(-0.105016 0.048978 0)
(-0.118549 0.0530622 0)
(-0.132526 0.0569628 0)
(-0.146798 0.0605915 0)
(-0.161206 0.0638658 0)
(-0.175595 0.0667128 0)
(-0.189817 0.0690727 0)
(-0.203741 0.0709009 0)
(-0.217253 0.0721688 0)
(-0.230262 0.0728631 0)
(-0.242695 0.0729843 0)
(-0.254502 0.0725444 0)
(-0.265648 0.0715646 0)
(-0.276114 0.0700721 0)
(-0.285889 0.0680987 0)
(-0.294974 0.065678 0)
(-0.303371 0.062844 0)
(-0.31109 0.0596305 0)
(-0.318139 0.0560693 0)
(-0.324529 0.0521905 0)
(-0.330271 0.048022 0)
(-0.335374 0.0435891 0)
(-0.339847 0.0389148 0)
(-0.343697 0.0340202 0)
(-0.34693 0.0289241 0)
(-0.349552 0.0236438 0)
(-0.351564 0.0181955 0)
(-0.352967 0.0125943 0)
(-0.35376 0.00685495 0)
(-0.35394 0.000992457 0)
(-0.353501 -0.00497753 0)
(-0.352434 -0.011038 0)
(-0.350728 -0.01717 0)
(-0.348368 -0.0233517 0)
(-0.345339 -0.0295579 0)
(-0.341622 -0.0357592 0)
(-0.337195 -0.0419214 0)
(-0.332035 -0.0480046 0)
(-0.326119 -0.0539631 0)
(-0.319423 -0.0597448 0)
(-0.311924 -0.065291 0)
(-0.303602 -0.070537 0)
(-0.294442 -0.0754124 0)
(-0.284437 -0.0798425 0)
(-0.273588 -0.0837495 0)
(-0.261909 -0.0870552 0)
(-0.249426 -0.0896836 0)
(-0.236184 -0.091564 0)
(-0.222246 -0.0926346 0)
(-0.207695 -0.0928466 0)
(-0.192634 -0.0921674 0)
(-0.177183 -0.0905843 0)
(-0.161482 -0.0881064 0)
(-0.14568 -0.0847664 0)
(-0.129936 -0.0806203 0)
(-0.114413 -0.0757458 0)
(-0.0992668 -0.0702397 0)
(-0.0846442 -0.0642132 0)
(-0.0706763 -0.0577871 0)
(-0.0574745 -0.0510867 0)
(-0.0451283 -0.0442363 0)
(-0.0337044 -0.0373554 0)
(-0.0232483 -0.0305552 0)
(-0.0137869 -0.0239369 0)
(-0.00533166 -0.0175906 0)
(0.00211784 -0.0115957 0)
(0.0085712 -0.00602041 0)
(0.0140452 -0.000922632 0)
(0.0185629 0.00365054 0)
(0.0221542 0.00766335 0)
(0.0248564 0.0110924 0)
(0.0267156 0.013928 0)
(0.0277874 0.0161747 0)
(0.0281377 0.0178521 0)
(0.0278413 0.0189941 0)
(0.0269808 0.0196473 0)
(0.0256437 0.0198681 0)
(0.0239196 0.0197196 0)
(0.0218967 0.0192667 0)
(0.0196593 0.0185713 0)
(0.0172852 0.0176874 0)
(0.0148446 0.0166561 0)
(0.0124002 0.0155008 0)
(0.0100082 0.0142241 0)
(0.00772165 0.0128064 0)
(0.00559392 0.0112072 0)
(0.00368488 0.00936833 0)
(0.00205522 0.00722093 0)
(0.000842699 0.00469397 0)
(9.65065e-05 0.00172579 0)
(9.51478e-05 -0.00224888 0)
(0.000824973 -0.00589039 0)
(0.0019602 -0.00863995 0)
(0.00338246 -0.0104745 0)
(0.00486914 -0.0114156 0)
(0.0062777 -0.0115291 0)
(0.00748298 -0.0109188 0)
(0.00838983 -0.00971477 0)
(0.00893167 -0.00805858 0)
(0.00906628 -0.00608954 0)
(0.00876958 -0.0039327 0)
(0.00802905 -0.00168993 0)
(0.00683696 0.000565761 0)
(0.00518425 0.00279287 0)
(0.00305543 0.00498127 0)
(0.000424921 0.00714944 0)
(-0.0027449 0.00933941 0)
(-0.00650374 0.0116097 0)
(-0.0109115 0.014027 0)
(-0.0160348 0.0166571 0)
(-0.0219419 0.0195571 0)
(-0.0286973 0.0227687 0)
(-0.0363565 0.0263145 0)
(-0.0449601 0.0301961 0)
(-0.0545298 0.0343946 0)
(-0.0650641 0.0388712 0)
(-0.076535 0.0435696 0)
(-0.0888859 0.0484176 0)
(-0.102031 0.0533291 0)
(-0.115855 0.0582073 0)
(-0.130221 0.0629487 0)
(-0.144971 0.0674483 0)
(-0.159937 0.0716044 0)
(-0.174952 0.075325 0)
(-0.189853 0.078532 0)
(-0.204496 0.0811645 0)
(-0.218753 0.0831804 0)
(-0.232521 0.0845566 0)
(-0.245722 0.0852868 0)
(-0.258298 0.0853797 0)
(-0.270211 0.0848555 0)
(-0.28144 0.0837429 0)
(-0.291976 0.0820762 0)
(-0.301818 0.0798929 0)
(-0.310972 0.0772314 0)
(-0.319449 0.0741303 0)
(-0.327262 0.0706264 0)
(-0.334424 0.0667547 0)
(-0.340949 0.0625479 0)
(-0.346853 0.0580358 0)
(-0.35215 0.0532458 0)
(-0.356854 0.0482024 0)
(-0.360977 0.0429277 0)
(-0.364531 0.0374414 0)
(-0.367528 0.031761 0)
(-0.369977 0.0259023 0)
(-0.371884 0.0198793 0)
(-0.373257 0.0137052 0)
(-0.374096 0.00739253 0)