/*--------------------------------*- C++ -*----------------------------------*\
| =========                 |                                                 |
| \\      /  F ield         | OpenFOAM: The Open Source CFD Toolbox           |
|  \\    /   O peration     | Version:  2406                                  |
|   \\  /    A nd           | Website:  www.openfoam.com                      |
|    \\/     M anipulation  |                                                 |
\*---------------------------------------------------------------------------*/
FoamFile
{
    version     2.0;
    format      ascii;
    arch        "LSB;label=32;scalar=64";
    class       volScalarField;
    location    "6.5";
    object      p;
}
// * * * * * * * * * * * * * * * * * * * * * * * * * * * * * * * * * * * * * //

dimensions      [0 2 -2 0 0 0 0];

internalField   nonuniform List<scalar> 
3600
(
0.00928815
0.0092818
0.00928105
0.00927798
0.00928332
0.00928803
0.00930053
0.00931299
0.00933206
0.00935158
0.00937675
0.00940292
0.00943403
0.00946661
0.00950363
0.00954247
0.00958533
0.00963024
0.00967878
0.00972944
0.00978331
0.0098392
0.00989781
0.00995815
0.0100206
0.0100843
0.0101493
0.0102148
0.0102807
0.0103462
0.010411
0.0104742
0.0105356
0.0105942
0.0106497
0.0107014
0.0107488
0.0107914
0.010829
0.010861
0.0108875
0.0109083
0.0109235
0.0109332
0.0109378
0.0109376
0.010933
0.0109246
0.010913
0.0108987
0.0108824
0.0108646
0.010846
0.0108273
0.010809
0.010792
0.0107769
0.0107651
0.010757
0.0107547
0.00929438
0.0092879
0.00928951
0.00928793
0.00929493
0.00930037
0.00931351
0.0093261
0.0093453
0.00936471
0.00938982
0.00941578
0.00944674
0.00947906
0.00951585
0.00955436
0.0095969
0.00964139
0.00968948
0.00973961
0.00979291
0.00984813
0.00990602
0.00996554
0.0100271
0.0100898
0.0101538
0.0102182
0.0102829
0.0103471
0.0104106
0.0104725
0.0105325
0.0105898
0.0106439
0.0106943
0.0107404
0.0107818
0.0108182
0.0108493
0.0108748
0.0108948
0.0109094
0.0109186
0.0109228
0.0109223
0.0109177
0.0109094
0.010898
0.010884
0.0108683
0.0108512
0.0108336
0.010816
0.0107993
0.010784
0.010771
0.0107609
0.0107542
0.0107521
0.0092953
0.0092862
0.00928801
0.00928573
0.00929319
0.00929849
0.00931197
0.00932451
0.0093439
0.00936326
0.00938845
0.00941436
0.00944535
0.00947762
0.00951441
0.0095529
0.00959544
0.00963993
0.00968806
0.00973822
0.00979159
0.0098469
0.00990492
0.0099646
0.0100264
0.0100893
0.0101535
0.0102182
0.0102833
0.0103479
0.0104118
0.0104741
0.0105345
0.0105921
0.0106466
0.0106972
0.0107436
0.0107851
0.0108215
0.0108524
0.0108778
0.0108975
0.0109116
0.0109203
0.0109239
0.0109228
0.0109174
0.0109083
0.0108962
0.0108815
0.010865
0.0108473
0.0108292
0.0108111
0.010794
0.0107783
0.010765
0.0107545
0.0107477
0.0107446
0.00929781
0.00928664
0.00928941
0.00928707
0.0092957
0.00930124
0.00931545
0.00932807
0.00934778
0.00936708
0.00939235
0.00941812
0.00944906
0.00948115
0.00951783
0.00955611
0.00959849
0.00964276
0.0096907
0.00974064
0.00979381
0.00984891
0.00990674
0.00996623
0.0100278
0.0100906
0.0101547
0.0102193
0.0102842
0.0103487
0.0104124
0.0104746
0.0105349
0.0105923
0.0106466
0.0106969
0.0107429
0.010784
0.0108198
0.0108501
0.0108747
0.0108935
0.0109067
0.0109144
0.010917
0.0109148
0.0109084
0.0108984
0.0108854
0.0108699
0.0108529
0.0108347
0.0108164
0.0107982
0.0107814
0.010766
0.0107534
0.010743
0.0107366
0.0107327
0.00929084
0.00927741
0.00928024
0.00927692
0.0092859
0.0092911
0.00930565
0.00931815
0.0093381
0.00935735
0.00938278
0.00940853
0.00943959
0.00947171
0.00950851
0.00954687
0.00958943
0.00963387
0.00968209
0.00973233
0.00978591
0.00984148
0.00989988
0.00996004
0.0100224
0.0100861
0.0101511
0.0102168
0.0102829
0.0103486
0.0104137
0.0104771
0.0105386
0.0105973
0.0106527
0.010704
0.0107507
0.0107923
0.0108284
0.0108587
0.010883
0.0109013
0.0109136
0.0109202
0.0109215
0.0109178
0.0109098
0.0108981
0.0108834
0.0108663
0.0108476
0.0108279
0.0108083
0.0107889
0.010771
0.0107546
0.0107412
0.0107299
0.0107231
0.0107182
0.00928244
0.00926755
0.00927084
0.00926715
0.00927683
0.00928202
0.00929711
0.00930962
0.00932989
0.00934911
0.0093747
0.00940039
0.00943154
0.0094636
0.00950046
0.00953883
0.00958148
0.009626
0.00967439
0.00972483
0.00977871
0.00983463
0.0098935
0.00995419
0.0100172
0.0100816
0.0101476
0.0102141
0.0102813
0.0103481
0.0104142
0.0104788
0.0105413
0.010601
0.0106572
0.0107092
0.0107563
0.0107982
0.0108341
0.010864
0.0108876
0.0109048
0.0109158
0.0109208
0.0109202
0.0109146
0.0109046
0.0108909
0.0108741
0.0108552
0.0108349
0.0108138
0.0107929
0.0107726
0.010754
0.0107371
0.0107234
0.0107119
0.0107049
0.0106997
0.00926334
0.00924712
0.00925047
0.00924607
0.00925598
0.00926084
0.00927617
0.00928855
0.00930905
0.00932824
0.00935405
0.0093798
0.00941118
0.00944341
0.00948057
0.00951923
0.0095623
0.0096073
0.0096563
0.00970744
0.00976218
0.00981909
0.00987913
0.00994115
0.0100057
0.0100718
0.0101396
0.0102081
0.0102774
0.0103464
0.0104149
0.0104818
0.0105465
0.0106083
0.0106664
0.0107201
0.0107686
0.0108113
0.0108478
0.0108777
0.0109007
0.010917
0.0109264
0.0109296
0.0109268
0.0109187
0.010906
0.0108896
0.0108701
0.0108485
0.0108256
0.0108023
0.0107793
0.0107573
0.0107371
0.0107189
0.0107042
0.010692
0.0106845
0.010679
0.00924125
0.00922425
0.00922787
0.0092232
0.00923354
0.00923833
0.00925403
0.0092664
0.00928717
0.00930637
0.0093324
0.0093582
0.00938979
0.00942215
0.00945959
0.0094985
0.00954198
0.00958742
0.00963702
0.00968885
0.00974446
0.00980238
0.00986361
0.00992699
0.0099931
0.0100609
0.0101306
0.0102013
0.0102728
0.0103442
0.010415
0.0104843
0.0105514
0.0106153
0.0106753
0.0107306
0.0107803
0.0108238
0.0108604
0.01089
0.0109121
0.0109269
0.0109343
0.010935
0.0109293
0.0109183
0.0109022
0.0108826
0.0108599
0.0108354
0.0108098
0.0107841
0.010759
0.0107354
0.0107138
0.0106948
0.0106793
0.0106668
0.010659
0.0106539
0.00920813
0.0091904
0.00919408
0.00918897
0.00919946
0.00920402
0.00921991
0.00923219
0.00925318
0.00927242
0.00929871
0.00932469
0.00935664
0.00938933
0.00942727
0.00946672
0.00951091
0.00955717
0.00960778
0.00966078
0.00971777
0.00977729
0.00984037
0.00990583
0.00997429
0.0100447
0.0101173
0.010191
0.0102658
0.0103405
0.0104148
0.0104876
0.010558
0.0106252
0.0106881
0.0107458
0.0107975
0.0108423
0.0108796
0.0109091
0.0109303
0.0109435
0.0109486
0.0109465
0.0109374
0.0109226
0.0109025
0.0108789
0.0108522
0.010824
0.0107948
0.0107661
0.0107382
0.0107124
0.0106889
0.0106685
0.0106518
0.0106389
0.0106306
0.010626
0.00917122
0.00915309
0.00915694
0.00915168
0.00916244
0.00916695
0.0091831
0.00919538
0.0092166
0.0092359
0.00926244
0.00928857
0.00932083
0.00935382
0.00939221
0.00943217
0.00947706
0.00952411
0.00957574
0.00962992
0.00968835
0.00974952
0.00981454
0.00988222
0.00995317
0.0100264
0.010102
0.0101791
0.0102574
0.0103358
0.0104139
0.0104905
0.0105646
0.0106353
0.0107013
0.0107617
0.0108154
0.0108616
0.0108993
0.0109285
0.0109484
0.0109595
0.0109616
0.010956
0.0109426
0.0109233
0.0108985
0.0108702
0.0108388
0.0108065
0.0107734
0.0107415
0.0107107
0.0106828
0.0106573
0.010636
0.0106181
0.0106052
0.0105966
0.0105928
0.00912305
0.00910448
0.00910837
0.00910285
0.00911371
0.00911809
0.00913437
0.00914662
0.00916804
0.00918744
0.00921427
0.00924065
0.00927335
0.0093068
0.00934585
0.00938655
0.00943239
0.00948056
0.00953354
0.00958931
0.00964962
0.00971296
0.00978048
0.009851
0.00992515
0.0100019
0.0100814
0.0101628
0.0102456
0.0103288
0.0104117
0.0104932
0.0105721
0.0106474
0.0107175
0.0107815
0.0108379
0.0108861
0.0109247
0.0109537
0.0109723
0.0109811
0.0109797
0.0109698
0.0109514
0.0109268
0.0108963
0.0108625
0.0108255
0.0107884
0.0107505
0.0107149
0.0106805
0.0106502
0.0106224
0.0105998
0.0105807
0.0105676
0.0105586
0.0105558
0.00907081
0.00905199
0.009056
0.00905038
0.00906141
0.00906574
0.00908218
0.00909444
0.00911601
0.00913548
0.00916252
0.00918908
0.00922212
0.00925593
0.00929553
0.00933687
0.00938357
0.00943277
0.00948706
0.00954438
0.00960656
0.0096721
0.00974219
0.00981566
0.00989318
0.00997373
0.0100575
0.0101434
0.0102311
0.0103195
0.0104079
0.0104948
0.0105791
0.0106595
0.0107343
0.0108023
0.0108618
0.0109121
0.0109516
0.0109803
0.0109971
0.0110029
0.0109973
0.0109823
0.0109578
0.0109269
0.0108896
0.0108495
0.0108062
0.0107636
0.0107206
0.010681
0.010643
0.0106103
0.0105803
0.0105567
0.0105364
0.0105236
0.0105142
0.0105126
0.0090069
0.00898776
0.00899178
0.00898597
0.00899705
0.00900126
0.00901778
0.00903
0.00905171
0.00907125
0.00909853
0.00912534
0.00915879
0.00919308
0.00923334
0.00927549
0.00932323
0.00937367
0.00942949
0.00948864
0.00955301
0.00962111
0.00969421
0.00977113
0.0098526
0.00993759
0.0100263
0.0101176
0.0102112
0.0103059
0.0104007
0.0104944
0.0105853
0.010672
0.0107526
0.0108257
0.0108893
0.0109425
0.0109833
0.0110118
0.0110267
0.0110291
0.0110185
0.0109975
0.010966
0.0109276
0.0108824
0.0108348
0.0107843
0.0107354
0.0106867
0.0106427
0.0106007
0.0105655
0.010533
0.0105085
0.010487
0.0104744
0.0104646
0.0104645
0.00893904
0.00891974
0.00892382
0.00891791
0.00892905
0.00893318
0.00894972
0.00896186
0.00898358
0.00900308
0.00903043
0.0090573
0.00909095
0.0091255
0.0091662
0.00920892
0.00925746
0.00930893
0.00936608
0.00942688
0.00949329
0.00956386
0.00963989
0.00972028
0.00980576
0.00989536
0.00998925
0.0100864
0.0101863
0.0102879
0.0103899
0.010491
0.0105893
0.0106833
0.0107706
0.0108496
0.0109179
0.0109743
0.0110167
0.0110449
0.0110575
0.0110558
0.0110392
0.011011
0.010971
0.0109239
0.0108695
0.0108134
0.0107547
0.010699
0.010644
0.0105955
0.0105496
0.010512
0.0104774
0.0104522
0.0104297
0.0104177
0.0104077
0.0104093
0.00885884
0.00883926
0.0088433
0.00883718
0.00884828
0.00885224
0.00886873
0.00888073
0.00890243
0.00892187
0.00894928
0.00897622
0.00901007
0.00904491
0.00908608
0.00912941
0.0091788
0.00923136
0.00928992
0.00935247
0.00942104
0.00949424
0.00957343
0.00965757
0.00974744
0.00984211
0.00994178
0.0100454
0.0101526
0.010262
0.0103724
0.0104822
0.0105894
0.010692
0.0107875
0.0108738
0.010948
0.0110087
0.0110532
0.0110814
0.0110914
0.011085
0.0110614
0.0110247
0.0109748
0.0109174
0.0108524
0.0107866
0.0107187
0.0106555
0.010594
0.0105408
0.0104909
0.0104512
0.0104146
0.010389
0.0103657
0.0103546
0.0103445
0.0103479
0.00877527
0.00875557
0.0087596
0.00875335
0.00876436
0.00876811
0.00878443
0.00879615
0.0088176
0.00883674
0.0088639
0.00889059
0.00892428
0.00895902
0.00900023
0.00904375
0.00909355
0.00914676
0.00920628
0.00927015
0.00934049
0.00941595
0.00949798
0.00958562
0.00967971
0.00977941
0.00988493
0.00999532
0.0101101
0.0102279
0.0103474
0.0104669
0.010584
0.0106965
0.0108013
0.0108961
0.0109773
0.0110431
0.0110901
0.0111183
0.0111252
0.0111132
0.0110813
0.0110344
0.0109727
0.0109034
0.0108262
0.0107495
0.0106714
0.0106003
0.010532
0.0104745
0.010421
0.0103798
0.0103417
0.0103165
0.0102927
0.0102829
0.0102729
0.0102785
0.0086783
0.00865833
0.00866226
0.00865574
0.00866657
0.00867
0.00868604
0.00869741
0.00871854
0.00873733
0.00876417
0.00879056
0.00882403
0.00885861
0.00889978
0.00894339
0.00899347
0.0090472
0.00910753
0.00917258
0.00924452
0.0093221
0.00940686
0.00949794
0.00959625
0.00970108
0.00981268
0.00993022
0.0100531
0.0101802
0.0103099
0.0104404
0.0105689
0.010693
0.010809
0.010914
0.0110037
0.0110759
0.0111264
0.0111549
0.0111585
0.01114
0.0110983
0.0110396
0.0109642
0.010881
0.0107899
0.010701
0.010612
0.0105328
0.0104578
0.0103965
0.01034
0.0102982
0.0102593
0.0102352
0.0102115
0.0102035
0.0101938
0.0102019
0.00857908
0.00855905
0.0085629
0.00855617
0.00856671
0.00856973
0.00858529
0.00859605
0.00861653
0.00863456
0.00866063
0.00868622
0.00871888
0.00875269
0.00879314
0.00883616
0.0088858
0.00893929
0.00899965
0.00906509
0.00913783
0.00921677
0.00930349
0.00939729
0.00949919
0.00960862
0.00972591
0.00985037
0.00998146
0.010118
0.0102584
0.0104006
0.0105416
0.0106787
0.0108072
0.010924
0.0110236
0.0111032
0.0111579
0.0111869
0.0111868
0.0111608
0.0111078
0.0110353
0.0109441
0.0108449
0.010738
0.0106357
0.010535
0.0104478
0.0103666
0.0103027
0.0102444
0.0102033
0.0101649
0.0101429
0.0101201
0.0101146
0.0101056
0.0101163
0.00846499
0.00844472
0.00844836
0.00844125
0.0084514
0.00845387
0.00846883
0.00847889
0.00849861
0.00851582
0.00854102
0.00856569
0.00859742
0.0086303
0.00866984
0.00871201
0.00876087
0.00881377
0.00887372
0.00893906
0.00901206
0.00909176
0.00917982
0.00927573
0.00938059
0.00949407
0.0096166
0.0097477
0.00988689
0.0100331
0.0101847
0.0103396
0.0104943
0.0106456
0.0107884
0.0109185
0.0110296
0.0111182
0.0111781
0.0112083
0.0112049
0.0111712
0.0111063
0.0110189
0.0109101
0.0107933
0.0106689
0.0105519
0.0104389
0.0103439
0.0102573
0.0101922
0.0101337
0.0100952
0.0100587
0.0100403
0.0100194
0.0100171
0.010009
0.0100227
0.0083505
0.00833025
0.00833371
0.00832629
0.00833589
0.00833767
0.00835172
0.00836072
0.00837919
0.00839502
0.00841868
0.00844171
0.00847168
0.00850274
0.0085404
0.0085807
0.00862771
0.00867885
0.00873717
0.00880113
0.00887304
0.0089521
0.00904007
0.00913664
0.00924302
0.00935915
0.00948558
0.00962212
0.00976839
0.00992357
0.0100858
0.0102531
0.0104216
0.0105874
0.0107447
0.0108883
0.011011
0.0111084
0.0111737
0.0112056
0.0111997
0.0111597
0.0110842
0.0109832
0.0108579
0.0107235
0.010581
0.0104485
0.0103222
0.0102193
0.0101278
0.0100629
0.0100058
0.00997208
0.00993927
0.00992611
0.00990815
0.00990978
0.00990309
0.00991968
0.00821913
0.00819866
0.00820179
0.00819386
0.00820278
0.00820371
0.00821674
0.00822458
0.00824172
0.00825608
0.0082781
0.00829937
0.0083274
0.00835642
0.00839188
0.00842991
0.00847454
0.00852329
0.00857921
0.00864088
0.00871064
0.00878787
0.00887438
0.00897013
0.00907643
0.00919354
0.00932217
0.0094625
0.00961428
0.00977697
0.00994865
0.0101272
0.010308
0.0104868
0.0106561
0.0108103
0.0109409
0.0110434
0.0111107
0.0111425
0.0111347
0.0110921
0.0110129
0.0109072
0.0107746
0.010631
0.0104761
0.0103312
0.010192
0.0100806
0.00998316
0.00991866
0.00986362
0.00983606
0.00980834
0.00980183
0.00978785
0.00979401
0.00978901
0.00980834
0.00809015
0.00806983
0.00807265
0.0080643
0.00807235
0.00807223
0.00808382
0.00809002
0.00810515
0.00811731
0.00813679
0.00815533
0.00818032
0.0082061
0.00823805
0.00827241
0.00831312
0.00835787
0.0084096
0.00846709
0.00853263
0.00860583
0.0086885
0.00878089
0.0088844
0.00899965
0.00912751
0.00926854
0.00942264
0.00958948
0.00976683
0.00995205
0.0101393
0.0103228
0.0104933
0.0106437
0.0107646
0.0108523
0.010902
0.0109176
0.0108992
0.0108555
0.0107858
0.0106993
0.0105903
0.01047
0.0103314
0.0101949
0.0100545
0.00993871
0.0098344
0.00976812
0.00971287
0.0096909
0.00966805
0.00966872
0.00965901
0.00966979
0.00966646
0.009688
0.00794159
0.0079211
0.00792344
0.0079144
0.00792144
0.00792013
0.0079302
0.0079347
0.0079478
0.00795773
0.00797463
0.00799034
0.00801213
0.00803445
0.00806251
0.0080927
0.0081288
0.00816866
0.00821508
0.00826703
0.00832668
0.00839389
0.0084704
0.00855677
0.00865443
0.00876441
0.00888766
0.00902519
0.00917681
0.00934215
0.00951788
0.00969974
0.00987876
0.0100455
0.0101862
0.0102908
0.0103489
0.0103612
0.0103311
0.0102757
0.0102085
0.0101512
0.010108
0.0100873
0.0100724
0.0100602
0.0100241
0.00997086
0.00988394
0.00979539
0.00969636
0.00962862
0.00956836
0.00954747
0.00952602
0.00953191
0.00952519
0.0095395
0.00953717
0.00955984
0.00779946
0.0077793
0.00778119
0.00777161
0.00777741
0.00777466
0.00778266
0.00778484
0.00779506
0.00780181
0.00781497
0.00782662
0.00784378
0.00786112
0.0078836
0.00790781
0.00793731
0.00797013
0.00800886
0.00805267
0.00810354
0.00816155
0.00822833
0.00830472
0.00839207
0.00849179
0.00860479
0.00873229
0.00887347
0.00902683
0.00918599
0.00934184
0.00947779
0.00957505
0.00960999
0.0095665
0.00943578
0.00923189
0.00898191
0.00873458
0.00853242
0.00842098
0.00841505
0.00852425
0.00871661
0.0089653
0.00920686
0.00941245
0.00953108
0.00958099
0.00955221
0.00950931
0.00944635
0.00942009
0.00939209
0.00939755
0.00938964
0.00940441
0.00940125
0.00942329
0.00763412
0.00761383
0.00761508
0.00760465
0.00760909
0.00760478
0.00761073
0.00761063
0.00761807
0.00762176
0.00763129
0.00763895
0.00765146
0.00766367
0.00768027
0.007698
0.00772014
0.00774489
0.00777452
0.00780842
0.00784823
0.0078943
0.0079479
0.00801021
0.00808229
0.00816587
0.00826142
0.0083699
0.00848848
0.00861221
0.0087271
0.00881258
0.00883458
0.00875467
0.00853161
0.00814566
0.00760368
0.00695851
0.00628547
0.00568317
0.00523066
0.00500219
0.00502413
0.00531236
0.00582293
0.00650911
0.00726431
0.00800581
0.00861517
0.00905518
0.00928284
0.00937255
0.00935007
0.00932316
0.00927988
0.00927482
0.00925789
0.00926724
0.00925982
0.00927874
0.00748087
0.00746112
0.00746178
0.00745073
0.00745354
0.00744738
0.00745061
0.00744747
0.00745105
0.00745049
0.00745497
0.00745709
0.0074632
0.00746843
0.00747706
0.00748612
0.00749845
0.00751248
0.00753006
0.00755077
0.0075758
0.00760571
0.00764128
0.0076839
0.00773411
0.00779369
0.00786198
0.00793841
0.00801537
0.00807937
0.00810024
0.00803315
0.00781155
0.00736649
0.00664283
0.0056417
0.00442298
0.00311162
0.00184581
0.000772402
-6.87355e-06
-0.000402132
-0.000385767
6.82673e-05
0.000915695
0.00211557
0.00354164
0.00507378
0.00651497
0.00772734
0.0085674
0.00905429
0.00922367
0.00925082
0.00919639
0.00917062
0.00913342
0.00912813
0.00911112
0.00912348
0.00729946
0.00727963
0.00727949
0.00726743
0.00726855
0.0072605
0.00726118
0.00725525
0.00725534
0.00725095
0.00725077
0.00724774
0.00724771
0.00724612
0.00724672
0.00724682
0.00724869
0.00725105
0.00725508
0.00726066
0.00726821
0.00727856
0.00729166
0.00730911
0.00733035
0.0073569
0.00738555
0.00741204
0.00741881
0.00737545
0.00722141
0.00687057
0.0062102
0.0051479
0.00365007
0.00179427
-0.000262853
-0.00230893
-0.00416159
-0.00565897
-0.0067167
-0.00725805
-0.00727626
-0.00673732
-0.00567794
-0.00409897
-0.00210014
0.000226248
0.00265582
0.00496466
0.00685818
0.00818369
0.00888208
0.00914254
0.00913297
0.00908535
0.00901711
0.00898552
0.00895182
0.00895358
0.00713793
0.0071189
0.00711806
0.00710532
0.00710444
0.00709418
0.00709148
0.00708183
0.00707709
0.0070674
0.00706081
0.00705078
0.00704251
0.0070319
0.00702203
0.00701064
0.00699922
0.00698688
0.00697396
0.00696064
0.00694636
0.00693218
0.00691688
0.00690208
0.00688558
0.00686778
0.00684089
0.00679291
0.00668855
0.00646745
0.00602104
0.0052077
0.0038761
0.00195575
-0.000493676
-0.00325926
-0.00607599
-0.00867741
-0.0108929
-0.0125966
-0.0137612
-0.0143461
-0.0143834
-0.0138395
-0.0127529
-0.0110747
-0.008854
-0.0060856
-0.00292623
0.00042961
0.00359834
0.00620902
0.00794051
0.00881607
0.00903601
0.00900474
0.00890212
0.00883214
0.00877359
0.00875919
0.0069414
0.00692231
0.00692053
0.00690666
0.00690385
0.00689147
0.00688587
0.00687307
0.0068643
0.0068502
0.00683812
0.00682201
0.0068063
0.00678738
0.00676749
0.00674482
0.00671991
0.00669234
0.00666128
0.00662734
0.00658858
0.0065464
0.0064978
0.00644443
0.00638131
0.0063068
0.00620514
0.00605131
0.00578139
0.00529072
0.00440804
0.00294212
0.000746845
-0.00214522
-0.00551366
-0.00899936
-0.0122825
-0.0151142
-0.0173963
-0.0190663
-0.0201625
-0.0206735
-0.02067
-0.0201223
-0.019093
-0.0175064
-0.0153925
-0.0126453
-0.00931046
-0.00542057
-0.00127082
0.00269686
0.0058897
0.00790767
0.00876341
0.00888824
0.00876858
0.00865609
0.00856379
0.00852691
0.00677532
0.00675734
0.00675477
0.00674027
0.00673514
0.00672028
0.00671071
0.00669361
0.00667913
0.00665883
0.0066391
0.00661469
0.00658905
0.0065593
0.00652661
0.00648987
0.00644839
0.00640239
0.00634959
0.00629117
0.00622339
0.00614803
0.00605982
0.00596015
0.00584021
0.00569462
0.00549569
0.0051983
0.00469834
0.00383427
0.00237184
0.000104829
-0.00303312
-0.00683203
-0.0108991
-0.0147927
-0.01823
-0.0210436
-0.0232273
-0.0247651
-0.0257318
-0.0261152
-0.0260103
-0.0253874
-0.0243525
-0.0228336
-0.0208969
-0.0183905
-0.0153035
-0.0114859
-0.00702987
-0.00218974
0.00240713
0.00597458
0.00800062
0.00865671
0.0085846
0.00843609
0.00830675
0.00823456
0.0065647
0.00654663
0.00654303
0.00652735
0.00652018
0.00650319
0.00649058
0.00647029
0.00645155
0.00642667
0.00640099
0.00637005
0.00633612
0.00629716
0.00625295
0.0062033
0.00614587
0.00608183
0.00600691
0.00592321
0.00582455
0.00571341
0.00558133
0.00542957
0.00524366
0.00501319
0.00469327
0.00421251
0.00341603
0.00208292
-6.57438e-05
-0.00319218
-0.00721428
-0.01172
-0.0162076
-0.0202517
-0.0236816
-0.0264229
-0.0285349
-0.0299988
-0.0308876
-0.031155
-0.0309092
-0.0301138
-0.0289318
-0.0273123
-0.0254002
-0.0230509
-0.020283
-0.0168399
-0.0126499
-0.00766091
-0.00224969
0.00277118
0.00637013
0.00810093
0.00831541
0.00813413
0.00798632
0.00785764
0.00639873
0.00638213
0.00637773
0.00636153
0.00635184
0.00633224
0.00631524
0.00629026
0.0062651
0.00623339
0.00619908
0.00615892
0.00611372
0.00606264
0.0060038
0.00593825
0.00586166
0.00577645
0.00567597
0.0055635
0.00542988
0.00527853
0.00509703
0.00488642
0.00462503
0.00429563
0.00383186
0.00313051
0.00198102
0.000110792
-0.00276882
-0.00671849
-0.0114742
-0.0164611
-0.0211661
-0.0252615
-0.0287089
-0.0314916
-0.0336835
-0.0352124
-0.0361203
-0.0363056
-0.0358892
-0.0348248
-0.0333444
-0.0314242
-0.0293101
-0.0268899
-0.024268
-0.0211632
-0.017452
-0.0128387
-0.00734044
-0.00148731
0.00368637
0.00684038
0.00794446
0.00769096
0.0075838
0.00736498
0.00617485
0.00615805
0.00615258
0.00613527
0.00612364
0.00610218
0.00608237
0.00605461
0.00602545
0.0059896
0.00594948
0.00590312
0.0058495
0.00578926
0.00571831
0.0056394
0.00554556
0.00544107
0.00531605
0.00517574
0.00500696
0.00481496
0.00458191
0.00430945
0.00396635
0.00352847
0.00290344
0.00195554
0.000418197
-0.00201295
-0.00560146
-0.010268
-0.0155834
-0.0208814
-0.0257276
-0.029919
-0.0335282
-0.036538
-0.0389936
-0.040729
-0.041748
-0.0418806
-0.0412703
-0.0398538
-0.0379433
-0.0355391
-0.033003
-0.0302654
-0.0275429
-0.02457
-0.0212644
-0.0171961
-0.0121341
-0.00615132
3.28669e-05
0.00474071
0.00717622
0.00715998
0.00700908
0.0067535
0.00601464
0.0059997
0.00599348
0.00597592
0.00596169
0.00593772
0.00591323
0.0058807
0.00584465
0.00580173
0.00575232
0.00569641
0.00563068
0.00555788
0.00547126
0.00537581
0.00526141
0.00513478
0.00498217
0.00481139
0.00460447
0.0043691
0.0040811
0.00374319
0.00331314
0.00275995
0.00196364
0.00075785
-0.00117311
-0.00414412
-0.00836764
-0.0136194
-0.0193512
-0.0248788
-0.0298938
-0.0343046
-0.0382528
-0.041668
-0.0445397
-0.0465872
-0.0477833
-0.0478854
-0.0470737
-0.0452579
-0.0428372
-0.0398229
-0.0366977
-0.0334351
-0.0303765
-0.0272959
-0.0241934
-0.0205992
-0.0161738
-0.0105815
-0.00415021
0.00188031
0.0056103
0.00663412
0.00614126
0.00602008
0.00577769
0.0057623
0.00575508
0.0057366
0.00572083
0.00569567
0.00566909
0.00563484
0.00559567
0.0055499
0.00549561
0.00543488
0.00536155
0.00528095
0.00518283
0.00507529
0.00494394
0.00479911
0.00462184
0.00442402
0.00418118
0.00390533
0.00356383
0.00316276
0.00264632
0.00197996
0.00101436
-0.000438865
-0.00273761
-0.00618535
-0.0109398
-0.0166473
-0.0227017
-0.0284428
-0.0337018
-0.038456
-0.042883
-0.0468159
-0.0501866
-0.0525888
-0.0539884
-0.054065
-0.0530563
-0.05083
-0.0478805
-0.0442065
-0.0404118
-0.0364993
-0.0329392
-0.029553
-0.0264347
-0.0231411
-0.0193065
-0.0143879
-0.00824715
-0.00158021
0.00338196
0.00581014
0.00511357
0.00508826
0.00562989
0.0056168
0.00560896
0.00559063
0.00557235
0.00554499
0.00551366
0.00547487
0.0054286
0.00537599
0.00531213
0.00524218
0.00515651
0.00506391
0.00494999
0.00482683
0.00467495
0.00450933
0.00430474
0.00407835
0.00379796
0.00348133
0.00308592
0.00262305
0.00202221
0.00124878
0.000126046
-0.00154673
-0.00415979
-0.00799357
-0.0131615
-0.0192135
-0.0255346
-0.0315037
-0.037075
-0.0422504
-0.0472208
-0.0517009
-0.0555792
-0.0583252
-0.0599245
-0.0599739
-0.0587879
-0.0561768
-0.0527368
-0.0484279
-0.0439701
-0.0393739
-0.0352383
-0.0314277
-0.0281331
-0.0249616
-0.0215693
-0.0173839
-0.0118351
-0.00528836
0.000726623
0.00422382
0.00408643
0.00378696
0.00537886
0.00536489
0.00535621
0.00533732
0.00531827
0.00529096
0.00525883
0.00522024
0.00517251
0.00511944
0.00505252
0.00498046
0.00488908
0.00479165
0.00466815
0.0045362
0.00436944
0.00418948
0.00396269
0.0037141
0.00340109
0.00305057
0.00260683
0.00209104
0.00141471
0.000551175
-0.000704007
-0.00254765
-0.00539942
-0.0095063
-0.0149672
-0.021264
-0.0278149
-0.0340186
-0.0399313
-0.0455316
-0.0510262
-0.0559997
-0.0603328
-0.0633682
-0.0651424
-0.0651563
-0.0638229
-0.0608758
-0.057025
-0.0521623
-0.0471214
-0.0418879
-0.0371921
-0.0329201
-0.0293682
-0.0261847
-0.0230869
-0.019546
-0.0147233
-0.0088006
-0.0022022
0.00194042
0.00299908
0.00208419
0.00525121
0.00524002
0.00523093
0.00521278
0.00519139
0.00516247
0.00512565
0.0050831
0.00502822
0.00496902
0.00489252
0.00481232
0.0047088
0.00460105
0.0044624
0.00431738
0.00413145
0.00393452
0.00368287
0.00341143
0.00306519
0.00268273
0.00219294
0.00163047
0.000887337
-4.82146e-05
-0.00140534
-0.00336267
-0.00636434
-0.0106228
-0.0162531
-0.0227003
-0.0294389
-0.0358595
-0.0420906
-0.0480508
-0.0539773
-0.0593305
-0.0640224
-0.0672691
-0.0691837
-0.0691563
-0.0677153
-0.0645004
-0.060346
-0.0550505
-0.049559
-0.0437975
-0.0386307
-0.0339336
-0.0301239
-0.0268534
-0.0239475
-0.0209073
-0.0168437
-0.0117601
-0.0052187
-0.000748288
0.00147129
-2.43916e-05
0.00498312
0.00497034
0.00496069
0.00494257
0.00492165
0.00489473
0.00485918
0.00481983
0.00476606
0.00471013
0.00463339
0.00455532
0.00444901
0.00434116
0.00419603
0.00404767
0.00385038
0.00364579
0.00337648
0.00309165
0.00271945
0.00231576
0.00178871
0.00119415
0.000398904
-0.00058127
-0.00200322
-0.00400576
-0.0070623
-0.0113411
-0.0170156
-0.0235078
-0.0303784
-0.0369633
-0.0434475
-0.0496466
-0.0558637
-0.0614376
-0.0663646
-0.0697246
-0.0717393
-0.0716651
-0.0701651
-0.0667606
-0.0624242
-0.0568339
-0.0510534
-0.0449103
-0.0394133
-0.034383
-0.0303811
-0.0270083
-0.0242447
-0.0215658
-0.0182248
-0.0140054
-0.0080963
-0.00360687
-0.000789458
-0.00249215
0.00488462
0.00487517
0.00486536
0.00484875
0.00482575
0.00479808
0.0047579
0.00471551
0.00465448
0.00459359
0.00450724
0.00442276
0.00430466
0.00418917
0.00402988
0.00387249
0.0036581
0.00344253
0.00315211
0.00285343
0.00245458
0.00203283
0.00147176
0.000853978
1.76664e-05
-0.000984582
-0.00243725
-0.00442278
-0.00744295
-0.011616
-0.0172038
-0.0236243
-0.0305455
-0.0372163
-0.0438587
-0.0501517
-0.0564918
-0.0621078
-0.0671274
-0.070494
-0.0725636
-0.0724428
-0.0709408
-0.0674371
-0.0630488
-0.0573085
-0.0514098
-0.0450476
-0.0393874
-0.0341481
-0.0300608
-0.0266157
-0.0239906
-0.0215675
-0.0188717
-0.0154422
-0.010492
-0.00626814
-0.00341289
-0.00493629
0.00459349
0.00458137
0.00457142
0.00455578
0.00453505
0.00451235
0.00447638
0.00444167
0.00438532
0.00433311
0.00425028
0.00417395
0.00405682
0.00394782
0.00378591
0.00363265
0.00341122
0.00319705
0.00289449
0.00259427
0.0021775
0.00175134
0.00116629
0.000542981
-0.000319196
-0.00131441
-0.00276492
-0.00467095
-0.00757401
-0.0115167
-0.0168883
-0.0230981
-0.0299683
-0.0366204
-0.0433217
-0.0495609
-0.0558648
-0.0613407
-0.066309
-0.0695652
-0.0716418
-0.0714697
-0.0700257
-0.0665102
-0.0621995
-0.0564443
-0.0505947
-0.044174
-0.0385304
-0.033222
-0.0291826
-0.0257235
-0.0232682
-0.0210282
-0.018886
-0.0161154
-0.012189
-0.00841085
-0.0057809
-0.00691422
0.00453471
0.00452656
0.00451672
0.00450363
0.00448102
0.00445875
0.00441798
0.00438142
0.00431732
0.00426165
0.00416871
0.0040882
0.00395917
0.00384597
0.00367054
0.00351339
0.00327664
0.00305901
0.00273892
0.00243583
0.00199896
0.00157117
0.000963948
0.000343415
-0.000536555
-0.00150659
-0.00293274
-0.00471678
-0.00744231
-0.0110549
-0.0160862
-0.0219389
-0.0286285
-0.0351434
-0.0418033
-0.0478696
-0.0540064
-0.0591913
-0.0639758
-0.0670145
-0.0690463
-0.0688169
-0.0674814
-0.0640319
-0.0599109
-0.0542563
-0.0486031
-0.0422684
-0.0368117
-0.0315685
-0.0277109
-0.0243023
-0.0220647
-0.0199606
-0.0182912
-0.0160346
-0.0130461
-0.00976839
-0.00739865
-0.0080732
0.00421032
0.00419791
0.00418854
0.00417785
0.00416009
0.00414722
0.00411469
0.00409229
0.0040375
0.00399808
0.00391323
0.00384897
0.00372513
0.00362695
0.00345284
0.00330914
0.00306943
0.00286406
0.00253674
0.00224574
0.00179789
0.00138409
0.000763897
0.000164426
-0.000722179
-0.00164304
-0.00302817
-0.00465315
-0.0071647
-0.0103663
-0.0149568
-0.0202963
-0.0266629
-0.0328951
-0.0394228
-0.0452212
-0.0511181
-0.0559072
-0.0604222
-0.0631531
-0.0651006
-0.0647934
-0.0636026
-0.0602623
-0.0564177
-0.0509459
-0.0456199
-0.0394954
-0.0343915
-0.0293347
-0.0257961
-0.0224968
-0.0205409
-0.0185355
-0.0172808
-0.0153797
-0.0131736
-0.0103268
-0.00815088
-0.00835484
0.00420383
0.00419622
0.0041872
0.00418057
0.00416091
0.00415008
0.00411195
0.00408919
0.00402513
0.00398396
0.00388728
0.00382138
0.00368423
0.00358577
0.00339743
0.00325563
0.00300091
0.00280034
0.00245725
0.00217502
0.00171104
0.00131208
0.000677297
0.000104149
-0.000787122
-0.00164958
-0.00298964
-0.00444437
-0.00673346
-0.00949067
-0.0135746
-0.0182737
-0.0241628
-0.029953
-0.036239
-0.0416977
-0.0473196
-0.0516753
-0.0558842
-0.0582622
-0.0600954
-0.0596881
-0.0586485
-0.0554303
-0.0519096
-0.0466752
-0.0417797
-0.0359649
-0.0313511
-0.0265699
-0.023458
-0.0203002
-0.0186799
-0.0167352
-0.0158639
-0.0141795
-0.0126265
-0.0101019
-0.00805488
-0.00779326
0.00382994
0.00381571
0.00380802
0.00380616
0.00379492
0.00380029
0.00377568
0.00377655
0.00372743
0.00371307
0.00362952
0.00359057
0.00346267
0.00338991
0.00320607
0.00308876
0.00283374
0.00265758
0.00230998
0.0020542
0.00158279
0.00121577
0.000573411
4.43961e-05
-0.000846009
-0.00163219
-0.00292724
-0.00420111
-0.0062827
-0.00858812
-0.0121541
-0.0161186
-0.0214038
-0.0265708
-0.0324924
-0.0375152
-0.0428524
-0.0467627
-0.0506899
-0.0527001
-0.0544265
-0.0538896
-0.0530079
-0.0498959
-0.0467442
-0.0417826
-0.0374291
-0.0320017
-0.0280142
-0.0235638
-0.0209855
-0.0179735
-0.0167574
-0.0148204
-0.0143356
-0.0127163
-0.0117112
-0.00933611
-0.00735474
-0.00662271
0.00389077
0.00388256
0.0038754
0.00388014
0.0038665
0.00387641
0.00384405
0.00384645
0.00378449
0.00377024
0.00367074
0.00363287
0.00348776
0.00341893
0.00321759
0.00310833
0.0028358
0.00267292
0.00230795
0.00207227
0.00158422
0.00124696
0.000590881
0.000107153