/*--------------------------------*- C++ -*----------------------------------*\
| =========                 |                                                 |
| \\      /  F ield         | OpenFOAM: The Open Source CFD Toolbox           |
|  \\    /   O peration     | Version:  2406                                  |
|   \\  /    A nd           | Website:  www.openfoam.com                      |
|    \\/     M anipulation  |                                                 |
\*---------------------------------------------------------------------------*/
FoamFile
{
    version     2.0;
    format      ascii;
    arch        "LSB;label=32;scalar=64";
    class       volVectorField;
    location    "10.6";
    object      U;
}
// * * * * * * * * * * * * * * * * * * * * * * * * * * * * * * * * * * * * * //

dimensions      [0 1 -1 0 0 0 0];

internalField   nonuniform List<vector> 
3600
(
(9.75563e-06 -9.69665e-06 0)
(8.19101e-06 3.72782e-06 0)
(-6.01654e-05 2.13379e-05 0)
(-0.000188178 3.43008e-05 0)
(-0.000356868 4.2114e-05 0)
(-0.000549037 4.6024e-05 0)
(-0.000752622 4.76402e-05 0)
(-0.000960888 4.82e-05 0)
(-0.00117091 4.84858e-05 0)
(-0.00138203 4.88902e-05 0)
(-0.00159462 4.95512e-05 0)
(-0.0018094 5.04608e-05 0)
(-0.00202692 5.15383e-05 0)
(-0.00224741 5.26719e-05 0)
(-0.00247067 5.37387e-05 0)
(-0.00269603 5.46133e-05 0)
(-0.00292235 5.51702e-05 0)
(-0.003148 5.5285e-05 0)
(-0.0033709 5.48357e-05 0)
(-0.0035885 5.37049e-05 0)
(-0.00379786 5.17833e-05 0)
(-0.00399564 4.89735e-05 0)
(-0.00417821 4.51948e-05 0)
(-0.00434174 4.03886e-05 0)
(-0.00448224 3.45208e-05 0)
(-0.0045958 2.75826e-05 0)
(-0.00467871 1.96557e-05 0)
(-0.00472747 1.09973e-05 0)
(-0.00473869 1.62851e-06 0)
(-0.00471014 -8.67672e-06 0)
(-0.00464049 -1.94134e-05 0)
(-0.00452882 -3.02661e-05 0)
(-0.00437548 -4.09737e-05 0)
(-0.00418194 -5.12284e-05 0)
(-0.00395083 -6.07091e-05 0)
(-0.00368596 -6.91019e-05 0)
(-0.00339219 -7.61188e-05 0)
(-0.00307534 -8.15169e-05 0)
(-0.00274196 -8.5116e-05 0)
(-0.00239907 -8.68125e-05 0)
(-0.00205388 -8.6587e-05 0)
(-0.0017135 -8.45053e-05 0)
(-0.00138464 -8.07116e-05 0)
(-0.00107333 -7.54154e-05 0)
(-0.000784769 -6.88718e-05 0)
(-0.000523181 -6.13592e-05 0)
(-0.000291772 -5.3156e-05 0)
(-9.2782e-05 -4.45193e-05 0)
(7.24148e-05 -3.56682e-05 0)
(0.000203153 -2.67756e-05 0)
(0.00029931 -1.79687e-05 0)
(0.000361198 -9.3387e-06 0)
(0.000389594 -1.02349e-06 0)
(0.000385632 6.69323e-06 0)
(0.000351541 1.36673e-05 0)
(0.000291649 1.93023e-05 0)
(0.000213151 2.24669e-05 0)
(0.000126926 2.2082e-05 0)
(5.26908e-05 1.6045e-05 0)
(6.84026e-06 6.87055e-06 0)
(-5.05384e-06 -6.71563e-06 0)
(-0.000107543 9.95815e-05 0)
(-0.000359184 0.000234076 0)
(-0.000745688 0.000337287 0)
(-0.00122377 0.000403067 0)
(-0.00175901 0.000438955 0)
(-0.00232488 0.000455717 0)
(-0.00290497 0.000462392 0)
(-0.00349062 0.00046503 0)
(-0.00407813 0.000466947 0)
(-0.00466633 0.000469533 0)
(-0.00525507 0.000472994 0)
(-0.00584417 0.000476893 0)
(-0.00643289 0.000480478 0)
(-0.00701968 0.00048286 0)
(-0.00760204 0.000483096 0)
(-0.00817645 0.000480235 0)
(-0.00873842 0.000473335 0)
(-0.00928249 0.000461491 0)
(-0.00980231 0.000443856 0)
(-0.0102908 0.000419681 0)
(-0.0107402 0.000388345 0)
(-0.0111423 0.000349393 0)
(-0.0114889 0.000302582 0)
(-0.0117715 0.000247904 0)
(-0.0119824 0.000185624 0)
(-0.012114 0.000116325 0)
(-0.0121604 4.09924e-05 0)
(-0.0121164 -3.91866e-05 0)
(-0.0119786 -0.000123133 0)
(-0.011745 -0.000208904 0)
(-0.0114162 -0.000294474 0)
(-0.0109948 -0.000377674 0)
(-0.0104856 -0.000456241 0)
(-0.00989569 -0.000527912 0)
(-0.00923438 -0.000590529 0)
(-0.008513 -0.000642162 0)
(-0.00774453 -0.000681226 0)
(-0.00694324 -0.000706586 0)
(-0.00612417 -0.000717633 0)
(-0.00530263 -0.000714334 0)
(-0.00449356 -0.000697226 0)
(-0.00371105 -0.000667368 0)
(-0.00296785 -0.000626254 0)
(-0.00227503 -0.000575678 0)
(-0.00164175 -0.000517588 0)
(-0.00107518 -0.000453923 0)
(-0.000580609 -0.000386473 0)
(-0.000161646 -0.00031677 0)
(0.000179489 -0.000246032 0)
(0.000441678 -0.000175201 0)
(0.00062472 -0.000105085 0)
(0.000729346 -3.6682e-05 0)
(0.000757871 2.8308e-05 0)
(0.000715192 8.71592e-05 0)
(0.000610397 0.000134865 0)
(0.000459252 0.000163866 0)
(0.000284648 0.000164495 0)
(0.000127241 0.000126602 0)
(1.60557e-05 5.28059e-05 0)
(-2.74905e-05 7.43069e-05 0)
(-0.000278182 0.000364988 0)
(-0.000737887 0.000671064 0)
(-0.00138339 0.000904944 0)
(-0.00214943 0.00105777 0)
(-0.00299394 0.001145 0)
(-0.00388252 0.00118845 0)
(-0.00479272 0.00120695 0)
(-0.00571141 0.00121357 0)
(-0.00663162 0.00121583 0)
(-0.00754978 0.00121717 0)
(-0.00846375 0.0012184 0)
(-0.00937158 0.0012188 0)
(-0.0102707 0.00121688 0)
(-0.0111577 0.00121075 0)
(-0.0120277 0.00119839 0)
(-0.012875 0.00117772 0)
(-0.0136924 0.00114672 0)
(-0.0144717 0.00110348 0)
(-0.0152036 0.00104628 0)
(-0.015878 0.000973687 0)
(-0.0164845 0.000884604 0)
(-0.0170123 0.000778383 0)
(-0.0174506 0.000654883 0)
(-0.0177893 0.000514531 0)
(-0.018019 0.00035836 0)
(-0.0181316 0.000188009 0)
(-0.0181203 5.72087e-06 0)
(-0.0179808 -0.000185514 0)
(-0.0177103 -0.000382147 0)
(-0.0173087 -0.000580352 0)
(-0.0167785 -0.000775751 0)
(-0.0161248 -0.000963673 0)
(-0.0153555 -0.00113933 0)
(-0.0144814 -0.00129803 0)
(-0.0135156 -0.00143534 0)
(-0.0124736 -0.00154736 0)
(-0.0113728 -0.00163095 0)
(-0.0102322 -0.0016839 0)
(-0.00907145 -0.0017051 0)
(-0.00791034 -0.00169463 0)
(-0.00676831 -0.00165373 0)
(-0.00566357 -0.00158474 0)
(-0.00461268 -0.00149084 0)
(-0.00363003 -0.00137587 0)
(-0.00272763 -0.00124394 0)
(-0.00191505 -0.00109917 0)
(-0.00119949 -0.00094532 0)
(-0.00058607 -0.000785633 0)
(-7.81907e-05 -0.000622706 0)
(0.000322139 -0.000458606 0)
(0.000614121 -0.000295227 0)
(0.000798332 -0.000134971 0)
(0.000877565 1.82467e-05 0)
(0.000858093 0.000157438 0)
(0.000751857 0.000271427 0)
(0.000579288 0.000344103 0)
(0.000368875 0.000355685 0)
(0.000171874 0.000286459 0)
(2.28235e-05 0.000128532 0)
(-4.97864e-05 0.000241813 0)
(-0.000450192 0.000818179 0)
(-0.00111754 0.00135204 0)
(-0.002014 0.00175161 0)
(-0.00304868 0.00201391 0)
(-0.00417362 0.00216655 0)
(-0.00534943 0.00224478 0)
(-0.00655018 0.00227879 0)
(-0.00775988 0.00228974 0)
(-0.0089691 0.00229007 0)
(-0.010172 0.00228569 0)
(-0.0113642 0.00227823 0)
(-0.0125417 0.00226672 0)
(-0.0136997 0.00224884 0)
(-0.0148327 0.00222156 0)
(-0.0159336 0.00218159 0)
(-0.0169943 0.00212556 0)
(-0.0180054 0.00205025 0)
(-0.0189563 0.00195269 0)
(-0.0198356 0.00183032 0)
(-0.0206315 0.00168112 0)
(-0.0213316 0.00150376 0)
(-0.021924 0.00129772 0)
(-0.0223972 0.00106337 0)
(-0.0227406 0.000802045 0)
(-0.022945 0.000516057 0)
(-0.0230028 0.000208718 0)
(-0.0229085 -0.000115747 0)
(-0.0226589 -0.000452241 0)
(-0.0222531 -0.000794705 0)
(-0.021693 -0.00113652 0)
(-0.0209831 -0.00147052 0)
(-0.0201309 -0.00178919 0)
(-0.0191468 -0.0020849 0)
(-0.018044 -0.00235017 0)
(-0.0168383 -0.00257805 0)
(-0.015548 -0.00276242 0)
(-0.0141935 -0.00289839 0)
(-0.0127965 -0.00298256 0)
(-0.0113797 -0.00301331 0)
(-0.00996618 -0.00299091 0)
(-0.00857804 -0.00291753 0)
(-0.00723628 -0.00279705 0)
(-0.00595987 -0.00263479 0)
(-0.00476527 -0.00243706 0)
(-0.0036662 -0.00221065 0)
(-0.00267351 -0.0019623 0)
(-0.00179534 -0.0016982 0)
(-0.00103747 -0.00142364 0)
(-0.000403706 -0.00114289 0)
(0.000103689 -0.000859369 0)
(0.000483812 -0.000576337 0)
(0.000737332 -0.000298011 0)
(0.000867262 -3.13371e-05 0)
(0.000880675 0.000211769 0)
(0.000790986 0.000412645 0)
(0.000620757 0.000545008 0)
(0.000401247 0.000577151 0)
(0.000189826 0.000477383 0)
(2.53449e-05 0.000221984 0)
(-7.00577e-05 0.000491665 0)
(-0.00060858 0.00144812 0)
(-0.00146914 0.00225666 0)
(-0.00259762 0.00284452 0)
(-0.0038765 0.00322724 0)
(-0.00525185 0.00345072 0)
(-0.00668018 0.00356615 0)
(-0.00813336 0.00361589 0)
(-0.00959363 0.00362931 0)
(-0.0110498 0.00362378 0)
(-0.0124942 0.00360765 0)
(-0.0139203 0.0035833 0)
(-0.0153221 0.00354953 0)
(-0.0166927 0.00350316 0)
(-0.0180244 0.00344002 0)
(-0.019308 0.00335555 0)
(-0.0205334 0.00324517 0)
(-0.0216891 0.00310453 0)
(-0.0227629 0.00292978 0)
(-0.0237421 0.00271778 0)
(-0.0246134 0.00246628 0)
(-0.0253641 0.0021741 0)
(-0.0259816 0.0018413 0)
(-0.0264548 0.00146923 0)
(-0.0267736 0.00106059 0)
(-0.0269299 0.000619415 0)
(-0.0269175 0.000151022 0)
(-0.0267325 -0.000338086 0)
(-0.0263734 -0.000840335 0)
(-0.025841 -0.00134717 0)
(-0.025139 -0.00184923 0)
(-0.0242736 -0.00233653 0)
(-0.0232539 -0.00279871 0)
(-0.0220918 -0.00322526 0)
(-0.020802 -0.00360592 0)
(-0.0194021 -0.00393113 0)
(-0.017912 -0.00419243 0)
(-0.0163542 -0.00438306 0)
(-0.0147528 -0.00449831 0)
(-0.0131331 -0.004536 0)
(-0.0115205 -0.00449658 0)
(-0.00993999 -0.00438325 0)
(-0.00841487 -0.00420169 0)
(-0.00696627 -0.00395963 0)
(-0.00561237 -0.00366627 0)
(-0.00436803 -0.00333146 0)
(-0.00324476 -0.00296499 0)
(-0.00225084 -0.00257578 0)
(-0.00139179 -0.00217146 0)
(-0.000670907 -0.00175812 0)
(-8.97713e-05 -0.00134066 0)
(0.00035142 -0.000923735 0)
(0.000654007 -0.000513469 0)
(0.000821656 -0.00011995 0)
(0.000862092 0.00023983 0)
(0.000789519 0.000539273 0)
(0.000627627 0.000741416 0)
(0.000409177 0.000801777 0)
(0.000194836 0.000674924 0)
(2.62055e-05 0.000320106 0)
(-8.78813e-05 0.000815419 0)
(-0.000748746 0.00223922 0)
(-0.001782 0.00336724 0)
(-0.0031179 0.00416364 0)
(-0.0046136 0.00467448 0)
(-0.00620894 0.00497082 0)
(-0.0078566 0.00512288 0)
(-0.00952677 0.00518623 0)
(-0.0112005 0.00519863 0)
(-0.0128653 0.00518215 0)
(-0.014512 0.00514738 0)
(-0.0161325 0.00509733 0)
(-0.0177187 0.00503044 0)
(-0.019262 0.00494267 0)
(-0.0207525 0.00482874 0)
(-0.0221794 0.0046829 0)
(-0.0235308 0.00449947 0)
(-0.0247938 0.0042732 0)
(-0.0259548 0.00399965 0)
(-0.0270003 0.00367541 0)
(-0.0279165 0.00329839 0)
(-0.0286904 0.00286802 0)
(-0.0293101 0.00238539 0)
(-0.0297651 0.00185326 0)
(-0.0300466 0.0012761 0)
(-0.0301479 0.00065996 0)
(-0.0300644 1.2371e-05 0)
(-0.0297941 -0.000657832 0)
(-0.0293369 -0.00134065 0)
(-0.0286952 -0.00202507 0)
(-0.0278737 -0.00269922 0)
(-0.0268796 -0.00335051 0)
(-0.0257223 -0.00396584 0)
(-0.0244141 -0.00453191 0)
(-0.02297 -0.0050356 0)
(-0.0214082 -0.00546449 0)
(-0.0197497 -0.0058075 0)
(-0.0180184 -0.00605556 0)
(-0.0162407 -0.00620229 0)
(-0.0144443 -0.00624459 0)
(-0.0126581 -0.00618298 0)
(-0.0109103 -0.00602168 0)
(-0.0092276 -0.00576843 0)
(-0.00763389 -0.00543385 0)
(-0.00614959 -0.00503059 0)
(-0.00479093 -0.0045723 0)
(-0.00356986 -0.00407246 0)
(-0.00249426 -0.00354335 0)
(-0.00156854 -0.00299536 0)
(-0.000794411 -0.00243668 0)
(-0.00017165 -0.00187377 0)
(0.000301347 -0.00131262 0)
(0.000627529 -0.000761105 0)
(0.000811884 -0.000232256 0)
(0.000863152 0.000251853 0)
(0.000796333 0.000656736 0)
(0.000635935 0.000934485 0)
(0.000415683 0.00102723 0)
(0.000198301 0.000874796 0)
(2.67473e-05 0.000419973 0)
(-0.000103365 0.00120376 0)
(-0.000870603 0.00317203 0)
(-0.00205478 0.00465976 0)
(-0.00357218 0.00568227 0)
(-0.00525708 0.00632674 0)
(-0.0070433 0.00669585 0)
(-0.00887979 0.00688209 0)
(-0.0107353 0.00695544 0)
(-0.0125898 0.0069622 0)
(-0.0144301 0.00692899 0)
(-0.0162458 0.00686834 0)
(-0.0180273 0.00678367 0)
(-0.019765 0.006673 0)
(-0.0214487 0.00653139 0)
(-0.0230668 0.00635248 0)
(-0.0246072 0.00612948 0)
(-0.0260565 0.0058558 0)
(-0.0274006 0.00552555 0)
(-0.0286255 0.00513397 0)
(-0.0297167 0.0046778 0)
(-0.0306607 0.00415553 0)
(-0.0314449 0.00356763 0)
(-0.032058 0.00291662 0)
(-0.0324908 0.00220711 0)
(-0.0327361 0.00144564 0)
(-0.0327891 0.000640475 0)
(-0.0326471 -0.000198591 0)
(-0.0323097 -0.00106052 0)
(-0.0317784 -0.0019332 0)
(-0.0310564 -0.00280358 0)
(-0.0301487 -0.00365777 0)
(-0.0290617 -0.00448103 0)
(-0.0278037 -0.00525793 0)
(-0.0263853 -0.00597246 0)
(-0.02482 -0.00660849 0)
(-0.0231247 -0.00715031 0)
(-0.0213199 -0.00758348 0)
(-0.0194305 -0.00789576 0)
(-0.0174847 -0.00807814 0)
(-0.015514 -0.00812576 0)
(-0.0135519 -0.0080386 0)
(-0.0116318 -0.00782174 0)
(-0.00978611 -0.00748516 0)
(-0.00804376 -0.00704303 0)
(-0.00642922 -0.00651245 0)
(-0.00496134 -0.00591202 0)
(-0.00365309 -0.00526012 0)
(-0.00251181 -0.00457348 0)
(-0.00154003 -0.00386605 0)
(-0.000736679 -0.00314864 0)
(-9.82943e-05 -0.00242938 0)
(0.000380005 -0.00171549 0)
(0.000704111 -0.00101623 0)
(0.000881403 -0.000347127 0)
(0.000922393 0.000265095 0)
(0.000843337 0.000778319 0)
(0.000669747 0.00113368 0)
(0.000436263 0.00125959 0)
(0.000207756 0.00108047 0)
(2.80712e-05 0.000522875 0)
(-0.000116763 0.001648 0)
(-0.000975799 0.00422762 0)
(-0.00229036 0.00611026 0)
(-0.00396471 0.00737406 0)
(-0.00581305 0.00815639 0)
(-0.00776367 0.00859727 0)
(-0.00976211 0.00881445 0)
(-0.0117757 0.00889356 0)
(-0.0137837 0.00888969 0)
(-0.0157722 0.00883385 0)
(-0.0177299 0.00874028 0)
(-0.0196462 0.00861264 0)
(-0.0215102 0.0084484 0)
(-0.0233103 0.0082417 0)
(-0.025034 0.0079852 0)
(-0.0266677 0.00767118 0)
(-0.0281972 0.00729232 0)
(-0.0296076 0.00684238 0)
(-0.0308843 0.00631662 0)
(-0.0320129 0.00571228 0)
(-0.03298 0.00502884 0)
(-0.0337738 0.00426828 0)
(-0.0343843 0.00343504 0)
(-0.0348042 0.00253598 0)
(-0.0350285 0.00158005 0)
(-0.0350549 0.000577909 0)
(-0.0348836 -0.000458502 0)
(-0.0345163 -0.00151633 0)
(-0.033956 -0.00258208 0)
(-0.033206 -0.00364163 0)
(-0.0322699 -0.00468014 0)
(-0.031151 -0.0056818 0)
(-0.0298534 -0.00662959 0)
(-0.0283825 -0.00750519 0)
(-0.026746 -0.00828925 0)
(-0.024956 -0.00896194 0)
(-0.0230297 -0.00950405 0)
(-0.0209908 -0.00989833 0)
(-0.0188693 -0.0101311 0)
(-0.0167014 -0.0101938 0)
(-0.0145276 -0.0100843 0)
(-0.0123909 -0.00980775 0)
(-0.0103336 -0.00937635 0)
(-0.00839464 -0.00880863 0)
(-0.00660683 -0.00812774 0)
(-0.00499503 -0.00735926 0)
(-0.00357527 -0.00652869 0)
(-0.00235502 -0.00565921 0)
(-0.00133441 -0.00476993 0)
(-0.000508108 -0.00387526 0)
(0.000132647 -0.00298543 0)
(0.000598209 -0.00210868 0)
(0.000899496 -0.0012551 0)
(0.00104802 -0.000441929 0)
(0.00105741 0.000300245 0)
(0.000946102 0.000922237 0)
(0.000741276 0.00135443 0)
(0.00047887 0.00151126 0)
(0.000227002 0.00130097 0)
(3.06735e-05 0.000632895 0)
(-0.000128362 0.00214051 0)
(-0.00106652 0.00538901 0)
(-0.0024933 0.00769691 0)
(-0.00430273 0.00921508 0)
(-0.00629174 0.0101387 0)
(-0.00838378 0.0106502 0)
(-0.0105213 0.010895 0)
(-0.0126705 0.0109758 0)
(-0.0148101 0.0109566 0)
(-0.0169255 0.0108727 0)
(-0.0190048 0.01074 0)
(-0.0210367 0.0105622 0)
(-0.0230095 0.010336 0)
(-0.0249105 0.0100549 0)
(-0.0267263 0.0097103 0)
(-0.0284426 0.00929386 0)
(-0.0300442 0.00879773 0)
(-0.0315161 0.00821549 0)
(-0.0328432 0.00754278 0)
(-0.0340113 0.00677772 0)
(-0.0350079 0.00592131 0)
(-0.0358223 0.00497763 0)
(-0.0364471 0.00395376 0)
(-0.036878 0.00285946 0)
(-0.0371142 0.00170664 0)
(-0.0371582 0.000508541 0)
(-0.0370146 -0.000721039 0)
(-0.0366887 -0.00196838 0)
(-0.0361853 -0.00322016 0)
(-0.0355067 -0.00446326 0)
(-0.0346523 -0.00568425 0)
(-0.0336179 -0.00686846 0)
(-0.0323971 -0.00799902 0)
(-0.0309829 -0.00905623 0)
(-0.02937 -0.0100173 0)
(-0.0275583 -0.0108569 0)
(-0.0255557 -0.0115485 0)
(-0.0233803 -0.0120662 0)
(-0.0210624 -0.0123876 0)
(-0.0186438 -0.0124963 0)
(-0.0161765 -0.0123847 0)
(-0.0137193 -0.0120554 0)
(-0.0113335 -0.0115221 0)
(-0.00907695 -0.0108086 0)
(-0.00700002 -0.00994641 0)
(-0.00514101 -0.00897175 0)
(-0.00352425 -0.00792128 0)
(-0.00215995 -0.00682848 0)
(-0.00104593 -0.00572084 0)
(-0.000170692 -0.00461845 0)
(0.000482936 -0.00353458 0)
(0.000934466 -0.00247843 0)
(0.00120343 -0.00146006 0)
(0.00130858 -0.000497168 0)
(0.00126908 0.000377097 0)
(0.00110737 0.00110749 0)
(0.000853532 0.00161412 0)
(0.000545742 0.0017972 0)
(0.000257145 0.0015477 0)
(3.46916e-05 0.000755299 0)
(-0.000138431 0.00267474 0)
(-0.00114495 0.00664154 0)
(-0.00266846 0.00940074 0)
(-0.00459431 0.0111846 0)
(-0.00670463 0.0122526 0)
(-0.00891885 0.0128336 0)
(-0.0111769 0.0131035 0)
(-0.0134438 0.0131823 0)
(-0.015698 0.0131439 0)
(-0.0179246 0.0130277 0)
(-0.0201114 0.012851 0)
(-0.0222464 0.0126174 0)
(-0.0243175 0.0123231 0)
(-0.0263113 0.0119603 0)
(-0.0282138 0.0115199 0)
(-0.0300101 0.0109926 0)
(-0.0316846 0.0103702 0)
(-0.0332218 0.00964639 0)
(-0.034607 0.0088176 0)
(-0.0358264 0.0078834 0)
(-0.0368692 0.00684714 0)
(-0.0377279 0.00571609 0)
(-0.0383995 0.00450126 0)
(-0.0388866 0.00321666 0)
(-0.0391966 0.00187811 0)
(-0.039341 0.000501667 0)
(-0.0393328 -0.000897881 0)
(-0.0391836 -0.00230809 0)
(-0.0389 -0.0037192 0)
(-0.0384808 -0.00512345 0)
(-0.0379156 -0.00651347 0)
(-0.037184 -0.00788008 0)
(-0.0362581 -0.00921004 0)
(-0.0351058 -0.0104841 0)
(-0.0336956 -0.0116759 0)
(-0.0320027 -0.0127522 0)
(-0.0300144 -0.0136747 0)
(-0.0277357 -0.0144027 0)
(-0.0251923 -0.0148973 0)
(-0.0224324 -0.0151264 0)
(-0.0195247 -0.0150696 0)
(-0.0165541 -0.0147213 0)
(-0.0136147 -0.0140938 0)
(-0.0108003 -0.0132163 0)
(-0.00819533 -0.0121321 0)
(-0.00586701 -0.010894 0)
(-0.0038596 -0.00955697 0)
(-0.00219301 -0.00817247 0)
(-0.000864904 -0.00678268 0)
(0.000144344 -0.00541792 0)
(0.000865163 -0.00409686 0)
(0.00133248 -0.00282998 0)
(0.00158087 -0.00162612 0)
(0.00164207 -0.000501438 0)
(0.00154539 0.000510586 0)
(0.00132064 0.00135047 0)
(0.00100331 0.00192904 0)
(0.000635469 0.00213222 0)
(0.000297686 0.0018322 0)
(4.00668e-05 0.000895457 0)
(-0.000147213 0.00324518 0)
(-0.00121313 0.00797289 0)
(-0.00282045 0.0112058 0)
(-0.00484719 0.0132651 0)
(-0.00706286 0.0144805 0)
(-0.00938365 0.0151306 0)
(-0.0117474 0.0154235 0)
(-0.0141185 0.0154982 0)
(-0.016475 0.0154379 0)
(-0.0188022 0.0152866 0)
(-0.0210875 0.0150628 0)
(-0.023319 0.01477 0)
(-0.025484 0.0144036 0)
(-0.0275691 0.0139548 0)
(-0.0295597 0.0134135 0)
(-0.0314404 0.01277 0)
(-0.0331956 0.0120157 0)
(-0.0348097 0.0111448 0)
(-0.0362687 0.0101551 0)
(-0.0375608 0.00904861 0)
(-0.0386788 0.00783281 0)
(-0.0396221 0.00652038 0)
(-0.0403978 0.00512887 0)
(-0.041022 0.00367895 0)
(-0.0415185 0.0021919 0)
(-0.0419156 0.000686439 0)
(-0.0422407 -0.000824136 0)
(-0.0425144 -0.00233348 0)
(-0.0427437 -0.0038425 0)
(-0.0429176 -0.0053566 0)
(-0.0430046 -0.00688318 0)
(-0.0429531 -0.00842613 0)
(-0.0426959 -0.0099814 0)
(-0.042156 -0.0115332 0)
(-0.0412558 -0.0130514 0)
(-0.0399265 -0.0144914 0)
(-0.0381184 -0.0157957 0)
(-0.03581 -0.0168984 0)
(-0.0330148 -0.0177318 0)
(-0.029785 -0.0182344 0)
(-0.0262111 -0.0183591 0)
(-0.0224164 -0.0180811 0)
(-0.0185472 -0.0174034 0)
(-0.0147584 -0.016358 0)
(-0.0111971 -0.0150036 0)
(-0.00798703 -0.013418 0)
(-0.005216 -0.0116873 0)
(-0.00293007 -0.00989454 0)
(-0.00113458 -0.00810944 0)
(0.00019851 -0.00638216 0)
(0.00111935 -0.00474234 0)
(0.00168834 -0.00320344 0)
(0.00196626 -0.00177173 0)
(0.00200823 -0.000458587 0)
(0.0018623 0.000705936 0)
(0.00157212 0.00166148 0)
(0.00118314 0.00231175 0)
(0.00074449 0.00252889 0)
(0.000347316 0.00216477 0)
(4.66569e-05 0.00105829 0)
(-0.000154916 0.00384722 0)
(-0.00127279 0.00937284 0)
(-0.00295329 0.0130989 0)
(-0.00506823 0.0154424 0)
(-0.00737637 0.016808 0)
(-0.00979135 0.0175275 0)
(-0.0122494 0.0178428 0)
(-0.0147147 0.0179123 0)
(-0.0171653 0.0178292 0)
(-0.0195866 0.0176419 0)
(-0.0219663 0.0173701 0)
(-0.0242923 0.0170171 0)
(-0.0265522 0.0165772 0)
(-0.0287322 0.0160409 0)
(-0.0308176 0.0153971 0)
(-0.0327931 0.0146353 0)
(-0.0346429 0.0137472 0)
(-0.0363523 0.012728 0)
(-0.0379092 0.0115781 0)
(-0.0393068 0.0103045 0)
(-0.0405465 0.00892199 0)
(-0.0416418 0.00745321 0)
(-0.0426207 0.00592693 0)
(-0.0435252 0.00437442 0)
(-0.0444083 0.00282393 0)
(-0.0453256 0.00129481 0)
(-0.0463256 -0.000207298 0)
(-0.0474376 -0.00169272 0)
(-0.0486619 -0.00318542 0)
(-0.049964 -0.00471693 0)
(-0.0512728 -0.00632387 0)
(-0.0524818 -0.00803371 0)
(-0.0534591 -0.00985928 0)
(-0.0540572 -0.0117921 0)
(-0.0541271 -0.0137974 0)
(-0.0535328 -0.0158131 0)
(-0.0521674 -0.0177525 0)
(-0.049966 -0.01951 0)
(-0.0469174 -0.020971 0)
(-0.0430712 -0.0220238 0)
(-0.0385398 -0.0225732 0)
(-0.0334942 -0.0225549 0)
(-0.0281524 -0.0219461 0)
(-0.0227608 -0.0207723 0)
(-0.0175683 -0.019107 0)
(-0.0127992 -0.017063 0)
(-0.00862769 -0.0147759 0)
(-0.00516033 -0.012384 0)
(-0.00243159 -0.0100083 0)
(-0.000411982 -0.00773876 0)
(0.00097403 -0.00562883 0)
(0.0018264 -0.00370046 0)
(0.00224994 -0.00195662 0)
(0.00234089 -0.00039922 0)
(0.00218126 0.000951512 0)
(0.00184032 0.0020404 0)
(0.00138189 0.00276846 0)
(0.000867751 0.00299601 0)
(0.000404325 0.00255368 0)
(5.42945e-05 0.00124804 0)
(-0.000161708 0.00447704 0)
(-0.00132535 0.010833 0)
(-0.00307029 0.0150692 0)
(-0.00526309 0.0177048 0)
(-0.00765337 0.0192238 0)
(-0.0101529 0.0200139 0)
(-0.0126969 0.0203521 0)
(-0.0152495 0.0204171 0)
(-0.017789 0.0203122 0)
(-0.0203014 0.0200901 0)
(-0.0227747 0.0197717 0)
(-0.0251973 0.01936 0)
(-0.0275567 0.0188485 0)
(-0.0298396 0.0182264 0)
(-0.0320313 0.0174816 0)
(-0.0341165 0.0166033 0)
(-0.0360804 0.0155839 0)
(-0.0379106 0.014421 0)
(-0.0396003 0.0131207 0)
(-0.0411531 0.0116996 0)
(-0.0425892 0.0101863 0)
(-0.04395 0.00862144 0)
(-0.0453013 0.00705238 0)
(-0.0467299 0.00552552 0)
(-0.0483337 0.00407552 0)
(-0.0502064 0.00271514 0)
(-0.0524186 0.00142883 0)
(-0.055 0.000172152 0)
(-0.0579251 -0.00112244 0)
(-0.0611129 -0.00253768 0)
(-0.0644238 -0.00415106 0)
(-0.067665 -0.00602805 0)
(-0.0706112 -0.00820614 0)
(-0.0730177 -0.0106864 0)
(-0.0746405 -0.0134271 0)
(-0.0752568 -0.0163401 0)
(-0.0746854 -0.0192959 0)
(-0.0728034 -0.022132 0)
(-0.0695604 -0.0246654 0)
(-0.0649899 -0.026709 0)
(-0.0592155 -0.0280915 0)
(-0.0524511 -0.0286782 0)
(-0.0449928 -0.0283918 0)
(-0.0371997 -0.0272277 0)
(-0.0294629 -0.0252621 0)
(-0.0221638 -0.0226459 0)
(-0.0156285 -0.0195847 0)
(-0.010088 -0.0163063 0)
(-0.00565527 -0.0130242 0)
(-0.00232647 -0.00990617 0)
(-4.16102e-06 -0.00705803 0)
(0.00146598 -0.00452507 0)
(0.0022579 -0.00230974 0)
(0.0025367 -0.00039863 0)
(0.00244366 0.00120788 0)
(0.00209384 0.00247034 0)
(0.00158407 0.00329555 0)
(0.000998721 0.00353692 0)
(0.000466723 0.0030045 0)
(6.2812e-05 0.0014682 0)
(-0.00016771 0.00513139 0)
(-0.00137184 0.0123463 0)
(-0.00317393 0.0171079 0)
(-0.00543607 0.020043 0)
(-0.00790018 0.0217191 0)
(-0.0104767 0.022582 0)
(-0.0131004 0.0229451 0)
(-0.0157357 0.0230079 0)
(-0.0183616 0.0228841 0)
(-0.0209646 0.0226307 0)
(-0.0235335 0.0222698 0)
(-0.0260574 0.0218039 0)
(-0.0285243 0.0212254 0)
(-0.0309212 0.0205224 0)
(-0.0332339 0.019682 0)
(-0.0354482 0.0186934 0)
(-0.0375516 0.0175512 0)
(-0.0395372 0.0162588 0)
(-0.04141 0.0148335 0)
(-0.0431954 0.0133104 0)
(-0.0449485 0.0117438 0)
(-0.046761 0.0102041 0)
(-0.0487607 0.00876653 0)
(-0.0511007 0.00749486 0)
(-0.0539379 0.00642248 0)
(-0.0574045 0.00553792 0)
(-0.0615805 0.00477929 0)
(-0.0664709 0.00403919 0)
(-0.0719969 0.00317778 0)
(-0.0779884 0.00204117 0)
(-0.0841983 0.000488721 0)
(-0.0903201 -0.00159414 0)
(-0.0960086 -0.00427238 0)
(-0.100906 -0.0075519 0)
(-0.104666 -0.0113763 0)
(-0.106975 -0.01562 0)
(-0.107578 -0.0200966 0)
(-0.106291 -0.0245701 0)
(-0.103015 -0.0287712 0)
(-0.0977493 -0.0324156 0)
(-0.0905999 -0.0352275 0)
(-0.0817923 -0.0369669 0)
(-0.0716726 -0.0374598 0)
(-0.0607001 -0.036628 0)
(-0.0494212 -0.0345128 0)
(-0.0384218 -0.0312833 0)
(-0.02826 -0.0272216 0)
(-0.0193911 -0.0226825 0)
(-0.0121037 -0.0180316 0)
(-0.00649078 -0.0135822 0)
(-0.0024662 -0.00954993 0)
(0.000182551 -0.0060403 0)
(0.0017272 -0.00306888 0)
(0.00244104 -0.000602724 0)
(0.0025635 0.00139195 0)
(0.00228799 0.00290862 0)
(0.00176868 0.00387488 0)
(0.00112912 0.00414735 0)
(0.000532262 0.00351942 0)
(7.20565e-05 0.00172145 0)
(-0.000172995 0.00580742 0)
(-0.00141294 0.0139067 0)
(-0.00326581 0.0192074 0)
(-0.00559006 0.0224492 0)
(-0.00812113 0.0242866 0)
(-0.0107688 0.0252255 0)
(-0.0134675 0.0256172 0)
(-0.0161825 0.025682 0)
(-0.0188937 0.0255443 0)
(-0.0215886 0.0252655 0)
(-0.0242571 0.0248687 0)
(-0.026889 0.024356 0)
(-0.0294734 0.0237187 0)
(-0.0319979 0.0229434 0)
(-0.0344496 0.0220171 0)
(-0.0368166 0.0209303 0)
(-0.0390919 0.0196829 0)
(-0.0412807 0.0182907 0)
(-0.0434113 0.0167929 0)
(-0.0455491 0.0152582 0)
(-0.0478099 0.0137843 0)
(-0.0503646 0.0124865 0)
(-0.0534301 0.0114745 0)
(-0.057242 0.0108224 0)
(-0.0620152 0.0105403 0)
(-0.0679012 0.0105589 0)
(-0.0749534 0.0107306 0)
(-0.0831066 0.0108465 0)
(-0.0921736 0.0106631 0)
(-0.101854 0.00993599 0)
(-0.111759 0.00844599 0)
(-0.121439 0.00603091 0)
(-0.130423 0.00260409 0)
(-0.138252 -0.00182946 0)
(-0.144506 -0.0071724 0)
(-0.148812 -0.0132547 0)
(-0.150872 -0.0198191 0)
(-0.150466 -0.0265491 0)
(-0.147449 -0.0330847 0)
(-0.141767 -0.0390391 0)
(-0.133466 -0.0440197 0)
(-0.122718 -0.0476549 0)
(-0.10984 -0.0496303 0)
(-0.0953114 -0.0497319 0)
(-0.0797804 -0.0478933 0)
(-0.0640273 -0.0442341 0)
(-0.0488965 -0.039074 0)
(-0.0351845 -0.0329031 0)
(-0.0235122 -0.0263032 0)
(-0.0142212 -0.0198349 0)
(-0.00734027 -0.0139315 0)
(-0.00263641 -0.0088408 0)
(0.000277688 -0.00463355 0)
(0.00183168 -0.0012631 0)
(0.002419 0.00135545 0)
(0.00236115 0.00327447 0)
(0.00190792 0.0044674 0)
(0.00124869 0.00481259 0)
(0.000598513 0.00409637 0)
(8.19177e-05 0.00200969 0)
(-0.00017758 0.00650251 0)
(-0.00144888 0.0155088 0)
(-0.00334669 0.0213612 0)
(-0.00572653 0.0249168 0)
(-0.00831855 0.0269204 0)
(-0.0110322 0.0279399 0)
(-0.0138023 0.028365 0)
(-0.0165951 0.0284378 0)
(-0.0193916 0.0282934 0)
(-0.0221808 0.0279976 0)
(-0.0249537 0.0275744 0)
(-0.0277016 0.0270254 0)
(-0.0304146 0.0263407 0)
(-0.033082 0.0255061 0)
(-0.0356934 0.0245091 0)
(-0.0382418 0.0233447 0)
(-0.0407317 0.0220246 0)
(-0.0431911 0.0205883 0)
(-0.0456902 0.0191153 0)
(-0.0483617 0.0177307 0)
(-0.0514149 0.0165979 0)
(-0.0551309 0.0158902 0)
(-0.0598338 0.0157468 0)
(-0.0658376 0.0162254 0)
(-0.0733855 0.0172691 0)
(-0.0825966 0.0186982 0)
(-0.0934332 0.020229 0)
(-0.105692 0.02151 0)
(-0.119015 0.0221667 0)
(-0.132922 0.0218482 0)
(-0.146857 0.0202679 0)
(-0.160233 0.0172363 0)
(-0.172484 0.0126776 0)
(-0.183103 0.00664089 0)
(-0.191677 -0.000707497 0)
(-0.197863 -0.00911974 0)
(-0.201384 -0.0182768 0)
(-0.202038 -0.0277872 0)
(-0.199667 -0.0372279 0)
(-0.194156 -0.0461322 0)
(-0.185449 -0.0540131 0)
(-0.173573 -0.0603712 0)
(-0.158691 -0.0647293 0)
(-0.141151 -0.0666787 0)
(-0.121539 -0.0659476 0)
(-0.100701 -0.06248 0)
(-0.0797112 -0.056507 0)
(-0.059767 -0.0485741 0)
(-0.041999 -0.0394875 0)
(-0.0272496 -0.0301654 0)
(-0.0159019 -0.0214311 0)
(-0.00784999 -0.0138423 0)
(-0.00262641 -0.00763376 0)
(0.000397308 -0.00278357 0)
(0.00184207 0.000856371 0)
(0.00223031 0.00343305 0)
(0.00196578 0.00500514 0)
(0.00134503 0.00550414 0)
(0.000663035 0.00472818 0)
(9.23726e-05 0.00233417 0)
(-0.000181434 0.00721401 0)
(-0.00147955 0.0171473 0)
(-0.00341651 0.023563 0)
(-0.00584562 0.0274397 0)
(-0.00849286 0.0296151 0)
(-0.0112679 0.0307208 0)
(-0.0141061 0.031186 0)
(-0.0169749 0.0312747 0)
(-0.019857 0.0311329 0)
(-0.022743 0.0308308 0)
(-0.0256256 0.0303935 0)
(-0.0284977 0.029822 0)
(-0.0313513 0.0291053 0)
(-0.0341784 0.0282293 0)
(-0.036973 0.0271844 0)
(-0.0397383 0.0259758 0)
(-0.0424994 0.0246383 0)
(-0.0453242 0.023255 0)
(-0.0483518 0.0219724 0)
(-0.0518163 0.021002 0)
(-0.056054 0.0205936 0)
(-0.0614765 0.020978 0)
(-0.0685068 0.0222941 0)
(-0.0774965 0.0245278 0)
(-0.088647 0.0274859 0)
(-0.101958 0.0308109 0)
(-0.11721 0.0340282 0)
(-0.133978 0.0366083 0)
(-0.151671 0.0380344 0)
(-0.169597 0.0378644 0)
(-0.187032 0.0357825 0)
(-0.203308 0.0316316 0)
(-0.217861 0.0254165 0)
(-0.230255 0.0172848 0)
(-0.240196 0.00749913 0)
(-0.247501 -0.00359441 0)
(-0.252023 -0.0156063 0)
(-0.253652 -0.0281301 0)
(-0.25227 -0.0407227 0)
(-0.247723 -0.0529071 0)
(-0.239832 -0.0641617 0)
(-0.228417 -0.073915 0)
(-0.21336 -0.0815541 0)
(-0.194681 -0.0864596 0)
(-0.172655 -0.0880745 0)
(-0.147909 -0.0860149 0)
(-0.121496 -0.0802088 0)
(-0.0948685 -0.0710289 0)
(-0.0697189 -0.05935 0)
(-0.0476612 -0.0464542 0)
(-0.02984 -0.0337472 0)
(-0.0166493 -0.0223867 0)
(-0.00773921 -0.0130218 0)
(-0.00229896 -0.00578431 0)
(0.00060011 -0.000480188 0)
(0.00178329 0.00317378 0)
(0.00189544 0.00538057 0)
(0.00140311 0.00617543 0)
(0.000723461 0.00540159 0)
(0.000103525 0.00269577 0)
(-0.000184475 0.00793911 0)
(-0.00150446 0.0188168 0)
(-0.00347441 0.0258065 0)
(-0.00594617 0.0300117 0)
(-0.00864275 0.0323654 0)
(-0.0114742 0.0335643 0)
(-0.014377 0.0340776 0)
(-0.0173199 0.0341918 0)
(-0.0202876 0.034064 0)
(-0.0232725 0.0337688 0)
(-0.0262695 0.0333325 0)
(-0.0292737 0.0327556 0)
(-0.03228 0.0320268 0)
(-0.0352844 0.0311336 0)
(-0.0382894 0.0300741 0)
(-0.0413156 0.0288738 0)
(-0.044423 0.0276095 0)
(-0.0477438 0.0264367 0)
(-0.0515183 0.0256047 0)
(-0.0561173 0.0254416 0)
(-0.0620256 0.0262905 0)
(-0.069775 0.0284097 0)
(-0.0798366 0.0318712 0)
(-0.0925109 0.0365002 0)
(-0.107848 0.0418783 0)
(-0.125613 0.0473977 0)
(-0.145301 0.0523465 0)
(-0.166181 0.0560033 0)
(-0.187387 0.0577309 0)
(-0.208021 0.0570571 0)
(-0.227277 0.0537305 0)
(-0.244532 0.0477334 0)
(-0.259386 0.0392484 0)
(-0.271643 0.0285923 0)
(-0.281265 0.0161552 0)
(-0.288304 0.00236014 0)
(-0.292862 -0.0123755 0)
(-0.294997 -0.0276713 0)
(-0.294681 -0.0431442 0)
(-0.291777 -0.0583938 0)
(-0.286024 -0.0729645 0)
(-0.277044 -0.0863163 0)
(-0.264391 -0.0977957 0)
(-0.247632 -0.106636 0)
(-0.226489 -0.111997 0)
(-0.201015 -0.113068 0)
(-0.171792 -0.109249 0)
(-0.14008 -0.100393 0)
(-0.107826 -0.0870484 0)
(-0.0774241 -0.0705748 0)
(-0.0511827 -0.0529679 0)
(-0.030643 -0.0363268 0)
(-0.0161296 -0.0221913 0)
(-0.00688386 -0.0111945 0)
(-0.00163871 -0.00322058 0)
(0.000862514 0.00217918 0)
(0.00163272 0.00543146 0)
(0.00140305 0.00675568 0)
(0.000777024 0.00609579 0)
(0.00011557 0.00309526 0)
(-0.000186576 0.00867466 0)
(-0.00152279 0.0205111 0)
(-0.00351885 0.0280848 0)
(-0.00602595 0.0326263 0)
(-0.00876526 0.0351657 0)
(-0.0116477 0.0364657 0)
(-0.0146107 0.0370367 0)
(-0.017625 0.0371877 0)
(-0.0206772 0.0370872 0)
(-0.0237621 0.0368145 0)
(-0.0268771 0.0363972 0)
(-0.0300203 0.0358357 0)
(-0.0331905 0.0351197 0)
(-0.0363908 0.0342418 0)
(-0.0396373 0.0332156 0)
(-0.0429788 0.0321035 0)
(-0.04653 0.0310522 0)
(-0.0505161 0.0303282 0)
(-0.0553128 0.0303224 0)
(-0.0614499 0.0314968 0)
(-0.0695519 0.0342635 0)
(-0.0802134 0.0388337 0)
(-0.0938512 0.0451034 0)
(-0.110585 0.0526239 0)
(-0.130177 0.0606568 0)