/*--------------------------------*- C++ -*----------------------------------*\
| =========                 |                                                 |
| \\      /  F ield         | OpenFOAM: The Open Source CFD Toolbox           |
|  \\    /   O peration     | Version:  2406                                  |
|   \\  /    A nd           | Website:  www.openfoam.com                      |
|    \\/     M anipulation  |                                                 |
\*---------------------------------------------------------------------------*/
FoamFile
{
    version     2.0;
    format      ascii;
    arch        "LSB;label=32;scalar=64";
    class       surfaceScalarField;
    location    "36.4";
    object      phi;
}
// * * * * * * * * * * * * * * * * * * * * * * * * * * * * * * * * * * * * * //

dimensions      [0 3 -1 0 0 0 0];

oriented        oriented;

internalField   nonuniform List<scalar> 
7080
(
3.01255e-07
-3.0037e-07
1.42598e-06
-1.15612e-06
2.99337e-06
-1.56614e-06
4.56642e-06
-1.59821e-06
5.88833e-06
-1.32554e-06
6.81788e-06
-9.44236e-07
7.38373e-06
-5.66918e-07
7.65582e-06
-2.76762e-07
7.73636e-06
-7.71793e-08
7.67366e-06
6.58217e-08
7.46901e-06
2.13497e-07
7.05879e-06
4.21751e-07
6.34445e-06
7.32266e-07
5.1996e-06
1.16876e-06
3.48819e-06
1.74391e-06
1.06765e-06
2.46212e-06
-2.20017e-06
3.31982e-06
-6.44262e-06
4.30477e-06
-1.1766e-05
5.39698e-06
-1.82436e-05
6.56428e-06
-2.58932e-05
7.7511e-06
-3.46481e-05
8.87049e-06
-4.43307e-05
9.80752e-06
-5.46347e-05
1.04304e-05
-6.51226e-05
1.06065e-05
-7.52427e-05
1.02229e-05
-8.43696e-05
9.2071e-06
-9.1856e-05
7.53997e-06
-9.70889e-05
5.25752e-06
-9.95388e-05
2.44508e-06
-9.88011e-05
-7.71313e-07
-9.46293e-05
-4.23253e-06
-8.6962e-05
-7.75243e-06
-7.59455e-05
-1.11231e-05
-6.19479e-05
-1.41219e-05
-4.5564e-05
-1.65223e-05
-2.76012e-05
-1.81107e-05
-9.04437e-06
-1.871e-05
9.01029e-06
-1.82075e-05
2.54476e-05
-1.65843e-05
3.92509e-05
-1.39376e-05
4.96246e-05
-1.04894e-05
5.61061e-05
-6.5714e-06
5.86328e-05
-2.58697e-06
5.75529e-05
1.05327e-06
5.35567e-05
4.00137e-06
4.75494e-05
6.04229e-06
4.04807e-05
7.12423e-06
3.31932e-05
7.35764e-06
2.63106e-05
6.9545e-06
2.02151e-05
6.16724e-06
1.50633e-05
5.21217e-06
1.08649e-05
4.2551e-06
7.52045e-06
3.38448e-06
4.9043e-06
2.65735e-06
2.86918e-06
2.05583e-06
1.33762e-06
1.56223e-06
3.04993e-07
1.03674e-06
-1.46742e-07
4.75858e-07
-1.47116e-07
1.10887e-06
-1.37804e-06
3.58736e-06
-3.63657e-06
6.72009e-06
-4.65374e-06
9.74289e-06
-4.60872e-06
1.22122e-05
-3.76229e-06
1.3838e-05
-2.55987e-06
1.4604e-05
-1.31781e-06
1.45598e-05
-2.31988e-07
1.38025e-05
6.80236e-07
1.2334e-05
1.52463e-06
1.00626e-05
2.47105e-06
6.77555e-06
3.68514e-06
2.18722e-06
5.28761e-06
-4.03832e-06
7.34751e-06
-1.22437e-05
9.88717e-06
-2.27493e-05
1.28873e-05
-3.58101e-05
1.62817e-05
-5.1564e-05
1.99422e-05
-6.99569e-05
2.36563e-05
-9.06716e-05
2.71251e-05
-0.000113097
2.99981e-05
-0.000136363
3.19335e-05
-0.00015943
3.26553e-05
-0.000181211
3.19885e-05
-0.00020068
2.98653e-05
-0.00021695
2.63122e-05
-0.000229314
2.14303e-05
-0.000237242
1.53774e-05
-0.000240376
8.35326e-06
-0.000238503
5.90819e-07
-0.000231554
-7.64787e-06
-0.000219591
-1.60708e-05
-0.000202819
-2.43535e-05
-0.000181593
-3.21366e-05
-0.00015644
-3.90299e-05
-0.000128067
-4.46244e-05
-9.73738e-05
-4.85178e-05
-6.54378e-05
-5.03536e-05
-3.34842e-05
-4.9873e-05
-2.82607e-06
-4.69701e-05
2.52236e-05
-4.17422e-05
4.9455e-05
-3.45152e-05
6.88749e-05
-2.58353e-05
8.28038e-05
-1.64184e-05
9.09559e-05
-7.06202e-06
9.34757e-05
1.45849e-06
9.09432e-05
8.50247e-06
8.43124e-05
1.36444e-05
7.48025e-05
1.67384e-05
6.37101e-05
1.79102e-05
5.2231e-05
1.75201e-05
4.12829e-05
1.60434e-05
3.14644e-05
1.39798e-05
2.30334e-05
1.17297e-05
1.60397e-05
9.59228e-06
1.03615e-05
7.67295e-06
5.91216e-06
5.98433e-06
2.62369e-06
4.28016e-06
6.21753e-07
2.47918e-06
4.50591e-07
1.58879e-06
-2.96457e-06
4.82231e-06
-6.9175e-06
8.68701e-06
-8.51553e-06
1.21708e-05
-8.12844e-06
1.47461e-05
-6.34435e-06
1.60478e-05
-3.88217e-06
1.60201e-05
-1.2934e-06
1.46449e-05
1.1367e-06
1.19229e-05
3.40614e-06
7.71338e-06
5.73927e-06
1.74765e-06
8.44996e-06
-6.38225e-06
1.18335e-05
-1.71484e-05
1.60822e-05
-3.10362e-05
2.12741e-05
-4.84605e-05
2.73648e-05
-6.96757e-05
3.4172e-05
-9.4643e-05
4.13357e-05
-0.000122916
4.83155e-05
-0.000153606
5.4458e-05
-0.000185483
5.91253e-05
-0.000217168
6.18201e-05
-0.000247337
6.22545e-05
-0.000274869
6.03487e-05
-0.000298902
5.61846e-05
-0.000318833
4.99471e-05
-0.000334266
4.18743e-05
-0.000344964
3.22262e-05
-0.000350793
2.12685e-05
-0.000351688
9.2708e-06
-0.000347629
-3.48826e-06
-0.000338629
-1.67092e-05
-0.000324745
-3.00573e-05
-0.00030609
-4.31475e-05
-0.000282865
-5.55328e-05
-0.000255391
-6.67017e-05
-0.000224146
-7.60879e-05
-0.000189793
-8.31012e-05
-0.000153202
-8.71793e-05
-0.000115442
-8.7863e-05
-7.77454e-05
-8.48822e-05
-4.14378e-05
-7.82408e-05
-7.8412e-06
-6.82699e-05
2.18393e-05
-5.56332e-05
4.6612e-05
-4.12645e-05
6.57771e-05
-2.62545e-05
7.89614e-05
-1.1712e-05
8.61502e-05
1.36404e-06
8.7695e-05
1.2174e-05
8.43294e-05
2.01959e-05
7.71091e-05
2.52245e-05
6.73126e-05
2.74115e-05
5.62262e-05
2.72117e-05
4.49863e-05
2.52981e-05
3.43941e-05
2.23793e-05
2.49577e-05
1.90888e-05
1.68506e-05
1.58104e-05
1.01854e-05
1.26981e-05
4.95151e-06
9.51433e-06
1.45219e-06
6.02522e-06
1.89808e-06
1.86314e-06
-4.79987e-06
5.39741e-06
-1.04732e-05
9.31007e-06
-1.23898e-05
1.24184e-05
-1.12407e-05
1.41686e-05
-8.07162e-06
1.41746e-05
-3.88708e-06
1.23422e-05
5.4921e-07
8.54291e-06
4.9342e-06
2.59997e-06
9.34897e-06
-5.85533e-06
1.41869e-05
-1.73264e-05
1.99112e-05
-3.24129e-05
2.69033e-05
-5.16794e-05
3.53266e-05
-7.55321e-05
4.50967e-05
-0.00010404
5.58337e-05
-0.000136771
6.6853e-05
-0.000172724
7.72242e-05
-0.000210445
8.59611e-05
-0.000248313
9.22415e-05
-0.000284835
9.55546e-05
-0.000318832
9.57172e-05
-0.000349489
9.2805e-05
-0.000376302
8.70534e-05
-0.000398993
7.87734e-05
-0.00041743
6.82941e-05
-0.000431559
5.59316e-05
-0.000441359
4.19771e-05
-0.000446814
2.66988e-05
-0.000447894
1.03513e-05
-0.000444548
-6.80742e-06
-0.000436708
-2.44967e-05
-0.000424297
-4.23893e-05
-0.000407255
-6.00884e-05
-0.000385559
-7.71053e-05
-0.000359274
-9.28473e-05
-0.000328589
-0.000106618
-0.000293883
-0.000117646
-0.000255762
-0.000125136
-0.000215099
-0.000128365
-0.00017303
-0.000126799
-0.000130907
-0.000120227
-9.01935e-05
-0.000108867
-5.23205e-05
-9.34146e-05
-1.85333e-05
-7.49883e-05
1.02282e-05
-5.49804e-05
3.3365e-05
-3.48423e-05
5.06037e-05
-1.58919e-05
6.1939e-05
7.99128e-07
6.76353e-05
1.44477e-05
6.82329e-05
2.45637e-05
6.45868e-05
3.09969e-05
5.77778e-05
3.39569e-05
4.90186e-05
3.40078e-05
3.94072e-05
3.19374e-05
2.98728e-05
2.85938e-05
2.09858e-05
2.46526e-05
1.3204e-05
2.04752e-05
6.72425e-06
1.59462e-05
2.11982e-06
1.06545e-05
3.98705e-06
1.9672e-06
-6.75602e-06
5.41083e-06
-1.3959e-05
8.78908e-06
-1.57517e-05
1.08046e-05
-1.32813e-05
1.09062e-05
-8.16982e-06
8.71083e-06
-1.70414e-06
4.06739e-06
5.19404e-06
-3.30489e-06
1.23031e-05
-1.38139e-05
1.98621e-05
-2.80758e-05
2.84531e-05
-4.67735e-05
3.8619e-05
-7.05202e-05
5.06637e-05
-9.96294e-05
6.44561e-05
-0.000133903
7.93957e-05
-0.000172467
9.44299e-05
-0.000213832
0.000108256
-0.000256184
0.000119622
-0.000297792
0.000127621
-0.000337284
0.000131792
-0.000373735
0.000132069
-0.000406607
0.000128656
-0.000435632
0.0001219
-0.000460717
0.000112205
-0.000481861
9.99764e-05
-0.000499108
8.55876e-05
-0.000512517
6.93709e-05
-0.00052214
5.16123e-05
-0.000528007
3.256e-05
-0.000530115
1.24362e-05
-0.00052842
-8.54356e-06
-0.000522826
-3.01477e-05
-0.000513188
-5.20996e-05
-0.000499315
-7.40465e-05
-0.000480989
-9.55263e-05
-0.000458001
-0.000115939
-0.000430197
-0.000134531
-0.000397556
-0.000150398
-0.000360273
-0.000162529
-0.000318851
-0.000169892
-0.000274173
-0.000171574
-0.000227525
-0.000166963
-0.000180534
-0.000155933
-0.000135014
-0.000138994
-9.27224e-05
-0.000117322
-5.50992e-05
-9.26268e-05
-2.30891e-05
-6.68578e-05
2.8865e-06
-4.18538e-05
2.27902e-05
-1.9078e-05
3.68219e-05
4.56004e-07
4.5316e-05
1.61117e-05
4.87924e-05
2.75686e-05
4.79714e-05
3.4817e-05
4.38193e-05
3.82034e-05
3.73788e-05
3.84039e-05
2.97261e-05
3.62844e-05
2.16978e-05
3.26887e-05
1.40757e-05
2.81365e-05
7.33987e-06
2.26631e-05
2.35915e-06
1.5688e-05
6.3319e-06
1.93431e-06
-8.66925e-06
4.8698e-06
-1.69191e-05
7.08312e-06
-1.79372e-05
7.26122e-06
-1.34677e-05
4.89089e-06
-5.78585e-06
-4.01842e-07
3.58642e-06
-8.87181e-06
1.36689e-05
-2.10004e-05
2.4429e-05
-3.744e-05
3.63004e-05
-5.89635e-05
4.99711e-05
-8.61903e-05
6.58394e-05
-0.000119323
8.37867e-05
-0.000157877
0.000102996
-0.000200592
0.000122092
-0.000245616
0.00013943
-0.000290939
0.000153551
-0.000334829
0.000163479
-0.000376042
0.000168798
-0.00041382
0.00016953
-0.000447771
0.000165979
-0.000477751
0.000158591
-0.000503766
0.00014787
-0.000525916
0.000134313
-0.000544359
0.000118383
-0.000559281
0.000100482
-0.00057088
8.09521e-05
-0.000579339
6.00658e-05
-0.000584813
3.80401e-05
-0.000587405
1.50466e-05
-0.000587153
-8.76771e-06
-0.000584007
-3.32563e-05
-0.000577819
-5.82416e-05
-0.000568333
-8.34797e-05
-0.000555183
-0.000108618
-0.000537909
-0.000133151
-0.000515992
-0.000156382
-0.000488927
-0.000177396
-0.000456322
-0.000195065
-0.000418045
-0.000208101
-0.000374378
-0.000215175
-0.000326162
-0.000215117
-0.000274873
-0.000207167
-0.000222565
-0.000191256
-0.000171645
-0.00016821
-0.00012447
-0.000139783
-8.29072e-05
-0.000108417
-4.8005e-05
-7.67632e-05
-1.99946e-05
-4.7107e-05
1.45262e-06
-2.10134e-05
1.68608e-05
6.74188e-07
2.6796e-05
1.76084e-05
3.18404e-05
2.97415e-05
3.27294e-05
3.72946e-05
3.03115e-05
4.07921e-05
2.5599e-05
4.0988e-05
1.9516e-05
3.8741e-05
1.30449e-05
3.46158e-05
6.92088e-06
2.87451e-05
2.23393e-06
2.04077e-05
8.53743e-06
1.70501e-06
-1.03659e-05
3.64995e-06
-1.88898e-05
4.04257e-06
-1.83181e-05
1.66478e-06
-1.11021e-05
-3.94306e-06
-1.75238e-07
-1.31652e-05
1.28042e-05
-2.64117e-05
2.69168e-05
-4.43616e-05
4.23792e-05
-6.77994e-05
5.97417e-05
-9.73702e-05
7.95466e-05
-0.00013319
0.000101666
-0.000174568
0.000125173
-0.00021996
0.000148399
-0.000267269
0.000169412
-0.000314353
0.000186529
-0.000359468
0.000198683
-0.000401422
0.000205452
-0.000439518
0.000206913
-0.000473418
0.00020345
-0.000503032
0.000195613
-0.000528441
0.000184019
-0.00054985
0.000169295
-0.000567547
0.000152023
-0.000581874
0.000132717
-0.000593193
0.000111803
-0.000601861
8.96142e-05
-0.0006082
6.63927e-05
-0.000612485
4.23055e-05
-0.000614922
1.74578e-05
-0.000615638
-8.08481e-06
-0.00061466
-3.42737e-05
-0.000611898
-6.10483e-05
-0.000607125
-8.83033e-05
-0.000599951
-0.000115847
-0.00058981
-0.00014335
-0.000575959
-0.000170295
-0.000557507
-0.000195911
-0.000533495
-0.00021914
-0.000503037
-0.000238621
-0.000465521
-0.000252748
-0.000420869
-0.000259818
-0.000369789
-0.000258286
-0.000313945
-0.000247127
-0.000255942
-0.000226229
-0.000199019
-0.000196713
-0.000146444
-0.000160994
-0.000100764
-0.000122438
-6.32647e-05
-8.45976e-05
-3.39372e-05
-5.03258e-05
-1.19853e-05
-2.12634e-05
3.60038e-06
2.04396e-06
1.36956e-05
1.96608e-05
1.90939e-05
3.19192e-05
2.05603e-05
3.93345e-05
1.90015e-05
4.25703e-05
1.53242e-05
4.24165e-05
1.05821e-05
3.93866e-05
5.67978e-06
3.36269e-05
1.8082e-06
2.43211e-05
1.0332e-05
1.20872e-06
-1.15683e-05
1.59863e-06
-1.92857e-05
-5.17247e-07
-1.61954e-05
-6.14124e-06
-5.47737e-06
-1.56895e-05
9.37411e-06
-2.95838e-05
2.66997e-05
-4.84058e-05
4.57371e-05
-7.2923e-05
6.68958e-05
-0.00010378
9.05956e-05
-0.000141073
0.000116837
-0.000184009
0.000144597
-0.000230879
0.000172037
-0.000279411
0.000196922
-0.000327337
0.00021733
-0.000372842
0.000232023
-0.000414697
0.000240526
-0.000452184
0.000242926
-0.000484966
0.000239683
-0.000512991
0.000231461
-0.000536422
0.000219032
-0.000555591
0.00020318
-0.000570944
0.000184642
-0.000582986
0.000164065
-0.00059224
0.000141977
-0.000599204
0.00011878
-0.000604332
9.47595e-05
-0.000608013
7.0098e-05
-0.000610571
4.4894e-05
-0.00061226
1.91825e-05
-0.00061326
-7.04375e-06
-0.000613672
-3.38167e-05
-0.000613502
-6.11707e-05
-0.000612633
-8.91211e-05
-0.000610796
-0.000117631
-0.000607521
-0.000146574
-0.000602093
-0.000175674
-0.000593522
-0.000204437
-0.000580552
-0.000232071
-0.000561728
-0.000257413
-0.000535562
-0.000278888
-0.000500815
-0.000294546
-0.000456865
-0.000302221
-0.000404124
-0.000299856
-0.000344365
-0.000285978
-0.000280793
-0.000260275
-0.000217684
-0.000224096
-0.000159509
-0.000180612
-0.000109768
-0.000134345
-7.0078e-05
-9.00242e-05
-4.0145e-05
-5.12109e-05
-1.8555e-05
-1.95559e-05
-3.74729e-06
4.83668e-06
5.57689e-06
2.25886e-05
1.04198e-05
3.44747e-05
1.1731e-05
4.12588e-05
1.04216e-05
4.37065e-05
7.55275e-06
4.2265e-05
4.11391e-06
3.70378e-05
1.27981e-06
2.71788e-05
1.15935e-05
3.63343e-07
-1.19392e-05
-1.40352e-06
-1.75088e-05
-6.66791e-06
-1.09426e-05
-1.61174e-05
3.98128e-06
-3.01615e-05
2.3411e-05
-4.92666e-05
4.58118e-05
-7.41165e-05
7.05844e-05
-0.000105325
9.81102e-05
-0.000143031
0.000128303
-0.000186447
0.000160258
-0.000233818
0.00019197
-0.000282756
0.000220979
-0.000330861
0.000245031
-0.000376186
0.000262658
-0.0004174
0.000273241
-0.000453718
0.000276848
-0.000484788
0.000273999
-0.000510599
0.000265498
-0.000531424
0.00025229
-0.000547742
0.000235354
-0.000560166
0.000215606
-0.00056936
0.000193838
-0.00057598
0.000170683
-0.000580623
0.000146616
-0.000583808
0.000121957
-0.000585965
9.69045e-05
-0.00058744
7.1558e-05
-0.00058851
4.59454e-05
-0.000589394
2.00439e-05
-0.000590261
-6.20046e-06
-0.000591243
-3.2862e-05
-0.000592419
-6.00223e-05
-0.000593807
-8.77612e-05
-0.000595326
-0.00011614
-0.000596747
-0.00014518
-0.000597621
-0.000174824
-0.000597204
-0.000204877
-0.000594375
-0.000234921
-0.000587601
-0.000264207
-0.000574974
-0.000291535
-0.00055438
-0.000315163
-0.000523833
-0.000332791
-0.00048199
-0.000341721
-0.000428765
-0.00033922
-0.00036589
-0.00032316
-0.000297156
-0.000292831
-0.000228033
-0.00024973
-0.000164465
-0.000197904
-0.00011112
-0.00014336
-6.99781e-05
-9.23469e-05
-4.02937e-05
-4.923e-05
-1.99188e-05
-1.55347e-05
-6.63985e-06
9.32181e-06
1.24041e-06
2.65953e-05
5.031e-06
3.74822e-05
5.80381e-06
4.29292e-05
4.65751e-06
4.34288e-05
2.62165e-06
3.90604e-05
7.91148e-07
2.90332e-05
1.2377e-05
-8.86253e-07
-1.10726e-05
-5.39614e-06
-1.29618e-05
-1.43492e-05
-2.0196e-06
-2.8052e-05
1.77068e-05
-4.69457e-05
4.22876e-05
-7.14892e-05
7.03659e-05
-0.000102296
0.000101381
-0.000139518
0.000135336
-0.000182513
0.000171292
-0.000229566
0.000207311
-0.000278271
0.000240668
-0.00032608
0.000268785
-0.000370882
0.000289828
-0.00041119
0.000302964
-0.000446127
0.000308174
-0.000475309
0.000306029
-0.000498781
0.00029747
-0.000516932
0.00028365
-0.000530403
0.000265764
-0.000539974
0.000244931
-0.000546462
0.0002221
-0.000550632
0.000198017
-0.000553151
0.000173213
-0.000554561
0.000148039
-0.000555282
0.000122693
-0.000555626
9.72667e-05
-0.000555823
7.17754e-05
-0.000556045
4.61896e-05
-0.000556428
2.04508e-05
-0.000557089
-5.51277e-06
-0.000558141
-3.17819e-05
-0.000559694
-5.84408e-05
-0.000561847
-8.55785e-05
-0.000564673
-0.000113284
-0.000568177
-0.000141646
-0.00057224
-0.00017073
-0.00057653
-0.000200556
-0.000580386
-0.000231035
-0.000582692
-0.000261872
-0.000581777
-0.000292425
-0.000575381
-0.000321537
-0.0005608
-0.000347358
-0.000535248
-0.000367265
-0.000496507
-0.000377961
-0.000443785
-0.000375888
-0.000378591
-0.000358032
-0.000305255
-0.00032307
-0.000230577
-0.000272585
-0.000162224
-0.000211712
-0.000106181
-0.000148394
-6.46493e-05
-9.07631e-05
-3.61959e-05
-4.39976e-05
-1.77724e-05
-9.10226e-06
-6.55003e-06
1.53623e-05
-4.16426e-07
3.13514e-05
2.15421e-06
4.03466e-05
2.43926e-06
4.31508e-05
1.53518e-06
3.9949e-05
4.68525e-07
3.01122e-05
1.28362e-05
-2.54571e-06
-8.56294e-06
-1.02802e-05
-5.15996e-06
-2.32759e-05
1.09229e-05
-4.14301e-05
3.59011e-05
-6.52303e-05
6.60631e-05
-9.50071e-05
0.000100164
-0.000131079
0.000137443
-0.000172895
0.000177164
-0.000218982
0.000217375
-0.000266946
0.00025528
-0.000314171
0.000287892
-0.000358333
0.00031295
-0.000397772
0.000329267
-0.000431472
0.000336666
-0.000459015
0.000335717
-0.000480479
0.000327495
-0.000496374
0.000313365
-0.000507492
0.000294768
-0.000514778
0.000273049
-0.000519184
0.000249334
-0.00052157
0.000224482
-0.000522646
0.000199087
-0.000522955
0.000173513
-0.00052288
0.000147953
-0.000522674
0.000122473
-0.000522494
9.70699e-05
-0.000522433
7.16959e-05
-0.000522553
4.6288e-05
-0.000522902
2.0777e-05
-0.000523537
-4.90218e-06
-0.000524532
-3.08127e-05
-0.000525985
-5.70144e-05
-0.000528019
-8.35718e-05
-0.000530774
-0.000110556
-0.000534394
-0.000138052
-0.000538987
-0.000166161
-0.00054457
-0.000194994
-0.000550974
-0.000224649
-0.000557702
-0.000255156
-0.000563763
-0.000286373
-0.000567485
-0.000317819
-0.000566407
-0.000348436
-0.000557337
-0.000376334
-0.000536712
-0.000398587
-0.000501353
-0.000411251
-0.000449597
-0.000409796
-0.000382572
-0.000390101
-0.000305117
-0.000350044
-0.000225522
-0.000291302
-0.000153419
-0.000220492
-9.60864e-05
-0.000148086
-5.55928e-05
-8.44904e-05
-2.94162e-05
-3.52707e-05
-1.35653e-05
-4.91952e-07
-4.67448e-06
2.24699e-05
-3.59667e-07
3.60265e-05
1.09931e-06
4.17027e-05
9.85476e-07
4.00541e-05
3.543e-07
3.07566e-05
1.31863e-05
-4.56718e-06
-4.04993e-06
-1.58489e-05
6.22152e-06
-3.30249e-05
2.80177e-05
-5.55778e-05
5.85085e-05
-8.40074e-05
9.44527e-05
-0.000118354
0.000134535
-0.000158451
0.00017752
-0.000202969
0.000221692
-0.000249786
0.00026418
-0.000296193
0.00030169
-0.000339733
0.000331424
-0.000378491
0.000351709
-0.000411311
0.000362083
-0.000437675
0.000363032
-0.000457685
0.000355727
-0.000471925
0.000341737
-0.000481329
0.000322771
-0.000486981
0.000300425
-0.000489961
0.000276032
-0.000491207
0.000250585
-0.000491465
0.000224746
-0.000491267
0.000198896
-0.000490955
0.00017321
-0.000490722
0.000147729
-0.000490654
0.000122416
-0.000490773
9.72019e-05
-0.000491071
7.20071e-05
-0.000491528
4.67612e-05
-0.000492139
2.14044e-05
-0.000492916
-4.10757e-06
-0.0004939
-2.98102e-05
-0.000495165
-5.57307e-05
-0.00049682
-8.18978e-05
-0.000499011
-0.000108346
-0.000501918
-0.000135129
-0.00050574
-0.000162323
-0.000510674
-0.000190047
-0.00051686
-0.000218451
-0.000524289
-0.000247718
-0.000532651
-0.000278002
-0.000541131
-0.00030933
-0.000548154
-0.000341403
-0.000551178
-0.0003733
-0.000546642
-0.000403113
-0.000530278
-0.000427609
-0.000497938
-0.000442134
-0.000447014
-0.000441031
-0.000378191
-0.000418878
-0.000296885
-0.000372616
-0.000213142
-0.000304241
-0.000138757
-0.000222466
-8.20544e-05
-0.000141195
-4.42401e-05
-7.30804e-05
-2.13252e-05
-2.34158e-05
-8.47865e-06
9.6281e-06
-2.03138e-06
2.95696e-05
5.45678e-07
3.91328e-05
9.49561e-07
3.96387e-05
4.42033e-07
3.12741e-05
1.3622e-05
-6.82608e-06
2.70566e-06
-2.17487e-05
2.12799e-05
-4.29787e-05
4.91419e-05
-6.95888e-05
8.51947e-05
-0.00010202
0.000126838
-0.000139875
0.000172428
-0.000182422
0.000220046
-0.000227651
0.00026694
-0.000273084
0.000309603
-0.000316034
0.00034465
-0.000354422
0.000369807
-0.000386825
0.000384118
-0.000412628
0.000387885
-0.000431859
0.000382266
-0.000445155
0.000369023
-0.000453535
0.000350119
-0.000458217
0.000327451
-0.00046038
0.000302588
-0.00046105
0.000276698
-0.000460998
0.00025053
-0.000460754
0.000224495
-0.000460621
0.000198756
-0.00046074
0.000173321
-0.000461139
0.000148118
-0.000461782
0.000123048
-0.000462605
9.80121e-05
-0.00046354
7.29288e-05
-0.000464533
4.7739e-05
-0.000465548
2.24041e-05
-0.000466577
-3.09519e-06
-0.000467638
-2.87659e-05
-0.000468782
-5.46048e-05
-0.000470089
-8.06078e-05
-0.000471679
-0.000106773
-0.00047371
-0.000133114
-0.000476384
-0.000159665
-0.00047994
-0.000186504
-0.000484643
-0.00021376
-0.000490738
-0.000241633
-0.000498364
-0.000270386
-0.000507394
-0.000300307
-0.000517202
-0.0003316
-0.000526344
-0.000364159
-0.000532254
-0.000397202
-0.000531076
-0.00042878
-0.000517906
-0.000455298
-0.000487675
-0.000471257
-0.000436853
-0.000469702
-0.000365768
-0.000443708
-0.000280672
-0.000389348
-0.000193769
-0.000309366
-0.000119165
-0.000215798
-6.5468e-05
-0.000126762
-3.20188e-05
-5.68711e-05
-1.31655e-05
-9.21693e-06
-3.60379e-06
1.99994e-05
3.89498e-07
3.51498e-05
1.24211e-06
3.87754e-05
6.67626e-07
3.18618e-05
1.42843e-05
-9.1652e-06
1.17816e-05
-2.75962e-05
3.98769e-05
-5.25205e-05
7.39305e-05
-8.26011e-05
0.000115364
-0.000118135
0.000162308
-0.000158204
0.000212537
-0.000201548
0.000263357
-0.000245689
0.000311098
-0.000288091
0.000351987
-0.000326327
0.000382892
-0.000358807
0.000402277
-0.000384644
0.000409959
-0.000403796
0.000407032
-0.000416827
0.0003953
-0.000424828
0.000377023
-0.000429088
0.000354381
-0.000430905
0.000329268
-0.000431369
0.000303055
-0.000431307
0.000276637
-0.000431243
0.000250469
-0.000431466
0.000224721
-0.000432073
0.000199368
-0.000433052
0.000174304
-0.00043432
0.000149393
-0.000435779
0.000124515
-0.000437328
9.95708e-05
-0.000438885
7.4496e-05
-0.000440388
4.92529e-05
-0.000441799
2.38268e-05
-0.000443104
-1.7777e-06
-0.000444312
-2.75448e-05
-0.000445456
-5.34481e-05
-0.000446591
-7.94599e-05
-0.0004478
-0.000105551
-0.000449199
-0.000131704
-0.000450941
-0.000157913
-0.000453229
-0.000184207
-0.000456321
-0.000210661
-0.000460526
-0.000237422
-0.000466178
-0.00026473
-0.000473547
-0.000292936
-0.000482681
-0.000322464
-0.000493133
-0.000353707
-0.00050358
-0.000386755
-0.000511415
-0.000420942
-0.000512488
-0.000454221
-0.000501273
-0.000482464
-0.000471836
-0.000499134
-0.000419863
-0.000495682
-0.000345611
-0.000463612
-0.000256705
-0.000398283
-0.00016811
-0.000304401
-9.60642e-05
-0.000198795
-4.80238e-05
-0.000104911
-2.0362e-05
-3.68719e-05
-6.09302e-06
5.71816e-06
5.54143e-08
2.90112e-05
1.58207e-06
3.72346e-05
9.39284e-07
3.25185e-05
1.52161e-05
-1.13794e-05
2.30593e-05
-3.2945e-05
6.16404e-05
-6.09791e-05
0.000101808
-9.37345e-05
0.00014823
-0.000131293
0.000199799
-0.00017222
0.000253515
-0.000214852
0.000305958
-0.000256492
0.000352762
-0.000294777
0.000390257
-0.000327681
0.000415811
-0.000354159
0.000428748
-0.000373872
0.000429682
-0.00038733
0.000420488
-0.000395547
0.000403523
-0.000399899
0.000381374
-0.000401746
0.000356231
-0.000402287
0.000329807
-0.000402391
0.000303159
-0.000402625
0.000276867
-0.000403261
0.000251104
-0.000404384
0.00022584
-0.000405943
0.000200923
-0.000407833
0.000176188
-0.000409924
0.000151479
-0.000412099
0.000126683
-0.000414257
0.000101721
-0.000416323
7.65531e-05
-0.000418244
5.11645e-05
-0.00041999
2.55628e-05
-0.000421549
-2.28375e-07
-0.000422929
-2.61755e-05
-0.000424151
-5.22366e-05
-0.000425254
-7.83676e-05
-0.000426292
-0.000104523
-0.000427341
-0.000130664
-0.000428504
-0.000156759
-0.000429919
-0.0001828
-0.000431777
-0.00020881
-0.000434336
-0.000234868
-0.000437935
-0.000261136
-0.000442976
-0.000287899
-0.000449852
-0.000315592
-0.000458778
-0.000344783
-0.000469473
-0.000376062
-0.000480698
-0.000409717
-0.000489744
-0.000445173
-0.000492076
-0.000480127
-0.000481486
-0.000509716
-0.000451224
-0.000525934
-0.000396431
-0.000518407
-0.000317861
-0.000476863
-0.000225389
-0.000396888
-0.00013746
-0.000286724
-7.15251e-05
-0.000170836
-3.15794e-05
-7.68022e-05
-1.05522e-05
-1.53237e-05
-1.08149e-06
1.95524e-05
1.65718e-06
3.44812e-05
1.15462e-06
3.30363e-05
1.63637e-05
-1.32902e-05
3.62331e-05
-3.74368e-05
8.60057e-05
-6.78511e-05
0.000132043
-0.000102378
0.000182875
-0.000140848
0.000238186
-0.000181382
0.000294101
-0.000222087
0.000346621
-0.000260259
0.000390957
-0.000293872
0.000423847
-0.000321369
0.000443319
-0.000342258
0.000449624
-0.000356724
0.000444154
-0.000365743
0.0004295
-0.00037062
0.000408404
-0.000372829
0.000383577
-0.000373625
0.000357028
-0.000373991
0.00033017
-0.000374523
0.000303693
-0.000375534
0.000277877
-0.000377091
0.000252663
-0.00037914
0.00022789
-0.000381548
0.000203334
-0.000384176
0.000178819
-0.000386888
0.000154196
-0.000389579
0.000129379
-0.000392164
0.000104312
-0.000394586
7.89819e-05
-0.000396807
5.33927e-05
-0.000398806
2.75699e-05
-0.000400577
1.55082e-06
-0.000402126
-2.46182e-05
-0.000403469
-5.08843e-05
-0.000404635
-7.7193e-05
-0.000405662
-0.000103488
-0.000406597
-0.00012972
-0.000407506
-0.000155843
-0.000408475
-0.000181826
-0.00040962
-0.000207659
-0.000411116
-0.000233368
-0.000413211
-0.000259038
-0.000416258
-0.000284851
-0.000420712
-0.000311137
-0.000427076
-0.000338419
-0.000435715
-0.000367425
-0.000446492
-0.000398942
-0.000458198
-0.00043347
-0.000467914
-0.000470409
-0.000470565
-0.000507063
-0.00045915
-0.000537338
-0.000426143
-0.000551407
-0.000366569
-0.000536437
-0.000282575
-0.000480906
-0.000187604
-0.000381698
-0.000104056
-0.000254401
-4.80913e-05
-0.000132724
-1.77748e-05
-4.566e-05
-3.53788e-06
5.32632e-06
1.22178e-06
2.9707e-05
1.23567e-06
3.30347e-05
1.75931e-05
-1.47248e-05
5.08352e-05
-4.07486e-05
0.000112269
-7.27135e-05
0.000163817
-0.000108068
0.000218363
-0.00014639
0.000276424
-0.000185482
0.000333255
-0.000223385
0.000384484
-0.00025756
0.000425163
-0.000286403
0.000452672
-0.000308845
0.00046578
-0.000324913
0.000465685
-0.000335238
0.000454493
-0.000341125
0.000435384
-0.000343995
0.000411282
-0.000345251
0.000384831
-0.000345936
0.000357718
-0.000346767
0.000330999
-0.000348081
0.000305009
-0.000349988
0.000279782
-0.000352417
0.000255093
-0.000355241
0.000230711
-0.000358299
0.000206391
-0.000361458
0.000181974
-0.000364598
0.000157334
-0.000367638
0.000132414
-0.000370514
0.000107184
-0.000373187
8.16493e-05
-0.000375628
5.58287e-05
-0.000377826
2.97607e-05
-0.000379773
3.49219e-06
-0.000381477
-2.2921e-05
-0.00038295
-4.94178e-05
-0.000384214
-7.59358e-05
-0.000385296
-0.000102412
-0.000386233
-0.000128788
-0.000387068
-0.000155013
-0.000387853
-0.000181045
-0.000388658
-0.000206858
-0.000389583
-0.000232446
-0.000390781
-0.000257842
-0.000392491
-0.000283141
-0.000395078
-0.000308552
-0.000399047
-0.00033445
-0.000404998
-0.000361476
-0.000413427
-0.000390513
-0.000424294
-0.000422606
-0.00043633
-0.000458373
-0.000446237
-0.000497157
-0.000448202
-0.000535365
-0.000434272
-0.000565327
-0.000396308
-0.000574389
-0.000329868
-0.000547355
-0.000239942
-0.000471644
-0.000145179
-0.000349186
-7.11616e-05
-0.000206718
-2.82189e-05
-8.85859e-05
-7.65341e-06
-1.52478e-05
1.48876e-07
2.19003e-05
1.14824e-06
3.204e-05
1.87386e-05
-1.55812e-05
6.62854e-05
-4.27097e-05
0.000139645
-7.53816e-05
0.000196284
-0.000110674
0.000253791
-0.000147942
0.000313599
-0.000184804
0.000370176
-0.000219378
0.000419009
-0.000249399
0.000455212
-0.000273714
0.00047696
-0.000291719
0.000483799
-0.000303891
0.000477841
-0.000311194
0.000461802
-0.000315099
0.000439278
-0.00031699
0.000413176
-0.000318092
0.000385925
-0.000319186
0.000358814
-0.000320739
0.000332546
-0.000322875
0.000307147
-0.000325571
0.000282475
-0.000328681
0.000258204
-0.000332056
0.000234086
-0.000335544
0.000209882
-0.000339035
0.000185466
-0.000342438
0.00016074
-0.000345695
0.000135674
-0.00034876
0.000110254
-0.000351607
8.45001e-05
-0.000354213
5.84405e-05
-0.00035657
3.2122e-05
-0.00035867
5.59799e-06
-0.000360518
-2.10679e-05
-0.000362123
-4.78077e-05
-0.000363502
-7.45515e-05
-0.000364679
-0.00010123
-0.000365682
-0.00012778
-0.000366546
-0.000154145
-0.000367308
-0.00018028
-0.000368011
-0.000206152
-0.000368709
-0.000231746
-0.000369483
-0.000257066
-0.000370469
-0.000282154
-0.000371897
-0.000307124
-0.000374147
-0.000332199
-0.00037778
-0.000357845
-0.000383495
-0.000384797
-0.000391898
-0.000414207
-0.000402977
-0.000447293
-0.000415246
-0.000484894
-0.000424802
-0.000525805
-0.00042482
-0.000565307
-0.000406319
-0.000592872
-0.000360856
-0.000592809
-0.000285764
-0.00054676
-0.000190813
-0.000444145
-0.00010153
-0.000296045
-4.25254e-05
-0.000147517
-1.3499e-05
-4.42939e-05
-1.63542e-06
1.00352e-05
9.13995e-07
2.94894e-05
1.96529e-05
-1.57918e-05
8.19466e-05
-4.32221e-05
0.000167331
-7.57822e-05
0.00022864
-0.000110212
0.000288364
-0.000145692
0.000348985
-0.000179787
0.000404338
-0.000210794
0.00044997
-0.000236782
0.000481237
-0.000257034
0.000497191
-0.000271356
0.000498145
-0.000280577
0.000487053
-0.000285854
0.000467096
-0.000288686
0.000442105
-0.00029031
0.00041481
-0.000291719
0.000387332
-0.000293443
0.000360545
-0.000295737
0.000334838
-0.000298583
0.000309998
-0.000301883
0.000285773
-0.000305465
0.000261789
-0.000309194
0.000237813
-0.000312942
0.000213631
-0.000316631
0.000189152
-0.000320192
0.000164301
-0.000323591
0.000139069
-0.000326792
0.000113452
-0.000329775
8.74798e-05
-0.000332521
6.11832e-05
-0.000335018
3.46154e-05
-0.000337259
7.83481e-06
-0.000339243
-1.90882e-05
-0.000340975
-4.60792e-05
-0.00034247
-7.30605e-05
-0.000343747
-9.99563e-05
-0.000344833
-0.000126697
-0.000345759
-0.000153222
-0.000346557
-0.000179484
-0.000347261
-0.00020545
-0.000347908
-0.0002311
-0.000348538
-0.000256437
-0.000349217
-0.000281475
-0.000350063
-0.000306278
-0.000351304
-0.000330957
-0.000353344
-0.000355807
-0.00035681
-0.000381328
-0.000362511
-0.00040851
-0.000371137
-0.000438665
-0.000382595
-0.000473443
-0.000394961
-0.000513435
-0.000403383
-0.000556889
-0.000399766
-0.000596473
-0.000374108
-0.000618454
-0.00031853
-0.00060233
-0.000233934
-0.000528777
-0.000137769
-0.000392231
-6.17268e-05
-0.000223559
-2.10466e-05
-8.49079e-05
-4.21653e-06
-6.84222e-06
5.70795e-07
2.47128e-05
2.02228e-05
-1.53624e-05
9.7177e-05
-4.23271e-05
0.000194546
-7.40393e-05
0.000260147
-0.000106947
0.000321411
-0.000140103
0.000382042
-0.000171132
0.000435431
-0.000198568
0.000477353
-0.000220832
0.000503533
-0.000237598
0.000513927
-0.000249003
0.000509566
-0.000256112
0.000494142
-0.000260153
0.000471145
-0.000262543
0.00044448
-0.000264312
0.000416583
-0.000266222
0.00038923
-0.000268581
0.000362906
-0.000271499
0.000337748
-0.00027487
0.000313369
-0.000278568
0.000289467
-0.000282431
0.000265653
-0.00028635
0.00024173
-0.000290228
0.00021751
-0.000294013
0.000192937
-0.00029766
0.00016795
-0.000301145
0.000142555
-0.000304441
0.000116751
-0.000307531
9.05715e-05
-0.000310394
6.40492e-05
-0.000313017
3.72414e-05
-0.000315389
1.02097e-05
-0.000317505
-1.69686e-05
-0.000319368
-4.42129e-05