/*--------------------------------*- C++ -*----------------------------------*\
| =========                 |                                                 |
| \\      /  F ield         | OpenFOAM: The Open Source CFD Toolbox           |
|  \\    /   O peration     | Version:  2406                                  |
|   \\  /    A nd           | Website:  www.openfoam.com                      |
|    \\/     M anipulation  |                                                 |
\*---------------------------------------------------------------------------*/
FoamFile
{
    version     2.0;
    format      ascii;
    arch        "LSB;label=32;scalar=64";
    class       volVectorField;
    location    "46.3";
    object      U;
}
// * * * * * * * * * * * * * * * * * * * * * * * * * * * * * * * * * * * * * //

dimensions      [0 1 -1 0 0 0 0];

internalField   nonuniform List<vector> 
14400
(
(-6.85206e-06 6.7381e-06 0)
(1.64993e-05 -1.18779e-05 0)
(0.000127769 -3.58549e-05 0)
(0.00032193 -5.51866e-05 0)
(0.00057855 -6.8465e-05 0)
(0.00087466 -7.55274e-05 0)
(0.00118742 -7.70115e-05 0)
(0.00149673 -7.38544e-05 0)
(0.00178634 -6.71925e-05 0)
(0.00204448 -5.82311e-05 0)
(0.002264 -4.81438e-05 0)
(0.00244211 -3.79776e-05 0)
(0.00257979 -2.85804e-05 0)
(0.00268092 -2.05566e-05 0)
(0.00275131 -1.4249e-05 0)
(0.00279776 -9.73863e-06 0)
(0.00282711 -6.92029e-06 0)
(0.00284534 -5.61987e-06 0)
(0.00285689 -5.40218e-06 0)
(0.00286448 -5.75791e-06 0)
(0.00286875 -6.14891e-06 0)
(0.00286843 -5.89013e-06 0)
(0.00286079 -4.55834e-06 0)
(0.00284156 -2.05681e-06 0)
(0.00280535 1.73565e-06 0)
(0.00274629 6.91155e-06 0)
(0.00265821 1.35051e-05 0)
(0.00253483 2.15264e-05 0)
(0.00236979 3.09873e-05 0)
(0.00215667 4.1916e-05 0)
(0.00188893 5.43587e-05 0)
(0.00155985 6.83724e-05 0)
(0.00116259 8.40116e-05 0)
(0.000690173 0.000101313 0)
(0.000135698 0.000120284 0)
(-0.000507558 0.000140889 0)
(-0.00124591 0.000163047 0)
(-0.00208502 0.00018662 0)
(-0.00302968 0.000211416 0)
(-0.00408351 0.000237187 0)
(-0.00524874 0.000263625 0)
(-0.00652594 0.000290368 0)
(-0.0079138 0.000317004 0)
(-0.00940893 0.000343071 0)
(-0.0110057 0.000368072 0)
(-0.0126961 0.000391477 0)
(-0.0144697 0.000412732 0)
(-0.0163136 0.000431273 0)
(-0.0182127 0.000446531 0)
(-0.0201493 0.00045794 0)
(-0.0221037 0.000464946 0)
(-0.0240542 0.000467018 0)
(-0.0259775 0.000463651 0)
(-0.0278487 0.000454373 0)
(-0.0296416 0.000438759 0)
(-0.0313294 0.000416436 0)
(-0.0328846 0.00038709 0)
(-0.0342796 0.000350493 0)
(-0.0354872 0.000306496 0)
(-0.036481 0.000254944 0)
(-0.0372365 0.000196302 0)
(-0.0377304 0.000132786 0)
(-0.0379382 6.42584e-05 0)
(-0.0378412 -1.29431e-05 0)
(-0.0374285 -9.58781e-05 0)
(-0.0366879 -0.000182133 0)
(-0.0356128 -0.000270503 0)
(-0.0342028 -0.000359508 0)
(-0.0324632 -0.000447392 0)
(-0.0304056 -0.000532211 0)
(-0.0280486 -0.00061188 0)
(-0.0254177 -0.000684241 0)
(-0.0225452 -0.000747155 0)
(-0.0194699 -0.000798594 0)
(-0.0162368 -0.000836748 0)
(-0.012896 -0.000860128 0)
(-0.00950155 -0.000867668 0)
(-0.00611012 -0.000858812 0)
(-0.00277935 -0.000833576 0)
(0.000433969 -0.000792585 0)
(0.00347576 -0.000737071 0)
(0.00629648 -0.00066883 0)
(0.00885287 -0.000590141 0)
(0.0111094 -0.000503655 0)
(0.0130394 -0.000412249 0)
(0.0146259 -0.000318865 0)
(0.0158618 -0.000226356 0)
(0.0167499 -0.000137312 0)
(0.017302 -5.37945e-05 0)
(0.01754 2.17606e-05 0)
(0.0174886 8.56403e-05 0)
(0.0171784 0.000139746 0)
(0.0166479 0.000185409 0)
(0.015936 0.000221453 0)
(0.0150802 0.000247511 0)
(0.0141176 0.000264368 0)
(0.0130833 0.000273061 0)
(0.0120091 0.000274702 0)
(0.0109232 0.00027046 0)
(0.00984924 0.0002615 0)
(0.00880665 0.000248935 0)
(0.00781042 0.000233789 0)
(0.00687152 0.000216978 0)
(0.00599722 0.000199291 0)
(0.00519156 0.000181392 0)
(0.00445587 0.00016382 0)
(0.00378921 0.000147003 0)
(0.00318887 0.000131263 0)
(0.00265084 0.00011682 0)
(0.00217022 0.000103788 0)
(0.00174179 9.21542e-05 0)
(0.00136055 8.17494e-05 0)
(0.00102246 7.22096e-05 0)
(0.000725266 6.29461e-05 0)
(0.000469306 5.31421e-05 0)
(0.000258166 4.1851e-05 0)
(9.87063e-05 2.82646e-05 0)
(-4.46411e-07 1.21867e-05 0)
(-3.54055e-05 -4.23548e-06 0)
(-1.33919e-05 -1.34083e-05 0)
(1.06899e-05 -1.56072e-05 0)
(0.000157594 -0.00016216 0)
(0.000489989 -0.000339316 0)
(0.0010007 -0.000486622 0)
(0.0016431 -0.000589812 0)
(0.00237048 -0.000645993 0)
(0.0031334 -0.000658248 0)
(0.00388688 -0.000633011 0)
(0.00459353 -0.00057865 0)
(0.00522528 -0.000504381 0)
(0.00576397 -0.000419371 0)
(0.00620102 -0.000331954 0)
(0.0065363 -0.000249023 0)
(0.00677633 -0.000175619 0)
(0.00693223 -0.000114756 0)
(0.00701746 -6.74334e-05 0)
(0.00704562 -3.28581e-05 0)
(0.00702873 -8.83911e-06 0)
(0.00697555 8.00756e-06 0)
(0.00689062 2.17459e-05 0)
(0.00677389 3.6573e-05 0)
(0.00662059 5.65292e-05 0)
(0.0064216 8.49266e-05 0)
(0.00616454 0.000124126 0)
(0.00583459 0.000175752 0)
(0.00541529 0.00024076 0)
(0.00488922 0.000319613 0)
(0.00423853 0.000412507 0)
(0.00344523 0.000519551 0)
(0.00249129 0.000640876 0)
(0.00135875 0.000776649 0)
(2.98308e-05 0.000927007 0)
(-0.00151281 0.00109195 0)
(-0.00328574 0.00127124 0)
(-0.00530424 0.00146425 0)
(-0.00758175 0.00166993 0)
(-0.0101291 0.00188671 0)
(-0.0129541 0.0021125 0)
(-0.0160604 0.00234466 0)
(-0.0194472 0.00257998 0)
(-0.0231087 0.00281479 0)
(-0.0270334 0.00304494 0)
(-0.0312039 0.00326591 0)
(-0.0355968 0.0034729 0)
(-0.0401825 0.00366094 0)
(-0.0449257 0.003825 0)
(-0.0497855 0.00396012 0)
(-0.054716 0.00406154 0)
(-0.0596671 0.00412478 0)
(-0.064585 0.00414577 0)
(-0.0694135 0.00412095 0)
(-0.0740945 0.00404729 0)
(-0.078569 0.00392239 0)
(-0.082778 0.00374454 0)
(-0.0866637 0.00351268 0)
(-0.0901697 0.00322651 0)
(-0.0932423 0.00288645 0)
(-0.095831 0.0024937 0)
(-0.0978891 0.00205032 0)
(-0.0993746 0.00155915 0)
(-0.10025 0.00102415 0)
(-0.100484 0.000451447 0)
(-0.100056 -0.000152804 0)
(-0.0989434 -0.000786021 0)
(-0.0971357 -0.00143907 0)
(-0.0946317 -0.00210282 0)
(-0.0914382 -0.00276737 0)
(-0.0875706 -0.00342207 0)
(-0.0830538 -0.00405555 0)
(-0.0779229 -0.00465583 0)
(-0.0722226 -0.00521061 0)
(-0.0660079 -0.00570759 0)
(-0.0593435 -0.00613483 0)
(-0.0523035 -0.00648118 0)
(-0.0449704 -0.00673673 0)
(-0.0374342 -0.00689332 0)
(-0.0297909 -0.00694497 0)
(-0.0221406 -0.0068883 0)
(-0.0145856 -0.00672287 0)
(-0.00722828 -0.00645143 0)
(-0.000168121 -0.00607997 0)
(0.00650035 -0.00561764 0)
(0.0126904 -0.00507654 0)
(0.0183254 -0.00447127 0)
(0.0233412 -0.0038184 0)
(0.0276879 -0.00313575 0)
(0.031331 -0.0024417 0)
(0.034253 -0.00175433 0)
(0.0364526 -0.00109076 0)
(0.0379445 -0.000466613 0)
(0.0387598 0.000103249 0)
(0.0389458 0.000611195 0)
(0.0385585 0.00105141 0)
(0.0376632 0.00141855 0)
(0.0363329 0.00171065 0)
(0.0346446 0.00192926 0)
(0.0326756 0.0020784 0)
(0.0305015 0.00216401 0)
(0.028193 0.00219342 0)
(0.0258149 0.00217485 0)
(0.023424 0.00211687 0)
(0.0210685 0.002028 0)
(0.0187873 0.00191631 0)
(0.0166107 0.00178921 0)
(0.0145602 0.00165323 0)
(0.01265 0.00151395 0)
(0.0108871 0.001376 0)
(0.00927325 0.00124304 0)
(0.00780536 0.00111772 0)
(0.00647721 0.00100167 0)
(0.00528063 0.000895329 0)
(0.00420706 0.000797743 0)
(0.00324924 0.000706382 0)
(0.00240305 0.000617023 0)
(0.00166916 0.000523938 0)
(0.0010541 0.000420774 0)
(0.000569921 0.000302619 0)
(0.000230074 0.000170391 0)
(4.40364e-05 3.86983e-05 0)
(-3.14829e-06 -3.44565e-05 0)
(3.28718e-05 -0.000120791 0)
(0.000324482 -0.000490245 0)
(0.000861751 -0.000879923 0)
(0.00163202 -0.00120231 0)
(0.0025662 -0.00142877 0)
(0.00360503 -0.00155147 0)
(0.00468397 -0.00157544 0)
(0.00574342 -0.00151371 0)
(0.00673311 -0.00138416 0)
(0.00761449 -0.00120701 0)
(0.0083617 -0.00100265 0)
(0.00896122 -0.000789847 0)
(0.0094105 -0.000584274 0)
(0.00971574 -0.000397553 0)
(0.00988918 -0.000236769 0)
(0.00994618 -0.000104425 0)
(0.00990229 1.20596e-06 0)
(0.00977074 8.53831e-05 0)
(0.00956043 0.000155901 0)
(0.00927435 0.000222139 0)
(0.00890903 0.000293876 0)
(0.00845449 0.000380235 0)
(0.00789486 0.000489064 0)
(0.0072095 0.000626498 0)
(0.00637423 0.000796737 0)
(0.0053625 0.0010023 0)
(0.00414645 0.00124446 0)
(0.0026977 0.0015237 0)
(0.000987901 0.00184009 0)
(-0.00101081 0.00219349 0)
(-0.00332538 0.00258353 0)
(-0.00598135 0.00300945 0)
(-0.00900212 0.00346986 0)
(-0.0124082 0.00396246 0)
(-0.0162159 0.00448382 0)
(-0.0204369 0.00502918 0)
(-0.0250763 0.00559243 0)
(-0.0301324 0.00616605 0)
(-0.0355951 0.00674119 0)
(-0.0414457 0.00730783 0)
(-0.0476561 0.00785494 0)
(-0.0541892 0.00837079 0)
(-0.0609984 0.00884323 0)
(-0.0680287 0.00926006 0)
(-0.0752175 0.00960939 0)
(-0.0824957 0.00987999 0)
(-0.0897892 0.0100616 0)
(-0.0970203 0.0101453 0)
(-0.10411 0.0101236 0)
(-0.110977 0.00999063 0)
(-0.117545 0.00974236 0)
(-0.123736 0.00937642 0)
(-0.129478 0.00889221 0)
(-0.134704 0.00829076 0)
(-0.139351 0.00757468 0)
(-0.143363 0.00674803 0)
(-0.146688 0.00581622 0)
(-0.149283 0.00478598 0)
(-0.15111 0.00366529 0)
(-0.152139 0.00246338 0)
(-0.152345 0.0011903 0)
(-0.15171 -0.000142942 0)
(-0.150226 -0.00152193 0)
(-0.14789 -0.00293183 0)
(-0.144705 -0.00435845 0)
(-0.140683 -0.00578526 0)
(-0.135843 -0.00719398 0)
(-0.130214 -0.00856517 0)
(-0.123831 -0.00987839 0)
(-0.116739 -0.0111125 0)
(-0.108992 -0.012246 0)
(-0.100652 -0.0132575 0)
(-0.0917905 -0.0141263 0)
(-0.0824881 -0.0148327 0)
(-0.0728329 -0.0153594 0)
(-0.0629208 -0.0156916 0)
(-0.0528539 -0.0158182 0)
(-0.0427396 -0.015732 0)
(-0.0326886 -0.0154309 0)
(-0.0228132 -0.0149181 0)
(-0.0132251 -0.014202 0)
(-0.00403324 -0.0132969 0)
(0.004659 -0.0122224 0)
(0.0127558 -0.0110027 0)
(0.0201716 -0.00966638 0)
(0.0268327 -0.00824518 0)
(0.0326801 -0.00677289 0)
(0.0376701 -0.00528423 0)
(0.041776 -0.00381352 0)
(0.0449888 -0.00239327 0)
(0.0473184 -0.0010522 0)
(0.0487926 0.00018349 0)
(0.0494536 0.00129155 0)
(0.0493595 0.00225643 0)
(0.048583 0.0030686 0)
(0.0472068 0.00372387 0)
(0.0453208 0.00422358 0)
(0.0430189 0.00457423 0)
(0.0403959 0.00478666 0)
(0.0375436 0.00487511 0)
(0.0345483 0.00485619 0)
(0.0314881 0.00474781 0)
(0.0284313 0.00456819 0)
(0.025435 0.004335 0)
(0.022545 0.0040647 0)
(0.0197957 0.00377208 0)
(0.017211 0.00346987 0)
(0.0148054 0.00316863 0)
(0.0125856 0.00287649 0)
(0.0105516 0.00259896 0)
(0.0086994 0.00233859 0)
(0.00702277 0.00209459 0)
(0.00551567 0.00186249 0)
(0.0041747 0.00163412 0)
(0.00300122 0.00139823 0)
(0.00200268 0.00114254 0)
(0.0011923 0.000857897 0)
(0.000583369 0.000546138 0)
(0.000196204 0.000232629 0)
(1.61336e-05 8.45872e-06 0)
(5.04449e-05 -0.00030299 0)
(0.000464071 -0.000989653 0)
(0.0011747 -0.00164829 0)
(0.00215681 -0.00218247 0)
(0.00331644 -0.00255311 0)
(0.00458337 -0.00274861 0)
(0.00588216 -0.00277682 0)
(0.00714382 -0.0026588 0)
(0.00831011 -0.00242395 0)
(0.0093362 -0.00210584 0)
(0.0101914 -0.00173851 0)
(0.010859 -0.00135337 0)
(0.011334 -0.000976756 0)
(0.0116214 -0.000628248 0)
(0.0117325 -0.000319768 0)
(0.0116815 -5.54626e-05 0)
(0.0114828 0.000167755 0)
(0.0111472 0.000359086 0)
(0.0106804 0.000532218 0)
(0.0100806 0.000703494 0)
(0.00933834 0.000890034 0)
(0.00843647 0.00110796 0)
(0.00735085 0.00137107 0)
(0.00605178 0.00169007 0)
(0.0045056 0.00207234 0)
(0.00267611 0.00252231 0)
(0.000526023 0.00304205 0)
(-0.00198197 0.00363204 0)
(-0.00488424 0.00429163 0)
(-0.00821526 0.00501934 0)
(-0.0120067 0.00581273 0)
(-0.0162863 0.00666807 0)
(-0.0210765 0.00757995 0)
(-0.0263929 0.00854081 0)
(-0.0322431 0.00954069 0)
(-0.0386246 0.010567 0)
(-0.0455243 0.0116046 0)
(-0.0529169 0.012636 0)
(-0.0607651 0.0136417 0)
(-0.0690185 0.0146007 0)
(-0.0776155 0.0154911 0)
(-0.0864831 0.0162909 0)
(-0.0955396 0.0169788 0)
(-0.104696 0.0175347 0)
(-0.113858 0.0179405 0)
(-0.122931 0.018181 0)
(-0.131818 0.0182437 0)
(-0.140426 0.0181197 0)
(-0.148665 0.0178031 0)
(-0.156452 0.0172915 0)
(-0.163711 0.0165856 0)
(-0.170373 0.0156888 0)
(-0.176377 0.0146069 0)
(-0.181671 0.0133479 0)
(-0.186208 0.0119214 0)
(-0.189952 0.0103387 0)
(-0.192871 0.00861225 0)
(-0.194942 0.00675551 0)
(-0.196145 0.00478311 0)
(-0.196468 0.00271067 0)
(-0.195903 0.00055484 0)
(-0.194446 -0.00166704 0)
(-0.192099 -0.00393681 0)
(-0.188869 -0.00623252 0)
(-0.184767 -0.00853234 0)
(-0.179808 -0.010813 0)
(-0.174016 -0.0130496 0)
(-0.167417 -0.0152156 0)
(-0.160045 -0.0172829 0)
(-0.151942 -0.0192224 0)
(-0.143156 -0.0210043 0)
(-0.133743 -0.0225987 0)
(-0.123768 -0.0239762 0)
(-0.113303 -0.025109 0)
(-0.10243 -0.0259714 0)
(-0.0912374 -0.0265415 0)
(-0.0798222 -0.0268018 0)
(-0.0682869 -0.0267402 0)
(-0.0567391 -0.0263511 0)
(-0.0452901 -0.0256362 0)
(-0.0340524 -0.0246048 0)
(-0.0231381 -0.023274 0)
(-0.0126562 -0.0216686 0)
(-0.00271092 -0.0198207 0)
(0.00660115 -0.0177686 0)
(0.0151927 -0.015556 0)
(0.0229877 -0.0132304 0)
(0.0299231 -0.0108419 0)
(0.0359504 -0.00844119 0)
(0.0410367 -0.00607806 0)
(0.0451657 -0.00379984 0)
(0.0483372 -0.00165088 0)
(0.0505685 0.000330039 0)
(0.0518948 0.00211158 0)
(0.0523672 0.0036697 0)
(0.0520514 0.00498816 0)
(0.0510265 0.00605921 0)
(0.0493822 0.00688357 0)
(0.0472154 0.0074699 0)
(0.0446271 0.00783388 0)
(0.0417183 0.0079969 0)
(0.0385865 0.00798456 0)
(0.0353227 0.007825 0)
(0.0320084 0.00754732 0)
(0.0287139 0.00718014 0)
(0.0254974 0.00675035 0)
(0.0224043 0.00628225 0)
(0.0194682 0.00579675 0)
(0.0167115 0.00531077 0)
(0.0141474 0.00483667 0)
(0.0117821 0.0043816 0)
(0.00961669 0.00394682 0)
(0.00765066 0.00352727 0)
(0.00588414 0.00311162 0)
(0.00432079 0.00268345 0)
(0.0029696 0.00222439 0)
(0.0018456 0.00172019 0)
(0.000963776 0.00117109 0)
(0.000363275 0.000606777 0)
(3.7338e-05 0.000130396 0)
(6.35642e-05 -0.00054518 0)
(0.000572503 -0.0016227 0)
(0.00142215 -0.00258865 0)
(0.00257164 -0.00335053 0)
(0.00390187 -0.00386634 0)
(0.00533062 -0.00412479 0)
(0.00677265 -0.00413901 0)
(0.00815173 -0.00393986 0)
(0.00940449 -0.00356978 0)
(0.0104826 -0.00307693 0)
(0.0113529 -0.00251003 0)
(0.0119969 -0.00191387 0)
(0.0124085 -0.00132583 0)
(0.0125908 -0.000773495 0)
(0.0125532 -0.000273351 0)
(0.0123072 0.000169416 0)
(0.0118631 0.000560112 0)
(0.0112267 0.000912933 0)
(0.0103971 0.00124862 0)
(0.00936527 0.00159169 0)
(0.00811303 0.00196764 0)
(0.00661389 0.00240033 0)
(0.00483407 0.00291003 0)
(0.00273426 0.00351223 0)
(0.000271524 0.0042174 0)
(-0.00259884 0.0050314 0)
(-0.00592151 0.00595637 0)
(-0.00973964 0.00699153 0)
(-0.0140933 0.00813386 0)
(-0.0190181 0.0093782 0)
(-0.0245431 0.010717 0)
(-0.0306895 0.0121401 0)
(-0.0374682 0.0136335 0)
(-0.0448781 0.0151797 0)
(-0.0529042 0.016757 0)
(-0.0615169 0.01834 0)
(-0.0706706 0.0198997 0)
(-0.0803045 0.0214045 0)
(-0.0903429 0.0228211 0)
(-0.100697 0.0241159 0)
(-0.111269 0.025256 0)
(-0.121952 0.0262108 0)
(-0.132636 0.026953 0)
(-0.143211 0.0274597 0)
(-0.153568 0.0277127 0)
(-0.163607 0.0276996 0)
(-0.173232 0.027413 0)
(-0.18236 0.0268508 0)
(-0.190914 0.0260155 0)
(-0.198832 0.0249138 0)
(-0.206058 0.0235554 0)
(-0.21255 0.0219529 0)
(-0.21827 0.0201208 0)
(-0.223191 0.018075 0)
(-0.227292 0.0158324 0)
(-0.230554 0.0134106 0)
(-0.232968 0.0108276 0)
(-0.234524 0.00810171 0)
(-0.235218 0.0052518 0)
(-0.235046 0.00229716 0)
(-0.234008 -0.000741978 0)
(-0.232105 -0.00384436 0)
(-0.229339 -0.00698842 0)
(-0.225718 -0.0101501 0)
(-0.221248 -0.0133037 0)
(-0.215941 -0.0164214 0)
(-0.209811 -0.0194736 0)
(-0.202877 -0.0224284 0)
(-0.195164 -0.0252518 0)
(-0.186701 -0.0279081 0)
(-0.177526 -0.0303601 0)
(-0.167683 -0.03257 0)
(-0.157224 -0.0345001 0)
(-0.146213 -0.036114 0)
(-0.13472 -0.0373775 0)
(-0.122824 -0.0382603 0)
(-0.110615 -0.0387374 0)
(-0.0981895 -0.0387901 0)
(-0.0856517 -0.0384076 0)
(-0.0731104 -0.0375883 0)
(-0.0606784 -0.0363397 0)
(-0.0484695 -0.0346799 0)
(-0.0365965 -0.0326366 0)
(-0.0251688 -0.030247 0)
(-0.0142901 -0.027557 0)
(-0.00405614 -0.0246194 0)
(0.00544676 -0.0214928 0)
(0.0141435 -0.0182398 0)
(0.0219714 -0.0149247 0)
(0.0288809 -0.0116123 0)
(0.0348363 -0.00836573 0)
(0.0398164 -0.00524495 0)
(0.0438151 -0.00230427 0)
(0.046842 0.000407912 0)
(0.0489225 0.0028508 0)
(0.0500973 0.00499282 0)
(0.0504228 0.00681242 0)
(0.0499695 0.00829867 0)
(0.0488202 0.0094514 0)
(0.0470677 0.0102809 0)
(0.0448115 0.0108069 0)
(0.0421542 0.011057 0)
(0.0391975 0.0110651 0)
(0.0360386 0.010869 0)
(0.0327668 0.010508 0)
(0.0294614 0.0100214 0)
(0.0261895 0.00944612 0)
(0.0230054 0.00881556 0)
(0.0199512 0.00815797 0)
(0.0170574 0.00749534 0)
(0.0143445 0.0068422 0)
(0.0118259 0.00620455 0)
(0.00951021 0.00557912 0)
(0.00740446 0.00495345 0)
(0.00551727 0.00430742 0)
(0.0038615 0.0036171 0)
(0.00245646 0.00286176 0)
(0.00132216 0.0020353 0)
(0.000520682 0.00116131 0)
(5.69706e-05 0.000333158 0)
(7.32282e-05 -0.000833037 0)
(0.000655035 -0.00236188 0)
(0.00161253 -0.00366749 0)
(0.00288936 -0.00466675 0)
(0.00434233 -0.00532082 0)
(0.00587617 -0.00562353 0)
(0.00739575 -0.0055969 0)
(0.00881854 -0.00528437 0)
(0.0100776 -0.00474346 0)
(0.0111229 -0.00403838 0)
(0.0119209 -0.00323332 0)
(0.0124528 -0.00238667 0)
(0.0127119 -0.00154657 0)
(0.0127 -0.000747871 0)
(0.0124237 -1.0562e-05 0)
(0.0118902 0.000660416 0)
(0.0111037 0.00127404 0)
(0.0100625 0.0018509 0)
(0.00875665 0.00242006 0)
(0.00716679 0.00301523 0)
(0.00526404 0.00367091 0)
(0.00301099 0.0044189 0)
(0.000363483 0.00528566 0)
(-0.00272714 0.0062908 0)
(-0.00631168 0.00744676 0)
(-0.0104407 0.00875933 0)
(-0.0151622 0.0102287 0)
(-0.0205199 0.0118504 0)
(-0.0265505 0.0136157 0)
(-0.0332817 0.0155119 0)
(-0.0407297 0.0175218 0)
(-0.0488968 0.019623 0)
(-0.0577693 0.0217877 0)
(-0.0673152 0.0239825 0)
(-0.0774843 0.0261688 0)
(-0.0882073 0.0283039 0)
(-0.0993975 0.030342 0)
(-0.110953 0.0322364 0)
(-0.122761 0.0339412 0)
(-0.134699 0.0354133 0)
(-0.146645 0.0366144 0)
(-0.158474 0.0375124 0)
(-0.17007 0.0380825 0)
(-0.181325 0.0383075 0)
(-0.192142 0.0381781 0)
(-0.202438 0.0376922 0)
(-0.212141 0.0368543 0)
(-0.221193 0.0356741 0)
(-0.229551 0.0341657 0)
(-0.237177 0.0323465 0)
(-0.244047 0.0302359 0)
(-0.250142 0.0278545 0)
(-0.255449 0.0252238 0)
(-0.259959 0.0223651 0)
(-0.263668 0.0192995 0)
(-0.266572 0.0160477 0)
(-0.268669 0.0126301 0)
(-0.269956 0.00906658 0)
(-0.270432 0.00537721 0)
(-0.270096 0.00158215 0)
(-0.268945 -0.00229776 0)
(-0.266977 -0.00624075 0)
(-0.264192 -0.0102233 0)
(-0.260586 -0.0142201 0)
(-0.256162 -0.0182038 0)
(-0.250919 -0.0221438 0)
(-0.244863 -0.0260071 0)
(-0.238001 -0.0297575 0)
(-0.230344 -0.0333558 0)
(-0.221911 -0.03676 0)
(-0.212725 -0.0399257 0)
(-0.202817 -0.042807 0)
(-0.192228 -0.0453575 0)
(-0.181007 -0.047531 0)
(-0.169214 -0.0492836 0)
(-0.15692 -0.0505753 0)
(-0.144205 -0.0513714 0)
(-0.131161 -0.0516447 0)
(-0.117888 -0.0513773 0)
(-0.104496 -0.0505618 0)
(-0.0910972 -0.0492024 0)
(-0.077811 -0.047316 0)
(-0.0647554 -0.044932 0)
(-0.0520471 -0.0420915 0)
(-0.0397979 -0.0388468 0)
(-0.0281121 -0.0352592 0)
(-0.017085 -0.0313976 0)
(-0.00680047 -0.0273358 0)
(0.00266936 -0.0231505 0)
(0.0112651 -0.0189193 0)
(0.01894 -0.0147185 0)
(0.0256601 -0.0106215 0)
(0.0314043 -0.00669702 0)
(0.0361645 -0.00300773 0)
(0.0399455 0.000390915 0)
(0.042766 0.00345234 0)
(0.0446588 0.00614005 0)
(0.0456708 0.00842881 0)
(0.0458632 0.0103055 0)
(0.0453101 0.0117697 0)
(0.0440972 0.0128331 0)
(0.0423186 0.0135193 0)
(0.040074 0.0138616 0)
(0.0374646 0.013901 0)
(0.0345891 0.013684 0)
(0.0315405 0.0132592 0)
(0.0284029 0.0126752 0)
(0.0252495 0.0119778 0)
(0.0221411 0.0112078 0)
(0.0191268 0.0103985 0)
(0.0162441 0.00957434 0)
(0.0135212 0.0087485 0)
(0.010979 0.00792213 0)
(0.00863458 0.007084 0)
(0.00650462 0.00621196 0)
(0.00460872 0.00527695 0)
(0.00297339 0.00425024 0)
(0.00162667 0.0031145 0)
(0.00065407 0.00187786 0)
(7.34639e-05 0.000607607 0)
(8.06805e-05 -0.00115562 0)
(0.000718693 -0.00318257 0)
(0.00175786 -0.00485121 0)
(0.00312651 -0.00608959 0)
(0.00465874 -0.00686671 0)
(0.0062457 -0.00718632 0)
(0.00778243 -0.00708362 0)
(0.00918069 -0.0066181 0)
(0.0103712 -0.00586496 0)
(0.0113037 -0.00490605 0)
(0.0119456 -0.00382168 0)
(0.0122792 -0.0026836 0)
(0.0122978 -0.00154978 0)
(0.0120019 -0.000460866 0)
(0.0113945 0.000561477 0)
(0.010477 0.00151453 0)
(0.00924572 0.00241286 0)
(0.00768907 0.00328517 0)
(0.00578558 0.00417008 0)
(0.0035036 0.0051112 0)
(0.000801992 0.00615204 0)
(-0.00236806 0.00733166 0)
(-0.00606048 0.00868135 0)
(-0.0103313 0.0102229 0)
(-0.0152359 0.0119683 0)
(-0.0208255 0.0139202 0)
(-0.0271451 0.0160735 0)
(-0.0342301 0.0184155 0)
(-0.0421039 0.0209271 0)
(-0.0507745 0.0235822 0)
(-0.060232 0.0263476 0)
(-0.0704463 0.0291828 0)
(-0.0813655 0.0320402 0)
(-0.092916 0.0348659 0)
(-0.105003 0.0376015 0)
(-0.117515 0.0401862 0)
(-0.130326 0.0425597 0)
(-0.143301 0.0446646 0)
(-0.156303 0.0464496 0)
(-0.169199 0.0478715 0)
(-0.181861 0.0488966 0)
(-0.194176 0.0495018 0)
(-0.206045 0.0496741 0)
(-0.217383 0.0494106 0)
(-0.228123 0.0487167 0)
(-0.238215 0.0476049 0)
(-0.247618 0.0460933 0)
(-0.256307 0.0442037 0)
(-0.264264 0.0419603 0)
(-0.271478 0.0393887 0)
(-0.277946 0.0365146 0)
(-0.283664 0.0333634 0)
(-0.288634 0.0299594 0)
(-0.292857 0.0263259 0)
(-0.296335 0.0224847 0)
(-0.299067 0.0184569 0)
(-0.301054 0.0142622 0)
(-0.302295 0.00991989 0)
(-0.302785 0.00544916 0)
(-0.302522 0.000869322 0)
(-0.301499 -0.00379956 0)
(-0.299709 -0.00853624 0)
(-0.297146 -0.0133174 0)
(-0.293801 -0.0181175 0)
(-0.289667 -0.0229079 0)
(-0.284736 -0.0276569 0)
(-0.279002 -0.0323287 0)
(-0.272462 -0.0368839 0)
(-0.265115 -0.0412789 0)
(-0.256967 -0.0454659 0)
(-0.248025 -0.0493941 0)
(-0.238308 -0.0530093 0)
(-0.22784 -0.0562559 0)
(-0.216657 -0.0590776 0)
(-0.204804 -0.0614196 0)
(-0.192339 -0.06323 0)
(-0.179332 -0.0644627 0)
(-0.165868 -0.0650794 0)
(-0.152042 -0.0650518 0)
(-0.137961 -0.0643641 0)
(-0.123742 -0.0630143 0)
(-0.109508 -0.0610156 0)
(-0.0953856 -0.0583968 0)
(-0.0815034 -0.0552017 0)
(-0.0679854 -0.0514882 0)
(-0.0549495 -0.0473262 0)
(-0.0425034 -0.0427949 0)
(-0.0307431 -0.0379804 0)
(-0.0197509 -0.0329723 0)
(-0.00959487 -0.0278612 0)
(-0.000329096 -0.0227365 0)
(0.00800566 -0.0176839 0)
(0.015381 -0.0127843 0)
(0.0217802 -0.00811219 0)
(0.0271971 -0.00373501 0)
(0.0316368 0.000288248 0)
(0.0351153 0.00390806 0)
(0.0376603 0.00708566 0)
(0.0393122 0.00979433 0)
(0.0401244 0.0120205 0)
(0.0401631 0.0137643 0)
(0.0395061 0.0150398 0)
(0.0382411 0.0158742 0)
(0.0364627 0.016306 0)
(0.0342688 0.0163828 0)
(0.0317568 0.0161584 0)
(0.0290201 0.0156894 0)
(0.0261447 0.0150319 0)
(0.023207 0.0142382 0)
(0.0202725 0.0133536 0)
(0.0173952 0.0124132 0)
(0.014619 0.0114396 0)
(0.0119792 0.0104402 0)
(0.00950488 0.00940731 0)
(0.00722339 0.00831829 0)
(0.00516384 0.00713953 0)
(0.00336239 0.00583299 0)
(0.00185709 0.00436628 0)
(0.000754866 0.00272503 0)
(8.58281e-05 0.000939479 0)
(8.68014e-05 -0.00150562 0)
(0.000769049 -0.00406557 0)
(0.00186791 -0.00611075 0)
(0.00329617 -0.00758114 0)
(0.00486636 -0.0084574 0)
(0.00645619 -0.00875795 0)
(0.00795135 -0.00853584 0)
(0.00925883 -0.00787061 0)
(0.0103082 -0.00685801 0)
(0.0110504 -0.00559924 0)
(0.0114551 -0.00419117 0)
(0.0115062 -0.00271829 0)
(0.0111976 -0.00124683 0)
(0.0105278 0.000178937 0)
(0.00949542 0.00153817 0)
(0.0080945 0.00283294 0)
(0.00631141 0.00408566 0)
(0.00412244 0.00533493 0)
(0.00149292 0.00662996 0)
(-0.00162224 0.00802427 0)
(-0.00527658 0.00956946 0)
(-0.0095292 0.0113099 0)
(-0.0144411 0.013279 0)
(-0.0200715 0.0154972 0)
(-0.0264739 0.0179719 0)
(-0.0336928 0.020698 0)
(-0.0417603 0.0236595 0)
(-0.0506925 0.0268298 0)
(-0.0604866 0.0301727 0)
(-0.0711175 0.033642 0)
(-0.0825363 0.0371825 0)
(-0.094669 0.0407301 0)
(-0.107418 0.0442142 0)
(-0.120664 0.0475596 0)
(-0.134271 0.0506906 0)
(-0.148093 0.053534 0)
(-0.161982 0.0560231 0)
(-0.17579 0.058101 0)
(-0.189381 0.0597225 0)
(-0.202634 0.0608559 0)
(-0.215442 0.0614824 0)
(-0.227722 0.061596 0)
(-0.239406 0.0612018 0)
(-0.250445 0.0603138 0)
(-0.260806 0.058953 0)
(-0.270467 0.0571452 0)
(-0.279418 0.0549192 0)
(-0.287653 0.0523053 0)
(-0.295175 0.0493335 0)
(-0.301986 0.0460337 0)
(-0.308093 0.0424338 0)
(-0.313502 0.0385602 0)
(-0.318218 0.0344375 0)
(-0.322246 0.0300883 0)
(-0.325589 0.0255334 0)
(-0.328249 0.0207922 0)
(-0.330227 0.015883 0)
(-0.33152 0.0108235 0)
(-0.332124 0.00563104 0)
(-0.332035 0.000323312 0)
(-0.331245 -0.00508107 0)
(-0.329744 -0.0105621 0)
(-0.327522 -0.0160978 0)
(-0.324567 -0.0216631 0)
(-0.320865 -0.0272298 0)
(-0.316402 -0.0327657 0)
(-0.311163 -0.0382342 0)
(-0.305134 -0.0435937 0)
(-0.298304 -0.0487977 0)
(-0.290662 -0.0537942 0)
(-0.282203 -0.0585265 0)
(-0.272926 -0.0629336 0)
(-0.262838 -0.0669507 0)
(-0.251957 -0.0705114 0)
(-0.240308 -0.0735489 0)
(-0.227933 -0.0759983 0)
(-0.214886 -0.0777996 0)
(-0.201236 -0.0789001 0)
(-0.18707 -0.079258 0)
(-0.172488 -0.0788446 0)
(-0.157607 -0.0776474 0)
(-0.142554 -0.0756719 0)
(-0.127466 -0.0729425 0)
(-0.112484 -0.0695029 0)
(-0.0977511 -0.0654148 0)
(-0.0834038 -0.0607558 0)
(-0.0695709 -0.0556165 0)
(-0.0563678 -0.0500967 0)
(-0.0438944 -0.0443014 0)
(-0.032233 -0.0383369 0)
(-0.021448 -0.0323077 0)
(-0.0115875 -0.0263136 0)
(-0.00268417 -0.0204481 0)
(0.00524229 -0.0147968 0)
(0.012183 -0.00943707 0)
(0.0181384 -0.00443771 0)
(0.0231177 0.000141956 0)
(0.0271384 0.0042526 0)
(0.0302275 0.00785603 0)
(0.0324221 0.0109265 0)
(0.0337705 0.0134518 0)
(0.034333 0.0154345 0)
(0.0341808 0.0168916 0)
(0.0333955 0.0178543 0)
(0.0320659 0.0183662 0)
(0.0302857 0.0184809 0)
(0.0281492 0.0182582 0)
(0.0257482 0.0177608 0)
(0.0231686 0.0170499 0)
(0.0204881 0.0161812 0)
(0.0177749 0.0152004 0)
(0.0150873 0.0141396 0)
(0.0124745 0.0130144 0)
(0.00997937 0.0118215 0)
(0.00764115 0.0105394 0)
(0.00550037 0.00913039 0)
(0.0036044 0.00754652 0)
(0.00200227 0.005738 0)
(0.00081847 0.00366394 0)
(9.35549e-05 0.00131151 0)
(9.21e-05 -0.00187817 0)
(0.000809329 -0.00499542 0)
(0.00194814 -0.00742002 0)
(0.00340506 -0.00910519 0)
(0.00497201 -0.0100471 0)
(0.00651389 -0.0102837 0)
(0.00790821 -0.00989087 0)
(0.0090586 -0.00897252 0)
(0.00989496 -0.00764797 0)
(0.0103708 -0.00603929 0)
(0.0104589 -0.00426 0)
(0.0101453 -0.00240614 0)
(0.00942425 -0.000550017 0)
(0.00829144 0.00126329 0)
(0.00673945 0.00301683 0)
(0.00475325 0.00472036 0)
(0.00230735 0.00640656 0)
(-0.000635555 0.00812538 0)
(-0.00412426 0.00993694 0)
(-0.00821698 0.0119037 0)
(-0.0129779 0.014083 0)
(-0.018473 0.016521 0)
(-0.0247649 0.0192486 0)
(-0.0319089 0.0222797 0)
(-0.039948 0.0256113 0)
(-0.0489091 0.029224 0)
(-0.0587994 0.033084 0)
(-0.069603 0.0371436 0)
(-0.0812779 0.0413426 0)
(-0.0937548 0.0456091 0)
(-0.106937 0.0498614 0)
(-0.120703 0.0540111 0)
(-0.134911 0.0579662 0)
(-0.149405 0.0616366 0)
(-0.164023 0.064938 0)
(-0.178608 0.0677967 0)
(-0.19301 0.0701526 0)
(-0.207095 0.0719617 0)
(-0.220751 0.0731963 0)
(-0.233885 0.0738445 0)
(-0.246429 0.0739084 0)
(-0.258331 0.0734015 0)
(-0.26956 0.0723463 0)
(-0.280096 0.0707718 0)
(-0.289931 0.0687105 0)
(-0.299064 0.066197 0)
(-0.307502 0.0632663 0)
(-0.315251 0.0599526 0)
(-0.322322 0.0562884 0)
(-0.328725 0.0523041 0)
(-0.334471 0.0480279 0)
(-0.339568 0.0434856 0)
(-0.344025 0.0387005 0)
(-0.347851 0.0336939 0)
(-0.351049 0.0284851 0)
(-0.353626 0.0230918 0)
(-0.355583 0.0175306 0)
(-0.35692 0.011817 0)
(-0.357637 0.00596643 0)
(-0.35773 -5.48232e-06 0)
(-0.357191 -0.00608225 0)
(-0.356014 -0.0122461 0)
(-0.354184 -0.0184771 0)
(-0.35169 -0.0247522 0)
(-0.348513 -0.031045 0)
(-0.344634 -0.0373248 0)
(-0.340033 -0.0435556 0)
(-0.334684 -0.0496961 0)
(-0.328566 -0.0556986 0)
(-0.321654 -0.0615092 0)
(-0.313925 -0.0670675 0)
(-0.305361 -0.0723069 0)
(-0.295949 -0.0771555 0)
(-0.285681 -0.0815372 0)
(-0.274562 -0.0853734 0)
(-0.262607 -0.0885854 0)
(-0.249848 -0.0910975 0)
(-0.236332 -0.0928401 0)
(-0.222126 -0.0937532 0)
(-0.207319 -0.0937908 0)
(-0.192018 -0.0929239 0)
(-0.176347 -0.0911442 0)
(-0.16045 -0.0884657 0)
(-0.144482 -0.0849263 0)
(-0.128602 -0.0805872 0)
(-0.112974 -0.075531 0)
(-0.097754 -0.0698586 0)
(-0.0830876 -0.0636845 0)
(-0.0691032 -0.0571317 0)
(-0.0559086 -0.0503264 0)
(-0.0435891 -0.0433931 0)
(-0.0322073 -0.0364502 0)
(-0.0218049 -0.0296076 0)
(-0.0124055 -0.0229645 0)
(-0.00401785 -0.0166093 0)
(0.00336015 -0.0106195 0)
(0.00973914 -0.00506208 0)
(0.0151363 6.41147e-06 0)
(0.019575 0.00453984 0)
(0.0230851 0.00850342 0)
(0.0257041 0.0118748 0)
(0.0274786 0.0146456 0)
(0.0284653 0.0168218 0)
(0.028731 0.0184251 0)
(0.0283522 0.0194912 0)
(0.0274129 0.0200687 0)
(0.0260022 0.0202163 0)
(0.0242108 0.0199986 0)
(0.022128 0.019482 0)
(0.0198385 0.0187296 0)
(0.0174202 0.017796 0)
(0.0149433 0.0167223 0)
(0.0124697 0.0155318 0)
(0.0100551 0.0142267 0)
(0.0077515 0.0127869 0)
(0.00561143 0.0111715 0)
(0.00369394 0.00932256 0)
(0.00205897 0.00717232 0)
(0.000843644 0.00465218 0)
(9.65319e-05 0.00170508 0)
(9.67366e-05 -0.00226951 0)
(0.000840373 -0.00595817 0)
(0.00199939 -0.00875371 0)
(0.00345307 -0.0106252 0)
(0.00497371 -0.0115888 0)
(0.00641467 -0.0117074 0)
(0.00764705 -0.0110852 0)
(0.00857304 -0.00985444 0)
(0.00912462 -0.00816108 0)
(0.00925917 -0.00614919 0)
(0.00895311 -0.00394844 0)
(0.00819488 -0.00166451 0)
(0.00697781 0.000627056 0)
(0.00529365 0.00288376 0)
(0.00312718 0.00509599 0)
(0.000452381 0.00728413 0)
(-0.00276956 0.00949319 0)
(-0.00659022 0.0117852 0)
(-0.0110718 0.0142303 0)
(-0.0162835 0.0168972 0)
(-0.0222957 0.019845 0)
(-0.0291751 0.0231161 0)
(-0.0369781 0.0267326 0)
(-0.0457458 0.0306949 0)
(-0.0554996 0.0349818 0)
(-0.0662365 0.0395521 0)
(-0.0779264 0.0443467 0)
(-0.0905094 0.0492902 0)
(-0.103895 0.0542934 0)
(-0.117966 0.0592561 0)
(-0.132576 0.0640717 0)
(-0.147565 0.0686322 0)
(-0.162761 0.072834 0)
(-0.177991 0.0765834 0)
(-0.193091 0.0798018 0)
(-0.207915 0.0824285 0)
(-0.222335 0.0844225 0)
(-0.236249 0.0857618 0)
(-0.249579 0.086442 0)
(-0.262269 0.0864735 0)
(-0.274284 0.0858781 0)
(-0.285603 0.084686 0)
(-0.296217 0.0829328 0)
(-0.306128 0.0806571 0)
(-0.315342 0.0778982 0)
(-0.32387 0.0746952 0)
(-0.331724 0.0710856 0)
(-0.338919 0.0671049 0)
(-0.345469 0.0627862 0)
(-0.351389 0.0581597 0)
(-0.356693 0.053253 0)
(-0.361394 0.0480911 0)
(-0.365507 0.0426963 0)
(-0.369043 0.0370887 0)
(-0.372012 0.0312862 0)
(-0.374424 0.0253048 0)
(-0.376286 0.0191592 0)
(-0.377604 0.0128628 0)
(-0.378381 0.00642867 0)