/*--------------------------------*- C++ -*----------------------------------*\
| =========                 |                                                 |
| \\      /  F ield         | OpenFOAM: The Open Source CFD Toolbox           |
|  \\    /   O peration     | Version:  2406                                  |
|   \\  /    A nd           | Website:  www.openfoam.com                      |
|    \\/     M anipulation  |                                                 |
\*---------------------------------------------------------------------------*/
FoamFile
{
    version     2.0;
    format      ascii;
    arch        "LSB;label=32;scalar=64";
    class       volVectorField;
    location    "51";
    object      U_0;
}
// * * * * * * * * * * * * * * * * * * * * * * * * * * * * * * * * * * * * * //

dimensions      [0 1 -1 0 0 0 0];

internalField   nonuniform List<vector> 
4096
(
(-1.89734e-05 1.14044e-05 0)
(0.000368746 -9.71108e-05 0)
(0.00120037 -0.000177007 0)
(0.00220251 -0.000198138 0)
(0.00316565 -0.000171126 0)
(0.00394017 -0.000122654 0)
(0.00446616 -7.61222e-05 0)
(0.00476219 -4.63868e-05 0)
(0.00489073 -3.88576e-05 0)
(0.00492231 -5.09748e-05 0)
(0.00490856 -7.44739e-05 0)
(0.00486636 -0.000100766 0)
(0.0047752 -0.000123103 0)
(0.0045866 -0.000138135 0)
(0.00423591 -0.000144717 0)
(0.00365158 -0.000143239 0)
(0.00275924 -0.0001324 0)
(0.00148229 -0.000110197 0)
(-0.000256412 -7.42297e-05 0)
(-0.00253268 -2.27778e-05 0)
(-0.00541396 4.62158e-05 0)
(-0.00895044 0.000135587 0)
(-0.0131659 0.00025236 0)
(-0.0180462 0.00040754 0)
(-0.0235303 0.000610227 0)
(-0.0295059 0.000858894 0)
(-0.0358087 0.00113587 0)
(-0.0422255 0.00140881 0)
(-0.0485009 0.00163798 0)
(-0.0543503 0.00178585 0)
(-0.0594786 0.00182495 0)
(-0.0636018 0.00173941 0)
(-0.0664647 0.00151939 0)
(-0.0678449 0.00116793 0)
(-0.0675466 0.000736922 0)
(-0.0653975 0.000235617 0)
(-0.0613583 -0.000324527 0)
(-0.0554749 -0.000906189 0)
(-0.0478709 -0.00146397 0)
(-0.0387723 -0.00194898 0)
(-0.0285126 -0.00231135 0)
(-0.0175264 -0.00250373 0)
(-0.006299 -0.00249669 0)
(0.00455217 -0.00230101 0)
(0.0144193 -0.00185481 0)
(0.0227754 -0.00122157 0)
(0.0291465 -0.000482906 0)
(0.0332421 0.000248379 0)
(0.0350053 0.000869494 0)
(0.0345926 0.00129373 0)
(0.0323816 0.00151049 0)
(0.0288874 0.00151818 0)
(0.0246711 0.00136214 0)
(0.0202592 0.00111887 0)
(0.0160573 0.000858647 0)
(0.0123173 0.000625912 0)
(0.00915056 0.000439511 0)
(0.00656443 0.000301698 0)
(0.00450222 0.000205963 0)
(0.00288005 0.000142047 0)
(0.00162072 9.59843e-05 0)
(0.000686567 4.669e-05 0)
(9.25978e-05 -2.63091e-05 0)
(-7.77039e-05 -9.3507e-05 0)
(6.96707e-05 -0.000356577 0)
(0.00114947 -0.00119358 0)
(0.00301771 -0.00173821 0)
(0.00517054 -0.00186087 0)
(0.00719244 -0.00163589 0)
(0.0087948 -0.00121769 0)
(0.0098471 -0.000760979 0)
(0.0103551 -0.000376124 0)
(0.0104042 -0.000111659 0)
(0.0100963 4.27001e-05 0)
(0.00949583 0.000138968 0)
(0.00859618 0.00024471 0)
(0.007315 0.000421614 0)
(0.00551066 0.000710503 0)
(0.00300481 0.00113496 0)
(-0.0003959 0.00170391 0)
(-0.00488604 0.00242215 0)
(-0.0106506 0.00329231 0)
(-0.0178457 0.00431219 0)
(-0.0265747 0.00547104 0)
(-0.0368561 0.00674577 0)
(-0.0485903 0.00809008 0)
(-0.0615407 0.00942604 0)
(-0.075337 0.0106457 0)
(-0.0895033 0.0116275 0)
(-0.103506 0.0122576 0)
(-0.116805 0.0124457 0)
(-0.128904 0.0121327 0)
(-0.139372 0.0112918 0)
(-0.147856 0.00992689 0)
(-0.154086 0.00807012 0)
(-0.157869 0.00577744 0)
(-0.15907 0.00312049 0)
(-0.15758 0.000185796 0)
(-0.153334 -0.00289456 0)
(-0.146344 -0.00606738 0)
(-0.136694 -0.00922014 0)
(-0.12452 -0.0122244 0)
(-0.110035 -0.014932 0)
(-0.0935417 -0.0171836 0)
(-0.0754444 -0.0188159 0)
(-0.0562445 -0.0196756 0)
(-0.036521 -0.0196418 0)
(-0.0169456 -0.0186724 0)
(0.0017222 -0.0167045 0)
(0.0186964 -0.0138413 0)
(0.0332582 -0.0102347 0)
(0.0448042 -0.00623367 0)
(0.0529455 -0.00219983 0)
(0.0575261 0.00146923 0)
(0.0586451 0.00443623 0)
(0.0566287 0.0065144 0)
(0.0520942 0.00763068 0)
(0.0458494 0.00786752 0)
(0.038735 0.00743508 0)
(0.0314917 0.00659258 0)
(0.0246721 0.0055766 0)
(0.0186067 0.00456096 0)
(0.013428 0.00364863 0)
(0.00913122 0.00287476 0)
(0.00564897 0.00220935 0)
(0.00293054 0.00156343 0)
(0.0010109 0.000836253 0)
(3.55075e-05 0.000109691 0)
(0.000144884 -0.00113012 0)
(0.0017397 -0.00304438 0)
(0.00424371 -0.00415118 0)
(0.0069908 -0.0043221 0)
(0.00945243 -0.00373881 0)
(0.0112837 -0.00272253 0)
(0.0123276 -0.00159155 0)
(0.0125734 -0.000571847 0)
(0.0120874 0.000238288 0)
(0.0109387 0.000866479 0)
(0.00913615 0.00142935 0)
(0.0065941 0.00208038 0)
(0.00313017 0.00296276 0)
(-0.00150535 0.00417508 0)
(-0.00759839 0.00577009 0)
(-0.0154369 0.00776616 0)
(-0.0252698 0.0101563 0)
(-0.0372648 0.012908 0)
(-0.0514473 0.015945 0)
(-0.0676424 0.0191213 0)
(-0.0854452 0.0222116 0)
(-0.104251 0.0249371 0)
(-0.123342 0.0270255 0)
(-0.142002 0.0282698 0)
(-0.159595 0.0285565 0)
(-0.175617 0.0278599 0)
(-0.189688 0.0262174 0)
(-0.201545 0.0237019 0)
(-0.211009 0.0204015 0)
(-0.217965 0.0164086 0)
(-0.222341 0.0118198 0)
(-0.224102 0.00674603 0)
(-0.223235 0.00132092 0)
(-0.219747 -0.00432245 0)
(-0.213604 -0.0101346 0)
(-0.204907 -0.0159759 0)
(-0.19367 -0.0216919 0)
(-0.179992 -0.0270974 0)
(-0.163997 -0.031981 0)
(-0.145889 -0.0361031 0)
(-0.12595 -0.0392081 0)
(-0.104553 -0.0410414 0)
(-0.0821703 -0.0413822 0)
(-0.0593743 -0.0400877 0)
(-0.0368345 -0.0371054 0)
(-0.0152705 -0.0324931 0)
(0.00449437 -0.0264679 0)
(0.0217259 -0.019422 0)
(0.0358642 -0.0118767 0)
(0.0464562 -0.00446023 0)
(0.0533315 0.0022159 0)
(0.0565418 0.00765374 0)
(0.0563125 0.0115763 0)
(0.0531778 0.0138818 0)
(0.04787 0.0146792 0)
(0.0412008 0.0142585 0)
(0.0339525 0.0130094 0)
(0.0267742 0.011326 0)
(0.0201172 0.0095291 0)
(0.0142289 0.0078146 0)
(0.00920647 0.00622531 0)
(0.00509093 0.00465261 0)
(0.00199735 0.00290261 0)
(0.000171903 0.000928849 0)
(0.000197703 -0.00215962 0)
(0.00213453 -0.00536164 0)
(0.00498589 -0.0070168 0)
(0.00792624 -0.0070884 0)
(0.010346 -0.00593602 0)
(0.0118864 -0.00408838 0)
(0.0123966 -0.0020395 0)
(0.0118575 -0.000122558 0)
(0.0102958 0.00153442 0)
(0.00770532 0.00300675 0)
(0.00398463 0.00450302 0)
(-0.00107998 0.0062838 0)
(-0.00779771 0.00857697 0)
(-0.0165231 0.0115314 0)
(-0.0275929 0.0152028 0)
(-0.0412578 0.0195646 0)
(-0.0575939 0.0244972 0)
(-0.0764144 0.0297608 0)
(-0.0972207 0.0349823 0)
(-0.11925 0.039704 0)
(-0.14162 0.043491 0)
(-0.163492 0.0460292 0)
(-0.184186 0.0471608 0)
(-0.203206 0.0468634 0)
(-0.220228 0.0452067 0)
(-0.235061 0.042312 0)
(-0.24761 0.0383213 0)
(-0.257844 0.0333777 0)
(-0.265764 0.0276134 0)
(-0.271381 0.021148 0)
(-0.274698 0.0140937 0)
(-0.275701 0.00656813 0)
(-0.274382 -0.00130415 0)
(-0.270827 -0.00942569 0)
(-0.264963 -0.0177326 0)
(-0.256786 -0.0260523 0)
(-0.24625 -0.0342217 0)
(-0.233356 -0.042015 0)
(-0.21812 -0.0491744 0)
(-0.200612 -0.0553909 0)
(-0.18097 -0.0603228 0)
(-0.159424 -0.0636115 0)
(-0.136309 -0.0649192 0)
(-0.112088 -0.0639785 0)
(-0.0873497 -0.0606365 0)
(-0.0628056 -0.0549127 0)
(-0.0392642 -0.0470555 0)
(-0.0175168 -0.0374706 0)
(0.00165204 -0.0268435 0)
(0.0176314 -0.015952 0)
(0.0300285 -0.00558555 0)
(0.0387271 0.00351837 0)
(0.0438077 0.0108189 0)
(0.0454978 0.0160378 0)
(0.044252 0.0191169 0)
(0.0406829 0.0202381 0)
(0.0354989 0.0197809 0)
(0.0294187 0.0182359 0)
(0.0230745 0.016092 0)
(0.0169447 0.0137259 0)
(0.0113471 0.0113133 0)
(0.00649821 0.00878234 0)
(0.00266956 0.00584937 0)
(0.000265929 0.00221245 0)
(0.000243966 -0.00336694 0)
(0.00239651 -0.00793458 0)
(0.00534627 -0.0100031 0)
(0.00812277 -0.00972517 0)
(0.010064 -0.00772504 0)
(0.0108294 -0.00477969 0)
(0.0102946 -0.00155446 0)
(0.00842928 0.00153952 0)
(0.00519935 0.00439589 0)
(0.000483863 0.0071854 0)
(-0.00597065 0.0102345 0)
(-0.0145256 0.0139087 0)
(-0.0255869 0.018488 0)
(-0.0395043 0.0240988 0)
(-0.0564615 0.0306805 0)
(-0.0763574 0.0379702 0)
(-0.0987217 0.0454987 0)
(-0.122737 0.0526462 0)
(-0.147398 0.0587804 0)
(-0.171731 0.0634083 0)
(-0.194949 0.0662518 0)
(-0.216511 0.0672348 0)
(-0.236092 0.0664262 0)
(-0.253532 0.0639784 0)
(-0.268778 0.0600805 0)
(-0.281845 0.054927 0)
(-0.292785 0.0486997 0)
(-0.30166 0.0415592 0)
(-0.308532 0.0336421 0)
(-0.313444 0.0250645 0)
(-0.316411 0.0159287 0)
(-0.317428 0.00632671 0)
(-0.316508 -0.00366619 0)
(-0.313685 -0.0139895 0)
(-0.308906 -0.0245093 0)
(-0.302092 -0.0351007 0)
(-0.293158 -0.0455807 0)
(-0.282013 -0.0557211 0)
(-0.268574 -0.0652281 0)
(-0.25278 -0.0737448 0)
(-0.234611 -0.0808537 0)
(-0.214122 -0.0860977 0)
(-0.191471 -0.0890132 0)
(-0.166955 -0.0891851 0)
(-0.14104 -0.0863136 0)
(-0.11438 -0.0802931 0)
(-0.0877994 -0.0712856 0)
(-0.0622352 -0.059753 0)
(-0.0386481 -0.0464741 0)
(-0.0178697 -0.0323907 0)
(-0.000505619 -0.018539 0)
(0.0131234 -0.00581526 0)
(0.023026 0.00502879 0)
(0.0293852 0.013514 0)
(0.0324874 0.0194579 0)
(0.0327538 0.0229067 0)
(0.0307158 0.0241389 0)
(0.026989 0.0236185 0)
(0.0222092 0.0218913 0)
(0.0169574 0.0194519 0)
(0.011713 0.0165963 0)
(0.00686954 0.013307 0)
(0.00287573 0.00922137 0)
(0.000293261 0.00374095 0)
(0.000292345 -0.00469782 0)
(0.00254342 -0.0105843 0)
(0.00533117 -0.012811 0)
(0.0075782 -0.0118399 0)
(0.00861107 -0.0086532 0)
(0.00813761 -0.0043073 0)
(0.00606068 0.000383754 0)
(0.00232261 0.00499027 0)
(-0.00319714 0.00949763 0)
(-0.0107714 0.0142045 0)
(-0.0208101 0.0195621 0)
(-0.0337534 0.0259833 0)
(-0.0499442 0.0336795 0)
(-0.0694674 0.0425603 0)
(-0.0920186 0.0522055 0)
(-0.116863 0.0619163 0)
(-0.142948 0.0708652 0)
(-0.169147 0.0783059 0)
(-0.194491 0.0837338 0)
(-0.21829 0.0869251 0)
(-0.240132 0.0878815 0)
(-0.259814 0.0867468 0)
(-0.277279 0.0837378 0)
(-0.292559 0.0790973 0)
(-0.305734 0.0730635 0)
(-0.316904 0.0658537 0)
(-0.326179 0.0576566 0)
(-0.333664 0.0486297 0)
(-0.339455 0.0389011 0)
(-0.343624 0.0285726 0)
(-0.346218 0.0177218 0)
(-0.34727 0.00640195 0)
(-0.346814 -0.00534919 0)
(-0.344872 -0.0174725 0)
(-0.341403 -0.0298658 0)
(-0.336313 -0.0424197 0)
(-0.329493 -0.0549732 0)
(-0.320791 -0.0673121 0)
(-0.310037 -0.0791428 0)
(-0.29704 -0.0900884 0)
(-0.281615 -0.0996822 0)
(-0.263608 -0.107381 0)
(-0.242937 -0.112596 0)
(-0.219645 -0.114743 0)
(-0.193961 -0.11333 0)
(-0.166361 -0.108041 0)
(-0.1376 -0.0988524 0)
(-0.108696 -0.0861223 0)
(-0.0808483 -0.0706348 0)
(-0.0552646 -0.0535272 0)
(-0.0329524 -0.0361285 0)
(-0.0145404 -0.0196903 0)
(-0.000203837 -0.00517337 0)
(0.0102733 0.00677353 0)
(0.0172426 0.0158506 0)
(0.0210846 0.0220352 0)
(0.0222367 0.025516 0)
(0.021196 0.0266859 0)
(0.0185156 0.0260579 0)
(0.0147732 0.0241547 0)
(0.0105218 0.0213301 0)
(0.00628092 0.0175956 0)
(0.00263816 0.0125194 0)
(0.00025883 0.00525068 0)
(0.00034046 -0.00609415 0)
(0.0025379 -0.0131069 0)
(0.00485707 -0.015111 0)
(0.00618093 -0.0130256 0)
(0.0058758 -0.00827341 0)
(0.0037178 -0.00219174 0)
(-0.000372286 0.00429251 0)
(-0.00650809 0.0108262 0)
(-0.0149366 0.0175371 0)
(-0.026071 0.0248595 0)
(-0.0403785 0.0332988 0)
(-0.0581904 0.0431523 0)
(-0.0795055 0.0543225 0)
(-0.103851 0.0662631 0)
(-0.13029 0.0780841 0)
(-0.157615 0.0887905 0)
(-0.184633 0.0975486 0)
(-0.210402 0.103848 0)
(-0.234304 0.107509 0)
(-0.256004 0.108592 0)
(-0.275376 0.107301 0)
(-0.292421 0.103907 0)
(-0.307219 0.098703 0)
(-0.319894 0.0919711 0)
(-0.330593 0.0839701 0)
(-0.339474 0.074925 0)
(-0.346696 0.065023 0)
(-0.352411 0.0544149 0)
(-0.356759 0.0432169 0)
(-0.359858 0.031513 0)
(-0.361805 0.019353 0)
(-0.362679 0.00675483 0)
(-0.362533 -0.00627337 0)
(-0.361392 -0.0196934 0)
(-0.359237 -0.0334496 0)
(-0.355996 -0.0474717 0)
(-0.351558 -0.0616467 0)
(-0.345752 -0.0758062 0)
(-0.338351 -0.089698 0)
(-0.329073 -0.102971 0)
(-0.317589 -0.115158 0)
(-0.303545 -0.125673 0)
(-0.286601 -0.133827 0)
(-0.266491 -0.138877 0)
(-0.243093 -0.140094 0)
(-0.216533 -0.136881 0)
(-0.187286 -0.128902 0)
(-0.156242 -0.11623 0)
(-0.124697 -0.0994697 0)
(-0.0942336 -0.0797874 0)
(-0.0664562 -0.0587924 0)
(-0.0426443 -0.0382247 0)
(-0.0234549 -0.0195557 0)
(-0.0088609 -0.00373241 0)
(0.00161474 0.00880423 0)
(0.00855856 0.018018 0)
(0.012505 0.0240734 0)
(0.0139414 0.02735 0)
(0.0133599 0.028301 0)
(0.0113035 0.0274177 0)
(0.00833942 0.0250459 0)
(0.00505245 0.0211856 0)
(0.00210408 0.0153482 0)
(0.000187543 0.00653218 0)
(0.000377775 -0.0074654 0)
(0.00230613 -0.0152385 0)
(0.00379589 -0.0165254 0)
(0.0037844 -0.0128597 0)
(0.0017328 -0.00615534 0)
(-0.00252335 0.00199817 0)
(-0.00906207 0.010664 0)
(-0.0180726 0.0196137 0)
(-0.0299341 0.0291355 0)
(-0.0451003 0.0397351 0)
(-0.0638979 0.0517809 0)
(-0.0862796 0.065202 0)
(-0.11167 0.0793819 0)
(-0.139006 0.0932899 0)
(-0.166971 0.105789 0)
(-0.194324 0.115956 0)
(-0.220123 0.123256 0)
(-0.243779 0.127528 0)
(-0.264999 0.128874 0)
(-0.28369 0.127547 0)
(-0.299887 0.12387 0)
(-0.313706 0.11819 0)
(-0.325316 0.110844 0)
(-0.334915 0.102143 0)
(-0.342716 0.0923559 0)
(-0.348937 0.0817113 0)
(-0.353785 0.0703898 0)
(-0.357455 0.0585296 0)
(-0.360122 0.0462289 0)
(-0.36194 0.033549 0)
(-0.363042 0.020514 0)
(-0.363537 0.00711749 0)
(-0.36349 -0.00665741 0)
(-0.36293 -0.0208093 0)
(-0.361865 -0.0353305 0)
(-0.360268 -0.0502047 0)
(-0.358058 -0.0653819 0)
(-0.355091 -0.0807635 0)
(-0.351149 -0.0961737 0)
(-0.345925 -0.111337 0)
(-0.339023 -0.125848 0)
(-0.329959 -0.139156 0)
(-0.318185 -0.150553 0)
(-0.303136 -0.159191 0)
(-0.284306 -0.16414 0)
(-0.261365 -0.164486 0)
(-0.234289 -0.159485 0)
(-0.20353 -0.148742 0)
(-0.170129 -0.132419 0)
(-0.135735 -0.111397 0)
(-0.102438 -0.0873126 0)
(-0.0723795 -0.0623475 0)
(-0.0471964 -0.0387333 0)
(-0.0275655 -0.0181603 0)
(-0.0131878 -0.00146366 0)
(-0.00325104 0.0112413 0)
(0.00314592 0.0202188 0)
(0.0067038 0.0258849 0)
(0.00795995 0.0287187 0)
(0.00747341 0.0291778 0)
(0.0058125 0.0275655 0)
(0.00358512 0.023844 0)
(0.00146557 0.0174905 0)
(0.000109449 0.00747424 0)
(0.000387577 -0.00867195 0)
(0.00176259 -0.0166472 0)
(0.00202507 -0.0166408 0)
(0.00027227 -0.0109351 0)
(-0.00390315 -0.00191225 0)
(-0.0105924 0.00866093 0)
(-0.0199206 0.0199241 0)
(-0.0321723 0.0317962 0)
(-0.0477517 0.0446656 0)
(-0.0669747 0.0589239 0)
(-0.0897934 0.0745556 0)
(-0.115605 0.0909383 0)
(-0.143288 0.106954 0)
(-0.171455 0.12134 0)
(-0.198808 0.133063 0)
(-0.22437 0.141529 0)
(-0.247548 0.146569 0)
(-0.268052 0.148307 0)
(-0.285804 0.14704 0)
(-0.300862 0.143149 0)
(-0.313382 0.137041 0)
(-0.323581 0.129119 0)
(-0.331714 0.119757 0)
(-0.338055 0.10928 0)
(-0.342878 0.0979613 0)
(-0.346443 0.0860193 0)
(-0.348986 0.0736168 0)
(-0.350715 0.0608682 0)
(-0.351811 0.0478447 0)
(-0.352432 0.0345802 0)
(-0.352714 0.0210768 0)
(-0.352767 0.0073127 0)
(-0.352654 -0.00674475 0)
(-0.352403 -0.0211285 0)
(-0.35205 -0.0358766 0)
(-0.351617 -0.0510205 0)
(-0.35107 -0.0665697 0)
(-0.350333 -0.0824975 0)
(-0.349251 -0.0987191 0)
(-0.34758 -0.115065 0)
(-0.344961 -0.131249 0)
(-0.340903 -0.146831 0)
(-0.334778 -0.16119 0)
(-0.325836 -0.173501 0)
(-0.313263 -0.182751 0)
(-0.296277 -0.187795 0)
(-0.27428 -0.187484 0)
(-0.247056 -0.180857 0)
(-0.214994 -0.167402 0)
(-0.179286 -0.147336 0)
(-0.141991 -0.121845 0)
(-0.105823 -0.0931342 0)
(-0.073592 -0.0641027 0)
(-0.0473576 -0.0375795 0)
(-0.0277614 -0.015446 0)
(-0.0141175 0.00170753 0)
(-0.00514882 0.0142035 0)
(0.000319244 0.0226079 0)
(0.003144 0.0275704 0)
(0.00399561 0.0295847 0)
(0.00348543 0.0289354 0)
(0.00223466 0.0255538 0)
(0.000894327 0.0189178 0)
(4.85927e-05 0.00807353 0)
(0.000350549 -0.00952349 0)
(0.000836749 -0.0169538 0)
(-0.000531987 -0.01506 0)
(-0.00438385 -0.00688944 0)
(-0.0109582 0.00478727 0)
(-0.0203274 0.0181227 0)
(-0.0326691 0.0323649 0)
(-0.0482916 0.0475664 0)
(-0.0674812 0.0640492 0)
(-0.0902183 0.0818553 0)
(-0.115942 0.100416 0)
(-0.143537 0.118586 0)
(-0.171583 0.134991 0)
(-0.198714 0.148462 0)
(-0.22389 0.158305 0)
(-0.246476 0.164303 0)
(-0.266166 0.166588 0)
(-0.282883 0.165497 0)
(-0.296708 0.161469 0)
(-0.307838 0.154987 0)
(-0.316544 0.14653 0)
(-0.323145 0.136541 0)
(-0.327976 0.125412 0)
(-0.331363 0.113467 0)
(-0.333611 0.100961 0)
(-0.334986 0.088084 0)
(-0.335715 0.0749658 0)
(-0.335982 0.0616859 0)
(-0.33594 0.0482823 0)
(-0.335716 0.0347602 0)
(-0.335421 0.0211025 0)
(-0.335137 0.00727908 0)
(-0.334913 -0.00675007 0)
(-0.334778 -0.0210422 0)
(-0.334783 -0.0356647 0)
(-0.334974 -0.0506741 0)
(-0.33537 -0.0661186 0)
(-0.335961 -0.0820244 0)
(-0.336688 -0.0983856 0)
(-0.33742 -0.115139 0)
(-0.337921 -0.132136 0)
(-0.337816 -0.149101 0)
(-0.336558 -0.165585 0)
(-0.333404 -0.180919 0)
(-0.327423 -0.19418 0)
(-0.317548 -0.204184 0)
(-0.302696 -0.20955 0)
(-0.281958 -0.208833 0)
(-0.254869 -0.200781 0)
(-0.221712 -0.184679 0)
(-0.183819 -0.160753 0)
(-0.143704 -0.13053 0)
(-0.104818 -0.0969266 0)
(-0.0707616 -0.0637631 0)
(-0.0440318 -0.0345718 0)
(-0.0250852 -0.0113317 0)
(-0.012675 0.00579745 0)
(-0.00503383 0.0176263 0)
(-0.000712825 0.02508 0)
(0.00128036 0.0288618 0)
(0.0017101 0.0293347 0)
(0.00124211 0.0264565 0)
(0.000505157 0.0197509 0)
(1.85146e-05 0.00840843 0)
(0.000250119 -0.00979254 0)
(-0.000514359 -0.0157864 0)
(-0.00386548 -0.0114361 0)
(-0.0100696 -0.000440898 0)
(-0.0192157 0.0141626 0)
(-0.0313796 0.0305309 0)
(-0.0467523 0.0480372 0)
(-0.0655572 0.0667388 0)
(-0.0878081 0.0866837 0)
(-0.113034 0.107397 0)
(-0.140196 0.127768 0)
(-0.167879 0.146342 0)
(-0.194655 0.161793 0)
(-0.219396 0.173273 0)
(-0.241396 0.18048 0)
(-0.260311 0.183526 0)
(-0.276057 0.182778 0)
(-0.288736 0.178741 0)
(-0.298583 0.171978 0)
(-0.305929 0.163056 0)
(-0.311154 0.152501 0)
(-0.314654 0.140775 0)
(-0.316806 0.128256 0)
(-0.317947 0.11524 0)
(-0.318366 0.101941 0)
(-0.318296 0.088501 0)
(-0.317917 0.0750063 0)
(-0.317364 0.0614951 0)
(-0.316741 0.0479715 0)
(-0.316127 0.0344157 0)
(-0.315588 0.0207954 0)
(-0.315172 0.00707302 0)
(-0.314908 -0.00679516 0)
(-0.314825 -0.0208719 0)
(-0.314971 -0.0352276 0)
(-0.315395 -0.0499236 0)
(-0.316148 -0.0650213 0)
(-0.317268 -0.080573 0)
(-0.318776 -0.0966199 0)
(-0.32065 -0.113176 0)
(-0.3228 -0.130208 0)
(-0.325026 -0.147602 0)
(-0.326973 -0.165114 0)
(-0.328078 -0.182314 0)
(-0.327527 -0.198513 0)
(-0.324243 -0.212709 0)
(-0.316927 -0.223555 0)
(-0.30419 -0.229404 0)
(-0.284787 -0.228465 0)
(-0.257952 -0.2191 0)
(-0.223823 -0.200299 0)
(-0.183862 -0.172257 0)
(-0.141088 -0.136914 0)
(-0.0998213 -0.098124 0)
(-0.06456 -0.060891 0)
(-0.0381494 -0.0295105 0)
(-0.020561 -0.00582658 0)
(-0.00981311 0.0106613 0)
(-0.00369885 0.0212853 0)
(-0.000586559 0.0271843 0)
(0.00061613 0.0289833 0)
(0.000710131 0.0267772 0)
(0.000345561 0.0201965 0)
(2.25633e-05 0.00860087 0)
(6.966e-05 -0.00923693 0)
(-0.00227353 -0.0128159 0)
(-0.00785592 -0.00551607 0)
(-0.0165482 0.00856766 0)
(-0.0283022 0.0262755 0)
(-0.0431999 0.0458406 0)
(-0.0613723 0.0666966 0)
(-0.0828433 0.0887328 0)
(-0.107256 0.111558 0)
(-0.133704 0.134155 0)
(-0.160836 0.155039 0)
(-0.187183 0.172723 0)
(-0.211517 0.186159 0)
(-0.233031 0.194897 0)
(-0.251322 0.198996 0)
(-0.266284 0.198837 0)
(-0.27803 0.194985 0)
(-0.286832 0.188092 0)
(-0.293075 0.17882 0)
(-0.297199 0.167791 0)
(-0.299656 0.155544 0)
(-0.300866 0.14252 0)
(-0.301198 0.129054 0)
(-0.300953 0.115384 0)
(-0.300365 0.101663 0)
(-0.299602 0.0879794 0)
(-0.298782 0.0743682 0)
(-0.297981 0.0608307 0)
(-0.297249 0.0473432 0)
(-0.296619 0.0338688 0)
(-0.296116 0.0203656 0)
(-0.295757 0.00679212 0)
(-0.295556 -0.00689534 0)
(-0.295534 -0.0207524 0)
(-0.295732 -0.0348374 0)
(-0.296193 -0.049205 0)
(-0.296976 -0.0639112 0)
(-0.298143 -0.0790115 0)
(-0.299756 -0.0945616 0)
(-0.301864 -0.110612 0)
(-0.304485 -0.1272 0)
(-0.307574 -0.144324 0)
(-0.310982 -0.161915 0)
(-0.314394 -0.179779 0)
(-0.317262 -0.197521 0)
(-0.318739 -0.214458 0)
(-0.317644 -0.229524 0)
(-0.312483 -0.241211 0)
(-0.301577 -0.247583 0)
(-0.283333 -0.246439 0)
(-0.256664 -0.235671 0)
(-0.221534 -0.213887 0)
(-0.179546 -0.181234 0)
(-0.134323 -0.140225 0)
(-0.091207 -0.0959972 0)
(-0.0556667 -0.055056 0)
(-0.0306087 -0.0223539 0)
(-0.0151195 0.000827365 0)
(-0.00636967 0.0158731 0)
(-0.00184917 0.0245589 0)
(0.000112742 0.0280448 0)
(0.000605937 0.0267436 0)
(0.000400547 0.0204795 0)
(5.62328e-05 0.00877981 0)
(-0.000194053 -0.00762787 0)
(-0.00436941 -0.00778557 0)
(-0.0122887 0.00284768 0)
(-0.0234588 0.0201475 0)
(-0.0377161 0.0410173 0)
(-0.0550956 0.0637804 0)
(-0.0755987 0.0878115 0)
(-0.0989711 0.112676 0)
(-0.12448 0.137481 0)
(-0.150899 0.160777 0)
(-0.176769 0.180942 0)
(-0.200765 0.196689 0)
(-0.221953 0.207357 0)
(-0.239841 0.212887 0)
(-0.254283 0.21365 0)
(-0.265387 0.210258 0)
(-0.273451 0.203449 0)
(-0.278902 0.193992 0)
(-0.282235 0.182612 0)
(-0.283952 0.16994 0)
(-0.284517 0.156487 0)
(-0.284322 0.142634 0)
(-0.283681 0.128645 0)
(-0.282823 0.114684 0)
(-0.281905 0.100836 0)
(-0.281023 0.087134 0)
(-0.280232 0.0735715 0)
(-0.279556 0.0601203 0)
(-0.279003 0.0467396 0)
(-0.278572 0.0333837 0)
(-0.278261 0.0200085 0)
(-0.278068 0.00657322 0)
(-0.277997 -0.00696203 0)
(-0.278066 -0.0206427 0)
(-0.2783 -0.0345126 0)
(-0.278738 -0.0486132 0)
(-0.279431 -0.0629873 0)
(-0.280443 -0.0776804 0)
(-0.281849 -0.092743 0)
(-0.283728 -0.108232 0)
(-0.286155 -0.124208 0)
(-0.289183 -0.140731 0)
(-0.292811 -0.157837 0)
(-0.296935 -0.175504 0)
(-0.301288 -0.193595 0)
(-0.305353 -0.211763 0)
(-0.308273 -0.229334 0)
(-0.308791 -0.245186 0)
(-0.305248 -0.257634 0)
(-0.295702 -0.26442 0)
(-0.278228 -0.262866 0)
(-0.251413 -0.250311 0)
(-0.215065 -0.224918 0)
(-0.170993 -0.186847 0)
(-0.123581 -0.139488 0)
(-0.0794193 -0.0897943 0)
(-0.0449062 -0.0460615 0)
(-0.0224114 -0.0134307 0)
(-0.0096181 0.00805864 0)
(-0.00302037 0.0207157 0)
(-8.08722e-05 0.0265339 0)
(0.000783972 0.0265063 0)
(0.00060661 0.0207806 0)
(0.000110314 0.00905112 0)
(-0.000525339 -0.00479506 0)
(-0.00665197 -0.000565793 0)
(-0.016885 0.0136459 0)
(-0.0303993 0.0341501 0)
(-0.0468926 0.0581034 0)
(-0.0663282 0.0838731 0)
(-0.08852 0.110647 0)
(-0.112914 0.137577 0)
(-0.138471 0.163312 0)
(-0.163809 0.186156 0)
(-0.187534 0.204575 0)
(-0.208576 0.217625 0)
(-0.226317 0.225054 0)
(-0.240541 0.227163 0)
(-0.25133 0.22459 0)
(-0.258985 0.218151 0)
(-0.263966 0.208723 0)
(-0.266812 0.197148 0)
(-0.268071 0.184163 0)
(-0.268245 0.170361 0)
(-0.267753 0.156181 0)
(-0.266919 0.141918 0)
(-0.265969 0.127749 0)
(-0.265049 0.113761 0)
(-0.26424 0.0999785 0)
(-0.263575 0.0863883 0)
(-0.263059 0.0729545 0)
(-0.26268 0.0596309 0)
(-0.262423 0.0463692 0)
(-0.262268 0.0331232 0)
(-0.262202 0.0198511 0)
(-0.262213 0.00651635 0)
(-0.262302 -0.00691555 0)
(-0.262481 -0.020478 0)
(-0.262769 -0.0342013 0)
(-0.263193 -0.0481141 0)
(-0.263794 -0.0622455 0)
(-0.264625 -0.0766268 0)
(-0.265755 -0.0912951 0)
(-0.267262 -0.106297 0)
(-0.269239 -0.121691 0)
(-0.27178 -0.137551 0)
(-0.274967 -0.15396 0)
(-0.278838 -0.170995 0)
(-0.283339 -0.188689 0)
(-0.288245 -0.206961 0)
(-0.293069 -0.225511 0)
(-0.296947 -0.243671 0)
(-0.298551 -0.260234 0)
(-0.296067 -0.273305 0)
(-0.28731 -0.280239 0)
(-0.270042 -0.277804 0)
(-0.242566 -0.262706 0)
(-0.204597 -0.232653 0)
(-0.158302 -0.188012 0)
(-0.109102 -0.133611 0)
(-0.0651162 -0.0789602 0)
(-0.0333335 -0.0341552 0)
(-0.0145344 -0.00341331 0)
(-0.00478322 0.0150498 0)
(-0.000371648 0.0242473 0)
(0.00102373 0.026074 0)
(0.000869952 0.0211858 0)
(0.000173362 0.00947529 0)
(-0.000886543 -0.00064604 0)
(-0.00895074 0.00884 0)
(-0.0213401 0.0267029 0)
(-0.036933 0.0502828 0)
(-0.0552709 0.077102 0)
(-0.0762194 0.105502 0)
(-0.0993795 0.134386 0)
(-0.123932 0.162483 0)
(-0.148647 0.188104 0)
(-0.172131 0.209508 0)
(-0.193184 0.225413 0)
(-0.21103 0.23528 0)
(-0.225345 0.239254 0)
(-0.236152 0.237951 0)
(-0.243735 0.232245 0)
(-0.248562 0.223118 0)
(-0.251204 0.211539 0)
(-0.25225 0.198367 0)
(-0.252241 0.184298 0)
(-0.251624 0.169841 0)
(-0.250736 0.155336 0)
(-0.249806 0.14098 0)
(-0.248973 0.126863 0)
(-0.248304 0.113005 0)
(-0.247817 0.0993828 0)
(-0.247502 0.0859522 0)
(-0.247336 0.0726607 0)
(-0.247288 0.0594562 0)
(-0.247332 0.046291 0)
(-0.247446 0.0331233 0)
(-0.247611 0.0199172 0)
(-0.247819 0.00664167 0)
(-0.248068 -0.00673122 0)
(-0.248368 -0.0202251 0)
(-0.248732 -0.0338601 0)
(-0.249179 -0.0476551 0)
(-0.249738 -0.0616278 0)
(-0.250448 -0.0757969 0)
(-0.25136 -0.0901845 0)
(-0.252538 -0.104821 0)
(-0.254062 -0.119749 0)
(-0.256029 -0.135033 0)
(-0.25855 -0.150758 0)
(-0.261731 -0.167038 0)
(-0.26565 -0.183993 0)
(-0.270297 -0.201715 0)
(-0.275493 -0.220184 0)
(-0.280771 -0.239139 0)
(-0.285245 -0.257894 0)
(-0.287499 -0.275114 0)
(-0.285547 -0.288609 0)
(-0.276954 -0.295252 0)
(-0.2592 -0.291147 0)
(-0.230369 -0.272299 0)
(-0.190233 -0.236043 0)
(-0.141582 -0.183388 0)
(-0.0913212 -0.121556 0)
(-0.0493539 -0.0634922 0)
(-0.0222154 -0.020229 0)
(-0.00784246 0.00662458 0)
(-0.0011979 0.0207445 0)
(0.00108477 0.0252804 0)
(0.00109091 0.021662 0)
(0.000234209 0.0100573 0)
(-0.00123255 0.00482484 0)
(-0.0110934 0.0202698 0)
(-0.0253778 0.0417358 0)
(-0.0426702 0.0681492 0)
(-0.0623738 0.0974867 0)
(-0.0842379 0.127995 0)
(-0.107658 0.158245 0)
(-0.131622 0.186595 0)
(-0.154823 0.211176 0)
(-0.175979 0.230371 0)
(-0.194144 0.243251 0)
(-0.208837 0.249694 0)
(-0.219985 0.250212 0)
(-0.227822 0.245695 0)
(-0.2328 0.237215 0)
(-0.235503 0.225871 0)
(-0.236554 0.212662 0)
(-0.236533 0.19841 0)
(-0.235919 0.183719 0)
(-0.235071 0.16899 0)
(-0.234226 0.15445 0)
(-0.233521 0.140201 0)
(-0.233015 0.12626 0)
(-0.232716 0.112595 0)
(-0.232605 0.0991525 0)
(-0.232647 0.0858732 0)
(-0.232804 0.0727001 0)
(-0.233045 0.0595835 0)
(-0.233343 0.0464811 0)
(-0.233677 0.0333582 0)
(-0.234034 0.0201857 0)
(-0.234408 0.0069385 0)
(-0.2348 -0.00640533 0)
(-0.235218 -0.0198628 0)
(-0.235671 -0.033448 0)
(-0.236173 -0.0471734 0)
(-0.236745 -0.0610495 0)
(-0.237412 -0.075086 0)
(-0.238207 -0.0892938 0)
(-0.239173 -0.103688 0)
(-0.240368 -0.118292 0)
(-0.241868 -0.133149 0)
(-0.243771 -0.148326 0)
(-0.246197 -0.163926 0)
(-0.249277 -0.180092 0)
(-0.253127 -0.196994 0)
(-0.257781 -0.214786 0)
(-0.263101 -0.233515 0)
(-0.268632 -0.252947 0)
(-0.273441 -0.272342 0)
(-0.275982 -0.290155 0)
(-0.274056 -0.303788 0)
(-0.264958 -0.309469 0)
(-0.245907 -0.302502 0)
(-0.21489 -0.278151 0)
(-0.171974 -0.233629 0)
(-0.121021 -0.171441 0)
(-0.0710802 -0.102727 0)
(-0.033717 -0.0443681 0)
(-0.0127789 -0.00579092 0)
(-0.00292472 0.0153702 0)
(0.000765607 0.0238039 0)
(0.00119323 0.022066 0)
(0.000285922 0.0107528 0)
(-0.00154969 0.0114815 0)
(-0.0129447 0.0334215 0)
(-0.028751 0.0583581 0)
(-0.0472991 0.0872805 0)
(-0.0678533 0.118694 0)
(-0.0900443 0.150705 0)
(-0.113099 0.181551 0)
(-0.13589 0.209317 0)
(-0.157142 0.232109 0)
(-0.175757 0.248558 0)
(-0.191065 0.258136 0)
(-0.202847 0.261125 0)
(-0.211247 0.258359 0)
(-0.21667 0.250966 0)
(-0.219689 0.240164 0)
(-0.22095 0.227111 0)
(-0.221068 0.212777 0)
(-0.220561 0.197893 0)
(-0.219817 0.182944 0)
(-0.219093 0.168209 0)
(-0.21853 0.153809 0)
(-0.218187 0.139764 0)
(-0.218066 0.126036 0)
(-0.218141 0.112562 0)
(-0.21837 0.0992747 0)
(-0.218711 0.0861115 0)
(-0.219127 0.0730193 0)
(-0.21959 0.0599551 0)
(-0.220078 0.0468844 0)
(-0.220578 0.0337798 0)
(-0.221081 0.0206183 0)
(-0.221587 0.00738032 0)
(-0.222097 -0.00595118 0)
(-0.222619 -0.0193894 0)
(-0.223163 -0.0329452 0)
(-0.223738 -0.0466278 0)
(-0.224359 -0.0604441 0)
(-0.225041 -0.0743991 0)
(-0.225805 -0.0884969 0)
(-0.226674 -0.102743 0)
(-0.227684 -0.117145 0)
(-0.228884 -0.131726 0)
(-0.230343 -0.146525 0)
(-0.232158 -0.161616 0)
(-0.234459 -0.177121 0)
(-0.237399 -0.193217 0)
(-0.241127 -0.210128 0)
(-0.245724 -0.228078 0)
(-0.251084 -0.247174 0)
(-0.256743 -0.267195 0)
(-0.261684 -0.287286 0)
(-0.264179 -0.305583 0)
(-0.261755 -0.318898 0)
(-0.251402 -0.322608 0)
(-0.230129 -0.311045 0)
(-0.196 -0.27878 0)
(-0.149769 -0.223481 0)
(-0.0970755 -0.150742 0)
(-0.049956 -0.077693 0)
(-0.0201019 -0.0237411 0)
(-0.00578826 0.00729578 0)
(-5.34638e-05 0.021206 0)
(0.00113586 0.0221773 0)
(0.00032712 0.0114864 0)
(-0.00179091 0.019094 0)
(-0.0143665 0.0479246 0)
(-0.0312755 0.0761324 0)
(-0.0506111 0.107183 0)
(-0.0715091 0.140178 0)
(-0.0934955 0.173062 0)
(-0.115677 0.203782 0)
(-0.136893 0.230264 0)
(-0.155971 0.250718 0)
(-0.172044 0.2641 0)
(-0.184698 0.270296 0)
(-0.193939 0.269963 0)
(-0.200088 0.264214 0)
(-0.203677 0.254365 0)
(-0.205351 0.241728 0)
(-0.205755 0.227451 0)
(-0.20545 0.212424 0)
(-0.204865 0.197256 0)
(-0.204283 0.182299 0)
(-0.203865 0.167713 0)
(-0.203674 0.15353 0)
(-0.203714 0.13971 0)
(-0.203951 0.126179 0)
(-0.204343 0.112861 0)
(-0.204842 0.0996859 0)
(-0.20541 0.086597 0)
(-0.206017 0.0735489 0)
(-0.20664 0.060507 0)
(-0.207265 0.0474445 0)
(-0.207886 0.0343401 0)
(-0.208498 0.0211762 0)
(-0.209105 0.00793733 0)
(-0.20971 -0.00538997 0)
(-0.210321 -0.0188168 0)
(-0.210947 -0.0323524 0)
(-0.211597 -0.0460048 0)
(-0.212281 -0.0597797 0)
(-0.213009 -0.0736808 0)
(-0.213793 -0.0877096 0)
(-0.214646 -0.101866 0)
(-0.215584 -0.116151 0)
(-0.216631 -0.13057 0)
(-0.217829 -0.14514 0)
(-0.219239 -0.159903 0)
(-0.220959 -0.174941 0)
(-0.223127 -0.190397 0)
(-0.225922 -0.206489 0)
(-0.229527 -0.223504 0)
(-0.234062 -0.24174 0)
(-0.239438 -0.261361 0)
(-0.245151 -0.282119 0)
(-0.250045 -0.302951 0)
(-0.252133 -0.321505 0)
(-0.248602 -0.333756 0)
(-0.236119 -0.333965 0)
(-0.211575 -0.315339 0)
(-0.173411 -0.272009 0)
(-0.123657 -0.203331 0)
(-0.0708466 -0.120756 0)
(-0.0305019 -0.0490566 0)
(-0.00991204 -0.00448547 0)
(-0.00142446 0.0169644 0)
(0.000915283 0.0217328 0)
(0.000362263 0.0121743 0)
(-0.00192722 0.0273957 0)
(-0.0152739 0.0633607 0)
(-0.0328452 0.0946041 0)
(-0.0525076 0.127379 0)
(-0.0732848 0.161448 0)
(-0.0946207 0.194609 0)
(-0.115555 0.224578 0)
(-0.134957 0.249237 0)
(-0.151814 0.266993 0)
(-0.16549 0.277174 0)
(-0.175799 0.280069 0)
(-0.18293 0.276666 0)
(-0.187338 0.268313 0)
(-0.189635 0.256459 0)
(-0.190482 0.242447 0)
(-0.190482 0.227365 0)
(-0.190111 0.211984 0)
(-0.189695 0.196771 0)
(-0.189422 0.181951 0)
(-0.189371 0.167582 0)
(-0.189551 0.153627 0)
(-0.189931 0.140005 0)
(-0.190464 0.126629 0)
(-0.191101 0.11342 0)
(-0.191801 0.100314 0)
(-0.192534 0.0872624 0)
(-0.193276 0.0742292 0)
(-0.194014 0.0611877 0)
(-0.194739 0.0481176 0)
(-0.19545 0.0350026 0)
(-0.196146 0.0218289 0)
(-0.196832 0.0085842 0)