/*--------------------------------*- C++ -*----------------------------------*\
| =========                 |                                                 |
| \\      /  F ield         | OpenFOAM: The Open Source CFD Toolbox           |
|  \\    /   O peration     | Version:  2406                                  |
|   \\  /    A nd           | Website:  www.openfoam.com                      |
|    \\/     M anipulation  |                                                 |
\*---------------------------------------------------------------------------*/
FoamFile
{
    version     2.0;
    format      ascii;
    arch        "LSB;label=32;scalar=64";
    class       volVectorField;
    location    "38.95";
    object      U;
}
// * * * * * * * * * * * * * * * * * * * * * * * * * * * * * * * * * * * * * //

dimensions      [0 1 -1 0 0 0 0];

internalField   nonuniform List<vector> 
14400
(
(-1.79746e-05 1.79232e-05 0)
(-6.77468e-07 -1.15787e-05 0)
(0.000110577 -4.36027e-05 0)
(0.000301276 -7.19452e-05 0)
(0.000559902 -8.87538e-05 0)
(0.000852659 -9.80739e-05 0)
(0.00116445 -9.89551e-05 0)
(0.001469 -9.44873e-05 0)
(0.00175556 -8.51909e-05 0)
(0.00200896 -7.34129e-05 0)
(0.00222536 -6.01508e-05 0)
(0.00240001 -4.70965e-05 0)
(0.00253561 -3.50622e-05 0)
(0.00263484 -2.4973e-05 0)
(0.00270429 -1.71238e-05 0)
(0.00274991 -1.1703e-05 0)
(0.00277875 -8.47519e-06 0)
(0.00279627 -7.08608e-06 0)
(0.00280712 -6.95492e-06 0)
(0.00281377 -7.47e-06 0)
(0.00281705 -7.97573e-06 0)
(0.00281571 -7.89832e-06 0)
(0.00280697 -6.75256e-06 0)
(0.00278661 -4.19793e-06 0)
(0.00274955 -1.7846e-08 0)
(0.00269009 5.88855e-06 0)
(0.00260224 1.35551e-05 0)
(0.00247986 2.29831e-05 0)
(0.00231678 3.41817e-05 0)
(0.00210671 4.71841e-05 0)
(0.00184327 6.20543e-05 0)
(0.00151989 7.88752e-05 0)
(0.00112985 9.77327e-05 0)
(0.00066635 0.000118694 0)
(0.000122589 0.000141794 0)
(-0.00050804 0.000167014 0)
(-0.00123176 0.000194281 0)
(-0.0020542 0.000223453 0)
(-0.00298011 0.000254317 0)
(-0.00401316 0.000286588 0)
(-0.00515567 0.000319903 0)
(-0.00640835 0.000353826 0)
(-0.0077701 0.00038785 0)
(-0.00923782 0.000421403 0)
(-0.0108062 0.000453855 0)
(-0.0124677 0.000484531 0)
(-0.0142123 0.000512724 0)
(-0.0160278 0.000537702 0)
(-0.0178995 0.000558727 0)
(-0.0198105 0.000575065 0)
(-0.0217418 0.000585996 0)
(-0.0236725 0.00059083 0)
(-0.0255799 0.000588911 0)
(-0.0274398 0.000579628 0)
(-0.029227 0.000562427 0)
(-0.0309152 0.000536819 0)
(-0.0324776 0.000502398 0)
(-0.0338872 0.000458854 0)
(-0.0351171 0.000405993 0)
(-0.0361412 0.000343763 0)
(-0.0369342 0.000272282 0)
(-0.0374725 0.000191862 0)
(-0.0377346 0.000103041 0)
(-0.0377017 6.61248e-06 0)
(-0.0373581 -9.63518e-05 0)
(-0.0366922 -0.000204483 0)
(-0.035697 -0.000316104 0)
(-0.0343706 -0.00042924 0)
(-0.0327168 -0.000541632 0)
(-0.0307458 -0.000650781 0)
(-0.0284744 -0.000754004 0)
(-0.0259261 -0.000848522 0)
(-0.0231314 -0.000931555 0)
(-0.0201275 -0.00100045 0)
(-0.0169576 -0.00105279 0)
(-0.0136703 -0.00108658 0)
(-0.0103183 -0.00110031 0)
(-0.00695747 -0.00109312 0)
(-0.00364474 -0.00106489 0)
(-0.00043676 -0.00101626 0)
(0.00261218 -0.000948664 0)
(0.00545194 -0.000864278 0)
(0.00803823 -0.000765933 0)
(0.0103342 -0.00065697 0)
(0.0123117 -0.000541068 0)
(0.0139519 -0.000422044 0)
(0.0152461 -0.000303648 0)
(0.016195 -0.000189372 0)
(0.016809 -8.22775e-05 0)
(0.0171065 1.51285e-05 0)
(0.0171132 0.000100973 0)
(0.0168604 0.000174045 0)
(0.016383 0.000233785 0)
(0.0157185 0.000280218 0)
(0.0149049 0.000313881 0)
(0.0139795 0.000335714 0)
(0.0129773 0.000346956 0)
(0.0119304 0.000349031 0)
(0.0108672 0.000343463 0)
(0.00981178 0.000331771 0)
(0.00878393 0.000315431 0)
(0.00779922 0.000295777 0)
(0.00686895 0.000274029 0)
(0.00600102 0.000251196 0)
(0.00519967 0.000228174 0)
(0.00446691 0.000205616 0)
(0.00380171 0.00018414 0)
(0.0032022 0.000164074 0)
(0.0026638 0.000145842 0)
(0.00218274 0.000129434 0)
(0.0017525 0.000115103 0)
(0.0013698 0.000102304 0)
(0.00102824 9.10447e-05 0)
(0.000728343 7.98067e-05 0)
(0.000466956 6.83417e-05 0)
(0.000252213 5.36486e-05 0)
(8.71514e-05 3.61926e-05 0)
(-1.3658e-05 1.24297e-05 0)
(-4.65674e-05 -9.45063e-06 0)
(-2.24611e-05 -2.20021e-05 0)
(1.03366e-05 1.36995e-06 0)
(0.000155137 -0.000158441 0)
(0.000493995 -0.000320651 0)
(0.000986583 -0.000463748 0)
(0.0016171 -0.000557698 0)
(0.00232115 -0.000610718 0)
(0.00306521 -0.000619932 0)
(0.00379548 -0.000596084 0)
(0.00448428 -0.000544227 0)
(0.00509864 -0.00047489 0)
(0.00562569 -0.000395208 0)
(0.00605375 -0.000313711 0)
(0.00638489 -0.000236078 0)
(0.00662324 -0.000167317 0)
(0.00678037 -0.000109885 0)
(0.00686781 -6.48929e-05 0)
(0.00689895 -3.14697e-05 0)
(0.00688447 -7.60763e-06 0)
(0.0068329 9.84588e-06 0)
(0.00674824 2.45047e-05 0)
(0.00663056 4.02005e-05 0)
(0.00647523 6.04727e-05 0)
(0.00627386 8.83616e-05 0)
(0.00601465 0.000126178 0)
(0.00568348 0.000175518 0)
(0.00526448 0.000237325 0)
(0.00474088 0.000312089 0)
(0.00409537 0.000400035 0)
(0.00331042 0.000501295 0)
(0.00236846 0.000616003 0)
(0.00125194 0.000744316 0)
(-5.65113e-05 0.000886354 0)
(-0.00157385 0.00104211 0)
(-0.00331626 0.00121133 0)
(-0.00529872 0.00139345 0)
(-0.0075344 0.00158744 0)
(-0.010034 0.00179186 0)
(-0.0128053 0.00200473 0)
(-0.015852 0.00222357 0)
(-0.0191738 0.0024454 0)
(-0.0227652 0.00266677 0)
(-0.0266155 0.00288383 0)
(-0.0307081 0.00309236 0)
(-0.0350208 0.00328789 0)
(-0.0395251 0.00346578 0)
(-0.0441873 0.00362137 0)
(-0.0489679 0.00375004 0)
(-0.0538227 0.00384737 0)
(-0.0587031 0.00390921 0)
(-0.0635573 0.00393178 0)
(-0.0683304 0.00391176 0)
(-0.072966 0.00384633 0)
(-0.0774067 0.00373324 0)
(-0.0815947 0.00357085 0)
(-0.0854734 0.00335812 0)
(-0.0889874 0.0030947 0)
(-0.0920839 0.0027809 0)
(-0.0947128 0.00241775 0)
(-0.0968279 0.00200701 0)
(-0.0983871 0.0015512 0)
(-0.0993534 0.00105367 0)
(-0.0996952 0.000518602 0)
(-0.0993869 -4.89103e-05 0)
(-0.0984097 -0.000642845 0)
(-0.0967519 -0.00125622 0)
(-0.0944097 -0.00188108 0)
(-0.0913876 -0.00250854 0)
(-0.087699 -0.00312882 0)
(-0.0833667 -0.00373137 0)
(-0.078423 -0.00430504 0)
(-0.07291 -0.00483829 0)
(-0.0668799 -0.00531949 0)
(-0.0603944 -0.00573727 0)
(-0.0535245 -0.00608087 0)
(-0.0463498 -0.00634065 0)
(-0.0389575 -0.00650848 0)
(-0.0314408 -0.00657824 0)
(-0.0238975 -0.00654618 0)
(-0.016428 -0.00641126 0)
(-0.00913287 -0.00617545 0)
(-0.00211081 -0.00584377 0)
(0.00454423 -0.00542428 0)
(0.0107454 -0.00492787 0)
(0.0164153 -0.00436792 0)
(0.0214884 -0.00375977 0)
(0.0259128 -0.00312007 0)
(0.0296519 -0.00246614 0)
(0.0326848 -0.00181513 0)
(0.0350075 -0.00118338 0)
(0.0366321 -0.000585695 0)
(0.0375861 -3.47704e-05 0)
(0.0379111 0.000459202 0)
(0.0376609 0.000888842 0)
(0.0368987 0.00124967 0)
(0.0356951 0.00154005 0)
(0.0341245 0.00176099 0)
(0.0322627 0.00191584 0)
(0.0301841 0.00200978 0)
(0.0279592 0.00204945 0)
(0.0256524 0.00204239 0)
(0.023321 0.0019966 0)
(0.0210139 0.00192005 0)
(0.018771 0.00182047 0)
(0.0166236 0.00170489 0)
(0.0145944 0.0015797 0)
(0.0126988 0.00145024 0)
(0.0109448 0.00132121 0)
(0.0093357 0.00119604 0)
(0.00786834 0.00107776 0)
(0.00653889 0.000967623 0)
(0.00533775 0.00086685 0)
(0.00425976 0.000773748 0)
(0.00329448 0.000687313 0)
(0.00244298 0.000601547 0)
(0.00170017 0.000513705 0)
(0.00108043 0.000413044 0)
(0.000586488 0.000300687 0)
(0.000242937 0.000167168 0)
(4.56227e-05 4.30135e-05 0)
(-9.64612e-06 -4.65285e-05 0)
(3.94637e-05 -0.00010463 0)
(0.000307543 -0.000494295 0)
(0.00085341 -0.000870796 0)
(0.00159423 -0.0011936 0)
(0.00251268 -0.00141255 0)
(0.00352048 -0.00153389 0)
(0.00457459 -0.00155481 0)
(0.00560336 -0.00149434 0)
(0.00656891 -0.00136647 0)
(0.00742659 -0.00119345 0)
(0.00815709 -0.000993406 0)
(0.00874329 -0.000785492 0)
(0.0091854 -0.000584034 0)
(0.00948692 -0.000400662 0)
(0.00966067 -0.000241841 0)
(0.00971982 -0.00011021 0)
(0.00967967 -4.02314e-06 0)
(0.00955199 8.15842e-05 0)
(0.00934537 0.000154128 0)
(0.00906229 0.000222486 0)
(0.00869953 0.000296048 0)
(0.00824743 0.00038365 0)
(0.00769097 0.000492925 0)
(0.00701034 0.000629822 0)
(0.00618236 0.000798532 0)
(0.00518142 0.00100165 0)
(0.00398059 0.00124058 0)
(0.00255233 0.00151593 0)
(0.000869066 0.00182785 0)
(-0.00109637 0.00217628 0)
(-0.00337029 0.00256088 0)
(-0.00597765 0.00298094 0)
(-0.00894139 0.00343513 0)
(-0.0122816 0.00392123 0)
(-0.0160145 0.00443593 0)
(-0.0201517 0.00497466 0)
(-0.0246985 0.0055315 0)
(-0.0296538 0.00609917 0)
(-0.0350083 0.00666912 0)
(-0.0407445 0.00723159 0)
(-0.0468359 0.00777588 0)
(-0.0532468 0.00829056 0)
(-0.059933 0.00876376 0)
(-0.0668416 0.00918355 0)
(-0.0739124 0.00953822 0)
(-0.0810787 0.00981668 0)
(-0.0882689 0.0100088 0)
(-0.0954076 0.0101055 0)
(-0.102418 0.0100993 0)
(-0.109221 0.00998414 0)
(-0.115741 0.00975573 0)
(-0.121903 0.00941139 0)
(-0.127635 0.00895015 0)
(-0.13287 0.00837263 0)
(-0.137547 0.00768101 0)
(-0.141608 0.00687888 0)
(-0.145004 0.00597122 0)
(-0.147689 0.00496428 0)
(-0.149625 0.00386557 0)
(-0.15078 0.00268382 0)
(-0.15113 0.00142897 0)
(-0.150656 0.000112256 0)
(-0.149347 -0.00125384 0)
(-0.147197 -0.00265547 0)
(-0.144209 -0.00407744 0)
(-0.140393 -0.00550319 0)
(-0.135766 -0.00691482 0)
(-0.130355 -0.00829317 0)
(-0.124192 -0.00961804 0)
(-0.11732 -0.0108684 0)
(-0.10979 -0.0120227 0)
(-0.101662 -0.0130594 0)
(-0.0930053 -0.0139575 0)
(-0.0838966 -0.014697 0)
(-0.0744219 -0.0152601 0)
(-0.0646746 -0.0156313 0)
(-0.0547545 -0.0157987 0)
(-0.0447668 -0.0157542 0)
(-0.0348205 -0.0154949 0)
(-0.0250264 -0.0150226 0)
(-0.0154952 -0.0143451 0)
(-0.00633513 -0.0134756 0)
(0.00235045 -0.0124326 0)
(0.0104654 -0.0112399 0)
(0.0179232 -0.0099252 0)
(0.0246489 -0.00851992 0)
(0.0305817 -0.00705762 0)
(0.0356756 -0.00557292 0)
(0.0399017 -0.00410027 0)
(0.0432484 -0.00267261 0)
(0.0457217 -0.00132019 0)
(0.0473452 -6.95042e-05 0)
(0.0481594 0.0010576 0)
(0.0482198 0.00204459 0)
(0.0475953 0.00288066 0)
(0.0463656 0.0035608 0)
(0.0446182 0.00408565 0)
(0.0424448 0.00446098 0)
(0.0399387 0.00469701 0)
(0.0371906 0.00480742 0)
(0.0342862 0.00480842 0)
(0.0313037 0.00471763 0)
(0.0283115 0.00455314 0)
(0.0253678 0.00433255 0)
(0.022519 0.0040725 0)
(0.0198012 0.00378781 0)
(0.017239 0.00349166 0)
(0.0148491 0.00319462 0)
(0.0126379 0.00290554 0)
(0.0106087 0.00262965 0)
(0.00875578 0.00237061 0)
(0.00707732 0.00212661 0)
(0.0055632 0.00189508 0)
(0.00421716 0.00166506 0)
(0.00303254 0.0014291 0)
(0.00202878 0.00116829 0)
(0.00120453 0.000882314 0)
(0.000595985 0.000558589 0)
(0.000190336 0.000247385 0)
(1.65448e-05 -7.73292e-06 0)
(6.48418e-05 -0.00028313 0)
(0.000442986 -0.000976622 0)
(0.00116675 -0.00160908 0)
(0.00210729 -0.0021315 0)
(0.0032448 -0.00248483 0)
(0.00446989 -0.0026736 0)
(0.00573537 -0.00269716 0)
(0.006957 -0.00258291 0)
(0.008092 -0.0023552 0)
(0.00908804 -0.00204903 0)
(0.00992226 -0.00169494 0)
(0.0105735 -0.00132393 0)
(0.01104 -0.00096004 0)
(0.0113237 -0.000622294 0)
(0.0114362 -0.000321575 0)
(0.0113894 -6.20701e-05 0)
(0.0111973 0.000159221 0)
(0.0108691 0.000350748 0)
(0.0104102 0.000525402 0)
(0.0098184 0.000698494 0)
(0.00908474 0.000886189 0)
(0.00819254 0.00110375 0)
(0.0071188 0.00136439 0)
(0.00583498 0.00167843 0)
(0.00430874 0.00205315 0)
(0.00250513 0.00249306 0)
(0.000388092 0.00300041 0)
(-0.00207864 0.00357587 0)
(-0.00493043 0.004219 0)
(-0.00820098 0.00492844 0)
(-0.0119213 0.0057019 0)
(-0.0161185 0.00653582 0)
(-0.0208148 0.007425 0)
(-0.0260259 0.00836219 0)
(-0.0317596 0.00933781 0)
(-0.0380142 0.0103398 0)
(-0.0447776 0.0113536 0)
(-0.0520263 0.0123625 0)
(-0.0597245 0.0133477 0)
(-0.0678246 0.0142889 0)
(-0.0762671 0.0151651 0)
(-0.0849823 0.015955 0)
(-0.093891 0.0166378 0)
(-0.102907 0.0171942 0)
(-0.11194 0.0176063 0)
(-0.120895 0.0178591 0)
(-0.12968 0.0179403 0)
(-0.138203 0.0178407 0)
(-0.146375 0.0175542 0)
(-0.154114 0.0170781 0)
(-0.161345 0.0164125 0)
(-0.167999 0.0155603 0)
(-0.174015 0.0145268 0)
(-0.17934 0.0133193 0)
(-0.183929 0.0119468 0)
(-0.187742 0.0104199 0)
(-0.190749 0.0087505 0)
(-0.192925 0.00695136 0)
(-0.194249 0.00503644 0)
(-0.194709 0.00302063 0)
(-0.194294 0.000919868 0)
(-0.193002 -0.00124881 0)
(-0.190833 -0.00346714 0)
(-0.187791 -0.0057155 0)
(-0.183887 -0.00797279 0)
(-0.179136 -0.0102164 0)
(-0.173559 -0.0124219 0)
(-0.167181 -0.0145637 0)
(-0.160035 -0.0166145 0)
(-0.152159 -0.0185458 0)
(-0.143601 -0.0203284 0)
(-0.134414 -0.0219329 0)
(-0.12466 -0.0233302 0)
(-0.11441 -0.0244925 0)
(-0.103742 -0.0253941 0)
(-0.0927427 -0.0260127 0)
(-0.0815056 -0.0263299 0)
(-0.0701311 -0.0263327 0)
(-0.0587247 -0.0260144 0)
(-0.0473955 -0.0253751 0)
(-0.0362545 -0.0244225 0)
(-0.0254126 -0.0231717 0)
(-0.014978 -0.0216459 0)
(-0.00505472 -0.0198751 0)
(0.00426047 -0.0178961 0)
(0.0128796 -0.0157509 0)
(0.0207254 -0.0134857 0)
(0.0277336 -0.0111494 0)
(0.0338535 -0.00879179 0)
(0.03905 -0.00646244 0)
(0.0433039 -0.0042086 0)
(0.046613 -0.00207396 0)
(0.0489918 -9.71841e-05 0)
(0.050472 0.0016893 0)
(0.0511012 0.00326031 0)
(0.0509424 0.00459863 0)
(0.0500714 0.00569535 0)
(0.048575 0.0065499 0)
(0.0465476 0.00716954 0)
(0.044088 0.00756856 0)
(0.0412954 0.00776707 0)
(0.0382665 0.00778944 0)
(0.0350914 0.00766291 0)
(0.0318521 0.00741575 0)
(0.028619 0.00707615 0)
(0.0254516 0.00667059 0)
(0.0223958 0.00622351 0)
(0.0194876 0.00575559 0)
(0.0167492 0.00528447 0)
(0.0141977 0.00482218 0)
(0.0118369 0.00437719 0)
(0.00967409 0.00394975 0)
(0.00770338 0.0035372 0)
(0.00593446 0.00312529 0)
(0.00436002 0.00270233 0)
(0.00300577 0.00224263 0)
(0.00186497 0.00174227 0)
(0.000988626 0.00118452 0)
(0.000357312 0.000625848 0)
(4.76672e-05 0.000114985 0)
(8.07829e-05 -0.00052666 0)
(0.000541566 -0.00160001 0)
(0.00140635 -0.00253384 0)
(0.00250367 -0.00327769 0)
(0.00380762 -0.00377229 0)
(0.00518733 -0.00402198 0)
(0.00659161 -0.00403182 0)
(0.00792553 -0.00383869 0)
(0.00914379 -0.00347961 0)
(0.0101889 -0.00300369 0)
(0.0110367 -0.00245553 0)
(0.0116636 -0.00187896 0)
(0.0120668 -0.0013086 0)
(0.0122462 -0.000771126 0)
(0.0122118 -0.000281817 0)
(0.0119724 0.000154101 0)
(0.0115383 0.000541699 0)
(0.0109137 0.000894139 0)
(0.0100978 0.00123096 0)
(0.0090813 0.00157522 0)
(0.00784681 0.00195106 0)
(0.0063687 0.00238119 0)
(0.00461464 0.00288507 0)
(0.00254673 0.00347775 0)
(0.00012362 0.00416962 0)
(-0.00269794 0.00496672 0)
(-0.00596127 0.00587149 0)
(-0.00970834 0.0068835 0)
(-0.0139783 0.00800009 0)
(-0.0188058 0.00921644 0)
(-0.0242197 0.0105254 0)
(-0.0302409 0.0119171 0)
(-0.0368807 0.0133783 0)
(-0.0441387 0.0148921 0)
(-0.0520014 0.0164377 0)
(-0.0604409 0.0179907 0)
(-0.0694142 0.019523 0)
(-0.0788631 0.0210043 0)
(-0.0887153 0.0224024 0)
(-0.0988858 0.0236846 0)
(-0.109279 0.0248189 0)
(-0.119793 0.0257754 0)
(-0.13032 0.0265271 0)
(-0.140753 0.0270512 0)
(-0.150985 0.0273296 0)
(-0.160918 0.0273492 0)
(-0.170456 0.0271022 0)
(-0.179518 0.0265859 0)
(-0.188026 0.0258018 0)
(-0.195918 0.0247558 0)
(-0.20314 0.0234567 0)
(-0.209644 0.0219164 0)
(-0.215397 0.0201485 0)
(-0.220367 0.0181682 0)
(-0.224533 0.0159917 0)
(-0.227877 0.0136358 0)
(-0.230388 0.011118 0)
(-0.232055 0.00845608 0)
(-0.232874 0.00566823 0)
(-0.23284 0.00277322 0)
(-0.231953 -0.000209498 0)
(-0.230212 -0.0032595 0)
(-0.227621 -0.00635515 0)
(-0.224185 -0.00947331 0)
(-0.21991 -0.0125891 0)
(-0.214807 -0.0156756 0)
(-0.208889 -0.018704 0)
(-0.202174 -0.0216429 0)
(-0.194685 -0.0244591 0)
(-0.18645 -0.0271176 0)
(-0.177505 -0.0295817 0)
(-0.167893 -0.031814 0)
(-0.157663 -0.033777 0)
(-0.146875 -0.0354342 0)
(-0.135598 -0.0367513 0)
(-0.123909 -0.0376974 0)
(-0.111895 -0.0382466 0)
(-0.0996489 -0.0383791 0)
(-0.0872734 -0.0380827 0)
(-0.0748753 -0.0373538 0)
(-0.0625654 -0.0361984 0)
(-0.0504563 -0.0346322 0)
(-0.0386599 -0.032681 0)
(-0.0272854 -0.0303801 0)
(-0.0164363 -0.0277733 0)
(-0.00620903 -0.0249119 0)
(0.00330927 -0.0218532 0)
(0.0120423 -0.0186584 0)
(0.0199259 -0.0153914 0)
(0.0269089 -0.0121162 0)
(0.0329538 -0.00889563 0)
(0.0380377 -0.00578959 0)
(0.0421525 -0.00285314 0)
(0.0453056 -0.000135204 0)
(0.0475198 0.00232291 0)
(0.0488336 0.00448868 0)
(0.0493005 0.0063394 0)
(0.0489884 0.00786278 0)
(0.0479773 0.0090572 0)
(0.0463576 0.00993133 0)
(0.044226 0.0105033 0)
(0.0416836 0.0107994 0)
(0.03883 0.0108519 0)
(0.0357619 0.0106974 0)
(0.0325678 0.0103746 0)
(0.0293276 0.00992203 0)
(0.0261079 0.00937652 0)
(0.0229657 0.0087711 0)
(0.0199418 0.00813469 0)
(0.0170709 0.00748898 0)
(0.014371 0.00684988 0)
(0.0118623 0.00622241 0)
(0.00954688 0.00560579 0)
(0.00744375 0.00498472 0)
(0.0055475 0.00434378 0)
(0.00389281 0.00365187 0)
(0.00247014 0.00289845 0)
(0.00134917 0.00206093 0)
(0.000508029 0.00118848 0)
(7.42217e-05 0.000323146 0)
(9.28478e-05 -0.000809559 0)
(0.000618393 -0.0023173 0)
(0.00159242 -0.00357987 0)
(0.00280758 -0.00455018 0)
(0.00422925 -0.00517627 0)
(0.00570633 -0.00546663 0)
(0.00718315 -0.00543618 0)
(0.0085557 -0.00513341 0)
(0.00977757 -0.00461005 0)
(0.0107882 -0.00393014 0)
(0.0115637 -0.00315296 0)
(0.0120794 -0.002335 0)
(0.0123325 -0.00152101 0)
(0.0123207 -0.000744454 0)
(0.0120514 -2.39057e-05 0)
(0.0115292 0.000635636 0)
(0.0107583 0.00124262 0)
(0.00973574 0.00181621 0)
(0.0084519 0.00238371 0)
(0.00688752 0.00297678 0)
(0.00501498 0.00362807 0)
(0.0027981 0.0043678 0)
(0.000194533 0.00522137 0)
(-0.00284275 0.00620785 0)
(-0.00636274 0.00733962 0)
(-0.0104145 0.00862279 0)
(-0.0150448 0.010058 0)
(-0.0202961 0.0116414 0)
(-0.0262046 0.0133649 0)
(-0.0327977 0.0152165 0)
(-0.0400918 0.0171796 0)
(-0.0480901 0.019233 0)
(-0.0567801 0.0213498 0)
(-0.0661321 0.0234981 0)
(-0.0760986 0.0256408 0)
(-0.0866135 0.0277366 0)
(-0.0975939 0.0297414 0)
(-0.108942 0.0316099 0)
(-0.120548 0.0332974 0)
(-0.132295 0.0347619 0)
(-0.144061 0.0359657 0)
(-0.155727 0.0368769 0)
(-0.167178 0.0374704 0)
(-0.178306 0.0377288 0)
(-0.189016 0.037642 0)
(-0.199223 0.037207 0)
(-0.208857 0.0364272 0)
(-0.21786 0.0353113 0)
(-0.226184 0.0338726 0)
(-0.233795 0.0321273 0)
(-0.240664 0.030094 0)
(-0.246773 0.0277926 0)
(-0.252108 0.0252438 0)
(-0.256661 0.0224683 0)
(-0.260424 0.0194866 0)
(-0.263396 0.016319 0)
(-0.265572 0.0129852 0)
(-0.266952 0.00950469 0)
(-0.267534 0.00589682 0)
(-0.267315 0.00218121 0)
(-0.266295 -0.00162198 0)
(-0.264471 -0.0054916 0)
(-0.261841 -0.00940509 0)
(-0.258403 -0.0133381 0)
(-0.254159 -0.0172639 0)
(-0.249108 -0.0211533 0)
(-0.243255 -0.0249743 0)
(-0.236606 -0.0286917 0)
(-0.229172 -0.0322674 0)
(-0.220969 -0.0356605 0)
(-0.212019 -0.0388277 0)
(-0.202352 -0.0417239 0)
(-0.192006 -0.044303 0)
(-0.181028 -0.0465194 0)
(-0.169474 -0.0483292 0)
(-0.157413 -0.0496919 0)
(-0.144922 -0.0505722 0)
(-0.13209 -0.0509415 0)
(-0.119014 -0.0507802 0)
(-0.105801 -0.0500789 0)
(-0.0925623 -0.0488395 0)
(-0.0794136 -0.0470761 0)
(-0.0664723 -0.0448154 0)
(-0.0538542 -0.042096 0)
(-0.041671 -0.0389672 0)
(-0.0300275 -0.0354884 0)
(-0.0190196 -0.0317261 0)
(-0.00873264 -0.0277527 0)
(0.000759738 -0.0236437 0)
(0.00939644 -0.0194758 0)
(0.0171291 -0.0153248 0)
(0.023922 -0.011264 0)
(0.0297524 -0.00736225 0)
(0.0346103 -0.00368267 0)
(0.0384991 -0.000281172 0)
(0.0414355 0.00279486 0)
(0.0434502 0.0055079 0)
(0.044588 0.00783145 0)
(0.0449077 0.00975091 0)
(0.044481 0.011264 0)
(0.0433908 0.0123808 0)
(0.0417293 0.0131227 0)
(0.0395935 0.0135212 0)
(0.0370833 0.0136155 0)
(0.0342957 0.0134506 0)
(0.0313237 0.013074 0)
(0.0282501 0.0125335 0)
(0.0251499 0.0118742 0)
(0.0220824 0.0111371 0)
(0.019101 0.0103554 0)
(0.0162397 0.00955428 0)
(0.0135343 0.00874642 0)
(0.0109982 0.00793521 0)
(0.00866252 0.00710709 0)
(0.00652679 0.00624417 0)
(0.00463708 0.00531132 0)
(0.00298434 0.00428847 0)
(0.00165804 0.00314409 0)
(0.000637596 0.00190734 0)
(9.68318e-05 0.000602653 0)
(0.000101033 -0.00112864 0)
(0.000674629 -0.00311849 0)
(0.00172979 -0.00473361 0)
(0.00302826 -0.00593359 0)
(0.00452489 -0.00667803 0)
(0.00604935 -0.00698367 0)
(0.00754046 -0.00687953 0)
(0.00888615 -0.00642876 0)
(0.0100395 -0.00570045 0)
(0.0109384 -0.00477503 0)
(0.0115605 -0.00372729 0)
(0.0118813 -0.00262624 0)
(0.0118982 -0.00152607 0)
(0.0116071 -0.000465674 0)
(0.0110122 0.000534658 0)
(0.0101123 0.00147199 0)
(0.00890413 0.00235997 0)
(0.00737496 0.00322535 0)
(0.00550439 0.00410445 0)
(0.00326138 0.00503831 0)
(0.000606552 0.00606816 0)
(-0.00250729 0.00723121 0)
(-0.00613197 0.0085576 0)
(-0.0103218 0.0100687 0)
(-0.0151301 0.0117765 0)
(-0.0206071 0.0136844 0)
(-0.0267966 0.015788 0)
(-0.0337336 0.0180757 0)
(-0.0414414 0.0205294 0)
(-0.0499286 0.0231243 0)
(-0.0591868 0.0258287 0)
(-0.069188 0.0286038 0)
(-0.0798834 0.0314037 0)
(-0.0912027 0.0341766 0)
(-0.103056 0.0368661 0)
(-0.115335 0.0394133 0)
(-0.127919 0.0417596 0)
(-0.140677 0.0438489 0)
(-0.153475 0.0456307 0)
(-0.166183 0.0470621 0)
(-0.178676 0.0481092 0)
(-0.19084 0.0487482 0)
(-0.202578 0.0489654 0)
(-0.213804 0.0487564 0)
(-0.224452 0.0481254 0)
(-0.234468 0.0470839 0)
(-0.243812 0.0456484 0)
(-0.252457 0.0438397 0)
(-0.260384 0.0416812 0)
(-0.267582 0.0391974 0)
(-0.274046 0.0364134 0)
(-0.279773 0.0333538 0)
(-0.284764 0.0300425 0)
(-0.28902 0.0265023 0)
(-0.292542 0.0227546 0)
(-0.295331 0.0188199 0)
(-0.297388 0.0147175 0)
(-0.29871 0.0104664 0)
(-0.299295 0.00608497 0)
(-0.299139 0.00159205 0)
(-0.298236 -0.00299298 0)
(-0.29658 -0.00764948 0)
(-0.294164 -0.0123551 0)
(-0.29098 -0.0170851 0)
(-0.287019 -0.0218121 0)
(-0.282274 -0.0265052 0)
(-0.276739 -0.03113 0)
(-0.27041 -0.0356483 0)
(-0.263285 -0.0400174 0)
(-0.255368 -0.0441912 0)
(-0.246667 -0.0481196 0)
(-0.237198 -0.0517498 0)
(-0.226982 -0.0550267 0)
(-0.216054 -0.0578946 0)
(-0.204456 -0.0602988 0)
(-0.192244 -0.0621874 0)
(-0.179484 -0.0635133 0)
(-0.166257 -0.0642371 0)
(-0.152656 -0.0643288 0)
(-0.138784 -0.0637701 0)
(-0.124755 -0.0625565 0)
(-0.110689 -0.0606981 0)
(-0.096713 -0.0582206 0)
(-0.0829523 -0.0551644 0)
(-0.069531 -0.0515845 0)
(-0.056567 -0.0475478 0)
(-0.044169 -0.0431314 0)
(-0.0324344 -0.0384193 0)
(-0.0214473 -0.0335 0)
(-0.0112777 -0.0284634 0)
(-0.00198181 -0.0233983 0)
(0.00639773 -0.0183906 0)
(0.0138308 -0.0135215 0)
(0.0202991 -0.008866 0)
(0.0257954 -0.0044921 0)
(0.0303232 -0.000459514 0)
(0.0338973 0.00318139 0)
(0.0365443 0.00639084 0)
(0.0383028 0.00914087 0)
(0.0392245 0.0114164 0)
(0.0393732 0.0132159 0)
(0.0388249 0.0145515 0)
(0.0376647 0.0154483 0)
(0.0359854 0.0159428 0)
(0.0338824 0.0160807 0)
(0.0314528 0.0159142 0)
(0.0287875 0.0154987 0)
(0.0259741 0.0148892 0)
(0.0230864 0.0141378 0)
(0.020194 0.0132892 0)
(0.0173465 0.0123793 0)
(0.0145963 0.0114299 0)
(0.0119692 0.0104506 0)
(0.00951045 0.00943183 0)
(0.00722778 0.00835423 0)
(0.00518045 0.00717989 0)
(0.0033637 0.00587709 0)
(0.00188641 0.0044031 0)
(0.000732284 0.00275838 0)
(0.000112663 0.000941909 0)
(0.000108214 -0.00147007 0)
(0.000719584 -0.00397338 0)
(0.0018331 -0.00595155 0)
(0.0031833 -0.00737227 0)
(0.0047133 -0.00821047 0)
(0.00623527 -0.00849582 0)
(0.00768237 -0.00827604 0)
(0.00893598 -0.0076325 0)
(0.00994954 -0.0066544 0)
(0.0106609 -0.00543985 0)
(0.0110502 -0.00407953 0)
(0.011094 -0.00265414 0)
(0.0107901 -0.00122579 0)
(0.0101323 0.000163314 0)
(0.00912024 0.00149354 0)
(0.0077456 0.00276643 0)
(0.0059956 0.00400294 0)
(0.00384602 0.00523911 0)
(0.00126379 0.00652118 0)
(-0.001795 0.00789956 0)
(-0.0053816 0.00942318 0)
(-0.00955315 0.0111344 0)
(-0.0143684 0.0130655 0)
(-0.0198849 0.0152367 0)
(-0.0261546 0.0176558 0)
(-0.0332213 0.0203189 0)
(-0.0411167 0.0232111 0)
(-0.0498575 0.0263077 0)
(-0.059442 0.029574 0)
(-0.0698472 0.0329662 0)
(-0.0810273 0.0364312 0)
(-0.092912 0.0399074 0)
(-0.105408 0.0433267 0)
(-0.118401 0.0466166 0)
(-0.13176 0.0497033 0)
(-0.145344 0.0525156 0)
(-0.159007 0.0549879 0)
(-0.172605 0.0570638 0)
(-0.186005 0.0586981 0)
(-0.199086 0.0598582 0)
(-0.211741 0.0605246 0)
(-0.223887 0.0606899 0)
(-0.235454 0.0603575 0)
(-0.246393 0.0595402 0)
(-0.256669 0.0582574 0)
(-0.266259 0.0565338 0)
(-0.275151 0.0543972 0)
(-0.283339 0.0518768 0)
(-0.290825 0.0490021 0)
(-0.297612 0.0458022 0)
(-0.303705 0.0423045 0)
(-0.309111 0.0385352 0)
(-0.313835 0.0345182 0)
(-0.317882 0.0302757 0)
(-0.321255 0.0258283 0)
(-0.323958 0.021195 0)
(-0.325989 0.0163937 0)
(-0.327348 0.0114413 0)
(-0.328032 0.00635487 0)
(-0.328035 0.00115133 0)
(-0.32735 -0.00415146 0)
(-0.325968 -0.00953428 0)
(-0.323878 -0.0149759 0)
(-0.321069 -0.0204526 0)
(-0.317527 -0.0259372 0)
(-0.313238 -0.0313989 0)
(-0.308187 -0.0368023 0)
(-0.302361 -0.0421075 0)
(-0.295746 -0.0472694 0)
(-0.288333 -0.0522376 0)
(-0.280114 -0.0569569 0)
(-0.271089 -0.0613677 0)
(-0.261262 -0.0654065 0)
(-0.250648 -0.0690079 0)
(-0.239273 -0.0721055 0)
(-0.227173 -0.0746347 0)
(-0.214399 -0.0765351 0)
(-0.201018 -0.0777529 0)
(-0.187112 -0.0782444 0)
(-0.172778 -0.0779787 0)
(-0.158127 -0.0769402 0)
(-0.143285 -0.0751308 0)
(-0.128385 -0.0725711 0)
(-0.113566 -0.0693006 0)
(-0.0989679 -0.0653769 0)
(-0.0847285 -0.0608741 0)
(-0.0709764 -0.0558794 0)
(-0.0578284 -0.0504901 0)
(-0.0453863 -0.0448093 0)
(-0.0337349 -0.0389423 0)
(-0.0229415 -0.0329932 0)
(-0.0130566 -0.0270619 0)
(-0.00411549 -0.0212424 0)
(0.0038601 -0.0156212 0)
(0.0108596 -0.0102765 0)
(0.0168823 -0.00527786 0)
(0.0219362 -0.000685655 0)
(0.0260382 0.00344989 0)
(0.0292141 0.00708952 0)
(0.0315001 0.0102062 0)
(0.0329429 0.0127862 0)
(0.0336013 0.0148302 0)
(0.0335444 0.0163534 0)
(0.0328522 0.0173846 0)
(0.0316108 0.0179655 0)
(0.0299132 0.0181473 0)
(0.0278508 0.0179883 0)
(0.0255164 0.0175497 0)
(0.0229925 0.0168919 0)
(0.0203609 0.0160695 0)
(0.0176843 0.0151286 0)
(0.0150296 0.0141009 0)
(0.0124359 0.0130029 0)
(0.00996282 0.0118307 0)
(0.0076284 0.0105646 0)
(0.00550567 0.00916484 0)
(0.00359742 0.00758678 0)
(0.00202946 0.00577494 0)
(0.000792027 0.00369591 0)
(0.000122578 0.00131919 0)
(0.000114154 -0.00183414 0)
(0.000753782 -0.00487445 0)
(0.00190487 -0.00721813 0)
(0.00327648 -0.0088432 0)
(0.00479915 -0.00974339 0)
(0.00626944 -0.00996579 0)
(0.00761508 -0.00958148 0)
(0.00871269 -0.00869387 0)
(0.00951702 -0.0074151 0)
(0.00996726 -0.00586241 0)
(0.0100469 -0.00414249 0)
(0.00973376 -0.00234663 0)
(0.00902586 -0.000542908 0)
(0.00791399 0.00122573 0)
(0.00639225 0.00294312 0)
(0.00444331 0.00461801 0)
(0.00204322 0.00628086 0)
(-0.000845229 0.00797841 0)
(-0.00426848 0.00976715 0)
(-0.00828299 0.011706 0)
(-0.0129503 0.0138495 0)
(-0.0183341 0.0162418 0)
(-0.0244951 0.0189131 0)
(-0.0314873 0.0218776 0)
(-0.0393527 0.0251332 0)
(-0.0481186 0.0286624 0)
(-0.0577931 0.0324334 0)
(-0.068362 0.0364012 0)
(-0.0797864 0.0405082 0)
(-0.0920006 0.0446855 0)
(-0.104913 0.0488546 0)
(-0.118406 0.05293 0)
(-0.132344 0.0568229 0)
(-0.146577 0.0604451 0)
(-0.160947 0.0637143 0)
(-0.175298 0.0665575 0)
(-0.189485 0.0689149 0)
(-0.203374 0.0707419 0)
(-0.216853 0.0720096 0)
(-0.22983 0.0727046 0)
(-0.242234 0.0728272 0)
(-0.254012 0.0723895 0)
(-0.265132 0.0714124 0)
(-0.275572 0.0699231 0)
(-0.285324 0.0679533 0)
(-0.294386 0.0655365 0)
(-0.302763 0.0627068 0)
(-0.310462 0.0594977 0)
(-0.317494 0.0559412 0)
(-0.323868 0.0520673 0)
(-0.329595 0.0479037 0)
(-0.334685 0.0434757 0)
(-0.339146 0.0388064 0)
(-0.342985 0.0339167 0)
(-0.34621 0.0288254 0)
(-0.348823 0.02355 0)
(-0.350828 0.0181063 0)
(-0.352226 0.0125097 0)
(-0.353014 0.00677491 0)
(-0.35319 0.000916972 0)
(-0.352748 -0.00504842 0)
(-0.351678 -0.0111042 0)
(-0.34997 -0.0172312 0)
(-0.347609 -0.0234076 0)
(-0.344579 -0.0296081 0)
(-0.340861 -0.0358031 0)
(-0.336435 -0.0419583 0)
(-0.331276 -0.0480338 0)
(-0.325361 -0.0539836 0)
(-0.318666 -0.0597555 0)
(-0.31117 -0.0652907 0)
(-0.302852 -0.0705245 0)
(-0.293698 -0.0753866 0)
(-0.283701 -0.079802 0)
(-0.272861 -0.0836934 0)
(-0.261193 -0.0869827 0)
(-0.248724 -0.0895941 0)
(-0.2355 -0.0914573 0)
(-0.221583 -0.0925111 0)
(-0.207057 -0.092707 0)
(-0.192023 -0.0920132 0)
(-0.176605 -0.0904173 0)
(-0.160938 -0.0879292 0)
(-0.145175 -0.0845819 0)
(-0.129473 -0.0804318 0)
(-0.113993 -0.0755567 0)
(-0.0988907 -0.0700533 0)
(-0.0843124 -0.0640326 0)
(-0.070388 -0.0576153 0)
(-0.0572279 -0.0509258 0)
(-0.0449208 -0.044088 0)
(-0.0335328 -0.0372208 0)
(-0.0231088 -0.0304346 0)
(-0.0136755 -0.0238301 0)
(-0.00524433 -0.0174971 0)
(0.00218514 -0.0115144 0)
(0.00862216 -0.00595004 0)
(0.0140832 -0.00086191 0)
(0.0185909 0.00370291 0)
(0.0221748 0.00770856 0)
(0.0248714 0.0111315 0)
(0.0267268 0.0139618 0)
(0.0277958 0.0162039 0)
(0.0281445 0.0178772 0)
(0.0278466 0.0190155 0)
(0.0269856 0.0196652 0)
(0.0256474 0.0198828 0)
(0.0239235 0.0197313 0)
(0.0218991 0.0192756 0)
(0.0196627 0.0185778 0)
(0.0172861 0.0176918 0)
(0.0148478 0.0166585 0)
(0.012399 0.0155013 0)
(0.0100125 0.0142225 0)
(0.00771794 0.0128026 0)
(0.00560153 0.0112005 0)
(0.00367594 0.00935885 0)
(0.00208047 0.00720898 0)
(0.000813185 0.00468246 0)
(0.000125649 0.00171823 0)
(0.000119741 -0.00221335 0)
(0.000779686 -0.00580135 0)
(0.00194806 -0.00850038 0)
(0.00330989 -0.010301 0)
(0.00478255 -0.0112203 0)
(0.0061494 -0.0113275 0)
(0.00733373 -0.0107222 0)
(0.00820984 -0.00953375 0)
(0.00873494 -0.00789987 0)
(0.00885112 -0.00595778 0)
(0.00854547 -0.00382968 0)
(0.0077973 -0.00161564 0)
(0.00660388 0.000612971 0)
(0.00495182 0.0028157 0)
(0.0028278 0.00498306 0)
(0.000203967 0.00713375 0)
(-0.00295625 0.00930966 0)
(-0.00670362 0.0115689 0)
(-0.0110974 0.0139774 0)
(-0.0162043 0.0166001 0)
(-0.0220923 0.0194933 0)
(-0.0288258 0.0226979 0)
(-0.0364597 0.026236 0)
(-0.0450349 0.0301086 0)
(-0.0545729 0.0342969 0)
(-0.0650725 0.0387622 0)
(-0.076506 0.0434487 0)
(-0.0888174 0.0482844 0)
(-0.101921 0.0531837 0)
(-0.115704 0.0580504 0)
(-0.130027 0.0627814 0)
(-0.144734 0.0672718 0)
(-0.15966 0.0714203 0)
(-0.174634 0.075135 0)
(-0.189497 0.0783375 0)
(-0.204103 0.0809671 0)
(-0.218324 0.0829814 0)
(-0.232059 0.0843572 0)
(-0.245228 0.0850881 0)
(-0.257774 0.0851826 0)
(-0.269659 0.0846608 0)
(-0.280862 0.0835514 0)
(-0.291372 0.0818885 0)
(-0.301191 0.0797095 0)
(-0.310324 0.077053 0)
(-0.318781 0.0739573 0)
(-0.326575 0.0704592 0)
(-0.33372 0.0665937 0)
(-0.34023 0.0623934 0)
(-0.346121 0.0578881 0)
(-0.351406 0.053105 0)
(-0.356098 0.0480687 0)
(-0.360212 0.0428012 0)
(-0.363758 0.0373221 0)
(-0.366748 0.0316489 0)
(-0.36919 0.0257974 0)
(-0.371093 0.0197817 0)
(-0.37246 0.013615 0)