/*--------------------------------*- C++ -*----------------------------------*\
| =========                 |                                                 |
| \\      /  F ield         | OpenFOAM: The Open Source CFD Toolbox           |
|  \\    /   O peration     | Version:  2406                                  |
|   \\  /    A nd           | Website:  www.openfoam.com                      |
|    \\/     M anipulation  |                                                 |
\*---------------------------------------------------------------------------*/
FoamFile
{
    version     2.0;
    format      ascii;
    arch        "LSB;label=32;scalar=64";
    class       volVectorField;
    location    "24";
    object      U;
}
// * * * * * * * * * * * * * * * * * * * * * * * * * * * * * * * * * * * * * //

dimensions      [0 1 -1 0 0 0 0];

internalField   nonuniform List<vector> 
3600
(
(-6.38613e-06 5.87663e-06 0)
(4.74991e-05 -2.94287e-05 0)
(0.000182462 -4.92954e-05 0)
(0.000329842 -5.05034e-05 0)
(0.000457683 -3.61476e-05 0)
(0.000524664 -1.57115e-05 0)
(0.000527259 5.64479e-06 0)
(0.000458958 2.41924e-05 0)
(0.000330124 3.88658e-05 0)
(0.000145321 4.98604e-05 0)
(-8.78921e-05 5.86704e-05 0)
(-0.000370696 6.77878e-05 0)
(-0.000709797 8.04341e-05 0)
(-0.00112281 0.00010012 0)
(-0.00163545 0.000129889 0)
(-0.00228099 0.000171748 0)
(-0.00309533 0.000226247 0)
(-0.00411325 0.000292564 0)
(-0.00536365 0.000368714 0)
(-0.0068661 0.000451813 0)
(-0.00862717 0.000538042 0)
(-0.0106368 0.000622452 0)
(-0.0128643 0.000698671 0)
(-0.0152542 0.000758773 0)
(-0.0177233 0.00079327 0)
(-0.020159 0.000791373 0)
(-0.0224222 0.000741685 0)
(-0.0243525 0.000633641 0)
(-0.0257793 0.000459669 0)
(-0.0265351 0.000217675 0)
(-0.026472 -8.68576e-05 0)
(-0.0254778 -0.000439709 0)
(-0.0234921 -0.000818077 0)
(-0.0205189 -0.00119203 0)
(-0.0166351 -0.0015272 0)
(-0.011993 -0.00178846 0)
(-0.00681673 -0.00194444 0)
(-0.00138835 -0.00197231 0)
(0.00397253 -0.00186232 0)
(0.00893908 -0.00162115 0)
(0.0132107 -0.00127278 0)
(0.01655 -0.000856352 0)
(0.0188097 -0.00041992 0)
(0.0199532 -1.21497e-05 0)
(0.0200501 0.000327568 0)
(0.0192626 0.000575363 0)
(0.0178063 0.000726181 0)
(0.01592 0.000789638 0)
(0.0138194 0.000785579 0)
(0.0116886 0.000735392 0)
(0.00964904 0.000660081 0)
(0.00778771 0.00057437 0)
(0.00612859 0.000491233 0)
(0.00469207 0.000415724 0)
(0.00344048 0.000354527 0)
(0.00237872 0.000301692 0)
(0.00145208 0.000256113 0)
(0.000719535 0.000189401 0)
(0.00017589 9.88233e-05 0)
(-2.85955e-05 -3.12996e-05 0)
(2.86495e-05 -4.71527e-05 0)
(0.000204202 -0.000203323 0)
(0.000506822 -0.000279055 0)
(0.000803901 -0.000263896 0)
(0.0010347 -0.000174654 0)
(0.00111692 -4.49784e-05 0)
(0.00102838 9.97086e-05 0)
(0.000744072 0.000243213 0)
(0.000266427 0.000378044 0)
(-0.000409393 0.000504994 0)
(-0.00128449 0.00063046 0)
(-0.00237472 0.000766973 0)
(-0.00370757 0.000930336 0)
(-0.00533007 0.00113787 0)
(-0.00730375 0.00140383 0)
(-0.00970096 0.00173637 0)
(-0.0125935 0.00213472 0)
(-0.0160417 0.00258896 0)
(-0.0200816 0.00308039 0)
(-0.0247137 0.00358263 0)
(-0.0298933 0.00406204 0)
(-0.0355222 0.00447821 0)
(-0.041445 0.00478477 0)
(-0.0474503 0.0049316 0)
(-0.0532799 0.00486868 0)
(-0.0586439 0.00455185 0)
(-0.0632411 0.00394925 0)
(-0.0667817 0.00304741 0)
(-0.069007 0.00185549 0)
(-0.0697065 0.000407304 0)
(-0.0687311 -0.00123907 0)
(-0.0660014 -0.00300349 0)
(-0.0615147 -0.00478758 0)
(-0.0553487 -0.00647991 0)
(-0.047664 -0.00796277 0)
(-0.0387039 -0.0091207 0)
(-0.0287903 -0.00985094 0)
(-0.0183145 -0.0100753 0)
(-0.0077212 -0.00975258 0)
(0.00251722 -0.00888922 0)
(0.0119313 -0.00754559 0)
(0.0200951 -0.00583504 0)
(0.0266632 -0.00391309 0)
(0.0314111 -0.00195789 0)
(0.0342538 -0.000142637 0)
(0.0352623 0.00139034 0)
(0.0346383 0.00255257 0)
(0.032696 0.0033149 0)
(0.0297945 0.00370556 0)
(0.0263115 0.00378862 0)
(0.0225651 0.00364965 0)
(0.0188295 0.00336965 0)
(0.0152651 0.00302406 0)
(0.0120028 0.00266196 0)
(0.00905293 0.00232373 0)
(0.00647291 0.00200583 0)
(0.0042022 0.00170187 0)
(0.00235615 0.00132489 0)
(0.000903163 0.00084798 0)
(0.000123283 0.000189217 0)
(5.18038e-05 -0.000185275 0)
(0.000294592 -0.000510608 0)
(0.000669752 -0.000644498 0)
(0.000995384 -0.000568486 0)
(0.00119335 -0.000328514 0)
(0.00115726 1.5318e-05 0)
(0.000847764 0.000407983 0)
(0.000220641 0.000818134 0)
(-0.000740472 0.00122862 0)
(-0.00206061 0.00164204 0)
(-0.00376362 0.00207233 0)
(-0.00589139 0.00254767 0)
(-0.0085017 0.00310272 0)
(-0.0116741 0.0037742 0)
(-0.0155016 0.00458939 0)
(-0.0200798 0.00555838 0)
(-0.0254886 0.00666691 0)
(-0.0317725 0.00787538 0)
(-0.0389219 0.00911967 0)
(-0.0468584 0.0103149 0)
(-0.055426 0.0113596 0)
(-0.064392 0.0121418 0)
(-0.0734579 0.0125487 0)
(-0.0822819 0.0124779 0)
(-0.0905055 0.0118504 0)
(-0.0977811 0.0106199 0)
(-0.103794 0.00877843 0)
(-0.108275 0.00635674 0)
(-0.111009 0.0034217 0)
(-0.111838 7.22835e-05 0)
(-0.110656 -0.00356462 0)
(-0.107415 -0.00733803 0)
(-0.102124 -0.0110768 0)
(-0.0948519 -0.0145943 0)
(-0.0857351 -0.0176951 0)
(-0.0749823 -0.0201848 0)
(-0.0628797 -0.021884 0)
(-0.0497918 -0.0226454 0)
(-0.0361559 -0.0223743 0)
(-0.0224663 -0.0210484 0)
(-0.00925026 -0.0187327 0)
(0.0029687 -0.015585 0)
(0.0137103 -0.0118477 0)
(0.0225851 -0.00782387 0)
(0.0293265 -0.00383916 0)
(0.0338258 -0.000198435 0)
(0.0361287 0.00285822 0)
(0.0364413 0.00518251 0)
(0.0350767 0.00673302 0)
(0.0324396 0.00756051 0)
(0.0289321 0.00778839 0)
(0.0249573 0.00757091 0)
(0.0208111 0.00707153 0)
(0.0167609 0.00642355 0)
(0.012917 0.00573223 0)
(0.00943087 0.0050297 0)
(0.00627892 0.00430886 0)
(0.00364699 0.00344301 0)
(0.00149182 0.00233699 0)
(0.000249889 0.000812994 0)
(5.91224e-05 -0.00034785 0)
(0.000302787 -0.000830781 0)
(0.000636707 -0.000980377 0)
(0.000854627 -0.000780177 0)
(0.000866549 -0.000316563 0)
(0.000554884 0.000327926 0)
(-0.000136688 0.00107114 0)
(-0.0012724 0.00187166 0)
(-0.00289558 0.00270565 0)
(-0.00506039 0.00358094 0)
(-0.00782538 0.00452197 0)
(-0.0112693 0.00557538 0)
(-0.0154888 0.00679511 0)
(-0.0205977 0.0082332 0)
(-0.0267115 0.00991854 0)
(-0.0339253 0.0118434 0)
(-0.0422874 0.0139523 0)
(-0.0517738 0.0161433 0)
(-0.0622706 0.0182734 0)
(-0.073569 0.0201714 0)
(-0.0853746 0.0216538 0)
(-0.0973316 0.0225443 0)
(-0.109056 0.0226943 0)
(-0.120169 0.0219986 0)
(-0.13032 0.0204027 0)
(-0.139203 0.0179032 0)
(-0.146561 0.0145423 0)
(-0.15218 0.0104002 0)
(-0.15589 0.00558957 0)
(-0.157555 0.000250883 0)
(-0.157071 -0.00544954 0)
(-0.154372 -0.0113202 0)
(-0.149423 -0.0171446 0)
(-0.142238 -0.0226835 0)
(-0.132881 -0.0276787 0)
(-0.121485 -0.0318629 0)
(-0.108262 -0.0349754 0)
(-0.0935118 -0.0367841 0)
(-0.0776337 -0.0371142 0)
(-0.0611167 -0.035878 0)
(-0.0445249 -0.0331029 0)
(-0.028463 -0.0289475 0)
(-0.0135325 -0.0237009 0)
(-0.000273485 -0.0177582 0)
(0.010881 -0.0115759 0)
(0.0196531 -0.00561386 0)
(0.0259273 -0.000273837 0)
(0.0297671 0.00414594 0)
(0.0313721 0.00748288 0)
(0.0310778 0.00970946 0)
(0.0292692 0.0109214 0)
(0.0263909 0.011295 0)
(0.0228201 0.0110527 0)
(0.0189392 0.010408 0)
(0.0149677 0.00954267 0)
(0.0111721 0.0085508 0)
(0.00759703 0.00744492 0)
(0.00451653 0.00608391 0)
(0.00190439 0.00427424 0)
(0.000339382 0.0016934 0)
(5.11774e-05 -0.000505664 0)
(0.000231252 -0.00110071 0)
(0.000418312 -0.0011991 0)
(0.000405542 -0.000791861 0)
(8.93417e-05 -1.12401e-05 0)
(-0.00065152 0.00104283 0)
(-0.00189448 0.00226532 0)
(-0.00372455 0.00361122 0)
(-0.00621876 0.00505456 0)
(-0.00946597 0.00661346 0)
(-0.0135676 0.00832679 0)
(-0.0186445 0.0102616 0)
(-0.0248339 0.0124876 0)
(-0.0322744 0.0150593 0)
(-0.0410804 0.0179833 0)
(-0.0513081 0.0211998 0)
(-0.0629249 0.0245726 0)
(-0.075789 0.0278999 0)
(-0.0896496 0.0309352 0)
(-0.104166 0.0334177 0)
(-0.118941 0.0351046 0)
(-0.133565 0.0357987 0)
(-0.147644 0.0353644 0)
(-0.160823 0.0337323 0)
(-0.172795 0.0308933 0)
(-0.183299 0.0268898 0)
(-0.192118 0.0218051 0)
(-0.199074 0.0157559 0)
(-0.204019 0.0088861 0)
(-0.206831 0.00136453 0)
(-0.207407 -0.0066152 0)
(-0.205665 -0.0148327 0)
(-0.201536 -0.0230383 0)
(-0.194978 -0.0309504 0)
(-0.185979 -0.038257 0)
(-0.174574 -0.0446214 0)
(-0.160869 -0.0496967 0)
(-0.145058 -0.0531498 0)
(-0.127454 -0.0546963 0)
(-0.108494 -0.0541425 0)
(-0.088749 -0.0514297 0)
(-0.0688929 -0.0466702 0)
(-0.0496629 -0.0401631 0)
(-0.031784 -0.0323775 0)
(-0.0158939 -0.0239029 0)
(-0.00246583 -0.0153711 0)
(0.00822258 -0.00737004 0)
(0.0161103 -0.000372748 0)
(0.0213045 0.00531016 0)
(0.0240742 0.0095404 0)
(0.0247633 0.0123453 0)
(0.0238096 0.0138798 0)
(0.0216188 0.0143872 0)
(0.0186405 0.0141388 0)
(0.0151777 0.0133851 0)
(0.0115991 0.0122932 0)
(0.00803097 0.0109064 0)
(0.00484235 0.00908907 0)
(0.00205817 0.00653507 0)
(0.000368078 0.00275372 0)
(3.2529e-05 -0.000609675 0)
(9.07182e-05 -0.00121671 0)
(2.73857e-05 -0.00116348 0)
(-0.000338776 -0.000448132 0)
(-0.00112719 0.000753614 0)
(-0.00245604 0.0023335 0)
(-0.00443093 0.00417276 0)
(-0.00715987 0.0062317 0)
(-0.0107612 0.00848898 0)
(-0.0153634 0.0109785 0)
(-0.0211162 0.0137559 0)
(-0.0281824 0.0169053 0)
(-0.0367299 0.0204971 0)
(-0.0468965 0.02456 0)
(-0.0587546 0.0290372 0)
(-0.0722684 0.0337713 0)
(-0.0872747 0.0385077 0)
(-0.103483 0.0429274 0)
(-0.120508 0.046691 0)
(-0.137906 0.0494853 0)
(-0.155227 0.0510578 0)
(-0.172043 0.0512344 0)
(-0.187971 0.049922 0)
(-0.202684 0.0471009 0)
(-0.215917 0.042813 0)
(-0.22746 0.0371486 0)
(-0.237159 0.0302338 0)
(-0.244903 0.0222207 0)
(-0.250613 0.01328 0)
(-0.254228 0.00359785 0)
(-0.255689 -0.00662262 0)
(-0.254936 -0.0171572 0)
(-0.251891 -0.027753 0)
(-0.246465 -0.0381207 0)
(-0.238561 -0.0479275 0)
(-0.228091 -0.0567959 0)
(-0.215001 -0.0643106 0)
(-0.199306 -0.0700382 0)
(-0.181135 -0.0735621 0)
(-0.160771 -0.0745336 0)
(-0.138684 -0.0727353 0)
(-0.115541 -0.0681448 0)
(-0.0921811 -0.0609847 0)
(-0.0695424 -0.0517354 0)
(-0.0485513 -0.0410973 0)
(-0.0299913 -0.029897 0)
(-0.014404 -0.0189607 0)
(-0.00203035 -0.00899283 0)
(0.00714623 -0.000495085 0)
(0.0133615 0.00625644 0)
(0.0169534 0.0111993 0)
(0.0183662 0.0144419 0)
(0.0180248 0.0162176 0)
(0.0164182 0.0168259 0)
(0.0139092 0.0165643 0)
(0.0109438 0.0156647 0)
(0.00773035 0.0142031 0)
(0.00472155 0.0120568 0)
(0.00201473 0.00881228 0)
(0.000357392 0.00382106 0)
(3.47262e-06 -0.000635518 0)
(-0.000116346 -0.00111285 0)
(-0.000527503 -0.000779651 0)
(-0.00136192 0.000365462 0)
(-0.00275926 0.00211394 0)
(-0.00483087 0.00436207 0)
(-0.00771987 0.00698829 0)
(-0.0115595 0.00996665 0)
(-0.0165161 0.0132867 0)
(-0.0227582 0.0170017 0)
(-0.0304826 0.0211826 0)
(-0.0398806 0.025917 0)
(-0.0511242 0.0312473 0)
(-0.064306 0.0371315 0)
(-0.0794018 0.0433982 0)
(-0.096233 0.0497506 0)
(-0.114475 0.0557973 0)
(-0.133688 0.0611149 0)
(-0.153368 0.0653064 0)
(-0.172996 0.0680482 0)
(-0.19208 0.0691125 0)
(-0.210183 0.0683735 0)
(-0.226943 0.0658008 0)
(-0.242088 0.0614455 0)
(-0.255433 0.0554216 0)
(-0.266877 0.0478861 0)
(-0.276385 0.0390202 0)
(-0.283969 0.0290148 0)
(-0.289666 0.0180615 0)
(-0.293511 0.00634961 0)
(-0.295524 -0.00593106 0)
(-0.295689 -0.0185815 0)
(-0.293943 -0.0313812 0)
(-0.29017 -0.0440734 0)
(-0.284197 -0.0563491 0)
(-0.275812 -0.067835 0)
(-0.264778 -0.0780883 0)
(-0.25088 -0.0866031 0)
(-0.233971 -0.0928368 0)
(-0.214049 -0.0962589 0)
(-0.191323 -0.0964246 0)
(-0.166279 -0.0930673 0)
(-0.13971 -0.0861951 0)
(-0.112684 -0.0761624 0)
(-0.0864395 -0.063685 0)
(-0.0622056 -0.0497667 0)
(-0.0409968 -0.0355406 0)
(-0.0234365 -0.0220635 0)
(-0.00972015 -0.010146 0)
(0.000334987 -0.000275567 0)
(0.00711096 0.00736836 0)
(0.0111212 0.0128435 0)
(0.0128575 0.0163722 0)
(0.0128639 0.0182729 0)
(0.011563 0.0188771 0)
(0.00946186 0.0184692 0)
(0.00684641 0.0171536 0)
(0.00423468 0.0148215 0)
(0.00180344 0.0109725 0)
(0.000311597 0.0048292 0)
(-3.71765e-05 -0.000542189 0)
(-0.000395179 -0.000698567 0)
(-0.00125522 7.16455e-05 0)
(-0.00267428 0.00178682 0)
(-0.00481866 0.00422509 0)
(-0.00779014 0.0073046 0)
(-0.0117798 0.0109135 0)
(-0.0169475 0.0150469 0)
(-0.0235115 0.0197093 0)
(-0.0316758 0.0249719 0)
(-0.0416732 0.0309092 0)
(-0.0536946 0.0375832 0)
(-0.06787 0.0449617 0)
(-0.0841863 0.0528755 0)
(-0.102465 0.0609911 0)
(-0.122344 0.0688499 0)
(-0.143323 0.0759336 0)
(-0.164812 0.0817456 0)
(-0.186197 0.0858703 0)
(-0.206891 0.0880107 0)
(-0.226383 0.0880015 0)
(-0.244267 0.085807 0)
(-0.260266 0.081503 0)
(-0.274236 0.0752506 0)
(-0.286146 0.0672636 0)
(-0.296062 0.0577794 0)
(-0.304111 0.0470345 0)
(-0.310451 0.0352479 0)
(-0.315247 0.0226136 0)
(-0.31864 0.00930057 0)
(-0.320736 -0.00454127 0)
(-0.321579 -0.0187687 0)
(-0.321145 -0.0332291 0)
(-0.319324 -0.0477403 0)
(-0.315917 -0.0620679 0)
(-0.31063 -0.0759024 0)
(-0.303084 -0.0888383 0)
(-0.292842 -0.100363 0)
(-0.279459 -0.109861 0)
(-0.262555 -0.116646 0)
(-0.241916 -0.120021 0)
(-0.217617 -0.119387 0)
(-0.190123 -0.114374 0)
(-0.160361 -0.10499 0)
(-0.129696 -0.0917324 0)
(-0.0997794 -0.0756098 0)
(-0.0722759 -0.0580265 0)
(-0.0485198 -0.0405157 0)
(-0.0292593 -0.0244145 0)
(-0.0145798 -0.0106254 0)
(-0.00410231 0.000441021 0)
(0.00281526 0.00876225 0)
(0.00682044 0.014564 0)
(0.00858019 0.0182004 0)
(0.00861862 0.0200473 0)
(0.00751393 0.0204388 0)
(0.00563454 0.0195082 0)
(0.0035481 0.0171606 0)
(0.00150994 0.0128381 0)
(0.000252591 0.00568295 0)
(-9.19595e-05 -0.00029607 0)
(-0.00075347 0.00010258 0)
(-0.00216524 0.00149034 0)
(-0.00428243 0.00393239 0)
(-0.0073071 0.0072233 0)
(-0.0113299 0.0113234 0)
(-0.0166002 0.0161426 0)
(-0.0233023 0.0217005 0)
(-0.0317056 0.028016 0)
(-0.0420345 0.0351676 0)
(-0.0545316 0.0432065 0)
(-0.0693397 0.0521219 0)
(-0.0864858 0.0617451 0)
(-0.105786 0.0717232 0)
(-0.126859 0.0815287 0)
(-0.149132 0.0905423 0)
(-0.171918 0.098145 0)
(-0.194486 0.103806 0)
(-0.216137 0.107139 0)
(-0.236266 0.107929 0)
(-0.254423 0.106139 0)
(-0.27033 0.101885 0)
(-0.283889 0.0953963 0)
(-0.295154 0.086969 0)
(-0.304294 0.0769225 0)
(-0.311553 0.0655636 0)
(-0.317207 0.0531634 0)
(-0.321537 0.0399454 0)
(-0.324798 0.0260835 0)
(-0.327208 0.0117072 0)
(-0.328932 -0.00308887 0)
(-0.330068 -0.0182306 0)
(-0.330642 -0.0336481 0)
(-0.330593 -0.0492543 0)
(-0.329756 -0.0649215 0)
(-0.327847 -0.0804524 0)
(-0.324451 -0.0955484 0)
(-0.319025 -0.109779 0)
(-0.31091 -0.122559 0)
(-0.299392 -0.133145 0)
(-0.283792 -0.140663 0)
(-0.26361 -0.144192 0)
(-0.238698 -0.142899 0)
(-0.209443 -0.136236 0)
(-0.176894 -0.124161 0)
(-0.142768 -0.107319 0)
(-0.10925 -0.0870929 0)
(-0.0785819 -0.06542 0)
(-0.0525282 -0.044363 0)
(-0.0319527 -0.0255956 0)
(-0.0167941 -0.010072 0)
(-0.00634714 0.00195183 0)
(0.000271368 0.0106885 0)
(0.00396053 0.0165648 0)
(0.00543425 0.0200449 0)
(0.00539069 0.0215367 0)
(0.00430591 0.021222 0)
(0.0027969 0.0190281 0)
(0.00119502 0.0143777 0)
(0.000191957 0.00637855 0)
(-0.000164276 0.000152497 0)
(-0.00120222 0.00138727 0)
(-0.00327304 0.00359391 0)
(-0.006201 0.00693298 0)
(-0.0102355 0.0112566 0)
(-0.0154539 0.0165885 0)
(-0.0221716 0.0228696 0)
(-0.0305903 0.0301412 0)
(-0.0410205 0.0384271 0)
(-0.05368 0.0477871 0)
(-0.0687781 0.0582042 0)
(-0.0863461 0.0695298 0)
(-0.106239 0.0813942 0)
(-0.128044 0.0932166 0)
(-0.15114 0.104267 0)
(-0.17473 0.113788 0)
(-0.197963 0.121105 0)
(-0.22001 0.125718 0)
(-0.240174 0.127352 0)
(-0.257953 0.125966 0)
(-0.27308 0.121725 0)
(-0.285511 0.114948 0)
(-0.295392 0.106035 0)
(-0.302998 0.095407 0)
(-0.308683 0.0834599 0)
(-0.312825 0.0705321 0)
(-0.315791 0.0568915 0)
(-0.317912 0.0427342 0)
(-0.319472 0.0281915 0)
(-0.3207 0.0133407 0)
(-0.321775 -0.00178149 0)
(-0.322818 -0.0171655 0)
(-0.323895 -0.0328153 0)
(-0.325009 -0.0487318 0)
(-0.326077 -0.0648942 0)
(-0.326913 -0.0812341 0)
(-0.327199 -0.0976022 0)
(-0.326448 -0.113727 0)
(-0.323988 -0.129168 0)
(-0.318963 -0.143276 0)
(-0.310377 -0.155165 0)
(-0.297206 -0.163739 0)
(-0.278578 -0.167779 0)
(-0.254027 -0.166125 0)
(-0.22377 -0.157946 0)
(-0.18894 -0.14308 0)
(-0.151647 -0.122327 0)
(-0.114731 -0.0975496 0)
(-0.0811662 -0.0713992 0)
(-0.0532269 -0.046631 0)
(-0.031882 -0.0252914 0)
(-0.0167727 -0.0083119 0)
(-0.00684079 0.00433138 0)
(-0.000849875 0.0131423 0)
(0.00223188 0.0187451 0)
(0.00331776 0.0216833 0)
(0.00304769 0.0222361 0)
(0.00211215 0.0203819 0)
(0.000924836 0.0155678 0)
(0.000145037 0.00691191 0)
(-0.000256402 0.000851121 0)
(-0.00174621 0.00324327 0)
(-0.00457997 0.00648316 0)
(-0.00842132 0.0108962 0)
(-0.0135804 0.0164444 0)
(-0.020118 0.0232342 0)
(-0.0284188 0.0312411 0)
(-0.0386868 0.0405163 0)
(-0.0512542 0.0510673 0)
(-0.0662887 0.0628917 0)
(-0.083909 0.0758402 0)
(-0.103963 0.0895527 0)
(-0.126073 0.103402 0)
(-0.149553 0.116556 0)
(-0.173535 0.128103 0)
(-0.197032 0.137201 0)
(-0.219101 0.143206 0)
(-0.23894 0.145759 0)
(-0.256004 0.144807 0)
(-0.270035 0.140569 0)
(-0.281054 0.133465 0)
(-0.289301 0.124016 0)
(-0.295164 0.112762 0)
(-0.299097 0.100198 0)
(-0.301565 0.0867372 0)
(-0.302992 0.0726958 0)
(-0.303747 0.0582949 0)
(-0.304128 0.043674 0)
(-0.304371 0.0289072 0)
(-0.304656 0.0140195 0)
(-0.305122 -0.000998789 0)
(-0.305873 -0.0161806 0)
(-0.306986 -0.0315739 0)
(-0.308508 -0.0472328 0)
(-0.310448 -0.0632083 0)
(-0.312754 -0.0795332 0)
(-0.315278 -0.0961982 0)
(-0.317733 -0.113114 0)
(-0.319639 -0.13006 0)
(-0.320266 -0.146613 0)
(-0.318615 -0.162082 0)
(-0.313434 -0.175449 0)
(-0.303332 -0.185368 0)
(-0.287 -0.190255 0)
(-0.263546 -0.188514 0)
(-0.232912 -0.178917 0)
(-0.196257 -0.161098 0)
(-0.156112 -0.13603 0)
(-0.116106 -0.106208 0)
(-0.0800884 -0.075246 0)
(-0.050904 -0.0467622 0)
(-0.029478 -0.0231674 0)
(-0.015039 -0.00518718 0)
(-0.00603546 0.00759351 0)
(-0.000984792 0.0160142 0)
(0.00137921 0.0208526 0)
(0.00195634 0.0225766 0)
(0.00156851 0.0212755 0)
(0.000735001 0.0164743 0)
(0.000118342 0.00733523 0)
(-0.000370908 0.00185866 0)
(-0.00238932 0.00576865 0)
(-0.0060836 0.0102647 0)
(-0.0109282 0.0159325 0)
(-0.017308 0.0229064 0)
(-0.0252593 0.0313887 0)
(-0.0352334 0.0413844 0)
(-0.0474121 0.0529299 0)
(-0.0621163 0.065978 0)
(-0.079409 0.080401 0)
(-0.0992529 0.0958419 0)
(-0.121247 0.11166 0)
(-0.144738 0.126936 0)
(-0.168765 0.140604 0)
(-0.19226 0.151631 0)
(-0.214141 0.159197 0)
(-0.233524 0.162825 0)
(-0.249799 0.162427 0)
(-0.262726 0.158272 0)
(-0.272381 0.150883 0)
(-0.279107 0.140917 0)
(-0.283395 0.129048 0)
(-0.285802 0.115881 0)
(-0.286861 0.101906 0)
(-0.287044 0.0874846 0)
(-0.286729 0.0728587 0)
(-0.286201 0.0581691 0)
(-0.285664 0.0434827 0)
(-0.28526 0.0288146 0)
(-0.285084 0.0141474 0)
(-0.285211 -0.000556504 0)
(-0.285699 -0.0153472 0)
(-0.286611 -0.0302843 0)
(-0.288008 -0.0454354 0)
(-0.289955 -0.0608764 0)
(-0.292503 -0.0766882 0)
(-0.295667 -0.0929476 0)
(-0.299385 -0.109706 0)
(-0.303461 -0.126947 0)
(-0.307483 -0.144526 0)
(-0.310742 -0.162075 0)
(-0.312163 -0.178891 0)
(-0.310289 -0.193841 0)
(-0.303371 -0.205315 0)
(-0.289618 -0.211297 0)
(-0.26763 -0.209646 0)
(-0.236977 -0.198605 0)
(-0.198782 -0.177526 0)
(-0.156051 -0.147604 0)
(-0.113341 -0.112214 0)
(-0.0755284 -0.0762388 0)
(-0.0459607 -0.0443346 0)
(-0.0253063 -0.0190872 0)
(-0.0121271 -0.000799799 0)
(-0.00444604 0.0114899 0)
(-0.000489351 0.0188984 0)
(0.00103974 0.0222162 0)
(0.00119199 0.0217461 0)
(0.00064271 0.0171597 0)
(0.000116055 0.00769612 0)
(-0.000507006 0.00322741 0)
(-0.00312158 0.0090423 0)
(-0.00775471 0.0150151 0)
(-0.0136663 0.0221114 0)
(-0.0213281 0.0307066 0)
(-0.0307409 0.0411027 0)
(-0.0424112 0.0533183 0)
(-0.056465 0.067336 0)
(-0.0731697 0.0830012 0)
(-0.0924211 0.099984 0)
(-0.113966 0.117645 0)
(-0.137113 0.135012 0)
(-0.160931 0.150883 0)
(-0.184238 0.164019 0)
(-0.205879 0.173391 0)
(-0.22484 0.178356 0)
(-0.240469 0.178751 0)
(-0.252499 0.174869 0)
(-0.261069 0.167337 0)
(-0.266598 0.156956 0)
(-0.26969 0.144546 0)
(-0.270984 0.130833 0)
(-0.271089 0.116393 0)
(-0.270503 0.101632 0)
(-0.269607 0.0868052 0)
(-0.268658 0.0720464 0)
(-0.267818 0.0574061 0)
(-0.267173 0.0428823 0)
(-0.266761 0.0284449 0)
(-0.266599 0.0140523 0)
(-0.266695 -0.000340488 0)
(-0.267067 -0.0147786 0)
(-0.267748 -0.0293089 0)
(-0.268794 -0.0439835 0)
(-0.270284 -0.0588662 0)
(-0.272318 -0.0740375 0)
(-0.275008 -0.089598 0)
(-0.278449 -0.105664 0)
(-0.282685 -0.122351 0)
(-0.287634 -0.13973 0)
(-0.292999 -0.157754 0)
(-0.298144 -0.176137 0)
(-0.301981 -0.194202 0)
(-0.302901 -0.210718 0)
(-0.298829 -0.223793 0)
(-0.287486 -0.23092 0)
(-0.266911 -0.229297 0)
(-0.236237 -0.216513 0)
(-0.196544 -0.19158 0)
(-0.151401 -0.156063 0)
(-0.106486 -0.114564 0)
(-0.067793 -0.0736683 0)
(-0.0389742 -0.039046 0)
(-0.0199867 -0.0131406 0)
(-0.00863569 0.00456917 0)
(-0.00252666 0.0155535 0)
(0.000193918 0.0210861 0)
(0.000942577 0.0218322 0)
(0.000634596 0.0177051 0)
(0.000135393 0.00805816 0)
(-0.000663854 0.00501163 0)
(-0.00393089 0.0131385 0)
(-0.00955882 0.0208018 0)
(-0.0165733 0.0294917 0)
(-0.0255405 0.0398956 0)
(-0.0364085 0.0524053 0)
(-0.049719 0.0670248 0)
(-0.0655008 0.083627 0)
(-0.0839205 0.101882 0)
(-0.10465 0.121176 0)
(-0.127182 0.14053 0)
(-0.150529 0.158634 0)
(-0.173545 0.174064 0)
(-0.194937 0.185539 0)
(-0.213629 0.1922 0)
(-0.228846 0.193748 0)
(-0.240311 0.190454 0)
(-0.24816 0.183028 0)
(-0.252897 0.172416 0)
(-0.2552 0.159598 0)
(-0.255809 0.145443 0)
(-0.25538 0.130619 0)
(-0.254452 0.115586 0)
(-0.253396 0.100611 0)
(-0.252448 0.085815 0)
(-0.251719 0.0712246 0)
(-0.251248 0.056812 0)
(-0.251017 0.0425271 0)
(-0.250993 0.0283163 0)
(-0.251133 0.0141332 0)
(-0.251408 -5.86873e-05 0)
(-0.251804 -0.0142867 0)
(-0.252332 -0.0285737 0)
(-0.25303 -0.0429437 0)
(-0.253967 -0.0574306 0)
(-0.255247 -0.0720865 0)
(-0.257007 -0.086993 0)
(-0.259414 -0.102268 0)
(-0.26264 -0.118069 0)
(-0.266831 -0.13458 0)
(-0.272026 -0.151969 0)
(-0.278054 -0.170302 0)
(-0.284376 -0.189395 0)
(-0.289925 -0.208612 0)
(-0.292977 -0.226621 0)
(-0.29116 -0.241218 0)
(-0.281715 -0.249325 0)
(-0.262114 -0.247364 0)
(-0.231053 -0.232151 0)
(-0.189637 -0.202392 0)
(-0.142192 -0.160291 0)
(-0.0957608 -0.112289 0)
(-0.0574586 -0.067031 0)
(-0.0307006 -0.0310044 0)
(-0.0142467 -0.0057169 0)
(-0.00512697 0.0103122 0)
(-0.000783894 0.0189782 0)
(0.000724744 0.0214949 0)
(0.000675541 0.0181473 0)
(0.000170283 0.00846263 0)
(-0.000835071 0.0072479 0)
(-0.00478554 0.0180951 0)
(-0.0114271 0.0276433 0)
(-0.0195373 0.0380679 0)
(-0.0297789 0.0504352 0)
(-0.0420255 0.0652026 0)
(-0.0568275 0.082319 0)
(-0.0740736 0.101482 0)
(-0.0937847 0.122116 0)
(-0.11537 0.143256 0)
(-0.138066 0.163562 0)
(-0.16064 0.181431 0)
(-0.181834 0.19534 0)
(-0.200404 0.204139 0)
(-0.215517 0.207321 0)
(-0.226769 0.205055 0)
(-0.23431 0.198093 0)
(-0.238649 0.187513 0)
(-0.240556 0.174471 0)
(-0.24083 0.159995 0)
(-0.240205 0.144876 0)
(-0.239238 0.129637 0)
(-0.238312 0.114565 0)
(-0.23763 0.0997695 0)
(-0.237275 0.0852486 0)
(-0.237234 0.0709439 0)
(-0.237452 0.0567796 0)
(-0.237851 0.0426843 0)
(-0.238357 0.028603 0)
(-0.238904 0.0144998 0)
(-0.239447 0.000355595 0)
(-0.239958 -0.013835 0)
(-0.240434 -0.0280695 0)
(-0.240893 -0.0423434 0)
(-0.241385 -0.0566574 0)
(-0.241989 -0.0710267 0)
(-0.242826 -0.0854934 0)
(-0.244058 -0.100139 0)
(-0.245895 -0.115101 0)
(-0.248578 -0.130579 0)
(-0.252344 -0.146833 0)
(-0.257354 -0.164139 0)
(-0.263562 -0.18269 0)
(-0.270528 -0.202418 0)
(-0.277207 -0.222719 0)
(-0.281758 -0.242133 0)
(-0.281511 -0.258064 0)
(-0.273231 -0.266749 0)
(-0.253848 -0.263684 0)
(-0.221709 -0.244871 0)
(-0.178137 -0.208829 0)
(-0.128558 -0.159026 0)
(-0.0816613 -0.104484 0)
(-0.0454224 -0.0562912 0)
(-0.022081 -0.0206815 0)
(-0.00879519 0.00242123 0)
(-0.00217346 0.0155306 0)
(0.000398119 0.0206093 0)
(0.000711114 0.0184777 0)
(0.000210795 0.00893452 0)
(-0.00101472 0.00996239 0)
(-0.00565525 0.0239308 0)
(-0.0132939 0.0355378 0)
(-0.0224541 0.0478156 0)
(-0.0338881 0.0622683 0)
(-0.0473699 0.0793809 0)
(-0.063428 0.0989955 0)
(-0.0817713 0.120561 0)
(-0.102246 0.143189 0)
(-0.123988 0.165526 0)
(-0.146021 0.185896 0)
(-0.166955 0.202514 0)
(-0.185568 0.213926 0)
(-0.200814 0.219297 0)
(-0.212228 0.218618 0)
(-0.219828 0.212585 0)
(-0.224152 0.202384 0)
(-0.225978 0.189344 0)
(-0.226198 0.174689 0)
(-0.225588 0.159356 0)
(-0.224762 0.143965 0)
(-0.2241 0.128835 0)
(-0.223806 0.114073 0)
(-0.22392 0.099649 0)
(-0.224406 0.0854723 0)
(-0.225167 0.0714364 0)
(-0.226103 0.057449 0)
(-0.227111 0.0434418 0)
(-0.22811 0.0293735 0)
(-0.229034 0.0152259 0)
(-0.229841 0.000999505 0)
(-0.230501 -0.0132917 0)
(-0.231007 -0.0276252 0)
(-0.231362 -0.0419744 0)
(-0.231595 -0.0563146 0)
(-0.231755 -0.0706285 0)
(-0.231923 -0.0849176 0)
(-0.232221 -0.0992144 0)
(-0.232826 -0.113602 0)
(-0.233976 -0.128235 0)
(-0.235967 -0.14336 0)
(-0.239124 -0.159318 0)
(-0.243721 -0.176504 0)
(-0.249835 -0.195259 0)
(-0.257118 -0.215628 0)
(-0.264518 -0.237024 0)
(-0.27004 -0.257772 0)
(-0.270666 -0.27476 0)
(-0.262673 -0.283331 0)
(-0.242505 -0.277933 0)
(-0.20834 -0.253708 0)
(-0.162109 -0.209498 0)
(-0.110829 -0.150905 0)
(-0.0651169 -0.0907791 0)
(-0.0329319 -0.0420026 0)
(-0.014064 -0.00914111 0)
(-0.00428501 0.0101833 0)
(-0.000193666 0.0189245 0)
(0.000681164 0.0186115 0)
(0.00024684 0.00946421 0)
(-0.00119027 0.0131511 0)
(-0.00648904 0.0306133 0)
(-0.0150603 0.0444198 0)
(-0.025174 0.0586277 0)
(-0.037657 0.0752253 0)
(-0.0521593 0.0946756 0)
(-0.0691581 0.11666 0)
(-0.0881558 0.140312 0)
(-0.108814 0.164392 0)
(-0.130025 0.187154 0)
(-0.150671 0.206675 0)
(-0.169329 0.221129 0)
(-0.18495 0.229319 0)
(-0.196802 0.230885 0)
(-0.20484 0.226384 0)
(-0.209467 0.217014 0)
(-0.211512 0.20428 0)
(-0.211875 0.189609 0)
(-0.211432 0.174144 0)
(-0.21082 0.15863 0)
(-0.21047 0.143457 0)
(-0.210567 0.128739 0)
(-0.211153 0.114428 0)
(-0.212148 0.100396 0)
(-0.213445 0.0865069 0)
(-0.21491 0.0726413 0)
(-0.216433 0.0587164 0)
(-0.217916 0.044682 0)
(-0.219291 0.0305178 0)
(-0.220503 0.0162252 0)
(-0.221521 0.00182198 0)
(-0.222322 -0.0126631 0)
(-0.222897 -0.0271941 0)
(-0.223246 -0.0417309 0)
(-0.22338 -0.0562324 0)
(-0.223324 -0.0706602 0)
(-0.223121 -0.0849852 0)
(-0.222844 -0.0991975 0)
(-0.222611 -0.113322 0)
(-0.222597 -0.127444 0)
(-0.223063 -0.141736 0)
(-0.224349 -0.156495 0)
(-0.22686 -0.17215 0)
(-0.230979 -0.189236 0)
(-0.236899 -0.208247 0)
(-0.244339 -0.229357 0)
(-0.2522 -0.251924 0)
(-0.258248 -0.273953 0)
(-0.25904 -0.291549 0)
(-0.250324 -0.298958 0)
(-0.228154 -0.289324 0)
(-0.190886 -0.257234 0)
(-0.141632 -0.20256 0)
(-0.089742 -0.134894 0)
(-0.0476077 -0.0715649 0)
(-0.0213868 -0.0256477 0)
(-0.00742495 0.00220201 0)
(-0.00119607 0.0160697 0)
(0.000530759 0.0183968 0)
(0.000269399 0.0100159 0)
(-0.00135166 0.0167895 0)
(-0.0072457 0.0380839 0)
(-0.0166464 0.0542029 0)
(-0.0275787 0.0703846 0)
(-0.04092 0.0891357 0)
(-0.0561762 0.110842 0)
(-0.0737488 0.134972 0)
(-0.0929252 0.160287 0)
(-0.113199 0.18518 0)
(-0.133272 0.207564 0)
(-0.151988 0.22539 0)
(-0.168011 0.236965 0)
(-0.180572 0.241518 0)
(-0.189309 0.239255 0)
(-0.194575 0.231308 0)
(-0.197068 0.219265 0)
(-0.197769 0.2048 0)
(-0.197566 0.189282 0)
(-0.197205 0.173661 0)
(-0.19713 0.158427 0)
(-0.197574 0.14374 0)
(-0.198553 0.129536 0)
(-0.199993 0.11566 0)
(-0.201749 0.101937 0)
(-0.203684 0.0882199 0)
(-0.205666 0.0744058 0)
(-0.207599 0.0604346 0)
(-0.209401 0.0462799 0)
(-0.211024 0.0319429 0)
(-0.212427 0.0174421 0)
(-0.213592 0.00280849 0)
(-0.214502 -0.0119192 0)
(-0.215155 -0.0266972 0)
(-0.215547 -0.0414783 0)
(-0.215684 -0.056214 0)
(-0.215574 -0.0708552 0)
(-0.215235 -0.0853555 0)
(-0.214699 -0.0996766 0)
(-0.214027 -0.113799 0)
(-0.213324 -0.127742 0)
(-0.212765 -0.14159 0)
(-0.212622 -0.155542 0)
(-0.213279 -0.169946 0)
(-0.215216 -0.185344 0)
(-0.218921 -0.202418 0)
(-0.224683 -0.22185 0)
(-0.232255 -0.243892 0)
(-0.240408 -0.267795 0)
(-0.246563 -0.290966 0)
(-0.246732 -0.308488 0)
(-0.236105 -0.313036 0)
(-0.210556 -0.296512 0)
(-0.169119 -0.253263 0)
(-0.117061 -0.186149 0)
(-0.0666736 -0.110708 0)
(-0.0311765 -0.0487344 0)
(-0.0118494 -0.00927778 0)
(-0.00273801 0.0115454 0)
(0.000221511 0.0176177 0)
(0.000271575 0.0105287 0)
(-0.00148319 0.0208155 0)
(-0.00786799 0.0462276 0)
(-0.017949 0.0647325 0)
(-0.029521 0.0828786 0)
(-0.0434828 0.103712 0)
(-0.0591837 0.127491 0)
(-0.0769359 0.153427 0)
(-0.0958228 0.179881 0)
(-0.115208 0.204907 0)
(-0.133682 0.22616 0)
(-0.150148 0.241613 0)
(-0.163455 0.24987 0)
(-0.173175 0.250702 0)
(-0.179309 0.244913 0)
(-0.182534 0.234125 0)
(-0.183717 0.220178 0)
(-0.183862 0.204752 0)
(-0.183737 0.189033 0)
(-0.183903 0.173708 0)
(-0.184598 0.159005 0)
(-0.185887 0.144884 0)
(-0.187666 0.131157 0)
(-0.1898 0.117615 0)
(-0.19212 0.104074 0)
(-0.194499 0.0904079 0)
(-0.19682 0.0765386 0)
(-0.199011 0.0624345 0)
(-0.201009 0.0480923 0)
(-0.202783 0.0335314 0)
(-0.204304 0.0187837 0)
(-0.205562 0.00389003 0)
(-0.206548 -0.0111038 0)
(-0.207262 -0.0261492 0)
(-0.207705 -0.0411959 0)
(-0.207882 -0.0561928 0)
(-0.207795 -0.0710879 0)
(-0.207451 -0.085829 0)
(-0.206858 -0.100364 0)
(-0.206037 -0.114649 0)
(-0.205032 -0.128655 0)
(-0.203937 -0.142393 0)
(-0.202921 -0.155955 0)
(-0.202272 -0.169563 0)
(-0.202418 -0.183648 0)
(-0.203919 -0.198868 0)
(-0.20736 -0.216116 0)
(-0.213106 -0.236226 0)
(-0.220871 -0.25954 0)
(-0.229181 -0.284932 0)
(-0.23495 -0.308997 0)
(-0.233523 -0.32516 0)
(-0.219581 -0.324371 0)
(-0.18915 -0.297098 0)
(-0.142901 -0.239115 0)
(-0.0892723 -0.158687 0)
(-0.0440871 -0.0801822 0)
(-0.0176574 -0.0253256 0)
(-0.0049684 0.00477256 0)
(-0.000262589 0.0159967 0)
(0.000246578 0.0109305 0)
(-0.00157477 0.0251452 0)
(-0.00831848 0.0549091 0)
(-0.0189005 0.0758477 0)
(-0.0309081 0.095916 0)
(-0.0452284 0.118714 0)
(-0.0610522 0.144326 0)
(-0.0785993 0.17168 0)
(-0.0967794 0.198733 0)
(-0.114879 0.223252 0)
(-0.131458 0.242743 0)
(-0.145566 0.255356 0)
(-0.156301 0.260119 0)
(-0.163584 0.257413 0)
(-0.167725 0.248594 0)
(-0.169618 0.235658 0)
(-0.170178 0.220534 0)
(-0.17033 0.204773 0)
(-0.170659 0.189296 0)
(-0.171531 0.174509 0)
(-0.173007 0.160406 0)
(-0.175031 0.146803 0)
(-0.177434 0.133442 0)
(-0.180065 0.120104 0)
(-0.182764 0.106624 0)
(-0.185425 0.0929072 0)
(-0.187955 0.0789058 0)
(-0.190303 0.0646127 0)
(-0.192422 0.0500428 0)
(-0.194291 0.0352292 0)
(-0.195886 0.0202137 0)
(-0.197203 0.00504481 0)
(-0.198236 -0.010226 0)