/*--------------------------------*- C++ -*----------------------------------*\
| =========                 |                                                 |
| \\      /  F ield         | OpenFOAM: The Open Source CFD Toolbox           |
|  \\    /   O peration     | Version:  2406                                  |
|   \\  /    A nd           | Website:  www.openfoam.com                      |
|    \\/     M anipulation  |                                                 |
\*---------------------------------------------------------------------------*/
FoamFile
{
    version     2.0;
    format      ascii;
    arch        "LSB;label=32;scalar=64";
    class       volScalarField;
    location    "15.85";
    object      p;
}
// * * * * * * * * * * * * * * * * * * * * * * * * * * * * * * * * * * * * * //

dimensions      [0 2 -2 0 0 0 0];

internalField   nonuniform List<scalar> 
3600
(
0.0227715
0.0227623
0.022755
0.02274
0.0227317
0.0227171
0.0227089
0.0226943
0.0226846
0.022669
0.022657
0.0226401
0.0226264
0.0226092
0.022595
0.0225791
0.0225667
0.0225546
0.0225469
0.0225415
0.0225418
0.0225461
0.022557
0.0225727
0.0225946
0.0226202
0.0226492
0.022678
0.0227042
0.022723
0.02273
0.0227199
0.0226876
0.0226283
0.0225382
0.0224154
0.0222592
0.0220721
0.0218574
0.0216221
0.0213723
0.0211176
0.0208642
0.0206216
0.0203931
0.0201863
0.0200001
0.0198402
0.0197009
0.0195876
0.0194907
0.0194172
0.0193541
0.0193119
0.0192746
0.0192573
0.0192406
0.0192445
0.0192443
0.0192597
0.0227801
0.0227704
0.0227662
0.0227533
0.0227477
0.0227344
0.0227275
0.0227135
0.0227046
0.0226893
0.0226779
0.0226614
0.022648
0.022631
0.022617
0.0226009
0.0225882
0.0225754
0.0225668
0.0225599
0.0225583
0.0225601
0.0225679
0.0225798
0.022597
0.0226173
0.0226402
0.0226623
0.0226814
0.0226929
0.0226928
0.0226758
0.0226373
0.0225728
0.0224788
0.0223535
0.0221965
0.0220104
0.0217985
0.021568
0.0213245
0.0210777
0.0208331
0.0206
0.0203809
0.0201832
0.020005
0.0198522
0.0197185
0.0196097
0.0195158
0.0194444
0.0193823
0.0193406
0.0193025
0.019284
0.0192642
0.019265
0.0192594
0.019275
0.0227889
0.0227747
0.0227711
0.0227569
0.0227525
0.022739
0.0227331
0.022719
0.0227106
0.0226952
0.0226839
0.022667
0.0226534
0.0226358
0.0226211
0.0226041
0.0225904
0.0225762
0.0225662
0.0225578
0.0225546
0.0225548
0.0225612
0.0225719
0.0225883
0.0226083
0.0226314
0.0226546
0.0226753
0.0226889
0.0226913
0.022677
0.0226409
0.0225781
0.0224846
0.0223586
0.0221992
0.0220091
0.0217919
0.0215552
0.0213052
0.0210522
0.0208025
0.0205657
0.0203446
0.0201468
0.01997
0.0198198
0.0196895
0.0195844
0.0194943
0.0194266
0.0193676
0.0193287
0.0192924
0.0192759
0.0192563
0.0192591
0.0192533
0.0192743
0.0228033
0.0227843
0.0227825
0.0227677
0.0227659
0.0227528
0.0227488
0.0227351
0.0227277
0.0227123
0.0227014
0.0226841
0.0226703
0.0226517
0.022636
0.0226173
0.0226017
0.022585
0.0225722
0.0225603
0.0225533
0.0225492
0.0225511
0.0225571
0.0225689
0.0225844
0.0226035
0.0226231
0.022641
0.0226525
0.0226534
0.0226382
0.0226017
0.0225385
0.0224445
0.0223174
0.0221562
0.0219635
0.021743
0.0215025
0.021249
0.0209932
0.0207417
0.0205051
0.020286
0.0200921
0.0199207
0.0197772
0.0196539
0.0195562
0.0194727
0.0194112
0.019357
0.0193224
0.0192884
0.019274
0.0192543
0.0192579
0.0192507
0.0192749
0.0228104
0.0227856
0.0227845
0.0227675
0.0227673
0.0227534
0.0227507
0.0227365
0.0227297
0.0227136
0.0227026
0.0226843
0.0226696
0.0226493
0.022632
0.0226109
0.0225927
0.0225727
0.0225562
0.0225401
0.0225287
0.0225199
0.0225171
0.0225185
0.0225262
0.0225383
0.022555
0.0225732
0.0225911
0.0226041
0.0226078
0.0225966
0.0225647
0.0225065
0.0224169
0.022293
0.022133
0.0219391
0.0217145
0.0214675
0.0212053
0.0209399
0.020679
0.0204342
0.0202091
0.020012
0.0198402
0.019699
0.0195801
0.0194882
0.0194113
0.0193566
0.0193087
0.0192799
0.0192505
0.0192405
0.0192233
0.01923
0.0192239
0.0192513
0.0228174
0.022787
0.0227875
0.022769
0.0227711
0.0227569
0.0227559
0.0227415
0.0227355
0.0227188
0.0227077
0.0226882
0.0226724
0.0226502
0.0226305
0.0226061
0.0225839
0.0225588
0.0225363
0.0225129
0.0224932
0.0224749
0.0224615
0.0224514
0.0224471
0.0224468
0.0224513
0.0224581
0.022466
0.0224711
0.0224698
0.0224567
0.0224266
0.0223734
0.0222918
0.0221777
0.0220282
0.021844
0.0216273
0.0213853
0.021125
0.0208587
0.0205951
0.0203469
0.0201191
0.0199211
0.0197506
0.019613
0.0194998
0.019415
0.0193458
0.0192989
0.0192582
0.019236
0.0192118
0.019206
0.0191913
0.0192001
0.0191944
0.019223
0.0228106
0.0227746
0.0227762
0.0227553
0.0227591
0.0227438
0.0227439
0.0227284
0.0227227
0.0227048
0.0226931
0.0226718
0.0226545
0.0226295
0.0226068
0.022578
0.0225505
0.0225184
0.0224874
0.0224534
0.0224209
0.0223872
0.0223559
0.0223252
0.0222979
0.0222727
0.0222512
0.0222323
0.0222163
0.022201
0.0221849
0.0221641
0.0221345
0.0220906
0.0220266
0.0219369
0.0218164
0.0216629
0.0214755
0.0212585
0.0210171
0.0207627
0.0205042
0.0202559
0.0200249
0.0198228
0.0196492
0.0195107
0.019399
0.0193181
0.0192546
0.0192144
0.0191806
0.019165
0.0191467
0.0191459
0.0191351
0.0191467
0.0191427
0.0191718
0.0227976
0.0227564
0.0227596
0.0227371
0.0227429
0.0227269
0.0227282
0.0227119
0.0227066
0.0226874
0.0226751
0.0226518
0.0226325
0.022604
0.022577
0.0225419
0.0225061
0.0224626
0.0224167
0.0223633
0.0223062
0.0222418
0.0221731
0.0220978
0.022019
0.0219363
0.0218534
0.0217719
0.0216957
0.0216267
0.0215675
0.0215181
0.0214773
0.0214412
0.0214043
0.0213595
0.0212986
0.0212145
0.021101
0.020956
0.0207794
0.0205782
0.0203594
0.0201372
0.0199208
0.019725
0.0195532
0.0194149
0.0193041
0.0192256
0.0191661
0.0191312
0.0191032
0.0190934
0.0190803
0.0190837
0.0190762
0.0190895
0.0190866
0.019115
0.0227644
0.0227178
0.0227224
0.0226978
0.0227051
0.0226877
0.0226897
0.0226719
0.0226664
0.0226454
0.0226319
0.0226061
0.0225838
0.0225506
0.0225173
0.0224727
0.022424
0.0223621
0.0222914
0.0222044
0.0221033
0.0219824
0.0218433
0.0216832
0.0215061
0.021314
0.0211149
0.0209156
0.0207271
0.0205577
0.0204169
0.0203102
0.0202412
0.0202088
0.0202089
0.0202331
0.0202701
0.020307
0.0203295
0.020326
0.0202863
0.0202078
0.0200905
0.0199446
0.0197795
0.0196134
0.0194554
0.0193212
0.0192101
0.0191304
0.0190709
0.0190374
0.0190126
0.0190063
0.0189973
0.0190039
0.0189995
0.0190143
0.0190127
0.01904
0.0227184
0.0226671
0.0226734
0.0226471
0.0226562
0.0226376
0.0226404
0.0226213
0.0226155
0.0225927
0.0225777
0.0225486
0.0225222
0.022482
0.0224386
0.0223784
0.0223074
0.0222133
0.0220977
0.0219494
0.0217672
0.0215421
0.0212745
0.0209618
0.0206113
0.020231
0.0198369
0.0194449
0.0190753
0.0187457
0.0184733
0.0182704
0.0181461
0.0181034
0.0181405
0.0182496
0.0184177
0.0186273
0.0188561
0.0190814
0.019279
0.0194306
0.0195212
0.019549
0.0195165
0.0194414
0.0193381
0.0192312
0.0191302
0.0190518
0.0189907
0.0189554
0.0189302
0.0189241
0.0189167
0.0189243
0.0189214
0.0189361
0.018935
0.0189606
0.0226449
0.022589
0.0225966
0.0225683
0.0225785
0.0225582
0.0225611
0.02254
0.0225333
0.0225078
0.0224903
0.0224562
0.0224232
0.0223719
0.022312
0.0222264
0.0221179
0.0219693
0.0217772
0.0215242
0.0212045
0.0208061
0.0203299
0.0197777
0.0191654
0.0185116
0.0178445
0.0171917
0.0165839
0.0160469
0.0156047
0.0152747
0.0150701
0.0149974
0.015058
0.015247
0.0155529
0.0159577
0.016436
0.0169573
0.0174844
0.0179809
0.0184099
0.0187465
0.0189742
0.0190981
0.0191311
0.0191051
0.0190438
0.0189788
0.0189183
0.0188784
0.0188487
0.0188387
0.0188292
0.018835
0.0188317
0.018845
0.0188438
0.0188674
0.0225522
0.0224923
0.0225014
0.0224715
0.0224828
0.022461
0.0224638
0.0224407
0.0224326
0.0224039
0.0223824
0.0223412
0.0222974
0.0222281
0.0221408
0.0220127
0.0218411
0.0216011
0.0212816
0.0208581
0.020321
0.0196587
0.018879
0.0179955
0.017039
0.0160439
0.0150526
0.0141037
0.0132353
0.0124774
0.0118561
0.0113892
0.0110908
0.0109684
0.0110262
0.011263
0.0116729
0.0122435
0.0129543
0.0137763
0.0146689
0.0155838
0.0164635
0.0172538
0.0179048
0.0183901
0.0187017
0.0188654
0.0189153
0.0189029
0.0188596
0.0188187
0.0187824
0.0187642
0.0187487
0.0187488
0.0187422
0.0187518
0.0187491
0.0187702
0.0224245
0.0223606
0.0223708
0.0223388
0.0223505
0.0223263
0.0223282
0.0223019
0.0222911
0.0222572
0.022229
0.0221762
0.0221146
0.0220167
0.021885
0.0216888
0.021417
0.0210338
0.0205196
0.0198444
0.0190003
0.0179849
0.0168227
0.0155474
0.0142105
0.0128628
0.0115584
0.0103412
0.0092498
0.00831115
0.00754648
0.00696867
0.00658765
0.00640905
0.00643737
0.00667506
0.00712269
0.00777784
0.008632
0.00966906
0.0108593
0.0121592
0.013506
0.0148252
0.0160315
0.017051
0.0178282
0.0183521
0.018645
0.0187699
0.0187879
0.0187631
0.0187233
0.018694
0.0186681
0.0186582
0.0186449
0.0186485
0.0186428
0.0186612
0.0222719
0.0222047
0.0222159
0.0221821
0.0221938
0.0221672
0.0221674
0.0221373
0.0221224
0.0220812
0.0220424
0.021972
0.0218826
0.0217397
0.0215384
0.0212371
0.0208127
0.0202184
0.0194283
0.0184145
0.0171817
0.0157495
0.0141689
0.0124991
0.0108113
0.00916776
0.00762524
0.00622358
0.00499324
0.00395092
0.00310785
0.00246819
0.00203516
0.00181013
0.00179594
0.00199643
0.00241676
0.00306336
0.00394071
0.0050506
0.00638453
0.0079214
0.00961644
0.011401
0.0131765
0.0148292
0.0162423
0.017333
0.0180674
0.018484
0.0186603
0.0186989
0.0186724
0.0186341
0.0185948
0.0185704
0.0185467
0.0185411
0.0185306
0.0185457
0.0220768
0.0220065
0.0220181
0.0219818
0.0219923
0.021962
0.0219588
0.0219229
0.021901
0.0218484
0.0217929
0.0216952
0.021563
0.0213527
0.0210482
0.0205943
0.0199554
0.0190765
0.0179341
0.0165151
0.0148514
0.0129951
0.0110283
0.00903244
0.00708956
0.00526111
0.00359508
0.00211783
0.000845364
-0.000219003
-0.00107507
-0.00172704
-0.0021778
-0.00242982
-0.00248274
-0.00233319
-0.00197499
-0.00139754
-0.000588841
0.000466397
0.00177945
0.00335696
0.00518728
0.00723538
0.00942637
0.0116455
0.0137393
0.0155474
0.0169392
0.0178663
0.0183715
0.0185748
0.0186065
0.0185723
0.0185204
0.0184776
0.0184397
0.0184217
0.0184045
0.0184156
0.0218526
0.0217799
0.0217915
0.0217527
0.0217613
0.0217266
0.0217186
0.0216751
0.021643
0.0215744
0.0214943
0.0213571
0.0211628
0.0208555
0.0204057
0.0197431
0.0188229
0.0175908
0.0160396
0.0141867
0.0121025
0.00987504
0.00761154
0.00540319
0.00332779
0.00143277
-0.000251998
-0.00171827
-0.00296524
-0.004001
-0.00483311
-0.00547051
-0.00591906
-0.00618283
-0.00626305
-0.00615738
-0.00586125
-0.00536442
-0.00465461
-0.00371206
-0.0025163
-0.00104193
0.00072865
0.00280209
0.00515254
0.0077093
0.0103388
0.0128502
0.0150255
0.0166843
0.0177542
0.0183023
0.0184912
0.0184988
0.0184438
0.0183811
0.0183258
0.0182915
0.0182655
0.0182713
0.0215797
0.0215046
0.0215154
0.021473
0.0214779
0.0214368
0.0214212
0.0213665
0.0213192
0.0212273
0.0211118
0.0209188
0.0206379
0.0201989
0.0195571
0.0186303
0.017372
0.0157427
0.013767
0.0115049
0.00906747
0.00657093
0.00413213
0.00183468
-0.000262115
-0.00213358
-0.00377085
-0.00518217
-0.00637775
-0.00737177
-0.00817447
-0.00879497
-0.0092387
-0.00950872
-0.00960648
-0.00953008
-0.00927749
-0.00884106
-0.00821289
-0.00737588
-0.00631134
-0.00498885
-0.00337769
-0.00144242
0.000836955
0.00345209
0.0063361
0.00933948
0.0122292
0.0147212
0.0165811
0.0177195
0.0182452
0.0183798
0.0183491
0.0182706
0.0181957
0.0181413
0.0181044
0.0181029
0.0212758
0.0211994
0.0212087
0.0211625
0.0211622
0.0211133
0.0210876
0.0210185
0.0209506
0.0208277
0.0206644
0.020397
0.0200019
0.0193933
0.0185128
0.017273
0.0156383
0.0135995
0.0112255
0.00862124
0.00593047
0.00328025
0.000778429
-0.00151385
-0.00356382
-0.00537078
-0.00694341
-0.00830049
-0.00945686
-0.0104269
-0.0112189
-0.0118385
-0.0122881
-0.0125679
-0.0126784
-0.0126175
-0.0123856
-0.0119781
-0.0113933
-0.01062
-0.00964754
-0.0084505
-0.00700047
-0.00525283
-0.00316341
-0.000691812
0.00216884
0.00535518
0.0087031
0.0119206
0.0146605
0.0166215
0.0177348
0.0181612
0.0182181
0.0181401
0.0180472
0.017968
0.0179179
0.017906
0.0209188
0.0208411
0.0208477
0.0207963
0.0207885
0.020729
0.0206892
0.0206007
0.020505
0.0203409
0.020115
0.019752
0.0192136
0.0183993
0.0172417
0.0156587
0.0136396
0.0112179
0.0085107
0.00566033
0.00282564
0.000125244
-0.00235745
-0.00459135
-0.00657045
-0.00831312
-0.00983872
-0.0111694
-0.0123189
-0.0132971
-0.0141072
-0.0147491
-0.0152208
-0.0155184
-0.0156411
-0.0155854
-0.0153542
-0.0149451
-0.0143633
-0.0136036
-0.0126662
-0.0115348
-0.0101924
-0.00859917
-0.00670892
-0.00445905
-0.001793
0.00130952
0.00479337
0.00845343
0.0119478
0.0148269
0.0167708
0.0177355
0.0180109
0.0179709
0.0178694
0.0177609
0.0176951
0.0176687
0.0205329
0.0204549
0.020458
0.0204008
0.0203836
0.0203116
0.0202543
0.0201418
0.0200115
0.0197963
0.0194928
0.0190133
0.0183044
0.017254
0.0157931
0.0138572
0.0114728
0.00872188
0.00576435
0.00276429
-0.000123702
-0.0028054
-0.00522975
-0.00739555
-0.00931813
-0.0110273
-0.0125459
-0.0138934
-0.0150781
-0.0161026
-0.0169634
-0.0176531
-0.0181655
-0.0184918
-0.0186296
-0.0185735
-0.0183285
-0.0178937
-0.0172801
-0.0164881
-0.0155291
-0.0143966
-0.0130887
-0.0115777
-0.00982931
-0.0077807
-0.00535671
-0.00248426
0.000879327
0.00465413
0.00861195
0.0122896
0.0151882
0.0169427
0.0176665
0.0177404
0.0176533
0.0175143
0.0174289
0.0173826
0.0200925
0.0200144
0.0200124
0.0199478
0.0199183
0.0198305
0.0197511
0.019609
0.0194359
0.0191586
0.0187624
0.018147
0.0172453
0.015939
0.0141669
0.011893
0.00918815
0.00618067
0.00306028
-5.56221e-06
-0.00288307
-0.00551112
-0.00787153
-0.00998738
-0.0118877
-0.0136061
-0.0151629
-0.016571
-0.0178307
-0.0189357
-0.0198753
-0.020635
-0.021204
-0.0215688
-0.0217259
-0.0216673
-0.0214
-0.0209229
-0.0202529
-0.0193939
-0.0183675
-0.0171755
-0.0158323
-0.0143238
-0.0126349
-0.0107152
-0.00849466
-0.00588081
-0.00277068
0.000865883
0.00495619
0.00914756
0.0129188
0.015623
0.0170584
0.0174171
0.0173736
0.0172175
0.017106
0.0170339
0.0196296
0.0195527
0.019545
0.0194726
0.0194286
0.019323
0.0192177
0.0190413
0.0188185
0.0184698
0.0179682
0.0172018
0.0160924
0.0145223
0.0124468
0.00986667
0.00689794
0.00370662
0.00049623
-0.00257876
-0.00541557
-0.00798791
-0.0103057
-0.0124087
-0.014332
-0.0161069
-0.0177476
-0.0192571
-0.020627
-0.0218415
-0.0228834
-0.023731
-0.0243701
-0.0247824
-0.0249639
-0.0249036
-0.0246106
-0.0240827
-0.0233417
-0.022393
-0.0212674
-0.0199726
-0.0185379
-0.016962
-0.0152508
-0.0133717
-0.0112739
-0.00886978
-0.00603441
-0.00266823
0.00129453
0.00566959
0.0100527
0.0136966
0.0160304
0.0169459
0.0170056
0.0168564
0.0167177
0.0166105
0.0191146
0.019039
0.0190239
0.018942
0.0188809
0.0187543
0.0186189
0.0184032
0.0181239
0.0176954
0.0170784
0.0161513
0.0148287
0.0130004
0.0106455
0.00780463
0.00463447
0.00132627
-0.00191833
-0.00496917
-0.0077585
-0.0102912
-0.0125986
-0.0147291
-0.0167181
-0.0185903
-0.0203508
-0.0219919
-0.0234965
-0.0248396
-0.0259983
-0.0269445
-0.0276619
-0.0281272
-0.0283369
-0.0282765
-0.0279577
-0.0273758
-0.0265578
-0.025508
-0.0242656
-0.0228408
-0.0212766
-0.0195809
-0.0177806
-0.0158609
-0.0137966
-0.0115184
-0.00890716
-0.00583652
-0.00214549
0.00213666
0.00681095
0.0111859
0.014493
0.0161838
0.0165458
0.0163908
0.0162583
0.0160927
0.0185892
0.0185166
0.0184936
0.0184022
0.0183223
0.0181731
0.0180047
0.0177463
0.0174058
0.0168922
0.016154
0.015063
0.0135307
0.0114602
0.00885844
0.00580522
0.00248937
-0.00088564
-0.00413205
-0.00714992
-0.00990512
-0.0124278
-0.0147631
-0.016962
-0.0190558
-0.0210593
-0.0229681
-0.0247632
-0.0264198
-0.027904
-0.0291893
-0.0302413
-0.0310426
-0.0315652
-0.0318069
-0.0317489
-0.0314065
-0.0307713
-0.0298761
-0.0287221
-0.0273569
-0.0257895
-0.0240752
-0.0222266
-0.02029
-0.0182658
-0.016156
-0.013915
-0.0114458
-0.00862572
-0.00524697
-0.00122896
0.00344665
0.00824189
0.0124379
0.0149967
0.015963
0.0157968
0.0157121
0.0154665
0.0180174
0.0179477
0.0179156
0.0178134
0.0177125
0.0175388
0.0173346
0.0170308
0.0166258
0.0160246
0.0151644
0.0139133
0.0121835
0.0098961
0.0070866
0.00386972
0.00045632
-0.00294905
-0.00618052
-0.00916915
-0.0119105
-0.0144528
-0.0168494
-0.0191484
-0.0213745
-0.0235311
-0.0256042
-0.0275639
-0.0293795
-0.0310091
-0.032424
-0.0335836
-0.0344709
-0.0350523
-0.0353278
-0.0352734
-0.0349093
-0.034222
-0.0332517
-0.0319946
-0.0305073
-0.028795
-0.0269241
-0.0249073
-0.0228077
-0.0206362
-0.018421
-0.0161402
-0.0137274
-0.0110805
-0.00798475
-0.00429683
0.000168614
0.00508816
0.0099194
0.0133638
0.0151164
0.0150971
0.0150247
0.014726
0.0174527
0.017388
0.0173468
0.0172346
0.017112
0.0169134
0.0166722
0.0163221
0.0158518
0.0151636
0.0141848
0.0127831
0.0108743
0.00839946
0.0054209
0.00208181
-0.00139455
-0.00481089
-0.00802659
-0.0110014
-0.0137548
-0.016347
-0.0188345
-0.0212593
-0.023638
-0.025962
-0.0282089
-0.0303389
-0.032317
-0.0340943
-0.0356412
-0.0369106
-0.0378868
-0.0385292
-0.0388413
-0.0387922
-0.0384086
-0.0376706
-0.0366277
-0.0352698
-0.0336647
-0.0318106
-0.0297859
-0.0275985
-0.0253266
-0.0229852
-0.0206264
-0.0182483
-0.0158178
-0.0132618
-0.0103838
-0.00701819
-0.0028778
0.0019324
0.0070783
0.011327
0.0138751
0.0143053
0.0141539
0.0138667
0.0168497
0.01679
0.0167388
0.0166159
0.0164708
0.0162467
0.0159682
0.0155723
0.0150386
0.0142678
0.013179
0.0116421
0.00957827
0.0069487
0.00383866
0.000413087
-0.00310079
-0.00651754
-0.00972237
-0.0126991
-0.015486
-0.0181497
-0.0207468
-0.0233109
-0.0258504
-0.0283448
-0.0307654
-0.0330633
-0.0352016
-0.0371244
-0.0388026
-0.0401817
-0.041248
-0.0419521
-0.0423022
-0.0422584
-0.0418558
-0.0410662
-0.0399515
-0.0384935
-0.036774
-0.0347823
-0.0326106
-0.0302578
-0.0278165
-0.0252992
-0.0227785
-0.020267
-0.0177634
-0.0152269
-0.0124904
-0.00939963
-0.00561382
-0.00107508
0.00410795
0.00894723
0.0122384
0.0133478
0.0131126
0.0128638
0.0162757
0.0162232
0.0161629
0.0160312
0.0158641
0.0156159
0.015301
0.0148615
0.0142676
0.0134209
0.0122335
0.0105795
0.0083863
0.00563362
0.00242456
-0.00106113
-0.00459822
-0.00801525
-0.0112209
-0.014218
-0.0170586
-0.0198114
-0.0225314
-0.0252426
-0.027946
-0.0306101
-0.0332021
-0.0356649
-0.0379615
-0.0400289
-0.0418399
-0.0433308
-0.0444908
-0.0452595
-0.0456508
-0.0456135
-0.0451933
-0.0443516
-0.0431655
-0.041607
-0.0397758
-0.0376501
-0.0353393
-0.0328297
-0.0302292
-0.0275413
-0.0248568
-0.0221952
-0.0195839
-0.0170128
-0.0143478
-0.0114696
-0.00801234
-0.00383772
0.00118728
0.0063203
0.0102833
0.0121055
0.011946
0.0116835
0.0156717
0.015626
0.0155566
0.0154161
0.0152276
0.0149565
0.0146075
0.0141286
0.0134811
0.012569
0.0112986
0.00954997
0.0072555
0.00441126
0.00113232
-0.00239196
-0.00594271
-0.00936148
-0.0125776
-0.0156071
-0.0185127
-0.0213615
-0.0242066
-0.0270617
-0.0299227
-0.0327475
-0.035502
-0.0381211
-0.0405702
-0.0427777
-0.0447201
-0.046322
-0.047577
-0.0484107
-0.0488446
-0.0488133
-0.0483755
-0.0474794
-0.0462211
-0.0445601
-0.0426182
-0.0403603
-0.0379171
-0.0352593
-0.0325124
-0.0296654
-0.0268266
-0.0240132
-0.0212785
-0.0186374
-0.0159889
-0.0132609
-0.0100806
-0.00630043
-0.00155596
0.00358354
0.00809957
0.0105343
0.0106905
0.0103199
0.0151214
0.0150851
0.0150082
0.0148619
0.014654
0.014363
0.0139828
0.013469
0.0127746
0.0118078
0.0104703
0.00864887
0.00627981
0.00337188
4.672e-05
-0.00350172
-0.00706292
-0.0104897
-0.0137276
-0.0168013
-0.0197803
-0.0227287
-0.0256976
-0.0286907
-0.0317011
-0.0346769
-0.0375852
-0.0403528
-0.0429496
-0.0452939
-0.0473673
-0.0490804
-0.0504329
-0.0513333
-0.051813
-0.0517888
-0.0513357
-0.0503851
-0.049056
-0.0472918
-0.0452416
-0.0428535
-0.0402849
-0.0374872
-0.0346082
-0.0316165
-0.0286396
-0.0256834
-0.0228256
-0.020096
-0.0174277
-0.0147954
-0.0118365
-0.00843558
-0.00404245
0.000885228
0.00576933
0.00867833
0.00932571
0.00878524
0.0145466
0.0145189
0.0144349
0.0142834
0.0140582
0.0137502
0.0133436
0.0128021
0.0120709
0.0110642
0.00967923
0.00781018
0.00539461
0.00245082
-0.000898662
-0.00445795
-0.00802633
-0.0114639
-0.0147293
-0.0178502
-0.020902
-0.0239434
-0.0270256
-0.0301421
-0.0332863
-0.0363964
-0.0394441
-0.0423465
-0.0450808
-0.0475526
-0.0497514
-0.05157
-0.0530177
-0.0539817
-0.054507
-0.0544885
-0.0540213
-0.0530158
-0.0516179
-0.0497509
-0.0475956
-0.0450796
-0.0423926
-0.0394626
-0.0364656
-0.0333439
-0.0302482
-0.027164
-0.0241944
-0.0213714
-0.0186643
-0.0160851
-0.0132991
-0.0102354
-0.00622753
-0.00164996
0.0033743
0.00661534
0.0077904
0.00709278
0.0140516
0.014035
0.0139465
0.0137936
0.0135544
0.0132335
0.0128049
0.0122416
0.011482
0.0104475
0.00903216
0.00713732
0.00469986
0.00174374
-0.00161224
-0.00517332
-0.00874848
-0.012202
-0.0155008
-0.0186721
-0.0217952
-0.0249224
-0.0281064
-0.0313315
-0.0345939
-0.0378223
-0.0409952
-0.0440188
-0.0468799
-0.0494691
-0.0517863
-0.0537038
-0.0552434
-0.0562678
-0.0568395
-0.0568269
-0.05635
-0.0552927
-0.0538328
-0.0518679
-0.0496158
-0.0469782
-0.0441829
-0.0411299
-0.0380299
-0.0347933
-0.0316001
-0.0284055
-0.0253429
-0.0224314
-0.0196815
-0.0171258
-0.0144751
-0.0116974
-0.0080814
-0.00392698
0.00101303
0.00444079
0.00606408
0.00527962
0.0135316
0.0135244
0.0134322
0.0132789
0.0130289
0.0126995
0.0122555
0.0116796
0.0109041
0.00985887
0.00843432
0.00653934
0.004107
0.00116419
-0.00217915
-0.0057302
-0.0093083
-0.0127767
-0.0161087
-0.0193251
-0.0225099
-0.0257068
-0.028974
-0.0322852
-0.0356442
-0.0389679
-0.0422457
-0.0453697
-0.0483401
-0.0510284
-0.0534498
-0.0554514
-0.0570733
-0.0581483
-0.0587626
-0.0587525
-0.0582685
-0.057162
-0.0556481
-0.0535921
-0.0512541
-0.0485035
-0.0456127
-0.0424473
-0.03926
-0.0359229
-0.0326532
-0.0293662
-0.0262326
-0.0232434
-0.0204571
-0.017907
-0.0153652
-0.0128229
-0.00958528
-0.00588064
-0.00120674
0.00226051
0.00420241
0.00341283
0.0131176
0.0131224
0.0130296
0.0128803
0.0126237
0.0122905
0.011836
0.0112538
0.0104706
0.00942598
0.00800772
0.00613215
0.00372667
0.000817958
-0.00249665
-0.00602849
-0.00960695
-0.0130913
-0.0164571
-0.0197158
-0.0229544
-0.0262077
-0.029541
-0.032918
-0.0363531
-0.0397504
-0.0431131
-0.0463164
-0.0493775
-0.0521453
-0.0546547
-0.0567241
-0.0584174
-0.059533
-0.0601868
-0.0601775
-0.0596921
-0.0585429
-0.0569881
-0.0548532
-0.0524463
-0.0495971
-0.0466286
-0.043365
-0.0401092
-0.036687
-0.0333623
-0.0300009
-0.0268196
-0.0237668
-0.0209573
-0.0184043
-0.0159554
-0.0136045
-0.0107196
-0.00746063
-0.00317745
0.000190317
0.00231804
0.00158205
0.0126691
0.0126831
0.0125905
0.0124463
0.0121871
0.0118554
0.0113984
0.0108204
0.0100431
0.00901691
0.00762622
0.00579544
0.00344321
0.000594688
-0.00267054
-0.00616768
-0.00973822
-0.0132319
-0.0166263
-0.0199167
-0.0231955
-0.0264843
-0.0298612
-0.0332768
-0.0367623
-0.0402046
-0.0436265
-0.0468809
-0.0500078
-0.0528276
-0.0554026
-0.0575159
-0.0592636
-0.0604032
-0.0610889
-0.0610742
-0.0605908
-0.0594033
-0.0578204
-0.0556188
-0.0531618
-0.0502295
-0.0472038
-0.0438573
-0.0405528
-0.0370602
-0.0337014
-0.0302813
-0.0270749
-0.0239724
-0.0211564
-0.0185979
-0.0162335
-0.0140369
-0.0114732
-0.0086348
-0.00481331
-0.00166322
0.000528568
-0.00012797
0.0123536
0.0123794
0.0122903
0.0121556
0.0118983
0.011573
0.0111181
0.0105496
0.00978466
0.00878567
0.00743443
0.00566405
0.0033834
0.000614375
-0.00258436
-0.00603404
-0.00958929
-0.0130885
-0.0165087
-0.0198253
-0.0231352
-0.0264446
-0.0298468
-0.0332785
-0.0367915
-0.0402533
-0.0437105
-0.0469891
-0.0501576
-0.0530027
-0.0556206
-0.0577542
-0.0595397
-0.0606879
-0.0613993
-0.0613753
-0.0608999
-0.0596818
-0.0580875
-0.0558356
-0.0533519
-0.0503565
-0.0472982
-0.0438877
-0.0405572
-0.0370101
-0.0336382
-0.0301738
-0.0269637
-0.0238245
-0.0210196
-0.0184568
-0.0161744
-0.0141023
-0.0118284
-0.00937339
-0.006045
-0.00320326
-0.00105988
-0.00163767
0.011982
0.0120156
0.0119305
0.0118061
0.0115553
0.0112424
0.0107987
0.0102512
0.00951284
0.00855893
0.00726764
0.00558244
0.00339943
0.000738175
-0.00236925
-0.00574896
-0.00927379
-0.0127655
-0.0162028
-0.019533
-0.0228606
-0.0261698
-0.0295756
-0.032995
-0.036509
-0.039959
-0.0434237
-0.0466943
-0.0498766
-0.0527148
-0.0553497
-0.057475
-0.0592784
-0.0604148
-0.0611423
-0.0611002
-0.0606358
-0.0593909
-0.0577998
-0.0555107
-0.0530224
-0.0499817
-0.0469154
-0.0434578
-0.040124
-0.0365358
-0.0331705
-0.0296727
-0.0264779
-0.0233115
-0.0205346
-0.0179687
-0.0157698
-0.0137966
-0.0117824
-0.00966504
-0.00683198
-0.00435739
-0.00236697
-0.00288345
0.0117733
0.0118176
0.0117394
0.0116296
0.0113893
0.011093
0.0106638
0.0101408
0.00943234
0.00852822
0.00730331
0.00571326
0.00364128
0.001105
-0.00189269
-0.00518466
-0.0086655
-0.0121401
-0.0155891
-0.0189276
-0.0222667
-0.0255641
-0.0289592
-0.032346
-0.03584
-0.0392527
-0.0427012
-0.0459364
-0.049108
-0.0519117
-0.0545409
-0.0566331
-0.0584373
-0.0595447
-0.0602815
-0.0602158
-0.059768
-0.0585023
-0.0569314
-0.0546205
-0.052152
-0.0490853
-0.0460375
-0.0425511
-0.0392376
-0.0356213
-0.0322819
-0.0287589
-0.0255965
-0.0224089
-0.0196753
-0.0171064
-0.0149948
-0.0130985
-0.0113189
-0.00949071
-0.00713796
-0.00505971
-0.00331641
-0.00379602
0.0114727
0.0115221
0.0114509
0.0113557
0.0111309
0.010858
0.0104535
0.0099678
0.00930405
0.00846789
0.00732875
0.00585776
0.00392183
0.0015409
-0.00131784
-0.00449092
-0.00790397
-0.0113399
-0.0147882
-0.0181213
-0.0214627
-0.0247318
-0.0281005
-0.0314302
-0.0348821
-0.0382276
-0.0416354
-0.0448039
-0.0479407
-0.0506795
-0.0532808
-0.0553128
-0.0571009
-0.0581592
-0.0588971
-0.0587976
-0.0583693
-0.0570835
-0.0555459
-0.0532221
-0.0507938
-0.0477147
-0.0447086
-0.0412059
-0.0379337
-0.0342972
-0.0310006
-0.0274557
-0.02434
-0.0211324
-0.0184559
-0.0158811
-0.0138619
-0.0120209
-0.0104529
-0.00886073
-0.00695699
-0.00527152
-0.00384994
-0.00431689
0.011372
0.01143
0.011368
0.0112912
0.0110844
0.0108378
0.0104591
0.0100113
0.00939126
0.00862242
0.00756829
0.00621865
0.0044243
0.00221086
-0.000492012
-0.00352462
-0.00684986
-0.01023
-0.0136682
-0.0169901
-0.0203323
-0.0235687
-0.026906
-0.030166
-0.0335622
-0.0368207
-0.0401695
-0.0432486
-0.0463319
-0.0489833
-0.0515402
-0.0534923
-0.0552523
-0.0562473
-0.056982
-0.0568427
-0.0564391
-0.0551361
-0.0536463
-0.0513197
-0.0489525
-0.0458741
-0.0429325
-0.0394248
-0.0362143
-0.0325629
-0.0293241
-0.0257566
-0.0226997
-0.0194683
-0.0168603
-0.014273
-0.0123519
-0.0105451
-0.00917124
-0.00776297
-0.00627029
-0.00494844
-0.00389698
-0.00436838
0.0111257
0.0111853
0.0111321
0.0110731
0.0108897
0.0106774
0.0103362
0.00994138
0.00938109
0.00869903
0.00774848
0.00654332
0.00491307
0.0028977
0.000381526
-0.00247182
-0.0056764
-0.00896741
-0.0123762
-0.0156693
-0.0190069
-0.0222002
-0.0255014
-0.0286761
-0.0320055
-0.0351539
-0.0384281
-0.0413921
-0.0444065
-0.0469464
-0.049446
-0.0512972
-0.0530204
-0.0539357
-0.0546642
-0.0544748
-0.0540999
-0.0527758
-0.0513448
-0.0490168
-0.046727
-0.0436532
-0.0407942
-0.037284
-0.0341511
-0.0304826
-0.0273143
-0.0237173
-0.0207305
-0.0174672
-0.01494
-0.0123297
-0.0105152
-0.00871851
-0.00752393
-0.00624142
-0.00510959
-0.00408928
-0.0034163
-0.00389634
0.0111301
0.011196
0.0111524
0.0111141
0.0109541
0.0107766
0.0104703
0.0101251
0.00961793
0.00901551
0.00815907
0.00709098
0.005619
0.00380398
0.00148384
-0.0011699
-0.00423021
-0.00740643
-0.0107687
-0.0140219
-0.0173551
-0.0205069
-0.0237785
-0.0268682
-0.0301309
-0.033161
-0.0363535
-0.0391888
-0.0421253
-0.0445397
-0.046975
-0.0487136
-0.0503964
-0.0512235
-0.0519466
-0.0517024
-0.0513624
-0.0500168
-0.0486562
-0.0463299
-0.0441329
-0.0410673
-0.0383073
-0.0347949
-0.0317533
-0.0280617
-0.0249736
-0.0213358
-0.0184276
-0.0151183
-0.0126823
-0.0100331
-0.00833403
-0.00652166
-0.00549874
-0.00428689
-0.00346961
-0.00267243
-0.00234942
-0.00282549
0.0109133
0.0109767
0.0109422
0.0109236
0.0107937
0.0106609
0.0104039
0.0101271
0.00969194
0.00919188
0.00844847
0.00754083
0.00624604
0.00465961
0.00256272
0.000150259
-0.00272758
-0.00574269
-0.00902804
-0.0122122
-0.0155331
-0.0186342
-0.0218825
-0.0248828
-0.0280842
-0.0309855
-0.0340956
-0.0367864
-0.0396419
-0.0419144
-0.0442843
-0.0458958
-0.0475401
-0.0482669
-0.0489894
-0.0486802
-0.0483827
-0.0470073
-0.0457276
-0.0433956
-0.0413041
-0.0382387
-0.0355904
-0.0320644
-0.0291253
-0.0253956
-0.0223981
-0.0187021
-0.015886
-0.0125137
-0.0101872
-0.00748024
-0.00591467
-0.00405549
-0.00320376
-0.00199701
-0.0014426
-0.000757876
-0.000708901
-0.00114591
0.0110199
0.0110875
0.0110617
0.0110646
0.0109605
0.0108693
0.0106532
0.0104358
0.0100583
0.00964553
0.00899549
0.00822966
0.007092
0.00572182
0.00384212
0.00168098
-0.000995742
-0.00381939
-0.00700187
-0.0100936
-0.0133953
-0.0164448
-0.0196824
-0.0226044
-0.0257608
-0.0285411
-0.0315787
-0.0341253
-0.0369041
-0.0390314
-0.0413392
-0.0428204
-0.0444309
-0.0450547
-0.0457829
-0.0454064
-0.0451596
-0.0437518
-0.0425627
-0.0402214
-0.0382457
-0.0351741
-0.0326465
-0.0290959
-0.0262661
-0.0224812
-0.0195807
-0.0158056
-0.0130905
-0.00963184
-0.00742898
-0.00463748
-0.00322292
-0.00128064
-0.000610233
0.000652782
0.000973088
0.00165414
0.00152021
0.00117615
0.010801
0.0108615
0.0108442
0.0108681
0.0107991
0.0107636
0.0106073
0.0104744
0.0101785
0.0098819
0.00934677
0.00874901
0.00778445
0.0066555
0.00501144
0.00313865
0.000697113
-0.0018814
-0.00492073
-0.00787227
-0.0111346
-0.0141112
-0.0173456
-0.0201885
-0.0233203
-0.0259827
-0.0289668
-0.0313669
-0.0340836
-0.0360587
-0.0383171
-0.0396591
-0.0412488
-0.0417598
-0.0425074
-0.042052
-0.0418693
-0.040415
-0.0393294
-0.0369614
-0.0351133
-0.0320139
-0.0296178
-0.0260169
-0.0233078
-0.0194406
-0.0166534
-0.0127732
-0.0101849
-0.00661553
-0.00457212
-0.00166746
-0.000443796
0.00162656
0.00208743
0.00348819
0.00359555
0.00441789
0.004217
0.00404765
0.0110113
0.0110747
0.011064
0.0111097
0.011066
0.011077
0.0109632
0.010897
0.0106576
0.0104518
0.00999981
0.00953899
0.00871203
0.00779463
0.00635902
0.00476428
0.00255836
0.000247118
-0.0026226
-0.00539857
-0.0085997
-0.0114862
-0.0147214
-0.0174934
-0.0206242
-0.0231877
-0.026145
-0.0284152
-0.0310909
-0.0329243
-0.0351491
-0.0363579
-0.03794
-0.0383411
-0.0391193
-0.0385849
-0.0384757
-0.036971
-0.0359962
-0.0335933
-0.0318777
-0.0287371
-0.0264756
-0.0228061
-0.0202214
-0.0162499
-0.0135837
-0.00957304
-0.00712614
-0.00341445
-0.00155244
0.00150804
0.00251112
0.00476689
0.00498166
0.0065991
0.00647066
0.00755498
0.00735578
0.0074518
0.0107522
0.010803
0.0108002
0.010869
0.010865
0.0109444
0.0108998
0.0109361
0.0107851