/*--------------------------------*- C++ -*----------------------------------*\
| =========                 |                                                 |
| \\      /  F ield         | OpenFOAM: The Open Source CFD Toolbox           |
|  \\    /   O peration     | Version:  2406                                  |
|   \\  /    A nd           | Website:  www.openfoam.com                      |
|    \\/     M anipulation  |                                                 |
\*---------------------------------------------------------------------------*/
FoamFile
{
    version     2.0;
    format      ascii;
    arch        "LSB;label=32;scalar=64";
    class       surfaceScalarField;
    location    "27.7";
    object      phi;
}
// * * * * * * * * * * * * * * * * * * * * * * * * * * * * * * * * * * * * * //

dimensions      [0 3 -1 0 0 0 0];

oriented        oriented;

internalField   nonuniform List<scalar> 
28560
(
-8.612e-09
8.60847e-09
3.53624e-08
-4.58966e-08
1.34255e-07
-9.92299e-08
2.76552e-07
-1.44627e-07
4.4739e-07
-1.72117e-07
6.3184e-07
-1.86955e-07
8.18707e-07
-1.88607e-07
9.97811e-07
-1.81401e-07
1.16272e-06
-1.66607e-07
1.30831e-06
-1.47432e-07
1.43242e-06
-1.2547e-07
1.5341e-06
-1.0297e-07
1.61435e-06
-8.11629e-08
1.67491e-06
-6.13271e-08
1.71845e-06
-4.40201e-08
1.74772e-06
-2.96159e-08
1.76556e-06
-1.79796e-08
1.77431e-06
-8.77108e-09
1.77578e-06
-1.33659e-09
1.77093e-06
5.09649e-09
1.75987e-06
1.14264e-08
1.74184e-06
1.85423e-08
1.71521e-06
2.72988e-08
1.67763e-06
3.84348e-08
1.62615e-06
5.25625e-08
1.55735e-06
7.01449e-08
1.46749e-06
9.15178e-08
1.35261e-06
1.16911e-07
1.20856e-06
1.46485e-07
1.03112e-06
1.80363e-07
8.15908e-07
2.18647e-07
5.58503e-07
2.61426e-07
2.54393e-07
3.08765e-07
-1.00952e-07
3.60687e-07
-5.12018e-07
4.17147e-07
-9.83155e-07
4.78002e-07
-1.51845e-06
5.42988e-07
-2.1216e-06
6.117e-07
-2.79574e-06
6.83579e-07
-3.54331e-06
7.57903e-07
-4.36586e-06
8.3378e-07
-5.2639e-06
9.10158e-07
-6.23676e-06
9.85825e-07
-7.28241e-06
1.05943e-06
-8.3974e-06
1.12951e-06
-9.57671e-06
1.19449e-06
-1.08137e-05
1.25275e-06
-1.21002e-05
1.30262e-06
-1.34262e-05
1.34245e-06
-1.47802e-05
1.37061e-06
-1.61492e-05
1.38556e-06
-1.75187e-05
1.38584e-06
-1.8873e-05
1.37014e-06
-2.0195e-05
1.33731e-06
-2.1467e-05
1.2864e-06
-2.26703e-05
1.21665e-06
-2.37858e-05
1.12754e-06
-2.47941e-05
1.01885e-06
-2.56758e-05
8.90601e-07
-2.6412e-05
7.43165e-07
-2.69843e-05
5.77248e-07
-2.73756e-05
3.93936e-07
-2.75699e-05
1.94723e-07
-2.75536e-05
-1.84656e-08
-2.73149e-05
-2.43246e-07
-2.68453e-05
-4.76764e-07
-2.61394e-05
-7.15695e-07
-2.51954e-05
-9.5626e-07
-2.40158e-05
-1.19426e-06
-2.26077e-05
-1.42514e-06
-2.09829e-05
-1.64408e-06
-1.9158e-05
-1.84612e-06
-1.71547e-05
-2.02627e-06
-1.49993e-05
-2.17974e-06
-1.27228e-05
-2.30211e-06
-1.03597e-05
-2.38951e-06
-7.94766e-06
-2.43887e-06
-5.52653e-06
-2.44807e-06
-3.13703e-06
-2.41614e-06
-8.19613e-07
-2.34337e-06
1.38687e-06
-2.23138e-06
3.44649e-06
-2.0831e-06
5.32746e-06
-1.90273e-06
7.00327e-06
-1.69554e-06
8.45351e-06
-1.46772e-06
9.6645e-06
-1.22604e-06
1.06296e-05
-9.7756e-07
1.1349e-05
-7.29317e-07
1.18297e-05
-4.87969e-07
1.20844e-05
-2.59517e-07
1.21311e-05
-4.90559e-08
1.19915e-05
1.39399e-07
1.16903e-05
3.03019e-07
1.12537e-05
4.40174e-07
1.07083e-05
5.50397e-07
1.00802e-05
6.34258e-07
9.39401e-06
6.93218e-07
8.67227e-06
7.29418e-07
7.93486e-06
7.45506e-07
7.19872e-06
7.444e-07
6.47784e-06
7.29155e-07
5.7832e-06
7.02743e-07
5.12303e-06
6.68022e-07
4.50296e-06
6.27537e-07
3.92641e-06
5.83621e-07
3.39479e-06
5.38167e-07
2.90803e-06
4.92915e-07
2.46453e-06
4.49051e-07
2.062e-06
4.07762e-07
1.69716e-06
3.69418e-07
1.36698e-06
3.34614e-07
1.06812e-06
3.02496e-07
7.98999e-07
2.72872e-07
5.58826e-07
2.42863e-07
3.50405e-07
2.11525e-07
1.7882e-07
1.7317e-07
5.29298e-08
1.28217e-07
-1.67752e-08
7.01103e-08
-2.89848e-08
1.36354e-08
-2.90302e-08
4.47601e-08
-3.42297e-08
2.01688e-07
-2.02813e-07
4.66928e-07
-3.60954e-07
8.17316e-07
-4.93041e-07
1.22758e-06
-5.78137e-07
1.66763e-06
-6.23766e-07
2.11344e-06
-6.30105e-07
2.54223e-06
-6.06719e-07
2.93826e-06
-5.58875e-07
3.28892e-06
-4.95091e-07
3.58755e-06
-4.21234e-07
3.83056e-06
-3.43788e-07
4.01846e-06
-2.67188e-07
4.15375e-06
-1.95283e-07
4.24094e-06
-1.30188e-07
4.28496e-06
-7.30409e-08
4.29092e-06
-2.36042e-08
4.26295e-06
1.92437e-08
4.2039e-06
5.75339e-08
4.11475e-06
9.38157e-08
3.99453e-06
1.31013e-07
3.84007e-06
1.72103e-07
3.64623e-06
2.19946e-07
3.40606e-06
2.77074e-07
3.11108e-06
3.45604e-07
2.75161e-06
4.27179e-07
2.31711e-06
5.23001e-07
1.79645e-06
6.33887e-07
1.17812e-06
7.60364e-07
4.50414e-07
9.0274e-07
-3.98391e-07
1.06115e-06
-1.37991e-06
1.23557e-06
-2.50545e-06
1.42575e-06
-3.7858e-06
1.6312e-06
-5.2309e-06
1.85104e-06
-6.84956e-06
2.08398e-06
-8.649e-06
2.32822e-06
-1.06345e-05
2.58139e-06
-1.2809e-05
2.84057e-06
-1.51724e-05
3.10226e-06
-1.77219e-05
3.3624e-06
-2.04506e-05
3.61646e-06
-2.33484e-05
3.85951e-06
-2.64008e-05
4.08628e-06
-2.95895e-05
4.29134e-06
-3.28924e-05
4.4692e-06
-3.62832e-05
4.61443e-06
-3.97324e-05
4.72183e-06
-4.3207e-05
4.78657e-06
-4.66714e-05
4.80426e-06
-5.00876e-05
4.77111e-06
-5.3416e-05
4.68396e-06
-5.66156e-05
4.54037e-06
-5.96453e-05
4.33869e-06
-6.24636e-05
4.07802e-06
-6.50299e-05
3.75829e-06
-6.7305e-05
3.38025e-06
-6.92511e-05
2.94546e-06
-7.08332e-05
2.45631e-06
-7.2019e-05
1.91606e-06
-7.27796e-05
1.32878e-06
-7.309e-05
6.9945e-07
-7.29297e-05
3.39417e-08
-7.22832e-05
-6.6096e-07
-7.11401e-05
-1.37754e-06
-6.9496e-05
-2.10715e-06
-6.7353e-05
-2.84025e-06
-6.47196e-05
-3.56643e-06
-6.16114e-05
-4.27457e-06
-5.80513e-05
-4.9529e-06
-5.40697e-05
-5.58926e-06
-4.97043e-05
-6.17132e-06
-4.50002e-05
-6.68691e-06
-4.00093e-05
-7.12436e-06
-3.47901e-05
-7.47291e-06
-2.94065e-05
-7.72317e-06
-2.3927e-05
-7.86751e-06
-1.84236e-05
-7.90053e-06
-1.29699e-05
-7.81942e-06
-7.64002e-06
-7.62427e-06
-2.50617e-06
-7.31824e-06
2.36272e-06
-6.90772e-06
6.90308e-06
-6.40214e-06
1.10585e-05
-5.81384e-06
1.47812e-05
-5.15765e-06
1.80338e-05
-4.45039e-06
2.07898e-05
-3.71019e-06
2.30347e-05
-2.95582e-06
2.47662e-05
-2.20592e-06
2.59938e-05
-1.47823e-06
2.6738e-05
-7.88923e-07
2.70296e-05
-1.51947e-07
2.69078e-05
4.21417e-07
2.64184e-05
9.22888e-07
2.56121e-05
1.34734e-06
2.45421e-05
1.69275e-06
2.32621e-05
1.96005e-06
2.18245e-05
2.1527e-06
2.02786e-05
2.27633e-06
1.86694e-05
2.33816e-06
1.70367e-05
2.34647e-06
1.54142e-05
2.31007e-06
1.38298e-05
2.23788e-06
1.23049e-05
2.13844e-06
1.08556e-05
2.01979e-06
9.49251e-06
1.88899e-06
8.22169e-06
1.75243e-06
7.04511e-06
1.6151e-06
5.96207e-06
1.48134e-06
4.96909e-06
1.35352e-06
4.06244e-06
1.23353e-06
3.2375e-06
1.12e-06
2.49263e-06
1.01166e-06
1.82756e-06
9.01782e-07
1.24851e-06
7.86287e-07
7.64252e-07
6.52654e-07
3.90057e-07
5.00316e-07
1.38809e-07
3.18157e-07
1.50945e-08
1.37487e-07
-1.53437e-08
9.57902e-08
-1.29689e-07
3.55181e-07
-4.65706e-07
7.60084e-07
-7.65854e-07
1.27194e-06
-1.00849e-06
1.85908e-06
-1.16704e-06
2.48128e-06
-1.24959e-06
3.10721e-06
-1.25856e-06
3.70604e-06
-1.20885e-06
4.25602e-06
-1.11135e-06
4.73925e-06
-9.80991e-07
5.1455e-06
-8.29511e-07
5.46862e-06
-6.68812e-07
5.70779e-06
-5.07733e-07
5.86483e-06
-3.53489e-07
5.94422e-06
-2.10347e-07
5.95105e-06
-8.042e-08
5.89049e-06
3.66915e-08
5.76638e-06
1.43264e-07
5.58074e-06
2.43302e-07
5.33292e-06
3.41919e-07
5.01946e-06
4.44954e-07
4.63383e-06
5.58404e-07
4.16666e-06
6.88026e-07
3.60595e-06
8.3895e-07
2.93759e-06
1.01546e-06
2.14576e-06
1.22089e-06
1.21348e-06
1.45761e-06
1.2305e-07
1.72718e-06
-1.14355e-06
2.03043e-06
-2.60426e-06
2.3676e-06
-4.27657e-06
2.73837e-06
-6.17713e-06
3.14189e-06
-8.32131e-06
3.57663e-06
-1.07227e-05
4.04027e-06
-1.33924e-05
4.52956e-06
-1.63386e-05
5.04016e-06
-1.95658e-05
5.56658e-06
-2.3074e-05
6.1021e-06
-2.68585e-05
6.63887e-06
-3.0909e-05
7.16792e-06
-3.52096e-05
7.67941e-06
-3.97381e-05
8.16279e-06
-4.44667e-05
8.60709e-06
-4.93614e-05
9.00122e-06
-5.4383e-05
9.33429e-06
-5.94874e-05
9.59594e-06
-6.46265e-05
9.77664e-06
-6.97489e-05
9.86792e-06
-7.48009e-05
9.86265e-06
-7.97276e-05
9.75515e-06
-8.44736e-05
9.54128e-06
-8.89844e-05
9.21851e-06
-9.32069e-05
8.78591e-06
-9.70901e-05
8.24403e-06
-0.000100586
7.5949e-06
-0.000103651
6.84191e-06
-0.000106243
5.98968e-06
-0.000108326
5.04405e-06
-0.000109869
4.01195e-06
-0.000110845
2.9014e-06
-0.000111231
1.72146e-06
-0.00011101
4.8228e-07
-0.000110171
-8.04947e-07
-0.000108708
-2.1279e-06
-0.00010662
-3.47315e-06
-0.000103912
-4.82611e-06
-0.000100596
-6.17106e-06
-9.66901e-05
-7.49124e-06
-9.22181e-05
-8.76889e-06
-8.72114e-05
-9.98548e-06
-8.17078e-05
-1.11219e-05
-7.57521e-05
-1.2159e-05
-6.93961e-05
-1.30775e-05
-6.2698e-05
-1.38593e-05
-5.57222e-05
-1.44871e-05
-4.85392e-05
-1.49458e-05
-4.1224e-05
-1.5223e-05
-3.38558e-05
-1.53091e-05
-2.65163e-05
-1.51987e-05
-1.92888e-05
-1.48906e-05
-1.2256e-05
-1.43882e-05
-5.49884e-06
-1.36999e-05
9.05778e-07
-1.28391e-05
6.88648e-06
-1.18239e-05
1.23794e-05
-1.06765e-05
1.73297e-05
-9.42302e-06
2.16933e-05
-8.09225e-06
2.54377e-05
-6.71484e-06
2.85432e-05
-5.32223e-06
3.10033e-05
-3.94547e-06
3.28249e-05
-2.6141e-06
3.40277e-05
-1.35513e-06
3.46437e-05
-1.92031e-07
3.47157e-05
8.56008e-07
3.42956e-05
1.77467e-06
3.34424e-05
2.55481e-06
3.22202e-05
3.19256e-06
3.0695e-05
3.68904e-06
2.89332e-05
4.04994e-06
2.69987e-05
4.28477e-06
2.49512e-05
4.40613e-06
2.28445e-05
4.42863e-06
2.07258e-05
4.36816e-06
1.86343e-05
4.24082e-06
1.66021e-05
4.06246e-06
1.4653e-05
3.84774e-06
1.28043e-05
3.61014e-06
1.10667e-05
3.36091e-06
9.44598e-06
3.10973e-06
7.94336e-06
2.86287e-06
6.55855e-06
2.62483e-06
5.28905e-06
2.39484e-06
4.13543e-06
2.17077e-06
3.09867e-06
1.94243e-06
2.18777e-06
1.70179e-06
1.41254e-06
1.43e-06
7.9306e-07
1.1236e-06
3.43027e-07
7.67981e-07
8.05146e-08
4.03347e-07
6.45479e-08
1.39595e-07
-2.66957e-07
4.85647e-07
-8.13751e-07
1.00241e-06
-1.27902e-06
1.63559e-06
-1.64171e-06
2.34808e-06
-1.87651e-06
3.0924e-06
-1.99275e-06
3.83318e-06
-1.99667e-06
4.53449e-06
-1.90856e-06
5.17108e-06
-1.74573e-06
5.72147e-06
-1.52986e-06
6.17284e-06
-1.27922e-06
6.51674e-06
-1.01155e-06
6.75064e-06
-7.40517e-07
6.87484e-06
-4.76947e-07
6.89248e-06
-2.27371e-07
6.80723e-06
5.19109e-09
6.62263e-06
2.21529e-07
6.34047e-06
4.25466e-07
5.96021e-06
6.23488e-07
5.47803e-06
8.23879e-07
4.88661e-06
1.03603e-06
4.17494e-06
1.26957e-06
3.32858e-06
1.53372e-06
2.33002e-06
1.83663e-06
1.15931e-06
2.18507e-06
-2.05361e-07
2.58416e-06
-1.78688e-06
3.03741e-06
-3.60859e-06
3.54679e-06
-5.69363e-06
4.11293e-06
-8.06426e-06
4.73519e-06
-1.07412e-05
5.41171e-06
-1.37428e-05
6.13934e-06
-1.70845e-05
6.91345e-06
-2.07777e-05
7.72779e-06
-2.48287e-05
8.57423e-06
-2.92385e-05
9.4427e-06
-3.40012e-05
1.03211e-05
-3.91038e-05
1.11956e-05
-4.45254e-05
1.20506e-05
-5.02376e-05
1.28691e-05
-5.62037e-05
1.36337e-05
-6.23799e-05
1.43262e-05
-6.87156e-05
1.4929e-05
-7.51545e-05
1.54255e-05
-8.16357e-05
1.58002e-05
-8.80957e-05
1.60399e-05
-9.4469e-05
1.61334e-05
-0.00010069
1.60721e-05
-0.000106695
1.58502e-05
-0.000112421
1.54644e-05
-0.000117811
1.49141e-05
-0.00012281
1.42009e-05
-0.000127369
1.33286e-05
-0.000131444
1.23029e-05
-0.000134994
1.1131e-05
-0.000137987
9.8214e-06
-0.000140393
8.38393e-06
-0.000142188
6.82928e-06
-0.000143354
5.16908e-06
-0.000143875
3.41581e-06
-0.00014374
1.58283e-06
-0.000142944
-3.15601e-07
-0.000141484
-2.26422e-06
-0.000139363
-4.24666e-06
-0.000136585
-6.24539e-06
-0.000133161
-8.24156e-06
-0.000129106
-1.0215e-05
-0.00012444
-1.21442e-05
-0.000119186
-1.40065e-05
-0.000113376
-1.57778e-05
-0.000107044
-1.74335e-05
-0.000100232
-1.89483e-05
-9.29886e-05
-2.0297e-05
-8.53674e-05
-2.1455e-05
-7.74288e-05
-2.23991e-05
-6.92391e-05
-2.31082e-05
-6.08701e-05
-2.35643e-05
-5.23983e-05
-2.37533e-05
-4.39039e-05
-2.36657e-05
-3.54701e-05
-2.32979e-05
-2.71809e-05
-2.26519e-05
-1.91203e-05
-2.17364e-05
-1.13703e-05
-2.05668e-05
-4.00908e-06
-1.91648e-05
2.89053e-06
-1.75582e-05
9.26283e-06
-1.57798e-05
1.50507e-05
-1.38672e-05
2.02071e-05
-1.18609e-05
2.4696e-05
-9.80346e-06
2.84936e-05
-7.73792e-06
3.15888e-05
-5.7065e-06
3.39833e-05
-3.7492e-06
3.56922e-05
-1.9025e-06
3.67431e-05
-1.98197e-07
3.71753e-05
1.33763e-06
3.70387e-05
2.68532e-06
3.6392e-05
3.8322e-06
3.53005e-05
4.77269e-06
3.38341e-05
5.50815e-06
3.2064e-05
6.04632e-06
3.00612e-05
6.40051e-06
2.78929e-05
6.58845e-06
2.56218e-05
6.63114e-06
2.33034e-05
6.55139e-06
2.09857e-05
6.37284e-06
1.8708e-05
6.11846e-06
1.65017e-05
5.81011e-06
1.43897e-05
5.46693e-06
1.23885e-05
5.10567e-06
1.05078e-05
4.73838e-06
8.75467e-06
4.37379e-06
7.13173e-06
4.01337e-06
5.64415e-06
3.65526e-06
4.29539e-06
3.28729e-06
3.09764e-06
2.89784e-06
2.06107e-06
2.46292e-06
1.21067e-06
1.97421e-06
5.62121e-07
1.41253e-06
1.52744e-07
8.15358e-07
2.148e-07
1.68568e-07
-4.34193e-07
5.78624e-07
-1.22812e-06
1.17901e-06
-1.87753e-06
1.90029e-06
-2.36606e-06
2.69882e-06
-2.67495e-06
3.52022e-06
-2.81653e-06
4.32581e-06
-2.80301e-06
5.07596e-06
-2.66062e-06
5.74322e-06
-2.41399e-06
6.30375e-06
-2.09186e-06
6.74305e-06
-1.71943e-06
7.05085e-06
-1.32038e-06
7.22297e-06
-9.13302e-07
7.25789e-06
-5.12503e-07
7.15671e-06
-1.26583e-07
6.92069e-06
2.40896e-07
6.55052e-06
5.91556e-07
6.0446e-06
9.31314e-07
5.39843e-06
1.26973e-06
4.6036e-06
1.61886e-06
3.64771e-06
1.99218e-06
2.5142e-06
2.40344e-06
1.18283e-06
2.86559e-06
-3.69844e-07
3.38996e-06
-2.1696e-06
3.98565e-06
-4.24368e-06
4.65927e-06
-6.61983e-06
5.41484e-06
-9.32535e-06
6.25387e-06
-1.23861e-05
7.17556e-06
-1.58255e-05
8.17682e-06
-1.96634e-05
9.25226e-06
-2.3915e-05
1.03941e-05
-2.85898e-05
1.15918e-05
-3.36901e-05
1.28323e-05
-3.92105e-05
1.40993e-05
-4.51362e-05
1.53738e-05
-5.14433e-05
1.66342e-05
-5.80978e-05
1.78569e-05
-6.50564e-05
1.90166e-05
-7.22668e-05
2.00875e-05
-7.96687e-05
2.10443e-05
-8.71956e-05
2.18625e-05
-9.47765e-05
2.252e-05
-0.000102338
2.29974e-05
-0.000109805
2.3279e-05
-0.000117107
2.33526e-05
-0.000124172
2.32103e-05
-0.000130936
2.2848e-05
-0.000137338
2.22651e-05
-0.000143326
2.14647e-05
-0.000148852
2.04523e-05
-0.000153876
1.92362e-05
-0.000158362
1.78262e-05
-0.000162282
1.62337e-05
-0.000165612
1.44712e-05
-0.000168334
1.25519e-05
-0.000170431
1.04894e-05
-0.000171893
8.2981e-06
-0.000172711
5.99252e-06
-0.000172879
3.58779e-06
-0.000172393
1.0996e-06
-0.000171253
-1.45561e-06
-0.000169457
-4.06046e-06
-0.00016701
-6.6964e-06
-0.000163917
-9.3435e-06
-0.000160184
-1.19803e-05
-0.000155824
-1.45835e-05
-0.00015085
-1.71281e-05
-0.000145281
-1.95873e-05
-0.000139139
-2.19326e-05
-0.000132453
-2.4134e-05
-0.000125257
-2.61607e-05
-0.00011759
-2.79811e-05
-0.000109499
-2.95642e-05
-0.000101037
-3.08799e-05
-9.22638e-05
-3.19003e-05
-8.32466e-05
-3.2601e-05
-7.40576e-05
-3.29618e-05
-6.47745e-05
-3.29681e-05
-5.54791e-05
-3.26119e-05
-4.6256e-05
-3.18928e-05
-3.71911e-05
-3.08182e-05
-2.83697e-05
-2.94039e-05
-1.98748e-05
-2.76739e-05
-1.17856e-05
-2.566e-05
-4.17539e-06
-2.3401e-05
2.88981e-06
-2.09416e-05
9.35246e-06
-1.83309e-05
1.51648e-05
-1.56213e-05
2.02895e-05
-1.28665e-05
2.47009e-05
-1.012e-05
2.83848e-05
-7.43368e-06
3.13396e-05
-4.85635e-06
3.35757e-05
-2.43209e-06
3.51158e-05
-1.99192e-07
3.59943e-05
1.81095e-06
3.62566e-05
3.57476e-06
3.59577e-05
5.07705e-06
3.51603e-05
6.31131e-06
3.3933e-05
7.27952e-06
3.23478e-05
7.99169e-06
3.04774e-05
8.46481e-06
2.83927e-05
8.72168e-06
2.61604e-05
8.78921e-06
2.38415e-05
8.69705e-06
2.14892e-05
8.47561e-06
1.91491e-05
8.15496e-06
1.68574e-05
7.76278e-06
1.46432e-05
7.32385e-06
1.25275e-05
6.85748e-06
1.05267e-05
6.3781e-06
8.65133e-06
5.89123e-06
6.91313e-06
5.39669e-06
5.31976e-06
4.88205e-06
3.88814e-06
4.33267e-06
2.63047e-06
3.72044e-06
1.57867e-06
3.02978e-06
7.53482e-07
2.23506e-06
2.13614e-07
1.36054e-06
4.26447e-07
1.89346e-07
-6.20922e-07
6.45135e-07
-1.68739e-06
1.30339e-06
-2.53198e-06
2.08186e-06
-3.14593e-06
2.93006e-06
-3.5207e-06
3.78744e-06
-3.67402e-06
4.61236e-06
-3.62617e-06
5.36246e-06
-3.41027e-06
6.00893e-06
-3.05913e-06
6.52643e-06
-2.60877e-06
6.89939e-06
-2.09144e-06
7.11611e-06
-1.53658e-06
7.17084e-06
-9.67405e-07
7.05993e-06
-4.0123e-07
6.78187e-06
1.51829e-07
6.33464e-06
6.88314e-07
5.71498e-06
1.21136e-06
4.91667e-06
1.72965e-06
3.92993e-06
2.25645e-06
2.74056e-06
2.8081e-06
1.32999e-06
3.40256e-06
-3.24654e-07
4.0578e-06
-2.24986e-06
4.79042e-06
-4.47488e-06
5.61449e-06
-7.03063e-06
6.54079e-06
-9.94847e-06
7.57634e-06
-1.32589e-05
8.72431e-06
-1.69902e-05
9.98403e-06
-2.11672e-05
1.13511e-05
-2.58095e-05
1.28175e-05
-3.09306e-05
1.43714e-05
-3.65358e-05
1.5997e-05
-4.26211e-05
1.76746e-05
-4.91724e-05
1.93805e-05
-5.6164e-05
2.10874e-05
-6.35588e-05
2.27646e-05
-7.13081e-05
2.43791e-05
-7.93529e-05
2.58968e-05
-8.76251e-05
2.72834e-05
-9.60495e-05
2.8506e-05
-0.000104546
2.95346e-05
-0.000113033
3.03427e-05
-0.000121429
3.09087e-05
-0.000129656
3.12162e-05
-0.000137639
3.12543e-05
-0.000145312
3.10176e-05
-0.000152616
3.05055e-05
-0.000159498
2.97217e-05
-0.000165916
2.8674e-05
-0.000171833
2.73727e-05
-0.000177219
2.58305e-05
-0.000182053
2.40616e-05
-0.000186316
2.20812e-05
-0.000189994
1.99046e-05
-0.000193077
1.75479e-05
-0.000195558
1.50266e-05
-0.00019743
1.23563e-05
-0.000198689
9.55256e-06
-0.000199331
6.6309e-06
-0.000199352
3.60699e-06
-0.000198751
4.96982e-07
-0.000197524
-2.68224e-06
-0.000195671
-5.91275e-06
-0.00019319
-9.17525e-06
-0.000190081
-1.24487e-05
-0.000186346
-1.57101e-05
-0.000181989
-1.89343e-05
-0.000177016
-2.20934e-05
-0.000171437
-2.51575e-05
-0.000165266
-2.8094e-05
-0.000158521
-3.0868e-05
-0.000151228
-3.3443e-05
-0.000143415
-3.57813e-05
-0.000135121
-3.78448e-05
-0.000126392
-3.9596e-05
-0.000117279
-4.09992e-05
-0.000107844
-4.20222e-05
-9.81549e-05
-4.26373e-05
-8.82863e-05
-4.2823e-05
-7.83195e-05
-4.25656e-05
-6.83399e-05
-4.18597e-05
-5.8436e-05
-4.07102e-05
-4.86972e-05
-3.91316e-05
-3.92122e-05
-3.71489e-05
-3.00662e-05
-3.4797e-05
-2.134e-05
-3.21194e-05
-1.31074e-05
-2.91676e-05
-5.43435e-06
-2.59987e-05
1.62248e-06
-2.26741e-05
8.01629e-06
-1.92574e-05
1.37108e-05
-1.58128e-05
1.86804e-05
-1.24028e-05
2.29106e-05
-9.08705e-06
2.63981e-05
-5.92092e-06
2.91506e-05
-2.95388e-06
3.11872e-05
-2.28501e-07
3.25381e-05
2.2206e-06
3.32437e-05
4.36769e-06
3.33545e-05
6.19651e-06
3.29292e-05
7.70063e-06
3.20333e-05
8.8834e-06
3.07366e-05
9.75729e-06
2.91111e-05
1.0343e-05
2.72283e-05
1.06681e-05
2.51566e-05
1.0765e-05
2.29595e-05
1.06691e-05
2.06942e-05
1.04171e-05
1.84093e-05
1.00445e-05
1.61466e-05
9.58386e-06
1.39389e-05
9.06242e-06
1.18137e-05
8.50126e-06
9.79096e-06
7.9114e-06
7.89081e-06
7.29571e-06
6.12695e-06
6.64323e-06
4.52265e-06
5.93704e-06
3.09401e-06
5.14582e-06
1.88106e-06
4.24478e-06
9.11477e-07
3.19961e-06
2.63788e-07
2.01326e-06
6.86803e-07
2.02103e-07
-8.21031e-07
6.86911e-07
-2.17695e-06
1.37996e-06
-3.22212e-06
2.18811e-06
-3.957e-06
3.05406e-06
-4.38561e-06
3.91147e-06
-4.53328e-06
4.71578e-06
-4.43035e-06
5.42234e-06
-4.1181e-06
6.00138e-06
-3.63843e-06
6.42667e-06
-3.03495e-06
6.68196e-06
-2.34707e-06
6.75443e-06
-1.60965e-06
6.63678e-06
-8.50045e-07
6.32303e-06
-8.78562e-08
5.8086e-06
6.66083e-07
5.08741e-06
1.40931e-06
4.15137e-06
2.14732e-06
2.98858e-06
2.8924e-06
1.58292e-06
3.66214e-06
-8.65067e-08
4.4776e-06
-2.04512e-06
5.36132e-06
-4.32238e-06
6.33526e-06
-6.95071e-06
7.41903e-06
-9.96427e-06
8.62841e-06
-1.33974e-05
9.97436e-06
-1.72829e-05
1.14625e-05
-2.16506e-05
1.30927e-05
-2.65253e-05
1.48596e-05
-3.19251e-05
1.67519e-05
-3.78596e-05
1.87533e-05
-4.43285e-05
2.08417e-05
-5.13196e-05
2.29898e-05
-5.8808e-05
2.5165e-05
-6.67556e-05
2.73304e-05
-7.5111e-05
2.94454e-05
-8.38106e-05
3.14671e-05
-9.27801e-05
3.33519e-05
-0.000101937
3.50576e-05
-0.000111195
3.65447e-05
-0.000120463
3.77785e-05
-0.000129654
3.87301e-05
-0.000138684
3.93774e-05
-0.000147475
3.97054e-05
-0.000155959
3.9706e-05
-0.000164077
3.93778e-05
-0.000171778
3.87247e-05
-0.000179023
3.77558e-05
-0.000185778
3.64835e-05
-0.000192021
3.4923e-05
-0.000197733
3.3091e-05
-0.000202902
3.10053e-05
-0.000207519
2.86842e-05
-0.000211578
2.61453e-05
-0.000215074
2.34062e-05
-0.000218006
2.04838e-05
-0.000220369
1.73941e-05
-0.000222162
1.41528e-05
-0.000223382
1.07749e-05
-0.000224024
7.27559e-06
-0.000224086
3.66979e-06
-0.000223561
-2.69349e-08
-0.000222446
-3.79825e-06
-0.000220733
-7.62658e-06
-0.000218418
-1.14927e-05
-0.000215494
-1.53754e-05
-0.000211957
-1.92508e-05
-0.000207804
-2.30927e-05
-0.000203031
-2.68713e-05
-0.000197641
-3.0554e-05
-0.000191638
-3.41047e-05
-0.000185029
-3.74844e-05
-0.000177829
-4.06513e-05
-0.000170058
-4.35613e-05
-0.000161743
-4.6169e-05
-0.00015292
-4.8429e-05
-0.000143632
-5.02969e-05
-0.000133933
-5.17312e-05
-0.000123885
-5.26949e-05
-0.00011356
-5.31577e-05
-0.000103037
-5.30973e-05
-9.24041e-05
-5.25017e-05
-8.17524e-05
-5.13703e-05
-7.11773e-05
-4.97144e-05
-6.07749e-05
-4.75584e-05
-5.06396e-05
-4.49386e-05
-4.08615e-05
-4.1903e-05
-3.15244e-05
-3.85093e-05
-2.27038e-05
-3.4823e-05
-1.44656e-05
-3.09152e-05
-6.865e-06
-2.686e-05
5.35704e-08
-2.27325e-05
6.25669e-06
-1.86063e-05
1.17216e-05
-1.45517e-05
1.64361e-05
-1.06345e-05
2.0398e-05
-6.91424e-06
2.3615e-05
-3.44364e-06
2.61052e-05
-2.67203e-07
2.7896e-05
2.57945e-06
2.90249e-05
5.07039e-06
2.95385e-05
7.18999e-06
2.94916e-05
8.93324e-06
2.89461e-05
1.03057e-05
2.7969e-05
1.13231e-05
2.66301e-05
1.20098e-05
2.49997e-05
1.2398e-05
2.31462e-05
1.2525e-05
2.11342e-05
1.24316e-05
1.90219e-05
1.21588e-05
1.68616e-05
1.17463e-05
1.46971e-05
1.12285e-05
1.25671e-05
1.06334e-05
1.05012e-05
9.97822e-06
8.52922e-06
9.26984e-06
6.6724e-06
8.50008e-06
4.96178e-06
7.6503e-06
3.41943e-06
6.68667e-06
2.09435e-06
5.57388e-06
1.02218e-06
4.26744e-06
2.97995e-07
2.74415e-06
9.81758e-07
2.10545e-07
-1.02889e-06
7.11396e-07
-2.68204e-06
1.41896e-06
-3.92579e-06
2.23099e-06
-4.77111e-06
3.08387e-06
-5.2363e-06
3.90627e-06
-5.35644e-06
4.65103e-06
-5.17376e-06
5.2718e-06
-4.73898e-06
5.73823e-06
-4.10397e-06
6.02361e-06
-3.3202e-06
6.11128e-06
-2.43414e-06
5.98739e-06
-1.48558e-06
5.643e-06
-5.05274e-07
5.06944e-06
4.85856e-07
4.25843e-06
1.47731e-06
3.19913e-06
2.46869e-06
1.87768e-06
3.46887e-06
2.75582e-07
4.4945e-06
-1.63034e-06
5.56805e-06
-3.86823e-06
6.71543e-06
-6.47042e-06
7.9634e-06
-9.47241e-06
9.3371e-06
-1.29113e-05
1.08577e-05
-1.6824e-05
1.25409e-05
-2.12452e-05
1.43952e-05
-2.62052e-05
1.6422e-05
-3.17279e-05
1.86149e-05
-3.78286e-05
2.09596e-05
-4.45119e-05
2.34345e-05
-5.177e-05
2.60105e-05
-5.95813e-05
2.86519e-05
-6.79091e-05
3.13163e-05
-7.67019e-05
3.39564e-05
-8.5894e-05
3.65208e-05
-9.54072e-05
3.89567e-05
-0.000105154
4.12113e-05
-0.000115039
4.32351e-05
-0.000124967
4.49832e-05
-0.000134843
4.64177e-05
-0.000144577
4.75091e-05
-0.000154087
4.82363e-05
-0.0001633
4.85872e-05
-0.000172156
4.85577e-05
-0.000180605
4.81513e-05
-0.000188609
4.73771e-05
-0.000196137
4.62489e-05
-0.000203169
4.47841e-05
-0.000209692
4.30018e-05
-0.000215696
4.09225e-05
-0.000221176
3.8567e-05
-0.00022613
3.59556e-05
-0.000230558
3.3108e-05
-0.000234459
3.00429e-05
-0.000237834
2.67778e-05
-0.000240682
2.33294e-05
-0.000243004
1.9713e-05
-0.000244797
1.59434e-05
-0.000246058
1.20346e-05
-0.000246784
8.00054e-06
-0.00024697
3.85503e-06
-0.00024661
-3.87579e-07
-0.000245695
-4.71208e-06
-0.000244219
-9.10193e-06
-0.000242171
-1.35388e-05
-0.000239542
-1.8002e-05
-0.000236322
-2.24682e-05
-0.0002325
-2.69108e-05
-0.000228067
-3.12995e-05
-0.000223016
-3.56002e-05
-0.000217341
-3.97747e-05
-0.000211039
-4.37806e-05
-0.000204113
-4.75719e-05
-0.000196568
-5.10989e-05
-0.000188421
-5.43094e-05
-0.000179694
-5.71498e-05
-0.000170417
-5.95664e-05
-0.000160634
-6.15073e-05
-0.000150397
-6.29246e-05
-0.000139772
-6.37764e-05
-0.000128833
-6.40295e-05
-0.000117666
-6.36616e-05
-0.000106368
-6.26632e-05
-9.50372e-05
-6.10392e-05
-8.37805e-05
-5.881e-05
-7.27035e-05
-5.60112e-05
-6.19095e-05
-5.26931e-05
-5.14965e-05
-4.8919e-05
-4.15538e-05
-4.4763e-05
-3.21603e-05
-4.03066e-05
-2.33828e-05
-3.56361e-05
-1.52751e-05
-3.08393e-05
-7.87868e-06
-2.60024e-05
-1.22262e-06
-2.12079e-05
4.67505e-06
-1.65327e-05
9.80658e-06
-1.20467e-05
1.41736e-05
-7.81197e-06
1.77866e-05
-3.88177e-06
2.06647e-05
-3.00353e-07
2.28353e-05
2.89786e-06
2.43345e-05
5.68876e-06
2.52066e-05
8.05906e-06
2.55037e-05
1.00066e-05
2.52846e-05
1.15402e-05
2.46132e-05
1.26792e-05
2.35571e-05
1.34523e-05
2.21846e-05
1.38957e-05
2.05633e-05
1.40513e-05
1.87569e-05
1.39635e-05
1.68256e-05
1.36764e-05
1.48217e-05
1.32308e-05
1.27938e-05
1.26605e-05
1.07811e-05
1.19892e-05
8.823e-06
1.12278e-05
6.94926e-06
1.03717e-05
5.19944e-06
9.40115e-06
3.60289e-06
8.28011e-06
2.21747e-06
6.96238e-06
1.08679e-06
5.39253e-06
3.17951e-07
3.51937e-06
1.29584e-06
2.14695e-07
-1.2413e-06
7.19795e-07
-3.19197e-06
1.42316e-06
-4.6258e-06
2.21471e-06
-5.56546e-06
3.02513e-06
-6.04525e-06
3.77896e-06
-6.11186e-06
4.42684e-06
-5.8211e-06
4.92126e-06
-5.23437e-06
5.23163e-06
-4.41424e-06
5.33107e-06
-3.42025e-06
5.20259e-06
-2.30572e-06
4.83131e-06
-1.11468e-06
4.20632e-06
1.19619e-07
3.31584e-06
1.3761e-06
2.14729e-06
2.64579e-06
6.84319e-07
3.93155e-06
-1.09343e-06
5.24659e-06
-3.21162e-06
6.61265e-06
-5.70082e-06
8.05728e-06
-8.59624e-06
9.61089e-06
-1.19363e-05
1.13035e-05
-1.57608e-05
1.31618e-05
-2.01092e-05
1.52062e-05
-2.50173e-05
1.74492e-05
-3.05157e-05
1.98939e-05
-3.66265e-05
2.25332e-05
-4.33613e-05
2.53501e-05
-5.07187e-05
2.83175e-05
-5.86828e-05
3.13991e-05
-6.72213e-05
3.45498e-05
-7.62855e-05
3.77169e-05
-8.58103e-05
4.08421e-05
-9.57162e-05
4.38633e-05
-0.000105912
4.67175e-05
-0.000116297
4.93437e-05
-0.00012677
5.16856e-05
-0.000137228
5.36943e-05
-0.000147573
5.53303e-05
-0.000157717
5.65642e-05
-0.000167584
5.73776e-05
-0.000177107
5.77619e-05
-0.000186235
5.77179e-05
-0.000194928
5.72537e-05
-0.000203158
5.63835e-05
-0.000210904
5.51257e-05
-0.000218154
5.35018e-05
-0.000224901
5.15346e-05
-0.000231144
4.92476e-05
-0.000236883
4.66639e-05
-0.000242119
4.38062e-05
-0.000246856
4.06956e-05
-0.000251098
3.73521e-05
-0.000254847
3.37944e-05
-0.000258106
3.00395e-05
-0.000260878
2.61031e-05
-0.000263164
2.2e-05
-0.000264962
1.77436e-05
-0.000266274
1.33469e-05
-0.000267095
8.82234e-06
-0.000267422
4.18229e-06
-0.000267249
-5.60497e-07
-0.00026657
-5.39252e-06
-0.000265374
-1.0299e-05
-0.000263651
-1.52633e-05
-0.000261389
-2.02665e-05
-0.000258573
-2.52867e-05
-0.000255188
-3.02985e-05
-0.000251218
-3.52725e-05
-0.000246647
-4.01748e-05
-0.000241459
-4.49666e-05
-0.00023564
-4.96041e-05
-0.000229178
-5.40382e-05
-0.000222066
-5.82153e-05
-0.000214303
-6.20774e-05
-0.000205895
-6.55633e-05
-0.000196856
-6.86101e-05
-0.000187214
-7.11551e-05
-0.000177006
-7.31377e-05
-0.000166284
-7.45026e-05
-0.000155116
-7.52024e-05
-0.000143582
-7.52007e-05
-0.000131774
-7.44748e-05
-0.000119799
-7.30184e-05
-0.000107769
-7.0843e-05
-9.58045e-05
-6.79794e-05
-8.40238e-05
-6.44765e-05
-7.2544e-05
-6.04011e-05
-6.14745e-05
-5.58344e-05
-5.09137e-05
-5.08689e-05
-4.09461e-05
-4.56047e-05
-3.16411e-05
-4.01449e-05
-2.3052e-05
-3.45918e-05
-1.52167e-05
-2.90431e-05
-8.15895e-06
-2.359e-05
-1.89037e-06
-1.83147e-05
3.58808e-06
-1.32895e-05
8.28438e-06
-8.57698e-06
1.22142e-05
-4.22899e-06
1.54006e-05
-2.87155e-07
1.78733e-05
3.21744e-06
1.96693e-05
6.2645e-06
2.08325e-05
8.84485e-06
2.14136e-05
1.09605e-05
2.14693e-05
1.26248e-05
2.10617e-05
1.38613e-05
2.02555e-05
1.47031e-05
1.91177e-05
1.51904e-05
1.77139e-05
1.53683e-05
1.61081e-05
1.52834e-05
1.4359e-05
1.49805e-05
1.25227e-05
1.44981e-05
1.06468e-05
1.38652e-05
8.77952e-06
1.30967e-05
6.95923e-06
1.21914e-05
5.23416e-06
1.11285e-05
3.64167e-06
9.87047e-06
2.2477e-06
8.36036e-06
1.10319e-06
6.53201e-06
3.22507e-07
4.30714e-06
1.61487e-06
2.15734e-07
-1.45443e-06
7.1435e-07
-3.69502e-06
1.39544e-06
-5.30311e-06
2.14225e-06
-6.31458e-06
2.88055e-06
-6.78157e-06
3.53185e-06
-6.76417e-06
4.04525e-06
-6.33339e-06
4.37283e-06
-5.56231e-06
4.48404e-06
-4.5248e-06
4.35215e-06
-3.28844e-06
3.95977e-06
-1.91293e-06
3.29078e-06
-4.45669e-07
2.33188e-06
1.07876e-06
1.06762e-06
2.6404e-06
-5.19606e-07
4.23315e-06
-2.45231e-06
5.86428e-06
-4.75784e-06
7.55217e-06
-7.46918e-06
9.32399e-06
-1.0624e-05
1.12121e-05
-1.42634e-05
1.32502e-05
-1.84299e-05
1.547e-05
-2.3165e-05
1.78968e-05
-2.85059e-05
2.0547e-05
-3.44829e-05
2.3426e-05
-4.11161e-05
2.65269e-05
-4.8413e-05
2.98299e-05
-5.63659e-05
3.33026e-05
-6.49499e-05
3.69012e-05
-7.41222e-05
4.0571e-05
-8.38218e-05
4.42489e-05
-9.39707e-05
4.78652e-05
-0.000104477
5.13472e-05
-0.000115236
5.46223e-05
-0.000126141
5.76213e-05
-0.000137081
6.02826e-05
-0.00014795
6.2554e-05
-0.000158653
6.43953e-05
-0.000169102
6.57786e-05
-0.000179228
6.66883e-05
-0.000188972
6.71199e-05
-0.00019829
6.70786e-05
-0.000207151
6.65774e-05
-0.000215534
6.56348e-05
-0.000223426
6.42735e-05
-0.000230821
6.25184e-05
-0.000237717
6.03957e-05
-0.000244116
5.79315e-05
-0.000250022
5.51517e-05
-0.000255441
5.20808e-05
-0.000260378
4.87421e-05
-0.000264842
4.51573e-05
-0.000268838
4.13466e-05
-0.000272374
3.73282e-05
-0.000275454
3.31189e-05
-0.000278087
2.87339e-05
-0.000280275
2.41869e-05
-0.000282022
1.94904e-05
-0.000283332
1.46559e-05
-0.000284204
9.69439e-06
-0.000284638
4.61632e-06
-0.000284631
-5.67641e-07
-0.000284176
-5.84633e-06
-0.000283267
-1.12075e-05
-0.000281891
-1.66373e-05
-0.000280037
-2.21195e-05
-0.000277687
-2.76351e-05
-0.000274821
-3.31615e-05
-0.00027142
-3.86717e-05
-0.000267458
-4.41339e-05
-0.000262911
-4.95108e-05
-0.000257753
-5.47591e-05
-0.000251958
-5.98293e-05
-0.000245504
-6.46656e-05
-0.000238372
-6.92063e-05
-0.000230547
-7.33845e-05
-0.000222024
-7.71291e-05
-0.000212809
-8.03669e-05
-0.000202918
-8.30245e-05
-0.000192385
-8.50318e-05
-0.00018126
-8.63245e-05
-0.000169609
-8.68484e-05
-0.000157518
-8.65628e-05
-0.000145089
-8.54443e-05
-0.00013244
-8.34895e-05
-0.0001197
-8.07173e-05
-0.000107005
-7.71698e-05
-9.44925e-05
-7.29115e-05
-8.22979e-05
-6.80275e-05
-7.05461e-05
-6.26197e-05
-5.93481e-05
-5.6802e-05
-4.87976e-05
-5.0695e-05
-3.89685e-05
-4.44207e-05
-2.99146e-05
-3.80971e-05
-2.16708e-05
-3.18342e-05
-1.42547e-05
-2.57312e-05
-7.67004e-06
-1.98748e-05
-1.90915e-06
-1.43386e-05
3.04443e-06
-9.18341e-06
7.21409e-06
-4.45773e-06