/*--------------------------------*- C++ -*----------------------------------*\
| =========                 |                                                 |
| \\      /  F ield         | OpenFOAM: The Open Source CFD Toolbox           |
|  \\    /   O peration     | Version:  2406                                  |
|   \\  /    A nd           | Website:  www.openfoam.com                      |
|    \\/     M anipulation  |                                                 |
\*---------------------------------------------------------------------------*/
FoamFile
{
    version     2.0;
    format      ascii;
    arch        "LSB;label=32;scalar=64";
    class       volVectorField;
    location    "29.55";
    object      U;
}
// * * * * * * * * * * * * * * * * * * * * * * * * * * * * * * * * * * * * * //

dimensions      [0 1 -1 0 0 0 0];

internalField   nonuniform List<vector> 
3600
(
(2.10873e-05 -2.8249e-05 0)
(0.000502532 -0.00022197 0)
(0.00135847 -0.000309663 0)
(0.00227336 -0.000316648 0)
(0.00314704 -0.000266763 0)
(0.00381063 -0.000200134 0)
(0.00430017 -0.000135462 0)
(0.00457398 -8.50684e-05 0)
(0.00471014 -5.17911e-05 0)
(0.00470366 -3.18173e-05 0)
(0.0046036 -1.92617e-05 0)
(0.00438389 -4.63402e-06 0)
(0.00403749 1.92029e-05 0)
(0.00350272 5.98443e-05 0)
(0.00272803 0.000120733 0)
(0.00163299 0.000205086 0)
(0.00014972 0.000313316 0)
(-0.00179768 0.000445818 0)
(-0.00426782 0.000598488 0)
(-0.00731055 0.000764285 0)
(-0.0109487 0.000934689 0)
(-0.0151744 0.00110624 0)
(-0.019931 0.00127825 0)
(-0.0251056 0.00144698 0)
(-0.0305227 0.00159615 0)
(-0.035947 0.00169671 0)
(-0.0410951 0.00171205 0)
(-0.045653 0.00160943 0)
(-0.049302 0.00136744 0)
(-0.0517416 0.000981523 0)
(-0.0527172 0.000463484 0)
(-0.0520364 -0.00015904 0)
(-0.0495923 -0.000846068 0)
(-0.0453722 -0.00154702 0)
(-0.0394756 -0.00220493 0)
(-0.0321128 -0.00275953 0)
(-0.0236148 -0.00315353 0)
(-0.0144111 -0.00333854 0)
(-0.00502102 -0.00328369 0)
(0.00400108 -0.00298278 0)
(0.0120967 -0.00246046 0)
(0.0187887 -0.00177334 0)
(0.023714 -0.00100436 0)
(0.0267066 -0.000250382 0)
(0.0277827 0.000398226 0)
(0.0271752 0.000875839 0)
(0.0252362 0.00115788 0)
(0.0224229 0.00125874 0)
(0.0191525 0.00122291 0)
(0.0158147 0.0011017 0)
(0.012648 0.000942388 0)
(0.00983816 0.000775256 0)
(0.00741689 0.000622072 0)
(0.00542352 0.00048941 0)
(0.00377683 0.000385711 0)
(0.00246872 0.000301162 0)
(0.00140382 0.000234747 0)
(0.000613666 0.000149059 0)
(0.000100236 4.87692e-05 0)
(-7.00126e-05 -7.58375e-05 0)
(0.000202801 -0.000492127 0)
(0.00131797 -0.00133444 0)
(0.00302579 -0.00169046 0)
(0.00477262 -0.00168032 0)
(0.00639507 -0.00141715 0)
(0.00759827 -0.00104134 0)
(0.0083967 -0.000645732 0)
(0.00869726 -0.000278921 0)
(0.00857778 3.73119e-05 0)
(0.00800123 0.000323313 0)
(0.00699437 0.000605035 0)
(0.00547213 0.000931208 0)
(0.00335946 0.0013377 0)
(0.000499746 0.00186295 0)
(-0.00325524 0.00252252 0)
(-0.00808286 0.00332522 0)
(-0.0141237 0.00425761 0)
(-0.0214906 0.00529815 0)
(-0.0302177 0.00640745 0)
(-0.0402459 0.00753764 0)
(-0.0513826 0.00861837 0)
(-0.0633015 0.00955868 0)
(-0.0755576 0.0102458 0)
(-0.0876304 0.0105686 0)
(-0.0989761 0.010433 0)
(-0.109075 0.00978046 0)
(-0.117472 0.00858977 0)
(-0.123791 0.00687953 0)
(-0.127748 0.00469993 0)
(-0.129141 0.00213079 0)
(-0.127857 -0.000727092 0)
(-0.123856 -0.00375195 0)
(-0.117181 -0.00680708 0)
(-0.107953 -0.00973936 0)
(-0.0963859 -0.0123863 0)
(-0.082782 -0.0145783 0)
(-0.0675528 -0.0161528 0)
(-0.0512007 -0.0169657 0)
(-0.0343312 -0.0169146 0)
(-0.017607 -0.0159563 0)
(-0.00174075 -0.0141303 0)
(0.0125891 -0.0115659 0)
(0.0247562 -0.0084819 0)
(0.0342968 -0.00516433 0)
(0.0409051 -0.00192758 0)
(0.0445362 0.000933496 0)
(0.0453409 0.00319664 0)
(0.0437322 0.00474323 0)
(0.0402328 0.00557531 0)
(0.0355079 0.00579001 0)
(0.0301412 0.00554879 0)
(0.0247033 0.00502014 0)
(0.0195287 0.00436046 0)
(0.0149051 0.00367436 0)
(0.010867 0.00304369 0)
(0.00749752 0.00247524 0)
(0.00468808 0.00197554 0)
(0.002513 0.00143165 0)
(0.000924004 0.000841428 0)
(8.95201e-05 0.000122676 0)
(0.000301248 -0.00133938 0)
(0.00173268 -0.0030621 0)
(0.00382743 -0.00374549 0)
(0.00585243 -0.00363151 0)
(0.00762026 -0.00299782 0)
(0.00877215 -0.00208978 0)
(0.00930121 -0.00110648 0)
(0.00907004 -0.000131007 0)
(0.00811343 0.000791439 0)
(0.00633411 0.00171345 0)
(0.0036837 0.00269525 0)
(-1.03833e-05 0.00384602 0)
(-0.0049197 0.00524341 0)
(-0.0112874 0.00696227 0)
(-0.0193259 0.00901825 0)
(-0.0292258 0.011396 0)
(-0.0410677 0.0140168 0)
(-0.0547914 0.0167626 0)
(-0.070133 0.0194491 0)
(-0.0866317 0.0218495 0)
(-0.103671 0.0237084 0)
(-0.120566 0.0248043 0)
(-0.136653 0.0249767 0)
(-0.151352 0.0241519 0)
(-0.164206 0.0223262 0)
(-0.174871 0.0195567 0)
(-0.183114 0.0159346 0)
(-0.188778 0.0115787 0)
(-0.191772 0.00661985 0)
(-0.19204 0.00120434 0)
(-0.189563 -0.00451199 0)
(-0.184346 -0.0103545 0)
(-0.176429 -0.0161324 0)
(-0.165885 -0.0216287 0)
(-0.15285 -0.0266071 0)
(-0.137522 -0.0308101 0)
(-0.120197 -0.0339783 0)
(-0.101265 -0.0358648 0)
(-0.0812378 -0.0362731 0)
(-0.0607179 -0.0350841 0)
(-0.0404071 -0.0323004 0)
(-0.0210303 -0.0280624 0)
(-0.00332154 -0.0226623 0)
(0.0120878 -0.016517 0)
(0.0246698 -0.0101258 0)
(0.0341156 -0.00400336 0)
(0.0402804 0.00139063 0)
(0.0432897 0.00570942 0)
(0.0434219 0.0087647 0)
(0.0412073 0.0105371 0)
(0.0372238 0.0111671 0)
(0.0321831 0.0109013 0)
(0.0266407 0.0100412 0)
(0.0211547 0.00886069 0)
(0.0159824 0.00759137 0)
(0.0114084 0.0063389 0)
(0.0074167 0.00515066 0)
(0.00419674 0.00388291 0)
(0.00168874 0.00247719 0)
(0.000250207 0.000756829 0)
(0.000350984 -0.00230461 0)
(0.00189122 -0.00491781 0)
(0.00401756 -0.00582426 0)
(0.00588632 -0.00543807 0)
(0.00730293 -0.00425664 0)
(0.00788327 -0.0026165 0)
(0.00759865 -0.000818236 0)
(0.00626581 0.00104566 0)
(0.00384734 0.00292231 0)
(0.000157895 0.00491637 0)
(-0.00496197 0.00713227 0)
(-0.011788 0.00974013 0)
(-0.02058 0.0128401 0)
(-0.0316064 0.0165011 0)
(-0.0450188 0.0206702 0)
(-0.0608097 0.0252109 0)
(-0.0787186 0.0298507 0)
(-0.0982309 0.034234 0)
(-0.118628 0.0379467 0)
(-0.139116 0.0406276 0)
(-0.158947 0.0420149 0)
(-0.177508 0.0419888 0)
(-0.19435 0.0405369 0)
(-0.209168 0.0377363 0)
(-0.221772 0.0337044 0)
(-0.232048 0.0285874 0)
(-0.239929 0.0225321 0)
(-0.245371 0.0156906 0)
(-0.248343 0.00820909 0)
(-0.248807 0.000241846 0)
(-0.246731 -0.00805129 0)
(-0.242071 -0.0164864 0)
(-0.234794 -0.0248553 0)
(-0.224876 -0.0329078 0)
(-0.212329 -0.0403568 0)
(-0.19721 -0.0468702 0)
(-0.179665 -0.0520937 0)
(-0.159933 -0.0556648 0)
(-0.138399 -0.0572633 0)
(-0.115575 -0.0566504 0)
(-0.0921332 -0.0537358 0)
(-0.0688383 -0.0486114 0)
(-0.0465291 -0.0415868 0)
(-0.0259927 -0.0331618 0)
(-0.0079341 -0.0239806 0)
(0.00715664 -0.0147374 0)
(0.0189573 -0.00609055 0)
(0.0274037 0.00141593 0)
(0.0325608 0.0074 0)
(0.0347354 0.0116679 0)
(0.0343089 0.0142231 0)
(0.0318861 0.0152486 0)
(0.0280228 0.0150647 0)
(0.0234 0.0140476 0)
(0.0184477 0.0125651 0)
(0.0136685 0.0108666 0)
(0.00919953 0.00908219 0)
(0.00540277 0.00710388 0)
(0.00227276 0.00477952 0)
(0.000377418 0.00178646 0)
(0.000367795 -0.00336966 0)
(0.00185452 -0.00681594 0)
(0.0037374 -0.00777945 0)
(0.00511603 -0.00689834 0)
(0.00578345 -0.00493201 0)
(0.00534998 -0.00229503 0)
(0.00375088 0.000619473 0)
(0.00075469 0.00374018 0)
(-0.00377136 0.00702758 0)
(-0.0101097 0.0106592 0)
(-0.0185339 0.0147837 0)
(-0.0293823 0.0196066 0)
(-0.0429102 0.0251856 0)
(-0.059238 0.0314765 0)
(-0.0782166 0.0382078 0)
(-0.0993867 0.0449591 0)
(-0.122007 0.0511652 0)
(-0.145192 0.0562864 0)
(-0.168085 0.0598852 0)
(-0.189975 0.0617195 0)
(-0.210356 0.0617039 0)
(-0.228888 0.0598935 0)
(-0.245379 0.0564116 0)
(-0.259716 0.0514315 0)
(-0.271855 0.0451307 0)
(-0.281777 0.0376916 0)
(-0.289487 0.0292779 0)
(-0.294985 0.0200486 0)
(-0.298277 0.0101465 0)
(-0.299342 -0.000280299 0)
(-0.298153 -0.0110821 0)
(-0.294647 -0.0220821 0)
(-0.288749 -0.0330753 0)
(-0.280352 -0.0438021 0)
(-0.269356 -0.0539498 0)
(-0.255657 -0.0631347 0)
(-0.239211 -0.0709207 0)
(-0.220041 -0.0768271 0)
(-0.198315 -0.0803837 0)
(-0.174363 -0.0811792 0)
(-0.148744 -0.0789539 0)
(-0.122213 -0.0736648 0)
(-0.0957262 -0.0655617 0)
(-0.0703013 -0.0551846 0)
(-0.0469387 -0.0433267 0)
(-0.0264196 -0.0309032 0)
(-0.00928075 -0.0188195 0)
(0.00428804 -0.00783726 0)
(0.0142833 0.00148086 0)
(0.0209361 0.0087951 0)
(0.0245144 0.0139717 0)
(0.0254908 0.0170867 0)
(0.0243129 0.0183908 0)
(0.0216322 0.0182736 0)
(0.0179232 0.017165 0)
(0.0138173 0.0154398 0)
(0.00958754 0.01331 0)
(0.00576844 0.010743 0)
(0.00246407 0.00748068 0)
(0.000415828 0.0030477 0)
(0.000365047 -0.00435928 0)
(0.00164438 -0.00839983 0)
(0.00299871 -0.00913906 0)
(0.00354273 -0.00747276 0)
(0.00305637 -0.00443967 0)
(0.00116599 -0.000507124 0)
(-0.00225307 0.00386672 0)
(-0.00748543 0.00866772 0)
(-0.0147786 0.0138909 0)
(-0.0244961 0.0197867 0)
(-0.0369763 0.0265054 0)
(-0.0524926 0.0341944 0)
(-0.0710961 0.0427208 0)
(-0.0925094 0.0517502 0)
(-0.116095 0.060658 0)
(-0.14094 0.0687447 0)
(-0.166063 0.0753346 0)
(-0.190586 0.0799729 0)
(-0.213847 0.082412 0)
(-0.235391 0.0826221 0)
(-0.254948 0.0806928 0)
(-0.272365 0.07681 0)
(-0.287591 0.0711836 0)
(-0.300625 0.0640458 0)
(-0.311524 0.0556083 0)
(-0.320357 0.0460742 0)
(-0.327219 0.0356127 0)
(-0.332191 0.0243789 0)
(-0.335355 0.0124988 0)
(-0.336752 9.58074e-05 0)
(-0.336398 -0.0127156 0)
(-0.334252 -0.0257979 0)
(-0.330227 -0.0389894 0)
(-0.324169 -0.0520684 0)
(-0.315877 -0.0647496 0)
(-0.305094 -0.0766514 0)
(-0.291556 -0.0873042 0)
(-0.275008 -0.0961417 0)
(-0.255293 -0.102547 0)
(-0.232401 -0.105898 0)
(-0.206584 -0.105675 0)
(-0.178394 -0.101558 0)
(-0.148745 -0.0935673 0)
(-0.118836 -0.0821256 0)
(-0.0900487 -0.0680825 0)
(-0.0636833 -0.0525885 0)
(-0.0407739 -0.0369059 0)
(-0.0218534 -0.022154 0)
(-0.00704505 -0.00916698 0)
(0.00390818 0.00156136 0)
(0.0113355 0.00980037 0)
(0.0157143 0.015554 0)
(0.0174444 0.0189905 0)
(0.0171154 0.0204579 0)
(0.0151763 0.0203712 0)
(0.0122933 0.019169 0)
(0.00882756 0.0171066 0)
(0.00543444 0.0142226 0)
(0.00234431 0.0101587 0)
(0.000392529 0.00431189 0)
(0.000334658 -0.00527023 0)
(0.00123244 -0.00956604 0)
(0.00176977 -0.00973037 0)
(0.00115295 -0.00694513 0)
(-0.000859652 -0.00251726 0)
(-0.00461238 0.00307028 0)
(-0.0103183 0.00932712 0)
(-0.0183086 0.0163225 0)
(-0.0289356 0.0240849 0)
(-0.0425684 0.0328909 0)
(-0.0594782 0.0427834 0)
(-0.0796651 0.0536829 0)
(-0.102768 0.0650887 0)
(-0.128006 0.076286 0)
(-0.154361 0.086381 0)
(-0.180763 0.0946316 0)
(-0.206324 0.100503 0)
(-0.230365 0.103768 0)
(-0.252455 0.104396 0)
(-0.272317 0.10253 0)
(-0.289836 0.0983849 0)
(-0.304979 0.0922419 0)
(-0.317822 0.0843791 0)
(-0.328483 0.0750822 0)
(-0.33714 0.0645974 0)
(-0.343975 0.0531486 0)
(-0.349192 0.0409076 0)
(-0.352962 0.0280192 0)
(-0.355448 0.0145835 0)
(-0.356758 0.000687234 0)
(-0.356965 -0.0136047 0)
(-0.356069 -0.0282133 0)
(-0.354013 -0.0430461 0)
(-0.350644 -0.0579558 0)
(-0.345729 -0.0727327 0)
(-0.338925 -0.0870608 0)
(-0.32981 -0.100511 0)
(-0.317881 -0.112507 0)
(-0.302638 -0.122354 0)
(-0.283632 -0.12925 0)
(-0.260621 -0.13239 0)
(-0.233669 -0.131072 0)
(-0.203318 -0.124886 0)
(-0.17062 -0.11387 0)
(-0.137145 -0.0986597 0)
(-0.10474 -0.0804701 0)
(-0.0752346 -0.0609421 0)
(-0.0499705 -0.0417704 0)
(-0.029608 -0.0243529 0)
(-0.0140458 -0.00954222 0)
(-0.00281829 0.00228621 0)
(0.00474881 0.0111253 0)
(0.00919552 0.0171346 0)
(0.0111511 0.0206558 0)
(0.0110698 0.0220712 0)
(0.0096144 0.0218371 0)
(0.00719725 0.020209 0)
(0.00453099 0.0172678 0)
(0.00195574 0.0125763 0)
(0.000313265 0.00545002 0)
(0.000261102 -0.00590713 0)
(0.000559641 -0.00994402 0)
(-4.24818e-05 -0.00910424 0)
(-0.00215718 -0.00483116 0)
(-0.00606407 0.00134895 0)
(-0.0120645 0.00898426 0)
(-0.020482 0.0175838 0)
(-0.0316629 0.0272995 0)
(-0.046008 0.0381449 0)
(-0.0637504 0.0503044 0)
(-0.0849115 0.0635409 0)
(-0.109035 0.0773816 0)
(-0.1353 0.0909061 0)
(-0.162562 0.103145 0)
(-0.189711 0.113185 0)
(-0.215765 0.120459 0)
(-0.240037 0.124672 0)
(-0.262029 0.125828 0)
(-0.281479 0.124073 0)
(-0.298255 0.119705 0)
(-0.312398 0.113058 0)
(-0.324031 0.104515 0)
(-0.333392 0.0944286 0)
(-0.34074 0.0831356 0)
(-0.346381 0.0709039 0)
(-0.350593 0.0579596 0)
(-0.353654 0.0444563 0)
(-0.355789 0.0305099 0)
(-0.357204 0.01618 0)
(-0.358043 0.00150696 0)
(-0.358421 -0.0135009 0)
(-0.358381 -0.0288297 0)
(-0.357924 -0.0444665 0)
(-0.356952 -0.0603572 0)
(-0.355288 -0.0764023 0)
(-0.352616 -0.0924059 0)
(-0.348498 -0.108059 0)
(-0.342327 -0.122884 0)
(-0.33338 -0.136226 0)
(-0.320838 -0.147229 0)
(-0.303922 -0.154889 0)
(-0.282028 -0.158138 0)
(-0.254968 -0.156022 0)
(-0.223153 -0.147931 0)
(-0.187786 -0.133876 0)
(-0.150823 -0.114679 0)
(-0.114764 -0.0920219 0)
(-0.0820808 -0.068152 0)
(-0.0546325 -0.0453608 0)
(-0.0331382 -0.0253438 0)
(-0.0173274 -0.00896746 0)
(-0.00630027 0.00365664 0)
(0.000830956 0.0127508 0)
(0.00493506 0.0187505 0)
(0.00660787 0.0220654 0)
(0.00655588 0.0231723 0)
(0.00524912 0.0223108 0)
(0.00341621 0.0195742 0)
(0.00147993 0.0144809 0)
(0.000222697 0.00632312 0)
(0.000130286 -0.00619085 0)
(-0.000409097 -0.00935228 0)
(-0.00246197 -0.00705072 0)
(-0.00636845 -0.000919965 0)
(-0.0124736 0.00738272 0)
(-0.0210191 0.0174798 0)
(-0.0324417 0.0288917 0)
(-0.04703 0.0418027 0)
(-0.065125 0.0561019 0)
(-0.0866513 0.0717095 0)
(-0.111242 0.0879561 0)
(-0.137956 0.103936 0)
(-0.165664 0.118447 0)
(-0.193103 0.130501 0)
(-0.219273 0.139359 0)
(-0.243349 0.144709 0)
(-0.264833 0.146494 0)
(-0.28339 0.144928 0)
(-0.298953 0.140341 0)
(-0.311581 0.13319 0)
(-0.321528 0.123939 0)
(-0.329097 0.113062 0)
(-0.334682 0.100962 0)
(-0.338646 0.0879914 0)
(-0.341364 0.0744045 0)
(-0.343136 0.0603994 0)
(-0.344246 0.0460897 0)
(-0.344901 0.0315514 0)
(-0.345293 0.0168023 0)
(-0.34555 0.00184406 0)
(-0.345796 -0.013356 0)
(-0.346096 -0.0288284 0)
(-0.346506 -0.044617 0)
(-0.347009 -0.060742 0)
(-0.347542 -0.0772046 0)
(-0.347922 -0.09394 0)
(-0.347844 -0.110802 0)
(-0.346807 -0.127495 0)
(-0.344111 -0.143543 0)
(-0.338816 -0.158216 0)
(-0.329822 -0.170522 0)
(-0.315947 -0.179214 0)
(-0.296174 -0.182911 0)
(-0.269914 -0.180299 0)
(-0.237375 -0.17047 0)
(-0.199813 -0.153306 0)
(-0.159637 -0.12983 0)
(-0.120071 -0.102269 0)
(-0.0844555 -0.0737009 0)
(-0.0551933 -0.047141 0)
(-0.0331262 -0.0246738 0)
(-0.0175848 -0.00701405 0)
(-0.00730838 0.00600921 0)
(-0.000971982 0.0150286 0)
(0.00237697 0.0206168 0)
(0.00362436 0.0233537 0)
(0.00335924 0.0235052 0)
(0.00233117 0.021178 0)
(0.0010241 0.0158926 0)
(0.000140368 0.00696184 0)
(-7.59716e-05 -0.00587251 0)
(-0.00171327 -0.00740485 0)
(-0.00551273 -0.00316968 0)
(-0.0114614 0.00517517 0)
(-0.0200009 0.0159623 0)
(-0.0312836 0.0289094 0)
(-0.0458294 0.0435213 0)
(-0.0637591 0.0599063 0)
(-0.0852284 0.0776769 0)
(-0.109724 0.0963383 0)
(-0.136481 0.114752 0)
(-0.164195 0.131701 0)
(-0.191647 0.145923 0)
(-0.217624 0.156599 0)
(-0.241303 0.163244 0)
(-0.26203 0.165816 0)
(-0.279525 0.164505 0)
(-0.293677 0.15976 0)
(-0.304683 0.152114 0)
(-0.312835 0.142185 0)
(-0.318602 0.130536 0)
(-0.322424 0.117691 0)
(-0.324785 0.104045 0)
(-0.326065 0.0899177 0)
(-0.326626 0.0755081 0)
(-0.326712 0.0609558 0)
(-0.326548 0.046318 0)
(-0.326268 0.0316247 0)
(-0.326009 0.0168566 0)
(-0.325847 0.0019893 0)
(-0.325882 -0.0130313 0)
(-0.326173 -0.0282543 0)
(-0.326805 -0.0437483 0)
(-0.327822 -0.0595708 0)
(-0.329268 -0.0757847 0)
(-0.331113 -0.0924227 0)
(-0.333257 -0.109483 0)
(-0.335436 -0.12687 0)
(-0.337196 -0.144354 0)
(-0.337788 -0.16148 0)
(-0.336162 -0.177496 0)
(-0.330941 -0.191279 0)
(-0.32057 -0.201336 0)
(-0.303527 -0.205894 0)
(-0.278748 -0.203179 0)
(-0.246084 -0.191839 0)
(-0.206794 -0.17154 0)
(-0.163717 -0.143483 0)
(-0.120964 -0.110624 0)
(-0.0828409 -0.0770782 0)
(-0.0524078 -0.0468305 0)
(-0.0304119 -0.0222329 0)
(-0.0157425 -0.00379909 0)
(-0.00657086 0.00919939 0)
(-0.00135854 0.0176411 0)
(0.00116996 0.0223701 0)
(0.0018482 0.0237924 0)
(0.0015107 0.0220818 0)
(0.000708618 0.0168199 0)
(9.38217e-05 0.00737804 0)
(-0.000359663 -0.0048203 0)
(-0.0033221 -0.00392651 0)
(-0.00908654 0.00267324 0)
(-0.0172259 0.0135375 0)
(-0.0283059 0.0271233 0)
(-0.0423423 0.0432239 0)
(-0.0598801 0.061258 0)
(-0.0807507 0.0811098 0)
(-0.104831 0.101981 0)
(-0.131143 0.122901 0)
(-0.158629 0.142361 0)
(-0.185801 0.159028 0)
(-0.211517 0.17177 0)
(-0.234692 0.180029 0)
(-0.25473 0.183618 0)
(-0.2712 0.182792 0)
(-0.284124 0.178026 0)
(-0.293675 0.170018 0)
(-0.300335 0.159489 0)
(-0.304596 0.147165 0)
(-0.307065 0.133638 0)
(-0.308221 0.119402 0)
(-0.308535 0.104787 0)
(-0.308314 0.0900277 0)
(-0.307832 0.0752403 0)
(-0.307225 0.0604943 0)
(-0.306626 0.0457912 0)
(-0.306077 0.0311249 0)
(-0.305647 0.0164548 0)
(-0.305356 0.00174912 0)
(-0.305269 -0.0130454 0)
(-0.305422 -0.0279715 0)
(-0.305903 -0.0430916 0)
(-0.30678 -0.0584628 0)
(-0.308159 -0.0741623 0)
(-0.310112 -0.0902627 0)
(-0.312705 -0.106843 0)
(-0.315907 -0.123951 0)
(-0.319577 -0.141574 0)
(-0.323329 -0.159562 0)
(-0.32648 -0.177535 0)
(-0.327916 -0.194752 0)
(-0.326092 -0.210001 0)
(-0.319085 -0.221533 0)
(-0.304879 -0.227146 0)
(-0.281829 -0.224482 0)
(-0.249357 -0.211623 0)
(-0.208625 -0.187902 0)
(-0.162956 -0.154774 0)
(-0.117449 -0.116115 0)
(-0.0775503 -0.0774745 0)
(-0.0468451 -0.0438516 0)
(-0.0257896 -0.0178187 0)
(-0.012531 0.000760109 0)
(-0.00484202 0.0130396 0)
(-0.000827077 0.0203264 0)
(0.000776315 0.0233554 0)
(0.0010179 0.0224933 0)
(0.000560928 0.0174606 0)
(8.54119e-05 0.007706 0)
(-0.000723649 -0.0027898 0)
(-0.00520104 0.00137468 0)
(-0.0130692 0.0107181 0)
(-0.02345 0.0243478 0)
(-0.0370433 0.0409714 0)
(-0.0536645 0.0603889 0)
(-0.0738124 0.0818276 0)
(-0.0969364 0.104801 0)
(-0.122616 0.128036 0)
(-0.149473 0.150137 0)
(-0.176321 0.169402 0)
(-0.201638 0.18457 0)
(-0.224466 0.194765 0)
(-0.243905 0.199752 0)
(-0.259664 0.199692 0)
(-0.271608 0.195178 0)
(-0.280113 0.186987 0)
(-0.285623 0.176034 0)
(-0.288842 0.163151 0)
(-0.290355 0.149079 0)
(-0.290789 0.134354 0)
(-0.290552 0.119371 0)
(-0.290022 0.104346 0)
(-0.28937 0.089409 0)
(-0.288757 0.0745886 0)
(-0.288203 0.0598916 0)
(-0.287756 0.0452794 0)
(-0.287384 0.0307259 0)
(-0.287109 0.0161849 0)
(-0.286906 0.00163088 0)
(-0.286815 -0.0129762 0)
(-0.286852 -0.0276612 0)
(-0.287095 -0.0424671 0)
(-0.287609 -0.0574322 0)
(-0.288515 -0.0726198 0)
(-0.289923 -0.0881012 0)
(-0.291979 -0.103976 0)
(-0.294792 -0.120352 0)
(-0.298444 -0.137344 0)
(-0.302877 -0.155017 0)
(-0.307842 -0.173326 0)
(-0.312727 -0.191982 0)
(-0.316453 -0.210293 0)
(-0.317348 -0.226972 0)
(-0.313202 -0.240015 0)
(-0.301502 -0.246725 0)
(-0.280017 -0.244066 0)
(-0.247666 -0.229406 0)
(-0.205517 -0.201715 0)
(-0.157447 -0.16279 0)
(-0.109748 -0.117879 0)
(-0.0690575 -0.0742755 0)
(-0.0392677 -0.0381367 0)
(-0.0200227 -0.0116111 0)
(-0.00870876 0.00612952 0)
(-0.0026537 0.0169548 0)
(4.07561e-05 0.022153 0)
(0.000828034 0.0224853 0)
(0.000579457 0.0179183 0)
(0.000116353 0.0080121 0)
(-0.00114323 0.000308074 0)
(-0.00722592 0.00853153 0)
(-0.0172057 0.0208989 0)
(-0.0297392 0.0374387 0)
(-0.0456529 0.0572052 0)
(-0.0644954 0.0798989 0)
(-0.0866579 0.104451 0)
(-0.111168 0.129905 0)
(-0.137359 0.154538 0)
(-0.163571 0.176658 0)
(-0.188645 0.194559 0)
(-0.211135 0.207194 0)
(-0.230348 0.214032 0)
(-0.245643 0.215223 0)
(-0.257101 0.211325 0)
(-0.264918 0.20328 0)
(-0.269789 0.192116 0)
(-0.272339 0.178869 0)
(-0.273372 0.164374 0)
(-0.273434 0.149289 0)
(-0.273072 0.134018 0)
(-0.272546 0.118813 0)
(-0.272097 0.103764 0)
(-0.271756 0.0889013 0)
(-0.27158 0.0741854 0)
(-0.2715 0.0595838 0)
(-0.271508 0.0450404 0)
(-0.271528 0.0305283 0)
(-0.271556 0.0160109 0)
(-0.271547 0.00147878 0)
(-0.27153 -0.0130876 0)
(-0.271504 -0.0276907 0)
(-0.271536 -0.0423484 0)
(-0.271675 -0.0570741 0)
(-0.272035 -0.0719048 0)
(-0.27272 -0.086889 0)
(-0.273893 -0.10211 0)
(-0.275711 -0.117679 0)
(-0.278361 -0.133749 0)
(-0.281982 -0.150491 0)
(-0.28664 -0.168065 0)
(-0.29218 -0.186534 0)
(-0.298111 -0.205717 0)
(-0.303387 -0.224977 0)
(-0.306271 -0.242956 0)
(-0.304291 -0.257363 0)
(-0.29448 -0.264945 0)
(-0.274027 -0.261862 0)
(-0.241371 -0.244688 0)
(-0.197562 -0.212006 0)
(-0.147234 -0.166332 0)
(-0.0981112 -0.114782 0)
(-0.0580125 -0.0669828 0)
(-0.0305085 -0.0296395 0)
(-0.0139364 -0.00407825 0)
(-0.00489431 0.0118255 0)
(-0.000679346 0.0201001 0)
(0.000776031 0.0221537 0)
(0.000693292 0.0183491 0)
(0.000171193 0.00841068 0)
(-0.0015981 0.00460792 0)
(-0.00929396 0.0176316 0)
(-0.0212874 0.0332183 0)
(-0.0357738 0.0527227 0)
(-0.0536757 0.075606 0)
(-0.0742236 0.101342 0)
(-0.0976698 0.128484 0)
(-0.122642 0.155571 0)
(-0.148325 0.180532 0)
(-0.172911 0.201537 0)
(-0.195389 0.217052 0)
(-0.214476 0.226347 0)
(-0.229816 0.22932 0)
(-0.24108 0.226555 0)
(-0.248747 0.21902 0)
(-0.253288 0.207948 0)
(-0.25562 0.194514 0)
(-0.256412 0.17975 0)
(-0.256441 0.164388 0)
(-0.256116 0.148926 0)
(-0.25584 0.133599 0)
(-0.255705 0.118513 0)
(-0.255825 0.103648 0)
(-0.256117 0.0889631 0)
(-0.256572 0.0743797 0)
(-0.257067 0.0598509 0)
(-0.257576 0.0453234 0)
(-0.258002 0.0307811 0)
(-0.258343 0.0162047 0)
(-0.258546 0.00160272 0)
(-0.25864 -0.0130245 0)
(-0.258613 -0.0276605 0)
(-0.258527 -0.0423021 0)
(-0.258411 -0.0569416 0)
(-0.258362 -0.0715906 0)
(-0.258456 -0.0862712 0)
(-0.258837 -0.101035 0)
(-0.259647 -0.115969 0)
(-0.261092 -0.131203 0)
(-0.263378 -0.14693 0)
(-0.266731 -0.163384 0)
(-0.271293 -0.180824 0)
(-0.277034 -0.199423 0)
(-0.283548 -0.219115 0)
(-0.289836 -0.239298 0)
(-0.294079 -0.258509 0)
(-0.293545 -0.274091 0)
(-0.284832 -0.282111 0)
(-0.264581 -0.277813 0)
(-0.230869 -0.256874 0)
(-0.18493 -0.217741 0)
(-0.132534 -0.16414 0)
(-0.0831255 -0.106112 0)
(-0.0454064 -0.0555729 0)
(-0.0215774 -0.019137 0)
(-0.00825606 0.00404928 0)
(-0.00179852 0.0167732 0)
(0.000642934 0.021355 0)
(0.000815661 0.0187351 0)
(0.000234927 0.0089123 0)
(-0.00203919 0.0100536 0)
(-0.0112256 0.0284837 0)
(-0.0250022 0.0473644 0)
(-0.04112 0.0697534 0)
(-0.0605577 0.0955494 0)
(-0.0822009 0.123887 0)
(-0.106165 0.152912 0)
(-0.130744 0.18069 0)
(-0.155085 0.204946 0)
(-0.177351 0.22387 0)
(-0.196772 0.236232 0)
(-0.212294 0.241711 0)
(-0.223947 0.240694 0)
(-0.231727 0.234209 0)
(-0.236453 0.223583 0)
(-0.238768 0.210222 0)
(-0.239675 0.195319 0)
(-0.239764 0.179784 0)
(-0.239694 0.164171 0)
(-0.239689 0.148778 0)
(-0.239999 0.133679 0)
(-0.240568 0.118856 0)
(-0.24142 0.104214 0)
(-0.242399 0.0896729 0)
(-0.24347 0.0751466 0)
(-0.244487 0.0605929 0)
(-0.24543 0.0459749 0)
(-0.246198 0.0312946 0)
(-0.246801 0.0165529 0)
(-0.247186 0.00177606 0)
(-0.247388 -0.0130171 0)
(-0.247391 -0.0277949 0)
(-0.247253 -0.0425372 0)
(-0.24699 -0.0572211 0)
(-0.246683 -0.0718385 0)
(-0.246382 -0.086391 0)
(-0.246199 -0.100901 0)
(-0.246236 -0.11542 0)
(-0.246667 -0.130039 0)
(-0.247681 -0.144913 0)
(-0.249536 -0.160265 0)
(-0.252499 -0.176407 0)
(-0.256813 -0.19369 0)
(-0.262543 -0.212424 0)
(-0.269372 -0.232642 0)
(-0.276314 -0.253766 0)
(-0.281414 -0.274135 0)
(-0.28165 -0.290587 0)
(-0.273132 -0.298331 0)
(-0.252055 -0.291499 0)
(-0.216286 -0.26496 0)
(-0.167704 -0.21736 0)
(-0.113709 -0.154881 0)
(-0.0657922 -0.0913408 0)
(-0.0325541 -0.0408402 0)
(-0.0134257 -0.00745522 0)
(-0.00375355 0.0115955 0)
(0.000187721 0.0198562 0)
(0.000844753 0.0190218 0)
(0.000288383 0.00952937 0)
(-0.00243597 0.0165967 0)
(-0.0129106 0.0409478 0)
(-0.0281593 0.0631254 0)
(-0.0455163 0.0882382 0)
(-0.065971 0.116632 0)
(-0.0880739 0.147017 0)
(-0.111834 0.177144 0)
(-0.135305 0.204687 0)
(-0.157699 0.227323 0)
(-0.177249 0.243404 0)
(-0.193488 0.25212 0)
(-0.205633 0.253618 0)
(-0.214107 0.248804 0)
(-0.219178 0.239104 0)
(-0.221909 0.226094 0)
(-0.22298 0.211216 0)
(-0.223365 0.195558 0)
(-0.223489 0.179826 0)
(-0.223854 0.164363 0)
(-0.224499 0.149276 0)
(-0.225553 0.134507 0)
(-0.226851 0.119953 0)
(-0.228374 0.105484 0)
(-0.229931 0.0910098 0)
(-0.231488 0.0764563 0)
(-0.232901 0.0617971 0)
(-0.234164 0.0470175 0)
(-0.235183 0.0321372 0)
(-0.235981 0.0171766 0)
(-0.236507 0.00217586 0)
(-0.236805 -0.0128311 0)
(-0.236856 -0.0278022 0)
(-0.236718 -0.0427047 0)
(-0.236399 -0.0575073 0)
(-0.235969 -0.0721885 0)
(-0.235459 -0.0867384 0)
(-0.234956 -0.101158 0)
(-0.234524 -0.115475 0)
(-0.234291 -0.129739 0)
(-0.23439 -0.144057 0)
(-0.235037 -0.158593 0)
(-0.236494 -0.17362 0)
(-0.239087 -0.189505 0)
(-0.243131 -0.206723 0)
(-0.248786 -0.225701 0)
(-0.255811 -0.246588 0)
(-0.263167 -0.268761 0)
(-0.268724 -0.290239 0)
(-0.269021 -0.307131 0)
(-0.259709 -0.313487 0)
(-0.236542 -0.302215 0)
(-0.197619 -0.267454 0)
(-0.146004 -0.209176 0)
(-0.0915737 -0.137435 0)
(-0.0476914 -0.0712875 0)
(-0.0208774 -0.0240912 0)
(-0.00688706 0.00371547 0)
(-0.000764999 0.0171991 0)
(0.000712611 0.0189908 0)
(0.000321132 0.0101819 0)
(-0.00273705 0.0240036 0)
(-0.0141895 0.0546285 0)
(-0.0305135 0.0800005 0)
(-0.0486597 0.107553 0)
(-0.0695874 0.138094 0)
(-0.0915494 0.169872 0)
(-0.114494 0.200305 0)
(-0.136335 0.226782 0)
(-0.156432 0.247083 0)
(-0.173155 0.25983 0)
(-0.186379 0.264718 0)
(-0.195597 0.26239 0)
(-0.201579 0.254247 0)
(-0.20478 0.24201 0)
(-0.206381 0.227374 0)
(-0.206994 0.211683 0)
(-0.207479 0.195834 0)
(-0.208064 0.180291 0)
(-0.209101 0.165194 0)
(-0.210474 0.150489 0)
(-0.212237 0.136033 0)
(-0.214162 0.121676 0)
(-0.216221 0.107285 0)
(-0.218216 0.0927788 0)
(-0.220131 0.0781059 0)
(-0.221828 0.0632592 0)
(-0.223321 0.048247 0)
(-0.224521 0.0331048 0)
(-0.225463 0.0178706 0)
(-0.226098 0.00259611 0)
(-0.226474 -0.0126712 0)
(-0.226573 -0.0278813 0)
(-0.226452 -0.0429905 0)
(-0.226116 -0.0579621 0)
(-0.225631 -0.072765 0)
(-0.225016 -0.0873844 0)
(-0.224344 -0.101808 0)
(-0.223654 -0.116052 0)
(-0.223037 -0.130134 0)
(-0.222574 -0.14413 0)
(-0.222419 -0.158135 0)
(-0.222766 -0.172357 0)
(-0.223906 -0.187089 0)
(-0.226206 -0.202804 0)
(-0.230047 -0.220068 0)
(-0.235683 -0.239474 0)
(-0.242872 -0.261231 0)
(-0.250514 -0.284598 0)
(-0.256105 -0.307063 0)
(-0.255736 -0.323651 0)
(-0.244419 -0.326957 0)
(-0.217806 -0.308416 0)
(-0.174611 -0.262221 0)
(-0.12022 -0.191058 0)
(-0.0675762 -0.111893 0)
(-0.0309481 -0.0475717 0)
(-0.0114264 -0.00774967 0)
(-0.00232585 0.0128606 0)
(0.000386577 0.0184151 0)
(0.000327009 0.0108056 0)
(-0.00292462 0.0320615 0)
(-0.0150077 0.0692337 0)
(-0.0319847 0.0976757 0)
(-0.0504671 0.127356 0)
(-0.0713497 0.159572 0)
(-0.092651 0.192111 0)
(-0.114308 0.22214 0)
(-0.134188 0.246879 0)
(-0.151853 0.264341 0)
(-0.165861 0.273509 0)
(-0.176423 0.274634 0)
(-0.183286 0.268843 0)
(-0.187486 0.25796 0)
(-0.189562 0.243874 0)
(-0.190703 0.228272 0)
(-0.191378 0.212297 0)
(-0.192297 0.196617 0)
(-0.193504 0.181451 0)
(-0.195226 0.166773 0)
(-0.197246 0.152415 0)
(-0.199579 0.138189 0)
(-0.201974 0.123932 0)
(-0.204415 0.109527 0)
(-0.206713 0.0949106 0)
(-0.208873 0.0800575 0)
(-0.210766 0.0649777 0)
(-0.212422 0.0496995 0)
(-0.213757 0.0342702 0)
(-0.214811 0.0187428 0)
(-0.215537 0.0031774 0)
(-0.215987 -0.0123666 0)
(-0.216139 -0.0278332 0)
(-0.216055 -0.043169 0)
(-0.215733 -0.0583347 0)
(-0.215241 -0.0732908 0)
(-0.214591 -0.0880229 0)
(-0.213852 -0.10251 0)
(-0.213048 -0.116766 0)
(-0.212246 -0.130793 0)
(-0.211495 -0.144645 0)
(-0.21089 -0.158369 0)
(-0.210555 -0.172111 0)
(-0.210694 -0.186062 0)
(-0.21162 -0.200609 0)
(-0.213734 -0.216278 0)
(-0.217511 -0.23382 0)
(-0.22322 -0.253933 0)
(-0.230647 -0.276882 0)
(-0.238398 -0.301616 0)
(-0.243593 -0.324749 0)
(-0.241548 -0.339814 0)
(-0.226881 -0.337418 0)
(-0.195243 -0.307853 0)
(-0.147169 -0.246337 0)
(-0.0912567 -0.16186 0)
(-0.0443053 -0.0798888 0)
(-0.0173993 -0.0239187 0)
(-0.00461483 0.00620183 0)
(-0.000124046 0.0169738 0)
(0.000302762 0.0112986 0)
(-0.00296678 0.0404155 0)
(-0.0152786 0.0842555 0)
(-0.0324618 0.115576 0)
(-0.0508367 0.147 0)
(-0.0712067 0.180364 0)
(-0.0914303 0.213046 0)
(-0.111476 0.242062 0)
(-0.129246 0.264569 0)
(-0.144532 0.27892 0)
(-0.156101 0.28451 0)
(-0.164467 0.282157 0)
(-0.169576 0.273421 0)
(-0.172636 0.260445 0)
(-0.174175 0.245156 0)
(-0.175312 0.229124 0)
(-0.176341 0.213239 0)
(-0.177823 0.197933 0)
(-0.179648 0.18321 0)
(-0.181964 0.168925 0)
(-0.184494 0.154838 0)
(-0.187247 0.140752 0)
(-0.189971 0.126507 0)
(-0.192675 0.112016 0)
(-0.19518 0.0972321 0)
(-0.197512 0.0821547 0)
(-0.199549 0.0668068 0)
(-0.20133 0.0512343 0)
(-0.202772 0.0354929 0)
(-0.203923 0.0196495 0)
(-0.204732 0.00377095 0)
(-0.205252 -0.012071 0)
(-0.205459 -0.0278154 0)
(-0.205417 -0.043398 0)
(-0.205122 -0.0587774 0)
(-0.204641 -0.0739058 0)
(-0.203986 -0.0887705 0)
(-0.203222 -0.103344 0)
(-0.202371 -0.117646 0)
(-0.201491 -0.131667 0)
(-0.200611 -0.145461 0)
(-0.199791 -0.159044 0)
(-0.1991 -0.172524 0)
(-0.198658 -0.186002 0)
(-0.198681 -0.199763 0)
(-0.199486 -0.214199 0)
(-0.201569 -0.230022 0)
(-0.205415 -0.248099 0)
(-0.211396 -0.269319 0)
(-0.219072 -0.29384 0)
(-0.226794 -0.320021 0)
(-0.23085 -0.343132 0)
(-0.225966 -0.354474 0)
(-0.206184 -0.34256 0)
(-0.168251 -0.296882 0)
(-0.115457 -0.216998 0)
(-0.0614378 -0.121971 0)
(-0.0249018 -0.0464078 0)
(-0.00774117 -0.00331302 0)
(-0.000839766 0.0142995 0)
(0.000260404 0.0116032 0)
(-0.00287114 0.0487811 0)
(-0.0150259 0.0993675 0)
(-0.0319949 0.133414 0)
(-0.0498693 0.166242 0)
(-0.0693382 0.200301 0)
(-0.0881805 0.232631 0)
(-0.106426 0.260188 0)
(-0.122077 0.280168 0)
(-0.135154 0.291332 0)
(-0.144633 0.293515 0)
(-0.151278 0.288082 0)
(-0.155171 0.276947 0)
(-0.157591 0.262461 0)
(-0.158992 0.246473 0)
(-0.160375 0.230372 0)
(-0.161862 0.214776 0)
(-0.163887 0.199903 0)
(-0.166231 0.185589 0)
(-0.168997 0.171613 0)
(-0.171884 0.157698 0)
(-0.174915 0.143663 0)
(-0.17785 0.12936 0)
(-0.180721 0.114731 0)
(-0.183359 0.0997458 0)
(-0.185809 0.0844229 0)
(-0.18795 0.0687942 0)
(-0.189831 0.0529196 0)
(-0.191366 0.0368608 0)
(-0.192605 0.0206971 0)
(-0.193495 0.00450061 0)
(-0.194092 -0.0116449 0)
(-0.194367 -0.0276747 0)
(-0.194385 -0.0435134 0)
(-0.194139 -0.0591186 0)
(-0.193698 -0.0744329 0)
(-0.193069 -0.0894472 0)
(-0.192321 -0.104126 0)
(-0.191472 -0.118498 0)
(-0.190579 -0.132546 0)
(-0.189663 -0.146335 0)
(-0.188769 -0.159861 0)
(-0.187933 -0.173224 0)