/*--------------------------------*- C++ -*----------------------------------*\
| =========                 |                                                 |
| \\      /  F ield         | OpenFOAM: The Open Source CFD Toolbox           |
|  \\    /   O peration     | Version:  2406                                  |
|   \\  /    A nd           | Website:  www.openfoam.com                      |
|    \\/     M anipulation  |                                                 |
\*---------------------------------------------------------------------------*/
FoamFile
{
    version     2.0;
    format      ascii;
    arch        "LSB;label=32;scalar=64";
    class       volVectorField;
    location    "28.5";
    object      U;
}
// * * * * * * * * * * * * * * * * * * * * * * * * * * * * * * * * * * * * * //

dimensions      [0 1 -1 0 0 0 0];

internalField   nonuniform List<vector> 
16384
(
(-1.22822e-05 1.21418e-05 0)
(-9.42906e-07 1.75889e-06 0)
(7.35892e-05 -1.16616e-05 0)
(0.000205014 -2.25189e-05 0)
(0.000380582 -2.97919e-05 0)
(0.00058537 -3.38171e-05 0)
(0.000804937 -3.51588e-05 0)
(0.00102656 -3.43843e-05 0)
(0.00123975 -3.20382e-05 0)
(0.00143649 -2.86341e-05 0)
(0.00161121 -2.46461e-05 0)
(0.00176073 -2.04944e-05 0)
(0.00188396 -1.65304e-05 0)
(0.00198157 -1.3026e-05 0)
(0.00205561 -1.01697e-05 0)
(0.00210905 -8.0678e-06 0)
(0.00214534 -6.75085e-06 0)
(0.00216805 -6.18239e-06 0)
(0.00218048 -6.27044e-06 0)
(0.00218539 -6.89241e-06 0)
(0.00218469 -7.93447e-06 0)
(0.00217943 -9.16669e-06 0)
(0.00216969 -1.04343e-05 0)
(0.00215458 -1.15966e-05 0)
(0.00213232 -1.25285e-05 0)
(0.00210038 -1.31334e-05 0)
(0.00205566 -1.33453e-05 0)
(0.00199459 -1.31248e-05 0)
(0.00191334 -1.24517e-05 0)
(0.00180787 -1.13157e-05 0)
(0.00167404 -9.70695e-06 0)
(0.00150761 -7.61224e-06 0)
(0.00130428 -4.9994e-06 0)
(0.00105968 -1.832e-06 0)
(0.000769369 1.94402e-06 0)
(0.000428841 6.38813e-06 0)
(3.35867e-05 1.15634e-05 0)
(-0.000420861 1.75304e-05 0)
(-0.000938834 2.43484e-05 0)
(-0.00152442 3.20647e-05 0)
(-0.00218136 4.07136e-05 0)
(-0.00291287 5.03141e-05 0)
(-0.00372155 6.08662e-05 0)
(-0.00460924 7.2348e-05 0)
(-0.00557684 8.47131e-05 0)
(-0.00662422 9.78881e-05 0)
(-0.00775009 0.000111771 0)
(-0.0089519 0.000126229 0)
(-0.0102258 0.0001411 0)
(-0.0115664 0.000156189 0)
(-0.0129671 0.000171273 0)
(-0.0144196 0.0001861 0)
(-0.0159143 0.000200391 0)
(-0.0174404 0.000213844 0)
(-0.0189854 0.000226137 0)
(-0.0205359 0.000236933 0)
(-0.0220772 0.000245882 0)
(-0.0235936 0.000252629 0)
(-0.0250686 0.000256819 0)
(-0.026485 0.000258101 0)
(-0.027825 0.000256144 0)
(-0.0290705 0.000250633 0)
(-0.0302031 0.000241294 0)
(-0.0312046 0.000227916 0)
(-0.0320572 0.000210416 0)
(-0.0327436 0.000188889 0)
(-0.0332476 0.000163449 0)
(-0.0335545 0.00013334 0)
(-0.0336507 9.62884e-05 0)
(-0.0335197 5.93891e-05 0)
(-0.0331502 1.5686e-05 0)
(-0.0325403 -3.1901e-05 0)
(-0.031684 -8.1497e-05 0)
(-0.0305793 -0.00013242 0)
(-0.0292289 -0.000183851 0)
(-0.0276391 -0.000234755 0)
(-0.0258209 -0.00028396 0)
(-0.0237896 -0.000330202 0)
(-0.0215649 -0.000372174 0)
(-0.0191712 -0.000408576 0)
(-0.0166373 -0.000438176 0)
(-0.0139957 -0.000459877 0)
(-0.0112822 -0.000472772 0)
(-0.00853558 -0.000476207 0)
(-0.005796 -0.000469818 0)
(-0.00310434 -0.000453604 0)
(-0.000500786 -0.000428165 0)
(0.00197509 -0.000394601 0)
(0.00428717 -0.000352939 0)
(0.0064036 -0.000305045 0)
(0.0082972 -0.000253183 0)
(0.00994716 -0.000198679 0)
(0.0113387 -0.000143443 0)
(0.0124639 -8.93012e-05 0)
(0.0133218 -3.79125e-05 0)
(0.0139182 9.31692e-06 0)
(0.0142649 5.12885e-05 0)
(0.0143791 8.72565e-05 0)
(0.014282 0.000116897 0)
(0.0139988 0.000139257 0)
(0.0135565 0.000155486 0)
(0.0129826 0.000165828 0)
(0.012305 0.000170823 0)
(0.0115505 0.000171217 0)
(0.0107442 0.00016781 0)
(0.00990883 0.000161403 0)
(0.00906419 0.000152759 0)
(0.00822714 0.000142573 0)
(0.00741143 0.000131456 0)
(0.00662784 0.00011992 0)
(0.00588433 0.000108383 0)
(0.00518632 9.71713e-05 0)
(0.00453695 8.65335e-05 0)
(0.00393746 7.66515e-05 0)
(0.00338748 6.76532e-05 0)
(0.00288532 5.9622e-05 0)
(0.00242835 5.25994e-05 0)
(0.00201332 4.65796e-05 0)
(0.00163676 4.14938e-05 0)
(0.00129552 3.71844e-05 0)
(0.000987306 3.3369e-05 0)
(0.000711403 2.96013e-05 0)
(0.000469416 2.52331e-05 0)
(0.000265841 1.94075e-05 0)
(0.000108033 1.12177e-05 0)
(5.09042e-06 3.3904e-07 0)
(-3.54318e-05 -1.17242e-05 0)
(-1.83777e-05 -1.84645e-05 0)
(-2.47455e-06 1.12869e-06 0)
(9.07553e-05 -9.32347e-05 0)
(0.000319193 -0.000205324 0)
(0.000668115 -0.000301252 0)
(0.00111153 -0.00037082 0)
(0.00161872 -0.000412593 0)
(0.0021587 -0.000428603 0)
(0.00270304 -0.000422455 0)
(0.00322749 -0.000398509 0)
(0.00371281 -0.000361405 0)
(0.00414509 -0.000315729 0)
(0.00451559 -0.000265739 0)
(0.00482034 -0.000215147 0)
(0.00505943 -0.00016696 0)
(0.00523611 -0.000123391 0)
(0.00535592 -8.58264e-05 0)
(0.00542561 -5.48488e-05 0)
(0.00545227 -3.0311e-05 0)
(0.00544247 -1.14388e-05 0)
(0.00540151 3.04456e-06 0)
(0.00533295 1.47355e-05 0)
(0.00523817 2.55115e-05 0)
(0.0051162 3.7239e-05 0)
(0.00496375 5.16954e-05 0)
(0.00477539 7.0464e-05 0)
(0.00454379 9.48576e-05 0)
(0.0042601 0.000125889 0)
(0.00391431 0.000164285 0)
(0.00349559 0.000210529 0)
(0.00299257 0.000264931 0)
(0.00239359 0.000327693 0)
(0.00168682 0.000398952 0)
(0.000860407 0.00047886 0)
(-9.74849e-05 0.000567524 0)
(-0.0011985 0.000665033 0)
(-0.00245398 0.000771408 0)
(-0.00387474 0.000886565 0)
(-0.00547085 0.00101026 0)
(-0.00725129 0.00114204 0)
(-0.00922362 0.00128124 0)
(-0.0113937 0.00142694 0)
(-0.013765 0.00157791 0)
(-0.0163389 0.00173269 0)
(-0.0191136 0.00188952 0)
(-0.0220843 0.00204639 0)
(-0.0252429 0.00220103 0)
(-0.0285777 0.00235099 0)
(-0.0320733 0.00249365 0)
(-0.035711 0.00262624 0)
(-0.0394682 0.00274594 0)
(-0.0433193 0.00284993 0)
(-0.0472353 0.00293538 0)
(-0.0511847 0.00299959 0)
(-0.0551332 0.00303999 0)
(-0.0590448 0.0030542 0)
(-0.0628818 0.00304004 0)
(-0.0666055 0.00299564 0)
(-0.0701763 0.00291938 0)
(-0.0735548 0.00280998 0)
(-0.0767015 0.0026665 0)
(-0.0795778 0.00248834 0)
(-0.0821462 0.0022753 0)
(-0.0843707 0.00202759 0)
(-0.0862175 0.00174594 0)
(-0.0876547 0.00143156 0)
(-0.0886543 0.00108574 0)
(-0.0891925 0.000709335 0)
(-0.0892507 0.000305158 0)
(-0.0888042 -0.00011382 0)
(-0.0878333 -0.00055002 0)
(-0.0863358 -0.00100459 0)
(-0.0843078 -0.00146942 0)
(-0.0817518 -0.00193789 0)
(-0.0786762 -0.00240338 0)
(-0.0750955 -0.00285875 0)
(-0.0710314 -0.00329644 0)
(-0.0665122 -0.00370853 0)
(-0.0615735 -0.00408693 0)
(-0.0562583 -0.00442361 0)
(-0.0506163 -0.00471075 0)
(-0.0447038 -0.00494109 0)
(-0.0385833 -0.00510818 0)
(-0.0323225 -0.00520668 0)
(-0.0259935 -0.00523262 0)
(-0.0196713 -0.00518374 0)
(-0.0134324 -0.00505964 0)
(-0.00735332 -0.00486222 0)
(-0.00150874 -0.00459581 0)
(0.00402949 -0.00426537 0)
(0.00919403 -0.00387686 0)
(0.013927 -0.00344376 0)
(0.0181795 -0.00297508 0)
(0.0219109 -0.00248297 0)
(0.0250928 -0.00197998 0)
(0.0277087 -0.00147865 0)
(0.0297547 -0.000990944 0)
(0.0312391 -0.000527884 0)
(0.032182 -9.91528e-05 0)
(0.0326124 0.000287333 0)
(0.0325719 0.000627572 0)
(0.0321089 0.000917241 0)
(0.0312746 0.00115435 0)
(0.0301252 0.00133923 0)
(0.028719 0.00147408 0)
(0.0271131 0.00156253 0)
(0.0253625 0.00160922 0)
(0.023518 0.00161953 0)
(0.0216258 0.00159915 0)
(0.0197258 0.00155387 0)
(0.0178518 0.0014893 0)
(0.0160313 0.00141066 0)
(0.0142855 0.00132268 0)
(0.0126297 0.0012295 0)
(0.011074 0.00113468 0)
(0.00962376 0.00104113 0)
(0.00828048 0.000951138 0)
(0.00704256 0.000866331 0)
(0.00590621 0.000787575 0)
(0.00486655 0.000714862 0)
(0.00391878 0.000647141 0)
(0.00305954 0.000582147 0)
(0.00228839 0.000516309 0)
(0.00160912 0.000444862 0)
(0.00103065 0.000362445 0)
(0.000566702 0.000264694 0)
(0.000233264 0.000151975 0)
(4.2178e-05 3.73566e-05 0)
(-1.09738e-05 -3.55347e-05 0)
(9.94527e-06 -7.02822e-05 0)
(0.000197673 -0.000319375 0)
(0.00057155 -0.000580784 0)
(0.00110309 -0.000802494 0)
(0.0017553 -0.000964819 0)
(0.00248807 -0.00106314 0)
(0.00326081 -0.00110047 0)
(0.00403564 -0.00108403 0)
(0.00477963 -0.00102341 0)
(0.00546614 -0.000929233 0)
(0.00607532 -0.000812288 0)
(0.00659411 -0.000682748 0)
(0.0070157 -0.000549601 0)
(0.00733869 -0.000420225 0)
(0.00756594 -0.000300131 0)
(0.00770338 -0.000192844 0)
(0.00775862 -9.99363e-05 0)
(0.00773972 -2.11611e-05 0)
(0.00765405 4.53229e-05 0)
(0.0075072 0.000102618 0)
(0.00730228 0.000154771 0)
(0.00703936 0.000206345 0)
(0.0067152 0.000262088 0)
(0.00632326 0.000326562 0)
(0.00585389 0.00040387 0)
(0.00529476 0.000497465 0)
(0.00463132 0.000610059 0)
(0.00384734 0.000743642 0)
(0.00292541 0.000899562 0)
(0.00184744 0.00107866 0)
(0.000594977 0.00128143 0)
(-0.000850408 0.00150809 0)
(-0.00250689 0.00175868 0)
(-0.00439211 0.00203304 0)
(-0.00652279 0.00233077 0)
(-0.00891443 0.00265113 0)
(-0.0115808 0.00299293 0)
(-0.0145335 0.00335442 0)
(-0.0177812 0.00373322 0)
(-0.0213295 0.00412623 0)
(-0.0251797 0.00452958 0)
(-0.029329 0.00493871 0)
(-0.0337695 0.00534831 0)
(-0.0384881 0.00575243 0)
(-0.0434662 0.00614459 0)
(-0.0486796 0.00651787 0)
(-0.0540989 0.00686508 0)
(-0.0596893 0.0071789 0)
(-0.0654113 0.00745209 0)
(-0.0712212 0.00767763 0)
(-0.0770717 0.00784889 0)
(-0.0829129 0.00795981 0)
(-0.0886927 0.008005 0)
(-0.0943581 0.00797983 0)
(-0.0998554 0.00788056 0)
(-0.105131 0.00770432 0)
(-0.110134 0.00744916 0)
(-0.114814 0.00711407 0)
(-0.119121 0.00669891 0)
(-0.123012 0.00620442 0)
(-0.126443 0.00563217 0)
(-0.129375 0.00498454 0)
(-0.131774 0.00426476 0)
(-0.133607 0.00347687 0)
(-0.134847 0.00262555 0)
(-0.135473 0.00171555 0)
(-0.135465 0.00075276 0)
(-0.134801 -0.000250305 0)
(-0.133477 -0.00128029 0)
(-0.131491 -0.00233877 0)
(-0.12884 -0.00341295 0)
(-0.125529 -0.00449243 0)
(-0.121571 -0.00556503 0)
(-0.116982 -0.00661748 0)
(-0.111786 -0.00763574 0)
(-0.106013 -0.00860515 0)
(-0.0997004 -0.00951062 0)
(-0.0928914 -0.0103369 0)
(-0.0856365 -0.0110688 0)
(-0.0779928 -0.0116917 0)
(-0.070024 -0.012192 0)
(-0.0618001 -0.0125574 0)
(-0.0533962 -0.0127775 0)
(-0.0448926 -0.0128445 0)
(-0.0363731 -0.0127534 0)
(-0.0279241 -0.0125025 0)
(-0.0196329 -0.012094 0)
(-0.0115864 -0.0115338 0)
(-0.00386739 -0.0108321 0)
(0.00343886 -0.0100014 0)
(0.0102579 -0.00905922 0)
(0.0165269 -0.00802605 0)
(0.0221856 -0.00692516 0)
(0.0271871 -0.00578094 0)
(0.0314967 -0.00461895 0)
(0.0350928 -0.00346463 0)
(0.0379673 -0.00234252 0)
(0.0401258 -0.00127539 0)
(0.0415893 -0.000283299 0)
(0.0423903 0.000618972 0)
(0.042571 0.00141597 0)
(0.0421852 0.00210087 0)
(0.0412952 0.00266897 0)
(0.0399689 0.00311978 0)
(0.0382776 0.00345681 0)
(0.0362932 0.00368691 0)
(0.0340864 0.0038195 0)
(0.0317243 0.00386587 0)
(0.0292685 0.00383846 0)
(0.0267742 0.00375018 0)
(0.024289 0.00361385 0)
(0.0218522 0.00344166 0)
(0.0194953 0.00324484 0)
(0.017242 0.00303339 0)
(0.0151086 0.00281587 0)
(0.0131053 0.00259928 0)
(0.0112368 0.00238888 0)
(0.00950387 0.00218792 0)
(0.00790476 0.00199738 0)
(0.0064368 0.00181564 0)
(0.00509827 0.00163819 0)
(0.00389026 0.00145765 0)
(0.00281834 0.00126425 0)
(0.0018935 0.00104738 0)
(0.00113179 0.000798969 0)
(0.000552179 0.000520054 0)
(0.00017286 0.000233629 0)
(3.13436e-06 1.05497e-05 0)
(1.96415e-05 -0.000195225 0)
(0.000289308 -0.000661835 0)
(0.000787767 -0.00111026 0)
(0.00146942 -0.00148241 0)
(0.00228494 -0.00175278 0)
(0.00318621 -0.00191459 0)
(0.00412585 -0.00197223 0)
(0.00505982 -0.00193714 0)
(0.00594966 -0.0018249 0)
(0.00676397 -0.00165318 0)
(0.00747898 -0.00144011 0)
(0.00807852 -0.00120294 0)
(0.00855346 -0.000956978 0)
(0.00890072 -0.000714891 0)
(0.00912201 -0.000486172 0)
(0.00922242 -0.000276933 0)
(0.00920885 -8.99022e-05 0)
(0.00908859 7.53631e-05 0)
(0.00886787 0.000222099 0)
(0.00855073 0.000355801 0)
(0.00813813 0.000483634 0)
(0.00762725 0.000613743 0)
(0.00701126 0.000754597 0)
(0.00627929 0.00091437 0)
(0.00541676 0.00110043 0)
(0.00440583 0.00131901 0)
(0.0032261 0.00157501 0)
(0.00185524 0.001872 0)
(0.000269711 0.00221234 0)
(-0.00155459 0.00259741 0)
(-0.00364178 0.00302775 0)
(-0.00601544 0.00350329 0)
(-0.00869805 0.00402332 0)
(-0.0117105 0.00458655 0)
(-0.0150714 0.00519094 0)
(-0.0187963 0.00583357 0)
(-0.0228973 0.00651042 0)
(-0.0273819 0.00721625 0)
(-0.0322521 0.00794444 0)
(-0.0375041 0.00868701 0)
(-0.0431275 0.00943458 0)
(-0.0491048 0.0101765 0)
(-0.0554111 0.0109012 0)
(-0.0620141 0.0115959 0)
(-0.0688745 0.0122477 0)
(-0.0759465 0.0128432 0)
(-0.0831783 0.0133693 0)
(-0.0905135 0.0138134 0)
(-0.0978916 0.0141637 0)
(-0.10525 0.0144099 0)
(-0.112524 0.0145427 0)
(-0.119651 0.0145548 0)
(-0.126566 0.0144404 0)
(-0.13321 0.0141955 0)
(-0.139523 0.0138179 0)
(-0.145452 0.0133072 0)
(-0.150945 0.0126642 0)
(-0.155956 0.0118916 0)
(-0.160443 0.0109929 0)
(-0.164369 0.00997294 0)
(-0.167702 0.00883762 0)
(-0.170411 0.00759367 0)
(-0.172474 0.00624872 0)
(-0.17387 0.00481122 0)
(-0.174584 0.00329029 0)
(-0.174603 0.00169578 0)
(-0.173917 3.96335e-05 0)
(-0.172518 -0.00166185 0)
(-0.170408 -0.00340534 0)
(-0.167593 -0.00517194 0)
(-0.164076 -0.00694643 0)
(-0.159869 -0.008713 0)
(-0.154986 -0.0104544 0)
(-0.149447 -0.0121521 0)
(-0.143277 -0.0137864 0)
(-0.136506 -0.0153366 0)
(-0.12917 -0.0167814 0)
(-0.121311 -0.0180992 0)
(-0.112976 -0.0192682 0)
(-0.10422 -0.0202676 0)
(-0.0951026 -0.0210774 0)
(-0.0856905 -0.0216795 0)
(-0.0760559 -0.0220583 0)
(-0.0662761 -0.0222013 0)
(-0.0564332 -0.0221001 0)
(-0.0466127 -0.0217506 0)
(-0.0369026 -0.0211539 0)
(-0.0273918 -0.0203163 0)
(-0.0181682 -0.0192501 0)
(-0.00931958 -0.0179748 0)
(-0.000927998 -0.0165094 0)
(0.00693054 -0.0148841 0)
(0.0141862 -0.0131311 0)
(0.0207788 -0.0112857 0)
(0.0266582 -0.00938571 0)
(0.0317863 -0.00746941 0)
(0.0361373 -0.00557511 0)
(0.039699 -0.00373927 0)
(0.0424732 -0.00199555 0)
(0.0444739 -0.000375021 0)
(0.0457311 0.00109676 0)
(0.0462864 0.00240014 0)
(0.0461899 0.00352364 0)
(0.045504 0.0044597 0)
(0.0442986 0.00520713 0)
(0.0426485 0.00577085 0)
(0.040631 0.00616099 0)
(0.0383239 0.00639196 0)
(0.0358022 0.00648132 0)
(0.0331367 0.00644878 0)
(0.0303919 0.00631505 0)
(0.0276245 0.00610091 0)
(0.0248827 0.00582633 0)
(0.0222058 0.00550981 0)
(0.0196246 0.00516782 0)
(0.0171614 0.00481428 0)
(0.0148315 0.00446017 0)
(0.0126443 0.00411294 0)
(0.0106049 0.00377608 0)
(0.00871584 0.00344852 0)
(0.00697955 0.0031243 0)
(0.00540017 0.00279269 0)
(0.00398558 0.0024391 0)
(0.0027487 0.00204758 0)
(0.00170772 0.0016056 0)
(0.000885759 0.00111255 0)
(0.000312477 0.0005947 0)
(1.78742e-05 0.000131799 0)
(2.62541e-05 -0.000362629 0)
(0.000360159 -0.00109898 0)
(0.000958548 -0.0017633 0)
(0.00175876 -0.00230019 0)
(0.00269865 -0.00268336 0)
(0.00372192 -0.00290638 0)
(0.00477528 -0.00297645 0)
(0.00581 -0.00291005 0)
(0.00678384 -0.0027295 0)
(0.00766237 -0.00246017 0)
(0.00841932 -0.00212811 0)
(0.00903652 -0.00175817 0)
(0.00950314 -0.00137244 0)
(0.00981459 -0.000989175 0)
(0.00997116 -0.000622033 0)
(0.00997637 -0.000279732 0)
(0.0098354 3.39744e-05 0)
(0.00955339 0.000320006 0)
(0.00913402 0.000583413 0)
(0.00857823 0.000832639 0)
(0.00788322 0.00107859 0)
(0.00704185 0.00133362 0)
(0.00604238 0.00161055 0)
(0.00486857 0.00192172 0)
(0.0035001 0.00227819 0)
(0.00191325 0.00268926 0)
(8.16778e-05 0.00316215 0)
(-0.00202265 0.00370199 0)
(-0.00442859 0.00431193 0)
(-0.00716495 0.0049934 0)
(-0.0102596 0.00574634 0)
(-0.0137389 0.00656938 0)
(-0.0176263 0.00745985 0)
(-0.0219419 0.0084137 0)
(-0.0267014 0.0094253 0)
(-0.031915 0.0104872 0)
(-0.0375861 0.0115901 0)
(-0.043711 0.0127223 0)
(-0.0502775 0.0138701 0)
(-0.0572644 0.0150176 0)
(-0.0646416 0.0161473 0)
(-0.0723697 0.0172399 0)
(-0.0804008 0.0182755 0)
(-0.0886789 0.0192336 0)
(-0.0971414 0.020094 0)
(-0.105721 0.0208373 0)
(-0.114345 0.0214459 0)
(-0.122942 0.0219038 0)
(-0.131437 0.0221977 0)
(-0.139759 0.0223169 0)
(-0.147839 0.0222537 0)
(-0.155612 0.0220032 0)
(-0.163017 0.0215631 0)
(-0.169999 0.0209339 0)
(-0.176511 0.0201183 0)
(-0.182507 0.0191209 0)
(-0.187952 0.0179481 0)
(-0.192811 0.0166076 0)
(-0.197058 0.0151081 0)
(-0.200671 0.0134592 0)
(-0.203629 0.0116714 0)
(-0.205919 0.00975547 0)
(-0.207527 0.00772295 0)
(-0.208445 0.00558566 0)
(-0.208667 0.00335609 0)
(-0.208189 0.00104832 0)
(-0.207005 -0.00132159 0)
(-0.205115 -0.00374122 0)
(-0.202526 -0.00619728 0)
(-0.19924 -0.00867059 0)
(-0.195264 -0.0111427 0)
(-0.190607 -0.0135937 0)
(-0.185281 -0.0160024 0)
(-0.179303 -0.0183461 0)
(-0.172692 -0.0206004 0)
(-0.165472 -0.0227399 0)
(-0.157674 -0.0247378 0)
(-0.14933 -0.0265667 0)
(-0.140482 -0.0281991 0)
(-0.131175 -0.0296078 0)
(-0.121464 -0.0307665 0)
(-0.111407 -0.0316511 0)
(-0.10107 -0.0322401 0)
(-0.0905246 -0.0325157 0)
(-0.0798491 -0.0324649 0)
(-0.0691254 -0.03208 0)
(-0.0584396 -0.0313596 0)
(-0.0478803 -0.0303091 0)
(-0.0375371 -0.0289413 0)
(-0.0274996 -0.0272765 0)
(-0.0178543 -0.0253406 0)
(-0.00868375 -0.0231678 0)
(-6.53187e-05 -0.0207972 0)
(0.007931 -0.0182732 0)
(0.0152445 -0.0156434 0)
(0.0218244 -0.0129579 0)
(0.0276306 -0.0102673 0)
(0.0326354 -0.0076212 0)
(0.0368235 -0.00506693 0)
(0.0401918 -0.00264818 0)
(0.0427504 -0.000402444 0)
(0.0445253 0.00163583 0)
(0.0455525 0.00344193 0)
(0.0458774 0.00500029 0)
(0.0455585 0.00630139 0)
(0.0446628 0.00734388 0)
(0.0432636 0.00813422 0)
(0.0414383 0.00868582 0)
(0.0392663 0.00901786 0)
(0.0368257 0.00915398 0)
(0.0341918 0.00912089 0)
(0.031434 0.00894692 0)
(0.0286149 0.00866061 0)
(0.0257888 0.00828952 0)
(0.023001 0.00785911 0)
(0.0202879 0.00739174 0)
(0.0176777 0.00690581 0)
(0.0151908 0.00641479 0)
(0.0128421 0.00592638 0)
(0.0106422 0.00544171 0)
(0.00859969 0.00495481 0)
(0.00672373 0.00445277 0)
(0.00502591 0.00391702 0)
(0.00352234 0.00332626 0)
(0.00223481 0.00266215 0)
(0.00119282 0.00191839 0)
(0.000440514 0.00111551 0)
(3.08403e-05 0.000324739 0)
(3.06812e-05 -0.000561676 0)
(0.000412681 -0.00160919 0)
(0.00108737 -0.00251204 0)
(0.0019767 -0.00322225 0)
(0.00300615 -0.00371689 0)
(0.0041111 -0.00399281 0)
(0.0052325 -0.00406197 0)
(0.00631754 -0.00394724 0)
(0.00732115 -0.0036786 0)
(0.00820689 -0.00328975 0)
(0.0089471 -0.00281511 0)
(0.00952242 -0.00228736 0)
(0.00992094 -0.00173546 0)
(0.0101368 -0.00118316 0)
(0.0101689 -0.000648074 0)
(0.0100186 -0.000141194 0)
(0.00968859 0.000333126 0)
(0.00918094 0.000776823 0)
(0.00849547 0.00119737 0)
(0.00762862 0.00160675 0)
(0.00657249 0.00202022 0)
(0.00531426 0.00245486 0)
(0.00383615 0.00292829 0)
(0.00211566 0.00345724 0)
(0.000126233 0.00405661 0)
(-0.00216185 0.00473864 0)
(-0.00478039 0.00551256 0)
(-0.00776217 0.00638446 0)
(-0.0111397 0.0073575 0)
(-0.0149442 0.00843209 0)
(-0.0192043 0.00960618 0)
(-0.0239448 0.0108754 0)
(-0.0291856 0.0122328 0)
(-0.0349405 0.0136693 0)
(-0.0412154 0.0151727 0)
(-0.0480077 0.016728 0)
(-0.0553049 0.0183171 0)
(-0.0630838 0.0199188 0)
(-0.0713103 0.0215094 0)
(-0.0799395 0.0230626 0)
(-0.088916 0.0245508 0)
(-0.0981754 0.0259454 0)
(-0.107646 0.0272182 0)
(-0.117249 0.0283422 0)
(-0.126904 0.0292924 0)
(-0.13653 0.0300469 0)
(-0.146045 0.0305872 0)
(-0.155371 0.030899 0)
(-0.164436 0.030972 0)
(-0.173172 0.0308003 0)
(-0.181519 0.0303816 0)
(-0.189425 0.0297176 0)
(-0.196843 0.0288126 0)
(-0.203735 0.027674 0)
(-0.210069 0.0263108 0)
(-0.215819 0.0247339 0)
(-0.220963 0.022955 0)
(-0.225486 0.0209869 0)
(-0.229374 0.0188426 0)
(-0.232618 0.0165354 0)
(-0.235209 0.0140788 0)
(-0.237144 0.0114862 0)
(-0.238416 0.00877104 0)
(-0.239024 0.005947 0)
(-0.238965 0.00302828 0)
(-0.238235 3.09087e-05 0)
(-0.236834 -0.00302809 0)
(-0.234763 -0.00613852 0)
(-0.232022 -0.00928079 0)
(-0.228611 -0.0124361 0)
(-0.224534 -0.015584 0)
(-0.219794 -0.0187023 0)
(-0.214397 -0.0217671 0)
(-0.208352 -0.0247523 0)
(-0.20167 -0.0276298 0)
(-0.194368 -0.0303698 0)
(-0.186466 -0.0329405 0)
(-0.177989 -0.0353091 0)
(-0.168968 -0.0374421 0)
(-0.159442 -0.0393057 0)
(-0.149454 -0.0408671 0)
(-0.139056 -0.0420953 0)
(-0.128308 -0.042962 0)
(-0.117274 -0.0434431 0)
(-0.106028 -0.0435197 0)
(-0.0946499 -0.0431791 0)
(-0.0832233 -0.0424161 0)
(-0.0718372 -0.0412337 0)
(-0.0605828 -0.0396436 0)
(-0.0495523 -0.0376664 0)
(-0.0388369 -0.0353314 0)
(-0.0285247 -0.0326767 0)
(-0.0186997 -0.0297475 0)
(-0.00943912 -0.0265955 0)
(-0.000812392 -0.023277 0)
(0.00711981 -0.0198521 0)
(0.0143075 -0.0163822 0)
(0.0207116 -0.0129284 0)
(0.0263039 -0.00955038 0)
(0.0310682 -0.00630378 0)
(0.0349995 -0.00323929 0)
(0.0381058 -0.000401197 0)
(0.0404088 0.00217114 0)
(0.0419397 0.00444938 0)
(0.0427395 0.00641501 0)
(0.0428618 0.00805766 0)
(0.0423689 0.0093765 0)
(0.0413304 0.0103799 0)
(0.0398213 0.0110847 0)
(0.0379193 0.0115145 0)
(0.0357029 0.0116987 0)
(0.0332481 0.0116706 0)
(0.030627 0.0114653 0)
(0.0279051 0.0111185 0)
(0.0251406 0.0106644 0)
(0.0223831 0.0101342 0)
(0.0196736 0.00955456 0)
(0.0170452 0.00894639 0)
(0.0145237 0.00832315 0)
(0.0121296 0.00768978 0)
(0.00987971 0.00704194 0)
(0.00778996 0.00636598 0)
(0.00587749 0.0056402 0)
(0.00416336 0.00483802 0)
(0.00267483 0.00393364 0)
(0.00144949 0.00291083 0)
(0.00054672 0.0017763 0)
(4.11332e-05 0.000579792 0)
(3.37965e-05 -0.000783708 0)
(0.000451 -0.00217357 0)
(0.00118128 -0.00333131 0)
(0.00213312 -0.00421838 0)
(0.00322051 -0.00481826 0)
(0.00437065 -0.00513385 0)
(0.00551882 -0.00518403 0)
(0.00660847 -0.00499971 0)
(0.00759227 -0.0046197 0)
(0.00843251 -0.00408676 0)
(0.00910085 -0.00344408 0)
(0.00957744 -0.00273228 0)
(0.00984974 -0.001987 0)
(0.00991096 -0.00123714 0)
(0.00975823 -0.000503727 0)
(0.00939075 0.000200624 0)
(0.00880797 0.000871705 0)
(0.00800785 0.00151324 0)
(0.00698528 0.00213586 0)
(0.00573103 0.00275581 0)
(0.00423082 0.00339322 0)
(0.00246513 0.00407035 0)
(0.000409277 0.00480975 0)
(-0.00196595 0.0056325 0)
(-0.00469331 0.00655693 0)
(-0.0078079 0.0075976 0)
(-0.0113457 0.00876476 0)
(-0.0153423 0.0100643 0)
(-0.0198309 0.0114977 0)
(-0.0248414 0.0130625 0)
(-0.0303985 0.0147524 0)
(-0.0365201 0.0165572 0)
(-0.0432161 0.0184629 0)
(-0.0504864 0.0204516 0)
(-0.0583198 0.0225013 0)
(-0.066693 0.0245859 0)
(-0.0755701 0.0266753 0)
(-0.0849023 0.0287364 0)
(-0.0946289 0.0307335 0)
(-0.104678 0.0326294 0)
(-0.114971 0.034387 0)
(-0.12542 0.0359707 0)
(-0.135936 0.0373472 0)
(-0.14643 0.0384874 0)
(-0.156813 0.0393669 0)
(-0.167002 0.0399665 0)
(-0.176921 0.040273 0)
(-0.186502 0.0402785 0)
(-0.195685 0.0399806 0)
(-0.204418 0.0393816 0)
(-0.212661 0.0384876 0)
(-0.220379 0.0373082 0)
(-0.227545 0.0358555 0)
(-0.234139 0.0341433 0)
(-0.240147 0.0321867 0)
(-0.245557 0.0300013 0)
(-0.250363 0.027603 0)
(-0.25456 0.0250075 0)
(-0.258144 0.0222302 0)
(-0.261114 0.0192861 0)
(-0.263469 0.0161897 0)
(-0.265207 0.0129552 0)
(-0.266326 0.00959647 0)
(-0.266825 0.00612726 0)
(-0.2667 0.00256215 0)
(-0.265947 -0.00108358 0)
(-0.264566 -0.0047958 0)
(-0.262553 -0.00855966 0)
(-0.259904 -0.0123565 0)
(-0.256615 -0.0161672 0)
(-0.252682 -0.0199702 0)
(-0.248103 -0.023742 0)
(-0.242877 -0.0274566 0)
(-0.237004 -0.0310852 0)
(-0.230489 -0.0345966 0)
(-0.223337 -0.0379568 0)
(-0.21556 -0.0411295 0)
(-0.207173 -0.0440764 0)
(-0.198198 -0.0467577 0)
(-0.188663 -0.0491331 0)
(-0.178602 -0.0511624 0)
(-0.168059 -0.0528069 0)
(-0.157084 -0.0540306 0)
(-0.145737 -0.0548016 0)
(-0.134087 -0.0550938 0)
(-0.122207 -0.0548879 0)
(-0.110183 -0.0541732 0)
(-0.0981029 -0.0529484 0)
(-0.0860601 -0.0512228 0)
(-0.0741511 -0.0490163 0)
(-0.062473 -0.0463596 0)
(-0.051121 -0.043294 0)
(-0.0401868 -0.03987 0)
(-0.0297563 -0.0361461 0)
(-0.0199074 -0.0321872 0)
(-0.0107095 -0.0280627 0)
(-0.0022211 -0.0238439 0)
(0.00550925 -0.0196032 0)
(0.0124449 -0.015411 0)
(0.0185601 -0.011334 0)
(0.0238397 -0.00743512 0)
(0.0282804 -0.00376973 0)
(0.0318894 -0.000386343 0)
(0.034686 0.00267342 0)
(0.0366985 0.00537942 0)
(0.0379649 0.00771194 0)
(0.0385341 0.00966106 0)
(0.0384642 0.0112274 0)
(0.0378205 0.012422 0)
(0.0366743 0.0132649 0)
(0.0351006 0.0137845 0)
(0.0331759 0.0140155 0)
(0.0309756 0.0139968 0)
(0.0285721 0.0137697 0)
(0.0260322 0.0133757 0)
(0.023416 0.0128541 0)
(0.0207761 0.0122398 0)
(0.0181571 0.0115614 0)
(0.0155963 0.0108393 0)
(0.0131248 0.0100834 0)
(0.0107687 0.00929252 0)
(0.00855232 0.00845345 0)
(0.00649987 0.00754229 0)
(0.0046391 0.00652716 0)
(0.0030043 0.00537341 0)
(0.00164203 0.00405152 0)
(0.000625829 0.00254842 0)
(4.85066e-05 0.000883695 0)
(3.62153e-05 -0.00102241 0)
(0.000478778 -0.00277665 0)
(0.00124701 -0.0041989 0)
(0.00223743 -0.00526099 0)
(0.00335351 -0.00595495 0)
(0.00451467 -0.00629223 0)
(0.00565077 -0.00630087 0)
(0.00670191 -0.00602161 0)
(0.00761898 -0.00550337 0)
(0.00836359 -0.00479884 0)
(0.00890728 -0.00396033 0)
(0.00923021 -0.00303639 0)
(0.00931958 -0.00206899 0)
(0.0091677 -0.00109156 0)
(0.00876995 -0.000127718 0)
(0.00812276 0.000809214 0)
(0.00722172 0.0017162 0)
(0.00605983 0.00259971 0)
(0.00462604 0.00347443 0)
(0.00290436 0.00436152 0)
(0.000873264 0.00528654 0)
(-0.0014942 0.00627703 0)
(-0.00422987 0.00736026 0)
(-0.00736948 0.0085611 0)
(-0.0109511 0.00990033 0)
(-0.0150135 0.0113934 0)
(-0.0195945 0.01305 0)
(-0.0247288 0.0148735 0)
(-0.0304463 0.0168613 0)
(-0.0367702 0.0190053 0)
(-0.043715 0.0212914 0)
(-0.051285 0.0237002 0)
(-0.0594721 0.0262068 0)
(-0.0682551 0.028781 0)
(-0.0775983 0.0313872 0)
(-0.0874518 0.0339856 0)
(-0.0977516 0.0365325 0)
(-0.108421 0.0389821 0)
(-0.119374 0.0412877 0)
(-0.130517 0.0434041 0)
(-0.141753 0.0452888 0)
(-0.152983 0.046904 0)
(-0.164114 0.048218 0)
(-0.175057 0.0492057 0)
(-0.185731 0.0498493 0)
(-0.196065 0.0501383 0)
(-0.206001 0.0500689 0)
(-0.215487 0.0496434 0)
(-0.224484 0.0488693 0)
(-0.232962 0.0477579 0)
(-0.2409 0.0463241 0)
(-0.248281 0.0445846 0)
(-0.255095 0.0425575 0)
(-0.261337 0.0402616 0)
(-0.267005 0.0377154 0)
(-0.272098 0.0349375 0)
(-0.276617 0.0319455 0)
(-0.280564 0.0287561 0)
(-0.28394 0.0253852 0)
(-0.286747 0.0218478 0)
(-0.288985 0.0181581 0)
(-0.290655 0.0143293 0)
(-0.291754 0.0103747 0)
(-0.29228 0.00630722 0)
(-0.292228 0.00214065 0)
(-0.291594 -0.00211136 0)
(-0.290374 -0.00643657 0)
(-0.288561 -0.0108179 0)
(-0.286147 -0.0152383 0)
(-0.283125 -0.0196784 0)
(-0.279484 -0.0241168 0)
(-0.275218 -0.0285288 0)
(-0.270318 -0.0328874 0)
(-0.264778 -0.0371617 0)
(-0.258594 -0.0413179 0)
(-0.251762 -0.0453186 0)
(-0.244284 -0.0491233 0)
(-0.236165 -0.0526886 0)
(-0.227415 -0.0559688 0)
(-0.218051 -0.0589165 0)
(-0.208097 -0.061484 0)
(-0.197585 -0.0636242 0)
(-0.186555 -0.0652921 0)
(-0.175059 -0.0664469 0)
(-0.163157 -0.0670533 0)
(-0.150919 -0.0670836 0)
(-0.138425 -0.0665192 0)
(-0.125765 -0.0653527 0)
(-0.113034 -0.0635884 0)
(-0.100334 -0.0612439 0)
(-0.0877677 -0.0583494 0)
(-0.0754407 -0.0549483 0)
(-0.0634551 -0.0510956 0)
(-0.0519081 -0.0468565 0)
(-0.0408893 -0.0423043 0)
(-0.0304791 -0.0375182 0)
(-0.0207463 -0.0325805 0)
(-0.0117485 -0.0275748 0)
(-0.00353014 -0.0225824 0)
(0.00387492 -0.0176817 0)
(0.0104451 -0.0129458 0)
(0.0161705 -0.00844106 0)
(0.0210501 -0.00422602 0)
(0.0250932 -0.00035079 0)
(0.0283192 0.00314315 0)
(0.0307558 0.00622588 0)
(0.0324395 0.00887847 0)
(0.0334163 0.0110928 0)
(0.0337406 0.0128722 0)
(0.033474 0.0142307 0)
(0.0326843 0.0151926 0)
(0.0314431 0.0157904 0)
(0.0298246 0.0160639 0)
(0.0279022 0.016057 0)
(0.0257473 0.0158158 0)
(0.0234268 0.015386 0)
(0.0210018 0.0148096 0)
(0.0185267 0.0141228 0)
(0.0160489 0.0133526 0)
(0.0136097 0.0125149 0)
(0.0112454 0.0116122 0)
(0.0089888 0.0106329 0)
(0.00687278 0.00955164 0)
(0.0049329 0.00833126 0)
(0.00321136 0.00692745 0)
(0.00176377 0.00529522 0)
(0.000675522 0.00339822 0)
(5.29245e-05 0.0012213 0)
(3.83104e-05 -0.00127325 0)
(0.000498549 -0.00340578 0)
(0.00128937 -0.00509526 0)
(0.00229636 -0.00632455 0)
(0.00341332 -0.00709614 0)
(0.00455244 -0.00743227 0)
(0.00563872 -0.00737235 0)
(0.00660941 -0.00696879 0)
(0.00741419 -0.00628201 0)
(0.00801452 -0.00537543 0)
(0.00838232 -0.00431085 0)
(0.00849811 -0.00314456 0)
(0.00834901 -0.00192433 0)
(0.00792636 -0.000687239 0)
(0.00722349 0.000541516 0)
(0.00623356 0.00174915 0)
(0.00494755 0.00293497 0)
(0.00335265 0.00410927 0)
(0.00143097 0.00529173 0)
(-0.000840959 0.00650908 0)
(-0.00349244 0.00779245 0)
(-0.00655797 0.00917446 0)
(-0.0100761 0.0106864 0)
(-0.0140877 0.0123555 0)
(-0.0186342 0.0142034 0)
(-0.0237551 0.0162441 0)
(-0.0294861 0.0184839 0)
(-0.0358562 0.0209207 0)
(-0.0428861 0.0235446 0)
(-0.0505857 0.0263374 0)
(-0.0589522 0.0292739 0)
(-0.0679686 0.0323212 0)
(-0.0776022 0.0354399 0)
(-0.0878042 0.0385842 0)
(-0.09851 0.0417033 0)
(-0.109641 0.0447426 0)
(-0.121106 0.047646 0)
(-0.132805 0.0503579 0)
(-0.144635 0.0528253 0)
(-0.156489 0.0550005 0)
(-0.168266 0.0568426 0)
(-0.179871 0.0583187 0)
(-0.191218 0.0594051 0)
(-0.202232 0.0600867 0)
(-0.21285 0.0603571 0)
(-0.223023 0.0602175 0)
(-0.232712 0.0596754 0)
(-0.241888 0.0587435 0)
(-0.250531 0.0574387 0)
(-0.258629 0.0557803 0)
(-0.266176 0.0537893 0)
(-0.273169 0.0514876 0)
(-0.279611 0.0488967 0)
(-0.285504 0.0460381 0)
(-0.290853 0.0429318 0)
(-0.295662 0.0395972 0)
(-0.299937 0.0360519 0)
(-0.303683 0.0323125 0)
(-0.306903 0.0283941 0)
(-0.309599 0.0243107 0)
(-0.311774 0.0200753 0)
(-0.313427 0.0157002 0)
(-0.314559 0.0111969 0)
(-0.315164 0.00657742 0)
(-0.31524 0.00185391 0)
(-0.314781 -0.00296109 0)
(-0.313782 -0.00785608 0)
(-0.312235 -0.0128157 0)
(-0.31013 -0.017824 0)
(-0.307455 -0.0228621 0)
(-0.304198 -0.027909 0)
(-0.300347 -0.0329403 0)
(-0.295889 -0.0379283 0)
(-0.290809 -0.0428415 0)
(-0.285095 -0.0476442 0)
(-0.278737 -0.0522968 0)
(-0.271724 -0.0567555 0)
(-0.264049 -0.0609725 0)
(-0.255712 -0.0648967 0)
(-0.246715 -0.0684742 0)
(-0.237069 -0.0716496 0)
(-0.226791 -0.0743669 0)
(-0.215909 -0.0765716 0)
(-0.204461 -0.0782123 0)
(-0.192496 -0.0792428 0)
(-0.180077 -0.0796244 0)
(-0.167276 -0.0793285 0)
(-0.154179 -0.0783379 0)
(-0.140882 -0.0766495 0)
(-0.12749 -0.0742749 0)
(-0.114114 -0.0712416 0)
(-0.100871 -0.0675929 0)
(-0.0878755 -0.0633866 0)
(-0.0752399 -0.058694 0)
(-0.0630703 -0.053597 0)
(-0.0514626 -0.0481853 0)
(-0.0405011 -0.0425537 0)
(-0.0302558 -0.0367983 0)
(-0.0207826 -0.0310135 0)
(-0.0121233 -0.0252906 0)
(-0.00430585 -0.0197134 0)
(0.00265455 -0.0143594 0)
(0.00875295 -0.00929701 0)
(0.0139942 -0.00458518 0)