/*--------------------------------*- C++ -*----------------------------------*\
| =========                 |                                                 |
| \\      /  F ield         | OpenFOAM: The Open Source CFD Toolbox           |
|  \\    /   O peration     | Version:  2406                                  |
|   \\  /    A nd           | Website:  www.openfoam.com                      |
|    \\/     M anipulation  |                                                 |
\*---------------------------------------------------------------------------*/
FoamFile
{
    version     2.0;
    format      ascii;
    arch        "LSB;label=32;scalar=64";
    class       surfaceScalarField;
    location    "6.6";
    object      phi;
}
// * * * * * * * * * * * * * * * * * * * * * * * * * * * * * * * * * * * * * //

dimensions      [0 3 -1 0 0 0 0];

oriented        oriented;

internalField   nonuniform List<scalar> 
28560
(
3.27497e-09
-3.2694e-09
4.97497e-10
2.7776e-09
-1.22911e-08
1.27886e-08
-3.4795e-08
2.2504e-08
-6.5504e-08
3.0709e-08
-1.02662e-07
3.71578e-08
-1.44656e-07
4.19939e-08
-1.90142e-07
4.54859e-08
-2.38058e-07
4.79167e-08
-2.87596e-07
4.95373e-08
-3.38151e-07
5.05558e-08
-3.8929e-07
5.11383e-08
-4.40702e-07
5.14128e-08
-4.92178e-07
5.14759e-08
-5.43577e-07
5.13987e-08
-5.94809e-07
5.12322e-08
-6.45821e-07
5.10117e-08
-6.96582e-07
5.07608e-08
-7.47076e-07
5.04944e-08
-7.97297e-07
5.02208e-08
-8.47241e-07
4.9944e-08
-8.96906e-07
4.96647e-08
-9.46287e-07
4.93816e-08
-9.95379e-07
4.9092e-08
-1.04417e-06
4.87925e-08
-1.09265e-06
4.84791e-08
-1.1408e-06
4.8148e-08
-1.18859e-06
4.7795e-08
-1.23601e-06
4.74161e-08
-1.28302e-06
4.70074e-08
-1.32958e-06
4.65649e-08
-1.37567e-06
4.6085e-08
-1.42123e-06
4.55638e-08
-1.46623e-06
4.49976e-08
-1.51061e-06
4.43829e-08
-1.55433e-06
4.37158e-08
-1.59732e-06
4.29929e-08
-1.63953e-06
4.22105e-08
-1.6809e-06
4.13651e-08
-1.72135e-06
4.04531e-08
-1.76082e-06
3.94711e-08
-1.79924e-06
3.84157e-08
-1.83652e-06
3.72838e-08
-1.87259e-06
3.60722e-08
-1.90737e-06
3.4778e-08
-1.94077e-06
3.33987e-08
-1.9727e-06
3.19318e-08
-2.00308e-06
3.03753e-08
-2.0318e-06
2.87276e-08
-2.05879e-06
2.69872e-08
-2.08394e-06
2.51536e-08
-2.10717e-06
2.32262e-08
-2.12838e-06
2.12055e-08
-2.14747e-06
1.90924e-08
-2.16436e-06
1.68882e-08
-2.17895e-06
1.45954e-08
-2.19117e-06
1.22167e-08
-2.20092e-06
9.75605e-09
-2.20814e-06
7.2178e-09
-2.21275e-06
4.60727e-09
-2.21468e-06
1.93056e-09
-2.21387e-06
-8.05548e-10
-2.21028e-06
-3.59324e-09
-2.20386e-06
-6.42422e-09
-2.19457e-06
-9.28933e-09
-2.18239e-06
-1.21788e-08
-2.16731e-06
-1.50822e-08
-2.14932e-06
-1.79886e-08
-2.12843e-06
-2.08867e-08
-2.10467e-06
-2.37647e-08
-2.07806e-06
-2.66107e-08
-2.04864e-06
-2.94126e-08
-2.01649e-06
-3.21582e-08
-1.98165e-06
-3.48357e-08
-1.94422e-06
-3.74333e-08
-1.90428e-06
-3.99397e-08
-1.86193e-06
-4.23439e-08
-1.8173e-06
-4.46359e-08
-1.77049e-06
-4.6806e-08
-1.72165e-06
-4.88457e-08
-1.6709e-06
-5.07473e-08
-1.61839e-06
-5.25042e-08
-1.56428e-06
-5.41106e-08
-1.50872e-06
-5.55623e-08
-1.45186e-06
-5.68559e-08
-1.39388e-06
-5.79891e-08
-1.33491e-06
-5.89608e-08
-1.27514e-06
-5.9771e-08
-1.21472e-06
-6.04203e-08
-1.15381e-06
-6.09104e-08
-1.09257e-06
-6.12434e-08
-1.03115e-06
-6.14217e-08
-9.697e-07
-6.14479e-08
-9.08376e-07
-6.13244e-08
-8.47323e-07
-6.10531e-08
-7.86688e-07
-6.06349e-08
-7.26619e-07
-6.00693e-08
-6.67264e-07
-5.93544e-08
-6.08778e-07
-5.84857e-08
-5.51322e-07
-5.74565e-08
-4.95065e-07
-5.62566e-08
-4.40192e-07
-5.48728e-08
-3.86905e-07
-5.32878e-08
-3.35424e-07
-5.14804e-08
-2.85999e-07
-4.94254e-08
-2.38905e-07
-4.70935e-08
-1.94453e-07
-4.44521e-08
-1.52987e-07
-4.14658e-08
-1.14889e-07
-3.80982e-08
-8.05747e-08
-3.43146e-08
-5.04887e-08
-3.0086e-08
-2.50923e-08
-2.53963e-08
-4.83881e-09
-2.02535e-08
9.86991e-09
-1.47087e-08
1.87579e-08
-8.888e-09
2.18194e-08
-3.06146e-09
1.94652e-08
2.35421e-09
1.29477e-08
6.51747e-09
5.03028e-09
7.91729e-09
5.03018e-09
-2.82804e-09
-4.41225e-10
-2.29135e-08
2.28629e-08
-6.59913e-08
5.58664e-08
-1.31244e-07
8.77564e-08
-2.15802e-07
1.15267e-07
-3.16135e-07
1.37491e-07
-4.28799e-07
1.54658e-07
-5.50759e-07
1.67446e-07
-6.79498e-07
1.76655e-07
-8.13004e-07
1.83043e-07
-9.49718e-07
1.8727e-07
-1.08846e-06
1.89883e-07
-1.22837e-06
1.91318e-07
-1.36881e-06
1.91914e-07
-1.50933e-06
1.91927e-07
-1.64965e-06
1.91545e-07
-1.78954e-06
1.90904e-07
-1.92888e-06
1.90098e-07
-2.06757e-06
1.89188e-07
-2.20556e-06
1.88213e-07
-2.34281e-06
1.87193e-07
-2.47928e-06
1.86136e-07
-2.61494e-06
1.85042e-07
-2.74976e-06
1.83906e-07
-2.88368e-06
1.82717e-07
-3.01667e-06
1.81465e-07
-3.14866e-06
1.80137e-07
-3.27958e-06
1.78718e-07
-3.40936e-06
1.77196e-07
-3.53791e-06
1.75557e-07
-3.66513e-06
1.73787e-07
-3.79092e-06
1.71874e-07
-3.91516e-06
1.69805e-07
-4.03773e-06
1.67565e-07
-4.15849e-06
1.65143e-07
-4.2773e-06
1.62526e-07
-4.39401e-06
1.59701e-07
-4.50845e-06
1.56655e-07
-4.62046e-06
1.53377e-07
-4.72986e-06
1.49853e-07
-4.83647e-06
1.46073e-07
-4.94008e-06
1.42025e-07
-5.04049e-06
1.37698e-07
-5.1375e-06
1.33081e-07
-5.23089e-06
1.28166e-07
-5.32043e-06
1.22943e-07
-5.4059e-06
1.17405e-07
-5.48707e-06
1.11545e-07
-5.5637e-06
1.0536e-07
-5.63556e-06
9.88435e-08
-5.7024e-06
9.19956e-08
-5.76399e-06
8.48157e-08
-5.82009e-06
7.73058e-08
-5.87047e-06
6.94701e-08
-5.9149e-06
6.1315e-08
-5.95315e-06
5.28494e-08
-5.98502e-06
4.40847e-08
-6.0103e-06
3.50349e-08
-6.0288e-06
2.57167e-08
-6.04034e-06
1.61495e-08
-6.04476e-06
6.35556e-09
-6.04193e-06
-3.64059e-09
-6.03171e-06
-1.3811e-08
-6.01401e-06
-2.4126e-08
-5.98875e-06
-3.45532e-08
-5.95587e-06
-4.50578e-08
-5.91535e-06
-5.56034e-08
-5.86718e-06
-6.61516e-08
-5.81141e-06
-7.66627e-08
-5.74808e-06
-8.70959e-08
-5.67728e-06
-9.74097e-08
-5.59913e-06
-1.07562e-07
-5.51377e-06
-1.17511e-07
-5.42139e-06
-1.27216e-07
-5.32219e-06
-1.36636e-07
-5.2164e-06
-1.45732e-07
-5.10428e-06
-1.54467e-07
-4.98611e-06
-1.62805e-07
-4.8622e-06
-1.70715e-07
-4.73288e-06
-1.78167e-07
-4.59849e-06
-1.85133e-07
-4.4594e-06
-1.91592e-07
-4.31599e-06
-1.97525e-07
-4.16864e-06
-2.02914e-07
-4.01774e-06
-2.0775e-07
-3.86371e-06
-2.12024e-07
-3.70694e-06
-2.15732e-07
-3.54783e-06
-2.18872e-07
-3.38681e-06
-2.21447e-07
-3.22426e-06
-2.23461e-07
-3.06058e-06
-2.24919e-07
-2.89617e-06
-2.2583e-07
-2.73142e-06
-2.262e-07
-2.56671e-06
-2.26036e-07
-2.40242e-06
-2.25341e-07
-2.23894e-06
-2.24116e-07
-2.07665e-06
-2.22356e-07
-1.91596e-06
-2.20051e-07
-1.75726e-06
-2.17182e-07
-1.601e-06
-2.13721e-07
-1.44763e-06
-2.09628e-07
-1.29765e-06
-2.04852e-07
-1.15161e-06
-1.99328e-07
-1.01011e-06
-1.92977e-07
-8.73828e-07
-1.85707e-07
-7.43508e-07
-1.77413e-07
-6.1998e-07
-1.6798e-07
-5.04162e-07
-1.57284e-07
-3.97054e-07
-1.45206e-07
-2.99733e-07
-1.31636e-07
-2.13326e-07
-1.16493e-07
-1.3897e-07
-9.97521e-08
-7.77397e-08
-8.14839e-08
-3.05326e-08
-6.19159e-08
2.10925e-09
-4.15298e-08
2.02572e-08
-2.12094e-08
2.50387e-08
-2.42722e-09
1.92397e-08
1.23166e-08
7.87273e-09
1.92845e-08
1.29029e-08
-1.31782e-08
1.27369e-08
-5.70014e-08
6.66864e-08
-1.32995e-07
1.3186e-07
-2.3933e-07
1.94092e-07
-3.72332e-07
2.48268e-07
-5.27592e-07
2.92751e-07
-7.00704e-07
3.2777e-07
-8.87654e-07
3.54397e-07
-1.085e-06
3.73999e-07
-1.2899e-06
3.87942e-07
-1.50009e-06
3.97458e-07
-1.7138e-06
4.03594e-07
-1.92969e-06
4.0721e-07
-2.14676e-06
4.08984e-07
-2.36427e-06
4.09443e-07
-2.58171e-06
4.08981e-07
-2.79869e-06
4.07887e-07
-3.01496e-06
4.06366e-07
-3.23033e-06
4.04558e-07
-3.44467e-06
4.0255e-07
-3.65787e-06
4.00397e-07
-3.86986e-06
3.98124e-07
-4.08056e-06
3.95737e-07
-4.28988e-06
3.93229e-07
-4.49775e-06
3.90586e-07
-4.70407e-06
3.87788e-07
-4.90874e-06
3.84809e-07
-5.11165e-06
3.81624e-07
-5.31266e-06
3.78207e-07
-5.51164e-06
3.74531e-07
-5.70842e-06
3.7057e-07
-5.90284e-06
3.66295e-07
-6.09471e-06
3.61681e-07
-6.28385e-06
3.56701e-07
-6.47004e-06
3.51329e-07
-6.65305e-06
3.4554e-07
-6.83266e-06
3.39307e-07
-7.00861e-06
3.32605e-07
-7.18064e-06
3.2541e-07
-7.34848e-06
3.17697e-07
-7.51185e-06
3.09442e-07
-7.67045e-06
3.00623e-07
-7.82397e-06
2.91219e-07
-7.9721e-06
2.81209e-07
-8.11451e-06
2.70575e-07
-8.25087e-06
2.59301e-07
-8.38084e-06
2.47372e-07
-8.50407e-06
2.34776e-07
-8.62021e-06
2.21506e-07
-8.72892e-06
2.07554e-07
-8.82985e-06
1.92919e-07
-8.92263e-06
1.77603e-07
-9.00694e-06
1.61611e-07
-9.08242e-06
1.44954e-07
-9.14875e-06
1.27647e-07
-9.20561e-06
1.09709e-07
-9.2527e-06
9.11664e-08
-9.28971e-06
7.20487e-08
-9.31638e-06
5.2392e-08
-9.33247e-06
3.22373e-08
-9.33775e-06
1.16313e-08
-9.33201e-06
-9.3739e-09
-9.3151e-06
-3.07213e-08
-9.28688e-06
-5.23486e-08
-9.24725e-06
-7.41891e-08
-9.19613e-06
-9.61717e-08
-9.13351e-06
-1.18222e-07
-9.0594e-06
-1.40261e-07
-8.97386e-06
-1.62208e-07
-8.87697e-06
-1.83981e-07
-8.76889e-06
-2.05495e-07
-8.64979e-06
-2.26666e-07
-8.51989e-06
-2.4741e-07
-8.37946e-06
-2.67643e-07
-8.22881e-06
-2.87285e-07
-8.06829e-06
-3.06257e-07
-7.89827e-06
-3.24484e-07
-7.71918e-06
-3.41898e-07
-7.53146e-06
-3.58432e-07
-7.3356e-06
-3.74029e-07
-7.1321e-06
-3.88634e-07
-6.92149e-06
-4.02204e-07
-6.70431e-06
-4.14698e-07
-6.48114e-06
-4.26088e-07
-6.25254e-06
-4.36348e-07
-6.0191e-06
-4.45464e-07
-5.78141e-06
-4.53426e-07
-5.54005e-06
-4.60231e-07
-5.29561e-06
-4.65882e-07
-5.04869e-06
-4.70387e-07
-4.79985e-06
-4.73756e-07
-4.54968e-06
-4.76001e-07
-4.29874e-06
-4.77135e-07
-4.04761e-06
-4.77167e-07
-3.79685e-06
-4.76102e-07
-3.54703e-06
-4.73936e-07
-3.29873e-06
-4.70657e-07
-3.05255e-06
-4.66237e-07
-2.8091e-06
-4.60632e-07
-2.56904e-06
-4.53779e-07
-2.33307e-06
-4.45593e-07
-2.10196e-06
-4.35962e-07
-1.87654e-06
-4.24749e-07
-1.65773e-06
-4.11789e-07
-1.44655e-06
-3.96889e-07
-1.24413e-06
-3.79835e-07
-1.05172e-06
-3.60391e-07
-8.70683e-07
-3.38317e-07
-7.0251e-07
-3.13379e-07
-5.48768e-07
-2.85378e-07
-4.11079e-07
-2.54182e-07
-2.91043e-07
-2.19788e-07
-1.90131e-07
-1.82396e-07
-1.09519e-07
-1.42528e-07
-4.98506e-08
-1.01198e-07
-1.09173e-08
-6.01428e-08
8.81424e-09
-2.21589e-08
1.27013e-08
8.42944e-09
6.565e-09
2.54209e-08
1.94678e-08
-2.37167e-08
3.64537e-08
-9.15789e-08
1.34548e-07
-2.00267e-07
2.40547e-07
-3.45753e-07
3.39578e-07
-5.2321e-07
4.25725e-07
-7.27476e-07
4.97017e-07
-9.53516e-07
5.5381e-07
-1.19673e-06
5.97607e-07
-1.45309e-06
6.30366e-07
-1.71925e-06
6.54094e-07
-1.99243e-06
6.70645e-07
-2.27047e-06
6.81628e-07
-2.55164e-06
6.88385e-07
-2.83466e-06
6.91999e-07
-3.11853e-06
6.93318e-07
-3.40254e-06
6.9299e-07
-3.68615e-06
6.91498e-07
-3.96897e-06
6.89189e-07
-4.25072e-06
6.86306e-07
-4.53118e-06
6.83009e-07
-4.81018e-06
6.79397e-07
-5.08758e-06
6.75521e-07
-5.36324e-06
6.71402e-07
-5.63705e-06
6.67037e-07
-5.90887e-06
6.62407e-07
-6.17857e-06
6.57482e-07
-6.44598e-06
6.52227e-07
-6.71096e-06
6.46603e-07
-6.97332e-06
6.40567e-07
-7.23287e-06
6.34078e-07
-7.48939e-06
6.27091e-07
-7.74266e-06
6.19565e-07
-7.99243e-06
6.11455e-07
-8.23845e-06
6.02719e-07
-8.48044e-06
5.93316e-07
-8.7181e-06
5.83202e-07
-8.95113e-06
5.72336e-07
-9.1792e-06
5.60678e-07
-9.40198e-06
5.48187e-07
-9.61911e-06
5.34825e-07
-9.83022e-06
5.20554e-07
-1.00349e-05
5.05339e-07
-1.02329e-05
4.89144e-07
-1.04236e-05
4.71941e-07
-1.06067e-05
4.53699e-07
-1.07818e-05
4.34393e-07
-1.09484e-05
4.14003e-07
-1.11062e-05
3.92512e-07
-1.12546e-05
3.69907e-07
-1.13932e-05
3.46181e-07
-1.15216e-05
3.21334e-07
-1.16394e-05
2.95372e-07
-1.17461e-05
2.68306e-07
-1.18413e-05
2.40156e-07
-1.19246e-05
2.1095e-07
-1.19956e-05
1.80723e-07
-1.2054e-05
1.49519e-07
-1.20993e-05
1.1739e-07
-1.21313e-05
8.43969e-08
-1.21497e-05
5.06094e-08
-1.21541e-05
1.61061e-08
-1.21445e-05
-1.90264e-08
-1.21205e-05
-5.46928e-08
-1.20821e-05
-9.07904e-08
-1.20291e-05
-1.27209e-07
-1.19614e-05
-1.63832e-07
-1.18791e-05
-2.00537e-07
-1.17822e-05
-2.37196e-07
-1.16707e-05
-2.73677e-07
-1.15448e-05
-3.09847e-07
-1.14047e-05
-3.45569e-07
-1.12507e-05
-3.80706e-07
-1.1083e-05
-4.15123e-07
-1.09019e-05
-4.48686e-07
-1.0708e-05
-4.81265e-07
-1.05015e-05
-5.12735e-07
-1.0283e-05
-5.42976e-07
-1.0053e-05
-5.71876e-07
-9.81212e-06
-5.99333e-07
-9.56089e-06
-6.25253e-07
-9.29998e-06
-6.49551e-07
-9.03002e-06
-6.72156e-07
-8.75171e-06
-6.93007e-07
-8.46575e-06
-7.12055e-07
-8.17283e-06
-7.29263e-07
-7.87369e-06
-7.44605e-07
-7.56905e-06
-7.58066e-07
-7.25964e-06
-7.69643e-07
-6.94618e-06
-7.79339e-07
-6.62941e-06
-7.87164e-07
-6.31003e-06
-7.93134e-07
-5.98876e-06
-7.97266e-07
-5.66632e-06
-7.99577e-07
-5.34341e-06
-8.00078e-07
-5.02074e-06
-7.98773e-07
-4.69902e-06
-7.95651e-07
-4.379e-06
-7.90684e-07
-4.06141e-06
-7.83824e-07
-3.74705e-06
-7.74991e-07
-3.43675e-06
-7.64076e-07
-3.13141e-06
-7.50933e-07
-2.832e-06
-7.35374e-07
-2.53958e-06
-7.1717e-07
-2.25532e-06
-6.96047e-07
-1.98052e-06
-6.7169e-07
-1.71661e-06
-6.43749e-07
-1.46515e-06
-6.11849e-07
-1.22786e-06
-5.7561e-07
-1.00656e-06
-5.34672e-07
-8.03197e-07
-4.88743e-07
-6.19724e-07
-4.37656e-07
-4.58054e-07
-3.81457e-07
-3.19916e-07
-3.20534e-07
-2.06664e-07
-2.55781e-07
-1.19025e-07
-1.88837e-07
-5.67728e-08
-1.22395e-07
-1.83205e-08
-6.06111e-08
-3.08368e-10
-9.58279e-09
2.87139e-09
2.22411e-08
2.23392e-08
-3.32671e-08
6.97207e-08
-1.23491e-07
2.24772e-07
-2.62855e-07
3.79912e-07
-4.44725e-07
5.21448e-07
-6.62793e-07
6.43792e-07
-9.11043e-07
7.45268e-07
-1.18388e-06
8.2665e-07
-1.47628e-06
8.90005e-07
-1.78385e-06
9.37938e-07
-2.10289e-06
9.73127e-07
-2.43031e-06
9.98072e-07
-2.76366e-06
1.01497e-06
-3.10096e-06
1.02568e-06
-3.44068e-06
1.03172e-06
-3.78166e-06
1.03429e-06
-4.12299e-06
1.03433e-06
-4.46402e-06
1.03252e-06
-4.80422e-06
1.0294e-06
-5.14323e-06
1.02531e-06
-5.48073e-06
1.02052e-06
-5.8165e-06
1.01516e-06
-6.15032e-06
1.00934e-06
-6.48202e-06
1.0031e-06
-6.81141e-06
9.96425e-07
-7.13831e-06
9.8931e-07
-7.46254e-06
9.81714e-07
-7.7839e-06
9.73591e-07
-8.10219e-06
9.64888e-07
-8.41717e-06
9.55545e-07
-8.72859e-06
9.45504e-07
-9.03621e-06
9.34704e-07
-9.33972e-06
9.23082e-07
-9.63885e-06
9.10579e-07
-9.93326e-06
8.97132e-07
-1.02226e-05
8.8268e-07
-1.05066e-05
8.67165e-07
-1.07848e-05
8.50526e-07
-1.10568e-05
8.32705e-07
-1.13223e-05
8.13645e-07
-1.15807e-05
7.93293e-07
-1.18318e-05
7.71594e-07
-1.20749e-05
7.48498e-07
-1.23097e-05
7.23959e-07
-1.25357e-05
6.97933e-07
-1.27524e-05
6.70382e-07
-1.29593e-05
6.41272e-07
-1.31559e-05
6.10574e-07
-1.33416e-05
5.78269e-07
-1.35161e-05
5.44341e-07
-1.36787e-05
5.08783e-07
-1.38289e-05
4.716e-07
-1.39664e-05
4.32802e-07
-1.40905e-05
3.92411e-07
-1.42008e-05
3.50459e-07
-1.42968e-05
3.0699e-07
-1.43781e-05
2.6206e-07
-1.44444e-05
2.15735e-07
-1.44951e-05
1.68094e-07
-1.45299e-05
1.1923e-07
-1.45485e-05
6.92466e-08
-1.45507e-05
1.82601e-08
-1.45361e-05
-3.36011e-08
-1.45046e-05
-8.61972e-08
-1.4456e-05
-1.39378e-07
-1.43902e-05
-1.92981e-07
-1.43072e-05
-2.46839e-07
-1.4207e-05
-3.00773e-07
-1.40896e-05
-3.54598e-07
-1.39552e-05
-4.08124e-07
-1.38038e-05
-4.6116e-07
-1.36359e-05
-5.13509e-07
-1.34516e-05
-5.64975e-07
-1.32514e-05
-6.15365e-07
-1.30356e-05
-6.64488e-07
-1.28047e-05
-7.1216e-07
-1.25592e-05
-7.58202e-07
-1.22998e-05
-8.02445e-07
-1.20269e-05
-8.44732e-07
-1.17413e-05
-8.84917e-07
-1.14437e-05
-9.22868e-07
-1.11348e-05
-9.58466e-07
-1.08153e-05
-9.91612e-07
-1.04861e-05
-1.02222e-06
-1.0148e-05
-1.05022e-06
-9.80165e-06
-1.07556e-06
-9.44804e-06
-1.09821e-06
-9.08796e-06
-1.11815e-06
-8.72223e-06
-1.13537e-06
-8.3517e-06
-1.14987e-06
-7.97719e-06
-1.16167e-06
-7.59953e-06
-1.17079e-06
-7.21954e-06
-1.17726e-06
-6.83804e-06
-1.18108e-06
-6.45583e-06
-1.18228e-06
-6.07375e-06
-1.18086e-06
-5.69261e-06
-1.17679e-06
-5.31326e-06
-1.17003e-06
-4.93659e-06
-1.1605e-06
-4.5635e-06
-1.14808e-06
-4.19497e-06
-1.1326e-06
-3.83205e-06
-1.11386e-06
-3.47586e-06
-1.09156e-06
-3.12765e-06
-1.06538e-06
-2.78877e-06
-1.03492e-06
-2.46074e-06
-9.99728e-07
-2.14519e-06
-9.59299e-07
-1.84393e-06
-9.13108e-07
-1.55891e-06
-8.60625e-07
-1.29222e-06
-8.01362e-07
-1.04603e-06
-7.34936e-07
-8.22527e-07
-6.61156e-07
-6.23839e-07
-5.80145e-07
-4.51865e-07
-4.92508e-07
-3.08097e-07
-3.99549e-07
-1.93374e-07
-3.0356e-07
-1.07586e-07
-2.08184e-07
-4.93479e-08
-1.18849e-07
-1.56721e-08
-4.32586e-08
-1.60661e-09
8.17566e-09
2.07326e-08
-4.15286e-08
1.11249e-07
-1.51663e-07
3.34906e-07
-3.18791e-07
5.4704e-07
-5.33704e-07
7.36361e-07
-7.88481e-07
8.9857e-07
-1.07614e-06
1.03292e-06
-1.39049e-06
1.141e-06
-1.72612e-06
1.22563e-06
-2.07835e-06
1.29018e-06
-2.44325e-06
1.33803e-06
-2.81754e-06
1.37236e-06
-3.19855e-06
1.39598e-06
-3.58414e-06
1.41128e-06
-3.97263e-06
1.42021e-06
-4.36269e-06
1.42435e-06
-4.7533e-06
1.42494e-06
-5.14368e-06
1.4229e-06
-5.53322e-06
1.41894e-06
-5.92146e-06
1.41355e-06
-6.30803e-06
1.40708e-06
-6.6926e-06
1.39974e-06
-7.07493e-06
1.39167e-06
-7.45476e-06
1.38293e-06
-7.83188e-06
1.37354e-06
-8.20605e-06
1.36348e-06
-8.57705e-06
1.35271e-06
-8.94462e-06
1.34116e-06
-9.30851e-06
1.32878e-06
-9.66845e-06
1.31549e-06
-1.00242e-05
1.3012e-06
-1.03753e-05
1.28585e-06
-1.07216e-05
1.26934e-06
-1.10626e-05
1.25161e-06
-1.1398e-05
1.23256e-06
-1.17274e-05
1.21211e-06
-1.20505e-05
1.1902e-06
-1.23667e-05
1.16673e-06
-1.26756e-05
1.14164e-06
-1.29768e-05
1.11484e-06
-1.32698e-05
1.08627e-06
-1.35541e-05
1.05586e-06
-1.38291e-05
1.02354e-06
-1.40944e-05
9.89246e-07
-1.43494e-05
9.52932e-07
-1.45936e-05
9.14545e-07
-1.48263e-05
8.74043e-07
-1.50471e-05
8.31394e-07
-1.52554e-05
7.86572e-07
-1.54507e-05
7.39563e-07
-1.56322e-05
6.90362e-07
-1.57996e-05
6.38978e-07
-1.59523e-05
5.85432e-07
-1.60896e-05
5.29757e-07
-1.62111e-05
4.72002e-07
-1.63164e-05
4.12231e-07
-1.64049e-05
3.50523e-07
-1.64761e-05
2.86972e-07
-1.65297e-05
2.21689e-07
-1.65653e-05
1.54803e-07
-1.65825e-05
8.64572e-08
-1.6581e-05
1.68114e-08
-1.65607e-05
-5.39589e-08
-1.65212e-05
-1.25663e-07
-1.64625e-05
-1.98097e-07
-1.63844e-05
-2.71043e-07
-1.6287e-05
-3.44272e-07
-1.61702e-05
-4.17545e-07
-1.60342e-05
-4.90616e-07
-1.58791e-05
-5.6323e-07
-1.57051e-05
-6.35129e-07
-1.55126e-05
-7.06054e-07
-1.53018e-05
-7.75744e-07
-1.50732e-05
-8.43944e-07
-1.48273e-05
-9.104e-07
-1.45646e-05
-9.7487e-07
-1.42857e-05
-1.03712e-06
-1.39912e-05
-1.09692e-06
-1.36819e-05
-1.15408e-06
-1.33584e-05
-1.20839e-06
-1.30216e-05
-1.25969e-06
-1.26722e-05
-1.30783e-06
-1.23112e-05
-1.35266e-06
-1.19393e-05
-1.39409e-06
-1.15575e-05
-1.43203e-06
-1.11666e-05
-1.4664e-06
-1.07677e-05
-1.49716e-06
-1.03615e-05
-1.5243e-06
-9.94912e-06
-1.54779e-06
-9.53133e-06
-1.56766e-06
-9.1091e-06
-1.58391e-06
-8.68332e-06
-1.59657e-06
-8.2549e-06
-1.60567e-06
-7.82474e-06
-1.61124e-06
-7.39374e-06
-1.61329e-06
-6.9628e-06
-1.6118e-06
-6.53282e-06
-1.60676e-06
-6.10476e-06
-1.59809e-06
-5.67957e-06
-1.58569e-06
-5.25827e-06
-1.56938e-06
-4.84194e-06
-1.54894e-06
-4.43173e-06
-1.52407e-06
-4.02889e-06
-1.4944e-06
-3.63479e-06
-1.45948e-06
-3.25094e-06
-1.41878e-06
-2.87897e-06
-1.3717e-06
-2.52069e-06
-1.31758e-06
-2.17807e-06
-1.25573e-06
-1.85323e-06
-1.18547e-06
-1.5484e-06
-1.10619e-06
-1.26593e-06
-1.01741e-06
-1.00816e-06
-9.18927e-07
-7.77351e-07
-8.10956e-07
-5.75533e-07
-6.94327e-07
-4.04328e-07
-5.70754e-07
-2.64727e-07
-4.43161e-07
-1.56835e-07
-3.16076e-07
-7.96116e-08
-1.96072e-07
-3.06306e-08
-9.22396e-08
-5.90196e-09
-1.6553e-08
1.48307e-08
-4.85383e-08
1.59788e-07
-1.75995e-07
4.62363e-07
-3.67683e-07
7.38728e-07
-6.12068e-07
9.80746e-07
-8.99641e-07
1.18614e-06
-1.2224e-06
1.35568e-06
-1.57352e-06
1.49212e-06
-1.94719e-06
1.5993e-06
-2.33849e-06
1.68147e-06
-2.74328e-06
1.74282e-06
-3.15816e-06
1.78723e-06
-3.58031e-06
1.81814e-06
-4.0075e-06
1.83846e-06
-4.43791e-06
1.85062e-06
-4.87012e-06
1.85657e-06
-5.30304e-06
1.85785e-06
-5.73577e-06
1.85564e-06
-6.16765e-06
1.85082e-06
-6.59812e-06
1.84403e-06
-7.02675e-06
1.83571e-06
-7.45317e-06
1.82616e-06
-7.87707e-06
1.81556e-06
-8.29814e-06
1.80401e-06
-8.71612e-06
1.79152e-06
-9.13073e-06
1.77809e-06
-9.54169e-06
1.76367e-06
-9.94872e-06
1.74819e-06
-1.03515e-05
1.73158e-06
-1.07498e-05
1.71374e-06
-1.11431e-05
1.69457e-06
-1.15313e-05
1.67397e-06
-1.19138e-05
1.65186e-06
-1.22903e-05
1.62811e-06
-1.26604e-05
1.60264e-06
-1.30236e-05
1.57534e-06
-1.33795e-05
1.54611e-06
-1.37276e-05
1.51485e-06
-1.40674e-05
1.48147e-06
-1.43985e-05
1.44588e-06
-1.47202e-05
1.40797e-06
-1.5032e-05
1.36768e-06
-1.53334e-05
1.32492e-06
-1.56237e-05
1.27961e-06
-1.59025e-05
1.23169e-06
-1.61691e-05
1.1811e-06
-1.64228e-05
1.1278e-06
-1.66631e-05
1.07173e-06
-1.68895e-05
1.01289e-06
-1.71011e-05
9.51244e-07
-1.72976e-05
8.86806e-07
-1.74782e-05
8.19588e-07
-1.76424e-05
7.49622e-07
-1.77896e-05
6.76958e-07
-1.79192e-05
6.01663e-07
-1.80308e-05
5.23825e-07
-1.81239e-05
4.4355e-07
-1.81979e-05
3.60965e-07
-1.82524e-05
2.76217e-07
-1.82871e-05
1.89474e-07
-1.83015e-05
1.00925e-07
-1.82955e-05
1.0778e-08
-1.82687e-05
-8.07398e-08
-1.8221e-05
-1.73382e-07
-1.81522e-05
-2.66885e-07
-1.80623e-05
-3.6097e-07
-1.79512e-05
-4.55344e-07
-1.7819e-05
-5.49702e-07
-1.76659e-05
-6.43728e-07
-1.74921e-05
-7.371e-07
-1.72977e-05
-8.29492e-07
-1.70832e-05
-9.20573e-07
-1.68489e-05
-1.01002e-06
-1.65954e-05
-1.0975e-06
-1.63231e-05
-1.1827e-06
-1.60326e-05
-1.26532e-06
-1.57247e-05
-1.34506e-06
-1.53999e-05
-1.42165e-06
-1.50592e-05
-1.49482e-06
-1.47032e-05
-1.56434e-06
-1.43329e-05
-1.63e-06
-1.39492e-05
-1.6916e-06
-1.35528e-05
-1.74899e-06
-1.31449e-05
-1.80203e-06
-1.27263e-05
-1.85061e-06
-1.22981e-05
-1.89465e-06
-1.18611e-05
-1.9341e-06
-1.14165e-05
-1.96893e-06
-1.09652e-05
-1.99913e-06
-1.05081e-05
-2.02472e-06
-1.00463e-05
-2.04571e-06
-9.58072e-06
-2.06215e-06
-9.11234e-06
-2.07406e-06
-8.64211e-06
-2.08147e-06
-8.171e-06
-2.08439e-06
-7.69998e-06
-2.08283e-06
-7.23003e-06
-2.07672e-06
-6.76214e-06
-2.06598e-06
-6.29735e-06
-2.05047e-06
-5.83675e-06
-2.02998e-06
-5.38149e-06
-2.00419e-06
-4.93281e-06
-1.97275e-06
-4.49204e-06
-1.93517e-06
-4.06063e-06
-1.89089e-06
-3.64018e-06
-1.83922e-06
-3.23244e-06
-1.77944e-06
-2.83931e-06
-1.71071e-06
-2.46285e-06
-1.63218e-06
-2.1053e-06
-1.54302e-06
-1.769e-06
-1.44249e-06
-1.45638e-06
-1.33003e-06
-1.16989e-06
-1.20542e-06
-9.11887e-07
-1.06896e-06
-6.84518e-07
-9.21696e-07
-4.89534e-07
-7.65738e-07
-3.28107e-07
-6.04588e-07
-2.00616e-07
-4.43567e-07
-1.06439e-07
-2.90248e-07
-4.37929e-08
-1.54886e-07
-9.64627e-09
-5.06997e-08
5.18439e-09
-5.44425e-08
2.1423e-07
-1.96784e-07
6.04704e-07
-4.09879e-07
9.51823e-07
-6.80194e-07
1.25106e-06
-9.96755e-07
1.5027e-06
-1.35055e-06
1.70948e-06
-1.73412e-06
1.87568e-06
-2.14123e-06
2.00641e-06
-2.5667e-06
2.10694e-06
-3.00623e-06
2.18236e-06
-3.4563e-06
2.2373e-06
-3.91401e-06
2.27585e-06
-4.37704e-06
2.30149e-06
-4.84351e-06
2.31709e-06
-5.31193e-06
2.32499e-06
-5.78113e-06
2.32705e-06
-6.25017e-06
2.32467e-06
-6.7183e-06
2.31895e-06
-7.18493e-06
2.31066e-06
-7.64956e-06
2.30034e-06
-8.11178e-06
2.28838e-06
-8.57122e-06
2.275e-06
-9.02754e-06
2.26032e-06
-9.48042e-06
2.2444e-06
-9.92954e-06
2.22721e-06
-1.03746e-05
2.20872e-06
-1.08152e-05
2.18885e-06
-1.12512e-05
2.16749e-06
-1.1682e-05
2.14455e-06
-1.21073e-05
2.11992e-06
-1.25268e-05
2.09346e-06
-1.294e-05
2.06506e-06
-1.33465e-05
2.03461e-06
-1.37458e-05
2.00197e-06
-1.41375e-05
1.96702e-06
-1.45211e-05
1.92964e-06
-1.48959e-05
1.88972e-06
-1.52616e-05
1.84714e-06
-1.56175e-05
1.80179e-06
-1.59631e-05
1.75355e-06
-1.62977e-05
1.70233e-06
-1.66209e-05
1.64804e-06
-1.69318e-05
1.59059e-06
-1.723e-05
1.52989e-06
-1.75148e-05
1.46589e-06
-1.77855e-05
1.39852e-06
-1.80416e-05
1.32775e-06
-1.82822e-05
1.25355e-06
-1.85069e-05
1.17591e-06
-1.87149e-05
1.09483e-06
-1.89057e-05
1.01035e-06
-1.90786e-05
9.22501e-07
-1.9233e-05
8.31359e-07
-1.93683e-05
7.37014e-07
-1.94841e-05
6.39578e-07
-1.95797e-05
5.39189e-07
-1.96547e-05
4.3601e-07
-1.97088e-05
3.30227e-07
-1.97413e-05
2.22054e-07
-1.97521e-05
1.11726e-07
-1.97409e-05
-4.94175e-10
-1.97073e-05
-1.14324e-07
-1.96512e-05
-2.29456e-07
-1.95725e-05
-3.45564e-07
-1.94712e-05
-4.62303e-07
-1.93472e-05
-5.7931e-07
-1.92007e-05
-6.9621e-07
-1.90318e-05
-8.12617e-07
-1.88408e-05
-9.28134e-07
-1.86279e-05
-1.04236e-06
-1.83936e-05
-1.1549e-06
-1.81383e-05
-1.26534e-06
-1.78625e-05
-1.3733e-06
-1.75668e-05
-1.47839e-06
-1.72519e-05
-1.58024e-06
-1.69184e-05
-1.6785e-06
-1.65673e-05
-1.77282e-06
-1.61992e-05
-1.86291e-06
-1.5815e-05
-1.94846e-06
-1.54158e-05
-2.02924e-06
-1.50024e-05
-2.10501e-06
-1.45758e-05
-2.17558e-06
-1.4137e-05
-2.24079e-06
-1.36871e-05
-2.30051e-06
-1.32271e-05
-2.35466e-06
-1.27581e-05
-2.40317e-06
-1.2281e-05
-2.446e-06
-1.1797e-05
-2.48316e-06
-1.1307e-05
-2.51466e-06
-1.08122e-05
-2.54054e-06
-1.03135e-05
-2.56082e-06
-9.81202e-06
-2.57556e-06
-9.3087e-06
-2.58478e-06
-8.80458e-06
-2.58851e-06
-8.30067e-06
-2.58673e-06
-7.798e-06
-2.57939e-06
-7.29762e-06
-2.56636e-06
-6.80063e-06
-2.54747e-06
-6.30815e-06
-2.52246e-06
-5.82139e-06
-2.49095e-06
-5.34163e-06
-2.4525e-06
-4.87028e-06
-2.40653e-06
-4.40883e-06
-2.35233e-06
-3.95895e-06
-2.28911e-06
-3.52244e-06
-2.21596e-06
-3.10125e-06
-2.13189e-06
-2.69753e-06
-2.0359e-06
-2.31355e-06
-1.927e-06
-1.95173e-06
-1.80431e-06
-1.61456e-06
-1.6672e-06
-1.30455e-06
-1.51543e-06
-1.02413e-06
-1.34937e-06
-7.75556e-07
-1.17027e-06
-5.60703e-07
-9.8059e-07
-3.80946e-07
-7.84345e-07
-2.36953e-07
-5.87559e-07
-1.28529e-07
-3.98672e-07
-5.44918e-08
-2.28924e-07
-1.26281e-08
-9.25635e-08
-7.44368e-09
-5.94067e-08
2.73637e-07
-2.1445e-07
7.59748e-07
-4.46028e-07
1.1834e-06
-7.38929e-07
1.54396e-06
-1.08088e-06
1.84466e-06
-1.46194e-06
2.09053e-06
-1.874e-06
2.28774e-06
-2.31041e-06
2.44283e-06
-2.76574e-06
2.56227e-06
-3.23553e-06
2.65215e-06
-3.71613e-06
2.7179e-06
-4.20459e-06
2.76431e-06
-4.69852e-06
2.79542e-06
-5.19601e-06
2.81457e-06
-5.69551e-06
2.8245e-06
-6.19582e-06
2.82735e-06
-6.69595e-06
2.8248e-06
-7.19511e-06
2.81811e-06
-7.69267e-06
2.80821e-06
-8.18807e-06
2.79575e-06
-8.68088e-06
2.78118e-06
-9.17067e-06
2.76479e-06
-9.65707e-06
2.74672e-06
-1.01397e-05
2.72705e-06
-1.06183e-05
2.70576e-06
-1.10924e-05
2.68282e-06
-1.15616e-05
2.65812e-06
-1.20257e-05
2.63158e-06
-1.24842e-05
2.60305e-06
-1.29367e-05
2.57242e-06
-1.33828e-05
2.53954e-06
-1.3822e-05
2.50427e-06
-1.42539e-05
2.46646e-06
-1.46779e-05
2.42598e-06
-1.50935e-05
2.38268e-06
-1.55003e-05
2.33642e-06
-1.58976e-05
2.28706e-06
-1.6285e-05
2.23446e-06
-1.66617e-05
2.17849e-06
-1.70271e-05
2.11903e-06
-1.73808e-05
2.05596e-06
-1.77219e-05
1.98917e-06
-1.80499e-05
1.91857e-06
-1.8364e-05
1.84406e-06
-1.86637e-05
1.76557e-06
-1.89482e-05
1.68304e-06
-1.92169e-05
1.59642e-06
-1.94691e-05
1.5057e-06
-1.9704e-05
1.41085e-06
-1.99211e-05
1.31191e-06
-2.01196e-05
1.20891e-06
-2.0299e-05
1.1019e-06
-2.04587e-05
9.90986e-07
-2.05979e-05
8.76273e-07
-2.07163e-05
7.57907e-07
-2.08131e-05
6.36059e-07
-2.08881e-05
5.10931e-07
-2.09406e-05
3.82753e-07
-2.09703e-05
2.51786e-07
-2.09769e-05
1.18318e-07
-2.09601e-05
-1.73319e-08
-2.09196e-05
-1.54821e-07
-2.08552e-05
-2.93777e-07
-2.0767e-05
-4.33808e-07
-2.06548e-05
-5.74497e-07
-2.05187e-05
-7.15409e-07
-2.03588e-05
-8.56095e-07
-2.01753e-05
-9.96092e-07
-1.99686e-05
-1.13493e-06
-1.97388e-05
-1.27212e-06
-1.94865e-05
-1.4072e-06
-1.92121e-05
-1.53969e-06
-1.89163e-05
-1.66912e-06
-1.85997e-05
-1.79504e-06
-1.82629e-05
-1.91701e-06
-1.79068e-05
-2.0346e-06
-1.75322e-05
-2.14743e-06
-1.714e-05
-2.25513e-06
-1.67311e-05
-2.35737e-06
-1.63064e-05
-2.45385e-06
-1.58672e-05
-2.5443e-06
-1.54142e-05
-2.6285e-06
-1.49487e-05
-2.70628e-06
-1.44718e-05
-2.77748e-06
-1.39844e-05
-2.842e-06
-1.34878e-05
-2.89978e-06
-1.29831e-05
-2.95077e-06
-1.24712e-05
-2.99499e-06
-1.19534e-05
-3.03245e-06
-1.14308e-05
-3.06319e-06
-1.09043e-05
-3.08727e-06
-1.03752e-05
-3.10473e-06
-9.84432e-06
-3.11563e-06
-9.31286e-06
-3.11998e-06
-8.78184e-06
-3.11776e-06
-8.25232e-06
-3.1089e-06
-7.72541e-06
-3.09328e-06
-7.20221e-06
-3.07067e-06
-6.68391e-06
-3.04076e-06
-6.17174e-06
-3.00313e-06
-5.66701e-06
-2.95723e-06
-5.17116e-06
-2.90238e-06
-4.68573e-06
-2.83776e-06
-4.2124e-06
-2.76244e-06
-3.75301e-06
-2.67535e-06
-3.30956e-06
-2.57535e-06
-2.8842e-06
-2.46126e-06
-2.47924e-06
-2.33195e-06
-2.09714e-06
-2.18642e-06
-1.74041e-06
-2.02393e-06
-1.41162e-06
-1.84422e-06
-1.11326e-06
-1.64773e-06
-8.47667e-07
-1.43587e-06
-6.16852e-07
-1.21141e-06
-4.22381e-07
-9.78816e-07
-2.65198e-07
-7.44742e-07
-1.45486e-07
-5.18384e-07
-6.25586e-08
-3.11851e-07
-1.48164e-08
-1.40306e-07
-2.22601e-08
-6.35813e-08
3.37218e-07
-2.29423e-07
9.25589e-07
-4.76859e-07
1.43084e-06
-7.89289e-07
1.85639e-06
-1.15332e-06
2.20869e-06
-1.55817e-06
2.49539e-06
-1.99513e-06
2.7247e-06
-2.45715e-06
2.90484e-06
-2.93851e-06
3.04364e-06
-3.43461e-06
3.14824e-06
-3.94169e-06
3.22499e-06
-4.45675e-06
3.27936e-06
-4.97734e-06
3.31601e-06
-5.50152e-06
3.33875e-06
-6.02773e-06
3.35071e-06
-6.55471e-06
3.35434e-06
-7.08147e-06
3.35156e-06
-7.60718e-06
3.34382e-06
-8.13117e-06
3.3322e-06
-8.65288e-06
3.31745e-06
-9.1718e-06
3.30011e-06
-9.6875e-06
3.28049e-06
-1.01996e-05
3.25879e-06
-1.07076e-05
3.2351e-06
-1.12113e-05
3.20941e-06
-1.17101e-05
3.18167e-06
-1.22038e-05
3.15178e-06
-1.26918e-05
3.11964e-06
-1.31739e-05
3.0851e-06
-1.36495e-05
3.04801e-06
-1.41181e-05
3.00821e-06
-1.45794e-05
2.96553e-06
-1.50328e-05
2.91983e-06
-1.54777e-05
2.87092e-06
-1.59137e-05
2.81864e-06
-1.63401e-05
2.76284e-06
-1.67564e-05
2.70335e-06
-1.71619e-05
2.64001e-06
-1.75561e-05
2.57268e-06
-1.79383e-05
2.50121e-06
-1.83078e-05
2.42548e-06
-1.8664e-05
2.34535e-06
-1.90062e-05
2.26072e-06
-1.93336e-05
2.17148e-06
-1.96456e-05
2.07757e-06
-1.99415e-05
1.9789e-06
-2.02205e-05
1.87545e-06
-2.0482e-05
1.76717e-06
-2.07252e-05
1.65408e-06
-2.09495e-05
1.5362e-06
-2.11541e-05
1.41358e-06
-2.13385e-05
1.2863e-06
-2.1502e-05
1.15447e-06
-2.1644e-05
1.01824e-06
-2.17639e-05
8.77776e-07
-2.18611e-05
7.33292e-07
-2.19352e-05
5.8503e-07
-2.19857e-05
4.33266e-07
-2.20122e-05
2.78312e-07
-2.20144e-05
1.20512e-07
-2.1992e-05
-3.97567e-08
-2.19447e-05
-2.02085e-07
-2.18725e-05
-3.66035e-07
-2.17751e-05
-5.31143e-07
-2.16527e-05
-6.96917e-07
-2.15053e-05
-8.62848e-07
-2.1333e-05
-1.02841e-06
-2.1136e-05
-1.19305e-06
-2.09147e-05
-1.35622e-06
-2.06695e-05
-1.51738e-06
-2.04007e-05
-1.67594e-06
-2.0109e-05
-1.83138e-06
-1.9795e-05
-1.98313e-06
-1.94594e-05
-2.13067e-06
-1.91029e-05
-2.2735e-06
-1.87264e-05
-2.41113e-06
-1.83307e-05