/*--------------------------------*- C++ -*----------------------------------*\
| =========                 |                                                 |
| \\      /  F ield         | OpenFOAM: The Open Source CFD Toolbox           |
|  \\    /   O peration     | Version:  2406                                  |
|   \\  /    A nd           | Website:  www.openfoam.com                      |
|    \\/     M anipulation  |                                                 |
\*---------------------------------------------------------------------------*/
FoamFile
{
    version     2.0;
    format      ascii;
    arch        "LSB;label=32;scalar=64";
    class       volVectorField;
    location    "21.4";
    object      Uold;
}
// * * * * * * * * * * * * * * * * * * * * * * * * * * * * * * * * * * * * * //

dimensions      [0 1 -1 0 0 0 0];

internalField   nonuniform List<vector> 
3600
(
(2.75126e-05 -2.70108e-05 0)
(0.000227039 -9.08107e-05 0)
(0.00053477 -0.000108937 0)
(0.000821927 -0.000100737 0)
(0.00108306 -8.36083e-05 0)
(0.00127421 -6.44093e-05 0)
(0.00141666 -4.71263e-05 0)
(0.00149109 -2.91131e-05 0)
(0.00150783 -1.13891e-05 0)
(0.00145167 8.517e-06 0)
(0.00132293 2.89963e-05 0)
(0.00111065 5.14323e-05 0)
(0.000810977 7.4555e-05 0)
(0.000415534 9.99243e-05 0)
(-8.38512e-05 0.000127401 0)
(-0.000697411 0.000158868 0)
(-0.00143843 0.000194565 0)
(-0.00231904 0.000235619 0)
(-0.00335252 0.000281335 0)
(-0.00454551 0.000331094 0)
(-0.00590044 0.000382442 0)
(-0.00740648 0.000432528 0)
(-0.00904193 0.00047675 0)
(-0.0107659 0.000509962 0)
(-0.0125216 0.000525673 0)
(-0.0142311 0.000517318 0)
(-0.0158015 0.000478068 0)
(-0.0171252 0.000402415 0)
(-0.0180904 0.000286603 0)
(-0.0185863 0.000130444 0)
(-0.0185176 -6.21851e-05 0)
(-0.0178115 -0.000282163 0)
(-0.0164324 -0.00051565 0)
(-0.0143855 -0.000744428 0)
(-0.0117278 -0.000947967 0)
(-0.00856289 -0.00110534 0)
(-0.00504476 -0.00119837 0)
(-0.00135938 -0.00121425 0)
(0.00227982 -0.0011483 0)
(0.00566352 -0.00100549 0)
(0.00859442 -0.000800449 0)
(0.0109251 -0.000555992 0)
(0.0125558 -0.000298925 0)
(0.0134657 -5.61982e-05 0)
(0.0136861 0.000150908 0)
(0.0133186 0.000308494 0)
(0.0124823 0.000412864 0)
(0.0113309 0.000466966 0)
(0.00998797 0.000480436 0)
(0.00858517 0.000463363 0)
(0.00719349 0.000427972 0)
(0.00589273 0.000382262 0)
(0.00469273 0.000335728 0)
(0.00363192 0.00029093 0)
(0.0026788 0.000253994 0)
(0.00185779 0.000218766 0)
(0.00113418 0.000186246 0)
(0.00055712 0.000133856 0)
(0.000146156 6.51604e-05 0)
(-2.90485e-05 -3.05563e-05 0)
(9.47846e-05 -0.000228728 0)
(0.000492414 -0.0004858 0)
(0.00103491 -0.000545828 0)
(0.00151948 -0.000490029 0)
(0.00193453 -0.000392612 0)
(0.00220894 -0.00027562 0)
(0.00236294 -0.000158848 0)
(0.00236132 -3.04447e-05 0)
(0.00220574 0.000105103 0)
(0.00186337 0.000259081 0)
(0.00131836 0.00042586 0)
(0.000540561 0.000611519 0)
(-0.000493255 0.000811495 0)
(-0.0018107 0.00103158 0)
(-0.00344007 0.00127083 0)
(-0.005409 0.00153472 0)
(-0.0077465 0.00182146 0)
(-0.0104721 0.00213021 0)
(-0.0135976 0.00245133 0)
(-0.0171116 0.00277247 0)
(-0.0209811 0.00307248 0)
(-0.0251368 0.00332664 0)
(-0.0294778 0.00350354 0)
(-0.0338628 0.00357063 0)
(-0.0381216 0.00349399 0)
(-0.0420559 0.00324481 0)
(-0.0454579 0.002801 0)
(-0.0481179 0.00215344 0)
(-0.0498458 0.00130714 0)
(-0.0504781 0.000285025 0)
(-0.0498969 -0.000873513 0)
(-0.0480323 -0.00211208 0)
(-0.0448765 -0.00336176 0)
(-0.0404809 -0.00454352 0)
(-0.0349656 -0.00557539 0)
(-0.0285099 -0.00637738 0)
(-0.0213574 -0.00688086 0)
(-0.0137952 -0.00703512 0)
(-0.00615379 -0.00681674 0)
(0.00122924 -0.00623426 0)
(0.00801369 -0.00533199 0)
(0.0139072 -0.00418711 0)
(0.0186654 -0.00290173 0)
(0.0221464 -0.00159023 0)
(0.0242882 -0.000361532 0)
(0.0251534 0.00069457 0)
(0.024868 0.00152178 0)
(0.0236547 0.00209763 0)
(0.0217358 0.00243494 0)
(0.0193773 0.0025668 0)
(0.0167739 0.0025433 0)
(0.0141334 0.00241145 0)
(0.0115512 0.00222139 0)
(0.00914892 0.00200251 0)
(0.00692781 0.00178606 0)
(0.00496094 0.00156246 0)
(0.00321535 0.00133422 0)
(0.00178886 0.00103229 0)
(0.000692481 0.000660246 0)
(7.92344e-05 0.00015405 0)
(0.000117069 -0.000545097 0)
(0.000551993 -0.00102692 0)
(0.0011063 -0.00111256 0)
(0.00155256 -0.000961487 0)
(0.00188141 -0.000728666 0)
(0.00201789 -0.000447751 0)
(0.00197417 -0.000157623 0)
(0.00170411 0.000169065 0)
(0.00119009 0.00052622 0)
(0.000381188 0.000938216 0)
(-0.000763078 0.00139655 0)
(-0.00229424 0.00191361 0)
(-0.0042613 0.00248157 0)
(-0.00671321 0.00311021 0)
(-0.00970057 0.00379586 0)
(-0.0132651 0.0045433 0)
(-0.0174438 0.00534099 0)
(-0.0222484 0.0061739 0)
(-0.0276678 0.00700686 0)
(-0.0336458 0.00779532 0)
(-0.0400866 0.00847701 0)
(-0.0468388 0.00898353 0)
(-0.0537107 0.00923919 0)
(-0.0604674 0.0091742 0)
(-0.0668558 0.00872791 0)
(-0.0726109 0.00786079 0)
(-0.0774823 0.00655638 0)
(-0.0812387 0.00482796 0)
(-0.0836881 0.00271593 0)
(-0.0846756 0.000289466 0)
(-0.0840973 -0.00235923 0)
(-0.081895 -0.0051156 0)
(-0.0780674 -0.00785002 0)
(-0.0726649 -0.0104202 0)
(-0.0658012 -0.0126809 0)
(-0.0576466 -0.0144893 0)
(-0.0484395 -0.0157191 0)
(-0.0384711 -0.0162695 0)
(-0.0280935 -0.016082 0)
(-0.0176878 -0.0151486 0)
(-0.00766474 -0.0135239 0)
(0.00158717 -0.011323 0)
(0.00970412 -0.00871658 0)
(0.0164118 -0.00591205 0)
(0.0215131 -0.00312863 0)
(0.0249503 -0.000569279 0)
(0.0267554 0.00160726 0)
(0.0271001 0.00330158 0)
(0.0261988 0.00448309 0)
(0.0243584 0.00517832 0)
(0.0218436 0.00546181 0)
(0.018959 0.00542652 0)
(0.0158933 0.00517792 0)
(0.0128642 0.00479722 0)
(0.00993937 0.00435721 0)
(0.0072621 0.00386633 0)
(0.00482418 0.00332802 0)
(0.00278213 0.00264202 0)
(0.0011412 0.00177992 0)
(0.000171592 0.000613163 0)
(0.000111674 -0.000839119 0)
(0.000474412 -0.00148316 0)
(0.00087594 -0.00153334 0)
(0.00110952 -0.0012344 0)
(0.00117265 -0.000822771 0)
(0.00100024 -0.000331468 0)
(0.000589097 0.000189026 0)
(-0.000118965 0.000789049 0)
(-0.00117095 0.00146408 0)
(-0.00263963 0.00225398 0)
(-0.00459789 0.00314805 0)
(-0.00712161 0.00416526 0)
(-0.0102905 0.00529358 0)
(-0.0141752 0.00654405 0)
(-0.0188475 0.00790441 0)
(-0.0243552 0.00936878 0)
(-0.0307295 0.0109013 0)
(-0.0379532 0.0124546 0)
(-0.0459675 0.0139479 0)
(-0.0546461 0.0152858 0)
(-0.0638121 0.0163516 0)
(-0.0732283 0.0170285 0)
(-0.0826269 0.0172031 0)
(-0.0917137 0.0167855 0)
(-0.1002 0.0157123 0)
(-0.107807 0.0139584 0)
(-0.114284 0.0115333 0)
(-0.11941 0.00848431 0)
(-0.123003 0.00488895 0)
(-0.12491 0.000856047 0)
(-0.125021 -0.00348169 0)
(-0.12326 -0.00796646 0)
(-0.119596 -0.0124224 0)
(-0.11404 -0.0166557 0)
(-0.106662 -0.0204644 0)
(-0.0975853 -0.0236433 0)
(-0.0870088 -0.026001 0)
(-0.075196 -0.0273715 0)
(-0.0624923 -0.0276379 0)
(-0.0493004 -0.0267477 0)
(-0.0360846 -0.0247336 0)
(-0.023321 -0.0217183 0)
(-0.011489 -0.0179152 0)
(-0.000999134 -0.0136072 0)
(0.00780776 -0.00911849 0)
(0.0147354 -0.00477259 0)
(0.0196929 -0.000852238 0)
(0.0227562 0.00243271 0)
(0.0240756 0.0049658 0)
(0.023935 0.00672297 0)
(0.0226123 0.00776376 0)
(0.0204648 0.00820082 0)
(0.0177514 0.00818091 0)
(0.0147816 0.00783994 0)
(0.0117009 0.00729996 0)
(0.00873912 0.00660847 0)
(0.00593253 0.00577891 0)
(0.00350795 0.00470051 0)
(0.00148247 0.00328021 0)
(0.00024221 0.00128956 0)
(9.00666e-05 -0.00109481 0)
(0.000307009 -0.00180635 0)
(0.000445362 -0.00174199 0)
(0.00034942 -0.00123544 0)
(2.17596e-05 -0.000595113 0)
(-0.000585461 0.000161614 0)
(-0.00150069 0.000984151 0)
(-0.00279679 0.0019547 0)
(-0.00456117 0.00307449 0)
(-0.00689255 0.00440083 0)
(-0.0099041 0.00592103 0)
(-0.013698 0.00765956 0)
(-0.0183877 0.00959756 0)
(-0.0240619 0.0117411 0)
(-0.0308071 0.0140588 0)
(-0.0386619 0.0165176 0)
(-0.047632 0.0190364 0)
(-0.0576465 0.0215121 0)
(-0.0685772 0.023798 0)
(-0.0802132 0.0257344 0)
(-0.0922965 0.0271476 0)
(-0.104518 0.027882 0)
(-0.116558 0.0278048 0)
(-0.128092 0.0268274 0)
(-0.138818 0.0249017 0)
(-0.148452 0.0220286 0)
(-0.156752 0.0182473 0)
(-0.163498 0.0136378 0)
(-0.168512 0.00831007 0)
(-0.171641 0.00240628 0)
(-0.172767 -0.00390717 0)
(-0.171795 -0.010436 0)
(-0.168666 -0.0169645 0)
(-0.163348 -0.0232523 0)
(-0.155857 -0.0290434 0)
(-0.146254 -0.0340683 0)
(-0.13467 -0.038062 0)
(-0.121311 -0.0407769 0)
(-0.106479 -0.0420129 0)
(-0.0905691 -0.0416397 0)
(-0.0740784 -0.0396321 0)
(-0.0575655 -0.0360849 0)
(-0.0416389 -0.0312276 0)
(-0.0268728 -0.0254062 0)
(-0.0137844 -0.0190529 0)
(-0.00273765 -0.0126288 0)
(0.00603745 -0.00656748 0)
(0.0125138 -0.0012193 0)
(0.0167748 0.0031802 0)
(0.0190701 0.00652385 0)
(0.0196712 0.00882231 0)
(0.0189596 0.0101806 0)
(0.0172391 0.0107642 0)
(0.0148898 0.0107562 0)
(0.0121278 0.0103252 0)
(0.00926778 0.00957134 0)
(0.00640485 0.0085232 0)
(0.00384365 0.00707613 0)
(0.00163826 0.00505394 0)
(0.000270191 0.00211324 0)
(5.81789e-05 -0.00123236 0)
(7.01391e-05 -0.00185381 0)
(-0.000147404 -0.00157051 0)
(-0.000671972 -0.000790458 0)
(-0.00149871 0.000129869 0)
(-0.00265477 0.00121008 0)
(-0.00420725 0.00241645 0)
(-0.00624892 0.00387194 0)
(-0.00891954 0.00558733 0)
(-0.0123476 0.00763679 0)
(-0.016693 0.0100037 0)
(-0.0220834 0.0127137 0)
(-0.0286643 0.0157343 0)
(-0.0365324 0.0190546 0)
(-0.0457727 0.0226059 0)
(-0.0563891 0.0263045 0)
(-0.0683332 0.0299999 0)
(-0.081451 0.0335127 0)
(-0.0955241 0.0366198 0)
(-0.110247 0.0390989 0)
(-0.125283 0.0407336 0)
(-0.140258 0.0413498 0)
(-0.154814 0.0408165 0)
(-0.1686 0.0390637 0)
(-0.181313 0.0360717 0)
(-0.192677 0.0318761 0)
(-0.202475 0.0265525 0)
(-0.210522 0.0202164 0)
(-0.216677 0.0130099 0)
(-0.220822 0.00510336 0)
(-0.222869 -0.00331381 0)
(-0.222734 -0.0120267 0)
(-0.220349 -0.0207996 0)
(-0.215646 -0.0293676 0)
(-0.208579 -0.0374418 0)
(-0.199116 -0.0447048 0)
(-0.18728 -0.0508258 0)
(-0.173153 -0.0554696 0)
(-0.156921 -0.0583303 0)
(-0.138889 -0.0591595 0)
(-0.119514 -0.057817 0)
(-0.0993839 -0.0543051 0)
(-0.0792204 -0.0488083 0)
(-0.0597891 -0.0416919 0)
(-0.0418503 -0.0334829 0)
(-0.0260243 -0.0247982 0)
(-0.01276 -0.0162638 0)
(-0.00223861 -0.00842003 0)
(0.00554304 -0.00166557 0)
(0.0108095 0.00377616 0)
(0.0138421 0.0078401 0)
(0.015052 0.0106016 0)
(0.0147851 0.0122228 0)
(0.013479 0.0129194 0)
(0.011413 0.0128959 0)
(0.0089769 0.0123065 0)
(0.00633183 0.0111975 0)
(0.00385478 0.00947851 0)
(0.00165402 0.00688757 0)
(0.000271968 0.00296852 0)
(1.7557e-05 -0.00125744 0)
(-0.000225026 -0.0016088 0)
(-0.000872529 -0.000990283 0)
(-0.00190445 0.000135797 0)
(-0.0033203 0.00139845 0)
(-0.00512834 0.00288055 0)
(-0.00745006 0.00458425 0)
(-0.010404 0.00668094 0)
(-0.014193 0.00919295 0)
(-0.0189764 0.0122079 0)
(-0.024963 0.0157007 0)
(-0.0322995 0.0196895 0)
(-0.0411538 0.0241155 0)
(-0.0516094 0.0289303 0)
(-0.0637223 0.0340019 0)
(-0.0774261 0.0391671 0)
(-0.0925835 0.0441804 0)
(-0.108927 0.0487716 0)
(-0.126127 0.0526391 0)
(-0.14377 0.0555082 0)
(-0.161437 0.0571364 0)
(-0.178689 0.0573519 0)
(-0.195138 0.0560469 0)
(-0.21043 0.0531923 0)
(-0.224291 0.0488195 0)
(-0.236503 0.0430196 0)
(-0.246926 0.0359209 0)
(-0.255462 0.0276844 0)
(-0.262065 0.0184859 0)
(-0.266697 0.00851679 0)
(-0.269339 -0.0020252 0)
(-0.269948 -0.0129264 0)
(-0.26847 -0.0239591 0)
(-0.264815 -0.0348656 0)
(-0.258875 -0.0453581 0)
(-0.250514 -0.0551043 0)
(-0.239607 -0.063734 0)
(-0.226054 -0.07084 0)
(-0.209839 -0.076006 0)
(-0.191058 -0.078836 0)
(-0.169997 -0.079015 0)
(-0.147144 -0.0763657 0)
(-0.123228 -0.0709229 0)
(-0.0991599 -0.0629728 0)
(-0.0759795 -0.0530716 0)
(-0.0546795 -0.0419841 0)
(-0.0360933 -0.0305829 0)
(-0.0207165 -0.0196916 0)
(-0.00872569 -0.0099688 0)
(5.12715e-05 -0.00182244 0)
(0.00593373 0.00457069 0)
(0.00940426 0.00924412 0)
(0.010888 0.012351 0)
(0.0108962 0.0141364 0)
(0.00977932 0.0148355 0)
(0.00799672 0.0146553 0)
(0.00577986 0.0136609 0)
(0.00356883 0.0117812 0)
(0.00153415 0.00868091 0)
(0.000246468 0.00380695 0)
(-3.46208e-05 -0.00110266 0)
(-0.000586151 -0.000957194 0)
(-0.00173946 0.000128384 0)
(-0.0033583 0.00168103 0)
(-0.0054565 0.00336077 0)
(-0.00802866 0.00534541 0)
(-0.0112674 0.00769252 0)
(-0.0153224 0.0106262 0)
(-0.020467 0.0141782 0)
(-0.0268879 0.0184412 0)
(-0.0348384 0.0233715 0)
(-0.0444693 0.0289639 0)
(-0.0559491 0.0351116 0)
(-0.0693127 0.0416981 0)
(-0.0845452 0.0484954 0)
(-0.101462 0.0552295 0)
(-0.119793 0.0615411 0)
(-0.139121 0.067063 0)
(-0.158983 0.0714241 0)
(-0.178846 0.0743173 0)
(-0.198211 0.0755037 0)
(-0.216602 0.0748492 0)
(-0.233643 0.0723099 0)
(-0.249039 0.067938 0)
(-0.262616 0.0618503 0)
(-0.274281 0.0542185 0)
(-0.284033 0.0452363 0)
(-0.291912 0.0351117 0)
(-0.298001 0.0240447 0)
(-0.302377 0.0122307 0)
(-0.30511 -0.000148471 0)
(-0.306224 -0.0129102 0)
(-0.305705 -0.0258697 0)
(-0.303465 -0.0388176 0)
(-0.299359 -0.0515131 0)
(-0.293168 -0.0636592 0)
(-0.284626 -0.0748978 0)
(-0.273431 -0.0847957 0)
(-0.259304 -0.0928589 0)
(-0.242035 -0.0985495 0)
(-0.221578 -0.101344 0)
(-0.19812 -0.100801 0)
(-0.172176 -0.0966703 0)
(-0.144602 -0.0889848 0)
(-0.116596 -0.0781549 0)
(-0.0895355 -0.0649719 0)
(-0.0648045 -0.0505364 0)
(-0.0434854 -0.0360543 0)
(-0.0262111 -0.0226144 0)
(-0.0130434 -0.0109757 0)
(-0.00367402 -0.00153174 0)
(0.00248801 0.00567147 0)
(0.0060177 0.0107789 0)
(0.00755633 0.0140786 0)
(0.00756589 0.0158473 0)
(0.00658972 0.0163505 0)
(0.00494058 0.0156786 0)
(0.00311423 0.0137832 0)
(0.0013463 0.0102786 0)
(0.000211063 0.00454497 0)
(-9.85566e-05 -0.000766524 0)
(-0.00101132 0.000118901 0)
(-0.0027405 0.00180939 0)
(-0.00501903 0.00387589 0)
(-0.00788936 0.00606545 0)
(-0.0113403 0.00868484 0)
(-0.0156522 0.0118644 0)
(-0.0210073 0.0158793 0)
(-0.0277514 0.0207634 0)
(-0.036087 0.0265998 0)
(-0.0462982 0.0333097 0)
(-0.0585112 0.0408387 0)
(-0.0728584 0.0489989 0)
(-0.089275 0.0575649 0)
(-0.107621 0.0661738 0)
(-0.127538 0.0744117 0)
(-0.148581 0.0817933 0)
(-0.170152 0.0878608 0)
(-0.191648 0.0921983 0)
(-0.212433 0.0945064 0)
(-0.23198 0.0946025 0)
(-0.249844 0.0924486 0)
(-0.265749 0.0881198 0)
(-0.279543 0.0817926 0)
(-0.291224 0.0736969 0)
(-0.300872 0.0640956 0)
(-0.308659 0.0532453 0)
(-0.314771 0.0413884 0)
(-0.319422 0.0287321 0)
(-0.322792 0.0154557 0)
(-0.32504 0.00170488 0)
(-0.326258 -0.0123903 0)
(-0.326487 -0.0267121 0)
(-0.325675 -0.041129 0)
(-0.323693 -0.055485 0)
(-0.320297 -0.0695683 0)
(-0.315154 -0.0830952 0)
(-0.307819 -0.0956799 0)
(-0.297789 -0.106827 0)
(-0.28453 -0.115925 0)
(-0.267582 -0.12228 0)
(-0.246654 -0.125173 0)
(-0.221776 -0.123972 0)
(-0.193415 -0.118276 0)
(-0.162581 -0.108086 0)
(-0.130785 -0.0939345 0)
(-0.0998971 -0.0769339 0)
(-0.0717857 -0.0586289 0)
(-0.047937 -0.0407013 0)
(-0.0290747 -0.024547 0)
(-0.0151746 -0.0110396 0)
(-0.00560946 -0.00044832 0)
(0.000405018 0.00733059 0)
(0.0037317 0.0126539 0)
(0.00502471 0.0158764 0)
(0.0049601 0.0173499 0)
(0.00395965 0.017213 0)
(0.00258168 0.0154526 0)
(0.00112898 0.0116632 0)
(0.000171943 0.0051866 0)
(-0.000178846 -0.000176888 0)
(-0.00151344 0.00173198 0)
(-0.00389416 0.00417626 0)
(-0.00691047 0.00685532 0)
(-0.0106505 0.00967096 0)
(-0.0151056 0.0130932 0)
(-0.0206567 0.0173364 0)
(-0.0275146 0.0227169 0)
(-0.0360905 0.0292548 0)
(-0.0465822 0.037 0)
(-0.0592776 0.0458115 0)
(-0.0742353 0.0555469 0)
(-0.0914986 0.0658921 0)
(-0.110839 0.0764654 0)
(-0.131929 0.0867325 0)
(-0.154187 0.0961213 0)
(-0.176964 0.104028 0)
(-0.199485 0.109937 0)
(-0.221044 0.113445 0)
(-0.240985 0.114334 0)
(-0.258855 0.112558 0)
(-0.274352 0.108246 0)
(-0.287403 0.101641 0)
(-0.298067 0.0930675 0)
(-0.306555 0.0828693 0)
(-0.313126 0.0713845 0)
(-0.3181 0.0589063 0)
(-0.321773 0.0456834 0)
(-0.324441 0.0319036 0)
(-0.32634 0.0177101 0)
(-0.327675 0.00319791 0)
(-0.328581 -0.0115642 0)
(-0.329147 -0.0265313 0)
(-0.329376 -0.0416577 0)
(-0.329201 -0.0568873 0)
(-0.328439 -0.0721224 0)
(-0.326796 -0.0872028 0)
(-0.323825 -0.101865 0)
(-0.31894 -0.115713 0)
(-0.311411 -0.128181 0)
(-0.300436 -0.138527 0)
(-0.285219 -0.145848 0)
(-0.265149 -0.149164 0)
(-0.239984 -0.14755 0)
(-0.210081 -0.14037 0)
(-0.176548 -0.127516 0)
(-0.141288 -0.109663 0)
(-0.106757 -0.0883265 0)
(-0.0755012 -0.0656858 0)
(-0.0494598 -0.0440279 0)
(-0.029504 -0.0251573 0)
(-0.0153445 -0.00995052 0)
(-0.00606245 0.00147653 0)
(-0.000493307 0.00953718 0)
(0.00232476 0.0147166 0)
(0.00329148 0.0175136 0)
(0.0029943 0.0181625 0)
(0.00208371 0.016716 0)
(0.000940419 0.0127865 0)
(0.000142966 0.00570973 0)
(-0.000274142 0.000676108 0)
(-0.00208571 0.00390323 0)
(-0.00518595 0.00725181 0)
(-0.00901023 0.0106499 0)
(-0.0137118 0.0142305 0)
(-0.0192915 0.0186564 0)
(-0.0262378 0.0242292 0)
(-0.0347778 0.0312849 0)
(-0.0453707 0.0398059 0)
(-0.0581766 0.0497752 0)
(-0.0734463 0.0609507 0)
(-0.0911125 0.0730498 0)
(-0.111065 0.0855782 0)
(-0.132844 0.0979496 0)
(-0.155888 0.109434 0)
(-0.179365 0.119307 0)
(-0.202445 0.12689 0)
(-0.224242 0.131682 0)
(-0.244062 0.133394 0)
(-0.261366 0.131989 0)
(-0.27591 0.127643 0)
(-0.287647 0.120698 0)
(-0.296769 0.11158 0)
(-0.303564 0.100744 0)
(-0.30843 0.0886094 0)
(-0.31175 0.075544 0)
(-0.313917 0.0618326 0)
(-0.315255 0.0476924 0)
(-0.316058 0.0332671 0)
(-0.316544 0.0186508 0)
(-0.316904 0.0038883 0)
(-0.317264 -0.011002 0)
(-0.317733 -0.0260293 0)
(-0.318358 -0.0412107 0)
(-0.319154 -0.0565692 0)
(-0.32005 -0.0721095 0)
(-0.320894 -0.0878031 0)
(-0.321382 -0.103548 0)
(-0.321046 -0.119127 0)
(-0.319198 -0.134152 0)
(-0.314937 -0.148008 0)
(-0.307173 -0.159813 0)
(-0.29475 -0.168425 0)
(-0.276631 -0.172519 0)
(-0.252202 -0.17078 0)
(-0.221585 -0.162206 0)
(-0.185955 -0.14652 0)
(-0.147618 -0.124531 0)
(-0.109777 -0.0983255 0)
(-0.0757793 -0.0709102 0)
(-0.0481375 -0.0454146 0)
(-0.0277248 -0.0239987 0)
(-0.0139292 -0.0075092 0)
(-0.00533762 0.00434426 0)
(-0.000567985 0.0122004 0)
(0.00163286 0.0167952 0)
(0.00211163 0.0185429 0)
(0.00167423 0.0176225 0)
(0.000805661 0.0137116 0)
(0.00012807 0.00616634 0)
(-0.000388685 0.00186906 0)
(-0.00273667 0.00674395 0)
(-0.00662422 0.0111563 0)
(-0.0113263 0.0153949 0)
(-0.0170795 0.0199077 0)
(-0.0238969 0.0255713 0)
(-0.0323719 0.0327651 0)
(-0.0427252 0.0418106 0)
(-0.0554357 0.0526163 0)
(-0.0705817 0.0650517 0)
(-0.0883235 0.0787208 0)
(-0.108402 0.0931388 0)
(-0.13049 0.107578 0)
(-0.153849 0.121217 0)
(-0.177668 0.133138 0)
(-0.200904 0.142516 0)
(-0.222637 0.148693 0)
(-0.242014 0.151312 0)
(-0.258523 0.150317 0)
(-0.271887 0.14595 0)
(-0.282184 0.138651 0)
(-0.289665 0.128978 0)
(-0.294777 0.117497 0)
(-0.297981 0.104732 0)
(-0.299772 0.0911103 0)
(-0.300559 0.0769639 0)
(-0.300708 0.0625202 0)
(-0.300478 0.0479317 0)
(-0.300089 0.033281 0)
(-0.299678 0.0186116 0)
(-0.29937 0.00392939 0)
(-0.299245 -0.0107765 0)
(-0.299394 -0.0255387 0)
(-0.299878 -0.0403994 0)
(-0.300772 -0.0554169 0)
(-0.302111 -0.0706536 0)
(-0.3039 -0.0861724 0)
(-0.306052 -0.10201 0)
(-0.308352 -0.118143 0)
(-0.310372 -0.134428 0)
(-0.311421 -0.150521 0)
(-0.310477 -0.165787 0)
(-0.306213 -0.179218 0)
(-0.297081 -0.189403 0)
(-0.281565 -0.194606 0)
(-0.258552 -0.192992 0)
(-0.227831 -0.183073 0)
(-0.19056 -0.164294 0)
(-0.149514 -0.137668 0)
(-0.108765 -0.106022 0)
(-0.0726492 -0.0735569 0)
(-0.0442087 -0.0443449 0)
(-0.0241802 -0.0209277 0)
(-0.0113477 -0.00373747 0)
(-0.00389933 0.00787708 0)
(-9.16494e-05 0.014975 0)
(0.00131277 0.0182665 0)
(0.00137696 0.0181586 0)
(0.000742667 0.0144582 0)
(0.000132553 0.00657615 0)
(-0.000517495 0.00341013 0)
(-0.00344563 0.0102629 0)
(-0.00816947 0.0158949 0)
(-0.0137995 0.0211013 0)
(-0.0206719 0.0267288 0)
(-0.0288078 0.0338756 0)
(-0.0388938 0.0429753 0)
(-0.0511118 0.0542881 0)
(-0.0659212 0.0676037 0)
(-0.0832649 0.0826201 0)
(-0.103153 0.0987265 0)
(-0.125074 0.115174 0)
(-0.14844 0.130965 0)
(-0.172229 0.145045 0)
(-0.195433 0.156369 0)
(-0.216911 0.164127 0)
(-0.23582 0.167829 0)
(-0.251522 0.167401 0)
(-0.263835 0.163125 0)
(-0.272842 0.155563 0)
(-0.278963 0.145399 0)
(-0.282702 0.133341 0)
(-0.284666 0.120007 0)
(-0.285373 0.105901 0)
(-0.2853 0.0913798 0)
(-0.28477 0.0766839 0)
(-0.284044 0.0619495 0)
(-0.283256 0.0472507 0)
(-0.282514 0.0326116 0)
(-0.281853 0.0180379 0)
(-0.281325 0.00351666 0)
(-0.280948 -0.0109673 0)
(-0.280781 -0.0254411 0)
(-0.280875 -0.0399382 0)
(-0.281325 -0.0545099 0)
(-0.282222 -0.0692247 0)
(-0.283682 -0.0841749 0)
(-0.285787 -0.0994694 0)
(-0.288571 -0.115217 0)
(-0.291935 -0.131487 0)
(-0.295571 -0.148238 0)
(-0.298844 -0.165212 0)
(-0.300704 -0.181792 0)
(-0.299629 -0.19687 0)
(-0.293712 -0.208752 0)
(-0.280912 -0.215214 0)
(-0.259542 -0.213784 0)
(-0.228955 -0.202335 0)
(-0.190262 -0.179981 0)
(-0.146773 -0.148005 0)
(-0.103626 -0.110366 0)
(-0.0662555 -0.0727606 0)
(-0.0381136 -0.0404413 0)
(-0.0193868 -0.0158406 0)
(-0.00816395 0.00110566 0)
(-0.00213239 0.0117567 0)
(0.000484733 0.0172436 0)
(0.00114676 0.0183484 0)
(0.000735752 0.0150978 0)
(0.000153215 0.00700098 0)
(-0.000662837 0.00536966 0)
(-0.00421077 0.0145546 0)
(-0.00980882 0.0215686 0)
(-0.0164041 0.0278831 0)
(-0.0244409 0.0348259 0)
(-0.0339371 0.0437078 0)
(-0.0456474 0.0549773 0)
(-0.0596749 0.0687736 0)
(-0.0764144 0.0847104 0)
(-0.095619 0.102247 0)
(-0.117097 0.120497 0)
(-0.140047 0.138403 0)
(-0.163623 0.1547 0)
(-0.186578 0.168163 0)
(-0.207829 0.177748 0)
(-0.22631 0.182821 0)
(-0.24144 0.183222 0)
(-0.252937 0.179272 0)
(-0.261032 0.171628 0)
(-0.266156 0.161131 0)
(-0.26899 0.148623 0)
(-0.270168 0.134848 0)
(-0.270322 0.120372 0)
(-0.269895 0.105588 0)
(-0.269245 0.0907287 0)
(-0.268544 0.075915 0)
(-0.267911 0.0611873 0)
(-0.26735 0.0465527 0)
(-0.266869 0.0319964 0)
(-0.266423 0.0175083 0)
(-0.266007 0.00307741 0)
(-0.265601 -0.0112979 0)
(-0.265233 -0.0256222 0)
(-0.264938 -0.0399025 0)
(-0.264805 -0.0541608 0)
(-0.264934 -0.0684405 0)
(-0.265477 -0.082816 0)
(-0.266595 -0.097402 0)
(-0.268471 -0.112351 0)
(-0.271241 -0.127849 0)
(-0.274951 -0.144066 0)
(-0.279427 -0.161086 0)
(-0.284145 -0.178761 0)
(-0.288074 -0.19653 0)
(-0.289562 -0.213193 0)
(-0.286373 -0.226754 0)
(-0.275939 -0.234423 0)
(-0.255969 -0.232953 0)
(-0.225334 -0.219461 0)
(-0.185137 -0.192676 0)
(-0.139371 -0.154446 0)
(-0.0944825 -0.110279 0)
(-0.0570541 -0.0679775 0)
(-0.0305199 -0.033592 0)
(-0.0140477 -0.00916186 0)
(-0.00488156 0.00656028 0)
(-0.000571786 0.0152012 0)
(0.000893541 0.0180985 0)
(0.000754268 0.0156231 0)
(0.00018613 0.00745625 0)
(-0.000814095 0.00773632 0)
(-0.00499129 0.0195898 0)
(-0.0114673 0.0281364 0)
(-0.0190281 0.0356942 0)
(-0.0282277 0.044142 0)
(-0.0390612 0.0549748 0)
(-0.052319 0.0686049 0)
(-0.0679824 0.0849832 0)
(-0.0863345 0.103489 0)
(-0.106893 0.123278 0)
(-0.129233 0.143143 0)
(-0.152264 0.161708 0)
(-0.174947 0.1775 0)
(-0.195926 0.18925 0)
(-0.214216 0.196086 0)
(-0.229 0.197724 0)
(-0.240095 0.194453 0)
(-0.247635 0.187024 0)
(-0.252227 0.176418 0)
(-0.254547 0.163645 0)
(-0.255393 0.149575 0)
(-0.255377 0.134864 0)
(-0.255027 0.119933 0)
(-0.254619 0.105016 0)
(-0.254343 0.0901988 0)
(-0.254212 0.0754938 0)
(-0.254219 0.0608702 0)
(-0.254275 0.0462973 0)
(-0.254326 0.03175 0)
(-0.254286 0.0172241 0)
(-0.254126 0.00272704 0)
(-0.253807 -0.0117196 0)
(-0.253347 -0.026092 0)
(-0.252765 -0.040367 0)
(-0.252133 -0.0545323 0)
(-0.251533 -0.0685957 0)
(-0.251109 -0.0825927 0)
(-0.251025 -0.0966055 0)
(-0.251504 -0.110766 0)
(-0.252786 -0.12528 0)
(-0.255122 -0.140403 0)
(-0.258676 -0.156425 0)
(-0.263424 -0.173563 0)
(-0.268962 -0.191807 0)
(-0.274293 -0.210648 0)
(-0.277667 -0.228794 0)
(-0.276522 -0.243883 0)
(-0.267795 -0.252451 0)
(-0.248573 -0.250347 0)
(-0.217326 -0.233791 0)
(-0.175262 -0.201289 0)
(-0.12739 -0.155624 0)
(-0.0817154 -0.104802 0)
(-0.0458358 -0.0588355 0)
(-0.0223314 -0.0242634 0)
(-0.00883515 -0.00139686 0)
(-0.0021311 0.0117491 0)
(0.000481912 0.0172646 0)
(0.000746546 0.0160157 0)
(0.000222118 0.00796708 0)
(-0.000970628 0.010556 0)
(-0.00577344 0.0254232 0)
(-0.0131092 0.0356548 0)
(-0.0216095 0.0445939 0)
(-0.0319274 0.054728 0)
(-0.0440091 0.0676917 0)
(-0.0586414 0.0837985 0)
(-0.0756443 0.102738 0)
(-0.0951522 0.123594 0)
(-0.116423 0.145166 0)
(-0.138804 0.165914 0)
(-0.160972 0.184188 0)
(-0.181799 0.198429 0)
(-0.199978 0.207493 0)
(-0.214785 0.210866 0)
(-0.225779 0.208745 0)
(-0.233219 0.20191 0)
(-0.237607 0.191483 0)
(-0.239807 0.178647 0)
(-0.240584 0.164434 0)
(-0.240699 0.149605 0)
(-0.240616 0.134636 0)
(-0.240681 0.119755 0)
(-0.240979 0.105026 0)
(-0.241541 0.0904143 0)
(-0.242256 0.0758581 0)
(-0.243042 0.0612939 0)
(-0.243764 0.0466855 0)
(-0.244349 0.0320209 0)
(-0.244704 0.0173163 0)
(-0.244802 0.0026044 0)
(-0.244605 -0.012069 0)
(-0.24413 -0.0266542 0)
(-0.243385 -0.0411042 0)
(-0.24243 -0.0553778 0)
(-0.241322 -0.0694527 0)
(-0.240171 -0.0833243 0)
(-0.239105 -0.0970309 0)
(-0.238318 -0.110652 0)
(-0.238048 -0.124351 0)
(-0.238601 -0.138366 0)
(-0.240307 -0.15305 0)
(-0.243459 -0.168804 0)
(-0.248168 -0.186011 0)
(-0.254137 -0.20479 0)
(-0.260407 -0.224692 0)
(-0.265073 -0.244253 0)
(-0.265262 -0.260637 0)
(-0.257361 -0.269544 0)
(-0.237947 -0.265716 0)
(-0.205173 -0.24451 0)
(-0.160754 -0.204423 0)
(-0.111104 -0.150231 0)
(-0.0661511 -0.0932196 0)
(-0.0337829 -0.0459002 0)
(-0.0145025 -0.0131977 0)
(-0.00448715 0.00626886 0)
(-0.000230713 0.0155469 0)
(0.000660429 0.0161562 0)
(0.000253774 0.00850577 0)
(-0.00111576 0.013777 0)
(-0.00649718 0.0319609 0)
(-0.0146281 0.0440076 0)
(-0.0239916 0.0544396 0)
(-0.0353205 0.0663904 0)
(-0.048484 0.0815755 0)
(-0.0642273 0.100146 0)
(-0.0821784 0.121463 0)
(-0.102301 0.144274 0)
(-0.123598 0.166997 0)
(-0.145231 0.187788 0)
(-0.165737 0.204822 0)
(-0.184036 0.216614 0)
(-0.199019 0.222328 0)
(-0.210338 0.22195 0)
(-0.217966 0.216211 0)
(-0.222555 0.206334 0)
(-0.224853 0.193682 0)
(-0.225822 0.17948 0)
(-0.226162 0.164637 0)
(-0.226482 0.149706 0)
(-0.227034 0.134937 0)
(-0.227972 0.120368 0)
(-0.229214 0.105927 0)
(-0.230683 0.0915044 0)
(-0.2322 0.0770081 0)
(-0.23366 0.0623782 0)
(-0.234917 0.0475967 0)
(-0.235911 0.0326791 0)
(-0.236559 0.0176678 0)
(-0.236848 0.00262157 0)
(-0.236749 -0.0123927 0)
(-0.236286 -0.0273044 0)
(-0.235465 -0.0420502 0)
(-0.23434 -0.0565692 0)
(-0.232947 -0.0708206 0)
(-0.231366 -0.0847702 0)
(-0.229681 -0.0984216 0)
(-0.228028 -0.111799 0)
(-0.226585 -0.125003 0)
(-0.225613 -0.138197 0)
(-0.225453 -0.151687 0)
(-0.226512 -0.165891 0)
(-0.229204 -0.181374 0)
(-0.233761 -0.198669 0)
(-0.239998 -0.218063 0)
(-0.246908 -0.2391 0)
(-0.252418 -0.260047 0)
(-0.253196 -0.277384 0)
(-0.245139 -0.285689 0)
(-0.224298 -0.278472 0)
(-0.188929 -0.250226 0)
(-0.14168 -0.200377 0)
(-0.0911638 -0.136871 0)
(-0.0491429 -0.0758567 0)
(-0.0223204 -0.030147 0)
(-0.00792139 -0.00199769 0)
(-0.0013766 0.0125591 0)
(0.000448967 0.015891 0)
(0.000273366 0.00904236 0)
(-0.00124708 0.0174032 0)
(-0.00714265 0.0391997 0)
(-0.0159772 0.0531882 0)
(-0.0260955 0.0652131 0)
(-0.0382791 0.0790755 0)
(-0.052294 0.0965073 0)
(-0.0688099 0.117434 0)
(-0.0872507 0.140832 0)
(-0.10741 0.165082 0)
(-0.128072 0.188231 0)
(-0.148288 0.208212 0)
(-0.166569 0.223163 0)
(-0.182013 0.23185 0)
(-0.193815 0.233898 0)
(-0.202041 0.229873 0)
(-0.207037 0.221002 0)
(-0.20973 0.208829 0)
(-0.210961 0.194792 0)
(-0.211643 0.180007 0)
(-0.212305 0.165151 0)
(-0.213346 0.150528 0)
(-0.214811 0.136167 0)
(-0.216697 0.121958 0)
(-0.218814 0.107746 0)
(-0.221035 0.0933958 0)
(-0.223164 0.0788225 0)
(-0.225102 0.0639923 0)
(-0.226722 0.0489169 0)
(-0.227981 0.0336425 0)
(-0.228812 0.0182365 0)
(-0.229221 0.00278104 0)
(-0.229184 -0.0126403 0)
(-0.228735 -0.0279405 0)
(-0.227884 -0.0430457 0)
(-0.226681 -0.0578824 0)
(-0.225157 -0.072402 0)
(-0.223375 -0.0865535 0)
(-0.221386 -0.100323 0)
(-0.219276 -0.113695 0)
(-0.217153 -0.12672 0)
(-0.215192 -0.139472 0)
(-0.213651 -0.152167 0)
(-0.212898 -0.165123 0)
(-0.213423 -0.178896 0)
(-0.215729 -0.194171 0)
(-0.220196 -0.211711 0)
(-0.22666 -0.231917 0)
(-0.234077 -0.254281 0)
(-0.23999 -0.276588 0)
(-0.240618 -0.294294 0)
(-0.231178 -0.300561 0)
(-0.207549 -0.287389 0)
(-0.168395 -0.249048 0)
(-0.118365 -0.187021 0)
(-0.06878 -0.115219 0)
(-0.032706 -0.0539093 0)
(-0.0126639 -0.0139711 0)
(-0.0030763 0.00777265 0)
(8.07953e-05 0.0149851 0)
(0.000275509 0.00950957 0)
(-0.00134436 0.0213277 0)
(-0.00764121 0.0469654 0)
(-0.0170397 0.0629885 0)
(-0.0277546 0.076657 0)
(-0.040582 0.0924425 0)
(-0.0551636 0.11203 0)
(-0.0720708 0.135071 0)
(-0.0905286 0.160125 0)
(-0.110183 0.185211 0)
(-0.129659 0.208054 0)
(-0.147987 0.226473 0)
(-0.163764 0.238725 0)
(-0.176361 0.243982 0)
(-0.185319 0.242424 0)
(-0.19109 0.235188 0)
(-0.19429 0.223895 0)
(-0.195981 0.210246 0)
(-0.196954 0.195595 0)
(-0.197973 0.180831 0)
(-0.199347 0.166354 0)
(-0.201273 0.152224 0)
(-0.203634 0.138295 0)
(-0.206328 0.124367 0)
(-0.209119 0.110255 0)
(-0.211876 0.0958386 0)
(-0.214414 0.0810591 0)
(-0.216661 0.065919 0)
(-0.218506 0.0504599 0)
(-0.219928 0.0347565 0)
(-0.220872 0.0188967 0)
(-0.221351 0.0029833 0)
(-0.221349 -0.0128865 0)
(-0.220905 -0.0286103 0)
(-0.220033 -0.0441068 0)
(-0.218789 -0.059292 0)
(-0.217203 -0.0741159 0)
(-0.215336 -0.0885197 0)
(-0.213226 -0.102488 0)
(-0.210931 -0.115985 0)
(-0.208508 -0.129034 0)
(-0.206052 -0.141645 0)
(-0.203718 -0.153944 0)
(-0.20176 -0.166114 0)
(-0.200589 -0.178587 0)
(-0.20074 -0.191988 0)
(-0.202861 -0.207243 0)
(-0.207373 -0.225285 0)
(-0.214186 -0.246657 0)
(-0.221963 -0.270609 0)
(-0.227879 -0.294119 0)
(-0.227354 -0.311205 0)
(-0.215195 -0.313069 0)
(-0.187154 -0.290435 0)
(-0.143451 -0.238101 0)
(-0.0915108 -0.162806 0)
(-0.0462615 -0.0861328 0)
(-0.0188285 -0.0307712 0)
(-0.00548088 0.000608496 0)
(-0.000466042 0.0131616 0)
(0.00025425 0.00984562 0)
(-0.00140698 0.0255069 0)
(-0.00797928 0.0551963 0)
(-0.0177801 0.0733435 0)
(-0.0289091 0.0886878 0)
(-0.0421365 0.106365 0)
(-0.0569705 0.127962 0)
(-0.073873 0.15282 0)
(-0.0918962 0.179066 0)
(-0.110577 0.204386 0)
(-0.128459 0.226261 0)
(-0.144638 0.242528 0)
(-0.157883 0.25171 0)
(-0.167884 0.253499 0)
(-0.174519 0.248657 0)
(-0.17854 0.238819 0)
(-0.180708 0.225852 0)
(-0.182084 0.211451 0)
(-0.183319 0.196761 0)
(-0.184977 0.182388 0)
(-0.187155 0.168451 0)
(-0.189895 0.154814 0)
(-0.192977 0.14122 0)
(-0.196261 0.127436 0)
(-0.199509 0.113285 0)
(-0.20261 0.0986808 0)
(-0.205406 0.083599 0)
(-0.207848 0.0680763 0)