/*--------------------------------*- C++ -*----------------------------------*\
| =========                 |                                                 |
| \\      /  F ield         | OpenFOAM: The Open Source CFD Toolbox           |
|  \\    /   O peration     | Version:  2406                                  |
|   \\  /    A nd           | Website:  www.openfoam.com                      |
|    \\/     M anipulation  |                                                 |
\*---------------------------------------------------------------------------*/
FoamFile
{
    version     2.0;
    format      ascii;
    arch        "LSB;label=32;scalar=64";
    class       volVectorField;
    location    "4.9";
    object      U;
}
// * * * * * * * * * * * * * * * * * * * * * * * * * * * * * * * * * * * * * //

dimensions      [0 1 -1 0 0 0 0];

internalField   nonuniform List<vector> 
14400
(
(1.36754e-06 -1.36189e-06 0)
(1.32508e-06 5.21917e-07 0)
(-8.54207e-06 3.26081e-06 0)
(-2.85922e-05 5.7297e-06 0)
(-5.74457e-05 7.71543e-06 0)
(-9.33206e-05 9.21687e-06 0)
(-0.000134515 1.03095e-05 0)
(-0.000179604 1.10787e-05 0)
(-0.000227453 1.16021e-05 0)
(-0.000277191 1.19428e-05 0)
(-0.000328162 1.21505e-05 0)
(-0.000379885 1.22635e-05 0)
(-0.000432014 1.23106e-05 0)
(-0.000484306 1.2313e-05 0)
(-0.000536594 1.22864e-05 0)
(-0.000588767 1.22416e-05 0)
(-0.000640756 1.21859e-05 0)
(-0.000692517 1.21241e-05 0)
(-0.000744023 1.20591e-05 0)
(-0.000795258 1.19924e-05 0)
(-0.000846211 1.19243e-05 0)
(-0.000896872 1.1855e-05 0)
(-0.000947234 1.17838e-05 0)
(-0.000997283 1.17102e-05 0)
(-0.00104701 1.16335e-05 0)
(-0.00109639 1.15528e-05 0)
(-0.00114541 1.14674e-05 0)
(-0.00119405 1.13766e-05 0)
(-0.00124228 1.12797e-05 0)
(-0.00129008 1.1176e-05 0)
(-0.0013374 1.1065e-05 0)
(-0.00138423 1.0946e-05 0)
(-0.00143053 1.08185e-05 0)
(-0.00147625 1.06818e-05 0)
(-0.00152137 1.05355e-05 0)
(-0.00156583 1.0379e-05 0)
(-0.00160959 1.02118e-05 0)
(-0.00165261 1.00333e-05 0)
(-0.00169483 9.84296e-06 0)
(-0.00173622 9.64034e-06 0)
(-0.0017767 9.42492e-06 0)
(-0.00181624 9.1962e-06 0)
(-0.00185477 8.95371e-06 0)
(-0.00189223 8.69701e-06 0)
(-0.00192857 8.42567e-06 0)
(-0.00196372 8.1393e-06 0)
(-0.00199761 7.83754e-06 0)
(-0.00203019 7.52006e-06 0)
(-0.00206139 7.18658e-06 0)
(-0.00209114 6.83687e-06 0)
(-0.00211937 6.47076e-06 0)
(-0.00214601 6.08812e-06 0)
(-0.002171 5.6889e-06 0)
(-0.00219427 5.27312e-06 0)
(-0.00221574 4.84087e-06 0)
(-0.00223535 4.39232e-06 0)
(-0.00225304 3.92774e-06 0)
(-0.00226873 3.44747e-06 0)
(-0.00228237 2.95195e-06 0)
(-0.00229389 2.44171e-06 0)
(-0.00230323 1.91742e-06 0)
(-0.00231033 1.37978e-06 0)
(-0.00231514 8.29607e-07 0)
(-0.00231762 2.68361e-07 0)
(-0.00231772 -3.02329e-07 0)
(-0.00231538 -8.8415e-07 0)
(-0.00231059 -1.47399e-06 0)
(-0.00230331 -2.07017e-06 0)
(-0.00229351 -2.67155e-06 0)
(-0.00228117 -3.27665e-06 0)
(-0.00226629 -3.88388e-06 0)
(-0.00224885 -4.49158e-06 0)
(-0.00222886 -5.09805e-06 0)
(-0.00220633 -5.70152e-06 0)
(-0.00218126 -6.30022e-06 0)
(-0.00215369 -6.89235e-06 0)
(-0.00212364 -7.47611e-06 0)
(-0.00209115 -8.0497e-06 0)
(-0.00205626 -8.61137e-06 0)
(-0.00201903 -9.1594e-06 0)
(-0.00197951 -9.69215e-06 0)
(-0.00193777 -1.0208e-05 0)
(-0.00189388 -1.07055e-05 0)
(-0.00184792 -1.11833e-05 0)
(-0.00179997 -1.16401e-05 0)
(-0.00175012 -1.20747e-05 0)
(-0.00169846 -1.24861e-05 0)
(-0.00164508 -1.28736e-05 0)
(-0.00159009 -1.32363e-05 0)
(-0.00153359 -1.35737e-05 0)
(-0.00147568 -1.38854e-05 0)
(-0.00141647 -1.4171e-05 0)
(-0.00135606 -1.44304e-05 0)
(-0.00129457 -1.46635e-05 0)
(-0.0012321 -1.48701e-05 0)
(-0.00116877 -1.505e-05 0)
(-0.00110468 -1.52029e-05 0)
(-0.00103995 -1.53282e-05 0)
(-0.00097469 -1.5425e-05 0)
(-0.000909035 -1.54917e-05 0)
(-0.000843111 -1.55258e-05 0)
(-0.000777065 -1.55241e-05 0)
(-0.000711059 -1.54817e-05 0)
(-0.000645281 -1.53922e-05 0)
(-0.000579949 -1.52472e-05 0)
(-0.000515322 -1.50361e-05 0)
(-0.000451711 -1.47455e-05 0)
(-0.000389488 -1.43591e-05 0)
(-0.000329101 -1.38572e-05 0)
(-0.000271085 -1.32167e-05 0)
(-0.000216078 -1.24109e-05 0)
(-0.00016483 -1.14097e-05 0)
(-0.000118212 -1.01807e-05 0)
(-7.72182e-05 -8.69144e-06 0)
(-4.29405e-05 -6.91575e-06 0)
(-1.65068e-05 -4.84892e-06 0)
(1.07306e-06 -2.55053e-06 0)
(9.18745e-06 -1.87746e-07 0)
(8.74519e-06 1.67885e-06 0)
(2.31293e-06 2.31657e-06 0)
(-5.27255e-07 -1.30645e-06 0)
(-1.36729e-05 1.35971e-05 0)
(-4.89629e-05 3.47445e-05 0)
(-0.000107435 5.44286e-05 0)
(-0.000185983 7.0866e-05 0)
(-0.000281298 8.37898e-05 0)
(-0.000389854 9.3554e-05 0)
(-0.00050851 0.000100695 0)
(-0.000634633 0.000105754 0)
(-0.000766102 0.000109207 0)
(-0.000901254 0.000111448 0)
(-0.00103882 0.000112796 0)
(-0.00117784 0.000113498 0)
(-0.00131763 0.000113746 0)
(-0.00145768 0.00011368 0)
(-0.00159765 0.000113405 0)
(-0.00173729 0.000112994 0)
(-0.00187644 0.000112496 0)
(-0.00201499 0.000111942 0)
(-0.00215286 0.00011135 0)
(-0.00229001 0.00011073 0)
(-0.00242637 0.000110085 0)
(-0.00256191 0.000109413 0)
(-0.00269659 0.000108711 0)
(-0.00283037 0.000107973 0)
(-0.00296318 0.000107195 0)
(-0.00309497 0.00010637 0)
(-0.00322567 0.000105492 0)
(-0.00335523 0.000104556 0)
(-0.00348355 0.000103557 0)
(-0.00361056 0.000102488 0)
(-0.00373617 0.000101346 0)
(-0.00386028 0.000100124 0)
(-0.00398279 9.88178e-05 0)
(-0.0041036 9.74231e-05 0)
(-0.0042226 9.59349e-05 0)
(-0.00433966 9.43485e-05 0)
(-0.00445466 9.26594e-05 0)
(-0.00456748 9.0863e-05 0)
(-0.00467798 8.89549e-05 0)
(-0.00478603 8.69308e-05 0)
(-0.00489147 8.47866e-05 0)
(-0.00499417 8.25183e-05 0)
(-0.00509397 8.0122e-05 0)
(-0.00519071 7.75943e-05 0)
(-0.00528423 7.49317e-05 0)
(-0.00537438 7.21314e-05 0)
(-0.00546097 6.91906e-05 0)
(-0.00554384 6.61071e-05 0)
(-0.00562283 6.2879e-05 0)
(-0.00569774 5.9505e-05 0)
(-0.00576842 5.59842e-05 0)
(-0.00583467 5.23165e-05 0)
(-0.00589634 4.8502e-05 0)
(-0.00595324 4.45419e-05 0)
(-0.0060052 4.04379e-05 0)
(-0.00605205 3.61923e-05 0)
(-0.00609362 3.18084e-05 0)
(-0.00612976 2.72902e-05 0)
(-0.00616031 2.26426e-05 0)
(-0.0061851 1.78714e-05 0)
(-0.00620402 1.2983e-05 0)
(-0.00621691 7.985e-06 0)
(-0.00622365 2.88604e-06 0)
(-0.00622414 -2.30417e-06 0)
(-0.00621826 -7.57776e-06 0)
(-0.00620593 -1.29223e-05 0)
(-0.00618707 -1.83261e-05 0)
(-0.00616161 -2.37767e-05 0)
(-0.00612952 -2.9261e-05 0)
(-0.00609075 -3.47652e-05 0)
(-0.00604529 -4.02752e-05 0)
(-0.00599314 -4.57762e-05 0)
(-0.00593433 -5.1253e-05 0)
(-0.00586889 -5.66905e-05 0)
(-0.00579687 -6.2073e-05 0)
(-0.00571835 -6.73851e-05 0)
(-0.00563341 -7.26114e-05 0)
(-0.00554217 -7.77369e-05 0)
(-0.00544476 -8.27466e-05 0)
(-0.00534131 -8.76265e-05 0)
(-0.00523198 -9.23627e-05 0)
(-0.00511696 -9.69423e-05 0)
(-0.00499643 -0.000101353 0)
(-0.00487059 -0.000105585 0)
(-0.00473966 -0.000109626 0)
(-0.00460387 -0.000113469 0)
(-0.00446346 -0.000117105 0)
(-0.00431867 -0.000120528 0)
(-0.00416975 -0.000123732 0)
(-0.00401697 -0.000126713 0)
(-0.0038606 -0.000129468 0)
(-0.00370089 -0.000131994 0)
(-0.00353813 -0.000134288 0)
(-0.00337258 -0.000136348 0)
(-0.00320454 -0.000138171 0)
(-0.00303429 -0.000139752 0)
(-0.00286212 -0.000141085 0)
(-0.00268835 -0.000142158 0)
(-0.0025133 -0.000142954 0)
(-0.00233732 -0.000143449 0)
(-0.0021608 -0.000143609 0)
(-0.0019842 -0.000143389 0)
(-0.001808 -0.000142728 0)
(-0.00163282 -0.000141547 0)
(-0.00145934 -0.000139748 0)
(-0.00128841 -0.000137209 0)
(-0.00112101 -0.000133784 0)
(-0.000958337 -0.0001293 0)
(-0.000801785 -0.000123557 0)
(-0.000652994 -0.000116334 0)
(-0.00051386 -0.00010739 0)
(-0.000386533 -9.64844e-05 0)
(-0.000273384 -8.34038e-05 0)
(-0.00017692 -6.80257e-05 0)
(-9.95912e-05 -5.04475e-05 0)
(-4.34387e-05 -3.12446e-05 0)
(-9.47823e-06 -1.19727e-05 0)
(4.01095e-06 3.95617e-06 0)
(1.67238e-06 8.75148e-06 0)
(-3.33145e-06 8.70349e-06 0)
(-3.53507e-05 4.90806e-05 0)
(-9.85641e-05 9.75716e-05 0)
(-0.000193931 0.000142664 0)
(-0.000316436 0.000181014 0)
(-0.000462214 0.000211892 0)
(-0.000626836 0.000235814 0)
(-0.000806214 0.000253761 0)
(-0.000996804 0.000266818 0)
(-0.00119566 0.000275996 0)
(-0.0014004 0.000282174 0)
(-0.00160914 0.000286083 0)
(-0.00182045 0.000288312 0)
(-0.00203325 0.000289324 0)
(-0.00224672 0.000289473 0)
(-0.00246028 0.000289022 0)
(-0.00267352 0.000288162 0)
(-0.00288615 0.000287025 0)
(-0.00309795 0.0002857 0)
(-0.00330877 0.00028424 0)
(-0.0035185 0.000282677 0)
(-0.00372705 0.000281023 0)
(-0.00393432 0.000279282 0)
(-0.00414024 0.000277449 0)
(-0.00434472 0.000275514 0)
(-0.00454767 0.000273465 0)
(-0.00474901 0.000271291 0)
(-0.00494862 0.000268976 0)
(-0.00514639 0.00026651 0)
(-0.00534221 0.000263878 0)
(-0.00553594 0.000261068 0)
(-0.00572744 0.000258068 0)
(-0.00591658 0.000254866 0)
(-0.00610319 0.000251449 0)
(-0.00628711 0.000247807 0)
(-0.00646817 0.000243927 0)
(-0.0066462 0.000239799 0)
(-0.006821 0.000235412 0)
(-0.00699239 0.000230754 0)
(-0.00716016 0.000225815 0)
(-0.00732411 0.000220585 0)
(-0.00748401 0.000215053 0)
(-0.00763965 0.000209211 0)
(-0.00779081 0.000203049 0)
(-0.00793723 0.000196559 0)
(-0.0080787 0.000189732 0)
(-0.00821495 0.000182563 0)
(-0.00834575 0.000175045 0)
(-0.00847084 0.000167173 0)
(-0.00858997 0.000158942 0)
(-0.00870287 0.000150351 0)
(-0.0088093 0.000141396 0)
(-0.00890899 0.000132079 0)
(-0.00900169 0.0001224 0)
(-0.00908714 0.000112363 0)
(-0.00916508 0.000101971 0)
(-0.00923528 9.12322e-05 0)
(-0.00929749 8.01539e-05 0)
(-0.00935146 6.87467e-05 0)
(-0.00939699 5.70228e-05 0)
(-0.00943384 4.49965e-05 0)
(-0.00946181 3.26843e-05 0)
(-0.00948072 2.01048e-05 0)
(-0.00949037 7.27853e-06 0)
(-0.00949061 -5.77213e-06 0)
(-0.00948129 -1.90214e-05 0)
(-0.00946227 -3.24433e-05 0)
(-0.00943346 -4.60091e-05 0)
(-0.00939477 -5.96885e-05 0)
(-0.00934611 -7.34495e-05 0)
(-0.00928746 -8.72587e-05 0)
(-0.0092188 -0.000101081 0)
(-0.00914012 -0.000114882 0)
(-0.00905146 -0.000128624 0)
(-0.00895287 -0.00014227 0)
(-0.00884444 -0.000155783 0)
(-0.00872626 -0.000169125 0)
(-0.00859849 -0.00018226 0)
(-0.00846126 -0.000195151 0)
(-0.00831478 -0.000207762 0)
(-0.00815923 -0.000220058 0)
(-0.00799487 -0.000232007 0)
(-0.00782193 -0.000243578 0)
(-0.0076407 -0.00025474 0)
(-0.00745147 -0.000265467 0)
(-0.00725455 -0.000275735 0)
(-0.00705027 -0.000285521 0)
(-0.00683898 -0.000294806 0)
(-0.00662102 -0.000303573 0)
(-0.00639677 -0.000311808 0)
(-0.00616661 -0.0003195 0)
(-0.00593091 -0.000326639 0)
(-0.00569008 -0.000333217 0)
(-0.0054445 -0.000339226 0)
(-0.00519459 -0.000344659 0)
(-0.00494076 -0.000349505 0)
(-0.00468344 -0.000353749 0)
(-0.00442306 -0.00035737 0)
(-0.00416009 -0.000360336 0)
(-0.00389502 -0.000362601 0)
(-0.0036284 -0.0003641 0)
(-0.00336081 -0.000364743 0)
(-0.00309292 -0.000364411 0)
(-0.00282553 -0.000362949 0)
(-0.00255952 -0.000360157 0)
(-0.00229597 -0.000355787 0)
(-0.00203614 -0.000349539 0)
(-0.00178152 -0.000341053 0)
(-0.00153388 -0.000329912 0)
(-0.00129527 -0.000315646 0)
(-0.00106808 -0.000297742 0)
(-0.000855035 -0.000275671 0)
(-0.000659143 -0.000248929 0)
(-0.000483667 -0.000217125 0)
(-0.000331947 -0.000180129 0)
(-0.000207142 -0.000138353 0)
(-0.000111767 -9.32335e-05 0)
(-4.68435e-05 -4.80693e-05 0)
(-1.12732e-05 -9.30199e-06 0)
(-1.24934e-07 9.3281e-06 0)
(-5.95278e-06 2.93212e-05 0)
(-5.62481e-05 0.000108661 0)
(-0.000146358 0.000193604 0)
(-0.000276229 0.000271512 0)
(-0.000438267 0.000338135 0)
(-0.000628053 0.000392457 0)
(-0.000840534 0.000435187 0)
(-0.00107106 0.000467779 0)
(-0.00131554 0.00049191 0)
(-0.00157051 0.000509205 0)
(-0.00183313 0.000521117 0)
(-0.0021011 0.000528887 0)
(-0.00237261 0.000533535 0)
(-0.00264629 0.000535877 0)
(-0.00292107 0.00053655 0)
(-0.00319617 0.000536035 0)
(-0.00347103 0.000534685 0)
(-0.00374521 0.000532753 0)
(-0.00401842 0.000530409 0)
(-0.00429042 0.000527763 0)
(-0.00456104 0.000524882 0)
(-0.00483011 0.000521798 0)
(-0.00509753 0.000518523 0)
(-0.00536315 0.000515053 0)
(-0.00562686 0.000511376 0)
(-0.00588854 0.000507475 0)
(-0.00614805 0.000503329 0)
(-0.00640525 0.000498915 0)
(-0.00665998 0.000494212 0)
(-0.0069121 0.000489197 0)
(-0.00716142 0.000483848 0)
(-0.00740778 0.000478143 0)
(-0.00765097 0.000472061 0)
(-0.00789079 0.000465582 0)
(-0.00812705 0.000458684 0)
(-0.00835951 0.000451347 0)
(-0.00858794 0.000443551 0)
(-0.00881212 0.000435276 0)
(-0.00903179 0.000426503 0)
(-0.00924669 0.000417214 0)
(-0.00945657 0.00040739 0)
(-0.00966113 0.000397014 0)
(-0.00986012 0.000386068 0)
(-0.0100532 0.000374538 0)
(-0.0102402 0.000362409 0)
(-0.0104206 0.000349666 0)
(-0.0105943 0.000336299 0)
(-0.0107609 0.000322297 0)
(-0.0109201 0.000307651 0)
(-0.0110715 0.000292355 0)
(-0.0112149 0.000276405 0)
(-0.01135 0.000259797 0)
(-0.0114763 0.000242533 0)
(-0.0115936 0.000224617 0)
(-0.0117016 0.000206053 0)
(-0.0118 0.000186851 0)
(-0.0118884 0.000167024 0)
(-0.0119666 0.000146587 0)
(-0.0120342 0.000125559 0)
(-0.012091 0.000103964 0)
(-0.0121367 8.18275e-05 0)
(-0.0121711 5.91798e-05 0)
(-0.0121939 3.6055e-05 0)
(-0.0122049 1.24905e-05 0)
(-0.012204 -1.14724e-05 0)
(-0.0121909 -3.57885e-05 0)
(-0.0121655 -6.04099e-05 0)
(-0.0121276 -8.52849e-05 0)
(-0.0120772 -0.000110359 0)
(-0.0120141 -0.000135575 0)
(-0.0119384 -0.000160872 0)
(-0.01185 -0.00018619 0)
(-0.011749 -0.000211463 0)
(-0.0116352 -0.000236627 0)
(-0.011509 -0.000261615 0)
(-0.0113702 -0.000286362 0)
(-0.0112192 -0.0003108 0)
(-0.011056 -0.000334863 0)
(-0.0108809 -0.000358487 0)
(-0.010694 -0.000381608 0)
(-0.0104957 -0.000404164 0)
(-0.0102862 -0.000426097 0)
(-0.0100658 -0.000447352 0)
(-0.00983498 -0.000467876 0)
(-0.00959397 -0.000487621 0)
(-0.0093432 -0.000506542 0)
(-0.00908308 -0.000524601 0)
(-0.00881402 -0.000541762 0)
(-0.00853648 -0.000557996 0)
(-0.00825089 -0.000573275 0)
(-0.00795774 -0.00058758 0)
(-0.00765749 -0.00060089 0)
(-0.00735063 -0.000613191 0)
(-0.00703767 -0.000624465 0)
(-0.0067191 -0.000634696 0)
(-0.00639544 -0.000643862 0)
(-0.00606722 -0.000651932 0)
(-0.00573501 -0.000658862 0)
(-0.00539938 -0.00066459 0)
(-0.00506097 -0.000669025 0)
(-0.00472046 -0.000672044 0)
(-0.0043786 -0.000673477 0)
(-0.00403627 -0.000673103 0)
(-0.00369446 -0.000670633 0)
(-0.00335431 -0.000665703 0)
(-0.00301718 -0.000657864 0)
(-0.00268466 -0.000646573 0)
(-0.00235863 -0.000631193 0)
(-0.00204127 -0.000610991 0)
(-0.00173512 -0.000585153 0)
(-0.00144309 -0.000552811 0)
(-0.00116845 -0.000513094 0)
(-0.00091477 -0.000465214 0)
(-0.00068587 -0.000408622 0)
(-0.000485595 -0.000343256 0)
(-0.000317552 -0.000269964 0)
(-0.000184661 -0.000191193 0)
(-8.82038e-05 -0.000112048 0)
(-2.88793e-05 -4.17824e-05 0)
(-2.28974e-06 1.88738e-06 0)
(-8.17901e-06 5.95152e-05 0)
(-7.4594e-05 0.00019003 0)
(-0.00018901 0.000318969 0)
(-0.000350043 0.000434874 0)
(-0.000547302 0.000533741 0)
(-0.000775624 0.000614803 0)
(-0.00102935 0.000679165 0)
(-0.0013034 0.00072882 0)
(-0.00159332 0.000766059 0)
(-0.00189535 0.000793136 0)
(-0.00220633 0.000812106 0)
(-0.00252369 0.000824751 0)
(-0.00284537 0.00083256 0)
(-0.00316978 0.000836745 0)
(-0.00349567 0.000838259 0)
(-0.00382211 0.000837838 0)
(-0.00414838 0.000836027 0)
(-0.00447397 0.000833224 0)
(-0.00479847 0.000829701 0)
(-0.00512157 0.00082564 0)
(-0.00544304 0.000821152 0)
(-0.00576268 0.0008163 0)
(-0.0060803 0.00081111 0)
(-0.00639576 0.000805583 0)
(-0.00670887 0.000799706 0)
(-0.00701949 0.000793458 0)
(-0.00732744 0.00078681 0)
(-0.00763255 0.000779731 0)
(-0.00793464 0.000772189 0)
(-0.0082335 0.000764152 0)
(-0.00852893 0.000755586 0)
(-0.00882071 0.000746459 0)
(-0.00910861 0.000736741 0)
(-0.0093924 0.000726398 0)
(-0.00967182 0.0007154 0)
(-0.00994661 0.000703717 0)
(-0.0102165 0.000691319 0)
(-0.0104812 0.000678175 0)
(-0.0107404 0.000664258 0)
(-0.0109939 0.000649539 0)
(-0.0112413 0.00063399 0)
(-0.0114822 0.000617587 0)
(-0.0117164 0.000600304 0)
(-0.0119435 0.000582117 0)
(-0.0121632 0.000563006 0)
(-0.0123752 0.000542951 0)
(-0.012579 0.000521935 0)
(-0.0127743 0.000499942 0)
(-0.0129607 0.000476962 0)
(-0.0131379 0.000452984 0)
(-0.0133055 0.000428004 0)
(-0.0134631 0.000402018 0)
(-0.0136103 0.000375031 0)
(-0.0137469 0.000347046 0)
(-0.0138724 0.000318075 0)
(-0.0139864 0.000288133 0)
(-0.0140887 0.00025724 0)
(-0.0141788 0.000225421 0)
(-0.0142565 0.000192707 0)
(-0.0143214 0.000159133 0)
(-0.0143732 0.000124741 0)
(-0.0144117 8.95777e-05 0)
(-0.0144365 5.36958e-05 0)
(-0.0144476 1.71534e-05 0)
(-0.0144445 -1.9986e-05 0)
(-0.0144271 -5.76536e-05 0)
(-0.0143953 -9.57755e-05 0)
(-0.0143489 -0.000134273 0)
(-0.0142879 -0.000173062 0)
(-0.014212 -0.000212056 0)
(-0.0141213 -0.000251164 0)
(-0.0140158 -0.000290291 0)
(-0.0138955 -0.000329341 0)
(-0.0137605 -0.000368215 0)
(-0.0136108 -0.000406813 0)
(-0.0134465 -0.000445035 0)
(-0.0132679 -0.000482779 0)
(-0.0130751 -0.000519947 0)
(-0.0128684 -0.00055644 0)
(-0.0126481 -0.000592164 0)
(-0.0124144 -0.000627025 0)
(-0.0121677 -0.000660935 0)
(-0.0119083 -0.000693811 0)
(-0.0116367 -0.000725574 0)
(-0.0113532 -0.000756152 0)
(-0.0110584 -0.000785477 0)
(-0.0107527 -0.000813492 0)
(-0.0104365 -0.000840141 0)
(-0.0101104 -0.00086538 0)
(-0.00977489 -0.000889169 0)
(-0.00943054 -0.000911474 0)
(-0.00907787 -0.000932264 0)
(-0.00871744 -0.000951515 0)
(-0.00834984 -0.000969198 0)
(-0.00797563 -0.000985285 0)
(-0.00759543 -0.000999738 0)
(-0.00720984 -0.0010125 0)
(-0.00681952 -0.00102351 0)
(-0.00642516 -0.00103266 0)
(-0.00602747 -0.0010398 0)
(-0.00562727 -0.00104474 0)
(-0.00522544 -0.00104722 0)
(-0.004823 -0.00104688 0)
(-0.0044211 -0.00104328 0)
(-0.00402109 -0.00103586 0)
(-0.00362453 -0.00102395 0)
(-0.00323326 -0.00100671 0)
(-0.00284942 -0.000983211 0)
(-0.0024755 -0.000952354 0)
(-0.00211437 -0.000912955 0)
(-0.00176927 -0.00086377 0)
(-0.00144383 -0.000803576 0)
(-0.00114199 -0.000731313 0)
(-0.0008679 -0.000646297 0)
(-0.00062576 -0.00054856 0)
(-0.000419546 -0.000439383 0)
(-0.000252658 -0.000322094 0)
(-0.000126927 -0.000203224 0)
(-4.52894e-05 -9.39583e-05 0)
(-4.24754e-06 -1.39353e-05 0)
(-9.99412e-06 9.78216e-05 0)
(-9.00171e-05 0.000290601 0)
(-0.000225564 0.000470789 0)
(-0.000413953 0.00062952 0)
(-0.000642127 0.000764042 0)
(-0.000904039 0.000874436 0)
(-0.00119337 0.000962524 0)
(-0.00150462 0.00103099 0)
(-0.00183308 0.0010828 0)
(-0.00217473 0.00112087 0)
(-0.00252625 0.00114789 0)
(-0.00288487 0.00116618 0)
(-0.00324839 0.00117773 0)
(-0.00361505 0.00118417 0)
(-0.00398349 0.00118679 0)
(-0.00435264 0.0011866 0)
(-0.00472171 0.00118436 0)
(-0.00509007 0.00118063 0)
(-0.00545724 0.00117579 0)
(-0.00582287 0.00117011 0)
(-0.00618666 0.00116377 0)
(-0.00654835 0.00115684 0)
(-0.00690772 0.00114939 0)
(-0.00726458 0.00114143 0)
(-0.00761872 0.00113293 0)
(-0.00796996 0.00112388 0)
(-0.00831808 0.00111424 0)
(-0.00866288 0.00110398 0)
(-0.00900414 0.00109304 0)
(-0.00934164 0.00108139 0)
(-0.00967514 0.00106898 0)
(-0.0100044 0.00105578 0)
(-0.0103291 0.00104172 0)
(-0.010649 0.00102679 0)
(-0.0109639 0.00101092 0)
(-0.0112734 0.000994082 0)
(-0.0115772 0.000976233 0)
(-0.011875 0.000957332 0)
(-0.0121665 0.00093734 0)
(-0.0124513 0.000916218 0)
(-0.0127291 0.00089393 0)
(-0.0129996 0.000870442 0)
(-0.0132622 0.000845718 0)
(-0.0135168 0.000819729 0)
(-0.0137628 0.000792446 0)
(-0.014 0.000763842 0)
(-0.0142278 0.000733895 0)
(-0.014446 0.000702587 0)
(-0.014654 0.000669901 0)
(-0.0148515 0.000635826 0)
(-0.0150381 0.000600358 0)
(-0.0152133 0.000563493 0)
(-0.0153768 0.000525237 0)
(-0.0155282 0.0004856 0)
(-0.015667 0.000444598 0)
(-0.0157929 0.000402253 0)
(-0.0159054 0.000358595 0)
(-0.0160043 0.000313661 0)
(-0.0160891 0.000267493 0)
(-0.0161595 0.000220145 0)
(-0.0162152 0.000171673 0)
(-0.0162559 0.000122146 0)
(-0.0162813 7.16359e-05 0)
(-0.0162911 2.02255e-05 0)
(-0.0162851 -3.19964e-05 0)
(-0.0162632 -8.49335e-05 0)
(-0.016225 -0.000138483 0)
(-0.0161706 -0.000192534 0)
(-0.0160997 -0.000246973 0)
(-0.0160123 -0.000301677 0)
(-0.0159083 -0.00035652 0)
(-0.0157878 -0.000411373 0)
(-0.0156508 -0.000466101 0)
(-0.0154974 -0.000520568 0)
(-0.0153276 -0.000574637 0)
(-0.0151417 -0.00062817 0)
(-0.0149398 -0.000681028 0)
(-0.0147221 -0.000733074 0)
(-0.0144889 -0.000784174 0)
(-0.0142406 -0.000834198 0)
(-0.0139775 -0.000883019 0)
(-0.0136999 -0.000930516 0)
(-0.0134082 -0.000976574 0)
(-0.013103 -0.00102109 0)
(-0.0127846 -0.00106395 0)
(-0.0124536 -0.00110508 0)
(-0.0121104 -0.0011444 0)
(-0.0117557 -0.00118182 0)
(-0.01139 -0.00121729 0)
(-0.0110139 -0.00125075 0)
(-0.0106279 -0.00128215 0)
(-0.0102327 -0.00131146 0)
(-0.00982885 -0.00133862 0)
(-0.00941702 -0.00136362 0)
(-0.00899787 -0.00138638 0)
(-0.00857203 -0.00140688 0)
(-0.00814021 -0.00142502 0)
(-0.00770312 -0.00144069 0)
(-0.00726152 -0.00145376 0)
(-0.00681623 -0.00146401 0)
(-0.00636813 -0.00147117 0)
(-0.00591823 -0.00147485 0)
(-0.00546763 -0.00147458 0)
(-0.00501763 -0.00146974 0)
(-0.0045697 -0.00145955 0)
(-0.00412557 -0.00144307 0)
(-0.00368724 -0.0014192 0)
(-0.00325704 -0.00138663 0)
(-0.00283765 -0.00134393 0)
(-0.00243216 -0.0012895 0)
(-0.00204404 -0.00122173 0)
(-0.00167712 -0.00113903 0)
(-0.00133559 -0.00104007 0)
(-0.00102384 -0.000924016 0)
(-0.000746342 -0.000790971 0)
(-0.00050746 -0.000642543 0)
(-0.000311154 -0.000482706 0)
(-0.000159975 -0.000318952 0)
(-5.90527e-05 -0.000163615 0)
(-5.84398e-06 -3.69926e-05 0)
(-1.14514e-05 0.000142787 0)
(-0.000102709 0.00040743 0)
(-0.000256178 0.000645446 0)
(-0.000468071 0.000851386 0)
(-0.000722967 0.00102452 0)
(-0.0010139 0.00116632 0)
(-0.00133385 0.00127968 0)
(-0.0016769 0.00136817 0)
(-0.00203807 0.00143555 0)
(-0.00241316 0.00148544 0)
(-0.0027987 0.00152116 0)
(-0.00319184 0.00154563 0)
(-0.00359024 0.00156134 0)
(-0.00399207 0.00157032 0)
(-0.00439586 0.00157424 0)
(-0.00480049 0.00157438 0)
(-0.00520506 0.00157172 0)
(-0.00560889 0.001567 0)
(-0.00601146 0.00156073 0)
(-0.00641235 0.00155327 0)
(-0.0068112 0.00154484 0)
(-0.00720772 0.00153558 0)
(-0.00760167 0.00152557 0)
(-0.0079928 0.00151482 0)
(-0.00838088 0.00150333 0)
(-0.00876568 0.00149107 0)
(-0.00914698 0.00147801 0)
(-0.00952453 0.00146409 0)
(-0.0098981 0.00144926 0)
(-0.0102674 0.00143348 0)
(-0.0106322 0.00141667 0)
(-0.0109922 0.0013988 0)
(-0.0113472 0.0013798 0)
(-0.0116967 0.00135961 0)
(-0.0120406 0.0013382 0)
(-0.0123784 0.00131549 0)
(-0.0127099 0.00129144 0)
(-0.0130347 0.00126601 0)
(-0.0133524 0.00123912 0)
(-0.0136626 0.00121075 0)
(-0.0139651 0.00118084 0)
(-0.0142593 0.00114935 0)
(-0.0145449 0.00111623 0)
(-0.0148215 0.00108145 0)
(-0.0150886 0.00104497 0)
(-0.0153459 0.00100675 0)
(-0.0155928 0.000966781 0)
(-0.0158291 0.000925023 0)
(-0.0160542 0.000881464 0)
(-0.0162676 0.000836092 0)
(-0.016469 0.000788899 0)
(-0.016658 0.000739886 0)
(-0.016834 0.000689061 0)
(-0.0169966 0.000636439 0)
(-0.0171455 0.000582043 0)
(-0.0172801 0.000525904 0)
(-0.0174002 0.000468064 0)
(-0.0175053 0.000408571 0)
(-0.017595 0.000347486 0)
(-0.0176689 0.000284875 0)
(-0.0177268 0.000220818 0)
(-0.0177683 0.000155404 0)
(-0.0177931 8.87291e-05 0)
(-0.017801 2.09024e-05 0)
(-0.0177916 -4.7959e-05 0)
(-0.0177649 -0.000117729 0)
(-0.0177205 -0.000188271 0)
(-0.0176584 -0.000259443 0)
(-0.0175785 -0.000331094 0)
(-0.0174807 -0.000403064 0)
(-0.0173649 -0.00047519 0)
(-0.0172312 -0.000547303 0)
(-0.0170796 -0.000619228 0)
(-0.0169102 -0.000690789 0)
(-0.0167232 -0.000761808 0)
(-0.0165187 -0.000832105 0)
(-0.0162969 -0.000901501 0)
(-0.0160582 -0.000969821 0)
(-0.0158027 -0.00103689 0)
(-0.0155309 -0.00110254 0)
(-0.015243 -0.00116661 0)
(-0.0149397 -0.00122894 0)
(-0.0146212 -0.00128939 0)
(-0.014288 -0.00134781 0)
(-0.0139407 -0.00140408 0)
(-0.0135799 -0.00145809 0)
(-0.013206 -0.00150972 0)
(-0.0128197 -0.00155889 0)
(-0.0124216 -0.00160551 0)
(-0.0120122 -0.00164951 0)
(-0.0115923 -0.00169083 0)
(-0.0111625 -0.00172942 0)
(-0.0107234 -0.00176521 0)
(-0.0102758 -0.00179816 0)
(-0.00982036 -0.00182821 0)
(-0.00935774 -0.00185529 0)
(-0.00888872 -0.00187927 0)
(-0.00841406 -0.00190003 0)
(-0.0079346 -0.00191736 0)
(-0.00745121 -0.00193099 0)
(-0.00696484 -0.00194054 0)
(-0.00647658 -0.00194553 0)
(-0.00598762 -0.00194532 0)
(-0.00549933 -0.00193911 0)
(-0.00501329 -0.00192589 0)
(-0.00453132 -0.00190448 0)
(-0.00405555 -0.00187344 0)
(-0.00358843 -0.00183114 0)
(-0.00313276 -0.00177575 0)
(-0.00269177 -0.00170528 0)
(-0.00226905 -0.00161773 0)
(-0.00186859 -0.00151114 0)
(-0.00149475 -0.0013839 0)
(-0.00115211 -0.00123501 0)
(-0.000845404 -0.00106452 0)
(-0.000579393 -0.000874233 0)
(-0.000358633 -0.000668504 0)
(-0.000186438 -0.000455357 0)
(-6.98259e-05 -0.000247702 0)
(-7.04988e-06 -6.58246e-05 0)
(-1.26134e-05 0.000193146 0)
(-0.000113032 0.000537773 0)
(-0.000281453 0.000839427 0)
(-0.000513207 0.00109653 0)
(-0.000790881 0.0013109 0)
(-0.00110663 0.00148588 0)
(-0.00145275 0.00162574 0)
(-0.00182288 0.00173513 0)
(-0.00221177 0.00181874 0)
(-0.00261507 0.00188097 0)
(-0.00302918 0.00192582 0)
(-0.00345117 0.0019568 0)
(-0.00387864 0.00197691 0)
(-0.0043097 0.00198862 0)
(-0.00474283 0.00199395 0)
(-0.00517683 0.00199447 0)
(-0.00561079 0.00199139 0)
(-0.00604397 0.00198562 0)
(-0.00647579 0.00197781 0)
(-0.0069058 0.0019684 0)
(-0.00733361 0.00195769 0)
(-0.0077589 0.00194587 0)
(-0.00818137 0.00193302 0)
(-0.00860076 0.0019192 0)
(-0.00901682 0.00190439 0)
(-0.00942927 0.00188857 0)
(-0.00983788 0.0018717 0)
(-0.0102424 0.00185371 0)
(-0.0106425 0.00183456 0)
(-0.0110379 0.00181417 0)
(-0.0114284 0.00179249 0)
(-0.0118137 0.00176943 0)
(-0.0121933 0.00174494 0)
(-0.0125671 0.00171894 0)
(-0.0129346 0.00169138 0)
(-0.0132956 0.00166219 0)
(-0.0136496 0.0016313 0)
(-0.0139963 0.00159864 0)
(-0.0143352 0.00156417 0)
(-0.0146661 0.00152781 0)
(-0.0149884 0.00148952 0)
(-0.0153019 0.00144923 0)
(-0.0156059 0.0014069 0)
(-0.0159002 0.00136248 0)
(-0.0161842 0.00131592 0)
(-0.0164575 0.00126719 0)
(-0.0167197 0.00121626 0)
(-0.0169703 0.00116309 0)
(-0.0172088 0.00110767 0)
(-0.0174348 0.00104998 0)
(-0.0176478 0.000990018 0)
(-0.0178474 0.000927788 0)
(-0.018033 0.000863299 0)
(-0.0182043 0.000796574 0)
(-0.0183607 0.000727643 0)
(-0.0185019 0.000656549 0)
(-0.0186274 0.000583343 0)
(-0.0187369 0.000508091 0)
(-0.0188298 0.000430869 0)
(-0.0189059 0.000351763 0)
(-0.0189648 0.000270875 0)
(-0.0190062 0.000188315 0)
(-0.0190297 0.000104209 0)
(-0.0190351 1.86929e-05 0)
(-0.0190222 -6.80859e-05 0)
(-0.0189907 -0.000155968 0)
(-0.0189404 -0.000244784 0)
(-0.0188713 -0.000334352 0)
(-0.0187831 -0.000424485 0)
(-0.0186759 -0.000514984 0)
(-0.0185496 -0.000605644 0)
(-0.0184043 -0.000696254 0)
(-0.0182399 -0.000786598 0)
(-0.0180567 -0.000876455 0)
(-0.0178548 -0.000965604 0)
(-0.0176343 -0.00105382 0)
(-0.0173956 -0.00114089 0)
(-0.0171388 -0.00122658 0)
(-0.0168644 -0.00131069 0)
(-0.0165727 -0.00139301 0)
(-0.0162641 -0.00147333 0)
(-0.0159391 -0.00155146 0)
(-0.0155981 -0.00162723 0)
(-0.0152416 -0.00170045 0)
(-0.0148703 -0.00177098 0)
(-0.0144847 -0.00183867 0)
(-0.0140853 -0.00190339 0)
(-0.0136729 -0.00196502 0)
(-0.0132481 -0.00202347 0)
(-0.0128115 -0.00207865 0)
(-0.0123638 -0.00213048 0)
(-0.0119057 -0.00217888 0)
(-0.011438 -0.00222381 0)
(-0.0109613 -0.00226518 0)
(-0.0104764 -0.00230292 0)
(-0.00998408 -0.00233693 0)
(-0.00948507 -0.00236707 0)
(-0.00898022 -0.00239317 0)
(-0.00847039 -0.00241496 0)
(-0.00795651 -0.00243211 0)
(-0.0074396 -0.00244414 0)
(-0.00692077 -0.00245045 0)
(-0.0064013 -0.00245024 0)
(-0.00588261 -0.00244252 0)
(-0.00536635 -0.00242608 0)
(-0.0048544 -0.00239942 0)
(-0.00434897 -0.00236082 0)
(-0.00385258 -0.00230829 0)
(-0.00336812 -0.0022396 0)
(-0.00289888 -0.00215239 0)
(-0.00244855 -0.00204424 0)
(-0.00202125 -0.00191282 0)
(-0.00162144 -0.00175618 0)
(-0.00125388 -0.0015731 0)
(-0.000923586 -0.00136352 0)
(-0.000635696 -0.00112924 0)
(-0.000395345 -0.000874757 0)
(-0.000206544 -0.000608318 0)
(-7.77929e-05 -0.000343051 0)
(-7.90585e-06 -9.89851e-05 0)
(-1.35375e-05 0.000247844 0)
(-0.000121369 0.000679216 0)
(-0.000302116 0.00104953 0)
(-0.000550439 0.0013613 0)
(-0.000847293 0.00161928 0)
(-0.00118404 0.00182899 0)
(-0.00155234 0.00199636 0)
(-0.00194542 0.00212734 0)
(-0.00235773 0.00222763 0)
(-0.00278477 0.00230253 0)
(-0.00322283 0.00235675 0)
(-0.00366892 0.00239443 0)
(-0.0041206 0.00241907 0)
(-0.00457592 0.00243359 0)
(-0.00503334 0.00244037 0)
(-0.00549165 0.00244127 0)
(-0.00594987 0.00243774 0)
(-0.00640725 0.00243085 0)
(-0.00686319 0.00242138 0)
(-0.0073172 0.00240989 0)
(-0.00776885 0.00239674 0)
(-0.00821782 0.00238214 0)
(-0.00866376 0.00236624 0)
(-0.0091064 0.00234908 0)
(-0.00954545 0.00233067 0)
(-0.00998064 0.00231098 0)
(-0.0104117 0.00228997 0)
(-0.0108383 0.00226757 0)
(-0.0112602 0.00224371 0)
(-0.0116771 0.00221833 0)
(-0.0120886 0.00219133 0)
(-0.0124945 0.00216265 0)
(-0.0128944 0.0021322 0)
(-0.013288 0.00209991 0)
(-0.0136748 0.00206569 0)
(-0.0140546 0.00202948 0)
(-0.014427 0.00199119 0)
(-0.0147915 0.00195074 0)
(-0.0151478 0.00190807 0)
(-0.0154954 0.00186311 0)
(-0.0158339 0.00181578 0)
(-0.0161628 0.00176603 0)
(-0.0164818 0.00171379 0)
(-0.0167903 0.00165901 0)
(-0.0170879 0.00160163 0)
(-0.0173742 0.00154162 0)
(-0.0176486 0.00147894 0)
(-0.0179106 0.00141355 0)
(-0.0181599 0.00134543 0)
(-0.0183958 0.00127457 0)
(-0.018618 0.00120097 0)
(-0.0188258 0.00112462 0)
(-0.019019 0.00104555 0)
(-0.0191969 0.000963786 0)
(-0.0193591 0.000879366 0)
(-0.0195052 0.000792344 0)
(-0.0196348 0.000702786 0)
(-0.0197473 0.000610773 0)
(-0.0198425 0.000516398 0)
(-0.0199198 0.000419771 0)
(-0.019979 0.000321014 0)
(-0.0200197 0.000220266 0)
(-0.0200417 0.000117677 0)
(-0.0200445 1.34162e-05 0)
(-0.020028 -9.23375e-05 0)
(-0.019992 -0.00019939 0)
(-0.0199363 -0.000307534 0)
(-0.0198607 -0.000416551 0)
(-0.0197651 -0.000526211 0)
(-0.0196496 -0.000636274 0)
(-0.019514 -0.000746493 0)
(-0.0193585 -0.000856611 0)
(-0.019183 -0.000966368 0)
(-0.0189878 -0.0010755 0)
(-0.018773 -0.00118373 0)
(-0.0185388 -0.00129081 0)
(-0.0182854 -0.00139645 0)
(-0.0180133 -0.0015004 0)
(-0.0177227 -0.0016024 0)
(-0.0174141 -0.00170221 0)
(-0.0170878 -0.00179957 0)
(-0.0167444 -0.00189426 0)
(-0.0163844 -0.00198606 0)
(-0.0160084 -0.00207477 0)
(-0.0156168 -0.0021602 0)
(-0.0152105 -0.00224218 0)
(-0.0147899 -0.00232056 0)
(-0.0143557 -0.00239519 0)
(-0.0139087 -0.00246597 0)