/*--------------------------------*- C++ -*----------------------------------*\
| =========                 |                                                 |
| \\      /  F ield         | OpenFOAM: The Open Source CFD Toolbox           |
|  \\    /   O peration     | Version:  2406                                  |
|   \\  /    A nd           | Website:  www.openfoam.com                      |
|    \\/     M anipulation  |                                                 |
\*---------------------------------------------------------------------------*/
FoamFile
{
    version     2.0;
    format      ascii;
    arch        "LSB;label=32;scalar=64";
    class       volVectorField;
    location    "49";
    object      U_0;
}
// * * * * * * * * * * * * * * * * * * * * * * * * * * * * * * * * * * * * * //

dimensions      [0 1 -1 0 0 0 0];

internalField   nonuniform List<vector> 
14400
(
(-7.44476e-06 7.33191e-06 0)
(1.32233e-05 -1.1101e-05 0)
(0.000121818 -3.51478e-05 0)
(0.000314247 -5.47842e-05 0)
(0.000570498 -6.83992e-05 0)
(0.000867444 -7.57265e-05 0)
(0.00118183 -7.73477e-05 0)
(0.001493 -7.41868e-05 0)
(0.00178418 -6.7394e-05 0)
(0.00204315 -5.82061e-05 0)
(0.00226245 -4.78372e-05 0)
(0.00243914 -3.73763e-05 0)
(0.00257421 -2.77089e-05 0)
(0.00267169 -1.94697e-05 0)
(0.00273765 -1.30223e-05 0)
(0.0027792 -8.46208e-06 0)
(0.00280356 -5.70355e-06 0)
(0.002817 -4.56099e-06 0)
(0.00282427 -4.57703e-06 0)
(0.00282836 -5.21611e-06 0)
(0.00282994 -5.8738e-06 0)
(0.00282803 -5.70035e-06 0)
(0.00281991 -4.55828e-06 0)
(0.002801 -2.26304e-06 0)
(0.00276585 1.37464e-06 0)
(0.00270842 6.44419e-06 0)
(0.00262238 1.29721e-05 0)
(0.0025013 2.09588e-05 0)
(0.00233872 3.04044e-05 0)
(0.00212816 4.13262e-05 0)
(0.00186305 5.37623e-05 0)
(0.00153668 6.77653e-05 0)
(0.0011422 8.33887e-05 0)
(0.000672666 0.000100671 0)
(0.000121162 0.000119622 0)
(-0.000519051 0.000140212 0)
(-0.00125432 0.000162361 0)
(-0.00209036 0.000185938 0)
(-0.00303202 0.000210754 0)
(-0.00408303 0.000236564 0)
(-0.00524569 0.000263063 0)
(-0.0065207 0.000289892 0)
(-0.00790687 0.00031664 0)
(-0.00940091 0.000342848 0)
(-0.0109973 0.000368017 0)
(-0.0126882 0.000391617 0)
(-0.0144633 0.000413094 0)
(-0.0163098 0.00043188 0)
(-0.0182125 0.0004474 0)
(-0.020154 0.000459086 0)
(-0.0221145 0.000466379 0)
(-0.0240723 0.000468739 0)
(-0.0260041 0.000465652 0)
(-0.0278848 0.000456642 0)
(-0.0296882 0.000441273 0)
(-0.0313873 0.000419162 0)
(-0.0329544 0.000389985 0)
(-0.0343618 0.000353504 0)
(-0.0355818 0.000309561 0)
(-0.0365878 0.000257989 0)
(-0.037355 0.000199207 0)
(-0.0378598 0.000135358 0)
(-0.0380775 6.64482e-05 0)
(-0.0379887 -1.09807e-05 0)
(-0.0375823 -9.43756e-05 0)
(-0.0368456 -0.000181257 0)
(-0.0357721 -0.00027035 0)
(-0.0343606 -0.000360166 0)
(-0.0326164 -0.000448936 0)
(-0.0305509 -0.000534694 0)
(-0.0281828 -0.000615328 0)
(-0.0255372 -0.000688649 0)
(-0.0226468 -0.000752483 0)
(-0.0195506 -0.000804765 0)
(-0.0162939 -0.000843645 0)
(-0.0129272 -0.000867599 0)
(-0.00950514 -0.000875527 0)
(-0.00608503 -0.000866848 0)
(-0.00272523 -0.00084156 0)
(0.000516716 -0.000800284 0)
(0.00358595 -0.000744256 0)
(0.00643221 -0.00067529 0)
(0.00901154 -0.000595699 0)
(0.0112878 -0.000508174 0)
(0.013234 -0.000415638 0)
(0.0148327 -0.000321087 0)
(0.0160769 -0.000227424 0)
(0.0169691 -0.000137287 0)
(0.0175217 -5.27638e-05 0)
(0.0177567 2.36563e-05 0)
(0.0176992 8.81264e-05 0)
(0.0173803 0.00014271 0)
(0.0168394 0.000188733 0)
(0.0161156 0.000224986 0)
(0.0152472 0.000251118 0)
(0.0142715 0.000267937 0)
(0.0132243 0.000276503 0)
(0.0121376 0.000277954 0)
(0.0110398 0.000273482 0)
(0.00995474 0.000264272 0)
(0.00890194 0.000251451 0)
(0.00789642 0.000236057 0)
(0.00694909 0.000219013 0)
(0.00606719 0.000201115 0)
(0.00525468 0.00018303 0)
(0.00451277 0.000165298 0)
(0.00384045 0.000148347 0)
(0.00323491 0.000132497 0)
(0.00269203 0.000117967 0)
(0.00220685 0.00010487 0)
(0.00177405 9.31927e-05 0)
(0.00138856 8.2764e-05 0)
(0.00104628 7.32184e-05 0)
(0.00074488 6.39624e-05 0)
(0.000484685 5.4167e-05 0)
(0.000269322 4.28623e-05 0)
(0.000105814 2.91989e-05 0)
(3.08666e-06 1.29413e-05 0)
(-3.43681e-05 -3.82147e-06 0)
(-1.33683e-05 -1.33869e-05 0)
(9.8861e-06 -1.23051e-05 0)
(0.000152457 -0.000157158 0)
(0.00048142 -0.000335495 0)
(0.000990992 -0.000485349 0)
(0.00163536 -0.000591225 0)
(0.00236733 -0.000649465 0)
(0.00313652 -0.000662758 0)
(0.00389672 -0.000637427 0)
(0.00460932 -0.000581939 0)
(0.00524521 -0.000505749 0)
(0.00578552 -0.000418335 0)
(0.00622128 -0.000328365 0)
(0.00655232 -0.000243036 0)
(0.00678548 -0.000167644 0)
(0.00693241 -0.000105385 0)
(0.00700727 -5.73668e-05 0)
(0.00702454 -2.28447e-05 0)
(0.00699698 3.94779e-07 0)
(0.00693414 1.58913e-05 0)
(0.00684119 2.78539e-05 0)
(0.00671857 4.06727e-05 0)
(0.00656161 5.86831e-05 0)
(0.00636119 8.51476e-05 0)
(0.00610491 0.000122615 0)
(0.00577765 0.000172822 0)
(0.00536258 0.000236754 0)
(0.00484192 0.000314847 0)
(0.00419752 0.000407233 0)
(0.00341115 0.000513942 0)
(0.00246461 0.000635027 0)
(0.00133985 0.000770597 0)
(1.9042e-05 0.000920757 0)
(-0.0015152 0.0010855 0)
(-0.00327951 0.0012646 0)
(-0.00528924 0.00145747 0)
(-0.00755795 0.00166309 0)
(-0.0100967 0.00187992 0)
(-0.0129134 0.00210592 0)
(-0.016012 0.00233845 0)
(-0.019392 0.00257438 0)
(-0.023048 0.00281003 0)
(-0.0269687 0.00304128 0)
(-0.031137 0.0032636 0)
(-0.0355299 0.00347221 0)
(-0.0401182 0.00366212 0)
(-0.0448665 0.00382827 0)
(-0.0497343 0.00396567 0)
(-0.0546759 0.0040695 0)
(-0.059641 0.00413525 0)
(-0.0645759 0.00415878 0)
(-0.0694242 0.00413644 0)
(-0.0741276 0.00406516 0)
(-0.0786267 0.00394246 0)
(-0.0828623 0.00376654 0)
(-0.086776 0.00353628 0)
(-0.090311 0.00325131 0)
(-0.0934129 0.00291198 0)
(-0.0960307 0.00251945 0)
(-0.0981173 0.00207572 0)
(-0.0996297 0.00158357 0)
(-0.10053 0.00104694 0)
(-0.100787 0.000471883 0)
(-0.100377 -0.000135417 0)
(-0.0992797 -0.000772127 0)
(-0.0974828 -0.00142941 0)
(-0.0949847 -0.00209799 0)
(-0.0917919 -0.00276791 0)
(-0.0879193 -0.00342844 0)
(-0.0833918 -0.00406807 0)
(-0.0782441 -0.00467469 0)
(-0.0725209 -0.00523587 0)
(-0.0662775 -0.00573912 0)
(-0.0595787 -0.0061723 0)
(-0.052499 -0.00652408 0)
(-0.0451215 -0.00678435 0)
(-0.0375369 -0.00694475 0)
(-0.0298419 -0.00699912 0)
(-0.0221377 -0.00694395 0)
(-0.0145277 -0.0067787 0)
(-0.0071152 -0.00650604 0)
(-1.17712e-06 -0.00613198 0)
(0.00671875 -0.00566572 0)
(0.0129567 -0.0051195 0)
(0.0186349 -0.0045081 0)
(0.0236884 -0.00384832 0)
(0.0280663 -0.00315826 0)
(0.0317339 -0.00245659 0)
(0.0346731 -0.0017617 0)
(0.0368827 -0.00109099 0)
(0.0383776 -0.000460344 0)
(0.0391895 0.00011508 0)
(0.0393663 0.000627682 0)
(0.0389649 0.00107153 0)
(0.0380514 0.00144124 0)
(0.0366999 0.00173489 0)
(0.0349885 0.00195414 0)
(0.0329955 0.00210315 0)
(0.0307969 0.00218801 0)
(0.0284645 0.00221622 0)
(0.0260633 0.00219615 0)
(0.0236507 0.00213652 0)
(0.0212749 0.00204596 0)
(0.0189751 0.00193264 0)
(0.0167813 0.00180401 0)
(0.0147152 0.00166667 0)
(0.0127906 0.00152621 0)
(0.0110145 0.00138727 0)
(0.00938823 0.0012535 0)
(0.00790873 0.00112756 0)
(0.00656952 0.00101105 0)
(0.00536227 0.0009044 0)
(0.00427824 0.000806655 0)
(0.00331005 0.000715261 0)
(0.00245347 0.000625947 0)
(0.00170916 0.000532887 0)
(0.00108378 0.00042955 0)
(0.000589697 0.000310748 0)
(0.000240975 0.000177057 0)
(4.82553e-05 4.28155e-05 0)
(-2.72211e-06 -3.33918e-05 0)
(3.20693e-05 -0.000114621 0)
(0.000320066 -0.000481636 0)
(0.000855809 -0.000874788 0)
(0.00162792 -0.00120315 0)
(0.00256803 -0.00143565 0)
(0.00361618 -0.0015629 0)
(0.00470648 -0.00158909 0)
(0.00577774 -0.001527 0)
(0.00677805 -0.00139473 0)
(0.00766751 -0.00121301 0)
(0.00841926 -0.00100295 0)
(0.00901925 -0.000784039 0)
(0.00946487 -0.000572659 0)
(0.00976268 -0.000381024 0)
(0.00992565 -0.000216658 0)
(0.00997007 -8.23347e-05 0)
(0.00991259 2.35844e-05 0)
(0.00976761 0.000106393 0)
(0.00954507 0.000174146 0)
(0.00924882 0.000236536 0)
(0.00887606 0.000303735 0)
(0.00841713 0.000385233 0)
(0.00785627 0.000489396 0)
(0.00717271 0.00062264 0)
(0.00634195 0.000789349 0)
(0.00533703 0.000992117 0)
(0.00412963 0.00123218 0)
(0.00269099 0.00150989 0)
(0.000992436 0.00182517 0)
(-0.000994138 0.00217771 0)
(-0.00329587 0.00256705 0)
(-0.00593844 0.00299237 0)
(-0.00894543 0.00345228 0)
(-0.0123375 0.00394453 0)
(-0.0161314 0.00446576 0)
(-0.0203388 0.00501131 0)
(-0.0249655 0.00557516 0)
(-0.03001 0.00614987 0)
(-0.0354629 0.00672668 0)
(-0.0413059 0.0072956 0)
(-0.0475115 0.00784564 0)
(-0.0540429 0.00836508 0)
(-0.0608541 0.00884175 0)
(-0.0678904 0.0092634 0)
(-0.0750894 0.00961805 0)
(-0.0823823 0.00989436 0)
(-0.0896948 0.010082 0)
(-0.0969492 0.0101717 0)
(-0.104066 0.010156 0)
(-0.110964 0.0100289 0)
(-0.117566 0.00978603 0)
(-0.123794 0.00942495 0)
(-0.129575 0.00894491 0)
(-0.134841 0.00834679 0)
(-0.139529 0.00763309 0)
(-0.14358 0.00680776 0)
(-0.146945 0.00587616 0)
(-0.149578 0.00484492 0)
(-0.151441 0.00372201 0)
(-0.152503 0.00251661 0)
(-0.152738 0.00123882 0)
(-0.152128 -0.000100327 0)
(-0.150665 -0.00148655 0)
(-0.148345 -0.00290489 0)
(-0.145171 -0.00434094 0)
(-0.141154 -0.00577814 0)
(-0.136312 -0.00719808 0)
(-0.130675 -0.00858115 0)
(-0.124278 -0.00990673 0)
(-0.117165 -0.0111534 0)
(-0.109391 -0.0122995 0)
(-0.101017 -0.0133232 0)
(-0.0921165 -0.0142035 0)
(-0.0827687 -0.0149206 0)
(-0.0730628 -0.0154566 0)
(-0.0630954 -0.0157965 0)
(-0.0529694 -0.0159288 0)
(-0.042793 -0.0158462 0)
(-0.0326781 -0.0155462 0)
(-0.0227381 -0.015032 0)
(-0.0130858 -0.0143119 0)
(-0.00383143 -0.0134003 0)
(0.00492037 -0.0123169 0)
(0.0130726 -0.0110863 0)
(0.0205386 -0.00973728 0)
(0.0272437 -0.0083021 0)
(0.033128 -0.00681506 0)
(0.0381473 -0.0053114 0)
(0.0422746 -0.00382599 0)
(0.0455006 -0.00239186 0)
(0.0478355 -0.00103814 0)
(0.0493077 0.000208599 0)
(0.0499598 0.00132575 0)
(0.0498509 0.00229768 0)
(0.0490547 0.00311483 0)
(0.0476551 0.00377311 0)
(0.0457429 0.00427406 0)
(0.0434134 0.00462444 0)
(0.0407621 0.00483539 0)
(0.0378817 0.00492149 0)
(0.0348591 0.00489965 0)
(0.031773 0.00478806 0)
(0.0286918 0.00460519 0)
(0.0256729 0.00436888 0)
(0.0227618 0.00409574 0)
(0.0199929 0.0038006 0)
(0.0173901 0.00349627 0)
(0.0149676 0.0031933 0)
(0.0127316 0.00289982 0)
(0.0106822 0.00262131 0)
(0.00881515 0.00236031 0)
(0.00712389 0.00211598 0)
(0.00560228 0.00188381 0)
(0.00424679 0.00165552 0)
(0.00305878 0.00141963 0)
(0.00204588 0.00116348 0)
(0.00122172 0.00087737 0)
(0.000600256 0.000562455 0)
(0.000203294 0.000243535 0)
(1.6962e-05 1.21815e-05 0)
(4.98403e-05 -0.00029458 0)
(0.000461575 -0.000979241 0)
(0.00117367 -0.00164476 0)
(0.00216166 -0.00218936 0)
(0.00333197 -0.00257021 0)
(0.00461336 -0.00277321 0)
(0.00592877 -0.00280491 0)
(0.00720726 -0.002686 0)
(0.00838878 -0.00244624 0)
(0.0094269 -0.00212008 0)
(0.0102899 -0.00174273 0)
(0.0109603 -0.00134685 0)
(0.0114333 -0.000959975 0)
(0.0117141 -0.000602694 0)
(0.011815 -0.00028771 0)
(0.0117513 -1.96588e-05 0)
(0.0115385 0.000204363 0)
(0.011189 0.000393649 0)
(0.0107096 0.000562219 0)
(0.0100996 0.000726986 0)
(0.00935029 0.000905759 0)
(0.00844496 0.00111539 0)
(0.00735959 0.00137038 0)
(0.00606438 0.00168197 0)
(0.00452529 0.00205789 0)
(0.00270572 0.0025027 0)
(0.000567873 0.00301844 0)
(-0.00192599 0.00360538 0)
(-0.0048126 0.00426266 0)
(-0.0081268 0.00498858 0)
(-0.0119006 0.00578055 0)
(-0.0161619 0.00663481 0)
(-0.0209336 0.00754598 0)
(-0.0262318 0.00850664 0)
(-0.0320645 0.00950694 0)
(-0.03843 0.0105345 0)
(-0.0453156 0.0115743 0)
(-0.052697 0.0126089 0)
(-0.0605372 0.0136191 0)
(-0.0687869 0.0145837 0)
(-0.0773847 0.015481 0)
(-0.0862583 0.0162889 0)
(-0.0953262 0.0169857 0)
(-0.1045 0.0175514 0)
(-0.113685 0.0179676 0)
(-0.122785 0.0182187 0)
(-0.131705 0.0182922 0)
(-0.140349 0.0181785 0)
(-0.14863 0.0178718 0)
(-0.156461 0.0173692 0)
(-0.163766 0.0166712 0)
(-0.170475 0.0157811 0)
(-0.176528 0.0147043 0)
(-0.181869 0.0134489 0)
(-0.186453 0.0120243 0)
(-0.190242 0.0104417 0)
(-0.193205 0.00871355 0)
(-0.195316 0.00685329 0)
(-0.196557 0.00487554 0)
(-0.196914 0.00279595 0)
(-0.196378 0.000631212 0)
(-0.194946 -0.00160128 0)
(-0.192619 -0.00388323 0)
(-0.189404 -0.00619272 0)
(-0.185311 -0.00850771 0)
(-0.180357 -0.0108048 0)
(-0.174562 -0.0130589 0)
(-0.167955 -0.0152431 0)
(-0.160569 -0.0173293 0)
(-0.152445 -0.0192879 0)
(-0.143632 -0.0210889 0)
(-0.134186 -0.0227018 0)
(-0.124172 -0.0240969 0)
(-0.113662 -0.0252459 0)
(-0.102738 -0.0261228 0)
(-0.0914906 -0.0267051 0)
(-0.0800157 -0.0269747 0)
(-0.0684171 -0.0269194 0)
(-0.0568036 -0.0265331 0)
(-0.0452872 -0.0258174 0)
(-0.0339817 -0.0247814 0)
(-0.0230002 -0.0234422 0)
(-0.0124532 -0.0218248 0)
(-0.0024459 -0.0199616 0)
(0.00692385 -0.0178914 0)
(0.0155677 -0.0156584 0)
(0.0234086 -0.013311 0)
(0.0303829 -0.0108997 0)
(0.0364414 -0.00847612 0)
(0.0415508 -0.00609083 0)
(0.0456947 -0.00379187 0)
(0.0488732 -0.00162426 0)
(0.0511037 0.000372727 0)
(0.0524224 0.00216744 0)
(0.0528809 0.00373566 0)
(0.0525461 0.00506113 0)
(0.0514981 0.00613627 0)
(0.0498277 0.00696211 0)
(0.0476329 0.00754772 0)
(0.0450157 0.00790925 0)
(0.042078 0.00806858 0)
(0.0389179 0.0080518 0)
(0.035627 0.00788746 0)
(0.032287 0.00760502 0)
(0.0289684 0.00723335 0)
(0.0257293 0.00679954 0)
(0.0226151 0.00632798 0)
(0.0196591 0.00583964 0)
(0.0168836 0.00535145 0)
(0.0143015 0.00487575 0)
(0.0119186 0.00441963 0)
(0.00973607 0.00398432 0)
(0.00775302 0.00356464 0)
(0.00596953 0.00314907 0)
(0.00438924 0.00272082 0)
(0.0030213 0.00226096 0)
(0.00188117 0.00175433 0)
(0.000984528 0.00120011 0)
(0.000372221 0.000627003 0)
(3.84181e-05 0.000138051 0)
(6.32054e-05 -0.000535558 0)
(0.000572306 -0.00161319 0)
(0.00142682 -0.00259061 0)
(0.00258668 -0.00336816 0)
(0.00393262 -0.00389875 0)
(0.00538107 -0.00416777 0)
(0.00684481 -0.00418657 0)
(0.00824545 -0.0039856 0)
(0.00951761 -0.00360787 0)
(0.0106113 -0.00310287 0)
(0.0114923 -0.00252098 0)
(0.0121416 -0.00190882 0)
(0.0125529 -0.00130549 0)
(0.0127302 -0.000740056 0)
(0.0126837 -0.000230136 0)
(0.012426 0.000218352 0)
(0.0119689 0.000610418 0)
(0.0113198 0.00096039 0)
(0.0104792 0.0012895 0)
(0.009439 0.00162309 0)
(0.00818191 0.00198767 0)
(0.0066819 0.00240817 0)
(0.00490529 0.00290586 0)
(0.00281262 0.00349703 0)
(0.000360564 0.00419264 0)
(-0.00249603 0.00499877 0)
(-0.00580236 0.00591747 0)
(-0.00960205 0.00694777 0)
(-0.0139357 0.00808636 0)
(-0.0188392 0.00932787 0)
(-0.0243423 0.0106647 0)
(-0.0304667 0.0120864 0)
(-0.0372239 0.0135795 0)
(-0.0446136 0.0151265 0)
(-0.0526217 0.0167061 0)
(-0.0612195 0.0182928 0)
(-0.0703622 0.019858 0)
(-0.0799899 0.0213701 0)
(-0.0900277 0.022796 0)
(-0.100388 0.0241018 0)
(-0.110971 0.0252546 0)
(-0.121673 0.0262235 0)
(-0.132382 0.0269809 0)
(-0.142988 0.0275032 0)
(-0.153383 0.0277722 0)
(-0.163463 0.0277748 0)
(-0.173134 0.0275032 0)
(-0.182311 0.0269549 0)
(-0.190917 0.0261322 0)
(-0.198887 0.0250412 0)
(-0.206167 0.0236917 0)
(-0.212711 0.022096 0)
(-0.218484 0.0202685 0)
(-0.223455 0.0182251 0)
(-0.227604 0.0159825 0)
(-0.230912 0.0135584 0)
(-0.233369 0.0109708 0)
(-0.234965 0.00823809 0)
(-0.235694 0.00537917 0)
(-0.235555 0.0024134 0)
(-0.234545 -0.000638926 0)
(-0.232665 -0.00375652 0)
(-0.22992 -0.00691762 0)
(-0.226313 -0.0100982 0)
(-0.221853 -0.0132722 0)
(-0.216551 -0.0164118 0)
(-0.21042 -0.0194872 0)
(-0.20348 -0.0224662 0)
(-0.195755 -0.0253144 0)
(-0.187274 -0.027996 0)
(-0.178075 -0.0304732 0)
(-0.168202 -0.0327077 0)
(-0.157708 -0.0346614 0)
(-0.146654 -0.0362973 0)
(-0.135113 -0.0375806 0)
(-0.123164 -0.0384804 0)
(-0.110897 -0.0389711 0)
(-0.0984101 -0.0390335 0)
(-0.0858068 -0.0386564 0)
(-0.0731976 -0.0378377 0)
(-0.0606962 -0.0365849 0)
(-0.0484177 -0.0349159 0)
(-0.0364761 -0.0328585 0)
(-0.0249819 -0.0304504 0)
(-0.0140401 -0.0277379 0)
(-0.00374758 -0.0247745 0)
(0.00580832 -0.0216196 0)
(0.0145516 -0.0183367 0)
(0.0224189 -0.0149911 0)
(0.02936 -0.0116486 0)
(0.0353391 -0.00837319 0)
(0.0403348 -0.00522581 0)
(0.0443411 -0.00226145 0)
(0.0473682 0.000470905 0)
(0.0494418 0.00293007 0)
(0.0506037 0.00508432 0)
(0.050911 0.00691216 0)
(0.0504353 0.00840293 0)
(0.0492606 0.00955691 0)
(0.0474807 0.0103849 0)
(0.0451962 0.0109073 0)
(0.0425103 0.0111525 0)
(0.0395255 0.0111548 0)
(0.0363395 0.0109525 0)
(0.033042 0.0105855 0)
(0.0297122 0.0100934 0)
(0.0264173 0.00951331 0)
(0.0232116 0.00887873 0)
(0.0201369 0.00821798 0)
(0.0172234 0.00755304 0)
(0.0144915 0.00689837 0)
(0.0119544 0.00625991 0)
(0.00962036 0.00563422 0)
(0.0074964 0.00500858 0)
(0.0055911 0.00436238 0)
(0.00391743 0.00367087 0)
(0.00249514 0.00291213 0)
(0.00134488 0.00207856 0)
(0.000530572 0.00119217 0)
(5.81829e-05 0.00034543 0)
(7.31215e-05 -0.000823285 0)
(0.000657209 -0.00235613 0)
(0.00162311 -0.00367905 0)
(0.00291496 -0.0047 0)
(0.00438875 -0.00537375 0)
(0.00594742 -0.00569001 0)
(0.00749353 -0.00566869 0)
(0.00894212 -0.00535285 0)
(0.0102242 -0.00480094 0)
(0.011288 -0.00407898 0)
(0.012099 -0.00325342 0)
(0.0126381 -0.00238507 0)
(0.0128987 -0.00152435 0)
(0.0128834 -0.000708058 0)
(0.0125997 4.23175e-05 0)
(0.0120564 0.000720881 0)
(0.0112592 0.00133622 0)
(0.010208 0.00190912 0)
(0.0088942 0.00246933 0)
(0.00729949 0.00305167 0)
(0.00539576 0.00369202 0)
(0.00314599 0.00442362 0)
(0.000506056 0.00527424 0)
(-0.00257298 0.00626452 0)
(-0.00614232 0.00740755 0)
(-0.0102531 0.0087094 0)
(-0.0149539 0.0101702 0)
(-0.0202888 0.0117852 0)
(-0.0262954 0.0135455 0)
(-0.0330019 0.0154382 0)
(-0.0404253 0.017446 0)
(-0.048569 0.0195467 0)
(-0.0574199 0.0217127 0)
(-0.0669475 0.0239109 0)
(-0.0771025 0.0261031 0)
(-0.0878167 0.0282465 0)
(-0.0990044 0.0302957 0)
(-0.110564 0.0322037 0)
(-0.122384 0.0339245 0)
(-0.134342 0.0354148 0)
(-0.146314 0.0366357 0)
(-0.158177 0.0375546 0)
(-0.169814 0.0381461 0)
(-0.181114 0.0383924 0)
(-0.191981 0.0382836 0)
(-0.20233 0.0378172 0)
(-0.212088 0.036997 0)
(-0.221197 0.0358325 0)
(-0.229611 0.0343375 0)
(-0.237294 0.0325291 0)
(-0.24422 0.0304266 0)
(-0.250368 0.0280508 0)
(-0.255727 0.0254228 0)
(-0.260287 0.0225641 0)
(-0.264042 0.0194958 0)
(-0.26699 0.0162388 0)
(-0.269126 0.0128135 0)
(-0.270451 0.00923979 0)
(-0.270961 0.00553784 0)
(-0.270656 0.00172791 0)
(-0.269532 -0.00216912 0)
(-0.267587 -0.00613138 0)
(-0.264821 -0.0101352 0)
(-0.261231 -0.0141554 0)
(-0.256818 -0.0181642 0)
(-0.251581 -0.0221311 0)
(-0.245527 -0.0260228 0)
(-0.238661 -0.0298028 0)
(-0.230997 -0.0334316 0)
(-0.222549 -0.0368668 0)
(-0.213344 -0.0400636 0)
(-0.20341 -0.0429757 0)
(-0.19279 -0.0455557 0)
(-0.181531 -0.0477571 0)
(-0.169695 -0.0495353 0)
(-0.157351 -0.0508493 0)
(-0.144582 -0.0516639 0)
(-0.131478 -0.0519512 0)
(-0.118142 -0.0516925 0)
(-0.104682 -0.05088 0)
(-0.0912137 -0.0495178 0)
(-0.0778563 -0.0476224 0)
(-0.0647295 -0.0452232 0)
(-0.0519511 -0.042362 0)
(-0.0396341 -0.0390912 0)
(-0.0278843 -0.0354732 0)
(-0.0167978 -0.0315776 0)
(-0.00645985 -0.0274793 0)
(0.00305677 -0.0232563 0)
(0.0116919 -0.0189872 0)
(0.0193984 -0.0147496 0)
(0.0261422 -0.010618 0)
(0.0319019 -0.00666193 0)
(0.0366698 -0.002945 0)
(0.0404511 0.000476787 0)
(0.043265 0.00355652 0)
(0.0451452 0.00625764 0)
(0.0461395 0.00855505 0)
(0.0463101 0.0104361 0)
(0.0457322 0.0119007 0)
(0.0444925 0.0129617 0)
(0.0426861 0.0136431 0)
(0.0404134 0.013979 0)
(0.0377764 0.0140114 0)
(0.0348742 0.0137871 0)
(0.0318001 0.0133555 0)
(0.0286384 0.0127653 0)
(0.025462 0.0120627 0)
(0.0223321 0.0112884 0)
(0.0192971 0.010476 0)
(0.0163946 0.00964969 0)
(0.0136523 0.00882264 0)
(0.0110913 0.0079958 0)
(0.00872823 0.00715758 0)
(0.0065798 0.00628519 0)
(0.00466571 0.00534859 0)
(0.00301287 0.0043175 0)
(0.0016499 0.00317265 0)
(0.000664213 0.00191993 0)
(7.4713e-05 0.000624788 0)
(8.0828e-05 -0.00114683 0)
(0.000723291 -0.00318349 0)
(0.00177451 -0.00487659 0)
(0.00316292 -0.0061434 0)
(0.00472108 -0.00694529 0)
(0.00633784 -0.00728118 0)
(0.00790552 -0.00718395 0)
(0.00933327 -0.00671293 0)
(0.0105496 -0.00594471 0)
(0.0115028 -0.00496355 0)
(0.0121594 -0.0038527 0)
(0.0125014 -0.00268697 0)
(0.0125228 -0.00152717 0)
(0.0122249 -0.000416335 0)
(0.0116121 0.000622036 0)
(0.0106873 0.00158408 0)
(0.00944852 0.00248394 0)
(0.00788566 0.00335063 0)
(0.00597861 0.00422371 0)
(0.00369672 0.00514822 0)
(0.00099944 0.00616947 0)
(-0.00216186 0.00732832 0)
(-0.00584124 0.0086577 0)
(-0.0100952 0.0101806 0)
(-0.0149795 0.0119099 0)
(-0.0205462 0.0138485 0)
(-0.0268409 0.0159911 0)
(-0.0338998 0.0183251 0)
(-0.041747 0.0208311 0)
(-0.0503916 0.023483 0)
(-0.0598248 0.0262477 0)
(-0.0700177 0.0290849 0)
(-0.0809198 0.0319473 0)
(-0.0924587 0.0347814 0)
(-0.104541 0.0375288 0)
(-0.117056 0.0401288 0)
(-0.129878 0.0425208 0)
(-0.142872 0.0446474 0)
(-0.155902 0.0464565 0)
(-0.168833 0.0479042 0)
(-0.181538 0.0489561 0)
(-0.193902 0.0495883 0)
(-0.205823 0.0497871 0)
(-0.217217 0.0495488 0)
(-0.228016 0.0488783 0)
(-0.238167 0.0477876 0)
(-0.24763 0.0462944 0)
(-0.256378 0.0444203 0)
(-0.264393 0.0421894 0)
(-0.271663 0.0396271 0)
(-0.278184 0.0367593 0)
(-0.283954 0.0336112 0)
(-0.288973 0.0302075 0)
(-0.293242 0.0265712 0)
(-0.296762 0.0227246 0)
(-0.299535 0.0186885 0)
(-0.301559 0.0144831 0)
(-0.302834 0.0101275 0)
(-0.303356 0.00564102 0)
(-0.303121 0.00104302 0)
(-0.302123 -0.00364638 0)
(-0.300356 -0.00840584 0)
(-0.297812 -0.013212 0)
(-0.294482 -0.0180392 0)
(-0.29036 -0.0228589 0)
(-0.285437 -0.027639 0)
(-0.279707 -0.0323437 0)
(-0.273167 -0.0369333 0)
(-0.265816 -0.0413638 0)
(-0.257658 -0.0455872 0)
(-0.248702 -0.049552 0)
(-0.238965 -0.0532037 0)
(-0.228471 -0.0564859 0)
(-0.217256 -0.0593416 0)
(-0.205365 -0.061715 0)
(-0.192857 -0.0635536 0)
(-0.179801 -0.0648103 0)
(-0.166282 -0.0654459 0)
(-0.152395 -0.0654315 0)
(-0.13825 -0.0647504 0)
(-0.123962 -0.0634002 0)
(-0.109656 -0.0613939 0)
(-0.0954616 -0.0587601 0)
(-0.0815066 -0.0555431 0)
(-0.067917 -0.0518011 0)
(-0.054812 -0.0476048 0)
(-0.0423007 -0.0430346 0)
(-0.0304802 -0.0381777 0)
(-0.019434 -0.033125 0)
(-0.00923083 -0.0279686 0)
(7.44628e-05 -0.0227992 0)
(0.00844074 -0.0177039 0)
(0.0158395 -0.0127646 0)
(0.0222539 -0.00805703 0)
(0.0276783 -0.0036493 0)
(0.032118 0.000399035 0)
(0.0355897 0.00403822 0)
(0.0381221 0.00722952 0)
(0.0397564 0.00994652 0)
(0.040547 0.0121762 0)
(0.0405612 0.0139194 0)
(0.0398777 0.0151912 0)
(0.0385853 0.0160195 0)
(0.0367793 0.0164438 0)
(0.0345582 0.0165125 0)
(0.0320199 0.01628 0)
(0.0292581 0.0158035 0)
(0.0263588 0.0151395 0)
(0.0233986 0.0143404 0)
(0.0204427 0.0134517 0)
(0.017545 0.0125084 0)
(0.0147492 0.0115329 0)
(0.0120902 0.0105327 0)
(0.00959723 0.00949947 0)
(0.00729739 0.00840984 0)
(0.00521985 0.00722902 0)
(0.00340114 0.00591712 0)
(0.00187987 0.00443928 0)
(0.000764803 0.0027783 0)
(8.70517e-05 0.000961572 0)
(8.72205e-05 -0.00149894 0)
(0.000776217 -0.0040762 0)
(0.00189094 -0.0061543 0)
(0.00334382 -0.00766053 0)
(0.00494504 -0.00856668 0)
(0.00656942 -0.00888577 0)
(0.00809953 -0.00866852 0)
(0.00943954 -0.00799471 0)
(0.0105168 -0.00696211 0)
(0.0112811 -0.00567509 0)
(0.0117012 -0.0042342 0)
(0.0117615 -0.00272764 0)
(0.0114566 -0.00122505 0)
(0.0107862 0.000226495 0)
(0.0097505 0.00160406 0)
(0.0083453 0.00290844 0)
(0.00655864 0.0041617 0)
(0.0043683 0.00540293 0)
(0.00174082 0.0066826 0)
(-0.00136813 0.00805611 0)
(-0.00501177 0.00957725 0)
(-0.0092493 0.0112926 0)
(-0.0141421 0.0132374 0)
(-0.01975 0.0154336 0)
(-0.0261273 0.0178895 0)
(-0.0333194 0.0206004 0)
(-0.0413591 0.0235501 0)
(-0.0502636 0.0267122 0)
(-0.0600311 0.0300503 0)
(-0.0706381 0.0335186 0)
(-0.082037 0.0370618 0)
(-0.0941553 0.0406163 0)
(-0.106897 0.0441115 0)
(-0.120143 0.0474727 0)
(-0.13376 0.0506238 0)
(-0.147601 0.0534912 0)
(-0.161517 0.0560078 0)
(-0.175361 0.0581159 0)
(-0.188997 0.0597692 0)
(-0.202299 0.0609351 0)
(-0.215163 0.0615939 0)
(-0.227502 0.0617387 0)
(-0.239247 0.0613738 0)
(-0.250348 0.0605126 0)
(-0.260771 0.0591757 0)
(-0.270494 0.0573886 0)
(-0.279504 0.0551799 0)
(-0.287797 0.0525797 0)
(-0.295374 0.0496183 0)
(-0.302238 0.0463253 0)
(-0.308394 0.0427291 0)
(-0.31385 0.038856 0)
(-0.31861 0.0347307 0)
(-0.322679 0.0303759 0)
(-0.326061 0.0258127 0)
(-0.328757 0.0210605 0)
(-0.330767 0.0161378 0)
(-0.33209 0.0110622 0)
(-0.332722 0.00585123 0)
(-0.332658 0.000522547 0)
(-0.331891 -0.00490518 0)
(-0.33041 -0.0104119 0)
(-0.328206 -0.0159756 0)
(-0.325265 -0.0215711 0)
(-0.321575 -0.0271703 0)
(-0.317121 -0.0327408 0)
(-0.311888 -0.0382459 0)
(-0.305862 -0.0436438 0)
(-0.299031 -0.0488875 0)
(-0.291384 -0.053925 0)
(-0.282916 -0.0586989 0)
(-0.273625 -0.0631476 0)
(-0.263519 -0.0672059 0)
(-0.252613 -0.0708064 0)
(-0.240935 -0.0738813 0)
(-0.228523 -0.076365 0)
(-0.215434 -0.0781962 0)
(-0.201736 -0.0793215 0)
(-0.187516 -0.0796978 0)
(-0.172875 -0.0792957 0)
(-0.157929 -0.078102 0)
(-0.142807 -0.0761217 0)
(-0.127647 -0.073379 0)
(-0.112592 -0.0699177 0)
(-0.0977851 -0.0657999 0)
(-0.0833649 -0.0611041 0)
(-0.0694617 -0.055922 0)
(-0.0561923 -0.0503546 0)
(-0.0436577 -0.0445085 0)
(-0.0319415 -0.0384916 0)
(-0.021109 -0.03241 0)
(-0.0112088 -0.0263651 0)
(-0.00227385 -0.0204516 0)
(0.00567581 -0.0147567 0)
(0.0126315 -0.0093586 0)
(0.018594 -0.00432678 0)
(0.023573 0.000278953 0)
(0.0275867 0.00440917 0)
(0.030663 0.00802587 0)
(0.0328399 0.0111038 0)
(0.0341668 0.0136314 0)
(0.0347048 0.0156122 0)
(0.0345264 0.0170641 0)
(0.0337139 0.0180195 0)
(0.032357 0.0185229 0)
(0.03055 0.0186285 0)
(0.0283876 0.0183972 0)
(0.0259619 0.017892 0)
(0.023359 0.0171745 0)
(0.0206564 0.0163004 0)
(0.0179223 0.0153157 0)
(0.0152147 0.0142524 0)
(0.0125828 0.0131258 0)
(0.010069 0.0119321 0)
(0.00771269 0.010649 0)
(0.00555434 0.00923735 0)
(0.00364161 0.00764707 0)
(0.00202407 0.00582544 0)
(0.00082794 0.00372802 0)
(9.47163e-05 0.00133834 0)
(9.28243e-05 -0.00187484 0)
(0.000819315 -0.00501899 0)
(0.00197803 -0.00748629 0)
(0.0034646 -0.00921524 0)
(0.00506764 -0.010192 0)
(0.00664855 -0.0104487 0)
(0.00808131 -0.0100592 0)
(0.00926658 -0.00912807 0)
(0.0101322 -0.00777769 0)
(0.0106306 -0.00613413 0)
(0.0107342 -0.00431543 0)
(0.0104301 -0.002422 0)
(0.00971327 -0.000530082 0)
(0.00858127 0.00131208 0)
(0.00702842 0.00308528 0)
(0.00504154 0.00479799 0)
(0.00259682 0.0064827 0)
(-0.0003417 0.00819019 0)
(-0.00382187 0.00998224 0)
(-0.00790147 0.0119237 0)
(-0.0126448 0.0140744 0)
(-0.0181182 0.0164833 0)
(-0.0243851 0.0191833 0)
(-0.0315018 0.02219 0)
(-0.039512 0.0255011 0)
(-0.048444 0.0290978 0)
(-0.058306 0.0329465 0)
(-0.0690834 0.0369996 0)
(-0.0807358 0.0411969 0)
(-0.0931953 0.0454669 0)
(-0.106367 0.0497281 0)
(-0.12013 0.0538921 0)
(-0.134345 0.0578672 0)
(-0.148856 0.0615627 0)
(-0.163501 0.0648938 0)
(-0.178122 0.0677858 0)
(-0.192568 0.0701778 0)
(-0.206705 0.0720244 0)
(-0.220418 0.0732969 0)
(-0.233613 0.0739822 0)
(-0.246221 0.0740813 0)
(-0.258188 0.0736073 0)
(-0.269481 0.0725819 0)
(-0.28008 0.0710335 0)
(-0.289977 0.0689947 0)
(-0.29917 0.0665 0)
(-0.307664 0.0635841 0)
(-0.315467 0.0602815 0)
(-0.322588 0.0566246 0)
(-0.329038 0.0526443 0)
(-0.334828 0.0483688 0)
(-0.339966 0.0438239 0)
(-0.344462 0.0390333 0)
(-0.348322 0.0340184 0)
(-0.351553 0.0287986 0)
(-0.354159 0.0233917 0)
(-0.356144 0.0178144 0)
(-0.357506 0.0120823 0)
(-0.358246 0.00621081 0)
(-0.358359 0.000215647 0)
(-0.357839 -0.00588674 0)
(-0.356678 -0.0120786 0)
(-0.354864 -0.0183398 0)
(-0.352382 -0.0246475 0)
(-0.349216 -0.0309752 0)
(-0.345346 -0.0372921 0)
(-0.340751 -0.0435622 0)
(-0.335408 -0.0497439 0)
(-0.329292 -0.0557894 0)
(-0.322379 -0.0616445 0)
(-0.314646 -0.0672483 0)
(-0.306075 -0.0725338 0)
(-0.296652 -0.0774283 0)
(-0.286368 -0.0818549 0)
(-0.275228 -0.0857342 0)
(-0.263247 -0.0889864 0)
(-0.250455 -0.0915347 0)
(-0.2369 -0.0933082 0)
(-0.22265 -0.0942459 0)
(-0.207791 -0.0943006 0)
(-0.192432 -0.0934425 0)
(-0.176699 -0.0916624 0)
(-0.160735 -0.0889739 0)
(-0.144695 -0.0854148 0)
(-0.128741 -0.0810466 0)
(-0.113039 -0.0759527 0)
(-0.0977453 -0.0702349 0)
(-0.0830077 -0.0640092 0)
(-0.068956 -0.0574004 0)
(-0.0556995 -0.0505363 0)
(-0.0433245 -0.0435432 0)
(-0.0318947 -0.0365415 0)
(-0.0214523 -0.0296427 0)
(-0.0120212 -0.0229476 0)
(-0.00361042 -0.0165457 0)
(0.00378239 -0.0105156 0)
(0.0101682 -0.00492465 0)
(0.0155649 0.000170092 0)
(0.0199964 0.00472261 0)
(0.0234934 0.00869847 0)
(0.0260946 0.012076 0)
(0.0278476 0.0148476 0)
(0.02881 0.0170206 0)
(0.0290497 0.0186173 0)
(0.028644 0.0196749 0)
(0.0276778 0.0202429 0)
(0.0262407 0.0203809 0)
(0.024424 0.0201542 0)
(0.0223171 0.0196296 0)
(0.0200048 0.0188707 0)
(0.0175651 0.017932 0)
(0.0150678 0.0168548 0)
(0.0125749 0.0156621 0)
(0.0101418 0.0143555 0)
(0.00782029 0.0129142 0)
(0.00566306 0.0112954 0)
(0.00372936 0.00943896 0)
(0.0020796 0.00727357 0)
(0.00085254 0.00472654 0)
(9.76137e-05 0.00173637 0)
(9.7811e-05 -0.00227093 0)
(0.000853493 -0.00599818 0)
(0.00203672 -0.00884745 0)
(0.00352522 -0.0107711 0)
(0.00508691 -0.0117741 0)
(0.00657102 -0.0119134 0)
(0.00784473 -0.0112916 0)
(0.0088072 -0.0100429 0)
(0.00938853 -0.0083169 0)
(0.00954542 -0.00626297 0)
(0.00925458 -0.00401612 0)
(0.00850558 -0.00168711 0)
(0.00729338 0.000644146 0)
(0.00561167 0.00293172 0)
(0.00344727 0.0051637 0)
(0.000776053 0.00735935 0)
(-0.00243922 0.00956378 0)
(-0.00624902 0.0118403 0)
(-0.0107151 0.0142612 0)
(-0.0159064 0.0168982 0)
(-0.0218943 0.0198134 0)
(-0.028746 0.0230521 0)
(-0.0365192 0.0266388 0)
(-0.0452563 0.0305754 0)
(-0.0549798 0.0348418 0)
(-0.0656881 0.0393974 0)
(-0.0773527 0.0441834 0)
(-0.0899153 0.0491246 0)
(-0.103287 0.0541319 0)
(-0.117352 0.0591056 0)
(-0.131966 0.0639389 0)
(-0.146968 0.0685236 0)
(-0.162188 0.0727555 0)
(-0.177453 0.0765401 0)
(-0.192597 0.0797976 0)
(-0.207473 0.082466 0)
(-0.221951 0.0845028 0)
(-0.235928 0.0858848 0)
(-0.249324 0.0866063 0)
(-0.262082 0.0866767 0)
(-0.274164 0.0861171 0)
(-0.285549 0.0849572 0)
(-0.296227 0.0832322 0)
(-0.3062 0.0809804 0)
(-0.315472 0.0782412 0)
(-0.324054 0.0750538 0)
(-0.331959 0.0714558 0)
(-0.339202 0.0674828 0)
(-0.345796 0.0631681 0)
(-0.351756 0.0585423 0)
(-0.357097 0.053633 0)
(-0.361833 0.0484655 0)
(-0.365976 0.0430623 0)
(-0.36954 0.0374436 0)
(-0.372534 0.0316274 0)
(-0.374969 0.02563 0)
(-0.376852 0.0194659 0)
(-0.378189 0.0131489 0)
(-0.378982 0.00669195 0)
(-0.379231 0.000107942 0)