/*--------------------------------*- C++ -*----------------------------------*\
| =========                 |                                                 |
| \\      /  F ield         | OpenFOAM: The Open Source CFD Toolbox           |
|  \\    /   O peration     | Version:  2406                                  |
|   \\  /    A nd           | Website:  www.openfoam.com                      |
|    \\/     M anipulation  |                                                 |
\*---------------------------------------------------------------------------*/
FoamFile
{
    version     2.0;
    format      ascii;
    arch        "LSB;label=32;scalar=64";
    class       surfaceScalarField;
    location    "23.1";
    object      phi;
}
// * * * * * * * * * * * * * * * * * * * * * * * * * * * * * * * * * * * * * //

dimensions      [0 3 -1 0 0 0 0];

oriented        oriented;

internalField   nonuniform List<scalar> 
7080
(
7.08109e-08
-7.07361e-08
3.6707e-07
-3.00907e-07
7.6734e-07
-3.99828e-07
1.15028e-06
-3.86719e-07
1.448e-06
-2.97676e-07
1.6212e-06
-1.75021e-07
1.66504e-06
-4.29833e-08
1.57755e-06
8.78729e-08
1.36845e-06
2.1135e-07
1.04189e-06
3.29101e-07
6.03683e-07
4.42175e-07
5.02061e-08
5.58207e-07
-6.28971e-07
6.85219e-07
-1.45804e-06
8.36295e-07
-2.4723e-06
1.02299e-06
-3.71839e-06
1.25648e-06
-5.24802e-06
1.54188e-06
-7.11273e-06
1.87904e-06
-9.35591e-06
2.25966e-06
-1.20061e-05
2.66888e-06
-1.50693e-05
3.08394e-06
-1.85223e-05
3.47547e-06
-2.23055e-05
3.80674e-06
-2.63169e-05
4.0354e-06
-3.04084e-05
4.11495e-06
-3.43862e-05
3.9993e-06
-3.80156e-05
3.64772e-06
-4.10338e-05
3.03179e-06
-4.31672e-05
2.14112e-06
-4.41552e-05
9.88653e-07
-4.3775e-05
-3.87027e-07
-4.18684e-05
-1.92113e-06
-3.8365e-05
-3.52551e-06
-3.33009e-05
-5.09322e-06
-2.68295e-05
-6.50636e-06
-1.92237e-05
-7.64544e-06
-1.08646e-05
-8.40175e-06
-2.21816e-06
-8.6905e-06
6.20341e-06
-8.46481e-06
1.38896e-05
-7.72715e-06
2.0389e-05
-6.5356e-06
2.53611e-05
-5.00254e-06
2.86195e-05
-3.28098e-06
3.01488e-05
-1.54446e-06
3.00982e-05
4.44798e-08
2.87414e-05
1.35707e-06
2.64268e-05
2.32259e-06
2.35124e-05
2.92536e-06
2.03245e-05
3.20416e-06
1.71166e-05
3.22292e-06
1.40713e-05
3.064e-06
1.12886e-05
2.79656e-06
8.81842e-06
2.4882e-06
6.65398e-06
2.17443e-06
4.77735e-06
1.89324e-06
3.15188e-06
1.63054e-06
1.77983e-06
1.38733e-06
7.14086e-07
1.06544e-06
7.24115e-08
6.55273e-07
7.24074e-08
3.04063e-07
-3.70209e-07
9.70821e-07
-9.67865e-07
1.77537e-06
-1.19774e-06
2.5025e-06
-1.11252e-06
3.02934e-06
-8.20314e-07
3.26646e-06
-4.1194e-07
3.18027e-06
4.38319e-08
2.7424e-06
5.23316e-07
1.94342e-06
1.0071e-06
7.6566e-07
1.50117e-06
-8.0787e-07
2.00854e-06
-2.81053e-06
2.55143e-06
-5.28941e-06
3.15262e-06
-8.31462e-06
3.84747e-06
-1.19735e-05
4.66505e-06
-1.63662e-05
5.62917e-06
-2.15902e-05
6.74212e-06
-2.77236e-05
7.98488e-06
-3.4805e-05
9.30931e-06
-4.28143e-05
1.06423e-05
-5.16553e-05
1.18851e-05
-6.11436e-05
1.29209e-05
-7.10029e-05
1.36209e-05
-8.08702e-05
1.38568e-05
-9.03138e-05
1.35137e-05
-9.88604e-05
1.25046e-05
-0.000106029
1.07813e-05
-0.000111366
8.34217e-06
-0.000114475
5.23444e-06
-0.000115042
1.55382e-06
-0.000112856
-2.55977e-06
-0.000107822
-6.92661e-06
-9.99704e-05
-1.13345e-05
-8.94611e-05
-1.5546e-05
-7.6589e-05
-1.93101e-05
-6.17813e-05
-2.23758e-05
-4.55881e-05
-2.45117e-05
-2.86653e-05
-2.55279e-05
-1.17428e-05
-2.53032e-05
4.41681e-06
-2.38083e-05
1.9077e-05
-2.11259e-05
3.15869e-05
-1.74553e-05
4.14493e-05
-1.31e-05
4.83682e-05
-8.43647e-06
5.22859e-05
-3.8609e-06
5.33765e-05
2.63218e-07
5.2021e-05
3.66459e-06
4.87343e-05
6.18785e-06
4.40987e-05
7.81241e-06
3.86698e-05
8.61852e-06
3.29356e-05
8.76822e-06
2.72563e-05
8.44231e-06
2.1887e-05
7.83201e-06
1.69539e-05
7.07726e-06
1.25295e-05
6.29936e-06
8.61995e-06
5.51358e-06
5.27587e-06
4.72195e-06
2.57456e-06
3.74359e-06
7.23908e-07
2.50603e-06
7.82667e-07
4.22221e-07
-7.92544e-07
1.24298e-06
-1.79533e-06
2.16633e-06
-2.12084e-06
2.92127e-06
-1.87229e-06
3.36178e-06
-1.26123e-06
3.36772e-06
-4.19802e-07
2.87783e-06
5.34857e-07
1.82949e-06
1.57304e-06
1.7737e-07
2.66287e-06
-2.136e-06
3.81929e-06
-5.17063e-06
5.04984e-06
-9.00691e-06
6.396e-06
-1.37424e-05
7.89837e-06
-1.94977e-05
9.61513e-06
-2.64042e-05
1.15863e-05
-3.45894e-05
1.3832e-05
-4.41495e-05
1.63227e-05
-5.512e-05
1.89794e-05
-6.74466e-05
2.16632e-05
-8.09619e-05
2.41883e-05
-9.53743e-05
2.63312e-05
-0.000110274
2.78565e-05
-0.000125155
2.85395e-05
-0.000139454
2.81948e-05
-0.000152597
2.66938e-05
-0.000164036
2.39772e-05
-0.000173281
2.00559e-05
-0.000179923
1.50067e-05
-0.00018364
8.96422e-06
-0.000184198
2.11441e-06
-0.000181455
-5.31274e-06
-0.000175358
-1.30463e-05
-0.000165949
-2.07791e-05
-0.00015337
-2.81717e-05
-0.000137876
-3.48618e-05
-0.00011984
-4.04771e-05
-9.97629e-05
-4.46592e-05
-7.82717e-05
-4.70923e-05
-5.61039e-05
-4.75429e-05
-3.40819e-05
-4.58982e-05
-1.30633e-05
-4.22043e-05
6.11615e-06
-3.66848e-05
2.27189e-05
-2.97399e-05
3.61694e-05
-2.19118e-05
4.61188e-05
-1.38212e-05
5.24701e-05
-6.08855e-06
5.53907e-05
7.5497e-07
5.52689e-05
6.32609e-06
5.26676e-05
1.04376e-05
4.82257e-05
1.30838e-05
4.25969e-05
1.44252e-05
3.63486e-05
1.47133e-05
2.99532e-05
1.4255e-05
2.37257e-05
1.33225e-05
1.78978e-05
1.21525e-05
1.25807e-05
1.08409e-05
7.91817e-06
9.40832e-06
4.02824e-06
7.63376e-06
1.24325e-06
5.31442e-06
2.02638e-06
4.38032e-07
-1.22685e-06
1.21065e-06
-2.56986e-06
1.98321e-06
-2.8886e-06
2.46835e-06
-2.35766e-06
2.5144e-06
-1.3049e-06
1.98261e-06
1.11483e-07
7.81232e-07
1.73602e-06
-1.19425e-06
3.54642e-06
-4.03868e-06
5.50439e-06
-7.86369e-06
7.63992e-06
-1.2788e-05
9.96846e-06
-1.89524e-05
1.25533e-05
-2.65134e-05
1.54505e-05
-3.56388e-05
1.87302e-05
-4.64839e-05
2.2419e-05
-5.91601e-05
2.64938e-05
-7.36945e-05
3.08402e-05
-8.99939e-05
3.52596e-05
-0.00010782
3.94677e-05
-0.000126787
4.31315e-05
-0.000146384
4.59016e-05
-0.000166016
4.74609e-05
-0.000185061
4.75564e-05
-0.000202917
4.60235e-05
-0.000219038
4.27892e-05
-0.000232952
3.78678e-05
-0.000244261
3.13464e-05
-0.00025264
2.33736e-05
-0.000257829
1.41473e-05
-0.000259622
3.9103e-06
-0.000257869
-7.05414e-06
-0.000252474
-1.84199e-05
-0.000243406
-2.98178e-05
-0.000230706
-4.08332e-05
-0.000214511
-5.10114e-05
-0.000195071
-5.98664e-05
-0.00017277
-6.69054e-05
-0.000148146
-7.16609e-05
-0.000121891
-7.3743e-05
-9.48438e-05
-7.28934e-05
-6.79532e-05
-6.90487e-05
-4.22171e-05
-6.23826e-05
-1.85987e-05
-5.33282e-05
2.05895e-06
-4.25498e-05
1.91238e-05
-3.08747e-05
3.22225e-05
-1.91862e-05
4.12739e-05
-8.30127e-06
4.6461e-05
1.12586e-06
4.82048e-05
8.67927e-06
4.70787e-05
1.41894e-05
4.37586e-05
1.7728e-05
3.89101e-05
1.95393e-05
3.3163e-05
1.99872e-05
2.70102e-05
1.94531e-05
2.08652e-05
1.82881e-05
1.4984e-05
1.67004e-05
9.63922e-06
1.47518e-05
5.02669e-06
1.22225e-05
1.61103e-06
8.73846e-06
3.62202e-06
3.71381e-07
-1.59787e-06
9.32712e-07
-3.1353e-06
1.34284e-06
-3.2979e-06
1.32199e-06
-2.33897e-06
7.16167e-07
-6.98944e-07
-6.30558e-07
1.45806e-06
-2.84781e-06
3.95431e-06
-6.08933e-06
6.78988e-06
-1.05097e-05
9.92754e-06
-1.62837e-05
1.3418e-05
-2.35972e-05
1.72868e-05
-3.26547e-05
2.16173e-05
-4.36657e-05
2.64689e-05
-5.68227e-05
3.18963e-05
-7.22605e-05
3.78672e-05
-9.00085e-05
4.42541e-05
-0.000109947
5.07926e-05
-0.000131782
5.71111e-05
-0.000155055
6.2758e-05
-0.000179177
6.72728e-05
-0.000203491
7.02374e-05
-0.000227337
7.13285e-05
-0.000250091
7.03333e-05
-0.000271201
6.71558e-05
-0.000290191
6.17995e-05
-0.000306659
5.43542e-05
-0.000320273
4.4974e-05
-0.000330755
3.38656e-05
-0.00033788
2.12749e-05
-0.000341456
7.48337e-06
-0.000341326
-7.1938e-06
-0.00033736
-2.24019e-05
-0.000329459
-3.7741e-05
-0.000317565
-5.27558e-05
-0.000301677
-6.69324e-05
-0.000281882
-7.96977e-05
-0.00025839
-9.04362e-05
-0.000231571
-9.85192e-05
-0.000201991
-0.000103361
-0.000170434
-0.000104487
-0.000137889
-0.000101626
-0.000105508
-9.47914e-05
-7.45136e-05
-8.4344e-05
-4.60788e-05
-7.1e-05
-2.11877e-05
-5.57733e-05
-5.34966e-07
-3.98413e-05
1.55413e-05
-2.43724e-05
2.70375e-05
-1.03629e-05
3.42485e-05
1.48173e-06
3.76713e-05
1.07785e-05
3.7956e-05
1.74605e-05
3.5796e-05
2.17111e-05
3.19055e-05
2.38959e-05
2.69019e-05
2.4465e-05
2.13512e-05
2.38575e-05
1.56565e-05
2.23974e-05
1.02343e-05
2.01945e-05
5.39556e-06
1.70541e-05
1.73839e-06
1.24204e-05
5.35707e-06
2.43974e-07
-1.84049e-06
4.48932e-07
-3.34059e-06
2.99592e-07
-3.14735e-06
-4.51892e-07
-1.58706e-06
-1.96021e-06
8.09098e-07
-4.40178e-06
3.89957e-06
-7.95593e-06
7.50673e-06
-1.2835e-05
1.16675e-05
-1.92632e-05
1.63525e-05
-2.74841e-05
2.16357e-05
-3.77528e-05
2.75505e-05
-5.03285e-05
3.41878e-05
-6.5448e-05
4.15815e-05
-8.32789e-05
4.97198e-05
-0.000103864
5.84431e-05
-0.000127066
6.7447e-05
-0.000152548
7.62632e-05
-0.000179782
8.43323e-05
-0.000208104
9.10661e-05
-0.000236785
9.59398e-05
-0.000265101
9.85379e-05
-0.000292377
9.85885e-05
-0.000318017
9.59582e-05
-0.000341521
9.0644e-05
-0.000362481
8.27456e-05
-0.000380584
7.24452e-05
-0.000395598
5.99785e-05
-0.000407356
4.56174e-05
-0.000415735
2.96524e-05
-0.000420637
1.23884e-05
-0.000421966
-5.85706e-06
-0.000419613
-2.47424e-05
-0.000413447
-4.38898e-05
-0.000403317
-6.28644e-05
-0.000389066
-8.1158e-05
-0.000370563
-9.81734e-05
-0.000347744
-0.000113224
-0.000320683
-0.000125549
-0.000289654
-0.000134359
-0.000255204
-0.000138908
-0.000218197
-0.000138605
-0.000179825
-0.000133142
-0.000141532
-0.000122618
-0.000104893
-0.000107627
-7.13994e-05
-8.92591e-05
-4.22608e-05
-6.89787e-05
-1.82326e-05
-4.84018e-05
4.16443e-07
-2.9019e-05
1.38605e-05
-1.1969e-05
2.25677e-05
2.05943e-06
2.72042e-05
1.28156e-05
2.8502e-05
2.0399e-05
2.72392e-05
2.51519e-05
2.41236e-05
2.75652e-05
1.98392e-05
2.8139e-05
1.49215e-05
2.72981e-05
9.92249e-06
2.51973e-05
5.28091e-06
2.16742e-05
1.70245e-06
1.60111e-05
7.04526e-06
6.03922e-08
-1.90188e-06
-2.20693e-07
-3.05843e-06
-1.10218e-06
-2.26764e-06
-2.78302e-06
9.54776e-08
-5.42334e-06
3.44819e-06
-9.22936e-06
7.70798e-06
-1.44438e-05
1.27212e-05
-2.13449e-05
1.85719e-05
-3.02313e-05
2.52407e-05
-4.14117e-05
3.28205e-05
-5.51979e-05
4.13403e-05
-7.1873e-05
5.08686e-05
-9.1648e-05
6.13619e-05
-0.00011459
7.26689e-05
-0.000140563
8.44241e-05
-0.000169195
9.60875e-05
-0.000199892
0.000106969
-0.0002319
0.000116351
-0.000264387
0.000123564
-0.000296518
0.000128083
-0.000327518
0.00012955
-0.00035671
0.000127792
-0.000383546
0.000122805
-0.000407621
0.000114728
-0.000428673
0.000103805
-0.000446565
9.03424e-05
-0.000461262
7.4677e-05
-0.000472793
5.71467e-05
-0.000481217
3.80715e-05
-0.000486589
1.77512e-05
-0.000488926
-3.53323e-06
-0.000488183
-2.5502e-05
-0.000484235
-4.78578e-05
-0.000476868
-7.02543e-05
-0.000465783
-9.22686e-05
-0.000450616
-0.000113366
-0.000430986
-0.000132881
-0.000406561
-0.00015
-0.000377157
-0.000163788
-0.000342851
-0.000173236
-0.000304105
-0.000177369
-0.00026186
-0.000175402
-0.00021756
-0.000166929
-0.000173077
-0.000152118
-0.000130498
-0.000131842
-9.18081e-05
-0.00010767
-5.8538e-05
-8.16694e-05
-3.15337e-05
-5.60207e-05
-1.09076e-05
-3.25877e-05
3.77292e-06
-1.26159e-05
1.32737e-05
3.32539e-06
1.84611e-05
1.5217e-05
2.02372e-05
2.33881e-05
1.94237e-05
2.83817e-05
1.68162e-05
3.07603e-05
1.30715e-05
3.10412e-05
8.86206e-06
2.94234e-05
4.75e-06
2.57772e-05
1.51772e-06
1.92649e-05
8.55853e-06
-1.86853e-07
-1.71738e-06
-1.092e-06
-2.14868e-06
-2.88365e-06
-4.80517e-07
-5.69687e-06
2.91209e-06
-9.70581e-06
7.45305e-06
-1.51578e-05
1.31616e-05
-2.23714e-05
1.99308e-05
-3.16942e-05
2.78944e-05
-4.34963e-05
3.70383e-05
-5.81366e-05
4.74588e-05
-7.59523e-05
5.91509e-05
-9.71944e-05
7.21071e-05
-0.000121968
8.61292e-05
-0.000150143
0.000100839
-0.000181322
0.000115597
-0.000214839
0.000129598
-0.00024983
0.000141952
-0.000285317
0.000151831
-0.000320312
0.00015855
-0.00035389
0.000161652
-0.000385265
0.000160915
-0.000413834
0.000156352
-0.000439207
0.000148168
-0.0004612
0.000136712
-0.000479808
0.000122405
-0.000495167
0.000105696
-0.000507501
8.70075e-05
-0.000517075
6.67194e-05
-0.00052415
4.51477e-05
-0.000528946
2.25514e-05
-0.00053161
-8.61576e-07
-0.000532192
-2.49106e-05
-0.000530617
-4.9421e-05
-0.000526672
-7.41872e-05
-0.000519988
-9.89388e-05
-0.000510046
-0.000123294
-0.000496198
-0.000146716
-0.000477712
-0.000168473
-0.000453871
-0.000187616
-0.000424107
-0.000202988
-0.000388175
-0.00021329
-0.000346354
-0.000217212
-0.000299614
-0.000213659
-0.0002497
-0.000202025
-0.000199038
-0.000182498
-0.000150438
-0.000156269
-0.000106574
-0.000125531
-6.94446e-05
-9.31542e-05
-3.99756e-05
-6.20595e-05
-1.80585e-05
-3.45404e-05
-2.85863e-06
-1.18781e-05
6.73815e-06
5.61091e-06
1.18937e-05
1.823e-05
1.36441e-05
2.66207e-05
1.29479e-05
3.14568e-05
1.06038e-05
3.33726e-05
7.39983e-06
3.26324e-05
4.0129e-06
2.91473e-05
1.27252e-06
2.20163e-05
9.82006e-06
-5.04939e-07
-1.21658e-06
-2.17464e-06
-4.6986e-07
-5.04911e-06
2.38669e-06
-9.18829e-06
7.05856e-06
-1.4794e-05
1.30545e-05
-2.21665e-05
2.05401e-05
-3.17082e-05
2.94709e-05
-4.38301e-05
4.00217e-05
-5.89578e-05
5.21667e-05
-7.74664e-05
6.59728e-05
-9.96626e-05
8.13495e-05
-0.000125682
9.81325e-05
-0.000155425
0.000115875
-0.000188469
0.00013389
-0.000224085
0.000151217
-0.000261276
0.000166796
-0.000298898
0.00017958
-0.000335767
0.000188705
-0.000370783
0.000193571
-0.000403031
0.000193905
-0.000431854
0.000189743
-0.000456887
0.000181389
-0.000478043
0.000169328
-0.000495468
0.000154139
-0.000509477
0.000136417
-0.000520489
0.000116708
-0.000528962
9.54802e-05
-0.000535348
7.31033e-05
-0.000540053
4.98494e-05
-0.000543414
2.5907e-05
-0.000545677
1.39379e-06
-0.000546979
-2.36177e-05
-0.00054733
-4.90801e-05
-0.000546591
-7.49379e-05
-0.000544446
-0.000101097
-0.000540376
-0.000127377
-0.000533646
-0.000153461
-0.000523305
-0.000178829
-0.000508235
-0.000202703
-0.000487252
-0.000223987
-0.000459287
-0.00024127
-0.000423636
-0.000252877
-0.000380259
-0.000257045
-0.000330078
-0.000252213
-0.000275141
-0.000237437
-0.000218564
-0.000212846
-0.00016409
-0.000180002
-0.000115329
-0.000141914
-7.48515e-05
-0.000102532
-4.36563e-05
-6.57335e-05
-2.12515e-05
-3.42764e-05
-6.30733e-06
-9.3315e-06
2.75002e-06
9.18068e-06
7.34389e-06
2.20271e-05
8.72171e-06
3.00887e-05
7.89401e-06
3.41976e-05
5.79232e-06
3.47462e-05
3.20992e-06
3.17221e-05
1.0124e-06
2.42295e-05
1.08288e-05
-9.09381e-07
-3.14786e-07
-3.49805e-06
2.13177e-06
-7.63528e-06
6.51103e-06
-1.32969e-05
1.27287e-05
-2.07282e-05
2.04764e-05
-3.02899e-05
3.01063e-05
-4.24674e-05
4.1641e-05
-5.77169e-05
5.52725e-05
-7.64878e-05
7.09312e-05
-9.91156e-05
8.85997e-05
-0.000125796
0.000108024
-0.000156447
0.000128781
-0.000190657
0.00015008
-0.000227627
0.000170857
-0.000266244
0.000189829
-0.000305174
0.000205722
-0.000343028
0.000217428
-0.000378512
0.000224184
-0.000410579
0.000225633
-0.000438524
0.000221845
-0.000462025
0.000213239
-0.00048111
0.00020047
-0.00049609
0.000184304
-0.000507462
0.000165511
-0.000515826
0.000144781
-0.000521799
0.000122684
-0.00052597
9.96556e-05
-0.000528862
7.60012e-05
-0.000530916
5.19119e-05
-0.000532489
2.74904e-05
-0.000533852
2.76803e-06
-0.000535186
-2.22696e-05
-0.000536582
-4.76699e-05
-0.000538015
-7.34896e-05
-0.000539318
-9.97776e-05
-0.000540141
-0.000126539
-0.000539892
-0.000153693
-0.000537698
-0.00018101
-0.000532364
-0.000208024
-0.000522404
-0.000233938
-0.000506132
-0.000257535
-0.000481878
-0.000277127
-0.000448328
-0.000290594
-0.000404957
-0.000295584
-0.000352504
-0.00028989
-0.0002933
-0.000272051
-0.000231255
-0.000242046
-0.00017129
-0.000201879
-0.000118172
-0.000155649
-7.51536e-05
-0.000108756
-4.3164e-05
-6.62671e-05
-2.11696e-05
-3.1332e-05
-7.18883e-06
-4.80068e-06
7.84751e-07
1.40463e-05
4.48583e-06
2.6389e-05
5.27399e-06
3.34005e-05
4.3001e-06
3.57246e-05
2.50404e-06
3.35063e-05
8.03135e-07
2.59386e-05
1.16244e-05
-1.40351e-06
1.07965e-06
-5.06135e-06
5.81007e-06
-1.06277e-05
1.20616e-05
-1.79884e-05
2.01043e-05
-2.7448e-05
2.99272e-05
-3.94288e-05
4.20978e-05
-5.44864e-05
5.66946e-05
-7.30887e-05
7.38833e-05
-9.56573e-05
9.34991e-05
-0.00012241
0.00011536
-0.000153332
0.000138947
-0.000188014
0.000163469
-0.00022564
0.000187708
-0.000264983
0.000210204
-0.000304546
0.000229394
-0.000342727
0.000243907
-0.000378046
0.00025275
-0.000409321
0.000255462
-0.000435811
0.000252125
-0.000457246
0.000243284
-0.000473789
0.000229784
-0.000485925
0.000212609
-0.000494337
0.000192719
-0.000499785
0.000170961
-0.000503015
0.000148012
-0.000504698
0.000124367
-0.000505399
0.000100356
-0.000505577
7.61763e-05
-0.000505586
5.19179e-05
-0.000505704
2.76031e-05
-0.000506142
3.20025e-06
-0.000507065
-2.13527e-05
-0.000508597
-4.61453e-05
-0.000510812
-7.1282e-05
-0.000513715
-9.6882e-05
-0.000517198
-0.000123062
-0.000520981
-0.000149917
-0.000524523
-0.000177472
-0.000526936
-0.000205615
-0.0005269
-0.000233977
-0.000522634
-0.000261804
-0.000511969
-0.000287795
-0.000492576
-0.000309992
-0.00046239
-0.000325775
-0.000420224
-0.000332061
-0.000366473
-0.000325807
-0.00030369
-0.000304831
-0.000236697
-0.000268871
-0.000171833
-0.000220509
-0.000115249
-0.000165338
-7.08404e-05
-0.000110671
-3.92391e-05
-6.29328e-05
-1.85909e-05
-2.54437e-05
-6.23926e-06
1.69386e-06
2.74563e-07
1.98815e-05
2.86567e-06
3.08068e-05
3.04501e-06
3.55536e-05
1.97239e-06
3.45731e-05
6.70201e-07
2.72515e-05
1.22919e-05
-1.9976e-06
3.06278e-06
-6.87461e-06
1.07118e-05
-1.4026e-05
1.9189e-05
-2.3244e-05
2.9338e-05
-3.49042e-05
4.15713e-05
-4.94792e-05
5.66811e-05
-6.75674e-05
7.47713e-05
-8.95984e-05
9.59177e-05
-0.000115897
0.000119789
-0.00014647
0.000145933
-0.000180986
0.000173457
-0.000218615
0.000201097
-0.000258086
0.000227174
-0.000297755
0.000249871
-0.000335847
0.000267481
-0.000370685
0.000278743
-0.000400963
0.000283024
-0.000425892
0.000280389
-0.000445264
0.000271494
-0.000459374
0.000257393
-0.00046889
0.000239299
-0.000474672
0.000218392
-0.000477635
0.000195683
-0.000478628
0.000171956
-0.00047837
0.000147756
-0.000477424
0.000123425
-0.000476209
9.91447e-05
-0.000475016
7.4987e-05
-0.000474045
5.09518e-05
-0.000473439
2.70024e-05
-0.00047331
3.07754e-06
-0.000473763
-2.08928e-05
-0.000474908
-4.49928e-05
-0.000476865
-6.93179e-05
-0.000479752
-9.39871e-05
-0.000483663
-0.000119142
-0.00048862
-0.000144951
-0.000494494
-0.000171591
-0.000500895
-0.000199205
-0.000507039
-0.000227825
-0.000511603
-0.000257232
-0.000512622
-0.000286769
-0.000507505
-0.000315102
-0.000493252
-0.000340024
-0.000466955
-0.000358357
-0.000426602
-0.000366162
-0.000372096
-0.00035934
-0.000306175
-0.000334796
-0.000234715
-0.000291971
-0.000165752
-0.000234302
-0.000106966
-0.000169456
-6.26924e-05
-0.000107208
-3.27992e-05
-5.53366e-05
-1.44135e-05
-1.66965e-05
-4.18588e-06
9.65502e-06
6.08294e-07
2.60066e-05
2.05003e-06
3.41153e-05
1.65013e-06
3.49648e-05
6.31861e-07
2.82759e-05
1.29186e-05
-2.67932e-06
5.72647e-06
-8.89715e-06
1.69646e-05
-1.77497e-05
2.80145e-05
-2.89336e-05
4.05464e-05
-4.29001e-05
5.5523e-05
-6.01495e-05
7.39471e-05
-8.12814e-05
9.58962e-05
-0.000106623
0.000121271
-0.000136318
0.000149482
-0.000170067
0.000179691
-0.000207132
0.000210522
-0.000246214
0.000240185
-0.000285612
0.000266573
-0.000323386
0.00028765
-0.000357703
0.000301798
-0.000387101
0.000308145
-0.000410737
0.000306662
-0.000428432
0.000298087
-0.000440607
0.000283671
-0.000448092
0.00026488
-0.000451924
0.000243133
-0.000453156
0.000219625
-0.000452726
0.000195253
-0.00045138
0.00017061
-0.000449661
0.000146034
-0.000447918
0.000121681
-0.000446358
9.7581e-05
-0.000445081
7.37053e-05
-0.000444128
4.99936e-05
-0.000443516
2.63848e-05
-0.000443265
2.82003e-06
-0.000443416
-2.07491e-05
-0.000444044
-4.43723e-05
-0.000445266
-6.81037e-05
-0.000447242
-9.20195e-05
-0.000450165
-0.000116227
-0.000454242
-0.000140881
-0.000459647
-0.000166193
-0.000466435
-0.000192422
-0.000474423
-0.000219842
-0.000483004
-0.000248654
-0.000490948
-0.000278826
-0.000496209
-0.00030984
-0.000495858
-0.000340374
-0.000486253
-0.00036796
-0.000463601
-0.000388814
-0.000424971
-0.000397971
-0.000369689
-0.000390082
-0.000300715
-0.000360947
-0.000225217
-0.000309802
-0.00015324
-0.00024143
-9.40044e-05
-0.000166442
-5.17172e-05
-9.76194e-05
-2.49091e-05
-4.3505e-05
-9.53158e-06
-5.7191e-06
-1.80569e-06
1.82788e-05
1.18162e-06
3.11334e-05
1.48534e-06
3.46564e-05
6.71818e-07
2.90974e-05
1.35881e-05
-3.44446e-06
9.14826e-06
-1.11006e-05
2.46601e-05
-2.17338e-05
3.86102e-05
-3.49435e-05
5.37806e-05
-5.12488e-05
7.18043e-05
-7.11408e-05
9.38521e-05
-9.51657e-05
0.000119905
-0.000123476
0.000149587
-0.000155954
0.000181948
-0.000191909
0.000215648
-0.000230159
0.000248763
-0.00026896
0.000278986
-0.000306309
0.000303915
-0.000340195
0.000321535
-0.000369019
0.000330618
-0.000391818
0.000330943
-0.000408412
0.000323253
-0.000419292
0.000308967
-0.000425436
0.000289814
-0.000428032
0.000267477
-0.000428267
0.000243367
-0.000427153
0.000218512
-0.000425462
0.000193562
-0.000423703
0.000168851
-0.000422162
0.000144494
-0.000420956
0.000120476
-0.000420093
9.67199e-05
-0.000419521
7.3137e-05
-0.000419173
4.96483e-05
-0.000418984
2.62e-05
-0.000418918
2.75816e-06
-0.000418973
-2.06901e-05
-0.000419189
-4.41513e-05
-0.000419658
-6.76297e-05
-0.000420526
-9.11461e-05
-0.000422
-0.000114748
-0.000424344
-0.000138533
-0.000427867
-0.000162666
-0.000432883
-0.000187402
-0.000439634
-0.000213089
-0.000448146
-0.00024014
-0.000458022
-0.000268949
-0.000468167
-0.000299692
-0.000476513
-0.000332025
-0.000479845
-0.000364624
-0.000473917
-0.000394739
-0.000454055
-0.00041783
-0.000416396
-0.000427742
-0.000359724
-0.000417622
-0.000287421
-0.000382111
-0.000208346
-0.000320507
-0.000134898
-0.000239892
-7.74992e-05
-0.000155015
-3.92417e-05
-8.1763e-05
-1.66851e-05
-2.8276e-05
-4.88239e-06
6.47266e-06
1.90195e-07
2.60627e-05
1.37226e-06
3.34684e-05
7.6082e-07
2.97139e-05
1.43451e-05
-4.2563e-06
1.33814e-05
-1.33893e-05
3.38444e-05
-2.58127e-05
5.09936e-05
-4.10245e-05
6.90274e-05
-5.95937e-05
9.03521e-05
-8.19565e-05
0.000116238
-0.000108545
0.000146483
-0.000139266
0.000180324
-0.000173671
0.000216348
-0.000210641
0.000252629
-0.000248568
0.000286689
-0.000285384
0.000315809
-0.000318998
0.000337529
-0.00034761
0.000350152
-0.000370123
0.000353131
-0.000386254
0.000347078
-0.000396524
0.000333525
-0.000401995
0.000314442
-0.000403997
0.000291815
-0.000403827
0.000267309
-0.000402587
0.000242126
-0.000401066
0.000216991
-0.000399752
0.000192247
-0.00039887
0.000167968
-0.000398462
0.000144084
-0.000398456
0.000120468
-0.000398729
9.69903e-05
-0.000399147
7.35514e-05
-0.00039959
5.00872e-05
-0.000399965
2.6572e-05
-0.000400218
3.00598e-06
-0.000400325
-2.05872e-05
-0.000400306
-4.41753e-05
-0.00040022
-6.77208e-05
-0.000400175
-9.11959e-05
-0.000400337
-0.000114591
-0.000400942
-0.000137933
-0.000402302
-0.000161311
-0.000404808
-0.0001849
-0.000408898
-0.000209002
-0.000414987
-0.000234053
-0.000423311
-0.000260628
-0.000433679
-0.000289325
-0.000445134
-0.000320571
-0.000455581
-0.000354177
-0.000461512
-0.000388807
-0.000458071
-0.000421267
-0.000439715
-0.000446096
-0.00040172
-0.000455616
-0.000342535
-0.000441298
-0.000266409
-0.000396639
-0.000184515
-0.000321787
-0.000111854
-0.000227675
-5.90888e-05
-0.000134522
-2.67315e-05
-6.06321e-05
-9.27611e-06
-1.09832e-05
-1.27016e-06
1.80588e-05
1.15381e-06
3.10414e-05
8.50486e-07
3.00226e-05
1.51939e-05
-5.09251e-06
1.84427e-05
-1.56948e-05
4.45015e-05
-2.98606e-05
6.51074e-05
-4.69784e-05
8.61793e-05
-6.76351e-05
0.000110977
-9.21601e-05
0.000140781
-0.000120813
0.000175115
-0.000153199
0.000212718
-0.000188505
0.00025164
-0.0002252
0.000289328
-0.000261353
0.000322831
-0.000294762
0.000349219
-0.000323501
0.000366261
-0.000346232
0.000372883
-0.000362529
0.000369423
-0.000372821
0.00035737
-0.000378215
0.000338916
-0.000380124
0.000316351
-0.000379974
0.000291663
-0.00037894
0.000266276
-0.000377862
0.000241046
-0.00037721
0.00021634
-0.000377171
0.000192207
-0.000377723
0.00016852
-0.000378732
0.000145094
-0.000380018
0.000121756
-0.000381403
9.83762e-05
-0.000382729
7.488e-05
-0.000383877
5.12382e-05
-0.000384763
2.74606e-05
-0.000385335
3.58148e-06
-0.000385573
-2.03458e-05
-0.000385484
-4.42608e-05
-0.000385103
-6.80981e-05
-0.000384499
-9.17972e-05
-0.000383779
-0.000115307
-0.000383109
-0.0001386
-0.000382729
-0.000161688
-0.000382977
-0.00018465
-0.000384301
-0.000207677
-0.000387246
-0.000231107
-0.000392386
-0.000255488
-0.00040016
-0.00028155
-0.000410578
-0.000310154
-0.000422794
-0.00034196
-0.000434628
-0.000376974
-0.0004422
-0.000413693
-0.000439969
-0.000448324
-0.000421525
-0.000474056
-0.000381437
-0.000481384
-0.000318265
-0.000459817
-0.000237888
-0.00040217
-0.000154662
-0.000310906
-8.60027e-05
-0.000203177
-4.07792e-05
-0.000105852
-1.56649e-05
-3.60981e-05
-3.56945e-06
5.96154e-06
6.6666e-07
2.68033e-05
8.93609e-07
2.97973e-05
1.60857e-05
-5.89244e-06
2.43047e-05
-1.7875e-05
5.65515e-05
-3.36466e-05
8.08262e-05
-5.24747e-05
0.000105053
-7.4925e-05
0.000133399
-0.000101172
0.000167056
-0.000131254
0.000205183
-0.000164447
0.00024593
-0.000199581
0.000286767
-0.000234792
0.000324552
-0.000267983
0.000356019
-0.00029704
0.000378284
-0.000320433
0.000389653
-0.000337444
0.000389901
-0.000348354
0.000380334
-0.000354189
0.00036321
-0.00035643
0.000341158
-0.000356586
0.000316511
-0.00035595
0.000291026
-0.000355409
0.000265737
-0.000355465
0.000241101
-0.000356273
0.000217148
-0.000357773
0.000193707
-0.000359779
0.000170526
-0.000362069
0.000147383
-0.000364428
0.000124114
-0.000366678
0.000100625
-0.000368683
7.68824e-05
-0.000370345
5.28984e-05
-0.000371604
2.87169e-05
-0.000372426
4.40069e-06
-0.0003728
-1.99747e-05
-0.000372733
-4.43305e-05
-0.000372248
-6.85856e-05
-0.000371386
-9.26624e-05
-0.000370208
-0.000116488
-0.000368809
-0.000140001
-0.000367339
-0.000163161
-0.000366026
-0.000185965
-0.000365214
-0.000208491
-0.000365393
-0.000230929
-0.000367199
-0.000253684
-0.000371356
-0.000277394
-0.000378497
-0.000303015
-0.000388813
-0.000331644
-0.000401518
-0.000364271
-0.000414247
-0.000400963
-0.000422596
-0.000439974
-0.00042021
-0.000476439
-0.000399797
-0.000501791
-0.000355527
-0.000504086
-0.000286797
-0.000470905
-0.000202332
-0.000395379
-0.00012058
-0.000284932
-5.99786e-05
-0.000166445
-2.46342e-05
-7.1435e-05
-7.06416e-06
-1.16147e-05
-2.35699e-07
1.99778e-05
8.4775e-07
2.87126e-05
1.69344e-05
-6.62233e-06
3.08882e-05
-1.98418e-05
6.98393e-05
-3.70217e-05
9.79412e-05
-5.72916e-05
0.000125365
-8.11519e-05
0.000157221
-0.000108582
0.000194509
-0.000139376
0.000235952
-0.000172482
0.000279048
-0.000206434
0.000320702
-0.000239159
0.000357281
-0.000268579
0.000385427
-0.000292871
0.000402578
-0.000311055
0.000407829
-0.00032308
0.000401926
-0.000329838
0.000387086
-0.000332756
0.000366127
-0.00033344
0.000341838
-0.000333276
0.000316346
-0.000333264
0.000291011
-0.000333945
0.000266417
-0.000335493
0.000242646
-0.000337817
0.000219473
-0.000340704
0.000196592
-0.000343891
0.000173714
-0.000347142
0.000150634
-0.000350256
0.000127229
-0.000353087
0.000103457
-0.000355528
7.93263e-05
-0.000357516
5.4888e-05
-0.000359011
3.0214e-05
-0.000359998
5.39005e-06
-0.000360478
-1.94923e-05
-0.000360465
-4.43415e-05
-0.000359979
-6.9069e-05
-0.000359049
-9.35896e-05
-0.000357711
-0.000117825
-0.000356011
-0.000141698
-0.000354025
-0.000165146
-0.000351876
-0.000188112
-0.000349773
-0.000210593
-0.000348058
-0.000232643
-0.000347251
-0.000254491
-0.000348078
-0.000276566
-0.000351405
-0.000299688
-0.00035805
-0.000325
-0.00036834
-0.000353982
-0.000381468
-0.000387836
-0.000394713
-0.000426729
-0.000402951
-0.0004682
-0.000398824
-0.000505912
-0.000374246
-0.000528662
-0.000323476
-0.00052167
-0.00024799
-0.000470882
-0.000160948
-0.000371972
-8.52894e-05
-0.000242117
-3.67672e-05
-0.000119929
-1.20403e-05
-3.63585e-05
-1.68409e-06
9.62989e-06
6.87225e-07
2.63336e-05
1.76242e-05
-7.21085e-06
3.8063e-05
-2.14395e-05
8.41478e-05
-3.97469e-05
0.000116186
-6.11068e-05
0.000146779
-8.59122e-05
0.000181993
-0.000113926
0.000222556
-0.000144693
0.000266702
-0.000176881
0.000311257
-0.000208813
0.000352626
-0.000238359
0.000386841
-0.000263632
0.000410697
-0.000283247
0.000422204
-0.000296831
0.000421413
-0.000304934
0.000410038
-0.000308889
0.000391042
-0.000310293
0.000367538
-0.000310667
0.000342213
-0.00031112
0.000316803
-0.000312303
0.000292195
-0.000314425
0.000268542
-0.000317413
0.000245634
-0.000321023
0.000223085
-0.000324978
0.000200547
-0.00032901
0.000177747
-0.000332908
0.000154531
-0.000336509
0.00013083
-0.000339703
0.000106649
-0.000342414
8.2036e-05
-0.000344598
5.70703e-05
-0.000346232
3.18471e-05
-0.000347315
6.4712e-06
-0.000347857
-1.89523e-05
-0.000347879
-4.43208e-05
-0.00034741
-6.954e-05
-0.00034648
-9.45216e-05
-0.000345117
-0.000119189
-0.00034335
-0.000143466
-0.00034121
-0.000167288
-0.000338745
-0.000190577
-0.000336051
-0.000213289
-0.000333313
-0.00023538
-0.000330871
-0.000256935
-0.000329281
-0.000278155
-0.00032936
-0.000299612
-0.000332128
-0.000322231
-0.000338562
-0.00034755
-0.000349073
-0.000377324
-0.000362664
-0.000413139
-0.000376045
-0.00045482
-0.000383065
-0.000498888
-0.00037526
-0.000536464
-0.00034393
-0.000552987
-0.000284448
-0.000530377
-0.000202082
-0.000454336
-0.000116436
-0.000327792
-5.28791e-05
-0.000183452
-1.86592e-05
-7.05851e-05
-3.83731e-06
-5.18668e-06
4.02125e-07
2.20848e-05
1.80313e-05
-7.62888e-06
4.5648e-05
-2.25961e-05
9.91922e-05
-4.17067e-05
0.000135223
-6.37616e-05
0.000168882
-8.90104e-05
0.000207198
-0.000116998
0.000250569
-0.000147044
0.00029672
-0.000177603
0.000341829
-0.000206903
0.000381906
-0.000232899
0.000412842
-0.000254029
0.000431814
-0.000269418
0.000437595
-0.000279267
0.000431252
-0.000284589
0.00041536
-0.000286954
0.0003934
-0.000287928
0.000368511
-0.000288795
0.000343073
-0.000290325
0.000318332
-0.00029284
0.000294705
-0.000296292
0.000271993
-0.000300453
0.000249793
-0.00030502
0.000227652
-0.000309716
0.000205241
-0.000314306
0.000182336
-0.00031862
0.000158845
-0.000322534
0.000134744
-0.000325964
0.00011008
-0.000328852
8.49255e-05
-0.000331167
5.93856e-05
-0.000332891
3.35732e-05
-0.00033403
7.61065e-06
-0.000334598
-1.83827e-05
-0.000334626
-4.4291e-05
-0.000334151