/*--------------------------------*- C++ -*----------------------------------*\
| =========                 |                                                 |
| \\      /  F ield         | OpenFOAM: The Open Source CFD Toolbox           |
|  \\    /   O peration     | Version:  2406                                  |
|   \\  /    A nd           | Website:  www.openfoam.com                      |
|    \\/     M anipulation  |                                                 |
\*---------------------------------------------------------------------------*/
FoamFile
{
    version     2.0;
    format      ascii;
    arch        "LSB;label=32;scalar=64";
    class       surfaceScalarField;
    location    "46.4";
    object      phi;
}
// * * * * * * * * * * * * * * * * * * * * * * * * * * * * * * * * * * * * * //

dimensions      [0 3 -1 0 0 0 0];

oriented        oriented;

internalField   nonuniform List<scalar> 
7080
(
2.95612e-07
-2.94388e-07
1.59622e-06
-1.33822e-06
3.46797e-06
-1.87039e-06
5.36175e-06
-1.92457e-06
6.92707e-06
-1.56938e-06
7.97635e-06
-1.06711e-06
8.55122e-06
-5.75546e-07
8.76193e-06
-2.16284e-07
8.76446e-06
1.64616e-09
8.6452e-06
1.22286e-07
8.42374e-06
2.30776e-07
8.03039e-06
4.04787e-07
7.34887e-06
6.99683e-07
6.23242e-06
1.14053e-06
4.53078e-06
1.73476e-06
2.09269e-06
2.48058e-06
-1.22528e-06
3.37131e-06
-5.5558e-06
4.39446e-06
-1.10116e-05
5.53152e-06
-1.76734e-05
6.75131e-06
-2.55653e-05
7.99739e-06
-3.46249e-05
9.18014e-06
-4.46752e-05
1.01811e-05
-5.54068e-05
1.0864e-05
-6.63734e-05
1.10912e-05
-7.70101e-05
1.07447e-05
-8.66735e-05
9.74835e-06
-9.4696e-05
8.07987e-06
-0.000100441
5.77291e-06
-0.000103355
2.91063e-06
-0.000103004
-3.8275e-07
-9.91153e-05
-3.94924e-06
-9.15982e-05
-7.60242e-06
-8.05736e-05
-1.11319e-05
-6.63902e-05
-1.43092e-05
-4.96322e-05
-1.68983e-05
-3.11114e-05
-1.86714e-05
-1.18339e-05
-1.94338e-05
7.06267e-06
-1.90534e-05
2.44041e-05
-1.7493e-05
3.9102e-05
-1.48375e-05
5.02867e-05
-1.1306e-05
5.74308e-05
-7.23989e-06
6.04292e-05
-3.06412e-06
5.96165e-05
7.81406e-07
5.56994e-05
3.91877e-06
4.96222e-05
6.11016e-06
4.2384e-05
7.29291e-06
3.48751e-05
7.57933e-06
2.77563e-05
7.19173e-06
2.14334e-05
6.39633e-06
1.60739e-05
5.42146e-06
1.16907e-05
4.44163e-06
8.18255e-06
3.54957e-06
5.42128e-06
2.80423e-06
3.25513e-06
2.18763e-06
1.60438e-06
1.68329e-06
4.58147e-07
1.15028e-06
-9.26227e-08
5.77229e-07
-9.29086e-08
1.25479e-06
-1.51186e-06
4.20924e-06
-4.29536e-06
8.02294e-06
-5.62931e-06
1.17328e-05
-5.61995e-06
1.47462e-05
-4.54299e-06
1.66907e-05
-3.00018e-06
1.75642e-05
-1.43105e-06
1.74758e-05
-1.27894e-07
1.66081e-05
8.69632e-07
1.5027e-05
1.69278e-06
1.26718e-05
2.57213e-06
9.3199e-06
3.73251e-06
4.65502e-06
5.33146e-06
-1.69545e-06
7.44352e-06
-1.01021e-05
1.00782e-05
-2.0905e-05
1.32009e-05
-3.43724e-05
1.67372e-05
-5.06516e-05
2.05541e-05
-6.96883e-05
2.44312e-05
-9.11534e-05
2.80579e-05
-0.000114412
3.10717e-05
-0.000138565
3.31211e-05
-0.000162539
3.39257e-05
-0.000185218
3.33093e-05
-0.000205551
3.12045e-05
-0.000222634
2.76379e-05
-0.000235745
2.27104e-05
-0.000244341
1.65779e-05
-0.000248048
9.43776e-06
-0.000246642
1.51913e-06
-0.000240035
-6.91963e-06
-0.00022827
-1.55896e-05
-0.000211533
-2.41672e-05
-0.00019016
-3.22905e-05
-0.000164659
-3.95609e-05
-0.000135728
-4.55537e-05
-0.000104265
-4.98422e-05
-7.1362e-05
-5.20375e-05
-3.82759e-05
-5.18433e-05
-6.37124e-06
-4.91162e-05
2.29705e-05
-4.39242e-05
4.84606e-05
-3.65801e-05
6.9027e-05
-2.76399e-05
8.39224e-05
-1.78525e-05
9.28146e-05
-8.0662e-06
9.58287e-05
8.87051e-07
9.35529e-05
8.3168e-06
8.69719e-05
1.3764e-05
7.73509e-05
1.70701e-05
6.60379e-05
1.83656e-05
5.42772e-05
1.8028e-05
4.30246e-05
1.65539e-05
3.29056e-05
1.44639e-05
2.41922e-05
1.2174e-05
1.69422e-05
9.99334e-06
1.1033e-05
8.03283e-06
6.37684e-06
6.31086e-06
2.89638e-06
4.58249e-06
7.26277e-07
2.74852e-06
6.06977e-07
1.86194e-06
-3.3701e-06
5.81214e-06
-8.30358e-06
1.06255e-05
-1.04384e-05
1.5016e-05
-1.00549e-05
1.82905e-05
-7.82481e-06
1.99991e-05
-4.734e-06
2.0115e-05
-1.54999e-06
1.86902e-05
1.28893e-06
1.58184e-05
3.74623e-06
1.14188e-05
6.09726e-06
5.24296e-06
8.76172e-06
-3.1409e-06
1.21348e-05
-1.42454e-05
1.64648e-05
-2.85961e-05
2.18336e-05
-4.66357e-05
2.81724e-05
-6.86317e-05
3.52686e-05
-9.45377e-05
4.27328e-05
-0.000123875
4.99954e-05
-0.000155706
5.63767e-05
-0.000188745
6.12227e-05
-0.000221563
6.40318e-05
-0.000252805
6.45212e-05
-0.00028133
6.26199e-05
-0.000306269
5.84183e-05
-0.000327014
5.21075e-05
-0.00034317
4.39293e-05
-0.000354499
3.41437e-05
-0.000360869
2.30148e-05
-0.000362213
1.08072e-05
-0.000358504
-2.20648e-06
-0.00034975
-1.57344e-05
-0.000335992
-2.9449e-05
-0.000317328
-4.29706e-05
-0.000293939
-5.58531e-05
-0.000266122
-6.75781e-05
-0.000234336
-7.75623e-05
-0.000199229
-8.51847e-05
-0.000161668
-8.98387e-05
-0.000122738
-9.10095e-05
-8.37096e-05
-8.83671e-05
-4.59697e-05
-8.18628e-05
-1.09198e-05
-7.1796e-05
2.01479e-05
-5.88323e-05
4.61607e-05
-4.39452e-05
6.63577e-05
-2.82957e-05
8.03317e-05
-1.30769e-05
8.80615e-05
6.35301e-07
8.99137e-05
1.19858e-05
8.66521e-05
2.04243e-05
7.93721e-05
2.5741e-05
6.93973e-05
2.80998e-05
5.80576e-05
2.79773e-05
4.65295e-05
2.60728e-05
3.56438e-05
2.3119e-05
2.59301e-05
1.97696e-05
1.75705e-05
1.64241e-05
1.06811e-05
1.32513e-05
5.24235e-06
1.00218e-05
1.56442e-06
6.47617e-06
2.16711e-06
2.25665e-06
-5.59185e-06
6.71128e-06
-1.27867e-05
1.17515e-05
-1.54303e-05
1.58543e-05
-1.41641e-05
1.83121e-05
-1.02535e-05
1.86824e-05
-5.10401e-06
1.69329e-05
2.12548e-07
1.30144e-05
5.20481e-06
6.83159e-06
9.92982e-06
-1.95476e-06
1.48751e-05
-1.38606e-05
2.06578e-05
-2.953e-05
2.77869e-05
-4.95677e-05
3.64802e-05
-7.43997e-05
4.6635e-05
-0.000104081
5.78148e-05
-0.000138134
6.9269e-05
-0.000175479
8.00113e-05
-0.000214582
8.90206e-05
-0.000253759
9.54662e-05
-0.000291479
9.88469e-05
-0.000326549
9.8998e-05
-0.000358152
9.60135e-05
-0.000385789
9.01442e-05
-0.00040919
8.17129e-05
-0.000428233
7.10562e-05
-0.000442873
5.84943e-05
-0.000453101
4.4319e-05
-0.000458909
2.87949e-05
-0.000460273
1.21703e-05
-0.000457147
-5.30705e-06
-0.000449461
-2.33684e-05
-0.000437132
-4.16999e-05
-0.000420084
-5.99167e-05
-0.000398276
-7.75381e-05
-0.000371741
-9.39715e-05
-0.000340639
-0.000108508
-0.000305313
-0.000120345
-0.000266344
-0.000128639
-0.000224593
-0.000132594
-0.000181209
-0.000131594
-0.000137588
-0.000125342
-9.5273e-05
-0.00011399
-5.57985e-05
-9.82101e-05
-2.05211e-05
-7.91546e-05
9.52607e-06
-5.83035e-05
3.36878e-05
-3.72291e-05
5.16765e-05
-1.73684e-05
6.35043e-05
1.19425e-07
6.94703e-05
1.44068e-05
7.01538e-05
2.49937e-05
6.64498e-05
3.17423e-05
5.94779e-05
3.4884e-05
5.04904e-05
3.50097e-05
4.06196e-05
3.29347e-05
3.08246e-05
2.95342e-05
2.16925e-05
2.55093e-05
1.36905e-05
2.12483e-05
7.00927e-06
1.66528e-05
2.22943e-06
1.12815e-05
4.36404e-06
2.48418e-06
-8.06005e-06
7.02612e-06
-1.73841e-05
1.16372e-05
-2.00181e-05
1.46238e-05
-1.71839e-05
1.53173e-05
-1.09409e-05
1.33279e-05
-3.13118e-06
8.608e-06
4.93504e-06
9.59156e-07
1.28485e-05
-9.97379e-06
2.08676e-05
-2.48243e-05
2.97293e-05
-4.43227e-05
4.01668e-05
-6.91281e-05
5.26061e-05
-9.95537e-05
6.69267e-05
-0.000135346
8.24539e-05
-0.000175532
9.8033e-05
-0.000218506
0.000112282
-0.000262363
0.000123915
-0.000305319
0.00013203
-0.000345983
0.00013619
-0.00038343
0.00013636
-0.000417128
0.000132767
-0.000446824
0.000125782
-0.000472437
0.000115827
-0.000493984
0.000103321
-0.00051153
8.86495e-05
-0.000525153
7.21482e-05
-0.000534925
5.41039e-05
-0.000540896
3.47598e-05
-0.000543078
1.43287e-05
-0.00054144
-6.98746e-06
-0.000535893
-2.89742e-05
-0.000526292
-5.13741e-05
-0.000512442
-7.38546e-05
-0.000494107
-9.5971e-05
-0.00047105
-0.000117135
-0.000443078
-0.000136592
-0.00041012
-0.000153418
-0.000372314
-0.000166558
-0.000330111
-0.000174906
-0.000284357
-0.000177449
-0.000236336
-0.000173453
-0.000187724
-0.00016268
-0.000140435
-0.000145561
-9.63724e-05
-0.000123263
-5.71287e-05
-9.75729e-05
-2.37721e-05
-7.05933e-05
3.21712e-06
-4.43455e-05
2.38083e-05
-2.04463e-05
3.82504e-05
4.47736e-09
4.69373e-05
1.6349e-05
5.04429e-05
2.82854e-05
4.95316e-05
3.58351e-05
4.52082e-05
3.93778e-05
3.85488e-05
3.96207e-05
3.0661e-05
3.74614e-05
2.24005e-05
3.37779e-05
1.45625e-05
2.91274e-05
7.6242e-06
2.35714e-05
2.46675e-06
1.64941e-05
6.81622e-06
2.58667e-06
-1.06173e-05
6.75639e-06
-2.15908e-05
1.0208e-05
-2.34308e-05
1.12103e-05
-1.82e-05
9.20033e-06
-8.91131e-06
3.86118e-06
2.20357e-06
-4.92602e-06
1.37298e-05
-1.7578e-05
2.54967e-05
-3.47422e-05
3.80315e-05
-5.7253e-05
5.2234e-05
-8.5778e-05
6.86858e-05
-0.000120507
8.73248e-05
-0.000160854
0.00010726
-0.000205409
0.000126989
-0.000252174
0.000144775
-0.00029905
0.000159128
-0.00034426
0.000169091
-0.000386554
0.000174287
-0.000425179
0.000174775
-0.000459759
0.000170896
-0.000490166
0.000163128
-0.000516432
0.000152001
-0.000538685
0.000138036
-0.000557114
0.000121712
-0.000571937
0.000103443
-0.00058338
8.35734e-05
-0.000591655
6.23732e-05
-0.00059694
4.00517e-05
-0.000599361
1.67678e-05
-0.000598971
-7.34825e-06
-0.000595736
-3.21707e-05
-0.000589518
-5.75455e-05
-0.000580063
-8.32546e-05
-0.000567004
-0.000108971
-0.000549862
-0.000134213
-0.000528087
-0.0001583
-0.000501121
-0.000180315
-0.000468502
-0.000199108
-0.000430008
-0.000213332
-0.000385829
-0.000221562
-0.000336729
-0.00022249
-0.000284152
-0.0002152
-0.000230193
-0.000199473
-0.000177379
-0.000176042
-0.000128265
-0.000146666
-8.49349e-05
-0.000113918
-4.86065e-05
-8.06798e-05
-1.95817e-05
-4.94892e-05
2.4971e-06
-2.20961e-05
1.82356e-05
5.80931e-07
2.82875e-05
1.82084e-05
3.33032e-05
3.07877e-05
3.40684e-05
3.85926e-05
3.14676e-05
4.21908e-05
2.65435e-05
4.23765e-05
2.02391e-05
4.00503e-05
1.35512e-05
3.58241e-05
7.21573e-06
2.98628e-05
2.34331e-06
2.14006e-05
9.12978e-06
2.48453e-06
-1.30862e-05
5.72278e-06
-2.48705e-05
7.23716e-06
-2.49235e-05
5.41891e-06
-1.64019e-05
-1.50211e-07
-3.33521e-06
-9.73884e-06
1.17841e-05
-2.36151e-05
2.76091e-05
-4.24337e-05
4.43141e-05
-6.70188e-05
6.26207e-05
-9.80764e-05
8.32957e-05
-0.000135698
0.000106315
-0.000179067
0.000130702
-0.000226445
0.000154649
-0.000275569
0.000176125
-0.000324199
0.000193419
-0.000370555
0.000205501
-0.000413443
0.000211998
-0.000452176
0.000213041
-0.000486439
0.000209058
-0.000516172
0.000200649
-0.000541495
0.000188469
-0.000562654
0.000173177
-0.000579984
0.000155379
-0.000593867
0.000135603
-0.000604702
0.00011428
-0.000612875
9.17412e-05
-0.000618735
6.82212e-05
-0.000622577
4.38747e-05
-0.000624626
1.87911e-05
-0.000625024
-6.98296e-06
-0.000623814
-3.34205e-05
-0.000620919
-6.04852e-05
-0.000616125
-8.80986e-05
-0.000609053
-0.000116098
-0.000599141
-0.000144184
-0.000585636
-0.000171866
-0.000567619
-0.000198396
-0.000544076
-0.000222716
-0.000514029
-0.000243442
-0.000476747
-0.000258903
-0.00043201
-0.000267278
-0.000380395
-0.000266856
-0.000323489
-0.00025641
-0.000263911
-0.000235638
-0.000205038
-0.000205546
-0.00015039
-0.000168568
-0.000102808
-0.000128257
-6.38069e-05
-8.84824e-05
-3.34625e-05
-5.24256e-05
-1.09286e-05
-2.19389e-05
4.91998e-06
2.38128e-06
1.50696e-05
2.06525e-05
2.03951e-05
3.32906e-05
2.17125e-05
4.08822e-05
1.99636e-05
4.415e-05
1.60733e-05
4.39383e-05
1.11108e-05
4.08167e-05
5.98526e-06
3.49666e-05
1.91821e-06
2.55118e-05
1.10336e-05
2.07901e-06
-1.51506e-05
3.70476e-06
-2.65166e-05
2.45447e-06
-2.36551e-05
-2.98003e-06
-1.09727e-05
-1.28777e-05
6.56874e-06
-2.75087e-05
2.64136e-05
-4.73385e-05
4.74393e-05
-7.31536e-05
7.01274e-05
-0.00010564
9.51051e-05
-0.00014488
0.000122532
-0.000189937
0.000151367
-0.000238884
0.000179643
-0.000289258
0.000205015
-0.000338685
0.000225542
-0.000385312
0.000240035
-0.000427912
0.000248088
-0.000465783
0.000249856
-0.000498623
0.000245867
-0.000526428
0.00023685
-0.000549421
0.000223631
-0.000567995
0.000207034
-0.000582651
0.000187829
-0.000593946
0.000166674
-0.00060244
0.000144103
-0.00060866
0.000120514
-0.000613082
9.61822e-05
-0.000616111
7.12757e-05
-0.000618082
4.58773e-05
-0.000619258
2.00037e-05
-0.000619827
-6.37179e-06
-0.000619899
-3.33021e-05
-0.00061949
-6.08437e-05
-0.0006185
-8.90357e-05
-0.000616676
-0.000117867
-0.000613568
-0.000147239
-0.000608479
-0.000176904
-0.000600428
-0.000206399
-0.000588144
-0.000234957
-0.000570125
-0.000261426
-0.000544791
-0.00028421
-0.000510754
-0.000301295
-0.000467207
-0.000310387
-0.00041437
-0.000309234
-0.000353874
-0.000296124
-0.000288899
-0.000270511
-0.000223865
-0.000233595
-0.000163547
-0.000188573
-0.000111818
-0.000140216
-7.05876e-05
-9.36642e-05
-3.96584e-05
-5.28826e-05
-1.75395e-05
-1.97474e-05
-2.5267e-06
5.62294e-06
6.80626e-06
2.39513e-05
1.15453e-05
3.61255e-05
1.26912e-05
4.30042e-05
1.11791e-05
4.54299e-05
8.0888e-06
4.39176e-05
4.41929e-06
3.86064e-05
1.38575e-06
2.85708e-05
1.23998e-05
1.25195e-06
-1.64036e-05
5.21332e-07
-2.57897e-05
-4.2643e-06
-1.88717e-05
-1.39697e-05
-1.2641e-06
-2.87916e-05
2.13872e-05
-4.904e-05
4.66663e-05
-7.53234e-05
7.37216e-05
-0.000108283
0.000103092
-0.000148035
0.000134859
-0.000193656
0.000168158
-0.000243158
0.000200872
-0.000293942
0.000230431
-0.000343484
0.000254559
-0.000389793
0.000271855
-0.000431544
0.00028179
-0.000467981
0.000284528
-0.000498802
0.000280681
-0.000524072
0.000271141
-0.000544143
0.000256925
-0.000559574
0.000239066
-0.000571045
0.000218508
-0.000579274
0.000196059
-0.000584952
0.00017235
-0.000588701
0.000147848
-0.000591055
0.000122859
-0.00059245
9.75655e-05
-0.000593239
7.20484e-05
-0.0005937
4.63181e-05
-0.000594052
2.03326e-05
-0.000594468
-5.98162e-06
-0.000595079
-3.27194e-05
-0.00059597
-5.99826e-05
-0.000597164
-8.78715e-05
-0.000598593
-0.000116468
-0.000600046
-0.000145813
-0.000601102
-0.000175873
-0.000601048
-0.000206477
-0.000598792
-0.000237234
-0.000592816
-0.000267422
-0.000581187
-0.000295859
-0.000561709
-0.000320794
-0.000532244
-0.000339874
-0.00049123
-0.000350271
-0.000438327
-0.000349045
-0.000375059
-0.000333791
-0.00030514
-0.000303517
-0.000234172
-0.000259536
-0.000168456
-0.000205926
-0.000113106
-0.000149004
-7.04492e-05
-9.55338e-05
-3.98309e-05
-5.03554e-05
-1.89959e-05
-1.52088e-05
-5.56647e-06
1.05345e-05
2.28399e-06
2.82755e-05
5.94669e-06
3.93562e-05
6.53419e-06
4.48373e-05
5.17266e-06
4.52979e-05
2.90896e-06
4.08553e-05
8.86068e-07
3.06197e-05
1.32773e-05
-8.14481e-08
-1.63366e-05
-3.90034e-06
-2.19434e-05
-1.28648e-05
-9.92977e-06
-2.73113e-05
1.32016e-05
-4.74296e-05
4.1491e-05
-7.35371e-05
7.27828e-05
-0.000106197
0.000106372
-0.000145541
0.000142439
-0.000190796
0.000180107
-0.000240019
0.000217381
-0.000290568
0.000251415
-0.00033975
0.00027961
-0.000385405
0.000300208
-0.000426054
0.000312502
-0.000460862
0.000316594
-0.000489519
0.000313185
-0.000512171
0.000303332
-0.000529309
0.000288282
-0.000541672
0.000269291
-0.000550112
0.000247512
-0.000555498
0.000223901
-0.000558624
0.000199195
-0.000560173
0.000173911
-0.000560691
0.00014838
-0.000560598
0.000122782
-0.000560207
9.71929e-05
-0.000559748
7.16094e-05
-0.000559392
4.5985e-05
-0.000559277
2.02422e-05
-0.000559521
-5.71073e-06
-0.000560237
-3.19762e-05
-0.000561531
-5.86596e-05
-0.000563501
-8.58708e-05
-0.00056622
-0.000113718
-0.000569698
-0.000142305
-0.000573828
-0.000171713
-0.000578301
-0.000201974
-0.000582493
-0.000233012
-0.000585334
-0.000264552
-0.000585191
-0.000295975
-0.000579817
-0.000326145
-0.000566456
-0.000353219
-0.000542185
-0.000374533
-0.000504553
-0.000386676
-0.000452471
-0.000385877
-0.000387175
-0.00036882
-0.000312858
-0.000333857
-0.00023644
-0.000282345
-0.000165986
-0.000219457
-0.000108
-0.000153524
-6.50555e-05
-9.33012e-05
-3.57814e-05
-4.44927e-05
-1.69861e-05
-8.2611e-06
-5.67205e-06
1.69503e-05
3.95754e-07
3.32918e-05
2.81282e-06
4.24074e-05
2.9012e-06
4.52176e-05
1.78583e-06
4.19537e-05
5.46318e-07
3.18733e-05
1.38132e-05
-1.9436e-06
-1.4427e-05
-9.45503e-06
-1.437e-05
-2.30114e-05
3.57724e-06
-4.24034e-05
3.26326e-05
-6.7865e-05
6.69289e-05
-9.95983e-05
0.000104538
-0.000137859
0.000144624
-0.000181984
0.000186576
-0.000230282
0.000228401
-0.000280108
0.000267213
-0.000328674
0.000299979
-0.000373591
0.00032453
-0.000413212
0.000339829
-0.000446578
0.00034587
-0.000473369
0.000343385
-0.00049379
0.000333607
-0.000508476
0.000318018
-0.000518329
0.000298136
-0.000524373
0.000275333
-0.000527601
0.000250737
-0.000528894
0.000225189
-0.000528963
0.000199257
-0.000528343
0.000173281
-0.000527411
0.000147436
-0.000526416
0.000121773
-0.000525516
9.62756e-05
-0.000524809
7.08832e-05
-0.000524363
4.55175e-05
-0.000524235
2.00906e-05
-0.000524487
-5.4842e-06
-0.000525195
-3.1295e-05
-0.000526455
-5.74269e-05
-0.000528384
-8.39694e-05
-0.000531115
-0.000111015
-0.000534777
-0.000138669
-0.000539473
-0.000167042
-0.000545217
-0.000196252
-0.00055185
-0.000226398
-0.000558907
-0.000257511
-0.000565441
-0.000289451
-0.00056984
-0.000321751
-0.000569687
-0.000353373
-0.000561781
-0.000382439
-0.000542455
-0.000406002
-0.00050831
-0.000420025
-0.000457365
-0.000419773
-0.000390422
-0.000400807
-0.000312131
-0.000360641
-0.00023089
-0.000300693
-0.000156774
-0.000227635
-9.76379e-05
-0.000152427
-5.59123e-05
-8.62176e-05
-2.90727e-05
-3.50921e-05
-1.29546e-05
8.28134e-07
-4.03275e-06
2.438e-05
1.81883e-07
3.81867e-05
1.47876e-06
4.39327e-05
1.18459e-06
4.22378e-05
4.10976e-07
3.26618e-05
1.42192e-05
-4.28272e-06
-1.01994e-05
-1.58915e-05
-2.66086e-06
-3.4191e-05
2.17953e-05
-5.84496e-05
5.69472e-05
-8.89332e-05
9.73716e-05
-0.000125545
0.000141174
-0.000168009
0.000187066
-0.000214794
0.000233371
-0.000263527
0.000277122
-0.000311294
0.000314983
-0.000355551
0.000344228
-0.000394392
0.000363373
-0.000426735
0.000372169
-0.00045218
0.000371316
-0.00047098
0.000362185
-0.000483868
0.000346499
-0.000491903
0.000326056
-0.000496247
0.000302484
-0.000498014
0.000277104
-0.000498147
0.000250876
-0.000497378
0.000224425
-0.000496217
0.000198103
-0.000494993
0.000172066
-0.000493892
0.000146344
-0.000493004
0.000120895
-0.00049236
9.5645e-05
-0.000491968
7.05047e-05
-0.000491825
4.53908e-05
-0.00049194
2.02231e-05
-0.000492338
-5.06774e-06
-0.000493067
-3.0547e-05
-0.000494201
-5.62731e-05
-0.000495844
-8.23067e-05
-0.00049813
-0.000108711
-0.00050122
-0.000135561
-0.000505292
-0.000162953
-0.000510522
-0.000191008
-0.000517031
-0.000219877
-0.000524803
-0.000249728
-0.000533544
-0.000280702
-0.000542475
-0.000312812
-0.000550084
-0.000345754
-0.000553894
-0.000378619
-0.000550374
-0.000409513
-0.000535195
-0.000435197
-0.000504022
-0.000450943
-0.00045393
-0.000450904
-0.000385248
-0.000429334
-0.000303167
-0.000382783
-0.00021784
-0.000312967
-0.000141564
-0.000228699
-8.32757e-05
-0.000144508
-4.44741e-05
-7.38885e-05
-2.10788e-05
-2.25769e-05
-8.07126e-06
1.13779e-05
-1.64617e-06
3.1751e-05
8.20755e-07
4.14738e-05
1.0881e-06
4.19578e-05
4.76137e-07
3.3285e-05
1.46884e-05
-6.94774e-06
-3.32636e-06
-2.27767e-05
1.33106e-05
-4.56605e-05
4.45683e-05
-7.43836e-05
8.57513e-05
-0.000109178
0.000132117
-0.000149476
0.000181511
-0.000194377
0.000231946
-0.000241621
0.000280634
-0.000288505
0.000323995
-0.000332216
0.000358703
-0.000370673
0.00038268
-0.000402532
0.000395239
-0.000427316
0.000396951
-0.000445225
0.000389229
-0.000457074
0.000374034
-0.000464018
0.000353445
-0.000467359
0.000329394
-0.000468302
0.000303427
-0.000467861
0.000276659
-0.000466776
0.000249787
-0.000465542
0.000223185
-0.000464439
0.000196994
-0.000463601
0.000171218
-0.000463057
0.000145791
-0.00046279
0.000120617
-0.000462757
9.55999e-05
-0.000462918
7.06519e-05
-0.000463242
4.56995e-05
-0.000463716
2.06805e-05
-0.000464346
-4.45426e-06
-0.000465163
-2.97479e-05
-0.000466218
-5.52352e-05
-0.000467592
-8.09516e-05
-0.000469389
-0.000106931
-0.00047175
-0.000133218
-0.000474849
-0.00015987
-0.000478895
-0.000186976
-0.000484119
-0.000214666
-0.000490734
-0.000243124
-0.000498855
-0.000272589
-0.000508356
-0.000303319
-0.000518632
-0.000335483
-0.000528298
-0.000368955
-0.000534859
-0.000402951
-0.000534517
-0.000435534
-0.000522346
-0.000463108
-0.000493127
-0.000480117
-0.000443034
-0.000479429
-0.000372029
-0.000453795
-0.000286129
-0.000398878
-0.000197676
-0.00031715
-0.000121344
-0.00022084
-6.635e-05
-0.000128865
-3.21918e-05
-5.67421e-05
-1.30342e-05
-7.77049e-06
-3.3992e-06
2.21066e-05
5.4927e-07
3.75365e-05
1.3176e-06
4.11779e-05
6.79982e-07
3.39369e-05
1.53625e-05
-9.74035e-06
6.31755e-06
-2.96367e-05
3.33853e-05
-5.6677e-05
7.14632e-05
-8.91908e-05
0.000118362
-0.000127283
0.000170141
-0.000169819
0.00022409
-0.000215331
0.000277424
-0.000261085
0.000326406
-0.000304389
0.000367279
-0.000342776
0.000397098
-0.000374739
0.000414633
-0.000399533
0.000420037
-0.000417311
0.000414725
-0.000428838
0.000400759
-0.000435365
0.000380559
-0.000438272
0.000356354
-0.000438881
0.000330002
-0.000438254
0.000302803
-0.000437172
0.000275577
-0.000436109
0.000248727
-0.00043532
0.000222399
-0.000434888
0.000196568
-0.000434808
0.000171143
-0.000435018
0.000146009
-0.000435449
0.000121056
-0.000436033
9.61931e-05
-0.000436719
7.13481e-05
-0.000437474
4.6466e-05
-0.000438285
2.15038e-05
-0.000439156
-3.56937e-06
-0.000440111
-2.878e-05
-0.000441186
-5.41467e-05
-0.000442436
-7.96881e-05
-0.000443935
-0.000105419
-0.00044578
-0.00013136
-0.000448101
-0.000157538
-0.000451066
-0.000184001
-0.000454894
-0.00021083
-0.000459849
-0.000238163
-0.00046622
-0.000266214
-0.000474242
-0.000295293
-0.000483948
-0.000325776
-0.000494901
-0.000358001
-0.000505828
-0.000392023
-0.000514198
-0.000427162
-0.000515927
-0.000461374
-0.000505498
-0.000490538
-0.000476857
-0.000508064
-0.000425421
-0.000505231
-0.000351094
-0.000473218
-0.000261282
-0.000406972
-0.000171157
-0.000310973
-9.7606e-05
-0.000202404
-4.86102e-05
-0.000105737
-2.05047e-05
-3.58684e-05
-6.06745e-06
7.65604e-06
1.04085e-07
3.13758e-05
1.59948e-06
3.96674e-05
9.32974e-07
3.4618e-05
1.62877e-05
-1.24049e-05
1.86112e-05
-3.59293e-05
5.71251e-05
-6.64452e-05
0.000101809
-0.000101847
0.000153883
-0.000142032
0.000210252
-0.000185306
0.00026742
-0.000229792
0.000321875
-0.000272567
0.000369207
-0.000311204
0.000405901
-0.00034372
0.000429629
-0.000369224
0.000440129
-0.000387577
0.000438401
-0.000399517
0.000426663
-0.000406244
0.000407493
-0.000409247
0.000383561
-0.00040991
0.00035702
-0.000409401
0.00032949
-0.000408522
0.000301924
-0.000407776
0.000274827
-0.000407389
0.000248339
-0.000407427
0.000222432
-0.000407844
0.00019698
-0.000408558
0.000171852
-0.000409474
0.000146918
-0.000410511
0.000122086
-0.000411605
9.72796e-05
-0.000412716
7.24497e-05
-0.000413819
4.75601e-05
-0.000414911
2.25852e-05
-0.000415998
-2.49243e-06
-0.000417102
-2.76871e-05
-0.000418252
-5.30076e-05
-0.000419488
-7.84633e-05
-0.000420858
-0.000104059
-0.000422424
-0.000129803
-0.000424267
-0.000155704
-0.000426497
-0.00018178
-0.000429263
-0.00020807
-0.000432781
-0.000234651
-0.000437334
-0.000261667
-0.000443269
-0.000289362
-0.000450934
-0.000318114
-0.000460514
-0.000348424
-0.00047173
-0.000380809
-0.000483389
-0.000415503
-0.000492858
-0.000451905
-0.000495675
-0.000487716
-0.000485655
-0.000518077
-0.000455946
-0.00053493
-0.00040144
-0.000527725
-0.00032257
-0.000485853
-0.000229046
-0.000404513
-0.000139635
-0.000291814
-7.24964e-05
-0.000172867
-3.19438e-05
-7.64038e-05
-1.06728e-05
-1.36314e-05
-1.12043e-06
2.18366e-05
1.63033e-06
3.6901e-05
1.13547e-06
3.51287e-05
1.7416e-05
-1.47177e-05
3.3201e-05
-4.12214e-05
8.38685e-05
-7.43729e-05
0.000134764
-0.000111647
0.000191288
-0.000152693
0.000251209
-0.000195347
0.00031013
-0.00023752
0.000364002
-0.000276347
0.000408059
-0.000309826
0.000439355
-0.000336516
0.000456332
-0.000356142
0.000459741
-0.000369122
0.000451388
-0.000376661
0.000434193
-0.000380199
0.000411035
-0.000381259
0.000384614
-0.000381057
0.000356821
-0.000380504
0.000328933
-0.000380111
0.000301533
-0.000380134
0.000274849
-0.000380609
0.000248816
-0.000381485
0.000223309
-0.000382652
0.000198151
-0.000384007
0.00017321
-0.000385455
0.000148372
-0.00038693
0.000123566
-0.000388383
9.87394e-05
-0.00038979
7.38638e-05
-0.00039114
4.89185e-05
-0.000392439
2.38915e-05
-0.000393697
-1.22496e-06
-0.000394939
-2.64374e-05
-0.000396188
-5.17491e-05
-0.000397478
-7.71649e-05
-0.000398842
-0.000102686
-0.00040032
-0.000128317
-0.000401958
-0.000154059
-0.000403815
-0.000179917
-0.000405976
-0.000205903
-0.000408572
-0.000232051
-0.000411802
-0.000258433
-0.00041596
-0.000285202
-0.000421441
-0.000312633
-0.000428689
-0.000341176
-0.000438029
-0.000371471
-0.000449319
-0.000404214
-0.000461395
-0.000439832
-0.000471415
-0.000477694
-0.000474385
-0.000515104
-0.000463328
-0.000545978
-0.000430619
-0.000560426
-0.000371049
-0.000545421
-0.000286488
-0.000489099
-0.000190316
-0.000387988
-0.00010542
-0.000257785
-4.86194e-05
-0.000133157
-1.79819e-05
-4.42915e-05
-3.62618e-06
7.49361e-06
1.17344e-06
3.20857e-05
1.21216e-06
3.51028e-05
1.86217e-05
-1.64694e-05
4.95352e-05
-4.5135e-05
0.000112798
-7.99786e-05
0.000169397
-0.000118075
0.000229531
-0.000158827
0.000291867
-0.000199742
0.000351113
-0.000238716
0.000402931
-0.000273118
0.000442495
-0.000301448
0.000467665
-0.000322814
0.000477719
-0.000337503
0.000474422
-0.000346386
0.000460286
-0.000350959
0.000438762
-0.000352713
0.000412798
-0.000353036
0.000384934
-0.000352883
0.000356674
-0.000352882
0.000328929
-0.000353288
0.000301942
-0.000354174
0.000275732
-0.00035546
0.000250103
-0.000357043
0.000224889
-0.000358796
0.000199903
-0.000360627
0.000175038
-0.000362459
0.0001502
-0.000364245
0.000125347
-0.000365955
0.000100445
-0.000367578
7.54814e-05
-0.000369113
5.04477e-05
-0.00037057
2.53421e-05
-0.000371965
1.63486e-07
-0.000373321
-2.50887e-05
-0.000374662
-5.04144e-05
-0.000376018
-7.5816e-05
-0.000377416
-0.000101295
-0.000378885
-0.000126854
-0.000380453
-0.000152496
-0.00038215
-0.000178224
-0.000384016
-0.000204041
-0.000386113
-0.000229957
-0.00038855
-0.000255999
-0.000391513
-0.000282239
-0.000395308
-0.00030884
-0.000400375
-0.00033611
-0.000407249
-0.000364598
-0.000416379
-0.000395083
-0.000427715
-0.0004285
-0.000440029
-0.000465379
-0.000450111
-0.000505024
-0.00045223
-0.000543851
-0.000438449
-0.000574199
-0.000400522
-0.000583334
-0.000333785
-0.000555844
-0.000243015
-0.000478778
-0.000146962
-0.000353861
-7.18595e-05
-0.000208234
-2.84506e-05
-8.76834e-05
-7.75236e-06
-1.32131e-05
1.06161e-07
2.42222e-05
1.13007e-06
3.40839e-05
1.97489e-05
-1.75368e-05
6.69276e-05
-4.74748e-05
0.000143009
-8.30614e-05
0.000204759
-0.000121001
0.000267622
-0.000160487
0.000331248
-0.000198857
0.000389549
-0.000234138
0.000438158
-0.000264045
0.000472433
-0.000287596
0.000491188
-0.000304407
0.000494546
-0.000315235
0.000485232
-0.000321258
0.000466317
-0.000324084
0.000441575
-0.000325098
0.000413815
-0.00032546
0.000385286
-0.000325839
0.000357055
-0.000326611
0.000329695
-0.00032784
0.000303174
-0.000329489
0.000277377
-0.000331423
0.00025204
-0.000333532
0.000226996
-0.000335701
0.000202075
-0.000337861
0.000177199
-0.000339955
0.000152298
-0.000341958
0.000127353
-0.000343851
0.000102342
-0.000345633
7.72675e-05
-0.000347308
5.21276e-05
-0.000348889
2.69283e-05
-0.000350393
1.67351e-06
-0.000351845
-2.36325e-05
-0.000353266
-4.89868e-05
-0.000354687
-7.43901e-05
-0.000356132
-9.98435e-05
-0.000357629
-0.000125353
-0.000359197
-0.000150923
-0.000360856
-0.000176562
-0.000362619
-0.000202275
-0.000364508
-0.000228066
-0.000366562
-0.000253944
-0.00036887
-0.00027993
-0.000371609
-0.0003061
-0.000375099
-0.000332618
-0.000379836
-0.000359863
-0.000386451
-0.000388467
-0.000395502
-0.000419454
-0.000406962
-0.000453918
-0.000419393
-0.0004926
-0.000428982
-0.000534257
-0.000428988
-0.000574192
-0.000410429
-0.000601875
-0.000364737
-0.000601527
-0.000289041
-0.000554498
-0.000192996
-0.000449914
-0.000102478
-0.000298798
-4.27738e-05
-0.000147313
-1.35742e-05
-4.24319e-05
-1.65326e-06
1.22984e-05
9.10842e-07
3.15197e-05
2.06597e-05
-1.78447e-05
8.4628e-05
-4.81414e-05
0.000173587
-8.35612e-05
0.000239952
-0.000120479
0.000304698
-0.00015793
0.000368595
-0.00019323
0.000424922
-0.000224643
0.00046952
-0.000250279
0.000498111
-0.000269646
0.00051053
-0.000282788
0.000507715
-0.00029081
0.000493244
-0.00029504
0.000470565
-0.00029705
0.000443579
-0.00029802
0.000414798
-0.000298848
0.000386111
-0.000299947
0.000358162
-0.000301499
0.000331246
-0.000303449
0.000305129
-0.000305707
0.000279633
-0.000308127
0.000254464
-0.000310617
0.000229484
-0.000313083
0.000204543
-0.000315483
0.000179596
-0.000317776
0.00015459
-0.00031995
0.000129524
-0.000321994
0.000104384
-0.000323913
7.91825e-05
-0.00032571
5.3922e-05
-0.000327402
2.86154e-05
-0.000329002
3.27023e-06
-0.000330535
-2.21043e-05
-0.000332023
-4.75028e-05
-0.000333494
-7.29233e-05
-0.000334974
-9.83668e-05
-0.00033649
-0.000123841
-0.000338063
-0.000149353
-0.000339709
-0.000174918
-0.000341438
-0.000200548
-0.000343252
-0.000226253
-0.000345155
-0.000252042
-0.000347167
-0.000277918
-0.000349361
-0.000303907
-0.000351911
-0.000330068
-0.00035516
-0.000356615
-0.000359674
-0.000383951
-0.000366193
-0.000412939
-0.000375357
-0.000444751
-0.000387069
-0.000480896
-0.000399455
-0.000521866
-0.000407764
-0.000565887
-0.000403972
-0.000605649
-0.000378049
-0.000627439
-0.000321968
-0.000610569
-0.000236467
-0.000535454
-0.000139061
-0.000396222
-6.20591e-05
-0.00022432
-2.10778e-05
-8.33396e-05
-4.20512e-06
-4.62792e-06
5.89299e-07
2.67396e-05
2.12469e-05
-1.74038e-05
0.000101886
-4.71945e-05
0.000203655
-8.16408e-05
0.000274171
-0.000116835
0.000340047
-0.00015171
0.000403361
-0.000183681
0.000456963
-0.000211301
0.000497082
-0.000233082
0.000519928
-0.000248951
0.000526367
-0.000259291
0.000518074
-0.000265416
0.000499347
-0.000268669
0.000473828
-0.000270482
0.000445375
-0.00027179
0.00041611
-0.000273247
0.000387555
-0.000275057
0.000359975
-0.00027728
0.00033346
-0.000279794
0.000307645
-0.000282499
0.000282333
-0.000285264
0.00025723
-0.000288021
0.000232237
-0.000290699
0.000207223
-0.000293276
0.000182172
-0.000295724
0.00015704
-0.000298039
0.000131839
-0.000300212
0.000106561
-0.000302252
8.12235e-05
-0.00030416
5.58339e-05
-0.000305952
3.04103e-05
-0.000307642
4.96375e-06
-0.000309252
-2.04918e-05