/*--------------------------------*- C++ -*----------------------------------*\
| =========                 |                                                 |
| \\      /  F ield         | OpenFOAM: The Open Source CFD Toolbox           |
|  \\    /   O peration     | Version:  2406                                  |
|   \\  /    A nd           | Website:  www.openfoam.com                      |
|    \\/     M anipulation  |                                                 |
\*---------------------------------------------------------------------------*/
FoamFile
{
    version     2.0;
    format      ascii;
    arch        "LSB;label=32;scalar=64";
    class       surfaceScalarField;
    location    "9.6";
    object      phi;
}
// * * * * * * * * * * * * * * * * * * * * * * * * * * * * * * * * * * * * * //

dimensions      [0 3 -1 0 0 0 0];

oriented        oriented;

internalField   nonuniform List<scalar> 
7080
(
5.0648e-08
-5.08028e-08
-2.21573e-08
7.54878e-08
-2.1801e-07
1.95648e-07
-5.06593e-07
2.92185e-07
-8.439e-07
3.38025e-07
-1.20255e-06
3.62436e-07
-1.56663e-06
3.65436e-07
-1.92756e-06
3.64484e-07
-2.2838e-06
3.5797e-07
-2.63378e-06
3.53209e-07
-2.97914e-06
3.47286e-07
-3.31928e-06
3.43075e-07
-3.65521e-06
3.37951e-07
-3.98563e-06
3.33102e-07
-4.31016e-06
3.26558e-07
-4.62653e-06
3.18796e-07
-4.93296e-06
3.08361e-07
-5.22618e-06
2.95363e-07
-5.50313e-06
2.78701e-07
-5.75965e-06
2.58314e-07
-5.99163e-06
2.33411e-07
-6.19423e-06
2.03951e-07
-6.36274e-06
1.695e-07
-6.49215e-06
1.30221e-07
-6.57785e-06
8.61222e-08
-6.6154e-06
3.77164e-08
-6.60114e-06
-1.44841e-08
-6.53214e-06
-6.9548e-08
-6.40661e-06
-1.26478e-07
-6.22393e-06
-1.83965e-07
-5.98494e-06
-2.40648e-07
-5.69192e-06
-2.94997e-07
-5.34871e-06
-3.4551e-07
-4.9606e-06
-3.90686e-07
-4.53424e-06
-4.29164e-07
-4.07747e-06
-4.59771e-07
-3.599e-06
-4.81577e-07
-3.10822e-06
-4.94001e-07
-2.61466e-06
-4.9676e-07
-2.12785e-06
-4.90022e-07
-1.65671e-06
-4.74209e-07
-1.2095e-06
-4.50213e-07
-7.93214e-07
-4.1901e-07
-4.13846e-07
-3.82001e-07
-7.57083e-08
-3.40374e-07
2.17812e-07
-2.95677e-07
4.65041e-07
-2.48867e-07
6.64676e-07
-2.01271e-07
8.16907e-07
-1.532e-07
9.21334e-07
-1.05546e-07
9.78837e-07
-5.77491e-08
9.88638e-07
-1.04446e-08
9.51621e-07
3.75549e-08
8.6668e-07
8.46893e-08
7.36854e-07
1.31183e-07
5.6621e-07
1.70576e-07
3.70841e-07
1.97425e-07
1.78385e-07
1.92134e-07
3.70468e-08
1.43704e-07
3.7001e-08
-7.94628e-08
2.60972e-08
-4.41032e-07
4.37542e-07
-1.0567e-06
8.06168e-07
-1.86171e-06
1.0956e-06
-2.78457e-06
1.25481e-06
-3.76854e-06
1.34333e-06
-4.77895e-06
1.3697e-06
-5.79216e-06
1.37392e-06
-6.79931e-06
1.35932e-06
-7.79296e-06
1.34279e-06
-8.77242e-06
1.32135e-06
-9.73419e-06
1.30068e-06
-1.06776e-05
1.27633e-06
-1.15983e-05
1.24973e-06
-1.24933e-05
1.21694e-06
-1.33564e-05
1.17786e-06
-1.41815e-05
1.1293e-06
-1.49603e-05
1.07056e-06
-1.56844e-05
9.99155e-07
-1.63435e-05
9.14319e-07
-1.69273e-05
8.1435e-07
-1.74246e-05
6.98926e-07
-1.78245e-05
5.67409e-07
-1.8116e-05
4.20393e-07
-1.82893e-05
2.586e-07
-1.83357e-05
8.38825e-08
-1.82481e-05
-1.01543e-07
-1.8022e-05
-2.94489e-07
-1.76553e-05
-4.91386e-07
-1.71487e-05
-6.87974e-07
-1.65063e-05
-8.79785e-07
-1.57354e-05
-1.06205e-06
-1.48463e-05
-1.23011e-06
-1.38525e-05
-1.37947e-06
-1.27702e-05
-1.50609e-06
-1.16176e-05
-1.60658e-06
-1.04148e-05
-1.67831e-06
-9.183e-06
-1.71967e-06
-7.94352e-06
-1.73002e-06
-6.71753e-06
-1.70992e-06
-5.52496e-06
-1.6608e-06
-4.38427e-06
-1.58529e-06
-3.31142e-06
-1.48649e-06
-2.32022e-06
-1.3684e-06
-1.42125e-06
-1.23484e-06
-6.23031e-07
-1.09013e-06
6.91204e-08
-9.37547e-07
6.50993e-07
-7.8056e-07
1.12096e-06
-6.20776e-07
1.47685e-06
-4.60121e-07
1.71853e-06
-2.98099e-07
1.84374e-06
-1.3568e-07
1.85329e-06
2.83575e-08
1.74622e-06
1.90353e-07
1.53029e-06
3.46678e-07
1.21746e-06
4.8073e-07
8.42285e-07
5.71946e-07
4.55154e-07
5.75791e-07
1.42218e-07
4.56736e-07
1.76874e-07
-2.36726e-07
2.62221e-07
-9.13775e-07
1.12008e-06
-1.95018e-06
1.84174e-06
-3.23553e-06
2.38674e-06
-4.68309e-06
2.70369e-06
-6.21595e-06
2.88194e-06
-7.79056e-06
2.94683e-06
-9.37254e-06
2.9613e-06
-1.09481e-05
2.93794e-06
-1.25039e-05
2.90364e-06
-1.40365e-05
2.85733e-06
-1.55386e-05
2.80731e-06
-1.70067e-05
2.74795e-06
-1.84333e-05
2.68046e-06
-1.98118e-05
2.59893e-06
-2.11322e-05
2.50213e-06
-2.23847e-05
2.38499e-06
-2.35563e-05
2.24559e-06
-2.46342e-05
2.07994e-06
-2.56034e-05
1.8864e-06
-2.64492e-05
1.66252e-06
-2.7156e-05
1.40785e-06
-2.7709e-05
1.12203e-06
-2.8094e-05
8.0666e-07
-2.82987e-05
4.63992e-07
-2.83127e-05
9.81339e-08
-2.81287e-05
-2.85918e-07
-2.77425e-05
-6.81612e-07
-2.71538e-05
-1.08164e-06
-2.63662e-05
-1.47766e-06
-2.53877e-05
-1.86104e-06
-2.42302e-05
-2.22281e-06
-2.29097e-05
-2.55432e-06
-2.1446e-05
-2.84736e-06
-1.9862e-05
-3.09472e-06
-1.81831e-05
-3.29036e-06
-1.64367e-05
-3.42979e-06
-1.46513e-05
-3.51029e-06
-1.28556e-05
-3.53096e-06
-1.10777e-05
-3.49299e-06
-9.34428e-06
-3.39927e-06
-7.67979e-06
-3.25464e-06
-6.10572e-06
-3.06502e-06
-4.64067e-06
-2.83769e-06
-3.29929e-06
-2.5799e-06
-2.09346e-06
-2.29941e-06
-1.0312e-06
-2.00253e-06
-1.18962e-07
-1.69535e-06
6.39844e-07
-1.38124e-06
1.24133e-06
-1.06327e-06
1.68397e-06
-7.41263e-07
1.96393e-06
-4.16466e-07
2.0812e-06
-8.82445e-08
2.0343e-06
2.37136e-07
1.83297e-06
5.49869e-07
1.49262e-06
8.2131e-07
1.05712e-06
1.01034e-06
5.87491e-07
1.04517e-06
1.93435e-07
8.54283e-07
3.70405e-07
-3.94346e-07
6.52641e-07
-1.3806e-06
2.1099e-06
-2.81049e-06
3.26525e-06
-4.52592e-06
4.10327e-06
-6.42933e-06
4.60152e-06
-8.43022e-06
4.8821e-06
-1.04823e-05
4.99393e-06
-1.25441e-05
5.02133e-06
-1.45988e-05
4.98827e-06
-1.66283e-05
4.93085e-06
-1.86259e-05
4.85091e-06
-2.05802e-05
4.75911e-06
-2.24848e-05
4.64901e-06
-2.43283e-05
4.52139e-06
-2.61011e-05
4.36844e-06
-2.77891e-05
4.18764e-06
-2.9379e-05
3.97201e-06
-3.0854e-05
3.71834e-06
-3.21978e-05
3.42127e-06
-3.33919e-05
3.07846e-06
-3.44183e-05
2.687e-06
-3.52587e-05
2.24684e-06
-3.58965e-05
1.75849e-06
-3.63159e-05
1.22527e-06
-3.65043e-05
6.5179e-07
-3.64514e-05
4.52643e-08
-3.61514e-05
-5.85658e-07
-3.56019e-05
-1.23023e-06
-3.48057e-05
-1.87667e-06
-3.37697e-05
-2.51192e-06
-3.2506e-05
-3.12265e-06
-3.10309e-05
-3.69533e-06
-2.93652e-05
-4.21706e-06
-2.75335e-05
-4.67581e-06
-2.55636e-05
-5.06111e-06
-2.34858e-05
-5.36435e-06
-2.13325e-05
-5.57923e-06
-1.91367e-05
-5.70208e-06
-1.69317e-05
-5.73195e-06
-1.47498e-05
-5.6709e-06
-1.26216e-05
-5.52356e-06
-1.05752e-05
-5.29737e-06
-8.63527e-06
-5.00144e-06
-6.82303e-06
-4.6468e-06
-5.15538e-06
-4.24455e-06
-3.64599e-06
-3.80635e-06
-2.30425e-06
-3.34191e-06
-1.13773e-06
-2.86024e-06
-1.5065e-07
-2.36662e-06
6.52279e-07
-1.86544e-06
1.26889e-06
-1.35682e-06
1.69464e-06
-8.42387e-07
1.92916e-06
-3.22252e-07
1.97079e-06
1.94344e-07
1.83015e-06
6.90713e-07
1.5239e-06
1.12541e-06
1.09912e-06
1.4355e-06
6.20722e-07
1.52049e-06
2.07517e-07
1.26866e-06
5.75812e-07
-5.22789e-07
1.1732e-06
-1.77958e-06
3.37454e-06
-3.55821e-06
5.03995e-06
-5.65328e-06
6.20457e-06
-7.95368e-06
6.90068e-06
-1.0356e-05
7.28947e-06
-1.28126e-05
7.4509e-06
-1.5277e-05
7.48999e-06
-1.77314e-05
7.44392e-06
-2.01536e-05
7.35676e-06
-2.2535e-05
7.23394e-06
-2.48604e-05
7.08776e-06
-2.71208e-05
6.91134e-06
-2.93012e-05
6.70461e-06
-3.13888e-05
6.45808e-06
-3.33664e-05
6.16772e-06
-3.52173e-05
5.82482e-06
-3.69216e-05
5.42488e-06
-3.84601e-05
4.96143e-06
-3.98115e-05
4.43169e-06
-4.09559e-05
3.83281e-06
-4.18733e-05
3.16558e-06
-4.2546e-05
2.43209e-06
-4.29581e-05
1.63809e-06
-4.30972e-05
7.91298e-07
-4.29546e-05
-9.72027e-08
-4.25262e-05
-1.01438e-06
-4.18124e-05
-1.94467e-06
-4.08188e-05
-2.87123e-06
-3.95561e-05
-3.77591e-06
-3.80401e-05
-4.64037e-06
-3.6291e-05
-5.44635e-06
-3.43338e-05
-6.1766e-06
-3.21968e-05
-6.81531e-06
-2.9912e-05
-7.34876e-06
-2.75134e-05
-7.76587e-06
-2.50371e-05
-8.05861e-06
-2.25198e-05
-8.22249e-06
-1.99983e-05
-8.25663e-06
-1.75081e-05
-8.16422e-06
-1.50828e-05
-7.9519e-06
-1.2753e-05
-7.6301e-06
-1.05455e-05
-7.21159e-06
-8.48326e-06
-6.7117e-06
-6.58407e-06
-6.14592e-06
-4.86219e-06
-5.53041e-06
-3.32699e-06
-4.8787e-06
-1.98573e-06
-4.20317e-06
-8.42045e-07
-3.51122e-06
9.99711e-08
-2.80864e-06
8.38804e-07
-2.09582e-06
1.3703e-06
-1.37464e-06
1.69447e-06
-6.45777e-07
1.80974e-06
7.85827e-08
1.72705e-06
7.74903e-07
1.46347e-06
1.38848e-06
1.06717e-06
1.83418e-06
6.05637e-07
1.98088e-06
2.01091e-07
1.67636e-06
7.7648e-07
-6.34601e-07
1.80279e-06
-2.12701e-06
4.87355e-06
-4.20763e-06
7.11267e-06
-6.62952e-06
8.63e-06
-9.26804e-06
9.53346e-06
-1.20087e-05
1.00314e-05
-1.48033e-05
1.02411e-05
-1.76016e-05
1.02883e-05
-2.03858e-05
1.02245e-05
-2.31306e-05
1.01007e-05
-2.58257e-05
9.92602e-06
-2.84528e-05
9.71364e-06
-3.10005e-05
9.45644e-06
-3.34504e-05
9.15316e-06
-3.57874e-05
8.79281e-06
-3.79908e-05
8.36974e-06
-4.00416e-05
7.87371e-06
-4.19171e-05
7.29905e-06
-4.35958e-05
6.63851e-06
-4.50544e-05
5.88917e-06
-4.62716e-05
5.04874e-06
-4.72262e-05
4.11937e-06
-4.79003e-05
3.10533e-06
-4.8278e-05
2.01541e-06
-4.83481e-05
8.61117e-07
-4.81033e-05
-3.42e-07
-4.75415e-05
-1.57596e-06
-4.66657e-05
-2.81988e-06
-4.54847e-05
-4.05153e-06
-4.40121e-05
-5.24738e-06
-4.22672e-05
-6.38397e-06
-4.02737e-05
-7.43828e-06
-3.80597e-05
-8.38877e-06
-3.56571e-05
-9.21587e-06
-3.3101e-05
-9.90275e-06
-3.04287e-05
-1.04359e-05
-2.76795e-05
-1.08054e-05
-2.48935e-05
-1.10061e-05
-2.21105e-05
-1.10371e-05
-1.93696e-05
-1.09027e-05
-1.67072e-05
-1.06119e-05
-1.41568e-05
-1.01783e-05
-1.17471e-05
-9.61905e-06
-9.50255e-06
-8.95435e-06
-7.44164e-06
-8.20493e-06
-5.57836e-06
-7.39223e-06
-3.92109e-06
-6.5344e-06
-2.47554e-06
-5.64778e-06
-1.24328e-06
-4.74229e-06
-2.26227e-07
-3.82533e-06
5.76307e-07
-2.89747e-06
1.16206e-06
-1.96069e-06
1.53264e-06
-1.0157e-06
1.68757e-06
-7.73622e-08
1.63843e-06
8.24695e-07
1.40275e-06
1.62238e-06
1.02868e-06
2.20924e-06
5.84857e-07
2.42205e-06
1.9294e-07
2.06997e-06
9.67649e-07
-7.25289e-07
2.52439e-06
-2.41542e-06
6.57348e-06
-4.75216e-06
9.443e-06
-7.45282e-06
1.13377e-05
-1.03794e-05
1.24569e-05
-1.34068e-05
1.30639e-05
-1.64861e-05
1.33191e-05
-1.95638e-05
1.33698e-05
-2.26223e-05
1.3283e-05
-2.5634e-05
1.31154e-05
-2.85876e-05
1.28802e-05
-3.14623e-05
1.25908e-05
-3.42449e-05
1.22399e-05
-3.69142e-05
1.18246e-05
-3.9453e-05
1.13326e-05
-4.18379e-05
1.07565e-05
-4.40479e-05
1.00847e-05
-4.60578e-05
9.31045e-06
-4.78443e-05
8.42599e-06
-4.93824e-05
7.42855e-06
-5.06496e-05
6.31673e-06
-5.16239e-05
5.0945e-06
-5.22868e-05
3.7688e-06
-5.26229e-05
2.35195e-06
-5.26214e-05
8.59811e-07
-5.22763e-05
-6.87054e-07
-5.15873e-05
-2.26518e-06
-5.05596e-05
-3.84792e-06
-4.92046e-05
-5.40726e-06
-4.75387e-05
-6.91407e-06
-4.5584e-05
-8.33969e-06
-4.33672e-05
-9.65636e-06
-4.0919e-05
-1.08384e-05
-3.82737e-05
-1.18626e-05
-3.54691e-05
-1.27091e-05
-3.2545e-05
-1.33617e-05
-2.95436e-05
-1.38087e-05
-2.65084e-05
-1.40433e-05
-2.34829e-05
-1.40645e-05
-2.05103e-05
-1.38773e-05
-1.76312e-05
-1.34928e-05
-1.48831e-05
-1.29282e-05
-1.22983e-05
-1.22055e-05
-9.90352e-06
-1.13508e-05
-7.71835e-06
-1.03914e-05
-5.75662e-06
-9.35535e-06
-4.02516e-06
-8.26674e-06
-2.52704e-06
-7.14704e-06
-1.26036e-06
-6.00939e-06
-2.23237e-07
-4.86335e-06
5.88896e-07
-3.70951e-06
1.17721e-06
-2.54973e-06
1.54622e-06
-1.38402e-06
1.69752e-06
-2.29369e-07
1.64406e-06
8.79514e-07
1.40427e-06
1.86122e-06
1.02685e-06
2.58876e-06
5.81561e-07
2.86574e-06
1.90144e-07
2.46425e-06
1.15705e-06
-8.04015e-07
3.32263e-06
-2.6627e-06
8.4411e-06
-5.21668e-06
1.19878e-05
-8.15359e-06
1.428e-05
-1.13236e-05
1.56208e-05
-1.45931e-05
1.63361e-05
-1.79117e-05
1.66334e-05
-2.12238e-05
1.6683e-05
-2.45121e-05
1.6568e-05
-2.77472e-05
1.63507e-05
-3.09174e-05
1.60479e-05
-3.39997e-05
1.56728e-05
-3.69797e-05
1.52178e-05
-3.98339e-05
1.46782e-05
-4.25432e-05
1.40403e-05
-4.50823e-05
1.32949e-05
-4.74281e-05
1.24291e-05
-4.95536e-05
1.14352e-05
-5.14337e-05
1.0305e-05
-5.30418e-05
9.03608e-06
-5.43541e-05
7.62818e-06
-5.53474e-05
6.08735e-06
-5.60027e-05
4.42357e-06
-5.63042e-05
2.65316e-06
-5.62415e-05
7.96893e-07
-5.58094e-05
-1.11907e-06
-5.50094e-05
-3.06511e-06
-5.38486e-05
-5.00827e-06
-5.23411e-05
-6.91434e-06
-5.0506e-05
-8.74846e-06
-4.83679e-05
-1.0477e-05
-4.59554e-05
-1.20679e-05
-4.33008e-05
-1.3492e-05
-4.04392e-05
-1.4723e-05
-3.74088e-05
-1.57383e-05
-3.42503e-05
-1.65188e-05
-3.10074e-05
-1.70501e-05
-2.7726e-05
-1.73232e-05
-2.4454e-05
-1.73349e-05
-2.12401e-05
-1.70898e-05
-1.81313e-05
-1.66e-05
-1.51722e-05
-1.5886e-05
-1.24014e-05
-1.49748e-05
-9.85093e-06
-1.39002e-05
-7.54365e-06
-1.26974e-05
-5.49441e-06
-1.14038e-05
-3.70867e-06
-1.00514e-05
-2.18615e-06
-8.66907e-06
-9.20022e-07
-7.2746e-06
9.72632e-08
-5.88056e-06
8.76256e-07
-4.4877e-06
1.42353e-06
-3.09742e-06
1.74828e-06
-1.70799e-06
1.85548e-06
-3.37562e-07
1.76058e-06
9.75373e-07
1.48351e-06
2.13662e-06
1.07428e-06
2.99941e-06
6.04027e-07
3.33347e-06
1.96185e-07
2.87419e-06
1.35163e-06
-8.69506e-07
4.18734e-06
-2.87017e-06
1.0453e-05
-5.60778e-06
1.47171e-05
-8.74521e-06
1.74252e-05
-1.21226e-05
1.89936e-05
-1.55985e-05
1.98172e-05
-1.91217e-05
2.01544e-05
-2.26345e-05
2.01995e-05
-2.61201e-05
2.00526e-05
-2.95477e-05
1.97811e-05
-3.29058e-05
1.94057e-05
-3.61697e-05
1.89388e-05
-3.9324e-05
1.83724e-05
-4.23439e-05
1.76997e-05
-4.52087e-05
1.69056e-05
-4.78914e-05
1.59789e-05
-5.03672e-05
1.49055e-05
-5.26072e-05
1.36763e-05
-5.45848e-05
1.22831e-05
-5.62713e-05
1.07234e-05
-5.76411e-05
8.99847e-06
-5.86696e-05
7.11643e-06
-5.93365e-05
5.09074e-06
-5.96253e-05
2.94226e-06
-5.95258e-05
6.97488e-07
-5.9034e-05
-1.61075e-06
-5.81537e-05
-3.94562e-06
-5.68953e-05
-6.26692e-06
-5.52763e-05
-8.5338e-06
-5.33192e-05
-1.0706e-05
-5.10508e-05
-1.2746e-05
-4.85001e-05
-1.46194e-05
-4.56975e-05
-1.62955e-05
-4.26746e-05
-1.77468e-05
-3.9465e-05
-1.8949e-05
-3.61049e-05
-1.98799e-05
-3.26353e-05
-2.05209e-05
-2.91022e-05
-2.08574e-05
-2.55573e-05
-2.0881e-05
-2.20568e-05
-2.05915e-05
-1.86588e-05
-1.9999e-05
-1.54208e-05
-1.91252e-05
-1.23945e-05
-1.8002e-05
-9.62386e-06
-1.66719e-05
-7.14037e-06
-1.51816e-05
-4.96367e-06
-1.35814e-05
-3.0996e-06
-1.19159e-05
-1.54445e-06
-1.0225e-05
-2.84814e-07
-8.53432e-06
6.95135e-07
-6.86126e-06
1.41496e-06
-5.20723e-06
1.8896e-06
-3.57282e-06
2.13554e-06
-1.95316e-06
2.16317e-06
-3.66102e-07
1.99208e-06
1.14783e-06
1.64477e-06
2.48263e-06
1.17399e-06
3.4723e-06
6.53283e-07
3.85212e-06
2.10574e-07
3.31983e-06
1.56112e-06
-9.27164e-07
5.10817e-06
-3.0499e-06
1.25864e-05
-5.94441e-06
1.76014e-05
-9.25317e-06
2.07407e-05
-1.2808e-05
2.25419e-05
-1.64615e-05
2.34745e-05
-2.01617e-05
2.38502e-05
-2.38494e-05
2.38891e-05
-2.75084e-05
2.37085e-05
-3.11074e-05
2.3381e-05
-3.46348e-05
2.29309e-05
-3.80652e-05
2.23695e-05
-4.13828e-05
2.16883e-05
-4.45613e-05
2.08781e-05
-4.75792e-05
1.99222e-05
-5.04079e-05
1.88072e-05
-5.30211e-05
1.75176e-05
-5.5388e-05
1.60429e-05
-5.74798e-05
1.43741e-05
-5.92657e-05
1.2509e-05
-6.07179e-05
1.045e-05
-6.18096e-05
8.20781e-06
-6.25191e-05
5.79982e-06
-6.28296e-05
3.25265e-06
-6.27326e-05
6.00266e-07
-6.22275e-05
-2.11576e-06
-6.13238e-05
-4.84931e-06
-6.00389e-05
-7.5516e-06
-5.83972e-05
-1.01753e-05
-5.6426e-05
-1.26767e-05
-5.41532e-05
-1.50184e-05
-5.16034e-05
-1.71686e-05
-4.87973e-05
-1.9101e-05
-4.57519e-05
-2.07915e-05
-4.2484e-05
-2.22162e-05
-3.90133e-05
-2.33498e-05
-3.53677e-05
-2.41656e-05
-3.15869e-05
-2.46374e-05
-2.77242e-05
-2.47428e-05
-2.38464e-05
-2.44685e-05
-2.00304e-05
-2.38141e-05
-1.6358e-05
-2.27968e-05
-1.29081e-05
-2.14511e-05
-9.7501e-06
-1.98292e-05
-6.93681e-06
-1.7994e-05
-4.50187e-06
-1.60159e-05
-2.45688e-06
-1.39601e-05
-7.96202e-07
-1.18856e-05
5.01926e-07
-9.83168e-06
1.46565e-06
-7.82514e-06
2.12874e-06
-5.86953e-06
2.51978e-06
-3.96443e-06
2.66741e-06
-2.09987e-06
2.59115e-06
-2.90934e-07
2.31771e-06
1.4225e-06
1.87402e-06
2.92455e-06
1.31741e-06
4.03076e-06
7.25108e-07
4.4417e-06
2.32107e-07
3.81552e-06
1.79156e-06
-9.76479e-07
6.07905e-06
-3.20413e-06
1.48264e-05
-6.23361e-06
2.06214e-05
-9.69026e-06
2.42057e-05
-1.33993e-05
2.62455e-05
-1.72086e-05
2.72892e-05
-2.10656e-05
2.77042e-05
-2.49103e-05
2.77375e-05
-2.87274e-05
2.7524e-05
-3.24853e-05
2.71415e-05
-3.61731e-05
2.66179e-05
-3.97647e-05
2.59631e-05
-4.32445e-05
2.51679e-05
-4.65854e-05
2.42204e-05
-4.97651e-05
2.31021e-05
-5.27537e-05
2.17969e-05
-5.55234e-05
2.02875e-05
-5.80412e-05
1.85616e-05
-6.0276e-05
1.66092e-05
-6.21943e-05
1.4428e-05
-6.37657e-05
1.20216e-05
-6.49613e-05
9.40389e-06
-6.57593e-05
6.59804e-06
-6.61456e-05
3.63918e-06
-6.61179e-05
5.72636e-07
-6.56867e-05
-2.54695e-06
-6.48755e-05
-5.66064e-06
-6.37173e-05
-8.70992e-06
-6.22495e-05
-1.16434e-05
-6.05057e-05
-1.44208e-05
-5.85096e-05
-1.70149e-05
-5.62695e-05
-1.94093e-05
-5.37776e-05
-2.15935e-05
-5.10139e-05
-2.35559e-05
-4.79534e-05
-2.52774e-05
-4.45763e-05
-2.67278e-05
-4.08781e-05
-2.78647e-05
-3.68789e-05
-2.86375e-05
-3.26289e-05
-2.89936e-05
-2.82098e-05
-2.88886e-05
-2.37295e-05
-2.82951e-05
-1.93147e-05
-2.72125e-05
-1.50961e-05
-2.56702e-05
-1.11962e-05
-2.37299e-05
-7.71405e-06
-2.14766e-05
-4.71785e-06
-1.90128e-05
-2.23858e-06
-1.64395e-05
-2.74527e-07
-1.38503e-05
1.20539e-06
-1.13115e-05
2.2477e-06
-8.86817e-06
2.90937e-06
-6.53072e-06
3.24241e-06
-4.29833e-06
3.29677e-06
-2.15331e-06
3.10857e-06
-1.03884e-07
2.71741e-06
1.81518e-06
2.15851e-06
3.48175e-06
1.49687e-06
4.69476e-06
8.1549e-07
5.12041e-06
2.59251e-07
4.37513e-06
2.04931e-06
-1.02078e-06
7.09305e-06
-3.34048e-06
1.7158e-05
-6.48782e-06
2.37577e-05
-1.00739e-05
2.77994e-05
-1.39189e-05
3.00835e-05
-1.78669e-05
3.12417e-05
-2.18659e-05
3.16986e-05
-2.58552e-05
3.17293e-05
-2.98209e-05
3.14866e-05
-3.37316e-05
3.10535e-05
-3.75771e-05
3.04613e-05
-4.13319e-05
2.97185e-05
-4.49803e-05
2.88147e-05
-4.8495e-05
2.77352e-05
-5.18532e-05
2.64592e-05
-5.50238e-05
2.49674e-05
-5.79774e-05
2.32402e-05
-6.06788e-05
2.12628e-05
-6.30942e-05
1.90239e-05
-6.51871e-05
1.65207e-05
-6.69253e-05
1.37593e-05
-6.82801e-05
1.07585e-05
-6.92344e-05
7.55189e-06
-6.97848e-05
4.18949e-06
-6.99485e-05
7.36125e-07
-6.97627e-05
-2.73275e-06
-6.92825e-05
-6.14087e-06
-6.85707e-05
-9.42169e-06
-6.76845e-05
-1.25296e-05
-6.666e-05
-1.54451e-05
-6.55008e-05
-1.8174e-05
-6.41712e-05
-2.07388e-05
-6.25994e-05
-2.31652e-05
-6.06876e-05
-2.54674e-05
-5.8329e-05
-2.76358e-05
-5.54272e-05
-2.96295e-05
-5.19157e-05
-3.1376e-05
-4.77753e-05
-3.27778e-05
-4.30441e-05
-3.37246e-05
-3.78223e-05
-3.41103e-05
-3.22659e-05
-3.38512e-05
-2.6575e-05
-3.29033e-05
-2.09715e-05
-3.12734e-05
-1.56755e-05
-2.90257e-05
-1.08784e-05
-2.62732e-05
-6.72339e-06
-2.31678e-05
-3.29081e-06
-1.98715e-05
-5.99822e-07
-1.65414e-05
1.38643e-06
-1.3297e-05
2.74013e-06
-1.02223e-05
3.55568e-06
-7.34543e-06
3.9257e-06
-4.66912e-06
3.93833e-06
-2.16483e-06
3.66069e-06
1.72458e-07
3.15648e-06
2.32095e-06
2.47702e-06
4.15914e-06
1.70043e-06
5.47373e-06
9.18999e-07
5.89863e-06
2.90619e-07
5.00697e-06
2.338e-06
-1.05958e-06
8.14649e-06
-3.46025e-06
1.95719e-05
-6.71145e-06
2.69984e-05
-1.04123e-05
3.15092e-05
-1.43791e-05
3.40443e-05
-1.84536e-05
3.53219e-05
-2.25843e-05
3.58258e-05
-2.67107e-05
3.58596e-05
-3.08204e-05
3.55944e-05
-3.48829e-05
3.51186e-05
-3.88894e-05
3.44668e-05
-4.28148e-05
3.36457e-05
-4.66442e-05
3.26438e-05
-5.03503e-05
3.14427e-05
-5.39103e-05
3.00191e-05
-5.72919e-05
2.83499e-05
-6.04642e-05
2.64126e-05
-6.33896e-05
2.4189e-05
-6.60321e-05
2.16665e-05
-6.83534e-05
1.88426e-05
-7.03223e-05
1.57283e-05
-7.19171e-05
1.23538e-05
-7.31376e-05
8.7725e-06
-7.40109e-05
5.06309e-06
-7.45992e-05
1.32444e-06
-7.49956e-05
-2.33627e-06
-7.53127e-05
-5.82387e-06
-7.56585e-05
-9.07596e-06
-7.61094e-05
-1.2079e-05
-7.66836e-05
-1.48712e-05
-7.73262e-05
-1.75318e-05
-7.79068e-05
-2.01587e-05
-7.82319e-05
-2.28408e-05
-7.80685e-05
-2.56314e-05
-7.71755e-05
-2.85296e-05
-7.53356e-05
-3.14702e-05
-7.23863e-05
-3.43261e-05
-6.82449e-05
-3.69201e-05
-6.2925e-05
-3.90453e-05
-5.65449e-05
-4.04914e-05
-4.93227e-05
-4.10743e-05
-4.15616e-05
-4.06653e-05
-3.36212e-05
-3.92146e-05
-2.58803e-05
-3.67675e-05
-1.8692e-05
-3.3462e-05
-1.23445e-05
-2.95162e-05
-7.02676e-06
-2.51892e-05
-2.81977e-06
-2.07491e-05
3.00917e-07
-1.64174e-05
2.43602e-06
-1.23582e-05
3.73582e-06
-8.64455e-06
4.36037e-06
-5.29471e-06
4.46455e-06
-2.26788e-06
4.17232e-06
4.63246e-07
3.59218e-06
2.90288e-06
2.80651e-06
4.94266e-06
1.91679e-06
6.36624e-06
1.0311e-06
6.78094e-06
3.2509e-07
5.71703e-06
2.66114e-06
-1.09492e-06
9.23424e-06
-3.56776e-06
2.20575e-05
-6.91145e-06
3.03303e-05
-1.07151e-05
3.53212e-05
-1.47926e-05
3.81145e-05
-1.8984e-05
3.95181e-05
-2.32389e-05
4.00759e-05
-2.74978e-05
4.01213e-05
-3.17501e-05
3.98436e-05
-3.59667e-05
3.93366e-05
-4.01404e-05
3.86384e-05
-4.42473e-05
3.77534e-05
-4.82739e-05
3.66688e-05
-5.21931e-05
3.53623e-05
-5.59825e-05
3.38073e-05
-5.96089e-05
3.19763e-05
-6.30402e-05
2.98431e-05
-6.62372e-05
2.73859e-05
-6.91627e-05
2.45913e-05
-7.17807e-05
2.14604e-05
-7.40694e-05
1.80164e-05
-7.60301e-05
1.43143e-05
-7.77056e-05
1.04476e-05
-7.919e-05
6.54737e-06
-8.06337e-05
2.76779e-06
-8.22262e-05
-7.43904e-07
-8.41638e-05
-3.8865e-06
-8.66014e-05
-6.63842e-06
-8.9607e-05
-9.07353e-06
-9.31278e-05
-1.13504e-05
-9.69804e-05
-1.36793e-05
-0.000100863
-1.62758e-05
-0.00010439
-1.93139e-05
-0.000107133
-2.28883e-05
-0.00010867
-2.69919e-05
-0.000108631
-3.1509e-05
-0.000106732
-3.62246e-05
-0.000102808
-4.08435e-05
-9.68326e-05
-4.50203e-05
-8.89297e-05
-4.8394e-05
-7.93753e-05
-5.06285e-05
-6.85863e-05
-5.14544e-05
-5.70911e-05
-5.07098e-05
-4.54855e-05
-4.83735e-05
-3.43681e-05
-4.45794e-05
-2.42726e-05
-3.96123e-05
-1.55991e-05
-3.38625e-05
-8.57548e-06
-2.77733e-05
-3.24338e-06
-2.17489e-05
5.09242e-07
-1.61115e-05
2.90282e-06
-1.10372e-05
4.19977e-06
-6.59269e-06
4.66482e-06
-2.73159e-06
4.52081e-06
6.05663e-07
3.95638e-06
3.46926e-06
3.11153e-06
5.78506e-06
2.12942e-06
7.35131e-06
1.14569e-06
7.76082e-06
3.61497e-07
6.50557e-06
3.02034e-06
-1.12588e-06
1.03536e-05
-3.66255e-06
2.46082e-05
-7.08867e-06
3.37453e-05
-1.0985e-05
3.9227e-05
-1.51641e-05
4.2287e-05
-1.94648e-05
4.38249e-05
-2.38388e-05
4.44461e-05
-2.82276e-05
4.45142e-05
-3.26233e-05
4.42371e-05
-3.69982e-05
4.37142e-05
-4.13476e-05
4.29867e-05
-4.56494e-05
4.2057e-05
-4.98916e-05
4.09105e-05
-5.40484e-05
3.95205e-05
-5.8098e-05
3.78567e-05
-6.2007e-05
3.58864e-05
-6.57432e-05
3.35793e-05
-6.92673e-05
3.09107e-05
-7.25453e-05
2.78695e-05
-7.55528e-05
2.44685e-05
-7.82956e-05
2.07594e-05
-8.08296e-05
1.68488e-05
-8.3287e-05
1.29051e-05
-8.58863e-05
9.14698e-06
-8.89217e-05
5.80326e-06
-9.27161e-05
3.05065e-06
-9.75511e-05
9.48386e-07
-0.000103588
-6.01616e-07
-0.000110809
-1.85229e-06
-0.000118994
-3.16587e-06
-0.000127731
-4.94186e-06
-0.000136467
-7.5396e-06
-0.000144567
-1.12143e-05
-0.000151378
-1.60764e-05
-0.000156292
-2.20763e-05
-0.00015879
-2.90104e-05
-0.000158471
-3.65419e-05
-0.000155085
-4.42291e-05
-0.000148543
-5.15602e-05
-0.000138945
-5.79916e-05
-0.00012658
-6.29919e-05
-0.000111941
-6.60932e-05
-9.57038e-05
-6.69469e-05
-7.86954e-05
-6.53823e-05
-6.18229e-05
-6.14522e-05
-4.59782e-05
-5.5458e-05
-3.19196e-05
-4.79213e-05
-2.01741e-05
-3.952e-05
-1.09724e-05
-3.09503e-05
-4.26089e-06
-2.28242e-05
2.3885e-07
-1.55361e-05
2.92409e-06
-9.27927e-06
4.22568e-06
-4.03176e-06
4.52745e-06
3.02097e-07
4.15365e-06
3.84522e-06
3.34541e-06
6.59066e-06
2.31853e-06
8.38151e-06
1.25645e-06
8.81878e-06
3.98876e-07
7.36799e-06
3.41681e-06
-1.15365e-06
1.14997e-05
-3.74651e-06
2.72144e-05
-7.24563e-06
3.72321e-05
-1.12254e-05
4.32154e-05
-1.54974e-05
4.65513e-05
-1.99007e-05
4.82334e-05
-2.43891e-05
4.89295e-05
-2.8906e-05
4.9034e-05
-3.3446e-05
4.87738e-05
-3.7984e-05
4.82539e-05
-4.25182e-05
4.75186e-05
-4.70285e-05
4.65682e-05
-5.15058e-05
4.5386e-05
-5.59257e-05
4.39408e-05
-6.02682e-05
4.21979e-05
-6.45009e-05
4.01191e-05
-6.85931e-05
3.76705e-05
-7.25098e-05
3.48273e-05
-7.62297e-05
3.15887e-05
-7.97583e-05
2.79969e-05
-8.31639e-05
2.41643e-05
-8.66098e-05
2.02945e-05
-9.03869e-05
1.66817e-05
-9.49079e-05
1.36678e-05
-0.000100657
1.15522e-05
-0.000108089
1.04819e-05
-0.000117507
1.03665e-05
-0.000128968
1.08592e-05
-0.000142233
1.14125e-05
-0.000156783
1.13856e-05
-0.000171891
1.01665e-05
-0.000186704
7.27557e-06
-0.000200347
2.4302e-06
-0.000211988
-4.43296e-06
-0.000220894
-1.31678e-05
-0.000226455
-2.34463e-05
-0.000228201
-3.47931e-05
-0.000225807
-4.66192e-05
-0.000219111
-5.82536e-05
-0.000208124
-6.89746e-05
-0.000193066
-7.80465e-05
-0.00017439
-8.4766e-05
-0.000152808
-8.85256e-05
-0.000129295
-8.88943e-05
-0.00010504
-8.57054e-05
-8.13587e-05
-7.91394e-05
-5.95254e-05
-6.97542e-05
-4.05918e-05
-5.84545e-05
-2.52116e-05
-4.63301e-05
-1.35687e-05
-3.44684e-05
-5.4131e-06
-2.36906e-05
-2.10274e-07
-1.44835e-05
2.69671e-06
-6.9371e-06
3.93597e-06
-9.39135e-07
4.04849e-06
3.73509e-06
3.44331e-06
7.19293e-06
2.45768e-06
9.37072e-06
1.35555e-06
9.91639e-06
4.36375e-07
8.29236e-06
3.85053e-06
-1.1766e-06
1.26696e-05
-3.81716e-06
2.98696e-05
-7.37954e-06
4.07829e-05
-1.14332e-05
4.7279e-05
-1.579e-05
5.09013e-05
-2.02893e-05
5.27392e-05
-2.48876e-05
5.35239e-05
-2.95304e-05
5.3681e-05
-3.42155e-05
5.34568e-05
-3.89209e-05
5.29621e-05
-4.36481e-05
5.22446e-05
-4.83802e-05
5.13023e-05
-5.31111e-05
5.01165e-05
-5.78197e-05
4.86509e-05
-6.24885e-05
4.68665e-05
-6.70883e-05
4.472e-05
-7.15939e-05
4.21762e-05
-7.5983e-05
3.92173e-05
-8.02646e-05
3.58704e-05
-8.45078e-05
3.22409e-05
-8.88982e-05
2.8555e-05
-9.37831e-05
2.51799e-05
-9.96923e-05
2.25912e-05
-0.000107286
2.12622e-05
-0.00011723
2.14962e-05
-0.000130018
2.32703e-05
-0.00014582
2.6169e-05
-0.0001644
2.94394e-05
-0.000185131
3.21445e-05
-0.000207095
3.3351e-05
-0.00022922
3.22928e-05
-0.000250412
2.84695e-05
-0.000269655
2.1676e-05
-0.000286067
1.19815e-05
-0.000298917
-3.16115e-07
-0.000307618
-1.47426e-05
-0.000311714
-3.06941e-05
-0.00031086
-4.74704e-05
-0.000304814
-6.42964e-05
-0.000293452
-8.03338e-05
-0.000276801
-9.46934e-05
-0.000255104
-0.000106459
-0.000228889
-0.000114736
-0.000199043
-0.000118736
-0.000166846
-0.000117899
-0.000133938
-0.000112046
-0.000102169
-0.000101521
-7.335e-05
-8.72737e-05
-4.89175e-05
-7.07621e-05
-2.96617e-05
-5.37258e-05
-1.56197e-05
-3.77317e-05
-6.21614e-06
-2.38889e-05
-5.33176e-07
-1.26183e-05
2.40308e-06
-3.87765e-06
3.46377e-06
2.67699e-06
3.32401e-06
7.32954e-06
2.51639e-06
1.01822e-05
1.43567e-06
1.09923e-05
4.73998e-07
9.25959e-06
4.32171e-06
-1.1955e-06
1.38572e-05
-3.87478e-06
3.25626e-05
-7.48977e-06
4.43851e-05
-1.1607e-05
5.1405e-05
-1.60391e-05
5.53253e-05
-2.06267e-05
5.7332e-05
-2.53288e-05
5.82208e-05
-3.00939e-05
5.84489e-05
-3.49232e-05
5.82826e-05
-3.97982e-05
5.78387e-05
-4.47246e-05
5.71685e-05
-4.96895e-05
5.62679e-05
-5.4691e-05
5.51162e-05
-5.97123e-05
5.36724e-05
-6.47406e-05
5.18934e-05
-6.97532e-05
4.97327e-05
-7.47377e-05
4.71595e-05
-7.9699e-05
4.41785e-05
-8.47058e-05
4.08763e-05
-8.99431e-05
3.74778e-05
-9.57899e-05
3.4401e-05
-0.000102863
3.22525e-05
-0.00011199
3.17178e-05
-0.000124064
3.33355e-05
-0.00013981
3.72421e-05
-0.000159554
4.30147e-05
-0.000183086
4.97012e-05
-0.000209667
5.6021e-05
-0.000238168
6.06459e-05
-0.000267267
6.24517e-05
-0.000295644
6.06711e-05
-0.000322112
5.49378e-05
-0.000345688
4.52531e-05
-0.000365619
3.19123e-05
-0.000381352
1.54169e-05
-0.000392491
-3.60527e-06
-0.00039873
-2.44573e-05
-0.0003998
-4.64021e-05
-0.000395434
-6.86645e-05
-0.000385356
-9.04134e-05
-0.000369315
-0.000110735
-0.00034716
-0.000128613
-0.000318958
-0.000142936
-0.000285145
-0.000152547
-0.000246675
-0.000156363
-0.000205132
-0.000153585
-0.000162709
-0.000143939
-0.000122008
-0.000127973
-8.55991e-05
-0.000107169
-5.54627e-05
-8.38634e-05
-3.25082e-05
-6.06849e-05
-1.64841e-05
-3.99151e-05
-6.29682e-06
-2.28036e-05
-5.3106e-07
-9.64593e-06
2.16819e-06
-1.93964e-08
2.88563e-06
6.60871e-06
2.45936e-06
1.06126e-05
1.49023e-06
1.19563e-05
5.12986e-07
1.02427e-05
4.83175e-06
-1.2079e-06
1.50584e-05
-3.91496e-06
3.52848e-05
-7.57032e-06
4.80288e-05
-1.17394e-05
5.55844e-05
-1.62361e-05
5.98154e-05
-2.09028e-05
6.20054e-05
-2.57013e-05
6.30154e-05
-3.05829e-05
6.3335e-05
-3.55531e-05
6.32507e-05
-4.05973e-05
6.2886e-05
-4.57259e-05
6.22961e-05
-5.09311e-05
6.14753e-05
-5.62165e-05
6.04013e-05
-6.15713e-05
5.90288e-05
-6.69903e-05
5.73124e-05
-7.24631e-05
5.52067e-05
-7.80007e-05
5.26974e-05
-8.36597e-05
4.98385e-05
-8.96122e-05
4.68291e-05
-9.62281e-05
4.40947e-05
-0.000104164
4.23377e-05
-0.000114369
4.24583e-05
-0.000127951
4.53e-05
-0.000145891
5.12767e-05
-0.00016872
6.0072e-05
-0.000196291
7.05871e-05
-0.000227763
8.11734e-05
-0.000261766
9.00258e-05
-0.000296685
9.55653e-05
-0.000330914
9.66807e-05
-0.000363054
9.28106e-05
-0.000392025
8.39064e-05
-0.0004171
7.03251e-05
-0.000437879
5.26862e-05
-0.000454203
3.17339e-05
-0.000466048
8.23251e-06
-0.000473421
-1.70931e-05
-0.000476261
-4.35716e-05
-0.000474375
-7.0561e-05
-0.000467399
-9.7399e-05
-0.000454812
-0.000123332
-0.000435988
-0.000147446
-0.000410328
-0.000168602
-0.000377453
-0.000185426
-0.000337464
-0.000196353
-0.000291228
-0.00019982
-0.000240605
-0.000194557
-0.0001885
-0.000180075
-0.00013856
-0.000157105
-9.44689e-05
-0.000127954
-5.89477e-05
-9.62038e-05
-3.29795e-05
-6.58858e-05
-1.57741e-05
-4.00067e-05
-5.50514e-06
-1.99179e-05
-1.49101e-07
-5.37246e-06
1.99766e-06
4.4583e-06
2.24538e-06
1.03691e-05
1.5143e-06
1.2682e-05
5.56481e-07
1.12066e-05
5.38516e-06
-1.21463e-06
1.62649e-05
-3.93737e-06
3.80212e-05
-7.61888e-06
5.16971e-05
-1.18258e-05
5.98e-05
-1.6374e-05
6.43552e-05
-2.11079e-05
6.67443e-05
-2.59921e-05
6.7894e-05
-3.09814e-05
6.8327e-05
-3.60852e-05
6.83508e-05
-4.12939e-05
6.8096e-05
-4.66233e-05
6.76227e-05
-5.20715e-05
6.69241e-05
-5.76494e-05
6.59771e-05
-6.33541e-05
6.47336e-05
-6.91923e-05
6.3149e-05
-7.51736e-05
6.11877e-05
-8.135e-05
5.88726e-05
-8.78625e-05
5.63505e-05
-9.50431e-05
5.40086e-05
-0.000103522
5.25728e-05
-0.000114295
5.31098e-05
-0.000128629
5.67918e-05
-0.000147764
6.44341e-05
-0.000172484
7.59966e-05
-0.000202776
9.03637e-05
-0.000237734
0.000105544
-0.000275744
0.000119183
-0.000314835
0.000129116
-0.000353033
0.000133762
-0.000388643
0.000132288
-0.000420429
0.000124593