/*--------------------------------*- C++ -*----------------------------------*\
| =========                 |                                                 |
| \\      /  F ield         | OpenFOAM: The Open Source CFD Toolbox           |
|  \\    /   O peration     | Version:  2406                                  |
|   \\  /    A nd           | Website:  www.openfoam.com                      |
|    \\/     M anipulation  |                                                 |
\*---------------------------------------------------------------------------*/
FoamFile
{
    version     2.0;
    format      ascii;
    arch        "LSB;label=32;scalar=64";
    class       volVectorField;
    location    "47.95";
    object      U;
}
// * * * * * * * * * * * * * * * * * * * * * * * * * * * * * * * * * * * * * //

dimensions      [0 1 -1 0 0 0 0];

internalField   nonuniform List<vector> 
14400
(
(-1.91853e-05 1.91439e-05 0)
(-4.28935e-06 -1.0556e-05 0)
(0.000106765 -4.36871e-05 0)
(0.000301069 -7.34361e-05 0)
(0.000566883 -9.13667e-05 0)
(0.000869506 -0.000101446 0)
(0.00119268 -0.000102587 0)
(0.0015087 -9.7957e-05 0)
(0.00180575 -8.8117e-05 0)
(0.00206763 -7.55567e-05 0)
(0.00228998 -6.13819e-05 0)
(0.0024678 -4.74214e-05 0)
(0.00260395 -3.45812e-05 0)
(0.00270145 -2.38686e-05 0)
(0.0027675 -1.5618e-05 0)
(0.00280872 -1.00353e-05 0)
(0.00283285 -6.86947e-06 0)
(0.00284596 -5.73321e-06 0)
(0.00285323 -5.99373e-06 0)
(0.00285745 -6.98029e-06 0)
(0.00285964 -7.97496e-06 0)
(0.00285851 -8.34827e-06 0)
(0.00285111 -7.5706e-06 0)
(0.00283295 -5.27395e-06 0)
(0.00279861 -1.23137e-06 0)
(0.00274201 4.65266e-06 0)
(0.00265683 1.23963e-05 0)
(0.00253665 2.19808e-05 0)
(0.00237505 3.33963e-05 0)
(0.00216555 4.66622e-05 0)
(0.0019016 6.18354e-05 0)
(0.0015765 7.89974e-05 0)
(0.00118339 9.82369e-05 0)
(0.000715305 0.000119626 0)
(0.000165308 0.000143202 0)
(-0.000473363 0.00016895 0)
(-0.00120708 0.000196794 0)
(-0.00204159 0.000226591 0)
(-0.00298175 0.000258121 0)
(-0.00403131 0.000291088 0)
(-0.00519259 0.00032512 0)
(-0.00646629 0.000359764 0)
(-0.00785122 0.000394495 0)
(-0.0093441 0.000428722 0)
(-0.0109394 0.000461794 0)
(-0.0126293 0.000493013 0)
(-0.0144033 0.000521645 0)
(-0.0162489 0.000546936 0)
(-0.0181506 0.000568122 0)
(-0.0200912 0.000584445 0)
(-0.0220509 0.000595164 0)
(-0.0240081 0.000599564 0)
(-0.0259393 0.000596972 0)
(-0.0278196 0.000586759 0)
(-0.029623 0.00056836 0)
(-0.0313224 0.000541275 0)
(-0.0328903 0.000505094 0)
(-0.034299 0.000459509 0)
(-0.0355209 0.000404339 0)
(-0.0365294 0.000339552 0)
(-0.0372986 0.000265293 0)
(-0.0378048 0.000181918 0)
(-0.0380262 9.00197e-05 0)
(-0.037944 -9.54227e-06 0)
(-0.0375428 -0.000115617 0)
(-0.0368113 -0.000226745 0)
(-0.0357432 -0.000341152 0)
(-0.0343375 -0.000456758 0)
(-0.032599 -0.000571196 0)
(-0.0305394 -0.000681864 0)
(-0.0281769 -0.000785985 0)
(-0.0255369 -0.000880696 0)
(-0.0226517 -0.000963158 0)
(-0.0195605 -0.00103068 0)
(-0.0163084 -0.00108085 0)
(-0.012946 -0.00111169 0)
(-0.0095279 -0.00112176 0)
(-0.00611151 -0.00111033 0)
(-0.00275521 -0.00107738 0)
(0.00048337 -0.00102373 0)
(0.00354931 -0.000950989 0)
(0.00639227 -0.000861536 0)
(0.00896823 -0.000758382 0)
(0.011241 -0.000645042 0)
(0.0131836 -0.000525344 0)
(0.0147787 -0.000403216 0)
(0.0160191 -0.000282482 0)
(0.0169077 -0.000166659 0)
(0.0174568 -5.87965e-05 0)
(0.017687 3.86505e-05 0)
(0.0176258 0.000123893 0)
(0.0173061 0.000195825 0)
(0.0167648 0.000254004 0)
(0.0160403 0.000298578 0)
(0.0151717 0.000330201 0)
(0.0141968 0.000349919 0)
(0.013151 0.000359063 0)
(0.0120666 0.00035913 0)
(0.0109717 0.000351702 0)
(0.00989014 0.000338335 0)
(0.00884116 0.000320526 0)
(0.00783979 0.000299618 0)
(0.00689673 0.000276829 0)
(0.00601926 0.000253152 0)
(0.00521106 0.000229468 0)
(0.00447356 0.000206408 0)
(0.00380528 0.000184565 0)
(0.00320391 0.000164246 0)
(0.00266452 0.00014585 0)
(0.00218308 0.000129347 0)
(0.00175282 0.000114971 0)
(0.0013703 0.000102163 0)
(0.00102901 9.09204e-05 0)
(0.000729375 7.97169e-05 0)
(0.000468152 6.83052e-05 0)
(0.000253441 5.36763e-05 0)
(8.82124e-05 3.62919e-05 0)
(-1.29143e-05 1.25761e-05 0)
(-4.62512e-05 -9.31133e-06 0)
(-2.2429e-05 -2.19646e-05 0)
(9.24388e-06 5.02453e-06 0)
(0.000153738 -0.000157313 0)
(0.000498049 -0.000325579 0)
(0.00100372 -0.000475905 0)
(0.0016547 -0.000575813 0)
(0.00238467 -0.000632887 0)
(0.00315776 -0.000643577 0)
(0.00391722 -0.000618849 0)
(0.004633 -0.000563994 0)
(0.00526995 -0.000490209 0)
(0.00581394 -0.000405249 0)
(0.0062526 -0.000318358 0)
(0.00658818 -0.000235782 0)
(0.00682549 -0.000163 0)
(0.00697727 -0.000102746 0)
(0.00705646 -5.62588e-05 0)
(0.00707795 -2.26228e-05 0)
(0.00705376 3.38277e-07 0)
(0.00699358 1.6053e-05 0)
(0.0069022 2.84675e-05 0)
(0.00678008 4.17671e-05 0)
(0.00662258 5.98178e-05 0)
(0.00642099 8.59257e-05 0)
(0.00616288 0.00012258 0)
(0.00583335 0.00017146 0)
(0.00541571 0.00023351 0)
(0.00489237 0.000309158 0)
(0.00424527 0.000398534 0)
(0.00345626 0.000501679 0)
(0.00250722 0.000618649 0)
(0.00138013 0.000749551 0)
(5.721e-05 0.000894482 0)
(-0.00147887 0.00105342 0)
(-0.00324466 0.00122613 0)
(-0.00525544 0.001412 0)
(-0.00752465 0.00161003 0)
(-0.0100632 0.00181869 0)
(-0.0128789 0.00203596 0)
(-0.0159755 0.00225929 0)
(-0.0193525 0.00248559 0)
(-0.0230042 0.00271132 0)
(-0.0269192 0.00293248 0)
(-0.0310804 0.00314472 0)
(-0.0354646 0.00334342 0)
(-0.0400425 0.00352381 0)
(-0.0447789 0.00368106 0)
(-0.0496332 0.00381043 0)
(-0.0545597 0.00390737 0)
(-0.0595082 0.00396761 0)
(-0.0644254 0.00398729 0)
(-0.0692548 0.00396301 0)
(-0.0739383 0.00389192 0)
(-0.0784171 0.00377174 0)
(-0.0826322 0.00360084 0)
(-0.0865254 0.00337824 0)
(-0.0900404 0.00310364 0)
(-0.0931233 0.00277747 0)
(-0.0957235 0.00240089 0)
(-0.0977941 0.00197584 0)
(-0.0992928 0.00150503 0)
(-0.100183 0.000992049 0)
(-0.100432 0.000441348 0)
(-0.100016 -0.000141686 0)
(-0.0989166 -0.000750708 0)
(-0.097123 -0.00137839 0)
(-0.0946328 -0.00201641 0)
(-0.0914522 -0.00265551 0)
(-0.0875963 -0.00328554 0)
(-0.0830901 -0.00389558 0)
(-0.0779681 -0.00447414 0)
(-0.0722751 -0.00500939 0)
(-0.0660659 -0.00548945 0)
(-0.0594052 -0.00590278 0)
(-0.0523668 -0.00623854 0)
(-0.0450333 -0.00648711 0)
(-0.0374946 -0.0066405 0)
(-0.0298467 -0.00669284 0)
(-0.02219 -0.00664075 0)
(-0.0146268 -0.0064837 0)
(-0.00725977 -0.00622424 0)
(-0.000188666 -0.00586804 0)
(0.0064917 -0.00542391 0)
(0.0126942 -0.00490347 0)
(0.018342 -0.00432081 0)
(0.0233704 -0.00369195 0)
(0.0277293 -0.00303413 0)
(0.0313838 -0.00236511 0)
(0.0343161 -0.00170241 0)
(0.0365248 -0.00106251 0)
(0.0380254 -0.000460234 0)
(0.0388488 9.18359e-05 0)
(0.03904 0.000583789 0)
(0.038656 0.00100863 0)
(0.0377633 0.00136234 0)
(0.036435 0.00164383 0)
(0.0347478 0.00185463 0)
(0.0327791 0.00199863 0)
(0.0306047 0.0020815 0)
(0.0282955 0.00211032 0)
(0.0259162 0.00209296 0)
(0.0235237 0.00203769 0)
(0.0211662 0.00195267 0)
(0.0188826 0.00184572 0)
(0.0167034 0.00172389 0)
(0.0146496 0.00159354 0)
(0.0127359 0.00145994 0)
(0.0109688 0.0013277 0)
(0.00935058 0.0012001 0)
(0.00787725 0.00108007 0)
(0.00654413 0.000968726 0)
(0.00534095 0.000867176 0)
(0.00426201 0.000773624 0)
(0.00329646 0.000686995 0)
(0.00244504 0.000601229 0)
(0.00170236 0.000513549 0)
(0.00108265 0.00041316 0)
(0.00058844 0.000301131 0)
(0.000244363 0.000167853 0)
(4.63106e-05 4.37118e-05 0)
(-9.52366e-06 -4.62199e-05 0)
(3.91716e-05 -0.000100291 0)
(0.00031102 -0.000498248 0)
(0.000870065 -0.000889549 0)
(0.00163423 -0.00122905 0)
(0.00258586 -0.0014618 0)
(0.00363366 -0.00159241 0)
(0.00473161 -0.00161667 0)
(0.00580406 -0.00155392 0)
(0.00681002 -0.00141878 0)
(0.00770191 -0.00123495 0)
(0.00845875 -0.00102201 0)
(0.00906244 -0.000800769 0)
(0.00951337 -0.000586916 0)
(0.00981583 -0.000393208 0)
(0.00998416 -0.00022682 0)
(0.0100333 -9.07276e-05 0)
(0.00998059 1.68759e-05 0)
(0.00983948 0.000101233 0)
(0.00962012 0.000170501 0)
(0.00932598 0.000234348 0)
(0.00895436 0.000303014 0)
(0.00849555 0.000386126 0)
(0.00793403 0.000491969 0)
(0.0072491 0.000626939 0)
(0.00641649 0.000795454 0)
(0.00540939 0.00100014 0)
(0.00419972 0.00124226 0)
(0.00275884 0.00152223 0)
(0.00105826 0.00184 0)
(-0.000930014 0.00219531 0)
(-0.00323299 0.00258768 0)
(-0.00587622 0.00301632 0)
(-0.00888314 0.00347983 0)
(-0.0122742 0.00397592 0)
(-0.0160661 0.00450118 0)
(-0.0202703 0.00505092 0)
(-0.0248922 0.00561904 0)
(-0.0299304 0.00619805 0)
(-0.0353751 0.00677909 0)
(-0.041208 0.00735213 0)
(-0.0474014 0.00790611 0)
(-0.0539186 0.00842924 0)
(-0.0607135 0.0089093 0)
(-0.0677316 0.00933398 0)
(-0.0749107 0.00969125 0)
(-0.0821821 0.00996974 0)
(-0.0894719 0.010159 0)
(-0.0967029 0.0102499 0)
(-0.103796 0.0102348 0)
(-0.110671 0.0101075 0)
(-0.117249 0.00986381 0)
(-0.123455 0.0095011 0)
(-0.129215 0.00901857 0)
(-0.134462 0.00841705 0)
(-0.139133 0.00769898 0)
(-0.14317 0.00686828 0)
(-0.146523 0.00593026 0)
(-0.149147 0.00489159 0)
(-0.151005 0.00376019 0)
(-0.152063 0.00254525 0)
(-0.1523 0.00125722 0)
(-0.151695 -9.21611e-05 0)
(-0.15024 -0.00148985 0)
(-0.14793 -0.00292143 0)
(-0.144769 -0.0043711 0)
(-0.140769 -0.00582171 0)
(-0.135948 -0.00725473 0)
(-0.130335 -0.00865041 0)
(-0.123964 -0.00998798 0)
(-0.116881 -0.0112458 0)
(-0.109138 -0.012402 0)
(-0.100799 -0.0134346 0)
(-0.0919348 -0.0143222 0)
(-0.0826255 -0.015045 0)
(-0.0729598 -0.0155849 0)
(-0.0630337 -0.0159268 0)
(-0.0529498 -0.016059 0)
(-0.0428158 -0.0159744 0)
(-0.0327431 -0.0156706 0)
(-0.0228446 -0.0151506 0)
(-0.0132326 -0.0144231 0)
(-0.00401655 -0.0135027 0)
(0.00469928 -0.0124092 0)
(0.0128185 -0.0111676 0)
(0.0202548 -0.00980709 0)
(0.0269343 -0.00836018 0)
(0.0327972 -0.00686145 0)
(0.0377997 -0.0053464 0)
(0.0419152 -0.00385006 0)
(0.0451349 -0.00240575 0)
(0.047468 -0.00104382 0)
(0.0489418 0.000209425 0)
(0.0496002 0.00133257 0)
(0.0495025 0.00230975 0)
(0.0487213 0.00313103 0)
(0.0473395 0.0037924 0)
(0.0454476 0.00429559 0)
(0.0431399 0.00464748 0)
(0.0405114 0.00485934 0)
(0.0376542 0.00494582 0)
(0.0346545 0.00492394 0)
(0.0315907 0.00481194 0)
(0.0285305 0.00462837 0)
(0.0255312 0.00439108 0)
(0.022638 0.00411683 0)
(0.0198858 0.00382037 0)
(0.0172974 0.00351475 0)
(0.0148883 0.00321031 0)
(0.0126634 0.00291563 0)
(0.0106249 0.00263566 0)
(0.00876591 0.00237378 0)
(0.00708378 0.00212792 0)
(0.00556763 0.00189533 0)
(0.00422061 0.00166487 0)
(0.00303552 0.00142897 0)
(0.00203147 0.00116859 0)
(0.00120677 0.000883231 0)
(0.000597591 0.000560006 0)
(0.000191107 0.000248865 0)
(1.66806e-05 -6.9964e-06 0)
(6.55529e-05 -0.000281024 0)
(0.000452317 -0.000992101 0)
(0.00119777 -0.00165059 0)
(0.00217196 -0.00220076 0)
(0.0033545 -0.00257671 0)
(0.00463186 -0.00278027 0)
(0.00595341 -0.00280876 0)
(0.00723018 -0.00269007 0)
(0.0084159 -0.00244964 0)
(0.00945492 -0.00212481 0)
(0.0103225 -0.00174855 0)
(0.0109965 -0.00135454 0)
(0.0114754 -0.000969097 0)
(0.0117618 -0.000613103 0)
(0.0118692 -0.000298648 0)
(0.0118115 -3.05055e-05 0)
(0.0116046 0.000194404 0)
(0.01126 0.000385153 0)
(0.0107844 0.000555696 0)
(0.0101769 0.000722677 0)
(0.00942877 0.000903692 0)
(0.00852321 0.00111534 0)
(0.0074365 0.00137194 0)
(0.00613897 0.00168456 0)
(0.0045969 0.00206088 0)
(0.00277391 0.00250545 0)
(0.000632506 0.00302033 0)
(-0.00186485 0.00360587 0)
(-0.00475468 0.00426126 0)
(-0.00807162 0.00498482 0)
(-0.0118474 0.00577399 0)
(-0.01611 0.00662497 0)
(-0.0208818 0.00753237 0)
(-0.0261788 0.00848869 0)
(-0.0320086 0.00948407 0)
(-0.0383694 0.0105061 0)
(-0.0452483 0.0115397 0)
(-0.0526206 0.0125677 0)
(-0.0604494 0.0135706 0)
(-0.068685 0.0145277 0)
(-0.0772662 0.0154172 0)
(-0.0861207 0.0162173 0)
(-0.095167 0.0169065 0)
(-0.104317 0.0174651 0)
(-0.113476 0.0178748 0)
(-0.122549 0.0181204 0)
(-0.13144 0.0181894 0)
(-0.140056 0.0180725 0)
(-0.148307 0.0177639 0)
(-0.156109 0.0172609 0)
(-0.163386 0.0165641 0)
(-0.170068 0.0156766 0)
(-0.176095 0.0146042 0)
(-0.181412 0.0133547 0)
(-0.185974 0.0119376 0)
(-0.189744 0.0103641 0)
(-0.19269 0.00864649 0)
(-0.194787 0.00679819 0)
(-0.196016 0.00483369 0)
(-0.196365 0.0027685 0)
(-0.195824 0.000619154 0)
(-0.194391 -0.00159668 0)
(-0.192068 -0.00386006 0)
(-0.188859 -0.00615069 0)
(-0.184776 -0.00844674 0)
(-0.179836 -0.0107248 0)
(-0.174059 -0.01296 0)
(-0.167475 -0.0151255 0)
(-0.160115 -0.0171936 0)
(-0.152022 -0.0191351 0)
(-0.143244 -0.02092 0)
(-0.133836 -0.0225186 0)
(-0.123863 -0.0239012 0)
(-0.113398 -0.0250399 0)
(-0.102523 -0.0259091 0)
(-0.0913249 -0.0264864 0)
(-0.0799017 -0.0267541 0)
(-0.0683558 -0.0266999 0)
(-0.0567951 -0.0263181 0)
(-0.0453311 -0.02561 0)
(-0.0340768 -0.0245847 0)
(-0.0231445 -0.0232591 0)
(-0.0126439 -0.021658 0)
(-0.00267951 -0.0198134 0)
(0.00665136 -0.0177636 0)
(0.0152609 -0.0155524 0)
(0.0230726 -0.0132275 0)
(0.0300231 -0.0108392 0)
(0.0360633 -0.00843835 0)
(0.0411601 -0.0060753 0)
(0.0452967 -0.00379777 0)
(0.0484735 -0.00164962 0)
(0.0507082 0.000330695 0)
(0.0520357 0.00211128 0)
(0.0525073 0.00366782 0)
(0.0521894 0.00498421 0)
(0.0511615 0.00605296 0)
(0.0495136 0.006875 0)
(0.0473431 0.00745923 0)
(0.044751 0.0078215 0)
(0.0418385 0.00798339 0)
(0.0387035 0.00797057 0)
(0.0354364 0.00781126 0)
(0.0321192 0.00753449 0)
(0.0288215 0.0071689 0)
(0.0256018 0.00674116 0)
(0.0225047 0.00627566 0)
(0.0195648 0.00579289 0)
(0.0168025 0.00531012 0)
(0.0142336 0.00483898 0)
(0.0118607 0.00438751 0)
(0.00968973 0.00395555 0)
(0.00771372 0.00354009 0)
(0.00594155 0.00312656 0)
(0.00436512 0.00270305 0)
(0.00300959 0.00224357 0)
(0.00186775 0.00174389 0)
(0.000990435 0.00118675 0)
(0.000358121 0.000628119 0)
(4.77902e-05 0.000116117 0)
(8.23107e-05 -0.000529621 0)
(0.000556265 -0.00163385 0)
(0.00145104 -0.00260785 0)
(0.00259197 -0.00339235 0)
(0.00395216 -0.00391932 0)
(0.00539522 -0.00418942 0)
(0.0068661 -0.00420518 0)
(0.0082644 -0.00400425 0)
(0.00954116 -0.00362543 0)
(0.0106354 -0.00312117 0)
(0.0115211 -0.00253968 0)
(0.0121736 -0.00192859 0)
(0.0125907 -0.00132579 0)
(0.0127732 -0.000760613 0)
(0.012733 -0.00025006 0)
(0.012481 0.000199822 0)
(0.0120296 0.00059424 0)
(0.011385 0.000947286 0)
(0.0105481 0.00128008 0)
(0.00951002 0.00161763 0)
(0.00825387 0.00198621 0)
(0.00675346 0.00241044 0)
(0.00497543 0.00291138 0)
(0.00288045 0.00350516 0)
(0.000425569 0.00420271 0)
(-0.00243411 0.0050101 0)
(-0.00574343 0.00592946 0)
(-0.00954576 0.0069599 0)
(-0.0138813 0.00809817 0)
(-0.0187859 0.00933892 0)
(-0.0242887 0.0106745 0)
(-0.0304112 0.0120946 0)
(-0.0371645 0.0135855 0)
(-0.044548 0.0151297 0)
(-0.0525475 0.0167059 0)
(-0.0611336 0.0182886 0)
(-0.0702617 0.0198493 0)
(-0.0798716 0.0213564 0)
(-0.0898885 0.0227768 0)
(-0.100225 0.0240771 0)
(-0.110782 0.0252243 0)
(-0.121455 0.0261878 0)
(-0.132133 0.0269402 0)
(-0.142707 0.0274582 0)
(-0.15307 0.0277235 0)
(-0.163118 0.0277231 0)
(-0.172758 0.0274496 0)
(-0.181903 0.0269002 0)
(-0.19048 0.0260773 0)
(-0.198423 0.0249871 0)
(-0.205679 0.0236392 0)
(-0.212201 0.0220458 0)
(-0.217954 0.0202214 0)
(-0.222909 0.0181816 0)
(-0.227044 0.0159433 0)
(-0.230342 0.013524 0)
(-0.232791 0.0109417 0)
(-0.234381 0.00821471 0)
(-0.235109 0.00536187 0)
(-0.23497 0.00240255 0)
(-0.233964 -0.000643143 0)
(-0.23209 -0.00375411 0)
(-0.229354 -0.00690798 0)
(-0.225758 -0.0100809 0)
(-0.221313 -0.013247 0)
(-0.216027 -0.0163787 0)
(-0.209916 -0.0194461 0)
(-0.202998 -0.022417 0)
(-0.195298 -0.0252572 0)
(-0.186844 -0.0279308 0)
(-0.177675 -0.0304002 0)
(-0.167835 -0.0326273 0)
(-0.157376 -0.0345741 0)
(-0.14636 -0.0362037 0)
(-0.134858 -0.0374815 0)
(-0.122951 -0.0383769 0)
(-0.110727 -0.0388644 0)
(-0.0982833 -0.038925 0)
(-0.0857246 -0.0385476 0)
(-0.0731603 -0.0377302 0)
(-0.0607035 -0.0364805 0)
(-0.0484687 -0.0348163 0)
(-0.0365694 -0.0327654 0)
(-0.0251158 -0.0303654 0)
(-0.0142121 -0.0276624 0)
(-0.00395505 -0.0247099 0)
(0.00556867 -0.021567 0)
(0.0142834 -0.0182968 0)
(0.0221258 -0.0149645 0)
(0.0290462 -0.0116355 0)
(0.0350088 -0.00837339 0)
(0.0399926 -0.00523847 0)
(0.0439918 -0.00228598 0)
(0.0470163 0.000435416 0)
(0.0490917 0.00288504 0)
(0.0502597 0.00503139 0)
(0.0505771 0.00685313 0)
(0.0501151 0.00833966 0)
(0.048957 0.00949128 0)
(0.0471963 0.0103187 0)
(0.0449325 0.0108421 0)
(0.0422685 0.0110896 0)
(0.0393059 0.0110953 0)
(0.0361422 0.0108972 0)
(0.032866 0.0105349 0)
(0.0295569 0.0100476 0)
(0.0262808 0.00947236 0)
(0.0230934 0.00884226 0)
(0.0200342 0.0081859 0)
(0.0171365 0.00752452 0)
(0.0144167 0.00687351 0)
(0.0118937 0.00623734 0)
(0.00956828 0.00561472 0)
(0.00745836 0.00498988 0)
(0.0055575 0.00434704 0)
(0.00389967 0.00365459 0)
(0.00247462 0.00290152 0)
(0.0013518 0.00206443 0)
(0.000509106 0.00119179 0)
(7.43644e-05 0.000324731 0)
(9.51272e-05 -0.000820112 0)
(0.000638286 -0.00237585 0)
(0.00165043 -0.00369521 0)
(0.00291884 -0.00472027 0)
(0.00440728 -0.00538862 0)
(0.0059576 -0.00570427 0)
(0.00750981 -0.00567943 0)
(0.00895373 -0.00536391 0)
(0.0102392 -0.0048121 0)
(0.0113021 -0.00409262 0)
(0.0121172 -0.00326956 0)
(0.0126588 -0.0024044 0)
(0.0129249 -0.00154614 0)
(0.0129146 -0.000731641 0)
(0.0126372 1.83598e-05 0)
(0.0120994 0.000697901 0)
(0.0113076 0.00131572 0)
(0.0102606 0.00189232 0)
(0.00894986 0.00245715 0)
(0.00735667 0.00304456 0)
(0.00545313 0.00368998 0)
(0.00320215 0.00442618 0)
(0.00055998 0.00528058 0)
(-0.0025221 0.00627358 0)
(-0.00609489 0.00741816 0)
(-0.0102092 0.00872038 0)
(-0.0149132 0.0101804 0)
(-0.0202507 0.0117936 0)
(-0.0262587 0.0135511 0)
(-0.0329653 0.01544 0)
(-0.0403871 0.017443 0)
(-0.0485268 0.0195379 0)
(-0.0573712 0.021697 0)
(-0.0668895 0.0238872 0)
(-0.077032 0.0260703 0)
(-0.0877303 0.0282038 0)
(-0.0988989 0.0302423 0)
(-0.110437 0.0321392 0)
(-0.122231 0.0338488 0)
(-0.134161 0.035328 0)
(-0.146103 0.0365384 0)
(-0.157934 0.0374476 0)
(-0.169538 0.0380305 0)
(-0.180805 0.0382696 0)
(-0.19164 0.0381551 0)
(-0.201956 0.0376846 0)
(-0.211684 0.0368621 0)
(-0.220764 0.035697 0)
(-0.22915 0.0342031 0)
(-0.236808 0.0323976 0)
(-0.24371 0.0302997 0)
(-0.249837 0.02793 0)
(-0.255176 0.0253097 0)
(-0.259718 0.0224602 0)
(-0.263459 0.0194026 0)
(-0.266393 0.0161576 0)
(-0.268519 0.0127454 0)
(-0.269835 0.0091861 0)
(-0.270338 0.00549964 0)
(-0.270028 0.00170619 0)
(-0.268902 -0.00217342 0)
(-0.266958 -0.00611734 0)
(-0.264194 -0.0101022 0)
(-0.260609 -0.0141028 0)
(-0.256204 -0.0180915 0)
(-0.250978 -0.0220381 0)
(-0.244938 -0.0259093 0)
(-0.238089 -0.0296691 0)
(-0.230444 -0.033278 0)
(-0.222021 -0.0366941 0)
(-0.212842 -0.0398728 0)
(-0.202939 -0.042768 0)
(-0.192352 -0.045333 0)
(-0.18113 -0.0475214 0)
(-0.169333 -0.049289 0)
(-0.157032 -0.0505952 0)
(-0.144307 -0.0514051 0)
(-0.13125 -0.051691 0)
(-0.117961 -0.0514345 0)
(-0.104549 -0.0506278 0)
(-0.0911289 -0.049275 0)
(-0.077819 -0.0473925 0)
(-0.0647384 -0.0450096 0)
(-0.0520043 -0.0421675 0)
(-0.0397292 -0.0389185 0)
(-0.0280183 -0.0353243 0)
(-0.0169675 -0.031454 0)
(-0.00666158 -0.0273819 0)
(0.00282687 -0.0231856 0)
(0.0114379 -0.018943 0)
(0.0191243 -0.0147311 0)
(0.0258522 -0.0106238 0)
(0.0316004 -0.00669043 0)
(0.0363609 -0.00299408 0)
(0.0401389 0.000409669 0)
(0.0429537 0.00347419 0)
(0.0448385 0.00616311 0)
(0.045841 0.00845144 0)
(0.046023 0.0103265 0)
(0.0454594 0.0117882 0)
(0.044236 0.0128489 0)
(0.0424479 0.0135325 0)
(0.0401944 0.0138727 0)
(0.0375773 0.0139108 0)
(0.0346947 0.0136933 0)
(0.0316403 0.0132691 0)
(0.0284968 0.0126867 0)
(0.0253386 0.0119916 0)
(0.0222243 0.0112247 0)
(0.0192057 0.0104188 0)
(0.0163157 0.00959875 0)
(0.0135888 0.00877653 0)
(0.0110367 0.00795495 0)
(0.00868945 0.00711982 0)
(0.00654537 0.00625274 0)
(0.00464963 0.00531787 0)
(0.00299228 0.00429448 0)
(0.0016625 0.00314988 0)
(0.000639354 0.0019123 0)
(9.70681e-05 0.000604884 0)
(0.000104008 -0.00114929 0)
(0.000699575 -0.00320822 0)
(0.00180088 -0.00489942 0)
(0.00316199 -0.00616948 0)
(0.00473538 -0.00696605 0)
(0.00634196 -0.00730081 0)
(0.00791572 -0.00720024 0)
(0.00933767 -0.00672965 0)
(0.0105573 -0.00596205 0)
(0.0115089 -0.00498385 0)
(0.0121692 -0.00387606 0)
(0.0125133 -0.00271388 0)
(0.0125397 -0.00155669 0)
(0.0122461 -0.000447455 0)
(0.0116387 0.000591081 0)
(0.0107185 0.00155503 0)
(0.00948415 0.00245861 0)
(0.00792427 0.00333047 0)
(0.00601916 0.0042098 0)
(0.00373766 0.00514104 0)
(0.00103959 0.00616892 0)
(-0.00212369 0.00733373 0)
(-0.00580579 0.00866801 0)
(-0.0100629 0.0101945 0)
(-0.0149503 0.0119258 0)
(-0.0205198 0.0138651 0)
(-0.0268163 0.016007 0)
(-0.0338757 0.0183389 0)
(-0.0417216 0.0208415 0)
(-0.0503627 0.0234887 0)
(-0.0597896 0.0262474 0)
(-0.0699731 0.0290773 0)
(-0.0808623 0.0319312 0)
(-0.0923846 0.0347556 0)
(-0.104447 0.0374924 0)
(-0.116937 0.0400811 0)
(-0.129732 0.0424615 0)
(-0.142696 0.0445763 0)
(-0.155694 0.0463741 0)
(-0.168591 0.0478113 0)
(-0.181261 0.0488538 0)
(-0.193589 0.0494778 0)
(-0.205476 0.0496701 0)
(-0.216837 0.0494268 0)
(-0.227605 0.0487531 0)
(-0.237726 0.0476609 0)
(-0.247162 0.0461678 0)
(-0.255885 0.0442953 0)
(-0.263876 0.0420676 0)
(-0.271127 0.03951 0)
(-0.27763 0.036648 0)
(-0.283384 0.0335069 0)
(-0.28839 0.0301111 0)
(-0.292647 0.0264837 0)
(-0.296158 0.0226468 0)
(-0.298924 0.0186213 0)
(-0.300942 0.014427 0)
(-0.302213 0.0100832 0)
(-0.302733 0.0056091 0)
(-0.302498 0.00102402 0)
(-0.301501 -0.00365194 0)
(-0.299737 -0.00839737 0)
(-0.297197 -0.013189 0)
(-0.293874 -0.0180013 0)
(-0.28976 -0.0228056 0)
(-0.284847 -0.0275699 0)
(-0.27913 -0.0322587 0)
(-0.272604 -0.0368321 0)
(-0.26527 -0.0412464 0)
(-0.257131 -0.0454538 0)
(-0.248196 -0.049403 0)
(-0.238483 -0.0530396 0)
(-0.228016 -0.0563076 0)
(-0.21683 -0.0591504 0)
(-0.204971 -0.0615125 0)
(-0.192496 -0.0633417 0)
(-0.179477 -0.0645913 0)
(-0.165996 -0.0652225 0)
(-0.15215 -0.0652065 0)
(-0.138045 -0.0645269 0)
(-0.123799 -0.0631816 0)
(-0.109536 -0.0611833 0)
(-0.0953833 -0.0585608 0)
(-0.0814693 -0.0553579 0)
(-0.0679194 -0.0516329 0)
(-0.0548521 -0.0474558 0)
(-0.0423762 -0.0429067 0)
(-0.0305886 -0.0380721 0)
(-0.0195723 -0.0330427 0)
(-0.00939603 -0.02791 0)
(-0.000114433 -0.0227641 0)
(0.00823146 -0.0176917 0)
(0.0156132 -0.0127742 0)
(0.022014 -0.0080871 0)
(0.0274283 -0.00369795 0)
(0.0318615 0.000333985 0)
(0.0353301 0.00395925 0)
(0.0378629 0.00713935 0)
(0.0395009 0.00984799 0)
(0.0402985 0.0120721 0)
(0.0403222 0.0138127 0)
(0.0396511 0.0150843 0)
(0.0383726 0.0159147 0)
(0.0365824 0.0163429 0)
(0.0343776 0.0164171 0)
(0.0318566 0.016191 0)
(0.0291113 0.0157215 0)
(0.0262294 0.0150645 0)
(0.0232844 0.0142725 0)
(0.020345 0.0133901 0)
(0.01746 0.0124529 0)
(0.0146802 0.0114823 0)
(0.0120305 0.010487 0)
(0.00955454 0.00945685 0)
(0.00725881 0.00837191 0)
(0.00520159 0.00719331 0)
(0.00337709 0.00588839 0)
(0.0018939 0.00441294 0)
(0.000735217 0.00276614 0)
(0.000113081 0.000945245 0)
(0.000111956 -0.00150326 0)
(0.000749876 -0.00410063 0)
(0.00191771 -0.00617652 0)
(0.00333984 -0.00768344 0)
(0.00495599 -0.00858298 0)
(0.00656781 -0.00889956 0)
(0.00810303 -0.00867892 0)
(0.00943548 -0.00800594 0)
(0.0105152 -0.00697528 0)
(0.0112768 -0.00569278 0)
(0.0117001 -0.00425677 0)
(0.0117618 -0.00275541 0)
(0.0114613 -0.00125683 0)
(0.0107946 0.000192246 0)
(0.0097636 0.00156961 0)
(0.00836194 0.00287609 0)
(0.00657847 0.00413372 0)
(0.00438975 0.00538114 0)
(0.00176276 0.00666824 0)
(-0.00134723 0.00804964 0)
(-0.00499299 0.00957837 0)
(-0.00923359 0.0113003 0)
(-0.0141299 0.0132502 0)
(-0.0197413 0.0154497 0)
(-0.0261217 0.0179068 0)
(-0.0333158 0.0206168 0)
(-0.0413561 0.0235638 0)
(-0.0502592 0.0267212 0)
(-0.0600228 0.0300527 0)
(-0.0706229 0.0335125 0)
(-0.0820114 0.0370454 0)
(-0.0941157 0.0405879 0)
(-0.106839 0.0440697 0)
(-0.120064 0.0474162 0)
(-0.133655 0.0505518 0)
(-0.147467 0.0534034 0)
(-0.161352 0.0559043 0)
(-0.175164 0.0579972 0)
(-0.188765 0.0596365 0)
(-0.202033 0.0607897 0)
(-0.214863 0.0614377 0)
(-0.227169 0.0615737 0)
(-0.238883 0.0612021 0)
(-0.249955 0.0603364 0)
(-0.26035 0.0589971 0)
(-0.270047 0.0572097 0)
(-0.279034 0.0550028 0)
(-0.287306 0.0524062 0)
(-0.294863 0.0494503 0)
(-0.301709 0.0461645 0)
(-0.30785 0.0425769 0)
(-0.313292 0.0387139 0)
(-0.318039 0.0346 0)
(-0.322096 0.0302579 0)
(-0.325468 0.0257084 0)
(-0.328155 0.0209711 0)
(-0.330158 0.0160643 0)
(-0.331475 0.0110055 0)
(-0.332102 0.00581227 0)
(-0.332034 0.000502209 0)
(-0.331264 -0.00490611 0)
(-0.329782 -0.0103927 0)
(-0.327578 -0.0159353 0)
(-0.32464 -0.0215093 0)
(-0.320953 -0.0270862 0)
(-0.316504 -0.0326341 0)
(-0.311278 -0.0381163 0)
(-0.305262 -0.0434911 0)
(-0.298442 -0.0487119 0)
(-0.290809 -0.0537269 0)
(-0.282357 -0.0584789 0)
(-0.273085 -0.0629068 0)
(-0.263001 -0.0669458 0)
(-0.25212 -0.0705287 0)
(-0.24047 -0.0735885 0)
(-0.22809 -0.0760598 0)
(-0.215034 -0.077882 0)
(-0.201373 -0.0790019 0)
(-0.187191 -0.0793769 0)
(-0.17259 -0.0789778 0)
(-0.157686 -0.0777915 0)
(-0.142607 -0.0758229 0)
(-0.12749 -0.0730962 0)
(-0.112477 -0.0696549 0)
(-0.0977114 -0.0655606 0)
(-0.0833307 -0.0608913 0)
(-0.0694646 -0.0557379 0)
(-0.0562298 -0.0502008 0)
(-0.0437268 -0.0443859 0)
(-0.0320391 -0.0384004 0)
(-0.0212319 -0.0323498 0)
(-0.0113537 -0.0263349 0)
(-0.00243778 -0.02045 0)
(0.00549604 -0.0147815 0)
(0.0124389 -0.00940762 0)
(0.0183916 -0.00439729 0)
(0.0233638 0.000189959 0)
(0.0273738 0.0043049 0)
(0.0304491 0.00790968 0)
(0.0326281 0.0109791 0)
(0.0339596 0.0135015 0)
(0.0345051 0.0154803 0)
(0.034336 0.0169331 0)
(0.033535 0.0178917 0)
(0.0321907 0.0184004 0)
(0.0303978 0.0185129 0)
(0.0282492 0.0182893 0)
(0.0258388 0.0177923 0)
(0.0232493 0.0170831 0)
(0.0205622 0.0162169 0)
(0.0178398 0.0152397 0)
(0.0151479 0.0141828 0)
(0.0125246 0.0130623 0)
(0.0100281 0.0118736 0)
(0.00767525 0.0105961 0)
(0.00553803 0.00918903 0)
(0.00361808 0.00760658 0)
(0.00204106 0.00579132 0)
(0.000796595 0.00370817 0)
(0.000123262 0.00132433 0)
(0.000118751 -0.00188262 0)
(0.000789808 -0.00504601 0)
(0.00200365 -0.00751131 0)
(0.00345631 -0.00923919 0)
(0.00507385 -0.0102088 0)
(0.00664035 -0.0104623 0)
(0.00807763 -0.0100698 0)
(0.00925424 -0.00914005 0)
(0.0101219 -0.00779276 0)
(0.0106171 -0.00615477 0)
(0.0107236 -0.00434206 0)
(0.0104202 -0.00245453 0)
(0.00970737 -0.000566981 0)
(0.00857799 0.00127288 0)
(0.00702869 0.0030465 0)
(0.00504386 0.00476239 0)
(0.00260064 0.00645284 0)
(-0.000338082 0.00816805 0)
(-0.00381952 0.00996905 0)
(-0.00790178 0.0119197 0)
(-0.0126485 0.014079 0)
(-0.0181257 0.0164951 0)
(-0.0243964 0.0192003 0)
(-0.0315161 0.0222098 0)
(-0.0395281 0.0255213 0)
(-0.0484601 0.0291159 0)
(-0.0583198 0.03296 0)
(-0.0690919 0.0370061 0)
(-0.0807355 0.0411942 0)
(-0.0931824 0.0454526 0)
(-0.106337 0.0497004 0)
(-0.12008 0.0538493 0)
(-0.13427 0.0578079 0)
(-0.148752 0.0614861 0)
(-0.163366 0.0647997 0)
(-0.177953 0.0676746 0)
(-0.192364 0.0700503 0)
(-0.206466 0.0718821 0)
(-0.220144 0.0731415 0)
(-0.233306 0.0738158 0)
(-0.24588 0.0739063 0)
(-0.257817 0.0734258 0)
(-0.269083 0.0723965 0)
(-0.279656 0.0708464 0)
(-0.28953 0.068808 0)
(-0.298702 0.0663157 0)
(-0.307178 0.0634041 0)
(-0.314964 0.0601073 0)
(-0.322071 0.0564579 0)
(-0.328509 0.0524862 0)
(-0.334287 0.0482206 0)
(-0.339416 0.0436866 0)
(-0.343903 0.0389078 0)
(-0.347757 0.0339056 0)
(-0.350982 0.0286991 0)
(-0.353584 0.0233064 0)
(-0.355565 0.0177438 0)
(-0.356925 0.0120271 0)
(-0.357663 0.00617166 0)
(-0.357775 0.000193167 0)
(-0.357256 -0.00589198 0)
(-0.356095 -0.0120659 0)
(-0.354282 -0.0183086 0)
(-0.351803 -0.0245972 0)
(-0.34864 -0.0309051 0)
(-0.344774 -0.0372016 0)
(-0.340184 -0.0434509 0)
(-0.334847 -0.0496114 0)
(-0.328738 -0.0556355 0)
(-0.321834 -0.061469 0)
(-0.314112 -0.0670515 0)
(-0.305553 -0.0723161 0)
(-0.296144 -0.0771906 0)
(-0.285877 -0.0815984 0)
(-0.274756 -0.0854605 0)
(-0.262797 -0.0886979 0)
(-0.25003 -0.091234 0)
(-0.236503 -0.0929986 0)
(-0.222283 -0.0939311 0)
(-0.207458 -0.0939847 0)
(-0.192134 -0.0931298 0)
(-0.176438 -0.0913574 0)
(-0.160511 -0.0886812 0)
(-0.14451 -0.0851387 0)
(-0.128596 -0.0807912 0)
(-0.112931 -0.0757213 0)
(-0.0976741 -0.0700305 0)
(-0.0829712 -0.0638338 0)
(-0.0689518 -0.0572553 0)
(-0.0557249 -0.0504223 0)
(-0.0433768 -0.0434602 0)
(-0.031971 -0.0364888 0)
(-0.0215498 -0.0296191 0)
(-0.0121372 -0.0229515 0)
(-0.00374224 -0.016575 0)
(0.0036374 -0.0105679 0)
(0.0100126 -0.0049974 0)
(0.0154012 7.98693e-05 0)
(0.0198273 0.00461802 0)
(0.0233216 0.00858275 0)
(0.0259225 0.0119524 0)
(0.0276779 0.0147194 0)
(0.0286448 0.0168906 0)
(0.0288915 0.0184884 0)
(0.0284943 0.0195493 0)
(0.0275386 0.0201225 0)
(0.0261123 0.020267 0)
(0.0243083 0.0200476 0)
(0.0222128 0.0195307 0)
(0.0199145 0.0187793 0)
(0.0174851 0.0178479 0)
(0.0150029 0.0167772 0)
(0.0125178 0.0155903 0)
(0.0101017 0.0142891 0)
(0.00778297 0.0128531 0)
(0.00564701 0.0112401 0)
(0.00370523 0.00939101 0)
(0.00209701 0.00723501 0)
(0.00081973 0.0047014 0)
(0.000126658 0.00172609 0)
(0.000125326 -0.0022801 0)
(0.000821956 -0.00602421 0)
(0.00206174 -0.00887067 0)
(0.00351343 -0.0107906 0)
(0.00508868 -0.0117855 0)
(0.00655639 -0.0119206 0)
(0.00783358 -0.0112963 0)
(0.00878613 -0.0100497 0)
(0.00936892 -0.00832853 0)
(0.00952185 -0.00628175 0)
(0.00923343 -0.00404254 0)
(0.00848456 -0.00172059 0)
(0.00727552 0.000605535 0)
(0.00559535 0.0028907 0)
(0.00343313 0.00512349 0)
(0.000762259 0.00732318 0)
(-0.00245339 0.0095345 0)
(-0.00626536 0.01182 0)
(-0.0107345 0.0142509 0)
(-0.0159302 0.0168979 0)
(-0.0219226 0.019822 0)
(-0.0287788 0.0230676 0)
(-0.0365556 0.0266586 0)
(-0.0452949 0.0305965 0)
(-0.0550185 0.0348611 0)
(-0.0657244 0.0394118 0)
(-0.0773832 0.0441897 0)
(-0.0899362 0.04912 0)
(-0.103295 0.0541137 0)
(-0.117341 0.0590713 0)
(-0.131933 0.0638865 0)
(-0.146909 0.0684516 0)
(-0.1621 0.0726631 0)
(-0.177332 0.0764272 0)
(-0.192443 0.0796647 0)
(-0.207283 0.0823143 0)
(-0.221727 0.0843339 0)
(-0.235671 0.0857009 0)
(-0.249035 0.0864099 0)
(-0.261763 0.0864705 0)
(-0.273817 0.0859037 0)
(-0.285176 0.0847392 0)
(-0.295832 0.0830121 0)
(-0.305783 0.0807606 0)
(-0.315037 0.0780239 0)
(-0.323603 0.0748409 0)
(-0.331494 0.0712492 0)
(-0.338724 0.0672841 0)
(-0.345307 0.0629788 0)
(-0.351257 0.0583636 0)
(-0.35659 0.0534661 0)
(-0.361318 0.0483115 0)
(-0.365455 0.0429221 0)
(-0.369013 0.0373182 0)
(-0.372003 0.0315176 0)
(-0.374434 0.0255366 0)
(-0.376313 0.0193897 0)
(-0.377646 0.0130907 0)
(-0.378436 0.00665238 0)