/*--------------------------------*- C++ -*----------------------------------*\
| =========                 |                                                 |
| \\      /  F ield         | OpenFOAM: The Open Source CFD Toolbox           |
|  \\    /   O peration     | Version:  2406                                  |
|   \\  /    A nd           | Website:  www.openfoam.com                      |
|    \\/     M anipulation  |                                                 |
\*---------------------------------------------------------------------------*/
FoamFile
{
    version     2.0;
    format      ascii;
    arch        "LSB;label=32;scalar=64";
    class       volScalarField;
    location    "8.75";
    object      p;
}
// * * * * * * * * * * * * * * * * * * * * * * * * * * * * * * * * * * * * * //

dimensions      [0 2 -2 0 0 0 0];

internalField   nonuniform List<scalar> 
14400
(
0.0141775
0.0141757
0.014173
0.0141693
0.0141661
0.0141631
0.0141612
0.0141599
0.0141599
0.0141606
0.0141624
0.0141651
0.0141687
0.0141731
0.0141783
0.0141842
0.014191
0.0141984
0.0142065
0.0142154
0.0142249
0.0142352
0.0142462
0.0142579
0.0142704
0.0142836
0.0142976
0.0143124
0.0143279
0.0143444
0.0143616
0.0143798
0.0143988
0.0144188
0.0144396
0.0144614
0.0144842
0.0145079
0.0145326
0.0145584
0.0145851
0.0146128
0.0146415
0.0146712
0.0147019
0.0147335
0.0147662
0.0147998
0.0148342
0.0148696
0.0149058
0.0149428
0.0149805
0.0150189
0.0150579
0.0150975
0.0151375
0.0151779
0.0152186
0.0152595
0.0153005
0.0153414
0.0153822
0.0154228
0.015463
0.0155027
0.0155418
0.0155802
0.0156177
0.0156543
0.0156898
0.015724
0.015757
0.0157885
0.0158186
0.015847
0.0158738
0.0158989
0.0159222
0.0159436
0.0159632
0.0159809
0.0159966
0.0160105
0.0160225
0.0160326
0.016041
0.0160475
0.0160523
0.0160555
0.0160571
0.0160572
0.0160558
0.0160532
0.0160494
0.0160444
0.0160384
0.0160316
0.0160239
0.0160156
0.0160067
0.0159973
0.0159876
0.0159777
0.0159677
0.0159576
0.0159476
0.0159379
0.0159284
0.0159194
0.0159109
0.015903
0.0158959
0.0158898
0.0158845
0.0158805
0.0158775
0.0158763
0.0158756
0.0158766
0.0141793
0.0141775
0.0141758
0.014173
0.0141711
0.014169
0.0141679
0.0141673
0.0141678
0.0141689
0.014171
0.0141738
0.0141775
0.0141819
0.0141872
0.0141931
0.0141998
0.0142072
0.0142154
0.0142242
0.0142337
0.014244
0.0142549
0.0142666
0.0142791
0.0142923
0.0143062
0.014321
0.0143366
0.0143529
0.0143702
0.0143883
0.0144072
0.0144271
0.0144479
0.0144696
0.0144922
0.0145158
0.0145404
0.014566
0.0145925
0.01462
0.0146485
0.0146779
0.0147083
0.0147397
0.014772
0.0148053
0.0148394
0.0148744
0.0149101
0.0149467
0.014984
0.0150219
0.0150604
0.0150994
0.0151389
0.0151787
0.0152188
0.0152591
0.0152994
0.0153398
0.01538
0.0154199
0.0154595
0.0154985
0.015537
0.0155748
0.0156117
0.0156477
0.0156826
0.0157163
0.0157487
0.0157798
0.0158094
0.0158374
0.0158638
0.0158885
0.0159115
0.0159326
0.015952
0.0159695
0.0159851
0.0159989
0.0160109
0.016021
0.0160293
0.0160359
0.0160409
0.0160442
0.016046
0.0160463
0.0160452
0.0160429
0.0160393
0.0160347
0.0160291
0.0160226
0.0160154
0.0160075
0.0159991
0.0159902
0.015981
0.0159716
0.0159621
0.0159527
0.0159433
0.0159342
0.0159253
0.015917
0.0159091
0.0159019
0.0158954
0.0158899
0.0158851
0.0158815
0.0158787
0.0158775
0.0158766
0.0158776
0.014182
0.0141791
0.0141774
0.0141744
0.0141727
0.0141706
0.0141698
0.0141693
0.01417
0.0141712
0.0141734
0.0141763
0.0141801
0.0141846
0.0141899
0.0141958
0.0142026
0.01421
0.0142181
0.0142269
0.0142365
0.0142467
0.0142576
0.0142693
0.0142817
0.0142949
0.0143088
0.0143235
0.014339
0.0143554
0.0143726
0.0143906
0.0144095
0.0144293
0.0144501
0.0144717
0.0144943
0.0145178
0.0145423
0.0145678
0.0145942
0.0146216
0.01465
0.0146794
0.0147097
0.014741
0.0147732
0.0148063
0.0148403
0.0148752
0.0149109
0.0149473
0.0149844
0.0150222
0.0150606
0.0150995
0.0151388
0.0151786
0.0152185
0.0152587
0.0152989
0.0153391
0.0153792
0.015419
0.0154584
0.0154974
0.0155358
0.0155734
0.0156102
0.0156461
0.0156809
0.0157145
0.0157469
0.0157779
0.0158074
0.0158353
0.0158616
0.0158863
0.0159092
0.0159303
0.0159495
0.015967
0.0159826
0.0159963
0.0160082
0.0160183
0.0160266
0.0160331
0.016038
0.0160413
0.0160431
0.0160434
0.0160423
0.0160399
0.0160364
0.0160318
0.0160262
0.0160198
0.0160126
0.0160047
0.0159963
0.0159875
0.0159784
0.0159691
0.0159597
0.0159504
0.0159411
0.0159321
0.0159234
0.0159152
0.0159075
0.0159004
0.0158941
0.0158886
0.0158839
0.0158805
0.0158777
0.0158766
0.0158758
0.015877
0.0141859
0.0141818
0.0141803
0.0141772
0.014176
0.0141743
0.014174
0.0141739
0.0141749
0.0141764
0.0141789
0.0141819
0.0141859
0.0141904
0.0141958
0.0142018
0.0142085
0.014216
0.0142241
0.0142329
0.0142424
0.0142526
0.0142635
0.0142751
0.0142875
0.0143006
0.0143145
0.0143291
0.0143446
0.0143609
0.014378
0.0143959
0.0144147
0.0144344
0.0144551
0.0144766
0.014499
0.0145224
0.0145468
0.0145721
0.0145984
0.0146256
0.0146538
0.014683
0.0147131
0.0147442
0.0147761
0.014809
0.0148428
0.0148774
0.0149127
0.0149489
0.0149857
0.0150232
0.0150613
0.0150999
0.0151389
0.0151783
0.015218
0.0152578
0.0152977
0.0153376
0.0153773
0.0154168
0.0154559
0.0154946
0.0155326
0.01557
0.0156065
0.0156421
0.0156766
0.0157099
0.015742
0.0157728
0.015802
0.0158298
0.0158559
0.0158803
0.015903
0.015924
0.0159431
0.0159604
0.0159759
0.0159895
0.0160013
0.0160114
0.0160196
0.0160261
0.016031
0.0160343
0.0160361
0.0160364
0.0160354
0.0160331
0.0160296
0.0160251
0.0160197
0.0160133
0.0160063
0.0159986
0.0159904
0.0159819
0.015973
0.0159639
0.0159548
0.0159457
0.0159368
0.0159281
0.0159198
0.0159119
0.0159046
0.0158979
0.0158919
0.0158868
0.0158824
0.0158792
0.0158765
0.0158754
0.0158745
0.0158758
0.0141892
0.0141836
0.014182
0.0141783
0.0141771
0.0141753
0.0141752
0.0141751
0.0141763
0.0141779
0.0141805
0.0141837
0.0141877
0.0141923
0.0141978
0.0142038
0.0142106
0.014218
0.0142261
0.0142349
0.0142444
0.0142545
0.0142654
0.014277
0.0142893
0.0143023
0.0143161
0.0143307
0.0143461
0.0143623
0.0143793
0.0143972
0.0144159
0.0144355
0.014456
0.0144775
0.0144998
0.0145231
0.0145473
0.0145725
0.0145987
0.0146258
0.0146539
0.014683
0.014713
0.0147439
0.0147758
0.0148086
0.0148422
0.0148767
0.014912
0.0149481
0.0149848
0.0150223
0.0150603
0.0150988
0.0151378
0.0151771
0.0152167
0.0152565
0.0152964
0.0153362
0.015376
0.0154155
0.0154546
0.0154933
0.0155313
0.0155687
0.0156052
0.0156408
0.0156754
0.0157087
0.0157408
0.0157716
0.0158008
0.0158286
0.0158547
0.0158791
0.0159018
0.0159227
0.0159418
0.0159591
0.0159745
0.015988
0.0159997
0.0160097
0.0160178
0.0160243
0.016029
0.0160322
0.0160339
0.0160341
0.0160329
0.0160305
0.0160269
0.0160223
0.0160167
0.0160103
0.0160032
0.0159955
0.0159872
0.0159786
0.0159697
0.0159606
0.0159515
0.0159424
0.0159335
0.0159249
0.0159166
0.0159088
0.0159015
0.0158949
0.015889
0.0158839
0.0158795
0.0158764
0.0158737
0.0158726
0.0158717
0.015873
0.0141922
0.0141854
0.0141837
0.0141796
0.0141785
0.0141767
0.0141768
0.0141769
0.0141784
0.0141802
0.014183
0.0141863
0.0141904
0.0141952
0.0142006
0.0142067
0.0142135
0.0142209
0.0142291
0.0142378
0.0142473
0.0142574
0.0142682
0.0142797
0.0142919
0.0143049
0.0143186
0.0143331
0.0143484
0.0143645
0.0143814
0.0143992
0.0144178
0.0144373
0.0144576
0.0144789
0.0145011
0.0145243
0.0145484
0.0145734
0.0145994
0.0146264
0.0146543
0.0146832
0.014713
0.0147438
0.0147755
0.0148082
0.0148416
0.014876
0.0149111
0.014947
0.0149837
0.0150209
0.0150588
0.0150972
0.0151361
0.0151753
0.0152148
0.0152545
0.0152943
0.0153341
0.0153738
0.0154132
0.0154523
0.0154909
0.0155289
0.0155662
0.0156027
0.0156383
0.0156728
0.0157062
0.0157382
0.0157689
0.0157982
0.0158259
0.0158519
0.0158763
0.0158989
0.0159198
0.0159388
0.015956
0.0159713
0.0159848
0.0159964
0.0160062
0.0160143
0.0160206
0.0160252
0.0160283
0.0160298
0.0160299
0.0160286
0.0160261
0.0160225
0.0160177
0.0160121
0.0160056
0.0159984
0.0159906
0.0159824
0.0159737
0.0159648
0.0159558
0.0159467
0.0159377
0.0159289
0.0159204
0.0159123
0.0159046
0.0158975
0.015891
0.0158852
0.0158803
0.015876
0.0158729
0.0158703
0.0158692
0.0158683
0.0158693
0.014194
0.0141859
0.014184
0.0141792
0.0141781
0.0141761
0.0141763
0.0141764
0.014178
0.0141798
0.0141827
0.0141861
0.0141904
0.0141952
0.0142007
0.0142068
0.0142137
0.0142211
0.0142292
0.0142379
0.0142473
0.0142574
0.0142681
0.0142796
0.0142917
0.0143046
0.0143182
0.0143326
0.0143478
0.0143638
0.0143806
0.0143982
0.0144167
0.014436
0.0144563
0.0144774
0.0144995
0.0145225
0.0145465
0.0145714
0.0145973
0.0146241
0.0146519
0.0146807
0.0147105
0.0147411
0.0147728
0.0148053
0.0148387
0.014873
0.0149081
0.014944
0.0149806
0.0150179
0.0150558
0.0150942
0.0151331
0.0151724
0.015212
0.0152518
0.0152917
0.0153317
0.0153715
0.015411
0.0154503
0.015489
0.0155272
0.0155647
0.0156014
0.0156371
0.0156718
0.0157053
0.0157375
0.0157684
0.0157977
0.0158255
0.0158517
0.0158761
0.0158988
0.0159196
0.0159386
0.0159558
0.0159711
0.0159844
0.015996
0.0160057
0.0160136
0.0160197
0.0160242
0.0160271
0.0160284
0.0160283
0.0160268
0.016024
0.0160201
0.0160152
0.0160093
0.0160026
0.0159952
0.0159873
0.0159788
0.01597
0.015961
0.0159518
0.0159426
0.0159335
0.0159246
0.015916
0.0159078
0.0159001
0.015893
0.0158865
0.0158807
0.0158758
0.0158715
0.0158684
0.0158658
0.0158645
0.0158636
0.0158643
0.0141947
0.0141855
0.0141834
0.0141781
0.0141771
0.0141749
0.0141752
0.0141754
0.0141771
0.014179
0.0141821
0.0141856
0.0141899
0.0141948
0.0142004
0.0142065
0.0142134
0.0142208
0.0142289
0.0142375
0.0142469
0.0142569
0.0142676
0.0142789
0.014291
0.0143038
0.0143173
0.0143316
0.0143466
0.0143625
0.0143791
0.0143966
0.014415
0.0144342
0.0144543
0.0144753
0.0144972
0.0145201
0.0145439
0.0145686
0.0145944
0.0146211
0.0146487
0.0146774
0.014707
0.0147376
0.0147691
0.0148016
0.0148349
0.0148691
0.0149042
0.01494
0.0149766
0.0150139
0.0150518
0.0150903
0.0151293
0.0151686
0.0152083
0.0152482
0.0152883
0.0153283
0.0153682
0.015408
0.0154474
0.0154863
0.0155247
0.0155624
0.0155993
0.0156352
0.01567
0.0157037
0.0157361
0.0157671
0.0157966
0.0158245
0.0158507
0.0158752
0.0158979
0.0159188
0.0159378
0.0159549
0.0159701
0.0159834
0.0159948
0.0160044
0.0160121
0.0160181
0.0160224
0.016025
0.0160261
0.0160258
0.0160241
0.0160211
0.0160169
0.0160118
0.0160056
0.0159987
0.0159911
0.0159829
0.0159743
0.0159653
0.0159561
0.0159468
0.0159375
0.0159284
0.0159194
0.0159108
0.0159025
0.0158948
0.0158877
0.0158812
0.0158754
0.0158705
0.0158663
0.0158631
0.0158604
0.0158591
0.0158581
0.0158586
0.0141937
0.0141834
0.0141811
0.0141753
0.0141742
0.0141718
0.0141722
0.0141722
0.0141741
0.014176
0.0141792
0.0141827
0.0141872
0.0141921
0.0141977
0.0142039
0.0142107
0.0142181
0.0142261
0.0142348
0.0142441
0.014254
0.0142646
0.0142759
0.0142878
0.0143005
0.0143139
0.014328
0.014343
0.0143587
0.0143752
0.0143925
0.0144107
0.0144298
0.0144497
0.0144706
0.0144924
0.0145151
0.0145387
0.0145634
0.014589
0.0146156
0.0146431
0.0146717
0.0147012
0.0147317
0.0147632
0.0147956
0.014829
0.0148632
0.0148983
0.0149342
0.0149709
0.0150083
0.0150463
0.0150849
0.0151241
0.0151636
0.0152035
0.0152437
0.015284
0.0153243
0.0153646
0.0154046
0.0154443
0.0154836
0.0155223
0.0155603
0.0155975
0.0156338
0.0156689
0.0157029
0.0157356
0.0157668
0.0157965
0.0158246
0.0158511
0.0158757
0.0158985
0.0159195
0.0159385
0.0159557
0.0159708
0.015984
0.0159953
0.0160048
0.0160123
0.0160181
0.0160221
0.0160245
0.0160253
0.0160246
0.0160226
0.0160193
0.0160148
0.0160093
0.0160028
0.0159956
0.0159877
0.0159792
0.0159703
0.015961
0.0159516
0.015942
0.0159325
0.0159232
0.015914
0.0159052
0.0158969
0.015889
0.0158818
0.0158753
0.0158694
0.0158644
0.0158601
0.0158568
0.0158541
0.0158527
0.0158516
0.0158519
0.0141911
0.0141799
0.0141774
0.0141711
0.01417
0.0141674
0.0141679
0.0141679
0.0141698
0.0141719
0.0141751
0.0141787
0.0141832
0.0141881
0.0141938
0.0141999
0.0142068
0.0142141
0.0142221
0.0142307
0.01424
0.0142498
0.0142603
0.0142715
0.0142833
0.0142959
0.0143092
0.0143232
0.0143379
0.0143535
0.0143699
0.014387
0.0144051
0.014424
0.0144438
0.0144645
0.0144861
0.0145087
0.0145322
0.0145567
0.0145821
0.0146086
0.0146361
0.0146645
0.014694
0.0147245
0.0147559
0.0147883
0.0148216
0.0148559
0.014891
0.014927
0.0149638
0.0150013
0.0150395
0.0150783
0.0151177
0.0151575
0.0151977
0.0152381
0.0152787
0.0153193
0.0153599
0.0154003
0.0154404
0.0154801
0.0155192
0.0155576
0.0155951
0.0156318
0.0156673
0.0157016
0.0157346
0.0157661
0.0157961
0.0158245
0.0158511
0.0158759
0.0158989
0.0159199
0.015939
0.0159561
0.0159713
0.0159844
0.0159956
0.0160048
0.0160122
0.0160177
0.0160215
0.0160236
0.0160241
0.016023
0.0160207
0.016017
0.0160121
0.0160063
0.0159994
0.0159918
0.0159836
0.0159748
0.0159655
0.015956
0.0159462
0.0159365
0.0159267
0.0159171
0.0159078
0.0158989
0.0158904
0.0158824
0.0158751
0.0158685
0.0158625
0.0158575
0.0158531
0.0158497
0.015847
0.0158455
0.0158444
0.0158445
0.0141864
0.0141744
0.0141718
0.014165
0.0141638
0.014161
0.0141615
0.0141615
0.0141635
0.0141655
0.0141688
0.0141724
0.0141769
0.0141819
0.0141875
0.0141937
0.0142005
0.0142079
0.0142158
0.0142243
0.0142335
0.0142433
0.0142537
0.0142647
0.0142765
0.0142889
0.014302
0.0143159
0.0143305
0.0143459
0.0143621
0.0143791
0.014397
0.0144158
0.0144354
0.0144559
0.0144774
0.0144998
0.0145232
0.0145476
0.014573
0.0145993
0.0146267
0.0146551
0.0146846
0.014715
0.0147464
0.0147789
0.0148123
0.0148466
0.0148819
0.014918
0.014955
0.0149927
0.0150311
0.0150702
0.0151099
0.01515
0.0151906
0.0152314
0.0152724
0.0153135
0.0153546
0.0153954
0.015436
0.0154762
0.0155158
0.0155547
0.0155927
0.0156298
0.0156658
0.0157006
0.015734
0.0157659
0.0157963
0.015825
0.0158519
0.0158769
0.0159001
0.0159212
0.0159404
0.0159575
0.0159726
0.0159857
0.0159967
0.0160058
0.0160129
0.0160182
0.0160217
0.0160234
0.0160235
0.0160221
0.0160193
0.0160152
0.0160099
0.0160036
0.0159963
0.0159883
0.0159796
0.0159704
0.0159608
0.0159508
0.0159408
0.0159307
0.0159206
0.0159108
0.0159012
0.015892
0.0158833
0.0158752
0.0158677
0.0158609
0.0158549
0.0158497
0.0158452
0.0158418
0.015839
0.0158374
0.0158362
0.0158363
0.0141797
0.0141669
0.0141642
0.0141571
0.0141559
0.0141529
0.0141534
0.0141534
0.0141554
0.0141574
0.0141608
0.0141644
0.0141689
0.0141739
0.0141796
0.0141857
0.0141925
0.0141998
0.0142077
0.0142161
0.0142252
0.0142349
0.0142452
0.0142561
0.0142677
0.01428
0.014293
0.0143067
0.0143212
0.0143364
0.0143525
0.0143693
0.0143871
0.0144056
0.0144251
0.0144455
0.0144668
0.0144891
0.0145124
0.0145366
0.0145619
0.0145882
0.0146155
0.0146439
0.0146733
0.0147037
0.0147352
0.0147677
0.0148012
0.0148357
0.0148711
0.0149074
0.0149446
0.0149826
0.0150213
0.0150607
0.0151008
0.0151413
0.0151822
0.0152235
0.015265
0.0153066
0.0153482
0.0153896
0.0154308
0.0154715
0.0155116
0.0155511
0.0155897
0.0156274
0.0156639
0.0156992
0.0157331
0.0157654
0.0157962
0.0158252
0.0158525
0.0158778
0.0159011
0.0159225
0.0159417
0.0159589
0.015974
0.0159869
0.0159978
0.0160067
0.0160136
0.0160185
0.0160217
0.016023
0.0160227
0.0160209
0.0160176
0.016013
0.0160073
0.0160005
0.0159927
0.0159842
0.0159751
0.0159654
0.0159553
0.015945
0.0159346
0.0159241
0.0159137
0.0159036
0.0158938
0.0158843
0.0158754
0.0158671
0.0158594
0.0158525
0.0158464
0.0158411
0.0158365
0.015833
0.0158302
0.0158285
0.0158273
0.0158273
0.0141708
0.0141573
0.0141545
0.014147
0.0141457
0.0141426
0.0141431
0.014143
0.0141451
0.0141471
0.0141505
0.0141541
0.0141586
0.0141636
0.0141692
0.0141753
0.0141821
0.0141893
0.0141971
0.0142055
0.0142145
0.0142241
0.0142343
0.0142451
0.0142565
0.0142687
0.0142815
0.0142951
0.0143094
0.0143245
0.0143404
0.0143571
0.0143746
0.0143931
0.0144124
0.0144326
0.0144538
0.014476
0.0144991
0.0145233
0.0145485
0.0145747
0.014602
0.0146304
0.0146598
0.0146903
0.0147218
0.0147544
0.0147881
0.0148227
0.0148583
0.0148949
0.0149324
0.0149707
0.0150098
0.0150497
0.0150901
0.0151311
0.0151726
0.0152144
0.0152565
0.0152987
0.0153409
0.015383
0.0154248
0.0154662
0.015507
0.0155471
0.0155864
0.0156247
0.0156618
0.0156977
0.0157322
0.0157651
0.0157963
0.0158258
0.0158534
0.015879
0.0159026
0.0159241
0.0159435
0.0159607
0.0159758
0.0159887
0.0159994
0.0160081
0.0160147
0.0160193
0.016022
0.016023
0.0160222
0.0160199
0.0160161
0.016011
0.0160047
0.0159973
0.015989
0.01598
0.0159703
0.0159601
0.0159496
0.0159388
0.0159279
0.0159171
0.0159063
0.0158958
0.0158857
0.015876
0.0158668
0.0158583
0.0158504
0.0158433
0.015837
0.0158316
0.0158269
0.0158233
0.0158205
0.0158187
0.0158175
0.0158176
0.0141595
0.0141455
0.0141425
0.0141347
0.0141334
0.0141302
0.0141307
0.0141306
0.0141326
0.0141346
0.014138
0.0141416
0.0141462
0.0141511
0.0141567
0.0141628
0.0141695
0.0141767
0.0141844
0.0141927
0.0142016
0.0142111
0.0142211
0.0142318
0.0142432
0.0142552
0.0142679
0.0142813
0.0142954
0.0143104
0.0143261
0.0143426
0.01436
0.0143783
0.0143975
0.0144176
0.0144386
0.0144607
0.0144837
0.0145078
0.014533
0.0145591
0.0145864
0.0146148
0.0146442
0.0146748
0.0147065
0.0147392
0.014773
0.0148079
0.0148438
0.0148807
0.0149185
0.0149572
0.0149967
0.015037
0.015078
0.0151196
0.0151616
0.0152041
0.0152468
0.0152897
0.0153326
0.0153753
0.0154179
0.01546
0.0155016
0.0155425
0.0155825
0.0156215
0.0156593
0.0156959
0.0157309
0.0157644
0.0157962
0.0158261
0.0158542
0.0158801
0.015904
0.0159258
0.0159453
0.0159626
0.0159776
0.0159904
0.016001
0.0160094
0.0160157
0.01602
0.0160223
0.0160227
0.0160215
0.0160186
0.0160143
0.0160086
0.0160017
0.0159937
0.0159848
0.0159752
0.0159649
0.0159542
0.0159431
0.0159319
0.0159205
0.0159092
0.0158981
0.0158872
0.0158767
0.0158667
0.0158573
0.0158485
0.0158404
0.0158331
0.0158267
0.0158211
0.0158164
0.0158127
0.0158098
0.0158081
0.0158069
0.015807
0.0141458
0.0141312
0.0141282
0.0141201
0.0141187
0.0141154
0.0141159
0.0141157
0.0141178
0.0141197
0.0141231
0.0141267
0.0141313
0.0141361
0.0141417
0.0141478
0.0141544
0.0141615
0.0141692
0.0141774
0.0141861
0.0141955
0.0142054
0.014216
0.0142272
0.0142391
0.0142516
0.0142649
0.0142789
0.0142936
0.0143092
0.0143256
0.0143428
0.014361
0.01438
0.0144
0.0144209
0.0144429
0.0144659
0.0144899
0.014515
0.0145412
0.0145684
0.0145969
0.0146264
0.0146571
0.0146889
0.0147218
0.0147559
0.014791
0.0148272
0.0148644
0.0149027
0.0149418
0.0149819
0.0150227
0.0150643
0.0151064
0.0151492
0.0151923
0.0152358
0.0152794
0.0153231
0.0153667
0.0154101
0.015453
0.0154955
0.0155372
0.015578
0.0156178
0.0156564
0.0156937
0.0157295
0.0157637
0.015796
0.0158265
0.015855
0.0158814
0.0159056
0.0159276
0.0159473
0.0159646
0.0159796
0.0159923
0.0160028
0.0160109
0.0160169
0.0160208
0.0160226
0.0160226
0.0160208
0.0160173
0.0160123
0.016006
0.0159984
0.0159898
0.0159803
0.01597
0.0159591
0.0159478
0.0159361
0.0159243
0.0159124
0.0159006
0.015889
0.0158778
0.0158669
0.0158566
0.0158469
0.0158378
0.0158295
0.0158221
0.0158154
0.0158098
0.0158049
0.0158012
0.0157982
0.0157965
0.0157953
0.0157956
0.0141295
0.0141145
0.0141114
0.014103
0.0141017
0.0140982
0.0140987
0.0140984
0.0141005
0.0141025
0.0141059
0.0141094
0.0141139
0.0141188
0.0141243
0.0141303
0.0141368
0.0141439
0.0141514
0.0141595
0.0141682
0.0141774
0.0141873
0.0141977
0.0142088
0.0142205
0.0142329
0.014246
0.0142598
0.0142744
0.0142899
0.0143061
0.0143232
0.0143412
0.0143601
0.01438
0.0144008
0.0144227
0.0144456
0.0144696
0.0144946
0.0145208
0.0145482
0.0145767
0.0146063
0.0146371
0.0146691
0.0147023
0.0147366
0.014772
0.0148086
0.0148463
0.0148849
0.0149246
0.0149652
0.0150066
0.0150489
0.0150917
0.0151352
0.0151791
0.0152234
0.0152679
0.0153124
0.0153569
0.0154012
0.0154451
0.0154884
0.0155311
0.0155728
0.0156135
0.015653
0.0156911
0.0157276
0.0157625
0.0157956
0.0158267
0.0158557
0.0158825
0.0159071
0.0159293
0.0159492
0.0159666
0.0159816
0.0159943
0.0160045
0.0160124
0.016018
0.0160214
0.0160228
0.0160222
0.0160198
0.0160157
0.01601
0.016003
0.0159947
0.0159853
0.0159751
0.0159641
0.0159526
0.0159406
0.0159283
0.0159159
0.0159035
0.0158912
0.0158791
0.0158674
0.0158562
0.0158455
0.0158355
0.0158262
0.0158176
0.01581
0.0158031
0.0157974
0.0157925
0.0157887
0.0157857
0.0157841
0.0157829
0.0157833
0.0141105
0.0140951
0.0140919
0.0140834
0.014082
0.0140784
0.0140789
0.0140786
0.0140807
0.0140826
0.014086
0.0140895
0.014094
0.0140987
0.0141042
0.0141101
0.0141166
0.0141236
0.0141311
0.014139
0.0141476
0.0141567
0.0141664
0.0141767
0.0141876
0.0141992
0.0142114
0.0142244
0.0142381
0.0142526
0.0142678
0.0142839
0.0143009
0.0143188
0.0143376
0.0143573
0.0143781
0.0143999
0.0144227
0.0144467
0.0144718
0.014498
0.0145254
0.014554
0.0145838
0.0146148
0.014647
0.0146804
0.0147151
0.0147509
0.0147879
0.014826
0.0148652
0.0149054
0.0149466
0.0149887
0.0150317
0.0150753
0.0151196
0.0151644
0.0152095
0.0152549
0.0153005
0.0153459
0.0153912
0.0154361
0.0154804
0.0155241
0.0155668
0.0156085
0.0156489
0.0156879
0.0157254
0.015761
0.0157948
0.0158266
0.0158562
0.0158835
0.0159085
0.0159311
0.0159511
0.0159687
0.0159837
0.0159962
0.0160062
0.0160138
0.0160191
0.016022
0.0160229
0.0160217
0.0160186
0.0160138
0.0160074
0.0159996
0.0159905
0.0159804
0.0159694
0.0159577
0.0159454
0.0159327
0.0159197
0.0159067
0.0158937
0.0158808
0.0158683
0.0158561
0.0158445
0.0158334
0.015823
0.0158135
0.0158047
0.0157968
0.0157898
0.015784
0.0157789
0.0157752
0.0157721
0.0157706
0.0157694
0.0157701
0.0140889
0.0140731
0.0140699
0.0140611
0.0140597
0.014056
0.0140565
0.0140562
0.0140582
0.0140601
0.0140635
0.0140669
0.0140714
0.0140761
0.0140815
0.0140873
0.0140937
0.0141006
0.014108
0.0141159
0.0141243
0.0141333
0.0141429
0.014153
0.0141638
0.0141752
0.0141873
0.0142001
0.0142137
0.014228
0.0142431
0.0142591
0.0142759
0.0142937
0.0143124
0.014332
0.0143527
0.0143745
0.0143973
0.0144213
0.0144464
0.0144726
0.0145001
0.0145289
0.0145588
0.01459
0.0146225
0.0146562
0.0146912
0.0147274
0.0147649
0.0148035
0.0148433
0.0148841
0.014926
0.0149689
0.0150126
0.015057
0.0151022
0.0151479
0.015194
0.0152405
0.015287
0.0153335
0.0153799
0.0154259
0.0154713
0.015516
0.0155599
0.0156026
0.0156441
0.0156841
0.0157224
0.015759
0.0157936
0.0158261
0.0158564
0.0158843
0.0159097
0.0159326
0.0159529
0.0159706
0.0159856
0.015998
0.0160078
0.0160151
0.0160199
0.0160224
0.0160227
0.0160208
0.016017
0.0160114
0.0160042
0.0159956
0.0159857
0.0159748
0.0159629
0.0159504
0.0159373
0.0159239
0.0159102
0.0158965
0.0158829
0.0158695
0.0158564
0.0158438
0.0158317
0.0158203
0.0158095
0.0157997
0.0157906
0.0157826
0.0157754
0.0157695
0.0157643
0.0157606
0.0157575
0.0157561
0.015755
0.0157559
0.0140644
0.0140483
0.014045
0.0140361
0.0140346
0.0140309
0.0140314
0.014031
0.014033
0.0140349
0.0140382
0.0140416
0.014046
0.0140507
0.014056
0.0140617
0.0140681
0.0140748
0.0140821
0.0140899
0.0140982
0.014107
0.0141165
0.0141265
0.0141371
0.0141484
0.0141604
0.014173
0.0141864
0.0142006
0.0142156
0.0142314
0.0142481
0.0142658
0.0142844
0.014304
0.0143246
0.0143463
0.0143691
0.0143931
0.0144182
0.0144446
0.0144722
0.0145011
0.0145312
0.0145627
0.0145954
0.0146295
0.0146649
0.0147016
0.0147395
0.0147787
0.0148191
0.0148606
0.0149032
0.0149468
0.0149914
0.0150368
0.0150829
0.0151296
0.0151768
0.0152243
0.0152719
0.0153196
0.0153671
0.0154143
0.0154609
0.0155068
0.0155518
0.0155957
0.0156383
0.0156794
0.0157188
0.0157564
0.0157919
0.0158252
0.0158561
0.0158846
0.0159106
0.0159339
0.0159545
0.0159723
0.0159874
0.0159997
0.0160093
0.0160162
0.0160206
0.0160226
0.0160222
0.0160196
0.0160151
0.0160087
0.0160006
0.0159911
0.0159803
0.0159685
0.0159557
0.0159423
0.0159284
0.0159142
0.0158998
0.0158853
0.0158711
0.015857
0.0158434
0.0158303
0.0158178
0.015806
0.0157949
0.0157847
0.0157755
0.0157672
0.0157599
0.0157538
0.0157486
0.0157449
0.0157418
0.0157405
0.0157394
0.0157406
0.0140371
0.0140207
0.0140174
0.0140083
0.0140068
0.014003
0.0140035
0.014003
0.0140051
0.0140069
0.0140101
0.0140135
0.0140178
0.0140224
0.0140277
0.0140333
0.0140396
0.0140462
0.0140534
0.014061
0.0140692
0.0140779
0.0140872
0.0140971
0.0141076
0.0141187
0.0141305
0.014143
0.0141563
0.0141703
0.0141852
0.0142009
0.0142175
0.014235
0.0142535
0.0142731
0.0142936
0.0143153
0.0143381
0.0143621
0.0143873
0.0144138
0.0144415
0.0144706
0.0145009
0.0145327
0.0145657
0.0146002
0.014636
0.0146731
0.0147116
0.0147514
0.0147924
0.0148347
0.0148781
0.0149225
0.014968
0.0150143
0.0150614
0.0151092
0.0151575
0.0152062
0.015255
0.0153039
0.0153527
0.0154011
0.015449
0.0154962
0.0155425
0.0155877
0.0156315
0.0156737
0.0157142
0.0157528
0.0157893
0.0158235
0.0158553
0.0158845
0.015911
0.0159347
0.0159556
0.0159737
0.0159888
0.016001
0.0160104
0.016017
0.0160209
0.0160223
0.0160213
0.016018
0.0160126
0.0160053
0.0159963
0.0159859
0.0159741
0.0159613
0.0159477
0.0159333
0.0159185
0.0159034
0.0158882
0.0158731
0.0158581
0.0158435
0.0158293
0.0158156
0.0158026
0.0157904
0.015779
0.0157686
0.015759
0.0157506
0.0157432
0.015737
0.0157317
0.015728
0.0157249
0.0157238
0.0157228
0.0157243
0.0140069
0.0139902
0.0139868
0.0139776
0.0139761
0.0139722
0.0139727
0.0139722
0.0139742
0.0139759
0.0139792
0.0139825
0.0139867
0.0139912
0.0139965
0.014002
0.0140081
0.0140146
0.0140217
0.0140292
0.0140373
0.0140459
0.014055
0.0140647
0.0140751
0.0140861
0.0140977
0.0141101
0.0141232
0.0141371
0.0141518
0.0141674
0.0141839
0.0142013
0.0142197
0.0142392
0.0142597
0.0142814
0.0143042
0.0143282
0.0143535
0.0143801
0.014408
0.0144372
0.0144678
0.0144998
0.0145332
0.0145681
0.0146043
0.014642
0.014681
0.0147214
0.0147632
0.0148062
0.0148504
0.0148957
0.0149421
0.0149895
0.0150377
0.0150866
0.015136
0.0151859
0.015236
0.0152862
0.0153363
0.0153861
0.0154354
0.015484
0.0155316
0.0155781
0.0156233
0.0156668
0.0157086
0.0157483
0.0157859
0.0158211
0.0158537
0.0158837
0.0159108
0.0159351
0.0159563
0.0159746
0.0159898
0.0160019
0.0160111
0.0160174
0.0160209
0.0160216
0.0160199
0.0160158
0.0160095
0.0160013
0.0159914
0.0159799
0.0159671
0.0159533
0.0159386
0.0159233
0.0159076
0.0158916
0.0158755
0.0158596
0.0158439
0.0158286
0.0158138
0.0157997
0.0157863
0.0157737
0.0157619
0.0157512
0.0157414
0.0157328
0.0157251
0.0157189
0.0157135
0.0157098
0.0157068
0.0157058
0.0157049
0.0157067
0.0139737
0.0139568
0.0139533
0.013944
0.0139425
0.0139385
0.013939
0.0139384
0.0139404
0.0139421
0.0139453
0.0139485
0.0139527
0.0139571
0.0139622
0.0139677
0.0139737
0.0139801
0.013987
0.0139944
0.0140023
0.0140108
0.0140198
0.0140294
0.0140396
0.0140504
0.0140619
0.0140741
0.0140871
0.0141008
0.0141154
0.0141308
0.0141472
0.0141645
0.0141829
0.0142023
0.0142227
0.0142444
0.0142672
0.0142913
0.0143166
0.0143433
0.0143714
0.0144008
0.0144316
0.0144639
0.0144977
0.0145329
0.0145697
0.0146079
0.0146475
0.0146886
0.014731
0.0147748
0.0148199
0.0148662
0.0149136
0.014962
0.0150113
0.0150614
0.0151121
0.0151632
0.0152147
0.0152663
0.0153178
0.0153691
0.0154198
0.0154698
0.0155189
0.0155669
0.0156134
0.0156584
0.0157014
0.0157425
0.0157812
0.0158175
0.0158511
0.0158819
0.0159098
0.0159346
0.0159563
0.0159749
0.0159902
0.0160023
0.0160113
0.0160172
0.0160202
0.0160204
0.0160179
0.0160129
0.0160057
0.0159965
0.0159855
0.015973
0.0159591
0.0159442
0.0159285
0.0159121
0.0158954
0.0158785
0.0158616
0.0158448
0.0158284
0.0158125
0.0157971
0.0157824
0.0157685
0.0157555
0.0157434
0.0157324
0.0157224
0.0157136
0.0157058
0.0156995
0.0156941
0.0156904
0.0156874
0.0156866
0.0156858
0.015688
0.0139374
0.0139204
0.0139169
0.0139074
0.0139059
0.0139019
0.0139023
0.0139017
0.0139036
0.0139053
0.0139084
0.0139115
0.0139157
0.01392
0.013925
0.0139303
0.0139362
0.0139425
0.0139493
0.0139565
0.0139643
0.0139726
0.0139815
0.0139909
0.0140009
0.0140116
0.0140229
0.014035
0.0140478
0.0140614
0.0140758
0.0140911
0.0141074
0.0141246
0.0141428
0.0141621
0.0141826
0.0142042
0.014227
0.0142511
0.0142766
0.0143033
0.0143315
0.0143612
0.0143923
0.0144249
0.014459
0.0144946
0.0145318
0.0145706
0.0146108
0.0146526
0.0146958
0.0147404
0.0147864
0.0148336
0.014882
0.0149315
0.014982
0.0150333
0.0150853
0.0151378
0.0151907
0.0152438
0.0152968
0.0153495
0.0154018
0.0154534
0.015504
0.0155535
0.0156016
0.015648
0.0156925
0.0157349
0.015775
0.0158125
0.0158472
0.015879
0.0159077
0.0159332
0.0159554
0.0159743
0.0159898
0.0160019
0.0160107
0.0160163
0.0160188
0.0160183
0.0160151
0.0160093
0.0160011
0.0159909
0.0159788
0.0159651
0.0159501
0.015934
0.0159172
0.0158997
0.015882
0.0158641
0.0158462
0.0158287
0.0158115
0.0157949
0.0157789
0.0157637
0.0157493
0.0157359
0.0157235
0.0157122
0.0157019
0.015693
0.0156851
0.0156787
0.0156733
0.0156697
0.0156666
0.0156661
0.0156653
0.0156679
0.0138981
0.0138809
0.0138774
0.0138678
0.0138663
0.0138622
0.0138626
0.0138619
0.0138638
0.0138654
0.0138684
0.0138715
0.0138755
0.0138798
0.0138847
0.0138899
0.0138956
0.0139018
0.0139084
0.0139155
0.0139232
0.0139313
0.01394
0.0139492
0.0139591
0.0139695
0.0139807
0.0139926
0.0140052
0.0140187
0.0140329
0.0140481
0.0140642
0.0140813
0.0140995
0.0141187
0.0141391
0.0141606
0.0141835
0.0142076
0.0142331
0.01426
0.0142883
0.0143181
0.0143495
0.0143824
0.0144169
0.0144529
0.0144906
0.0145299
0.0145707
0.0146132
0.0146571
0.0147026
0.0147494
0.0147977
0.0148472
0.0148978
0.0149495
0.0150021
0.0150554
0.0151093
0.0151636
0.0152182
0.0152727
0.0153271
0.015381
0.0154342
0.0154865
0.0155376
0.0155873
0.0156353
0.0156814
0.0157253
0.0157667
0.0158055
0.0158415
0.0158744
0.015904
0.0159303
0.0159532
0.0159725
0.0159883
0.0160005
0.0160092
0.0160145
0.0160165
0.0160154
0.0160114
0.0160047
0.0159955
0.0159842
0.0159709
0.0159561
0.0159398
0.0159226
0.0159045
0.015886
0.0158671
0.0158482
0.0158294
0.015811
0.015793
0.0157757
0.0157591
0.0157434
0.0157286
0.0157148
0.015702
0.0156905
0.01568
0.015671
0.0156629
0.0156565
0.015651
0.0156475
0.0156445
0.0156442
0.0156435
0.0156465
0.0138558
0.0138383
0.0138348
0.0138251
0.0138236
0.0138194
0.0138198
0.0138191
0.0138209
0.0138224
0.0138254
0.0138284
0.0138323
0.0138364
0.0138412
0.0138463
0.0138519
0.0138579
0.0138644
0.0138713
0.0138788
0.0138867
0.0138952
0.0139043
0.0139139
0.0139242
0.0139352
0.0139469
0.0139594
0.0139726
0.0139867
0.0140017
0.0140177
0.0140346
0.0140527
0.0140718
0.0140921
0.0141136
0.0141364
0.0141605
0.0141861
0.014213
0.0142415
0.0142715
0.0143031
0.0143362
0.014371
0.0144075
0.0144456
0.0144855
0.0145269
0.01457
0.0146147
0.014661
0.0147088
0.014758
0.0148086
0.0148604
0.0149133
0.0149671
0.0150218