/*--------------------------------*- C++ -*----------------------------------*\
| =========                 |                                                 |
| \\      /  F ield         | OpenFOAM: The Open Source CFD Toolbox           |
|  \\    /   O peration     | Version:  2406                                  |
|   \\  /    A nd           | Website:  www.openfoam.com                      |
|    \\/     M anipulation  |                                                 |
\*---------------------------------------------------------------------------*/
FoamFile
{
    version     2.0;
    format      ascii;
    arch        "LSB;label=32;scalar=64";
    class       volVectorField;
    location    "30.45";
    object      Uold;
}
// * * * * * * * * * * * * * * * * * * * * * * * * * * * * * * * * * * * * * //

dimensions      [0 1 -1 0 0 0 0];

internalField   nonuniform List<vector> 
3600
(
(4.77423e-06 -1.45436e-05 0)
(0.00049387 -0.000227345 0)
(0.00140618 -0.000330956 0)
(0.00240432 -0.000342883 0)
(0.00335425 -0.00028384 0)
(0.0040586 -0.000203495 0)
(0.00455238 -0.000125525 0)
(0.00479694 -6.80836e-05 0)
(0.00489261 -3.40427e-05 0)
(0.00484535 -1.88443e-05 0)
(0.00472004 -1.31626e-05 0)
(0.00448923 -5.13466e-06 0)
(0.00414663 1.44049e-05 0)
(0.00362083 5.30885e-05 0)
(0.00285729 0.000113859 0)
(0.00176879 0.000198967 0)
(0.000286872 0.000308574 0)
(-0.00166873 0.000443173 0)
(-0.00415811 0.000598977 0)
(-0.00723661 0.000768829 0)
(-0.0109313 0.000944006 0)
(-0.0152415 0.00112126 0)
(-0.020117 0.00130108 0)
(-0.0254522 0.00148138 0)
(-0.0310763 0.00164714 0)
(-0.0367572 0.00176905 0)
(-0.0422091 0.00180857 0)
(-0.047111 0.00172964 0)
(-0.0511314 0.00150704 0)
(-0.0539524 0.00113249 0)
(-0.0552968 0.000614686 0)
(-0.0549476 -2.0922e-05 0)
(-0.0527711 -0.00073542 0)
(-0.0487281 -0.00147798 0)
(-0.0428939 -0.00218987 0)
(-0.0354601 -0.0028073 0)
(-0.0267466 -0.00326769 0)
(-0.0171831 -0.00351579 0)
(-0.00730329 -0.00351295 0)
(0.00230969 -0.00324534 0)
(0.0110542 -0.00273167 0)
(0.018401 -0.00202605 0)
(0.023931 -0.00121351 0)
(0.0274291 -0.000398066 0)
(0.028876 0.000319118 0)
(0.028491 0.000860442 0)
(0.0266332 0.00119188 0)
(0.0237864 0.00132327 0)
(0.0204021 0.00130021 0)
(0.0169073 0.00117865 0)
(0.0135684 0.00101165 0)
(0.0105928 0.000833971 0)
(0.00802063 0.000670287 0)
(0.0058977 0.000528471 0)
(0.00413844 0.000417654 0)
(0.00273593 0.000328007 0)
(0.00158555 0.000258609 0)
(0.000721651 0.000170048 0)
(0.00014196 6.4093e-05 0)
(-6.76288e-05 -7.44639e-05 0)
(0.000199039 -0.000478772 0)
(0.00138867 -0.00141579 0)
(0.00326121 -0.00184101 0)
(0.0052093 -0.00184786 0)
(0.00701722 -0.00154092 0)
(0.00833957 -0.00109698 0)
(0.00918759 -0.000633052 0)
(0.00947118 -0.000222889 0)
(0.00930338 0.000107718 0)
(0.00866696 0.000382099 0)
(0.0076153 0.000639925 0)
(0.00606348 0.000941888 0)
(0.00393744 0.00133332 0)
(0.0010651 0.00185482 0)
(-0.00270899 0.00252054 0)
(-0.00757556 0.00333639 0)
(-0.0136806 0.0042877 0)
(-0.0211484 0.00535312 0)
(-0.030021 0.00649474 0)
(-0.0402523 0.00766659 0)
(-0.0516572 0.00880006 0)
(-0.0639164 0.00980456 0)
(-0.0765829 0.0105654 0)
(-0.08913 0.0109671 0)
(-0.101 0.0109097 0)
(-0.111658 0.0103277 0)
(-0.120627 0.00919308 0)
(-0.127514 0.00751781 0)
(-0.132014 0.00534642 0)
(-0.133908 0.00275404 0)
(-0.133064 -0.000162074 0)
(-0.129423 -0.00328228 0)
(-0.12301 -0.00647027 0)
(-0.113927 -0.00957091 0)
(-0.102371 -0.0124167 0)
(-0.0886285 -0.0148289 0)
(-0.0731008 -0.016632 0)
(-0.0562876 -0.017664 0)
(-0.0388019 -0.0178019 0)
(-0.0213268 -0.016981 0)
(-0.00460942 -0.0152221 0)
(0.0106259 -0.0126427 0)
(0.0236973 -0.00946098 0)
(0.0340848 -0.00597459 0)
(0.0414296 -0.0025213 0)
(0.0456483 0.000573294 0)
(0.0468671 0.00305589 0)
(0.0454973 0.00478295 0)
(0.0420751 0.00574305 0)
(0.0372978 0.00603215 0)
(0.0317842 0.00582037 0)
(0.0261462 0.00528968 0)
(0.0207467 0.00461002 0)
(0.0159005 0.00389667 0)
(0.0116496 0.00323873 0)
(0.00808864 0.00264706 0)
(0.00510142 0.00212983 0)
(0.00276994 0.00156896 0)
(0.00103933 0.000950055 0)
(0.000109155 0.000166679 0)
(0.000312036 -0.00137173 0)
(0.0018846 -0.00331389 0)
(0.00424327 -0.00414293 0)
(0.00656145 -0.00405325 0)
(0.00859232 -0.00331995 0)
(0.0099154 -0.00225886 0)
(0.0105268 -0.00112278 0)
(0.0102938 -4.40718e-05 0)
(0.00929368 0.000920901 0)
(0.0074502 0.00183193 0)
(0.00474279 0.00277646 0)
(0.000995761 0.00388968 0)
(-0.00396411 0.00526861 0)
(-0.0103989 0.00699376 0)
(-0.0185305 0.00907874 0)
(-0.0285667 0.0115038 0)
(-0.040597 0.014189 0)
(-0.0545758 0.0170173 0)
(-0.0702441 0.0198058 0)
(-0.0871436 0.022326 0)
(-0.104648 0.0243165 0)
(-0.122058 0.025547 0)
(-0.13869 0.0258475 0)
(-0.153948 0.0251358 0)
(-0.167353 0.0234016 0)
(-0.178552 0.0206971 0)
(-0.187301 0.0171094 0)
(-0.193438 0.0127535 0)
(-0.196867 0.00775625 0)
(-0.197529 0.0022601 0)
(-0.1954 -0.00358316 0)
(-0.190477 -0.0096024 0)
(-0.182789 -0.0156089 0)
(-0.172396 -0.0213853 0)
(-0.159416 -0.0266907 0)
(-0.14403 -0.0312572 0)
(-0.126515 -0.0348082 0)
(-0.107247 -0.0370717 0)
(-0.0867322 -0.0378198 0)
(-0.0655776 -0.0368991 0)
(-0.0445048 -0.0342794 0)
(-0.0242728 -0.0300772 0)
(-0.00566299 -0.0245765 0)
(0.0106404 -0.0182043 0)
(0.0240559 -0.0114894 0)
(0.0342309 -0.00498828 0)
(0.0409879 0.000793146 0)
(0.0444366 0.00546658 0)
(0.04485 0.00881369 0)
(0.04277 0.0107995 0)
(0.0387922 0.0115633 0)
(0.03366 0.0113622 0)
(0.0279567 0.0105149 0)
(0.0222751 0.00931474 0)
(0.01689 0.00801009 0)
(0.0121086 0.00671972 0)
(0.00791444 0.00549717 0)
(0.00451128 0.0041941 0)
(0.00183375 0.00272766 0)
(0.000277325 0.000874958 0)
(0.000376521 -0.00242349 0)
(0.00212286 -0.00541567 0)
(0.00459743 -0.00654492 0)
(0.00682021 -0.00617002 0)
(0.00853749 -0.00481188 0)
(0.00930205 -0.0029177 0)
(0.00910377 -0.000874427 0)
(0.00776903 0.00115643 0)
(0.00530752 0.00310758 0)
(0.00154902 0.00509971 0)
(-0.00364496 0.00727955 0)
(-0.0105626 0.00985679 0)
(-0.0194696 0.0129581 0)
(-0.0306551 0.0166594 0)
(-0.0442784 0.0209046 0)
(-0.0603461 0.0255519 0)
(-0.0785985 0.0303252 0)
(-0.0985198 0.0348638 0)
(-0.119375 0.0387441 0)
(-0.140351 0.0415935 0)
(-0.160674 0.0431385 0)
(-0.179713 0.0432505 0)
(-0.197004 0.0419124 0)
(-0.212235 0.0391989 0)
(-0.225216 0.0352271 0)
(-0.235837 0.0301427 0)
(-0.244038 0.0240916 0)
(-0.249782 0.0172232 0)
(-0.253043 0.00967934 0)
(-0.253789 0.00160833 0)
(-0.251989 -0.0068372 0)
(-0.247596 -0.0154809 0)
(-0.24057 -0.0241213 0)
(-0.230873 -0.0325126 0)
(-0.218502 -0.0403669 0)
(-0.203489 -0.0473444 0)
(-0.185953 -0.053073 0)
(-0.166109 -0.0571617 0)
(-0.144316 -0.0592506 0)
(-0.121073 -0.0590535 0)
(-0.0970521 -0.0564315 0)
(-0.0730367 -0.0514361 0)
(-0.0499058 -0.0443553 0)
(-0.0285018 -0.0356933 0)
(-0.00959239 -0.0261271 0)
(0.00627702 -0.0164039 0)
(0.0187429 -0.00724301 0)
(0.0277224 0.000756234 0)
(0.0332736 0.00717081 0)
(0.0357109 0.0117829 0)
(0.035424 0.0145869 0)
(0.0330367 0.01577 0)
(0.0291212 0.0156655 0)
(0.0243863 0.0146698 0)
(0.0192796 0.0131708 0)
(0.0143299 0.0114384 0)
(0.00967993 0.00961431 0)
(0.00571162 0.0075892 0)
(0.00241734 0.00517626 0)
(0.000405021 0.00198399 0)
(0.000408491 -0.00362099 0)
(0.00216413 -0.00764025 0)
(0.00446551 -0.00889625 0)
(0.00623219 -0.00798303 0)
(0.00720339 -0.00573424 0)
(0.00693249 -0.00272403 0)
(0.00539494 0.000532736 0)
(0.00237558 0.00388333 0)
(-0.00220895 0.00727776 0)
(-0.00863737 0.0109257 0)
(-0.0171738 0.0150344 0)
(-0.0281796 0.01986 0)
(-0.0419172 0.0254883 0)
(-0.0585224 0.0318793 0)
(-0.0778414 0.0387533 0)
(-0.0994108 0.0456772 0)
(-0.122467 0.0520711 0)
(-0.1461 0.0573805 0)
(-0.169424 0.0611535 0)
(-0.191709 0.0631385 0)
(-0.212428 0.0632456 0)
(-0.231243 0.0615298 0)
(-0.247961 0.0581171 0)
(-0.262481 0.053185 0)
(-0.274771 0.0469137 0)
(-0.284826 0.039487 0)
(-0.292662 0.0310675 0)
(-0.298294 0.0218104 0)
(-0.301735 0.011852 0)
(-0.302975 0.00133179 0)
(-0.301991 -0.00961122 0)
(-0.298723 -0.0208117 0)
(-0.293093 -0.0320764 0)
(-0.284992 -0.0431555 0)
(-0.274301 -0.0537419 0)
(-0.260901 -0.06345 0)
(-0.244715 -0.0718311 0)
(-0.225732 -0.0783778 0)
(-0.204076 -0.0825777 0)
(-0.180039 -0.0839623 0)
(-0.154147 -0.0822066 0)
(-0.127145 -0.0772037 0)
(-0.100001 -0.0691571 0)
(-0.0737823 -0.0585916 0)
(-0.0495611 -0.0463261 0)
(-0.0282008 -0.0333382 0)
(-0.0103103 -0.0206164 0)
(0.00387865 -0.00900153 0)
(0.0143488 0.00088466 0)
(0.0213419 0.00866957 0)
(0.0251403 0.0142069 0)
(0.0262367 0.0175753 0)
(0.0250918 0.0190358 0)
(0.0223782 0.0189968 0)
(0.0185829 0.0179084 0)
(0.0143607 0.0161692 0)
(0.00999157 0.0140062 0)
(0.00603177 0.0113887 0)
(0.0025872 0.0080152 0)
(0.000438608 0.00332051 0)
(0.000423882 -0.00478606 0)
(0.00203256 -0.00961185 0)
(0.00385435 -0.0106867 0)
(0.00478638 -0.00890324 0)
(0.00456965 -0.00545366 0)
(0.00278918 -0.00102005 0)
(-0.000615635 0.00378601 0)
(-0.00590903 0.00887014 0)
(-0.0132935 0.0142321 0)
(-0.0231456 0.0201767 0)
(-0.0358061 0.0269262 0)
(-0.0515751 0.0346803 0)
(-0.0705001 0.0433254 0)
(-0.0922993 0.0525199 0)
(-0.116305 0.0616183 0)
(-0.141576 0.0698989 0)
(-0.167095 0.0766667 0)
(-0.191956 0.0814541 0)
(-0.215478 0.0840071 0)
(-0.237199 0.0842974 0)
(-0.256853 0.08242 0)
(-0.2743 0.0785692 0)
(-0.289502 0.0729625 0)
(-0.30248 0.0658386 0)
(-0.313303 0.0574122 0)
(-0.322058 0.0478873 0)
(-0.328854 0.0374303 0)
(-0.333784 0.0261913 0)
(-0.336942 0.0142884 0)
(-0.338379 0.00183479 0)
(-0.338122 -0.0110675 0)
(-0.336137 -0.0242951 0)
(-0.332347 -0.0377019 0)
(-0.326598 -0.0510815 0)
(-0.318689 -0.0641618 0)
(-0.308352 -0.0765688 0)
(-0.295302 -0.0878314 0)
(-0.27925 -0.0973672 0)
(-0.25999 -0.104525 0)
(-0.237452 -0.108627 0)
(-0.211823 -0.109078 0)
(-0.183597 -0.105476 0)
(-0.153655 -0.097758 0)
(-0.123199 -0.0862944 0)
(-0.0936632 -0.0719275 0)
(-0.0664407 -0.0558572 0)
(-0.0426782 -0.0394433 0)
(-0.0230044 -0.0239191 0)
(-0.00759693 -0.0102152 0)
(0.00379567 0.00111847 0)
(0.0115211 0.00983126 0)
(0.0160868 0.0159316 0)
(0.0179135 0.0196006 0)
(0.0176134 0.0212069 0)
(0.0156465 0.0211853 0)
(0.0126988 0.0199998 0)
(0.00913782 0.0179215 0)
(0.0056395 0.0149922 0)
(0.00243936 0.0108022 0)
(0.000409105 0.0046424 0)
(0.000413419 -0.00592294 0)
(0.00169135 -0.011221 0)
(0.00271592 -0.0117238 0)
(0.00245176 -0.00869057 0)
(0.000642992 -0.00368779 0)
(-0.00307394 0.00253104 0)
(-0.00882799 0.00930006 0)
(-0.0169325 0.0166257 0)
(-0.027706 0.0245658 0)
(-0.041546 0.0334743 0)
(-0.0587285 0.043468 0)
(-0.0792675 0.0545076 0)
(-0.102773 0.0660906 0)
(-0.128431 0.0774797 0)
(-0.155176 0.0877528 0)
(-0.181903 0.0961482 0)
(-0.207692 0.10212 0)
(-0.231855 0.105441 0)
(-0.253958 0.106087 0)
(-0.273741 0.104214 0)
(-0.291102 0.100049 0)
(-0.306034 0.0938846 0)
(-0.31863 0.0860071 0)
(-0.329029 0.0767072 0)
(-0.337422 0.0662321 0)
(-0.344008 0.0548049 0)
(-0.349 0.042593 0)
(-0.352581 0.0297352 0)
(-0.354924 0.016323 0)
(-0.356145 0.00243311 0)
(-0.356329 -0.0118823 0)
(-0.355487 -0.0265585 0)
(-0.353573 -0.04152 0)
(-0.350447 -0.0566369 0)
(-0.345886 -0.0717183 0)
(-0.339553 -0.0864642 0)
(-0.331024 -0.100456 0)
(-0.319781 -0.113119 0)
(-0.305285 -0.12374 0)
(-0.287032 -0.131478 0)
(-0.2647 -0.135462 0)
(-0.238264 -0.1349 0)
(-0.208172 -0.129277 0)
(-0.175413 -0.118532 0)
(-0.141542 -0.103236 0)
(-0.108456 -0.0846028 0)
(-0.0781005 -0.0643468 0)
(-0.0519648 -0.044296 0)
(-0.0308371 -0.0259964 0)
(-0.0146822 -0.01041 0)
(-0.00304023 0.00203647 0)
(0.00479599 0.0113339 0)
(0.00940043 0.0176599 0)
(0.0114352 0.021384 0)
(0.0113717 0.0229127 0)
(0.00989274 0.0227308 0)
(0.0074176 0.02111 0)
(0.00467801 0.0181334 0)
(0.00202185 0.0133058 0)
(0.000323369 0.00582405 0)
(0.000359382 -0.00682693 0)
(0.00106906 -0.0120636 0)
(0.000935036 -0.0115117 0)
(-0.000899205 -0.00681645 0)
(-0.00469516 0.000110014 0)
(-0.0107482 0.00849807 0)
(-0.0192874 0.017676 0)
(-0.0306506 0.0277669 0)
(-0.0452188 0.0388411 0)
(-0.0632581 0.0511731 0)
(-0.0847796 0.0645834 0)
(-0.109313 0.078614 0)
(-0.13598 0.0923213 0)
(-0.163591 0.104709 0)
(-0.190987 0.114842 0)
(-0.217167 0.12215 0)
(-0.24143 0.126343 0)
(-0.263292 0.127438 0)
(-0.282506 0.125601 0)
(-0.298969 0.121147 0)
(-0.312745 0.114424 0)
(-0.323986 0.105827 0)
(-0.332945 0.0957117 0)
(-0.339899 0.084418 0)
(-0.345166 0.0722114 0)
(-0.349032 0.0593149 0)
(-0.351784 0.0458757 0)
(-0.35365 0.0320033 0)
(-0.354843 0.0177481 0)
(-0.35551 0.00314132 0)
(-0.355773 -0.0118203 0)
(-0.355685 -0.0271353 0)
(-0.355256 -0.0428052 0)
(-0.354405 -0.0587923 0)
(-0.35297 -0.0750161 0)
(-0.350657 -0.0913001 0)
(-0.347044 -0.107355 0)
(-0.341535 -0.122718 0)
(-0.333402 -0.13674 0)
(-0.321798 -0.148551 0)
(-0.305885 -0.15711 0)
(-0.284969 -0.161273 0)
(-0.258742 -0.159988 0)
(-0.227493 -0.152519 0)
(-0.192322 -0.138758 0)
(-0.155141 -0.119446 0)
(-0.118494 -0.0962634 0)
(-0.0849871 -0.071551 0)
(-0.0566627 -0.0477713 0)
(-0.0343996 -0.0267991 0)
(-0.018008 -0.00962258 0)
(-0.00658679 0.00360789 0)
(0.000788316 0.0131269 0)
(0.00503065 0.0194066 0)
(0.00676558 0.02289 0)
(0.00672568 0.0240892 0)
(0.00539217 0.0232624 0)
(0.00351287 0.0205039 0)
(0.00152106 0.0152682 0)
(0.000227531 0.00672283 0)
(0.000243901 -0.00741137 0)
(0.000116714 -0.0119303 0)
(-0.00153001 -0.00980874 0)
(-0.00525954 -0.00304962 0)
(-0.0113647 0.00617115 0)
(-0.0200586 0.0171283 0)
(-0.031685 0.0291757 0)
(-0.046536 0.0425117 0)
(-0.0649402 0.0571004 0)
(-0.0868412 0.0729458 0)
(-0.111834 0.0894048 0)
(-0.138934 0.105563 0)
(-0.166945 0.120188 0)
(-0.194567 0.132279 0)
(-0.220767 0.141093 0)
(-0.244726 0.146335 0)
(-0.265955 0.14797 0)
(-0.284153 0.146238 0)
(-0.299281 0.141491 0)
(-0.311434 0.134208 0)
(-0.320889 0.124859 0)
(-0.327974 0.113927 0)
(-0.333097 0.101813 0)
(-0.33663 0.088867 0)
(-0.338954 0.0753383 0)
(-0.340372 0.0614189 0)
(-0.341171 0.0472141 0)
(-0.341557 0.0327924 0)
(-0.341721 0.0181622 0)
(-0.341792 0.00331704 0)
(-0.341894 -0.0117858 0)
(-0.342097 -0.0271865 0)
(-0.342459 -0.0429397 0)
(-0.342976 -0.0590771 0)
(-0.343599 -0.0756142 0)
(-0.344165 -0.0925021 0)
(-0.344397 -0.109613 0)
(-0.343822 -0.126674 0)
(-0.341765 -0.143227 0)
(-0.337302 -0.158554 0)
(-0.329318 -0.171659 0)
(-0.316584 -0.181263 0)
(-0.297989 -0.185915 0)
(-0.272809 -0.18419 0)
(-0.241095 -0.175043 0)
(-0.203962 -0.158211 0)
(-0.163741 -0.134616 0)
(-0.123687 -0.106477 0)
(-0.087289 -0.0769834 0)
(-0.0571659 -0.0493583 0)
(-0.0343496 -0.0258982 0)
(-0.018255 -0.00744183 0)
(-0.0076155 0.00615514 0)
(-0.00106093 0.0155596 0)
(0.00240335 0.0213876 0)
(0.0036994 0.0242657 0)
(0.00343613 0.0244838 0)
(0.00238513 0.0221506 0)
(0.00104443 0.0167193 0)
(0.000141058 0.00737635 0)
(4.46155e-05 -0.00740159 0)
(-0.00121696 -0.0103874 0)
(-0.00471408 -0.00617075 0)
(-0.0106128 0.00302513 0)
(-0.0192738 0.0148899 0)
(-0.0308034 0.0287862 0)
(-0.0456403 0.0440831 0)
(-0.0639149 0.0609427 0)
(-0.0857642 0.0790525 0)
(-0.110666 0.0979781 0)
(-0.137791 0.116577 0)
(-0.16578 0.133616 0)
(-0.193358 0.147816 0)
(-0.219295 0.158369 0)
(-0.242767 0.164811 0)
(-0.263145 0.167136 0)
(-0.280183 0.165568 0)
(-0.293814 0.160586 0)
(-0.304268 0.152745 0)
(-0.311872 0.142676 0)
(-0.317111 0.130945 0)
(-0.320442 0.118072 0)
(-0.322354 0.104449 0)
(-0.323231 0.090389 0)
(-0.323434 0.0760809 0)
(-0.323206 0.0616576 0)
(-0.322769 0.0471668 0)
(-0.322258 0.0326307 0)
(-0.321803 0.0180207 0)
(-0.321484 0.00330447 0)
(-0.321394 -0.0115812 0)
(-0.321593 -0.0266932 0)
(-0.322166 -0.0421086 0)
(-0.323158 -0.0578921 0)
(-0.324621 -0.0741153 0)
(-0.326534 -0.0908197 0)
(-0.328818 -0.108015 0)
(-0.331237 -0.125622 0)
(-0.333371 -0.14343 0)
(-0.33451 -0.161006 0)
(-0.333636 -0.177619 0)
(-0.329383 -0.192152 0)
(-0.320166 -0.203093 0)
(-0.304381 -0.208609 0)
(-0.280823 -0.206818 0)
(-0.249165 -0.196213 0)
(-0.210486 -0.176293 0)
(-0.167507 -0.148133 0)
(-0.124356 -0.114667 0)
(-0.0854948 -0.0801402 0)
(-0.0542364 -0.0487857 0)
(-0.0315361 -0.0231937 0)
(-0.0163624 -0.00399884 0)
(-0.00686821 0.00952686 0)
(-0.00147019 0.0183061 0)
(0.00115238 0.0232405 0)
(0.00186423 0.0247696 0)
(0.00152746 0.0230731 0)
(0.000712066 0.0176651 0)
(9.16397e-05 0.00779544 0)
(-0.000244177 -0.00664106 0)
(-0.00290658 -0.00722415 0)
(-0.00850618 -0.000441189 0)
(-0.0167351 0.0114952 0)
(-0.0280603 0.0262972 0)
(-0.0424397 0.0434177 0)
(-0.0603523 0.0621774 0)
(-0.0816324 0.0825393 0)
(-0.106122 0.103762 0)
(-0.132803 0.124908 0)
(-0.160546 0.144449 0)
(-0.187816 0.161053 0)
(-0.213441 0.173594 0)
(-0.236346 0.181558 0)
(-0.255961 0.184797 0)
(-0.271903 0.183618 0)
(-0.28424 0.178531 0)
(-0.293189 0.170267 0)
(-0.299263 0.159552 0)
(-0.302976 0.147118 0)
(-0.304942 0.13355 0)
(-0.305646 0.119335 0)
(-0.305558 0.104791 0)
(-0.304981 0.0901453 0)
(-0.304184 0.0755037 0)
(-0.303305 0.0609284 0)
(-0.302472 0.0464118 0)
(-0.301727 0.0319404 0)
(-0.301139 0.017464 0)
(-0.300726 0.00294276 0)
(-0.30055 -0.0116859 0)
(-0.300647 -0.0264721 0)
(-0.3011 -0.0414865 0)
(-0.301975 -0.0567916 0)
(-0.303377 -0.0724701 0)
(-0.305377 -0.0885981 0)
(-0.308049 -0.105259 0)
(-0.311373 -0.122505 0)
(-0.315232 -0.140334 0)
(-0.319274 -0.15861 0)
(-0.322858 -0.176977 0)
(-0.324919 -0.194718 0)
(-0.323944 -0.210641 0)
(-0.318005 -0.222994 0)
(-0.305026 -0.229532 0)
(-0.283233 -0.227794 0)
(-0.251854 -0.215704 0)
(-0.211841 -0.192402 0)
(-0.166368 -0.159185 0)
(-0.120524 -0.119893 0)
(-0.0799295 -0.0802289 0)
(-0.0484528 -0.0454846 0)
(-0.0267648 -0.0184921 0)
(-0.0130691 0.000790566 0)
(-0.00510939 0.013537 0)
(-0.000943676 0.0211157 0)
(0.000731447 0.0243044 0)
(0.00100008 0.0234831 0)
(0.000550133 0.0183094 0)
(8.12061e-05 0.00811982 0)
(-0.000627723 -0.00484916 0)
(-0.00491652 -0.00210771 0)
(-0.0127797 0.00764388 0)
(-0.0233915 0.0225503 0)
(-0.0373485 0.0405017 0)
(-0.054399 0.0609876 0)
(-0.0749884 0.083172 0)
(-0.0985504 0.106653 0)
(-0.124612 0.130189 0)
(-0.151736 0.152402 0)
(-0.178674 0.17158 0)
(-0.20388 0.18649 0)
(-0.226399 0.196296 0)
(-0.245368 0.200831 0)
(-0.260545 0.200312 0)
(-0.271854 0.19539 0)
(-0.279719 0.18687 0)
(-0.284619 0.175683 0)
(-0.287275 0.162656 0)
(-0.288281 0.148526 0)
(-0.288262 0.133813 0)
(-0.28762 0.118899 0)
(-0.286727 0.10399 0)
(-0.285751 0.0892072 0)
(-0.284848 0.0745711 0)
(-0.284041 0.0600828 0)
(-0.283378 0.0456949 0)
(-0.282828 0.0313745 0)
(-0.282413 0.0170656 0)
(-0.282112 0.0027339 0)
(-0.281962 -0.011671 0)
(-0.281978 -0.0261827 0)
(-0.282233 -0.0408526 0)
(-0.28279 -0.0557254 0)
(-0.283763 -0.0708693 0)
(-0.285256 -0.0863572 0)
(-0.287414 -0.102289 0)
(-0.290344 -0.118773 0)
(-0.294134 -0.13592 0)
(-0.298742 -0.153802 0)
(-0.303945 -0.17238 0)
(-0.309173 -0.191386 0)
(-0.3134 -0.210153 0)
(-0.315001 -0.227425 0)
(-0.311788 -0.241211 0)
(-0.301214 -0.24879 0)
(-0.280937 -0.247036 0)
(-0.249683 -0.233155 0)
(-0.208293 -0.205904 0)
(-0.160459 -0.166888 0)
(-0.11245 -0.121309 0)
(-0.0710984 -0.0766448 0)
(-0.0406091 -0.0394012 0)
(-0.0208248 -0.0119815 0)
(-0.00915144 0.0063824 0)
(-0.00288034 0.0176103 0)
(-6.88021e-05 0.0230377 0)
(0.000776081 0.0234476 0)
(0.000556122 0.0187529 0)
(0.000110803 0.00841479 0)
(-0.00108097 -0.00190902 0)
(-0.00711244 0.00501437 0)
(-0.017255 0.0180178 0)
(-0.0301532 0.0360093 0)
(-0.0465365 0.0571836 0)
(-0.0658759 0.0809661 0)
(-0.0885173 0.10625 0)
(-0.113447 0.132155 0)
(-0.139936 0.15697 0)
(-0.166265 0.179023 0)
(-0.191237 0.196626 0)
(-0.213412 0.208798 0)
(-0.23213 0.215077 0)
(-0.24681 0.215702 0)
(-0.257597 0.211291 0)
(-0.264744 0.202837 0)
(-0.268985 0.191378 0)
(-0.270963 0.17795 0)
(-0.271485 0.163372 0)
(-0.271094 0.148284 0)
(-0.270322 0.133071 0)
(-0.269424 0.117976 0)
(-0.268633 0.103076 0)
(-0.267979 0.0884006 0)
(-0.267518 0.0739016 0)
(-0.267185 0.0595434 0)
(-0.266977 0.0452619 0)
(-0.266821 0.0310232 0)
(-0.266718 0.0167799 0)
(-0.266624 0.00251283 0)
(-0.266568 -0.0118098 0)
(-0.266548 -0.0262003 0)
(-0.266628 -0.0406873 0)
(-0.266852 -0.0552913 0)
(-0.267328 -0.0700551 0)
(-0.268152 -0.0850292 0)
(-0.269479 -0.100296 0)
(-0.271458 -0.115964 0)
(-0.274274 -0.132179 0)
(-0.278063 -0.149106 0)
(-0.282899 -0.166903 0)
(-0.288651 -0.185636 0)
(-0.294862 -0.205138 0)
(-0.300538 -0.2248 0)
(-0.303997 -0.243299 0)
(-0.302804 -0.258369 0)
(-0.293984 -0.266752 0)
(-0.274639 -0.264532 0)
(-0.243025 -0.248121 0)
(-0.199952 -0.21587 0)
(-0.149847 -0.170073 0)
(-0.100405 -0.117793 0)
(-0.0596755 -0.0689016 0)
(-0.0315653 -0.0305009 0)
(-0.0145578 -0.00414506 0)
(-0.00523581 0.0122917 0)
(-0.000855398 0.0208823 0)
(0.00069064 0.0230629 0)
(0.000658852 0.0191542 0)
(0.000164743 0.00879803 0)
(-0.00158116 0.00234196 0)
(-0.00937743 0.014246 0)
(-0.0216971 0.0306827 0)
(-0.0366656 0.0517771 0)
(-0.0551232 0.0761126 0)
(-0.0762091 0.10292 0)
(-0.100135 0.130729 0)
(-0.125463 0.158145 0)
(-0.151321 0.183104 0)
(-0.175852 0.20382 0)
(-0.198041 0.218812 0)
(-0.216638 0.227454 0)
(-0.23135 0.229741 0)
(-0.241921 0.22635 0)
(-0.248896 0.218305 0)
(-0.25279 0.206866 0)
(-0.254543 0.193199 0)
(-0.254824 0.17832 0)
(-0.254401 0.162932 0)
(-0.253667 0.14751 0)
(-0.253012 0.132274 0)
(-0.252519 0.117324 0)
(-0.252301 0.102632 0)
(-0.252273 0.0881587 0)
(-0.252434 0.0738211 0)
(-0.252666 0.0595701 0)
(-0.25295 0.0453443 0)
(-0.253195 0.0311203 0)
(-0.253404 0.0168662 0)
(-0.253525 0.0025792 0)
(-0.25359 -0.0117543 0)
(-0.253585 -0.0261298 0)
(-0.253571 -0.0405563 0)
(-0.253571 -0.0550353 0)
(-0.253676 -0.0695858 0)
(-0.253954 -0.0842334 0)
(-0.254542 -0.0990302 0)
(-0.255569 -0.114057 0)
(-0.257232 -0.129439 0)
(-0.259729 -0.145356 0)
(-0.26328 -0.162032 0)
(-0.268031 -0.179717 0)
(-0.273968 -0.198584 0)
(-0.280717 -0.218578 0)
(-0.287326 -0.239124 0)
(-0.292034 -0.258797 0)
(-0.292156 -0.274975 0)
(-0.284299 -0.283731 0)
(-0.265034 -0.280244 0)
(-0.23227 -0.260032 0)
(-0.186994 -0.221286 0)
(-0.13476 -0.167485 0)
(-0.0849938 -0.108637 0)
(-0.0466825 -0.05699 0)
(-0.0223583 -0.0195898 0)
(-0.00870486 0.00427124 0)
(-0.00203663 0.0174115 0)
(0.000527506 0.0221826 0)
(0.000772338 0.0194941 0)
(0.000228152 0.00927938 0)
(-0.00207397 0.00785944 0)
(-0.0115124 0.0253893 0)
(-0.0257625 0.0453046 0)
(-0.0424576 0.0693786 0)
(-0.0625123 0.0966306 0)
(-0.0847049 0.125978 0)
(-0.109114 0.155551 0)
(-0.133951 0.183477 0)
(-0.158325 0.2075 0)
(-0.180366 0.225891 0)
(-0.19934 0.237518 0)
(-0.214247 0.242194 0)
(-0.225203 0.240416 0)
(-0.232274 0.233303 0)
(-0.236341 0.222214 0)
(-0.23807 0.208558 0)
(-0.23847 0.193495 0)
(-0.238113 0.177906 0)
(-0.237643 0.162308 0)
(-0.23726 0.146984 0)
(-0.237208 0.131994 0)
(-0.237421 0.117319 0)
(-0.237929 0.102865 0)
(-0.238578 0.0885561 0)
(-0.239342 0.0743033 0)
(-0.240085 0.0600627 0)
(-0.240793 0.0457887 0)
(-0.241374 0.0314743 0)
(-0.241841 0.0171065 0)
(-0.242144 0.00269842 0)
(-0.24232 -0.0117471 0)
(-0.242352 -0.026212 0)
(-0.242298 -0.0406902 0)
(-0.242168 -0.0551696 0)
(-0.242038 -0.0696513 0)
(-0.24195 -0.0841414 0)
(-0.242008 -0.0986641 0)
(-0.242305 -0.113268 0)
(-0.243002 -0.128037 0)
(-0.244276 -0.143115 0)
(-0.246376 -0.158707 0)
(-0.249558 -0.175113 0)
(-0.254065 -0.192667 0)
(-0.259973 -0.211676 0)
(-0.266996 -0.232183 0)
(-0.274194 -0.253638 0)
(-0.279669 -0.274424 0)
(-0.280451 -0.291417 0)
(-0.272666 -0.29984 0)
(-0.252452 -0.293764 0)
(-0.217515 -0.267891 0)
(-0.169489 -0.220592 0)
(-0.115555 -0.157786 0)
(-0.0672277 -0.0933146 0)
(-0.0334604 -0.0417339 0)
(-0.0139595 -0.00752031 0)
(-0.0040399 0.0120546 0)
(5.07542e-05 0.0205784 0)
(0.000796623 0.0197224 0)
(0.000282169 0.00987457 0)
(-0.00252357 0.0146001 0)
(-0.0133908 0.0382952 0)
(-0.029237 0.0616553 0)
(-0.0472407 0.0885036 0)
(-0.0683465 0.118315 0)
(-0.090981 0.149598 0)
(-0.115123 0.180101 0)
(-0.138737 0.207559 0)
(-0.161023 0.229706 0)
(-0.180203 0.245013 0)
(-0.195881 0.252813 0)
(-0.207343 0.253408 0)
(-0.215109 0.247816 0)
(-0.219509 0.237532 0)
(-0.221651 0.224137 0)
(-0.222218 0.209045 0)
(-0.222172 0.193295 0)
(-0.221911 0.177554 0)
(-0.221916 0.16213 0)
(-0.222206 0.147121 0)
(-0.222905 0.132463 0)
(-0.223846 0.118062 0)
(-0.225017 0.103791 0)
(-0.226235 0.0895678 0)
(-0.227478 0.0753158 0)
(-0.228608 0.0610065 0)
(-0.229629 0.0466151 0)
(-0.230454 0.0321511 0)
(-0.231111 0.0176188 0)
(-0.231552 0.00304379 0)
(-0.231822 -0.0115579 0)
(-0.231902 -0.0261596 0)
(-0.23185 -0.0407444 0)
(-0.231668 -0.0552934 0)
(-0.231424 -0.0697958 0)
(-0.231139 -0.0842479 0)
(-0.230895 -0.098654 0)
(-0.230745 -0.11304 0)
(-0.230805 -0.127449 0)
(-0.231199 -0.141979 0)
(-0.232131 -0.156776 0)
(-0.233847 -0.172097 0)
(-0.236666 -0.188286 0)
(-0.240898 -0.205804 0)
(-0.246711 -0.225066 0)
(-0.253889 -0.246234 0)
(-0.261443 -0.268712 0)
(-0.2673 -0.29057 0)
(-0.268054 -0.307963 0)
(-0.259371 -0.31495 0)
(-0.236949 -0.304377 0)
(-0.198732 -0.270196 0)
(-0.147536 -0.212083 0)
(-0.0930397 -0.139835 0)
(-0.0487029 -0.0726601 0)
(-0.0214664 -0.0244823 0)
(-0.00720522 0.00396708 0)
(-0.000911756 0.0177964 0)
(0.000664957 0.0196239 0)
(0.000316561 0.0105051 0)
(-0.00287231 0.0223192 0)
(-0.0148365 0.0525418 0)
(-0.0318537 0.0792002 0)
(-0.050689 0.108492 0)
(-0.0722762 0.140369 0)
(-0.0947292 0.172888 0)
(-0.117978 0.203479 0)
(-0.139845 0.229609 0)
(-0.159711 0.249158 0)
(-0.175958 0.260915 0)
(-0.188557 0.264752 0)
(-0.197079 0.261476 0)
(-0.202393 0.252588 0)
(-0.204997 0.239845 0)
(-0.206102 0.224915 0)
(-0.206298 0.209088 0)
(-0.206425 0.193199 0)
(-0.206676 0.177671 0)
(-0.207386 0.162618 0)
(-0.208421 0.147986 0)
(-0.209837 0.133635 0)
(-0.211406 0.11943 0)
(-0.213113 0.105245 0)
(-0.214768 0.0910076 0)
(-0.216366 0.0766641 0)
(-0.217779 0.0622041 0)
(-0.219027 0.0476243 0)
(-0.220029 0.0329483 0)
(-0.220824 0.0181966 0)
(-0.221368 0.00340439 0)
(-0.22171 -0.0114002 0)
(-0.221831 -0.026184 0)
(-0.221791 -0.0409211 0)
(-0.221587 -0.0555887 0)
(-0.221284 -0.070168 0)
(-0.220894 -0.084652 0)
(-0.220483 -0.0990327 0)
(-0.220079 -0.113326 0)
(-0.219765 -0.127545 0)
(-0.219611 -0.141754 0)
(-0.219759 -0.156035 0)
(-0.22039 -0.170577 0)
(-0.221784 -0.18565 0)
(-0.224298 -0.201706 0)
(-0.228307 -0.219291 0)
(-0.234072 -0.238987 0)
(-0.241374 -0.261012 0)
(-0.249163 -0.284662 0)
(-0.254992 -0.307477 0)
(-0.255007 -0.324533 0)
(-0.244231 -0.328429 0)
(-0.218255 -0.310521 0)
(-0.17563 -0.264787 0)
(-0.121503 -0.193595 0)
(-0.0686522 -0.113705 0)
(-0.0315808 -0.048336 0)
(-0.011762 -0.00772333 0)
(-0.00247442 0.0133193 0)
(0.000343908 0.0189787 0)
(0.000324705 0.0111105 0)
(-0.00309854 0.0307873 0)
(-0.0157865 0.0678135 0)
(-0.0335232 0.0976044 0)
(-0.0527125 0.128988 0)
(-0.0742409 0.162418 0)
(-0.0959778 0.195499 0)
(-0.117855 0.225435 0)
(-0.137658 0.24955 0)
(-0.155001 0.266011 0)
(-0.168469 0.274008 0)
(-0.178393 0.273996 0)
(-0.184593 0.267263 0)
(-0.188203 0.255706 0)
(-0.189778 0.241213 0)
(-0.190521 0.225406 0)
(-0.190864 0.209358 0)
(-0.191492 0.193668 0)
(-0.19241 0.178521 0)
(-0.193835 0.163876 0)
(-0.195535 0.149575 0)
(-0.197534 0.135443 0)
(-0.199583 0.121333 0)
(-0.201682 0.107142 0)
(-0.203646 0.0928115 0)
(-0.205495 0.0783148 0)
(-0.207107 0.0636568 0)
(-0.208519 0.0488533 0)
(-0.209651 0.0339382 0)
(-0.210554 0.0189459 0)
(-0.211179 0.0039183 0)
(-0.211584 -0.0111058 0)
(-0.211746 -0.0260893 0)
(-0.211727 -0.0409977 0)
(-0.211523 -0.0558072 0)
(-0.211199 -0.0704926 0)
(-0.210762 -0.0850485 0)
(-0.210273 -0.0994601 0)
(-0.209748 -0.113743 0)
(-0.209246 -0.127893 0)
(-0.208803 -0.141957 0)
(-0.208503 -0.155967 0)
(-0.208459 -0.170051 0)
(-0.208864 -0.184376 0)
(-0.21002 -0.199308 0)
(-0.212318 -0.215346 0)
(-0.21623 -0.233221 0)
(-0.22203 -0.253621 0)
(-0.229529 -0.276824 0)
(-0.23738 -0.301817 0)
(-0.242764 -0.325277 0)
(-0.241045 -0.340783 0)
(-0.226846 -0.33894 0)
(-0.195742 -0.309922 0)
(-0.148095 -0.248702 0)
(-0.0922729 -0.163934 0)
(-0.0449978 -0.0810484 0)
(-0.0177411 -0.0241463 0)
(-0.00476811 0.00651356 0)
(-0.000160182 0.0174658 0)
(0.000302036 0.0115898 0)
(-0.00316682 0.0396234 0)
(-0.0161472 0.0835691 0)
(-0.0341284 0.116259 0)
(-0.0532062 0.14931 0)
(-0.0741922 0.183735 0)
(-0.0947904 0.216731 0)
(-0.114981 0.245385 0)
(-0.132595 0.266996 0)
(-0.147502 0.280122 0)
(-0.15851 0.284405 0)
(-0.166267 0.280878 0)
(-0.170785 0.271247 0)
(-0.173353 0.257694 0)
(-0.174497 0.242099 0)
(-0.175335 0.225942 0)
(-0.17611 0.210028 0)
(-0.17736 0.194722 0)
(-0.178939 0.180007 0)
(-0.18099 0.165733 0)
(-0.183224 0.151681 0)
(-0.185666 0.137674 0)
(-0.188065 0.123573 0)
(-0.190447 0.1093 0)
(-0.192635 0.0948171 0)
(-0.19467 0.0801197 0)
(-0.196433 0.065225 0)
(-0.197975 0.0501652 0)
(-0.199215 0.0349816 0)
(-0.200208 0.0197214 0)
(-0.200904 0.00443217 0)
(-0.201365 -0.0108365 0)
(-0.201564 -0.0260437 0)
(-0.201566 -0.0411457 0)
(-0.201365 -0.0561183 0)
(-0.201028 -0.0709291 0)
(-0.200561 -0.0855764 0)
(-0.200025 -0.10004 0)
(-0.199433 -0.114342 0)
(-0.198834 -0.128471 0)
(-0.198247 -0.142472 0)
(-0.197722 -0.156347 0)
(-0.197315 -0.170187 0)
(-0.197135 -0.184068 0)
(-0.197389 -0.198252 0)
(-0.198383 -0.213104 0)
(-0.200607 -0.22931 0)
(-0.204544 -0.247718 0)
(-0.210572 -0.269209 0)
(-0.218279 -0.293961 0)
(-0.226062 -0.32038 0)
(-0.23027 -0.343798 0)
(-0.22567 -0.355561 0)
(-0.20629 -0.344149 0)
(-0.168786 -0.298899 0)
(-0.116263 -0.21908 0)
(-0.0621577 -0.12346 0)
(-0.0252637 -0.0469292 0)
(-0.00790121 -0.00315152 0)
(-0.000875731 0.014715 0)
(0.00026182 0.011885 0)
(-0.00308427 0.0485169 0)
(-0.015943 0.0994576 0)
(-0.0337241 0.134862 0)
(-0.0522813 0.169211 0)
(-0.072327 0.204152 0)
(-0.0914856 0.236551 0)
(-0.109815 0.263474 0)
(-0.125257 0.282299 0)
(-0.137935 0.292048 0)
(-0.146872 0.292831 0)
(-0.15297 0.286231 0)
(-0.156365 0.274279 0)
(-0.158403 0.259321 0)
(-0.159515 0.243122 0)
(-0.16069 0.22696 0)
(-0.161996 0.211358 0)
(-0.163846 0.19648 0)
(-0.165987 0.18215 0)
(-0.168525 0.168157 0)
(-0.171151 0.154253 0)
(-0.173905 0.14028 0)
(-0.176547 0.126114 0)
(-0.179125 0.111707 0)
(-0.181473 0.0970338 0)
(-0.183647 0.0821098 0)
(-0.18553 0.06696 0)
(-0.187179 0.0516304 0)
(-0.188513 0.0361673 0)
(-0.18959 0.0206297 0)
(-0.190357 0.00506899 0)
(-0.190876 -0.0104541 0)
(-0.19112 -0.0258964 0)
(-0.191155 -0.0412042 0)
(-0.190972 -0.0563537 0)
(-0.19064 -0.0713041 0)
(-0.190164 -0.0860589 0)
(-0.189609 -0.100592 0)
(-0.188984 -0.114935 0)
(-0.188343 -0.129072 0)
(-0.187694 -0.143059 0)
(-0.187072 -0.156881 0)
(-0.186502 -0.170618 0)
(-0.186031 -0.184282 0)
(-0.185779 -0.198053 0)
(-0.185934 -0.21214 0)