/*--------------------------------*- C++ -*----------------------------------*\
| =========                 |                                                 |
| \\      /  F ield         | OpenFOAM: The Open Source CFD Toolbox           |
|  \\    /   O peration     | Version:  2406                                  |
|   \\  /    A nd           | Website:  www.openfoam.com                      |
|    \\/     M anipulation  |                                                 |
\*---------------------------------------------------------------------------*/
FoamFile
{
    version     2.0;
    format      ascii;
    arch        "LSB;label=32;scalar=64";
    class       volVectorField;
    location    "6";
    object      Uold;
}
// * * * * * * * * * * * * * * * * * * * * * * * * * * * * * * * * * * * * * //

dimensions      [0 1 -1 0 0 0 0];

internalField   nonuniform List<vector> 
3600
(
(1.00246e-05 -9.56686e-06 0)
(-3.20819e-05 1.89624e-05 0)
(-0.000147517 4.0677e-05 0)
(-0.000310405 5.59614e-05 0)
(-0.000508765 6.17821e-05 0)
(-0.000717447 6.46659e-05 0)
(-0.000936634 6.44058e-05 0)
(-0.00115304 6.40438e-05 0)
(-0.00137167 6.28987e-05 0)
(-0.00158539 6.22013e-05 0)
(-0.00179904 6.12561e-05 0)
(-0.00200818 6.0616e-05 0)
(-0.00221617 5.97761e-05 0)
(-0.00241985 5.90329e-05 0)
(-0.00262119 5.80572e-05 0)
(-0.00281777 5.70233e-05 0)
(-0.0030105 5.5716e-05 0)
(-0.00319739 5.4235e-05 0)
(-0.00337859 5.2432e-05 0)
(-0.00355231 5.03579e-05 0)
(-0.00371813 4.79051e-05 0)
(-0.00387433 4.5095e-05 0)
(-0.00402006 4.18484e-05 0)
(-0.0041536 3.81728e-05 0)
(-0.00427379 3.40147e-05 0)
(-0.00437892 2.93817e-05 0)
(-0.00446765 2.42478e-05 0)
(-0.00453835 1.86343e-05 0)
(-0.00458968 1.25479e-05 0)
(-0.00462021 6.03454e-06 0)
(-0.00462879 -8.61281e-07 0)
(-0.00461437 -8.06126e-06 0)
(-0.00457623 -1.54819e-05 0)
(-0.00451391 -2.30114e-05 0)
(-0.00442729 -3.05329e-05 0)
(-0.00431666 -3.79091e-05 0)
(-0.00418268 -4.50042e-05 0)
(-0.00402648 -5.16722e-05 0)
(-0.00384951 -5.7782e-05 0)
(-0.00365373 -6.32023e-05 0)
(-0.00344127 -6.78344e-05 0)
(-0.00321476 -7.15851e-05 0)
(-0.00297674 -7.4414e-05 0)
(-0.00273027 -7.62809e-05 0)
(-0.00247791 -7.72192e-05 0)
(-0.00222285 -7.72374e-05 0)
(-0.0019673 -7.64408e-05 0)
(-0.00171437 -7.48507e-05 0)
(-0.0014657 -7.26151e-05 0)
(-0.0012244 -6.96821e-05 0)
(-0.000991709 -6.61746e-05 0)
(-0.00077137 -6.18061e-05 0)
(-0.000565114 -5.6576e-05 0)
(-0.000378576 -4.97374e-05 0)
(-0.000215534 -4.11833e-05 0)
(-8.44918e-05 -2.96342e-05 0)
(8.03527e-06 -1.56658e-05 0)
(5.451e-05 1.40462e-06 0)
(5.2243e-05 1.57219e-05 0)
(1.83768e-05 1.91512e-05 0)
(-1.90741e-05 3.22671e-05 0)
(-0.00018233 0.000178836 0)
(-0.000492138 0.000289724 0)
(-0.000893604 0.000370489 0)
(-0.00137133 0.000412216 0)
(-0.00187939 0.000435564 0)
(-0.00241407 0.000442642 0)
(-0.00295002 0.000444526 0)
(-0.00349159 0.000441358 0)
(-0.00402566 0.000437637 0)
(-0.00455792 0.000432286 0)
(-0.00508072 0.000426992 0)
(-0.00559824 0.000420618 0)
(-0.00610517 0.000413833 0)
(-0.00660373 0.000405779 0)
(-0.0070897 0.000396738 0)
(-0.0075637 0.000386098 0)
(-0.00802199 0.000373953 0)
(-0.00846395 0.000359846 0)
(-0.00888605 0.000343764 0)
(-0.0092867 0.000325353 0)
(-0.00966237 0.000304549 0)
(-0.0100108 0.000281086 0)
(-0.0103283 0.000254904 0)
(-0.0106122 0.000225839 0)
(-0.0108589 0.000193887 0)
(-0.0110655 0.000159016 0)
(-0.0112286 0.000121335 0)
(-0.0113453 8.0978e-05 0)
(-0.0114128 3.82141e-05 0)
(-0.0114288 -6.63031e-06 0)
(-0.0113914 -5.31005e-05 0)
(-0.0112992 -0.000100672 0)
(-0.0111514 -0.000148715 0)
(-0.0109481 -0.00019654 0)
(-0.0106901 -0.000243394 0)
(-0.0103788 -0.000288503 0)
(-0.010017 -0.000331085 0)
(-0.00960756 -0.000370402 0)
(-0.00915474 -0.000405768 0)
(-0.00866299 -0.000436612 0)
(-0.00813772 -0.000462467 0)
(-0.00758425 -0.000483046 0)
(-0.00700874 -0.000498174 0)
(-0.00641668 -0.000507898 0)
(-0.00581447 -0.000512312 0)
(-0.00520711 -0.000511738 0)
(-0.00460088 -0.000506343 0)
(-0.00400003 -0.000496496 0)
(-0.00341107 -0.000481988 0)
(-0.00283805 -0.000462796 0)
(-0.00228915 -0.000437597 0)
(-0.00177002 -0.000405504 0)
(-0.00129312 -0.000363385 0)
(-0.000868107 -0.000310013 0)
(-0.000512904 -0.000241293 0)
(-0.000239805 -0.000160205 0)
(-6.40568e-05 -6.77121e-05 0)
(1.44267e-05 1.27694e-05 0)
(1.45117e-05 5.17128e-05 0)
(-4.4633e-05 0.000154325 0)
(-0.000311869 0.000495584 0)
(-0.00078562 0.000751573 0)
(-0.00137507 0.000934866 0)
(-0.00206628 0.00103933 0)
(-0.00279829 0.0010985 0)
(-0.00356743 0.00112168 0)
(-0.00434058 0.0011288 0)
(-0.00512184 0.00112375 0)
(-0.0058941 0.00111472 0)
(-0.00666303 0.00110158 0)
(-0.0074188 0.00108704 0)
(-0.00816551 0.00106986 0)
(-0.00889643 0.0010508 0)
(-0.00961349 0.00102865 0)
(-0.0103113 0.00100355 0)
(-0.0109899 0.00097455 0)
(-0.0116444 0.000941516 0)
(-0.0122734 0.000903692 0)
(-0.0128723 0.000860836 0)
(-0.0134386 0.000812334 0)
(-0.0139674 0.000757925 0)
(-0.0144556 0.000697148 0)
(-0.0148983 0.000629816 0)
(-0.0152918 0.00055568 0)
(-0.0156312 0.000474735 0)
(-0.0159128 0.000387018 0)
(-0.0161322 0.000292813 0)
(-0.0162858 0.000192527 0)
(-0.0163699 8.68216e-05 0)
(-0.0163819 -2.34705e-05 0)
(-0.0163193 -0.000137271 0)
(-0.0161807 -0.00025332 0)
(-0.0159655 -0.000370159 0)
(-0.015674 -0.000486187 0)
(-0.0153074 -0.00059969 0)
(-0.0148682 -0.000708908 0)
(-0.0143599 -0.000812094 0)
(-0.0137869 -0.000907584 0)
(-0.0131546 -0.000993871 0)
(-0.0124691 -0.00106967 0)
(-0.0117375 -0.00113398 0)
(-0.0109668 -0.00118612 0)
(-0.0101651 -0.00122576 0)
(-0.00933958 -0.00125292 0)
(-0.00849846 -0.00126784 0)
(-0.00764845 -0.00127106 0)
(-0.00679763 -0.001263 0)
(-0.00595189 -0.00124411 0)
(-0.00511971 -0.00121396 0)
(-0.00430691 -0.00117185 0)
(-0.00352439 -0.00111496 0)
(-0.00278015 -0.00104035 0)
(-0.00209082 -0.000941735 0)
(-0.00146902 -0.000815293 0)
(-0.000938739 -0.000654331 0)
(-0.000514186 -0.000464151 0)
(-0.000218071 -0.000251434 0)
(-4.76741e-05 -5.85514e-05 0)
(3.35122e-06 5.8407e-05 0)
(-6.54137e-05 0.000337066 0)
(-0.000420105 0.000927525 0)
(-0.00102736 0.00135612 0)
(-0.00176294 0.00165453 0)
(-0.00261559 0.00183093 0)
(-0.00351276 0.00193163 0)
(-0.00445377 0.00197516 0)
(-0.0053998 0.00198955 0)
(-0.00635607 0.00198325 0)
(-0.00730214 0.00196804 0)
(-0.00824397 0.0019452 0)
(-0.00916973 0.00191854 0)
(-0.0100835 0.00188688 0)
(-0.0109771 0.00185113 0)
(-0.0118524 0.0018098 0)
(-0.0127028 0.00176286 0)
(-0.0135281 0.001709 0)
(-0.0143223 0.00164787 0)
(-0.0150837 0.00157838 0)
(-0.0158065 0.00150005 0)
(-0.0164877 0.00141199 0)
(-0.0171217 0.00131373 0)
(-0.0177044 0.00120464 0)
(-0.0182304 0.00108443 0)
(-0.0186951 0.000952795 0)
(-0.0190931 0.000809787 0)
(-0.0194199 0.000655586 0)
(-0.0196707 0.000490736 0)
(-0.0198414 0.000316024 0)
(-0.019928 0.000132621 0)
(-0.0199277 -5.80018e-05 0)
(-0.0198379 -0.000254001 0)
(-0.0196574 -0.000453234 0)
(-0.0193857 -0.000653259 0)
(-0.0190235 -0.000851414 0)
(-0.0185727 -0.00104488 0)
(-0.0180363 -0.00123078 0)
(-0.0174188 -0.00140626 0)
(-0.0167254 -0.00156865 0)
(-0.0159628 -0.00171552 0)
(-0.0151381 -0.00184483 0)
(-0.0142597 -0.00195498 0)
(-0.0133359 -0.00204492 0)
(-0.0123759 -0.00211414 0)
(-0.0113883 -0.00216265 0)
(-0.0103823 -0.0021909 0)
(-0.00936596 -0.00219965 0)
(-0.00834839 -0.00218956 0)
(-0.00733651 -0.00216114 0)
(-0.00634008 -0.00211369 0)
(-0.00536586 -0.00204563 0)
(-0.0044264 -0.00195256 0)
(-0.00353063 -0.00182914 0)
(-0.00269754 -0.00166601 0)
(-0.00194031 -0.00145631 0)
(-0.00128639 -0.00119147 0)
(-0.000749243 -0.000877982 0)
(-0.000357713 -0.000529087 0)
(-0.000107237 -0.000200115 0)
(-7.83225e-06 2.98143e-05 0)
(-7.77496e-05 0.000572128 0)
(-0.000494953 0.00146613 0)
(-0.00120333 0.00209732 0)
(-0.00205066 0.00252584 0)
(-0.00302633 0.00278352 0)
(-0.00404714 0.00293053 0)
(-0.00511545 0.00299746 0)
(-0.00618788 0.00302008 0)
(-0.00727153 0.00301248 0)
(-0.00834338 0.00298977 0)
(-0.00941018 0.00295517 0)
(-0.0104584 0.00291345 0)
(-0.0114925 0.00286377 0)
(-0.012503 0.00280707 0)
(-0.0134918 0.00274168 0)
(-0.0144513 0.00266732 0)
(-0.0153811 0.0025824 0)
(-0.0162745 0.00248624 0)
(-0.0171293 0.00237744 0)
(-0.0179393 0.00225524 0)
(-0.0187007 0.00211849 0)
(-0.0194075 0.00196649 0)
(-0.020055 0.00179845 0)
(-0.0206372 0.00161397 0)
(-0.0211491 0.00141276 0)
(-0.0215849 0.00119495 0)
(-0.0219395 0.00096093 0)
(-0.0222077 0.000711586 0)
(-0.0223853 0.000448178 0)
(-0.022468 0.0001725 0)
(-0.0224527 -0.000113209 0)
(-0.0223371 -0.000406199 0)
(-0.0221198 -0.000703288 0)
(-0.0218005 -0.00100089 0)
(-0.0213804 -0.00129511 0)
(-0.0208619 -0.00158186 0)
(-0.0202485 -0.00185695 0)
(-0.0195454 -0.00211633 0)
(-0.0187587 -0.00235611 0)
(-0.0178961 -0.00257287 0)
(-0.0169656 -0.00276367 0)
(-0.0159769 -0.00292633 0)
(-0.0149392 -0.00305933 0)
(-0.0138629 -0.00316203 0)
(-0.0127577 -0.00323447 0)
(-0.0116339 -0.00327737 0)
(-0.0105002 -0.00329175 0)
(-0.00936694 -0.00327865 0)
(-0.00824149 -0.00323859 0)
(-0.00713444 -0.00317069 0)
(-0.00605295 -0.00307234 0)
(-0.00501041 -0.00293765 0)
(-0.00401582 -0.00275844 0)
(-0.0030894 -0.00252248 0)
(-0.00224393 -0.00221919 0)
(-0.0015091 -0.00183863 0)
(-0.000897482 -0.00138713 0)
(-0.000443123 -0.000885046 0)
(-0.000140902 -0.000396643 0)
(-1.29914e-05 -2.2926e-05 0)
(-8.66328e-05 0.000835903 0)
(-0.00055044 0.00206985 0)
(-0.00133373 0.00292159 0)
(-0.00226418 0.00348689 0)
(-0.00333074 0.00382799 0)
(-0.00444184 0.0040214 0)
(-0.00560247 0.00411159 0)
(-0.00676572 0.00414195 0)
(-0.00794071 0.0041325 0)
(-0.0091024 0.00410134 0)
(-0.0102586 0.00405371 0)
(-0.0113943 0.00399518 0)
(-0.0125144 0.00392532 0)
(-0.0136085 0.00384506 0)
(-0.0146784 0.00375258 0)
(-0.015716 0.00364738 0)
(-0.0167206 0.00352754 0)
(-0.0176851 0.0033921 0)
(-0.0186068 0.00323935 0)
(-0.019479 0.00306823 0)
(-0.0202978 0.00287732 0)
(-0.0210565 0.00266575 0)
(-0.0217502 0.00243253 0)
(-0.0223723 0.00217722 0)
(-0.0229175 0.00189951 0)
(-0.0233794 0.00159968 0)
(-0.0237529 0.00127836 0)
(-0.0240322 0.000936816 0)
(-0.0242127 0.000576843 0)
(-0.0242901 0.000200918 0)
(-0.0242611 -0.000187881 0)
(-0.0241231 -0.000585813 0)
(-0.0238748 -0.000988569 0)
(-0.023516 -0.00139132 0)
(-0.0230481 -0.00178884 0)
(-0.0224737 -0.00217564 0)
(-0.021797 -0.00254615 0)
(-0.0210238 -0.00289495 0)
(-0.0201609 -0.0032169 0)
(-0.019217 -0.00350746 0)
(-0.0182012 -0.00376277 0)
(-0.017124 -0.00397998 0)
(-0.0159962 -0.00415713 0)
(-0.0148291 -0.00429348 0)
(-0.0136335 -0.00438911 0)
(-0.012421 -0.00444514 0)
(-0.0112011 -0.00446294 0)
(-0.00998489 -0.00444408 0)
(-0.00878045 -0.00438918 0)
(-0.00759887 -0.00429739 0)
(-0.00644749 -0.00416515 0)
(-0.00534002 -0.00398527 0)
(-0.00428517 -0.00374677 0)
(-0.0033035 -0.00343483 0)
(-0.00240705 -0.00303483 0)
(-0.00162644 -0.00253553 0)
(-0.000973435 -0.0019418 0)
(-0.000485015 -0.00128026 0)
(-0.000156093 -0.0006211 0)
(-1.47557e-05 -8.64387e-05 0)
(-9.16612e-05 0.00112631 0)
(-0.000587034 0.00273206 0)
(-0.00142351 0.00382189 0)
(-0.00241454 0.00453285 0)
(-0.00354808 0.00496139 0)
(-0.00472571 0.00520256 0)
(-0.00595412 0.00531636 0)
(-0.00718354 0.0053541 0)
(-0.00842485 0.00534225 0)
(-0.0096515 0.0053017 0)
(-0.0108723 0.00523991 0)
(-0.0120714 0.00516307 0)
(-0.0132541 0.00507127 0)
(-0.0144092 0.00496531 0)
(-0.0155388 0.00484331 0)
(-0.0166342 0.00470443 0)
(-0.0176947 0.0045465 0)
(-0.0187125 0.00436821 0)
(-0.0196852 0.00416753 0)
(-0.0206054 0.00394311 0)
(-0.0214689 0.00369324 0)
(-0.0222687 0.00341682 0)
(-0.0229997 0.0031127 0)
(-0.0236546 0.00278035 0)
(-0.024228 0.00241949 0)
(-0.024713 0.00203049 0)
(-0.0251039 0.00161427 0)
(-0.0253947 0.00117249 0)
(-0.0255803 0.000707501 0)
(-0.0256559 0.000222527 0)
(-0.0256179 -0.000278447 0)
(-0.0254634 -0.000790608 0)
(-0.0251909 -0.0013084 0)
(-0.0248001 -0.00182563 0)
(-0.0242924 -0.00233557 0)
(-0.0236707 -0.00283118 0)
(-0.0229394 -0.0033053 0)
(-0.0221048 -0.00375098 0)
(-0.0211748 -0.0041616 0)
(-0.0201588 -0.00453138 0)
(-0.0190671 -0.00485536 0)
(-0.0179115 -0.00512994 0)
(-0.0167041 -0.00535265 0)
(-0.0154578 -0.00552266 0)
(-0.0141846 -0.00564017 0)
(-0.0128973 -0.00570679 0)
(-0.0116067 -0.00572439 0)
(-0.0103247 -0.00569527 0)
(-0.00906008 -0.00562034 0)
(-0.00782435 -0.00549903 0)
(-0.00662499 -0.0053269 0)
(-0.0054757 -0.00509577 0)
(-0.00438487 -0.0047918 0)
(-0.00337286 -0.00439773 0)
(-0.0024512 -0.00389464 0)
(-0.00165059 -0.00326999 0)
(-0.000982512 -0.00252661 0)
(-0.000484801 -0.00169717 0)
(-0.000152304 -0.000857703 0)
(-1.2853e-05 -0.000152468 0)
(-9.54642e-05 0.00142874 0)
(-0.000613823 0.00342598 0)
(-0.00148847 0.00476477 0)
(-0.00252355 0.00562634 0)
(-0.0037059 0.00614354 0)
(-0.00493216 0.00643215 0)
(-0.00621015 0.00656872 0)
(-0.00748795 0.00661304 0)
(-0.00877789 0.00659812 0)
(-0.0100523 0.00654764 0)
(-0.011321 0.00647119 0)
(-0.0125675 0.0063755 0)
(-0.0137973 0.00626112 0)
(-0.0149991 0.0061287 0)
(-0.0161749 0.00597626 0)
(-0.0173157 0.00580261 0)
(-0.0184209 0.00560533 0)
(-0.0194824 0.00538271 0)
(-0.0204975 0.00513244 0)
(-0.0214586 0.00485279 0)
(-0.0223614 0.00454179 0)
(-0.0231984 0.00419805 0)
(-0.0239641 0.00382027 0)
(-0.024651 0.00340776 0)
(-0.0252531 0.00296023 0)
(-0.025763 0.00247818 0)
(-0.0261746 0.00196272 0)
(-0.0264811 0.00141592 0)
(-0.026677 0.0008407 0)
(-0.0267569 0.000241012 0)
(-0.0267164 -0.000378212 0)
(-0.0265522 -0.00101103 0)
(-0.0262624 -0.00165055 0)
(-0.0258462 -0.00228909 0)
(-0.0253048 -0.00291828 0)
(-0.0246412 -0.00352935 0)
(-0.0238601 -0.00411334 0)
(-0.0229682 -0.00466153 0)
(-0.0219743 -0.00516564 0)
(-0.0208886 -0.0056184 0)
(-0.0197232 -0.00601358 0)
(-0.018491 -0.00634669 0)
(-0.0172061 -0.00661468 0)
(-0.0158828 -0.00681663 0)
(-0.0145352 -0.0069529 0)
(-0.0131775 -0.00702577 0)
(-0.0118219 -0.00703778 0)
(-0.0104815 -0.00699228 0)
(-0.00916598 -0.0068907 0)
(-0.00788712 -0.00673312 0)
(-0.00665271 -0.00651447 0)
(-0.00547614 -0.00622587 0)
(-0.00436557 -0.00585075 0)
(-0.00334063 -0.0053696 0)
(-0.0024125 -0.00475908 0)
(-0.00161099 -0.00400524 0)
(-0.000947464 -0.00310863 0)
(-0.000458368 -0.00210779 0)
(-0.000138137 -0.00108568 0)
(-9.58625e-06 -0.00021111 0)
(-9.76889e-05 0.00174468 0)
(-0.000631896 0.00415035 0)
(-0.00153386 0.00574794 0)
(-0.00260122 0.00676583 0)
(-0.00381993 0.00737426 0)
(-0.00508285 0.00771136 0)
(-0.00639854 0.00787093 0)
(-0.00771336 0.00792177 0)
(-0.00904079 0.0079037 0)
(-0.0103523 0.0078432 0)
(-0.0116587 0.00775204 0)
(-0.0129429 0.00763745 0)
(-0.014211 0.00750042 0)
(-0.0154513 0.00734138 0)
(-0.0166662 0.00715826 0)
(-0.0178464 0.00694947 0)
(-0.0189912 0.0067123 0)
(-0.0200925 0.00644464 0)
(-0.0211475 0.00614381 0)
(-0.0221483 0.0058077 0)
(-0.0230903 0.00543401 0)
(-0.0239658 0.00502103 0)
(-0.0247689 0.00456719 0)
(-0.0254916 0.00407164 0)
(-0.0261274 0.00353401 0)
(-0.0266682 0.0029548 0)
(-0.0271072 0.00233533 0)
(-0.027437 0.00167799 0)
(-0.027651 0.000986245 0)
(-0.027743 0.000264777 0)
(-0.0277079 -0.000480511 0)
(-0.0275414 -0.00124247 0)
(-0.0272408 -0.0020128 0)
(-0.0268048 -0.00278213 0)
(-0.026234 -0.00354025 0)
(-0.0255313 -0.00427639 0)
(-0.0247016 -0.0049795 0)
(-0.023752 -0.00563878 0)
(-0.022692 -0.00624391 0)
(-0.0215334 -0.00678581 0)
(-0.0202895 -0.0072567 0)
(-0.0189755 -0.00765099 0)
(-0.0176072 -0.00796488 0)
(-0.0162015 -0.00819733 0)
(-0.0147745 -0.00834892 0)
(-0.0133425 -0.0084228 0)
(-0.0119196 -0.00842244 0)
(-0.0105203 -0.0083526 0)
(-0.00915525 -0.00821558 0)
(-0.00783681 -0.00801252 0)
(-0.00657307 -0.00773804 0)
(-0.0053769 -0.0073829 0)
(-0.00425631 -0.00692793 0)
(-0.00322975 -0.00635151 0)
(-0.0023082 -0.00562592 0)
(-0.00151977 -0.00473586 0)
(-0.00087582 -0.00367999 0)
(-0.000409574 -0.00250332 0)
(-0.000114422 -0.00129792 0)
(-4.79021e-06 -0.000260051 0)
(-9.96413e-05 0.00206607 0)
(-0.00064613 0.00489057 0)
(-0.00156874 0.00675333 0)
(-0.00266075 0.00793112 0)
(-0.00390737 0.0086321 0)
(-0.0051988 0.0090181 0)
(-0.00654411 0.00920059 0)
(-0.00788848 0.00925795 0)
(-0.00924627 0.00923686 0)
(-0.0105884 0.00916672 0)
(-0.0119265 0.00906144 0)
(-0.013243 0.00892867 0)
(-0.0145448 0.00876984 0)
(-0.0158198 0.0085851 0)
(-0.0170708 0.00837225 0)
(-0.0182882 0.00812927 0)
(-0.0194717 0.00785313 0)
(-0.0206128 0.00754125 0)
(-0.0217087 0.00719058 0)
(-0.0227513 0.00679853 0)
(-0.0237359 0.00636242 0)
(-0.0246542 0.00588013 0)
(-0.0255001 0.00534978 0)
(-0.026265 0.0047702 0)
(-0.0269417 0.00414087 0)
(-0.0275214 0.00346221 0)
(-0.0279964 0.00273561 0)
(-0.0283582 0.00196373 0)
(-0.0285993 0.00115049 0)
(-0.0287122 0.000301273 0)
(-0.0286905 -0.000577055 0)
(-0.0285289 -0.00147611 0)
(-0.0282234 -0.00238602 0)
(-0.0277719 -0.00329562 0)
(-0.0271744 -0.00419259 0)
(-0.0264332 -0.00506387 0)
(-0.0255531 -0.00589592 0)
(-0.0245418 -0.00667546 0)
(-0.0234099 -0.00738968 0)
(-0.0221703 -0.00802731 0)
(-0.0208384 -0.00857858 0)
(-0.0194318 -0.00903651 0)
(-0.0179691 -0.00939633 0)
(-0.0164698 -0.00965687 0)
(-0.0149531 -0.00981897 0)
(-0.0134377 -0.00988692 0)
(-0.0119404 -0.00986543 0)
(-0.0104771 -0.00976119 0)
(-0.00906017 -0.00957783 0)
(-0.00770224 -0.00931814 0)
(-0.00641192 -0.00897684 0)
(-0.00520122 -0.00854476 0)
(-0.00407798 -0.0080004 0)
(-0.00305886 -0.0073202 0)
(-0.00215463 -0.00647219 0)
(-0.00139073 -0.00543986 0)
(-0.000778349 -0.00422051 0)
(-0.000345847 -0.00286654 0)
(-8.50564e-05 -0.00148154 0)
(5.51821e-07 -0.000293244 0)
(-0.000100977 0.00239521 0)
(-0.000656919 0.00564815 0)
(-0.00159589 0.00778192 0)
(-0.00270764 0.00912341 0)
(-0.00397698 0.00991901 0)
(-0.00529203 0.0103552 0)
(-0.00666233 0.0105615 0)
(-0.0080321 0.0106261 0)
(-0.00941649 0.0106028 0)
(-0.0107861 0.010524 0)
(-0.012153 0.0104057 0)
(-0.0134998 0.0102561 0)
(-0.0148337 0.0100769 0)
(-0.0161426 0.00986801 0)
(-0.0174296 0.00962704 0)
(-0.0186851 0.00935149 0)
(-0.0199089 0.00903799 0)
(-0.0210924 0.00868343 0)
(-0.0222328 0.00828428 0)
(-0.0233218 0.00783745 0)
(-0.0243546 0.00733975 0)
(-0.0253224 0.00678856 0)
(-0.0262187 0.00618154 0)
(-0.0270341 0.00551713 0)
(-0.0277609 0.00479448 0)
(-0.0283891 0.00401379 0)
(-0.0289102 0.00317642 0)
(-0.0293141 0.00228514 0)
(-0.0295923 0.00134423 0)
(-0.0297354 0.000359701 0)
(-0.0297359 -0.000660624 0)
(-0.0295865 -0.00170707 0)
(-0.029282 -0.00276812 0)
(-0.0288187 -0.00383056 0)
(-0.0281958 -0.00487967 0)
(-0.0274147 -0.00589969 0)
(-0.0264802 -0.00687412 0)
(-0.0254003 -0.00778664 0)
(-0.0241865 -0.00862136 0)
(-0.0228536 -0.0093642 0)
(-0.0214195 -0.0100029 0)
(-0.0199045 -0.0105286 0)
(-0.0183308 -0.0109353 0)
(-0.0167214 -0.0112215 0)
(-0.0150993 -0.0113885 0)
(-0.0134866 -0.0114421 0)
(-0.0119032 -0.0113885 0)
(-0.0103671 -0.0112371 0)
(-0.00889255 -0.0109935 0)
(-0.0074926 -0.0106628 0)
(-0.00617636 -0.0102405 0)
(-0.00495455 -0.00971791 0)
(-0.0038347 -0.00907158 0)
(-0.00283097 -0.00827631 0)
(-0.00195376 -0.00729601 0)
(-0.0012249 -0.00611337 0)
(-0.000655201 -0.00472507 0)
(-0.000266729 -0.0031923 0)
(-4.91987e-05 -0.00163289 0)
(6.88599e-06 -0.00031007 0)
(-0.000102375 0.00272795 0)
(-0.000666661 0.006416 0)
(-0.00161968 0.0088251 0)
(-0.0027484 0.010333 0)
(-0.00403735 0.0112248 0)
(-0.00537309 0.0117122 0)
(-0.0067656 0.011943 0)
(-0.00815845 0.0120159 0)
(-0.00956747 0.0119914 0)
(-0.010963 0.0119054 0)
(-0.0123579 0.0117758 0)
(-0.0137346 0.0116112 0)
(-0.0151008 0.0114138 0)
(-0.0164445 0.0111831 0)
(-0.0177691 0.0109165 0)
(-0.019065 0.010611 0)
(-0.0203323 0.0102629 0)
(-0.0215622 0.0098683 0)
(-0.0227522 0.0094233 0)
(-0.0238936 0.00892411 0)
(-0.0249813 0.00836698 0)
(-0.0260063 0.00774862 0)
(-0.0269615 0.00706613 0)
(-0.0278369 0.00631735 0)
(-0.0286237 0.00550095 0)
(-0.0293112 0.00461674 0)
(-0.0298891 0.00366583 0)
(-0.0303463 0.00265093 0)
(-0.0306722 0.00157656 0)
(-0.0308559 0.000449221 0)
(-0.0308875 -0.000722368 0)
(-0.0307581 -0.00192723 0)
(-0.0304604 -0.00315208 0)
(-0.0299889 -0.00438144 0)
(-0.0293413 -0.00559785 0)
(-0.0285178 -0.00678237 0)
(-0.027523 -0.00791495 0)
(-0.0263651 -0.00897552 0)
(-0.0250567 -0.00994435 0)
(-0.0236146 -0.0108038 0)
(-0.0220597 -0.0115383 0)
(-0.020416 -0.0121366 0)
(-0.0187099 -0.012591 0)
(-0.0169693 -0.0128997 0)
(-0.0152218 -0.0130642 0)
(-0.0134939 -0.0130924 0)
(-0.0118097 -0.0129927 0)
(-0.0101895 -0.012778 0)
(-0.00865029 -0.0124568 0)
(-0.00720518 -0.0120375 0)
(-0.00586378 -0.011517 0)
(-0.00463492 -0.010888 0)
(-0.00352541 -0.0101255 0)
(-0.00254604 -0.00920285 0)
(-0.0017064 -0.00808012 0)
(-0.00102364 -0.00673961 0)
(-0.000507901 -0.00517811 0)
(-0.000173538 -0.00346724 0)
(-7.77786e-06 -0.00174182 0)
(1.38948e-05 -0.000305596 0)
(-0.000103513 0.0030661 0)
(-0.000675159 0.00719593 0)
(-0.00164088 0.00988457 0)
(-0.00278499 0.0115618 0)
(-0.00409189 0.0125516 0)
(-0.00544685 0.0130919 0)
(-0.00686032 0.0133486 0)
(-0.00827536 0.0134312 0)
(-0.00970847 0.0134073 0)
(-0.0111299 0.013316 0)
(-0.0125531 0.0131772 0)
(-0.0139604 0.0130002 0)
(-0.0153604 0.0127873 0)
(-0.0167408 0.0125378 0)
(-0.0181057 0.0122487 0)
(-0.0194454 0.0119166 0)
(-0.0207603 0.0115371 0)
(-0.0220417 0.011106 0)
(-0.023287 0.0106184 0)
(-0.0244874 0.01007 0)
(-0.0256378 0.00945618 0)
(-0.0267287 0.00877299 0)
(-0.0277524 0.00801669 0)
(-0.0286982 0.00718437 0)
(-0.0295563 0.00627398 0)
(-0.0303146 0.00528471 0)
(-0.0309617 0.00421719 0)
(-0.0314843 0.00307387 0)
(-0.0318701 0.00185923 0)
(-0.0321058 0.000580158 0)
(-0.0321793 -0.000753874 0)
(-0.0320788 -0.0021306 0)
(-0.0317947 -0.00353486 0)
(-0.0313191 -0.00494869 0)
(-0.0306475 -0.00635149 0)
(-0.0297787 -0.00772058 0)
(-0.0287165 -0.00903159 0)
(-0.0274691 -0.0102598 0)
(-0.0260503 -0.0113807 0)
(-0.0244792 -0.0123719 0)
(-0.0227804 -0.0132136 0)
(-0.0209822 -0.0138914 0)
(-0.019117 -0.0143953 0)
(-0.0172182 -0.0147226 0)
(-0.0153202 -0.0148757 0)
(-0.0134547 -0.0148646 0)
(-0.011651 -0.0147011 0)
(-0.00993311 -0.0144027 0)
(-0.00832052 -0.0139817 0)
(-0.00682665 -0.0134515 0)
(-0.00546132 -0.0128114 0)
(-0.00423058 -0.0120564 0)
(-0.00313993 -0.0111602 0)
(-0.00219556 -0.0100955 0)
(-0.00140572 -0.0088184 0)
(-0.000781681 -0.00731143 0)
(-0.000332564 -0.00557223 0)
(-6.36507e-05 -0.00368473 0)
(4.06808e-05 -0.00180365 0)
(2.2017e-05 -0.000278473 0)
(-0.000104769 0.00340782 0)
(-0.000683511 0.00798502 0)
(-0.00166125 0.0109569 0)
(-0.00281992 0.0128059 0)
(-0.00414386 0.0138955 0)
(-0.00551726 0.0144901 0)
(-0.00695107 0.0147741 0)
(-0.00838798 0.0148681 0)
(-0.00984516 0.0148467 0)
(-0.0112928 0.0147523 0)
(-0.0127451 0.0146071 0)
(-0.0141844 0.0144205 0)
(-0.0156199 0.0141955 0)
(-0.0170395 0.0139307 0)
(-0.0184476 0.013623 0)
(-0.0198348 0.0132683 0)
(-0.0212018 0.0128618 0)
(-0.02254 0.0123984 0)
(-0.0238468 0.0118726 0)
(-0.0251136 0.0112791 0)
(-0.0263348 0.0106127 0)
(-0.0275007 0.00986816 0)
(-0.028603 0.00904094 0)
(-0.0296303 0.00812707 0)
(-0.0305717 0.00712356 0)
(-0.0314138 0.00602866 0)
(-0.0321434 0.00484225 0)
(-0.0327454 0.00356618 0)
(-0.0332048 0.00220465 0)
(-0.0335059 0.000764619 0)
(-0.0336335 -0.000743828 0)
(-0.0335727 -0.00230724 0)
(-0.0333107 -0.00390854 0)
(-0.0328364 -0.00552708 0)
(-0.0321426 -0.00713866 0)
(-0.0312259 -0.00871621 0)
(-0.0300886 -0.0102302 0)
(-0.0287385 -0.01165 0)
(-0.0271908 -0.0129451 0)
(-0.0254671 -0.0140871 0)
(-0.0235963 -0.0150506 0)
(-0.0216124 -0.0158166 0)
(-0.0195551 -0.016372 0)
(-0.0174652 -0.0167132 0)
(-0.0153856 -0.016843 0)
(-0.013355 -0.0167749 0)
(-0.0114097 -0.0165247 0)
(-0.0095779 -0.0161163 0)
(-0.00788255 -0.0155678 0)
(-0.00633696 -0.0148991 0)
(-0.00495069 -0.0141132 0)
(-0.00372585 -0.0132089 0)
(-0.00266558 -0.0121591 0)
(-0.00176995 -0.0109363 0)
(-0.00104499 -0.00949269 0)
(-0.000494641 -0.00781128 0)
(-0.000126707 -0.00589126 0)
(6.4078e-05 -0.00383084 0)
(9.6364e-05 -0.00180784 0)
(3.11589e-05 -0.0002236 0)
(-0.000105835 0.00375375 0)
(-0.000691177 0.00878391 0)
(-0.00168045 0.0120426 0)
(-0.00285312 0.014066 0)
(-0.00419363 0.0152573 0)
(-0.00558512 0.015908 0)
(-0.00703909 0.0162213 0)
(-0.00849796 0.0163287 0)
(-0.00997959 0.0163122 0)
(-0.0114542 0.0162175 0)
(-0.0129366 0.0160689 0)
(-0.0144095 0.0158764 0)
(-0.0158824 0.0156429 0)
(-0.0173437 0.0153671 0)
(-0.0187982 0.0150454 0)
(-0.0202368 0.0146729 0)
(-0.0216605 0.0142444 0)
(-0.0230609 0.0137538 0)
(-0.0244357 0.0131951 0)
(-0.0257762 0.0125618 0)
(-0.0270768 0.0118475 0)
(-0.0283274 0.0110461 0)
(-0.0295193 0.0101517 0)
(-0.0306402 0.00915915 0)
(-0.0316781 0.00806408 0)
(-0.0326183 0.00686354 0)
(-0.0334457 0.00555625 0)
(-0.0341428 0.00414309 0)
(-0.0346921 0.00262758 0)
(-0.0350745 0.00101643 0)
(-0.0352714 -0.000679995 0)
(-0.035264 -0.00244725 0)
(-0.0350354 -0.00426637 0)
(-0.0345705 -0.00611383 0)
(-0.0338582 -0.00796142 0)
(-0.0328918 -0.00977693 0)
(-0.0316716 -0.0115245 0)
(-0.0302045 -0.0131664 0)
(-0.0285067 -0.0146643 0)
(-0.0266025 -0.0159818 0)
(-0.024526 -0.0170862 0)
(-0.0223185 -0.0179524 0)
(-0.0200284 -0.0185628 0)
(-0.0177067 -0.0189122 0)
(-0.0154069 -0.0190042 0)
(-0.0131772 -0.0188562 0)
(-0.011063 -0.0184901 0)
(-0.0090978 -0.0179382 0)
(-0.00730892 -0.0172267 0)
(-0.00570913 -0.0163845 0)
(-0.004307 -0.0154205 0)
(-0.00309899 -0.0143387 0)
(-0.00208437 -0.013112 0)
(-0.00125503 -0.011713 0)
(-0.000613574 -0.0100898 0)
(-0.000155002 -0.00822611 0)
(0.000114629 -0.00612305 0)
(0.000212577 -0.00389527 0)
(0.00016062 -0.0017471 0)
(4.16347e-05 -0.000138345 0)
(-0.000106969 0.00410352 0)
(-0.000698667 0.00959202 0)
(-0.00169896 0.0131412 0)
(-0.00288513 0.0153414 0)
(-0.0042417 0.0166364 0)
(-0.00565092 0.017345 0)
(-0.00712482 0.0176894 0)
(-0.00860566 0.0178126 0)
(-0.010112 0.0178035 0)
(-0.0116141 0.0177115 0)
(-0.0131275 0.0175628 0)
(-0.0146352 0.0173681 0)
(-0.0161474 0.0171306 0)
(-0.0176527 0.0168485 0)
(-0.0191565 0.0165178 0)
(-0.0206501 0.0161331 0)
(-0.022135 0.0156884 0)
(-0.0236031 0.0151769 0)
(-0.0250523 0.0145914 0)
(-0.026474 0.0139245 0)
(-0.0278627 0.0131686 0)
(-0.0292081 0.0123162 0)
(-0.0305011 0.0113599 0)
(-0.0317286 0.0102929 0)
(-0.0328777 0.00910934 0)
(-0.0339319 0.00780453 0)
(-0.0348742 0.00637559 0)
(-0.0356847 0.00482193 0)
(-0.0363429 0.0031459 0)
(-0.0368259 0.00135343 0)
(-0.0371108 -0.000545292 0)
(-0.0371743 -0.00253514 0)
(-0.0369941 -0.00459546 0)
(-0.0365501 -0.00669977 0)
(-0.035826 -0.00881546 0)
(-0.0348108 -0.0109043 0)
(-0.0335013 -0.0129229 0)
(-0.0319026 -0.0148247 0)
(-0.0300317 -0.0165612 0)
(-0.0279157 -0.0180859 0)
(-0.025595 -0.0193562 0)
(-0.023119 -0.0203385 0)
(-0.0205478 -0.021009 0)
(-0.0179446 -0.02136 0)
(-0.0153769 -0.0213958 0)
(-0.0129057 -0.0211389 0)
(-0.0105881 -0.0206193 0)
(-0.0084651 -0.0198808 0)
(-0.00656948 -0.0189612 0)
(-0.00491313 -0.0179017 0)
(-0.00350255 -0.0167197 0)
(-0.00232619 -0.0154268 0)
(-0.00137721 -0.0139965 0)
(-0.00063655 -0.012402 0)
(-0.000101642 -0.0105864 0)
(0.000243473 -0.00853409 0)
(0.000394918 -0.00624816 0)
(0.00038343 -0.00386169 0)
(0.000233797 -0.0016094 0)
(5.33891e-05 -1.71911e-05 0)
(-0.000107846 0.00445636 0)
(-0.000705244 0.010408 0)
(-0.0017159 0.0142511 0)
(-0.00291492 0.0166307 0)
(-0.004287 0.0180314 0)
(-0.00571351 0.0188 0)
(-0.00720708 0.0191778 0)
(-0.00870981 0.0193192 0)
(-0.0102409 0.0193205 0)
(-0.011771 0.0192345 0)
(-0.0133161 0.0190897 0)
(-0.0148597 0.0188973 0)
(-0.0164126 0.0186606 0)
(-0.0179639 0.0183775 0)
(-0.0195197 0.0180438 0)
(-0.0210717 0.0176533 0)
(-0.0226219 0.0171992 0)
(-0.0241627 0.0166739 0)
(-0.0256926 0.0160691 0)
(-0.027203 0.0153762 0)
(-0.0286889 0.0145862 0)
(-0.0301396 0.01369 0)
(-0.0315458 0.0126785 0)
(-0.0328939 0.011543 0)
(-0.0341699 0.0102755 0)
(-0.0353559 0.00886925 0)
(-0.0364328 0.00731918 0)
(-0.0373781 0.00562263 0)
(-0.0381676 0.00378008 0)
(-0.0387746 0.00179602 0)
(-0.039171 -0.000320154 0)
(-0.0393278 -0.00255323 0)
(-0.0392166 -0.00488124 0)
(-0.0388103 -0.00727479 0)
(-0.0380863 -0.0096965 0)
(-0.0370274 -0.0121013 0)
(-0.035626 -0.0144367 0)
(-0.0338845 -0.016645 0)
(-0.0318197 -0.0186653 0)
(-0.0294617 -0.0204378 0)
(-0.0268574 -0.0219067 0)
(-0.0240654 -0.0230273 0)
(-0.0211589 -0.0237671 0)
(-0.0182159 -0.0241139 0)
(-0.0153216 -0.0240721 0)
(-0.0125534 -0.0236709 0)
(-0.00998518 -0.0229505 0)
(-0.00766871 -0.0219705 0)
(-0.00564487 -0.0207846 0)
(-0.0039249 -0.0194518 0)
(-0.00251224 -0.0180018 0)
(-0.00138422 -0.0164566 0)
(-0.000524662 -0.0147917 0)
(0.000100382 -0.0129805 0)
(0.000501283 -0.0109603 0)
(0.000707504 -0.00871483 0)
(0.000718054 -0.00624889 0)
(0.000578579 -0.00371583 0)
(0.000316611 -0.00138503 0)
(6.65576e-05 0.00014347 0)
(-0.000108715 0.00481302 0)
(-0.000711239 0.0112329 0)
(-0.00173127 0.0153736 0)
(-0.0029422 0.0179351 0)
(-0.00432883 0.0194438 0)
(-0.00577184 0.0202745 0)
(-0.00728437 0.0206879 0)
(-0.00880847 0.0208502 0)
(-0.010364 0.0208649 0)
(-0.0119219 0.0207885 0)
(-0.013499 0.0206516 0)
(-0.0150791 0.020466 0)
(-0.0166737 0.0202353 0)
(-0.0182725 0.0199571 0)
(-0.0198824 0.0196268 0)
(-0.0214955 0.0192374 0)
(-0.0231148 0.0187816 0)
(-0.0247332 0.0182506 0)
(-0.0263496 0.0176351 0)
(-0.0279561 0.0169251 0)
(-0.0295479 0.0161101 0)
(-0.0311147 0.0151792 0)
(-0.0326469 0.0141212 0)
(-0.0341305 0.0129251 0)
(-0.0355507 0.0115806 0)
(-0.0368882 0.010078 0)
(-0.038122 0.00840952 0)
(-0.0392265 0.00656965 0)
(-0.0401741 0.00455618 0)
(-0.0409332 0.00237124 0)
(-0.0414702 2.25214e-05 0)
(-0.0417493 -0.00247548 0)
(-0.0417344 -0.00510007 0)
(-0.0413906 -0.00781915 0)
(-0.0406873 -0.0105902 0)
(-0.0396001 -0.0133602 0)
(-0.0381161 -0.0160658 0)
(-0.0362345 -0.0186359 0)
(-0.0339718 -0.020994 0)
(-0.0313597 -0.023064 0)
(-0.02845 -0.0247742 0)
(-0.0253083 -0.0260649 0)
(-0.0220192 -0.0268915 0)
(-0.0186755 -0.0272345 0)
(-0.0153827 -0.0270963 0)
(-0.01224 -0.026512 0)
(-0.00934577 -0.0255346 0)
(-0.00677058 -0.0242443 0)
(-0.00457032 -0.0227175 0)
(-0.00275874 -0.0210386 0)
(-0.00133652 -0.0192556 0)
(-0.000266288 -0.017406 0)
(0.000482165 -0.0154686 0)
(0.000963563 -0.0134175 0)
(0.00120057 -0.0111811 0)
(0.00123995 -0.00874106 0)
(0.00108505 -0.00610201 0)
(0.000797972 -0.00343907 0)
(0.00040867 -0.00106098 0)
(8.09651e-05 0.000349153 0)
(-0.000109191 0.00517104 0)
(-0.000715737 0.0120629 0)
(-0.00174389 0.0165042 0)
(-0.00296547 0.0192502 0)
(-0.00436548 0.0208691 0)
(-0.00582394 0.0217641 0)
(-0.00735448 0.0222158 0)
(-0.00889917 0.0224018 0)
(-0.0104786 0.0224332 0)