/*--------------------------------*- C++ -*----------------------------------*\
| =========                 |                                                 |
| \\      /  F ield         | OpenFOAM: The Open Source CFD Toolbox           |
|  \\    /   O peration     | Version:  2406                                  |
|   \\  /    A nd           | Website:  www.openfoam.com                      |
|    \\/     M anipulation  |                                                 |
\*---------------------------------------------------------------------------*/
FoamFile
{
    version     2.0;
    format      ascii;
    arch        "LSB;label=32;scalar=64";
    class       surfaceScalarField;
    location    "24.55";
    object      phi;
}
// * * * * * * * * * * * * * * * * * * * * * * * * * * * * * * * * * * * * * //

dimensions      [0 3 -1 0 0 0 0];

oriented        oriented;

internalField   nonuniform List<scalar> 
7080
(
9.06531e-08
-9.05873e-08
3.58439e-07
-2.69561e-07
7.03104e-07
-3.44477e-07
1.03266e-06
-3.30703e-07
1.29358e-06
-2.60908e-07
1.45385e-06
-1.60486e-07
1.51391e-06
-5.96932e-08
1.47782e-06
3.68973e-08
1.35893e-06
1.19914e-07
1.15718e-06
2.03568e-07
8.63102e-07
2.95998e-07
4.45185e-07
4.20932e-07
-1.43679e-07
5.92166e-07
-9.67449e-07
8.28513e-07
-2.09736e-06
1.13533e-06
-3.60809e-06
1.51794e-06
-5.57133e-06
1.97156e-06
-8.05307e-06
2.49211e-06
-1.1109e-05
3.06768e-06
-1.47783e-05
3.68315e-06
-1.90746e-05
4.31154e-06
-2.39741e-05
4.91655e-06
-2.94032e-05
5.44706e-06
-3.52261e-05
5.84178e-06
-4.12373e-05
6.02979e-06
-4.71606e-05
5.94086e-06
-5.26576e-05
5.51211e-06
-5.73467e-05
4.70072e-06
-6.08298e-05
3.49016e-06
-6.27265e-05
1.89862e-06
-6.27094e-05
-2.08553e-08
-6.05399e-05
-2.17895e-06
-5.60988e-05
-4.45619e-06
-4.94123e-05
-6.70672e-06
-4.06677e-05
-8.76913e-06
-3.02206e-05
-1.04754e-05
-1.85836e-05
-1.16676e-05
-6.40193e-06
-1.22138e-05
5.59639e-06
-1.203e-05
1.6663e-05
-1.10974e-05
2.61138e-05
-9.47801e-06
3.34075e-05
-7.31766e-06
3.8223e-05
-4.833e-06
4.04953e-05
-2.285e-06
4.0422e-05
6.83486e-08
3.84084e-05
2.01267e-06
3.4993e-05
3.4217e-06
3.07375e-05
4.26306e-06
2.61535e-05
4.59695e-06
2.16307e-05
4.53325e-06
1.74369e-05
4.20845e-06
1.37067e-05
3.73942e-06
1.0491e-05
3.2294e-06
7.76211e-06
2.73489e-06
5.46697e-06
2.30742e-06
3.53755e-06
1.93186e-06
1.94085e-06
1.60759e-06
7.33837e-07
1.20626e-06
3.04002e-08
7.12564e-07
3.04578e-08
2.70642e-07
-3.59573e-07
8.11366e-07
-8.10449e-07
1.4391e-06
-9.70087e-07
1.9826e-06
-8.73807e-07
2.33634e-06
-6.13721e-07
2.42042e-06
-2.44751e-07
2.20803e-06
1.51914e-07
1.67913e-06
5.64331e-07
8.26856e-07
9.69575e-07
-3.79992e-07
1.40731e-06
-1.99578e-06
1.90712e-06
-4.11809e-06
2.53788e-06
-6.87881e-06
3.34542e-06
-1.04416e-05
4.38254e-06
-1.49822e-05
5.66426e-06
-2.06726e-05
7.19465e-06
-2.76611e-05
8.94294e-06
-3.60536e-05
1.08647e-05
-4.58915e-05
1.28819e-05
-5.71268e-05
1.4892e-05
-6.95978e-05
1.67526e-05
-8.30093e-05
1.82956e-05
-9.69295e-05
1.93324e-05
-0.000110807
1.96838e-05
-0.00012401
1.91968e-05
-0.000135873
1.77705e-05
-0.000145752
1.53615e-05
-0.000153066
1.19922e-05
-0.000157332
7.74282e-06
-0.000158188
2.75065e-06
-0.0001554
-2.80131e-06
-0.000148874
-8.68509e-06
-0.000138662
-1.4638e-05
-0.000124964
-2.03633e-05
-0.000108139
-2.55445e-05
-8.87041e-05
-2.98532e-05
-6.73338e-05
-3.29758e-05
-4.48471e-05
-3.46365e-05
-2.21737e-05
-3.46393e-05
-3.11861e-07
-3.28992e-05
1.97469e-05
-2.94822e-05
3.70919e-05
-2.46176e-05
5.09901e-05
-1.8696e-05
6.09573e-05
-1.22304e-05
6.68265e-05
-5.78974e-06
6.87569e-05
8.02049e-08
6.72215e-05
4.94754e-06
6.29187e-05
8.54673e-06
5.66808e-05
1.08144e-05
4.93296e-05
1.18586e-05
4.15962e-05
1.19201e-05
3.40237e-05
1.12865e-05
2.69814e-05
1.02541e-05
2.06443e-05
9.04986e-06
1.50808e-05
7.85913e-06
1.02702e-05
6.72361e-06
6.2196e-06
5.65248e-06
3.00045e-06
4.40951e-06
8.18372e-07
2.89457e-06
8.39575e-07
3.48485e-07
-7.0791e-07
9.70878e-07
-1.43479e-06
1.62545e-06
-1.62444e-06
2.08477e-06
-1.33414e-06
2.21065e-06
-7.39522e-07
1.88497e-06
8.13912e-08
1.04758e-06
9.90271e-07
-3.60561e-07
1.97459e-06
-2.3906e-06
3.00196e-06
-5.12947e-06
4.15005e-06
-8.70088e-06
5.4827e-06
-1.3285e-05
7.12804e-06
-1.91043e-05
9.17152e-06
-2.64099e-05
1.16972e-05
-3.54469e-05
1.47118e-05
-4.64215e-05
1.81826e-05
-5.94612e-05
2.19981e-05
-7.45759e-05
2.59981e-05
-9.16197e-05
2.99468e-05
-0.000110262
3.35589e-05
-0.000129986
3.65032e-05
-0.000150119
3.8457e-05
-0.000169894
3.91371e-05
-0.000188525
3.83466e-05
-0.000205279
3.59814e-05
-0.000219516
3.20373e-05
-0.000230718
2.65881e-05
-0.000238482
1.97763e-05
-0.000242518
1.17914e-05
-0.000242632
2.8679e-06
-0.000238713
-6.72572e-06
-0.000230736
-1.66787e-05
-0.000218758
-2.66431e-05
-0.000202933
-3.62243e-05
-0.00018353
-4.4992e-05
-0.000160951
-5.24833e-05
-0.000135748
-5.82346e-05
-0.000108634
-6.18095e-05
-8.04708e-05
-6.28597e-05
-5.22522e-05
-6.11731e-05
-2.5041e-05
-5.67422e-05
9.33082e-08
-4.97938e-05
2.21747e-05
-4.08084e-05
4.03996e-05
-3.0477e-05
5.42291e-05
-1.96287e-05
6.34284e-05
-9.1206e-06
6.81038e-05
2.80938e-07
6.86683e-05
7.99458e-06
6.58065e-05
1.36955e-05
6.03562e-05
1.73266e-05
5.32209e-05
1.90779e-05
4.52174e-05
1.93066e-05
3.7032e-05
1.84609e-05
2.91285e-05
1.69658e-05
2.18194e-05
1.51874e-05
1.52441e-05
1.33057e-05
9.53975e-06
1.13742e-05
4.83206e-06
9.11773e-06
1.4762e-06
6.26658e-06
2.31699e-06
3.35316e-07
-1.04255e-06
8.55342e-07
-1.95561e-06
1.28517e-06
-2.05355e-06
1.36886e-06
-1.41807e-06
9.47928e-07
-3.19144e-07
-1.26989e-07
1.15569e-06
-1.95619e-06
2.81755e-06
-4.65234e-06
4.66906e-06
-8.33416e-06
6.68038e-06
-1.317e-05
8.9827e-06
-1.93773e-05
1.1685e-05
-2.72324e-05
1.4978e-05
-3.70424e-05
1.89742e-05
-4.91084e-05
2.37554e-05
-6.36699e-05
2.92631e-05
-8.08469e-05
3.53484e-05
-0.000100585
4.1722e-05
-0.000122611
4.80086e-05
-0.000146422
5.37397e-05
-0.000171315
5.84327e-05
-0.000196468
6.16332e-05
-0.000221029
6.29956e-05
-0.000244216
6.22988e-05
-0.000265357
5.94636e-05
-0.000283917
5.45179e-05
-0.000299482
4.75809e-05
-0.000311737
3.88247e-05
-0.00032044
2.84662e-05
-0.000325402
1.67462e-05
-0.000326472
3.93751e-06
-0.00032353
-9.66106e-06
-0.000316487
-2.37061e-05
-0.000305299
-3.78085e-05
-0.000289978
-5.15141e-05
-0.000270625
-6.43087e-05
-0.000247453
-7.56129e-05
-0.000220827
-8.48142e-05
-0.000191294
-9.12949e-05
-0.000159599
-9.45079e-05
-0.000126684
-9.4043e-05
-9.36548e-05
-8.97304e-05
-6.17132e-05
-8.17012e-05
-3.205e-05
-7.04437e-05
-5.73961e-06
-5.6769e-05
1.63803e-05
-4.17369e-05
3.37659e-05
-2.65043e-05
4.62149e-05
-1.21707e-05
5.38369e-05
3.61823e-07
5.70437e-05
1.04775e-05
5.64674e-05
1.78856e-05
5.29208e-05
2.26109e-05
4.72593e-05
2.49494e-05
4.03291e-05
2.53796e-05
3.28211e-05
2.44559e-05
2.53039e-05
2.26974e-05
1.81346e-05
2.04581e-05
1.16415e-05
1.78657e-05
6.06712e-06
1.46749e-05
1.93764e-06
1.04003e-05
4.24346e-06
2.4262e-07
-1.28474e-06
4.94433e-07
-2.20737e-06
4.78039e-07
-2.03691e-06
-7.13119e-08
-8.67658e-07
-1.33029e-06
9.40085e-07
-3.47964e-06
3.30718e-06
-6.66898e-06
6.00796e-06
-1.10768e-05
9.08018e-06
-1.69073e-05
1.25133e-05
-2.44273e-05
1.65073e-05
-3.3958e-05
2.12197e-05
-4.58614e-05
2.68876e-05
-6.04867e-05
3.36055e-05
-7.81003e-05
4.13774e-05
-9.88089e-05
4.99804e-05
-0.00012249
5.90403e-05
-0.000148754
6.79982e-05
-0.000176955
7.62241e-05
-0.000206261
8.3061e-05
-0.000235764
8.79524e-05
-0.000264592
9.04804e-05
-0.000291991
9.04149e-05
-0.000317351
8.76783e-05
-0.000340197
8.23304e-05
-0.000360174
7.45138e-05
-0.000377013
6.4437e-05
-0.000390511
5.23358e-05
-0.000400507
3.84718e-05
-0.000406869
2.3112e-05
-0.000409476
6.54265e-06
-0.000408209
-1.09358e-05
-0.000402946
-2.89824e-05
-0.000393565
-4.72101e-05
-0.00037995
-6.5154e-05
-0.000362022
-8.22674e-05
-0.000339767
-9.79011e-05
-0.000313293
-0.000111325
-0.000282881
-0.000121744
-0.000249045
-0.00012838
-0.000212577
-0.000130547
-0.000174548
-0.00012779
-0.000136279
-0.000119998
-9.92236e-05
-0.000107521
-6.48226e-05
-9.11861e-05
-3.43151e-05
-7.22526e-05
-8.60486e-06
-5.22182e-05
1.18285e-05
-3.26001e-05
2.6891e-05
-1.4695e-05
3.68306e-05
5.49842e-07
4.21274e-05
1.25989e-05
4.34664e-05
2.12872e-05
4.16281e-05
2.67976e-05
3.74724e-05
2.9551e-05
3.17879e-05
3.01476e-05
2.53128e-05
2.91879e-05
1.8595e-05
2.71786e-05
1.21608e-05
2.43157e-05
6.41727e-06
2.04151e-05
2.06241e-06
1.47725e-05
6.30542e-06
7.34775e-08
-1.3593e-06
-1.14107e-07
-2.01951e-06
-8.08103e-07
-1.34496e-06
-2.25931e-06
5.83917e-07
-4.66025e-06
3.33819e-06
-8.22598e-06
6.87261e-06
-1.31685e-05
1.09468e-05
-1.97459e-05
1.56561e-05
-2.82644e-05
2.10271e-05
-3.90952e-05
2.73352e-05
-5.2651e-05
3.47697e-05
-6.93298e-05
4.35618e-05
-8.94289e-05
5.36974e-05
-0.000113043
6.49849e-05
-0.00013999
7.69185e-05
-0.000169775
8.8817e-05
-0.000201634
9.98459e-05
-0.000234627
0.000109205
-0.000267775
0.000116196
-0.000300173
0.000120337
-0.000331056
0.000121348
-0.000359817
0.00011916
-0.000385998
0.000113843
-0.000409274
0.00010559
-0.00042943
9.46549e-05
-0.000446344
8.13373e-05
-0.000459958
6.59391e-05
-0.000470258
4.87636e-05
-0.000477241
3.00919e-05
-0.000480897
1.01997e-05
-0.000481179
-1.06471e-05
-0.000477992
-3.21587e-05
-0.000471176
-5.4011e-05
-0.000460509
-7.58007e-05
-0.000445724
-9.70296e-05
-0.000426536
-0.000117063
-0.000402702
-0.00013513
-0.000374098
-0.000150319
-0.000340812
-0.000161636
-0.000303253
-0.000168077
-0.000262231
-0.000168786
-0.000218995
-0.000163211
-0.000175184
-0.000151313
-0.000132672
-0.000133686
-9.33055e-05
-0.00011161
-5.86286e-05
-8.68929e-05
-2.96352e-05
-6.15937e-05
-6.72252e-06
-3.7614e-05
1.02413e-05
-1.64198e-05
2.17126e-05
1.11645e-06
2.83638e-05
1.46284e-05
3.09495e-05
2.4199e-05
3.03153e-05
3.01787e-05
2.72778e-05
3.31716e-05
2.26625e-05
3.37997e-05
1.71545e-05
3.26728e-05
1.14425e-05
3.00286e-05
6.10043e-06
2.57415e-05
1.95875e-06
1.892e-05
8.25363e-06
-1.67841e-07
-1.19171e-06
-9.57036e-07
-1.22651e-06
-2.54348e-06
2.39944e-07
-5.14483e-06
3.18946e-06
-8.97204e-06
7.16464e-06
-1.42819e-05
1.2187e-05
-2.13622e-05
1.80277e-05
-3.05604e-05
2.48594e-05
-4.22867e-05
3.27554e-05
-5.69977e-05
4.2052e-05
-7.51437e-05
5.29193e-05
-9.70602e-05
6.5485e-05
-0.000122857
7.95e-05
-0.000152317
9.44521e-05
-0.000184869
0.000109478
-0.000219643
0.0001236
-0.000255594
0.000135806
-0.000291644
0.000145266
-0.000326804
0.000151366
-0.000360235
0.00015378
-0.000391277
0.000152402
-0.00041945
0.000147345
-0.000444451
0.000138855
-0.000466136
0.000127286
-0.000484498
0.000113027
-0.000499633
9.64794e-05
-0.0005117
7.80111e-05
-0.000520887
5.79527e-05
-0.000527371
3.65746e-05
-0.000531288
1.41112e-05
-0.000532702
-9.24309e-06
-0.000531582
-3.32928e-05
-0.000527781
-5.78286e-05
-0.000521028
-8.2574e-05
-0.000510921
-0.00010716
-0.000496941
-0.000131067
-0.000478498
-0.000153599
-0.000454998
-0.000173846
-0.000425959
-0.000190701
-0.00039116
-0.0002029
-0.000350811
-0.000209156
-0.000305707
-0.000208333
-0.000257312
-0.000199721
-0.000207721
-0.000183288
-0.000159418
-0.000159917
-0.000114889
-0.000131425
-7.61253e-05
-0.000100356
-4.42824e-05
-6.94549e-05
-1.95897e-05
-4.11054e-05
-1.60552e-06
-1.68626e-05
1.04876e-05
2.54537e-06
1.75929e-05
1.70992e-05
2.06527e-05
2.71302e-05
2.05477e-05
3.32804e-05
1.8169e-05
3.61902e-05
1.43006e-05
3.6542e-05
9.7497e-06
3.45923e-05
5.23164e-06
3.02558e-05
1.65581e-06
2.25106e-05
9.90877e-06
-4.97919e-07
-6.97581e-07
-2.06673e-06
3.45682e-07
-4.7701e-06
2.9369e-06
-8.77434e-06
7.19614e-06
-1.43141e-05
1.26982e-05
-2.16963e-05
1.95701e-05
-3.12964e-05
2.76217e-05
-4.35512e-05
3.71134e-05
-5.89589e-05
4.81569e-05
-7.80091e-05
6.10998e-05
-0.000101094
7.59974e-05
-0.000128352
9.27389e-05
-0.000159567
0.000110708
-0.000194115
0.000128994
-0.000231033
0.000146388
-0.00026915
0.000161711
-0.000307256
0.000173902
-0.000344218
0.00018222
-0.000379076
0.000186214
-0.000411077
0.00018577
-0.000439706
0.00018102
-0.000464687
0.000172316
-0.00048597
0.000160128
-0.000503689
0.000144996
-0.000518116
0.000127445
-0.000529604
0.000107961
-0.000538539
8.69419e-05
-0.000545296
6.47091e-05
-0.000550207
4.14885e-05
-0.000553535
1.74442e-05
-0.000555447
-7.3221e-06
-0.000556
-3.2728e-05
-0.000555115
-5.86995e-05
-0.000552555
-8.51181e-05
-0.000547902
-0.000111796
-0.000540544
-0.000138407
-0.000529676
-0.000164448
-0.000514338
-0.000189166
-0.000493495
-0.000211525
-0.000466191
-0.000230188
-0.000431757
-0.000243575
-0.000390077
-0.00025
-0.000341847
-0.000247939
-0.000288754
-0.000236372
-0.000233452
-0.000215212
-0.000179259
-0.000185615
-0.000129529
-0.000150084
-8.69007e-05
-0.000112087
-5.27094e-05
-7.52994e-05
-2.69621e-05
-4.26171e-05
-8.74574e-06
-1.56753e-05
3.16724e-06
5.17728e-06
1.00251e-05
2.02687e-05
1.29239e-05
3.0372e-05
1.28912e-05
3.62212e-05
1.08268e-05
3.85959e-05
7.63543e-06
3.77849e-05
4.14407e-06
3.37352e-05
1.29155e-06
2.53674e-05
1.11922e-05
-9.15982e-07
2.16418e-07
-3.43494e-06
2.87417e-06
-7.46064e-06
6.95742e-06
-1.30924e-05
1.28366e-05
-2.05979e-05
2.02008e-05
-3.03417e-05
2.93218e-05
-4.27903e-05
4.00696e-05
-5.84523e-05
5.27829e-05
-7.78677e-05
6.75735e-05
-0.000101468
8.47074e-05
-0.000129461
0.000103994
-0.000161655
0.00012494
-0.00019742
0.000146477
-0.00023571
0.000167292
-0.000275233
0.000185917
-0.000314606
0.000201091
-0.000352526
0.000211829
-0.00038787
0.000217571
-0.000419778
0.000218128
-0.000447694
0.000213695
-0.000471386
0.000204719
-0.000490909
0.000191847
-0.000506553
0.000175779
-0.000518764
0.000157214
-0.000528075
0.000136761
-0.000535038
0.000114928
-0.00054018
9.2086e-05
-0.000543971
6.85001e-05
-0.000546806
4.43218e-05
-0.000549
1.96332e-05
-0.000550774
-5.55417e-06
-0.000552256
-3.12547e-05
-0.00055346
-5.75075e-05
-0.000554259
-8.43309e-05
-0.00055436
-0.000111709
-0.00055325
-0.000139531
-0.000550164
-0.00016755
-0.000544051
-0.000195295
-0.000533593
-0.000221999
-0.000517285
-0.000246512
-0.000493606
-0.000267269
-0.000461309
-0.000282312
-0.000419799
-0.000289461
-0.000369548
-0.000286632
-0.000312417
-0.000272348
-0.000251711
-0.000246323
-0.000191779
-0.000210015
-0.00013711
-0.000166755
-9.11344e-05
-0.000121271
-5.53761e-05
-7.83727e-05
-2.94395e-05
-4.16053e-05
-1.18394e-05
-1.24198e-05
-8.10982e-07
9.24796e-06
5.19804e-06
2.43651e-05
7.52369e-06
3.3904e-05
7.27015e-06
3.88497e-05
5.466e-06
3.95983e-05
3.03815e-06
3.61607e-05
9.31254e-07
2.74846e-05
1.21235e-05
-1.44199e-06
1.65088e-06
-5.09175e-06
6.53252e-06
-1.06417e-05
1.24948e-05
-1.81116e-05
2.03124e-05
-2.78116e-05
2.98902e-05
-4.01658e-05
4.1679e-05
-5.57214e-05
5.56158e-05
-7.50178e-05
7.20798e-05
-9.85601e-05
9.11072e-05
-0.000126606
0.000112752
-0.000159052
0.000136432
-0.00019528
0.000161165
-0.000234217
0.000185407
-0.000274442
0.000207513
-0.000314411
0.000225878
-0.000352617
0.000239292
-0.000387766
0.000246971
-0.000418877
0.000248675
-0.000445363
0.000244607
-0.00046704
0.000235366
-0.000484091
0.000221763
-0.000496966
0.000204718
-0.000506293
0.0001851
-0.000512764
0.000163682
-0.000517066
0.000141062
-0.000519826
0.000117687
-0.00052158
9.3841e-05
-0.000522769
6.96927e-05
-0.000523745
4.53028e-05
-0.000524779
2.06751e-05
-0.000526078
-4.24594e-06
-0.000527787
-2.95344e-05
-0.000529989
-5.52921e-05
-0.00053269
-8.16158e-05
-0.000535783
-0.000108601
-0.000538998
-0.000136299
-0.000541837
-0.000164695
-0.000543487
-0.000193629
-0.000542755
-0.000222715
-0.00053804
-0.000251214
-0.000527382
-0.000277916
-0.000508647
-0.000301037
-0.000479889
-0.000318213
-0.000439863
-0.000326653
-0.000388652
-0.000323556
-0.000328206
-0.000306769
-0.000262531
-0.000275688
-0.000197224
-0.000232063
-0.000138146
-0.000180349
-8.96521e-05
-0.000126871
-5.33079e-05
-7.79519e-05
-2.81288e-05
-3.76048e-05
-1.18758e-05
-7.00739e-06
-2.28787e-06
1.47706e-05
2.53958e-06
2.90754e-05
4.08924e-06
3.72929e-05
3.60498e-06
4.00831e-05
2.14198e-06
3.76156e-05
6.6634e-07
2.89624e-05
1.27843e-05
-2.06342e-06
3.70959e-06
-6.99783e-06
1.14842e-05
-1.42327e-05
1.9719e-05
-2.36979e-05
2.97922e-05
-3.57554e-05
4.19416e-05
-5.08806e-05
5.68162e-05
-6.96723e-05
7.44049e-05
-9.26357e-05
9.50536e-05
-0.00012014
0.000118612
-0.000152149
0.00014477
-0.00018815
0.000172434
-0.000227059
0.000200083
-0.000267397
0.000225748
-0.000307449
0.000247572
-0.000345528
0.000263961
-0.00038015
0.00027392
-0.000410216
0.000277041
-0.000435096
0.000273562
-0.000454665
0.000264182
-0.000469229
0.000249936
-0.000479413
0.000231951
-0.000486012
0.000211322
-0.000489873
0.000188965
-0.000491787
0.000165601
-0.000492443
0.000141719
-0.000492391
0.000117636
-0.000492053
9.35022e-05
-0.000491738
6.9375e-05
-0.000491669
4.52294e-05
-0.000492011
2.10111e-05
-0.000492895
-3.36952e-06
-0.000494435
-2.80037e-05
-0.000496735
-5.30024e-05
-0.000499886
-7.8476e-05
-0.000503946
-0.000104552
-0.000508899
-0.000131357
-0.000514593
-0.000159013
-0.000520643
-0.00018759
-0.000526317
-0.00021705
-0.00053041
-0.00024713
-0.000531149
-0.000277184
-0.000526195
-0.000305998
-0.000512808
-0.000331605
-0.000488256
-0.00035121
-0.000450495
-0.000361322
-0.000399043
-0.000358226
-0.000335834
-0.000338899
-0.00026564
-0.000302257
-0.000195514
-0.000250473
-0.000132933
-0.000189449
-8.31502e-05
-0.00012773
-4.75001e-05
-7.32527e-05
-2.40713e-05
-3.04315e-05
-9.84716e-06
5.48033e-07
-2.06042e-06
2.1294e-05
1.4053e-06
3.38276e-05
2.18124e-06
3.93133e-05
1.53543e-06
3.82603e-05
5.19865e-07
2.99848e-05
1.33047e-05
-2.79004e-06
6.48744e-06
-9.15121e-06
1.7861e-05
-1.82026e-05
2.87499e-05
-2.97777e-05
4.1378e-05
-4.42911e-05
5.64391e-05
-6.22471e-05
7.4778e-05
-8.42472e-05
9.6392e-05
-0.000110678
0.000121487
-0.000141669
0.000149592
-0.000176793
0.000179894
-0.000215082
0.000210713
-0.000255011
0.000240009
-0.000294777
0.000265506
-0.000332501
0.000285293
-0.000366534
0.000297986
-0.000395624
0.000303006
-0.000419095
0.000300505
-0.000436849
0.000291313
-0.000449316
0.000276643
-0.000457274
0.000257891
-0.000461691
0.000236364
-0.000463548
0.000213177
-0.000463735
0.000189149
-0.000462975
0.00016484
-0.000461815
0.000140558
-0.000460626
0.000116449
-0.000459647
9.25239e-05
-0.000459011
6.87431e-05
-0.000458797
4.5019e-05
-0.000459049
2.1269e-05
-0.000459813
-2.59948e-06
-0.000461146
-2.66621e-05
-0.000463137
-5.10026e-05
-0.000465903
-7.57012e-05
-0.000469585
-0.000100861
-0.000474329
-0.000126603
-0.000480247
-0.000153084
-0.000487344
-0.000180483
-0.000495413
-0.000208972
-0.000503882
-0.000238652
-0.000511637
-0.00026942
-0.000516854
-0.000300774
-0.000516911
-0.000331541
-0.000508508
-0.000359608
-0.000488103
-0.000381724
-0.000452743
-0.000393585
-0.000401251
-0.000390391
-0.00033549
-0.000368021
-0.000261103
-0.000324862
-0.000186874
-0.000263679
-0.000122073
-0.000192533
-7.26331e-05
-0.000122695
-3.90999e-05
-6.39663e-05
-1.83775e-05
-2.01783e-05
-6.65786e-06
9.57299e-06
-8.89193e-07
2.80544e-05
1.20025e-06
3.72238e-05
1.2478e-06
3.82073e-05
5.08656e-07
3.07251e-05
1.38096e-05
-3.58526e-06
1.00645e-05
-1.14566e-05
2.57591e-05
-2.2384e-05
3.96598e-05
-3.60983e-05
5.51138e-05
-5.30611e-05
7.33916e-05
-7.37687e-05
9.55026e-05
-9.87615e-05
0.00012138
-0.000128216
0.000150955
-0.000161932
0.000183306
-0.000199036
0.000217009
-0.000238118
0.000249795
-0.000277294
0.000279195
-0.000314584
0.000302798
-0.000348134
0.000318851
-0.000376556
0.00032641
-0.000399059
0.000325517
-0.000415557
0.000317007
-0.000426546
0.000302308
-0.000432953
0.000283053
-0.000435888
0.000260832
-0.000436471
0.000236949
-0.000435669
0.000212379
-0.000434246
0.000187726
-0.000432725
0.000163321
-0.000431429
0.000139262
-0.000430516
0.000115535
-0.000430035
9.20399e-05
-0.000429966
6.86711e-05
-0.000430266
4.53144e-05
-0.00043089
2.18876e-05
-0.000431817
-1.68033e-06
-0.000433055
-2.54316e-05
-0.000434661
-4.94052e-05
-0.000436738
-7.36328e-05
-0.000439445
-9.81635e-05
-0.000442985
-0.000123072
-0.000447601
-0.000148478
-0.000453529
-0.000174563
-0.000460942
-0.000201567
-0.000469826
-0.000229776
-0.000479809
-0.000259443
-0.000489927
-0.00029066
-0.000498381
-0.00032309
-0.000502351
-0.00035564
-0.000498039
-0.000386036
-0.000481102
-0.000410523
-0.000447643
-0.000423851
-0.000395743
-0.000419922
-0.000327239
-0.000393367
-0.000248885
-0.000342034
-0.000171542
-0.000269873
-0.000106337
-0.000187898
-5.92573e-05
-0.000111042
-2.93384e-05
-5.00953e-05
-1.20828e-05
-7.68001e-06
-3.22478e-06
1.91973e-05
4.52519e-07
3.35501e-05
1.18403e-06
3.74753e-05
5.98722e-07
3.13152e-05
1.44086e-05
-4.44185e-06
1.4489e-05
-1.38709e-05
3.5212e-05
-2.66817e-05
5.24411e-05
-4.24956e-05
7.0944e-05
-6.18011e-05
9.26752e-05
-8.50374e-05
0.000118748
-0.000112613
0.000148938
-0.000144416
0.000182763
-0.000179863
0.00021874
-0.000217638
0.000254784
-0.000255961
0.000288107
-0.000292732
0.000315965
-0.00032598
0.000336037
-0.000354102
0.000346971
-0.000376185
0.000348486
-0.000392051
0.00034138
-0.000402236
0.000327186
-0.000407749
0.000307819
-0.000409844
0.000285143
-0.00040975
0.000260736
-0.000408532
0.000235726
-0.000406978
0.000210824
-0.000405612
0.000186357
-0.000404703
0.000162412
-0.000404348
0.000138906
-0.000404516
0.000115704
-0.000405116
9.2641e-05
-0.000406028
6.95861e-05
-0.00040714
4.64303e-05
-0.00040836
2.31124e-05
-0.000409629
-4.05557e-07
-0.000410927
-2.41277e-05
-0.000412277
-4.80481e-05
-0.000413753
-7.21497e-05
-0.000415484
-9.64249e-05
-0.000417661
-0.000120888
-0.000420541
-0.000145591
-0.000424441
-0.000170657
-0.000429713
-0.000196289
-0.00043668
-0.000222804
-0.000445521
-0.000250598
-0.000456064
-0.000280113
-0.000467515
-0.000311636
-0.000478118
-0.000345034
-0.000484886
-0.000379265
-0.000483548
-0.000411858
-0.000468985
-0.000438412
-0.000436373
-0.000452532
-0.000383134
-0.000446608
-0.000311303
-0.000413868
-0.000229192
-0.000351987
-0.000150186
-0.000266906
-8.6996e-05
-0.000174232
-4.45286e-05
-9.25631e-05
-1.94652e-05
-3.27456e-05
-6.24728e-06
5.97716e-06
-3.95456e-07
2.76974e-05
1.19512e-06
3.58811e-05
7.46912e-07
3.17643e-05
1.51527e-05
-5.29543e-06
1.97725e-05
-1.6243e-05
4.6196e-05
-3.08498e-05
6.7023e-05
-4.86195e-05
8.87426e-05
-7.00384e-05
0.00011408
-9.5435e-05
0.000144166
-0.000125019
0.000178515
-0.000158338
0.000216098
-0.000194412
0.000254811
-0.000231541
0.000291926
-0.000267704
0.00032427
-0.000300763
0.000349035
-0.000328967
0.000364242
-0.000351163
0.000369176
-0.000367051
0.000364377
-0.000377088
0.000351423
-0.000382339
0.00033244
-0.00038414
0.000309626
-0.00038385
0.000284854
-0.000382609
0.0002595
-0.000381271
0.000234389
-0.000380348
0.000209905
-0.000380092
0.000186101
-0.000380538
0.000162859
-0.000381602
0.000139969
-0.000383128
0.00011723
-0.000384949
9.44595e-05
-0.000386902
7.15365e-05
-0.000388854
4.83782e-05
-0.0003907
2.49542e-05
-0.000392373
1.26214e-06
-0.000393837
-2.26689e-05
-0.000395096
-4.67957e-05
-0.000396188
-7.1064e-05
-0.0003972
-9.5419e-05
-0.000398273
-0.000119822
-0.000399613
-0.000144256
-0.000401509
-0.000168767
-0.000404335
-0.000193468
-0.000408538
-0.000218606
-0.000414586
-0.000244555
-0.000422837
-0.000271866
-0.000433326
-0.00030115
-0.000445407
-0.000332955
-0.000457354
-0.00036732
-0.000465963
-0.000403249
-0.000466455
-0.000437918
-0.000452918
-0.000466067
-0.000419679
-0.000479847
-0.000363713
-0.000469833
-0.000287755
-0.000427948
-0.000202394
-0.000352266
-0.000123969
-0.000252658
-6.58488e-05
-0.000150677
-3.00646e-05
-6.85289e-05
-1.0752e-05
-1.33337e-05
-1.78242e-06
1.8729e-05
1.07244e-06
3.30264e-05
8.85722e-07
3.19543e-05
1.60387e-05
-6.12554e-06
2.58756e-05
-1.85043e-05
5.86065e-05
-3.47603e-05
8.32408e-05
-5.42664e-05
0.00010827
-7.74673e-05
0.000137253
-0.00010453
0.000171241
-0.000135419
0.000209383
-0.000169325
0.000250011
-0.000204915
0.000290385
-0.000240209
0.000327222
-0.000273107
0.000357154
-0.000301622
0.000377549
-0.000324406
0.000387016
-0.000340883
0.000385651
-0.000351388
0.000374874
-0.000356916
0.00035695
-0.000358879
0.000334396
-0.000358714
0.00030946
-0.000357684
0.000283819
-0.000356694
0.000258509
-0.000356301
0.000233992
-0.000356733
0.000210336
-0.000358001
0.000187367
-0.000359969
0.000164827
-0.000362444
0.000142444
-0.000365216
0.000120003
-0.000368097
9.73412e-05
-0.000370924
7.43667e-05
-0.000373577
5.10334e-05
-0.000375961
2.73424e-05
-0.000378017
3.32235e-06
-0.000379708
-2.09729e-05
-0.000381026
-4.54731e-05
-0.000381983
-7.0101e-05
-0.000382628
-9.47691e-05
-0.000383041
-0.000119404
-0.000383359
-0.000143933
-0.000383787
-0.000168335
-0.000384626
-0.000192625
-0.000386285
-0.000216944
-0.000389292
-0.000241544
-0.00039424
-0.000266915
-0.000401673
-0.000293716
-0.000411806
-0.000322821
-0.000424135
-0.000354991
-0.000436887
-0.000390496
-0.000446559
-0.000428246
-0.000447736
-0.000464887
-0.000433673
-0.000493909
-0.000397954
-0.00050555
-0.000337553
-0.000488352
-0.000256728
-0.000433094
-0.000169386
-0.000340006
-9.49062e-05
-0.000225155
-4.51122e-05
-0.000118322
-1.74955e-05
-4.09504e-05
-4.14129e-06
5.37179e-06
6.20657e-07
2.82634e-05
9.5776e-07
3.16165e-05
1.6995e-05
-6.84948e-06
3.27101e-05
-2.04758e-05
7.2278e-05
-3.81397e-05
0.000100873
-5.90679e-05
0.000129234
-8.36238e-05
0.000161791
-0.000111773
0.000199417
-0.000143212
0.000240812
-0.000176796
0.000283615
-0.000210918
0.000324502
-0.000243453
0.000359771
-0.000272387
0.000386087
-0.000296052
0.000401226
-0.000313623
0.000404588
-0.000325128
0.000397166
-0.000331457
0.000381205
-0.000333971
0.000359471
-0.00033421
0.000334637
-0.00033352
0.000308777
-0.000332925
0.000283226
-0.000333022
0.00025861
-0.000334072
0.000235043
-0.00033606
0.000212327
-0.000338832
0.000190139
-0.000342153
0.000168149
-0.000345792
0.000146082
-0.000349532
0.000123744
-0.000353205
0.000101012
-0.000356673
7.78332e-05
-0.000359839
5.41966e-05
-0.00036263
3.01301e-05
-0.000364999
5.68752e-06
-0.000366914
-1.90614e-05
-0.000368364
-4.40283e-05
-0.000369346
-6.91235e-05
-0.000369879
-9.42397e-05
-0.000370003
-0.000119285
-0.00036979
-0.00014415
-0.000369359
-0.00016877
-0.000368907
-0.00019308
-0.000368731
-0.000217123
-0.000369272
-0.000241006
-0.000371121
-0.000265069
-0.000374999
-0.000289841
-0.000381606
-0.000316215
-0.000391345
-0.000345254
-0.00040378
-0.000378061
-0.000417017
-0.000415011
-0.000427068
-0.000454834
-0.000427737
-0.00049324
-0.000411352
-0.00052193
-0.000371002
-0.000528702
-0.00030437
-0.000499726
-0.000218528
-0.000425853
-0.000131927
-0.000311757
-6.58495e-05
-0.000184396
-2.70727e-05
-7.97197e-05
-7.85682e-06
-1.38487e-05
-3.20419e-07
2.07307e-05
9.15031e-07
3.03802e-05
1.79115e-05
-7.44782e-06
4.01314e-05
-2.20975e-05
8.69654e-05
-4.08822e-05
0.000119613
-6.28651e-05
0.000151243
-8.829e-05
0.000187184
-0.000116901
0.000228042
-0.000148133
0.000272021
-0.000180567
0.000316056
-0.000212425
0.000356342
-0.000241583
0.000388932
-0.00026626
0.000410749
-0.00028522
0.000420187
-0.0002982
0.000417557
-0.000305772
0.000404738
-0.000309227
0.00038465
-0.00031009
0.000360333
-0.000309845
0.000334384
-0.000309607
0.000308537
-0.000310094
0.000283706
-0.000311598
0.000260113
-0.000314137
0.000237577
-0.000317527
0.000215716
-0.000321525
0.000194134
-0.000325867
0.000172492
-0.000330332
0.000150545
-0.000334731
0.000128144
-0.000338929
0.000105211
-0.000342819
8.17257e-05
-0.000346332
5.77109e-05
-0.000349411
3.32125e-05
-0.000352024
8.30295e-06
-0.000354143
-1.69387e-05
-0.000355757
-4.24109e-05
-0.000356857
-6.80193e-05
-0.000357449
-9.36436e-05
-0.000357544
-0.000119186
-0.000357173
-0.000144517
-0.000356389
-0.000169551
-0.000355296
-0.00019417
-0.000354069
-0.000218348
-0.000353008
-0.000242064
-0.00035257
-0.000265505
-0.000353422
-0.000288987
-0.000356394
-0.000313241
-0.000362361
-0.000339287
-0.000371848
-0.000368574
-0.000384438
-0.000402422
-0.000397923
-0.000441347
-0.000407646
-0.00048352
-0.000406376
-0.000523195
-0.000385544
-0.000549536
-0.00033815
-0.000547115
-0.000263812
-0.000500202
-0.000174185
-0.000401381
-9.31512e-05
-0.000265443
-4.01165e-05
-0.000132735
-1.31816e-05
-4.07952e-05
-1.88365e-06
9.43773e-06
7.39201e-07
2.77519e-05
1.86518e-05
-7.83906e-06
4.79536e-05
-2.32053e-05
0.000102383
-4.27541e-05
0.000139126
-6.5369e-05
0.000173897
-9.11434e-05
0.000212938
-0.000119599
0.000256527
-0.000149944
0.000302354
-0.00018056
0.000346694
-0.000209615
0.000385392
-0.000235114
0.000414448
-0.000255616
0.000431249
-0.000270364
0.000434949
-0.000279621
0.000426815
-0.00028438
0.000409508
-0.000286153
0.000386425
-0.000286454
0.000360643
-0.00028657
0.000334502
-0.000287321
0.000309296
-0.000289121
0.000285508
-0.000292009
0.000263007
-0.000295832
0.000241401
-0.000300319
0.000220207
-0.000305204
0.00019902
-0.000310238
0.000177528
-0.000315236
0.000155543
-0.000320049
0.000132957
-0.000324575
0.000109736
-0.000328737
8.58867e-05
-0.000332481
6.14536e-05
-0.000335765
3.64947e-05
-0.000338561
1.10967e-05
-0.000340847
-1.4656e-05
-0.00034261
-4.065e-05
-0.000343844
-6.67891e-05
-0.000344548
-9.29419e-05
-0.000344725
-0.000119013
-0.000344386
-0.000144858
-0.000343548
-0.000170393
-0.000342253
-0.000195467
-0.000340579
-0.000220025
-0.000338692
-0.000243952
-0.00033688
-0.00026732
-0.000335638
-0.00029023
-0.000335695
-0.000313186
-0.000338028
-0.000336955
-0.000343646
-0.000362956
-0.000353184
-0.000392886
-0.000366064
-0.000428465
-0.000379572
-0.000470015
-0.000388028
-0.000514734
-0.000383019
-0.000554547
-0.000355169
-0.000574955
-0.000298334
-0.000557045
-0.000215851
-0.000483861
-0.000126273
-0.000355037
-5.75247e-05
-0.000201467
-2.02314e-05
-7.80887e-05
-4.22508e-06
-6.56671e-06
4.30252e-07
2.30924e-05
1.90851e-05
-8.02236e-06
5.59471e-05
-2.37825e-05
0.000118183
-4.37231e-05
0.000159018
-6.65369e-05
0.000196739
-9.21478e-05
0.000238514
-0.000119877
0.000284272
-0.000148754
0.000331205
-0.000177057
0.000375005
-0.000203007
0.000411322
-0.000224838
0.000436281
-0.000241502
0.000447897
-0.000252716
0.000446163
-0.000259174
0.00043326
-0.000262138
0.000412471
-0.000263175
0.000387451
-0.000263651
0.000361117
-0.000264587
0.000335428
-0.0002665
0.000311207
-0.000269547
0.000288548
-0.000273588
0.000267046
-0.000278379
0.000246186
-0.000283625
0.000225452
-0.00028908
0.000204472
-0.000294536
0.000182984
-0.000299851
0.000160856
-0.000304913
0.000138019
-0.000309649
0.000114472
-0.000313996
9.02354e-05
-0.000317913
6.53711e-05
-0.000321359
3.99419e-05
-0.000324307
1.40467e-05
-0.000326734
-1.22267e-05