/*--------------------------------*- C++ -*----------------------------------*\
| =========                 |                                                 |
| \\      /  F ield         | OpenFOAM: The Open Source CFD Toolbox           |
|  \\    /   O peration     | Version:  2406                                  |
|   \\  /    A nd           | Website:  www.openfoam.com                      |
|    \\/     M anipulation  |                                                 |
\*---------------------------------------------------------------------------*/
FoamFile
{
    version     2.0;
    format      ascii;
    arch        "LSB;label=32;scalar=64";
    class       volScalarField;
    location    "3";
    object      p;
}
// * * * * * * * * * * * * * * * * * * * * * * * * * * * * * * * * * * * * * //

dimensions      [0 2 -2 0 0 0 0];

internalField   nonuniform List<scalar> 
3600
(
0.00395429
0.00395025
0.00395037
0.0039504
0.00395591
0.00396278
0.00397451
0.0039881
0.00400585
0.00402579
0.00404945
0.00407555
0.00410507
0.00413719
0.00417254
0.00421056
0.00425164
0.00429539
0.00434204
0.0043913
0.00444327
0.00449773
0.00455469
0.00461393
0.00467539
0.00473887
0.00480425
0.00487129
0.00493983
0.00500961
0.00508041
0.00515194
0.00522396
0.00529614
0.0053682
0.00543979
0.00551063
0.00558031
0.00564859
0.00571503
0.00577942
0.00584129
0.00590054
0.00595659
0.00600956
0.00605873
0.00610446
0.00614585
0.00618364
0.00621655
0.00624592
0.00626989
0.00629061
0.00630529
0.00631729
0.00632252
0.00632612
0.00632268
0.00632029
0.00631349
0.0039583
0.00395423
0.00395583
0.00395671
0.00396309
0.00397027
0.00398225
0.00399583
0.00401361
0.00403345
0.00405705
0.00408303
0.00411245
0.00414442
0.00417963
0.00421748
0.00425838
0.00430193
0.00434837
0.00439739
0.00444911
0.00450328
0.00455994
0.00461885
0.00467996
0.00474307
0.00480804
0.00487466
0.00494274
0.00501203
0.00508233
0.00515333
0.00522479
0.00529638
0.00536783
0.00543879
0.00550898
0.00557799
0.0056456
0.00571133
0.00577503
0.00583619
0.00589474
0.0059501
0.00600239
0.00605088
0.00609598
0.00613672
0.00617394
0.00620629
0.0062352
0.00625871
0.00627915
0.00629359
0.00630575
0.00631128
0.006316
0.00631374
0.00631342
0.00630665
0.00395819
0.00395259
0.00395424
0.00395474
0.00396129
0.00396836
0.00398045
0.00399399
0.0040118
0.00403162
0.00405523
0.00408118
0.0041106
0.00414256
0.00417777
0.00421561
0.00425652
0.00430008
0.00434654
0.00439559
0.00444735
0.00450158
0.0045583
0.0046173
0.00467851
0.00474172
0.00480683
0.00487358
0.00494183
0.00501129
0.00508178
0.00515298
0.00522465
0.00529646
0.00536814
0.00543932
0.00550973
0.00557896
0.00564677
0.0057127
0.00577657
0.00583787
0.00589655
0.005952
0.00600435
0.00605286
0.00609797
0.00613866
0.00617583
0.00620806
0.00623688
0.0062602
0.00628053
0.00629472
0.00630679
0.00631194
0.00631659
0.00631354
0.00631303
0.00630416
0.00395785
0.00395128
0.0039534
0.00395389
0.00396092
0.00396808
0.00398041
0.00399394
0.00401183
0.0040316
0.00405521
0.00408109
0.00411048
0.00414237
0.00417753
0.00421531
0.00425617
0.00429967
0.00434608
0.00439509
0.00444682
0.00450103
0.00455774
0.00461673
0.00467795
0.00474119
0.00480633
0.00487313
0.00494143
0.00501097
0.00508153
0.00515282
0.00522458
0.00529648
0.00536825
0.00543951
0.00550998
0.00557926
0.00564709
0.00571301
0.00577685
0.00583807
0.00589664
0.00595192
0.00600408
0.00605234
0.00609717
0.00613753
0.00617437
0.0062062
0.00623468
0.00625759
0.00627767
0.00629151
0.00630354
0.00630847
0.00631344
0.00631012
0.00631
0.00629988
0.00395164
0.0039441
0.00394615
0.00394618
0.00395326
0.00396024
0.00397264
0.0039861
0.00400405
0.00402379
0.00404744
0.00407333
0.00410276
0.00413469
0.00416992
0.00420777
0.00424873
0.00429236
0.00433893
0.00438812
0.00444007
0.00449453
0.00455153
0.00461086
0.00467246
0.00473613
0.00480174
0.00486906
0.00493793
0.00500807
0.00507928
0.00515124
0.00522371
0.00529634
0.00536885
0.00544086
0.00551208
0.00558208
0.00565062
0.0057172
0.00578165
0.00584342
0.00590246
0.00595814
0.00601061
0.00605909
0.00610406
0.00614445
0.00618127
0.00621295
0.00624128
0.00626388
0.00628371
0.0062971
0.00630882
0.00631311
0.00631772
0.00631345
0.0063129
0.00630146
0.00394337
0.00393537
0.00393757
0.00393748
0.00394477
0.00395173
0.00396427
0.00397773
0.00399575
0.00401548
0.00403918
0.00406506
0.00409454
0.00412649
0.00416178
0.00419969
0.00424076
0.0042845
0.00433122
0.00438059
0.00443277
0.00448749
0.0045448
0.00460449
0.0046665
0.00473062
0.00479673
0.00486461
0.00493409
0.00500488
0.00507678
0.00514948
0.00522271
0.00529612
0.00536942
0.00544222
0.00551422
0.00558496
0.00565421
0.00572143
0.00578647
0.00584873
0.00590819
0.00596416
0.00601684
0.00606538
0.00611034
0.00615058
0.00618719
0.00621852
0.0062465
0.00626863
0.00628806
0.00630092
0.00631232
0.00631608
0.00632049
0.00631568
0.00631501
0.00630295
0.00392948
0.0039211
0.00392324
0.00392287
0.00393016
0.00393698
0.00394955
0.00396296
0.00398103
0.00400076
0.00402453
0.00405047
0.00408005
0.0041121
0.00414755
0.00418563
0.00422692
0.00427093
0.00431797
0.00436771
0.00442032
0.00447554
0.00453342
0.00459374
0.00465647
0.00472138
0.00478837
0.0048572
0.0049277
0.00499959
0.00507266
0.00514658
0.00522109
0.00529581
0.00537045
0.00544459
0.00551792
0.00558997
0.00566046
0.00572887
0.00579499
0.00585822
0.00591853
0.0059752
0.00602844
0.00607737
0.00612257
0.00616286
0.00619941
0.00623051
0.00625817
0.00627981
0.00629876
0.00631095
0.00632177
0.00632475
0.00632857
0.00632292
0.00632181
0.00630911
0.00391282
0.00390429
0.00390649
0.00390606
0.00391344
0.00392023
0.00393289
0.00394629
0.00396444
0.00398419
0.00400804
0.00403404
0.00406372
0.00409589
0.0041315
0.00416977
0.00421131
0.00425559
0.00430298
0.00435313
0.00440622
0.00446199
0.0045205
0.00458153
0.00464506
0.00471087
0.00477884
0.00484875
0.00492041
0.00499355
0.00506794
0.00514325
0.00521921
0.00529541
0.00537157
0.00544722
0.00552205
0.00559555
0.00566744
0.00573714
0.00580446
0.00586874
0.00592994
0.00598732
0.0060411
0.00609035
0.0061357
0.00617594
0.00621228
0.00624296
0.00627014
0.00629111
0.00630941
0.00632081
0.00633096
0.00633314
0.00633641
0.00633009
0.00632865
0.00631556
0.00389107
0.00388236
0.00388453
0.00388395
0.00389132
0.00389803
0.00391071
0.00392409
0.00394229
0.00396208
0.00398601
0.00401211
0.00404195
0.00407429
0.00411013
0.00414868
0.00419055
0.00423524
0.00428311
0.00433381
0.00438755
0.00444406
0.00450341
0.0045654
0.00463
0.00469698
0.00476626
0.00483758
0.00491078
0.00498556
0.00506169
0.00513884
0.00521671
0.00529488
0.00537304
0.00545071
0.00552755
0.00560301
0.00567678
0.00574826
0.0058172
0.00588294
0.00594541
0.00600383
0.00605842
0.00610822
0.00615388
0.00619416
0.00623034
0.00626061
0.00628723
0.00630743
0.00632492
0.00633533
0.00634456
0.00634571
0.00634814
0.00634093
0.00633897
0.00632538
0.00386615
0.00385736
0.00385956
0.00385893
0.00386634
0.00387304
0.00388577
0.00389916
0.00391743
0.00393726
0.0039613
0.00398749
0.00401749
0.00405001
0.00408609
0.00412492
0.00416716
0.00421227
0.00426066
0.00431196
0.0043664
0.00442373
0.00448402
0.00454705
0.00461283
0.00468113
0.00475186
0.00482477
0.00489969
0.00497632
0.00505443
0.00513366
0.00521369
0.00529411
0.00537456
0.00545453
0.00553365
0.00561134
0.00568726
0.00576074
0.00583154
0.00589892
0.0059628
0.00602235
0.00607779
0.00612814
0.00617407
0.00621429
0.00625016
0.00627984
0.00630569
0.00632492
0.00634136
0.00635058
0.00635872
0.00635871
0.00636022
0.0063521
0.00634962
0.00633559
0.00383646
0.00382755
0.00382972
0.003829
0.00383641
0.00384305
0.0038558
0.00386918
0.0038875
0.00390738
0.00393152
0.00395783
0.003988
0.00402074
0.00405711
0.00409629
0.00413895
0.00418457
0.00423357
0.00428559
0.00434087
0.00439916
0.00446055
0.00452484
0.00459203
0.00466189
0.00473435
0.00480916
0.00488614
0.00496499
0.00504547
0.0051272
0.00520986
0.00529299
0.00537621
0.00545899
0.00554091
0.00562134
0.00569989
0.00577587
0.00584896
0.00591839
0.00598403
0.00604503
0.00610157
0.00615263
0.00619891
0.0062391
0.00627462
0.0063036
0.00632853
0.00634655
0.0063617
0.00636947
0.00637621
0.00637475
0.00637507
0.00636581
0.00636264
0.00634804
0.00380334
0.00379433
0.00379651
0.00379574
0.00380317
0.00380979
0.00382257
0.00383595
0.00385432
0.00387425
0.00389848
0.0039249
0.00395524
0.00398819
0.00402483
0.00406435
0.00410745
0.0041536
0.00420323
0.00425601
0.00431217
0.00437149
0.00443407
0.00449971
0.00456842
0.00464
0.00471436
0.00479126
0.00487053
0.00495186
0.00503498
0.00511953
0.00520514
0.00529134
0.00537771
0.00546368
0.00554879
0.00563235
0.00571393
0.00579276
0.00586847
0.00594023
0.00600788
0.00607049
0.00612823
0.00618005
0.00622665
0.0062667
0.00630169
0.00632974
0.00635345
0.00636997
0.0063835
0.00638949
0.00639454
0.00639139
0.00639031
0.00637978
0.00637583
0.00636065
0.00376561
0.00375647
0.00375863
0.00375777
0.00376518
0.00377175
0.00378453
0.00379789
0.00381629
0.00383625
0.00386057
0.0038871
0.00391761
0.00395078
0.00398772
0.00402761
0.00407118
0.0041179
0.00416823
0.00422183
0.00427897
0.00433943
0.00440333
0.00447048
0.00454091
0.00461441
0.00469092
0.0047702
0.00485207
0.00493622
0.00502239
0.00511017
0.0051992
0.00528897
0.00537902
0.00546872
0.00555758
0.00564484
0.00572999
0.00581221
0.00589105
0.00596561
0.00603565
0.00610019
0.00615938
0.00621209
0.00625906
0.00629892
0.00633324
0.00636013
0.00638233
0.00639699
0.0064085
0.00641232
0.00641527
0.00641005
0.00640723
0.00639515
0.00639025
0.00637438
0.00372426
0.003715
0.00371715
0.00371621
0.00372362
0.00373014
0.00374292
0.00375625
0.00377467
0.00379463
0.00381901
0.00384562
0.00387627
0.00390962
0.00394683
0.00398706
0.00403108
0.00407836
0.00412938
0.00418381
0.00424196
0.00430359
0.00436887
0.00443762
0.00450987
0.00458543
0.00466426
0.00474611
0.00483083
0.00491809
0.00500762
0.005099
0.00519185
0.00528562
0.00537982
0.00547376
0.00556687
0.00565835
0.00574761
0.00583371
0.00591615
0.00599391
0.0060667
0.00613345
0.00619424
0.00624792
0.00629521
0.00633474
0.00636812
0.00639353
0.00641379
0.00642614
0.00643514
0.0064363
0.00643668
0.00642899
0.00642409
0.00641024
0.0064042
0.00638761
0.00367834
0.00366893
0.00367105
0.00367
0.00367738
0.00368382
0.00369656
0.00370984
0.00372823
0.00374819
0.00377259
0.00379926
0.00383003
0.00386355
0.00390101
0.00394158
0.00398604
0.00403389
0.00408562
0.00414092
0.00420011
0.00426299
0.00432974
0.00440018
0.00447439
0.0045522
0.00463355
0.00471824
0.00480609
0.00489679
0.00499008
0.00508551
0.00518267
0.00528098
0.00537991
0.00547871
0.00557674
0.00567311
0.00576713
0.00585778
0.00594443
0.00602597
0.00610198
0.00617132
0.00623399
0.00628879
0.00633639
0.00637546
0.00640764
0.00643118
0.00644902
0.0064585
0.00646438
0.00646228
0.0064595
0.00644881
0.00644136
0.00642539
0.00641799
0.00640059
0.00362871
0.00361915
0.00362124
0.00362009
0.00362743
0.00363377
0.00364646
0.00365964
0.00367798
0.00369787
0.00372225
0.00374891
0.00377973
0.00381336
0.003851
0.00389185
0.0039367
0.00398505
0.00403744
0.00409358
0.00415379
0.00421791
0.00428614
0.00435833
0.00443458
0.00451472
0.00459875
0.00468645
0.00477767
0.00487212
0.0049695
0.00506937
0.0051713
0.00527468
0.00537891
0.00548319
0.0055868
0.00568875
0.00578823
0.00588411
0.00597562
0.00606153
0.00614128
0.0062136
0.0062784
0.00633442
0.00638229
0.00642068
0.00645128
0.00647243
0.00648721
0.00649314
0.00649514
0.00648905
0.0064824
0.00646811
0.0064576
0.00643916
0.00643014
0.00641189
0.00357446
0.00356473
0.00356677
0.00356548
0.00357275
0.00357895
0.00359154
0.0036046
0.00362284
0.00364262
0.00366694
0.00369355
0.00372438
0.00375806
0.00379585
0.00383692
0.00388211
0.00393094
0.00398396
0.0040409
0.00410213
0.00416749
0.00423723
0.00431121
0.00438958
0.00447218
0.00455904
0.00464996
0.00474482
0.00484332
0.00494518
0.00504995
0.00515717
0.00526621
0.00537641
0.00548691
0.00559689
0.00570524
0.00581104
0.00591301
0.00601019
0.00610122
0.00618535
0.00626119
0.00632847
0.00638589
0.00643398
0.00647146
0.00650002
0.00651819
0.00652914
0.00653065
0.00652785
0.00651687
0.00650545
0.00648682
0.00647257
0.00645121
0.00644026
0.00642108
0.0035165
0.00350661
0.0035086
0.00350716
0.00351434
0.00352037
0.00353283
0.0035457
0.00356378
0.00358337
0.00360753
0.00363399
0.00366473
0.00369835
0.00373617
0.00377735
0.00382277
0.00387196
0.0039255
0.00398315
0.00404531
0.00411185
0.00418304
0.0042588
0.00433928
0.00442439
0.00451417
0.00460845
0.00470714
0.00480996
0.00491664
0.00502673
0.00513976
0.00525506
0.00537191
0.00548939
0.00560656
0.00572223
0.00583526
0.00594425
0.00604803
0.00614503
0.00623428
0.00631423
0.0063844
0.0064434
0.00649163
0.00652789
0.00655384
0.00656824
0.00657438
0.00657042
0.00656165
0.00654469
0.00652743
0.00650357
0.00648481
0.00646005
0.0064468
0.00642667
0.00345379
0.0034437
0.00344562
0.00344399
0.00345105
0.00345687
0.00346915
0.00348177
0.00349964
0.00351898
0.00354293
0.00356918
0.00359975
0.00363324
0.003671
0.00371221
0.00375777
0.00380722
0.0038612
0.00391947
0.00398248
0.00405012
0.00412272
0.00420022
0.00428282
0.00437046
0.00446324
0.00456101
0.00466373
0.00477114
0.004883
0.00499885
0.00511823
0.00524043
0.0053647
0.00549003
0.00561537
0.00573939
0.00586077
0.00597792
0.0060894
0.00619344
0.00628874
0.00637358
0.00644715
0.00650801
0.00655632
0.00659101
0.00661364
0.00662334
0.00662344
0.0066127
0.00659653
0.00657221
0.00654779
0.00651763
0.0064934
0.00646464
0.00644865
0.00642754
0.00338751
0.00337724
0.00337908
0.00337725
0.00338415
0.00338972
0.00340175
0.00341406
0.0034316
0.00345059
0.00347419
0.00350008
0.00353032
0.00356353
0.00360106
0.00364211
0.00368762
0.00373716
0.00379138
0.00385009
0.00391378
0.00398236
0.00405622
0.00413533
0.00421996
0.00431009
0.00440585
0.00450717
0.00461403
0.00472623
0.00484355
0.00496558
0.00509182
0.00522157
0.00535403
0.00548812
0.00562266
0.00575619
0.00588717
0.00601378
0.00613426
0.00624659
0.00634906
0.00643971
0.00651734
0.00658038
0.00662871
0.00666137
0.00667981
0.00668362
0.00667619
0.00665702
0.00663165
0.00659835
0.00656513
0.0065274
0.00649658
0.00646317
0.00644392
0.00642186
0.00331625
0.00330576
0.00330749
0.00330541
0.00331211
0.00331736
0.0033291
0.00334103
0.00335821
0.00337676
0.00339994
0.00342539
0.00345522
0.00348803
0.00352521
0.00356598
0.00361131
0.00366077
0.00371509
0.00377407
0.00383826
0.00390763
0.00398259
0.00406318
0.00414971
0.00424223
0.00434093
0.00444581
0.0045569
0.00467406
0.00479711
0.00492569
0.00505932
0.0051973
0.00533878
0.00548263
0.00562754
0.00577191
0.00591393
0.00605155
0.00618261
0.00630477
0.00641581
0.00651348
0.00659602
0.00666174
0.00671004
0.00674018
0.00675335
0.00674983
0.00673295
0.00670332
0.00666652
0.00662218
0.00657818
0.00653133
0.00649256
0.00645374
0.00643065
0.0064077
0.00324172
0.00323104
0.00323266
0.00323032
0.00323678
0.00324167
0.00325302
0.00326446
0.00328112
0.00329909
0.00332167
0.00334648
0.00337567
0.00340784
0.00344444
0.00348467
0.00352954
0.00357866
0.00363278
0.00369176
0.00375617
0.00382603
0.00390181
0.00398362
0.00407181
0.00416652
0.004268
0.00437633
0.00449162
0.00461379
0.00474275
0.00487818
0.00501965
0.0051665
0.00531782
0.00547248
0.005629
0.00578566
0.00594035
0.00609077
0.00623425
0.00636811
0.00648946
0.00659565
0.00668421
0.00675325
0.00680152
0.00682855
0.00683515
0.00682247
0.00679375
0.00675113
0.00670012
0.00664223
0.00658502
0.00652727
0.00647895
0.00643392
0.0064063
0.00638259
0.00316187
0.00315092
0.00315239
0.00314973
0.0031559
0.00316035
0.00317127
0.00318216
0.00319825
0.00321557
0.00323747
0.00326155
0.00329001
0.00332142
0.00335728
0.0033968
0.00344103
0.0034896
0.00354329
0.003602
0.00366637
0.00373645
0.00381277
0.0038955
0.00398508
0.00408172
0.00418576
0.00429736
0.00441673
0.00454391
0.00467886
0.00482138
0.0049711
0.00512741
0.00528941
0.00545595
0.00562543
0.00579601
0.00596525
0.00613056
0.00628871
0.00643655
0.00657038
0.00668706
0.00678313
0.00685641
0.00690478
0.00692805
0.00692646
0.00690237
0.0068588
0.00679997
0.00673124
0.00665671
0.00658334
0.00651254
0.00645283
0.00640067
0.00636778
0.00634356
0.00307928
0.00306814
0.00306946
0.00306647
0.0030723
0.00307625
0.00308662
0.00309681
0.00311215
0.00312859
0.00314957
0.00317265
0.00320008
0.00323043
0.00326522
0.00330368
0.0033469
0.00339453
0.0034474
0.00350543
0.00356932
0.00363917
0.00371559
0.00379881
0.00388934
0.00398749
0.00409369
0.00420823
0.0043314
0.00446338
0.00460425
0.00475395
0.00491217
0.00507843
0.00525186
0.00543135
0.00561518
0.00580142
0.00598728
0.00616989
0.00634533
0.00650993
0.00665894
0.00678859
0.00689413
0.00697295
0.00702167
0.00704047
0.00702873
0.00699039
0.00692816
0.00684906
0.00675823
0.00666326
0.00657016
0.00648387
0.00641064
0.00635047
0.00631148
0.00628714
0.00299082
0.00297938
0.00298049
0.00297709
0.00298253
0.00298592
0.00299568
0.00300514
0.00301968
0.0030352
0.00305521
0.00307721
0.00310351
0.00313266
0.00316623
0.00320344
0.00324542
0.00329184
0.00334358
0.00340059
0.00346363
0.00353285
0.00360892
0.00369216
0.00378317
0.00388234
0.00399022
0.00410724
0.0042338
0.00437026
0.00451683
0.00467361
0.00484045
0.00501702
0.00520253
0.00539597
0.00559555
0.00579929
0.00600408
0.00620673
0.00640257
0.00658731
0.00675493
0.0069008
0.00701846
0.00710469
0.00715434
0.00716793
0.00714364
0.00708748
0.00700168
0.00689714
0.00677865
0.00665856
0.00654143
0.00643687
0.0063478
0.00627878
0.00623288
0.00620904
0.00290052
0.00288888
0.00288981
0.00288601
0.002891
0.00289373
0.00290275
0.00291127
0.00292477
0.00293909
0.0029578
0.00297837
0.00300316
0.0030307
0.00306261
0.00309811
0.00313837
0.00318308
0.00323315
0.00328858
0.00335017
0.00341814
0.00349322
0.00357581
0.00366659
0.00376609
0.00387495
0.00399375
0.00412306
0.0042634
0.00441517
0.00457869
0.00475399
0.00494097
0.00513898
0.00534719
0.00556383
0.00578693
0.00601309
0.00623883
0.00645866
0.00666758
0.00685801
0.00702423
0.00715755
0.00725377
0.00730533
0.007313
0.00727325
0.00719471
0.00707907
0.00694242
0.00678925
0.00663826
0.00649203
0.00636615
0.0062588
0.00618032
0.00612677
0.00610433
0.00280349
0.00279147
0.00279214
0.00278783
0.00279232
0.00279434
0.0028026
0.00281017
0.00282264
0.00283576
0.00285315
0.00287226
0.00289548
0.00292132
0.00295143
0.00298503
0.00302333
0.00306602
0.00311406
0.0031675
0.00322715
0.00329333
0.0033668
0.00344807
0.0035379
0.00363694
0.00374597
0.00386573
0.00399693
0.00414035
0.00429657
0.0044662
0.00464948
0.00484666
0.00505729
0.00528084
0.00551562
0.00575984
0.00600985
0.006262
0.00650992
0.00674783
0.00696631
0.00715824
0.00731203
0.00742196
0.00747718
0.00747836
0.00741958
0.00731279
0.0071591
0.00698167
0.00678483
0.00659589
0.00641469
0.00626443
0.00613656
0.00604857
0.00598694
0.00596726
0.00270601
0.00269382
0.00269426
0.00268949
0.00269341
0.00269462
0.00270192
0.00270828
0.00271939
0.00273093
0.0027466
0.00276378
0.00278493
0.00280854
0.0028363
0.00286741
0.00290313
0.00294315
0.00298848
0.00303919
0.00309614
0.00315969
0.00323068
0.00330969
0.00339758
0.00349512
0.00360321
0.00372278
0.00385471
0.00400003
0.00415954
0.00433421
0.00452456
0.00473123
0.0049541
0.00519306
0.00544668
0.00571345
0.00598966
0.00627159
0.00655206
0.00682448
0.00707733
0.00730165
0.00748221
0.00761097
0.00767256
0.00766693
0.00758483
0.00744216
0.00723961
0.00700995
0.00675795
0.00652245
0.00629967
0.00612223
0.00597217
0.00587553
0.00580591
0.00579095
0.00260042
0.00258776
0.00258787
0.00258248
0.00258581
0.00258616
0.00259255
0.00259778
0.00260763
0.00261769
0.00263172
0.00264705
0.00266617
0.00268754
0.00271286
0.00274135
0.00277427
0.00281134
0.00285356
0.00290107
0.00295474
0.003015
0.00308272
0.0031586
0.00324355
0.00333849
0.00344442
0.00356248
0.00369373
0.00383947
0.00400076
0.00417896
0.00437492
0.0045898
0.00482388
0.00507767
0.00535012
0.00564029
0.00594458
0.00625948
0.00657713
0.00689022
0.00718495
0.0074501
0.00766587
0.00782072
0.00789305
0.00788081
0.00777006
0.00758134
0.00731541
0.00701818
0.00669628
0.00640401
0.00613297
0.00592701
0.00575487
0.00565247
0.00557618
0.00556881
0.00249657
0.00248375
0.00248361
0.0024777
0.00248036
0.00247973
0.00248493
0.00248868
0.00249682
0.0025049
0.00251673
0.0025296
0.00254604
0.00256448
0.00258667
0.0026118
0.00264115
0.00267446
0.00271275
0.00275615
0.00280558
0.00286152
0.00292486
0.0029964
0.00307708
0.00316798
0.00327019
0.00338505
0.00351378
0.00365799
0.00381899
0.00399858
0.00419798
0.00441899
0.00466236
0.00492941
0.00521967
0.00553305
0.00586639
0.00621671
0.00657583
0.0069359
0.00728085
0.00759678
0.00785833
0.00804886
0.0081383
0.00812044
0.00797457
0.00772605
0.00737693
0.00699127
0.00658047
0.00621967
0.00589432
0.00566118
0.00546994
0.00536757
0.00528776
0.005292
0.00238236
0.00236894
0.00236842
0.00236176
0.00236374
0.00236215
0.00236635
0.0023688
0.00237552
0.0023819
0.00239181
0.00240247
0.00241644
0.00243212
0.00245124
0.002473
0.00249867
0.002528
0.00256199
0.00260083
0.00264541
0.00269628
0.00275433
0.00282046
0.00289562
0.00298106
0.00307789
0.00318771
0.00331184
0.00345222
0.00361039
0.00378863
0.00398855
0.00421264
0.00446227
0.0047397
0.00504526
0.00538005
0.00574174
0.00612841
0.00653208
0.00694489
0.00734878
0.00772698
0.00804761
0.00828676
0.00840262
0.00838097
0.0081913
0.0078637
0.00740398
0.00690129
0.00637766
0.00593632
0.00555453
0.00530248
0.0051019
0.00501131
0.00493467
0.00495621
0.00227325
0.00225971
0.00225893
0.00225172
0.00225293
0.00225021
0.002253
0.00225368
0.00225835
0.00226232
0.00226954
0.00227718
0.00228783
0.00229986
0.00231502
0.0023325
0.00235354
0.00237793
0.00240661
0.00243983
0.00247843
0.00252301
0.00257444
0.00263369
0.0027017
0.00277986
0.00286928
0.00297179
0.00308874
0.00322245
0.00337457
0.00354795
0.0037445
0.0039675
0.00421892
0.00450216
0.00481853
0.00517067
0.00555748
0.00597876
0.00642747
0.00689651
0.00736662
0.00781821
0.00821228
0.00851508
0.00866919
0.00864668
0.00840249
0.0079692
0.00736093
0.00670221
0.00603607
0.00550386
0.00507075
0.00481942
0.00462835
0.0045693
0.00450694
0.00455331
0.00215018
0.00213583
0.00213461
0.00212653
0.00212704
0.00212329
0.00212506
0.0021244
0.00212758
0.00212974
0.00213488
0.00214007
0.00214792
0.00215675
0.00216828
0.00218171
0.00219821
0.0022176
0.00224076
0.00226799
0.00230004
0.00233761
0.00238145
0.00243268
0.00249211
0.00256132
0.00264132
0.00273418
0.00284121
0.00296508
0.00310747
0.00327178
0.00346011
0.0036766
0.0039237
0.00420613
0.00452614
0.0048883
0.0052931
0.00574278
0.00623215
0.00675618
0.00729566
0.00782926
0.00831069
0.00869367
0.00889954
0.00887847
0.00856524
0.00799328
0.00718979
0.00632646
0.00548455
0.00485674
0.00439262
0.00418236
0.00403663
0.0040419
0.00401136
0.00409151
0.0020373
0.00202292
0.00202147
0.00201284
0.00201252
0.00200751
0.00200767
0.00200496
0.00200574
0.00200507
0.00200703
0.00200865
0.00201253
0.002017
0.00202375
0.00203197
0.00204279
0.00205604
0.00207251
0.00209255
0.00211676
0.00214596
0.00218071
0.00222226
0.00227125
0.00232941
0.00239756
0.00247803
0.0025719
0.00268223
0.00281055
0.00296076
0.00313499
0.00333817
0.00357305
0.00384564
0.00415907
0.00451993
0.00493048
0.00539598
0.00591389
0.00648256
0.00708463
0.00769845
0.00827133
0.00874205
0.00900754
0.0089916
0.00860364
0.00786997
0.00683458
0.00572538
0.00467817
0.00395464
0.00348832
0.00337489
0.00331842
0.00343037
0.00345164
0.00357333
0.00190471
0.00188922
0.00188726
0.00187764
0.00187668
0.00187069
0.00186996
0.00186604
0.00186547
0.00186307
0.00186299
0.00186212
0.00186307
0.0018641
0.00186683
0.00187048
0.00187604
0.00188342
0.00189323
0.00190595
0.00192196
0.00194221
0.00196701
0.00199781
0.0020349
0.00208029
0.0021344
0.00219987
0.00227737
0.00237035
0.00247989
0.00261047
0.00276379
0.00294561
0.00315845
0.0034096
0.00370243
0.00404561
0.00444264
0.00490214
0.00542432
0.00601223
0.00665173
0.00732306
0.00796734
0.00850682
0.00881285
0.00878709
0.00832613
0.00746283
0.00624386
0.00493054
0.0037007
0.00289251
0.00244517
0.00247129
0.00253793
0.00279436
0.0028788
0.00304147
0.00179011
0.00177472
0.00177262
0.0017625
0.0017607
0.00175336
0.00175084
0.0017446
0.00174128
0.00173566
0.00173191
0.00172694
0.00172331
0.00171933
0.00171651
0.00171412
0.00171301
0.00171316
0.00171496
0.00171902
0.00172541
0.00173529
0.00174855
0.00176688
0.00179012
0.00182055
0.00185802
0.00190553
0.00196305
0.00203448
0.00212009
0.00222491
0.00234972
0.00250098
0.00268034
0.00289601
0.00315074
0.00345466
0.00381135
0.00423192
0.00471815
0.00527691
0.00589617
0.00655464
0.00717941
0.00766652
0.00787228
0.00772419
0.00715466
0.00623963
0.00504994
0.00382728
0.00267605
0.00193506
0.00154279
0.00168644
0.00182395
0.00221402
0.00233583
0.00251853
0.00164661
0.00162963
0.00162698
0.00161577
0.00161354
0.00160543
0.00160242
0.00159536
0.00159112
0.00158419
0.00157876
0.00157161
0.00156522
0.00155788
0.00155094
0.00154377
0.00153694
0.00153066
0.00152492
0.00152062
0.00151737
0.00151665
0.0015178
0.0015229
0.00153106
0.00154505
0.0015638
0.0015909
0.00162518
0.00167118
0.00172777
0.00180067
0.00188897
0.00199986
0.00213287
0.002297
0.00249247
0.00273018
0.00301083
0.00334634
0.00373534
0.00418457
0.00467368
0.00516155
0.00552337
0.00559229
0.00521384
0.00443889
0.00341125
0.00247335
0.00172362
0.00128325
0.000994518
0.000970215
0.00100062
0.00132976
0.00144135
0.00186268
0.00193004
0.0020812
0.00153301
0.00151635
0.00151373
0.00150217
0.00149915
0.00148964
0.00148468
0.00147504
0.00146771
0.00145715
0.00144758
0.00143585
0.00142431
0.00141141
0.00139824
0.00138438
0.00137002
0.00135565
0.00134079
0.00132666
0.00131226
0.00129951
0.00128694
0.0012772
0.00126839
0.00126395
0.00126153
0.00126549
0.00127306
0.00128963
0.00131203
0.00134686
0.00139057
0.00145108
0.0015245
0.00162007
0.00173336
0.0018744
0.00203715
0.00222989
0.00243999
0.00266076
0.00283523
0.00284155
0.00240391
0.00121104
-0.000786002
-0.00305854
-0.00500842
-0.00599999
-0.00597325
-0.00486932
-0.00321548
-0.00128328
0.000197021
0.00129746
0.00146882
0.00177723
0.00165285
0.0017015
0.00137599
0.001357
0.00135384
0.00134109
0.00133808
0.00132831
0.00132362
0.001314
0.00130666
0.00129571
0.00128529
0.0012722
0.0012585
0.00124283
0.00122584
0.00120748
0.00118735
0.00116646
0.00114358
0.00112058
0.00109554
0.00107115
0.00104479
0.00102005
0.000993543
0.000969819
0.000944696
0.000923788
0.00090197
0.000886065
0.000869816
0.000861339
0.00085296
0.000853991
0.000854811
0.000865329
0.000872717
0.000885437
0.000883862
0.000868349
0.000799119
0.000634627
0.000221973
-0.000738488
-0.00278987
-0.00631205
-0.0108564
-0.0151282
-0.0182111
-0.0193413
-0.0185862
-0.0158131
-0.0117775
-0.00689005
-0.00249764
0.000588004
0.00173611
0.00190355
0.00145595
0.00137714
0.00126708
0.00124877
0.00124592
0.00123311
0.00122945
0.00121826
0.00121146
0.00119899
0.00118814
0.00117316
0.00115808
0.00113997
0.00112058
0.00109893
0.00107513
0.00104965
0.00102134
0.000991858
0.000959008
0.000925506
0.000888163
0.000850746
0.00080905
0.000767948
0.000722095
0.000677592
0.000627745
0.000580023
0.000526074
0.000474853
0.000415889
0.000359591
0.000292649
0.000226477
0.000143598
5.4876e-05
-6.42897e-05
-0.0002082
-0.000416551
-0.00070346
-0.00115358
-0.00187394
-0.00317668
-0.00560949
-0.00996502
-0.01638
-0.023517
-0.0293712
-0.0331784
-0.0343328
-0.0331537
-0.0293832
-0.0238737
-0.0165175
-0.00888134
-0.00236349
0.00110676
0.00185088
0.00100481
0.000891598
0.0010919
0.00107014
0.00106679
0.00105278
0.00104994
0.00103947
0.00103432
0.00102341
0.00101413
0.00100044
0.000985993
0.000968074
0.000947724
0.000924581
0.000897793
0.000868757
0.000835122
0.000799731
0.000758902
0.000716801
0.000668414
0.000619246
0.000562825
0.000506118
0.000440931
0.000375889
0.000300678
0.000225806
0.000138252
5.05852e-05
-5.38036e-05
-0.000160326
-0.000290593
-0.000428692
-0.000603808
-0.000801188
-0.00106313
-0.00138362
-0.0018326
-0.00243789
-0.00335043
-0.00475316
-0.00715271
-0.0113075
-0.0181151
-0.0270863
-0.0359692
-0.0424653
-0.0463927
-0.0472915
-0.0458256
-0.0416012
-0.0357843
-0.0276109
-0.0183212
-0.00856274
-0.00164889
0.00146617
0.000178378
0.000180924
0.000992692
0.000972197
0.000969631
0.000956056
0.000952787
0.000940955
0.000933436
0.000919329
0.000905971
0.00088776
0.000867989
0.000844625
0.000817964
0.000788563
0.00075442
0.000718139
0.000675807
0.000631802
0.00058045
0.000527835
0.000466456
0.000404192
0.000331475
0.000258191
0.000172275
8.59344e-05
-1.60401e-05
-0.00011876
-0.000241521
-0.000366439
-0.000518305
-0.000676215
-0.000872695
-0.00108469
-0.00135648
-0.00166623
-0.00207839
-0.00258306
-0.00328653
-0.00422687
-0.00562922
-0.00774212
-0.0112456
-0.0170102
-0.0258701
-0.0366224
-0.0464715
-0.0531427
-0.0570594
-0.0576503
-0.0558284
-0.0510269
-0.0451184
-0.0369987
-0.027833
-0.0169766
-0.00652604
-0.000938578
-0.000362578
-0.0012514
0.000791521
0.000765826
0.00076292
0.000748291
0.000747271
0.00073795
0.000734366
0.000724471
0.000715225
0.000701171
0.000684374
0.000663838
0.000638129
0.000609482
0.000573775
0.000535792
0.0004891
0.000440718
0.000381954
0.000322043
0.00024983
0.000176963
8.93825e-05
1.53743e-06
-0.00010423
-0.000210133
-0.000338448
-0.000467387
-0.000625326
-0.000785793
-0.000985466
-0.00119273
-0.00145605
-0.00173911
-0.00210821
-0.00252564
-0.00308766
-0.00376708
-0.00471961
-0.00597073
-0.00783177
-0.0105613
-0.0149838
-0.0219344
-0.0321912
-0.0440343
-0.0545971
-0.0615977
-0.0658825
-0.0664061
-0.0642257
-0.0584805
-0.0520032
-0.0436986
-0.0353657
-0.0248595
-0.0131322
-0.00503202
-0.000424154
-0.00349288
0.000708903
0.000685409
0.000684048
0.000670686
0.000669571
0.000659004
0.000652596
0.000639016
0.000624732
0.000605495
0.000582315
0.000555863
0.000522921
0.000487885
0.000444113
0.000399108
0.000343185
0.000286735
0.000217024
0.000147434
6.18459e-05
-2.30013e-05
-0.000127277
-0.000230264
-0.000357212
-0.00048257
-0.000638159
-0.000792506
-0.000986157
-0.00118048
-0.0014279
-0.00168147
-0.00201041
-0.00235902
-0.0028216
-0.00333603
-0.00403747
-0.00486855
-0.00604104
-0.00754428
-0.00977235
-0.0129322
-0.0179421
-0.0254862
-0.0363956
-0.0487527
-0.05997
-0.0674979
-0.0723881
-0.072972
-0.0705477
-0.0638412
-0.0565841
-0.0477833
-0.0401734
-0.030583
-0.0199313
-0.0093286
-0.0029022
-0.00550581
0.000468829
0.000437405
0.000436113
0.000422243