/*--------------------------------*- C++ -*----------------------------------*\
| =========                 |                                                 |
| \\      /  F ield         | OpenFOAM: The Open Source CFD Toolbox           |
|  \\    /   O peration     | Version:  2406                                  |
|   \\  /    A nd           | Website:  www.openfoam.com                      |
|    \\/     M anipulation  |                                                 |
\*---------------------------------------------------------------------------*/
FoamFile
{
    version     2.0;
    format      ascii;
    arch        "LSB;label=32;scalar=64";
    class       volScalarField;
    location    "12.2";
    object      p;
}
// * * * * * * * * * * * * * * * * * * * * * * * * * * * * * * * * * * * * * //

dimensions      [0 2 -2 0 0 0 0];

internalField   nonuniform List<scalar> 
900
(
-4.79899e-09
-2.04165e-05
-5.16381e-05
-9.03311e-05
-0.000137697
-0.000191682
-0.000247821
-0.000299134
-0.000336434
-0.000348553
-0.000322731
-0.00024535
-0.000103208
0.000114233
0.00041074
0.000779545
0.00119812
0.00162501
0.00200268
0.00226708
0.00236735
0.00228806
0.00206014
0.00175212
0.00143858
0.00117138
0.000973707
0.000845749
0.000781903
0.000762338
2.3413e-05
3.48563e-06
-2.75034e-05
-6.508e-05
-0.000112867
-0.000168775
-0.000228289
-0.00028462
-0.000329115
-0.000351331
-0.000339121
-0.000278713
-0.000155602
4.28869e-05
0.000324577
0.000687287
0.00111111
0.00155499
0.0019575
0.00224598
0.00235948
0.00227691
0.00203189
0.0017023
0.00137545
0.0011102
0.00092475
0.000810512
0.000757643
0.000741378
4.51458e-05
2.6562e-05
-4.42523e-06
-4.15967e-05
-9.19336e-05
-0.000153624
-0.000222698
-0.000293027
-0.000356802
-0.000404164
-0.000422915
-0.000398226
-0.000313252
-0.000151305
9.89528e-05
0.000438883
0.000858974
0.00132449
0.00176926
0.00210921
0.00226721
0.00220636
0.0019543
0.00159867
0.00124835
0.000979722
0.000807718
0.000713045
0.00067524
0.00066278
4.41871e-05
2.65635e-05
-6.12803e-06
-4.59617e-05
-0.000103246
-0.000177153
-0.000264977
-0.000361536
-0.000459765
-0.000550278
-0.000621489
-0.000659729
-0.000649635
-0.000573143
-0.000410954
-0.000150128
0.000207829
0.000651377
0.00113454
0.00157633
0.0018796
0.00195973
0.00179168
0.00144789
0.00107149
0.000778122
0.000611929
0.00053827
0.000518191
0.000513105
-1.84325e-06
-1.86623e-05
-5.43844e-05
-0.00010004
-0.000168615
-0.000260446
-0.000374292
-0.000505999
-0.000649995
-0.000800671
-0.000954764
-0.00111132
-0.0012666
-0.00141151
-0.00153128
-0.00158169
-0.00149405
-0.00122666
-0.000771049
-0.000179924
0.000436314
0.000935236
0.00118359
0.00113209
0.000866058
0.000567917
0.000378656
0.000311885
0.000304015
0.000303756
-0.000113237
-0.00013008
-0.000170445
-0.000224959
-0.000308593
-0.000422814
-0.00056788
-0.000741608
-0.00094423
-0.00118471
-0.00148732
-0.00189419
-0.00245074
-0.00316086
-0.00395644
-0.00468738
-0.00515179
-0.00522104
-0.00489131
-0.00417522
-0.00313574
-0.0019246
-0.000771042
5.46692e-05
0.000398672
0.000353153
0.000173043
6.61267e-05
5.47463e-05
4.63479e-05
-0.000305302
-0.000323457
-0.000370336
-0.000436566
-0.000538507
-0.00067883
-0.000859963
-0.00108529
-0.00137139
-0.00176534
-0.00236618
-0.00330997
-0.00467111
-0.00635861
-0.00811389
-0.00962703
-0.0106687
-0.0111272
-0.0109636
-0.0101861
-0.00883642
-0.00701603
-0.00489523
-0.00277103
-0.00108527
-0.000192361
-1.34626e-05
-0.000189142
-0.000231503
-0.000258501
-0.000586904
-0.000607978
-0.000663488
-0.000744521
-0.000868428
-0.00103961
-0.00126507
-0.00156165
-0.0019826
-0.00265912
-0.00381833
-0.00566083
-0.00812292
-0.0108428
-0.0133635
-0.0153395
-0.0166449
-0.0172533
-0.0171259
-0.0163169
-0.0149184
-0.0129678
-0.0104487
-0.00743097
-0.00431568
-0.00181651
-0.000532936
-0.000317049
-0.000594463
-0.000609283
-0.000960065
-0.000985924
-0.00105271
-0.00115259
-0.0013039
-0.00151431
-0.00180035
-0.0022047
-0.00284472
-0.00398143
-0.00596074
-0.00888086
-0.0123525
-0.0157475
-0.0185896
-0.0206781
-0.0219648
-0.0224366
-0.0221749
-0.0212826
-0.0198648
-0.0179886
-0.0155957
-0.0125538
-0.00884827
-0.00495352
-0.00196664
-0.000709578
-0.00113735
-0.0010763
-0.0014199
-0.00145261
-0.00153396
-0.00165809
-0.00184475
-0.00210746
-0.00247832
-0.00303816
-0.00399173
-0.00573684
-0.00864515
-0.0125309
-0.0166651
-0.0203866
-0.0234009
-0.0256256
-0.0269916
-0.0274347
-0.0270013
-0.0258093
-0.0240551
-0.0219568
-0.019597
-0.0168267
-0.0133351
-0.00904563
-0.00475473
-0.00193409
-0.00117214
-0.00180216
-0.00195483
-0.00199655
-0.00209596
-0.00225046
-0.00248189
-0.00281213
-0.00329286
-0.00404954
-0.00538037
-0.00777828
-0.011531
-0.0161339
-0.0206716
-0.0246644
-0.0280459
-0.0307299
-0.032478
-0.0330628
-0.0324276
-0.0307388
-0.0283314
-0.0256075
-0.0228493
-0.0200511
-0.0169463
-0.0130682
-0.00831722
-0.00365775
-0.00141158
-0.00298568
-0.00254739
-0.00259975
-0.00272002
-0.00291023
-0.00319449
-0.00360411
-0.00421033
-0.00518077
-0.00688891
-0.00986654
-0.014271
-0.0193777
-0.0242519
-0.0286559
-0.03265
-0.0360052
-0.0382668
-0.0390294
-0.0381847
-0.0359523
-0.0327696
-0.0291867
-0.025703
-0.0225252
-0.019579
-0.0162678
-0.0116895
-0.00611613
-0.00346466
-0.00384786
-0.00317574
-0.0032392
-0.00338113
-0.00360939
-0.00394972
-0.00444171
-0.00517213
-0.00633831
-0.00835523
-0.0117541
-0.0165969
-0.0220704
-0.0272901
-0.0321951
-0.036889
-0.0409413
-0.0436887
-0.0446158
-0.0435824
-0.0408488
-0.0369368
-0.032487
-0.0281829
-0.0244324
-0.0213668
-0.0183985
-0.0143616
-0.00893527
-0.00553325
-0.00340348
-0.00381553
-0.00388874
-0.00405006
-0.00431428
-0.00470686
-0.00527249
-0.00610669
-0.00741758
-0.00962561
-0.0132458
-0.0183161
-0.0240411
-0.0295786
-0.0349247
-0.0401871
-0.0447872
-0.0478992
-0.0489377
-0.0477442
-0.0446139
-0.0401501
-0.0350348
-0.0300584
-0.0257592
-0.0224235
-0.0195945
-0.016245
-0.0114123
-0.00687514
-0.00243917
-0.00444271
-0.00452234
-0.00469712
-0.0049902
-0.00542334
-0.00604266
-0.0069446
-0.00832872
-0.0105887
-0.0142162
-0.0192977
-0.0251251
-0.0308674
-0.0364625
-0.0420028
-0.0468708
-0.0501594
-0.0512422
-0.0499595
-0.0466077
-0.0418557
-0.0363672
-0.0310061
-0.0263471
-0.022797
-0.0200478
-0.0173442
-0.0132595
-0.00830434
-0.00265221
-0.00503604
-0.00511608
-0.00529603
-0.00560648
-0.006062
-0.00670738
-0.00763231
-0.00901267
-0.0111896
-0.0146228
-0.0194921
-0.0252056
-0.0309678
-0.0365776
-0.0420577
-0.0468531
-0.0501001
-0.0511678
-0.0498811
-0.0465097
-0.0417707
-0.0362249
-0.030821
-0.0260576
-0.0225216
-0.0198588
-0.0177202
-0.0143872
-0.00997901
-0.0042721
-0.00557802
-0.00565276
-0.00582893
-0.00613961
-0.00659531
-0.00723624
-0.00813896
-0.00944662
-0.0114327
-0.0145128
-0.0189315
-0.0242851
-0.0298511
-0.0352609
-0.0403891
-0.044794
-0.0477762
-0.0487336
-0.0475529
-0.0444028
-0.039911
-0.0346382
-0.0294883
-0.0249032
-0.0216563
-0.0190953
-0.0175003
-0.0148343
-0.0115339
-0.00636331
-0.00605677
-0.00612124
-0.00628249
-0.00657589
-0.00700939
-0.00761607
-0.00845732
-0.00964309
-0.0113787
-0.0139871
-0.0177581
-0.0225173
-0.0276677
-0.0326886
-0.0373092
-0.0411642
-0.0437515
-0.0445703
-0.0435203
-0.0407035
-0.0366301
-0.0318463
-0.027181
-0.0230623
-0.0202371
-0.0178637
-0.0168254
-0.014649
-0.0126252
-0.00813821
-0.00646812
-0.00651833
-0.00665346
-0.00691164
-0.0073005
-0.00784694
-0.00859907
-0.0096366
-0.0111006
-0.0132136
-0.0162347
-0.0201888
-0.0246818
-0.0291651
-0.0332442
-0.0365471
-0.038722
-0.0393803
-0.0384221
-0.035945
-0.0323852
-0.0282345
-0.024256
-0.02078
-0.0184663
-0.016363
-0.0158545
-0.0139334
-0.0131653
-0.0093241
-0.00681119
-0.00684357
-0.00694351
-0.00715144
-0.00747639
-0.00794252
-0.00858744
-0.0094676
-0.0106723
-0.0123407
-0.0146518
-0.0177056
-0.0213315
-0.0250967
-0.0285785
-0.0313594
-0.0331474
-0.0336468
-0.0327968
-0.030688
-0.0277258
-0.0243223
-0.0211515
-0.0183633
-0.0166098
-0.0147518
-0.0147477
-0.0127728
-0.0132778
-0.00995936
-0.00709417
-0.00710694
-0.00716218
-0.00730278
-0.00754707
-0.00791918
-0.00844941
-0.00917698
-0.0101564
-0.011466
-0.0132074
-0.0154538
-0.0181717
-0.0210843
-0.0238586
-0.0260925
-0.027517
-0.0278986
-0.0272256
-0.0255583
-0.023267
-0.0206489
-0.018281
-0.0161075
-0.0148953
-0.0131814
-0.0137053
-0.011316
-0.0130559
-0.00969132
-0.00732241
-0.00731249
-0.00731641
-0.00737878
-0.00752848
-0.00779768
-0.00821268
-0.00880103
-0.00959618
-0.0106363
-0.0119727
-0.0136256
-0.0155987
-0.0177223
-0.0197882
-0.0214826
-0.0225823
-0.0228904
-0.022417
-0.0211955
-0.0195388
-0.0176051
-0.0159115
-0.0141952
-0.0134636
-0.0117551
-0.0127968
-0.00984958
-0.0125869
-0.00808306
-0.00751956
-0.00748046
-0.00741965
-0.00738325
-0.007428
-0.00759201
-0.00789916
-0.0083684
-0.0090203
-0.00986816
-0.0109363
-0.0122081
-0.0136824
-0.0152394
-0.0167553
-0.0180107
-0.0188495
-0.0191059
-0.0187995
-0.017933
-0.0167694
-0.015331
-0.0141363
-0.0126896
-0.0123784
-0.0105306
-0.0121642
-0.00851635
-0.012115
-0.00614388
-0.00768641
-0.00760839
-0.00747786
-0.00733005
-0.00726057
-0.0073194
-0.00752745
-0.00789984
-0.00844567
-0.00916201
-0.0100585
-0.0111012
-0.012278
-0.0134915
-0.0146601
-0.0156251
-0.0162904
-0.0165171
-0.0163431
-0.0157086
-0.0148797
-0.0137483
-0.0129
-0.0115603
-0.0116217
-0.00948459
-0.0118251
-0.00729168
-0.0121939
-0.00612936
-0.00790605
-0.00773082
-0.00750228
-0.00719618
-0.00702494
-0.00698342
-0.00711127
-0.00741426
-0.0078881
-0.00852081
-0.00931244
-0.0102219
-0.0112304
-0.0122519
-0.0132279
-0.0140286
-0.0146017
-0.0148193
-0.0147396
-0.014266
-0.0136631
-0.012709
-0.0121017
-0.010763
-0.0111312
-0.00860558
-0.0117082
-0.0060753
-0.0129662
-0.00596875
-0.00812648
-0.00782295
-0.00750408
-0.00701536
-0.00674072
-0.00659451
-0.00666536
-0.00692311
-0.00735359
-0.00794009
-0.00867483
-0.00951153
-0.0104316
-0.0113519
-0.0122325
-0.0129532
-0.0134943
-0.0137249
-0.0137278
-0.013363
-0.0129231
-0.0120786
-0.0116392
-0.0102672
-0.0108194
-0.00796057
-0.0115282
-0.00474552
-0.0128716
0.00281126
-0.0088633
-0.00792673
-0.00750136
-0.00667977
-0.00639276
-0.00615218
-0.00621143
-0.00644487
-0.00686105
-0.00742854
-0.00814225
-0.0089435
-0.00982837
-0.0106987
-0.0115472
-0.0122332
-0.0127866
-0.0130365
-0.013127
-0.0128327
-0.0125382
-0.0117436
-0.0114597
-0.0100547
-0.0106549
-0.00767602
-0.0109418
-0.00318484
-0.00889043
0.020489
-0.00987914
-0.00803012
-0.0075235
-0.0063926
-0.00599292
-0.00568698
-0.00575461
-0.00597593
-0.0064055
-0.00696625
-0.00769044
-0.0084751
-0.0093662
-0.0102124
-0.0110733
-0.0117462
-0.0123398
-0.0126095
-0.0127795
-0.0125361
-0.0123335
-0.0115961
-0.0113363
-0.0100034
-0.0103912
-0.00752409
-0.00947308
-0.000315236
0.0012357
0.0318215
-0.015105
-0.00745588
-0.00734788
-0.00565245
-0.00547452
-0.00516641
-0.00528821
-0.0055274
-0.00599325
-0.00655598
-0.00731249
-0.00808709
-0.00901171
-0.00983741
-0.0107467
-0.0113916
-0.0120701
-0.0123007
-0.0126186
-0.0122953
-0.0123327
-0.011421
-0.0115025
-0.00985974
-0.0103805
-0.00666487
-0.00572934
0.00921679
0.0294716
0.0708491
-0.0184705
-0.00682562
-0.0065276
-0.00536197
-0.00477066
-0.00454914
-0.00476255
-0.00497722
-0.0055372
-0.00607421
-0.00693386
-0.00766349
-0.00868682
-0.00944903
-0.0104605
-0.0110282
-0.0118172
-0.0119711
-0.0124039
-0.0120331
-0.0121313
-0.0112434
-0.0111222
-0.00971738
-0.00924276
-0.00574567
0.0028214
0.0332986
0.104205
0.222019
)
;

boundaryField
{
    movingWall
    {
        type            zeroGradient;
    }
    fixedWalls
    {
        type            zeroGradient;
    }
    frontAndBack
    {
        type            empty;
    }
}


// ************************************************************************* //
