/*--------------------------------*- C++ -*----------------------------------*\
| =========                 |                                                 |
| \\      /  F ield         | OpenFOAM: The Open Source CFD Toolbox           |
|  \\    /   O peration     | Version:  2406                                  |
|   \\  /    A nd           | Website:  www.openfoam.com                      |
|    \\/     M anipulation  |                                                 |
\*---------------------------------------------------------------------------*/
FoamFile
{
    version     2.0;
    format      ascii;
    arch        "LSB;label=32;scalar=64";
    class       volScalarField;
    location    "88";
    object      p;
}
// * * * * * * * * * * * * * * * * * * * * * * * * * * * * * * * * * * * * * //

dimensions      [0 2 -2 0 0 0 0];

internalField   nonuniform List<scalar> 
4096
(
-6.1204e-08
2.45171e-05
2.82453e-05
3.83228e-06
-5.04279e-05
-0.000129258
-0.00022439
-0.000328974
-0.00043978
-0.000557591
-0.000686623
-0.000832962
-0.0010035
-0.00120463
-0.00144193
-0.0017201
-0.00204303
-0.00241348
-0.0028324
-0.00329799
-0.0038041
-0.00433926
-0.00488539
-0.00541753
-0.0059045
-0.00631055
-0.00659792
-0.00672991
-0.00667419
-0.00640589
-0.00591038
-0.00518567
-0.00424412
-0.00311228
-0.00182771
-0.000461455
0.000904802
0.00217689
0.00325399
0.00403759
0.00444316
0.00441391
0.00393267
0.0030181
0.0017476
0.000228599
-0.00141248
-0.00304178
-0.00454882
-0.00585611
-0.00691961
-0.00773301
-0.00831566
-0.00870432
-0.00894284
-0.00907364
-0.0091327
-0.00914754
-0.00913735
-0.00911421
-0.00908459
-0.00905154
-0.00901823
-0.00898943
-2.1813e-05
3.28583e-06
5.54175e-06
-1.9857e-05
-7.26272e-05
-0.000147271
-0.000236204
-0.0003334
-0.000436286
-0.000545899
-0.000666256
-0.000803163
-0.000962711
-0.00115054
-0.00137171
-0.00163054
-0.00193136
-0.0022775
-0.00267083
-0.00311058
-0.00359205
-0.00410587
-0.00463773
-0.00516775
-0.00566947
-0.0061094
-0.00644852
-0.00664574
-0.00666261
-0.00646817
-0.0060434
-0.00538338
-0.00449487
-0.00339456
-0.00214076
-0.000797856
0.000554335
0.00182066
0.00289836
0.00368652
0.00409818
0.0040744
0.00359641
0.00268673
0.00140323
-0.000122205
-0.00176373
-0.00337566
-0.00484535
-0.00609274
-0.00709003
-0.00782941
-0.00833988
-0.00866997
-0.0088695
-0.00898056
-0.00903504
-0.00905542
-0.00905621
-0.00904623
-0.00903011
-0.00900946
-0.00898427
-0.0089558
-3.01432e-05
-1.77336e-06
-3.49462e-07
-2.89913e-05
-8.44376e-05
-0.000159111
-0.000244515
-0.000334672
-0.000427723
-0.000525635
-0.000633241
-0.000756607
-0.000901902
-0.00107429
-0.00127949
-0.0015225
-0.00180908
-0.00214515
-0.00253616
-0.0029863
-0.00349671
-0.00406243
-0.00466898
-0.005291
-0.00589364
-0.00643564
-0.00687282
-0.00716161
-0.00726259
-0.00714389
-0.00678412
-0.00617428
-0.00532018
-0.00425233
-0.00302265
-0.00169203
-0.000339378
0.00094134
0.00204704
0.00287494
0.00333438
0.00336089
0.00292882
0.00205691
0.000811328
-0.00068965
-0.00232897
-0.00392521
-0.00537243
-0.0065803
-0.00750512
-0.00817209
-0.00860223
-0.00885099
-0.00897767
-0.00903056
-0.00904376
-0.00903841
-0.00902618
-0.00901238
-0.00899835
-0.00898229
-0.00895902
-0.00892605
-1.92874e-05
1.19787e-05
1.07975e-05
-2.46711e-05
-8.72208e-05
-0.000165724
-0.000249673
-0.000332883
-0.000414384
-0.000497725
-0.000589543
-0.000697003
-0.000827788
-0.000988438
-0.00118638
-0.00143063
-0.00173246
-0.00210497
-0.00256079
-0.00310792
-0.00374544
-0.00446099
-0.00523045
-0.0060191
-0.00678413
-0.0074783
-0.00805406
-0.00846702
-0.00867836
-0.00865607
-0.00837644
-0.00782878
-0.00702477
-0.00600327
-0.00480403
-0.00348398
-0.00211869
-0.000798589
0.000375515
0.00130074
0.00188282
0.00204936
0.00176327
0.00103198
-8.69954e-05
-0.0014886
-0.00304095
-0.00458606
-0.00600076
-0.00717627
-0.00807067
-0.00866835
-0.00902533
-0.00919397
-0.00923827
-0.00921436
-0.00916275
-0.00910801
-0.00906177
-0.00902715
-0.00900231
-0.00898192
-0.00895573
-0.00891751
1.62518e-05
4.69712e-05
3.89196e-05
-8.09052e-06
-8.18238e-05
-0.000166831
-0.000250425
-0.000326839
-0.000396074
-0.000464687
-0.000541989
-0.00063838
-0.000764238
-0.000931088
-0.00115315
-0.0014483
-0.00183687
-0.00233771
-0.00296285
-0.0037132
-0.00457645
-0.00552737
-0.00652991
-0.00754014
-0.00850945
-0.00938825
-0.0101292
-0.0106897
-0.0110331
-0.0111282
-0.0109508
-0.0104924
-0.0097716
-0.00881919
-0.00766975
-0.00637346
-0.00499792
-0.00362583
-0.00235145
-0.00127426
-0.00049
-7.91675e-05
-9.3321e-05
-0.000543197
-0.001392
-0.00255493
-0.00390849
-0.00530654
-0.00661324
-0.00771751
-0.00855922
-0.00912499
-0.00943704
-0.0095562
-0.00954514
-0.00946221
-0.00935291
-0.0092469
-0.00915928
-0.00909439
-0.00904989
-0.00901858
-0.00898701
-0.00894598
8.27244e-05
0.000108228
8.82532e-05
2.50241e-05
-6.31392e-05
-0.000156458
-0.000241197
-0.000311644
-0.000370905
-0.000430498
-0.000503395
-0.000605472
-0.000754776
-0.000972824
-0.00128514
-0.00171901
-0.00229838
-0.00303778
-0.00393808
-0.00498511
-0.00615093
-0.00739667
-0.00867631
-0.00993998
-0.011137
-0.0122184
-0.0131394
-0.0138609
-0.0143498
-0.0145778
-0.0145239
-0.0141826
-0.0135723
-0.0127157
-0.0116408
-0.0103895
-0.00901879
-0.00759993
-0.0062162
-0.00495887
-0.00392035
-0.00318432
-0.00281463
-0.00284396
-0.00326455
-0.0040224
-0.00502067
-0.00613312
-0.00722741
-0.00818819
-0.00893967
-0.00945307
-0.0097373
-0.00983473
-0.00980227
-0.00969364
-0.00955355
-0.00941429
-0.00929471
-0.00920251
-0.00913749
-0.00909333
-0.0090562
-0.00901546
0.000188429
0.000203395
0.000166568
8.33267e-05
-2.13701e-05
-0.00012403
-0.000211808
-0.000280711
-0.000339621
-0.00040467
-0.000496986
-0.000642374
-0.000871319
-0.00121826
-0.00171808
-0.00239975
-0.00327966
-0.00435758
-0.00561596
-0.00702265
-0.00853507
-0.0101041
-0.0116771
-0.0132016
-0.0146274
-0.0159083
-0.0170042
-0.017881
-0.0185112
-0.0188732
-0.0189533
-0.0187484
-0.018268
-0.017528
-0.0165521
-0.015374
-0.0140389
-0.0126033
-0.0111348
-0.00971028
-0.00841168
-0.00731998
-0.00650643
-0.00602181
-0.00588593
-0.0060825
-0.00655629
-0.00721698
-0.00795422
-0.00865877
-0.00924481
-0.00966387
-0.00990633
-0.00999347
-0.00996024
-0.00985472
-0.00971373
-0.00956762
-0.00943591
-0.00932944
-0.00925129
-0.00919795
-0.00915786
-0.00912062
0.000343226
0.000342058
0.000284208
0.000178298
5.56093e-05
-6.00246e-05
-0.000153979
-0.000231599
-0.000307733
-0.000407322
-0.000563422
-0.000815941
-0.00120926
-0.00178693
-0.00258384
-0.00361862
-0.00488956
-0.00637519
-0.00803834
-0.00983072
-0.0116978
-0.0135829
-0.0154309
-0.0171899
-0.0188135
-0.0202612
-0.0214995
-0.0225012
-0.0232461
-0.0237218
-0.0239229
-0.0238489
-0.0235008
-0.0228883
-0.0220312
-0.0209565
-0.0196981
-0.0182974
-0.0168039
-0.0152751
-0.0137751
-0.012372
-0.0111332
-0.0101183
-0.00937051
-0.00890827
-0.00872018
-0.00876602
-0.00897929
-0.00927804
-0.00958183
-0.00982837
-0.00998348
-0.010041
-0.0100151
-0.00992936
-0.00980815
-0.00967895
-0.00955677
-0.00945332
-0.00937436
-0.00931953
-0.00928095
-0.00924978
0.000556856
0.000534474
0.000452481
0.00032217
0.000180565
5.05463e-05
-6.19095e-05
-0.000167607
-0.000292315
-0.000474274
-0.000761733
-0.00120904
-0.00186936
-0.0027848
-0.00397741
-0.00544477
-0.00716155
-0.00908418
-0.0111571
-0.0133189
-0.0155072
-0.0176629
-0.0197322
-0.0216683
-0.023432
-0.0249913
-0.0263209
-0.027402
-0.0282227
-0.0287785
-0.0290713
-0.0291032
-0.02887
-0.0283778
-0.0276444
-0.0266915
-0.0255433
-0.0242282
-0.0227789
-0.0212329
-0.0196333
-0.0180276
-0.0164673
-0.0150052
-0.0136913
-0.0125676
-0.0116624
-0.0109844
-0.0105231
-0.0102487
-0.0101145
-0.0100653
-0.0100503
-0.0100322
-0.00999156
-0.00992541
-0.00983738
-0.00973978
-0.00964427
-0.00956006
-0.00949347
-0.00944629
-0.00941416
-0.00939057
0.000836235
0.000788797
0.000679655
0.000526688
0.000364014
0.000209364
6.08169e-05
-0.000104024
-0.000325315
-0.000657271
-0.00116297
-0.00190534
-0.00293501
-0.00427909
-0.00593598
-0.0078768
-0.0100511
-0.0123952
-0.0148393
-0.0173142
-0.0197559
-0.022108
-0.0243234
-0.0263641
-0.0282009
-0.0298118
-0.0311806
-0.0322968
-0.0331552
-0.0337573
-0.0341085
-0.0342129
-0.0340673
-0.0336777
-0.0330594
-0.0322289
-0.0312037
-0.0300027
-0.028646
-0.0271555
-0.0255552
-0.0238715
-0.0221343
-0.0203775
-0.0186397
-0.0169643
-0.0153979
-0.0139873
-0.0127747
-0.011791
-0.0110504
-0.0105408
-0.0102235
-0.0100427
-0.00994081
-0.00987318
-0.00981586
-0.00975684
-0.00969885
-0.00964578
-0.00960255
-0.0095712
-0.00954967
-0.00953386
0.0011822
0.00110622
0.000971825
0.00079584
0.000605749
0.000411048
0.000197929
-7.14146e-05
-0.000453779
-0.00101864
-0.00183788
-0.00297143
-0.00445336
-0.00628475
-0.00843432
-0.0108452
-0.0134448
-0.0161545
-0.0188972
-0.0216031
-0.0242129
-0.0266788
-0.0289643
-0.0310429
-0.0328959
-0.034511
-0.0358805
-0.0370004
-0.0378709
-0.0384957
-0.0388813
-0.0390329
-0.038952
-0.0386452
-0.038124
-0.0374012
-0.03649
-0.0354036
-0.0341545
-0.0327548
-0.0312152
-0.0295461
-0.027758
-0.0258639
-0.0238814
-0.021837
-0.0197701
-0.0177365
-0.0158085
-0.0140695
-0.0125997
-0.0114591
-0.0106646
-0.0101801
-0.00992759
-0.00981567
-0.00976937
-0.00974739
-0.00973061
-0.00971552
-0.00970269
-0.0096929
-0.00968459
-0.00967573
0.00158602
0.00148184
0.00132249
0.00112213
0.000893189
0.000634585
0.000316618
-0.000115858
-0.000735512
-0.00162139
-0.00284285
-0.00444273
-0.00642705
-0.00876417
-0.0113918
-0.0142287
-0.0171867
-0.0201801
-0.0231326
-0.0259813
-0.0286774
-0.0311855
-0.0334817
-0.0355508
-0.0373838
-0.0389764
-0.0403269
-0.041436
-0.0423066
-0.0429434
-0.0433522
-0.0435384
-0.0435063
-0.0432633
-0.0428185
-0.0421824
-0.0413651
-0.0403767
-0.0392256
-0.0379183
-0.0364588
-0.0348481
-0.0330848
-0.0311656
-0.029089
-0.0268591
-0.0244931
-0.0220296
-0.0195369
-0.0171169
-0.0148984
-0.0130147
-0.0115689
-0.0105963
-0.0100467
-0.00980393
-0.00973354
-0.00973472
-0.00975623
-0.00978018
-0.00980061
-0.00981504
-0.0098209
-0.00981764
0.0020265
0.00189695
0.00171603
0.00148198
0.00119634
0.000840932
0.000367774
-0.000294933
-0.00123072
-0.00251771
-0.00420897
-0.00631818
-0.00881614
-0.011637
-0.0146915
-0.0178816
-0.0211121
-0.0242991
-0.0273752
-0.0302899
-0.0330086
-0.0355094
-0.0377802
-0.0398153
-0.0416131
-0.0431745
-0.0445015
-0.0455972
-0.0464655
-0.047111
-0.0475385
-0.0477529
-0.0477603
-0.0475676
-0.0471822
-0.0466128
-0.0458677
-0.044955
-0.0438813
-0.0426508
-0.0412647
-0.03972
-0.0380093
-0.0361216
-0.034043
-0.0317605
-0.0292684
-0.0265776
-0.023729
-0.0208061
-0.0179433
-0.0153172
-0.0131142
-0.0114741
-0.0104354
-0.00991548
-0.00974421
-0.00974165
-0.00979359
-0.00985366
-0.00990647
-0.00994505
-0.00996473
-0.00996585
0.00246694
0.0023173
0.00210994
0.00183315
0.00146714
0.000974829
0.000290606
-0.000669912
-0.00199198
-0.00373982
-0.0059378
-0.0085628
-0.0115482
-0.0147981
-0.0182042
-0.0216608
-0.0250752
-0.0283737
-0.031503
-0.0344282
-0.037129
-0.0395958
-0.041826
-0.0438206
-0.0455825
-0.0471154
-0.0484229
-0.0495091
-0.0503777
-0.0510328
-0.0514782
-0.0517183
-0.0517592
-0.051607
-0.0512681
-0.0507494
-0.0500581
-0.049201
-0.0481835
-0.0470091
-0.0456784
-0.0441878
-0.0425291
-0.0406887
-0.0386479
-0.036385
-0.0338787
-0.0311164
-0.0281059
-0.0248931
-0.02158
-0.0183364
-0.0153894
-0.0129759
-0.0112614
-0.0102676
-0.00985745
-0.00979349
-0.00985908
-0.00994952
-0.0100316
-0.0100927
-0.0101252
-0.0101302
0.00285919
0.00269193
0.0024537
0.00211891
0.00164334
0.0009708
2.08304e-05
-0.00129618
-0.00305564
-0.00529555
-0.00800343
-0.0111161
-0.0145331
-0.0181364
-0.0218085
-0.0254456
-0.0289659
-0.032311
-0.0354443
-0.0383463
-0.0410095
-0.0434336
-0.0456221
-0.0475801
-0.0493127
-0.0508246
-0.0521198
-0.0532021
-0.0540748
-0.0547413
-0.0552047
-0.0554689
-0.055539
-0.0554204
-0.0551185
-0.0546389
-0.0539879
-0.0531709
-0.0521928
-0.0510566
-0.0497633
-0.04831
-0.0466899
-0.0448907
-0.0428944
-0.0406772
-0.0382113
-0.0354699
-0.0324354
-0.0291152
-0.0255633
-0.0219044
-0.0183491
-0.015178
-0.0126741
-0.0110099
-0.0101644
-0.00992113
-0.00996672
-0.0100788
-0.0101862
-0.0102683
-0.0103131
-0.0103227
0.00314113
0.00295567
0.00268173
0.0022712
0.00165568
0.000761976
-0.000499715
-0.00221462
-0.00443674
-0.00716925
-0.0103584
-0.0139033
-0.0176774
-0.0215501
-0.0254044
-0.029147
-0.0327119
-0.0360587
-0.0391669
-0.0420303
-0.0446505
-0.0470336
-0.0491866
-0.0511163
-0.0528282
-0.0543271
-0.0556165
-0.0566997
-0.0575794
-0.0582584
-0.0587395
-0.0590259
-0.0591218
-0.0590317
-0.0587601
-0.0583118
-0.0576919
-0.0569048
-0.0559546
-0.0548442
-0.0535746
-0.0521442
-0.0505482
-0.0487771
-0.0468161
-0.0446441
-0.042234
-0.0395536
-0.0365714
-0.0332666
-0.0296484
-0.0257832
-0.021825
-0.0180331
-0.0147459
-0.0122825
-0.0107941
-0.0101839
-0.0101281
-0.0102492
-0.0103785
-0.0104808
-0.0105392
-0.0105553
0.00324446
0.00304337
0.00272569
0.00222078
0.00143765
0.000289871
-0.00131441
-0.00344595
-0.0061285
-0.00932538
-0.012942
-0.0168465
-0.0208954
-0.0249555
-0.0289185
-0.0327072
-0.036274
-0.0395953
-0.0426648
-0.0454856
-0.0480658
-0.0504146
-0.0525403
-0.0544499
-0.0561486
-0.0576405
-0.0589286
-0.0600156
-0.0609037
-0.0615952
-0.0620928
-0.0623992
-0.0625177
-0.0624521
-0.0622062
-0.061784
-0.0611893
-0.060426
-0.0594972
-0.0584053
-0.0571513
-0.0557346
-0.054152
-0.052397
-0.0504587
-0.0483209
-0.0459606
-0.0433477
-0.0404467
-0.0372218
-0.03365
-0.029745
-0.0255915
-0.0213834
-0.0174402
-0.0141609
-0.0118796
-0.0106861
-0.0103677
-0.0104665
-0.0106141
-0.0107377
-0.0108131
-0.0108392
0.00311106
0.00289279
0.00252265
0.00190687
0.00093506
-0.000487277
-0.00244604
-0.00498899
-0.00810451
-0.0117144
-0.0156884
-0.0198722
-0.024115
-0.0282897
-0.0323025
-0.0360945
-0.0396361
-0.0429184
-0.0459451
-0.048726
-0.0512723
-0.0535941
-0.0556999
-0.0575958
-0.0592864
-0.060775
-0.062064
-0.0631558
-0.0640523
-0.0647555
-0.0652677
-0.0655915
-0.0657297
-0.0656853
-0.0654615
-0.0650616
-0.0644887
-0.0637456
-0.0628347
-0.061758
-0.0605163
-0.0591091
-0.0575345
-0.0557882
-0.0538629
-0.0517472
-0.0494239
-0.0468686
-0.0440487
-0.0409246
-0.0374561
-0.0336193
-0.0294365
-0.0250207
-0.0206206
-0.0166307
-0.0135061
-0.0115541
-0.0107557
-0.0107333
-0.0109
-0.0110454
-0.0111436
-0.0111843
0.00269112
0.00245351
0.00202358
0.00128517
0.000113109
-0.0015893
-0.00389466
-0.00682237
-0.0103229
-0.0142792
-0.0185329
-0.0229164
-0.0272804
-0.0315097
-0.0355281
-0.0392951
-0.0427966
-0.0460347
-0.0490202
-0.0517661
-0.0542846
-0.0565857
-0.0586766
-0.0605629
-0.0622481
-0.0637349
-0.0650255
-0.0661218
-0.0670256
-0.0677389
-0.0682637
-0.0686024
-0.0687574
-0.0687313
-0.0685268
-0.0681465
-0.0675928
-0.0668679
-0.0659736
-0.064911
-0.0636807
-0.0622824
-0.0607146
-0.0589745
-0.0570574
-0.0549556
-0.0526576
-0.0501455
-0.0473934
-0.0443654
-0.0410168
-0.0373027
-0.0331999
-0.0287469
-0.0241003
-0.0195855
-0.015685
-0.0128869
-0.0114099
-0.0110695
-0.0112468
-0.0114131
-0.0115389
-0.0116008
0.00195309
0.00169405
0.00119971
0.000333332
-0.0010397
-0.00301261
-0.00563898
-0.00890766
-0.0127314
-0.0169603
-0.0214162
-0.0259268
-0.0303507
-0.0345882
-0.0385815
-0.0423063
-0.0457606
-0.0489544
-0.0519021
-0.0546179
-0.0571135
-0.0593979
-0.0614771
-0.0633556
-0.0650364
-0.0665216
-0.0678132
-0.0689129
-0.0698226
-0.0705441
-0.0710793
-0.0714305
-0.0715999
-0.0715896
-0.0714019
-0.071039
-0.0705027
-0.0697946
-0.068916
-0.0678676
-0.0666496
-0.0652614
-0.0637018
-0.0619687
-0.0600589
-0.0579676
-0.0556875
-0.0532067
-0.0505068
-0.0475592
-0.0443232
-0.0407475
-0.036782
-0.0324088
-0.0276956
-0.0228664
-0.0183505
-0.0147216
-0.0124408
-0.0115603
-0.0116546
-0.0118548
-0.0120101
-0.012101
0.000887232
0.000605518
4.56605e-05
-0.000947092
-0.00251118
-0.00473152
-0.00763994
-0.0111942
-0.0152728
-0.0197003
-0.0242867
-0.0288622
-0.0332973
-0.0375094
-0.0414575
-0.0451306
-0.0485355
-0.0516868
-0.0546003
-0.0572898
-0.0597658
-0.0620357
-0.0641045
-0.0659757
-0.0676518
-0.0691347
-0.0704262
-0.071528
-0.0724419
-0.0731698
-0.0737136
-0.0740752
-0.0742567
-0.07426
-0.074087
-0.0737395
-0.0732189
-0.0725266
-0.0716633
-0.0706294
-0.0694247
-0.0680484
-0.0664995
-0.064776
-0.0628755
-0.060795
-0.05853
-0.0560732
-0.0534128
-0.0505286
-0.047388
-0.0439432
-0.0401341
-0.0359067
-0.0312577
-0.0263058
-0.0213778
-0.0170347
-0.0139109
-0.012333
-0.0121241
-0.0123942
-0.0125715
-0.0127003
-0.000494003
-0.00079765
-0.00142048
-0.00253143
-0.00426764
-0.0067023
-0.00984523
-0.0136243
-0.0178892
-0.0224462
-0.027101
-0.0316908
-0.0361006
-0.0402643
-0.0441552
-0.0477722
-0.051128
-0.0542392
-0.0571215
-0.0597871
-0.062245
-0.0645013
-0.0665598
-0.0684233
-0.0700939
-0.0715735
-0.0728637
-0.0739663
-0.0748831
-0.0756158
-0.0761663
-0.0765365
-0.0767282
-0.0767431
-0.0765829
-0.0762491
-0.0757429
-0.0750652
-0.0742166
-0.0731973
-0.0720067
-0.0706442
-0.0691084
-0.0673975
-0.0655097
-0.0634425
-0.0611932
-0.0587577
-0.0561291
-0.0532948
-0.0502315
-0.0469
-0.0432423
-0.0391876
-0.0346837
-0.0297592
-0.024621
-0.0197445
-0.0158301
-0.0134692
-0.0127283
-0.0130412
-0.013243
-0.0134122
-0.00215699
-0.00247956
-0.00315964
-0.00437534
-0.00625839
-0.00886846
-0.0121946
-0.0161376
-0.0205248
-0.0251511
-0.0298233
-0.0343888
-0.0387475
-0.0428481
-0.0466752
-0.050235
-0.0535431
-0.0566164
-0.0594693
-0.0621124
-0.0645528
-0.0667953
-0.068843
-0.070698
-0.0723623
-0.0738375
-0.0751254
-0.0762276
-0.077146
-0.0778822
-0.078438
-0.0788153
-0.0790155
-0.0790404
-0.0788914
-0.0785697
-0.0780764
-0.0774122
-0.0765776
-0.0755726
-0.0743967
-0.0730491
-0.0715284
-0.069833
-0.067961
-0.0659105
-0.0636795
-0.0612659
-0.0586661
-0.0558732
-0.0528725
-0.0496353
-0.0461125
-0.0422318
-0.037913
-0.0331182
-0.0279416
-0.0227337
-0.0181614
-0.0150009
-0.0136134
-0.0137789
-0.014049
-0.0142541
-0.00405054
-0.00438776
-0.00511667
-0.00642016
-0.0084213
-0.0111661
-0.0146246
-0.0186751
-0.0231284
-0.0277743
-0.0324242
-0.0369375
-0.0412283
-0.0452574
-0.0490182
-0.0525213
-0.0557834
-0.0588205
-0.0616452
-0.0642663
-0.0666891
-0.0689175
-0.0709536
-0.0727994
-0.0744565
-0.0759265
-0.0772111
-0.0783121
-0.079231
-0.0799697
-0.0805297
-0.0809127
-0.0811201
-0.0811535
-0.0810141
-0.0807031
-0.0802214
-0.0795696
-0.0787482
-0.077757
-0.0765958
-0.0752636
-0.0737593
-0.0720814
-0.070228
-0.0681974
-0.065988
-0.0635987
-0.0610278
-0.0582725
-0.0553247
-0.0521661
-0.048759
-0.0450392
-0.0409174
-0.0363115
-0.0312256
-0.0258761
-0.0208277
-0.0169351
-0.0148612
-0.0146065
-0.0150315
-0.0152476
-0.00611186
-0.0064584
-0.00722603
-0.00859876
-0.0106886
-0.0135288
-0.0170728
-0.0211812
-0.0256543
-0.0302809
-0.0348797
-0.0393224
-0.0435352
-0.0474893
-0.0511838
-0.0546317
-0.0578496
-0.0608519
-0.0636492
-0.0662482
-0.0686532
-0.0708668
-0.0728908
-0.0747267
-0.076376
-0.0778403
-0.0791211
-0.0802201
-0.081139
-0.0818792
-0.0824424
-0.0828301
-0.0830436
-0.0830842
-0.0829532
-0.0826515
-0.0821801
-0.0815395
-0.0807302
-0.0797521
-0.0786051
-0.0772885
-0.0758011
-0.0741418
-0.0723089
-0.0703008
-0.0681161
-0.065754
-0.0632141
-0.0604957
-0.057596
-0.0545048
-0.0511964
-0.0476193
-0.0436885
-0.0392991
-0.0343893
-0.0290559
-0.0237253
-0.0192289
-0.0164529
-0.0156185
-0.01619
-0.0164157
-0.00827224
-0.00862172
-0.00941734
-0.0108409
-0.0129916
-0.0158915
-0.0194803
-0.023606
-0.0280627
-0.0326415
-0.0371701
-0.0415311
-0.0456617
-0.0495404
-0.0531702
-0.0565652
-0.0597408
-0.0627095
-0.0654798
-0.0680569
-0.0704438
-0.0726423
-0.0746538
-0.0764795
-0.0781207
-0.0795789
-0.0808556
-0.0819523
-0.0828705
-0.0836118
-0.0841774
-0.0845689
-0.0847874
-0.0848341
-0.0847102
-0.0844167
-0.0839543
-0.0833237
-0.0825254
-0.0815595
-0.080426
-0.0791244
-0.0776539
-0.0760136
-0.0742022
-0.0722182
-0.0700604
-0.0677283
-0.0652219
-0.0625419
-0.0596888
-0.0566585
-0.0534361
-0.049984
-0.0462294
-0.0420628
-0.0373786
-0.032179
-0.0267428
-0.0217976
-0.0183481
-0.0169402
-0.0174913
-0.0177679
-0.0104622
-0.0108074
-0.0116205
-0.013078
-0.0152648
-0.0181938
-0.0217942
-0.0259053
-0.0303193
-0.0348316
-0.0392785
-0.0435532
-0.0476012
-0.0514066
-0.0549747
-0.0583195
-0.0614547
-0.0643909
-0.0671349
-0.0696904
-0.0720593
-0.0742427
-0.0762416
-0.078057
-0.0796902
-0.0811423
-0.0824148
-0.0835091
-0.0844264
-0.0851682
-0.0857357
-0.0861302
-0.0863529
-0.0864048
-0.0862869
-0.0860003
-0.0855457
-0.0849239
-0.0841354
-0.0831805
-0.0820594
-0.080772
-0.0793178
-0.0776962
-0.0759063
-0.0739471
-0.0718176
-0.0695174
-0.0670468
-0.0644073
-0.0616012
-0.0586291
-0.0554844
-0.0521428
-0.0485472
-0.0445963
-0.0401616
-0.0351747
-0.0297795
-0.0245559
-0.0205381
-0.0186127
-0.018894
-0.0193031
-0.0126154
-0.0129489
-0.0137698
-0.0152463
-0.0174485
-0.0203818
-0.0239681
-0.0280418
-0.0323955
-0.0368303
-0.0411909
-0.0453791
-0.0493473
-0.0530833
-0.0565936
-0.0598911
-0.0629883
-0.0658936
-0.0686122
-0.0711466
-0.0734978
-0.0756665
-0.0776532
-0.0794588
-0.0810842
-0.0825305
-0.083799
-0.0848908
-0.0858071
-0.0865493
-0.0871183
-0.0875152
-0.0877413
-0.0877974
-0.0876846
-0.0874038
-0.0869559
-0.0863415
-0.0855615
-0.0846163
-0.0835063
-0.0822318
-0.0807927
-0.0791889
-0.0774199
-0.0754852
-0.0733843
-0.0711169
-0.0686837
-0.0660866
-0.063329
-0.0604144
-0.0573427
-0.0541009
-0.0506485
-0.0468993
-0.0427202
-0.0379925
-0.0327532
-0.0274262
-0.0230025
-0.0205931
-0.0204004
-0.0210181
-0.014672
-0.0149881
-0.0158067
-0.0172896
-0.0194905
-0.0224091
-0.0259628
-0.0299839
-0.0342674
-0.0386203
-0.042895
-0.0470003
-0.0508937
-0.0545655
-0.0580225
-0.0612764
-0.064338
-0.0672143
-0.0699088
-0.0724231
-0.0747575
-0.0769123
-0.0788876
-0.080684
-0.0823022
-0.0837433
-0.0850081
-0.0860977
-0.0870132
-0.0877555
-0.0883257
-0.0887248
-0.0889536
-0.0890132
-0.0889045
-0.0886284
-0.0881858
-0.0875777
-0.0868047
-0.0858676
-0.0847673
-0.0835041
-0.0820786
-0.080491
-0.0787416
-0.0768303
-0.0747572
-0.0725225
-0.0701272
-0.0675736
-0.0648656
-0.0620089
-0.0590079
-0.0558589
-0.0525364
-0.0489727
-0.045043
-0.0405983
-0.0355986
-0.0303251
-0.0256609
-0.0228041
-0.0220823
-0.0229078
-0.0165762
-0.0168768
-0.017682
-0.0191608
-0.0213474
-0.0242376
-0.0277462
-0.0317061
-0.0359157
-0.0401875
-0.0443803
-0.0484087
-0.0522341
-0.055848
-0.0592568
-0.0624712
-0.0655002
-0.0683496
-0.0710217
-0.0735174
-0.0758364
-0.0779784
-0.0799434
-0.0817316
-0.0833437
-0.0847802
-0.0860421
-0.08713
-0.0880448
-0.0887875
-0.0893588
-0.0897595
-0.0899907
-0.090053
-0.0899475
-0.0896751
-0.0892366
-0.0886332
-0.0878657
-0.0869352
-0.0858426
-0.0845889
-0.083175
-0.0816017
-0.0798699
-0.0779802
-0.0759333
-0.07373
-0.0713719
-0.0688617
-0.0662039
-0.0634054
-0.0604739
-0.0574129
-0.0542101
-0.050816
-0.0471221
-0.0429699
-0.0382638
-0.0331654
-0.0284045
-0.0251647
-0.0240101
-0.0249664
-0.0182901
-0.0185654
-0.0193566
-0.020822
-0.0229847
-0.0258373
-0.0292933
-0.033188
-0.0373248
-0.0415198
-0.0456376
-0.0495973
-0.0533626
-0.0569255
-0.0602918
-0.063471
-0.066471
-0.0692961
-0.0719482
-0.0744272
-0.0767324
-0.0788632
-0.0808194
-0.0826008
-0.0842079
-0.085641
-0.0869007
-0.0879876
-0.0889023
-0.0896455
-0.0902179
-0.0906203
-0.0908532
-0.0909177
-0.0908146
-0.0905447
-0.0901092
-0.089509
-0.0887454
-0.0878195
-0.0867326
-0.0854861
-0.0840815
-0.08252
-0.0808032
-0.0789325
-0.0769093
-0.0747352
-0.0724125
-0.0699443
-0.067336
-0.0645952
-0.0617321
-0.0587557
-0.0556642
-0.0524256
-0.0489515
-0.0450892
-0.0407058
-0.0358676
-0.0311374
-0.0276302
-0.0261696
-0.0271612
-0.0197849
-0.0200218
-0.0207979
-0.0222436
-0.0243767
-0.0271865
-0.0305854
-0.0344138
-0.038483
-0.0426072
-0.0466588
-0.0505594
-0.0542735
-0.0577931
-0.0611231
-0.064272
-0.0672466
-0.0700506
-0.0726852
-0.0751498
-0.0774433
-0.079565
-0.0815141
-0.0832904
-0.0848939
-0.0863249
-0.0875835
-0.0886703
-0.0895856
-0.0903299
-0.0909036
-0.0913075
-0.0915421
-0.0916081
-0.0915065
-0.0912382
-0.0908042
-0.0902058
-0.0894441
-0.0885208
-0.0874374
-0.0861957
-0.0847975
-0.0832449
-0.08154
-0.0796849
-0.0776821
-0.075534
-0.0732436
-0.0708149
-0.0682538
-0.0655691
-0.0627726
-0.0598775
-0.0568904
-0.0537947
-0.0505236
-0.0469398
-0.0428879
-0.0383645
-0.0337776
-0.0301434
-0.0284817
-0.0294195
-0.0210401
-0.0212311
-0.021982
-0.0234047
-0.025507
-0.028271
-0.0316114
-0.0353738
-0.0393803
-0.0434409
-0.0474372
-0.0512894
-0.0549619
-0.0584464
-0.0617465
-0.0648702
-0.0678235
-0.0706099
-0.0732299
-0.0756827
-0.0779671
-0.0800818
-0.082026
-0.0837991
-0.0854009
-0.0868312
-0.0880903
-0.089178
-0.0900948
-0.0908407
-0.0914162
-0.0918217
-0.0920577
-0.092125
-0.0920242
-0.0917563
-0.0913226
-0.0907242
-0.0899627
-0.0890397
-0.0879572
-0.0867174
-0.0853226
-0.0837754
-0.0820786
-0.0802354
-0.0782488
-0.0761224
-0.0738601
-0.0714669
-0.0689495
-0.0663177
-0.0635848
-0.060767
-0.0578779
-0.0549138
-0.0518285
-0.0485051
-0.0447808
-0.0406015
-0.0362464
-0.0326111
-0.0308327
-0.0316503
-0.0220442
-0.0221834
-0.0228995
-0.024293
-0.0263641
-0.0290852
-0.03237
-0.036069
-0.040007
-0.0440148
-0.0479671
-0.0517827
-0.0554239
-0.0588814
-0.0621582
-0.0652619
-0.0681983
-0.0709708
-0.0735795
-0.0760236
-0.0783015
-0.0804119
-0.0823535
-0.0841256
-0.0857277
-0.0871593
-0.0884203
-0.0895105
-0.0904298
-0.0911783
-0.0917561
-0.0921635
-0.092401
-0.092469
-0.0923684
-0.0921
-0.0916652
-0.0910651
-0.0903017
-0.0893766
-0.0882923
-0.0870512
-0.0856562
-0.0841105
-0.0824178
-0.0805817
-0.0786065
-0.0764966
-0.0742572
-0.0718942
-0.0694154
-0.0668317
-0.0641576
-0.0614121
-0.0586142
-0.0557708
-0.0528541
-0.0497695
-0.0463596
-0.0425342
-0.038471
-0.0349331
-0.0331037
-0.0337663
-0.0227945
-0.0228766
-0.0235503
-0.0249073
-0.0269422
-0.0296189
-0.0328503
-0.036492
-0.0403736
-0.0443358
-0.0482517
-0.0520386
-0.0556569
-0.0590948
-0.0623548
-0.065444
-0.0683682
-0.0711305
-0.0737313
-0.0761698
-0.0784443
-0.0805531
-0.0824949
-0.0842686
-0.0858732
-0.0873082
-0.0885731
-0.0896673
-0.0905906
-0.0913427
-0.0919237
-0.0923335
-0.0925725
-0.0926411
-0.09254
-0.0922702
-0.0918329
-0.0912295
-0.0904619
-0.0895322
-0.088443
-0.0871971
-0.0857981
-0.0842497
-0.0825561
-0.0807219
-0.0787525
-0.0766532
-0.0744302
-0.0720909
-0.0696442
-0.0671021
-0.0644806
-0.0618008
-0.0590861
-0.0563523
-0.0535871
-0.0507187
-0.047603
-0.0441261
-0.0403885
-0.0370196
-0.0351929
-0.0356932
-0.0232969
-0.0233175
-0.0239424
-0.0252551
-0.0272467
-0.029875
-0.0330536
-0.0366439
-0.04048
-0.0444049
-0.0482917
-0.0520573
-0.0556595
-0.0590845
-0.0623337
-0.0654135
-0.0683298
-0.071086
-0.0736826
-0.0761189
-0.0783931
-0.0805035
-0.0824484
-0.0842264
-0.0858363
-0.0872771
-0.088548
-0.0896481
-0.090577
-0.0913342
-0.0919193
-0.0923322
-0.0925731
-0.0926423
-0.0925403
-0.0922681
-0.091827
-0.0912184
-0.0904444
-0.0895073
-0.08841
-0.0871557
-0.0857485
-0.0841924
-0.0824927
-0.0806547
-0.0786845
-0.0765889
-0.0743751
-0.0720517
-0.0696291
-0.0671206
-0.0645437
-0.0619213
-0.0592806
-0.0566446
-0.0540142
-0.0513386
-0.0484925
-0.045348
-0.0419482
-0.0387974
-0.0370212
-0.0373707
-0.0235647
-0.0235219
-0.0240914
-0.0253511
-0.0272914
-0.0298663
-0.0329905
-0.0365312
-0.040327
-0.0442209
-0.0480859
-0.0518372
-0.0554299
-0.0588482
-0.0620921
-0.0651675
-0.0680804
-0.0708344
-0.0734306
-0.0758683
-0.0781457
-0.080261
-0.0822122
-0.0839975
-0.0856156
-0.0870649
-0.0883443
-0.0894527
-0.0903892
-0.091153
-0.0917436
-0.0921605
-0.0924038
-0.0924735
-0.0923703
-0.092095
-0.0916487
-0.0910332
-0.0902505
-0.0893032
-0.0881944
-0.0869278
-0.0855077
-0.0839388
-0.0822272
-0.080379
-0.0784011
-0.0763013
-0.0740882
-0.0717718
-0.0693639
-0.0668793
-0.0643373
-0.0617625
-0.0591851
-0.0566342
-0.0541217
-0.0516161
-0.0490123
-0.0461763
-0.0431108
-0.0402103
-0.0385292
-0.03875
-0.0236176
-0.0235131
-0.0240204
-0.0252167
-0.0270962
-0.0296107
-0.032676
-0.0361648
-0.03992
-0.0437858
-0.0476339
-0.0513767
-0.0549661
-0.0583836
-0.0616275
-0.0647033
-0.0676172
-0.0703731
-0.0729727
-0.0754153
-0.0776996
-0.0798232
-0.0817842
-0.0835804
-0.0852098
-0.0866707
-0.0879615
-0.0890807
-0.0900271
-0.0907995
-0.0913971
-0.0918193
-0.0920657
-0.0921364
-0.0920318
-0.0917526
-0.0913
-0.0906757
-0.089882
-0.0889215
-0.0877977
-0.0865145
-0.0850767
-0.0834897
-0.0817599
-0.0798945
-0.0779012
-0.0757886
-0.0735672
-0.0712478
-0.0688436
-0.0663717
-0.0638529
-0.0613139
-0.0587878
-0.0563084
-0.0538969
-0.0515383
-0.0491482
-0.0465932
-0.0438474
-0.0412164
-0.0396716
-0.0397898
-0.0234812
-0.0233204
-0.0237584
-0.0248787
-0.0266852
-0.0291295
-0.0321281
-0.0355584
-0.0392688
-0.0431054
-0.0469382
-0.050676
-0.0542667
-0.0576883
-0.0609372
-0.0640181
-0.0669372
-0.0696991
-0.0723058
-0.0747573
-0.0770521
-0.079188
-0.0811625
-0.0829731
-0.0846175
-0.0860935
-0.0873989
-0.088532
-0.0894909
-0.0902742
-0.0908808
-0.0913097
-0.0915603
-0.0916324
-0.0915264
-0.0912428
-0.0907828
-0.0901481
-0.089341
-0.0883644
-0.0872219
-0.0859177
-0.0844571
-0.0828461
-0.0810916
-0.0792015
-0.0771845
-0.0750505
-0.0728108
-0.0704775
-0.068065
-0.0655933
-0.0630834
-0.0605666
-0.0580779
-0.0556552
-0.0533277
-0.0510937
-0.0488886
-0.0465851
-0.044138
-0.0417857
-0.0404118
-0.0404532
-0.0231853
-0.0229778
-0.023339
-0.0243689
-0.0260869
-0.0284477
-0.0313678
-0.0347294
-0.0383867
-0.0421886
-0.0460039
-0.0497373
-0.0533316
-0.0567608
-0.0600187
-0.0631087
-0.0660372
-0.068809
-0.0714269
-0.0738912
-0.0762005
-0.0783526
-0.0803447
-0.082174
-0.0838374
-0.0853323
-0.086656
-0.0878063
-0.0887809
-0.0895778
-0.0901957
-0.0906331
-0.0908892
-0.0909637
-0.0908565
-0.0905682
-0.0900998
-0.0894531
-0.0886304
-0.0876347
-0.0864697
-0.0851401
-0.0836515
-0.0820103
-0.080224
-0.0783013
-0.0762517
-0.0740863
-0.0718173
-0.0694585
-0.0670265
-0.0645419
-0.0620244
-0.0595148
-0.0570464
-0.0546642
-0.0524034
-0.0502723
-0.0482242
-0.0461423
-0.04397
-0.0418978
-0.0407179
-0.0407053
-0.0227622
-0.0225211
-0.0227987
-0.0237229
-0.0253344
-0.0275942
-0.0304198
-0.033698
-0.0372896
-0.0410469
-0.0448381
-0.0485637
-0.0521612
-0.0555995
-0.0588691
-0.0619719
-0.0649134
-0.0676992
-0.0703323
-0.0728135
-0.0751417
-0.0773145
-0.0793288
-0.0811811
-0.082868
-0.0843862
-0.0857324
-0.0869037
-0.0878975
-0.0887113
-0.0893431
-0.0897913
-0.0900547
-0.0901326
-0.0900248
-0.0897317
-0.0892542
-0.0885941
-0.0877535
-0.0867357
-0.0855446
-0.0841851
-0.082663
-0.0809853
-0.0791599
-0.0771963