/*--------------------------------*- C++ -*----------------------------------*\
| =========                 |                                                 |
| \\      /  F ield         | OpenFOAM: The Open Source CFD Toolbox           |
|  \\    /   O peration     | Version:  2406                                  |
|   \\  /    A nd           | Website:  www.openfoam.com                      |
|    \\/     M anipulation  |                                                 |
\*---------------------------------------------------------------------------*/
FoamFile
{
    version     2.0;
    format      ascii;
    arch        "LSB;label=32;scalar=64";
    class       volScalarField;
    location    "40.75";
    object      p;
}
// * * * * * * * * * * * * * * * * * * * * * * * * * * * * * * * * * * * * * //

dimensions      [0 2 -2 0 0 0 0];

internalField   nonuniform List<scalar> 
3600
(
0.0399022
0.0399365
0.0399272
0.0399152
0.0398501
0.039782
0.0396825
0.0395886
0.0394757
0.0393608
0.0392198
0.0390579
0.0388568
0.0386189
0.038333
0.0380013
0.0376184
0.0371884
0.0367137
0.0362058
0.0356814
0.0351684
0.0347025
0.0343262
0.0340834
0.0340148
0.0341536
0.034521
0.035124
0.0359514
0.0369723
0.0381326
0.0393558
0.0405447
0.0415873
0.0423684
0.0427822
0.0427521
0.0422422
0.0412736
0.0399182
0.0382983
0.0365533
0.0348306
0.0332434
0.0318796
0.030771
0.0299309
0.0293248
0.0289267
0.0286751
0.028544
0.0284748
0.0284642
0.0284635
0.0284945
0.0285119
0.0285564
0.0285772
0.0286156
0.0398701
0.0399054
0.0398883
0.0398765
0.0398156
0.039758
0.0396711
0.0395911
0.0394912
0.0393892
0.0392617
0.0391154
0.0389333
0.0387186
0.0384603
0.0381597
0.0378096
0.0374115
0.0369662
0.036484
0.0359791
0.0354736
0.0349962
0.034584
0.0342806
0.0341306
0.034174
0.0344392
0.0349396
0.0356689
0.0366
0.0376815
0.0388388
0.0399758
0.0409809
0.0417384
0.0421413
0.0421107
0.041609
0.0406566
0.0393263
0.0377433
0.0360509
0.0343997
0.0329025
0.0316428
0.0306426
0.0299033
0.0293791
0.0290376
0.0288162
0.028694
0.0286183
0.0285935
0.0285739
0.0285865
0.0285838
0.0286124
0.0286158
0.0286544
0.0398713
0.0399175
0.0398978
0.0398841
0.0398175
0.039758
0.0396727
0.0395989
0.0395089
0.0394181
0.0393024
0.0391668
0.0389945
0.0387873
0.0385332
0.0382302
0.0378686
0.0374458
0.0369571
0.0364059
0.035804
0.0351786
0.0345698
0.0340275
0.0336047
0.0333514
0.0333101
0.0335098
0.033964
0.034666
0.0355883
0.0366792
0.0378639
0.0390457
0.0401119
0.0409436
0.0414286
0.0414805
0.0410523
0.0401556
0.0388573
0.0372821
0.035579
0.0339098
0.0324008
0.031147
0.0301765
0.0294908
0.0290377
0.0287752
0.0286296
0.0285723
0.0285454
0.0285546
0.0285551
0.0285801
0.028581
0.0286145
0.0286161
0.0286693
0.0398737
0.0399249
0.0398982
0.0398784
0.0398064
0.0397485
0.0396722
0.0396136
0.0395434
0.0394733
0.0393781
0.03926
0.0391011
0.0388987
0.0386364
0.0383039
0.0378834
0.0373634
0.0367387
0.0360197
0.0352313
0.0344119
0.0336102
0.0328804
0.0322792
0.031858
0.0316609
0.0317178
0.0320438
0.0326342
0.0334653
0.0344904
0.0356412
0.0368277
0.037943
0.0388709
0.0394968
0.0397263
0.0394987
0.0388077
0.0377029
0.0362956
0.034729
0.0331668
0.0317433
0.0305639
0.0296657
0.0290556
0.0286824
0.028502
0.0284353
0.0284484
0.0284781
0.028529
0.0285554
0.0285953
0.0285994
0.0286347
0.0286308
0.0286925
0.0399186
0.03997
0.0399333
0.0399001
0.0398165
0.0397522
0.0396788
0.039628
0.0395705
0.0395107
0.0394217
0.0392978
0.0391165
0.0388632
0.0385118
0.0380398
0.0374262
0.036664
0.0357622
0.0347462
0.0336578
0.0325491
0.0314809
0.0305129
0.0297035
0.0291014
0.0287473
0.0286674
0.0288755
0.0293675
0.0301238
0.031104
0.0322496
0.033481
0.0347023
0.0358043
0.0366741
0.0372093
0.0373316
0.037008
0.0362574
0.0351621
0.0338459
0.0324655
0.0311616
0.0300539
0.0291974
0.0286156
0.02827
0.0281247
0.0281035
0.0281703
0.0282563
0.0283598
0.0284301
0.028504
0.028531
0.0285818
0.0285843
0.0286531
0.0399881
0.0400314
0.0399813
0.0399301
0.0398367
0.0397679
0.0397012
0.0396588
0.0396118
0.039553
0.0394525
0.0392897
0.0390322
0.0386477
0.0381024
0.03737
0.0364418
0.0353261
0.0340541
0.0326699
0.031232
0.0298002
0.0284387
0.0272052
0.0261552
0.0253326
0.0247747
0.0245042
0.0245343
0.0248625
0.0254746
0.0263395
0.0274121
0.0286295
0.029914
0.0311731
0.032306
0.0332114
0.0337995
0.0340095
0.0338209
0.0332697
0.0324388
0.0314562
0.0304528
0.0295544
0.0288332
0.0283322
0.0280319
0.0279121
0.027909
0.0279944
0.0281031
0.028232
0.028328
0.0284235
0.0284673
0.0285272
0.0285343
0.0286007
0.0401086
0.040135
0.0400684
0.0399921
0.039886
0.0398048
0.039736
0.0396846
0.0396237
0.0395279
0.0393606
0.0390786
0.0386375
0.03799
0.0371071
0.035974
0.0346071
0.0330388
0.0313254
0.0295267
0.027714
0.0259515
0.0243057
0.0228298
0.0215734
0.0205713
0.0198526
0.019432
0.0193183
0.0195069
0.0199869
0.0207338
0.0217157
0.0228867
0.0241911
0.0255599
0.0269148
0.0281694
0.029237
0.0300412
0.0305263
0.0306754
0.0305118
0.0301096
0.0295655
0.0289956
0.0284853
0.0281028
0.0278579
0.0277544
0.0277493
0.0278274
0.0279337
0.0280667
0.0281749
0.0282843
0.0283443
0.0284131
0.0284284
0.0284887
0.040282
0.0402818
0.0401993
0.0400949
0.0399788
0.0398815
0.0398031
0.0397231
0.039616
0.0394295
0.0391177
0.0386114
0.0378629
0.0368232
0.0354862
0.0338609
0.0319967
0.0299492
0.0277967
0.02561
0.0234673
0.0214302
0.0195597
0.017898
0.0164847
0.0153423
0.0144909
0.0139367
0.0136841
0.0137259
0.0140532
0.014647
0.015486
0.0165393
0.0177724
0.0191412
0.0205956
0.0220765
0.0235183
0.0248519
0.0260089
0.0269345
0.0275927
0.027984
0.0281378
0.0281222
0.0280081
0.0278764
0.0277686
0.0277229
0.0277287
0.027792
0.0278766
0.027988
0.0280835
0.0281843
0.028244
0.0283091
0.0283265
0.0283749
0.0405179
0.0404805
0.0403828
0.0402444
0.0401141
0.0399844
0.0398718
0.0397202
0.039505
0.039139
0.0385697
0.037708
0.0365197
0.0349715
0.0330951
0.0309291
0.0285575
0.0260556
0.0235188
0.0210205
0.0186384
0.016424
0.0144275
0.012676
0.0111962
0.00999709
0.00908903
0.00846924
0.00813727
0.0080824
0.00829617
0.00876189
0.00946474
0.0103835
0.0114985
0.0127847
0.0142171
0.0157653
0.0173943
0.0190617
0.0207154
0.0222962
0.0237377
0.0249804
0.0259744
0.026705
0.0271823
0.0274621
0.027602
0.0276772
0.0277233
0.0277809
0.0278411
0.0279213
0.0279917
0.0280715
0.0281213
0.028176
0.0281923
0.0282285
0.0408257
0.0407429
0.0406349
0.0404594
0.0403111
0.0401297
0.0399506
0.0396716
0.0392692
0.0386188
0.0376723
0.0363363
0.0346115
0.0324937
0.0300604
0.0273791
0.0245634
0.0216987
0.0188868
0.0161923
0.0136827
0.0113915
0.0093541
0.00758067
0.00608635
0.00486875
0.00393195
0.00326732
0.00287234
0.00273464
0.0028469
0.00319413
0.00376579
0.00454616
0.00552401
0.00668569
0.00802199
0.00952274
0.0111793
0.0129791
0.0149016
0.016913
0.0189578
0.0209594
0.0228185
0.0244357
0.0257243
0.0266544
0.0272444
0.0275791
0.0277428
0.0278293
0.0278761
0.0279222
0.0279576
0.028003
0.0280296
0.0280637
0.0280718
0.0280956
0.041186
0.0410503
0.040935
0.0407131
0.0405312
0.0402629
0.0399643
0.0394792
0.0387895
0.0377389
0.036303
0.0344023
0.0320895
0.029396
0.026445
0.0233259
0.0201712
0.0170633
0.0140983
0.0113216
0.00878462
0.00650007
0.00448944
0.00274828
0.00128357
8.48257e-05
-0.000847223
-0.00152476
-0.00195065
-0.00213811
-0.00209306
-0.0018295
-0.00135536
-0.000683803
0.00017805
0.00122143
0.00244442
0.00384682
0.00543487
0.00721645
0.00919933
0.0113832
0.0137488
0.0162466
0.018783
0.0212232
0.0234013
0.0251707
0.0264413
0.0272357
0.0276498
0.0278334
0.0278958
0.0279182
0.0279197
0.0279275
0.0279256
0.0279356
0.0279324
0.027947
0.0415978
0.0414065
0.0412878
0.0410102
0.0407741
0.0403762
0.0398945
0.0391162
0.0380381
0.0364873
0.0344847
0.031981
0.0290896
0.0258755
0.0225
0.0190602
0.0156928
0.0124626
0.0094496
0.00667396
0.00416994
0.00193108
-3.13068e-05
-0.00173203
-0.00316771
-0.0043531
-0.00528737
-0.00598376
-0.00644348
-0.00667919
-0.00669457
-0.00650227
-0.00610781
-0.0055227
-0.00475179
-0.00380209
-0.00267326
-0.00136279
0.00014016
0.00185142
0.00379303
0.00598766
0.00845055
0.0111754
0.0141143
0.0171593
0.0201318
0.0228055
0.0249587
0.0264678
0.0273516
0.0277674
0.0279065
0.0279276
0.0279013
0.0278707
0.0278364
0.0278193
0.0278014
0.0278088
0.0419992
0.0417507
0.0416258
0.0412741
0.0409497
0.0403667
0.0396269
0.0384657
0.0369103
0.0347901
0.0321893
0.0290973
0.0256875
0.0220491
0.0183673
0.01473
0.0112645
0.00800755
0.00501939
0.00229493
-0.00014506
-0.00232158
-0.00422829
-0.00588621
-0.00729208
-0.00846262
-0.00939532
-0.0101036
-0.0105866
-0.0108563
-0.0109142
-0.0107719
-0.0104331
-0.00990812
-0.00920048
-0.00831675
-0.00725647
-0.00601765
-0.00459015
-0.00295795
-0.00109618
0.00102658
0.00344477
0.00618592
0.00925344
0.0125999
0.0160993
0.0195292
0.0225945
0.0250106
0.0266212
0.0274852
0.0278199
0.0278868
0.02785
0.0277868
0.0277225
0.0276795
0.0276468
0.0276495
0.0423674
0.0420641
0.0419276
0.0414823
0.0410313
0.0402064
0.0391362
0.0375174
0.0354249
0.0327095
0.0295289
0.0259112
0.0220804
0.0181348
0.0142663
0.0105386
0.00705996
0.00383513
0.000906192
-0.00175323
-0.00413031
-0.00625563
-0.00812338
-0.00975765
-0.0111528
-0.0123261
-0.0132721
-0.0140038
-0.0145178
-0.0148251
-0.014925
-0.0148279
-0.0145352
-0.0140562
-0.0133932
-0.0125525
-0.0115339
-0.0103372
-0.00895502
-0.00737508
-0.00557654
-0.00352965
-0.00119615
0.00146665
0.00449628
0.00790188
0.0116354
0.0155452
0.0193613
0.0227139
0.0252602
0.0268411
0.0275814
0.0277878
0.0277731
0.0276876
0.0275962
0.0275284
0.0274811
0.0274789
0.0425995
0.0422428
0.0420811
0.0415165
0.0408947
0.0397727
0.0383111
0.0361862
0.0335358
0.0302454
0.0265467
0.0224988
0.0183616
0.0142247
0.0102722
0.00653397
0.00309626
-6.59852e-05
-0.00292369
-0.00551874
-0.00784071
-0.00992566
-0.0117653
-0.0133849
-0.0147756
-0.0159548
-0.0169141
-0.0176664
-0.0182061
-0.0185435
-0.0186762
-0.0186135
-0.0183554
-0.0179099
-0.0172785
-0.0164666
-0.0154746
-0.0143029
-0.0129475
-0.0113997
-0.0096452
-0.00766024
-0.00541198
-0.00285699
5.54892e-05
0.00336904
0.00710141
0.0111915
0.0154639
0.0195768
0.0230932
0.0256128
0.0270291
0.0275573
0.0276263
0.0275402
0.0274278
0.027336
0.0272753
0.0272664
0.0426616
0.0422557
0.0420536
0.0413472
0.0405158
0.0390549
0.0371634
0.0345172
0.0313273
0.0275202
0.0233938
0.0190254
0.0146931
0.0104629
0.00650112
0.00280012
-0.000573019
-0.00366808
-0.00646277
-0.00900915
-0.011295
-0.0133592
-0.0151893
-0.0168109
-0.0182116
-0.0194085
-0.0203907
-0.0211708
-0.021741
-0.0221113
-0.0222773
-0.0222475
-0.0220206
-0.0216033
-0.0209963
-0.0202038
-0.0192267
-0.0180655
-0.0167187
-0.0151806
-0.0134429
-0.011489
-0.00929548
-0.00682669
-0.00403435
-0.000863328
0.00274257
0.00679503
0.0112301
0.0158112
0.0201349
0.023663
0.025998
0.0271189
0.0273992
0.0273486
0.0272272
0.0271083
0.0270341
0.027014
0.0424384
0.0419857
0.0417245
0.0408556
0.039783
0.0379596
0.0356275
0.0324807
0.0288053
0.0245681
0.0201195
0.0155403
0.0111106
0.00686285
0.00294144
-0.000695976
-0.00399646
-0.00702797
-0.00976957
-0.0122792
-0.0145404
-0.0165931
-0.0184203
-0.0200479
-0.0214599
-0.0226738
-0.0236763
-0.0244801
-0.0250758
-0.0254731
-0.0256664
-0.0256635
-0.025462
-0.0250677
-0.0244807
-0.023704
-0.0227388
-0.0215849
-0.0202427
-0.0187077
-0.0169766
-0.0150376
-0.0128769
-0.0104684
-0.0077746
-0.00474438
-0.00130899
0.00258463
0.00696259
0.0117111
0.016554
0.0209529
0.0243281
0.0262958
0.0270378
0.0270766
0.026975
0.0268242
0.0267343
0.0266971
0.0419191
0.0414249
0.0410893
0.0400473
0.0387172
0.0365307
0.0337755
0.0301781
0.026095
0.0215272
0.016861
0.012167
0.00771482
0.00349924
-0.00035649
-0.00392389
-0.00715812
-0.0101393
-0.0128439
-0.0153329
-0.0175842
-0.0196384
-0.0214737
-0.0231164
-0.0245473
-0.0257842
-0.0268118
-0.0276428
-0.0282664
-0.0286919
-0.0289128
-0.0289359
-0.0287584
-0.0283847
-0.0278148
-0.0270506
-0.0260937
-0.0249429
-0.0236003
-0.0220613
-0.0203266
-0.0183872
-0.0162374
-0.0138596
-0.0112288
-0.00830576
-0.00502676
-0.00132584
0.00287702
0.00756923
0.0126285
0.0176281
0.0219688
0.0249504
0.0264363
0.0267233
0.0266588
0.0264914
0.0263748
0.0263156
0.041018
0.0404864
0.0400636
0.038846
0.0372575
0.0347289
0.0315929
0.027617
0.0232175
0.0184206
0.013632
0.00890178
0.00448175
0.000330184
-0.00344728
-0.00694428
-0.010119
-0.0130588
-0.0157353
-0.0182105
-0.020457
-0.0225152
-0.0243595
-0.0260163
-0.0274641
-0.0287209
-0.02977
-0.0306239
-0.031271
-0.03172
-0.031964
-0.0320086
-0.0318514
-0.0314951
-0.0309406
-0.0301877
-0.0292397
-0.0280933
-0.0267528
-0.0252122
-0.0234754
-0.021534
-0.0193884
-0.0170262
-0.0144344
-0.0115859
-0.00843076
-0.00490901
-0.000919884
0.00358643
0.00862019
0.0139176
0.0189815
0.023
0.0254136
0.0262522
0.0262371
0.0260914
0.0259353
0.0258489
0.0397783
0.0392176
0.0387019
0.0373186
0.0354867
0.0326562
0.0291991
0.0249285
0.0203057
0.0153732
0.0105406
0.00583207
0.00147809
-0.0025949
-0.00629422
-0.00972878
-0.012856
-0.0157667
-0.0184267
-0.020898
-0.0231481
-0.0252172
-0.0270763
-0.0287522
-0.0302213
-0.0315016
-0.0325753
-0.0334543
-0.0341266
-0.0345998
-0.0348671
-0.0349326
-0.0347945
-0.0344537
-0.0339125
-0.0331687
-0.0322275
-0.0310835
-0.0297438
-0.0282002
-0.02646
-0.0245137
-0.0223668
-0.0200089
-0.0174366
-0.014633
-0.0115637
-0.00818405
-0.00439478
-0.000122093
0.00473825
0.0100692
0.015564
0.0204468
0.02389
0.0255255
0.0257299
0.0255853
0.0254238
0.0252851
0.0381668
0.0375847
0.0369751
0.0354436
0.0333953
0.030315
0.0266054
0.0221252
0.0173652
0.0123761
0.00755982
0.00291369
-0.00135373
-0.00534094
-0.00896416
-0.0123414
-0.0154275
-0.0183137
-0.0209606
-0.0234292
-0.0256829
-0.0277615
-0.0296336
-0.031326
-0.0328136
-0.034114
-0.0352089
-0.0361095
-0.0368034
-0.0372971
-0.0375842
-0.0376672
-0.0375453
-0.0372174
-0.0366878
-0.0359517
-0.0350174
-0.0338764
-0.0325397
-0.0309957
-0.0292561
-0.0273085
-0.025163
-0.0228086
-0.0202492
-0.0174741
-0.0144632
-0.0111885
-0.0075649
-0.00352119
0.00109843
0.00627995
0.0119318
0.0173902
0.0218451
0.0243665
0.0251347
0.0249252
0.0248268
0.024598
0.0362847
0.0356928
0.0349947
0.0333411
0.0311127
0.027842
0.0239511
0.0193423
0.0145202
0.00953798
0.00478126
0.000222465
-0.00395025
-0.00785317
-0.0114081
-0.0147372
-0.0177915
-0.0206612
-0.023302
-0.0257735
-0.0280358
-0.0301282
-0.0320176
-0.0337299
-0.0352396
-0.0365632
-0.0376822
-0.0386062
-0.0393236
-0.0398385
-0.040146
-0.0402459
-0.0401395
-0.0398228
-0.039303
-0.0385723
-0.0376427
-0.0365024
-0.035167
-0.0336212
-0.0318819
-0.0299325
-0.0277889
-0.0254367
-0.0228866
-0.0201295
-0.0171574
-0.0139561
-0.0104594
-0.00661252
-0.0022451
0.00269149
0.00827814
0.0140285
0.0192978
0.022745
0.024326
0.0241403
0.0240958
0.0237862
0.0341418
0.0335506
0.0327722
0.0310244
0.0286544
0.0252513
0.0212436
0.0165747
0.0117487
0.00681884
0.00214879
-0.00230888
-0.00638459
-0.0102054
-0.0136969
-0.0169815
-0.0200069
-0.0228608
-0.0254951
-0.0279677
-0.0302367
-0.0323401
-0.034244
-0.0359734
-0.0375023
-0.038846
-0.0399862
-0.0409306
-0.0416686
-0.0422017
-0.0425268
-0.0426405
-0.0425473
-0.0422392
-0.0417277
-0.0410004
-0.0400748
-0.0389343
-0.0376007
-0.0360537
-0.0343168
-0.0323681
-0.0302299
-0.0278829
-0.0253442
-0.0226031
-0.0196612
-0.0165133
-0.0131123
-0.00942429
-0.00528897
-0.000628766
0.0047433
0.0105524
0.0163294
0.0206951
0.0231164
0.0232693
0.0231595
0.0228439
0.0318744
0.0312972
0.0304504
0.0286394
0.0261678
0.0226881
0.0186219
0.0139508
0.00916635
0.00432139
-0.000246133
-0.00459762
-0.00858018
-0.0123255
-0.0157621
-0.0190094
-0.0220128
-0.024856
-0.0274888
-0.0299665
-0.0322462
-0.0343642
-0.0362865
-0.0380361
-0.0395877
-0.0409543
-0.0421185
-0.0430853
-0.0438456
-0.0443978
-0.0447413
-0.0448688
-0.0447884
-0.0444876
-0.043983
-0.0432569
-0.0423335
-0.0411902
-0.0398566
-0.0383059
-0.0365702
-0.0346208
-0.0324883
-0.0301467
-0.0276208
-0.0248948
-0.0219793
-0.0188727
-0.0155444
-0.0119815
-0.00804385
-0.00365509
0.00142872
0.00711408
0.0131075
0.0182569
0.0214608
0.0222782
0.0220123
0.021757
0.0295076
0.0289552
0.0280515
0.0262039
0.0236645
0.0201532
0.016072
0.0114393
0.00672394
0.00198089
-0.00247943
-0.00672572
-0.0106206
-0.0142953
-0.0176813
-0.020893
-0.0238749
-0.0267059
-0.0293353
-0.0318152
-0.0341029
-0.0362322
-0.03817
-0.0399367
-0.0415082
-0.0428944
-0.04408
-0.0450659
-0.0458461
-0.0464143
-0.0467739
-0.0469122
-0.0468426
-0.0465466
-0.0460472
-0.0453203
-0.0443979
-0.0432501
-0.0419159
-0.0403604
-0.0386264
-0.0366761
-0.0345512
-0.0322165
-0.0297064
-0.0269976
-0.0241094
-0.0210398
-0.0177711
-0.014309
-0.0105335
-0.00639444
-0.00161517
0.00381355
0.00980732
0.0154767
0.0194211
0.0210219
0.0206919
0.0204776
0.0271841
0.0266693
0.0257219
0.023864
0.0212883
0.017785
0.0137252
0.00916239
0.00453565
-9.54935e-05
-0.00444903
-0.00859501
-0.0124107
-0.0160225
-0.0193658
-0.0225479
-0.0255139
-0.0283371
-0.0309677
-0.0334534
-0.0357531
-0.0378972
-0.0398542
-0.0416411
-0.0432359
-0.0446444
-0.0458539
-0.0468609
-0.0476628
-0.048248
-0.0486247
-0.0487738
-0.0487152
-0.0484229
-0.0479282
-0.0471986
-0.046276
-0.0451211
-0.0437847
-0.0422218
-0.0404878
-0.0385343
-0.0364162
-0.0340871
-0.031594
-0.0289028
-0.0260437
-0.0230094
-0.0197937
-0.0164161
-0.0127736
-0.00885617
-0.00436664
0.000725381
0.00657248
0.0124564
0.0170861
0.0193957
0.0192597
0.0189817
0.0249177
0.0244492
0.0234686
0.0216189
0.0190283
0.0155582
0.0115398
0.00706185
0.00252797
-0.00199296
-0.00624766
-0.0103015
-0.0140464
-0.0176006
-0.0209049
-0.024058
-0.0270078
-0.0298209
-0.0324501
-0.0349382
-0.0372469
-0.0394021
-0.0413752
-0.0431786
-0.0447935
-0.0462205
-0.0474512
-0.0484757
-0.0492968
-0.0498956
-0.050287
-0.0504439
-0.0503943
-0.0501031
-0.0496116
-0.0488768
-0.0479527
-0.0467886
-0.0454492
-0.0438766
-0.0421422
-0.0401837
-0.0380726
-0.0357482
-0.0332736
-0.0306006
-0.0277736
-0.024775
-0.0216113
-0.0183083
-0.0147789
-0.0110544
-0.00682903
-0.00210438
0.00349473
0.00933287
0.0145243
0.0174024
0.0177248
0.0172693
0.0228379
0.0224267
0.0214251
0.0196017
0.0170157
0.0136011
0.00964081
0.0052592
0.000820444
-0.00359337
-0.00775767
-0.0117285
-0.0154126
-0.0189173
-0.0221901
-0.02532
-0.028259
-0.0310666
-0.033699
-0.0361935
-0.0385153
-0.040685
-0.0426779
-0.0445007
-0.046139
-0.0475869
-0.0488412
-0.0498848
-0.050727
-0.0513403
-0.0517478
-0.0519126
-0.0518728
-0.0515818
-0.0510935
-0.050352
-0.0494261
-0.0482505
-0.046907
-0.0453221
-0.0435859
-0.0416193
-0.0395142
-0.0371916
-0.0347356
-0.0320795
-0.0292865
-0.0263232
-0.023213
-0.0199782
-0.0165507
-0.0129929
-0.00900685
-0.00464434
0.000635096
0.00624377
0.0117952
0.0151054
0.0160184
0.0153428
0.0209306
0.0205832
0.0195691
0.0177816
0.0152089
0.0118581
0.00795811
0.0036702
-0.000683262
-0.005002
-0.00908999
-0.0129892
-0.016622
-0.0200825
-0.0233272
-0.026434
-0.0293615
-0.0321608
-0.0347937
-0.0372907
-0.0396221
-0.041802
-0.0438111
-0.0456489
-0.0473069
-0.0487715
-0.0500462
-0.0511049
-0.0519652
-0.0525893
-0.0530105
-0.0531797
-0.0531476
-0.0528538
-0.0523672
-0.0516162
-0.0506871
-0.0494973
-0.0481488
-0.0465486
-0.0448097
-0.0428321
-0.0407321
-0.0384086
-0.035971
-0.0333295
-0.0305723
-0.0276432
-0.0245893
-0.0214182
-0.0180877
-0.0146741
-0.0109067
-0.00688006
-0.00196621
0.00330032
0.00897116
0.0125853
0.0140611
0.0132136
0.0193059
0.0190311
0.0180163
0.0162765
0.0137278
0.0104505
0.00661532
0.00242107
-0.00185329
-0.006086
-0.010109
-0.0139472
-0.0175388
-0.0209634
-0.0241873
-0.0272772
-0.030199
-0.0329948
-0.0356333
-0.0381368
-0.0404822
-0.0426758
-0.0447047
-0.0465602
-0.0482412
-0.0497243
-0.051022
-0.0520971
-0.0529777
-0.0536133
-0.0540498
-0.0542235
-0.0542004
-0.0539032
-0.053419
-0.0526572
-0.0517252
-0.0505193
-0.0491653
-0.0475473
-0.0458049
-0.0438128
-0.0417167
-0.0393884
-0.0369683
-0.0343376
-0.0316165
-0.028719
-0.0257234
-0.022612
-0.0193769
-0.0160896
-0.0125241
-0.0087993
-0.00427289
0.000590189
0.00615536
0.00994272
0.0118582
0.0109383
0.0179158
0.0177174
0.0167097
0.0150215
0.0124978
0.00929191
0.00551392
0.0014017
-0.00280978
-0.00697288
-0.0109471
-0.0147367
-0.0182968
-0.0216908
-0.024897
-0.0279697
-0.0308846
-0.0336739
-0.0363146
-0.0388202
-0.0411756
-0.0433778
-0.0454224
-0.0472905
-0.0489904
-0.0504872
-0.0518043
-0.0528911
-0.053789
-0.0544316
-0.054881
-0.0550552
-0.055039
-0.0547349
-0.0542515
-0.0534754
-0.0525393
-0.0513138
-0.0499533
-0.0483138
-0.0465666
-0.044556
-0.0424623
-0.0401245
-0.0377203
-0.0350957
-0.0324098
-0.0295395
-0.0266033
-0.0235466
-0.0204063
-0.0172301
-0.0138526
-0.0103939
-0.00625474
-0.00181972
0.0034677
0.00729681
0.00951038
0.00861495
0.0168542
0.0167387
0.0157511
0.0141241
0.0116326
0.00850229
0.00478176
0.00074768
-0.00340875
-0.00751225
-0.0114487
-0.0152001
-0.0187383
-0.0221099
-0.0253058
-0.0283677
-0.0312819
-0.0340699
-0.0367183
-0.0392304
-0.0416004
-0.0438147
-0.045879
-0.0477622
-0.0494844
-0.0509966
-0.0523359
-0.0534356
-0.0543531
-0.0550034
-0.0554677
-0.0556425
-0.0556351
-0.0553234
-0.0548423
-0.0540509
-0.0531116
-0.0518646
-0.0504979
-0.0488341
-0.0470818
-0.0450487
-0.0429563
-0.040604
-0.0382138
-0.0355895
-0.0329371
-0.0300881
-0.0272104
-0.0242026
-0.0211558
-0.0180777
-0.0148754
-0.0116492
-0.00788129
-0.00387306
0.0010265
0.0047771
0.00716657
0.00636062
0.0160378
0.0160054
0.0150468
0.0134835
0.0110234
0.0079631
0.00429044
0.000321081
-0.00379687
-0.00785729
-0.0117717
-0.0154969
-0.0190224
-0.0223763
-0.0255646
-0.0286148
-0.0315268
-0.0343094
-0.036962
-0.0394751
-0.0418555
-0.0440759
-0.0461555
-0.0480481
-0.0497884
-0.0513104
-0.0526684
-0.0537756
-0.0547098
-0.0553629
-0.0558396
-0.0560104
-0.0560099
-0.0556863
-0.055206
-0.054395
-0.0534512
-0.0521785
-0.0508044
-0.0491115
-0.0473524
-0.0452915
-0.0431981
-0.0408248
-0.0384458
-0.0358141
-0.0331919
-0.0303559
-0.027534
-0.0245666
-0.0216103
-0.0186171
-0.0155775
-0.012552
-0.00912856
-0.00552654
-0.00107144
0.00250263
0.0049686
0.00428223
0.0155533
0.0156064
0.0146921
0.0132038
0.0107849
0.00779944
0.00417753
0.000271314
-0.00381241
-0.00783702
-0.0117376
-0.0154454
-0.0189666
-0.0223109
-0.0254989
-0.0285443
-0.0314606
-0.0342438
-0.0369063
-0.0394253
-0.0418212
-0.0440517
-0.046151
-0.0480555
-0.0498178
-0.0513514
-0.0527314
-0.0538473
-0.0548011
-0.0554575
-0.0559495
-0.0561163
-0.0561252
-0.0557893
-0.0553121
-0.0544803
-0.0535339
-0.0522334
-0.0508529
-0.0491278
-0.047362
-0.0452685
-0.0431729
-0.0407723
-0.0384019
-0.0357547
-0.0331589
-0.0303265
-0.0275561
-0.0246187
-0.0217483
-0.0188262
-0.0159368
-0.0130821
-0.00997213
-0.00674325
-0.00275148
0.0005746
0.00303235
0.00246984
0.0152799
0.0154127
0.0145538
0.0131449
0.010771
0.00785729
0.00428114
0.00042871
-0.00363268
-0.00763446
-0.0115342
-0.0152347
-0.0187597
-0.0220978
-0.0252875
-0.0283263
-0.0312447
-0.0340235
-0.036692
-0.0392107
-0.0416177
-0.0438517
-0.0459665
-0.0478767
-0.0496574
-0.0511965
-0.0525954
-0.0537142
-0.0546851
-0.0553394
-0.0558447
-0.0560023
-0.0560192
-0.0556658
-0.0551905
-0.0543328
-0.0533826
-0.0520488
-0.0506606
-0.0488971
-0.0471226
-0.0449893
-0.0428887
-0.0404518
-0.0380858
-0.0354124
-0.0328374
-0.0299962
-0.0272707
-0.0243499
-0.0215578
-0.0186907
-0.0159379
-0.0132244
-0.010395
-0.00749772
-0.00396309
-0.000929651
0.00144463
0.000994593
0.0153097
0.015517
0.0147313
0.0134167
0.0111056
0.00827398
0.00475462
0.000961384
-0.00307392
-0.00705418
-0.0109561
-0.0146553
-0.0181904
-0.02153
-0.0247288
-0.0277681
-0.030696
-0.033477
-0.0361585
-0.0386824
-0.0411067
-0.0433485
-0.0454844
-0.0474035
-0.0492072
-0.0507541
-0.0521761
-0.0532992
-0.0542913
-0.0549441
-0.0554666
-0.0556152
-0.0556435
-0.0552723
-0.0548021
-0.0539174
-0.0529661
-0.0515966
-0.0502025
-0.0483968
-0.0466142
-0.0444353
-0.0423285
-0.0398473
-0.0374824
-0.034772
-0.0322124
-0.029349
-0.0266612
-0.0237414
-0.0210191
-0.0181889
-0.0155592
-0.0129578
-0.0103774
-0.00776644
-0.00466816
-0.0019486
0.000275787
-8.07213e-05
0.015478
0.0157452
0.015046
0.0138333
0.0115993
0.00885385
0.00539639
0.00166197
-0.00234979
-0.00631407
-0.0102255
-0.0139294
-0.0174805
-0.0208232
-0.0240323
-0.0270691
-0.030004
-0.0327812
-0.0354718
-0.037994
-0.0404319
-0.0426747
-0.0448284
-0.0467498
-0.0485741
-0.0501226
-0.051566
-0.0526874
-0.0536994
-0.054345
-0.0548837
-0.0550175
-0.0550567
-0.0546617
-0.0541961
-0.0532781
-0.052325
-0.050913
-0.0495117
-0.0476557
-0.0458629
-0.0436288
-0.0415122
-0.0389749
-0.0366057
-0.0338441
-0.0312923
-0.0283896
-0.02573
-0.0227919
-0.0201281
-0.0173133
-0.0147914
-0.0122719
-0.0099096
-0.00753668
-0.00484394
-0.00243832
-0.000418564
-0.000702681
0.0158997
0.0162125
0.0156173
0.0145241
0.0123966
0.0097564
0.00638363
0.00272384
-0.001249
-0.00518937
-0.00910543
-0.0128152
-0.0163857
-0.019738
-0.0229648
-0.0260071
-0.0289578
-0.031739
-0.0344473
-0.0369747
-0.0394341
-0.0416834
-0.0438622
-0.0457901
-0.0476417
-0.0491946
-0.0506654
-0.0517871
-0.0528245
-0.053464
-0.0540242
-0.0541436
-0.0541988
-0.0537797
-0.0533232
-0.0523705
-0.0514195
-0.0499622
-0.0485566
-0.0466457
-0.0448439
-0.0425473
-0.0404201
-0.0378164
-0.0354395
-0.0326125
-0.0300622
-0.0271025
-0.0244616
-0.0214842
-0.0188676
-0.0160445
-0.0136156
-0.0111473
-0.00897517
-0.00679214
-0.00446935
-0.00236087
-0.000585925
-0.000816796
0.0163561
0.0166927
0.016213
0.0152498
0.0132548
0.0107353
0.00746578
0.0038935
-2.94356e-05
-0.00393929
-0.00785799
-0.0115725
-0.0151641
-0.0185245
-0.0217692
-0.0248126
-0.027777
-0.0305555
-0.0332786
-0.035804
-0.0382828
-0.0405319
-0.0427347
-0.0446629
-0.0465416
-0.0480931
-0.0495918
-0.050708
-0.0517717
-0.0523992
-0.0529818
-0.0530806
-0.0531525
-0.0527025
-0.052256
-0.0512609
-0.0503123
-0.0488009
-0.0473903
-0.0454141
-0.0436013
-0.0412298
-0.0390882
-0.0364028
-0.0340121
-0.0311012
-0.0285435
-0.0255045
-0.0228711
-0.0198291
-0.0172461
-0.0143868
-0.012035
-0.00958442
-0.00757528
-0.00553197
-0.00353858
-0.00169409
-0.000185713
-0.000377805
0.0170138
0.017357
0.0170001
0.0161832
0.0143569
0.0119878
0.00885593
0.00539937
0.00155522
-0.00230358
-0.00620913
-0.00992155
-0.013533
-0.0169058
-0.020176
-0.0232296
-0.0262186
-0.0290043
-0.0317538
-0.0342861
-0.0367953
-0.0390515
-0.0412884
-0.0432228
-0.0451377
-0.0466922
-0.0482271
-0.0493408
-0.0504385
-0.0510559
-0.0516682
-0.0517473
-0.0518429
-0.0513618
-0.0509314
-0.0498926
-0.0489518
-0.047383
-0.0459717
-0.0439244
-0.0421032
-0.0396477
-0.0374917
-0.0347115
-0.0323038
-0.0292912
-0.0267195
-0.0235786
-0.0209427
-0.0178091
-0.0152474
-0.0123221
-0.0100329
-0.00756595
-0.00569652
-0.00374402
-0.00203988
-0.000415258
0.000823467
0.000662862
0.0175863
0.0179179
0.0176811
0.0170209
0.0153933
0.0132037
0.010241
0.00692986
0.00319169
-0.000591819
-0.00446819
-0.00816491
-0.0117906
-0.0151685
-0.018463
-0.0215205
-0.0245335
-0.0273197
-0.0300955
-0.0326282
-0.0351688
-0.0374263
-0.0396999
-0.0416351
-0.0435898
-0.0451422
-0.0467174
-0.0478232
-0.048959
-0.0495603
-0.0502063
-0.0502587
-0.0503814
-0.0498613
-0.0494499
-0.0483579
-0.0474268
-0.0457897
-0.0443784
-0.0422468
-0.0404162
-0.0378606
-0.0356871
-0.0327925
-0.0303622
-0.0272241
-0.0246298
-0.0213589
-0.0187092
-0.0154523
-0.012899
-0.0098733
-0.00763259
-0.00511088
-0.00335942
-0.00144521
1.20156e-05
0.00147448
0.00246151
0.00233383
0.0183347
0.0186469
0.0185137
0.0180178
0.016615
0.0146418
0.0118889
0.00876344
0.00517261
0.00150001
-0.00231768
-0.00598006
-0.00961093
-0.0129936
-0.0163191
-0.0193907
-0.0224419
-0.0252418
-0.0280598
-0.0306051
-0.0331926
-0.0354619
-0.0377862
-0.0397306
-0.0417379
-0.0432944
-0.0449215
-0.046024
-0.0472086
-0.0477967
-0.0484862
-0.0485136
-0.0486726
-0.0481135
-0.0477296
-0.046583
-0.0456692
-0.04396
-0.0425548
-0.0403322
-0.0384962
-0.0358299
-0.0336402
-0.0306155
-0.0281603
-0.0248751
-0.0222521
-0.0188234
-0.0161506
-0.0127371
-0.0101813
-0.00701843
-0.0048154
-0.0021994
-0.00055076
0.00137599
0.0026214
0.00398409
0.00475168
0.00466813
0.0188769
0.0191629
0.0191126
0.0187838
0.0176246
0.0159066
0.0134044
0.0105125
0.00711347
0.00359893
-0.000124844
-0.00371937
-0.00733758
-0.0107068
-0.0140588
-0.017135
-0.0202265
-0.023034
-0.0258993
-0.0284527
-0.031094
-0.0333713
-0.0357547
-0.0377047
-0.0397737
-0.0413305
-0.0430185
-0.0441128
-0.0453548
-0.0459236
-0.0466644
-0.046659
-0.0468612
-0.0462537
-0.0459032
-0.0446903
-0.0437987
-0.0420033
-0.0406077
-0.0382772
-0.0364374
-0.0336398
-0.0314331
-0.0282534
-0.0257698
-0.0223078
-0.01965
-0.0160289
-0.0133252
-0.00971637
-0.0071504
-0.00380882
-0.00163687
0.00111875
0.0026753
0.0046729
0.00574008
0.0070796
0.00767617
0.00765934
0.0196223
0.0198848
0.0198851
0.019708
0.0187902
0.0173548
0.0151404
0.012529
0.00937149
0.00606527
0.00247987
-0.00101224
-0.00459689
-0.00794353
-0.0113259
-0.0144161
-0.0175659
-0.020398
-0.0233329
-0.0259117
-0.0286287
-0.0309285
-0.0333909
-0.0353583
-0.0375064
-0.0390725
-0.0408371
-0.0419299
-0.0432433
-0.0437973
-0.0446022
-0.0445668
-0.0448241
-0.044169
-0.0438629
-0.0425827
-0.041723
-0.0398378
-0.0384602
-0.0360144
-0.0341772
-0.0312363
-0.0290161
-0.0256632
-0.0231511
-0.0194868
-0.0167903
-0.0129435
-0.0102023
-0.00635782
-0.00377522
-0.00020961
0.00193418
0.00487785
0.00634322
0.00846877
0.00937378
0.0107645
0.0112358
0.0113181
0.0200388
0.0202738
0.0203082
0.0202668
0.019592
0.0184712
0.0165896
0.0143228
0.0114685
0.00844415
0.00505596
0.00172784
-0.00178633
-0.00507344
-0.00847425
-0.0115623
-0.0147751
-0.0176267
-0.0206443
-0.0232476
-0.0260564
-0.028379
-0.0309373
-0.0329214
-0.0351656
-0.0367385
-0.0385957
-0.0396822
-0.0410817
-0.0416138
-0.0424962
-0.042421
-0.0427454
-0.0420304
-0.0417794
-0.0404165
-0.0395984
-0.0376048
-0.0362534
-0.0336703
-0.0318421
-0.0287316
-0.0265022
-0.022945
-0.0204064
-0.0165034
-0.0137688
-0.00965474
-0.00687719
-0.00275119
-0.000156296
0.00368295
0.00578905
0.00897683
0.0103412
0.012667
0.0134203
0.0149603
0.0153589
0.0155884
0.020752
0.0209639
0.0210078
0.0210593
0.0205876
0.0197724
0.0182394
0.0163577
0.0138569
0.0111742
0.00803965
0.00492711
0.00151875
-0.00168594
-0.005102
-0.00819291
-0.0114889
-0.0143797
-0.0175096
-0.0201605
-0.0230914
-0.0254573
-0.0281387
-0.030156
-0.0325197
-0.0341122
-0.0360822
-0.0371721
-0.0386754
-0.0391927
-0.0401682
-0.040058
-0.0404638
-0.0396914
-0.0395087
-0.0380635
-0.0372989
-0.0351946
-0.0338798
-0.0311532
-0.0293426
-0.026051
-0.0238183
-0.0200383
-0.0174762
-0.0133071