/*--------------------------------*- C++ -*----------------------------------*\
| =========                 |                                                 |
| \\      /  F ield         | OpenFOAM: The Open Source CFD Toolbox           |
|  \\    /   O peration     | Version:  2406                                  |
|   \\  /    A nd           | Website:  www.openfoam.com                      |
|    \\/     M anipulation  |                                                 |
\*---------------------------------------------------------------------------*/
FoamFile
{
    version     2.0;
    format      ascii;
    arch        "LSB;label=32;scalar=64";
    class       volScalarField;
    location    "47.7";
    object      p;
}
// * * * * * * * * * * * * * * * * * * * * * * * * * * * * * * * * * * * * * //

dimensions      [0 2 -2 0 0 0 0];

internalField   nonuniform List<scalar> 
3600
(
0.0409427
0.0409791
0.0409686
0.0409553
0.0408854
0.0408126
0.040707
0.0406082
0.0404902
0.0403715
0.0402269
0.0400622
0.0398579
0.0396164
0.0393257
0.038988
0.0385973
0.0381581
0.0376728
0.0371534
0.0366173
0.0360936
0.035619
0.0352369
0.0349917
0.0349242
0.0350671
0.0354409
0.0360512
0.036885
0.037909
0.0390666
0.0402784
0.0414446
0.0424516
0.0431838
0.043537
0.0434381
0.0428564
0.0418196
0.0404055
0.038741
0.0369676
0.0352322
0.0336452
0.0322909
0.031197
0.0303735
0.0297836
0.0293995
0.0291594
0.0290369
0.0289738
0.0289672
0.0289693
0.0290018
0.0290204
0.0290651
0.0290861
0.0291237
0.0409085
0.040946
0.0409273
0.0409142
0.0408484
0.0407865
0.0406938
0.0406093
0.0405049
0.0403998
0.0402693
0.0401209
0.0399362
0.0397186
0.0394561
0.0391499
0.0387924
0.0383852
0.0379293
0.0374356
0.0369187
0.0364015
0.0359135
0.035493
0.0351844
0.0350329
0.0350785
0.0353486
0.0358554
0.036591
0.0375255
0.038605
0.0397519
0.0408675
0.0418383
0.0425482
0.0428914
0.0427929
0.0422201
0.0412001
0.039812
0.0381857
0.0364669
0.0348052
0.0333105
0.0320619
0.0310772
0.0303542
0.029845
0.0295158
0.029304
0.0291888
0.029118
0.0290964
0.029079
0.0290929
0.0290912
0.02912
0.0291239
0.0291617
0.0409102
0.0409591
0.0409376
0.0409219
0.0408497
0.0407853
0.0406938
0.0406154
0.0405209
0.0404274
0.0403093
0.0401722
0.0399979
0.0397883
0.0395301
0.0392214
0.0388517
0.0384186
0.0379173
0.0373517
0.0367345
0.036094
0.0354722
0.0349198
0.034491
0.034236
0.034197
0.0344023
0.034864
0.0355737
0.0365013
0.0375924
0.038769
0.0399318
0.0409659
0.0417518
0.0421784
0.0421625
0.0416626
0.0406967
0.0393385
0.037718
0.0359872
0.0343075
0.0328022
0.0315616
0.0306093
0.0299424
0.0295062
0.0292571
0.0291214
0.0290707
0.0290481
0.0290598
0.0290619
0.0290877
0.0290893
0.0291228
0.0291247
0.0291771
0.0409129
0.040967
0.0409376
0.0409151
0.0408364
0.040773
0.0406901
0.0406271
0.0405528
0.0404806
0.0403838
0.0402648
0.0401045
0.0398996
0.0396325
0.0392925
0.038861
0.0383266
0.0376845
0.0369462
0.0361381
0.0352997
0.0344812
0.033738
0.0331276
0.0327019
0.0325051
0.0325662
0.0328993
0.0334978
0.0343359
0.035364
0.0365111
0.0376841
0.0387739
0.0396631
0.0402376
0.0404054
0.0401105
0.039353
0.0381893
0.0367364
0.0351411
0.0335674
0.0321472
0.0309812
0.0301016
0.0295111
0.0291554
0.0289888
0.0289321
0.0289515
0.0289849
0.0290375
0.0290645
0.0291045
0.0291088
0.0291438
0.0291401
0.0292011
0.0409609
0.0410152
0.0409747
0.0409373
0.0408455
0.0407745
0.0406938
0.0406382
0.0405766
0.0405148
0.0404242
0.0402991
0.0401152
0.0398572
0.0394974
0.0390124
0.0383811
0.0375973
0.0366708
0.0356285
0.0345138
0.0333804
0.0322904
0.0313047
0.0304824
0.0298727
0.0295165
0.0294392
0.0296539
0.0301549
0.0309205
0.0319081
0.0330563
0.0342829
0.0354891
0.0365641
0.0373947
0.0378796
0.0379442
0.0375608
0.0367547
0.0356141
0.0342675
0.032873
0.0315696
0.0304734
0.0296344
0.0290718
0.028744
0.0286133
0.0286029
0.0286767
0.0287667
0.0288719
0.0289426
0.0290162
0.0290428
0.0290932
0.0290956
0.0291639
0.041035
0.0410807
0.0410253
0.0409681
0.0408649
0.0407882
0.0407136
0.040666
0.0406146
0.0405532
0.0404499
0.0402836
0.0400197
0.0396246
0.0390629
0.0383085
0.0373529
0.0362056
0.0348994
0.03348
0.0320075
0.0305431
0.0291526
0.0278947
0.0268259
0.0259907
0.0254265
0.0251557
0.0251908
0.025528
0.0261516
0.0270284
0.0281109
0.0293337
0.0306167
0.0318652
0.0329771
0.0338513
0.0343995
0.0345646
0.0343312
0.0337407
0.032881
0.0318827
0.0308768
0.0299864
0.0292795
0.0287951
0.0285109
0.0284044
0.0284114
0.0285036
0.0286164
0.028747
0.0288434
0.0289385
0.0289816
0.0290408
0.0290477
0.029114
0.0411643
0.0411921
0.0411184
0.0410338
0.0409162
0.0408256
0.0407478
0.04069
0.0406233
0.0405224
0.0403485
0.040057
0.039601
0.0389323
0.0380211
0.0368532
0.0354462
0.0338342
0.0320751
0.0302306
0.0283736
0.0265702
0.0248881
0.0233817
0.0221015
0.0210825
0.0203541
0.0199306
0.0198203
0.0200176
0.0205104
0.0212726
0.0222705
0.0234562
0.0247719
0.0261467
0.0275005
0.0287462
0.0297971
0.0305783
0.0310367
0.0311594
0.030974
0.0305578
0.030009
0.0294431
0.0289429
0.0285735
0.0283418
0.0282499
0.0282539
0.0283384
0.0284487
0.0285837
0.0286926
0.0288018
0.0288611
0.0289294
0.0289443
0.0290048
0.0413507
0.0413502
0.0412587
0.0411436
0.0410145
0.040906
0.0408172
0.0407284
0.0406123
0.0404153
0.0400892
0.0395627
0.0387862
0.0377104
0.0363298
0.0346546
0.0327359
0.0306312
0.0284211
0.0261782
0.0239824
0.0218969
0.0199839
0.0182866
0.016845
0.015682
0.0148178
0.0142583
0.0140073
0.0140569
0.0143974
0.0150085
0.0158676
0.0169425
0.0181972
0.0195859
0.0210574
0.0225512
0.0240011
0.0253376
0.0264931
0.027414
0.0280664
0.0284531
0.0286053
0.0285921
0.0284841
0.0283607
0.0282619
0.0282246
0.0282371
0.0283054
0.0283932
0.0285065
0.0286025
0.0287033
0.0287626
0.0288274
0.0288444
0.0288932
0.0416058
0.0415659
0.0414574
0.0413057
0.0411608
0.0410175
0.0408919
0.040727
0.0404964
0.0401103
0.0395139
0.0386161
0.0373825
0.0357802
0.0338428
0.0316107
0.0291702
0.0265987
0.0239941
0.0214314
0.01899
0.0167223
0.0146797
0.0128896
0.0113792
0.0101574
0.00923469
0.00860789
0.00827625
0.00822835
0.0084551
0.00893888
0.00966407
0.0106085
0.0117513
0.0130669
0.0145291
0.0161068
0.0177642
0.0194581
0.0211357
0.0227374
0.0241961
0.0254524
0.0264565
0.0271944
0.0276773
0.027962
0.0281063
0.0281858
0.0282357
0.0282965
0.0283588
0.0284405
0.0285115
0.0285916
0.0286411
0.0286959
0.0287119
0.0287487
0.0419397
0.0418516
0.0417316
0.0415401
0.0413755
0.041177
0.0409804
0.0406803
0.0402519
0.0395666
0.0385754
0.0371834
0.0353934
0.0332022
0.0306905
0.027928
0.025031
0.022087
0.0192
0.0164357
0.0138629
0.0115153
0.00942938
0.00761527
0.00608854
0.00484667
0.00389383
0.003221
0.00282545
0.00269416
0.00281937
0.00318536
0.003781
0.00458981
0.00560002
0.00679734
0.00817214
0.00971376
0.0114132
0.0132572
0.0152246
0.0172803
0.0193671
0.0214062
0.0232958
0.024935
0.0262367
0.0271725
0.0277638
0.0280981
0.0282614
0.0283483
0.0283954
0.0284422
0.0284778
0.0285236
0.0285501
0.0285846
0.0285927
0.0286171
0.0423334
0.0421895
0.0420612
0.0418206
0.0416198
0.0413289
0.0410053
0.0404872
0.0397559
0.0386507
0.0371486
0.0351699
0.0327711
0.0299857
0.026941
0.0237285
0.0204836
0.0172901
0.0142456
0.0113959
0.00879329
0.0064506
0.00438993
0.00260682
0.00110864
-0.000115278
-0.00106408
-0.00175038
-0.00217721
-0.00235838
-0.00230015
-0.00201719
-0.00151781
-0.000815792
8.14457e-05
0.00116468
0.00243181
0.00388238
0.00552251
0.00735987
0.0094018
0.0116471
0.0140747
0.0166326
0.019223
0.0217074
0.0239158
0.0257011
0.0269757
0.0277671
0.0281764
0.0283567
0.0284171
0.028439
0.0284403
0.0284485
0.0284467
0.0284574
0.0284543
0.0284696
0.0427852
0.042583
0.0424509
0.0421512
0.0418924
0.0414638
0.0409457
0.0401177
0.0389776
0.0373489
0.0352567
0.0326528
0.0296562
0.0263345
0.0228534
0.0193115
0.0158481
0.012528
0.00943241
0.00658126
0.00400957
0.00171077
-0.00030307
-0.00204686
-0.00351672
-0.00472766
-0.00567873
-0.00638369
-0.0068439
-0.00707268
-0.00707401
-0.00686117
-0.00643998
-0.00582242
-0.00501354
-0.00402067
-0.00284349
-0.00147967
8.16596e-05
0.00185624
0.00386597
0.00613305
0.0086716
0.0114733
0.0144865
0.0175985
0.0206245
0.0233338
0.0255031
0.027013
0.0278895
0.0282973
0.0284311
0.0284498
0.0284225
0.0283922
0.0283581
0.0283417
0.0283241
0.0283323
0.0432309
0.0429689
0.0428301
0.0424521
0.0420991
0.041474
0.0406822
0.0394504
0.0378092
0.0355862
0.0328726
0.0296602
0.0261292
0.0223712
0.0185756
0.0148306
0.0112652
0.00791527
0.00484205
0.00203988
-0.000469529
-0.00270728
-0.00466614
-0.00636728
-0.00780689
-0.00900215
-0.00995047
-0.010666
-0.011148
-0.0114093
-0.0114518
-0.0112877
-0.0109208
-0.0103619
-0.00961463
-0.00868571
-0.00757461
-0.00627936
-0.0047897
-0.00308961
-0.00115426
0.00104753
0.00354953
0.00637801
0.0095338
0.0129655
0.0165407
0.0200302
0.023133
0.0255635
0.0271708
0.0280243
0.0283492
0.0284113
0.0283723
0.028309
0.0282448
0.0282027
0.0281704
0.0281739
0.0436444
0.0433254
0.0431741
0.042697
0.0422089
0.0413271
0.0401855
0.038472
0.0362686
0.0334262
0.0301119
0.026357
0.0223931
0.0183195
0.0143318
0.0104923
0.00691054
0.0035898
0.000573228
-0.0021661
-0.00461403
-0.00680126
-0.0087209
-0.0103973
-0.0118245
-0.0130202
-0.0139793
-0.0147156
-0.015226
-0.0155226
-0.0156048
-0.0154839
-0.0151615
-0.0146472
-0.0139434
-0.0130563
-0.0119857
-0.010731
-0.00928484
-0.00763472
-0.00575978
-0.00363033
-0.00120859
0.0015474
0.00467341
0.00817589
0.0120019
0.0159932
0.0198714
0.0232607
0.0258175
0.0273914
0.0281185
0.0283161
0.0282972
0.028211
0.0281195
0.0280526
0.0280057
0.0280045
0.0439172
0.0435429
0.0433646
0.0427611
0.042091
0.0408944
0.0393395
0.0370949
0.0343094
0.0308702
0.0270209
0.0228234
0.0185449
0.0142746
0.0101991
0.00634578
0.00280196
-0.000458989
-0.00340649
-0.00608282
-0.00847588
-0.0106219
-0.0125114
-0.0141703
-0.0155894
-0.0167871
-0.0177553
-0.0185082
-0.0190404
-0.0193638
-0.0194761
-0.0193875
-0.0190981
-0.0186165
-0.0179439
-0.0170856
-0.0160419
-0.0148127
-0.0133936
-0.0117758
-0.00994451
-0.00787612
-0.00553805
-0.00288732
0.000125585
0.00354251
0.00737767
0.0115649
0.0159212
0.0200959
0.0236454
0.0261708
0.0275763
0.0280912
0.0281531
0.0280651
0.0279522
0.0278615
0.0278012
0.0277934
0.0440102
0.0435851
0.0433636
0.0426097
0.0417166
0.0401617
0.0381541
0.0353642
0.0320177
0.0280442
0.0237547
0.0192284
0.0147498
0.0103825
0.00629453
0.00247527
-0.00100691
-0.00420319
-0.00708913
-0.00971705
-0.0120728
-0.0141955
-0.0160716
-0.017728
-0.0191518
-0.0203617
-0.0213472
-0.0221225
-0.0226805
-0.0230324
-0.0231745
-0.0231162
-0.0228562
-0.0224019
-0.0217535
-0.0209154
-0.0198879
-0.0186711
-0.0172628
-0.0156567
-0.0138443
-0.0118085
-0.00952611
-0.00696167
-0.00406791
-0.000790832
0.00292318
0.00708243
0.0116166
0.0162815
0.0206634
0.0242191
0.0265538
0.0276617
0.0279298
0.0278758
0.0277529
0.0276352
0.0275614
0.0275426
0.0438025
0.0433288
0.0430442
0.0421182
0.0409693
0.0390322
0.0365624
0.0332509
0.0294016
0.0249851
0.0203653
0.0156232
0.0110441
0.00665651
0.00260626
-0.00115231
-0.00456417
-0.00769835
-0.0105312
-0.0131208
-0.0154486
-0.0175553
-0.0194229
-0.0210787
-0.0225069
-0.0237268
-0.0247258
-0.0255184
-0.0260961
-0.0264701
-0.0266356
-0.0266011
-0.0263648
-0.0259326
-0.0253047
-0.0244838
-0.0234706
-0.0222643
-0.0208644
-0.0192657
-0.017464
-0.0154471
-0.0132009
-0.0106993
-0.0079055
-0.00476927
-0.0012239
0.00278136
0.00726791
0.0121158
0.0170393
0.0214908
0.0248851
0.0268479
0.0275747
0.0276065
0.0275026
0.0273525
0.0272631
0.0272276
0.0432793
0.0427624
0.0423984
0.0412894
0.0398684
0.0375499
0.0346381
0.0308592
0.0265897
0.0218345
0.0169928
0.0121333
0.00752985
0.00317216
-0.000814894
-0.00450587
-0.00785295
-0.010937
-0.0137312
-0.0162969
-0.0186099
-0.0207118
-0.0225802
-0.0242433
-0.0256822
-0.026917
-0.0279333
-0.0287459
-0.0293451
-0.0297417
-0.0299301
-0.0299182
-0.0297036
-0.0292911
-0.0286807
-0.0278739
-0.0268719
-0.0256726
-0.0242772
-0.0226801
-0.0208808
-0.0188695
-0.01664
-0.0141739
-0.011447
-0.00842037
-0.00503219
-0.00121817
0.00309797
0.00789932
0.0130556
0.0181305
0.0225148
0.0255067
0.0269828
0.0272563
0.0271892
0.0270212
0.0269054
0.026848
0.0423521
0.0417963
0.0413398
0.0400457
0.0383525
0.0356763
0.0323687
0.0281994
0.0236057
0.0186174
0.0136515
0.0087549
0.00418248
-0.000113061
-0.00402372
-0.00764571
-0.0109334
-0.0139745
-0.0167371
-0.0192838
-0.0215852
-0.0236833
-0.025552
-0.0272202
-0.0286669
-0.0299127
-0.0309419
-0.0317695
-0.0323851
-0.0327991
-0.0330056
-0.0330116
-0.0328149
-0.0324188
-0.0318242
-0.0310307
-0.0300408
-0.0288505
-0.027463
-0.0258708
-0.0240769
-0.0220713
-0.0198535
-0.0174103
-0.0147284
-0.011781
-0.00851971
-0.00488587
-0.000782007
0.0038386
0.00897975
0.01437
0.0195006
0.0235518
0.0259669
0.0267921
0.0267695
0.0266239
0.0264672
0.0263833
0.0410645
0.0404782
0.0399235
0.0384553
0.0365072
0.0335169
0.0298776
0.0254064
0.0205859
0.015461
0.0104516
0.00557675
0.00106971
-0.0031486
-0.00698225
-0.0105421
-0.0137809
-0.0167898
-0.0195309
-0.0220672
-0.0243642
-0.0264643
-0.0283384
-0.0300159
-0.0314741
-0.0327339
-0.0337786
-0.0346229
-0.035256
-0.0356877
-0.0359121
-0.0359348
-0.0357545
-0.0353728
-0.0347919
-0.0340092
-0.0330295
-0.0318463
-0.0304656
-0.0288776
-0.0270886
-0.0250869
-0.0228769
-0.0204468
-0.0177926
-0.014897
-0.0117268
-0.00823826
-0.00433526
5.35142e-05
0.00502701
0.0104626
0.0160425
0.0209819
0.024443
0.0260754
0.0262639
0.0261211
0.025957
0.0258215
0.0393852
0.0387765
0.038123
0.0364998
0.0343264
0.0310778
0.0271797
0.0224958
0.0175378
0.0123576
0.007366
0.00255418
-0.00186653
-0.00599973
-0.00975736
-0.0132588
-0.0164536
-0.0194334
-0.0221549
-0.0246807
-0.0269722
-0.0290722
-0.0309491
-0.0326327
-0.0340991
-0.035369
-0.0364254
-0.0372824
-0.0379292
-0.0383744
-0.038613
-0.0386488
-0.0384819
-0.0381117
-0.0375426
-0.0367695
-0.0358002
-0.0346249
-0.0332536
-0.0316729
-0.0298931
-0.0278995
-0.025701
-0.0232845
-0.020653
-0.0177947
-0.0146901
-0.0113118
-0.00757753
-0.00341834
0.00131692
0.00660983
0.0123602
0.0178947
0.02239
0.0249206
0.0256747
0.0254619
0.0253625
0.0251357
0.0374191
0.0367999
0.0360538
0.0343037
0.0319439
0.0285003
0.0244181
0.019606
0.0145881
0.00941768
0.00448792
-0.000235482
-0.0045612
-0.00860997
-0.0122983
-0.0157493
-0.0189083
-0.0218659
-0.024574
-0.0270941
-0.0293849
-0.0314885
-0.0333721
-0.0350652
-0.0365431
-0.0378259
-0.0388965
-0.0397679
-0.0404298
-0.0408889
-0.0411418
-0.0411897
-0.0410352
-0.0406746
-0.0401155
-0.0393495
-0.0383883
-0.0372187
-0.0358551
-0.0342803
-0.0325097
-0.0305242
-0.0283381
-0.0259347
-0.0233234
-0.0204933
-0.0174366
-0.0141388
-0.0105365
-0.00657674
-0.00209371
0.00295746
0.00865121
0.0144919
0.0198243
0.0232951
0.0248755
0.0246762
0.0246348
0.0243243
0.0351809
0.0345624
0.0337326
0.0318854
0.0293804
0.0258028
0.0216041
0.0167344
0.0117161
0.00660162
0.00176101
-0.0028599
-0.00708788
-0.0110536
-0.0146765
-0.0180796
-0.0212045
-0.0241396
-0.0268332
-0.0293454
-0.031633
-0.0337373
-0.0356248
-0.0373241
-0.0388105
-0.0401029
-0.0411847
-0.042067
-0.0427409
-0.0432106
-0.0434748
-0.0435317
-0.043387
-0.0430333
-0.0424824
-0.0417216
-0.0407679
-0.0396031
-0.0382479
-0.0366797
-0.0349205
-0.0329456
-0.0307757
-0.0283887
-0.0258003
-0.0229973
-0.0199812
-0.0167456
-0.0132458
-0.00944918
-0.00520024
-0.000424628
0.00505876
0.0109685
0.0168255
0.0212343
0.0236694
0.0238065
0.0236987
0.0233818
0.0328121
0.032208
0.0313074
0.0293957
0.0267876
0.0231342
0.0188794
0.0140118
0.00903955
0.0040139
-0.000721488
-0.00523452
-0.00936802
-0.0132565
-0.0168217
-0.0201833
-0.0232805
-0.0261979
-0.0288818
-0.03139
-0.0336786
-0.0357873
-0.0376827
-0.0393915
-0.04089
-0.0421947
-0.0432904
-0.0441854
-0.0448728
-0.0453538
-0.0456298
-0.0456953
-0.0455598
-0.0452115
-0.0446674
-0.0439095
-0.0429612
-0.0417985
-0.0404498
-0.0388856
-0.0371367
-0.035171
-0.0330177
-0.0306473
-0.0280833
-0.025307
-0.0223284
-0.0191442
-0.0157254
-0.01206
-0.00801232
-0.00350921
0.00168717
0.00747961
0.0135637
0.0187777
0.0220071
0.022821
0.0225476
0.0222948
0.0303434
0.0297649
0.0288056
0.0268575
0.0241818
0.0204993
0.0162331
0.0114085
0.00650988
0.00158994
-0.00303573
-0.00744174
-0.0114859
-0.0153014
-0.0188127
-0.0221339
-0.0252036
-0.0281015
-0.0307738
-0.0332752
-0.0355622
-0.0376721
-0.0395726
-0.0412879
-0.0427957
-0.0441095
-0.0452164
-0.0461208
-0.0468193
-0.0473083
-0.0475937
-0.0476647
-0.0475363
-0.0471907
-0.0466516
-0.0458943
-0.0449504
-0.043788
-0.0424451
-0.040884
-0.0391455
-0.0371888
-0.0350536
-0.0327012
-0.0301646
-0.0274171
-0.0244774
-0.0213408
-0.017991
-0.0144338
-0.0105534
-0.0063027
-0.00141135
0.00412721
0.0102186
0.0159696
0.0199525
0.0215681
0.0212203
0.0210129
0.0279214
0.0273818
0.0263777
0.0244204
0.0217097
0.0180387
0.013798
0.00904855
0.00424292
-0.000561447
-0.00507783
-0.00938147
-0.0133444
-0.0170943
-0.0205592
-0.0238459
-0.0268937
-0.0297768
-0.0324425
-0.0349412
-0.0372312
-0.0393464
-0.0412563
-0.0429816
-0.0445023
-0.045828
-0.0469489
-0.0478647
-0.0485761
-0.0490741
-0.0493698
-0.0494461
-0.0493248
-0.0489807
-0.048446
-0.0476872
-0.0467461
-0.0455815
-0.0442427
-0.0426815
-0.0409518
-0.0390013
-0.0368833
-0.0345473
-0.032039
-0.0293205
-0.0264213
-0.023331
-0.0200443
-0.01658
-0.0128388
-0.00881401
-0.00421411
0.000987433
0.00693655
0.0129118
0.0175962
0.0199356
0.0197808
0.0195098
0.0255646
0.0250732
0.0240351
0.0220877
0.0193637
0.01573
0.0115348
0.00687476
0.00216569
-0.00252537
-0.00694084
-0.0111504
-0.0150406
-0.01873
-0.0221522
-0.0254051
-0.0284309
-0.0312974
-0.0339543
-0.0364474
-0.0387379
-0.0408551
-0.0427717
-0.0445037
-0.0460346
-0.047369
-0.0485012
-0.0494251
-0.0501468
-0.0506506
-0.0509543
-0.051033
-0.0509168
-0.0505714
-0.0500393
-0.0492765
-0.048337
-0.0471676
-0.0458317
-0.0442682
-0.0425464
-0.0406001
-0.038499
-0.0361778
-0.0336989
-0.0310093
-0.0281534
-0.0251094
-0.0218851
-0.0185044
-0.0148837
-0.0110571
-0.00672419
-0.00189234
0.00381111
0.00974398
0.0150071
0.0179248
0.0182398
0.0177845
0.0234043
0.0229724
0.021913
0.019994
0.0172767
0.0137024
0.00956913
0.00500967
0.000398906
-0.00418232
-0.00850549
-0.0126301
-0.0164574
-0.0200945
-0.0234816
-0.0267069
-0.0297169
-0.0325719
-0.0352256
-0.037718
-0.040014
-0.0421376
-0.0440654
-0.0458078
-0.0473529
-0.0486987
-0.0498454
-0.0507795
-0.0515139
-0.0520245
-0.0523377
-0.0524188
-0.0523084
-0.0519609
-0.0514313
-0.0506627
-0.0497239
-0.0485472
-0.0472129
-0.0456439
-0.0439283
-0.0419825
-0.0398967
-0.0375871
-0.0351368
-0.0324741
-0.0296627
-0.0266642
-0.0235036
-0.0202002
-0.0166894
-0.0130356
-0.00894603
-0.00447967
0.000903982
0.00660694
0.0122433
0.0156001
0.0165235
0.0158375
0.0214297
0.021064
0.0199921
0.0181112
0.0154093
0.0119024
0.00783243
0.00336995
-0.00115333
-0.00563757
-0.00988314
-0.0139346
-0.0177089
-0.0212995
-0.0246555
-0.027854
-0.030848
-0.0336896
-0.0363383
-0.0388268
-0.0411257
-0.0432522
-0.0451884
-0.0469376
-0.048494
-0.0498478
-0.0510062
-0.051947
-0.0526917
-0.0532057
-0.0535263
-0.0536066
-0.0535001
-0.0531474
-0.0526186
-0.0518413
-0.0509017
-0.0497146
-0.0483804
-0.0468025
-0.0450915
-0.0431427
-0.0410707
-0.0387689
-0.0363463
-0.0337074
-0.0309413
-0.0279864
-0.0248916
-0.0216607
-0.0182551
-0.0147521
-0.0108861
-0.00675955
-0.00174391
0.00361453
0.00937692
0.0130434
0.0145454
0.0136787
0.0197504
0.0194604
0.0183882
0.0165573
0.0138812
0.0104511
0.00644833
0.0020821
-0.00236053
-0.00675728
-0.0109369
-0.0149261
-0.0186577
-0.0222103
-0.0255431
-0.0287216
-0.0317065
-0.0345407
-0.0371904
-0.0396806
-0.041988
-0.044122
-0.0460716
-0.0478314
-0.0494035
-0.0507682
-0.051942
-0.0528916
-0.0536494
-0.0541682
-0.0544983
-0.0545782
-0.054477
-0.0541184
-0.0535911
-0.0528034
-0.0518629
-0.0506629
-0.049328
-0.0477378
-0.0460299
-0.0440738
-0.0420135
-0.0397148
-0.0373179
-0.034698
-0.0319765
-0.0290613
-0.0260336
-0.0228705
-0.0195685
-0.0161982
-0.0125401
-0.00871931
-0.00409532
0.000856314
0.00651308
0.010357
0.0123082
0.0113653
0.0183205
0.0181103
0.017046
0.0152691
0.0126195
0.00926345
0.00531945
0.00103684
-0.00334239
-0.00766897
-0.0117997
-0.0157397
-0.0194391
-0.0229598
-0.0262734
-0.0294327
-0.0324084
-0.035233
-0.0378819
-0.0403702
-0.0426834
-0.0448211
-0.0467811
-0.0485476
-0.0501324
-0.0515042
-0.0526908
-0.0536454
-0.0544141
-0.054934
-0.0552717
-0.0553476
-0.05525
-0.054882
-0.0543546
-0.0535529
-0.0526098
-0.051393
-0.0500555
-0.0484486
-0.0467417
-0.0447731
-0.0427221
-0.0404206
-0.0380469
-0.0354398
-0.0327609
-0.0298798
-0.026919
-0.0238178
-0.0206182
-0.0173651
-0.013901
-0.0103504
-0.00611883
-0.00159902
0.0037756
0.00766367
0.00991695
0.00899993
0.0172318
0.0171083
0.0160656
0.0143524
0.0117364
0.00845829
0.00457279
0.000369323
-0.00395492
-0.00822181
-0.0123149
-0.0162164
-0.0198936
-0.0233912
-0.0266938
-0.0298412
-0.032815
-0.0356368
-0.0382915
-0.040784
-0.0431091
-0.0452556
-0.0472315
-0.0490088
-0.0506112
-0.0519933
-0.0531969
-0.054159
-0.0549421
-0.0554647
-0.0558128
-0.0558853
-0.0557934
-0.0554158
-0.0548896
-0.0540725
-0.0531274
-0.0518912
-0.0505508
-0.0489234
-0.0472161
-0.0452301
-0.0431859
-0.0408753
-0.0385216
-0.0359202
-0.0332807
-0.0304264
-0.0275305
-0.0244839
-0.0213845
-0.018235
-0.0149521
-0.0116379
-0.00778277
-0.00369349
0.00128705
0.00509757
0.00752799
0.00670513
0.016402
0.0163658
0.0153543
0.0137076
0.0111243
0.00791824
0.00408099
-5.75362e-05
-0.00434426
-0.00856883
-0.012641
-0.0165168
-0.020182
-0.0236622
-0.0269574
-0.0300933
-0.0330649
-0.0358812
-0.0385396
-0.0410322
-0.0433664
-0.0455173
-0.0475062
-0.04929
-0.0509073
-0.0522956
-0.053514
-0.0544794
-0.0552752
-0.0557965
-0.0561535
-0.0562187
-0.0561311
-0.0557397
-0.0552132
-0.0543763
-0.0534276
-0.052167
-0.0508215
-0.0491679
-0.0474575
-0.0454473
-0.0434064
-0.0410789
-0.0387407
-0.0361359
-0.0335311
-0.0306938
-0.0278584
-0.0248564
-0.0218529
-0.0187929
-0.0156779
-0.0125679
-0.00906204
-0.00538223
-0.000852233
0.00278203
0.0052897
0.00459274
0.0159149
0.0159686
0.0150044
0.0134361
0.0108954
0.00776612
0.00397984
-9.56053e-05
-0.00434937
-0.00853922
-0.0125989
-0.0164583
-0.0201201
-0.0235914
-0.0268875
-0.0300196
-0.0329969
-0.0358149
-0.0384844
-0.0409837
-0.0433339
-0.0454947
-0.0475029
-0.0492977
-0.0509357
-0.0523337
-0.0535719
-0.0545435
-0.0553563
-0.0558782
-0.0562478
-0.0563067
-0.0562266
-0.0558212
-0.0552968
-0.0544386
-0.0534875
-0.0521998
-0.0508495
-0.0491653
-0.0474507
-0.0454102
-0.0433701
-0.0410176
-0.0386909
-0.0360729
-0.0334974
-0.0306659
-0.0278853
-0.0249161
-0.0220023
-0.0190169
-0.0160563
-0.01312
-0.00993143
-0.00662719
-0.00256538
0.000821357
0.00332218
0.00275602
0.0156504
0.0157881
0.0148831
0.0133982
0.0109044
0.00784893
0.00410851
8.64544e-05
-0.00414679
-0.00831555
-0.0123765
-0.0162302
-0.0198977
-0.0233648
-0.0266648
-0.0297925
-0.0327746
-0.0355908
-0.038269
-0.0407703
-0.0431337
-0.0452996
-0.0473247
-0.0491259
-0.0507826
-0.0521859
-0.0534424
-0.054416
-0.0552447
-0.055763
-0.0561444
-0.0561926
-0.056119
-0.0556949
-0.0551715
-0.0542867
-0.0533317
-0.0520107
-0.0506533
-0.0489312
-0.0472091
-0.0451296
-0.0430857
-0.0406978
-0.0383768
-0.0357332
-0.0331795
-0.0303399
-0.0276055
-0.024654
-0.0218209
-0.0188925
-0.0160716
-0.0132784
-0.0103731
-0.00740198
-0.00380048
-0.000705215
0.00171455
0.001268
0.0156965
0.0159126
0.0150855
0.0136996
0.0112714
0.00830057
0.00461754
0.000654492
-0.00355432
-0.00770331
-0.0117685
-0.0156228
-0.0193025
-0.0227732
-0.0260851
-0.0292165
-0.0322118
-0.035034
-0.0377293
-0.0402398
-0.0426245
-0.0448018
-0.0468512
-0.048664
-0.0503461
-0.0517589
-0.0530401
-0.0540187
-0.054869
-0.0553859
-0.0557842
-0.0558228
-0.05576
-0.0553172
-0.0547983
-0.0538856
-0.0529289
-0.0515715
-0.0502079
-0.0484429
-0.0467125
-0.0445867
-0.0425364
-0.0401033
-0.037783
-0.0351013
-0.0325625
-0.0296994
-0.0270025
-0.0240515
-0.0212888
-0.0183978
-0.0157015
-0.0130215
-0.0103669
-0.00768254
-0.00451889
-0.00173539
0.000538111
0.000192199
0.015889
0.0161678
0.0154329
0.0141549
0.0118077
0.00892631
0.00530646
0.00140236
-0.00278451
-0.00691952
-0.0109968
-0.0148583
-0.0185567
-0.0220335
-0.0253594
-0.0284925
-0.0314998
-0.0343235
-0.0370335
-0.0395479
-0.0419518
-0.0441353
-0.0462076
-0.0480272
-0.0497342
-0.0511521
-0.0524577
-0.0534371
-0.0543093
-0.0548203
-0.0552357
-0.0552598
-0.0552081
-0.054741
-0.0542261
-0.053279
-0.0523196
-0.0509182
-0.0495461
-0.047729
-0.0459869
-0.0438036
-0.0417418
-0.0392499
-0.0369233
-0.0341873
-0.0316541
-0.0287489
-0.026078
-0.0231065
-0.0204013
-0.0175246
-0.0149364
-0.0123381
-0.00990216
-0.00745553
-0.00469749
-0.002225
-0.000151314
-0.000417832
0.0163377
0.0166637
0.0160396
0.0148877
0.0126528
0.00988102
0.00634848
0.00252001
-0.00162866
-0.00574126
-0.00982536
-0.0136948
-0.0174154
-0.0209048
-0.0242523
-0.0273956
-0.0304243
-0.0332583
-0.0359928
-0.0385195
-0.0409521
-0.0431493
-0.0452536
-0.0470863
-0.0488266
-0.0502545
-0.0515925
-0.0525764
-0.0534777
-0.0539855
-0.0544247
-0.0544358
-0.0544009
-0.0539098
-0.0534038
-0.0524208
-0.0514622
-0.0500132
-0.0486347
-0.0467596
-0.0450058
-0.0427563
-0.0406805
-0.0381179
-0.0357799
-0.0329739
-0.0304382
-0.0274714
-0.0248157
-0.0218011
-0.0191403
-0.0162529
-0.0137565
-0.0112083
-0.00896198
-0.00670428
-0.00431521
-0.00213646
-0.000301779
-0.000508292
0.0168243
0.0171741
0.0166732
0.0156589
0.0135647
0.0109193
0.00749428
0.00375543
-0.000343189
-0.00442637
-0.00851517
-0.0123917
-0.0161364
-0.0196374
-0.0230074
-0.0261572
-0.0292062
-0.0320448
-0.0348024
-0.0373354
-0.0397963
-0.0420019
-0.0441389
-0.0459801
-0.0477553
-0.0491891
-0.0505616
-0.0515459
-0.0524786
-0.0529785
-0.0534436
-0.0534364
-0.0534199
-0.0528983
-0.052402
-0.0513753
-0.0504174
-0.0489114
-0.047525
-0.0455804
-0.0438116
-0.0414819
-0.039387
-0.0367367
-0.0343795
-0.0314833
-0.0289347
-0.0258825
-0.023229
-0.0201444
-0.017513
-0.0145857
-0.0121637
-0.00963119
-0.00754634
-0.00542703
-0.00336584
-0.00144783
0.000126552
-3.48849e-05
0.0175103
0.0178651
0.017495
0.0166354
0.0147203
0.0122327
0.00895172
0.00533234
0.00131439
-0.0027176
-0.00679421
-0.0106703
-0.014437
-0.0179535
-0.0213532
-0.0245186
-0.027599
-0.0304527
-0.0332457
-0.0357952
-0.0382965
-0.0405195
-0.0427009
-0.0445581
-0.0463793
-0.047825
-0.0492422
-0.0502315
-0.051205
-0.0517002
-0.0521998
-0.0521761
-0.0521857
-0.0516338
-0.051154
-0.050082
-0.04913
-0.0475632
-0.0461723
-0.0441514
-0.0423689
-0.0399487
-0.0378332
-0.0350808
-0.0326998
-0.0296943
-0.0271246
-0.023963
-0.0213002
-0.0181176
-0.0155017
-0.0125036
-0.0101402
-0.00758848
-0.00564111
-0.00361115
-0.00183756
-0.000136917
0.00117376
0.00104932
0.0181099
0.0184508
0.0182083
0.0175146
0.0158108
0.0135124
0.0104092
0.00694096
0.00303262
-0.000922648
-0.00497018
-0.00883164
-0.0126148
-0.0161393
-0.0195676
-0.0227425
-0.0258542
-0.0287169
-0.031546
-0.0341065
-0.0366507
-0.0388865
-0.0411163
-0.0429859
-0.0448581
-0.0463121
-0.0477796
-0.0487698
-0.0497895
-0.0502752
-0.0508141
-0.0507678
-0.0508076
-0.0502178
-0.0497573
-0.0486306
-0.0476861
-0.0460466
-0.0446513
-0.0425398
-0.0407416
-0.0382137
-0.036073
-0.0331976
-0.0307855
-0.0276457
-0.0250448
-0.0217446
-0.0190599
-0.0157461
-0.0131317
-0.0100271
-0.00770715
-0.00509719
-0.00326494
-0.00127196
0.000255975
0.00179547
0.00285892
0.00277164
0.0188806
0.0191995
0.019066
0.0185461
0.0170807
0.0150106
0.0121282
0.00885369
0.00509878
0.00125803
-0.00272894
-0.00655558
-0.0103447
-0.0138758
-0.0173386
-0.0205325
-0.0236893
-0.0265741
-0.0294555
-0.0320397
-0.034643
-0.036903
-0.0391966
-0.0410879
-0.0430254
-0.0444954
-0.0460262
-0.0470232
-0.048101
-0.0485814
-0.0491706
-0.049104
-0.0491839
-0.0485569
-0.0481244
-0.0469414
-0.0460118
-0.0442956
-0.0429014
-0.0406918
-0.0388811
-0.0362336
-0.0340682
-0.0310529
-0.0286065
-0.0253094
-0.0226703
-0.0192026
-0.0164856
-0.0130066
-0.0103817
-0.00713326
-0.00484487
-0.00213667
-0.000403861
0.00160269
0.00291949
0.00435831
0.00520429
0.00516362
0.0194417
0.0197328
0.0196853
0.0193421
0.0181345
0.0163337
0.0137152
0.0106851
0.00713048
0.00345372
-0.000435643
-0.00419247
-0.00796868
-0.0114874
-0.0149797
-0.0181827
-0.0213866
-0.0242873
-0.0272266
-0.0298305
-0.0325007
-0.034782
-0.0371489
-0.0390597
-0.0410728
-0.042556
-0.0441605
-0.0451605
-0.0463063
-0.0467758
-0.0474241
-0.04733
-0.0474575
-0.0467837
-0.0463854
-0.0451343
-0.0442241
-0.0424167
-0.0410262
-0.0387009
-0.0368782
-0.0340899
-0.0318976
-0.0287167
-0.0262312
-0.0227465
-0.0200617
-0.0163912
-0.0136329
-0.00994937
-0.00730492
-0.00387048
-0.00160606
0.001246
0.0028906
0.00496849
0.00610695
0.00751929
0.00819265
0.00821884
0.0202009
0.0204671
0.0204709
0.0202872
0.0193341
0.0178314
0.0155158
0.0127797
0.00947796
0.00601855
0.00227426
-0.00137555
-0.00511566
-0.00861097
-0.012135
-0.0153553
-0.0186232
-0.0215561
-0.0245751
-0.0272157
-0.0299748
-0.0322925
-0.0347531
-0.0366957
-0.0388029
-0.0403092
-0.042004
-0.0430144
-0.0442432
-0.0447074
-0.0454283
-0.0453101
-0.0454976
-0.0447784
-0.0444255
-0.0431053
-0.0422243
-0.0403216
-0.038943
-0.0364942
-0.0346654
-0.0317235
-0.0295073
-0.026142
-0.0236166
-0.0199182
-0.0171832
-0.0132761
-0.0104693
-0.00654038
-0.00386929
-0.000203259
0.00204084
0.00508524
0.00664303
0.00884885
0.00982457
0.0112826
0.0118254
0.0119482
0.0206279
0.020866
0.0209035
0.0208616
0.0201633
0.0189913
0.0170252
0.0146497
0.0116655
0.00850017
0.00496263
0.00148417
-0.00218088
-0.00561398
-0.00915666
-0.0123768
-0.0157129
-0.0186723
-0.0217838
-0.0244603
-0.0273248
-0.0296793
-0.0322516
-0.034226
-0.0364452
-0.037973
-0.0397751
-0.0407922
-0.0421194
-0.0425718
-0.0433793
-0.0432277
-0.0434876
-0.0427107
-0.042414
-0.0410093
-0.0401667
-0.0381501
-0.0367909
-0.0341963
-0.0323669
-0.0292447
-0.0270079
-0.0234266
-0.0208625
-0.0169136
-0.014128
-0.00994253
-0.00708719
-0.00286694
-0.000172517
0.00377494
0.00599018
0.00928289
0.0107447
0.01315
0.0139732
0.0155726
0.0160337
0.0162982
0.0213477
0.0215618
0.0216081
0.0216616
0.0211755
0.0203233
0.0187229
0.0167504
0.0141369
0.0113292
0.00805885
0.0048072
0.00125597
-0.00208911
-0.00564483
-0.00886789
-0.0122908
-0.015295
-0.0185278
-0.0212622
-0.024262
-0.0266735
-0.0293845
-0.0314073
-0.0337623
-0.0353246
-0.0372548
-0.0382886
-0.0397326
-0.0401806
-0.0410911
-0.0409113
-0.0412583
-0.0404267
-0.0401997
-0.038711
-0.037919
-0.0357861
-0.0344568
-0.0317098
-0.0298884
-0.0265742
-0.0243226
-0.0205066