/*--------------------------------*- C++ -*----------------------------------*\
| =========                 |                                                 |
| \\      /  F ield         | OpenFOAM: The Open Source CFD Toolbox           |
|  \\    /   O peration     | Version:  2406                                  |
|   \\  /    A nd           | Website:  www.openfoam.com                      |
|    \\/     M anipulation  |                                                 |
\*---------------------------------------------------------------------------*/
FoamFile
{
    version     2.0;
    format      ascii;
    arch        "LSB;label=32;scalar=64";
    class       volScalarField;
    location    "75";
    object      p;
}
// * * * * * * * * * * * * * * * * * * * * * * * * * * * * * * * * * * * * * //

dimensions      [0 2 -2 0 0 0 0];

internalField   nonuniform List<scalar> 
4096
(
-1.01848e-07
2.42734e-05
2.81146e-05
4.15186e-06
-4.93447e-05
-0.00012718
-0.000221186
-0.000324614
-0.000434323
-0.000551165
-0.000679406
-0.000825131
-0.000995227
-0.00119604
-0.00143313
-0.00171111
-0.00203388
-0.00240418
-0.00282296
-0.00328846
-0.00379454
-0.00432979
-0.00487616
-0.00540869
-0.00589618
-0.00630284
-0.00659082
-0.00672329
-0.00666775
-0.0063991
-0.0059025
-0.00517565
-0.00423061
-0.00309362
-0.00180225
-0.000426781
0.00095105
0.00223699
0.0033299
0.00413063
0.00455378
0.00454145
0.00407542
0.00317247
0.00191061
0.000395979
-0.00124413
-0.00287556
-0.00438667
-0.00569881
-0.00676712
-0.0075847
-0.00817057
-0.0085614
-0.00880109
-0.0089323
-0.00899124
-0.00900566
-0.00899492
-0.00897122
-0.00894111
-0.00890766
-0.00887404
-0.00884507
-2.16905e-05
3.21215e-06
5.58322e-06
-1.93512e-05
-7.13436e-05
-0.000144975
-0.000232774
-0.000328826
-0.000430646
-0.000539335
-0.000658938
-0.00079528
-0.000954432
-0.00114198
-0.00136295
-0.0016216
-0.00192224
-0.0022682
-0.00266134
-0.00310093
-0.00358226
-0.00409602
-0.00462793
-0.00515813
-0.00566021
-0.00610068
-0.00644044
-0.00663828
-0.00665555
-0.00646105
-0.00603544
-0.00537351
-0.00448188
-0.0033772
-0.00211654
-0.000764579
0.000598991
0.00187901
0.00297242
0.0037777
0.00420701
0.00420025
0.00373738
0.00283961
0.00156556
4.40296e-05
-0.00159667
-0.00321113
-0.00468515
-0.0059377
-0.0069396
-0.00768287
-0.00819618
-0.00852792
-0.00872812
-0.00883919
-0.00889332
-0.00891317
-0.00891338
-0.00890286
-0.0088863
-0.0088653
-0.00883986
-0.00881123
-3.00529e-05
-1.88254e-06
-3.11926e-07
-2.84263e-05
-8.30087e-05
-0.000156587
-0.000240791
-0.000329763
-0.000421734
-0.000518738
-0.000625638
-0.000748496
-0.000893465
-0.0010656
-0.00127064
-0.00151348
-0.00179986
-0.0021357
-0.00252647
-0.00297637
-0.00348663
-0.00405235
-0.00465911
-0.00528157
-0.00588486
-0.00642765
-0.00686569
-0.00715529
-0.00725686
-0.00713829
-0.00677798
-0.00616674
-0.00531025
-0.0042379
-0.00300185
-0.00166271
-0.000299163
0.000994831
0.00211595
0.00296085
0.00343801
0.00348181
0.00306532
0.00220614
0.00096985
-0.000526774
-0.00216363
-0.00376282
-0.00521443
-0.00642753
-0.00735776
-0.00802793
-0.00846056
-0.00871061
-0.0088375
-0.00888995
-0.00890241
-0.00889624
-0.00888323
-0.00886879
-0.00885428
-0.00883788
-0.00881437
-0.00878121
-1.94549e-05
1.16202e-05
1.06512e-05
-2.41635e-05
-8.56976e-05
-0.000162959
-0.000245586
-0.000327526
-0.000407894
-0.000490313
-0.000581457
-0.00068844
-0.000818958
-0.00097943
-0.00117723
-0.00142132
-0.00172296
-0.00209526
-0.00255092
-0.00309801
-0.00373564
-0.00445151
-0.00522151
-0.00601089
-0.00677676
-0.00747184
-0.00804848
-0.00846221
-0.0086741
-0.00865205
-0.00837217
-0.00782345
-0.00701713
-0.00599191
-0.00478712
-0.00345944
-0.0020842
-0.000751796
0.000436836
0.00137837
0.00197777
0.00216161
0.00189153
0.00117383
6.50534e-05
-0.00133052
-0.00288029
-0.00442686
-0.00584502
-0.00702528
-0.0079238
-0.00852555
-0.00888548
-0.00905529
-0.00909955
-0.00907487
-0.00902216
-0.00896626
-0.00891899
-0.00888354
-0.00885811
-0.00883732
-0.00881089
-0.00877249
1.5565e-05
4.61275e-05
3.84056e-05
-7.76591e-06
-8.02766e-05
-0.000163846
-0.000245948
-0.000320964
-0.000388998
-0.000456641
-0.000533278
-0.000629236
-0.000754848
-0.00092155
-0.0011435
-0.00143854
-0.00182704
-0.00232787
-0.00295313
-0.00370374
-0.0045674
-0.00551881
-0.00652189
-0.00753263
-0.00850241
-0.00938161
-0.0101229
-0.0106836
-0.011027
-0.0111219
-0.0109443
-0.0104851
-0.00976237
-0.00880697
-0.00765312
-0.00635064
-0.00496684
-0.00358427
-0.00229722
-0.00120543
-0.000405204
2.21088e-05
2.38039e-05
-0.000411998
-0.00124956
-0.00240479
-0.00375434
-0.00515201
-0.00646088
-0.00756878
-0.00841437
-0.00898396
-0.00929813
-0.00941827
-0.00940716
-0.00932342
-0.0092129
-0.00910558
-0.00901675
-0.00895088
-0.00890566
-0.00887391
-0.00884208
-0.00880091
8.11878e-05
0.000106608
8.71255e-05
2.49663e-05
-6.17312e-05
-0.000153396
-0.000236449
-0.000305319
-0.000363308
-0.000421869
-0.000494056
-0.000595688
-0.000744738
-0.000962649
-0.0012749
-0.00170878
-0.00228825
-0.00302786
-0.00392842
-0.0049757
-0.00614165
-0.00738734
-0.00866669
-0.00992986
-0.0111262
-0.0122068
-0.0131269
-0.0138476
-0.0143356
-0.0145629
-0.0145084
-0.0141664
-0.0135548
-0.0126961
-0.011618
-0.0103623
-0.00898551
-0.00755867
-0.00616494
-0.00489567
-0.00384364
-0.00309321
-0.00270906
-0.00272482
-0.00313373
-0.00388263
-0.00487515
-0.00598508
-0.00707949
-0.00804212
-0.00879618
-0.00931214
-0.00959825
-0.00969643
-0.00966399
-0.00955466
-0.00941347
-0.00927298
-0.00915221
-0.009059
-0.00899323
-0.00894858
-0.00891121
-0.00887039
0.000185611
0.000200607
0.000164473
8.25659e-05
-2.04197e-05
-0.00012127
-0.000207046
-0.000274226
-0.000331708
-0.000395644
-0.000487168
-0.000632032
-0.000860653
-0.00120742
-0.00170717
-0.00238886
-0.00326883
-0.00434673
-0.00560487
-0.00701096
-0.00852234
-0.0100898
-0.0116609
-0.013183
-0.0146061
-0.0158844
-0.0169776
-0.017852
-0.0184801
-0.0188405
-0.0189193
-0.0187135
-0.0182322
-0.017491
-0.0165134
-0.0153329
-0.0139942
-0.0125536
-0.0110786
-0.00964579
-0.00833734
-0.00723455
-0.00640924
-0.00591297
-0.00576636
-0.00595382
-0.00642069
-0.00707696
-0.00781208
-0.00851629
-0.00910305
-0.0095232
-0.00976655
-0.00985402
-0.00982084
-0.00971467
-0.00957278
-0.00942569
-0.00929299
-0.00918564
-0.00910681
-0.00905302
-0.00901274
-0.00897549
0.000338555
0.000337568
0.00028065
0.000176359
5.56563e-05
-5.76395e-05
-0.000149631
-0.000225395
-0.00029994
-0.000398261
-0.000553393
-0.00080519
-0.00119797
-0.00177524
-0.0025718
-0.00360618
-0.00487647
-0.00636101
-0.00802246
-0.00981238
-0.0116762
-0.0135574
-0.0154008
-0.0171549
-0.0187734
-0.0202163
-0.0214499
-0.0224474
-0.0231888
-0.0236617
-0.0238607
-0.0237853
-0.0234364
-0.0228234
-0.0219659
-0.0208906
-0.0196311
-0.0182285
-0.016732
-0.0151991
-0.0136936
-0.0122839
-0.0110375
-0.0100144
-0.0092584
-0.00878853
-0.00859386
-0.00863444
-0.0088439
-0.0091402
-0.00944261
-0.00968844
-0.00984312
-0.00990023
-0.00987385
-0.0097877
-0.00966564
-0.0095358
-0.0094129
-0.00930882
-0.00922936
-0.00917421
-0.00913552
-0.00910443
0.000549607
0.0005276
0.000446781
0.000318366
0.00017906
5.14468e-05
-5.87337e-05
-0.000162342
-0.000285224
-0.000465627
-0.000751762
-0.00119792
-0.00185719
-0.00277158
-0.00396296
-0.00542869
-0.00714318
-0.00906263
-0.0111313
-0.0132878
-0.01547
-0.0176187
-0.0196804
-0.0216088
-0.0233649
-0.0249169
-0.0262399
-0.0273152
-0.0281309
-0.0286828
-0.0289727
-0.0290027
-0.0287687
-0.0282765
-0.0275437
-0.0265915
-0.0254443
-0.0241299
-0.0226808
-0.0211345
-0.0195338
-0.0179261
-0.0163631
-0.0148975
-0.0135795
-0.0124515
-0.0115418
-0.0108595
-0.0103941
-0.0101161
-0.00997872
-0.00992698
-0.00990995
-0.00989036
-0.00984859
-0.00978163
-0.00969303
-0.00959498
-0.00949904
-0.00941449
-0.00934766
-0.00930033
-0.0092682
-0.00924475
0.000825539
0.000778715
0.000670922
0.000520183
0.000360028
0.000207984
6.19814e-05
-0.000100462
-0.000319532
-0.000649411
-0.00115312
-0.00189351
-0.0029211
-0.00426279
-0.00591673
-0.00785373
-0.0100232
-0.012361
-0.0147976
-0.0172639
-0.019696
-0.0220379
-0.0242427
-0.026273
-0.0280998
-0.0297012
-0.0310616
-0.0321704
-0.0330228
-0.03362
-0.0339677
-0.0340698
-0.0339234
-0.0335341
-0.032917
-0.0320885
-0.0310658
-0.0298675
-0.0285136
-0.0270259
-0.0254282
-0.0237467
-0.0220113
-0.0202558
-0.0185188
-0.0168436
-0.0152765
-0.0138645
-0.0126497
-0.0116629
-0.0109185
-0.010405
-0.0100841
-0.00990034
-0.00979647
-0.00972762
-0.00966962
-0.00961019
-0.00955204
-0.0094989
-0.00945568
-0.00942439
-0.00940298
-0.00938735
0.00116708
0.0010919
0.000959148
0.000785594
0.000598235
0.000406406
0.000196179
-7.02828e-05
-0.000449754
-0.00101165
-0.00182777
-0.00295793
-0.00443602
-0.00626286
-0.00840684
-0.0108108
-0.0134021
-0.016102
-0.0188336
-0.0215273
-0.0241242
-0.0265768
-0.0288489
-0.0309145
-0.0327552
-0.034359
-0.0357184
-0.0368297
-0.037693
-0.0383123
-0.0386939
-0.0388431
-0.0387614
-0.0384553
-0.0379359
-0.0372161
-0.0363087
-0.0352266
-0.0339825
-0.032588
-0.0310539
-0.0293903
-0.0276079
-0.0257193
-0.0237421
-0.0217025
-0.0196397
-0.0176089
-0.0156823
-0.0139426
-0.0124704
-0.011326
-0.0105271
-0.0100384
-0.00978261
-0.00966864
-0.00962121
-0.00959892
-0.00958217
-0.00956725
-0.00955465
-0.0095451
-0.00953702
-0.00952838
0.00156549
0.00146227
0.00130473
0.00110701
0.00088107
0.000625703
0.000311171
-0.000117636
-0.000733319
-0.00161483
-0.00283144
-0.00442582
-0.00640377
-0.00873334
-0.011352
-0.0141784
-0.0171242
-0.020104
-0.0230417
-0.0258747
-0.0285547
-0.0310466
-0.0333269
-0.0353806
-0.0371992
-0.0387787
-0.0401177
-0.0412169
-0.0420794
-0.04271
-0.0431145
-0.0432982
-0.0432655
-0.0430235
-0.0425813
-0.041949
-0.0411368
-0.0401543
-0.03901
-0.0377101
-0.0362586
-0.0346563
-0.0329016
-0.0309914
-0.0289239
-0.0267029
-0.0243454
-0.0218894
-0.0194025
-0.0169861
-0.0147685
-0.012883
-0.0114334
-0.010456
-0.00990213
-0.00965624
-0.00958417
-0.00958477
-0.00960633
-0.0096306
-0.00965142
-0.00966624
-0.0096724
-0.00966936
0.00199968
0.00187123
0.00169241
0.00146105
0.00117872
0.000827087
0.000358202
-0.000299639
-0.00122986
-0.0025105
-0.00419451
-0.00629541
-0.00878376
-0.0115934
-0.0146352
-0.0178107
-0.0210251
-0.0241948
-0.0272526
-0.0301484
-0.0328478
-0.0353296
-0.0375819
-0.0395994
-0.0413809
-0.0429274
-0.0442414
-0.045326
-0.0461853
-0.046824
-0.0472469
-0.0474589
-0.0474659
-0.0472747
-0.0468927
-0.0463281
-0.0455893
-0.0446842
-0.043619
-0.042398
-0.0410221
-0.0394883
-0.0377891
-0.0359133
-0.0338469
-0.0315768
-0.0290969
-0.0264177
-0.0235794
-0.0206649
-0.0178075
-0.0151834
-0.0129792
-0.0113354
-0.0102921
-0.00976813
-0.0095943
-0.00959072
-0.00964257
-0.00970297
-0.00975625
-0.00979529
-0.00981531
-0.00981665
0.00243317
0.00228476
0.00207949
0.00180571
0.00144349
0.000955769
0.000277045
-0.000676918
-0.00199127
-0.00373017
-0.00591788
-0.00853117
-0.0115032
-0.014738
-0.0181273
-0.0215654
-0.0249599
-0.0282375
-0.031345
-0.034248
-0.0369265
-0.0393716
-0.0415807
-0.0435554
-0.0452989
-0.0468152
-0.0481084
-0.0491823
-0.0500412
-0.050689
-0.0511296
-0.0513673
-0.0514081
-0.0512581
-0.0509233
-0.0504105
-0.0497269
-0.0488789
-0.0478717
-0.0467089
-0.0453906
-0.0439134
-0.0422687
-0.0404429
-0.0384172
-0.0361696
-0.0336788
-0.0309315
-0.0279353
-0.0247351
-0.0214322
-0.0181955
-0.0152515
-0.0128373
-0.0111195
-0.0101214
-0.00970786
-0.00964212
-0.00970729
-0.00979799
-0.00988049
-0.00994209
-0.00997496
-0.00998021
0.00281837
0.0026522
0.00241626
0.00208483
0.00161376
0.000946939
4.1294e-06
-0.00130414
-0.0030532
-0.00528106
-0.00797519
-0.0110723
-0.014472
-0.0180562
-0.0217074
-0.0253222
-0.0288189
-0.0321394
-0.0352476
-0.0381242
-0.0407621
-0.0431615
-0.0453263
-0.0472622
-0.0489744
-0.0504681
-0.0517476
-0.0528167
-0.053679
-0.0543378
-0.0547963
-0.0550582
-0.0551287
-0.0550129
-0.054716
-0.0542436
-0.0536015
-0.0527952
-0.0518293
-0.0507067
-0.049428
-0.0479905
-0.0463869
-0.044605
-0.0426264
-0.0404273
-0.0379797
-0.0352564
-0.0322395
-0.0289357
-0.0253982
-0.0217511
-0.0182038
-0.0150364
-0.0125323
-0.0108651
-0.010016
-0.00976999
-0.0098146
-0.00992673
-0.0100345
-0.0101171
-0.0101622
-0.010172
0.00309341
0.0029092
0.00263775
0.00223107
0.00162098
0.000734497
-0.00051795
-0.00222147
-0.00443009
-0.00714707
-0.0103187
-0.0138442
-0.0175969
-0.0214466
-0.0252761
-0.0289926
-0.0325303
-0.035849
-0.0389286
-0.0417632
-0.044355
-0.0467106
-0.0488374
-0.0507426
-0.0524323
-0.0539114
-0.0551839
-0.056253
-0.0571218
-0.0577929
-0.0582691
-0.0585535
-0.0586503
-0.0585637
-0.0582982
-0.0578582
-0.0572486
-0.0564738
-0.0555377
-0.0544428
-0.05319
-0.0517776
-0.0502005
-0.0484492
-0.0465086
-0.0443575
-0.0419683
-0.0393088
-0.0363471
-0.0330619
-0.029462
-0.0256126
-0.0216673
-0.0178841
-0.0146011
-0.0121378
-0.0106469
-0.0100337
-0.00997603
-0.0100969
-0.0102263
-0.010329
-0.0103876
-0.010404
0.00319111
0.00299128
0.00267635
0.00217596
0.00139946
0.000260722
-0.00133188
-0.00344907
-0.00611475
-0.00929243
-0.0128877
-0.0167689
-0.0207925
-0.0248257
-0.0287603
-0.0325192
-0.0360551
-0.0393447
-0.042382
-0.0451707
-0.0477194
-0.0500378
-0.0521348
-0.0540178
-0.0556926
-0.0571634
-0.0584335
-0.0595058
-0.0603825
-0.0610661
-0.0615589
-0.0618637
-0.0619838
-0.0619226
-0.0616837
-0.0612709
-0.0606881
-0.0599386
-0.0590256
-0.0579511
-0.056716
-0.0553195
-0.0537582
-0.0520254
-0.0501101
-0.0479957
-0.045659
-0.0430698
-0.040192
-0.0369896
-0.0334391
-0.0295536
-0.0254172
-0.0212226
-0.0172886
-0.0140138
-0.0117327
-0.010537
-0.0102162
-0.010314
-0.0104617
-0.0105855
-0.0106611
-0.0106874
0.00305385
0.00283692
0.00246989
0.00185946
0.000895718
-0.000515501
-0.00245992
-0.00498538
-0.00808055
-0.0116676
-0.0156165
-0.0197732
-0.0239871
-0.0281312
-0.0321119
-0.0358705
-0.0393775
-0.0426244
-0.0456154
-0.0483609
-0.0508725
-0.0531613
-0.055236
-0.0571034
-0.0587684
-0.0602347
-0.061505
-0.0625816
-0.0634665
-0.0641617
-0.0646695
-0.0649922
-0.0651326
-0.0650935
-0.0648779
-0.0644887
-0.0639289
-0.0632012
-0.0623079
-0.0612504
-0.0600295
-0.0586446
-0.0570935
-0.0553718
-0.0534719
-0.0513822
-0.0490851
-0.046556
-0.0437621
-0.0406632
-0.0372189
-0.0334047
-0.0292424
-0.0248442
-0.0204581
-0.0164775
-0.0133572
-0.0114055
-0.0106051
-0.0105809
-0.0107473
-0.0108928
-0.0109912
-0.0110321
0.00263249
0.00239635
0.00196998
0.00123791
7.55152e-05
-0.00161354
-0.00390178
-0.00680883
-0.0102856
-0.0142155
-0.0184406
-0.0227935
-0.0271251
-0.0313203
-0.0353031
-0.039033
-0.0424961
-0.0456952
-0.0486415
-0.0513486
-0.0538296
-0.056095
-0.0581528
-0.0600088
-0.0616671
-0.0631306
-0.0644018
-0.0654825
-0.0663747
-0.0670801
-0.0676009
-0.0679391
-0.0680971
-0.0680773
-0.067882
-0.0675137
-0.0669746
-0.0662666
-0.0653914
-0.0643498
-0.0631423
-0.0617682
-0.0602261
-0.0585127
-0.0566232
-0.0545498
-0.0522805
-0.0497972
-0.0470737
-0.0440735
-0.0407518
-0.0370631
-0.0329838
-0.028552
-0.0239234
-0.0194226
-0.0155311
-0.0127369
-0.0112599
-0.0109175
-0.0110939
-0.0112601
-0.0113861
-0.0114482
0.00189595
0.00163857
0.00114833
0.000289374
-0.0010723
-0.00302958
-0.00563608
-0.00888104
-0.0126778
-0.0168771
-0.021301
-0.0257778
-0.030166
-0.034366
-0.0383201
-0.0420041
-0.0454163
-0.0485674
-0.0514725
-0.0541465
-0.0566019
-0.0588482
-0.0608924
-0.0627391
-0.0643918
-0.0658529
-0.0671245
-0.0682084
-0.0691065
-0.0698204
-0.0703521
-0.0707035
-0.0708767
-0.0708736
-0.0706963
-0.0703467
-0.0698264
-0.0691368
-0.0682789
-0.0672532
-0.0660597
-0.0646977
-0.0631656
-0.0614613
-0.0595813
-0.0575206
-0.0552715
-0.0528219
-0.050153
-0.0472358
-0.0440293
-0.0404816
-0.0365424
-0.0321934
-0.0275016
-0.0226903
-0.0181881
-0.0145677
-0.0122901
-0.011409
-0.0115015
-0.0117014
-0.0118568
-0.0119478
0.000834786
0.000554977
-1.93163e-07
-0.000984403
-0.00253544
-0.00473793
-0.00762386
-0.0111516
-0.0152003
-0.0195951
-0.0241466
-0.0286852
-0.0330814
-0.0372527
-0.0411581
-0.0447867
-0.048146
-0.0512511
-0.0541188
-0.0567636
-0.0591968
-0.0614265
-0.0634585
-0.0652966
-0.0669436
-0.0684018
-0.0696729
-0.0707588
-0.0716612
-0.0723819
-0.0729226
-0.0732852
-0.0734713
-0.0734829
-0.0733215
-0.0729885
-0.0724854
-0.071813
-0.070972
-0.0699624
-0.068784
-0.0674357
-0.0659161
-0.0642233
-0.0623547
-0.0603068
-0.0580749
-0.0556516
-0.0530246
-0.0501732
-0.0470646
-0.0436504
-0.0398701
-0.0356695
-0.0310447
-0.0261142
-0.0212039
-0.0168738
-0.0137574
-0.0121816
-0.0119711
-0.0122402
-0.0124176
-0.0125465
-0.000538466
-0.000839998
-0.00145751
-0.0025588
-0.00428032
-0.00669506
-0.0098131
-0.013563
-0.0177953
-0.0223171
-0.0269343
-0.0314843
-0.0358522
-0.0399718
-0.0438165
-0.0473856
-0.0506923
-0.053754
-0.0565874
-0.0592056
-0.0616185
-0.0638328
-0.0658529
-0.0676821
-0.0693228
-0.0707771
-0.0720466
-0.0731332
-0.0740386
-0.0747645
-0.0753126
-0.0756845
-0.0758819
-0.0759061
-0.0757587
-0.0754407
-0.0749533
-0.074297
-0.0734723
-0.0724789
-0.0713163
-0.0699834
-0.0684787
-0.0668004
-0.0649461
-0.0629134
-0.0606993
-0.0582993
-0.0557063
-0.0529072
-0.0498782
-0.0465798
-0.0429533
-0.0389278
-0.0344506
-0.0295503
-0.0244331
-0.0195737
-0.0156711
-0.013316
-0.0125757
-0.0128864
-0.0130883
-0.0132575
-0.00219039
-0.00251063
-0.00318477
-0.00438975
-0.00625661
-0.00884487
-0.0121439
-0.0160556
-0.0204078
-0.0249965
-0.0296285
-0.0341516
-0.0384655
-0.0425188
-0.0462964
-0.0498049
-0.0530606
-0.0560814
-0.0588826
-0.0614759
-0.0638692
-0.0660681
-0.068076
-0.0698957
-0.0715294
-0.0729788
-0.0742457
-0.075332
-0.0762392
-0.0769691
-0.0775231
-0.0779029
-0.0781097
-0.078145
-0.0780099
-0.0777054
-0.0772322
-0.0765909
-0.0757817
-0.0748042
-0.0736578
-0.0723414
-0.0708536
-0.0691923
-0.0673557
-0.0653414
-0.0631474
-0.0607712
-0.058209
-0.0554534
-0.0524892
-0.0492874
-0.0457982
-0.041949
-0.0376592
-0.0328909
-0.0277381
-0.0225506
-0.0179943
-0.0148438
-0.0134599
-0.0136234
-0.0138932
-0.0140983
-0.00407021
-0.00440487
-0.00512724
-0.00641903
-0.00840264
-0.011124
-0.0145536
-0.0185706
-0.022987
-0.027593
-0.0322005
-0.0366688
-0.0409119
-0.0448908
-0.0485989
-0.0520475
-0.0552542
-0.058236
-0.0610065
-0.0635756
-0.0659495
-0.0681326
-0.0701279
-0.0719374
-0.0735632
-0.075007
-0.0762706
-0.0773557
-0.0782639
-0.0789966
-0.0795555
-0.0799418
-0.0801568
-0.0802017
-0.0800774
-0.0797848
-0.0793246
-0.0786971
-0.0779024
-0.0769403
-0.0758101
-0.0745107
-0.0730408
-0.0713986
-0.0695822
-0.0675895
-0.0654188
-0.0630686
-0.060537
-0.0578208
-0.0549117
-0.0517904
-0.0484192
-0.0447331
-0.0406425
-0.0360652
-0.0310052
-0.0256789
-0.0206501
-0.0167717
-0.0147051
-0.0144507
-0.0148739
-0.01509
-0.00611568
-0.00645943
-0.00721996
-0.00858013
-0.0106512
-0.0134666
-0.01698
-0.0210533
-0.0254876
-0.0300723
-0.0346266
-0.0390218
-0.0431844
-0.0470853
-0.0507242
-0.0541147
-0.0572743
-0.0602188
-0.0629596
-0.0655047
-0.0678591
-0.0700262
-0.0720082
-0.073807
-0.0754244
-0.0768622
-0.0781219
-0.0792052
-0.0801136
-0.0808485
-0.0814112
-0.081803
-0.0820251
-0.0820782
-0.0819634
-0.0816814
-0.0812328
-0.0806178
-0.0798367
-0.0788891
-0.0777745
-0.0764922
-0.0750408
-0.0734187
-0.0716242
-0.0696555
-0.067511
-0.0651896
-0.0626906
-0.0600131
-0.0571537
-0.0541019
-0.0508314
-0.0472901
-0.0433925
-0.0390335
-0.0341515
-0.0288434
-0.0235353
-0.0190569
-0.0162923
-0.0154618
-0.0160296
-0.0162559
-0.00825873
-0.00860521
-0.00939324
-0.0108035
-0.0129345
-0.0158082
-0.0193651
-0.0234541
-0.0278703
-0.0324056
-0.0368875
-0.0411989
-0.0452767
-0.0490995
-0.052671
-0.0560058
-0.0591207
-0.0620291
-0.064741
-0.0672624
-0.0695973
-0.071748
-0.0737166
-0.0755045
-0.0771133
-0.0785448
-0.0798003
-0.0808815
-0.0817896
-0.082526
-0.0830919
-0.0834883
-0.0837162
-0.0837766
-0.0836701
-0.0833974
-0.0829591
-0.0823554
-0.0815866
-0.0806525
-0.0795528
-0.0782869
-0.0768537
-0.0752521
-0.0734805
-0.0715373
-0.0694211
-0.0671311
-0.064667
-0.0620294
-0.0592182
-0.056229
-0.0530464
-0.0496319
-0.0459124
-0.041778
-0.0371231
-0.0319505
-0.0265389
-0.0216152
-0.0181813
-0.0167805
-0.0173282
-0.0176047
-0.0104306
-0.0107726
-0.0115777
-0.0130212
-0.0151874
-0.0180892
-0.0216564
-0.0257295
-0.0301016
-0.0345685
-0.038967
-0.0431899
-0.0471828
-0.0509299
-0.0544371
-0.0577193
-0.0607915
-0.0636655
-0.0663493
-0.0688474
-0.0711629
-0.0732975
-0.0752526
-0.0770296
-0.07863
-0.0800552
-0.0813065
-0.0823854
-0.083293
-0.0840305
-0.084599
-0.0849993
-0.0852323
-0.0852988
-0.0851994
-0.0849348
-0.0845055
-0.0839118
-0.083154
-0.0822322
-0.0811462
-0.0798957
-0.0784801
-0.0768985
-0.0751497
-0.0732326
-0.071146
-0.0688891
-0.0664622
-0.0638664
-0.0611037
-0.0581742
-0.0550707
-0.0517685
-0.0482097
-0.0442927
-0.0398887
-0.03493
-0.029561
-0.0243614
-0.0203628
-0.0184475
-0.0187282
-0.019136
-0.0125656
-0.0128957
-0.0137082
-0.0151701
-0.017351
-0.0202562
-0.0238082
-0.0278427
-0.0321532
-0.0365411
-0.0408515
-0.044986
-0.0488969
-0.0525724
-0.0560195
-0.0592524
-0.0622844
-0.0651257
-0.0677824
-0.0702581
-0.0725547
-0.0746735
-0.0766157
-0.0783823
-0.0799745
-0.0813937
-0.082641
-0.0837177
-0.0846247
-0.0853631
-0.0859337
-0.0863372
-0.0865745
-0.0866462
-0.086553
-0.0862953
-0.0858736
-0.0852886
-0.0845404
-0.0836295
-0.0825558
-0.0813194
-0.0799201
-0.0783575
-0.0766308
-0.0747395
-0.0726826
-0.0704597
-0.0680714
-0.0655191
-0.062806
-0.0599353
-0.0569062
-0.0537053
-0.0502913
-0.0465773
-0.0424302
-0.0377318
-0.0325197
-0.0272182
-0.0228162
-0.0204203
-0.0202316
-0.0208458
-0.0146046
-0.0149172
-0.0157271
-0.0171949
-0.0193738
-0.0222635
-0.025782
-0.0297628
-0.0340018
-0.0383064
-0.0425293
-0.046579
-0.0504133
-0.0540226
-0.0574143
-0.0606017
-0.0635964
-0.066407
-0.0690381
-0.0714924
-0.0737712
-0.0758752
-0.0778052
-0.0795621
-0.0811469
-0.0825606
-0.0838043
-0.084879
-0.0857855
-0.0865246
-0.087097
-0.0875034
-0.0877443
-0.0878204
-0.0877322
-0.0874802
-0.087065
-0.0864872
-0.0857472
-0.0848455
-0.0837825
-0.0825586
-0.0811739
-0.0796287
-0.0779227
-0.0760558
-0.0740279
-0.0718388
-0.0694894
-0.0669817
-0.0643193
-0.0615075
-0.0585502
-0.0554433
-0.0521606
-0.0486334
-0.0447368
-0.0403222
-0.0353502
-0.030103
-0.0254623
-0.0226223
-0.0219088
-0.0227285
-0.0164923
-0.0167893
-0.0175855
-0.0190488
-0.0212129
-0.0240735
-0.0275461
-0.0314647
-0.0356286
-0.0398508
-0.0439903
-0.0479616
-0.0517261
-0.0552757
-0.0586176
-0.0617636
-0.0647243
-0.0675065
-0.070114
-0.0725486
-0.0748109
-0.0769013
-0.0788203
-0.0805685
-0.0821468
-0.0835559
-0.0847966
-0.0858698
-0.086776
-0.0875159
-0.08809
-0.0884988
-0.0887427
-0.0888224
-0.0887383
-0.0884909
-0.0880808
-0.0875087
-0.0867752
-0.085881
-0.0848268
-0.0836134
-0.0822414
-0.0807114
-0.0790241
-0.0771798
-0.075179
-0.0730224
-0.0707112
-0.0682478
-0.0656364
-0.0628837
-0.0599969
-0.0569791
-0.0538169
-0.0504605
-0.0468007
-0.0426791
-0.0380011
-0.0329291
-0.028193
-0.0249731
-0.0238289
-0.0247785
-0.0181913
-0.018463
-0.0192451
-0.0206946
-0.0228343
-0.0256568
-0.029076
-0.0329283
-0.0370186
-0.0411628
-0.0452259
-0.049127
-0.0528299
-0.0563271
-0.059625
-0.0627344
-0.0656646
-0.0684213
-0.0710076
-0.0734244
-0.075672
-0.0777505
-0.07966
-0.081401
-0.0829739
-0.0843794
-0.085618
-0.0866903
-0.0875967
-0.0883375
-0.0889133
-0.0893242
-0.0895707
-0.0896533
-0.0895723
-0.0893284
-0.0889221
-0.0883541
-0.0876254
-0.0867367
-0.0856893
-0.084484
-0.0831222
-0.081605
-0.0799336
-0.0781092
-0.076133
-0.0740065
-0.0717315
-0.069311
-0.0667499
-0.0640557
-0.0612381
-0.0583056
-0.0552556
-0.0520555
-0.0486163
-0.0447851
-0.0404298
-0.0356179
-0.0309129
-0.0274273
-0.0259785
-0.0269634
-0.0196733
-0.0199067
-0.0206736
-0.022103
-0.0242128
-0.0269919
-0.0303535
-0.0341385
-0.0381604
-0.0422328
-0.0462286
-0.0500692
-0.0537196
-0.0571722
-0.0604326
-0.0635105
-0.0664141
-0.0691486
-0.0717164
-0.0741178
-0.076353
-0.0784215
-0.0803234
-0.0820587
-0.0836278
-0.0850309
-0.0862685
-0.0873407
-0.0882478
-0.08899
-0.0895675
-0.0899805
-0.0902292
-0.0903141
-0.0902354
-0.0899937
-0.0895897
-0.0890243
-0.0882985
-0.0874133
-0.0863701
-0.0851705
-0.083816
-0.0823085
-0.0806499
-0.0788421
-0.0768872
-0.0747874
-0.0725455
-0.0701652
-0.0676521
-0.0650146
-0.0622642
-0.0594136
-0.0564687
-0.0534122
-0.0501765
-0.0466241
-0.0426003
-0.0381028
-0.0335408
-0.0299288
-0.0282795
-0.029212
-0.0209178
-0.0211057
-0.0218473
-0.0232535
-0.0253321
-0.0280651
-0.0313678
-0.0350858
-0.0390447
-0.0430522
-0.0469917
-0.050783
-0.0543907
-0.0578071
-0.0610366
-0.0640882
-0.0669696
-0.0696855
-0.0722378
-0.0746267
-0.0768519
-0.0789128
-0.0808091
-0.0825408
-0.0841077
-0.08551
-0.0867478
-0.087821
-0.0887297
-0.0894738
-0.0900534
-0.0904684
-0.0907191
-0.0908056
-0.0907283
-0.0904878
-0.0900848
-0.0895202
-0.0887952
-0.0879112
-0.0868697
-0.0856728
-0.0843225
-0.0828213
-0.0811716
-0.0793764
-0.0774385
-0.0753612
-0.0731482
-0.0708041
-0.0683353
-0.0657513
-0.0630649
-0.0602921
-0.0574456
-0.0545212
-0.0514717
-0.0481799
-0.0444836
-0.0403297
-0.035999
-0.0323858
-0.0306198
-0.0314344
-0.0219135
-0.0220501
-0.0227571
-0.0241339
-0.0261811
-0.0288709
-0.0321176
-0.0357724
-0.0396613
-0.0436154
-0.04751
-0.0512638
-0.0548395
-0.058228
-0.0614335
-0.0644644
-0.067328
-0.0700293
-0.0725695
-0.0749489
-0.0771668
-0.0792227
-0.0811159
-0.0828461
-0.0844129
-0.0858162
-0.0870557
-0.0881312
-0.0890424
-0.0897892
-0.0903713
-0.0907886
-0.091041
-0.0911288
-0.0910522
-0.0908118
-0.0904083
-0.0898427
-0.0891165
-0.0882311
-0.0871885
-0.0859911
-0.0846414
-0.0831425
-0.0814976
-0.0797103
-0.0777845
-0.0757245
-0.073535
-0.0712217
-0.0687921
-0.0662567
-0.0636296
-0.0609294
-0.0581744
-0.0553709
-0.0524904
-0.0494376
-0.0460553
-0.0422548
-0.0382153
-0.0346992
-0.0328822
-0.0335446
-0.0226579
-0.0227379
-0.0234028
-0.0247433
-0.0267541
-0.0293994
-0.0325924
-0.0361897
-0.0400215
-0.0439295
-0.047787
-0.0515116
-0.0550637
-0.0584321
-0.0616201
-0.064636
-0.0674869
-0.0701773
-0.072709
-0.0750821
-0.0772959
-0.0793497
-0.0812424
-0.0829735
-0.0845425
-0.0859487
-0.0871917
-0.0882711
-0.0891862
-0.0899366
-0.0905219
-0.0909417
-0.091196
-0.0912847
-0.0912081
-0.0909666
-0.0905612
-0.0899929
-0.0892631
-0.0883737
-0.087327
-0.0861256
-0.0847726
-0.0832717
-0.0816267
-0.0798421
-0.0779228
-0.075874
-0.0737016
-0.0714126
-0.0690156
-0.0665222
-0.063948
-0.0613137
-0.0586421
-0.0559484
-0.0532196
-0.050383
-0.0472947
-0.0438422
-0.0401276
-0.03678
-0.034966
-0.0354686
-0.0231567
-0.023176
-0.0237925
-0.0250889
-0.0270565
-0.0296533
-0.0327935
-0.0363391
-0.0401253
-0.0439955
-0.0478236
-0.0515265
-0.0550622
-0.0584174
-0.0615942
-0.0646004
-0.0674431
-0.0701269
-0.0726538
-0.0750241
-0.0772371
-0.0792917
-0.081187
-0.0829218
-0.0844954
-0.085907
-0.0871556
-0.0882406
-0.0891611
-0.0899163
-0.0905057
-0.0909286
-0.0911849
-0.0912743
-0.0911971
-0.0909537
-0.0905449
-0.0899719
-0.0892363
-0.0883401
-0.087286
-0.0860768
-0.0847163
-0.0832085
-0.0815581
-0.0797704
-0.0778511
-0.0758067
-0.0736441
-0.0713715
-0.0689991
-0.0665397
-0.0640104
-0.0614337
-0.0588362
-0.0562403
-0.0536463
-0.0510025
-0.0481836
-0.045063
-0.0416854
-0.0385557
-0.0367925
-0.0371468
-0.023423
-0.0233799
-0.0239415
-0.0251853
-0.027102
-0.0296456
-0.0327314
-0.0362276
-0.0399733
-0.0438125
-0.0476186
-0.051307
-0.0548332
-0.0581816
-0.0613531
-0.0643548
-0.0671939
-0.0698753
-0.0724014
-0.0747726
-0.0769882
-0.0790471
-0.080948
-0.0826896
-0.0842707
-0.0856901
-0.0869468
-0.0880395
-0.0889672
-0.0897288
-0.0903234
-0.0907502
-0.0910089
-0.091099
-0.0910207
-0.0907744
-0.0903608
-0.0897813
-0.0890375
-0.0881317
-0.0870667
-0.0858459
-0.0844733
-0.0829532
-0.0812917
-0.0794945
-0.0775682
-0.0755203
-0.073359
-0.071094
-0.0687367
-0.0663016
-0.0638075
-0.0612785
-0.0587443
-0.0562335
-0.0537573
-0.0512833
-0.0487064
-0.0458939
-0.0428501
-0.0399703
-0.0383027
-0.0385304
-0.0234764
-0.0233724
-0.0238726
-0.0250536
-0.02691
-0.0293938
-0.0324212
-0.0358656
-0.039571
-0.0433822
-0.0471715
-0.0508516
-0.0543746
-0.0577225
-0.0608943
-0.0638966
-0.0667367
-0.06942
-0.0719491
-0.074325
-0.0765469
-0.0786136
-0.0805236
-0.0822753
-0.0838671
-0.0852974
-0.0865648
-0.0876678
-0.0886048
-0.0893745
-0.0899758
-0.0904076
-0.0906692
-0.0907602
-0.0906805
-0.0904305
-0.0900109
-0.089423
-0.0886686
-0.0877502
-0.0866707
-0.0854339
-0.0840443
-0.0825069
-0.0808279
-0.0790143
-0.0770733
-0.0750132
-0.0728442
-0.0705768
-0.0682237
-0.0658015
-0.063331
-0.0608379
-0.0583549
-0.0559154
-0.05354
-0.0512128
-0.0488494
-0.0463174
-0.0435927
-0.040982
-0.0394514
-0.0395782
-0.0233422
-0.0231827
-0.0236144
-0.0247204
-0.0265046
-0.028919
-0.0318804
-0.035267
-0.038928
-0.0427104
-0.0464848
-0.0501604
-0.0536852
-0.0570378
-0.0602151
-0.0632229
-0.0660686
-0.0687579
-0.0712942
-0.0736786
-0.0759107
-0.077989
-0.0799119
-0.0816773
-0.0832834
-0.084728
-0.0860092
-0.0871252
-0.0880741
-0.0888541
-0.0894638
-0.0899019
-0.0901674
-0.0902597
-0.0901786
-0.0899242
-0.0894973
-0.0888993
-0.0881319
-0.0871978
-0.0861002
-0.0848431
-0.0834313
-0.0818706
-0.0801676
-0.07833
-0.076366
-0.0742852
-0.0720985
-0.0698178
-0.0674568
-0.0650353
-0.0625738
-0.0601029
-0.0576573
-0.0552744
-0.0529827
-0.0507798
-0.048601
-0.04632
-0.0438934
-0.0415609
-0.0402019
-0.0402532
-0.0230496
-0.0228441
-0.0232001
-0.0242169
-0.0259138
-0.0282457
-0.0311296
-0.0344485
-0.0380573
-0.0418058
-0.0455635
-0.0492353
-0.0527646
-0.0561256
-0.0593128
-0.0623306
-0.0651861
-0.0678858
-0.0704334
-0.0728306
-0.0750769
-0.077171
-0.0791108
-0.0808941
-0.0825183
-0.0839809
-0.0852796
-0.0864119
-0.0873755
-0.0881685
-0.0887887
-0.0892348
-0.0895054
-0.0895996
-0.0895171
-0.089258
-0.0888228
-0.0882129
-0.0874303
-0.0864774
-0.0853579
-0.0840759
-0.0826368
-0.0810466
-0.0793127
-0.0774431
-0.0754473
-0.0733358
-0.0711205
-0.0688148
-0.0664348
-0.0640008
-0.0615317
-0.0590681
-0.0566428
-0.0543001
-0.0520747
-0.0499743
-0.0479521
-0.045892
-0.0437395
-0.0416867
-0.0405221
-0.0405204
-0.0226307
-0.022392
-0.0226656
-0.0235781
-0.02517
-0.0274024
-0.0301933
-0.0334302
-0.0369745
-0.0406796
-0.0444143
-0.0480795
-0.0516131
-0.0549844
-0.0581845
-0.061216
-0.0640856
-0.0667999
-0.0693632
-0.0717773
-0.0740423
-0.0761567
-0.078118
-0.0799236
-0.0815704
-0.0830554
-0.0843755
-0.0855279
-0.0865097
-0.0873185
-0.087952
-0.0884081
-0.0886853
-0.0887825
-0.0886991
-0.0884349
-0.0879906
-0.0873674
-0.0865672
-0.0855927
-0.0844475
-0.0831361
-0.0816642
-0.0800382
-0.0782659