/*--------------------------------*- C++ -*----------------------------------*\
| =========                 |                                                 |
| \\      /  F ield         | OpenFOAM: The Open Source CFD Toolbox           |
|  \\    /   O peration     | Version:  2406                                  |
|   \\  /    A nd           | Website:  www.openfoam.com                      |
|    \\/     M anipulation  |                                                 |
\*---------------------------------------------------------------------------*/
FoamFile
{
    version     2.0;
    format      ascii;
    arch        "LSB;label=32;scalar=64";
    class       surfaceScalarField;
    location    "75";
    object      phi_0;
}
// * * * * * * * * * * * * * * * * * * * * * * * * * * * * * * * * * * * * * //

dimensions      [0 3 -1 0 0 0 0];

oriented        oriented;

internalField   nonuniform List<scalar> 
8064
(
2.50569e-07
-2.50469e-07
1.21188e-06
-9.61304e-07
2.64479e-06
-1.43292e-06
4.18744e-06
-1.54265e-06
5.54353e-06
-1.35609e-06
6.55337e-06
-1.00983e-06
7.19078e-06
-6.37409e-07
7.523e-06
-3.32217e-07
7.65682e-06
-1.33829e-07
7.68753e-06
-3.07129e-08
7.66238e-06
2.51562e-08
7.57561e-06
8.67652e-08
7.36821e-06
2.07402e-07
6.94972e-06
4.18487e-07
6.21228e-06
7.37445e-07
5.04286e-06
1.16942e-06
3.32382e-06
1.71903e-06
9.34534e-07
2.38929e-06
-2.24488e-06
3.17941e-06
-6.32546e-06
4.08058e-06
-1.13996e-05
5.07412e-06
-1.75246e-05
6.12504e-06
-2.47053e-05
7.18071e-06
-3.28775e-05
8.1722e-06
-4.18974e-05
9.01988e-06
-5.15375e-05
9.6401e-06
-6.1489e-05
9.95147e-06
-7.1371e-05
9.88205e-06
-8.07488e-05
9.37783e-06
-8.91598e-05
8.41098e-06
-9.6145e-05
6.98521e-06
-0.000101279
5.13396e-06
-0.000104192
2.91349e-06
-0.000104639
4.46657e-07
-0.000102217
-2.42253e-06
-9.68512e-05
-5.3654e-06
-8.85734e-05
-8.27776e-06
-7.75322e-05
-1.10412e-05
-6.40278e-05
-1.35044e-05
-4.85246e-05
-1.55032e-05
-3.1653e-05
-1.68716e-05
-1.41951e-05
-1.74578e-05
2.95241e-06
-1.71475e-05
1.8939e-05
-1.59866e-05
3.27685e-05
-1.38296e-05
4.3716e-05
-1.09475e-05
5.11996e-05
-7.48362e-06
5.50393e-05
-3.83969e-06
5.53976e-05
-3.58229e-07
5.27221e-05
2.67545e-06
4.7784e-05
4.93812e-06
4.14339e-05
6.3501e-06
3.45162e-05
6.91765e-06
2.77295e-05
6.78672e-06
2.15487e-05
6.18079e-06
1.62227e-05
5.32603e-06
1.18181e-05
4.40462e-06
8.27994e-06
3.53813e-06
5.49012e-06
2.78982e-06
3.31797e-06
2.17215e-06
1.66928e-06
1.64868e-06
5.33038e-07
1.13625e-06
-1.47508e-08
5.47788e-07
-1.47522e-08
9.0152e-07
-1.15199e-06
3.22217e-06
-3.28196e-06
6.34945e-06
-4.56019e-06
9.59488e-06
-4.78808e-06
1.24035e-05
-4.16476e-06
1.44532e-05
-3.0595e-06
1.56546e-05
-1.83882e-06
1.60848e-05
-7.6243e-07
1.58912e-05
5.97624e-08
1.51996e-05
6.6095e-07
1.40481e-05
1.17659e-06
1.23562e-05
1.77874e-06
9.93917e-06
2.6244e-06
6.54262e-06
3.81504e-06
1.87118e-06
5.40888e-06
-4.38078e-06
7.42138e-06
-1.25075e-05
9.84578e-06
-2.27734e-05
1.26552e-05
-3.53793e-05
1.57853e-05
-5.04151e-05
1.91163e-05
-6.78037e-05
2.24628e-05
-8.72602e-05
2.55815e-05
-0.000108283
2.82033e-05
-0.000130186
3.00755e-05
-0.000152165
3.09991e-05
-0.000173375
3.08497e-05
-0.000193003
2.95798e-05
-0.000210328
2.72069e-05
-0.000224745
2.37948e-05
-0.000235773
1.94386e-05
-0.000243046
1.42585e-05
-0.00024632
8.40826e-06
-0.000245526
2.11965e-06
-0.000240322
-4.75797e-06
-0.000230837
-1.19076e-05
-0.000217145
-1.90571e-05
-0.000199414
-2.60091e-05
-0.000177936
-3.25188e-05
-0.00015314
-3.83005e-05
-0.000125603
-4.30405e-05
-9.60612e-05
-4.64131e-05
-6.54114e-05
-4.81077e-05
-3.4687e-05
-4.78719e-05
-5.09755e-06
-4.5576e-05
2.23521e-05
-4.12792e-05
4.64171e-05
-3.50125e-05
6.59668e-05
-2.70333e-05
8.03797e-05
-1.82526e-05
8.92581e-05
-9.23668e-06
9.27745e-05
-8.40868e-07
9.1156e-05
6.5566e-06
8.53034e-05
1.22027e-05
7.63573e-05
1.58637e-05
6.55863e-05
1.75578e-05
5.41929e-05
1.75742e-05
4.31504e-05
1.63685e-05
3.31137e-05
1.44413e-05
2.44108e-05
1.22411e-05
1.71184e-05
1.00822e-05
1.11645e-05
8.12609e-06
6.44442e-06
6.36877e-06
2.93081e-06
4.64985e-06
7.32203e-07
2.74639e-06
7.1745e-07
1.40024e-06
-2.55223e-06
4.6273e-06
-6.50902e-06
8.70691e-06
-8.6398e-06
1.27407e-05
-8.82185e-06
1.60519e-05
-7.47598e-06
1.82545e-05
-5.26213e-06
1.92263e-05
-2.81058e-06
1.90169e-05
-5.53074e-07
1.77316e-05
1.34512e-06
1.54247e-05
2.96787e-06
1.20229e-05
4.57839e-06
7.30481e-06
6.49679e-06
9.18372e-07
9.01084e-06
-7.57033e-06
1.23037e-05
-1.86073e-05
1.64459e-05
-3.26114e-05
2.14254e-05
-4.99056e-05
2.71399e-05
-7.06292e-05
3.33789e-05
-9.4641e-05
3.97971e-05
-0.000121452
4.59271e-05
-0.000150237
5.12484e-05
-0.000179943
5.52873e-05
-0.00020944
5.77005e-05
-0.000237675
5.83096e-05
-0.000263762
5.70862e-05
-0.000287022
5.41094e-05
-0.000306963
4.95217e-05
-0.000323251
4.34946e-05
-0.000335663
3.62069e-05
-0.000344059
2.7834e-05
-0.000348355
1.85553e-05
-0.000348532
8.5848e-06
-0.000344564
-1.84787e-06
-0.000336417
-1.29053e-05
-0.000324223
-2.41018e-05
-0.000308024
-3.52555e-05
-0.000287923
-4.61109e-05
-0.000264101
-5.63409e-05
-0.000236835
-6.55664e-05
-0.000206523
-7.33524e-05
-0.000173706
-7.92295e-05
-0.000139089
-8.27249e-05
-0.00010354
-8.34213e-05
-6.80845e-05
-8.10313e-05
-3.39306e-05
-7.54331e-05
-2.24711e-06
-6.6696e-05
2.61378e-05
-5.54183e-05
4.98985e-05
-4.20133e-05
6.83004e-05
-2.76385e-05
8.08955e-05
-1.3436e-05
8.80057e-05
-5.53514e-07
8.95107e-05
1.06977e-05
8.62253e-05
1.9149e-05
7.91377e-05
2.46454e-05
6.94333e-05
2.72786e-05
5.83415e-05
2.74603e-05
4.69606e-05
2.58222e-05
3.613e-05
2.30716e-05
2.63724e-05
1.98399e-05
1.79372e-05
1.65613e-05
1.09145e-05
1.33915e-05
5.38674e-06
1.01776e-05
1.57825e-06
6.55488e-06
2.2957e-06
1.7331e-06
-4.28533e-06
5.50558e-06
-1.02815e-05
1.00054e-05
-1.31396e-05
1.41444e-05
-1.29609e-05
1.71786e-05
-1.05102e-05
1.87173e-05
-6.80078e-06
1.86381e-05
-2.73145e-06
1.69511e-05
1.13395e-06
1.36695e-05
4.62669e-06
8.70046e-06
7.93693e-06
1.77826e-06
1.15006e-05
-7.53175e-06
1.58068e-05
-1.97561e-05
2.12352e-05
-3.54408e-05
2.79884e-05
-5.50466e-05
3.60517e-05
-7.88156e-05
4.51944e-05
-0.000106633
5.49569e-05
-0.00013792
6.46662e-05
-0.000171652
7.35292e-05
-0.000206519
8.07944e-05
-0.000241173
8.59018e-05
-0.000274433
8.85479e-05
-0.000305398
8.86653e-05
-0.000333445
8.63566e-05
-0.000358185
8.18259e-05
-0.000379401
7.53255e-05
-0.000396994
6.7115e-05
-0.000410937
5.74371e-05
-0.000421235
4.65053e-05
-0.000427906
3.45045e-05
-0.000430958
2.16077e-05
-0.000430374
8.0007e-06
-0.000426076
-6.14564e-06
-0.000418228
-2.07534e-05
-0.000406728
-3.56018e-05
-0.000391523
-5.04605e-05
-0.000372589
-6.50449e-05
-0.000349941
-7.89895e-05
-0.00032366
-9.18469e-05
-0.000293928
-0.000103084
-0.00026106
-0.000112098
-0.000225539
-0.000118246
-0.000188049
-0.000120912
-0.000149485
-0.000119595
-0.000110934
-0.000113984
-7.35549e-05
-0.000104075
-3.87036e-05
-9.02696e-05
-7.43252e-06
-7.32843e-05
1.93156e-05
-5.43867e-05
4.07089e-05
-3.48293e-05
5.62581e-05
-1.61028e-05
6.6393e-05
5.62849e-07
7.10606e-05
1.44814e-05
7.09094e-05
2.47966e-05
6.67586e-05
3.14294e-05
5.96284e-05
3.45905e-05
5.06279e-05
3.48227e-05
4.08047e-05
3.28948e-05
3.10159e-05
2.96286e-05
2.18719e-05
2.57053e-05
1.37774e-05
2.14859e-05
7.0601e-06
1.68949e-05
2.17389e-06
1.14411e-05
4.46959e-06
1.96086e-06
-6.24619e-06
5.98434e-06
-1.4305e-05
1.04327e-05
-1.7588e-05
1.4058e-05
-1.65861e-05
1.60959e-05
-1.25481e-05
1.61909e-05
-6.8957e-06
1.42381e-05
-7.78675e-07
1.01774e-05
5.19467e-06
3.89523e-06
1.09088e-05
-4.93431e-06
1.67665e-05
-1.68121e-05
2.33784e-05
-3.23504e-05
3.13451e-05
-5.2152e-05
4.10368e-05
-7.6629e-05
5.24655e-05
-0.000105821
6.52441e-05
-0.00013924
7.86134e-05
-0.000175834
9.15501e-05
-0.000214145
0.000102977
-0.000252618
0.000112003
-0.000289892
0.000118069
-0.000324951
0.00012096
-0.000357136
0.000120733
-0.000386081
0.000117611
-0.000411631
0.000111906
-0.000433755
0.00010395
-0.0004525
9.40701e-05
-0.000467942
8.25579e-05
-0.000480168
6.9663e-05
-0.000489254
5.55913e-05
-0.00049526
4.05099e-05
-0.000498205
2.45535e-05
-0.000498008
7.80357e-06
-0.000494712
-9.44208e-06
-0.000488369
-2.70967e-05
-0.000478836
-4.5134e-05
-0.000465978
-6.33187e-05
-0.000449659
-8.1364e-05
-0.000429745
-9.89034e-05
-0.00040613
-0.000115462
-0.000378763
-0.00013045
-0.000347695
-0.000143166
-0.000313131
-0.00015281
-0.000275489
-0.000158553
-0.000235449
-0.000159635
-0.000193966
-0.000155467
-0.000152249
-0.000145792
-0.000111721
-0.000130799
-7.37837e-05
-0.000111221
-3.98106e-05
-8.83598e-05
-1.07726e-05
-6.38672e-05
1.26999e-05
-3.95753e-05
3.03712e-05
-1.71085e-05
4.25366e-05
2.31612e-06
4.94756e-05
1.78576e-05
5.17445e-05
2.91604e-05
5.007e-05
3.62651e-05
4.53414e-05
3.95513e-05
3.85332e-05
3.9703e-05
3.05944e-05
3.75675e-05
2.23506e-05
3.39491e-05
1.44791e-05
2.93575e-05
7.58334e-06
2.37907e-05
2.37642e-06
1.6648e-05
6.84602e-06
2.10411e-06
-8.3503e-06
6.08121e-06
-1.82821e-05
9.98734e-06
-2.14941e-05
1.24748e-05
-1.90736e-05
1.28148e-05
-1.28881e-05
1.07177e-05
-4.79857e-06
6.06142e-06
3.87756e-06
-1.2803e-06
1.25364e-05
-1.16604e-05
2.12889e-05
-2.56176e-05
3.07237e-05
-4.38361e-05
4.15968e-05
-6.69424e-05
5.44514e-05
-9.52611e-05
6.93555e-05
-0.000128587
8.5791e-05
-0.000166058
0.000102715
-0.000206235
0.00011879
-0.000247393
0.000132708
-0.000287902
0.000143487
-0.000326491
0.000150592
-0.000362323
0.0001539
-0.000394933
0.000153571
-0.000424128
0.000149927
-0.000449887
0.00014337
-0.00047229
0.000134309
-0.000491473
0.000123132
-0.000507587
0.000110184
-0.000520787
9.57579e-05
-0.000531218
8.00945e-05
-0.000539013
6.33855e-05
-0.000544277
4.57745e-05
-0.00054707
2.73467e-05
-0.000547343
8.07591e-06
-0.00054521
-1.15745e-05
-0.000540675
-3.16323e-05
-0.000533593
-5.22156e-05
-0.0005238
-7.31116e-05
-0.000511083
-9.40809e-05
-0.000495188
-0.000114799
-0.000475827
-0.000134823
-0.00045271
-0.000153567
-0.000425587
-0.000170289
-0.000394305
-0.000184093
-0.000358882
-0.000193976
-0.000319607
-0.000198909
-0.000277141
-0.000197933
-0.000232546
-0.000190387
-0.000187284
-0.000176061
-0.0001431
-0.000155405
-0.000101841
-0.000129619
-6.51217e-05
-0.000100587
-3.40736e-05
-7.06234e-05
-9.17465e-06
-4.20074e-05
9.65817e-06
-1.65167e-05
2.28268e-05
4.68887e-06
3.09212e-05
2.1066e-05
3.45487e-05
3.26376e-05
3.44177e-05
3.96823e-05
3.13389e-05
4.27818e-05
2.61949e-05
4.27115e-05
1.98692e-05
4.02748e-05
1.32002e-05
3.60265e-05
7.00522e-06
2.99856e-05
2.19539e-06
2.14578e-05
9.04141e-06
2.13332e-06
-1.04836e-05
5.69999e-06
-2.18487e-05
8.51297e-06
-2.43071e-05
9.21509e-06
-1.97757e-05
7.16823e-06
-1.08413e-05
2.15697e-06
2.1268e-07
-5.9885e-06
1.2023e-05
-1.75458e-05
2.40937e-05
-3.30602e-05
3.68032e-05
-5.32436e-05
5.09072e-05
-7.87287e-05
6.7082e-05
-0.000109761
8.54837e-05
-0.000145931
0.000105525
-0.000186085
0.000125945
-0.000228509
0.000145139
-0.000271316
0.000161598
-0.000312857
0.000174248
-0.00035194
0.00018257
-0.000387847
0.000186498
-0.000420225
0.000186279
-0.000448979
0.000182325
-0.000474169
0.000175117
-0.000495946
0.000165146
-0.00051451
0.000152874
-0.000530093
0.000138715
-0.00054293
0.000123022
-0.000553257
0.000106085
-0.000561294
8.81315e-05
-0.000567242
6.93328e-05
-0.000571269
4.98016e-05
-0.000573501
2.95788e-05
-0.000574008
8.58316e-06
-0.000572873
-1.27094e-05
-0.000570097
-3.44087e-05
-0.000565593
-5.67193e-05
-0.000559209
-7.94959e-05
-0.000550709
-0.00010258
-0.000539772
-0.000125736
-0.000525987
-0.000148608
-0.000508866
-0.000170688
-0.000487874
-0.000191281
-0.00046248
-0.000209487
-0.000432242
-0.000224214
-0.000396927
-0.000234224
-0.000356631
-0.00023823
-0.000311941
-0.000235077
-0.000264058
-0.000223943
-0.000214791
-0.000204673
-0.000166423
-0.000177987
-0.000121386
-0.000145623
-8.17958e-05
-0.000110214
-4.89799e-05
-7.48233e-05
-2.3247e-05
-4.22496e-05
-4.153e-06
-1.44051e-05
9.06556e-06
7.84746e-06
1.72795e-05
2.44236e-05
2.12688e-05
3.5693e-05
2.17635e-05
4.22871e-05
1.95703e-05
4.49047e-05
1.55515e-05
4.42936e-05
1.06072e-05
4.09708e-05
5.67322e-06
3.49196e-05
1.75427e-06
2.53768e-05
1.07957e-05
1.98507e-06
-1.24687e-05
4.68077e-06
-2.45444e-05
5.78986e-06
-2.54162e-05
4.05394e-06
-1.80398e-05
-1.0196e-06
-5.76771e-06
-9.62601e-06
8.81909e-06
-2.19735e-05
2.43705e-05
-3.85409e-05
4.06612e-05
-5.99932e-05
5.82556e-05
-8.69526e-05
7.78665e-05
-0.000119623
9.97526e-05
-0.000157477
0.000123338
-0.000199182
0.000147229
-0.000242841
0.000169605
-0.000286453
0.000188752
-0.000328337
0.000203482
-0.000367329
0.00021324
-0.000402756
0.000217997
-0.000434325
0.000218067
-0.000461989
0.000213943
-0.000485858
0.000206194
-0.000506145
0.000195405
-0.000523128
0.000182129
-0.000537121
0.000166866
-0.00054845
0.000150044
-0.000557442
0.000132014
-0.000564408
0.00011305
-0.00056963
9.33537e-05
-0.000573359
7.30618e-05
-0.000575806
5.22493e-05
-0.000577152
3.09246e-05
-0.00057756
8.99113e-06
-0.000577079
-1.31909e-05
-0.000575715
-3.57723e-05
-0.000573459
-5.89757e-05
-0.000570217
-8.27381e-05
-0.0005658
-0.000106997
-0.00055991
-0.000131626
-0.000552117
-0.000156401
-0.000541852
-0.000180953
-0.00052841
-0.000204723
-0.000510973
-0.000226924
-0.000488678
-0.00024651
-0.00046072
-0.000262182
-0.000426515
-0.000272435
-0.000385905
-0.000275687
-0.000339351
-0.000270498
-0.00028818
-0.000255843
-0.000234634
-0.000231533
-0.000181694
-0.000198564
-0.000132612
-0.000159295
-9.01739e-05
-0.000117262
-5.59612e-05
-7.64623e-05
-3.00765e-05
-4.02898e-05
-1.15708e-05
-1.06582e-05
8.71684e-07
1.19811e-05
8.37868e-06
2.8186e-05
1.19444e-05
3.87214e-05
1.24079e-05
4.44412e-05
1.06261e-05
4.60754e-05
7.51501e-06
4.40819e-05
4.04614e-06
3.83884e-05
1.21909e-06
2.82039e-05
1.20148e-05
1.58124e-06
-1.40499e-05
2.85849e-06
-2.58217e-05
1.61389e-06
-2.41716e-05
-3.14374e-06
-1.32822e-05
-1.18001e-05
2.88868e-06
-2.45445e-05
2.15634e-05
-4.16839e-05
4.15099e-05
-6.37811e-05
6.27584e-05
-9.14139e-05
8.58884e-05
-0.000124781
0.000111233
-0.000163331
0.000138303
-0.000205665
0.000165672
-0.000249787
0.000191351
-0.000293597
0.000213414
-0.000335347
0.000230502
-0.000373839
0.000241974
-0.000408401
0.000247802
-0.000438752
0.000248348
-0.00046487
0.000244186
-0.000486915
0.000235988
-0.000505168
0.000224447
-0.00051999
0.000210227
-0.000531787
0.000193926
-0.000540979
0.000176058
-0.000547977
0.000157042
-0.000553164
0.000137201
-0.000556884
0.00011677
-0.000559436
9.59058e-05
-0.000561073
7.46982e-05
-0.000562003
5.31796e-05
-0.000562413
3.13344e-05
-0.000562508
9.08636e-06
-0.000562304
-1.33955e-05
-0.000561812
-3.6264e-05
-0.000561103
-5.96843e-05
-0.000560165
-8.36764e-05
-0.000558902
-0.00010826
-0.000557117
-0.000133411
-0.000554481
-0.000159037
-0.0005505
-0.000184934
-0.000544484
-0.000210739
-0.000535531
-0.000235877
-0.000522545
-0.000259496
-0.000504301
-0.000280426
-0.000479573
-0.000297162
-0.00044735
-0.000307911
-0.000407113
-0.000310734
-0.00035915
-0.000303806
-0.00030487
-0.000285813
-0.000247003
-0.000256431
-0.000189384
-0.000216915
-0.000136292
-0.000170353
-9.13438e-05
-0.000121411
-5.63785e-05
-7.52551e-05
-3.11152e-05
-3.59216e-05
-1.39745e-05
-5.15958e-06
-3.02023e-06
1.72317e-05
3.23379e-06
3.24674e-05
5.94287e-06
4.17321e-05
6.09388e-06
4.59244e-05
4.63755e-06
4.55382e-05
2.54062e-06
4.04854e-05
7.39365e-07
3.00051e-05
1.27541e-05
8.50992e-07
-1.49009e-05
1.01932e-07
-2.50726e-05
-4.03652e-06
-2.00331e-05
-1.23379e-05
-4.98083e-06
-2.50279e-05
1.55787e-05
-4.22844e-05
3.882e-05
-6.4493e-05
6.37185e-05
-9.21375e-05
9.0403e-05
-0.000125423
0.000119174
-0.000163857
0.000149668
-0.000206078
0.000180524
-0.000250066
0.000209659
-0.00029364
0.000234925
-0.000334951
0.000254726
-0.000372722
0.000268273
-0.000406236
0.000275488
-0.000435196
0.000276762
-0.000459601
0.000272753
-0.000479659
0.000264244
-0.000495728
0.000252056
-0.00050826
0.000236979
-0.000517759
0.000219725
-0.000524735
0.000200902
-0.000529673
0.000180996
-0.000533011
0.000160381
-0.00053513
0.00013932
-0.000536347
0.000117987
-0.00053692
9.64786e-05
-0.000537054
7.48325e-05
-0.000536916
5.30412e-05
-0.000536651
3.10696e-05
-0.000536436
8.87106e-06
-0.000536266
-1.35652e-05
-0.00053618
-3.63503e-05
-0.00053628
-5.95836e-05
-0.000536616
-8.3341e-05
-0.000537189
-0.000107687
-0.000537937
-0.000132663
-0.0005387
-0.000158275
-0.000539173
-0.00018446
-0.000538858
-0.000211054
-0.000537004
-0.000237731
-0.000532569
-0.00026393
-0.000524217
-0.000288779
-0.000510367
-0.000311011
-0.000489348
-0.000328929
-0.000459654
-0.000340428
-0.000420314
-0.000343146
-0.000371353
-0.000334774
-0.000314225
-0.000313558
-0.000252177
-0.000278963
-0.000190048
-0.000232482
-0.000133346
-0.000178112
-8.66177e-05
-0.000121984
-5.18324e-05
-7.0707e-05
-2.80672e-05
-2.89247e-05
-1.2933e-05
2.09745e-06
-3.9023e-06
2.34367e-05
8.22217e-07
3.70076e-05
2.57515e-06
4.41714e-05
2.45481e-06
4.56586e-05
1.44387e-06
4.14963e-05
4.15389e-07
3.10336e-05
1.31695e-05
-2.52222e-07
-1.46487e-05
-3.54779e-06
-2.17771e-05
-1.11102e-05
-1.24708e-05
-2.33114e-05
7.22035e-06
-4.02543e-05
3.25216e-05
-6.21309e-05
6.06965e-05
-8.92728e-05
9.08604e-05
-0.000121872
0.000123002
-0.000159543
0.000156844
-0.000201052
0.000191177
-0.00024444
0.000223912
-0.000287477
0.000252696
-0.000328195
0.000275643
-0.000365196
0.000291727
-0.00039768
0.000300757
-0.000425316
0.000303123
-0.000448111
0.000299558
-0.000466323
0.000290965
-0.000480386
0.000278307
-0.000490847
0.000262518
-0.000498306
0.000244438
-0.000503357
0.000224776
-0.000506551
0.000204095
-0.000508368
0.000182813
-0.000509206
0.000161219
-0.000509381
0.000139496
-0.000509136
0.000117741
-0.000508648
9.59906e-05
-0.000508049
7.42339e-05
-0.000507442
5.2434e-05
-0.000506915
3.05427e-05
-0.000506564
8.52009e-06
-0.000506403
-1.37258e-05
-0.000506482
-3.62718e-05
-0.000506885
-5.91799e-05
-0.000507694
-8.25329e-05
-0.000508975
-0.000106405
-0.000510773
-0.000130865
-0.000513082
-0.000155966
-0.000515807
-0.000181735
-0.000518709
-0.000208152
-0.000521334
-0.000235105
-0.000522938
-0.000262327
-0.00052241
-0.000289307
-0.000518234
-0.000315187
-0.000508525
-0.000338639
-0.000491168
-0.000357785
-0.000464125
-0.000370189
-0.000425906
-0.000372993
-0.000376182
-0.000363282
-0.000316421
-0.000338724
-0.00025042
-0.000298483
-0.000184191
-0.000244341
-0.000124663
-0.000181512
-7.73047e-05
-0.000118065
-4.38969e-05
-6.23325e-05
-2.25178e-05
-1.92817e-05
-9.84976e-06
1.07687e-05
-2.93522e-06
3.0093e-05
2.59712e-07
4.09765e-05
1.1661e-06
4.47522e-05
8.8375e-07
4.17786e-05
2.89463e-07
3.16279e-05
1.3459e-05
-1.72733e-06
-1.29214e-05
-8.05934e-06
-1.54451e-05
-1.93656e-05
-1.16452e-06
-3.55797e-05
2.34345e-05
-5.67568e-05
5.36987e-05
-8.3021e-05
8.69607e-05
-0.000114499
0.000122338
-0.000150916
0.000159419
-0.000191238
0.000197166
-0.000233651
0.000233591
-0.000275939
0.000266199
-0.000316018
0.000292775
-0.000352336
0.000311961
-0.000383972
0.000323363
-0.000410534
0.000327318
-0.000432023
0.000324612
-0.000448733
0.000316268
-0.00046117
0.000303402
-0.000469971
0.000287107
-0.000475822
0.00026837
-0.000479398
0.000248013
-0.000481304
0.000226682
-0.000482052
0.000204844
-0.00048205
0.000182811
-0.000481602
0.000160771
-0.000480924
0.000138817
-0.00048016
0.000116977
-0.000479403
9.52338e-05
-0.000478712
7.35429e-05
-0.000478128
5.18493e-05
-0.000477684
3.00987e-05
-0.00047742
8.25663e-06
-0.000477349
-1.37974e-05
-0.000477516
-3.61045e-05
-0.000477991
-5.87046e-05
-0.000478855
-8.16694e-05
-0.000480198
-0.000105062
-0.000482119
-0.000128944
-0.000484702
-0.000153383
-0.000487997
-0.00017844
-0.00049198
-0.00020417
-0.000496489
-0.000230596
-0.00050115
-0.000257666
-0.000505268
-0.000285189
-0.000507725
-0.00031273
-0.000506897
-0.000339467
-0.00050065
-0.000364032
-0.00048647
-0.000384369
-0.000461789
-0.000397674
-0.000424553
-0.000400518
-0.000374024
-0.000389253
-0.000311676
-0.000360831
-0.000241954
-0.000314064
-0.000172261
-0.000251204
-0.000111117
-0.00017921
-6.47091e-05
-0.00010874
-3.4034e-05
-4.99568e-05
-1.58293e-05
-7.43596e-06
-5.89904e-06
2.01627e-05
-1.08632e-06
3.61638e-05
6.90699e-07
4.29752e-05
8.32663e-07
4.16367e-05
3.50368e-07
3.21102e-05
1.38093e-05
-3.5346e-06
-9.38677e-06
-1.32377e-05
-5.74192e-06
-2.83079e-05
1.39056e-05
-4.84717e-05
4.35983e-05
-7.3593e-05
7.882e-05
-0.000103671
0.000117038
-0.000138496
0.000157164
-0.000177264
0.000198186
-0.000218393
0.000238295
-0.00025976
0.000274959
-0.000299206
0.000305645
-0.000335008
0.000328577
-0.000366082
0.000343035
-0.000391938
0.000349219
-0.000412545
0.000347925
-0.000428211
0.000340278
-0.000439496
0.000327553
-0.000447112
0.000311018
-0.000451829
0.000291824
-0.000454388
0.000270929
-0.000455446
0.000249072
-0.000455543
0.000226779
-0.000455088
0.000204389
-0.000454372
0.000182095
-0.000453583
0.000159983
-0.000452835
0.000138068
-0.000452181
0.000116324
-0.000451645
9.46975e-05
-0.000451231
7.31289e-05
-0.000450939
5.15572e-05
-0.000450769
2.9929e-05
-0.000450722
8.2093e-06
-0.000450815
-1.37036e-05
-0.000451085
-3.58347e-05
-0.000451579
-5.8211e-05
-0.000452365
-8.08829e-05
-0.000453533
-0.000103894
-0.000455187
-0.00012729
-0.000457446
-0.000151124
-0.000460427
-0.000175459
-0.000464228
-0.000200369
-0.000468887
-0.000225937
-0.00047432
-0.000252233
-0.000480231
-0.000279278
-0.000485997
-0.000306964
-0.000490525
-0.000334939
-0.000492132
-0.000362425
-0.000488492
-0.000388009
-0.000476733
-0.000409433
-0.000453785
-0.000423466
-0.000417036
-0.000426003
-0.000365335
-0.000412532
-0.000300219
-0.000379179
-0.000226991
-0.000324433
-0.000154757
-0.000251443
-9.37283e-05
-0.000169769
-5.02493e-05
-9.34358e-05
-2.36686e-05
-3.40167e-05
-9.15632e-06
5.65044e-06
-2.06628e-06
2.90738e-05
7.07907e-07
4.0201e-05
1.13444e-06
4.12102e-05
5.45867e-07
3.26987e-05
1.43552e-05
-5.55327e-06
-3.8335e-06
-1.86719e-05
7.37674e-06
-3.74507e-05
3.26844e-05
-6.12171e-05
6.73647e-05
-8.97323e-05
0.000107335
-0.000122771
0.000150077
-0.000159725
0.000194118
-0.000199305
0.000237767
-0.000239584
0.000278574
-0.000278399
0.000313773
-0.000313867
0.000341113
-0.000344706
0.000359416
-0.00037028
0.000368609
-0.000390483
0.000369422
-0.000405607
0.000363049
-0.000416241
0.000350911
-0.000423151
0.000334464
-0.000427177
0.000315044
-0.000429124
0.000293771
-0.000429697
0.000271502
-0.000429462
0.000248836
-0.000428832
0.000226149
-0.000428086
0.000203643
-0.000427391
0.000181399
-0.000426828
0.00015942
-0.000426425
0.000137666
-0.000426177
0.000116075
-0.000426062
9.45827e-05
-0.000426056
7.31237e-05
-0.000426141
5.16418e-05
-0.000426301
3.00892e-05
-0.000426523
8.43068e-06
-0.000426825
-1.34017e-05
-0.000427231
-3.54282e-05
-0.000427773
-5.76685e-05
-0.000428504
-8.01527e-05
-0.000429492
-0.000102906
-0.000430827
-0.000125955
-0.000432619
-0.000149332
-0.000434997
-0.00017308
-0.000438104
-0.000197263
-0.000442073
-0.000221968
-0.000446997
-0.000247308
-0.000452865
-0.000273411
-0.000459458
-0.000300371
-0.00046622
-0.000328177
-0.000472089
-0.000356555
-0.000475333
-0.000384766
-0.00047345
-0.000411316
-0.000463242
-0.000433674
-0.000441164
-0.000448081
-0.000404084
-0.000449611
-0.00035052
-0.000432743
-0.000282243
-0.00039271
-0.000205791
-0.000327895
-0.000132405
-0.000243155
-7.38631e-05
-0.000151977
-3.55045e-05
-7.23753e-05
-1.40865e-05
-1.57676e-05
-3.52865e-06
1.85159e-05
7.31397e-07
3.5941e-05
1.54703e-06
4.03945e-05
7.98109e-07
3.34477e-05
1.51533e-05
-7.61897e-06
3.78547e-06
-2.40257e-05
2.37835e-05
-4.61757e-05
5.48343e-05
-7.30271e-05
9.42161e-05
-0.000104193
0.000138501
-0.000139182
0.000185066
-0.000176997
0.000231933
-0.000215999
0.000276768
-0.000254128
0.000316704
-0.000289398
0.000349042
-0.000320309
0.000372025
-0.000346025
0.000385132
-0.000366312
0.000388897
-0.000381405
0.000384515
-0.000391882
0.000373526
-0.000398541
0.00035757
-0.000402274
0.000338197
-0.000403948
0.000316718
-0.000404316
0.000294139
-0.000403974
0.00027116
-0.000403346
0.000248209
-0.000402705
0.000225509
-0.000402201
0.00020314
-0.000401896
0.000181093
-0.000401793
0.000159318
-0.000401869
0.000137741
-0.000402085
0.000116291
-0.000402403
9.49008e-05
-0.000402791
7.35122e-05
-0.000403227
5.20774e-05
-0.000403695
3.05569e-05
-0.000404182
8.9179e-06
-0.000404704
-1.28796e-05
-0.000405278
-3.48544e-05
-0.000405924
-5.70219e-05
-0.000406678
-7.93986e-05
-0.000407588
-0.000101997
-0.000408715
-0.000124828
-0.000410143
-0.000147904
-0.000411977
-0.000171246
-0.000414347
-0.000194892
-0.00041741
-0.000218905
-0.00042133
-0.000243388
-0.000426253
-0.000268488
-0.000432233
-0.000294391
-0.000439131
-0.000321279
-0.00044645
-0.000349237
-0.000453141
-0.000378074
-0.000457397
-0.00040706
-0.000456518
-0.000434554
-0.000446961
-0.000457638
-0.000424726
-0.000471846
-0.000386233
-0.000471236
-0.000329833
-0.00044911
-0.000257884
-0.000399844
-0.000178794
-0.000322245
-0.000106415
-0.000224357
-5.33677e-05
-0.000125422
-2.20978e-05
-4.70375e-05
-6.37444e-06
2.79257e-06
2.18477e-07
2.9348e-05
1.80145e-06
3.88115e-05
1.02272e-06
3.42264e-05
1.6176e-05
-9.56876e-06
1.33542e-05
-2.8959e-05
4.31737e-05
-5.39519e-05
7.98273e-05
-8.32121e-05
0.000123476
-0.000116172
0.000171462
-0.000152066
0.000220959
-0.000189582
0.00026945
-0.00022689
0.000314075
-0.000261991
0.000351805
-0.000293199
0.00038025
-0.000319431
0.000398257
-0.000340264
0.000405965
-0.000355818
0.000404451
-0.000366616
0.000395313
-0.000373454
0.000380364
-0.000377258
0.000361374
-0.000378947
0.000339887
-0.000379329
0.000317099
-0.000379035
0.000293846
-0.000378515
0.000270639
-0.000378044
0.000247738
-0.000377765
0.000225229
-0.000377724
0.000203099
-0.000377912
0.000181281
-0.000378289
0.000159695
-0.000378808
0.00013826
-0.000379421
0.000116905
-0.000380092
9.5572e-05
-0.000380794
7.42138e-05
-0.000381509
5.27922e-05
-0.000382228
3.12756e-05
-0.000382946
9.63657e-06
-0.000383676
-1.215e-05
-0.000384429
-3.41008e-05
-0.000385222
-5.6229e-05
-0.000386077
-7.85443e-05
-0.000387021
-0.000101052
-0.000388094
-0.000123755
-0.000389344
-0.000146653
-0.000390841
-0.000169749
-0.000392679
-0.000193054
-0.000394984
-0.0002166
-0.000397918
-0.000240454
-0.000401672
-0.000264734
-0.000406439
-0.000289624
-0.000412343
-0.000315375
-0.000419317
-0.000342263
-0.000426915
-0.000370476
-0.000434076
-0.000399899
-0.000438865
-0.000429764
-0.000438317
-0.000458186
-0.000428491
-0.000481672
-0.000404929
-0.000494798
-0.00036371
-0.000490329
-0.000303317
-0.000460237
-0.000227298
-0.000398264
-0.000146861
-0.000304794
-7.87553e-05
-0.000193528
-3.44367e-05
-9.1356e-05
-1.13593e-05
-2.02849e-05
-1.26047e-06
1.92492e-05
1.67886e-06
3.58722e-05
1.15324e-06
3.4752e-05
1.73293e-05
-1.12878e-05
2.46421e-05
-3.31412e-05
6.5027e-05
-6.03358e-05
0.000107022
-9.12463e-05
0.000154387
-0.000125119
0.000205335
-0.000160946
0.000256786
-0.000197207
0.000305711
-0.00023203
0.000348898
-0.000263619
0.000383394
-0.00029064
0.000407271
-0.000312413
0.000420031
-0.000328879
0.000422431
-0.000340455
0.000416026
-0.000347886
0.000402745
-0.000352106
0.000384583
-0.000354074
0.000363343
-0.000354653
0.000340466
-0.000354528
0.000316974
-0.000354181
0.000293499
-0.000353906
0.000270364
-0.000353849
0.000247681
-0.000354051
0.000225431
-0.000354494
0.000203541
-0.000355128
0.000181916
-0.000355899
0.000160466
-0.000356756
0.000139117
-0.00035766
0.000117808
-0.000358582
9.64942e-05
-0.000359506
7.51379e-05
-0.000360424
5.37101e-05
-0.000361334
3.21856e-05
-0.00036224
1.05422e-05
-0.00036315
-1.12392e-05
-0.000364078
-3.31735e-05
-0.000365034
-5.52729e-05
-0.000366032
-7.75456e-05
-0.00036709
-9.99951e-05
-0.000368225
-0.00012262
-0.000369462
-0.000145416
-0.000370836
-0.000168375
-0.0003724
-0.00019149
-0.000374233
-0.000214767
-0.000376454
-0.000238233
-0.000379229
-0.000261959
-0.000382772
-0.000286081
-0.000387321
-0.000310826
-0.000393065
-0.000336519
-0.000400005
-0.000363536
-0.000407729
-0.000392175
-0.000415118
-0.000422375
-0.00042004
-0.000453264
-0.000419165
-0.000482547
-0.000408071
-0.000505893
-0.000381838
-0.000516562
-0.000336383
-0.000505692
-0.000270812
-0.000463835
-0.000190852
-0.000384754
-0.000111674
-0.000272706
-5.2234e-05
-0.000150796
-1.9046e-05
-5.34728e-05
-4.01241e-06
4.21555e-06
1.04948e-06
3.08103e-05
1.15599e-06
3.46455e-05
1.84853e-05
-1.26265e-05
3.72686e-05
-3.63213e-05
8.87218e-05
-6.50126e-05
0.000135713
-9.68009e-05
0.000186175
-0.000130758
0.000239291
-0.000165691
0.000291719
-0.000199981
0.000340001
-0.000231851
0.000380767
-0.000259768
0.000411311
-0.000282765
0.000430268
-0.000300527
0.000437793
-0.000313298
0.000435202
-0.000321724
0.000424452
-0.000326701
0.000407722
-0.00032921
0.000387092
-0.000330166
0.000364299
-0.000330316
0.000340616
-0.000330193
0.000316851
-0.000330126
0.000293432
-0.000330278
0.000270516
-0.000330694
0.000248096
-0.000331352
0.000226089
-0.000332198
0.000204388
-0.000333173
0.000182891
-0.000334224
0.000161517
-0.00033531
0.000140203
-0.000336405
0.000118903
-0.000337492
9.75817e-05
-0.000338566
7.62122e-05
-0.000339628
5.47715e-05
-0.000340681
3.3239e-05
-0.000341735
1.15957e-05
-0.000342799
-1.01755e-05
-0.000343883
-3.20891e-05
-0.000344998
-5.41577e-05
-0.000346154
-7.639e-05
-0.000347358
-9.87906e-05
-0.000348619
-0.000121359
-0.000349945
-0.00014409
-0.000351346
-0.000166973
-0.000352843
-0.000189994
-0.00035447
-0.00021314
-0.000356294
-0.000236409
-0.000358426
-0.000259827
-0.000361037
-0.00028347
-0.000364365
-0.000307498
-0.000368696
-0.000332188
-0.000374279
-0.000357952
-0.000381171
-0.000385284
-0.000388956
-0.00041459
-0.000396395
-0.000445826
-0.000401051
-0.000477891
-0.000399108
-0.000507835
-0.000385573
-0.000530097
-0.000355107
-0.000536158
-0.000303775
-0.000515167
-0.000232098
-0.000456431
-0.000149536
-0.000355268
-7.62368e-05
-0.000224095
-2.99561e-05
-9.97536e-05
-8.20221e-06
-1.75383e-05
-1.45522e-07
2.27536e-05
1.03045e-06
3.34695e-05
1.95157e-05
-1.34925e-05
5.07611e-05
-3.83439e-05
0.000113573
-6.7815e-05
0.000165184
-9.97472e-05
0.000218107
-0.000133061
0.000272605
-0.000166452
0.000325111
-0.000198304
0.000371853
-0.000227012
0.000409476
-0.000251343
0.000435642
-0.000270672
0.000449597
-0.000284994
0.000452115
-0.000294792
0.000445
-0.000300871
0.000430531
-0.000304197
0.000411048
-0.000305724
0.000388619
-0.000306267
0.000364842
-0.000306425
0.000340774
-0.000306581
0.000317007
-0.00030693
0.000293781