/*--------------------------------*- C++ -*----------------------------------*\
| =========                 |                                                 |
| \\      /  F ield         | OpenFOAM: The Open Source CFD Toolbox           |
|  \\    /   O peration     | Version:  2406                                  |
|   \\  /    A nd           | Website:  www.openfoam.com                      |
|    \\/     M anipulation  |                                                 |
\*---------------------------------------------------------------------------*/
FoamFile
{
    version     2.0;
    format      ascii;
    arch        "LSB;label=32;scalar=64";
    class       volVectorField;
    location    "37.95";
    object      U;
}
// * * * * * * * * * * * * * * * * * * * * * * * * * * * * * * * * * * * * * //

dimensions      [0 1 -1 0 0 0 0];

internalField   nonuniform List<vector> 
14400
(
(-6.30159e-06 6.20397e-06 0)
(1.68659e-05 -1.15539e-05 0)
(0.000123584 -3.43131e-05 0)
(0.0003087 -5.25553e-05 0)
(0.000552625 -6.50332e-05 0)
(0.000833618 -7.16464e-05 0)
(0.00113019 -7.30304e-05 0)
(0.00142352 -7.00817e-05 0)
(0.00169844 -6.38687e-05 0)
(0.00194396 -5.55141e-05 0)
(0.00215342 -4.61064e-05 0)
(0.00232418 -3.66143e-05 0)
(0.00245708 -2.7822e-05 0)
(0.00255566 -2.02887e-05 0)
(0.00262528 -1.43314e-05 0)
(0.00267216 -1.00247e-05 0)
(0.0027026 -7.27237e-06 0)
(0.00272208 -5.91957e-06 0)
(0.00273466 -5.5621e-06 0)
(0.00274277 -5.74087e-06 0)
(0.00274686 -5.93452e-06 0)
(0.00274574 -5.43247e-06 0)
(0.00273678 -3.93593e-06 0)
(0.00271583 -1.34323e-06 0)
(0.00267776 2.4792e-06 0)
(0.00261698 7.62149e-06 0)
(0.00252758 1.41194e-05 0)
(0.00240353 2.19869e-05 0)
(0.00223873 3.12397e-05 0)
(0.00202698 4.1909e-05 0)
(0.00176195 5.4043e-05 0)
(0.00143715 6.77001e-05 0)
(0.00104592 8.2936e-05 0)
(0.000581489 9.97897e-05 0)
(3.71148e-05 0.000118271 0)
(-0.000593774 0.000138349 0)
(-0.00131737 0.000159949 0)
(-0.00213927 0.000182943 0)
(-0.00306422 0.00020715 0)
(-0.0040959 0.000232332 0)
(-0.00523661 0.000258198 0)
(-0.00648712 0.000284402 0)
(-0.00784636 0.000310549 0)
(-0.00931129 0.000336197 0)
(-0.0108767 0.000360866 0)
(-0.0125351 0.000384046 0)
(-0.0142766 0.000405202 0)
(-0.0160891 0.000423786 0)
(-0.0179579 0.000439246 0)
(-0.0198664 0.00045103 0)
(-0.0217955 0.000458597 0)
(-0.0237244 0.000461426 0)
(-0.0256305 0.000459019 0)
(-0.0274898 0.000450909 0)
(-0.0292768 0.000436672 0)
(-0.0309653 0.00041593 0)
(-0.0325285 0.000388361 0)
(-0.0339394 0.00035372 0)
(-0.0351711 0.000311839 0)
(-0.0361973 0.000262554 0)
(-0.0369935 0.000206075 0)
(-0.0375365 0.000144095 0)
(-0.0378027 7.73597e-05 0)
(-0.0377718 3.41312e-06 0)
(-0.0374307 -7.72078e-05 0)
(-0.0367684 -0.000161729 0)
(-0.0357766 -0.000248636 0)
(-0.0344533 -0.000336575 0)
(-0.0328022 -0.000423858 0)
(-0.0308332 -0.000508603 0)
(-0.0285632 -0.000588774 0)
(-0.0260154 -0.000662245 0)
(-0.0232203 -0.000726882 0)
(-0.0202147 -0.000780641 0)
(-0.0170418 -0.000821662 0)
(-0.0137501 -0.000848382 0)
(-0.0103923 -0.000859633 0)
(-0.00702399 -0.000854733 0)
(-0.00370232 -0.000833557 0)
(-0.000483901 -0.000796578 0)
(0.00257686 -0.000744875 0)
(0.00542964 -0.0006801 0)
(0.00802997 -0.00060441 0)
(0.0103407 -0.000520358 0)
(0.0123333 -0.000430755 0)
(0.0139888 -0.000338517 0)
(0.0152977 -0.00024651 0)
(0.0162607 -0.000157375 0)
(0.0168877 -7.33377e-05 0)
(0.0171977 3.3593e-06 0)
(0.0172153 6.95983e-05 0)
(0.0169694 0.000125266 0)
(0.0164962 0.000172329 0)
(0.0158348 0.000210328 0)
(0.0150226 0.000238375 0)
(0.0140964 0.000257079 0)
(0.0130916 0.000267467 0)
(0.0120404 0.000270623 0)
(0.0109716 0.000267697 0)
(0.00990955 0.00025985 0)
(0.00887438 0.000248199 0)
(0.00788186 0.00023378 0)
(0.00694368 0.000217524 0)
(0.00606777 0.00020024 0)
(0.00525879 0.000182615 0)
(0.00451857 0.000165211 0)
(0.00384661 0.000148476 0)
(0.00324054 0.000132753 0)
(0.00269662 0.000118282 0)
(0.00221012 0.000105196 0)
(0.00177593 9.34981e-05 0)
(0.00138911 8.30296e-05 0)
(0.00104562 7.34324e-05 0)
(0.000743223 6.4114e-05 0)
(0.000482295 5.42411e-05 0)
(0.000266548 4.2838e-05 0)
(0.000103095 2.90576e-05 0)
(9.33811e-07 1.26756e-05 0)
(-3.56149e-05 -4.15029e-06 0)
(-1.36234e-05 -1.36424e-05 0)
(1.04852e-05 -1.60518e-05 0)
(0.00015191 -0.000155995 0)
(0.000469376 -0.000323942 0)
(0.000955497 -0.00046294 0)
(0.0015656 -0.000559963 0)
(0.00225548 -0.000612622 0)
(0.00297861 -0.000624046 0)
(0.00369277 -0.000600388 0)
(0.00436296 -0.000549528 0)
(0.00496289 -0.000480067 0)
(0.00547553 -0.000400525 0)
(0.00589277 -0.000318633 0)
(0.00621431 -0.000240777 0)
(0.00644605 -0.000171629 0)
(0.00659812 -0.00011398 0)
(0.00668284 -6.87529e-05 0)
(0.00671267 -3.52068e-05 0)
(0.00669852 -1.13035e-05 0)
(0.00664833 6.09898e-06 0)
(0.00656604 2.07973e-05 0)
(0.00645135 3.67233e-05 0)
(0.00629946 5.77098e-05 0)
(0.00610153 8.67945e-05 0)
(0.00584566 0.000126212 0)
(0.00551766 0.000177513 0)
(0.0051017 0.000241625 0)
(0.00458105 0.000319018 0)
(0.00393856 0.000409911 0)
(0.00315685 0.000514444 0)
(0.00221849 0.000632781 0)
(0.00110609 0.000765114 0)
(-0.000197646 0.000911612 0)
(-0.00170962 0.00107231 0)
(-0.00344604 0.00124701 0)
(-0.00542194 0.00143515 0)
(-0.00765058 0.00163575 0)
(-0.0101429 0.00184734 0)
(-0.0129066 0.00206793 0)
(-0.015946 0.00229502 0)
(-0.0192608 0.00252557 0)
(-0.0228458 0.00275605 0)
(-0.0266906 0.00298248 0)
(-0.030779 0.00320052 0)
(-0.0350889 0.00340554 0)
(-0.0395923 0.00359273 0)
(-0.0442556 0.00375722 0)
(-0.0490396 0.00389416 0)
(-0.0539003 0.00399888 0)
(-0.0587892 0.00406699 0)
(-0.0636546 0.00409445 0)
(-0.0684417 0.00407769 0)
(-0.073094 0.00401366 0)
(-0.0775537 0.00389989 0)
(-0.0817632 0.00373454 0)
(-0.0856654 0.00351643 0)
(-0.0892046 0.00324507 0)
(-0.0923275 0.00292067 0)
(-0.0949836 0.0025442 0)
(-0.0971261 0.00211743 0)
(-0.0987125 0.00164289 0)
(-0.0997046 0.00112411 0)
(-0.10007 0.00056655 0)
(-0.0997857 -2.36278e-05 0)
(-0.0988293 -0.000642831 0)
(-0.0971876 -0.00128431 0)
(-0.0948572 -0.00193867 0)
(-0.0918423 -0.00259643 0)
(-0.088156 -0.00324722 0)
(-0.0838205 -0.00387995 0)
(-0.0788677 -0.00448285 0)
(-0.0733396 -0.00504379 0)
(-0.0672881 -0.00555051 0)
(-0.060775 -0.00599103 0)
(-0.0538715 -0.00635402 0)
(-0.0466576 -0.00662928 0)
(-0.0392209 -0.00680824 0)
(-0.0316552 -0.00688437 0)
(-0.0240591 -0.00685364 0)
(-0.016534 -0.00671491 0)
(-0.00918155 -0.00647012 0)
(-0.00210146 -0.00612445 0)
(0.00461106 -0.00568628 0)
(0.0108679 -0.00516697 0)
(0.0165907 -0.0045805 0)
(0.0217126 -0.00394291 0)
(0.0261808 -0.0032717 0)
(0.0299577 -0.00258505 0)
(0.0330221 -0.00190105 0)
(0.0353693 -0.00123696 0)
(0.0370105 -0.000608683 0)
(0.0379732 -3.08886e-05 0)
(0.0383004 0.000486458 0)
(0.038047 0.000937853 0)
(0.0372756 0.00131798 0)
(0.036057 0.00162384 0)
(0.0344672 0.00185633 0)
(0.0325829 0.00201897 0)
(0.0304794 0.00211731 0)
(0.0282281 0.00215837 0)
(0.0258945 0.00215014 0)
(0.0235364 0.0021011 0)
(0.0212034 0.00201971 0)
(0.018936 0.0019141 0)
(0.0167657 0.00179176 0)
(0.0147156 0.00165936 0)
(0.0128011 0.00152264 0)
(0.0110305 0.00138639 0)
(0.00940642 0.00125443 0)
(0.00792665 0.0011296 0)
(0.00658559 0.00101368 0)
(0.00537554 0.000907238 0)
(0.00428823 0.000809441 0)
(0.00331665 0.000717802 0)
(0.00245685 0.000628077 0)
(0.00170975 0.000534424 0)
(0.00108228 0.000430289 0)
(0.000587059 0.000310514 0)
(0.00023833 0.000175843 0)
(4.65173e-05 4.10206e-05 0)
(-3.0298e-06 -3.4633e-05 0)
(3.16497e-05 -0.000117338 0)
(0.000310816 -0.000469655 0)
(0.000822866 -0.000838838 0)
(0.00155521 -0.00114297 0)
(0.00244177 -0.00135589 0)
(0.00342652 -0.00147087 0)
(0.00444865 -0.00149309 0)
(0.00545217 -0.001435 0)
(0.00638989 -0.00131343 0)
(0.00722565 -0.00114728 0)
(0.00793508 -0.00095553 0)
(0.00850534 -0.000755599 0)
(0.00893378 -0.000562034 0)
(0.00922586 -0.000385615 0)
(0.00939267 -0.000232902 0)
(0.00944816 -0.000106204 0)
(0.00940643 -3.88619e-06 0)
(0.00927941 7.89758e-05 0)
(0.00907494 0.000149655 0)
(0.00879537 0.000216934 0)
(0.00843694 0.000289964 0)
(0.00798979 0.000377269 0)
(0.00743851 0.000486265 0)
(0.0067632 0.000622738 0)
(0.00594059 0.000790682 0)
(0.00494513 0.000992536 0)
(0.00374998 0.00122957 0)
(0.00232776 0.00150234 0)
(0.000651038 0.001811 0)
(-0.00130719 0.00215549 0)
(-0.00357316 0.00253556 0)
(-0.00617178 0.00295057 0)
(-0.00912603 0.00339928 0)
(-0.0124561 0.00387959 0)
(-0.0161785 0.00438827 0)
(-0.020305 0.00492088 0)
(-0.0248413 0.0054716 0)
(-0.0297865 0.00603329 0)
(-0.0351319 0.0065975 0)
(-0.0408602 0.00715462 0)
(-0.0469454 0.00769406 0)
(-0.0533523 0.0082045 0)
(-0.0600369 0.00867418 0)
(-0.0669465 0.00909124 0)
(-0.0740212 0.00944406 0)
(-0.0811944 0.00972162 0)
(-0.0883944 0.00991377 0)
(-0.0955459 0.0100116 0)
(-0.102571 0.0100075 0)
(-0.109393 0.00989552 0)
(-0.115933 0.00967134 0)
(-0.122116 0.0093323 0)
(-0.127872 0.00887742 0)
(-0.133132 0.00830731 0)
(-0.137833 0.00762411 0)
(-0.14192 0.00683139 0)
(-0.14534 0.00593406 0)
(-0.148049 0.00493831 0)
(-0.150008 0.00385156 0)
(-0.151185 0.00268247 0)
(-0.151555 0.00144072 0)
(-0.151097 0.000136868 0)
(-0.149802 -0.00121629 0)
(-0.147665 -0.00260393 0)
(-0.144687 -0.00401185 0)
(-0.140878 -0.00542437 0)
(-0.136253 -0.00682383 0)
(-0.13084 -0.00819123 0)
(-0.124672 -0.00950652 0)
(-0.11779 -0.0107489 0)
(-0.110246 -0.0118969 0)
(-0.102099 -0.0129293 0)
(-0.0934187 -0.0138252 0)
(-0.0842818 -0.0145647 0)
(-0.0747743 -0.0151299 0)
(-0.0649897 -0.0155054 0)
(-0.0550282 -0.0156792 0)
(-0.0449953 -0.0156431 0)
(-0.0350004 -0.0153938 0)
(-0.025155 -0.0149331 0)
(-0.0155702 -0.0142682 0)
(-0.0063552 -0.013412 0)
(0.00238598 -0.0123828 0)
(0.0105563 -0.0112036 0)
(0.0180682 -0.00990201 0)
(0.024846 -0.00850893 0)
(0.0308278 -0.0070576 0)
(0.0359668 -0.00558242 0)
(0.0402331 -0.0041177 0)
(0.0436139 -0.00269625 0)
(0.0461152 -0.00134767 0)
(0.047761 -9.84296e-05 0)
(0.048591 0.00102877 0)
(0.0486594 0.00201654 0)
(0.0480355 0.00285444 0)
(0.0467998 0.00353723 0)
(0.0450403 0.00406514 0)
(0.0428497 0.00444365 0)
(0.0403218 0.00468271 0)
(0.0375484 0.00479587 0)
(0.0346164 0.0047992 0)
(0.0316048 0.0047103 0)
(0.0285831 0.00454723 0)
(0.02561 0.00432768 0)
(0.022733 0.00406826 0)
(0.0199882 0.00378398 0)
(0.0174012 0.00348791 0)
(0.014988 0.00319096 0)
(0.0127564 0.00290162 0)
(0.0107079 0.00262577 0)
(0.00883903 0.00236627 0)
(0.0071444 0.00212261 0)
(0.00561848 0.00189044 0)
(0.00425833 0.00166158 0)
(0.00306586 0.00142457 0)
(0.00204913 0.00116675 0)
(0.00122221 0.000878499 0)
(0.000599346 0.000561353 0)
(0.000202245 0.000240894 0)
(1.67293e-05 1.00951e-05 0)
(4.83737e-05 -0.000291905 0)
(0.000443389 -0.000946055 0)
(0.00111965 -0.00156975 0)
(0.00205235 -0.00207349 0)
(0.00315184 -0.00242182 0)
(0.00435178 -0.00260485 0)
(0.00558111 -0.0026306 0)
(0.00677494 -0.00251919 0)
(0.00787855 -0.00229827 0)
(0.00884974 -0.00199921 0)
(0.00965954 -0.0016537 0)
(0.0102918 -0.00129096 0)
(0.0107418 -0.00093543 0)
(0.0110134 -0.000605282 0)
(0.0111167 -0.000311561 0)
(0.0110647 -5.80749e-05 0)
(0.0108699 0.000158107 0)
(0.0105422 0.000345618 0)
(0.0100859 0.000517287 0)
(0.00949882 0.000688414 0)
(0.00877146 0.000875049 0)
(0.00788688 0.00109233 0)
(0.00682172 0.00135325 0)
(0.00554732 0.00166795 0)
(0.00403119 0.00204346 0)
(0.00223844 0.00248409 0)
(0.000133036 0.00299194 0)
(-0.00232113 0.00356759 0)
(-0.00515934 0.00421063 0)
(-0.00841521 0.00491977 0)
(-0.0121197 0.00569286 0)
(-0.0163002 0.00652653 0)
(-0.0209789 0.00741576 0)
(-0.026172 0.00835348 0)
(-0.0318874 0.0093303 0)
(-0.0381241 0.0103343 0)
(-0.0448706 0.0113511 0)
(-0.0521037 0.0123638 0)
(-0.0597884 0.0133539 0)
(-0.0678775 0.0143011 0)
(-0.0763122 0.0151842 0)
(-0.0850229 0.0159818 0)
(-0.093931 0.016673 0)
(-0.102951 0.0172381 0)
(-0.111991 0.0176593 0)
(-0.120958 0.0179211 0)
(-0.129759 0.018011 0)
(-0.1383 0.0179195 0)
(-0.146495 0.0176405 0)
(-0.154259 0.017171 0)
(-0.161518 0.0165108 0)
(-0.168201 0.0156627 0)
(-0.174248 0.0146319 0)
(-0.179604 0.0134256 0)
(-0.184224 0.0120527 0)
(-0.18807 0.0105237 0)
(-0.191108 0.00885035 0)
(-0.193314 0.00704557 0)
(-0.194667 0.00512324 0)
(-0.195154 0.00309835 0)
(-0.194765 0.000986901 0)
(-0.193496 -0.00119446 0)
(-0.191346 -0.00342807 0)
(-0.188321 -0.00569323 0)
(-0.18443 -0.0079683 0)
(-0.179689 -0.0102307 0)
(-0.174117 -0.0124562 0)
(-0.16774 -0.0146187 0)
(-0.160591 -0.0166908 0)
(-0.152706 -0.0186437 0)
(-0.144134 -0.0204478 0)
(-0.134928 -0.0220734 0)
(-0.12515 -0.0234909 0)
(-0.11487 -0.0246722 0)
(-0.104167 -0.0255911 0)
(-0.0931282 -0.0262247 0)
(-0.0818467 -0.0265543 0)
(-0.0704237 -0.0265667 0)
(-0.0589651 -0.0262547 0)
(-0.0475809 -0.0256181 0)
(-0.0363826 -0.0246645 0)
(-0.025482 -0.023409 0)
(-0.0149882 -0.0218747 0)
(-0.00500584 -0.0200918 0)
(0.00436723 -0.0180973 0)
(0.0130422 -0.0159336 0)
(0.0209411 -0.0136472 0)
(0.0279987 -0.0112875 0)
(0.0341637 -0.00890493 0)
(0.0394003 -0.00654941 0)
(0.0436889 -0.00426866 0)
(0.0470267 -0.00210733 0)
(0.0494273 -0.000105328 0)
(0.0509222 0.00170444 0)
(0.0515595 0.00329677 0)
(0.0514019 0.00465396 0)
(0.0505256 0.00576664 0)
(0.0490177 0.00663395 0)
(0.0469734 0.00726304 0)
(0.0444922 0.00766824 0)
(0.0416743 0.00786982 0)
(0.0386174 0.0078925 0)
(0.0354127 0.00776385 0)
(0.0321428 0.00751267 0)
(0.0288795 0.00716752 0)
(0.0256823 0.00675549 0)
(0.0225985 0.00630123 0)
(0.0196632 0.00582612 0)
(0.0169007 0.00534764 0)
(0.0143256 0.00487874 0)
(0.011945 0.00442707 0)
(0.00976154 0.00399437 0)
(0.00777531 0.00357582 0)
(0.00598732 0.00316011 0)
(0.00440201 0.00273055 0)
(0.00302927 0.00226824 0)
(0.00188517 0.00175827 0)
(0.000985818 0.0012004 0)
(0.000372192 0.00062447 0)
(3.83214e-05 0.000135524 0)
(6.08188e-05 -0.000523403 0)
(0.000545975 -0.00154892 0)
(0.0013533 -0.00246305 0)
(0.00244344 -0.0031811 0)
(0.00370301 -0.00366548 0)
(0.00505447 -0.00390701 0)
(0.00641752 -0.00391887 0)
(0.0077205 -0.00373045 0)
(0.00890375 -0.00338158 0)
(0.00992162 -0.00291727 0)
(0.0107427 -0.00238288 0)
(0.0113492 -0.00182007 0)
(0.0117346 -0.00126358 0)
(0.0119015 -0.000739009 0)
(0.0118577 -0.000261634 0)
(0.0116133 0.000163805 0)
(0.0111772 0.000542352 0)
(0.0105542 0.000887345 0)
(0.00974255 0.00121825 0)
(0.00873276 0.00155806 0)
(0.00750702 0.00193072 0)
(0.00603949 0.00235867 0)
(0.00429747 0.00286104 0)
(0.00224299 0.00345252 0)
(-0.000165436 0.00414313 0)
(-0.00297101 0.00493863 0)
(-0.00621704 0.00584122 0)
(-0.00994546 0.00685043 0)
(-0.0141954 0.00796362 0)
(-0.0190018 0.00917615 0)
(-0.0243935 0.0104811 0)
(-0.030392 0.0118689 0)
(-0.0370088 0.0133267 0)
(-0.0442443 0.0148377 0)
(-0.0520856 0.0163816 0)
(-0.0605054 0.0179339 0)
(-0.0694614 0.0194669 0)
(-0.0788962 0.0209503 0)
(-0.0887378 0.0223518 0)
(-0.0989017 0.0236388 0)
(-0.109293 0.0247792 0)
(-0.119809 0.0257429 0)
(-0.130342 0.0265026 0)
(-0.140785 0.0270354 0)
(-0.151032 0.0273228 0)
(-0.160981 0.0273517 0)
(-0.17054 0.0271141 0)
(-0.179622 0.0266068 0)
(-0.188154 0.0258315 0)
(-0.19607 0.0247937 0)
(-0.203315 0.0235023 0)
(-0.209844 0.021969 0)
(-0.21562 0.0202074 0)
(-0.220613 0.0182326 0)
(-0.224801 0.0160607 0)
(-0.228167 0.0137087 0)
(-0.230697 0.0111938 0)
(-0.232384 0.00853379 0)
(-0.23322 0.0057469 0)
(-0.233203 0.00285179 0)
(-0.23233 -0.00013206 0)
(-0.230603 -0.00318421 0)
(-0.228024 -0.00628328 0)
(-0.224598 -0.00940649 0)
(-0.220332 -0.0125287 0)
(-0.215236 -0.0156229 0)
(-0.209323 -0.0186603 0)
(-0.202611 -0.0216096 0)
(-0.195123 -0.0244376 0)
(-0.186886 -0.0271092 0)
(-0.177935 -0.0295876 0)
(-0.168314 -0.0318351 0)
(-0.158072 -0.0338142 0)
(-0.147268 -0.0354881 0)
(-0.135971 -0.036822 0)
(-0.124259 -0.0377849 0)
(-0.112217 -0.0383501 0)
(-0.0999402 -0.0384977 0)
(-0.0875301 -0.0382149 0)
(-0.0750941 -0.0374978 0)
(-0.0627434 -0.0363519 0)
(-0.050591 -0.0347927 0)
(-0.0387493 -0.0328456 0)
(-0.0273279 -0.0305457 0)
(-0.0164311 -0.0279369 0)
(-0.00615587 -0.0250702 0)
(0.00341007 -0.022003 0)
(0.0121898 -0.0187969 0)
(0.0201184 -0.0155156 0)
(0.0271442 -0.0122238 0)
(0.033229 -0.00898468 0)
(0.0383492 -0.00585876 0)
(0.0424957 -0.00290156 0)
(0.0456755 -0.000162167 0)
(0.0479111 0.00231713 0)
(0.0492403 0.0045031 0)
(0.0497164 0.00637244 0)
(0.049407 0.00791229 0)
(0.0483925 0.00912059 0)
(0.0467633 0.0100057 0)
(0.0446171 0.0105857 0)
(0.0420553 0.0108866 0)
(0.039179 0.0109413 0)
(0.0360852 0.0107864 0)
(0.0328639 0.0104611 0)
(0.0295952 0.0100044 0)
(0.0263477 0.00945357 0)
(0.0231772 0.00884228 0)
(0.0201273 0.00819946 0)
(0.0172301 0.00754782 0)
(0.0145076 0.00690258 0)
(0.0119746 0.00627034 0)
(0.00964093 0.00564824 0)
(0.00751466 0.00502391 0)
(0.00560551 0.00437694 0)
(0.00392745 0.00368275 0)
(0.00250102 0.00291979 0)
(0.00134754 0.00208127 0)
(0.000531248 0.00119071 0)
(5.81826e-05 0.00034295 0)
(6.99193e-05 -0.000798019 0)
(0.000623437 -0.00225163 0)
(0.00153151 -0.00348624 0)
(0.00274015 -0.00442723 0)
(0.00411342 -0.00504077 0)
(0.00556158 -0.00532289 0)
(0.00699514 -0.0052953 0)
(0.0083365 -0.00499918 0)
(0.00952257 -0.00448845 0)
(0.010506 -0.00382301 0)
(0.0112547 -0.00306263 0)
(0.0117503 -0.00226161 0)
(0.0119858 -0.0014647 0)
(0.0119619 -0.000704295 0)
(0.011684 1.10427e-06 0)
(0.0111578 0.000647013 0)
(0.0103863 0.00124194 0)
(0.00936714 0.00180528 0)
(0.00808982 0.0023643 0)
(0.00653513 0.00295068 0)
(0.0046749 0.00359686 0)
(0.00247286 0.0043328 0)
(-0.000113693 0.00518353 0)
(-0.00313181 0.0061677 0)
(-0.00663063 0.0072973 0)
(-0.0106592 0.0085781 0)
(-0.0152644 0.0100106 0)
(-0.0204888 0.0115909 0)
(-0.0263687 0.013311 0)
(-0.0329321 0.0151593 0)
(-0.0401957 0.0171197 0)
(-0.0481634 0.0191711 0)
(-0.0568234 0.0212872 0)
(-0.0661471 0.0234365 0)
(-0.0760873 0.0255819 0)
(-0.0865791 0.0276826 0)
(-0.0975402 0.0296942 0)
(-0.108873 0.0315716 0)
(-0.120469 0.0332698 0)
(-0.13221 0.0347465 0)
(-0.143976 0.0359637 0)
(-0.155646 0.036889 0)
(-0.167104 0.0374972 0)
(-0.178243 0.0377701 0)
(-0.188967 0.0376975 0)
(-0.199191 0.0372761 0)
(-0.208843 0.0365089 0)
(-0.217865 0.0354045 0)
(-0.226209 0.0339758 0)
(-0.233839 0.0322391 0)
(-0.240728 0.0302128 0)
(-0.246857 0.0279169 0)
(-0.252212 0.0253719 0)
(-0.256785 0.0225984 0)
(-0.260568 0.0196172 0)
(-0.263558 0.0164483 0)
(-0.265754 0.0131114 0)
(-0.267153 0.00962611 0)
(-0.267753 0.00601173 0)
(-0.267553 0.00228785 0)
(-0.266551 -0.00152539 0)
(-0.264744 -0.00540683 0)
(-0.262131 -0.00933387 0)
(-0.25871 -0.0132822 0)
(-0.254481 -0.0172251 0)
(-0.249445 -0.0211333 0)
(-0.243604 -0.0249746 0)
(-0.236965 -0.0287138 0)
(-0.22954 -0.0323125 0)
(-0.221343 -0.0357296 0)
(-0.212396 -0.0389216 0)
(-0.202729 -0.0418429 0)
(-0.192379 -0.0444471 0)
(-0.181393 -0.0466882 0)
(-0.169828 -0.0485217 0)
(-0.157752 -0.0499065 0)
(-0.145242 -0.0508068 0)
(-0.132387 -0.0511936 0)
(-0.119285 -0.0510466 0)
(-0.106041 -0.050356 0)
(-0.0927692 -0.0491233 0)
(-0.0795847 -0.0473625 0)
(-0.0666054 -0.0450999 0)
(-0.0539478 -0.0423742 0)
(-0.0417241 -0.0392348 0)
(-0.0300394 -0.0357412 0)
(-0.0189905 -0.0319604 0)
(-0.00866292 -0.027965 0)
(0.000869176 -0.023831 0)
(0.00954428 -0.0196356 0)
(0.0173136 -0.0154554 0)
(0.024141 -0.0113642 0)
(0.0300031 -0.00743131 0)
(0.0348897 -0.0037206 0)
(0.0388034 -0.000288739 0)
(0.0417605 0.00281618 0)
(0.0437913 0.00555595 0)
(0.0449401 0.00790341 0)
(0.0452655 0.00984341 0)
(0.0448392 0.0113733 0)
(0.0437442 0.0125028 0)
(0.0420727 0.0132533 0)
(0.0399228 0.0136564 0)
(0.0373945 0.0137518 0)
(0.0345862 0.0135848 0)
(0.031591 0.0132035 0)
(0.0284935 0.0126563 0)
(0.0253678 0.0119892 0)
(0.0222762 0.0112434 0)
(0.019269 0.0104531 0)
(0.0163854 0.00964329 0)
(0.0136549 0.00882795 0)
(0.0110999 0.00800873 0)
(0.00873889 0.00717453 0)
(0.00658971 0.00630294 0)
(0.00467333 0.0053642 0)
(0.0030177 0.00432859 0)
(0.00165224 0.00317789 0)
(0.000664876 0.00191985 0)
(7.47233e-05 0.000622565 0)
(7.68376e-05 -0.00110507 0)
(0.000682298 -0.00303014 0)
(0.00166538 -0.00460647 0)
(0.00295774 -0.00577141 0)
(0.00440233 -0.00649933 0)
(0.00589683 -0.00679598 0)
(0.00734264 -0.00669555 0)
(0.00865682 -0.0062542 0)
(0.00977393 -0.00554221 0)
(0.0106463 -0.00463587 0)
(0.0112424 -0.00360986 0)
(0.0115446 -0.00253096 0)
(0.0115455 -0.00145304 0)
(0.0112446 -0.000413908 0)
(0.0106433 0.000566374 0)
(0.00974212 0.00148542 0)
(0.00853635 0.00235699 0)
(0.00701392 0.00320811 0)
(0.00515358 0.00407509 0)
(0.00292441 0.0049989 0)
(0.000286501 0.00602056 0)
(-0.00280735 0.00717691 0)
(-0.00640928 0.00849765 0)
(-0.0105736 0.0100036 0)
(-0.0153539 0.0117065 0)
(-0.0208004 0.0136092 0)
(-0.0269572 0.0157073 0)
(-0.0338597 0.0179893 0)
(-0.0415316 0.0204374 0)
(-0.0499825 0.0230273 0)
(-0.0592047 0.0257277 0)
(-0.0691711 0.0285004 0)
(-0.0798338 0.0312999 0)
(-0.0911238 0.0340747 0)
(-0.102952 0.0367686 0)
(-0.11521 0.0393228 0)
(-0.127778 0.0416784 0)
(-0.140525 0.0437792 0)
(-0.153318 0.0455743 0)
(-0.166025 0.0470203 0)
(-0.178521 0.0480828 0)
(-0.190691 0.0487375 0)
(-0.202437 0.0489704 0)
(-0.213674 0.0487767 0)
(-0.224333 0.0481603 0)
(-0.23436 0.0471323 0)
(-0.243716 0.0457093 0)
(-0.252372 0.043912 0)
(-0.26031 0.0417635 0)
(-0.267518 0.0392886 0)
(-0.273992 0.0365122 0)
(-0.279729 0.0334591 0)
(-0.284729 0.0301532 0)
(-0.288994 0.0266172 0)
(-0.292526 0.0228727 0)
(-0.295325 0.01894 0)
(-0.297392 0.0148387 0)
(-0.298725 0.0105873 0)
(-0.299321 0.00620459 0)
(-0.299178 0.00170906 0)
(-0.298288 -0.00287995 0)
(-0.296647 -0.00754194 0)
(-0.294245 -0.0122546 0)
(-0.291076 -0.0169934 0)
(-0.287131 -0.0217309 0)
(-0.282402 -0.0264364 0)
(-0.276884 -0.0310756 0)
(-0.270571 -0.03561 0)
(-0.263462 -0.0399973 0)
(-0.255559 -0.044191 0)
(-0.246872 -0.048141 0)
(-0.237414 -0.0517941 0)
(-0.227209 -0.0550951 0)
(-0.216288 -0.0579879 0)
(-0.204695 -0.0604171 0)
(-0.192484 -0.0623304 0)
(-0.179723 -0.0636802 0)
(-0.166492 -0.0644263 0)
(-0.152882 -0.0645381 0)
(-0.138998 -0.0639969 0)
(-0.124953 -0.0627974 0)
(-0.110869 -0.0609494 0)
(-0.0968708 -0.0584781 0)
(-0.0830857 -0.055424 0)
(-0.0696378 -0.0518416 0)
(-0.0566454 -0.0477981 0)
(-0.0442176 -0.0433707 0)
(-0.0324522 -0.0386437 0)
(-0.0214337 -0.0337059 0)
(-0.0112323 -0.0286476 0)
(-0.00190477 -0.023558 0)
(0.00650604 -0.0185237 0)
(0.0139696 -0.0136262 0)
(0.0204671 -0.00894118 0)
(0.0259909 -0.00453732 0)
(0.0305439 -0.000475004 0)
(0.0341405 0.00319465 0)
(0.0368063 0.00643111 0)
(0.0385797 0.00920569 0)
(0.0395117 0.0115027 0)
(0.0396661 0.01332 0)
(0.0391184 0.0146695 0)
(0.0379542 0.0155761 0)
(0.0362663 0.0160764 0)
(0.0341512 0.0162165 0)
(0.0317056 0.0160489 0)
(0.0290225 0.0156296 0)
(0.0261883 0.0150145 0)
(0.0232801 0.014256 0)
(0.0203643 0.0133999 0)
(0.0174964 0.012482 0)
(0.0147215 0.0115255 0)
(0.0120763 0.0105385 0)
(0.00959152 0.00951339 0)
(0.00729586 0.00842727 0)
(0.00521991 0.0072458 0)
(0.00340138 0.00592985 0)
(0.00187982 0.00444591 0)
(0.000764544 0.00277897 0)
(8.69606e-05 0.000959409 0)
(8.23949e-05 -0.00143726 0)
(0.000727744 -0.00386537 0)
(0.00176398 -0.00579509 0)
(0.00310833 -0.00717652 0)
(0.00458392 -0.00799584 0)
(0.00607605 -0.00827293 0)
(0.00747753 -0.0080587 0)
(0.00870092 -0.0074279 0)
(0.00967956 -0.00646981 0)
(0.0103666 -0.00527855 0)
(0.0107323 -0.00394418 0)
(0.0107603 -0.00254526 0)
(0.0104435 -0.00114341 0)
(0.009779 0.000220185 0)
(0.0087641 0.0015262 0)
(0.00739196 0.00277671 0)
(0.00564849 0.00399286 0)
(0.00351015 0.00521095 0)
(0.000943083 0.00647726 0)
(-0.0020964 0.00784219 0)
(-0.00566005 0.00935443 0)
(-0.00980497 0.011056 0)
(-0.0145902 0.0129786 0)
(-0.0200733 0.0151421 0)
(-0.0263066 0.0175539 0)
(-0.0333342 0.0202098 0)
(-0.0411882 0.0230952 0)
(-0.0498861 0.0261853 0)
(-0.059427 0.0294463 0)
(-0.0697892 0.0328348 0)
(-0.0809278 0.0362982 0)
(-0.0927738 0.0397755 0)
(-0.105235 0.043199 0)
(-0.118197 0.0464963 0)
(-0.131531 0.0495936 0)
(-0.145095 0.0524193 0)
(-0.158744 0.0549075 0)
(-0.172333 0.0570012 0)
(-0.185728 0.0586545 0)
(-0.198806 0.0598344 0)
(-0.211462 0.0605206 0)
(-0.22361 0.0607052 0)
(-0.23518 0.0603912 0)
(-0.246123 0.0595912 0)
(-0.256402 0.0583243 0)
(-0.265996 0.0566151 0)
(-0.274891 0.0544912 0)
(-0.283082 0.051982 0)
(-0.290571 0.0491171 0)
(-0.297361 0.0459254 0)
(-0.303457 0.0424346 0)
(-0.308867 0.0386708 0)
(-0.313596 0.034658 0)
(-0.317649 0.0304185 0)
(-0.32103 0.0259728 0)
(-0.323741 0.0213398 0)
(-0.325783 0.0165375 0)
(-0.327154 0.0115827 0)
(-0.327851 0.00649236 0)
(-0.327869 0.00128335 0)
(-0.3272 -0.00402657 0)
(-0.325836 -0.0094183 0)
(-0.323766 -0.0148707 0)
(-0.320977 -0.0203602 0)
(-0.317457 -0.0258595 0)
(-0.31319 -0.031338 0)
(-0.308162 -0.0367604 0)
(-0.30236 -0.0420866 0)
(-0.295768 -0.0472713 0)
(-0.288378 -0.0522642 0)
(-0.280182 -0.0570099 0)
(-0.271178 -0.0614483 0)
(-0.261371 -0.0655157 0)
(-0.250776 -0.069146 0)
(-0.239416 -0.0722725 0)
(-0.227329 -0.07483 0)
(-0.214566 -0.0767571 0)
(-0.201192 -0.0779996 0)
(-0.187289 -0.0785131 0)
(-0.172955 -0.0782659 0)
(-0.158301 -0.0772418 0)
(-0.143452 -0.0754423 0)
(-0.128541 -0.0728876 0)
(-0.113709 -0.0696171 0)
(-0.0990949 -0.0656883 0)
(-0.0848374 -0.0611755 0)
(-0.0710654 -0.0561661 0)
(-0.0578961 -0.0507579 0)
(-0.0454315 -0.0450544 0)
(-0.0337567 -0.0391615 0)
(-0.0229393 -0.0331839 0)
(-0.01303 -0.027222 0)
(-0.0040642 -0.0213703 0)
(0.00393605 -0.0157159 0)
(0.0109599 -0.0103376 0)
(0.0170063 -0.00530574 0)
(0.0220829 -0.000681116 0)
(0.0262057 0.00348525 0)
(0.0294001 0.00715339 0)
(0.0317017 0.0102956 0)
(0.0331569 0.0128976 0)
(0.0338235 0.0149597 0)
(0.033771 0.0164965 0)
(0.0330785 0.0175371 0)
(0.0318334 0.0181231 0)
(0.0301277 0.0183062 0)
(0.0280547 0.0181453 0)
(0.0257058 0.0177022 0)
(0.023167 0.0170379 0)
(0.0205164 0.0162081 0)
(0.017823 0.0152589 0)
(0.0151462 0.0142232 0)
(0.0125368 0.0131168 0)
(0.0100388 0.0119367 0)
(0.00769317 0.0106609 0)
(0.00554182 0.00925108 0)
(0.00363376 0.0076581 0)
(0.00201957 0.00583093 0)
(0.000825852 0.00372778 0)
(9.44121e-05 0.00133558 0)
(8.70674e-05 -0.00178956 0)
(0.000762793 -0.00474177 0)
(0.00183245 -0.00702624 0)
(0.00319829 -0.00860707 0)
(0.00466473 -0.00948578 0)
(0.00610539 -0.00970087 0)
(0.00740556 -0.0093245 0)
(0.0084746 -0.00845381 0)
(0.00924599 -0.00719977 0)
(0.00967492 -0.00567574 0)
(0.00973418 -0.00398715 0)
(0.00940917 -0.00222328 0)
(0.0086925 -0.000451444 0)
(0.00757859 0.00128635 0)
(0.00605884 0.00297437 0)
(0.00411766 0.00462183 0)
(0.00172966 0.00625948 0)
(-0.00114158 0.0079343 0)
(-0.00454332 0.00970286 0)
(-0.00853174 0.011624 0)
(-0.0131688 0.013752 0)
(-0.0185183 0.0161307 0)
(-0.0246413 0.0187899 0)
(-0.0315917 0.0217431 0)
(-0.0394123 0.0249881 0)
(-0.0481309 0.0285075 0)
(-0.0577565 0.0322698 0)
(-0.0682761 0.0362302 0)
(-0.0796519 0.0403319 0)
(-0.0918197 0.0445067 0)
(-0.104689 0.0486766 0)
(-0.118144 0.0527565 0)
(-0.132049 0.0566576 0)
(-0.146254 0.0602917 0)
(-0.160601 0.0635759 0)
(-0.174936 0.0664368 0)
(-0.189111 0.0688138 0)
(-0.202991 0.0706614 0)
(-0.216465 0.0719503 0)
(-0.229437 0.0726662 0)
(-0.241837 0.0728091 0)
(-0.253612 0.0723905 0)
(-0.264728 0.0714312 0)
(-0.275164 0.0699583 0)
(-0.284911 0.0680034 0)
(-0.293968 0.0656001 0)
(-0.302339 0.0627826 0)
(-0.310033 0.0595845 0)
(-0.31706 0.0560379 0)
(-0.323429 0.052173 0)
(-0.329153 0.0480174 0)
(-0.33424 0.0435966 0)
(-0.3387 0.0389338 0)
(-0.34254 0.0340496 0)
(-0.345766 0.0289631 0)
(-0.348384 0.0236915 0)
(-0.350395 0.0182507 0)
(-0.3518 0.0126559 0)
(-0.352599 0.00692175 0)
(-0.352786 0.00106308 0)
(-0.352358 -0.0049045 0)
(-0.351304 -0.0109641 0)
(-0.349614 -0.0170967 0)
(-0.347273 -0.0232807 0)
(-0.344265 -0.0294909 0)
(-0.340572 -0.0356979 0)
(-0.33617 -0.0418673 0)
(-0.331039 -0.0479593 0)
(-0.325152 -0.0539282 0)
(-0.318488 -0.0597214 0)
(-0.311022 -0.0652803 0)
(-0.302735 -0.0705399 0)
(-0.293612 -0.0754294 0)
(-0.283645 -0.0798738 0)
(-0.272835 -0.083795 0)
(-0.261196 -0.0871144 0)
(-0.248753 -0.0897555 0)
(-0.235553 -0.0916473 0)
(-0.221657 -0.0927277 0)
(-0.207148 -0.0929476 0)
(-0.192129 -0.0922743 0)
(-0.176721 -0.0906948 0)
(-0.161061 -0.0882185 0)
(-0.1453 -0.084878 0)
(-0.129598 -0.0807293 0)
(-0.114114 -0.0758506 0)
(-0.0990047 -0.0703386 0)
(-0.0844169 -0.0643046 0)
(-0.0704807 -0.0578697 0)
(-0.0573069 -0.0511589 0)
(-0.0449843 -0.0442967 0)
(-0.0335792 -0.0374024 0)
(-0.0231368 -0.0305871 0)
(-0.0136839 -0.023952 0)
(-0.00523221 -0.0175872 0)
(0.00221845 -0.0115722 0)
(0.00867698 -0.00597579 0)
(0.0141593 -0.000856269 0)
(0.0186875 0.00373853 0)
(0.0222904 0.00777205 0)
(0.025004 0.0112201 0)
(0.0268735 0.014072 0)
(0.0279537 0.016332 0)
(0.0283095 0.018019 0)
(0.0280154 0.0191669 0)
(0.0271538 0.0198221 0)
(0.0258122 0.0200417 0)
(0.0240804 0.0198891 0)
(0.0220471 0.0194299 0)
(0.0197968 0.0187268 0)
(0.017408 0.0178345 0)
(0.0149513 0.0167944 0)
(0.01249 0.0156299 0)
(0.0100809 0.0143432 0)
(0.00777752 0.0129141 0)
(0.00563386 0.0113005 0)
(0.00371052 0.0094436 0)
(0.00206891 0.00727419 0)
(0.000847868 0.00472279 0)
(9.7005e-05 0.00173196 0)
(9.10068e-05 -0.00215799 0)
(0.000788259 -0.00564521 0)
(0.00187165 -0.00827482 0)
(0.00322771 -0.0100274 0)
(0.00464328 -0.0109237 0)
(0.00598153 -0.0110259 0)
(0.00712187 -0.0104321 0)
(0.00797223 -0.00926553 0)
(0.00846773 -0.00766154 0)
(0.00856678 -0.00575367 0)
(0.00824527 -0.00366225 0)
(0.00749025 -0.00148555 0)
(0.0062934 0.000706033 0)
(0.00464501 0.0028728 0)
(0.00252902 0.00500578 0)
(-8.06459e-05 0.00712408 0)
(-0.00322198 0.00926996 0)
(-0.00694492 0.0115017 0)
(-0.0113095 0.0138854 0)
(-0.0163823 0.0164861 0)
(-0.0222316 0.0193596 0)
(-0.0289219 0.0225466 0)
(-0.0365087 0.0260688 0)
(-0.0450332 0.0299271 0)
(-0.0545177 0.0341024 0)
(-0.0649621 0.0385566 0)
(-0.0763401 0.0432341 0)
(-0.0885969 0.0480637 0)
(-0.101649 0.0529605 0)
(-0.115383 0.0578287 0)
(-0.129663 0.0625657 0)
(-0.144333 0.0670664 0)
(-0.159227 0.0712295 0)
(-0.174176 0.0749621 0)
(-0.189018 0.0781854 0)
(-0.203606 0.0808375 0)
(-0.217814 0.0828754 0)
(-0.231537 0.0842749 0)
(-0.244695 0.085029 0)
(-0.257231 0.0851457 0)
(-0.269105 0.0846447 0)
(-0.280296 0.0835546 0)
(-0.290795 0.0819095 0)
(-0.300602 0.0797468 0)
(-0.309722 0.0771052 0)
(-0.318168 0.074023 0)
(-0.32595 0.0705374 0)
(-0.333085 0.0666835 0)
(-0.339586 0.0624937 0)
(-0.345469 0.0579981 0)
(-0.350748 0.053224 0)
(-0.355436 0.0481958 0)
(-0.359547 0.0429356 0)
(-0.363094 0.037463 0)
(-0.366085 0.0317953 0)
(-0.368532 0.0259483 0)
(-0.370441 0.019936 0)