/*--------------------------------*- C++ -*----------------------------------*\
| =========                 |                                                 |
| \\      /  F ield         | OpenFOAM: The Open Source CFD Toolbox           |
|  \\    /   O peration     | Version:  2406                                  |
|   \\  /    A nd           | Website:  www.openfoam.com                      |
|    \\/     M anipulation  |                                                 |
\*---------------------------------------------------------------------------*/
FoamFile
{
    version     2.0;
    format      ascii;
    arch        "LSB;label=32;scalar=64";
    class       volVectorField;
    location    "75.5";
    object      U_0;
}
// * * * * * * * * * * * * * * * * * * * * * * * * * * * * * * * * * * * * * //

dimensions      [0 1 -1 0 0 0 0];

internalField   nonuniform List<vector> 
4096
(
(-1.62301e-05 8.77226e-06 0)
(0.000372895 -9.85273e-05 0)
(0.00119902 -0.000177015 0)
(0.00219232 -0.000197724 0)
(0.00314703 -0.000171345 0)
(0.00391685 -0.000124133 0)
(0.00444381 -7.90434e-05 0)
(0.00474688 -5.05668e-05 0)
(0.00488759 -4.37577e-05 0)
(0.0049351 -5.58511e-05 0)
(0.0049378 -7.94636e-05 0)
(0.00490942 -0.000105056 0)
(0.00482764 -0.000126263 0)
(0.00464247 -0.000140253 0)
(0.00428862 -0.000145997 0)
(0.00369437 -0.000143966 0)
(0.00278527 -0.000132602 0)
(0.00148425 -0.000109765 0)
(-0.000286487 -7.2949e-05 0)
(-0.00260333 -2.03648e-05 0)
(-0.00553373 5.01068e-05 0)
(-0.00912692 0.000141641 0)
(-0.0134042 0.00026188 0)
(-0.0183467 0.000422224 0)
(-0.0238873 0.000631244 0)
(-0.0299052 0.000885684 0)
(-0.0362266 0.00116542 0)
(-0.0426281 0.00143592 0)
(-0.0488452 0.00165648 0)
(-0.054586 0.00179013 0)
(-0.0595512 0.00181059 0)
(-0.0634563 0.00170162 0)
(-0.0660509 0.00145225 0)
(-0.0671235 0.00107197 0)
(-0.0664864 0.000634471 0)
(-0.0639618 0.000122282 0)
(-0.0595574 -0.000443326 0)
(-0.0533284 -0.00102117 0)
(-0.0454208 -0.00156502 0)
(-0.0360819 -0.00202588 0)
(-0.0256659 -0.00235518 0)
(-0.0146241 -0.00250875 0)
(-0.00345595 -0.00246089 0)
(0.00723342 -0.00222085 0)
(0.0168297 -0.00172689 0)
(0.0248232 -0.00107527 0)
(0.0307767 -0.00032485 0)
(0.0344249 0.000393819 0)
(0.0357599 0.000989545 0)
(0.0349716 0.00137682 0)
(0.0324566 0.00155595 0)
(0.0287401 0.00153109 0)
(0.0243848 0.0013511 0)
(0.0199067 0.00109451 0)
(0.015693 0.000830144 0)
(0.0119762 0.000598954 0)
(0.00885159 0.000416619 0)
(0.00631519 0.000283359 0)
(0.0043036 0.000191584 0)
(0.00272978 0.000130641 0)
(0.00151559 8.65769e-05 0)
(0.000622979 3.89615e-05 0)
(6.62504e-05 -3.12434e-05 0)
(-7.98934e-05 -9.46437e-05 0)
(7.18637e-05 -0.000361214 0)
(0.00114597 -0.00118834 0)
(0.00299495 -0.00172326 0)
(0.00512213 -0.0018429 0)
(0.00711893 -0.00162186 0)
(0.00870254 -0.0012124 0)
(0.00974617 -0.000766611 0)
(0.0102567 -0.000392334 0)
(0.0103183 -0.000135839 0)
(0.010029 1.49331e-05 0)
(0.00944784 0.000112265 0)
(0.00856229 0.000224277 0)
(0.00728379 0.000411471 0)
(0.00546676 0.000712507 0)
(0.00293026 0.00115018 0)
(-0.000520678 0.00173274 0)
(-0.00508174 0.00246531 0)
(-0.0109388 0.00335093 0)
(-0.0182471 0.00438747 0)
(-0.0271069 0.00556367 0)
(-0.0375291 0.00685487 0)
(-0.0494014 0.00821152 0)
(-0.0624708 0.00955086 0)
(-0.0763484 0.01076 0)
(-0.0905416 0.0117137 0)
(-0.104504 0.012297 0)
(-0.117689 0.0124208 0)
(-0.1296 0.012029 0)
(-0.139808 0.0110992 0)
(-0.147971 0.00964041 0)
(-0.153826 0.00768895 0)
(-0.157192 0.00530517 0)
(-0.157937 0.00257358 0)
(-0.155956 -0.000395518 0)
(-0.151208 -0.0035004 0)
(-0.143719 -0.0066808 0)
(-0.13359 -0.0098122 0)
(-0.120969 -0.0127643 0)
(-0.10609 -0.0153862 0)
(-0.0892789 -0.0175194 0)
(-0.0709579 -0.0190045 0)
(-0.051646 -0.0196953 0)
(-0.0319297 -0.0194817 0)
(-0.0124694 -0.018329 0)
(0.00591431 -0.016203 0)
(0.0224835 -0.0132135 0)
(0.0365588 -0.00950007 0)
(0.0475306 -0.00547895 0)
(0.0550753 -0.00147906 0)
(0.0590695 0.0021019 0)
(0.059645 0.0049327 0)
(0.0571471 0.00687475 0)
(0.052221 0.00785708 0)
(0.0456908 0.00797622 0)
(0.0383958 0.00745447 0)
(0.0310623 0.00655349 0)
(0.0242222 0.00550504 0)
(0.0181844 0.00447537 0)
(0.0130625 0.00356018 0)
(0.00883791 0.0027889 0)
(0.00543462 0.00212817 0)
(0.00279622 0.00148945 0)
(0.000950973 0.000777883 0)
(2.88582e-05 8.27842e-05 0)
(0.00014615 -0.00113161 0)
(0.00172758 -0.00302118 0)
(0.00420134 -0.00410697 0)
(0.00691063 -0.0042713 0)
(0.00933489 -0.00369568 0)
(0.0111355 -0.00269711 0)
(0.0121595 -0.00158869 0)
(0.0123971 -0.000591171 0)
(0.0119125 0.000202195 0)
(0.0107698 0.000823096 0)
(0.00897021 0.00139132 0)
(0.00641941 0.00205973 0)
(0.00292653 0.00296983 0)
(-0.00176386 0.00421658 0)
(-0.00794185 0.00585003 0)
(-0.0158982 0.00788732 0)
(-0.0258817 0.0103208 0)
(-0.0380555 0.0131166 0)
(-0.0524344 0.0161942 0)
(-0.0688249 0.0193995 0)
(-0.0867983 0.0224965 0)
(-0.105726 0.025198 0)
(-0.124876 0.0272289 0)
(-0.143522 0.0283855 0)
(-0.161034 0.0285616 0)
(-0.176909 0.0277389 0)
(-0.190781 0.0259613 0)
(-0.20239 0.0233067 0)
(-0.211566 0.0198674 0)
(-0.218199 0.0157406 0)
(-0.222222 0.0110301 0)
(-0.223597 0.00585552 0)
(-0.222304 0.000353294 0)
(-0.218381 -0.00535654 0)
(-0.211809 -0.0112095 0)
(-0.202664 -0.0170514 0)
(-0.190983 -0.0227262 0)
(-0.176872 -0.0280439 0)
(-0.160474 -0.0327894 0)
(-0.142011 -0.0367224 0)
(-0.121781 -0.0395903 0)
(-0.100179 -0.041147 0)
(-0.077687 -0.0411864 0)
(-0.0548931 -0.0395888 0)
(-0.0324907 -0.0363407 0)
(-0.0111509 -0.0314749 0)
(0.00824017 -0.0252771 0)
(0.0249916 -0.0181365 0)
(0.038624 -0.0105852 0)
(0.0486703 -0.00325209 0)
(0.0550181 0.00327263 0)
(0.0577467 0.00850351 0)
(0.0570635 0.0122124 0)
(0.0535435 0.0143093 0)
(0.0479359 0.0149201 0)
(0.0410549 0.0143481 0)
(0.0336784 0.012988 0)
(0.0264446 0.0112316 0)
(0.0197886 0.00939264 0)
(0.0139406 0.00765767 0)
(0.00898284 0.00606177 0)
(0.00494431 0.00449431 0)
(0.00192778 0.00276967 0)
(0.000162523 0.000861309 0)
(0.000198227 -0.00215406 0)
(0.00211528 -0.00531211 0)
(0.00492784 -0.00693327 0)
(0.00782152 -0.0069943 0)
(0.0101951 -0.00585324 0)
(0.0116956 -0.00403202 0)
(0.0121754 -0.00201665 0)
(0.0116151 -0.000131956 0)
(0.0100378 0.00150281 0)
(0.00742974 0.00296958 0)
(0.00367922 0.00448252 0)
(-0.00143812 0.00630186 0)
(-0.00824092 0.00865193 0)
(-0.0170904 0.0116762 0)
(-0.028326 0.0154247 0)
(-0.0421957 0.0198668 0)
(-0.0587653 0.0248756 0)
(-0.0778272 0.0302 0)
(-0.0988555 0.0354517 0)
(-0.121061 0.0401613 0)
(-0.143546 0.0438911 0)
(-0.16547 0.0463328 0)
(-0.186159 0.0473388 0)
(-0.205128 0.0468961 0)
(-0.222061 0.0450823 0)
(-0.236775 0.0420241 0)
(-0.24918 0.0378672 0)
(-0.259246 0.032757 0)
(-0.266972 0.0268286 0)
(-0.272366 0.0202052 0)
(-0.275426 0.0130069 0)
(-0.276142 0.00535774 0)
(-0.274524 -0.00262309 0)
(-0.270615 -0.0108508 0)
(-0.264373 -0.0192142 0)
(-0.255785 -0.0275522 0)
(-0.244818 -0.0356843 0)
(-0.231479 -0.0433826 0)
(-0.215797 -0.0503801 0)
(-0.197859 -0.0563654 0)
(-0.177822 -0.0609974 0)
(-0.155936 -0.0639252 0)
(-0.132562 -0.0648286 0)
(-0.108181 -0.0634667 0)
(-0.0834042 -0.0597193 0)
(-0.0589429 -0.053633 0)
(-0.035627 -0.0455239 0)
(-0.0142016 -0.0357564 0)
(0.00455971 -0.0250853 0)
(0.020086 -0.0142625 0)
(0.0320088 -0.00404709 0)
(0.0402663 0.00482885 0)
(0.0449525 0.011867 0)
(0.0462777 0.0168177 0)
(0.0447179 0.019643 0)
(0.0408934 0.0205393 0)
(0.0355181 0.0198964 0)
(0.0293126 0.0182101 0)
(0.0229043 0.015968 0)
(0.0167612 0.0135404 0)
(0.0111876 0.011095 0)
(0.00638622 0.00855668 0)
(0.0026138 0.00565202 0)
(0.000257818 0.00210911 0)
(0.000243621 -0.0033507 0)
(0.00237009 -0.00785162 0)
(0.00527338 -0.00987244 0)
(0.00799589 -0.0095802 0)
(0.00988376 -0.0075948 0)
(0.0106013 -0.0046833 0)
(0.0100254 -0.00149975 0)
(0.00812357 0.00155659 0)
(0.00485395 0.00439329 0)
(8.52636e-05 0.00718981 0)
(-0.00644871 0.0102799 0)
(-0.0151217 0.0140284 0)
(-0.0263468 0.018708 0)
(-0.0404758 0.0244353 0)
(-0.0576855 0.0311369 0)
(-0.0778571 0.0385348 0)
(-0.100493 0.0461407 0)
(-0.124747 0.0533179 0)
(-0.149595 0.059427 0)
(-0.174058 0.0639797 0)
(-0.19736 0.0667095 0)
(-0.218971 0.0675522 0)
(-0.238578 0.0665859 0)
(-0.256027 0.0639691 0)
(-0.27127 0.0598946 0)
(-0.28432 0.0545586 0)
(-0.295226 0.0481443 0)
(-0.304045 0.0408132 0)
(-0.310834 0.0327037 0)
(-0.315627 0.0239351 0)
(-0.318434 0.0146141 0)
(-0.319252 0.00483742 0)
(-0.318101 -0.00531227 0)
(-0.314999 -0.0157606 0)
(-0.309888 -0.0263762 0)
(-0.302694 -0.0370166 0)
(-0.293335 -0.0474886 0)
(-0.281728 -0.0575512 0)
(-0.267796 -0.0669004 0)
(-0.25149 -0.0751717 0)
(-0.232811 -0.0819456 0)
(-0.211833 -0.08677 0)
(-0.188743 -0.089197 0)
(-0.163867 -0.0888385 0)
(-0.137703 -0.0854318 0)
(-0.11093 -0.0789184 0)
(-0.0843931 -0.0695152 0)
(-0.0590172 -0.0577128 0)
(-0.0357443 -0.0443309 0)
(-0.0153576 -0.0302906 0)
(0.00158283 -0.0166117 0)
(0.0147983 -0.00412641 0)
(0.024335 0.00642122 0)
(0.0303724 0.0146063 0)
(0.0331969 0.0202574 0)
(0.0332235 0.0234358 0)
(0.0309858 0.0244301 0)
(0.0271053 0.0237124 0)
(0.0222211 0.0218333 0)
(0.0169117 0.0192867 0)
(0.0116489 0.0163643 0)
(0.00681526 0.0130471 0)
(0.00284624 0.00898439 0)
(0.000288889 0.00361359 0)
(0.000290756 -0.00466674 0)
(0.00250865 -0.0104606 0)
(0.00524232 -0.0126257 0)
(0.00742849 -0.0116372 0)
(0.00840117 -0.00846819 0)
(0.00787104 -0.00416137 0)
(0.00573961 0.000484774 0)
(0.0019445 0.00505743 0)
(-0.00364846 0.00955888 0)
(-0.0113266 0.0143013 0)
(-0.021512 0.0197413 0)
(-0.0346545 0.0262874 0)
(-0.0510968 0.0341357 0)
(-0.0709123 0.043175 0)
(-0.0937732 0.05296 0)
(-0.118915 0.0627674 0)
(-0.145259 0.0717536 0)
(-0.171669 0.0791704 0)
(-0.197181 0.0845231 0)
(-0.22112 0.0876021 0)
(-0.243085 0.0884211 0)
(-0.262883 0.087132 0)
(-0.28046 0.0839556 0)
(-0.295848 0.0791363 0)
(-0.30912 0.0729133 0)
(-0.320374 0.065504 0)
(-0.329713 0.0570977 0)
(-0.337237 0.0478532 0)
(-0.343036 0.0379008 0)
(-0.347174 0.027345 0)
(-0.349693 0.0162659 0)
(-0.350626 0.00472089 0)
(-0.350008 -0.00724153 0)
(-0.347859 -0.0195451 0)
(-0.344121 -0.0320873 0)
(-0.338706 -0.0447427 0)
(-0.331497 -0.0573394 0)
(-0.322348 -0.0696461 0)
(-0.311086 -0.0813559 0)
(-0.29753 -0.0920782 0)
(-0.281504 -0.101339 0)
(-0.262872 -0.108593 0)
(-0.241577 -0.113262 0)
(-0.217696 -0.114789 0)
(-0.191502 -0.112717 0)
(-0.163517 -0.106786 0)
(-0.134536 -0.0970336 0)
(-0.105605 -0.083881 0)
(-0.0779184 -0.0681638 0)
(-0.0526507 -0.051032 0)
(-0.0307472 -0.0337931 0)
(-0.0127665 -0.0176359 0)
(0.00119351 -0.00345478 0)
(0.0113572 0.00814751 0)
(0.0180654 0.016891 0)
(0.0216924 0.0227716 0)
(0.0226616 0.0259815 0)
(0.021469 0.0269156 0)
(0.0186714 0.0260948 0)
(0.0148473 0.0240453 0)
(0.0105472 0.0211212 0)
(0.0062838 0.0173359 0)
(0.00263576 0.0122715 0)
(0.000258417 0.00511466 0)
(0.000337176 -0.00604317 0)
(0.00249354 -0.0129346 0)
(0.00475114 -0.0148638 0)
(0.00600736 -0.0127583 0)
(0.00563422 -0.00802571 0)
(0.00340821 -0.0019859 0)
(-0.000754158 0.00445935 0)
(-0.00697723 0.0109758 0)
(-0.0155254 0.0177111 0)
(-0.0268276 0.0251157 0)
(-0.0413604 0.0336941 0)
(-0.0594547 0.043728 0)
(-0.081094 0.0550916 0)
(-0.105778 0.0672048 0)
(-0.132541 0.0791483 0)
(-0.160154 0.0899111 0)
(-0.187419 0.0986608 0)
(-0.213404 0.1049 0)
(-0.237506 0.108464 0)
(-0.259403 0.109425 0)
(-0.278973 0.107994 0)
(-0.296217 0.104444 0)
(-0.311211 0.0990682 0)
(-0.324076 0.0921496 0)
(-0.334954 0.0839463 0)
(-0.343996 0.0746833 0)
(-0.351358 0.0645489 0)
(-0.357187 0.0536955 0)
(-0.361618 0.042242 0)
(-0.364765 0.0302746 0)
(-0.366721 0.0178449 0)
(-0.367561 0.00497461 0)
(-0.367334 -0.0083185 0)
(-0.366065 -0.0219797 0)
(-0.363722 -0.0359492 0)
(-0.360234 -0.0501409 0)
(-0.355479 -0.064431 0)
(-0.349281 -0.0786323 0)
(-0.341411 -0.0924762 0)
(-0.331581 -0.105593 0)
(-0.319466 -0.117499 0)
(-0.304717 -0.127599 0)
(-0.287015 -0.135205 0)
(-0.266118 -0.139586 0)
(-0.241947 -0.140051 0)
(-0.214687 -0.136052 0)
(-0.184875 -0.127324 0)
(-0.153467 -0.11402 0)
(-0.121801 -0.0968246 0)
(-0.0914638 -0.0769585 0)
(-0.0640148 -0.0560375 0)
(-0.0406432 -0.0357475 0)
(-0.0218976 -0.0174651 0)
(-0.00768515 -0.00206446 0)
(0.00249919 0.0100799 0)
(0.0092299 0.0189422 0)
(0.0130041 0.0246977 0)
(0.014298 0.0277103 0)
(0.0136022 0.0284405 0)
(0.0114566 0.0273824 0)
(0.00842755 0.0248848 0)
(0.00509701 0.020953 0)
(0.00212165 0.0151138 0)
(0.000189896 0.00640107 0)
(0.000372347 -0.00738872 0)
(0.00225154 -0.0150096 0)
(0.00367275 -0.0162087 0)
(0.00358637 -0.0125203 0)
(0.00145567 -0.00583559 0)
(-0.00288245 0.00228301 0)
(-0.00951685 0.0109259 0)
(-0.0186567 0.0198897 0)
(-0.0306963 0.0294852 0)
(-0.0461024 0.0402276 0)
(-0.0652019 0.0524723 0)
(-0.0879314 0.0661167 0)
(-0.113687 0.0805037 0)
(-0.141375 0.0945675 0)
(-0.16966 0.107153 0)
(-0.1973 0.117339 0)
(-0.223363 0.124605 0)
(-0.247275 0.128805 0)
(-0.268753 0.130053 0)
(-0.287706 0.128607 0)
(-0.304168 0.124792 0)
(-0.318252 0.118954 0)
(-0.330122 0.111431 0)
(-0.339971 0.102532 0)
(-0.34801 0.0925285 0)
(-0.35445 0.0816471 0)
(-0.359498 0.0700704 0)
(-0.363342 0.0579381 0)
(-0.366155 0.0453512 0)
(-0.368088 0.032373 0)
(-0.369271 0.01903 0)
(-0.369807 0.00531969 0)
(-0.369755 -0.00876632 0)
(-0.36914 -0.0232136 0)
(-0.367971 -0.0380094 0)
(-0.366211 -0.053123 0)
(-0.363773 -0.0684931 0)
(-0.360504 -0.0840031 0)
(-0.356175 -0.0994599 0)
(-0.350471 -0.114566 0)
(-0.342985 -0.128898 0)
(-0.333229 -0.141882 0)
(-0.320658 -0.1528 0)
(-0.304718 -0.160802 0)
(-0.284937 -0.164974 0)
(-0.26103 -0.164445 0)
(-0.233046 -0.158532 0)
(-0.201522 -0.146932 0)
(-0.16759 -0.129906 0)
(-0.132964 -0.108432 0)
(-0.0997506 -0.0842098 0)
(-0.0700345 -0.0594163 0)
(-0.0453303 -0.0361996 0)
(-0.0261774 -0.016125 0)
(-0.0121871 8.95581e-05 0)
(-0.0025201 0.0123717 0)
(0.00368501 0.0209944 0)
(0.00709475 0.0263674 0)
(0.00824002 0.0289583 0)
(0.00766392 0.029222 0)
(0.00593215 0.0274646 0)
(0.00365104 0.0236544 0)
(0.00149311 0.0172847 0)
(0.00011296 0.00735644 0)
(0.000379566 -0.00856332 0)
(0.00169799 -0.0163538 0)
(0.00188562 -0.0162469 0)
(4.88274e-05 -0.0105155 0)
(-0.00421634 -0.00150549 0)
(-0.0110077 0.00905037 0)
(-0.0204671 0.0203195 0)
(-0.0328979 0.0322538 0)
(-0.0487194 0.0452598 0)
(-0.0682514 0.0597249 0)
(-0.0914316 0.0756034 0)
(-0.11763 0.0922278 0)
(-0.145691 0.108439 0)
(-0.174212 0.12295 0)
(-0.201889 0.134729 0)
(-0.227758 0.143195 0)
(-0.251238 0.148194 0)
(-0.272048 0.149863 0)
(-0.29011 0.148503 0)
(-0.305483 0.144495 0)
(-0.318317 0.138249 0)
(-0.328827 0.130167 0)
(-0.337266 0.12062 0)
(-0.343904 0.109935 0)
(-0.349012 0.0983861 0)
(-0.352845 0.0861898 0)
(-0.355636 0.0735105 0)
(-0.357589 0.0604643 0)
(-0.35888 0.0471248 0)
(-0.359666 0.0335284 0)
(-0.360081 0.019681 0)
(-0.360228 0.00556561 0)
(-0.360161 -0.00884328 0)
(-0.359909 -0.0235699 0)
(-0.359514 -0.0386456 0)
(-0.358984 -0.05409 0)
(-0.358287 -0.0699016 0)
(-0.357334 -0.086039 0)
(-0.355962 -0.102401 0)
(-0.353914 -0.118798 0)
(-0.350817 -0.134923 0)
(-0.346163 -0.150312 0)
(-0.339311 -0.164321 0)
(-0.329506 -0.17611 0)
(-0.315941 -0.184659 0)
(-0.297862 -0.18884 0)
(-0.274726 -0.187545 0)
(-0.246396 -0.17989 0)
(-0.213371 -0.165467 0)
(-0.176961 -0.144618 0)
(-0.139319 -0.118649 0)
(-0.10319 -0.0898381 0)
(-0.0713186 -0.0610725 0)
(-0.0456063 -0.0350618 0)
(-0.0265174 -0.013516 0)
(-0.0132635 0.00310291 0)
(-0.00455901 0.0151547 0)
(0.000734644 0.0232201 0)
(0.00343615 0.0279105 0)
(0.00419426 0.0297095 0)
(0.00361121 0.0288984 0)
(0.00230413 0.0254133 0)
(0.000922825 0.0187464 0)
(5.18779e-05 0.00797169 0)
(0.000339598 -0.00937657 0)
(0.000763123 -0.0165875 0)
(-0.000687395 -0.0145831 0)
(-0.00463295 -0.0063789 0)
(-0.0113109 0.00530048 0)
(-0.0208096 0.018645 0)
(-0.0333242 0.0329392 0)
(-0.0491804 0.0482651 0)
(-0.0686735 0.0649522 0)
(-0.0917746 0.08302 0)
(-0.117897 0.101855 0)
(-0.145894 0.120263 0)
(-0.174323 0.136839 0)
(-0.201812 0.15041 0)
(-0.227331 0.160293 0)
(-0.250255 0.166287 0)
(-0.270287 0.168535 0)
(-0.28735 0.167379 0)
(-0.301525 0.163262 0)
(-0.313007 0.156666 0)
(-0.322067 0.14807 0)
(-0.32902 0.137917 0)
(-0.334199 0.126599 0)
(-0.337928 0.114437 0)
(-0.340505 0.101687 0)
(-0.342194 0.0885379 0)
(-0.343213 0.0751206 0)
(-0.343743 0.0615158 0)
(-0.343934 0.047764 0)
(-0.343909 0.0338743 0)
(-0.343777 0.0198352 0)
(-0.343615 0.00562288 0)
(-0.343464 -0.00879601 0)
(-0.343356 -0.0234748 0)
(-0.343347 -0.0384703 0)
(-0.343477 -0.0538306 0)
(-0.343764 -0.0695927 0)
(-0.344193 -0.0857721 0)
(-0.3447 -0.102349 0)
(-0.345143 -0.119245 0)
(-0.345273 -0.136293 0)
(-0.344697 -0.153195 0)
(-0.342847 -0.16948 0)
(-0.338959 -0.184451 0)
(-0.332086 -0.197166 0)
(-0.32116 -0.206429 0)
(-0.305118 -0.210869 0)
(-0.283106 -0.209082 0)
(-0.254748 -0.199896 0)
(-0.220455 -0.182717 0)
(-0.181704 -0.15792 0)
(-0.141135 -0.127181 0)
(-0.102252 -0.0935113 0)
(-0.0685779 -0.0607051 0)
(-0.042411 -0.0321305 0)
(-0.0239915 -0.00954871 0)
(-0.0119624 0.00702027 0)
(-0.00456658 0.0184125 0)
(-0.000408784 0.0255373 0)
(0.00147547 0.0290718 0)
(0.00182777 0.0293627 0)
(0.00130391 0.0263644 0)
(0.000528721 0.0196123 0)
(2.07076e-05 0.00832089 0)
(0.000236823 -0.00960164 0)
(-0.000597829 -0.0153412 0)
(-0.00403742 -0.0108684 0)
(-0.0103448 0.000175462 0)
(-0.0196138 0.0148054 0)
(-0.0319394 0.031223 0)
(-0.0475299 0.0488401 0)
(-0.0666216 0.0677351 0)
(-0.0892267 0.0879463 0)
(-0.114854 0.10896 0)
(-0.142433 0.129612 0)
(-0.170523 0.148409 0)
(-0.197686 0.16401 0)
(-0.222798 0.175576 0)
(-0.245165 0.182818 0)
(-0.264448 0.185862 0)
(-0.280567 0.185083 0)
(-0.293623 0.180987 0)
(-0.303854 0.174139 0)
(-0.31159 0.165106 0)
(-0.317209 0.154415 0)
(-0.321106 0.142524 0)
(-0.323652 0.129812 0)
(-0.325182 0.116571 0)
(-0.325975 0.103013 0)
(-0.326259 0.0892804 0)
(-0.326207 0.0754599 0)
(-0.325949 0.0615917 0)
(-0.325583 0.0476833 0)
(-0.325188 0.0337201 0)
(-0.324825 0.0196766 0)
(-0.32454 0.00552318 0)
(-0.324359 -0.00877739 0)
(-0.324313 -0.0232846 0)
(-0.324451 -0.0380568 0)
(-0.324823 -0.0531482 0)
(-0.325478 -0.0686093 0)
(-0.326454 -0.0844837 0)
(-0.32777 -0.100801 0)
(-0.329398 -0.117565 0)
(-0.331241 -0.134727 0)
(-0.333088 -0.152159 0)
(-0.334565 -0.169598 0)
(-0.335085 -0.186589 0)
(-0.333809 -0.202418 0)
(-0.329633 -0.216058 0)
(-0.321248 -0.226142 0)
(-0.307275 -0.231027 0)
(-0.286514 -0.228951 0)
(-0.258296 -0.21836 0)
(-0.222896 -0.198377 0)
(-0.18195 -0.169374 0)
(-0.138639 -0.133475 0)
(-0.0973548 -0.0946552 0)
(-0.0625061 -0.0578756 0)
(-0.0366862 -0.0272067 0)
(-0.0196303 -0.00422827 0)
(-0.00925095 0.0116908 0)
(-0.00336172 0.0218959 0)
(-0.000388781 0.0274938 0)
(0.000724705 0.0290789 0)
(0.000761171 0.0267307 0)
(0.000362179 0.0200857 0)
(2.33472e-05 0.00852372 0)
(5.4184e-05 -0.0089969 0)
(-0.00236559 -0.0122881 0)
(-0.00804421 -0.00485136 0)
(-0.0168536 0.00930503 0)
(-0.0287532 0.0270751 0)
(-0.0438468 0.0467426 0)
(-0.0622808 0.0677763 0)
(-0.0840843 0.0900731 0)
(-0.108888 0.113214 0)
(-0.135758 0.136133 0)
(-0.163313 0.157293 0)
(-0.19007 0.175184 0)
(-0.214799 0.188756 0)
(-0.2367 0.197575 0)
(-0.25538 0.201711 0)
(-0.270735 0.201556 0)
(-0.282882 0.197679 0)
(-0.292094 0.190735 0)
(-0.298758 0.181387 0)
(-0.303315 0.170255 0)
(-0.306212 0.157877 0)
(-0.307867 0.144691 0)
(-0.308641 0.131027 0)
(-0.308828 0.117119 0)
(-0.30865 0.10312 0)
(-0.308271 0.0891167 0)
(-0.307799 0.0751465 0)
(-0.307308 0.0612138 0)
(-0.306843 0.0472999 0)
(-0.306436 0.0333741 0)
(-0.30611 0.0194023 0)
(-0.305882 0.00535141 0)
(-0.305763 -0.00881552 0)
(-0.305781 -0.0231486 0)
(-0.305971 -0.0376954 0)
(-0.306381 -0.0525027 0)
(-0.307068 -0.0676164 0)
(-0.308094 -0.0830832 0)
(-0.309521 -0.0989493 0)
(-0.311395 -0.115256 0)
(-0.313732 -0.132029 0)
(-0.316482 -0.149258 0)
(-0.319486 -0.166861 0)
(-0.322414 -0.184627 0)
(-0.324697 -0.202141 0)
(-0.32546 -0.218697 0)
(-0.323491 -0.233199 0)
(-0.317272 -0.244115 0)
(-0.305125 -0.249499 0)
(-0.285491 -0.24717 0)
(-0.257372 -0.235098 0)
(-0.220881 -0.212034 0)
(-0.17782 -0.178332 0)
(-0.132008 -0.136738 0)
(-0.0888851 -0.0925369 0)
(-0.053804 -0.0521623 0)
(-0.0293591 -0.0202608 0)
(-0.0143698 0.00219847 0)
(-0.00594503 0.0166978 0)
(-0.00162044 0.0249989 0)
(0.000225268 0.0282193 0)
(0.000651862 0.0267433 0)
(0.00041222 0.0203921 0)
(5.58132e-05 0.00870911 0)
(-0.000212691 -0.00733224 0)
(-0.00447394 -0.00716678 0)
(-0.0124948 0.00362508 0)
(-0.0237941 0.0210258 0)
(-0.0382249 0.0420038 0)
(-0.0558357 0.0649313 0)
(-0.0766396 0.0892091 0)
(-0.100379 0.114395 0)
(-0.126301 0.139552 0)
(-0.153152 0.163177 0)
(-0.179448 0.18361 0)
(-0.203855 0.199551 0)
(-0.225447 0.210348 0)
(-0.243739 0.21596 0)
(-0.25859 0.216765 0)
(-0.270112 0.213386 0)
(-0.278606 0.206564 0)
(-0.284505 0.19707 0)
(-0.288302 0.185627 0)
(-0.290499 0.172866 0)
(-0.291552 0.159289 0)
(-0.291845 0.145272 0)
(-0.291682 0.131075 0)
(-0.291281 0.116856 0)
(-0.29079 0.102701 0)
(-0.290299 0.0886441 0)
(-0.289856 0.074682 0)
(-0.289484 0.0607918 0)
(-0.289188 0.046939 0)
(-0.28897 0.0330858 0)
(-0.288826 0.019196 0)
(-0.288756 0.00523699 0)
(-0.288764 -0.00882392 0)
(-0.288871 -0.0230254 0)
(-0.289101 -0.0374013 0)
(-0.289493 -0.0519854 0)
(-0.290099 -0.066811 0)
(-0.29098 -0.0819148 0)
(-0.292209 -0.0973382 0)
(-0.293866 -0.113129 0)
(-0.296022 -0.129339 0)
(-0.298728 -0.146018 0)
(-0.301979 -0.163193 0)
(-0.305666 -0.180835 0)
(-0.309511 -0.198791 0)
(-0.312979 -0.2167 0)
(-0.31519 -0.233867 0)
(-0.314853 -0.24914 0)
(-0.31028 -0.260806 0)
(-0.299517 -0.266586 0)
(-0.280657 -0.26381 0)
(-0.252369 -0.249883 0)
(-0.214614 -0.223121 0)
(-0.169422 -0.183928 0)
(-0.12141 -0.135982 0)
(-0.0772905 -0.0864089 0)
(-0.0432937 -0.04337 0)
(-0.0213977 -0.0115922 0)
(-0.00904339 0.00918757 0)
(-0.00271912 0.0213377 0)
(5.97857e-05 0.0268122 0)
(0.000837229 0.0265608 0)
(0.000618451 0.020717 0)
(0.000109274 0.00898494 0)
(-0.000546616 -0.0044383 0)
(-0.00676483 0.000157151 0)
(-0.0171101 0.0145545 0)
(-0.0307735 0.0351931 0)
(-0.0474654 0.0593076 0)
(-0.0671638 0.0853078 0)
(-0.089688 0.112394 0)
(-0.114473 0.139695 0)
(-0.140456 0.165806 0)
(-0.166226 0.18898 0)
(-0.190376 0.207659 0)
(-0.211833 0.220895 0)
(-0.229988 0.228454 0)
(-0.244631 0.23065 0)
(-0.25585 0.228131 0)
(-0.263951 0.22172 0)
(-0.269398 0.212297 0)
(-0.272732 0.200704 0)
(-0.274499 0.187674 0)
(-0.275194 0.173793 0)
(-0.275224 0.15949 0)
(-0.274902 0.145053 0)
(-0.274442 0.130654 0)
(-0.273979 0.116378 0)
(-0.273585 0.10225 0)
(-0.273291 0.0882616 0)
(-0.273099 0.0743819 0)
(-0.272998 0.0605725 0)
(-0.272972 0.046793 0)
(-0.273007 0.0330053 0)
(-0.273089 0.0191762 0)
(-0.27321 0.00527613 0)
(-0.273373 -0.00872215 0)
(-0.273593 -0.0228446 0)
(-0.273884 -0.0371133 0)
(-0.274276 -0.0515494 0)
(-0.274808 -0.0661737 0)
(-0.27553 -0.0810089 0)
(-0.276507 -0.096083 0)
(-0.277817 -0.111433 0)
(-0.279548 -0.127109 0)
(-0.281791 -0.143176 0)
(-0.284626 -0.159708 0)
(-0.288089 -0.176773 0)
(-0.292121 -0.194397 0)
(-0.296493 -0.21249 0)
(-0.300704 -0.23074 0)
(-0.30387 -0.24846 0)
(-0.304636 -0.264418 0)
(-0.301154 -0.276686 0)
(-0.291216 -0.28259 0)
(-0.272592 -0.278896 0)
(-0.243653 -0.262365 0)
(-0.204269 -0.230867 0)
(-0.156847 -0.185057 0)
(-0.107086 -0.130114 0)
(-0.0632331 -0.0757361 0)
(-0.0320151 -0.0317568 0)
(-0.0137593 -0.00188209 0)
(-0.00436936 0.0159212 0)
(-0.000175468 0.0246686 0)
(0.00109977 0.0262028 0)
(0.00088857 0.0211541 0)
(0.000172457 0.0094151 0)
(-0.000906919 -0.000217958 0)
(-0.00907247 0.00967665 0)
(-0.0215903 0.0277528 0)
(-0.0373504 0.0515114 0)
(-0.0559104 0.0785513 0)
(-0.0771482 0.107248 0)
(-0.100664 0.136506 0)
(-0.125621 0.165012 0)
(-0.150764 0.191023 0)
(-0.174679 0.212755 0)
(-0.196155 0.228914 0)
(-0.214421 0.238966 0)
(-0.229159 0.243076 0)
(-0.240402 0.241872 0)
(-0.248438 0.236237 0)
(-0.253741 0.22716 0)
(-0.256885 0.21561 0)
(-0.258457 0.202442 0)
(-0.258988 0.188342 0)
(-0.258915 0.173808 0)
(-0.25856 0.15917 0)
(-0.258139 0.144617 0)
(-0.257777 0.130235 0)
(-0.257535 0.116047 0)
(-0.257425 0.102032 0)
(-0.257439 0.0881546 0)
(-0.257552 0.0743695 0)
(-0.257739 0.0606338 0)
(-0.257978 0.0469088 0)
(-0.258249 0.033161 0)
(-0.258541 0.0193622 0)
(-0.258845 0.00548797 0)
(-0.259164 -0.00848331 0)
(-0.259509 -0.0225681 0)
(-0.259889 -0.0367804 0)
(-0.260325 -0.0511321 0)
(-0.260842 -0.0656337 0)
(-0.261477 -0.0802959 0)
(-0.262274 -0.0951324 0)
(-0.263295 -0.110164 0)
(-0.264614 -0.125424 0)
(-0.266324 -0.140967 0)
(-0.268531 -0.15687 0)
(-0.271341 -0.173236 0)
(-0.274828 -0.190179 0)
(-0.278983 -0.207784 0)
(-0.283622 -0.226023 0)
(-0.288272 -0.244628 0)
(-0.292032 -0.262897 0)
(-0.293461 -0.27947 0)
(-0.290541 -0.292129 0)
(-0.280808 -0.297709 0)
(-0.261739 -0.292301 0)
(-0.231476 -0.271961 0)
(-0.189945 -0.2342 0)
(-0.140204 -0.18037 0)
(-0.0894779 -0.11812 0)
(-0.0477756 -0.0605443 0)
(-0.0212138 -0.0182108 0)
(-0.00728819 0.00781955 0)
(-0.00092383 0.021357 0)
(0.00119721 0.0255138 0)
(0.0011221 0.0216778 0)
(0.000234084 0.0100082 0)
(-0.00125773 0.00533096 0)
(-0.0112311 0.0212285 0)
(-0.0256558 0.0429422 0)
(-0.0431326 0.0695837 0)
(-0.0630791 0.0992044 0)
(-0.085253 0.130074 0)
(-0.109043 0.160749 0)
(-0.133417 0.189538 0)
(-0.157045 0.214518 0)
(-0.178626 0.234039 0)
(-0.197212 0.247171 0)
(-0.212329 0.253805 0)
(-0.223912 0.254471 0)
(-0.232201 0.250071 0)
(-0.237656 0.241687 0)
(-0.240864 0.230419 0)
(-0.242447 0.217264 0)
(-0.242975 0.203032 0)
(-0.242914 0.188314 0)
(-0.242608 0.173496 0)
(-0.242277 0.158797 0)
(-0.242045 0.144313 0)
(-0.241964 0.130061 0)
(-0.242037 0.116015 0)
(-0.242244 0.102129 0)
(-0.242554 0.088353 0)
(-0.242935 0.0746414 0)
(-0.243361 0.0609537 0)
(-0.24381 0.047257 0)
(-0.244269 0.0335241 0)
(-0.244728 0.0197327 0)
(-0.245186 0.00586338 0)
(-0.245646 -0.00810054 0)
(-0.246114 -0.0221704 0)
(-0.246601 -0.0363556 0)
(-0.247118 -0.0506629 0)
(-0.247682 -0.0650968 0)
(-0.248314 -0.0796599 0)
(-0.249042 -0.0943552 0)
(-0.249903 -0.109189 0)
(-0.250948 -0.124175 0)
(-0.252247 -0.139346 0)
(-0.253893 -0.154758 0)
(-0.256 -0.170504 0)
(-0.258698 -0.186717 0)
(-0.262101 -0.203561 0)
(-0.266245 -0.221185 0)
(-0.270993 -0.239627 0)
(-0.275886 -0.258653 0)
(-0.279981 -0.277505 0)
(-0.281711 -0.294621 0)
(-0.278846 -0.307369 0)
(-0.268648 -0.31194 0)
(-0.248327 -0.303617 0)
(-0.21592 -0.277717 0)
(-0.171654 -0.231651 0)
(-0.119691 -0.168349 0)
(-0.0694502 -0.0994476 0)
(-0.0324972 -0.0418284 0)
(-0.0120784 -0.00420451 0)
(-0.00256367 0.0162264 0)
(0.000922308 0.0241765 0)
(0.00123922 0.0221496 0)
(0.000286679 0.010722 0)
(-0.00157716 0.0120703 0)
(-0.0130967 0.0345152 0)
(-0.0290573 0.0597368 0)
(-0.0478057 0.0889393 0)
(-0.0686197 0.120698 0)
(-0.0911345 0.15313 0)
(-0.114566 0.184445 0)
(-0.137767 0.212672 0)
(-0.159438 0.235869 0)
(-0.178472 0.252645 0)
(-0.1942 0.262478 0)
(-0.20641 0.265669 0)
(-0.215255 0.263069 0)
(-0.221147 0.255818 0)
(-0.224664 0.24514 0)
(-0.226451 0.23219 0)
(-0.227114 0.217928 0)
(-0.227159 0.203069 0)
(-0.226955 0.188081 0)
(-0.226741 0.173229 0)
(-0.226645 0.158629 0)
(-0.226716 0.144298 0)
(-0.226952 0.130204 0)
(-0.227326 0.116294 0)
(-0.227801 0.102512 0)
(-0.228343 0.088807 0)
(-0.228921 0.0751377 0)
(-0.229516 0.0614711 0)
(-0.230114 0.0477811 0)
(-0.230706 0.0340469 0)
(-0.23129 0.020251 0)
(-0.231868 0.00637812 0)
(-0.232445 -0.00758465 0)
(-0.233028 -0.0216468 0)
(-0.233623 -0.0358159 0)
(-0.234241 -0.0500967 0)
(-0.23489 -0.0644913 0)
(-0.235581 -0.0789987 0)
(-0.236329 -0.0936162 0)
(-0.237152 -0.10834 0)
(-0.238076 -0.123171 0)
(-0.239143 -0.138119 0)
(-0.240414 -0.153213 0)
(-0.24198 -0.168515 0)
(-0.243965 -0.184134 0)
(-0.246518 -0.200236 0)
(-0.24979 -0.21704 0)
(-0.253866 -0.234763 0)
(-0.258643 -0.25351 0)
(-0.26366 -0.273059 0)
(-0.267893 -0.292544 0)
(-0.269594 -0.310084 0)
(-0.266259 -0.322455 0)
(-0.254844 -0.324996 0)
(-0.232344 -0.312017 0)
(-0.196874 -0.278146 0)
(-0.149358 -0.221302 0)
(-0.0957895 -0.14761 0)
(-0.0486121 -0.0747273 0)
(-0.0192576 -0.0217133 0)
(-0.00534351 0.00844604 0)
(0.000147543 0.021752 0)
(0.00119708 0.0223501 0)
(0.000328715 0.0114819 0)
(-0.00181985 0.0197765 0)
(-0.0145323 0.049167 0)
(-0.0316091 0.0776981 0)
(-0.0511585 0.109081 0)
(-0.0723285 0.142481 0)
(-0.0946464 0.17584 0)
(-0.117206 0.207065 0)
(-0.138825 0.234025 0)
(-0.158313 0.254889 0)
(-0.174797 0.268601 0)
(-0.187868 0.275063 0)
(-0.197541 0.274948 0)
(-0.204144 0.269389 0)
(-0.208214 0.25971 0)
(-0.210397 0.247223 0)
(-0.211333 0.23307 0)
(-0.211569 0.218123 0)
(-0.211513 0.202968 0)
(-0.211432 0.187943 0)
(-0.211468 0.173196 0)
(-0.211675 0.158758 0)
(-0.212051 0.144592 0)
(-0.212563 0.130637 0)
(-0.213173 0.116829 0)
(-0.213844 0.103113 0)
(-0.214543 0.0894435 0)
(-0.215252 0.0757887 0)
(-0.215957 0.0621229 0)
(-0.216652 0.0484266 0)
(-0.217336 0.0346837 0)
(-0.218011 0.0208805 0)
(-0.218682 0.0070044 0)
(-0.219355 -0.00695559 0)
(-0.220037 -0.0210085 0)
(-0.220734 -0.0351617 0)
(-0.221454 -0.04942 0)
(-0.222202 -0.0637855 0)
(-0.222984 -0.0782569 0)
(-0.223804 -0.0928297 0)
(-0.224668 -0.107497 0)
(-0.225585 -0.12225 0)
(-0.226571 -0.137085 0)
(-0.227658 -0.152007 0)
(-0.228898 -0.167045 0)
(-0.230382 -0.182268 0)
(-0.232241 -0.197804 0)
(-0.23465 -0.21386 0)
(-0.237795 -0.230713 0)
(-0.2418 -0.248658 0)
(-0.246588 -0.267859 0)
(-0.25166 -0.28807 0)
(-0.255856 -0.308225 0)
(-0.257172 -0.325954 0)
(-0.252761 -0.337196 0)
(-0.23925 -0.336169 0)
(-0.21352 -0.316059 0)
(-0.174066 -0.27108 0)
(-0.123115 -0.200919 0)
(-0.0696453 -0.117699 0)
(-0.0295271 -0.0465915 0)
(-0.00939368 -0.00299846 0)
(-0.00118377 0.0177175 0)
(0.00099049 0.0220149 0)
(0.000364532 0.0122032 0)
(-0.00195709 0.0281801 0)
(-0.0154521 0.0647642 0)
(-0.0332029 0.0963691 0)
(-0.0530893 0.129527 0)
(-0.0741455 0.164057 0)
(-0.0958149 0.197739 0)
(-0.117122 0.228243 0)
(-0.136918 0.253394 0)
(-0.154173 0.271567 0)
(-0.168252 0.282086 0)
(-0.178974 0.28526 0)
(-0.186538 0.282096 0)
(-0.191403 0.273959 0)
(-0.194184 0.262303 0)
(-0.19554 0.248464 0)
(-0.19606 0.233515 0)
(-0.196202 0.218204 0)
(-0.196271 0.202977 0)
(-0.196437 0.188043 0)
(-0.196766 0.173456 0)
(-0.19726 0.159182 0)
(-0.197889 0.145153 0)
(-0.198611 0.131295 0)
(-0.199385 0.117546 0)
(-0.200182 0.103859 0)
(-0.200981 0.0901973 0)
(-0.20177 0.0765375 0)
(-0.202544 0.0628609 0)
(-0.203304 0.0491529 0)
(-0.204053 0.035401 0)
(-0.204796 0.0215933 0)
(-0.205541 0.00771868 0)