/*--------------------------------*- C++ -*----------------------------------*\
| =========                 |                                                 |
| \\      /  F ield         | OpenFOAM: The Open Source CFD Toolbox           |
|  \\    /   O peration     | Version:  2406                                  |
|   \\  /    A nd           | Website:  www.openfoam.com                      |
|    \\/     M anipulation  |                                                 |
\*---------------------------------------------------------------------------*/
FoamFile
{
    version     2.0;
    format      ascii;
    arch        "LSB;label=32;scalar=64";
    class       volVectorField;
    location    "36.95";
    object      U_0;
}
// * * * * * * * * * * * * * * * * * * * * * * * * * * * * * * * * * * * * * //

dimensions      [0 1 -1 0 0 0 0];

internalField   nonuniform List<vector> 
14400
(
(-6.44934e-06 6.3557e-06 0)
(1.49078e-05 -1.09334e-05 0)
(0.000118039 -3.32421e-05 0)
(0.000298405 -5.12506e-05 0)
(0.000537049 -6.36414e-05 0)
(0.000812634 -7.02629e-05 0)
(0.00110394 -7.17091e-05 0)
(0.00139229 -6.88488e-05 0)
(0.00166256 -6.2732e-05 0)
(0.00190379 -5.4471e-05 0)
(0.00210927 -4.51489e-05 0)
(0.00227634 -3.57336e-05 0)
(0.00240581 -2.7011e-05 0)
(0.00250122 -1.95437e-05 0)
(0.0025679 -1.36521e-05 0)
(0.0026121 -9.41579e-06 0)
(0.00264016 -6.7502e-06 0)
(0.00265759 -5.4979e-06 0)
(0.00266847 -5.24932e-06 0)
(0.00267531 -5.53823e-06 0)
(0.00267853 -5.82965e-06 0)
(0.002677 -5.37767e-06 0)
(0.0026681 -3.95355e-06 0)
(0.00264757 -1.4342e-06 0)
(0.00261029 2.33021e-06 0)
(0.00255058 7.42644e-06 0)
(0.00246253 1.38844e-05 0)
(0.00234009 2.17107e-05 0)
(0.00217719 3.09135e-05 0)
(0.00196767 4.15168e-05 0)
(0.00170527 5.3564e-05 0)
(0.00138359 6.71114e-05 0)
(0.000996051 8.22153e-05 0)
(0.000535968 9.89172e-05 0)
(-3.34067e-06 0.000117231 0)
(-0.000628399 0.00013713 0)
(-0.00134538 0.000158546 0)
(-0.00215987 0.000181354 0)
(-0.00307667 0.000205381 0)
(-0.00409948 0.000230394 0)
(-0.00523072 0.000256108 0)
(-0.00647125 0.000282185 0)
(-0.00782016 0.000308235 0)
(-0.00927458 0.000333823 0)
(-0.0108295 0.000358476 0)
(-0.0124776 0.000381687 0)
(-0.0142094 0.000402928 0)
(-0.0160128 0.000421655 0)
(-0.0178737 0.000437317 0)
(-0.0197754 0.000449365 0)
(-0.0216994 0.000457261 0)
(-0.0236249 0.00046048 0)
(-0.0255297 0.000458523 0)
(-0.0273898 0.000450923 0)
(-0.0291801 0.000437249 0)
(-0.0308744 0.000417118 0)
(-0.0324461 0.0003902 0)
(-0.0338682 0.000356238 0)
(-0.0351137 0.000315058 0)
(-0.0361563 0.000266494 0)
(-0.0369712 0.000210671 0)
(-0.0375352 0.000149083 0)
(-0.0378248 8.28068e-05 0)
(-0.0378189 9.66215e-06 0)
(-0.0375036 -7.05362e-05 0)
(-0.0368681 -0.000154848 0)
(-0.0359033 -0.000241669 0)
(-0.0346066 -0.000329691 0)
(-0.0329811 -0.000417243 0)
(-0.0310361 -0.000502452 0)
(-0.0287877 -0.000583287 0)
(-0.0262585 -0.000657615 0)
(-0.0234785 -0.000723288 0)
(-0.0204839 -0.000778234 0)
(-0.0173176 -0.000820561 0)
(-0.0140276 -0.000848661 0)
(-0.0106665 -0.000861315 0)
(-0.00729014 -0.000857788 0)
(-0.00395563 -0.000837898 0)
(-0.000719996 -0.000802065 0)
(0.00236183 -0.00075132 0)
(0.00523887 -0.000687279 0)
(0.0078659 -0.000612071 0)
(0.0102049 -0.000528239 0)
(0.0122266 -0.000438598 0)
(0.0139109 -0.000346085 0)
(0.0152479 -0.000253593 0)
(0.0162373 -0.000163809 0)
(0.0168883 -7.90154e-05 0)
(0.0172196 -1.41274e-06 0)
(0.0172559 6.59623e-05 0)
(0.0170256 0.00012239 0)
(0.0165645 0.000170097 0)
(0.0159123 0.00020884 0)
(0.0151066 0.000237576 0)
(0.0141844 0.000256861 0)
(0.0131812 0.000267727 0)
(0.01213 0.000271264 0)
(0.0110595 0.00026863 0)
(0.00999454 0.000260995 0)
(0.00895559 0.000249487 0)
(0.00795864 0.000235153 0)
(0.00701559 0.000218937 0)
(0.00613457 0.000201658 0)
(0.00532036 0.00018401 0)
(0.00457493 0.000166565 0)
(0.00389783 0.000149777 0)
(0.00328675 0.000133997 0)
(0.00273797 0.000119469 0)
(0.00224678 0.000106331 0)
(0.00180802 9.45902e-05 0)
(0.00141674 8.4092e-05 0)
(0.00106887 7.44784e-05 0)
(0.000762112 6.51527e-05 0)
(0.000496857 5.5269e-05 0)
(0.000276881 4.3828e-05 0)
(0.000109476 2.9944e-05 0)
(3.94497e-06 1.33578e-05 0)
(-3.48485e-05 -3.81442e-06 0)
(-1.36486e-05 -1.36698e-05 0)
(9.89117e-06 -1.41119e-05 0)
(0.000146255 -0.000150249 0)
(0.000455408 -0.000315252 0)
(0.00093088 -0.000452641 0)
(0.00152937 -0.000549055 0)
(0.00220741 -0.000601768 0)
(0.00291897 -0.000613631 0)
(0.00362214 -0.000590598 0)
(0.00428198 -0.000540412 0)
(0.00487223 -0.000471599 0)
(0.00537581 -0.000392646 0)
(0.00578453 -0.000311282 0)
(0.00609805 -0.000233912 0)
(0.00632225 -0.000165243 0)
(0.00646731 -0.000108101 0)
(0.00654561 -6.3445e-05 0)
(0.00656975 -3.05714e-05 0)
(0.00655077 -7.45712e-06 0)
(0.00649677 9.0662e-06 0)
(0.00641183 2.28069e-05 0)
(0.00629579 3.77324e-05 0)
(0.00614389 5.7742e-05 0)
(0.0059473 8.58617e-05 0)
(0.00569414 0.000124371 0)
(0.00537015 0.000174844 0)
(0.00495944 0.000238196 0)
(0.00444526 0.000314864 0)
(0.00381043 0.000405017 0)
(0.00303765 0.000508739 0)
(0.00210959 0.000626143 0)
(0.001009 0.000757389 0)
(-0.000281243 0.000902633 0)
(-0.00177791 0.00106192 0)
(-0.00349708 0.00123508 0)
(-0.00545374 0.0014216 0)
(-0.00766115 0.00162054 0)
(-0.0101303 0.0018305 0)
(-0.0128692 0.00204954 0)
(-0.0158822 0.00227522 0)
(-0.0191695 0.00250456 0)
(-0.0227262 0.0027341 0)
(-0.0265425 0.00295993 0)
(-0.0306026 0.00317775 0)
(-0.0348852 0.00338301 0)
(-0.0393628 0.00357092 0)
(-0.0440025 0.00373665 0)
(-0.0487657 0.00387537 0)
(-0.053609 0.00398242 0)
(-0.0584847 0.00405339 0)
(-0.0633415 0.00408424 0)
(-0.0681249 0.00407136 0)
(-0.072779 0.00401163 0)
(-0.0772462 0.00390255 0)
(-0.081469 0.00374218 0)
(-0.0853904 0.00352929 0)
(-0.0889546 0.00326327 0)
(-0.0921083 0.00294425 0)
(-0.0948005 0.00257309 0)
(-0.0969842 0.00215143 0)
(-0.0986163 0.0016817 0)
(-0.0996581 0.00116726 0)
(-0.100077 0.00061329 0)
(-0.0998473 2.61437e-05 0)
(-0.0989486 -0.000590419 0)
(-0.097365 -0.0012304 0)
(-0.0950927 -0.00188428 0)
(-0.0921348 -0.00254266 0)
(-0.0885035 -0.00319522 0)
(-0.0842197 -0.0038309 0)
(-0.0793147 -0.00443796 0)
(-0.0738292 -0.00500422 0)
(-0.0678144 -0.00551736 0)
(-0.0613311 -0.00596527 0)
(-0.0544499 -0.00633648 0)
(-0.0472502 -0.00662058 0)
(-0.039819 -0.00680877 0)
(-0.0322502 -0.00689424 0)
(-0.0246423 -0.0068727 0)
(-0.0170969 -0.00674268 0)
(-0.00971601 -0.00650584 0)
(-0.00260017 -0.0061671 0)
(0.00415458 -0.00573462 0)
(0.0104591 -0.00521956 0)
(0.0162336 -0.0046358 0)
(0.0214102 -0.00399934 0)
(0.0259345 -0.00332771 0)
(0.0297676 -0.00263918 0)
(0.032887 -0.00195203 0)
(0.0352867 -0.00128371 0)
(0.036977 -0.000650358 0)
(0.0379844 -6.67853e-05 0)
(0.0383511 0.000456281 0)
(0.0381318 0.000913433 0)
(0.037389 0.00129928 0)
(0.0361934 0.00161052 0)
(0.034621 0.00184788 0)
(0.0327491 0.00201481 0)
(0.0306534 0.00211682 0)
(0.0284058 0.0021609 0)
(0.0260724 0.0021551 0)
(0.0237117 0.00210793 0)
(0.0213736 0.00202791 0)
(0.0190993 0.00192326 0)
(0.0169207 0.00180152 0)
(0.0148613 0.00166944 0)
(0.0129368 0.00153282 0)
(0.0111558 0.00139653 0)
(0.00952106 0.00126442 0)
(0.00803053 0.0011394 0)
(0.00667869 0.00102327 0)
(0.00545786 0.000916663 0)
(0.00435977 0.000818751 0)
(0.00337739 0.000727055 0)
(0.00250677 0.000637294 0)
(0.0017489 0.000543532 0)
(0.00111088 0.000439038 0)
(0.000605758 0.000318401 0)
(0.000248385 0.000182081 0)
(5.02662e-05 4.46549e-05 0)
(-2.6755e-06 -3.3839e-05 0)
(3.06371e-05 -0.000111931 0)
(0.000302387 -0.000455673 0)
(0.000803241 -0.0008189 0)
(0.00152156 -0.00111977 0)
(0.00239304 -0.00133145 0)
(0.00336248 -0.00144657 0)
(0.00436968 -0.00146973 0)
(0.00535897 -0.00141295 0)
(0.00628328 -0.0012928 0)
(0.00710642 -0.00112799 0)
(0.00780397 -0.000937454 0)
(0.00836301 -0.000738616 0)
(0.00878083 -0.00054608 0)
(0.00906293 -0.00037071 0)
(0.00922047 -0.000219163 0)
(0.00926755 -9.38351e-05 0)
(0.0092185 6.83979e-06 0)
(0.00908552 8.7734e-05 0)
(0.00887672 0.000156142 0)
(0.00859471 0.000220877 0)
(0.00823596 0.000291163 0)
(0.00779078 0.00037561 0)
(0.00724384 0.000481764 0)
(0.00657532 0.00061548 0)
(0.00576191 0.000780785 0)
(0.00477805 0.000980103 0)
(0.0035969 0.00121465 0)
(0.00219111 0.00148486 0)
(0.000533349 0.00179078 0)
(-0.00140326 0.00213229 0)
(-0.0036448 0.00250906 0)
(-0.00621605 0.00292046 0)
(-0.0091399 0.00336531 0)
(-0.0124366 0.00384158 0)
(-0.0161226 0.00434621 0)
(-0.0202101 0.00487487 0)
(-0.0247051 0.00542194 0)
(-0.0296073 0.00598042 0)
(-0.0349085 0.00654205 0)
(-0.0405924 0.00709737 0)
(-0.0466336 0.00763595 0)
(-0.052998 0.00814659 0)
(-0.0596424 0.00861766 0)
(-0.0665154 0.00903737 0)
(-0.0735579 0.00939414 0)
(-0.0807041 0.00967694 0)
(-0.0878832 0.00987562 0)
(-0.0950204 0.00998115 0)
(-0.102039 0.00998588 0)
(-0.108861 0.00988368 0)
(-0.115409 0.00967005 0)
(-0.121609 0.00934217 0)
(-0.127388 0.00889885 0)
(-0.132679 0.00834052 0)
(-0.137418 0.00766909 0)
(-0.141549 0.00688793 0)
(-0.14502 0.00600175 0)
(-0.147785 0.00501653 0)
(-0.149804 0.0039395 0)
(-0.151046 0.00277912 0)
(-0.151483 0.00154497 0)
(-0.151096 0.000247417 0)
(-0.149871 -0.00110129 0)
(-0.147806 -0.00248611 0)
(-0.144899 -0.00389293 0)
(-0.14116 -0.00530627 0)
(-0.136604 -0.00670862 0)
(-0.131255 -0.00808101 0)
(-0.125148 -0.00940344 0)
(-0.118322 -0.010655 0)
(-0.110828 -0.0118144 0)
(-0.102724 -0.0128599 0)
(-0.0940801 -0.0137706 0)
(-0.0849713 -0.0145264 0)
(-0.0754835 -0.015109 0)
(-0.0657097 -0.0155026 0)
(-0.0557497 -0.0156946 0)
(-0.0457091 -0.0156766 0)
(-0.0356972 -0.0154446 0)
(-0.025826 -0.015 0)
(-0.0162071 -0.0143495 0)
(-0.0069503 -0.0135056 0)
(0.00183932 -0.0124861 0)
(0.0100637 -0.0113139 0)
(0.0176341 -0.0100165 0)
(0.0244735 -0.00862474 0)
(0.0305186 -0.00717188 0)
(0.0357213 -0.00569257 0)
(0.0400504 -0.00422142 0)
(0.0434919 -0.00279163 0)
(0.0460504 -0.00143332 0)
(0.0477492 -0.000173257 0)
(0.0486273 0.000965469 0)
(0.0487381 0.0019648 0)
(0.0481506 0.00281395 0)
(0.0469451 0.0035074 0)
(0.0452099 0.00404513 0)
(0.0430376 0.00443242 0)
(0.0405226 0.00467912 0)
(0.0377571 0.00479875 0)
(0.0348285 0.0048074 0)
(0.0318164 0.00472274 0)
(0.028791 0.00456293 0)
(0.0258116 0.0043458 0)
(0.0229259 0.00408808 0)
(0.0201709 0.00380492 0)
(0.0175723 0.00350952 0)
(0.0151465 0.00321291 0)
(0.0129017 0.0029237 0)
(0.0108392 0.00264786 0)
(0.00895617 0.00238837 0)
(0.00724696 0.00214473 0)
(0.0057062 0.00191262 0)
(0.00433102 0.00168378 0)
(0.00312347 0.00144655 0)
(0.00209192 0.0011879 0)
(0.00125098 0.000897732 0)
(0.000615607 0.000577008 0)
(0.00020894 0.000250956 0)
(1.74921e-05 1.33074e-05 0)
(4.71496e-05 -0.000281954 0)
(0.000433438 -0.0009216 0)
(0.00109688 -0.00153582 0)
(0.00201373 -0.00203446 0)
(0.0030964 -0.00238093 0)
(0.00427941 -0.00256427 0)
(0.00549233 -0.00259161 0)
(0.00667058 -0.00248236 0)
(0.00775955 -0.00226373 0)
(0.00871699 -0.00196683 0)
(0.00951386 -0.00162328 0)
(0.0101339 -0.0012623 0)
(0.0105724 -0.000908465 0)
(0.0108332 -0.00058011 0)
(0.0109267 -0.000288459 0)
(0.010866 -3.74858e-05 0)
(0.010664 0.000175613 0)
(0.0103309 0.000359389 0)
(0.00987156 0.000526658 0)
(0.00928412 0.0006928 0)
(0.00855938 0.000873996 0)
(0.00768072 0.00108555 0)
(0.00662496 0.00134065 0)
(0.00536356 0.00164956 0)
(0.0038641 0.0020194 0)
(0.00209172 0.00245444 0)
(1.04342e-05 0.0029567 0)
(-0.00241579 0.00352664 0)
(-0.00522215 0.00416366 0)
(-0.00844216 0.0048664 0)
(-0.0121067 0.00563268 0)
(-0.0162432 0.00645918 0)
(-0.0208741 0.00734105 0)
(-0.0260157 0.00827146 0)
(-0.0316767 0.00924128 0)
(-0.0378565 0.0102389 0)
(-0.0445446 0.0112503 0)
(-0.0517188 0.012259 0)
(-0.0593453 0.0132465 0)
(-0.0673781 0.014193 0)
(-0.0757598 0.0150775 0)
(-0.084422 0.0158787 0)
(-0.0932874 0.0165758 0)
(-0.102271 0.0171492 0)
(-0.111283 0.0175808 0)
(-0.12023 0.0178551 0)
(-0.129019 0.0179594 0)
(-0.137558 0.017884 0)
(-0.145759 0.0176222 0)
(-0.153539 0.0171709 0)
(-0.160821 0.0165296 0)
(-0.167536 0.0157007 0)
(-0.173621 0.0146891 0)
(-0.179023 0.0135015 0)
(-0.183694 0.0121468 0)
(-0.187596 0.0106351 0)
(-0.190695 0.00897795 0)
(-0.192965 0.007188 0)
(-0.194386 0.00527894 0)
(-0.194943 0.00326555 0)
(-0.194626 0.00116371 0)
(-0.19343 -0.00101014 0)
(-0.191353 -0.00323864 0)
(-0.188402 -0.00550126 0)
(-0.184584 -0.00777637 0)
(-0.179914 -0.0100415 0)
(-0.174411 -0.0122726 0)
(-0.168101 -0.0144437 0)
(-0.161014 -0.0165272 0)
(-0.153188 -0.0184945 0)
(-0.14467 -0.0203159 0)
(-0.135512 -0.0219614 0)
(-0.125775 -0.0234012 0)
(-0.11553 -0.0246067 0)
(-0.104853 -0.0255515 0)
(-0.0938327 -0.0262121 0)
(-0.0825611 -0.0265692 0)
(-0.0711392 -0.0266088 0)
(-0.059673 -0.0263232 0)
(-0.0482723 -0.0257115 0)
(-0.0370491 -0.0247804 0)
(-0.0261157 -0.0235447 0)
(-0.0155819 -0.0220267 0)
(-0.00555327 -0.0202564 0)
(0.00387143 -0.0182705 0)
(0.0126022 -0.0161111 0)
(0.02056 -0.013825 0)
(0.0276782 -0.0114616 0)
(0.0339045 -0.00907182 0)
(0.0392016 -0.00670599 0)
(0.0435492 -0.00441237 0)
(0.0469433 -0.00223611 0)
(0.0493966 -0.000217863 0)
(0.0509399 0.00160879 0)
(0.0516207 0.00321815 0)
(0.0515013 0.00459199 0)
(0.0506576 0.0057205 0)
(0.0491767 0.00660246 0)
(0.0471537 0.00724476 0)
(0.0446884 0.0076616 0)
(0.0418814 0.00787316 0)
(0.0388306 0.00790421 0)
(0.0356279 0.00778238 0)
(0.0323563 0.00753661 0)
(0.0290881 0.00719563 0)
(0.0258833 0.00678673 0)
(0.0227897 0.00633472 0)
(0.0198428 0.00586119 0)
(0.0170672 0.00538381 0)
(0.0144777 0.00491568 0)
(0.0120819 0.00446462 0)
(0.0098823 0.00403244 0)
(0.00787935 0.00361434 0)
(0.00607415 0.00319889 0)
(0.00447141 0.00276908 0)
(0.00308138 0.00230548 0)
(0.00192073 0.00179239 0)
(0.00100635 0.00122872 0)
(0.000380933 0.000643639 0)
(3.93612e-05 0.000142489 0)
(5.94961e-05 -0.000508382 0)
(0.000535292 -0.00151299 0)
(0.001329 -0.002414 0)
(0.00240249 -0.00312517 0)
(0.00364459 -0.00360723 0)
(0.00497866 -0.00384942 0)
(0.00632504 -0.00386367 0)
(0.00761236 -0.00367838 0)
(0.00878102 -0.00333279 0)
(0.00978532 -0.00287155 0)
(0.0105938 -0.00233992 0)
(0.0111884 -0.00177963 0)
(0.0115629 -0.00122562 0)
(0.0117197 -0.000703761 0)
(0.011667 -0.000229614 0)
(0.0114153 0.000191807 0)
(0.0109738 0.000565339 0)
(0.0103479 0.000904201 0)
(0.00953636 0.00122784 0)
(0.00853027 0.00155936 0)
(0.00731225 0.0019229 0)
(0.00585685 0.00234116 0)
(0.00413165 0.00283355 0)
(0.00209885 0.00341497 0)
(-0.000282892 0.00409555 0)
(-0.00305671 0.00488105 0)
(-0.00626584 0.00577357 0)
(-0.00995216 0.0067725 0)
(-0.0141548 0.00787506 0)
(-0.0189087 0.00907657 0)
(-0.0242431 0.0103702 0)
(-0.0301795 0.0117466 0)
(-0.0367304 0.0131932 0)
(-0.0438969 0.0146938 0)
(-0.051667 0.0162283 0)
(-0.0600149 0.017773 0)
(-0.0688997 0.0193007 0)
(-0.0782655 0.0207814 0)
(-0.088042 0.0221832 0)
(-0.0981463 0.0234739 0)
(-0.108485 0.0246213 0)
(-0.118956 0.0255954 0)
(-0.129453 0.026369 0)
(-0.13987 0.0269187 0)
(-0.150099 0.0272258 0)
(-0.160042 0.0272767 0)
(-0.169603 0.0270628 0)
(-0.178697 0.0265806 0)
(-0.187249 0.0258313 0)
(-0.195192 0.0248199 0)
(-0.202472 0.0235548 0)
(-0.209041 0.0220474 0)
(-0.214863 0.0203109 0)
(-0.219906 0.0183601 0)
(-0.224148 0.016211 0)
(-0.227572 0.0138801 0)
(-0.230163 0.0113847 0)
(-0.231912 0.0087422 0)
(-0.232813 0.00597074 0)
(-0.232862 0.00308879 0)
(-0.232058 0.000115619 0)
(-0.2304 -0.00292846 0)
(-0.227891 -0.00602209 0)
(-0.224535 -0.00914294 0)
(-0.220339 -0.0122659 0)
(-0.215312 -0.0153643 0)
(-0.209468 -0.0184092 0)
(-0.202823 -0.0213696 0)
(-0.195399 -0.0242124 0)
(-0.187224 -0.0269023 0)
(-0.178332 -0.0294025 0)
(-0.168764 -0.0316754 0)
(-0.158571 -0.0336828 0)
(-0.14781 -0.0353878 0)
(-0.13655 -0.0367551 0)
(-0.124867 -0.0377528 0)
(-0.112846 -0.0383538 0)
(-0.100583 -0.0385372 0)
(-0.088177 -0.0382895 0)
(-0.0757369 -0.0376057 0)
(-0.0633736 -0.0364907 0)
(-0.0512004 -0.0349589 0)
(-0.0393304 -0.0330352 0)
(-0.0278738 -0.030754 0)
(-0.0169358 -0.0281588 0)
(-0.00661447 -0.0253006 0)
(0.00300147 -0.0222366 0)
(0.0118339 -0.0190285 0)
(0.0198169 -0.0157407 0)
(0.0268975 -0.012438 0)
(0.0330368 -0.00918455 0)
(0.03821 -0.00604136 0)
(0.0424075 -0.00306481 0)
(0.0456352 -0.000304632 0)
(0.0479152 0.00219615 0)
(0.0492848 0.00440363 0)
(0.0497969 0.00629392 0)
(0.0495189 0.0078537 0)
(0.0485309 0.00908049 0)
(0.0469234 0.0099824 0)
(0.0447941 0.0105773 0)
(0.0422444 0.0108912 0)
(0.0393758 0.0109568 0)
(0.0362856 0.0108112 0)
(0.0330642 0.0104933 0)
(0.0297921 0.0100426 0)
(0.0265382 0.00949641 0)
(0.0233588 0.00888873 0)
(0.0202978 0.0082487 0)
(0.0173877 0.00759923 0)
(0.0146508 0.00695574 0)
(0.012102 0.00632497 0)
(0.0097515 0.00570407 0)
(0.0076076 0.00508052 0)
(0.00568031 0.00443348 0)
(0.00398404 0.00373767 0)
(0.00254 0.00297051 0)
(0.00137029 0.00212399 0)
(0.000541072 0.0012205 0)
(5.93741e-05 0.000354447 0)
(6.85523e-05 -0.000777678 0)
(0.000612433 -0.00220375 0)
(0.0015066 -0.00342155 0)
(0.00269841 -0.00435403 0)
(0.00405424 -0.00496499 0)
(0.00548531 -0.00524836 0)
(0.00690277 -0.00522416 0)
(0.00822925 -0.00493235 0)
(0.00940171 -0.00442603 0)
(0.0103727 -0.00376469 0)
(0.0111101 -0.00300801 0)
(0.0115954 -0.00221042 0)
(0.0118215 -0.00141699 0)
(0.0117897 -0.000660484 0)
(0.0115052 4.01523e-05 0)
(0.0109745 0.000680048 0)
(0.0102013 0.00126741 0)
(0.00918353 0.00182145 0)
(0.0079116 0.00236943 0)
(0.00636692 0.00294318 0)
(0.00452189 0.00357543 0)
(0.00234068 0.00429651 0)
(-0.000219067 0.00513182 0)
(-0.00320418 0.00610033 0)
(-0.00666366 0.00721418 0)
(-0.0106465 0.0084792 0)
(-0.0151995 0.00989582 0)
(-0.0203655 0.01146 0)
(-0.0261808 0.0131639 0)
(-0.0326739 0.0149958 0)
(-0.0398622 0.01694 0)
(-0.0477505 0.0189759 0)
(-0.0563283 0.0210779 0)
(-0.0655684 0.0232149 0)
(-0.0754255 0.0253509 0)
(-0.0858366 0.0274453 0)
(-0.0967211 0.0294548 0)
(-0.107984 0.0313344 0)
(-0.119516 0.0330395 0)
(-0.131204 0.0345277 0)
(-0.142925 0.035761 0)
(-0.154561 0.0367066 0)
(-0.165996 0.0373387 0)
(-0.177123 0.0376388 0)
(-0.187844 0.0375957 0)
(-0.198073 0.0372056 0)
(-0.207739 0.0364708 0)
(-0.216781 0.0353993 0)
(-0.225152 0.0340035 0)
(-0.232815 0.0322992 0)
(-0.239741 0.0303045 0)
(-0.24591 0.028039 0)
(-0.251309 0.0255229 0)
(-0.255928 0.0227769 0)
(-0.259761 0.0198213 0)
(-0.262803 0.0166761 0)
(-0.265052 0.0133609 0)
(-0.266507 0.00989519 0)
(-0.267165 0.00629806 0)
(-0.267025 0.00258897 0)
(-0.266085 -0.00121214 0)
(-0.264342 -0.00508425 0)
(-0.261794 -0.00900497 0)
(-0.258439 -0.0129502 0)
(-0.254278 -0.0168936 0)
(-0.24931 -0.020806 0)
(-0.243538 -0.0246553 0)
(-0.236968 -0.0284067 0)
(-0.229611 -0.0320219 0)
(-0.221481 -0.0354598 0)
(-0.212599 -0.0386769 0)
(-0.202994 -0.0416274 0)
(-0.192702 -0.0442648 0)
(-0.18177 -0.0465426 0)
(-0.170254 -0.0484159 0)
(-0.158219 -0.0498428 0)
(-0.145744 -0.0507866 0)
(-0.132916 -0.0512175 0)
(-0.119833 -0.0511141 0)
(-0.106599 -0.0504655 0)
(-0.0933286 -0.0492721 0)
(-0.0801368 -0.0475469 0)
(-0.067142 -0.0453153 0)
(-0.0544613 -0.042615 0)
(-0.0422075 -0.0394952 0)
(-0.0304871 -0.0360148 0)
(-0.0193976 -0.0322408 0)
(-0.00902596 -0.0282461 0)
(0.000552611 -0.0241069 0)
(0.00927549 -0.0199012 0)
(0.0170928 -0.0157062 0)
(0.0239677 -0.0115963 0)
(0.029876 -0.00764204 0)
(0.0348066 -0.00390788 0)
(0.0387619 -0.000451356 0)
(0.0417577 0.00267868 0)
(0.0438239 0.00544335 0)
(0.0450045 0.00781493 0)
(0.045358 0.0097778 0)
(0.0449557 0.0113289 0)
(0.0438807 0.0124778 0)
(0.0422252 0.0132456 0)
(0.0400872 0.0136639 0)
(0.037567 0.0137725 0)
(0.034763 0.0136166 0)
(0.0317685 0.0132445 0)
(0.0286685 0.012705 0)
(0.0255373 0.0120441 0)
(0.0224377 0.0113034 0)
(0.0194201 0.0105172 0)
(0.0165241 0.00971081 0)
(0.0137794 0.00889833 0)
(0.0112088 0.00808143 0)
(0.00883107 0.00724883 0)
(0.00666437 0.0063776 0)
(0.00473016 0.00543714 0)
(0.00305707 0.00439642 0)
(0.00167536 0.00323564 0)
(0.000674923 0.00196086 0)
(7.5951e-05 0.000638929 0)
(7.54429e-05 -0.00107929 0)
(0.000671145 -0.00297012 0)
(0.00164031 -0.00452607 0)
(0.00291604 -0.0056811 0)
(0.0043437 -0.00640647 0)
(0.00582197 -0.00670524 0)
(0.00725283 -0.00660949 0)
(0.00855357 -0.00617384 0)
(0.00965876 -0.00546761 0)
(0.0105206 -0.0045666 0)
(0.0111075 -0.00354544 0)
(0.0114018 -0.00247112 0)
(0.0113962 -0.00139798 0)
(0.0110904 -0.000364358 0)
(0.0104864 0.000609093 0)
(0.00958523 0.00151945 0)
(0.00838294 0.00238008 0)
(0.00686826 0.00321778 0)
(0.00502077 0.00406885 0)
(0.00281029 0.00497452 0)
(0.000197545 0.00597617 0)
(-0.00286418 0.00711119 0)
(-0.0064267 0.00840977 0)
(-0.0105441 0.00989315 0)
(-0.01527 0.0115733 0)
(-0.0206546 0.0134533 0)
(-0.0267422 0.0155286 0)
(-0.0335686 0.017788 0)
(-0.0411582 0.0202139 0)
(-0.0495216 0.0227822 0)
(-0.0586524 0.0254625 0)
(-0.0685252 0.028217 0)
(-0.0790942 0.0310015 0)
(-0.0902923 0.0337653 0)
(-0.102032 0.0364529 0)
(-0.114209 0.0390062 0)
(-0.126704 0.0413668 0)
(-0.139388 0.0434785 0)
(-0.152128 0.0452903 0)
(-0.164793 0.0467584 0)
(-0.177258 0.0478479 0)
(-0.189409 0.0485337 0)
(-0.201145 0.0488006 0)
(-0.21238 0.0486433 0)
(-0.223045 0.0480649 0)
(-0.233085 0.0470755 0)
(-0.242459 0.0456912 0)
(-0.251138 0.043932 0)
(-0.259102 0.0418209 0)
(-0.26634 0.0393821 0)
(-0.272846 0.0366405 0)
(-0.278617 0.0336206 0)
(-0.283654 0.0303462 0)
(-0.287959 0.0268399 0)
(-0.291531 0.0231232 0)
(-0.294374 0.0192165 0)
(-0.296486 0.015139 0)
(-0.297868 0.0109095 0)
(-0.298515 0.00654625 0)
(-0.298425 0.00206776 0)
(-0.297591 -0.00250686 0)
(-0.296008 -0.00715735 0)
(-0.293668 -0.0118617 0)
(-0.290562 -0.0165956 0)
(-0.286683 -0.0213319 0)
(-0.282022 -0.0260403 0)
(-0.276573 -0.0306866 0)
(-0.270331 -0.0352329 0)
(-0.263294 -0.0396368 0)
(-0.255463 -0.0438522 0)
(-0.246848 -0.0478289 0)
(-0.237461 -0.0515137 0)
(-0.227324 -0.0548513 0)
(-0.216468 -0.0577851 0)
(-0.204936 -0.0602594 0)
(-0.192782 -0.0622209 0)
(-0.180071 -0.0636214 0)
(-0.166882 -0.0644194 0)
(-0.153307 -0.0645833 0)
(-0.139449 -0.0640929 0)
(-0.125422 -0.0629417 0)
(-0.111346 -0.0611381 0)
(-0.0973469 -0.0587062 0)
(-0.083552 -0.0556853 0)
(-0.0700862 -0.0521294 0)
(-0.0570687 -0.048105 0)
(-0.04461 -0.0436891 0)
(-0.0328088 -0.0389663 0)
(-0.021751 -0.0340256 0)
(-0.0115084 -0.028958 0)
(-0.00213857 -0.0238537 0)
(0.00631448 -0.0188 0)
(0.0138194 -0.0138797 0)
(0.0203567 -0.00916925 0)
(0.0259182 -0.00473831 0)
(0.0305066 -0.000648133 0)
(0.0341358 0.00304944 0)
(0.0368315 0.00631326 0)
(0.0386318 0.00911411 0)
(0.0395877 0.0114359 0)
(0.0397627 0.0132762 0)
(0.0392323 0.0146467 0)
(0.0380822 0.0155722 0)
(0.0364049 0.0160893 0)
(0.0342971 0.016244 0)
(0.0318555 0.0160891 0)
(0.0291733 0.0156805 0)
(0.026337 0.0150745 0)
(0.0234238 0.0143237 0)
(0.0205005 0.013474 0)
(0.0176228 0.0125616 0)
(0.0148361 0.0116097 0)
(0.0121773 0.0106266 0)
(0.00967763 0.00960413 0)
(0.007366 0.00851906 0)
(0.00527356 0.00733597 0)
(0.00343869 0.00601422 0)
(0.0019018 0.0045183 0)
(0.000774118 0.002831 0)
(8.81333e-05 0.000980578 0)
(8.09737e-05 -0.00140596 0)
(0.000716507 -0.00379321 0)
(0.00173899 -0.00569918 0)
(0.0030672 -0.00706962 0)
(0.00452675 -0.00788678 0)
(0.00600394 -0.00816722 0)
(0.00739213 -0.00795928 0)
(0.00860408 -0.00733587 0)
(0.0095731 -0.00638515 0)
(0.0102522 -0.00520073 0)
(0.0106116 -0.00387264 0)
(0.010635 -0.00247982 0)
(0.0103154 -0.0010845 0)
(0.00965042 0.000271392 0)
(0.00863791 0.00156777 0)
(0.00727183 0.00280603 0)
(0.00553898 0.00400681 0)
(0.00341677 0.00520617 0)
(0.00087226 0.00645044 0)
(-0.00213744 0.00779037 0)
(-0.00566346 0.00927519 0)
(-0.00976248 0.0109476 0)
(-0.0144933 0.0128401 0)
(-0.0199134 0.0149729 0)
(-0.0260754 0.017354 0)
(-0.0330236 0.0199795 0)
(-0.0407909 0.0228349 0)
(-0.0493955 0.0258962 0)
(-0.058838 0.0291297 0)
(-0.0690984 0.0324929 0)
(-0.080134 0.0359343 0)
(-0.0918782 0.0393941 0)
(-0.104241 0.0428054 0)
(-0.117112 0.0460967 0)
(-0.130362 0.0491951 0)
(-0.143852 0.052029 0)
(-0.157438 0.0545327 0)
(-0.170977 0.0566486 0)
(-0.184332 0.0583302 0)
(-0.197382 0.0595434 0)
(-0.210021 0.060267 0)
(-0.222159 0.0604919 0)
(-0.233728 0.0602203 0)
(-0.244676 0.0594635 0)
(-0.254964 0.0582402 0)
(-0.264571 0.0565742 0)
(-0.273482 0.0544928 0)
(-0.281693 0.0520249 0)
(-0.289203 0.0491998 0)
(-0.296016 0.0460466 0)
(-0.302138 0.0425926 0)
(-0.307574 0.038864 0)
(-0.312332 0.0348848 0)
(-0.316416 0.0306772 0)
(-0.319831 0.0262616 0)
(-0.322578 0.021657 0)
(-0.324658 0.0168811 0)
(-0.32607 0.0119508 0)
(-0.326811 0.00688279 0)
(-0.326876 0.00169371 0)
(-0.326258 -0.00359888 0)
(-0.324947 -0.00897617 0)
(-0.322934 -0.0144173 0)
(-0.320205 -0.019899 0)
(-0.316748 -0.0253946 0)
(-0.312547 -0.0308734 0)
(-0.307588 -0.0363008 0)
(-0.301857 -0.041637 0)
(-0.29534 -0.0468371 0)
(-0.288025 -0.0518509 0)
(-0.279906 -0.0566232 0)
(-0.270979 -0.0610941 0)
(-0.26125 -0.0651997 0)
(-0.25073 -0.0688738 0)
(-0.239445 -0.0720491 0)
(-0.227428 -0.0746597 0)
(-0.214731 -0.0766435 0)
(-0.201417 -0.077945 0)
(-0.187568 -0.0785185 0)
(-0.173279 -0.0783309 0)
(-0.158661 -0.0773645 0)
(-0.143838 -0.0756191 0)
(-0.128944 -0.0731133 0)
(-0.114117 -0.0698852 0)
(-0.0995003 -0.0659913 0)
(-0.0852305 -0.061505 0)
(-0.0714384 -0.0565134 0)
(-0.0582424 -0.0511141 0)
(-0.045746 -0.0454111 0)
(-0.0340359 -0.0395111 0)
(-0.023181 -0.0335196 0)
(-0.0132335 -0.0275382 0)
(-0.00422982 -0.0216626 0)
(0.00380709 -0.0159811 0)
(0.0108658 -0.0105736 0)
(0.0169447 -0.0055114 0)
(0.0220513 -0.000856258 0)
(0.0262016 0.00334016 0)
(0.0294208 0.00703734 0)
(0.0317446 0.0102072 0)
(0.0332193 0.0128351 0)
(0.0339029 0.014921 0)
(0.0338646 0.0164798 0)
(0.0331837 0.0175402 0)
(0.0319474 0.0181439 0)
(0.0302476 0.0183427 0)
(0.0281778 0.0181955 0)
(0.0258294 0.0177644 0)
(0.0232883 0.0171104 0)
(0.0206329 0.0162895 0)
(0.0179324 0.0153481 0)
(0.0152464 0.014319 0)
(0.0126259 0.013218 0)
(0.0101153 0.0120419 0)
(0.00775574 0.010768 0)
(0.00558986 0.0093569 0)
(0.00366726 0.00775762 0)
(0.00203931 0.00591681 0)
(0.000834444 0.00378998 0)
(9.54626e-05 0.00136119 0)
(8.56175e-05 -0.00175268 0)
(0.000751511 -0.00465754 0)
(0.00180773 -0.00691523 0)
(0.00315819 -0.00848442 0)
(0.00460985 -0.00936181 0)
(0.00603729 -0.00958191 0)
(0.00732634 -0.00921382 0)
(0.00838649 -0.00835254 0)
(0.00915114 -0.00710781 0)
(0.00957538 -0.00559244 0)
(0.00963197 -0.00391196 0)
(0.00930644 -0.00215619 0)
(0.00859176 -0.000393268 0)
(0.00748292 0.00133385 0)
(0.00597211 0.00300846 0)
(0.0040447 0.00463897 0)
(0.00167638 0.00625555 0)
(-0.00116824 0.00790495 0)
(-0.00453545 0.00964389 0)
(-0.00848068 0.0115318 0)
(-0.0130654 0.0136236 0)
(-0.0183531 0.0159643 0)
(-0.0244048 0.0185842 0)
(-0.0312749 0.021498 0)
(-0.0390066 0.024704 0)
(-0.0476285 0.0281854 0)
(-0.057151 0.0319112 0)
(-0.0675628 0.0358377 0)
(-0.0788281 0.0399089 0)
(-0.0908854 0.0440578 0)
(-0.103647 0.0482076 0)
(-0.116999 0.0522745 0)
(-0.13081 0.0561704 0)
(-0.14493 0.0598079 0)
(-0.159205 0.063104 0)
(-0.17348 0.065985 0)
(-0.187606 0.0683896 0)
(-0.20145 0.0702712 0)
(-0.214898 0.0715992 0)
(-0.227853 0.0723581 0)
(-0.240244 0.0725465 0)
(-0.252016 0.072175 0)
(-0.263133 0.0712633 0)
(-0.273575 0.069838 0)
(-0.283329 0.0679299 0)
(-0.292396 0.0655724 0)
(-0.30078 0.0627995 0)
(-0.308487 0.0596445 0)
(-0.315529 0.0561396 0)
(-0.321915 0.0523147 0)
(-0.327657 0.0481978 0)
(-0.332764 0.0438142 0)
(-0.337247 0.039187 0)
(-0.341111 0.034337 0)
(-0.344364 0.0292831 0)
(-0.347011 0.0240425 0)
(-0.349054 0.018631 0)
(-0.350494 0.0130636 0)
(-0.351331 0.00735475 0)
(-0.35156 0.00151917 0)
(-0.351175 -0.00442783 0)
(-0.350169 -0.0104696 0)
(-0.348529 -0.0165876 0)
(-0.346243 -0.0227604 0)
(-0.343294 -0.0289633 0)
(-0.339662 -0.0351672 0)
(-0.335326 -0.0413384 0)
(-0.330264 -0.0474374 0)
(-0.32445 -0.0534188 0)
(-0.317862 -0.0592306 0)
(-0.310475 -0.0648143 0)
(-0.30227 -0.0701051 0)
(-0.293231 -0.0750325 0)
(-0.283349 -0.0795212 0)
(-0.272623 -0.0834929 0)
(-0.261067 -0.0868684 0)
(-0.248706 -0.0895704 0)
(-0.235583 -0.0915268 0)
(-0.221759 -0.0926742 0)
(-0.207316 -0.0929619 0)
(-0.192354 -0.0923554 0)
(-0.176993 -0.0908401 0)
(-0.16137 -0.0884231 0)
(-0.145636 -0.0851356 0)
(-0.129949 -0.0810321 0)
(-0.114469 -0.0761893 0)
(-0.0993539 -0.0707034 0)
(-0.0847511 -0.0646854 0)
(-0.0707925 -0.0582564 0)
(-0.0575904 -0.0515423 0)
(-0.0452355 -0.0446684 0)
(-0.0337957 -0.0377553 0)
(-0.0233179 -0.0309156 0)
(-0.0138301 -0.024252 0)
(-0.00534498 -0.017856 0)
(0.00213695 -0.0118083 0)
(0.00862419 -0.00617877 0)
(0.0141325 -0.00102655 0)
(0.018684 0.00359989 0)
(0.0223075 0.00766355 0)
(0.0250393 0.0111399 0)
(0.0269245 0.0140183 0)
(0.0280182 0.0163026 0)
(0.0283852 0.0180119 0)
(0.0281002 0.0191799 0)
(0.0272453 0.0198534 0)
(0.0259082 0.0200893 0)
(0.0241785 0.0199512 0)
(0.0221449 0.0195048 0)
(0.019892 0.018813 0)
(0.0174984 0.0179306 0)
(0.0150349 0.0168991 0)
(0.0125649 0.0157417 0)
(0.0101456 0.0144605 0)
(0.00783073 0.0130343 0)
(0.00567482 0.0114199 0)
(0.0037391 0.00955634 0)
(0.00208573 0.0073719 0)
(0.000855157 0.00479389 0)
(9.78902e-05 0.00176144 0)
(8.95299e-05 -0.00211547 0)
(0.000777002 -0.00554912 0)
(0.00184748 -0.00814936 0)
(0.00318922 -0.00989013 0)
(0.00459167 -0.0107866 0)
(0.00591891 -0.0108959 0)
(0.00705083 -0.0103127 0)
(0.0078954 -0.00915803 0)
(0.00838765 -0.00756563 0)
(0.00848591 -0.00566865 0)
(0.00816613 -0.00358767 0)
(0.00741561 -0.00142171 0)
(0.00622657 0.000757769 0)
(0.00459009 0.00290988 0)
(0.0024911 0.00502448 0)
(-9.53307e-05 0.00711976 0)
(-0.003206 0.00923736 0)
(-0.00688975 0.0114355 0)
(-0.0112057 0.0137805 0)
(-0.0162199 0.0163383 0)
(-0.0220003 0.0191658 0)
(-0.0286115 0.0223049 0)
(-0.0361095 0.0257785 0)
(-0.0445361 0.0295886 0)
(-0.0539151 0.0337171 0)
(-0.0642476 0.0381269 0)
(-0.0755096 0.0427635 0)
(-0.0876488 0.0475569 0)
(-0.100584 0.0524238 0)
(-0.114206 0.0572696 0)
(-0.128382 0.0619928 0)
(-0.142956 0.0664894 0)
(-0.157766 0.0706582 0)
(-0.172644 0.0744064 0)
(-0.187429 0.0776544 0)
(-0.201972 0.080339 0)
(-0.216145 0.082416 0)
(-0.229844 0.0838596 0)
(-0.242986 0.0846614 0)
(-0.255511 0.0848279 0)
(-0.26738 0.084378 0)
(-0.278569 0.083339 0)
(-0.28907 0.0817446 0)
(-0.298879 0.0796318 0)
(-0.308005 0.0770389 0)
(-0.316456 0.0740041 0)
(-0.324246 0.0705645 0)
(-0.33139 0.0667551 0)
(-0.337901 0.0626085 0)
(-0.343796 0.0581548 0)
(-0.349088 0.053421 0)
(-0.353792 0.048432 0)
(-0.357921 0.0432095 0)
(-0.361486 0.0377733 0)
(-0.364499 0.0321406 0)
(-0.366969 0.0263271 0)
(-0.368904 0.0203466 0)
(-0.370309 0.0142122 0)
(-0.371187 0.00793588 0)