/*--------------------------------*- C++ -*----------------------------------*\
| =========                 |                                                 |
| \\      /  F ield         | OpenFOAM: The Open Source CFD Toolbox           |
|  \\    /   O peration     | Version:  2406                                  |
|   \\  /    A nd           | Website:  www.openfoam.com                      |
|    \\/     M anipulation  |                                                 |
\*---------------------------------------------------------------------------*/
FoamFile
{
    version     2.0;
    format      ascii;
    arch        "LSB;label=32;scalar=64";
    class       volScalarField;
    location    "27.7";
    object      p;
}
// * * * * * * * * * * * * * * * * * * * * * * * * * * * * * * * * * * * * * //

dimensions      [0 2 -2 0 0 0 0];

internalField   nonuniform List<scalar> 
3600
(
0.0360887
0.0361023
0.0360806
0.0360486
0.035983
0.0359056
0.0358052
0.0356944
0.035567
0.0354279
0.0352726
0.0351004
0.0349078
0.0346915
0.0344489
0.0341769
0.0338758
0.0335458
0.0331923
0.0328223
0.0324498
0.0320919
0.0317737
0.0315217
0.0313661
0.0313332
0.0314455
0.0317154
0.032145
0.0327213
0.0334165
0.0341859
0.03497
0.0356966
0.0362874
0.0366664
0.0367697
0.0365578
0.0360213
0.0351894
0.0341217
0.0329067
0.0316375
0.0304096
0.0292918
0.0283383
0.0275647
0.0269781
0.0265518
0.0262694
0.026087
0.0259906
0.0259374
0.0259293
0.0259283
0.0259539
0.025969
0.0260071
0.0260257
0.0260579
0.0360754
0.0360889
0.036064
0.0360321
0.0359687
0.0358956
0.0358011
0.0356974
0.0355785
0.0354492
0.0353057
0.0351473
0.034971
0.0347733
0.034552
0.0343032
0.0340265
0.0337206
0.0333893
0.0330376
0.0326777
0.0323239
0.0319978
0.0317229
0.031528
0.0314406
0.0314867
0.0316828
0.032036
0.0325373
0.0331627
0.0338697
0.0346009
0.0352851
0.0358445
0.0362028
0.0362952
0.0360815
0.0355515
0.0347347
0.0336917
0.0325128
0.0312926
0.0301269
0.0290821
0.0282072
0.0275103
0.026991
0.0266166
0.0263682
0.0262027
0.0261099
0.0260506
0.0260318
0.0260167
0.0260285
0.026028
0.0260534
0.0260579
0.0260903
0.0360958
0.0361115
0.0360852
0.0360512
0.0359859
0.0359109
0.0358164
0.0357132
0.0355972
0.0354715
0.0353334
0.035181
0.0350113
0.0348193
0.0346018
0.0343526
0.0340694
0.0337481
0.0333901
0.0329973
0.0325803
0.0321541
0.0317449
0.031383
0.0311043
0.0309417
0.0309249
0.0310726
0.0313926
0.0318763
0.0324993
0.0332187
0.033976
0.0346985
0.0353059
0.0357181
0.0358658
0.0357026
0.0352128
0.0344212
0.0333868
0.032202
0.0309675
0.0297873
0.0287364
0.0278701
0.0271987
0.0267202
0.0263961
0.026201
0.0260848
0.0260333
0.026005
0.0260079
0.0260058
0.0260261
0.0260277
0.0260571
0.0260602
0.026105
0.0361279
0.0361409
0.0361121
0.0360742
0.0360083
0.0359329
0.0358419
0.0357431
0.0356352
0.0355185
0.0353919
0.0352505
0.0350912
0.0349049
0.0346859
0.0344225
0.0341083
0.0337333
0.0332968
0.0328009
0.0322613
0.0316997
0.0311491
0.0306446
0.0302266
0.0299304
0.0297888
0.0298222
0.0300415
0.0304404
0.0309983
0.0316758
0.0324187
0.0331574
0.0338137
0.0343066
0.0345628
0.034528
0.0341761
0.0335204
0.0326099
0.0315306
0.0303818
0.0292704
0.0282776
0.0274651
0.0268483
0.0264273
0.026163
0.0260275
0.0259667
0.025963
0.0259719
0.0260017
0.0260155
0.0260449
0.0260474
0.0260776
0.0260759
0.0261282
0.036195
0.0362015
0.0361697
0.0361243
0.0360553
0.0359745
0.0358828
0.0357822
0.0356759
0.035559
0.0354321
0.035284
0.0351101
0.0348929
0.0346218
0.0342766
0.0338467
0.0333201
0.0327012
0.0319993
0.0312408
0.0304568
0.02969
0.0289821
0.0283783
0.0279162
0.0276295
0.0275388
0.0276562
0.0279772
0.0284848
0.0291445
0.029908
0.0307114
0.0314807
0.032136
0.0325999
0.0328077
0.0327178
0.0323234
0.0316537
0.0307779
0.0297864
0.0287853
0.0278628
0.0270923
0.0265015
0.0261015
0.0258609
0.0257557
0.0257319
0.0257692
0.025819
0.0258857
0.0259298
0.0259826
0.0260006
0.0260418
0.0260444
0.0261028
0.0362841
0.0362795
0.0362448
0.0361906
0.0361205
0.0360352
0.035945
0.0358434
0.0357385
0.0356173
0.0354808
0.035308
0.035089
0.0347948
0.0344082
0.0339018
0.0332672
0.0324969
0.0316067
0.0306172
0.0295674
0.0284973
0.0274571
0.0264916
0.0256485
0.0249652
0.0244762
0.0242024
0.0241575
0.0243401
0.0247392
0.0253277
0.0260674
0.0269051
0.0277778
0.0286128
0.029335
0.0298738
0.0301719
0.030198
0.0299512
0.0294695
0.0288189
0.0280906
0.0273705
0.0267388
0.0262368
0.02589
0.0256808
0.0255956
0.0255885
0.0256431
0.0257124
0.0257991
0.0258622
0.0259303
0.0259596
0.0260067
0.0260119
0.0260686
0.0364037
0.0363837
0.0363461
0.0362801
0.0362074
0.0361129
0.0360189
0.0359063
0.035789
0.0356412
0.0354622
0.0352155
0.0348845
0.0344265
0.0338219
0.0330426
0.0320906
0.0309704
0.0297149
0.0283585
0.0269542
0.0255506
0.024205
0.0229645
0.0218774
0.0209784
0.020299
0.0198562
0.0196625
0.019716
0.0200094
0.0205217
0.0212255
0.0220804
0.0230386
0.0240416
0.0250255
0.0259228
0.0266693
0.0272128
0.0275197
0.0275871
0.0274395
0.027135
0.026742
0.0263394
0.025982
0.0257148
0.0255419
0.0254677
0.0254608
0.0255132
0.0255844
0.025677
0.0257509
0.0258299
0.0258712
0.0259244
0.0259353
0.025987
0.0365502
0.0365109
0.0364725
0.0363942
0.0363209
0.0362159
0.0361158
0.0359838
0.0358387
0.0356361
0.0353709
0.0349876
0.0344631
0.0337454
0.0328211
0.0316702
0.0303138
0.0287735
0.027102
0.0253479
0.0235773
0.0218444
0.0202095
0.0187168
0.0174104
0.0163178
0.0154645
0.0148614
0.0145175
0.0144295
0.0145923
0.0149901
0.0156053
0.0164106
0.0173756
0.0184609
0.0196223
0.0208081
0.0219627
0.0230288
0.0239523
0.0246921
0.025223
0.0255484
0.0256919
0.0257048
0.0256383
0.0255518
0.0254758
0.0254409
0.0254406
0.0254824
0.0255394
0.0256181
0.0256846
0.0257581
0.0257996
0.0258496
0.0258616
0.0259035
0.0367164
0.0366538
0.0366157
0.0365221
0.0364456
0.0363219
0.0362033
0.0360296
0.0358227
0.0355142
0.0350929
0.0344836
0.0336631
0.0325785
0.0312338
0.0296263
0.0278033
0.0258074
0.023713
0.0215814
0.0194878
0.0174865
0.015635
0.0139688
0.0125229
0.0113139
0.0103583
0.00965869
0.00921869
0.0090313
0.00909129
0.00938527
0.00990167
0.0106227
0.0115318
0.0126072
0.0138262
0.0151599
0.0165747
0.0180286
0.0194711
0.0208458
0.0220922
0.0231581
0.0240028
0.0246171
0.025014
0.0252429
0.0253531
0.0254071
0.0254355
0.0254719
0.0255106
0.0255665
0.0256152
0.0256734
0.0257079
0.0257497
0.0257606
0.0257924
0.0369015
0.036813
0.036778
0.0366683
0.0365874
0.0364371
0.0362853
0.0360423
0.0357306
0.0352535
0.0345957
0.0336674
0.0324561
0.0309193
0.0290897
0.0269893
0.0246961
0.0222732
0.0198128
0.0173815
0.0150549
0.0128787
0.0109004
0.00914127
0.00762506
0.00635637
0.00534389
0.00458291
0.00407351
0.00380598
0.00377525
0.00396909
0.00437972
0.00499474
0.0058062
0.0068037
0.00798047
0.00932745
0.010835
0.0124868
0.0142566
0.0161025
0.0179625
0.019757
0.021392
0.0227816
0.0238608
0.0246184
0.0250849
0.0253397
0.0254572
0.0255142
0.0255413
0.02557
0.0255915
0.0256229
0.0256394
0.0256647
0.025669
0.0256904
0.0370786
0.0369613
0.03693
0.0367991
0.0367054
0.0365111
0.0362987
0.0359432
0.0354663
0.0347428
0.0337595
0.0324219
0.0307414
0.0286974
0.0263605
0.023781
0.021067
0.0182957
0.0155683
0.0129453
0.0104938
0.00824313
0.00622685
0.00445103
0.00292857
0.00165414
0.000630797
-0.000151028
-0.00069305
-0.00100647
-0.0010959
-0.000973039
-0.000643795
-0.000118428
0.000598738
0.00150218
0.00259274
0.00387229
0.0053474
0.00702351
0.00890246
0.0109736
0.0132043
0.0155306
0.0178496
0.0200282
0.0219196
0.0234104
0.0244488
0.0250776
0.025394
0.0255263
0.0255644
0.0255723
0.0255658
0.0255663
0.0255597
0.0255651
0.02556
0.0255733
0.0372436
0.0370969
0.0370703
0.0369139
0.0367982
0.03654
0.0362342
0.0357164
0.0350086
0.0339613
0.0325744
0.0307616
0.0285712
0.0260141
0.0232019
0.020211
0.0171709
0.0141607
0.0112777
0.00856577
0.00607601
0.00381846
0.00181283
5.21005e-05
-0.00145791
-0.00272864
-0.00375886
-0.0045598
-0.00513231
-0.00548715
-0.00562719
-0.00556304
-0.00529896
-0.0048442
-0.00420186
-0.00337652
-0.00236583
-0.00116524
0.000237225
0.00185711
0.00371367
0.00582282
0.00818854
0.0107881
0.0135556
0.0163686
0.0190484
0.0213907
0.0232199
0.0244618
0.0251667
0.0254857
0.0255842
0.0255888
0.0255577
0.025525
0.0254909
0.0254731
0.0254555
0.0254624
0.0373473
0.03717
0.0371451
0.0369532
0.0367977
0.0364463
0.0360039
0.0352662
0.0342594
0.0328191
0.0309712
0.0286506
0.0259526
0.0229226
0.0197107
0.0164088
0.0131548
0.0100161
0.00707503
0.00435275
0.00188291
-0.000342343
-0.00231331
-0.00404585
-0.00553704
-0.0068009
-0.00783531
-0.00865116
-0.00924719
-0.00963292
-0.00980916
-0.00978536
-0.00956447
-0.00915527
-0.00856078
-0.00778626
-0.00683068
-0.00569106
-0.00435677
-0.00281166
-0.00103178
0.00101122
0.00334587
0.00598852
0.00892677
0.0120931
0.0153455
0.0184595
0.0211671
0.0232366
0.0245744
0.0252682
0.0255261
0.0255662
0.0255241
0.0254617
0.0254008
0.0253598
0.0253292
0.0253314
0.0373814
0.0371744
0.0371475
0.0369107
0.0366962
0.036221
0.0355978
0.0345859
0.0332225
0.0313413
0.0290067
0.0261859
0.0230247
0.0195998
0.0160891
0.0125857
0.00922125
0.00604003
0.00310449
0.00041177
-0.00201903
-0.00420923
-0.00615418
-0.00787415
-0.00936536
-0.0106416
-0.0116979
-0.0125432
-0.0131734
-0.0135959
-0.0138091
-0.013821
-0.0136331
-0.0132535
-0.0126854
-0.0119349
-0.0110034
-0.00989087
-0.00859127
-0.00709294
-0.00537591
-0.00341191
-0.00116493
0.0014024
0.00431898
0.00757884
0.0111155
0.01476
0.0182421
0.0212217
0.0234195
0.0247419
0.0253402
0.0254951
0.0254691
0.0253846
0.0252988
0.0252346
0.0251906
0.025188
0.0372795
0.0370428
0.0370054
0.0367092
0.0364103
0.035777
0.0349287
0.033596
0.031836
0.0294938
0.0266824
0.0234061
0.0198587
0.0161378
0.0124348
0.00882887
0.00543492
0.00226891
-0.000626614
-0.00327485
-0.00566611
-0.00782992
-0.00976224
-0.0114843
-0.0129891
-0.014289
-0.0153751
-0.0162545
-0.0169198
-0.0173768
-0.0176217
-0.0176612
-0.0174954
-0.0171319
-0.016574
-0.0158284
-0.0148986
-0.0137874
-0.0124939
-0.0110121
-0.00932951
-0.00742439
-0.00526476
-0.00280923
-9.68639e-06
0.00316996
0.00673587
0.0106088
0.0145987
0.0183641
0.0215058
0.0236924
0.0248849
0.0253094
0.0253541
0.0252651
0.0251591
0.0250719
0.0250152
0.0250061
0.0370364
0.0367722
0.0367157
0.0363478
0.0359414
0.0351209
0.0340124
0.0323285
0.0301555
0.0273621
0.0241145
0.020454
0.0166127
0.0126957
0.00889242
0.00525741
0.00188326
-0.00124207
-0.00409207
-0.0067048
-0.00907462
-0.0112347
-0.0131785
-0.0149257
-0.0164652
-0.0178067
-0.0189376
-0.0198627
-0.0205717
-0.0210685
-0.0213476
-0.0214138
-0.0212666
-0.0209125
-0.020355
-0.0196008
-0.0186554
-0.0175237
-0.016209
-0.0147107
-0.0130243
-0.0111368
-0.00902636
-0.00665834
-0.00398379
-0.000949371
0.00249782
0.00635861
0.0105546
0.0148347
0.0188029
0.0219635
0.0240001
0.0249415
0.0251657
0.0251053
0.0249884
0.0248756
0.0248058
0.0247861
0.0365831
0.0362919
0.0362046
0.0357508
0.0352138
0.0341818
0.0327892
0.0307431
0.0281662
0.024959
0.0213407
0.017383
0.0133431
0.00931954
0.00548843
0.00187382
-0.00145404
-0.00453108
-0.00734135
-0.00993208
-0.0122974
-0.0144708
-0.0164412
-0.0182261
-0.0198096
-0.021199
-0.0223783
-0.0233502
-0.0241023
-0.0246369
-0.0249467
-0.0250355
-0.0249021
-0.0245519
-0.0239889
-0.0232196
-0.022251
-0.0210889
-0.0197407
-0.0182086
-0.0164956
-0.0145958
-0.0124985
-0.0101801
-0.00760156
-0.00471098
-0.00143668
0.00227157
0.00643327
0.0109202
0.0154462
0.0194866
0.022516
0.0242332
0.0248534
0.0248738
0.0247698
0.0246271
0.0245424
0.0245066
0.0359325
0.0356176
0.0354898
0.0349414
0.0342578
0.0330018
0.0313176
0.0289189
0.0259692
0.0224055
0.0184935
0.0143261
0.0101714
0.00611016
0.0022978
-0.00127242
-0.00454933
-0.00758694
-0.0103746
-0.0129638
-0.0153457
-0.0175519
-0.0195662
-0.0214031
-0.0230425
-0.0244893
-0.0257244
-0.0267489
-0.0275482
-0.0281229
-0.0284648
-0.028576
-0.0284551
-0.0281064
-0.0275344
-0.0267451
-0.0257474
-0.0245474
-0.0231557
-0.0215766
-0.0198187
-0.0178815
-0.0157641
-0.0134537
-0.010925
-0.00813785
-0.00502269
-0.00151082
0.00248035
0.00693055
0.0117068
0.0163759
0.0203627
0.0230376
0.0243306
0.0245615
0.0244949
0.0243308
0.0242234
0.0241658
0.0350299
0.0346934
0.0345148
0.0338647
0.0330239
0.0315418
0.0295732
0.0268497
0.0235757
0.019725
0.0155999
0.011304
0.00710372
0.00305487
-0.00071011
-0.00422547
-0.00745445
-0.0104631
-0.013242
-0.0158434
-0.0182537
-0.0205018
-0.0225662
-0.0244588
-0.0261558
-0.0276599
-0.02895
-0.030025
-0.0308692
-0.0314814
-0.0318527
-0.0319835
-0.0318725
-0.0315227
-0.0309398
-0.0301287
-0.0291008
-0.0278615
-0.0264251
-0.0247962
-0.0229884
-0.0210037
-0.0188494
-0.0165206
-0.014005
-0.0112774
-0.0082808
-0.0049507
-0.00117705
0.00309068
0.00785934
0.0128529
0.0175795
0.02126
0.0234273
0.0241378
0.0241246
0.0239722
0.0238301
0.0237456
0.0339195
0.0335664
0.033331
0.0325797
0.0315808
0.0298835
0.0276525
0.0246462
0.0211065
0.0170411
0.0127774
0.00841976
0.00422333
0.00021666
-0.00349017
-0.00695361
-0.0101465
-0.0131417
-0.015928
-0.0185564
-0.0210076
-0.0233074
-0.0254299
-0.0273841
-0.0291435
-0.0307087
-0.0320568
-0.0331849
-0.034076
-0.034727
-0.0351285
-0.0352789
-0.0351774
-0.0348253
-0.03423
-0.0333952
-0.032335
-0.0310542
-0.0295708
-0.027889
-0.0260273
-0.0239885
-0.0217863
-0.0194205
-0.0168901
-0.0141824
-0.0112572
-0.00806558
-0.00449563
-0.000466671
0.00413099
0.00917422
0.0143495
0.0188938
0.0220447
0.0234932
0.0236648
0.0235219
0.0233664
0.0232356
0.0325709
0.0322054
0.0319084
0.0310593
0.0299076
0.0280145
0.0255529
0.0223136
0.0185699
0.0143584
0.0100201
0.00565305
0.00149484
-0.002452
-0.00609719
-0.00951343
-0.0126793
-0.0156704
-0.0184722
-0.0211328
-0.0236279
-0.0259799
-0.0281593
-0.0301728
-0.0319917
-0.0336149
-0.0350179
-0.036196
-0.0371314
-0.0378186
-0.038248
-0.038416
-0.0383225
-0.0379667
-0.0373583
-0.0364991
-0.0354071
-0.0340852
-0.0325564
-0.0308234
-0.02891
-0.0268181
-0.0245672
-0.0221587
-0.0196001
-0.0168879
-0.0139973
-0.0108985
-0.00749229
-0.00369815
0.000653036
0.00554984
0.0108933
0.0160255
0.0201565
0.0224551
0.0231176
0.0229309
0.0228227
0.0226113
0.0310613
0.0306908
0.0303323
0.0293956
0.0281046
0.0260442
0.0233913
0.0199731
0.0160853
0.0117887
0.00742675
0.00308714
-0.00101342
-0.0048949
-0.00848342
-0.0118623
-0.015013
-0.0180107
-0.020837
-0.0235362
-0.0260797
-0.0284868
-0.0307251
-0.0327991
-0.0346787
-0.0363607
-0.0378199
-0.039049
-0.0400298
-0.0407538
-0.0412122
-0.0413979
-0.0413127
-0.0409528
-0.0403312
-0.039447
-0.0383227
-0.0369592
-0.0353849
-0.0336006
-0.0316361
-0.0294913
-0.0271919
-0.0247383
-0.0221453
-0.0194139
-0.0165322
-0.0134875
-0.0101995
-0.00660446
-0.00251283
0.0021324
0.00741424
0.0128458
0.0177829
0.0209717
0.0223859
0.0222153
0.0221608
0.0218689
0.0293813
0.0290119
0.0285931
0.0275805
0.0261668
0.02397
0.0211661
0.0176199
0.0136407
0.00930825
0.0049601
0.000672369
-0.00336005
-0.00717473
-0.0107112
-0.0140585
-0.0171994
-0.0202064
-0.0230578
-0.0257935
-0.028382
-0.030839
-0.0331309
-0.0352598
-0.037195
-0.0389307
-0.0404417
-0.0417176
-0.0427405
-0.0434984
-0.0439834
-0.0441849
-0.044107
-0.0437422
-0.0431076
-0.0421986
-0.0410436
-0.0396398
-0.0380227
-0.0361896
-0.0341777
-0.0319837
-0.0296402
-0.0271447
-0.0245189
-0.0217643
-0.0188793
-0.0158634
-0.0126559
-0.00921621
-0.00536149
-0.0010028
0.00406134
0.00955058
0.0150015
0.0190706
0.0212953
0.021409
0.021314
0.0210027
0.0276317
0.0272722
0.0267986
0.0257262
0.0242111
0.0219122
0.0189986
0.0153727
0.0113478
0.0070191
0.00271126
-0.00151042
-0.00547235
-0.00922448
-0.012717
-0.0160408
-0.0191788
-0.0221998
-0.025079
-0.0278518
-0.0304849
-0.0329907
-0.035335
-0.0375172
-0.0395068
-0.0412952
-0.0428575
-0.0441796
-0.0452445
-0.046036
-0.0465481
-0.0467653
-0.0466955
-0.0463262
-0.0456797
-0.0447469
-0.0435626
-0.0421198
-0.0404619
-0.0385817
-0.0365252
-0.0342844
-0.0319003
-0.0293662
-0.0267107
-0.0239333
-0.0210406
-0.0180393
-0.0148852
-0.011562
-0.00790587
-0.00382742
0.000940076
0.0063
0.0119722
0.016797
0.0197854
0.0204909
0.0202704
0.0200022
0.0258107
0.0254679
0.0249447
0.0238273
0.0222306
0.0198606
0.0168725
0.013206
0.00916944
0.00487142
0.000619249
-0.00352981
-0.00742239
-0.0111156
-0.0145687
-0.0178711
-0.0210065
-0.0240384
-0.0269407
-0.0297439
-0.0324142
-0.0349606
-0.0373493
-0.0395767
-0.0416136
-0.0434474
-0.0450548
-0.0464172
-0.0475194
-0.0483401
-0.0488762
-0.0491067
-0.049044
-0.0486696
-0.0480123
-0.0470567
-0.0458461
-0.0443669
-0.0426724
-0.040749
-0.0386529
-0.0363699
-0.0339512
-0.0313836
-0.0287048
-0.0259093
-0.0230114
-0.0200201
-0.0169044
-0.0136695
-0.0101725
-0.00634888
-0.00189659
0.00320048
0.00886966
0.0142035
0.0179056
0.0193389
0.0190601
0.0188264
0.024028
0.0237112
0.023147
0.022002
0.0203454
0.0179351
0.0149058
0.0112334
0.00721323
0.0029662
-0.00122104
-0.00529596
-0.00912385
-0.0127644
-0.0161847
-0.0194703
-0.0226057
-0.0256488
-0.0285731
-0.0314042
-0.0341087
-0.036692
-0.0391218
-0.041391
-0.0434719
-0.0453479
-0.0469979
-0.0483978
-0.0495357
-0.0503839
-0.0509435
-0.0511869
-0.0511321
-0.0507536
-0.0500878
-0.0491117
-0.0478783
-0.0463661
-0.0446394
-0.0426766
-0.040546
-0.038225
-0.0357772
-0.033181
-0.030485
-0.0276765
-0.0247785
-0.0217982
-0.0187146
-0.0155504
-0.0121802
-0.00857967
-0.00442717
0.000327481
0.00583963
0.0113899
0.0157408
0.0178531
0.017736
0.0174521
0.0222742
0.0219893
0.0213914
0.0202321
0.0185326
0.0161057
0.0130595
0.00940471
0.00541755
0.00123142
-0.00288934
-0.00689262
-0.0106611
-0.0142529
-0.0176425
-0.0209098
-0.0240416
-0.0270894
-0.0300277
-0.0328772
-0.0356063
-0.0382162
-0.0406771
-0.0429777
-0.0450932
-0.047002
-0.0486862
-0.0501157
-0.0512827
-0.0521523
-0.0527314
-0.0529841
-0.052936
-0.0525525
-0.0518797
-0.050885
-0.0496328
-0.0480913
-0.0463383
-0.0443412
-0.0421829
-0.0398296
-0.0373598
-0.0347409
-0.0320353
-0.02922
-0.0263293
-0.0233642
-0.0203138
-0.017211
-0.0139458
-0.0105372
-0.00665607
-0.00227411
0.00297798
0.00848897
0.013365
0.016032
0.0163141
0.0158827
0.0206569
0.0204124
0.0197906
0.0186325
0.0169081
0.014488
0.0114477
0.00783187
0.00389191
-0.000225749
-0.0042801
-0.00821579
-0.0119314
-0.01548
-0.0188435
-0.0220945
-0.0252229
-0.0282734
-0.0312228
-0.0340867
-0.0368361
-0.0394675
-0.0419548
-0.0442815
-0.0464269
-0.0483632
-0.0500774
-0.0515319
-0.0527249
-0.0536129
-0.0542102
-0.0544711
-0.0544306
-0.0540434
-0.0533668
-0.0523565
-0.0510907
-0.0495247
-0.0477519
-0.045726
-0.0435471
-0.0411673
-0.0386828
-0.0360467
-0.0333391
-0.0305225
-0.0276471
-0.0247021
-0.0216898
-0.0186445
-0.0154728
-0.0122289
-0.00859084
-0.00457623
0.00034676
0.00563404
0.0108438
0.0139352
0.0147443
0.0141272
0.0191466
0.0189467
0.0183087
0.0171618
0.0154246
0.0130262
0.0100055
0.00643966
0.00255147
-0.00149801
-0.00549133
-0.00936559
-0.0130343
-0.0165427
-0.0198801
-0.0231112
-0.0262302
-0.0292748
-0.032226
-0.0350932
-0.037852
-0.0404931
-0.0429955
-0.0453363
-0.0475006
-0.0494532
-0.0511874
-0.0526571
-0.0538682
-0.054767
-0.0553775
-0.055642
-0.0556074
-0.055215
-0.0545363
-0.0535123
-0.0522373
-0.050651
-0.0488649
-0.046816
-0.0446243
-0.0422241
-0.039733
-0.0370855
-0.0343836
-0.0315713
-0.0287192
-0.0257992
-0.0228322
-0.0198437
-0.0167615
-0.0136604
-0.0102416
-0.00656812
-0.00201556
0.00293285
0.00825148
0.0116411
0.0129642
0.0122009
0.017844
0.0176954
0.017052
0.0159291
0.0141933
0.0118327
0.00884649
0.00534287
0.00151283
-0.00246724
-0.0064032
-0.0102217
-0.0138499
-0.0173229
-0.0206375
-0.0238495
-0.0269585
-0.0299948
-0.0329446
-0.0358107
-0.0385744
-0.0412198
-0.0437319
-0.0460808
-0.0482584
-0.0502209
-0.05197
-0.0534494
-0.0546749
-0.0555806
-0.0562026
-0.0564692
-0.0564415
-0.056045
-0.0553679
-0.0543335
-0.0530554
-0.0514539
-0.0496622
-0.0475963
-0.0454001
-0.0429857
-0.0404961
-0.0378428
-0.0351543
-0.0323508
-0.0295296
-0.0266388
-0.0237246
-0.0207936
-0.0178017
-0.0148269
-0.0116091
-0.0082425
-0.00407805
0.000468033
0.00568454
0.00924347
0.0109786
0.0101535
0.0166923
0.0165967
0.0159556
0.0148637
0.0131374
0.0108229
0.00787795
0.00444033
0.000667214
-0.00324812
-0.00713436
-0.0109041
-0.0144975
-0.0179368
-0.0212278
-0.0244158
-0.0275082
-0.0305268
-0.0334653
-0.0363188
-0.0390761
-0.0417134
-0.0442237
-0.046568
-0.0487475
-0.0507078
-0.0524616
-0.0539398
-0.0551714
-0.0560756
-0.0567036
-0.0569669
-0.0569441
-0.0565413
-0.0558672
-0.0548234
-0.0535465
-0.0519333
-0.0501423
-0.0480644
-0.0458712
-0.0434477
-0.0409672
-0.0383127
-0.0356447
-0.0328537
-0.03007
-0.027211
-0.0243562
-0.021483
-0.0185841
-0.015723
-0.0126918
-0.00959685
-0.00581783
-0.0017005
0.00325036
0.00684872
0.00887126
0.00806665
0.0157874
0.0157487
0.0151213
0.0140719
0.0123672
0.0101107
0.00721804
0.00385466
0.000142627
-0.00370808
-0.00754812
-0.0112743
-0.0148383
-0.0182486
-0.021519
-0.0246843
-0.0277599
-0.0307591
-0.033684
-0.0365214
-0.0392687
-0.0418931
-0.0443971
-0.0467311
-0.0489077
-0.0508599
-0.0526138
-0.0540854
-0.0553197
-0.0562184
-0.0568512
-0.0571094
-0.0570928
-0.0566845
-0.0560173
-0.0549671
-0.0536974
-0.0520771
-0.0502943
-0.0482097
-0.0460275
-0.0436002
-0.0411365
-0.0384848
-0.035844
-0.0330679
-0.0303276
-0.0275015
-0.0247116
-0.0218956
-0.0190927
-0.0163355
-0.0134795
-0.0106233
-0.00721307
-0.00352528
0.00105224
0.00456948
0.00676621
0.00603645
0.0150404
0.0150565
0.0144509
0.0134491
0.0117732
0.00957939
0.00674366
0.00345625
-0.000196346
-0.00398689
-0.0077874
-0.0114759
-0.0150156
-0.018398
-0.0216467
-0.0247843
-0.0278367
-0.0308074
-0.0337093
-0.0365193
-0.0392462
-0.0418456
-0.0443327
-0.0466444
-0.0488078
-0.0507403
-0.0524849
-0.0539396
-0.055169
-0.0560538
-0.0566865
-0.0569337
-0.0569211
-0.0565044
-0.0558449
-0.054788
-0.053529
-0.0519032
-0.0501338
-0.0480452
-0.0458799
-0.0434515
-0.0410104
-0.0383635
-0.035755
-0.032994
-0.030301
-0.0275064
-0.0247847
-0.022023
-0.0193176
-0.0166548
-0.0139636
-0.0113159
-0.00824897
-0.00497269
-0.000827626
0.00250749
0.00478098
0.00414905
0.0145494
0.0146206
0.0140488
0.0131057
0.0114715
0.00935113
0.00658363
0.00338075
-0.000206013
-0.00393417
-0.00769579
-0.01135
-0.0148695
-0.0182286
-0.0214594
-0.0245719
-0.0276028
-0.0305451
-0.0334238
-0.0362047
-0.0389097
-0.0414813
-0.0439492
-0.0462348
-0.0483823
-0.0502907
-0.0520235
-0.0534573
-0.0546802
-0.055548
-0.0561803
-0.0564151
-0.0564086
-0.0559838
-0.0553359
-0.0542744
-0.0530317
-0.0514035
-0.0496541
-0.0475648
-0.0454231
-0.0429961
-0.0405837
-0.0379426
-0.035371
-0.0326243
-0.0299815
-0.0272154
-0.0245634
-0.021851
-0.0192432
-0.0166649
-0.0141294
-0.0116622
-0.00890993
-0.00601514
-0.00232687
0.00074918
0.00301179
0.00247715
0.0141892
0.0143089
0.0137787
0.0128991
0.0113154
0.00927311
0.00658016
0.00346578
-5.28874e-05
-0.00371909
-0.00744472
-0.0110678
-0.0145705
-0.0179068
-0.0211191
-0.0242021
-0.0272063
-0.0301118
-0.0329595
-0.0357011
-0.0383756
-0.0409087
-0.043349
-0.045598
-0.0477218
-0.0495964
-0.0513106
-0.0527144
-0.0539254
-0.0547687
-0.055397
-0.0556136
-0.0556115
-0.0551748
-0.0545391
-0.0534707
-0.0522465
-0.0506149
-0.0488889
-0.0467982
-0.0446838
-0.0422572
-0.0398767
-0.0372389
-0.0347064
-0.0319696
-0.0293776
-0.0266333
-0.0240501
-0.0213784
-0.0188657
-0.0163595
-0.0139697
-0.0116557
-0.00918818
-0.00663634
-0.00340531
-0.000639888
0.00153039
0.00107798
0.0140721
0.0142362
0.0137594
0.0129545
0.0114371
0.00948482
0.00688066
0.00386653
0.000427597
-0.00316923
-0.00685428
-0.010446
-0.0139342
-0.017252
-0.0204508
-0.0235091
-0.0264909
-0.0293629
-0.0321824
-0.0348861
-0.0375317
-0.0400263
-0.04244
-0.0446517
-0.0467525
-0.0485918
-0.050288
-0.0516603
-0.0528603
-0.0536778
-0.054304
-0.0545017
-0.0545071
-0.0540585
-0.0534393
-0.0523648
-0.0511642
-0.0495301
-0.0478328
-0.0457411
-0.043659
-0.0412317
-0.0388869
-0.0362496
-0.033758
-0.0310256
-0.0284841
-0.0257533
-0.0232364
-0.0205945
-0.0181725
-0.0157241
-0.0134702
-0.0112828
-0.00907174
-0.0068202
-0.00403235
-0.00160587
0.000397197
4.94792e-06
0.0140299
0.0142273
0.0138103
0.0130846
0.0116457
0.00979076
0.00728602
0.00438139
0.00103151
-0.00248884
-0.00612947
-0.00968763
-0.0131615
-0.01646
-0.0196449
-0.022675
-0.0256314
-0.028463
-0.031249
-0.0339063
-0.0365173
-0.0389648
-0.0413468
-0.0435129
-0.0455865
-0.0473831
-0.0490582
-0.0503922
-0.051579
-0.0523644
-0.0529872
-0.0531606
-0.0531731
-0.052708
-0.0521058
-0.051021
-0.0498454
-0.0482047
-0.0465376
-0.0444403
-0.0423917
-0.039958
-0.0376493
-0.0350049
-0.0325533
-0.0298153
-0.0273214
-0.0245913
-0.0221358
-0.0195082
-0.0171701
-0.0147611
-0.0126317
-0.0105426
-0.00856005
-0.00656212
-0.00419214
-0.00211023
-0.000338783
-0.000694699
0.0142072
0.0144308
0.0140818
0.0134457
0.0121038
0.0103608
0.00797328
0.00519425
0.00195152
-0.00147776
-0.00506203
-0.00858066
-0.0120389
-0.0153211
-0.0184982
-0.0215072
-0.0244463
-0.0272444
-0.0300043
-0.0326204
-0.0352028
-0.0376068
-0.0399623
-0.0420855
-0.0441368
-0.0458926
-0.0475513
-0.0488481
-0.0500263
-0.0507805
-0.0514045
-0.051554
-0.0515784
-0.0510968
-0.0505165
-0.0494209
-0.048275
-0.0466264
-0.0449939
-0.0428883
-0.0408764
-0.0384317
-0.0361607
-0.0335017
-0.0310897
-0.0283353
-0.0258859
-0.023142
-0.0207422
-0.018111
-0.0158489
-0.0134585
-0.011442
-0.00942241
-0.00764302
-0.00585116
-0.00386735
-0.00211636
-0.000626234
-0.000966895
0.0143818
0.0146187
0.0143396
0.0137969
0.0125664
0.010947
0.00869229
0.00605515
0.00293754
-0.000382962
-0.00389711
-0.00736478
-0.010802
-0.0140628
-0.0172314
-0.020216
-0.0231374
-0.0258975
-0.0286298
-0.0311987
-0.0337507
-0.036105
-0.038433
-0.0405077
-0.0425369
-0.0442468
-0.0458901
-0.0471453
-0.0483165
-0.0490348
-0.0496617
-0.0497823
-0.0498203
-0.0493166
-0.0487597
-0.0476472
-0.0465322
-0.0448683
-0.043271
-0.0411483
-0.0391729
-0.0367064
-0.0344715
-0.0317849
-0.029409
-0.0266222
-0.0242119
-0.0214348
-0.0190828
-0.0164256
-0.0142296
-0.0118323
-0.0099158
-0.00793331
-0.00633163
-0.00469462
-0.00305747
-0.00160328
-0.000423172
-0.000763574
0.0147572
0.0150012
0.0147919
0.0143497
0.0132472
0.0117681
0.00966585
0.0071903
0.00422117
0.00103164
-0.00239187
-0.00579443
-0.00920291
-0.0124421
-0.0156076
-0.0185767
-0.0214923
-0.0242259
-0.0269433
-0.0294752
-0.0320083
-0.0343209
-0.0366315
-0.0386642
-0.0406806
-0.0423501
-0.0439868
-0.0452046
-0.046377
-0.0470624
-0.0476998
-0.0477932
-0.0478516
-0.0473262
-0.0467988
-0.0456679
-0.044589
-0.0429067
-0.0413487
-0.0392034
-0.0372672
-0.0347705
-0.0325725
-0.0298462
-0.0275046
-0.0246691
-0.022293
-0.0194619
-0.01715
-0.0144418
-0.0123022
-0.00986995
-0.00804148
-0.00606272
-0.00461667
-0.00308375
-0.00175192
-0.000545497
0.000319229
-2.64628e-05
0.0150387
0.0152785
0.0151341
0.0147932
0.013831
0.0125083
0.0105784
0.0082883
0.00549414
0.00246595
-0.000840661
-0.00415294
-0.00751747
-0.0107215
-0.0138804
-0.0168288
-0.0197408
-0.0224453
-0.0251516
-0.0276438
-0.0301617
-0.0324298
-0.0347272
-0.0367149
-0.0387236
-0.0403498
-0.0419857
-0.043163
-0.0443425
-0.0449912
-0.0456445
-0.0457057
-0.0457891
-0.0452353
-0.0447409
-0.0435832
-0.0425428
-0.0408315
-0.0393139
-0.0371332
-0.0352358
-0.0326935
-0.0305303
-0.0277457
-0.0254345
-0.0225279
-0.0201798
-0.0172686
-0.0149887
-0.0121996
-0.0101068
-0.00760683
-0.00585498
-0.00384176
-0.00253015
-0.00104533
2.80156e-05
0.00105463
0.00162741
0.00128292
0.015525
0.0157583
0.0156689
0.0154285
0.0146138
0.013462
0.0117219
0.00963791
0.00704368
0.00420454
0.001043
-0.00215512
-0.00545935
-0.00862076
-0.011775
-0.014711
-0.0176343
-0.0203252
-0.0230393
-0.0255077
-0.0280287
-0.0302654
-0.0325659
-0.0345191
-0.0365345
-0.0381259
-0.0397741
-0.0409176
-0.0421161
-0.042733
-0.0434129
-0.0434446
-0.0435624
-0.0429807
-0.0425274
-0.041341
-0.0403457
-0.038601
-0.0371289
-0.0349052
-0.03305
-0.0304506
-0.0283234
-0.0254643
-0.0231817
-0.0201825
-0.0178576
-0.0148388
-0.0125834
-0.00968125
-0.00762662
-0.00502301
-0.00333901
-0.00125161
-5.96692e-05
0.00143133
0.00228671
0.00320881
0.00353518
0.0032119
0.0158157
0.0160345
0.0159908
0.0158461
0.0151852
0.0142217
0.012694
0.0108473
0.0084867
0.00588
0.00290311
-0.000137961
-0.00335248
-0.00644345
-0.00958196
-0.0124942
-0.0154316
-0.0181072
-0.0208386
-0.0232843
-0.0258198
-0.0280262
-0.0303411
-0.0322599
-0.0342933
-0.0358489
-0.0375204
-0.038628
-0.039856
-0.0404373
-0.0411533
-0.0411496
-0.04131
-0.040692
-0.0402865
-0.0390602
-0.0381152
-0.036323
-0.0349
-0.0326163
-0.0308052
-0.0281282
-0.026037
-0.023079
-0.0208231
-0.0177025
-0.0153972
-0.0122378
-0.0100026
-0.00695035
-0.00493006
-0.00218261
-0.000563187
0.00164415
0.00272635
0.00428646
0.00496449
0.00587549
0.00602583
0.00575953
0.0163536
0.0165596
0.0165466
0.016485
0.0159683
0.0151968
0.0138906
0.0122976
0.0101916
0.00784549
0.00508439
0.00223237
-0.000866963
-0.00386955
-0.00698732
-0.00987882
-0.012845
-0.0155222
-0.0182953
-0.0207396
-0.0233154
-0.0255107
-0.0278635
-0.0297636
-0.0318351
-0.0333671
-0.0350796
-0.0361604
-0.0374334
-0.0379855
-0.0387513
-0.0387161
-0.038931
-0.0382778
-0.0379303
-0.0366624
-0.0357763
-0.0339317
-0.0325648
-0.0302122
-0.0284503
-0.0256823
-0.0236298
-0.0205538
-0.0183243
-0.0150563
-0.0127675
-0.00943431
-0.00721437
-0.00397216
-0.00198211
0.000954115
0.00250944
0.00488574
0.00585779
0.0075475
0.00806867
0.00905786
0.00910288
0.00894199
0.0165791
0.0167651
0.0167761
0.0167881
0.0164152
0.0158504
0.0147891
0.0134885
0.011677
0.00964707
0.00715266
0.0045515
0.00161277
-0.00125344
-0.00432691
-0.00717327
-0.0101678
-0.0128411
-0.0156703
-0.0181166
-0.0207527
-0.0229423
-0.0253537
-0.0272387
-0.029368
-0.0308774
-0.0326487
-0.0337008
-0.0350351
-0.0355532
-0.0363835
-0.0363085
-0.036591
-0.0358911
-0.035613
-0.0342884
-0.0334712
-0.0315553
-0.0302531
-0.0278092
-0.0261036
-0.0232178
-0.0212097
-0.0179844
-0.015786
-0.0123348
-0.0100669
-0.00651958
-0.0043211
-0.000844738
0.00110484
0.00427841
0.00575466
0.0083568
0.00920541
0.0111014
0.011479
0.0126604
0.0126788
0.0126902
0.0171454
0.017317
0.0173366
0.0174006
0.0171415
0.0167669
0.0159411
0.0149377
0.0134304
0.0117376
0.00953506
0.00721778
0.00446912
0.00176711
-0.00124805
-0.00404205
-0.00707438
-0.00975668
-0.012668
-0.0151396
-0.0178683
-0.0200769
-0.0225779
-0.0244691
-0.0266833
-0.0281866
-0.0300398
-0.0310754
-0.0324905
-0.0329831
-0.0338945
-0.0337852
-0.0341496
-0.0334053
-0.033209
-0.031827
-0.0310892
-0.029098
-0.0278693
-0.0253258
-0.0236835
-0.0206668
-0.0187079
-0.0153136
-0.0131487
-0.00948632