/*--------------------------------*- C++ -*----------------------------------*\
| =========                 |                                                 |
| \\      /  F ield         | OpenFOAM: The Open Source CFD Toolbox           |
|  \\    /   O peration     | Version:  2406                                  |
|   \\  /    A nd           | Website:  www.openfoam.com                      |
|    \\/     M anipulation  |                                                 |
\*---------------------------------------------------------------------------*/
FoamFile
{
    version     2.0;
    format      ascii;
    arch        "LSB;label=32;scalar=64";
    class       volVectorField;
    location    "10.65";
    object      Uold;
}
// * * * * * * * * * * * * * * * * * * * * * * * * * * * * * * * * * * * * * //

dimensions      [0 1 -1 0 0 0 0];

internalField   nonuniform List<vector> 
14400
(
(5.03926e-06 -4.95569e-06 0)
(1.31531e-05 -3.41658e-06 0)
(1.11638e-05 1.0212e-06 0)
(-5.82497e-06 6.40856e-06 0)
(-3.72722e-05 1.06773e-05 0)
(-8.03948e-05 1.41688e-05 0)
(-0.000133201 1.65386e-05 0)
(-0.000192589 1.82579e-05 0)
(-0.000257108 1.92969e-05 0)
(-0.00032465 1.99671e-05 0)
(-0.000394424 2.02913e-05 0)
(-0.000465247 2.04514e-05 0)
(-0.000536797 2.04689e-05 0)
(-0.000608518 2.04426e-05 0)
(-0.000680366 2.0383e-05 0)
(-0.000752147 2.03391e-05 0)
(-0.000823949 2.03119e-05 0)
(-0.00089576 2.03223e-05 0)
(-0.00096771 2.03657e-05 0)
(-0.00103986 2.04484e-05 0)
(-0.00111232 2.05635e-05 0)
(-0.00118517 2.07102e-05 0)
(-0.00125851 2.08812e-05 0)
(-0.00133237 2.1073e-05 0)
(-0.00140683 2.12786e-05 0)
(-0.0014819 2.14932e-05 0)
(-0.00155759 2.17105e-05 0)
(-0.0016339 2.19252e-05 0)
(-0.0017108 2.21315e-05 0)
(-0.00178825 2.23238e-05 0)
(-0.00186618 2.24963e-05 0)
(-0.00194451 2.26432e-05 0)
(-0.00202313 2.27585e-05 0)
(-0.00210193 2.28364e-05 0)
(-0.00218076 2.28706e-05 0)
(-0.00225946 2.28551e-05 0)
(-0.00233784 2.27834e-05 0)
(-0.0024157 2.26494e-05 0)
(-0.00249282 2.24468e-05 0)
(-0.00256894 2.21694e-05 0)
(-0.00264381 2.1811e-05 0)
(-0.00271713 2.13658e-05 0)
(-0.00278861 2.08283e-05 0)
(-0.00285793 2.01931e-05 0)
(-0.00292475 1.94554e-05 0)
(-0.00298873 1.8611e-05 0)
(-0.00304949 1.76561e-05 0)
(-0.00310668 1.65877e-05 0)
(-0.00315991 1.54036e-05 0)
(-0.0032088 1.41025e-05 0)
(-0.00325297 1.26842e-05 0)
(-0.00329204 1.11493e-05 0)
(-0.00332563 9.49979e-06 0)
(-0.00335339 7.73877e-06 0)
(-0.00337495 5.8707e-06 0)
(-0.00339 3.90139e-06 0)
(-0.00339822 1.83807e-06 0)
(-0.00339933 -3.10598e-07 0)
(-0.00339309 -2.5345e-06 0)
(-0.00337928 -4.82208e-06 0)
(-0.00335774 -7.16036e-06 0)
(-0.00332833 -9.53503e-06 0)
(-0.00329098 -1.19305e-05 0)
(-0.00324566 -1.43301e-05 0)
(-0.00319242 -1.6716e-05 0)
(-0.00313134 -1.90698e-05 0)
(-0.00306256 -2.13723e-05 0)
(-0.00298631 -2.36042e-05 0)
(-0.00290285 -2.57458e-05 0)
(-0.00281253 -2.7778e-05 0)
(-0.00271573 -2.96818e-05 0)
(-0.00261291 -3.14395e-05 0)
(-0.00250458 -3.30342e-05 0)
(-0.0023913 -3.44507e-05 0)
(-0.00227365 -3.56756e-05 0)
(-0.0021523 -3.66973e-05 0)
(-0.0020279 -3.75068e-05 0)
(-0.00190116 -3.80974e-05 0)
(-0.00177279 -3.8465e-05 0)
(-0.0016435 -3.86082e-05 0)
(-0.00151403 -3.85285e-05 0)
(-0.00138509 -3.82298e-05 0)
(-0.00125737 -3.77187e-05 0)
(-0.00113154 -3.70042e-05 0)
(-0.00100826 -3.60975e-05 0)
(-0.000888116 -3.50117e-05 0)
(-0.00077168 -3.37612e-05 0)
(-0.000659465 -3.23622e-05 0)
(-0.000551934 -3.08312e-05 0)
(-0.000449499 -2.91858e-05 0)
(-0.000352516 -2.74431e-05 0)
(-0.000261289 -2.56206e-05 0)
(-0.000176067 -2.37348e-05 0)
(-9.70494e-05 -2.18017e-05 0)
(-2.43867e-05 -1.9836e-05 0)
(4.18169e-05 -1.78513e-05 0)
(0.000101494 -1.58594e-05 0)
(0.000154619 -1.38713e-05 0)
(0.000201191 -1.18954e-05 0)
(0.000241245 -9.93991e-06 0)
(0.000274826 -8.00959e-06 0)
(0.000302016 -6.11059e-06 0)
(0.000322882 -4.24426e-06 0)
(0.000337549 -2.41615e-06 0)
(0.000346089 -6.24178e-07 0)
(0.00034867 1.12378e-06 0)
(0.000345359 2.83329e-06 0)
(0.0003364 4.48859e-06 0)
(0.000321844 6.09893e-06 0)
(0.00030209 7.62922e-06 0)
(0.000277183 9.09204e-06 0)
(0.000247851 1.04075e-05 0)
(0.000214181 1.15873e-05 0)
(0.000177585 1.24451e-05 0)
(0.00013836 1.29711e-05 0)
(9.9303e-05 1.27176e-05 0)
(6.13769e-05 1.16107e-05 0)
(2.98585e-05 8.67956e-06 0)
(6.83356e-06 4.33271e-06 0)
(-1.3244e-06 -1.31559e-06 0)
(3.68049e-06 -1.32773e-05 0)
(-6.36927e-07 8.25142e-07 0)
(-3.18032e-05 2.62013e-05 0)
(-9.49885e-05 5.57851e-05 0)
(-0.00019101 8.13574e-05 0)
(-0.000314556 0.000103145 0)
(-0.000462059 0.000119545 0)
(-0.000627152 0.00013199 0)
(-0.00080631 0.000140558 0)
(-0.000994829 0.000146481 0)
(-0.00119035 0.000150153 0)
(-0.00139004 0.000152408 0)
(-0.00159265 0.000153583 0)
(-0.00179675 0.000154177 0)
(-0.00200186 0.000154398 0)
(-0.00220741 0.000154511 0)
(-0.00241336 0.000154615 0)
(-0.0026196 0.000154828 0)
(-0.00282627 0.000155178 0)
(-0.00303345 0.0001557 0)
(-0.00324135 0.000156384 0)
(-0.00345009 0.000157223 0)
(-0.00365982 0.000158186 0)
(-0.00387064 0.000159249 0)
(-0.00408263 0.000160375 0)
(-0.00429581 0.000161529 0)
(-0.00451017 0.000162674 0)
(-0.00472565 0.000163772 0)
(-0.00494214 0.000164784 0)
(-0.00515949 0.000165671 0)
(-0.00537748 0.000166394 0)
(-0.00559586 0.000166911 0)
(-0.00581433 0.000167183 0)
(-0.00603252 0.000167167 0)
(-0.00625002 0.000166822 0)
(-0.00646636 0.000166106 0)
(-0.00668104 0.000164976 0)
(-0.00689347 0.00016339 0)
(-0.00710304 0.000161306 0)
(-0.00730908 0.000158684 0)
(-0.00751087 0.000155485 0)
(-0.00770764 0.000151672 0)
(-0.00789859 0.000147208 0)
(-0.00808287 0.000142063 0)
(-0.00825959 0.000136207 0)
(-0.00842785 0.000129617 0)
(-0.00858672 0.000122271 0)
(-0.00873524 0.000114156 0)
(-0.00887245 0.000105262 0)
(-0.00899739 9.55865e-05 0)
(-0.00910911 8.51346e-05 0)
(-0.00920665 7.39176e-05 0)
(-0.00928911 6.19551e-05 0)
(-0.00935561 4.92749e-05 0)
(-0.00940531 3.59134e-05 0)
(-0.00943742 2.19157e-05 0)
(-0.00945124 7.33586e-06 0)
(-0.00944612 -7.76295e-06 0)
(-0.00942153 -2.33087e-05 0)
(-0.00937699 -3.92208e-05 0)
(-0.00931218 -5.54101e-05 0)
(-0.00922686 -7.17796e-05 0)
(-0.00912091 -8.82254e-05 0)
(-0.00899438 -0.000104637 0)
(-0.00884742 -0.000120899 0)
(-0.00868035 -0.000136891 0)
(-0.0084936 -0.000152491 0)
(-0.00828779 -0.000167576 0)
(-0.00806365 -0.000182022 0)
(-0.00782209 -0.000195709 0)
(-0.00756412 -0.000208518 0)
(-0.00729092 -0.000220341 0)
(-0.00700377 -0.000231073 0)
(-0.00670407 -0.00024062 0)
(-0.00639335 -0.000248902 0)
(-0.00607318 -0.000255847 0)
(-0.00574523 -0.000261401 0)
(-0.00541123 -0.000265523 0)
(-0.00507293 -0.000268189 0)
(-0.00473212 -0.000269391 0)
(-0.00439056 -0.000269137 0)
(-0.00405001 -0.000267451 0)
(-0.00371219 -0.000264374 0)
(-0.00337876 -0.00025996 0)
(-0.00305132 -0.000254277 0)
(-0.00273136 -0.000247405 0)
(-0.0024203 -0.000239431 0)
(-0.00211944 -0.000230453 0)
(-0.00182996 -0.000220574 0)
(-0.00155292 -0.000209899 0)
(-0.00128925 -0.000198537 0)
(-0.00103978 -0.000186592 0)
(-0.000805173 -0.00017417 0)
(-0.000586013 -0.000161368 0)
(-0.000382753 -0.00014828 0)
(-0.000195738 -0.000134992 0)
(-2.5223e-05 -0.00012158 0)
(0.000128631 -0.000108114 0)
(0.000265731 -9.46511e-05 0)
(0.000386065 -8.12444e-05 0)
(0.000489657 -6.79337e-05 0)
(0.000576614 -5.47572e-05 0)
(0.000647038 -4.17404e-05 0)
(0.000701134 -2.89158e-05 0)
(0.000739058 -1.63012e-05 0)
(0.000761131 -3.93844e-06 0)
(0.000767558 8.15034e-06 0)
(0.00075885 1.98854e-05 0)
(0.000735292 3.12191e-05 0)
(0.000697772 4.19787e-05 0)
(0.000646754 5.20515e-05 0)
(0.000583881 6.10602e-05 0)
(0.000510013 6.87537e-05 0)
(0.000428273 7.43231e-05 0)
(0.000340307 7.72659e-05 0)
(0.000251928 7.59192e-05 0)
(0.000166 6.95589e-05 0)
(9.23817e-05 5.53296e-05 0)
(3.43328e-05 3.44127e-05 0)
(4.28276e-06 6.80722e-06 0)
(-8.68144e-07 -1.13275e-05 0)
(-2.74103e-05 3.25817e-05 0)
(-9.94164e-05 9.67259e-05 0)
(-0.000216318 0.000168081 0)
(-0.00038026 0.000231655 0)
(-0.000582856 0.000286401 0)
(-0.000820159 0.000329211 0)
(-0.00108339 0.000362264 0)
(-0.00136791 0.000386036 0)
(-0.00166718 0.000402908 0)
(-0.00197777 0.000414059 0)
(-0.0022956 0.000421279 0)
(-0.00261867 0.000425569 0)
(-0.00294479 0.000428067 0)
(-0.00327308 0.000429413 0)
(-0.00360255 0.000430239 0)
(-0.00393298 0.000430876 0)
(-0.00426407 0.000431618 0)
(-0.00459591 0.000432589 0)
(-0.00492851 0.00043388 0)
(-0.00526206 0.000435496 0)
(-0.00559665 0.000437423 0)
(-0.00593245 0.000439602 0)
(-0.00626951 0.00044197 0)
(-0.00660789 0.000444441 0)
(-0.00694757 0.000446927 0)
(-0.00728846 0.000449331 0)
(-0.00763043 0.000451558 0)
(-0.00797325 0.000453505 0)
(-0.00831664 0.000455071 0)
(-0.00866022 0.00045615 0)
(-0.00900357 0.000456636 0)
(-0.00934617 0.000456423 0)
(-0.00968742 0.0004554 0)
(-0.0100267 0.00045346 0)
(-0.0103631 0.000450491 0)
(-0.010696 0.000446384 0)
(-0.0110244 0.000441033 0)
(-0.0113474 0.000434329 0)
(-0.0116638 0.000426172 0)
(-0.0119727 0.000416462 0)
(-0.0122727 0.000405108 0)
(-0.0125627 0.000392024 0)
(-0.0128415 0.000377134 0)
(-0.0131076 0.00036037 0)
(-0.0133597 0.000341679 0)
(-0.0135964 0.000321017 0)
(-0.0138164 0.000298358 0)
(-0.0140182 0.000273688 0)
(-0.0142004 0.000247013 0)
(-0.0143617 0.000218356 0)
(-0.0145007 0.000187759 0)
(-0.0146161 0.000155285 0)
(-0.0147067 0.000121018 0)
(-0.0147714 8.50636e-05 0)
(-0.0148091 4.75483e-05 0)
(-0.0148188 8.62172e-06 0)
(-0.0147997 -3.15448e-05 0)
(-0.0147511 -7.27584e-05 0)
(-0.0146724 -0.000114806 0)
(-0.0145634 -0.000157453 0)
(-0.0144236 -0.00020045 0)
(-0.0142532 -0.000243528 0)
(-0.0140522 -0.000286407 0)
(-0.0138211 -0.000328792 0)
(-0.0135602 -0.000370383 0)
(-0.0132705 -0.000410873 0)
(-0.0129529 -0.000449955 0)
(-0.0126084 -0.000487323 0)
(-0.0122386 -0.00052268 0)
(-0.0118449 -0.00055574 0)
(-0.011429 -0.00058623 0)
(-0.0109929 -0.0006139 0)
(-0.0105386 -0.000638522 0)
(-0.0100684 -0.000659899 0)
(-0.00958438 -0.000677861 0)
(-0.00908912 -0.000692277 0)
(-0.00858504 -0.000703051 0)
(-0.00807466 -0.000710124 0)
(-0.00756053 -0.00071348 0)
(-0.00704517 -0.00071314 0)
(-0.0065311 -0.000709164 0)
(-0.00602078 -0.000701652 0)
(-0.00551658 -0.000690735 0)
(-0.00502078 -0.00067658 0)
(-0.00453554 -0.00065938 0)
(-0.0040629 -0.000639353 0)
(-0.00360474 -0.000616733 0)
(-0.00316279 -0.000591773 0)
(-0.00273859 -0.00056473 0)
(-0.00233354 -0.000535868 0)
(-0.00194885 -0.000505447 0)
(-0.00158557 -0.000473723 0)
(-0.00124458 -0.000440938 0)
(-0.000926616 -0.000407324 0)
(-0.000632249 -0.000373091 0)
(-0.000361933 -0.000338433 0)
(-0.000115989 -0.000303522 0)
(0.00010536 -0.000268507 0)
(0.000302002 -0.000233518 0)
(0.000473882 -0.000198665 0)
(0.000621056 -0.000164046 0)
(0.000743596 -0.000129739 0)
(0.000841705 -9.58303e-05 0)
(0.000915555 -6.2393e-05 0)
(0.000965529 -2.95352e-05 0)
(0.000991914 2.63448e-06 0)
(0.000995387 3.39181e-05 0)
(0.000976423 6.41022e-05 0)
(0.000936257 9.27768e-05 0)
(0.000875725 0.000119499 0)
(0.000797133 0.000143419 0)
(0.000701986 0.000163656 0)
(0.000594581 0.00017852 0)
(0.000477508 0.000186427 0)
(0.000358494 0.00018429 0)
(0.000241386 0.000169981 0)
(0.000139063 0.000139143 0)
(5.51789e-05 9.24661e-05 0)
(8.57301e-06 2.97244e-05 0)
(-6.75492e-06 6.76009e-06 0)
(-6.07743e-05 9.9499e-05 0)
(-0.000180309 0.000216105 0)
(-0.000355455 0.000339562 0)
(-0.000589279 0.000450138 0)
(-0.000869557 0.00054564 0)
(-0.00119267 0.000621772 0)
(-0.00154776 0.000681328 0)
(-0.00192987 0.000725254 0)
(-0.00233103 0.000757084 0)
(-0.00274725 0.000778893 0)
(-0.00317345 0.000793529 0)
(-0.00360716 0.000802784 0)
(-0.00404552 0.000808552 0)
(-0.00448728 0.000812015 0)
(-0.0049311 0.000814261 0)
(-0.00537651 0.000815929 0)
(-0.00582301 0.000817546 0)
(-0.00627055 0.000819372 0)
(-0.00671904 0.000821587 0)
(-0.00716857 0.000824227 0)
(-0.00761918 0.00082728 0)
(-0.00807094 0.000830661 0)
(-0.00852386 0.000834262 0)
(-0.00897791 0.00083794 0)
(-0.00943298 0.000841543 0)
(-0.0098889 0.000844902 0)
(-0.0103454 0.000847844 0)
(-0.0108021 0.000850188 0)
(-0.0112587 0.000851749 0)
(-0.0117144 0.000852339 0)
(-0.0121689 0.000851766 0)
(-0.0126212 0.000849837 0)
(-0.0130706 0.000846357 0)
(-0.0135162 0.000841129 0)
(-0.0139569 0.000833958 0)
(-0.0143917 0.00082465 0)
(-0.0148194 0.000813014 0)
(-0.0152386 0.000798867 0)
(-0.0156479 0.00078203 0)
(-0.0160461 0.000762335 0)
(-0.0164314 0.000739626 0)
(-0.0168024 0.000713763 0)
(-0.0171573 0.000684621 0)
(-0.0174946 0.000652094 0)
(-0.0178124 0.000616101 0)
(-0.0181092 0.000576581 0)
(-0.018383 0.000533505 0)
(-0.0186323 0.000486869 0)
(-0.0188553 0.000436701 0)
(-0.0190503 0.000383064 0)
(-0.0192158 0.000326052 0)
(-0.0193501 0.000265797 0)
(-0.019452 0.000202468 0)
(-0.0195201 0.000136269 0)
(-0.0195531 6.74447e-05 0)
(-0.01955 -3.72581e-06 0)
(-0.0195099 -7.69251e-05 0)
(-0.0194321 -0.0001518 0)
(-0.019316 -0.000227966 0)
(-0.0191614 -0.000305002 0)
(-0.018968 -0.000382463 0)
(-0.018736 -0.000459876 0)
(-0.0184658 -0.000536746 0)
(-0.0181578 -0.000612564 0)
(-0.0178129 -0.000686806 0)
(-0.0174321 -0.000758945 0)
(-0.0170167 -0.000828452 0)
(-0.0165683 -0.000894806 0)
(-0.0160886 -0.0009575 0)
(-0.0155795 -0.00101605 0)
(-0.0150433 -0.00106999 0)
(-0.0144824 -0.00111891 0)
(-0.0138992 -0.00116242 0)
(-0.0132965 -0.00120019 0)
(-0.0126772 -0.00123194 0)
(-0.0120441 -0.00125745 0)
(-0.0114003 -0.00127657 0)
(-0.0107489 -0.00128919 0)
(-0.0100929 -0.00129531 0)
(-0.00943538 -0.00129495 0)
(-0.00877946 -0.00128823 0)
(-0.00812808 -0.00127531 0)
(-0.00748413 -0.00125641 0)
(-0.00685037 -0.00123184 0)
(-0.00622945 -0.0012019 0)
(-0.00562384 -0.00116698 0)
(-0.00503583 -0.00112747 0)
(-0.00446754 -0.0010838 0)
(-0.0039209 -0.00103641 0)
(-0.00339763 -0.000985739 0)
(-0.00289925 -0.000932242 0)
(-0.00242709 -0.00087635 0)
(-0.00198228 -0.000818479 0)
(-0.00156577 -0.000759022 0)
(-0.00117835 -0.000698342 0)
(-0.000820635 -0.000636769 0)
(-0.000493103 -0.000574602 0)
(-0.000196114 -0.000512099 0)
(7.01071e-05 -0.00044949 0)
(0.000305406 -0.000386969 0)
(0.000509759 -0.000324712 0)
(0.000683173 -0.000262871 0)
(0.000825813 -0.000201606 0)
(0.000937825 -0.000141071 0)
(0.00101961 -8.14755e-05 0)
(0.0010715 -2.30548e-05 0)
(0.00109427 3.38201e-05 0)
(0.00108853 8.87012e-05 0)
(0.00105579 0.000140856 0)
(0.000997154 0.000189406 0)
(0.00091544 0.000232917 0)
(0.00081259 0.000269742 0)
(0.000693739 0.000297214 0)
(0.000562 0.000312538 0)
(0.000426349 0.00031124 0)
(0.000290963 0.000289583 0)
(0.000170771 0.000241721 0)
(6.96013e-05 0.000166279 0)
(1.14624e-05 6.10776e-05 0)
(-1.21327e-05 4.19711e-05 0)
(-9.3517e-05 0.00020577 0)
(-0.000261615 0.000391134 0)
(-0.000495949 0.000578799 0)
(-0.000799932 0.000746352 0)
(-0.00115665 0.000890776 0)
(-0.0015628 0.00100719 0)
(-0.00200532 0.00109902 0)
(-0.00247928 0.00116791 0)
(-0.00297546 0.00121857 0)
(-0.00348966 0.00125414 0)
(-0.00401602 0.0012786 0)
(-0.00455175 0.00129467 0)
(-0.00509352 0.0013051 0)
(-0.00563981 0.0013117 0)
(-0.00618893 0.0013161 0)
(-0.00674024 0.00131932 0)
(-0.007293 0.00132216 0)
(-0.00784705 0.00132505 0)
(-0.00840213 0.0013283 0)
(-0.00895823 0.00133198 0)
(-0.00951526 0.0013361 0)
(-0.0100732 0.00134054 0)
(-0.010632 0.00134514 0)
(-0.0111914 0.0013497 0)
(-0.0117513 0.00135399 0)
(-0.0123114 0.00135776 0)
(-0.0128712 0.00136073 0)
(-0.0134303 0.00136262 0)
(-0.013988 0.00136317 0)
(-0.0145437 0.00136206 0)
(-0.0150964 0.00135901 0)
(-0.0156454 0.00135372 0)
(-0.0161895 0.00134589 0)
(-0.0167275 0.00133521 0)
(-0.0172583 0.00132138 0)
(-0.0177805 0.00130412 0)
(-0.0182925 0.00128314 0)
(-0.0187928 0.00125816 0)
(-0.0192798 0.00122891 0)
(-0.0197516 0.00119515 0)
(-0.0202066 0.00115667 0)
(-0.0206427 0.00111324 0)
(-0.0210582 0.00106472 0)
(-0.021451 0.00101095 0)
(-0.0218191 0.000951832 0)
(-0.0221606 0.000887304 0)
(-0.0224734 0.000817344 0)
(-0.0227557 0.000741975 0)
(-0.0230056 0.00066127 0)
(-0.0232211 0.000575353 0)
(-0.0234006 0.000484399 0)
(-0.0235424 0.000388638 0)
(-0.0236449 0.000288353 0)
(-0.0237068 0.000183884 0)
(-0.0237269 7.56261e-05 0)
(-0.023704 -3.59734e-05 0)
(-0.0236373 -0.000150413 0)
(-0.0235262 -0.000267142 0)
(-0.0233702 -0.00038556 0)
(-0.0231691 -0.000505024 0)
(-0.0229228 -0.000624854 0)
(-0.0226318 -0.00074433 0)
(-0.0222965 -0.00086271 0)
(-0.0219177 -0.000979226 0)
(-0.0214964 -0.0010931 0)
(-0.0210341 -0.00120354 0)
(-0.0205323 -0.00130978 0)
(-0.0199928 -0.00141104 0)
(-0.0194177 -0.00150657 0)
(-0.0188094 -0.00159567 0)
(-0.0181704 -0.00167767 0)
(-0.0175034 -0.00175195 0)
(-0.0168115 -0.00181795 0)
(-0.0160977 -0.00187521 0)
(-0.0153652 -0.00192332 0)
(-0.0146174 -0.00196196 0)
(-0.0138577 -0.00199091 0)
(-0.0130895 -0.00201005 0)
(-0.0123164 -0.00201934 0)
(-0.0115419 -0.00201886 0)
(-0.0107693 -0.00200876 0)
(-0.0100021 -0.0019893 0)
(-0.00924339 -0.00196082 0)
(-0.00849638 -0.00192374 0)
(-0.00776403 -0.00187855 0)
(-0.00704912 -0.00182578 0)
(-0.00635424 -0.00176605 0)
(-0.0056818 -0.00169996 0)
(-0.00503398 -0.00162818 0)
(-0.00441274 -0.00155137 0)
(-0.00381982 -0.00147017 0)
(-0.00325676 -0.00138523 0)
(-0.00272486 -0.00129717 0)
(-0.00222524 -0.00120656 0)
(-0.00175884 -0.00111395 0)
(-0.00132642 -0.00101982 0)
(-0.000928577 -0.000924625 0)
(-0.000565776 -0.000828741 0)
(-0.000238345 -0.000732514 0)
(5.34733e-05 -0.000636243 0)
(0.000309579 -0.000540196 0)
(0.000529909 -0.000444617 0)
(0.000714582 -0.000349759 0)
(0.000863705 -0.000255884 0)
(0.000977676 -0.000163331 0)
(0.00105682 -7.25043e-05 0)
(0.00110201 1.60037e-05 0)
(0.00111391 0.000101442 0)
(0.00109422 0.000182686 0)
(0.00104421 0.000258316 0)
(0.000967041 0.000326224 0)
(0.00086492 0.00038386 0)
(0.000743534 0.000427503 0)
(0.000606264 0.000452976 0)
(0.000462944 0.000454388 0)
(0.000317951 0.000426074 0)
(0.000187824 0.000360538 0)
(7.68137e-05 0.000253275 0)
(1.26116e-05 9.89974e-05 0)
(-1.72466e-05 9.3263e-05 0)
(-0.000125536 0.000350006 0)
(-0.000341665 0.000619103 0)
(-0.000634515 0.000880898 0)
(-0.0010074 0.00111253 0)
(-0.00143835 0.00131107 0)
(-0.00192425 0.00147193 0)
(-0.00244979 0.00159942 0)
(-0.00301017 0.00169615 0)
(-0.00359506 0.00176807 0)
(-0.00420026 0.00181945 0)
(-0.00481925 0.00185544 0)
(-0.00544915 0.00187972 0)
(-0.00608616 0.00189591 0)
(-0.00672864 0.0019065 0)
(-0.0073746 0.00191368 0)
(-0.00802324 0.00191887 0)
(-0.00867362 0.00192319 0)
(-0.00932543 0.00192725 0)
(-0.00997825 0.00193149 0)
(-0.010632 0.00193605 0)
(-0.0112863 0.00194094 0)
(-0.0119412 0.00194602 0)
(-0.0125963 0.00195109 0)
(-0.0132515 0.00195587 0)
(-0.0139063 0.00196005 0)
(-0.0145603 0.00196328 0)
(-0.015213 0.00196519 0)
(-0.0158637 0.0019654 0)
(-0.0165115 0.00196351 0)
(-0.0171557 0.00195911 0)
(-0.0177952 0.00195179 0)
(-0.0184289 0.00194113 0)
(-0.0190554 0.00192672 0)
(-0.0196734 0.00190815 0)
(-0.0202815 0.00188499 0)
(-0.0208779 0.00185686 0)
(-0.0214611 0.00182337 0)
(-0.022029 0.00178413 0)
(-0.02258 0.00173881 0)
(-0.0231119 0.00168708 0)
(-0.0236227 0.00162866 0)
(-0.0241103 0.00156329 0)
(-0.0245726 0.00149077 0)
(-0.0250073 0.00141092 0)
(-0.0254124 0.00132366 0)
(-0.0257856 0.00122891 0)
(-0.0261248 0.0011267 0)
(-0.0264279 0.00101709 0)
(-0.0266929 0.000900224 0)
(-0.0269178 0.000776312 0)
(-0.027101 0.000645635 0)
(-0.0272406 0.000508548 0)
(-0.0273351 0.000365479 0)
(-0.0273832 0.000216928 0)
(-0.0273837 6.34676e-05 0)
(-0.0273355 -9.42591e-05 0)
(-0.0272379 -0.000255541 0)
(-0.0270904 -0.000419604 0)
(-0.0268926 -0.000585613 0)
(-0.0266445 -0.000752677 0)
(-0.0263464 -0.00091986 0)
(-0.0259985 -0.00108618 0)
(-0.0256018 -0.00125063 0)
(-0.0251573 -0.00141216 0)
(-0.0246662 -0.00156974 0)
(-0.0241302 -0.0017223 0)
(-0.023551 -0.0018688 0)
(-0.0229309 -0.00200821 0)
(-0.0222722 -0.00213955 0)
(-0.0215774 -0.00226187 0)
(-0.0208496 -0.00237429 0)
(-0.0200916 -0.002476 0)
(-0.0193069 -0.00256626 0)
(-0.0184987 -0.00264447 0)
(-0.0176706 -0.00271008 0)
(-0.0168263 -0.0027627 0)
(-0.0159696 -0.00280204 0)
(-0.015104 -0.00282794 0)
(-0.0142336 -0.00284037 0)
(-0.013362 -0.00283944 0)
(-0.0124929 -0.00282537 0)
(-0.01163 -0.00279852 0)
(-0.0107768 -0.00275934 0)
(-0.00993665 -0.00270839 0)
(-0.00911275 -0.00264635 0)
(-0.00830813 -0.00257394 0)
(-0.00752559 -0.00249196 0)
(-0.00676773 -0.00240126 0)
(-0.00603689 -0.00230271 0)
(-0.00533521 -0.00219719 0)
(-0.00466458 -0.00208559 0)
(-0.00402665 -0.00196876 0)
(-0.00342287 -0.00184753 0)
(-0.00285446 -0.00172269 0)
(-0.00232245 -0.00159494 0)
(-0.00182769 -0.00146496 0)
(-0.00137085 -0.00133333 0)
(-0.000952485 -0.00120057 0)
(-0.000572976 -0.00106716 0)
(-0.000232632 -0.000933499 0)
(6.83932e-05 -0.000799951 0)
(0.000329988 -0.000666865 0)
(0.000552233 -0.000534598 0)
(0.000735205 -0.000403536 0)
(0.000879291 -0.000274166 0)
(0.000984822 -0.000147089 0)
(0.0010527 -2.31482e-05 0)
(0.00108365 9.65646e-05 0)
(0.00107948 0.000210489 0)
(0.00104158 0.000316623 0)
(0.000973338 0.000412148 0)
(0.000877093 0.000493569 0)
(0.000758891 0.000556099 0)
(0.00062226 0.000594139 0)
(0.000477574 0.000600343 0)
(0.000329381 0.000566946 0)
(0.000195248 0.000484458 0)
(7.99293e-05 0.000344655 0)
(1.30297e-05 0.00013857 0)
(-2.17465e-05 0.000160115 0)
(-0.000155115 0.000531995 0)
(-0.000416961 0.000900674 0)
(-0.000766067 0.00124761 0)
(-0.00120542 0.00155124 0)
(-0.00170779 0.00180955 0)
(-0.00227007 0.00201916 0)
(-0.00287455 0.00218561 0)
(-0.00351657 0.00231284 0)
(-0.00418468 0.00240816 0)
(-0.00487477 0.00247713 0)
(-0.00557975 0.00252607 0)
(-0.00629675 0.00255972 0)
(-0.00702163 0.00258257 0)
(-0.00775266 0.00259785 0)
(-0.00848763 0.00260831 0)
(-0.00922561 0.0026158 0)
(-0.00996549 0.00262175 0)
(-0.0107068 0.002627 0)
(-0.011449 0.00263211 0)
(-0.0121919 0.00263728 0)
(-0.0129349 0.00264254 0)
(-0.013678 0.00264773 0)
(-0.0144206 0.0026526 0)
(-0.0151624 0.0026568 0)
(-0.0159028 0.00265993 0)
(-0.0166413 0.00266152 0)
(-0.0173772 0.0026611 0)
(-0.0181095 0.00265817 0)
(-0.0188375 0.00265221 0)
(-0.0195599 0.00264269 0)
(-0.0202755 0.00262907 0)
(-0.020983 0.0026108 0)
(-0.021681 0.00258734 0)
(-0.0223679 0.00255817 0)
(-0.0230418 0.00252274 0)
(-0.0237011 0.00248055 0)
(-0.0243437 0.00243111 0)
(-0.0249677 0.00237396 0)
(-0.0255708 0.00230865 0)
(-0.026151 0.0022348 0)
(-0.026706 0.00215207 0)
(-0.0272334 0.00206016 0)
(-0.027731 0.00195883 0)
(-0.0281964 0.00184792 0)
(-0.0286273 0.00172734 0)
(-0.0290215 0.00159706 0)
(-0.0293767 0.00145715 0)
(-0.0296907 0.00130773 0)
(-0.0299616 0.00114906 0)
(-0.0301873 0.000981453 0)
(-0.030366 0.000805317 0)
(-0.0304961 0.000621161 0)
(-0.0305762 0.00042958 0)
(-0.0306048 0.000231262 0)
(-0.0305809 2.69843e-05 0)
(-0.0305036 -0.000182394 0)
(-0.0303723 -0.000395928 0)
(-0.0301866 -0.0006126 0)
(-0.0299463 -0.000831318 0)
(-0.0296516 -0.00105093 0)
(-0.0293028 -0.00127022 0)
(-0.0289006 -0.00148793 0)
(-0.0284461 -0.00170278 0)
(-0.0279404 -0.00191343 0)
(-0.027385 -0.00211855 0)
(-0.0267818 -0.00231682 0)
(-0.0261329 -0.00250691 0)
(-0.0254406 -0.00268754 0)
(-0.0247075 -0.00285745 0)
(-0.0239365 -0.00301547 0)
(-0.0231306 -0.00316049 0)
(-0.0222933 -0.00329151 0)
(-0.021428 -0.00340762 0)
(-0.0205383 -0.00350803 0)
(-0.0196281 -0.00359211 0)
(-0.0187012 -0.00365935 0)
(-0.0177616 -0.00370941 0)
(-0.0168133 -0.00374211 0)
(-0.0158605 -0.00375743 0)
(-0.014907 -0.0037555 0)
(-0.0139568 -0.00373662 0)
(-0.0130138 -0.00370126 0)
(-0.0120817 -0.00365001 0)
(-0.011164 -0.00358359 0)
(-0.0102642 -0.00350286 0)
(-0.0093854 -0.00340875 0)
(-0.00853057 -0.00330228 0)
(-0.00770243 -0.00318454 0)
(-0.00690348 -0.00305663 0)
(-0.00613594 -0.00291969 0)
(-0.0054018 -0.00277483 0)
(-0.00470278 -0.00262315 0)
(-0.0040404 -0.00246571 0)
(-0.00341592 -0.00230348 0)
(-0.00283043 -0.0021374 0)
(-0.0022848 -0.00196828 0)
(-0.00177975 -0.00179689 0)
(-0.00131583 -0.0016239 0)
(-0.000893475 -0.00144988 0)
(-0.000512996 -0.00127537 0)
(-0.000174569 -0.00110083 0)
(0.000121676 -0.000926721 0)
(0.000375807 -0.000753508 0)
(0.00058789 -0.000581711 0)
(0.000758314 -0.000411981 0)
(0.000887412 -0.000245133 0)
(0.000976112 -8.22862e-05 0)
(0.00102518 7.50989e-05 0)
(0.00103648 0.000224995 0)
(0.00101147 0.00036478 0)
(0.00095366 0.000490885 0)
(0.00086548 0.000598831 0)
(0.000753184 0.000682718 0)
(0.000620399 0.000735469 0)
(0.000477851 0.000748184 0)
(0.000330291 0.000710878 0)
(0.00019593 0.000611804 0)
(7.99882e-05 0.000438948 0)
(1.28479e-05 0.000179343 0)
(-2.59363e-05 0.000240816 0)
(-0.000182912 0.000748576 0)
(-0.000487991 0.00123162 0)
(-0.000890614 0.00167374 0)
(-0.00139329 0.00205612 0)
(-0.00196369 0.00237869 0)
(-0.00259849 0.0026401 0)
(-0.0032776 0.00284765 0)
(-0.0039964 0.00300698 0)
(-0.0047424 0.00312695 0)
(-0.00551159 0.00321453 0)
(-0.00629638 0.00327729 0)
(-0.00709393 0.00332102 0)
(-0.00789984 0.00335111 0)
(-0.00871237 0.00337152 0)
(-0.00952909 0.00338556 0)
(-0.010349 0.00339551 0)
(-0.0111708 0.00340312 0)
(-0.011994 0.00340943 0)
(-0.0128178 0.00341513 0)
(-0.0136419 0.0034205 0)
(-0.0144656 0.00342558 0)
(-0.0152887 0.00343019 0)
(-0.0161105 0.00343401 0)
(-0.0169305 0.00343662 0)
(-0.017748 0.00343752 0)
(-0.0185623 0.00343614 0)
(-0.0193725 0.0034319 0)
(-0.0201775 0.00342417 0)
(-0.0209763 0.00341229 0)
(-0.0217675 0.0033956 0)
(-0.0225498 0.00337344 0)
(-0.0233216 0.00334514 0)
(-0.0240813 0.00331001 0)
(-0.024827 0.00326741 0)
(-0.0255569 0.00321669 0)
(-0.026269 0.00315722 0)
(-0.026961 0.00308842 0)
(-0.0276308 0.00300974 0)
(-0.0282761 0.00292066 0)
(-0.0288945 0.00282074 0)
(-0.0294836 0.00270959 0)
(-0.0300411 0.00258688 0)
(-0.0305644 0.00245239 0)
(-0.0310511 0.00230594 0)
(-0.0314989 0.00214749 0)
(-0.0319054 0.00197706 0)
(-0.0322683 0.00179478 0)
(-0.0325855 0.0016009 0)
(-0.0328549 0.00139577 0)
(-0.0330747 0.00117983 0)
(-0.033243 0.000953667 0)
(-0.0333582 0.000717946 0)
(-0.033419 0.000473457 0)
(-0.0334242 0.000221093 0)
(-0.0333728 -3.81509e-05 0)
(-0.0332641 -0.00030318 0)
(-0.0330975 -0.000572806 0)
(-0.0328729 -0.000845754 0)
(-0.0325903 -0.00112067 0)
(-0.0322499 -0.00139612 0)
(-0.0318524 -0.00167063 0)
(-0.0313986 -0.00194265 0)
(-0.0308897 -0.00221059 0)
(-0.030327 -0.00247287 0)
(-0.0297123 -0.00272785 0)
(-0.0290477 -0.00297392 0)
(-0.0283353 -0.0032095 0)
(-0.0275778 -0.00343303 0)
(-0.0267779 -0.003643 0)
(-0.0259387 -0.003838 0)
(-0.0250636 -0.0040167 0)
(-0.0241559 -0.0041779 0)
(-0.0232195 -0.0043205 0)
(-0.0222582 -0.00444357 0)
(-0.0212759 -0.00454636 0)
(-0.0202769 -0.00462827 0)
(-0.0192654 -0.00468889 0)
(-0.0182455 -0.00472802 0)
(-0.0172214 -0.00474565 0)
(-0.0161975 -0.00474196 0)
(-0.0151779 -0.00471734 0)
(-0.0141665 -0.00467236 0)
(-0.0131674 -0.00460777 0)
(-0.0121842 -0.00452445 0)
(-0.0112205 -0.00442347 0)
(-0.0102796 -0.00430598 0)
(-0.00936453 -0.00417324 0)
(-0.00847821 -0.00402658 0)
(-0.00762315 -0.00386736 0)
(-0.00680167 -0.00369697 0)
(-0.00601577 -0.0035168 0)
(-0.00526724 -0.00332817 0)
(-0.00455759 -0.00313238 0)
(-0.00388811 -0.00293063 0)
(-0.00325984 -0.00272405 0)
(-0.00267367 -0.00251365 0)
(-0.00213028 -0.00230036 0)
(-0.00163021 -0.00208496 0)
(-0.00117386 -0.00186819 0)
(-0.000761507 -0.00165068 0)
(-0.000393313 -0.001433 0)
(-6.93802e-05 -0.00121572 0)
(0.000210382 -0.000999409 0)
(0.000446055 -0.000784731 0)
(0.000638056 -0.0005725 0)
(0.000786731 -0.000363753 0)
(0.000893045 -0.000159891 0)
(0.000957777 3.72464e-05 0)
(0.000982861 0.000225153 0)
(0.00096977 0.000400577 0)
(0.000922103 0.000559188 0)
(0.000842329 0.000695518 0)
(0.000736823 0.000802527 0)
(0.000609291 0.00087165 0)
(0.000470649 0.00089234 0)
(0.000325843 0.000852354 0)
(0.000193364 0.000737479 0)
(7.88127e-05 0.00053204 0)
(1.25359e-05 0.000219164 0)
(-2.97104e-05 0.000334787 0)
(-0.000208499 0.000998375 0)
(-0.000553927 0.00161035 0)
(-0.00100684 0.00215789 0)
(-0.00156926 0.00262609 0)
(-0.00220394 0.00301765 0)
(-0.00290725 0.00333408 0)
(-0.00365669 0.00358486 0)
(-0.00444764 0.0037778 0)
(-0.00526654 0.00392349 0)
(-0.00610946 0.00403049 0)
(-0.00696836 0.00410768 0)
(-0.00784047 0.00416198 0)
(-0.00872116 0.00419968 0)
(-0.00960868 0.00422547 0)
(-0.0105005 0.00424324 0)
(-0.0113955 0.00425568 0)
(-0.0122922 0.00426484 0)
(-0.0131902 0.00427199 0)
(-0.0140883 0.00427793 0)
(-0.0149863 0.00428299 0)
(-0.0158833 0.00428724 0)
(-0.0167788 0.00429047 0)
(-0.0176722 0.0042923 0)
(-0.0185627 0.00429222 0)
(-0.0194494 0.00428963 0)
(-0.0203315 0.00428386 0)
(-0.0212079 0.00427419 0)
(-0.0220775 0.00425987 0)
(-0.0229389 0.00424012 0)
(-0.0237906 0.00421412 0)
(-0.0246311 0.0041811 0)
(-0.0254587 0.00414022 0)
(-0.0262714 0.00409071 0)
(-0.0270675 0.00403177 0)
(-0.0278447 0.00396265 0)
(-0.0286008 0.00388263 0)
(-0.0293336 0.003791 0)
(-0.0300408 0.00368716 0)
(-0.0307197 0.00357052 0)
(-0.0313681 0.00344058 0)
(-0.0319833 0.00329693 0)
(-0.0325629 0.00313925 0)
(-0.0331043 0.0029673 0)
(-0.033605 0.00278096 0)
(-0.0340627 0.00258021 0)
(-0.0344749 0.00236518 0)
(-0.0348393 0.00213608 0)
(-0.035154 0.00189328 0)
(-0.0354168 0.00163725 0)
(-0.0356259 0.00136862 0)
(-0.0357797 0.00108813 0)
(-0.0358766 0.00079663 0)
(-0.0359154 0.000495129 0)
(-0.035895 0.000184734 0)
(-0.0358146 -0.000133325 0)
(-0.0356736 -0.000457711 0)
(-0.0354717 -0.000786982 0)
(-0.0352087 -0.0011196 0)
(-0.034885 -0.00145394 0)
(-0.0345008 -0.0017883 0)
(-0.0340571 -0.00212092 0)
(-0.0335547 -0.00244996 0)
(-0.032995 -0.00277356 0)
(-0.0323796 -0.00308983 0)
(-0.0317103 -0.00339687 0)
(-0.0309893 -0.00369278 0)
(-0.0302191 -0.00397568 0)
(-0.0294022 -0.00424377 0)
(-0.0285417 -0.00449528 0)
(-0.0276409 -0.00472854 0)
(-0.0267031 -0.00494201 0)
(-0.0257321 -0.00513426 0)
(-0.0247317 -0.00530403 0)
(-0.023706 -0.00545022 0)
(-0.0226593 -0.00557194 0)
(-0.0215957 -0.00566851 0)
(-0.0205198 -0.00573947 0)
(-0.019436 -0.00578457 0)
(-0.0183487 -0.00580382 0)
(-0.0172624 -0.00579747 0)
(-0.0161814 -0.00576598 0)
(-0.01511 -0.00571005 0)
(-0.0140522 -0.00563058 0)
(-0.013012 -0.00552867 0)
(-0.011993 -0.00540558 0)
(-0.0109988 -0.00526271 0)
(-0.0100325 -0.00510158 0)
(-0.00909697 -0.00492378 0)
(-0.00819494 -0.00473097 0)
(-0.00732871 -0.0045248 0)
(-0.00650033 -0.00430694 0)
(-0.00571157 -0.00407899 0)
(-0.00496391 -0.00384248 0)
(-0.0042586 -0.00359887 0)
(-0.00359665 -0.00334948 0)
(-0.00297886 -0.00309553 0)
(-0.00240585 -0.00283809 0)
(-0.00187808 -0.00257813 0)
(-0.00139586 -0.00231649 0)