/*--------------------------------*- C++ -*----------------------------------*\
| =========                 |                                                 |
| \\      /  F ield         | OpenFOAM: The Open Source CFD Toolbox           |
|  \\    /   O peration     | Version:  2406                                  |
|   \\  /    A nd           | Website:  www.openfoam.com                      |
|    \\/     M anipulation  |                                                 |
\*---------------------------------------------------------------------------*/
FoamFile
{
    version     2.0;
    format      ascii;
    arch        "LSB;label=32;scalar=64";
    class       volVectorField;
    location    "15.45";
    object      Uold;
}
// * * * * * * * * * * * * * * * * * * * * * * * * * * * * * * * * * * * * * //

dimensions      [0 1 -1 0 0 0 0];

internalField   nonuniform List<vector> 
14400
(
(3.52792e-06 -3.45384e-06 0)
(1.73621e-05 -6.50652e-06 0)
(3.36203e-05 -5.78282e-06 0)
(4.24367e-05 -2.96813e-06 0)
(4.26046e-05 2.76128e-07 0)
(3.25743e-05 3.42744e-06 0)
(1.3742e-05 6.03022e-06 0)
(-1.28164e-05 8.14396e-06 0)
(-4.55026e-05 9.71348e-06 0)
(-8.29968e-05 1.09025e-05 0)
(-0.000124216 1.17587e-05 0)
(-0.000168294 1.24257e-05 0)
(-0.000214734 1.29603e-05 0)
(-0.000263181 1.34588e-05 0)
(-0.000313577 1.39585e-05 0)
(-0.000365927 1.45114e-05 0)
(-0.000420417 1.51321e-05 0)
(-0.00047724 1.5841e-05 0)
(-0.000536671 1.66367e-05 0)
(-0.000598957 1.75216e-05 0)
(-0.000664369 1.84866e-05 0)
(-0.000733135 1.95261e-05 0)
(-0.00080548 2.06297e-05 0)
(-0.000881585 2.179e-05 0)
(-0.000961618 2.29982e-05 0)
(-0.00104572 2.4248e-05 0)
(-0.00113399 2.55329e-05 0)
(-0.00122655 2.68482e-05 0)
(-0.00132346 2.81889e-05 0)
(-0.00142479 2.95511e-05 0)
(-0.00153059 3.09303e-05 0)
(-0.00164087 3.23217e-05 0)
(-0.00175566 3.37198e-05 0)
(-0.00187493 3.51177e-05 0)
(-0.00199863 3.65072e-05 0)
(-0.00212671 3.7878e-05 0)
(-0.00225903 3.92177e-05 0)
(-0.00239543 4.05116e-05 0)
(-0.00253571 4.17421e-05 0)
(-0.00267956 4.28888e-05 0)
(-0.00282663 4.39282e-05 0)
(-0.00297648 4.48338e-05 0)
(-0.00312858 4.55758e-05 0)
(-0.00328228 4.61214e-05 0)
(-0.00343684 4.64349e-05 0)
(-0.00359137 4.64777e-05 0)
(-0.00374489 4.62093e-05 0)
(-0.00389626 4.55873e-05 0)
(-0.00404422 4.45683e-05 0)
(-0.00418736 4.3109e-05 0)
(-0.00432417 4.11669e-05 0)
(-0.00445298 3.87019e-05 0)
(-0.00457204 3.56776e-05 0)
(-0.00467948 3.20627e-05 0)
(-0.00477338 2.78331e-05 0)
(-0.00485175 2.29734e-05 0)
(-0.0049126 1.74787e-05 0)
(-0.00495396 1.13564e-05 0)
(-0.00497393 4.62792e-06 0)
(-0.00497072 -2.66994e-06 0)
(-0.00494267 -1.0484e-05 0)
(-0.00488837 -1.87439e-05 0)
(-0.00480666 -2.73621e-05 0)
(-0.00469667 -3.62339e-05 0)
(-0.00455793 -4.5239e-05 0)
(-0.00439032 -5.42428e-05 0)
(-0.00419421 -6.30995e-05 0)
(-0.0039704 -7.16545e-05 0)
(-0.00372017 -7.9749e-05 0)
(-0.00344529 -8.7224e-05 0)
(-0.00314802 -9.39252e-05 0)
(-0.00283104 -9.97082e-05 0)
(-0.00249744 -0.000104443 0)
(-0.0021507 -0.00010802 0)
(-0.00179455 -0.000110354 0)
(-0.00143297 -0.000111385 0)
(-0.00107006 -0.000111086 0)
(-0.000709927 -0.000109461 0)
(-0.000356663 -0.000106546 0)
(-1.41892e-05 -0.000102409 0)
(0.000313813 -9.71463e-05 0)
(0.000623984 -9.08801e-05 0)
(0.000913356 -8.37538e-05 0)
(0.00117941 -7.59271e-05 0)
(0.00142013 -6.75696e-05 0)
(0.001634 -5.88554e-05 0)
(0.00182005 -4.99568e-05 0)
(0.00197782 -4.10393e-05 0)
(0.00210734 -3.22564e-05 0)
(0.00220909 -2.37462e-05 0)
(0.00228398 -1.56273e-05 0)
(0.00233325 -7.99792e-06 0)
(0.00235844 -9.34041e-07 0)
(0.00236132 5.50989e-06 0)
(0.00234379 1.13014e-05 0)
(0.00230788 1.64267e-05 0)
(0.00225563 2.08912e-05 0)
(0.00218909 2.47137e-05 0)
(0.00211021 2.79289e-05 0)
(0.00202088 3.05775e-05 0)
(0.00192282 3.27136e-05 0)
(0.00181765 3.43885e-05 0)
(0.00170674 3.56669e-05 0)
(0.00159141 3.65987e-05 0)
(0.00147266 3.72529e-05 0)
(0.00135151 3.76641e-05 0)
(0.00122859 3.79007e-05 0)
(0.00110479 3.79631e-05 0)
(0.000980419 3.79157e-05 0)
(0.000856485 3.76911e-05 0)
(0.000733104 3.73478e-05 0)
(0.000611882 3.66854e-05 0)
(0.000492992 3.57542e-05 0)
(0.000379427 3.40858e-05 0)
(0.00027188 3.17233e-05 0)
(0.000175924 2.76591e-05 0)
(9.35193e-05 2.20581e-05 0)
(3.36137e-05 1.3192e-05 0)
(-1.15466e-06 3.27745e-06 0)
(-6.10417e-06 -6.05998e-06 0)
(6.82282e-06 -1.75191e-05 0)
(2.68214e-05 -2.64149e-05 0)
(4.42111e-05 -1.92669e-05 0)
(4.38563e-05 -2.60831e-06 0)
(2.24972e-05 1.65053e-05 0)
(-2.24303e-05 3.56855e-05 0)
(-8.90807e-05 5.24986e-05 0)
(-0.00017514 6.68231e-05 0)
(-0.000277501 7.82457e-05 0)
(-0.000393151 8.73713e-05 0)
(-0.000519614 9.44805e-05 0)
(-0.000654762 0.000100255 0)
(-0.000797266 0.000105091 0)
(-0.000946144 0.000109507 0)
(-0.00110106 0.000113796 0)
(-0.0012619 0.000118264 0)
(-0.00142896 0.000123058 0)
(-0.00160259 0.00012831 0)
(-0.00178337 0.000134055 0)
(-0.00197182 0.000140312 0)
(-0.00216853 0.000147052 0)
(-0.00237403 0.00015424 0)
(-0.00258882 0.000161825 0)
(-0.0028133 0.000169755 0)
(-0.00304786 0.000177978 0)
(-0.00329278 0.000186447 0)
(-0.00354831 0.000195116 0)
(-0.00381464 0.000203946 0)
(-0.00409191 0.000212899 0)
(-0.00438019 0.000221939 0)
(-0.00467953 0.000231028 0)
(-0.0049899 0.000240125 0)
(-0.00531123 0.000249183 0)
(-0.00564337 0.000258146 0)
(-0.00598609 0.00026695 0)
(-0.00633907 0.000275516 0)
(-0.00670187 0.00028375 0)
(-0.00707393 0.000291544 0)
(-0.00745452 0.00029877 0)
(-0.00784275 0.000305283 0)
(-0.00823753 0.000310916 0)
(-0.00863752 0.000315486 0)
(-0.00904118 0.00031879 0)
(-0.00944667 0.000320604 0)
(-0.00985189 0.000320694 0)
(-0.0102544 0.000318806 0)
(-0.0106515 0.000314682 0)
(-0.0110402 0.000308054 0)
(-0.0114171 0.000298657 0)
(-0.0117785 0.000286232 0)
(-0.0121206 0.000270533 0)
(-0.012439 0.000251336 0)
(-0.0127294 0.000228449 0)
(-0.0129873 0.000201722 0)
(-0.0132078 0.000171054 0)
(-0.0133862 0.000136406 0)
(-0.0135179 9.78086e-05 0)
(-0.0135983 5.53742e-05 0)
(-0.013623 9.30088e-06 0)
(-0.0135879 -4.01191e-05 0)
(-0.0134897 -9.24963e-05 0)
(-0.0133253 -0.000147342 0)
(-0.0130922 -0.000204071 0)
(-0.0127891 -0.000262005 0)
(-0.0124152 -0.000320382 0)
(-0.0119707 -0.00037837 0)
(-0.0114569 -0.000435079 0)
(-0.0108762 -0.000489584 0)
(-0.0102318 -0.000540944 0)
(-0.00952823 -0.000588228 0)
(-0.00877097 -0.000630543 0)
(-0.00796645 -0.000667056 0)
(-0.00712201 -0.000697026 0)
(-0.00624573 -0.000719824 0)
(-0.00534635 -0.00073496 0)
(-0.00443305 -0.000742099 0)
(-0.00351531 -0.000741075 0)
(-0.0026027 -0.000731902 0)
(-0.0017047 -0.000714772 0)
(-0.000830492 -0.000690055 0)
(1.12435e-05 -0.000658286 0)
(0.000812475 -0.000620149 0)
(0.00156599 -0.000576452 0)
(0.00226554 -0.000528106 0)
(0.00290592 -0.00047609 0)
(0.00348306 -0.000421419 0)
(0.00399404 -0.000365117 0)
(0.00443712 -0.000308181 0)
(0.00481168 -0.000251555 0)
(0.00511818 -0.000196108 0)
(0.00535807 -0.000142607 0)
(0.00553366 -9.17091e-05 0)
(0.00564803 -4.39493e-05 0)
(0.00570484 2.63731e-07 0)
(0.00570824 4.06479e-05 0)
(0.00566271 7.70392e-05 0)
(0.00557289 0.000109388 0)
(0.00544354 0.000137741 0)
(0.00527931 0.000162236 0)
(0.00508474 0.000183075 0)
(0.0048641 0.000200524 0)
(0.00462144 0.000214874 0)
(0.00436036 0.000226462 0)
(0.00408428 0.000235595 0)
(0.00379601 0.000242617 0)
(0.00349836 0.000247775 0)
(0.00319342 0.000251359 0)
(0.00288368 0.000253453 0)
(0.00257068 0.000254221 0)
(0.00225713 0.000253427 0)
(0.00194447 0.000251029 0)
(0.00163663 0.000246212 0)
(0.00133553 0.000238646 0)
(0.00104786 0.000226504 0)
(0.000776821 0.000209228 0)
(0.000533719 0.000183405 0)
(0.000323155 0.000149265 0)
(0.000161462 0.000102268 0)
(5.06556e-05 5.04406e-05 0)
(3.24278e-06 -1.16051e-06 0)
(6.23806e-06 -3.42106e-05 0)
(1.92594e-05 -4.35287e-05 0)
(1.96734e-05 -2.06171e-05 0)
(-7.60089e-06 2.20882e-05 0)
(-6.71287e-05 7.02445e-05 0)
(-0.00016063 0.000118682 0)
(-0.000286205 0.000161997 0)
(-0.000440256 0.000199483 0)
(-0.0006189 0.000230159 0)
(-0.000817836 0.000255148 0)
(-0.00103374 0.000275156 0)
(-0.00126353 0.000291673 0)
(-0.00150531 0.000305725 0)
(-0.00175757 0.000318517 0)
(-0.00201972 0.000330839 0)
(-0.0022915 0.000343429 0)
(-0.00257319 0.00035671 0)
(-0.0028652 0.000371013 0)
(-0.00316824 0.000386462 0)
(-0.00348298 0.000403116 0)
(-0.00381017 0.000420923 0)
(-0.0041505 0.000439803 0)
(-0.00450459 0.000459631 0)
(-0.00487299 0.000480281 0)
(-0.00525616 0.000501618 0)
(-0.00565445 0.000523518 0)
(-0.00606816 0.000545863 0)
(-0.00649748 0.000568544 0)
(-0.00694253 0.000591455 0)
(-0.00740336 0.000614496 0)
(-0.00787994 0.00063756 0)
(-0.00837215 0.00066053 0)
(-0.00887978 0.000683274 0)
(-0.00940252 0.000705639 0)
(-0.00993992 0.000727442 0)
(-0.0104914 0.000748467 0)
(-0.0110561 0.000768459 0)
(-0.0116332 0.000787121 0)
(-0.0122214 0.00080411 0)
(-0.0128192 0.000819035 0)
(-0.0134249 0.000831454 0)
(-0.0140362 0.000840882 0)
(-0.0146508 0.000846783 0)
(-0.0152658 0.000848583 0)
(-0.0158777 0.00084567 0)
(-0.016483 0.000837406 0)
(-0.0170774 0.000823134 0)
(-0.0176562 0.000802194 0)
(-0.0182145 0.000773935 0)
(-0.0187468 0.000737736 0)
(-0.0192472 0.000693021 0)
(-0.0197096 0.000639282 0)
(-0.0201276 0.000576101 0)
(-0.0204944 0.000503175 0)
(-0.0208035 0.000420337 0)
(-0.0210482 0.000327581 0)
(-0.0212219 0.000225082 0)
(-0.0213183 0.000113213 0)
(-0.0213316 -7.4344e-06 0)
(-0.0212565 -0.000136046 0)
(-0.0210882 -0.000271573 0)
(-0.0208231 -0.000412739 0)
(-0.0204582 -0.000558044 0)
(-0.0199919 -0.000705779 0)
(-0.0194235 -0.000854054 0)
(-0.0187539 -0.00100082 0)
(-0.0179851 -0.00114393 0)
(-0.0171207 -0.00128113 0)
(-0.0161657 -0.0014102 0)
(-0.0151263 -0.00152891 0)
(-0.0140103 -0.00163515 0)
(-0.0128268 -0.00172696 0)
(-0.0115858 -0.00180259 0)
(-0.0102985 -0.00186056 0)
(-0.0089769 -0.00189972 0)
(-0.00763368 -0.00191925 0)
(-0.00628183 -0.00191875 0)
(-0.00493456 -0.00189822 0)
(-0.00360499 -0.00185806 0)
(-0.0023059 -0.00179911 0)
(-0.0010495 -0.00172256 0)
(0.000152808 -0.00163 0)
(0.00129066 -0.00152328 0)
(0.00235488 -0.00140452 0)
(0.00333765 -0.00127603 0)
(0.00423264 -0.00114021 0)
(0.00503503 -0.000999529 0)
(0.00574159 -0.000856395 0)
(0.00635063 -0.000713135 0)
(0.00686195 -0.000571911 0)
(0.00727676 -0.000434675 0)
(0.00759755 -0.00030313 0)
(0.0078279 -0.000178698 0)
(0.00797239 -6.2509e-05 0)
(0.0080363 4.46093e-05 0)
(0.00802555 0.000142119 0)
(0.00794638 0.000229764 0)
(0.0078053 0.000307534 0)
(0.00760882 0.00037565 0)
(0.00736336 0.000434512 0)
(0.0070751 0.00048468 0)
(0.00674994 0.000526807 0)
(0.00639329 0.000561639 0)
(0.00601027 0.000589908 0)
(0.00560533 0.000612375 0)
(0.00518285 0.000629655 0)
(0.00474633 0.000642343 0)
(0.00429973 0.000650696 0)
(0.00384594 0.000654928 0)
(0.00338923 0.000654599 0)
(0.00293242 0.000649291 0)
(0.00248139 0.000637372 0)
(0.00203961 0.000617545 0)
(0.00161651 0.000586328 0)
(0.00121684 0.000541674 0)
(0.000855828 0.000477802 0)
(0.000538819 0.000394138 0)
(0.000288124 0.000284774 0)
(0.000104295 0.000161901 0)
(1.35085e-05 3.41046e-05 0)
(3.26963e-06 -4.30693e-05 0)
(4.76103e-08 -4.07732e-05 0)
(-3.04653e-05 8.62618e-06 0)
(-9.88454e-05 8.69784e-05 0)
(-0.000210347 0.000172958 0)
(-0.000364234 0.000258697 0)
(-0.000558677 0.000335896 0)
(-0.000788574 0.000403224 0)
(-0.00104973 0.00045914 0)
(-0.00133679 0.000505302 0)
(-0.001646 0.000542911 0)
(-0.00197354 0.000574355 0)
(-0.0023172 0.000601403 0)
(-0.00267502 0.000626059 0)
(-0.00304626 0.000649706 0)
(-0.00343045 0.000673607 0)
(-0.00382783 0.000698526 0)
(-0.00423877 0.00072504 0)
(-0.00466401 0.000753398 0)
(-0.00510423 0.000783712 0)
(-0.00556026 0.000815911 0)
(-0.00603278 0.000849864 0)
(-0.00652249 0.000885364 0)
(-0.00702993 0.000922194 0)
(-0.00755557 0.000960122 0)
(-0.00809977 0.000998929 0)
(-0.00866279 0.0010384 0)
(-0.00924478 0.00107835 0)
(-0.00984583 0.00111859 0)
(-0.0104659 0.00115892 0)
(-0.0111049 0.00119915 0)
(-0.0117626 0.00123907 0)
(-0.0124386 0.00127843 0)
(-0.0131326 0.00131694 0)
(-0.0138438 0.00135427 0)
(-0.0145714 0.00139001 0)
(-0.0153144 0.00142368 0)
(-0.0160714 0.00145475 0)
(-0.0168408 0.00148256 0)
(-0.0176206 0.00150642 0)
(-0.0184085 0.0015255 0)
(-0.0192015 0.00153893 0)
(-0.0199965 0.00154574 0)
(-0.0207896 0.00154491 0)
(-0.0215765 0.00153533 0)
(-0.0223524 0.0015159 0)
(-0.0231119 0.00148546 0)
(-0.0238492 0.00144288 0)
(-0.0245576 0.00138705 0)
(-0.0252305 0.00131693 0)
(-0.0258604 0.00123159 0)
(-0.0264396 0.00113022 0)
(-0.0269604 0.00101218 0)
(-0.0274145 0.000877062 0)
(-0.0277938 0.000724687 0)
(-0.0280904 0.000555172 0)
(-0.0282963 0.000368948 0)
(-0.0284043 0.000166791 0)
(-0.0284074 -5.01578e-05 0)
(-0.0282994 -0.000280381 0)
(-0.0280751 -0.000521979 0)
(-0.0277302 -0.000772677 0)
(-0.0272617 -0.00102985 0)
(-0.0266676 -0.00129053 0)
(-0.0259476 -0.00155149 0)
(-0.0251029 -0.00180924 0)
(-0.0241361 -0.00206013 0)
(-0.0230516 -0.00230044 0)
(-0.0218554 -0.00252639 0)
(-0.020555 -0.00273431 0)
(-0.0191595 -0.00292068 0)
(-0.0176797 -0.00308224 0)
(-0.0161273 -0.00321608 0)
(-0.0145156 -0.00331972 0)
(-0.0128587 -0.00339122 0)
(-0.0111715 -0.00342918 0)
(-0.00946936 -0.00343286 0)
(-0.00776813 -0.00340217 0)
(-0.00608345 -0.00333772 0)
(-0.00443076 -0.00324075 0)
(-0.00282493 -0.00311318 0)
(-0.00127997 -0.00295751 0)
(0.000191167 -0.00277674 0)
(0.00157684 -0.00257434 0)
(0.00286691 -0.00235409 0)
(0.0040529 -0.00212 0)
(0.00512808 -0.00187617 0)
(0.00608756 -0.00162673 0)
(0.00692827 -0.00137564 0)
(0.00764893 -0.00112666 0)
(0.00824999 -0.000883231 0)
(0.00873351 -0.0006484 0)
(0.00910294 -0.000424771 0)
(0.00936303 -0.000214468 0)
(0.00951954 -1.91123e-05 0)
(0.00957909 0.000160165 0)
(0.00954885 0.000322715 0)
(0.00943646 0.000468326 0)
(0.00924967 0.000597193 0)
(0.00899629 0.000709839 0)
(0.00868391 0.00080708 0)
(0.00831992 0.00088992 0)
(0.00791119 0.000959527 0)
(0.00746432 0.00101708 0)
(0.00698517 0.0010638 0)
(0.00647956 0.00110069 0)
(0.00595232 0.00112868 0)
(0.00540884 0.00114822 0)
(0.00485325 0.00115954 0)
(0.00429135 0.00116196 0)
(0.00372715 0.00115462 0)
(0.00316831 0.00113502 0)
(0.00261941 0.00110078 0)
(0.00209206 0.0010468 0)
(0.0015917 0.000969466 0)
(0.00113654 0.00086093 0)
(0.000731476 0.000719292 0)
(0.000404308 0.00053724 0)
(0.000154382 0.000326883 0)
(2.2975e-05 9.58847e-05 0)
(-7.66933e-07 -4.13332e-05 0)
(-2.5447e-05 -1.11162e-05 0)
(-9.56896e-05 7.85326e-05 0)
(-0.000214923 0.000204155 0)
(-0.00038876 0.00033814 0)
(-0.000612651 0.000470061 0)
(-0.000884719 0.000588976 0)
(-0.00119786 0.000693007 0)
(-0.00154771 0.000780195 0)
(-0.00192781 0.000852822 0)
(-0.00233423 0.000912718 0)
(-0.00276253 0.000963283 0)
(-0.00321033 0.00100715 0)
(-0.00367537 0.00104722 0)
(-0.00415681 0.00108557 0)
(-0.00465399 0.00112405 0)
(-0.00516711 0.00116384 0)
(-0.00569647 0.00120578 0)
(-0.00624275 0.00125027 0)
(-0.0068066 0.00129748 0)
(-0.00738879 0.00134734 0)
(-0.00798999 0.00139964 0)
(-0.00861082 0.00145409 0)
(-0.00925178 0.00151038 0)
(-0.0099133 0.00156816 0)
(-0.0105957 0.0016271 0)
(-0.0112991 0.0016869 0)
(-0.0120237 0.00174727 0)
(-0.0127695 0.00180793 0)
(-0.0135364 0.00186858 0)
(-0.0143243 0.00192894 0)
(-0.0151328 0.00198867 0)
(-0.0159617 0.00204739 0)
(-0.0168103 0.00210465 0)
(-0.0176778 0.00215992 0)
(-0.0185634 0.00221255 0)
(-0.0194658 0.0022618 0)
(-0.0203834 0.0023068 0)
(-0.0213143 0.00234654 0)
(-0.0222561 0.00237991 0)
(-0.023206 0.00240563 0)
(-0.0241607 0.00242231 0)
(-0.0251162 0.00242847 0)
(-0.0260682 0.00242251 0)
(-0.0270115 0.00240275 0)
(-0.0279403 0.0023675 0)
(-0.0288484 0.00231501 0)
(-0.0297289 0.0022436 0)
(-0.0305741 0.00215163 0)
(-0.0313762 0.0020376 0)
(-0.0321266 0.00190016 0)
(-0.0328165 0.00173818 0)
(-0.0334368 0.00155084 0)
(-0.0339783 0.00133762 0)
(-0.0344317 0.0010984 0)
(-0.0347879 0.000833479 0)
(-0.0350382 0.000543656 0)
(-0.0351742 0.000230217 0)
(-0.0351881 -0.000105011 0)
(-0.0350731 -0.000459656 0)
(-0.0348232 -0.000830803 0)
(-0.0344336 -0.001215 0)
(-0.0339009 -0.00160831 0)
(-0.0332229 -0.00200632 0)
(-0.032399 -0.00240424 0)
(-0.0314303 -0.00279695 0)
(-0.0303197 -0.00317911 0)
(-0.0290716 -0.00354523 0)
(-0.0276926 -0.00388985 0)
(-0.0261906 -0.00420758 0)
(-0.0245756 -0.00449328 0)
(-0.0228591 -0.00474218 0)
(-0.0210541 -0.00494999 0)
(-0.0191752 -0.00511306 0)
(-0.0172378 -0.00522842 0)
(-0.0152586 -0.00529396 0)
(-0.0132549 -0.00530843 0)
(-0.0112445 -0.00527155 0)
(-0.0092452 -0.005184 0)
(-0.00727479 -0.00504743 0)
(-0.00535052 -0.00486442 0)
(-0.00348887 -0.00463844 0)
(-0.00170525 -0.00437374 0)
(-1.37201e-05 -0.00407521 0)
(0.00157322 -0.00374831 0)
(0.00304484 -0.00339885 0)
(0.00439235 -0.00303285 0)
(0.00560898 -0.00265638 0)
(0.00669001 -0.00227538 0)
(0.00763281 -0.00189554 0)
(0.00843673 -0.0015221 0)
(0.00910299 -0.0011598 0)
(0.00963459 -0.00081275 0)
(0.010036 -0.00048437 0)
(0.0103132 -0.00017736 0)
(0.0104729 0.000106305 0)
(0.0105231 0.000365371 0)
(0.010472 0.000599249 0)
(0.0103284 0.000807969 0)
(0.0101011 0.000992086 0)
(0.00979895 0.00115261 0)
(0.00943055 0.00129086 0)
(0.00900405 0.00140844 0)
(0.00852738 0.00150698 0)
(0.0080077 0.00158819 0)
(0.00745212 0.00165351 0)
(0.00686675 0.00170424 0)
(0.00625827 0.001741 0)
(0.00563198 0.00176407 0)
(0.00499503 0.00177254 0)
(0.00435248 0.00176501 0)
(0.00371347 0.00173812 0)
(0.00308336 0.00168828 0)
(0.00247558 0.00160888 0)
(0.00189583 0.00149441 0)
(0.001365 0.00133511 0)
(0.000887596 0.00112686 0)
(0.00049706 0.000860498 0)
(0.000192576 0.000544485 0)
(2.93646e-05 0.000182113 0)
(-5.39446e-06 -2.53781e-05 0)
(-5.5225e-05 5.29469e-05 0)
(-0.000171828 0.00019815 0)
(-0.000349496 0.000382442 0)
(-0.000593854 0.00057324 0)
(-0.000895444 0.000758134 0)
(-0.00125221 0.000924246 0)
(-0.0016546 0.00106949 0)
(-0.00209818 0.00119183 0)
(-0.00257531 0.00129434 0)
(-0.00308202 0.00137962 0)
(-0.00361333 0.00145216 0)
(-0.00416686 0.00151553 0)
(-0.00474005 0.00157357 0)
(-0.00533206 0.00162906 0)
(-0.00594206 0.00168447 0)
(-0.00657021 0.00174137 0)
(-0.00721669 0.0018009 0)
(-0.0078821 0.0018636 0)
(-0.00856698 0.0019297 0)
(-0.00927201 0.0019991 0)
(-0.00999774 0.00207155 0)
(-0.0107447 0.00214666 0)
(-0.0115133 0.00222403 0)
(-0.0123039 0.0023032 0)
(-0.0131167 0.00238376 0)
(-0.0139518 0.00246531 0)
(-0.0148095 0.00254748 0)
(-0.0156896 0.0026299 0)
(-0.0165921 0.00271221 0)
(-0.0175169 0.00279401 0)
(-0.0184638 0.00287485 0)
(-0.0194325 0.00295423 0)
(-0.0204223 0.0030315 0)
(-0.0214327 0.00310592 0)
(-0.0224627 0.00317659 0)
(-0.023511 0.00324245 0)
(-0.0245759 0.00330225 0)
(-0.0256556 0.00335459 0)
(-0.0267474 0.00339784 0)
(-0.0278482 0.00343021 0)
(-0.0289545 0.00344976 0)
(-0.0300619 0.00345436 0)
(-0.0311655 0.00344179 0)
(-0.0322597 0.00340973 0)
(-0.033338 0.0033558 0)
(-0.0343934 0.00327765 0)
(-0.0354183 0.00317295 0)
(-0.0364043 0.00303951 0)
(-0.0373424 0.00287531 0)
(-0.0382234 0.00267859 0)
(-0.0390373 0.00244792 0)
(-0.039774 0.00218223 0)
(-0.0404235 0.00188096 0)
(-0.0409753 0.00154405 0)
(-0.0414194 0.00117204 0)
(-0.0417459 0.000766095 0)
(-0.0419455 0.000328082 0)
(-0.0420096 -0.000139445 0)
(-0.0419301 -0.00063321 0)
(-0.0417004 -0.00114923 0)
(-0.0413145 -0.00168282 0)
(-0.0407682 -0.00222867 0)
(-0.0400586 -0.00278086 0)
(-0.0391842 -0.00333296 0)
(-0.0381457 -0.00387814 0)
(-0.0369451 -0.00440925 0)
(-0.0355868 -0.00491899 0)
(-0.0340767 -0.00540002 0)
(-0.0324229 -0.00584512 0)
(-0.0306355 -0.00624737 0)
(-0.0287263 -0.00660031 0)
(-0.026709 -0.00689807 0)
(-0.0245989 -0.00713559 0)
(-0.0224128 -0.00730873 0)
(-0.0201686 -0.00741438 0)
(-0.0178854 -0.0074506 0)
(-0.015583 -0.00741672 0)
(-0.0132813 -0.0073133 0)
(-0.0110006 -0.00714224 0)
(-0.00876054 -0.00690668 0)
(-0.00658041 -0.00661095 0)
(-0.00447832 -0.00626049 0)
(-0.00247108 -0.00586167 0)
(-0.000573882 -0.00542164 0)
(0.00119997 -0.0049481 0)
(0.00283923 -0.00444915 0)
(0.0043349 -0.00393298 0)
(0.00568028 -0.00340775 0)
(0.00687103 -0.00288127 0)
(0.00790508 -0.0023609 0)
(0.00878258 -0.00185332 0)
(0.00950575 -0.00136444 0)
(0.0100786 -0.000899267 0)
(0.010507 -0.000461836 0)
(0.0107978 -5.52187e-05 0)
(0.0109592 0.000318496 0)
(0.0110003 0.000658143 0)
(0.0109305 0.000963422 0)
(0.0107598 0.00123478 0)
(0.0104979 0.00147331 0)
(0.0101547 0.00168059 0)
(0.00973958 0.00185858 0)
(0.00926175 0.00200937 0)
(0.00872961 0.00213513 0)
(0.00815159 0.00223775 0)
(0.00753498 0.00231887 0)
(0.00688776 0.00237938 0)
(0.00621633 0.00241958 0)
(0.00552911 0.00243837 0)
(0.00483206 0.00243386 0)
(0.00413564 0.00240191 0)
(0.00344584 0.00233774 0)
(0.00277762 0.0022333 0)
(0.00213686 0.00208111 0)
(0.00154682 0.00186941 0)
(0.0010119 0.00159093 0)
(0.000570581 0.00123357 0)
(0.000222579 0.000799197 0)
(3.42113e-05 0.00028418 0)
(-1.02648e-05 5.63106e-06 0)
(-8.73351e-05 0.000154788 0)
(-0.000254452 0.000372929 0)
(-0.000495691 0.000628848 0)
(-0.00081643 0.000886314 0)
(-0.0012015 0.00113159 0)
(-0.00164847 0.00135064 0)
(-0.00214495 0.00154159 0)
(-0.00268636 0.00170277 0)
(-0.00326376 0.00183827 0)
(-0.00387323 0.00195169 0)
(-0.00450922 0.00204872 0)
(-0.00516944 0.00213395 0)
(-0.0058511 0.0022122 0)
(-0.00655337 0.00228699 0)
(-0.0072753 0.00236139 0)
(-0.00801701 0.00243738 0)
(-0.00877853 0.00251638 0)
(-0.00956037 0.00259907 0)
(-0.0103629 0.00268572 0)
(-0.0111867 0.00277622 0)
(-0.0120322 0.00287027 0)
(-0.0128998 0.00296739 0)
(-0.0137897 0.0030671 0)
(-0.0147024 0.00316887 0)
(-0.0156378 0.00327222 0)
(-0.0165964 0.00337668 0)
(-0.017578 0.00348184 0)
(-0.018583 0.00358728 0)
(-0.0196113 0.00369258 0)
(-0.0206631 0.00379727 0)
(-0.0217383 0.00390081 0)
(-0.0228367 0.00400255 0)
(-0.0239583 0.00410169 0)
(-0.0251024 0.00419725 0)
(-0.0262684 0.00428805 0)
(-0.0274553 0.00437267 0)
(-0.0286616 0.00444946 0)
(-0.0298854 0.0045165 0)
(-0.0311242 0.00457166 0)
(-0.0323751 0.00461253 0)
(-0.0336342 0.0046365 0)
(-0.0348971 0.00464077 0)
(-0.0361587 0.00462238 0)
(-0.0374129 0.00457827 0)
(-0.038653 0.00450532 0)
(-0.0398715 0.00440045 0)
(-0.04106 0.00426063 0)
(-0.0422095 0.00408305 0)
(-0.0433105 0.00386509 0)
(-0.0443525 0.00360453 0)
(-0.045325 0.00329955 0)
(-0.0462168 0.00294884 0)
(-0.0470166 0.0025517 0)
(-0.047713 0.00210811 0)
(-0.0482946 0.00161881 0)
(-0.0487504 0.00108533 0)
(-0.0490697 0.00051007 0)
(-0.0492422 -0.000103706 0)
(-0.0492587 -0.000751822 0)
(-0.0491108 -0.00142922 0)
(-0.048791 -0.00212996 0)
(-0.0482936 -0.00284733 0)
(-0.0476141 -0.00357382 0)
(-0.0467495 -0.00430131 0)
(-0.0456991 -0.00502112 0)
(-0.0444636 -0.00572416 0)
(-0.0430462 -0.00640111 0)
(-0.041452 -0.00704255 0)
(-0.0396884 -0.0076392 0)
(-0.0377649 -0.00818206 0)
(-0.0356934 -0.00866267 0)
(-0.0334878 -0.00907329 0)
(-0.0311641 -0.00940709 0)
(-0.0287401 -0.00965838 0)
(-0.0262352 -0.00982276 0)
(-0.0236703 -0.00989728 0)
(-0.0210672 -0.00988052 0)
(-0.0184487 -0.00977273 0)
(-0.0158377 -0.0095758 0)
(-0.013257 -0.00929327 0)
(-0.0107291 -0.00893026 0)
(-0.00827543 -0.00849334 0)
(-0.0059163 -0.0079904 0)
(-0.00367022 -0.00743036 0)
(-0.00155371 -0.00682303 0)
(0.000418921 -0.00617875 0)
(0.00223589 -0.00550816 0)
(0.00388802 -0.00482187 0)
(0.0053688 -0.00413024 0)
(0.0066744 -0.00344305 0)
(0.00780361 -0.00276933 0)
(0.00875761 -0.00211711 0)
(0.00953988 -0.00149333 0)
(0.0101559 -0.000903721 0)
(0.0106127 -0.000352727 0)
(0.0109189 0.000156465 0)
(0.0110843 0.000621891 0)
(0.011119 0.00104273 0)
(0.0110341 0.00141919 0)
(0.0108406 0.00175234 0)
(0.0105496 0.00204394 0)
(0.0101717 0.00229628 0)
(0.00971768 0.00251189 0)
(0.00919715 0.0026934 0)
(0.00861993 0.00284321 0)
(0.00799458 0.00296334 0)
(0.00733036 0.00305496 0)
(0.00663477 0.00311846 0)
(0.00591745 0.00315262 0)
(0.00518523 0.00315508 0)
(0.0044498 0.003121 0)
(0.0037177 0.00304436 0)
(0.00300529 0.00291575 0)
(0.00231876 0.00272545 0)
(0.00168357 0.0024595 0)
(0.00110441 0.00210669 0)
(0.000624248 0.00165106 0)
(0.000243626 0.00108625 0)
(3.72469e-05 0.000399933 0)
(-1.53359e-05 5.29768e-05 0)
(-0.00012124 0.000297582 0)
(-0.00034195 0.000607079 0)
(-0.000650567 0.000947894 0)
(-0.00105201 0.00128153 0)
(-0.00152479 0.00159381 0)
(-0.00206598 0.00187045 0)
(-0.00265999 0.00211039 0)
(-0.00330211 0.00231285 0)
(-0.00398195 0.00248327 0)
(-0.00469568 0.0026265 0)
(-0.00543719 0.00274954 0)
(-0.00620432 0.00285808 0)
(-0.00699404 0.00295793 0)
(-0.00780563 0.00305337 0)
(-0.00863795 0.00314804 0)
(-0.00949113 0.0032443 0)
(-0.010365 0.00334382 0)
(-0.01126 0.00344739 0)
(-0.0121764 0.00355534 0)
(-0.0131145 0.00366754 0)
(-0.0140746 0.00378364 0)
(-0.015057 0.00390311 0)
(-0.016062 0.00402543 0)
(-0.0170898 0.00415003 0)
(-0.0181406 0.00427642 0)
(-0.0192148 0.00440413 0)
(-0.0203127 0.00453275 0)
(-0.0214345 0.00466188 0)
(-0.0225809 0.00479109 0)
(-0.0237521 0.00491989 0)
(-0.0249487 0.00504769 0)
(-0.026171 0.00517372 0)
(-0.0274192 0.00529703 0)
(-0.0286934 0.00541641 0)
(-0.0299934 0.00553038 0)
(-0.0313188 0.00563715 0)
(-0.0326684 0.0057346 0)
(-0.0340408 0.0058203 0)
(-0.035434 0.00589149 0)
(-0.036845 0.00594509 0)
(-0.0382704 0.00597776 0)
(-0.0397057 0.00598592 0)
(-0.0411459 0.00596578 0)
(-0.0425848 0.00591347 0)
(-0.0440155 0.00582501 0)
(-0.0454299 0.0056965 0)
(-0.0468194 0.00552413 0)
(-0.0481743 0.00530432 0)
(-0.0494842 0.0050338 0)
(-0.050738 0.00470975 0)
(-0.051924 0.00432986 0)
(-0.0530297 0.00389246 0)
(-0.0540427 0.00339663 0)
(-0.05495 0.00284226 0)
(-0.0557386 0.00223015 0)
(-0.0563955 0.0015621 0)
(-0.0569081 0.000840922 0)
(-0.0572642 7.05133e-05 0)
(-0.0574521 -0.000744147 0)
(-0.0574613 -0.00159699 0)
(-0.057282 -0.0024809 0)
(-0.0569058 -0.00338772 0)
(-0.0563259 -0.00430839 0)
(-0.0555373 -0.00523301 0)
(-0.0545365 -0.00615096 0)
(-0.0533227 -0.00705107 0)
(-0.0518968 -0.00792179 0)
(-0.0502625 -0.00875142 0)
(-0.0484258 -0.00952827 0)
(-0.0463956 -0.010241 0)
(-0.0441831 -0.0108786 0)
(-0.0418023 -0.0114313 0)
(-0.0392696 -0.0118898 0)
(-0.0366039 -0.0122466 0)
(-0.0338261 -0.0124955 0)
(-0.0309592 -0.0126321 0)
(-0.0280277 -0.0126538 0)
(-0.0250572 -0.0125601 0)
(-0.0220742 -0.0123526 0)
(-0.0191053 -0.0120351 0)
(-0.0161771 -0.0116131 0)
(-0.0133152 -0.0110943 0)
(-0.0105442 -0.0104881 0)
(-0.00788687 -0.0098052 0)
(-0.00536399 -0.00905774 0)
(-0.00299375 -0.00825851 0)
(-0.000791534 -0.00742087 0)
(0.00123023 -0.00655829 0)
(0.00306225 -0.005684 0)
(0.00469841 -0.00481068 0)
(0.00613565 -0.00395008 0)
(0.0073739 -0.00311285 0)
(0.00841582 -0.00230826 0)
(0.00926649 -0.00154408 0)
(0.00993316 -0.000826522 0)
(0.0104248 -0.000160166 0)
(0.010752 0.000451957 0)
(0.010926 0.0010083 0)
(0.0109591 0.00150864 0)
(0.0108636 0.00195391 0)
(0.0106523 0.00234598 0)
(0.0103374 0.00268742 0)
(0.00993106 0.00298118 0)
(0.0094446 0.00323041 0)
(0.00888937 0.00343799 0)
(0.00827531 0.00360643 0)
(0.00761313 0.00373726 0)
(0.00691149 0.00383101 0)
(0.00618133 0.00388645 0)
(0.00543042 0.00390082 0)
(0.00467159 0.00386867 0)
(0.00391208 0.0037828 0)
(0.00316954 0.00363238 0)
(0.00245064 0.00340533 0)
(0.00178281 0.00308516 0)
(0.00117132 0.00265614 0)
(0.000662745 0.00209756 0)
(0.000258601 0.0013939 0)
(3.93665e-05 0.000523439 0)
(-2.05113e-05 0.000117074 0)
(-0.000156202 0.000482994 0)
(-0.000432429 0.000903361 0)
(-0.000810882 0.00134322 0)
(-0.00129587 0.00176312 0)
(-0.00185919 0.00214933 0)
(-0.00249728 0.0024883 0)
(-0.00319112 0.00278044 0)
(-0.00393577 0.00302642 0)
(-0.00471932 0.00323338 0)
(-0.00553803 0.00340771 0)
(-0.00638518 0.00355788 0)
(-0.00725877 0.00369078 0)
(-0.00815555 0.00381324 0)
(-0.00907488 0.00393026 0)
(-0.0100155 0.00404608 0)
(-0.0109775 0.00416338 0)
(-0.0119605 0.00428406 0)
(-0.0129649 0.00440902 0)
(-0.0139907 0.00453863 0)
(-0.0150382 0.00467274 0)
(-0.0161075 0.004811 0)
(-0.017199 0.00495288 0)
(-0.0183128 0.00509786 0)
(-0.0194492 0.00524542 0)
(-0.0206088 0.00539512 0)
(-0.0217921 0.00554659 0)
(-0.0229997 0.00569951 0)
(-0.0242326 0.00585356 0)
(-0.0254918 0.00600839 0)
(-0.0267782 0.00616357 0)
(-0.0280932 0.0063185 0)
(-0.0294378 0.00647234 0)
(-0.0308132 0.00662401 0)
(-0.0322202 0.00677206 0)
(-0.0336595 0.00691472 0)
(-0.0351314 0.00704977 0)
(-0.0366356 0.00717461 0)
(-0.0381714 0.0072862 0)
(-0.0397373 0.00738109 0)
(-0.0413311 0.00745545 0)
(-0.0429496 0.00750509 0)
(-0.0445888 0.00752554 0)
(-0.0462438 0.00751209 0)
(-0.0479084 0.00745987 0)
(-0.0495755 0.00736395 0)
(-0.051237 0.00721942 0)
(-0.0528836 0.00702154 0)
(-0.054505 0.00676581 0)
(-0.0560899 0.00644812 0)
(-0.057626 0.00606485 0)
(-0.0591003 0.00561303 0)
(-0.0604989 0.00509041 0)
(-0.0618073 0.00449564 0)
(-0.0630106 0.00382833 0)
(-0.0640934 0.00308917 0)
(-0.0650402 0.00228 0)
(-0.0658357 0.00140391 0)
(-0.0664648 0.00046526 0)
(-0.0669126 -0.000530292 0)
(-0.0671654 -0.00157575 0)
(-0.0672101 -0.00266285 0)
(-0.0670353 -0.00378203 0)
(-0.0666306 -0.0049226 0)
(-0.065988 -0.00607277 0)
(-0.065101 -0.00721982 0)
(-0.0639658 -0.00835028 0)
(-0.062581 -0.00945009 0)
(-0.0609481 -0.0105049 0)
(-0.0590713 -0.0115002 0)
(-0.056958 -0.0124218 0)
(-0.0546188 -0.0132559 0)
(-0.0520674 -0.0139897 0)
(-0.0493206 -0.0146114 0)
(-0.0463982 -0.0151106 0)
(-0.043323 -0.015479 0)
(-0.04012 -0.0157099 0)
(-0.0368169 -0.0157992 0)
(-0.0334428 -0.0157451 0)
(-0.0300284 -0.0155485 0)
(-0.0266047 -0.0152128 0)
(-0.0232035 -0.0147441 0)
(-0.0198556 -0.0141508 0)
(-0.0165911 -0.0134437 0)
(-0.0134382 -0.0126356 0)
(-0.0104229 -0.011741 0)
(-0.00756849 -0.0107754 0)
(-0.00489517 -0.00975542 0)
(-0.00241957 -0.00869777 0)
(-0.000154672 -0.00761914 0)
(0.0018903 -0.00653562 0)
(0.00370989 -0.00546234 0)
(0.00530224 -0.00441309 0)
(0.00666888 -0.00340005 0)
(0.00781441 -0.00243356 0)
(0.00874613 -0.00152204 0)
(0.0094736 -0.000671874 0)
(0.0100082 0.000112509 0)
(0.0103628 0.000828561 0)
(0.010551 0.00147544 0)
(0.0105871 0.00205381 0)
(0.0104857 0.00256556 0)
(0.0102609 0.00301351 0)
(0.00992691 0.00340107 0)
(0.0094969 0.00373192 0)
(0.0089841 0.00400955 0)
(0.00840014 0.00423703 0)
(0.00775735 0.00441634 0)
(0.00706585 0.00454832 0)
(0.00633794 0.0046318 0)
(0.00558249 0.00466374 0)
(0.0048136 0.00463815 0)
(0.0040393 0.00454665 0)
(0.00327856 0.00437701 0)
(0.00253871 0.0041146 0)
(0.00184899 0.00374016 0)
(0.00121549 0.00323304 0)
(0.000687636 0.00256727 0)
(0.000267865 0.00171789 0)
(4.04972e-05 0.000653332 0)
(-2.58034e-05 0.000198471 0)