/*--------------------------------*- C++ -*----------------------------------*\
| =========                 |                                                 |
| \\      /  F ield         | OpenFOAM: The Open Source CFD Toolbox           |
|  \\    /   O peration     | Version:  2406                                  |
|   \\  /    A nd           | Website:  www.openfoam.com                      |
|    \\/     M anipulation  |                                                 |
\*---------------------------------------------------------------------------*/
FoamFile
{
    version     2.0;
    format      ascii;
    arch        "LSB;label=32;scalar=64";
    class       surfaceScalarField;
    location    "17.3";
    object      phi;
}
// * * * * * * * * * * * * * * * * * * * * * * * * * * * * * * * * * * * * * //

dimensions      [0 3 -1 0 0 0 0];

oriented        oriented;

internalField   nonuniform List<scalar> 
28560
(
8.04571e-09
-8.04301e-09
2.29868e-08
-1.49412e-08
3.85083e-08
-1.55212e-08
5.00988e-08
-1.15903e-08
5.56994e-08
-5.60056e-09
5.4617e-08
1.08238e-09
4.73069e-08
7.31013e-09
3.44219e-08
1.2885e-08
1.68112e-08
1.76107e-08
-4.7129e-09
2.15241e-08
-2.94681e-08
2.47552e-08
-5.6944e-08
2.74759e-08
-8.68093e-08
2.98652e-08
-1.18898e-07
3.20887e-08
-1.53185e-07
3.42871e-08
-1.89757e-07
3.65721e-08
-2.28784e-07
3.90273e-08
-2.70495e-07
4.1711e-08
-3.15157e-07
4.46613e-08
-3.63058e-07
4.79014e-08
-4.14502e-07
5.14442e-08
-4.69799e-07
5.5297e-08
-5.29264e-07
5.94644e-08
-5.93215e-07
6.39509e-08
-6.61976e-07
6.87616e-08
-7.3588e-07
7.39035e-08
-8.15264e-07
7.93845e-08
-9.00478e-07
8.52134e-08
-9.91876e-07
9.13986e-08
-1.08982e-06
9.79468e-08
-1.19468e-06
1.04862e-07
-1.30683e-06
1.12142e-07
-1.42661e-06
1.19781e-07
-1.55437e-06
1.27763e-07
-1.69043e-06
1.36063e-07
-1.83508e-06
1.44643e-07
-1.98853e-06
1.53452e-07
-2.15095e-06
1.62422e-07
-2.32242e-06
1.71469e-07
-2.50291e-06
1.80488e-07
-2.69226e-06
1.89352e-07
-2.89017e-06
1.97912e-07
-3.09617e-06
2.05997e-07
-3.30958e-06
2.13411e-07
-3.52952e-06
2.19935e-07
-3.75485e-06
2.25329e-07
-3.98418e-06
2.29335e-07
-4.21586e-06
2.31677e-07
-4.44793e-06
2.3207e-07
-4.67815e-06
2.30223e-07
-4.904e-06
2.25844e-07
-5.12265e-06
2.18656e-07
-5.33105e-06
2.08395e-07
-5.52588e-06
1.94829e-07
-5.70364e-06
1.77765e-07
-5.8607e-06
1.5706e-07
-5.99333e-06
1.32633e-07
-6.09781e-06
1.04477e-07
-6.17047e-06
7.26646e-08
-6.20801e-06
3.75367e-08
-6.20657e-06
-1.4458e-09
-6.16399e-06
-4.25751e-08
-6.07758e-06
-8.64125e-08
-5.94551e-06
-1.32068e-07
-5.76661e-06
-1.78896e-07
-5.54047e-06
-2.26146e-07
-5.26747e-06
-2.72999e-07
-4.94889e-06
-3.18581e-07
-4.5869e-06
-3.61986e-07
-4.1846e-06
-4.02301e-07
-3.74597e-06
-4.38633e-07
-3.27583e-06
-4.70141e-07
-2.77977e-06
-4.96062e-07
-2.26403e-06
-5.15742e-07
-1.73536e-06
-5.28664e-07
-1.20089e-06
-5.34471e-07
-6.67912e-07
-5.32978e-07
-1.43718e-07
-5.24194e-07
3.64599e-07
-5.08317e-07
8.50333e-07
-4.85733e-07
1.30734e-06
-4.57008e-07
1.7302e-06
-4.22861e-07
2.11434e-06
-3.84143e-07
2.45615e-06
-3.41804e-07
2.753e-06
-2.96854e-07
3.00333e-06
-2.50328e-07
3.20658e-06
-2.03248e-07
3.36317e-06
-1.56588e-07
3.47441e-06
-1.11241e-07
3.54241e-06
-6.80017e-08
3.57002e-06
-2.76081e-08
3.56046e-06
9.55602e-09
3.51698e-06
4.34802e-08
3.44405e-06
7.29342e-08
3.34554e-06
9.85059e-08
3.22541e-06
1.20127e-07
3.08755e-06
1.37867e-07
2.93562e-06
1.51928e-07
2.77304e-06
1.6258e-07
2.60289e-06
1.70149e-07
2.4279e-06
1.74991e-07
2.25042e-06
1.77483e-07
2.07241e-06
1.78005e-07
1.89549e-06
1.76925e-07
1.72089e-06
1.74595e-07
1.54956e-06
1.7133e-07
1.38216e-06
1.67403e-07
1.21913e-06
1.63025e-07
1.0608e-06
1.58332e-07
9.07444e-07
1.53357e-07
7.59441e-07
1.48003e-07
6.17431e-07
1.4201e-07
4.82522e-07
1.34909e-07
3.5654e-07
1.25982e-07
2.423e-07
1.14239e-07
1.43835e-07
9.84655e-08
6.64037e-08
7.74311e-08
1.58183e-08
5.05854e-08
-3.66445e-09
1.94828e-08
-3.66445e-09
1.51547e-08
-2.31978e-08
4.17173e-08
-4.15033e-08
6.54583e-08
-3.92619e-08
7.82079e-08
-2.43396e-08
7.58271e-08
-3.21968e-09
5.70568e-08
1.98528e-08
2.22978e-08
4.20691e-08
-2.69316e-08
6.21145e-08
-8.87988e-08
7.94779e-08
-1.61478e-07
9.42034e-08
-2.43388e-07
1.06665e-07
-3.33307e-07
1.17395e-07
-4.30414e-07
1.26972e-07
-5.34269e-07
1.35944e-07
-6.44771e-07
1.44789e-07
-7.62097e-07
1.53898e-07
-8.86639e-07
1.63569e-07
-1.01895e-06
1.74019e-07
-1.15968e-06
1.85396e-07
-1.30958e-06
1.97796e-07
-1.46941e-06
2.1128e-07
-1.64e-06
2.25887e-07
-1.82218e-06
2.41643e-07
-2.0168e-06
2.58573e-07
-2.22474e-06
2.76699e-07
-2.44688e-06
2.96048e-07
-2.68415e-06
3.16646e-07
-2.93745e-06
3.3852e-07
-3.20774e-06
3.6169e-07
-3.49597e-06
3.86168e-07
-3.80305e-06
4.11949e-07
-4.12992e-06
4.39008e-07
-4.47743e-06
4.67292e-07
-4.84638e-06
4.96716e-07
-5.23747e-06
5.27154e-07
-5.65126e-06
5.5843e-07
-6.08812e-06
5.90317e-07
-6.54823e-06
6.22525e-07
-7.03146e-06
6.547e-07
-7.53738e-06
6.86413e-07
-8.06519e-06
7.17161e-07
-8.61364e-06
7.4636e-07
-9.18099e-06
7.73351e-07
-9.76498e-06
7.97394e-07
-1.03627e-05
8.17683e-07
-1.09707e-05
8.33344e-07
-1.15849e-05
8.43454e-07
-1.22002e-05
8.47055e-07
-1.28113e-05
8.43173e-07
-1.3412e-05
8.30838e-07
-1.39952e-05
8.09115e-07
-1.45537e-05
7.77129e-07
-1.50794e-05
7.34102e-07
-1.5564e-05
6.7938e-07
-1.59987e-05
6.1247e-07
-1.63747e-05
5.33075e-07
-1.66832e-05
4.4112e-07
-1.69155e-05
3.36789e-07
-1.70634e-05
2.20551e-07
-1.7119e-05
9.3171e-08
-1.7076e-05
-4.44059e-08
-1.6928e-05
-1.90624e-07
-1.66705e-05
-3.43855e-07
-1.63005e-05
-5.02161e-07
-1.58161e-05
-6.63282e-07
-1.52175e-05
-8.24742e-07
-1.45066e-05
-9.83884e-07
-1.36872e-05
-1.13793e-06
-1.27652e-05
-1.28402e-06
-1.17482e-05
-1.41934e-06
-1.06456e-05
-1.54115e-06
-9.46892e-06
-1.64686e-06
-8.2308e-06
-1.73418e-06
-6.94544e-06
-1.8011e-06
-5.62804e-06
-1.84607e-06
-4.29454e-06
-1.86797e-06
-2.96131e-06
-1.86621e-06
-1.64475e-06
-1.84076e-06
-3.60922e-07
-1.79214e-06
8.74812e-07
-1.72147e-06
2.04816e-06
-1.63035e-06
3.14622e-06
-1.52092e-06
4.15776e-06
-1.39569e-06
5.07349e-06
-1.25753e-06
5.88618e-06
-1.10954e-06
6.5908e-06
-9.54946e-07
7.18453e-06
-7.96979e-07
7.66674e-06
-6.38796e-07
8.03885e-06
-4.83355e-07
8.30419e-06
-3.33345e-07
8.4677e-06
-1.91114e-07
8.53572e-06
-5.84601e-08
8.51623e-06
6.29643e-08
8.41718e-06
1.71981e-07
8.24755e-06
2.68138e-07
8.01652e-06
3.51164e-07
7.7332e-06
4.21181e-07
7.40649e-06
4.78636e-07
7.04483e-06
5.24244e-07
6.65605e-06
5.58929e-07
6.24727e-06
5.83767e-07
5.82483e-06
5.9993e-07
5.3942e-06
6.08633e-07
4.96004e-06
6.11087e-07
4.52618e-06
6.08455e-07
4.09571e-06
6.01799e-07
3.67107e-06
5.92038e-07
3.25421e-06
5.7989e-07
2.84673e-06
5.6581e-07
2.45017e-06
5.49914e-07
2.06629e-06
5.3189e-07
1.69739e-06
5.10903e-07
1.34682e-06
4.85487e-07
1.01932e-06
4.53477e-07
7.21556e-07
4.12005e-07
4.62273e-07
3.57749e-07
2.52059e-07
2.87645e-07
1.01973e-07
2.00671e-07
2.00914e-08
1.01364e-07
1.6427e-08
1.57724e-08
-3.897e-08
3.9116e-08
-6.48466e-08
5.35661e-08
-5.37119e-08
4.99495e-08
-2.07229e-08
2.35692e-08
2.31607e-08
-2.69435e-08
7.03654e-08
-1.00951e-07
1.16077e-07
-1.96534e-07
1.57697e-07
-3.11272e-07
1.94216e-07
-4.42729e-07
2.25661e-07
-5.88764e-07
2.527e-07
-7.47699e-07
2.7633e-07
-9.18382e-07
2.97656e-07
-1.10019e-06
3.17748e-07
-1.29295e-06
3.37554e-07
-1.49691e-06
3.5786e-07
-1.71262e-06
3.79278e-07
-1.94087e-06
4.02266e-07
-2.18262e-06
4.27145e-07
-2.43896e-06
4.54136e-07
-2.71106e-06
4.83387e-07
-3.00018e-06
5.14999e-07
-3.30758e-06
5.49049e-07
-3.63461e-06
5.85601e-07
-3.98263e-06
6.24714e-07
-4.35303e-06
6.66449e-07
-4.74724e-06
7.10862e-07
-5.16672e-06
7.57999e-07
-5.61292e-06
8.07891e-07
-6.08729e-06
8.60539e-07
-6.59125e-06
9.15907e-07
-7.12615e-06
9.73904e-07
-7.69323e-06
1.03438e-06
-8.29361e-06
1.09709e-06
-8.92819e-06
1.16173e-06
-9.5976e-06
1.22785e-06
-1.03022e-05
1.29489e-06
-1.10418e-05
1.36219e-06
-1.18161e-05
1.42891e-06
-1.26237e-05
1.49406e-06
-1.34631e-05
1.55652e-06
-1.43317e-05
1.61499e-06
-1.52264e-05
1.66803e-06
-1.6143e-05
1.71404e-06
-1.70766e-05
1.7513e-06
-1.80213e-05
1.77801e-06
-1.89701e-05
1.79225e-06
-1.99152e-05
1.79211e-06
-2.08476e-05
1.77565e-06
-2.17578e-05
1.74101e-06
-2.26351e-05
1.68644e-06
-2.34684e-05
1.61035e-06
-2.42457e-05
1.51141e-06
-2.49548e-05
1.38855e-06
-2.55834e-05
1.24109e-06
-2.61191e-05
1.06875e-06
-2.65497e-05
8.71703e-07
-2.68636e-05
6.50653e-07
-2.70498e-05
4.06827e-07
-2.70987e-05
1.41992e-07
-2.70016e-05
-1.41451e-07
-2.67516e-05
-4.40656e-07
-2.63433e-05
-7.52111e-07
-2.57736e-05
-1.0719e-06
-2.50412e-05
-1.39563e-06
-2.41474e-05
-1.71856e-06
-2.30957e-05
-2.03564e-06
-2.18919e-05
-2.34167e-06
-2.05446e-05
-2.63136e-06
-1.90644e-05
-2.8995e-06
-1.74645e-05
-3.14106e-06
-1.576e-05
-3.35133e-06
-1.39681e-05
-3.5261e-06
-1.21075e-05
-3.66171e-06
-1.01983e-05
-3.75525e-06
-8.26167e-06
-3.80463e-06
-6.31921e-06
-3.80867e-06
-4.39279e-06
-3.76717e-06
-2.50399e-06
-3.68094e-06
-6.73685e-07
-3.55178e-06
1.07843e-06
-3.38247e-06
2.73422e-06
-3.1767e-06
4.27748e-06
-2.93895e-06
5.6943e-06
-2.67435e-06
6.9733e-06
-2.38854e-06
8.10582e-06
-2.08746e-06
9.08603e-06
-1.77719e-06
9.91097e-06
-1.46374e-06
1.05805e-05
-1.15285e-06
1.1097e-05
-8.49865e-07
1.14654e-05
-5.59537e-07
1.16929e-05
-2.85912e-07
1.17884e-05
-3.25367e-08
1.17619e-05
1.98397e-07
1.16251e-05
4.04949e-07
1.139e-05
5.86273e-07
1.1069e-05
7.42185e-07
1.06745e-05
8.7316e-07
1.02185e-05
9.80247e-07
9.71246e-06
1.06496e-06
9.16705e-06
1.12918e-06
8.59196e-06
1.17502e-06
7.99582e-06
1.20477e-06
7.38619e-06
1.22072e-06
6.76951e-06
1.22514e-06
6.15121e-06
1.2201e-06
5.53583e-06
1.20742e-06
4.92717e-06
1.18855e-06
4.32859e-06
1.16439e-06
3.74328e-06
1.13522e-06
3.17467e-06
1.1005e-06
2.62689e-06
1.05868e-06
2.10525e-06
1.00713e-06
1.61675e-06
9.41981e-07
1.17047e-06
8.58286e-07
7.77722e-07
7.50495e-07
4.51671e-07
6.13697e-07
2.06064e-07
4.46278e-07
5.29011e-08
2.54527e-07
6.93281e-08
1.11314e-08
-5.01011e-08
2.09607e-08
-7.46757e-08
1.35714e-08
-4.63225e-08
-1.97112e-08
1.25597e-08
-8.30818e-08
8.65312e-08
-1.77421e-07
1.64705e-07
-3.01526e-07
2.40182e-07
-4.53005e-07
3.09176e-07
-6.28973e-07
3.70183e-07
-8.26572e-07
4.23259e-07
-1.0433e-06
4.6943e-07
-1.27721e-06
5.10235e-07
-1.52695e-06
5.47401e-07
-1.79182e-06
5.8261e-07
-2.07163e-06
6.17369e-07
-2.36671e-06
6.52937e-07
-2.67775e-06
6.90317e-07
-3.00575e-06
7.30266e-07
-3.35194e-06
7.73336e-07
-3.71772e-06
8.19919e-07
-4.10463e-06
8.70293e-07
-4.51429e-06
9.24659e-07
-4.94841e-06
9.83175e-07
-5.40879e-06
1.04598e-06
-5.89726e-06
1.11318e-06
-6.41572e-06
1.18491e-06
-6.96612e-06
1.26126e-06
-7.5504e-06
1.34229e-06
-8.17055e-06
1.42804e-06
-8.82849e-06
1.51848e-06
-9.52609e-06
1.61351e-06
-1.02651e-05
1.71291e-06
-1.10471e-05
1.81637e-06
-1.18734e-05
1.9234e-06
-1.2745e-05
2.03337e-06
-1.36626e-05
2.14543e-06
-1.46263e-05
2.25855e-06
-1.56355e-05
2.37145e-06
-1.66893e-05
2.48262e-06
-1.77855e-05
2.59029e-06
-1.89214e-05
2.69244e-06
-2.00932e-05
2.7868e-06
-2.12961e-05
2.87087e-06
-2.25239e-05
2.94192e-06
-2.37697e-05
2.99707e-06
-2.5025e-05
3.03331e-06
-2.62803e-05
3.04754e-06
-2.75249e-05
3.03668e-06
-2.87469e-05
2.99773e-06
-2.99337e-05
2.92782e-06
-3.10717e-05
2.82437e-06
-3.21464e-05
2.68511e-06
-3.31433e-05
2.50824e-06
-3.40472e-05
2.29245e-06
-3.48431e-05
2.03706e-06
-3.55164e-05
1.74206e-06
-3.60529e-05
1.40819e-06
-3.64392e-05
1.03697e-06
-3.66631e-05
6.30737e-07
-3.67138e-05
1.92662e-07
-3.6582e-05
-2.73264e-07
-3.62604e-05
-7.62254e-07
-3.57437e-05
-1.26878e-06
-3.5029e-05
-1.78662e-06
-3.41157e-05
-2.30897e-06
-3.30057e-05
-2.82856e-06
-3.17036e-05
-3.33772e-06
-3.02167e-05
-3.8286e-06
-2.85548e-05
-4.29328e-06
-2.67303e-05
-4.72394e-06
-2.47583e-05
-5.11308e-06
-2.2656e-05
-5.45367e-06
-2.04427e-05
-5.73934e-06
-1.81398e-05
-5.96458e-06
-1.57702e-05
-6.12489e-06
-1.33578e-05
-6.21698e-06
-1.09277e-05
-6.23884e-06
-8.505e-06
-6.18986e-06
-6.11503e-06
-6.07091e-06
-3.78247e-06
-5.88434e-06
-1.53101e-06
-5.63393e-06
6.17128e-07
-5.32484e-06
2.64163e-06
-4.96345e-06
4.5245e-06
-4.55722e-06
6.25039e-06
-4.11443e-06
7.80688e-06
-3.64395e-06
9.18467e-06
-3.15498e-06
1.03777e-05
-2.65676e-06
1.13831e-05
-2.15829e-06
1.22013e-05
-1.66807e-06
1.28357e-05
-1.19386e-06
1.32923e-05
-7.42503e-07
1.35795e-05
-3.198e-07
1.37082e-05
6.97409e-08
1.36904e-05
4.22693e-07
1.35397e-05
7.3696e-07
1.32704e-05
1.01157e-06
1.28969e-05
1.24666e-06
1.24338e-05
1.44331e-06
1.18953e-05
1.60342e-06
1.1295e-05
1.72955e-06
1.06452e-05
1.82476e-06
9.95757e-06
1.89241e-06
9.24228e-06
1.93601e-06
8.50839e-06
1.95903e-06
7.76374e-06
1.96474e-06
7.01512e-06
1.95604e-06
6.26844e-06
1.93523e-06
5.52898e-06
1.90385e-06
4.80179e-06
1.86242e-06
4.09205e-06
1.81023e-06
3.40563e-06
1.74511e-06
2.74951e-06
1.66325e-06
2.13235e-06
1.55913e-06
1.56489e-06
1.42574e-06
1.06013e-06
1.25526e-06
6.33243e-07
1.04058e-06
3.01224e-07
7.78296e-07
8.26066e-08
4.73145e-07
1.51935e-07
3.0337e-09
-5.31347e-08
-8.06607e-09
-6.35758e-08
-4.69295e-08
-7.45899e-09
-1.20548e-07
8.61786e-08
-2.3167e-07
1.97653e-07
-3.80108e-07
3.13143e-07
-5.63813e-07
4.23887e-07
-7.79743e-07
5.25105e-07
-1.02453e-06
6.14971e-07
-1.29496e-06
6.93692e-07
-1.58829e-06
7.62759e-07
-1.90241e-06
8.2435e-07
-2.23589e-06
8.80888e-07
-2.58802e-06
9.3474e-07
-2.95869e-06
9.88032e-07
-3.34831e-06
1.04256e-06
-3.75775e-06
1.09976e-06
-4.18823e-06
1.16075e-06
-4.64125e-06
1.22635e-06
-5.11849e-06
1.29717e-06
-5.62186e-06
1.37366e-06
-6.15339e-06
1.45618e-06
-6.71521e-06
1.545e-06
-7.30959e-06
1.64036e-06
-7.9389e-06
1.74249e-06
-8.60555e-06
1.85156e-06
-9.31203e-06
1.96774e-06
-1.00609e-05
2.09113e-06
-1.08546e-05
2.22174e-06
-1.16956e-05
2.3595e-06
-1.25863e-05
2.50418e-06
-1.35288e-05
2.65539e-06
-1.45249e-05
2.81254e-06
-1.55763e-05
2.97481e-06
-1.66841e-05
3.1411e-06
-1.78486e-05
3.31001e-06
-1.90699e-05
3.47982e-06
-2.03469e-05
3.64848e-06
-2.16779e-05
3.81355e-06
-2.30598e-05
3.97223e-06
-2.44887e-05
4.12138e-06
-2.59594e-05
4.2575e-06
-2.74653e-05
4.37677e-06
-2.89985e-05
4.47512e-06
-3.05498e-05
4.54829e-06
-3.21084e-05
4.59189e-06
-3.36623e-05
4.60151e-06
-3.51985e-05
4.57282e-06
-3.67024e-05
4.50168e-06
-3.81589e-05
4.38427e-06
-3.95517e-05
4.21722e-06
-4.08643e-05
3.99773e-06
-4.20798e-05
3.72365e-06
-4.3181e-05
3.39366e-06
-4.41512e-05
3.00729e-06
-4.49742e-05
2.56505e-06
-4.56345e-05
2.06847e-06
-4.61176e-05
1.52014e-06
-4.64106e-05
9.23729e-07
-4.6502e-05
2.83985e-07
-4.63819e-05
-3.93293e-07
-4.60429e-05
-1.1013e-06
-4.54794e-05
-1.8323e-06
-4.46883e-05
-2.57772e-06
-4.3669e-05
-3.32826e-06
-4.24235e-05
-4.07401e-06
-4.09566e-05
-4.80466e-06
-3.92756e-05
-5.50961e-06
-3.73907e-05
-6.17819e-06
-3.53147e-05
-6.79988e-06
-3.30633e-05
-7.36454e-06
-3.06544e-05
-7.86259e-06
-2.81084e-05
-8.28531e-06
-2.54479e-05
-8.62505e-06
-2.26973e-05
-8.87545e-06
-1.98827e-05
-9.03165e-06
-1.7031e-05
-9.09049e-06
-1.41703e-05
-9.05061e-06
-1.13286e-05
-8.9126e-06
-8.5339e-06
-8.67902e-06
-5.81346e-06
-8.35437e-06
-3.19326e-06
-7.94504e-06
-6.97566e-07
-7.45915e-06
1.65156e-06
-6.90635e-06
3.83469e-06
-6.29755e-06
5.83535e-06
-5.64461e-06
7.64035e-06
-4.95999e-06
9.23998e-06
-4.2564e-06
1.06281e-05
-3.54639e-06
1.18021e-05
-2.84204e-06
1.27628e-05
-2.15459e-06
1.35144e-05
-1.49415e-06
1.40641e-05
-8.69484e-07
1.44217e-05
-2.87805e-07
1.45991e-05
2.45298e-07
1.46101e-05
7.2592e-07
1.44699e-05
1.1518e-06
1.41943e-05
1.52225e-06
1.37996e-05
1.83798e-06
1.33021e-05
2.10096e-06
1.27174e-05
2.31421e-06
1.20607e-05
2.48152e-06
1.13458e-05
2.60726e-06
1.05857e-05
2.69612e-06
9.79191e-06
2.75284e-06
8.97471e-06
2.78195e-06
8.14323e-06
2.78752e-06
7.30558e-06
2.77288e-06
6.46914e-06
2.74029e-06
5.64087e-06
2.69069e-06
4.82775e-06
2.62335e-06
4.03727e-06
2.53559e-06
3.27796e-06
2.42257e-06
2.55986e-06
2.27723e-06
1.89508e-06
2.09053e-06
1.29814e-06
1.8522e-06
7.86436e-07
1.55228e-06
3.80826e-07
1.18391e-06
1.0697e-07
7.47002e-07
2.58904e-07
-7.28266e-09
-4.5852e-08
-4.48315e-08
-2.60269e-08
-1.22625e-07
7.03349e-08
-2.45034e-07
2.08587e-07
-4.12723e-07
3.65342e-07
-6.23901e-07
5.24322e-07
-8.75338e-07
6.75324e-07
-1.16315e-06
8.12921e-07
-1.48342e-06
9.35233e-07
-1.83256e-06
1.04283e-06
-2.20764e-06
1.13784e-06
-2.60645e-06
1.22317e-06
-3.0276e-06
1.30204e-06
-3.47042e-06
1.37756e-06
-3.93491e-06
1.45253e-06
-4.42167e-06
1.52932e-06
-4.93176e-06
1.60985e-06
-5.46664e-06
1.69563e-06
-6.02811e-06
1.78781e-06
-6.61819e-06
1.88726e-06
-7.23918e-06
1.99465e-06
-7.89355e-06
2.11054e-06
-8.58393e-06
2.23538e-06
-9.31313e-06
2.36956e-06
-1.00841e-05
2.51345e-06
-1.08999e-05
2.66733e-06
-1.17636e-05
2.83144e-06
-1.26783e-05
3.00591e-06
-1.36473e-05
3.19074e-06
-1.46736e-05
3.38576e-06
-1.576e-05
3.59058e-06
-1.69091e-05
3.80454e-06
-1.81233e-05
4.02668e-06
-1.94042e-05
4.25571e-06
-2.0753e-05
4.48992e-06
-2.21702e-05
4.72717e-06
-2.36552e-05
4.96488e-06
-2.52067e-05
5.19997e-06
-2.6822e-05
5.42888e-06
-2.84974e-05
5.64754e-06
-3.02274e-05
5.85143e-06
-3.20055e-05
6.0356e-06
-3.38235e-05
6.19472e-06
-3.56715e-05
6.32317e-06
-3.75384e-05
6.41517e-06
-3.94113e-05
6.46483e-06
-4.12762e-05
6.46636e-06
-4.31175e-05
6.41416e-06
-4.49188e-05
6.303e-06
-4.66627e-05
6.12816e-06
-4.83311e-05
5.88562e-06
-4.99055e-05
5.57213e-06
-5.13673e-05
5.18541e-06
-5.26979e-05
4.72425e-06
-5.38792e-05
4.18859e-06
-5.48937e-05
3.57958e-06
-5.57249e-05
2.89968e-06
-5.63574e-05
2.15264e-06
-5.67772e-05
1.34354e-06
-5.6972e-05
4.78725e-07
-5.69311e-05
-4.34176e-07
-5.6646e-05
-1.38636e-06
-5.61104e-05
-2.36792e-06
-5.53202e-05
-3.36794e-06
-5.42738e-05
-4.37466e-06
-5.29722e-05
-5.37556e-06
-5.14193e-05
-6.35762e-06
-4.96214e-05
-7.30745e-06
-4.75881e-05
-8.21152e-06
-4.53315e-05
-9.05644e-06
-4.28669e-05
-9.82919e-06
-4.02121e-05
-1.05174e-05
-3.73877e-05
-1.11097e-05
-3.4417e-05
-1.15958e-05
-3.13253e-05
-1.19671e-05
-2.81402e-05
-1.22168e-05
-2.48908e-05
-1.23399e-05
-2.16073e-05
-1.23341e-05
-1.83209e-05
-1.2199e-05
-1.50628e-05
-1.19371e-05
-1.1864e-05
-1.15531e-05
-8.75468e-06
-1.10544e-05
-5.76327e-06
-1.04506e-05
-2.91639e-06
-9.75324e-06
-2.38025e-07
-8.97592e-06
2.25082e-06
-8.13345e-06
4.53252e-06
-7.24169e-06
6.59314e-06
-6.31702e-06
8.42261e-06
-5.37586e-06
1.00148e-05
-4.43423e-06
1.13675e-05
-3.50728e-06
1.24822e-05
-2.60891e-06
1.33642e-05
-1.75142e-06
1.40216e-05
-9.45235e-07
1.44657e-05
-1.9876e-07
1.47098e-05
4.81749e-07
1.47695e-05
1.09218e-06
1.46612e-05
1.63051e-06
1.44026e-05
2.09662e-06
1.40113e-05
2.49217e-06
1.35053e-05
2.82027e-06
1.29016e-05
3.08524e-06
1.22165e-05
3.29227e-06
1.14655e-05
3.44714e-06
1.06626e-05
3.5558e-06
9.82044e-06
3.62407e-06
8.95067e-06
3.65729e-06
8.06367e-06
3.65988e-06
7.16895e-06
3.63501e-06
6.27548e-06
3.58416e-06
5.39206e-06
3.50676e-06
4.52785e-06
3.3998e-06
3.69282e-06
3.25759e-06
2.89841e-06
3.07164e-06
2.15809e-06
2.83085e-06
1.48807e-06
2.52221e-06
9.08206e-07
2.13215e-06
4.4336e-07
1.64875e-06
1.25703e-07
1.06466e-06
3.84607e-07
-1.9148e-08
-2.6704e-08
-8.72129e-08
4.2038e-08
-2.09753e-07
1.92875e-07
-3.87738e-07
3.86572e-07
-6.19175e-07
5.96779e-07
-9.00241e-07
8.05388e-07
-1.22622e-06
1.0013e-06
-1.5922e-06
1.1789e-06
-1.99358e-06
1.33662e-06
-2.42642e-06
1.47567e-06
-2.88758e-06
1.599e-06
-3.37484e-06
1.71042e-06
-3.88683e-06
1.81403e-06
-4.42304e-06
1.91376e-06
-4.98365e-06
2.01314e-06
-5.56947e-06
2.11513e-06
-6.18182e-06
2.2222e-06
-6.82247e-06
2.33628e-06
-7.49354e-06
2.45889e-06
-8.19751e-06
2.59122e-06
-8.9371e-06
2.73424e-06
-9.71532e-06
2.88876e-06
-1.05354e-05
3.05547e-06
-1.14008e-05
3.23498e-06
-1.23152e-05
3.42782e-06
-1.32823e-05
3.63446e-06
-1.43061e-05
3.8552e-06
-1.53904e-05
4.09023e-06
-1.65392e-05
4.3395e-06
-1.77561e-05
4.6027e-06
-1.90447e-05
4.87922e-06
-2.04082e-05
5.16804e-06
-2.18493e-05
5.46772e-06
-2.33699e-05
5.77634e-06
-2.49714e-05
6.09142e-06
-2.66541e-05
6.40989e-06
-2.84173e-05
6.72809e-06
-3.02591e-05
7.04171e-06
-3.2176e-05
7.3458e-06
-3.41633e-05
7.63482e-06
-3.62145e-05
7.90266e-06
-3.83216e-05
8.14268e-06
-4.04748e-05
8.34789e-06
-4.26626e-05
8.51097e-06
-4.48719e-05
8.6245e-06
-4.70881e-05
8.68104e-06
-4.92951e-05
8.67339e-06
-5.14757e-05
8.5947e-06
-5.36114e-05
8.43869e-06
-5.56831e-05
8.19984e-06
-5.7671e-05
7.87352e-06
-5.9555e-05
7.4562e-06
-6.13152e-05
6.94553e-06
-6.29314e-05
6.34049e-06
-6.43843e-05
5.64146e-06
-6.5655e-05
4.8503e-06
-6.67257e-05
3.97036e-06
-6.75796e-05
3.00653e-06
-6.82012e-05
1.96521e-06
-6.85768e-05
8.54293e-07
-6.86941e-05
-3.16895e-07
-6.85428e-05
-1.53764e-06
-6.81148e-05
-2.79596e-06
-6.7404e-05
-4.07868e-06
-6.64071e-05
-5.3716e-06
-6.5123e-05
-6.65962e-06
-6.35537e-05
-7.92694e-06
-6.17039e-05
-9.15727e-06
-5.95813e-05
-1.03341e-05
-5.71969e-05
-1.14409e-05
-5.45646e-05
-1.24614e-05
-5.17018e-05
-1.33802e-05
-4.86289e-05
-1.41827e-05
-4.53691e-05
-1.48556e-05
-4.19488e-05
-1.53874e-05
-3.83968e-05
-1.57687e-05
-3.47442e-05
-1.59925e-05
-3.1024e-05
-1.60543e-05
-2.72704e-05
-1.59526e-05
-2.35186e-05
-1.5689e-05
-1.98036e-05
-1.52681e-05
-1.61603e-05
-1.46977e-05
-1.26223e-05
-1.39886e-05
-9.22135e-06
-1.31542e-05
-5.98675e-06
-1.22105e-05
-2.94484e-06
-1.11754e-05
-1.18406e-07
-1.00681e-05
2.47367e-06
-8.9091e-06
4.81672e-06
-7.71891e-06
6.90046e-06
-6.51797e-06
8.719e-06
-5.32583e-06
1.02708e-05
-4.16073e-06
1.15585e-05
-3.03911e-06
1.25885e-05
-1.97522e-06
1.33707e-05
-9.80911e-07
1.39178e-05
-6.53866e-08
1.42452e-05
7.64801e-07
1.43699e-05
1.50574e-06
1.43106e-05
2.156e-06
1.40863e-05
2.71646e-06
1.37165e-05
3.18999e-06
1.32207e-05
3.58113e-06
1.26173e-05
3.89567e-06
1.19241e-05
4.14031e-06
1.11577e-05
4.32216e-06
1.03335e-05
4.44833e-06
9.46534e-06
4.52543e-06
8.56611e-06
4.55911e-06
7.64759e-06
4.55354e-06
6.7208e-06
4.51094e-06
5.79648e-06
4.43108e-06
4.88548e-06
4.3108e-06
3.99936e-06
4.14372e-06
3.151e-06
3.91999e-06
2.35543e-06
3.62643e-06
1.63069e-06
3.24695e-06
9.99181e-07
2.76365e-06
4.89524e-07
2.15841e-06
1.3925e-07
1.41493e-06
5.23857e-07
-3.22331e-08
5.52908e-09
-1.33936e-07
1.43741e-07
-3.05774e-07
3.64713e-07
-5.44754e-07
6.25552e-07
-8.4574e-07
8.97765e-07
-1.20251e-06
1.16216e-06
-1.6086e-06
1.40739e-06
-2.0579e-06
1.6282e-06
-2.54504e-06
1.82376e-06
-3.06564e-06
1.99628e-06
-3.61641e-06
2.14976e-06
-4.19508e-06
2.2891e-06
-4.80043e-06
2.41938e-06
-5.4321e-06
2.54544e-06
-6.09053e-06
2.67156e-06
-6.77681e-06
2.80141e-06
-7.49259e-06
2.93798e-06
-8.24001e-06
3.0837e-06
-9.02166e-06
3.24053e-06
-9.84049e-06
3.41005e-06
-1.06998e-05
3.59358e-06
-1.16033e-05
3.79227e-06
-1.2555e-05
4.00712e-06
-1.3559e-05
4.23904e-06
-1.462e-05
4.48879e-06
-1.57426e-05
4.75703e-06
-1.69316e-05
5.04419e-06
-1.81918e-05
5.35049e-06
-1.95282e-05
5.67582e-06
-2.09451e-05
6.01968e-06
-2.24471e-05
6.38114e-06
-2.40378e-05
6.75874e-06
-2.57205e-05
7.15042e-06
-2.74976e-05
7.55344e-06
-2.93705e-05
7.96439e-06
-3.13397e-05
8.37907e-06
-3.34041e-05
8.79249e-06
-3.55613e-05
9.19891e-06
-3.78073e-05
9.59176e-06
-4.01362e-05
9.9638e-06
-4.25407e-05
1.03071e-05
-4.50112e-05
1.06132e-05
-4.75365e-05
1.08732e-05
-5.01036e-05
1.10781e-05
-5.26978e-05
1.12186e-05
-5.53025e-05
1.12858e-05
-5.79001e-05
1.1271e-05
-6.04715e-05
1.11661e-05
-6.29966e-05
1.09638e-05
-6.54547e-05
1.06579e-05
-6.78243e-05
1.02431e-05
-7.00837e-05
9.71562e-06
-7.22112e-05
9.07306e-06
-7.41853e-05
8.31456e-06
-7.59847e-05
7.4409e-06
-7.7589e-05
6.45454e-06
-7.89782e-05
5.35965e-06
-8.01338e-05
4.16212e-06
-8.10382e-05
2.86955e-06
-8.16751e-05
1.49124e-06
-8.20301e-05
3.80942e-08
-8.20904e-05
-1.47736e-06
-8.18452e-05
-3.04116e-06
-8.12859e-05
-4.63792e-06
-8.04065e-05
-6.25102e-06
-7.92034e-05
-7.86273e-06
-7.76759e-05
-9.45442e-06
-7.58264e-05
-1.10068e-05
-7.36605e-05
-1.25e-05
-7.11872e-05
-1.39142e-05
-6.84189e-05
-1.52297e-05
-6.53718e-05
-1.64273e-05
-6.20655e-05
-1.74889e-05
-5.85235e-05
-1.83976e-05
-5.47724e-05
-1.91385e-05
-5.08424e-05
-1.96987e-05
-4.67666e-05
-2.00684e-05
-4.25805e-05
-2.02404e-05
-3.8322e-05
-2.02112e-05
-3.40301e-05
-1.99808e-05
-2.97451e-05
-1.95531e-05
-2.55069e-05
-1.89359e-05
-2.1355e-05
-1.81405e-05
-1.73273e-05
-1.71819e-05
-1.34594e-05
-1.60784e-05
-9.7839e-06
-1.48508e-05
-6.32987e-06
-1.35222e-05
-3.12205e-06
-1.21169e-05
-1.80595e-07
-1.06604e-05
2.47923e-06
-9.17779e-06
4.84717e-06
-7.69377e-06
6.918e-06
-6.23155e-06
8.69129e-06
-4.8124e-06
1.01712e-05
-3.45513e-06
1.1366e-05
-2.17572e-06
1.22877e-05
-9.87033e-07
1.29512e-05
1.01295e-07
1.3374e-05
1.08286e-06
1.35757e-05
1.95439e-06
1.35766e-05
2.71551e-06
1.33982e-05
3.36842e-06
1.30617e-05
3.91757e-06
1.25883e-05
4.36911e-06
1.19981e-05
4.73048e-06
1.13104e-05
5.00987e-06
1.05431e-05
5.21562e-06
9.71288e-06
5.35567e-06
8.83503e-06
5.43696e-06
7.92373e-06
5.46484e-06
6.99228e-06
5.4424e-06
6.05343e-06
5.36993e-06
5.1199e-06
5.24433e-06
4.20495e-06
5.05866e-06
3.32314e-06
4.80181e-06
2.49115e-06
4.45841e-06
1.72903e-06
4.00908e-06
1.06164e-06
3.43105e-06
5.2083e-07
2.69922e-06
1.48233e-07
1.78753e-06
6.7209e-07
-4.62859e-08
5.1815e-08
-1.84145e-07
2.816e-07
-4.08929e-07
5.89497e-07
-7.13239e-07
9.29862e-07
-1.08842e-06
1.27294e-06
-1.52555e-06
1.59929e-06
-2.01619e-06
1.89804e-06
-2.5529e-06
2.16491e-06
-3.12947e-06
2.40032e-06
-3.74104e-06
2.60785e-06
-4.38412e-06
2.79285e-06
-5.0565e-06
2.96147e-06
-5.75707e-06
3.11996e-06
-6.48574e-06
3.2741e-06
-7.24322e-06
3.42905e-06
-8.03099e-06
3.58917e-06
-8.8511e-06
3.7581e-06
-9.7062e-06
3.9388e-06
-1.05994e-05
4.13374e-06
-1.15343e-05
4.34498e-06
-1.25151e-05
4.5743e-06
-1.35461e-05
4.82328e-06
-1.46323e-05
5.09332e-06
-1.57789e-05
5.38568e-06
-1.69916e-05
5.70145e-06
-1.82761e-05
6.04152e-06
-1.96383e-05
6.40645e-06
-2.10843e-05
6.7965e-06
-2.262e-05
7.21145e-06
-2.42508e-05
7.65057e-06
-2.59822e-05
8.1125e-06
-2.78186e-05
8.5952e-06
-2.97641e-05
9.09582e-06
-3.18213e-05
9.61069e-06
-3.39921e-05
1.01352e-05
-3.62769e-05
1.06638e-05
-3.86744e-05
1.119e-05
-4.11818e-05
1.17063e-05
-4.37944e-05
1.22044e-05
-4.65055e-05
1.26749e-05
-4.93065e-05
1.31081e-05
-5.21868e-05
1.34934e-05
-5.51336e-05
1.382e-05
-5.81323e-05
1.40768e-05
-6.11666e-05
1.42529e-05
-6.42183e-05
1.43375e-05
-6.72679e-05
1.43206e-05
-7.02945e-05
1.41927e-05
-7.32764e-05
1.39457e-05
-7.61906e-05
1.35722e-05
-7.90141e-05
1.30666e-05
-8.17231e-05
1.24246e-05
-8.42939e-05
1.16438e-05
-8.67026e-05
1.07233e-05
-8.8926e-05
9.66425e-06
-9.0941e-05
8.46957e-06
-9.27255e-05
7.14413e-06
-9.42581e-05
5.69473e-06
-9.55186e-05
4.13008e-06
-9.64882e-05
2.4608e-06
-9.71494e-05
6.99337e-07
-9.74867e-05
-1.14006e-06
-9.74864e-05
-3.04144e-06
-9.71371e-05
-4.98724e-06
-9.64297e-05
-6.95839e-06
-9.5358e-05
-8.9345e-06
-9.39184e-05
-1.0894e-05
-9.21106e-05
-1.28145e-05
-8.99378e-05
-1.46728e-05
-8.74066e-05
-1.64454e-05
-8.45275e-05
-1.81088e-05
-8.13149e-05
-1.96399e-05
-7.77875e-05
-2.10164e-05
-7.39678e-05
-2.22173e-05
-6.98827e-05
-2.32236e-05
-6.5563e-05
-2.40184e-05
-6.10434e-05
-2.4588e-05
-5.63619e-05
-2.49218e-05
-5.15596e-05
-2.50134e-05
-4.668e-05
-2.48604e-05
-4.17682e-05
-2.44649e-05
-3.68702e-05
-2.38339e-05
-3.20319e-05
-2.29788e-05
-2.72983e-05
-2.19156e-05
-2.27123e-05
-2.06643e-05
-1.83142e-05
-1.92489e-05
-1.41404e-05
-1.7696e-05
-1.02227e-05
-1.60346e-05
-6.58801e-06
-1.4295e-05
-3.25779e-06
-1.2508e-05
-2.47616e-07
-1.07039e-05
2.43269e-06
-8.91186e-06
4.77901e-06
-7.15873e-06
6.79268e-06
-5.4688e-06
8.48e-06
-3.86305e-06
9.85179e-06
-2.35882e-06
1.09227e-05
-9.69609e-07
1.17106e-05
2.95004e-07
1.22357e-05
1.42926e-06
1.25202e-05
2.43102e-06
1.25872e-05
3.3014e-06
1.24604e-05
4.04434e-06
1.21634e-05
4.66613e-06
1.17191e-05
5.17476e-06
1.11496e-05
5.57936e-06
1.04757e-05
5.8895e-06
9.71693e-06
6.11448e-06
8.89125e-06
6.26264e-06
8.01549e-06
6.3406e-06
7.10536e-06
6.35253e-06
6.17587e-06
6.29942e-06
5.24178e-06
6.17842e-06
4.31828e-06
5.98216e-06
3.42174e-06
5.69835e-06
2.57072e-06
5.30943e-06
1.78726e-06
4.79254e-06
1.09853e-06
4.11977e-06
5.39037e-07
3.25871e-06
1.53284e-07
2.17328e-06
8.25374e-07
-6.11631e-08
1.12978e-07
-2.37262e-07
4.57699e-07
-5.17952e-07
8.70187e-07
-8.91064e-07
1.30297e-06
-1.34411e-06
1.72599e-06
-1.86524e-06
2.12042e-06
-2.4439e-06
2.47669e-06
-3.07116e-06
2.79217e-06
-3.73992e-06
3.06908e-06
-4.44484e-06
3.31277e-06
-5.18225e-06
3.53026e-06
-5.94997e-06
3.72919e-06
-6.7471e-06
3.91708e-06
-7.57382e-06
4.10083e-06
-8.43126e-06
4.28649e-06
-9.32131e-06
4.47923e-06
-1.02466e-05
4.68338e-06
-1.12103e-05
4.90255e-06
-1.22164e-05
5.13982e-06
-1.32693e-05
5.39782e-06
-1.43739e-05
5.67891e-06
-1.55358e-05
5.98518e-06
-1.6761e-05
6.31858e-06
-1.80562e-05
6.6808e-06
-1.9428e-05
7.07331e-06
-2.08838e-05
7.49725e-06
-2.24307e-05
7.95339e-06
-2.40761e-05
8.44195e-06
-2.58273e-05
8.96257e-06
-2.76909e-05
9.5142e-06
-2.96733e-05
1.00949e-05
-3.17802e-05
1.0702e-05
-3.4016e-05
1.13316e-05
-3.63842e-05
1.19789e-05
-3.88868e-05
1.26379e-05
-4.15244e-05
1.33013e-05
-4.42954e-05
1.39611e-05
-4.71967e-05
1.46076e-05
-5.02227e-05
1.52304e-05
-5.3366e-05
1.58182e-05
-5.66166e-05
1.63588e-05
-5.99626e-05
1.68394e-05
-6.33897e-05
1.72471e-05
-6.68815e-05
1.75687e-05
-7.04199e-05
1.77913e-05
-7.39848e-05
1.79024e-05
-7.75546e-05
1.78903e-05
-8.11062e-05
1.77444e-05
-8.46155e-05
1.7455e-05
-8.80574e-05
1.70141e-05
-9.14062e-05
1.64153e-05
-9.46356e-05
1.5654e-05
-9.77191e-05
1.47274e-05
-0.00010063
1.36346e-05
-0.000103343
1.23772e-05
-0.000105832
1.09584e-05
-0.000108072
9.38379e-06
-0.000110038
7.66121e-06
-0.000111709
5.80045e-06
-0.000113061
3.8135e-06
-0.000114076
1.71438e-06
-0.000114736
-4.80866e-07
-0.000115023
-2.75433e-06
-0.000114924
-5.08622e-06
-0.000114427
-7.45507e-06
-0.000113524
-9.83786e-06
-0.000112208
-1.22102e-05
-0.000110476
-1.45465e-05
-0.000108328
-1.68202e-05
-0.000105769
-1.90042e-05
-0.000102807
-2.10711e-05
-9.94535e-05
-2.29935e-05
-9.57249e-05
-2.47449e-05
-9.16426e-05
-2.62996e-05
-8.72323e-05
-2.76339e-05
-8.25246e-05
-2.87261e-05
-7.75547e-05
-2.95579e-05
-7.23623e-05
-3.01143e-05
-6.6991e-05
-3.03847e-05
-6.14881e-05
-3.03633e-05
-5.59037e-05
-3.00494e-05
-5.02896e-05
-2.94479e-05
-4.4699e-05
-2.85695e-05
-3.91844e-05
-2.74301e-05
-3.37974e-05
-2.60514e-05
-2.85868e-05
-2.44595e-05
-2.35979e-05
-2.26849e-05
-1.88715e-05
-2.0761e-05
-1.44427e-05
-1.87238e-05
-1.03406e-05
-1.66102e-05
-6.58751e-06
-1.4457e-05
-3.19922e-06
-1.23001e-05
-1.84568e-07
-1.01734e-05
2.45408e-06
-8.10744e-06
4.72045e-06
-6.12942e-06
6.62379e-06
-4.26216e-06
8.17816e-06
-2.52398e-06