/*--------------------------------*- C++ -*----------------------------------*\
| =========                 |                                                 |
| \\      /  F ield         | OpenFOAM: The Open Source CFD Toolbox           |
|  \\    /   O peration     | Version:  2406                                  |
|   \\  /    A nd           | Website:  www.openfoam.com                      |
|    \\/     M anipulation  |                                                 |
\*---------------------------------------------------------------------------*/
FoamFile
{
    version     2.0;
    format      ascii;
    arch        "LSB;label=32;scalar=64";
    class       volVectorField;
    location    "4.85";
    object      Uold;
}
// * * * * * * * * * * * * * * * * * * * * * * * * * * * * * * * * * * * * * //

dimensions      [0 1 -1 0 0 0 0];

internalField   nonuniform List<vector> 
3600
(
(1.03504e-05 -1.01853e-05 0)
(-3.17068e-05 1.61031e-05 0)
(-0.000138303 3.57122e-05 0)
(-0.000289304 4.90564e-05 0)
(-0.000469939 5.37077e-05 0)
(-0.000659164 5.5913e-05 0)
(-0.000857047 5.53748e-05 0)
(-0.00105141 5.49278e-05 0)
(-0.00124806 5.37528e-05 0)
(-0.00143909 5.30626e-05 0)
(-0.00163062 5.2061e-05 0)
(-0.00181668 5.13791e-05 0)
(-0.00200214 5.04295e-05 0)
(-0.00218223 4.96153e-05 0)
(-0.00236048 4.85324e-05 0)
(-0.00253302 4.74604e-05 0)
(-0.00270228 4.61176e-05 0)
(-0.0028651 4.46992e-05 0)
(-0.00302302 4.3003e-05 0)
(-0.00317342 4.11641e-05 0)
(-0.00331717 3.90345e-05 0)
(-0.00345202 3.67079e-05 0)
(-0.0035783 3.40761e-05 0)
(-0.00369407 3.12055e-05 0)
(-0.00379926 2.80197e-05 0)
(-0.00389216 2.45697e-05 0)
(-0.00397243 2.08064e-05 0)
(-0.00403859 1.67747e-05 0)
(-0.00409016 1.24513e-05 0)
(-0.00412592 7.88293e-06 0)
(-0.00414534 3.0707e-06 0)
(-0.00414755 -1.93078e-06 0)
(-0.00413212 -7.09766e-06 0)
(-0.00409859 -1.23644e-05 0)
(-0.0040467 -1.76881e-05 0)
(-0.00397652 -2.29924e-05 0)
(-0.00388805 -2.82229e-05 0)
(-0.00378194 -3.32954e-05 0)
(-0.00365847 -3.81552e-05 0)
(-0.00351889 -4.27162e-05 0)
(-0.00336374 -4.69381e-05 0)
(-0.00319487 -5.07383e-05 0)
(-0.00301288 -5.41081e-05 0)
(-0.00282024 -5.69709e-05 0)
(-0.00261739 -5.93679e-05 0)
(-0.0024073 -6.12225e-05 0)
(-0.00219005 -6.26434e-05 0)
(-0.00196906 -6.35321e-05 0)
(-0.0017438 -6.40755e-05 0)
(-0.00151821 -6.40908e-05 0)
(-0.00129121 -6.38249e-05 0)
(-0.00106774 -6.28467e-05 0)
(-0.000846901 -6.13626e-05 0)
(-0.000635931 -5.83121e-05 0)
(-0.000436495 -5.36654e-05 0)
(-0.000260371 -4.51432e-05 0)
(-0.000115439 -3.28792e-05 0)
(-1.70248e-05 -1.41173e-05 0)
(2.4312e-05 5.05306e-06 0)
(1.65166e-05 1.73482e-05 0)
(-1.65473e-05 3.21002e-05 0)
(-0.000171545 0.000168879 0)
(-0.000455528 0.000269276 0)
(-0.000822867 0.000340349 0)
(-0.00125431 0.000375331 0)
(-0.00171073 0.000394464 0)
(-0.00218888 0.000399215 0)
(-0.00266598 0.000400047 0)
(-0.00314793 0.000396312 0)
(-0.00362119 0.000392389 0)
(-0.00409338 0.000386729 0)
(-0.0045551 0.000381213 0)
(-0.00501267 0.000374446 0)
(-0.00545873 0.000367396 0)
(-0.00589775 0.000359047 0)
(-0.00632369 0.000349979 0)
(-0.00673937 0.000339476 0)
(-0.00713967 0.000327899 0)
(-0.0075261 0.000314729 0)
(-0.00789421 0.000300189 0)
(-0.00824444 0.000283897 0)
(-0.00857283 0.000265992 0)
(-0.00887901 0.000246201 0)
(-0.0091594 0.000224621 0)
(-0.00941303 0.000201079 0)
(-0.00963667 0.00017567 0)
(-0.009829 0.00014832 0)
(-0.00998714 0.000119157 0)
(-0.0101097 8.82139e-05 0)
(-0.0101942 5.5676e-05 0)
(-0.0102394 2.16911e-05 0)
(-0.0102435 -1.34817e-05 0)
(-0.0102056 -4.95818e-05 0)
(-0.0101248 -8.6273e-05 0)
(-0.0100006 -0.000123198 0)
(-0.00983325 -0.00015996 0)
(-0.00962291 -0.000196138 0)
(-0.00937084 -0.000231307 0)
(-0.00907805 -0.000265037 0)
(-0.00874696 -0.00029692 0)
(-0.00837916 -0.000326585 0)
(-0.00797822 -0.000353688 0)
(-0.00754607 -0.000377986 0)
(-0.00708727 -0.000399232 0)
(-0.00660374 -0.000417375 0)
(-0.00610085 -0.000432251 0)
(-0.00558005 -0.000444033 0)
(-0.00504744 -0.000452532 0)
(-0.00450369 -0.000458093 0)
(-0.00395587 -0.000460168 0)
(-0.00340414 -0.000459004 0)
(-0.00285776 -0.000452871 0)
(-0.00231809 -0.000441266 0)
(-0.00179951 -0.000419746 0)
(-0.00130867 -0.000386454 0)
(-0.000869217 -0.000333026 0)
(-0.000496723 -0.000259553 0)
(-0.000220809 -0.000159586 0)
(-5.39946e-05 -5.6676e-05 0)
(4.1616e-06 2.39273e-05 0)
(-3.90862e-05 0.000143618 0)
(-0.000285929 0.00045756 0)
(-0.000712824 0.000687064 0)
(-0.00124311 0.000846775 0)
(-0.0018585 0.000933975 0)
(-0.00250682 0.000981914 0)
(-0.00318518 0.000998422 0)
(-0.00386401 0.00100226 0)
(-0.00454951 0.00099555 0)
(-0.0052246 0.000986077 0)
(-0.00589729 0.000972689 0)
(-0.00655621 0.000958318 0)
(-0.00720792 0.000941235 0)
(-0.00784375 0.000922671 0)
(-0.00846816 0.000901223 0)
(-0.00907403 0.000877499 0)
(-0.00966397 0.000850476 0)
(-0.0102318 0.000820459 0)
(-0.0107788 0.000786696 0)
(-0.0112993 0.000749324 0)
(-0.0117934 0.000707785 0)
(-0.012256 0.000662134 0)
(-0.0126862 0.000611981 0)
(-0.0130795 0.000557372 0)
(-0.0134342 0.00049809 0)
(-0.0137461 0.00043424 0)
(-0.0140132 0.000365799 0)
(-0.014232 0.000292991 0)
(-0.0144002 0.000216015 0)
(-0.014515 0.00013526 0)
(-0.0145744 5.11683e-05 0)
(-0.0145764 -3.56804e-05 0)
(-0.0145196 -0.000124602 0)
(-0.0144031 -0.000214834 0)
(-0.0142263 -0.000305485 0)
(-0.0139895 -0.000395656 0)
(-0.0136933 -0.000484324 0)
(-0.0133393 -0.000570538 0)
(-0.0129291 -0.000653262 0)
(-0.0124659 -0.000731607 0)
(-0.011952 -0.000804657 0)
(-0.011392 -0.000871706 0)
(-0.0107888 -0.0009321 0)
(-0.0101481 -0.000985396 0)
(-0.00947296 -0.00103131 0)
(-0.00877003 -0.00106966 0)
(-0.00804178 -0.00110055 0)
(-0.00729577 -0.00112381 0)
(-0.00653361 -0.00113973 0)
(-0.00576413 -0.00114743 0)
(-0.00498847 -0.0011466 0)
(-0.00421841 -0.00113389 0)
(-0.00345672 -0.00110672 0)
(-0.00272207 -0.00105633 0)
(-0.00202332 -0.000976533 0)
(-0.00139147 -0.000852151 0)
(-0.000844322 -0.000680796 0)
(-0.000422807 -0.000455559 0)
(-0.000138579 -0.000216162 0)
(-1.15507e-05 -1.17326e-05 0)
(-5.63474e-05 0.000310111 0)
(-0.000376459 0.000847595 0)
(-0.000913376 0.00122861 0)
(-0.00156312 0.00148637 0)
(-0.00230972 0.00163289 0)
(-0.00309152 0.00171377 0)
(-0.00390851 0.00174524 0)
(-0.00472629 0.00175343 0)
(-0.00555236 0.0017441 0)
(-0.00636677 0.00172822 0)
(-0.00717813 0.0017055 0)
(-0.00797328 0.00167992 0)
(-0.00875909 0.00164961 0)
(-0.00952566 0.00161607 0)
(-0.0102776 0.00157758 0)
(-0.0110067 0.00153475 0)
(-0.0117157 0.00148626 0)
(-0.0123975 0.00143236 0)
(-0.0130531 0.00137202 0)
(-0.0136762 0.00130531 0)
(-0.0142666 0.00123147 0)
(-0.0148184 0.00115046 0)
(-0.0153304 0.00106178 0)
(-0.0157974 0.000965425 0)
(-0.0162172 0.000861152 0)
(-0.0165852 0.000749099 0)
(-0.0168989 0.000629322 0)
(-0.0171542 0.000502187 0)
(-0.0173487 0.000368109 0)
(-0.0174789 0.000227748 0)
(-0.0175429 8.19106e-05 0)
(-0.0175381 -6.84195e-05 0)
(-0.0174634 -0.000222047 0)
(-0.0173175 -0.000377685 0)
(-0.0171002 -0.000533812 0)
(-0.0168118 -0.000688927 0)
(-0.0164532 -0.000841305 0)
(-0.0160264 -0.000989379 0)
(-0.0155334 -0.00113141 0)
(-0.014978 -0.00126596 0)
(-0.0143632 -0.00139149 0)
(-0.0136943 -0.00150689 0)
(-0.0129748 -0.00161104 0)
(-0.0122113 -0.00170327 0)
(-0.0114075 -0.00178305 0)
(-0.0105709 -0.00185016 0)
(-0.00970485 -0.0019046 0)
(-0.00881773 -0.00194625 0)
(-0.0079118 -0.0019752 0)
(-0.00699707 -0.00199028 0)
(-0.00607521 -0.00199029 0)
(-0.00515971 -0.00197033 0)
(-0.00425376 -0.00192514 0)
(-0.00337874 -0.00184192 0)
(-0.00254349 -0.00170929 0)
(-0.00178336 -0.00150618 0)
(-0.00111486 -0.00122581 0)
(-0.00058705 -0.000861741 0)
(-0.000210062 -0.000461325 0)
(-2.49003e-05 -9.19219e-05 0)
(-6.54011e-05 0.000516928 0)
(-0.000434043 0.00132106 0)
(-0.00104884 0.00187736 0)
(-0.00178444 0.00224464 0)
(-0.00262524 0.00245757 0)
(-0.00350112 0.00257469 0)
(-0.00441487 0.00262324 0)
(-0.00532824 0.00263619 0)
(-0.00625066 0.00262406 0)
(-0.00715991 0.00260058 0)
(-0.00806563 0.00256695 0)
(-0.00895317 0.00252791 0)
(-0.0098299 0.00248179 0)
(-0.0106849 0.00243018 0)
(-0.011523 0.00237118 0)
(-0.0123353 0.00230531 0)
(-0.0131243 0.00223101 0)
(-0.0138827 0.00214838 0)
(-0.0146109 0.00205619 0)
(-0.0153026 0.00195433 0)
(-0.0159568 0.00184189 0)
(-0.0165676 0.0017187 0)
(-0.0171333 0.00158416 0)
(-0.0176483 0.0014382 0)
(-0.0181102 0.00128058 0)
(-0.0185138 0.00111146 0)
(-0.0188565 0.000931036 0)
(-0.0191337 0.000739831 0)
(-0.0193428 0.000538539 0)
(-0.0194802 0.000328137 0)
(-0.0195436 0.00010988 0)
(-0.0195304 -0.000114777 0)
(-0.0194395 -0.000344027 0)
(-0.0192694 -0.000575974 0)
(-0.0190202 -0.00080835 0)
(-0.0186923 -0.00103896 0)
(-0.0182868 -0.00126526 0)
(-0.017806 -0.00148498 0)
(-0.0172525 -0.00169557 0)
(-0.0166304 -0.00189496 0)
(-0.0159432 -0.00208091 0)
(-0.0151969 -0.00225185 0)
(-0.0143956 -0.00240614 0)
(-0.0135466 -0.0025429 0)
(-0.0126542 -0.00266128 0)
(-0.0117267 -0.0027611 0)
(-0.0107677 -0.00284218 0)
(-0.00978661 -0.00290456 0)
(-0.00878592 -0.00294803 0)
(-0.00777654 -0.00297121 0)
(-0.00676022 -0.00297177 0)
(-0.00575158 -0.00294336 0)
(-0.00475356 -0.0028775 0)
(-0.00378926 -0.00275754 0)
(-0.00286671 -0.00256588 0)
(-0.00202435 -0.00227597 0)
(-0.00127749 -0.00187457 0)
(-0.000681871 -0.00135597 0)
(-0.000247621 -0.000769982 0)
(-3.02365e-05 -0.000200282 0)
(-7.14881e-05 0.000745951 0)
(-0.000474317 0.00184429 0)
(-0.00114319 0.0025887 0)
(-0.00193869 0.00306967 0)
(-0.00284458 0.00334995 0)
(-0.00378464 0.00350281 0)
(-0.00476394 0.00356805 0)
(-0.00574143 0.00358516 0)
(-0.00672847 0.00356974 0)
(-0.00770108 0.00353792 0)
(-0.00867 0.00349248 0)
(-0.00961938 0.00343878 0)
(-0.0105572 0.00337542 0)
(-0.0114716 0.00330401 0)
(-0.0123677 0.00322255 0)
(-0.013236 0.00313142 0)
(-0.0140791 0.00302888 0)
(-0.0148891 0.00291484 0)
(-0.0156667 0.00278788 0)
(-0.0164047 0.00264772 0)
(-0.0171024 0.00249328 0)
(-0.0177534 0.00232428 0)
(-0.0183557 0.00213999 0)
(-0.0189033 0.00194032 0)
(-0.0193938 0.00172499 0)
(-0.0198216 0.00149423 0)
(-0.0201838 0.00124837 0)
(-0.0204756 0.000988117 0)
(-0.0206942 0.000714467 0)
(-0.0208355 0.000428747 0)
(-0.0208974 0.000132695 0)
(-0.0208769 -0.000171715 0)
(-0.0207728 -0.000482011 0)
(-0.0205838 -0.000795638 0)
(-0.0203098 -0.00110952 0)
(-0.0199514 -0.0014207 0)
(-0.0195099 -0.00172574 0)
(-0.0189879 -0.00202163 0)
(-0.0183884 -0.0023049 0)
(-0.0177157 -0.00257286 0)
(-0.0169741 -0.00282245 0)
(-0.01617 -0.00305168 0)
(-0.0153082 -0.00325829 0)
(-0.0143966 -0.00344125 0)
(-0.0134401 -0.00359933 0)
(-0.0124477 -0.00373249 0)
(-0.0114236 -0.00384033 0)
(-0.0103777 -0.00392316 0)
(-0.00931308 -0.00398042 0)
(-0.00824117 -0.00401071 0)
(-0.0071638 -0.00401051 0)
(-0.00609636 -0.00397228 0)
(-0.00504138 -0.00388422 0)
(-0.004023 -0.00372621 0)
(-0.00304835 -0.00347404 0)
(-0.00215771 -0.00309589 0)
(-0.00136545 -0.00257058 0)
(-0.000731398 -0.001892 0)
(-0.000266141 -0.00110906 0)
(-3.22464e-05 -0.000320048 0)
(-7.42471e-05 0.000992582 0)
(-0.00049822 0.00240774 0)
(-0.00120269 0.00335288 0)
(-0.00203918 0.00395403 0)
(-0.00299035 0.00430454 0)
(-0.00397518 0.00449408 0)
(-0.00500011 0.00457625 0)
(-0.00602187 0.00459724 0)
(-0.00705342 0.00457819 0)
(-0.00806944 0.00453742 0)
(-0.00908182 0.0044795 0)
(-0.0100737 0.00441022 0)
(-0.0110538 0.0043286 0)
(-0.0120095 0.00423613 0)
(-0.0129463 0.00413079 0)
(-0.0138543 0.00401276 0)
(-0.0147362 0.00388012 0)
(-0.0155836 0.00373256 0)
(-0.0163973 0.00356849 0)
(-0.0171698 0.00338742 0)
(-0.0179003 0.00318809 0)
(-0.018582 0.00297007 0)
(-0.0192129 0.00273255 0)
(-0.0197867 0.00247531 0)
(-0.0203006 0.00219811 0)
(-0.0207488 0.00190121 0)
(-0.0211282 0.00158507 0)
(-0.0214335 0.0012506 0)
(-0.0216618 0.000899107 0)
(-0.0218086 0.000532297 0)
(-0.0218715 0.000152437 0)
(-0.0218474 -0.000237943 0)
(-0.0217348 -0.000635637 0)
(-0.0215322 -0.00103736 0)
(-0.0212397 -0.00143913 0)
(-0.0208576 -0.00183717 0)
(-0.0203875 -0.00222702 0)
(-0.0198322 -0.00260481 0)
(-0.019195 -0.00296609 0)
(-0.0184807 -0.00330741 0)
(-0.017694 -0.00362483 0)
(-0.0168419 -0.00391586 0)
(-0.01593 -0.00417756 0)
(-0.0149668 -0.00440875 0)
(-0.013958 -0.00460779 0)
(-0.0129132 -0.00477481 0)
(-0.0118375 -0.00490921 0)
(-0.0107413 -0.0050117 0)
(-0.00962799 -0.00508132 0)
(-0.00850978 -0.00511689 0)
(-0.00738854 -0.00511356 0)
(-0.00628017 -0.00506284 0)
(-0.00518695 -0.00494939 0)
(-0.00413371 -0.00474977 0)
(-0.00312716 -0.0044327 0)
(-0.00220886 -0.00396096 0)
(-0.00139314 -0.00330474 0)
(-0.000742141 -0.00245704 0)
(-0.000266862 -0.00146603 0)
(-3.08621e-05 -0.000444973 0)
(-7.64165e-05 0.00124706 0)
(-0.000515301 0.00299229 0)
(-0.00124399 0.00414511 0)
(-0.00210884 0.0048695 0)
(-0.00309131 0.00529063 0)
(-0.00410723 0.00551632 0)
(-0.00516391 0.00561461 0)
(-0.00621652 0.0056388 0)
(-0.00727925 0.00561563 0)
(-0.00832587 0.00556555 0)
(-0.0093692 0.00549492 0)
(-0.0103917 0.00540981 0)
(-0.0114027 0.00530968 0)
(-0.0123891 0.00519585 0)
(-0.0133567 0.00506629 0)
(-0.0142951 0.0049209 0)
(-0.0152074 0.00475765 0)
(-0.0160848 0.00457597 0)
(-0.0169281 0.00437408 0)
(-0.0177295 0.00415124 0)
(-0.0184883 0.00390606 0)
(-0.0191974 0.00363788 0)
(-0.0198545 0.00334578 0)
(-0.020453 0.00302944 0)
(-0.02099 0.00268861 0)
(-0.0214592 0.00232354 0)
(-0.0218572 0.00193483 0)
(-0.0221784 0.00152355 0)
(-0.0224194 0.00109135 0)
(-0.0225754 0.000640281 0)
(-0.0226436 0.000173177 0)
(-0.0226204 -0.000306858 0)
(-0.0225042 -0.000795833 0)
(-0.0222931 -0.00128969 0)
(-0.021987 -0.00178345 0)
(-0.0215861 -0.00227243 0)
(-0.0210923 -0.00275105 0)
(-0.0205082 -0.00321449 0)
(-0.0198375 -0.00365718 0)
(-0.0190855 -0.00407483 0)
(-0.0182576 -0.00446249 0)
(-0.0173612 -0.00481712 0)
(-0.0164029 -0.00513501 0)
(-0.0153919 -0.00541484 0)
(-0.0143349 -0.00565448 0)
(-0.0132423 -0.00585436 0)
(-0.01212 -0.00601364 0)
(-0.0109793 -0.0061336 0)
(-0.00982404 -0.00621294 0)
(-0.00866704 -0.00625088 0)
(-0.00751049 -0.00624133 0)
(-0.00637064 -0.00617506 0)
(-0.00524983 -0.00603317 0)
(-0.00417318 -0.00578903 0)
(-0.00314742 -0.00540411 0)
(-0.00221465 -0.00483559 0)
(-0.00138952 -0.00404473 0)
(-0.000734601 -0.00302328 0)
(-0.000260878 -0.00181989 0)
(-2.89849e-05 -0.000564664 0)
(-7.7369e-05 0.00150914 0)
(-0.000525932 0.00359515 0)
(-0.00127127 0.00496214 0)
(-0.00215633 0.00581383 0)
(-0.00316167 0.00630751 0)
(-0.00420079 0.0065703 0)
(-0.00528144 0.00668505 0)
(-0.00635759 0.00671262 0)
(-0.00744438 0.00668548 0)
(-0.00851483 0.00662626 0)
(-0.00958261 0.00654313 0)
(-0.0106297 0.00644244 0)
(-0.0116659 0.00632406 0)
(-0.0126778 0.00618907 0)
(-0.0136717 0.00603547 0)
(-0.0146367 0.00586284 0)
(-0.0155762 0.00566901 0)
(-0.0164812 0.00545309 0)
(-0.0173525 0.00521312 0)
(-0.0181821 0.00494809 0)
(-0.0189692 0.00465639 0)
(-0.0197064 0.00433713 0)
(-0.0203913 0.00398925 0)
(-0.021017 0.00361226 0)
(-0.0215801 0.00320586 0)
(-0.0220741 0.00277025 0)
(-0.022495 0.00230615 0)
(-0.0228368 0.00181477 0)
(-0.0230956 0.00129806 0)
(-0.023266 0.000758436 0)
(-0.0233446 0.000199305 0)
(-0.0233276 -0.000375623 0)
(-0.0232125 -0.000961504 0)
(-0.0229973 -0.00155343 0)
(-0.0226813 -0.00214533 0)
(-0.0222648 -0.00273147 0)
(-0.0217494 -0.003305 0)
(-0.0211379 -0.00386002 0)
(-0.0204344 -0.00438962 0)
(-0.0196445 -0.00488855 0)
(-0.0187743 -0.00535067 0)
(-0.017832 -0.00577229 0)
(-0.0168253 -0.00614878 0)
(-0.0157643 -0.00647864 0)
(-0.0146568 -0.00675923 0)
(-0.0135144 -0.00699135 0)
(-0.0123439 -0.00717388 0)
(-0.0111575 -0.00730889 0)
(-0.00996003 -0.00739476 0)
(-0.00876475 -0.00743134 0)
(-0.00757444 -0.00741129 0)
(-0.00640563 -0.00732487 0)
(-0.00526098 -0.00714951 0)
(-0.00416578 -0.00685545 0)
(-0.00312715 -0.00639673 0)
(-0.00218735 -0.00572485 0)
(-0.00136162 -0.00479244 0)
(-0.000711811 -0.00359044 0)
(-0.000248175 -0.00217029 0)
(-2.6083e-05 -0.000680801 0)
(-7.85717e-05 0.00177525 0)
(-0.000535099 0.00420886 0)
(-0.00129326 0.00579398 0)
(-0.00219396 0.00677525 0)
(-0.003217 0.00734219 0)
(-0.00427436 0.00764227 0)
(-0.0053741 0.00777334 0)
(-0.00646937 0.00780426 0)
(-0.007576 0.00777323 0)
(-0.00866654 0.00770516 0)
(-0.00975536 0.00760999 0)
(-0.0108241 0.00749429 0)
(-0.011883 0.00735834 0)
(-0.0129185 0.00720295 0)
(-0.0139371 0.00702611 0)
(-0.0149279 0.00682705 0)
(-0.0158943 0.00660347 0)
(-0.0168272 0.00635412 0)
(-0.0177275 0.00607683 0)
(-0.0185869 0.00577024 0)
(-0.0194046 0.00543253 0)
(-0.0201728 0.00506252 0)
(-0.0208891 0.00465893 0)
(-0.021546 0.00422107 0)
(-0.0221399 0.00374851 0)
(-0.0226637 0.00324137 0)
(-0.023113 0.00270041 0)
(-0.0234809 0.00212692 0)
(-0.0237632 0.00152313 0)
(-0.0239536 0.000891808 0)
(-0.0240481 0.00023691 0)
(-0.0240421 -0.000437225 0)
(-0.0239325 -0.00112484 0)
(-0.0237167 -0.00182012 0)
(-0.0233936 -0.00251574 0)
(-0.022963 -0.00320483 0)
(-0.0224265 -0.00387907 0)
(-0.0217869 -0.0045313 0)
(-0.0210486 -0.00515306 0)
(-0.0202178 -0.00573796 0)
(-0.0193014 -0.00627843 0)
(-0.0183085 -0.00676999 0)
(-0.0172479 -0.00720696 0)
(-0.0161312 -0.00758762 0)
(-0.0149675 -0.00790869 0)
(-0.0137696 -0.00817147 0)
(-0.0125458 -0.0083746 0)
(-0.0113094 -0.00852113 0)
(-0.0100663 -0.00860922 0)
(-0.00883041 -0.00863962 0)
(-0.00760535 -0.00860387 0)
(-0.0064078 -0.00849192 0)
(-0.00524099 -0.00827758 0)
(-0.0041301 -0.007928 0)
(-0.00308286 -0.00738981 0)
(-0.00214116 -0.00660877 0)
(-0.00132081 -0.00552934 0)
(-0.000681817 -0.00414238 0)
(-0.00023312 -0.00250457 0)
(-2.32842e-05 -0.000786635 0)
(-7.92675e-05 0.002045 0)
(-0.00054212 0.00483189 0)
(-0.00131101 0.00663891 0)
(-0.00222495 0.00775246 0)
(-0.00326327 0.00839429 0)
(-0.0043367 0.00873286 0)
(-0.00545358 0.00888107 0)
(-0.00656635 0.00891614 0)
(-0.00769147 0.00888204 0)
(-0.00880108 0.00880607 0)
(-0.00991016 0.00869989 0)
(-0.011 0.00857035 0)
(-0.0120816 0.00841809 0)
(-0.013141 0.00824363 0)
(-0.0141851 0.00804493 0)
(-0.0152028 0.00782084 0)
(-0.0161979 0.00756887 0)
(-0.0171608 0.00728738 0)
(-0.0180929 0.00697396 0)
(-0.0189854 0.00662685 0)
(-0.0198376 0.00624395 0)
(-0.0206414 0.00582369 0)
(-0.021394 0.00536457 0)
(-0.0220876 0.00486555 0)
(-0.0227181 0.00432606 0)
(-0.0232779 0.003746 0)
(-0.0237619 0.00312613 0)
(-0.0241625 0.00246774 0)
(-0.0244746 0.00177331 0)
(-0.0246911 0.00104588 0)
(-0.0248072 0.000289994 0)
(-0.0248172 -0.000489375 0)
(-0.0247173 -0.00128549 0)
(-0.024504 -0.00209152 0)
(-0.0241756 -0.00289875 0)
(-0.0237315 -0.00369899 0)
(-0.0231729 -0.0044822 0)
(-0.0225027 -0.00523972 0)
(-0.0217256 -0.00596124 0)
(-0.0208483 -0.00663899 0)
(-0.0198789 -0.00726368 0)
(-0.0188275 -0.00782985 0)
(-0.0177045 -0.00833048 0)
(-0.0165228 -0.00876364 0)
(-0.0152936 -0.00912528 0)
(-0.0140312 -0.00941728 0)
(-0.0127458 -0.00963808 0)
(-0.0114517 -0.00979196 0)
(-0.0101566 -0.00987696 0)
(-0.00887505 -0.0098951 0)
(-0.00761171 -0.00983685 0)
(-0.00638334 -0.00969215 0)
(-0.00519401 -0.0094312 0)
(-0.0040685 -0.00901821 0)
(-0.00301534 -0.00839235 0)
(-0.00207561 -0.00749393 0)
(-0.00126565 -0.00625985 0)
(-0.0006428 -0.00468231 0)
(-0.000213984 -0.0028257 0)
(-1.98517e-05 -0.000885352 0)
(-8.04241e-05 0.00231925 0)
(-0.000549626 0.00546472 0)
(-0.00132855 0.00749667 0)
(-0.00225472 0.00874443 0)
(-0.00330708 0.00946216 0)
(-0.00439547 0.00983992 0)
(-0.00552844 0.0100058 0)
(-0.00665797 0.0100456 0)
(-0.00780103 0.010009 0)
(-0.00892951 0.00992604 0)
(-0.0100589 0.00980987 0)
(-0.0111705 0.0096677 0)
(-0.0122755 0.00950048 0)
(-0.0133599 0.00930846 0)
(-0.0144311 0.00908952 0)
(-0.0154778 0.0088421 0)
(-0.016504 0.00856351 0)
(-0.0175002 0.00825166 0)
(-0.0184675 0.00790385 0)
(-0.0193972 0.00751787 0)
(-0.0202885 0.00709128 0)
(-0.0211328 0.00662205 0)
(-0.0219274 0.00610834 0)
(-0.0226637 0.0055487 0)
(-0.0233373 0.00494228 0)
(-0.0239397 0.0042887 0)
(-0.0244653 0.00358859 0)
(-0.0249055 0.00284315 0)
(-0.0252543 0.00205504 0)
(-0.0255035 0.0012275 0)
(-0.0256471 0.000365638 0)
(-0.0256783 -0.000524941 0)
(-0.0255924 -0.00143645 0)
(-0.0253846 -0.00236096 0)
(-0.0250525 -0.00328819 0)
(-0.0245947 -0.00420842 0)
(-0.0240123 -0.0051096 0)
(-0.0233078 -0.00598131 0)
(-0.0224866 -0.006811 0)
(-0.0215557 -0.0075892 0)
(-0.0205245 -0.00830451 0)
(-0.0194045 -0.00895027 0)
(-0.0182082 -0.00951783 0)
(-0.0169501 -0.0100049 0)
(-0.015644 -0.0104066 0)
(-0.0143059 -0.0107255 0)
(-0.0129485 -0.0109598 0)
(-0.0115877 -0.0111154 0)
(-0.0102332 -0.0111905 0)
(-0.00890004 -0.0111887 0)
(-0.00759451 -0.0110996 0)
(-0.00633325 -0.0109136 0)
(-0.00512124 -0.0105972 0)
(-0.00398257 -0.0101121 0)
(-0.00292656 -0.00938996 0)
(-0.00199292 -0.00836598 0)
(-0.00119832 -0.0069702 0)
(-0.000596608 -0.00519774 0)
(-0.000192076 -0.00312335 0)
(-1.62464e-05 -0.000970944 0)
(-8.1227e-05 0.00259517 0)
(-0.000556346 0.0061031 0)
(-0.00134519 0.00836284 0)
(-0.00228338 0.00974692 0)
(-0.00334974 0.0105421 0)
(-0.00445311 0.0109604 0)
(-0.00560241 0.0111451 0)
(-0.00674913 0.0111909 0)
(-0.00791076 0.0111534 0)
(-0.00905897 0.0110649 0)
(-0.0102098 0.0109405 0)
(-0.0113444 0.0107876 0)
(-0.0124744 0.0106075 0)
(-0.0135859 0.0104001 0)
(-0.0146865 0.0101633 0)
(-0.0157649 0.00989496 0)
(-0.0168254 0.0095922 0)
(-0.0178583 0.00925242 0)
(-0.018865 0.0088726 0)
(-0.0198365 0.00844997 0)
(-0.020772 0.00798169 0)
(-0.0216626 0.00746517 0)
(-0.0225053 0.00689812 0)
(-0.023291 0.00627858 0)
(-0.0240148 0.0056053 0)
(-0.0246673 0.00487745 0)
(-0.0252422 0.00409546 0)
(-0.0257298 0.00326029 0)
(-0.0261229 0.00237467 0)
(-0.026412 0.00144196 0)
(-0.02659 0.000467799 0)
(-0.0266484 -0.000541589 0)
(-0.0265813 -0.0015773 0)
(-0.0263823 -0.0026302 0)
(-0.0260484 -0.00368823 0)
(-0.0255768 -0.0047399 0)
(-0.0249682 -0.00577077 0)
(-0.0242249 -0.00676829 0)
(-0.0233526 -0.00771721 0)
(-0.0223591 -0.00860595 0)
(-0.0212554 -0.00942049 0)
(-0.0200543 -0.0101526 0)
(-0.0187709 -0.0107917 0)
(-0.017422 -0.0113349 0)
(-0.0160246 -0.0117763 0)
(-0.0145969 -0.0121193 0)
(-0.0131547 -0.0123621 0)
(-0.0117158 -0.0125126 0)
(-0.0102924 -0.0125691 0)
(-0.0089004 -0.0125376 0)
(-0.0075478 -0.0124071 0)
(-0.00625102 -0.0121688 0)
(-0.00501603 -0.0117859 0)
(-0.00386585 -0.0112176 0)
(-0.00281049 -0.0103883 0)
(-0.0018878 -0.00922862 0)
(-0.00111446 -0.00766255 0)
(-0.000540043 -0.00569018 0)
(-0.000165468 -0.00339922 0)
(-1.18712e-05 -0.00104568 0)
(-8.251e-05 0.0028775 0)
(-0.000563951 0.00675364 0)
(-0.00136277 0.00924425 0)
(-0.00231301 0.0107666 0)
(-0.00339329 0.0116405 0)
(-0.0045117 0.0121004 0)
(-0.00567742 0.0123048 0)
(-0.00684164 0.0123576 0)
(-0.00802231 0.0123201 0)
(-0.00919098 0.0122275 0)
(-0.0103642 0.0120963 0)
(-0.011523 0.0119344 0)
(-0.0126797 0.0117433 0)
(-0.0138202 0.0115227 0)
(-0.0149526 0.0112702 0)
(-0.0160654 0.0109834 0)
(-0.0171634 0.010659 0)
(-0.0182368 0.010294 0)
(-0.0192872 0.00988477 0)
(-0.0203054 0.00942808 0)
(-0.0212905 0.00892056 0)
(-0.0222334 0.00835894 0)
(-0.0231308 0.0077404 0)
(-0.0239731 0.00706228 0)
(-0.0247548 0.0063228 0)
(-0.0254656 0.00552055 0)
(-0.0260983 0.00465555 0)
(-0.026642 0.00372837 0)
(-0.0270881 0.00274166 0)
(-0.0274256 0.00169878 0)
(-0.0276458 0.000605813 0)
(-0.0277384 -0.000530448 0)
(-0.0276959 -0.00169993 0)
(-0.0275101 -0.0028922 0)
(-0.0271766 -0.00409319 0)
(-0.0266912 -0.00528934 0)
(-0.0260541 -0.00646343 0)
(-0.0252669 -0.00760032 0)
(-0.0243359 -0.00868144 0)
(-0.0232693 -0.00969259 0)
(-0.0220802 -0.0106165 0)
(-0.0207832 -0.0114429 0)
(-0.0193967 -0.0121586 0)
(-0.01794 -0.0127603 0)
(-0.0164342 -0.0132405 0)
(-0.0149004 -0.0136038 0)
(-0.0133585 -0.0138484 0)
(-0.0118285 -0.0139846 0)
(-0.0103257 -0.0140115 0)
(-0.00886712 -0.0139381 0)
(-0.00746273 -0.013753 0)
(-0.00612848 -0.0134492 0)
(-0.00487131 -0.0129865 0)
(-0.00371265 -0.0123225 0)
(-0.00266294 -0.0113741 0)
(-0.00175746 -0.0100682 0)
(-0.00101258 -0.00832336 0)
(-0.000472563 -0.00614699 0)
(-0.000134302 -0.00364272 0)
(-6.9413e-06 -0.0011034 0)
(-8.33804e-05 0.00315963 0)
(-0.000570876 0.00740701 0)
(-0.00137994 0.0101311 0)
(-0.00234251 0.0117938 0)
(-0.00343722 0.012748 0)
(-0.0045712 0.0132509 0)
(-0.00575407 0.0134765 0)
(-0.0069366 0.013538 0)
(-0.00813729 0.0135024 0)
(-0.00932757 0.0134077 0)
(-0.0105245 0.0132721 0)
(-0.0117092 0.0131038 0)
(-0.0128944 0.0129046 0)
(-0.0140659 0.0126738 0)
(-0.0152325 0.0124089 0)
(-0.0163827 0.012107 0)
(-0.0175215 0.0117646 0)
(-0.0186392 0.0113778 0)
(-0.0197375 0.0109428 0)
(-0.0208074 0.0104556 0)
(-0.0218478 0.00991218 0)
(-0.0228494 0.00930849 0)
(-0.0238086 0.00864103 0)
(-0.0247152 0.00790629 0)
(-0.0255633 0.00710182 0)
(-0.0263414 0.00622535 0)
(-0.0270415 0.00527637 0)
(-0.0276511 0.00425481 0)
(-0.0281603 0.00316308 0)
(-0.0285561 0.00200434 0)
(-0.028828 0.000785005 0)
(-0.0289635 -0.000487649 0)
(-0.0289529 -0.00180235 0)
(-0.0287859 -0.00314726 0)
(-0.0284563 -0.00450606 0)
(-0.0279579 -0.0058628 0)
(-0.02729 -0.00719694 0)
(-0.0264533 -0.00849016 0)
(-0.0254547 -0.00971987 0)
(-0.0243028 -0.0108685 0)
(-0.0230131 -0.0119147 0)
(-0.0216023 -0.0128456 0)
(-0.0200929 -0.0136448 0)
(-0.0185076 -0.0143079 0)
(-0.0168726 -0.0148259 0)
(-0.0152126 -0.0152047 0)
(-0.0135529 -0.0154424 0)
(-0.0119159 -0.015553 0)
(-0.0103214 -0.0155362 0)
(-0.00878734 -0.0154054 0)
(-0.00732602 -0.0151492 0)
(-0.00595266 -0.0147635 0)
(-0.00467502 -0.0142048 0)
(-0.00351222 -0.0134299 0)
(-0.00247483 -0.0123481 0)
(-0.00159464 -0.0108838 0)
(-0.000887319 -0.00895067 0)
(-0.000390683 -0.00656615 0)
(-9.67824e-05 -0.00385286 0)
(-1.00465e-06 -0.00114494 0)
(-8.47338e-05 0.00345051 0)
(-0.000578574 0.00807587 0)
(-0.00139777 0.0110369 0)
(-0.0023726 0.0128421 0)
(-0.00348163 0.0138781 0)
(-0.00463121 0.0144253 0)
(-0.00583129 0.0146732 0)
(-0.00703237 0.0147446 0)
(-0.00825346 0.0147123 0)
(-0.00946595 0.0146171 0)
(-0.0106875 0.0144789 0)
(-0.0118991 0.0143063 0)
(-0.0131141 0.0141013 0)
(-0.0143186 0.0138629 0)
(-0.0155215 0.0135886 0)
(-0.0167117 0.0132748 0)
(-0.0178945 0.0129176 0)
(-0.0190603 0.0125128 0)
(-0.0202111 0.0120557 0)
(-0.0213377 0.0115417 0)
(-0.0224393 0.010966 0)
(-0.0235063 0.0103238 0)
(-0.0245349 0.00961053 0)
(-0.0255143 0.00882177 0)
(-0.026438 0.00795416 0)
(-0.0272937 0.00700436 0)
(-0.028072 0.00597103 0)
(-0.028759 0.00485321 0)
(-0.0293431 0.00365281 0)
(-0.029809 0.00237251 0)
(-0.0301441 0.0010189 0)
(-0.0303331 -0.00040044 0)
(-0.0303639 -0.00187305 0)
(-0.0302232 -0.00338565 0)
(-0.0299023 -0.00491939 0)
(-0.0293928 -0.00645557 0)
(-0.0286925 -0.00796973 0)
(-0.0278007 -0.00943968 0)
(-0.0267246 -0.0108378 0)
(-0.0254734 -0.0121424 0)
(-0.0240653 -0.0133268 0)
(-0.0225195 -0.0143747 0)
(-0.0208636 -0.0152656 0)
(-0.0191247 -0.0159937 0)
(-0.0173354 -0.0165478 0)
(-0.0155253 -0.0169357 0)
(-0.0137259 -0.0171554 0)
(-0.0119639 -0.0172253 0)
(-0.0102635 -0.0171469 0)
(-0.00864444 -0.016939 0)
(-0.00712149 -0.0165912 0)
(-0.00570862 -0.0161034 0)
(-0.00441413 -0.0154295 0)
(-0.00325389 -0.0145261 0)
(-0.00223797 -0.0132953 0)
(-0.0013936 -0.0116596 0)
(-0.000735109 -0.00952869 0)
(-0.000292588 -0.00693301 0)
(-5.2412e-05 -0.00401755 0)
(5.87524e-06 -0.00116356 0)
(-8.55214e-05 0.00373867 0)
(-0.000585216 0.00874402 0)
(-0.00141463 0.0119445 0)
(-0.00240185 0.013894 0)
(-0.00352557 0.0150136 0)
(-0.00469112 0.0156067 0)
(-0.00590895 0.0158788 0)
(-0.00712917 0.015962 0)
(-0.00837138 0.0159353 0)
(-0.00960689 0.0158422 0)
(-0.0108539 0.0157044 0)
(-0.0120937 0.0155307 0)
(-0.01334 0.0153236 0)
(-0.014579 0.0150816 0)
(-0.0158204 0.0148021 0)
(-0.017053 0.0144809 0)
(-0.0182828 0.0141139 0)
(-0.0195002 0.0136959 0)
(-0.0207077 0.0132219 0)
(-0.0218961 0.0126862 0)
(-0.0230648 0.0120834 0)
(-0.024204 0.0114073 0)
(-0.0253099 0.0106528 0)
(-0.0263711 0.00981389 0)
(-0.0273806 0.00888617 0)
(-0.028325 0.00786494 0)
(-0.0291938 0.00674774 0)
(-0.0299714 0.00553237 0)
(-0.0306441 0.0042199 0)
(-0.0311943 0.00281223 0)
(-0.0316066 0.00131579 0)
(-0.0318624 -0.000261721 0)
(-0.0319466 -0.00190679 0)
(-0.0318421 -0.00360464 0)
(-0.0315373 -0.00533368 0)
(-0.0310202 -0.00707202 0)
(-0.0302868 -0.00879057 0)
(-0.0293341 -0.0104624 0)
(-0.0281696 -0.0120538 0)
(-0.0268029 -0.0135373 0)
(-0.025255 -0.0148801 0)
(-0.0235486 -0.0160611 0)
(-0.0217174 -0.0170542 0)
(-0.019794 -0.0178519 0)
(-0.0178194 -0.0184402 0)
(-0.0158295 -0.0188286 0)
(-0.0138642 -0.0190159 0)
(-0.0119547 -0.019026 0)
(-0.0101319 -0.0188629 0)
(-0.00841704 -0.018553 0)
(-0.00682781 -0.0180878 0)
(-0.00537628 -0.0174731 0)
(-0.00407074 -0.0166604 0)
(-0.00292247 -0.015608 0)
(-0.00194019 -0.0142101 0)
(-0.00114514 -0.0123886 0)
(-0.000549598 -0.0100502 0)
(-0.000174426 -0.00724119 0)
(6.06853e-07 -0.00413264 0)
(1.40752e-05 -0.00115859 0)
(-8.68368e-05 0.00403816 0)
(-0.00059243 0.00943133 0)
(-0.00143143 0.0128752 0)
(-0.00243051 0.0149715 0)
(-0.00356827 0.0161764 0)
(-0.00474934 0.0168168 0)
(-0.00598445 0.0171143 0)
(-0.00722353 0.0172108 0)
(-0.00848668 0.0171911 0)
(-0.00974528 0.0171019 0)
(-0.0110181 0.0169665 0)
(-0.0122865 0.0167942 0)
(-0.0135649 0.0165877 0)
(-0.0148397 0.0163453 0)
(-0.0161211 0.0160641 0)
(-0.0173984 0.0157394 0)
(-0.0186779 0.0153668 0)
(-0.0199504 0.0149403 0)
(-0.0212187 0.0144544 0)
(-0.0224741 0.0139023 0)
(-0.023716 0.0132777 0)
(-0.0249347 0.0125733 0)
(-0.0261263 0.0117826 0)
(-0.0272792 0.0108982 0)
(-0.0283857 0.00991435 0)
(-0.0294314 0.00882456 0)
(-0.0304047 0.00762496 0)
(-0.0312879 0.0063116 0)
(-0.0320656 0.00488434 0)
(-0.0327169 0.00334375 0)
(-0.0332236 0.00169577 0)
(-0.0335629 -5.22236e-05 0)
(-0.033716 -0.00188584 0)
(-0.0336611 -0.00378892 0)
(-0.0333825 -0.00573693 0)
(-0.0328639 -0.00770436 0)
(-0.032098 -0.00965671 0)
(-0.0310793 -0.0115612 0)
(-0.0298147 -0.0133765 0)
(-0.0283137 -0.0150682 0)
(-0.026601 -0.0165949 0)
(-0.0247031 -0.0179293 0)
(-0.0226616 -0.0190383 0)
(-0.0205159 -0.0199113 0)
(-0.0183181 -0.020531 0)
(-0.0161119 -0.020909 0)
(-0.0139484 -0.021045 0)
(-0.011865 -0.0209704 0)
(-0.00990051 -0.020693 0)
(-0.00807811 -0.0202494 0)
(-0.00641892 -0.0196341 0)
(-0.00493191 -0.0188619 0)
(-0.00362451 -0.0178825 0)
(-0.00250158 -0.0166572 0)
(-0.00156916 -0.0150722 0)
(-0.000840694 -0.0130503 0)
(-0.000325436 -0.0104951 0)
(-3.33842e-05 -0.00747244 0)
(6.32655e-05 -0.0041835 0)
(2.3656e-05 -0.00112229 0)
(-8.73625e-05 0.0043313 0)
(-0.000597991 0.0101127 0)
(-0.00144635 0.013802 0)
(-0.00245704 0.0160471 0)