/*--------------------------------*- C++ -*----------------------------------*\
| =========                 |                                                 |
| \\      /  F ield         | OpenFOAM: The Open Source CFD Toolbox           |
|  \\    /   O peration     | Version:  2406                                  |
|   \\  /    A nd           | Website:  www.openfoam.com                      |
|    \\/     M anipulation  |                                                 |
\*---------------------------------------------------------------------------*/
FoamFile
{
    version     2.0;
    format      ascii;
    arch        "LSB;label=32;scalar=64";
    class       volVectorField;
    location    "37";
    object      Uold;
}
// * * * * * * * * * * * * * * * * * * * * * * * * * * * * * * * * * * * * * //

dimensions      [0 1 -1 0 0 0 0];

internalField   nonuniform List<vector> 
900
(
(0.000267786 -0.000490783 0)
(0.00345177 -0.00119958 0)
(0.00708459 -0.000953 0)
(0.00857866 -0.00053164 0)
(0.00902691 -0.000469607 0)
(0.00883838 -0.000764167 0)
(0.00874751 -0.00118132 0)
(0.0085606 -0.00164518 0)
(0.00756868 -0.00298935 0)
(0.00326918 -0.00477379 0)
(-0.00669112 -0.00327226 0)
(-0.0235769 0.00290712 0)
(-0.0465037 0.00940391 0)
(-0.0712131 0.0123167 0)
(-0.0933812 0.0119777 0)
(-0.110641 0.00992214 0)
(-0.121604 0.00687858 0)
(-0.125297 0.00323685 0)
(-0.121304 -0.000752865 0)
(-0.109097 -0.00484873 0)
(-0.0892218 -0.00869786 0)
(-0.0619831 -0.0117198 0)
(-0.0304835 -0.0130845 0)
(0.00258241 -0.0117429 0)
(0.0292667 -0.00650473 0)
(0.0438276 0.000992919 0)
(0.0403473 0.00705212 0)
(0.0262651 0.0074234 0)
(0.0124287 0.00501393 0)
(0.00157084 0.00196189 0)
(0.00113709 -0.00321208 0)
(0.00663915 -0.00571274 0)
(0.0119895 -0.0041292 0)
(0.0136975 -0.00142981 0)
(0.0129599 0.000252742 0)
(0.00969924 0.00105602 0)
(0.00349837 0.00150801 0)
(-0.00906733 0.00283883 0)
(-0.0312469 0.00839832 0)
(-0.0630685 0.0193815 0)
(-0.100117 0.0305758 0)
(-0.135599 0.0373102 0)
(-0.165208 0.0385309 0)
(-0.188062 0.0348055 0)
(-0.204481 0.0277109 0)
(-0.21444 0.0185406 0)
(-0.217772 0.00802938 0)
(-0.214241 -0.00334383 0)
(-0.203655 -0.015212 0)
(-0.185667 -0.0271435 0)
(-0.160389 -0.0382391 0)
(-0.127957 -0.0471653 0)
(-0.090006 -0.0514716 0)
(-0.0489404 -0.0484518 0)
(-0.0101169 -0.034659 0)
(0.0200793 -0.0123265 0)
(0.032807 0.0108089 0)
(0.0275726 0.0201757 0)
(0.0160431 0.0199999 0)
(0.00238259 0.0120461 0)
(0.00197599 -0.00820976 0)
(0.0079844 -0.0121231 0)
(0.0120534 -0.00796275 0)
(0.0109703 -0.00155752 0)
(0.00559536 0.00351413 0)
(-0.00604177 0.00862771 0)
(-0.0272694 0.0175698 0)
(-0.0606786 0.0331791 0)
(-0.102905 0.0509582 0)
(-0.145115 0.0635997 0)
(-0.181283 0.0686627 0)
(-0.209923 0.0675668 0)
(-0.231331 0.0614219 0)
(-0.246495 0.0510977 0)
(-0.256405 0.0379074 0)
(-0.26155 0.0227964 0)
(-0.262236 0.0063514 0)
(-0.258387 -0.0111786 0)
(-0.249798 -0.0294811 0)
(-0.235915 -0.0482848 0)
(-0.216171 -0.0663549 0)
(-0.189887 -0.0821965 0)
(-0.15664 -0.0918725 0)
(-0.11723 -0.0917172 0)
(-0.0731237 -0.075014 0)
(-0.0304442 -0.0419048 0)
(0.0025194 -0.00010159 0)
(0.0109539 0.0235906 0)
(0.00893412 0.0301838 0)
(0.000264897 0.020008 0)
(0.00254144 -0.013123 0)
(0.00680035 -0.0158612 0)
(0.00634322 -0.00703287 0)
(-0.00116723 0.00505719 0)
(-0.0165223 0.0173552 0)
(-0.043031 0.0340343 0)
(-0.0814952 0.0562706 0)
(-0.12587 0.0783832 0)
(-0.167014 0.0927949 0)
(-0.20047 0.0979694 0)
(-0.226223 0.0955936 0)
(-0.244879 0.0874912 0)
(-0.257508 0.0751969 0)
(-0.265477 0.0599814 0)
(-0.270004 0.042883 0)
(-0.271825 0.024441 0)
(-0.27144 0.00490934 0)
(-0.26892 -0.0158525 0)
(-0.264192 -0.0377629 0)
(-0.256679 -0.0610211 0)
(-0.245621 -0.0844573 0)
(-0.229626 -0.10712 0)
(-0.20691 -0.124354 0)
(-0.175869 -0.132425 0)
(-0.134433 -0.121202 0)
(-0.085397 -0.0879579 0)
(-0.0327665 -0.0297583 0)
(-0.00187126 0.0135485 0)
(0.00324294 0.0311441 0)
(-0.00143371 0.0213644 0)
(0.00229949 -0.017577 0)
(0.0022137 -0.0160413 0)
(-0.00554073 -2.65112e-06 0)
(-0.0224307 0.0212451 0)
(-0.0498784 0.045342 0)
(-0.0879154 0.0734771 0)
(-0.130767 0.100262 0)
(-0.169842 0.118612 0)
(-0.20051 0.125352 0)
(-0.222677 0.122474 0)
(-0.23749 0.112779 0)
(-0.246265 0.0986452 0)
(-0.250778 0.0818422 0)
(-0.252355 0.0634261 0)
(-0.2523 0.0441343 0)
(-0.251252 0.0241227 0)
(-0.249868 0.00341873 0)
(-0.248242 -0.0184742 0)
(-0.246641 -0.041648 0)
(-0.244623 -0.0668774 0)
(-0.241886 -0.0932857 0)
(-0.236825 -0.121004 0)
(-0.2275 -0.145608 0)
(-0.210317 -0.164432 0)
(-0.180856 -0.165506 0)
(-0.136191 -0.143581 0)
(-0.075838 -0.0834397 0)
(-0.0154985 -0.0127888 0)
(0.00313461 0.0299135 0)
(-0.00159888 0.0215998 0)
(0.000488443 -0.0175641 0)
(-0.00668621 -0.0079474 0)
(-0.023356 0.0177637 0)
(-0.0492605 0.0495309 0)
(-0.0842772 0.0829167 0)
(-0.123812 0.114994 0)
(-0.16067 0.138201 0)
(-0.188918 0.148086 0)
(-0.207808 0.145674 0)
(-0.218932 0.135111 0)
(-0.224019 0.119361 0)
(-0.224957 0.100971 0)
(-0.223487 0.0814799 0)
(-0.220793 0.0616894 0)
(-0.217942 0.0419858 0)
(-0.215282 0.0221737 0)
(-0.213346 0.00211256 0)
(-0.212042 -0.0189618 0)
(-0.211865 -0.0411575 0)
(-0.212486 -0.0657283 0)
(-0.214432 -0.0920406 0)
(-0.216517 -0.121579 0)
(-0.218003 -0.150789 0)
(-0.214946 -0.179339 0)
(-0.202459 -0.195414 0)
(-0.173586 -0.193263 0)
(-0.12177 -0.150157 0)
(-0.0493938 -0.0656971 0)
(0.00634611 0.0176326 0)
(-0.00209568 0.0228973 0)
(-0.00223695 -0.0114753 0)
(-0.0168952 0.0077969 0)
(-0.0411131 0.042519 0)
(-0.0720394 0.0821417 0)
(-0.107989 0.119785 0)
(-0.142458 0.149738 0)
(-0.169803 0.165229 0)
(-0.187105 0.165689 0)
(-0.196218 0.155307 0)
(-0.19908 0.138648 0)
(-0.197893 0.118788 0)
(-0.194596 0.0981168 0)
(-0.190673 0.077698 0)
(-0.186911 0.0578928 0)
(-0.183927 0.0386823 0)
(-0.181612 0.0195507 0)
(-0.18025 0.000308093 0)
(-0.179412 -0.0199183 0)
(-0.17966 -0.0409744 0)
(-0.180505 -0.0642682 0)
(-0.183103 -0.088915 0)
(-0.186597 -0.117398 0)
(-0.192006 -0.146826 0)
(-0.196338 -0.179978 0)
(-0.19682 -0.206715 0)
(-0.185755 -0.224638 0)
(-0.152254 -0.207157 0)
(-0.0942749 -0.142424 0)
(-0.00648699 -0.0162829 0)
(0.0041373 0.0254372 0)
(-0.0050371 0.00161147 0)
(-0.0258013 0.0311691 0)
(-0.054471 0.0729729 0)
(-0.0861474 0.116549 0)
(-0.118766 0.153302 0)
(-0.145636 0.176842 0)
(-0.163606 0.182875 0)
(-0.172196 0.174611 0)
(-0.174438 0.157766 0)
(-0.172286 0.136925 0)
(-0.168202 0.114991 0)
(-0.163725 0.0938403 0)
(-0.159888 0.0738691 0)
(-0.156959 0.0549633 0)
(-0.155128 0.0367305 0)
(-0.15395 0.0184438 0)
(-0.153599 -4.98567e-05 0)
(-0.15342 -0.019686 0)
(-0.154091 -0.039992 0)
(-0.154822 -0.0624941 0)
(-0.157123 -0.0857821 0)
(-0.159887 -0.112912 0)
(-0.165349 -0.140773 0)
(-0.171081 -0.174624 0)
(-0.177377 -0.205849 0)
(-0.177152 -0.237459 0)
(-0.1621 -0.242281 0)
(-0.12367 -0.211043 0)
(-0.0442117 -0.0807954 0)
(0.0184831 0.0207646 0)
(-0.00663873 0.0191853 0)
(-0.0306281 0.0572844 0)
(-0.0604221 0.102654 0)
(-0.0898662 0.146376 0)
(-0.117328 0.179076 0)
(-0.136745 0.194508 0)
(-0.147417 0.191729 0)
(-0.150193 0.176522 0)
(-0.148646 0.155372 0)
(-0.14443 0.132392 0)
(-0.140061 0.110197 0)
(-0.136286 0.0897593 0)
(-0.133812 0.0709155 0)
(-0.132315 0.0530786 0)
(-0.131842 0.0356981 0)
(-0.131684 0.0179544 0)
(-0.132126 -0.000133662 0)
(-0.132301 -0.0195358 0)
(-0.133126 -0.0394062 0)
(-0.133432 -0.061435 0)
(-0.135101 -0.0835951 0)
(-0.136489 -0.10948 0)
(-0.140758 -0.135286 0)
(-0.145373 -0.168226 0)
(-0.153284 -0.200334 0)
(-0.158045 -0.239673 0)
(-0.155599 -0.261427 0)
(-0.132184 -0.259037 0)
(-0.0784429 -0.161512 0)
(0.0103894 0.000906736 0)
(-0.00703658 0.0388757 0)
(-0.0316109 0.0851908 0)
(-0.0601836 0.132107 0)
(-0.0858883 0.173542 0)
(-0.107829 0.200106 0)
(-0.120984 0.207036 0)
(-0.126509 0.196405 0)
(-0.125959 0.175978 0)
(-0.122832 0.152093 0)
(-0.118509 0.128427 0)
(-0.115165 0.10691 0)
(-0.112831 0.0876218 0)
(-0.111962 0.0699502 0)
(-0.111813 0.0529738 0)
(-0.1125 0.0361618 0)
(-0.113139 0.0186471 0)
(-0.114261 0.000669601 0)
(-0.114771 -0.0188461 0)
(-0.1159 -0.0386823 0)
(-0.116003 -0.0607886 0)
(-0.117344 -0.0824267 0)
(-0.117476 -0.10765 0)
(-0.120273 -0.131472 0)
(-0.122502 -0.162537 0)
(-0.12956 -0.192706 0)
(-0.135575 -0.235213 0)
(-0.140731 -0.267848 0)
(-0.130084 -0.288019 0)
(-0.0939253 -0.224128 0)
(-0.0207544 -0.04595 0)
(-0.006206 0.0576924 0)
(-0.0290476 0.110477 0)
(-0.0544761 0.156667 0)
(-0.0757232 0.193962 0)
(-0.0926335 0.214004 0)
(-0.101162 0.213189 0)
(-0.103745 0.196663 0)
(-0.101838 0.172825 0)
(-0.0987826 0.147857 0)
(-0.095465 0.124656 0)
(-0.0936872 0.104454 0)
(-0.0928525 0.0864682 0)
(-0.0933576 0.0698717 0)
(-0.0941539 0.0535181 0)
(-0.0955953 0.0370586 0)
(-0.0966181 0.0195846 0)
(-0.098105 0.00161384 0)
(-0.0986751 -0.0180998 0)
(-0.100007 -0.0379553 0)
(-0.0999413 -0.0603149 0)
(-0.101301 -0.0817691 0)
(-0.100704 -0.107028 0)
(-0.10272 -0.12976 0)
(-0.102673 -0.159517 0)
(-0.107786 -0.1867 0)
(-0.11173 -0.22881 0)
(-0.119843 -0.266429 0)
(-0.116753 -0.305717 0)
(-0.0928278 -0.27096 0)
(-0.0360147 -0.113601 0)
(-0.00460962 0.0741784 0)
(-0.0241622 0.133634 0)
(-0.0456676 0.178652 0)
(-0.0625397 0.211776 0)
(-0.0751702 0.225523 0)
(-0.0805121 0.218321 0)
(-0.0814876 0.19719 0)
(-0.0793799 0.171152 0)
(-0.0770837 0.145807 0)
(-0.0751052 0.123409 0)
(-0.0747688 0.104375 0)
(-0.0751439 0.0873235 0)
(-0.0766269 0.0713468 0)
(-0.0780188 0.0551902 0)
(-0.0799452 0.0387573 0)
(-0.0811472 0.0210598 0)
(-0.0828864 0.00292236 0)
(-0.0834128 -0.0171461 0)
(-0.0849305 -0.0371128 0)
(-0.0846689 -0.0598429 0)
(-0.0861985 -0.0812167 0)
(-0.0851309 -0.106764 0)
(-0.0870435 -0.128907 0)
(-0.0855125 -0.158176 0)
(-0.0893622 -0.183005 0)
(-0.0904731 -0.223753 0)
(-0.098678 -0.26236 0)
(-0.0980436 -0.314923 0)
(-0.0827254 -0.305954 0)
(-0.0340696 -0.175343 0)
(-0.00244354 0.0864256 0)
(-0.0176891 0.151525 0)
(-0.0345934 0.194839 0)
(-0.0472875 0.223396 0)
(-0.0564405 0.231867 0)
(-0.0597446 0.219519 0)
(-0.0602773 0.195472 0)
(-0.0587156 0.168352 0)
(-0.057614 0.143484 0)
(-0.0569513 0.122224 0)
(-0.0578205 0.104413 0)
(-0.0590473 0.0881944 0)
(-0.0611821 0.0727261 0)
(-0.062882 0.0566816 0)
(-0.0651006 0.0402487 0)
(-0.0663071 0.0223189 0)
(-0.0682016 0.00404765 0)
(-0.0685616 -0.0163579 0)
(-0.0702341 -0.0363863 0)
(-0.0697115 -0.0594889 0)
(-0.0715117 -0.0808146 0)
(-0.0700621 -0.106805 0)
(-0.072281 -0.128698 0)
(-0.0697178 -0.157993 0)
(-0.0730876 -0.180973 0)
(-0.0716529 -0.220225 0)
(-0.0797253 -0.258171 0)
(-0.0800895 -0.321312 0)
(-0.0719524 -0.335173 0)
(-0.0306032 -0.230656 0)
(-0.000151051 0.0944283 0)
(-0.0104917 0.165857 0)
(-0.0228318 0.208186 0)
(-0.0317988 0.233683 0)
(-0.0380864 0.238028 0)
(-0.0401544 0.222353 0)
(-0.0406057 0.19629 0)
(-0.0397828 0.168627 0)
(-0.0396889 0.144156 0)
(-0.0400345 0.123698 0)
(-0.0416962 0.106599 0)
(-0.0434275 0.0907203 0)
(-0.0459438 0.0753424 0)
(-0.0477703 0.059071 0)
(-0.0502009 0.0423954 0)
(-0.0513497 0.024021 0)
(-0.053421 0.00547814 0)
(-0.0535876 -0.0153945 0)
(-0.0554769 -0.0355329 0)
(-0.0546688 -0.0590259 0)
(-0.0568783 -0.0802658 0)
(-0.0551175 -0.10667 0)
(-0.0580628 -0.128468 0)
(-0.0549634 -0.158254 0)
(-0.0587449 -0.180198 0)
(-0.0552665 -0.218044 0)
(-0.0630198 -0.253199 0)
(-0.0628943 -0.322566 0)
(-0.0611574 -0.355493 0)
(-0.0265268 -0.278164 0)
(0.00224096 0.097103 0)
(-0.00301488 0.174087 0)
(-0.0106383 0.216031 0)
(-0.0162173 0.238534 0)
(-0.0201844 0.240154 0)
(-0.0214637 0.222012 0)
(-0.0222638 0.195024 0)
(-0.0222588 0.167314 0)
(-0.0231327 0.143622 0)
(-0.0241682 0.12406 0)
(-0.026317 0.107729 0)
(-0.0282088 0.0922487 0)
(-0.0308825 0.0770681 0)
(-0.0326326 0.060704 0)
(-0.035182 0.0439295 0)
(-0.0361672 0.0252277 0)
(-0.0384218 0.0065284 0)
(-0.0383531 -0.0147282 0)
(-0.0405485 -0.0348874 0)
(-0.0394339 -0.0586761 0)
(-0.042208 -0.0797368 0)
(-0.0401262 -0.106403 0)
(-0.0440589 -0.127998 0)
(-0.0406525 -0.158282 0)
(-0.0456719 -0.179672 0)
(-0.0410837 -0.216978 0)
(-0.049526 -0.249621 0)
(-0.0486868 -0.323248 0)
(-0.0523372 -0.371267 0)
(-0.0228317 -0.318738 0)
(0.0043138 0.0953728 0)
(0.00432127 0.178702 0)
(0.00114596 0.221421 0)
(-0.0013273 0.243261 0)
(-0.00314884 0.24338 0)
(-0.00384874 0.22462 0)
(-0.0047825 0.197245 0)
(-0.00538211 0.169633 0)
(-0.00677374 0.146228 0)
(-0.00810461 0.126963 0)
(-0.0103747 0.110835 0)
(-0.0121499 0.0953044 0)
(-0.0148131 0.0800138 0)
(-0.0163406 0.0632964 0)
(-0.0189834 0.0462524 0)
(-0.0197464 0.0270522 0)
(-0.0222774 0.00809337 0)
(-0.0219949 -0.0136448 0)
(-0.0247106 -0.0338739 0)
(-0.0233623 -0.0579522 0)
(-0.0269964 -0.0788099 0)
(-0.0247024 -0.105637 0)
(-0.0299657 -0.12697 0)
(-0.0264249 -0.157687 0)
(-0.0332141 -0.178659 0)
(-0.0279521 -0.215378 0)
(-0.0377951 -0.244597 0)
(-0.0361105 -0.320158 0)
(-0.0450827 -0.380837 0)
(-0.0196671 -0.353767 0)
(0.00616651 0.0885431 0)
(0.0111623 0.177008 0)
(0.0125201 0.221653 0)
(0.0129401 0.242638 0)
(0.0129683 0.242643 0)
(0.0128675 0.223554 0)
(0.0116675 0.196482 0)
(0.0106322 0.169121 0)
(0.00880747 0.146238 0)
(0.00749385 0.127421 0)
(0.00534798 0.11172 0)
(0.00404753 0.0964078 0)
(0.00164439 0.0812988 0)
(0.00063984 0.0645308 0)
(-0.00195096 0.0475066 0)
(-0.00230862 0.0280822 0)
(-0.00512801 0.00910986 0)
(-0.00456857 -0.012873 0)
(-0.0079883 -0.0329883 0)
(-0.00645364 -0.0571417 0)
(-0.0112393 -0.0776332 0)
(-0.00883766 -0.104388 0)
(-0.0157731 -0.125258 0)
(-0.0122664 -0.156192 0)
(-0.0214007 -0.176918 0)
(-0.016013 -0.213697 0)
(-0.0281672 -0.240261 0)
(-0.025632 -0.316647 0)
(-0.0395405 -0.386963 0)
(-0.0168539 -0.384011 0)
(0.00724416 0.0782657 0)
(0.0172824 0.172232 0)
(0.0229097 0.219775 0)
(0.026296 0.242819 0)
(0.0284556 0.243611 0)
(0.0291713 0.226088 0)
(0.0282677 0.199692 0)
(0.0271344 0.172617 0)
(0.0253159 0.149602 0)
(0.0243247 0.130479 0)
(0.0225605 0.114573 0)
(0.0219731 0.0989826 0)
(0.0199501 0.0837871 0)
(0.019646 0.0667472 0)
(0.0171129 0.0496611 0)
(0.0172694 0.0299339 0)
(0.0140239 0.0109427 0)
(0.0148667 -0.0112677 0)
(0.010455 -0.0312409 0)
(0.0120589 -0.0554046 0)
(0.00573966 -0.0754833 0)
(0.00807303 -0.102057 0)
(-0.000920045 -0.122374 0)
(0.00243664 -0.15328 0)
(-0.00944323 -0.173544 0)
(-0.00413561 -0.210068 0)
(-0.019401 -0.233619 0)
(-0.0161472 -0.309804 0)
(-0.0353158 -0.388622 0)
(-0.0143458 -0.410732 0)
(0.00764107 0.0641039 0)
(0.0220648 0.160963 0)
(0.0321699 0.212679 0)
(0.0384833 0.236807 0)
(0.0425889 0.239766 0)
(0.044418 0.223559 0)
(0.0437448 0.198475 0)
(0.0427995 0.171808 0)
(0.0409863 0.148977 0)
(0.0405764 0.129839 0)
(0.039334 0.114071 0)
(0.039831 0.0986237 0)
(0.0384376 0.0837469 0)
(0.0392357 0.0668919 0)
(0.0369518 0.0501509 0)
(0.0379354 0.0305757 0)
(0.0342903 0.0119558 0)
(0.0355665 -0.0100464 0)
(0.0300146 -0.0295315 0)
(0.0316643 -0.0533474 0)
(0.0235339 -0.0727581 0)
(0.0256743 -0.098867 0)
(0.0142787 -0.118448 0)
(0.0173426 -0.149057 0)
(0.00229723 -0.168869 0)
(0.00731204 -0.205377 0)
(-0.0117385 -0.226655 0)
(-0.00767465 -0.302097 0)
(-0.0322547 -0.387509 0)
(-0.011858 -0.434333 0)
(0.00645731 0.0488427 0)
(0.0252792 0.147556 0)
(0.0396095 0.203573 0)
(0.0493406 0.232414 0)
(0.0561695 0.237888 0)
(0.0596999 0.225069 0)
(0.060193 0.201597 0)
(0.0598788 0.175467 0)
(0.058458 0.152167 0)
(0.0587617 0.132128 0)
(0.0580784 0.115736 0)
(0.0597461 0.0997655 0)
(0.0589535 0.0848945 0)
(0.0609939 0.0679837 0)
(0.0588766 0.0515909 0)
(0.0608166 0.0321874 0)
(0.056604 0.0140811 0)
(0.058366 -0.00758297 0)
(0.0514293 -0.0264048 0)
(0.0530864 -0.0497325 0)
(0.0428408 -0.068359 0)
(0.0447023 -0.093882 0)
(0.0305744 -0.112649 0)
(0.0332816 -0.142711 0)
(0.0146972 -0.161806 0)
(0.0193223 -0.19783 0)
(-0.00427731 -0.216738 0)
(0.000518743 -0.291025 0)
(-0.0301349 -0.382836 0)
(-0.00927749 -0.455598 0)
(0.00406305 0.0324407 0)
(0.0259098 0.127297 0)
(0.0448256 0.188675 0)
(0.0579683 0.219839 0)
(0.0672202 0.229445 0)
(0.0729246 0.219222 0)
(0.0745316 0.19831 0)
(0.0754111 0.173166 0)
(0.0744266 0.150101 0)
(0.0757674 0.129755 0)
(0.075625 0.113182 0)
(0.0787701 0.0972065 0)
(0.0786421 0.0827372 0)
(0.0823173 0.0663289 0)
(0.080468 0.0507218 0)
(0.0837369 0.0320841 0)
(0.0790247 0.0149709 0)
(0.0815426 -0.0057843 0)
(0.0732287 -0.0234943 0)
(0.0750631 -0.0458593 0)
(0.0626346 -0.0633773 0)
(0.0642906 -0.0879514 0)
(0.0472575 -0.105702 0)
(0.0495891 -0.134866 0)
(0.0271606 -0.153143 0)
(0.0313477 -0.188538 0)
(0.00263902 -0.205699 0)
(0.0083876 -0.278503 0)
(-0.0289024 -0.37574 0)
(-0.0063369 -0.474678 0)
(0.000478268 0.0192718 0)
(0.0240636 0.106716 0)
(0.0469943 0.171826 0)
(0.0642094 0.21009 0)
(0.0772475 0.223213 0)
(0.0860461 0.217864 0)
(0.0902236 0.1995 0)
(0.0929994 0.175593 0)
(0.0930107 0.152295 0)
(0.0954648 0.130817 0)
(0.0956752 0.113316 0)
(0.100078 0.0964951 0)
(0.100256 0.0820398 0)
(0.10545 0.0657611 0)
(0.103596 0.0509896 0)
(0.108221 0.0330859 0)
(0.102831 0.017236 0)
(0.10623 -0.002495 0)
(0.0964137 -0.0187976 0)
(0.0986067 -0.0400516 0)
(0.0838727 -0.0562368 0)
(0.0854976 -0.0797037 0)
(0.0653755 -0.0962646 0)
(0.0674147 -0.124232 0)
(0.0407921 -0.141389 0)
(0.0444775 -0.175554 0)
(0.00991203 -0.191058 0)
(0.0166606 -0.262178 0)
(-0.0282943 -0.365514 0)
(-0.00278551 -0.491939 0)
(-0.0013219 0.00795178 0)
(0.0195753 0.0800656 0)
(0.0460159 0.148622 0)
(0.0665486 0.188947 0)
(0.0822425 0.2077 0)
(0.0946518 0.205724 0)
(0.101302 0.19147 0)
(0.107196 0.169846 0)
(0.108714 0.147782 0)
(0.113243 0.126457 0)
(0.113928 0.108815 0)
(0.120043 0.0918961 0)
(0.120298 0.0777522 0)
(0.127313 0.0621584 0)
(0.125245 0.0484823 0)
(0.131582 0.0319027 0)
(0.125454 0.0176402 0)
(0.130177 -0.000460065 0)
(0.118946 -0.0150229 0)
(0.121986 -0.0346154 0)
(0.105104 -0.0491819 0)
(0.107105 -0.0710561 0)
(0.0839324 -0.0861537 0)
(0.0858182 -0.112364 0)
(0.0547649 -0.128129 0)
(0.0579025 -0.160524 0)
(0.0169647 -0.174973 0)
(0.024978 -0.243936 0)
(-0.0284473 -0.353183 0)
(0.00167769 -0.507284 0)
(-0.00203387 0.00149937 0)
(0.0136232 0.0594639 0)
(0.0406878 0.125328 0)
(0.064838 0.174082 0)
(0.0852328 0.195469 0)
(0.10227 0.198888 0)
(0.113337 0.187473 0)
(0.123303 0.168082 0)
(0.127367 0.146932 0)
(0.134447 0.125322 0)
(0.135791 0.107314 0)
(0.143484 0.0896842 0)
(0.143452 0.075679 0)
(0.15191 0.0602359 0)
(0.149211 0.0477507 0)
(0.157045 0.0321697 0)
(0.149946 0.0198103 0)
(0.156072 0.00316339 0)
(0.14335 -0.00925671 0)
(0.147525 -0.0272491 0)
(0.128407 -0.0397368 0)
(0.131081 -0.0598622 0)
(0.104575 -0.0729152 0)
(0.106476 -0.096886 0)
(0.07053 -0.110647 0)
(0.0731848 -0.140506 0)
(0.0252128 -0.154155 0)
(0.0349087 -0.220765 0)
(-0.0282747 -0.337846 0)
(0.00775145 -0.520491 0)
(0.00112602 -0.00372484 0)
(0.00906221 0.0363874 0)
(0.0318609 0.0974712 0)
(0.0570883 0.143388 0)
(0.0783113 0.170393 0)
(0.100609 0.176767 0)
(0.115671 0.170695 0)
(0.131934 0.155061 0)
(0.139752 0.137012 0)
(0.151722 0.117205 0)
(0.154639 0.100245 0)
(0.165576 0.0832939 0)
(0.165295 0.0698925 0)
(0.176173 0.055359 0)
(0.172334 0.0440152 0)
(0.182374 0.0300237 0)
(0.173718 0.0193903 0)
(0.181962 0.00485287 0)
(0.167322 -0.00555604 0)
(0.173381 -0.0211759 0)
(0.151783 -0.0315893 0)
(0.155798 -0.0491032 0)
(0.125832 -0.0599931 0)
(0.128189 -0.0808804 0)
(0.0871524 -0.092506 0)
(0.0893695 -0.119098 0)
(0.034114 -0.132949 0)
(0.0455054 -0.196293 0)
(-0.0278714 -0.321123 0)
(0.0159577 -0.530622 0)
(-0.000459522 -0.0085784 0)
(0.00251059 0.0295974 0)
(0.0178129 0.0777049 0)
(0.0433829 0.128452 0)
(0.0694122 0.152307 0)
(0.097074 0.161709 0)
(0.118059 0.156815 0)
(0.140896 0.143747 0)
(0.153477 0.128083 0)
(0.171061 0.109937 0)
(0.176395 0.0945441 0)
(0.191136 0.0783851 0)
(0.191235 0.0662725 0)
(0.204582 0.0524418 0)
(0.199968 0.0428523 0)
(0.211894 0.0299179 0)
(0.201893 0.0216705 0)
(0.211858 0.00854416 0)
(0.195375 0.000990972 0)
(0.203025 -0.0129326 0)
(0.17873 -0.0201379 0)
(0.184003 -0.0354417 0)
(0.14986 -0.0426792 0)
(0.152992 -0.0602657 0)
(0.105774 -0.0680786 0)
(0.109046 -0.0906949 0)
(0.0460832 -0.104538 0)
(0.0619034 -0.164288 0)
(-0.0219957 -0.300529 0)
(0.0286553 -0.535734 0)
(0.00506665 -0.00546648 0)
(0.00512888 0.0167861 0)
(-0.000554539 0.0566823 0)
(0.0204011 0.0901307 0)
(0.0414632 0.116751 0)
(0.076484 0.12677 0)
(0.102085 0.127283 0)
(0.134915 0.118586 0)
(0.152964 0.107499 0)
(0.179513 0.093225 0)
(0.188166 0.0809036 0)
(0.209766 0.0672864 0)
(0.210538 0.0572077 0)
(0.22902 0.0453628 0)
(0.222974 0.0374991 0)
(0.239169 0.0267443 0)
(0.226262 0.020288 0)
(0.240287 0.00989051 0)
(0.219783 0.00425016 0)
(0.231562 -0.00623071 0)
(0.202278 -0.0114001 0)
(0.211807 -0.0223647 0)
(0.171946 -0.0274623 0)
(0.179618 -0.0398643 0)
(0.126547 -0.0462776 0)
(0.134859 -0.0645197 0)
(0.0656097 -0.0817628 0)
(0.0851112 -0.137289 0)
(-0.00846118 -0.281011 0)
(0.0470987 -0.530148 0)
(-0.0236243 -0.0208776 0)
(-0.0233153 0.0376251 0)
(-0.0181091 0.0624534 0)
(-0.00724491 0.0887876 0)
(0.0215722 0.0967197 0)
(0.0598971 0.101702 0)
(0.091058 0.0992018 0)
(0.131016 0.0924865 0)
(0.153922 0.0846774 0)
(0.187658 0.0740041 0)
(0.199559 0.0656807 0)
(0.227067 0.0551938 0)
(0.229034 0.0485258 0)
(0.252116 0.0391272 0)
(0.245458 0.0343373 0)
(0.265522 0.0256304 0)
(0.250681 0.0223694 0)
(0.268571 0.0138073 0)
(0.245165 0.0118257 0)
(0.261568 0.00301579 0)
(0.228495 0.00222855 0)
(0.244342 -0.00715167 0)
(0.199543 -0.00697939 0)
(0.216475 -0.0175787 0)
(0.156508 -0.0181377 0)
(0.178004 -0.0335169 0)
(0.0989418 -0.0467146 0)
(0.134019 -0.0969361 0)
(0.0375958 -0.245943 0)
(0.0826709 -0.502013 0)
(-0.0854599 0.0477814 0)
(-0.0868161 0.00853466 0)
(-0.116944 0.0408569 0)
(-0.0723569 0.0465334 0)
(-0.0508236 0.0492167 0)
(0.00541275 0.0551222 0)
(0.0379464 0.0566315 0)
(0.0915246 0.054333 0)
(0.116376 0.0516771 0)
(0.163625 0.0462538 0)
(0.17589 0.0423334 0)
(0.217735 0.0363509 0)
(0.217797 0.0329496 0)
(0.256477 0.0273582 0)
(0.245453 0.0248863 0)
(0.283129 0.0198264 0)
(0.261399 0.018093 0)
(0.299948 0.013569 0)
(0.267059 0.0122207 0)
(0.308336 0.00838681 0)
(0.263188 0.00694399 0)
(0.309283 0.00410602 0)
(0.250292 0.00169421 0)
(0.303549 -0.000332848 0)
(0.228873 -0.00637518 0)
(0.29119 -0.0131711 0)
(0.19882 -0.0370041 0)
(0.266409 -0.0888104 0)
(0.143688 -0.224637 0)
(0.138643 -0.430668 0)
(0.0793005 0.137358 0)
(0.11759 0.0747849 0)
(0.154476 0.0487846 0)
(0.208233 0.0272895 0)
(0.226185 0.019902 0)
(0.276787 0.0141195 0)
(0.293778 0.0138266 0)
(0.347955 0.013471 0)
(0.360436 0.0136547 0)
(0.414358 0.0134266 0)
(0.418959 0.0129603 0)
(0.470773 0.0122223 0)
(0.466249 0.0113834 0)
(0.516216 0.0104213 0)
(0.502607 0.00949183 0)
(0.551771 0.0085156 0)
(0.52936 0.00763609 0)
(0.578846 0.00668673 0)
(0.547805 0.00597203 0)
(0.598646 0.00491884 0)
(0.558993 0.00458382 0)
(0.612095 0.00299414 0)
(0.563544 0.00345999 0)
(0.619394 0.000108497 0)
(0.559994 0.00178914 0)
(0.616337 -0.00741128 0)
(0.53375 -0.00696736 0)
(0.570077 -0.03952 0)
(0.393089 -0.0642575 0)
(0.289787 -0.196438 0)
)
;

boundaryField
{
    movingWall
    {
        type            fixedValue;
        value           uniform (1 0 0);
    }
    fixedWalls
    {
        type            noSlip;
    }
    frontAndBack
    {
        type            empty;
    }
}


// ************************************************************************* //
