/*--------------------------------*- C++ -*----------------------------------*\
| =========                 |                                                 |
| \\      /  F ield         | OpenFOAM: The Open Source CFD Toolbox           |
|  \\    /   O peration     | Version:  2406                                  |
|   \\  /    A nd           | Website:  www.openfoam.com                      |
|    \\/     M anipulation  |                                                 |
\*---------------------------------------------------------------------------*/
FoamFile
{
    version     2.0;
    format      ascii;
    arch        "LSB;label=32;scalar=64";
    class       volScalarField;
    location    "39.8";
    object      p;
}
// * * * * * * * * * * * * * * * * * * * * * * * * * * * * * * * * * * * * * //

dimensions      [0 2 -2 0 0 0 0];

internalField   nonuniform List<scalar> 
3600
(
0.0395234
0.0395591
0.0395507
0.0395349
0.0394678
0.0393927
0.0392906
0.039191
0.0390781
0.0389623
0.0388263
0.0386697
0.0384783
0.0382499
0.0379759
0.0376556
0.0372855
0.0368683
0.0364076
0.0359142
0.0354048
0.0349063
0.0344533
0.0340867
0.0338492
0.0337805
0.0339131
0.034268
0.034852
0.0356545
0.0366453
0.037772
0.0389604
0.0401162
0.0411311
0.0418935
0.0423016
0.0422807
0.0417967
0.0408687
0.039567
0.0380068
0.0363245
0.0346589
0.0331224
0.0317965
0.0307168
0.0298918
0.0292951
0.0288955
0.028642
0.0285016
0.0284275
0.0284063
0.0284021
0.0284244
0.0284408
0.0284792
0.0285004
0.0285365
0.0394892
0.039526
0.0395092
0.0394935
0.0394301
0.0393655
0.0392758
0.0391904
0.0390909
0.0389886
0.0388666
0.0387259
0.0385533
0.0383477
0.0381004
0.0378101
0.0374714
0.0370847
0.036652
0.0361827
0.035691
0.0351985
0.0347331
0.0343315
0.0340355
0.033889
0.0339303
0.0341877
0.0346739
0.0353833
0.0362893
0.0373421
0.0384691
0.0395771
0.0405582
0.0412999
0.041699
0.0416785
0.0412028
0.0402898
0.039011
0.0374845
0.0358506
0.0342513
0.0327989
0.0315706
0.0305928
0.0298629
0.0293434
0.0289975
0.0287729
0.0286416
0.028562
0.0285279
0.0285063
0.0285113
0.0285087
0.0285319
0.0285364
0.0285727
0.0394902
0.0395383
0.0395186
0.0395003
0.0394305
0.0393634
0.0392747
0.0391954
0.0391057
0.0390154
0.0389059
0.0387772
0.0386154
0.0384183
0.0381757
0.0378836
0.037534
0.0371237
0.0366496
0.0361151
0.0355321
0.0349266
0.0343372
0.0338117
0.0334011
0.0331541
0.0331118
0.0333031
0.033741
0.0344201
0.0353132
0.0363708
0.0375202
0.038668
0.0397049
0.0405159
0.0409927
0.0410511
0.0406466
0.0397887
0.038543
0.0370272
0.0353868
0.0337744
0.0323147
0.0310957
0.0301494
0.0294728
0.0290222
0.0287518
0.0285992
0.0285291
0.0284956
0.0284936
0.0284909
0.0285075
0.0285082
0.0285357
0.0285385
0.0285887
0.0394937
0.0395464
0.0395185
0.0394927
0.0394154
0.0393481
0.0392664
0.039201
0.03913
0.0390602
0.0389713
0.0388607
0.0387127
0.038521
0.0382707
0.0379503
0.0375438
0.0370403
0.036435
0.0357383
0.0349737
0.0341784
0.033399
0.0326889
0.0321027
0.0316917
0.0314984
0.0315528
0.0318694
0.0324445
0.0332545
0.0342546
0.035378
0.0365373
0.0376285
0.0385385
0.0391565
0.0393901
0.0391808
0.038521
0.0374595
0.0361012
0.0345865
0.0330705
0.0316867
0.0305337
0.0296526
0.0290461
0.0286709
0.028479
0.0284022
0.0284002
0.0284215
0.0284604
0.0284832
0.0285148
0.0285195
0.0285492
0.0285473
0.0286058
0.0395421
0.0395947
0.0395556
0.0395151
0.0394243
0.0393492
0.0392685
0.0392102
0.039151
0.0390921
0.0390097
0.0388949
0.0387258
0.0384862
0.038151
0.0376979
0.0371071
0.0363723
0.0355013
0.0345189
0.0334644
0.0323891
0.0313504
0.0304074
0.0296159
0.029025
0.0286738
0.0285896
0.0287856
0.0292592
0.0299911
0.030943
0.0320575
0.0332578
0.0344503
0.0355289
0.0363842
0.0369158
0.0370481
0.0367475
0.0360327
0.0349805
0.0337124
0.0323765
0.0311123
0.0300325
0.0291953
0.0286193
0.0282735
0.0281178
0.028086
0.0281364
0.0282116
0.0283007
0.0283651
0.0284291
0.0284552
0.0284997
0.0285037
0.0285691
0.0396166
0.0396602
0.0396055
0.0395448
0.0394407
0.0393585
0.0392811
0.0392294
0.0391782
0.0391199
0.0390252
0.0388728
0.0386295
0.038264
0.0377416
0.0370381
0.0361428
0.0350649
0.033832
0.0324881
0.0310878
0.0296911
0.0283592
0.0271508
0.0261195
0.0253103
0.0247591
0.0244899
0.0245149
0.0248331
0.02543
0.0262762
0.027327
0.0285216
0.0297838
0.0310236
0.0321422
0.0330404
0.0336305
0.0338519
0.0336843
0.0331599
0.03236
0.0314058
0.0304274
0.0295445
0.0288326
0.0283306
0.0280262
0.0278946
0.0278809
0.0279509
0.0280495
0.0281649
0.0282553
0.0283414
0.0283844
0.0284385
0.0284472
0.0285108
0.039748
0.0397739
0.0397006
0.0396132
0.0394934
0.0393977
0.0393151
0.039254
0.0391874
0.0390929
0.0389319
0.0386642
0.0382427
0.037624
0.0367757
0.0356854
0.0343644
0.0328459
0.0311805
0.0294289
0.0276576
0.0259326
0.0243168
0.0228652
0.0216251
0.0206335
0.0199178
0.019495
0.0193729
0.0195491
0.0200118
0.0207391
0.0216988
0.0228472
0.0241293
0.0254783
0.0268169
0.0280607
0.0291243
0.0299316
0.0304276
0.0305929
0.0304504
0.0300683
0.0295433
0.0289852
0.0284826
0.028099
0.0278507
0.0277374
0.0277235
0.0277884
0.0278855
0.028006
0.0281082
0.0282081
0.0282661
0.0283291
0.0283453
0.0284031
0.0399334
0.0399315
0.0398392
0.0397218
0.0395876
0.0394737
0.0393774
0.0392866
0.039171
0.0389868
0.0386822
0.0381961
0.0374744
0.0364746
0.0351826
0.0336105
0.0317991
0.0298059
0.0277023
0.0255617
0.0234572
0.0214541
0.0196098
0.0179702
0.0165722
0.0154416
0.0145961
0.0140447
0.0137898
0.0138266
0.0141448
0.0147276
0.0155529
0.016592
0.0178102
0.0191651
0.0206071
0.0220782
0.0235135
0.0248437
0.0260011
0.0269291
0.027592
0.0279864
0.0281427
0.0281243
0.0280056
0.0278639
0.0277465
0.0276882
0.0276843
0.0277361
0.0278133
0.0279152
0.0280062
0.0280998
0.0281581
0.0282188
0.028237
0.0282839
0.040192
0.0401521
0.0400418
0.0398898
0.0397377
0.0395913
0.0394576
0.039296
0.0390711
0.038711
0.0381524
0.0373198
0.0361678
0.0346714
0.0328494
0.030745
0.0284305
0.0259854
0.0234966
0.0210428
0.0186956
0.016512
0.014538
0.0128055
0.0113376
0.0101475
0.00924258
0.00862346
0.00828731
0.00822625
0.00843005
0.00888455
0.0095739
0.0104792
0.0115801
0.0128537
0.0142748
0.0158138
0.0174361
0.0190986
0.0207494
0.0223275
0.0237667
0.0250046
0.025993
0.0267137
0.0271808
0.027447
0.0275751
0.0276373
0.0276739
0.0277217
0.0277757
0.0278487
0.0279155
0.0279897
0.0280381
0.0280893
0.0281059
0.0281412
0.0405228
0.0404364
0.0403124
0.0401229
0.039948
0.0397498
0.0395454
0.0392574
0.0388439
0.0382038
0.0372723
0.0359743
0.0342928
0.0322342
0.029858
0.0272395
0.0244778
0.0216662
0.0188967
0.0162418
0.0137624
0.0114994
0.00948286
0.00772917
0.00624898
0.00504454
0.00411603
0.00345841
0.00306593
0.00292911
0.00303823
0.00338083
0.00394481
0.0047167
0.00568447
0.00683634
0.00816277
0.0096547
0.0113032
0.0130956
0.0150108
0.0170136
0.0190478
0.0210348
0.022876
0.0244705
0.0257357
0.0266409
0.02721
0.0275261
0.0276769
0.0277535
0.0277943
0.0278357
0.0278689
0.0279114
0.0279376
0.02797
0.0279787
0.0280024
0.040921
0.0407816
0.0406474
0.040413
0.0402006
0.0399172
0.03959
0.0390988
0.0383981
0.0373644
0.0359484
0.0340941
0.031829
0.0291989
0.0263046
0.0232468
0.0201419
0.0170833
0.014156
0.0114158
0.00890608
0.00664837
0.0046576
0.00293627
0.00148574
0.000300882
-0.000622311
-0.00129187
-0.00171451
-0.00190011
-0.00185747
-0.00159782
-0.00113098
-0.000467765
0.000383689
0.00141654
0.00262846
0.00402051
0.00559867
0.00737105
0.00934478
0.0115185
0.0138718
0.0163533
0.0188688
0.0212824
0.023431
0.0251689
0.0264119
0.0271831
0.0275812
0.0277544
0.0278104
0.0278296
0.0278292
0.0278361
0.0278341
0.0278437
0.027841
0.0278557
0.0413679
0.0411731
0.0410322
0.0407438
0.0404726
0.0400614
0.0395474
0.0387659
0.0376769
0.0361489
0.0341691
0.0317166
0.0288722
0.0257203
0.0223961
0.0190127
0.0156885
0.012503
0.00952332
0.00678257
0.0043051
0.00209479
0.000154845
-0.00152161
-0.00293807
-0.0041033
-0.0050222
-0.00570347
-0.00615294
-0.00637975
-0.00639106
-0.00619674
-0.00580468
-0.00522409
-0.0044612
-0.00352117
-0.00240422
-0.00110652
0.0003826
0.00207964
0.00400629
0.00618499
0.00862984
0.0113335
0.0142462
0.0172593
0.0201945
0.0228275
0.0249416
0.0264175
0.027277
0.0276785
0.0278091
0.0278279
0.0277998
0.0277703
0.0277367
0.0277205
0.0277034
0.0277113
0.041821
0.0415701
0.0414205
0.0410612
0.0406979
0.0401044
0.0393292
0.0381686
0.0366026
0.0345106
0.0319334
0.0288943
0.0255281
0.0219487
0.018312
0.0147266
0.0112989
0.00808375
0.00512624
0.00243618
2.24066e-05
-0.00212436
-0.00400755
-0.0056392
-0.00702407
-0.00817208
-0.00908724
-0.00977783
-0.0102481
-0.0105063
-0.0105577
-0.0104111
-0.0100727
-0.00955065
-0.00885015
-0.00797599
-0.00692839
-0.00570414
-0.00429319
-0.0026787
-0.000835935
0.00126696
0.00366353
0.0063813
0.00942134
0.0127362
0.0161973
0.0195844
0.0226043
0.0249788
0.0265559
0.0273996
0.0277221
0.0277868
0.0277473
0.0276865
0.0276226
0.0275815
0.0275494
0.0275525
0.0422318
0.0419275
0.0417633
0.0413134
0.0408192
0.0399861
0.0388774
0.0372625
0.0351589
0.0324748
0.0293157
0.0257493
0.0219563
0.0180648
0.0142346
0.0105546
0.00710919
0.00392458
0.001025
-0.00159893
-0.00394838
-0.00604073
-0.00788147
-0.00948459
-0.0108536
-0.0119982
-0.0129204
-0.0136275
-0.014122
-0.0144107
-0.0144975
-0.0143897
-0.0140919
-0.0136113
-0.0129522
-0.0121191
-0.0111129
-0.00993219
-0.00856973
-0.00701233
-0.005239
-0.00321902
-0.000914659
0.0017181
0.00471436
0.00808496
0.0117771
0.0156423
0.0194071
0.0227098
0.0252103
0.02676
0.0274804
0.0276822
0.0276637
0.0275815
0.0274902
0.0274251
0.0273782
0.0273765
0.0425209
0.0421654
0.0419736
0.041408
0.0407393
0.0396115
0.0381087
0.0359904
0.0333276
0.0300695
0.0263883
0.0223889
0.018283
0.0141959
0.010276
0.00658204
0.00317396
5.05666e-05
-0.00277942
-0.0053389
-0.00763348
-0.00968445
-0.0114962
-0.013083
-0.0144458
-0.0155937
-0.0165265
-0.0172508
-0.0177674
-0.0180823
-0.0181978
-0.0181203
-0.017853
-0.0174024
-0.0167715
-0.0159649
-0.0149836
-0.0138276
-0.0124925
-0.0109693
-0.00924312
-0.00728918
-0.00507495
-0.00255466
0.000319992
0.00359629
0.00728587
0.0113326
0.0155529
0.0196136
0.023075
0.0255525
0.0269374
0.0274555
0.0275181
0.0274359
0.0273225
0.0272339
0.0271731
0.0271647
0.042622
0.0422192
0.0419845
0.0412796
0.0403976
0.0389328
0.0369974
0.03436
0.0311556
0.0273804
0.0232669
0.0189437
0.0146368
0.0104527
0.00651848
0.00285944
-0.000486905
-0.00354381
-0.00631174
-0.00882173
-0.0110794
-0.0131073
-0.014907
-0.0164918
-0.0178603
-0.0190205
-0.0199704
-0.0207159
-0.0212561
-0.0215966
-0.0217382
-0.0216866
-0.0214439
-0.0210155
-0.0204037
-0.0196127
-0.0186435
-0.0174968
-0.0161707
-0.0146593
-0.0129537
-0.0110361
-0.00888321
-0.00645624
-0.00370937
-0.000581624
0.00297617
0.00698369
0.011365
0.0158933
0.020156
0.0236307
0.0259211
0.0270198
0.0272891
0.0272418
0.0271182
0.0270031
0.0269282
0.0269088
0.0424484
0.0420009
0.0417053
0.0408401
0.0397142
0.0378882
0.0355102
0.0323731
0.0286807
0.024474
0.0200337
0.0154964
0.0110869
0.00688199
0.00298365
-0.000614519
-0.00389179
-0.00688722
-0.0096047
-0.0120793
-0.0143138
-0.0163306
-0.0181275
-0.0197173
-0.0210958
-0.0222705
-0.0232377
-0.024003
-0.0245642
-0.0249267
-0.0250901
-0.0250596
-0.0248363
-0.0244252
-0.0238278
-0.0230476
-0.022086
-0.0209434
-0.0196196
-0.0181105
-0.0164118
-0.014511
-0.0123942
-0.0100318
-0.00738895
-0.00440682
-0.00102475
0.00282222
0.00714456
0.0118428
0.0166223
0.0209631
0.0242803
0.0262116
0.0269326
0.0269728
0.0268673
0.0267209
0.0266298
0.0265936
0.0419527
0.0414649
0.0410934
0.0400561
0.0386708
0.0364824
0.0336802
0.0300933
0.0259912
0.0214529
0.0167914
0.0121368
0.00770076
0.0035253
-0.000311268
-0.0038419
-0.00705621
-0.0100032
-0.0126859
-0.0151405
-0.0173659
-0.0193831
-0.0211869
-0.0227889
-0.0241828
-0.0253758
-0.0263626
-0.0271488
-0.0277309
-0.028114
-0.0282969
-0.0282844
-0.028077
-0.027679
-0.0270916
-0.0263179
-0.0253592
-0.0242159
-0.0228889
-0.0213748
-0.0196728
-0.0177737
-0.0156715
-0.0133446
-0.0107714
-0.00790294
-0.00468485
-0.00103534
0.00310711
0.00774999
0.0127437
0.0176861
0.0219556
0.0248896
0.0263364
0.0266195
0.0265493
0.0263866
0.0262689
0.0262112
0.0410836
0.0405596
0.0401005
0.0388881
0.0372436
0.0347135
0.0315301
0.027565
0.0231449
0.0183763
0.0135894
0.00889637
0.00448848
0.000373721
-0.00338926
-0.00685346
-0.0100131
-0.0129227
-0.0155815
-0.0180255
-0.0202489
-0.0222719
-0.0240857
-0.0257017
-0.0271115
-0.0283223
-0.0293273
-0.0301321
-0.0307324
-0.031133
-0.031332
-0.0313341
-0.0311391
-0.0307511
-0.0301712
-0.029402
-0.0284452
-0.027301
-0.0259708
-0.0244517
-0.0227449
-0.0208429
-0.0187453
-0.016436
-0.0139054
-0.0111159
-0.00802806
-0.00456237
-0.000639283
0.00381703
0.00878446
0.0140262
0.0190151
0.0229733
0.0253326
0.0261521
0.0261313
0.0259886
0.0258323
0.0257477
0.0398463
0.0392932
0.0387412
0.0373626
0.0354753
0.0326435
0.0291399
0.0248805
0.0202369
0.015332
0.0104993
0.00582605
0.00148084
-0.00255865
-0.00624796
-0.00965373
-0.0127705
-0.0156545
-0.0183005
-0.020743
-0.0229718
-0.0250062
-0.0268345
-0.028468
-0.0298963
-0.0311264
-0.0321507
-0.0329743
-0.0335922
-0.034009
-0.0342223
-0.0342363
-0.0340509
-0.0336696
-0.033094
-0.0323262
-0.0313685
-0.0302208
-0.0288859
-0.0273601
-0.0256472
-0.0237393
-0.0216406
-0.0193374
-0.0168301
-0.0140899
-0.0110949
-0.00777693
-0.00406152
0.00015859
0.0049489
0.010227
0.0156462
0.0204592
0.0238375
0.0254312
0.0256261
0.0254842
0.0253211
0.0251859
0.0382472
0.0376729
0.0370281
0.0355005
0.0333987
0.030317
0.0265629
0.022094
0.0173138
0.0123514
0.00753352
0.0029199
-0.00134272
-0.0053012
-0.0089202
-0.0122746
-0.0153564
-0.0182219
-0.0208603
-0.0233048
-0.0255413
-0.0275882
-0.0294315
-0.0310821
-0.0325281
-0.0337766
-0.0348185
-0.0356591
-0.0362925
-0.036723
-0.0369479
-0.0369712
-0.0367925
-0.0364154
-0.0358418
-0.0350734
-0.0341137
-0.0329619
-0.0316226
-0.0300912
-0.0283738
-0.0264613
-0.0243617
-0.0220613
-0.0195681
-0.0168584
-0.0139266
-0.0107179
-0.00717581
-0.00318765
0.00135535
0.00648901
0.0120607
0.0174544
0.0218273
0.0242941
0.0250338
0.0248319
0.0247265
0.0245054
0.0363482
0.0357631
0.0350317
0.0333803
0.0311013
0.0278289
0.0238965
0.0192991
0.0144581
0.00950166
0.00474219
0.000212884
-0.00395882
-0.00783798
-0.0113942
-0.0147061
-0.0177619
-0.0206161
-0.0232531
-0.0257044
-0.0279524
-0.0300149
-0.0318758
-0.0335457
-0.0350112
-0.0362792
-0.0373397
-0.0381975
-0.0388461
-0.0392894
-0.0395245
-0.039555
-0.0393809
-0.0390052
-0.0384308
-0.0376588
-0.0366944
-0.035536
-0.0341905
-0.032652
-0.0309296
-0.0290124
-0.0269122
-0.0246132
-0.0221298
-0.0194398
-0.0165511
-0.0134199
-0.0100123
-0.0062254
-0.00194238
0.00294909
0.00844963
0.0141484
0.0193143
0.022708
0.0242283
0.0240544
0.0239991
0.0236998
0.0342029
0.0336179
0.032809
0.0310617
0.0286454
0.02524
0.0211947
0.0165369
0.0116937
0.00678798
0.00211376
-0.00231872
-0.00639819
-0.0102019
-0.0137015
-0.0169766
-0.0200109
-0.0228565
-0.0254936
-0.0279521
-0.0302116
-0.0322893
-0.0341672
-0.0358555
-0.0373397
-0.0386261
-0.0397039
-0.0405773
-0.0412394
-0.0416936
-0.0419369
-0.0419724
-0.0418007
-0.0414241
-0.0408468
-0.0400692
-0.0390986
-0.0379321
-0.0365797
-0.0350337
-0.0333071
-0.0313861
-0.029287
-0.0269907
-0.0245173
-0.0218429
-0.0189866
-0.0159112
-0.0126052
-0.00898168
-0.00493746
-0.000324454
0.00495995
0.0107242
0.0163902
0.0207012
0.0230356
0.0231915
0.0230749
0.0227658
0.0319063
0.0313337
0.0304597
0.0286464
0.0261332
0.0226498
0.0185501
0.0138889
0.00908896
0.00426551
-0.000307735
-0.00463891
-0.00862979
-0.0123647
-0.0158156
-0.0190606
-0.0220791
-0.0249205
-0.0275615
-0.0300301
-0.0323038
-0.0343989
-0.036296
-0.0380045
-0.039509
-0.040815
-0.0419109
-0.0428003
-0.0434759
-0.0439405
-0.0441912
-0.0442302
-0.0440593
-0.0436797
-0.0430973
-0.0423116
-0.0413323
-0.0401551
-0.0387937
-0.0372382
-0.035506
-0.0335802
-0.0314825
-0.0291892
-0.0267269
-0.024067
-0.0212384
-0.0182058
-0.0149777
-0.0114834
-0.00764341
-0.00330682
0.00169061
0.00732826
0.0132216
0.0183014
0.0214122
0.0222045
0.0219426
0.0216855
0.0295303
0.0289812
0.0280543
0.0262019
0.0236266
0.0201102
0.0160002
0.0113756
0.00664666
0.00192164
-0.00254643
-0.00677863
-0.0106874
-0.0143598
-0.0177676
-0.0209859
-0.0239907
-0.0268285
-0.0294731
-0.031951
-0.0342381
-0.0363494
-0.0382647
-0.0399923
-0.041516
-0.0428402
-0.043953
-0.044857
-0.0455447
-0.0460179
-0.0462743
-0.0463151
-0.0461432
-0.0457588
-0.0451697
-0.044374
-0.0433846
-0.042195
-0.0408234
-0.039257
-0.0375187
-0.0355876
-0.0334919
-0.0312022
-0.0287525
-0.0261078
-0.0233066
-0.0203105
-0.0171459
-0.0137544
-0.0100838
-0.0060004
-0.0013094
0.00406786
0.00997754
0.0155584
0.019418
0.0209567
0.0206388
0.0204172
0.027173
0.0266594
0.0256927
0.0238263
0.0212199
0.0177084
0.0136237
0.00906575
0.0044264
-0.000191496
-0.00455513
-0.00869366
-0.0125282
-0.0161456
-0.0195171
-0.0227138
-0.0257092
-0.0285464
-0.0311976
-0.0336872
-0.03599
-0.0381196
-0.040055
-0.0418033
-0.0433477
-0.0446913
-0.0458219
-0.0467408
-0.0474409
-0.0479226
-0.0481844
-0.0482261
-0.0480523
-0.0476615
-0.0470644
-0.0462566
-0.0452553
-0.0440511
-0.0426675
-0.0410878
-0.0393419
-0.0374035
-0.0353091
-0.0330222
-0.0305862
-0.0279571
-0.0251843
-0.0222223
-0.0191141
-0.0158068
-0.0122775
-0.00841557
-0.00402283
0.00102127
0.00678962
0.0125807
0.017131
0.0193509
0.0192214
0.0189393
0.0248972
0.0244288
0.0234333
0.0215719
0.0189565
0.0154756
0.0114368
0.00696013
0.00241484
-0.00209832
-0.00636577
-0.0104199
-0.0141895
-0.0177585
-0.0210984
-0.0242758
-0.0272627
-0.0300991
-0.032756
-0.0352558
-0.0375729
-0.0397192
-0.0416733
-0.0434406
-0.0450041
-0.0463655
-0.0475125
-0.0484449
-0.0491559
-0.0496445
-0.0499103
-0.0499514
-0.0497745
-0.0493757
-0.0487694
-0.0479481
-0.0469338
-0.0457134
-0.0443166
-0.042722
-0.0409673
-0.0390201
-0.0369264
-0.0346415
-0.0322196
-0.0296064
-0.0268637
-0.0239352
-0.0208811
-0.0176462
-0.0142383
-0.0105658
-0.00645107
-0.00176292
0.00374741
0.00950986
0.0146124
0.0173934
0.0177002
0.017253
0.022784
0.0223709
0.0213582
0.0195186
0.0169125
0.0134822
0.00950438
0.00511851
0.000668315
-0.0037445
-0.00792446
-0.0119035
-0.0156171
-0.0191451
-0.0224594
-0.0256219
-0.0286041
-0.0314423
-0.0341077
-0.03662
-0.0389536
-0.0411184
-0.0430928
-0.0448807
-0.0464648
-0.047845
-0.0490093
-0.0499557
-0.0506783
-0.0511738
-0.0514439
-0.0514839
-0.0513036
-0.0508961
-0.0502798
-0.0494436
-0.0484153
-0.0471768
-0.0457656
-0.0441539
-0.0423891
-0.0404307
-0.0383363
-0.0360513
-0.0336431
-0.031045
-0.0283336
-0.0254383
-0.0224383
-0.0192689
-0.0159697
-0.012459
-0.00859863
-0.00425787
0.000913543
0.00647836
0.0119182
0.0151435
0.0160082
0.0153569
0.0208717
0.0205214
0.0195006
0.0176935
0.0151063
0.0117358
0.00782215
0.00352474
-0.000839655
-0.00516441
-0.00927093
-0.0131869
-0.0168548
-0.0203482
-0.0236412
-0.0267905
-0.0297684
-0.0326078
-0.0352802
-0.0378033
-0.0401513
-0.0423325
-0.0443253
-0.0461315
-0.0477342
-0.0491312
-0.0503112
-0.0512698
-0.0520026
-0.0525036
-0.0527768
-0.0528144
-0.0526297
-0.0522121
-0.0515851
-0.0507328
-0.0496897
-0.0484317
-0.0470052
-0.0453746
-0.0435985
-0.0416268
-0.0395305
-0.0372432
-0.0348478
-0.032263
-0.0295834
-0.0267206
-0.0237755
-0.0206672
-0.0174691
-0.0140983
-0.0104691
-0.00645144
-0.00166548
0.00359086
0.00912497
0.0126774
0.0140719
0.0132616
0.0192163
0.0189368
0.0179188
0.0161546
0.0135951
0.0102919
0.00644483
0.00223368
-0.00205252
-0.00629934
-0.0103438
-0.0142071
-0.017838
-0.0213039
-0.024581
-0.0277213
-0.0306984
-0.0335419
-0.0362239
-0.0387598
-0.0411243
-0.0433236
-0.0453363
-0.0471622
-0.0487849
-0.0501997
-0.0513966
-0.0523681
-0.053112
-0.0536189
-0.0538959
-0.0539312
-0.0537427
-0.0533147
-0.052677
-0.0518077
-0.0507495
-0.0494707
-0.048028
-0.0463766
-0.0445879
-0.0426004
-0.0405005
-0.0382077
-0.0358236
-0.0332493
-0.0306006
-0.0277684
-0.0248785
-0.0218281
-0.0187263
-0.0154788
-0.0120597
-0.0083354
-0.00395159
0.000927999
0.0063383
0.0100883
0.0118974
0.0110202
0.0178276
0.0176241
0.0166175
0.0149018
0.0123723
0.00913587
0.00534914
0.00121374
-0.00300941
-0.0071944
-0.0111927
-0.0150162
-0.0186201
-0.0220648
-0.0253299
-0.0284627
-0.031439
-0.0342852
-0.0369751
-0.0395214
-0.0419
-0.0441145
-0.0461447
-0.0479875
-0.0496279
-0.0510583
-0.0522701
-0.0532527
-0.0540063
-0.0545176
-0.0547974
-0.0548291
-0.0546361
-0.0541966
-0.0535479
-0.0526603
-0.0515866
-0.0502854
-0.048826
-0.0471518
-0.0453494
-0.0433432
-0.041238
-0.0389365
-0.0365614
-0.0339938
-0.0313742
-0.0285693
-0.0257337
-0.0227375
-0.0197283
-0.0165908
-0.0133629
-0.00990112
-0.00591299
-0.00144469
0.00367927
0.00749082
0.0095825
0.00872817
0.0167378
0.0166161
0.0156325
0.0139738
0.0114791
0.00831169
0.00458333
0.000517862
-0.00365156
-0.00778551
-0.0117486
-0.0155419
-0.019127
-0.0225567
-0.025815
-0.0289442
-0.0319232
-0.0347748
-0.0374752
-0.0400339
-0.0424286
-0.0446599
-0.0467092
-0.0485703
-0.0502298
-0.0516767
-0.052905
-0.0538996
-0.0546644
-0.0551808
-0.0554649
-0.0554935
-0.0552972
-0.0548463
-0.0541875
-0.0532814
-0.0521924
-0.0508679
-0.0493913
-0.0476923
-0.045875
-0.0438473
-0.0417347
-0.0394203
-0.0370514
-0.0344856
-0.0318922
-0.0291094
-0.0263259
-0.0233786
-0.0204583
-0.0174189
-0.0143656
-0.0111359
-0.00752208
-0.00347191
0.001263
0.00501012
0.00726928
0.00649832
0.0159298
0.0158915
0.0149408
0.013344
0.010885
0.0077835
0.00410578
9.87679e-05
-0.00403194
-0.00813049
-0.0120734
-0.0158488
-0.0194243
-0.0228451
-0.0260998
-0.0292264
-0.0322075
-0.0350629
-0.0377713
-0.0403395
-0.0427473
-0.0449923
-0.0470577
-0.0489341
-0.0506104
-0.0520713
-0.0533141
-0.0543186
-0.0550934
-0.0556134
-0.055901
-0.0559254
-0.0557256
-0.0552622
-0.0545931
-0.0536672
-0.0525628
-0.0512132
-0.0497188
-0.0479927
-0.0461591
-0.0441063
-0.041984
-0.0396519
-0.0372858
-0.0347158
-0.0321443
-0.029377
-0.0266413
-0.0237358
-0.0208993
-0.0179462
-0.015052
-0.0120247
-0.00875512
-0.00510799
-0.000815357
0.00276486
0.00509592
0.0044366
0.0154177
0.0154642
0.0145604
0.0130359
0.0106201
0.00758778
0.00396128
9.71447e-06
-0.00408796
-0.0081588
-0.0120895
-0.0158548
-0.0194274
-0.0228448
-0.0261005
-0.0292283
-0.0322148
-0.0350767
-0.0377958
-0.0403758
-0.0427989
-0.0450592
-0.0471428
-0.0490358
-0.0507307
-0.0522069
-0.0534662
-0.0544819
-0.0552687
-0.0557935
-0.0560869
-0.0561081
-0.0559067
-0.0554315
-0.0547537
-0.0538081
-0.0526893
-0.0513136
-0.0498015
-0.048046
-0.0461951
-0.0441136
-0.041979
-0.0396237
-0.0372565
-0.034675
-0.0321203
-0.0293598
-0.026666
-0.023793
-0.0210336
-0.0181536
-0.0154036
-0.0125495
-0.00959096
-0.00631642
-0.0024839
0.000855594
0.00317562
0.00263206
0.0151599
0.0152866
0.0144413
0.012997
0.0106296
0.00766679
0.00408859
0.000185853
-0.0038888
-0.00794354
-0.0118741
-0.0156394
-0.0192172
-0.0226362
-0.0258956
-0.0290249
-0.0320157
-0.0348818
-0.0376089
-0.0401972
-0.0426325
-0.0449047
-0.0470036
-0.0489103
-0.0506215
-0.0521105
-0.0533847
-0.0544097
-0.0552077
-0.0557358
-0.0560346
-0.0560515
-0.0558486
-0.0553606
-0.0546743
-0.0537074
-0.052574
-0.0511703
-0.0496398
-0.0478517
-0.0459816
-0.0438667
-0.0417167
-0.0393318
-0.0369586
-0.0343571
-0.0318125
-0.0290484
-0.0263889
-0.0235363
-0.0208454
-0.0180235
-0.0154025
-0.0126929
-0.0100112
-0.00706912
-0.00369096
-0.000637997
0.00159669
0.00115829
0.015159
0.0153598
0.0145895
0.0132397
0.0109365
0.00805304
0.00453209
0.000682974
-0.00336616
-0.00740598
-0.0113391
-0.0151088
-0.0186961
-0.0221215
-0.0253885
-0.0285231
-0.0315218
-0.0343953
-0.0371334
-0.0397327
-0.042183
-0.0444694
-0.0465862
-0.0485085
-0.0502387
-0.0517423
-0.0530342
-0.0540703
-0.0548824
-0.0554156
-0.0557229
-0.0557369
-0.0555356
-0.0550357
-0.0543434
-0.0533556
-0.0522093
-0.0507766
-0.0492279
-0.0474048
-0.0455143
-0.0433613
-0.0411928
-0.0387713
-0.0363868
-0.0337556
-0.0312138
-0.0284337
-0.0257994
-0.0229528
-0.0203199
-0.0175388
-0.0150315
-0.0124372
-0.00999929
-0.00734448
-0.00439985
-0.00165449
0.000429615
7.85397e-05
0.0153498
0.0156108
0.0149286
0.0136843
0.0114609
0.00866463
0.00520798
0.00141535
-0.00260882
-0.0066376
-0.0105795
-0.01436
-0.0179626
-0.0213978
-0.0246744
-0.0278139
-0.0308191
-0.0336972
-0.0364437
-0.0390506
-0.0415131
-0.0438105
-0.045943
-0.0478782
-0.049626
-0.0511421
-0.0524512
-0.0534967
-0.0543229
-0.0548599
-0.0551762
-0.0551863
-0.054987
-0.0544741
-0.0537762
-0.0527658
-0.0516065
-0.050142
-0.0485742
-0.0467118
-0.0447986
-0.0426014
-0.0404102
-0.0379434
-0.0355413
-0.0328689
-0.0303213
-0.0275108
-0.0248908
-0.0220331
-0.0194459
-0.0166856
-0.0142758
-0.0117674
-0.00954168
-0.00712624
-0.00458459
-0.00214663
-0.000266345
-0.0005498
0.015732
0.0160381
0.015461
0.01434
0.0122245
0.00953512
0.00616429
0.00244438
-0.00154007
-0.00554902
-0.00949409
-0.0132846
-0.0169034
-0.0203515
-0.0236413
-0.02679
-0.0298059
-0.0326927
-0.0354517
-0.03807
-0.0405489
-0.0428607
-0.0450131
-0.0469642
-0.0487337
-0.0502651
-0.0515954
-0.052653
-0.0534975
-0.0540408
-0.0543701
-0.0543784
-0.0541852
-0.0536606
-0.0529606
-0.0519279
-0.050758
-0.0492605
-0.0476745
-0.0457696
-0.0438325
-0.0415853
-0.0393679
-0.0368469
-0.0344208
-0.0316948
-0.029132
-0.026275
-0.0236576
-0.0207696
-0.0182144
-0.0154526
-0.0131235
-0.0106706
-0.00862748
-0.00640239
-0.00422711
-0.00207815
-0.000439543
-0.00067294
0.0162179
0.0165474
0.0160856
0.0150997
0.0131192
0.0105551
0.00729023
0.0036587
-0.000273123
-0.00425422
-0.00819927
-0.0119992
-0.015636
-0.0190981
-0.0224021
-0.025559
-0.0285846
-0.0314775
-0.0342472
-0.036874
-0.0393678
-0.0416917
-0.0438634
-0.0458288
-0.0476202
-0.0491658
-0.0505182
-0.051587
-0.0524512
-0.053
-0.053344
-0.0533495
-0.0531637
-0.0526262
-0.0519249
-0.0508676
-0.0496872
-0.0481531
-0.0465477
-0.0445947
-0.0426308
-0.0403256
-0.0380768
-0.0354905
-0.0330327
-0.0302382
-0.0276497
-0.0247277
-0.0220995
-0.0191592
-0.016621
-0.0138326
-0.0115672
-0.00913815
-0.00724996
-0.00516547
-0.00331638
-0.00142225
-4.51328e-05
-0.000240815
0.0168208
0.0171564
0.016818
0.0159842
0.0141758
0.0117677
0.00864404
0.00513048
0.00128107
-0.0026499
-0.00657743
-0.0103775
-0.0140277
-0.0175045
-0.0208258
-0.0239959
-0.027037
-0.029942
-0.0327289
-0.0353701
-0.0378855
-0.0402268
-0.0424242
-0.0444088
-0.0462284
-0.0477925
-0.0491732
-0.050257
-0.0511468
-0.0517043
-0.0520687
-0.052074
-0.0519009
-0.0513521
-0.050654
-0.0495726
-0.0483849
-0.0468128
-0.0451894
-0.0431843
-0.0411928
-0.0388224
-0.0365384
-0.0338759
-0.0313793
-0.0285012
-0.0258764
-0.0228696
-0.0202172
-0.0172006
-0.0146642
-0.011822
-0.00960351
-0.00716518
-0.00540697
-0.00341274
-0.00184854
-0.000161509
0.00095345
0.000790795
0.0174328
0.017756
0.0175354
0.0168616
0.0152546
0.0130315
0.0100814
0.00671604
0.0029779
-0.000878619
-0.00477121
-0.00855945
-0.0122174
-0.0157052
-0.0190431
-0.022225
-0.0252818
-0.0281975
-0.0310021
-0.0336565
-0.0361947
-0.0385529
-0.0407785
-0.0427823
-0.0446332
-0.0462161
-0.0476285
-0.0487277
-0.0496466
-0.0502128
-0.0506006
-0.0506051
-0.0504474
-0.0498856
-0.0491926
-0.0480839
-0.0468895
-0.0452746
-0.0436322
-0.041568
-0.0395455
-0.0370998
-0.0347748
-0.0320221
-0.0294777
-0.0264978
-0.0238245
-0.0207102
-0.0180189
-0.0148995
-0.0123489
-0.00942297
-0.00723543
-0.00475273
-0.00310268
-0.00114741
0.000171888
0.00171116
0.0025815
0.00245678
0.0181055
0.0184092
0.018293
0.0177883
0.0164128
0.0144134
0.0116816
0.00850705
0.00492517
0.00118149
-0.00264298
-0.00639745
-0.0100496
-0.0135441
-0.0169
-0.0200995
-0.0231804
-0.0261161
-0.0289488
-0.0316257
-0.0341973
-0.0365811
-0.0388448
-0.0408755
-0.0427672
-0.0443754
-0.0458283
-0.0469482
-0.0479043
-0.0484835
-0.0489024
-0.0489093
-0.0487737
-0.0482009
-0.0475188
-0.0463833
-0.0451866
-0.0435271
-0.0418681
-0.03974
-0.0376865
-0.0351572
-0.0327877
-0.029932
-0.0273327
-0.024233
-0.0215004
-0.0182555
-0.0155115
-0.0122614
-0.00968204
-0.00664088
-0.00447042
-0.00190674
-0.000347577
0.00162113
0.00273114
0.00419166
0.00484958
0.0047787
0.0187046
0.0189814
0.0189441
0.0186041
0.0174739
0.0157313
0.0132571
0.0103177
0.00693676
0.00335032
-0.000369494
-0.00406027
-0.00768798
-0.0111762
-0.0145458
-0.0177599
-0.0208672
-0.0238236
-0.0266893
-0.0293909
-0.0320022
-0.0344141
-0.0367231
-0.0387833
-0.0407232
-0.0423592
-0.0438598
-0.0450021
-0.046002
-0.046595
-0.0470506
-0.0470594
-0.0469504
-0.0463646
-0.0456965
-0.0445304
-0.043333
-0.0416228
-0.0399468
-0.0377459
-0.0356585
-0.0330329
-0.0306131
-0.0276376
-0.0249741
-0.0217328
-0.0189284
-0.0155262
-0.012715
-0.00930325
-0.00668076
-0.00349008
-0.00132497
0.00135887
0.00283922
0.00487595
0.00580505
0.00726412
0.00775062
0.00776156
0.0193488
0.0196016
0.019618
0.0194312
0.0185522
0.0170982
0.0149264
0.0122734
0.00915062
0.00577601
0.00221204
-0.00137596
-0.00495175
-0.00842004
-0.0118002
-0.0150341
-0.018179
-0.0211694
-0.0240845
-0.0268254
-0.0294929
-0.0319463
-0.034316
-0.0364171
-0.0384191
-0.040092
-0.0416528
-0.0428248
-0.0438796
-0.0444918
-0.0449939
-0.0450084
-0.0449349
-0.0443383
-0.0436918
-0.0424953
-0.0413033
-0.0395401
-0.0378514
-0.0355723
-0.0334525
-0.0307212
-0.0282492
-0.0251393
-0.0224058
-0.019003
-0.0161174
-0.012532
-0.00964203
-0.00603779
-0.00336122
1.41252e-05
0.00218098
0.00502594
0.00643218
0.00859393
0.00935968
0.0109019
0.0112587
0.0113922
0.0198503
0.0200742
0.0201216
0.0200607
0.0194224
0.0182759
0.0164439
0.0141314
0.0113253
0.0082285
0.00487938
0.00144894
-0.0020367
-0.00545562
-0.00883359
-0.0120792
-0.0152659
-0.0182936
-0.0212696
-0.024057
-0.0267949
-0.0292975
-0.0317421
-0.0338908
-0.0359685
-0.0376835
-0.0393167
-0.0405217
-0.041642
-0.0422749
-0.0428326
-0.0428522
-0.0428213
-0.0422112
-0.0415918
-0.0403599
-0.0391768
-0.037353
-0.0356527
-0.0332845
-0.0311308
-0.028279
-0.0257501
-0.0224864
-0.019675
-0.0160859
-0.0131083
-0.00931001
-0.00632934
-0.00249813
0.000242182
0.00384089
0.00601318
0.00906459
0.0103945
0.0127438
0.0133513
0.0150697
0.0153311
0.0156421
0.0204306
0.0206299
0.0206939
0.0207246
0.0203022
0.0194631
0.0180004
0.0160766
0.0136498
0.0108972
0.00783027
0.00461509
0.00126473
-0.00207627
-0.00543993
-0.00869765
-0.0119383
-0.0150197
-0.0180797
-0.0209347
-0.0237678
-0.026339
-0.0288816
-0.031094
-0.0332672
-0.035037
-0.0367596
-0.0380071
-0.0392077
-0.0398679
-0.040494
-0.0405231
-0.0405462
-0.0399248
-0.0393424
-0.0380751
-0.0369094
-0.0350224
-0.0333172
-0.030854
-0.0286709
-0.0256885
-0.0231043
-0.0196717
-0.0167806