/*--------------------------------*- C++ -*----------------------------------*\
| =========                 |                                                 |
| \\      /  F ield         | OpenFOAM: The Open Source CFD Toolbox           |
|  \\    /   O peration     | Version:  2406                                  |
|   \\  /    A nd           | Website:  www.openfoam.com                      |
|    \\/     M anipulation  |                                                 |
\*---------------------------------------------------------------------------*/
FoamFile
{
    version     2.0;
    format      ascii;
    arch        "LSB;label=32;scalar=64";
    class       volScalarField;
    location    "32";
    object      p;
}
// * * * * * * * * * * * * * * * * * * * * * * * * * * * * * * * * * * * * * //

dimensions      [0 2 -2 0 0 0 0];

internalField   nonuniform List<scalar> 
3600
(
0.036821
0.0368502
0.0368453
0.0368295
0.0367763
0.0367112
0.0366278
0.036542
0.0364486
0.0363508
0.0362404
0.036113
0.0359602
0.0357774
0.0355593
0.0353038
0.0350098
0.0346793
0.0343167
0.0339309
0.0335357
0.0331515
0.0328049
0.0325276
0.0323532
0.0323138
0.0324362
0.032738
0.0332246
0.033887
0.0346988
0.0356158
0.0365756
0.0375003
0.0383016
0.0388897
0.0391842
0.0391273
0.0386948
0.0379038
0.0368126
0.0355129
0.0341137
0.0327242
0.0314354
0.0303117
0.0293854
0.028663
0.0281277
0.0277528
0.0275027
0.0273476
0.0272556
0.02721
0.0271882
0.0271897
0.0271955
0.0272204
0.0272377
0.0272692
0.0367927
0.0368227
0.0368107
0.036795
0.0367449
0.0366883
0.0366154
0.0365415
0.0364601
0.0363744
0.0362764
0.0361626
0.0360256
0.0358612
0.0356646
0.0354331
0.0351647
0.0348596
0.0345202
0.0341537
0.0337718
0.0333917
0.0330362
0.0327333
0.0325158
0.0324175
0.0324691
0.0326932
0.0331006
0.0336863
0.0344278
0.0352832
0.0361919
0.0370768
0.0378499
0.0384206
0.0387071
0.03865
0.0382237
0.0374448
0.0363725
0.0351008
0.0337419
0.0324067
0.0311859
0.0301398
0.0292931
0.0286438
0.0281674
0.0278334
0.0276058
0.0274585
0.0273633
0.0273089
0.0272744
0.0272629
0.0272537
0.0272661
0.0272691
0.0273007
0.0367928
0.0368316
0.0368174
0.0367997
0.036745
0.0366866
0.0366146
0.0365457
0.0364723
0.0363969
0.03631
0.0362073
0.0360803
0.0359241
0.0357325
0.0355012
0.0352258
0.034904
0.0345354
0.0341234
0.0336778
0.0332171
0.0327694
0.0323705
0.0320602
0.0318775
0.0318564
0.0320214
0.0323841
0.0329402
0.0336671
0.0345234
0.0354482
0.0363641
0.0371813
0.0378067
0.0381541
0.0381577
0.037785
0.0370464
0.035997
0.0347314
0.0333663
0.0320217
0.0307976
0.0297623
0.0289442
0.0283396
0.0279188
0.027644
0.0274716
0.0273709
0.0273108
0.027281
0.0272614
0.027259
0.0272526
0.0272684
0.0272701
0.0273137
0.0367997
0.0368412
0.0368206
0.0367967
0.0367358
0.0366764
0.0366086
0.0365495
0.0364901
0.0364309
0.0363607
0.0362734
0.0361585
0.0360083
0.0358131
0.0355636
0.0352497
0.0348633
0.034401
0.0338682
0.033281
0.0326662
0.0320596
0.0315032
0.0310413
0.0307164
0.0305648
0.0306129
0.0308738
0.0313454
0.032008
0.0328237
0.033736
0.0346712
0.0355429
0.0362577
0.0367262
0.0368747
0.0366587
0.0360748
0.0351653
0.0340155
0.0327395
0.0314608
0.0302877
0.0292982
0.0285282
0.0279785
0.0276187
0.0274081
0.0272979
0.0272526
0.0272373
0.0272411
0.0272431
0.027254
0.0272521
0.0272704
0.0272691
0.0273201
0.0368423
0.0368825
0.0368534
0.036818
0.0367466
0.0366805
0.0366122
0.0365576
0.0365067
0.0364566
0.0363929
0.0363049
0.0361771
0.0359954
0.0357421
0.0354005
0.0349552
0.0343984
0.0337328
0.0329739
0.0321493
0.0312974
0.0304636
0.0296962
0.0290429
0.0285468
0.0282433
0.0281579
0.0283043
0.0286817
0.0292744
0.0300501
0.0309597
0.0319375
0.0329041
0.0337705
0.0344458
0.0348484
0.0349183
0.0346301
0.034002
0.0330974
0.0320164
0.0308783
0.0297976
0.0288643
0.0281293
0.0276065
0.0272747
0.0270984
0.0270291
0.0270292
0.027059
0.0271039
0.0271395
0.0271765
0.0271919
0.0272222
0.0272259
0.0272828
0.0369101
0.0369417
0.0369006
0.0368492
0.0367663
0.0366927
0.036624
0.0365724
0.036526
0.0364763
0.036404
0.0362904
0.0361112
0.0358415
0.0354545
0.0349286
0.0342505
0.0334211
0.0324562
0.0313861
0.0302521
0.0291027
0.0279898
0.0269652
0.0260771
0.0253678
0.0248711
0.0246114
0.0246016
0.0248429
0.025324
0.0260198
0.0268914
0.0278858
0.0289365
0.0299656
0.0308888
0.0316223
0.032093
0.0322513
0.0320822
0.0316131
0.0309122
0.0300787
0.0292214
0.0284383
0.027796
0.0273268
0.0270259
0.0268705
0.0268202
0.0268419
0.026896
0.0269667
0.0270266
0.0270842
0.0271149
0.0271546
0.0271628
0.0272187
0.0370221
0.0370387
0.0369836
0.036912
0.0368156
0.0367301
0.0366549
0.0365952
0.0365363
0.0364609
0.0363414
0.0361468
0.0358405
0.035387
0.0347555
0.0339284
0.0329049
0.0317027
0.0303561
0.0289115
0.0274233
0.0259488
0.0245444
0.0232623
0.0221483
0.0212396
0.0205649
0.0201434
0.0199849
0.0200901
0.02045
0.0210463
0.0218507
0.0228246
0.0239189
0.0250739
0.0262211
0.027286
0.028194
0.0288788
0.0292937
0.0294214
0.029282
0.028932
0.0284542
0.0279405
0.02747
0.0270969
0.0268416
0.0267026
0.0266555
0.0266777
0.0267356
0.0268149
0.0268875
0.0269586
0.0270025
0.0270503
0.0270645
0.0271161
0.0371779
0.0371718
0.037102
0.0370073
0.036897
0.0367957
0.0367067
0.0366237
0.0365272
0.0363866
0.0361626
0.0358088
0.0352787
0.0345319
0.0335448
0.0323143
0.0308607
0.0292235
0.0274568
0.0256229
0.0237863
0.0220091
0.0203472
0.0188482
0.0175505
0.0164829
0.0156656
0.0151104
0.0148221
0.0147987
0.0150322
0.0155089
0.0162092
0.017108
0.0181736
0.0193676
0.0206442
0.0219499
0.0232246
0.0244042
0.0254267
0.0262395
0.0268102
0.0271346
0.0272404
0.0271834
0.0270333
0.0268587
0.0267088
0.0266132
0.0265743
0.0265885
0.0266341
0.0267034
0.0267712
0.0268412
0.0268877
0.0269358
0.0269522
0.0269953
0.0373886
0.0373528
0.0372689
0.0371482
0.0370216
0.0368952
0.0367758
0.036641
0.0364638
0.0361956
0.0357841
0.0351696
0.0343035
0.0331531
0.0317139
0.0300077
0.0280814
0.0259983
0.0238313
0.0216538
0.0195347
0.0175337
0.0156992
0.0140683
0.0126676
0.0115145
0.010619
0.00998502
0.00961137
0.00949284
0.00962092
0.00998413
0.0105687
0.0113584
0.0123353
0.0134789
0.0147655
0.0161669
0.0176486
0.0191679
0.0206724
0.0221019
0.0233922
0.0244839
0.0253347
0.0259305
0.0262915
0.0264693
0.026529
0.0265355
0.0265308
0.0265429
0.0265711
0.0266196
0.0266699
0.0267268
0.0267665
0.0268082
0.0268233
0.0268569
0.0376523
0.0375804
0.0374845
0.0373357
0.0371886
0.0370235
0.0368498
0.036623
0.0363061
0.0358302
0.0351336
0.0341517
0.0328472
0.0312087
0.029262
0.0270597
0.0246771
0.0221979
0.0197065
0.0172788
0.0149782
0.0128534
0.0109392
0.00925869
0.00782542
0.00664578
0.00572117
0.00504898
0.00462403
0.00443883
0.00448441
0.00475057
0.00522658
0.00590154
0.00676517
0.00780801
0.00902162
0.0103977
0.0119263
0.0135925
0.0153716
0.017224
0.0190901
0.0208905
0.0225318
0.0239227
0.0249973
0.0257377
0.02618
0.0264042
0.0264961
0.0265328
0.0265501
0.0265741
0.026598
0.0266313
0.0266541
0.0266819
0.0266908
0.0267147
0.0379645
0.0378516
0.0377461
0.0375647
0.037387
0.0371607
0.0368959
0.0365214
0.0359897
0.0352139
0.0341321
0.0326884
0.0308723
0.0287053
0.0262503
0.023591
0.0208257
0.0180489
0.0153452
0.012781
0.0104055
0.00825048
0.00633507
0.00466809
0.00325228
0.0020857
0.00116414
0.000481399
3.03388e-05
-0.000197303
-0.000210231
-1.77262e-05
0.000371198
0.000948067
0.00170607
0.00264067
0.00375064
0.00503822
0.00650885
0.00816887
0.0100214
0.0120592
0.0142547
0.0165498
0.0188482
0.0210187
0.0229149
0.0244137
0.0254582
0.0260829
0.0263894
0.0265096
0.0265394
0.0265449
0.0265399
0.0265442
0.0265433
0.0265525
0.0265515
0.0265674
0.0383077
0.0381514
0.0380382
0.0378179
0.0375947
0.0372772
0.0368741
0.0362851
0.0354554
0.0342883
0.032736
0.0307669
0.0284102
0.025727
0.0228167
0.0197869
0.016747
0.0137883
0.0109831
0.00837941
0.00600736
0.003881
0.00200547
0.000378946
-0.00100284
-0.00214631
-0.00305789
-0.00374481
-0.00421406
-0.00447332
-0.00453025
-0.00439297
-0.00406917
-0.00356609
-0.00288922
-0.00204176
-0.00102306
0.000172068
0.00155444
0.00314001
0.00494825
0.00699715
0.00929443
0.0118238
0.014528
0.0172937
0.0199494
0.02229
0.0241327
0.0253895
0.0261017
0.0264206
0.026514
0.0265191
0.0264889
0.0264622
0.0264336
0.0264211
0.0264074
0.0264168
0.0386522
0.0384518
0.0383297
0.0380593
0.0377676
0.0373194
0.0367215
0.0358458
0.0346381
0.0330045
0.0309278
0.0284139
0.0255387
0.0224016
0.0191305
0.0158428
0.0126442
0.00960949
0.00679032
0.00421274
0.0018886
-0.000182615
-0.00200535
-0.00358762
-0.00493667
-0.00606026
-0.00696467
-0.00765644
-0.00814138
-0.00842593
-0.00851635
-0.00841955
-0.00814209
-0.0076904
-0.00706954
-0.00628278
-0.00533001
-0.00420692
-0.00290325
-0.00140216
0.000320341
0.00229359
0.00454755
0.00710253
0.0099517
0.0130377
0.0162282
0.0193088
0.0220117
0.0240976
0.0254552
0.0261637
0.0264235
0.0264683
0.0264254
0.0263709
0.0263136
0.0262787
0.0262508
0.0262551
0.038957
0.0387138
0.0385789
0.0382443
0.0378558
0.037233
0.0363814
0.0351509
0.0335
0.0313531
0.0287375
0.0257041
0.0223753
0.0188795
0.0153585
0.0119235
0.00866302
0.00562759
0.00284587
0.000323725
-0.00194095
-0.00395818
-0.00573712
-0.00728807
-0.00861826
-0.0097347
-0.0106422
-0.0113457
-0.0118495
-0.0121584
-0.0122772
-0.0122116
-0.011967
-0.011549
-0.0109625
-0.010211
-0.00929566
-0.00821443
-0.0069602
-0.00551981
-0.00387219
-0.00198795
0.000169758
0.00264055
0.00545497
0.0086143
0.0120576
0.0156306
0.0190684
0.0220383
0.0242468
0.0255897
0.0261976
0.0263621
0.0263347
0.0262602
0.0261756
0.0261183
0.0260757
0.0260747
0.0391672
0.0388828
0.0387266
0.0383093
0.0377912
0.0369485
0.0357887
0.03415
0.0320172
0.0293471
0.0262203
0.0227327
0.0190446
0.0152989
0.0116347
0.00814362
0.00488962
0.00189699
-0.000825698
-0.00328781
-0.00549976
-0.00747621
-0.00922716
-0.0107626
-0.0120879
-0.0132085
-0.0141272
-0.0148475
-0.0153719
-0.015704
-0.0158472
-0.0158062
-0.0155853
-0.0151894
-0.0146229
-0.0138896
-0.0129915
-0.0119286
-0.0106973
-0.00928911
-0.00768903
-0.00587354
-0.0038093
-0.00145314
0.00124247
0.00431827
0.00777952
0.0115599
0.0154712
0.0191912
0.0223132
0.0245102
0.0257112
0.026152
0.0261934
0.0261173
0.0260086
0.0259289
0.0258714
0.0258636
0.0392258
0.0389028
0.0387143
0.0381955
0.037516
0.036414
0.0349045
0.0328268
0.030205
0.0270381
0.0234617
0.0196097
0.0156666
0.0117727
0.00805148
0.00456657
0.00135626
-0.00157831
-0.00424304
-0.00665676
-0.00883313
-0.0107878
-0.0125291
-0.0140652
-0.0153991
-0.0165345
-0.017472
-0.0182138
-0.018761
-0.0191161
-0.0192814
-0.0192606
-0.0190571
-0.0186754
-0.018119
-0.017392
-0.0164968
-0.0154349
-0.0142051
-0.0128034
-0.0112207
-0.00944133
-0.0074404
-0.00518104
-0.0026153
0.000314163
0.00365445
0.0074167
0.0115151
0.0157208
0.0196313
0.0227713
0.024801
0.0257553
0.0259753
0.0259295
0.025806
0.0257017
0.0256286
0.0256105
0.0390716
0.0387121
0.0384781
0.0378393
0.0369707
0.0355809
0.0336991
0.0311789
0.0280931
0.0244869
0.0205458
0.0164293
0.0123303
0.00837254
0.00465545
0.00121296
-0.00193908
-0.00481709
-0.00743531
-0.00981702
-0.0119754
-0.0139248
-0.0156707
-0.017219
-0.0185703
-0.0197265
-0.0206866
-0.0214516
-0.0220215
-0.0223981
-0.0225827
-0.0225784
-0.022388
-0.0220153
-0.0214636
-0.0207367
-0.0198372
-0.0187673
-0.0175277
-0.0161171
-0.0145313
-0.0127612
-0.0107912
-0.00859455
-0.00613245
-0.00334837
-0.000179354
0.0034349
0.0074966
0.0118998
0.0163401
0.0203276
0.0233183
0.0250296
0.0256415
0.0256743
0.0255606
0.0254278
0.0253373
0.0253036
0.0386572
0.0382642
0.0379724
0.0372002
0.0361239
0.0344335
0.0321792
0.0292403
0.0257423
0.021775
0.0175634
0.0132779
0.00910566
0.00514489
0.0014682
-0.00191749
-0.00501301
-0.00784619
-0.0104344
-0.0128016
-0.0149584
-0.0169167
-0.0186787
-0.0202483
-0.0216236
-0.0228051
-0.0237905
-0.02458
-0.0251725
-0.0255692
-0.0257709
-0.0257801
-0.0255991
-0.0252314
-0.02468
-0.0239486
-0.0230399
-0.0219566
-0.0207003
-0.0192717
-0.0176696
-0.0158898
-0.0139246
-0.0117569
-0.00936047
-0.00668887
-0.00368249
-0.000260613
0.00363452
0.00800609
0.0126852
0.0172835
0.02119
0.0238354
0.0250938
0.0253362
0.0252528
0.0251025
0.0249865
0.0249326
0.037945
0.0375217
0.0371617
0.0362485
0.0349571
0.0329701
0.0303645
0.0270528
0.0232125
0.0189712
0.0145806
0.0102085
0.00602617
0.00210191
-0.00151644
-0.00484377
-0.00789147
-0.0106935
-0.0132665
-0.0156332
-0.0178002
-0.0197767
-0.0215619
-0.0231576
-0.0245602
-0.0257689
-0.0267803
-0.0275939
-0.0282078
-0.0286227
-0.0288389
-0.0288586
-0.0286837
-0.0283177
-0.0277636
-0.0270249
-0.0261047
-0.0250059
-0.0237308
-0.0222809
-0.0206573
-0.0188584
-0.0168822
-0.0147191
-0.012355
-0.00975597
-0.00687627
-0.00363539
4.66191e-05
0.00424733
0.00892371
0.013844
0.0184673
0.0220842
0.0241842
0.0248898
0.0248544
0.0247172
0.0245651
0.0244856
0.036924
0.036475
0.0360405
0.0349871
0.0334857
0.031223
0.0283056
0.0246832
0.0205797
0.0161512
0.0116627
0.00726887
0.00311918
-0.000747307
-0.00430313
-0.00757899
-0.0105914
-0.0133764
-0.0159477
-0.0183253
-0.0205116
-0.0225135
-0.0243271
-0.025953
-0.0273854
-0.0286231
-0.0296614
-0.030499
-0.0311335
-0.0315651
-0.0317935
-0.031821
-0.0316492
-0.0312816
-0.0307213
-0.0299723
-0.0290378
-0.0279212
-0.0266256
-0.0251529
-0.0235055
-0.0216834
-0.0196881
-0.0175147
-0.0151589
-0.0125981
-0.00980375
-0.00670661
-0.00322927
0.00074403
0.00525881
0.0102425
0.0153102
0.0197625
0.0228204
0.0242205
0.0243673
0.0242366
0.0240691
0.0239461
0.0356004
0.0351316
0.0346203
0.0334347
0.031739
0.0292341
0.0260559
0.0221916
0.0179033
0.013365
0.00884407
0.00447497
0.00038404
-0.00341563
-0.0069117
-0.0101451
-0.0131335
-0.0159123
-0.018491
-0.0208866
-0.0230976
-0.0251287
-0.0269735
-0.0286313
-0.0300949
-0.031362
-0.032427
-0.0332881
-0.0339419
-0.0343885
-0.0346271
-0.0346598
-0.0344882
-0.034116
-0.0335466
-0.0327844
-0.0318334
-0.0306975
-0.0293804
-0.0278845
-0.0262134
-0.0243676
-0.0223509
-0.0201606
-0.0177995
-0.015253
-0.0125091
-0.00951331
-0.00620519
-0.00245901
0.00181683
0.00667947
0.0119168
0.0169653
0.0209645
0.0231827
0.0237921
0.0236213
0.0234914
0.0232955
0.034008
0.0335268
0.0329412
0.0316383
0.0297734
0.0270688
0.0236876
0.0196516
0.0152509
0.0106682
0.00616436
0.00185075
-0.00216834
-0.00590086
-0.0093445
-0.0125458
-0.0155208
-0.0183027
-0.0208963
-0.0233157
-0.0255558
-0.0276194
-0.0294981
-0.0311897
-0.0326859
-0.0339835
-0.0350757
-0.0359602
-0.0366328
-0.0370932
-0.0373402
-0.0373757
-0.0372017
-0.0368219
-0.0362402
-0.0354617
-0.0344912
-0.0333333
-0.0319929
-0.0304728
-0.0287779
-0.0269084
-0.0248704
-0.0226612
-0.0202888
-0.0177427
-0.0150248
-0.0120941
-0.00891313
-0.00536388
-0.001343
0.00329193
0.00847735
0.0138588
0.0186231
0.0217297
0.0230273
0.0228793
0.0227929
0.0225235
0.0321937
0.0317086
0.0310543
0.0296534
0.0276488
0.0247902
0.0212627
0.0171184
0.0126656
0.00808799
0.00363447
-0.000606412
-0.00454965
-0.00821904
-0.0116182
-0.0147958
-0.0177648
-0.0205554
-0.0231681
-0.025614
-0.0278851
-0.0299826
-0.031896
-0.0336222
-0.0351515
-0.0364798
-0.0375992
-0.0385066
-0.0391972
-0.0396701
-0.0399238
-0.0399603
-0.0397813
-0.0393912
-0.0387946
-0.0379969
-0.0370043
-0.035822
-0.0344565
-0.0329109
-0.0311919
-0.0292993
-0.0272411
-0.0250136
-0.0226287
-0.0200768
-0.0173709
-0.0144791
-0.0113881
-0.00799537
-0.00420937
0.000154464
0.00514303
0.0106124
0.0158856
0.0198726
0.0219227
0.0220438
0.021919
0.0216257
0.0302227
0.0297433
0.0290291
0.0275521
0.02544
0.0224732
0.0188527
0.0146556
0.0101992
0.00566328
0.0012813
-0.00287891
-0.00674807
-0.010361
-0.0137242
-0.0168861
-0.0198558
-0.0226601
-0.0252955
-0.0277706
-0.0300749
-0.032208
-0.0341578
-0.03592
-0.0374835
-0.0388432
-0.0399902
-0.0409206
-0.0416288
-0.0421134
-0.0423726
-0.0424083
-0.0422224
-0.0418197
-0.0412054
-0.0403857
-0.0393682
-0.0381587
-0.0367656
-0.0351926
-0.0334484
-0.0315323
-0.0294547
-0.0272101
-0.0248138
-0.0222547
-0.0195543
-0.0166855
-0.0136572
-0.0103824
-0.00679633
-0.00270285
0.00201229
0.00737212
0.0129052
0.0176288
0.0204264
0.021087
0.0208498
0.020587
0.0281625
0.0276985
0.026934
0.0254029
0.0232136
0.0201795
0.0165104
0.0123035
0.00787755
0.00340538
-0.00089558
-0.00497487
-0.00877555
-0.0123395
-0.0156738
-0.0188254
-0.0217995
-0.0246197
-0.027279
-0.0297838
-0.0321217
-0.0342904
-0.0362766
-0.0380748
-0.0396725
-0.0410635
-0.0422379
-0.0431909
-0.043916
-0.0444114
-0.0446749
-0.0447082
-0.0445137
-0.0440963
-0.0434622
-0.0426182
-0.0415734
-0.0403344
-0.0389118
-0.0373093
-0.0355387
-0.0335983
-0.0315018
-0.0292412
-0.0268355
-0.0242701
-0.021574
-0.0187202
-0.0157369
-0.0125494
-0.00912679
-0.00527795
-0.000864508
0.00425453
0.00983472
0.0150507
0.0185808
0.0198998
0.0196115
0.0193765
0.0260869
0.0256482
0.0248442
0.02328
0.0210417
0.0179761
0.0142951
0.0101117
0.00573996
0.00134487
-0.00287205
-0.00687397
-0.0106133
-0.0141358
-0.0174481
-0.0205945
-0.0235768
-0.0264152
-0.0291002
-0.031636
-0.0340084
-0.0362138
-0.0382373
-0.0400722
-0.0417047
-0.0431276
-0.0443297
-0.0453052
-0.046047
-0.0465525
-0.0468195
-0.0468494
-0.046645
-0.0462113
-0.0455556
-0.0446853
-0.0436112
-0.0423404
-0.0408862
-0.0392522
-0.0374536
-0.0354877
-0.0333721
-0.0310958
-0.0286824
-0.0261126
-0.0234222
-0.0205808
-0.0176331
-0.0145117
-0.011221
-0.00758202
-0.00346784
0.00134235
0.00679653
0.0122484
0.0164489
0.0183976
0.0182551
0.0179784
0.0240615
0.0236572
0.022824
0.0212448
0.01898
0.0159106
0.0122437
0.00810468
0.00379901
-0.000515883
-0.00465296
-0.00858514
-0.0122718
-0.01576
-0.0190556
-0.0221999
-0.0251917
-0.0280487
-0.030759
-0.033325
-0.035731
-0.037972
-0.040032
-0.0419028
-0.0435694
-0.0450233
-0.0462523
-0.0472496
-0.0480073
-0.0485222
-0.0487918
-0.0488173
-0.0486019
-0.0481506
-0.0474723
-0.0465741
-0.0454694
-0.0441651
-0.0426778
-0.0410106
-0.0391828
-0.03719
-0.0350548
-0.0327627
-0.030343
-0.0277704
-0.0250881
-0.0222593
-0.0193437
-0.0162751
-0.0130924
-0.00962952
-0.00579449
-0.00131565
0.00388315
0.0093581
0.0140851
0.016582
0.0167988
0.0163947
0.0221494
0.0217886
0.0209364
0.0193582
0.0170858
0.0140345
0.0104009
0.00632024
0.00208654
-0.00214908
-0.0062125
-0.010083
-0.0137252
-0.0171858
-0.0204696
-0.0236149
-0.0266183
-0.0294947
-0.0322309
-0.0348274
-0.0372672
-0.039544
-0.0416405
-0.0435471
-0.0452478
-0.0467327
-0.0479885
-0.0490074
-0.0497808
-0.0503047
-0.0505766
-0.0505971
-0.0503701
-0.0499006
-0.0491988
-0.0482718
-0.0471356
-0.0457965
-0.0442751
-0.0425732
-0.040715
-0.038694
-0.0365385
-0.03423
-0.0318046
-0.0292302
-0.0265583
-0.0237436
-0.0208598
-0.0178372
-0.014746
-0.0114309
-0.00784718
-0.00369534
0.00116453
0.00650167
0.0115461
0.0145023
0.0151952
0.0146253
0.0203992
0.0200896
0.0192277
0.0176629
0.0153963
0.0123773
0.00878717
0.0047698
0.000605729
-0.00355802
-0.00755833
-0.0113777
-0.0149843
-0.0184234
-0.0216992
-0.0248471
-0.0278621
-0.0307571
-0.0335175
-0.0361425
-0.038614
-0.0409245
-0.0430555
-0.0449961
-0.0467292
-0.0482434
-0.0495246
-0.0505639
-0.051352
-0.0518841
-0.0521576
-0.0521725
-0.0519336
-0.0514453
-0.0507198
-0.0497636
-0.0485955
-0.0472212
-0.045665
-0.0439276
-0.0420383
-0.0399879
-0.0378115
-0.0354856
-0.0330546
-0.0304786
-0.0278188
-0.0250197
-0.0221689
-0.0191891
-0.0161792
-0.0129899
-0.00962885
-0.00578561
-0.00130695
0.00377441
0.00891026
0.0122238
0.013385
0.0126784
0.0188537
0.0186027
0.0177408
0.0162005
0.0139502
0.0109741
0.00743436
0.00348228
-0.000615929
-0.00471538
-0.00866212
-0.0124394
-0.016018
-0.0194411
-0.0227124
-0.0258646
-0.028892
-0.0318055
-0.0345898
-0.0372426
-0.0397451
-0.0420884
-0.044253
-0.0462267
-0.0479913
-0.0495342
-0.0508405
-0.0518997
-0.0527023
-0.0532423
-0.0535175
-0.0535268
-0.0532762
-0.0527693
-0.0520203
-0.0510349
-0.0498353
-0.0484255
-0.0468348
-0.0450612
-0.0431405
-0.0410597
-0.0388617
-0.0365173
-0.0340802
-0.031502
-0.0288551
-0.0260722
-0.0232559
-0.0203172
-0.0173827
-0.0143028
-0.0111387
-0.00757888
-0.00349252
0.00125151
0.00627969
0.00982616
0.0113681
0.0105966
0.0175386
0.0173518
0.0164991
0.0149916
0.0127644
0.00983664
0.00634832
0.00245794
-0.00158318
-0.00562986
-0.00953544
-0.0132813
-0.0168403
-0.0202526
-0.0235219
-0.0266789
-0.0297177
-0.0326475
-0.0354531
-0.0381305
-0.0406608
-0.0430335
-0.0452286
-0.0472325
-0.049026
-0.0505951
-0.0519243
-0.0530018
-0.0538177
-0.0543647
-0.054641
-0.0546445
-0.0543825
-0.0538572
-0.0530855
-0.0520713
-0.050841
-0.049396
-0.0477714
-0.0459615
-0.0440096
-0.0418976
-0.0396775
-0.0373131
-0.0348691
-0.0322872
-0.0296531
-0.0268857
-0.0241047
-0.0212056
-0.0183428
-0.0153598
-0.012371
-0.00906628
-0.00536244
-0.0010031
0.00376676
0.00740917
0.00922119
0.00845984
0.0164742
0.0163567
0.0155233
0.0140578
0.0118602
0.00898574
0.00555029
0.00171907
-0.00227148
-0.00627419
-0.010148
-0.0138707
-0.0174163
-0.020822
-0.0240918
-0.0272544
-0.0303044
-0.0332497
-0.0360751
-0.0387757
-0.041332
-0.0437323
-0.0459562
-0.0479884
-0.0498094
-0.0514037
-0.0527549
-0.05385
-0.054679
-0.0552331
-0.0555112
-0.0555094
-0.0552369
-0.0546941
-0.0539011
-0.0528592
-0.0515995
-0.0501203
-0.0484627
-0.0466169
-0.0446342
-0.0424903
-0.0402476
-0.0378616
-0.0354095
-0.0328216
-0.0301988
-0.0274449
-0.0246985
-0.0218369
-0.0190427
-0.0161461
-0.0133144
-0.0102359
-0.00689234
-0.00293435
0.0014772
0.00508565
0.00706412
0.00636643
0.0156639
0.0156181
0.0148139
0.0133982
0.0112348
0.00841621
0.00503235
0.0012552
-0.00269388
-0.00666371
-0.0105171
-0.0142265
-0.0177659
-0.021169
-0.0244409
-0.0276086
-0.0306678
-0.0336255
-0.0364671
-0.0391866
-0.0417647
-0.0441884
-0.0464369
-0.0484937
-0.0503387
-0.0519549
-0.0533257
-0.0544364
-0.0552771
-0.0558373
-0.0561169
-0.0561099
-0.0558279
-0.0552684
-0.0544555
-0.0533871
-0.0520998
-0.0505874
-0.0488984
-0.0470172
-0.0450043
-0.0428279
-0.0405622
-0.0381526
-0.0356907
-0.0330936
-0.0304798
-0.0277356
-0.0250216
-0.0221934
-0.0194644
-0.0166442
-0.0139541
-0.0110732
-0.0080608
-0.00449612
-0.000500098
0.00296672
0.00502009
0.00441292
0.0151079
0.0151351
0.0143716
0.0130159
0.0108943
0.00813676
0.004807
0.0010832
-0.00282821
-0.00677119
-0.0106108
-0.0143129
-0.0178509
-0.0212546
-0.0245299
-0.0277029
-0.0307704
-0.0337391
-0.0365948
-0.0393311
-0.0419285
-0.0443733
-0.0466441
-0.0487233
-0.0505906
-0.0522271
-0.0536166
-0.0547422
-0.0555948
-0.0561614
-0.0564436
-0.0564325
-0.0561428
-0.0555684
-0.054738
-0.053645
-0.0523324
-0.0507885
-0.0490699
-0.047154
-0.0451117
-0.0429024
-0.040613
-0.0381774
-0.0357035
-0.0330931
-0.0304847
-0.0277448
-0.0250593
-0.0222584
-0.0195896
-0.0168356
-0.0142728
-0.0115615
-0.00884837
-0.00565167
-0.0020958
0.00114996
0.00319553
0.00268419
0.0147902
0.0148874
0.0141756
0.0128897
0.0108176
0.00812593
0.00485236
0.00118098
-0.00269731
-0.00662042
-0.0104545
-0.0141567
-0.0176988
-0.0211063
-0.0243859
-0.0275629
-0.0306361
-0.0336118
-0.0364774
-0.0392256
-0.0418376
-0.0442984
-0.0465871
-0.0486845
-0.0505702
-0.0522239
-0.0536294
-0.0547677
-0.055631
-0.0562031
-0.0564881
-0.0564734
-0.0561773
-0.0555893
-0.0547434
-0.0536276
-0.0522921
-0.0507181
-0.0489719
-0.0470219
-0.0449512
-0.042708
-0.040394
-0.0379297
-0.0354408
-0.0328119
-0.0302042
-0.0274617
-0.0247987
-0.0220169
-0.0194016
-0.0167019
-0.0142524
-0.0116839
-0.00923728
-0.00637243
-0.0032579
-0.000284633
0.00167755
0.00125332
0.0146951
0.014857
0.0142098
0.0130071
0.0109977
0.0083822
0.00517365
0.00156079
-0.00228099
-0.00618395
-0.010014
-0.013719
-0.0172678
-0.020681
-0.0239657
-0.0271466
-0.0302244
-0.0332057
-0.0360791
-0.0388369
-0.0414612
-0.0439358
-0.0462402
-0.0483537
-0.0502564
-0.0519258
-0.0533469
-0.0544977
-0.0553722
-0.0559507
-0.0562403
-0.0562237
-0.055924
-0.0553249
-0.0544668
-0.0533307
-0.0519752
-0.0503732
-0.0486015
-0.0466184
-0.0445199
-0.0422418
-0.0399022
-0.0374054
-0.034898
-0.0322444
-0.0296314
-0.0268773
-0.0242293
-0.021456
-0.0188855
-0.0162264
-0.0138762
-0.0114238
-0.00921181
-0.00663656
-0.00394813
-0.00127356
0.000538329
0.000185203
0.01479
0.015006
0.0144348
0.0133276
0.0113959
0.0088677
0.00573396
0.00218717
-0.00161396
-0.00549605
-0.00932428
-0.0130356
-0.0165944
-0.0200152
-0.0233055
-0.0264889
-0.0295685
-0.0325514
-0.0354283
-0.0381911
-0.040823
-0.0433068
-0.0456228
-0.0477484
-0.0496649
-0.0513472
-0.0527818
-0.0539433
-0.0548285
-0.0554129
-0.0557078
-0.0556901
-0.0553887
-0.0547799
-0.0539122
-0.0527577
-0.0513849
-0.0497563
-0.0479611
-0.045945
-0.0438193
-0.0415045
-0.0391375
-0.036604
-0.0340737
-0.0313877
-0.0287623
-0.0259861
-0.0233437
-0.0205659
-0.0180296
-0.0153952
-0.0131298
-0.0107667
-0.00875876
-0.0064275
-0.00413864
-0.0017666
-0.000159782
-0.000459746
0.015049
0.0153063
0.0148235
0.0138275
0.011996
0.00957341
0.00653318
0.00306891
-0.000677209
-0.00452834
-0.00834837
-0.0120632
-0.0156313
-0.0190604
-0.0223568
-0.0255429
-0.0286242
-0.0316081
-0.0344874
-0.0372539
-0.0398922
-0.0423839
-0.0447105
-0.0468473
-0.0487773
-0.0504721
-0.0519208
-0.0530937
-0.0539911
-0.0545831
-0.0548861
-0.0548698
-0.0545701
-0.0539548
-0.0530812
-0.0519112
-0.0505245
-0.0488714
-0.047055
-0.0450062
-0.0428537
-0.0405
-0.0381035
-0.0355278
-0.0329693
-0.0302421
-0.0275958
-0.0247852
-0.0221375
-0.01934
-0.0168255
-0.014198
-0.012002
-0.00970099
-0.00786835
-0.00573363
-0.0038102
-0.00172448
-0.000361543
-0.00062392
0.0154279
0.0157097
0.0153233
0.0144506
0.0127424
0.0104448
0.00751798
0.00415476
0.000479742
-0.00332831
-0.00713296
-0.0108481
-0.0144249
-0.0178624
-0.0211648
-0.0243528
-0.0274339
-0.030416
-0.0332945
-0.0360613
-0.0387027
-0.0411992
-0.0435338
-0.0456793
-0.047621
-0.0493267
-0.050789
-0.0519725
-0.0528828
-0.0534827
-0.0537953
-0.0537816
-0.0534862
-0.052866
-0.0519894
-0.0508055
-0.0494075
-0.0477306
-0.0458945
-0.0438123
-0.0416326
-0.0392369
-0.0368077
-0.0341834
-0.0315904
-0.0288116
-0.0261347
-0.0232755
-0.0206102
-0.0177758
-0.0152694
-0.0126286
-0.0104863
-0.00821945
-0.00653526
-0.00454839
-0.00295163
-0.00111787
-1.87339e-05
-0.000253113
0.0159003
0.0161916
0.0159071
0.0151712
0.0136159
0.0114702
0.00868651
0.0054525
0.0018764
-0.00186539
-0.00563666
-0.00934076
-0.0129201
-0.0163641
-0.0196729
-0.0228643
-0.0259469
-0.0289289
-0.0318083
-0.0345766
-0.0372226
-0.0397248
-0.042069
-0.0442244
-0.0461799
-0.047898
-0.0493763
-0.0505727
-0.0514991
-0.0521096
-0.0524359
-0.052428
-0.0521412
-0.0515196
-0.0506442
-0.0494494
-0.0480436
-0.0463447
-0.0444909
-0.0423748
-0.0401675
-0.037726
-0.0352607
-0.0325802
-0.0299456
-0.0271035
-0.0243853
-0.0214617
-0.0187651
-0.0158748
-0.0133616
-0.0106857
-0.00858136
-0.00631992
-0.00475978
-0.00287119
-0.00156056
7.19593e-05
0.000907445
0.00070055
0.0164186
0.0167044
0.016517
0.0159246
0.0145465
0.0125785
0.00996725
0.00689213
0.00344458
-0.000204206
-0.00392136
-0.0076001
-0.0111741
-0.0146207
-0.0179351
-0.0211297
-0.0242142
-0.027196
-0.0300762
-0.0328454
-0.0354958
-0.0380033
-0.0403575
-0.0425229
-0.0444931
-0.0462244
-0.0477205
-0.0489308
-0.0498756
-0.0504984
-0.0508411
-0.0508409
-0.0505658
-0.0499445
-0.0490734
-0.0478687
-0.0464575
-0.0447364
-0.0428656
-0.0407133
-0.0384769
-0.0359845
-0.0334783
-0.0307326
-0.028048
-0.0251292
-0.0223577
-0.0193523
-0.01661
-0.0136431
-0.0111078
-0.00837364
-0.00629198
-0.00400638
-0.00254898
-0.000708465
0.000355431
0.00185166
0.00244227
0.00227406
0.0169696
0.0172419
0.0171416
0.0166982
0.0155222
0.0137638
0.0113629
0.00848526
0.00520763
0.00169004
-0.00193974
-0.00556899
-0.00912207
-0.0125643
-0.0158828
-0.0190835
-0.0221749
-0.0251621
-0.0280492
-0.0308251
-0.0334859
-0.036004
-0.0383737
-0.0405538
-0.0425443
-0.044293
-0.0458124
-0.0470409
-0.0480097
-0.0486488
-0.0490135
-0.0490251
-0.048767
-0.0481496
-0.0472876
-0.0460758
-0.0446628
-0.0429205
-0.0410345
-0.0388443
-0.0365776
-0.0340288
-0.0314771
-0.0286564
-0.025913
-0.0229031
-0.0200658
-0.0169601
-0.0141569
-0.0110917
-0.00851902
-0.00570243
-0.00362948
-0.00128976
8.23714e-05
0.00192536
0.0027776
0.00421423
0.00459289
0.00448819
0.0175068
0.0177585
0.0177252
0.0174243
0.0164611
0.014938
0.0127809
0.0101394
0.00707368
0.00373016
0.000225809
-0.00332321
-0.00683475
-0.0102604
-0.0135785
-0.0167849
-0.0198862
-0.0228829
-0.0257822
-0.0285692
-0.0312457
-0.0337785
-0.036169
-0.0383678
-0.0403838
-0.0421538
-0.0437015
-0.0449516
-0.0459492
-0.0466077
-0.0469989
-0.0470247
-0.0467877
-0.046176
-0.0453263
-0.0441079
-0.042695
-0.04093
-0.0390288
-0.0367966
-0.034497
-0.0318843
-0.0292809
-0.0263735
-0.0235614
-0.0204445
-0.0175281
-0.0143022
-0.011423
-0.00823707
-0.0056123
-0.00268865
-0.000612352
0.00181163
0.00311128
0.00500737
0.00567571
0.00713845
0.00734503
0.00734369
0.0180423
0.0182732
0.0182887
0.01812
0.017376
0.0161139
0.0142393
0.0118789
0.00907685
0.0059596
0.00263087
-0.000796999
-0.00423698
-0.00762883
-0.01094
-0.0141542
-0.0172732
-0.0202901
-0.0232141
-0.0260246
-0.0287297
-0.0312885
-0.0337115
-0.0359387
-0.0379906
-0.0397901
-0.0413753
-0.042654
-0.0436886
-0.0443724
-0.0447975
-0.0448424
-0.0446331
-0.0440306
-0.0431988
-0.0419758
-0.040567
-0.0387794
-0.0368647
-0.0345875
-0.0322535
-0.02957
-0.0269096
-0.0239042
-0.021014
-0.017774
-0.0147659
-0.0113998
-0.00843043
-0.00510107
-0.00241118
0.0006442
0.00273325
0.0052717
0.00650631
0.00850621
0.00900842
0.0105891
0.0106612
0.0108189
0.0185239
0.0187293
0.0187735
0.0187112
0.0181742
0.0171838
0.0156202
0.0135833
0.0110955
0.0082621
0.00516528
0.00190998
-0.00141917
-0.00474987
-0.0080405
-0.0112581
-0.0143992
-0.0174441
-0.0204047
-0.0232503
-0.0259972
-0.0285931
-0.031061
-0.0333262
-0.0354248
-0.0372616
-0.0388938
-0.0402074
-0.041287
-0.0420008
-0.0424665
-0.0425335
-0.0423572
-0.0417655
-0.0409553
-0.0397274
-0.0383247
-0.0365116
-0.0345831
-0.0322549
-0.0298833
-0.0271195
-0.0243956
-0.0212786
-0.0183006
-0.0149201
-0.0118077
-0.00828098
-0.00520829
-0.00171281
0.00105325
0.00426503
0.00637313
0.00905669
0.0102282
0.0123834
0.012726
0.0145214
0.0144853
0.0148738
0.0190005
0.019183
0.0192457
0.0192648
0.0189183
0.0182023
0.0169768
0.0153061
0.0131884
0.0106998
0.00789896
0.00487388
0.00170333
-0.00153374
-0.00478625
-0.0080035
-0.0111738
-0.0142607
-0.0172771
-0.0201775
-0.0229878
-0.0256402
-0.0281728
-0.0304921
-0.0326544
-0.0345415
-0.0362349
-0.0375933
-0.0387298
-0.039481
-0.0399971
-0.0400917
-0.0399565
-0.039379
-0.038597
-0.0373655
-0.0359735
-0.0341338
-0.0321938
-0.0298108
-0.0274011
-0.0245493
-0.0217581
-0.018518
-0.0154452
-0.0119088