/*--------------------------------*- C++ -*----------------------------------*\
| =========                 |                                                 |
| \\      /  F ield         | OpenFOAM: The Open Source CFD Toolbox           |
|  \\    /   O peration     | Version:  2406                                  |
|   \\  /    A nd           | Website:  www.openfoam.com                      |
|    \\/     M anipulation  |                                                 |
\*---------------------------------------------------------------------------*/
FoamFile
{
    version     2.0;
    format      ascii;
    arch        "LSB;label=32;scalar=64";
    class       volScalarField;
    location    "27.25";
    object      p;
}
// * * * * * * * * * * * * * * * * * * * * * * * * * * * * * * * * * * * * * //

dimensions      [0 2 -2 0 0 0 0];

internalField   nonuniform List<scalar> 
3600
(
0.0357274
0.0357384
0.035718
0.0356874
0.0356277
0.035556
0.0354638
0.0353605
0.0352415
0.0351099
0.0349627
0.0347986
0.0346154
0.0344097
0.0341799
0.0339229
0.0336393
0.033329
0.0329977
0.0326517
0.0323047
0.0319727
0.0316797
0.031451
0.0313158
0.0312992
0.0314235
0.0317006
0.0321325
0.0327063
0.0333947
0.0341534
0.0349234
0.0356335
0.0362058
0.0365653
0.0366483
0.036416
0.0358591
0.0350074
0.0339202
0.0326867
0.0314
0.030156
0.0290236
0.0280574
0.0272727
0.026677
0.0262431
0.0259546
0.0257674
0.0256675
0.0256115
0.0256017
0.0255993
0.0256243
0.0256387
0.025677
0.0256955
0.0257287
0.0357168
0.0357275
0.0357046
0.0356743
0.0356166
0.0355488
0.0354619
0.0353649
0.0352537
0.0351311
0.0349949
0.0348438
0.0346763
0.0344885
0.0342792
0.0340445
0.0337846
0.0334977
0.0331882
0.0328602
0.0325258
0.0321982
0.0318982
0.0316482
0.0314758
0.0314073
0.0314677
0.0316731
0.0320304
0.0325305
0.03315
0.0338469
0.0345644
0.0352321
0.0357728
0.0361109
0.0361823
0.0359471
0.0353955
0.0345575
0.0334937
0.0322949
0.0310562
0.0298735
0.0288134
0.0279254
0.0272173
0.0266889
0.0263068
0.0260526
0.0258824
0.0257864
0.0257247
0.0257044
0.0256882
0.0256997
0.0256987
0.0257244
0.0257287
0.025762
0.0357364
0.0357486
0.0357246
0.0356925
0.0356336
0.0355644
0.0354779
0.0353815
0.0352729
0.0351534
0.0350221
0.0348762
0.0347147
0.034532
0.0343264
0.0340913
0.0338255
0.0335243
0.0331898
0.0328234
0.0324352
0.032039
0.0316598
0.031326
0.0310721
0.0309299
0.0309284
0.0310857
0.0314099
0.0318922
0.032509
0.0332177
0.0339606
0.0346655
0.0352527
0.0356431
0.0357675
0.0355803
0.035066
0.0342502
0.0331921
0.0319848
0.0307296
0.0295308
0.0284637
0.0275839
0.0269014
0.0264141
0.026083
0.0258825
0.0257622
0.0257079
0.0256775
0.0256794
0.0256764
0.0256966
0.0256979
0.0257277
0.0257307
0.0257765
0.0357676
0.0357769
0.0357511
0.0357158
0.0356571
0.035588
0.0355052
0.035413
0.035312
0.0352006
0.0350798
0.034944
0.0347922
0.034615
0.0344084
0.0341607
0.0338664
0.0335156
0.0331078
0.0326441
0.0321391
0.0316125
0.0310961
0.0306232
0.0302328
0.0299592
0.0298344
0.0298787
0.0301029
0.0305009
0.0310524
0.0317188
0.0324462
0.0331656
0.0337994
0.0342672
0.0344961
0.0344324
0.0340507
0.033365
0.0324251
0.031318
0.0301437
0.0290101
0.0279986
0.0271713
0.026543
0.0261136
0.0258432
0.0257036
0.0256397
0.0256342
0.0256419
0.0256713
0.0256848
0.0257146
0.0257171
0.0257479
0.0257462
0.0257994
0.0358295
0.0358324
0.0358044
0.0357628
0.0357022
0.0356289
0.0355462
0.0354526
0.0353532
0.0352414
0.03512
0.0349779
0.0348122
0.0346064
0.0343514
0.0340274
0.0336249
0.0331312
0.0325499
0.0318886
0.0311719
0.0304288
0.0297003
0.0290266
0.0284518
0.0280127
0.0277426
0.0276622
0.0277835
0.0281025
0.0286026
0.0292497
0.0299959
0.0307776
0.0315214
0.0321476
0.0325792
0.0327521
0.0326255
0.0321935
0.0314864
0.0305751
0.0295511
0.028522
0.0275766
0.0267885
0.0261851
0.0257768
0.025531
0.025423
0.0253977
0.0254347
0.0254843
0.0255517
0.0255962
0.02565
0.0256684
0.0257106
0.0257133
0.0257726
0.0359113
0.0359037
0.035874
0.035825
0.0357646
0.035688
0.0356076
0.0355133
0.0354155
0.0352998
0.0351698
0.0350049
0.0347979
0.0345209
0.0341586
0.0336838
0.0330878
0.0323617
0.0315193
0.0305788
0.0295771
0.0285522
0.0275528
0.0266226
0.0258085
0.0251476
0.0246741
0.0244092
0.0243669
0.0245462
0.0249365
0.0255109
0.0262317
0.0270459
0.0278905
0.0286931
0.0293786
0.0298766
0.0301308
0.0301107
0.0298169
0.0292898
0.028597
0.0278321
0.0270819
0.0264276
0.0259098
0.0255533
0.025339
0.0252521
0.0252451
0.025301
0.0253719
0.0254605
0.0255252
0.025595
0.0256254
0.0256738
0.0256794
0.025737
0.0360185
0.0359964
0.035965
0.0359059
0.0358445
0.0357602
0.0356772
0.0355733
0.0354645
0.0353247
0.0351558
0.0349231
0.0346126
0.0341833
0.0336164
0.032883
0.0319834
0.0309194
0.0297211
0.0284204
0.0270679
0.0257109
0.0244053
0.0231978
0.0221364
0.0212559
0.0205881
0.0201507
0.0199562
0.0200037
0.020286
0.0207828
0.0214665
0.022297
0.0232263
0.0241957
0.0251411
0.0259947
0.0266926
0.0271834
0.027435
0.0274467
0.027246
0.0268937
0.0264607
0.0260275
0.0256486
0.0253683
0.0251889
0.025113
0.0251071
0.0251624
0.0252367
0.0253327
0.0254095
0.0254911
0.0255342
0.0255892
0.0256008
0.0256534
0.0361483
0.0361085
0.0360773
0.0360079
0.0359472
0.0358542
0.0357665
0.0356455
0.035512
0.0353226
0.0350753
0.034717
0.0342271
0.0335543
0.0326844
0.031595
0.0303038
0.0288291
0.0272206
0.0255244
0.0238048
0.0221153
0.0205156
0.0190503
0.0177636
0.0166837
0.0158366
0.0152341
0.0148856
0.0147884
0.0149376
0.0153182
0.0159125
0.0166934
0.0176301
0.018683
0.0198072
0.0209504
0.0220565
0.0230683
0.0239325
0.0246097
0.0250776
0.0253435
0.0254343
0.025405
0.0253076
0.0252015
0.0251151
0.025077
0.0250776
0.0251232
0.0251846
0.0252682
0.0253388
0.025416
0.0254601
0.0255123
0.0255254
0.0255683
0.0362916
0.0362304
0.0362003
0.0361177
0.0360552
0.0359459
0.0358422
0.0356839
0.0354949
0.0352093
0.034819
0.0342515
0.0334845
0.032464
0.0311909
0.0296586
0.0279101
0.0259844
0.023953
0.0218758
0.0198271
0.0178614
0.0160368
0.0143896
0.0129556
0.0117522
0.0107968
0.0100924
0.00964323
0.00944285
0.00948636
0.00976085
0.0102549
0.010951
0.0118324
0.0128772
0.014062
0.0153572
0.0167283
0.0181323
0.0195184
0.0208309
0.0220107
0.023009
0.0237895
0.0243479
0.0247007
0.0248991
0.0249915
0.0250382
0.0250659
0.0251058
0.0251497
0.0252114
0.0252653
0.0253281
0.025366
0.0254105
0.0254228
0.0254556
0.0364483
0.0363634
0.0363371
0.0362404
0.0361749
0.0360423
0.0359094
0.0356891
0.0354055
0.0349662
0.0343578
0.0334925
0.0323556
0.0309017
0.0291578
0.0271412
0.0249253
0.0225704
0.020167
0.0177815
0.0154901
0.01334
0.0113795
0.00963161
0.0081206
0.00685204
0.00583494
0.00506517
0.004543
0.0042592
0.00420892
0.00438045
0.00476624
0.00535433
0.00613689
0.0071037
0.00824771
0.00955948
0.0110285
0.0126375
0.0143588
0.0161499
0.0179483
0.019676
0.0212415
0.0225644
0.0235849
0.0242972
0.0247336
0.0249727
0.0250853
0.0251442
0.0251763
0.0252112
0.0252387
0.0252755
0.025296
0.0253244
0.0253304
0.0253526
0.0365913
0.03648
0.0364576
0.0363421
0.036266
0.036094
0.0359072
0.0355854
0.0351518
0.034486
0.0335748
0.0323231
0.030737
0.0287908
0.0265478
0.0240539
0.0214131
0.0187018
0.016021
0.0134332
0.0110068
0.00877365
0.00676831
0.00499825
0.00347677
0.00219911
0.0011683
0.000375044
-0.000182418
-0.000514934
-0.000626978
-0.000529738
-0.0002288
0.000266179
0.000951241
0.00182139
0.00287765
0.00412209
0.00556096
0.00719921
0.0090375
0.0110639
0.013244
0.015513
0.0177679
0.0198781
0.0217017
0.0231324
0.0241243
0.0247239
0.0250265
0.0251565
0.025198
0.025212
0.0252117
0.0252179
0.0252157
0.0252244
0.0252212
0.0252352
0.0367181
0.0365797
0.0365622
0.0364239
0.0363287
0.0360997
0.0358293
0.0353606
0.0347159
0.03375
0.0324591
0.0307537
0.0286734
0.0262224
0.023505
0.0205944
0.0176181
0.0146569
0.0118095
0.00912347
0.00665168
0.00440658
0.00240862
0.000651711
-0.000858547
-0.00213342
-0.00317215
-0.00398587
-0.0045757
-0.00495208
-0.00511779
-0.00508287
-0.00485119
-0.00443125
-0.00382564
-0.00303813
-0.00206586
-0.000903601
0.00046091
0.00204343
0.00386281
0.00593417
0.00825977
0.0108149
0.0135313
0.0162853
0.0188995
0.0211745
0.0229424
0.0241377
0.0248143
0.0251222
0.0252203
0.0252296
0.0252045
0.0251775
0.025148
0.0251333
0.0251177
0.0251249
0.0367817
0.036615
0.0365993
0.036429
0.0362985
0.0359856
0.0355921
0.034923
0.0340024
0.0326685
0.030939
0.0287429
0.0261638
0.023241
0.0201179
0.0168865
0.0136849
0.0105845
0.00767069
0.00496858
0.00251348
0.000299441
-0.0016639
-0.00339207
-0.00488295
-0.00615074
-0.00719407
-0.00802385
-0.00863913
-0.00904909
-0.00925441
-0.00926385
-0.00907989
-0.00871043
-0.00815785
-0.00742646
-0.00651452
-0.00541809
-0.00412591
-0.00262106
-0.000879285
0.00112788
0.0034281
0.00603624
0.008937
0.0120597
0.0152594
0.0183117
0.0209529
0.0229609
0.0242523
0.0249199
0.0251694
0.0252111
0.0251739
0.0251168
0.0250602
0.0250222
0.0249933
0.0249958
0.0367767
0.0365825
0.0365653
0.0363545
0.0361713
0.0357469
0.0351894
0.0342685
0.0330157
0.0312644
0.0290663
0.0263801
0.0233394
0.0200161
0.0165841
0.0131398
0.0098173
0.00666699
0.00375438
0.00108043
-0.00133504
-0.0035122
-0.00544737
-0.00716097
-0.00865055
-0.00993025
-0.0109959
-0.0118567
-0.0125086
-0.0129586
-0.0132049
-0.0132546
-0.0131086
-0.0127741
-0.0122534
-0.0115516
-0.0106692
-0.00960523
-0.00835278
-0.00689916
-0.00522371
-0.00329739
-0.00108417
0.00145298
0.00434099
0.00757094
0.0110716
0.01467
0.018094
0.0210084
0.0231448
0.0244226
0.0249978
0.0251477
0.0251242
0.0250442
0.0249621
0.0249005
0.0248581
0.0248555
0.0366408
0.0364189
0.0363923
0.0361277
0.0358686
0.0353006
0.0345373
0.033319
0.0316928
0.0295
0.0268366
0.0236981
0.0202662
0.0166372
0.0130013
0.00944439
0.00608538
0.00294694
7.40392e-05
-0.00255348
-0.00492638
-0.00707383
-0.00899351
-0.0107071
-0.0122095
-0.013513
-0.0146099
-0.0155072
-0.0161976
-0.0166862
-0.016969
-0.0170514
-0.0169331
-0.0166202
-0.0161153
-0.0154238
-0.0145484
-0.0134908
-0.0122492
-0.0108165
-0.0091795
-0.00731538
-0.0051916
-0.00276623
8.10655e-06
0.00316593
0.00670935
0.0105538
0.0145031
0.0182135
0.0212905
0.0234169
0.0245676
0.024974
0.0250167
0.0249306
0.0248276
0.0247426
0.0246871
0.024678
0.0363726
0.036125
0.0360813
0.0357515
0.0353952
0.0346563
0.0336531
0.032106
0.0300865
0.0274559
0.0243611
0.020835
0.0170998
0.0132632
0.00951668
0.00592374
0.00258144
-0.000515831
-0.00334042
-0.00592835
-0.00827561
-0.0104157
-0.0123441
-0.0140815
-0.0156185
-0.0169648
-0.018109
-0.0190553
-0.0197937
-0.0203273
-0.0206497
-0.0207649
-0.0206712
-0.0203738
-0.0198751
-0.0191806
-0.0182947
-0.017221
-0.0159624
-0.0145168
-0.0128794
-0.0110361
-0.0089642
-0.00662828
-0.00397922
-0.00096381
0.0024684
0.00631426
0.0104881
0.0147321
0.0186463
0.0217425
0.0237211
0.0246258
0.0248381
0.0247779
0.0246629
0.0245522
0.0244833
0.0244638
0.0359069
0.035634
0.0355624
0.035154
0.0346786
0.033745
0.0324772
0.0305872
0.0281782
0.0251408
0.0216734
0.017842
0.0138967
0.00994296
0.00616099
0.00258512
-0.000710524
-0.00375634
-0.00653675
-0.00909791
-0.0114365
-0.0135868
-0.0155403
-0.017315
-0.0188971
-0.0202937
-0.0214897
-0.0224873
-0.023274
-0.0238511
-0.0242106
-0.024355
-0.0242817
-0.0239948
-0.0234969
-0.0227929
-0.0218888
-0.0207891
-0.0195003
-0.0180238
-0.016362
-0.0145082
-0.0124513
-0.0101669
-0.00761525
-0.00474386
-0.00148196
0.00221881
0.00637213
0.0108422
0.0153338
0.0193201
0.0222845
0.0239484
0.0245388
0.0245549
0.0244506
0.0243101
0.0242262
0.0241909
0.0352592
0.034964
0.0348555
0.0343603
0.0337501
0.0326086
0.0310662
0.0288386
0.0260651
0.0226719
0.018904
0.014852
0.0107805
0.00678041
0.00301272
-0.000518923
-0.00376076
-0.0067625
-0.00951523
-0.0120704
-0.0144221
-0.0166031
-0.0185997
-0.0204273
-0.0220673
-0.0235244
-0.0247805
-0.0258357
-0.0266754
-0.0272991
-0.0276977
-0.0278717
-0.0278183
-0.02754
-0.02704
-0.0263222
-0.0253943
-0.024261
-0.022932
-0.0214106
-0.0197053
-0.0178147
-0.0157382
-0.0134621
-0.0109611
-0.00819399
-0.00509119
-0.00158407
0.00240645
0.00685442
0.0116165
0.0162507
0.0201804
0.0227923
0.024038
0.0242515
0.0241838
0.0240202
0.0239143
0.0238575
0.0343765
0.0340609
0.0339057
0.0333164
0.0325603
0.0312066
0.0293933
0.0268503
0.0237551
0.0200702
0.0160792
0.011887
0.00775987
0.00376628
4.43621e-05
-0.00343035
-0.00662011
-0.00958792
-0.0123272
-0.0148909
-0.0172687
-0.0194906
-0.021538
-0.0234229
-0.0251233
-0.0266416
-0.0279573
-0.0290686
-0.0299595
-0.0306275
-0.0310628
-0.0312642
-0.0312286
-0.030957
-0.0304534
-0.0297205
-0.0287682
-0.0276002
-0.0262298
-0.0246607
-0.0229061
-0.0209678
-0.0188534
-0.0165577
-0.0140691
-0.0113611
-0.00837702
-0.00505118
-0.00127509
0.00299898
0.00776929
0.0127491
0.017437
0.0210568
0.0231666
0.0238392
0.0238225
0.0236687
0.0235283
0.0234452
0.0333026
0.0329714
0.0327636
0.0320799
0.0311756
0.0296176
0.0275511
0.0247295
0.0213661
0.017458
0.0133167
0.00905164
0.00492038
0.000965546
-0.00269769
-0.00611715
-0.00926624
-0.012216
-0.0149589
-0.0175468
-0.0199644
-0.0222381
-0.0243447
-0.0262936
-0.0280597
-0.0296432
-0.0310218
-0.032192
-0.0331363
-0.0338505
-0.0343238
-0.034553
-0.0345353
-0.0342697
-0.0337616
-0.0330122
-0.0320338
-0.0308292
-0.0294155
-0.0277956
-0.0259878
-0.0239946
-0.0218305
-0.0194953
-0.0169892
-0.0142991
-0.0113853
-0.00819747
-0.00462418
-0.000584935
0.00402415
0.00907143
0.0142291
0.0187288
0.0218183
0.023217
0.0233698
0.0232284
0.0230715
0.0229442
0.0320059
0.0316629
0.0313975
0.0306215
0.0295722
0.0278258
0.0255335
0.0224784
0.0189045
0.0148397
0.0106119
0.00632768
0.00222887
-0.00166757
-0.00526735
-0.00863589
-0.0117538
-0.0146956
-0.0174514
-0.02007
-0.0225313
-0.0248582
-0.0270237
-0.0290346
-0.0308638
-0.0325096
-0.0339484
-0.0351746
-0.03617
-0.036928
-0.0374376
-0.0376929
-0.037692
-0.0374314
-0.0369183
-0.036152
-0.0351482
-0.0339079
-0.0324525
-0.0307836
-0.0289248
-0.0268775
-0.0246624
-0.0222811
-0.019743
-0.0170445
-0.0141623
-0.0110655
-0.00765508
-0.00384912
0.000518513
0.00543136
0.0107763
0.0158859
0.0199627
0.0222091
0.022831
0.0226483
0.0225353
0.0223293
0.0305605
0.0302125
0.0298893
0.0290296
0.0278466
0.0259367
0.0234539
0.0202153
0.0164884
0.0123269
0.00806425
0.00379943
-0.000245613
-0.0040768
-0.00761753
-0.0109452
-0.0140445
-0.0169901
-0.0197688
-0.0224255
-0.0249359
-0.0273193
-0.029546
-0.0316205
-0.0335142
-0.0352234
-0.0367238
-0.0380072
-0.0390552
-0.039858
-0.0404051
-0.0406872
-0.0407038
-0.040448
-0.0399301
-0.0391464
-0.0381169
-0.03684
-0.035343
-0.033625
-0.0317156
-0.0296145
-0.0273484
-0.0249182
-0.0223409
-0.0196181
-0.0167402
-0.0136938
-0.0103995
-0.00679153
-0.0026811
0.00198676
0.00728514
0.0127142
0.0176165
0.0207537
0.0221187
0.0219405
0.021885
0.0215962
0.0289537
0.0286062
0.0282256
0.0272922
0.0259898
0.023944
0.0213078
0.0179341
0.0141053
0.00989637
0.00563783
0.00141855
-0.00256078
-0.00632456
-0.00981085
-0.0131041
-0.016191
-0.0191445
-0.0219477
-0.0246414
-0.027198
-0.0296334
-0.0319165
-0.0340492
-0.0360025
-0.0377703
-0.0393282
-0.0406651
-0.0417628
-0.0426078
-0.0431906
-0.0434978
-0.043531
-0.0432794
-0.0427568
-0.0419558
-0.0409017
-0.0395895
-0.038053
-0.0362881
-0.0343317
-0.0321801
-0.0298673
-0.0273912
-0.0247759
-0.022024
-0.0191369
-0.016114
-0.0128964
-0.00944166
-0.00556668
-0.00118206
0.00390829
0.00941135
0.0148512
0.0188757
0.0210558
0.0211402
0.0210524
0.020739
0.0272819
0.0269433
0.02651
0.0255177
0.0241147
0.0219648
0.0192139
0.0157517
0.0118665
0.00765043
0.0034239
-0.00073423
-0.0046445
-0.00834489
-0.0117852
-0.0150529
-0.0181355
-0.0211023
-0.0239337
-0.0266657
-0.0292687
-0.0317554
-0.0340938
-0.0362834
-0.0382955
-0.0401211
-0.0417364
-0.0431265
-0.0442743
-0.0451617
-0.0457807
-0.0461133
-0.0461639
-0.0459168
-0.0453906
-0.0445728
-0.0434953
-0.0421485
-0.040574
-0.0387633
-0.0367621
-0.0345621
-0.0322058
-0.0296867
-0.0270365
-0.0242556
-0.0213542
-0.0183394
-0.01517
-0.011828
-0.00814977
-0.00404341
0.000755311
0.00614163
0.0118226
0.0166199
0.0195708
0.0202337
0.0200209
0.019749
0.0255393
0.0252159
0.0247345
0.0236965
0.0222112
0.0199861
0.0171543
0.0136419
0.00973477
0.00553981
0.0013622
-0.00272702
-0.0065688
-0.0102095
-0.0136091
-0.0168542
-0.0199338
-0.0229118
-0.0257674
-0.0285317
-0.0311743
-0.0337044
-0.0360906
-0.0383296
-0.0403935
-0.0422702
-0.0439371
-0.045375
-0.0465684
-0.047494
-0.0481465
-0.0485019
-0.0485689
-0.0483254
-0.0477961
-0.0469622
-0.0458636
-0.0444841
-0.0428751
-0.0410217
-0.0389801
-0.0367356
-0.0343413
-0.0317843
-0.0291053
-0.0263
-0.0233863
-0.0203746
-0.0172371
-0.0139784
-0.0104564
-0.00660287
-0.00211709
0.00301514
0.00870726
0.0140367
0.0177082
0.0191023
0.0188189
0.0185862
0.0238323
0.023533
0.0230114
0.0219439
0.0203965
0.0181256
0.0152454
0.0117175
0.00781743
0.00366521
-0.000452868
-0.00447082
-0.0082485
-0.0118362
-0.0152022
-0.0184303
-0.0215103
-0.0245007
-0.02738
-0.0301746
-0.0328542
-0.0354245
-0.0378555
-0.0401405
-0.0422535
-0.0441784
-0.0458947
-0.0473781
-0.0486155
-0.0495778
-0.0502631
-0.0506408
-0.0507246
-0.0504853
-0.0499547
-0.0491063
-0.0479893
-0.0465796
-0.0449399
-0.0430467
-0.040969
-0.0386837
-0.0362564
-0.0336659
-0.0309643
-0.0281395
-0.0252189
-0.0222109
-0.0190985
-0.0159044
-0.012505
-0.00887224
-0.00468489
0.000109998
0.0056549
0.0112224
0.0155531
0.0176385
0.0175002
0.0172245
0.0221481
0.0218784
0.0213231
0.0202388
0.0186455
0.0163519
0.0134475
0.00992828
0.00605312
0.001955
-0.00210076
-0.00604929
-0.0097681
-0.0133071
-0.0166424
-0.0198529
-0.0229304
-0.0259273
-0.028823
-0.0316388
-0.0343462
-0.0369468
-0.0394131
-0.0417343
-0.0438875
-0.0458515
-0.0476092
-0.04913
-0.0504051
-0.0513977
-0.0521116
-0.0525074
-0.0526063
-0.0523695
-0.0518384
-0.0509764
-0.0498443
-0.0484073
-0.0467417
-0.0448131
-0.0427054
-0.0403842
-0.0379305
-0.0353121
-0.0325952
-0.0297573
-0.0268374
-0.0238375
-0.0207512
-0.0176119
-0.0143124
-0.0108684
-0.00695093
-0.00252646
0.00276533
0.00830926
0.0131808
0.0158338
0.0160853
0.0156655
0.0205923
0.0203604
0.0197809
0.0186946
0.0170728
0.0147795
0.011874
0.0083857
0.00455095
0.000515805
-0.00347673
-0.00735948
-0.011026
-0.0145225
-0.0178323
-0.0210278
-0.0241036
-0.0271057
-0.0300154
-0.0328488
-0.03558
-0.0382062
-0.0407033
-0.0430557
-0.0452444
-0.0472425
-0.0490372
-0.050591
-0.0519003
-0.0529198
-0.0536603
-0.0540725
-0.0541865
-0.0539525
-0.0534232
-0.0525497
-0.0514067
-0.0499463
-0.0482605
-0.0463014
-0.0441702
-0.0418183
-0.0393451
-0.0367041
-0.0339792
-0.031134
-0.0282229
-0.0252364
-0.0221814
-0.0190932
-0.0158815
-0.0125986
-0.00892207
-0.00486428
0.000103175
0.00543309
0.0106571
0.0137458
0.0145271
0.0139181
0.0191333
0.0189432
0.0183466
0.0172681
0.0156299
0.013352
0.0104598
0.00701463
0.00322635
-0.000744831
-0.00467862
-0.00850142
-0.0121219
-0.015579
-0.0188641
-0.0220415
-0.0251103
-0.0281094
-0.0310241
-0.0338644
-0.0366089
-0.0392492
-0.0417661
-0.044138
-0.0463515
-0.0483723
-0.0501941
-0.0517705
-0.0531057
-0.0541438
-0.054905
-0.055328
-0.0554543
-0.0552207
-0.0546936
-0.0538094
-0.0526589
-0.0511784
-0.0494783
-0.0474937
-0.0453461
-0.0429693
-0.0404844
-0.0378263
-0.0351014
-0.0322544
-0.0293607
-0.0263932
-0.0233772
-0.0203397
-0.0172118
-0.0140678
-0.010608
-0.00689115
-0.00229137
0.00270477
0.00805495
0.0114524
0.012759
0.0119959
0.0178718
0.01773
0.0171266
0.0160686
0.014428
0.0121819
0.00931858
0.00592981
0.00219558
-0.00170933
-0.00558736
-0.00935567
-0.0129365
-0.0163597
-0.0196237
-0.0227843
-0.0258459
-0.02884
-0.0317567
-0.0345999
-0.0373533
-0.0400023
-0.0425338
-0.0449191
-0.0471517
-0.0491887
-0.051032
-0.0526249
-0.0539812
-0.055033
-0.0558122
-0.0562431
-0.0563815
-0.056148
-0.0556256
-0.0547329
-0.05358
-0.0520837
-0.0503762
-0.0483717
-0.0462157
-0.04382
-0.0413314
-0.038662
-0.0359448
-0.0331011
-0.0302327
-0.0272889
-0.0243202
-0.0213348
-0.018292
-0.0152703
-0.0120088
-0.00859879
-0.00438612
0.000209749
0.00547052
0.00904729
0.0107788
0.00994616
0.0167499
0.0166578
0.0160551
0.0150244
0.0133898
0.0111844
0.00835759
0.00503023
0.00135013
-0.0024921
-0.00632133
-0.0100418
-0.0135888
-0.0169801
-0.0202225
-0.0233619
-0.0264099
-0.0293898
-0.0322989
-0.0351335
-0.0378848
-0.0405303
-0.0430648
-0.0454508
-0.0476908
-0.0497314
-0.0515853
-0.053183
-0.0545512
-0.055607
-0.0563973
-0.0568293
-0.0569763
-0.0567393
-0.0562217
-0.0553203
-0.0541683
-0.0526588
-0.0509496
-0.0489297
-0.0467726
-0.0443632
-0.0418787
-0.0392027
-0.0365008
-0.0336643
-0.0308285
-0.0279117
-0.0249979
-0.0220658
-0.0191115
-0.0161999
-0.0131224
-0.00998376
-0.0061569
-0.00198975
0.00301252
0.00663763
0.00866679
0.00785032
0.0158647
0.0158264
0.0152352
0.0142432
0.0126268
0.0104742
0.00769565
0.00443881
0.000817919
-0.00296094
-0.00674438
-0.0104221
-0.0139409
-0.0173049
-0.020529
-0.0236488
-0.0266831
-0.0296474
-0.0325467
-0.0353692
-0.0381147
-0.0407517
-0.0432845
-0.0456651
-0.0479071
-0.0499447
-0.0518035
-0.0533995
-0.0547749
-0.0558293
-0.0566279
-0.0570576
-0.0572129
-0.0569716
-0.0564613
-0.055553
-0.054407
-0.0528881
-0.0511843
-0.049154
-0.0470039
-0.044586
-0.0421136
-0.0394356
-0.0367562
-0.0339301
-0.0311334
-0.0282456
-0.025393
-0.0225146
-0.0196528
-0.016842
-0.0139376
-0.0110375
-0.00758065
-0.00384431
0.000787065
0.00433813
0.00654876
0.00580637
0.0151271
0.0151405
0.0145685
0.0136203
0.0120292
0.00993478
0.0072098
0.00402615
0.000463812
-0.00325529
-0.006999
-0.0106396
-0.0141349
-0.017473
-0.0206779
-0.0237731
-0.0267876
-0.029727
-0.032607
-0.0354061
-0.0381352
-0.0407516
-0.0432717
-0.0456344
-0.0478674
-0.0498894
-0.0517428
-0.0533254
-0.0546991
-0.055742
-0.0565423
-0.0569622
-0.0571221
-0.056872
-0.0563685
-0.0554518
-0.0543142
-0.0527869
-0.0510933
-0.0490551
-0.0469181
-0.0444948
-0.0420408
-0.0393632
-0.0367121
-0.0338973
-0.0311445
-0.0282853
-0.025498
-0.0226714
-0.0199046
-0.0171861
-0.014445
-0.0117531
-0.0086413
-0.00531863
-0.00112038
0.00225345
0.00454617
0.00390345
0.0146374
0.0147032
0.0141619
0.0132684
0.0117154
0.00968998
0.00703005
0.00392863
0.000431742
-0.00322482
-0.00692905
-0.0105357
-0.0140116
-0.0173284
-0.0205178
-0.0235911
-0.0265873
-0.0295019
-0.0323623
-0.0351362
-0.0378471
-0.0404394
-0.042944
-0.0452842
-0.0475045
-0.0495056
-0.0513498
-0.0529135
-0.054282
-0.0553088
-0.0561089
-0.0565158
-0.0566805
-0.0564205
-0.0559265
-0.0550022
-0.0538779
-0.0523446
-0.0506675
-0.0486248
-0.0465077
-0.044082
-0.0416531
-0.0389778
-0.0363603
-0.0335569
-0.0308518
-0.0280189
-0.0252997
-0.0225208
-0.0198503
-0.0172149
-0.0146287
-0.0121174
-0.00932225
-0.00638373
-0.00264472
0.000472886
0.00275901
0.00221688
0.0142705
0.0143824
0.0138793
0.0130449
0.0115386
0.00958711
0.00699883
0.0039841
0.00055548
-0.00303833
-0.00670546
-0.0102808
-0.0137405
-0.0170363
-0.0202096
-0.0232563
-0.0262289
-0.0291103
-0.0319429
-0.034681
-0.0373646
-0.0399218
-0.0424018
-0.0447083
-0.0469073
-0.0488764
-0.0507033
-0.0522376
-0.0535941
-0.0545955
-0.05539
-0.0557765
-0.055943
-0.0556676
-0.0551824
-0.0542473
-0.0531378
-0.0515971
-0.0499396
-0.0478918
-0.0457985
-0.0433698
-0.0409698
-0.0382952
-0.0357143
-0.0329188
-0.0302629
-0.0274507
-0.0247994
-0.0220608
-0.0194849
-0.0169213
-0.0144807
-0.0121232
-0.00961484
-0.00702223
-0.00374381
-0.000935731
0.00126163
0.000805597
0.0141418
0.0142965
0.0138425
0.0130783
0.011634
0.00976808
0.00726533
0.00434899
0.00100027
-0.00252315
-0.00614834
-0.00969184
-0.0131374
-0.0164163
-0.0195782
-0.0226031
-0.0255563
-0.0284071
-0.0312146
-0.0339178
-0.0365754
-0.0390967
-0.0415524
-0.0438233
-0.0460007
-0.0479351
-0.0497439
-0.0512457
-0.0525896
-0.0535625
-0.0543518
-0.0547154
-0.0548852
-0.0545934
-0.0541199
-0.053174
-0.0520836
-0.0505361
-0.0489035
-0.046851
-0.0447868
-0.0423548
-0.0399881
-0.037312
-0.0347706
-0.0319784
-0.0293723
-0.0265733
-0.0239885
-0.0212801
-0.0187955
-0.0162903
-0.0139863
-0.0117564
-0.00950665
-0.00721744
-0.00438595
-0.0019171
0.000115885
-0.000276078
0.0140829
0.01427
0.0138715
0.0131816
0.0118106
0.0100375
0.00763057
0.00482185
0.00156239
-0.00188323
-0.00546222
-0.00897117
-0.0124025
-0.0156632
-0.0188131
-0.0218121
-0.0247426
-0.0275557
-0.0303323
-0.0329915
-0.0356167
-0.0380928
-0.0405183
-0.0427446
-0.044895
-0.0467862
-0.0485725
-0.0500336
-0.0513612
-0.0522979
-0.0530792
-0.0534132
-0.0535847
-0.0532705
-0.0528086
-0.0518468
-0.0507764
-0.0492176
-0.0476113
-0.0455498
-0.0435164
-0.0410757
-0.0387435
-0.036059
-0.0335569
-0.0307589
-0.0282005
-0.0254029
-0.0228803
-0.0201875
-0.0177881
-0.0153238
-0.0131456
-0.0110157
-0.00899679
-0.00696443
-0.00455473
-0.00243191
-0.000628554
-0.000980579
0.0142421
0.0144555
0.0141201
0.0135147
0.0122347
0.0105682
0.00827411
0.00558849
0.00243576
-0.000917692
-0.00443859
-0.00790681
-0.0113221
-0.0145674
-0.017711
-0.020691
-0.0236063
-0.0263883
-0.0291408
-0.0317607
-0.0343588
-0.0367926
-0.0391922
-0.0413755
-0.0435029
-0.0453515
-0.0471187
-0.0485391
-0.0498536
-0.0507536
-0.0515302
-0.0518337
-0.0520105
-0.051673
-0.0512266
-0.0502479
-0.0492019
-0.0476304
-0.0460547
-0.0439816
-0.0419825
-0.039529
-0.0372335
-0.034534
-0.0320714
-0.0292576
-0.0267447
-0.0239347
-0.0214694
-0.0187752
-0.0164538
-0.0140103
-0.0119469
-0.00988857
-0.00807533
-0.00625235
-0.00423285
-0.00244336
-0.000920305
-0.00125399
0.0143969
0.0146242
0.0143541
0.0138365
0.0126608
0.0111121
0.00894563
0.00639884
0.00337032
0.000126607
-0.00332234
-0.006738
-0.0101315
-0.0133556
-0.0164917
-0.0194489
-0.0223482
-0.0250938
-0.0278202
-0.0303941
-0.0329627
-0.0353472
-0.0377191
-0.039853
-0.0419566
-0.0437566
-0.0455049
-0.0468787
-0.0481807
-0.0490383
-0.0498109
-0.050078
-0.050261
-0.0498939
-0.049464
-0.0484617
-0.0474409
-0.0458492
-0.0443047
-0.0422115
-0.0402468
-0.0377702
-0.0355103
-0.0327833
-0.0303575
-0.0275125
-0.0250401
-0.0221991
-0.0197839
-0.0170663
-0.0148136
-0.0123659
-0.010405
-0.00838631
-0.00675347
-0.00508877
-0.00342006
-0.0019306
-0.000717634
-0.00104866
0.014754
0.0149895
0.0147851
0.0143623
0.0133067
0.0118915
0.00987121
0.00748183
0.0045997
0.0014871
-0.00186988
-0.0052189
-0.00858265
-0.011785
-0.0149186
-0.0178614
-0.0207561
-0.0234763
-0.0261887
-0.0287261
-0.0312759
-0.0336184
-0.0359719
-0.038062
-0.0401502
-0.0419061
-0.0436433
-0.044974
-0.0462708
-0.0470881
-0.0478635
-0.048095
-0.0482904
-0.0478934
-0.0474856
-0.046458
-0.0454675
-0.0438523
-0.0423434
-0.0402247
-0.0382973
-0.0357897
-0.0335664
-0.0308004
-0.0284101
-0.0255182
-0.0230822
-0.0201899
-0.0178176
-0.015052
-0.0128588
-0.0103792
-0.00850921
-0.00649711
-0.00502278
-0.00346562
-0.00210642
-0.000868639
2.772e-05
-0.000307005
0.0150177
0.0152504
0.0151074
0.0147802
0.0138565
0.0125899
0.0107346
0.00852556
0.00581535
0.00286351
-0.000375574
-0.00363272
-0.00695118
-0.0101178
-0.0132447
-0.0161674
-0.019059
-0.0217507
-0.024452
-0.0269496
-0.0294837
-0.0317802
-0.0341189
-0.0361614
-0.0382387
-0.0399469
-0.0416781
-0.042962
-0.0442589
-0.0450316
-0.0458147
-0.0460052
-0.0462171
-0.0457832
-0.0454009
-0.0443394
-0.0433815
-0.0417324
-0.0402602
-0.0381034
-0.0362133
-0.0336594
-0.0314712
-0.0286479
-0.0262896
-0.0233288
-0.0209235
-0.017954
-0.0156168
-0.0127738
-0.0106307
-0.00808668
-0.00629639
-0.00425287
-0.00291595
-0.00141034
-0.000313856
0.000739646
0.00134163
0.0010088
0.0154891
0.0157169
0.0156266
0.0153947
0.01461
0.0135059
0.011832
0.0098224
0.00730751
0.00454272
0.00144855
-0.00169345
-0.00495049
-0.00807368
-0.0111957
-0.0141059
-0.0170088
-0.0196868
-0.0223955
-0.0248684
-0.0274043
-0.0296675
-0.0320068
-0.0340115
-0.0360915
-0.0377599
-0.0394978
-0.040741
-0.0420495
-0.042782
-0.0435832
-0.0437352
-0.0439728
-0.0435025
-0.0431535
-0.0420563
-0.0411376
-0.0394501
-0.0380197
-0.0358175
-0.0339682
-0.0313569
-0.0292052
-0.0263089
-0.0239811
-0.0209304
-0.0185512
-0.0154775
-0.0131682
-0.0102157
-0.00811411
-0.00546994
-0.00375066
-0.00163604
-0.000421787
0.00108668
0.00196102
0.00290523
0.00325722
0.00294537
0.0157667
0.0159811
0.0159352
0.0157943
0.0151551
0.0142301
0.0127594
0.0109794
0.00869232
0.00615675
0.00324615
0.000261663
-0.00290462
-0.00595634
-0.00906188
-0.0119478
-0.0148644
-0.0175263
-0.0202513
-0.0226998
-0.025248
-0.0274782
-0.0298286
-0.031795
-0.0338884
-0.0355155
-0.0372706
-0.0384707
-0.0398011
-0.0404895
-0.0413182
-0.0414258
-0.0416975
-0.0411825
-0.0408736
-0.0397297
-0.0388556
-0.037116
-0.0357313
-0.0334667
-0.0316604
-0.0289715
-0.0268566
-0.0238632
-0.0215643
-0.0183951
-0.0160386
-0.0128278
-0.0105421
-0.00744302
-0.00537915
-0.00259444
-0.000942828
0.00128874
0.00239038
0.00396484
0.00465782
0.00558604
0.00575745
0.00550145
0.0162946
0.0164974
0.0164819
0.0164207
0.0159186
0.0151765
0.0139173
0.0123822
0.0103423
0.00806223
0.0053646
0.00256826
-0.000482671
-0.00344536
-0.00652947
-0.00939393
-0.0123384
-0.0150008
-0.0177658
-0.0202107
-0.0227965
-0.0250122
-0.0273967
-0.0293396
-0.0314662
-0.0330636
-0.0348533
-0.0360191
-0.0373869
-0.0380376
-0.0389077
-0.0389749
-0.0392926
-0.0387341
-0.0384758
-0.0372836
-0.0364628
-0.0346664
-0.0333345
-0.0309992
-0.0292411
-0.0264615
-0.0243863
-0.0212769
-0.0190071
-0.0156936
-0.0133569
-0.00997573
-0.00770875
-0.00442305
-0.00239265
0.000577777
0.0021624
0.0045602
0.00554903
0.00725029
0.00778278
0.00878455
0.00884547
0.00869303
0.0165116
0.0166953
0.0167038
0.016714
0.0163495
0.0158054
0.014781
0.0135284
0.0117744
0.00980409
0.00736897
0.00482142
0.00193051
-0.000895524
-0.00393465
-0.00675305
-0.00972477
-0.0123815
-0.0152005
-0.0176446
-0.0202873
-0.0224932
-0.0249318
-0.0268544
-0.0290331
-0.0306015
-0.0324432
-0.0335728
-0.0349942
-0.0356024
-0.0365287
-0.0365476
-0.0369247
-0.0363116
-0.0361158
-0.0348606
-0.0341036
-0.0322319
-0.0309619
-0.0285335
-0.0268312
-0.0239344
-0.0219051
-0.0186486
-0.0164126
-0.0129191
-0.0106066
-0.00701465
-0.00477234
-0.0012555
0.000731605
0.00393672
0.00543978
0.00806103
0.00892411
0.0108293
0.0112151
0.0124049
0.0124339
0.0124514
0.017072
0.0172422
0.0172597
0.0173212
0.0170664
0.0167052
0.0159068
0.0149411
0.0134814
0.0118399
0.00969033
0.00742257
0.00471951
0.0020568
-0.000924016
-0.00368945
-0.00669782
-0.00936183
-0.0122607
-0.0147269
-0.0174586
-0.0196788
-0.0222021
-0.0241251
-0.0263827
-0.0279382
-0.0298548
-0.0309603
-0.0324548
-0.0330293
-0.0340286
-0.0340049
-0.0344561
-0.0337911
-0.0336704
-0.0323519
-0.0316694
-0.0297187
-0.0285197
-0.0259905
-0.0243513
-0.0213244
-0.019346
-0.0159229
-0.0137234
-0.0100218