/*--------------------------------*- C++ -*----------------------------------*\
| =========                 |                                                 |
| \\      /  F ield         | OpenFOAM: The Open Source CFD Toolbox           |
|  \\    /   O peration     | Version:  2406                                  |
|   \\  /    A nd           | Website:  www.openfoam.com                      |
|    \\/     M anipulation  |                                                 |
\*---------------------------------------------------------------------------*/
FoamFile
{
    version     2.0;
    format      ascii;
    arch        "LSB;label=32;scalar=64";
    class       surfaceScalarField;
    location    "16.4";
    object      phi_0;
}
// * * * * * * * * * * * * * * * * * * * * * * * * * * * * * * * * * * * * * //

dimensions      [0 3 -1 0 0 0 0];

oriented        oriented;

internalField   nonuniform List<scalar> 
1740
(
7.36992e-07
-7.36984e-07
7.90499e-07
-5.35071e-08
-8.98441e-08
8.80344e-07
-1.74427e-06
1.65442e-06
-4.31965e-06
2.57538e-06
-8.13817e-06
3.81852e-06
-1.36371e-05
5.49891e-06
-2.14079e-05
7.77079e-06
-3.22539e-05
1.08461e-05
-4.70967e-05
1.48428e-05
-6.65918e-05
1.94951e-05
-9.05708e-05
2.3979e-05
-0.000117566
2.69947e-05
-0.000144126
2.656e-05
-0.000165446
2.13205e-05
-0.000176395
1.0949e-05
-0.000172717
-3.67812e-06
-0.000152369
-2.03481e-05
-0.000115535
-3.68342e-05
-6.62285e-05
-4.93061e-05
-1.21939e-05
-5.40347e-05
3.63548e-05
-4.85487e-05
6.93499e-05
-3.29951e-05
8.1018e-05
-1.16681e-05
7.35389e-05
7.47906e-06
5.55309e-05
1.8008e-05
3.58148e-05
1.97161e-05
1.89931e-05
1.68217e-05
6.54419e-06
1.24489e-05
6.54419e-06
-1.00464e-06
2.67652e-07
-4.4799e-06
3.42176e-06
-1.01905e-05
6.59092e-06
-1.79228e-05
9.38679e-06
-2.82454e-05
1.28979e-05
-4.21489e-05
1.7722e-05
-6.0931e-05
2.42811e-05
-8.61722e-05
3.3012e-05
-0.000119434
4.41077e-05
-0.000161419
5.68278e-05
-0.000210886
6.89626e-05
-0.000263965
7.7058e-05
-0.00031452
7.75489e-05
-0.000355991
6.80317e-05
-0.000382881
4.82107e-05
-0.000391696
1.97634e-05
-0.000380301
-1.50726e-05
-0.000347351
-5.32986e-05
-0.000294122
-9.00628e-05
-0.00022335
-0.000120078
-0.00014068
-0.000136705
-5.57709e-05
-0.000133458
1.86915e-05
-0.000107457
6.95527e-05
-6.25294e-05
8.96944e-05
-1.26626e-05
8.33498e-05
2.43527e-05
6.19589e-05
4.1107e-05
3.61585e-05
4.26221e-05
1.29417e-05
3.56657e-05
1.94859e-05
-4.21411e-06
4.48176e-06
-1.33047e-05
1.25124e-05
-2.5461e-05
1.87472e-05
-4.06274e-05
2.45532e-05
-5.99612e-05
3.22318e-05
-8.5233e-05
4.29937e-05
-0.000118612
5.76604e-05
-0.000162261
7.66609e-05
-0.0002174
9.92461e-05
-0.000283048
0.000122476
-0.000355026
0.000140941
-0.000426288
0.00014832
-0.000489353
0.000140614
-0.000538845
0.000117523
-0.00057158
8.09463e-05
-0.00058569
3.38731e-05
-0.000580294
-2.04689e-05
-0.000554495
-7.90973e-05
-0.000507183
-0.000137375
-0.000437825
-0.000189437
-0.000347662
-0.000226867
-0.000241891
-0.000239229
-0.000132275
-0.000217073
-3.64019e-05
-0.000158403
2.75248e-05
-7.65893e-05
5.37385e-05
-1.86107e-06
5.14372e-05
4.34083e-05
3.42699e-05
5.97894e-05
1.32016e-05
5.6734e-05
3.26875e-05
-8.138e-06
1.26198e-05
-2.35222e-05
2.78966e-05
-4.26245e-05
3.78494e-05
-6.55777e-05
4.75064e-05
-9.42619e-05
6.0916e-05
-0.00013141
8.01418e-05
-0.000180162
0.000106413
-0.000243131
0.00013963
-0.000320647
0.000176762
-0.000408447
0.000210275
-0.000497459
0.000229953
-0.000577772
0.000228633
-0.0006431
0.000205943
-0.000691206
0.000165628
-0.000722217
0.000111958
-0.000737234
4.889e-05
-0.000736869
-2.08337e-05
-0.000722175
-9.37909e-05
-0.000690636
-0.000168914
-0.000638319
-0.000241754
-0.000560675
-0.000304511
-0.000454981
-0.000344923
-0.000325554
-0.0003465
-0.000188056
-0.000295901
-7.03223e-05
-0.000194323
2.22593e-07
-7.2406e-05
2.39753e-05
1.96556e-05
2.18152e-05
6.19495e-05
9.2512e-06
6.9298e-05
4.19387e-05
-1.2244e-05
2.48637e-05
-3.37902e-05
4.94428e-05
-5.95591e-05
6.36183e-05
-9.00491e-05
7.79965e-05
-0.000128131
9.89983e-05
-0.000177894
0.000129904
-0.000243589
0.000172108
-0.000327098
0.000223139
-0.000424174
0.000273838
-0.000523208
0.000309308
-0.000610754
0.0003175
-0.000678984
0.000296862
-0.000726538
0.000253497
-0.000755981
0.000195072
-0.000772063
0.000128039
-0.000779266
5.60933e-05
-0.000780851
-1.92489e-05
-0.000778125
-9.65169e-05
-0.000769323
-0.000177715
-0.000749188
-0.000261889
-0.000708642
-0.000345057
-0.000636478
-0.000417087
-0.000523257
-0.000459721
-0.000370766
-0.000448392
-0.000203658
-0.000361431
-6.95654e-05
-0.000206498
-5.35536e-06
-4.45544e-05
8.79672e-06
4.77974e-05
5.41509e-06
7.26796e-05
4.73538e-05
-1.60652e-05
4.09289e-05
-4.30869e-05
7.64645e-05
-7.48213e-05
9.53527e-05
-0.000112424
0.000115599
-0.000160138
0.000146712
-0.000223392
0.000193158
-0.000305771
0.000254487
-0.000404039
0.000321407
-0.000505429
0.000375229
-0.000593076
0.000396956
-0.000656199
0.000380622
-0.000693816
0.00033448
-0.000710868
0.000270549
-0.000714443
0.000198646
-0.000711269
0.000124865
-0.000706739
5.15632e-05
-0.000705431
-2.05562e-05
-0.000708218
-9.37299e-05
-0.000716459
-0.000169475
-0.000727513
-0.000250834
-0.000733018
-0.000339552
-0.000717639
-0.000432465
-0.000661168
-0.000516193
-0.000546076
-0.000563485
-0.000371471
-0.000536036
-0.00017684
-0.00040113
-4.1573e-05
-0.000179821
7.561e-07
5.46834e-06
3.65572e-06
6.978e-05
5.10095e-05
-1.91738e-05
6.01027e-05
-5.06461e-05
0.000107937
-8.74316e-05
0.000132138
-0.00013158
0.000159747
-0.000188571
0.000203704
-0.000263555
0.000268142
-0.0003558
0.000346732
-0.000454172
0.00041978
-0.000540175
0.000461231
-0.000599214
0.000455995
-0.000628911
0.000410319
-0.00063613
0.000341699
-0.000630259
0.000264678
-0.000619328
0.000187716
-0.000607748
0.000113285
-0.000597823
4.16378e-05
-0.000590822
-2.75568e-05
-0.00058896
-9.55918e-05
-0.000595777
-0.000162659
-0.000614173
-0.000232438
-0.00064322
-0.000310506
-0.000673387
-0.000402298
-0.000683961
-0.000505619
-0.000644063
-0.000603382
-0.000525476
-0.000654623
-0.000327445
-0.000599161
-0.000113788
-0.000393478
-6.85546e-06
-0.000101464
3.253e-06
5.96716e-05
5.42625e-05
-2.12503e-05
8.13529e-05
-5.58923e-05
0.000142579
-9.65565e-05
0.000172802
-0.000146004
0.000209195
-0.000209876
0.000267576
-0.00029068
0.000348945
-0.000381614
0.000437666
-0.000465994
0.000504159
-0.000526167
0.000521404
-0.000555697
0.000485525
-0.000561729
0.000416351
-0.00055661
0.00033658
-0.000549909
0.000257977
-0.000545265
0.000183072
-0.000541502
0.000109522
-0.000536022
3.61573e-05
-0.000527245
-3.63338e-05
-0.000516843
-0.000105994
-0.000508629
-0.000170872
-0.000509274
-0.000231793
-0.000526032
-0.000293747
-0.00056152
-0.00036681
-0.000605744
-0.000461395
-0.000631847
-0.000577279
-0.000598144
-0.000688326
-0.000464319
-0.000732986
-0.000237697
-0.0006201
-3.85197e-05
-0.000300641
5.39992e-06
1.5752e-05
5.96624e-05
-2.20199e-05
0.000103373
-5.8297e-05
0.000178856
-0.000101232
0.000215738
-0.000153645
0.000261607
-0.000219978
0.000333909
-0.000298944
0.000427912
-0.000379177
0.000517899
-0.000443241
0.000568223
-0.000479478
0.000557641
-0.000490922
0.000496969
-0.000491632
0.000417061
-0.000494212
0.000339161
-0.000502935
0.0002667
-0.000514499
0.000194636
-0.000523078
0.000118101
-0.000524223
3.73023e-05
-0.000516022
-4.45348e-05
-0.000499493
-0.000122522
-0.000477952
-0.000192414
-0.000457748
-0.000251997
-0.000448291
-0.000303203
-0.000459964
-0.000355137
-0.000497099
-0.000424261
-0.000547412
-0.000526966
-0.000575899
-0.000659839
-0.000529787
-0.000779098
-0.00036678
-0.000783106
-0.000114084
-0.000553338
6.79068e-06
-0.000105122
6.64531e-05
-2.13031e-05
0.000124676
-5.74865e-05
0.000215039
-0.000100664
0.000258915
-0.000152872
0.000313815
-0.000216548
0.000397586
-0.000287319
0.000498683
-0.000352416
0.000582996
-0.000397629
0.000613436
-0.000418746
0.000578758
-0.000426215
0.000504438
-0.000435747
0.000426592
-0.000454795
0.000358209
-0.000480129
0.000292034
-0.000504049
0.000218555
-0.000520285
0.000134337
-0.000525406
4.24236e-05
-0.000518352
-5.15894e-05
-0.000499748
-0.000141126
-0.000471725
-0.000220438
-0.000438647
-0.000285075
-0.000408191
-0.00033366
-0.000392215
-0.000371113
-0.000403838
-0.000412638
-0.000446543
-0.00048426
-0.00050115
-0.000605232
-0.000518834
-0.000761414
-0.000433253
-0.000868687
-0.000218235
-0.000768356
-9.17846e-06
-0.000314179
5.72747e-05
-1.90062e-05
0.000143682
-5.32053e-05
0.000249239
-9.43366e-05
0.000300046
-0.000143006
0.000362484
-0.000199724
0.000454304
-0.000258797
0.000557756
-0.000308808
0.000633008
-0.000340475
0.000645103
-0.000355817
0.0005941
-0.000368532
0.000517153
-0.00039101
0.00044907
-0.000423586
0.000390784
-0.000458344
0.000326792
-0.00048755
0.000247761
-0.000506776
0.000153564
-0.000514002
4.96488e-05
-0.000508848
-5.67429e-05
-0.000491911
-0.000158063
-0.000464346
-0.000248003
-0.000428351
-0.00032107
-0.000388336
-0.000373674
-0.000352959
-0.000406489
-0.000337113
-0.000428485
-0.000355481
-0.000465893
-0.000407779
-0.000552934
-0.000458299
-0.000710895
-0.000444827
-0.000882158
-0.000305863
-0.00090732
-5.42576e-05
-0.000565784
3.01705e-06
-1.52888e-05
0.000158971
-4.56551e-05
0.000279605
-8.25829e-05
0.000336974
-0.000124917
0.000404818
-0.000171804
0.000501192
-0.000217972
0.000603924
-0.000255072
0.000670107
-0.000278608
0.00066864
-0.000294088
0.00060958
-0.000314102
0.000537167
-0.000345499
0.000480467
-0.000383635
0.00042892
-0.000420075
0.000363232
-0.000449166
0.000276852
-0.000468167
0.000172564
-0.000476002
5.7484e-05
-0.000472694
-6.00504e-05
-0.000458895
-0.000171862
-0.000435652
-0.000271246
-0.00040388
-0.000352842
-0.000365568
-0.000411986
-0.000325179
-0.000446878
-0.000293621
-0.000460043
-0.000287065
-0.000472449
-0.000320106
-0.000519893
-0.000379962
-0.000651038
-0.00041365
-0.000848471
-0.000334548
-0.000986423
-0.000112343
-0.000787989
-0.000109326
-1.03652e-05
0.000169336
-3.52129e-05
0.000304453
-6.61228e-05
0.000367883
-0.000100103
0.000438799
-0.000135631
0.00053672
-0.000169093
0.000637385
-0.00019575
0.000696764
-0.000214614
0.000687503
-0.000231798
0.000626764
-0.000256095
0.000561464
-0.000289459
0.000513831
-0.000325975
0.000465436
-0.000359138
0.000396395
-0.000385378
0.000303092
-0.000402971
0.000190157
-0.000411129
6.56424e-05
-0.00040983
-6.13494e-05
-0.000399777
-0.000181915
-0.000382168
-0.000288855
-0.000357374
-0.000377636
-0.000326093
-0.000443267
-0.000289851
-0.00048312
-0.000255359
-0.000494535
-0.000234615
-0.000493192
-0.000247619
-0.000506889
-0.000299956
-0.000598702
-0.000357605
-0.000790822
-0.000333968
-0.00101006
-0.000173718
-0.000948239
-0.000283044
-4.73681e-06
0.000174073
-2.27566e-05
0.000322472
-4.6383e-05
0.00039151
-7.09326e-05
0.000463348
-9.45073e-05
0.000560294
-0.000115665
0.000658542
-0.00013325
0.000714349
-0.000148559
0.000702813
-0.000166063
0.000644268
-0.000189809
0.00058521
-0.000219027
0.000543049
-0.000249262
0.000495671
-0.000276495
0.000423628
-0.000298562
0.000325159
-0.000314237
0.000205832
-0.000322716
7.41215e-05
-0.000323704
-6.03615e-05
-0.000317773
-0.000187846
-0.000306467
-0.000300162
-0.000290244
-0.000393859
-0.000268918
-0.000464593
-0.000242098
-0.00050994
-0.000213119
-0.000523514
-0.000189398
-0.000516914
-0.000188947
-0.00050734
-0.000226329
-0.00056132
-0.000289003
-0.000728147
-0.000303943
-0.00099512
-0.000196799
-0.00105538
-0.000479844
1.13802e-06
0.000172935
-9.11556e-06
0.000332726
-2.46895e-05
0.000407084
-3.94005e-05
0.000478059
-5.09468e-05
0.00057184
-6.02245e-05
0.00066782
-6.91654e-05
0.00072329
-8.03301e-05
0.000713977
-9.55833e-05
0.000659522
-0.000114653
0.000604279
-0.000135667
0.000564063
-0.000156722
0.000516725
-0.000176187
0.000443093
-0.000192885
0.000341858
-0.00020592
0.000218868
-0.000214466
8.2667e-05
-0.000218186
-5.66412e-05
-0.000217096
-0.000188936
-0.00021259
-0.000304668
-0.000205459
-0.00040099
-0.000194986
-0.000475066
-0.000180011
-0.000524914
-0.000161565
-0.00054196
-0.000143874
-0.000534605
-0.000139544
-0.00051167
-0.0001639
-0.000536963
-0.000222653
-0.000669394
-0.000257876
-0.000959897
-0.00018614
-0.00112712
-0.000665984
6.82311e-06
0.000166112
4.58868e-06
0.00033496
-2.89531e-06
0.000414568
-7.91669e-06
0.000483081
-7.7682e-06
0.000571692
-5.20718e-06
0.000665259
-5.17274e-06
0.000723256
-1.04257e-05
0.00071923
-2.06596e-05
0.000669755
-3.2536e-05
0.000616156
-4.34075e-05
0.000574935
-5.37057e-05
0.000527024
-6.39643e-05
0.000453352
-7.40566e-05
0.00035195
-8.35664e-05
0.000228378
-9.17494e-05
9.085e-05
-9.84158e-05
-4.99748e-05
-0.000103215
-0.000184137
-0.000106863
-0.00030102
-0.000109198
-0.000398655
-0.000110453
-0.000473811
-0.000107496
-0.00052787
-0.000101863
-0.000547593
-9.43058e-05
-0.000542163
-9.34026e-05
-0.000512574
-0.000111017
-0.000519349
-0.000163387
-0.000617024
-0.000208019
-0.000915264
-0.000164539
-0.0011706
-0.000830523
1.16088e-05
0.000154503
1.74034e-05
0.000329166
1.79825e-05
0.000413989
2.16591e-05
0.000479404
3.24666e-05
0.000560885
4.70876e-05
0.000650638
5.81295e-05
0.000712214
6.03885e-05
0.000716971
5.58784e-05
0.000674266
5.17503e-05
0.000620284
5.1527e-05
0.000575158
5.28436e-05
0.000525707
5.27596e-05
0.000453436
5.02927e-05
0.000354417
4.52212e-05
0.000233449
3.78886e-05
9.81826e-05
2.8655e-05
-4.07412e-05
1.75781e-05
-0.00017306
5.74307e-06
-0.000289185
-7.7351e-06
-0.000385176
-1.88224e-05
-0.000462724
-2.94572e-05
-0.000517236
-3.62882e-05
-0.000540762
-4.18077e-05
-0.000536643
-4.9719e-05
-0.000504662
-6.68799e-05
-0.000502188
-0.000114425
-0.000569479
-0.00016245
-0.00086724
-0.000140727
-0.00119232
-0.00097125
1.50164e-05
0.000139487
2.81125e-05
0.00031607
3.61197e-05
0.000405982
4.73653e-05
0.000468158
6.75207e-05
0.000540729
9.37358e-05
0.000624423
0.00011672
0.000689229
0.000129093
0.000704599
0.000132311
0.000671047
0.000135243
0.000617352
0.000143879
0.000566522
0.000155806
0.00051378
0.000165839
0.000443403
0.000171387
0.000348869
0.000171263
0.000233573
0.000165253
0.000104193
0.000153345
-2.88332e-05
0.000136759
-0.000156474
0.000115979
-0.000268406
9.43921e-05
-0.000363589
7.16463e-05
-0.000439978
5.04421e-05
-0.000496031
3.05619e-05
-0.000520882
1.0695e-05
-0.000516777
-5.87309e-06
-0.000488094
-2.90247e-05
-0.000479036
-7.46296e-05
-0.000523874
-0.000125113
-0.000816757
-0.000120362
-0.00119707
-0.00109161
1.69317e-05
0.000122555
3.62859e-05
0.000296715
5.10006e-05
0.000391267
6.8504e-05
0.000450655
9.59598e-05
0.000513273
0.000132268
0.000588115
0.000167759
0.000653738
0.000192367
0.000679991
0.000205114
0.0006583
0.000214542
0.000607923
0.000229044
0.000552021
0.000248482
0.000494342
0.000266922
0.000424963
0.000279827
0.000335964
0.000284668
0.000228731
0.000280566
0.000108295
0.000267181
-1.54478e-05
0.000246066
-0.000135359
0.000219157
-0.000241496
0.000189847
-0.000334279
0.00015855
-0.000408682
0.000127382
-0.000464863
9.42226e-05
-0.000487723
6.30583e-05
-0.000485612
3.2383e-05
-0.000457419
6.47105e-07
-0.0004473
-4.36459e-05
-0.000479581
-9.55688e-05
-0.000764834
-0.000103813
-0.00118883
-0.00119542
1.70447e-05
0.00010551
4.07791e-05
0.000272981
6.09994e-05
0.000371047
8.32512e-05
0.000428403
0.000115709
0.000480815
0.000159971
0.000543854
0.000207575
0.000606133
0.000246409
0.000641158
0.000271411
0.000633298
0.000288274
0.00059106
0.000306332
0.000533963
0.000329009
0.000471664
0.000352088
0.000401884
0.000370066
0.000317986
0.000378806
0.000219992
0.000376617
0.000110483
0.000363187
-2.01741e-06
0.000339876
-0.000112049
0.000309571
-0.000211191
0.000275349
-0.000300057
0.00023768
-0.000371013
0.000197011
-0.000424193
0.000152689
-0.000443401
0.00010976
-0.000442683
6.73311e-05
-0.00041499
2.991e-05
-0.000409879
-1.92961e-05
-0.000430375
-7.39109e-05
-0.000710219
-9.28818e-05
-0.00116986
-0.00128831
1.58257e-05
8.96845e-05
4.20551e-05
0.000246752
6.65289e-05
0.000346573
9.22572e-05
0.000402675
0.000127186
0.000445887
0.000175696
0.000495344
0.00023263
0.000549198
0.000285669
0.000588119
0.000325553
0.000593414
0.000353021
0.000563593
0.0003754
0.000511583
0.000398679
0.000448385
0.000422197
0.000378367
0.000441708
0.000298476
0.000452524
0.000209176
0.000452262
0.000110744
0.00044007
1.01745e-05
0.000417482
-8.94606e-05
0.000386687
-0.000180396
0.000349835
-0.000263206
0.000306441
-0.000327619
0.000256933
-0.000374686
0.000202335
-0.000388803
0.000148619
-0.000388967
9.67256e-05
-0.000363096
5.19364e-05
-0.00036509
1.69008e-06
-0.000380128
-5.86983e-05
-0.000649831
-8.73609e-05
-0.00114119
-0.00137567
1.30182e-05
7.66663e-05
3.87213e-05
0.000221049
6.54989e-05
0.000319795
9.36151e-05
0.000374559
0.000129626
0.000409876
0.000179351
0.000445619
0.00024148
0.00048707
0.000306268
0.000523331
0.000362028
0.000537654
0.000404119
0.000521501
0.000435344
0.000480359
0.000461236
0.000422493
0.000484117
0.000355485
0.000502668
0.000279925
0.000513571
0.000198274
0.000514394
0.000109921
0.000503783
2.07857e-05
0.000482719
-6.8397e-05
0.000451884
-0.00014956
0.000411868
-0.00022319
0.000362145
-0.000277895
0.000304032
-0.000316573
0.000240585
-0.000325356
0.000178496
-0.000326878
0.000119442
-0.000304042
6.90465e-05
-0.000314695
1.48546e-05
-0.000325936
-4.71221e-05
-0.000587854
-8.38062e-05
-0.00110451
-0.00145947
9.42417e-06
6.72422e-05
3.27928e-05
0.00019768
6.00377e-05
0.00029255
8.93956e-05
0.000345201
0.000125102
0.000374169
0.000172786
0.000397935
0.000234562
0.000425293
0.000305092
0.000452801
0.00037342
0.000469326
0.000431231
0.00046369
0.000476091
0.0004355
0.000510372
0.000388212
0.000536658
0.000329199
0.000555862
0.00026072
0.000566782
0.000187354
0.000567856
0.000108847
0.000557809
3.08333e-05
0.000536306
-4.68948e-05
0.000503105
-0.000116358
0.000457937
-0.000178023
0.000401293
-0.000221251
0.000335704
-0.000250984
0.000266156
-0.000255807
0.000198425
-0.000259147
0.000135734
-0.000241351
8.13148e-05
-0.000260276
2.76109e-05
-0.000272232
-3.42799e-05
-0.000525963
-7.53583e-05
-0.00106343
-0.00153483
3.27747e-06
6.39647e-05
2.05008e-05
0.000180457
4.57617e-05
0.000267289
7.6435e-05
0.000314528
0.000112975
0.000337629
0.000158971
0.000351939
0.000217428
0.000366837
0.000287256
0.000382974
0.000361016
0.000395565
0.00043011
0.000394596
0.000488549
0.000377061
0.000534709
0.000342052
0.000569116
0.000294792
0.000592668
0.000237169
0.000605333
0.000174689
0.000606438
0.000107741
0.000595326
4.19458e-05
0.000571093
-2.26624e-05
0.000533532
-7.87971e-05
0.000482784
-0.000127274
0.000421009
-0.000159476
0.000351361
-0.000181336
0.000280102
-0.000184549
0.00021001
-0.000189055
0.00014732
-0.000178661
8.89566e-05
-0.000201913
4.04582e-05
-0.000223734
-2.09593e-05
-0.000464546
-6.54672e-05
-0.00101892
-0.0016003
-4.00433e-06
6.7969e-05
7.51649e-06
0.000168936
2.87503e-05
0.000246056
5.9147e-05
0.000284131
9.51117e-05
0.000301664
0.000138936
0.000308114
0.000193003
0.00031277
0.000257334
0.000318643
0.000328725
0.000324174
0.000400659
0.000322663
0.000466417
0.000311302
0.000521858
0.000286612
0.000564772
0.000251878
0.000594682
0.000207259
0.000611125
0.000158246
0.000613838
0.000105028
0.00060238
5.34033e-05
0.000576546
3.172e-06
0.000536984
-3.92347e-05
0.000484458
-7.47488e-05
0.000422906
-9.79246e-05
0.000354567
-0.000112997
0.000286701
-0.000116683
0.000217587
-0.000119941
0.000158629
-0.000119702
9.55256e-05
-0.00013881
5.60583e-05
-0.000184267
-1.24354e-05
-0.000396052
-6.75927e-05
-0.000963767
-0.00166789
-2.23159e-05
9.02849e-05
-2.1182e-05
0.000167802
-2.66635e-06
0.00022754
3.20967e-05
0.000249368
7.12799e-05
0.000262481
0.000118047
0.000261347
0.000170146
0.000260671
0.000229365
0.000259424
0.000294518
0.00025902
0.000362397
0.000254784
0.000427364
0.000246335
0.00048524
0.000228736
0.00053213
0.000204988
0.000566257
0.000173131
0.00058617
0.000138332
0.000591416
9.97824e-05
0.000581842
6.29776e-05
0.000557599
2.74153e-05
0.00052072
-2.35559e-06
0.000472061
-2.60901e-05
0.000416343
-4.22068e-05
0.000354769
-5.14226e-05
0.000294789
-5.67036e-05
0.000231044
-5.6196e-05
0.000179047
-6.77051e-05
0.000114324
-7.40869e-05
8.27482e-05
-0.00015269
-1.5455e-06
-0.000311759
-6.51018e-05
-0.000900211
-0.00173299
-3.57689e-05
0.000126054
-4.23009e-05
0.000174334
-3.10824e-05
0.000216321
1.57712e-06
0.000216708
4.33279e-05
0.000220731
9.12512e-05
0.000213424
0.00014312
0.000208802
0.000199383
0.000203162
0.000259047
0.000199355
0.000321067
0.000192764
0.000381092
0.000186311
0.000436835
0.000172992
0.000483252
0.000158571
0.000519473
0.000136911
0.000541969
0.000115836
0.000551644
9.01073e-05
0.000546712
6.79101e-05
0.00052954
4.45873e-05
0.000499935
2.72492e-05
0.000461731
1.21138e-05
0.000417071
2.45303e-06
0.000368056
-2.40737e-06
0.00032089
-9.53739e-06
0.000268684
-3.9899e-06
0.000227558
-2.65795e-05
0.000172664
-1.9193e-05
0.000143397
-0.000123423
8.43011e-05
-0.000252662
1.91774e-05
-0.000835087
-0.00171382
-0.000128904
0.000254958
-0.000104174
0.000149603
-8.23653e-05
0.000194513
-2.5681e-05
0.000160024
2.73022e-05
0.000167747
8.48539e-05
0.000155872
0.000140871
0.000152785
0.000199783
0.000144249
0.000256903
0.000142236
0.000316321
0.000133346
0.000371529
0.000131102
0.000424536
0.000119986
0.000468689
0.000114418
0.000505372
0.000100228
0.00053002
9.11884e-05
0.00054416
7.59673e-05
0.000546451
6.56189e-05
0.000538008
5.30302e-05
0.000521772
4.34855e-05
0.000496753
3.7132e-05
0.000471023
2.81832e-05
0.000438071
3.05451e-05
0.000410961
1.75723e-05
0.000376792
3.01795e-05
0.000350689
-4.76503e-07
0.00032106
1.04351e-05
0.000282561
-8.49237e-05
0.000265906
-0.000236008
0.0001745
-0.00074368
-0.00153932
-2.88382e-05
0.000283796
-4.78059e-05
0.000168571
-4.65788e-06
0.000151365
2.3153e-05
0.000132213
7.95383e-05
0.000111362
0.000135911
9.94999e-05
0.000195686
9.30099e-05
0.000255611
8.43233e-05
0.000316839
8.10079e-05
0.000376079
7.41067e-05
0.000435453
7.17277e-05
0.000489725
6.57144e-05
0.000541507
6.26354e-05
0.000585021
5.67138e-05
0.000623817
5.2392e-05
0.000652834
4.69508e-05
0.000676781
4.16713e-05
0.000691916
3.78952e-05
0.000703364
3.20384e-05
0.00070918
3.13157e-05
0.000712851
2.45116e-05
0.000715822
2.75747e-05
0.000715123
1.82707e-05
0.000722025
2.32776e-05
0.00071109
1.04589e-05
0.000716276
5.24919e-06
0.000665632
-3.42798e-05
0.000618559
-0.000188935
0.000397492
-0.000522613
-0.00114182
0.000283796
0.000452367
0.000603732
0.000735945
0.000847307
0.000946807
0.00103982
0.00112414
0.00120515
0.00127926
0.00135098
0.0014167
0.00147933
0.00153605
0.00158844
0.00163539
0.00167706
0.00171496
0.00174699
0.00177831
0.00180282
0.0018304
0.00184867
0.00187194
0.0018824
0.00188765
0.00185337
0.00166444
0.00114182
)
;

boundaryField
{
    movingWall
    {
        type            calculated;
        value           uniform 0;
    }
    fixedWalls
    {
        type            calculated;
        value           uniform 0;
    }
    frontAndBack
    {
        type            empty;
    }
}


// ************************************************************************* //
