/*--------------------------------*- C++ -*----------------------------------*\
| =========                 |                                                 |
| \\      /  F ield         | OpenFOAM: The Open Source CFD Toolbox           |
|  \\    /   O peration     | Version:  2406                                  |
|   \\  /    A nd           | Website:  www.openfoam.com                      |
|    \\/     M anipulation  |                                                 |
\*---------------------------------------------------------------------------*/
FoamFile
{
    version     2.0;
    format      ascii;
    arch        "LSB;label=32;scalar=64";
    class       volScalarField;
    location    "46.35";
    object      p;
}
// * * * * * * * * * * * * * * * * * * * * * * * * * * * * * * * * * * * * * //

dimensions      [0 2 -2 0 0 0 0];

internalField   nonuniform List<scalar> 
14400
(
-2.06884e-09
8.57033e-06
1.96964e-05
2.79973e-05
2.99667e-05
2.33877e-05
7.23705e-06
-1.85729e-05
-5.3429e-05
-9.62471e-05
-0.000145695
-0.000200399
-0.000259114
-0.000320857
-0.000384992
-0.000451265
-0.000519806
-0.000591126
-0.000665998
-0.000745417
-0.000830529
-0.000922506
-0.00102257
-0.00113193
-0.00125172
-0.00138297
-0.00152666
-0.00168372
-0.00185498
-0.00204127
-0.00224332
-0.00246178
-0.00269713
-0.00294971
-0.00321957
-0.00350649
-0.00380986
-0.00412865
-0.00446135
-0.00480589
-0.00515962
-0.0055193
-0.00588101
-0.00624022
-0.0065918
-0.00693006
-0.00724879
-0.00754144
-0.00780116
-0.00802098
-0.008194
-0.00831352
-0.00837326
-0.00836757
-0.00829161
-0.00814158
-0.0079149
-0.00761038
-0.00722841
-0.00677114
-0.00624252
-0.00564804
-0.00499526
-0.00429503
-0.00355833
-0.0027983
-0.00202971
-0.00126856
-0.000531668
0.000163726
0.00080048
0.0013621
0.00183332
0.00220073
0.0024533
0.00258294
0.00258489
0.00245801
0.00220496
0.00183207
0.00134919
0.000769241
0.000107643
-0.000618342
-0.00139039
-0.00218992
-0.00299883
-0.00380023
-0.00457895
-0.0053221
-0.00601987
-0.00666374
-0.00724838
-0.00777137
-0.00823229
-0.00863247
-0.00897476
-0.00926318
-0.0095025
-0.00969793
-0.00985483
-0.00997849
-0.0100739
-0.0101458
-0.0101982
-0.010235
-0.0102592
-0.0102736
-0.0102804
-0.0102814
-0.0102778
-0.0102708
-0.010261
-0.0102488
-0.0102346
-0.0102187
-0.0102019
-0.0101856
-0.0101724
-0.0101651
-8.6322e-06
5.48871e-09
1.02376e-05
1.65986e-05
1.68703e-05
9.20902e-06
-7.31934e-06
-3.28149e-05
-6.67473e-05
-0.000108157
-0.00015585
-0.000208592
-0.000265265
-0.000324989
-0.000387202
-0.000451692
-0.000518594
-0.000588348
-0.000661691
-0.000739546
-0.000822979
-0.000913163
-0.00101125
-0.00111833
-0.00123546
-0.00136366
-0.00150388
-0.00165702
-0.00182394
-0.00200546
-0.00220235
-0.00241527
-0.00264477
-0.00289124
-0.00315482
-0.00343536
-0.0037324
-0.004045
-0.00437182
-0.00471092
-0.00505984
-0.00541545
-0.00577403
-0.00613119
-0.00648192
-0.00682062
-0.00714119
-0.00743713
-0.0077016
-0.00792765
-0.0081083
-0.00823681
-0.00830679
-0.00831247
-0.00824887
-0.00811201
-0.00789912
-0.00760885
-0.00724139
-0.0067986
-0.00628418
-0.00570413
-0.00506593
-0.0043785
-0.00365358
-0.00290449
-0.00214587
-0.00139359
-0.000664405
2.44583e-05
0.00065585
0.00121323
0.00168128
0.00204649
0.00229777
0.00242694
0.0024292
0.00230338
0.00205214
0.00168187
0.00120247
0.000626968
-2.90996e-05
-0.000748374
-0.00151246
-0.00230275
-0.00310119
-0.003891
-0.00465728
-0.00538734
-0.00607069
-0.00670024
-0.00727144
-0.00778174
-0.00823086
-0.00862045
-0.00895359
-0.0092344
-0.0094677
-0.00965869
-0.00981262
-0.00993464
-0.0100296
-0.010102
-0.0101557
-0.0101943
-0.0102208
-0.0102378
-0.0102473
-0.010251
-0.0102502
-0.0102459
-0.0102388
-0.0102294
-0.010218
-0.0102049
-0.0101909
-0.0101771
-0.0101651
-0.0101576
-2.0083e-05
-1.03591e-05
4.91656e-08
4.87195e-06
3.52152e-06
-5.33667e-06
-2.24602e-05
-4.78885e-05
-8.11128e-05
-0.000121248
-0.000167201
-0.000217849
-0.00027219
-0.000329449
-0.000389145
-0.000451126
-0.000515552
-0.000582868
-0.000653767
-0.00072913
-0.000809952
-0.000897291
-0.000992218
-0.00109578
-0.00120898
-0.00133279
-0.00146813
-0.0016159
-0.00177698
-0.00195223
-0.00214248
-0.00234849
-0.00257092
-0.00281029
-0.00306692
-0.00334084
-0.00363177
-0.00393904
-0.00426149
-0.00459745
-0.00494464
-0.00530014
-0.00566039
-0.0060211
-0.00637736
-0.00672357
-0.00705361
-0.00736087
-0.0076384
-0.00787906
-0.00807568
-0.00822128
-0.00830924
-0.00833354
-0.00828896
-0.0081713
-0.00797757
-0.0077062
-0.0073572
-0.00693227
-0.00643479
-0.00587025
-0.00524682
-0.00457343
-0.00386111
-0.00312294
-0.00237354
-0.00162878
-0.000905399
-0.000220644
0.000408263
0.000964681
0.00143315
0.00179998
0.0020539
0.00218654
0.0021929
0.00207168
0.00182542
0.00146048
0.000986779
0.000417435
-0.000231879
-0.000943631
-0.00169924
-0.00247993
-0.00326749
-0.00404507
-0.00479774
-0.00551288
-0.0061805
-0.00679374
-0.00734819
-0.00784164
-0.00827428
-0.00864819
-0.00896682
-0.00923461
-0.00945659
-0.00963808
-0.00978441
-0.00990066
-0.00999157
-0.0100614
-0.010114
-0.0101526
-0.01018
-0.0101985
-0.0102101
-0.0102162
-0.0102181
-0.0102167
-0.0102125
-0.0102062
-0.010198
-0.0101881
-0.010177
-0.0101653
-0.0101533
-0.0101445
-2.96381e-05
-1.75938e-05
-5.12384e-06
-8.47995e-08
-1.90191e-06
-1.14902e-05
-2.93649e-05
-5.53717e-05
-8.886e-05
-0.000128849
-0.000174191
-0.000223741
-0.000276509
-0.000331761
-0.000389075
-0.000448358
-0.000509843
-0.00057403
-0.000641645
-0.000713583
-0.000790838
-0.000874447
-0.000965448
-0.00106485
-0.00117364
-0.00129274
-0.00142309
-0.00156562
-0.00172129
-0.00189108
-0.00207595
-0.00227687
-0.00249472
-0.00273027
-0.00298412
-0.00325661
-0.00354775
-0.00385714
-0.00418391
-0.00452657
-0.004883
-0.00525038
-0.00562509
-0.00600278
-0.0063783
-0.00674581
-0.00709884
-0.00743039
-0.00773308
-0.00799937
-0.00822168
-0.00839265
-0.00850534
-0.00855344
-0.0085315
-0.00843515
-0.00826125
-0.00800811
-0.00767563
-0.00726551
-0.00678121
-0.00622782
-0.00561304
-0.00494635
-0.00423879
-0.00350325
-0.00275424
-0.00200761
-0.00128017
-0.000589239
4.778e-05
0.000614011
0.00109368
0.00147275
0.00173951
0.00188516
0.00190429
0.00179519
0.00156009
0.00120513
0.000740126
0.000178216
-0.00046477
-0.00117103
-0.00192163
-0.00269735
-0.00347958
-0.00425101
-0.00499635
-0.00570274
-0.00636019
-0.00696153
-0.00750213
-0.0079803
-0.00839667
-0.00875365
-0.00905514
-0.00930604
-0.00951186
-0.00967834
-0.0098111
-0.00991548
-0.00999633
-0.0100579
-0.0101041
-0.0101378
-0.0101618
-0.0101782
-0.0101886
-0.0101945
-0.0101969
-0.0101965
-0.0101939
-0.0101894
-0.010183
-0.010175
-0.0101653
-0.0101541
-0.0101402
-0.0101289
-3.46788e-05
-2.03541e-05
-5.6759e-06
-7.95845e-08
-2.21763e-06
-1.2687e-05
-3.17376e-05
-5.89482e-05
-9.34294e-05
-0.000134005
-0.000179378
-0.000228314
-0.000279788
-0.00033308
-0.000387829
-0.000444029
-0.000502005
-0.000562362
-0.000625915
-0.000693627
-0.000766538
-0.000845708
-0.000932183
-0.00102697
-0.00113105
-0.00124539
-0.001371
-0.00150892
-0.00166028
-0.00182628
-0.0020082
-0.0022073
-0.00242487
-0.00266205
-0.00291985
-0.003199
-0.00349985
-0.0038223
-0.00416564
-0.00452846
-0.00490859
-0.00530298
-0.0057077
-0.00611792
-0.00652797
-0.0069314
-0.00732109
-0.00768944
-0.0080285
-0.00833022
-0.0085866
-0.00878996
-0.00893311
-0.00900961
-0.0090139
-0.00894157
-0.00878948
-0.00855594
-0.00824087
-0.00784589
-0.0073744
-0.00683183
-0.00622532
-0.00556411
-0.00485926
-0.00412352
-0.00337127
-0.0026182
-0.00188106
-0.00117722
-0.00052417
6.09519e-05
0.000562019
0.000964512
0.00125615
0.00142748
0.00147239
0.00138851
0.00117741
0.000844712
0.000399833
-0.000144328
-0.000771993
-0.00146524
-0.00220484
-0.00297118
-0.00374512
-0.00450881
-0.00524641
-0.00594454
-0.00659268
-0.00718328
-0.00771168
-0.00817606
-0.00857704
-0.00891725
-0.0092009
-0.00943335
-0.00962058
-0.00976882
-0.0098842
-0.00997246
-0.0100388
-0.0100876
-0.0101229
-0.0101477
-0.0101645
-0.0101754
-0.0101819
-0.0101851
-0.0101859
-0.0101848
-0.0101822
-0.0101783
-0.0101728
-0.0101657
-0.0101566
-0.0101451
-0.0101288
-0.0101148
-3.36004e-05
-1.7376e-05
-8.74235e-07
5.08442e-06
2.34667e-06
-9.44169e-06
-3.02513e-05
-5.93396e-05
-9.55049e-05
-0.000137301
-0.00018322
-0.000231891
-0.000282229
-0.000333528
-0.000385496
-0.000438242
-0.000492227
-0.0005482
-0.000607113
-0.000670044
-0.000738126
-0.00081249
-0.00089424
-0.000984446
-0.00108417
-0.00119451
-0.00131665
-0.00145189
-0.0016017
-0.00176767
-0.00195152
-0.00215505
-0.00238003
-0.00262813
-0.00290082
-0.0031992
-0.00352389
-0.00387487
-0.00425135
-0.00465166
-0.00507315
-0.00551216
-0.00596399
-0.006423
-0.00688265
-0.00733566
-0.00777417
-0.00818992
-0.00857444
-0.00891927
-0.00921617
-0.00945731
-0.00963548
-0.00974424
-0.00977814
-0.00973287
-0.00960538
-0.00939408
-0.00909889
-0.0087214
-0.00826493
-0.00773471
-0.00713775
-0.00648291
-0.0057809
-0.00504415
-0.0042867
-0.00352395
-0.00277241
-0.00204932
-0.00137221
-0.000758393
-0.000224357
0.000214822
0.000546138
0.000759263
0.000847106
0.000806254
0.000637273
0.000344814
-6.24932e-05
-0.000572371
-0.00116943
-0.00183591
-0.0025525
-0.0032993
-0.00405673
-0.00480636
-0.00553171
-0.00621873
-0.00685626
-0.00743613
-0.00795325
-0.00840538
-0.00879283
-0.00911816
-0.00938561
-0.00960073
-0.00976983
-0.00989953
-0.00999644
-0.0100668
-0.0101161
-0.0101495
-0.0101708
-0.0101834
-0.01019
-0.0101924
-0.0101922
-0.0101903
-0.0101873
-0.0101837
-0.0101795
-0.0101747
-0.010169
-0.0101618
-0.0101526
-0.0101405
-0.0101218
-0.0101053
-2.54109e-05
-7.75001e-06
1.00018e-05
1.58472e-05
1.19744e-05
-1.75647e-06
-2.50126e-05
-5.668e-05
-9.51856e-05
-0.000138759
-0.000185642
-0.000234308
-0.000283608
-0.000332862
-0.000381872
-0.000430893
-0.000480566
-0.000531824
-0.000585803
-0.000643745
-0.000706932
-0.000776632
-0.000854088
-0.000940535
-0.00103725
-0.0011456
-0.00126714
-0.00140363
-0.00155706
-0.00172962
-0.00192367
-0.00214164
-0.0023859
-0.00265865
-0.00296169
-0.00329631
-0.00366306
-0.00406161
-0.00449064
-0.0049477
-0.0054292
-0.00593043
-0.00644564
-0.00696811
-0.00749035
-0.00800425
-0.00850129
-0.00897271
-0.00940972
-0.00980371
-0.0101464
-0.0104301
-0.0106476
-0.0107927
-0.0108603
-0.0108461
-0.0107472
-0.0105622
-0.010291
-0.00993497
-0.00949737
-0.00898308
-0.00839872
-0.00775272
-0.00705524
-0.00631816
-0.00555493
-0.00478043
-0.00401072
-0.00326271
-0.00255379
-0.0019013
-0.00132206
-0.000831697
-0.000444047
-0.000170506
-1.94394e-05
4.33512e-06
-0.000100084
-0.000329483
-0.000676554
-0.00113014
-0.00167571
-0.00229605
-0.00297212
-0.00368396
-0.00441168
-0.00513636
-0.00584084
-0.00651034
-0.0071329
-0.00769961
-0.00820462
-0.00864503
-0.00902062
-0.00933346
-0.00958754
-0.00978823
-0.00994186
-0.0100552
-0.0101352
-0.0101885
-0.010221
-0.0102381
-0.0102443
-0.0102432
-0.0102375
-0.0102294
-0.0102203
-0.0102112
-0.0102025
-0.0101946
-0.0101873
-0.0101803
-0.0101732
-0.0101651
-0.0101552
-0.0101422
-0.0101215
-0.0101031
-9.31093e-06
9.30056e-06
2.76399e-05
3.27216e-05
2.70119e-05
1.05985e-05
-1.58426e-05
-5.07773e-05
-9.22153e-05
-0.000138028
-0.000186195
-0.000235033
-0.000283353
-0.000330526
-0.000376489
-0.000421683
-0.000466965
-0.000513503
-0.000562661
-0.000615908
-0.000674745
-0.000740674
-0.000815201
-0.000899879
-0.000996384
-0.00110659
-0.00123264
-0.00137697
-0.00154231
-0.00173165
-0.00194809
-0.00219471
-0.00247439
-0.00278962
-0.00314224
-0.00353324
-0.00396261
-0.00442917
-0.0049305
-0.00546292
-0.00602157
-0.00660045
-0.00719263
-0.00779038
-0.00838535
-0.00896882
-0.00953182
-0.0100654
-0.0105606
-0.0110089
-0.0114022
-0.011733
-0.0119945
-0.0121807
-0.0122866
-0.0123083
-0.012243
-0.0120893
-0.0118471
-0.0115177
-0.0111039
-0.0106103
-0.010043
-0.00940975
-0.00871999
-0.00798482
-0.00721689
-0.0064303
-0.00564038
-0.00486343
-0.00411645
-0.00341662
-0.00278089
-0.00222536
-0.0017647
-0.00141148
-0.00117555
-0.00106349
-0.00107812
-0.0012182
-0.00147834
-0.00184912
-0.00231747
-0.00286731
-0.00348029
-0.00413677
-0.0048168
-0.00550108
-0.00617183
-0.0068135
-0.00741323
-0.0079612
-0.00845063
-0.00887776
-0.00924155
-0.00954336
-0.00978654
-0.00997602
-0.0101178
-0.0102184
-0.0102849
-0.010324
-0.0103419
-0.0103444
-0.0103363
-0.0103216
-0.0103034
-0.0102839
-0.0102649
-0.0102472
-0.0102315
-0.0102179
-0.0102062
-0.010196
-0.0101866
-0.0101769
-0.0101658
-0.0101518
-0.0101297
-0.0101099
1.55498e-05
3.46211e-05
5.28433e-05
5.64132e-05
4.80726e-05
2.81831e-05
-2.183e-06
-4.1025e-05
-8.59031e-05
-0.000134319
-0.000183999
-0.000233135
-0.000280535
-0.000325671
-0.000368658
-0.000410173
-0.000451337
-0.000493601
-0.000538619
-0.000588164
-0.000644064
-0.00070819
-0.000782487
-0.000869046
-0.000970185
-0.00108853
-0.00122708
-0.00138916
-0.00157843
-0.0017987
-0.00205375
-0.00234714
-0.00268193
-0.00306042
-0.00348392
-0.00395256
-0.00446516
-0.00501915
-0.00561065
-0.00623449
-0.0068844
-0.00755313
-0.00823272
-0.00891459
-0.00958982
-0.0102493
-0.0108839
-0.0114845
-0.0120425
-0.0125494
-0.0129976
-0.0133797
-0.0136893
-0.0139208
-0.0140694
-0.0141316
-0.0141047
-0.0139873
-0.0137792
-0.0134815
-0.0130969
-0.0126294
-0.0120843
-0.0114688
-0.0107914
-0.0100622
-0.00929283
-0.00849628
-0.00768687
-0.00688
-0.00609189
-0.00533927
-0.0046389
-0.00400711
-0.00345925
-0.00300899
-0.00266777
-0.00244413
-0.00234319
-0.00236621
-0.00251034
-0.00276862
-0.0031302
-0.00358082
-0.0041035
-0.00467945
-0.00528908
-0.00591297
-0.00653285
-0.00713237
-0.00769773
-0.00821802
-0.00868539
-0.00909498
-0.00944473
-0.00973504
-0.00996838
-0.0101489
-0.010282
-0.0103737
-0.0104307
-0.0104595
-0.0104666
-0.0104576
-0.0104378
-0.0104113
-0.0103817
-0.0103516
-0.0103227
-0.0102963
-0.010273
-0.0102531
-0.0102362
-0.0102219
-0.0102095
-0.0101977
-0.0101852
-0.0101702
-0.0101472
-0.0101268
5.01941e-05
6.92231e-05
8.65962e-05
8.78594e-05
7.60604e-05
5.19015e-05
1.69119e-05
-2.64005e-05
-7.51302e-05
-0.000126422
-0.000177783
-0.000227334
-0.000273939
-0.000317232
-0.000357567
-0.000395908
-0.000433702
-0.000472744
-0.000515066
-0.000562854
-0.000618411
-0.000684168
-0.000762746
-0.000857032
-0.000970264
-0.00110609
-0.00126854
-0.001462
-0.00169102
-0.00196009
-0.0022734
-0.00263453
-0.00304612
-0.00350968
-0.00402532
-0.00459174
-0.0052061
-0.00586417
-0.00656042
-0.00728821
-0.00803996
-0.00880738
-0.00958168
-0.0103537
-0.0111143
-0.011854
-0.0125637
-0.0132346
-0.0138582
-0.0144265
-0.0149319
-0.0153678
-0.0157281
-0.0160075
-0.0162018
-0.0163076
-0.0163224
-0.016245
-0.0160751
-0.0158137
-0.0154631
-0.0150268
-0.0145096
-0.0139176
-0.0132584
-0.012541
-0.0117757
-0.0109742
-0.0101495
-0.00931579
-0.00848806
-0.00768214
-0.0069142
-0.00620039
-0.00555633
-0.00499655
-0.00453391
-0.0041789
-0.00393913
-0.00381872
-0.00381794
-0.00393302
-0.00415613
-0.00447573
-0.00487709
-0.00534307
-0.00585505
-0.00639399
-0.00694141
-0.00748031
-0.0079959
-0.00847608
-0.0089117
-0.0092966
-0.00962745
-0.00990346
-0.010126
-0.0102981
-0.0104244
-0.0105101
-0.0105612
-0.0105838
-0.010584
-0.0105676
-0.0105396
-0.0105044
-0.0104659
-0.0104269
-0.0103895
-0.0103551
-0.0103246
-0.0102983
-0.0102761
-0.0102575
-0.0102417
-0.0102276
-0.0102135
-0.0101978
-0.0101746
-0.0101543
9.58573e-05
0.00011431
0.000130067
0.00012821
0.000112133
8.2954e-05
4.27192e-05
-5.52751e-06
-5.84213e-05
-0.000112786
-0.000165974
-0.000216105
-0.000262179
-0.000304065
-0.000342426
-0.000378582
-0.000414378
-0.000452049
-0.00049412
-0.000543345
-0.000602704
-0.000675434
-0.0007651
-0.000875668
-0.00101155
-0.00117759
-0.00137896
-0.001621
-0.00190892
-0.00224752
-0.00264082
-0.00309174
-0.00360185
-0.00417118
-0.00479814
-0.00547956
-0.00621075
-0.00698574
-0.00779744
-0.00863788
-0.00949841
-0.0103699
-0.0112431
-0.0121083
-0.0129563
-0.0137776
-0.0145634
-0.0153049
-0.0159942
-0.0166235
-0.017186
-0.0176755
-0.0180863
-0.0184137
-0.018654
-0.0188041
-0.0188619
-0.0188262
-0.0186969
-0.0184748
-0.018162
-0.0177614
-0.0172772
-0.0167146
-0.0160802
-0.0153817
-0.0146281
-0.0138295
-0.0129974
-0.0121442
-0.0112836
-0.0104298
-0.00959806
-0.00880366
-0.00806198
-0.00738786
-0.00679512
-0.00629592
-0.00590018
-0.00561498
-0.00544404
-0.00538732
-0.00544084
-0.00559673
-0.00584354
-0.0061668
-0.00654987
-0.00697486
-0.00742367
-0.007879
-0.00832522
-0.00874898
-0.00913969
-0.00948963
-0.00979393
-0.0100503
-0.0102587
-0.0104211
-0.0105406
-0.0106217
-0.0106693
-0.010689
-0.0106861
-0.010666
-0.0106337
-0.0105936
-0.0105494
-0.0105042
-0.0104604
-0.0104196
-0.0103831
-0.0103512
-0.0103242
-0.0103015
-0.0102825
-0.010266
-0.0102506
-0.0102342
-0.0102115
-0.0101918
0.000153975
0.000171266
0.000184595
0.000178808
0.000157676
0.000122804
7.68076e-05
2.32726e-05
-3.40081e-05
-9.16031e-05
-0.000146792
-0.000197792
-0.000243827
-0.000285091
-0.000322636
-0.000358229
-0.000394212
-0.000433384
-0.000478928
-0.000534377
-0.000603631
-0.000691008
-0.000801296
-0.000939775
-0.00111218
-0.00132459
-0.00158315
-0.00189384
-0.00226205
-0.00269221
-0.00318746
-0.00374937
-0.00437777
-0.00507074
-0.00582465
-0.00663431
-0.00749321
-0.00839373
-0.00932742
-0.0102852
-0.0112575
-0.0122348
-0.0132071
-0.014165
-0.0150988
-0.0159995
-0.0168584
-0.0176673
-0.0184186
-0.0191054
-0.0197212
-0.0202606
-0.0207186
-0.0210911
-0.0213749
-0.0215674
-0.0216668
-0.0216724
-0.021584
-0.0214026
-0.0211296
-0.0207679
-0.0203208
-0.019793
-0.0191899
-0.0185179
-0.0177847
-0.0169987
-0.0161697
-0.0153083
-0.0144261
-0.0135359
-0.0126509
-0.0117852
-0.0109533
-0.0101695
-0.00944786
-0.00880157
-0.00824234
-0.00777985
-0.00742117
-0.00717023
-0.00702743
-0.00698936
-0.00704894
-0.00719558
-0.00741584
-0.00769415
-0.00801379
-0.00835792
-0.00871051
-0.00905718
-0.00938583
-0.00968701
-0.00995398
-0.0101827
-0.0103713
-0.0105202
-0.0106311
-0.0107072
-0.0107524
-0.010771
-0.0107678
-0.0107474
-0.0107144
-0.0106728
-0.0106263
-0.0105781
-0.0105306
-0.0104858
-0.0104451
-0.0104091
-0.0103781
-0.0103521
-0.0103304
-0.010312
-0.0102954
-0.0102788
-0.0102571
-0.0102387
0.000226132
0.000241612
0.000251654
0.000241153
0.000214261
0.000173134
0.000120981
6.19119e-05
8.45445e-08
-6.09055e-05
-0.000118375
-0.000170743
-0.000217569
-0.00025947
-0.000297988
-0.000335448
-0.000374825
-0.000419654
-0.000473986
-0.00054238
-0.000629935
-0.000742312
-0.000885734
-0.00106691
-0.00129287
-0.00157069
-0.00190711
-0.00230813
-0.00277862
-0.00332188
-0.00393945
-0.00463093
-0.00539397
-0.00622443
-0.00711653
-0.00806316
-0.00905607
-0.0100862
-0.011144
-0.0122194
-0.0133023
-0.0143825
-0.0154501
-0.0164955
-0.0175094
-0.018483
-0.0194081
-0.0202771
-0.0210832
-0.0218201
-0.0224822
-0.0230648
-0.0235637
-0.0239757
-0.0242979
-0.0245284
-0.024666
-0.0247101
-0.0246609
-0.0245192
-0.0242864
-0.023965
-0.0235579
-0.0230689
-0.0225025
-0.0218641
-0.0211599
-0.0203968
-0.0195826
-0.0187262
-0.0178372
-0.016926
-0.0160041
-0.0150834
-0.0141769
-0.0132976
-0.012459
-0.0116742
-0.0109559
-0.0103156
-0.00976301
-0.00930577
-0.00894865
-0.00869318
-0.00853739
-0.00847573
-0.00849933
-0.0085964
-0.00875302
-0.008954
-0.0091839
-0.00942791
-0.00967273
-0.00990713
-0.0101223
-0.0103121
-0.0104725
-0.0106019
-0.0107003
-0.0107693
-0.0108112
-0.0108294
-0.0108273
-0.0108089
-0.0107779
-0.010738
-0.0106925
-0.0106444
-0.0105962
-0.01055
-0.0105072
-0.0104689
-0.0104356
-0.0104074
-0.0103838
-0.0103641
-0.0103469
-0.0103305
-0.0103103
-0.0102935
0.000313987
0.000326941
0.000332795
0.000316843
0.000283591
0.000235776
0.000177199
0.00011244
4.59259e-05
-1.87009e-05
-7.89191e-05
-0.000133478
-0.000182386
-0.000226799
-0.000268876
-0.000311641
-0.000358881
-0.000415081
-0.000485408
-0.000575719
-0.000692555
-0.000843116
-0.00103513
-0.00127666
-0.00157572
-0.0019399
-0.00237588
-0.00288893
-0.00348257
-0.00415828
-0.00491539
-0.00575112
-0.00666075
-0.00763785
-0.00867458
-0.00976202
-0.0108904
-0.0120494
-0.0132286
-0.0144171
-0.0156044
-0.0167802
-0.0179346
-0.0190581
-0.020142
-0.021178
-0.0221587
-0.0230773
-0.0239277
-0.0247047
-0.0254035
-0.0260204
-0.026552
-0.0269957
-0.0273495
-0.027612
-0.0277826
-0.0278608
-0.0278472
-0.0277427
-0.0275487
-0.0272672
-0.0269009
-0.0264529
-0.0259271
-0.0253277
-0.0246596
-0.0239285
-0.0231404
-0.0223024
-0.0214219
-0.0205074
-0.0195678
-0.018613
-0.0176535
-0.0167007
-0.0157663
-0.0148626
-0.0140019
-0.0131964
-0.0124574
-0.0117953
-0.0112186
-0.0107335
-0.0103434
-0.0100486
-0.00984574
-0.00972847
-0.0096873
-0.0097104
-0.0097844
-0.00989528
-0.0100294
-0.010174
-0.0103186
-0.0104542
-0.0105748
-0.010676
-0.0107556
-0.0108133
-0.0108496
-0.0108662
-0.0108655
-0.0108502
-0.0108231
-0.0107872
-0.0107454
-0.0107002
-0.0106542
-0.0106091
-0.0105667
-0.0105282
-0.0104943
-0.0104653
-0.010441
-0.0104208
-0.0104036
-0.0103879
-0.0103696
-0.0103548
0.000419172
0.000428823
0.000429566
0.000407502
0.000367418
0.000312623
0.000247471
0.000176917
0.000105534
3.68681e-05
-2.6863e-05
-8.48735e-05
-0.000137752
-0.000187328
-0.000236531
-0.000289265
-0.000350343
-0.000425448
-0.000521125
-0.000644761
-0.000804512
-0.00100915
-0.00126777
-0.00158942
-0.00198259
-0.00245465
-0.00301137
-0.00365651
-0.00439151
-0.00521545
-0.00612509
-0.00711509
-0.00817831
-0.00930613
-0.0104888
-0.0117158
-0.012976
-0.0142581
-0.0155508
-0.0168431
-0.0181241
-0.0193836
-0.020612
-0.0218006
-0.022941
-0.0240261
-0.0250492
-0.0260045
-0.0268871
-0.0276927
-0.0284175
-0.0290586
-0.0296136
-0.0300807
-0.0304585
-0.0307462
-0.0309435
-0.0310506
-0.0310681
-0.0309971
-0.0308389
-0.0305954
-0.030269
-0.0298624
-0.0293787
-0.0288213
-0.0281943
-0.0275019
-0.026749
-0.0259407
-0.0250828
-0.0241815
-0.0232436
-0.0222765
-0.0212885
-0.0202883
-0.0192855
-0.0182905
-0.0173141
-0.0163679
-0.0154635
-0.0146126
-0.013826
-0.0131137
-0.0124838
-0.0119424
-0.0114923
-0.0111337
-0.010863
-0.0106737
-0.0105564
-0.0104998
-0.0104913
-0.010518
-0.0105677
-0.0106295
-0.0106943
-0.0107551
-0.0108071
-0.010847
-0.0108733
-0.0108859
-0.0108853
-0.010873
-0.0108506
-0.0108202
-0.010784
-0.0107441
-0.0107025
-0.0106612
-0.0106215
-0.0105849
-0.0105523
-0.0105241
-0.0105004
-0.0104807
-0.0104642
-0.0104496
-0.0104336
-0.0104209
0.000543171
0.000548698
0.000543405
0.000514674
0.000467429
0.000405501
0.000333711
0.000257255
0.000180699
0.000107333
3.89165e-05
-2.43746e-05
-8.38567e-05
-0.000142193
-0.000203261
-0.000272066
-0.000354686
-0.000458254
-0.000590918
-0.000761738
-0.000980492
-0.00125734
-0.00160237
-0.002025
-0.00253339
-0.00313388
-0.0038305
-0.00462474
-0.00551544
-0.00649891
-0.00756918
-0.00871835
-0.00993694
-0.0112143
-0.012539
-0.013899
-0.0152822
-0.0166767
-0.0180706
-0.0194528
-0.0208127
-0.0221406
-0.0234274
-0.0246653
-0.025847
-0.0269663
-0.0280177
-0.0289965
-0.0298988
-0.0307214
-0.0314616
-0.0321172
-0.0326867
-0.0331691
-0.0335634
-0.0338696
-0.0340877
-0.0342182
-0.0342619
-0.03422
-0.0340938
-0.0338853
-0.0335964
-0.0332296
-0.0327875
-0.0322729
-0.031689
-0.0310393
-0.0303272
-0.0295567
-0.028732
-0.0278574
-0.0269378
-0.0259784
-0.0249849
-0.0239636
-0.0229215
-0.0218665
-0.0208072
-0.0197532
-0.0187151
-0.017704
-0.0167317
-0.0158103
-0.0149511
-0.0141648
-0.0134604
-0.0128444
-0.0123204
-0.0118888
-0.0115464
-0.0112865
-0.0111
-0.0109755
-0.0109007
-0.0108632
-0.0108516
-0.0108557
-0.0108673
-0.0108803
-0.0108902
-0.0108943
-0.0108912
-0.0108805
-0.0108625
-0.0108382
-0.0108089
-0.0107758
-0.0107407
-0.0107051
-0.0106703
-0.0106377
-0.0106082
-0.0105824
-0.0105606
-0.0105425
-0.0105275
-0.0105146
-0.0105009
-0.0104903
0.000687177
0.000687745
0.000675523
0.00063969
0.000585112
0.000516017
0.000437562
0.000355024
0.000272775
0.000193682
0.00011888
4.77759e-05
-2.18383e-05
-9.36416e-05
-0.000172675
-0.000265272
-0.000379027
-0.000522729
-0.000706256
-0.000940331
-0.00123614
-0.00160481
-0.00205675
-0.00260096
-0.00324441
-0.00399153
-0.00484388
-0.00580016
-0.00685624
-0.00800552
-0.00923932
-0.0105472
-0.0119176
-0.0133381
-0.0147956
-0.0162772
-0.0177701
-0.0192619
-0.0207408
-0.0221959
-0.0236174
-0.0249963
-0.0263246
-0.0275954
-0.0288028
-0.0299417
-0.0310078
-0.0319976
-0.0329084
-0.0337377
-0.0344839
-0.0351456
-0.0357221
-0.0362127
-0.0366174
-0.0369363
-0.0371698
-0.0373186
-0.0373838
-0.0373666
-0.0372684
-0.0370911
-0.0368364
-0.0365065
-0.0361037
-0.0356304
-0.0350893
-0.0344829
-0.0338141
-0.0330856
-0.0323005
-0.0314618
-0.0305725
-0.0296362
-0.0286562
-0.0276367
-0.0265821
-0.0254975
-0.0243888
-0.0232631
-0.0221286
-0.0209948
-0.0198724
-0.0187734
-0.0177108
-0.016698
-0.0157483
-0.0148743
-0.0140863
-0.0133925
-0.0127972
-0.012301
-0.0119005
-0.0115884
-0.0113546
-0.0111869
-0.0110723
-0.010998
-0.0109524
-0.0109256
-0.0109097
-0.0108988
-0.0108889
-0.0108772
-0.0108623
-0.0108437
-0.0108215
-0.0107963
-0.0107691
-0.0107408
-0.0107127
-0.0106859
-0.0106612
-0.0106395
-0.0106209
-0.0106054
-0.0105926
-0.0105817
-0.0105704
-0.0105619
0.000851923
0.000846735
0.000826758
0.000783512
0.000721581
0.000645362
0.000560193
0.000471229
0.000382456
0.00029613
0.000212592
0.000130306
4.59925e-05
-4.52508e-05
-0.000149852
-0.000275711
-0.000432129
-0.000629673
-0.000879917
-0.00119502
-0.00158712
-0.00206764
-0.00264648
-0.00333133
-0.00412709
-0.00503552
-0.00605522
-0.00718171
-0.00840778
-0.00972392
-0.0111188
-0.0125798
-0.0140933
-0.0156454
-0.0172221
-0.0188097
-0.0203951
-0.0219661
-0.0235115
-0.0250211
-0.0264859
-0.0278982
-0.0292513
-0.0305395
-0.0317583
-0.0329039
-0.033973
-0.0349635
-0.0358733
-0.0367012
-0.0374461
-0.0381075
-0.0386851
-0.0391788
-0.039589
-0.039916
-0.0401606
-0.0403237
-0.0404063
-0.0404098
-0.0403357
-0.0401856
-0.0399612
-0.0396646
-0.0392978
-0.0388628
-0.0383618
-0.0377971
-0.0371708
-0.0364851
-0.0357419
-0.0349435
-0.0340916
-0.0331881
-0.0322351
-0.0312345
-0.0301886
-0.0291001
-0.0279721
-0.0268089
-0.0256158
-0.0243994
-0.0231682
-0.0219324
-0.0207043
-0.0194979
-0.0183287
-0.0172129
-0.0161668
-0.0152053
-0.0143413
-0.0135837
-0.0129372
-0.0124015
-0.0119715
-0.0116378
-0.0113879
-0.0112076
-0.0110823
-0.0109983
-0.0109437
-0.0109086
-0.0108853
-0.0108684
-0.0108541
-0.0108399
-0.0108245
-0.0108075
-0.0107889
-0.0107692
-0.0107491
-0.0107295
-0.0107112
-0.0106948
-0.0106807
-0.0106688
-0.0106588
-0.0106502
-0.0106414
-0.0106346
0.0010376
0.00102579
0.000997374
0.000946607
0.000877354
0.000794096
0.000702066
0.000606077
0.000509531
0.000413878
0.000318486
0.000220695
0.000115949
-2.08901e-06
-0.000141456
-0.000311804
-0.000524248
-0.000791094
-0.00112538
-0.00154023
-0.00204806
-0.00265973
-0.00338372
-0.00422552
-0.0051872
-0.00626736
-0.00746123
-0.00876103
-0.0101565
-0.0116353
-0.0131837
-0.0147871
-0.0164305
-0.0180987
-0.0197772
-0.0214522
-0.023111
-0.0247418
-0.0263344
-0.0278798
-0.0293705
-0.0308
-0.032163
-0.0334554
-0.0346738
-0.0358156
-0.0368788
-0.037862
-0.0387643
-0.0395849
-0.0403236
-0.0409804
-0.0415553
-0.0420486
-0.042461
-0.0427931
-0.0430457
-0.0432199
-0.0433168
-0.0433377
-0.043284
-0.0431574
-0.0429596
-0.0426923
-0.0423573
-0.0419566
-0.0414921
-0.0409656
-0.0403789
-0.0397337
-0.0390315
-0.0382737
-0.0374614
-0.0365955
-0.0356768
-0.0347058
-0.0336832
-0.0326095
-0.0314858
-0.0303134
-0.0290948
-0.0278335
-0.0265348
-0.025206
-0.0238569
-0.0224997
-0.0211497
-0.0198244
-0.0185431
-0.0173261
-0.0161933
-0.0151624
-0.0142474
-0.0134573
-0.0127951
-0.0122575
-0.0118354
-0.0115157
-0.0112822
-0.011118
-0.011007
-0.0109346
-0.010889
-0.0108607
-0.010843
-0.0108308
-0.0108211
-0.0108118
-0.0108021
-0.0107916
-0.0107806
-0.0107694
-0.0107586
-0.0107487
-0.01074
-0.0107325
-0.0107259
-0.01072
-0.0107133
-0.010708
0.00124373
0.00122423
0.00118682
0.00112863
0.00105221
0.000961931
0.000862698
0.00075874
0.000652651
0.000544889
0.000433658
0.000314979
0.000182818
2.91932e-05
-0.000155719
-0.000383419
-0.000666802
-0.00101967
-0.00145607
-0.00198941
-0.00263152
-0.00339177
-0.00427634
-0.00528773
-0.00642467
-0.00768218
-0.009052
-0.0105231
-0.0120823
-0.0137146
-0.0154044
-0.0171355
-0.0188917
-0.0206575
-0.0224183
-0.0241608
-0.0258729
-0.0275443
-0.029166
-0.0307304
-0.0322315
-0.0336645
-0.0350255
-0.0363115
-0.0375206
-0.0386512
-0.0397023
-0.0406733
-0.0415639
-0.042374
-0.0431038
-0.0437536
-0.0443237
-0.0448149
-0.0452277
-0.045563
-0.0458217
-0.0460048
-0.0461136
-0.0461492
-0.0461131
-0.0460067
-0.0458318
-0.0455898
-0.0452826
-0.0449119
-0.0444793
-0.0439866
-0.0434352
-0.0428267
-0.0421621
-0.0414424
-0.0406683
-0.0398402
-0.038958
-0.0380214
-0.0370299
-0.0359826
-0.0348788
-0.0337179
-0.0324995
-0.0312244
-0.0298946
-0.0285137
-0.0270881
-0.0256269
-0.0241425
-0.0226511
-0.0211724
-0.0197289
-0.0183452
-0.017046
-0.0158547
-0.0147902
-0.0138662
-0.0130886
-0.0124558
-0.0119587
-0.0115826
-0.011309
-0.0111182
-0.0109909
-0.0109102
-0.0108618
-0.0108348
-0.0108211
-0.0108149
-0.0108123
-0.0108112
-0.0108101
-0.0108086
-0.0108066
-0.0108042
-0.0108017
-0.0107992
-0.0107967
-0.010794
-0.0107908
-0.0107861
-0.0107821
0.00146826
0.00144084
0.0013938
0.00132826
0.00124488
0.0011475
0.00104044
0.000927123
0.000809119
0.000685694
0.000553694
0.000407629
0.000239788
4.03797e-05
-0.000202302
-0.000501575
-0.000871886
-0.00132809
-0.00188457
-0.00255414
-0.00334715
-0.00427057
-0.00532748
-0.00651684
-0.00783363
-0.00926919
-0.0108118
-0.0124473
-0.0141598
-0.0159324
-0.0177476
-0.0195884
-0.0214381
-0.0232814
-0.0251043
-0.0268944
-0.0286412
-0.0303356
-0.0319703
-0.0335395
-0.0350387
-0.0364645
-0.0378145
-0.0390871
-0.0402811
-0.0413961
-0.0424316
-0.0433878
-0.0442649
-0.0450632
-0.0457831
-0.0464252
-0.0469901
-0.0474785
-0.0478911
-0.0482288
-0.0484925
-0.0486833
-0.0488022
-0.0488505
-0.0488296
-0.0487407
-0.0485854
-0.0483653
-0.0480819
-0.0477369
-0.0473318
-0.0468681
-0.0463472
-0.0457704
-0.0451387
-0.0444529
-0.0437133
-0.0429201
-0.0420729
-0.0411708
-0.0402128
-0.0391971
-0.0381217
-0.0369847
-0.0357838
-0.0345174
-0.0331845
-0.0317856
-0.0303231
-0.0288019
-0.0272307
-0.0256219
-0.0239928
-0.0223651
-0.0207646
-0.0192204
-0.0177624
-0.0164194
-0.0152159
-0.0141699
-0.0132903
-0.0125766
-0.0120191
-0.011601
-0.0113007
-0.0110951
-0.0109618
-0.0108811
-0.0108366
-0.010816
-0.0108101
-0.0108125
-0.010819
-0.0108271
-0.0108353
-0.0108428
-0.0108493
-0.0108548
-0.0108591
-0.0108621
-0.0108636
-0.0108633
-0.0108603
-0.0108571
0.00170858