/*--------------------------------*- C++ -*----------------------------------*\
| =========                 |                                                 |
| \\      /  F ield         | OpenFOAM: The Open Source CFD Toolbox           |
|  \\    /   O peration     | Version:  2406                                  |
|   \\  /    A nd           | Website:  www.openfoam.com                      |
|    \\/     M anipulation  |                                                 |
\*---------------------------------------------------------------------------*/
FoamFile
{
    version     2.0;
    format      ascii;
    arch        "LSB;label=32;scalar=64";
    class       volVectorField;
    location    "37.2";
    object      U;
}
// * * * * * * * * * * * * * * * * * * * * * * * * * * * * * * * * * * * * * //

dimensions      [0 1 -1 0 0 0 0];

internalField   nonuniform List<vector> 
14400
(
(-1.74152e-05 1.7364e-05 0)
(-1.62933e-06 -1.07151e-05 0)
(0.00010402 -4.14325e-05 0)
(0.00028622 -6.87555e-05 0)
(0.00053402 -8.50578e-05 0)
(0.000815104 -9.41705e-05 0)
(0.00111487 -9.51474e-05 0)
(0.00140797 -9.09421e-05 0)
(0.00168395 -8.20506e-05 0)
(0.00192807 -7.07346e-05 0)
(0.00213653 -5.7965e-05 0)
(0.00230472 -4.53845e-05 0)
(0.00243521 -3.37899e-05 0)
(0.00253062 -2.40845e-05 0)
(0.00259734 -1.65597e-05 0)
(0.00264119 -1.13991e-05 0)
(0.00266902 -8.3711e-06 0)
(0.00268615 -7.124e-06 0)
(0.00269705 -7.08332e-06 0)
(0.00270407 -7.6426e-06 0)
(0.00270792 -8.15325e-06 0)
(0.00270723 -8.0486e-06 0)
(0.00269913 -6.85247e-06 0)
(0.00267938 -4.23455e-06 0)
(0.00264287 9.89625e-09 0)
(0.0025839 5.96941e-06 0)
(0.00249656 1.3666e-05 0)
(0.00237478 2.30912e-05 0)
(0.00221249 3.42475e-05 0)
(0.00200353 4.71656e-05 0)
(0.00174165 6.19104e-05 0)
(0.00142038 7.85689e-05 0)
(0.00103311 9.72327e-05 0)
(0.000573115 0.000117976 0)
(3.36486e-05 0.000140839 0)
(-0.000591867 0.000165811 0)
(-0.00130965 0.000192825 0)
(-0.00212534 0.000221744 0)
(-0.00304376 0.000252365 0)
(-0.00406863 0.000284408 0)
(-0.00520238 0.000317519 0)
(-0.00644586 0.000351272 0)
(-0.00779812 0.000385167 0)
(-0.00925625 0.00041864 0)
(-0.0108152 0.00045107 0)
(-0.0124675 0.000481788 0)
(-0.0142036 0.000510091 0)
(-0.0160113 0.000535252 0)
(-0.0178763 0.000556533 0)
(-0.0197819 0.000573202 0)
(-0.0217094 0.000584538 0)
(-0.0236379 0.000589846 0)
(-0.0255451 0.000588464 0)
(-0.0274068 0.000579775 0)
(-0.029198 0.000563216 0)
(-0.0308923 0.000538286 0)
(-0.032463 0.000504565 0)
(-0.033883 0.000461726 0)
(-0.0351255 0.000409559 0)
(-0.036164 0.00034799 0)
(-0.036973 0.000277112 0)
(-0.0375288 0.000197213 0)
(-0.0378093 0.000108805 0)
(-0.0377955 1.26552e-05 0)
(-0.0374711 -9.01906e-05 0)
(-0.0368242 -0.000198386 0)
(-0.035847 -0.000310274 0)
(-0.0345372 -0.000423891 0)
(-0.032898 -0.000536986 0)
(-0.030939 -0.000647056 0)
(-0.0286765 -0.000751406 0)
(-0.0261335 -0.000847233 0)
(-0.0233403 -0.000931721 0)
(-0.0203337 -0.00100217 0)
(-0.0171566 -0.00105612 0)
(-0.0138576 -0.00109149 0)
(-0.0104898 -0.00110673 0)
(-0.00710909 -0.0011009 0)
(-0.00377296 -0.00107382 0)
(-0.000538612 -0.00102607 0)
(0.00253895 -0.000959053 0)
(0.00540875 -0.000874906 0)
(0.00802568 -0.000776453 0)
(0.010352 -0.000667045 0)
(0.0123586 -0.000550389 0)
(0.0140259 -0.000430347 0)
(0.0153445 -0.000310727 0)
(0.0163146 -0.000195085 0)
(0.0169461 -8.65526e-05 0)
(0.0172572 1.22948e-05 0)
(0.0172735 9.95227e-05 0)
(0.0170263 0.000173869 0)
(0.016551 0.000234734 0)
(0.0158852 0.000282116 0)
(0.0150674 0.000316542 0)
(0.0141353 0.000338947 0)
(0.0131246 0.00035058 0)
(0.0120679 0.000352881 0)
(0.0109939 0.000347395 0)
(0.0099273 0.000335665 0)
(0.00888816 0.000319191 0)
(0.00789238 0.000299332 0)
(0.00695148 0.00027733 0)
(0.00607356 0.000254212 0)
(0.00526294 0.000230892 0)
(0.00452171 0.000208035 0)
(0.00384886 0.00018627 0)
(0.00324249 0.000165935 0)
(0.00269797 0.000147463 0)
(0.00221147 0.000130848 0)
(0.00177634 0.000116355 0)
(0.0013892 0.000103436 0)
(0.00104352 9.21041e-05 0)
(0.000739774 8.08145e-05 0)
(0.000474715 6.93053e-05 0)
(0.000256648 5.45012e-05 0)
(8.87287e-05 3.68415e-05 0)
(-1.40027e-05 1.26787e-05 0)
(-4.762e-05 -9.65313e-06 0)
(-2.2974e-05 -2.25051e-05 0)
(9.5427e-06 2.28182e-06 0)
(0.000147211 -0.000150309 0)
(0.000470978 -0.000306131 0)
(0.000943062 -0.000444212 0)
(0.00154848 -0.000535318 0)
(0.00222555 -0.000587096 0)
(0.00294182 -0.000596594 0)
(0.00364531 -0.000574051 0)
(0.00430905 -0.000524291 0)
(0.00490098 -0.000457475 0)
(0.00540846 -0.000380535 0)
(0.00582008 -0.00030177 0)
(0.0061378 -0.000226737 0)
(0.00636564 -0.000160337 0)
(0.00651487 -0.000104982 0)
(0.00659679 -6.17547e-05 0)
(0.00662445 -2.97894e-05 0)
(0.00660822 -7.08932e-06 0)
(0.00655636 9.47284e-06 0)
(0.00647261 2.34835e-05 0)
(0.00635679 3.87393e-05 0)
(0.00620408 5.87399e-05 0)
(0.00600596 8.64768e-05 0)
(0.00575054 0.000124204 0)
(0.00542366 0.000173452 0)
(0.00500952 0.000235096 0)
(0.00449147 0.000309564 0)
(0.00385236 0.000397026 0)
(0.00307493 0.000497581 0)
(0.00214183 0.00061135 0)
(0.00103578 0.0007385 0)
(-0.000260398 0.000879179 0)
(-0.00176348 0.00103342 0)
(-0.00348957 0.00120103 0)
(-0.00545362 0.00138148 0)
(-0.00766885 0.00157383 0)
(-0.0101461 0.00177666 0)
(-0.0128934 0.00198806 0)
(-0.0159148 0.00220562 0)
(-0.0192103 0.00242641 0)
(-0.0227748 0.00264706 0)
(-0.0265983 0.00286373 0)
(-0.0306648 0.00307228 0)
(-0.0349525 0.00326827 0)
(-0.0394337 0.0034471 0)
(-0.0440752 0.00360411 0)
(-0.0488382 0.00373469 0)
(-0.053679 0.0038344 0)
(-0.0585497 0.00389907 0)
(-0.0633985 0.00392488 0)
(-0.0681711 0.00390846 0)
(-0.0728113 0.00384692 0)
(-0.0772616 0.00373794 0)
(-0.0814645 0.00357979 0)
(-0.0853631 0.00337136 0)
(-0.0889017 0.00311218 0)
(-0.0920273 0.00280249 0)
(-0.0946893 0.00244319 0)
(-0.0968409 0.00203595 0)
(-0.0984395 0.0015832 0)
(-0.0994474 0.00108816 0)
(-0.0998322 0.000554938 0)
(-0.0995674 -1.14737e-05 0)
(-0.0986335 -0.000605132 0)
(-0.0970179 -0.00121912 0)
(-0.0947158 -0.00184554 0)
(-0.0917309 -0.00247554 0)
(-0.0880758 -0.00309934 0)
(-0.0837722 -0.00370638 0)
(-0.0788518 -0.00428545 0)
(-0.0733559 -0.00482494 0)
(-0.0673361 -0.00531308 0)
(-0.0608535 -0.00573835 0)
(-0.053979 -0.0060898 0)
(-0.0467918 -0.00635758 0)
(-0.0393791 -0.00653332 0)
(-0.0318343 -0.00661062 0)
(-0.0242557 -0.00658549 0)
(-0.0167442 -0.00645665 0)
(-0.00940126 -0.00622582 0)
(-0.00232644 -0.00589783 0)
(0.00438509 -0.00548061 0)
(0.0106452 -0.00498495 0)
(0.0163751 -0.0044242 0)
(0.0215079 -0.00381374 0)
(0.0259903 -0.00317036 0)
(0.0297842 -0.0025115 0)
(0.0328676 -0.00185458 0)
(0.0352353 -0.00121619 0)
(0.0368987 -0.000611401 0)
(0.0378845 -5.32238e-05 0)
(0.038234 0.000447878 0)
(0.0380008 0.000884269 0)
(0.0372485 0.00125125 0)
(0.0360478 0.00154704 0)
(0.0344739 0.00177252 0)
(0.0326034 0.00193099 0)
(0.0305115 0.00202763 0)
(0.0282695 0.00206912 0)
(0.0259432 0.00206308 0)
(0.0235904 0.00201762 0)
(0.021261 0.00194082 0)
(0.0189954 0.00184054 0)
(0.0168258 0.00172392 0)
(0.0147751 0.00159746 0)
(0.0128591 0.0014666 0)
(0.0110859 0.00133614 0)
(0.00945904 0.00120956 0)
(0.00797526 0.00108997 0)
(0.0066307 0.000978671 0)
(0.00541558 0.000876931 0)
(0.0043246 0.000783059 0)
(0.00334709 0.000696044 0)
(0.00248409 0.000609775 0)
(0.0017304 0.000521394 0)
(0.00110078 0.000419865 0)
(0.000598173 0.000306165 0)
(0.000248068 0.000170508 0)
(4.66426e-05 4.39403e-05 0)
(-9.84016e-06 -4.75732e-05 0)
(3.75475e-05 -9.84493e-05 0)
(0.000293908 -0.000471292 0)
(0.000817187 -0.000833348 0)
(0.00152876 -0.00114506 0)
(0.00241218 -0.00135742 0)
(0.00338267 -0.0014759 0)
(0.00439853 -0.00149734 0)
(0.0053904 -0.00143982 0)
(0.00632127 -0.00131674 0)
(0.00714771 -0.00114958 0)
(0.00785069 -0.000955951 0)
(0.00841352 -0.000754536 0)
(0.00883629 -0.000559351 0)
(0.00912244 -0.000381793 0)
(0.0092845 -0.000228209 0)
(0.00933539 -0.000101174 0)
(0.00929004 1.06327e-06 0)
(0.00915995 8.33452e-05 0)
(0.00895337 0.000153141 0)
(0.00867251 0.000219269 0)
(0.00831392 0.000291047 0)
(0.00786773 0.000377218 0)
(0.00731878 0.000485309 0)
(0.00664719 0.000621135 0)
(0.00582979 0.000788742 0)
(0.00484108 0.000990575 0)
(0.0036543 0.00122789 0)
(0.00224217 0.00150117 0)
(0.00057741 0.00181052 0)
(-0.00136687 0.00215585 0)
(-0.00361671 0.00253688 0)
(-0.0061969 0.00295298 0)
(-0.0091303 0.00340297 0)
(-0.012437 0.00388476 0)
(-0.0161336 0.00439522 0)
(-0.0202318 0.00492994 0)
(-0.0247376 0.00548317 0)
(-0.0296503 0.00604783 0)
(-0.0349615 0.00661549 0)
(-0.0406544 0.00717658 0)
(-0.0467036 0.00772052 0)
(-0.0530743 0.00823598 0)
(-0.0597231 0.0087112 0)
(-0.0665983 0.00913425 0)
(-0.0736404 0.00949345 0)
(-0.0807836 0.00977768 0)
(-0.0879568 0.00997667 0)
(-0.0950852 0.0100813 0)
(-0.102092 0.0100839 0)
(-0.108899 0.00997833 0)
(-0.11543 0.00975995 0)
(-0.121609 0.00942594 0)
(-0.127366 0.00897511 0)
(-0.132632 0.00840787 0)
(-0.137345 0.00772618 0)
(-0.141448 0.00693343 0)
(-0.144889 0.0060344 0)
(-0.147622 0.00503516 0)
(-0.14961 0.00394303 0)
(-0.150819 0.00276659 0)
(-0.151224 0.00151564 0)
(-0.150805 0.000201251 0)
(-0.14955 -0.00116418 0)
(-0.147453 -0.00256692 0)
(-0.144516 -0.00399184 0)
(-0.140748 -0.00542241 0)
(-0.136165 -0.00684075 0)
(-0.130793 -0.00822767 0)
(-0.124664 -0.0095629 0)
(-0.11782 -0.0108253 0)
(-0.110311 -0.0119931 0)
(-0.102197 -0.0130446 0)
(-0.0935467 -0.0139584 0)
(-0.0844365 -0.0147144 0)
(-0.0749521 -0.0152941 0)
(-0.0651867 -0.0156818 0)
(-0.0552404 -0.0158651 0)
(-0.0452186 -0.0158354 0)
(-0.0352307 -0.0155893 0)
(-0.0253881 -0.0151284 0)
(-0.0158023 -0.0144599 0)
(-0.00658258 -0.0135967 0)
(0.00216668 -0.0125572 0)
(0.0103481 -0.0113648 0)
(0.0178737 -0.0100476 0)
(0.0246673 -0.00863687 0)
(0.0306666 -0.0071664 0)
(0.0358242 -0.00567116 0)
(0.04011 -0.00418601 0)
(0.0435109 -0.00274437 0)
(0.0460321 -0.00137702 0)
(0.0476963 -0.000111015 0)
(0.0485433 0.00103125 0)
(0.0486282 0.00203274 0)
(0.04802 0.0028822 0)
(0.0467986 0.00357425 0)
(0.0450517 0.00410928 0)
(0.0428721 0.00449289 0)
(0.0403537 0.00473525 0)
(0.0375883 0.00485012 0)
(0.0346626 0.00485384 0)
(0.031656 0.00476422 0)
(0.0286378 0.0045996 0)
(0.0256671 0.00437785 0)
(0.022791 0.00411586 0)
(0.0200464 0.00382869 0)
(0.0174581 0.00352979 0)
(0.0150434 0.00322989 0)
(0.0128086 0.00293804 0)
(0.0107571 0.00265962 0)
(0.00888307 0.0023984 0)
(0.00718468 0.0021526 0)
(0.00565155 0.0019196 0)
(0.00428748 0.00168824 0)
(0.0030857 0.00145076 0)
(0.00206619 0.0011877 0)
(0.00122783 0.00089835 0)
(0.00060805 0.000569637 0)
(0.00019433 0.000252613 0)
(1.69288e-05 -7.883e-06 0)
(6.2103e-05 -0.000269264 0)
(0.000424985 -0.000933948 0)
(0.00112053 -0.00154268 0)
(0.00202562 -0.00204744 0)
(0.00312135 -0.00239023 0)
(0.00430248 -0.00257453 0)
(0.00552313 -0.00259901 0)
(0.00670166 -0.00248968 0)
(0.0077962 -0.00226985 0)
(0.00875574 -0.00197336 0)
(0.00955774 -0.00162991 0)
(0.0101815 -0.00126977 0)
(0.0106253 -0.000916481 0)
(0.0108908 -0.000588706 0)
(0.0109897 -0.00029714 0)
(0.0109335 -4.58669e-05 0)
(0.0107359 0.000168127 0)
(0.0104059 0.000353263 0)
(0.0099487 0.000522365 0)
(0.00936186 0.000690656 0)
(0.0086362 0.00087419 0)
(0.00775491 0.00108809 0)
(0.00669493 0.00134539 0)
(0.00542771 0.0016562 0)
(0.00392098 0.00202758 0)
(0.00213996 0.00246378 0)
(4.8801e-05 0.00296686 0)
(-0.00238846 0.00353733 0)
(-0.00520695 0.00417467 0)
(-0.00844014 0.00487757 0)
(-0.0121189 0.00564386 0)
(-0.0162704 0.0064702 0)
(-0.0209171 0.00735166 0)
(-0.0260751 0.00828132 0)
(-0.0317527 0.00924995 0)
(-0.0379491 0.0102458 0)
(-0.0446533 0.0112547 0)
(-0.0518427 0.0122602 0)
(-0.059483 0.0132437 0)
(-0.0675278 0.0141853 0)
(-0.0759189 0.015064 0)
(-0.0845877 0.0158587 0)
(-0.0934563 0.0165486 0)
(-0.102439 0.0171141 0)
(-0.111447 0.0175375 0)
(-0.120386 0.0178034 0)
(-0.129162 0.0178991 0)
(-0.137685 0.0178153 0)
(-0.145865 0.0175454 0)
(-0.153621 0.0170864 0)
(-0.160875 0.0164381 0)
(-0.167559 0.0156029 0)
(-0.173611 0.0145858 0)
(-0.178977 0.0133939 0)
(-0.183611 0.012036 0)
(-0.187474 0.0105223 0)
(-0.190532 0.00886457 0)
(-0.192762 0.00707542 0)
(-0.194141 0.00516861 0)
(-0.194657 0.00315889 0)
(-0.194299 0.00106206 0)
(-0.193063 -0.00110495 0)
(-0.190948 -0.00332397 0)
(-0.187959 -0.00557546 0)
(-0.184107 -0.00783838 0)
(-0.179405 -0.0100901 0)
(-0.173872 -0.0123064 0)
(-0.167536 -0.0144613 0)
(-0.160427 -0.0165276 0)
(-0.152583 -0.0184766 0)
(-0.144052 -0.020279 0)
(-0.134885 -0.021905 0)
(-0.125145 -0.0233252 0)
(-0.114902 -0.0245113 0)
(-0.104234 -0.0254372 0)
(-0.093227 -0.0260799 0)
(-0.0819747 -0.0264206 0)
(-0.0705775 -0.0264457 0)
(-0.059141 -0.0261478 0)
(-0.0477747 -0.0255263 0)
(-0.0365902 -0.0245884 0)
(-0.0256988 -0.023349 0)
(-0.01521 -0.0218306 0)
(-0.00522824 -0.0200632 0)
(0.00414834 -0.0180833 0)
(0.0128307 -0.0159331 0)
(0.0207404 -0.0136588 0)
(0.0278118 -0.0113098 0)
(0.0339932 -0.00893634 0)
(0.0392481 -0.00658843 0)
(0.0435563 -0.00431401 0)
(0.0469143 -0.00215749 0)
(0.049336 -0.000158271 0)
(0.0508521 0.00165048 0)
(0.0515098 0.00324288 0)
(0.0513716 0.00460105 0)
(0.0505135 0.00571559 0)
(0.0490224 0.00658549 0)
(0.046993 0.0072178 0)
(0.0445249 0.00762667 0)
(0.0417182 0.00783227 0)
(0.0386704 0.00785915 0)
(0.0354728 0.00773482 0)
(0.0322084 0.0074879 0)
(0.0289483 0.00714697 0)
(0.025753 0.00673891 0)
(0.022669 0.00628854 0)
(0.019733 0.00581691 0)
(0.0169673 0.00534198 0)
(0.0143892 0.00487605 0)
(0.0120029 0.00442781 0)
(0.00981544 0.00399758 0)
(0.00782091 0.00358266 0)
(0.00602916 0.00316845 0)
(0.00443282 0.00274283 0)
(0.00305824 0.00227927 0)
(0.0018989 0.00177321 0)
(0.0010073 0.00120723 0)
(0.000364257 0.000638515 0)
(4.86417e-05 0.000117371 0)
(7.76322e-05 -0.000503077 0)
(0.00052082 -0.00153326 0)
(0.00135336 -0.00243272 0)
(0.00241078 -0.00315171 0)
(0.00366825 -0.00363161 0)
(0.0049996 -0.00387538 0)
(0.00635498 -0.0038869 0)
(0.00764227 -0.00370113 0)
(0.00881703 -0.00335359 0)
(0.00982314 -0.00289179 0)
(0.0106367 -0.00235915 0)
(0.0112346 -0.00179849 0)
(0.0116141 -0.00124376 0)
(0.011775 -0.000721163 0)
(0.011727 -0.000245722 0)
(0.0114791 0.000177462 0)
(0.0110411 0.000553476 0)
(0.0104173 0.000895444 0)
(0.00960665 0.00122281 0)
(0.0085997 0.00155853 0)
(0.0073791 0.0019266 0)
(0.00591914 0.00234951 0)
(0.00418751 0.00284649 0)
(0.00214638 0.00343231 0)
(-0.000245437 0.00411707 0)
(-0.00303099 0.00490647 0)
(-0.00625337 0.00580272 0)
(-0.00995435 0.00680525 0)
(-0.0141729 0.00791138 0)
(-0.0189438 0.00911645 0)
(-0.0242961 0.0104136 0)
(-0.0302511 0.0117934 0)
(-0.0368208 0.0132432 0)
(-0.0440059 0.0147465 0)
(-0.0517941 0.0162832 0)
(-0.0601589 0.0178292 0)
(-0.0690587 0.0193572 0)
(-0.0784373 0.0208372 0)
(-0.0882237 0.0222371 0)
(-0.0983345 0.0235246 0)
(-0.108676 0.0246677 0)
(-0.119145 0.0256363 0)
(-0.129638 0.0264033 0)
(-0.140045 0.0269454 0)
(-0.150262 0.0272441 0)
(-0.160188 0.0272858 0)
(-0.169729 0.0270623 0)
(-0.1788 0.0265701 0)
(-0.187326 0.0258104 0)
(-0.195243 0.0247885 0)
(-0.202493 0.023513 0)
(-0.209033 0.0219951 0)
(-0.214823 0.0202483 0)
(-0.219835 0.0182876 0)
(-0.224046 0.0161288 0)
(-0.227437 0.0137887 0)
(-0.229996 0.0112845 0)
(-0.231713 0.00863397 0)
(-0.232582 0.00585513 0)
(-0.2326 0.00296662 0)
(-0.231764 -1.21892e-05 0)
(-0.230076 -0.00306099 0)
(-0.227537 -0.00615825 0)
(-0.224152 -0.00928092 0)
(-0.219927 -0.0124042 0)
(-0.214873 -0.0155012 0)
(-0.209003 -0.0185431 0)
(-0.202333 -0.0214986 0)
(-0.194887 -0.0243344 0)
(-0.186692 -0.0270152 0)
(-0.177782 -0.0295041 0)
(-0.168201 -0.0317636 0)
(-0.157997 -0.0337556 0)
(-0.147229 -0.0354433 0)
(-0.135967 -0.0367917 0)
(-0.124285 -0.0377693 0)
(-0.112272 -0.0383494 0)
(-0.10002 -0.0385115 0)
(-0.0876313 -0.0382427 0)
(-0.075213 -0.0375385 0)
(-0.0628763 -0.0364043 0)
(-0.0507341 -0.0348552 0)
(-0.0388989 -0.0329164 0)
(-0.0274806 -0.0306229 0)
(-0.0165836 -0.0280183 0)
(-0.00630522 -0.0251539 0)
(0.00326643 -0.022087 0)
(0.0120541 -0.0188793 0)
(0.0199924 -0.0155948 0)
(0.0270293 -0.0122985 0)
(0.0331262 -0.00905372 0)
(0.0382592 -0.00592113 0)
(0.0424193 -0.00295667 0)
(0.045613 -0.000210118 0)
(0.0478624 0.00227632 0)
(0.0492052 0.00446929 0)
(0.0496947 0.00634532 0)
(0.0493982 0.00789147 0)
(0.0483959 0.00910563 0)
(0.0467781 0.00999613 0)
(0.0446424 0.010581 0)
(0.0420899 0.0108864 0)
(0.0392214 0.0109451 0)
(0.0361343 0.0107938 0)
(0.032918 0.0104718 0)
(0.0296533 0.0100179 0)
(0.0264074 0.0094697 0)
(0.0232381 0.00886062 0)
(0.0201867 0.00822008 0)
(0.0172884 0.00757019 0)
(0.0145612 0.00692715 0)
(0.0120257 0.00629618 0)
(0.00968388 0.0056764 0)
(0.00755514 0.00505214 0)
(0.00563403 0.00440735 0)
(0.00395603 0.00370988 0)
(0.00251176 0.00294822 0)
(0.00137266 0.00209887 0)
(0.000517094 0.00121141 0)
(7.55987e-05 0.000329489 0)
(8.94001e-05 -0.000775321 0)
(0.000595593 -0.00222403 0)
(0.00153439 -0.00344087 0)
(0.00270644 -0.00437902 0)
(0.00407841 -0.00498653 0)
(0.00550443 -0.00527 0)
(0.00693019 -0.00524252 0)
(0.00825468 -0.00495013 0)
(0.00943222 -0.00444249 0)
(0.0104036 -0.00378159 0)
(0.0111452 -0.00302521 0)
(0.0116328 -0.00222859 0)
(0.0118634 -0.00143568 0)
(0.0118348 -0.000679353 0)
(0.0115544 2.20676e-05 0)
(0.0110266 0.000663717 0)
(0.0102556 0.00125405 0)
(0.00923852 0.00181216 0)
(0.0079657 0.00236525 0)
(0.00641792 0.00294484 0)
(0.00456763 0.0035834 0)
(0.00237874 0.0043109 0)
(-0.000190972 0.00515247 0)
(-0.00318836 0.00612684 0)
(-0.00666224 0.00724603 0)
(-0.0106615 0.00851584 0)
(-0.0152327 0.00993673 0)
(-0.0204185 0.0115047 0)
(-0.0262552 0.013212 0)
(-0.0327706 0.0150469 0)
(-0.0399821 0.0169934 0)
(-0.0478938 0.019031 0)
(-0.0564948 0.0211337 0)
(-0.0657571 0.0232703 0)
(-0.0756349 0.0254045 0)
(-0.0860642 0.0274955 0)
(-0.0969641 0.0295 0)
(-0.108238 0.0313728 0)
(-0.119779 0.0330694 0)
(-0.13147 0.0345477 0)
(-0.14319 0.0357696 0)
(-0.15482 0.0367028 0)
(-0.166246 0.0373216 0)
(-0.177359 0.0376078 0)
(-0.188062 0.0375506 0)
(-0.198271 0.0371462 0)
(-0.207914 0.0363975 0)
(-0.216931 0.0353125 0)
(-0.225275 0.0339038 0)
(-0.232909 0.0321875 0)
(-0.239806 0.0301817 0)
(-0.245945 0.0279062 0)
(-0.251313 0.0253812 0)
(-0.255901 0.0226276 0)
(-0.259701 0.0196656 0)
(-0.262711 0.0165154 0)
(-0.264929 0.0131967 0)
(-0.266351 0.00972875 0)
(-0.266976 0.00613097 0)
(-0.266803 0.0024228 0)
(-0.265829 -0.0013757 0)
(-0.264053 -0.00524353 0)
(-0.261472 -0.00915825 0)
(-0.258086 -0.0130956 0)
(-0.253893 -0.0170291 0)
(-0.248894 -0.0209296 0)
(-0.243092 -0.0247651 0)
(-0.236494 -0.0285006 0)
(-0.22911 -0.0320978 0)
(-0.220956 -0.0355159 0)
(-0.212053 -0.0387112 0)
(-0.20243 -0.0416383 0)
(-0.192124 -0.044251 0)
(-0.181182 -0.0465029 0)
(-0.169659 -0.0483497 0)
(-0.157624 -0.0497499 0)
(-0.145153 -0.0506676 0)
(-0.132334 -0.0510733 0)
(-0.119265 -0.0509464 0)
(-0.106052 -0.0502766 0)
(-0.0928056 -0.049065 0)
(-0.079643 -0.0473249 0)
(-0.0666815 -0.0450824 0)
(-0.0540374 -0.0423753 0)
(-0.0418231 -0.0392531 0)
(-0.0301441 -0.0357746 0)
(-0.0190971 -0.0320066 0)
(-0.00876856 -0.0280218 0)
(0.00076725 -0.0238961 0)
(0.00944826 -0.0197067 0)
(0.0172252 -0.0155303 0)
(0.0240616 -0.0114409 0)
(0.0299338 -0.00750809 0)
(0.0348311 -0.00379607 0)
(0.038756 -0.00036165 0)
(0.0417246 0.00274684 0)
(0.0437668 0.00549101 0)
(0.044927 0.0078435 0)
(0.0452634 0.00978904 0)
(0.0448477 0.0113248 0)
(0.0437626 0.0124605 0)
(0.0421004 0.0132173 0)
(0.0399586 0.0136269 0)
(0.0374377 0.0137286 0)
(0.034635 0.0135679 0)
(0.0316446 0.0131926 0)
(0.0285497 0.0126512 0)
(0.0254262 0.0119896 0)
(0.0223339 0.0112491 0)
(0.0193267 0.0104635 0)
(0.0164389 0.0096585 0)
(0.0137069 0.00884697 0)
(0.0111441 0.00803225 0)
(0.00878201 0.00720036 0)
(0.00662033 0.00633262 0)
(0.00470602 0.00539267 0)
(0.0030302 0.00435914 0)
(0.00168427 0.00319932 0)
(0.000647898 0.00194224 0)
(9.84458e-05 0.000613816 0)
(9.73678e-05 -0.00108272 0)
(0.000650212 -0.00299626 0)
(0.00166778 -0.00455361 0)
(0.00292068 -0.005714 0)
(0.00436538 -0.00643632 0)
(0.00583725 -0.00673469 0)
(0.00727657 -0.00663559 0)
(0.00857433 -0.00619897 0)
(0.00968429 -0.00549129 0)
(0.0105456 -0.00459045 0)
(0.0111361 -0.0035694 0)
(0.0114316 -0.00249569 0)
(0.0114294 -0.00142257 0)
(0.0111256 -0.000388372 0)
(0.0105241 0.000586894 0)
(0.00962388 0.00150039 0)
(0.00842177 0.00236571 0)
(0.00690526 0.00320953 0)
(0.00505407 0.00406804 0)
(0.00283736 0.00498211 0)
(0.000215955 0.00599277 0)
(-0.00285712 0.00713698 0)
(-0.0064335 0.00844458 0)
(-0.0105673 0.00993656 0)
(-0.0153117 0.0116247 0)
(-0.020717 0.0135121 0)
(-0.026827 0.0155942 0)
(-0.0336774 0.0178597 0)
(-0.041292 0.020291 0)
(-0.0496808 0.022864 0)
(-0.0588369 0.025548 0)
(-0.0687343 0.0283051 0)
(-0.0793262 0.0310906 0)
(-0.0905449 0.0338537 0)
(-0.102302 0.0365387 0)
(-0.114493 0.0390873 0)
(-0.126997 0.041441 0)
(-0.139686 0.043544 0)
(-0.152426 0.0453452 0)
(-0.165086 0.0468011 0)
(-0.177543 0.0478772 0)
(-0.189681 0.0485485 0)
(-0.201402 0.0488004 0)
(-0.212619 0.0486278 0)
(-0.223265 0.0480339 0)
(-0.233283 0.0470293 0)
(-0.242635 0.0456302 0)
(-0.251291 0.0438567 0)
(-0.259233 0.0417318 0)
(-0.266448 0.03928 0)
(-0.272931 0.0365261 0)
(-0.27868 0.0334946 0)
(-0.283694 0.0302093 0)
(-0.287975 0.026693 0)
(-0.291525 0.022967 0)
(-0.294344 0.0190517 0)
(-0.296433 0.0149666 0)
(-0.29779 0.0107302 0)
(-0.298413 0.00636108 0)
(-0.298297 0.00187779 0)
(-0.297438 -0.00270042 0)
(-0.295828 -0.00735309 0)
(-0.29346 -0.012058 0)
(-0.290327 -0.0167908 0)
(-0.286419 -0.0215241 0)
(-0.281729 -0.0262272 0)
(-0.27625 -0.030866 0)
(-0.269979 -0.0354022 0)
(-0.262913 -0.0397934 0)
(-0.255055 -0.0439931 0)
(-0.246412 -0.0479514 0)
(-0.237 -0.051615 0)
(-0.22684 -0.0549286 0)
(-0.215964 -0.057836 0)
(-0.204415 -0.0602818 0)
(-0.192247 -0.0622132 0)
(-0.179527 -0.0635825 0)
(-0.166335 -0.0643491 0)
(-0.152761 -0.0644819 0)
(-0.13891 -0.0639617 0)
(-0.124895 -0.0627829 0)
(-0.110837 -0.0609546 0)
(-0.0968613 -0.0585016 0)
(-0.0830943 -0.0554638 0)
(-0.0696605 -0.0518956 0)
(-0.0566783 -0.0478638 0)
(-0.0442575 -0.0434454 0)
(-0.0324959 -0.0387247 0)
(-0.0214787 -0.0337907 0)
(-0.0112766 -0.0287338 0)
(-0.00194677 -0.0236436 0)
(0.00646753 -0.0186068 0)
(0.0139354 -0.0137054 0)
(0.0204379 -0.00901553 0)
(0.0259669 -0.00460606 0)
(0.0305256 -0.000537681 0)
(0.0341278 0.0031383 0)
(0.0367997 0.00638122 0)
(0.0385792 0.00916231 0)
(0.0395175 0.0114658 0)
(0.0396781 0.0132896 0)
(0.0391368 0.0146455 0)
(0.0379785 0.0155584 0)
(0.0362965 0.016065 0)
(0.0341863 0.0162112 0)
(0.0317454 0.0160496 0)
(0.0290652 0.0156361 0)
(0.0262341 0.0150265 0)
(0.0233261 0.0142734 0)
(0.0204116 0.0134221 0)
(0.0175406 0.0125092 0)
(0.0147658 0.0115566 0)
(0.0121135 0.010574 0)
(0.00962944 0.00955119 0)
(0.00732147 0.00846809 0)
(0.00524987 0.00728535 0)
(0.00341012 0.00596956 0)
(0.00191311 0.00447656 0)
(0.000742822 0.00280608 0)
(0.000114321 0.000958323 0)
(0.000104288 -0.00141179 0)
(0.000693547 -0.00382055 0)
(0.00176738 -0.00572858 0)
(0.00307011 -0.00710251 0)
(0.00454672 -0.00791571 0)
(0.00601562 -0.00819431 0)
(0.00741143 -0.00798258 0)
(0.0086187 -0.00735791 0)
(0.00959142 -0.00640616 0)
(0.0102686 -0.00522247 0)
(0.0106305 -0.00389531 0)
(0.0106538 -0.00250379 0)
(0.0103362 -0.00110902 0)
(0.00967153 0.000247341 0)
(0.00865967 0.00154587 0)
(0.00729236 0.00278816 0)
(0.00555708 0.00399503 0)
(0.00342995 0.00520242 0)
(0.000878213 0.00645639 0)
(-0.00214168 0.00780721 0)
(-0.00568069 0.00930362 0)
(-0.00979569 0.0109877 0)
(-0.0145453 0.0128916 0)
(-0.0199868 0.0150351 0)
(-0.0261724 0.017426 0)
(-0.0331463 0.0200603 0)
(-0.0409408 0.0229234 0)
(-0.0495737 0.0259911 0)
(-0.059045 0.0292297 0)
(-0.0693339 0.0325966 0)
(-0.0803968 0.0360398 0)
(-0.0921662 0.0394992 0)
(-0.104551 0.0429078 0)
(-0.117441 0.0461938 0)
(-0.130705 0.0492843 0)
(-0.144205 0.0521078 0)
(-0.157796 0.0545986 0)
(-0.171335 0.0566997 0)
(-0.184686 0.0583648 0)
(-0.197728 0.0595604 0)
(-0.210355 0.0602656 0)
(-0.22248 0.0604718 0)
(-0.234034 0.0601815 0)
(-0.244964 0.0594064 0)
(-0.255236 0.0581655 0)
(-0.264824 0.0564827 0)
(-0.273717 0.0543855 0)
(-0.281909 0.0519028 0)
(-0.289401 0.049064 0)
(-0.296196 0.0458981 0)
(-0.302299 0.0424326 0)
(-0.307716 0.0386934 0)
(-0.312455 0.0347047 0)
(-0.316519 0.0304885 0)
(-0.319913 0.0260655 0)
(-0.322639 0.0214544 0)
(-0.324697 0.0166732 0)
(-0.326086 0.0117387 0)
(-0.326803 0.00666766 0)
(-0.326842 0.00147692 0)
(-0.326198 -0.00381587 0)
(-0.32486 -0.00919173 0)
(-0.322817 -0.0146297 0)
(-0.320059 -0.0201062 0)
(-0.316571 -0.0255944 0)
(-0.312339 -0.0310637 0)
(-0.307349 -0.036479 0)
(-0.301585 -0.0418004 0)
(-0.295035 -0.0469829 0)
(-0.287688 -0.0519764 0)
(-0.279537 -0.0567254 0)
(-0.27058 -0.0611702 0)
(-0.260822 -0.0652471 0)
(-0.250275 -0.06889 0)
(-0.238966 -0.0720322 0)
(-0.226929 -0.0746081 0)
(-0.214215 -0.0765564 0)
(-0.200889 -0.0778224 0)
(-0.187033 -0.0783612 0)
(-0.172743 -0.0781407 0)
(-0.158131 -0.077144 0)
(-0.143319 -0.0753718 0)
(-0.128441 -0.0728438 0)
(-0.113638 -0.0695986 0)
(-0.0990481 -0.0656931 0)
(-0.0848101 -0.0612011 0)
(-0.0710531 -0.0562096 0)
(-0.0578947 -0.0508161 0)
(-0.0454374 -0.0451241 0)
(-0.0337668 -0.0392396 0)
(-0.0229512 -0.0332673 0)
(-0.0130417 -0.0273081 0)
(-0.0040745 -0.0214569 0)
(0.00392807 -0.0158011 0)
(0.0109548 -0.0104201 0)
(0.0170042 -0.00538424 0)
(0.0220839 -0.000754886 0)
(0.02621 0.00341682 0)
(0.0294079 0.00709076 0)
(0.031713 0.0102391 0)
(0.0331717 0.0128477 0)
(0.0338422 0.0149164 0)
(0.0337934 0.0164603 0)
(0.0331051 0.0175082 0)
(0.0318634 0.0181016 0)
(0.0301614 0.0182922 0)
(0.0280907 0.0181388 0)
(0.0257447 0.0177031 0)
(0.0232061 0.0170461 0)
(0.0205573 0.0162231 0)
(0.0178613 0.0152807 0)
(0.0151856 0.0142509 0)
(0.0125698 0.0131503 0)
(0.0100738 0.0119744 0)
(0.0077162 0.0107025 0)
(0.00557094 0.00929335 0)
(0.00364114 0.00770027 0)
(0.00205463 0.00586609 0)
(0.000801955 0.00375609 0)
(0.000124132 0.00134073 0)
(0.000109935 -0.00176255 0)
(0.000726084 -0.0046891 0)
(0.00183558 -0.00695008 0)
(0.00315821 -0.00852159 0)
(0.00462676 -0.00939475 0)
(0.00604444 -0.00961201 0)
(0.00734047 -0.00923992 0)
(0.00839471 -0.008377 0)
(0.00916223 -0.00713131 0)
(0.00958335 -0.00561661 0)
(0.00964133 -0.00393709 0)
(0.00931426 -0.00218233 0)
(0.00859995 -0.000419429 0)
(0.00748938 0.00130914 0)
(0.00597676 0.00298733 0)
(0.00404515 0.0046238 0)
(0.00167096 0.00624885 0)
(-0.00118251 0.00790904 0)
(-0.00456127 0.0096607 0)
(-0.00852136 0.0115627 0)
(-0.013124 0.0136693 0)
(-0.0184326 0.0160247 0)
(-0.024508 0.0186589 0)
(-0.0314043 0.021586 0)
(-0.0391641 0.0248041 0)
(-0.0478157 0.028296 0)
(-0.0573687 0.0320309 0)
(-0.0678111 0.0359646 0)
(-0.0791063 0.0400409 0)
(-0.0911917 0.0441926 0)
(-0.103978 0.0483426 0)
(-0.117353 0.0524066 0)
(-0.131181 0.0562968 0)
(-0.145314 0.0599253 0)
(-0.159597 0.0632097 0)
(-0.173875 0.0660765 0)
(-0.188 0.0684647 0)
(-0.201838 0.0703283 0)
(-0.215277 0.0716373 0)
(-0.228222 0.0723766 0)
(-0.2406 0.0725454 0)
(-0.252359 0.0721545 0)
(-0.263462 0.071224 0)
(-0.27389 0.0697806 0)
(-0.283631 0.0678554 0)
(-0.292685 0.0654817 0)
(-0.301055 0.0626935 0)
(-0.30875 0.0595241 0)
(-0.31578 0.0560056 0)
(-0.322154 0.0521679 0)
(-0.327884 0.0480389 0)
(-0.332979 0.0436438 0)
(-0.337449 0.0390057 0)
(-0.3413 0.0341454 0)
(-0.34454 0.0290818 0)
(-0.347172 0.023832 0)
(-0.3492 0.0184121 0)
(-0.350623 0.0128369 0)
(-0.351442 0.0071213 0)
(-0.351651 0.00127993 0)
(-0.351246 -0.00467169 0)
(-0.350218 -0.0107167 0)
(-0.348555 -0.0168363 0)
(-0.346243 -0.0230089 0)
(-0.343267 -0.0292094 0)
(-0.339606 -0.0354087 0)
(-0.33524 -0.0415724 0)
(-0.330145 -0.0476611 0)
(-0.324298 -0.0536289 0)
(-0.317675 -0.0594238 0)
(-0.310253 -0.064987 0)
(-0.302011 -0.0702536 0)
(-0.292936 -0.0751532 0)
(-0.283017 -0.0796105 0)
(-0.272257 -0.0835476 0)
(-0.260669 -0.0868858 0)
(-0.248278 -0.0895482 0)
(-0.235129 -0.0914637 0)
(-0.221283 -0.0925698 0)
(-0.206824 -0.0928168 0)
(-0.191852 -0.0921714 0)
(-0.176487 -0.0906201 0)
(-0.160868 -0.0881713 0)
(-0.145145 -0.084857 0)
(-0.129474 -0.0807326 0)
(-0.114017 -0.0758756 0)
(-0.098931 -0.0703821 0)
(-0.0843611 -0.0643633 0)
(-0.0704384 -0.05794 0)
(-0.0572744 -0.0512373 0)
(-0.0449583 -0.0443798 0)
(-0.0335572 -0.0374873 0)
(-0.023117 -0.0306714 0)
(-0.0136651 -0.0240336 0)
(-0.00521361 -0.0176648 0)
(0.00223718 -0.0116448 0)
(0.00869591 -0.00604273 0)
(0.0141785 -0.000917241 0)
(0.0187069 0.00368367 0)
(0.02231 0.00772338 0)
(0.025024 0.0111777 0)
(0.0268942 0.014036 0)
(0.0279752 0.0163025 0)
(0.0283325 0.0179962 0)
(0.0280398 0.019151 0)
(0.0271802 0.0198134 0)
(0.0258397 0.0200403 0)
(0.0241101 0.019895 0)
(0.0220767 0.0194431 0)
(0.0198284 0.0187473 0)
(0.0174372 0.0178619 0)
(0.0149824 0.0168282 0)
(0.0125154 0.0156695 0)
(0.0101095 0.0143878 0)
(0.0077949 0.0129621 0)
(0.00565879 0.01135 0)
(0.00371425 0.00949154 0)
(0.00210242 0.0073163 0)
(0.000821773 0.00475402 0)
(0.000126966 0.00174439 0)
(0.000115171 -0.00212758 0)
(0.000750222 -0.00558187 0)
(0.00187525 -0.00818576 0)
(0.00318709 -0.00992687 0)
(0.00460568 -0.0108182 0)
(0.00592144 -0.0109233 0)
(0.00705913 -0.0103357 0)
(0.00789622 -0.00917904 0)
(0.00839007 -0.00758602 0)
(0.00848373 -0.00568995 0)
(0.00816388 -0.0036103 0)
(0.00741009 -0.00144535 0)
(0.00621942 0.000734406 0)
(0.00457876 0.00288886 0)
(0.00247503 0.00500847 0)
(-0.000119086 0.00711174 0)
(-0.00323965 0.00924034 0)
(-0.00693682 0.0114522 0)
(-0.0112693 0.0138131 0)
(-0.0163036 0.0163881 0)
(-0.0221073 0.0192334 0)
(-0.0287448 0.02239 0)
(-0.0362716 0.0258801 0)
(-0.0447292 0.0297054 0)
(-0.0541405 0.0338472 0)
(-0.0645061 0.0382681 0)
(-0.075801 0.0429133 0)
(-0.087972 0.0477127 0)
(-0.100937 0.0525824 0)
(-0.114586 0.0574277 0)
(-0.128783 0.0621469 0)
(-0.143376 0.0666358 0)
(-0.158199 0.0707934 0)
(-0.173084 0.0745272 0)
(-0.187871 0.077758 0)
(-0.202413 0.0804235 0)
(-0.216582 0.0824798 0)
(-0.230274 0.0839019 0)
(-0.243407 0.0846818 0)
(-0.255922 0.0848268 0)
(-0.267781 0.0843559 0)
(-0.278961 0.0832969 0)
(-0.289451 0.0816834 0)
(-0.299252 0.0795525 0)
(-0.308369 0.0769426 0)
(-0.316812 0.0738919 0)
(-0.324594 0.0704374 0)
(-0.33173 0.0666139 0)
(-0.338234 0.0624541 0)
(-0.34412 0.0579878 0)
(-0.349404 0.0532422 0)
(-0.354099 0.0482419 0)
(-0.358218 0.0430088 0)
(-0.361774 0.0375626 0)
(-0.364776 0.0319205 0)
(-0.367234 0.0260983 0)
(-0.369156 0.0201099 0)
(-0.370547 0.0139684 0)