/*--------------------------------*- C++ -*----------------------------------*\
| =========                 |                                                 |
| \\      /  F ield         | OpenFOAM: The Open Source CFD Toolbox           |
|  \\    /   O peration     | Version:  2406                                  |
|   \\  /    A nd           | Website:  www.openfoam.com                      |
|    \\/     M anipulation  |                                                 |
\*---------------------------------------------------------------------------*/
FoamFile
{
    version     2.0;
    format      ascii;
    arch        "LSB;label=32;scalar=64";
    class       volVectorField;
    location    "41.6";
    object      U;
}
// * * * * * * * * * * * * * * * * * * * * * * * * * * * * * * * * * * * * * //

dimensions      [0 1 -1 0 0 0 0];

internalField   nonuniform List<vector> 
3600
(
(-2.25428e-05 8.92147e-06 0)
(0.000406109 -0.000204671 0)
(0.0012837 -0.000324843 0)
(0.00229377 -0.000347877 0)
(0.00325185 -0.00028224 0)
(0.00393412 -0.000190288 0)
(0.00437394 -0.000106246 0)
(0.00456068 -5.75954e-05 0)
(0.0046333 -4.4091e-05 0)
(0.00461766 -5.36595e-05 0)
(0.00457779 -6.59842e-05 0)
(0.00445495 -6.34082e-05 0)
(0.00420734 -3.61892e-05 0)
(0.0037268 1.85689e-05 0)
(0.00293895 9.94232e-05 0)
(0.00174013 0.00020691 0)
(5.21394e-05 0.00034324 0)
(-0.0022204 0.000509802 0)
(-0.00515125 0.000698274 0)
(-0.00881405 0.000894597 0)
(-0.0132494 0.00109097 0)
(-0.0184626 0.0012963 0)
(-0.0243894 0.00152532 0)
(-0.0308908 0.00177816 0)
(-0.0377385 0.00202441 0)
(-0.0446226 0.00220896 0)
(-0.0511654 0.00226954 0)
(-0.0569527 0.00215683 0)
(-0.061568 0.00184409 0)
(-0.064626 0.00133027 0)
(-0.0658029 0.000636253 0)
(-0.0648572 -0.000198102 0)
(-0.0616531 -0.00111861 0)
(-0.0561725 -0.0020587 0)
(-0.0485358 -0.00294364 0)
(-0.0390044 -0.00369362 0)
(-0.0279942 -0.00423099 0)
(-0.0160536 -0.00448794 0)
(-0.00385552 -0.00441798 0)
(0.0078701 -0.00400676 0)
(0.0183762 -0.00328182 0)
(0.0270117 -0.00231683 0)
(0.0332704 -0.00122598 0)
(0.0369071 -0.000149389 0)
(0.0379306 0.00077551 0)
(0.0366549 0.00144251 0)
(0.0335801 0.00180682 0)
(0.029362 0.00188948 0)
(0.0246142 0.00176609 0)
(0.0198947 0.00152716 0)
(0.0155429 0.0012521 0)
(0.0117921 0.000987365 0)
(0.00866324 0.000759208 0)
(0.00617022 0.000571587 0)
(0.00418192 0.000430365 0)
(0.00265601 0.000321086 0)
(0.00145211 0.0002406 0)
(0.000584641 0.000141721 0)
(4.45407e-05 2.81842e-05 0)
(-0.000100899 -0.000108986 0)
(0.000163376 -0.000384431 0)
(0.0013059 -0.0013458 0)
(0.00319639 -0.00184314 0)
(0.00522084 -0.00188573 0)
(0.00707695 -0.00153509 0)
(0.00836613 -0.00102224 0)
(0.00909887 -0.000512722 0)
(0.0092286 -0.000121165 0)
(0.00893272 0.000137747 0)
(0.00822399 0.000322941 0)
(0.00714742 0.000525355 0)
(0.00555432 0.000837204 0)
(0.00329434 0.00131096 0)
(0.000113358 0.00197168 0)
(-0.00420237 0.002816 0)
(-0.00989474 0.00383829 0)
(-0.017146 0.00501956 0)
(-0.0261153 0.00633663 0)
(-0.0368533 0.00775253 0)
(-0.0492797 0.00921811 0)
(-0.063111 0.0106435 0)
(-0.0778815 0.0118943 0)
(-0.0929702 0.0128052 0)
(-0.107685 0.013223 0)
(-0.121332 0.0130309 0)
(-0.133288 0.0121665 0)
(-0.143036 0.0106186 0)
(-0.150174 0.00842468 0)
(-0.154412 0.00565783 0)
(-0.155559 0.0024218 0)
(-0.15351 -0.00115905 0)
(-0.14824 -0.00493909 0)
(-0.139807 -0.00875617 0)
(-0.12835 -0.0124276 0)
(-0.11411 -0.015756 0)
(-0.0974317 -0.0185301 0)
(-0.078788 -0.0205409 0)
(-0.0587684 -0.0215961 0)
(-0.0380946 -0.0215507 0)
(-0.0175686 -0.0203322 0)
(0.00193474 -0.017974 0)
(0.0195722 -0.014629 0)
(0.0345544 -0.0105731 0)
(0.0462831 -0.00617952 0)
(0.054345 -0.00186956 0)
(0.0586424 0.00194773 0)
(0.05932 0.00495088 0)
(0.056864 0.00695414 0)
(0.0519335 0.00794488 0)
(0.0454057 0.00805906 0)
(0.038091 0.00753902 0)
(0.0307814 0.00664467 0)
(0.0239544 0.00561019 0)
(0.0179841 0.00458767 0)
(0.0129014 0.00368426 0)
(0.00876806 0.00290828 0)
(0.00540589 0.00226201 0)
(0.00285483 0.00159857 0)
(0.00102238 0.000902231 0)
(8.66971e-05 7.68024e-05 0)
(0.000288786 -0.00122969 0)
(0.00189053 -0.00327348 0)
(0.0043874 -0.00425449 0)
(0.00687793 -0.0042047 0)
(0.00900337 -0.00333819 0)
(0.0102714 -0.00208788 0)
(0.0106917 -0.000814123 0)
(0.0101828 0.000270852 0)
(0.00889272 0.00113546 0)
(0.00675917 0.00192184 0)
(0.00372494 0.0028288 0)
(-0.000488581 0.00406229 0)
(-0.00616435 0.0057358 0)
(-0.0136743 0.00790035 0)
(-0.023318 0.0105318 0)
(-0.035363 0.013581 0)
(-0.049905 0.0169474 0)
(-0.0668291 0.0204783 0)
(-0.0857023 0.0239167 0)
(-0.105828 0.0269299 0)
(-0.126328 0.0291668 0)
(-0.146304 0.0303562 0)
(-0.164953 0.0303386 0)
(-0.181641 0.0290757 0)
(-0.195909 0.0266125 0)
(-0.207458 0.0230526 0)
(-0.216108 0.0185252 0)
(-0.22176 0.0131775 0)
(-0.224366 0.00716105 0)
(-0.223907 0.000637899 0)
(-0.22038 -0.0062226 0)
(-0.213794 -0.0132304 0)
(-0.204186 -0.0201741 0)
(-0.191619 -0.0268066 0)
(-0.17622 -0.0328495 0)
(-0.158187 -0.037989 0)
(-0.137835 -0.0418981 0)
(-0.115591 -0.0442549 0)
(-0.0920382 -0.0447921 0)
(-0.0678753 -0.0433361 0)
(-0.0439279 -0.0398669 0)
(-0.0210541 -0.0345437 0)
(-0.000123666 -0.0277252 0)
(0.0181181 -0.0199343 0)
(0.0330449 -0.0118023 0)
(0.0442786 -0.00398604 0)
(0.0516094 0.00291946 0)
(0.0551251 0.00844626 0)
(0.0550875 0.012317 0)
(0.0520844 0.0144694 0)
(0.0468134 0.0150677 0)
(0.0401883 0.0144453 0)
(0.0329675 0.0130323 0)
(0.0259046 0.0112315 0)
(0.019359 0.00937816 0)
(0.0136786 0.00763421 0)
(0.00881696 0.00606632 0)
(0.00495577 0.00448963 0)
(0.00197899 0.00280485 0)
(0.000289354 0.000793548 0)
(0.000374274 -0.00229388 0)
(0.00225383 -0.005525 0)
(0.00500373 -0.00688016 0)
(0.00747338 -0.00648972 0)
(0.00928379 -0.00483898 0)
(0.00991409 -0.00257575 0)
(0.0093984 -0.000258693 0)
(0.00761625 0.0018493 0)
(0.00463196 0.00373996 0)
(0.000239369 0.00568113 0)
(-0.00578979 0.0079934 0)
(-0.0138898 0.0109852 0)
(-0.0244493 0.0147906 0)
(-0.0378519 0.0194265 0)
(-0.0542748 0.0247616 0)
(-0.0736527 0.0305635 0)
(-0.0955183 0.0364259 0)
(-0.119057 0.0418222 0)
(-0.143215 0.0461885 0)
(-0.16695 0.0490932 0)
(-0.189379 0.0502891 0)
(-0.209876 0.0497257 0)
(-0.228042 0.047477 0)
(-0.243665 0.0436997 0)
(-0.25665 0.0385736 0)
(-0.266968 0.0322874 0)
(-0.274626 0.0250129 0)
(-0.279631 0.0169147 0)
(-0.281989 0.00814179 0)
(-0.281681 -0.00115265 0)
(-0.278677 -0.0108105 0)
(-0.272924 -0.0206446 0)
(-0.264367 -0.0304346 0)
(-0.252951 -0.0399036 0)
(-0.238655 -0.0487195 0)
(-0.221504 -0.0564839 0)
(-0.201622 -0.0627563 0)
(-0.179245 -0.0670736 0)
(-0.154783 -0.0690139 0)
(-0.128811 -0.0682527 0)
(-0.1021 -0.0646537 0)
(-0.0755377 -0.0583189 0)
(-0.0501022 -0.0496341 0)
(-0.0266977 -0.0392296 0)
(-0.00611489 -0.0279099 0)
(0.0111188 -0.0165285 0)
(0.0246591 -0.00588006 0)
(0.0344261 0.0033755 0)
(0.0404362 0.0107566 0)
(0.042957 0.0159829 0)
(0.0423455 0.0190094 0)
(0.0392672 0.0200324 0)
(0.0343888 0.0194601 0)
(0.0285715 0.0178092 0)
(0.0223908 0.0156015 0)
(0.0164905 0.0132109 0)
(0.0110441 0.0108367 0)
(0.00646601 0.00835636 0)
(0.00271475 0.00555091 0)
(0.000451903 0.00201612 0)
(0.000430427 -0.00357432 0)
(0.00242767 -0.00802939 0)
(0.00512153 -0.00955681 0)
(0.00715465 -0.00848414 0)
(0.00814241 -0.0056954 0)
(0.00758005 -0.00207232 0)
(0.00552691 0.00163744 0)
(0.00181194 0.00519157 0)
(-0.00363429 0.00866599 0)
(-0.0112001 0.0125007 0)
(-0.0212943 0.017126 0)
(-0.0344355 0.022891 0)
(-0.0509517 0.0298356 0)
(-0.070942 0.0377755 0)
(-0.0940557 0.0462292 0)
(-0.119507 0.0545221 0)
(-0.146151 0.0618519 0)
(-0.172781 0.0675396 0)
(-0.198361 0.0711337 0)
(-0.222164 0.0724714 0)
(-0.243749 0.0715848 0)
(-0.262904 0.0686489 0)
(-0.279557 0.0638873 0)
(-0.293719 0.0575493 0)
(-0.305441 0.0498611 0)
(-0.31479 0.0410322 0)
(-0.32183 0.0312344 0)
(-0.32661 0.0206226 0)
(-0.329163 0.00932694 0)
(-0.329488 -0.00251991 0)
(-0.327557 -0.0147836 0)
(-0.323299 -0.0272964 0)
(-0.316613 -0.0398527 0)
(-0.307355 -0.0521754 0)
(-0.295372 -0.0639132 0)
(-0.280504 -0.0746157 0)
(-0.262639 -0.0837524 0)
(-0.241744 -0.0907216 0)
(-0.217949 -0.0949191 0)
(-0.191581 -0.0958052 0)
(-0.163249 -0.0930291 0)
(-0.133815 -0.086523 0)
(-0.104387 -0.0766032 0)
(-0.0761535 -0.063964 0)
(-0.0502593 -0.0496116 0)
(-0.0275594 -0.0346766 0)
(-0.00859389 -0.0202323 0)
(0.00649464 -0.00714634 0)
(0.0177256 0.00395225 0)
(0.0253169 0.0126581 0)
(0.0294705 0.0187694 0)
(0.0306211 0.0223191 0)
(0.0292085 0.0235764 0)
(0.0259705 0.0230276 0)
(0.0214819 0.0212502 0)
(0.0165233 0.0187797 0)
(0.0114418 0.0159385 0)
(0.0068769 0.0127198 0)
(0.00293659 0.008779 0)
(0.000497957 0.00352398 0)
(0.000473044 -0.00489721 0)
(0.00242078 -0.0103897 0)
(0.00469856 -0.0117115 0)
(0.00583099 -0.00950769 0)
(0.00546275 -0.0051803 0)
(0.00315537 0.000162209 0)
(-0.00103436 0.00564054 0)
(-0.00736084 0.0111352 0)
(-0.0160812 0.0168711 0)
(-0.0277548 0.0234587 0)
(-0.0428733 0.0313356 0)
(-0.0618032 0.0407064 0)
(-0.0844619 0.0512661 0)
(-0.110274 0.0623581 0)
(-0.138146 0.0729979 0)
(-0.166745 0.0822086 0)
(-0.194796 0.0891987 0)
(-0.221334 0.0935557 0)
(-0.245743 0.0951647 0)
(-0.267706 0.0941597 0)
(-0.287105 0.0907809 0)
(-0.303948 0.0853377 0)
(-0.318317 0.0781273 0)
(-0.330335 0.0694383 0)
(-0.340147 0.0595094 0)
(-0.347899 0.0485514 0)
(-0.353738 0.0367235 0)
(-0.357787 0.0241615 0)
(-0.360149 0.0109647 0)
(-0.36088 -0.00277214 0)
(-0.359999 -0.0169628 0)
(-0.357456 -0.0314923 0)
(-0.353146 -0.0462131 0)
(-0.346879 -0.0609018 0)
(-0.338405 -0.0752502 0)
(-0.327397 -0.0888248 0)
(-0.313503 -0.10107 0)
(-0.296365 -0.111295 0)
(-0.275722 -0.118729 0)
(-0.251478 -0.12258 0)
(-0.223841 -0.122175 0)
(-0.193391 -0.117099 0)
(-0.161162 -0.107377 0)
(-0.128545 -0.0935606 0)
(-0.097158 -0.0767461 0)
(-0.0684955 -0.0583844 0)
(-0.0436886 -0.0400028 0)
(-0.0232362 -0.0228778 0)
(-0.00716431 -0.00789081 0)
(0.00486957 0.00446193 0)
(0.0131896 0.0139306 0)
(0.0182227 0.0204751 0)
(0.0202935 0.024233 0)
(0.0199845 0.0255863 0)
(0.0177675 0.0250481 0)
(0.0144129 0.0232089 0)
(0.010355 0.0204432 0)
(0.00637545 0.016844 0)
(0.00274766 0.0119506 0)
(0.000460818 0.00502295 0)
(0.000490909 -0.00626538 0)
(0.00217494 -0.0124562 0)
(0.00363887 -0.0130751 0)
(0.00341478 -0.00923556 0)
(0.0012047 -0.00294041 0)
(-0.00333494 0.00452356 0)
(-0.010207 0.0122367 0)
(-0.0197769 0.0202992 0)
(-0.0324876 0.0290983 0)
(-0.0489336 0.0393084 0)
(-0.0694314 0.0511434 0)
(-0.0938383 0.0643675 0)
(-0.121369 0.0780821 0)
(-0.150738 0.0911282 0)
(-0.180466 0.102297 0)
(-0.209243 0.110752 0)
(-0.236134 0.116045 0)
(-0.260578 0.118134 0)
(-0.282309 0.117191 0)
(-0.301252 0.113545 0)
(-0.317471 0.107553 0)
(-0.331101 0.0995982 0)
(-0.342347 0.0900222 0)
(-0.351435 0.0791426 0)
(-0.358618 0.0672095 0)
(-0.364133 0.0544347 0)
(-0.368212 0.0409623 0)
(-0.371048 0.0269043 0)
(-0.372807 0.0123228 0)
(-0.373598 -0.00273177 0)
(-0.37349 -0.0182303 0)
(-0.372479 -0.0341231 0)
(-0.370497 -0.0503415 0)
(-0.367375 -0.0667488 0)
(-0.362852 -0.0831312 0)
(-0.356539 -0.0991428 0)
(-0.347939 -0.114293 0)
(-0.336445 -0.127904 0)
(-0.32142 -0.139133 0)
(-0.302265 -0.146995 0)
(-0.278594 -0.150484 0)
(-0.250379 -0.148719 0)
(-0.218161 -0.141189 0)
(-0.183113 -0.127963 0)
(-0.147054 -0.109873 0)
(-0.112141 -0.0884752 0)
(-0.0804821 -0.0658042 0)
(-0.0535432 -0.0438646 0)
(-0.0319278 -0.0241853 0)
(-0.0153671 -0.00759356 0)
(-0.00327203 0.00560514 0)
(0.00506093 0.0154309 0)
(0.0101072 0.0220227 0)
(0.0124383 0.0257186 0)
(0.0124656 0.0269416 0)
(0.0108919 0.0262599 0)
(0.0081764 0.0240242 0)
(0.00514677 0.0203721 0)
(0.00221069 0.0147499 0)
(0.000350177 0.00633502 0)
(0.000460945 -0.00745517 0)
(0.00158988 -0.0137516 0)
(0.0017796 -0.0130482 0)
(-0.000263873 -0.00704541 0)
(-0.00477251 0.0016397 0)
(-0.0119848 0.0116408 0)
(-0.022031 0.0221097 0)
(-0.0353703 0.0334107 0)
(-0.0525292 0.0459913 0)
(-0.0738666 0.0603371 0)
(-0.0992016 0.0761226 0)
(-0.127651 0.0924599 0)
(-0.157802 0.107913 0)
(-0.188054 0.121161 0)
(-0.217048 0.131195 0)
(-0.243815 0.137581 0)
(-0.267804 0.140251 0)
(-0.288744 0.139462 0)
(-0.306597 0.13558 0)
(-0.321459 0.129076 0)
(-0.333554 0.120401 0)
(-0.343166 0.110014 0)
(-0.350636 0.0982921 0)
(-0.3563 0.0855731 0)
(-0.3605 0.0720982 0)
(-0.363528 0.0580579 0)
(-0.365656 0.0435606 0)
(-0.367095 0.0286793 0)
(-0.368029 0.0134301 0)
(-0.368585 -0.00218374 0)
(-0.368864 -0.0181884 0)
(-0.368902 -0.0345973 0)
(-0.368697 -0.0514208 0)
(-0.368155 -0.0686198 0)
(-0.367099 -0.0861016 0)
(-0.365207 -0.103661 0)
(-0.362012 -0.120959 0)
(-0.35685 -0.137454 0)
(-0.348892 -0.152383 0)
(-0.337165 -0.164734 0)
(-0.3207 -0.173297 0)
(-0.298697 -0.176775 0)
(-0.270815 -0.174011 0)
(-0.237422 -0.16428 0)
(-0.199845 -0.147642 0)
(-0.160331 -0.125174 0)
(-0.121781 -0.0989925 0)
(-0.0870295 -0.0718328 0)
(-0.0580983 -0.0463352 0)
(-0.0356066 -0.0242835 0)
(-0.0190579 -0.00642916 0)
(-0.0073775 0.00726065 0)
(0.00035058 0.0170709 0)
(0.00494788 0.0234465 0)
(0.00693831 0.0267994 0)
(0.00701197 0.0276672 0)
(0.00565361 0.0263395 0)
(0.00367414 0.0229427 0)
(0.00157098 0.0168671 0)
(0.000226544 0.00728785 0)
(0.000358511 -0.00834914 0)
(0.000591582 -0.0139837 0)
(-0.000945944 -0.0113024 0)
(-0.00519812 -0.00265263 0)
(-0.0123589 0.00881663 0)
(-0.0225671 0.0217886 0)
(-0.036121 0.035568 0)
(-0.0534663 0.0507096 0)
(-0.0749992 0.0674787 0)
(-0.10054 0.0858508 0)
(-0.129246 0.104767 0)
(-0.1596 0.122777 0)
(-0.189949 0.138262 0)
(-0.218806 0.150137 0)
(-0.245171 0.157811 0)
(-0.268417 0.161261 0)
(-0.288291 0.160728 0)
(-0.304747 0.156697 0)
(-0.317968 0.1497 0)
(-0.328238 0.140337 0)
(-0.33597 0.129141 0)
(-0.341581 0.116613 0)
(-0.345518 0.103135 0)
(-0.348164 0.0890228 0)
(-0.349876 0.0744758 0)
(-0.350925 0.0596386 0)
(-0.351555 0.0445699 0)
(-0.351933 0.0293004 0)
(-0.352211 0.0138064 0)
(-0.35249 -0.0019407 0)
(-0.352868 -0.0180003 0)
(-0.353401 -0.0344203 0)
(-0.354138 -0.0512589 0)
(-0.355073 -0.0685435 0)
(-0.356157 -0.08628 0)
(-0.357227 -0.1044 0)
(-0.357998 -0.122747 0)
(-0.357966 -0.140996 0)
(-0.356401 -0.158614 0)
(-0.352278 -0.174771 0)
(-0.344345 -0.188322 0)
(-0.33121 -0.197807 0)
(-0.311618 -0.2016 0)
(-0.284772 -0.198155 0)
(-0.250794 -0.186433 0)
(-0.211045 -0.166369 0)
(-0.168271 -0.139294 0)
(-0.126185 -0.107965 0)
(-0.0885763 -0.0760444 0)
(-0.0580296 -0.0469312 0)
(-0.0352337 -0.0227295 0)
(-0.0192122 -0.00393454 0)
(-0.00850723 0.0098365 0)
(-0.00175522 0.0193134 0)
(0.0019448 0.0250805 0)
(0.00342984 0.0277385 0)
(0.00327645 0.0275528 0)
(0.00227377 0.0246233 0)
(0.000971025 0.018337 0)
(0.000116403 0.00792351 0)
(0.000152094 -0.00861794 0)
(-0.000891638 -0.012621 0)
(-0.00457762 -0.00731175 0)
(-0.0113454 0.00439919 0)
(-0.0214094 0.0190056 0)
(-0.034802 0.0353541 0)
(-0.0519657 0.0528971 0)
(-0.0731377 0.0721673 0)
(-0.0983518 0.0929434 0)
(-0.126729 0.114482 0)
(-0.156879 0.135074 0)
(-0.186983 0.153044 0)
(-0.215531 0.166976 0)
(-0.24134 0.176227 0)
(-0.263783 0.180638 0)
(-0.282516 0.180539 0)
(-0.297569 0.176438 0)
(-0.309136 0.169034 0)
(-0.317648 0.159016 0)
(-0.323576 0.147082 0)
(-0.327477 0.133802 0)
(-0.329835 0.119667 0)
(-0.331119 0.10501 0)
(-0.331673 0.0900811 0)
(-0.331801 0.0750084 0)
(-0.331694 0.0598721 0)
(-0.331521 0.0446747 0)
(-0.331373 0.0294065 0)
(-0.331347 0.0140138 0)
(-0.331493 -0.00154988 0)
(-0.331888 -0.017357 0)
(-0.332577 -0.0334652 0)
(-0.333635 -0.0499482 0)
(-0.335107 -0.066861 0)
(-0.337044 -0.0842618 0)
(-0.339432 -0.102173 0)
(-0.342198 -0.120581 0)
(-0.345106 -0.139375 0)
(-0.347725 -0.158298 0)
(-0.349299 -0.176849 0)
(-0.348726 -0.194193 0)
(-0.344502 -0.209066 0)
(-0.334865 -0.219772 0)
(-0.318035 -0.224284 0)
(-0.292698 -0.220572 0)
(-0.258574 -0.207124 0)
(-0.217017 -0.183658 0)
(-0.171234 -0.15173 0)
(-0.125912 -0.114926 0)
(-0.085884 -0.0780563 0)
(-0.0543913 -0.0454976 0)
(-0.0319328 -0.0195227 0)
(-0.0170215 -0.000305234 0)
(-0.00761993 0.0131483 0)
(-0.00215722 0.0218126 0)
(0.000599566 0.0265464 0)
(0.00145714 0.0277183 0)
(0.00124727 0.0254497 0)
(0.000565091 0.0191902 0)
(5.46728e-05 0.00826821 0)
(-0.000169539 -0.00804581 0)
(-0.00283271 -0.00937749 0)
(-0.00897003 -0.000885947 0)
(-0.0184115 0.0141866 0)
(-0.0314621 0.0322092 0)
(-0.0480093 0.0522366 0)
(-0.0685469 0.0737528 0)
(-0.0928856 0.0969773 0)
(-0.120571 0.120984 0)
(-0.150085 0.144333 0)
(-0.179789 0.164971 0)
(-0.207887 0.181365 0)
(-0.233216 0.192525 0)
(-0.254918 0.198284 0)
(-0.272721 0.19888 0)
(-0.286563 0.194965 0)
(-0.296788 0.187304 0)
(-0.303835 0.176787 0)
(-0.308351 0.164204 0)
(-0.310915 0.150284 0)
(-0.312139 0.135558 0)
(-0.312468 0.120439 0)
(-0.312307 0.105165 0)
(-0.311894 0.0898937 0)
(-0.311434 0.0746687 0)
(-0.311012 0.0595086 0)
(-0.310715 0.0443701 0)
(-0.310559 0.0292181 0)
(-0.310587 0.0139852 0)
(-0.310804 -0.00137572 0)
(-0.311258 -0.0169318 0)
(-0.311975 -0.0327299 0)
(-0.313028 -0.0488341 0)
(-0.314476 -0.0652936 0)
(-0.316415 -0.0821741 0)
(-0.318916 -0.0995286 0)
(-0.322048 -0.117415 0)
(-0.325798 -0.135856 0)
(-0.330048 -0.154815 0)
(-0.33444 -0.174115 0)
(-0.338306 -0.193337 0)
(-0.340509 -0.211676 0)
(-0.339413 -0.227803 0)
(-0.332913 -0.23978 0)
(-0.318739 -0.245151 0)
(-0.294978 -0.241287 0)
(-0.260892 -0.226082 0)
(-0.217723 -0.198917 0)
(-0.169207 -0.161652 0)
(-0.1211 -0.118919 0)
(-0.0794429 -0.0770655 0)
(-0.047948 -0.0414667 0)
(-0.026693 -0.0144503 0)
(-0.0133933 0.00457276 0)
(-0.00562877 0.0170369 0)
(-0.00148752 0.0243214 0)
(0.000274522 0.0271206 0)
(0.000672067 0.0257122 0)
(0.000384716 0.0196914 0)
(4.29028e-05 0.00849767 0)
(-0.00061494 -0.00628446 0)
(-0.00518198 -0.00385865 0)
(-0.0139465 0.00825409 0)
(-0.0260805 0.0268811 0)
(-0.0420303 0.0485004 0)
(-0.0614597 0.0723178 0)
(-0.0847904 0.0976501 0)
(-0.111263 0.124147 0)
(-0.139975 0.150148 0)
(-0.168985 0.173744 0)
(-0.196717 0.1929 0)
(-0.22159 0.206474 0)
(-0.242848 0.21398 0)
(-0.259949 0.215705 0)
(-0.272988 0.212265 0)
(-0.282198 0.204625 0)
(-0.288226 0.193769 0)
(-0.291689 0.180706 0)
(-0.293353 0.166243 0)
(-0.29379 0.151047 0)
(-0.293562 0.135542 0)
(-0.292995 0.120023 0)
(-0.29238 0.104607 0)
(-0.291825 0.0893592 0)
(-0.29144 0.0742503 0)
(-0.291214 0.059252 0)
(-0.291178 0.0442927 0)
(-0.291291 0.0293258 0)
(-0.291568 0.0142828 0)
(-0.29198 -0.000875808 0)
(-0.29256 -0.0162051 0)
(-0.293312 -0.0317357 0)
(-0.294301 -0.0475142 0)
(-0.29557 -0.0635719 0)
(-0.297223 -0.0799601 0)
(-0.299348 -0.0967269 0)
(-0.302074 -0.113944 0)
(-0.305498 -0.131685 0)
(-0.309701 -0.150027 0)
(-0.314636 -0.169001 0)
(-0.320076 -0.188529 0)
(-0.325429 -0.208286 0)
(-0.329614 -0.227524 0)
(-0.330901 -0.244862 0)
(-0.326932 -0.258123 0)
(-0.31496 -0.264364 0)
(-0.292492 -0.260261 0)
(-0.25827 -0.242976 0)
(-0.213454 -0.211525 0)
(-0.162384 -0.168193 0)
(-0.112104 -0.119129 0)
(-0.0698817 -0.0725469 0)
(-0.039611 -0.0348594 0)
(-0.020392 -0.00776604 0)
(-0.00917227 0.010107 0)
(-0.00314242 0.0208555 0)
(-0.000380062 0.02578 0)
(0.00052248 0.0255411 0)
(0.00042725 0.0199914 0)
(8.16785e-05 0.0087025 0)
(-0.00115328 -0.00316825 0)
(-0.00776606 0.00400262 0)
(-0.0191497 0.0200027 0)
(-0.0338183 0.0422284 0)
(-0.0523785 0.067453 0)
(-0.0741722 0.0948895 0)
(-0.0994501 0.12349 0)
(-0.126856 0.152203 0)
(-0.155208 0.178788 0)
(-0.182393 0.201176 0)
(-0.207112 0.217637 0)
(-0.228079 0.227535 0)
(-0.244958 0.230896 0)
(-0.257522 0.228443 0)
(-0.266244 0.221159 0)
(-0.271614 0.210269 0)
(-0.274503 0.19689 0)
(-0.275587 0.182042 0)
(-0.275637 0.16645 0)
(-0.27511 0.150648 0)
(-0.274452 0.134909 0)
(-0.273834 0.119392 0)
(-0.273431 0.104109 0)
(-0.273233 0.0890476 0)
(-0.27328 0.0741302 0)
(-0.273499 0.0593043 0)
(-0.27389 0.0444888 0)
(-0.274384 0.0296398 0)
(-0.274984 0.0146971 0)
(-0.275645 -0.000365618 0)
(-0.276394 -0.0155882 0)
(-0.277216 -0.0309838 0)
(-0.278164 -0.0465794 0)
(-0.279263 -0.0623853 0)
(-0.280599 -0.0784293 0)
(-0.282242 -0.0947374 0)
(-0.284325 -0.111363 0)
(-0.286971 -0.128377 0)
(-0.290344 -0.145886 0)
(-0.294564 -0.164014 0)
(-0.299697 -0.182875 0)
(-0.305601 -0.202492 0)
(-0.311804 -0.222645 0)
(-0.317268 -0.242651 0)
(-0.320219 -0.261065 0)
(-0.318066 -0.275442 0)
(-0.307636 -0.282281 0)
(-0.285864 -0.277447 0)
(-0.251027 -0.257287 0)
(-0.204292 -0.220468 0)
(-0.15084 -0.170103 0)
(-0.0992486 -0.114425 0)
(-0.057954 -0.0640356 0)
(-0.0302909 -0.0256767 0)
(-0.0138998 4.92818e-05 0)
(-0.00502971 0.0157796 0)
(-0.000876791 0.0236864 0)
(0.000602598 0.0251063 0)
(0.000605386 0.0203081 0)
(0.000151317 0.00903107 0)
(-0.00175328 0.00149826 0)
(-0.0104287 0.0143025 0)
(-0.0242758 0.0343164 0)
(-0.0411818 0.0600675 0)
(-0.061893 0.0887367 0)
(-0.0853514 0.119353 0)
(-0.111602 0.150367 0)
(-0.138779 0.18005 0)
(-0.165635 0.205842 0)
(-0.190087 0.225801 0)
(-0.21123 0.238685 0)
(-0.228089 0.244397 0)
(-0.240751 0.243472 0)
(-0.249292 0.237045 0)
(-0.254524 0.226417 0)
(-0.257098 0.21297 0)
(-0.257988 0.197842 0)
(-0.257809 0.181956 0)
(-0.257237 0.165879 0)
(-0.256564 0.149973 0)
(-0.256098 0.134358 0)
(-0.255864 0.119076 0)
(-0.255949 0.104058 0)
(-0.256262 0.0892445 0)
(-0.256809 0.0745354 0)
(-0.257485 0.0598719 0)
(-0.258286 0.0451766 0)
(-0.259133 0.0304142 0)
(-0.260034 0.0155355 0)
(-0.260938 0.00052565 0)
(-0.261872 -0.0146428 0)
(-0.262812 -0.0299713 0)
(-0.263801 -0.0454727 0)
(-0.264842 -0.0611426 0)
(-0.266 -0.0769889 0)
(-0.267314 -0.0930154 0)
(-0.268888 -0.109246 0)
(-0.270818 -0.125725 0)
(-0.273269 -0.142532 0)
(-0.276405 -0.159801 0)
(-0.280427 -0.177705 0)
(-0.285462 -0.196447 0)
(-0.29149 -0.216154 0)
(-0.298121 -0.236718 0)
(-0.304372 -0.257492 0)
(-0.308397 -0.276933 0)
(-0.307366 -0.292227 0)
(-0.297684 -0.299196 0)
(-0.275761 -0.292766 0)
(-0.239532 -0.268399 0)
(-0.19041 -0.224675 0)
(-0.13483 -0.166133 0)
(-0.0832056 -0.104166 0)
(-0.0447327 -0.0516479 0)
(-0.0210172 -0.0147737 0)
(-0.00795771 0.00818862 0)
(-0.00169329 0.0204369 0)
(0.000655518 0.0242963 0)
(0.000815383 0.0206501 0)
(0.00023351 0.00950408 0)
(-0.00234497 0.0076686 0)
(-0.0129208 0.0267905 0)
(-0.0289089 0.0507695 0)
(-0.047617 0.0798041 0)
(-0.0698889 0.111536 0)
(-0.094228 0.144638 0)
(-0.120505 0.177034 0)
(-0.14649 0.206446 0)
(-0.171062 0.230284 0)
(-0.192296 0.246934 0)
(-0.209726 0.255737 0)
(-0.222683 0.25713 0)
(-0.231661 0.25214 0)
(-0.23699 0.242259 0)
(-0.239728 0.229005 0)
(-0.240563 0.213791 0)
(-0.240459 0.197663 0)
(-0.239879 0.181363 0)
(-0.239363 0.165268 0)
(-0.239021 0.149566 0)
(-0.239052 0.13425 0)
(-0.239363 0.119274 0)
(-0.239995 0.104523 0)
(-0.240809 0.0899163 0)
(-0.241806 0.0753534 0)
(-0.242871 0.0607806 0)
(-0.244011 0.0461324 0)
(-0.245144 0.0313848 0)
(-0.246292 0.0165009 0)
(-0.247403 0.00147547 0)
(-0.248507 -0.0137083 0)
(-0.249573 -0.0290438 0)
(-0.250641 -0.0445338 0)
(-0.251699 -0.0601648 0)
(-0.252796 -0.0759306 0)
(-0.253941 -0.0918198 0)
(-0.255207 -0.107831 0)
(-0.256647 -0.123978 0)
(-0.258384 -0.1403 0)
(-0.260554 -0.156891 0)
(-0.263369 -0.1739 0)
(-0.267056 -0.191569 0)
(-0.271837 -0.210176 0)
(-0.27778 -0.229983 0)
(-0.284589 -0.250973 0)
(-0.291298 -0.272533 0)
(-0.295937 -0.292916 0)
(-0.295387 -0.308804 0)
(-0.285576 -0.315131 0)
(-0.262476 -0.305707 0)
(-0.223855 -0.275188 0)
(-0.171871 -0.222506 0)
(-0.114757 -0.154932 0)
(-0.0650674 -0.0879517 0)
(-0.0315764 -0.0362675 0)
(-0.012725 -0.00302727 0)
(-0.00334015 0.0154652 0)
(0.000393496 0.0229038 0)
(0.000933371 0.0209866 0)
(0.000304441 0.0101457 0)
(-0.0028806 0.0152735 0)
(-0.015084 0.0412569 0)
(-0.0327937 0.0690612 0)
(-0.052794 0.101049 0)
(-0.0759763 0.135332 0)
(-0.100425 0.170107 0)
(-0.125911 0.20283 0)
(-0.150003 0.230869 0)
(-0.17184 0.251856 0)
(-0.189726 0.264635 0)
(-0.203634 0.269166 0)
(-0.213174 0.266396 0)
(-0.219203 0.257803 0)
(-0.222215 0.245136 0)
(-0.223398 0.230007 0)
(-0.223366 0.213733 0)
(-0.222991 0.19719 0)
(-0.222541 0.180897 0)
(-0.222422 0.16505 0)
(-0.22259 0.149685 0)
(-0.223165 0.134709 0)
(-0.223985 0.120022 0)
(-0.225075 0.105495 0)
(-0.226278 0.0910449 0)
(-0.227609 0.0765807 0)
(-0.228952 0.0620599 0)
(-0.230334 0.047431 0)
(-0.231675 0.0326788 0)
(-0.23301 0.017777 0)
(-0.234284 0.00272568 0)
(-0.235537 -0.0124848 0)
(-0.236732 -0.0278447 0)
(-0.237908 -0.0433507 0)
(-0.239042 -0.0589866 0)
(-0.240174 -0.0747386 0)
(-0.241294 -0.0905884 0)
(-0.24245 -0.106518 0)
(-0.243657 -0.122522 0)
(-0.244993 -0.1386 0)
(-0.246537 -0.154802 0)
(-0.248451 -0.171215 0)
(-0.250937 -0.188032 0)
(-0.254281 -0.205529 0)
(-0.258766 -0.224106 0)
(-0.264554 -0.24412 0)
(-0.271423 -0.265681 0)
(-0.278369 -0.288118 0)
(-0.283245 -0.309379 0)
(-0.2825 -0.325386 0)
(-0.271589 -0.3299 0)
(-0.246058 -0.315465 0)
(-0.203965 -0.276084 0)
(-0.148811 -0.212221 0)
(-0.0915171 -0.13551 0)
(-0.0465205 -0.0667933 0)
(-0.0198757 -0.0193315 0)
(-0.00621384 0.00788032 0)
(-0.000391746 0.0204566 0)
(0.000875894 0.021088 0)
(0.000351021 0.0108657 0)
(-0.00328968 0.0240153 0)
(-0.0167138 0.0571918 0)
(-0.0356341 0.0885516 0)
(-0.0563687 0.123026 0)
(-0.0798119 0.159209 0)
(-0.10369 0.194777 0)
(-0.127764 0.226849 0)
(-0.149544 0.252643 0)
(-0.168504 0.270194 0)
(-0.183199 0.278865 0)
(-0.194009 0.279238 0)
(-0.200784 0.272718 0)
(-0.204662 0.26116 0)
(-0.206197 0.246436 0)
(-0.206599 0.230134 0)
(-0.206331 0.21338 0)
(-0.206134 0.196835 0)
(-0.206089 0.180801 0)
(-0.206488 0.165317 0)
(-0.207177 0.150311 0)
(-0.208238 0.135639 0)
(-0.209472 0.121178 0)
(-0.210912 0.106804 0)
(-0.212398 0.0924411 0)
(-0.213968 0.0780167 0)
(-0.215508 0.0634981 0)
(-0.217064 0.0488476 0)
(-0.218557 0.0340561 0)
(-0.220032 0.0191066 0)
(-0.221435 0.00400227 0)
(-0.222808 -0.0112602 0)
(-0.224112 -0.0266697 0)
(-0.225386 -0.0422181 0)
(-0.226602 -0.0578892 0)
(-0.227796 -0.073664 0)
(-0.228947 -0.0895237 0)
(-0.230089 -0.105441 0)
(-0.231215 -0.121401 0)
(-0.232369 -0.13738 0)
(-0.233581 -0.153394 0)
(-0.234949 -0.169468 0)
(-0.236608 -0.185728 0)
(-0.238796 -0.20237 0)
(-0.241826 -0.219771 0)
(-0.24605 -0.238402 0)
(-0.251717 -0.258787 0)
(-0.258616 -0.281081 0)
(-0.265678 -0.304514 0)
(-0.270394 -0.326478 0)
(-0.268746 -0.341809 0)
(-0.25554 -0.342741 0)
(-0.226228 -0.320362 0)
(-0.179587 -0.268815 0)
(-0.121659 -0.191714 0)
(-0.0666976 -0.108166 0)
(-0.0297413 -0.0425357 0)
(-0.0105801 -0.00322341 0)
(-0.00182005 0.0164149 0)
(0.0006024 0.0207188 0)
(0.00036591 0.0115925 0)
(-0.00354599 0.0336009 0)
(-0.0177424 0.0742078 0)
(-0.0373456 0.108847 0)
(-0.0582741 0.145336 0)
(-0.08139 0.182773 0)
(-0.104156 0.21833 0)
(-0.126401 0.24895 0)
(-0.145687 0.271876 0)
(-0.161847 0.285675 0)
(-0.173684 0.290246 0)
(-0.181933 0.286769 0)
(-0.186622 0.277033 0)
(-0.189072 0.263165 0)
(-0.189804 0.247034 0)
(-0.189967 0.230102 0)
(-0.18984 0.213253 0)
(-0.190032 0.196934 0)
(-0.190464 0.181251 0)
(-0.191354 0.166132 0)
(-0.192477 0.151432 0)
(-0.193908 0.136994 0)
(-0.195435 0.122688 0)
(-0.197113 0.108409 0)
(-0.198786 0.0940903 0)
(-0.200513 0.0796778 0)
(-0.202187 0.0651458 0)
(-0.203865 0.0504677 0)
(-0.205471 0.0356372 0)
(-0.207057 0.020644 0)
(-0.208564 0.0054915 0)
(-0.210041 -0.00981857 0)
(-0.211442 -0.0252763 0)
(-0.21281 -0.0408693 0)
(-0.214111 -0.0565838 0)
(-0.215382 -0.0723969 0)
(-0.216596 -0.0882939 0)
(-0.217784 -0.104242 0)
(-0.218923 -0.120228 0)
(-0.220042 -0.136212 0)
(-0.221135 -0.152195 0)
(-0.222251 -0.168156 0)
(-0.223455 -0.184161 0)
(-0.2249 -0.200304 0)
(-0.226834 -0.216873 0)
(-0.229613 -0.234274 0)
(-0.233673 -0.253163 0)
(-0.23929 -0.274149 0)
(-0.246278 -0.297462 0)
(-0.25329 -0.322002 0)
(-0.257426 -0.344304 0)
(-0.253878 -0.357639 0)
(-0.23703 -0.352238 0)
(-0.202365 -0.318011 0)
(-0.150648 -0.250422 0)
(-0.0914322 -0.159994 0)
(-0.0430675 -0.0749411 0)
(-0.0164534 -0.0189743 0)
(-0.00401038 0.0100952 0)
(0.000131003 0.0195418 0)
(0.000345351 0.0122081 0)
(-0.00361121 0.0435789 0)
(-0.0180769 0.0916795 0)
(-0.0378256 0.129257 0)
(-0.0584407 0.167225 0)
(-0.0807277 0.20525 0)
(-0.101989 0.240077 0)
(-0.122178 0.26863 0)
(-0.138985 0.288316 0)
(-0.152586 0.2983 0)
(-0.162007 0.298999 0)
(-0.168269 0.292136 0)
(-0.171508 0.279793 0)
(-0.173129 0.26425 0)
(-0.173549 0.247264 0)
(-0.173815 0.230112 0)
(-0.174022 0.213416 0)
(-0.174665 0.197434 0)
(-0.175546 0.182114 0)
(-0.176846 0.167317 0)
(-0.178301 0.152859 0)
(-0.18 0.138586 0)
(-0.181729 0.124377 0)
(-0.18357 0.110146 0)
(-0.185372 0.0958377 0)
(-0.187213 0.0814128 0)
(-0.188987 0.0668493 0)
(-0.190763 0.0521299 0)
(-0.192461 0.037248 0)
(-0.194139 0.0221996 0)
(-0.195734 0.00698721 0)
(-0.197295 -0.00838208 0)
(-0.198776 -0.0238999 0)
(-0.200218 -0.0395481 0)
(-0.201586 -0.0553161 0)
(-0.202917 -0.0711758 0)
(-0.204183 -0.0871178 0)
(-0.205415 -0.103105 0)
(-0.206587 -0.119131 0)
(-0.207722 -0.135149 0)
(-0.208797 -0.151161 0)
(-0.209834 -0.167116 0)
(-0.210846 -0.183049 0)
(-0.211907 -0.198967 0)
(-0.21317 -0.215056 0)
(-0.214899 -0.231581 0)
(-0.217532 -0.249142 0)
(-0.22153 -0.268477 0)
(-0.227267 -0.290408 0)
(-0.234355 -0.315039 0)
(-0.241182 -0.340718 0)
(-0.244013 -0.362574 0)
(-0.237398 -0.371629 0)
(-0.215133 -0.355908 0)
(-0.173863 -0.304664 0)
(-0.117369 -0.218104 0)
(-0.0606692 -0.117922 0)
(-0.0238477 -0.0410956 0)
(-0.00709474 0.000959932 0)
(-0.000537914 0.0171761 0)
(0.000298426 0.0126541 0)
(-0.00349657 0.0535752 0)
(-0.0177591 0.109206 0)
(-0.0371645 0.149457 0)
(-0.057038 0.188455 0)
(-0.078107 0.226526 0)
(-0.0976174 0.260088 0)
(-0.115673 0.286183 0)
(-0.130141 0.30248 0)
(-0.141499 0.308766 0)
(-0.148962 0.305938 0)
(-0.153757 0.296195 0)
(-0.156063 0.281808 0)
(-0.157284 0.265108 0)
(-0.157702 0.247657 0)
(-0.158238 0.230524 0)
(-0.15883 0.214083 0)
(-0.159887 0.198442 0)
(-0.161134 0.18343 0)
(-0.162739 0.16888 0)
(-0.164423 0.154585 0)
(-0.166298 0.140416 0)
(-0.168157 0.126256 0)
(-0.170103 0.112045 0)
(-0.171992 0.0977308 0)
(-0.173915 0.0832877 0)
(-0.175766 0.068693 0)
(-0.177622 0.0539364 0)
(-0.179399 0.0390088 0)
(-0.181157 0.0239111 0)
(-0.182831 0.00864307 0)
(-0.184472 -0.00678258 0)
(-0.186025 -0.0223603 0)
(-0.187538 -0.0380659 0)
(-0.188968 -0.0538924 0)
(-0.190356 -0.0698057 0)
(-0.191672 -0.0858025 0)
(-0.192949 -0.10184 0)
(-0.194162 -0.117922 0)
(-0.195332 -0.133997 0)
(-0.196435 -0.150075 0)
(-0.197479 -0.16609 0)
(-0.19845 -0.18207 0)
(-0.199369 -0.197961 0)
(-0.200307 -0.213873 0)
(-0.201414 -0.229922 0)
(-0.203027 -0.246562 0)
(-0.205593 -0.264435 0)