/*--------------------------------*- C++ -*----------------------------------*\
| =========                 |                                                 |
| \\      /  F ield         | OpenFOAM: The Open Source CFD Toolbox           |
|  \\    /   O peration     | Version:  2406                                  |
|   \\  /    A nd           | Website:  www.openfoam.com                      |
|    \\/     M anipulation  |                                                 |
\*---------------------------------------------------------------------------*/
FoamFile
{
    version     2.0;
    format      ascii;
    arch        "LSB;label=32;scalar=64";
    class       volVectorField;
    location    "13.55";
    object      U;
}
// * * * * * * * * * * * * * * * * * * * * * * * * * * * * * * * * * * * * * //

dimensions      [0 1 -1 0 0 0 0];

internalField   nonuniform List<vector> 
14400
(
(3.75798e-06 -3.74262e-06 0)
(1.77103e-05 -4.06777e-06 0)
(2.7767e-05 -2.46163e-06 0)
(2.89143e-05 2.42314e-07 0)
(1.84153e-05 3.07217e-06 0)
(-3.0789e-06 5.62784e-06 0)
(-3.41032e-05 7.70774e-06 0)
(-7.27984e-05 9.29872e-06 0)
(-0.000117338 1.04562e-05 0)
(-0.000166143 1.12638e-05 0)
(-0.000217967 1.18116e-05 0)
(-0.0002719 1.21832e-05 0)
(-0.000327339 1.24499e-05 0)
(-0.00038394 1.26686e-05 0)
(-0.000441563 1.28817e-05 0)
(-0.000500217 1.3119e-05 0)
(-0.000560014 1.33995e-05 0)
(-0.000621132 1.37334e-05 0)
(-0.00068378 1.41248e-05 0)
(-0.000748178 1.45728e-05 0)
(-0.000814538 1.50734e-05 0)
(-0.000883054 1.56207e-05 0)
(-0.000953896 1.62076e-05 0)
(-0.0010272 1.68263e-05 0)
(-0.00110308 1.74692e-05 0)
(-0.0011816 1.81285e-05 0)
(-0.00126281 1.87967e-05 0)
(-0.00134672 1.94664e-05 0)
(-0.00143331 2.01307e-05 0)
(-0.00152253 2.07825e-05 0)
(-0.0016143 2.14153e-05 0)
(-0.00170852 2.20222e-05 0)
(-0.00180504 2.25965e-05 0)
(-0.0019037 2.31312e-05 0)
(-0.0020043 2.36193e-05 0)
(-0.00210662 2.40536e-05 0)
(-0.00221039 2.44262e-05 0)
(-0.00231533 2.47292e-05 0)
(-0.00242111 2.49541e-05 0)
(-0.00252736 2.50918e-05 0)
(-0.00263369 2.51329e-05 0)
(-0.00273966 2.50673e-05 0)
(-0.00284478 2.48844e-05 0)
(-0.00294854 2.45733e-05 0)
(-0.00305036 2.41225e-05 0)
(-0.00314963 2.35206e-05 0)
(-0.0032457 2.27559e-05 0)
(-0.00333785 2.18168e-05 0)
(-0.00342536 2.06924e-05 0)
(-0.00350742 1.93723e-05 0)
(-0.00358322 1.78473e-05 0)
(-0.00365191 1.61094e-05 0)
(-0.00371261 1.41529e-05 0)
(-0.00376443 1.19742e-05 0)
(-0.00380648 9.57138e-06 0)
(-0.00383787 6.94201e-06 0)
(-0.0038578 4.11764e-06 0)
(-0.00386536 1.15765e-06 0)
(-0.00385977 -2.06862e-06 0)
(-0.00384044 -5.47572e-06 0)
(-0.00380674 -9.0132e-06 0)
(-0.00375816 -1.26611e-05 0)
(-0.00369437 -1.63878e-05 0)
(-0.00361514 -2.0155e-05 0)
(-0.00352045 -2.39208e-05 0)
(-0.00341043 -2.76396e-05 0)
(-0.00328539 -3.12633e-05 0)
(-0.00314586 -3.47419e-05 0)
(-0.00299255 -3.80251e-05 0)
(-0.00282638 -4.10632e-05 0)
(-0.00264846 -4.38083e-05 0)
(-0.00246008 -4.62159e-05 0)
(-0.00226268 -4.82461e-05 0)
(-0.00205787 -4.98645e-05 0)
(-0.00184736 -5.10437e-05 0)
(-0.00163298 -5.17641e-05 0)
(-0.00141659 -5.20143e-05 0)
(-0.00120008 -5.17919e-05 0)
(-0.000985352 -5.11035e-05 0)
(-0.000774254 -4.99644e-05 0)
(-0.000568556 -4.83984e-05 0)
(-0.000369925 -4.64369e-05 0)
(-0.000179891 -4.41181e-05 0)
(1.74527e-07 -4.14853e-05 0)
(0.00016908 -3.85865e-05 0)
(0.000325824 -3.54721e-05 0)
(0.00046961 -3.21937e-05 0)
(0.000599842 -2.88032e-05 0)
(0.00071613 -2.53504e-05 0)
(0.000818276 -2.1883e-05 0)
(0.000906268 -1.84445e-05 0)
(0.000980258 -1.50741e-05 0)
(0.00104055 -1.18056e-05 0)
(0.00108758 -8.66717e-06 0)
(0.00112189 -5.68071e-06 0)
(0.0011441 -2.8593e-06 0)
(0.00115494 -2.24895e-07 0)
(0.0011551 2.16439e-06 0)
(0.00114526 4.35312e-06 0)
(0.00112627 6.41471e-06 0)
(0.00109889 8.30279e-06 0)
(0.00106383 1.00077e-05 0)
(0.00102176 1.15439e-05 0)
(0.000973344 1.29242e-05 0)
(0.000919204 1.41603e-05 0)
(0.000859921 1.52619e-05 0)
(0.000796051 1.62362e-05 0)
(0.000728142 1.70852e-05 0)
(0.000656752 1.78039e-05 0)
(0.000582492 1.8377e-05 0)
(0.000506071 1.87748e-05 0)
(0.000428362 1.89477e-05 0)
(0.000350493 1.88192e-05 0)
(0.000273959 1.82775e-05 0)
(0.000200765 1.7165e-05 0)
(0.000133577 1.52784e-05 0)
(7.58514e-05 1.23685e-05 0)
(3.16258e-05 8.26437e-06 0)
(5.32938e-06 2.97912e-06 0)
(-1.28352e-06 -1.28212e-06 0)
(4.17052e-06 -1.77693e-05 0)
(2.12901e-05 -2.1086e-05 0)
(2.38676e-05 -5.93912e-06 0)
(3.52261e-06 1.67262e-05 0)
(-4.47875e-05 4.06946e-05 0)
(-0.000120036 6.26001e-05 0)
(-0.000219107 8.09928e-05 0)
(-0.000337955 9.55517e-05 0)
(-0.000472454 0.000106565 0)
(-0.000618893 0.000114612 0)
(-0.000774216 0.000120372 0)
(-0.000936097 0.000124508 0)
(-0.0011029 0.000127607 0)
(-0.00127361 0.000130152 0)
(-0.0014477 0.000132518 0)
(-0.00162501 0.000134976 0)
(-0.00180569 0.000137704 0)
(-0.00199002 0.000140812 0)
(-0.00217843 0.000144347 0)
(-0.00237135 0.000148317 0)
(-0.00256924 0.000152697 0)
(-0.00277251 0.000157442 0)
(-0.00298151 0.000162494 0)
(-0.00319652 0.000167789 0)
(-0.00341776 0.000173258 0)
(-0.00364535 0.000178833 0)
(-0.00387932 0.000184443 0)
(-0.00411963 0.000190022 0)
(-0.00436615 0.000195502 0)
(-0.00461867 0.000200818 0)
(-0.00487691 0.000205906 0)
(-0.00514048 0.000210702 0)
(-0.00540893 0.000215142 0)
(-0.00568175 0.000219162 0)
(-0.00595831 0.000222696 0)
(-0.00623794 0.000225677 0)
(-0.00651985 0.000228038 0)
(-0.0068032 0.000229706 0)
(-0.00708704 0.000230607 0)
(-0.00737036 0.000230665 0)
(-0.00765204 0.000229799 0)
(-0.00793086 0.000227925 0)
(-0.00820553 0.000224956 0)
(-0.00847464 0.000220803 0)
(-0.0087367 0.000215375 0)
(-0.00899009 0.000208581 0)
(-0.00923313 0.000200329 0)
(-0.00946402 0.000190534 0)
(-0.00968089 0.000179111 0)
(-0.00988177 0.000165987 0)
(-0.0100646 0.000151098 0)
(-0.0102274 0.000134394 0)
(-0.010368 0.000115843 0)
(-0.0104842 9.54337e-05 0)
(-0.010574 7.31799e-05 0)
(-0.0106354 4.91225e-05 0)
(-0.0106662 2.33482e-05 0)
(-0.0106648 -3.9905e-06 0)
(-0.0106294 -3.2859e-05 0)
(-0.0105585 -6.30357e-05 0)
(-0.0104508 -9.42878e-05 0)
(-0.0103055 -0.000126358 0)
(-0.0101217 -0.000158952 0)
(-0.00989934 -0.000191745 0)
(-0.00963844 -0.000224379 0)
(-0.00933953 -0.000256475 0)
(-0.00900359 -0.000287635 0)
(-0.00863204 -0.000317451 0)
(-0.00822677 -0.000345516 0)
(-0.00779011 -0.000371427 0)
(-0.00732483 -0.000394803 0)
(-0.00683411 -0.000415287 0)
(-0.00632148 -0.000432562 0)
(-0.00579083 -0.000446356 0)
(-0.00524629 -0.000456452 0)
(-0.00469222 -0.000462695 0)
(-0.00413309 -0.000464994 0)
(-0.00357344 -0.000463329 0)
(-0.00301781 -0.00045775 0)
(-0.00247064 -0.000448377 0)
(-0.00193618 -0.000435395 0)
(-0.0014185 -0.000419051 0)
(-0.000921304 -0.000399646 0)
(-0.000447994 -0.000377525 0)
(-1.54741e-06 -0.000353068 0)
(0.000415488 -0.000326681 0)
(0.000801023 -0.000298781 0)
(0.00115344 -0.000269788 0)
(0.00147158 -0.000240114 0)
(0.00175476 -0.000210154 0)
(0.00200271 -0.000180273 0)
(0.00221558 -0.000150807 0)
(0.00239388 -0.00012205 0)
(0.00253846 -9.4254e-05 0)
(0.00265041 -6.76268e-05 0)
(0.00273108 -4.23318e-05 0)
(0.00278195 -1.84967e-05 0)
(0.00280467 3.76634e-06 0)
(0.00280102 2.44845e-05 0)
(0.00277274 4.36858e-05 0)
(0.00272155 6.13558e-05 0)
(0.00264922 7.75319e-05 0)
(0.00255746 9.22781e-05 0)
(0.00244789 0.000105666 0)
(0.00232211 0.000117763 0)
(0.00218164 0.000128625 0)
(0.00202799 0.00013828 0)
(0.00186268 0.000146714 0)
(0.00168732 0.00015385 0)
(0.00150367 0.000159523 0)
(0.00131377 0.000163451 0)
(0.00112008 0.000165197 0)
(0.000925681 0.000164126 0)
(0.000734448 0.000159361 0)
(0.000551312 0.000149752 0)
(0.000382444 0.00013392 0)
(0.000235298 0.000110449 0)
(0.000117718 7.85296e-05 0)
(3.95526e-05 3.94217e-05 0)
(3.00066e-06 5.35457e-06 0)
(2.52598e-06 -2.79306e-05 0)
(5.23071e-06 -2.33605e-05 0)
(-1.91504e-05 1.72543e-05 0)
(-7.93163e-05 7.23122e-05 0)
(-0.000179519 0.000129723 0)
(-0.000318325 0.000182623 0)
(-0.00049161 0.000227775 0)
(-0.000694016 0.000264267 0)
(-0.000919997 0.000292561 0)
(-0.00116446 0.000313838 0)
(-0.00142309 0.000329566 0)
(-0.00169255 0.000341235 0)
(-0.00197036 0.000350202 0)
(-0.00225492 0.000357608 0)
(-0.0025453 0.000364356 0)
(-0.00284112 0.000371113 0)
(-0.00314238 0.000378339 0)
(-0.00344939 0.000386318 0)
(-0.00376257 0.000395192 0)
(-0.00408247 0.000404996 0)
(-0.0044096 0.000415687 0)
(-0.00474445 0.000427167 0)
(-0.00508745 0.000439304 0)
(-0.00543889 0.000451941 0)
(-0.00579899 0.000464911 0)
(-0.00616782 0.000478041 0)
(-0.00654533 0.000491156 0)
(-0.00693135 0.000504085 0)
(-0.00732557 0.000516655 0)
(-0.00772757 0.000528699 0)
(-0.00813679 0.00054005 0)
(-0.00855256 0.000550546 0)
(-0.00897408 0.000560024 0)
(-0.00940045 0.00056832 0)
(-0.00983063 0.000575272 0)
(-0.0102635 0.000580714 0)
(-0.0106977 0.000584478 0)
(-0.011132 0.000586393 0)
(-0.0115648 0.00058628 0)
(-0.0119946 0.000583958 0)
(-0.0124195 0.000579239 0)
(-0.0128378 0.00057193 0)
(-0.0132473 0.00056183 0)
(-0.0136462 0.000548739 0)
(-0.014032 0.000532451 0)
(-0.0144024 0.000512765 0)
(-0.014755 0.000489481 0)
(-0.0150871 0.00046241 0)
(-0.015396 0.00043138 0)
(-0.015679 0.000396238 0)
(-0.0159331 0.000356859 0)
(-0.0161555 0.000313154 0)
(-0.0163433 0.000265078 0)
(-0.0164934 0.000212639 0)
(-0.016603 0.000155903 0)
(-0.0166694 9.50048e-05 0)
(-0.0166899 3.01458e-05 0)
(-0.0166621 -3.84108e-05 0)
(-0.0165838 -0.00011023 0)
(-0.0164531 -0.000184897 0)
(-0.0162684 -0.000261874 0)
(-0.0160286 -0.000340531 0)
(-0.0157331 -0.000420159 0)
(-0.0153817 -0.00049998 0)
(-0.0149748 -0.000579152 0)
(-0.0145133 -0.000656784 0)
(-0.0139988 -0.000731949 0)
(-0.0134336 -0.000803703 0)
(-0.0128203 -0.000871105 0)
(-0.0121625 -0.000933235 0)
(-0.0114641 -0.000989218 0)
(-0.0107297 -0.00103824 0)
(-0.00996418 -0.00107959 0)
(-0.00917314 -0.00111264 0)
(-0.00836236 -0.0011369 0)
(-0.00753793 -0.00115202 0)
(-0.00670613 -0.00115779 0)
(-0.00587331 -0.00115415 0)
(-0.00504584 -0.00114123 0)
(-0.00422994 -0.00111928 0)
(-0.00343163 -0.00108872 0)
(-0.00265662 -0.00105011 0)
(-0.00191025 -0.00100412 0)
(-0.00119737 -0.000951547 0)
(-0.000522294 -0.000893248 0)
(0.000111225 -0.000830153 0)
(0.000700063 -0.000763225 0)
(0.00124173 -0.000693437 0)
(0.00173437 -0.00062175 0)
(0.00217676 -0.000549089 0)
(0.0025683 -0.000476325 0)
(0.00290893 -0.000404256 0)
(0.00319913 -0.000333597 0)
(0.00343985 -0.000264967 0)
(0.00363244 -0.000198885 0)
(0.00377858 -0.000135768 0)
(0.00388023 -7.59292e-05 0)
(0.00393959 -1.9561e-05 0)
(0.00395898 3.32163e-05 0)
(0.00394078 8.23062e-05 0)
(0.00388744 0.000127759 0)
(0.0038014 0.000169654 0)
(0.0036851 0.000208099 0)
(0.0035409 0.000243217 0)
(0.00337112 0.000275124 0)
(0.00317806 0.000303903 0)
(0.00296401 0.000329568 0)
(0.00273134 0.000352029 0)
(0.00248256 0.000371049 0)
(0.00222047 0.000386183 0)
(0.00194826 0.000396721 0)
(0.00166974 0.000401617 0)
(0.00138953 0.000399415 0)
(0.00111329 0.0003882 0)
(0.000847948 0.000365586 0)
(0.000601822 0.000328884 0)
(0.000384559 0.00027556 0)
(0.00020565 0.000204409 0)
(7.93174e-05 0.000117839 0)
(8.37132e-06 3.18689e-05 0)
(-5.56639e-07 -2.82084e-05 0)
(-2.12937e-05 1.41204e-07 0)
(-8.38871e-05 7.98912e-05 0)
(-0.000196032 0.000180034 0)
(-0.000358813 0.00028269 0)
(-0.000569701 0.0003773 0)
(-0.000823384 0.00045868 0)
(-0.00111341 0.000525249 0)
(-0.0014332 0.000577662 0)
(-0.00177671 0.000617801 0)
(-0.0021388 0.000648089 0)
(-0.00251537 0.000671038 0)
(-0.00290338 0.000688967 0)
(-0.00330074 0.000703859 0)
(-0.0037062 0.000717304 0)
(-0.00411913 0.000730495 0)
(-0.00453938 0.000744266 0)
(-0.00496715 0.000759144 0)
(-0.00540282 0.000775406 0)
(-0.00584689 0.000793134 0)
(-0.00629985 0.000812267 0)
(-0.00676216 0.000832642 0)
(-0.0072342 0.000854026 0)
(-0.0077162 0.000876142 0)
(-0.00820827 0.000898687 0)
(-0.00871036 0.000921346 0)
(-0.00922225 0.000943798 0)
(-0.00974358 0.000965723 0)
(-0.0102738 0.000986804 0)
(-0.0108122 0.00100673 0)
(-0.011358 0.00102519 0)
(-0.0119101 0.00104189 0)
(-0.0124674 0.00105652 0)
(-0.0130286 0.0010688 0)
(-0.0135923 0.00107843 0)
(-0.0141568 0.00108511 0)
(-0.0147205 0.00108855 0)
(-0.0152815 0.00108845 0)
(-0.0158379 0.00108451 0)
(-0.0163874 0.0010764 0)
(-0.016928 0.00106382 0)
(-0.0174572 0.00104643 0)
(-0.0179725 0.0010239 0)
(-0.0184713 0.000995901 0)
(-0.0189508 0.000962089 0)
(-0.019408 0.000922132 0)
(-0.01984 0.00087571 0)
(-0.0202435 0.000822521 0)
(-0.0206154 0.000762292 0)
(-0.0209523 0.000694789 0)
(-0.0212508 0.000619831 0)
(-0.0215074 0.000537302 0)
(-0.0217186 0.000447163 0)
(-0.0218812 0.000349469 0)
(-0.0219918 0.000244379 0)
(-0.0220471 0.00013217 0)
(-0.0220443 1.32442e-05 0)
(-0.0219805 -0.000111872 0)
(-0.0218533 -0.000242478 0)
(-0.0216607 -0.000377744 0)
(-0.021401 -0.000516703 0)
(-0.0210731 -0.000658238 0)
(-0.0206765 -0.000801106 0)
(-0.0202111 -0.000943941 0)
(-0.0196776 -0.00108528 0)
(-0.0190774 -0.00122357 0)
(-0.0184125 -0.00135722 0)
(-0.0176857 -0.0014846 0)
(-0.0169004 -0.0016041 0)
(-0.016061 -0.00171415 0)
(-0.0151721 -0.00181325 0)
(-0.0142393 -0.00190002 0)
(-0.0132688 -0.00197324 0)
(-0.012267 -0.00203184 0)
(-0.0112409 -0.00207499 0)
(-0.0101979 -0.00210207 0)
(-0.00914548 -0.00211274 0)
(-0.00809132 -0.00210689 0)
(-0.00704305 -0.00208469 0)
(-0.0060082 -0.0020466 0)
(-0.00499407 -0.0019933 0)
(-0.00400763 -0.00192573 0)
(-0.00305538 -0.00184503 0)
(-0.00214331 -0.00175254 0)
(-0.00127679 -0.00164973 0)
(-0.000460535 -0.00153818 0)
(0.000301477 -0.00141955 0)
(0.001006 -0.00129552 0)
(0.00165057 -0.00116776 0)
(0.00223343 -0.00103788 0)
(0.00275358 -0.000907418 0)
(0.00321072 -0.000777778 0)
(0.00360517 -0.000650238 0)
(0.00393783 -0.000525912 0)
(0.00421011 -0.000405747 0)
(0.00442386 -0.000290511 0)
(0.00458127 -0.000180796 0)
(0.00468485 -7.70213e-05 0)
(0.00473726 2.05186e-05 0)
(0.00474134 0.000111703 0)
(0.00469999 0.000196523 0)
(0.00461615 0.000275058 0)
(0.00449277 0.000347444 0)
(0.00433275 0.000413842 0)
(0.00413899 0.000474399 0)
(0.00391438 0.000529194 0)
(0.00366187 0.000578189 0)
(0.0033845 0.000621159 0)
(0.00308555 0.000657617 0)
(0.00276863 0.000686731 0)
(0.00243789 0.000707222 0)
(0.00209816 0.00071727 0)
(0.0017552 0.000714422 0)
(0.0014159 0.000695545 0)
(0.0010885 0.000656873 0)
(0.000782679 0.000594294 0)
(0.00050953 0.000504028 0)
(0.000279864 0.00038409 0)
(0.00011259 0.000236732 0)
(1.26468e-05 7.6808e-05 0)
(-4.25226e-06 -1.41792e-05 0)
(-5.31907e-05 5.86572e-05 0)
(-0.000160758 0.000192494 0)
(-0.000332862 0.000349313 0)
(-0.000565771 0.000506584 0)
(-0.000855189 0.00065073 0)
(-0.00119425 0.000774998 0)
(-0.00157533 0.000877346 0)
(-0.00199098 0.000958753 0)
(-0.0024344 0.00102191 0)
(-0.00289986 0.00107029 0)
(-0.00338276 0.00110753 0)
(-0.00387965 0.001137 0)
(-0.00438813 0.00116161 0)
(-0.00490665 0.00118373 0)
(-0.0054344 0.00120514 0)
(-0.00597105 0.00122709 0)
(-0.00651666 0.0012504 0)
(-0.00707151 0.00127549 0)
(-0.00763598 0.00130251 0)
(-0.00821047 0.00133137 0)
(-0.00879531 0.00136184 0)
(-0.00939074 0.00139356 0)
(-0.00999686 0.00142613 0)
(-0.0106136 0.00145906 0)
(-0.0112407 0.00149187 0)
(-0.0118777 0.00152408 0)
(-0.012524 0.00155517 0)
(-0.0131788 0.00158466 0)
(-0.013841 0.00161207 0)
(-0.0145096 0.00163692 0)
(-0.0151831 0.00165874 0)
(-0.0158601 0.00167709 0)
(-0.0165388 0.00169153 0)
(-0.0172174 0.00170161 0)
(-0.0178941 0.00170689 0)
(-0.0185666 0.00170696 0)
(-0.0192328 0.00170137 0)
(-0.0198903 0.0016897 0)
(-0.0205367 0.00167148 0)
(-0.0211692 0.00164628 0)
(-0.0217853 0.00161364 0)
(-0.022382 0.00157308 0)
(-0.0229563 0.00152414 0)
(-0.0235052 0.00146636 0)
(-0.0240254 0.00139926 0)
(-0.0245135 0.00132242 0)
(-0.024966 0.00123542 0)
(-0.0253794 0.0011379 0)
(-0.0257501 0.00102955 0)
(-0.0260744 0.000910147 0)
(-0.0263484 0.000779562 0)
(-0.0265685 0.000637784 0)
(-0.0267311 0.000484941 0)
(-0.0268326 0.000321313 0)
(-0.0268695 0.000147354 0)
(-0.0268387 -3.62931e-05 0)
(-0.0267374 -0.000228786 0)
(-0.0265629 -0.000429085 0)
(-0.026313 -0.000635929 0)
(-0.0259862 -0.000847851 0)
(-0.0255813 -0.00106319 0)
(-0.0250978 -0.00128008 0)
(-0.0245359 -0.00149651 0)
(-0.0238962 -0.00171032 0)
(-0.0231805 -0.00191922 0)
(-0.0223911 -0.00212088 0)
(-0.0215312 -0.00231292 0)
(-0.0206045 -0.00249298 0)
(-0.0196159 -0.00265875 0)
(-0.0185707 -0.00280805 0)
(-0.0174752 -0.00293886 0)
(-0.016336 -0.00304938 0)
(-0.0151606 -0.00313807 0)
(-0.0139568 -0.00320367 0)
(-0.0127327 -0.00324528 0)
(-0.0114969 -0.00326235 0)
(-0.010258 -0.00325473 0)
(-0.00902475 -0.00322264 0)
(-0.00780558 -0.00316668 0)
(-0.00660889 -0.00308785 0)
(-0.00544265 -0.00298749 0)
(-0.00431438 -0.00286723 0)
(-0.00323102 -0.00272902 0)
(-0.00219887 -0.00257499 0)
(-0.00122346 -0.00240747 0)
(-0.000309563 -0.00222889 0)
(0.000538909 -0.00204173 0)
(0.00131888 -0.00184845 0)
(0.00202812 -0.00165147 0)
(0.00266524 -0.00145308 0)
(0.00322962 -0.00125541 0)
(0.00372141 -0.00106038 0)
(0.0041414 -0.00086971 0)
(0.004491 -0.000684855 0)
(0.00477211 -0.000507019 0)
(0.00498709 -0.000337149 0)
(0.00513862 -0.000175947 0)
(0.00522965 -2.3887e-05 0)
(0.00526331 0.000118787 0)
(0.00524285 0.00025198 0)
(0.00517158 0.00037574 0)
(0.00505285 0.000490207 0)
(0.00489 0.000595553 0)
(0.00468638 0.000691923 0)
(0.00444535 0.000779362 0)
(0.00417037 0.000857736 0)
(0.00386506 0.000926633 0)
(0.00353327 0.000985261 0)
(0.00317928 0.00103233 0)
(0.00280794 0.00106592 0)
(0.00242484 0.00108336 0)
(0.00203656 0.00108116 0)
(0.00165084 0.00105491 0)
(0.0012768 0.000999461 0)
(0.000925122 0.000909186 0)
(0.000608111 0.000778788 0)
(0.000337981 0.000604693 0)
(0.000138084 0.000387106 0)
(1.58002e-05 0.000136073 0)
(-8.22381e-06 1.56216e-05 0)
(-8.75919e-05 0.000156208 0)
(-0.000243948 0.000360799 0)
(-0.000480848 0.000586583 0)
(-0.00078878 0.000807706 0)
(-0.00116112 0.00100853 0)
(-0.00158906 0.00118136 0)
(-0.00206365 0.00132412 0)
(-0.0025765 0.00143838 0)
(-0.0031202 0.00152782 0)
(-0.00368855 0.0015971 0)
(-0.00427658 0.00165105 0)
(-0.00488059 0.00169418 0)
(-0.00549793 0.0017304 0)
(-0.00612688 0.00176286 0)
(-0.00676645 0.00179398 0)
(-0.00741616 0.00182546 0)
(-0.00807593 0.0018584 0)
(-0.00874588 0.00189339 0)
(-0.00942622 0.00193064 0)
(-0.0101172 0.00197002 0)
(-0.010819 0.00201121 0)
(-0.0115315 0.00205374 0)
(-0.0122548 0.002097 0)
(-0.0129885 0.00214036 0)
(-0.0137321 0.00218313 0)
(-0.0144848 0.00222462 0)
(-0.0152457 0.00226412 0)
(-0.0160138 0.00230095 0)
(-0.0167876 0.00233445 0)
(-0.0175657 0.00236395 0)
(-0.0183464 0.00238882 0)
(-0.0191278 0.00240845 0)
(-0.0199079 0.00242225 0)
(-0.0206847 0.00242964 0)
(-0.0214557 0.00243005 0)
(-0.0222187 0.00242292 0)
(-0.0229711 0.0024077 0)
(-0.0237104 0.00238384 0)
(-0.0244338 0.00235078 0)
(-0.0251386 0.00230794 0)
(-0.0258218 0.00225475 0)
(-0.0264804 0.00219062 0)
(-0.0271113 0.00211498 0)
(-0.0277113 0.00202722 0)
(-0.028277 0.00192677 0)
(-0.0288049 0.00181308 0)
(-0.0292914 0.00168563 0)
(-0.0297329 0.00154398 0)
(-0.0301256 0.00138774 0)
(-0.0304658 0.00121666 0)
(-0.0307495 0.00103059 0)
(-0.030973 0.000829563 0)
(-0.0311324 0.000613781 0)
(-0.031224 0.000383657 0)
(-0.0312444 0.000139833 0)
(-0.0311902 -0.000116797 0)
(-0.0310583 -0.000385076 0)
(-0.030846 -0.000663574 0)
(-0.0305511 -0.00095058 0)
(-0.0301718 -0.00124411 0)
(-0.0297068 -0.00154191 0)
(-0.0291554 -0.00184149 0)
(-0.0285178 -0.00214012 0)
(-0.0277948 -0.0024349 0)
(-0.0269879 -0.00272277 0)
(-0.0260995 -0.00300059 0)
(-0.0251328 -0.00326516 0)
(-0.024092 -0.0035133 0)
(-0.0229819 -0.00374193 0)
(-0.0218083 -0.00394808 0)
(-0.0205777 -0.00412904 0)
(-0.0192974 -0.00428234 0)
(-0.0179753 -0.00440588 0)
(-0.01662 -0.00449794 0)
(-0.0152402 -0.00455725 0)
(-0.0138454 -0.00458302 0)
(-0.0124451 -0.00457498 0)
(-0.0110487 -0.00453336 0)
(-0.009666 -0.00445893 0)
(-0.00830615 -0.00435296 0)
(-0.0069782 -0.0042172 0)
(-0.00569065 -0.00405383 0)
(-0.00445141 -0.00386542 0)
(-0.00326769 -0.00365483 0)
(-0.00214591 -0.00342518 0)
(-0.0010916 -0.00317977 0)
(-0.000109394 -0.00292196 0)
(0.000797033 -0.00265511 0)
(0.00162495 -0.00238253 0)
(0.00237255 -0.00210736 0)
(0.00303894 -0.00183256 0)
(0.00362405 -0.00156081 0)
(0.00412857 -0.00129449 0)
(0.0045539 -0.00103567 0)
(0.00490202 -0.000786049 0)
(0.0051754 -0.000547002 0)
(0.00537693 -0.000319556 0)
(0.00550981 -0.000104422 0)
(0.00557745 9.79661e-05 0)
(0.00558341 0.000287424 0)
(0.00553135 0.000463946 0)
(0.00542498 0.000627646 0)
(0.00526801 0.000778686 0)
(0.00506418 0.00091719 0)
(0.00481729 0.00104314 0)
(0.0045312 0.00115628 0)
(0.00420997 0.00125598 0)
(0.00385795 0.0013411 0)
(0.00347991 0.00140985 0)
(0.00308121 0.00145963 0)
(0.00266803 0.00148691 0)
(0.00224751 0.00148708 0)
(0.001828 0.00145446 0)
(0.00141931 0.0013824 0)
(0.00103293 0.0012636 0)
(0.000682325 0.00109083 0)
(0.000381153 0.000858043 0)
(0.00015654 0.000561935 0)
(1.79857e-05 0.000205907 0)
(-1.22609e-05 6.19364e-05 0)
(-0.00012298 0.000294928 0)
(-0.000330023 0.000588073 0)
(-0.000634321 0.000895596 0)
(-0.00102007 0.00118971 0)
(-0.0014779 0.00145382 0)
(-0.00199674 0.00168008 0)
(-0.00256615 0.00186696 0)
(-0.00317672 0.00201701 0)
(-0.00382042 0.00213515 0)
(-0.00449063 0.00222738 0)
(-0.00518213 0.00229984 0)
(-0.00589101 0.00235823 0)
(-0.0066145 0.00240748 0)
(-0.00735074 0.00245157 0)
(-0.00809861 0.00249353 0)
(-0.00885749 0.00253552 0)
(-0.00962714 0.00257891 0)
(-0.0104075 0.00262447 0)
(-0.0111986 0.00267241 0)
(-0.0120005 0.00272258 0)
(-0.012813 0.00277455 0)
(-0.0136361 0.00282769 0)
(-0.0144692 0.00288122 0)
(-0.0153118 0.0029343 0)
(-0.016163 0.00298602 0)
(-0.017022 0.00303547 0)
(-0.0178872 0.00308176 0)
(-0.0187575 0.00312398 0)
(-0.019631 0.00316128 0)
(-0.0205059 0.00319282 0)
(-0.0213803 0.0032178 0)
(-0.022252 0.00323547 0)
(-0.0231188 0.0032451 0)
(-0.0239782 0.003246 0)
(-0.0248279 0.00323748 0)
(-0.0256652 0.00321891 0)
(-0.0264876 0.00318962 0)
(-0.0272924 0.00314899 0)
(-0.0280769 0.00309637 0)
(-0.0288382 0.00303109 0)
(-0.0295735 0.0029525 0)
(-0.0302798 0.00285991 0)
(-0.030954 0.00275263 0)
(-0.0315931 0.00262995 0)
(-0.0321937 0.0024912 0)
(-0.0327525 0.0023357 0)
(-0.0332659 0.00216284 0)
(-0.0337305 0.00197207 0)
(-0.0341424 0.00176294 0)
(-0.0344979 0.00153511 0)
(-0.0347931 0.00128844 0)
(-0.0350242 0.00102295 0)
(-0.0351872 0.000738911 0)
(-0.0352784 0.000436837 0)
(-0.035294 0.000117539 0)
(-0.0352304 -0.00021786 0)
(-0.0350845 -0.000567905 0)
(-0.0348531 -0.000930797 0)
(-0.0345338 -0.00130438 0)
(-0.0341242 -0.00168617 0)
(-0.0336228 -0.00207331 0)
(-0.0330287 -0.00246267 0)
(-0.0323414 -0.0028508 0)
(-0.0315615 -0.00323402 0)
(-0.0306901 -0.00360847 0)
(-0.0297294 -0.00397014 0)
(-0.0286823 -0.00431495 0)
(-0.0275529 -0.00463884 0)
(-0.026346 -0.00493783 0)
(-0.0250674 -0.00520813 0)
(-0.0237237 -0.00544619 0)
(-0.0223226 -0.00564879 0)
(-0.0208724 -0.00581317 0)
(-0.0193822 -0.00593701 0)
(-0.0178615 -0.0060186 0)
(-0.0163205 -0.00605681 0)
(-0.0147696 -0.00605117 0)
(-0.0132194 -0.00600187 0)
(-0.0116805 -0.00590979 0)
(-0.0101635 -0.00577644 0)
(-0.00867839 -0.00560397 0)
(-0.00723493 -0.00539513 0)
(-0.00584218 -0.00515313 0)
(-0.00450842 -0.00488165 0)
(-0.00324111 -0.00458466 0)
(-0.00204672 -0.0042664 0)
(-0.000930696 -0.00393121 0)
(0.000102563 -0.00358349 0)
(0.00104975 -0.00322751 0)
(0.0019086 -0.00286743 0)
(0.00267791 -0.0025071 0)
(0.0033574 -0.00215007 0)
(0.00394769 -0.00179952 0)
(0.0044502 -0.00145819 0)
(0.00486703 -0.00112837 0)
(0.00520084 -0.000811921 0)
(0.0054548 -0.000510252 0)
(0.00563239 -0.000224364 0)
(0.00573739 4.51126e-05 0)
(0.00577373 0.000297859 0)
(0.00574546 0.0005338 0)
(0.00565668 0.000753017 0)
(0.0055115 0.000955653 0)
(0.00531407 0.0011418 0)
(0.00506855 0.00131137 0)
(0.00477922 0.00146399 0)
(0.00445053 0.00159877 0)
(0.00408722 0.00171423 0)
(0.00369447 0.00180805 0)
(0.00327804 0.00187696 0)
(0.00284451 0.0019165 0)
(0.00240147 0.00192096 0)
(0.00195776 0.00188332 0)
(0.00152374 0.00179533 0)
(0.00111165 0.00164777 0)
(0.000736023 0.00143102 0)
(0.000411887 0.00113589 0)
(0.000169322 0.000754566 0)
(1.94397e-05 0.000283093 0)
(-1.62902e-05 0.000124971 0)
(-0.000158563 0.000475687 0)
(-0.000416969 0.000875839 0)
(-0.000789717 0.00127823 0)
(-0.00125446 0.00165449 0)
(-0.00179885 0.00198817 0)
(-0.00240933 0.00227221 0)
(-0.00307377 0.00250626 0)
(-0.00378169 0.00269433 0)
(-0.0045244 0.00284289 0)
(-0.00529487 0.00295948 0)
(-0.00608768 0.00305167 0)
(-0.00689878 0.00312642 0)
(-0.0077253 0.00318968 0)
(-0.00856529 0.00324626 0)
(-0.00941752 0.00329981 0)
(-0.0102813 0.00335291 0)
(-0.0111561 0.0034072 0)
(-0.0120417 0.00346354 0)
(-0.0129381 0.0035222 0)
(-0.0138449 0.00358294 0)
(-0.0147617 0.00364521 0)
(-0.0156882 0.0037082 0)
(-0.0166236 0.00377093 0)
(-0.0175669 0.00383234 0)
(-0.018517 0.00389131 0)
(-0.0194726 0.00394671 0)
(-0.0204321 0.00399742 0)
(-0.0213937 0.00404235 0)
(-0.0223554 0.00408046 0)
(-0.0233152 0.00411075 0)
(-0.0242707 0.0041323 0)
(-0.0252198 0.00414423 0)
(-0.0261598 0.00414571 0)
(-0.0270884 0.00413599 0)
(-0.0280031 0.00411433 0)
(-0.0289013 0.00408002 0)
(-0.0297805 0.00403238 0)
(-0.0306381 0.00397074 0)
(-0.0314716 0.0038944 0)
(-0.0322784 0.00380267 0)
(-0.0330559 0.0036948 0)
(-0.0338014 0.00357005 0)
(-0.0345121 0.00342763 0)
(-0.0351852 0.00326674 0)
(-0.0358178 0.00308658 0)
(-0.0364068 0.00288635 0)
(-0.0369488 0.00266532 0)
(-0.0374406 0.00242279 0)
(-0.0378786 0.0021582 0)
(-0.038259 0.00187112 0)
(-0.038578 0.00156131 0)
(-0.0388317 0.00122876 0)
(-0.0390161 0.000873716 0)
(-0.0391271 0.000496754 0)
(-0.0391608 9.87811e-05 0)
(-0.039113 -0.000318914 0)
(-0.0389802 -0.000754639 0)
(-0.0387586 -0.00120628 0)
(-0.0384451 -0.0016713 0)
(-0.0380367 -0.00214672 0)
(-0.0375312 -0.00262914 0)
(-0.0369267 -0.00311479 0)
(-0.0362222 -0.00359949 0)
(-0.0354172 -0.00407878 0)
(-0.0345123 -0.00454793 0)
(-0.0335088 -0.00500202 0)
(-0.0324093 -0.00543601 0)
(-0.031217 -0.00584485 0)
(-0.0299366 -0.00622356 0)
(-0.0285735 -0.00656736 0)
(-0.0271345 -0.00687173 0)
(-0.0256273 -0.00713256 0)
(-0.0240604 -0.00734623 0)
(-0.0224436 -0.0075097 0)
(-0.0207871 -0.00762064 0)
(-0.019102 -0.00767743 0)
(-0.0173999 -0.00767928 0)
(-0.0156924 -0.00762623 0)
(-0.0139918 -0.00751916 0)
(-0.0123098 -0.0073598 0)
(-0.0106581 -0.00715069 0)
(-0.00904802 -0.00689511 0)
(-0.00749003 -0.00659699 0)
(-0.0059939 -0.00626084 0)
(-0.00456845 -0.00589162 0)
(-0.00322138 -0.00549462 0)
(-0.00195925 -0.00507531 0)
(-0.000787371 -0.0046392 0)
(0.000290178 -0.00419177 0)
(0.00127058 -0.00373826 0)
(0.0021522 -0.00328363 0)
(0.00293457 -0.00283243 0)
(0.00361823 -0.00238873 0)
(0.00420468 -0.00195608 0)
(0.00469623 -0.00153745 0)
(0.00509585 -0.00113528 0)
(0.00540707 -0.000751417 0)
(0.00563385 -0.000387192 0)
(0.00578044 -4.34681e-05 0)
(0.00585128 0.000279291 0)
(0.00585094 0.000580932 0)
(0.00578402 0.000861508 0)
(0.00565512 0.00112115 0)
(0.00546887 0.00135993 0)
(0.00522988 0.00157772 0)
(0.00494285 0.00177399 0)
(0.00461262 0.00194767 0)
(0.0042443 0.00209691 0)
(0.00384342 0.00221889 0)
(0.00341611 0.00230961 0)
(0.00296927 0.00236374 0)
(0.00251087 0.00237442 0)
(0.00205014 0.0023332 0)
(0.00159796 0.0022301 0)
(0.00116725 0.00205375 0)
(0.000773506 0.0017918 0)
(0.000432942 0.00143137 0)
(0.000177816 0.000959641 0)
(2.0363e-05 0.000365182 0)
(-2.02785e-05 0.000204669 0)
(-0.000193918 0.000698595 0)
(-0.000503595 0.00122447 0)
(-0.000944785 0.00173501 0)
(-0.00148853 0.00220253 0)
(-0.00211935 0.00261188 0)
(-0.00282109 0.00295768 0)
(-0.00357981 0.00324148 0)
(-0.0043839 0.00346926 0)
(-0.00522396 0.00364942 0)
(-0.00609256 0.00379126 0)
(-0.00698408 0.00390391 0)
(-0.00789435 0.00399565 0)
(-0.00882043 0.00407348 0)
(-0.00976031 0.00414303 0)
(-0.0107127 0.00420853 0)
(-0.0116766 0.00427296 0)
(-0.0126516 0.00433818 0)
(-0.0136372 0.00440515 0)
(-0.014633 0.0044741 0)
(-0.0156385 0.00454473 0)
(-0.016653 0.00461632 0)
(-0.0176757 0.00468786 0)
(-0.0187055 0.00475817 0)
(-0.0197414 0.00482596 0)
(-0.0207816 0.00488988 0)
(-0.0218246 0.0049486 0)
(-0.0228684 0.00500079 0)
(-0.0239111 0.00504518 0)
(-0.0249503 0.0050806 0)
(-0.0259838 0.00510592 0)
(-0.0270091 0.00512012 0)
(-0.0280239 0.00512228 0)
(-0.0290257 0.00511155 0)
(-0.0300121 0.00508713 0)
(-0.0309808 0.00504832 0)
(-0.0319294 0.00499444 0)
(-0.0328557 0.00492481 0)
(-0.0337576 0.0048388 0)
(-0.0346328 0.00473571 0)
(-0.0354793 0.00461483 0)
(-0.036295 0.00447542 0)
(-0.0370777 0.00431664 0)
(-0.0378253 0.00413765 0)
(-0.0385353 0.00393752 0)
(-0.0392055 0.0037153 0)
(-0.039833 0.00347005 0)
(-0.0404151 0.00320083 0)
(-0.0409486 0.00290677 0)
(-0.0414303 0.00258709 0)
(-0.0418565 0.00224118 0)
(-0.0422234 0.00186863 0)
(-0.0425268 0.00146926 0)
(-0.0427626 0.00104321 0)
(-0.0429261 0.000590989 0)
(-0.0430129 0.000113487 0)
(-0.0430183 -0.000387951 0)
(-0.0429377 -0.000911504 0)
(-0.0427665 -0.00145485 0)
(-0.0425003 -0.00201513 0)
(-0.0421353 -0.00258897 0)
(-0.0416677 -0.00317248 0)
(-0.0410944 -0.00376125 0)
(-0.040413 -0.00435042 0)
(-0.0396219 -0.0049347 0)
(-0.0387202 -0.00550844 0)
(-0.0377082 -0.00606572 0)
(-0.0365871 -0.00660044 0)
(-0.0353595 -0.00710642 0)
(-0.0340291 -0.00757751 0)
(-0.032601 -0.00800773 0)
(-0.0310815 -0.00839139 0)
(-0.0294783 -0.00872323 0)
(-0.0278004 -0.00899856 0)
(-0.026058 -0.00921338 0)
(-0.0242621 -0.00936448 0)
(-0.0224249 -0.00944955 0)
(-0.0205594 -0.00946727 0)
(-0.018679 -0.00941736 0)
(-0.0167975 -0.00930059 0)
(-0.0149286 -0.00911879 0)
(-0.0130862 -0.00887482 0)
(-0.0112835 -0.0085725 0)
(-0.00953309 -0.00821654 0)
(-0.00784679 -0.00781235 0)
(-0.00623527 -0.007366 0)
(-0.00470797 -0.00688397 0)
(-0.00327299 -0.00637303 0)
(-0.00193694 -0.00584007 0)
(-0.000704965 -0.00529191 0)
(0.000419301 -0.00473515 0)
(0.00143368 -0.00417603 0)
(0.00233738 -0.00362029 0)
(0.00313087 -0.00307311 0)
(0.00381576 -0.00253899 0)
(0.00439467 -0.00202173 0)
(0.00487102 -0.00152443 0)
(0.00524891 -0.00104947 0)
(0.00553292 -0.000598565 0)
(0.00572802 -0.000172853 0)
(0.00583936 0.000227051 0)
(0.00587224 0.000600922 0)
(0.00583195 0.0009488 0)
(0.00572378 0.00127084 0)
(0.00555297 0.00156712 0)
(0.00532471 0.00183751 0)
(0.00504421 0.0020814 0)
(0.0047168 0.00229752 0)
(0.00434799 0.00248371 0)
(0.00394369 0.00263666 0)
(0.00351036 0.00275171 0)
(0.00305526 0.00282259 0)