/*--------------------------------*- C++ -*----------------------------------*\
| =========                 |                                                 |
| \\      /  F ield         | OpenFOAM: The Open Source CFD Toolbox           |
|  \\    /   O peration     | Version:  2406                                  |
|   \\  /    A nd           | Website:  www.openfoam.com                      |
|    \\/     M anipulation  |                                                 |
\*---------------------------------------------------------------------------*/
FoamFile
{
    version     2.0;
    format      ascii;
    arch        "LSB;label=32;scalar=64";
    class       surfaceScalarField;
    location    "16.5";
    object      phi;
}
// * * * * * * * * * * * * * * * * * * * * * * * * * * * * * * * * * * * * * //

dimensions      [0 3 -1 0 0 0 0];

oriented        oriented;

internalField   nonuniform List<scalar> 
28560
(
7.82968e-09
-7.83335e-09
2.20953e-08
-1.45388e-08
3.56465e-08
-1.35055e-08
4.33468e-08
-7.79739e-09
4.3953e-08
-5.22496e-10
3.70227e-08
7.03347e-09
2.34444e-08
1.37846e-08
4.10047e-09
1.96094e-08
-1.98838e-08
2.4308e-08
-4.76173e-08
2.81128e-08
-7.8326e-08
3.11219e-08
-1.11482e-07
3.36131e-08
-1.46742e-07
3.57401e-08
-1.83945e-07
3.7718e-08
-2.23072e-07
3.9664e-08
-2.64209e-07
4.17078e-08
-3.07525e-07
4.39108e-08
-3.53227e-07
4.63324e-08
-4.01555e-07
4.89903e-08
-4.52755e-07
5.19007e-08
-5.07074e-07
5.50582e-08
-5.64752e-07
5.84596e-08
-6.26019e-07
6.20933e-08
-6.91096e-07
6.59521e-08
-7.60198e-07
7.00269e-08
-8.33533e-07
7.43131e-08
-9.11306e-07
7.88063e-08
-9.9372e-07
8.35044e-08
-1.08097e-06
8.8405e-08
-1.17327e-06
9.35053e-08
-1.27079e-06
9.88e-08
-1.37372e-06
1.04281e-07
-1.48225e-06
1.09933e-07
-1.5965e-06
1.15739e-07
-1.71662e-06
1.2167e-07
-1.84269e-06
1.2769e-07
-1.97475e-06
1.33754e-07
-2.11279e-06
1.39803e-07
-2.25672e-06
1.45769e-07
-2.4064e-06
1.51568e-07
-2.56154e-06
1.57102e-07
-2.72178e-06
1.62259e-07
-2.88663e-06
1.66911e-07
-3.05545e-06
1.70915e-07
-3.22743e-06
1.74114e-07
-3.40162e-06
1.76337e-07
-3.57688e-06
1.77401e-07
-3.75186e-06
1.77115e-07
-3.92505e-06
1.75279e-07
-4.09471e-06
1.71696e-07
-4.25892e-06
1.66168e-07
-4.41558e-06
1.58508e-07
-4.56241e-06
1.48545e-07
-4.69699e-06
1.36129e-07
-4.81677e-06
1.21142e-07
-4.91914e-06
1.03502e-07
-5.00143e-06
8.31747e-08
-5.06101e-06
6.01781e-08
-5.09531e-06
3.45901e-08
-5.10191e-06
6.55497e-09
-5.0786e-06
-2.37132e-08
-5.02346e-06
-5.59274e-08
-4.93491e-06
-8.97276e-08
-4.81181e-06
-1.24682e-07
-4.65351e-06
-1.60294e-07
-4.4599e-06
-1.96007e-07
-4.23149e-06
-2.31217e-07
-3.96939e-06
-2.65284e-07
-3.67538e-06
-2.97551e-07
-3.35191e-06
-3.2736e-07
-3.00201e-06
-3.54073e-07
-2.62935e-06
-3.77092e-07
-2.23812e-06
-3.95879e-07
-1.83294e-06
-4.09981e-07
-1.41881e-06
-4.1904e-07
-1.00094e-06
-4.22816e-07
-5.84683e-07
-4.21194e-07
-1.75354e-07
-4.14193e-07
2.21878e-07
-4.01968e-07
6.02128e-07
-3.84803e-07
9.60918e-07
-3.63109e-07
1.29428e-06
-3.37402e-07
1.59885e-06
-3.0829e-07
1.87193e-06
-2.7645e-07
2.11153e-06
-2.42598e-07
2.31639e-06
-2.07472e-07
2.48599e-06
-1.71799e-07
2.62046e-06
-1.36277e-07
2.72061e-06
-1.01546e-07
2.78777e-06
-6.81797e-08
2.82379e-06
-3.6665e-08
2.83089e-06
-7.39691e-09
2.81158e-06
1.93274e-08
2.76859e-06
4.33064e-08
2.70473e-06
6.44327e-08
2.62285e-06
8.26822e-08
2.52575e-06
9.81095e-08
2.41609e-06
1.1083e-07
2.2964e-06
1.21015e-07
2.16895e-06
1.28873e-07
2.03582e-06
1.34648e-07
1.89881e-06
1.38587e-07
1.75947e-06
1.40965e-07
1.61909e-06
1.42026e-07
1.47873e-06
1.4204e-07
1.33919e-06
1.41201e-07
1.20113e-06
1.39745e-07
1.06499e-06
1.3776e-07
9.31246e-07
1.35415e-07
8.00183e-07
1.32599e-07
6.72436e-07
1.29381e-07
5.48543e-07
1.25286e-07
4.29871e-07
1.20243e-07
3.17896e-07
1.13121e-07
2.15611e-07
1.03736e-07
1.265e-07
8.98459e-08
5.59944e-08
7.17275e-08
1.00318e-08
4.61441e-08
-7.55293e-09
1.84939e-08
-7.56071e-09
1.48538e-08
-2.24115e-08
3.5834e-08
-3.55073e-08
5.11909e-08
-2.85849e-08
5.23684e-08
-8.9898e-09
3.66893e-08
1.51148e-08
3.11468e-09
4.0372e-08
-4.7007e-08
6.35498e-08
-1.11918e-07
8.40351e-08
-1.89345e-07
1.01133e-07
-2.77273e-07
1.15357e-07
-3.73934e-07
1.27009e-07
-4.78014e-07
1.36865e-07
-5.88621e-07
1.45451e-07
-7.05265e-07
1.53422e-07
-8.27804e-07
1.61204e-07
-9.56354e-07
1.69213e-07
-1.09124e-06
1.77692e-07
-1.23291e-06
1.86844e-07
-1.38191e-06
1.9676e-07
-1.5388e-06
2.07501e-07
-1.70418e-06
2.19073e-07
-1.87864e-06
2.31469e-07
-2.06274e-06
2.44663e-07
-2.25703e-06
2.58633e-07
-2.46207e-06
2.73353e-07
-2.67837e-06
2.88805e-07
-2.90646e-06
3.04973e-07
-3.14682e-06
3.21845e-07
-3.39995e-06
3.39406e-07
-3.66633e-06
3.57636e-07
-3.94641e-06
3.76506e-07
-4.24059e-06
3.95972e-07
-4.54925e-06
4.15972e-07
-4.87268e-06
4.36417e-07
-5.21108e-06
4.57191e-07
-5.56455e-06
4.78147e-07
-5.93303e-06
4.99096e-07
-6.31632e-06
5.1981e-07
-6.71397e-06
5.40018e-07
-7.12533e-06
5.59399e-07
-7.54945e-06
5.77584e-07
-7.98509e-06
5.94154e-07
-8.43065e-06
6.08639e-07
-8.88417e-06
6.20521e-07
-9.34325e-06
6.29238e-07
-9.8051e-06
6.34192e-07
-1.02664e-05
6.3475e-07
-1.07236e-05
6.30263e-07
-1.11722e-05
6.20075e-07
-1.16079e-05
6.03538e-07
-1.20254e-05
5.80032e-07
-1.24193e-05
5.48986e-07
-1.27839e-05
5.09896e-07
-1.3113e-05
4.62353e-07
-1.34004e-05
4.06061e-07
-1.36399e-05
3.40868e-07
-1.38252e-05
2.66779e-07
-1.39501e-05
1.83984e-07
-1.40089e-05
9.2871e-08
-1.39963e-05
-5.9585e-09
-1.39076e-05
-1.11684e-07
-1.37388e-05
-2.23263e-07
-1.34869e-05
-3.39433e-07
-1.31499e-05
-4.58729e-07
-1.2727e-05
-5.79496e-07
-1.22186e-05
-6.99922e-07
-1.16265e-05
-8.18069e-07
-1.09539e-05
-9.31917e-07
-1.02054e-05
-1.03941e-06
-9.38701e-06
-1.13852e-06
-8.506e-06
-1.22728e-06
-7.57095e-06
-1.30386e-06
-6.59152e-06
-1.36664e-06
-5.5783e-06
-1.41423e-06
-4.54264e-06
-1.44554e-06
-3.49638e-06
-1.45984e-06
-2.45162e-06
-1.45673e-06
-1.42047e-06
-1.43626e-06
-4.14761e-07
-1.39884e-06
5.54218e-07
-1.34529e-06
1.47596e-06
-1.2768e-06
2.34097e-06
-1.19489e-06
3.14099e-06
-1.10137e-06
3.86911e-06
-9.98292e-07
4.51993e-06
-8.87841e-07
5.0896e-06
-7.723e-07
5.57585e-06
-6.53962e-07
5.97797e-06
-5.35057e-07
6.29671e-06
-4.17687e-07
6.53417e-06
-3.03767e-07
6.69366e-06
-1.94977e-07
6.77953e-06
-9.27297e-08
6.79695e-06
1.85328e-09
6.7517e-06
8.7948e-08
6.65001e-06
1.65027e-07
6.49833e-06
2.32841e-07
6.30314e-06
2.91399e-07
6.07083e-06
3.40934e-07
5.80751e-06
3.81874e-07
5.51891e-06
4.14794e-07
5.21033e-06
4.40398e-07
4.8865e-06
4.59449e-07
4.55166e-06
4.72776e-07
4.20941e-06
4.81178e-07
3.86287e-06
4.85473e-07
3.51459e-06
4.86339e-07
3.1668e-06
4.84451e-07
2.82127e-06
4.8018e-07
2.47979e-06
4.73906e-07
2.14391e-06
4.65436e-07
1.81582e-06
4.54674e-07
1.49772e-06
4.40462e-07
1.19342e-06
4.22049e-07
9.07102e-07
3.96732e-07
6.45677e-07
3.63215e-07
4.16441e-07
3.16744e-07
2.29849e-07
2.57262e-07
9.4712e-08
1.79496e-07
1.86926e-08
9.4536e-08
1.02254e-08
1.38606e-08
-3.63422e-08
2.82934e-08
-5.02075e-08
2.98687e-08
-3.01895e-08
9.1815e-09
1.16276e-08
-3.68137e-08
6.11771e-08
-1.08988e-07
1.1272e-07
-2.05617e-07
1.60441e-07
-3.24243e-07
2.03047e-07
-4.6188e-07
2.39215e-07
-6.15739e-07
2.69759e-07
-7.83403e-07
2.95257e-07
-9.63003e-07
3.17118e-07
-1.15326e-06
3.36391e-07
-1.35342e-06
3.54322e-07
-1.56322e-06
3.7178e-07
-1.78278e-06
3.89588e-07
-2.01249e-06
4.08259e-07
-2.25294e-06
4.28209e-07
-2.50487e-06
4.49649e-07
-2.76908e-06
4.72716e-07
-3.04638e-06
4.97444e-07
-3.33761e-06
5.23834e-07
-3.6436e-06
5.5185e-07
-3.96516e-06
5.81454e-07
-4.30307e-06
6.12604e-07
-4.65811e-06
6.45267e-07
-5.03105e-06
6.79409e-07
-5.42262e-06
7.15003e-07
-5.83355e-06
7.52011e-07
-6.26453e-06
7.90383e-07
-6.71621e-06
8.30041e-07
-7.18916e-06
8.70877e-07
-7.68386e-06
9.12735e-07
-8.20069e-06
9.55405e-07
-8.73985e-06
9.98613e-07
-9.30135e-06
1.04201e-06
-9.88496e-06
1.08517e-06
-1.04901e-05
1.12758e-06
-1.11161e-05
1.16861e-06
-1.17615e-05
1.20757e-06
-1.24247e-05
1.24363e-06
-1.31035e-05
1.2759e-06
-1.37952e-05
1.30334e-06
-1.44964e-05
1.32488e-06
-1.52034e-05
1.33932e-06
-1.59115e-05
1.34542e-06
-1.66155e-05
1.3419e-06
-1.73096e-05
1.32743e-06
-1.79872e-05
1.30074e-06
-1.86412e-05
1.26055e-06
-1.92641e-05
1.20571e-06
-1.98475e-05
1.13515e-06
-2.03831e-05
1.048e-06
-2.08621e-05
9.4357e-07
-2.12755e-05
8.21454e-07
-2.16145e-05
6.81519e-07
-2.18704e-05
5.23971e-07
-2.2035e-05
3.49381e-07
-2.21004e-05
1.58706e-07
-2.20598e-05
-4.66872e-08
-2.19071e-05
-2.65022e-07
-2.16374e-05
-4.94111e-07
-2.12472e-05
-7.31378e-07
-2.07344e-05
-9.73881e-07
-2.00984e-05
-1.21836e-06
-1.93406e-05
-1.46129e-06
-1.84639e-05
-1.69893e-06
-1.7473e-05
-1.92744e-06
-1.63747e-05
-2.14293e-06
-1.51774e-05
-2.34157e-06
-1.38911e-05
-2.51968e-06
-1.25276e-05
-2.67386e-06
-1.11e-05
-2.80105e-06
-9.62264e-06
-2.89865e-06
-8.11076e-06
-2.9646e-06
-6.58037e-06
-2.99747e-06
-5.04784e-06
-2.99649e-06
-3.52961e-06
-2.96161e-06
-2.04188e-06
-2.8935e-06
-6.00242e-07
-2.79358e-06
7.80592e-07
-2.66394e-06
2.08712e-06
-2.50731e-06
3.3073e-06
-2.32699e-06
4.4308e-06
-2.12671e-06
5.44914e-06
-1.91055e-06
6.35585e-06
-1.68281e-06
7.14655e-06
-1.44786e-06
7.81889e-06
-1.21002e-06
8.37257e-06
-9.73402e-07
8.8092e-06
-7.41857e-07
9.13211e-06
-5.18819e-07
9.34622e-06
-3.07256e-07
9.45773e-06
-1.0961e-07
9.47392e-06
7.22329e-08
9.40286e-06
2.36952e-07
9.25313e-06
3.8377e-07
9.03358e-06
5.12431e-07
8.75311e-06
6.23139e-07
8.42042e-06
7.16512e-07
8.04382e-06
7.93493e-07
7.63115e-06
8.55306e-07
7.18957e-06
9.03342e-07
6.72562e-06
9.39136e-07
6.245e-06
9.64215e-07
5.75282e-06
9.80129e-07
5.25337e-06
9.88219e-07
4.75056e-06
9.89746e-07
4.24762e-06
9.85499e-07
3.74786e-06
9.7611e-07
3.25421e-06
9.6134e-07
2.77046e-06
9.40804e-07
2.30039e-06
9.1258e-07
1.84981e-06
8.74912e-07
1.42477e-06
8.23434e-07
1.03487e-06
7.55242e-07
6.89332e-07
6.63287e-07
4.02071e-07
5.46447e-07
1.83362e-07
3.98167e-07
4.76963e-08
2.3201e-07
5.77022e-08
7.42899e-09
-4.36922e-08
5.20012e-09
-4.78861e-08
-1.95115e-08
-5.43758e-09
-7.471e-08
6.68782e-08
-1.62965e-07
1.49341e-07
-2.84254e-07
2.33926e-07
-4.36398e-07
3.12356e-07
-6.16265e-07
3.82683e-07
-8.20407e-07
4.4301e-07
-1.04549e-06
4.94486e-07
-1.2887e-06
5.38035e-07
-1.5478e-06
5.75774e-07
-1.82126e-06
6.09354e-07
-2.10815e-06
6.40696e-07
-2.40812e-06
6.71192e-07
-2.72125e-06
7.02133e-07
-3.04797e-06
7.34363e-07
-3.38895e-06
7.68552e-07
-3.74505e-06
8.05065e-07
-4.1172e-06
8.44144e-07
-4.50639e-06
8.8587e-07
-4.91364e-06
9.3027e-07
-5.33995e-06
9.77308e-07
-5.78634e-06
1.02695e-06
-6.25382e-06
1.07913e-06
-6.74339e-06
1.13382e-06
-7.25602e-06
1.19097e-06
-7.79269e-06
1.25054e-06
-8.35434e-06
1.31247e-06
-8.94186e-06
1.37665e-06
-9.55608e-06
1.44294e-06
-1.01977e-05
1.51114e-06
-1.08674e-05
1.58096e-06
-1.15656e-05
1.652e-06
-1.22923e-05
1.72377e-06
-1.30476e-05
1.79562e-06
-1.3831e-05
1.8668e-06
-1.46416e-05
1.93637e-06
-1.54782e-05
2.00326e-06
-1.63388e-05
2.06622e-06
-1.7221e-05
2.12384e-06
-1.81217e-05
2.17455e-06
-1.90371e-05
2.21663e-06
-1.99627e-05
2.24823e-06
-2.08929e-05
2.26739e-06
-2.18218e-05
2.27206e-06
-2.27422e-05
2.26015e-06
-2.36466e-05
2.22957e-06
-2.45262e-05
2.17827e-06
-2.53721e-05
2.10433e-06
-2.61744e-05
2.00598e-06
-2.69228e-05
1.88169e-06
-2.76068e-05
1.73024e-06
-2.82155e-05
1.55074e-06
-2.87382e-05
1.34277e-06
-2.91642e-05
1.10637e-06
-2.94832e-05
8.42123e-07
-2.96856e-05
5.5117e-07
-2.97624e-05
2.35264e-07
-2.97057e-05
-1.03233e-07
-2.9509e-05
-4.61345e-07
-2.91667e-05
-8.35499e-07
-2.86753e-05
-1.22156e-06
-2.80326e-05
-1.61487e-06
-2.72386e-05
-2.01033e-06
-2.62949e-05
-2.40248e-06
-2.52053e-05
-2.7856e-06
-2.39757e-05
-3.15378e-06
-2.26138e-05
-3.50112e-06
-2.11296e-05
-3.82179e-06
-1.95347e-05
-4.11024e-06
-1.78428e-05
-4.36127e-06
-1.60689e-05
-4.57022e-06
-1.42295e-05
-4.7331e-06
-1.23424e-05
-4.8467e-06
-1.04261e-05
-4.90871e-06
-8.49974e-06
-4.91781e-06
-6.58267e-06
-4.87372e-06
-4.69409e-06
-4.77724e-06
-2.85276e-06
-4.63028e-06
-1.07653e-06
-4.43576e-06
6.17875e-07
-4.1976e-06
2.21527e-06
-3.92058e-06
3.70225e-06
-3.61023e-06
5.06742e-06
-3.27265e-06
6.30161e-06
-2.91433e-06
7.39799e-06
-2.54197e-06
8.35209e-06
-2.16226e-06
9.16185e-06
-1.78172e-06
9.82753e-06
-1.40647e-06
1.03515e-05
-1.04213e-06
1.07382e-05
-6.93655e-07
1.09938e-05
-3.65217e-07
1.1126e-05
-6.01836e-08
1.11434e-05
2.18946e-07
1.10558e-05
4.70524e-07
1.08735e-05
6.93725e-07
1.06069e-05
8.88482e-07
1.02667e-05
1.05541e-06
9.86303e-06
1.1957e-06
9.40577e-06
1.31101e-06
8.90414e-06
1.40334e-06
8.36665e-06
1.47495e-06
7.80098e-06
1.52816e-06
7.21409e-06
1.56531e-06
6.61205e-06
1.5885e-06
6.00046e-06
1.59965e-06
5.38413e-06
1.60007e-06
4.76794e-06
1.59068e-06
4.15628e-06
1.57125e-06
3.55451e-06
1.5411e-06
2.96779e-06
1.49758e-06
2.40362e-06
1.43787e-06
1.8693e-06
1.35606e-06
1.37629e-06
1.2475e-06
9.34716e-07
1.10314e-06
5.61158e-07
9.20048e-07
2.67295e-07
6.90071e-07
7.54871e-08
4.2497e-07
1.31939e-07
-2.10071e-09
-4.17524e-08
-2.75281e-08
-2.23108e-08
-8.71539e-08
5.39845e-08
-1.86222e-07
1.66083e-07
-3.26206e-07
2.89251e-07
-5.05522e-07
4.13421e-07
-7.21285e-07
5.28186e-07
-9.69485e-07
6.31123e-07
-1.24623e-06
7.19944e-07
-1.5477e-06
7.96249e-07
-1.87081e-06
8.61422e-07
-2.21306e-06
9.18368e-07
-2.57279e-06
9.69424e-07
-2.94896e-06
1.01724e-06
-3.34117e-06
1.06379e-06
-3.74949e-06
1.11088e-06
-4.17439e-06
1.15971e-06
-4.6166e-06
1.21123e-06
-5.07704e-06
1.266e-06
-5.55675e-06
1.32438e-06
-6.05685e-06
1.38652e-06
-6.57849e-06
1.45249e-06
-7.12286e-06
1.52229e-06
-7.69115e-06
1.59589e-06
-8.28459e-06
1.67326e-06
-8.90439e-06
1.75435e-06
-9.55179e-06
1.83914e-06
-1.0228e-05
1.92757e-06
-1.09342e-05
2.01955e-06
-1.16716e-05
2.11492e-06
-1.24412e-05
2.21348e-06
-1.32439e-05
2.31486e-06
-1.40805e-05
2.41861e-06
-1.49515e-05
2.5241e-06
-1.58571e-05
2.63052e-06
-1.67971e-05
2.73687e-06
-1.7771e-05
2.84193e-06
-1.87776e-05
2.94424e-06
-1.98151e-05
3.04213e-06
-2.08811e-05
3.13367e-06
-2.19725e-05
3.2167e-06
-2.30853e-05
3.28885e-06
-2.42147e-05
3.34753e-06
-2.53549e-05
3.38999e-06
-2.64993e-05
3.41332e-06
-2.76402e-05
3.41455e-06
-2.87691e-05
3.39069e-06
-2.98768e-05
3.33875e-06
-3.09529e-05
3.2559e-06
-3.19865e-05
3.13949e-06
-3.29663e-05
2.98715e-06
-3.38802e-05
2.79689e-06
-3.47159e-05
2.56721e-06
-3.54612e-05
2.29711e-06
-3.61037e-05
1.98624e-06
-3.66315e-05
1.63494e-06
-3.70331e-05
1.24429e-06
-3.72977e-05
8.16155e-07
-3.74155e-05
3.53228e-07
-3.73778e-05
-1.4099e-07
-3.71774e-05
-6.62181e-07
-3.68083e-05
-1.20525e-06
-3.62664e-05
-1.76436e-06
-3.55494e-05
-2.33303e-06
-3.46571e-05
-2.90419e-06
-3.35911e-05
-3.47031e-06
-3.23553e-05
-4.02352e-06
-3.09556e-05
-4.55576e-06
-2.94004e-05
-5.05894e-06
-2.77e-05
-5.52507e-06
-2.58668e-05
-5.94649e-06
-2.39153e-05
-6.31605e-06
-2.18617e-05
-6.62725e-06
-1.97238e-05
-6.87445e-06
-1.7521e-05
-7.05306e-06
-1.52737e-05
-7.15963e-06
-1.30031e-05
-7.19202e-06
-1.07308e-05
-7.14951e-06
-8.47869e-06
-7.0328e-06
-6.2682e-06
-6.84407e-06
-4.12015e-06
-6.58694e-06
-2.05428e-06
-6.2664e-06
-8.88955e-08
-5.88868e-06
1.75949e-06
-5.46108e-06
3.47644e-06
-4.99179e-06
5.04983e-06
-4.48963e-06
6.47004e-06
-3.96381e-06
7.7301e-06
-3.42366e-06
8.82571e-06
-2.87837e-06
9.75519e-06
-2.33673e-06
1.05194e-05
-1.80689e-06
1.11217e-05
-1.2962e-06
1.15675e-05
-8.10993e-07
1.1864e-05
-3.56528e-07
1.20203e-05
6.31149e-08
1.20463e-05
4.4504e-07
1.19532e-05
7.87516e-07
1.17527e-05
1.08991e-06
1.14564e-05
1.35258e-06
1.10764e-05
1.57678e-06
1.0624e-05
1.76447e-06
1.01103e-05
1.91818e-06
9.54566e-06
2.04084e-06
8.93948e-06
2.13554e-06
8.30056e-06
2.20548e-06
7.63671e-06
2.25356e-06
6.9552e-06
2.28244e-06
6.26244e-06
2.294e-06
5.56487e-06
2.28953e-06
4.8683e-06
2.2689e-06
4.17952e-06
2.23117e-06
3.50493e-06
2.17306e-06
2.85342e-06
2.0907e-06
2.23326e-06
1.97678e-06
1.65746e-06
1.82473e-06
1.13704e-06
1.62353e-06
6.91372e-07
1.36746e-06
3.34378e-07
1.04594e-06
9.6341e-08
6.65448e-07
2.27471e-07
-1.36487e-08
-2.83118e-08
-6.72551e-08
3.17689e-08
-1.68675e-07
1.55067e-07
-3.19251e-07
3.16924e-07
-5.18783e-07
4.88548e-07
-7.63556e-07
6.58283e-07
-1.04975e-06
8.14162e-07
-1.37227e-06
9.53601e-07
-1.72679e-06
1.07424e-06
-2.10899e-06
1.17831e-06
-2.51563e-06
1.26781e-06
-2.94398e-06
1.34652e-06
-3.39237e-06
1.41754e-06
-3.85966e-06
1.48428e-06
-4.3455e-06
1.54933e-06
-4.84993e-06
1.61502e-06
-5.37348e-06
1.68293e-06
-5.91691e-06
1.75432e-06
-6.48121e-06
1.82994e-06
-7.0675e-06
1.9103e-06
-7.67702e-06
1.99564e-06
-8.31107e-06
2.08612e-06
-8.97099e-06
2.18177e-06
-9.65822e-06
2.28265e-06
-1.03742e-05
2.38874e-06
-1.11204e-05
2.50007e-06
-1.18985e-05
2.61662e-06
-1.27099e-05
2.73836e-06
-1.35561e-05
2.86518e-06
-1.44387e-05
2.99687e-06
-1.5359e-05
3.13311e-06
-1.63183e-05
3.27342e-06
-1.73175e-05
3.41708e-06
-1.83574e-05
3.56319e-06
-1.94383e-05
3.71055e-06
-2.056e-05
3.8577e-06
-2.17218e-05
4.00286e-06
-2.29224e-05
4.14395e-06
-2.41598e-05
4.27854e-06
-2.54311e-05
4.40391e-06
-2.67324e-05
4.51701e-06
-2.80591e-05
4.6145e-06
-2.94055e-05
4.69281e-06
-3.07648e-05
4.74813e-06
-3.21291e-05
4.77653e-06
-3.34896e-05
4.77399e-06
-3.48366e-05
4.73652e-06
-3.61592e-05
4.66021e-06
-3.74457e-05
4.54138e-06
-3.86839e-05
4.37663e-06
-3.98608e-05
4.16303e-06
-4.0963e-05
3.89815e-06
-4.19769e-05
3.5802e-06
-4.28887e-05
3.20816e-06
-4.36849e-05
2.78181e-06
-4.43523e-05
2.30183e-06
-4.48783e-05
1.76987e-06
-4.5251e-05
1.18857e-06
-4.54594e-05
5.61581e-07
-4.54939e-05
-1.06401e-07
-4.53461e-05
-8.09695e-07
-4.50092e-05
-1.54166e-06
-4.44782e-05
-2.29474e-06
-4.37497e-05
-3.06058e-06
-4.28227e-05
-3.83012e-06
-4.1698e-05
-4.5937e-06
-4.03788e-05
-5.34123e-06
-3.88705e-05
-6.06237e-06
-3.71809e-05
-6.74669e-06
-3.53201e-05
-7.38387e-06
-3.33004e-05
-7.96395e-06
-3.11367e-05
-8.47753e-06
-2.88455e-05
-8.91599e-06
-2.64458e-05
-9.27175e-06
-2.39578e-05
-9.53845e-06
-2.14037e-05
-9.71119e-06
-1.88066e-05
-9.78665e-06
-1.61903e-05
-9.76328e-06
-1.35794e-05
-9.64136e-06
-1.0998e-05
-9.42307e-06
-8.47028e-06
-9.11247e-06
-6.01919e-06
-8.71542e-06
-3.66651e-06
-8.23945e-06
-1.43227e-06
-7.69358e-06
6.65595e-07
-7.0881e-06
2.61155e-06
-6.43423e-06
4.39275e-06
-5.74385e-06
5.9992e-06
-5.02915e-06
7.42386e-06
-4.30228e-06
8.66269e-06
-3.575e-06
9.71456e-06
-2.8584e-06
1.05812e-05
-2.16261e-06
1.12668e-05
-1.49655e-06
1.17779e-05
-8.67803e-07
1.21232e-05
-2.82437e-07
1.23128e-05
2.54996e-07
1.23584e-05
7.41488e-07
1.22722e-05
1.1755e-06
1.20672e-05
1.55686e-06
1.17567e-05
1.88662e-06
1.13535e-05
2.16687e-06
1.08704e-05
2.4005e-06
1.03193e-05
2.59104e-06
9.71164e-06
2.74233e-06
9.05788e-06
2.85838e-06
8.3676e-06
2.94293e-06
7.64978e-06
2.99942e-06
6.91246e-06
3.03039e-06
6.16365e-06
3.03757e-06
5.41056e-06
3.02104e-06
4.66141e-06
2.97967e-06
3.92372e-06
2.90974e-06
3.20767e-06
2.80634e-06
2.5224e-06
2.66091e-06
1.88234e-06
2.46482e-06
1.29946e-06
2.20495e-06
7.95853e-07
1.87192e-06
3.87943e-07
1.45162e-06
1.12773e-07
9.42728e-07
3.38719e-07
-2.64081e-08
-2.31103e-09
-1.11507e-07
1.17568e-07
-2.59576e-07
3.02557e-07
-4.67339e-07
5.25109e-07
-7.32466e-07
7.53392e-07
-1.04865e-06
9.74739e-07
-1.41087e-06
1.17628e-06
-1.81275e-06
1.3557e-06
-2.24944e-06
1.51095e-06
-2.71607e-06
1.64514e-06
-3.20925e-06
1.76109e-06
-3.7261e-06
1.86357e-06
-4.26492e-06
1.95652e-06
-4.8246e-06
2.04416e-06
-5.40479e-06
2.12972e-06
-6.00559e-06
2.21605e-06
-6.62758e-06
2.30514e-06
-7.27155e-06
2.39855e-06
-7.9386e-06
2.49724e-06
-8.62993e-06
2.6019e-06
-9.34693e-06
2.71292e-06
-1.00911e-05
2.83055e-06
-1.08639e-05
2.95495e-06
-1.16672e-05
3.08625e-06
-1.25026e-05
3.22456e-06
-1.33722e-05
3.36999e-06
-1.42778e-05
3.52259e-06
-1.52213e-05
3.68237e-06
-1.6205e-05
3.84924e-06
-1.72306e-05
4.02294e-06
-1.83e-05
4.20304e-06
-1.94149e-05
4.38886e-06
-2.05767e-05
4.57944e-06
-2.17865e-05
4.77351e-06
-2.30448e-05
4.96942e-06
-2.43516e-05
5.16515e-06
-2.57063e-05
5.35825e-06
-2.71076e-05
5.54589e-06
-2.85531e-05
5.72478e-06
-3.00397e-05
5.89124e-06
-3.15632e-05
6.0412e-06
-3.31182e-05
6.17023e-06
-3.46982e-05
6.27362e-06
-3.62957e-05
6.3464e-06
-3.79018e-05
6.38349e-06
-3.95068e-05
6.37973e-06
-4.10995e-05
6.33003e-06
-4.2668e-05
6.2295e-06
-4.41994e-05
6.07354e-06
-4.568e-05
5.858e-06
-4.70956e-05
5.57931e-06
-4.84314e-05
5.2346e-06
-4.96724e-05
4.8218e-06
-5.08035e-05
4.33981e-06
-5.18098e-05
3.78853e-06
-5.26766e-05
3.16896e-06
-5.33897e-05
2.48326e-06
-5.39358e-05
1.73481e-06
-5.43024e-05
9.28201e-07
-5.44781e-05
6.92389e-08
-5.44529e-05
-8.35066e-07
-5.42184e-05
-1.77656e-06
-5.37676e-05
-2.74599e-06
-5.30958e-05
-3.73313e-06
-5.21998e-05
-4.72686e-06
-5.10791e-05
-5.71535e-06
-4.97352e-05
-6.68618e-06
-4.81723e-05
-7.62653e-06
-4.63969e-05
-8.52344e-06
-4.44182e-05
-9.36399e-06
-4.22481e-05
-1.01356e-05
-3.9901e-05
-1.08263e-05
-3.73939e-05
-1.14248e-05
-3.47461e-05
-1.19213e-05
-3.19792e-05
-1.23071e-05
-2.91167e-05
-1.25755e-05
-2.61839e-05
-1.27213e-05
-2.32072e-05
-1.27418e-05
-2.02139e-05
-1.26364e-05
-1.72318e-05
-1.24068e-05
-1.42885e-05
-1.20573e-05
-1.14111e-05
-1.15943e-05
-8.62537e-06
-1.10265e-05
-5.95568e-06
-1.03645e-05
-3.42416e-06
-9.62073e-06
-1.05044e-06
-8.80892e-06
1.14869e-06
-7.94381e-06
3.15958e-06
-7.04073e-06
4.97188e-06
-6.11513e-06
6.57865e-06
-5.18218e-06
7.97631e-06
-4.25633e-06
9.16452e-06
-3.35098e-06
1.01461e-05
-2.47813e-06
1.09265e-05
-1.64817e-06
1.15139e-05
-8.6965e-07
1.19184e-05
-1.49219e-07
1.21518e-05
5.08419e-07
1.22273e-05
1.10045e-06
1.21587e-05
1.62585e-06
1.19607e-05
2.08519e-06
1.16476e-05
2.48048e-06
1.12339e-05
2.81483e-06
1.07333e-05
3.09225e-06
1.01589e-05
3.31727e-06
9.52325e-06
3.49469e-06
8.83763e-06
3.62914e-06
8.11284e-06
3.72487e-06
7.3586e-06
3.78519e-06
6.58452e-06
3.81235e-06
5.79926e-06
3.80676e-06
5.01245e-06
3.76724e-06
4.23275e-06
3.68974e-06
3.47161e-06
3.56837e-06
2.7391e-06
3.39339e-06
2.05113e-06
3.15394e-06
1.42085e-06
2.83459e-06
8.73006e-07
2.42153e-06
4.26574e-07
1.89624e-06
1.24012e-07
1.24817e-06
4.61481e-07
-4.0122e-08
3.72706e-08
-1.59334e-07
2.3781e-07
-3.57897e-07
5.00318e-07
-6.27356e-07
7.95143e-07
-9.62873e-07
1.08846e-06
-1.35517e-06
1.36731e-06
-1.79782e-06
1.61866e-06
-2.28299e-06
1.84097e-06
-2.80523e-06
2.03299e-06
-3.35909e-06
2.19899e-06
-3.94103e-06
2.34287e-06
-4.54804e-06
2.4705e-06
-5.17844e-06
2.58676e-06
-5.83113e-06
2.69673e-06
-6.50585e-06
2.80427e-06
-7.20274e-06
2.91279e-06
-7.92245e-06
3.02468e-06
-8.66588e-06
3.14181e-06
-9.43422e-06
3.26539e-06
-1.02288e-05
3.39631e-06
-1.10512e-05
3.53514e-06
-1.19032e-05
3.68232e-06
-1.27867e-05
3.83816e-06
-1.37037e-05
4.00299e-06
-1.46564e-05
4.17707e-06
-1.56474e-05
4.36067e-06
-1.6679e-05
4.55397e-06
-1.7754e-05
4.75708e-06
-1.8875e-05
4.96992e-06
-2.00447e-05
5.19221e-06
-2.12654e-05
5.42342e-06
-2.25396e-05
5.66265e-06
-2.38691e-05
5.90863e-06
-2.52557e-05
6.15967e-06
-2.67003e-05
6.41358e-06
-2.82033e-05
6.66768e-06
-2.97643e-05
6.91877e-06
-3.1382e-05
7.16311e-06
-3.30541e-05
7.39643e-06
-3.47773e-05
7.61396e-06
-3.65471e-05
7.81046e-06
-3.83577e-05
7.98027e-06
-4.0202e-05
8.1174e-06
-4.20718e-05
8.21561e-06
-4.39574e-05
8.26851e-06
-4.58479e-05
8.2697e-06
-4.77314e-05
8.21292e-06
-4.95946e-05
8.09217e-06
-5.14235e-05
7.90186e-06
-5.3203e-05
7.63698e-06
-5.49174e-05
7.29326e-06
-5.65506e-05
6.86728e-06
-5.80858e-05
6.35662e-06
-5.95063e-05
5.75999e-06
-6.07954e-05
5.07729e-06
-6.19365e-05
4.30974e-06
-6.29133e-05
3.45992e-06
-6.37104e-05
2.53181e-06
-6.4313e-05
1.53081e-06
-6.47075e-05
4.63771e-07
-6.48813e-05
-6.61062e-07
-6.48235e-05
-1.83407e-06
-6.45248e-05
-3.04435e-06
-6.39776e-05
-4.27978e-06
-6.31767e-05
-5.52716e-06
-6.21191e-05
-6.77235e-06
-6.0804e-05
-8.00044e-06
-5.92337e-05
-9.19598e-06
-5.7413e-05
-1.03432e-05
-5.53497e-05
-1.14262e-05
-5.30546e-05
-1.24295e-05
-5.05416e-05
-1.33381e-05
-4.78276e-05
-1.41376e-05
-4.49324e-05
-1.48153e-05
-4.18785e-05
-1.53597e-05
-3.86912e-05
-1.57615e-05
-3.53977e-05
-1.60134e-05
-3.20275e-05
-1.61108e-05
-2.86112e-05
-1.60515e-05
-2.51805e-05
-1.58364e-05
-2.17673e-05
-1.54694e-05
-1.84035e-05
-1.49571e-05
-1.51199e-05
-1.43092e-05
-1.19459e-05
-1.35377e-05
-8.90878e-06
-1.2657e-05
-6.03333e-06
-1.16837e-05
-3.34115e-06
-1.06354e-05
-8.50445e-07
-9.53095e-06
1.42433e-06
-8.38952e-06
3.47261e-06
-7.23016e-06
5.28771e-06
-6.07124e-06
6.86686e-06
-4.93001e-06
8.21091e-06
-3.82216e-06
9.32415e-06
-2.76146e-06
1.02139e-05
-1.75952e-06
1.08901e-05
-8.25621e-07
1.13649e-05
3.33438e-08
1.16523e-05
8.12853e-07
1.17671e-05
1.51065e-06
1.17254e-05
2.12655e-06
1.15433e-05
2.6622e-06
1.1237e-05
3.12076e-06
1.08222e-05
3.50661e-06
1.03141e-05
3.82489e-06
9.7272e-06
4.08119e-06
9.07481e-06
4.28105e-06
8.36968e-06
4.42961e-06
7.62333e-06
4.53102e-06
6.84714e-06
4.5882e-06
6.0513e-06
4.60203e-06
5.24693e-06
4.5714e-06
4.44395e-06
4.49205e-06
3.65511e-06
4.35722e-06
2.89158e-06
4.15603e-06
2.17072e-06
3.87527e-06
1.50703e-06
3.49691e-06
9.27597e-07
3.00228e-06
4.53726e-07
2.36769e-06
1.31837e-07
1.57274e-06
5.91652e-07
-5.45162e-08
9.10573e-08
-2.09715e-07
3.94346e-07
-4.61565e-07
7.5111e-07
-7.96043e-07
1.13038e-06
-1.20552e-06
1.49741e-06
-1.67746e-06
1.83966e-06
-2.20386e-06
2.14482e-06
-2.77528e-06
2.41264e-06
-3.38559e-06
2.6432e-06
-4.02871e-06
2.84229e-06
-4.70096e-06
3.01511e-06
-5.39915e-06
3.16883e-06
-6.12168e-06
3.30935e-06
-6.86747e-06
3.44265e-06
-7.63637e-06
3.57326e-06
-8.42859e-06
3.70515e-06
-9.24492e-06
3.84112e-06
-1.00864e-05
3.98338e-06
-1.09543e-05
4.13343e-06
-1.18503e-05
4.29243e-06
-1.27761e-05
4.46116e-06
-1.3734e-05
4.64035e-06
-1.47263e-05
4.83056e-06
-1.57555e-05
5.03239e-06
-1.68246e-05
5.24636e-06
-1.79367e-05
5.47297e-06
-1.90951e-05
5.7126e-06
-2.03033e-05
5.96551e-06
-2.15649e-05
6.23169e-06
-2.28833e-05
6.51086e-06
-2.42619e-05
6.80234e-06
-2.5704e-05
7.10501e-06
-2.72124e-05
7.41726e-06
-2.87893e-05
7.73687e-06
-3.04364e-05
8.06105e-06
-3.21548e-05
8.38635e-06
-3.39444e-05
8.70867e-06
-3.58042e-05
9.02326e-06
-3.77321e-05
9.3247e-06
-3.97247e-05
9.60698e-06
-4.17774e-05
9.86355e-06
-4.38841e-05
1.00873e-05
-4.60372e-05
1.02709e-05
-4.82279e-05
1.04066e-05
-5.04455e-05
1.04866e-05
-5.26785e-05
1.0503e-05
-5.49135e-05
1.04484e-05
-5.71363e-05
1.03153e-05
-5.93312e-05
1.00971e-05
-6.14816e-05
9.78781e-06
-6.35702e-05
9.3822e-06
-6.55788e-05
8.87619e-06
-6.74887e-05
8.26681e-06
-6.92809e-05
7.55242e-06
-7.09361e-05
6.73278e-06
-7.24354e-05
5.80914e-06
-7.37597e-05
4.78434e-06
-7.48907e-05
3.66285e-06
-7.58106e-05
2.45078e-06
-7.65029e-05
1.15593e-06
-7.69518e-05
-2.12267e-07
-7.71433e-05
-1.64276e-06
-7.7065e-05
-3.12295e-06
-7.67063e-05
-4.63878e-06
-7.60591e-05
-6.17485e-06
-7.51173e-05
-7.71459e-06
-7.38779e-05
-9.24044e-06
-7.23404e-05
-1.0734e-05
-7.05078e-05
-1.21765e-05
-6.8386e-05
-1.35488e-05
-6.59844e-05
-1.48319e-05
-6.33161e-05
-1.60072e-05
-6.03975e-05
-1.70571e-05
-5.72485e-05
-1.79651e-05
-5.38927e-05
-1.87165e-05
-5.03566e-05
-1.92985e-05
-4.66699e-05
-1.9701e-05
-4.28649e-05
-1.99167e-05
-3.89758e-05
-1.99414e-05
-3.50386e-05
-1.97744e-05
-3.10904e-05
-1.94184e-05
-2.71682e-05
-1.888e-05
-2.3309e-05
-1.81691e-05
-1.95481e-05
-1.72992e-05
-1.59192e-05
-1.62865e-05
-1.24532e-05
-1.51502e-05
-9.17778e-06
-1.39112e-05
-6.11683e-06
-1.25923e-05
-3.28997e-06
-1.12167e-05
-7.12395e-07
-9.80795e-06
1.60532e-06
-8.3891e-06
3.65718e-06
-6.98195e-06
5.44161e-06
-5.60661e-06
6.96119e-06
-4.28101e-06
8.22227e-06
-3.02051e-06
9.2345e-06
-1.83773e-06
1.00103e-05
-7.42327e-07
1.05645e-05
2.58929e-07
1.09132e-05
1.1621e-06
1.10742e-05
1.96587e-06
1.10654e-05
2.67126e-06
1.09052e-05
3.28127e-06
1.06116e-05
3.8005e-06
1.02021e-05
4.23467e-06
9.69345e-06
4.59016e-06
9.10134e-06
4.87344e-06
8.44066e-06
5.09065e-06
7.72501e-06
5.24691e-06
6.96769e-06
5.34594e-06
6.18063e-06
5.38925e-06
5.37659e-06
5.37594e-06
4.56691e-06
5.30172e-06
3.76577e-06
5.15903e-06
2.9856e-06
4.93587e-06
2.24529e-06
4.61661e-06
1.56079e-06
4.18046e-06
9.61273e-07
3.60359e-06
4.70023e-07
2.85676e-06
1.36221e-07
1.90963e-06
7.26383e-07
-6.95229e-08
1.59679e-07
-2.62258e-07
5.88761e-07
-5.69607e-07
1.05714e-06
-9.71661e-07
1.53337e-06
-1.45778e-06
1.98283e-06
-2.01194e-06
2.3943e-06
-2.62446e-06
2.75696e-06
-3.28415e-06
3.07255e-06
-3.98418e-06
3.34301e-06
-4.7178e-06
3.57599e-06
-5.48116e-06
3.77832e-06
-6.27092e-06
3.9586e-06
-7.08557e-06
4.12389e-06
-7.92406e-06
4.28109e-06
-8.78638e-06
4.43547e-06
-9.67285e-06
4.59156e-06
-1.05844e-05
4.7526e-06
-1.15223e-05
4.92119e-06
-1.24881e-05
5.09915e-06
-1.34838e-05
5.28797e-06
-1.45115e-05
5.48881e-06
-1.5574e-05
5.70272e-06
-1.66743e-05
5.93068e-06
-1.78156e-05
6.17363e-06
-1.90019e-05
6.43248e-06
-2.02371e-05
6.70806e-06
-2.15257e-05
7.00105e-06
-2.28722e-05
7.31189e-06
-2.42814e-05
7.6407e-06
-2.57579e-05
7.9872e-06
-2.73063e-05
8.35058e-06
-2.8931e-05
8.72945e-06
-3.06357e-05
9.12177e-06
-3.24238e-05
9.52475e-06
-3.42978e-05
9.93488e-06
-3.62595e-05
1.03478e-05
-3.83095e-05
1.07584e-05
-4.04473e-05
1.11607e-05
-4.26709e-05
1.15481e-05
-4.49772e-05
1.1913e-05
-4.73614e-05
1.22474e-05
-4.98171e-05
1.25427e-05
-5.23362e-05
1.27898e-05
-5.49091e-05
1.29792e-05
-5.75244e-05
1.31017e-05
-6.01693e-05
1.31476e-05
-6.2829e-05
1.31078e-05
-6.54877e-05
1.29737e-05
-6.81278e-05
1.2737e-05
-7.07308e-05
1.23906e-05
-7.3277e-05
1.19281e-05
-7.57455e-05
1.13445e-05
-7.8115e-05
1.06361e-05
-8.03636e-05
9.80081e-06
-8.24689e-05
8.83794e-06
-8.44086e-05
7.74869e-06
-8.61604e-05
6.53607e-06
-8.77025e-05
5.20495e-06
-8.90138e-05
3.76213e-06
-9.00741e-05
2.21634e-06
-9.08645e-05
5.78239e-07
-9.13675e-05
-1.13962e-06
-9.15674e-05
-2.92287e-06
-9.14505e-05
-4.75541e-06
-9.10054e-05
-6.61954e-06
-9.02235e-05
-8.49613e-06
-8.90988e-05
-1.03648e-05
-8.76283e-05
-1.2204e-05
-8.58125e-05
-1.39918e-05
-8.36555e-05
-1.57053e-05
-8.11648e-05
-1.7322e-05
-7.83521e-05
-1.88193e-05
-7.5233e-05
-2.01756e-05
-7.18271e-05
-2.13704e-05
-6.81581e-05
-2.23848e-05
-6.42538e-05
-2.32022e-05
-6.01456e-05
-2.38086e-05
-5.58683e-05
-2.41934e-05
-5.14599e-05
-2.43492e-05
-4.69607e-05
-2.4273e-05
-4.24128e-05
-2.39657e-05
-3.78595e-05
-2.34328e-05
-3.3344e-05
-2.26841e-05
-2.89091e-05
-2.17337e-05
-2.45957e-05
-2.05996e-05
-2.04421e-05
-1.93033e-05
-1.64836e-05
-1.78695e-05
-1.2751e-05
-1.63246e-05
-9.27051e-06
-1.46969e-05
-6.06333e-06
-1.3015e-05
-3.14514e-06
-1.13072e-05
-5.26188e-07
-9.60085e-06
1.78865e-06
-7.92144e-06
3.7996e-06
-6.29197e-06
5.51156e-06
-4.73253e-06
6.93359e-06
-3.25985e-06