/*--------------------------------*- C++ -*----------------------------------*\
| =========                 |                                                 |
| \\      /  F ield         | OpenFOAM: The Open Source CFD Toolbox           |
|  \\    /   O peration     | Version:  2406                                  |
|   \\  /    A nd           | Website:  www.openfoam.com                      |
|    \\/     M anipulation  |                                                 |
\*---------------------------------------------------------------------------*/
FoamFile
{
    version     2.0;
    format      ascii;
    arch        "LSB;label=32;scalar=64";
    class       volVectorField;
    location    "23.9";
    object      U;
}
// * * * * * * * * * * * * * * * * * * * * * * * * * * * * * * * * * * * * * //

dimensions      [0 1 -1 0 0 0 0];

internalField   nonuniform List<vector> 
3600
(
(1.92487e-06 -3.58019e-06 0)
(0.000101263 -4.90273e-05 0)
(0.000293948 -7.12297e-05 0)
(0.000494505 -7.17048e-05 0)
(0.000676054 -5.77465e-05 0)
(0.000789683 -3.79284e-05 0)
(0.000841537 -1.90622e-05 0)
(0.000819267 -2.80282e-06 0)
(0.000739307 8.64361e-06 0)
(0.000600493 1.75239e-05 0)
(0.000410634 2.46248e-05 0)
(0.000161202 3.42065e-05 0)
(-0.000160078 4.88184e-05 0)
(-0.00057939 7.29104e-05 0)
(-0.00113039 0.000108447 0)
(-0.00185322 0.000157696 0)
(-0.00279076 0.000220394 0)
(-0.00398283 0.000296391 0)
(-0.00546564 0.000383853 0)
(-0.00726488 0.000481016 0)
(-0.00939586 0.000584352 0)
(-0.0118545 0.000689493 0)
(-0.0146158 0.000789931 0)
(-0.0176234 0.000878044 0)
(-0.0207886 0.000943997 0)
(-0.0239837 0.000976126 0)
(-0.0270474 0.000960201 0)
(-0.0297872 0.000881448 0)
(-0.0319953 0.00072671 0)
(-0.0334603 0.000488653 0)
(-0.0339902 0.000168365 0)
(-0.0334272 -0.000222141 0)
(-0.0316718 -0.0006602 0)
(-0.0286926 -0.00111321 0)
(-0.0245453 -0.00154179 0)
(-0.0193715 -0.00190314 0)
(-0.013407 -0.00215632 0)
(-0.00696072 -0.00226761 0)
(-0.000408214 -0.00221664 0)
(0.00585582 -0.00200152 0)
(0.0114377 -0.00164169 0)
(0.0160126 -0.0011779 0)
(0.0193391 -0.000665887 0)
(0.021321 -0.000167998 0)
(0.021982 0.000261129 0)
(0.0214939 0.000583342 0)
(0.0200926 0.000785721 0)
(0.0180854 0.000875804 0)
(0.0157376 0.000877954 0)
(0.01331 0.000819605 0)
(0.0109535 0.00072897 0)
(0.00880656 0.000625136 0)
(0.00688898 0.000525179 0)
(0.00524888 0.000434998 0)
(0.00382539 0.000363513 0)
(0.00263548 0.000303239 0)
(0.00160467 0.000254458 0)
(0.000788104 0.00018296 0)
(0.000199468 8.70961e-05 0)
(-4.66405e-05 -5.14424e-05 0)
(4.71134e-05 -9.98202e-05 0)
(0.000296675 -0.000293566 0)
(0.000687182 -0.000374878 0)
(0.00106113 -0.000351247 0)
(0.00136581 -0.000255906 0)
(0.00150833 -0.000118858 0)
(0.00147918 2.7625e-05 0)
(0.00124484 0.00017544 0)
(0.000813474 0.000313283 0)
(0.000169623 0.000450908 0)
(-0.000693497 0.00059364 0)
(-0.00180865 0.000762384 0)
(-0.00322101 0.000972089 0)
(-0.00499966 0.00124457 0)
(-0.0072289 0.00159056 0)
(-0.0100008 0.0020187 0)
(-0.0134064 0.00252432 0)
(-0.0175188 0.00309817 0)
(-0.0223862 0.00371972 0)
(-0.0280125 0.00436306 0)
(-0.034352 0.00499102 0)
(-0.0412907 0.00555884 0)
(-0.048647 0.0060107 0)
(-0.0561662 0.00628526 0)
(-0.0635386 0.00631789 0)
(-0.0704146 0.00605093 0)
(-0.0764363 0.00544013 0)
(-0.0812588 0.0044644 0)
(-0.0845789 0.0031285 0)
(-0.0861463 0.00146681 0)
(-0.0857824 -0.000459557 0)
(-0.0833805 -0.00256329 0)
(-0.0789192 -0.00473663 0)
(-0.0724574 -0.00685399 0)
(-0.0641477 -0.00878018 0)
(-0.0542275 -0.0103762 0)
(-0.0430316 -0.011512 0)
(-0.030971 -0.0120774 0)
(-0.018539 -0.0119995 0)
(-0.00626615 -0.0112559 0)
(0.00528588 -0.00988773 0)
(0.0155985 -0.00800374 0)
(0.0242059 -0.00577356 0)
(0.0307873 -0.0034094 0)
(0.0351521 -0.00113292 0)
(0.0373218 0.000857271 0)
(0.0374557 0.00242268 0)
(0.0359022 0.00349794 0)
(0.0330529 0.0040974 0)
(0.0293869 0.00428996 0)
(0.0252844 0.00418122 0)
(0.0211279 0.00387591 0)
(0.0171118 0.00347459 0)
(0.0134391 0.00304312 0)
(0.010113 0.00263876 0)
(0.00722292 0.00226042 0)
(0.0046882 0.00191032 0)
(0.00262434 0.00148341 0)
(0.00102132 0.000955339 0)
(0.000119502 0.000217305 0)
(7.23145e-05 -0.000298385 0)
(0.000387711 -0.000690429 0)
(0.000843478 -0.000830168 0)
(0.00123013 -0.000733009 0)
(0.00147927 -0.000477529 0)
(0.00147241 -0.000115456 0)
(0.00118169 0.000285578 0)
(0.0005525 0.000710742 0)
(-0.000430341 0.00113752 0)
(-0.00180695 0.00158745 0)
(-0.00361605 0.00207551 0)
(-0.00592549 0.00264804 0)
(-0.00882411 0.00334058 0)
(-0.0124247 0.00419886 0)
(-0.0168548 0.00524323 0)
(-0.0222358 0.00648198 0)
(-0.0286687 0.00788966 0)
(-0.0362029 0.00942099 0)
(-0.0448238 0.0109994 0)
(-0.0544246 0.0125285 0)
(-0.0648054 0.0138862 0)
(-0.0756662 0.0149386 0)
(-0.0866356 0.0155469 0)
(-0.0972944 0.0155892 0)
(-0.107222 0.0149723 0)
(-0.11602 0.013647 0)
(-0.123346 0.0116074 0)
(-0.128915 0.00889176 0)
(-0.132509 0.00557406 0)
(-0.133967 0.00176133 0)
(-0.133187 -0.00241405 0)
(-0.130114 -0.00679405 0)
(-0.124751 -0.0112004 0)
(-0.117151 -0.0154337 0)
(-0.107434 -0.0192808 0)
(-0.0957893 -0.0225193 0)
(-0.0824921 -0.0249341 0)
(-0.0678988 -0.0263311 0)
(-0.0524636 -0.0265659 0)
(-0.0367073 -0.0255641 0)
(-0.0212216 -0.0233499 0)
(-0.00660139 -0.0200567 0)
(0.00656319 -0.0159298 0)
(0.0177844 -0.011304 0)
(0.0266716 -0.0065653 0)
(0.0330341 -0.00209876 0)
(0.0368258 0.0017693 0)
(0.0382318 0.00481236 0)
(0.0375413 0.00693312 0)
(0.0352202 0.00815613 0)
(0.0317118 0.00860908 0)
(0.0275337 0.00847339 0)
(0.0230361 0.00795339 0)
(0.0185924 0.00722194 0)
(0.0143331 0.00642362 0)
(0.010471 0.00560886 0)
(0.00697555 0.00478988 0)
(0.00404981 0.00381791 0)
(0.00167499 0.00259502 0)
(0.000258186 0.000900094 0)
(7.79291e-05 -0.000507225 0)
(0.00037584 -0.00107023 0)
(0.000760024 -0.00121478 0)
(0.000997096 -0.000969689 0)
(0.00100877 -0.000470945 0)
(0.000664694 0.000215706 0)
(-8.40313e-05 0.000989447 0)
(-0.00131458 0.00183624 0)
(-0.0030775 0.00272598 0)
(-0.00544775 0.00369784 0)
(-0.00851132 0.00478077 0)
(-0.0123817 0.00605054 0)
(-0.0171991 0.00756283 0)
(-0.0231147 0.00938018 0)
(-0.0302794 0.0115156 0)
(-0.0388015 0.0139496 0)
(-0.0487283 0.0165983 0)
(-0.0600023 0.0193359 0)
(-0.0724571 0.0219834 0)
(-0.0858004 0.0243359 0)
(-0.0996488 0.0261704 0)
(-0.113554 0.0272836 0)
(-0.127063 0.0275101 0)
(-0.13975 0.0267465 0)
(-0.151249 0.0249493 0)
(-0.161257 0.0221342 0)
(-0.169536 0.0183598 0)
(-0.175894 0.0137216 0)
(-0.180185 0.00833958 0)
(-0.182289 0.00235861 0)
(-0.182117 -0.00405693 0)
(-0.179596 -0.0107167 0)
(-0.174688 -0.0174063 0)
(-0.167378 -0.0238806 0)
(-0.157705 -0.0298692 0)
(-0.145761 -0.0350773 0)
(-0.131719 -0.0392043 0)
(-0.115844 -0.0419597 0)
(-0.0985129 -0.0431015 0)
(-0.0802085 -0.0424662 0)
(-0.0615269 -0.0400147 0)
(-0.0431222 -0.0358547 0)
(-0.0256928 -0.0302595 0)
(-0.00987751 -0.0236455 0)
(0.00375905 -0.0165321 0)
(0.0148418 -0.00947129 0)
(0.0231432 -0.00297416 0)
(0.0286771 0.00255418 0)
(0.0315806 0.00686003 0)
(0.0322056 0.00985494 0)
(0.030933 0.0116066 0)
(0.0282905 0.0123002 0)
(0.024694 0.0121925 0)
(0.0206383 0.0115479 0)
(0.0163783 0.0106026 0)
(0.0122683 0.00949113 0)
(0.00836453 0.00825693 0)
(0.00498036 0.00674715 0)
(0.00212283 0.00475211 0)
(0.000354484 0.00188989 0)
(6.76797e-05 -0.000710796 0)
(0.000274144 -0.00138534 0)
(0.000468278 -0.00145645 0)
(0.000418329 -0.00097066 0)
(3.35417e-05 -0.000125782 0)
(-0.000820437 0.00100697 0)
(-0.00222068 0.00229853 0)
(-0.00426782 0.00374482 0)
(-0.00705791 0.00531415 0)
(-0.0107066 0.00707091 0)
(-0.0153572 0.009063 0)
(-0.0211707 0.0113968 0)
(-0.0283342 0.0141399 0)
(-0.0370131 0.0173506 0)
(-0.0473384 0.0209988 0)
(-0.0593397 0.0249887 0)
(-0.0729353 0.0291241 0)
(-0.087891 0.0331501 0)
(-0.103854 0.036759 0)
(-0.120368 0.0396482 0)
(-0.136953 0.0415461 0)
(-0.153133 0.0422562 0)
(-0.1685 0.0416589 0)
(-0.182702 0.0397164 0)
(-0.195466 0.0364507 0)
(-0.206568 0.0319349 0)
(-0.215839 0.0262726 0)
(-0.223141 0.0195942 0)
(-0.228366 0.0120456 0)
(-0.231419 0.00379219 0)
(-0.232219 -0.00498454 0)
(-0.230687 -0.0140765 0)
(-0.226752 -0.0232486 0)
(-0.220347 -0.0322258 0)
(-0.211426 -0.0406956 0)
(-0.199968 -0.0483019 0)
(-0.186017 -0.0546621 0)
(-0.169695 -0.0593806 0)
(-0.151247 -0.0620923 0)
(-0.131053 -0.0625026 0)
(-0.109664 -0.0604533 0)
(-0.0877635 -0.0559662 0)
(-0.0661643 -0.0492894 0)
(-0.0456929 -0.0408879 0)
(-0.0271413 -0.0314087 0)
(-0.0111158 -0.0215868 0)
(0.00196243 -0.0121453 0)
(0.0119591 -0.00369236 0)
(0.018904 0.00333931 0)
(0.0230645 0.00872363 0)
(0.0247564 0.0124289 0)
(0.0244715 0.0145965 0)
(0.0226272 0.0154827 0)
(0.0197706 0.0154075 0)
(0.0162361 0.0146765 0)
(0.0124912 0.0135165 0)
(0.00868696 0.0120085 0)
(0.00525066 0.0100233 0)
(0.00225435 0.0072242 0)
(0.000377814 0.003056 0)
(4.47763e-05 -0.00083047 0)
(8.87478e-05 -0.00148673 0)
(-2.62853e-05 -0.00136624 0)
(-0.000503358 -0.000524875 0)
(-0.0014477 0.000783959 0)
(-0.00299047 0.00249677 0)
(-0.00524685 0.00446704 0)
(-0.00834307 0.00671194 0)
(-0.0124315 0.00920631 0)
(-0.0176721 0.012046 0)
(-0.02427 0.0152977 0)
(-0.0324238 0.0190878 0)
(-0.0423428 0.0234686 0)
(-0.0541572 0.0284489 0)
(-0.0679099 0.0338976 0)
(-0.0834745 0.0395843 0)
(-0.100581 0.0451595 0)
(-0.118801 0.0502343 0)
(-0.137638 0.054412 0)
(-0.156555 0.0573655 0)
(-0.175065 0.0588525 0)
(-0.192731 0.0587396 0)
(-0.209207 0.0569798 0)
(-0.22421 0.053606 0)
(-0.237538 0.0487013 0)
(-0.249043 0.0423909 0)
(-0.258636 0.0348187 0)
(-0.266259 0.026146 0)
(-0.271887 0.0165367 0)
(-0.275493 0.00616423 0)
(-0.277055 -0.00479289 0)
(-0.276523 -0.0161361 0)
(-0.273829 -0.0276436 0)
(-0.268867 -0.0390498 0)
(-0.261509 -0.050041 0)
(-0.251609 -0.0602396 0)
(-0.239039 -0.0692113 0)
(-0.223708 -0.0764702 0)
(-0.205633 -0.0815187 0)
(-0.184972 -0.0838909 0)
(-0.162098 -0.0832348 0)
(-0.13761 -0.0793853 0)
(-0.112356 -0.0724525 0)
(-0.0873426 -0.0628545 0)
(-0.0636633 -0.0513135 0)
(-0.0422901 -0.0387557 0)
(-0.0239826 -0.0261726 0)
(-0.0091236 -0.0144485 0)
(0.00218957 -0.00425232 0)
(0.0101783 0.0040229 0)
(0.0151523 0.0102299 0)
(0.0176015 0.0144476 0)
(0.0179491 0.0168986 0)
(0.016764 0.0179224 0)
(0.014429 0.0178584 0)
(0.0114858 0.0170087 0)
(0.0081738 0.0154855 0)
(0.00501311 0.013191 0)
(0.00216144 0.00966875 0)
(0.000357861 0.00420836 0)
(1.10637e-05 -0.000860705 0)
(-0.00017305 -0.00133126 0)
(-0.000705547 -0.000874379 0)
(-0.00173574 0.000456329 0)
(-0.0033885 0.00236797 0)
(-0.0057879 0.00482181 0)
(-0.00909952 0.00766694 0)
(-0.0134764 0.0109522 0)
(-0.0191349 0.0146659 0)
(-0.0262751 0.0189369 0)
(-0.0351549 0.0238421 0)
(-0.0459804 0.0295003 0)
(-0.0589341 0.0359007 0)
(-0.0740406 0.0429388 0)
(-0.0911847 0.0503201 0)
(-0.110034 0.0576404 0)
(-0.130128 0.064401 0)
(-0.150885 0.0701256 0)
(-0.171728 0.0743982 0)
(-0.192096 0.076929 0)
(-0.211516 0.0775423 0)
(-0.229592 0.0761859 0)
(-0.246036 0.072895 0)
(-0.260649 0.0677844 0)
(-0.273335 0.0610116 0)
(-0.284064 0.0527665 0)
(-0.29288 0.0432421 0)
(-0.299849 0.0326315 0)
(-0.305066 0.0211106 0)
(-0.308607 0.00884707 0)
(-0.310531 -0.00400371 0)
(-0.310845 -0.0172794 0)
(-0.309507 -0.0308041 0)
(-0.306399 -0.0443619 0)
(-0.301344 -0.0576845 0)
(-0.294085 -0.0704243 0)
(-0.284327 -0.0821483 0)
(-0.271745 -0.092327 0)
(-0.25606 -0.100359 0)
(-0.237092 -0.105604 0)
(-0.21487 -0.107466 0)
(-0.1897 -0.10549 0)
(-0.162259 -0.0994935 0)
(-0.133575 -0.0896703 0)
(-0.104989 -0.0766647 0)
(-0.0779338 -0.0615212 0)
(-0.0537298 -0.0455425 0)
(-0.0332778 -0.0300246 0)
(-0.0170017 -0.0160321 0)
(-0.00479621 -0.00423608 0)
(0.00368883 0.00505743 0)
(0.00902509 0.0118664 0)
(0.0117171 0.0163871 0)
(0.0123876 0.0189758 0)
(0.0114759 0.0199906 0)
(0.00957704 0.0197905 0)
(0.00700989 0.0185085 0)
(0.00436062 0.016075 0)
(0.00187505 0.011939 0)
(0.000298388 0.00527257 0)
(-3.7459e-05 -0.000726575 0)
(-0.000524747 -0.000779268 0)
(-0.00159015 0.00019126 0)
(-0.0033038 0.00216549 0)
(-0.00581681 0.00483855 0)
(-0.00924356 0.00821793 0)
(-0.0138123 0.0121628 0)
(-0.0197019 0.0167611 0)
(-0.0271955 0.0220167 0)
(-0.036519 0.0280823 0)
(-0.047958 0.0350182 0)
(-0.0616734 0.0428849 0)
(-0.0777539 0.0515414 0)
(-0.0960437 0.0607027 0)
(-0.11622 0.0698725 0)
(-0.137733 0.0784793 0)
(-0.159959 0.0859226 0)
(-0.182206 0.0917032 0)
(-0.203849 0.0954409 0)
(-0.224314 0.0969222 0)
(-0.243168 0.0960701 0)
(-0.260085 0.0929461 0)
(-0.2749 0.0877027 0)
(-0.287559 0.0805666 0)
(-0.298134 0.0717896 0)
(-0.306761 0.061633 0)
(-0.313639 0.0503333 0)
(-0.318971 0.0381009 0)
(-0.322968 0.0251042 0)
(-0.325801 0.0114829 0)
(-0.327606 -0.00265416 0)
(-0.328452 -0.017206 0)
(-0.328345 -0.0320721 0)
(-0.327195 -0.0471216 0)
(-0.324826 -0.062178 0)
(-0.32094 -0.0769819 0)
(-0.315144 -0.0911733 0)
(-0.306936 -0.104259 0)
(-0.295765 -0.115612 0)
(-0.281076 -0.124479 0)
(-0.262435 -0.130038 0)
(-0.239641 -0.131493 0)
(-0.212896 -0.128228 0)
(-0.182907 -0.119979 0)
(-0.150952 -0.10702 0)
(-0.118766 -0.0902478 0)
(-0.0883075 -0.0711368 0)
(-0.0613164 -0.0514625 0)
(-0.0389729 -0.0329235 0)
(-0.0216285 -0.0167445 0)
(-0.00902181 -0.00357156 0)
(-0.000460368 0.00649501 0)
(0.00475101 0.0136401 0)
(0.00738154 0.0182659 0)
(0.00798915 0.0207664 0)
(0.00724031 0.0215556 0)
(0.0055409 0.0207867 0)
(0.00352324 0.018413 0)
(0.00151539 0.013825 0)
(0.000229814 0.00613348 0)
(-0.00010085 -0.000413681 0)
(-0.000965505 0.000219334 0)
(-0.00267336 0.0019 0)
(-0.00518888 0.00468472 0)
(-0.00869961 0.00829569 0)
(-0.0133085 0.0128101 0)
(-0.0193175 0.0181104 0)
(-0.0269244 0.0243248 0)
(-0.0364722 0.0314664 0)
(-0.0481824 0.039686 0)
(-0.0623239 0.0489801 0)
(-0.078943 0.0592815 0)
(-0.0979638 0.0702474 0)
(-0.118996 0.0813665 0)
(-0.141492 0.0919403 0)
(-0.164703 0.10127 0)
(-0.187873 0.108712 0)
(-0.21023 0.113799 0)
(-0.231135 0.116234 0)
(-0.250059 0.115933 0)
(-0.266682 0.11297 0)
(-0.280841 0.107569 0)
(-0.292571 0.100032 0)
(-0.302019 0.09071 0)
(-0.309447 0.0799419 0)
(-0.315146 0.0680404 0)
(-0.319441 0.0552593 0)
(-0.322625 0.0418011 0)
(-0.324976 0.0278058 0)
(-0.32671 0.0133706 0)
(-0.328008 -0.00145019 0)
(-0.32898 -0.0166203 0)
(-0.329682 -0.032117 0)
(-0.330081 -0.0479011 0)
(-0.330062 -0.0639043 0)
(-0.329382 -0.0799907 0)
(-0.327674 -0.0959316 0)
(-0.324405 -0.111358 0)
(-0.318897 -0.125733 0)
(-0.310337 -0.138318 0)
(-0.297872 -0.148191 0)
(-0.280723 -0.154291 0)
(-0.258395 -0.155554 0)
(-0.230878 -0.151108 0)
(-0.198887 -0.140545 0)
(-0.163938 -0.12418 0)
(-0.128288 -0.103229 0)
(-0.094526 -0.0797043 0)
(-0.0650004 -0.0560363 0)
(-0.0411409 -0.0343902 0)
(-0.0232634 -0.0161799 0)
(-0.0107325 -0.00187731 0)
(-0.00260433 0.00863497 0)
(0.00216356 0.0158485 0)
(0.00436283 0.0202509 0)
(0.00479991 0.0223482 0)
(0.00400118 0.0223396 0)
(0.0026489 0.0202098 0)
(0.00114663 0.0153363 0)
(0.000162823 0.0068161 0)
(-0.000185474 0.000163558 0)
(-0.00151321 0.00180956 0)
(-0.00397811 0.00441854 0)
(-0.00741284 0.00819423 0)
(-0.012053 0.0129375 0)
(-0.0179874 0.0188183 0)
(-0.0255977 0.0257496 0)
(-0.0350862 0.0338911 0)
(-0.0468362 0.0432431 0)
(-0.0610193 0.0539081 0)
(-0.0778275 0.0657517 0)
(-0.0971194 0.0785014 0)
(-0.118598 0.0915592 0)
(-0.141609 0.104176 0)
(-0.165393 0.115485 0)
(-0.189025 0.124717 0)
(-0.211665 0.131251 0)
(-0.232521 0.134718 0)
(-0.251035 0.134987 0)
(-0.266834 0.132174 0)
(-0.279825 0.126567 0)
(-0.290088 0.118583 0)
(-0.2979 0.108672 0)
(-0.303603 0.0972835 0)
(-0.307613 0.0848041 0)
(-0.310316 0.0715542 0)
(-0.312088 0.057765 0)
(-0.313235 0.0436 0)
(-0.314029 0.0291504 0)
(-0.314671 0.0144628 0)
(-0.315333 -0.000460425 0)
(-0.316125 -0.0156367 0)
(-0.317133 -0.0311032 0)
(-0.31838 -0.046893 0)
(-0.319843 -0.0630304 0)
(-0.321398 -0.0794996 0)
(-0.322817 -0.096223 0)
(-0.323697 -0.113011 0)
(-0.323447 -0.129515 0)
(-0.321239 -0.145166 0)
(-0.316039 -0.159131 0)
(-0.30666 -0.17029 0)
(-0.29194 -0.1773 0)
(-0.270973 -0.178733 0)
(-0.24346 -0.173359 0)
(-0.210022 -0.160518 0)
(-0.172436 -0.14054 0)
(-0.133539 -0.115008 0)
(-0.0967421 -0.0866786 0)
(-0.0650731 -0.0588007 0)
(-0.0402811 -0.0341513 0)
(-0.0224329 -0.014192 0)
(-0.0105272 0.000815058 0)
(-0.0031663 0.011417 0)
(0.000823891 0.0182712 0)
(0.00251071 0.0220579 0)
(0.0026127 0.0230852 0)
(0.00189806 0.0214056 0)
(0.000852322 0.0164351 0)
(0.000117151 0.00730527 0)
(-0.000289528 0.00102988 0)
(-0.00215805 0.00404282 0)
(-0.00547934 0.00780319 0)
(-0.00992828 0.0127509 0)
(-0.015802 0.0188276 0)
(-0.0231699 0.0263136 0)
(-0.032493 0.0351526 0)
(-0.0439529 0.0455121 0)
(-0.0579404 0.0573419 0)
(-0.0745173 0.0706302 0)
(-0.0937339 0.0850349 0)
(-0.115198 0.100012 0)
(-0.13836 0.114682 0)
(-0.162307 0.128081 0)
(-0.186099 0.139233 0)
(-0.208702 0.147375 0)
(-0.229281 0.151999 0)
(-0.247149 0.152939 0)
(-0.26197 0.150318 0)
(-0.273644 0.14452 0)
(-0.282375 0.136067 0)
(-0.288506 0.125547 0)
(-0.29252 0.11351 0)
(-0.294891 0.100443 0)
(-0.296099 0.0867158 0)
(-0.296529 0.0726037 0)
(-0.296522 0.0582763 0)
(-0.296318 0.0438342 0)
(-0.296121 0.0293117 0)
(-0.29606 0.0147097 0)
(-0.296253 -5.87242e-06 0)
(-0.296778 -0.0148805 0)
(-0.297719 -0.0299777 0)
(-0.299128 -0.0453632 0)
(-0.301058 -0.0611093 0)
(-0.303507 -0.0772767 0)
(-0.306425 -0.093905 0)
(-0.309632 -0.110974 0)
(-0.312789 -0.128361 0)
(-0.315301 -0.145764 0)
(-0.316282 -0.162621 0)
(-0.314511 -0.178021 0)
(-0.308499 -0.190654 0)
(-0.29665 -0.198844 0)
(-0.277588 -0.200718 0)
(-0.250598 -0.19456 0)
(-0.216141 -0.179355 0)
(-0.176221 -0.155405 0)
(-0.134372 -0.124797 0)
(-0.0949515 -0.0912427 0)
(-0.0618036 -0.0591091 0)
(-0.0368327 -0.0317418 0)
(-0.0197379 -0.0105969 0)
(-0.00891848 0.00460906 0)
(-0.00269578 0.0147211 0)
(0.000418622 0.0207129 0)
(0.00145049 0.0231126 0)
(0.00133265 0.0221181 0)
(0.000659828 0.0172459 0)
(9.60428e-05 0.00769374 0)
(-0.000418458 0.00227775 0)
(-0.00290885 0.00705872 0)
(-0.00717807 0.0122012 0)
(-0.0127215 0.0185051 0)
(-0.0199092 0.0261237 0)
(-0.0287809 0.0354559 0)
(-0.0398667 0.0464631 0)
(-0.0532924 0.0592792 0)
(-0.0694121 0.0737471 0)
(-0.0881148 0.0896606 0)
(-0.109252 0.106398 0)
(-0.132142 0.123102 0)
(-0.155987 0.138627 0)
(-0.179651 0.15185 0)
(-0.202095 0.161778 0)
(-0.222285 0.167768 0)
(-0.23954 0.16955 0)
(-0.253426 0.167269 0)
(-0.263941 0.161373 0)
(-0.27131 0.152522 0)
(-0.276031 0.141433 0)
(-0.278641 0.128793 0)
(-0.279741 0.115174 0)
(-0.279825 0.101016 0)
(-0.279334 0.086615 0)
(-0.278571 0.0721548 0)
(-0.277774 0.0577202 0)
(-0.277073 0.0433412 0)
(-0.276571 0.0289998 0)
(-0.276311 0.0146634 0)
(-0.276347 0.000280759 0)
(-0.276708 -0.014199 0)
(-0.277455 -0.0288378 0)
(-0.278642 -0.0436991 0)
(-0.280356 -0.0588603 0)
(-0.282675 -0.0744058 0)
(-0.285678 -0.0904305 0)
(-0.289386 -0.107021 0)
(-0.293733 -0.124231 0)
(-0.298469 -0.142018 0)
(-0.303079 -0.160161 0)
(-0.306669 -0.178137 0)
(-0.307912 -0.194988 0)
(-0.305043 -0.209216 0)
(-0.296042 -0.218772 0)
(-0.278999 -0.221244 0)
(-0.25271 -0.214307 0)
(-0.217398 -0.196471 0)
(-0.175317 -0.168028 0)
(-0.130808 -0.131732 0)
(-0.0893658 -0.0926588 0)
(-0.0556274 -0.0564663 0)
(-0.0314474 -0.0270985 0)
(-0.0157918 -0.0055012 0)
(-0.00652847 0.00910602 0)
(-0.00159426 0.0180923 0)
(0.000498114 0.0223538 0)
(0.000969709 0.022363 0)
(0.000584832 0.017817 0)
(0.000104329 0.00801754 0)
(-0.000565419 0.00392752 0)
(-0.00373473 0.0108827 0)
(-0.00901006 0.0176243 0)
(-0.0156886 0.0254527 0)
(-0.0242224 0.0348053 0)
(-0.0346066 0.0461944 0)
(-0.0474209 0.0595731 0)
(-0.0626919 0.0749854 0)
(-0.0806871 0.0920997 0)
(-0.101064 0.110436 0)
(-0.12344 0.12904 0)
(-0.14684 0.146737 0)
(-0.17026 0.162167 0)
(-0.192428 0.174149 0)
(-0.212333 0.181801 0)
(-0.229092 0.184744 0)
(-0.242327 0.183067 0)
(-0.25196 0.177295 0)
(-0.258358 0.168202 0)
(-0.262038 0.156667 0)
(-0.263698 0.143508 0)
(-0.263958 0.129414 0)
(-0.263409 0.114879 0)
(-0.262462 0.100236 0)
(-0.261445 0.0856603 0)
(-0.260521 0.0712282 0)
(-0.259803 0.0569396 0)
(-0.259307 0.0427659 0)
(-0.259046 0.0286551 0)
(-0.258989 0.0145608 0)
(-0.259138 0.000434126 0)
(-0.259481 -0.0137627 0)
(-0.260054 -0.0280705 0)
(-0.260896 -0.042529 0)
(-0.262098 -0.0571914 0)
(-0.263762 -0.0721265 0)
(-0.26603 -0.0874293 0)
(-0.269037 -0.103221 0)
(-0.27291 -0.119642 0)
(-0.277684 -0.136823 0)
(-0.283239 -0.154823 0)
(-0.289158 -0.173526 0)
(-0.294604 -0.192473 0)
(-0.29818 -0.210686 0)
(-0.2979 -0.226471 0)
(-0.291333 -0.237368 0)
(-0.276019 -0.24033 0)
(-0.250226 -0.232287 0)
(-0.213924 -0.211208 0)
(-0.169691 -0.17742 0)
(-0.12287 -0.134742 0)
(-0.0802518 -0.090014 0)
(-0.0471418 -0.0505092 0)
(-0.0248167 -0.0201752 0)
(-0.01129 0.000732046 0)
(-0.00385674 0.013902 0)
(-0.000405853 0.0207532 0)
(0.000735303 0.0222134 0)
(0.000596974 0.0182697 0)
(0.000135024 0.00837064 0)
(-0.000732607 0.00606026 0)
(-0.00462853 0.0156208 0)
(-0.0109453 0.0241716 0)
(-0.0187704 0.0336836 0)
(-0.028639 0.0449494 0)
(-0.0404807 0.0585739 0)
(-0.0548961 0.0744596 0)
(-0.0717675 0.0924888 0)
(-0.0912309 0.112082 0)
(-0.112675 0.132419 0)
(-0.135477 0.152197 0)
(-0.158407 0.169961 0)
(-0.180344 0.184242 0)
(-0.200004 0.193938 0)
(-0.216554 0.198438 0)
(-0.229406 0.197758 0)
(-0.238576 0.192425 0)
(-0.244361 0.18334 0)
(-0.247442 0.171531 0)
(-0.248517 0.157986 0)
(-0.248353 0.143507 0)
(-0.247521 0.128681 0)
(-0.246507 0.113859 0)
(-0.245568 0.0992266 0)
(-0.244884 0.0848284 0)
(-0.244476 0.0706449 0)
(-0.244352 0.0566118 0)
(-0.244438 0.0426653 0)
(-0.244691 0.0287412 0)
(-0.245037 0.0147966 0)
(-0.245449 0.00079731 0)
(-0.245891 -0.0132734 0)
(-0.246381 -0.0274292 0)
(-0.246938 -0.0416798 0)
(-0.247637 -0.0560443 0)
(-0.248567 -0.0705577 0)
(-0.249877 -0.0852831 0)
(-0.251735 -0.100325 0)
(-0.254351 -0.115832 0)
(-0.257924 -0.132005 0)
(-0.262609 -0.149058 0)
(-0.2684 -0.167166 0)
(-0.275003 -0.186326 0)
(-0.28164 -0.206166 0)
(-0.286874 -0.22567 0)
(-0.288517 -0.24293 0)
(-0.283736 -0.254995 0)
(-0.269541 -0.258062 0)
(-0.243674 -0.248214 0)
(-0.205943 -0.222818 0)
(-0.159425 -0.182532 0)
(-0.110774 -0.132724 0)
(-0.068189 -0.0827756 0)
(-0.0371998 -0.0412333 0)
(-0.0177849 -0.0115792 0)
(-0.00684945 0.00749521 0)
(-0.00151724 0.0180153 0)
(0.00050542 0.0215787 0)
(0.000650457 0.018607 0)
(0.000181202 0.0087733 0)
(-0.000905887 0.00866734 0)
(-0.00553377 0.0212376 0)
(-0.0128769 0.0317755 0)
(-0.0218058 0.0430938 0)
(-0.0329346 0.0564019 0)
(-0.0461021 0.0723601 0)
(-0.061898 0.0907705 0)
(-0.080018 0.111279 0)
(-0.100433 0.132998 0)
(-0.122252 0.154726 0)
(-0.144645 0.174839 0)
(-0.166203 0.191686 0)
(-0.185811 0.203831 0)
(-0.202312 0.210411 0)
(-0.215188 0.211236 0)
(-0.224228 0.206799 0)
(-0.229854 0.198065 0)
(-0.232667 0.186231 0)
(-0.233542 0.172455 0)
(-0.233218 0.157703 0)
(-0.232404 0.14265 0)
(-0.231525 0.127709 0)
(-0.230905 0.113057 0)
(-0.230629 0.0987276 0)
(-0.230741 0.0846604 0)
(-0.231155 0.0707678 0)
(-0.231806 0.0569529 0)
(-0.232575 0.0431431 0)
(-0.233398 0.0292815 0)
(-0.234183 0.0153406 0)
(-0.234898 0.0013072 0)
(-0.235499 -0.0128128 0)
(-0.235992 -0.0270075 0)
(-0.236379 -0.041259 0)
(-0.236714 -0.0555536 0)
(-0.237058 -0.0698903 0)
(-0.237531 -0.0842884 0)
(-0.238277 -0.0988094 0)
(-0.239511 -0.113563 0)
(-0.24148 -0.128736 0)
(-0.24447 -0.144584 0)
(-0.248731 -0.161429 0)
(-0.254384 -0.179563 0)
(-0.261246 -0.199124 0)
(-0.268592 -0.219808 0)
(-0.274934 -0.24055 0)
(-0.277848 -0.259134 0)
(-0.274107 -0.271997 0)
(-0.260174 -0.274436 0)
(-0.233384 -0.261547 0)
(-0.193534 -0.230248 0)
(-0.144614 -0.181935 0)
(-0.094934 -0.124629 0)
(-0.0541123 -0.0706058 0)
(-0.0268765 -0.0292904 0)
(-0.0111475 -0.00197509 0)
(-0.0031671 0.0137263 0)
(0.000109211 0.0203194 0)
(0.000676235 0.0188258 0)
(0.000229892 0.00926222 0)
(-0.0010836 0.0117934 0)
(-0.00642953 0.0277767 0)
(-0.0147526 0.040463 0)
(-0.0247061 0.0536898 0)
(-0.0369679 0.0691344 0)
(-0.0512607 0.0874623 0)
(-0.0681302 0.108315 0)
(-0.0870577 0.13103 0)
(-0.107839 0.154365 0)
(-0.129323 0.176739 0)
(-0.150541 0.196276 0)
(-0.170014 0.211263 0)
(-0.186756 0.22046 0)
(-0.199865 0.2234 0)
(-0.209215 0.220409 0)
(-0.214978 0.212473 0)
(-0.217914 0.200915 0)
(-0.218802 0.187098 0)
(-0.218573 0.172167 0)
(-0.217879 0.156946 0)
(-0.217279 0.141912 0)
(-0.21701 0.127271 0)
(-0.217224 0.113035 0)
(-0.217863 0.0991172 0)
(-0.218875 0.0853876 0)
(-0.220109 0.0717279 0)
(-0.221476 0.0580381 0)
(-0.222843 0.044256 0)
(-0.224149 0.0303439 0)
(-0.225308 0.0162936 0)
(-0.226296 0.00211254 0)
(-0.227068 -0.0121753 0)
(-0.227629 -0.0265382 0)
(-0.22797 -0.04094 0)
(-0.228126 -0.0553422 0)
(-0.228127 -0.0697166 0)
(-0.228053 -0.084043 0)
(-0.228003 -0.0983369 0)
(-0.228144 -0.112648 0)
(-0.22869 -0.127106 0)
(-0.229939 -0.141921 0)
(-0.232235 -0.157429 0)
(-0.235932 -0.174044 0)
(-0.241269 -0.192219 0)
(-0.248159 -0.212216 0)
(-0.255924 -0.233812 0)
(-0.262951 -0.2558 0)
(-0.266553 -0.275531 0)
(-0.263008 -0.288624 0)
(-0.248316 -0.289245 0)
(-0.219481 -0.271489 0)
(-0.176745 -0.232049 0)
(-0.125486 -0.174193 0)
(-0.076236 -0.10969 0)
(-0.0393976 -0.0542678 0)
(-0.0173 -0.0156869 0)
(-0.00569123 0.00720507 0)
(-0.000621661 0.0181032 0)
(0.000609912 0.0187892 0)
(0.000271412 0.00979892 0)
(-0.00124492 0.0153765 0)
(-0.00724057 0.0351164 0)
(-0.0164401 0.0500655 0)
(-0.0272827 0.065246 0)
(-0.0404896 0.0828387 0)
(-0.0556448 0.103458 0)
(-0.0732227 0.126532 0)
(-0.0924785 0.151034 0)
(-0.113043 0.175359 0)
(-0.133559 0.197584 0)
(-0.153005 0.215692 0)
(-0.169944 0.228056 0)
(-0.183637 0.233794 0)
(-0.193508 0.232944 0)
(-0.199837 0.226384 0)
(-0.203114 0.215521 0)
(-0.204317 0.201911 0)
(-0.204271 0.186927 0)
(-0.203834 0.171577 0)
(-0.203487 0.156461 0)
(-0.203604 0.141829 0)
(-0.204234 0.127693 0)
(-0.205393 0.113934 0)
(-0.206924 0.100391 0)
(-0.208728 0.0869055 0)
(-0.210632 0.0733603 0)
(-0.21255 0.0596728 0)
(-0.21436 0.0458022 0)
(-0.216018 0.0317342 0)
(-0.21745 0.0174798 0)
(-0.218647 0.00306444 0)
(-0.219567 -0.0114748 0)
(-0.220219 -0.0260924 0)
(-0.220587 -0.0407411 0)
(-0.220696 -0.0553668 0)
(-0.220551 -0.0699248 0)
(-0.220203 -0.0843666 0)
(-0.219701 -0.0986727 0)
(-0.219154 -0.112836 0)
(-0.218709 -0.126922 0)
(-0.218603 -0.141054 0)
(-0.219153 -0.155501 0)
(-0.22077 -0.17065 0)
(-0.223904 -0.187066 0)
(-0.228893 -0.205336 0)
(-0.235755 -0.225897 0)
(-0.243773 -0.24853 0)
(-0.251192 -0.271801 0)
(-0.25488 -0.292393 0)
(-0.250643 -0.304791 0)
(-0.233936 -0.301825 0)
(-0.201843 -0.276536 0)
(-0.155493 -0.226315 0)
(-0.102622 -0.157685 0)
(-0.0561389 -0.0882793 0)
(-0.025735 -0.035062 0)
(-0.00939637 -0.00234437 0)
(-0.00183395 0.0145143 0)
(0.000397049 0.0183325 0)
(0.000295772 0.0103488 0)
(-0.00138678 0.0194062 0)
(-0.00794381 0.0432258 0)
(-0.0178872 0.0605353 0)
(-0.0294527 0.0776906 0)
(-0.0433757 0.0974007 0)
(-0.0590874 0.12017 0)
(-0.0769733 0.145165 0)
(-0.0960733 0.170959 0)
(-0.115887 0.195603 0)
(-0.134923 0.216909 0)
(-0.152205 0.232857 0)
(-0.166437 0.242061 0)
(-0.177198 0.244126 0)
(-0.18426 0.239651 0)
(-0.188256 0.230022 0)
(-0.189891 0.21695 0)
(-0.190228 0.202067 0)
(-0.190015 0.186623 0)
(-0.189961 0.1714 0)
(-0.19034 0.156739 0)
(-0.191348 0.142675 0)
(-0.192884 0.129071 0)
(-0.194879 0.115724 0)
(-0.197126 0.102443 0)
(-0.199519 0.0890782 0)
(-0.201892 0.0755303 0)
(-0.204181 0.0617448 0)
(-0.206281 0.0477045 0)
(-0.208168 0.0334172 0)
(-0.209784 0.0189088 0)
(-0.211127 0.00421873 0)
(-0.212165 -0.0106082 0)
(-0.212909 -0.0255169 0)
(-0.213342 -0.040456 0)
(-0.213484 -0.0553622 0)
(-0.213329 -0.0701846 0)
(-0.212905 -0.0848578 0)
(-0.212228 -0.0993428 0)
(-0.211358 -0.113591 0)
(-0.210373 -0.127613 0)
(-0.209426 -0.141446 0)
(-0.20875 -0.15526 0)
(-0.208696 -0.169333 0)
(-0.209738 -0.184185 0)
(-0.212402 -0.200484 0)
(-0.217153 -0.219041 0)
(-0.22402 -0.240395 0)
(-0.232261 -0.264309 0)
(-0.239748 -0.288891 0)
(-0.242914 -0.30982 0)
(-0.236841 -0.320082 0)
(-0.216757 -0.310824 0)
(-0.180062 -0.274574 0)
(-0.129949 -0.210609 0)
(-0.077183 -0.131909 0)
(-0.0369458 -0.0619272 0)
(-0.0144841 -0.0158872 0)
(-0.0036656 0.00897575 0)
(7.63764e-06 0.0171916 0)
(0.000295893 0.0108273 0)
(-0.00148589 0.0237563 0)
(-0.00846197 0.051892 0)
(-0.0189674 0.0716054 0)
(-0.0310466 0.0906873 0)
(-0.04542 0.112388 0)
(-0.0613602 0.137056 0)
(-0.0791575 0.16357 0)
(-0.0976651 0.190098 0)
(-0.1163 0.2144 0)
(-0.133516 0.234125 0)
(-0.148466 0.247391 0)
(-0.160067 0.253183 0)
(-0.168243 0.25167 0)
(-0.173081 0.244 0)
(-0.175477 0.231972 0)
(-0.176228 0.217447 0)
(-0.176372 0.201995 0)
(-0.176499 0.186639 0)
(-0.177132 0.171892 0)
(-0.178351 0.157847 0)
(-0.180209 0.144368 0)
(-0.18251 0.131218 0)
(-0.185146 0.118163 0)
(-0.187903 0.105017 0)
(-0.190691 0.0916544 0)
(-0.193366 0.0780061 0)
(-0.195887 0.0640464 0)
(-0.198168 0.0497782 0)
(-0.200202 0.0352277 0)
(-0.201936 0.0204315 0)
(-0.203381 0.00544022 0)
(-0.204502 -0.00969606 0)
(-0.20532 -0.0249148 0)
(-0.205815 -0.0401628 0)
(-0.20601 -0.0553709 0)
(-0.205894 -0.0704885 0)
(-0.20549 -0.0854415 0)
(-0.204794 -0.100186 0)
(-0.203835 -0.114648 0)
(-0.202642 -0.128807 0)
(-0.201291 -0.142629 0)
(-0.199922 -0.156197 0)
(-0.198774 -0.169653 0)
(-0.198239 -0.18339 0)
(-0.198838 -0.197986 0)
(-0.201223 -0.214353 0)
(-0.205891 -0.233449 0)
(-0.212938 -0.255975 0)
(-0.221332 -0.281459 0)
(-0.2286 -0.307252 0)
(-0.230341 -0.327558 0)
(-0.221161 -0.333282 0)
(-0.196022 -0.313977 0)
(-0.153814 -0.262369 0)
(-0.100637 -0.18296 0)
(-0.0516071 -0.0978109 0)
(-0.0210152 -0.0346779 0)
(-0.00627769 0.000913202 0)
(-0.000575526 0.0150559 0)
(0.000266447 0.0111669 0)
(-0.00154254 0.0283622 0)
(-0.00878542 0.0610234 0)
(-0.019655 0.0831786 0)
(-0.0320257 0.104126 0)
(-0.0465707 0.127668 0)
(-0.0624126 0.153958 0)
(-0.0797508 0.181578 0)
(-0.0972971 0.208304 0)
(-0.11444 0.231682 0)
(-0.129657 0.24931 0)
(-0.14229 0.259579 0)
(-0.151512 0.26194 0)
(-0.157568 0.257151 0)
(-0.160795 0.246843 0)
(-0.162242 0.233096 0)
(-0.162698 0.21778 0)
(-0.163086 0.202287 0)
(-0.163808 0.187358 0)
(-0.165202 0.173237 0)
(-0.167193 0.159811 0)
(-0.169743 0.146829 0)
(-0.17261 0.134003 0)
(-0.175686 0.121107 0)
(-0.178771 0.107979 0)
(-0.181805 0.0945305 0)
(-0.184664 0.0807175 0)
(-0.187332 0.0665396 0)
(-0.189733 0.0520139 0)
(-0.191869 0.0371803 0)
(-0.193691 0.022082 0)
(-0.195211 0.00677896 0)
(-0.196397 -0.00867527 0)
(-0.197271 -0.0242103 0)
(-0.197815 -0.0397724 0)
(-0.198056 -0.0552863 0)