/*--------------------------------*- C++ -*----------------------------------*\
| =========                 |                                                 |
| \\      /  F ield         | OpenFOAM: The Open Source CFD Toolbox           |
|  \\    /   O peration     | Version:  2406                                  |
|   \\  /    A nd           | Website:  www.openfoam.com                      |
|    \\/     M anipulation  |                                                 |
\*---------------------------------------------------------------------------*/
FoamFile
{
    version     2.0;
    format      ascii;
    arch        "LSB;label=32;scalar=64";
    class       volVectorField;
    location    "28.4";
    object      Uc;
}
// * * * * * * * * * * * * * * * * * * * * * * * * * * * * * * * * * * * * * //

dimensions      [0 1 -1 0 0 0 0];

internalField   nonuniform List<vector> 
900
(
(0.000339219 -0.000489912 0)
(0.00305127 -0.00107923 0)
(0.00621791 -0.000922765 0)
(0.00772028 -0.000588915 0)
(0.00829695 -0.000513848 0)
(0.00819834 -0.000708164 0)
(0.00797458 -0.00103646 0)
(0.00749268 -0.00145124 0)
(0.00619418 -0.00252241 0)
(0.00205258 -0.00399331 0)
(-0.00709812 -0.00297229 0)
(-0.0224826 0.00219346 0)
(-0.0435733 0.00822892 0)
(-0.0668225 0.0113297 0)
(-0.0880315 0.0112825 0)
(-0.104689 0.00946061 0)
(-0.115405 0.00663545 0)
(-0.119213 0.00319685 0)
(-0.11575 -0.000593839 0)
(-0.104559 -0.00450524 0)
(-0.0861806 -0.0081966 0)
(-0.0609264 -0.0111386 0)
(-0.0315603 -0.0125312 0)
(-0.000527826 -0.0114081 0)
(0.0251018 -0.00664115 0)
(0.0398364 0.000407588 0)
(0.0377196 0.00632159 0)
(0.0249678 0.00696485 0)
(0.0118258 0.00478481 0)
(0.00154855 0.0018848 0)
(0.00105903 -0.00289553 0)
(0.00561195 -0.00492927 0)
(0.0101516 -0.00375969 0)
(0.0117474 -0.00152359 0)
(0.0111119 6.17532e-05 0)
(0.00800281 0.00104368 0)
(0.00190877 0.00177201 0)
(-0.00992551 0.00323354 0)
(-0.0303983 0.00807324 0)
(-0.0597997 0.017692 0)
(-0.0945077 0.028065 0)
(-0.128389 0.0346747 0)
(-0.157059 0.0361709 0)
(-0.179334 0.032937 0)
(-0.195365 0.026345 0)
(-0.205139 0.0176816 0)
(-0.208496 0.00767753 0)
(-0.205253 -0.00318045 0)
(-0.195295 -0.0145216 0)
(-0.178361 -0.0259356 0)
(-0.15462 -0.0365671 0)
(-0.124218 -0.0451974 0)
(-0.088598 -0.0494955 0)
(-0.0498689 -0.0469737 0)
(-0.0127235 -0.0343172 0)
(0.0167842 -0.0133267 0)
(0.0302634 0.00894356 0)
(0.0261749 0.0187018 0)
(0.0152683 0.0189371 0)
(0.00235411 0.011425 0)
(0.00162866 -0.00707984 0)
(0.0063293 -0.0102427 0)
(0.00954964 -0.00703152 0)
(0.00847161 -0.00159074 0)
(0.003335 0.00320828 0)
(-0.00762738 0.00841465 0)
(-0.027263 0.0168115 0)
(-0.0578377 0.0307755 0)
(-0.0969175 0.0469951 0)
(-0.136925 0.0591372 0)
(-0.171808 0.0643768 0)
(-0.199693 0.0636571 0)
(-0.220657 0.0580714 0)
(-0.235527 0.0484231 0)
(-0.245226 0.0359135 0)
(-0.250246 0.0214989 0)
(-0.250897 0.00576136 0)
(-0.247173 -0.0110144 0)
(-0.238951 -0.0285158 0)
(-0.225791 -0.0464741 0)
(-0.207238 -0.0637312 0)
(-0.182682 -0.0789174 0)
(-0.151665 -0.0883148 0)
(-0.114777 -0.0885412 0)
(-0.0730426 -0.0731837 0)
(-0.0321269 -0.042246 0)
(0.000419391 -0.00232386 0)
(0.00987977 0.0215165 0)
(0.00823111 0.0284692 0)
(0.000316424 0.0189354 0)
(0.00186421 -0.0107716 0)
(0.00471271 -0.0129032 0)
(0.00371015 -0.00581344 0)
(-0.00337005 0.00476391 0)
(-0.0176673 0.0162562 0)
(-0.0419099 0.0316853 0)
(-0.0769585 0.0518583 0)
(-0.118053 0.0723238 0)
(-0.157226 0.0863765 0)
(-0.18971 0.0919246 0)
(-0.214956 0.0901975 0)
(-0.233443 0.0828808 0)
(-0.24607 0.0714138 0)
(-0.254081 0.0570143 0)
(-0.258617 0.0406784 0)
(-0.260396 0.0229865 0)
(-0.259907 0.00421769 0)
(-0.257282 -0.0156928 0)
(-0.252529 -0.0366475 0)
(-0.245215 -0.0588175 0)
(-0.234732 -0.0811291 0)
(-0.219829 -0.102747 0)
(-0.198815 -0.119305 0)
(-0.170037 -0.127363 0)
(-0.131243 -0.117307 0)
(-0.0847952 -0.0864893 0)
(-0.0342438 -0.0317346 0)
(-0.00321361 0.0109988 0)
(0.00255585 0.0288954 0)
(-0.00124026 0.0199687 0)
(0.00144353 -0.0136449 0)
(0.000325413 -0.0121529 0)
(-0.00725115 0.00110027 0)
(-0.0227482 0.0197939 0)
(-0.0477791 0.0416502 0)
(-0.0823581 0.0673325 0)
(-0.122033 0.0922847 0)
(-0.159271 0.1102 0)
(-0.18931 0.117599 0)
(-0.211385 0.115735 0)
(-0.226475 0.107168 0)
(-0.2357 0.0941209 0)
(-0.240677 0.078288 0)
(-0.242654 0.0607209 0)
(-0.242819 0.0421413 0)
(-0.241794 0.0227907 0)
(-0.240172 0.00275202 0)
(-0.238114 -0.0183337 0)
(-0.235952 -0.0405133 0)
(-0.233432 -0.0644872 0)
(-0.230443 -0.0894914 0)
(-0.22561 -0.115778 0)
(-0.217149 -0.13927 0)
(-0.201576 -0.157588 0)
(-0.174426 -0.159391 0)
(-0.132702 -0.13957 0)
(-0.0755022 -0.0837135 0)
(-0.0173811 -0.0154444 0)
(0.00265949 0.026656 0)
(-0.00115244 0.0200474 0)
(-0.000147685 -0.0124623 0)
(-0.00738795 -0.00408159 0)
(-0.0228262 0.0174574 0)
(-0.0463212 0.0454219 0)
(-0.0782586 0.0757239 0)
(-0.1148 0.105517 0)
(-0.149904 0.128053 0)
(-0.177776 0.138777 0)
(-0.19706 0.137845 0)
(-0.20888 0.128794 0)
(-0.214902 0.114506 0)
(-0.216766 0.0973321 0)
(-0.216177 0.0788115 0)
(-0.214203 0.0597367 0)
(-0.211813 0.0405162 0)
(-0.209276 0.0210691 0)
(-0.207018 0.001355 0)
(-0.204969 -0.0191683 0)
(-0.203666 -0.0404995 0)
(-0.203004 -0.0637363 0)
(-0.20376 -0.0883568 0)
(-0.20509 -0.116002 0)
(-0.206484 -0.143559 0)
(-0.204205 -0.171038 0)
(-0.193328 -0.18728 0)
(-0.167075 -0.186668 0)
(-0.118508 -0.147497 0)
(-0.0502585 -0.0679797 0)
(0.00525396 0.0130676 0)
(-0.00093932 0.0214452 0)
(-0.00233382 -0.00627334 0)
(-0.0158784 0.0105096 0)
(-0.0379184 0.0399192 0)
(-0.0660399 0.075005 0)
(-0.0992613 0.109562 0)
(-0.131896 0.13818 0)
(-0.158889 0.15439 0)
(-0.176883 0.156718 0)
(-0.187064 0.148356 0)
(-0.191181 0.13356 0)
(-0.191342 0.115309 0)
(-0.18932 0.0958548 0)
(-0.186652 0.0763175 0)
(-0.183977 0.0570146 0)
(-0.181817 0.0379577 0)
(-0.179879 0.0187377 0)
(-0.178279 -0.000690004 0)
(-0.17653 -0.0208787 0)
(-0.175192 -0.041456 0)
(-0.174008 -0.0635328 0)
(-0.17442 -0.0862611 0)
(-0.176068 -0.112296 0)
(-0.180303 -0.139307 0)
(-0.184549 -0.170621 0)
(-0.185908 -0.196872 0)
(-0.176794 -0.215656 0)
(-0.146366 -0.201461 0)
(-0.0921841 -0.141802 0)
(-0.00851649 -0.0216562 0)
(0.00552797 0.0238696 0)
(-0.00452907 0.00556637 0)
(-0.023183 0.0315611 0)
(-0.049166 0.0673999 0)
(-0.0782108 0.106446 0)
(-0.108883 0.140895 0)
(-0.135107 0.164467 0)
(-0.15377 0.172521 0)
(-0.163675 0.166838 0)
(-0.167378 0.152368 0)
(-0.166791 0.133576 0)
(-0.164275 0.113285 0)
(-0.16138 0.0933393 0)
(-0.159196 0.0741736 0)
(-0.157836 0.055556 0)
(-0.157325 0.0370779 0)
(-0.156938 0.0180912 0)
(-0.1566 -0.00135562 0)
(-0.155541 -0.0217676 0)
(-0.154361 -0.0423076 0)
(-0.152497 -0.0640222 0)
(-0.151698 -0.0853745 0)
(-0.151496 -0.109534 0)
(-0.154525 -0.133993 0)
(-0.159118 -0.164874 0)
(-0.165416 -0.194649 0)
(-0.166565 -0.226318 0)
(-0.154056 -0.234165 0)
(-0.118548 -0.206658 0)
(-0.0448546 -0.0858124 0)
(0.0176729 0.0187483 0)
(-0.0057423 0.020858 0)
(-0.0270578 0.0548092 0)
(-0.0540993 0.0941995 0)
(-0.0813771 0.133963 0)
(-0.107673 0.165507 0)
(-0.127318 0.182391 0)
(-0.139232 0.182633 0)
(-0.143553 0.170434 0)
(-0.143572 0.151835 0)
(-0.140992 0.130984 0)
(-0.138265 0.110468 0)
(-0.136312 0.0913268 0)
(-0.135823 0.0733133 0)
(-0.136337 0.0556149 0)
(-0.137613 0.0375704 0)
(-0.138647 0.018424 0)
(-0.139401 -0.00154171 0)
(-0.138898 -0.0227584 0)
(-0.137877 -0.0438661 0)
(-0.135397 -0.0658892 0)
(-0.133457 -0.086455 0)
(-0.131113 -0.109123 0)
(-0.131883 -0.130599 0)
(-0.134281 -0.159184 0)
(-0.141219 -0.188421 0)
(-0.14676 -0.226649 0)
(-0.146173 -0.250922 0)
(-0.125495 -0.25122 0)
(-0.0763247 -0.162585 0)
(0.00782454 -0.00155671 0)
(-0.00599187 0.0378048 0)
(-0.027729 0.0795772 0)
(-0.053713 0.120889 0)
(-0.0777559 0.159288 0)
(-0.0991458 0.186056 0)
(-0.113041 0.195728 0)
(-0.119989 0.188855 0)
(-0.120944 0.171666 0)
(-0.119282 0.150432 0)
(-0.116446 0.128949 0)
(-0.114634 0.109237 0)
(-0.114137 0.0914477 0)
(-0.115333 0.0747163 0)
(-0.117368 0.0577661 0)
(-0.119982 0.0398636 0)
(-0.122045 0.020219 0)
(-0.123717 -0.000599153 0)
(-0.123822 -0.0230376 0)
(-0.12332 -0.0452305 0)
(-0.12079 -0.0682963 0)
(-0.118483 -0.0889364 0)
(-0.114645 -0.110994 0)
(-0.113413 -0.129828 0)
(-0.112684 -0.155205 0)
(-0.117983 -0.180907 0)
(-0.124154 -0.22078 0)
(-0.130625 -0.255182 0)
(-0.122291 -0.277568 0)
(-0.0894778 -0.22103 0)
(-0.0216314 -0.0484108 0)
(-0.00520274 0.0538014 0)
(-0.025336 0.101891 0)
(-0.0485387 0.143141 0)
(-0.0685908 0.178509 0)
(-0.0853269 0.200042 0)
(-0.0947761 0.203051 0)
(-0.0986455 0.190733 0)
(-0.0979777 0.170201 0)
(-0.0960353 0.147857 0)
(-0.09379 0.126833 0)
(-0.0931629 0.108593 0)
(-0.0938658 0.0923748 0)
(-0.0961942 0.0769088 0)
(-0.0990239 0.0605494 0)
(-0.102306 0.0426639 0)
(-0.104812 0.0224382 0)
(-0.107033 0.0007601 0)
(-0.107538 -0.0229301 0)
(-0.107663 -0.0462758 0)
(-0.105423 -0.0706485 0)
(-0.103547 -0.0918805 0)
(-0.0992324 -0.114251 0)
(-0.0972769 -0.131635 0)
(-0.094001 -0.154539 0)
(-0.0969405 -0.175675 0)
(-0.100561 -0.213411 0)
(-0.109555 -0.251891 0)
(-0.108207 -0.292879 0)
(-0.0868339 -0.26475 0)
(-0.0347512 -0.11422 0)
(-0.00378709 0.0677776 0)
(-0.0209554 0.122405 0)
(-0.0406073 0.163226 0)
(-0.0566129 0.195427 0)
(-0.0692355 0.211817 0)
(-0.075413 0.209234 0)
(-0.0773509 0.192553 0)
(-0.0760473 0.169747 0)
(-0.0743276 0.146903 0)
(-0.0727985 0.126663 0)
(-0.0729907 0.109821 0)
(-0.0742808 0.0948888 0)
(-0.0769898 0.080328 0)
(-0.0798939 0.0642376 0)
(-0.0832694 0.046192 0)
(-0.0857725 0.0253085 0)
(-0.0883063 0.00280106 0)
(-0.0890697 -0.0221101 0)
(-0.0899282 -0.0465694 0)
(-0.0881778 -0.0723042 0)
(-0.087289 -0.0943016 0)
(-0.0832193 -0.117389 0)
(-0.0818243 -0.13414 0)
(-0.0773667 -0.155687 0)
(-0.0791547 -0.173123 0)
(-0.0798385 -0.20777 0)
(-0.0888258 -0.246286 0)
(-0.0898757 -0.300235 0)
(-0.0765099 -0.297469 0)
(-0.032376 -0.173579 0)
(-0.00188336 0.0779574 0)
(-0.0151478 0.138073 0)
(-0.0305941 0.177879 0)
(-0.0426514 0.20647 0)
(-0.0517828 0.218486 0)
(-0.0556605 0.211343 0)
(-0.0566917 0.191784 0)
(-0.0553917 0.167682 0)
(-0.0541966 0.145053 0)
(-0.0531971 0.125837 0)
(-0.0537343 0.110377 0)
(-0.0549426 0.0965835 0)
(-0.0573872 0.0828478 0)
(-0.059766 0.067064 0)
(-0.0627932 0.0490503 0)
(-0.0648942 0.0277799 0)
(-0.0675036 0.00478054 0)
(-0.068309 -0.0210249 0)
(-0.0699208 -0.046292 0)
(-0.0687149 -0.0731855 0)
(-0.0692009 -0.0959162 0)
(-0.0657987 -0.119888 0)
(-0.0658243 -0.136533 0)
(-0.0611457 -0.157508 0)
(-0.0630243 -0.172032 0)
(-0.0614282 -0.203554 0)
(-0.07033 -0.240277 0)
(-0.0725804 -0.304478 0)
(-0.0659949 -0.324176 0)
(-0.029048 -0.226373 0)
(9.66209e-05 0.0844976 0)
(-0.00874411 0.15067 0)
(-0.0199729 0.190081 0)
(-0.0284158 0.216226 0)
(-0.0345591 0.224765 0)
(-0.0368163 0.214599 0)
(-0.0372644 0.192924 0)
(-0.0361156 0.167942 0)
(-0.0352183 0.145319 0)
(-0.0343678 0.126686 0)
(-0.0347224 0.112033 0)
(-0.0353322 0.0988906 0)
(-0.0370541 0.0856614 0)
(-0.0384955 0.0700184 0)
(-0.0408761 0.0520331 0)
(-0.0422711 0.0304565 0)
(-0.0448063 0.00715985 0)
(-0.0454752 -0.019294 0)
(-0.0478834 -0.0450748 0)
(-0.0472341 -0.0728431 0)
(-0.0494064 -0.0961253 0)
(-0.0469932 -0.120924 0)
(-0.0491414 -0.137745 0)
(-0.0451373 -0.158884 0)
(-0.0483479 -0.171679 0)
(-0.0453864 -0.200567 0)
(-0.0542075 -0.233532 0)
(-0.0563483 -0.303785 0)
(-0.0557465 -0.342093 0)
(-0.025208 -0.271146 0)
(0.00212928 0.0862938 0)
(-0.00210591 0.157582 0)
(-0.00895095 0.19694 0)
(-0.0140608 0.220596 0)
(-0.0176783 0.226796 0)
(-0.0187228 0.214338 0)
(-0.0190098 0.191532 0)
(-0.0181362 0.16605 0)
(-0.0175835 0.143666 0)
(-0.0166566 0.125545 0)
(-0.0165686 0.111589 0)
(-0.0162011 0.0990251 0)
(-0.0168875 0.0863666 0)
(-0.0170394 0.0710732 0)
(-0.0185446 0.0534557 0)
(-0.0189634 0.032007 0)
(-0.0213049 0.00891575 0)
(-0.0216387 -0.0176414 0)
(-0.0248291 -0.0434038 0)
(-0.0246361 -0.0715409 0)
(-0.0286178 -0.0949998 0)
(-0.0272878 -0.120363 0)
(-0.0318958 -0.137281 0)
(-0.0290244 -0.158791 0)
(-0.0345248 -0.170597 0)
(-0.0313664 -0.198021 0)
(-0.0411905 -0.227631 0)
(-0.0431185 -0.302238 0)
(-0.0475996 -0.355532 0)
(-0.0218636 -0.309253 0)
(0.00381108 0.0843937 0)
(0.00427956 0.161361 0)
(0.00156152 0.201674 0)
(-0.000466901 0.224741 0)
(-0.00174557 0.229575 0)
(-0.00178442 0.216457 0)
(-0.00177627 0.19301 0)
(-0.00106777 0.167156 0)
(-0.000582544 0.144442 0)
(0.000645538 0.126087 0)
(0.00137922 0.11207 0)
(0.00289304 0.0995025 0)
(0.00332767 0.0870932 0)
(0.00459 0.0720148 0)
(0.00397748 0.0548193 0)
(0.00465979 0.0336345 0)
(0.00250659 0.0109824 0)
(0.00263415 -0.015373 0)
(-0.0013776 -0.040756 0)
(-0.00156854 -0.0688746 0)
(-0.00744149 -0.0921603 0)
(-0.00725004 -0.117842 0)
(-0.0145414 -0.13478 0)
(-0.013033 -0.156805 0)
(-0.0213278 -0.168088 0)
(-0.0185046 -0.194483 0)
(-0.0300233 -0.220137 0)
(-0.0315754 -0.297008 0)
(-0.04106 -0.362954 0)
(-0.019031 -0.342014 0)
(0.00522882 0.0780534 0)
(0.0101258 0.159252 0)
(0.0116021 0.201291 0)
(0.0124386 0.223506 0)
(0.0132115 0.228132 0)
(0.014148 0.214608 0)
(0.0142555 0.191234 0)
(0.0148129 0.165152 0)
(0.0150553 0.142272 0)
(0.0165482 0.123664 0)
(0.0177872 0.10958 0)
(0.0204586 0.0970606 0)
(0.021974 0.0850487 0)
(0.0247682 0.0704747 0)
(0.0250821 0.0540747 0)
(0.0270294 0.0336362 0)
(0.025095 0.0119542 0)
(0.0258356 -0.0135883 0)
(0.0210515 -0.0379758 0)
(0.0206297 -0.0654808 0)
(0.0129492 -0.0880533 0)
(0.0121347 -0.113606 0)
(0.00214473 -0.130263 0)
(0.00228329 -0.152696 0)
(-0.00915445 -0.163809 0)
(-0.00710323 -0.190132 0)
(-0.0211046 -0.21284 0)
(-0.0221993 -0.291212 0)
(-0.0363188 -0.367213 0)
(-0.0165565 -0.370463 0)
(0.00587429 0.0690872 0)
(0.0151222 0.154582 0)
(0.0204757 0.199171 0)
(0.0241787 0.222977 0)
(0.0271634 0.228091 0)
(0.029215 0.215902 0)
(0.0298534 0.193033 0)
(0.0304502 0.166945 0)
(0.0306338 0.143358 0)
(0.0323665 0.123717 0)
(0.033959 0.108724 0)
(0.037606 0.0955191 0)
(0.0399328 0.0834462 0)
(0.0441211 0.0691074 0)
(0.045143 0.0534809 0)
(0.0483162 0.0338762 0)
(0.0464586 0.0133833 0)
(0.0478437 -0.0111029 0)
(0.0422769 -0.0341697 0)
(0.0417347 -0.0607503 0)
(0.0323008 -0.0822687 0)
(0.030637 -0.107394 0)
(0.0179996 -0.123569 0)
(0.016961 -0.146285 0)
(0.00232489 -0.157256 0)
(0.0036646 -0.183586 0)
(-0.0133711 -0.203244 0)
(-0.0139196 -0.282271 0)
(-0.032959 -0.367345 0)
(-0.014346 -0.395827 0)
(0.00591746 0.0569688 0)
(0.0188275 0.143968 0)
(0.0281966 0.191919 0)
(0.0346589 0.216348 0)
(0.0396259 0.223114 0)
(0.0429824 0.212003 0)
(0.0440284 0.190382 0)
(0.0448218 0.164539 0)
(0.0447274 0.140682 0)
(0.0465653 0.120294 0)
(0.0481175 0.104601 0)
(0.0524848 0.0909029 0)
(0.0552679 0.0789186 0)
(0.0607247 0.065092 0)
(0.0622821 0.0505417 0)
(0.0667202 0.0322099 0)
(0.0649426 0.0133835 0)
(0.0670901 -0.0095258 0)
(0.0608506 -0.0307121 0)
(0.0603908 -0.055795 0)
(0.0493851 -0.0757291 0)
(0.0471788 -0.0999386 0)
(0.0320958 -0.115301 0)
(0.0302176 -0.138062 0)
(0.0124283 -0.149008 0)
(0.0132474 -0.175805 0)
(-0.00719181 -0.193313 0)
(-0.00682913 -0.27263 0)
(-0.0308906 -0.365183 0)
(-0.0121214 -0.418681 0)
(0.00472466 0.0445146 0)
(0.0210234 0.131894 0)
(0.0340082 0.18323 0)
(0.0435109 0.211389 0)
(0.0510128 0.219992 0)
(0.0561222 0.211887 0)
(0.0583906 0.191893 0)
(0.0597832 0.166778 0)
(0.0597241 0.142372 0)
(0.0616187 0.120644 0)
(0.0628373 0.103493 0)
(0.0675003 0.0884628 0)
(0.0701704 0.0759405 0)
(0.076452 0.062096 0)
(0.078074 0.0484155 0)
(0.0835084 0.0312098 0)
(0.0815768 0.0141773 0)
(0.0844267 -0.00706738 0)
(0.0774617 -0.0261455 0)
(0.0772362 -0.0495426 0)
(0.0647674 -0.0676664 0)
(0.0623534 -0.0907469 0)
(0.0450149 -0.105132 0)
(0.0427488 -0.127744 0)
(0.0219121 -0.138541 0)
(0.0225827 -0.165584 0)
(-0.00166841 -0.180943 0)
(-0.000116866 -0.260112 0)
(-0.0298272 -0.360011 0)
(-0.00972872 -0.439795 0)
(0.0030253 0.0312123 0)
(0.0211649 0.1139 0)
(0.0379165 0.169119 0)
(0.0503044 0.198694 0)
(0.0599261 0.210458 0)
(0.067069 0.204462 0)
(0.0704372 0.187059 0)
(0.0729199 0.163212 0)
(0.0729534 0.139228 0)
(0.0751223 0.117016 0)
(0.0757794 0.0990562 0)
(0.0805644 0.0832176 0)
(0.0826405 0.0703775 0)
(0.0894433 0.0567636 0)
(0.0907436 0.0440976 0)
(0.0970047 0.0282803 0)
(0.094782 0.0133102 0)
(0.0984144 -0.00588281 0)
(0.0908023 -0.0225028 0)
(0.0911079 -0.0437672 0)
(0.0774102 -0.0597116 0)
(0.0752576 -0.0812284 0)
(0.0559787 -0.0943739 0)
(0.0538636 -0.116497 0)
(0.0301451 -0.127095 0)
(0.0310947 -0.154339 0)
(0.0027919 -0.1682 0)
(0.00610951 -0.24675 0)
(-0.0297485 -0.353088 0)
(-0.00689555 -0.459397 0)
(0.000643785 0.0207194 0)
(0.0194265 0.0967015 0)
(0.0390134 0.154068 0)
(0.0546135 0.189219 0)
(0.0674012 0.203412 0)
(0.0772853 0.201613 0)
(0.0830556 0.186732 0)
(0.0873714 0.164698 0)
(0.0882349 0.141071 0)
(0.0909753 0.118093 0)
(0.0910912 0.0989323 0)
(0.0957241 0.0816125 0)
(0.0966981 0.067938 0)
(0.103394 0.0538224 0)
(0.103745 0.0418348 0)
(0.110297 0.026914 0)
(0.107317 0.0139121 0)
(0.111542 -0.00343871 0)
(0.103078 -0.0175438 0)
(0.10408 -0.0367184 0)
(0.0891825 -0.0503815 0)
(0.0877383 -0.07028 0)
(0.0666619 -0.0820542 0)
(0.0652073 -0.10344 0)
(0.0385886 -0.113576 0)
(0.0401591 -0.140526 0)
(0.00732706 -0.152947 0)
(0.0128204 -0.230405 0)
(-0.0302282 -0.343752 0)
(-0.00331772 -0.477804 0)
(-0.000290672 0.0112008 0)
(0.0160262 0.0746215 0)
(0.037774 0.133653 0)
(0.055836 0.169375 0)
(0.0704752 0.187646 0)
(0.0832964 0.188266 0)
(0.0911461 0.177226 0)
(0.0982669 0.1578 0)
(0.100526 0.136093 0)
(0.104914 0.113873 0)
(0.104971 0.094801 0)
(0.110062 0.077133 0)
(0.109909 0.0632316 0)
(0.116576 0.0490987 0)
(0.115561 0.0378336 0)
(0.122338 0.0240191 0)
(0.118171 0.0128643 0)
(0.123091 -0.00243272 0)
(0.11359 -0.0140887 0)
(0.115652 -0.0308993 0)
(0.099633 -0.0422511 0)
(0.0994112 -0.0601716 0)
(0.0766855 -0.0704179 0)
(0.0763013 -0.0905389 0)
(0.0467321 -0.1 0)
(0.0491248 -0.126143 0)
(0.011393 -0.137735 0)
(0.0195666 -0.213152 0)
(-0.031419 -0.333048 0)
(0.00130547 -0.49482 0)
(-0.00132135 0.00548819 0)
(0.0113811 0.0586358 0)
(0.0326842 0.114419 0)
(0.0532449 0.156512 0)
(0.0716099 0.176086 0)
(0.0881485 0.180995 0)
(0.0997738 0.172372 0)
(0.110552 0.155534 0)
(0.115295 0.135446 0)
(0.122066 0.11382 0)
(0.122735 0.0949198 0)
(0.128644 0.0766282 0)
(0.127588 0.0625598 0)
(0.134141 0.0479082 0)
(0.131509 0.0372535 0)
(0.138167 0.0238911 0)
(0.132356 0.0144514 0)
(0.137691 0.000577102 0)
(0.126736 -0.00865328 0)
(0.129812 -0.0235738 0)
(0.112323 -0.0324634 0)
(0.113469 -0.0485651 0)
(0.0887022 -0.056863 0)
(0.0895925 -0.0753809 0)
(0.0565771 -0.0835501 0)
(0.0600026 -0.108186 0)
(0.0167455 -0.119162 0)
(0.0282815 -0.191938 0)
(-0.0319653 -0.320033 0)
(0.00773644 -0.510099 0)
(0.000856848 0.0011044 0)
(0.00800048 0.039665 0)
(0.02568 0.0916325 0)
(0.0464938 0.129208 0)
(0.0646277 0.152498 0)
(0.0850409 0.159002 0)
(0.0995838 0.154893 0)
(0.115561 0.141597 0)
(0.123689 0.125083 0)
(0.134861 0.105928 0)
(0.137332 0.0889208 0)
(0.145957 0.0716827 0)
(0.144691 0.0584771 0)
(0.152602 0.0444346 0)
(0.148337 0.0346005 0)
(0.155861 0.0223079 0)
(0.14788 0.0142296 0)
(0.15432 0.00217221 0)
(0.141228 -0.00518753 0)
(0.145911 -0.0177896 0)
(0.126375 -0.0246966 0)
(0.129403 -0.038377 0)
(0.102202 -0.0449774 0)
(0.104665 -0.0611254 0)
(0.0678633 -0.0681055 0)
(0.0722306 -0.0905394 0)
(0.023072 -0.102074 0)
(0.0379141 -0.170604 0)
(-0.0318274 -0.306065 0)
(0.0165554 -0.522241 0)
(-0.00185259 -0.0031949 0)
(0.000652388 0.0347093 0)
(0.0135862 0.0762891 0)
(0.0344859 0.118264 0)
(0.0568349 0.137632 0)
(0.0811496 0.145977 0)
(0.100365 0.142272 0)
(0.121564 0.131209 0)
(0.133739 0.117148 0)
(0.149737 0.100027 0)
(0.154712 0.0851614 0)
(0.166732 0.069066 0)
(0.166107 0.0573646 0)
(0.175961 0.0439105 0)
(0.170847 0.0355112 0)
(0.17943 0.023825 0)
(0.169771 0.0176237 0)
(0.177087 0.0064946 0)
(0.161949 0.00158279 0)
(0.167774 -0.00976682 0)
(0.145787 -0.0138124 0)
(0.150281 -0.0259147 0)
(0.119644 -0.0294293 0)
(0.123758 -0.0433212 0)
(0.0818086 -0.0473894 0)
(0.0886395 -0.0670325 0)
(0.0327952 -0.0789282 0)
(0.0539618 -0.14261 0)
(-0.0254601 -0.288668 0)
(0.0301609 -0.528924 0)
(0.00458606 0.00272057 0)
(0.00316511 0.0231507 0)
(-0.00184784 0.0581212 0)
(0.0155938 0.0842776 0)
(0.0328362 0.105455 0)
(0.0628325 0.113555 0)
(0.08515 0.114175 0)
(0.114244 0.106742 0)
(0.130974 0.0972109 0)
(0.154363 0.0838951 0)
(0.162631 0.0726547 0)
(0.180636 0.0593533 0)
(0.181101 0.0501336 0)
(0.19552 0.0387078 0)
(0.189333 0.0320711 0)
(0.201607 0.022285 0)
(0.189177 0.0175767 0)
(0.200037 0.00872104 0)
(0.180965 0.00522842 0)
(0.190768 -0.00321529 0)
(0.164105 -0.00595044 0)
(0.173313 -0.0144193 0)
(0.137621 -0.0169207 0)
(0.14728 -0.0266209 0)
(0.100288 -0.0307249 0)
(0.113281 -0.0469441 0)
(0.051532 -0.0629065 0)
(0.0778228 -0.120449 0)
(-0.00959831 -0.271094 0)
(0.0504293 -0.522567 0)
(-0.0208901 -0.0128659 0)
(-0.0207868 0.043785 0)
(-0.0132619 0.064121 0)
(-0.00478253 0.0859285 0)
(0.0194816 0.0905628 0)
(0.0512342 0.0937118 0)
(0.0779273 0.0909428 0)
(0.111767 0.0845141 0)
(0.132328 0.0777434 0)
(0.161014 0.0675582 0)
(0.171913 0.0601668 0)
(0.194793 0.049958 0)
(0.196232 0.0440748 0)
(0.214877 0.0350532 0)
(0.208063 0.0312105 0)
(0.224212 0.0232103 0)
(0.209916 0.0211776 0)
(0.224909 0.0136458 0)
(0.203105 0.013127 0)
(0.218079 0.0055712 0)
(0.187939 0.00639952 0)
(0.204292 -0.00160685 0)
(0.163952 0.000207778 0)
(0.183858 -0.00902218 0)
(0.129824 -0.0081792 0)
(0.157137 -0.0222812 0)
(0.0850657 -0.0347526 0)
(0.129367 -0.0851452 0)
(0.0413216 -0.23803 0)
(0.0886932 -0.49209 0)
(-0.083305 0.0490133 0)
(-0.0804899 0.0132987 0)
(-0.106381 0.0433183 0)
(-0.0649136 0.0476685 0)
(-0.0456225 0.0481821 0)
(0.00298379 0.0518292 0)
(0.0316329 0.0526234 0)
(0.0779368 0.0497955 0)
(0.100416 0.0477147 0)
(0.141885 0.042361 0)
(0.153153 0.0392225 0)
(0.190282 0.0333834 0)
(0.190074 0.0307087 0)
(0.22485 0.0253024 0)
(0.214061 0.0235698 0)
(0.248835 0.018804 0)
(0.22793 0.017857 0)
(0.264959 0.0137583 0)
(0.233586 0.0131856 0)
(0.275091 0.00992243 0)
(0.232167 0.00912401 0)
(0.280528 0.00705342 0)
(0.224427 0.00500129 0)
(0.282132 0.00399129 0)
(0.211022 -0.00198131 0)
(0.27991 -0.00749374 0)
(0.192569 -0.0305541 0)
(0.269593 -0.080069 0)
(0.156492 -0.21096 0)
(0.149779 -0.40756 0)
(0.0824527 0.132699 0)
(0.121697 0.0742857 0)
(0.15923 0.0509322 0)
(0.213696 0.0306595 0)
(0.233641 0.0232525 0)
(0.282628 0.0167844 0)
(0.298499 0.0155465 0)
(0.349541 0.0142357 0)
(0.359938 0.0139968 0)
(0.411022 0.0133128 0)
(0.413645 0.0127961 0)
(0.463494 0.0119082 0)
(0.457266 0.0111157 0)
(0.506166 0.0101475 0)
(0.491117 0.00925136 0)
(0.54013 0.00836477 0)
(0.516609 0.0074806 0)
(0.56691 0.00670051 0)
(0.535209 0.00595248 0)
(0.587833 0.00511747 0)
(0.548108 0.00476473 0)
(0.603886 0.00337927 0)
(0.556045 0.00395557 0)
(0.615403 0.000728703 0)
(0.557982 0.00294993 0)
(0.61932 -0.00600598 0)
(0.542115 -0.00357539 0)
(0.588621 -0.0340816 0)
(0.423558 -0.052508 0)
(0.309574 -0.178556 0)
)
;

boundaryField
{
    movingWall
    {
        type            fixedValue;
        value           uniform (1 0 0);
    }
    fixedWalls
    {
        type            noSlip;
    }
    frontAndBack
    {
        type            empty;
    }
}


// ************************************************************************* //
