/*--------------------------------*- C++ -*----------------------------------*\
| =========                 |                                                 |
| \\      /  F ield         | OpenFOAM: The Open Source CFD Toolbox           |
|  \\    /   O peration     | Version:  2406                                  |
|   \\  /    A nd           | Website:  www.openfoam.com                      |
|    \\/     M anipulation  |                                                 |
\*---------------------------------------------------------------------------*/
FoamFile
{
    version     2.0;
    format      ascii;
    arch        "LSB;label=32;scalar=64";
    class       volVectorField;
    location    "47";
    object      Uc;
}
// * * * * * * * * * * * * * * * * * * * * * * * * * * * * * * * * * * * * * //

dimensions      [0 1 -1 0 0 0 0];

internalField   nonuniform List<vector> 
900
(
(0.000286886 -0.000532368 0)
(0.00369558 -0.00129161 0)
(0.00753482 -0.00100542 0)
(0.00907916 -0.000542912 0)
(0.00953205 -0.000472601 0)
(0.00933672 -0.000791186 0)
(0.00927395 -0.0012294 0)
(0.00915786 -0.0017197 0)
(0.00815186 -0.0032395 0)
(0.00352184 -0.00508589 0)
(-0.00712891 -0.00304465 0)
(-0.0250991 0.00377907 0)
(-0.0491944 0.0102733 0)
(-0.0745889 0.0127554 0)
(-0.0968982 0.0120387 0)
(-0.113823 0.00970242 0)
(-0.124029 0.00642704 0)
(-0.126662 0.00260486 0)
(-0.121421 -0.00152076 0)
(-0.107934 -0.00568743 0)
(-0.0869344 -0.00952503 0)
(-0.0588879 -0.0124161 0)
(-0.0271085 -0.0135248 0)
(0.0057519 -0.0118052 0)
(0.0316379 -0.00612136 0)
(0.0450471 0.00153244 0)
(0.0405618 0.00736575 0)
(0.0260511 0.00742674 0)
(0.012263 0.00490565 0)
(0.00149656 0.00184825 0)
(0.00122778 -0.00344199 0)
(0.00715099 -0.00613086 0)
(0.0128426 -0.00438165 0)
(0.0146551 -0.00149797 0)
(0.013927 0.000256139 0)
(0.0106002 0.00105704 0)
(0.00419916 0.00143991 0)
(-0.00909606 0.00281037 0)
(-0.0326802 0.00902174 0)
(-0.0663401 0.0208826 0)
(-0.104944 0.0322907 0)
(-0.141138 0.0386349 0)
(-0.170903 0.0391468 0)
(-0.193689 0.0346397 0)
(-0.20984 0.0268837 0)
(-0.219229 0.0171459 0)
(-0.221722 0.00615645 0)
(-0.217117 -0.00561064 0)
(-0.205304 -0.0177732 0)
(-0.186045 -0.0298447 0)
(-0.159587 -0.0408576 0)
(-0.126212 -0.0493835 0)
(-0.0876703 -0.0529105 0)
(-0.046409 -0.0487661 0)
(-0.00774613 -0.0336582 0)
(0.0219152 -0.0107234 0)
(0.0336808 0.0120636 0)
(0.0278478 0.0205859 0)
(0.0161724 0.0199829 0)
(0.00235021 0.0118425 0)
(0.00217672 -0.00881047 0)
(0.00872428 -0.013013 0)
(0.0131146 -0.00847017 0)
(0.0120503 -0.00168889 0)
(0.00653817 0.00356485 0)
(-0.00562849 0.0088291 0)
(-0.0281247 0.0183845 0)
(-0.0636714 0.0350991 0)
(-0.108105 0.053533 0)
(-0.151662 0.0659235 0)
(-0.188536 0.0703641 0)
(-0.217507 0.0685543 0)
(-0.239025 0.0615214 0)
(-0.254157 0.0502689 0)
(-0.263871 0.0362296 0)
(-0.268606 0.0203353 0)
(-0.26867 0.00317765 0)
(-0.263986 -0.0149907 0)
(-0.254389 -0.0338168 0)
(-0.23938 -0.0529426 0)
(-0.21847 -0.0710066 0)
(-0.191084 -0.0863628 0)
(-0.156838 -0.0949082 0)
(-0.11662 -0.0930263 0)
(-0.0717686 -0.0741369 0)
(-0.028695 -0.0394706 0)
(0.00376393 0.00221549 0)
(0.0112453 0.0243713 0)
(0.00916438 0.0302634 0)
(0.000236992 0.0197441 0)
(0.00286316 -0.0142442 0)
(0.00765636 -0.0171633 0)
(0.00734115 -0.00759186 0)
(-0.000445194 0.00514884 0)
(-0.0165845 0.0180374 0)
(-0.0447855 0.0357524 0)
(-0.0856984 0.059289 0)
(-0.132249 0.0819954 0)
(-0.17472 0.0960652 0)
(-0.209002 0.100538 0)
(-0.235336 0.0973321 0)
(-0.254282 0.0883174 0)
(-0.26705 0.0750623 0)
(-0.275045 0.0588817 0)
(-0.279479 0.0408413 0)
(-0.281045 0.0214672 0)
(-0.280235 0.00102024 0)
(-0.277106 -0.0206226 0)
(-0.271594 -0.0433299 0)
(-0.263146 -0.0672009 0)
(-0.251014 -0.0909115 0)
(-0.233856 -0.113321 0)
(-0.20986 -0.129505 0)
(-0.177476 -0.1357 0)
(-0.134497 -0.121711 0)
(-0.0841135 -0.0858336 0)
(-0.0307911 -0.0263378 0)
(-0.00140509 0.015207 0)
(0.00356513 0.0314479 0)
(-0.00150953 0.0212344 0)
(0.00265017 -0.0193062 0)
(0.00285252 -0.0175851 0)
(-0.00518712 -0.000269579 0)
(-0.0230324 0.0222521 0)
(-0.0522583 0.0477966 0)
(-0.0927668 0.077433 0)
(-0.137859 0.105009 0)
(-0.178358 0.123099 0)
(-0.209859 0.128998 0)
(-0.232612 0.125208 0)
(-0.247794 0.114595 0)
(-0.256807 0.09955 0)
(-0.261483 0.0818063 0)
(-0.263137 0.0624136 0)
(-0.263073 0.0421224 0)
(-0.261883 0.0210789 0)
(-0.260229 -0.000672571 0)
(-0.258184 -0.0236092 0)
(-0.256019 -0.0477749 0)
(-0.253298 -0.0738645 0)
(-0.249693 -0.100858 0)
(-0.24361 -0.128718 0)
(-0.233021 -0.152711 0)
(-0.214324 -0.170065 0)
(-0.182937 -0.168483 0)
(-0.136238 -0.143464 0)
(-0.0738595 -0.0801874 0)
(-0.0138815 -0.0102803 0)
(0.00320116 0.0305809 0)
(-0.00169856 0.0215294 0)
(0.000659778 -0.0196328 0)
(-0.00678153 -0.00915757 0)
(-0.0243919 0.0186224 0)
(-0.0519983 0.0523931 0)
(-0.0892924 0.0875768 0)
(-0.131097 0.120789 0)
(-0.169494 0.143968 0)
(-0.198542 0.152988 0)
(-0.217935 0.149592 0)
(-0.229461 0.138152 0)
(-0.234835 0.121532 0)
(-0.236063 0.102306 0)
(-0.234819 0.0819085 0)
(-0.232295 0.0611432 0)
(-0.229496 0.0403851 0)
(-0.226757 0.0194545 0)
(-0.2246 -0.00176003 0)
(-0.222955 -0.0239954 0)
(-0.222308 -0.047308 0)
(-0.222368 -0.0729053 0)
(-0.223603 -0.10003 0)
(-0.224854 -0.130072 0)
(-0.22527 -0.159189 0)
(-0.220866 -0.186956 0)
(-0.206623 -0.201069 0)
(-0.175603 -0.196202 0)
(-0.121362 -0.149169 0)
(-0.0472326 -0.0625683 0)
(0.00667127 0.019733 0)
(-0.00244238 0.022712 0)
(-0.00239141 -0.0133309 0)
(-0.0179655 0.00751419 0)
(-0.0437296 0.0449397 0)
(-0.0767354 0.0869328 0)
(-0.1149 0.126235 0)
(-0.151117 0.156667 0)
(-0.179377 0.171465 0)
(-0.197117 0.17085 0)
(-0.206612 0.159581 0)
(-0.209837 0.142156 0)
(-0.209039 0.121555 0)
(-0.206172 0.100113 0)
(-0.202568 0.0787584 0)
(-0.199011 0.0578819 0)
(-0.196025 0.0374683 0)
(-0.193557 0.0170688 0)
(-0.191887 -0.00345439 0)
(-0.190673 -0.0249404 0)
(-0.190452 -0.0471782 0)
(-0.190801 -0.0715693 0)
(-0.192766 -0.0971085 0)
(-0.195529 -0.126258 0)
(-0.199983 -0.155875 0)
(-0.203129 -0.188739 0)
(-0.202209 -0.214279 0)
(-0.189304 -0.230277 0)
(-0.153849 -0.209444 0)
(-0.0936356 -0.141274 0)
(-0.00474381 -0.0128727 0)
(0.00300746 0.0251701 0)
(-0.0055341 0.000521863 0)
(-0.0277824 0.0322929 0)
(-0.0583927 0.0772096 0)
(-0.0922247 0.123169 0)
(-0.126755 0.161117 0)
(-0.154833 0.184469 0)
(-0.17329 0.18942 0)
(-0.182192 0.180159 0)
(-0.184843 0.162635 0)
(-0.183165 0.141199 0)
(-0.179633 0.118629 0)
(-0.175638 0.0966527 0)
(-0.17205 0.0755749 0)
(-0.169132 0.0553721 0)
(-0.167037 0.0357162 0)
(-0.165462 0.016002 0)
(-0.16462 -0.00385928 0)
(-0.164004 -0.0247942 0)
(-0.164258 -0.0462935 0)
(-0.164662 -0.0699407 0)
(-0.166562 -0.0942062 0)
(-0.168839 -0.122161 0)
(-0.17354 -0.150408 0)
(-0.17818 -0.184215 0)
(-0.183197 -0.214615 0)
(-0.181313 -0.244843 0)
(-0.164877 -0.247137 0)
(-0.124707 -0.212769 0)
(-0.0429279 -0.0773947 0)
(0.0182869 0.0210556 0)
(-0.00735086 0.0192635 0)
(-0.033167 0.0599542 0)
(-0.0650468 0.108501 0)
(-0.0965344 0.154365 0)
(-0.125587 0.187744 0)
(-0.145833 0.202495 0)
(-0.156832 0.198567 0)
(-0.159974 0.182624 0)
(-0.158959 0.161046 0)
(-0.155346 0.137602 0)
(-0.151566 0.114729 0)
(-0.148105 0.0932123 0)
(-0.145571 0.072931 0)
(-0.143671 0.0534766 0)
(-0.142528 0.034461 0)
(-0.141628 0.0152096 0)
(-0.141353 -0.00419463 0)
(-0.140995 -0.0247728 0)
(-0.141456 -0.0456786 0)
(-0.141623 -0.0687553 0)
(-0.143219 -0.0918912 0)
(-0.144526 -0.118758 0)
(-0.148492 -0.145253 0)
(-0.152356 -0.178504 0)
(-0.159212 -0.210117 0)
(-0.162353 -0.248365 0)
(-0.158634 -0.267991 0)
(-0.133789 -0.2632 0)
(-0.0789476 -0.161238 0)
(0.0122285 0.00227345 0)
(-0.00782504 0.0402498 0)
(-0.0343593 0.0894502 0)
(-0.0650365 0.139476 0)
(-0.0926216 0.182749 0)
(-0.115883 0.209508 0)
(-0.129643 0.215464 0)
(-0.13548 0.203782 0)
(-0.135416 0.182913 0)
(-0.132931 0.158762 0)
(-0.129254 0.134605 0)
(-0.126352 0.112134 0)
(-0.123994 0.0913221 0)
(-0.122639 0.0717787 0)
(-0.121634 0.0528559 0)
(-0.121273 0.0342653 0)
(-0.120876 0.0152631 0)
(-0.121109 -0.00386191 0)
(-0.121012 -0.0243168 0)
(-0.121826 -0.044915 0)
(-0.121931 -0.0678516 0)
(-0.123471 -0.0903393 0)
(-0.123866 -0.116575 0)
(-0.126839 -0.141317 0)
(-0.128776 -0.173074 0)
(-0.135215 -0.203194 0)
(-0.139808 -0.244964 0)
(-0.14373 -0.275668 0)
(-0.131631 -0.29367 0)
(-0.0949063 -0.22607 0)
(-0.0195923 -0.0439636 0)
(-0.00696873 0.0604061 0)
(-0.0317413 0.116258 0)
(-0.059147 0.165366 0)
(-0.082066 0.204128 0)
(-0.100101 0.22398 0)
(-0.10914 0.222034 0)
(-0.112129 0.204683 0)
(-0.110832 0.180678 0)
(-0.10847 0.155513 0)
(-0.105705 0.131623 0)
(-0.104074 0.110012 0)
(-0.102803 0.0899607 0)
(-0.102399 0.0710515 0)
(-0.101955 0.0524855 0)
(-0.102069 0.0342041 0)
(-0.101851 0.0153688 0)
(-0.102348 -0.0034717 0)
(-0.102269 -0.0237855 0)
(-0.103344 -0.0440332 0)
(-0.103386 -0.0669165 0)
(-0.105173 -0.089027 0)
(-0.10511 -0.115268 0)
(-0.107722 -0.139118 0)
(-0.107814 -0.169935 0)
(-0.112769 -0.197541 0)
(-0.115587 -0.239329 0)
(-0.122626 -0.275287 0)
(-0.11802 -0.312784 0)
(-0.0937098 -0.274835 0)
(-0.036098 -0.11369 0)
(-0.00525728 0.0781277 0)
(-0.0265766 0.140814 0)
(-0.0498708 0.188546 0)
(-0.0682193 0.222883 0)
(-0.0818458 0.236175 0)
(-0.0876972 0.227846 0)
(-0.0891777 0.206121 0)
(-0.0877356 0.180071 0)
(-0.0860764 0.154397 0)
(-0.0844448 0.130896 0)
(-0.083921 0.109847 0)
(-0.0835046 0.0901576 0)
(-0.0837758 0.0714727 0)
(-0.0836981 0.0529242 0)
(-0.0841622 0.0347137 0)
(-0.0840356 0.015855 0)
(-0.0847651 -0.00281355 0)
(-0.0846353 -0.0230892 0)
(-0.0859466 -0.0430225 0)
(-0.0858399 -0.0658922 0)
(-0.0879322 -0.0876389 0)
(-0.0875415 -0.114024 0)
(-0.0903348 -0.137386 0)
(-0.089293 -0.168069 0)
(-0.0934207 -0.193871 0)
(-0.0937474 -0.2348 0)
(-0.100992 -0.271938 0)
(-0.0987271 -0.322844 0)
(-0.0831272 -0.311435 0)
(-0.0340169 -0.177802 0)
(-0.00292101 0.0914547 0)
(-0.0196992 0.159966 0)
(-0.0381481 0.205826 0)
(-0.0521201 0.235346 0)
(-0.0621806 0.243192 0)
(-0.0660108 0.229731 0)
(-0.0671144 0.20527 0)
(-0.0661938 0.178175 0)
(-0.0656029 0.152742 0)
(-0.0650472 0.129891 0)
(-0.0654444 0.109469 0)
(-0.0656337 0.0901134 0)
(-0.0663931 0.0716352 0)
(-0.066531 0.0531053 0)
(-0.0672707 0.0350004 0)
(-0.0671522 0.016148 0)
(-0.0680877 -0.00229374 0)
(-0.0678289 -0.0225006 0)
(-0.0693737 -0.0420702 0)
(-0.0690468 -0.0649229 0)
(-0.071503 -0.0863328 0)
(-0.0707898 -0.112985 0)
(-0.0740276 -0.136104 0)
(-0.0721558 -0.167059 0)
(-0.0761397 -0.19152 0)
(-0.0743313 -0.231619 0)
(-0.0817456 -0.268555 0)
(-0.0805467 -0.330153 0)
(-0.0721453 -0.34191 0)
(-0.0304014 -0.234696 0)
(-0.000411653 0.100265 0)
(-0.0119663 0.175331 0)
(-0.025569 0.220072 0)
(-0.0356168 0.246462 0)
(-0.0427336 0.25012 0)
(-0.0453566 0.23343 0)
(-0.0463978 0.207071 0)
(-0.046134 0.179349 0)
(-0.0463843 0.153945 0)
(-0.0466144 0.131322 0)
(-0.0476147 0.111009 0)
(-0.0481958 0.0915466 0)
(-0.0493182 0.0729238 0)
(-0.0496134 0.0541323 0)
(-0.0506469 0.035928 0)
(-0.0505448 0.0168948 0)
(-0.0517603 -0.00144557 0)
(-0.0513753 -0.0217011 0)
(-0.0532317 -0.040953 0)
(-0.0526554 -0.0637977 0)
(-0.0555812 -0.0848216 0)
(-0.0545724 -0.111702 0)
(-0.0585726 -0.134694 0)
(-0.0562364 -0.166318 0)
(-0.0607912 -0.190128 0)
(-0.0572126 -0.229367 0)
(-0.0645727 -0.263924 0)
(-0.0630303 -0.331824 0)
(-0.0611728 -0.362971 0)
(-0.0262164 -0.283337 0)
(0.0022291 0.10343 0)
(-0.00389647 0.184355 0)
(-0.012483 0.228707 0)
(-0.0189454 0.252046 0)
(-0.0236691 0.252994 0)
(-0.0255002 0.233877 0)
(-0.0268505 0.206599 0)
(-0.027269 0.178651 0)
(-0.0283172 0.153642 0)
(-0.0290828 0.13141 0)
(-0.0305059 0.111393 0)
(-0.0312681 0.092011 0)
(-0.0326476 0.0734388 0)
(-0.0329853 0.054563 0)
(-0.0342902 0.0364135 0)
(-0.0341514 0.0173104 0)
(-0.0356978 -0.000833446 0)
(-0.0351739 -0.0210775 0)
(-0.0374474 -0.0399595 0)
(-0.0366077 -0.0627452 0)
(-0.0401286 -0.0833239 0)
(-0.0387828 -0.110315 0)
(-0.0437311 -0.133061 0)
(-0.0410715 -0.16532 0)
(-0.0469229 -0.188922 0)
(-0.0424347 -0.228206 0)
(-0.0507504 -0.260808 0)
(-0.0486549 -0.332961 0)
(-0.0522579 -0.379148 0)
(-0.0224273 -0.324402 0)
(0.00457864 0.101755 0)
(0.00413005 0.189425 0)
(0.000328441 0.234595 0)
(-0.0028066 0.257417 0)
(-0.00527493 0.256965 0)
(-0.00650384 0.237323 0)
(-0.00792543 0.209618 0)
(-0.00882656 0.181547 0)
(-0.0102789 0.156443 0)
(-0.0112823 0.134047 0)
(-0.012886 0.113815 0)
(-0.0136655 0.0940996 0)
(-0.0152434 0.0752836 0)
(-0.0155688 0.0560683 0)
(-0.0172022 0.0377995 0)
(-0.0170297 0.018453 0)
(-0.0190402 0.000388187 0)
(-0.0184166 -0.0199564 0)
(-0.0213069 -0.0385401 0)
(-0.0202605 -0.0612975 0)
(-0.0246197 -0.0814357 0)
(-0.0229989 -0.108474 0)
(-0.0291664 -0.130928 0)
(-0.0262582 -0.16371 0)
(-0.03381 -0.187099 0)
(-0.0286978 -0.226176 0)
(-0.0386136 -0.255839 0)
(-0.0358579 -0.330008 0)
(-0.0449239 -0.388904 0)
(-0.019202 -0.359696 0)
(0.00671569 0.0945253 0)
(0.011681 0.187828 0)
(0.0127553 0.235153 0)
(0.0127369 0.257271 0)
(0.0122321 0.256884 0)
(0.0116502 0.236964 0)
(0.010044 0.209449 0)
(0.00882804 0.181392 0)
(0.00702333 0.156493 0)
(0.00601267 0.134221 0)
(0.00436607 0.114143 0)
(0.00380886 0.0944838 0)
(0.0021687 0.0757877 0)
(0.00205677 0.0565599 0)
(0.000161344 0.0384463 0)
(0.000494288 0.0190869 0)
(-0.00201883 0.00128407 0)
(-0.00124185 -0.0190004 0)
(-0.00489732 -0.0371729 0)
(-0.00365176 -0.0597706 0)
(-0.00907052 -0.0793704 0)
(-0.00720733 -0.106278 0)
(-0.0148709 -0.128279 0)
(-0.0118137 -0.161379 0)
(-0.0215826 -0.184725 0)
(-0.016307 -0.224209 0)
(-0.0286619 -0.251695 0)
(-0.0251968 -0.326657 0)
(-0.039295 -0.395 0)
(-0.0163244 -0.38984 0)
(0.00806219 0.0833056 0)
(0.0185609 0.182718 0)
(0.0242924 0.23321 0)
(0.0275151 0.257754 0)
(0.0293226 0.258414 0)
(0.0296392 0.240178 0)
(0.0284045 0.213237 0)
(0.0271582 0.185259 0)
(0.0253475 0.160004 0)
(0.0245302 0.13722 0)
(0.0229793 0.116752 0)
(0.0227758 0.0966867 0)
(0.0210875 0.077827 0)
(0.0212704 0.0583306 0)
(0.0190367 0.0402356 0)
(0.0195681 0.0207288 0)
(0.0163855 0.00311644 0)
(0.017312 -0.017167 0)
(0.0126497 -0.0349717 0)
(0.0140457 -0.0574168 0)
(0.00727187 -0.0764913 0)
(0.00930696 -0.103193 0)
(-0.00015962 -0.124663 0)
(0.00302365 -0.157782 0)
(-0.00930025 -0.180749 0)
(-0.00398329 -0.220124 0)
(-0.0195343 -0.244971 0)
(-0.0154998 -0.31978 0)
(-0.0349756 -0.396552 0)
(-0.0137615 -0.416364 0)
(0.00863122 0.0677378 0)
(0.024017 0.170664 0)
(0.0346221 0.225791 0)
(0.0410582 0.251766 0)
(0.0450032 0.254953 0)
(0.0465334 0.238187 0)
(0.0456047 0.212465 0)
(0.0445978 0.184757 0)
(0.0427722 0.159566 0)
(0.04238 0.13672 0)
(0.0410276 0.11635 0)
(0.0414777 0.0964095 0)
(0.0399117 0.0778567 0)
(0.0406967 0.0585563 0)
(0.0382442 0.040853 0)
(0.0392246 0.0215617 0)
(0.0353851 0.00441146 0)
(0.0366214 -0.0155866 0)
(0.0308481 -0.0328234 0)
(0.0324532 -0.0548838 0)
(0.0241187 -0.0732772 0)
(0.0263036 -0.0995384 0)
(0.0147426 -0.120319 0)
(0.0179706 -0.15318 0)
(0.00269127 -0.17576 0)
(0.00787439 -0.215205 0)
(-0.0115015 -0.238057 0)
(-0.00678945 -0.312037 0)
(-0.0317748 -0.395158 0)
(-0.0112066 -0.439523 0)
(0.00738752 0.050689 0)
(0.0277749 0.155997 0)
(0.0430757 0.21588 0)
(0.053319 0.247123 0)
(0.0602799 0.253259 0)
(0.0636871 0.240129 0)
(0.0640131 0.216004 0)
(0.0636654 0.188746 0)
(0.0621578 0.163092 0)
(0.0622872 0.139447 0)
(0.061126 0.118545 0)
(0.0622715 0.0981375 0)
(0.0607469 0.0795791 0)
(0.0622173 0.0601883 0)
(0.0594237 0.0427844 0)
(0.0609482 0.0236119 0)
(0.0562708 0.00692292 0)
(0.057887 -0.0127953 0)
(0.0507744 -0.0294334 0)
(0.0526216 -0.0510687 0)
(0.0424592 -0.0687453 0)
(0.0447888 -0.0944586 0)
(0.0308267 -0.114448 0)
(0.0340727 -0.146713 0)
(0.0154512 -0.168509 0)
(0.0203907 -0.207367 0)
(-0.00359083 -0.228 0)
(0.00166974 -0.300787 0)
(-0.0294917 -0.390152 0)
(-0.00855707 -0.460271 0)
(0.004498 0.032502 0)
(0.0285451 0.133931 0)
(0.048963 0.199785 0)
(0.0630541 0.233854 0)
(0.0727712 0.244682 0)
(0.0785731 0.234519 0)
(0.0801472 0.213035 0)
(0.0810584 0.18682 0)
(0.0799914 0.161508 0)
(0.0810635 0.137807 0)
(0.0801965 0.116962 0)
(0.0824265 0.0967197 0)
(0.0810734 0.0786289 0)
(0.0836398 0.0597018 0)
(0.0806173 0.0429842 0)
(0.0830678 0.0244061 0)
(0.077611 0.00849624 0)
(0.0799094 -0.0105537 0)
(0.0714484 -0.026336 0)
(0.0737398 -0.04722 0)
(0.0616489 -0.0639603 0)
(0.0641978 -0.0887962 0)
(0.0476087 -0.107775 0)
(0.0508126 -0.139039 0)
(0.0284842 -0.159889 0)
(0.0330745 -0.197938 0)
(0.00390845 -0.21685 0)
(0.00988603 -0.288004 0)
(-0.0280168 -0.382521 0)
(-0.00552299 -0.478609 0)
(0.000250899 0.0180302 0)
(0.0263906 0.110964 0)
(0.0515019 0.181119 0)
(0.0702411 0.222983 0)
(0.084196 0.237937 0)
(0.0934358 0.233098 0)
(0.0977738 0.214355 0)
(0.100696 0.189461 0)
(0.100656 0.164121 0)
(0.102833 0.139651 0)
(0.102191 0.118272 0)
(0.105436 0.0974872 0)
(0.104024 0.0795408 0)
(0.107702 0.0607162 0)
(0.10424 0.044645 0)
(0.107737 0.0265336 0)
(0.101318 0.0115021 0)
(0.104463 -0.00689258 0)
(0.0944619 -0.0216747 0)
(0.0973467 -0.0417391 0)
(0.083095 -0.0573796 0)
(0.0859514 -0.0811669 0)
(0.0664283 -0.0989162 0)
(0.0695533 -0.128778 0)
(0.0430501 -0.148257 0)
(0.0470912 -0.18474 0)
(0.0119092 -0.201903 0)
(0.0185234 -0.271269 0)
(-0.0271429 -0.371678 0)
(-0.00186727 -0.495015 0)
(-0.0018832 0.00602881 0)
(0.0210858 0.0814985 0)
(0.0503383 0.155499 0)
(0.0728919 0.200072 0)
(0.0900033 0.221418 0)
(0.103245 0.220577 0)
(0.11037 0.206286 0)
(0.116652 0.18395 0)
(0.118313 0.160107 0)
(0.122771 0.136219 0)
(0.12275 0.11517 0)
(0.127783 0.0946867 0)
(0.126372 0.0772726 0)
(0.13175 0.0591542 0)
(0.127811 0.0439784 0)
(0.13287 0.0268615 0)
(0.12546 0.0129328 0)
(0.129908 -0.00432552 0)
(0.11836 -0.0178858 0)
(0.122203 -0.0366856 0)
(0.105761 -0.0509844 0)
(0.109118 -0.0732546 0)
(0.0864831 -0.0894469 0)
(0.0894525 -0.117294 0)
(0.058381 -0.135052 0)
(0.0616773 -0.169378 0)
(0.0198984 -0.185281 0)
(0.0273221 -0.252354 0)
(-0.0269074 -0.358432 0)
(0.00276169 -0.509221 0)
(-0.00222265 -0.000527708 0)
(0.0143096 0.0583816 0)
(0.0444799 0.129338 0)
(0.0711728 0.183016 0)
(0.0934453 0.20761 0)
(0.111786 0.212729 0)
(0.123658 0.201661 0)
(0.134334 0.181795 0)
(0.138795 0.159187 0)
(0.146135 0.135452 0)
(0.147086 0.114598 0)
(0.154084 0.0939347 0)
(0.152585 0.0769953 0)
(0.159672 0.0591906 0)
(0.155069 0.045046 0)
(0.161741 0.0286553 0)
(0.153179 0.016114 0)
(0.159058 -0.000175458 0)
(0.145784 -0.0121468 0)
(0.150722 -0.0297165 0)
(0.131785 -0.0422185 0)
(0.135689 -0.06276 0)
(0.109448 -0.0768107 0)
(0.112201 -0.10211 0)
(0.0759457 -0.117522 0)
(0.0783581 -0.148848 0)
(0.0292216 -0.163691 0)
(0.037694 -0.228367 0)
(-0.0263368 -0.342067 0)
(0.00904539 -0.521086 0)
(0.00142084 -0.00607575 0)
(0.00934514 0.0335393 0)
(0.0344552 0.0983541 0)
(0.0624444 0.149648 0)
(0.0859441 0.180552 0)
(0.110008 0.18929 0)
(0.126354 0.184046 0)
(0.143812 0.168341 0)
(0.152434 0.149152 0)
(0.165215 0.127642 0)
(0.168181 0.108286 0)
(0.179121 0.0888187 0)
(0.177807 0.0728264 0)
(0.187932 0.0561665 0)
(0.182435 0.0431079 0)
(0.191656 0.0281085 0)
(0.18152 0.0168938 0)
(0.189553 0.00226516 0)
(0.174114 -0.00814944 0)
(0.180715 -0.0237218 0)
(0.158899 -0.034356 0)
(0.163759 -0.0523453 0)
(0.133603 -0.0640701 0)
(0.136351 -0.086009 0)
(0.0945612 -0.0988586 0)
(0.0960364 -0.126466 0)
(0.0392695 -0.141121 0)
(0.0488528 -0.202547 0)
(-0.0252744 -0.323798 0)
(0.0176622 -0.529372 0)
(0.000320743 -0.0110633 0)
(0.00347306 0.0262629 0)
(0.0194258 0.0766218 0)
(0.047488 0.132104 0)
(0.0756747 0.159899 0)
(0.105477 0.171929 0)
(0.128048 0.168177 0)
(0.152598 0.155315 0)
(0.166395 0.138888 0)
(0.185432 0.119493 0)
(0.191298 0.102209 0)
(0.206839 0.0841128 0)
(0.206465 0.0698671 0)
(0.219847 0.0542869 0)
(0.214015 0.0431114 0)
(0.225655 0.0291746 0)
(0.214319 0.0201293 0)
(0.22422 0.00667731 0)
(0.206746 -0.00121781 0)
(0.21473 -0.015282 0)
(0.18979 -0.022906 0)
(0.195475 -0.0386101 0)
(0.16065 -0.0466356 0)
(0.163645 -0.0649273 0)
(0.115257 -0.0737308 0)
(0.11721 -0.0968948 0)
(0.0524719 -0.111232 0)
(0.0658005 -0.169167 0)
(-0.0186049 -0.301545 0)
(0.0309391 -0.532 0)
(0.00491214 -0.00965598 0)
(0.00603446 0.0132493 0)
(-6.74471e-05 0.0545543 0)
(0.0224347 0.0917924 0)
(0.0453389 0.122182 0)
(0.0826511 0.134847 0)
(0.11016 0.136714 0)
(0.145251 0.128496 0)
(0.164849 0.116884 0)
(0.193584 0.101779 0)
(0.203129 0.0879331 0)
(0.226353 0.0728637 0)
(0.227114 0.061034 0)
(0.246426 0.0478053 0)
(0.239607 0.0385522 0)
(0.256074 0.0268974 0)
(0.242076 0.0196096 0)
(0.25621 0.00877368 0)
(0.234673 0.00267031 0)
(0.246576 -0.0080977 0)
(0.21637 -0.0136894 0)
(0.225842 -0.0250735 0)
(0.184915 -0.0307141 0)
(0.191898 -0.0436617 0)
(0.137316 -0.0505566 0)
(0.143884 -0.0690325 0)
(0.0727817 -0.0860709 0)
(0.0896625 -0.139822 0)
(-0.00340569 -0.27875 0)
(0.0507594 -0.522004 0)
(-0.0248418 -0.0237828 0)
(-0.0244977 0.0344988 0)
(-0.0203802 0.0610976 0)
(-0.00868362 0.0893199 0)
(0.0216296 0.0995556 0)
(0.0624041 0.106472 0)
(0.095521 0.105102 0)
(0.13847 0.0990389 0)
(0.163212 0.0910103 0)
(0.199894 0.0799788 0)
(0.213113 0.0706758 0)
(0.242933 0.0593052 0)
(0.245393 0.0514496 0)
(0.269887 0.0411349 0)
(0.262935 0.0353524 0)
(0.283659 0.0259991 0)
(0.268047 0.0220738 0)
(0.286165 0.0131584 0)
(0.261812 0.0107293 0)
(0.278189 0.00171026 0)
(0.244086 0.000494946 0)
(0.25955 -0.00907945 0)
(0.213548 -0.00940452 0)
(0.229428 -0.0201453 0)
(0.168029 -0.0211128 0)
(0.187546 -0.0362766 0)
(0.107184 -0.0490506 0)
(0.14021 -0.0969808 0)
(0.0458435 -0.240541 0)
(0.0883935 -0.488557 0)
(-0.0879473 0.044045 0)
(-0.0909906 0.00679384 0)
(-0.121527 0.0403039 0)
(-0.0755202 0.0460434 0)
(-0.0536411 0.0499611 0)
(0.00489989 0.0573194 0)
(0.0385814 0.0595171 0)
(0.095153 0.0578494 0)
(0.121505 0.0551493 0)
(0.171813 0.0496878 0)
(0.185325 0.045249 0)
(0.22962 0.0388547 0)
(0.230308 0.0347847 0)
(0.270497 0.028724 0)
(0.259459 0.0256635 0)
(0.297777 0.0202599 0)
(0.275627 0.0181013 0)
(0.314189 0.0133748 0)
(0.28073 0.0117357 0)
(0.321532 0.00775864 0)
(0.275793 0.00610501 0)
(0.320877 0.00309805 0)
(0.261283 0.000594055 0)
(0.312895 -0.00159712 0)
(0.237665 -0.00730329 0)
(0.297977 -0.0137152 0)
(0.205879 -0.0353554 0)
(0.27342 -0.0831436 0)
(0.156621 -0.209574 0)
(0.148292 -0.403394 0)
(0.0817283 0.135178 0)
(0.12051 0.0760081 0)
(0.154268 0.0490774 0)
(0.207337 0.0271708 0)
(0.223565 0.0191194 0)
(0.273423 0.0133743 0)
(0.289919 0.0132347 0)
(0.344742 0.0132976 0)
(0.358028 0.0137409 0)
(0.413321 0.013762 0)
(0.41924 0.0134052 0)
(0.472353 0.012716 0)
(0.469056 0.0118749 0)
(0.519802 0.0108547 0)
(0.507104 0.00988703 0)
(0.556464 0.00881427 0)
(0.534676 0.00790873 0)
(0.583905 0.00685045 0)
(0.553297 0.00614221 0)
(0.603567 0.00496971 0)
(0.564205 0.00468136 0)
(0.616518 0.00296455 0)
(0.568135 0.00354964 0)
(0.6232 0.000115038 0)
(0.564195 0.00218144 0)
(0.620907 -0.00671808 0)
(0.541398 -0.00459464 0)
(0.583954 -0.0345318 0)
(0.418529 -0.0525502 0)
(0.30618 -0.177103 0)
)
;

boundaryField
{
    movingWall
    {
        type            fixedValue;
        value           uniform (1 0 0);
    }
    fixedWalls
    {
        type            noSlip;
    }
    frontAndBack
    {
        type            empty;
    }
}


// ************************************************************************* //
