/*--------------------------------*- C++ -*----------------------------------*\
| =========                 |                                                 |
| \\      /  F ield         | OpenFOAM: The Open Source CFD Toolbox           |
|  \\    /   O peration     | Version:  2406                                  |
|   \\  /    A nd           | Website:  www.openfoam.com                      |
|    \\/     M anipulation  |                                                 |
\*---------------------------------------------------------------------------*/
FoamFile
{
    version     2.0;
    format      ascii;
    arch        "LSB;label=32;scalar=64";
    class       volVectorField;
    location    "12.8";
    object      Uold;
}
// * * * * * * * * * * * * * * * * * * * * * * * * * * * * * * * * * * * * * //

dimensions      [0 1 -1 0 0 0 0];

internalField   nonuniform List<vector> 
900
(
(0.000342465 -0.000343725 0)
(0.000468371 -0.000267054 0)
(0.000367649 -0.000268082 0)
(0.000211883 -0.000278317 0)
(5.9301e-06 -0.000319864 0)
(-0.000210051 -0.000323673 0)
(-0.000685256 -0.000304796 0)
(-0.00148919 -0.000250854 0)
(-0.00291515 -0.000181936 0)
(-0.00510064 -9.51055e-05 0)
(-0.00837774 3.34589e-05 0)
(-0.0130484 0.00030665 0)
(-0.019621 0.000903234 0)
(-0.0283932 0.00198374 0)
(-0.039268 0.00342063 0)
(-0.051209 0.00467785 0)
(-0.062505 0.00508829 0)
(-0.0710035 0.00430093 0)
(-0.0751659 0.00246704 0)
(-0.0737839 -8.22153e-06 0)
(-0.0666575 -0.00268345 0)
(-0.0537299 -0.00513186 0)
(-0.0364411 -0.00674267 0)
(-0.016534 -0.0069214 0)
(0.00184257 -0.00503101 0)
(0.0147843 -0.00164193 0)
(0.0182047 0.00170908 0)
(0.0138716 0.00295244 0)
(0.00702656 0.00259312 0)
(0.00112847 0.00131757 0)
(0.000164629 -0.000467207 0)
(-0.000687766 0.000258484 0)
(-0.00220992 0.000516847 0)
(-0.00388872 0.0006606 0)
(-0.00583122 0.000737561 0)
(-0.00799383 0.00103596 0)
(-0.0108668 0.00159091 0)
(-0.01471 0.00251062 0)
(-0.020194 0.00382257 0)
(-0.0277947 0.00561188 0)
(-0.0381944 0.00798476 0)
(-0.0517021 0.0110421 0)
(-0.0682915 0.0145811 0)
(-0.0869574 0.0178295 0)
(-0.105795 0.0195759 0)
(-0.122175 0.0187266 0)
(-0.134095 0.0148745 0)
(-0.140394 0.00849422 0)
(-0.140649 0.000469141 0)
(-0.134472 -0.00841873 0)
(-0.122046 -0.0172515 0)
(-0.10344 -0.0251129 0)
(-0.0796198 -0.030423 0)
(-0.0519787 -0.0315367 0)
(-0.0236916 -0.0262831 0)
(0.000844557 -0.0148549 0)
(0.0153377 -0.000643197 0)
(0.0163885 0.00813462 0)
(0.00980758 0.0103017 0)
(0.00188375 0.00683104 0)
(-0.000162307 0.00016717 0)
(-0.00233887 0.00211496 0)
(-0.00565566 0.00290362 0)
(-0.00916085 0.00334274 0)
(-0.0131669 0.00375248 0)
(-0.0176238 0.00469767 0)
(-0.023221 0.00636878 0)
(-0.0303367 0.00903887 0)
(-0.0398413 0.0128378 0)
(-0.0523054 0.0178287 0)
(-0.0683937 0.0238273 0)
(-0.0880942 0.0302548 0)
(-0.110632 0.0359697 0)
(-0.133715 0.0392787 0)
(-0.154334 0.0384325 0)
(-0.170156 0.032778 0)
(-0.180544 0.0231525 0)
(-0.185327 0.0107189 0)
(-0.184674 -0.00350395 0)
(-0.178624 -0.0186549 0)
(-0.167231 -0.0336267 0)
(-0.15026 -0.0475181 0)
(-0.127466 -0.0580079 0)
(-0.0991516 -0.0628008 0)
(-0.0660556 -0.0576113 0)
(-0.0321427 -0.040655 0)
(-0.00310979 -0.0136498 0)
(0.00935447 0.00829 0)
(0.00764444 0.0170886 0)
(0.00140019 0.0128415 0)
(-0.00053972 0.00203619 0)
(-0.00409628 0.00579944 0)
(-0.00919193 0.00733574 0)
(-0.0144917 0.00821576 0)
(-0.0205487 0.00921389 0)
(-0.0272854 0.0111382 0)
(-0.0355235 0.014338 0)
(-0.0456597 0.0191935 0)
(-0.0586698 0.025853 0)
(-0.0751962 0.0342506 0)
(-0.0959113 0.0438707 0)
(-0.120325 0.0534043 0)
(-0.146381 0.0603391 0)
(-0.170286 0.0616606 0)
(-0.189039 0.0561235 0)
(-0.201992 0.0449997 0)
(-0.209737 0.0300835 0)
(-0.212608 0.0125871 0)
(-0.211498 -0.00628173 0)
(-0.206737 -0.0260208 0)
(-0.198526 -0.0457485 0)
(-0.186405 -0.0651432 0)
(-0.169166 -0.0817035 0)
(-0.145678 -0.093243 0)
(-0.113992 -0.0933383 0)
(-0.0757351 -0.0779025 0)
(-0.0335091 -0.0418779 0)
(-0.00241377 -0.00267586 0)
(0.00421821 0.0183954 0)
(0.000698413 0.0158733 0)
(-0.000839688 0.00476088 0)
(-0.0055385 0.0107837 0)
(-0.0121018 0.0132397 0)
(-0.0188743 0.0146928 0)
(-0.0266049 0.0164937 0)
(-0.0351556 0.0196474 0)
(-0.0454617 0.024688 0)
(-0.0579991 0.0321432 0)
(-0.0739932 0.042312 0)
(-0.0942073 0.0550084 0)
(-0.118873 0.0688653 0)
(-0.145966 0.0805973 0)
(-0.171484 0.0857592 0)
(-0.191261 0.0817411 0)
(-0.204289 0.0699455 0)
(-0.211773 0.0532843 0)
(-0.214768 0.0336207 0)
(-0.214194 0.012319 0)
(-0.211465 -0.00945777 0)
(-0.207096 -0.0317645 0)
(-0.202044 -0.0539888 0)
(-0.195874 -0.0770095 0)
(-0.187335 -0.0987579 0)
(-0.173911 -0.118112 0)
(-0.151573 -0.127582 0)
(-0.117918 -0.121142 0)
(-0.0718013 -0.0868353 0)
(-0.0214707 -0.0293976 0)
(0.00309166 0.0140568 0)
(0.000852444 0.0177077 0)
(-0.00109028 0.00841609 0)
(-0.0066884 0.0171422 0)
(-0.0143885 0.0206619 0)
(-0.0223136 0.0227813 0)
(-0.0313441 0.0255124 0)
(-0.0412866 0.0300549 0)
(-0.0531919 0.0372206 0)
(-0.0676468 0.0477922 0)
(-0.08599 0.0621167 0)
(-0.108562 0.0791877 0)
(-0.134277 0.0956545 0)
(-0.159346 0.106025 0)
(-0.17924 0.105652 0)
(-0.191512 0.0944969 0)
(-0.197587 0.0766968 0)
(-0.199453 0.0555445 0)
(-0.198065 0.0326133 0)
(-0.194306 0.00934368 0)
(-0.189282 -0.0132468 0)
(-0.183656 -0.0354344 0)
(-0.17935 -0.0568596 0)
(-0.176732 -0.0799246 0)
(-0.17582 -0.103659 0)
(-0.17383 -0.129209 0)
(-0.165774 -0.149453 0)
(-0.146063 -0.158002 0)
(-0.108052 -0.138149 0)
(-0.0531023 -0.0777904 0)
(0.000748386 -0.00371981 0)
(0.00225447 0.0197914 0)
(-0.00120095 0.0124758 0)
(-0.0072954 0.0241036 0)
(-0.0156744 0.0287798 0)
(-0.0243098 0.0316387 0)
(-0.0341377 0.0354009 0)
(-0.0449213 0.0414669 0)
(-0.0577903 0.0509899 0)
(-0.0733235 0.0649011 0)
(-0.092608 0.0831614 0)
(-0.115099 0.103215 0)
(-0.138491 0.119535 0)
(-0.158422 0.125454 0)
(-0.171509 0.117878 0)
(-0.177709 0.100092 0)
(-0.180108 0.0779536 0)
(-0.180326 0.0538469 0)
(-0.178414 0.0286442 0)
(-0.174106 0.00365639 0)
(-0.167658 -0.0198543 0)
(-0.159553 -0.0415845 0)
(-0.152286 -0.0606093 0)
(-0.147523 -0.0804245 0)
(-0.1475 -0.101366 0)
(-0.151095 -0.128045 0)
(-0.154344 -0.155245 0)
(-0.150458 -0.178991 0)
(-0.12873 -0.179752 0)
(-0.0861677 -0.138747 0)
(-0.016347 -0.0408674 0)
(0.00866272 0.0206159 0)
(-0.00122764 0.0169176 0)
(-0.00748112 0.0317163 0)
(-0.0161212 0.0376653 0)
(-0.0250558 0.0413204 0)
(-0.0351899 0.0461452 0)
(-0.0462294 0.0537751 0)
(-0.0592594 0.0656651 0)
(-0.0746622 0.082675 0)
(-0.0930605 0.103928 0)
(-0.113198 0.125085 0)
(-0.132376 0.13897 0)
(-0.146895 0.139082 0)
(-0.155272 0.125047 0)
(-0.159493 0.103193 0)
(-0.162957 0.0794117 0)
(-0.165805 0.0538937 0)
(-0.166608 0.0264812 0)
(-0.163842 -0.00145863 0)
(-0.15739 -0.0277136 0)
(-0.147465 -0.0509338 0)
(-0.136517 -0.0687676 0)
(-0.126769 -0.0848323 0)
(-0.122142 -0.0999154 0)
(-0.1238 -0.122335 0)
(-0.130698 -0.149984 0)
(-0.136411 -0.183313 0)
(-0.130703 -0.202995 0)
(-0.104235 -0.189614 0)
(-0.046328 -0.0995003 0)
(0.0136622 0.0125406 0)
(-0.00109951 0.0211102 0)
(-0.00709408 0.0390123 0)
(-0.0155475 0.0462571 0)
(-0.0243517 0.050692 0)
(-0.0342871 0.0565039 0)
(-0.0449599 0.0655074 0)
(-0.0572776 0.0793688 0)
(-0.0713107 0.0986624 0)
(-0.087305 0.12162 0)
(-0.10381 0.142425 0)
(-0.11859 0.153131 0)
(-0.129203 0.148319 0)
(-0.135888 0.130502 0)
(-0.141405 0.10774 0)
(-0.148045 0.0842307 0)
(-0.15407 0.0574004 0)
(-0.157183 0.0266677 0)
(-0.155614 -0.00572465 0)
(-0.149659 -0.0362008 0)
(-0.139249 -0.0626879 0)
(-0.126566 -0.0812265 0)
(-0.113254 -0.0950418 0)
(-0.103854 -0.104202 0)
(-0.100549 -0.119603 0)
(-0.106008 -0.142483 0)
(-0.115266 -0.178762 0)
(-0.12005 -0.212197 0)
(-0.107354 -0.222588 0)
(-0.0686757 -0.160505 0)
(-0.00098033 -0.0110711 0)
(-0.000905471 0.0251292 0)
(-0.00632075 0.0462707 0)
(-0.0141801 0.0549247 0)
(-0.0224342 0.0601445 0)
(-0.0316592 0.0667863 0)
(-0.0413352 0.0768419 0)
(-0.0521078 0.0920684 0)
(-0.0637614 0.112764 0)
(-0.076379 0.136444 0)
(-0.088806 0.156354 0)
(-0.0996896 0.164373 0)
(-0.107845 0.156458 0)
(-0.114408 0.137351 0)
(-0.121553 0.11533 0)
(-0.129929 0.092071 0)
(-0.136855 0.0629566 0)
(-0.140465 0.0280777 0)
(-0.139391 -0.00912404 0)
(-0.134477 -0.0439739 0)
(-0.125184 -0.0742557 0)
(-0.11354 -0.0946419 0)
(-0.0997958 -0.107827 0)
(-0.0886078 -0.112483 0)
(-0.0811268 -0.120391 0)
(-0.0833555 -0.135109 0)
(-0.0925233 -0.169179 0)
(-0.103395 -0.210648 0)
(-0.102021 -0.240936 0)
(-0.0763454 -0.206008 0)
(-0.0236013 -0.056421 0)
(-0.000594165 0.0282597 0)
(-0.00510232 0.0522794 0)
(-0.012011 0.0622741 0)
(-0.0193801 0.0681422 0)
(-0.0275125 0.0753348 0)
(-0.0357409 0.085921 0)
(-0.0444166 0.101747 0)
(-0.0530631 0.122884 0)
(-0.0617782 0.146575 0)
(-0.0699437 0.16561 0)
(-0.0772582 0.172097 0)
(-0.0834242 0.163021 0)
(-0.0896416 0.14422 0)
(-0.0967067 0.123128 0)
(-0.104213 0.0994773 0)
(-0.109774 0.0678199 0)
(-0.112746 0.0292907 0)
(-0.111956 -0.0118704 0)
(-0.108686 -0.0502491 0)
(-0.101682 -0.0838663 0)
(-0.0932488 -0.106455 0)
(-0.0819248 -0.120279 0)
(-0.0725818 -0.122706 0)
(-0.0639401 -0.125111 0)
(-0.0635513 -0.130945 0)
(-0.0700341 -0.158746 0)
(-0.0829513 -0.202513 0)
(-0.0880227 -0.249446 0)
(-0.0718522 -0.239383 0)
(-0.0306656 -0.111062 0)
(-0.000288486 0.0308678 0)
(-0.00369137 0.0577895 0)
(-0.00935676 0.0692333 0)
(-0.0155283 0.075737 0)
(-0.0222267 0.0832018 0)
(-0.0286547 0.0938313 0)
(-0.0348743 0.109462 0)
(-0.0401977 0.130186 0)
(-0.0447526 0.153343 0)
(-0.0485218 0.171813 0)
(-0.0521751 0.177903 0)
(-0.056 0.168934 0)
(-0.0607468 0.150763 0)
(-0.0657652 0.129848 0)
(-0.0704271 0.105223 0)
(-0.0732886 0.0714826 0)
(-0.0751818 0.0305136 0)
(-0.0746936 -0.0132682 0)
(-0.0735248 -0.0539551 0)
(-0.0693224 -0.0898868 0)
(-0.0651709 -0.114158 0)
(-0.0578883 -0.128791 0)
(-0.0529215 -0.130265 0)
(-0.0464989 -0.129703 0)
(-0.0464438 -0.128841 0)
(-0.0508593 -0.149901 0)
(-0.0640505 -0.192482 0)
(-0.0720859 -0.251675 0)
(-0.0627452 -0.264118 0)
(-0.0285895 -0.159227 0)
(6.48428e-05 0.032163 0)
(-0.00208466 0.061301 0)
(-0.00631839 0.074021 0)
(-0.0111412 0.0809566 0)
(-0.0162811 0.0883905 0)
(-0.020827 0.0985127 0)
(-0.0245997 0.113242 0)
(-0.0266652 0.132693 0)
(-0.0271253 0.154811 0)
(-0.0263463 0.172891 0)
(-0.0259371 0.179531 0)
(-0.0265932 0.171569 0)
(-0.0288141 0.154036 0)
(-0.0307692 0.132646 0)
(-0.0320124 0.107051 0)
(-0.0318286 0.0724939 0)
(-0.0326241 0.0309618 0)
(-0.0324145 -0.0136723 0)
(-0.0335042 -0.0553041 0)
(-0.0321481 -0.0924491 0)
(-0.0325464 -0.117623 0)
(-0.0298918 -0.132852 0)
(-0.0302716 -0.13387 0)
(-0.0276807 -0.131907 0)
(-0.0301397 -0.126393 0)
(-0.0338334 -0.141364 0)
(-0.0472656 -0.181055 0)
(-0.0570894 -0.250271 0)
(-0.05356 -0.283132 0)
(-0.0261431 -0.202484 0)
(0.000318753 0.0329645 0)
(-0.000568156 0.0642686 0)
(-0.00327054 0.078362 0)
(-0.00660133 0.0857983 0)
(-0.0100811 0.0929745 0)
(-0.0127286 0.102244 0)
(-0.0141832 0.115401 0)
(-0.0133218 0.132782 0)
(-0.0100448 0.15308 0)
(-0.00477906 0.170605 0)
(6.04814e-05 0.178242 0)
(0.00323454 0.171889 0)
(0.00404449 0.155141 0)
(0.00504107 0.132987 0)
(0.00647631 0.106491 0)
(0.00923516 0.0720827 0)
(0.00947673 0.0315011 0)
(0.00989495 -0.0124837 0)
(0.00704913 -0.053797 0)
(0.00597425 -0.0910382 0)
(0.00121195 -0.11607 0)
(-0.000868852 -0.131375 0)
(-0.00695551 -0.132171 0)
(-0.00893654 -0.130153 0)
(-0.0152902 -0.122392 0)
(-0.019594 -0.133082 0)
(-0.0334326 -0.168905 0)
(-0.0438632 -0.245061 0)
(-0.0451309 -0.295194 0)
(-0.0233626 -0.239105 0)
(0.000571345 0.0323294 0)
(0.000878551 0.0647895 0)
(-0.000304879 0.0799642 0)
(-0.00219886 0.0876668 0)
(-0.00414653 0.0944392 0)
(-0.00511808 0.102516 0)
(-0.00469606 0.11378 0)
(-0.00155351 0.128449 0)
(0.00456721 0.146197 0)
(0.0137793 0.162608 0)
(0.023189 0.171483 0)
(0.0309149 0.167487 0)
(0.0352185 0.152316 0)
(0.038938 0.129986 0)
(0.0419616 0.102944 0)
(0.0463849 0.0692636 0)
(0.0473157 0.0305639 0)
(0.0483177 -0.0115206 0)
(0.0443239 -0.0510494 0)
(0.0412983 -0.0869236 0)
(0.0325756 -0.110482 0)
(0.0261676 -0.125091 0)
(0.0148185 -0.1255 0)
(0.00863503 -0.123995 0)
(-0.00187568 -0.115386 0)
(-0.00762334 -0.123694 0)
(-0.0226604 -0.156352 0)
(-0.0334629 -0.238489 0)
(-0.0387648 -0.303492 0)
(-0.0212119 -0.271226 0)
(0.000654608 0.0316355 0)
(0.00199495 0.0652458 0)
(0.0022165 0.081563 0)
(0.00175804 0.0897543 0)
(0.00128208 0.0960257 0)
(0.00182726 0.102903 0)
(0.00380188 0.111983 0)
(0.00856943 0.123599 0)
(0.0164792 0.137876 0)
(0.0283874 0.151961 0)
(0.0417084 0.161237 0)
(0.0544186 0.159862 0)
(0.0630898 0.147382 0)
(0.0701877 0.126147 0)
(0.0745835 0.0993152 0)
(0.0800592 0.0665778 0)
(0.0810072 0.0299684 0)
(0.0820932 -0.00969199 0)
(0.0766813 -0.0463215 0)
(0.0714977 -0.0795428 0)
(0.058907 -0.100526 0)
(0.0486514 -0.113997 0)
(0.0327983 -0.114193 0)
(0.0233118 -0.113906 0)
(0.00916307 -0.105597 0)
(0.00213645 -0.112884 0)
(-0.0142876 -0.142427 0)
(-0.0249627 -0.229151 0)
(-0.0340166 -0.307077 0)
(-0.0194546 -0.299378 0)
(0.000760417 0.0295732 0)
(0.00289026 0.0630583 0)
(0.00434073 0.0800963 0)
(0.00508789 0.0884342 0)
(0.00579234 0.0942704 0)
(0.0075133 0.0998259 0)
(0.0104922 0.106964 0)
(0.0162079 0.115595 0)
(0.0247081 0.126327 0)
(0.0376284 0.137142 0)
(0.0528414 0.145425 0)
(0.0694394 0.145886 0)
(0.0824253 0.136682 0)
(0.0937493 0.118245 0)
(0.100203 0.0932755 0)
(0.106947 0.0625495 0)
(0.107681 0.0288454 0)
(0.108209 -0.00752677 0)
(0.100863 -0.0400984 0)
(0.0933584 -0.0695632 0)
(0.0774287 -0.0873033 0)
(0.0645404 -0.0995395 0)
(0.0456138 -0.0997276 0)
(0.0343077 -0.101016 0)
(0.0174108 -0.0935955 0)
(0.00959624 -0.101094 0)
(-0.00847613 -0.128451 0)
(-0.0186667 -0.219342 0)
(-0.0311327 -0.308407 0)
(-0.0180762 -0.325099 0)
(0.00065586 0.0281614 0)
(0.00335431 0.0617978 0)
(0.00573263 0.0795517 0)
(0.00760789 0.0884561 0)
(0.00940433 0.0937946 0)
(0.0121562 0.0983413 0)
(0.0159664 0.103501 0)
(0.0222429 0.109479 0)
(0.0306995 0.116679 0)
(0.0433342 0.12382 0)
(0.0582554 0.129632 0)
(0.0762195 0.130181 0)
(0.0915685 0.123368 0)
(0.106299 0.108226 0)
(0.114846 0.0864993 0)
(0.122945 0.0589132 0)
(0.123592 0.0291747 0)
(0.123487 -0.00311049 0)
(0.114405 -0.0309696 0)
(0.10532 -0.0564596 0)
(0.0873893 -0.0711871 0)
(0.0736421 -0.0827005 0)
(0.0532552 -0.0832788 0)
(0.0416972 -0.0863937 0)
(0.0230605 -0.0799623 0)
(0.0154358 -0.0879861 0)
(-0.00418345 -0.112992 0)
(-0.0133688 -0.207395 0)
(-0.0295086 -0.306732 0)
(-0.0167754 -0.34903 0)
(0.000686504 0.0254068 0)
(0.00361747 0.0577262 0)
(0.0067025 0.0756985 0)
(0.00934513 0.0845005 0)
(0.0118269 0.0895869 0)
(0.0152666 0.0929907 0)
(0.0193956 0.0967692 0)
(0.0258838 0.100576 0)
(0.033765 0.105179 0)
(0.0454585 0.109263 0)
(0.0586361 0.11253 0)
(0.0756924 0.112196 0)
(0.0907386 0.106681 0)
(0.106715 0.0945521 0)
(0.116265 0.0767931 0)
(0.125266 0.0533548 0)
(0.125951 0.0285537 0)
(0.125791 0.00116311 0)
(0.116014 -0.0216157 0)
(0.107006 -0.0431665 0)
(0.0889254 -0.0552096 0)
(0.0762855 -0.0662043 0)
(0.0559276 -0.0671293 0)
(0.0455536 -0.0718531 0)
(0.0260077 -0.0663373 0)
(0.0194876 -0.0752657 0)
(-0.00169174 -0.098263 0)
(-0.00929479 -0.195489 0)
(-0.0292723 -0.303793 0)
(-0.0153836 -0.372012 0)
(0.000418753 0.0241065 0)
(0.00344093 0.0559929 0)
(0.00676194 0.0740857 0)
(0.0100959 0.0835637 0)
(0.0132977 0.0881537 0)
(0.0173925 0.090977 0)
(0.0219761 0.0931913 0)
(0.0286025 0.0952429 0)
(0.0359922 0.097439 0)
(0.0466294 0.0989733 0)
(0.0577682 0.0997469 0)
(0.0727433 0.0979679 0)
(0.0857577 0.0927116 0)
(0.100764 0.0824751 0)
(0.109836 0.068344 0)
(0.118807 0.048919 0)
(0.119388 0.0291095 0)
(0.119677 0.00643936 0)
(0.110222 -0.0116194 0)
(0.102709 -0.0298873 0)
(0.0857725 -0.0397194 0)
(0.0754762 -0.0504249 0)
(0.0559267 -0.0514925 0)
(0.0476597 -0.0575135 0)
(0.0276437 -0.0524087 0)
(0.0230574 -0.0618519 0)
(0.000258489 -0.0821975 0)
(-0.00514192 -0.181662 0)
(-0.0298059 -0.298859 0)
(-0.0135508 -0.39439 0)
(0.000521715 0.0213076 0)
(0.00324422 0.0510143 0)
(0.00674484 0.0688338 0)
(0.0103172 0.0775572 0)
(0.0136137 0.0820923 0)
(0.0180159 0.0838908 0)
(0.0224357 0.0853998 0)
(0.0290261 0.0861313 0)
(0.0356782 0.0870671 0)
(0.0453781 0.0870427 0)
(0.0546179 0.0864287 0)
(0.0674605 0.0837396 0)
(0.0779758 0.0787749 0)
(0.091057 0.0699819 0)
(0.0986703 0.058957 0)
(0.107107 0.0432682 0)
(0.107369 0.027993 0)
(0.108529 0.00970599 0)
(0.0999457 -0.0042074 0)
(0.0947496 -0.0195199 0)
(0.0794725 -0.0273358 0)
(0.072081 -0.0374536 0)
(0.0535815 -0.0383329 0)
(0.0478992 -0.0451049 0)
(0.0275473 -0.0402187 0)
(0.0255213 -0.0500987 0)
(0.00101954 -0.0678026 0)
(-0.00149149 -0.168148 0)
(-0.0315042 -0.293211 0)
(-0.0111443 -0.416436 0)
(-3.49877e-06 0.0206765 0)
(0.00242126 0.0501286 0)
(0.00535274 0.0673651 0)
(0.00917979 0.0770813 0)
(0.0130599 0.0808463 0)
(0.0179162 0.0824869 0)
(0.0227836 0.0826214 0)
(0.0294301 0.0822176 0)
(0.0357523 0.0815651 0)
(0.0446808 0.0801065 0)
(0.052498 0.0781675 0)
(0.0634673 0.0745361 0)
(0.0717687 0.0696434 0)
(0.0827076 0.0615792 0)
(0.0885566 0.0528618 0)
(0.0960453 0.0398986 0)
(0.0957971 0.0283455 0)
(0.0976436 0.013399 0)
(0.0898851 0.00298433 0)
(0.0868537 -0.0100869 0)
(0.0730015 -0.0159448 0)
(0.0683568 -0.0255244 0)
(0.0506713 -0.0257537 0)
(0.0477898 -0.0329772 0)
(0.0270551 -0.0277725 0)
(0.0283309 -0.0376755 0)
(0.00202499 -0.0519324 0)
(0.0032546 -0.152323 0)
(-0.0335501 -0.286041 0)
(-0.00767707 -0.438237 0)
(0.000472415 0.0185483 0)
(0.00216329 0.0451174 0)
(0.00492164 0.0617865 0)
(0.00844065 0.0692113 0)
(0.01154 0.0730624 0)
(0.0164373 0.073514 0)
(0.0206998 0.073636 0)
(0.0273446 0.0725293 0)
(0.0330198 0.0716715 0)
(0.0414673 0.069683 0)
(0.0481616 0.0676362 0)
(0.057907 0.063861 0)
(0.0645358 0.0596725 0)
(0.0740022 0.0525818 0)
(0.078282 0.0458987 0)
(0.0852071 0.0353661 0)
(0.0843734 0.0268225 0)
(0.0871311 0.0148241 0)
(0.0799557 0.00719398 0)
(0.0791399 -0.00369005 0)
(0.0663835 -0.00795317 0)
(0.064484 -0.0166108 0)
(0.0474124 -0.0164177 0)
(0.0473714 -0.023669 0)
(0.026105 -0.0186058 0)
(0.0307671 -0.0283717 0)
(0.00240996 -0.0392716 0)
(0.00786975 -0.137105 0)
(-0.0366877 -0.278571 0)
(-0.00307441 -0.459537 0)
(-0.000965626 0.0184333 0)
(-0.000126969 0.0462821 0)
(0.00131815 0.0615034 0)
(0.00492091 0.0711417 0)
(0.00927248 0.0733875 0)
(0.0146356 0.0739008 0)
(0.0197436 0.0723472 0)
(0.0265158 0.0702695 0)
(0.0321666 0.068114 0)
(0.040194 0.0651135 0)
(0.0461107 0.0624154 0)
(0.0548379 0.0581066 0)
(0.0601722 0.0542569 0)
(0.0683948 0.0476003 0)
(0.0714026 0.0424261 0)
(0.0776243 0.0333963 0)
(0.0762616 0.0273232 0)
(0.0793736 0.0171929 0)
(0.072543 0.0121202 0)
(0.0730921 0.00256757 0)
(0.0609667 0.00026301 0)
(0.0610413 -0.00791022 0)
(0.0440847 -0.0064308 0)
(0.0466509 -0.0137385 0)
(0.0245094 -0.00789938 0)
(0.0333644 -0.0173083 0)
(0.0031836 -0.024109 0)
(0.0147245 -0.11822 0)
(-0.0392655 -0.269707 0)
(0.00355086 -0.480108 0)
(0.00106779 0.0193149 0)
(0.00106906 0.0420322 0)
(0.00137642 0.0564275 0)
(0.00396973 0.0602009 0)
(0.00573392 0.0629066 0)
(0.0111795 0.0620006 0)
(0.0151781 0.0613478 0)
(0.0223467 0.0591611 0)
(0.0275377 0.057748 0)
(0.0356791 0.0548739 0)
(0.041084 0.0529513 0)
(0.0495305 0.0489747 0)
(0.0540552 0.0462742 0)
(0.0619116 0.0405234 0)
(0.0640033 0.0370177 0)
(0.0703316 0.0296117 0)
(0.0683921 0.0256172 0)
(0.0725386 0.0174803 0)
(0.0656319 0.0142531 0)
(0.0681335 0.00650303 0)
(0.056155 0.00521731 0)
(0.0587358 -0.00167886 0)
(0.0417188 -0.000319512 0)
(0.0470574 -0.00702979 0)
(0.0241961 -0.00251539 0)
(0.036431 -0.0116894 0)
(0.00468315 -0.0158399 0)
(0.021903 -0.10169 0)
(-0.0417566 -0.261408 0)
(0.0124078 -0.498605 0)
(-0.00500279 0.0163872 0)
(-0.00678815 0.0469749 0)
(-0.00563997 0.0589127 0)
(-0.00255694 0.0680534 0)
(0.00299834 0.0669329 0)
(0.00878983 0.0654845 0)
(0.01431 0.0621211 0)
(0.0215438 0.0585417 0)
(0.0269362 0.0557455 0)
(0.034872 0.0518303 0)
(0.0398128 0.0495135 0)
(0.0478251 0.0450951 0)
(0.0515741 0.0428368 0)
(0.0589404 0.0373522 0)
(0.0603012 0.0350466 0)
(0.066325 0.0284496 0)
(0.0640533 0.0263434 0)
(0.0683046 0.0190899 0)
(0.0615273 0.0180946 0)
(0.0645693 0.0107716 0)
(0.0527994 0.0118087 0)
(0.0563985 0.00466153 0)
(0.0389833 0.00832659 0)
(0.0463716 0.0010035 0)
(0.0218069 0.00728601 0)
(0.0387753 -0.00213476 0)
(0.00487088 -0.0026932 0)
(0.0341749 -0.0788227 0)
(-0.0386036 -0.251158 0)
(0.0259266 -0.513464 0)
(0.0044992 0.0316558 0)
(-0.000276459 0.041432 0)
(-0.00913697 0.052136 0)
(-0.00647465 0.0496359 0)
(-0.00630757 0.0508264 0)
(0.00164602 0.0489558 0)
(0.00617427 0.0478905 0)
(0.0152555 0.045099 0)
(0.0207418 0.0440105 0)
(0.0296809 0.0407599 0)
(0.0347032 0.0399119 0)
(0.0431513 0.0360674 0)
(0.0466671 0.0353615 0)
(0.0543564 0.0306553 0)
(0.0551704 0.0300933 0)
(0.0619393 0.024638 0)
(0.0588695 0.0243452 0)
(0.0648728 0.0185981 0)
(0.0570399 0.0189695 0)
(0.0632753 0.013473 0)
(0.0501377 0.0147323 0)
(0.0585723 0.00972781 0)
(0.0395607 0.0116676 0)
(0.0530883 0.00650056 0)
(0.0268101 0.00827615 0)
(0.0497288 -0.00072887 0)
(0.0132568 -0.00581698 0)
(0.0535116 -0.0683603 0)
(-0.0261954 -0.24473 0)
(0.0451959 -0.51805 0)
(-0.0125002 0.0100619 0)
(-0.0120915 0.0624523 0)
(-0.00239974 0.0649155 0)
(-0.00651078 0.0678403 0)
(-0.000549178 0.0600448 0)
(0.00411433 0.0548757 0)
(0.00911792 0.0499978 0)
(0.0160497 0.0450252 0)
(0.0209542 0.0427405 0)
(0.0287824 0.0382992 0)
(0.0330069 0.0373773 0)
(0.0413883 0.0331115 0)
(0.0439988 0.0329497 0)
(0.0527967 0.0284644 0)
(0.052627 0.028877 0)
(0.061892 0.024 0)
(0.0578529 0.0250723 0)
(0.0679488 0.0197201 0)
(0.0591881 0.0218312 0)
(0.0711853 0.0158641 0)
(0.0568148 0.0194697 0)
(0.0727551 0.0125749 0)
(0.0509505 0.0180955 0)
(0.0744161 0.00995229 0)
(0.0409814 0.0169212 0)
(0.0789413 0.00618678 0)
(0.0289859 0.00230607 0)
(0.096753 -0.0477659 0)
(0.0204987 -0.225094 0)
(0.0818696 -0.500712 0)
(-0.0731732 0.0624809 0)
(-0.0601992 0.0282084 0)
(-0.0789887 0.0468495 0)
(-0.0521459 0.0438506 0)
(-0.0454844 0.0386973 0)
(-0.0216882 0.0364238 0)
(-0.0111098 0.0347043 0)
(0.0105541 0.0311123 0)
(0.0196379 0.0306028 0)
(0.0411817 0.0269395 0)
(0.0469266 0.0271431 0)
(0.0696114 0.0234629 0)
(0.0709127 0.0242065 0)
(0.0957311 0.0204208 0)
(0.0913847 0.0216037 0)
(0.119478 0.0177038 0)
(0.108031 0.0192204 0)
(0.141012 0.0153659 0)
(0.120649 0.0169826 0)
(0.160931 0.0136409 0)
(0.129361 0.0147351 0)
(0.180234 0.0128365 0)
(0.134663 0.0119847 0)
(0.200194 0.0124627 0)
(0.138075 0.00631194 0)
(0.222401 0.00415125 0)
(0.144172 -0.0218538 0)
(0.243705 -0.0739856 0)
(0.136099 -0.223373 0)
(0.140165 -0.437884 0)
(0.0814427 0.131941 0)
(0.124083 0.0731126 0)
(0.173656 0.0566601 0)
(0.229728 0.038848 0)
(0.254113 0.0314435 0)
(0.299164 0.0231319 0)
(0.311935 0.0197983 0)
(0.353387 0.0155462 0)
(0.357159 0.0139914 0)
(0.398095 0.0114421 0)
(0.394188 0.0106993 0)
(0.436414 0.00901462 0)
(0.425259 0.00856707 0)
(0.469985 0.00745967 0)
(0.45159 0.0069976 0)
(0.499701 0.00638259 0)
(0.473902 0.00573297 0)
(0.526115 0.00555177 0)
(0.492739 0.0047158 0)
(0.549665 0.00475505 0)
(0.508652 0.0040256 0)
(0.570722 0.0036606 0)
(0.52211 0.00379043 0)
(0.589193 0.00145156 0)
(0.532043 0.00351079 0)
(0.601247 -0.00525292 0)
(0.524402 -0.00327412 0)
(0.573842 -0.0368472 0)
(0.400311 -0.0626572 0)
(0.296748 -0.199812 0)
)
;

boundaryField
{
    movingWall
    {
        type            fixedValue;
        value           uniform (1 0 0);
    }
    fixedWalls
    {
        type            noSlip;
    }
    frontAndBack
    {
        type            empty;
    }
}


// ************************************************************************* //
