/*--------------------------------*- C++ -*----------------------------------*\
| =========                 |                                                 |
| \\      /  F ield         | OpenFOAM: The Open Source CFD Toolbox           |
|  \\    /   O peration     | Version:  2406                                  |
|   \\  /    A nd           | Website:  www.openfoam.com                      |
|    \\/     M anipulation  |                                                 |
\*---------------------------------------------------------------------------*/
FoamFile
{
    version     2.0;
    format      ascii;
    arch        "LSB;label=32;scalar=64";
    class       surfaceScalarField;
    location    "24.25";
    object      phi;
}
// * * * * * * * * * * * * * * * * * * * * * * * * * * * * * * * * * * * * * //

dimensions      [0 3 -1 0 0 0 0];

oriented        oriented;

internalField   nonuniform List<scalar> 
7080
(
7.63384e-08
-7.62605e-08
3.30239e-07
-2.55673e-07
6.64772e-07
-3.34331e-07
9.85549e-07
-3.21959e-07
1.2348e-06
-2.49193e-07
1.37866e-06
-1.44105e-07
1.41621e-06
-3.71011e-08
1.35157e-06
6.54368e-08
1.19926e-06
1.53422e-07
9.62425e-07
2.38662e-07
6.36735e-07
3.27683e-07
1.97242e-07
4.42472e-07
-3.96487e-07
5.97008e-07
-1.20319e-06
8.11291e-07
-2.29102e-06
1.09306e-06
-3.73356e-06
1.44943e-06
-5.60199e-06
1.87637e-06
-7.96136e-06
2.36922e-06
-1.08653e-05
2.91514e-06
-1.43507e-05
3.49856e-06
-1.84295e-05
4.09325e-06
-2.30783e-05
4.6649e-06
-2.82269e-05
5.16564e-06
-3.37473e-05
5.53828e-06
-3.94463e-05
5.71652e-06
-4.50639e-05
5.63428e-06
-5.02815e-05
5.23185e-06
-5.47382e-05
4.46779e-06
-5.80565e-05
3.32505e-06
-5.98738e-05
1.81926e-06
-5.98766e-05
-7.36662e-10
-5.78345e-05
-2.05107e-06
-5.36302e-05
-4.21853e-06
-4.72855e-05
-6.36406e-06
-3.89756e-05
-8.33334e-06
-2.90372e-05
-9.96551e-06
-1.79569e-05
-1.11096e-05
-6.34833e-06
-1.16394e-05
5.09618e-06
-1.14748e-05
1.5665e-05
-1.05983e-05
2.47079e-05
-9.06897e-06
3.17104e-05
-7.02537e-06
3.63664e-05
-4.67274e-06
3.86117e-05
-2.25764e-06
3.863e-05
-2.31057e-08
3.67998e-05
1.82916e-06
3.36253e-05
3.18032e-06
2.96335e-05
3.99883e-06
2.53061e-05
4.33958e-06
2.10124e-05
4.30349e-06
1.70091e-05
4.01722e-06
1.34282e-05
3.58959e-06
1.03232e-05
3.11828e-06
7.67194e-06
2.6569e-06
5.42842e-06
2.25548e-06
3.53128e-06
1.89946e-06
1.95293e-06
1.58904e-06
7.5203e-07
1.20013e-06
4.35123e-08
7.1753e-07
4.35691e-08
2.56677e-07
-3.31296e-07
7.89969e-07
-7.89168e-07
1.41864e-06
-9.60854e-07
1.96637e-06
-8.6935e-07
2.32115e-06
-6.03e-07
2.39962e-06
-2.22856e-07
2.17279e-06
1.88943e-07
1.62089e-06
6.15742e-07
7.40129e-07
1.03153e-06
-4.93211e-07
1.46877e-06
-2.12137e-06
1.95118e-06
-4.22634e-06
2.54205e-06
-6.92339e-06
3.28676e-06
-1.03619e-05
4.2412e-06
-1.4707e-05
5.42702e-06
-2.01248e-05
6.85417e-06
-2.67607e-05
8.49585e-06
-3.47197e-05
1.03093e-05
-4.40454e-05
1.22184e-05
-5.46973e-05
1.41252e-05
-6.65282e-05
1.58957e-05
-7.92669e-05
1.73728e-05
-9.25137e-05
1.83794e-05
-0.000105754
1.87448e-05
-0.000118392
1.83204e-05
-0.000129794
1.70046e-05
-0.00013934
1.47492e-05
-0.000146462
1.15691e-05
-0.000150687
7.53597e-06
-0.000151649
2.77792e-06
-0.000149112
-2.53083e-06
-0.000142974
-8.171e-06
-0.000133275
-1.38885e-05
-0.000120204
-1.9396e-05
-0.000104103
-2.43867e-05
-8.54708e-05
-2.85429e-05
-6.49588e-05
-3.15621e-05
-4.33581e-05
-3.31789e-05
-2.15665e-05
-3.32051e-05
-5.4696e-07
-3.15603e-05
1.8745e-05
-2.83086e-05
3.54332e-05
-2.36705e-05
4.88147e-05
-1.80203e-05
5.84268e-05
-1.18486e-05
6.4113e-05
-5.69829e-06
6.60291e-05
-8.85605e-08
6.46299e-05
4.57086e-06
6.05819e-05
8.02899e-06
5.46759e-05
1.02265e-05
4.769e-05
1.12649e-05
4.03163e-05
1.13705e-05
3.30693e-05
1.08122e-05
2.63021e-05
9.86877e-06
2.01845e-05
8.75297e-06
1.47883e-05
7.6404e-06
1.01004e-05
6.56892e-06
6.13627e-06
5.54762e-06
2.9727e-06
4.34807e-06
8.17473e-07
2.87268e-06
8.51912e-07
3.41686e-07
-6.72779e-07
9.71882e-07
-1.42136e-06
1.6478e-06
-1.63648e-06
2.13531e-06
-1.35793e-06
2.28987e-06
-7.57393e-07
1.99009e-06
7.73437e-08
1.17428e-06
1.00584e-06
-2.15225e-07
2.00736e-06
-2.22373e-06
3.0425e-06
-4.92597e-06
4.17487e-06
-8.42658e-06
5.45602e-06
-1.28821e-05
7.0035e-06
-1.84906e-05
8.90196e-06
-2.5483e-05
1.12424e-05
-3.40913e-05
1.40454e-05
-4.45162e-05
1.72919e-05
-5.68881e-05
2.08824e-05
-7.12288e-05
2.46677e-05
-8.74158e-05
2.84255e-05
-0.000105156
3.18881e-05
-0.000123978
3.47436e-05
-0.000143262
3.66839e-05
-0.000162286
3.74325e-05
-0.000180301
3.67892e-05
-0.000196591
3.46394e-05
-0.000210523
3.09643e-05
-0.000221572
2.58229e-05
-0.000229328
1.93442e-05
-0.000233487
1.17069e-05
-0.000233842
3.13676e-06
-0.000230274
-6.10473e-06
-0.000222747
-1.57134e-05
-0.000211312
-2.53482e-05
-0.000196119
-3.46231e-05
-0.00017743
-4.31182e-05
-0.000155638
-5.03834e-05
-0.000131284
-5.59696e-05
-0.000105063
-5.94555e-05
-7.7818e-05
-6.05057e-05
-5.05143e-05
-5.8917e-05
-2.41864e-05
-5.46832e-05
1.26592e-07
-4.80237e-05
2.14776e-05
-3.94011e-05
3.90887e-05
-2.94808e-05
5.24419e-05
-1.90608e-05
6.13167e-05
-8.96524e-06
6.58256e-05
7.00399e-08
6.63766e-05
7.48932e-06
6.36364e-05
1.2985e-05
5.8412e-05
1.6506e-05
5.15677e-05
1.82361e-05
4.38805e-05
1.85152e-05
3.60022e-05
1.77676e-05
2.83739e-05
1.63932e-05
2.12962e-05
1.47367e-05
1.49073e-05
1.29645e-05
9.34668e-06
1.11252e-05
4.74424e-06
8.95101e-06
1.45361e-06
6.17917e-06
2.30673e-06
3.36627e-07
-1.00869e-06
8.81387e-07
-1.96702e-06
1.35508e-06
-2.10936e-06
1.49472e-06
-1.49791e-06
1.13716e-06
-4.00285e-07
1.31362e-07
1.08241e-06
-1.62241e-06
2.75775e-06
-4.23267e-06
4.61584e-06
-7.8076e-06
6.61409e-06
-1.24969e-05
8.8609e-06
-1.84913e-05
1.14455e-05
-2.60373e-05
1.45444e-05
-3.54147e-05
1.82723e-05
-4.69069e-05
2.2727e-05
-6.07483e-05
2.78771e-05
-7.70695e-05
3.36022e-05
-9.58417e-05
3.96414e-05
-0.000116836
4.56471e-05
-0.000139606
5.11788e-05
-0.000163514
5.57772e-05
-0.000187792
5.90002e-05
-0.00021163
6.04998e-05
-0.000234261
6.00404e-05
-0.000255016
5.75209e-05
-0.000273345
5.29463e-05
-0.000288817
4.64153e-05
-0.000301095
3.80838e-05
-0.000309921
2.81572e-05
-0.00031509
1.68689e-05
-0.00031644
4.48684e-06
-0.000313845
-8.69311e-06
-0.000307214
-2.23305e-05
-0.0002965
-3.60405e-05
-0.000281719
-4.93753e-05
-0.000262971
-6.18309e-05
-0.000240472
-7.28417e-05
-0.000214586
-8.18125e-05
-0.000185851
-8.81452e-05
-0.000154999
-9.13117e-05
-0.000122956
-9.0917e-05
-9.08022e-05
-8.67978e-05
-5.97122e-05
-7.9081e-05
-3.08498e-05
-6.82367e-05
-5.26569e-06
-5.50473e-05
1.6221e-05
-4.05362e-05
3.30806e-05
-2.58229e-05
4.5122e-05
-1.19736e-05
5.24633e-05
1.37998e-07
5.55196e-05
9.91802e-06
5.49184e-05
1.70908e-05
5.14553e-05
2.16864e-05
4.59584e-05
2.39941e-05
3.9241e-05
2.44741e-05
3.19628e-05
2.36541e-05
2.46675e-05
2.20252e-05
1.76977e-05
1.99178e-05
1.13732e-05
1.74482e-05
5.93391e-06
1.43734e-05
1.89732e-06
1.02199e-05
4.1931e-06
2.52836e-07
-1.26101e-06
5.48724e-07
-2.26303e-06
6.02483e-07
-2.16271e-06
1.42374e-07
-1.0369e-06
-1.01072e-06
7.53186e-07
-3.03688e-06
3.1106e-06
-6.08195e-06
5.804e-06
-1.03158e-05
8.85293e-06
-1.59255e-05
1.22262e-05
-2.31511e-05
1.60911e-05
-3.22811e-05
2.05794e-05
-4.36461e-05
2.59155e-05
-5.75752e-05
3.22073e-05
-7.43337e-05
3.94936e-05
-9.40485e-05
4.76003e-05
-0.000116639
5.62038e-05
-0.000141779
6.47927e-05
-0.000168895
7.2776e-05
-0.000197223
7.95218e-05
-0.000225909
8.44794e-05
-0.000254109
8.72175e-05
-0.000281069
8.74795e-05
-0.000306165
8.5156e-05
-0.000328901
8.02757e-05
-0.000348891
7.29551e-05
-0.000365842
6.33826e-05
-0.000379526
5.17807e-05
-0.000389763
3.8403e-05
-0.000396403
2.35136e-05
-0.000399316
7.39859e-06
-0.000398377
-9.63966e-06
-0.000393462
-2.72585e-05
-0.000384451
-4.50703e-05
-0.000371237
-6.26131e-05
-0.000353749
-7.93473e-05
-0.000331987
-9.46361e-05
-0.000306066
-0.000107767
-0.000276277
-0.00011797
-0.000243133
-0.00012449
-0.000207417
-0.000126666
-0.000170185
-0.00012406
-0.000132728
-0.000116564
-9.64696e-05
-0.000104515
-6.28213e-05
-8.87111e-05
-3.29984e-05
-7.03669e-05
-7.89149e-06
-5.09336e-05
1.20258e-05
-3.18872e-05
2.66633e-05
-1.44943e-05
3.62745e-05
3.18114e-07
4.13465e-05
1.20283e-05
4.25665e-05
2.0481e-05
4.07088e-05
2.58613e-05
3.66156e-05
2.85825e-05
3.10514e-05
2.9225e-05
2.47278e-05
2.83637e-05
1.8171e-05
2.64771e-05
1.18891e-05
2.37455e-05
6.27786e-06
1.99815e-05
2.01892e-06
1.44959e-05
6.21157e-06
9.55469e-08
-1.3575e-06
-2.34278e-08
-2.14401e-06
-6.14609e-07
-1.57334e-06
-1.93568e-06
2.84348e-07
-4.1789e-06
2.99377e-06
-7.55572e-06
6.48696e-06
-1.22698e-05
1.05146e-05
-1.85647e-05
1.51462e-05
-2.67208e-05
2.03779e-05
-3.70765e-05
2.64437e-05
-5.00101e-05
3.35075e-05
-6.5899e-05
4.17998e-05
-8.50432e-05
5.13446e-05
-0.00010757
6.20141e-05
-0.000133357
7.33784e-05
-0.000161987
8.4826e-05
-0.00019278
9.55746e-05
-0.000224866
0.000104851
-0.000257314
0.000111957
-0.000289235
0.000116387
-0.000319856
0.000117823
-0.000348543
0.000116152
-0.000374807
0.000111404
-0.000398286
0.000103739
-0.00041873
9.33844e-05
-0.000435983
8.06224e-05
-0.000449959
6.57461e-05
-0.000460619
4.90566e-05
-0.000467947
3.08377e-05
-0.000471919
1.13712e-05
-0.000472484
-9.06911e-06
-0.000469546
-3.01859e-05
-0.000462953
-5.1649e-05
-0.000452495
-7.30525e-05
-0.00043792
-9.39002e-05
-0.000418965
-0.000113566
-0.000395411
-0.000131295
-0.000367154
-0.000146198
-0.000334305
-0.000157311
-0.00029728
-0.000163664
-0.000256886
-0.000164428
-0.000214356
-0.000159073
-0.000171293
-0.00014756
-0.000129529
-0.000130462
-9.08716e-05
-0.000109015
-5.6834e-05
-8.49691e-05
-2.83988e-05
-6.03223e-05
-5.96529e-06
-3.69337e-05
1.05931e-05
-1.62456e-05
2.17331e-05
8.77592e-07
2.81336e-05
1.40734e-05
3.05555e-05
2.34268e-05
2.98438e-05
2.9288e-05
2.68052e-05
3.22506e-05
2.22465e-05
3.29192e-05
1.68315e-05
3.18785e-05
1.12267e-05
2.93513e-05
5.98774e-06
2.5205e-05
1.9239e-06
1.85654e-05
8.12515e-06
-1.29672e-07
-1.22792e-06
-8.18581e-07
-1.45167e-06
-2.26119e-06
-1.31966e-07
-4.68245e-06
2.7095e-06
-8.29008e-06
6.60085e-06
-1.33339e-05
1.15351e-05
-2.00881e-05
1.72694e-05
-2.88782e-05
2.39413e-05
-4.00821e-05
3.15838e-05
-5.41218e-05
4.0489e-05
-7.1424e-05
5.08132e-05
-9.23296e-05
6.27119e-05
-0.00011699
7.60103e-05
-0.000145262
9.02933e-05
-0.000176669
0.000104793
-0.000210433
0.000118599
-0.000245584
0.000130733
-0.000281084
0.000140362
-0.000315955
0.000146839
-0.000349341
0.000149785
-0.000380548
0.000149041
-0.00040905
0.000144666
-0.000434497
0.000136863
-0.000456699
0.000125951
-0.000475605
0.000112299
-0.000491274
9.62988e-05
-0.000503839
7.83158e-05
-0.000513466
5.86861e-05
-0.000520321
3.76906e-05
-0.00052453
1.55754e-05
-0.000526157
-7.45157e-06
-0.000525173
-3.11828e-05
-0.00052144
-5.53983e-05
-0.000514697
-7.98143e-05
-0.000504561
-0.000104059
-0.000490536
-0.000127614
-0.000472061
-0.000149795
-0.000448576
-0.000169708
-0.000419635
-0.000186277
-0.00038505
-0.000198272
-0.000345052
-0.000204447
-0.00030044
-0.000203702
-0.000252661
-0.000195352
-0.000203766
-0.000179367
-0.000156183
-0.000156604
-0.000112336
-0.000128819
-7.41754e-05
-9.84814e-05
-4.28438e-05
-6.82636e-05
-1.85797e-05
-4.0503e-05
-9.56947e-07
-1.67404e-05
1.08345e-05
2.29159e-06
1.77018e-05
1.65648e-05
2.05935e-05
2.64072e-05
2.03927e-05
3.2455e-05
1.7983e-05
3.53405e-05
1.41337e-05
3.57284e-05
9.63136e-06
3.38663e-05
5.17048e-06
2.96621e-05
1.63886e-06
2.21116e-05
9.76329e-06
-4.38459e-07
-7.92998e-07
-1.86745e-06
-1.97201e-08
-4.37755e-06
2.37216e-06
-8.14328e-06
6.47734e-06
-1.33927e-05
1.18445e-05
-2.04222e-05
1.85653e-05
-2.95876e-05
2.64289e-05
-4.12978e-05
3.56506e-05
-5.60163e-05
4.62962e-05
-7.42075e-05
5.86778e-05
-9.62663e-05
7.28656e-05
-0.000122377
8.8819e-05
-0.000152411
0.000106037
-0.000185849
0.000123726
-0.000221834
0.00014077
-0.000259274
0.000156032
-0.000296998
0.000168449
-0.00033388
0.000177236
-0.000368932
0.000181881
-0.000401356
0.000182199
-0.000430579
0.000178253
-0.000456262
0.00017034
-0.000478296
0.000158886
-0.000496763
0.000144409
-0.000511894
0.000127422
-0.000524013
0.000108411
-0.000533487
8.77859e-05
-0.000540682
6.58803e-05
-0.000545927
4.29372e-05
-0.000549484
1.91375e-05
-0.000551526
-5.40194e-06
-0.000552113
-3.05847e-05
-0.000551173
-5.63251e-05
-0.000548477
-8.24955e-05
-0.000543618
-0.000108901
-0.000536
-0.000135214
-0.000524843
-0.000160934
-0.000509217
-0.000185317
-0.000488131
-0.000207347
-0.000460673
-0.000225715
-0.000426223
-0.000238882
-0.000384702
-0.00024521
-0.000336823
-0.00024322
-0.000284256
-0.000231926
-0.000229608
-0.000211246
-0.000176119
-0.000182306
-0.00012706
-0.000147539
-8.50105e-05
-0.000110316
-5.12881e-05
-7.42279e-05
-2.59162e-05
-4.21192e-05
-8.00831e-06
-1.56203e-05
3.64811e-06
4.89975e-06
1.03006e-05
1.97513e-05
1.30503e-05
2.96959e-05
1.29257e-05
3.54635e-05
1.08196e-05
3.78243e-05
7.6214e-06
3.70658e-05
4.139e-06
3.31327e-05
1.29371e-06
2.49612e-05
1.1049e-05
-8.30303e-07
3.55904e-08
-3.16318e-06
2.32206e-06
-6.93964e-06
6.14396e-06
-1.22687e-05
1.18146e-05
-1.94079e-05
1.8981e-05
-2.87077e-05
2.78727e-05
-4.06098e-05
3.83305e-05
-5.5593e-05
5.0641e-05
-7.4169e-05
6.48735e-05
-9.67682e-05
8.12841e-05
-0.000123641
9.97412e-05
-0.000154686
0.000119871
-0.000189392
0.000140747
-0.00022683
0.000161171
-0.000265794
0.000179739
-0.000304946
0.000195191
-0.000342983
0.000206493
-0.000378747
0.000213007
-0.000411316
0.000214458
-0.000440061
0.000210952
-0.000464671
0.000202869
-0.000485127
0.000190804
-0.000501663
0.000175428
-0.000514681
0.000157434
-0.000524689
0.000137434
-0.000532225
0.000115952
-0.000537817
9.33797e-05
-0.000541939
7.00032e-05
-0.000544998
4.59943e-05
-0.000547317
2.14525e-05
-0.00054913
-3.59579e-06
-0.000550569
-2.91539e-05
-0.000551653
-5.52517e-05
-0.000552259
-8.19007e-05
-0.000552095
-0.000109079
-0.00055065
-0.000136673
-0.000547168
-0.000164432
-0.000540614
-0.000191886
-0.000529699
-0.000218277
-0.00051296
-0.00024247
-0.000488931
-0.000262926
-0.000456426
-0.000277729
-0.000414905
-0.000284752
-0.000364874
-0.000281965
-0.000308188
-0.000267937
-0.0002481
-0.000242396
-0.000188864
-0.000206773
-0.000134862
-0.000164317
-8.94451e-05
-0.000119641
-5.4113e-05
-7.74488e-05
-2.84957e-05
-4.12313e-05
-1.11461e-05
-1.2447e-05
-3.22206e-07
8.93483e-06
5.52329e-06
2.38524e-05
7.72787e-06
3.32672e-05
7.39363e-06
3.81587e-05
5.54054e-06
3.8928e-05
3.08109e-06
3.55896e-05
9.4933e-07
2.71033e-05
1.19983e-05
-1.32567e-06
1.35413e-06
-4.73836e-06
5.74263e-06
-9.97974e-06
1.13734e-05
-1.70807e-05
1.8921e-05
-2.63379e-05
2.82282e-05
-3.81588e-05
3.96962e-05
-5.30631e-05
5.32259e-05
-7.15656e-05
6.91438e-05
-9.41616e-05
8.74613e-05
-0.000121144
0.000108265
-0.000152496
0.000131085
-0.000187723
0.000155096
-0.000225883
0.000178899
-0.000265652
0.000200936
-0.000305533
0.000219614
-0.00034402
0.000233673
-0.000379775
0.000242239
-0.000411737
0.000244964
-0.00043923
0.000241943
-0.000461974
0.000233689
-0.000480066
0.000220955
-0.000493896
0.000204629
-0.000504048
0.000185575
-0.000511193
0.000164577
-0.000516019
0.000142257
-0.000519158
0.000119091
-0.000521166
9.53887e-05
-0.000522504
7.13443e-05
-0.000523543
4.70385e-05
-0.000524573
2.24899e-05
-0.000525814
-2.34628e-06
-0.000527419
-2.75374e-05
-0.000529478
-5.31809e-05
-0.000531993
-7.93714e-05
-0.000534855
-0.000106203
-0.000537787
-0.000133725
-0.00054028
-0.000161922
-0.000541521
-0.000190631
-0.00054032
-0.000219463
-0.000535095
-0.000247682
-0.000523922
-0.000274088
-0.000504727
-0.000296916
-0.000475632
-0.00031384
-0.000435469
-0.000322125
-0.000384371
-0.000319032
-0.0003243
-0.000302467
-0.000259214
-0.000271857
-0.000194601
-0.000228931
-0.00013619
-0.000178052
-8.82343e-05
-0.000125409
-5.22724e-05
-7.71953e-05
-2.73574e-05
-3.73677e-05
-1.12995e-05
-7.12529e-06
-1.86656e-06
1.44131e-05
2.83678e-06
2.85628e-05
4.29014e-06
3.66983e-05
3.7335e-06
3.94854e-05
2.21339e-06
3.71017e-05
6.92843e-07
2.86262e-05
1.26856e-05
-1.914e-06
3.26382e-06
-6.55938e-06
1.04044e-05
-1.34275e-05
1.82317e-05
-2.24612e-05
2.79685e-05
-3.40058e-05
3.9767e-05
-4.85194e-05
5.42215e-05
-6.65762e-05
7.12803e-05
-8.86705e-05
9.12483e-05
-0.000115192
0.000113983
-0.00014618
0.000139262
-0.000181244
0.000166151
-0.000219438
0.000193298
-0.000259392
0.000218856
-0.00029945
0.000241001
-0.000337926
0.000258093
-0.00037328
0.000269035
-0.000404326
0.000273289
-0.000430322
0.000270966
-0.000451035
0.000262661
-0.000466676
0.000249337
-0.000477804
0.000232087
-0.000485174
0.000212005
-0.000489621
0.000190026
-0.000491946
0.000166905
-0.000492856
0.000143169
-0.000492929
0.000119165
-0.000492617
9.50759e-05
-0.000492255
7.09805e-05
-0.00049209
4.68699e-05
-0.000492306
2.27e-05
-0.000493046
-1.61304e-06
-0.000494434
-2.61585e-05
-0.000496577
-5.10475e-05
-0.000499566
-7.63926e-05
-0.000503455
-0.000102325
-0.000508219
-0.000128972
-0.000513693
-0.000156459
-0.000519478
-0.000184856
-0.000524826
-0.000214123
-0.000528525
-0.000243992
-0.000528807
-0.000273813
-0.000523358
-0.000302371
-0.000509491
-0.000327712
-0.000484549
-0.000347072
-0.000446576
-0.00035701
-0.000395164
-0.000353883
-0.000332279
-0.000334743
-0.000262655
-0.000298556
-0.000193223
-0.000247481
-0.000131305
-0.000187324
-8.20317e-05
-0.000126464
-4.67155e-05
-7.26818e-05
-2.34969e-05
-3.03393e-05
-9.41861e-06
3.36179e-07
-1.74516e-06
2.08946e-05
1.62705e-06
3.33264e-05
2.32537e-06
3.87931e-05
1.61376e-06
3.7812e-05
5.47075e-07
2.96997e-05
1.32331e-05
-2.60706e-06
5.85922e-06
-8.63016e-06
1.64422e-05
-1.72628e-05
2.68448e-05
-2.83525e-05
3.90683e-05
-4.22963e-05
5.36954e-05
-5.95837e-05
7.15143e-05
-8.08005e-05
9.24845e-05
-0.000106346
0.000116795
-0.000136404
0.000144031
-0.000170659
0.000173517
-0.000208281
0.000203763
-0.000247868
0.000232883
-0.000287688
0.000258669
-0.000325869
0.000279178
-0.000360703
0.000292919
-0.000390839
0.000299167
-0.000415477
0.000297921
-0.000434398
0.000289884
-0.000447929
0.000276186
-0.000456778
0.000258183
-0.000461879
0.000237184
-0.00046421
0.000214334
-0.000464679
0.000190492
-0.00046404
0.000166265
-0.000462875
0.000142002
-0.00046159
0.000117882
-0.000460455
9.39416e-05
-0.000459629
7.01572e-05
-0.000459207
4.64517e-05
-0.000459249
2.27472e-05
-0.000459809
-1.04698e-06
-0.000460951
-2.5008e-05
-0.000462768
-4.92224e-05
-0.000465377
-7.37751e-05
-0.000468918
-9.87742e-05
-0.000473533
-0.000124348
-0.000479325
-0.000150657
-0.000486287
-0.000177885
-0.000494194
-0.000206207
-0.000502454
-0.000235722
-0.000509938
-0.000266321
-0.000514808
-0.000297493
-0.000514456
-0.000328057
-0.000505622
-0.000355901
-0.000484836
-0.000377793
-0.000449239
-0.000389479
-0.000397751
-0.000386232
-0.000332287
-0.000364022
-0.000258462
-0.000321309
-0.000184931
-0.000260857
-0.00012078
-0.000190616
-7.18109e-05
-0.000121653
-3.85581e-05
-6.35936e-05
-1.79973e-05
-2.02286e-05
-6.38313e-06
9.27926e-06
-6.96127e-07
2.76349e-05
1.32448e-06
3.67726e-05
1.31281e-06
3.78183e-05
5.29425e-07
3.04844e-05
1.37587e-05
-3.37181e-06
9.22335e-06
-1.08641e-05
2.39599e-05
-2.1332e-05
3.72962e-05
-3.45222e-05
5.22793e-05
-5.08793e-05
7.00429e-05
-7.08921e-05
9.15435e-05
-9.51005e-05
0.000116688
-0.000123721
0.000145429
-0.000156642
0.00017695
-0.00019312
0.000210007
-0.000231875
0.000242519
-0.000271112
0.000272128
-0.000308864
0.000296423
-0.000343227
0.000313549
-0.000372709
0.000322403
-0.000396385
0.00032285
-0.000414036
0.000315575
-0.000426049
0.000301903
-0.00043328
0.00028342
-0.00043681
0.000261718
-0.000437761
0.000238138
-0.000437129
0.000213706
-0.000435716
0.00018908
-0.000434088
0.000164639
-0.000432607
0.00014052
-0.00043146
0.000116734
-0.00043072
9.31995e-05
-0.000430385
6.98195e-05
-0.000430423
4.6485e-05
-0.000430796
2.3115e-05
-0.000431487
-3.62569e-07
-0.000432509
-2.39926e-05
-0.000433922
-4.78181e-05
-0.00043583
-7.18756e-05
-0.000438393
-9.62205e-05
-0.000441815
-0.000120934
-0.000446336
-0.000146145
-0.000452189
-0.000172041
-0.000459536
-0.000198868
-0.000468347
-0.000226918
-0.00047823
-0.000256444
-0.000488198
-0.00028753
-0.00049643
-0.000319828
-0.000500103
-0.00035223
-0.000495445
-0.000382452
-0.000478175
-0.000406749
-0.000444495
-0.000419913
-0.000392594
-0.000415924
-0.000324382
-0.000389522
-0.000246594
-0.000338645
-0.000169952
-0.000267255
-0.000105372
-0.000186231
-5.87074e-05
-0.000110255
-2.90116e-05
-4.99225e-05
-1.18742e-05
-7.85564e-06
-3.08935e-06
1.88509e-05
5.33958e-07
3.31529e-05
1.22257e-06
3.7129e-05
6.08729e-07
3.11031e-05
1.43677e-05
-4.20398e-06
1.34106e-05
-1.3225e-05
3.30036e-05
-2.55512e-05
4.9594e-05
-4.08221e-05
6.75656e-05
-5.95127e-05
8.87123e-05
-8.2066e-05
0.000114105
-0.000108909
0.000143515
-0.000139999
0.000176523
-0.000174859
0.000211797
-0.000212306
0.000247454
-0.00025066
0.000280862
-0.000287856
0.000309323
-0.000321882
0.00033044
-0.000351034
0.000342699
-0.000374262
0.000345624
-0.000391247
0.000339833
-0.000402411
0.000326733
-0.000408689
0.000308179
-0.000411305
0.000286032
-0.0004115
0.000261911
-0.000410372
0.000237006
-0.000408756
0.000212088
-0.00040722
0.000187541
-0.000406075
0.000163494
-0.000405447
0.000139891
-0.000405325
0.000116614
-0.000405633
9.35082e-05
-0.000406258
7.04475e-05
-0.000407093
4.73239e-05
-0.000408049
2.40755e-05
-0.000409069
6.62567e-07
-0.000410134
-2.29219e-05
-0.00041127
-4.66756e-05
-0.000412553
-7.05862e-05
-0.000414115
-9.46515e-05
-0.00041615
-0.000118892
-0.000418919
-0.000143369
-0.00042274
-0.000168214
-0.000427964
-0.000193638
-0.000434909
-0.000219968
-0.00044374
-0.000247608
-0.000454267
-0.000277
-0.000465667
-0.000308424
-0.000476158
-0.000341736
-0.000482737
-0.000375871
-0.000481143
-0.000408339
-0.000466314
-0.000434741
-0.00043352
-0.000448717
-0.0003803
-0.000442744
-0.00030878
-0.000410169
-0.000227255
-0.000348784
-0.000148947
-0.000264539
-8.63361e-05
-0.000172867
-4.42103e-05
-9.20485e-05
-1.93114e-05
-3.27567e-05
-6.17351e-06
5.71077e-06
-3.64259e-07
2.73428e-05
1.20225e-06
3.55589e-05
7.44657e-07
3.15616e-05
1.51096e-05
-5.04307e-06
1.84423e-05
-1.55697e-05
4.35655e-05
-2.96863e-05
6.36868e-05
-4.69174e-05
8.48246e-05
-6.77427e-05
0.000109524
-9.25083e-05
0.000138892
-0.000121463
0.000172463
-0.000154243
0.000209319
-0.000189983
0.000247534
-0.000227093
0.000284577
-0.000263609
0.000317377
-0.000297372
0.000343097
-0.000326541
0.00035961
-0.000349829
0.000365996
-0.000366793
0.00036259
-0.000377766
0.000350813
-0.000383737
0.000332707
-0.000386011
0.000310459
-0.000385959
0.000285982
-0.000384763
0.00026072
-0.000383324
0.000235567
-0.000382205
0.000210972
-0.000381696
0.000187032
-0.00038186
0.000163659
-0.000382632
0.000140662
-0.000383867
0.000117848
-0.000385401
9.50402e-05
-0.000387074
7.21184e-05
-0.000388754
4.9e-05
-0.000390336
2.56538e-05
-0.000391755
2.07565e-06
-0.000392974
-2.17076e-05
-0.000394
-4.56557e-05
-0.000394874
-6.97183e-05
-0.000395686
-9.38455e-05
-0.00039658
-0.000118004
-0.000397771
-0.000142185
-0.000399549
-0.000166441
-0.000402297
-0.000190896
-0.000406463
-0.000215808
-0.000412513
-0.000241562
-0.000420798
-0.000268719
-0.000431331
-0.000297895
-0.000443438
-0.000329631
-0.000455359
-0.000363951
-0.000463867
-0.000399831
-0.000464186
-0.000434421
-0.000450448
-0.000462453
-0.000417075
-0.000476116
-0.000361168
-0.000466074
-0.000285559
-0.000424396
-0.000200814
-0.000349284
-0.000123072
-0.000250609
-6.54529e-05
-0.000149662
-2.99227e-05
-6.82861e-05
-1.07186e-05
-1.34916e-05
-1.79219e-06
1.84175e-05
1.05248e-06
3.27144e-05
8.73029e-07
3.17442e-05
1.59829e-05
-5.87093e-06
2.42914e-05
-1.78345e-05
5.55597e-05
-3.36157e-05
7.94309e-05
-5.26123e-05
0.000103842
-7.52722e-05
0.000132157
-0.000101794
0.000165426
-0.000132198
0.000202846
-0.000165772
0.000242899
-0.000201289
0.000283035
-0.000236845
0.000320134
-0.000270343
0.000350862
-0.000299729
0.000372483
-0.000323533
0.000383403
-0.000341034
0.000383496
-0.00035244
0.000373988
-0.000358661
0.000357032
-0.000361073
0.000335112
-0.000361127
0.000310511
-0.000360125
0.000284975
-0.000359026
0.000259619
-0.000358436
0.000234974
-0.000358623
0.000211158
-0.000359625
0.000188032
-0.000361319
0.000165354
-0.000363523
0.000142864
-0.000366025
0.000120351
-0.000368638
9.76547e-05
-0.000371201
7.46835e-05
-0.00037359
5.13916e-05
-0.000375712
2.778e-05
-0.000377509
3.87644e-06
-0.000378946
-2.02668e-05
-0.000380014
-4.45822e-05
-0.000380732
-6.89956e-05
-0.000381148
-9.34239e-05
-0.000381349
-0.000117798
-0.000381476
-0.000142053
-0.00038174
-0.000166173
-0.000382448
-0.000190183
-0.000384019
-0.000214233
-0.000386988
-0.00023859
-0.000391951
-0.000263754
-0.000399443
-0.000290401
-0.000409664
-0.000319409
-0.000422077
-0.000351538
-0.00043487
-0.000387037
-0.000444508
-0.000424783
-0.000445575
-0.000461385
-0.000431368
-0.000490323
-0.000395567
-0.000501872
-0.000335282
-0.000484685
-0.000254862
-0.000429706
-0.000168167
-0.000337309
-9.4325e-05
-0.000223502
-4.49205e-05
-0.00011769
-1.74671e-05
-4.09449e-05
-4.17164e-06
5.11903e-06
5.83966e-07
2.79579e-05
9.38497e-07
3.1389e-05
1.69199e-05
-6.60703e-06
3.08839e-05
-1.98435e-05
6.88402e-05
-3.70693e-05
9.66263e-05
-5.75412e-05
0.000124348
-8.16362e-05
0.000156234
-0.000109364
0.000193179
-0.000140486
0.000233959
-0.000173955
0.000276387
-0.000208242
0.000317319
-0.000241258
0.000353165
-0.000270948
0.000380551
-0.000295541
0.000397088
-0.000314077
0.000401939
-0.000326451
0.00039588
-0.00033346
0.000380998
-0.00033642
0.000360001
-0.000336881
0.000335574
-0.000336227
0.000309863
-0.000335535
0.000284285
-0.000335454
0.000259543
-0.000336284
0.000235804
-0.000338035
0.000212912
-0.000340564
0.000190561
-0.000343642
0.000168434
-0.000347038
0.000146259
-0.000350534
0.000123847
-0.000353958
0.000101077
-0.000357172
7.78963e-05
-0.000360079
5.42961e-05
-0.000362607
3.03051e-05
-0.000364711
5.97679e-06
-0.000366361
-1.862e-05
-0.000367549
-4.33992e-05
-0.000368274
-6.82743e-05
-0.00036856
-9.31423e-05
-0.000368447
-0.000117916
-0.000368013
-0.000142491
-0.00036738
-0.00016681
-0.000366751
-0.000190814
-0.000366433
-0.000214554
-0.000366877
-0.000238148
-0.000368683
-0.00026195
-0.00037258
-0.000286506
-0.000379265
-0.000312725
-0.000389123
-0.000341682
-0.000401684
-0.000374476
-0.00041501
-0.000411459
-0.000425074
-0.000451318
-0.000425676
-0.000489721
-0.000409193
-0.000518351
-0.000368816
-0.000525062
-0.000302368
-0.000496155
-0.000217004
-0.000422679
-0.000131068
-0.000309438
-6.55326e-05
-0.000183222
-2.70128e-05
-7.94574e-05
-7.88334e-06
-1.4015e-05
-3.61666e-07
2.04398e-05
8.93799e-07
3.01326e-05
1.78152e-05
-7.23206e-06
3.809e-05
-2.15362e-05
8.31811e-05
-3.99391e-05
0.000114985
-6.15396e-05
0.000145974
-8.66053e-05
0.000181269
-0.000114932
0.00022152
-0.000146024
0.000265028
-0.000178542
0.000308912
-0.000210759
0.000349518
-0.000240545
0.000382953
-0.000266042
0.000406033
-0.000285895
0.000416941
-0.00029971
0.000415743
-0.000307957
0.000404127
-0.000311872
0.000384904
-0.000312979
0.000361106
-0.000312795
0.000335383
-0.000312488
0.000309555
-0.000312829
0.000284619
-0.000314148
0.00026086
-0.000316486
0.000238138
-0.000319671
0.000216097
-0.000323464
0.000194351
-0.000327597
0.000172567
-0.000331846
0.000150507
-0.000336019
0.000128021
-0.00033998
0.000105038
-0.000343622
8.15399e-05
-0.000346875
5.75505e-05
-0.000349686
3.31187e-05
-0.000352024
8.31748e-06
-0.000353866
-1.67746e-05
-0.000355204
-4.20579e-05
-0.000356033
-6.74416e-05
-0.000356361
-9.281e-05
-0.000356203
-0.000118071
-0.000355591
-0.0001431
-0.000354581
-0.000167817
-0.000353281
-0.000192111
-0.000351871
-0.000215962
-0.00035066
-0.000239356
-0.000350118
-0.000262491
-0.000350924
-0.000285698
-0.000353919
-0.000309729
-0.000359979
-0.000335623
-0.000369608
-0.000364845
-0.000382357
-0.000398712
-0.000395962
-0.000437711
-0.000405725
-0.000479959
-0.000404415
-0.000519656
-0.000383521
-0.000545958
-0.000336161
-0.000543509
-0.000262094
-0.000496757
-0.000173023
-0.000398506
-9.26292e-05
-0.000263628
-3.99876e-05
-0.00013208
-1.31857e-05
-4.08283e-05
-1.91906e-06
9.17824e-06
7.19139e-07
2.74889e-05
1.85355e-05
-7.66362e-06
4.57371e-05
-2.27454e-05
9.83133e-05
-4.19849e-05
0.00013419
-6.43065e-05
0.000168335
-8.98366e-05
0.000206779
-0.000118152
0.000249864
-0.000148522
0.000295387
-0.00017939
0.000339802
-0.000208942
0.000379065
-0.000235142
0.00040917
-0.000256449
0.00042734
-0.000271991
0.000432496
-0.00028192
0.000425673
-0.000287161
0.00040938
-0.000289212
0.000386956
-0.000289612
0.000361515
-0.000289699
0.000335471
-0.000290342
0.000310206
-0.000291996
0.000286275
-0.000294725
0.000263594
-0.000298386
0.0002418
-0.000302708
0.000220423
-0.000307423
0.000199066
-0.000312276
0.000177423
-0.000317079
0.00015531
-0.00032168
0.000132623
-0.000325977
0.000109334
-0.00032989
8.5453e-05
-0.00033337
6.1029e-05
-0.000336376
3.61234e-05
-0.000338886
1.08243e-05
-0.000340879
-1.47834e-05
-0.000342351
-4.05883e-05
-0.000343298
-6.64979e-05
-0.000343725
-9.2386e-05
-0.000343636
-0.000118163
-0.000343044
-0.000143694
-0.000341967
-0.000168897
-0.000340449
-0.000193631
-0.00033857
-0.000217844
-0.0003365
-0.000241427
-0.000334535
-0.000264457
-0.000333186
-0.000287048
-0.000333197
-0.000309719
-0.00033556
-0.000333261
-0.000341284
-0.000359121
-0.000350986
-0.000389012
-0.000364045
-0.00042465
-0.00037769
-0.000466318
-0.000386196
-0.000511144
-0.00038116
-0.000550996
-0.000353283
-0.000571376
-0.000296557
-0.000553491
-0.000214448
-0.000480611
-0.00012549
-0.000352603
-5.72765e-05
-0.000200277
-2.02042e-05
-7.79013e-05
-4.24651e-06
-6.77723e-06
4.12115e-07
2.2826e-05
1.89507e-05
-7.89847e-06
5.3607e-05
-2.34486e-05
0.000113903
-4.31641e-05
0.000153857
-6.57833e-05
0.000190981
-9.12689e-05
0.00023223
-0.000118994
0.000277604
-0.00014804
0.000324407
-0.000176723
0.000368492
-0.000203249
0.000405571
-0.00022579
0.000431712
-0.000243194
0.000444728
-0.00025507
0.000444373
-0.000262034
0.000432624
-0.000265317
0.000412661
-0.000266499
0.000388128
-0.00026699
0.000362004
-0.000267861
0.000336332
-0.000269671
0.000312014
-0.000272602
0.000289199
-0.000276524
0.000267515
-0.000281195
0.000246465
-0.000286313
0.000225541
-0.00029163
0.000204379
-0.000296929
0.000182723
-0.000302067
0.000160446
-0.000306929
0.000137484
-0.00031144
0.000113845
-0.000315539
8.95529e-05
-0.000319185
6.46759e-05
-0.000322342
3.92817e-05
-0.000324988
1.3472e-05
-0.000327106
-1.2664e-05
-0.000328691