/*--------------------------------*- C++ -*----------------------------------*\
| =========                 |                                                 |
| \\      /  F ield         | OpenFOAM: The Open Source CFD Toolbox           |
|  \\    /   O peration     | Version:  2406                                  |
|   \\  /    A nd           | Website:  www.openfoam.com                      |
|    \\/     M anipulation  |                                                 |
\*---------------------------------------------------------------------------*/
FoamFile
{
    version     2.0;
    format      ascii;
    arch        "LSB;label=32;scalar=64";
    class       volVectorField;
    location    "30";
    object      U;
}
// * * * * * * * * * * * * * * * * * * * * * * * * * * * * * * * * * * * * * //

dimensions      [0 1 -1 0 0 0 0];

internalField   nonuniform List<vector> 
900
(
(0.00034903 -0.000514423 0)
(0.00324975 -0.00113607 0)
(0.00661799 -0.00096198 0)
(0.00820292 -0.000610565 0)
(0.00882848 -0.000537846 0)
(0.00876661 -0.000753358 0)
(0.00861602 -0.00110488 0)
(0.00826529 -0.00155062 0)
(0.00707461 -0.0027777 0)
(0.00276199 -0.00438467 0)
(-0.00691681 -0.00301496 0)
(-0.0230861 0.00271823 0)
(-0.0448799 0.00882218 0)
(-0.0683134 0.0115833 0)
(-0.0892997 0.0112738 0)
(-0.10561 0.0093507 0)
(-0.115973 0.00650887 0)
(-0.119494 0.00311797 0)
(-0.115841 -0.000580957 0)
(-0.104536 -0.00437435 0)
(-0.0861135 -0.00793335 0)
(-0.0608511 -0.010749 0)
(-0.0315545 -0.0120358 0)
(-0.000761859 -0.0108581 0)
(0.0243779 -0.00612934 0)
(0.0384276 0.000647645 0)
(0.036126 0.00618699 0)
(0.0237898 0.00666828 0)
(0.011246 0.00454656 0)
(0.00139907 0.00176511 0)
(0.0011098 -0.00306894 0)
(0.00596163 -0.00521508 0)
(0.0107831 -0.00395782 0)
(0.0124956 -0.0016155 0)
(0.0119144 8.83384e-06 0)
(0.00880027 0.00098101 0)
(0.00261256 0.00164964 0)
(-0.00967448 0.00311284 0)
(-0.0310729 0.00839237 0)
(-0.0615974 0.0187019 0)
(-0.097112 0.0292924 0)
(-0.131157 0.0356292 0)
(-0.159572 0.0366947 0)
(-0.181457 0.0330738 0)
(-0.197114 0.026273 0)
(-0.206543 0.0175486 0)
(-0.209627 0.0076102 0)
(-0.20619 -0.00307722 0)
(-0.196115 -0.0141635 0)
(-0.179113 -0.0252785 0)
(-0.155317 -0.0355897 0)
(-0.124849 -0.043945 0)
(-0.0891431 -0.0480375 0)
(-0.0504423 -0.0454712 0)
(-0.0134913 -0.0329899 0)
(0.0155653 -0.0126328 0)
(0.0287837 0.00871691 0)
(0.0249278 0.0179388 0)
(0.0145559 0.0181264 0)
(0.00216122 0.0108845 0)
(0.00173558 -0.00753566 0)
(0.00679109 -0.0108689 0)
(0.0102672 -0.00745824 0)
(0.00922459 -0.00178941 0)
(0.0039988 0.00313698 0)
(-0.00733021 0.00848572 0)
(-0.027827 0.0173503 0)
(-0.0597823 0.0321971 0)
(-0.100212 0.0490853 0)
(-0.140836 0.0611952 0)
(-0.175713 0.0659797 0)
(-0.203327 0.0647601 0)
(-0.223947 0.0586955 0)
(-0.238485 0.0486578 0)
(-0.247896 0.0359388 0)
(-0.252654 0.0214736 0)
(-0.253097 0.00585383 0)
(-0.249205 -0.0106698 0)
(-0.240863 -0.0277929 0)
(-0.227596 -0.0453264 0)
(-0.208909 -0.0621366 0)
(-0.184148 -0.0769956 0)
(-0.152798 -0.0862134 0)
(-0.115551 -0.0865671 0)
(-0.0735033 -0.0716679 0)
(-0.0324915 -0.0416039 0)
(4.16904e-05 -0.0028602 0)
(0.00961954 0.0203935 0)
(0.00809476 0.0272957 0)
(0.000305698 0.0181502 0)
(0.00203153 -0.0115513 0)
(0.00521016 -0.0138006 0)
(0.00431017 -0.00632193 0)
(-0.00298223 0.00468752 0)
(-0.0178369 0.0166489 0)
(-0.0431925 0.0329189 0)
(-0.0798097 0.0542176 0)
(-0.12225 0.0754292 0)
(-0.161974 0.089414 0)
(-0.194381 0.0944026 0)
(-0.219341 0.0919878 0)
(-0.237444 0.0839974 0)
(-0.24967 0.0719511 0)
(-0.257311 0.0571238 0)
(-0.261509 0.0405553 0)
(-0.262971 0.0228146 0)
(-0.262211 0.00420326 0)
(-0.259359 -0.0153848 0)
(-0.254457 -0.0358476 0)
(-0.247048 -0.0574769 0)
(-0.2365 -0.079218 0)
(-0.221495 -0.100457 0)
(-0.200237 -0.116848 0)
(-0.171101 -0.125195 0)
(-0.131821 -0.115865 0)
(-0.0849678 -0.0861955 0)
(-0.0340808 -0.0326918 0)
(-0.00263394 0.00971758 0)
(0.00305749 0.0278267 0)
(-0.00106275 0.0193834 0)
(0.00163482 -0.0148038 0)
(0.000695622 -0.0132439 0)
(-0.00707886 0.000715552 0)
(-0.0232361 0.0203042 0)
(-0.0494234 0.0433067 0)
(-0.0855437 0.0703517 0)
(-0.126545 0.0962715 0)
(-0.164359 0.114276 0)
(-0.194298 0.121021 0)
(-0.216002 0.118246 0)
(-0.230636 0.10876 0)
(-0.239389 0.0948898 0)
(-0.243944 0.0783936 0)
(-0.245517 0.0603395 0)
(-0.245293 0.041489 0)
(-0.243849 0.0220748 0)
(-0.241823 0.00222388 0)
(-0.239376 -0.0184679 0)
(-0.236938 -0.0400242 0)
(-0.234268 -0.0633083 0)
(-0.231296 -0.0875676 0)
(-0.226583 -0.113349 0)
(-0.21823 -0.136578 0)
(-0.202691 -0.155196 0)
(-0.175384 -0.157826 0)
(-0.133388 -0.139363 0)
(-0.0759322 -0.0850518 0)
(-0.0171447 -0.0170128 0)
(0.0033732 0.0258639 0)
(-0.000913126 0.0199705 0)
(-2.6986e-05 -0.0138122 0)
(-0.00739551 -0.005004 0)
(-0.0234169 0.017737 0)
(-0.0479629 0.0471694 0)
(-0.081283 0.0790342 0)
(-0.119113 0.110116 0)
(-0.154904 0.133039 0)
(-0.182743 0.143153 0)
(-0.201624 0.1411 0)
(-0.213006 0.130899 0)
(-0.218631 0.115551 0)
(-0.220201 0.0974931 0)
(-0.219389 0.0782695 0)
(-0.217166 0.0586553 0)
(-0.214441 0.0390911 0)
(-0.2114 0.0195027 0)
(-0.208518 -5.9865e-05 0)
(-0.205748 -0.0201618 0)
(-0.203796 -0.0407355 0)
(-0.202635 -0.063082 0)
(-0.20319 -0.0866897 0)
(-0.204621 -0.11359 0)
(-0.206344 -0.140663 0)
(-0.204542 -0.168285 0)
(-0.194035 -0.185254 0)
(-0.16801 -0.185954 0)
(-0.11959 -0.148671 0)
(-0.0509781 -0.0698731 0)
(0.00551238 0.0119359 0)
(-0.000744218 0.0218358 0)
(-0.002343 -0.0074775 0)
(-0.0163428 0.0101396 0)
(-0.0392617 0.041207 0)
(-0.0685563 0.0781443 0)
(-0.103 0.114342 0)
(-0.136469 0.143847 0)
(-0.163653 0.159759 0)
(-0.181364 0.160931 0)
(-0.191226 0.151222 0)
(-0.195178 0.135216 0)
(-0.195356 0.115936 0)
(-0.193519 0.095646 0)
(-0.191039 0.0753747 0)
(-0.188388 0.0553987 0)
(-0.185967 0.0357796 0)
(-0.183408 0.0161698 0)
(-0.180899 -0.00330096 0)
(-0.178016 -0.0231641 0)
(-0.175543 -0.0429102 0)
(-0.173348 -0.0638901 0)
(-0.173088 -0.0852501 0)
(-0.174496 -0.110164 0)
(-0.178917 -0.136314 0)
(-0.183751 -0.167476 0)
(-0.185782 -0.194214 0)
(-0.177362 -0.214092 0)
(-0.147383 -0.201748 0)
(-0.0933368 -0.143383 0)
(-0.00928596 -0.0234038 0)
(0.00603215 0.0244028 0)
(-0.00468326 0.00491521 0)
(-0.0240536 0.0321409 0)
(-0.0510387 0.0699971 0)
(-0.0811625 0.11105 0)
(-0.112767 0.146921 0)
(-0.139445 0.170807 0)
(-0.158081 0.177959 0)
(-0.167812 0.170833 0)
(-0.171572 0.155025 0)
(-0.171333 0.135161 0)
(-0.169422 0.114 0)
(-0.167215 0.0932584 0)
(-0.16553 0.0732057 0)
(-0.164277 0.0535961 0)
(-0.163379 0.0341484 0)
(-0.162105 0.0143697 0)
(-0.160512 -0.00541881 0)
(-0.157941 -0.0256676 0)
(-0.155241 -0.0453345 0)
(-0.151995 -0.0657633 0)
(-0.15017 -0.0853822 0)
(-0.149416 -0.107998 0)
(-0.152413 -0.131153 0)
(-0.157501 -0.161499 0)
(-0.164577 -0.191505 0)
(-0.166575 -0.22398 0)
(-0.154698 -0.233362 0)
(-0.119534 -0.207412 0)
(-0.0459908 -0.0878142 0)
(0.0181426 0.0188895 0)
(-0.00598272 0.0210914 0)
(-0.0281368 0.056543 0)
(-0.0561429 0.0981048 0)
(-0.0843034 0.139815 0)
(-0.111275 0.172428 0)
(-0.131191 0.189084 0)
(-0.143154 0.188059 0)
(-0.14766 0.174417 0)
(-0.14826 0.154712 0)
(-0.146578 0.133038 0)
(-0.144927 0.11178 0)
(-0.143892 0.0917013 0)
(-0.143884 0.0724117 0)
(-0.144268 0.0531844 0)
(-0.144816 0.0336264 0)
(-0.14459 0.0132248 0)
(-0.143752 -0.00737876 0)
(-0.141443 -0.0285601 0)
(-0.138679 -0.0486929 0)
(-0.134638 -0.06918 0)
(-0.131537 -0.0875905 0)
(-0.128508 -0.108232 0)
(-0.129166 -0.127925 0)
(-0.131999 -0.155559 0)
(-0.139837 -0.184864 0)
(-0.14636 -0.223744 0)
(-0.146594 -0.249414 0)
(-0.126264 -0.25106 0)
(-0.0770782 -0.163859 0)
(0.0071214 -0.00226586 0)
(-0.00625693 0.0390421 0)
(-0.028834 0.0825372 0)
(-0.0556767 0.126075 0)
(-0.0804181 0.166278 0)
(-0.102328 0.193741 0)
(-0.116484 0.202785 0)
(-0.12371 0.194508 0)
(-0.125268 0.176075 0)
(-0.124636 0.154031 0)
(-0.12306 0.131912 0)
(-0.122478 0.111374 0)
(-0.122782 0.092241 0)
(-0.124147 0.0736311 0)
(-0.125635 0.0545033 0)
(-0.127129 0.0345353 0)
(-0.127603 0.0132188 0)
(-0.127461 -0.00845863 0)
(-0.125626 -0.0309128 0)
(-0.123357 -0.0519581 0)
(-0.119297 -0.0731847 0)
(-0.115924 -0.09123 0)
(-0.111443 -0.11075 0)
(-0.110161 -0.127297 0)
(-0.10982 -0.151213 0)
(-0.11609 -0.17675 0)
(-0.123394 -0.217245 0)
(-0.130886 -0.253123 0)
(-0.123157 -0.276833 0)
(-0.0901837 -0.221624 0)
(-0.0226648 -0.0499207 0)
(-0.00544197 0.0560475 0)
(-0.0263356 0.106009 0)
(-0.05023 0.149439 0)
(-0.0708057 0.186404 0)
(-0.0879748 0.20832 0)
(-0.097767 0.210452 0)
(-0.102197 0.196799 0)
(-0.102483 0.175319 0)
(-0.101845 0.152437 0)
(-0.100946 0.130807 0)
(-0.101393 0.111435 0)
(-0.102523 0.0932755 0)
(-0.104566 0.0752384 0)
(-0.1064 0.0560603 0)
(-0.108228 0.0356351 0)
(-0.108912 0.0134195 0)
(-0.109234 -0.00922894 0)
(-0.107802 -0.0328742 0)
(-0.106301 -0.054797 0)
(-0.102715 -0.0769388 0)
(-0.100055 -0.0951122 0)
(-0.0953161 -0.114445 0)
(-0.0935553 -0.129123 0)
(-0.0907468 -0.150134 0)
(-0.0947013 -0.17085 0)
(-0.099533 -0.20918 0)
(-0.109638 -0.249244 0)
(-0.109154 -0.29164 0)
(-0.0876217 -0.264568 0)
(-0.0352214 -0.115063 0)
(-0.00395701 0.0708724 0)
(-0.0217371 0.127507 0)
(-0.0419068 0.170439 0)
(-0.0583004 0.2041 0)
(-0.0713234 0.220677 0)
(-0.077965 0.217166 0)
(-0.0806854 0.199333 0)
(-0.0805216 0.175857 0)
(-0.0801364 0.152583 0)
(-0.0797798 0.131536 0)
(-0.0806855 0.113033 0)
(-0.0819469 0.0954412 0)
(-0.0839528 0.0776118 0)
(-0.0855288 0.0581407 0)
(-0.0872722 0.0371968 0)
(-0.0878798 0.014125 0)
(-0.0885928 -0.00935138 0)
(-0.0875702 -0.0340509 0)
(-0.0870753 -0.0567335 0)
(-0.0842468 -0.0797692 0)
(-0.0829165 -0.0982126 0)
(-0.07868 -0.117733 0)
(-0.0777403 -0.131363 0)
(-0.0739127 -0.15066 0)
(-0.0767606 -0.167454 0)
(-0.0787367 -0.202768 0)
(-0.0888824 -0.243112 0)
(-0.0909594 -0.298662 0)
(-0.0774476 -0.296562 0)
(-0.0328078 -0.173273 0)
(-0.00195543 0.081695 0)
(-0.0156529 0.143953 0)
(-0.0314212 0.185808 0)
(-0.0437304 0.215742 0)
(-0.0532245 0.227862 0)
(-0.0576398 0.219812 0)
(-0.0595691 0.199302 0)
(-0.0594245 0.174702 0)
(-0.0594211 0.151603 0)
(-0.0592867 0.131238 0)
(-0.0601477 0.11353 0)
(-0.0609452 0.0964036 0)
(-0.0624168 0.0788123 0)
(-0.0633039 0.0592162 0)
(-0.0646928 0.0380697 0)
(-0.0649825 0.0145264 0)
(-0.0660098 -0.00934454 0)
(-0.0653166 -0.0346931 0)
(-0.0659589 -0.0578009 0)
(-0.06401 -0.0815158 0)
(-0.0644076 -0.10023 0)
(-0.0611088 -0.120171 0)
(-0.0617698 -0.133328 0)
(-0.0578449 -0.151781 0)
(-0.060715 -0.165433 0)
(-0.0603574 -0.197647 0)
(-0.0703381 -0.23646 0)
(-0.0736498 -0.302666 0)
(-0.0669508 -0.322931 0)
(-0.0295306 -0.225523 0)
(0.000145014 0.0885953 0)
(-0.00890483 0.157062 0)
(-0.0202543 0.198472 0)
(-0.0288137 0.225959 0)
(-0.0352618 0.234623 0)
(-0.0380859 0.223691 0)
(-0.0394433 0.201252 0)
(-0.0393455 0.175844 0)
(-0.039399 0.152567 0)
(-0.0390796 0.132341 0)
(-0.0394367 0.11483 0)
(-0.0393946 0.0977359 0)
(-0.0400582 0.0801532 0)
(-0.0400338 0.0603715 0)
(-0.0409565 0.0391231 0)
(-0.0407946 0.0153007 0)
(-0.0421354 -0.0086818 0)
(-0.0417084 -0.0343697 0)
(-0.0435884 -0.0576052 0)
(-0.0425573 -0.0817368 0)
(-0.0449273 -0.10057 0)
(-0.0428515 -0.120947 0)
(-0.0457037 -0.133974 0)
(-0.0425063 -0.15244 0)
(-0.0465524 -0.164243 0)
(-0.0446655 -0.193901 0)
(-0.0543606 -0.229204 0)
(-0.057449 -0.301867 0)
(-0.0566912 -0.340753 0)
(-0.0256862 -0.270009 0)
(0.00231317 0.0904745 0)
(-0.00189867 0.164244 0)
(-0.00864824 0.205607 0)
(-0.0137205 0.230621 0)
(-0.017545 0.237051 0)
(-0.0191069 0.223955 0)
(-0.0202248 0.200498 0)
(-0.0202219 0.174538 0)
(-0.0203684 0.151242 0)
(-0.0197058 0.1311 0)
(-0.0194476 0.113786 0)
(-0.0183799 0.0968179 0)
(-0.0181333 0.0794765 0)
(-0.0170445 0.0598643 0)
(-0.0174481 0.0389655 0)
(-0.016709 0.0153865 0)
(-0.0183442 -0.00816357 0)
(-0.0180572 -0.0336516 0)
(-0.021164 -0.0565472 0)
(-0.0209629 -0.080708 0)
(-0.0253365 -0.0993877 0)
(-0.0244989 -0.120064 0)
(-0.0297386 -0.132976 0)
(-0.0275771 -0.151743 0)
(-0.0336164 -0.162468 0)
(-0.0312203 -0.190715 0)
(-0.0416117 -0.222872 0)
(-0.0442866 -0.300369 0)
(-0.0485564 -0.354429 0)
(-0.0223553 -0.308267 0)
(0.00413225 0.0883478 0)
(0.00489096 0.168015 0)
(0.00249361 0.210343 0)
(0.00067784 0.234884 0)
(-0.000665041 0.240103 0)
(-0.00112536 0.226544 0)
(-0.00182437 0.202537 0)
(-0.00180977 0.17612 0)
(-0.00183175 0.152232 0)
(-0.000718888 0.13149 0)
(0.000197019 0.11372 0)
(0.00228619 0.0964194 0)
(0.00335689 0.0790946 0)
(0.00547738 0.0595947 0)
(0.00548044 0.0391467 0)
(0.00681121 0.0159902 0)
(0.00482525 -0.00688016 0)
(0.00505204 -0.0318909 0)
(0.000723066 -0.0541418 0)
(0.000173756 -0.0780635 0)
(-0.00620537 -0.0963595 0)
(-0.0065775 -0.117223 0)
(-0.0143149 -0.13008 0)
(-0.0132887 -0.149432 0)
(-0.0217148 -0.159659 0)
(-0.0192028 -0.18694 0)
(-0.0308687 -0.215213 0)
(-0.0328499 -0.295298 0)
(-0.042037 -0.362188 0)
(-0.0195115 -0.341335 0)
(0.00567528 0.0815062 0)
(0.0111183 0.165652 0)
(0.0131456 0.209792 0)
(0.0143845 0.233578 0)
(0.0152684 0.238803 0)
(0.0159343 0.225007 0)
(0.0154893 0.201122 0)
(0.0155219 0.174356 0)
(0.0153846 0.150067 0)
(0.016797 0.128817 0)
(0.0180848 0.11075 0)
(0.0210444 0.093354 0)
(0.0227481 0.076355 0)
(0.0258716 0.0573773 0)
(0.0262124 0.0378285 0)
(0.0282114 0.0156022 0)
(0.0259068 -0.00607255 0)
(0.026216 -0.0300889 0)
(0.0207933 -0.0511923 0)
(0.0197041 -0.074442 0)
(0.0114856 -0.0919945 0)
(0.0101403 -0.112774 0)
(-2.77823e-06 -0.125421 0)
(1.94774e-05 -0.145352 0)
(-0.0110616 -0.155494 0)
(-0.00877989 -0.182758 0)
(-0.0224707 -0.208079 0)
(-0.0236178 -0.289899 0)
(-0.0373496 -0.367011 0)
(-0.0170365 -0.370322 0)
(0.0064009 0.0717721 0)
(0.0164688 0.160463 0)
(0.0226066 0.207222 0)
(0.0269269 0.232772 0)
(0.0302421 0.238702 0)
(0.0322126 0.226476 0)
(0.032471 0.203176 0)
(0.0326752 0.176344 0)
(0.0325281 0.15122 0)
(0.0341097 0.128833 0)
(0.0355051 0.10979 0)
(0.0390407 0.0917048 0)
(0.0410137 0.0746562 0)
(0.0449073 0.0559684 0)
(0.0453239 0.0372807 0)
(0.0478982 0.0160138 0)
(0.0451765 -0.00431156 0)
(0.0456108 -0.0271975 0)
(0.0391448 -0.0469471 0)
(0.0376922 -0.0693424 0)
(0.0277573 -0.0859707 0)
(0.0256944 -0.106535 0)
(0.0132713 -0.118938 0)
(0.0125872 -0.139445 0)
(-0.00116714 -0.149606 0)
(0.00100267 -0.176903 0)
(-0.0152556 -0.199004 0)
(-0.0154322 -0.28148 0)
(-0.0340152 -0.367739 0)
(-0.0148133 -0.396286 0)
(0.00644143 0.0586984 0)
(0.0204116 0.149088 0)
(0.0307926 0.199359 0)
(0.0380865 0.225648 0)
(0.0436192 0.233491 0)
(0.047125 0.222571 0)
(0.0479865 0.200623 0)
(0.0485245 0.174021 0)
(0.0481343 0.14858 0)
(0.0497224 0.125479 0)
(0.0508093 0.105832 0)
(0.0546192 0.0874195 0)
(0.0564792 0.0706173 0)
(0.0609509 0.0525771 0)
(0.0612621 0.0350972 0)
(0.0644011 0.0151763 0)
(0.0612996 -0.00338962 0)
(0.0620228 -0.0247334 0)
(0.0546842 -0.042726 0)
(0.0531784 -0.0638703 0)
(0.0417869 -0.0792525 0)
(0.0394276 -0.0993071 0)
(0.0249662 -0.111297 0)
(0.0239679 -0.132212 0)
(0.00753721 -0.142539 0)
(0.00974746 -0.170302 0)
(-0.00952791 -0.190009 0)
(-0.00838472 -0.272612 0)
(-0.0319497 -0.36631 0)
(-0.0125827 -0.419829 0)
(0.00510908 0.0452013 0)
(0.0227076 0.136011 0)
(0.036932 0.189778 0)
(0.0475068 0.219974 0)
(0.0558432 0.229873 0)
(0.0613759 0.222237 0)
(0.0636995 0.202079 0)
(0.0649947 0.176288 0)
(0.0646873 0.150392 0)
(0.0662501 0.126155 0)
(0.0667767 0.105334 0)
(0.0704791 0.0859144 0)
(0.0717221 0.0688391 0)
(0.076346 0.0509415 0)
(0.0761359 0.0344318 0)
(0.0795839 0.0156076 0)
(0.0758905 -0.00123235 0)
(0.0769094 -0.0210893 0)
(0.0686841 -0.0372741 0)
(0.0673671 -0.0571342 0)
(0.0546521 -0.0712068 0)
(0.052391 -0.0906705 0)
(0.0360444 -0.102186 0)
(0.0351596 -0.123346 0)
(0.016039 -0.133703 0)
(0.0185638 -0.161649 0)
(-0.00426522 -0.178846 0)
(-0.00157902 -0.260931 0)
(-0.0308115 -0.361818 0)
(-0.0101834 -0.441597 0)
(0.00314363 0.0309291 0)
(0.0227141 0.116774 0)
(0.0409196 0.174603 0)
(0.0545845 0.206316 0)
(0.0653012 0.219628 0)
(0.07317 0.214369 0)
(0.076875 0.19701 0)
(0.0794829 0.17264 0)
(0.0793947 0.147332 0)
(0.081256 0.122906 0)
(0.0811509 0.101684 0)
(0.0847336 0.0819133 0)
(0.0850821 0.0649522 0)
(0.0896933 0.0475301 0)
(0.0887116 0.0321908 0)
(0.0924165 0.014705 0)
(0.0880342 -0.000247152 0)
(0.0895191 -0.0183569 0)
(0.080496 -0.0325517 0)
(0.0797373 -0.0508432 0)
(0.0659067 -0.0634115 0)
(0.0642123 -0.0819795 0)
(0.0461643 -0.0928423 0)
(0.045788 -0.113892 0)
(0.0239176 -0.124199 0)
(0.0269768 -0.152242 0)
(0.000158786 -0.167567 0)
(0.00485054 -0.248551 0)
(-0.0306044 -0.355594 0)
(-0.00736742 -0.461823 0)
(0.000493613 0.0197325 0)
(0.0206645 0.0981987 0)
(0.0418872 0.158242 0)
(0.0589636 0.195687 0)
(0.0730976 0.211574 0)
(0.0840274 0.210775 0)
(0.0904651 0.196162 0)
(0.0951934 0.173808 0)
(0.0961521 0.149121 0)
(0.0987283 0.124318 0)
(0.098186 0.102446 0)
(0.1016 0.0817709 0)
(0.100819 0.0645493 0)
(0.105095 0.0469705 0)
(0.102922 0.0324647 0)
(0.106609 0.0158174 0)
(0.101161 0.00252917 0)
(0.103053 -0.0141637 0)
(0.0930055 -0.0264723 0)
(0.0929798 -0.0433619 0)
(0.0779304 -0.0544179 0)
(0.0771104 -0.0720615 0)
(0.0572464 -0.0821074 0)
(0.0576346 -0.102721 0)
(0.0327235 -0.112644 0)
(0.0364227 -0.140249 0)
(0.00493407 -0.153753 0)
(0.0119052 -0.233083 0)
(-0.030884 -0.346788 0)
(-0.00383806 -0.480735 0)
(-0.00054359 0.00977107 0)
(0.0167922 0.074699 0)
(0.0402161 0.136366 0)
(0.0598274 0.174461 0)
(0.0760005 0.194608 0)
(0.0901761 0.196446 0)
(0.0990416 0.185919 0)
(0.106946 0.16641 0)
(0.109613 0.143917 0)
(0.114131 0.120247 0)
(0.113824 0.0990128 0)
(0.117943 0.0785686 0)
(0.116301 0.0617654 0)
(0.12073 0.0446363 0)
(0.117256 0.0311048 0)
(0.12122 0.0155871 0)
(0.114477 0.00386961 0)
(0.117062 -0.0112144 0)
(0.105823 -0.0217438 0)
(0.106863 -0.0370001 0)
(0.0905043 -0.0465408 0)
(0.0908443 -0.0628858 0)
(0.0690177 -0.0719314 0)
(0.0702587 -0.0915321 0)
(0.0419742 -0.100846 0)
(0.0462355 -0.127522 0)
(0.00949048 -0.13991 0)
(0.01907 -0.216673 0)
(-0.0318781 -0.336534 0)
(0.000660664 -0.498194 0)
(-0.0014752 0.0039131 0)
(0.0117663 0.0576147 0)
(0.034544 0.115656 0)
(0.0566675 0.160186 0)
(0.0766408 0.1816 0)
(0.0947767 0.187865 0)
(0.107739 0.179909 0)
(0.119681 0.163189 0)
(0.125197 0.142612 0)
(0.132465 0.1199 0)
(0.133172 0.099417 0)
(0.138552 0.0789472 0)
(0.136444 0.0626327 0)
(0.141303 0.0455472 0)
(0.136554 0.0329403 0)
(0.14084 0.0180028 0)
(0.132575 0.00778209 0)
(0.135787 -0.00625876 0)
(0.122972 -0.0149837 0)
(0.12499 -0.0290177 0)
(0.106799 -0.0367952 0)
(0.108203 -0.0519004 0)
(0.0837576 -0.0594014 0)
(0.0857854 -0.0775848 0)
(0.0534306 -0.0856357 0)
(0.0582758 -0.110711 0)
(0.0155056 -0.122299 0)
(0.0282391 -0.195983 0)
(-0.0322663 -0.323725 0)
(0.00687286 -0.513843 0)
(0.000923947 -0.000636133 0)
(0.00812048 0.0378012 0)
(0.0267123 0.0914834 0)
(0.0488619 0.131366 0)
(0.0685374 0.156551 0)
(0.0907535 0.164466 0)
(0.106893 0.161181 0)
(0.124452 0.14818 0)
(0.133724 0.131429 0)
(0.145833 0.111473 0)
(0.148745 0.0933188 0)
(0.157412 0.0744099 0)
(0.155566 0.0594875 0)
(0.162504 0.0435513 0)
(0.156633 0.0321283 0)
(0.162443 0.0184918 0)
(0.152357 0.00959648 0)
(0.157042 -0.00283713 0)
(0.142113 -0.0101031 0)
(0.145704 -0.0223083 0)
(0.125114 -0.0286363 0)
(0.127989 -0.0417672 0)
(0.100477 -0.047921 0)
(0.103468 -0.063907 0)
(0.0666459 -0.0708684 0)
(0.0718645 -0.0937244 0)
(0.0226005 -0.105843 0)
(0.038259 -0.175034 0)
(-0.0322293 -0.31 0)
(0.0152548 -0.526564 0)
(-0.00163027 -0.00505314 0)
(0.000839805 0.0326824 0)
(0.0138534 0.0752863 0)
(0.0357187 0.119229 0)
(0.059371 0.140128 0)
(0.0855083 0.149804 0)
(0.106473 0.146885 0)
(0.12954 0.136209 0)
(0.143178 0.122136 0)
(0.160501 0.104487 0)
(0.166259 0.0888758 0)
(0.178841 0.0715992 0)
(0.178065 0.0586786 0)
(0.187601 0.0438468 0)
(0.181402 0.0342531 0)
(0.188942 0.0215183 0)
(0.177615 0.0145979 0)
(0.183636 0.00304563 0)
(0.1668 -0.00197665 0)
(0.171606 -0.0132223 0)
(0.148317 -0.0170026 0)
(0.152337 -0.028856 0)
(0.120849 -0.0321145 0)
(0.124958 -0.0459803 0)
(0.0823776 -0.0500691 0)
(0.0895314 -0.0701595 0)
(0.0330084 -0.0826719 0)
(0.0544843 -0.146967 0)
(-0.0263394 -0.292679 0)
(0.0281899 -0.534336 0)
(0.00478607 0.000549035 0)
(0.0033159 0.02104 0)
(-0.00241007 0.0567393 0)
(0.0153988 0.0841538 0)
(0.0335098 0.106721 0)
(0.0653749 0.115967 0)
(0.0894424 0.117391 0)
(0.120688 0.110375 0)
(0.139051 0.100968 0)
(0.164138 0.0873354 0)
(0.173383 0.0755938 0)
(0.192399 0.0614776 0)
(0.192981 0.0513868 0)
(0.207618 0.0389963 0)
(0.200706 0.0314909 0)
(0.212494 0.0209542 0)
(0.198748 0.0156932 0)
(0.208736 0.00649756 0)
(0.188152 0.00286199 0)
(0.197093 -0.00557045 0)
(0.169059 -0.0081895 0)
(0.177671 -0.0165402 0)
(0.14085 -0.0189378 0)
(0.150215 -0.0286843 0)
(0.102234 -0.0329575 0)
(0.115142 -0.0496639 0)
(0.0522797 -0.0664519 0)
(0.0781119 -0.124891 0)
(-0.0121521 -0.276492 0)
(0.0469508 -0.531037 0)
(-0.0217363 -0.0152748 0)
(-0.0219449 0.0421331 0)
(-0.0155159 0.0631226 0)
(-0.00711074 0.0856658 0)
(0.0181139 0.090776 0)
(0.051624 0.0946883 0)
(0.0801412 0.092456 0)
(0.11623 0.0864123 0)
(0.138562 0.0798458 0)
(0.169204 0.069569 0)
(0.181256 0.0619408 0)
(0.205449 0.051291 0)
(0.207235 0.0449083 0)
(0.226419 0.0353256 0)
(0.219162 0.0309747 0)
(0.235153 0.0225259 0)
(0.219833 0.0201757 0)
(0.234237 0.0124275 0)
(0.211149 0.0118359 0)
(0.225436 0.00425654 0)
(0.194026 0.00516493 0)
(0.209816 -0.00282366 0)
(0.168317 -0.000937473 0)
(0.1878 -0.0103009 0)
(0.132617 -0.00958071 0)
(0.1594 -0.0242672 0)
(0.0857255 -0.037468 0)
(0.127971 -0.089547 0)
(0.0350965 -0.244749 0)
(0.082921 -0.504815 0)
(-0.0831947 0.0504969 0)
(-0.0816646 0.0120417 0)
(-0.109631 0.0421415 0)
(-0.0680699 0.0466047 0)
(-0.0486988 0.0473941 0)
(0.0017361 0.0516839 0)
(0.0318083 0.052969 0)
(0.0803427 0.0504912 0)
(0.104262 0.0486014 0)
(0.147671 0.0432965 0)
(0.159862 0.0400612 0)
(0.198313 0.0340503 0)
(0.19835 0.0311339 0)
(0.233739 0.0254856 0)
(0.222558 0.0235091 0)
(0.257335 0.0185575 0)
(0.235599 0.0174572 0)
(0.272259 0.0132825 0)
(0.239879 0.0126668 0)
(0.280904 0.00940978 0)
(0.237005 0.00863494 0)
(0.284918 0.00656644 0)
(0.227943 0.00451727 0)
(0.285176 0.00336322 0)
(0.213124 -0.00288053 0)
(0.281066 -0.00912423 0)
(0.191655 -0.0339989 0)
(0.265019 -0.0871267 0)
(0.143995 -0.225998 0)
(0.139629 -0.434001 0)
(0.0797366 0.136081 0)
(0.118446 0.0740934 0)
(0.157588 0.0500899 0)
(0.211854 0.0293625 0)
(0.231403 0.0221099 0)
(0.280792 0.0156834 0)
(0.297093 0.014786 0)
(0.349039 0.013702 0)
(0.360128 0.013664 0)
(0.412183 0.0131339 0)
(0.415419 0.0127012 0)
(0.465963 0.0118755 0)
(0.460071 0.0111018 0)
(0.509275 0.0101425 0)
(0.494252 0.00923779 0)
(0.54321 0.00834082 0)
(0.519489 0.00744194 0)
(0.569499 0.00665337 0)
(0.537501 0.00588938 0)
(0.589732 0.00505915 0)
(0.549706 0.004671 0)
(0.60505 0.00330863 0)
(0.556864 0.00376436 0)
(0.615574 0.000552224 0)
(0.557279 0.00232644 0)
(0.61661 -0.00692918 0)
(0.535401 -0.00633068 0)
(0.573871 -0.0393479 0)
(0.396502 -0.0644876 0)
(0.291945 -0.19774 0)
)
;

boundaryField
{
    movingWall
    {
        type            fixedValue;
        value           uniform (1 0 0);
    }
    fixedWalls
    {
        type            noSlip;
    }
    frontAndBack
    {
        type            empty;
    }
}


// ************************************************************************* //
