/*--------------------------------*- C++ -*----------------------------------*\
| =========                 |                                                 |
| \\      /  F ield         | OpenFOAM: The Open Source CFD Toolbox           |
|  \\    /   O peration     | Version:  2406                                  |
|   \\  /    A nd           | Website:  www.openfoam.com                      |
|    \\/     M anipulation  |                                                 |
\*---------------------------------------------------------------------------*/
FoamFile
{
    version     2.0;
    format      ascii;
    arch        "LSB;label=32;scalar=64";
    class       volVectorField;
    location    "12.2";
    object      U;
}
// * * * * * * * * * * * * * * * * * * * * * * * * * * * * * * * * * * * * * //

dimensions      [0 1 -1 0 0 0 0];

internalField   nonuniform List<vector> 
14400
(
(3.77237e-06 -3.75657e-06 0)
(1.54354e-05 -3.14411e-06 0)
(1.92332e-05 -6.26187e-07 0)
(1.10756e-05 2.73251e-06 0)
(-1.03331e-05 5.89257e-06 0)
(-4.35761e-05 8.54564e-06 0)
(-8.65222e-05 1.06019e-05 0)
(-0.000136928 1.21035e-05 0)
(-0.000192769 1.31417e-05 0)
(-0.000252382 1.38202e-05 0)
(-0.000314488 1.42377e-05 0)
(-0.000378167 1.44795e-05 0)
(-0.00044281 1.46148e-05 0)
(-0.000508054 1.46968e-05 0)
(-0.000573726 1.47646e-05 0)
(-0.000639791 1.48449e-05 0)
(-0.000706309 1.49548e-05 0)
(-0.000773399 1.5104e-05 0)
(-0.000841211 1.52964e-05 0)
(-0.000909906 1.5532e-05 0)
(-0.000979645 1.58082e-05 0)
(-0.00105057 1.61205e-05 0)
(-0.00112282 1.64636e-05 0)
(-0.00119649 1.68312e-05 0)
(-0.00127167 1.72172e-05 0)
(-0.0013484 1.76151e-05 0)
(-0.00142672 1.80184e-05 0)
(-0.00150663 1.84209e-05 0)
(-0.0015881 1.8816e-05 0)
(-0.00167107 1.91975e-05 0)
(-0.00175548 1.9559e-05 0)
(-0.0018412 1.98941e-05 0)
(-0.00192811 2.01965e-05 0)
(-0.00201605 2.04595e-05 0)
(-0.00210482 2.06768e-05 0)
(-0.00219421 2.08416e-05 0)
(-0.00228397 2.09473e-05 0)
(-0.00237383 2.09873e-05 0)
(-0.0024635 2.09548e-05 0)
(-0.00255263 2.08432e-05 0)
(-0.00264088 2.0646e-05 0)
(-0.00272786 2.03564e-05 0)
(-0.00281317 1.99683e-05 0)
(-0.00289637 1.94754e-05 0)
(-0.00297701 1.88718e-05 0)
(-0.00305461 1.81519e-05 0)
(-0.00312867 1.73105e-05 0)
(-0.00319868 1.6343e-05 0)
(-0.00326409 1.52454e-05 0)
(-0.00332438 1.40145e-05 0)
(-0.00337899 1.26479e-05 0)
(-0.00342735 1.11442e-05 0)
(-0.00346892 9.50344e-06 0)
(-0.00350315 7.72675e-06 0)
(-0.00352949 5.81545e-06 0)
(-0.00354744 3.77577e-06 0)
(-0.00355652 1.63652e-06 0)
(-0.00355623 -6.03052e-07 0)
(-0.00354617 -2.96926e-06 0)
(-0.00352601 -5.42735e-06 0)
(-0.00349544 -7.95292e-06 0)
(-0.00345424 -1.05304e-05 0)
(-0.00340224 -1.314e-05 0)
(-0.00333939 -1.57596e-05 0)
(-0.00326572 -1.83653e-05 0)
(-0.00318137 -2.09313e-05 0)
(-0.00308657 -2.34309e-05 0)
(-0.00298167 -2.58366e-05 0)
(-0.00286714 -2.81207e-05 0)
(-0.00274353 -3.02557e-05 0)
(-0.00261153 -3.22151e-05 0)
(-0.00247191 -3.39741e-05 0)
(-0.00232553 -3.55097e-05 0)
(-0.00217336 -3.68019e-05 0)
(-0.00201642 -3.78338e-05 0)
(-0.00185581 -3.8592e-05 0)
(-0.00169264 -3.90674e-05 0)
(-0.00152808 -3.92551e-05 0)
(-0.0013633 -3.91546e-05 0)
(-0.00119945 -3.87699e-05 0)
(-0.00103769 -3.81095e-05 0)
(-0.000879099 -3.71859e-05 0)
(-0.000724723 -3.60154e-05 0)
(-0.000575531 -3.46175e-05 0)
(-0.000432409 -3.30148e-05 0)
(-0.000296152 -3.1232e-05 0)
(-0.000167454 -2.92951e-05 0)
(-4.69026e-05 -2.72314e-05 0)
(6.50222e-05 -2.5068e-05 0)
(0.000167948 -2.28321e-05 0)
(0.000261609 -2.05495e-05 0)
(0.000345841 -1.82449e-05 0)
(0.000420574 -1.59407e-05 0)
(0.000485826 -1.36574e-05 0)
(0.000541692 -1.14127e-05 0)
(0.000588338 -9.22174e-06 0)
(0.000625984 -7.09667e-06 0)
(0.000654902 -5.04696e-06 0)
(0.000675394 -3.0785e-06 0)
(0.0006878 -1.18902e-06 0)
(0.00069252 6.02267e-07 0)
(0.000689842 2.22175e-06 0)
(0.000680095 3.78453e-06 0)
(0.000663746 5.29935e-06 0)
(0.000641153 6.72353e-06 0)
(0.00061266 8.05288e-06 0)
(0.000578642 9.29049e-06 0)
(0.000539485 1.04337e-05 0)
(0.000495607 1.14746e-05 0)
(0.000447483 1.2398e-05 0)
(0.000395677 1.31778e-05 0)
(0.000340899 1.37723e-05 0)
(0.000284073 1.41181e-05 0)
(0.000226435 1.41213e-05 0)
(0.000169659 1.36475e-05 0)
(0.000116008 1.25163e-05 0)
(6.84653e-05 1.04917e-05 0)
(3.06182e-05 7.40423e-06 0)
(6.8856e-06 3.14223e-06 0)
(-5.72874e-07 -5.71228e-07 0)
(3.22226e-06 -1.54658e-05 0)
(1.12847e-05 -1.12028e-05 0)
(-2.8872e-06 1.09084e-05 0)
(-4.63232e-05 3.82428e-05 0)
(-0.000121304 6.47251e-05 0)
(-0.00022502 8.75724e-05 0)
(-0.000353026 0.000105899 0)
(-0.000500417 0.000119809 0)
(-0.000662571 0.000129879 0)
(-0.000835516 0.000136854 0)
(-0.00101607 0.000141491 0)
(-0.00120184 0.000144478 0)
(-0.00139114 0.000146392 0)
(-0.00158287 0.000147694 0)
(-0.0017764 0.000148731 0)
(-0.00197149 0.000149752 0)
(-0.0021681 0.000150924 0)
(-0.0023664 0.000152348 0)
(-0.00256665 0.000154076 0)
(-0.00276915 0.000156119 0)
(-0.00297421 0.000158466 0)
(-0.00318213 0.000161086 0)
(-0.00339318 0.000163937 0)
(-0.00360754 0.000166968 0)
(-0.00382538 0.000170126 0)
(-0.00404677 0.000173354 0)
(-0.00427172 0.000176595 0)
(-0.00450017 0.000179791 0)
(-0.00473201 0.000182883 0)
(-0.00496702 0.000185813 0)
(-0.00520493 0.000188522 0)
(-0.0054454 0.00019095 0)
(-0.00568801 0.000193039 0)
(-0.00593227 0.000194728 0)
(-0.00617761 0.000195959 0)
(-0.0064234 0.00019667 0)
(-0.00666893 0.000196802 0)
(-0.00691342 0.000196297 0)
(-0.00715602 0.000195096 0)
(-0.00739582 0.000193141 0)
(-0.00763183 0.000190377 0)
(-0.00786301 0.00018675 0)
(-0.00808827 0.000182207 0)
(-0.00830644 0.0001767 0)
(-0.00851632 0.000170184 0)
(-0.00871665 0.000162616 0)
(-0.00890617 0.000153961 0)
(-0.00908353 0.000144186 0)
(-0.0092474 0.000133268 0)
(-0.00939642 0.000121189 0)
(-0.00952923 0.000107941 0)
(-0.00964447 9.35256e-05 0)
(-0.00974081 7.79543e-05 0)
(-0.00981694 6.1252e-05 0)
(-0.00987161 4.34562e-05 0)
(-0.00990363 2.46184e-05 0)
(-0.00991191 4.82336e-06 0)
(-0.00989545 -1.58038e-05 0)
(-0.00985332 -3.72362e-05 0)
(-0.0097848 -5.93316e-05 0)
(-0.0096893 -8.19398e-05 0)
(-0.00956643 -0.0001049 0)
(-0.00941595 -0.000128037 0)
(-0.00923789 -0.000151159 0)
(-0.00903246 -0.000174063 0)
(-0.00880014 -0.000196532 0)
(-0.00854165 -0.000218344 0)
(-0.00825796 -0.000239272 0)
(-0.00795032 -0.000259089 0)
(-0.00762019 -0.000277572 0)
(-0.00726931 -0.000294506 0)
(-0.00689964 -0.00030969 0)
(-0.00651336 -0.000322941 0)
(-0.00611281 -0.000334097 0)
(-0.00570054 -0.000343023 0)
(-0.0052792 -0.000349614 0)
(-0.00485154 -0.000353797 0)
(-0.00442039 -0.000355533 0)
(-0.00398857 -0.000354819 0)
(-0.00355893 -0.000351686 0)
(-0.00313421 -0.000346203 0)
(-0.00271711 -0.000338468 0)
(-0.00231016 -0.000328613 0)
(-0.00191575 -0.000316795 0)
(-0.00153608 -0.000303194 0)
(-0.00117313 -0.00028801 0)
(-0.000828672 -0.000271455 0)
(-0.00050421 -0.00025375 0)
(-0.000201011 -0.000235117 0)
(7.9912e-05 -0.000215781 0)
(0.000337795 -0.000195955 0)
(0.000572112 -0.000175845 0)
(0.000782566 -0.000155642 0)
(0.000969068 -0.000135519 0)
(0.00113172 -0.000115632 0)
(0.0012708 -9.6114e-05 0)
(0.00138672 -7.70776e-05 0)
(0.00148003 -5.86142e-05 0)
(0.00155137 -4.07948e-05 0)
(0.00160147 -2.36716e-05 0)
(0.00163106 -7.29166e-06 0)
(0.00164099 8.27536e-06 0)
(0.00163218 2.31234e-05 0)
(0.00160544 3.7232e-05 0)
(0.00156165 5.05653e-05 0)
(0.00150175 6.31077e-05 0)
(0.0014267 7.48319e-05 0)
(0.00133751 8.56819e-05 0)
(0.00123535 9.55578e-05 0)
(0.00112152 0.000104296 0)
(0.000997612 0.000111641 0)
(0.00086558 0.000117216 0)
(0.000727923 0.000120475 0)
(0.000587848 0.000120662 0)
(0.000449503 0.000116765 0)
(0.000318175 0.00010752 0)
(0.000200402 9.15309e-05 0)
(0.00010332 6.77292e-05 0)
(3.65021e-05 3.64901e-05 0)
(3.13975e-06 6.88793e-06 0)
(6.02723e-07 -1.91955e-05 0)
(-1.21258e-05 3.41341e-06 0)
(-6.15842e-05 5.90173e-05 0)
(-0.000154723 0.00012401 0)
(-0.000292206 0.000186931 0)
(-0.000470538 0.000242003 0)
(-0.000683934 0.00028709 0)
(-0.00092593 0.000322159 0)
(-0.0011903 0.000348288 0)
(-0.00147154 0.000367031 0)
(-0.00176516 0.000380043 0)
(-0.00206764 0.000388881 0)
(-0.0023764 0.000394888 0)
(-0.00268972 0.000399163 0)
(-0.00300649 0.000402555 0)
(-0.00332615 0.000405687 0)
(-0.00364851 0.000408989 0)
(-0.00397364 0.000412733 0)
(-0.00430177 0.000417069 0)
(-0.00463322 0.000422049 0)
(-0.00496832 0.000427661 0)
(-0.00530742 0.000433844 0)
(-0.00565079 0.000440501 0)
(-0.00599865 0.000447518 0)
(-0.00635113 0.000454765 0)
(-0.00670825 0.000462102 0)
(-0.00706996 0.000469388 0)
(-0.00743607 0.000476477 0)
(-0.00780633 0.000483219 0)
(-0.00818032 0.000489467 0)
(-0.00855757 0.00049507 0)
(-0.00893746 0.000499877 0)
(-0.00931926 0.000503739 0)
(-0.00970217 0.000506505 0)
(-0.0100852 0.000508025 0)
(-0.0104674 0.000508151 0)
(-0.0108475 0.000506735 0)
(-0.0112244 0.000503633 0)
(-0.0115966 0.000498706 0)
(-0.0119627 0.000491818 0)
(-0.0123213 0.000482837 0)
(-0.0126706 0.000471641 0)
(-0.013009 0.000458113 0)
(-0.0133348 0.000442147 0)
(-0.0136462 0.000423645 0)
(-0.0139412 0.000402523 0)
(-0.014218 0.00037871 0)
(-0.0144747 0.00035215 0)
(-0.0147094 0.000322804 0)
(-0.01492 0.000290652 0)
(-0.0151047 0.000255699 0)
(-0.0152617 0.000217971 0)
(-0.0153889 0.000177522 0)
(-0.0154848 0.000134438 0)
(-0.0155475 8.88329e-05 0)
(-0.0155756 4.08557e-05 0)
(-0.0155676 -9.31082e-06 0)
(-0.0155222 -6.14007e-05 0)
(-0.0154383 -0.00011517 0)
(-0.0153151 -0.000170322 0)
(-0.0151519 -0.000226504 0)
(-0.0149482 -0.000283327 0)
(-0.0147041 -0.000340367 0)
(-0.0144197 -0.000397167 0)
(-0.0140954 -0.000453242 0)
(-0.0137322 -0.000508086 0)
(-0.0133313 -0.000561176 0)
(-0.0128941 -0.000611986 0)
(-0.0124226 -0.000659988 0)
(-0.0119189 -0.000704668 0)
(-0.0113857 -0.000745534 0)
(-0.0108258 -0.000782125 0)
(-0.0102422 -0.000814024 0)
(-0.00963847 -0.000840863 0)
(-0.00901814 -0.000862337 0)
(-0.00838499 -0.000878208 0)
(-0.00774294 -0.00088831 0)
(-0.00709597 -0.000892557 0)
(-0.00644809 -0.000890944 0)
(-0.00580328 -0.000883546 0)
(-0.00516547 -0.000870516 0)
(-0.00453844 -0.000852084 0)
(-0.0039258 -0.00082855 0)
(-0.00333095 -0.000800276 0)
(-0.00275704 -0.000767675 0)
(-0.00220694 -0.000731207 0)
(-0.00168319 -0.000691361 0)
(-0.00118801 -0.000648647 0)
(-0.000723298 -0.000603587 0)
(-0.000290581 -0.000556698 0)
(0.00010894 -0.000508485 0)
(0.000474397 -0.000459431 0)
(0.000805237 -0.000409989 0)
(0.0011012 -0.000360574 0)
(0.00136231 -0.000311558 0)
(0.0015888 -0.000263267 0)
(0.00178115 -0.000215981 0)
(0.00194 -0.000169928 0)
(0.00206615 -0.000125295 0)
(0.00216052 -8.2224e-05 0)
(0.0022241 -4.08187e-05 0)
(0.00225803 -1.113e-06 0)
(0.00226345 3.68098e-05 0)
(0.00224153 7.28946e-05 0)
(0.00219354 0.000107111 0)
(0.0021208 0.000139397 0)
(0.00202472 0.000169642 0)
(0.00190685 0.000197661 0)
(0.00176891 0.000223165 0)
(0.00161296 0.000245709 0)
(0.00144141 0.000264641 0)
(0.00125725 0.000279031 0)
(0.00106423 0.000287603 0)
(0.000867015 0.000288663 0)
(0.000671441 0.000280061 0)
(0.000484681 0.000259265 0)
(0.000315257 0.00022367 0)
(0.000171898 0.000171464 0)
(6.79554e-05 0.00010339 0)
(7.42338e-06 3.06604e-05 0)
(-3.21969e-06 -9.74341e-06 0)
(-4.38128e-05 5.05327e-05 0)
(-0.000137109 0.000154823 0)
(-0.000288728 0.000271066 0)
(-0.000495341 0.000382635 0)
(-0.000752268 0.000480755 0)
(-0.00105243 0.000561965 0)
(-0.0013882 0.000626074 0)
(-0.00175223 0.00067472 0)
(-0.00213805 0.000710391 0)
(-0.00254022 0.000735829 0)
(-0.00295445 0.000753657 0)
(-0.00337753 0.000766185 0)
(-0.00380718 0.000775332 0)
(-0.00424194 0.000782604 0)
(-0.00468091 0.000789124 0)
(-0.00512372 0.000795683 0)
(-0.00557027 0.000802794 0)
(-0.0060207 0.000810748 0)
(-0.00647526 0.000819668 0)
(-0.00693423 0.000829549 0)
(-0.0073979 0.000840295 0)
(-0.00786648 0.000851747 0)
(-0.00834013 0.000863703 0)
(-0.00881889 0.000875932 0)
(-0.00930269 0.000888184 0)
(-0.00979131 0.000900198 0)
(-0.0102844 0.000911707 0)
(-0.0107816 0.000922436 0)
(-0.0112822 0.000932112 0)
(-0.0117854 0.000940455 0)
(-0.0122904 0.00094719 0)
(-0.0127961 0.000952038 0)
(-0.0133015 0.000954725 0)
(-0.0138051 0.000954978 0)
(-0.0143055 0.000952529 0)
(-0.0148012 0.000947116 0)
(-0.0152904 0.000938485 0)
(-0.0157715 0.00092639 0)
(-0.0162424 0.000910598 0)
(-0.0167013 0.000890888 0)
(-0.0171459 0.000867055 0)
(-0.0175742 0.000838909 0)
(-0.0179839 0.000806283 0)
(-0.0183728 0.000769028 0)
(-0.0187385 0.000727019 0)
(-0.0190787 0.00068016 0)
(-0.0193911 0.000628382 0)
(-0.0196733 0.00057165 0)
(-0.0199231 0.000509964 0)
(-0.0201381 0.000443364 0)
(-0.0203161 0.000371933 0)
(-0.0204551 0.000295804 0)
(-0.020553 0.000215158 0)
(-0.0206079 0.000130236 0)
(-0.0206182 4.13386e-05 0)
(-0.0205821 -5.11738e-05 0)
(-0.0204985 -0.0001469 0)
(-0.0203662 -0.000245314 0)
(-0.0201843 -0.000345861 0)
(-0.0199523 -0.00044792 0)
(-0.0196699 -0.0005508 0)
(-0.0193373 -0.000653754 0)
(-0.0189548 -0.000755978 0)
(-0.0185233 -0.000856628 0)
(-0.0180439 -0.000954825 0)
(-0.0175184 -0.00104967 0)
(-0.0169487 -0.00114024 0)
(-0.0163372 -0.00122565 0)
(-0.0156868 -0.00130501 0)
(-0.0150005 -0.00137748 0)
(-0.014282 -0.00144229 0)
(-0.0135351 -0.00149871 0)
(-0.0127639 -0.00154613 0)
(-0.0119728 -0.00158404 0)
(-0.0111663 -0.00161203 0)
(-0.0103493 -0.00162982 0)
(-0.00952655 -0.00163727 0)
(-0.00870283 -0.00163438 0)
(-0.00788297 -0.00162127 0)
(-0.0070717 -0.00159821 0)
(-0.00627359 -0.0015656 0)
(-0.00549303 -0.00152394 0)
(-0.00473413 -0.00147385 0)
(-0.00400073 -0.00141606 0)
(-0.00329633 -0.00135133 0)
(-0.00262407 -0.00128053 0)
(-0.0019867 -0.00120451 0)
(-0.00138658 -0.00112419 0)
(-0.000825671 -0.00104046 0)
(-0.000305513 -0.000954202 0)
(0.000172729 -0.000866252 0)
(0.000608271 -0.000777405 0)
(0.00100068 -0.000688391 0)
(0.00134984 -0.00059987 0)
(0.00165594 -0.000512422 0)
(0.00191942 -0.000426547 0)
(0.00214094 -0.000342664 0)
(0.00232135 -0.000261113 0)
(0.00246167 -0.00018216 0)
(0.00256302 -0.000106008 0)
(0.00262667 -3.28037e-05 0)
(0.00265393 3.73086e-05 0)
(0.00264621 0.000104234 0)
(0.00260501 0.000167858 0)
(0.00253193 0.000228016 0)
(0.00242871 0.00028446 0)
(0.00229728 0.000336809 0)
(0.00213985 0.000384488 0)
(0.00195899 0.000426657 0)
(0.00175779 0.00046212 0)
(0.00154001 0.000489233 0)
(0.00131026 0.000505802 0)
(0.00107422 0.000509008 0)
(0.000838812 0.000495394 0)
(0.000612383 0.00046102 0)
(0.000404712 0.000401932 0)
(0.000225691 0.000315248 0)
(9.23705e-05 0.000201047 0)
(1.0573e-05 6.87264e-05 0)
(-7.32402e-06 1.58994e-05 0)
(-7.85916e-05 0.000136583 0)
(-0.000219921 0.000305099 0)
(-0.00043477 0.000484173 0)
(-0.000714474 0.000653557 0)
(-0.00105255 0.000802295 0)
(-0.00144037 0.000926028 0)
(-0.00186917 0.00102461 0)
(-0.00233074 0.00110036 0)
(-0.00281786 0.00115679 0)
(-0.00332447 0.00119782 0)
(-0.00384575 0.00122722 0)
(-0.00437802 0.00124838 0)
(-0.00491865 0.00126411 0)
(-0.00546582 0.00127667 0)
(-0.00601842 0.00128773 0)
(-0.00657584 0.00129852 0)
(-0.00713783 0.00130982 0)
(-0.00770438 0.0013221 0)
(-0.00827561 0.00133557 0)
(-0.00885172 0.00135025 0)
(-0.00943285 0.00136599 0)
(-0.0100191 0.00138258 0)
(-0.0106106 0.0013997 0)
(-0.011207 0.00141702 0)
(-0.0118084 0.00143413 0)
(-0.0124141 0.00145066 0)
(-0.0130238 0.00146617 0)
(-0.0136366 0.00148025 0)
(-0.0142518 0.00149246 0)
(-0.0148684 0.00150238 0)
(-0.015485 0.00150957 0)
(-0.0161004 0.00151361 0)
(-0.0167131 0.00151407 0)
(-0.0173213 0.00151055 0)
(-0.0179234 0.00150262 0)
(-0.0185173 0.00148992 0)
(-0.0191009 0.00147205 0)
(-0.0196721 0.00144866 0)
(-0.0202286 0.00141942 0)
(-0.020768 0.00138402 0)
(-0.0212878 0.00134217 0)
(-0.0217855 0.00129363 0)
(-0.0222586 0.00123817 0)
(-0.0227044 0.00117561 0)
(-0.0231203 0.00110581 0)
(-0.0235036 0.00102867 0)
(-0.0238519 0.000944123 0)
(-0.0241625 0.000852176 0)
(-0.0244329 0.000752876 0)
(-0.0246607 0.000646329 0)
(-0.0248436 0.000532711 0)
(-0.0249793 0.000412262 0)
(-0.0250658 0.000285302 0)
(-0.0251011 0.000152228 0)
(-0.0250835 1.35242e-05 0)
(-0.0250115 -0.000130235 0)
(-0.0248837 -0.000278396 0)
(-0.0246993 -0.000430191 0)
(-0.0244574 -0.000584766 0)
(-0.0241577 -0.000741178 0)
(-0.0238001 -0.000898392 0)
(-0.0233849 -0.00105529 0)
(-0.0229128 -0.0012107 0)
(-0.0223849 -0.00136335 0)
(-0.0218027 -0.00151196 0)
(-0.0211683 -0.00165522 0)
(-0.0204839 -0.00179178 0)
(-0.0197525 -0.00192034 0)
(-0.0189773 -0.00203962 0)
(-0.0181619 -0.00214839 0)
(-0.0173103 -0.00224552 0)
(-0.016427 -0.00232999 0)
(-0.0155165 -0.00240089 0)
(-0.0145839 -0.00245748 0)
(-0.0136343 -0.00249919 0)
(-0.0126731 -0.00252561 0)
(-0.0117056 -0.00253653 0)
(-0.0107372 -0.00253196 0)
(-0.00977348 -0.00251209 0)
(-0.00881964 -0.00247729 0)
(-0.00788087 -0.00242816 0)
(-0.00696209 -0.00236544 0)
(-0.00606799 -0.00229002 0)
(-0.00520289 -0.00220297 0)
(-0.00437078 -0.00210541 0)
(-0.00357524 -0.0019986 0)
(-0.00281943 -0.00188383 0)
(-0.00210607 -0.00176241 0)
(-0.00143743 -0.00163567 0)
(-0.000815322 -0.00150492 0)
(-0.000241152 -0.00137139 0)
(0.000284112 -0.00123627 0)
(0.000759891 -0.00110064 0)
(0.00118597 -0.000965505 0)
(0.00156245 -0.000831725 0)
(0.00188974 -0.000700062 0)
(0.0021685 -0.000571156 0)
(0.0023996 -0.000445533 0)
(0.00258409 -0.000323615 0)
(0.00272318 -0.000205733 0)
(0.00281819 -9.21518e-05 0)
(0.00287058 1.69117e-05 0)
(0.00288187 0.00012126 0)
(0.00285374 0.000220664 0)
(0.00278797 0.000314821 0)
(0.00268656 0.000403297 0)
(0.00255169 0.000485455 0)
(0.00238592 0.00056037 0)
(0.00219222 0.000626725 0)
(0.00197415 0.000682701 0)
(0.00173599 0.000725852 0)
(0.00148297 0.000752993 0)
(0.00122142 0.000760117 0)
(0.000958985 0.000742415 0)
(0.000704796 0.000694471 0)
(0.000469605 0.000610781 0)
(0.000264416 0.000486798 0)
(0.000109535 0.000320525 0)
(1.2714e-05 0.000116879 0)
(-1.14309e-05 5.83104e-05 0)
(-0.000113918 0.000263452 0)
(-0.00030473 0.000512961 0)
(-0.000584719 0.000766828 0)
(-0.000939224 0.00100282 0)
(-0.00135946 0.00120888 0)
(-0.00183495 0.00138044 0)
(-0.00235568 0.00151781 0)
(-0.0029126 0.00162424 0)
(-0.00349788 0.00170443 0)
(-0.00410501 0.00176355 0)
(-0.00472879 0.00180663 0)
(-0.00536523 0.00183817 0)
(-0.00601144 0.00186194 0)
(-0.00666537 0.00188098 0)
(-0.0073257 0.00189758 0)
(-0.00799164 0.0019134 0)
(-0.00866278 0.00192955 0)
(-0.00933894 0.00194667 0)
(-0.0100201 0.00196506 0)
(-0.0107063 0.00198477 0)
(-0.0113975 0.00200561 0)
(-0.0120937 0.00202729 0)
(-0.0127948 0.00204938 0)
(-0.0135004 0.0020714 0)
(-0.0142101 0.00209282 0)
(-0.0149233 0.00211308 0)
(-0.0156393 0.00213158 0)
(-0.016357 0.00214774 0)
(-0.0170754 0.00216095 0)
(-0.0177931 0.0021706 0)
(-0.0185086 0.0021761 0)
(-0.0192203 0.00217685 0)
(-0.0199262 0.00217226 0)
(-0.0206245 0.00216177 0)
(-0.0213129 0.00214483 0)
(-0.0219891 0.00212092 0)
(-0.0226508 0.00208953 0)
(-0.0232954 0.00205021 0)
(-0.0239203 0.00200253 0)
(-0.0245228 0.0019461 0)
(-0.0251002 0.00188058 0)
(-0.0256496 0.00180568 0)
(-0.0261684 0.00172115 0)
(-0.0266536 0.0016268 0)
(-0.0271024 0.00152249 0)
(-0.0275123 0.00140815 0)
(-0.0278803 0.00128377 0)
(-0.0282039 0.0011494 0)
(-0.0284806 0.00100517 0)
(-0.0287079 0.000851293 0)
(-0.0288834 0.000688062 0)
(-0.029005 0.000515859 0)
(-0.0290707 0.000335165 0)
(-0.0290786 0.000146564 0)
(-0.0290272 -4.92524e-05 0)
(-0.0289149 -0.000251475 0)
(-0.0287407 -0.000459178 0)
(-0.0285036 -0.000671314 0)
(-0.0282032 -0.000886715 0)
(-0.0278392 -0.00110409 0)
(-0.0274117 -0.00132205 0)
(-0.0269212 -0.00153908 0)
(-0.0263686 -0.0017536 0)
(-0.0257553 -0.00196392 0)
(-0.025083 -0.00216832 0)
(-0.0243539 -0.00236504 0)
(-0.0235708 -0.00255231 0)
(-0.0227366 -0.00272837 0)
(-0.021855 -0.00289151 0)
(-0.02093 -0.00304013 0)
(-0.0199659 -0.0031727 0)
(-0.0189675 -0.00328786 0)
(-0.0179398 -0.00338442 0)
(-0.0168883 -0.00346138 0)
(-0.0158186 -0.00351797 0)
(-0.0147363 -0.00355366 0)
(-0.0136474 -0.00356818 0)
(-0.0125579 -0.00356151 0)
(-0.0114735 -0.00353392 0)
(-0.0104002 -0.00348593 0)
(-0.00934345 -0.0034183 0)
(-0.00830876 -0.00333203 0)
(-0.00730121 -0.00322835 0)
(-0.00632555 -0.00310865 0)
(-0.00538617 -0.00297447 0)
(-0.004487 -0.00282749 0)
(-0.00363151 -0.00266944 0)
(-0.00282271 -0.00250212 0)
(-0.00206313 -0.00232731 0)
(-0.00135479 -0.00214677 0)
(-0.000699251 -0.0019622 0)
(-9.76209e-05 -0.0017752 0)
(0.000449424 -0.00158726 0)
(0.000941602 -0.00139972 0)
(0.00137899 -0.00121378 0)
(0.00176197 -0.00103049 0)
(0.00209121 -0.00085073 0)
(0.00236762 -0.000675235 0)
(0.0025923 -0.000504601 0)
(0.0027665 -0.000339306 0)
(0.00289164 -0.000179737 0)
(0.00296924 -2.62253e-05 0)
(0.00300096 0.00012091 0)
(0.00298856 0.000261307 0)
(0.00293399 0.000394498 0)
(0.00283939 0.000519826 0)
(0.00270717 0.000636355 0)
(0.0025401 0.00074276 0)
(0.00234144 0.000837197 0)
(0.00211505 0.000917167 0)
(0.00186558 0.000979371 0)
(0.00159865 0.00101958 0)
(0.00132103 0.00103256 0)
(0.00104087 0.00101208 0)
(0.0007679 0.000951105 0)
(0.000513701 0.000842286 0)
(0.000290338 0.000678803 0)
(0.000120679 0.000455541 0)
(1.40305e-05 0.000171813 0)
(-1.54131e-05 0.000117334 0)
(-0.000148632 0.000431347 0)
(-0.000388757 0.000779135 0)
(-0.000733924 0.00111991 0)
(-0.00116323 0.00143099 0)
(-0.00166528 0.00170043 0)
(-0.00222748 0.00192426 0)
(-0.00283845 0.00210381 0)
(-0.00348824 0.0022436 0)
(-0.00416845 0.00234972 0)
(-0.0048722 0.00242878 0)
(-0.005594 0.00248709 0)
(-0.00632967 0.00253032 0)
(-0.00707611 0.00256325 0)
(-0.00783115 0.0025897 0)
(-0.00859329 0.0026126 0)
(-0.00936159 0.00263406 0)
(-0.0101355 0.00265547 0)
(-0.0109146 0.0026777 0)
(-0.0116988 0.00270113 0)
(-0.012488 0.0027258 0)
(-0.0132818 0.00275152 0)
(-0.0140802 0.00277786 0)
(-0.0148827 0.0028043 0)
(-0.0156888 0.00283021 0)
(-0.016498 0.00285488 0)
(-0.0173092 0.00287758 0)
(-0.0181215 0.00289752 0)
(-0.0189337 0.00291394 0)
(-0.0197443 0.00292603 0)
(-0.0205517 0.002933 0)
(-0.0213541 0.00293407 0)
(-0.0221495 0.00292847 0)
(-0.0229357 0.00291544 0)
(-0.0237105 0.00289427 0)
(-0.0244713 0.00286427 0)
(-0.0252156 0.00282479 0)
(-0.0259407 0.00277521 0)
(-0.0266438 0.002715 0)
(-0.027322 0.00264366 0)
(-0.0279724 0.00256073 0)
(-0.0285922 0.00246586 0)
(-0.0291784 0.00235873 0)
(-0.029728 0.0022391 0)
(-0.0302382 0.0021068 0)
(-0.0307063 0.00196175 0)
(-0.0311293 0.00180393 0)
(-0.0315046 0.00163339 0)
(-0.0318298 0.0014503 0)
(-0.0321022 0.00125489 0)
(-0.0323196 0.00104748 0)
(-0.0324798 0.000828529 0)
(-0.0325807 0.000598563 0)
(-0.0326204 0.000358243 0)
(-0.0325974 0.000108352 0)
(-0.0325101 -0.000150197 0)
(-0.0323572 -0.000416356 0)
(-0.0321378 -0.000688931 0)
(-0.0318511 -0.000966584 0)
(-0.0314967 -0.00124783 0)
(-0.0310745 -0.00153104 0)
(-0.0305848 -0.00181444 0)
(-0.0300281 -0.00209615 0)
(-0.0294055 -0.00237415 0)
(-0.0287184 -0.00264634 0)
(-0.0279688 -0.00291054 0)
(-0.0271588 -0.00316454 0)
(-0.0262914 -0.0034061 0)
(-0.0253699 -0.00363302 0)
(-0.0243978 -0.00384315 0)
(-0.0233795 -0.00403443 0)
(-0.0223195 -0.00420497 0)
(-0.0212229 -0.00435301 0)
(-0.0200951 -0.00447706 0)
(-0.0189416 -0.00457583 0)
(-0.0177686 -0.00464835 0)
(-0.0165821 -0.00469392 0)
(-0.0153885 -0.0047122 0)
(-0.0141941 -0.00470316 0)
(-0.0130053 -0.00466712 0)
(-0.0118283 -0.00460472 0)
(-0.0106692 -0.00451694 0)
(-0.00953383 -0.00440506 0)
(-0.00842775 -0.00427061 0)
(-0.00735611 -0.00411537 0)
(-0.00632367 -0.00394133 0)
(-0.00533469 -0.00375061 0)
(-0.00439297 -0.00354544 0)
(-0.00350176 -0.00332812 0)
(-0.00266378 -0.00310094 0)
(-0.00188123 -0.00286616 0)
(-0.0011558 -0.00262597 0)
(-0.000488669 -0.00238242 0)
(0.000119443 -0.00213742 0)
(0.000668243 -0.00189273 0)
(0.00115783 -0.00164989 0)
(0.00158862 -0.00141024 0)
(0.00196137 -0.00117495 0)
(0.00227703 -0.00094495 0)
(0.00253681 -0.000721039 0)
(0.00274205 -0.000503847 0)
(0.00289425 -0.000293894 0)
(0.00299506 -9.16346e-05 0)
(0.00304622 0.000102484 0)
(0.00304962 0.000287953 0)
(0.00300732 0.00046412 0)
(0.00292159 0.000630087 0)
(0.00279499 0.000784593 0)
(0.00263046 0.000925885 0)
(0.00243142 0.00105156 0)
(0.00220195 0.00115841 0)
(0.00194694 0.00124224 0)
(0.00167227 0.00129776 0)
(0.00138501 0.00131844 0)
(0.00109368 0.00129654 0)
(0.000808506 0.00122327 0)
(0.000541781 0.00108911 0)
(0.000306499 0.000884515 0)
(0.000127366 0.000600629 0)
(1.47754e-05 0.000230896 0)
(-1.92357e-05 0.000192476 0)
(-0.000182243 0.000639516 0)
(-0.000470609 0.00110296 0)
(-0.000879805 0.00154278 0)
(-0.0013827 0.00193728 0)
(-0.00196513 0.00227577 0)
(-0.00261223 0.00255576 0)
(-0.00331113 0.00278022 0)
(-0.00405093 0.00295538 0)
(-0.00482265 0.00308901 0)
(-0.00561904 0.00318925 0)
(-0.0064344 0.00326385 0)
(-0.00726441 0.00331968 0)
(-0.00810584 0.00336254 0)
(-0.0089564 0.00339704 0)
(-0.00981449 0.00342673 0)
(-0.010679 0.00345416 0)
(-0.0115493 0.00348104 0)
(-0.0124248 0.0035084 0)
(-0.0133052 0.00353671 0)
(-0.0141902 0.00356602 0)
(-0.0150793 0.00359606 0)
(-0.0159721 0.00362633 0)
(-0.0168681 0.00365615 0)
(-0.0177664 0.00368473 0)
(-0.0186662 0.00371119 0)
(-0.0195663 0.00373459 0)
(-0.0204655 0.00375398 0)
(-0.0213621 0.00376836 0)
(-0.0222546 0.00377675 0)
(-0.0231409 0.00377815 0)
(-0.024019 0.00377159 0)
(-0.0248866 0.00375613 0)
(-0.0257412 0.00373087 0)
(-0.0265802 0.00369492 0)
(-0.027401 0.00364748 0)
(-0.0282006 0.00358779 0)
(-0.0289761 0.00351516 0)
(-0.0297247 0.00342898 0)
(-0.0304433 0.0033287 0)
(-0.0311288 0.00321388 0)
(-0.0317783 0.00308414 0)
(-0.0323889 0.0029392 0)
(-0.0329576 0.00277886 0)
(-0.0334816 0.00260303 0)
(-0.0339582 0.00241168 0)
(-0.0343847 0.0022049 0)
(-0.0347587 0.00198285 0)
(-0.0350777 0.00174581 0)
(-0.0353395 0.00149413 0)
(-0.0355419 0.0012283 0)
(-0.035683 0.00094889 0)
(-0.0357609 0.000656612 0)
(-0.035774 0.000352299 0)
(-0.0357208 3.69227e-05 0)
(-0.0355999 -0.000288396 0)
(-0.0354104 -0.00062238 0)
(-0.0351511 -0.000963588 0)
(-0.0348217 -0.00131041 0)
(-0.0344216 -0.00166106 0)
(-0.0339507 -0.00201358 0)
(-0.0334094 -0.00236585 0)
(-0.0327982 -0.00271561 0)
(-0.0321182 -0.00306043 0)
(-0.0313706 -0.00339778 0)
(-0.0305574 -0.00372504 0)
(-0.0296808 -0.00403952 0)
(-0.0287436 -0.00433852 0)
(-0.0277491 -0.00461934 0)
(-0.026701 -0.00487938 0)
(-0.0256035 -0.0051161 0)
(-0.0244615 -0.00532717 0)
(-0.0232801 -0.00551045 0)
(-0.0220649 -0.00566404 0)
(-0.0208218 -0.00578637 0)
(-0.0195572 -0.00587619 0)
(-0.0182776 -0.00593264 0)
(-0.0169898 -0.00595523 0)
(-0.0157005 -0.00594391 0)
(-0.0144165 -0.00589904 0)
(-0.0131448 -0.00582139 0)
(-0.0118918 -0.00571214 0)
(-0.010664 -0.00557284 0)
(-0.00946729 -0.00540539 0)
(-0.00830744 -0.00521197 0)
(-0.00718958 -0.00499503 0)
(-0.00611839 -0.00475722 0)
(-0.00509798 -0.00450129 0)
(-0.0041319 -0.00423009 0)
(-0.00322307 -0.00394648 0)
(-0.00237387 -0.00365327 0)
(-0.00158606 -0.00335318 0)
(-0.000860878 -0.00304877 0)
(-0.000199033 -0.00274243 0)
(0.000399236 -0.00243632 0)
(0.000934109 -0.00213237 0)
(0.00140614 -0.00183226 0)
(0.00181619 -0.00153741 0)
(0.00216539 -0.00124903 0)
(0.00245509 -0.000968068 0)
(0.0026868 -0.000695331 0)
(0.00286219 -0.000431469 0)
(0.00298302 -0.00017706 0)
(0.00305121 6.7325e-05 0)
(0.00306878 0.00030103 0)
(0.00303791 0.000523216 0)
(0.00296101 0.000732737 0)
(0.00284074 0.000928001 0)
(0.00268017 0.00110681 0)
(0.00248287 0.0012662 0)
(0.00225305 0.00140222 0)
(0.00199575 0.00150979 0)
(0.00171703 0.00158247 0)
(0.00142418 0.00161243 0)
(0.00112601 0.00159031 0)
(0.000833172 0.00150539 0)
(0.000558538 0.00134577 0)
(0.000315849 0.00109885 0)
(0.00013103 0.000751782 0)
(1.51482e-05 0.000292296 0)
(-2.28949e-05 0.000283121 0)
(-0.000214567 0.000886722 0)
(-0.000549621 0.00148295 0)
(-0.00102098 0.00203386 0)
(-0.00159544 0.00251994 0)
(-0.00225602 0.00293288 0)
(-0.00298553 0.00327256 0)
(-0.00376952 0.00354423 0)
(-0.00459609 0.00375629 0)
(-0.00545566 0.00391848 0)
(-0.00634062 0.00404071 0)
(-0.00724508 0.00413224 0)
(-0.00816458 0.0042012 0)
(-0.00909583 0.00425441 0)
(-0.0100364 0.00429729 0)
(-0.0109847 0.004334 0)
(-0.0119395 0.00436751 0)
(-0.0129 0.00439981 0)
(-0.0138654 0.00443208 0)
(-0.0148353 0.00446487 0)
(-0.0158092 0.00449821 0)
(-0.0167863 0.00453177 0)
(-0.0177661 0.00456491 0)
(-0.0187478 0.00459683 0)
(-0.0197302 0.00462654 0)
(-0.0207123 0.00465297 0)
(-0.0216926 0.00467501 0)
(-0.0226696 0.00469147 0)
(-0.0236415 0.00470115 0)
(-0.0246061 0.00470288 0)
(-0.0255614 0.00469546 0)
(-0.026505 0.00467775 0)
(-0.0274342 0.00464862 0)
(-0.0283464 0.00460703 0)
(-0.0292387 0.00455199 0)
(-0.0301083 0.00448256 0)
(-0.0309521 0.00439792 0)
(-0.0317671 0.00429734 0)
(-0.0325501 0.00418016 0)
(-0.0332982 0.00404585 0)
(-0.0340084 0.00389399 0)
(-0.0346777 0.00372426 0)
(-0.0353032 0.00353644 0)
(-0.0358821 0.00333042 0)
(-0.0364119 0.00310621 0)
(-0.0368901 0.00286391 0)
(-0.0373141 0.00260371 0)
(-0.0376819 0.00232592 0)
(-0.0379913 0.00203094 0)
(-0.0382403 0.00171927 0)
(-0.0384271 0.00139152 0)
(-0.03855 0.00104842 0)
(-0.0386075 0.000690827 0)
(-0.038598 0.000319716 0)
(-0.0385203 -6.37766e-05 0)
(-0.0383732 -0.000458357 0)
(-0.0381557 -0.00086256 0)
(-0.0378669 -0.00127474 0)
(-0.0375062 -0.00169304 0)
(-0.0370731 -0.00211544 0)
(-0.0365674 -0.00253968 0)
(-0.0359892 -0.00296334 0)
(-0.0353388 -0.00338377 0)
(-0.034617 -0.00379818 0)
(-0.033825 -0.00420361 0)
(-0.0329642 -0.00459699 0)
(-0.0320367 -0.00497515 0)
(-0.0310452 -0.00533489 0)
(-0.0299925 -0.00567302 0)
(-0.0288824 -0.00598638 0)
(-0.0277189 -0.00627194 0)
(-0.0265069 -0.00652687 0)
(-0.0252515 -0.00674854 0)
(-0.0239585 -0.00693463 0)
(-0.0226342 -0.00708317 0)
(-0.0212851 -0.0071926 0)
(-0.0199182 -0.00726178 0)
(-0.0185408 -0.00729008 0)
(-0.0171602 -0.00727734 0)
(-0.0157838 -0.00722393 0)
(-0.0144192 -0.00713073 0)
(-0.0130736 -0.00699912 0)
(-0.011754 -0.00683093 0)
(-0.0104672 -0.00662844 0)
(-0.0092195 -0.00639428 0)
(-0.00801657 -0.00613142 0)
(-0.00686365 -0.00584306 0)
(-0.00576532 -0.00553257 0)
(-0.00472548 -0.00520341 0)
(-0.00374736 -0.00485909 0)
(-0.00283351 -0.00450304 0)
(-0.00198581 -0.00413857 0)
(-0.00120553 -0.00376882 0)
(-0.000493335 -0.0033967 0)
(0.00015065 -0.00302485 0)
(0.000726767 -0.00265561 0)
(0.00123577 -0.00229103 0)
(0.00167876 -0.00193283 0)
(0.00205713 -0.00158244 0)
(0.00237246 -0.00124103 0)
(0.00262655 -0.000909547 0)
(0.0028213 -0.00058877 0)
(0.00295872 -0.000279387 0)
(0.00304094 1.79197e-05 0)
(0.00307017 0.000302362 0)