/*--------------------------------*- C++ -*----------------------------------*\
| =========                 |                                                 |
| \\      /  F ield         | OpenFOAM: The Open Source CFD Toolbox           |
|  \\    /   O peration     | Version:  2406                                  |
|   \\  /    A nd           | Website:  www.openfoam.com                      |
|    \\/     M anipulation  |                                                 |
\*---------------------------------------------------------------------------*/
FoamFile
{
    version     2.0;
    format      ascii;
    arch        "LSB;label=32;scalar=64";
    class       surfaceScalarField;
    location    "37.4";
    object      phi;
}
// * * * * * * * * * * * * * * * * * * * * * * * * * * * * * * * * * * * * * //

dimensions      [0 3 -1 0 0 0 0];

oriented        oriented;

internalField   nonuniform List<scalar> 
7080
(
3.18685e-07
-3.18194e-07
1.60345e-06
-1.29558e-06
3.38149e-06
-1.77577e-06
5.19094e-06
-1.81973e-06
6.69921e-06
-1.50695e-06
7.75617e-06
-1.06383e-06
8.38694e-06
-6.28788e-07
8.68244e-06
-2.98683e-07
8.77181e-06
-8.64857e-08
8.72187e-06
4.97315e-08
8.55018e-06
1.75687e-07
8.18993e-06
3.62951e-07
7.53943e-06
6.56638e-07
6.45864e-06
1.08729e-06
4.80601e-06
1.66248e-06
2.42919e-06
2.38842e-06
-8.14842e-07
3.25903e-06
-5.0641e-06
4.26671e-06
-1.0434e-05
5.39076e-06
-1.70116e-05
6.60199e-06
-2.48257e-05
7.84303e-06
-3.38203e-05
9.02796e-06
-4.38238e-05
1.00401e-05
-5.45362e-05
1.07502e-05
-6.55251e-05
1.10252e-05
-7.62451e-05
1.07524e-05
-8.60733e-05
9.85451e-06
-9.4361e-05
8.30656e-06
-0.000100485
6.13456e-06
-0.000103898
3.4143e-06
-0.000104164
2.59208e-07
-0.000100997
-3.18247e-06
-9.4284e-05
-6.73692e-06
-8.41102e-05
-1.02045e-05
-7.07777e-05
-1.33691e-05
-5.48164e-05
-1.60028e-05
-3.6976e-05
-1.78851e-05
-1.82028e-05
-1.88203e-05
4.20402e-07
-1.867e-05
1.7755e-05
-1.73804e-05
3.27265e-05
-1.5013e-05
4.44458e-05
-1.17562e-05
5.23372e-05
-7.91996e-06
5.62181e-05
-3.90183e-06
5.63323e-05
-1.24124e-07
5.32938e-05
3.03629e-06
4.79748e-05
5.32743e-06
4.13299e-05
6.65727e-06
3.42441e-05
7.10536e-06
2.73972e-05
6.86456e-06
2.12333e-05
6.18545e-06
1.59569e-05
5.29133e-06
1.16118e-05
4.36348e-06
8.12142e-06
3.49964e-06
5.36544e-06
2.77075e-06
3.21135e-06
2.15785e-06
1.56525e-06
1.65787e-06
4.44569e-07
1.1203e-06
-1.02477e-07
5.55985e-07
-1.02419e-07
1.22729e-06
-1.53513e-06
4.06246e-06
-4.13196e-06
7.63535e-06
-5.33239e-06
1.1126e-05
-5.30857e-06
1.39808e-05
-4.34914e-06
1.58869e-05
-2.96918e-06
1.68212e-05
-1.55665e-06
1.68608e-05
-3.40532e-07
1.6144e-05
6.3121e-07
1.47021e-05
1.48653e-06
1.24676e-05
2.40615e-06
9.22131e-06
3.60035e-06
4.66736e-06
5.20058e-06
-1.55678e-06
7.29626e-06
-9.80969e-06
9.89689e-06
-2.04326e-05
1.2987e-05
-3.3695e-05
1.64923e-05
-4.97578e-05
2.02951e-05
-6.8583e-05
2.41767e-05
-8.98634e-05
2.7837e-05
-0.000112985
3.09116e-05
-0.000137071
3.30529e-05
-0.000161072
3.39728e-05
-0.000183887
3.34948e-05
-0.000204475
3.15456e-05
-0.000221937
2.81534e-05
-0.000235547
2.34146e-05
-0.00024476
1.74848e-05
-0.000249198
1.05528e-05
-0.000248627
2.84201e-06
-0.000242949
-5.40289e-06
-0.000232193
-1.39049e-05
-0.000216521
-2.23595e-05
-0.00019624
-3.04214e-05
-0.000171819
-3.77141e-05
-0.000143909
-4.38277e-05
-0.000113351
-4.83513e-05
-8.11795e-05
-5.08966e-05
-4.85939e-05
-5.11608e-05
-1.69123e-05
-4.89721e-05
1.25173e-05
-4.43602e-05
3.84126e-05
-3.7582e-05
5.96859e-05
-2.9138e-05
7.55437e-05
-1.97237e-05
8.55888e-05
-1.01507e-05
8.98599e-05
-1.2364e-06
8.8853e-05
6.31918e-06
8.34575e-05
1.20231e-05
7.48635e-05
1.56658e-05
6.43682e-05
1.73198e-05
5.32075e-05
1.73116e-05
4.23591e-05
1.61033e-05
3.24913e-05
1.42053e-05
2.39277e-05
1.20344e-05
1.676e-05
9.92248e-06
1.09108e-05
7.98515e-06
6.28709e-06
6.27438e-06
2.85828e-06
4.5324e-06
7.02966e-07
2.71115e-06
5.91368e-07
1.77772e-06
-3.31282e-06
5.50196e-06
-7.87287e-06
9.9543e-06
-9.78275e-06
1.4035e-05
-9.40324e-06
1.70954e-05
-7.40946e-06
1.87432e-05
-4.62548e-06
1.89231e-05
-1.73493e-06
1.76463e-05
9.33514e-07
1.49588e-05
3.32272e-06
1.07446e-05
5.70276e-06
4.75101e-06
8.40673e-06
-3.45112e-06
1.18094e-05
-1.43586e-05
1.61195e-05
-2.84969e-05
2.1448e-05
-4.63095e-05
2.77281e-05
-6.80795e-05
3.47797e-05
-9.37734e-05
4.22146e-05
-0.000122931
4.94847e-05
-0.000154623
5.59059e-05
-0.000187578
6.0832e-05
-0.000220371
6.37504e-05
-0.000251648
6.43824e-05
-0.000280269
6.26504e-05
-0.000305366
5.86514e-05
-0.000326336
5.25728e-05
-0.000342792
4.4661e-05
-0.000354505
3.51697e-05
-0.000361352
2.43618e-05
-0.000363273
1.249e-05
-0.000360249
-1.81558e-07
-0.000352286
-1.33808e-05
-0.000339423
-2.6797e-05
-0.000321748
-4.00794e-05
-0.00029942
-5.28072e-05
-0.000272706
-6.44969e-05
-0.000242021
-7.45911e-05
-0.000207959
-8.24978e-05
-0.000171324
-8.76183e-05
-0.000133134
-8.94365e-05
-9.46011e-05
-8.75878e-05
-5.70616e-05
-8.19734e-05
-2.18948e-05
-7.28118e-05
9.60698e-06
-6.06875e-05
3.63406e-05
-4.64904e-05
5.74992e-05
-3.13245e-05
7.26115e-05
-1.63506e-05
8.15875e-05
-2.64359e-06
8.47124e-05
8.91836e-06
8.2669e-05
1.77386e-05
7.6472e-05
2.3545e-05
6.739e-05
2.64262e-05
5.6728e-05
2.67904e-05
4.56748e-05
2.52871e-05
3.51015e-05
2.26254e-05
2.55782e-05
1.94693e-05
1.73457e-05
1.6227e-05
1.05287e-05
1.31108e-05
5.17189e-06
9.89015e-06
1.52565e-06
6.37461e-06
2.11813e-06
2.11084e-06
-5.41356e-06
6.23518e-06
-1.20041e-05
1.08174e-05
-1.43505e-05
1.45591e-05
-1.31479e-05
1.67941e-05
-9.63501e-06
1.71189e-05
-4.95248e-06
1.54563e-05
-6.81457e-08
1.17071e-05
4.67917e-06
5.73411e-06
9.29504e-06
-2.82641e-06
1.42574e-05
-1.44845e-05
2.00598e-05
-2.9881e-05
2.7197e-05
-4.96144e-05
3.58432e-05
-7.41249e-05
4.59456e-05
-0.000103483
5.70709e-05
-0.000137234
6.85108e-05
-0.000174313
7.92698e-05
-0.000213198
8.8342e-05
-0.000252202
9.48779e-05
-0.00028979
9.83847e-05
-0.000324766
9.86867e-05
-0.000356316
9.58896e-05
-0.00038395
9.02387e-05
-0.000407412
8.2067e-05
-0.000426589
7.17059e-05
-0.000441448
5.94822e-05
-0.000451988
4.56788e-05
-0.000458208
3.05614e-05
-0.000460092
1.43638e-05
-0.000457597
-2.67337e-06
-0.00045066
-2.03046e-05
-0.000439196
-3.82342e-05
-0.000423126
-5.61121e-05
-0.000402397
-7.34886e-05
-0.00037702
-8.98172e-05
-0.000347121
-0.000104426
-0.000312992
-0.000116558
-0.000275151
-0.000125388
-0.000234384
-0.000130133
-0.000191762
-0.000130142
-0.000148613
-0.00012506
-0.000106436
-0.000114936
-6.67546e-05
-0.000100326
-3.0955e-05
-8.22603e-05
-1.24539e-07
-6.21362e-05
2.5011e-05
-4.14813e-05
4.41039e-05
-2.17398e-05
5.71086e-05
-4.10102e-06
6.42727e-05
1.05571e-05
6.61112e-05
2.16817e-05
6.34568e-05
2.90596e-05
5.73723e-05
3.28488e-05
4.90808e-05
3.35613e-05
3.97185e-05
3.19646e-05
3.02653e-05
2.8912e-05
2.13631e-05
2.51091e-05
1.34942e-05
2.0977e-05
6.92776e-06
1.64373e-05
2.18733e-06
1.11198e-05
4.29312e-06
2.2769e-06
-7.68737e-06
6.39388e-06
-1.6136e-05
1.04892e-05
-1.84394e-05
1.31213e-05
-1.579e-05
1.36453e-05
-1.01557e-05
1.16756e-05
-2.98772e-06
7.09848e-06
4.5123e-06
-3.4068e-07
1.2118e-05
-1.10251e-05
1.99842e-05
-2.55962e-05
2.88322e-05
-4.47705e-05
3.92412e-05
-6.92124e-05
5.16468e-05
-9.92488e-05
6.58904e-05
-0.000134658
8.13667e-05
-0.000174485
9.69134e-05
-0.00021714
0.000111183
-0.000260711
0.000122861
-0.000303404
0.000131059
-0.000343822
0.000135322
-0.000381041
0.000135634
-0.000414539
0.000132218
-0.000444075
0.000125461
-0.00046958
0.00011578
-0.000491081
0.000103604
-0.000508651
8.93088e-05
-0.000522379
7.32368e-05
-0.000532343
5.56621e-05
-0.000538601
3.68301e-05
-0.000541173
1.69374e-05
-0.000540035
-3.81882e-06
-0.000535109
-2.52483e-05
-0.000526259
-4.71105e-05
-0.000513295
-6.91113e-05
-0.000495985
-9.08399e-05
-0.000474087
-0.000111764
-0.000447388
-0.000131178
-0.00041578
-0.000148222
-0.000379341
-0.000161883
-0.000338439
-0.00017109
-0.00029382
-0.000174814
-0.000246656
-0.000172272
-0.000198533
-0.000163102
-0.000151309
-0.000147583
-0.000106897
-0.000126697
-6.69611e-05
-0.000102087
-3.26833e-05
-7.57657e-05
-4.6526e-06
-4.97662e-05
1.70204e-05
-2.57653e-05
3.25482e-05
-4.95343e-06
4.22973e-05
1.19489e-05
4.68143e-05
2.45646e-05
4.68187e-05
3.28603e-05
4.32757e-05
3.71255e-05
3.72383e-05
3.80129e-05
2.98079e-05
3.63614e-05
2.18767e-05
3.30447e-05
1.42484e-05
2.86236e-05
7.48326e-06
2.31991e-05
2.40334e-06
1.62194e-05
6.69586e-06
2.30638e-06
-9.98631e-06
5.96566e-06
-1.98039e-05
8.88282e-06
-2.13463e-05
9.58127e-06
-1.6493e-05
7.49208e-06
-8.0614e-06
2.25867e-06
2.24246e-06
-6.31992e-06
1.30915e-05
-1.87132e-05
2.45073e-05
-3.5576e-05
3.6844e-05
-5.77359e-05
5.09865e-05
-8.58501e-05
6.73494e-05
-0.00012013
8.59186e-05
-0.000160017
0.000105768
-0.000204129
0.000125468
-0.000250476
0.000143247
-0.000296949
0.000157641
-0.000341765
0.000167658
-0.000383676
0.00017295
-0.000421941
0.000173563
-0.000456197
0.000169865
-0.000486331
0.000162324
-0.000512387
0.000151488
-0.0005345
0.000137862
-0.00055286
0.000121936
-0.000567687
0.00010411
-0.000579206
8.47344e-05
-0.000587627
6.40684e-05
-0.000593132
4.23269e-05
-0.000595849
1.96539e-05
-0.000595842
-3.81936e-06
-0.000593087
-2.7989e-05
-0.000587464
-5.27124e-05
-0.000578739
-7.78087e-05
-0.000566564
-0.000102983
-0.000550478
-0.000127814
-0.000529939
-0.000151676
-0.000504382
-0.000173737
-0.000473311
-0.000192911
-0.000436434
-0.000207924
-0.000393834
-0.000217373
-0.000346131
-0.000219935
-0.000294608
-0.00021459
-0.000241215
-0.000200947
-0.000188401
-0.00017949
-0.000138741
-0.000151732
-9.44536e-05
-0.000120049
-5.69505e-05
-8.72695e-05
-2.67166e-05
-5.6008e-05
-3.49224e-06
-2.81873e-05
1.33013e-05
-4.86057e-06
2.43296e-05
1.3524e-05
3.02389e-05
2.69334e-05
3.17977e-05
3.55564e-05
2.98668e-05
3.99268e-05
2.54689e-05
4.07537e-05
1.95659e-05
3.89312e-05
1.31507e-05
3.50389e-05
7.03548e-06
2.92963e-05
2.27017e-06
2.0991e-05
8.95405e-06
2.14115e-06
-1.21241e-05
4.82183e-06
-2.24936e-05
5.84947e-06
-2.23684e-05
3.83663e-06
-1.44842e-05
-1.68093e-06
-2.54089e-06
-1.10559e-05
1.16175e-05
-2.46388e-05
2.66773e-05
-4.31207e-05
4.29924e-05
-6.73118e-05
6.10393e-05
-9.79082e-05
8.15889e-05
-0.00013501
0.000104457
-0.000177836
0.000128753
-0.00022468
0.00015262
-0.000273288
0.000174087
-0.000321416
0.000191386
-0.000367284
0.000203522
-0.000409705
0.000210094
-0.000448011
0.000211274
-0.000481903
0.000207473
-0.000511332
0.000199315
-0.000536421
0.000187433
-0.000557413
0.000172501
-0.000574633
0.000155103
-0.000588455
0.000135778
-0.000599269
0.00011494
-0.000607456
9.29338e-05
-0.000613363
6.99825e-05
-0.000617287
4.62531e-05
-0.000619459
2.18224e-05
-0.000620033
-3.25499e-06
-0.000619068
-2.89705e-05
-0.00061651
-5.52912e-05
-0.000612174
-8.21714e-05
-0.000605714
-0.000109473
-0.000596608
-0.000136955
-0.000584139
-0.000164181
-0.00056742
-0.000190495
-0.000545443
-0.000214927
-0.000517208
-0.000236199
-0.000481905
-0.000252713
-0.000439174
-0.0002627
-0.00038939
-0.000264403
-0.000333896
-0.000256464
-0.000275089
-0.000238314
-0.000216212
-0.000210618
-0.000160818
-0.000175448
-0.000111962
-0.000136124
-7.14812e-05
-9.64853e-05
-3.9727e-05
-5.99319e-05
-1.5986e-05
-2.85934e-05
8.74476e-07
-3.32259e-06
1.18871e-05
1.59297e-05
1.7965e-05
2.94933e-05
1.99314e-05
3.79668e-05
1.87171e-05
4.19825e-05
1.52598e-05
4.23906e-05
1.06144e-05
3.96992e-05
5.75216e-06
3.41551e-05
1.82971e-06
2.49299e-05
1.07834e-05
1.68125e-06
-1.38034e-05
2.74377e-06
-2.35602e-05
1.11156e-06
-2.07345e-05
-4.37805e-06
-8.99594e-06
-1.40863e-05
7.1654e-06
-2.84016e-05
2.59317e-05
-4.78524e-05
4.61236e-05
-7.32402e-05
6.83779e-05
-0.000105228
9.30206e-05
-0.000143901
0.000120258
-0.000188353
0.000148901
-0.000236694
0.000177088
-0.000286478
0.000202395
-0.000335332
0.000222933
-0.000381412
0.000237453
-0.000423503
0.000245602
-0.000460928
0.000247504
-0.000493396
0.000243728
-0.000520908
0.000234968
-0.000543679
0.000222069
-0.000562089
0.000205825
-0.000576624
0.000187021
-0.000587828
0.000166291
-0.00059625
0.000144187
-0.00060241
0.00012109
-0.000606777
9.72955e-05
-0.000609755
7.29593e-05
-0.00061168
4.81825e-05
-0.000612819
2.29706e-05
-0.000613371
-2.68899e-06
-0.000613459
-2.88638e-05
-0.000613121
-5.56059e-05
-0.000612286
-8.29799e-05
-0.00061074
-0.000110989
-0.00060808
-0.000139582
-0.000603669
-0.00016856
-0.000596588
-0.000197544
-0.000585626
-0.000225858
-0.000569318
-0.000252477
-0.00054608
-0.000275926
-0.000514446
-0.00029431
-0.000473441
-0.00030539
-0.000423007
-0.00030688
-0.000364432
-0.000296877
-0.00030055
-0.00027449
-0.000235562
-0.000240431
-0.00017427
-0.000197414
-0.000120875
-0.000149885
-7.77687e-05
-0.000103042
-4.51653e-05
-6.12068e-05
-2.17289e-05
-2.67661e-05
-5.71807e-06
-9.31717e-08
4.39718e-06
1.93719e-05
9.77232e-06
3.25796e-05
1.14378e-05
4.03136e-05
1.03552e-05
4.34611e-05
7.59039e-06
4.24643e-05
4.19058e-06
3.75417e-05
1.30678e-06
2.78175e-05
1.20813e-05
8.42173e-07
-1.46459e-05
-3.87869e-07
-2.23264e-05
-5.38197e-06
-1.57425e-05
-1.49704e-05
5.98775e-07
-2.94504e-05
2.16436e-05
-4.92676e-05
4.57565e-05
-7.50595e-05
7.19152e-05
-0.000107469
0.000100796
-0.000146598
0.000132151
-0.000191549
0.000165219
-0.000240376
0.000197731
-0.000290506
0.000227227
-0.000339426
0.00025132
-0.000385158
0.000268676
-0.0004264
0.000278702
-0.00046241
0.000281624
-0.0004929
0.000278004
-0.000517924
0.000268765
-0.000537821
0.000254876
-0.000553128
0.000237391
-0.000564508
0.000217218
-0.000572662
0.000195188
-0.000578268
0.000171909
-0.00058194
0.000147869
-0.000584203
0.00012336
-0.000585489
9.85864e-05
-0.000586148
7.36177e-05
-0.000586455
4.84868e-05
-0.000586634
2.31412e-05
-0.000586861
-2.47287e-06
-0.000587279
-2.84617e-05
-0.000587987
-5.49149e-05
-0.000589037
-8.19514e-05
-0.000590392
-0.000109656
-0.000591891
-0.000138107
-0.000593176
-0.000167299
-0.00059361
-0.000197133
-0.000592195
-0.000227297
-0.000587503
-0.000257191
-0.00057768
-0.00028577
-0.000560557
-0.000311452
-0.000533936
-0.00033203
-0.000496059
-0.000344774
-0.000446243
-0.000346707
-0.000385534
-0.000335208
-0.000317151
-0.00030882
-0.000246348
-0.000268216
-0.000179444
-0.000216787
-0.000122012
-0.000160468
-7.70837e-05
-0.00010613
-4.45547e-05
-5.92863e-05
-2.23372e-05
-2.23055e-05
-7.94647e-06
4.99089e-06
5.90241e-07
2.40468e-05
4.76916e-06
3.61447e-05
5.76865e-06
4.24631e-05
4.71901e-06
4.35243e-05
2.70849e-06
3.95509e-05
8.23108e-07
2.97137e-05
1.29053e-05
-4.64843e-07
-1.41884e-05
-4.66653e-06
-1.81158e-05
-1.36281e-05
-6.7942e-06
-2.77842e-05
1.47626e-05
-4.74139e-05
4.12607e-05
-7.29743e-05
7.13214e-05
-0.000105023
0.000103952
-0.000143698
0.000139472
-0.000188236
0.000176678
-0.000236736
0.000213718
-0.000286595
0.00024758
-0.000335137
0.000275766
-0.000380222
0.000296395
-0.000420389
0.000308837
-0.000454823
0.000313125
-0.000483211
0.000310005
-0.000505685
0.000300467
-0.000522714
0.000285785
-0.000535011
0.000267163
-0.00054341
0.000245782
-0.000548765
0.000222563
-0.00055186
0.000198276
-0.000553369
0.00017341
-0.000553831
0.000148327
-0.000553659
0.000123185
-0.000553157
9.80856e-05
-0.00055255
7.30125e-05
-0.000552001
4.79447e-05
-0.000551645
2.27949e-05
-0.000551602
-2.50382e-06
-0.000551987
-2.8062e-05
-0.000552917
-5.39661e-05
-0.000554511
-8.03385e-05
-0.000556864
-0.00010728
-0.000560029
-0.00013492
-0.000563949
-0.000163355
-0.000568391
-0.000192668
-0.000572825
-0.000222839
-0.0005763
-0.000253693
-0.000577313
-0.000284736
-0.000573742
-0.000315005
-0.000562905
-0.000342851
-0.000541851
-0.000365816
-0.000507926
-0.000380624
-0.000459628
-0.000383501
-0.000397578
-0.00037087
-0.00032528
-0.000340513
-0.00024915
-0.000292919
-0.000177247
-0.000232373
-0.000116717
-0.000166665
-7.11056e-05
-0.000104901
-3.97282e-05
-5.36904e-05
-1.95126e-05
-1.52288e-05
-7.29307e-06
1.18192e-05
-6.32224e-07
2.94813e-05
2.19999e-06
3.96227e-05
2.57417e-06
4.31495e-05
1.66691e-06
4.04496e-05
5.20413e-07
3.08612e-05
1.34199e-05
-2.23308e-06
-1.19635e-05
-9.9479e-06
-1.03768e-05
-2.32542e-05
6.49527e-06
-4.21774e-05
3.37071e-05
-6.69988e-05
6.60713e-05
-9.80609e-05
0.000102401
-0.000135588
0.000141473
-0.000178945
0.000182845
-0.000226473
0.000224203
-0.000275571
0.000262829
-0.000323488
0.000295496
-0.000367846
0.000320135
-0.000407027
0.000335578
-0.000440076
0.000341897
-0.000466674
0.000339727
-0.000486995
0.000330337
-0.000501653
0.000315131
-0.000511519
0.000295662
-0.0005176
0.000273252
-0.000520878
0.000249069
-0.000522227
0.000223918
-0.000522348
0.000198405
-0.000521772
0.000172838
-0.000520862
0.00014742
-0.000519857
0.000122179
-0.000518899
9.7126e-05
-0.000518076
7.21839e-05
-0.000517442
4.73045e-05
-0.00051705
2.23922e-05
-0.000516956
-2.60976e-06
-0.000517241
-2.77932e-05
-0.000518005
-5.32184e-05
-0.000519381
-7.89813e-05
-0.00052152
-0.000105161
-0.000524584
-0.000131877
-0.000528715
-0.000159245
-0.000533986
-0.000187418
-0.000540314
-0.000216529
-0.000547343
-0.000246681
-0.000554264
-0.00027783
-0.000559631
-0.000309651
-0.000561195
-0.000341296
-0.000555889
-0.00037113
-0.000540062
-0.000396457
-0.000510127
-0.000413441
-0.000463629
-0.000417372
-0.000400609
-0.000403536
-0.000324813
-0.000368717
-0.000243943
-0.00031324
-0.00016806
-0.000242544
-0.000105918
-0.000167037
-6.12246e-05
-9.83798e-05
-3.22053e-05
-4.42421e-05
-1.4726e-05
-5.65725e-06
-4.99057e-06
1.97521e-05
-2.91589e-07
3.49252e-05
1.28506e-06
4.15796e-05
1.15318e-06
4.05813e-05
4.21066e-07
3.16003e-05
1.38422e-05
-4.43372e-06
-7.54956e-06
-1.60398e-05
1.25843e-06
-3.38407e-05
2.4262e-05
-5.74646e-05
5.73524e-05
-8.71616e-05
9.57424e-05
-0.000122984
0.000138236
-0.000164615
0.000183084
-0.000210585
0.000228821
-0.000258557
0.000272159
-0.000305662
0.000309936
-0.000349383
0.000339203
-0.000387824
0.000358576
-0.000419917
0.00036766
-0.000445242
0.00036722
-0.000464031
0.000358505
-0.000476974
0.000343277
-0.000485109
0.000323257
-0.000489575
0.000300124
-0.000491485
0.000275154
-0.000491774
0.000249354
-0.000491173
0.000223311
-0.000490181
0.000197411
-0.000489119
0.000171772
-0.000488152
0.000146453
-0.000487354
0.000121381
-0.000486735
9.6511e-05
-0.000486288
7.17403e-05
-0.000485994
4.70182e-05
-0.000485854
2.22611e-05
-0.000485887
-2.56544e-06
-0.000486142
-2.75254e-05
-0.000486699
-5.26468e-05
-0.000487674
-7.79909e-05
-0.000489217
-0.000103601
-0.000491514
-0.000129563
-0.000494773
-0.000155969
-0.000499213
-0.000182962
-0.000505011
-0.000210716
-0.000512232
-0.000239446
-0.000520692
-0.000269357
-0.000529765
-0.000300566
-0.000538129
-0.000332922
-0.000543522
-0.000365729
-0.000542598
-0.000397373
-0.000531105
-0.000424928
-0.000504543
-0.00044393
-0.000459469
-0.000448609
-0.000395297
-0.000432891
-0.000316077
-0.000392464
-0.00023106
-0.000327564
-0.00015258
-0.000245519
-9.08324e-05
-0.00016013
-4.89029e-05
-8.6174e-05
-2.34095e-05
-3.11554e-05
-9.15843e-06
5.49863e-06
-2.0586e-06
2.78203e-05
7.37862e-07
3.87823e-05
1.14239e-06
4.01709e-05
5.23175e-07
3.22201e-05
1.43611e-05
-6.90177e-06
-6.66187e-07
-2.24935e-05
1.68991e-05
-4.46306e-05
4.63626e-05
-7.25652e-05
8.53263e-05
-0.00010644
0.000129595
-0.000145856
0.000177681
-0.000189871
0.000227086
-0.000236309
0.000275281
-0.000282503
0.000318346
-0.000325675
0.000353124
-0.000363763
0.000377288
-0.000395418
0.000390245
-0.000420156
0.000392398
-0.000438128
0.000385204
-0.00045012
0.000370498
-0.000457246
0.000350413
-0.000460801
0.000326815
-0.000461981
0.000301313
-0.000461807
0.000274983
-0.000461014
0.000248567
-0.000460094
0.000222393
-0.00045931
0.00019663
-0.000458777
0.000171239
-0.000458499
0.000146175
-0.000458436
0.000121315
-0.00045852
9.6592e-05
-0.000458693
7.19064e-05
-0.000458904
4.72233e-05
-0.000459135
2.2482e-05
-0.000459384
-2.32608e-06
-0.000459685
-2.72365e-05
-0.000460096
-5.22491e-05
-0.000460708
-7.73933e-05
-0.000461644
-0.00010268
-0.000463066
-0.000128156
-0.000465175
-0.000153875
-0.000468214
-0.000179938
-0.000472452
-0.000206491
-0.00047816
-0.000233751
-0.000485529
-0.000261999
-0.000494545
-0.000291561
-0.00050476
-0.000322715
-0.000515001
-0.000355495
-0.000523018
-0.00038936
-0.000525256
-0.000422692
-0.000516915
-0.000452273
-0.000492641
-0.000472883
-0.000448042
-0.00047749
-0.000382011
-0.000458496
-0.000299164
-0.000410412
-0.000210751
-0.00033393
-0.000131651
-0.000239228
-7.28566e-05
-0.000144962
-3.56595e-05
-6.83494e-05
-1.46133e-05
-1.55446e-05
-3.95853e-06
1.71669e-05
4.66964e-07
3.4361e-05
1.40506e-06
3.92325e-05
7.44632e-07
3.28861e-05
1.51064e-05
-9.48392e-06
8.7853e-06
-2.89209e-05
3.63874e-05
-5.49937e-05
7.23787e-05
-8.65875e-05
0.000116957
-0.000123647
0.000166615
-0.000165242
0.000219298
-0.000209861
0.000271676
-0.000254875
0.000320307
-0.000297612
0.000361061
-0.000335629
0.000391147
-0.000367419
0.000409062
-0.000392212
0.00041504
-0.000410124
0.000410298
-0.000421862
0.000396942
-0.000428652
0.000377278
-0.000431846
0.000353606
-0.000432777
0.000327737
-0.000432507
0.000301042
-0.000431828
0.000274295
-0.000431203
0.000247941
-0.000430881
0.000222066
-0.000430917
0.000196667
-0.000431283
0.000171603
-0.000431884
0.000146778
-0.000432626
0.000122057
-0.00043341
9.73815e-05
-0.000434171
7.26711e-05
-0.000434855
4.79144e-05
-0.000435442
2.30767e-05
-0.000435931
-1.82791e-06
-0.000436346
-2.6811e-05
-0.000436732
-5.18518e-05
-0.000437157
-7.6956e-05
-0.000437712
-0.000102113
-0.000438517
-0.000127338
-0.000439726
-0.000152653
-0.00044154
-0.000178113
-0.000444206
-0.000203814
-0.000448031
-0.000229915
-0.000453352
-0.000256669
-0.000460479
-0.000284426
-0.00046955
-0.000313638
-0.000480295
-0.000344746
-0.000491662
-0.000377989
-0.000501403
-0.000412948
-0.000505716
-0.000447957
-0.000499255
-0.000479342
-0.000475844
-0.000500898
-0.000430275
-0.000504065
-0.000361204
-0.000479487
-0.000274366
-0.000420774
-0.000183709
-0.000329888
-0.000106731
-0.000221942
-5.38297e-05
-0.00012125
-2.29951e-05
-4.63822e-05
-7.045e-06
1.21396e-06
-1.25274e-07
2.744e-05
1.65284e-06
3.74499e-05
9.95323e-07
3.35448e-05
1.60981e-05
-1.19164e-05
2.06738e-05
-3.47642e-05
5.93069e-05
-6.41176e-05
0.000101677
-9.84951e-05
0.00015139
-0.000137573
0.000205659
-0.000179896
0.000261659
-0.000223537
0.000315298
-0.000265686
0.000362483
-0.000303916
0.00039928
-0.00033625
0.000423502
-0.000361775
0.000434582
-0.0003803
0.000433581
-0.000392514
0.00042251
-0.00039956
0.000404001
-0.000402918
0.000380636
-0.000403964
0.000354662
-0.000403889
0.000327662
-0.000403495
0.000300656
-0.000403297
0.000274098
-0.000403501
0.000248151
-0.00040416
0.000222724
-0.000405188
0.000197698
-0.000406479
0.000172892
-0.000407898
0.000148198
-0.00040934
0.000123496
-0.000410708
9.8748e-05
-0.000411948
7.39043e-05
-0.000413013
4.89753e-05
-0.000413896
2.39511e-05
-0.000414595
-1.1362e-06
-0.000415138
-2.62785e-05
-0.000415558
-5.14414e-05
-0.000415911
-7.66134e-05
-0.000416264
-0.000101771
-0.000416703
-0.00012691
-0.000417335
-0.000152032
-0.0004183
-0.000177158
-0.000419779
-0.000202344
-0.000422021
-0.000227682
-0.000425344
-0.000253355
-0.000430142
-0.000279634
-0.000436825
-0.000306961
-0.000445685
-0.000335891
-0.000456605
-0.000367073
-0.000468638
-0.000400917
-0.000479459
-0.000437137
-0.000484931
-0.00047387
-0.000479062
-0.000506765
-0.000454866
-0.00052826
-0.000406511
-0.000527839
-0.000332959
-0.000494329
-0.000241981
-0.000420866
-0.000151135
-0.00031279
-7.9981e-05
-0.000192396
-3.57634e-05
-9.05967e-05
-1.23579e-05
-2.21901e-05
-1.66951e-06
1.67532e-05
1.56669e-06
3.42137e-05
1.16843e-06
3.39471e-05
1.72668e-05
-1.40294e-05
3.46608e-05
-3.96803e-05
8.5027e-05
-7.15197e-05
0.000133441
-0.000107698
0.000187618
-0.000147597
0.000245507
-0.000189324
0.000303416
-0.000230736
0.000356673
-0.000269075
0.000400838
-0.000302313
0.000432492
-0.000328999
0.000450198
-0.000348808
0.000454371
-0.000362089
0.000446867
-0.000369994
0.0004304
-0.000373925
0.000407934
-0.000375413
0.000382111
-0.000375681
0.000354931
-0.000375667
0.000327638
-0.000375883
0.000300872
-0.000376588
0.000274795
-0.000377789
0.000249353
-0.000379415
0.000224344
-0.000381311
0.000199596
-0.000383348
0.000174926
-0.000385388
0.00015024
-0.000387342
0.00012545
-0.000389131
0.000100541
-0.000390715
7.54915e-05
-0.000392063
5.033e-05
-0.000393175
2.50685e-05
-0.000394055
-2.48437e-07
-0.00039473
-2.55961e-05
-0.00039523
-5.09317e-05
-0.000395605
-7.623e-05
-0.000395904
-0.000101462
-0.000396194
-0.000126611
-0.000396547
-0.00015167
-0.000397056
-0.00017664
-0.000397838
-0.000201554
-0.000399058
-0.000226454
-0.000400945
-0.000251462
-0.000403828
-0.000276745
-0.000408137
-0.000302648
-0.000414376
-0.000329648
-0.000422964
-0.000358482
-0.000433933
-0.000389947
-0.000446374
-0.000424695
-0.0004578
-0.000462444
-0.000463567
-0.000500996
-0.000456904
-0.000534922
-0.000429993
-0.000554747
-0.000376734
-0.00054759
-0.000297261
-0.000500344
-0.000202745
-0.000407312
-0.000115239
-0.000279906
-5.41655e-05
-0.000151665
-2.05786e-05
-5.57772e-05
-4.627e-06
7.97803e-07
9.37967e-07
2.86475e-05
1.20123e-06
3.36832e-05
1.84661e-05
-1.55959e-05
5.02226e-05
-4.32573e-05
0.000112776
-7.66773e-05
0.000166792
-0.00011364
0.000224649
-0.000153246
0.000285071
-0.000193301
0.000343517
-0.000231627
0.000394974
-0.000265692
0.000434935
-0.000293944
0.000460729
-0.000315458
0.000471736
-0.000330451
0.000469356
-0.000339717
0.000456152
-0.000344713
0.000435392
-0.00034691
0.000410146
-0.000347723
0.000382922
-0.000348121
0.000355342
-0.000348762
0.000328278
-0.000349891
0.000302011
-0.000351579
0.000276482
-0.000353706
0.000251486
-0.000356144
0.000226781
-0.000358719
0.000202176
-0.000361314
0.000177519
-0.000363807
0.000152735
-0.000366133
0.000127773
-0.000368228
0.000102636
-0.00037007
7.73283e-05
-0.000371635
5.18916e-05
-0.00037293
2.63563e-05
-0.000373959
7.75196e-07
-0.000374751
-2.48114e-05
-0.000375334
-5.03556e-05
-0.000375753
-7.58192e-05
-0.000376051
-0.000101172
-0.000376284
-0.000126385
-0.000376506
-0.000151455
-0.000376785
-0.000176369
-0.000377192
-0.000201155
-0.000377828
-0.000225824
-0.000378833
-0.000250462
-0.00038043
-0.000275153
-0.000382945
-0.000300137
-0.000386856
-0.00032574
-0.000392741
-0.0003526
-0.000401149
-0.000381542
-0.000412195
-0.000413649
-0.000424948
-0.000449694
-0.000436572
-0.00048937
-0.00044173
-0.000529765
-0.000432663
-0.000563807
-0.000400811
-0.000579441
-0.000340381
-0.000560771
-0.000254064
-0.000493636
-0.000158247
-0.000375722
-7.9398e-05
-0.000230517
-3.21303e-05
-0.000103029
-9.26842e-06
-2.20726e-05
-3.34916e-07
1.97194e-05
1.07058e-06
3.22764e-05
1.95384e-05
-1.65411e-05
6.67159e-05
-4.53756e-05
0.000141689
-7.94773e-05
0.000200809
-0.00011628
0.000261509
-0.00015465
0.000323383
-0.000192243
0.000381144
-0.000226991
0.000429682
-0.000256697
0.00046466
-0.000280298
0.000484301
-0.000297364
0.000488814
-0.000308564
0.000480534
-0.000315007
0.000462602
-0.000318281
0.000438647
-0.000319768
0.000411637
-0.000320669
0.000383808
-0.000321667
0.000356342
-0.000323164
0.000329763
-0.000325206
0.000304053
-0.000327743
0.00027901
-0.000330598
0.000254342
-0.000333632
0.000229809
-0.000336684
0.000205229
-0.00033966
0.000180491
-0.000342463
0.000155541
-0.000345049
0.000130358
-0.000347368
0.000104959
-0.000349407
7.93692e-05
-0.000351148
5.36374e-05
-0.000352599
2.78112e-05
-0.000353766
1.94846e-06
-0.000354677
-2.38955e-05
-0.000355356
-4.96694e-05
-0.000355847
-7.5322e-05
-0.000356189
-0.000100823
-0.000356434
-0.000126133
-0.000356629
-0.000151255
-0.000356827
-0.000176164
-0.000357077
-0.000200899
-0.000357443
-0.000225452
-0.000357998
-0.000249903
-0.000358869
-0.000274277
-0.000360257
-0.000298746
-0.000362512
-0.000323483
-0.000366144
-0.000348966
-0.000371837
-0.000375849
-0.000380227
-0.000405257
-0.000391491
-0.000438432
-0.000404493
-0.000476367
-0.000415859
-0.000518402
-0.000419237
-0.000560425
-0.00040577
-0.00059291
-0.000366372
-0.000600161
-0.000296683
-0.000563338
-0.000203917
-0.000468483
-0.000111749
-0.000322707
-4.77907e-05
-0.000166962
-1.56089e-05
-5.42649e-05
-2.33799e-06
6.45145e-06
8.07705e-07
2.9126e-05
2.03467e-05
-1.67591e-05
8.3439e-05
-4.58817e-05
0.000170904
-7.97917e-05
0.000234646
-0.000115594
0.000297383
-0.000151985
0.00035973
-0.000186605
0.000415812
-0.000217601
0.000460651
-0.000243158
0.000490252
-0.000262674
0.000503802
-0.00027614
0.000502307
-0.000284566
0.000488951
-0.000289226
0.000467284
-0.00029169
0.000441106
-0.000293152
0.000413117
-0.000294558
0.00038521
-0.000296329
0.000358127
-0.000298669
0.000332102
-0.000301493
0.000306888
-0.000304695
0.000282211
-0.000308082
0.000257738
-0.000311536
0.000233261
-0.000314919
0.000208617
-0.000318164
0.000183734
-0.000321193
0.000158573
-0.000323979
0.000133141
-0.000326479
0.000107459
-0.000328686
8.15719e-05
-0.000330581
5.5531e-05
-0.000332175
2.94002e-05
-0.00033347
3.2403e-06
-0.000334494
-2.28777e-05
-0.000335267
-4.89008e-05
-0.000335832
-7.47629e-05
-0.000336225
-0.000100436
-0.000336497
-0.000125867
-0.000336691
-0.000151066
-0.00033686
-0.000176
-0.000337045
-0.00020072
-0.000337292
-0.000225208
-0.000337643
-0.000249557
-0.000338162
-0.00027376
-0.000338949
-0.000297962
-0.000340211
-0.000322223
-0.000342299
-0.000346879
-0.000345806
-0.000372344
-0.000351492
-0.000399571
-0.000360114
-0.000429812
-0.000371765
-0.000464713
-0.000384952
-0.000505219
-0.00039537
-0.000550003
-0.000395388
-0.000592893
-0.000374966
-0.000620573
-0.000325219
-0.000613086
-0.000245023
-0.000548681
-0.00014896
-0.000418779
-6.85638e-05
-0.000247359
-2.37536e-05
-9.90575e-05
-5.1788e-06
-1.21312e-05
4.27734e-07
2.35191e-05
2.07766e-05
-1.62983e-05
9.96889e-05
-4.48925e-05
0.000199577
-7.78467e-05
0.000267514
-0.00011197
0.000331563
-0.000145856
0.000393557
-0.000177237
0.000447227
-0.000204534
0.000487905
-0.000226318
0.000512057
-0.000242391
0.000519843
-0.000253075
0.000513003
-0.000259594
0.000495445
-0.000263257
0.000470954
-0.00026551
0.000443338
-0.000267314
0.000414925
-0.000269366
0.000387245
-0.000271879
0.000360641
-0.000274919
0.000335129
-0.000278332
0.000310302
-0.000281998
0.000285867
-0.00028574
0.00026148
-0.000289464
0.000236979
-0.000293061
0.000212215
-0.000296486
0.000187155
-0.000299676
0.000161766
-0.000302614
0.000136076
-0.000305261
0.000110108
-0.000307611
8.3923e-05
-0.000309648
5.75715e-05
-0.00031138
3.11338e-05
-0.000312807
4.67186e-06
-0.000313954
-2.1727e-05
-0.00031484