/*--------------------------------*- C++ -*----------------------------------*\
| =========                 |                                                 |
| \\      /  F ield         | OpenFOAM: The Open Source CFD Toolbox           |
|  \\    /   O peration     | Version:  2406                                  |
|   \\  /    A nd           | Website:  www.openfoam.com                      |
|    \\/     M anipulation  |                                                 |
\*---------------------------------------------------------------------------*/
FoamFile
{
    version     2.0;
    format      ascii;
    arch        "LSB;label=32;scalar=64";
    class       volScalarField;
    location    "0.4";
    object      p;
}
// * * * * * * * * * * * * * * * * * * * * * * * * * * * * * * * * * * * * * //

dimensions      [0 2 -2 0 0 0 0];

internalField   nonuniform List<scalar> 
3600
(
-0.00170214
-0.00170412
-0.00169742
-0.0016869
-0.0016691
-0.0016463
-0.00161713
-0.00158255
-0.00154212
-0.00149626
-0.00144491
-0.00138829
-0.00132651
-0.00125974
-0.00118817
-0.00111196
-0.00103134
-0.000946497
-0.000857673
-0.0007651
-0.000669028
-0.000569717
-0.000467435
-0.000362464
-0.000255093
-0.000145617
-3.43444e-05
7.84137e-05
0.000192338
0.000307102
0.000422377
0.000537828
0.000653118
0.000767906
0.00088185
0.000994608
0.00110584
0.0012152
0.00132236
0.00142698
0.00152873
0.00162728
0.00172233
0.00181357
0.00190069
0.00198341
0.00206145
0.00213456
0.00220249
0.00226499
0.00232189
0.00237291
0.00241804
0.0024568
0.0024896
0.00251543
0.00253561
0.00254781
0.00255553
0.00255402
-0.00170018
-0.00170217
-0.00169523
-0.00168476
-0.0016669
-0.00164416
-0.00161501
-0.00158051
-0.00154013
-0.00149435
-0.00144307
-0.00138654
-0.00132485
-0.00125818
-0.0011867
-0.0011106
-0.00103008
-0.000945347
-0.000856633
-0.000764172
-0.000668214
-0.000569016
-0.000466849
-0.000361992
-0.000254734
-0.000145372
-3.42104e-05
7.84374e-05
0.000192253
0.000306911
0.000422082
0.000537431
0.000652621
0.000767313
0.000881164
0.000993833
0.00110498
0.00121426
0.00132133
0.00142587
0.00152755
0.00162604
0.00172102
0.00181219
0.00189925
0.00198192
0.00205991
0.00213297
0.00220085
0.00226331
0.00232018
0.00237116
0.00241626
0.00245498
0.00248778
0.00251357
0.00253382
0.00254602
0.00255405
0.00255252
-0.00170694
-0.00170921
-0.00170225
-0.00169184
-0.00167393
-0.00165115
-0.00162191
-0.00158732
-0.00154683
-0.00150092
-0.00144949
-0.0013928
-0.00133092
-0.00126406
-0.00119237
-0.00111604
-0.00103527
-0.000950277
-0.000861288
-0.000768537
-0.000672274
-0.000572759
-0.000470262
-0.000365063
-0.000257452
-0.000147725
-3.61891e-05
7.68424e-05
0.00019105
0.000306107
0.000421683
0.000537443
0.000653048
0.000768158
0.000882428
0.000995516
0.00110708
0.00121678
0.00132427
0.00142921
0.00153129
0.00163017
0.00172553
0.00181708
0.00190449
0.0019875
0.00206582
0.00213919
0.00220736
0.00227008
0.0023272
0.00237839
0.00242369
0.00246258
0.00249553
0.00252141
0.00254177
0.00255394
0.00256201
0.00256013
-0.00171764
-0.00171992
-0.00171285
-0.00170242
-0.00168441
-0.00166155
-0.00163218
-0.00159746
-0.0015568
-0.0015107
-0.00145906
-0.00140213
-0.00133999
-0.00127284
-0.00120083
-0.00112416
-0.00104303
-0.000957659
-0.000868263
-0.000775084
-0.000678372
-0.000578387
-0.000475401
-0.000369694
-0.000261557
-0.000151288
-3.91951e-05
7.44077e-05
0.000189199
0.000304852
0.000421033
0.000537407
0.000653632
0.000769366
0.000884264
0.000997981
0.00111017
0.00122049
0.0013286
0.00143416
0.00153684
0.00163631
0.00173224
0.00182434
0.0019123
0.00199582
0.00207463
0.00214846
0.00221706
0.00228019
0.00233767
0.00238919
0.00243479
0.00247393
0.00250711
0.00253315
0.00255368
0.00256592
0.00257412
0.00257221
-0.00173577
-0.00173819
-0.00173109
-0.00172063
-0.00170248
-0.00167947
-0.00164989
-0.0016149
-0.00157394
-0.00152749
-0.00147545
-0.00141808
-0.00135546
-0.00128778
-0.00121521
-0.00113794
-0.00105617
-0.000970106
-0.000879991
-0.000786056
-0.000688554
-0.000587747
-0.000483908
-0.000377319
-0.000268272
-0.000157068
-4.40171e-05
7.05649e-05
0.000186354
0.000303021
0.00042023
0.000537643
0.000654916
0.000771703
0.000887656
0.00100243
0.00111567
0.00122703
0.00133617
0.00144275
0.00154643
0.00164687
0.00174376
0.00183678
0.00192562
0.00200999
0.00208961
0.0021642
0.00223352
0.00229731
0.0023554
0.00240747
0.00245356
0.00249311
0.00252665
0.00255296
0.00257371
0.00258604
0.00259431
0.00259228
-0.00175919
-0.00176164
-0.00175445
-0.00174391
-0.00172558
-0.00170236
-0.0016725
-0.00163718
-0.00159582
-0.00154893
-0.00149639
-0.00143846
-0.00137522
-0.00130688
-0.00123358
-0.00115554
-0.00107294
-0.000986009
-0.000894974
-0.000800075
-0.000701566
-0.00059971
-0.000494781
-0.000387066
-0.000276859
-0.000164462
-5.0188e-05
6.56436e-05
0.000182706
0.000300668
0.000419189
0.000537929
0.000656539
0.00077467
0.00089197
0.00100809
0.00112267
0.00123537
0.00134582
0.0014537
0.00155865
0.00166035
0.00175845
0.00185265
0.00194263
0.00202809
0.00210874
0.00218431
0.00225454
0.00231917
0.00237804
0.00243081
0.00247752
0.00251761
0.00255161
0.00257828
0.00259933
0.00261183
0.00262023
0.00261819
-0.00178934
-0.00179188
-0.00178462
-0.00177398
-0.00175543
-0.00173194
-0.00170171
-0.00166596
-0.00162409
-0.00157661
-0.0015234
-0.00146474
-0.0014007
-0.00133149
-0.00125725
-0.0011782
-0.00109453
-0.00100647
-0.000914238
-0.000818087
-0.000718271
-0.000615055
-0.000508717
-0.000399545
-0.000287837
-0.000173899
-5.80468e-05
5.9397e-05
0.000178102
0.000297731
0.000417943
0.000538389
0.000658719
0.000778579
0.000897612
0.00101546
0.00113176
0.00124617
0.00135832
0.00146787
0.00157446
0.00167775
0.00177742
0.00187312
0.00196456
0.00205141
0.00213339
0.00221021
0.00228162
0.00234734
0.0024072
0.00246087
0.00250838
0.00254915
0.00258375
0.00261087
0.00263228
0.00264499
0.00265352
0.00265142
-0.00182545
-0.00182804
-0.00182068
-0.0018099
-0.00179109
-0.00176727
-0.00173659
-0.00170032
-0.00165783
-0.00160966
-0.00155566
-0.00149613
-0.00143113
-0.00136087
-0.00128551
-0.00120525
-0.00112031
-0.00103089
-0.000937237
-0.000839593
-0.000738217
-0.000633379
-0.000525359
-0.00041445
-0.000300951
-0.000185175
-6.74393e-05
5.19275e-05
0.000172591
0.00029421
0.000416437
0.000538921
0.000661303
0.000783225
0.000904324
0.00102424
0.0011426
0.00125905
0.00137322
0.00148475
0.0015933
0.00169851
0.00180004
0.00189755
0.00199072
0.00207924
0.00216281
0.00224113
0.00231394
0.00238096
0.00244201
0.00249675
0.00254523
0.00258683
0.00262212
0.0026498
0.00267166
0.00268463
0.00269335
0.00269123
-0.00186813
-0.0018708
-0.00186333
-0.00185238
-0.00183326
-0.00180904
-0.00177785
-0.00174097
-0.00169775
-0.00164874
-0.00159381
-0.00153323
-0.0014671
-0.0013956
-0.00131891
-0.00123723
-0.00115077
-0.00105975
-0.000964411
-0.000864999
-0.000761778
-0.000655021
-0.000545013
-0.000432049
-0.000316434
-0.000198485
-7.85246e-05
4.31143e-05
0.000166092
0.000290061
0.000414669
0.000539558
0.000664364
0.000788721
0.000912261
0.00103461
0.0011554
0.00127426
0.00139082
0.00150471
0.00161557
0.00172304
0.00182677
0.00192642
0.00202165
0.00211214
0.00219758
0.00227767
0.00235215
0.0024207
0.00248317
0.00253919
0.0025888
0.00263138
0.00266751
0.00269584
0.00271822
0.0027315
0.00274042
0.00273825
-0.00191719
-0.00191994
-0.00191233
-0.00190119
-0.0018817
-0.00185703
-0.00182524
-0.00178764
-0.00174358
-0.00169362
-0.00163761
-0.00157585
-0.00150841
-0.00143549
-0.00135728
-0.00127396
-0.00118576
-0.0010929
-0.00099563
-0.00089419
-0.000788852
-0.000679894
-0.000567604
-0.000452283
-0.000334241
-0.0002138
-9.1287e-05
3.29582e-05
0.00015859
0.000285256
0.000412596
0.000540245
0.000667833
0.000794986
0.000921328
0.00104648
0.00117006
0.00129169
0.00141099
0.00152759
0.0016411
0.00175118
0.00185744
0.00195955
0.00205714
0.00214991
0.00223751
0.00231965
0.00239603
0.00246637
0.00253047
0.00258795
0.00263887
0.00268258
0.00271968
0.00274878
0.00277176
0.00278541
0.00279457
0.00279236
-0.00197292
-0.00197576
-0.001968
-0.00195664
-0.00193675
-0.00191156
-0.00187908
-0.00184068
-0.00179567
-0.00174462
-0.0016874
-0.00162428
-0.00155535
-0.00148083
-0.00140087
-0.0013157
-0.00122553
-0.00113059
-0.00103111
-0.000927372
-0.000819631
-0.000708174
-0.000593295
-0.000475299
-0.000354503
-0.000231233
-0.000105824
2.13794e-05
0.000150024
0.00027975
0.000410191
0.000540974
0.00067172
0.000802049
0.000931573
0.00105991
0.00118666
0.00131144
0.00143386
0.00155353
0.00167007
0.00178311
0.00189226
0.00199716
0.00209746
0.00219281
0.00228288
0.00236734
0.00244592
0.00251828
0.00258424
0.00264341
0.00269582
0.00274083
0.00277903
0.002809
0.00283267
0.00284674
0.00285618
0.00285392
-0.00203538
-0.00203833
-0.00203039
-0.00201879
-0.00199844
-0.00197266
-0.00193943
-0.00190013
-0.00185405
-0.00180178
-0.00174319
-0.00167855
-0.00160797
-0.00153164
-0.00144975
-0.0013625
-0.00127012
-0.00117284
-0.00107091
-0.00096459
-0.000854162
-0.000739909
-0.000622134
-0.000501145
-0.000377267
-0.000250832
-0.000122182
8.33112e-06
0.000140348
0.000273499
0.000407412
0.000541704
0.000675988
0.000809873
0.000942965
0.00107486
0.00120517
0.00133348
0.0014594
0.00158253
0.00170247
0.00181883
0.00193122
0.00203927
0.00214261
0.00224087
0.00233372
0.00242081
0.00250185
0.0025765
0.00264456
0.00270562
0.00275973
0.0028062
0.00284564
0.0028766
0.00290105
0.00291559
0.00292535
0.00292304
-0.00210479
-0.00210785
-0.00209972
-0.00208785
-0.00206699
-0.00204057
-0.00200649
-0.00196618
-0.00191892
-0.00186531
-0.0018052
-0.00173888
-0.00166646
-0.00158813
-0.00150408
-0.00141453
-0.0013197
-0.00121983
-0.00111517
-0.001006
-0.000892586
-0.000775233
-0.000654244
-0.000529937
-0.00040264
-0.000272694
-0.000140448
-6.26232e-06
0.000129496
0.00026645
0.000404216
0.000542404
0.000680618
0.000818455
0.00095551
0.00109137
0.00122563
0.00135788
0.00148769
0.00161467
0.00173839
0.00185846
0.00197447
0.00208603
0.00219276
0.00229427
0.00239022
0.00248025
0.00256405
0.00264126
0.00271167
0.00277486
0.00283086
0.00287897
0.00291981
0.00295187
0.00297721
0.00299228
0.00300239
0.00300002
-0.00218131
-0.00218449
-0.00217615
-0.00216398
-0.00214256
-0.00211543
-0.00208042
-0.00203901
-0.00199045
-0.00193536
-0.00187357
-0.00180541
-0.00173096
-0.00165043
-0.00156401
-0.00147192
-0.0013744
-0.00127168
-0.00116402
-0.00105171
-0.000935018
-0.000814254
-0.000689731
-0.000561771
-0.000430714
-0.000296905
-0.000160702
-2.24744e-05
0.000117402
0.000258542
0.000400553
0.000543033
0.000685575
0.000827768
0.000969193
0.00110943
0.00124805
0.00138464
0.00151876
0.00164998
0.00177789
0.00190206
0.00202207
0.00213752
0.002248
0.00235313
0.00245253
0.00254582
0.00263267
0.00271273
0.00278575
0.00285131
0.00290942
0.00295936
0.00300176
0.00303506
0.00306137
0.00307704
0.00308755
0.00308512
-0.00226514
-0.00226846
-0.00225989
-0.00224739
-0.00222536
-0.00219746
-0.00216143
-0.00211882
-0.00206884
-0.00201212
-0.00194852
-0.00187833
-0.00180166
-0.00171873
-0.00162972
-0.00153487
-0.0014344
-0.00132856
-0.00121763
-0.00110188
-0.000981601
-0.00085711
-0.000728722
-0.000596771
-0.000461602
-0.000323569
-0.00018304
-4.03918e-05
0.00010399
0.00024971
0.000396365
0.000543543
0.000690827
0.000837791
0.000984006
0.00112904
0.00127245
0.00141379
0.00155264
0.00168853
0.00182104
0.00194972
0.00207414
0.00219388
0.0023085
0.00241761
0.00252081
0.0026177
0.00270794
0.00279114
0.00286706
0.00293524
0.00299569
0.00304765
0.00309178
0.00312645
0.00315385
0.00317019
0.00318114
0.00317864
-0.00235651
-0.00235998
-0.00235117
-0.00233831
-0.00231562
-0.00228687
-0.00224974
-0.00220582
-0.00215429
-0.00209582
-0.00203023
-0.00195785
-0.00187877
-0.00179323
-0.0017014
-0.00160354
-0.00149986
-0.00139064
-0.00127615
-0.00115666
-0.00103249
-0.000903945
-0.000771357
-0.000635066
-0.000495425
-0.0003528
-0.000207566
-6.01085e-05
8.91751e-05
0.000239879
0.00039159
0.000543884
0.000696331
0.000848495
0.000999931
0.00115019
0.00129882
0.00144537
0.00158938
0.00173038
0.00186792
0.00200155
0.0021308
0.00225523
0.0023744
0.00248788
0.00259525
0.00269611
0.00279007
0.00287674
0.00295585
0.00302692
0.00308995
0.00314415
0.00319019
0.00322638
0.00325498
0.00327205
0.00328349
0.00328093
-0.00245566
-0.0024593
-0.00245021
-0.00243698
-0.00241357
-0.00238391
-0.00234559
-0.00230026
-0.00224705
-0.00218668
-0.00211894
-0.00204419
-0.0019625
-0.00187413
-0.00177926
-0.00167813
-0.001571
-0.00145811
-0.00133976
-0.00121624
-0.00108785
-0.000954917
-0.000817783
-0.000676796
-0.000532317
-0.00038472
-0.000234392
-8.17282e-05
7.28637e-05
0.000228967
0.000386156
0.000543995
0.000702042
0.000859846
0.00101695
0.00117289
0.0013272
0.0014794
0.00162902
0.00177559
0.00191861
0.00205763
0.00219215
0.00232171
0.00244585
0.00256412
0.00267607
0.00278126
0.00287932
0.00296979
0.00305241
0.00312665
0.00319252
0.00324918
0.00329733
0.00333519
0.00336511
0.003383
0.00339498
0.00339235
-0.00256285
-0.00256667
-0.0025573
-0.00254366
-0.00251947
-0.00248884
-0.00244924
-0.00240238
-0.00234737
-0.00228494
-0.0022149
-0.00213758
-0.00205309
-0.00196167
-0.00186352
-0.00175888
-0.00164801
-0.00153118
-0.00140867
-0.00128079
-0.00114786
-0.0010102
-0.000868167
-0.000722117
-0.000572421
-0.000419465
-0.000263644
-0.000105365
5.49528e-05
0.000216882
0.000379984
0.000543811
0.000707907
0.000871807
0.00103504
0.00119712
0.00135758
0.00151591
0.00167162
0.00182422
0.0019732
0.00211807
0.00225832
0.00239348
0.00252303
0.00264652
0.00276347
0.00287341
0.00297593
0.00307058
0.00315704
0.00323476
0.00330375
0.00336312
0.00341359
0.00345328
0.00348466
0.00350345
0.00351603
0.00351331
-0.00267837
-0.00268239
-0.00267271
-0.00265864
-0.00263362
-0.00260194
-0.00256096
-0.00251246
-0.00245552
-0.00239089
-0.00231836
-0.0022383
-0.00215079
-0.0020561
-0.00195442
-0.00184601
-0.00173113
-0.00161005
-0.00148308
-0.00135053
-0.00121271
-0.00106998
-0.000922683
-0.000771194
-0.000615896
-0.000457181
-0.000295458
-0.000131144
3.53296e-05
0.000203523
0.000372985
0.000543255
0.000713863
0.000884329
0.00105417
0.00122288
0.00138996
0.00155491
0.0017172
0.00187633
0.00203176
0.00218298
0.00232946
0.00247068
0.00260613
0.00273529
0.00285768
0.00297281
0.00308021
0.00317941
0.00327007
0.00335161
0.00342402
0.00348635
0.00353936
0.00358108
0.00361406
0.00363384
0.00364707
0.00364427
-0.00280252
-0.00280676
-0.00279675
-0.00278221
-0.00275631
-0.00272351
-0.00268105
-0.00263081
-0.0025718
-0.00250481
-0.00242963
-0.00234662
-0.00225588
-0.00215768
-0.00205223
-0.00193978
-0.0018206
-0.00169498
-0.00156323
-0.00142567
-0.00128262
-0.00113445
-0.000981523
-0.00082421
-0.000662909
-0.000498026
-0.00032998
-0.0001592
1.38705e-05
0.000188779
0.000365062
0.000542245
0.000719842
0.00089736
0.00107429
0.00125013
0.00142435
0.00159642
0.00176582
0.00193198
0.00209438
0.00225247
0.00240568
0.00255348
0.00269532
0.00283066
0.00295897
0.00307973
0.00319245
0.00329662
0.00339187
0.00347759
0.00355374
0.00361932
0.00367511
0.00371905
0.00375379
0.00377465
0.00378861
0.00378572
-0.00293562
-0.0029401
-0.00292974
-0.00291472
-0.00288787
-0.00285388
-0.00280985
-0.00275774
-0.00269652
-0.00262702
-0.00254899
-0.00246284
-0.00236866
-0.00226671
-0.00215722
-0.00204046
-0.00191669
-0.00178622
-0.00164936
-0.00150645
-0.00135782
-0.00120384
-0.00104489
-0.000881357
-0.000713645
-0.000542173
-0.000367371
-0.000189682
-9.55953e-06
0.000172529
0.000356107
0.000540686
0.000725765
0.000910836
0.00109538
0.00127886
0.00146074
0.00164047
0.00181749
0.00199125
0.00216115
0.00232664
0.00248713
0.00264205
0.00279081
0.00293284
0.00306758
0.00319447
0.00331299
0.00342257
0.00352284
0.00361311
0.00369335
0.00376249
0.00382134
0.00386771
0.00390438
0.00392644
0.00394118
0.00393821
-0.00307803
-0.00308278
-0.00307205
-0.00305651
-0.00302866
-0.0029934
-0.0029477
-0.0028936
-0.00283003
-0.00275785
-0.0026768
-0.0025873
-0.00248943
-0.0023835
-0.00226971
-0.00214834
-0.00201968
-0.00188404
-0.00174174
-0.00159312
-0.00143854
-0.00127837
-0.00111301
-0.000942842
-0.000768299
-0.000589804
-0.000407802
-0.000222747
-3.51071e-05
0.000154639
0.000346
0.000538473
0.000731543
0.000924685
0.00111736
0.00130902
0.00149911
0.00168705
0.00187226
0.00205416
0.00223215
0.00240562
0.00257396
0.00273656
0.0028928
0.00304208
0.0031838
0.00331734
0.00344216
0.00355765
0.00366338
0.00375863
0.00384334
0.00391638
0.00397857
0.00402761
0.0040664
0.00408977
0.00410538
0.00410232
-0.00323013
-0.00323516
-0.00322404
-0.00320796
-0.00317905
-0.00314245
-0.00309497
-0.00303876
-0.00297269
-0.00289765
-0.00281339
-0.00272032
-0.00261855
-0.00250836
-0.00239
-0.00226373
-0.00212987
-0.00198873
-0.00184064
-0.00168595
-0.00152504
-0.00135829
-0.0011861
-0.00100889
-0.00082708
-0.000641118
-0.000451459
-0.000258569
-6.29311e-05
0.000134964
0.00033461
0.00053549
0.000737075
0.000938823
0.00114018
0.00134057
0.00153943
0.00173616
0.00193015
0.00212079
0.00230745
0.0024895
0.00266629
0.00283718
0.00300151
0.00315864
0.00330791
0.00344868
0.00358035
0.00370227
0.00381395
0.00391464
0.00400424
0.00408155
0.0041474
0.00419936
0.00424048
0.0042653
0.00428187
0.0042787
-0.00339231
-0.00339766
-0.00338613
-0.00336948
-0.00333944
-0.00330142
-0.00325206
-0.00319361
-0.00312489
-0.00304683
-0.00295915
-0.0028623
-0.00275637
-0.00264167
-0.00251844
-0.00238698
-0.00224759
-0.0021006
-0.00194636
-0.00178524
-0.0016176
-0.00144386
-0.00126443
-0.00107974
-0.000890215
-0.000696327
-0.000498539
-0.000297334
-9.32038e-05
0.000113345
0.000321793
0.000531609
0.000742248
0.000953153
0.00116375
0.00137346
0.00158168
0.00178779
0.00199116
0.00219116
0.00238713
0.00257839
0.00276428
0.0029441
0.00311715
0.00328276
0.00344021
0.00358883
0.00372794
0.00385685
0.00397504
0.00408167
0.00417661
0.00425859
0.00432845
0.00438363
0.00442731
0.00445372
0.00447134
0.00446808
-0.00356501
-0.00357071
-0.00355874
-0.0035415
-0.00351028
-0.00347075
-0.0034194
-0.00335858
-0.00328705
-0.00320578
-0.00311448
-0.00301361
-0.00290328
-0.00278379
-0.00265541
-0.00251843
-0.00237318
-0.00221999
-0.00205923
-0.00189127
-0.00171651
-0.00153536
-0.00134826
-0.00115563
-0.00095794
-0.000755654
-0.000549256
-0.000339239
-0.00012611
8.96104e-05
0.000307391
0.000526685
0.000746935
0.000967566
0.00118799
0.0014076
0.00162579
0.0018419
0.0020553
0.0022653
0.00247123
0.00267238
0.00286804
0.00305747
0.00323994
0.00341471
0.00358103
0.00373814
0.00388535
0.00402188
0.00414715
0.00426027
0.00436106
0.00444816
0.00452243
0.00458115
0.00462763
0.0046558
0.00467458
0.00467122
-0.00374867
-0.00375476
-0.00374234
-0.00372448
-0.003692
-0.0036509
-0.00359744
-0.00353412
-0.00345961
-0.00337494
-0.00327981
-0.00317469
-0.00305969
-0.00293513
-0.00280128
-0.00265846
-0.00250699
-0.00234724
-0.00217957
-0.00200438
-0.00182208
-0.00163309
-0.00143786
-0.00123684
-0.00103051
-0.000819341
-0.000603834
-0.000384497
-0.00016185
6.35754e-05
0.000291233
0.000520564
0.000750994
0.000981936
0.00121279
0.00144292
0.0016717
0.00189847
0.00212255
0.00234323
0.00255982
0.00277156
0.0029777
0.00317748
0.00337009
0.00355475
0.00373066
0.003897
0.00405301
0.00419783
0.00433084
0.00445105
0.00455826
0.00465097
0.00473009
0.0047927
0.00484228
0.00487239
0.00489245
0.00488898
-0.00394379
-0.0039503
-0.00393741
-0.00391891
-0.00388511
-0.00384235
-0.00378666
-0.0037207
-0.00364304
-0.00355479
-0.0034556
-0.00334598
-0.00322604
-0.00309611
-0.00295648
-0.00280747
-0.00264943
-0.00248272
-0.00230775
-0.0021249
-0.00193462
-0.00173735
-0.00153353
-0.00132365
-0.00110819
-0.000887639
-0.000662515
-0.000433336
-0.000200636
3.50397e-05
0.000273133
0.000513071
0.000754268
0.000996121
0.00123801
0.0014793
0.00171933
0.00195742
0.00219287
0.00242495
0.00265291
0.00287599
0.00309338
0.00330427
0.00350781
0.00370316
0.00388944
0.00406579
0.00423136
0.00438523
0.00452669
0.00465467
0.00476891
0.0048678
0.00495225
0.00501914
0.00507215
0.00510441
0.00512588
0.0051223
-0.00415088
-0.00415786
-0.00414447
-0.00412532
-0.00409013
-0.00404562
-0.00398759
-0.00391884
-0.00383787
-0.00374582
-0.00364234
-0.00352797
-0.0034028
-0.00326719
-0.00312144
-0.00296589
-0.00280089
-0.00262684
-0.00244413
-0.00225321
-0.0020545
-0.00184847
-0.00163559
-0.00141636
-0.00119126
-0.000960816
-0.00072555
-0.000485994
-0.000242695
3.78874e-06
0.000252888
0.000504018
0.000756581
0.00100996
0.00126353
0.00151662
0.00176857
0.00201867
0.00226621
0.00251042
0.00275053
0.00298572
0.00321516
0.00343799
0.0036533
0.00386018
0.0040577
0.00424491
0.00442088
0.00458461
0.00473532
0.00487181
0.00499378
0.00509947
0.00518981
0.00526144
0.00531823
0.00535287
0.00537591
0.00537223
-0.00437049
-0.00437799
-0.00436409
-0.00434426
-0.00430762
-0.00426127
-0.00420078
-0.00412909
-0.00404461
-0.00394856
-0.00384055
-0.00372115
-0.00359046
-0.00344885
-0.00329663
-0.00313416
-0.00296181
-0.00277999
-0.00258913
-0.00238966
-0.00218206
-0.00196679
-0.00174436
-0.00151526
-0.00128002
-0.00103915
-0.000793206
-0.000542725
-0.000288269
-3.04067e-05
0.000230281
0.0004932
0.00075774
0.00102328
0.00128916
0.00155473
0.00181929
0.00208212
0.00234249
0.0025996
0.00285264
0.00310078
0.00334312
0.00357876
0.00380673
0.00402607
0.00423575
0.00443475
0.00462206
0.00479656
0.00495738
0.00510322
0.00523369
0.00534689
0.00544373
0.00552061
0.0055816
0.00561889
0.00564368
0.00563989
-0.00460321
-0.00461129
-0.00459686
-0.00457633
-0.00453817
-0.0044899
-0.00442681
-0.00435203
-0.00426386
-0.00416359
-0.0040508
-0.00392609
-0.00378956
-0.00364161
-0.00348255
-0.00331276
-0.00313265
-0.00294263
-0.00274315
-0.00253467
-0.00231769
-0.00209268
-0.00186018
-0.0016207
-0.00137477
-0.00112294
-0.000865762
-0.000603796
-0.000337613
-6.77905e-05
0.000205079
0.000480392
0.000757532
0.00103586
0.00131473
0.00159345
0.00187133
0.00214763
0.00242159
0.00269239
0.00295921
0.00322116
0.0034773
0.00372669
0.00396828
0.00420106
0.00442391
0.00463571
0.00483536
0.00502164
0.00519356
0.00534968
0.00548954
0.00561103
0.00571509
0.0057978
0.00586346
0.00590371
0.00593045
0.00592655
-0.00484965
-0.00485838
-0.0048434
-0.00482216
-0.00478241
-0.00473214
-0.00466632
-0.00458829
-0.00449623
-0.00439151
-0.00427367
-0.00414335
-0.00400065
-0.003846
-0.00367972
-0.00350221
-0.00331389
-0.00311521
-0.00290663
-0.00268865
-0.00246177
-0.00222651
-0.0019834
-0.00173299
-0.00147583
-0.00121248
-0.000943509
-0.000669485
-0.000390992
-0.00010862
0.000177032
0.000465355
0.000755724
0.0010475
0.00134001
0.00163259
0.00192451
0.00221503
0.00250337
0.00278869
0.00307015
0.00334681
0.0036177
0.00388182
0.00413808
0.00438535
0.00462246
0.00484818
0.0050613
0.00526046
0.00544458
0.00561203
0.00576227
0.00589296
0.00600503
0.00609426
0.00616513
0.00620869
0.00623762
0.00623362
-0.0051105
-0.00511995
-0.0051044
-0.00508245
-0.00504103
-0.00498866
-0.00491998
-0.00483854
-0.00474238
-0.00463296
-0.0045098
-0.00437356
-0.00422435
-0.00406261
-0.00388869
-0.00370302
-0.00350603
-0.00329821
-0.00308003
-0.00285203
-0.00261472
-0.00236866
-0.0021144
-0.0018525
-0.00158354
-0.00130809
-0.00102675
-0.000740079
-0.000448688
-0.000153167
0.000145877
0.00044783
0.000752063
0.00105793
0.00136478
0.00167191
0.0019786
0.00228411
0.00258763
0.00288833
0.00318532
0.00347764
0.00376428
0.00404418
0.00431619
0.00457911
0.00483167
0.00507253
0.00530035
0.00551365
0.00571118
0.00589116
0.00605289
0.00619382
0.00631485
0.00641135
0.00648807
0.00653537
0.00656675
0.00656265
-0.00538643
-0.00539669
-0.00538056
-0.00535789
-0.00531474
-0.00526019
-0.00518851
-0.00510348
-0.00500301
-0.00488865
-0.00475986
-0.00461737
-0.00446128
-0.00429205
-0.00411007
-0.00391576
-0.00370963
-0.00349214
-0.00326384
-0.00302526
-0.00277697
-0.00251953
-0.00225354
-0.00197957
-0.00169822
-0.00141009
-0.00111578
-0.000815876
-0.000510987
-0.000201713
0.000111335
0.00042754
0.000746277
0.0010669
0.00138875
0.00171114
0.00203335
0.00235462
0.00267415
0.00299109
0.00330453
0.0036135
0.00391694
0.00421373
0.00450267
0.00478247
0.00505176
0.0053091
0.00555299
0.00578181
0.00599414
0.00618798
0.00636251
0.00651487
0.00664592
0.0067506
0.00683391
0.00688542
0.00691959
0.00691539
-0.00567825
-0.00568942
-0.00567269
-0.00564931
-0.00560435
-0.00554753
-0.0054727
-0.00538391
-0.00527889
-0.00515932
-0.0050246
-0.0048755
-0.00471213
-0.00453499
-0.00434447
-0.00414104
-0.00392522
-0.00369754
-0.00345854
-0.00320881
-0.00294895
-0.00267954
-0.00240121
-0.00211457
-0.00182023
-0.00151881
-0.00121092
-0.000897178
-0.000578185
-0.000254551
7.31148e-05
0.000404196
0.000738071
0.0010741
0.00141163
0.00174998
0.00208844
0.00242626
0.00276263
0.00309671
0.00342755
0.00375418
0.0040755
0.00439036
0.00469747
0.00499548
0.00528291
0.00555818
0.00581967
0.00606555
0.00629423
0.00650348
0.00669228
0.00685745
0.00699977
0.00711368
0.00720445
0.00726076
0.00729808
0.00729381
-0.00598667
-0.00599886
-0.00598154
-0.00595745
-0.00591063
-0.00585146
-0.00577335
-0.00568061
-0.00557082
-0.00544575
-0.00530477
-0.00514869
-0.00497763
-0.00479211
-0.00459256
-0.00437948
-0.00415343
-0.00391495
-0.00366466
-0.00340317
-0.0031311
-0.0028491
-0.0025578
-0.00225786
-0.0019499
-0.00163457
-0.00131249
-0.000984291
-0.000650583
-0.000311977
3.09175e-05
0.000377493
0.000727134
0.00107922
0.0014331
0.00178811
0.00214355
0.00249869
0.00285274
0.00320483
0.00355405
0.00389938
0.00423972
0.00457386
0.00490047
0.00521811
0.00552518
0.00582
0.00610076
0.00636544
0.00661225
0.00683865
0.00704343
0.007223
0.00737806
0.00750246
0.00760171
0.0076635
0.00770442
0.0077001
-0.00631271
-0.00632607
-0.00630814
-0.00628337
-0.00623459
-0.00617298
-0.00609141
-0.00599453
-0.00587971
-0.00574884
-0.00560124
-0.00543778
-0.00525856
-0.00506417
-0.00485505
-0.00463175
-0.00439485
-0.00414497
-0.00388274
-0.00360883
-0.0033239
-0.00302863
-0.00272371
-0.0024098
-0.00208757
-0.00175769
-0.00142079
-0.00107752
-0.00072848
-0.000374295
-1.55646e-05
0.000347113
0.000713137
0.0010819
0.00145278
0.00182513
0.00219828
0.00257151
0.00294405
0.00331505
0.00368361
0.00404871
0.00440923
0.00476393
0.00511143
0.00545021
0.00577859
0.0060947
0.0063966
0.00668203
0.00694895
0.00719452
0.00741726
0.00761312
0.00778265
0.00791901
0.00802798
0.00809607
0.00814114
0.0081368
-0.00665699
-0.00667168
-0.00665314
-0.00662775
-0.00657699
-0.00651289
-0.00642774
-0.00632654
-0.00620644
-0.00606948
-0.00591489
-0.00574361
-0.00555576
-0.00535196
-0.00513269
-0.00489854
-0.00465016
-0.00438819
-0.00411333
-0.00382629
-0.00352779
-0.00321856
-0.00289931
-0.00257075
-0.00223359
-0.00188849
-0.00153613
-0.00117715
-0.000812172
-0.000441804
-6.6641e-05
0.000312733
0.000695738
0.00108179
0.0014703
0.00186064
0.00225219
0.00264425
0.00303608
0.00342687
0.00381574
0.00420168
0.00458356
0.00496014
0.00532999
0.00569153
0.00604296
0.0063823
0.00670739
0.00701575
0.00730506
0.00757212
0.00781511
0.00802946
0.00821551
0.00836561
0.00848578
0.00856117
0.00861106
0.00860673
-0.00702106
-0.00703728
-0.00701813
-0.00699213
-0.00693927
-0.00687255
-0.0067836
-0.00667785
-0.00655216
-0.00640874
-0.00624673
-0.00606717
-0.00587014
-0.00565634
-0.00542628
-0.00518061
-0.00492003
-0.00464524
-0.004357
-0.00405608
-0.00374326
-0.00341931
-0.00308499
-0.00274107
-0.00238826
-0.00202728
-0.0016588
-0.00128348
-0.000901943
-0.000514796
-0.000122618
0.000274027
0.000674585
0.00107851
0.00148523
0.00189419
0.00230479
0.00271638
0.00312828
0.00353971
0.00394983
0.00435766
0.0047621
0.00516191
0.00555562
0.00594161
0.00631799
0.00668264
0.00703321
0.00736694
0.00768124
0.00797245
0.00823841
0.00847387
0.00867891
0.00884489
0.00897808
0.00906201
0.00911753
0.00911327
-0.00740499
-0.00742293
-0.00740322
-0.00737678
-0.00732186
-0.00725257
-0.00715977
-0.00704933
-0.00691781
-0.00676761
-0.00659778
-0.00640942
-0.00620266
-0.00597822
-0.00573668
-0.00547874
-0.00520518
-0.00491677
-0.00461434
-0.00429872
-0.00397076
-0.00363128
-0.00328112
-0.00292107
-0.00255189
-0.00217431
-0.00178905
-0.00139675
-0.000998056
-0.000593548
-0.000183793
0.00023067
0.00064932
0.00107165
0.00149714
0.00192529
0.00235554
0.00278732
0.00322
0.00365287
0.00408514
0.0045159
0.00494409
0.00536847
0.00578759
0.00619981
0.00660314
0.00699535
0.00737389
0.00773575
0.00807797
0.00839642
0.00868849
0.00894817
0.00917516
0.00935962
0.00950805
0.00960204
0.0096642
0.00966009
-0.00781162
-0.00783163
-0.00781129
-0.00778438
-0.00772719
-0.0076551
-0.00755812
-0.00744265
-0.00730491
-0.00714747
-0.0069693
-0.00677156
-0.0065544
-0.0063186
-0.0060648
-0.00579378
-0.00550637
-0.00520345
-0.00488593
-0.00455472
-0.00421073
-0.00385488
-0.00348803
-0.00311105
-0.00272474
-0.00232985
-0.00192712
-0.00151721
-0.00110075
-0.000678314
-0.000250445
0.000182349
0.000619589
0.00106081
0.00150557
0.00195341
0.00240386
0.00285641
0.00331052
0.00376557
0.00422084
0.0046755
0.00512856
0.00557885
0.00602495
0.00646521
0.0068976
0.00731979
0.00772906
0.00812211
0.00849561
0.00884491
0.00916684
0.00945449
0.00970707
0.00991328
0.0100797
0.0101857
0.0102558
0.0102519
-0.00823942
-0.0082617
-0.00824093
-0.00821389
-0.0081547
-0.00808008
-0.00797904
-0.00785853
-0.00771437
-0.00754939
-0.0073624
-0.00715472
-0.00692646
-0.00667852
-0.0064116
-0.00612658
-0.00582438
-0.00550598
-0.00517238
-0.00482459
-0.00446362
-0.00409045
-0.00370604
-0.00331128
-0.00290703
-0.0024941
-0.00207321
-0.00164504
-0.00121022
-0.000769314
-0.000322826
0.000128771
0.000585048
0.0010456
0.00151005
0.00197801
0.00244911
0.00292293
0.00339903
0.0038769
0.00435592
0.00483537
0.00531437
0.00579185
0.00626646
0.00673659
0.00720022
0.00765495
0.0080979
0.00852551
0.00893408
0.00931834
0.00967451
0.00999458
0.0102771
0.010509
0.010697
0.0108174
0.010897
0.0108935
-0.00869416
-0.00871927
-0.00869787
-0.00867055
-0.00860886
-0.00853124
-0.00842557
-0.0082995
-0.00814836
-0.00797522
-0.00777875
-0.00756035
-0.00732018
-0.00705918
-0.00677817
-0.0064781
-0.00616004
-0.00582506
-0.00547429
-0.00510884
-0.00472984
-0.00433835
-0.0039354
-0.00352196
-0.00309895
-0.00266719
-0.00222744
-0.00178038
-0.00132663
-0.000866725
-0.000401151
6.96723e-05
0.000545372
0.00102561
0.0015101
0.00199853
0.00249064
0.00298612
0.00348465
0.00398585
0.00448925
0.00499427
0.00550016
0.00600601
0.00651059
0.0070124
0.00750947
0.00799943
0.00847924
0.00894519
0.00939313
0.00981722
0.0102129
0.010571
0.010889
0.0111518
0.0113657
0.0115037