/*--------------------------------*- C++ -*----------------------------------*\
| =========                 |                                                 |
| \\      /  F ield         | OpenFOAM: The Open Source CFD Toolbox           |
|  \\    /   O peration     | Version:  2406                                  |
|   \\  /    A nd           | Website:  www.openfoam.com                      |
|    \\/     M anipulation  |                                                 |
\*---------------------------------------------------------------------------*/
FoamFile
{
    version     2.0;
    format      ascii;
    arch        "LSB;label=32;scalar=64";
    class       surfaceScalarField;
    location    "1.6";
    object      phi;
}
// * * * * * * * * * * * * * * * * * * * * * * * * * * * * * * * * * * * * * //

dimensions      [0 3 -1 0 0 0 0];

oriented        oriented;

internalField   nonuniform List<scalar> 
28560
(
2.66437e-09
-2.66504e-09
-2.17039e-10
3.0743e-09
-1.01134e-08
9.94836e-09
-2.63051e-08
1.64676e-08
-4.71179e-08
2.09905e-08
-7.09455e-08
2.41627e-08
-9.66349e-08
2.59552e-08
-1.23268e-07
2.69882e-08
-1.50368e-07
2.74075e-08
-1.77571e-07
2.75562e-08
-2.04752e-07
2.75051e-08
-2.31802e-07
2.73977e-08
-2.58716e-07
2.72422e-08
-2.85463e-07
2.70866e-08
-3.12053e-07
2.69192e-08
-3.38475e-07
2.67545e-08
-3.6473e-07
2.65811e-08
-3.90806e-07
2.64039e-08
-4.167e-07
2.6216e-08
-4.42398e-07
2.60195e-08
-4.67891e-07
2.58108e-08
-4.93167e-07
2.55909e-08
-5.18213e-07
2.5358e-08
-5.43017e-07
2.51126e-08
-5.67565e-07
2.48536e-08
-5.91845e-07
2.45813e-08
-6.15842e-07
2.4295e-08
-6.39543e-07
2.39947e-08
-6.62933e-07
2.368e-08
-6.85998e-07
2.33509e-08
-7.08724e-07
2.3007e-08
-7.31096e-07
2.26482e-08
-7.53098e-07
2.22742e-08
-7.74716e-07
2.18849e-08
-7.95935e-07
2.14801e-08
-8.16739e-07
2.10595e-08
-8.37111e-07
2.0623e-08
-8.57037e-07
2.01704e-08
-8.765e-07
1.97015e-08
-8.95484e-07
1.92162e-08
-9.13972e-07
1.87142e-08
-9.31948e-07
1.81954e-08
-9.49395e-07
1.76597e-08
-9.66297e-07
1.71069e-08
-9.82635e-07
1.65368e-08
-9.98394e-07
1.59495e-08
-1.01355e-06
1.53446e-08
-1.0281e-06
1.47223e-08
-1.04202e-06
1.40823e-08
-1.05528e-06
1.34247e-08
-1.06788e-06
1.27494e-08
-1.07979e-06
1.20564e-08
-1.09101e-06
1.13458e-08
-1.1015e-06
1.06175e-08
-1.11126e-06
9.87176e-09
-1.12026e-06
9.10855e-09
-1.12849e-06
8.32805e-09
-1.13594e-06
7.53045e-09
-1.14258e-06
6.71596e-09
-1.1484e-06
5.88483e-09
-1.15338e-06
5.03736e-09
-1.15751e-06
4.17389e-09
-1.16077e-06
3.2948e-09
-1.16314e-06
2.40053e-09
-1.16462e-06
1.49156e-09
-1.16519e-06
5.6841e-10
-1.16483e-06
-3.68326e-10
-1.16354e-06
-1.31802e-09
-1.16129e-06
-2.27997e-09
-1.15808e-06
-3.25344e-09
-1.1539e-06
-4.23764e-09
-1.14874e-06
-5.23169e-09
-1.14259e-06
-6.23468e-09
-1.13543e-06
-7.24565e-09
-1.12728e-06
-8.26357e-09
-1.11811e-06
-9.28734e-09
-1.10792e-06
-1.03158e-08
-1.09672e-06
-1.13479e-08
-1.08449e-06
-1.23822e-08
-1.07124e-06
-1.34175e-08
-1.05697e-06
-1.44524e-08
-1.04167e-06
-1.54855e-08
-1.02536e-06
-1.65155e-08
-1.00804e-06
-1.75408e-08
-9.89705e-07
-1.85599e-08
-9.70374e-07
-1.95712e-08
-9.50054e-07
-2.05732e-08
-9.28754e-07
-2.15643e-08
-9.06487e-07
-2.25429e-08
-8.83267e-07
-2.35072e-08
-8.5911e-07
-2.44557e-08
-8.34033e-07
-2.53867e-08
-8.08055e-07
-2.62985e-08
-7.81196e-07
-2.71896e-08
-7.53479e-07
-2.80583e-08
-7.24927e-07
-2.8903e-08
-6.95566e-07
-2.97224e-08
-6.65421e-07
-3.05145e-08
-6.34522e-07
-3.12787e-08
-6.02897e-07
-3.20128e-08
-5.70577e-07
-3.27171e-08
-5.37591e-07
-3.33888e-08
-5.03974e-07
-3.40302e-08
-4.69753e-07
-3.46372e-08
-4.34967e-07
-3.52157e-08
-3.99637e-07
-3.57574e-08
-3.63809e-07
-3.6273e-08
-3.27501e-07
-3.67404e-08
-2.90791e-07
-3.71702e-08
-2.53725e-07
-3.74978e-08
-2.16487e-07
-3.77123e-08
-1.79263e-07
-3.76361e-08
-1.42549e-07
-3.71952e-08
-1.06932e-07
-3.59754e-08
-7.35736e-08
-3.38236e-08
-4.38647e-08
-2.99515e-08
-1.99176e-08
-2.43518e-08
-3.99248e-09
-1.59915e-08
2.32679e-09
-6.62728e-09
2.32557e-09
-3.07903e-09
2.20419e-10
-1.94143e-08
1.94108e-08
-5.03865e-08
4.05249e-08
-9.43276e-08
6.01547e-08
-1.48621e-07
7.47419e-08
-2.10137e-07
8.52211e-08
-2.76503e-07
9.16991e-08
-3.45652e-07
9.55741e-08
-4.16358e-07
9.7466e-08
-4.87675e-07
9.82684e-08
-5.59162e-07
9.83473e-08
-6.30483e-07
9.81007e-08
-7.01524e-07
9.76482e-08
-7.72179e-07
9.7123e-08
-8.42423e-07
9.65382e-08
-9.12211e-07
9.59282e-08
-9.81526e-07
9.52817e-08
-1.05033e-06
9.46056e-08
-1.11861e-06
9.38896e-08
-1.18633e-06
9.31352e-08
-1.25345e-06
9.23361e-08
-1.31994e-06
9.14926e-08
-1.38576e-06
9.06016e-08
-1.45089e-06
8.96628e-08
-1.51528e-06
8.86746e-08
-1.5789e-06
8.76366e-08
-1.64171e-06
8.65477e-08
-1.70368e-06
8.54075e-08
-1.76475e-06
8.42153e-08
-1.82491e-06
8.29705e-08
-1.8841e-06
8.16726e-08
-1.94229e-06
8.0321e-08
-1.99944e-06
7.89153e-08
-2.05551e-06
7.74549e-08
-2.11046e-06
7.59393e-08
-2.16424e-06
7.43681e-08
-2.21683e-06
7.27408e-08
-2.26818e-06
7.10569e-08
-2.31824e-06
6.9316e-08
-2.36697e-06
6.75178e-08
-2.41435e-06
6.56618e-08
-2.46031e-06
6.37477e-08
-2.50482e-06
6.17751e-08
-2.54785e-06
5.97439e-08
-2.58934e-06
5.76536e-08
-2.62925e-06
5.55041e-08
-2.66754e-06
5.32954e-08
-2.70418e-06
5.10272e-08
-2.73911e-06
4.86995e-08
-2.7723e-06
4.63125e-08
-2.8037e-06
4.38661e-08
-2.83327e-06
4.13605e-08
-2.86097e-06
3.87961e-08
-2.88676e-06
3.61732e-08
-2.9106e-06
3.34922e-08
-2.93245e-06
3.07536e-08
-2.95226e-06
2.79582e-08
-2.97e-06
2.51068e-08
-2.98563e-06
2.22001e-08
-2.99911e-06
1.92393e-08
-3.0104e-06
1.62255e-08
-3.01947e-06
1.316e-08
-3.02629e-06
1.00443e-08
-3.03082e-06
6.87991e-09
-3.03302e-06
3.66865e-09
-3.03287e-06
4.12428e-10
-3.03033e-06
-2.88668e-09
-3.02539e-06
-6.22641e-09
-3.018e-06
-9.60434e-09
-3.00816e-06
-1.30179e-08
-2.99583e-06
-1.64642e-08
-2.98099e-06
-1.99404e-08
-2.96363e-06
-2.34433e-08
-2.94374e-06
-2.69695e-08
-2.92129e-06
-3.05157e-08
-2.89628e-06
-3.4078e-08
-2.86871e-06
-3.76526e-08
-2.83856e-06
-4.12355e-08
-2.80583e-06
-4.48225e-08
-2.77053e-06
-4.84092e-08
-2.73266e-06
-5.19911e-08
-2.69222e-06
-5.55635e-08
-2.64924e-06
-5.91217e-08
-2.60372e-06
-6.26606e-08
-2.55568e-06
-6.61753e-08
-2.50514e-06
-6.96605e-08
-2.45213e-06
-7.31111e-08
-2.39669e-06
-7.65217e-08
-2.33883e-06
-7.98869e-08
-2.2786e-06
-8.32012e-08
-2.21604e-06
-8.64593e-08
-2.1512e-06
-8.96556e-08
-2.08411e-06
-9.27848e-08
-2.01485e-06
-9.58413e-08
-1.94345e-06
-9.882e-08
-1.86998e-06
-1.01715e-07
-1.79451e-06
-1.04523e-07
-1.7171e-06
-1.07237e-07
-1.63782e-06
-1.09854e-07
-1.55674e-06
-1.12368e-07
-1.47394e-06
-1.14778e-07
-1.3895e-06
-1.17077e-07
-1.3035e-06
-1.19268e-07
-1.21601e-06
-1.21343e-07
-1.12713e-06
-1.23306e-07
-1.03693e-06
-1.25143e-07
-9.45544e-07
-1.26856e-07
-8.53054e-07
-1.28394e-07
-7.59681e-07
-1.29727e-07
-6.65639e-07
-1.30682e-07
-5.71435e-07
-1.31108e-07
-4.77678e-07
-1.30524e-07
-3.85606e-07
-1.2851e-07
-2.9673e-07
-1.24004e-07
-2.13647e-07
-1.16283e-07
-1.39252e-07
-1.03585e-07
-7.76463e-08
-8.56011e-08
-3.23721e-08
-6.06703e-08
-6.5907e-09
-3.2407e-08
-3.95756e-09
-1.00476e-08
1.02117e-08
-4.08066e-08
5.0566e-08
-9.20583e-08
9.17723e-08
-1.60372e-07
1.28907e-07
-2.4261e-07
1.57219e-07
-3.34635e-07
1.77735e-07
-4.33472e-07
1.90918e-07
-5.36349e-07
1.98963e-07
-6.41598e-07
2.03165e-07
-7.47882e-07
2.05066e-07
-8.5453e-07
2.05471e-07
-9.61026e-07
2.05102e-07
-1.06716e-06
2.04264e-07
-1.17275e-06
2.03206e-07
-1.27772e-06
2.01995e-07
-1.382e-06
2.00696e-07
-1.48555e-06
1.99306e-07
-1.5883e-06
1.97838e-07
-1.69022e-06
1.9628e-07
-1.79124e-06
1.94632e-07
-1.89133e-06
1.92888e-07
-1.99042e-06
1.91046e-07
-2.08846e-06
1.89101e-07
-2.1854e-06
1.87054e-07
-2.28118e-06
1.84901e-07
-2.37574e-06
1.82642e-07
-2.46903e-06
1.80275e-07
-2.56099e-06
1.77799e-07
-2.65157e-06
1.75214e-07
-2.74069e-06
1.72518e-07
-2.82832e-06
1.6971e-07
-2.91438e-06
1.6679e-07
-2.99882e-06
1.63757e-07
-3.08159e-06
1.60609e-07
-3.16261e-06
1.57348e-07
-3.24184e-06
1.53971e-07
-3.31921e-06
1.50478e-07
-3.39466e-06
1.46869e-07
-3.46813e-06
1.43142e-07
-3.53957e-06
1.39298e-07
-3.60891e-06
1.35336e-07
-3.6761e-06
1.31255e-07
-3.74107e-06
1.27055e-07
-3.80376e-06
1.22736e-07
-3.86411e-06
1.18297e-07
-3.92206e-06
1.13739e-07
-3.97756e-06
1.09061e-07
-4.03054e-06
1.04264e-07
-4.08094e-06
9.93481e-08
-4.1287e-06
9.4313e-08
-4.17377e-06
8.91595e-08
-4.21609e-06
8.38882e-08
-4.2556e-06
7.85e-08
-4.29224e-06
7.2996e-08
-4.32595e-06
6.73771e-08
-4.35669e-06
6.16449e-08
-4.38439e-06
5.58009e-08
-4.409e-06
4.9847e-08
-4.43047e-06
4.37852e-08
-4.44875e-06
3.76178e-08
-4.46379e-06
3.13474e-08
-4.47554e-06
2.49767e-08
-4.48396e-06
1.8509e-08
-4.48899e-06
1.19477e-08
-4.4906e-06
5.29645e-09
-4.48874e-06
-1.4407e-09
-4.48338e-06
-8.2594e-09
-4.47449e-06
-1.5155e-08
-4.46202e-06
-2.21224e-08
-4.44595e-06
-2.91563e-08
-4.42624e-06
-3.62509e-08
-4.40288e-06
-4.34003e-08
-4.37585e-06
-5.05981e-08
-4.34511e-06
-5.78374e-08
-4.31067e-06
-6.51113e-08
-4.27251e-06
-7.24122e-08
-4.23062e-06
-7.97324e-08
-4.185e-06
-8.70639e-08
-4.13566e-06
-9.43981e-08
-4.08258e-06
-1.01726e-07
-4.0258e-06
-1.0904e-07
-3.96532e-06
-1.16329e-07
-3.90115e-06
-1.23584e-07
-3.83334e-06
-1.30795e-07
-3.76189e-06
-1.37953e-07
-3.68686e-06
-1.45047e-07
-3.60828e-06
-1.52066e-07
-3.52619e-06
-1.59001e-07
-3.44064e-06
-1.65839e-07
-3.35169e-06
-1.72572e-07
-3.2594e-06
-1.79187e-07
-3.16384e-06
-1.85675e-07
-3.06507e-06
-1.92024e-07
-2.96318e-06
-1.98223e-07
-2.85824e-06
-2.04262e-07
-2.75034e-06
-2.10131e-07
-2.63957e-06
-2.15821e-07
-2.52603e-06
-2.21319e-07
-2.40982e-06
-2.2662e-07
-2.29105e-06
-2.31711e-07
-2.16982e-06
-2.36589e-07
-2.04625e-06
-2.41243e-07
-1.92046e-06
-2.45671e-07
-1.79255e-06
-2.4986e-07
-1.66268e-06
-2.53813e-07
-1.53095e-06
-2.57499e-07
-1.39756e-06
-2.60904e-07
-1.26266e-06
-2.63929e-07
-1.12659e-06
-2.66473e-07
-9.89692e-07
-2.68212e-07
-8.52719e-07
-2.68772e-07
-7.16564e-07
-2.67285e-07
-5.82955e-07
-2.62816e-07
-4.53933e-07
-2.53547e-07
-3.32954e-07
-2.37941e-07
-2.2363e-07
-2.13243e-07
-1.31317e-07
-1.78543e-07
-6.02031e-08
-1.31789e-07
-1.57871e-08
-7.74172e-08
-1.9683e-08
-1.67418e-08
2.66743e-08
-6.09668e-08
9.50529e-08
-1.30163e-07
1.60526e-07
-2.18908e-07
2.17655e-07
-3.2365e-07
2.61567e-07
-4.39568e-07
2.93477e-07
-5.63467e-07
3.14431e-07
-6.92176e-07
3.274e-07
-8.23826e-07
3.34435e-07
-9.56827e-07
3.3775e-07
-1.09037e-06
3.38644e-07
-1.2238e-06
3.38196e-07
-1.35683e-06
3.36932e-07
-1.4892e-06
3.35238e-07
-1.62081e-06
3.33254e-07
-1.75154e-06
3.31085e-07
-1.88132e-06
3.28746e-07
-2.01008e-06
3.26257e-07
-2.13775e-06
3.23609e-07
-2.26425e-06
3.20803e-07
-2.38953e-06
3.17831e-07
-2.5135e-06
3.14692e-07
-2.63611e-06
3.1138e-07
-2.75727e-06
3.07895e-07
-2.87692e-06
3.04232e-07
-2.99499e-06
3.00392e-07
-3.1114e-06
2.96372e-07
-3.22607e-06
2.92171e-07
-3.33895e-06
2.87787e-07
-3.44995e-06
2.8322e-07
-3.559e-06
2.78469e-07
-3.66604e-06
2.73532e-07
-3.77097e-06
2.68409e-07
-3.87374e-06
2.63099e-07
-3.97427e-06
2.57601e-07
-4.07248e-06
2.51915e-07
-4.1683e-06
2.46039e-07
-4.26166e-06
2.39973e-07
-4.35249e-06
2.33717e-07
-4.4407e-06
2.27269e-07
-4.52623e-06
2.20631e-07
-4.60901e-06
2.138e-07
-4.68895e-06
2.06778e-07
-4.766e-06
1.99564e-07
-4.84007e-06
1.92158e-07
-4.91109e-06
1.84561e-07
-4.97899e-06
1.76772e-07
-5.0437e-06
1.68792e-07
-5.10515e-06
1.60622e-07
-5.16327e-06
1.52264e-07
-5.21799e-06
1.43717e-07
-5.26923e-06
1.34984e-07
-5.31694e-06
1.26066e-07
-5.36104e-06
1.16966e-07
-5.40147e-06
1.07684e-07
-5.43816e-06
9.82248e-08
-5.47105e-06
8.85902e-08
-5.50008e-06
7.87837e-08
-5.52518e-06
6.88088e-08
-5.5463e-06
5.86695e-08
-5.56339e-06
4.83703e-08
-5.57637e-06
3.7916e-08
-5.58521e-06
2.73118e-08
-5.58986e-06
1.65635e-08
-5.59025e-06
5.67723e-09
-5.58635e-06
-5.34033e-09
-5.57812e-06
-1.6482e-08
-5.56552e-06
-2.77401e-08
-5.5485e-06
-3.91065e-08
-5.52704e-06
-5.05724e-08
-5.5011e-06
-6.21287e-08
-5.47067e-06
-7.37654e-08
-5.43571e-06
-8.54723e-08
-5.39621e-06
-9.72385e-08
-5.35216e-06
-1.09053e-07
-5.30355e-06
-1.20903e-07
-5.25037e-06
-1.32777e-07
-5.19263e-06
-1.44661e-07
-5.13032e-06
-1.56543e-07
-5.06347e-06
-1.68408e-07
-4.99208e-06
-1.80242e-07
-4.91618e-06
-1.92031e-07
-4.83579e-06
-2.03758e-07
-4.75096e-06
-2.15409e-07
-4.66171e-06
-2.26967e-07
-4.56809e-06
-2.38417e-07
-4.47015e-06
-2.49742e-07
-4.36795e-06
-2.60925e-07
-4.26156e-06
-2.71949e-07
-4.15103e-06
-2.82798e-07
-4.03646e-06
-2.93454e-07
-3.91791e-06
-3.03901e-07
-3.79548e-06
-3.14121e-07
-3.66926e-06
-3.24098e-07
-3.53936e-06
-3.33815e-07
-3.40587e-06
-3.43255e-07
-3.26891e-06
-3.52403e-07
-3.1286e-06
-3.61244e-07
-2.98507e-06
-3.69763e-07
-2.83843e-06
-3.77945e-07
-2.68883e-06
-3.8578e-07
-2.5364e-06
-3.93252e-07
-2.38129e-06
-4.00355e-07
-2.22364e-06
-4.07069e-07
-2.06363e-06
-4.13386e-07
-1.90142e-06
-4.1926e-07
-1.73723e-06
-4.24647e-07
-1.57129e-06
-4.29392e-07
-1.40403e-06
-4.33295e-07
-1.23589e-06
-4.35862e-07
-1.06779e-06
-4.36449e-07
-9.00799e-07
-4.33768e-07
-7.36945e-07
-4.26303e-07
-5.78509e-07
-4.11458e-07
-4.29418e-07
-3.86788e-07
-2.93534e-07
-3.48582e-07
-1.77011e-07
-2.95063e-07
-8.45018e-08
-2.23674e-07
-2.3904e-08
-1.38363e-07
-4.31859e-08
-2.15164e-08
4.80047e-08
-7.632e-08
1.50408e-07
-1.59907e-07
2.4386e-07
-2.64966e-07
3.2311e-07
-3.87402e-07
3.83998e-07
-5.21758e-07
4.28159e-07
-6.64699e-07
4.575e-07
-8.12801e-07
4.75798e-07
-9.64123e-07
4.85951e-07
-1.11694e-06
4.90844e-07
-1.27038e-06
4.92309e-07
-1.42371e-06
4.91793e-07
-1.5766e-06
4.9006e-07
-1.72875e-06
4.87644e-07
-1.88002e-06
4.84769e-07
-2.03027e-06
4.81584e-07
-2.17941e-06
4.78128e-07
-2.32734e-06
4.74432e-07
-2.47398e-06
4.7049e-07
-2.61925e-06
4.66308e-07
-2.76306e-06
4.61876e-07
-2.90532e-06
4.57194e-07
-3.04597e-06
4.52257e-07
-3.1849e-06
4.47061e-07
-3.32205e-06
4.41605e-07
-3.45732e-06
4.35888e-07
-3.59063e-06
4.29906e-07
-3.7219e-06
4.23659e-07
-3.85104e-06
4.17146e-07
-3.97798e-06
4.10364e-07
-4.10261e-06
4.03315e-07
-4.22487e-06
3.95996e-07
-4.34466e-06
3.88406e-07
-4.46191e-06
3.80545e-07
-4.57653e-06
3.72412e-07
-4.68843e-06
3.64007e-07
-4.79753e-06
3.55329e-07
-4.90376e-06
3.46378e-07
-5.00701e-06
3.37152e-07
-5.10722e-06
3.27653e-07
-5.2043e-06
3.17879e-07
-5.29817e-06
3.07831e-07
-5.38875e-06
2.9751e-07
-5.47594e-06
2.86914e-07
-5.55968e-06
2.76046e-07
-5.63989e-06
2.64905e-07
-5.71647e-06
2.53494e-07
-5.78936e-06
2.41812e-07
-5.85847e-06
2.29861e-07
-5.92374e-06
2.17644e-07
-5.98507e-06
2.05162e-07
-6.0424e-06
1.92417e-07
-6.09564e-06
1.79413e-07
-6.14474e-06
1.66153e-07
-6.18961e-06
1.5264e-07
-6.23019e-06
1.38879e-07
-6.2664e-06
1.24873e-07
-6.29818e-06
1.10627e-07
-6.32546e-06
9.61484e-08
-6.34818e-06
8.14416e-08
-6.36629e-06
6.65137e-08
-6.37971e-06
5.13717e-08
-6.3884e-06
3.60235e-08
-6.39229e-06
2.04774e-08
-6.39135e-06
4.74244e-09
-6.38552e-06
-1.11716e-08
-6.37476e-06
-2.72543e-08
-6.35902e-06
-4.34946e-08
-6.33827e-06
-5.98807e-08
-6.31248e-06
-7.64001e-08
-6.28161e-06
-9.30394e-08
-6.24564e-06
-1.09785e-07
-6.20455e-06
-1.26621e-07
-6.15833e-06
-1.43534e-07
-6.10696e-06
-1.60506e-07
-6.05043e-06
-1.7752e-07
-5.98874e-06
-1.9456e-07
-5.9219e-06
-2.11607e-07
-5.84992e-06
-2.28641e-07
-5.77281e-06
-2.45643e-07
-5.6906e-06
-2.62593e-07
-5.6033e-06
-2.7947e-07
-5.51096e-06
-2.96252e-07
-5.41361e-06
-3.12918e-07
-5.31131e-06
-3.29446e-07
-5.20409e-06
-3.45812e-07
-5.09203e-06
-3.61993e-07
-4.97519e-06
-3.77966e-07
-4.85363e-06
-3.93708e-07
-4.72745e-06
-4.09194e-07
-4.59673e-06
-4.24401e-07
-4.46156e-06
-4.39304e-07
-4.32204e-06
-4.53881e-07
-4.17828e-06
-4.68107e-07
-4.03039e-06
-4.81959e-07
-3.87849e-06
-4.95413e-07
-3.72272e-06
-5.08449e-07
-3.56319e-06
-5.21044e-07
-3.40006e-06
-5.33178e-07
-3.23347e-06
-5.44829e-07
-3.06356e-06
-5.55981e-07
-2.8905e-06
-5.66613e-07
-2.71446e-06
-5.76712e-07
-2.53559e-06
-5.86249e-07
-2.35409e-06
-5.95203e-07
-2.17016e-06
-6.03509e-07
-1.98406e-06
-6.11085e-07
-1.79605e-06
-6.17716e-07
-1.60661e-06
-6.23089e-07
-1.41624e-06
-6.26531e-07
-1.22596e-06
-6.27103e-07
-1.0369e-06
-6.23088e-07
-8.5126e-07
-6.12346e-07
-6.71395e-07
-5.91501e-07
-5.01523e-07
-5.57105e-07
-3.45655e-07
-5.04454e-07
-2.10669e-07
-4.30593e-07
-1.01839e-07
-3.32181e-07
-2.92443e-08
-2.11711e-07
-7.2195e-08
-2.49713e-08
7.2632e-08
-8.7684e-08
2.13595e-07
-1.82114e-07
3.37787e-07
-2.99467e-07
4.40652e-07
-4.35106e-07
5.19305e-07
-5.83044e-07
5.76102e-07
-7.39847e-07
6.14044e-07
-9.01929e-07
6.37789e-07
-1.06734e-06
6.51137e-07
-1.23428e-06
6.5765e-07
-1.40188e-06
6.59705e-07
-1.56936e-06
6.59106e-07
-1.73636e-06
6.56869e-07
-1.90255e-06
6.53669e-07
-2.06779e-06
6.49821e-07
-2.2319e-06
6.45519e-07
-2.39478e-06
6.40829e-07
-2.55631e-06
6.35793e-07
-2.71641e-06
6.30415e-07
-2.87498e-06
6.247e-07
-3.03191e-06
6.18643e-07
-3.18713e-06
6.12242e-07
-3.34054e-06
6.05493e-07
-3.49203e-06
5.98394e-07
-3.64153e-06
5.90942e-07
-3.78894e-06
5.83135e-07
-3.93417e-06
5.74972e-07
-4.07712e-06
5.66451e-07
-4.2177e-06
5.57572e-07
-4.35583e-06
5.48334e-07
-4.4914e-06
5.38735e-07
-4.62433e-06
5.28775e-07
-4.75452e-06
5.18453e-07
-4.88189e-06
5.07769e-07
-5.00634e-06
4.96722e-07
-5.12778e-06
4.85312e-07
-5.24612e-06
4.73538e-07
-5.36128e-06
4.61402e-07
-5.47316e-06
4.48901e-07
-5.58167e-06
4.36038e-07
-5.68672e-06
4.22812e-07
-5.78823e-06
4.09224e-07
-5.88611e-06
3.95274e-07
-5.98027e-06
3.80964e-07
-6.07063e-06
3.66294e-07
-6.15709e-06
3.51267e-07
-6.23958e-06
3.35883e-07
-6.31801e-06
3.20145e-07
-6.39229e-06
3.04056e-07
-6.46235e-06
2.87618e-07
-6.52811e-06
2.70834e-07
-6.58947e-06
2.53709e-07
-6.64638e-06
2.36245e-07
-6.69874e-06
2.18449e-07
-6.74649e-06
2.00324e-07
-6.78954e-06
1.81877e-07
-6.82784e-06
1.63114e-07
-6.8613e-06
1.44042e-07
-6.88986e-06
1.24668e-07
-6.91345e-06
1.05001e-07
-6.93202e-06
8.50499e-08
-6.9455e-06
6.48241e-08
-6.95383e-06
4.43343e-08
-6.95696e-06
2.35919e-08
-6.95483e-06
2.60886e-09
-6.9474e-06
-1.86016e-08
-6.93462e-06
-4.00257e-08
-6.91646e-06
-6.16486e-08
-6.89287e-06
-8.34547e-08
-6.86382e-06
-1.05427e-07
-6.82928e-06
-1.27549e-07
-6.78923e-06
-1.498e-07
-6.74364e-06
-1.72163e-07
-6.69251e-06
-1.94616e-07
-6.63582e-06
-2.17139e-07
-6.57357e-06
-2.39708e-07
-6.50576e-06
-2.62302e-07
-6.4324e-06
-2.84895e-07
-6.35349e-06
-3.07463e-07
-6.26907e-06
-3.2998e-07
-6.17915e-06
-3.52419e-07
-6.08376e-06
-3.74754e-07
-5.98295e-06
-3.96957e-07
-5.87675e-06
-4.18998e-07
-5.76523e-06
-4.40849e-07
-5.64843e-06
-4.6248e-07
-5.52643e-06
-4.83861e-07
-5.39929e-06
-5.04961e-07
-5.26711e-06
-5.25749e-07
-5.12995e-06
-5.46195e-07
-4.98793e-06
-5.66267e-07
-4.84113e-06
-5.85935e-07
-4.68968e-06
-6.05167e-07
-4.53367e-06
-6.23932e-07
-4.37325e-06
-6.42201e-07
-4.20854e-06
-6.59943e-07
-4.03966e-06
-6.77129e-07
-3.86678e-06
-6.9373e-07
-3.69004e-06
-7.0972e-07
-3.50959e-06
-7.25071e-07
-3.3256e-06
-7.3976e-07
-3.13824e-06
-7.53758e-07
-2.94769e-06
-7.67045e-07
-2.75413e-06
-7.79582e-07
-2.55778e-06
-7.91334e-07
-2.35884e-06
-8.02213e-07
-2.1576e-06
-8.12099e-07
-1.95436e-06
-8.2071e-07
-1.74962e-06
-8.27621e-07
-1.5439e-06
-8.31975e-07
-1.33829e-06
-8.32535e-07
-1.13392e-06
-8.27161e-07
-9.33063e-07
-8.13075e-07
-7.38099e-07
-7.8612e-07
-5.53421e-07
-7.41781e-07
-3.83151e-07
-6.74281e-07
-2.34748e-07
-5.79234e-07
-1.14102e-07
-4.52158e-07
-3.2923e-08
-2.93501e-07
-1.04659e-07
-2.70565e-08
9.94088e-08
-9.51012e-08
2.82282e-07
-1.97126e-07
4.39409e-07
-3.23272e-07
5.67194e-07
-4.68404e-07
6.64296e-07
-6.26081e-07
7.34039e-07
-7.92745e-07
7.80703e-07
-9.6468e-07
8.09919e-07
-1.13994e-06
8.26458e-07
-1.31669e-06
8.34567e-07
-1.49407e-06
8.37185e-07
-1.67129e-06
8.36469e-07
-1.84799e-06
8.33683e-07
-2.02383e-06
8.29645e-07
-2.19864e-06
8.24757e-07
-2.37226e-06
8.19261e-07
-2.54456e-06
8.13249e-07
-2.71541e-06
8.06778e-07
-2.88473e-06
7.99857e-07
-3.05241e-06
7.92496e-07
-3.21833e-06
7.84691e-07
-3.38241e-06
7.76441e-07
-3.54455e-06
7.67744e-07
-3.70463e-06
7.58597e-07
-3.86257e-06
7.48999e-07
-4.01827e-06
7.38947e-07
-4.17162e-06
7.2844e-07
-4.32254e-06
7.17478e-07
-4.47092e-06
7.0606e-07
-4.61666e-06
6.94184e-07
-4.75967e-06
6.81851e-07
-4.89985e-06
6.6906e-07
-5.0371e-06
6.5581e-07
-5.17133e-06
6.42102e-07
-5.30245e-06
6.27935e-07
-5.43035e-06
6.1331e-07
-5.55494e-06
5.98227e-07
-5.67614e-06
5.82686e-07
-5.79383e-06
5.66687e-07
-5.90794e-06
5.50232e-07
-6.01836e-06
5.33322e-07
-6.12501e-06
5.15957e-07
-6.2278e-06
4.98139e-07
-6.32662e-06
4.7987e-07
-6.42141e-06
4.61152e-07
-6.51205e-06
4.41986e-07
-6.59848e-06
4.22377e-07
-6.68059e-06
4.02326e-07
-6.75831e-06
3.81837e-07
-6.83155e-06
3.60915e-07
-6.90022e-06
3.39564e-07
-6.96425e-06
3.17788e-07
-7.02355e-06
2.95594e-07
-7.07804e-06
2.72988e-07
-7.12765e-06
2.49976e-07
-7.1723e-06
2.26566e-07
-7.21192e-06
2.02766e-07
-7.24643e-06
1.78585e-07
-7.27576e-06
1.54034e-07
-7.29986e-06
1.29122e-07
-7.31865e-06
1.03862e-07
-7.33208e-06
7.8265e-08
-7.34008e-06
5.23457e-08
-7.3426e-06
2.61181e-08
-7.33958e-06
-4.0234e-10
-7.33098e-06
-2.71992e-08
-7.31676e-06
-5.42548e-08
-7.29687e-06
-8.15505e-08
-7.27127e-06
-1.09067e-07
-7.23993e-06
-1.36782e-07
-7.20283e-06
-1.64675e-07
-7.15994e-06
-1.92722e-07
-7.11123e-06
-2.20898e-07
-7.05671e-06
-2.49179e-07
-6.99635e-06
-2.77537e-07
-6.93016e-06
-3.05945e-07
-6.85814e-06
-3.34374e-07
-6.7803e-06
-3.62794e-07
-6.69664e-06
-3.91173e-07
-6.60721e-06
-4.19481e-07
-6.51201e-06
-4.47683e-07
-6.4111e-06
-4.75745e-07
-6.3045e-06
-5.03634e-07
-6.19227e-06
-5.31314e-07
-6.07446e-06
-5.58747e-07
-5.95113e-06
-5.85898e-07
-5.82236e-06
-6.12729e-07
-5.68822e-06
-6.39202e-07
-5.5488e-06
-6.65279e-07
-5.40418e-06
-6.90921e-07
-5.25448e-06
-7.16089e-07
-5.09978e-06
-7.40746e-07
-4.94022e-06
-7.64853e-07
-4.77591e-06
-7.88371e-07
-4.60698e-06
-8.11264e-07
-4.43356e-06
-8.33492e-07
-4.25581e-06
-8.55021e-07
-4.07387e-06
-8.75815e-07
-3.88789e-06
-8.95838e-07
-3.69805e-06
-9.15058e-07
-3.50452e-06
-9.33444e-07
-3.30748e-06
-9.50959e-07
-3.10711e-06
-9.67575e-07
-2.9036e-06
-9.83242e-07
-2.69719e-06
-9.97911e-07
-2.48809e-06
-1.01147e-06
-2.27661e-06
-1.02376e-06
-2.06304e-06
-1.03443e-06
-1.84792e-06
-1.04294e-06
-1.63176e-06
-1.04827e-06
-1.41565e-06
-1.04886e-06
-1.20073e-06
-1.04216e-06
-9.89321e-07
-1.02475e-06
-7.83784e-07
-9.91659e-07
-5.88667e-07
-9.37244e-07
-4.08233e-07
-8.54543e-07
-2.50443e-07
-7.37544e-07
-1.2175e-07
-5.80342e-07
-3.49964e-08
-3.81093e-07
-1.39306e-07
-2.8367e-08
1.27406e-07
-9.99018e-08
3.54408e-07
-2.07018e-07
5.45989e-07
-3.39177e-07
6.99642e-07
-4.90844e-07
8.15657e-07
-6.55233e-07
8.98528e-07
-8.28665e-07
9.53935e-07
-1.00732e-06
9.88579e-07
-1.18926e-06
1.00824e-06
-1.37262e-06
1.01789e-06
-1.55658e-06
1.02102e-06
-1.74032e-06
1.02014e-06
-1.9235e-06
1.01676e-06
-2.10578e-06
1.01184e-06
-2.28699e-06
1.00587e-06
-2.46695e-06
9.99129e-07
-2.64553e-06
9.9174e-07
-2.82261e-06
9.8377e-07
-2.99808e-06
9.75238e-07
-3.17183e-06
9.66156e-07
-3.34375e-06
9.56524e-07
-3.51374e-06
9.46343e-07
-3.68169e-06
9.35609e-07
-3.8475e-06
9.24322e-07
-4.01107e-06
9.1248e-07
-4.17229e-06
9.00083e-07
-4.33106e-06
8.87128e-07
-4.48728e-06
8.73616e-07
-4.64085e-06
8.59547e-07
-4.79166e-06
8.44919e-07
-4.93962e-06
8.29733e-07
-5.08463e-06
8.13989e-07
-5.22658e-06
7.97686e-07
-5.36538e-06
7.80826e-07
-5.50092e-06
7.63409e-07
-5.63312e-06
7.45435e-07
-5.76187e-06
7.26906e-07
-5.88707e-06
7.07821e-07
-6.00863e-06
6.88183e-07
-6.12646e-06
6.67993e-07
-6.24045e-06
6.47251e-07
-6.35051e-06
6.25961e-07
-6.45656e-06
6.04125e-07
-6.55849e-06
5.81744e-07
-6.65621e-06
5.58822e-07
-6.74964e-06
5.35362e-07
-6.83868e-06
5.11368e-07
-6.92325e-06
4.86844e-07
-7.00325e-06
4.61794e-07
-7.07861e-06
4.36225e-07
-7.14923e-06
4.10141e-07
-7.21503e-06
3.83549e-07
-7.27593e-06
3.56456e-07
-7.33184e-06
3.28871e-07
-7.3827e-06
3.00802e-07
-7.42842e-06
2.72257e-07
-7.46893e-06
2.43248e-07
-7.50416e-06
2.13786e-07
-7.53403e-06
1.83883e-07
-7.55848e-06
1.53552e-07
-7.57744e-06
1.22807e-07
-7.59085e-06
9.16638e-08
-7.59865e-06
6.01386e-08
-7.60079e-06
2.8249e-08
-7.59721e-06
-3.98603e-09
-7.58786e-06
-3.65465e-08
-7.5727e-06
-6.94111e-08
-7.55169e-06
-1.02557e-07
-7.52479e-06
-1.35961e-07
-7.49196e-06
-1.69596e-07
-7.45318e-06
-2.03437e-07
-7.40843e-06
-2.37456e-07
-7.35769e-06
-2.71623e-07
-7.30093e-06
-3.05907e-07
-7.23817e-06
-3.40275e-07
-7.16938e-06
-3.74696e-07
-7.09459e-06
-4.09133e-07
-7.01379e-06
-4.43552e-07
-6.92701e-06
-4.77913e-07
-6.83427e-06
-5.1218e-07
-6.73559e-06
-5.46312e-07
-6.63101e-06
-5.80269e-07
-6.52058e-06
-6.14008e-07
-6.40435e-06
-6.47488e-07
-6.28237e-06
-6.80664e-07
-6.15471e-06
-7.13493e-07
-6.02145e-06
-7.45929e-07
-5.88265e-06
-7.77927e-07
-5.73841e-06
-8.09442e-07
-5.58883e-06
-8.40427e-07
-5.434e-06
-8.70836e-07
-5.27404e-06
-9.00623e-07
-5.10907e-06
-9.29741e-07
-4.9392e-06
-9.58145e-07
-4.76458e-06
-9.85789e-07
-4.58535e-06
-1.01263e-06
-4.40166e-06
-1.03862e-06
-4.21365e-06
-1.06372e-06
-4.02149e-06
-1.08789e-06
-3.82536e-06
-1.11108e-06
-3.62543e-06
-1.13327e-06
-3.42189e-06
-1.15439e-06
-3.21493e-06
-1.17442e-06
-3.00475e-06
-1.1933e-06
-2.79159e-06
-1.21096e-06
-2.57567e-06
-1.22727e-06
-2.3573e-06
-1.24202e-06
-2.13678e-06
-1.25481e-06
-1.91465e-06
-1.26498e-06
-1.69142e-06
-1.27134e-06
-1.46819e-06
-1.27203e-06
-1.24609e-06
-1.26408e-06
-1.02743e-06
-1.24341e-06
-8.14608e-07
-1.20422e-06
-6.12283e-07
-1.13969e-06
-4.24859e-07
-1.04157e-06
-2.60679e-07
-9.02089e-07
-1.26638e-07
-7.13693e-07
-3.62842e-08
-4.72195e-07
-1.75114e-07
-2.90471e-08
1.56126e-07
-1.02694e-07
4.28734e-07
-2.13056e-07
6.55873e-07
-3.49184e-07
8.36165e-07
-5.05249e-07
9.71511e-07
-6.74199e-07
1.06771e-06
-8.5224e-07
1.1319e-06
-1.03546e-06
1.17195e-06
-1.2219e-06
1.19468e-06
-1.40971e-06
1.20581e-06
-1.59806e-06
1.20939e-06
-1.78613e-06
1.2083e-06
-1.97362e-06
1.20429e-06
-2.16015e-06
1.19846e-06
-2.34559e-06
1.19136e-06
-2.52973e-06
1.18334e-06
-2.71246e-06
1.17453e-06
-2.89365e-06
1.16502e-06
-3.07318e-06
1.15483e-06
-3.25094e-06
1.14398e-06
-3.42682e-06
1.13247e-06
-3.60072e-06
1.1203e-06
-3.77251e-06
1.10747e-06
-3.94211e-06
1.09398e-06
-4.1094e-06
1.07983e-06
-4.27427e-06
1.06502e-06
-4.43663e-06
1.04954e-06
-4.59637e-06
1.03341e-06
-4.75338e-06
1.01661e-06
-4.90755e-06
9.99153e-07
-5.0588e-06
9.81034e-07
-5.20701e-06
9.62255e-07
-5.35209e-06
9.42815e-07
-5.49393e-06
9.22717e-07
-5.63243e-06
9.01961e-07
-5.76749e-06
8.80548e-07
-5.89902e-06
8.58479e-07
-6.02691e-06
8.35757e-07
-6.15106e-06
8.12383e-07
-6.27139e-06
7.88359e-07
-6.38778e-06
7.63688e-07
-6.50015e-06
7.38372e-07
-6.6084e-06
7.12414e-07
-6.71243e-06
6.85818e-07
-6.81216e-06
6.58587e-07
-6.90749e-06
6.30726e-07
-6.99832e-06
6.02239e-07
-7.08458e-06
5.73132e-07
-7.16616e-06
5.43411e-07
-7.24299e-06
5.13082e-07
-7.31497e-06
4.82152e-07
-7.38203e-06
4.50629e-07
-7.44407e-06
4.18523e-07
-7.50102e-06
3.85842e-07
-7.55279e-06
3.52597e-07
-7.59931e-06
3.188e-07
-7.64051e-06
2.84462e-07
-7.67631e-06
2.49598e-07
-7.70663e-06
2.14221e-07
-7.73141e-06
1.78348e-07
-7.75059e-06
1.41995e-07
-7.7641e-06
1.05181e-07
-7.77188e-06
6.79248e-08
-7.77388e-06
3.02474e-08
-7.77003e-06
-7.82881e-09
-7.7603e-06
-4.62802e-08
-7.74463e-06
-8.50816e-08
-7.72299e-06
-1.24206e-07
-7.69533e-06
-1.63626e-07
-7.66163e-06
-2.03312e-07
-7.62185e-06
-2.43231e-07
-7.57597e-06
-2.83351e-07
-7.52397e-06
-3.23638e-07
-7.46584e-06
-3.64055e-07
-7.40157e-06
-4.04566e-07
-7.33116e-06
-4.45129e-07
-7.25462e-06
-4.85706e-07
-7.17194e-06
-5.26252e-07
-7.08316e-06
-5.66726e-07
-6.98829e-06
-6.07082e-07
-6.88737e-06
-6.47272e-07
-6.78043e-06
-6.87251e-07
-6.66751e-06
-7.26968e-07
-6.54866e-06
-7.66374e-07
-6.42396e-06
-8.05418e-07
-6.29345e-06
-8.44049e-07
-6.15721e-06
-8.82213e-07
-6.01534e-06
-9.19858e-07
-5.8679e-06
-9.56929e-07
-5.71501e-06
-9.93374e-07
-5.55677e-06
-1.02914e-06
-5.39329e-06
-1.06417e-06
-5.22468e-06
-1.09841e-06
-5.05109e-06
-1.1318e-06
-4.87264e-06
-1.16431e-06
-4.68948e-06
-1.19586e-06
-4.50176e-06
-1.22641e-06
-4.30964e-06
-1.25592e-06
-4.11329e-06
-1.28432e-06
-3.91287e-06
-1.31157e-06
-3.70858e-06
-1.33763e-06
-3.5006e-06
-1.36245e-06
-3.28914e-06
-1.38597e-06
-3.07439e-06
-1.40813e-06
-2.8566e-06
-1.42884e-06
-2.63598e-06
-1.44796e-06
-2.41287e-06
-1.46523e-06
-2.18755e-06
-1.4802e-06
-1.96055e-06
-1.49209e-06
-1.7324e-06
-1.49953e-06
-1.50418e-06
-1.50039e-06
-1.27701e-06
-1.49126e-06
-1.05323e-06
-1.46738e-06
-8.35251e-07
-1.42211e-06
-6.2785e-07
-1.3474e-06
-4.35569e-07
-1.23359e-06
-2.6705e-07
-1.07112e-06
-1.29517e-07
-8.50625e-07
-3.69446e-08
-5.65634e-07
-2.11649e-07
-2.9439e-08
1.85189e-07
-1.04369e-07
5.04308e-07
-2.1678e-07
7.67738e-07
-3.55498e-07
9.75221e-07
-5.14491e-07
1.13021e-06
-6.8652e-07
1.23989e-06
-8.67692e-07
1.3129e-06
-1.05402e-06
1.35833e-06
-1.24353e-06
1.38408e-06
-1.43435e-06
1.39663e-06
-1.62565e-06
1.40062e-06
-1.81665e-06
1.39928e-06
-2.00702e-06
1.3946e-06
-2.19642e-06
1.38782e-06
-2.38469e-06
1.37958e-06
-2.57163e-06
1.37024e-06
-2.75715e-06
1.35999e-06
-2.94108e-06
1.34891e-06
-3.12334e-06
1.33704e-06
-3.3038e-06
1.32439e-06
-3.48234e-06
1.31097e-06
-3.65886e-06
1.29677e-06
-3.83325e-06
1.28181e-06
-4.0054e-06
1.26609e-06
-4.17521e-06
1.24959e-06
-4.34256e-06
1.23232e-06
-4.50735e-06
1.21429e-06
-4.66947e-06
1.19549e-06
-4.82882e-06
1.17592e-06
-4.98529e-06
1.15559e-06
-5.13879e-06
1.13449e-06
-5.2892e-06
1.11262e-06
-5.43642e-06
1.09e-06
-5.58035e-06
1.06661e-06
-5.72089e-06
1.04247e-06
-5.85794e-06
1.01756e-06
-5.9914e-06
9.919e-07
-6.12116e-06
9.65485e-07
-6.24713e-06
9.3832e-07
-6.36921e-06
9.10406e-07
-6.4873e-06
8.81747e-07
-6.60131e-06
8.52347e-07
-6.71114e-06
8.22208e-07
-6.81668e-06
7.91336e-07
-6.91786e-06
7.59735e-07
-7.01457e-06
7.27411e-07
-7.10673e-06
6.94369e-07
-7.19424e-06
6.60615e-07
-7.27701e-06
6.26158e-07
-7.35495e-06
5.91004e-07
-7.42798e-06
5.55162e-07
-7.49602e-06
5.18642e-07
-7.55897e-06
4.81454e-07
-7.61675e-06
4.43608e-07
-7.66929e-06
4.05119e-07
-7.7165e-06
3.65998e-07
-7.75831e-06
3.2626e-07
-7.79465e-06
2.85921e-07
-7.82544e-06
2.44998e-07
-7.85061e-06
2.03509e-07
-7.8701e-06
1.61474e-07
-7.88383e-06
1.18913e-07
-7.89176e-06
7.58488e-08
-7.89383e-06
3.23061e-08
-7.88997e-06
-1.16897e-08
-7.88014e-06
-5.61113e-08
-7.86429e-06
-1.0093e-07
-7.84238e-06
-1.46114e-07
-7.81437e-06
-1.91633e-07
-7.78022e-06
-2.3745e-07
-7.73991e-06
-2.83531e-07
-7.69342e-06
-3.29838e-07
-7.64072e-06
-3.7633e-07
-7.58179e-06
-4.22967e-07
-7.51664e-06
-4.69704e-07
-7.44525e-06
-5.16498e-07
-7.36764e-06