/*--------------------------------*- C++ -*----------------------------------*\
| =========                 |                                                 |
| \\      /  F ield         | OpenFOAM: The Open Source CFD Toolbox           |
|  \\    /   O peration     | Version:  2406                                  |
|   \\  /    A nd           | Website:  www.openfoam.com                      |
|    \\/     M anipulation  |                                                 |
\*---------------------------------------------------------------------------*/
FoamFile
{
    version     2.0;
    format      ascii;
    arch        "LSB;label=32;scalar=64";
    class       volScalarField;
    location    "48.15";
    object      p;
}
// * * * * * * * * * * * * * * * * * * * * * * * * * * * * * * * * * * * * * //

dimensions      [0 2 -2 0 0 0 0];

internalField   nonuniform List<scalar> 
3600
(
0.0410703
0.0411056
0.041095
0.0410813
0.0410121
0.0409397
0.0408346
0.0407354
0.0406166
0.040496
0.0403487
0.0401804
0.0399721
0.0397264
0.0394315
0.0390896
0.038695
0.038252
0.037763
0.0372401
0.0367009
0.0361745
0.035698
0.035315
0.0350699
0.0350035
0.0351484
0.0355247
0.0361375
0.0369735
0.0379986
0.0391558
0.0403648
0.0415253
0.0425233
0.0432432
0.043581
0.0434646
0.0428645
0.0418098
0.0403797
0.0387023
0.0369196
0.0351787
0.0335894
0.0322353
0.0311436
0.0303234
0.0297374
0.0293575
0.0291213
0.0290022
0.0289421
0.028938
0.028942
0.028976
0.0289957
0.029041
0.0290625
0.0291001
0.0410372
0.0410736
0.0410549
0.0410414
0.0409764
0.0409147
0.0408224
0.0407372
0.0406318
0.0405244
0.040391
0.0402388
0.0400502
0.0398284
0.0395619
0.0392517
0.0388905
0.0384796
0.0380202
0.0375232
0.0370032
0.0364831
0.0359928
0.0355706
0.0352614
0.0351103
0.0351572
0.0354293
0.0359385
0.0366762
0.0376119
0.0386911
0.0398353
0.0409453
0.0419073
0.042605
0.042933
0.042817
0.0422258
0.0411881
0.0397842
0.0381453
0.0364177
0.0347511
0.0332547
0.0320071
0.0310251
0.0303059
0.0298007
0.0294756
0.0292674
0.0291554
0.0290872
0.0290677
0.0290521
0.0290672
0.0290665
0.0290959
0.0291002
0.0291381
0.0410393
0.0410868
0.0410655
0.0410497
0.0409786
0.0409146
0.0408237
0.0407449
0.0406492
0.0405533
0.040432
0.0402909
0.0401124
0.0398983
0.039636
0.0393232
0.0389497
0.0385127
0.0380075
0.0374377
0.0368164
0.0361723
0.0355475
0.0349931
0.0345636
0.034309
0.0342716
0.0344792
0.0349436
0.0356557
0.0365849
0.0376759
0.0388503
0.0400078
0.0410333
0.0418071
0.0422184
0.0421849
0.0416662
0.0406821
0.0393076
0.0376742
0.0359345
0.0342499
0.0327433
0.0315041
0.0305551
0.0298926
0.0294611
0.0292166
0.0290851
0.0290379
0.0290181
0.0290319
0.0290356
0.0290626
0.0290651
0.0290992
0.0291015
0.0291539
0.0410428
0.0410954
0.0410666
0.0410442
0.0409672
0.0409046
0.0408226
0.0407591
0.0406836
0.0406087
0.0405083
0.0403849
0.04022
0.0400104
0.0397388
0.0393943
0.0389581
0.0384187
0.0377713
0.0370277
0.0362145
0.0353717
0.0345496
0.033804
0.0331925
0.0327671
0.0325717
0.0326351
0.0329708
0.033572
0.034412
0.0354406
0.036586
0.0377547
0.0388369
0.0397149
0.0402751
0.040426
0.0401129
0.0393373
0.0381573
0.0366913
0.035087
0.0335085
0.0320872
0.030923
0.030047
0.0294612
0.0291106
0.0289489
0.0288965
0.0289196
0.0289559
0.0290106
0.0290392
0.0290803
0.0290854
0.0291208
0.0291175
0.0291786
0.0410907
0.0411436
0.041104
0.0410675
0.040978
0.0409085
0.0408292
0.0407735
0.0407107
0.040646
0.0405516
0.0404217
0.0402327
0.0399692
0.0396037
0.0391126
0.0384748
0.037684
0.0367505
0.0357014
0.0345805
0.0334419
0.032348
0.0313598
0.0305366
0.0299274
0.0295728
0.029498
0.0297156
0.0302196
0.0309878
0.0319767
0.0331244
0.0343479
0.0355482
0.0366138
0.0374318
0.0379013
0.0379487
0.0375476
0.036725
0.0355709
0.0342146
0.0328148
0.03151
0.0304153
0.02958
0.029022
0.0286993
0.0285734
0.0285675
0.0286453
0.0287384
0.0288459
0.0289183
0.028993
0.0290204
0.0290712
0.0290738
0.0291423
0.0411646
0.0412091
0.0411553
0.0410997
0.0409996
0.0409251
0.0408525
0.040805
0.0407525
0.0406881
0.0405806
0.040409
0.040139
0.039737
0.0391676
0.0384048
0.0374402
0.0362839
0.0349689
0.0335415
0.032062
0.0305921
0.0291975
0.027937
0.0268672
0.0260323
0.0254697
0.0252012
0.0252394
0.0255798
0.0262063
0.0270852
0.0281685
0.0293901
0.0306693
0.0319112
0.0330134
0.033875
0.0344083
0.0345574
0.0343082
0.0337041
0.0328339
0.0318294
0.0308211
0.0299318
0.0292281
0.0287481
0.0284685
0.0283666
0.0283778
0.0284736
0.0285893
0.0287222
0.0288201
0.0289163
0.0289601
0.0290198
0.0290269
0.0290933
0.0412923
0.0413191
0.0412478
0.0411657
0.0410522
0.0409647
0.0408895
0.0408322
0.0407646
0.0406606
0.0404822
0.0401844
0.0397207
0.0390428
0.0381213
0.0369423
0.0355241
0.0339011
0.032132
0.0302787
0.0284145
0.0266054
0.0249193
0.0234104
0.0221292
0.0211105
0.0203834
0.0199621
0.0198546
0.020055
0.0205509
0.0213158
0.0223155
0.0235015
0.0248159
0.026187
0.0275345
0.0287713
0.0298109
0.030579
0.0310236
0.0311333
0.0309369
0.030513
0.0299602
0.0293937
0.0288957
0.0285299
0.0283023
0.0282146
0.0282223
0.02831
0.0284229
0.02856
0.0286704
0.0287807
0.0288406
0.0289093
0.0289245
0.028985
0.0414759
0.0414749
0.0413866
0.0412752
0.0411511
0.0410464
0.0409607
0.0408729
0.040756
0.0405558
0.0402243
0.03969
0.0389036
0.037816
0.0364225
0.0347338
0.0328022
0.0306855
0.0284647
0.0262128
0.0240097
0.0219186
0.0200015
0.0183015
0.0168585
0.0156952
0.0148317
0.0142736
0.0140248
0.014077
0.0144202
0.015034
0.0158955
0.0169721
0.0182272
0.0196151
0.0210838
0.022573
0.0240161
0.025344
0.0264894
0.0273999
0.0280423
0.0284209
0.0285675
0.0285517
0.0284438
0.0283225
0.0282269
0.0281929
0.0282085
0.0282795
0.0283694
0.0284843
0.0285817
0.0286834
0.0287432
0.0288084
0.0288256
0.0288744
0.0417259
0.0416861
0.0415816
0.0414346
0.0412955
0.0411569
0.041035
0.0408715
0.0406401
0.0402503
0.0396473
0.0387399
0.0374941
0.0358777
0.0339253
0.0316783
0.0292239
0.0266401
0.0240248
0.0214532
0.0190045
0.0167311
0.0146841
0.0128908
0.0113782
0.0101552
0.00923219
0.00860584
0.00827532
0.00822913
0.00845802
0.00894421
0.00967184
0.0106185
0.0117632
0.0130798
0.0145422
0.0161188
0.0177739
0.0194641
0.0211367
0.0227322
0.0241842
0.0254338
0.026432
0.0271656
0.0276462
0.0279306
0.0280763
0.028158
0.0282102
0.0282731
0.0283371
0.0284201
0.0284921
0.0285728
0.0286229
0.0286779
0.0286941
0.0287308
0.0420521
0.041965
0.0418497
0.041664
0.0415058
0.0413128
0.0411202
0.0408219
0.0403925
0.0397027
0.0387035
0.0373001
0.0354959
0.033289
0.0307612
0.0279834
0.0250724
0.0221162
0.0192186
0.0164454
0.013865
0.0115112
0.00942002
0.00760163
0.00607146
0.00482703
0.00387244
0.0031987
0.00280304
0.0026724
0.00279894
0.00316682
0.00376477
0.00457615
0.005589
0.00678888
0.00816595
0.00970947
0.0114103
0.013255
0.0152224
0.0172772
0.019362
0.0213983
0.0232843
0.0249195
0.0262175
0.0271507
0.0277407
0.0280752
0.0282395
0.0283277
0.028376
0.0284238
0.0284601
0.0285063
0.0285332
0.0285678
0.0285759
0.0286003
0.0424348
0.0422928
0.0421698
0.0419357
0.041742
0.0414573
0.0411382
0.0406222
0.0398895
0.0387791
0.0372676
0.035276
0.032862
0.0300603
0.0269994
0.0237718
0.0205132
0.0173077
0.0142526
0.0113936
0.00878279
0.00643285
0.00436573
0.00257696
0.00107388
-0.000154118
-0.00110616
-0.00179479
-0.00222303
-0.00240467
-0.00234603
-0.00206181
-0.00156043
-0.000855766
4.46106e-05
0.00113138
0.00240229
0.00385682
0.00550102
0.00734246
0.00938838
0.0116374
0.0140682
0.0166283
0.0192195
0.0217029
0.0239087
0.0256904
0.0269613
0.0277503
0.0281585
0.0283389
0.0283999
0.0284225
0.0284241
0.0284327
0.028431
0.0284418
0.0284387
0.0284539
0.0428726
0.0426731
0.0425465
0.042254
0.0420027
0.0415811
0.0410679
0.0402423
0.0391006
0.037466
0.0353635
0.0327462
0.029734
0.0263963
0.0228995
0.019343
0.0158662
0.012534
0.00942741
0.00656623
0.00398524
0.00167788
-0.000343922
-0.00209495
-0.00357134
-0.00478798
-0.00574385
-0.0064526
-0.00691555
-0.00714597
-0.00714782
-0.0069344
-0.00651158
-0.00589141
-0.00507903
-0.00408186
-0.0028997
-0.00153028
3.71882e-05
0.00181841
0.00383518
0.00610962
0.00865554
0.0114642
0.0144833
0.0175992
0.0206264
0.0233339
0.0254991
0.0270043
0.027877
0.0282829
0.0284162
0.0284351
0.028408
0.0283778
0.0283437
0.0283274
0.0283098
0.0283179
0.0433011
0.0430424
0.0429091
0.0425389
0.0421938
0.0415765
0.0407902
0.0395612
0.0379183
0.0356892
0.0329652
0.0297396
0.0261935
0.0224202
0.0186095
0.0148504
0.0112716
0.00790934
0.00482442
0.00201124
-0.000508692
-0.00275639
-0.00472468
-0.00643457
-0.00788226
-0.00908473
-0.0100393
-0.0107601
-0.0112462
-0.0115104
-0.0115544
-0.0113905
-0.0110225
-0.0104612
-0.00971036
-0.00877665
-0.0076597
-0.00635759
-0.00486018
-0.00315148
-0.00120678
0.00100505
0.00351757
0.00635674
0.00952274
0.0129633
0.0165448
0.0200369
0.0231381
0.0255639
0.0271653
0.0280143
0.0283369
0.0283983
0.0283592
0.028296
0.0282318
0.0281897
0.0281574
0.0281609
0.0436948
0.0433797
0.0432338
0.0427651
0.0422853
0.0414122
0.0402769
0.0385668
0.036362
0.0335137
0.0301895
0.0264221
0.022444
0.0183559
0.0143536
0.0105003
0.00690494
0.00357129
0.000542167
-0.00220923
-0.0046689
-0.00686738
-0.00879784
-0.0104845
-0.0119212
-0.0131256
-0.0140924
-0.0148354
-0.0153512
-0.0156518
-0.0157368
-0.015617
-0.0152942
-0.014778
-0.0140706
-0.0131784
-0.0121014
-0.0108388
-0.00938357
-0.00772319
-0.00583698
-0.00369534
-0.00126067
0.00150878
0.00464831
0.00816371
0.0120008
0.0160001
0.0198815
0.0232691
0.0258201
0.0273875
0.0281096
0.028305
0.0282855
0.0281993
0.0281077
0.028041
0.0279941
0.0279929
0.0439464
0.0435763
0.0434032
0.0428086
0.0421476
0.0409608
0.039413
0.0371726
0.0343863
0.0309421
0.0270836
0.0228746
0.0185827
0.0142986
0.010209
0.00634173
0.00278407
-0.000490341
-0.00345115
-0.00614043
-0.00854623
-0.0107045
-0.012606
-0.0142764
-0.0157063
-0.0169139
-0.0178913
-0.0186522
-0.0191913
-0.0195202
-0.0196364
-0.01955
-0.0192613
-0.0187784
-0.0181026
-0.0172394
-0.0161889
-0.0149512
-0.013522
-0.0118927
-0.0100486
-0.00796616
-0.0056132
-0.00294682
8.20577e-05
0.00351489
0.00736497
0.011565
0.01593
0.0201081
0.0236551
0.0261738
0.0275723
0.0280826
0.0281429
0.0280546
0.0279416
0.0278511
0.0277909
0.0277833
0.0440182
0.0435974
0.043381
0.0426367
0.0417533
0.0402094
0.03821
0.0354254
0.0320788
0.0281012
0.0238034
0.0192665
0.0147752
0.0103945
0.00629252
0.00245927
-0.00103705
-0.00424721
-0.00714702
-0.00978851
-0.0121577
-0.0142936
-0.0161826
-0.0178514
-0.0192872
-0.0205083
-0.0215043
-0.0222891
-0.0228553
-0.0232141
-0.0233616
-0.0233068
-0.0230486
-0.0225939
-0.0219432
-0.0211005
-0.0200664
-0.0188408
-0.0174217
-0.0158031
-0.0139766
-0.0119252
-0.0096262
-0.00704425
-0.00413251
-0.000837247
0.00289446
0.00707012
0.0116179
0.0162918
0.0206764
0.0242285
0.0265558
0.0276569
0.0279213
0.0278666
0.0277435
0.0276262
0.0275525
0.0275341
0.0437904
0.0433212
0.0430416
0.0421258
0.0409876
0.0390628
0.0366022
0.0332969
0.0294484
0.0250286
0.0204013
0.0156492
0.0110578
0.0066571
0.00259289
-0.00117964
-0.00460573
-0.00775393
-0.0106008
-0.0132043
-0.0155461
-0.0176664
-0.0195475
-0.0212166
-0.0226577
-0.0238899
-0.0249006
-0.0257041
-0.0262915
-0.026674
-0.0268463
-0.026817
-0.0265838
-0.0261527
-0.0255234
-0.0246988
-0.0236795
-0.0224646
-0.0210539
-0.019442
-0.0176253
-0.0155916
-0.0133273
-0.0108066
-0.007993
-0.00483668
-0.00127149
0.00275286
0.00725662
0.0121184
0.0170503
0.0215035
0.0248928
0.0268483
0.0275688
0.027599
0.0274946
0.0273449
0.0272558
0.0272206
0.0432499
0.0427374
0.0423787
0.0412805
0.039871
0.0375658
0.0346641
0.0308923
0.0266242
0.0218663
0.0170174
0.0121482
0.00753275
0.00316216
-0.000838662
-0.00454339
-0.00790452
-0.0110024
-0.0138106
-0.0163901
-0.0187171
-0.0208329
-0.0227153
-0.0243921
-0.0258448
-0.0270929
-0.0281221
-0.0289469
-0.0295573
-0.0299639
-0.030161
-0.0301559
-0.0299462
-0.0295363
-0.0289261
-0.0281167
-0.0271096
-0.0259022
-0.0244963
-0.0228859
-0.0210711
-0.0190422
-0.0167934
-0.0143067
-0.0115584
-0.00851
-0.00510018
-0.00126501
0.00307098
0.00788993
0.0130597
0.018142
0.0225263
0.0255122
0.0269812
0.0272505
0.027183
0.027015
0.0268996
0.0268427
0.0423089
0.0417575
0.0413065
0.0400237
0.038343
0.0356808
0.032384
0.0282221
0.0236301
0.0186392
0.0136663
0.00876015
0.00417584
-0.000132283
-0.00405632
-0.00769156
-0.0109927
-0.0140471
-0.0168232
-0.0193834
-0.0216986
-0.0238104
-0.0256932
-0.0273755
-0.0288365
-0.0300964
-0.0311396
-0.0319808
-0.0326091
-0.0330349
-0.033252
-0.0332668
-0.0330769
-0.0326854
-0.0320928
-0.0312983
-0.0303046
-0.0291074
-0.02771
-0.026105
-0.0242955
-0.0222719
-0.0200341
-0.0175691
-0.0148644
-0.0118937
-0.00860909
-0.00495231
-0.000826576
0.00381433
0.0089728
0.0143757
0.019512
0.0235613
0.0259702
0.0267892
0.0267652
0.0266195
0.0264631
0.0263798
0.0410119
0.0404298
0.0398809
0.0384244
0.0364893
0.0335134
0.0298852
0.0254214
0.0206025
0.0154749
0.0104582
0.00557385
0.00105514
-0.00317528
-0.00702163
-0.0105939
-0.0138453
-0.0168666
-0.0196204
-0.0221694
-0.0244796
-0.0265931
-0.0284811
-0.0301729
-0.0316458
-0.0329204
-0.0339801
-0.0348393
-0.0354869
-0.0359322
-0.0361691
-0.0362028
-0.0360316
-0.0356565
-0.0350796
-0.034298
-0.0333162
-0.0321275
-0.0307382
-0.0291381
-0.027334
-0.0253143
-0.0230839
-0.0206313
-0.0179533
-0.0150329
-0.0118379
-0.00832482
-0.00439823
1.28768e-05
0.00500645
0.0104588
0.0160497
0.0209929
0.0244503
0.0260772
0.0262614
0.0261192
0.0259545
0.02582
0.0393272
0.0387227
0.0380751
0.0364638
0.0343037
0.0310696
0.0271823
0.0225055
0.0175486
0.0123653
0.00736624
0.00254492
-0.00188704
-0.00603159
-0.00980093
-0.0133136
-0.0165197
-0.0195107
-0.0222437
-0.0247811
-0.027085
-0.0291976
-0.0310881
-0.0327858
-0.0342671
-0.0355525
-0.036625
-0.0374982
-0.0381611
-0.0386219
-0.0388752
-0.0389243
-0.0387688
-0.0384078
-0.0378452
-0.0370754
-0.036106
-0.0349272
-0.0335487
-0.0319572
-0.0301631
-0.028152
-0.0259332
-0.0234939
-0.020838
-0.0179538
-0.0148231
-0.0114187
-0.00765927
-0.00347605
0.00128134
0.00659393
0.0123597
0.0179035
0.0223996
0.0249268
0.0256747
0.0254621
0.025362
0.0251361
0.0373598
0.0367446
0.0360046
0.0342663
0.0319198
0.0284903
0.0244185
0.0196127
0.0145952
0.00942109
0.00448364
-0.000249044
-0.00458537
-0.00864446
-0.0123432
-0.0158039
-0.0189727
-0.0219399
-0.024658
-0.0271884
-0.0294902
-0.0316057
-0.0335022
-0.0352091
-0.036702
-0.0380008
-0.0390885
-0.0399773
-0.040657
-0.0411338
-0.0414037
-0.0414675
-0.041327
-0.0409782
-0.0404282
-0.0396681
-0.0387093
-0.0375382
-0.0361693
-0.0345852
-0.0328017
-0.0307995
-0.0285937
-0.0261676
-0.0235314
-0.0206748
-0.017591
-0.0142658
-0.0106369
-0.00665163
-0.00214481
0.0029281
0.0086405
0.014495
0.0198339
0.0233039
0.0248799
0.0246779
0.0246369
0.0243265
0.0351236
0.0345088
0.0336852
0.0318496
0.0293575
0.0257934
0.0216042
0.0167399
0.0117213
0.0066026
0.00175424
-0.00287551
-0.00711315
-0.0110878
-0.0147196
-0.0181305
-0.0212634
-0.0242061
-0.026908
-0.0294288
-0.031726
-0.0338409
-0.0357405
-0.0374532
-0.0389547
-0.0402635
-0.0413632
-0.0422643
-0.0429578
-0.0434473
-0.0437309
-0.0438064
-0.0436785
-0.0433395
-0.0428006
-0.0420484
-0.0410997
-0.0399358
-0.0385775
-0.0370019
-0.0352313
-0.033241
-0.0310522
-0.028643
-0.0260299
-0.0232001
-0.0201562
-0.0168922
-0.0133645
-0.00954103
-0.00526691
-0.000467977
0.00503629
0.0109632
0.016832
0.0212439
0.0236778
0.0238099
0.0237032
0.0233858
0.0327593
0.0321587
0.0312643
0.0293638
0.0267681
0.0231273
0.0188811
0.0140179
0.00904456
0.00401432
-0.000728649
-0.00524982
-0.00939176
-0.0132876
-0.0168597
-0.0202272
-0.0233302
-0.0262531
-0.0289432
-0.0314582
-0.0337547
-0.0358726
-0.0377791
-0.0395008
-0.0410141
-0.0423356
-0.04345
-0.0443652
-0.0450741
-0.045577
-0.045875
-0.0459617
-0.045846
-0.0455154
-0.0449862
-0.0442399
-0.0432994
-0.0421403
-0.0407908
-0.0392214
-0.0374628
-0.0354832
-0.0333121
-0.0309204
-0.0283322
-0.0255293
-0.0225226
-0.0193093
-0.0158618
-0.0121682
-0.0080942
-0.00356648
0.00165226
0.00746443
0.013564
0.0187863
0.0220173
0.0228274
0.0225535
0.0223007
0.030297
0.0297217
0.0287685
0.026831
0.0241671
0.0204962
0.0162377
0.0114166
0.00651634
0.00159165
-0.00304115
-0.00745434
-0.0115055
-0.0153265
-0.0188425
-0.0221673
-0.0252404
-0.0281416
-0.0308178
-0.0333238
-0.0356169
-0.0377345
-0.0396449
-0.0413724
-0.0428948
-0.0442257
-0.0453522
-0.0462782
-0.0469998
-0.047513
-0.0478229
-0.0479179
-0.0478123
-0.0474875
-0.0469665
-0.0462239
-0.0452907
-0.0441347
-0.0427936
-0.0412295
-0.0394834
-0.0375145
-0.0353629
-0.0329902
-0.0304303
-0.0276566
-0.024689
-0.0215231
-0.0181439
-0.0145577
-0.0106499
-0.00637351
-0.00145873
0.00410126
0.0102105
0.0159749
0.0199624
0.0215779
0.0212269
0.0210207
0.0278825
0.0273457
0.0263476
0.0244004
0.0217008
0.0180405
0.0138067
0.00905994
0.00425231
-0.00055668
-0.00507947
-0.00938907
-0.0133572
-0.0171106
-0.0205779
-0.0238658
-0.0269145
-0.0297984
-0.0324655
-0.0349665
-0.0372606
-0.0393818
-0.0413003
-0.043037
-0.0445721
-0.0459152
-0.0470564
-0.0479951
-0.0487313
-0.0492557
-0.0495784
-0.0496816
-0.0495862
-0.0492661
-0.0487526
-0.0480116
-0.0470844
-0.045929
-0.0445946
-0.0430329
-0.0412977
-0.0393369
-0.0372041
-0.0348491
-0.0323186
-0.0295746
-0.026648
-0.0235285
-0.0202122
-0.0167184
-0.012949
-0.00889769
-0.00427351
0.000950397
0.00691925
0.0129113
0.0176041
0.0199472
0.0197879
0.0195185
0.0255334
0.0250445
0.0240123
0.0220744
0.019361
0.0157372
0.0115482
0.00689043
0.00217935
-0.00251593
-0.00693681
-0.0111509
-0.0150444
-0.0187351
-0.0221572
-0.0254087
-0.0284328
-0.0312973
-0.0339532
-0.0364463
-0.0387387
-0.0408602
-0.042784
-0.0445264
-0.0460715
-0.0474233
-0.0485765
-0.0495246
-0.050273
-0.0508052
-0.0511385
-0.0512468
-0.0511595
-0.0508413
-0.0503336
-0.0495918
-0.0486691
-0.0475119
-0.0461832
-0.0446215
-0.0428966
-0.0409419
-0.0388278
-0.0364892
-0.0339892
-0.0312753
-0.0283926
-0.02532
-0.0220662
-0.0186558
-0.0150064
-0.0111528
-0.00679489
-0.00194025
0.00378417
0.00973563
0.0150115
0.0179356
0.0182478
0.017793
0.0233808
0.022951
0.0218974
0.0199874
0.0172802
0.0137153
0.00958781
0.00503045
0.000417989
-0.00416677
-0.00849413
-0.0126217
-0.0164502
-0.0200863
-0.0234709
-0.0266922
-0.0296976
-0.032548
-0.035198
-0.0376879
-0.0399837
-0.0421097
-0.0440433
-0.0457952
-0.0473539
-0.0487174
-0.0498856
-0.0508449
-0.0516076
-0.0521488
-0.052494
-0.0526074
-0.0525289
-0.0522115
-0.0517095
-0.050965
-0.0500461
-0.0488845
-0.0475601
-0.0459955
-0.044279
-0.0423269
-0.0402299
-0.0379045
-0.0354346
-0.0327487
-0.0299116
-0.0268852
-0.0236957
-0.0203628
-0.0168231
-0.013142
-0.00902708
-0.00453782
0.000867437
0.00658969
0.0122425
0.0156079
0.0165321
0.0158444
0.0214134
0.0210494
0.0199833
0.0181109
0.0154188
0.0119208
0.00785665
0.00339642
-0.00112796
-0.00561478
-0.00986313
-0.0139158
-0.0176892
-0.0212765
-0.0246273
-0.027819
-0.0308058
-0.0336401
-0.0362824
-0.038766
-0.0410625
-0.0431895
-0.04513
-0.0468877
-0.0484572
-0.0498286
-0.0510092
-0.0519761
-0.0527506
-0.0532971
-0.053652
-0.0537672
-0.0536953
-0.0533757
-0.0528775
-0.0521272
-0.0512105
-0.0500413
-0.0487197
-0.0471487
-0.0454391
-0.043486
-0.0414048
-0.0390889
-0.0366482
-0.0339875
-0.0311969
-0.028215
-0.0250921
-0.0218323
-0.0183982
-0.0148678
-0.0109764
-0.00682696
-0.00178965
0.00358812
0.00936925
0.0130462
0.0145526
0.0136823
0.0197406
0.0194519
0.0183853
0.0165627
0.0138963
0.0104749
0.00647818
0.00211465
-0.00232822
-0.00672641
-0.0109072
-0.0148958
-0.0186244
-0.0221714
-0.0254965
-0.0286656
-0.0316405
-0.0344647
-0.0371054
-0.0395883
-0.041891
-0.0440237
-0.0459761
-0.0477433
-0.0493278
-0.05071
-0.0519063
-0.0528829
-0.0536718
-0.0542248
-0.0545912
-0.0547084
-0.0546444
-0.0543217
-0.0538277
-0.05307
-0.0521552
-0.0509757
-0.049656
-0.0480751
-0.0463709
-0.0444125
-0.0423449
-0.0400338
-0.0376205
-0.0349802
-0.0322355
-0.0292947
-0.02624
-0.0230488
-0.0197189
-0.0163215
-0.0126382
-0.00879474
-0.00414951
0.000821107
0.00649728
0.0103532
0.0123113
0.0113641
0.0183162
0.0181068
0.0170481
0.0152791
0.0126393
0.00929214
0.00535467
0.00107546
-0.0033029
-0.0076296
-0.0117599
-0.0156973
-0.0193917
-0.0229045
-0.0262079
-0.0293552
-0.0323183
-0.0351303
-0.0377677
-0.0402463
-0.0425526
-0.0446871
-0.0466484
-0.0484211
-0.0500176
-0.0514066
-0.052616
-0.0535983
-0.0543991
-0.0549547
-0.0553305
-0.0554459
-0.0553878
-0.0550582
-0.0545667
-0.0537976
-0.0528828
-0.0516891
-0.0503692
-0.0487739
-0.0470728
-0.045104
-0.0430475
-0.0407353
-0.0383468
-0.0357208
-0.0330203
-0.0301149
-0.0271284
-0.0240002
-0.0207736
-0.0174941
-0.0140053
-0.0104324
-0.0061803
-0.00164213
0.00375137
0.00765265
0.00991402
0.00899295
0.0172321
0.0171089
0.0160717
0.0143663
0.0117602
0.00849127
0.00461301
0.000413878
-0.00390821
-0.00817378
-0.0122648
-0.016162
-0.0198321
-0.0233196
-0.0266096
-0.0297427
-0.0327014
-0.0355081
-0.0381489
-0.0406293
-0.0429455
-0.0450869
-0.0470626
-0.0488449
-0.0504582
-0.0518571
-0.0530834
-0.0540736
-0.0548897
-0.0554491
-0.0558368
-0.0559506
-0.0559003
-0.0555632
-0.0550753
-0.0542931
-0.0533787
-0.0521679
-0.0508473
-0.0492336
-0.0475342
-0.0455499
-0.0435021
-0.0411825
-0.0388156
-0.0361969
-0.0335373
-0.0306602
-0.02774
-0.0246677
-0.0215425
-0.0183675
-0.0150606
-0.0117247
-0.00785
-0.00374316
0.00125511
0.00507947
0.00751856
0.00669285
0.0164059
0.0163695
0.0153632
0.0137242
0.0111511
0.0079546
0.00412547
-7.6168e-06
-0.00429078
-0.00851251
-0.0125809
-0.0164507
-0.0201068
-0.0235749
-0.0268555
-0.0299747
-0.032929
-0.0357278
-0.03837
-0.0408484
-0.0431717
-0.0453157
-0.0473028
-0.0490903
-0.0507177
-0.0521221
-0.0533631
-0.0543568
-0.055186
-0.0557451
-0.0561429
-0.0562508
-0.0562065
-0.0558574
-0.0553713
-0.0545713
-0.0536552
-0.0524221
-0.0510986
-0.0494605
-0.0477599
-0.0457532
-0.0437104
-0.0413755
-0.0390258
-0.0364052
-0.0337818
-0.0309233
-0.0280652
-0.0250389
-0.0220111
-0.0189267
-0.0157887
-0.0126577
-0.00913323
-0.00543675
-0.000890381
0.00275794
0.00527472
0.00457643
0.0159217
0.0159747
0.0150153
0.0134544
0.0109242
0.00780503
0.00402784
-4.09583e-05
-0.00428967
-0.00847515
-0.0125294
-0.0163811
-0.0200322
-0.0234896
-0.0267692
-0.0298827
-0.0328404
-0.0356389
-0.0382901
-0.0407733
-0.0431106
-0.0452628
-0.0472677
-0.049065
-0.0507119
-0.0521254
-0.0533856
-0.0543854
-0.0552319
-0.055792
-0.0562033
-0.056306
-0.0562703
-0.0559088
-0.0554263
-0.0546068
-0.0536901
-0.0524316
-0.0511049
-0.0494381
-0.047735
-0.0456996
-0.0436592
-0.0413009
-0.0389642
-0.036332
-0.0337395
-0.0308883
-0.0280865
-0.0250947
-0.0221581
-0.0191495
-0.0161672
-0.0132108
-0.0100046
-0.00668465
-0.00260776
0.000792945
0.00330335
0.00273744
0.0156591
0.0157956
0.014895
0.0134172
0.0109341
0.00788924
0.00415892
0.000144743
-0.00408196
-0.00824483
-0.0122988
-0.0161434
-0.0197986
-0.0232502
-0.026532
-0.0296394
-0.0326001
-0.0353949
-0.038053
-0.0405363
-0.0428851
-0.0450408
-0.047061
-0.0488633
-0.0505277
-0.0519456
-0.0532236
-0.054225
-0.0550872
-0.0556439
-0.0560674
-0.05616
-0.0561317
-0.0557525
-0.0552723
-0.0544275
-0.0535083
-0.0522179
-0.0508856
-0.0491824
-0.0474732
-0.0454003
-0.0433576
-0.0409654
-0.0386358
-0.0359795
-0.0334105
-0.0305527
-0.0277988
-0.0248262
-0.0219718
-0.0190217
-0.0161803
-0.013368
-0.0104463
-0.00746033
-0.00384495
-0.000736022
0.00169384
0.00124897
0.0157067
0.0159212
0.0150979
0.0137188
0.0113013
0.00834142
0.00466939
0.00071544
-0.00348537
-0.00762702
-0.0116839
-0.0155277
-0.0191939
-0.0226478
-0.0259401
-0.0290498
-0.0320223
-0.0348216
-0.0374951
-0.039986
-0.0423545
-0.04452
-0.0465631
-0.0483756
-0.0500643
-0.0514906
-0.0527922
-0.053798
-0.0546813
-0.0552364
-0.0556767
-0.0557599
-0.0557429
-0.0553456
-0.0548706
-0.0539987
-0.0530789
-0.0517532
-0.0504159
-0.048671
-0.0469548
-0.0448369
-0.0427892
-0.040353
-0.0380257
-0.0353326
-0.03278
-0.0299003
-0.0271855
-0.024215
-0.0214326
-0.0185215
-0.0158061
-0.0131081
-0.010438
-0.00773981
-0.00456334
-0.00176666
0.000517379
0.000174377
0.0159002
0.0161773
0.0154454
0.0141734
0.0118367
0.00896657
0.00535845
0.00146455
-0.00271298
-0.00683931
-0.010907
-0.0147568
-0.0184407
-0.0218998
-0.0252051
-0.0283154
-0.0312987
-0.0340981
-0.036785
-0.0392784
-0.0416646
-0.0438349
-0.0458994
-0.0477174
-0.0494295
-0.0508597
-0.0521847
-0.0531903
-0.0540947
-0.0546432
-0.0551003
-0.0551688
-0.0551628
-0.0547414
-0.0542708
-0.053365
-0.0524431
-0.0510741
-0.0497293
-0.0479332
-0.0462064
-0.044032
-0.041974
-0.0394803
-0.0371479
-0.034402
-0.0318564
-0.028936
-0.0262489
-0.0232595
-0.0205362
-0.0176409
-0.0150349
-0.0124198
-0.00996933
-0.00750981
-0.00473997
-0.00225492
-0.000170425
-0.000433041
0.0163499
0.0166742
0.0160522
0.0149056
0.0126806
0.00992004
0.0063997
0.00258236
-0.00155581
-0.00565851
-0.00973187
-0.0135888
-0.0172941
-0.0207651
-0.0240914
-0.0272112
-0.0302151
-0.0330239
-0.0357342
-0.0382387
-0.0406525
-0.0428352
-0.0449304
-0.04676
-0.0485041
-0.0499429
-0.0512989
-0.0523078
-0.0532401
-0.0537844
-0.0542644
-0.0543193
-0.0543296
-0.0538838
-0.053422
-0.0524803
-0.0515596
-0.0501435
-0.0487928
-0.0469394
-0.0452017
-0.042962
-0.0408911
-0.0383278
-0.0359852
-0.0331706
-0.0306239
-0.0276434
-0.024973
-0.021942
-0.0192646
-0.0163601
-0.0138472
-0.0112834
-0.00902356
-0.00675389
-0.00435398
-0.00216344
-0.000317916
-0.0005198
0.0168376
0.017186
0.0166861
0.0156761
0.0135907
0.0109563
0.00754354
0.00381647
-0.000270747
-0.00434301
-0.00842018
-0.0122835
-0.0160124
-0.0194947
-0.0228432
-0.0259691
-0.0289927
-0.0318056
-0.0345382
-0.0370482
-0.0394892
-0.0416791
-0.0438056
-0.0456425
-0.04742
-0.0488632
-0.0502522
-0.0512598
-0.0522222
-0.0527572
-0.0532619
-0.0532973
-0.0533252
-0.0528482
-0.0523956
-0.05141
-0.0504898
-0.0490168
-0.0476585
-0.045736
-0.0439839
-0.0416648
-0.0395756
-0.0369256
-0.0345649
-0.0316613
-0.029103
-0.0260385
-0.0233717
-0.0202722
-0.0176256
-0.0146824
-0.0122452
-0.00969821
-0.00760086
-0.00547046
-0.00339939
-0.00147049
0.000114487
-4.18714e-05
0.0175251
0.017879
0.0175089
0.0166525
0.0147449
0.0122675
0.00899848
0.0053912
0.00138525
-0.00263505
-0.00669935
-0.0105617
-0.0143125
-0.0178102
-0.0211885
-0.02433
-0.0273851
-0.0302128
-0.0329804
-0.0355063
-0.037987
-0.0401932
-0.042363
-0.0442145
-0.0460365
-0.0474899
-0.0489219
-0.0499328
-0.0509342
-0.0514629
-0.0520004
-0.0520178
-0.0520706
-0.0515622
-0.0511252
-0.0500935
-0.0491789
-0.0476447
-0.046282
-0.0442833
-0.042518
-0.040109
-0.0379999
-0.0352486
-0.0328652
-0.0298534
-0.0272752
-0.0241026
-0.0214278
-0.0182315
-0.0156018
-0.012589
-0.0102116
-0.00764635
-0.00568739
-0.00364717
-0.00186463
-0.000154103
0.00116662
0.00104742
0.0181267
0.0184671
0.018224
0.0175322
0.015834
0.0135447
0.0104527
0.00699642
0.00310031
-0.000842814
-0.00487764
-0.00872521
-0.0124925
-0.0159985
-0.0194057
-0.0225572
-0.0256438
-0.0284807
-0.0312843
-0.0338208
-0.0363437
-0.038562
-0.040779
-0.0426415
-0.0445129
-0.045973
-0.0474534
-0.0484633
-0.0495089
-0.050026
-0.050601
-0.0505939
-0.0506753
-0.0501275
-0.0497086
-0.0486211
-0.0477133
-0.046106
-0.0447386
-0.0426494
-0.0408686
-0.0383521
-0.0362186
-0.033345
-0.0309315
-0.0277863
-0.025178
-0.0218679
-0.0191724
-0.0158461
-0.013219
-0.0101007
-0.00776775
-0.00514504
-0.00330198
-0.00129948
0.000236513
0.00178479
0.00285742
0.00277527
0.0188999
0.0192188
0.0190843
0.0185651
0.0171036
0.0150409
0.0121686
0.00890546
0.00516259
0.00133406
-0.00264011
-0.00645294
-0.0102264
-0.0137397
-0.0171821
-0.0203534
-0.0234858
-0.0263452
-0.0292014
-0.0317617
-0.0343433
-0.0365851
-0.038865
-0.0407481
-0.0426832
-0.0441575
-0.0456993
-0.0467138
-0.0478154
-0.0483249
-0.048948
-0.0489186
-0.0490381
-0.0484511
-0.0480588
-0.0469137
-0.0460197
-0.0443349
-0.0429682
-0.0407806
-0.0389874
-0.0363516
-0.0341938
-0.031181
-0.028734
-0.0254325
-0.022787
-0.0193103
-0.0165837
-0.013093
-0.0104563
-0.00719494
-0.00489431
-0.00217397
-0.000430972
0.00158449
0.00290854
0.00435505
0.00520906
0.00517315
0.019464
0.0197552
0.0197068
0.0193633
0.0181578
0.0163624
0.0137524
0.0107326
0.00718933
0.00352442
-0.000352415
-0.0040958
-0.00785698
-0.0113587
-0.0148316
-0.0180131
-0.0211936
-0.0240698
-0.0269844
-0.0295646
-0.0322129
-0.0344757
-0.036828
-0.0387293
-0.0407386
-0.0422243
-0.0438376
-0.0448529
-0.0460201
-0.0465163
-0.047196
-0.0471367
-0.0473016
-0.0466658
-0.0463059
-0.0450912
-0.0442154
-0.0424383
-0.0410748
-0.038771
-0.0369659
-0.0341894
-0.0320052
-0.0288273
-0.026342
-0.0228536
-0.0201634
-0.0164847
-0.0137175
-0.010023
-0.00736741
-0.00392042
-0.00164419
0.00121965
0.00287406
0.00496041
0.00610545
0.00752438
0.00820445
0.00823478
0.0202265
0.0204928
0.0204961
0.0203116
0.0193592
0.0178599
0.0155509
0.0128235
0.009532
0.0060836
0.00235111
-0.00128601
-0.00501202
-0.00849146
-0.0119975
-0.0151976
-0.0184435
-0.0213531
-0.0243483
-0.0269657
-0.0297031
-0.0320019
-0.0344473
-0.0363793
-0.0384813
-0.0399883
-0.0416899
-0.0427133
-0.043961
-0.0444493
-0.0451992
-0.0451131
-0.0453356
-0.0446521
-0.0443357
-0.0430499
-0.042202
-0.0403284
-0.038976
-0.0365482
-0.0347368
-0.0318068
-0.0295989
-0.0262371
-0.0237126
-0.0200112
-0.0172716
-0.0133569
-0.0105418
-0.00660227
-0.00392042
-0.000241941
0.00201385
0.00506996
0.00663745
0.00885145
0.0098333
0.0112969
0.0118451
0.0119712
0.0206571
0.0208953
0.0209327
0.0208897
0.020191
0.0190206
0.017059
0.0146902
0.0117145
0.00855885
0.00503192
0.00156496
-0.00208724
-0.00550593
-0.00903213
-0.0122338
-0.0155495
-0.018487
-0.0215759
-0.02423
-0.0270732
-0.0294088
-0.0319651
-0.033928
-0.0361406
-0.0376673
-0.0394741
-0.0405018
-0.0418455
-0.0423192
-0.043153
-0.0430308
-0.0433232
-0.0425795
-0.0423171
-0.0409449
-0.0401339
-0.0381451
-0.0368113
-0.034237
-0.0324248
-0.0293144
-0.0270864
-0.0235089
-0.0209463
-0.0169948
-0.0142053
-0.0100126
-0.00714938
-0.00291843
-0.000213172
0.00374702
0.00597427
0.00927893
0.0107507
0.013164
0.0139932
0.0155974
0.0160624
0.0163293
0.0213804
0.0215947
0.021641
0.0216938
0.0212069
0.020355
0.0187572
0.0167892
0.0141823
0.0113823
0.00812089
0.00487901
0.00133891
-0.00199359
-0.00553474
-0.00874132
-0.0121456
-0.0151297
-0.0183413
-0.0210544
-0.0240334
-0.0264261
-0.0291209
-0.0311314
-0.0334784
-0.035038
-0.0369709
-0.038013
-0.039471
-0.0399376
-0.0408716
-0.0407184
-0.0410953
-0.0402944
-0.0400994
-0.0386411
-0.0378791
-0.0357725
-0.0344677
-0.0317403
-0.0299358
-0.0266333
-0.0243908
-0.0205788
-0.0179808
-0.0137518
-0.010912
-0.00640348
-0.00349007