/*--------------------------------*- C++ -*----------------------------------*\
| =========                 |                                                 |
| \\      /  F ield         | OpenFOAM: The Open Source CFD Toolbox           |
|  \\    /   O peration     | Version:  2406                                  |
|   \\  /    A nd           | Website:  www.openfoam.com                      |
|    \\/     M anipulation  |                                                 |
\*---------------------------------------------------------------------------*/
FoamFile
{
    version     2.0;
    format      ascii;
    arch        "LSB;label=32;scalar=64";
    class       surfaceScalarField;
    location    "29.2";
    object      phi_0;
}
// * * * * * * * * * * * * * * * * * * * * * * * * * * * * * * * * * * * * * //

dimensions      [0 3 -1 0 0 0 0];

oriented        oriented;

internalField   nonuniform List<scalar> 
1740
(
6.35755e-06
-6.35755e-06
1.58154e-05
-9.45789e-06
2.25558e-05
-6.74032e-06
2.49174e-05
-2.36161e-06
2.41229e-05
7.94444e-07
2.10978e-05
3.02513e-06
1.50373e-05
6.06045e-06
3.67054e-06
1.13668e-05
-1.80701e-05
2.17406e-05
-5.52324e-05
3.71623e-05
-0.000108533
5.33006e-05
-0.000173287
6.47541e-05
-0.00023952
6.6233e-05
-0.000295274
5.57535e-05
-0.000331435
3.6161e-05
-0.000341929
1.04938e-05
-0.000323626
-1.83028e-05
-0.000275311
-4.8315e-05
-0.000199914
-7.53965e-05
-0.00010475
-9.51639e-05
-3.33144e-06
-0.000101419
8.66702e-05
-9.00017e-05
0.000146579
-5.99085e-05
0.000164399
-1.78201e-05
0.000143069
2.13296e-05
0.00010145
4.16196e-05
5.97751e-05
4.16746e-05
2.85339e-05
3.12412e-05
8.91379e-06
1.96201e-05
8.91379e-06
1.08881e-05
-1.72457e-05
2.5728e-05
-2.42977e-05
3.30454e-05
-1.40578e-05
3.0269e-05
4.14781e-07
1.74196e-05
1.36439e-05
-7.61287e-06
2.80576e-05
-5.17378e-05
5.01854e-05
-0.00012376
8.33888e-05
-0.000223174
0.000121155
-0.000337067
0.000151055
-0.000447156
0.000163389
-0.000539487
0.000157086
-0.000607632
0.000134378
-0.000650234
9.83559e-05
-0.000666723
5.26501e-05
-0.000657531
1.30111e-06
-0.00062048
-5.53531e-05
-0.000556773
-0.000112022
-0.000466913
-0.000165257
-0.000353547
-0.00020853
-0.000223675
-0.000231291
-9.08444e-05
-0.000222832
2.62724e-05
-0.000177025
0.00010751
-9.90581e-05
0.000140924
-1.20845e-05
0.000132243
5.03014e-05
9.7939e-05
7.59782e-05
5.59652e-05
7.3215e-05
1.95019e-05
5.60834e-05
2.84157e-05
1.17395e-05
-2.89851e-05
2.21176e-05
-3.46759e-05
1.89019e-05
-1.08421e-05
-1.14286e-06
2.04596e-05
-4.21962e-05
5.46972e-05
-0.000112931
9.87923e-05
-0.000218813
0.000156067
-0.000349989
0.000214565
-0.00048447
0.000255637
-0.000604482
0.000271066
-0.000702644
0.000261551
-0.000776854
0.000231296
-0.000828124
0.000185648
-0.000858844
0.000129076
-0.000870884
6.46898e-05
-0.000863183
-6.39962e-06
-0.000837947
-8.05892e-05
-0.000791584
-0.000158385
-0.000721236
-0.000235605
-0.000624564
-0.000305201
-0.000501392
-0.000354464
-0.000357074
-0.000367149
-0.000205944
-0.000328155
-7.16824e-05
-0.00023332
2.06396e-05
-0.000104407
6.15551e-05
9.38584e-06
6.48608e-05
7.26726e-05
4.53968e-05
9.2679e-05
1.77079e-05
8.37722e-05
4.61237e-05
8.14174e-06
-3.71269e-05
5.64433e-06
-3.21785e-05
-1.82925e-05
1.30947e-05
-6.86419e-05
7.0809e-05
-0.00015313
0.000139186
-0.00027426
0.000219922
-0.000417409
0.000299216
-0.000557967
0.000355123
-0.000679083
0.000376753
-0.000774475
0.000366458
-0.000844396
0.000331472
-0.000892411
0.00027931
-0.000922871
0.000216107
-0.000939853
0.000146059
-0.000946379
7.12159e-05
-0.00094399
-8.78914e-06
-0.000933217
-9.13623e-05
-0.0009121
-0.000179502
-0.000876124
-0.000271581
-0.000818657
-0.000362668
-0.000730963
-0.000442158
-0.000606125
-0.000491988
-0.000445524
-0.000488755
-0.000268205
-0.000410639
-0.000112566
-0.000260046
-1.826e-05
-8.49199e-05
1.64985e-05
3.7914e-05
2.02459e-05
8.89316e-05
8.92058e-06
9.50975e-05
5.50442e-05
-1.94758e-06
-3.51793e-05
-2.57739e-05
-8.35216e-06
-7.90688e-05
6.63896e-05
-0.000166548
0.000158288
-0.000289275
0.000261913
-0.00043291
0.000363557
-0.000572121
0.000438427
-0.000687735
0.000470736
-0.000773671
0.00046269
-0.000831296
0.000424084
-0.000865431
0.000365607
-0.000882541
0.00029642
-0.000888778
0.000222344
-0.000889168
0.000146449
-0.000887358
6.94057e-05
-0.000887621
-8.52656e-06
-0.000888243
-9.07401e-05
-0.000890164
-0.00017758
-0.000890691
-0.000271055
-0.000882668
-0.000370691
-0.000853174
-0.000471652
-0.000784999
-0.000560162
-0.000662441
-0.000611313
-0.000481734
-0.000591346
-0.000270931
-0.00047085
-9.71076e-05
-0.000258743
-1.66203e-05
-4.25733e-05
2.67451e-06
6.96368e-05
3.29841e-06
9.44736e-05
5.83426e-05
-1.86581e-05
-1.65211e-05
-6.92603e-05
4.225e-05
-0.000152778
0.000149908
-0.000268735
0.000274245
-0.000405819
0.000398998
-0.000539971
0.000497709
-0.000649233
0.000547689
-0.000725271
0.000546773
-0.000769921
0.00050734
-0.000789568
0.00044373
-0.000792677
0.000368716
-0.000786817
0.000290561
-0.000777564
0.000213091
-0.000768415
0.0001373
-0.000761786
6.27761e-05
-0.000759078
-1.12346e-05
-0.000761968
-8.78501e-05
-0.000771966
-0.000167582
-0.000789872
-0.000253148
-0.000813303
-0.000347259
-0.000833932
-0.000451023
-0.000834604
-0.000559491
-0.000788776
-0.00065714
-0.000668563
-0.000711559
-0.000465396
-0.000674017
-0.000222751
-0.000501388
-5.07479e-05
-0.000214576
-1.26324e-06
2.01522e-05
2.59027e-06
9.06201e-05
6.09329e-05
-3.92734e-05
2.27523e-05
-0.000115195
0.000118171
-0.000220536
0.000255249
-0.000346922
0.000400631
-0.000474666
0.000526741
-0.000580414
0.000603457
-0.000651768
0.000619043
-0.000689636
0.000584642
-0.000701665
0.000519369
-0.000698059
0.000440124
-0.000688014
0.000358671
-0.000677152
0.000279699
-0.00066807
0.000204009
-0.000661223
0.000130453
-0.000656449
5.80025e-05
-0.000653077
-1.46068e-05
-0.000653188
-8.77386e-05
-0.000658344
-0.000162426
-0.000671296
-0.000240197
-0.00069491
-0.000323646
-0.000729306
-0.000416627
-0.000766649
-0.000522148
-0.000786376
-0.000637414
-0.000754005
-0.00074393
-0.00062977
-0.000798252
-0.000401657
-0.000729502
-0.000136455
-0.000479778
-2.50849e-06
-0.000113794
4.22429e-06
8.38873e-05
6.51572e-05
-5.75761e-05
8.03284e-05
-0.000150769
0.000211365
-0.000264622
0.000369101
-0.000384908
0.000520917
-0.000490177
0.00063201
-0.000563673
0.000676954
-0.00060247
0.00065784
-0.000614222
0.000596393
-0.000610227
0.000515374
-0.000601254
0.000431151
-0.000593678
0.000351096
-0.000589386
0.000275406
-0.000587644
0.000202267
-0.000586791
0.0001296
-0.000585449
5.66609e-05
-0.00058334
-1.67162e-05
-0.000581191
-8.98878e-05
-0.000580797
-0.000162821
-0.000584903
-0.00023609
-0.000597056
-0.000311493
-0.000621022
-0.000392661
-0.000657961
-0.00048521
-0.000701037
-0.000594337
-0.000727249
-0.000717717
-0.000694
-0.000831501
-0.000549698
-0.000873803
-0.000289493
-0.000739984
-4.37497e-05
-0.000359537
7.75647e-06
3.23812e-05
7.29137e-05
-6.90213e-05
0.00014935
-0.000169194
0.000311537
-0.000279816
0.000479723
-0.000384234
0.000625335
-0.000464118
0.000711893
-0.000510462
0.000723299
-0.000527697
0.000675075
-0.000527321
0.000596018
-0.000521317
0.00050937
-0.000517711
0.000427545
-0.000518652
0.000352037
-0.000522889
0.000279643
-0.000527942
0.000207321
-0.000531695
0.000133352
-0.000532892
5.78582e-05
-0.000531364
-1.82449e-05
-0.000527684
-9.35671e-05
-0.000523321
-0.000167183
-0.000520616
-0.000238795
-0.000522724
-0.000309385
-0.000533734
-0.000381651
-0.000558038
-0.000460906
-0.00059706
-0.000555316
-0.000641921
-0.000672856
-0.000664564
-0.000808858
-0.000614263
-0.000924104
-0.000436604
-0.000917642
-0.000138311
-0.000657831
1.11641e-05
-0.000117094
8.40778e-05
-7.10942e-05
0.000220444
-0.000168624
0.000409066
-0.000267896
0.000578996
-0.000353043
0.000710483
-0.000410618
0.000769468
-0.000438372
0.000751053
-0.000445172
0.000681875
-0.000443403
0.000594248
-0.000442984
0.000508951
-0.000447903
0.000432464
-0.000457164
0.000361298
-0.000468114
0.000290593
-0.000478041
0.000217248
-0.000485133
0.000140444
-0.000488444
6.11696e-05
-0.000487813
-1.88755e-05
-0.000483905
-9.74758e-05
-0.000477793
-0.000173295
-0.000471142
-0.000245446
-0.00046621
-0.000314318
-0.000466155
-0.000381706
-0.000475672
-0.000451389
-0.000500538
-0.00053045
-0.000542493
-0.000630902
-0.000589003
-0.000762348
-0.000598543
-0.000914564
-0.000502762
-0.00101342
-0.000266879
-0.000893714
-1.26553e-05
-0.000371318
7.14225e-05
-6.4508e-05
0.000284952
-0.000152285
0.000496843
-0.000236359
0.00066307
-0.000303136
0.00077726
-0.000344026
0.000810357
-0.000361336
0.000768363
-0.000365434
0.000685973
-0.000367396
0.00059621
-0.00037388
0.000515435
-0.000385645
0.000444229
-0.000400306
0.000375959
-0.000415056
0.000305342
-0.000427588
0.00022978
-0.000436498
0.000149354
-0.00044107
6.57415e-05
-0.000441366
-1.85787e-05
-0.000437855
-0.000100987
-0.000431699
-0.000179451
-0.00042429
-0.000252855
-0.000417258
-0.00032135
-0.000412455
-0.000386509
-0.00041249
-0.000451354
-0.000422755
-0.000520184
-0.000449788
-0.000603869
-0.000494899
-0.000717237
-0.000534351
-0.000875112
-0.000515226
-0.00103255
-0.000364927
-0.00104401
-6.8645e-05
-0.0006676
2.77742e-06
-5.11685e-05
0.00033612
-0.000124716
0.00057039
-0.000192127
0.000730481
-0.000242716
0.000827849
-0.000271953
0.000839594
-0.00028436
0.000780771
-0.000289689
0.000691302
-0.000296472
0.000602994
-0.000308283
0.000527245
-0.000324076
0.000460022
-0.000341298
0.000393182
-0.000357591
0.000321635
-0.00037122
0.000243409
-0.000381135
0.000159269
-0.000386814
7.14202e-05
-0.000388213
-1.71788e-05
-0.00038579
-0.00010341
-0.00038041
-0.000184831
-0.000373312
-0.000259953
-0.000365911
-0.000328751
-0.000359932
-0.000392487
-0.000356837
-0.000454449
-0.000359802
-0.00051722
-0.000373606
-0.000590065
-0.000406027
-0.000684816
-0.00045312
-0.000828019
-0.000478069
-0.0010076
-0.000389959
-0.00113212
-0.000143248
-0.00091431
-0.000140471
-3.36711e-05
0.000369792
-9.05075e-05
0.000627227
-0.000141481
0.000781454
-0.00017876
0.000865128
-0.000200478
0.000861312
-0.000211379
0.000791672
-0.000219079
0.000699001
-0.000229252
0.000613167
-0.000243388
0.000541381
-0.000260023
0.000476657
-0.000277149
0.000410308
-0.000293067
0.000337554
-0.000306559
0.000256901
-0.00031683
0.000169539
-0.000323448
7.80379e-05
-0.000326355
-1.42719e-05
-0.000325841
-0.000103924
-0.000322569
-0.000188104
-0.000317561
-0.000264961
-0.000311723
-0.000334589
-0.000306621
-0.000397589
-0.000302926
-0.000458144
-0.000302623
-0.000517523
-0.00030817
-0.000584517
-0.000328988
-0.000663998
-0.000370652
-0.000786355
-0.000415157
-0.000963093
-0.000385549
-0.00116173
-0.000212758
-0.0010871
-0.000353229
-1.42947e-05
0.000384086
-5.29454e-05
0.000665877
-8.80511e-05
0.00081656
-0.000114036
0.000891113
-0.000130292
0.000877568
-0.000140501
0.000801881
-0.000149727
0.000708227
-0.000161181
0.000624622
-0.000175213
0.000555413
-0.000190599
0.000492043
-0.000206001
0.00042571
-0.000220318
0.000351871
-0.000232764
0.000269346
-0.000242785
0.000179561
-0.000250064
8.53164e-05
-0.000254555
-9.78092e-06
-0.000256434
-0.000102044
-0.000256034
-0.000188504
-0.000254218
-0.000266777
-0.000251581
-0.000337226
-0.000249449
-0.000399721
-0.000248057
-0.000459536
-0.000248708
-0.000516872
-0.000251372
-0.000581853
-0.000263983
-0.000651388
-0.000292833
-0.000757505
-0.000337953
-0.000917974
-0.000344253
-0.00115543
-0.000228847
-0.00120251
-0.000582076
5.44174e-06
0.000378645
-1.39392e-05
0.000685258
-3.48263e-05
0.000837447
-5.11154e-05
0.000907402
-6.31539e-05
0.000889607
-7.30671e-05
0.000811794
-8.29805e-05
0.00071814
-9.38778e-05
0.000635519
-0.000105662
0.000567198
-0.000117755
0.000504135
-0.000129653
0.000437608
-0.00014092
0.000363139
-0.000151235
0.000279661
-0.000160326
0.000188652
-0.000167996
9.29864e-05
-0.000174169
-3.60721e-06
-0.000178956
-9.72574e-05
-0.00018234
-0.00018512
-0.000184734
-0.000264382
-0.00018649
-0.00033547
-0.000188256
-0.000397955
-0.000190304
-0.000457488
-0.000193529
-0.000513647
-0.000197405
-0.000577977
-0.000206715
-0.000642078
-0.000226249
-0.000737971
-0.000266226
-0.000877997
-0.000290114
-0.00113154
-0.000210223
-0.0012824
-0.000792299
2.4759e-05
0.000353886
2.40121e-05
0.000686005
1.70472e-05
0.000844412
1.00436e-05
0.000914406
2.68183e-06
0.000896969
-5.78504e-06
0.000820261
-1.49415e-05
0.000727297
-2.39886e-05
0.000644566
-3.24404e-05
0.00057565
-4.04139e-05
0.000512109
-4.81648e-05
0.000445359
-5.58657e-05
0.000370839
-6.36061e-05
0.000287401
-7.13797e-05
0.000196426
-7.92143e-05
0.000100821
-8.68964e-05
4.07494e-06
-9.46893e-05
-8.94645e-05
-0.000102044
-0.000177766
-0.000109507
-0.000256919
-0.000116551
-0.000328426
-0.000123729
-0.000390777
-0.000130801
-0.000450416
-0.000138111
-0.000506338
-0.000144956
-0.000571132
-0.000153435
-0.000633598
-0.000167194
-0.000724212
-0.000199912
-0.00084528
-0.000230424
-0.00110103
-0.000181356
-0.00133147
-0.000973655
4.14102e-05
0.000312475
5.9771e-05
0.000667644
6.67653e-05
0.000837418
6.90262e-05
0.000912145
6.57703e-05
0.000900224
5.84454e-05
0.000827586
5.03181e-05
0.000735424
4.37513e-05
0.000651133
3.93077e-05
0.000580093
3.62557e-05
0.000515161
3.35617e-05
0.000448053
3.0381e-05
0.00037402
2.61055e-05
0.000291677
2.039e-05
0.000202141
1.29766e-05
0.000108234
3.83955e-06
1.3212e-05
-6.36738e-06
-7.92575e-05
-1.84576e-05
-0.000165676
-3.04813e-05
-0.000244895
-4.37663e-05
-0.000315141
-5.64249e-05
-0.000378118
-6.88444e-05
-0.000437997
-8.15426e-05
-0.000493639
-9.29659e-05
-0.000559708
-0.00010463
-0.000621934
-0.000118081
-0.000710761
-0.000146012
-0.000817349
-0.000178529
-0.00106851
-0.000151835
-0.00135816
-0.00112549
5.41267e-05
0.000258349
9.15686e-05
0.000630202
0.000112797
0.00081619
0.00012496
0.000899982
0.000127721
0.000897463
0.00012354
0.000831767
0.000117469
0.000741495
0.000113479
0.000655123
0.000112707
0.000580865
0.000114134
0.000513734
0.000116111
0.000446075
0.000117181
0.00037295
0.000116185
0.000292672
0.000112495
0.000205832
0.0001056
0.000115129
9.55743e-05
2.32376e-05
8.24268e-05
-6.611e-05
6.6988e-05
-0.000150237
4.96313e-05
-0.000227539
3.05962e-05
-0.000296106
1.28478e-05
-0.00036037
-8.02537e-06
-0.000417123
-2.37794e-05
-0.000477885
-4.14601e-05
-0.000542028
-5.72159e-05
-0.000606179
-7.26083e-05
-0.000695368
-9.85508e-05
-0.000791406
-0.000133517
-0.00103355
-0.000126353
-0.00136533
-0.00125184
6.0982e-05
0.000197367
0.000117297
0.000573888
0.000153501
0.000779985
0.000176202
0.000877281
0.000185863
0.000887802
0.000185272
0.000832358
0.000181033
0.000745734
0.000178891
0.000657265
0.000181016
0.000578739
0.000186454
0.000508296
0.000192996
0.000439534
0.000198549
0.000367397
0.000201307
0.000289914
0.000200258
0.000206881
0.000194669
0.000120718
0.000184341
3.35663e-05
0.000169479
-5.12482e-05
0.000150854
-0.000131613
0.000128983
-0.000205667
0.000105662
-0.000272784
8.0881e-05
-0.000335589
5.63403e-05
-0.000392583
3.35075e-05
-0.000455052
7.70907e-06
-0.000516229
-1.03643e-05
-0.000588105
-3.32016e-05
-0.000672531
-6.13716e-05
-0.000763236
-9.86431e-05
-0.000996274
-0.000105376
-0.00135859
-0.00135722
6.03298e-05
0.000137037
0.000134378
0.00049984
0.000187167
0.000727196
0.000222392
0.000842056
0.000241505
0.000868689
0.000247461
0.000826402
0.000246994
0.000746201
0.000246975
0.000657283
0.000250968
0.000574746
0.000258854
0.00050041
0.000268387
0.00043
0.000277138
0.000358647
0.00028278
0.000284271
0.000283819
0.000205842
0.000279294
0.000125243
0.000268912
4.39489e-05
0.000252824
-3.51605e-05
0.000231751
-0.00011054
0.000206652
-0.000180569
0.00017896
-0.000245092
0.000149259
-0.000305888
0.000120059
-0.000363382
9.03157e-05
-0.00042531
6.1369e-05
-0.000487283
3.404e-05
-0.000560776
2.13276e-06
-0.000640624
-2.75352e-05
-0.000733568
-6.96492e-05
-0.00095416
-8.98584e-05
-0.00133838
-0.00144708
5.20822e-05
8.49547e-05
0.000141057
0.000410865
0.0002107
0.000657552
0.000259409
0.000793348
0.000289377
0.000838721
0.000303004
0.000812776
0.000307035
0.00074217
0.000309251
0.000655067
0.00031455
0.000569448
0.000324021
0.00049094
0.000335759
0.000418262
0.000347176
0.00034723
0.000355613
0.000275834
0.0003591
0.000202355
0.000356387
0.000127956
0.000346947
5.33889e-05
0.000330861
-1.90747e-05
0.000308759
-8.84373e-05
0.000281738
-0.000153548
0.000251068
-0.000214423
0.000218041
-0.000272862
0.000184137
-0.000329478
0.000148982
-0.000390155
0.000114236
-0.000452536
7.81345e-05
-0.000524675
4.13161e-05
-0.000603805
4.17134e-06
-0.000696423
-4.69233e-05
-0.000903065
-7.93494e-05
-0.00130596
-0.00152643
4.00177e-05
4.4937e-05
0.000136237
0.000314646
0.000221867
0.000571922
0.000286169
0.000729046
0.000330314
0.000794575
0.000356401
0.00078669
0.000369338
0.000729233
0.000376454
0.00064795
0.000383726
0.000562176
0.000393815
0.00048085
0.00040598
0.000406097
0.000418098
0.000335111
0.000427589
0.000266343
0.000432265
0.00019768
0.000430623
0.000129597
0.000421857
6.21551e-05
0.000406153
-3.37039e-06
0.000383695
-6.59798e-05
0.000355788
-0.000125641
0.000323385
-0.00018202
0.00028788
-0.000237356
0.000250044
-0.000291642
0.000210199
-0.00035031
0.000168758
-0.000411095
0.000124786
-0.000480702
7.91107e-05
-0.000558131
3.09095e-05
-0.000648222
-2.57386e-05
-0.000846417
-7.00847e-05
-0.00126161
-0.00159651
2.70795e-05
1.78574e-05
0.000119556
0.000222169
0.000216551
0.000474928
0.000295519
0.000650077
0.000354297
0.000735798
0.000394132
0.000746855
0.00041859
0.000704775
0.000433877
0.000632663
0.00044578
0.000550274
0.000457989
0.000468641
0.000471169
0.000392917
0.000484095
0.000322186
0.000494648
0.00025579
0.000500663
0.000191665
0.000500661
0.000129599
0.000493602
6.92136e-05
0.000479336
1.08959e-05
0.000458081
-4.47245e-05
0.000430815
-9.83755e-05
0.000398055
-0.00014926
0.000361134
-0.000200436
0.000320016
-0.000250523
0.000275392
-0.000305686
0.000226382
-0.000362085
0.00017368
-0.000428
0.000116505
-0.000500956
5.86391e-05
-0.000590356
-6.73711e-06
-0.000781041
-5.72426e-05
-0.00121111
-0.00165375
1.64936e-05
1.36386e-06
9.31794e-05
0.000145483
0.000194299
0.000373808
0.000286997
0.000557379
0.000363786
0.000659008
0.000423031
0.00068761
0.00046506
0.000662746
0.00049454
0.000603182
0.000515925
0.000528889
0.000533279
0.000451288
0.000548694
0.000377501
0.000562225
0.000308655
0.000572845
0.000245169
0.000578949
0.000185561
0.000579378
0.00012917
0.000572949
7.56429e-05
0.00055966
2.4185e-05
0.000539194
-2.42579e-05
0.000512382
-7.15637e-05
0.000479198
-0.000116076
0.000440757
-0.000161994
0.000396208
-0.000205974
0.000346412
-0.000255891
0.000289077
-0.00030475
0.000226756
-0.00036568
0.000156594
-0.000430794
8.91872e-05
-0.000522949
1.70817e-05
-0.000708936
-4.39838e-05
-0.00115004
-0.00169774
7.28025e-06
-5.91639e-06
6.15546e-05
9.12091e-05
0.000150568
0.000284794
0.000249339
0.000458609
0.000341382
0.000566965
0.000418642
0.00061035
0.000481689
0.0005997
0.000530527
0.000554344
0.000567394
0.000492022
0.00059609
0.000422592
0.000618992
0.000354599
0.000637157
0.000290491
0.000650701
0.000231625
0.000658936
0.000177326
0.000661209
0.000126896
0.000656702
8.01499e-05
0.000645204
3.56829e-05
0.000626342
-5.39612e-06
0.000600638
-4.58594e-05
0.000567554
-8.29925e-05
0.000527758
-0.000122198
0.000479857
-0.000158073
0.000424464
-0.000200497
0.000358723
-0.000239009
0.000285837
-0.000292794
0.000200795
-0.000345753
0.000121804
-0.000443958
3.39059e-05
-0.000621037
-4.10092e-05
-0.00107512
-0.00173875
-5.00062e-06
-9.15771e-07
2.31969e-05
6.30115e-05
9.0721e-05
0.00021727
0.000193446
0.000355883
0.000298052
0.000462359
0.000399062
0.00050934
0.000487787
0.000510974
0.000560568
0.000481563
0.000618882
0.000433708
0.000664666
0.000376808
0.000699862
0.000319403
0.000726353
0.000264
0.000745071
0.000212907
0.000756568
0.00016583
0.000760607
0.000122858
0.0007573
8.34568e-05
0.000746266
4.67168e-05
0.00072751
1.33598e-05
0.000700946
-1.92953e-05
0.000666477
-4.85238e-05
0.000623506
-7.92266e-05
0.000571567
-0.000106134
0.000510059
-0.00013899
0.000437466
-0.000166415
0.000355914
-0.000211241
0.000260466
-0.000250305
0.000169143
-0.000352635
6.09197e-05
-0.000512813
-2.80264e-05
-0.000986178
-0.00176677
-4.14049e-05
4.04891e-05
-3.85685e-05
6.01751e-05
1.87459e-06
0.000176827
9.48551e-05
0.000262903
0.000203739
0.000353476
0.000325882
0.000387196
0.000438152
0.000398705
0.000537342
0.000382374
0.000621103
0.000349946
0.000689511
0.0003084
0.000742786
0.000266128
0.000784347
0.000222439
0.000813801
0.000183452
0.000834106
0.000145526
0.000843887
0.000113076
0.000845663
8.16809e-05
0.000837375
5.50044e-05
0.000821684
2.90505e-05
0.000795942
6.44748e-06
0.000762704
-1.52866e-05
0.000719183
-3.57049e-05
0.000666942
-5.38934e-05
0.000603682
-7.573e-05
0.000530037
-9.27704e-05
0.000445737
-0.000126941
0.000351189
-0.000155756
0.000250825
-0.000252272
0.000146171
-0.000408159
4.50669e-05
-0.000885074
-0.00172171
-0.000143115
0.000183604
-0.000135758
5.28181e-05
-9.99979e-05
0.000141067
-1.99081e-06
0.000164896
0.00011949
0.000231995
0.000261822
0.000244865
0.000393034
0.000267492
0.000520068
0.00025534
0.000626371
0.000243643
0.000717576
0.000217195
0.000789381
0.000194322
0.000847214
0.000164606
0.000888823
0.000141844
0.000919053
0.000115295
0.000935911
9.62192e-05
0.000943474
7.41173e-05
0.000939391
5.9088e-05
0.0009272
4.12411e-05
0.000904698
2.89498e-05
0.000874413
1.4998e-05
0.000835058
3.64981e-06
0.000787907
-6.74201e-06
0.000730961
-1.87839e-05
0.000666487
-2.82967e-05
0.000589038
-4.94924e-05
0.000508179
-7.48973e-05
0.000407522
-0.000151615
0.000324594
-0.000325232
0.000194418
-0.000754898
-0.00152729
-0.000101787
0.000285392
-0.000188329
0.000139359
-0.000172425
0.000125163
-0.000110031
0.000102502
1.9237e-05
0.000102727
0.000158712
0.00010539
0.000312441
0.000113763
0.000452815
0.000114966
0.000581648
0.000114811
0.000691977
0.000106865
0.000785991
0.000100308
0.000862288
8.83094e-05
0.000923955
8.01769e-05
0.000971543
6.77077e-05
0.00100702
6.07398e-05
0.00103189
4.9251e-05
0.00104669
4.42843e-05
0.00105409
3.38391e-05
0.00105214
3.09077e-05
0.00104601
2.11211e-05
0.00102954
2.01237e-05
0.00101264
1.01607e-05
0.000983306
1.05468e-05
0.000957136
-2.1266e-06
0.000909097
-1.45289e-06
0.000862635
-2.84354e-05
0.000765322
-5.43018e-05
0.000649558
-0.000209468
0.000405642
-0.000510981
-0.00112165
0.000285392
0.000424751
0.000549914
0.000652416
0.000755143
0.000860533
0.000974296
0.00108926
0.00120407
0.00131094
0.00141125
0.00149956
0.00157973
0.00164744
0.00170818
0.00175743
0.00180171
0.00183555
0.00186646
0.00188758
0.00190771
0.00191787
0.00192841
0.00192629
0.00192483
0.0018964
0.0018421
0.00163263
0.00112165
)
;

boundaryField
{
    movingWall
    {
        type            calculated;
        value           uniform 0;
    }
    fixedWalls
    {
        type            calculated;
        value           uniform 0;
    }
    frontAndBack
    {
        type            empty;
    }
}


// ************************************************************************* //
