/*--------------------------------*- C++ -*----------------------------------*\
| =========                 |                                                 |
| \\      /  F ield         | OpenFOAM: The Open Source CFD Toolbox           |
|  \\    /   O peration     | Version:  2406                                  |
|   \\  /    A nd           | Website:  www.openfoam.com                      |
|    \\/     M anipulation  |                                                 |
\*---------------------------------------------------------------------------*/
FoamFile
{
    version     2.0;
    format      ascii;
    arch        "LSB;label=32;scalar=64";
    class       volVectorField;
    location    "16.6";
    object      U;
}
// * * * * * * * * * * * * * * * * * * * * * * * * * * * * * * * * * * * * * //

dimensions      [0 1 -1 0 0 0 0];

internalField   nonuniform List<vector> 
3600
(
(2.58145e-05 -2.56806e-05 0)
(8.74056e-05 -1.60611e-05 0)
(8.30997e-05 1.42322e-06 0)
(1.4001e-05 1.63662e-05 0)
(-0.000103353 2.5464e-05 0)
(-0.00024858 3.01076e-05 0)
(-0.000408349 3.23519e-05 0)
(-0.000576484 3.38856e-05 0)
(-0.000751836 3.57291e-05 0)
(-0.000936017 3.83424e-05 0)
(-0.00113173 4.18428e-05 0)
(-0.00134181 4.61791e-05 0)
(-0.00156879 5.12377e-05 0)
(-0.00181472 5.68846e-05 0)
(-0.00208111 6.29614e-05 0)
(-0.00236875 6.92583e-05 0)
(-0.00267749 7.54791e-05 0)
(-0.00300584 8.121e-05 0)
(-0.00335046 8.58999e-05 0)
(-0.00370565 8.88559e-05 0)
(-0.0040628 8.92558e-05 0)
(-0.00440999 8.61769e-05 0)
(-0.00473171 7.86418e-05 0)
(-0.00500889 6.56787e-05 0)
(-0.00521922 4.64256e-05 0)
(-0.00533798 2.03315e-05 0)
(-0.00533869 -1.27653e-05 0)
(-0.00519562 -5.30348e-05 0)
(-0.00488594 -9.94383e-05 0)
(-0.0043915 -0.000150235 0)
(-0.00370218 -0.000202922 0)
(-0.00281841 -0.000254205 0)
(-0.00175327 -0.000300191 0)
(-0.000533725 -0.000336735 0)
(0.000799508 -0.000359901 0)
(0.00219354 -0.00036653 0)
(0.00358662 -0.000354731 0)
(0.00491286 -0.000324311 0)
(0.00610799 -0.000276969 0)
(0.0071154 -0.000216176 0)
(0.00789154 -0.000146756 0)
(0.00841007 -7.41507e-05 0)
(0.00866432 -3.98514e-06 0)
(0.00866474 5.77699e-05 0)
(0.0084366 0.000108294 0)
(0.00801876 0.00014765 0)
(0.00745628 0.000175232 0)
(0.00679389 0.000191167 0)
(0.00607276 0.000197121 0)
(0.0053281 0.000195369 0)
(0.00458721 0.00018826 0)
(0.00386905 0.000177983 0)
(0.00318487 0.000166371 0)
(0.00253984 0.000154679 0)
(0.00193578 0.000143241 0)
(0.00137547 0.000131004 0)
(0.000868856 0.000114584 0)
(0.000438097 8.96174e-05 0)
(0.000136441 4.80846e-05 0)
(5.42912e-06 4.75415e-06 0)
(1.47287e-05 -8.53308e-05 0)
(3.14518e-06 -1.49536e-05 0)
(-0.000172773 0.000129058 0)
(-0.00050099 0.000249419 0)
(-0.000941061 0.000327869 0)
(-0.00145145 0.000372135 0)
(-0.00200312 0.000396602 0)
(-0.00258091 0.000413435 0)
(-0.00317971 0.000430324 0)
(-0.00380013 0.000450995 0)
(-0.00444524 0.000476596 0)
(-0.00511864 0.000506922 0)
(-0.00582342 0.000541209 0)
(-0.00656192 0.000578478 0)
(-0.00733546 0.000617544 0)
(-0.00814405 0.000656835 0)
(-0.00898588 0.00069412 0)
(-0.00985639 0.000726264 0)
(-0.0107472 0.000749063 0)
(-0.011645 0.000757217 0)
(-0.0125301 0.000744456 0)
(-0.0133759 0.00070384 0)
(-0.0141485 0.000628222 0)
(-0.0148066 0.000510864 0)
(-0.0153031 0.000346209 0)
(-0.0155862 0.000130771 0)
(-0.0156033 -0.000135875 0)
(-0.0153038 -0.000450589 0)
(-0.0146432 -0.00080544 0)
(-0.0135882 -0.00118748 0)
(-0.0121208 -0.00157879 0)
(-0.0102425 -0.00195716 0)
(-0.00797739 -0.00229738 0)
(-0.00537375 -0.00257321 0)
(-0.00250423 -0.00275993 0)
(0.000536618 -0.00283716 0)
(0.00363667 -0.00279156 0)
(0.00667295 -0.00261917 0)
(0.00952004 -0.00232673 0)
(0.0120597 -0.00193181 0)
(0.0141904 -0.00146131 0)
(0.0158362 -0.000948612 0)
(0.0169521 -0.000429816 0)
(0.0175279 6.00427e-05 0)
(0.0175884 0.000493536 0)
(0.0171857 0.000853036 0)
(0.016391 0.00112772 0)
(0.0152888 0.00131674 0)
(0.0139654 0.0014274 0)
(0.0125012 0.00147233 0)
(0.0109647 0.00146693 0)
(0.00940971 0.00142692 0)
(0.00787509 0.00136625 0)
(0.00638656 0.00129482 0)
(0.00496212 0.00121582 0)
(0.00361996 0.00112244 0)
(0.00238989 0.00099427 0)
(0.00131841 0.000797809 0)
(0.000518785 0.00049599 0)
(5.4521e-05 0.000141349 0)
(-1.10796e-05 -6.10962e-05 0)
(-0.000205173 0.000184692 0)
(-0.000647411 0.000528618 0)
(-0.00130842 0.000806907 0)
(-0.00211894 0.000992241 0)
(-0.00302824 0.00110286 0)
(-0.00399928 0.00116867 0)
(-0.00501155 0.00121491 0)
(-0.00605628 0.00125778 0)
(-0.00713146 0.00130536 0)
(-0.00823807 0.00136038 0)
(-0.00937794 0.00142272 0)
(-0.0105528 0.00149107 0)
(-0.0117642 0.0015637 0)
(-0.013013 0.00163847 0)
(-0.0142993 0.00171231 0)
(-0.0156215 0.00178066 0)
(-0.0169752 0.00183683 0)
(-0.0183513 0.00187164 0)
(-0.0197341 0.00187335 0)
(-0.0210998 0.00182804 0)
(-0.0224154 0.00172039 0)
(-0.0236378 0.00153486 0)
(-0.0247144 0.00125712 0)
(-0.0255847 0.000875802 0)
(-0.0261825 0.000384205 0)
(-0.0264391 -0.000217858 0)
(-0.0262882 -0.000922027 0)
(-0.0256703 -0.00171101 0)
(-0.0245372 -0.00255813 0)
(-0.0228578 -0.00342708 0)
(-0.0206223 -0.00427341 0)
(-0.0178464 -0.005047 0)
(-0.0145741 -0.00569548 0)
(-0.0108789 -0.00616864 0)
(-0.00686285 -0.00642332 0)
(-0.00265334 -0.00642835 0)
(0.00160256 -0.00616913 0)
(0.00574651 -0.00565076 0)
(0.00961928 -0.00489934 0)
(0.0130725 -0.00396065 0)
(0.0159803 -0.00289614 0)
(0.0182497 -0.00177644 0)
(0.0198283 -0.000672815 0)
(0.0207081 0.00035018 0)
(0.0209195 0.00123968 0)
(0.020528 0.00196381 0)
(0.0196262 0.00250966 0)
(0.0183188 0.00288197 0)
(0.0167124 0.00309958 0)
(0.0149058 0.00319038 0)
(0.0129837 0.00318585 0)
(0.0110137 0.00311564 0)
(0.00904712 0.00300209 0)
(0.0071242 0.00285407 0)
(0.0052827 0.00266026 0)
(0.00357086 0.00238303 0)
(0.00204825 0.00195939 0)
(0.000868523 0.00131672 0)
(0.000104395 0.000473446 0)
(-4.36109e-05 7.72501e-05 0)
(-0.000458581 0.000637491 0)
(-0.00121001 0.00125848 0)
(-0.00224347 0.00174148 0)
(-0.00345065 0.00206342 0)
(-0.00477323 0.00226054 0)
(-0.00616907 0.00238232 0)
(-0.0076149 0.00246904 0)
(-0.00909954 0.00254623 0)
(-0.0106185 0.00262673 0)
(-0.0121703 0.00271514 0)
(-0.013755 0.00281198 0)
(-0.0153737 0.00291624 0)
(-0.0170288 0.00302651 0)
(-0.0187243 0.00314073 0)
(-0.0204652 0.00325533 0)
(-0.0222562 0.00336386 0)
(-0.0240999 0.0034559 0)
(-0.025994 0.00351628 0)
(-0.0279287 0.00352511 0)
(-0.0298838 0.00345844 0)
(-0.0318274 0.0032898 0)
(-0.0337138 0.00299222 0)
(-0.0354845 0.00254086 0)
(-0.0370689 0.00191575 0)
(-0.0383864 0.00110471 0)
(-0.0393495 0.000105683 0)
(-0.0398685 -0.00107075 0)
(-0.0398571 -0.0023987 0)
(-0.0392372 -0.0038379 0)
(-0.0379445 -0.00533317 0)
(-0.0359366 -0.00681585 0)
(-0.0331983 -0.00820703 0)
(-0.0297474 -0.00942256 0)
(-0.0256385 -0.0103789 0)
(-0.0209647 -0.0110006 0)
(-0.0158567 -0.0112275 0)
(-0.0104788 -0.011023 0)
(-0.00502057 -0.0103799 0)
(0.000314177 -0.00932371 0)
(0.00532165 -0.00791355 0)
(0.00981386 -0.00623735 0)
(0.0136341 -0.0044036 0)
(0.0166701 -0.00252958 0)
(0.01886 -0.000728857 0)
(0.0201977 0.000900918 0)
(0.0207275 0.00229049 0)
(0.0205323 0.00340054 0)
(0.0197232 0.00422236 0)
(0.0184243 0.00477374 0)
(0.0167594 0.00509155 0)
(0.014842 0.0052227 0)
(0.0127692 0.00521461 0)
(0.0106201 0.00510523 0)
(0.00845991 0.00491249 0)
(0.00634736 0.00462328 0)
(0.00434884 0.00418384 0)
(0.00253688 0.00349868 0)
(0.0011021 0.00244646 0)
(0.000136294 0.000960438 0)
(-7.84733e-05 0.00034723 0)
(-0.000729537 0.00137373 0)
(-0.00180753 0.00234547 0)
(-0.00322913 0.00306661 0)
(-0.00484091 0.00354042 0)
(-0.0065765 0.0038325 0)
(-0.00838938 0.00401623 0)
(-0.0102547 0.00414773 0)
(-0.0121599 0.00426157 0)
(-0.0140987 0.00437506 0)
(-0.0160685 0.00449526 0)
(-0.0180697 0.0046247 0)
(-0.0201065 0.00476492 0)
(-0.0221879 0.00491753 0)
(-0.0243282 0.00508343 0)
(-0.0265463 0.00526091 0)
(-0.0288633 0.00544327 0)
(-0.0312992 0.00561681 0)
(-0.0338686 0.00575961 0)
(-0.0365762 0.00584156 0)
(-0.0394128 0.00582557 0)
(-0.0423517 0.00566991 0)
(-0.0453465 0.0053314 0)
(-0.0483299 0.0047691 0)
(-0.0512142 0.00394833 0)
(-0.0538928 0.00284481 0)
(-0.0562436 0.00144836 0)
(-0.0581326 -0.000234076 0)
(-0.0594225 -0.00217476 0)
(-0.0599817 -0.00432272 0)
(-0.0596898 -0.00660561 0)
(-0.0584497 -0.00892914 0)
(-0.0561976 -0.0111817 0)
(-0.0529106 -0.0132401 0)
(-0.0486134 -0.0149771 0)
(-0.0433832 -0.0162714 0)
(-0.0373503 -0.017019 0)
(-0.0306971 -0.017144 0)
(-0.0236502 -0.0166097 0)
(-0.0164695 -0.0154262 0)
(-0.00943131 -0.0136539 0)
(-0.00280765 -0.0114009 0)
(0.00315566 -0.00881392 0)
(0.00826015 -0.00606281 0)
(0.0123701 -0.00332178 0)
(0.0154218 -0.000747958 0)
(0.0174219 0.00153221 0)
(0.0184381 0.00343621 0)
(0.0185835 0.00492782 0)
(0.0179994 0.00601295 0)
(0.0168364 0.00673054 0)
(0.0152406 0.00713977 0)
(0.013343 0.00730578 0)
(0.0112553 0.00728446 0)
(0.00907147 0.00710646 0)
(0.00687514 0.00676099 0)
(0.00475358 0.00618113 0)
(0.00279628 0.00523761 0)
(0.00122511 0.00374871 0)
(0.000152866 0.00153508 0)
(-0.000114663 0.000753783 0)
(-0.00100741 0.00240281 0)
(-0.00241664 0.00380033 0)
(-0.00422828 0.00478989 0)
(-0.00624131 0.00542535 0)
(-0.00838099 0.00581474 0)
(-0.0105965 0.00606061 0)
(-0.012862 0.00623616 0)
(-0.0151644 0.00638488 0)
(-0.0174976 0.00652901 0)
(-0.0198607 0.00667973 0)
(-0.0222596 0.00684474 0)
(-0.0247088 0.00703238 0)
(-0.0272336 0.0072521 0)
(-0.0298704 0.00751233 0)
(-0.0326648 0.00781675 0)
(-0.0356672 0.00816019 0)
(-0.0389271 0.00852538 0)
(-0.0424856 0.00888115 0)
(-0.0463686 0.00918259 0)
(-0.0505796 0.00937291 0)
(-0.0550945 0.00938693 0)
(-0.0598571 0.00915555 0)
(-0.0647768 0.00861088 0)
(-0.0697277 0.00769197 0)
(-0.0745515 0.00635099 0)
(-0.0790628 0.00455945 0)
(-0.0830578 0.00231347 0)
(-0.0863239 -0.000361221 0)
(-0.0886573 -0.00340432 0)
(-0.0898717 -0.00672416 0)
(-0.0898095 -0.0101967 0)
(-0.0883567 -0.0136676 0)
(-0.0854491 -0.0169638 0)
(-0.0810795 -0.0199017 0)
(-0.0753044 -0.0223 0)
(-0.0682471 -0.0239927 0)
(-0.0601003 -0.0248453 0)
(-0.0511223 -0.0247699 0)
(-0.0416294 -0.0237398 0)
(-0.0319792 -0.021798 0)
(-0.0225474 -0.0190602 0)
(-0.0136979 -0.0157073 0)
(-0.00575072 -0.0119677 0)
(0.00104688 -0.00809194 0)
(0.0065408 -0.00432228 0)
(0.0106767 -0.000865282 0)
(0.0134925 0.0021289 0)
(0.0151004 0.00457594 0)
(0.0156616 0.00645528 0)
(0.0153618 0.00779894 0)
(0.0143893 0.00867459 0)
(0.0129192 0.0091653 0)
(0.011105 0.00934787 0)
(0.0090782 0.00927035 0)
(0.00695361 0.00892909 0)
(0.00484496 0.00824764 0)
(0.00286377 0.00706309 0)
(0.00125709 0.00512852 0)
(0.000156446 0.00214722 0)
(-0.000151784 0.00130013 0)
(-0.00128827 0.00372711 0)
(-0.003027 0.00562255 0)
(-0.00522313 0.00690671 0)
(-0.0076277 0.00770901 0)
(-0.0101581 0.00819345 0)
(-0.0127593 0.00849743 0)
(-0.0154055 0.00871286 0)
(-0.0180845 0.008893 0)
(-0.0207936 0.00906696 0)
(-0.0235393 0.00925382 0)
(-0.0263411 0.00947218 0)
(-0.0292352 0.0097441 0)
(-0.0322771 0.0100939 0)
(-0.0355405 0.0105435 0)
(-0.0391128 0.0111053 0)
(-0.0430871 0.0117763 0)
(-0.0475521 0.0125324 0)
(-0.0525799 0.0133265 0)
(-0.0582155 0.014089 0)
(-0.0644658 0.0147308 0)
(-0.0712914 0.0151482 0)
(-0.0786004 0.0152294 0)
(-0.0862458 0.0148626 0)
(-0.0940276 0.0139448 0)
(-0.1017 0.012392 0)
(-0.108988 0.0101501 0)
(-0.115601 0.00720297 0)
(-0.12125 0.00357994 0)
(-0.125672 -0.000640601 0)
(-0.128637 -0.00533525 0)
(-0.129947 -0.0103447 0)
(-0.129456 -0.015459 0)
(-0.127071 -0.0204524 0)
(-0.122755 -0.0250791 0)
(-0.116532 -0.0290901 0)
(-0.108496 -0.0322461 0)
(-0.0988201 -0.0343362 0)
(-0.0877633 -0.035198 0)
(-0.0756695 -0.0347381 0)
(-0.0629603 -0.0329515 0)
(-0.0501146 -0.0299335 0)
(-0.0376351 -0.0258811 0)
(-0.0260036 -0.021078 0)
(-0.0156326 -0.0158649 0)
(-0.00682291 -0.0105968 0)
(0.000261852 -0.00559812 0)
(0.00559741 -0.00112448 0)
(0.0092794 0.00265906 0)
(0.0114896 0.00568189 0)
(0.0124581 0.00795542 0)
(0.0124303 0.00955018 0)
(0.0116416 0.0105676 0)
(0.0103024 0.01111 0)
(0.00859443 0.011249 0)
(0.00667478 0.0109951 0)
(0.00469153 0.0102677 0)
(0.00278439 0.00887405 0)
(0.00122134 0.00650486 0)
(0.000150821 0.00275639 0)
(-0.000189689 0.00198815 0)
(-0.00157011 0.00534534 0)
(-0.0036332 0.00780631 0)
(-0.00620431 0.00940715 0)
(-0.00898759 0.0103781 0)
(-0.0118937 0.0109527 0)
(-0.0148646 0.0113088 0)
(-0.0178755 0.0115596 0)
(-0.0209184 0.0117704 0)
(-0.0239993 0.0119815 0)
(-0.0271404 0.0122269 0)
(-0.030387 0.0125449 0)
(-0.0338122 0.012981 0)
(-0.0375183 0.0135831 0)
(-0.0416331 0.0143922 0)
(-0.0463 0.0154311 0)
(-0.0516635 0.0166944 0)
(-0.0578524 0.018142 0)
(-0.0649618 0.0196966 0)
(-0.0730365 0.0212449 0)
(-0.0820568 0.0226433 0)
(-0.0919271 0.0237253 0)
(-0.102472 0.0243126 0)
(-0.11344 0.0242293 0)
(-0.124515 0.0233181 0)
(-0.135344 0.0214579 0)
(-0.145562 0.0185786 0)
(-0.154815 0.0146714 0)
(-0.162786 0.00978966 0)
(-0.169198 0.00404638 0)
(-0.17383 -0.0023879 0)
(-0.17649 -0.00929684 0)
(-0.177023 -0.016444 0)
(-0.175333 -0.0235498 0)
(-0.171341 -0.0303183 0)
(-0.165023 -0.0364385 0)
(-0.156405 -0.0416003 0)
(-0.145591 -0.0455079 0)
(-0.132774 -0.0479033 0)
(-0.118261 -0.0485929 0)
(-0.102475 -0.047478 0)
(-0.085958 -0.0445831 0)
(-0.0693386 -0.0400745 0)
(-0.0532863 -0.0342609 0)
(-0.0384405 -0.0275686 0)
(-0.0253341 -0.02049 0)
(-0.0143294 -0.0135159 0)
(-0.00558525 -0.00706648 0)
(0.00093384 -0.00144236 0)
(0.00541547 0.00319411 0)
(0.00814125 0.00680865 0)
(0.00943176 0.00946424 0)
(0.00960487 0.0112806 0)
(0.00894991 0.0123915 0)
(0.00771775 0.0129018 0)
(0.00612295 0.0128453 0)
(0.00435931 0.0121468 0)
(0.00260249 0.0105919 0)
(0.00114073 0.00781802 0)
(0.000139457 0.00333446 0)
(-0.000228164 0.00281891 0)
(-0.0018512 0.00725407 0)
(-0.00423138 0.0103429 0)
(-0.00716586 0.0122788 0)
(-0.0103139 0.0134183 0)
(-0.0135814 0.0140774 0)
(-0.0169087 0.0144805 0)
(-0.0202752 0.0147656 0)
(-0.0236814 0.015015 0)
(-0.0271498 0.0152877 0)
(-0.0307305 0.0156429 0)
(-0.0345097 0.0161511 0)
(-0.0386152 0.0168931 0)
(-0.0432138 0.0179487 0)
(-0.0485015 0.0193807 0)
(-0.0546844 0.0212171 0)
(-0.061955 0.0234377 0)
(-0.070466 0.0259658 0)
(-0.0803048 0.0286667 0)
(-0.0914708 0.0313523 0)
(-0.103859 0.0337902 0)
(-0.117255 0.0357194 0)
(-0.131338 0.036872 0)
(-0.145711 0.0369998 0)
(-0.159934 0.0359035 0)
(-0.17357 0.0334544 0)
(-0.186217 0.0296065 0)
(-0.197534 0.0243959 0)
(-0.207247 0.0179302 0)
(-0.215138 0.0103742 0)
(-0.221038 0.00194197 0)
(-0.224827 -0.00711255 0)
(-0.226384 -0.0165241 0)
(-0.225604 -0.0259921 0)
(-0.222382 -0.0351978 0)
(-0.216626 -0.0437957 0)
(-0.20826 -0.0514249 0)
(-0.197258 -0.0577148 0)
(-0.183668 -0.0623056 0)
(-0.167655 -0.0648761 0)
(-0.149536 -0.0651833 0)
(-0.129804 -0.0631086 0)
(-0.109134 -0.0587039 0)
(-0.0883469 -0.0522228 0)
(-0.068341 -0.0441242 0)
(-0.0499765 -0.0350303 0)
(-0.0339528 -0.0256421 0)
(-0.0207066 -0.0166265 0)
(-0.0103714 -0.00851321 0)
(-0.00281021 -0.00163458 0)
(0.00230058 0.00387915 0)
(0.00537618 0.00806053 0)
(0.00684751 0.0110446 0)
(0.00711416 0.0130048 0)
(0.00652355 0.0140921 0)
(0.0053694 0.014379 0)
(0.00390693 0.013809 0)
(0.00235846 0.0121592 0)
(0.00103625 0.00902877 0)
(0.00012554 0.00386509 0)
(-0.000266903 0.00379251 0)
(-0.00212954 0.00944802 0)
(-0.00481786 0.013222 0)
(-0.00810296 0.0155084 0)
(-0.0116019 0.0168156 0)
(-0.0152183 0.0175549 0)
(-0.0188936 0.0180039 0)
(-0.0226152 0.0183307 0)
(-0.0263991 0.0186424 0)
(-0.0302951 0.0190281 0)
(-0.0343954 0.0195867 0)
(-0.0388452 0.0204359 0)
(-0.0438443 0.0217032 0)
(-0.049638 0.0235054 0)
(-0.0564954 0.0259213 0)
(-0.0646772 0.0289679 0)
(-0.074399 0.0325824 0)
(-0.0857943 0.0366148 0)
(-0.0988815 0.0408301 0)
(-0.11354 0.0449193 0)
(-0.1295 0.0485214 0)
(-0.146359 0.0512562 0)
(-0.163619 0.0527674 0)
(-0.180741 0.0527663 0)
(-0.197213 0.0510638 0)
(-0.21259 0.0475842 0)
(-0.226526 0.0423583 0)
(-0.238774 0.0355051 0)
(-0.249181 0.0272074 0)
(-0.257657 0.0176882 0)
(-0.264146 0.00719273 0)
(-0.268618 -0.0040184 0)
(-0.271031 -0.0156634 0)
(-0.271309 -0.027469 0)
(-0.269336 -0.0391277 0)
(-0.264956 -0.0503083 0)
(-0.257983 -0.0606393 0)
(-0.248223 -0.0697129 0)
(-0.235513 -0.0770892 0)
(-0.219772 -0.0823192 0)
(-0.201064 -0.0849829 0)
(-0.179664 -0.0847479 0)
(-0.15611 -0.0814414 0)
(-0.131226 -0.0751263 0)
(-0.106084 -0.0661585 0)
(-0.0818952 -0.0551961 0)
(-0.0598363 -0.0431347 0)
(-0.0408421 -0.0309639 0)
(-0.0254428 -0.0195813 0)
(-0.0137149 -0.00963589 0)
(-0.00536275 -0.00146247 0)
(0.000126021 0.00488512 0)
(0.0033338 0.00954311 0)
(0.00481676 0.0127344 0)
(0.00506025 0.0146759 0)
(0.00446933 0.0155005 0)
(0.00338368 0.0151916 0)
(0.00208753 0.0135366 0)
(0.000926538 0.0101161 0)
(0.000111933 0.00434258 0)
(-0.000305501 0.00490785 0)
(-0.00240275 0.0119201 0)
(-0.00538866 0.0164316 0)
(-0.00901086 0.0190822 0)
(-0.0128475 0.0205572 0)
(-0.0168031 0.0213764 0)
(-0.0208235 0.0218777 0)
(-0.0249098 0.0222675 0)
(-0.0291025 0.0226888 0)
(-0.0334914 0.0232764 0)
(-0.0382276 0.0241867 0)
(-0.0435321 0.0255996 0)
(-0.0496905 0.0276976 0)
(-0.0570299 0.0306293 0)
(-0.0658801 0.0344701 0)
(-0.076524 0.0391905 0)
(-0.0891459 0.0446376 0)
(-0.103785 0.0505319 0)
(-0.120302 0.0564796 0)
(-0.138365 0.0620026 0)
(-0.157472 0.0665869 0)
(-0.177006 0.0697466 0)
(-0.196316 0.0710886 0)
(-0.214796 0.0703585 0)
(-0.231954 0.0674572 0)
(-0.24744 0.0624282 0)
(-0.26105 0.0554267 0)
(-0.272712 0.0466802 0)
(-0.282447 0.0364534 0)
(-0.290337 0.02502 0)
(-0.296478 0.0126427 0)
(-0.300955 -0.00043449 0)
(-0.303827 -0.0139786 0)
(-0.305085 -0.0277543 0)
(-0.304628 -0.0415234 0)
(-0.30228 -0.0550142 0)
(-0.297774 -0.0679086 0)
(-0.290773 -0.0798204 0)
(-0.280894 -0.0902896 0)
(-0.267758 -0.0987829 0)
(-0.251068 -0.104721 0)
(-0.230702 -0.107527 0)
(-0.20682 -0.106715 0)
(-0.179963 -0.102 0)
(-0.151111 -0.0934224 0)
(-0.121646 -0.0814524 0)
(-0.0932111 -0.0670152 0)
(-0.0674261 -0.0513903 0)
(-0.0455547 -0.03597 0)
(-0.0282386 -0.0219497 0)
(-0.0154462 -0.0100942 0)
(-0.00664817 -0.000687311 0)
(-0.00108689 0.00635463 0)
(0.00201328 0.0113078 0)
(0.00333905 0.0144835 0)
(0.00345715 0.0161088 0)
(0.0028273 0.0162388 0)
(0.00181898 0.0146989 0)
(0.000827739 0.0110747 0)
(0.000101154 0.0047706 0)
(-0.00034345 0.00616235 0)
(-0.00266798 0.0146612 0)
(-0.00593913 0.0199588 0)
(-0.00988404 0.0229864 0)
(-0.014046 0.0246321 0)
(-0.0183336 0.0255368 0)
(-0.0227019 0.0261082 0)
(-0.0271724 0.0266012 0)
(-0.0318209 0.0272105 0)
(-0.0367915 0.0281355 0)
(-0.04231 0.0296088 0)
(-0.048686 0.0318847 0)
(-0.0562936 0.0351981 0)
(-0.0655274 0.039708 0)
(-0.0767404 0.045445 0)
(-0.090175 0.0522746 0)
(-0.1059 0.0598838 0)
(-0.12376 0.0677926 0)
(-0.143365 0.0753919 0)
(-0.164104 0.0820109 0)
(-0.18523 0.0870074 0)
(-0.205957 0.0898602 0)
(-0.225572 0.0902365 0)
(-0.243518 0.0880151 0)
(-0.259435 0.0832678 0)
(-0.273166 0.0762128 0)
(-0.284725 0.0671565 0)
(-0.294254 0.0564396 0)
(-0.301974 0.0443955 0)
(-0.308137 0.0313245 0)
(-0.312987 0.01748 0)
(-0.316729 0.00306239 0)
(-0.319501 -0.0117666 0)
(-0.321365 -0.0268503 0)
(-0.322286 -0.042048 0)
(-0.322114 -0.0571929 0)
(-0.320583 -0.0720743 0)
(-0.317297 -0.0864007 0)
(-0.311741 -0.0997761 0)
(-0.303305 -0.111677 0)
(-0.291338 -0.121447 0)
(-0.275244 -0.128323 0)
(-0.254616 -0.131498 0)
(-0.229404 -0.130241 0)
(-0.200082 -0.124069 0)
(-0.167767 -0.112949 0)
(-0.13422 -0.0974764 0)
(-0.101647 -0.0789368 0)
(-0.0722717 -0.0591518 0)
(-0.047795 -0.0400716 0)
(-0.028971 -0.0232608 0)
(-0.0155743 -0.00956442 0)
(-0.00674983 0.000873808 0)
(-0.00144652 0.0083465 0)
(0.0013132 0.0132918 0)
(0.00233633 0.0160823 0)
(0.00225947 0.0168937 0)
(0.00157429 0.0156296 0)
(0.000752861 0.0119114 0)
(9.5296e-05 0.00516089 0)
(-0.000380113 0.00755162 0)
(-0.00292172 0.0176598 0)
(-0.00646356 0.0237886 0)
(-0.0107155 0.0272072 0)
(-0.0151907 0.0290307 0)
(-0.0198053 0.0300352 0)
(-0.0245288 0.0307087 0)
(-0.0294114 0.0313693 0)
(-0.0345753 0.0322817 0)
(-0.0402329 0.0337314 0)
(-0.0466964 0.0360434 0)
(-0.0543674 0.0395485 0)
(-0.0636939 0.0445142 0)
(-0.0750986 0.0510649 0)
(-0.0888916 0.0591181 0)
(-0.105186 0.0683523 0)
(-0.12383 0.0782114 0)
(-0.144385 0.0879496 0)
(-0.166142 0.0967182 0)
(-0.188219 0.103687 0)
(-0.209682 0.108174 0)
(-0.229696 0.109743 0)
(-0.247625 0.10824 0)
(-0.263094 0.103775 0)
(-0.275987 0.0966489 0)
(-0.28641 0.0872784 0)
(-0.294626 0.0761133 0)
(-0.300989 0.0635793 0)
(-0.305883 0.0500412 0)
(-0.309675 0.0357874 0)
(-0.312693 0.0210284 0)
(-0.315201 0.0059059 0)
(-0.31738 -0.00948981 0)
(-0.319336 -0.0251048 0)
(-0.321097 -0.0408946 0)
(-0.322592 -0.0568123 0)
(-0.323636 -0.0727771 0)
(-0.323905 -0.0886443 0)
(-0.322917 -0.104164 0)
(-0.32001 -0.118938 0)
(-0.314357 -0.132379 0)
(-0.305009 -0.143686 0)
(-0.291006 -0.151861 0)
(-0.271555 -0.155779 0)
(-0.246272 -0.154354 0)
(-0.215461 -0.146788 0)
(-0.180337 -0.1329 0)
(-0.143091 -0.113422 0)
(-0.106642 -0.0901381 0)
(-0.0740019 -0.0656339 0)
(-0.0474107 -0.0426142 0)
(-0.0276845 -0.0230618 0)
(-0.0142665 -0.00780226 0)
(-0.00587871 0.00328923 0)
(-0.0011562 0.0107784 0)
(0.00106149 0.0152529 0)
(0.00167695 0.0170837 0)
(0.00136321 0.0163136 0)
(0.000710365 0.0126417 0)
(9.58466e-05 0.0055315 0)
(-0.000414707 0.00906902 0)
(-0.00315968 0.0209013 0)
(-0.00695483 0.0279043 0)
(-0.0114962 0.0317297 0)
(-0.0162716 0.033744 0)
(-0.021209 0.0348728 0)
(-0.0262977 0.035698 0)
(-0.031625 0.0366176 0)
(-0.0373704 0.037988 0)
(-0.0438249 0.0402004 0)
(-0.051391 0.0436808 0)
(-0.0605496 0.0488219 0)
(-0.071786 0.0558791 0)
(-0.0854862 0.0648689 0)
(-0.101829 0.0755038 0)
(-0.120695 0.0871809 0)
(-0.141627 0.0990269 0)
(-0.163844 0.110003 0)
(-0.186338 0.119059 0)
(-0.208033 0.12531 0)
(-0.227958 0.128176 0)
(-0.245389 0.127448 0)
(-0.259927 0.123266 0)
(-0.2715 0.11603 0)
(-0.280307 0.106288 0)
(-0.286731 0.0946283 0)
(-0.291251 0.0815919 0)
(-0.294362 0.067629 0)
(-0.296521 0.0530788 0)
(-0.298112 0.0381725 0)
(-0.299444 0.02305 0)
(-0.300749 0.00778367 0)
(-0.302182 -0.00760333 0)
(-0.303846 -0.0231268 0)
(-0.305797 -0.0388173 0)
(-0.30804 -0.0547129 0)
(-0.310516 -0.0708417 0)
(-0.313068 -0.0872008 0)
(-0.315402 -0.103721 0)
(-0.317036 -0.120214 0)
(-0.317246 -0.136309 0)
(-0.315042 -0.151377 0)
(-0.309193 -0.164476 0)
(-0.298335 -0.17433 0)
(-0.28119 -0.17941 0)
(-0.256912 -0.178141 0)
(-0.2255 -0.169269 0)
(-0.188201 -0.152363 0)
(-0.147683 -0.128325 0)
(-0.107743 -0.099632 0)
(-0.0723788 -0.0699445 0)
(-0.0444245 -0.0429441 0)
(-0.0246049 -0.0209993 0)
(-0.0118353 -0.00471568 0)
(-0.00434655 0.0064519 0)
(-0.000487735 0.0133658 0)
(0.0010381 0.0166985 0)
(0.00117747 0.0167245 0)
(0.000701776 0.0132821 0)
(0.000103383 0.00590417 0)
(-0.00044628 0.0107052 0)
(-0.00337667 0.0243676 0)
(-0.00740408 0.0322859 0)
(-0.0122143 0.0365371 0)
(-0.017275 0.0387623 0)
(-0.0225298 0.0400518 0)
(-0.0279932 0.0410965 0)
(-0.0337972 0.0423944 0)
(-0.040187 0.0444148 0)
(-0.0475361 0.0476692 0)
(-0.0563281 0.0526782 0)
(-0.0670922 0.0598581 0)
(-0.0802919 0.0693795 0)
(-0.0961931 0.0810529 0)
(-0.114748 0.0942828 0)
(-0.135524 0.108101 0)
(-0.157712 0.121285 0)
(-0.180214 0.13254 0)
(-0.201823 0.140731 0)
(-0.221429 0.145079 0)
(-0.23821 0.145274 0)
(-0.251731 0.141464 0)
(-0.261954 0.134148 0)
(-0.26917 0.124025 0)
(-0.273883 0.111842 0)
(-0.276695 0.0982779 0)
(-0.278201 0.0838814 0)
(-0.278922 0.0690468 0)
(-0.279268 0.0540255 0)
(-0.279539 0.0389532 0)
(-0.279934 0.023883 0)
(-0.280575 0.00881841 0)
(-0.281533 -0.00626576 0)
(-0.282854 -0.0214148 0)
(-0.284581 -0.0366857 0)
(-0.286753 -0.0521432 0)
(-0.289411 -0.0678611 0)
(-0.292566 -0.0839176 0)
(-0.29617 -0.100379 0)
(-0.300046 -0.117266 0)
(-0.30381 -0.134485 0)
(-0.306778 -0.151738 0)
(-0.307884 -0.168404 0)
(-0.305664 -0.183421 0)
(-0.298343 -0.19522 0)
(-0.28409 -0.201785 0)
(-0.261466 -0.200905 0)
(-0.230037 -0.190697 0)
(-0.191008 -0.170377 0)
(-0.147586 -0.141082 0)
(-0.104649 -0.10629 0)
(-0.0673618 -0.0711529 0)
(-0.0390921 -0.0405177 0)
(-0.0201554 -0.0169236 0)
(-0.00871892 -0.000438197 0)
(-0.00253688 0.0100222 0)
(0.000246166 0.0155575 0)
(0.000982692 0.0168067 0)
(0.000718577 0.0138405 0)
(0.000117192 0.00630052 0)
(-0.000473708 0.0124477 0)
(-0.00356652 0.0280359 0)
(-0.00780062 0.0369098 0)
(-0.0128548 0.0416096 0)
(-0.0181825 0.0440733 0)
(-0.0237455 0.0455716 0)
(-0.0295885 0.046922 0)
(-0.035894 0.0487425 0)
(-0.0429758 0.0516338 0)
(-0.0512844 0.0562309 0)
(-0.0613606 0.0631222 0)
(-0.073732 0.0726828 0)
(-0.0887667 0.0849006 0)
(-0.106525 0.0992712 0)
(-0.126659 0.114799 0)
(-0.148387 0.130108 0)
(-0.170574 0.143658 0)
(-0.191914 0.15402 0)
(-0.211167 0.160146 0)
(-0.227391 0.161553 0)
(-0.240091 0.158348 0)
(-0.249238 0.151111 0)
(-0.255202 0.140699 0)
(-0.258601 0.128041 0)
(-0.260158 0.113981 0)
(-0.260564 0.0991814 0)
(-0.260397 0.0840968 0)
(-0.260086 0.0689925 0)
(-0.259899 0.0539865 0)
(-0.259978 0.0391 0)
(-0.260369 0.024302 0)
(-0.26106 0.00954382 0)
(-0.262018 -0.00522252 0)
(-0.263215 -0.0200391 0)
(-0.26465 -0.0349442 0)
(-0.266359 -0.0499775 0)
(-0.268421 -0.0651942 0)
(-0.270947 -0.0806747 0)
(-0.274067 -0.0965314 0)
(-0.277876 -0.112899 0)
(-0.282368 -0.129901 0)
(-0.287325 -0.147573 0)
(-0.292184 -0.165741 0)
(-0.29589 -0.183844 0)
(-0.296815 -0.200739 0)
(-0.292799 -0.214559 0)
(-0.28142 -0.222717 0)
(-0.260561 -0.222213 0)
(-0.229254 -0.210357 0)
(-0.188634 -0.18592 0)
(-0.14257 -0.150441 0)
(-0.0972674 -0.108885 0)
(-0.0591974 -0.0684181 0)
(-0.0319574 -0.0350594 0)
(-0.0149406 -0.0109951 0)
(-0.00543991 0.00460984 0)
(-0.000865667 0.0133658 0)
(0.000710713 0.0164493 0)
(0.000739465 0.0143018 0)
(0.000135185 0.00673682 0)
(-0.000495714 0.0142799 0)
(-0.00372216 0.0318784 0)
(-0.00813195 0.0417471 0)
(-0.0133998 0.0469229 0)
(-0.0189706 0.04966 0)
(-0.0248264 0.0514263 0)
(-0.0310449 0.0531837 0)
(-0.037861 0.0556891 0)
(-0.0456538 0.0596856 0)
(-0.0549339 0.0659191 0)
(-0.0662605 0.0749955 0)
(-0.0800987 0.0871592 0)
(-0.096647 0.102106 0)
(-0.115695 0.118918 0)
(-0.136563 0.136143 0)
(-0.158148 0.152021 0)
(-0.179095 0.164804 0)
(-0.198051 0.173102 0)
(-0.21394 0.176165 0)
(-0.226161 0.173968 0)
(-0.234656 0.167123 0)
(-0.239833 0.156635 0)
(-0.242406 0.14364 0)
(-0.243211 0.129173 0)
(-0.243037 0.114044 0)
(-0.242526 0.0987837 0)
(-0.242121 0.0836726 0)
(-0.242071 0.068801 0)
(-0.242459 0.05414 0)
(-0.243254 0.0396054 0)
(-0.244358 0.0251044 0)
(-0.245647 0.010564 0)
(-0.247002 -0.00405907 0)
(-0.248338 -0.0187782 0)
(-0.249612 -0.033586 0)
(-0.250835 -0.0484699 0)
(-0.252081 -0.0634288 0)
(-0.253489 -0.0784933 0)
(-0.255258 -0.0937441 0)
(-0.25763 -0.109326 0)
(-0.260853 -0.125448 0)
(-0.265098 -0.142351 0)
(-0.270339 -0.160226 0)
(-0.276172 -0.179059 0)
(-0.28161 -0.198389 0)
(-0.284912 -0.217019 0)
(-0.283564 -0.232755 0)
(-0.274551 -0.242347 0)
(-0.25504 -0.241841 0)
(-0.223509 -0.227566 0)
(-0.181096 -0.19784 0)
(-0.132574 -0.154977 0)
(-0.0857982 -0.106191 0)
(-0.0485238 -0.0612071 0)
(-0.0238577 -0.0267422 0)
(-0.00967765 -0.00376439 0)
(-0.00253946 0.00966529 0)
(0.000256238 0.0154575 0)
(0.00072972 0.0146112 0)
(0.000154172 0.00721704 0)
(-0.000510918 0.0161815 0)
(-0.00383586 0.0358607 0)
(-0.00838411 0.0467632 0)
(-0.013829 0.0524466 0)
(-0.0196119 0.0554988 0)
(-0.0257358 0.0576007 0)
(-0.0323118 0.059876 0)
(-0.0396242 0.0632354 0)
(-0.0481065 0.0685641 0)
(-0.058301 0.0766873 0)
(-0.070738 0.0881564 0)
(-0.0857585 0.102983 0)
(-0.103335 0.120467 0)
(-0.122957 0.13921 0)
(-0.143639 0.157308 0)
(-0.164048 0.172706 0)
(-0.182756 0.183618 0)
(-0.198546 0.188906 0)
(-0.21067 0.188293 0)
(-0.21897 0.18232 0)
(-0.223837 0.172102 0)
(-0.226043 0.158985 0)
(-0.226519 0.144241 0)
(-0.226156 0.128866 0)
(-0.225667 0.113506 0)
(-0.22553 0.0984734 0)
(-0.225982 0.0838328 0)
(-0.227066 0.0694943 0)
(-0.228689 0.0553025 0)
(-0.23068 0.0411006 0)
(-0.232841 0.0267689 0)
(-0.234978 0.0122404 0)
(-0.236931 -0.0024991 0)
(-0.238579 -0.0174194 0)
(-0.239856 -0.0324596 0)
(-0.240747 -0.0475461 0)
(-0.241303 -0.0626113 0)
(-0.24164 -0.0776147 0)
(-0.241952 -0.0925671 0)
(-0.24251 -0.107555 0)
(-0.243658 -0.122765 0)
(-0.245775 -0.138492 0)
(-0.249206 -0.155112 0)
(-0.25411 -0.172997 0)
(-0.26025 -0.192316 0)
(-0.266708 -0.212721 0)
(-0.271638 -0.232937 0)
(-0.272172 -0.25037 0)
(-0.264696 -0.260957 0)
(-0.24568 -0.259594 0)
(-0.213137 -0.241501 0)
(-0.168454 -0.204722 0)
(-0.117737 -0.153097 0)
(-0.0708665 -0.0972168 0)
(-0.0364464 -0.0496097 0)
(-0.0158166 -0.0163202 0)
(-0.00507917 0.0037926 0)
(-0.000516132 0.0135228 0)
(0.000642569 0.014659 0)
(0.000169653 0.0077268 0)
(-0.000517915 0.0181272 0)
(-0.00389957 0.0399421 0)
(-0.00854231 0.0519163 0)
(-0.01412 0.0581431 0)
(-0.0200756 0.061557 0)
(-0.0264312 0.0640668 0)
(-0.0333286 0.0669727 0)
(-0.0410937 0.0713474 0)
(-0.0501946 0.0782045 0)
(-0.0611708 0.0883987 0)
(-0.0744751 0.102341 0)
(-0.0902761 0.119709 0)
(-0.108293 0.139332 0)
(-0.127736 0.15931 0)
(-0.147385 0.177355 0)
(-0.165806 0.191265 0)
(-0.18166 0.199414 0)
(-0.194015 0.201109 0)
(-0.202545 0.196668 0)
(-0.207543 0.187216 0)
(-0.209778 0.174289 0)
(-0.210246 0.159429 0)
(-0.209933 0.14388 0)
(-0.209643 0.128459 0)
(-0.209906 0.113556 0)
(-0.210976 0.0992245 0)
(-0.212874 0.0853162 0)
(-0.215463 0.0715923 0)
(-0.218519 0.0578146 0)
(-0.221784 0.0437973 0)
(-0.225014 0.0294285 0)
(-0.227994 0.014672 0)
(-0.230554 -0.000443689 0)
(-0.232573 -0.0158401 0)
(-0.233974 -0.0314054 0)
(-0.234728 -0.0470115 0)
(-0.234858 -0.0625309 0)
(-0.234441 -0.0778547 0)
(-0.233623 -0.092915 0)
(-0.23263 -0.107712 0)
(-0.231782 -0.122345 0)
(-0.231503 -0.137052 0)
(-0.232292 -0.152228 0)
(-0.23465 -0.168412 0)
(-0.23892 -0.186183 0)
(-0.245013 -0.205917 0)
(-0.252051 -0.227366 0)
(-0.258027 -0.249092 0)
(-0.259654 -0.267927 0)
(-0.252691 -0.278749 0)
(-0.232975 -0.275062 0)
(-0.198295 -0.250953 0)
(-0.150774 -0.20474 0)
(-0.0985207 -0.143181 0)
(-0.0537102 -0.0816709 0)
(-0.0244595 -0.0346383 0)
(-0.00881929 -0.00514076 0)
(-0.00175875 0.0101982 0)
(0.000427384 0.0142681 0)
(0.000176549 0.00822968 0)
(-0.000515382 0.0200878 0)
(-0.00390545 0.0440749 0)
(-0.00859174 0.0571578 0)
(-0.0142501 0.0639666 0)
(-0.0203295 0.0677914 0)
(-0.0268671 0.070781 0)
(-0.0340294 0.0744229 0)
(-0.04217 0.0799506 0)
(-0.0517674 0.0884791 0)
(-0.0633219 0.10083 0)
(-0.0771687 0.117186 0)
(-0.0932788 0.13681 0)