/*--------------------------------*- C++ -*----------------------------------*\
| =========                 |                                                 |
| \\      /  F ield         | OpenFOAM: The Open Source CFD Toolbox           |
|  \\    /   O peration     | Version:  2406                                  |
|   \\  /    A nd           | Website:  www.openfoam.com                      |
|    \\/     M anipulation  |                                                 |
\*---------------------------------------------------------------------------*/
FoamFile
{
    version     2.0;
    format      ascii;
    arch        "LSB;label=32;scalar=64";
    class       volScalarField;
    location    "13.6";
    object      p;
}
// * * * * * * * * * * * * * * * * * * * * * * * * * * * * * * * * * * * * * //

dimensions      [0 2 -2 0 0 0 0];

internalField   nonuniform List<scalar> 
900
(
-6.54751e-09
-1.83074e-05
-4.82686e-05
-8.62704e-05
-0.000131479
-0.000180233
-0.000226506
-0.000262226
-0.000277778
-0.000261955
-0.000201723
-8.22013e-05
0.000113192
0.000400534
0.000789912
0.00127756
0.0018352
0.00240314
0.00288993
0.00318701
0.00320885
0.00294083
0.00246024
0.00190632
0.00140824
0.00103396
0.000789855
0.000649463
0.000587743
0.000572871
2.04742e-05
1.95102e-06
-2.80774e-05
-6.52071e-05
-0.000110783
-0.000160901
-0.000209355
-0.000248369
-0.000269266
-0.00026241
-0.000216572
-0.000117785
5.02293e-05
0.000304965
0.000661468
0.00112502
0.00167793
0.00226427
0.00278358
0.00311197
0.00314817
0.00286875
0.00235618
0.00177227
0.00127048
0.000922879
0.000716744
0.000607453
0.000565426
0.000556184
4.47424e-05
2.58099e-05
-5.65638e-06
-4.36945e-05
-9.32585e-05
-0.000150652
-0.000210208
-0.000265151
-0.000308406
-0.000332292
-0.000328011
-0.000284806
-0.000187886
-1.37758e-05
0.000263822
0.000658383
0.00116281
0.00174245
0.00230101
0.00270706
0.00283272
0.00261752
0.0021229
0.00152601
0.0010196
0.000700077
0.000544242
0.000482983
0.000470844
0.000469952
5.39903e-05
3.45799e-05
-9.80333e-07
-4.48323e-05
-0.000105735
-0.000180995
-0.000266439
-0.000357109
-0.000449129
-0.000540648
-0.000632169
-0.000721618
-0.000795281
-0.000829722
-0.000792376
-0.000629247
-0.000297085
0.000193511
0.000785646
0.00136385
0.00177527
0.00188879
0.00166691
0.00121307
0.000736939
0.0004182
0.000292831
0.000273499
0.000290832
0.000301568
2.3822e-05
4.05373e-06
-3.78453e-05
-9.26267e-05
-0.000172251
-0.000275279
-0.000400011
-0.000546097
-0.00071962
-0.000937099
-0.0012254
-0.0016123
-0.00210367
-0.00265948
-0.00318649
-0.0035379
-0.00358456
-0.00330377
-0.00272111
-0.00190502
-0.000989837
-0.000160991
0.000385681
0.000553264
0.000424231
0.000204376
5.98498e-05
4.262e-05
6.57742e-05
7.68658e-05
-7.03674e-05
-9.14172e-05
-0.000142308
-0.000213102
-0.000318267
-0.00045812
-0.000636176
-0.000864474
-0.00117529
-0.00163406
-0.00233421
-0.00334037
-0.00462071
-0.00601788
-0.00729278
-0.00823366
-0.00871697
-0.00869724
-0.00817727
-0.00719819
-0.00584112
-0.00424258
-0.00260925
-0.00122157
-0.00034831
-3.89155e-05
-6.6433e-05
-0.00016476
-0.000169261
-0.000182773
-0.000249675
-0.000273628
-0.000336432
-0.000427968
-0.000564855
-0.000751095
-0.00100199
-0.00135873
-0.00191583
-0.00283141
-0.00426065
-0.00620192
-0.00842792
-0.0105974
-0.0124025
-0.0136747
-0.0143759
-0.0144902
-0.0140386
-0.0130726
-0.0116191
-0.00968278
-0.00730991
-0.0047236
-0.00238393
-0.000825054
-0.000251617
-0.000360869
-0.000442496
-0.000485068
-0.000528759
-0.000557685
-0.000635495
-0.000752576
-0.000928325
-0.00117495
-0.00153172
-0.00209648
-0.00306711
-0.00469356
-0.00707053
-0.00995811
-0.0128846
-0.01542
-0.0173413
-0.0186065
-0.0192433
-0.0192854
-0.0188147
-0.0178964
-0.0165497
-0.0147398
-0.012371
-0.00937305
-0.00595825
-0.0028599
-0.000960792
-0.000433122
-0.000834779
-0.000840496
-0.000914093
-0.000950489
-0.00104692
-0.00119551
-0.00142042
-0.00174886
-0.00225954
-0.00313578
-0.00468812
-0.00717367
-0.0104584
-0.0140014
-0.0172347
-0.0198513
-0.0217663
-0.0229826
-0.0235202
-0.0234403
-0.0228176
-0.0217519
-0.0203447
-0.0186397
-0.016543
-0.0138073
-0.0102523
-0.00619198
-0.00273562
-0.00107385
-0.00136702
-0.00136061
-0.00140307
-0.00144977
-0.00156927
-0.00175714
-0.00204492
-0.00248146
-0.00319778
-0.00447565
-0.00670022
-0.0100116
-0.0139776
-0.0178738
-0.0212444
-0.0239864
-0.0260991
-0.0275151
-0.0281385
-0.0279559
-0.0270457
-0.0255793
-0.0237752
-0.0218145
-0.0197253
-0.0172949
-0.0141567
-0.0100908
-0.00571123
-0.00245092
-0.00126675
-0.00223343
-0.00198372
-0.00204381
-0.00219107
-0.00242666
-0.00279118
-0.00335861
-0.00431711
-0.00603348
-0.00890845
-0.0128891
-0.017303
-0.021426
-0.0250245
-0.0281384
-0.0307058
-0.0325086
-0.0333176
-0.0330415
-0.0317684
-0.0297398
-0.0272911
-0.024754
-0.0223193
-0.0198994
-0.0171958
-0.0136984
-0.0091161
-0.00429089
-0.00197676
-0.00351598
-0.00263526
-0.00271121
-0.00288978
-0.0031796
-0.00362976
-0.00433799
-0.00554292
-0.00766534
-0.0110768
-0.0155465
-0.0202686
-0.0246366
-0.0286247
-0.0323141
-0.0354915
-0.0377602
-0.038775
-0.0384006
-0.0367398
-0.0340968
-0.0309029
-0.0276092
-0.0245773
-0.0218807
-0.0193793
-0.0164651
-0.0122042
-0.00683167
-0.00423691
-0.00423166
-0.00333014
-0.00342277
-0.00363318
-0.00397857
-0.00451381
-0.00535388
-0.00677076
-0.00920797
-0.0129971
-0.0178008
-0.022769
-0.0274261
-0.0318898
-0.0362076
-0.039999
-0.042712
-0.0439112
-0.043426
-0.0413948
-0.0381836
-0.0342928
-0.0302415
-0.0265369
-0.0234035
-0.0208503
-0.0182835
-0.0146158
-0.00951286
-0.00613193
-0.00365813
-0.00403658
-0.00414388
-0.00438207
-0.00477774
-0.0053863
-0.00633003
-0.00789244
-0.0105164
-0.0145093
-0.0195098
-0.0246786
-0.0296115
-0.0345024
-0.039346
-0.0436259
-0.0466793
-0.0480097
-0.0474238
-0.0450929
-0.0414278
-0.0369854
-0.0323184
-0.0280373
-0.0244681
-0.0217233
-0.0193173
-0.0163227
-0.0118062
-0.00736103
-0.00280894
-0.00472301
-0.00483974
-0.00509654
-0.00553037
-0.00618964
-0.00719428
-0.00881768
-0.0114843
-0.0155027
-0.0205618
-0.0258571
-0.0309704
-0.0361227
-0.0412763
-0.045836
-0.0490782
-0.0504908
-0.0498293
-0.0473032
-0.0433445
-0.0385664
-0.033508
-0.0288561
-0.0249681
-0.0220466
-0.0197305
-0.0173413
-0.0135087
-0.00875594
-0.00321179
-0.00536171
-0.00547848
-0.00574131
-0.00619549
-0.00687558
-0.00789175
-0.00948763
-0.0120577
-0.0159296
-0.0208772
-0.0261804
-0.0313229
-0.0365337
-0.041715
-0.046286
-0.0495191
-0.0509742
-0.0502561
-0.0476762
-0.0436344
-0.0387841
-0.0335938
-0.0288337
-0.0247954
-0.0218611
-0.0196083
-0.0177352
-0.014579
-0.0104017
-0.00488005
-0.00593028
-0.00603846
-0.00629376
-0.00674359
-0.00741116
-0.00839005
-0.00987943
-0.0122336
-0.0158004
-0.0204412
-0.0255556
-0.0306571
-0.0357058
-0.0406182
-0.0449364
-0.0480075
-0.0493402
-0.0486592
-0.0461834
-0.0422948
-0.0375997
-0.0325405
-0.0279189
-0.0239217
-0.0211976
-0.0189853
-0.0175958
-0.0150369
-0.0119357
-0.00692745
-0.00641435
-0.0065061
-0.00673798
-0.00715908
-0.00778331
-0.00868136
-0.0100106
-0.0120579
-0.0151633
-0.0193357
-0.0241163
-0.0289833
-0.0337202
-0.0381925
-0.0420652
-0.0448036
-0.0459861
-0.0453728
-0.0431244
-0.0395529
-0.035188
-0.030481
-0.0261789
-0.0224754
-0.0200651
-0.0179298
-0.0170445
-0.0149117
-0.0130132
-0.00862836
-0.00681002
-0.00687938
-0.00707223
-0.0074405
-0.00799305
-0.00878041
-0.00991781
-0.0116165
-0.0141689
-0.0177173
-0.0219838
-0.0264694
-0.0308146
-0.0347972
-0.038166
-0.040512
-0.0415179
-0.0409718
-0.0389865
-0.0357945
-0.0318737
-0.0276605
-0.0238517
-0.0206076
-0.0185681
-0.0165846
-0.0161945
-0.0142703
-0.0135627
-0.00976171
-0.007118
-0.00716051
-0.0073022
-0.00759804
-0.00805549
-0.00871227
-0.00964725
-0.0110055
-0.0130052
-0.0158347
-0.0194085
-0.0233495
-0.0272463
-0.0307716
-0.0336871
-0.0356715
-0.0364977
-0.035989
-0.0342422
-0.031443
-0.0280413
-0.0244264
-0.0212386
-0.0185147
-0.0169038
-0.0150841
-0.0151691
-0.0131621
-0.013678
-0.0103534
-0.00734974
-0.00736446
-0.00744428
-0.00764695
-0.00798974
-0.00850448
-0.00924488
-0.0103035
-0.0118231
-0.0139622
-0.0167574
-0.0199918
-0.0233274
-0.0263844
-0.0288964
-0.0305739
-0.0312487
-0.0307882
-0.0292948
-0.0269287
-0.0241191
-0.0211728
-0.0186568
-0.0164359
-0.0152763
-0.0135523
-0.0141346
-0.0117095
-0.0134337
-0.0100266
-0.00751433
-0.00749899
-0.00751011
-0.00760681
-0.00782007
-0.00818824
-0.0087511
-0.00956461
-0.0107136
-0.0122963
-0.0143811
-0.0168643
-0.0195349
-0.0220538
-0.0241534
-0.0255602
-0.026137
-0.025784
-0.0246102
-0.0227379
-0.0205592
-0.0182666
-0.0163727
-0.0145585
-0.013826
-0.0120923
-0.0131702
-0.0101878
-0.0128864
-0.008337
-0.00763783
-0.00758892
-0.00751912
-0.00748821
-0.0075608
-0.00778489
-0.00819348
-0.00881854
-0.00970862
-0.010907
-0.0124657
-0.0143234
-0.0163677
-0.0183484
-0.0200444
-0.0212136
-0.0217407
-0.0215295
-0.0206896
-0.019295
-0.0176875
-0.0159301
-0.0145381
-0.0129909
-0.0126486
-0.0107791
-0.012418
-0.00875712
-0.0122935
-0.00631454
-0.00772545
-0.00763232
-0.00747838
-0.00730718
-0.00722994
-0.00731616
-0.00759192
-0.00807763
-0.00879878
-0.00976119
-0.0109914
-0.0124342
-0.0140236
-0.0155825
-0.016951
-0.0179295
-0.0184295
-0.0183502
-0.0177896
-0.0167733
-0.0156021
-0.0142156
-0.0131888
-0.0117613
-0.0117647
-0.00961449
-0.0119341
-0.00740912
-0.0122225
-0.00618691
-0.00785422
-0.00766593
-0.00740324
-0.0070428
-0.00682951
-0.00678988
-0.00696022
-0.00735253
-0.00797158
-0.00880177
-0.00985051
-0.0110593
-0.0123782
-0.0136707
-0.0148263
-0.0156777
-0.0161676
-0.0161897
-0.0158406
-0.0150818
-0.0142126
-0.0130564
-0.0122805
-0.0108656
-0.0111451
-0.00861421
-0.0116546
-0.00602006
-0.0128251
-0.00579686
-0.00798609
-0.00766363
-0.00729597
-0.00672128
-0.00638115
-0.00621834
-0.00631347
-0.00665098
-0.00721475
-0.00797982
-0.00894035
-0.0100316
-0.011212
-0.0123617
-0.0134056
-0.0141929
-0.0146963
-0.0147976
-0.0146043
-0.0140217
-0.0133624
-0.0123457
-0.0117444
-0.0102971
-0.0107278
-0.00786449
-0.0112961
-0.00446923
-0.0124658
0.00332942
-0.0086092
-0.0076729
-0.00718217
-0.00624718
-0.0058837
-0.00560444
-0.00567849
-0.00599141
-0.00653834
-0.00728072
-0.00821192
-0.00925118
-0.0103776
-0.0114604
-0.0124681
-0.0132327
-0.0137782
-0.0139402
-0.0138811
-0.0134107
-0.0129244
-0.0119723
-0.0115231
-0.0100408
-0.0104783
-0.00748733
-0.0105281
-0.00266775
-0.00805546
0.0212909
-0.00954797
-0.00768736
-0.00709316
-0.00581891
-0.00534084
-0.00498327
-0.00506997
-0.00537374
-0.00593669
-0.00667728
-0.00762035
-0.00864052
-0.00977
-0.0108255
-0.0118492
-0.0126121
-0.0132193
-0.0134272
-0.0134764
-0.0130795
-0.0127042
-0.0118149
-0.0113996
-0.00996612
-0.0101927
-0.00722413
-0.00887021
0.000481938
0.00246741
0.0329711
-0.0147306
-0.00709765
-0.00684444
-0.00499523
-0.00472712
-0.00434894
-0.00449386
-0.00481248
-0.00541755
-0.00616356
-0.00714595
-0.00815637
-0.00932605
-0.0103613
-0.011444
-0.0121866
-0.0128986
-0.0130822
-0.0133024
-0.0128371
-0.0127187
-0.0116531
-0.0115766
-0.00981485
-0.010124
-0.00626529
-0.00487083
0.0103512
0.0311837
0.0725058
-0.0182208
-0.00653493
-0.00602084
-0.00467908
-0.00396942
-0.00368621
-0.00392107
-0.00422227
-0.00492523
-0.00565048
-0.00673574
-0.00770529
-0.00896961
-0.0099448
-0.0111255
-0.0117965
-0.0126186
-0.0127363
-0.0130737
-0.0125742
-0.0125147
-0.0114826
-0.0111948
-0.00966099
-0.00897182
-0.00525177
0.00376059
0.0347086
0.105925
0.223551
)
;

boundaryField
{
    movingWall
    {
        type            zeroGradient;
    }
    fixedWalls
    {
        type            zeroGradient;
    }
    frontAndBack
    {
        type            empty;
    }
}


// ************************************************************************* //
