/*--------------------------------*- C++ -*----------------------------------*\
| =========                 |                                                 |
| \\      /  F ield         | OpenFOAM: The Open Source CFD Toolbox           |
|  \\    /   O peration     | Version:  2406                                  |
|   \\  /    A nd           | Website:  www.openfoam.com                      |
|    \\/     M anipulation  |                                                 |
\*---------------------------------------------------------------------------*/
FoamFile
{
    version     2.0;
    format      ascii;
    arch        "LSB;label=32;scalar=64";
    class       surfaceScalarField;
    location    "22.6";
    object      phi_0;
}
// * * * * * * * * * * * * * * * * * * * * * * * * * * * * * * * * * * * * * //

dimensions      [0 3 -1 0 0 0 0];

oriented        oriented;

internalField   nonuniform List<scalar> 
28560
(
1.01003e-08
-1.00967e-08
4.96305e-08
-3.95302e-08
1.15181e-07
-6.55503e-08
1.96271e-07
-8.10905e-08
2.84643e-07
-8.83716e-08
3.74332e-07
-8.96893e-08
4.61444e-07
-8.71124e-08
5.436e-07
-8.21555e-08
6.19462e-07
-7.5862e-08
6.88357e-07
-6.88946e-08
7.49998e-07
-6.16415e-08
8.04298e-07
-5.43003e-08
8.51241e-07
-4.69431e-08
8.90808e-07
-3.95661e-08
9.22932e-07
-3.21247e-08
9.47519e-07
-2.45865e-08
9.6436e-07
-1.68408e-08
9.73143e-07
-8.78356e-09
9.73094e-07
4.95603e-11
9.64407e-07
8.68705e-09
9.46226e-07
1.81808e-08
9.17878e-07
2.8348e-08
8.78546e-07
3.93314e-08
8.27258e-07
5.12889e-08
7.62857e-07
6.44005e-08
6.8399e-07
7.88669e-08
5.89089e-07
9.49016e-08
4.76365e-07
1.12723e-07
3.43819e-07
1.32547e-07
1.89245e-07
1.54573e-07
1.02654e-08
1.7898e-07
-1.95646e-07
2.05911e-07
-4.31115e-07
2.35469e-07
-6.98817e-07
2.67702e-07
-1.00142e-06
3.02603e-07
-1.34151e-06
3.40094e-07
-1.72153e-06
3.80021e-07
-2.14368e-06
4.22148e-07
-2.60983e-06
4.66146e-07
-3.12142e-06
5.1159e-07
-3.67937e-06
5.57948e-07
-4.28395e-06
6.04586e-07
-4.93472e-06
6.50764e-07
-5.63036e-06
6.9564e-07
-6.36863e-06
7.38278e-07
-7.1463e-06
7.77664e-07
-7.95901e-06
8.12713e-07
-8.80131e-06
8.42296e-07
-9.66657e-06
8.6526e-07
-1.0547e-05
8.80451e-07
-1.14338e-05
8.86745e-07
-1.23168e-05
8.83076e-07
-1.31853e-05
8.68462e-07
-1.40273e-05
8.4204e-07
-1.48304e-05
8.03092e-07
-1.55815e-05
7.51074e-07
-1.62672e-05
6.85643e-07
-1.68738e-05
6.06688e-07
-1.73882e-05
5.14371e-07
-1.77973e-05
4.09114e-07
-1.80891e-05
2.91807e-07
-1.82529e-05
1.638e-07
-1.82761e-05
2.31756e-08
-1.81531e-05
-1.22988e-07
-1.78772e-05
-2.7592e-07
-1.74442e-05
-4.33027e-07
-1.68526e-05
-5.91551e-07
-1.6104e-05
-7.48659e-07
-1.52026e-05
-9.0133e-07
-1.41562e-05
-1.04642e-06
-1.29755e-05
-1.18074e-06
-1.16743e-05
-1.30115e-06
-1.02697e-05
-1.40464e-06
-8.7812e-06
-1.48847e-06
-7.2309e-06
-1.5503e-06
-5.64265e-06
-1.58825e-06
-4.04161e-06
-1.60104e-06
-2.45352e-06
-1.58809e-06
-9.0397e-07
-1.54955e-06
5.8235e-07
-1.48632e-06
1.98245e-06
-1.4001e-06
3.27573e-06
-1.29328e-06
4.44464e-06
-1.16891e-06
5.47519e-06
-1.03055e-06
6.35731e-06
-8.82121e-07
7.08506e-06
-7.2775e-07
7.65664e-06
-5.7158e-07
8.07425e-06
-4.17607e-07
8.34376e-06
-2.69508e-07
8.4742e-06
-1.30442e-07
8.47929e-06
-5.09206e-09
8.3679e-06
1.1139e-07
8.15857e-06
2.09335e-07
7.86702e-06
2.91544e-07
7.50858e-06
3.58446e-07
7.09856e-06
4.1002e-07
6.6514e-06
4.47154e-07
6.18032e-06
4.71079e-07
5.69704e-06
4.83279e-07
5.21166e-06
4.85382e-07
4.7326e-06
4.79065e-07
4.26662e-06
4.65982e-07
3.81891e-06
4.47707e-07
3.39321e-06
4.25695e-07
2.99196e-06
4.01254e-07
2.61643e-06
3.7553e-07
2.26693e-06
3.49498e-07
1.94299e-06
3.23945e-07
1.64354e-06
2.99449e-07
1.3672e-06
2.76338e-07
1.11256e-06
2.5464e-07
8.78548e-07
2.34011e-07
6.64889e-07
2.13659e-07
4.72592e-07
1.92297e-07
3.04453e-07
1.68139e-07
1.6535e-07
1.39103e-07
6.20076e-08
1.03343e-07
1.39393e-09
6.06137e-08
-1.37069e-08
1.51009e-08
-1.37069e-08
3.95515e-08
-4.96482e-08
1.46098e-07
-1.46077e-07
3.02752e-07
-2.22203e-07
4.90237e-07
-2.68576e-07
6.92156e-07
-2.9029e-07
8.96186e-07
-2.93719e-07
1.09369e-06
-2.84618e-07
1.279e-06
-2.6746e-07
1.44858e-06
-2.45444e-07
1.60036e-06
-2.20673e-07
1.73313e-06
-1.94413e-07
1.84615e-06
-1.67322e-07
1.93885e-06
-1.3964e-07
2.01062e-06
-1.11343e-07
2.06075e-06
-8.22501e-08
2.08826e-06
-5.21022e-08
2.09204e-06
-2.06158e-08
2.07068e-06
1.2575e-08
2.02281e-06
4.79208e-08
1.946e-06
8.54922e-08
1.83831e-06
1.25871e-07
1.69716e-06
1.695e-07
1.51962e-06
2.16875e-07
1.30233e-06
2.68575e-07
1.04149e-06
3.25242e-07
7.32792e-07
3.87566e-07
3.71431e-07
4.56262e-07
-4.78895e-08
5.32044e-07
-5.30923e-07
6.1558e-07
-1.08381e-06
7.07463e-07
-1.713e-06
8.08164e-07
-2.42508e-06
9.17998e-07
-3.2267e-06
1.03708e-06
-4.12431e-06
1.16531e-06
-5.12401e-06
1.30231e-06
-6.23133e-06
1.44741e-06
-7.45096e-06
1.59965e-06
-8.7865e-06
1.75769e-06
-1.02402e-05
1.91987e-06
-1.18128e-05
2.08415e-06
-1.35029e-05
2.24811e-06
-1.53074e-05
2.40902e-06
-1.72204e-05
2.56378e-06
-1.92338e-05
2.70905e-06
-2.13368e-05
2.84125e-06
-2.35157e-05
2.95663e-06
-2.57544e-05
3.05139e-06
-2.80339e-05
3.12174e-06
-3.03326e-05
3.164e-06
-3.26268e-05
3.17471e-06
-3.48908e-05
3.15071e-06
-3.7097e-05
3.08926e-06
-3.92166e-05
2.98809e-06
-4.12201e-05
2.84548e-06
-4.30773e-05
2.66036e-06
-4.47586e-05
2.43235e-06
-4.62347e-05
2.16175e-06
-4.74777e-05
1.84966e-06
-4.84613e-05
1.49794e-06
-4.91615e-05
1.10931e-06
-4.95568e-05
6.87189e-07
-4.9629e-05
2.35953e-07
-4.93658e-05
-2.40043e-07
-4.87541e-05
-7.34675e-07
-4.77892e-05
-1.24085e-06
-4.64701e-05
-1.75204e-06
-4.48012e-05
-2.26055e-06
-4.27916e-05
-2.75821e-06
-4.04563e-05
-3.23659e-06
-3.78157e-05
-3.68706e-06
-3.48954e-05
-4.10101e-06
-3.17265e-05
-4.47007e-06
-2.83448e-05
-4.78634e-06
-2.47907e-05
-5.04264e-06
-2.11082e-05
-5.23279e-06
-1.73446e-05
-5.35182e-06
-1.35494e-05
-5.39628e-06
-9.77306e-06
-5.3644e-06
-6.06634e-06
-5.25627e-06
-2.47873e-06
-5.07392e-06
9.42581e-07
-4.82141e-06
4.15399e-06
-4.50469e-06
7.11656e-06
-4.13149e-06
9.79713e-06
-3.71112e-06
1.21691e-05
-3.2541e-06
1.42132e-05
-2.77182e-06
1.59177e-05
-2.27609e-06
1.72788e-05
-1.77871e-06
1.83003e-05
-1.29098e-06
1.89933e-05
-8.23464e-07
1.93735e-05
-3.85299e-07
1.94665e-05
1.83526e-08
1.93001e-05
3.75812e-07
1.89033e-05
6.88327e-07
1.83097e-05
9.52066e-07
1.75529e-05
1.16676e-06
1.66664e-05
1.33365e-06
1.56822e-05
1.45532e-06
1.463e-05
1.53544e-06
1.35369e-05
1.57846e-06
1.24267e-05
1.58932e-06
1.13195e-05
1.57317e-06
1.0232e-05
1.53516e-06
9.17749e-06
1.48024e-06
8.16571e-06
1.41304e-06
7.20351e-06
1.33773e-06
6.29506e-06
1.25795e-06
5.44228e-06
1.17673e-06
4.64536e-06
1.09637e-06
3.90341e-06
1.01829e-06
3.21515e-06
9.42896e-07
2.57982e-06
8.6934e-07
1.99811e-06
7.95376e-07
1.47314e-06
7.17265e-07
1.01134e-06
6.29938e-07
6.22735e-07
5.27708e-07
3.20149e-07
4.05929e-07
1.16216e-07
2.64546e-07
1.69079e-08
1.14409e-07
3.20099e-09
6.568e-08
-1.15328e-07
2.22414e-07
-3.02811e-07
4.39091e-07
-4.38881e-07
6.91391e-07
-5.20876e-07
9.59387e-07
-5.58286e-07
1.22776e-06
-5.62092e-07
1.48538e-06
-5.42237e-07
1.72455e-06
-5.0663e-07
1.94015e-06
-4.61043e-07
2.12882e-06
-4.09349e-07
2.28831e-06
-3.53903e-07
2.41692e-06
-2.95925e-07
2.51312e-06
-2.35838e-07
2.57532e-06
-1.73542e-07
2.60169e-06
-1.0862e-07
2.59004e-06
-4.04589e-08
2.53785e-06
3.15763e-08
2.44217e-06
1.08251e-07
2.29972e-06
1.90373e-07
2.1065e-06
2.7871e-07
1.85821e-06
3.74164e-07
1.54997e-06
4.77743e-07
1.17629e-06
5.90552e-07
7.31057e-07
7.1381e-07
2.07463e-07
8.48836e-07
-4.01981e-07
9.97009e-07
-1.10544e-06
1.15972e-06
-1.91168e-06
1.33829e-06
-2.83e-06
1.5339e-06
-3.87004e-06
1.7475e-06
-5.0416e-06
1.97973e-06
-6.35439e-06
2.23078e-06
-7.8177e-06
2.5004e-06
-9.44013e-06
2.78774e-06
-1.12291e-05
3.09132e-06
-1.31907e-05
3.409e-06
-1.5329e-05
3.73787e-06
-1.76456e-05
4.0743e-06
-2.01396e-05
4.41387e-06
-2.28069e-05
4.75146e-06
-2.564e-05
5.08121e-06
-2.86276e-05
5.39667e-06
-3.17548e-05
5.69091e-06
-3.50023e-05
5.95661e-06
-3.83473e-05
6.18628e-06
-4.17631e-05
6.37242e-06
-4.52195e-05
6.50774e-06
-4.86831e-05
6.58536e-06
-5.21181e-05
6.599e-06
-5.54866e-05
6.54316e-06
-5.87491e-05
6.41329e-06
-6.18658e-05
6.20591e-06
-6.47964e-05
5.91874e-06
-6.75017e-05
5.55071e-06
-6.99433e-05
5.10205e-06
-7.20853e-05
4.5743e-06
-7.38938e-05
3.97028e-06
-7.53382e-05
3.29407e-06
-7.63913e-05
2.551e-06
-7.70296e-05
1.74757e-06
-7.7234e-05
8.91626e-07
-7.69883e-05
-9.77631e-09
-7.62855e-05
-9.42838e-07
-7.51189e-05
-1.90125e-06
-7.34885e-05
-2.8712e-06
-7.14001e-05
-3.84051e-06
-6.88644e-05
-4.79621e-06
-6.58979e-05
-5.72468e-06
-6.25226e-05
-6.61192e-06
-5.87659e-05
-7.44381e-06
-5.46605e-05
-8.20633e-06
-5.02447e-05
-8.88589e-06
-4.55614e-05
-9.46964e-06
-4.06582e-05
-9.94585e-06
-3.55867e-05
-1.03043e-05
-3.04019e-05
-1.05366e-05
-2.51615e-05
-1.06367e-05
-1.99247e-05
-1.06012e-05
-1.47515e-05
-1.04295e-05
-9.70142e-06
-1.0124e-05
-4.83234e-06
-9.69049e-06
-1.99204e-07
-9.13782e-06
4.1472e-06
-8.47789e-06
8.16138e-06
-7.72531e-06
1.18043e-05
-6.89705e-06
1.50444e-05
-6.0119e-06
1.78582e-05
-5.08983e-06
2.02308e-05
-4.15133e-06
2.21565e-05
-3.21669e-06
2.36383e-05
-2.30527e-06
2.46876e-05
-1.43465e-06
2.53265e-05
-6.2049e-07
2.55796e-05
1.22714e-07
2.548e-05
7.87866e-07
2.5066e-05
1.36615e-06
2.43781e-05
1.85461e-06
2.34591e-05
2.25269e-06
2.23517e-05
2.56269e-06
2.10978e-05
2.78933e-06
1.9737e-05
2.93927e-06
1.83057e-05
3.02059e-06
1.68366e-05
3.04235e-06
1.53577e-05
3.01402e-06
1.38928e-05
2.94513e-06
1.2461e-05
2.84487e-06
1.10769e-05
2.72182e-06
9.75117e-06
2.58366e-06
8.49099e-06
2.43691e-06
7.30063e-06
2.28673e-06
6.18238e-06
2.13654e-06
5.13752e-06
1.98775e-06
4.16747e-06
1.8394e-06
3.27498e-06
1.68786e-06
2.46538e-06
1.52686e-06
1.74745e-06
1.34788e-06
1.13368e-06
1.14147e-06
6.39479e-07
9.00132e-07
2.80435e-07
6.2359e-07
6.75098e-08
3.27335e-07
7.07108e-08
8.14249e-08
-1.96753e-07
2.68837e-07
-4.90223e-07
5.20454e-07
-6.90499e-07
8.07046e-07
-8.07467e-07
1.10631e-06
-8.57548e-07
1.40147e-06
-8.57259e-07
1.68029e-06
-8.21054e-07
1.93405e-06
-7.60388e-07
2.15665e-06
-6.83639e-07
2.34374e-06
-5.96439e-07
2.49203e-06
-5.02194e-07
2.59871e-06
-4.02613e-07
2.66108e-06
-2.98199e-07
2.67619e-06
-1.88652e-07
2.64074e-06
-7.31742e-08
2.55096e-06
4.93207e-08
2.40248e-06
1.80056e-07
2.19037e-06
3.20357e-07
1.90912e-06
4.71628e-07
1.5525e-06
6.35326e-07
1.11362e-06
8.1305e-07
5.84824e-07
1.00654e-06
-4.2298e-08
1.21767e-06
-7.76989e-07
1.4485e-06
-1.62931e-06
1.70116e-06
-2.61012e-06
1.97781e-06
-3.73096e-06
2.28056e-06
-5.00395e-06
2.61128e-06
-6.44154e-06
2.97149e-06
-8.05624e-06
3.36221e-06
-9.86028e-06
3.78377e-06
-1.18652e-05
4.23566e-06
-1.40812e-05
4.71641e-06
-1.65169e-05
5.22347e-06
-1.91787e-05
5.75308e-06
-2.20699e-05
6.30027e-06
-2.51908e-05
6.85875e-06
-2.85375e-05
7.42099e-06
-3.21019e-05
7.97824e-06
-3.58711e-05
8.52067e-06
-3.98274e-05
9.03751e-06
-4.3948e-05
9.51733e-06
-4.82054e-05
9.94826e-06
-5.25671e-05
1.03184e-05
-5.69967e-05
1.06159e-05
-6.1454e-05
1.08297e-05
-6.5896e-05
1.09497e-05
-7.02774e-05
1.09667e-05
-7.45517e-05
1.08734e-05
-7.86723e-05
1.06638e-05
-8.25929e-05
1.03338e-05
-8.62685e-05
9.88147e-06
-8.96561e-05
9.30637e-06
-9.27155e-05
8.61015e-06
-9.54097e-05
7.79618e-06
-9.77049e-05
6.86955e-06
-9.95716e-05
5.83694e-06
-0.000100984
4.70647e-06
-0.000101921
3.48766e-06
-0.000102364
2.19132e-06
-0.000102302
8.2934e-07
-0.000101726
-5.85453e-07
-0.000100631
-2.03805e-06
-9.90184e-05
-3.51408e-06
-9.68923e-05
-4.99728e-06
-9.42622e-05
-6.47058e-06
-9.11422e-05
-7.91629e-06
-8.75508e-05
-9.31607e-06
-8.35115e-05
-1.06512e-05
-7.90528e-05
-1.19026e-05
-7.42077e-05
-1.30514e-05
-6.90143e-05
-1.40793e-05
-6.35154e-05
-1.49685e-05
-5.77583e-05
-1.57029e-05
-5.17946e-05
-1.6268e-05
-4.56795e-05
-1.66517e-05
-3.94714e-05
-1.68448e-05
-3.32314e-05
-1.68413e-05
-2.70217e-05
-1.66391e-05
-2.09055e-05
-1.62402e-05
-1.49451e-05
-1.56508e-05
-9.20136e-06
-1.48816e-05
-3.73195e-06
-1.39473e-05
1.40949e-06
-1.28668e-05
6.17472e-06
-1.16623e-05
1.0522e-05
-1.03591e-05
1.44168e-05
-8.98468e-06
1.78331e-05
-7.56764e-06
2.07535e-05
-6.13711e-06
2.31699e-05
-4.72165e-06
2.50836e-05
-3.34833e-06
2.65051e-05
-2.04197e-06
2.74522e-05
-8.24377e-07
2.7953e-05
2.87081e-07
2.80407e-05
1.27837e-06
2.7755e-05
2.14035e-06
2.71394e-05
2.86831e-06
2.62402e-05
3.46185e-06
2.51049e-05
3.92459e-06
2.37806e-05
4.26359e-06
2.23125e-05
4.48873e-06
2.07428e-05
4.61203e-06
1.91099e-05
4.6469e-06
1.74476e-05
4.60745e-06
1.57846e-05
4.50783e-06
1.41447e-05
4.3617e-06
1.25468e-05
4.18164e-06
1.1005e-05
3.97868e-06
9.52992e-06
3.7618e-06
8.12905e-06
3.53741e-06
6.80803e-06
3.30877e-06
5.57189e-06
3.07554e-06
4.42638e-06
2.83337e-06
3.37928e-06
2.57396e-06
2.44147e-06
2.28568e-06
1.62746e-06
1.95549e-06
9.55191e-07
1.5724e-06
4.45065e-07
1.13372e-06
1.18605e-07
6.53794e-07
1.89316e-07
8.8817e-08
-2.8557e-07
2.89617e-07
-6.91022e-07
5.54314e-07
-9.55196e-07
8.49886e-07
-1.10304e-06
1.15231e-06
-1.15998e-06
1.44411e-06
-1.14905e-06
1.71261e-06
-1.08956e-06
1.94871e-06
-9.96481e-07
2.14571e-06
-8.80642e-07
2.2985e-06
-7.49228e-07
2.40277e-06
-6.0647e-07
2.45451e-06
-4.54351e-07
2.44956e-06
-2.93247e-07
2.38336e-06
-1.22456e-07
2.2508e-06
5.93909e-08
2.04607e-06
2.5405e-07
1.76263e-06
4.63491e-07
1.39318e-06
6.89807e-07
9.2961e-07
9.35202e-07
3.62946e-07
1.20199e-06
-3.16648e-07
1.49264e-06
-1.11993e-06
1.80981e-06
-2.05858e-06
2.15632e-06
-3.14521e-06
2.53513e-06
-4.39329e-06
2.94924e-06
-5.81705e-06
3.40157e-06
-7.43124e-06
3.89475e-06
-9.2509e-06
4.43094e-06
-1.12909e-05
5.01154e-06
-1.35657e-05
5.63699e-06
-1.60884e-05
6.30647e-06
-1.88705e-05
7.01774e-06
-2.1921e-05
7.76687e-06
-2.52457e-05
8.54817e-06
-2.88467e-05
9.35405e-06
-3.27214e-05
1.0175e-05
-3.68623e-05
1.09997e-05
-4.12564e-05
1.1815e-05
-4.58845e-05
1.26064e-05
-5.07219e-05
1.33581e-05
-5.57378e-05
1.40534e-05
-6.0896e-05
1.46755e-05
-6.61555e-05
1.52077e-05
-7.1471e-05
1.56339e-05
-7.67942e-05
1.59391e-05
-8.20748e-05
1.61103e-05
-8.72613e-05
1.61362e-05
-9.23024e-05
1.60078e-05
-9.71479e-05
1.57189e-05
-0.00010175
1.52656e-05
-0.000106063
1.46467e-05
-0.000110044
1.38632e-05
-0.000113657
1.29188e-05
-0.000116866
1.1819e-05
-0.000119641
1.05713e-05
-0.000121956
9.18476e-06
-0.000123789
7.67011e-06
-0.000125122
6.03929e-06
-0.00012594
4.30547e-06
-0.000126231
2.48293e-06
-0.000125989
5.86977e-07
-0.000125208
-1.36601e-06
-0.000123888
-3.35859e-06
-0.00012203
-5.37239e-06
-0.000119639
-7.38798e-06
-0.000116725
-9.38492e-06
-0.000113299
-1.13418e-05
-0.000109379
-1.32365e-05
-0.000104984
-1.5046e-05
-0.000100139
-1.67471e-05
-9.48744e-05
-1.83162e-05
-8.92234e-05
-1.97302e-05
-8.32253e-05
-2.09667e-05
-7.69237e-05
-2.20045e-05
-7.03673e-05
-2.28244e-05
-6.3609e-05
-2.341e-05
-5.67057e-05
-2.3748e-05
-4.97178e-05
-2.38291e-05
-4.27084e-05
-2.36485e-05
-3.57421e-05
-2.32066e-05
-2.88841e-05
-2.25088e-05
-2.21993e-05
-2.15664e-05
-1.57506e-05
-2.0396e-05
-9.59784e-06
-1.90195e-05
-3.79676e-06
-1.74634e-05
1.60252e-06
-1.57584e-05
6.5563e-06
-1.39385e-05
1.10284e-05
-1.20397e-05
1.49907e-05
-1.00994e-05
1.8424e-05
-8.15493e-06
2.13181e-05
-6.24248e-06
2.36722e-05
-4.39607e-06
2.54944e-05
-2.6466e-06
2.68022e-05
-1.02067e-06
2.76208e-05
4.59761e-07
2.79831e-05
1.77809e-06
2.7928e-05
2.92334e-06
2.74997e-05
3.89018e-06
2.67455e-05
4.67879e-06
2.57147e-05
5.29437e-06
2.44569e-05
5.74651e-06
2.30205e-05
6.04847e-06
2.14512e-05
6.2162e-06
1.97912e-05
6.26747e-06
1.80781e-05
6.22092e-06
1.63446e-05
6.09517e-06
1.46183e-05
5.90798e-06
1.29216e-05
5.6754e-06
1.12724e-05
5.41095e-06
9.68501e-06
5.12483e-06
8.1707e-06
4.82309e-06
6.73935e-06
4.50689e-06
5.40066e-06
4.17206e-06
4.16561e-06
3.80901e-06
3.04771e-06
3.40359e-06
2.0641e-06
2.9391e-06
1.23638e-06
2.40012e-06
5.91538e-07
1.77856e-06
1.6362e-07
1.08171e-06
3.52936e-07
8.98131e-08
-3.75383e-07
2.89905e-07
-8.91115e-07
5.49093e-07
-1.21438e-06
8.32151e-07
-1.3861e-06
1.11412e-06
-1.44195e-06
1.37732e-06
-1.41225e-06
1.60909e-06
-1.32134e-06
1.80026e-06
-1.18764e-06
1.94378e-06
-1.02416e-06
2.03384e-06
-8.39291e-07
2.06511e-06
-6.37736e-07
2.03218e-06
-4.21425e-07
1.92925e-06
-1.9031e-07
1.74982e-06
5.69738e-08
1.4866e-06
3.22603e-07
1.13143e-06
6.09224e-07
6.75183e-07
9.19737e-07
1.07786e-07
1.2572e-06
-5.81828e-07
1.62482e-06
-1.40574e-06
2.0259e-06
-2.37707e-06
2.46398e-06
-3.50998e-06
2.94272e-06
-4.8196e-06
3.46595e-06
-6.32202e-06
4.03755e-06
-8.03405e-06
4.66127e-06
-9.97302e-06
5.34053e-06
-1.21564e-05
6.0781e-06
-1.46012e-05
6.87579e-06
-1.73237e-05
7.73406e-06
-2.03385e-05
8.65172e-06
-2.36576e-05
9.62555e-06
-2.72899e-05
1.065e-05
-3.12402e-05
1.17172e-05
-3.55084e-05
1.28164e-05
-4.00887e-05
1.39344e-05
-4.49691e-05
1.50554e-05
-5.01309e-05
1.61614e-05
-5.55485e-05
1.72326e-05
-6.11896e-05
1.82476e-05
-6.70158e-05
1.91842e-05
-7.29829e-05
2.00205e-05
-7.90421e-05
2.07347e-05
-8.51412e-05
2.13068e-05
-9.12259e-05
2.17185e-05
-9.7241e-05
2.19542e-05
-0.000103132
2.20012e-05
-0.000108846
2.185e-05
-0.000114332
2.14944e-05
-0.000119545
2.09315e-05
-0.000124441
2.01615e-05
-0.000128981
1.91875e-05
-0.000133133
1.8015e-05
-0.000136866
1.66517e-05
-0.000140155
1.51074e-05
-0.000142977
1.33933e-05
-0.000145314
1.15217e-05
-0.00014715
9.50656e-06
-0.000148473
7.36236e-06
-0.000149272
5.10472e-06
-0.000149539
2.75012e-06
-0.000149268
3.15991e-07
-0.000148455
-2.17942e-06
-0.000147097
-4.71652e-06
-0.000145195
-7.27483e-06
-0.00014275
-9.83252e-06
-0.000139769
-1.23666e-05
-0.000136258
-1.48526e-05
-0.000132229
-1.72652e-05
-0.000127697
-1.95777e-05
-0.000122682
-2.17626e-05
-0.000117206
-2.3792e-05
-0.000111299
-2.56377e-05
-0.000104993
-2.72721e-05
-9.83289e-05
-2.86688e-05
-9.13502e-05
-2.98031e-05
-8.41072e-05
-3.06531e-05
-7.66546e-05
-3.12006e-05
-6.90521e-05
-3.14316e-05
-6.13631e-05
-3.13376e-05
-5.36538e-05
-3.09158e-05
-4.59926e-05
-3.017e-05
-3.84482e-05
-2.91108e-05
-3.10889e-05
-2.77554e-05
-2.39806e-05
-2.61277e-05
-1.71861e-05
-2.42579e-05
-1.07632e-05
-2.21813e-05
-4.76383e-06
-1.99378e-05
7.66818e-07
-1.75704e-05
5.79142e-06
-1.5124e-05
1.0281e-05
-1.26445e-05
1.42153e-05
-1.01768e-05
1.75834e-05
-7.76411e-06
2.03831e-05
-5.44634e-06
2.26217e-05
-3.25925e-06
2.4315e-05
-1.23354e-06
2.54871e-05
6.05972e-07
2.61697e-05
2.2408e-06
2.64007e-05
3.65911e-06
2.62238e-05
4.85575e-06
2.56862e-05
5.83199e-06
2.48377e-05
6.59501e-06
2.37289e-05
7.15721e-06
2.24099e-05
7.53524e-06
2.09284e-05
7.74894e-06
1.93291e-05
7.82024e-06
1.76523e-05
7.77193e-06
1.59338e-05
7.62653e-06
1.42041e-05
7.40507e-06
1.24891e-05
7.12592e-06
1.08103e-05
6.8036e-06
9.18577e-06
6.44767e-06
7.63101e-06
6.06165e-06
6.16066e-06
5.6424e-06
4.78979e-06
5.17988e-06
3.5355e-06
4.65787e-06
2.41859e-06
4.05602e-06
1.46541e-06
3.35329e-06
7.104e-07
2.53357e-06
1.99745e-07
1.59237e-06
5.52681e-07
8.60565e-08
-4.6144e-07
2.7405e-07
-1.07911e-06
5.11996e-07
-1.45233e-06
7.64002e-07
-1.6381e-06
1.00506e-06
-1.68301e-06
1.21781e-06
-1.62499e-06
1.38994e-06
-1.49347e-06
1.51239e-06
-1.31009e-06
1.57786e-06
-1.08964e-06
1.57983e-06
-8.41264e-07
1.51181e-06
-5.6971e-07
1.36682e-06
-2.76432e-07
1.1371e-06
3.94093e-08
8.13918e-07
3.80152e-07
3.87475e-07
7.49046e-07
-1.53155e-07
1.14985e-06
-8.20033e-07
1.58662e-06
-1.62636e-06
2.06354e-06
-2.5865e-06
2.58495e-06
-3.71595e-06
3.15535e-06
-5.03134e-06
3.77937e-06
-6.55037e-06
4.46175e-06
-8.29168e-06
5.20726e-06
-1.02747e-05
6.02052e-06
-1.25191e-05
6.90569e-06
-1.50447e-05
7.86616e-06
-1.78707e-05
8.90408e-06
-2.10148e-05
1.00199e-05
-2.44927e-05
1.12119e-05
-2.83168e-05
1.24758e-05
-3.24954e-05
1.38042e-05
-3.7032e-05
1.51866e-05
-4.19236e-05
1.66088e-05
-4.71607e-05
1.80535e-05
-5.27265e-05
1.95001e-05
-5.85962e-05
2.09252e-05
-6.47378e-05
2.2303e-05
-7.11118e-05
2.36066e-05
-7.76725e-05
2.48082e-05
-8.43685e-05
2.58803e-05
-9.1145e-05
2.67969e-05
-9.79443e-05
2.75341e-05
-0.000104708
2.80708e-05
-0.00011138
2.83897e-05
-0.000117903
2.84773e-05
-0.000124225
2.83241e-05
-0.0001303
2.79247e-05
-0.000136083
2.72776e-05
-0.000141537
2.63848e-05
-0.000146627
2.52512e-05
-0.000151323
2.38844e-05
-0.000155602
2.2294e-05
-0.000159442
2.04915e-05
-0.000162824
1.84896e-05
-0.000165733
1.6302e-05
-0.000168155
1.39436e-05
-0.000170078
1.14296e-05
-0.000171492
8.77624e-06
-0.000172387
6.0002e-06
-0.000172756
3.11904e-06
-0.000172592
1.51329e-07
-0.000171887
-2.8839e-06
-0.000170638
-5.96565e-06
-0.000168841
-9.07213e-06
-0.000166493
-1.21799e-05
-0.000163596
-1.5264e-05
-0.000160151
-1.82977e-05
-0.000156163
-2.12527e-05
-0.000151642
-2.4099e-05
-0.0001466
-2.68051e-05
-0.000141053
-2.93388e-05
-0.000135024
-3.16669e-05
-0.000128539
-3.37563e-05
-0.000121634
-3.55745e-05
-0.000114346
-3.70909e-05
-0.000106722
-3.82771e-05
-9.8814e-05
-3.91085e-05
-9.06802e-05
-3.95654e-05
-8.2384e-05
-3.96338e-05
-7.39935e-05
-3.93063e-05
-6.55801e-05
-3.85835e-05
-5.72173e-05
-3.74736e-05
-4.89793e-05
-3.59934e-05
-4.09392e-05
-3.41679e-05
-3.31674e-05
-3.20297e-05
-2.57302e-05
-2.96185e-05
-1.86885e-05
-2.69796e-05
-1.2096e-05
-2.41629e-05
-5.99895e-06
-2.1221e-05
-4.35201e-07
-1.82083e-05
4.56637e-06
-1.51784e-05
8.98596e-06
-1.21837e-05
1.28129e-05
-9.27327e-06
1.60456e-05
-6.49194e-06
1.86913e-05
-3.87923e-06
2.07657e-05
-1.46848e-06
2.22927e-05
7.13856e-07
2.33032e-05
2.64862e-06
2.38347e-05
4.3242e-06
2.39303e-05
5.73646e-06
2.36368e-05
6.88847e-06
2.30041e-05
7.78989e-06
2.20832e-05
8.45615e-06
2.09248e-05
8.90739e-06
1.95778e-05
9.16718e-06
1.80885e-05
9.2612e-06
1.64993e-05
9.21579e-06
1.4848e-05
9.05637e-06
1.3168e-05
8.80594e-06
1.14881e-05
8.4835e-06
9.83324e-06
8.1025e-06
8.22543e-06
7.66946e-06
6.68487e-06
7.18296e-06
5.23159e-06
6.63316e-06
3.88721e-06
6.00225e-06
2.67715e-06
5.26608e-06
1.63322e-06
4.39723e-06
7.97242e-07
3.36954e-06
2.25873e-07
2.16374e-06
7.78555e-07
7.86081e-08
-5.40048e-07
2.45097e-07
-1.2456e-06
4.48278e-07
-1.65551e-06
6.52944e-07
-1.84277e-06
8.34944e-07
-1.86501e-06
9.77762e-07
-1.7678e-06
1.06977e-06
-1.58548e-06
1.10213e-06
-1.34245e-06
1.0673e-06
-1.0548e-06
9.57919e-07
-7.31886e-07
7.66141e-07
-3.77932e-07
4.83153e-07
6.55533e-09
9.89472e-08
4.23615e-07
-3.97804e-07
8.76903e-07
-1.01978e-06
1.37102e-06
-1.781e-06
1.91107e-06
-2.69681e-06
2.50243e-06
-3.78386e-06
3.15058e-06
-5.06005e-06
3.86114e-06
-6.54448e-06
4.63979e-06
-8.2574e-06
5.49228e-06
-1.022e-05
6.42433e-06
-1.24541e-05
7.44139e-06
-1.4982e-05
8.54839e-06
-1.78256e-05
9.74928e-06
-2.10059e-05
1.10465e-05
-2.45422e-05
1.24404e-05
-2.8451e-05
1.39287e-05
-3.27449e-05
1.55058e-05
-3.74314e-05
1.71623e-05
-4.25119e-05
1.88848e-05
-4.79809e-05
2.06555e-05
-5.38247e-05
2.24526e-05
-6.00213e-05
2.42502e-05
-6.65403e-05
2.60191e-05
-7.3343e-05
2.77279e-05
-8.03834e-05
2.93434e-05
-8.76092e-05
3.08323e-05
-9.49631e-05
3.21622e-05
-0.000102385
3.33026e-05
-0.000109815
3.42263e-05
-0.000117191
3.49103e-05
-0.000124456
3.53358e-05
-0.000131555
3.5489e-05
-0.000138439
3.53611e-05
-0.000145063
3.49479e-05
-0.000151387
3.42491e-05
-0.000157378
3.32687e-05
-0.000163007
3.20132e-05
-0.000168248
3.04921e-05
-0.00017308
2.87167e-05
-0.000177486
2.66996e-05
-0.000181449
2.44548e-05
-0.000184956
2.1997e-05
-0.000187996
1.93414e-05
-0.000190556
1.65038e-05
-0.000192627
1.35005e-05
-0.000194199
1.03481e-05
-0.000195262
7.06384e-06
-0.000195809
3.66565e-06
-0.00019583
1.72439e-07
-0.000195317
-3.39634e-06
-0.000194264
-7.01918e-06
-0.000192662
-1.06736e-05
-0.000190507
-1.43353e-05
-0.000187793
-1.79778e-05
-0.000184518
-2.1573e-05
-0.00018068
-2.50903e-05
-0.000176282
-2.8497e-05
-0.000171329
-3.17585e-05
-0.00016583
-3.48381e-05
-0.000159798
-3.76982e-05
-0.000153255
-4.03e-05
-0.000146224
-4.2605e-05
-0.00013874
-4.45755e-05
-0.000130841
-4.6176e-05
-0.000122575
-4.73745e-05
-0.000113997
-4.81434e-05
-0.000105169
-4.84617e-05
-9.61596e-05
-4.83155e-05
-8.70435e-05
-4.76996e-05
-7.78988e-05
-4.66183e-05
-6.88063e-05
-4.50858e-05
-5.98476e-05
-4.31266e-05
-5.11027e-05
-4.07747e-05
-4.26481e-05
-3.80731e-05
-3.45552e-05
-3.50725e-05
-2.68885e-05
-3.18296e-05
-1.97042e-05
-2.84053e-05
-1.30497e-05
-2.48628e-05
-6.96249e-06
-2.12656e-05
-1.47048e-06
-1.76757e-05
3.40819e-06
-1.41519e-05
7.66485e-06
-1.07486e-05
1.12999e-05
-7.51426e-06
1.43223e-05
-4.49089e-06
1.67492e-05
-1.71308e-06
1.86054e-05
7.92449e-07
1.99224e-05
3.00716e-06
2.07381e-05
4.9208e-06
2.10953e-05
6.53125e-06
2.10411e-05
7.84414e-06
2.06251e-05
8.87211e-06
1.98985e-05
9.63394e-06
1.89125e-05
1.01532e-05
1.77167e-05
1.0457e-05
1.63582e-05
1.05742e-05
1.4881e-05
1.05336e-05
1.33247e-05
1.03622e-05
1.1725e-05
1.00832e-05
1.01136e-05
9.71395e-06
8.51883e-06
9.26421e-06
6.96706e-06
8.73473e-06
5.48388e-06
8.11634e-06
4.09618e-06
7.38995e-06
2.83457e-06
6.52769e-06
1.73659e-06
5.49521e-06
8.50745e-07
4.25538e-06
2.41794e-07
2.77269e-06
1.02035e-06
6.80788e-08
-6.08126e-07
2.04919e-07
-1.38244e-06
3.6134e-07
-1.81193e-06
5.03985e-07
-1.98541e-06
6.10416e-07
-1.97144e-06
6.65525e-07
-1.82291e-06
6.58617e-07
-1.57857e-06
5.8119e-07
-1.26503e-06
4.25352e-07
-8.98965e-07
1.82746e-07
-4.8928e-07
-1.56108e-07
-3.90785e-08
-6.02176e-07
4.52624e-07
-1.16807e-06
9.89507e-07
-1.86806e-06
1.57689e-06
-2.71804e-06
2.221e-06
-3.73547e-06
2.9285e-06
-4.93924e-06
3.70621e-06
-6.34968e-06
4.56102e-06
-7.98835e-06
5.49982e-06
-9.87802e-06
6.52945e-06
-1.20424e-05
7.65663e-06
-1.45057e-05
8.8877e-06
-1.72927e-05
1.02283e-05
-2.04272e-05
1.1683e-05
-2.39323e-05
1.32543e-05
-2.78284e-05
1.49426e-05
-3.21327e-05
1.67448e-05
-3.6858e-05
1.86539e-05
-4.20107e-05
2.06585e-05
-4.75904e-05
2.2742e-05
-5.35883e-05
2.48828e-05
-5.9987e-05
2.70542e-05
-6.67593e-05
2.92249e-05
-7.38693e-05
3.13601e-05
-8.1272e-05
3.34219e-05
-8.89155e-05
3.53714e-05
-9.67416e-05
3.71696e-05
-0.000104689
3.87792e-05
-0.000112692
4.0166e-05
-0.00012069
4.12999e-05
-0.000128619
4.21558e-05
-0.000136423
4.27142e-05
-0.000144049
4.29614e-05
-0.000151449
4.28893e-05
-0.000158582
4.24946e-05
-0.000165413
4.17789e-05
-0.000171912
4.07474e-05
-0.000178051
3.94084e-05
-0.000183811
3.77729e-05
-0.000189172
3.58534e-05
-0.00019412
3.36639e-05
-0.000198639
3.12194e-05
-0.00020272
2.85353e-05
-0.00020635
2.56275e-05
-0.000209521
2.25123e-05
-0.000212224
1.9206e-05
-0.000214448
1.57253e-05
-0.000216187
1.20871e-05
-0.000217432
8.30859e-06
-0.000218174
4.40777e-06
-0.000218405
4.03311e-07
-0.000218116
-3.68528e-06
-0.000217298
-7.83691e-06
-0.000215943
-1.20291e-05
-0.000214041
-1.62373e-05
-0.000211584
-2.04352e-05
-0.000208563
-2.45936e-05
-0.000204972
-2.8681e-05
-0.000200806
-3.26631e-05
-0.000196062
-3.65028e-05
-0.00019074
-4.01604e-05
-0.000184844
-4.35942e-05
-0.000178383
-4.67603e-05
-0.000171374
-4.96141e-05
-0.000163839
-5.21109e-05
-0.000155808
-5.42073e-05
-0.00014732
-5.58623e-05
-0.000138424
-5.70395e-05
-0.000129177
-5.77083e-05
-0.000119647
-5.78458e-05
-0.000109908
-5.74386e-05
-0.000100042
-5.64838e-05
-9.01374e-05
-5.49905e-05
-8.02841e-05
-5.29798e-05
-7.05736e-05
-5.04852e-05
-6.10953e-05
-4.75513e-05
-5.19343e-05
-4.42335e-05
-4.31689e-05
-4.0595e-05
-3.48688e-05
-3.67054e-05
-2.70933e-05
-3.26382e-05
-1.98911e-05
-2.84678e-05
-1.32993e-05
-2.42675e-05
-7.34388e-06
-2.01074e-05
-2.03993e-06
-1.60525e-05
2.60732e-06
-1.21615e-05
6.60197e-06
-8.48554e-06
9.95653e-06
-5.06764e-06
1.26912e-05
-1.94226e-06
1.48333e-05
8.65067e-07
1.64164e-05
3.33777e-06
1.74794e-05
5.46817e-06
1.80664e-05
7.25719e-06
1.82247e-05
8.71379e-06
1.80045e-05
9.85417e-06
1.74571e-05
1.07006e-05
1.66339e-05
1.12802e-05
1.55852e-05
1.16229e-05
1.4359e-05
1.17599e-05
1.3e-05
1.17212e-05
1.15498e-05
1.15334e-05
1.00462e-05
1.12176e-05
8.5238e-06
1.07866e-05
7.01498e-06
1.02435e-05
5.55123e-06
9.58009e-06
4.16506e-06
8.77613e-06
2.89257e-06
7.80017e-06
1.77679e-06
6.61099e-06
8.71812e-07
5.16036e-06
2.4791e-07
3.39659e-06
1.26826e-06
5.4744e-08
-6.6287e-07
1.54472e-07
-1.48217e-06
2.53067e-07
-1.91053e-06
3.20072e-07
-2.05242e-06
3.35562e-07
-1.98693e-06
2.86355e-07
-1.77371e-06
1.62934e-07
-1.45515e-06
-4.28417e-08
-1.05925e-06
-3.39343e-07
-6.02464e-07
-7.36183e-07
-9.24397e-08
-1.24479e-06
4.69528e-07
-1.87864e-06
1.08648e-06
-2.65332e-06
1.76418e-06
-3.58638e-06
2.50995e-06
-4.69725e-06
3.33188e-06
-6.00706e-06
4.23831e-06
-7.53849e-06
5.23763e-06
-9.31557e-06
6.3381e-06
-1.13636e-05
7.5478e-06
-1.37086e-05
8.87452e-06
-1.63775e-05
1.03255e-05
-1.9397e-05
1.19072e-05
-2.27933e-05
1.36246e-05
-2.65909e-05
1.54805e-05
-3.08117e-05
1.74751e-05
-3.54735e-05
1.96045e-05
-4.0589e-05
2.18602e-05
-4.61637e-05
2.42286e-05
-5.21952e-05
2.669e-05
-5.86719e-05
2.92187e-05
-6.55723e-05
3.17831e-05
-7.28646e-05
3.43465e-05
-8.05074e-05
3.68677e-05
-8.84503e-05
3.9303e-05
-9.66357e-05
4.16074e-05
-0.000105001
4.37364e-05
-0.000113479
4.56481e-05
-0.000122005
4.73045e-05
-0.000130511
4.86728e-05
-0.000138938
4.97264e-05
-0.000147227
5.04449e-05
-0.000155328
5.08149e-05
-0.000163195
5.08285e-05
-0.000170789
5.04839e-05
-0.000178079
4.97837e-05
-0.000185034
4.87346e-05
-0.000191633
4.73462e-05
-0.000197856
4.5631e-05
-0.000203685
4.36027e-05
-0.000209109
4.12768e-05
-0.000214114
3.86694e-05
-0.000218692
3.5797e-05
-0.000222833
3.26766e-05
-0.000226531
2.93253e-05
-0.000229779
2.57601e-05
-0.000232571
2.19979e-05
-0.000234901
1.80556e-05
-0.000236764
1.39504e-05
-0.000238155
9.69912e-06
-0.000239066
5.31935e-06
-0.000239492
8.29041e-07
-0.000239424
-3.75303e-06
-0.000238854
-8.40685e-06
-0.000237772
-1.3111e-05
-0.000236168
-1.7842e-05
-0.000234029
-2.25743e-05
-0.000231343
-2.72796e-05
-0.000228097
-3.19267e-05
-0.000224279
-3.64809e-05
-0.000219877
-4.09044e-05
-0.000214882
-4.51557e-05
-0.000209286
-4.91901e-05
-0.000203087
-5.29599e-05
-0.000196286
-5.64152e-05
-0.000188892
-5.95044e-05
-0.000180923
-6.21759e-05
-0.000172406
-6.43796e-05
-0.000163378
-6.60682e-05
-0.000153886
-6.71999e-05
-0.000143992
-6.774e-05
-0.000133767
-6.76636e-05
-0.000123294
-6.6957e-05
-0.000112664
-6.56202e-05
-0.000101977
-6.36671e-05
-9.1335e-05
-6.11269e-05
-8.0843e-05
-5.80433e-05
-7.06028e-05
-5.44737e-05
-6.07108e-05
-5.0487e-05
-5.12547e-05
-4.61616e-05
-4.23113e-05
-4.15816e-05
-3.39445e-05
-3.68345e-05
-2.62048e-05
-3.20073e-05
-1.91285e-05
-2.71836e-05
-1.27391e-05
-2.2442e-05
-7.04754e-06
-1.78531e-05
-2.05393e-06
-1.34791e-05
2.25122e-06
-9.3728e-06
5.88578e-06
-5.57681e-06
8.87481e-06
-2.12397e-06
1.12498e-05