/*--------------------------------*- C++ -*----------------------------------*\
| =========                 |                                                 |
| \\      /  F ield         | OpenFOAM: The Open Source CFD Toolbox           |
|  \\    /   O peration     | Version:  2406                                  |
|   \\  /    A nd           | Website:  www.openfoam.com                      |
|    \\/     M anipulation  |                                                 |
\*---------------------------------------------------------------------------*/
FoamFile
{
    version     2.0;
    format      ascii;
    arch        "LSB;label=32;scalar=64";
    class       surfaceScalarField;
    location    "14.65";
    object      phi_0;
}
// * * * * * * * * * * * * * * * * * * * * * * * * * * * * * * * * * * * * * //

dimensions      [0 3 -1 0 0 0 0];

oriented        oriented;

internalField   nonuniform List<scalar> 
28560
(
8.59356e-09
-8.59086e-09
2.10238e-08
-1.24303e-08
2.99742e-08
-8.95028e-09
3.1455e-08
-1.48057e-09
2.45191e-08
6.936e-09
9.49874e-09
1.50204e-08
-1.25425e-08
2.20413e-08
-4.03014e-08
2.77589e-08
-7.25138e-08
3.22124e-08
-1.08096e-07
3.5582e-08
-1.46203e-07
3.81067e-08
-1.86236e-07
4.00337e-08
-2.27825e-07
4.15887e-08
-2.70787e-07
4.29618e-08
-3.15088e-07
4.43016e-08
-3.60805e-07
4.57162e-08
-4.08082e-07
4.72774e-08
-4.57109e-07
4.90267e-08
-5.0809e-07
5.09817e-08
-5.61232e-07
5.31422e-08
-6.16728e-07
5.5496e-08
-6.74751e-07
5.80229e-08
-7.3545e-07
6.06987e-08
-7.98947e-07
6.34972e-08
-8.65339e-07
6.63919e-08
-9.34697e-07
6.93574e-08
-1.00707e-06
7.23696e-08
-1.08247e-06
7.54056e-08
-1.16092e-06
7.84442e-08
-1.24238e-06
8.14645e-08
-1.32683e-06
8.44463e-08
-1.4142e-06
8.73691e-08
-1.50441e-06
9.02114e-08
-1.59736e-06
9.29503e-08
-1.69292e-06
9.55606e-08
-1.79093e-06
9.80145e-08
-1.89121e-06
1.00281e-07
-1.99354e-06
1.02324e-07
-2.09764e-06
1.04105e-07
-2.20322e-06
1.05579e-07
-2.30992e-06
1.06698e-07
-2.41733e-06
1.07408e-07
-2.52498e-06
1.0765e-07
-2.63234e-06
1.07361e-07
-2.73881e-06
1.06476e-07
-2.84374e-06
1.04924e-07
-2.94637e-06
1.02634e-07
-3.04591e-06
9.95348e-08
-3.14146e-06
9.55539e-08
-3.23208e-06
9.06235e-08
-3.31676e-06
8.46801e-08
-3.39443e-06
7.76675e-08
-3.46397e-06
6.95391e-08
-3.52423e-06
6.02606e-08
-3.57404e-06
4.98134e-08
-3.61224e-06
3.81969e-08
-3.63767e-06
2.54325e-08
-3.6493e-06
1.16268e-08
-3.64587e-06
-3.42797e-09
-3.62665e-06
-1.92226e-08
-3.59074e-06
-3.59096e-08
-3.53747e-06
-5.32725e-08
-3.46633e-06
-7.11344e-08
-3.37704e-06
-8.92915e-08
-3.26953e-06
-1.07517e-07
-3.14396e-06
-1.25563e-07
-3.00079e-06
-1.4317e-07
-2.84073e-06
-1.60064e-07
-2.66476e-06
-1.7597e-07
-2.47414e-06
-1.90616e-07
-2.2704e-06
-2.03742e-07
-2.0553e-06
-2.15104e-07
-1.83081e-06
-2.24487e-07
-1.5991e-06
-2.31707e-07
-1.36248e-06
-2.36622e-07
-1.12335e-06
-2.39132e-07
-8.84159e-07
-2.3919e-07
-6.47364e-07
-2.36795e-07
-4.15363e-07
-2.32002e-07
-1.9045e-07
-2.24913e-07
2.52306e-08
-2.1568e-07
2.29727e-07
-2.04496e-07
4.21318e-07
-1.91591e-07
5.98541e-07
-1.77223e-07
7.60211e-07
-1.6167e-07
9.05436e-07
-1.45225e-07
1.03362e-06
-1.28179e-07
1.14444e-06
-1.10822e-07
1.23786e-06
-9.34275e-08
1.31411e-06
-7.62496e-08
1.37363e-06
-5.95166e-08
1.41706e-06
-4.34268e-08
1.4452e-06
-2.81462e-08
1.45901e-06
-1.38019e-08
1.45967e-06
-6.63034e-10
1.44787e-06
1.17979e-08
1.42505e-06
2.28171e-08
1.39233e-06
3.27281e-08
1.35076e-06
4.1569e-08
1.30141e-06
4.93493e-08
1.24528e-06
5.61293e-08
1.1833e-06
6.19815e-08
1.11631e-06
6.69868e-08
1.04508e-06
7.12288e-08
9.70293e-07
7.47886e-08
8.92555e-07
7.7738e-08
8.12421e-07
8.01332e-08
7.30415e-07
8.20064e-08
6.47059e-07
8.33557e-08
5.62927e-07
8.41323e-08
4.78702e-07
8.42249e-08
3.95262e-07
8.34402e-08
3.13783e-07
8.14788e-08
2.35872e-07
7.7911e-08
1.63719e-07
7.21536e-08
1.00228e-07
6.34906e-08
4.90622e-08
5.11657e-08
1.43047e-08
3.47575e-08
-6.52274e-10
1.4957e-08
-6.52274e-10
1.26195e-08
-2.12105e-08
2.85241e-08
-2.83345e-08
3.2713e-08
-1.31388e-08
1.85132e-08
1.27194e-08
-1.64274e-08
4.18767e-08
-7.13749e-08
6.99678e-08
-1.44093e-07
9.47593e-08
-2.3173e-07
1.15396e-07
-3.31407e-07
1.3189e-07
-4.40565e-07
1.4474e-07
-5.5713e-07
1.54671e-07
-6.79565e-07
1.62469e-07
-8.06851e-07
1.68874e-07
-9.38415e-07
1.74526e-07
-1.07405e-06
1.79938e-07
-1.21383e-06
1.85492e-07
-1.358e-06
1.91449e-07
-1.50694e-06
1.97968e-07
-1.66108e-06
2.05124e-07
-1.82087e-06
2.12929e-07
-1.98672e-06
2.2135e-07
-2.15902e-06
2.30324e-07
-2.33809e-06
2.39768e-07
-2.52419e-06
2.49592e-07
-2.7175e-06
2.59703e-07
-2.91815e-06
2.70009e-07
-3.1262e-06
2.80419e-07
-3.34164e-06
2.90851e-07
-3.56442e-06
3.01221e-07
-3.79441e-06
3.11452e-07
-4.03143e-06
3.21467e-07
-4.27525e-06
3.31187e-07
-4.52557e-06
3.40532e-07
-4.78203e-06
3.49416e-07
-5.04422e-06
3.57746e-07
-5.31162e-06
3.6542e-07
-5.58367e-06
3.72326e-07
-5.85968e-06
3.78336e-07
-6.13889e-06
3.83309e-07
-6.4204e-06
3.8709e-07
-6.70321e-06
3.89506e-07
-6.98617e-06
3.90369e-07
-7.26799e-06
3.89476e-07
-7.54724e-06
3.86612e-07
-7.82232e-06
3.81547e-07
-8.09144e-06
3.74049e-07
-8.35268e-06
3.63876e-07
-8.60394e-06
3.50792e-07
-8.84295e-06
3.34566e-07
-9.06731e-06
3.14979e-07
-9.27446e-06
2.91835e-07
-9.46176e-06
2.64966e-07
-9.62646e-06
2.34242e-07
-9.76578e-06
1.99577e-07
-9.87691e-06
1.60942e-07
-9.95708e-06
1.18371e-07
-1.00036e-05
7.19709e-08
-1.00139e-05
2.19379e-08
-9.98582e-06
-3.15389e-08
-9.91704e-06
-8.80075e-08
-9.80588e-06
-1.4706e-07
-9.65098e-06
-2.08175e-07
-9.45139e-06
-2.7073e-07
-9.20665e-06
-3.34027e-07
-8.91687e-06
-3.97298e-07
-8.58272e-06
-4.59715e-07
-8.20548e-06
-5.2041e-07
-7.78705e-06
-5.78488e-07
-7.32997e-06
-6.33049e-07
-6.83738e-06
-6.8321e-07
-6.31299e-06
-7.28128e-07
-5.76108e-06
-7.67022e-07
-5.18636e-06
-7.99199e-07
-4.594e-06
-8.24071e-07
-3.98944e-06
-8.41178e-07
-3.37837e-06
-8.50202e-07
-2.76658e-06
-8.50979e-07
-2.15987e-06
-8.43506e-07
-1.56393e-06
-8.27943e-07
-9.84234e-07
-8.0461e-07
-4.25936e-07
-7.73978e-07
1.06224e-07
-7.36656e-07
6.08006e-07
-6.93373e-07
1.07574e-06
-6.44953e-07
1.50636e-06
-5.92292e-07
1.89747e-06
-5.36335e-07
2.24733e-06
-4.7804e-07
2.55487e-06
-4.1836e-07
2.81965e-06
-3.5821e-07
3.04185e-06
-2.98452e-07
3.2222e-06
-2.3987e-07
3.36193e-06
-1.83155e-07
3.46268e-06
-1.28898e-07
3.52647e-06
-7.7588e-08
3.55539e-06
-2.95876e-08
3.55225e-06
1.49446e-08
3.51941e-06
5.56545e-08
3.45952e-06
9.26207e-08
3.37523e-06
1.25859e-07
3.26911e-06
1.5547e-07
3.14362e-06
1.8162e-07
3.00108e-06
2.04519e-07
2.84366e-06
2.24406e-07
2.67336e-06
2.41531e-07
2.49201e-06
2.56136e-07
2.30132e-06
2.6843e-07
2.10288e-06
2.78571e-07
1.89826e-06
2.86631e-07
1.68904e-06
2.92567e-07
1.477e-06
2.9618e-07
1.26415e-06
2.97067e-07
1.05302e-06
2.94572e-07
8.46778e-07
2.87724e-07
6.49494e-07
2.75195e-07
4.66365e-07
2.55283e-07
3.03828e-07
2.26028e-07
1.69425e-07
1.85569e-07
7.1077e-08
1.33105e-07
1.51224e-08
7.09116e-08
1.44701e-08
8.97974e-09
-3.019e-08
1.23199e-08
-3.16743e-08
-5.10108e-09
4.28233e-09
-5.02943e-08
5.79127e-08
-1.25518e-07
1.171e-07
-2.29675e-07
1.74125e-07
-3.59791e-07
2.24876e-07
-5.12076e-07
2.6768e-07
-6.82641e-07
3.02456e-07
-8.67959e-07
3.30058e-07
-1.0651e-06
3.51817e-07
-1.27185e-06
3.69215e-07
-1.48666e-06
3.8368e-07
-1.7086e-06
3.96466e-07
-1.93725e-06
4.08593e-07
-2.17259e-06
4.20833e-07
-2.41487e-06
4.33726e-07
-2.66451e-06
4.47606e-07
-2.92203e-06
4.62642e-07
-3.18797e-06
4.78872e-07
-3.46286e-06
4.96239e-07
-3.74716e-06
5.14624e-07
-4.04126e-06
5.33865e-07
-4.34544e-06
5.5378e-07
-4.65992e-06
5.74178e-07
-4.98478e-06
5.94867e-07
-5.32002e-06
6.15661e-07
-5.66555e-06
6.3638e-07
-6.02118e-06
6.56854e-07
-6.38664e-06
6.76915e-07
-6.76158e-06
6.964e-07
-7.14553e-06
7.15144e-07
-7.53798e-06
7.32977e-07
-7.93828e-06
7.49721e-07
-8.34572e-06
7.65182e-07
-8.75945e-06
7.79149e-07
-9.17851e-06
7.91389e-07
-9.60182e-06
8.0164e-07
-1.00281e-05
8.09615e-07
-1.0456e-05
8.14995e-07
-1.08839e-05
8.17429e-07
-1.13101e-05
8.16536e-07
-1.17325e-05
8.11908e-07
-1.2149e-05
8.03109e-07
-1.25572e-05
7.89688e-07
-1.29543e-05
7.71178e-07
-1.33375e-05
7.4711e-07
-1.37038e-05
7.17023e-07
-1.40497e-05
6.80474e-07
-1.43718e-05
6.37053e-07
-1.46663e-05
5.864e-07
-1.49296e-05
5.28215e-07
-1.51576e-05
4.62282e-07
-1.53465e-05
3.88479e-07
-1.54924e-05
3.06798e-07
-1.55914e-05
2.1736e-07
-1.56398e-05
1.20431e-07
-1.56343e-05
1.64062e-08
-1.55717e-05
-9.40867e-08
-1.54494e-05
-2.10353e-07
-1.5265e-05
-3.31438e-07
-1.50169e-05
-4.56265e-07
-1.47041e-05
-5.8359e-07
-1.43261e-05
-7.12021e-07
-1.38833e-05
-8.40039e-07
-1.3377e-05
-9.66025e-07
-1.28092e-05
-1.08828e-06
-1.21826e-05
-1.20508e-06
-1.15009e-05
-1.31468e-06
-1.07688e-05
-1.41539e-06
-9.99129e-06
-1.50559e-06
-9.17453e-06
-1.58378e-06
-8.32508e-06
-1.64865e-06
-7.45008e-06
-1.69906e-06
-6.55713e-06
-1.73414e-06
-5.65408e-06
-1.75325e-06
-4.74899e-06
-1.75607e-06
-3.84992e-06
-1.74258e-06
-2.96482e-06
-1.71305e-06
-2.10137e-06
-1.66806e-06
-1.26686e-06
-1.60849e-06
-4.68044e-07
-1.53547e-06
2.88951e-07
-1.45037e-06
9.98745e-07
-1.35475e-06
1.65677e-06
-1.25031e-06
2.25931e-06
-1.13888e-06
2.80356e-06
-1.02229e-06
3.28761e-06
-9.0241e-07
3.71044e-06
-7.8104e-07
4.07187e-06
-6.59887e-07
4.37253e-06
-5.40526e-07
4.61374e-06
-4.24366e-07
4.79747e-06
-3.12627e-07
4.9262e-06
-2.06323e-07
5.00285e-06
-1.06237e-07
5.03079e-06
-1.29871e-08
5.01336e-06
7.30772e-08
4.95423e-06
1.51755e-07
4.85705e-06
2.23041e-07
4.72544e-06
2.87078e-07
4.56293e-06
3.44131e-07
4.37289e-06
3.94557e-07
4.15852e-06
4.38776e-07
3.92282e-06
4.77231e-07
3.66861e-06
5.10349e-07
3.39854e-06
5.38499e-07
3.11517e-06
5.61941e-07
2.82103e-06
5.8077e-07
2.51874e-06
5.94853e-07
2.21117e-06
6.03756e-07
1.90157e-06
6.06664e-07
1.59385e-06
6.02293e-07
1.29276e-06
5.88815e-07
1.00414e-06
5.6381e-07
7.35122e-07
5.24303e-07
4.94139e-07
4.67012e-07
2.90724e-07
3.88983e-07
1.34804e-07
2.89025e-07
3.54476e-08
1.70268e-07
4.99177e-08
2.04806e-10
-3.03946e-08
-1.82842e-08
-1.31852e-08
-6.84288e-08
5.4427e-08
-1.558e-07
1.45284e-07
-2.81377e-07
2.42677e-07
-4.43168e-07
3.35916e-07
-6.37387e-07
4.19095e-07
-8.59467e-07
4.8976e-07
-1.10479e-06
5.47777e-07
-1.36916e-06
5.94425e-07
-1.64906e-06
6.31722e-07
-1.9418e-06
6.61949e-07
-2.24544e-06
6.87325e-07
-2.55879e-06
7.09816e-07
-2.88123e-06
7.31037e-07
-3.21263e-06
7.52224e-07
-3.55315e-06
7.74247e-07
-3.9032e-06
7.97655e-07
-4.26328e-06
8.2273e-07
-4.63396e-06
8.49544e-07
-5.01573e-06
8.78017e-07
-5.40907e-06
9.07961e-07
-5.81432e-06
9.39117e-07
-6.23173e-06
9.71192e-07
-6.66143e-06
1.00387e-06
-7.10341e-06
1.03685e-06
-7.55756e-06
1.06981e-06
-8.02363e-06
1.10246e-06
-8.5013e-06
1.13452e-06
-8.99009e-06
1.16571e-06
-9.48945e-06
1.19576e-06
-9.99871e-06
1.22441e-06
-1.05171e-05
1.25138e-06
-1.10438e-05
1.27637e-06
-1.15777e-05
1.29908e-06
-1.21177e-05
1.31915e-06
-1.26625e-05
1.33622e-06
-1.32107e-05
1.34986e-06
-1.37607e-05
1.3596e-06
-1.43106e-05
1.36493e-06
-1.48585e-05
1.36527e-06
-1.54019e-05
1.36002e-06
-1.59386e-05
1.34851e-06
-1.64655e-05
1.33005e-06
-1.69797e-05
1.30391e-06
-1.74779e-05
1.26935e-06
-1.79564e-05
1.22564e-06
-1.84114e-05
1.17204e-06
-1.88388e-05
1.10789e-06
-1.92343e-05
1.03254e-06
-1.95934e-05
9.45472e-07
-1.99114e-05
8.46245e-07
-2.01837e-05
7.34567e-07
-2.04055e-05
6.10301e-07
-2.05722e-05
4.73499e-07
-2.06793e-05
3.24418e-07
-2.07224e-05
1.63541e-07
-2.06976e-05
-8.40711e-09
-2.06012e-05
-1.90436e-07
-2.04303e-05
-3.81309e-07
-2.01822e-05
-5.7952e-07
-1.98552e-05
-7.8331e-07
-1.94481e-05
-9.90682e-07
-1.89607e-05
-1.19942e-06
-1.83936e-05
-1.40713e-06
-1.77484e-05
-1.61125e-06
-1.70275e-05
-1.80914e-06
-1.62345e-05
-1.99807e-06
-1.53738e-05
-2.17536e-06
-1.44509e-05
-2.33836e-06
-1.34719e-05
-2.48455e-06
-1.24441e-05
-2.61161e-06
-1.13753e-05
-2.71747e-06
-1.02739e-05
-2.80037e-06
-9.14918e-06
-2.8589e-06
-8.01035e-06
-2.89208e-06
-6.86709e-06
-2.89933e-06
-5.72909e-06
-2.88058e-06
-4.60594e-06
-2.83619e-06
-3.50698e-06
-2.76701e-06
-2.44114e-06
-2.67433e-06
-1.41675e-06
-2.55986e-06
-4.41461e-07
-2.42566e-06
4.77913e-07
-2.27412e-06
1.33548e-06
-2.10788e-06
2.12633e-06
-1.92973e-06
2.84663e-06
-1.74259e-06
3.49358e-06
-1.54936e-06
4.06545e-06
-1.35291e-06
4.56155e-06
-1.15598e-06
4.98213e-06
-9.61111e-07
5.32837e-06
-7.70609e-07
5.60224e-06
-5.86495e-07
5.80639e-06
-4.10473e-07
5.94408e-06
-2.43923e-07
6.01898e-06
-8.78887e-08
6.03514e-06
5.69192e-08
5.9968e-06
1.90088e-07
5.90835e-06
3.11499e-07
5.77415e-06
4.21277e-07
5.59853e-06
5.1975e-07
5.38568e-06
6.07404e-07
5.13963e-06
6.8483e-07
4.8642e-06
7.52659e-07
4.56304e-06
8.11507e-07
4.23965e-06
8.61895e-07
3.89741e-06
9.04176e-07
3.53973e-06
9.38446e-07
3.17014e-06
9.64446e-07
2.79244e-06
9.81456e-07
2.41092e-06
9.8818e-07
2.03058e-06
9.82638e-07
1.65732e-06
9.62075e-07
1.2982e-06
9.22928e-07
9.61589e-07
8.60916e-07
6.57208e-07
7.71392e-07
3.96065e-07
6.50127e-07
1.90234e-07
4.94856e-07
5.28239e-08
3.07678e-07
1.02742e-07
-1.08579e-08
-1.95366e-08
-5.75038e-08
3.34608e-08
-1.48248e-07
1.45171e-07
-2.85958e-07
2.82994e-07
-4.69702e-07
4.26421e-07
-6.9604e-07
5.62254e-07
-9.60128e-07
6.83183e-07
-1.25659e-06
7.86225e-07
-1.58018e-06
8.71365e-07
-1.92619e-06
9.40429e-07
-2.29069e-06
9.96227e-07
-2.67066e-06
1.04192e-06
-3.06391e-06
1.08058e-06
-3.46904e-06
1.11495e-06
-3.88529e-06
1.14729e-06
-4.31239e-06
1.17932e-06
-4.75043e-06
1.21229e-06
-5.19973e-06
1.24696e-06
-5.66073e-06
1.28373e-06
-6.13391e-06
1.32272e-06
-6.6197e-06
1.36381e-06
-7.11846e-06
1.40672e-06
-7.63045e-06
1.45111e-06
-8.15579e-06
1.49654e-06
-8.69448e-06
1.54256e-06
-9.24636e-06
1.58873e-06
-9.81116e-06
1.63461e-06
-1.03885e-05
1.67977e-06
-1.09778e-05
1.72381e-06
-1.15784e-05
1.76634e-06
-1.21896e-05
1.80699e-06
-1.28106e-05
1.84537e-06
-1.34403e-05
1.8811e-06
-1.40777e-05
1.91377e-06
-1.47216e-05
1.94294e-06
-1.53706e-05
1.96814e-06
-1.60231e-05
1.98882e-06
-1.66777e-05
2.00438e-06
-1.73322e-05
2.01418e-06
-1.79848e-05
2.01745e-06
-1.86329e-05
2.01341e-06
-1.92741e-05
2.00116e-06
-1.99053e-05
1.97977e-06
-2.05235e-05
1.94825e-06
-2.11252e-05
1.90555e-06
-2.17065e-05
1.85064e-06
-2.22633e-05
1.78248e-06
-2.27913e-05
1.70005e-06
-2.32858e-05
1.6024e-06
-2.37419e-05
1.48868e-06
-2.41546e-05
1.35815e-06
-2.45186e-05
1.21026e-06
-2.48287e-05
1.04463e-06
-2.50795e-05
8.61132e-07
-2.52659e-05
6.59883e-07
-2.53828e-05
4.41307e-07
-2.54254e-05
2.06147e-07
-2.53893e-05
-4.45173e-08
-2.52705e-05
-3.09252e-07
-2.50655e-05
-5.86263e-07
-2.47717e-05
-8.73401e-07
-2.43868e-05
-1.16817e-06
-2.39097e-05
-1.46774e-06
-2.33402e-05
-1.76901e-06
-2.26787e-05
-2.0686e-06
-2.1927e-05
-2.36295e-06
-2.10878e-05
-2.64835e-06
-2.01648e-05
-2.92102e-06
-1.9163e-05
-3.17719e-06
-1.80882e-05
-3.41316e-06
-1.69473e-05
-3.62541e-06
-1.57483e-05
-3.81068e-06
-1.44997e-05
-3.96603e-06
-1.32111e-05
-4.08896e-06
-1.18926e-05
-4.17745e-06
-1.05546e-05
-4.23002e-06
-9.20817e-06
-4.2458e-06
-7.8642e-06
-4.22455e-06
-6.5337e-06
-4.16669e-06
-5.22744e-06
-4.07327e-06
-3.95578e-06
-3.94599e-06
-2.72852e-06
-3.78712e-06
-1.55472e-06
-3.59946e-06
-4.42559e-07
-3.38628e-06
6.00757e-07
-3.15119e-06
1.56913e-06
-2.89811e-06
2.45762e-06
-2.63108e-06
3.26248e-06
-2.35422e-06
3.98118e-06
-2.07161e-06
4.61235e-06
-1.78715e-06
5.15577e-06
-1.50454e-06
5.61229e-06
-1.22713e-06
5.9837e-06
-9.57903e-07
6.27264e-06
-6.99415e-07
6.48248e-06
-4.53762e-07
6.61717e-06
-2.22572e-07
6.6811e-06
-7.01263e-09
6.67899e-06
1.92194e-07
6.61576e-06
3.74735e-07
6.49638e-06
5.40654e-07
6.32583e-06
6.90298e-07
6.10899e-06
8.24248e-07
5.85057e-06
9.43242e-07
5.55514e-06
1.04809e-06
5.22707e-06
1.13958e-06
4.87058e-06
1.21839e-06
4.48981e-06
1.28494e-06
4.08893e-06
1.33933e-06
3.67223e-06
1.38114e-06
3.24433e-06
1.40936e-06
2.81033e-06
1.42218e-06
2.37607e-06
1.4169e-06
1.9483e-06
1.38984e-06
1.53495e-06
1.33628e-06
1.14529e-06
1.25058e-06
7.90078e-07
1.1266e-06
4.81755e-07
9.5845e-07
2.3477e-07
7.41841e-07
6.64364e-08
4.76011e-07
1.69178e-07
-2.35435e-08
4.00689e-09
-1.0191e-07
1.11827e-07
-2.38422e-07
2.81684e-07
-4.32311e-07
4.76882e-07
-6.80019e-07
6.74129e-07
-9.76225e-07
8.58461e-07
-1.31476e-06
1.02172e-06
-1.68932e-06
1.16079e-06
-2.09402e-06
1.27606e-06
-2.5237e-06
1.37011e-06
-2.97414e-06
1.44666e-06
-3.44207e-06
1.50984e-06
-3.92514e-06
1.56365e-06
-4.42181e-06
1.61162e-06
-4.93121e-06
1.65669e-06
-5.45297e-06
1.70108e-06
-5.98707e-06
1.74638e-06
-6.53371e-06
1.7936e-06
-7.09324e-06
1.84325e-06
-7.66597e-06
1.89546e-06
-8.25223e-06
1.95006e-06
-8.85221e-06
2.0067e-06
-9.466e-06
2.0649e-06
-1.00936e-05
2.1241e-06
-1.07347e-05
2.1837e-06
-1.13891e-05
2.24312e-06
-1.20563e-05
2.30179e-06
-1.27357e-05
2.35916e-06
-1.34266e-05
2.41472e-06
-1.41282e-05
2.46796e-06
-1.48397e-05
2.51842e-06
-1.55599e-05
2.56563e-06
-1.62879e-05
2.60909e-06
-1.70224e-05
2.6483e-06
-1.77622e-05
2.68271e-06
-1.85058e-05
2.7117e-06
-1.92515e-05
2.73458e-06
-1.99977e-05
2.75059e-06
-2.07424e-05
2.75885e-06
-2.14833e-05
2.75838e-06
-2.22181e-05
2.74813e-06
-2.29438e-05
2.72693e-06
-2.36576e-05
2.69352e-06
-2.43559e-05
2.64658e-06
-2.50351e-05
2.58475e-06
-2.56911e-05
2.50664e-06
-2.63195e-05
2.41087e-06
-2.69156e-05
2.2961e-06
-2.74743e-05
2.16109e-06
-2.79903e-05
2.00473e-06
-2.84582e-05
1.82606e-06
-2.88723e-05
1.62436e-06
-2.92268e-05
1.39916e-06
-2.9516e-05
1.15032e-06
-2.97342e-05
8.78014e-07
-2.98757e-05
5.82828e-07
-2.99353e-05
2.65751e-07
-2.9908e-05
-7.17826e-08
-2.97894e-05
-4.27882e-07
-2.95754e-05
-8.00196e-07
-2.92629e-05
-1.18591e-06
-2.88493e-05
-1.58177e-06
-2.8333e-05
-1.98409e-06
-2.77132e-05
-2.38881e-06
-2.69902e-05
-2.79156e-06
-2.61655e-05
-3.18767e-06
-2.52415e-05
-3.57231e-06
-2.4222e-05
-3.94053e-06
-2.31119e-05
-4.28737e-06
-2.1917e-05
-4.60798e-06
-2.06447e-05
-4.89769e-06
-1.93033e-05
-5.15215e-06
-1.79019e-05
-5.36742e-06
-1.64507e-05
-5.54009e-06
-1.49608e-05
-5.66737e-06
-1.34437e-05
-5.74714e-06
-1.19114e-05
-5.77809e-06
-1.03762e-05
-5.75971e-06
-8.85058e-06
-5.69235e-06
-7.34667e-06
-5.57718e-06
-5.87641e-06
-5.41625e-06
-4.45116e-06
-5.21237e-06
-3.08154e-06
-4.96908e-06
-1.77727e-06
-4.69055e-06
-5.47003e-07
-4.38146e-06
6.01785e-07
-4.04689e-06
1.6629e-06
-3.69219e-06
2.63149e-06
-3.3228e-06
3.50404e-06
-2.94416e-06
4.27843e-06
-2.56154e-06
4.95381e-06
-2.17992e-06
5.53059e-06
-1.8039e-06
6.01028e-06
-1.4376e-06
6.39545e-06
-1.08458e-06
6.68949e-06
-7.47809e-07
6.89657e-06
-4.29645e-07
7.02137e-06
-1.31821e-07
7.06905e-06
1.44517e-07
7.04501e-06
3.98781e-07
6.95479e-06
6.30869e-07
6.80399e-06
8.41096e-07
6.59814e-06
1.0301e-06
6.34262e-06
1.19876e-06
6.04267e-06
1.34803e-06
5.70336e-06
1.47889e-06
5.3296e-06
1.59215e-06
4.92621e-06
1.68833e-06
4.49803e-06
1.76751e-06
4.05004e-06
1.82913e-06
3.58754e-06
1.87187e-06
3.11628e-06
1.89343e-06
2.64278e-06
1.89041e-06
2.17445e-06
1.85817e-06
1.71989e-06
1.79083e-06
1.28915e-06
1.68133e-06
8.9396e-07
1.52179e-06
5.48235e-07
1.30418e-06
2.68758e-07
1.02132e-06
7.65394e-08
6.6823e-07
2.45717e-07
-3.70282e-08
4.10351e-08
-1.49399e-07
2.24198e-07
-3.35036e-07
4.6732e-07
-5.89051e-07
7.30898e-07
-9.0479e-07
9.89868e-07
-1.27469e-06
1.22836e-06
-1.691e-06
1.43803e-06
-2.14636e-06
1.61615e-06
-2.6342e-06
1.7639e-06
-3.14891e-06
1.88483e-06
-3.686e-06
1.98376e-06
-4.24204e-06
2.06589e-06
-4.81458e-06
2.13618e-06
-5.40198e-06
2.19903e-06
-6.00329e-06
2.258e-06
-6.61804e-06
2.31583e-06
-7.24611e-06
2.37445e-06
-7.88756e-06
2.43506e-06
-8.54258e-06
2.49827e-06
-9.21133e-06
2.56421e-06
-9.89394e-06
2.63266e-06
-1.05904e-05
2.70317e-06
-1.13006e-05
2.77512e-06
-1.20243e-05
2.84782e-06
-1.27612e-05
2.92053e-06
-1.35106e-05
2.99255e-06
-1.4272e-05
3.06318e-06
-1.50446e-05
3.13177e-06
-1.58276e-05
3.19773e-06
-1.66201e-05
3.26048e-06
-1.74212e-05
3.31949e-06
-1.82298e-05
3.37421e-06
-1.90448e-05
3.42412e-06
-1.98651e-05
3.46861e-06
-2.06895e-05
3.50706e-06
-2.15165e-05
3.53874e-06
-2.23447e-05
3.56281e-06
-2.31725e-05
3.57835e-06
-2.39979e-05
3.58427e-06
-2.48189e-05
3.57937e-06
-2.56331e-05
3.5623e-06
-2.64377e-05
3.53158e-06
-2.72298e-05
3.48563e-06
-2.8006e-05
3.42275e-06
-2.87625e-05
3.34121e-06
-2.9495e-05
3.23923e-06
-3.01992e-05
3.11504e-06
-3.087e-05
2.96694e-06
-3.15023e-05
2.79332e-06
-3.20903e-05
2.59276e-06
-3.26283e-05
2.36404e-06
-3.31101e-05
2.1062e-06
-3.35296e-05
1.81863e-06
-3.38804e-05
1.5011e-06
-3.41562e-05
1.15381e-06
-3.43508e-05
7.77417e-07
-3.44581e-05
3.73125e-07
-3.44726e-05
-5.73386e-08
-3.43888e-05
-5.11664e-07
-3.4202e-05
-9.86985e-07
-3.39081e-05
-1.47985e-06
-3.35036e-05
-1.98624e-06
-3.29861e-05
-2.50163e-06
-3.23539e-05
-3.02099e-06
-3.16066e-05
-3.53887e-06
-3.07448e-05
-4.04947e-06
-2.97704e-05
-4.54672e-06
-2.86865e-05
-5.0244e-06
-2.74976e-05
-5.47622e-06
-2.62096e-05
-5.896e-06
-2.48296e-05
-6.27774e-06
-2.33659e-05
-6.61581e-06
-2.18283e-05
-6.90503e-06
-2.02275e-05
-7.14087e-06
-1.85754e-05
-7.31952e-06
-1.68845e-05
-7.43804e-06
-1.51681e-05
-7.49444e-06
-1.34401e-05
-7.48774e-06
-1.17144e-05
-7.41806e-06
-1.0005e-05
-7.28657e-06
-8.3257e-06
-7.09556e-06
-6.68975e-06
-6.84832e-06
-5.10971e-06
-6.54912e-06
-3.59719e-06
-6.20307e-06
-2.16268e-06
-5.81597e-06
-8.15376e-07
-5.3942e-06
4.36963e-07
-4.94453e-06
1.58808e-06
-4.47392e-06
2.63327e-06
-3.98936e-06
3.56941e-06
-3.49768e-06
4.3949e-06
-3.0054e-06
5.10957e-06
-2.51858e-06
5.71463e-06
-2.04266e-06
6.21249e-06
-1.58244e-06
6.60662e-06
-1.14193e-06
6.90136e-06
-7.24389e-07
7.10179e-06
-3.32256e-07
7.21353e-06
3.27851e-08
7.24253e-06
3.69774e-07
7.19501e-06
6.78394e-07
7.07722e-06
9.58882e-07
6.89542e-06
1.21191e-06
6.65572e-06
1.43845e-06
6.3641e-06
1.63966e-06
6.02632e-06
1.81667e-06
5.64802e-06
1.97046e-06
5.23468e-06
2.10167e-06
4.79182e-06
2.21037e-06
4.32503e-06
2.29591e-06
3.84022e-06
2.35668e-06
3.34373e-06
2.38992e-06
2.84262e-06
2.39152e-06
2.34488e-06
2.35591e-06
1.85973e-06
2.27598e-06
1.39791e-06
2.14314e-06
9.72152e-07
1.94755e-06
5.9777e-07
1.67856e-06
2.93646e-07
1.32544e-06
8.37373e-08
8.78139e-07
3.29455e-07
-5.09651e-08
9.20002e-08
-1.98689e-07
3.71922e-07
-4.35537e-07
7.04168e-07
-7.52194e-07
1.04756e-06
-1.1386e-06
1.37627e-06
-1.58468e-06
1.67444e-06
-2.08093e-06
1.93427e-06
-2.61879e-06
2.15402e-06
-3.19092e-06
2.33603e-06
-3.79128e-06
2.48518e-06
-4.41511e-06
2.60759e-06
-5.05885e-06
2.70962e-06
-5.71995e-06
2.79729e-06
-6.39674e-06
2.87582e-06
-7.08818e-06
2.94944e-06
-7.79373e-06
3.02138e-06
-8.51314e-06
3.09386e-06
-9.24634e-06
3.16826e-06
-9.99331e-06
3.24525e-06
-1.0754e-05
3.32494e-06
-1.15284e-05
3.40705e-06
-1.23163e-05
3.491e-06
-1.31172e-05
3.57606e-06
-1.39308e-05
3.6614e-06
-1.47564e-05
3.74617e-06
-1.55934e-05
3.82956e-06
-1.6441e-05
3.9108e-06
-1.72985e-05
3.98917e-06
-1.81648e-05
4.06405e-06
-1.90391e-05
4.13484e-06
-1.99206e-05
4.20099e-06
-2.08084e-05
4.26197e-06
-2.17015e-05
4.31721e-06
-2.2599e-05
4.36611e-06
-2.34999e-05
4.40798e-06
-2.44032e-05
4.44204e-06
-2.53077e-05
4.46733e-06
-2.62121e-05
4.48275e-06
-2.71149e-05
4.48704e-06
-2.80142e-05
4.47874e-06
-2.89081e-05
4.45619e-06
-2.97941e-05
4.41758e-06
-3.06695e-05
4.36095e-06
-3.15309e-05
4.28419e-06
-3.23748e-05
4.18512e-06
-3.31971e-05
4.06151e-06
-3.39932e-05
3.91113e-06
-3.47581e-05
3.73182e-06
-3.54863e-05
3.52155e-06
-3.6172e-05
3.27845e-06
-3.68089e-05
3.00094e-06
-3.73904e-05
2.68775e-06
-3.79098e-05
2.33799e-06
-3.83599e-05
1.95124e-06
-3.87337e-05
1.52758e-06
-3.9024e-05
1.06768e-06
-3.92236e-05
5.728e-07
-3.93259e-05
4.48665e-08
-3.9324e-05
-5.13469e-07
-3.92121e-05
-1.09892e-06
-3.89845e-05
-1.70745e-06
-3.86364e-05
-2.33433e-06
-3.81639e-05
-2.97419e-06
-3.75638e-05
-3.62101e-06
-3.68345e-05
-4.26823e-06
-3.59751e-05
-4.90882e-06
-3.49865e-05
-5.53537e-06
-3.38707e-05
-6.1402e-06
-3.26314e-05
-6.71554e-06
-3.12738e-05
-7.25361e-06
-2.98047e-05
-7.74684e-06
-2.82324e-05
-8.18802e-06
-2.6567e-05
-8.57046e-06
-2.48197e-05
-8.88817e-06
-2.30032e-05
-9.13603e-06
-2.11313e-05
-9.30992e-06
-1.92189e-05
-9.40688e-06
-1.72814e-05
-9.4252e-06
-1.5335e-05
-9.36451e-06
-1.33957e-05
-9.2258e-06
-1.14799e-05
-9.01142e-06
-9.60312e-06
-8.72508e-06
-7.78054e-06
-8.37171e-06
-6.02623e-06
-7.95738e-06
-4.35308e-06
-7.48912e-06
-2.77255e-06
-6.97473e-06
-1.29448e-06
-6.4226e-06
7.30167e-08
-5.84142e-06
1.32366e-06
-5.24e-06
2.45301e-06
-4.62703e-06
3.45845e-06
-4.01085e-06
4.33912e-06
-3.39924e-06
5.09577e-06
-2.79931e-06
5.73064e-06
-2.21731e-06
6.24729e-06
-1.65858e-06
6.65036e-06
-1.12746e-06
6.94539e-06
-6.27285e-07
7.1386e-06
-1.60429e-07
7.23671e-06
2.71665e-07
7.24672e-06
6.68389e-07
7.17575e-06
1.02985e-06
7.03095e-06
1.35672e-06
6.81931e-06
1.65009e-06
6.54767e-06
1.91129e-06
6.22266e-06
2.14168e-06
5.85068e-06
2.34244e-06
5.43798e-06
2.51436e-06
4.99077e-06
2.65758e-06
4.5153e-06
2.77138e-06
4.01806e-06
2.85393e-06
3.50596e-06
2.90202e-06
2.9866e-06
2.91088e-06
2.4685e-06
2.87401e-06
1.96147e-06
2.78301e-06
1.47697e-06
2.62764e-06
1.02867e-06
2.39585e-06
6.33173e-07
2.07405e-06
3.11111e-07
1.6475e-06
8.86453e-08
1.1006e-06
4.181e-07
-6.5154e-08
1.57154e-07
-2.4899e-07
5.55758e-07
-5.38234e-07
9.93412e-07
-9.18969e-07
1.42829e-06
-1.37754e-06
1.83484e-06
-1.90118e-06
2.19808e-06
-2.47848e-06
2.51157e-06
-3.0996e-06
2.77513e-06
-3.75637e-06
2.9928e-06
-4.44228e-06
3.17109e-06
-5.1523e-06
3.31761e-06
-5.88274e-06
3.44006e-06
-6.631e-06
3.54555e-06
-7.39535e-06
3.64017e-06
-8.1747e-06
3.72879e-06
-8.96841e-06
3.81508e-06
-9.77611e-06
3.90155e-06
-1.05975e-05
3.9897e-06
-1.14325e-05
4.08024e-06
-1.22808e-05
4.17324e-06
-1.31421e-05
4.26832e-06
-1.40159e-05
4.3648e-06
-1.49017e-05
4.46183e-06
-1.57988e-05
4.55849e-06
-1.67064e-05
4.65383e-06
-1.76239e-05
4.747e-06
-1.85503e-05
4.83719e-06
-1.94848e-05
4.92372e-06
-2.04267e-05
5.00597e-06
-2.13753e-05
5.08342e-06
-2.23299e-05
5.15558e-06
-2.32899e-05
5.222e-06
-2.42549e-05
5.28218e-06
-2.52244e-05
5.33555e-06
-2.61978e-05
5.38145e-06
-2.71748e-05
5.41903e-06
-2.81548e-05
5.44727e-06
-2.91369e-05
5.46494e-06
-3.01205e-05
5.47055e-06
-3.11041e-05
5.46238e-06
-3.20864e-05
5.43845e-06
-3.30653e-05
5.39655e-06
-3.40387e-05
5.33428e-06
-3.50035e-05
5.24904e-06
-3.59565e-05
5.13812e-06
-3.68937e-05
4.99873e-06
-3.78107e-05
4.82808e-06
-3.87023e-05
4.62342e-06
-3.95629e-05
4.38212e-06
-4.03862e-05
4.10178e-06
-4.11655e-05
3.78026e-06
-4.18936e-05
3.41581e-06
-4.25627e-05
3.0071e-06
-4.31647e-05
2.55333e-06
-4.36915e-05
2.05431e-06
-4.41343e-05
1.5105e-06
-4.44846e-05
9.23093e-07
-4.47338e-05
2.94061e-07
-4.48735e-05
-3.73789e-07
-4.48956e-05
-1.07681e-06
-4.47925e-05
-1.81049e-06
-4.45574e-05
-2.56945e-06
-4.41841e-05
-3.34748e-06
-4.36676e-05
-4.13755e-06
-4.30039e-05
-4.93192e-06
-4.21905e-05
-5.72221e-06
-4.12264e-05
-6.49949e-06
-4.01121e-05
-7.25444e-06
-3.88502e-05
-7.97752e-06
-3.74447e-05
-8.65909e-06
-3.59019e-05
-9.28966e-06
-3.42298e-05
-9.86007e-06
-3.24386e-05
-1.03617e-05
-3.05401e-05
-1.07867e-05
-2.85479e-05
-1.11282e-05
-2.64773e-05
-1.13805e-05
-2.43449e-05
-1.15393e-05
-2.21684e-05
-1.16017e-05
-1.99663e-05
-1.15666e-05
-1.77578e-05
-1.14344e-05
-1.55618e-05
-1.12074e-05
-1.33975e-05
-1.08894e-05
-1.1283e-05
-1.04862e-05
-9.23583e-06
-1.00045e-05
-7.27202e-06
-9.45293e-06
-5.40604e-06
-8.84071e-06
-3.65055e-06
-8.17809e-06
-2.01614e-06
-7.47583e-06
-5.11272e-07
-6.74487e-06
8.57831e-07
-5.99614e-06
2.08715e-06
-5.24017e-06
3.17482e-06
-4.48691e-06
4.12099e-06
-3.74548e-06
4.92765e-06
-3.02397e-06
5.59843e-06
-2.32936e-06
6.13836e-06
-1.66738e-06
6.55359e-06
-1.04252e-06
6.85118e-06
-4.58014e-07
7.03879e-06
8.40546e-08
7.1245e-06
5.82677e-07
7.11658e-06
1.03777e-06
7.0233e-06
1.44999e-06
6.85283e-06
1.82056e-06
6.61311e-06
2.15102e-06
6.31179e-06
2.443e-06
5.95629e-06
2.69795e-06
5.55376e-06
2.91689e-06
5.11121e-06
3.10013e-06
4.63565e-06
3.24695e-06
4.13422e-06
3.35535e-06
3.61447e-06
3.42177e-06
3.08453e-06
3.44082e-06
2.55352e-06
3.40502e-06
2.03183e-06
3.3047e-06
1.53164e-06
3.12782e-06
1.06753e-06
2.85997e-06
6.57214e-07
2.48437e-06
3.22732e-07
1.98199e-06
9.18028e-08
1.33153e-06
5.09903e-07
-7.94736e-08
2.36628e-07
-2.99787e-07
7.76071e-07
-6.41969e-07
1.33559e-06
-1.0874e-06
1.87372e-06
-1.61872e-06
2.36616e-06
-2.22038e-06
2.79974e-06
-2.87897e-06
3.17016e-06
-3.58328e-06
3.47945e-06
-4.32431e-06
3.73383e-06
-5.09501e-06
3.94179e-06
-5.8901e-06
4.1127e-06
-6.70576e-06
4.25571e-06
-7.53931e-06
4.3791e-06
-8.38898e-06
4.48984e-06
-9.25362e-06
4.59343e-06
-1.01325e-05
4.69395e-06
-1.10251e-05
4.79413e-06
-1.19309e-05
4.89558e-06
-1.28497e-05
4.99902e-06
-1.37809e-05
5.10445e-06
-1.4724e-05
5.2114e-06
-1.56783e-05
5.31909e-06
-1.6643e-05
5.42658e-06
-1.76174e-05
5.53289e-06
-1.86007e-05
5.63705e-06
-1.95919e-05
5.73823e-06
-2.05904e-05
5.8357e-06
-2.15955e-05
5.92885e-06
-2.26068e-05
6.01723e-06
-2.36238e-05
6.10047e-06
-2.46465e-05
6.17826e-06
-2.56749e-05
6.25033e-06
-2.6709e-05
6.31632e-06
-2.77492e-05
6.3758e-06
-2.8796e-05
6.42816e-06
-2.98495e-05
6.47259e-06
-3.09102e-05
6.508e-06
-3.19783e-05
6.53301e-06
-3.30537e-05
6.54594e-06
-3.4136e-05
6.54473e-06
-3.52246e-05
6.52705e-06
-3.63183e-05
6.49021e-06
-3.74153e-05
6.43127e-06
-3.85133e-05
6.34703e-06
-3.96093e-05
6.23413e-06
-4.06997e-05
6.08907e-06
-4.17799e-05
5.90831e-06
-4.28448e-05
5.68833e-06
-4.38884e-05
5.42573e-06
-4.4904e-05
5.11733e-06
-4.58839e-05
4.76024e-06
-4.68201e-05
4.35196e-06
-4.77035e-05
3.8905e-06
-4.85246e-05
3.37443e-06
-4.92733e-05
2.80303e-06
-4.99392e-05
2.17635e-06
-5.05113e-05
1.49526e-06
-5.09789e-05
7.61605e-07
-5.13309e-05
-2.18205e-08
-5.15565e-05
-8.5115e-07
-5.16455e-05
-1.72149e-06
-5.15881e-05
-2.62685e-06
-5.13754e-05
-3.56017e-06
-5.09996e-05
-4.51339e-06
-5.0454e-05
-5.47747e-06
-4.97337e-05
-6.44252e-06
-4.88353e-05
-7.39789e-06
-4.77574e-05
-8.33234e-06
-4.65007e-05
-9.23424e-06
-4.50681e-05
-1.00917e-05
-4.34648e-05
-1.0893e-05
-4.16984e-05
-1.16264e-05
-3.9779e-05
-1.2281e-05
-3.77191e-05
-1.28466e-05
-3.55333e-05
-1.3314e-05
-3.32383e-05
-1.36755e-05
-3.08529e-05
-1.39247e-05
-2.83973e-05
-1.40573e-05
-2.58932e-05
-1.40707e-05
-2.33629e-05
-1.39646e-05
-2.08294e-05
-1.37408e-05
-1.83157e-05
-1.34032e-05
-1.58442e-05
-1.29576e-05
-1.34366e-05
-1.24122e-05
-1.11129e-05
-1.17766e-05
-8.89178e-06
-1.10618e-05
-6.78953e-06
-1.02803e-05
-4.82017e-06
-9.44519e-06
-2.99511e-06
-8.56993e-06
-1.32309e-06
-7.66816e-06
1.89912e-07
-6.75317e-06
1.54056e-06
-5.83755e-06
2.72807e-06
-4.93298e-06
3.75399e-06
-4.0499e-06