/*--------------------------------*- C++ -*----------------------------------*\
| =========                 |                                                 |
| \\      /  F ield         | OpenFOAM: The Open Source CFD Toolbox           |
|  \\    /   O peration     | Version:  2406                                  |
|   \\  /    A nd           | Website:  www.openfoam.com                      |
|    \\/     M anipulation  |                                                 |
\*---------------------------------------------------------------------------*/
FoamFile
{
    version     2.0;
    format      ascii;
    arch        "LSB;label=32;scalar=64";
    class       volVectorField;
    location    "42";
    object      U;
}
// * * * * * * * * * * * * * * * * * * * * * * * * * * * * * * * * * * * * * //

dimensions      [0 1 -1 0 0 0 0];

internalField   nonuniform List<vector> 
900
(
(0.000330575 -0.000553987 0)
(0.00370102 -0.00128209 0)
(0.00752519 -0.00102796 0)
(0.00917284 -0.000598464 0)
(0.00975995 -0.000527807 0)
(0.0096655 -0.00081929 0)
(0.00963125 -0.0012364 0)
(0.00954719 -0.00174296 0)
(0.00855138 -0.00334806 0)
(0.00382135 -0.00524061 0)
(-0.0070586 -0.00302669 0)
(-0.0252686 0.00399508 0)
(-0.0493933 0.0104204 0)
(-0.07447 0.0127072 0)
(-0.0963191 0.0118952 0)
(-0.112838 0.00956407 0)
(-0.122778 0.00635378 0)
(-0.125321 0.00264535 0)
(-0.120178 -0.0013314 0)
(-0.106938 -0.00533326 0)
(-0.0863029 -0.00900805 0)
(-0.0586904 -0.0117741 0)
(-0.027383 -0.0128187 0)
(0.00487581 -0.0111452 0)
(0.0301329 -0.005678 0)
(0.042984 0.00159068 0)
(0.0386766 0.00707895 0)
(0.0248295 0.00709856 0)
(0.0116516 0.0046702 0)
(0.00136332 0.0017278 0)
(0.0012339 -0.00345941 0)
(0.00698051 -0.00601316 0)
(0.0125602 -0.00439756 0)
(0.0144485 -0.00165726 0)
(0.0138465 7.9104e-05 0)
(0.0106078 0.000961421 0)
(0.00416504 0.00140532 0)
(-0.00929325 0.00283021 0)
(-0.0331101 0.00921321 0)
(-0.0668868 0.0212388 0)
(-0.105353 0.0325933 0)
(-0.141151 0.0387433 0)
(-0.170409 0.0390731 0)
(-0.192674 0.0344727 0)
(-0.208396 0.0267476 0)
(-0.217478 0.0171436 0)
(-0.219825 0.00638949 0)
(-0.215235 -0.00505242 0)
(-0.203596 -0.0168147 0)
(-0.184633 -0.0284599 0)
(-0.158559 -0.039066 0)
(-0.125615 -0.0473068 0)
(-0.087527 -0.0507361 0)
(-0.0468431 -0.0468108 0)
(-0.00884888 -0.0323203 0)
(0.0200613 -0.0103945 0)
(0.0316983 0.0113609 0)
(0.0263783 0.0196208 0)
(0.0153246 0.0191106 0)
(0.00216439 0.0112942 0)
(0.0020992 -0.0087078 0)
(0.0083484 -0.012683 0)
(0.0125861 -0.00844464 0)
(0.0115653 -0.00194295 0)
(0.0060745 0.00329847 0)
(-0.00618791 0.00878815 0)
(-0.028897 0.0186579 0)
(-0.0646071 0.0356354 0)
(-0.108999 0.0541611 0)
(-0.15221 0.0664385 0)
(-0.188568 0.0706506 0)
(-0.217005 0.0686395 0)
(-0.238053 0.0614771 0)
(-0.252788 0.0501918 0)
(-0.262198 0.0362492 0)
(-0.266708 0.0205765 0)
(-0.266659 0.00378922 0)
(-0.261959 -0.0138763 0)
(-0.252467 -0.032074 0)
(-0.237656 -0.0505337 0)
(-0.217018 -0.0679596 0)
(-0.189939 -0.082893 0)
(-0.156004 -0.0913421 0)
(-0.116179 -0.0898894 0)
(-0.0718686 -0.0720472 0)
(-0.0294878 -0.0389478 0)
(0.00258648 0.00107354 0)
(0.0104491 0.0228942 0)
(0.00865728 0.0288763 0)
(0.000188701 0.0188516 0)
(0.00267923 -0.0138563 0)
(0.00710297 -0.016575 0)
(0.00661669 -0.00752955 0)
(-0.00121562 0.00488377 0)
(-0.0174959 0.0179258 0)
(-0.0458503 0.0360608 0)
(-0.0868059 0.0599473 0)
(-0.133177 0.0828044 0)
(-0.175244 0.0967986 0)
(-0.208966 0.101043 0)
(-0.234785 0.0975826 0)
(-0.253294 0.0883465 0)
(-0.265703 0.0749419 0)
(-0.273396 0.0587198 0)
(-0.277569 0.0407796 0)
(-0.278899 0.0216618 0)
(-0.2779 0.0016686 0)
(-0.274635 -0.019337 0)
(-0.269091 -0.0412146 0)
(-0.260719 -0.0641825 0)
(-0.24879 -0.0869862 0)
(-0.231927 -0.108757 0)
(-0.208268 -0.124713 0)
(-0.176299 -0.131392 0)
(-0.133829 -0.118726 0)
(-0.084107 -0.0848619 0)
(-0.0314047 -0.0277745 0)
(-0.00164264 0.0133368 0)
(0.00350459 0.0298193 0)
(-0.00136474 0.0202523 0)
(0.0024073 -0.0185175 0)
(0.00227561 -0.0167427 0)
(-0.00592465 -0.0001344 0)
(-0.0238594 0.0221059 0)
(-0.0532013 0.047902 0)
(-0.0936592 0.0779628 0)
(-0.138529 0.105841 0)
(-0.178633 0.123993 0)
(-0.209657 0.129716 0)
(-0.231965 0.125624 0)
(-0.246818 0.114691 0)
(-0.25558 0.0993548 0)
(-0.260073 0.0813962 0)
(-0.261541 0.0618909 0)
(-0.261255 0.0416341 0)
(-0.25976 0.0208013 0)
(-0.257746 -0.000494141 0)
(-0.255304 -0.0227296 0)
(-0.252812 -0.0459087 0)
(-0.24989 -0.070864 0)
(-0.246317 -0.0966342 0)
(-0.240502 -0.123527 0)
(-0.230382 -0.146961 0)
(-0.21233 -0.164574 0)
(-0.181668 -0.164246 0)
(-0.135799 -0.141405 0)
(-0.0743702 -0.0812078 0)
(-0.0145115 -0.0124003 0)
(0.00348019 0.0287792 0)
(-0.00137591 0.0207726 0)
(0.000471257 -0.0184634 0)
(-0.00713786 -0.00816337 0)
(-0.0248074 0.0187686 0)
(-0.0523987 0.0523043 0)
(-0.0896467 0.0878043 0)
(-0.13125 0.121462 0)
(-0.169378 0.144912 0)
(-0.198102 0.153882 0)
(-0.217223 0.150189 0)
(-0.228617 0.138376 0)
(-0.234016 0.121381 0)
(-0.235348 0.101801 0)
(-0.234236 0.0811036 0)
(-0.231742 0.0600963 0)
(-0.228813 0.0392138 0)
(-0.225698 0.0183235 0)
(-0.222945 -0.00256611 0)
(-0.220502 -0.0241543 0)
(-0.219014 -0.0463958 0)
(-0.218307 -0.0706353 0)
(-0.219074 -0.0961548 0)
(-0.220269 -0.124773 0)
(-0.221087 -0.15282 0)
(-0.21753 -0.180376 0)
(-0.204337 -0.195358 0)
(-0.1745 -0.192427 0)
(-0.121549 -0.148819 0)
(-0.0483084 -0.06473 0)
(0.0065632 0.0170455 0)
(-0.00187136 0.0223572 0)
(-0.00242361 -0.0119503 0)
(-0.0179083 0.00853359 0)
(-0.043548 0.0450731 0)
(-0.0763984 0.0869213 0)
(-0.114424 0.12664 0)
(-0.150466 0.15755 0)
(-0.178617 0.172554 0)
(-0.196319 0.17178 0)
(-0.205969 0.160175 0)
(-0.209564 0.142386 0)
(-0.209297 0.121415 0)
(-0.20701 0.099585 0)
(-0.203926 0.0778157 0)
(-0.200662 0.0564832 0)
(-0.197662 0.0356545 0)
(-0.194773 0.0149583 0)
(-0.192302 -0.00555226 0)
(-0.189918 -0.0266274 0)
(-0.188329 -0.0478619 0)
(-0.187253 -0.0707675 0)
(-0.188032 -0.0943177 0)
(-0.190071 -0.121482 0)
(-0.194445 -0.149341 0)
(-0.198267 -0.181319 0)
(-0.198478 -0.207128 0)
(-0.187103 -0.224565 0)
(-0.153131 -0.206958 0)
(-0.0941796 -0.142 0)
(-0.00617457 -0.0165749 0)
(0.00411662 0.0250597 0)
(-0.00539154 0.00191345 0)
(-0.027287 0.0332143 0)
(-0.0575758 0.0773258 0)
(-0.0911408 0.12332 0)
(-0.125541 0.161825 0)
(-0.153614 0.185686 0)
(-0.172274 0.190794 0)
(-0.181568 0.181349 0)
(-0.184889 0.163555 0)
(-0.184101 0.141841 0)
(-0.181561 0.118935 0)
(-0.178517 0.0965087 0)
(-0.175687 0.074819 0)
(-0.173185 0.0538367 0)
(-0.171098 0.0333565 0)
(-0.169043 0.0128879 0)
(-0.167268 -0.00739362 0)
(-0.165266 -0.0282876 0)
(-0.163833 -0.048991 0)
(-0.162375 -0.0711679 0)
(-0.162528 -0.0931685 0)
(-0.163444 -0.118608 0)
(-0.16745 -0.144343 0)
(-0.172298 -0.176433 0)
(-0.178245 -0.206372 0)
(-0.177926 -0.237384 0)
(-0.163039 -0.242408 0)
(-0.124236 -0.211253 0)
(-0.044432 -0.0812409 0)
(0.0188132 0.0205138 0)
(-0.00708562 0.0205462 0)
(-0.0323456 0.0607781 0)
(-0.0637465 0.108707 0)
(-0.0949054 0.15482 0)
(-0.1239 0.188905 0)
(-0.14438 0.204215 0)
(-0.155936 0.200454 0)
(-0.159898 0.184396 0)
(-0.159984 0.16268 0)
(-0.157601 0.139035 0)
(-0.155029 0.115799 0)
(-0.152593 0.0936644 0)
(-0.150784 0.0724708 0)
(-0.149215 0.0518381 0)
(-0.147991 0.0315469 0)
(-0.146545 0.0110572 0)
(-0.145293 -0.00922619 0)
(-0.143507 -0.0301823 0)
(-0.142206 -0.0505721 0)
(-0.140357 -0.0722895 0)
(-0.139952 -0.0929887 0)
(-0.139518 -0.116884 0)
(-0.142353 -0.140147 0)
(-0.14598 -0.1708 0)
(-0.153504 -0.201196 0)
(-0.158111 -0.23952 0)
(-0.156013 -0.261457 0)
(-0.132544 -0.259321 0)
(-0.0791548 -0.16276 0)
(0.0107184 0.000650271 0)
(-0.00749331 0.0413385 0)
(-0.0333313 0.0901175 0)
(-0.0634133 0.139766 0)
(-0.0906569 0.183549 0)
(-0.113974 0.211213 0)
(-0.12821 0.217836 0)
(-0.134898 0.206399 0)
(-0.135946 0.185535 0)
(-0.13476 0.161347 0)
(-0.132347 0.136968 0)
(-0.130527 0.113987 0)
(-0.128955 0.0922885 0)
(-0.128055 0.0714952 0)
(-0.127153 0.0510146 0)
(-0.126573 0.0307565 0)
(-0.125596 0.0100972 0)
(-0.124923 -0.0103147 0)
(-0.12353 -0.0315518 0)
(-0.122748 -0.0519447 0)
(-0.120961 -0.0737044 0)
(-0.120565 -0.0936984 0)
(-0.119131 -0.116606 0)
(-0.120793 -0.137468 0)
(-0.12217 -0.16571 0)
(-0.129037 -0.193782 0)
(-0.135004 -0.234929 0)
(-0.140621 -0.267658 0)
(-0.13013 -0.287969 0)
(-0.0943709 -0.225205 0)
(-0.0212563 -0.0465786 0)
(-0.00661436 0.0612351 0)
(-0.0306171 0.11675 0)
(-0.0573641 0.165759 0)
(-0.0799447 0.205314 0)
(-0.0981136 0.226289 0)
(-0.10779 0.22515 0)
(-0.111787 0.20815 0)
(-0.111684 0.184233 0)
(-0.110533 0.159013 0)
(-0.108745 0.134728 0)
(-0.107786 0.112346 0)
(-0.106843 0.091103 0)
(-0.106494 0.0706549 0)
(-0.105856 0.0502532 0)
(-0.105607 0.0300452 0)
(-0.104807 0.00926634 0)
(-0.104554 -0.0111541 0)
(-0.103432 -0.032575 0)
(-0.103266 -0.0529018 0)
(-0.101762 -0.0748083 0)
(-0.101967 -0.0944594 0)
(-0.10028 -0.117134 0)
(-0.101709 -0.136622 0)
(-0.101149 -0.163113 0)
(-0.106382 -0.187831 0)
(-0.11043 -0.228218 0)
(-0.119132 -0.265852 0)
(-0.116365 -0.305443 0)
(-0.0927864 -0.271726 0)
(-0.0364412 -0.114832 0)
(-0.00490929 0.0786202 0)
(-0.0254191 0.141037 0)
(-0.0480079 0.188944 0)
(-0.0660121 0.224361 0)
(-0.0798065 0.239033 0)
(-0.0863531 0.231691 0)
(-0.0888351 0.210403 0)
(-0.0884427 0.184416 0)
(-0.0876532 0.158498 0)
(-0.0865001 0.134299 0)
(-0.0860922 0.112173 0)
(-0.0854613 0.0910257 0)
(-0.0853519 0.0706196 0)
(-0.0847616 0.0500977 0)
(-0.0847203 0.029861 0)
(-0.0840104 0.0089305 0)
(-0.0841823 -0.0114681 0)
(-0.0833191 -0.0330572 0)
(-0.0838614 -0.053291 0)
(-0.0826956 -0.0753588 0)
(-0.0837552 -0.0947311 0)
(-0.0821605 -0.117386 0)
(-0.0841342 -0.136029 0)
(-0.0825965 -0.16171 0)
(-0.0870377 -0.183894 0)
(-0.0885768 -0.222741 0)
(-0.0974724 -0.261281 0)
(-0.097262 -0.314186 0)
(-0.0822459 -0.306247 0)
(-0.0340839 -0.176377 0)
(-0.00259517 0.0915401 0)
(-0.0185439 0.159841 0)
(-0.0362463 0.20614 0)
(-0.0498336 0.237039 0)
(-0.0600087 0.246525 0)
(-0.0644622 0.234203 0)
(-0.0664081 0.210179 0)
(-0.0662378 0.182976 0)
(-0.0660577 0.156973 0)
(-0.0654168 0.133045 0)
(-0.0653598 0.111239 0)
(-0.0647997 0.0902246 0)
(-0.0647627 0.069955 0)
(-0.0640699 0.0494536 0)
(-0.0641577 0.0293825 0)
(-0.0634284 0.00850277 0)
(-0.0639911 -0.0116498 0)
(-0.0633037 -0.0332135 0)
(-0.0645992 -0.0531956 0)
(-0.0637798 -0.0753572 0)
(-0.0658815 -0.0945082 0)
(-0.0645449 -0.117355 0)
(-0.0674687 -0.135539 0)
(-0.0654144 -0.160962 0)
(-0.06981 -0.181133 0)
(-0.0692166 -0.218469 0)
(-0.078189 -0.256505 0)
(-0.0791836 -0.32028 0)
(-0.0712909 -0.335137 0)
(-0.0305529 -0.231412 0)
(-0.000118298 0.0998836 0)
(-0.0108305 0.17475 0)
(-0.0236367 0.220153 0)
(-0.0332194 0.248168 0)
(-0.0403348 0.253709 0)
(-0.0434214 0.238293 0)
(-0.0450636 0.212307 0)
(-0.0451865 0.184202 0)
(-0.0453783 0.157802 0)
(-0.0449996 0.133684 0)
(-0.045054 0.111704 0)
(-0.0444303 0.0904569 0)
(-0.0444109 0.0700762 0)
(-0.0435877 0.0494371 0)
(-0.043832 0.0294616 0)
(-0.0430624 0.00860302 0)
(-0.0440572 -0.0112652 0)
(-0.0435016 -0.0327416 0)
(-0.0456003 -0.0523739 0)
(-0.0450987 -0.0745291 0)
(-0.0483685 -0.0933822 0)
(-0.0474078 -0.116442 0)
(-0.0516695 -0.134419 0)
(-0.0496048 -0.160203 0)
(-0.05474 -0.17927 0)
(-0.0524512 -0.215247 0)
(-0.0612197 -0.250617 0)
(-0.0618925 -0.320929 0)
(-0.0603818 -0.35494 0)
(-0.0264105 -0.278477 0)
(0.00247565 0.102546 0)
(-0.00279672 0.183238 0)
(-0.0105239 0.228415 0)
(-0.0164007 0.253614 0)
(-0.0209363 0.256669 0)
(-0.0229972 0.238916 0)
(-0.0246677 0.211868 0)
(-0.0251371 0.183163 0)
(-0.0257698 0.156681 0)
(-0.0255666 0.13254 0)
(-0.0257277 0.11061 0)
(-0.0249774 0.0893726 0)
(-0.0249836 0.0691384 0)
(-0.0239826 0.048618 0)
(-0.024399 0.0289896 0)
(-0.023533 0.00839655 0)
(-0.0249774 -0.0109445 0)
(-0.0244788 -0.0321018 0)
(-0.027394 -0.0511779 0)
(-0.0271285 -0.0731583 0)
(-0.031597 -0.0915966 0)
(-0.0309575 -0.114795 0)
(-0.0366871 -0.132539 0)
(-0.0347684 -0.158811 0)
(-0.0413273 -0.177336 0)
(-0.0381987 -0.212977 0)
(-0.0477238 -0.246158 0)
(-0.0478219 -0.321179 0)
(-0.0516171 -0.370347 0)
(-0.0227329 -0.318602 0)
(0.00475269 0.100387 0)
(0.00514717 0.187696 0)
(0.00226428 0.233781 0)
(-0.000142278 0.258591 0)
(-0.00221263 0.260411 0)
(-0.00341671 0.242213 0)
(-0.00491345 0.214607 0)
(-0.00562758 0.185438 0)
(-0.00647157 0.158413 0)
(-0.00632928 0.13372 0)
(-0.00654131 0.111339 0)
(-0.00566013 0.0897168 0)
(-0.00577191 0.0693597 0)
(-0.00464497 0.0487542 0)
(-0.00536421 0.0293619 0)
(-0.0044408 0.00895367 0)
(-0.00644525 -0.00987608 0)
(-0.00599416 -0.0307005 0)
(-0.0097989 -0.0491558 0)
(-0.00972607 -0.0708826 0)
(-0.0154649 -0.0888261 0)
(-0.0151222 -0.112123 0)
(-0.022464 -0.129689 0)
(-0.0207251 -0.156561 0)
(-0.0290342 -0.174771 0)
(-0.0252952 -0.210011 0)
(-0.03613 -0.239999 0)
(-0.0354241 -0.317442 0)
(-0.0444862 -0.379511 0)
(-0.0195978 -0.353257 0)
(0.00677478 0.0927465 0)
(0.0125484 0.185467 0)
(0.0145949 0.233689 0)
(0.0154629 0.257891 0)
(0.0156004 0.259924 0)
(0.0153158 0.241533 0)
(0.0138499 0.214011 0)
(0.0129484 0.184531 0)
(0.0117548 0.157289 0)
(0.0118273 0.132355 0)
(0.0114506 0.109908 0)
(0.0124679 0.0882999 0)
(0.0121907 0.0681902 0)
(0.0134852 0.0478426 0)
(0.0124298 0.0289802 0)
(0.0134699 0.00902621 0)
(0.010881 -0.0090526 0)
(0.011365 -0.0293138 0)
(0.0066676 -0.0469356 0)
(0.00666649 -0.0682059 0)
(-0.000332723 -0.0854817 0)
(-0.000143729 -0.108701 0)
(-0.0091609 -0.12597 0)
(-0.00755708 -0.153361 0)
(-0.018005 -0.171565 0)
(-0.0140209 -0.207171 0)
(-0.0269364 -0.23481 0)
(-0.0252864 -0.313535 0)
(-0.0391676 -0.385412 0)
(-0.0168356 -0.383215 0)
(0.00794603 0.0812997 0)
(0.0191546 0.179733 0)
(0.0258728 0.230998 0)
(0.0301256 0.257566 0)
(0.0327987 0.260715 0)
(0.0336767 0.244124 0)
(0.0327464 0.217187 0)
(0.0318412 0.187649 0)
(0.030484 0.15979 0)
(0.0304989 0.134073 0)
(0.0298946 0.11102 0)
(0.0309814 0.0889341 0)
(0.030384 0.0687343 0)
(0.0317686 0.0483502 0)
(0.0302009 0.0298488 0)
(0.031298 0.0101994 0)
(0.0279616 -0.00719479 0)
(0.0284679 -0.026953 0)
(0.0227672 -0.0437461 0)
(0.0227558 -0.0645447 0)
(0.0144213 -0.081123 0)
(0.0145797 -0.104203 0)
(0.00380517 -0.121152 0)
(0.00543719 -0.148914 0)
(-0.0073421 -0.16695 0)
(-0.00309211 -0.202547 0)
(-0.0187551 -0.22734 0)
(-0.0161651 -0.306271 0)
(-0.035204 -0.386941 0)
(-0.0143795 -0.409838 0)
(0.00828156 0.0657565 0)
(0.0242161 0.167143 0)
(0.0357847 0.222771 0)
(0.0433715 0.250668 0)
(0.0484142 0.256386 0)
(0.050776 0.241411 0)
(0.0503194 0.215814 0)
(0.0496387 0.186525 0)
(0.0480145 0.158577 0)
(0.0480375 0.132591 0)
(0.0471059 0.109442 0)
(0.0483212 0.0873914 0)
(0.0473659 0.0675374 0)
(0.0489377 0.047533 0)
(0.0468523 0.0297191 0)
(0.0481284 0.0106746 0)
(0.0440529 -0.00580173 0)
(0.0447221 -0.0248332 0)
(0.0380231 -0.0406177 0)
(0.0381738 -0.060738 0)
(0.0285033 -0.0764648 0)
(0.0288306 -0.0991887 0)
(0.0162318 -0.115686 0)
(0.0180265 -0.143598 0)
(0.00264278 -0.161552 0)
(0.00711391 -0.197428 0)
(-0.0118702 -0.220089 0)
(-0.00811113 -0.29851 0)
(-0.0324257 -0.385909 0)
(-0.0119369 -0.433473 0)
(0.00682812 0.0490983 0)
(0.0274413 0.152055 0)
(0.0435975 0.21206 0)
(0.0550352 0.244922 0)
(0.0632564 0.253516 0)
(0.0677536 0.242341 0)
(0.0687349 0.218607 0)
(0.0687307 0.19003 0)
(0.0671886 0.161745 0)
(0.0672849 0.134969 0)
(0.065948 0.111174 0)
(0.0671963 0.0885505 0)
(0.0656775 0.0686391 0)
(0.0673518 0.0486101 0)
(0.0645364 0.0312727 0)
(0.0659562 0.0126012 0)
(0.0609467 -0.00306044 0)
(0.0618107 -0.0214872 0)
(0.0539462 -0.0363188 0)
(0.0543729 -0.0557995 0)
(0.0432333 -0.0706916 0)
(0.0439011 -0.0929917 0)
(0.0293257 -0.108973 0)
(0.0314446 -0.136751 0)
(0.0131615 -0.154307 0)
(0.0178689 -0.189879 0)
(-0.00518536 -0.210155 0)
(-0.000273343 -0.28752 0)
(-0.0305561 -0.381472 0)
(-0.00938726 -0.454968 0)
(0.00401943 0.0315819 0)
(0.0277147 0.129843 0)
(0.0487572 0.195246 0)
(0.0639709 0.230589 0)
(0.0750658 0.243719 0)
(0.0821893 0.235628 0)
(0.0846439 0.21487 0)
(0.0859868 0.187702 0)
(0.0847488 0.160048 0)
(0.0853932 0.133366 0)
(0.083784 0.109637 0)
(0.0853777 0.0871108 0)
(0.0833503 0.0676119 0)
(0.0853835 0.0480342 0)
(0.0818669 0.031479 0)
(0.0836839 0.0135184 0)
(0.077754 -0.00113876 0)
(0.0790775 -0.0187129 0)
(0.0700444 -0.0324715 0)
(0.0710076 -0.051095 0)
(0.0583547 -0.0650283 0)
(0.0595673 -0.0866239 0)
(0.0428638 -0.101905 0)
(0.0453701 -0.129147 0)
(0.0238407 -0.146175 0)
(0.0287324 -0.181272 0)
(0.00100927 -0.199723 0)
(0.00732007 -0.275471 0)
(-0.0295063 -0.374782 0)
(-0.00645483 -0.474368 0)
(0.000177777 0.0177921 0)
(0.025246 0.107216 0)
(0.0504997 0.176128 0)
(0.0700858 0.218661 0)
(0.0853705 0.235569 0)
(0.0960928 0.232847 0)
(0.101564 0.215184 0)
(0.105137 0.189926 0)
(0.105004 0.162817 0)
(0.106579 0.135812 0)
(0.104852 0.111771 0)
(0.106849 0.0887351 0)
(0.104181 0.0693123 0)
(0.106568 0.0497148 0)
(0.102135 0.0337563 0)
(0.1044 0.0161978 0)
(0.0973114 0.00245613 0)
(0.0992087 -0.0144565 0)
(0.0887501 -0.0271687 0)
(0.090388 -0.0450064 0)
(0.0759352 -0.0579258 0)
(0.0778008 -0.0787082 0)
(0.0586115 -0.0930848 0)
(0.0614915 -0.119384 0)
(0.036197 -0.135456 0)
(0.0410876 -0.169352 0)
(0.00780907 -0.185955 0)
(0.0154824 -0.259758 0)
(-0.0289775 -0.365063 0)
(-0.00289139 -0.49205 0)
(-0.00157191 0.00623153 0)
(0.0200408 0.0787714 0)
(0.0486706 0.150514 0)
(0.0716516 0.195064 0)
(0.0898818 0.217815 0)
(0.104642 0.218923 0)
(0.113101 0.205962 0)
(0.120283 0.183756 0)
(0.12209 0.158782 0)
(0.125986 0.132914 0)
(0.124837 0.109629 0)
(0.128249 0.087078 0)
(0.12525 0.0682648 0)
(0.128705 0.0492737 0)
(0.123409 0.0341372 0)
(0.126674 0.0174232 0)
(0.118362 0.00468267 0)
(0.121274 -0.0112201 0)
(0.109279 -0.0228384 0)
(0.111905 -0.0395649 0)
(0.0954813 -0.0513614 0)
(0.0981096 -0.070911 0)
(0.0761119 -0.0841077 0)
(0.0791989 -0.108847 0)
(0.049625 -0.123649 0)
(0.0542266 -0.155796 0)
(0.0146973 -0.171147 0)
(0.0238636 -0.242364 0)
(-0.0290891 -0.353265 0)
(0.001605 -0.50778 0)
(-0.00202053 -0.000169486 0)
(0.0136643 0.0570418 0)
(0.0423019 0.125021 0)
(0.0687826 0.177658 0)
(0.0917428 0.202931 0)
(0.111455 0.209685 0)
(0.124774 0.200034 0)
(0.136608 0.180807 0)
(0.141601 0.15777 0)
(0.148658 0.13277 0)
(0.148775 0.110283 0)
(0.154125 0.0878956 0)
(0.151057 0.0697399 0)
(0.155892 0.0510126 0)
(0.149745 0.0367857 0)
(0.154216 0.02058 0)
(0.144542 0.00899652 0)
(0.14859 -0.00618929 0)
(0.134758 -0.016466 0)
(0.138379 -0.0322358 0)
(0.119474 -0.0425054 0)
(0.122727 -0.0606799 0)
(0.0972185 -0.0720878 0)
(0.100307 -0.094751 0)
(0.0656894 -0.107622 0)
(0.0697969 -0.137217 0)
(0.0231499 -0.151576 0)
(0.0340344 -0.219998 0)
(-0.0287708 -0.338419 0)
(0.00772001 -0.521334 0)
(0.0013298 -0.00551814 0)
(0.00907292 0.03347 0)
(0.032378 0.0954397 0)
(0.0593673 0.144599 0)
(0.0829012 0.175266 0)
(0.107953 0.185044 0)
(0.125595 0.181088 0)
(0.144251 0.166209 0)
(0.153702 0.147146 0)
(0.166466 0.124969 0)
(0.169084 0.104665 0)
(0.178572 0.0839146 0)
(0.176035 0.0670699 0)
(0.183893 0.0495951 0)
(0.176938 0.0364595 0)
(0.183782 0.0215183 0)
(0.172447 0.0110563 0)
(0.178444 -0.00270039 0)
(0.162311 -0.0117233 0)
(0.16746 -0.0257794 0)
(0.145579 -0.0345553 0)
(0.149768 -0.0505421 0)
(0.120321 -0.0601066 0)
(0.123497 -0.079895 0)
(0.0833906 -0.090771 0)
(0.0867885 -0.11716 0)
(0.0325965 -0.131602 0)
(0.0450216 -0.19628 0)
(-0.0281227 -0.322029 0)
(0.0159782 -0.531653 0)
(-0.0001534 -0.0104385 0)
(0.00279241 0.0269001 0)
(0.0176002 0.0751672 0)
(0.044074 0.127992 0)
(0.0717267 0.154703 0)
(0.101854 0.167149 0)
(0.125404 0.164363 0)
(0.150935 0.152401 0)
(0.165688 0.136449 0)
(0.184817 0.116863 0)
(0.190774 0.0992213 0)
(0.205121 0.0803067 0)
(0.203966 0.065576 0)
(0.215281 0.0493852 0)
(0.208252 0.0381762 0)
(0.217562 0.0242409 0)
(0.205088 0.0157741 0)
(0.212874 0.00296295 0)
(0.194647 -0.00380928 0)
(0.201049 -0.0167083 0)
(0.175947 -0.0227785 0)
(0.180875 -0.0369507 0)
(0.146679 -0.0431662 0)
(0.150148 -0.0598935 0)
(0.103402 -0.0671437 0)
(0.107525 -0.0896648 0)
(0.0452895 -0.104052 0)
(0.0618571 -0.164785 0)
(-0.0219933 -0.301615 0)
(0.0287145 -0.536825 0)
(0.00502384 -0.00789802 0)
(0.00519808 0.0143285 0)
(-0.00142009 0.0541864 0)
(0.0194935 0.0887962 0)
(0.0413473 0.117527 0)
(0.0783283 0.130014 0)
(0.106181 0.132437 0)
(0.141706 0.124893 0)
(0.162147 0.113957 0)
(0.190727 0.0988731 0)
(0.200638 0.0851318 0)
(0.22272 0.0696175 0)
(0.223108 0.0576847 0)
(0.240514 0.044096 0)
(0.232839 0.0349642 0)
(0.247099 0.0233566 0)
(0.23216 0.0165851 0)
(0.244244 0.00626797 0)
(0.222031 0.00105517 0)
(0.232429 -0.00878764 0)
(0.202098 -0.0132228 0)
(0.210991 -0.0234208 0)
(0.170763 -0.0278552 0)
(0.178505 -0.0397034 0)
(0.125628 -0.0458501 0)
(0.134527 -0.0641535 0)
(0.0656614 -0.0818757 0)
(0.0855298 -0.138039 0)
(-0.00818934 -0.282011 0)
(0.0472059 -0.531111 0)
(-0.0243531 -0.0227283 0)
(-0.0244711 0.0358396 0)
(-0.0204935 0.060981 0)
(-0.0102034 0.0876554 0)
(0.0189495 0.0963972 0)
(0.0585914 0.102919 0)
(0.0916646 0.101754 0)
(0.134073 0.0959937 0)
(0.159408 0.0885538 0)
(0.195388 0.0775895 0)
(0.208918 0.0685501 0)
(0.237464 0.0570002 0)
(0.239648 0.0492328 0)
(0.262353 0.0387805 0)
(0.254701 0.0331866 0)
(0.273453 0.0239312 0)
(0.257065 0.0204298 0)
(0.273429 0.0118823 0)
(0.248574 0.0101176 0)
(0.263805 0.00166676 0)
(0.229759 0.00128483 0)
(0.245044 -0.007666 0)
(0.199837 -0.00715462 0)
(0.2168 -0.0174826 0)
(0.156866 -0.0179805 0)
(0.178704 -0.0334588 0)
(0.0997133 -0.0469961 0)
(0.134775 -0.0976333 0)
(0.038035 -0.246736 0)
(0.0828009 -0.502738 0)
(-0.0861935 0.0472224 0)
(-0.0885859 0.00770919 0)
(-0.119896 0.0400796 0)
(-0.0755324 0.0453822 0)
(-0.0545496 0.0483209 0)
(0.00255397 0.0551245 0)
(0.0362099 0.057453 0)
(0.0917925 0.0557938 0)
(0.118513 0.0535087 0)
(0.167855 0.0480866 0)
(0.181554 0.0439267 0)
(0.224601 0.0374845 0)
(0.225059 0.0335947 0)
(0.26377 0.0275002 0)
(0.252195 0.0246465 0)
(0.289087 0.0193116 0)
(0.266343 0.0174442 0)
(0.30389 0.0129136 0)
(0.270022 0.0116311 0)
(0.310551 0.00795655 0)
(0.26475 0.00664851 0)
(0.310539 0.00400116 0)
(0.251276 0.00167769 0)
(0.304592 -0.000249253 0)
(0.229898 -0.00631724 0)
(0.292336 -0.0132076 0)
(0.1999 -0.0371706 0)
(0.267273 -0.0891932 0)
(0.144161 -0.225013 0)
(0.138795 -0.431052 0)
(0.0792751 0.137846 0)
(0.117592 0.0752414 0)
(0.154135 0.04878 0)
(0.2074 0.0269961 0)
(0.224444 0.019314 0)
(0.274439 0.0133502 0)
(0.291245 0.0132034 0)
(0.345821 0.0130467 0)
(0.358963 0.0134832 0)
(0.413906 0.0134318 0)
(0.419385 0.0131044 0)
(0.472075 0.0124083 0)
(0.468061 0.0115901 0)
(0.518377 0.0105947 0)
(0.504781 0.00963322 0)
(0.553837 0.00861839 0)
(0.531137 0.0077037 0)
(0.580336 0.0067405 0)
(0.548973 0.00600711 0)
(0.599589 0.00496144 0)
(0.559756 0.00462346 0)
(0.612789 0.00304332 0)
(0.564237 0.00351441 0)
(0.620128 0.000155674 0)
(0.560814 0.0018366 0)
(0.617169 -0.00739819 0)
(0.53456 -0.00698075 0)
(0.570716 -0.0395856 0)
(0.393471 -0.0643519 0)
(0.289934 -0.196551 0)
)
;

boundaryField
{
    movingWall
    {
        type            fixedValue;
        value           uniform (1 0 0);
    }
    fixedWalls
    {
        type            noSlip;
    }
    frontAndBack
    {
        type            empty;
    }
}


// ************************************************************************* //
