/*--------------------------------*- C++ -*----------------------------------*\
| =========                 |                                                 |
| \\      /  F ield         | OpenFOAM: The Open Source CFD Toolbox           |
|  \\    /   O peration     | Version:  2406                                  |
|   \\  /    A nd           | Website:  www.openfoam.com                      |
|    \\/     M anipulation  |                                                 |
\*---------------------------------------------------------------------------*/
FoamFile
{
    version     2.0;
    format      ascii;
    arch        "LSB;label=32;scalar=64";
    class       surfaceScalarField;
    location    "20.25";
    object      phi_0;
}
// * * * * * * * * * * * * * * * * * * * * * * * * * * * * * * * * * * * * * //

dimensions      [0 3 -1 0 0 0 0];

oriented        oriented;

internalField   nonuniform List<scalar> 
32512
(
5.44202e-09
-5.5341e-09
2.60152e-08
-2.0574e-08
5.76717e-08
-3.16556e-08
9.50202e-08
-3.73486e-08
1.33939e-07
-3.89187e-08
1.71745e-07
-3.78071e-08
2.06864e-07
-3.51184e-08
2.38483e-07
-3.1619e-08
2.66287e-07
-2.78045e-08
2.90255e-07
-2.39679e-08
3.10512e-07
-2.02568e-08
3.27232e-07
-1.67196e-08
3.40572e-07
-1.33402e-08
3.50636e-07
-1.00646e-08
3.5746e-07
-6.82391e-09
3.61007e-07
-3.54617e-09
3.61073e-07
-6.64752e-11
3.57558e-07
3.51495e-09
3.50147e-07
7.41066e-09
3.38517e-07
1.16308e-08
3.22286e-07
1.6231e-08
3.01022e-07
2.1264e-08
2.7424e-07
2.67823e-08
2.41398e-07
3.28421e-08
2.01894e-07
3.95037e-08
1.55061e-07
4.68329e-08
1.00157e-07
5.49038e-08
3.63625e-08
6.37946e-08
-3.72263e-08
7.35888e-08
-1.21597e-07
8.43704e-08
-2.17821e-07
9.62247e-08
-3.27056e-07
1.09235e-07
-4.50533e-07
1.23477e-07
-5.89552e-07
1.39019e-07
-7.45466e-07
1.55915e-07
-9.1967e-07
1.74204e-07
-1.11358e-06
1.93905e-07
-1.32859e-06
2.15015e-07
-1.56609e-06
2.375e-07
-1.82739e-06
2.61297e-07
-2.11369e-06
2.86304e-07
-2.42607e-06
3.12379e-07
-2.7654e-06
3.39334e-07
-3.13234e-06
3.66935e-07
-3.52723e-06
3.94893e-07
-3.9501e-06
4.22871e-07
-4.40058e-06
4.50473e-07
-4.87783e-06
4.77258e-07
-5.38056e-06
5.0273e-07
-5.90692e-06
5.26351e-07
-6.45446e-06
5.47547e-07
-7.02017e-06
5.65711e-07
-7.60039e-06
5.80217e-07
-8.19082e-06
5.90428e-07
-8.78653e-06
5.95712e-07
-9.38199e-06
5.95454e-07
-9.97105e-06
5.8907e-07
-1.05471e-05
5.7602e-07
-1.11029e-05
5.55829e-07
-1.1631e-05
5.28098e-07
-1.21235e-05
4.92521e-07
-1.25724e-05
4.489e-07
-1.29696e-05
3.97166e-07
-1.3307e-05
3.37398e-07
-1.35768e-05
2.69851e-07
-1.37718e-05
1.94968e-07
-1.38851e-05
1.13282e-07
-1.39107e-05
2.55686e-08
-1.38406e-05
-7.00924e-08
-1.36733e-05
-1.67222e-07
-1.3405e-05
-2.68369e-07
-1.30338e-05
-3.71173e-07
-1.25597e-05
-4.7411e-07
-1.19842e-05
-5.75528e-07
-1.13105e-05
-6.73665e-07
-1.05438e-05
-7.66702e-07
-9.691e-06
-8.52795e-07
-8.76087e-06
-9.30132e-07
-7.76388e-06
-9.96985e-07
-6.71212e-06
-1.05177e-06
-5.61903e-06
-1.09309e-06
-4.4992e-06
-1.11983e-06
-3.36802e-06
-1.13117e-06
-2.24137e-06
-1.12666e-06
-1.13519e-06
-1.10618e-06
-6.49816e-08
-1.0702e-06
9.55119e-07
-1.0201e-06
1.91088e-06
-9.55756e-07
2.79048e-06
-8.79608e-07
3.58396e-06
-7.93479e-07
4.28345e-06
-6.99488e-07
4.88345e-06
-5.99997e-07
5.38088e-06
-4.97429e-07
5.77508e-06
-3.94206e-07
6.06773e-06
-2.92646e-07
6.26261e-06
-1.94879e-07
6.36538e-06
-1.02773e-07
6.38325e-06
-1.78683e-08
6.32457e-06
5.86749e-08
6.19869e-06
1.25887e-07
6.0152e-06
1.83482e-07
5.7839e-06
2.31306e-07
5.51436e-06
2.69534e-07
5.21574e-06
2.98625e-07
4.8965e-06
3.19243e-07
4.56429e-06
3.32209e-07
4.22585e-06
3.38439e-07
3.88695e-06
3.389e-07
3.55238e-06
3.34567e-07
3.22599e-06
3.2639e-07
2.91073e-06
3.15266e-07
2.6087e-06
3.02024e-07
2.32129e-06
2.87409e-07
2.04922e-06
2.72071e-07
1.79267e-06
2.56556e-07
1.55138e-06
2.4129e-07
1.32482e-06
2.26558e-07
1.11234e-06
2.12475e-07
9.13395e-07
1.98949e-07
7.27767e-07
1.85627e-07
5.55913e-07
1.71854e-07
3.9929e-07
1.56623e-07
2.60713e-07
1.38578e-07
1.44604e-07
1.16109e-07
5.69113e-08
8.76926e-08
3.91999e-09
5.29913e-08
-1.2012e-08
1.59319e-08
-1.20121e-08
2.06817e-08
-2.62166e-08
7.26032e-08
-7.24947e-08
1.44961e-07
-1.04015e-07
2.27662e-07
-1.20049e-07
3.12772e-07
-1.24028e-07
3.94703e-07
-1.19738e-07
4.69872e-07
-1.10288e-07
5.36223e-07
-9.79699e-08
5.92757e-07
-8.4339e-08
6.39148e-07
-7.03582e-08
6.75431e-07
-5.65395e-08
7.01781e-07
-4.30705e-08
7.18359e-07
-2.99185e-08
7.25206e-07
-1.69112e-08
7.22225e-07
-3.84252e-09
7.09027e-07
9.65134e-09
6.85171e-07
2.37899e-08
6.49853e-07
3.88333e-08
6.02205e-07
5.50585e-08
5.41144e-07
7.26918e-08
4.65426e-07
9.19487e-08
3.73651e-07
1.13039e-07
2.6426e-07
1.36173e-07
1.35529e-07
1.61573e-07
-1.44394e-08
1.89472e-07
-1.87728e-07
2.20122e-07
-3.86612e-07
2.53788e-07
-6.13573e-07
2.90755e-07
-8.71297e-07
3.31313e-07
-1.16268e-06
3.75749e-07
-1.49079e-06
4.24342e-07
-1.85891e-06
4.7735e-07
-2.27043e-06
5.34994e-07
-2.72886e-06
5.97449e-07
-3.23777e-06
6.64825e-07
-3.80072e-06
7.3716e-07
-4.42122e-06
8.144e-07
-5.10259e-06
8.96385e-07
-5.84792e-06
9.82836e-07
-6.65996e-06
1.07334e-06
-7.54098e-06
1.16732e-06
-8.49265e-06
1.26406e-06
-9.51597e-06
1.36265e-06
-1.06111e-05
1.46203e-06
-1.17771e-05
1.56092e-06
-1.30121e-05
1.6579e-06
-1.4313e-05
1.75135e-06
-1.56753e-05
1.83952e-06
-1.70931e-05
1.92052e-06
-1.85591e-05
1.99235e-06
-2.00645e-05
2.05295e-06
-2.1599e-05
2.10021e-06
-2.31508e-05
2.13205e-06
-2.47068e-05
2.14643e-06
-2.62525e-05
2.14142e-06
-2.77723e-05
2.11525e-06
-2.92496e-05
2.06634e-06
-3.06669e-05
1.99335e-06
-3.20063e-05
1.89524e-06
-3.32495e-05
1.77128e-06
-3.43781e-05
1.62111e-06
-3.5374e-05
1.44477e-06
-3.62195e-05
1.24274e-06
-3.68981e-05
1.01594e-06
-3.73941e-05
7.65832e-07
-3.76935e-05
4.94435e-07
-3.77849e-05
2.04707e-07
-3.76569e-05
-1.02514e-07
-3.72997e-05
-4.27294e-07
-3.67076e-05
-7.59241e-07
-3.58793e-05
-1.09676e-06
-3.48146e-05
-1.43579e-06
-3.35171e-05
-1.77167e-06
-3.19932e-05
-2.09945e-06
-3.02528e-05
-2.41398e-06
-2.83095e-05
-2.71006e-06
-2.61798e-05
-2.98246e-06
-2.38838e-05
-3.22614e-06
-2.14445e-05
-3.43629e-06
-1.88877e-05
-3.60854e-06
-1.62418e-05
-3.73906e-06
-1.35369e-05
-3.82473e-06
-1.08048e-05
-3.86326e-06
-8.07815e-06
-3.8533e-06
-5.38977e-06
-3.79456e-06
-2.77202e-06
-3.68795e-06
-2.5659e-07
-3.53553e-06
2.12838e-06
-3.34072e-06
4.35544e-06
-3.10667e-06
6.40134e-06
-2.83938e-06
8.24662e-06
-2.54476e-06
9.87606e-06
-2.22944e-06
1.12791e-05
-1.90046e-06
1.24499e-05
-1.56501e-06
1.33875e-05
-1.23021e-06
1.40954e-05
-9.02834e-07
1.45817e-05
-5.8908e-07
1.48582e-05
-2.94395e-07
1.49393e-05
-2.2349e-08
1.48439e-05
2.21221e-07
1.45911e-05
4.3631e-07
1.42016e-05
6.20774e-07
1.36969e-05
7.74317e-07
1.30979e-05
8.97572e-07
1.24252e-05
9.91958e-07
1.16979e-05
1.05953e-06
1.09335e-05
1.10281e-06
1.01478e-05
1.12465e-06
9.35427e-06
1.12806e-06
8.56455e-06
1.11611e-06
7.78802e-06
1.0918e-06
7.03207e-06
1.05797e-06
6.30221e-06
1.01727e-06
5.60226e-06
9.72021e-07
4.93458e-06
9.24236e-07
4.30036e-06
8.75508e-07
3.69998e-06
8.26941e-07
3.1334e-06
7.79055e-07
2.60068e-06
7.31668e-07
2.10254e-06
6.83765e-07
1.641e-06
6.33393e-07
1.22002e-06
5.77606e-07
8.46021e-07
5.12576e-07
5.28088e-07
4.34042e-07
2.77339e-07
3.38442e-07
1.04855e-07
2.25476e-07
1.69479e-08
1.03839e-07
4.93574e-09
3.20076e-08
-5.82232e-08
1.04514e-07
-1.45001e-07
2.00537e-07
-2.00039e-07
3.0725e-07
-2.26762e-07
4.14925e-07
-2.31703e-07
5.16594e-07
-2.21407e-07
6.07626e-07
-2.0132e-07
6.85212e-07
-1.75556e-07
7.47847e-07
-1.46974e-07
7.9487e-07
-1.17381e-07
8.26084e-07
-8.77535e-08
8.4147e-07
-5.8457e-08
8.40982e-07
-2.94299e-08
8.24375e-07
-3.05046e-10
7.91195e-07
2.9338e-08
7.40682e-07
6.01639e-08
6.71753e-07
9.27191e-08
5.83009e-07
1.27578e-07
4.72778e-07
1.65289e-07
3.39107e-07
2.06363e-07
1.7977e-07
2.51286e-07
-7.72082e-09
3.0053e-07
-2.26121e-07
3.54573e-07
-4.78451e-07
4.13904e-07
-7.68016e-07
4.79037e-07
-1.09841e-06
5.50515e-07
-1.47352e-06
6.28903e-07
-1.89755e-06
7.14783e-07
-2.37498e-06
8.08739e-07
-2.91056e-06
9.11334e-07
-3.50931e-06
1.02309e-06
-4.17642e-06
1.14446e-06
-4.91721e-06
1.27579e-06
-5.73706e-06
1.4173e-06
-6.64129e-06
1.56906e-06
-7.63505e-06
1.73092e-06
-8.72319e-06
1.90254e-06
-9.91009e-06
2.08329e-06
-1.11995e-05
2.27226e-06
-1.25944e-05
2.46824e-06
-1.40968e-05
2.66966e-06
-1.57073e-05
2.87461e-06
-1.74255e-05
3.08079e-06
-1.9249e-05
3.28555e-06
-2.1174e-05
3.4859e-06
-2.31946e-05
3.6785e-06
-2.53029e-05
3.85972e-06
-2.74891e-05
4.02571e-06
-2.9741e-05
4.17243e-06
-3.20444e-05
4.29577e-06
-3.43831e-05
4.3916e-06
-3.67388e-05
4.45588e-06
-3.90914e-05
4.48473e-06
-4.14196e-05
4.47458e-06
-4.37004e-05
4.4222e-06
-4.59099e-05
4.32481e-06
-4.80238e-05
4.18019e-06
-5.00171e-05
3.98667e-06
-5.18651e-05
3.74328e-06
-5.35435e-05
3.44969e-06
-5.50288e-05
3.10634e-06
-5.62984e-05
2.7144e-06
-5.73315e-05
2.27583e-06
-5.81089e-05
1.79338e-06
-5.86137e-05
1.27063e-06
-5.88313e-05
7.11974e-07
-5.87518e-05
1.25184e-07
-5.83592e-05
-4.95061e-07
-5.76528e-05
-1.13367e-06
-5.6628e-05
-1.78407e-06
-5.52851e-05
-2.43966e-06
-5.36281e-05
-3.09282e-06
-5.16644e-05
-3.73532e-06
-4.94053e-05
-4.35858e-06
-4.68655e-05
-4.95377e-06
-4.40636e-05
-5.51198e-06
-4.10216e-05
-6.02439e-06
-3.77653e-05
-6.48247e-06
-3.43235e-05
-6.87811e-06
-3.07281e-05
-7.20391e-06
-2.70138e-05
-7.45335e-06
-2.32175e-05
-7.62104e-06
-1.93779e-05
-7.70291e-06
-1.55347e-05
-7.69643e-06
-1.17285e-05
-7.60079e-06
-7.99945e-06
-7.41701e-06
-4.38691e-06
-7.14807e-06
-9.2887e-07
-6.79876e-06
2.34027e-06
-6.37581e-06
5.38836e-06
-5.88747e-06
8.18727e-06
-5.34367e-06
1.07139e-05
-4.75605e-06
1.295e-05
-4.13655e-06
1.48829e-05
-3.49792e-06
1.65057e-05
-2.85299e-06
1.78171e-05
-2.21431e-06
1.88218e-05
-1.59372e-06
1.95293e-05
-1.00191e-06
1.99551e-05
-4.48147e-07
2.01172e-05
5.91278e-08
2.00382e-05
5.15341e-07
1.97431e-05
9.1584e-07
1.92587e-05
1.25867e-06
1.86127e-05
1.54357e-06
1.78328e-05
1.77192e-06
1.69458e-05
1.94648e-06
1.59775e-05
2.07118e-06
1.49513e-05
2.15077e-06
1.38888e-05
2.19058e-06
1.28086e-05
2.19629e-06
1.17268e-05
2.17362e-06
1.06566e-05
2.12816e-06
9.60867e-06
2.06522e-06
8.59108e-06
1.98961e-06
7.60978e-06
1.90554e-06
6.66887e-06
1.81641e-06
5.77111e-06
1.7247e-06
4.91845e-06
1.63172e-06
4.1127e-06
1.53741e-06
3.35632e-06
1.44015e-06
2.65313e-06
1.33658e-06
2.00912e-06
1.22162e-06
1.43298e-06
1.08872e-06
9.36205e-07
9.30812e-07
5.32506e-07
7.4214e-07
2.35944e-07
5.22038e-07
5.74227e-08
2.8236e-07
6.23585e-08
3.77797e-08
-9.60034e-08
1.20119e-07
-2.2734e-07
2.25762e-07
-3.05682e-07
3.39853e-07
-3.40852e-07
4.5168e-07
-3.43531e-07
5.5371e-07
-3.23437e-07
6.40921e-07
-2.8853e-07
7.10191e-07
-2.44827e-07
7.5975e-07
-1.96533e-07
7.88682e-07
-1.46313e-07
7.96529e-07
-9.55999e-08
7.82971e-07
-4.48993e-08
7.47599e-07
5.94191e-09
6.89785e-07
5.75092e-08
6.08494e-07
1.10629e-07
5.02376e-07
1.66282e-07
3.69633e-07
2.25462e-07
2.08061e-07
2.89149e-07
1.50661e-08
3.58285e-07
-2.12334e-07
4.33763e-07
-4.7749e-07
5.16441e-07
-7.8412e-07
6.0716e-07
-1.13631e-06
7.06763e-07
-1.53852e-06
8.16112e-07
-1.99558e-06
9.36099e-07
-2.51271e-06
1.06765e-06
-3.09551e-06
1.2117e-06
-3.74994e-06
1.36921e-06
-4.48229e-06
1.54109e-06
-5.29916e-06
1.7282e-06
-6.20736e-06
1.93129e-06
-7.21383e-06
2.15093e-06
-8.32553e-06
2.38749e-06
-9.5493e-06
2.64106e-06
-1.08917e-05
2.91142e-06
-1.23587e-05
3.19794e-06
-1.39557e-05
3.49957e-06
-1.56872e-05
3.81475e-06
-1.75563e-05
4.14141e-06
-1.9565e-05
4.47689e-06
-2.17132e-05
4.81795e-06
-2.39994e-05
5.16073e-06
-2.64194e-05
5.50079e-06
-2.89669e-05
5.83311e-06
-3.16332e-05
6.15218e-06
-3.44067e-05
6.45203e-06
-3.72734e-05
6.72639e-06
-4.02165e-05
6.96876e-06
-4.32166e-05
7.17257e-06
-4.62522e-05
7.33133e-06
-4.92994e-05
7.43879e-06
-5.23326e-05
7.48908e-06
-5.53247e-05
7.47688e-06
-5.82476e-05
7.39752e-06
-6.10726e-05
7.24715e-06
-6.37706e-05
7.02278e-06
-6.63128e-05
6.72241e-06
-6.86711e-05
6.34501e-06
-7.08185e-05
5.89062e-06
-7.27291e-05
5.36034e-06
-7.43791e-05
4.7563e-06
-7.57463e-05
4.08165e-06
-7.68111e-05
3.3406e-06
-7.75561e-05
2.53839e-06
-7.79667e-05
1.68126e-06
-7.80315e-05
7.76755e-07
-7.77409e-05
-1.65422e-07
-7.70862e-05
-1.14974e-06
-7.60672e-05
-2.15271e-06
-7.46834e-05
-3.1679e-06
-7.29379e-05
-4.18513e-06
-7.08374e-05
-5.19335e-06
-6.83917e-05
-6.18096e-06
-6.56143e-05
-7.13596e-06
-6.2522e-05
-8.04609e-06
-5.9135e-05
-8.89903e-06
-5.54768e-05
-9.68256e-06
-5.15745e-05
-1.03848e-05
-4.74582e-05
-1.09944e-05
-4.31612e-05
-1.15009e-05
-3.87194e-05
-1.18951e-05
-3.41714e-05
-1.21691e-05
-2.95576e-05
-1.23167e-05
-2.49202e-05
-1.23338e-05
-2.03024e-05
-1.22186e-05
-1.57477e-05
-1.19718e-05
-1.12992e-05
-1.15965e-05
-6.9992e-06
-1.10988e-05
-2.88789e-06
-1.04871e-05
9.97258e-07
-9.77262e-06
4.62249e-06
-8.96891e-06
7.95739e-06
-8.09094e-06
1.09769e-05
-7.15605e-06
1.36613e-05
-6.18233e-06
1.59967e-05
-5.18837e-06
1.79751e-05
-4.19278e-06
1.9595e-05
-3.21354e-06
2.08605e-05
-2.26749e-06
2.17822e-05
-1.36977e-06
2.23749e-05
-5.33625e-07
2.26598e-05
2.30477e-07
2.26604e-05
9.15256e-07
2.24043e-05
1.51472e-06
2.19213e-05
2.02662e-06
2.12422e-05
2.45104e-06
2.03982e-05
2.79043e-06
1.94202e-05
3.04922e-06
1.83374e-05
3.23349e-06
1.71775e-05
3.35052e-06
1.59654e-05
3.40843e-06
1.47232e-05
3.41577e-06
1.34702e-05
3.38114e-06
1.22225e-05
3.31291e-06
1.09933e-05
3.21886e-06
9.7929e-06
3.10593e-06
8.62941e-06
2.97991e-06
7.50897e-06
2.84514e-06
6.43653e-06
2.70417e-06
5.41646e-06
2.55748e-06
4.45348e-06
2.40313e-06
3.55343e-06
2.23663e-06
2.72413e-06
2.05092e-06
1.97599e-06
1.83686e-06
1.32232e-06
1.58448e-06
7.79156e-07
1.2853e-06
3.6455e-07
9.36644e-07
9.77701e-08
5.4914e-07
1.60129e-07
3.89566e-08
-1.34961e-07
1.21764e-07
-3.10147e-07
2.24941e-07
-4.08858e-07
3.32447e-07
-4.48359e-07
4.3315e-07
-4.44234e-07
5.19446e-07
-4.09733e-07
5.86342e-07
-3.55427e-07
6.30729e-07
-2.89213e-07
6.5077e-07
-2.16574e-07
6.45394e-07
-1.40937e-07
6.13884e-07
-6.40894e-08
5.55558e-07
1.34262e-08
4.69545e-07
9.19547e-08
3.54625e-07
1.7243e-07
2.09122e-07
2.56133e-07
3.0878e-08
3.44526e-07
-1.8278e-07
4.3912e-07
-4.35037e-07
5.41407e-07
-7.29577e-07
6.52824e-07
-1.07057e-06
7.74752e-07
-1.46264e-06
9.08519e-07
-1.91092e-06
1.05543e-06
-2.42096e-06
1.21681e-06
-2.9988e-06
1.39396e-06
-3.65095e-06
1.58824e-06
-4.38433e-06
1.80103e-06
-5.20634e-06
2.03371e-06
-6.12474e-06
2.2876e-06
-7.14761e-06
2.56396e-06
-8.28329e-06
2.86388e-06
-9.54022e-06
3.18821e-06
-1.09268e-05
3.53751e-06
-1.24512e-05
3.91191e-06
-1.41212e-05
4.31107e-06
-1.59439e-05
4.73407e-06
-1.79252e-05
5.17932e-06
-2.00702e-05
5.6445e-06
-2.23819e-05
6.12651e-06
-2.48619e-05
6.62136e-06
-2.75092e-05
7.12422e-06
-3.03206e-05
7.62935e-06
-3.32901e-05
8.13018e-06
-3.64086e-05
8.61932e-06
-3.96642e-05
9.0887e-06
-4.30417e-05
9.52966e-06
-4.65228e-05
9.93319e-06
-5.00865e-05
1.029e-05
-5.37086e-05
1.05909e-05
-5.7363e-05
1.08269e-05
-6.10211e-05
1.09894e-05
-6.46529e-05
1.10707e-05
-6.82275e-05
1.10637e-05
-7.17131e-05
1.09625e-05
-7.5078e-05
1.07624e-05
-7.82908e-05
1.046e-05
-8.13212e-05
1.00531e-05
-8.41398e-05
9.54103e-06
-8.67192e-05
8.92439e-06
-8.90336e-05
8.2051e-06
-9.10597e-05
7.38637e-06
-9.2776e-05
6.47264e-06
-9.41638e-05
5.46947e-06
-9.52068e-05
4.38353e-06
-9.5891e-05
3.22258e-06
-9.62053e-05
1.9956e-06
-9.61424e-05
7.13908e-07
-9.5691e-05
-6.16912e-07
-9.48524e-05
-1.98834e-06
-9.36239e-05
-3.38114e-06
-9.20074e-05
-4.78446e-06
-9.0007e-05
-6.18546e-06
-8.76301e-05
-7.57033e-06
-8.48864e-05
-8.92459e-06
-8.17891e-05
-1.02333e-05
-7.83541e-05
-1.14811e-05
-7.46005e-05
-1.26526e-05
-7.05506e-05
-1.37324e-05
-6.623e-05
-1.47053e-05
-6.16675e-05
-1.55569e-05
-5.6895e-05
-1.62735e-05
-5.19474e-05
-1.68427e-05
-4.68624e-05
-1.72541e-05
-4.16803e-05
-1.74988e-05
-3.64434e-05
-1.75707e-05
-3.11956e-05
-1.74664e-05
-2.5982e-05
-1.71854e-05
-2.08479e-05
-1.67306e-05
-1.58385e-05
-1.61082e-05
-1.09977e-05
-1.5328e-05
-6.36734e-06
-1.4403e-05
-1.98688e-06
-1.33494e-05
2.10837e-06
-1.21862e-05
5.88696e-06
-1.09346e-05
9.32226e-06
-9.61764e-06
1.23934e-05
-8.25955e-06
1.50856e-05
-6.8849e-06
1.73899e-05
-5.51787e-06
1.9304e-05
-4.18162e-06
2.08318e-05
-2.89759e-06
2.19831e-05
-1.68488e-06
2.27734e-05
-5.59878e-07
2.32238e-05
4.64875e-07
2.33586e-05
1.37999e-06
2.32062e-05
2.17894e-06
2.27978e-05
2.85946e-06
2.21659e-05
3.4224e-06
2.13435e-05
3.87157e-06
2.03636e-05
4.21335e-06
1.9258e-05
4.45616e-06
1.80565e-05
4.60998e-06
1.67865e-05
4.68577e-06
1.54726e-05
4.69499e-06
1.41364e-05
4.6491e-06
1.27963e-05
4.55901e-06
1.14675e-05
4.4347e-06
1.01627e-05
4.28471e-06
8.89215e-06
4.11569e-06
7.66441e-06
3.93191e-06
6.48705e-06
3.73483e-06
5.36752e-06
3.52266e-06
4.31399e-06
3.29016e-06
3.33625e-06
3.02865e-06
2.44655e-06
2.72657e-06
1.66017e-06
2.37085e-06
9.96048e-07
1.94943e-06
4.77288e-07
1.4554e-06
1.32591e-07
8.93837e-07
2.9272e-07
3.66632e-08
-1.71624e-07
1.12191e-07
-3.85675e-07
2.02562e-07
-4.99229e-07
2.9149e-07
-5.37288e-07
3.67981e-07
-5.20725e-07
4.24762e-07
-4.66515e-07
4.57184e-07
-3.87849e-07
4.62381e-07
-2.9441e-07
4.38606e-07
-1.92799e-07
3.84704e-07
-8.70356e-08
2.99701e-07
2.09137e-08
1.82499e-07
1.30629e-07
3.16529e-08
2.428e-07
-1.54765e-07
3.58848e-07
-3.79258e-07
4.80625e-07
-6.44936e-07
6.10204e-07
-9.55533e-07
7.49717e-07
-1.3154e-06
9.01271e-07
-1.72948e-06
1.0669e-06
-2.2033e-06
1.24858e-06
-2.74298e-06
1.44819e-06
-3.35516e-06
1.66762e-06
-4.04706e-06
1.9087e-06
-4.82642e-06
2.17332e-06
-5.70153e-06
2.46335e-06
-6.68114e-06
2.78064e-06
-7.77444e-06
3.12701e-06
-8.99098e-06
3.50414e-06
-1.03405e-05
3.91353e-06
-1.1833e-05
4.35635e-06
-1.34782e-05
4.83335e-06
-1.52854e-05
5.34476e-06
-1.72636e-05
5.8901e-06
-1.94206e-05
6.46812e-06
-2.17632e-05
7.07664e-06
-2.42964e-05
7.71248e-06
-2.70232e-05
8.37131e-06
-2.99444e-05
9.04768e-06
-3.30579e-05
9.73491e-06
-3.63588e-05
1.04251e-05
-3.98388e-05
1.11094e-05
-4.34862e-05
1.17775e-05
-4.72857e-05
1.24188e-05
-5.12185e-05
1.30215e-05
-5.52624e-05
1.35736e-05
-5.93924e-05
1.40631e-05
-6.35803e-05
1.44779e-05
-6.77959e-05
1.48065e-05
-7.20072e-05
1.50382e-05
-7.61811e-05
1.51633e-05
-8.02839e-05
1.51735e-05
-8.42819e-05
1.50617e-05
-8.81422e-05
1.48227e-05
-9.18327e-05
1.44529e-05
-9.5323e-05
1.39503e-05
-9.85844e-05
1.33145e-05
-0.00010159
1.25471e-05
-0.000104317
1.16508e-05
-0.000106742
1.06298e-05
-0.000108845
9.48973e-06
-0.00011061
8.23735e-06
-0.000112021
6.88046e-06
-0.000113065
5.42793e-06
-0.000113732
3.88958e-06
-0.000114013
2.27654e-06
-0.000113903
6.03599e-07
-0.000113392
-1.12774e-06
-0.000112481
-2.89891e-06
-0.000111169
-4.69289e-06
-0.000109457
-6.49643e-06
-0.000107349
-8.29439e-06
-0.000104848
-1.00707e-05
-0.000101964
-1.18084e-05
-9.87078e-05
-1.349e-05
-9.50916e-05
-1.50973e-05
-9.11321e-05
-1.66121e-05
-8.68488e-05
-1.80157e-05
-8.22642e-05
-1.92899e-05
-7.74045e-05
-2.04166e-05
-7.2299e-05
-2.13789e-05
-6.69806e-05
-2.21612e-05
-6.14853e-05
-2.27493e-05
-5.58523e-05
-2.31318e-05
-5.01236e-05
-2.32995e-05
-4.43434e-05
-2.32466e-05
-3.85577e-05
-2.2971e-05
-3.2814e-05
-2.24743e-05
-2.71597e-05
-2.17624e-05
-2.16424e-05
-2.08453e-05
-1.6308e-05
-1.97373e-05
-1.12007e-05
-1.84567e-05
-6.36149e-06
-1.70254e-05
-1.82774e-06
-1.54684e-05
2.36809e-06
-1.38135e-05
6.19833e-06
-1.20898e-05
9.64105e-06
-1.03276e-05
1.26806e-05
-8.55745e-06
1.53078e-05
-6.80884e-06
1.75199e-05
-5.10963e-06
1.93203e-05
-3.48533e-06
2.07188e-05
-1.9583e-06
2.17311e-05
-5.47502e-07
2.23781e-05
7.33052e-07
2.26844e-05
1.8726e-06
2.26792e-05
2.86471e-06
2.23939e-05
3.70763e-06
2.18621e-05
4.40335e-06
2.11181e-05
4.95742e-06
2.01959e-05
5.37837e-06
1.91287e-05
5.67715e-06
1.7948e-05
5.86644e-06
1.6683e-05
5.96004e-06
1.53599e-05
5.97214e-06
1.40022e-05
5.91671e-06
1.26302e-05
5.80678e-06
1.1261e-05
5.65383e-06
9.90959e-06
5.46713e-06
8.58847e-06
5.25304e-06
7.30886e-06
5.01443e-06
6.08137e-06
4.75015e-06
4.91689e-06
4.45465e-06
3.82757e-06
4.11797e-06
2.82785e-06
3.72629e-06
1.93551e-06
3.2632e-06
1.1729e-06
2.71205e-06
5.68599e-07
2.0597e-06
1.60294e-07
1.30214e-06
4.53014e-07
3.17294e-08
-2.03353e-07
9.36177e-08
-4.47563e-07
1.62367e-07
-5.67979e-07
2.22325e-07
-5.97245e-07
2.632e-07
-5.616e-07
2.78437e-07
-4.81751e-07
2.64001e-07
-3.73413e-07
2.1745e-07
-2.47859e-07
1.37242e-07
-1.12592e-07
2.21822e-08
2.80246e-08
-1.28975e-07
1.72071e-07
-3.17819e-07
3.19473e-07
-5.46472e-07
4.71453e-07
-8.17711e-07
6.30086e-07
-1.13503e-06
7.97946e-07
-1.50267e-06
9.77845e-07
-1.92561e-06
1.17265e-06
-2.40954e-06
1.3852e-06
-2.96087e-06
1.61823e-06
-3.58667e-06
1.87438e-06
-4.29467e-06
2.1562e-06
-5.09326e-06
2.4662e-06
-5.99142e-06
2.80687e-06
-6.99874e-06
3.18065e-06
-8.12535e-06
3.58996e-06
-9.38184e-06
4.03714e-06
-1.07792e-05
4.52437e-06
-1.23286e-05
5.05358e-06
-1.40414e-05
5.62631e-06
-1.59286e-05
6.24356e-06
-1.80009e-05
6.90563e-06
-2.02681e-05
7.61195e-06
-2.27389e-05
8.3609e-06
-2.54204e-05
9.14966e-06
-2.83179e-05
9.97409e-06
-3.1434e-05
1.08286e-05
-3.47687e-05
1.1706e-05
-3.83187e-05
1.25977e-05
-4.20772e-05
1.34934e-05
-4.60336e-05
1.43815e-05
-5.01734e-05
1.52492e-05
-5.44782e-05
1.60824e-05
-5.89259e-05
1.68665e-05
-6.34907e-05
1.75863e-05
-6.81439e-05
1.82268e-05
-7.2854e-05
1.87733e-05
-7.75878e-05
1.92117e-05
-8.23107e-05
1.95294e-05
-8.69875e-05
1.9715e-05
-9.15831e-05
1.97589e-05
-9.60631e-05
1.96535e-05
-0.000100394
1.93931e-05
-0.000104546
1.8974e-05
-0.000108487
1.83947e-05
-0.000112193
1.76554e-05
-0.000115636
1.67583e-05
-0.000118796
1.5707e-05
-0.000121652
1.45068e-05
-0.000124186
1.3164e-05
-0.000126383
1.16863e-05
-0.000128228
1.00824e-05
-0.00012971
8.36189e-06
-0.000130817
6.53514e-06
-0.000131541
4.61346e-06
-0.000131873
2.60935e-06
-0.00013181
5.4014e-07
-0.000131342
-1.59537e-06
-0.000130469
-3.77205e-06
-0.000129188
-5.97412e-06
-0.000127498
-8.18667e-06
-0.000125399
-1.03928e-05
-0.000122895
-1.25745e-05
-0.000119991
-1.47129e-05
-0.000116693
-1.6788e-05
-0.000113011
-1.87793e-05
-0.000108958
-2.06653e-05
-0.000104549
-2.24246e-05
-9.98034e-05
-2.40354e-05
-9.47438e-05
-2.54762e-05
-8.93965e-05
-2.67263e-05
-8.37915e-05
-2.77661e-05
-7.79629e-05
-2.8578e-05
-7.19483e-05
-2.91464e-05
-6.57889e-05
-2.94588e-05
-5.95292e-05
-2.95063e-05
-5.32162e-05
-2.9284e-05
-4.6899e-05
-2.87915e-05
-4.06281e-05
-2.80333e-05
-3.44544e-05
-2.7019e-05
-2.84284e-05
-2.57634e-05
-2.25991e-05
-2.4286e-05
-1.70132e-05
-2.26113e-05
-1.17141e-05
-2.07676e-05
-6.74082e-06
-1.87867e-05
-2.12756e-06
-1.6703e-05
2.09735e-06
-1.45525e-05
5.91149e-06
-1.23716e-05
9.2989e-06
-1.01962e-05
1.22504e-05
-8.06108e-06
1.47633e-05
-5.99826e-06
1.68416e-05
-4.03661e-06
1.84952e-05
-2.20111e-06
1.97407e-05
-5.12456e-07
2.05988e-05
1.01448e-06
2.10951e-05
2.36846e-06
2.12589e-05
3.5438e-06
2.11225e-05
4.53977e-06
2.07199e-05
5.36002e-06
2.00861e-05
6.01214e-06
1.92562e-05
6.50708e-06
1.82643e-05
6.85836e-06
1.71429e-05
7.08137e-06
1.59226e-05
7.19252e-06
1.46309e-05
7.20839e-06
1.32927e-05
7.14492e-06
1.19301e-05
7.01647e-06
1.05622e-05
6.83505e-06
9.20585e-06
6.60936e-06
7.87622e-06
6.34406e-06
6.58739e-06
6.03899e-06
5.35334e-06
5.6887e-06
4.18902e-06
5.28229e-06
3.11154e-06
4.80376e-06
2.14161e-06
4.23312e-06
1.30531e-06
3.54835e-06
6.36524e-07
2.72849e-06
1.80573e-07
1.75809e-06
6.33587e-07
2.47041e-08
-2.28057e-07
6.76446e-08
-4.90504e-07
1.07189e-07
-6.07523e-07
1.29082e-07
-6.19138e-07
1.2428e-07
-5.56798e-07
8.7322e-08
-4.44794e-07
1.50316e-08
-3.01122e-07
-9.44327e-08
-1.38395e-07
-2.42349e-07
3.53249e-08
-4.29936e-07
2.15611e-07
-6.58756e-07
4.00891e-07
-9.30969e-07
5.91687e-07
-1.2495e-06
7.89986e-07
-1.61813e-06
9.98715e-07
-2.04152e-06
1.22133e-06
-2.52521e-06
1.46154e-06
-3.07562e-06
1.72306e-06
-3.69999e-06
2.00957e-06
-4.40635e-06
2.32459e-06
-5.2035e-06
2.67153e-06
-6.10098e-06
3.05368e-06
-7.10901e-06
3.47424e-06
-8.2385e-06
3.93635e-06
-9.50092e-06
4.44307e-06
-1.09083e-05
4.99731e-06
-1.2473e-05
5.60183e-06
-1.42076e-05
6.25902e-06
-1.61249e-05
6.97082e-06
-1.82371e-05
7.73853e-06
-2.05561e-05
8.56255e-06
-2.30927e-05
9.44222e-06
-2.58563e-05
1.03756e-05
-2.88544e-05
1.13591e-05
-3.20924e-05
1.23876e-05
-3.55726e-05
1.34543e-05
-3.9294e-05
1.455e-05
-4.32521e-05
1.56641e-05
-4.74382e-05
1.67838e-05
-5.18396e-05
1.78947e-05
-5.64389e-05
1.89809e-05
-6.1215e-05
2.00252e-05
-6.61424e-05
2.10098e-05
-7.11924e-05
2.19164e-05
-7.63331e-05
2.2727e-05
-8.15304e-05
2.34241e-05
-8.67488e-05
2.39916e-05
-9.19517e-05
2.44147e-05
-9.7103e-05
2.46807e-05
-0.000102167
2.47789e-05
-0.000107109
2.47013e-05
-0.000111898
2.44419e-05
-0.000116502
2.39972e-05
-0.000120894
2.3366e-05
-0.000125048
2.25493e-05
-0.000128943
2.15497e-05
-0.000132556
2.03717e-05
-0.00013587
1.90213e-05
-0.000138869
1.75055e-05
-0.000141538
1.58327e-05
-0.000143864
1.4012e-05
-0.000145835
1.20535e-05
-0.00014744
9.96771e-06
-0.000148672
7.76627e-06
-0.000149519
5.46128e-06
-0.000149976
3.06598e-06
-0.000150034
5.98432e-07
-0.000149688
-1.94133e-06
-0.000148934
-4.52692e-06
-0.000147765
-7.14242e-06
-0.00014618
-9.7717e-06
-0.000144176
-1.23965e-05
-0.000141754
-1.49974e-05
-0.000138913
-1.75537e-05
-0.000135657
-2.00434e-05
-0.000131993
-2.24436e-05
-0.000127928
-2.47302e-05
-0.000123474
-2.68787e-05
-0.000118646
-2.88639e-05
-0.000113461
-3.06608e-05
-0.000107943
-3.22444e-05
-0.000102118
-3.35911e-05
-9.6017e-05
-3.46788e-05
-8.96759e-05
-3.54875e-05
-8.31343e-05
-3.60004e-05
-7.64362e-05
-3.62044e-05
-6.96293e-05
-3.6091e-05
-6.27642e-05
-3.56566e-05
-5.58943e-05
-3.49033e-05
-4.90742e-05
-3.38392e-05
-4.2359e-05
-3.24785e-05
-3.58035e-05
-3.08415e-05
-2.94605e-05
-2.89543e-05
-2.338e-05
-2.68481e-05
-1.76081e-05
-2.45586e-05
-1.2186e-05
-2.21252e-05
-7.14921e-06
-1.95893e-05
-2.52703e-06
-1.69938e-05
1.65811e-06
-1.43814e-05
5.39067e-06
-1.17936e-05
8.66206e-06
-9.26965e-06
1.14707e-05
-6.84524e-06
1.38216e-05
-4.55199e-06
1.57258e-05
-2.41664e-06
1.7201e-05
-4.60779e-07
1.82689e-05
1.30057e-06
1.8956e-05
2.85669e-06
1.92926e-05
4.20322e-06
1.93115e-05
5.34111e-06
1.90475e-05
6.27611e-06
1.85364e-05
7.0182e-06
1.78138e-05
7.58091e-06
1.69148e-05
7.9804e-06
1.58727e-05
8.23458e-06
1.4719e-05
8.36214e-06
1.34824e-05
8.38147e-06
1.21892e-05
8.30966e-06
1.08629e-05
8.16136e-06
9.52458e-06
7.94772e-06
8.19328e-06
7.67536e-06
6.88684e-06
7.34542e-06
5.62267e-06
6.95286e-06
4.41889e-06
6.48607e-06
3.29566e-06
5.92699e-06
2.27692e-06
5.25186e-06
1.3925e-06
4.43277e-06
6.80987e-07
3.44e-06
1.93614e-07
2.24547e-06
8.27201e-07
1.59284e-08
-2.43986e-07
3.53531e-08
-5.09929e-07
3.90355e-08
-6.11206e-07
1.47823e-08
-5.94885e-07
-4.46625e-08
-4.97353e-07
-1.43345e-07
-3.46111e-07
-2.83341e-07
-1.61126e-07
-4.65792e-07
4.40559e-08
-6.91625e-07
2.61158e-07
-9.6211e-07
4.86096e-07
-1.27919e-06
7.17971e-07
-1.64571e-06
9.5821e-07
-2.06555e-06
1.20982e-06
-2.54365e-06
1.47681e-06
-3.08601e-06
1.7637e-06
-3.69969e-06
2.07522e-06
-4.39271e-06
2.41609e-06
-5.17405e-06
2.79091e-06
-6.05356e-06
3.2041e-06
-7.04191e-06
3.65989e-06
-8.1506e-06
4.16236e-06
-9.39179e-06
4.71544e-06
-1.07784e-05
5.32292e-06
-1.23237e-05
5.98839e-06
-1.40416e-05
6.71522e-06
-1.59461e-05
7.50633e-06
-1.80512e-05
8.36413e-06
-2.03706e-05
9.2902e-06
-2.29172e-05
1.02851e-05
-2.57028e-05
1.13482e-05
-2.87375e-05
1.2477e-05
-3.20294e-05
1.36675e-05
-3.55837e-05
1.49134e-05
-3.94025e-05
1.62064e-05
-4.34839e-05
1.75357e-05
-4.7822e-05
1.88882e-05
-5.24067e-05
2.02487e-05
-5.72227e-05
2.15999e-05
-6.22505e-05
2.29226e-05
-6.74661e-05
2.41965e-05
-7.28413e-05
2.54004e-05
-7.83445e-05
2.6513e-05
-8.39414e-05
2.75133e-05
-8.95957e-05
2.83813e-05
-9.52701e-05
2.90985e-05
-0.000100927
2.96484e-05
-0.000106529
3.0017e-05
-0.000112041
3.01928e-05
-0.00011743
3.01672e-05
-0.000122663
2.99342e-05
-0.000127711
2.94905e-05
-0.000132549
2.88352e-05
-0.000137153
2.79697e-05
-0.000141501
2.68974e-05
-0.000145575
2.56234e-05
-0.000149357
2.4154e-05
-0.000152833
2.24971e-05
-0.000155989
2.06612e-05
-0.000158812
1.86561e-05
-0.000161292
1.64918e-05
-0.000163418
1.41793e-05
-0.00016518
1.17301e-05
-0.00016657
9.15616e-06
-0.000167579
6.47024e-06
-0.000168199
3.68591e-06
-0.00016842
8.20086e-07
-0.00016824
-2.1219e-06
-0.00016765
-5.11712e-06
-0.000166643
-8.14859e-06
-0.000165216
-1.11992e-05
-0.000163362
-1.425e-05
-0.00016108
-1.72803e-05
-0.000158365
-2.02681e-05
-0.000155219
-2.319e-05
-0.000151641
-2.60209e-05
-0.000147637
-2.87346e-05
-0.000143212
-3.13036e-05
-0.000138376
-3.36997e-05
-0.000133143
-3.5894e-05
-0.00012753
-3.78577e-05
-0.000121559
-3.95624e-05
-0.000115256
-4.09812e-05
-0.000108654
-4.20891e-05
-0.000101791
-4.28641e-05
-9.47072e-05
-4.32879e-05
-8.74511e-05
-4.3347e-05
-8.00741e-05
-4.30335e-05
-7.26317e-05
-4.23457e-05
-6.51821e-05
-4.12888e-05
-5.77855e-05
-3.98751e-05
-5.05025e-05
-3.81245e-05
-4.3393e-05
-3.60638e-05
-3.65147e-05
-3.37263e-05
-2.99219e-05
-3.11514e-05
-2.3664e-05
-2.83831e-05
-1.77847e-05
-2.54686e-05
-1.23211e-05
-2.24574e-05
-7.30294e-06
-1.93996e-05
-2.75249e-06
-1.63441e-05
1.31569e-06
-1.33378e-05
4.89455e-06
-1.04241e-05
7.98428e-06
-7.64173e-06
1.05919e-05
-5.02426e-06
1.27305e-05
-2.59936e-06
1.44197e-05
-3.88608e-07
1.56827e-05
1.59364e-06
1.65478e-05
3.33813e-06
1.70464e-05
4.84248e-06
1.72126e-05
6.10991e-06
1.70821e-05
7.14874e-06
1.66914e-05
7.97167e-06
1.60769e-05
8.5949e-06
1.52743e-05
9.03715e-06
1.43179e-05
9.31856e-06
1.32398e-05
9.45952e-06
1.207e-05
9.47945e-06
1.08359e-05
9.39545e-06
9.56261e-06
9.22104e-06
8.2731e-06
8.96487e-06
6.989e-06
8.62952e-06
5.73132e-06
8.21055e-06
4.52157e-06
7.69582e-06
3.38325e-06
7.06531e-06
2.34364e-06
6.29147e-06
1.43611e-06
5.3403e-06
7.03076e-07
4.17304e-06
1.99877e-07
2.74867e-06
1.02708e-06
5.62605e-09
-2.49612e-07
-2.55862e-09
-5.01744e-07
-4.07065e-08
-5.73058e-07
-1.18365e-07
-5.17227e-07
-2.40599e-07
-3.75119e-07
-4.09653e-07
-1.77058e-07
-6.26308e-07
5.55299e-08
-8.90884e-07
3.08632e-07
-1.20397e-06
5.74248e-07
-1.56693e-06
8.49048e-07
-1.98217e-06
1.13321e-06
-2.45336e-06
1.4294e-06
-2.98549e-06
1.74195e-06
-3.58484e-06
2.07616e-06
-4.25896e-06
2.43782e-06
-5.01659e-06
2.83284e-06
-5.86756e-06
3.26706e-06
-6.82275e-06
3.7461e-06
-7.89399e-06
4.27533e-06
-9.09397e-06
4.85987e-06
-1.04362e-05
5.50459e-06
-1.19349e-05
6.21413e-06
-1.36048e-05
6.99287e-06
-1.54613e-05
7.84482e-06
-1.75196e-05
8.77356e-06
-1.97952e-05
9.78196e-06
-2.23031e-05
1.0872e-05