/*--------------------------------*- C++ -*----------------------------------*\
| =========                 |                                                 |
| \\      /  F ield         | OpenFOAM: The Open Source CFD Toolbox           |
|  \\    /   O peration     | Version:  2406                                  |
|   \\  /    A nd           | Website:  www.openfoam.com                      |
|    \\/     M anipulation  |                                                 |
\*---------------------------------------------------------------------------*/
FoamFile
{
    version     2.0;
    format      ascii;
    arch        "LSB;label=32;scalar=64";
    class       volScalarField;
    location    "97";
    object      p;
}
// * * * * * * * * * * * * * * * * * * * * * * * * * * * * * * * * * * * * * //

dimensions      [0 2 -2 0 0 0 0];

internalField   nonuniform List<scalar> 
1024
(
-6.03021e-09
5.83908e-06
-0.00010314
-0.000268457
-0.000447566
-0.000639418
-0.000873471
-0.00119335
-0.00164474
-0.00224025
-0.00290597
-0.00341999
-0.00373099
-0.00384635
-0.00374748
-0.00330608
-0.00234778
-0.000777372
0.00139373
0.00392476
0.00638032
0.00816646
0.00869979
0.00772089
0.00536809
0.00249384
0.000157665
-0.001173
-0.00160023
-0.00168702
-0.0016836
-0.00162818
-1.50281e-05
-1.78302e-05
-0.000128549
-0.000283206
-0.000435057
-0.000587643
-0.000783771
-0.00105058
-0.00135219
-0.00174622
-0.00238638
-0.00321906
-0.00399983
-0.00455621
-0.00477516
-0.00450421
-0.00358698
-0.00198094
0.000191762
0.00271385
0.00517995
0.00699661
0.00756678
0.00663561
0.0043468
0.00129772
-0.000977509
-0.00202043
-0.00209001
-0.00186575
-0.00167323
-0.00155904
4.20562e-05
-1.76343e-07
-0.00014406
-0.000300589
-0.000421241
-0.000518258
-0.000649162
-0.000901698
-0.00143677
-0.00230088
-0.00344671
-0.00476138
-0.00605812
-0.0071243
-0.0077553
-0.00777017
-0.00705997
-0.00562438
-0.00355438
-0.00106444
0.0014726
0.00352624
0.00453434
0.00417447
0.00246639
-7.49423e-05
-0.00216412
-0.00302172
-0.00281302
-0.00235158
-0.00203465
-0.00188766
0.000193861
8.51088e-05
-0.000120573
-0.000295263
-0.000384402
-0.00048868
-0.000776672
-0.00143789
-0.00259967
-0.00424434
-0.0061904
-0.00821742
-0.0101132
-0.01167
-0.0126989
-0.0130509
-0.0126522
-0.0115138
-0.00969464
-0.00734227
-0.00473888
-0.00230991
-0.000556552
0.000144487
-0.000266912
-0.00152486
-0.00278593
-0.00334234
-0.00320249
-0.00276711
-0.00248129
-0.00235201
0.000514874
0.000320279
3.36573e-05
-0.00017386
-0.000359578
-0.00074079
-0.00158993
-0.00307331
-0.00518811
-0.00777947
-0.0105703
-0.0132812
-0.0156865
-0.0176157
-0.018949
-0.0196116
-0.0195614
-0.0187743
-0.0172791
-0.0151822
-0.0126682
-0.0100073
-0.00753787
-0.0055877
-0.00433547
-0.00372567
-0.00346578
-0.00325763
-0.00306358
-0.00292563
-0.00282384
-0.00277283
0.00106446
0.000783929
0.000428576
6.20584e-05
-0.00047738
-0.00152622
-0.00332438
-0.00590021
-0.00907593
-0.012536
-0.0159623
-0.0190957
-0.0217562
-0.0238359
-0.0252839
-0.0260847
-0.026232
-0.0256993
-0.0245149
-0.0227565
-0.0205324
-0.0179738
-0.0152293
-0.0124451
-0.00975332
-0.00728586
-0.00518468
-0.0036341
-0.00281378
-0.00295241
-0.00310145
-0.00314249
0.00182158
0.00150926
0.000998682
0.000277521
-0.000955301
-0.00301321
-0.00597524
-0.00966904
-0.0137255
-0.0177747
-0.0215287
-0.0247998
-0.0274873
-0.0295529
-0.0309954
-0.031828
-0.0320585
-0.0316895
-0.0307498
-0.0292872
-0.0273608
-0.0250327
-0.0223446
-0.0193017
-0.0158882
-0.0121631
-0.00840967
-0.00524576
-0.00332158
-0.00276087
-0.00356178
-0.00354163
0.0026242
0.00225418
0.00148716
0.00018098
-0.00200197
-0.00521081
-0.00932028
-0.0139149
-0.0185488
-0.0228876
-0.0267273
-0.0299736
-0.0325996
-0.0346093
-0.0360203
-0.0368514
-0.0371194
-0.0368513
-0.0360727
-0.0348167
-0.0331204
-0.0310082
-0.0284707
-0.0254515
-0.0218646
-0.017651
-0.0129397
-0.00832009
-0.00484314
-0.00311898
-0.00429504
-0.00417917
0.00308587
0.00263286
0.00151866
-0.000512898
-0.0037
-0.00801076
-0.0130408
-0.0182307
-0.0231577
-0.0275743
-0.0313755
-0.0345425
-0.0370923
-0.0390524
-0.0404475
-0.041296
-0.0416152
-0.0414253
-0.0407521
-0.0396228
-0.0380626
-0.0360837
-0.0336702
-0.0307615
-0.0272485
-0.023014
-0.0180327
-0.0126011
-0.00775376
-0.00494392
-0.00427548
-0.00530156
0.00287448
0.00233006
0.000827777
-0.00191901
-0.00601918
-0.0112099
-0.0168496
-0.0223487
-0.0273608
-0.0317374
-0.0354522
-0.0385338
-0.0410221
-0.0429502
-0.0443412
-0.0452108
-0.0455739
-0.0454497
-0.0448562
-0.0438137
-0.0423401
-0.0404427
-0.0381099
-0.0352994
-0.0319259
-0.0278653
-0.0230159
-0.0174394
-0.011768
-0.00725008
-0.00412375
-0.00752014
0.00187509
0.00123333
-0.000642978
-0.00399503
-0.00881048
-0.0145801
-0.0205339
-0.0261218
-0.0310897
-0.0353714
-0.0389908
-0.0420013
-0.0444463
-0.046356
-0.0477497
-0.0486409
-0.0490426
-0.0489693
-0.0484357
-0.0474561
-0.0460423
-0.0441989
-0.0419192
-0.0391788
-0.0359278
-0.0320773
-0.0274989
-0.0220999
-0.0160408
-0.0102172
-0.00718755
-0.00954516
0.000124776
-0.000605154
-0.00278174
-0.00656722
-0.011844
-0.0179065
-0.0239445
-0.0294764
-0.0343325
-0.0384997
-0.0420309
-0.0449838
-0.047396
-0.0492921
-0.0506875
-0.0515947
-0.0520257
-0.0519918
-0.051505
-0.050576
-0.0492121
-0.0474151
-0.0451802
-0.0424949
-0.039336
-0.0356555
-0.0313453
-0.0262078
-0.0201699
-0.0138791
-0.0105072
-0.00964022
-0.00215119
-0.00294988
-0.00532492
-0.00936878
-0.014872
-0.0210089
-0.0269801
-0.0323765
-0.037092
-0.0411434
-0.0445951
-0.0474975
-0.04988
-0.0517615
-0.0531546
-0.0540709
-0.0545213
-0.0545164
-0.054066
-0.0531782
-0.0518582
-0.0501067
-0.04792
-0.0452913
-0.0422121
-0.0386628
-0.0345753
-0.0297434
-0.0239437
-0.0173355
-0.0119543
-0.00783043
-0.00463338
-0.00548017
-0.00796192
-0.0121174
-0.0176733
-0.0237434
-0.0295665
-0.0347956
-0.0393661
-0.0433098
-0.0466899
-0.0495465
-0.0519009
-0.0537672
-0.0551557
-0.0560767
-0.0565405
-0.0565565
-0.0561332
-0.0552776
-0.0539942
-0.0522846
-0.0501467
-0.0475775
-0.0445765
-0.041142
-0.0372485
-0.0327467
-0.0273245
-0.0206719
-0.0136783
-0.00750788
-0.00701424
-0.007896
-0.0104165
-0.0145746
-0.0200735
-0.0260008
-0.0316477
-0.0367105
-0.0411477
-0.0449969
-0.0483143
-0.0511303
-0.0534593
-0.0553114
-0.0566946
-0.0576181
-0.0580905
-0.0581206
-0.0577159
-0.0568834
-0.0556283
-0.0539539
-0.0518612
-0.0493509
-0.046428
-0.0431032
-0.0393843
-0.0351836
-0.0302278
-0.0239213
-0.0166681
-0.00997761
-0.00905944
-0.00997603
-0.0124869
-0.0165708
-0.0219509
-0.0277018
-0.0331784
-0.038095
-0.0424217
-0.0461939
-0.0494607
-0.0522441
-0.0545536
-0.0563956
-0.057776
-0.0587018
-0.0591804
-0.0592193
-0.0588256
-0.0580062
-0.0567681
-0.0551173
-0.0530595
-0.0506004
-0.0477517
-0.0445331
-0.0409799
-0.0370535
-0.0325906
-0.0269147
-0.0203141
-0.0140935
-0.0106337
-0.0115839
-0.0140471
-0.0180105
-0.0232267
-0.0287923
-0.0341231
-0.038926
-0.0431721
-0.0468894
-0.0501206
-0.0528827
-0.0551817
-0.0570208
-0.0584032
-0.0593337
-0.0598176
-0.0598613
-0.059471
-0.0586545
-0.0574202
-0.0557775
-0.0537375
-0.0513115
-0.0485197
-0.0453891
-0.041985
-0.0383047
-0.03431
-0.0294168
-0.0238777
-0.0184067
-0.0117155
-0.0126503
-0.0150359
-0.0188674
-0.0238549
-0.0292443
-0.034454
-0.0391816
-0.0433799
-0.0470673
-0.0502811
-0.0530368
-0.0553381
-0.0571851
-0.0585777
-0.0595177
-0.0600082
-0.0600538
-0.0596598
-0.0588351
-0.0575899
-0.0559366
-0.0538923
-0.0514735
-0.0487119
-0.0456385
-0.042357
-0.0388842
-0.0352966
-0.0311543
-0.0266721
-0.0220418
-0.012346
-0.0131936
-0.0154378
-0.0190936
-0.0238539
-0.0290718
-0.0341762
-0.0388536
-0.0430299
-0.0467121
-0.0499299
-0.052698
-0.0550183
-0.0568875
-0.0583015
-0.0592584
-0.0597584
-0.0598043
-0.0594008
-0.0585565
-0.0572836
-0.0555976
-0.0535211
-0.0510742
-0.0483046
-0.0452436
-0.0420406
-0.038696
-0.0354713
-0.0319693
-0.0283674
-0.024485
-0.0126219
-0.0132957
-0.0153066
-0.0187227
-0.0232467
-0.0282855
-0.0332878
-0.037928
-0.0421018
-0.0458018
-0.049048
-0.0518522
-0.0542134
-0.0561238
-0.0575745
-0.0585593
-0.0590751
-0.0591221
-0.0587037
-0.0578282
-0.0565096
-0.0547656
-0.0526237
-0.0501125
-0.0472871
-0.0441895
-0.0410007
-0.0376769
-0.0347737
-0.0317137
-0.0288263
-0.0255349
-0.0126482
-0.0130572
-0.0147475
-0.0178481
-0.0220815
-0.0269005
-0.0317809
-0.0363838
-0.0405716
-0.0443144
-0.0476184
-0.0504882
-0.0529177
-0.0548932
-0.0564004
-0.0574279
-0.0579687
-0.0580202
-0.0575829
-0.056665
-0.0552814
-0.0534519
-0.0512078
-0.0485846
-0.045646
-0.0424548
-0.0391886
-0.0358215
-0.0331694
-0.0303301
-0.0280242
-0.0251395
-0.012478
-0.0125601
-0.0138863
-0.0165903
-0.0204341
-0.0249468
-0.0296483
-0.0341916
-0.038402
-0.0422148
-0.0456128
-0.0485863
-0.0511197
-0.0531916
-0.0547812
-0.0558713
-0.05645
-0.0565112
-0.0560559
-0.0550871
-0.0536204
-0.051677
-0.0492918
-0.0465057
-0.0433924
-0.040031
-0.0366086
-0.0331684
-0.030577
-0.0277965
-0.0259928
-0.0233586
-0.0121181
-0.0118851
-0.0128592
-0.0150829
-0.0184035
-0.0224763
-0.0268985
-0.0313303
-0.0355583
-0.0394686
-0.0430043
-0.0461298
-0.0488126
-0.0510213
-0.052727
-0.0539065
-0.0545429
-0.0546261
-0.0541528
-0.0531251
-0.051558
-0.0494725
-0.0469058
-0.0439031
-0.0405486
-0.0369375
-0.0332816
-0.0296964
-0.0269978
-0.0241917
-0.0228327
-0.0202704
-0.0115829
-0.0111652
-0.0118148
-0.0134606
-0.0160983
-0.019556
-0.023552
-0.0277843
-0.0320039
-0.0360333
-0.0397557
-0.0430917
-0.0459823
-0.0483796
-0.0502452
-0.0515485
-0.0522678
-0.0523884
-0.0519052
-0.0508169
-0.0491366
-0.0468845
-0.0440993
-0.04083
-0.0371716
-0.033237
-0.0292682
-0.0254425
-0.0225086
-0.0195572
-0.0186486
-0.0158894
-0.0109507
-0.0105716
-0.0108968
-0.0118576
-0.0136377
-0.0162728
-0.0196573
-0.0235673
-0.0277293
-0.0318889
-0.0358466
-0.0394592
-0.0426264
-0.0452761
-0.0473564
-0.0488283
-0.0496655
-0.049849
-0.0493692
-0.0482213
-0.0464195
-0.043982
-0.0409479
-0.0373692
-0.0333519
-0.0290283
-0.0246742
-0.0205187
-0.017244
-0.0140478
-0.0134985
-0.0100415
-0.0103593
-0.0101658
-0.0101608
-0.0103814
-0.0111149
-0.0127091
-0.0152806
-0.0187233
-0.0227571
-0.027042
-0.0312753
-0.0352293
-0.0387465
-0.0417202
-0.0440789
-0.0457725
-0.0467691
-0.0470465
-0.0465949
-0.0454031
-0.0434854
-0.0408584
-0.0375621
-0.0336518
-0.0292436
-0.0244879
-0.0196896
-0.0151177
-0.0114005
-0.00793098
-0.00733737
-0.00227453
-0.00985362
-0.00988294
-0.00960968
-0.00909495
-0.0086125
-0.00896051
-0.0105479
-0.0133809
-0.0172037
-0.0215903
-0.0261215
-0.030469
-0.0344043
-0.0377736
-0.0404784
-0.0424533
-0.0436602
-0.0440729
-0.043681
-0.0424799
-0.0404692
-0.0376683
-0.0341218
-0.0298871
-0.0250868
-0.0198819
-0.0145954
-0.0095196
-0.0052427
-0.00134874
-0.000113968
0.00811678
-0.00943879
-0.00959769
-0.00914152
-0.00787609
-0.00610562
-0.00510904
-0.00561886
-0.00775545
-0.0113033
-0.0157556
-0.0205792
-0.0253422
-0.0297378
-0.0335549
-0.0366605
-0.0389687
-0.0404334
-0.0410269
-0.0407427
-0.0395763
-0.0375235
-0.0346027
-0.0308623
-0.0263603
-0.0212195
-0.0155957
-0.00980209
-0.0041149
0.000951935
0.00571958
0.00872582
0.0220633
-0.00841392
-0.00941324
-0.00871599
-0.00658019
-0.00353937
-0.00128568
-0.000769864
-0.00224187
-0.00551257
-0.010004
-0.0150932
-0.020257
-0.025114
-0.0293927
-0.0329236
-0.035597
-0.0373579
-0.0381735
-0.038039
-0.0369543
-0.0349348
-0.0319813
-0.0281466
-0.0234825
-0.0181001
-0.012122
-0.00579312
0.000711367
0.00707469
0.0137789
0.0206519
0.0419611
-0.00871874
-0.00858565
-0.0077235
-0.00469911
-0.000769072
0.00245562
0.003703
0.00267113
-0.000416175
-0.004938
-0.0102424
-0.0157422
-0.0210019
-0.0256949
-0.0296216
-0.0326476
-0.0347119
-0.0357753
-0.0358347
-0.0348845
-0.032956
-0.0300678
-0.0262595
-0.0215593
-0.0160403
-0.00975086
-0.0027937
0.00490883
0.0134518
0.0246553
0.0398928
0.0754051
-0.00282268
-0.00876421
-0.00763542
-0.00358459
0.00171083
0.00549148
0.00712703
0.00622676
0.00317102
-0.00140914
-0.00687585
-0.0126056
-0.018147
-0.0231327
-0.0273535
-0.0306465
-0.0329547
-0.0342232
-0.0344741
-0.0336979
-0.0319425
-0.0291772
-0.0254593
-0.0207523
-0.0151472
-0.0084782
-0.00068113
0.00920794
0.0221651
0.043642
0.0782305
0.140961
-0.0241464
-0.00974771
-0.00471961
-0.000129516
0.00463795
0.00798113
0.00913582
0.00801165
0.00481853
0.000102811
-0.0054895
-0.0113315
-0.0169779
-0.0220657
-0.0263893
-0.0297794
-0.0321827
-0.0335368
-0.0338686
-0.0331547
-0.0314555
-0.0287481
-0.0251155
-0.0204972
-0.0148788
-0.0078267
0.00134538
0.0149941
0.0372138
0.0780075
0.147327
0.250174
)
;

boundaryField
{
    movingWall
    {
        type            zeroGradient;
    }
    fixedWalls
    {
        type            zeroGradient;
    }
    frontAndBack
    {
        type            empty;
    }
}


// ************************************************************************* //
