/*--------------------------------*- C++ -*----------------------------------*\
| =========                 |                                                 |
| \\      /  F ield         | OpenFOAM: The Open Source CFD Toolbox           |
|  \\    /   O peration     | Version:  2406                                  |
|   \\  /    A nd           | Website:  www.openfoam.com                      |
|    \\/     M anipulation  |                                                 |
\*---------------------------------------------------------------------------*/
FoamFile
{
    version     2.0;
    format      ascii;
    arch        "LSB;label=32;scalar=64";
    class       volVectorField;
    location    "97";
    object      U_0;
}
// * * * * * * * * * * * * * * * * * * * * * * * * * * * * * * * * * * * * * //

dimensions      [0 1 -1 0 0 0 0];

internalField   nonuniform List<vector> 
1024
(
(0.000499387 -0.000497918 0)
(0.0034751 -0.000849666 0)
(0.00669535 -0.000623426 0)
(0.00852852 -0.000287835 0)
(0.00912517 -0.000199534 0)
(0.00913786 -0.000371173 0)
(0.00893913 -0.000595457 0)
(0.00831626 -0.000882331 0)
(0.00646554 -0.00166503 0)
(0.00198758 -0.00273531 0)
(-0.00716679 -0.00248044 0)
(-0.0216504 0.000899781 0)
(-0.0409223 0.00595781 0)
(-0.0630471 0.00984862 0)
(-0.0841536 0.0110863 0)
(-0.100947 0.0100452 0)
(-0.11167 0.00762877 0)
(-0.115511 0.00457704 0)
(-0.112126 0.00137651 0)
(-0.100864 -0.00200364 0)
(-0.0824188 -0.0052293 0)
(-0.0576819 -0.00785444 0)
(-0.0288878 -0.00929038 0)
(0.00145449 -0.00903826 0)
(0.0292952 -0.00699446 0)
(0.0486204 -0.00124574 0)
(0.0558957 0.00510327 0)
(0.0493096 0.00794892 0)
(0.0337495 0.00679376 0)
(0.0186551 0.00416421 0)
(0.00770755 0.00200035 0)
(0.00104706 0.000781217 0)
(0.000983383 -0.00344184 0)
(0.00662159 -0.00591169 0)
(0.0117254 -0.00452599 0)
(0.0140937 -0.0020124 0)
(0.0136178 -0.000235904 0)
(0.0107512 0.000631017 0)
(0.00501554 0.00147824 0)
(-0.00589709 0.00340491 0)
(-0.0248919 0.00833374 0)
(-0.0538272 0.0176804 0)
(-0.0898873 0.0283442 0)
(-0.125726 0.0356138 0)
(-0.15678 0.0375988 0)
(-0.181775 0.0348237 0)
(-0.200061 0.0282803 0)
(-0.211283 0.019287 0)
(-0.215258 0.00882175 0)
(-0.212005 -0.0024222 0)
(-0.201876 -0.0139967 0)
(-0.184517 -0.0254396 0)
(-0.160271 -0.0359706 0)
(-0.129626 -0.0445069 0)
(-0.0940749 -0.0494977 0)
(-0.0550256 -0.0491319 0)
(-0.0145851 -0.0418371 0)
(0.0200287 -0.0260488 0)
(0.0441698 -0.00395112 0)
(0.0528097 0.0141748 0)
(0.0461534 0.022273 0)
(0.0315952 0.021654 0)
(0.0153288 0.0164162 0)
(0.00227075 0.00830892 0)
(0.00147289 -0.00780209 0)
(0.00778106 -0.0120765 0)
(0.0116752 -0.00810196 0)
(0.0114515 -0.00194545 0)
(0.00657056 0.00324708 0)
(-0.00401664 0.00831051 0)
(-0.0230213 0.0164631 0)
(-0.0537106 0.0305878 0)
(-0.0944092 0.0478748 0)
(-0.136913 0.0609513 0)
(-0.175035 0.0668297 0)
(-0.206913 0.0665046 0)
(-0.231969 0.0610094 0)
(-0.250602 0.0514901 0)
(-0.263185 0.0389351 0)
(-0.270122 0.0242985 0)
(-0.271694 0.00815883 0)
(-0.26811 -0.00910002 0)
(-0.259398 -0.0271398 0)
(-0.245317 -0.0452576 0)
(-0.22557 -0.0625173 0)
(-0.199998 -0.0773111 0)
(-0.168636 -0.0872654 0)
(-0.131606 -0.0893184 0)
(-0.0896337 -0.0807006 0)
(-0.0462716 -0.0595478 0)
(-0.00657471 -0.0258305 0)
(0.0188822 0.00683592 0)
(0.025495 0.0263494 0)
(0.0213008 0.0323393 0)
(0.0114454 0.0294912 0)
(0.00135936 0.0169263 0)
(0.00191701 -0.0126855 0)
(0.00685144 -0.0168655 0)
(0.00687262 -0.00827892 0)
(0.000699688 0.00338572 0)
(-0.0130529 0.0155086 0)
(-0.0371809 0.0311122 0)
(-0.0735443 0.0523508 0)
(-0.117953 0.0746213 0)
(-0.162215 0.0906495 0)
(-0.200477 0.0977001 0)
(-0.231305 0.096841 0)
(-0.255171 0.0898763 0)
(-0.272817 0.0782555 0)
(-0.285289 0.0633757 0)
(-0.293279 0.0461574 0)
(-0.297454 0.0272517 0)
(-0.298207 0.00688276 0)
(-0.295849 -0.0147802 0)
(-0.290328 -0.0374986 0)
(-0.281358 -0.0608467 0)
(-0.268394 -0.0839939 0)
(-0.250755 -0.105358 0)
(-0.227525 -0.122209 0)
(-0.197547 -0.130582 0)
(-0.159479 -0.125908 0)
(-0.113457 -0.104053 0)
(-0.0628075 -0.063668 0)
(-0.0182728 -0.0148405 0)
(0.00297279 0.0200353 0)
(0.00717233 0.0350769 0)
(0.00463064 0.0361892 0)
(7.73137e-05 0.0212866 0)
(0.00193353 -0.0166219 0)
(0.00268206 -0.0173478 0)
(-0.00399959 -0.00172646 0)
(-0.01919 0.0185916 0)
(-0.0448756 0.0419914 0)
(-0.0820582 0.0694643 0)
(-0.126641 0.0969674 0)
(-0.170511 0.11725 0)
(-0.20743 0.126716 0)
(-0.236216 0.126588 0)
(-0.257636 0.119112 0)
(-0.2727 0.106268 0)
(-0.282741 0.0897715 0)
(-0.288939 0.0709514 0)
(-0.29228 0.0506014 0)
(-0.293586 0.0291354 0)
(-0.293387 0.00657029 0)
(-0.291984 -0.0171344 0)
(-0.28934 -0.0419963 0)
(-0.285437 -0.0680277 0)
(-0.279843 -0.0949029 0)
(-0.27174 -0.121601 0)
(-0.259603 -0.145833 0)
(-0.241169 -0.163542 0)
(-0.213433 -0.168877 0)
(-0.173332 -0.155078 0)
(-0.120071 -0.116667 0)
(-0.0597073 -0.0564922 0)
(-0.0134018 0.00241641 0)
(-0.000429357 0.0316052 0)
(0.00101333 0.0375783 0)
(-0.00022499 0.0223092 0)
(0.000924951 -0.0170997 0)
(-0.00547749 -0.010689 0)
(-0.0206265 0.0145293 0)
(-0.0454925 0.0455682 0)
(-0.0806099 0.079313 0)
(-0.122918 0.112511 0)
(-0.165317 0.13835 0)
(-0.20081 0.151996 0)
(-0.227275 0.153724 0)
(-0.245908 0.14645 0)
(-0.257901 0.132837 0)
(-0.264853 0.115159 0)
(-0.268271 0.0951418 0)
(-0.269344 0.0738585 0)
(-0.269062 0.0518848 0)
(-0.268107 0.0294163 0)
(-0.26694 0.00640341 0)
(-0.265722 -0.0173067 0)
(-0.264579 -0.0420511 0)
(-0.263735 -0.0681959 0)
(-0.263207 -0.095929 0)
(-0.262602 -0.124977 0)
(-0.260726 -0.154138 0)
(-0.255104 -0.180499 0)
(-0.241811 -0.198685 0)
(-0.215868 -0.20062 0)
(-0.172537 -0.176712 0)
(-0.110735 -0.120139 0)
(-0.0401317 -0.0388407 0)
(-0.000895379 0.0196902 0)
(0.00166007 0.0367234 0)
(0.000392176 0.022514 0)
(-0.00129802 -0.0119376 0)
(-0.0159512 0.004751 0)
(-0.0389491 0.0400773 0)
(-0.0708385 0.0800901 0)
(-0.109596 0.119434 0)
(-0.149855 0.152016 0)
(-0.184492 0.171837 0)
(-0.209669 0.177353 0)
(-0.226296 0.171434 0)
(-0.236143 0.157817 0)
(-0.240821 0.139357 0)
(-0.242287 0.118407 0)
(-0.241851 0.0963366 0)
(-0.240544 0.0738766 0)
(-0.238969 0.0513042 0)
(-0.237461 0.0286464 0)
(-0.236166 0.00582668 0)
(-0.235084 -0.0173283 0)
(-0.234421 -0.0412216 0)
(-0.234374 -0.0662166 0)
(-0.235267 -0.0927038 0)
(-0.237289 -0.120942 0)
(-0.240228 -0.150834 0)
(-0.242748 -0.181262 0)
(-0.241708 -0.209025 0)
(-0.231842 -0.227534 0)
(-0.206321 -0.225933 0)
(-0.158869 -0.190344 0)
(-0.0879985 -0.110795 0)
(-0.0083675 -0.00711669 0)
(0.00606027 0.0359776 0)
(0.000847567 0.0246176 0)
(-0.00357262 -0.000109629 0)
(-0.0254834 0.028038 0)
(-0.0540276 0.0713178 0)
(-0.0889991 0.116696 0)
(-0.126677 0.156677 0)
(-0.160956 0.18458 0)
(-0.18648 0.196526 0)
(-0.202624 0.193891 0)
(-0.211641 0.181312 0)
(-0.215431 0.162737 0)
(-0.216017 0.141063 0)
(-0.215174 0.1183 0)
(-0.213786 0.0952988 0)
(-0.212464 0.0724556 0)
(-0.211306 0.0497622 0)
(-0.210365 0.0271328 0)
(-0.209559 0.00442061 0)
(-0.208913 -0.0185642 0)
(-0.208567 -0.0420571 0)
(-0.208665 -0.0662682 0)
(-0.209516 -0.0914603 0)
(-0.21145 -0.117932 0)
(-0.21471 -0.145999 0)
(-0.219072 -0.175778 0)
(-0.223184 -0.206462 0)
(-0.223648 -0.234708 0)
(-0.214313 -0.252343 0)
(-0.186823 -0.244325 0)
(-0.133134 -0.189432 0)
(-0.0478684 -0.0734547 0)
(0.0109237 0.0259837 0)
(0.000790789 0.0288347 0)
(-0.00521081 0.017304 0)
(-0.0319024 0.0560816 0)
(-0.0630824 0.104353 0)
(-0.0979048 0.151403 0)
(-0.131629 0.188495 0)
(-0.158692 0.209684 0)
(-0.176224 0.213401 0)
(-0.185722 0.203625 0)
(-0.189788 0.185898 0)
(-0.19039 0.164035 0)
(-0.189582 0.140709 0)
(-0.188514 0.117302 0)
(-0.187572 0.0942121 0)
(-0.186942 0.0715341 0)
(-0.186481 0.0490624 0)
(-0.186161 0.0266443 0)
(-0.185875 0.00407412 0)
(-0.185664 -0.0188086 0)
(-0.185609 -0.0421471 0)
(-0.185853 -0.0660609 0)
(-0.186609 -0.0906798 0)
(-0.188165 -0.116162 0)
(-0.190836 -0.142783 0)
(-0.194817 -0.170981 0)
(-0.199764 -0.20115 0)
(-0.20407 -0.232589 0)
(-0.203864 -0.261068 0)
(-0.192059 -0.27524 0)
(-0.159444 -0.253222 0)
(-0.0970559 -0.164986 0)
(0.00606623 -0.00442489 0)
(0.00629045 0.0359102 0)
(-0.00596864 0.0375848 0)
(-0.034666 0.0858365 0)
(-0.0658076 0.136481 0)
(-0.0981221 0.182393 0)
(-0.126572 0.214579 0)
(-0.146946 0.228291 0)
(-0.158496 0.224419 0)
(-0.163737 0.208958 0)
(-0.165181 0.187641 0)
(-0.164732 0.163936 0)
(-0.164045 0.140013 0)
(-0.163555 0.116587 0)
(-0.163341 0.0937064 0)
(-0.163362 0.071222 0)
(-0.163454 0.0488788 0)
(-0.163598 0.0265324 0)
(-0.163722 0.00401328 0)
(-0.163895 -0.0187865 0)
(-0.164159 -0.041975 0)
(-0.164592 -0.06561 0)
(-0.165303 -0.0897506 0)
(-0.166462 -0.114461 0)
(-0.16833 -0.139923 0)
(-0.171291 -0.166587 0)
(-0.175659 -0.195294 0)
(-0.181036 -0.226888 0)
(-0.185204 -0.260276 0)
(-0.182904 -0.288262 0)
(-0.165659 -0.292035 0)
(-0.122231 -0.236196 0)
(-0.0310193 -0.0737271 0)
(0.0206647 0.0387231 0)
(-0.00567934 0.0582964 0)
(-0.0338418 0.114918 0)
(-0.0628958 0.165924 0)
(-0.0913632 0.208927 0)
(-0.114455 0.235289 0)
(-0.129435 0.241724 0)
(-0.136957 0.231483 0)
(-0.139837 0.211827 0)
(-0.140289 0.188228 0)
(-0.139969 0.163663 0)
(-0.139923 0.139678 0)
(-0.140096 0.116432 0)
(-0.140479 0.0937432 0)
(-0.140947 0.0713601 0)
(-0.141414 0.0490652 0)
(-0.141892 0.0267358 0)
(-0.142369 0.00422899 0)
(-0.142917 -0.0185557 0)
(-0.143567 -0.0417043 0)
(-0.144371 -0.065277 0)
(-0.145351 -0.0892931 0)
(-0.146534 -0.113729 0)
(-0.147981 -0.138582 0)
(-0.149917 -0.164047 0)
(-0.15285 -0.190861 0)
(-0.157388 -0.220598 0)
(-0.163162 -0.254863 0)
(-0.166755 -0.291312 0)
(-0.160486 -0.315677 0)
(-0.13178 -0.293651 0)
(-0.0742078 -0.171146 0)
(0.0257458 0.0279665 0)
(-0.00448234 0.0776242 0)
(-0.0300888 0.141739 0)
(-0.0557016 0.191843 0)
(-0.079762 0.231097 0)
(-0.0979715 0.251592 0)
(-0.108913 0.251568 0)
(-0.113949 0.236288 0)
(-0.11575 0.213658 0)
(-0.116129 0.188683 0)
(-0.116362 0.163789 0)
(-0.116941 0.139923 0)
(-0.1176 0.116848 0)
(-0.118348 0.0942775 0)
(-0.119056 0.0719466 0)
(-0.119732 0.0496935 0)
(-0.120408 0.0274152 0)
(-0.121122 0.00499573 0)
(-0.121933 -0.0176594 0)
(-0.122881 -0.0406537 0)
(-0.124006 -0.0640706 0)
(-0.125318 -0.0879676 0)
(-0.126793 -0.112349 0)
(-0.128386 -0.137166 0)
(-0.130103 -0.16238 0)
(-0.132193 -0.188235 0)
(-0.135325 -0.215854 0)
(-0.140328 -0.247681 0)
(-0.14602 -0.285614 0)
(-0.147234 -0.322451 0)
(-0.131741 -0.328778 0)
(-0.0946328 -0.243723 0)
(0.00791353 -0.000756513 0)
(-0.00266953 0.0939109 0)
(-0.0242679 0.165047 0)
(-0.0456387 0.213703 0)
(-0.0651731 0.249037 0)
(-0.0791913 0.264147 0)
(-0.0872478 0.258796 0)
(-0.0908509 0.23975 0)
(-0.0922983 0.215112 0)
(-0.0929702 0.189355 0)
(-0.0937597 0.16438 0)
(-0.0947702 0.140628 0)
(-0.0957268 0.117625 0)
(-0.0966774 0.0950669 0)
(-0.097534 0.0727136 0)
(-0.0983716 0.0504529 0)
(-0.0992303 0.0281957 0)
(-0.100168 0.00584311 0)
(-0.10123 -0.0167028 0)
(-0.102457 -0.0395535 0)
(-0.10387 -0.0628031 0)
(-0.105468 -0.0865305 0)
(-0.10721 -0.110777 0)
(-0.109019 -0.135531 0)
(-0.110813 -0.160732 0)
(-0.112672 -0.186396 0)
(-0.115032 -0.213138 0)
(-0.118968 -0.24309 0)
(-0.124667 -0.280062 0)
(-0.130029 -0.323415 0)
(-0.124384 -0.351029 0)
(-0.102184 -0.295738 0)
(-0.0212791 -0.0514057 0)
(-0.000515397 0.105912 0)
(-0.0171388 0.183901 0)
(-0.0338493 0.231276 0)
(-0.049011 0.263114 0)
(-0.0594825 0.273848 0)
(-0.0654487 0.264447 0)
(-0.0682529 0.242707 0)
(-0.0696816 0.216705 0)
(-0.0707116 0.190448 0)
(-0.071909 0.16541 0)
(-0.0731674 0.141661 0)
(-0.0742862 0.118624 0)
(-0.0753472 0.0960125 0)
(-0.0763109 0.0736263 0)
(-0.0772831 0.0513839 0)
(-0.0783053 0.0291985 0)
(-0.0794398 0.00696945 0)
(-0.0807233 -0.0154166 0)
(-0.0821945 -0.0380826 0)
(-0.0838739 -0.0611465 0)
(-0.0857628 -0.0847173 0)
(-0.0878229 -0.108877 0)
(-0.089963 -0.133647 0)
(-0.0920292 -0.158944 0)
(-0.0939484 -0.184579 0)
(-0.0958389 -0.210626 0)
(-0.0987013 -0.238492 0)
(-0.103174 -0.272704 0)
(-0.109857 -0.318007 0)
(-0.108708 -0.363035 0)
(-0.0960463 -0.344726 0)
(-0.0340576 -0.129926 0)
(0.00176644 0.112972 0)
(-0.00928576 0.197863 0)
(-0.0212102 0.244565 0)
(-0.0321862 0.273615 0)
(-0.0396336 0.281032 0)
(-0.0440838 0.268743 0)
(-0.0464285 0.245191 0)
(-0.0479402 0.218296 0)
(-0.0492363 0.191713 0)
(-0.0506543 0.166606 0)
(-0.0520087 0.142803 0)
(-0.0531887 0.119703 0)
(-0.0542981 0.0970398 0)
(-0.0553382 0.0746435 0)
(-0.0564212 0.0524457 0)
(-0.0575885 0.0303557 0)
(-0.0588992 0.00826615 0)
(-0.060386 -0.013946 0)
(-0.0620833 -0.0364113 0)
(-0.0640076 -0.059258 0)
(-0.0661606 -0.0826165 0)
(-0.0685136 -0.106614 0)
(-0.071004 -0.131347 0)
(-0.0734752 -0.15684 0)
(-0.0758253 -0.182924 0)
(-0.077892 -0.209378 0)
(-0.0805007 -0.236678 0)
(-0.0838325 -0.26862 0)
(-0.0907479 -0.312434 0)
(-0.0914391 -0.366011 0)
(-0.0843167 -0.375808 0)
(-0.0302752 -0.197996 0)
(0.00401716 0.114651 0)
(-0.00114088 0.206598 0)
(-0.00829296 0.25364 0)
(-0.0153345 0.280849 0)
(-0.0201186 0.286243 0)
(-0.0232999 0.272242 0)
(-0.0252972 0.247623 0)
(-0.0268598 0.220136 0)
(-0.0283007 0.193273 0)
(-0.0297959 0.168015 0)
(-0.0311504 0.144077 0)
(-0.0323279 0.12087 0)
(-0.0334442 0.0981446 0)
(-0.034531 0.0757529 0)
(-0.0356961 0.0536259 0)
(-0.0369839 0.0316649 0)
(-0.0384512 0.00975017 0)
(-0.0401323 -0.0122551 0)
(-0.0420571 -0.034494 0)
(-0.0442417 -0.0571064 0)
(-0.0466897 -0.0802394 0)
(-0.0493696 -0.104042 0)
(-0.0522388 -0.12864 0)
(-0.0551182 -0.154103 0)
(-0.0579359 -0.180297 0)
(-0.0602945 -0.20691 0)
(-0.0630308 -0.233812 0)
(-0.0654564 -0.263947 0)
(-0.0721457 -0.30624 0)
(-0.0737045 -0.36742 0)
(-0.0724334 -0.402849 0)
(-0.0258551 -0.25409 0)
(0.00617877 0.111178 0)
(0.0069841 0.210135 0)
(0.00439531 0.258645 0)
(0.00118104 0.285065 0)
(-0.00111752 0.289436 0)
(-0.00318906 0.274659 0)
(-0.00483243 0.249578 0)
(-0.0063769 0.221767 0)
(-0.0078343 0.19469 0)
(-0.00928332 0.16927 0)
(-0.01055 0.145204 0)
(-0.0116538 0.121933 0)
(-0.0127181 0.0992045 0)
(-0.0137984 0.0768801 0)
(-0.0149977 0.0548803 0)
(-0.0163663 0.0330979 0)
(-0.0179596 0.0114034 0)
(-0.0198168 -0.0103499 0)
(-0.0219622 -0.0323164 0)
(-0.0244121 -0.0546453 0)
(-0.0271804 -0.0775033 0)
(-0.0302314 -0.101073 0)
(-0.0335658 -0.125534 0)
(-0.0369848 -0.151048 0)
(-0.0405187 -0.177569 0)
(-0.0435356 -0.204789 0)
(-0.0470318 -0.232089 0)
(-0.0492222 -0.261038 0)
(-0.0560247 -0.300134 0)
(-0.0578367 -0.363618 0)
(-0.0613354 -0.419811 0)
(-0.0211606 -0.302312 0)
(0.00796618 0.102731 0)
(0.0147814 0.208284 0)
(0.0166303 0.259555 0)
(0.0169901 0.286408 0)
(0.017131 0.290873 0)
(0.0163536 0.276376 0)
(0.0152188 0.251432 0)
(0.0138217 0.223545 0)
(0.0124423 0.196278 0)
(0.0111054 0.170641 0)
(0.0099742 0.146392 0)
(0.0089939 0.12303 0)
(0.00803073 0.100298 0)
(0.00700662 0.0780532 0)
(0.00581973 0.0562045 0)
(0.00441056 0.0346355 0)
(0.00272186 0.013206 0)
(0.000702996 -0.00824327 0)
(-0.00166571 -0.0298786 0)
(-0.00439861 -0.0518709 0)
(-0.00752654 -0.0743938 0)
(-0.0109941 -0.0976442 0)
(-0.0148465 -0.12182 0)
(-0.0188259 -0.147112 0)
(-0.0231071 -0.173551 0)
(-0.0268414 -0.200903 0)
(-0.0313876 -0.228496 0)
(-0.0337546 -0.257039 0)
(-0.0413372 -0.294267 0)
(-0.0438545 -0.360114 0)
(-0.0523028 -0.4334 0)
(-0.0172865 -0.341873 0)
(0.00900484 0.0897238 0)
(0.0218147 0.200976 0)
(0.0280981 0.256244 0)
(0.0319291 0.284657 0)
(0.0345169 0.290336 0)
(0.0352384 0.276969 0)
(0.0348035 0.252649 0)
(0.0337049 0.224868 0)
(0.0325014 0.197436 0)
(0.0313467 0.171582 0)
(0.0304119 0.147183 0)
(0.0296324 0.123796 0)
(0.0288545 0.101147 0)
(0.0279698 0.0790753 0)
(0.0268685 0.0574674 0)
(0.0254785 0.036196 0)
(0.0237376 0.0151114 0)
(0.0215889 -0.00595776 0)
(0.0190048 -0.0271828 0)
(0.0159737 -0.0487534 0)
(0.0124481 -0.0708611 0)
(0.00850417 -0.0937273 0)
(0.00403202 -0.117592 0)
(-0.000646241 -0.142679 0)
(-0.00587505 -0.169127 0)
(-0.0106023 -0.196687 0)
(-0.0166644 -0.224687 0)
(-0.0196976 -0.252785 0)
(-0.0286896 -0.287367 0)
(-0.0318062 -0.352615 0)
(-0.0447484 -0.440266 0)
(-0.0140049 -0.376038 0)
(0.00885961 0.073088 0)
(0.0274901 0.188293 0)
(0.0383328 0.248601 0)
(0.0457291 0.279778 0)
(0.0509352 0.287885 0)
(0.0534615 0.276662 0)
(0.0540539 0.253653 0)
(0.0534992 0.226296 0)
(0.0526181 0.198761 0)
(0.0517312 0.172633 0)
(0.0510465 0.148018 0)
(0.0505207 0.124563 0)
(0.0499869 0.101984 0)
(0.0493031 0.0800923 0)
(0.0483442 0.0587514 0)
(0.0470227 0.0378201 0)
(0.0452691 0.0171392 0)
(0.0430142 -0.00347226 0)
(0.0402212 -0.0242064 0)
(0.0368857 -0.0452613 0)
(0.032928 -0.0668491 0)
(0.0284616 -0.0892061 0)
(0.0233183 -0.112591 0)
(0.0178927 -0.137226 0)
(0.0116652 -0.163303 0)
(0.00585473 -0.190608 0)
(-0.00188056 -0.218685 0)
(-0.0060123 -0.246519 0)
(-0.0172663 -0.279965 0)
(-0.0212403 -0.344987 0)
(-0.0388042 -0.444447 0)
(-0.0113265 -0.404576 0)
(0.00712994 0.054459 0)
(0.0310839 0.170404 0)
(0.0467816 0.236483 0)
(0.0580445 0.271478 0)
(0.0661304 0.282861 0)
(0.0707387 0.27453 0)
(0.0726717 0.253407 0)
(0.0729311 0.226816 0)
(0.0725675 0.199329 0)
(0.0720919 0.172978 0)
(0.0717721 0.148182 0)
(0.0716047 0.124719 0)
(0.0714205 0.102302 0)
(0.0710447 0.0807058 0)
(0.0703284 0.0597594 0)
(0.0691609 0.0392979 0)
(0.0674674 0.019152 0)
(0.0651511 -0.000885301 0)
(0.0621712 -0.0209911 0)
(0.0585403 -0.0413912 0)
(0.0541262 -0.0623224 0)
(0.0490999 -0.0840361 0)
(0.0431864 -0.106817 0)
(0.0368879 -0.13093 0)
(0.0294838 -0.156603 0)
(0.0223327 -0.183629 0)
(0.012774 -0.211556 0)
(0.00697289 -0.23872 0)
(-0.00716211 -0.270489 0)
(-0.0117388 -0.333349 0)
(-0.0338723 -0.443733 0)
(-0.00896414 -0.429636 0)
(0.00395666 0.0362159 0)
(0.0318431 0.147678 0)
(0.0527864 0.219727 0)
(0.0682549 0.259697 0)
(0.0796233 0.27535 0)
(0.0868237 0.270814 0)
(0.0906416 0.25237 0)
(0.0921829 0.227092 0)
(0.0926728 0.199929 0)
(0.0928289 0.173423 0)
(0.0930185 0.14841 0)
(0.0933029 0.124877 0)
(0.0935383 0.102581 0)
(0.0935338 0.0812731 0)
(0.0931184 0.0607459 0)
(0.0921587 0.0408029 0)
(0.0905538 0.0212581 0)
(0.0882269 0.00189407 0)
(0.0850953 -0.0174815 0)
(0.0811816 -0.0371126 0)
(0.0762958 -0.0572524 0)
(0.0706909 -0.0781599 0)
(0.0639582 -0.100142 0)
(0.0567346 -0.123442 0)
(0.0480349 -0.148303 0)
(0.0394542 -0.174557 0)
(0.0280096 -0.201824 0)
(0.0199387 -0.228404 0)
(0.00239387 -0.259302 0)
(-0.00285467 -0.320556 0)
(-0.0299737 -0.440701 0)
(-0.0067943 -0.451153 0)
(0.000472251 0.020563 0)
(0.0293431 0.120759 0)
(0.0557655 0.198193 0)
(0.075703 0.243807 0)
(0.0906461 0.264251 0)
(0.10084 0.264015 0)
(0.107086 0.248833 0)
(0.110485 0.225429 0)
(0.112329 0.199018 0)
(0.1135 0.172635 0)
(0.114483 0.147565 0)
(0.115426 0.12407 0)
(0.116238 0.102002 0)
(0.11674 0.0811099 0)
(0.116746 0.061153 0)
(0.116109 0.0418987 0)
(0.114693 0.0231353 0)
(0.112439 0.00463446 0)
(0.109188 -0.0138338 0)
(0.105039 -0.0325092 0)
(0.0997007 -0.051665 0)
(0.0935218 -0.071562 0)
(0.0859157 -0.0925285 0)
(0.0776727 -0.114796 0)
(0.0675046 -0.138648 0)
(0.0572544 -0.163875 0)
(0.0435739 -0.190178 0)
(0.0327836 -0.215892 0)
(0.0116131 -0.245238 0)
(0.00564778 -0.303867 0)
(-0.0267928 -0.433871 0)
(-0.00463501 -0.470498 0)
(-0.00169605 0.00853902 0)
(0.0236379 0.0909365 0)
(0.0551028 0.172091 0)
(0.0794565 0.223985 0)
(0.0983479 0.25 0)
(0.112195 0.254702 0)
(0.121669 0.243473 0)
(0.127771 0.222633 0)
(0.131738 0.197523 0)
(0.134531 0.171614 0)
(0.13674 0.146655 0)
(0.138621 0.123244 0)
(0.140176 0.101401 0)
(0.141285 0.0809185 0)
(0.141771 0.0615462 0)
(0.141511 0.0430228 0)
(0.140314 0.0251061 0)
(0.138176 0.00755083 0)
(0.134842 -0.00989248 0)
(0.130496 -0.0274782 0)
(0.124709 -0.0454942 0)
(0.117957 -0.064183 0)
(0.109427 -0.0838876 0)
(0.100096 -0.104792 0)
(0.0883149 -0.127187 0)
(0.0762227 -0.15081 0)
(0.060026 -0.175554 0)
(0.046158 -0.200018 0)
(0.0210672 -0.228238 0)
(0.0139511 -0.285014 0)
(-0.0242949 -0.425065 0)
(-0.00229894 -0.487473 0)
(-0.00175175 0.000261345 0)
(0.0162347 0.0611809 0)
(0.0502989 0.142162 0)
(0.0785936 0.199318 0)
(0.101305 0.230778 0)
(0.119077 0.240523 0)
(0.132483 0.233604 0)
(0.142233 0.215965 0)
(0.149318 0.192893 0)
(0.154632 0.168122 0)
(0.158806 0.143783 0)
(0.162192 0.120813 0)
(0.164901 0.0994484 0)
(0.166915 0.0795816 0)
(0.168093 0.0609859 0)
(0.168382 0.0433891 0)
(0.167537 0.0265231 0)
(0.165641 0.0101302 0)
(0.162293 -0.00606381 0)
(0.157816 -0.0223117 0)
(0.151609 -0.0389146 0)
(0.144299 -0.0560869 0)
(0.134783 -0.0741871 0)
(0.124261 -0.0933329 0)
(0.110653 -0.113859 0)
(0.0964434 -0.135462 0)
(0.0773125 -0.158262 0)
(0.0600263 -0.181048 0)
(0.0310433 -0.207903 0)
(0.0221766 -0.262134 0)
(-0.0221564 -0.413079 0)
(0.000592659 -0.502432 0)
(-0.000483711 -0.00495939 0)
(0.00973924 0.0363831 0)
(0.0410478 0.110738 0)
(0.072002 0.171914 0)
(0.0987071 0.208346 0)
(0.120871 0.222955 0)
(0.138972 0.220489 0)
(0.153455 0.206493 0)
(0.164883 0.18611 0)
(0.173881 0.163162 0)
(0.181002 0.140028 0)
(0.18666 0.117917 0)
(0.191068 0.0973008 0)
(0.194368 0.0782147 0)
(0.19646 0.0604952 0)
(0.197449 0.0439065 0)
(0.197009 0.0281557 0)
(0.195412 0.0130123 0)
(0.19205 -0.00185298 0)
(0.187457 -0.0166135 0)
(0.180774 -0.0316087 0)
(0.172846 -0.0470161 0)
(0.162205 -0.0632021 0)
(0.150346 -0.0801887 0)
(0.134672 -0.0983582 0)
(0.118108 -0.117331 0)
(0.0957097 -0.137551 0)
(0.0748504 -0.158168 0)
(0.0420846 -0.184245 0)
(0.030798 -0.236677 0)
(-0.0195017 -0.398902 0)
(0.0047389 -0.514364 0)
(0.000992989 -0.00853728 0)
(0.00568364 0.0191881 0)
(0.0280992 0.0802262 0)
(0.0586078 0.140588 0)
(0.0878192 0.180069 0)
(0.114467 0.198504 0)
(0.137868 0.200266 0)
(0.158018 0.190257 0)
(0.174994 0.173293 0)
(0.188988 0.153083 0)
(0.200317 0.13207 0)
(0.209387 0.111636 0)
(0.216441 0.092437 0)
(0.221804 0.0746729 0)
(0.225395 0.0582613 0)
(0.227535 0.0430417 0)
(0.22782 0.0287256 0)
(0.226736 0.0151235 0)
(0.223504 0.001898 0)
(0.218917 -0.0110587 0)
(0.211748 -0.0241003 0)
(0.203186 -0.0373267 0)
(0.19129 -0.0511205 0)
(0.177999 -0.065389 0)
(0.160038 -0.0806083 0)
(0.140985 -0.0963403 0)
(0.115089 -0.113562 0)
(0.0907839 -0.13178 0)
(0.0543231 -0.157607 0)
(0.0403666 -0.209223 0)
(-0.0143521 -0.382712 0)
(0.0114057 -0.522547 0)
(0.00191801 -0.0132418 0)
(0.00176428 0.0111015 0)
(0.0125111 0.0590875 0)
(0.0390371 0.113719 0)
(0.0694403 0.151503 0)
(0.100233 0.171232 0)
(0.129494 0.175853 0)
(0.156129 0.169387 0)
(0.179725 0.156077 0)
(0.199883 0.139241 0)
(0.21657 0.121159 0)
(0.230123 0.103219 0)
(0.240731 0.0861678 0)
(0.248907 0.070316 0)
(0.254544 0.0556849 0)
(0.258238 0.0421849 0)
(0.259476 0.0295989 0)
(0.259061 0.0177636 0)
(0.255994 0.00641625 0)
(0.251414 -0.00456142 0)
(0.24364 -0.0154426 0)
(0.234409 -0.0262173 0)
(0.221088 -0.0373005 0)
(0.206381 -0.0484621 0)
(0.186071 -0.0603399 0)
(0.164849 -0.0724171 0)
(0.135731 -0.0863833 0)
(0.108825 -0.102066 0)
(0.0691808 -0.12872 0)
(0.0531174 -0.180472 0)
(-0.00276422 -0.365028 0)
(0.0228267 -0.525793 0)
(0.00181951 -0.00956966 0)
(-0.00169414 0.00711303 0)
(-0.00931426 0.0426977 0)
(0.00946485 0.0845338 0)
(0.0382975 0.117858 0)
(0.0731465 0.135951 0)
(0.108266 0.142075 0)
(0.141784 0.138921 0)
(0.172515 0.129671 0)
(0.199609 0.116949 0)
(0.222543 0.102733 0)
(0.241617 0.0882959 0)
(0.256798 0.074393 0)
(0.268828 0.0613839 0)
(0.277385 0.0493645 0)
(0.283494 0.0383264 0)
(0.286285 0.0281156 0)
(0.28717 0.0186544 0)
(0.284569 0.00970166 0)
(0.280461 0.00122727 0)
(0.272329 -0.00707267 0)
(0.262961 -0.0149925 0)
(0.24857 -0.0229791 0)
(0.233345 -0.0306422 0)
(0.211488 -0.0388759 0)
(0.189789 -0.047071 0)
(0.158869 -0.0578115 0)
(0.1319 -0.0711438 0)
(0.0907225 -0.0991771 0)
(0.0745442 -0.152843 0)
(0.0208292 -0.344991 0)
(0.0416147 -0.520346 0)
(-0.017035 -0.0201997 0)
(-0.0320378 0.026438 0)
(-0.0336384 0.0529204 0)
(-0.0260015 0.0749978 0)
(0.00367669 0.0913862 0)
(0.0407654 0.102314 0)
(0.0817399 0.105722 0)
(0.122076 0.104008 0)
(0.159952 0.0983502 0)
(0.193705 0.0899358 0)
(0.222682 0.0802169 0)
(0.247084 0.0700268 0)
(0.266582 0.0600835 0)
(0.28238 0.0506414 0)
(0.293577 0.041909 0)
(0.302169 0.0338749 0)
(0.306313 0.0265094 0)
(0.308859 0.0197596 0)
(0.306767 0.0134845 0)
(0.303952 0.00773431 0)
(0.295936 0.00226898 0)
(0.288149 -0.00265907 0)
(0.274096 -0.00752788 0)
(0.261337 -0.0118891 0)
(0.240402 -0.0168698 0)
(0.222779 -0.0216554 0)
(0.193516 -0.0297786 0)
(0.172798 -0.0410196 0)
(0.133297 -0.071311 0)
(0.120174 -0.128434 0)
(0.0682316 -0.317211 0)
(0.0734372 -0.491861 0)
(-0.0904727 0.0511205 0)
(-0.103187 0.019451 0)
(-0.119287 0.0331118 0)
(-0.0900972 0.036968 0)
(-0.0615717 0.0463481 0)
(-0.016102 0.0532737 0)
(0.0283091 0.0566979 0)
(0.0739383 0.0576523 0)
(0.116837 0.0562834 0)
(0.156852 0.052989 0)
(0.19155 0.0487308 0)
(0.223023 0.04385 0)
(0.248232 0.0388698 0)
(0.271373 0.0339432 0)
(0.287958 0.0292791 0)
(0.304081 0.0249399 0)
(0.313292 0.0208899 0)
(0.323787 0.0172568 0)
(0.326665 0.0137792 0)
(0.332727 0.0108391 0)
(0.329945 0.0078447 0)
(0.332445 0.00562402 0)
(0.323973 0.00293563 0)
(0.323396 0.0014745 0)
(0.308614 -0.00135886 0)
(0.305612 -0.00263648 0)
(0.282589 -0.00884037 0)
(0.277382 -0.0165944 0)
(0.241583 -0.0462747 0)
(0.233702 -0.101587 0)
(0.169686 -0.253108 0)
(0.133725 -0.393652 0)
(0.102504 0.119219 0)
(0.119755 0.0758827 0)
(0.165512 0.0479101 0)
(0.20642 0.0295539 0)
(0.235441 0.0203143 0)
(0.266388 0.015433 0)
(0.297679 0.0134032 0)
(0.332733 0.0124945 0)
(0.36596 0.0119984 0)
(0.401603 0.0114682 0)
(0.431976 0.0109531 0)
(0.463797 0.0102233 0)
(0.488046 0.00954743 0)
(0.514539 0.00863728 0)
(0.532039 0.007938 0)
(0.553538 0.00696784 0)
(0.564668 0.0063798 0)
(0.582137 0.0054021 0)
(0.587477 0.00500614 0)
(0.602017 0.00400538 0)
(0.602006 0.00384669 0)
(0.614677 0.00275368 0)
(0.609426 0.00292629 0)
(0.621126 0.00171815 0)
(0.610149 0.00239144 0)
(0.620985 0.000766734 0)
(0.601393 0.00136683 0)
(0.607085 -0.00305692 0)
(0.565296 -0.00756447 0)
(0.542112 -0.027665 0)
(0.418823 -0.0609197 0)
(0.2735 -0.114742 0)
)
;

boundaryField
{
    movingWall
    {
        type            fixedValue;
        value           uniform (1 0 0);
    }
    fixedWalls
    {
        type            noSlip;
    }
    frontAndBack
    {
        type            empty;
    }
}


// ************************************************************************* //
