/*--------------------------------*- C++ -*----------------------------------*\
| =========                 |                                                 |
| \\      /  F ield         | OpenFOAM: The Open Source CFD Toolbox           |
|  \\    /   O peration     | Version:  2406                                  |
|   \\  /    A nd           | Website:  www.openfoam.com                      |
|    \\/     M anipulation  |                                                 |
\*---------------------------------------------------------------------------*/
FoamFile
{
    version     2.0;
    format      ascii;
    arch        "LSB;label=32;scalar=64";
    class       volVectorField;
    location    "17.25";
    object      Uold;
}
// * * * * * * * * * * * * * * * * * * * * * * * * * * * * * * * * * * * * * //

dimensions      [0 1 -1 0 0 0 0];

internalField   nonuniform List<vector> 
3600
(
(4.24134e-05 -3.86972e-05 0)
(0.000101189 -2.98051e-05 0)
(0.000114039 -7.76114e-06 0)
(4.70292e-05 1.5367e-05 0)
(-6.5075e-05 2.4892e-05 0)
(-0.0002057 3.08643e-05 0)
(-0.000361685 3.08937e-05 0)
(-0.000522551 3.25565e-05 0)
(-0.00069481 3.33592e-05 0)
(-0.00087303 3.72109e-05 0)
(-0.00106998 4.15491e-05 0)
(-0.0012813 4.86234e-05 0)
(-0.00152007 5.64545e-05 0)
(-0.00178233 6.65456e-05 0)
(-0.00207965 7.73871e-05 0)
(-0.00240802 8.98372e-05 0)
(-0.00277579 0.00010247 0)
(-0.00317699 0.000115421 0)
(-0.00361421 0.000127078 0)
(-0.00407652 0.000136874 0)
(-0.00455794 0.000142929 0)
(-0.00503969 0.000144094 0)
(-0.00550507 0.000138278 0)
(-0.00592574 0.000123987 0)
(-0.00627407 9.92015e-05 0)
(-0.0065131 6.26529e-05 0)
(-0.00660781 1.31667e-05 0)
(-0.00651853 -4.92006e-05 0)
(-0.00621216 -0.000123515 0)
(-0.00565841 -0.000207069 0)
(-0.00484106 -0.000295745 0)
(-0.00375512 -0.00038363 0)
(-0.00241697 -0.000463729 0)
(-0.000859545 -0.000528298 0)
(0.0008604 -0.000569983 0)
(0.0026721 -0.000582725 0)
(0.00448712 -0.000562874 0)
(0.00621543 -0.000510054 0)
(0.0077636 -0.000427404 0)
(0.0090554 -0.000321679 0)
(0.0100268 -0.000201981 0)
(0.0106472 -7.90598e-05 0)
(0.0109047 3.71151e-05 0)
(0.0108249 0.000137751 0)
(0.0104439 0.000217586 0)
(0.00982681 0.000273679 0)
(0.00903008 0.000307073 0)
(0.00812789 0.000319826 0)
(0.00716651 0.000316814 0)
(0.0062062 0.000301681 0)
(0.00526642 0.000280102 0)
(0.00438702 0.000254619 0)
(0.00355937 0.000230377 0)
(0.0028086 0.000207245 0)
(0.00210722 0.000189231 0)
(0.00147999 0.000170061 0)
(0.000905308 0.000149977 0)
(0.000435153 0.000108748 0)
(9.94689e-05 4.92952e-05 0)
(-3.27116e-05 -3.31739e-05 0)
(3.70419e-05 -0.000104472 0)
(1.35601e-05 -1.66647e-05 0)
(-0.000145321 0.00011097 0)
(-0.000460094 0.000237321 0)
(-0.000883805 0.00030718 0)
(-0.00137679 0.000355425 0)
(-0.00191782 0.000375613 0)
(-0.00248224 0.000396834 0)
(-0.00307858 0.000413645 0)
(-0.00369563 0.000440977 0)
(-0.00435315 0.000471866 0)
(-0.00504481 0.000513991 0)
(-0.00579176 0.000561467 0)
(-0.00658967 0.000618642 0)
(-0.00745745 0.000680505 0)
(-0.00839045 0.000748411 0)
(-0.00940139 0.000816504 0)
(-0.0104802 0.000882486 0)
(-0.0116272 0.000938399 0)
(-0.0128196 0.000978291 0)
(-0.0140386 0.000992092 0)
(-0.0152427 0.000971278 0)
(-0.0163901 0.000904941 0)
(-0.0174188 0.000784263 0)
(-0.0182665 0.000600271 0)
(-0.0188567 0.000347721 0)
(-0.0191175 2.40771e-05 0)
(-0.018973 -0.000367115 0)
(-0.0183619 -0.000816864 0)
(-0.0172318 -0.00130843 0)
(-0.0155566 -0.00181871 0)
(-0.0133313 -0.00231777 0)
(-0.0105866 -0.00277184 0)
(-0.00738077 -0.00314489 0)
(-0.00381008 -0.00340311 0)
(5.02458e-06 -0.00351794 0)
(0.00391401 -0.00347065 0)
(0.00775785 -0.00325508 0)
(0.0113658 -0.00287998 0)
(0.0145846 -0.00236926 0)
(0.0172729 -0.00175967 0)
(0.0193349 -0.00109753 0)
(0.0207042 -0.000431809 0)
(0.0213767 0.000190444 0)
(0.021377 0.000732127 0)
(0.0207887 0.00116716 0)
(0.0197011 0.00148553 0)
(0.018245 0.00168805 0)
(0.0165223 0.00178877 0)
(0.0146609 0.00180481 0)
(0.0127303 0.0017607 0)
(0.0108259 0.00167497 0)
(0.0089669 0.00157102 0)
(0.00721593 0.00145671 0)
(0.00555275 0.00134623 0)
(0.00403429 0.00122131 0)
(0.0026403 0.00107701 0)
(0.00147111 0.000848279 0)
(0.000559967 0.000536639 0)
(5.80513e-05 0.00010446 0)
(5.25151e-06 -0.000104812 0)
(-0.000180689 0.000169255 0)
(-0.000611134 0.000491118 0)
(-0.00125037 0.000786638 0)
(-0.00204907 0.000964966 0)
(-0.00294023 0.00108779 0)
(-0.00390564 0.00115116 0)
(-0.00490726 0.00120908 0)
(-0.00595818 0.00125757 0)
(-0.00704054 0.001324 0)
(-0.00817901 0.00139917 0)
(-0.00936466 0.0014965 0)
(-0.0106243 0.00160748 0)
(-0.011954 0.00173915 0)
(-0.0133791 0.00188341 0)
(-0.014897 0.00204092 0)
(-0.0165256 0.00220008 0)
(-0.0182552 0.00235304 0)
(-0.0200864 0.00248196 0)
(-0.0219911 0.00257042 0)
(-0.0239431 0.00259507 0)
(-0.0258876 0.00253427 0)
(-0.0277667 0.00236346 0)
(-0.029498 0.00206232 0)
(-0.0309972 0.00161266 0)
(-0.0321638 0.00100465 0)
(-0.0329024 0.000236152 0)
(-0.033114 -0.000682208 0)
(-0.0327159 -0.00172793 0)
(-0.031636 -0.0028637 0)
(-0.0298308 -0.00404 0)
(-0.0272803 -0.00519504 0)
(-0.0240038 -0.00626007 0)
(-0.0200521 -0.00716221 0)
(-0.0155204 -0.0078322 0)
(-0.0105356 -0.00820934 0)
(-0.0052648 -0.00825002 0)
(0.000105338 -0.00793249 0)
(0.00536379 -0.00726282 0)
(0.0103058 -0.0062759 0)
(0.0147284 -0.00503457 0)
(0.0184691 -0.00362404 0)
(0.0213935 -0.00214253 0)
(0.0234366 -0.00069091 0)
(0.0245727 0.0006409 0)
(0.0248539 0.00178159 0)
(0.0243557 0.00268822 0)
(0.0232173 0.00334394 0)
(0.0215635 0.00376046 0)
(0.0195606 0.00396566 0)
(0.0173186 0.00400423 0)
(0.0149798 0.00391896 0)
(0.0126001 0.00375828 0)
(0.0102824 0.00354882 0)
(0.00802834 0.00331698 0)
(0.0059291 0.00303922 0)
(0.00397055 0.00269551 0)
(0.00229583 0.00218206 0)
(0.000933384 0.00146837 0)
(0.00013478 0.000475808 0)
(-3.83425e-05 2.33974e-05 0)
(-0.000433831 0.000614895 0)
(-0.00119309 0.00120304 0)
(-0.00219996 0.00170348 0)
(-0.00340526 0.00201387 0)
(-0.0047119 0.00222738 0)
(-0.00611264 0.00234866 0)
(-0.00755607 0.00245583 0)
(-0.00906386 0.00254791 0)
(-0.0106104 0.0026644 0)
(-0.012227 0.00279528 0)
(-0.0139023 0.00296066 0)
(-0.0156715 0.0031511 0)
(-0.0175338 0.00337758 0)
(-0.0195258 0.00362999 0)
(-0.0216518 0.00390847 0)
(-0.0239411 0.00419508 0)
(-0.0263904 0.00447479 0)
(-0.0290075 0.00471746 0)
(-0.0317657 0.00489319 0)
(-0.0346382 0.00496202 0)
(-0.0375634 0.00488597 0)
(-0.0404746 0.00462391 0)
(-0.0432742 0.00414153 0)
(-0.0458603 0.00340945 0)
(-0.0481094 0.00241156 0)
(-0.0498999 0.00114453 0)
(-0.0511018 -0.000375732 0)
(-0.0515983 -0.00211519 0)
(-0.0512797 -0.00401799 0)
(-0.0500634 -0.00600982 0)
(-0.0478903 -0.00799777 0)
(-0.0447426 -0.00987707 0)
(-0.0406394 -0.0115347 0)
(-0.035652 -0.0128597 0)
(-0.0298945 -0.01375 0)
(-0.0235353 -0.0141251 0)
(-0.0167782 -0.0139332 0)
(-0.009869 -0.0131625 0)
(-0.0030642 -0.0118441 0)
(0.00336661 -0.0100546 0)
(0.00918369 -0.00790987 0)
(0.0141704 -0.00555472 0)
(0.0181817 -0.00314749 0)
(0.0211197 -0.000840922 0)
(0.0229798 0.0012333 0)
(0.023798 0.00298068 0)
(0.0236959 0.00434736 0)
(0.0227984 0.00532487 0)
(0.0212914 0.00593815 0)
(0.0193143 0.00624277 0)
(0.0170504 0.00630269 0)
(0.0145933 0.00619092 0)
(0.0120908 0.00595804 0)
(0.00957316 0.00564574 0)
(0.00717076 0.00523534 0)
(0.00487996 0.00469119 0)
(0.00288304 0.00388016 0)
(0.00120697 0.00270795 0)
(0.000190467 0.00102202 0)
(-8.19754e-05 0.000281727 0)
(-0.000700662 0.00134152 0)
(-0.00181116 0.00227943 0)
(-0.00320568 0.00302413 0)
(-0.00483332 0.00348858 0)
(-0.00656196 0.00380474 0)
(-0.0083986 0.00399442 0)
(-0.0102774 0.00415952 0)
(-0.0122325 0.00430497 0)
(-0.0142311 0.00448212 0)
(-0.016316 0.00468322 0)
(-0.0184765 0.00493674 0)
(-0.0207634 0.00523598 0)
(-0.023186 0.00559804 0)
(-0.0258015 0.0060132 0)
(-0.0286307 0.00648141 0)
(-0.0317241 0.00697796 0)
(-0.0350937 0.00747803 0)
(-0.0387632 0.0079358 0)
(-0.0427133 0.00830298 0)
(-0.0469216 0.0085177 0)
(-0.0513218 0.00851951 0)
(-0.0558361 0.00824446 0)
(-0.0603458 0.00763755 0)
(-0.0647197 0.00665139 0)
(-0.0687943 0.00525676 0)
(-0.0724008 0.00344285 0)
(-0.0753537 0.00122552 0)
(-0.0774771 -0.00135323 0)
(-0.0786001 -0.00422049 0)
(-0.0785813 -0.00727597 0)
(-0.077306 -0.0103917 0)
(-0.074708 -0.0134201 0)
(-0.0707656 -0.0161983 0)
(-0.0655196 -0.0185612 0)
(-0.0590662 -0.0203503 0)
(-0.0515711 -0.0214305 0)
(-0.0432547 -0.0217012 0)
(-0.0343999 -0.0211132 0)
(-0.0253232 -0.019676 0)
(-0.0163746 -0.017466 0)
(-0.00789107 -0.0146215 0)
(-0.000195038 -0.0113337 0)
(0.00646311 -0.0078256 0)
(0.0118905 -0.00432728 0)
(0.016006 -0.00104995 0)
(0.0187916 0.00183833 0)
(0.0203403 0.00422536 0)
(0.02077 0.00606264 0)
(0.0202806 0.0073573 0)
(0.0190382 0.00816429 0)
(0.0172657 0.00856421 0)
(0.0150968 0.0086522 0)
(0.0127256 0.00850746 0)
(0.0102174 0.00818902 0)
(0.00774402 0.00769236 0)
(0.00532176 0.00696525 0)
(0.00317248 0.00585151 0)
(0.00133513 0.00417299 0)
(0.000212034 0.0016857 0)
(-0.000128519 0.000687829 0)
(-0.000983807 0.00237509 0)
(-0.00245888 0.00373917 0)
(-0.00424951 0.00475562 0)
(-0.00630235 0.00538321 0)
(-0.00844915 0.00580356 0)
(-0.0107138 0.00606434 0)
(-0.0130163 0.00629115 0)
(-0.015407 0.00649738 0)
(-0.0178485 0.00674685 0)
(-0.0204017 0.00703813 0)
(-0.0230634 0.00741168 0)
(-0.0259107 0.00786874 0)
(-0.0289738 0.00843621 0)
(-0.0323437 0.00910785 0)
(-0.0360684 0.00988396 0)
(-0.0402311 0.0107319 0)
(-0.0448671 0.0116135 0)
(-0.0500208 0.0124619 0)
(-0.0556809 0.0132037 0)
(-0.0618253 0.0137466 0)
(-0.0683719 0.013998 0)
(-0.075215 0.0138602 0)
(-0.0821906 0.0132458 0)
(-0.0891098 0.012078 0)
(-0.0957388 0.0103042 0)
(-0.101834 0.00789882 0)
(-0.107134 0.00487382 0)
(-0.111395 0.00127911 0)
(-0.114384 -0.00279224 0)
(-0.115908 -0.00720878 0)
(-0.115811 -0.0118015 0)
(-0.113986 -0.0163735 0)
(-0.110379 -0.0207056 0)
(-0.104996 -0.0245703 0)
(-0.0979083 -0.0277418 0)
(-0.0892616 -0.0300152 0)
(-0.0792726 -0.0312212 0)
(-0.0682428 -0.0312489 0)
(-0.0565352 -0.0300598 0)
(-0.0445784 -0.0277046 0)
(-0.0328186 -0.0243242 0)
(-0.0217098 -0.0201461 0)
(-0.0116442 -0.0154598 0)
(-0.00294962 -0.0105873 0)
(0.0041795 -0.00584258 0)
(0.00964425 -0.00149521 0)
(0.0134918 0.00225633 0)
(0.015827 0.00529871 0)
(0.0168631 0.00760175 0)
(0.016797 0.00920542 0)
(0.0158958 0.0101989 0)
(0.0143407 0.0106952 0)
(0.0123774 0.0108039 0)
(0.0101154 0.0106041 0)
(0.00777125 0.0101128 0)
(0.00539229 0.00926431 0)
(0.0032365 0.00788311 0)
(0.00136535 0.00570075 0)
(0.000215593 0.00237698 0)
(-0.000175202 0.00123813 0)
(-0.00127051 0.00371459 0)
(-0.00311224 0.00558269 0)
(-0.00529804 0.00689941 0)
(-0.00777232 0.00769887 0)
(-0.0103301 0.00822408 0)
(-0.0130141 0.00855787 0)
(-0.015731 0.00885088 0)
(-0.0185522 0.00912966 0)
(-0.0214407 0.0094735 0)
(-0.024485 0.00989436 0)
(-0.0277006 0.0104507 0)
(-0.0312049 0.011159 0)
(-0.0350632 0.0120603 0)
(-0.0394141 0.0131546 0)
(-0.0443445 0.0144409 0)
(-0.0499777 0.0158741 0)
(-0.0563735 0.017394 0)
(-0.0635924 0.018902 0)
(-0.0716178 0.0202845 0)
(-0.080405 0.0214026 0)
(-0.0898239 0.0221127 0)
(-0.0997008 0.0222648 0)
(-0.109783 0.0217223 0)
(-0.119787 0.020368 0)
(-0.129381 0.0181225 0)
(-0.138242 0.0149505 0)
(-0.146046 0.0108721 0)
(-0.152512 0.0059608 0)
(-0.157387 0.000344464 0)
(-0.160467 -0.00580383 0)
(-0.161587 -0.0122692 0)
(-0.160628 -0.0188059 0)
(-0.157508 -0.0251415 0)
(-0.152197 -0.0309895 0)
(-0.144715 -0.0360566 0)
(-0.135155 -0.0400618 0)
(-0.123683 -0.0427516 0)
(-0.11057 -0.0439279 0)
(-0.0961778 -0.0434698 0)
(-0.0809792 -0.0413631 0)
(-0.065516 -0.0377142 0)
(-0.0503873 -0.0327592 0)
(-0.0361685 -0.0268446 0)
(-0.0233819 -0.0203953 0)
(-0.012402 -0.0138585 0)
(-0.00346514 -0.00764752 0)
(0.00339205 -0.0020904 0)
(0.00824538 0.00259711 0)
(0.0113208 0.00632057 0)
(0.0128567 0.00908746 0)
(0.0131762 0.0109873 0)
(0.0125226 0.0121481 0)
(0.0112031 0.0127124 0)
(0.00938406 0.0127838 0)
(0.0073329 0.0124075 0)
(0.00514024 0.0115103 0)
(0.00309958 0.00990223 0)
(0.00130343 0.00723165 0)
(0.00020086 0.00306829 0)
(-0.000224873 0.00194492 0)
(-0.00156679 0.00537315 0)
(-0.00377683 0.00781647 0)
(-0.00635464 0.00945508 0)
(-0.00924361 0.010429 0)
(-0.0122041 0.0110561 0)
(-0.0152999 0.0114637 0)
(-0.018428 0.0118307 0)
(-0.0216865 0.0122029 0)
(-0.0250473 0.0126812 0)
(-0.0286391 0.0133004 0)
(-0.0325096 0.0141452 0)
(-0.0368331 0.0152557 0)
(-0.041724 0.0166904 0)
(-0.04738 0.0184552 0)
(-0.0539314 0.0205413 0)
(-0.0615386 0.0228801 0)
(-0.0702723 0.0253731 0)
(-0.0801839 0.0278691 0)
(-0.0912126 0.0301897 0)
(-0.103241 0.032123 0)
(-0.116034 0.0334485 0)
(-0.129295 0.0339447 0)
(-0.142644 0.0334185 0)
(-0.155687 0.0317198 0)
(-0.16802 0.0287649 0)
(-0.179285 0.0245398 0)
(-0.189163 0.0191032 0)
(-0.197403 0.0125752 0)
(-0.203795 0.00512972 0)
(-0.208182 -0.0030188 0)
(-0.210427 -0.0116204 0)
(-0.210423 -0.0203983 0)
(-0.208071 -0.029049 0)
(-0.203292 -0.0372488 0)
(-0.19603 -0.0446549 0)
(-0.186276 -0.0509194 0)
(-0.174081 -0.0557006 0)
(-0.159603 -0.0586923 0)
(-0.143113 -0.0596517 0)
(-0.12504 -0.0584434 0)
(-0.105954 -0.0550723 0)
(-0.0865661 -0.0497179 0)
(-0.0676487 -0.0427359 0)
(-0.0499841 -0.0346379 0)
(-0.0342294 -0.0260264 0)
(-0.0208705 -0.0175126 0)
(-0.0101212 -0.00962381 0)
(-0.00198939 -0.00274359 0)
(0.00374553 0.00292085 0)
(0.00737335 0.0073156 0)
(0.00929267 0.0105178 0)
(0.00983333 0.0126681 0)
(0.00938315 0.0139457 0)
(0.00818445 0.0144862 0)
(0.00656566 0.0143705 0)
(0.00467419 0.0135283 0)
(0.00283957 0.0117615 0)
(0.00119246 0.00865164 0)
(0.0001793 0.00369813 0)
(-0.000275153 0.00280383 0)
(-0.00186422 0.00734177 0)
(-0.00443882 0.0104278 0)
(-0.00740118 0.0124084 0)
(-0.0106962 0.0135599 0)
(-0.0140517 0.0142885 0)
(-0.0175566 0.0147762 0)
(-0.0211025 0.0152351 0)
(-0.0248227 0.0157404 0)
(-0.028709 0.0164237 0)
(-0.0329451 0.0173555 0)
(-0.0376275 0.0186568 0)
(-0.0430019 0.020398 0)
(-0.0492421 0.0226547 0)
(-0.0566074 0.0254313 0)
(-0.0652621 0.0286947 0)
(-0.075381 0.0323299 0)
(-0.0870071 0.0361689 0)
(-0.100127 0.0399724 0)
(-0.114569 0.0434593 0)
(-0.130069 0.0463107 0)
(-0.146224 0.0482086 0)
(-0.162581 0.0488617 0)
(-0.178642 0.0480473 0)
(-0.193954 0.0456292 0)
(-0.208111 0.0415717 0)
(-0.220808 0.0359278 0)
(-0.231813 0.0288264 0)
(-0.240978 0.0204489 0)
(-0.248198 0.0110158 0)
(-0.253407 0.000769597 0)
(-0.256537 -0.0100272 0)
(-0.257518 -0.0210973 0)
(-0.256251 -0.0321411 0)
(-0.252616 -0.0428357 0)
(-0.246466 -0.0528258 0)
(-0.23766 -0.0617275 0)
(-0.226076 -0.0691305 0)
(-0.211671 -0.0746215 0)
(-0.194509 -0.0778109 0)
(-0.174837 -0.0783862 0)
(-0.153109 -0.0761649 0)
(-0.13002 -0.0711622 0)
(-0.106469 -0.0636345 0)
(-0.0835016 -0.0540986 0)
(-0.0621543 -0.0432863 0)
(-0.0433257 -0.0320492 0)
(-0.0275923 -0.0212103 0)
(-0.0151909 -0.011436 0)
(-0.00598425 -0.00314301 0)
(0.000357121 0.0034935 0)
(0.00433096 0.00851316 0)
(0.00639186 0.0120661 0)
(0.00704194 0.0143771 0)
(0.00662922 0.0156267 0)
(0.00556219 0.0159445 0)
(0.0040614 0.0152782 0)
(0.00249869 0.0134331 0)
(0.00104921 0.00994705 0)
(0.000152743 0.00426971 0)
(-0.000327969 0.00382678 0)
(-0.00216662 0.00963182 0)
(-0.00510226 0.0134231 0)
(-0.00844214 0.0157623 0)
(-0.0121354 0.0170939 0)
(-0.0158817 0.0179272 0)
(-0.0197995 0.0185097 0)
(-0.0237818 0.0190951 0)
(-0.0280077 0.0198005 0)
(-0.0325024 0.0208009 0)
(-0.0375204 0.0222173 0)
(-0.0432209 0.0242147 0)
(-0.0499312 0.026896 0)
(-0.0578835 0.0303442 0)
(-0.067384 0.0345419 0)
(-0.0785987 0.0394003 0)
(-0.0916656 0.0447171 0)
(-0.106529 0.0502069 0)
(-0.123028 0.0554936 0)
(-0.140794 0.0601525 0)
(-0.159356 0.0637402 0)
(-0.178123 0.0658572 0)
(-0.19652 0.0661926 0)
(-0.214 0.0645638 0)
(-0.230147 0.0609195 0)
(-0.244651 0.055329 0)
(-0.257344 0.0479497 0)
(-0.268149 0.0389986 0)
(-0.277078 0.0287199 0)
(-0.284172 0.0173677 0)
(-0.289491 0.00519124 0)
(-0.293067 -0.00756493 0)
(-0.294895 -0.0206592 0)
(-0.294903 -0.033839 0)
(-0.292959 -0.04683 0)
(-0.288847 -0.0593168 0)
(-0.282302 -0.0709333 0)
(-0.273015 -0.081251 0)
(-0.26069 -0.0897866 0)
(-0.24509 -0.0960179 0)
(-0.22613 -0.0994308 0)
(-0.203947 -0.0995835 0)
(-0.178997 -0.0962004 0)
(-0.152084 -0.0892688 0)
(-0.124367 -0.0791282 0)
(-0.0972281 -0.0664965 0)
(-0.072103 -0.0524158 0)
(-0.0501837 -0.0380771 0)
(-0.0322282 -0.0245948 0)
(-0.0184092 -0.0127811 0)
(-0.00846125 -0.00307176 0)
(-0.00179169 0.00446597 0)
(0.00222625 0.00997647 0)
(0.00426367 0.0137425 0)
(0.00482248 0.0160121 0)
(0.00442483 0.016986 0)
(0.00338806 0.0166526 0)
(0.00213934 0.0148379 0)
(0.000907009 0.0110631 0)
(0.000129337 0.00475552 0)
(-0.000380539 0.00500477 0)
(-0.00246519 0.0122255 0)
(-0.00575368 0.0167794 0)
(-0.00946092 0.0194927 0)
(-0.0135441 0.0210101 0)
(-0.0176793 0.0219583 0)
(-0.02202 0.0226639 0)
(-0.0264699 0.0234331 0)
(-0.0312653 0.0244408 0)
(-0.0364794 0.0259213 0)
(-0.0424515 0.0280588 0)
(-0.0494126 0.0310665 0)
(-0.0577687 0.0350712 0)
(-0.0677914 0.0401377 0)
(-0.0797944 0.0461884 0)
(-0.0938836 0.0530255 0)
(-0.110078 0.0602988 0)
(-0.128129 0.0675443 0)
(-0.147641 0.0742017 0)
(-0.167991 0.0796887 0)
(-0.188498 0.0834678 0)
(-0.208436 0.0851294 0)
(-0.227201 0.0844338 0)
(-0.244311 0.0813257 0)
(-0.259485 0.0759061 0)
(-0.272596 0.0683922 0)
(-0.283678 0.0590657 0)
(-0.292849 0.0482322 0)
(-0.300303 0.0361861 0)
(-0.306236 0.023195 0)
(-0.310841 0.0094887 0)
(-0.314249 -0.00473379 0)
(-0.31654 -0.0192976 0)
(-0.317694 -0.0340323 0)
(-0.317608 -0.0487543 0)
(-0.316056 -0.0632406 0)
(-0.312714 -0.0772063 0)
(-0.307144 -0.090279 0)
(-0.298837 -0.101984 0)
(-0.287248 -0.111737 0)
(-0.271887 -0.118871 0)
(-0.252413 -0.122679 0)
(-0.228786 -0.122519 0)
(-0.201385 -0.117943 0)
(-0.171122 -0.10886 0)
(-0.139439 -0.0956804 0)
(-0.108189 -0.0793902 0)
(-0.0793171 -0.0614529 0)
(-0.0544646 -0.0435462 0)
(-0.034559 -0.0271511 0)
(-0.0197271 -0.0132535 0)
(-0.00941223 -0.00221701 0)
(-0.00279753 0.00602645 0)
(0.00102936 0.0118239 0)
(0.0027996 0.0155252 0)
(0.00320692 0.0174411 0)
(0.00270325 0.017637 0)
(0.00179665 0.0159872 0)
(0.000781385 0.0120268 0)
(0.000111174 0.00518297 0)
(-0.00043444 0.00634953 0)
(-0.00276225 0.0151343 0)
(-0.00639477 0.0205061 0)
(-0.0104598 0.0236101 0)
(-0.0149261 0.0253239 0)
(-0.0194524 0.0264085 0)
(-0.0242334 0.0272842 0)
(-0.0291937 0.0283245 0)
(-0.0346385 0.0297808 0)
(-0.0407023 0.0319614 0)
(-0.0478167 0.0351226 0)
(-0.0562818 0.039517 0)
(-0.0665612 0.0452691 0)
(-0.0789227 0.052379 0)
(-0.0936197 0.0606461 0)
(-0.11061 0.0696904 0)
(-0.129695 0.0789424 0)
(-0.150348 0.0877067 0)
(-0.171888 0.0952288 0)
(-0.193451 0.100812 0)
(-0.214221 0.103916 0)
(-0.233454 0.104232 0)
(-0.250647 0.101696 0)
(-0.265496 0.0964586 0)
(-0.277955 0.0888193 0)
(-0.288132 0.0791588 0)
(-0.296288 0.0678747 0)
(-0.302733 0.055338 0)
(-0.307814 0.0418631 0)
(-0.311842 0.0277002 0)
(-0.315098 0.0130346 0)
(-0.317781 -0.00200104 0)
(-0.320032 -0.0173135 0)
(-0.321891 -0.0328283 0)
(-0.323314 -0.0484706 0)
(-0.324134 -0.0641384 0)
(-0.324067 -0.0796754 0)
(-0.322676 -0.0948359 0)
(-0.319384 -0.10925 0)
(-0.313464 -0.122394 0)
(-0.304105 -0.133565 0)
(-0.290487 -0.141905 0)
(-0.271938 -0.146446 0)
(-0.248119 -0.146249 0)
(-0.219252 -0.140591 0)
(-0.186295 -0.129223 0)
(-0.151025 -0.112618 0)
(-0.11586 -0.0921009 0)
(-0.0834467 -0.0697356 0)
(-0.0559707 -0.0478535 0)
(-0.0345933 -0.0284276 0)
(-0.0192433 -0.012547 0)
(-0.00905144 -0.000457715 0)
(-0.00281582 0.0081999 0)
(0.000525788 0.0139132 0)
(0.00192993 0.0171657 0)
(0.00204578 0.0181549 0)
(0.00150587 0.0168483 0)
(0.000692819 0.0128303 0)
(0.000103554 0.00555296 0)
(-0.000486163 0.00784402 0)
(-0.00304694 0.0183279 0)
(-0.0070089 0.0245681 0)
(-0.011418 0.0280799 0)
(-0.0162587 0.0300069 0)
(-0.0211785 0.0312612 0)
(-0.0264203 0.0323747 0)
(-0.0319397 0.0338045 0)
(-0.0381216 0.0358981 0)
(-0.0451699 0.0390493 0)
(-0.0536062 0.0435842 0)
(-0.0637795 0.0497691 0)
(-0.0761672 0.0576771 0)
(-0.0909642 0.0671725 0)
(-0.108274 0.0778485 0)
(-0.12781 0.0890605 0)
(-0.149073 0.0999608 0)
(-0.17122 0.109611 0)
(-0.193312 0.117116 0)
(-0.214343 0.121772 0)
(-0.233502 0.123168 0)
(-0.250179 0.121223 0)
(-0.264108 0.116139 0)
(-0.275264 0.108317 0)
(-0.283885 0.0982633 0)
(-0.290324 0.0864971 0)
(-0.295034 0.0734886 0)
(-0.298451 0.0596245 0)
(-0.300999 0.0451938 0)
(-0.303016 0.0303948 0)
(-0.304791 0.0153472 0)
(-0.306522 0.000112055 0)
(-0.308357 -0.0152924 0)
(-0.310365 -0.0308718 0)
(-0.312565 -0.0466417 0)
(-0.314884 -0.0626085 0)
(-0.317164 -0.0787473 0)
(-0.319106 -0.094971 0)
(-0.320253 -0.111087 0)
(-0.319934 -0.126748 0)
(-0.317271 -0.141391 0)
(-0.311181 -0.154201 0)
(-0.30049 -0.164089 0)
(-0.284095 -0.169764 0)
(-0.261249 -0.169874 0)
(-0.231883 -0.163301 0)
(-0.196937 -0.149534 0)
(-0.158519 -0.129087 0)
(-0.119761 -0.103749 0)
(-0.0841696 -0.0764003 0)
(-0.0546248 -0.0502899 0)
(-0.0324348 -0.0279109 0)
(-0.0172313 -0.0104178 0)
(-0.00763617 0.00230683 0)
(-0.00216142 0.0108747 0)
(0.000538363 0.0160242 0)
(0.00140727 0.0181696 0)
(0.00127396 0.0174424 0)
(0.000646625 0.0135217 0)
(0.000107376 0.00590701 0)
(-0.000537162 0.00949894 0)
(-0.00332037 0.0218176 0)
(-0.00759504 0.0289774 0)
(-0.0123337 0.0329194 0)
(-0.0175399 0.0350864 0)
(-0.0228571 0.0365605 0)
(-0.028582 0.0380047 0)
(-0.0347109 0.0399781 0)
(-0.0417141 0.0429414 0)
(-0.0498642 0.0473758 0)
(-0.0597547 0.0536576 0)
(-0.0717444 0.0620169 0)
(-0.0862585 0.0724004 0)
(-0.103335 0.0844443 0)
(-0.122836 0.0974455 0)
(-0.144154 0.110429 0)
(-0.166465 0.122257 0)
(-0.188646 0.131806 0)
(-0.209618 0.138163 0)
(-0.228393 0.140772 0)
(-0.244337 0.139501 0)
(-0.257129 0.134596 0)
(-0.266839 0.126572 0)
(-0.273764 0.116081 0)
(-0.278409 0.103786 0)
(-0.281311 0.0902757 0)
(-0.283026 0.0760204 0)
(-0.284012 0.0613556 0)
(-0.284663 0.046495 0)
(-0.285252 0.0315545 0)
(-0.28599 0.016578 0)
(-0.287003 0.00156212 0)
(-0.288388 -0.0135262 0)
(-0.290195 -0.0287374 0)
(-0.292471 -0.0441321 0)
(-0.295221 -0.0597755 0)
(-0.298428 -0.0757279 0)
(-0.301992 -0.0920298 0)
(-0.305703 -0.108667 0)
(-0.30916 -0.125526 0)
(-0.311713 -0.142309 0)
(-0.312393 -0.15846 0)
(-0.30991 -0.173059 0)
(-0.302721 -0.184787 0)
(-0.289237 -0.191952 0)
(-0.268176 -0.192685 0)
(-0.239047 -0.185317 0)
(-0.20267 -0.168958 0)
(-0.161508 -0.14416 0)
(-0.119534 -0.11334 0)
(-0.0813276 -0.0805541 0)
(-0.0505138 -0.0501844 0)
(-0.02841 -0.0253109 0)
(-0.0140606 -0.0067999 0)
(-0.0055845 0.00586106 0)
(-0.00111155 0.0137309 0)
(0.000735541 0.0175535 0)
(0.00108888 0.0177335 0)
(0.000643834 0.0141096 0)
(0.000124486 0.00626105 0)
(-0.000582829 0.0112856 0)
(-0.00356822 0.0255557 0)
(-0.00813081 0.0336819 0)
(-0.0131776 0.0380785 0)
(-0.0187346 0.0405201 0)
(-0.0244473 0.0422774 0)
(-0.030671 0.0441653 0)
(-0.037449 0.0468619 0)
(-0.0453363 0.0509514 0)
(-0.0546626 0.0569901 0)
(-0.0660593 0.0653633 0)
(-0.079837 0.076191 0)
(-0.0962908 0.0891998 0)
(-0.115218 0.1037 0)
(-0.136173 0.118621 0)
(-0.158208 0.132635 0)
(-0.18022 0.144371 0)
(-0.200933 0.152653 0)
(-0.219301 0.156721 0)
(-0.234538 0.156336 0)
(-0.246346 0.151761 0)
(-0.254786 0.14362 0)
(-0.260288 0.132726 0)
(-0.263433 0.119907 0)
(-0.264904 0.105895 0)
(-0.265308 0.0912519 0)
(-0.265184 0.076362 0)
(-0.264906 0.0614497 0)
(-0.264748 0.0466168 0)
(-0.264851 0.0318831 0)
(-0.265301 0.0172217 0)
(-0.266113 0.00258379 0)
(-0.267305 -0.0120857 0)
(-0.268877 -0.0268433 0)
(-0.270861 -0.041747 0)
(-0.273299 -0.0568638 0)
(-0.276261 -0.0722713 0)
(-0.279804 -0.0880645 0)
(-0.283959 -0.104338 0)
(-0.288649 -0.121167 0)
(-0.293619 -0.138534 0)
(-0.298311 -0.156247 0)
(-0.301769 -0.173788 0)
(-0.302559 -0.190187 0)
(-0.298805 -0.203881 0)
(-0.288397 -0.212736 0)
(-0.269431 -0.214229 0)
(-0.240876 -0.205988 0)
(-0.203347 -0.186619 0)
(-0.159707 -0.156742 0)
(-0.11495 -0.119722 0)
(-0.0749296 -0.0811919 0)
(-0.0439681 -0.0470023 0)
(-0.0230053 -0.020446 0)
(-0.0102668 -0.00191543 0)
(-0.00328753 0.00988021 0)
(-9.26097e-05 0.0161364 0)
(0.00090086 0.0176861 0)
(0.000668632 0.0146228 0)
(0.000152705 0.00665364 0)
(-0.000624654 0.0132121 0)
(-0.00379069 0.0295509 0)
(-0.00861236 0.0386942 0)
(-0.013943 0.0435779 0)
(-0.0198322 0.0463405 0)
(-0.0259341 0.0484611 0)
(-0.0326633 0.0509275 0)
(-0.0401124 0.0545498 0)
(-0.0489102 0.0600353 0)
(-0.0594186 0.0679837 0)
(-0.0722575 0.0787237 0)
(-0.0876239 0.0921707 0)
(-0.105609 0.10773 0)
(-0.125713 0.124306 0)
(-0.147167 0.140428 0)
(-0.168733 0.154471 0)
(-0.189149 0.164957 0)
(-0.20716 0.170842 0)
(-0.221941 0.171707 0)
(-0.233061 0.167763 0)
(-0.240642 0.159723 0)
(-0.245131 0.148561 0)
(-0.247258 0.135301 0)
(-0.247769 0.120837 0)
(-0.247396 0.105848 0)
(-0.246691 0.0907729 0)
(-0.246067 0.0758457 0)
(-0.245742 0.0611424 0)
(-0.245828 0.0466433 0)
(-0.246313 0.0322807 0)
(-0.247156 0.0179766 0)
(-0.248271 0.003662 0)
(-0.249601 -0.0107123 0)
(-0.251092 -0.0251806 0)
(-0.25275 -0.0397658 0)
(-0.254609 -0.0544978 0)
(-0.256768 -0.0694198 0)
(-0.259359 -0.0846126 0)
(-0.262553 -0.10019 0)
(-0.266504 -0.116314 0)
(-0.271304 -0.133145 0)
(-0.276863 -0.150803 0)
(-0.282779 -0.169216 0)
(-0.288165 -0.187973 0)
(-0.291511 -0.20606 0)
(-0.290657 -0.221694 0)
(-0.282974 -0.232214 0)
(-0.265897 -0.234335 0)
(-0.237774 -0.224801 0)
(-0.19902 -0.201623 0)
(-0.152989 -0.165654 0)
(-0.105987 -0.121647 0)
(-0.0652863 -0.0775121 0)
(-0.0356187 -0.0404574 0)
(-0.0169235 -0.0136454 0)
(-0.00638676 0.00380162 0)
(-0.00127146 0.0135864 0)
(0.000625894 0.0171683 0)
(0.000693999 0.0150315 0)
(0.000189101 0.00709267 0)
(-0.00065675 0.0152342 0)
(-0.00396947 0.0337323 0)
(-0.00901063 0.0439376 0)
(-0.0145904 0.0493431 0)
(-0.0207823 0.0524788 0)
(-0.027253 0.0550509 0)
(-0.0344742 0.0582376 0)
(-0.0425835 0.0629866 0)
(-0.052264 0.0701124 0)
(-0.0638744 0.0802066 0)
(-0.0779677 0.0934586 0)
(-0.094565 0.10948 0)
(-0.113503 0.127269 0)
(-0.13397 0.145283 0)
(-0.154917 0.161687 0)
(-0.174929 0.17467 0)
(-0.192749 0.182836 0)
(-0.207321 0.185464 0)
(-0.218183 0.182629 0)
(-0.225335 0.175057 0)
(-0.229311 0.163881 0)
(-0.230861 0.150329 0)
(-0.230881 0.135501 0)
(-0.230146 0.120223 0)
(-0.229304 0.105018 0)
(-0.228751 0.0901321 0)
(-0.22872 0.0756155 0)
(-0.229245 0.061395 0)
(-0.230281 0.0473472 0)
(-0.231689 0.033344 0)
(-0.233333 0.0192858 0)
(-0.235058 0.00510871 0)
(-0.236757 -0.0092098 0)
(-0.238342 -0.0236653 0)
(-0.239789 -0.0382305 0)
(-0.241113 -0.0528815 0)
(-0.242402 -0.0676023 0)
(-0.243794 -0.0824205 0)
(-0.245503 -0.097407 0)
(-0.247786 -0.112717 0)
(-0.250929 -0.128564 0)
(-0.255172 -0.145235 0)
(-0.260604 -0.162979 0)
(-0.266983 -0.181903 0)
(-0.273516 -0.20169 0)
(-0.278651 -0.221328 0)
(-0.279957 -0.238744 0)
(-0.274316 -0.25069 0)
(-0.258471 -0.252936 0)
(-0.230202 -0.241199 0)
(-0.18977 -0.212899 0)
(-0.141356 -0.169441 0)
(-0.0928717 -0.117886 0)
(-0.0531193 -0.0689028 0)
(-0.0264031 -0.0308991 0)
(-0.0109191 -0.00542836 0)
(-0.00306617 0.00942473 0)
(0.000143722 0.0159805 0)
(0.00067786 0.0152833 0)
(0.000227271 0.00758809 0)
(-0.000681047 0.0173558 0)
(-0.00410498 0.0381045 0)
(-0.00932047 0.0494229 0)
(-0.0151093 0.0553937 0)
(-0.0215665 0.058964 0)
(-0.028374 0.0620844 0)
(-0.0360527 0.0661378 0)
(-0.0447746 0.0722052 0)
(-0.0552477 0.0811767 0)
(-0.0677868 0.093567 0)
(-0.0828249 0.109333 0)
(-0.100165 0.127692 0)
(-0.119376 0.147179 0)
(-0.139371 0.165818 0)
(-0.158916 0.181508 0)
(-0.176563 0.192422 0)
(-0.191221 0.197442 0)
(-0.202169 0.196342 0)
(-0.209374 0.189769 0)
(-0.213253 0.178945 0)
(-0.21466 0.165323 0)
(-0.214511 0.150237 0)
(-0.213726 0.134721 0)
(-0.212974 0.119415 0)
(-0.212732 0.104613 0)
(-0.213194 0.0903428 0)
(-0.214401 0.0764774 0)
(-0.21623 0.062821 0)
(-0.218515 0.0491827 0)
(-0.221034 0.0354086 0)
(-0.223602 0.0214055 0)
(-0.226033 0.00713444 0)
(-0.228199 -0.00738866 0)
(-0.229998 -0.0221159 0)
(-0.23139 -0.0369689 0)
(-0.232365 -0.0518703 0)
(-0.232984 -0.0667409 0)
(-0.233355 -0.0815432 0)
(-0.233668 -0.0962746 0)
(-0.234179 -0.111028 0)
(-0.235232 -0.125975 0)
(-0.237218 -0.141432 0)
(-0.240525 -0.157786 0)
(-0.245407 -0.175486 0)
(-0.251774 -0.194789 0)
(-0.258922 -0.21553 0)
(-0.265212 -0.236609 0)
(-0.267951 -0.255616 0)
(-0.263464 -0.26851 0)
(-0.247893 -0.269938 0)
(-0.218474 -0.254465 0)
(-0.175695 -0.219054 0)
(-0.12493 -0.166538 0)
(-0.0762891 -0.107347 0)
(-0.0396249 -0.055662 0)
(-0.0174415 -0.0190687 0)
(-0.0057873 0.00294352 0)
(-0.000686151 0.0137809 0)
(0.000571524 0.0152451 0)
(0.00026064 0.00811265 0)
(-0.00069058 0.019514 0)
(-0.00417594 0.0425676 0)
(-0.00950809 0.055042 0)
(-0.0154532 0.0616207 0)
(-0.0221236 0.0656864 0)
(-0.0292157 0.0694465 0)
(-0.0372871 0.0744949 0)
(-0.0465282 0.0820298 0)
(-0.0576392 0.0929704 0)
(-0.0708518 0.107678 0)
(-0.0864409 0.125791 0)
(-0.103978 0.146069 0)
(-0.122785 0.166581 0)
(-0.141582 0.184983 0)
(-0.159068 0.19905 0)
(-0.173905 0.207127 0)
(-0.185291 0.208549 0)
(-0.192904 0.203684 0)
(-0.197129 0.193754 0)
(-0.19871 0.180382 0)
(-0.198685 0.165191 0)
(-0.197994 0.149469 0)
(-0.197451 0.134056 0)
(-0.197542 0.119332 0)
(-0.198532 0.105337 0)
(-0.200416 0.0918905 0)
(-0.203076 0.0787239 0)
(-0.206274 0.0655629 0)
(-0.209775 0.0521902 0)
(-0.213324 0.0384587 0)
(-0.216723 0.0243041 0)
(-0.219788 0.00972409 0)
(-0.222398 -0.00522313 0)
(-0.224452 -0.0204492 0)
(-0.225905 -0.0358317 0)
(-0.226733 -0.05125 0)
(-0.22697 -0.0665723 0)
(-0.226677 -0.0817036 0)
(-0.225994 -0.0965656 0)
(-0.225118 -0.11117 0)
(-0.224348 -0.125594 0)
(-0.224082 -0.140085 0)
(-0.224808 -0.155011 0)
(-0.227054 -0.170951 0)
(-0.231225 -0.188507 0)
(-0.237385 -0.208189 0)
(-0.244849 -0.229891 0)
(-0.251878 -0.252413 0)
(-0.255347 -0.272755 0)
(-0.251068 -0.285847 0)
(-0.234491 -0.284938 0)
(-0.202702 -0.263357 0)
(-0.15676 -0.218258 0)
(-0.104182 -0.155138 0)
(-0.0574902 -0.0898842 0)
(-0.0264794 -0.0387252 0)
(-0.00975864 -0.0067463 0)
(-0.00201277 0.0101117 0)
(0.000326344 0.0147342 0)
(0.000280679 0.00862834 0)
(-0.000688478 0.0217092 0)
(-0.00418539 0.047123 0)
(-0.00957087 0.0608037 0)
(-0.015613 0.0680408 0)
(-0.0224338 0.0726656 0)
(-0.0297423 0.0771519 0)
(-0.0381149 0.0833041 0)
(-0.047741 0.0924119 0)
(-0.0592791 0.105369 0)
(-0.0728488 0.122305 0)
(-0.0885486 0.142474 0)
(-0.105736 0.164146 0)
(-0.123547 0.184962 0)
(-0.140602 0.20232 0)
(-0.155658 0.214038 0)
(-0.167595 0.218807 0)