/*--------------------------------*- C++ -*----------------------------------*\
| =========                 |                                                 |
| \\      /  F ield         | OpenFOAM: The Open Source CFD Toolbox           |
|  \\    /   O peration     | Version:  2406                                  |
|   \\  /    A nd           | Website:  www.openfoam.com                      |
|    \\/     M anipulation  |                                                 |
\*---------------------------------------------------------------------------*/
FoamFile
{
    version     2.0;
    format      ascii;
    arch        "LSB;label=32;scalar=64";
    class       volScalarField;
    location    "17.6";
    object      p;
}
// * * * * * * * * * * * * * * * * * * * * * * * * * * * * * * * * * * * * * //

dimensions      [0 2 -2 0 0 0 0];

internalField   nonuniform List<scalar> 
900
(
-5.74713e-09
-2.61776e-05
-8.01871e-05
-0.000161
-0.000267174
-0.000397803
-0.000550982
-0.000723273
-0.000908147
-0.00109228
-0.00124881
-0.00133129
-0.0012807
-0.00104074
-0.000568103
0.000164398
0.00114457
0.00227843
0.00335775
0.00407929
0.00416086
0.00350998
0.00233598
0.00105176
1.75581e-05
-0.000641029
-0.000995777
-0.00116369
-0.00122184
-0.00122922
2.7391e-05
5.72711e-07
-5.16774e-05
-0.000128418
-0.000229999
-0.00035485
-0.000500871
-0.00066526
-0.000844665
-0.00103561
-0.00123196
-0.00140973
-0.00150664
-0.00143289
-0.0011047
-0.000469382
0.00047711
0.00163888
0.0027857
0.00359552
0.00375702
0.00314357
0.00193861
0.000597701
-0.000414337
-0.00095529
-0.00116728
-0.00123463
-0.0012426
-0.00123782
7.86285e-05
4.93523e-05
-3.23698e-06
-7.64902e-05
-0.000175103
-0.000299435
-0.000452233
-0.000642478
-0.000887887
-0.00120925
-0.00161238
-0.00206204
-0.00247191
-0.00272389
-0.00269431
-0.00229188
-0.00150653
-0.000424076
0.000769198
0.0017816
0.0022846
0.0020633
0.00117758
1.10869e-05
-0.000925562
-0.0013804
-0.00147536
-0.00143631
-0.00138168
-0.00135881
0.000142009
0.000112608
5.7564e-05
-1.75406e-05
-0.000125186
-0.000274697
-0.000488301
-0.000807967
-0.00129282
-0.00198811
-0.0028805
-0.00387929
-0.00483376
-0.00557827
-0.00596769
-0.00590708
-0.00538661
-0.00446458
-0.00325295
-0.00195215
-0.0008439
-0.00021511
-0.000215247
-0.000712712
-0.00132226
-0.00170845
-0.00179087
-0.00171622
-0.00163065
-0.0015942
0.000187607
0.000160084
0.000100157
1.3607e-05
-0.000125941
-0.000350862
-0.000728531
-0.00136034
-0.00234306
-0.00369661
-0.00531574
-0.00699931
-0.00853046
-0.00973392
-0.0105024
-0.0107936
-0.0105966
-0.0099232
-0.00882164
-0.00738514
-0.00577451
-0.0042193
-0.00296349
-0.00217844
-0.00187886
-0.00187714
-0.00194791
-0.0019393
-0.00188866
-0.00187423
0.000174384
0.000148547
7.75385e-05
-3.83137e-05
-0.000250851
-0.000639981
-0.00134692
-0.00253131
-0.00425903
-0.00641395
-0.00873586
-0.0109332
-0.0127815
-0.0141635
-0.0150604
-0.0154999
-0.0154977
-0.0150646
-0.0142216
-0.0129822
-0.011359
-0.00938957
-0.00718953
-0.00502684
-0.00329075
-0.00229215
-0.00200014
-0.00212318
-0.00213549
-0.00217397
5.19191e-05
2.44878e-05
-6.98817e-05
-0.000244381
-0.000593917
-0.00127244
-0.00249796
-0.00441979
-0.00695284
-0.00977209
-0.0124897
-0.0148272
-0.0166593
-0.0179708
-0.0188025
-0.019209
-0.0192413
-0.0189454
-0.0183421
-0.0174165
-0.0161095
-0.0143276
-0.0119824
-0.00910407
-0.00606121
-0.00360651
-0.00237656
-0.00227211
-0.00246408
-0.00251169
-0.000230305
-0.000266851
-0.000403302
-0.000676554
-0.00124214
-0.00233588
-0.00420777
-0.00688409
-0.0100472
-0.0132047
-0.0159788
-0.0182103
-0.019899
-0.021103
-0.0218746
-0.0222513
-0.0222774
-0.0220008
-0.0214614
-0.0206755
-0.0196148
-0.0181835
-0.0161944
-0.0134234
-0.00988137
-0.00618956
-0.00349385
-0.0024448
-0.00301306
-0.00293627
-0.000711836
-0.000768733
-0.000969904
-0.00138453
-0.00223645
-0.00382201
-0.00634561
-0.00962862
-0.0131401
-0.0163532
-0.019023
-0.0211441
-0.0227961
-0.0240349
-0.0248697
-0.0252922
-0.0253119
-0.0249694
-0.0243292
-0.0234567
-0.0223899
-0.0211026
-0.0194483
-0.0171298
-0.013836
-0.00968892
-0.0057433
-0.00352312
-0.00341883
-0.00358152
-0.00140832
-0.00149778
-0.00178437
-0.0023729
-0.00354708
-0.00562346
-0.00869275
-0.0123674
-0.0159956
-0.0191446
-0.0217458
-0.0239055
-0.0257097
-0.027156
-0.028179
-0.0287106
-0.0287266
-0.0282607
-0.0273988
-0.0262566
-0.0249478
-0.0235391
-0.0219713
-0.0199947
-0.0172353
-0.0134151
-0.00895769
-0.00510093
-0.00329082
-0.00471088
-0.0023039
-0.00243673
-0.00282083
-0.00359381
-0.00507892
-0.00757562
-0.011037
-0.0149173
-0.0185504
-0.0216594
-0.0243314
-0.0267172
-0.0288529
-0.0306475
-0.0319519
-0.0326387
-0.0326519
-0.0320226
-0.0308584
-0.0293207
-0.027593
-0.0258326
-0.0240827
-0.0221947
-0.0199037
-0.0167382
-0.0122702
-0.0071031
-0.00465843
-0.00605241
-0.00334988
-0.00353261
-0.00401343
-0.00495697
-0.00670235
-0.00951146
-0.0132207
-0.0171931
-0.0208208
-0.0239819
-0.026873
-0.0296347
-0.0322207
-0.0344408
-0.0360677
-0.0369239
-0.0369294
-0.0361177
-0.0346194
-0.0326355
-0.0304012
-0.0281406
-0.0260071
-0.0239714
-0.0219194
-0.0192921
-0.0151878
-0.00976427
-0.00712334
-0.00651619
-0.00447576
-0.00470759
-0.00527192
-0.00635231
-0.00828348
-0.0112909
-0.0151389
-0.0191564
-0.0228174
-0.0261223
-0.0293311
-0.0325414
-0.0356158
-0.0382736
-0.0402218
-0.04124
-0.0412301
-0.0402321
-0.038402
-0.0359767
-0.0332308
-0.0304249
-0.0278162
-0.0254769
-0.023415
-0.0210811
-0.0175466
-0.012466
-0.00882936
-0.00564408
-0.00560202
-0.0058733
-0.00649779
-0.00767102
-0.00970645
-0.0128085
-0.0167192
-0.0207709
-0.0245059
-0.0280053
-0.0315576
-0.0352092
-0.0387416
-0.041803
-0.0440467
-0.0452128
-0.0451824
-0.0440035
-0.0418647
-0.0390358
-0.0358296
-0.0325174
-0.0294357
-0.0267216
-0.024489
-0.0222778
-0.0193538
-0.0148091
-0.010079
-0.00495791
-0.00665645
-0.00694901
-0.00760404
-0.00882279
-0.0108821
-0.0139881
-0.0179027
-0.0219811
-0.0258091
-0.029502
-0.0333542
-0.0373712
-0.0412774
-0.0446708
-0.0471616
-0.0484543
-0.0484062
-0.0470671
-0.0446619
-0.0414919
-0.0379155
-0.0341936
-0.0307139
-0.0276376
-0.0251795
-0.0229944
-0.0205978
-0.0166491
-0.0116853
-0.00577703
-0.00758289
-0.00787268
-0.00852561
-0.0097404
-0.0117541
-0.0147845
-0.018636
-0.0227159
-0.0266297
-0.0304726
-0.0345259
-0.038779
-0.0429313
-0.046552
-0.0492191
-0.0506063
-0.0505527
-0.0490936
-0.0464938
-0.0430695
-0.0392444
-0.0352303
-0.0314782
-0.0281154
-0.0254796
-0.0232728
-0.0212906
-0.0179434
-0.0135911
-0.00781565
-0.00834508
-0.00861109
-0.00922873
-0.0103834
-0.0122961
-0.0151745
-0.0188755
-0.0229109
-0.0268801
-0.0308061
-0.0349314
-0.0392582
-0.0434977
-0.0472113
-0.0499624
-0.0513964
-0.0513499
-0.0498266
-0.0471383
-0.0435764
-0.0396498
-0.0354613
-0.0316075
-0.0280139
-0.0253523
-0.0230712
-0.0214489
-0.018646
-0.0153499
-0.0101223
-0.00892959
-0.00915158
-0.00970304
-0.0107555
-0.0124921
-0.0151321
-0.0186151
-0.0225429
-0.0265031
-0.0304346
-0.0345056
-0.0387426
-0.0428989
-0.046556
-0.0492813
-0.0507105
-0.0506761
-0.0491715
-0.0465016
-0.0429549
-0.0390533
-0.0348273
-0.0310345
-0.0272523
-0.0247588
-0.0223342
-0.0211235
-0.0187083
-0.0165602
-0.0119603
-0.00934157
-0.00950436
-0.00996156
-0.0108729
-0.0123733
-0.0146897
-0.0178668
-0.0216032
-0.0254851
-0.0293495
-0.0332709
-0.0372887
-0.0412143
-0.0446752
-0.0472728
-0.0486429
-0.0486318
-0.047215
-0.0446719
-0.0412783
-0.0374934
-0.0334015
-0.0296694
-0.0259331
-0.0236139
-0.021065
-0.0203505
-0.0181059
-0.0171087
-0.0131061
-0.00959507
-0.00969109
-0.0100318
-0.010767
-0.0119919
-0.0139208
-0.0166887
-0.0201205
-0.0238419
-0.0275887
-0.0313207
-0.0350522
-0.0386554
-0.0418215
-0.0442131
-0.0454847
-0.0455022
-0.0442238
-0.0418926
-0.0387318
-0.0351524
-0.031264
-0.0276471
-0.024105
-0.0219332
-0.0193959
-0.019146
-0.0168065
-0.0170082
-0.0135061
-0.00971541
-0.00974743
-0.00995836
-0.0104841
-0.0114038
-0.012906
-0.0151782
-0.0181831
-0.0216369
-0.0252196
-0.0287706
-0.032228
-0.0355012
-0.0383448
-0.0404989
-0.0416561
-0.0417031
-0.040584
-0.0384938
-0.0355906
-0.0322517
-0.0285803
-0.0251538
-0.0218481
-0.0198615
-0.0174125
-0.0175854
-0.0149105
-0.0162709
-0.012722
-0.00972804
-0.00970338
-0.00977867
-0.0100727
-0.0106668
-0.0117289
-0.0134604
-0.0159368
-0.0189992
-0.0223443
-0.0257241
-0.0289715
-0.0319856
-0.034559
-0.036504
-0.0375607
-0.0376387
-0.0366608
-0.0347913
-0.0321246
-0.0290186
-0.0255695
-0.0223895
-0.0193314
-0.0175957
-0.0152269
-0.0157897
-0.0126942
-0.0149306
-0.0103639
-0.00966703
-0.00959805
-0.00953171
-0.00957098
-0.00982936
-0.010465
-0.0116651
-0.0135633
-0.016129
-0.0191336
-0.0223096
-0.0253966
-0.0282469
-0.0306507
-0.0324622
-0.0334599
-0.0335743
-0.0327121
-0.031024
-0.0285642
-0.025686
-0.0224776
-0.0195843
-0.0167706
-0.0153333
-0.0129675
-0.0139896
-0.0103772
-0.0133522
-0.00757862
-0.00955283
-0.00943837
-0.00923148
-0.00900588
-0.00893041
-0.00917881
-0.00990433
-0.0112508
-0.0132788
-0.0158489
-0.0187405
-0.0216531
-0.0243879
-0.0267026
-0.0284574
-0.0294474
-0.0296219
-0.0288823
-0.0273713
-0.0251248
-0.0225053
-0.019576
-0.0169992
-0.0144029
-0.0132644
-0.010761
-0.0123647
-0.00799317
-0.0122352
-0.00652051
-0.00944706
-0.00925406
-0.00889873
-0.00836729
-0.00799283
-0.00791023
-0.00825438
-0.00915214
-0.0106962
-0.0128086
-0.0153499
-0.018034
-0.02064
-0.0228919
-0.0246381
-0.0256688
-0.0259469
-0.0253684
-0.024074
-0.0220852
-0.0197723
-0.0171514
-0.0148914
-0.0124514
-0.0115441
-0.00875132
-0.010915
-0.00539328
-0.0116898
-0.00479953
-0.00934664
-0.0090139
-0.00852843
-0.00766359
-0.00704685
-0.00667996
-0.00675509
-0.00734952
-0.0085365
-0.0102689
-0.0124769
-0.0149111
-0.0173661
-0.0195512
-0.0213076
-0.0224097
-0.0228255
-0.0224404
-0.0214142
-0.0197206
-0.0177425
-0.0154126
-0.0134409
-0.0110792
-0.0102842
-0.00716111
-0.00945241
-0.00251738
-0.00982472
0.00592633
-0.0096536
-0.0087945
-0.00814508
-0.00684916
-0.00611532
-0.00550055
-0.00544292
-0.00586241
-0.0068434
-0.00833139
-0.0103097
-0.0125395
-0.0148725
-0.016997
-0.0187854
-0.0199669
-0.0205495
-0.0203625
-0.0196095
-0.0181769
-0.0165248
-0.014412
-0.0126735
-0.0103195
-0.00948217
-0.00611802
-0.0077399
0.000493635
-0.00365345
0.0251169
-0.0103916
-0.00862946
-0.00781235
-0.00607656
-0.00520495
-0.00441741
-0.0043282
-0.00465678
-0.00556067
-0.00693141
-0.00880725
-0.0109126
-0.0131967
-0.0152829
-0.0171311
-0.0183844
-0.0191333
-0.0191013
-0.0185817
-0.0173501
-0.0159406
-0.0139764
-0.0123717
-0.00998353
-0.00893915
-0.00524364
-0.00525114
0.00471735
0.00826539
0.0380436
-0.0155893
-0.00812437
-0.00745188
-0.00512121
-0.00439822
-0.00349282
-0.00343883
-0.00372437
-0.00463618
-0.00595503
-0.00782944
-0.00986439
-0.0121734
-0.0142255
-0.0161704
-0.0174476
-0.0183834
-0.0184123
-0.0181661
-0.0169587
-0.0158795
-0.0137915
-0.0125351
-0.00977404
-0.00869831
-0.00391324
-0.000460065
0.0157716
0.0380591
0.0785315
-0.0195527
-0.00783445
-0.00673966
-0.00480367
-0.00350464
-0.00272287
-0.00272032
-0.00301784
-0.00401172
-0.00531836
-0.00726373
-0.00926525
-0.0116321
-0.0136389
-0.0156582
-0.0168946
-0.0179316
-0.0179407
-0.0178113
-0.0166253
-0.0156126
-0.0136025
-0.0121411
-0.00957033
-0.00754845
-0.0025907
0.00811744
0.0404109
0.11187
0.228077
)
;

boundaryField
{
    movingWall
    {
        type            zeroGradient;
    }
    fixedWalls
    {
        type            zeroGradient;
    }
    frontAndBack
    {
        type            empty;
    }
}


// ************************************************************************* //
