/*--------------------------------*- C++ -*----------------------------------*\
| =========                 |                                                 |
| \\      /  F ield         | OpenFOAM: The Open Source CFD Toolbox           |
|  \\    /   O peration     | Version:  2406                                  |
|   \\  /    A nd           | Website:  www.openfoam.com                      |
|    \\/     M anipulation  |                                                 |
\*---------------------------------------------------------------------------*/
FoamFile
{
    version     2.0;
    format      ascii;
    arch        "LSB;label=32;scalar=64";
    class       surfaceScalarField;
    location    "31.6";
    object      phi;
}
// * * * * * * * * * * * * * * * * * * * * * * * * * * * * * * * * * * * * * //

dimensions      [0 3 -1 0 0 0 0];

oriented        oriented;

internalField   nonuniform List<scalar> 
1740
(
6.34646e-06
-6.31961e-06
1.74466e-05
-1.12488e-05
2.61469e-05
-8.63841e-06
2.99521e-05
-3.83463e-06
3.0858e-05
-8.4343e-07
3.04569e-05
4.254e-07
2.96711e-05
8.60669e-07
2.71786e-05
2.52035e-06
1.78692e-05
9.50276e-06
-5.87953e-06
2.43046e-05
-4.94859e-05
4.4325e-05
-0.000113051
6.4204e-05
-0.000188185
7.56154e-05
-0.000261652
7.38657e-05
-0.000323405
6.21691e-05
-0.000367839
4.48037e-05
-0.000391438
2.39869e-05
-0.00039216
1.00327e-06
-0.000368561
-2.3243e-05
-0.000320544
-4.78911e-05
-0.000249216
-7.10485e-05
-0.000159384
-9.00451e-05
-5.96675e-05
-9.96752e-05
3.40214e-05
-9.43435e-05
0.000100677
-6.65396e-05
0.000121938
-2.16564e-05
9.88566e-05
2.35401e-05
5.8116e-05
4.02881e-05
2.11202e-05
3.74632e-05
2.11232e-05
1.25393e-05
-1.87681e-05
2.97389e-05
-2.85557e-05
4.13646e-05
-2.01929e-05
4.35243e-05
-6.07847e-06
3.73851e-05
5.2652e-06
2.17397e-05
1.59609e-05
-9.56911e-06
3.21421e-05
-6.68606e-05
5.99324e-05
-0.000154834
9.73715e-05
-0.000265827
0.000134509
-0.000381683
0.000159246
-0.000485071
0.000166892
-0.000568179
0.000157999
-0.000630271
0.000135178
-0.000671874
0.000103073
-0.000692847
6.51257e-05
-0.000692767
2.34036e-05
-0.000671134
-2.10938e-05
-0.000627215
-6.73897e-05
-0.000560586
-0.000114783
-0.000471471
-0.000160065
-0.000362158
-0.000199483
-0.000238501
-0.000222954
-0.000111868
-0.000221082
-3.56862e-07
-0.00017728
7.21104e-05
-9.40939e-05
8.90873e-05
7.11232e-06
6.57237e-05
6.28281e-05
2.79055e-05
7.52574e-05
4.84854e-05
1.53182e-05
-3.40091e-05
3.07271e-05
-4.40673e-05
3.54172e-05
-2.47603e-05
2.50322e-05
4.36003e-06
-3.01372e-06
3.3456e-05
-5.73267e-05
7.04658e-05
-0.000146921
0.00012193
-0.000269806
0.000182677
-0.000405867
0.000233381
-0.000531272
0.000260248
-0.00063439
0.000262696
-0.000713637
0.00024636
-0.000771181
0.000215707
-0.000810217
0.000174383
-0.000833176
0.000126219
-0.000841502
7.35531e-05
-0.000835794
1.77643e-05
-0.000815854
-4.11598e-05
-0.000780676
-0.00010269
-0.000728514
-0.000167352
-0.000657285
-0.000231593
-0.000564773
-0.000292665
-0.000451016
-0.000337079
-0.000318702
-0.00035413
-0.000179196
-0.000316525
-5.45558e-05
-0.000218792
1.75376e-05
-6.38246e-05
3.10814e-05
4.89927e-05
1.476e-05
9.22039e-05
6.33914e-05
1.34037e-05
-4.74563e-05
1.81521e-05
-4.899e-05
4.58195e-06
-1.12152e-05
-3.31817e-05
4.20312e-05
-0.000102148
0.000102361
-0.000208367
0.000176495
-0.000342756
0.000256087
-0.00048057
0.000320351
-0.000599967
0.000352441
-0.000694036
0.000353787
-0.000764027
0.000332222
-0.000812752
0.000294753
-0.000844179
0.000246855
-0.000862431
0.00019238
-0.000870661
0.000134275
-0.000871005
7.37332e-05
-0.000864638
1.13762e-05
-0.000851913
-5.39577e-05
-0.000832137
-0.000122327
-0.00080338
-0.000196152
-0.00076222
-0.000272545
-0.000703226
-0.000351805
-0.000620476
-0.000419779
-0.000507282
-0.000467678
-0.000363864
-0.000460004
-0.00020004
-0.000382637
-6.05274e-05
-0.000203093
2.44926e-06
-1.43823e-05
4.20791e-06
9.0673e-05
6.73157e-05
4.98891e-06
-5.23239e-05
-9.38488e-06
-3.44785e-05
-5.03891e-05
3.00203e-05
-0.000123326
0.000115202
-0.000230385
0.000209551
-0.000361711
0.000307945
-0.000493938
0.000388319
-0.000605694
0.000432054
-0.000689586
0.000436416
-0.000747685
0.000412159
-0.000784157
0.000368996
-0.000803978
0.000314899
-0.000812022
0.000255227
-0.000812301
0.000192968
-0.000807802
0.000130123
-0.000800682
6.68781e-05
-0.000792459
3.51019e-06
-0.000784283
-6.19566e-05
-0.000776537
-0.000129695
-0.000768601
-0.00020402
-0.000757739
-0.000283037
-0.000738067
-0.000371572
-0.000700273
-0.000457431
-0.000630706
-0.000537645
-0.000516676
-0.000574171
-0.000351898
-0.000547968
-0.00015723
-0.000397274
-2.29979e-05
-0.000149124
4.43385e-06
6.3829e-05
7.17164e-05
-1.21959e-05
-4.02905e-05
-5.23075e-05
5.62246e-06
-0.000122343
9.99372e-05
-0.000222005
0.000214821
-0.00034346
0.000330815
-0.000467282
0.000431549
-0.000572167
0.000492972
-0.000647442
0.000507232
-0.000694963
0.000483843
-0.000720497
0.000437637
-0.000729943
0.000378415
-0.000728934
0.000313892
-0.000721688
0.000248014
-0.000711223
0.000182517
-0.000699351
0.000118351
-0.000687392
5.49427e-05
-0.000676396
-7.26908e-06
-0.000667847
-7.04747e-05
-0.000663133
-0.000134029
-0.000663747
-0.000203371
-0.000669575
-0.000276654
-0.000677717
-0.000363369
-0.000680365
-0.000454205
-0.000662294
-0.000555654
-0.000603501
-0.000632714
-0.000481353
-0.00067059
-0.000287414
-0.000590632
-7.75592e-05
-0.000361105
7.58948e-06
-1.96611e-05
7.87408e-05
-3.21917e-05
-8.02633e-06
-9.60191e-05
6.98404e-05
-0.000186158
0.000190162
-0.000295414
0.000324312
-0.000410299
0.000445644
-0.000510855
0.000532168
-0.000583263
0.000565431
-0.000626218
0.000550376
-0.00064655
0.000504369
-0.00065127
0.00044258
-0.000646863
0.000374188
-0.000638186
0.000305348
-0.00062784
0.000237778
-0.000617013
0.000171702
-0.000605741
0.00010714
-0.000594093
4.31749e-05
-0.000582234
-1.9072e-05
-0.000571402
-8.157e-05
-0.000563194
-0.000142117
-0.000560364
-0.000206586
-0.000565085
-0.000271669
-0.000578513
-0.000350331
-0.000597721
-0.000434579
-0.00061232
-0.000541182
-0.000603908
-0.000640894
-0.000541639
-0.00073225
-0.000403116
-0.000730273
-0.000173188
-0.000590072
-6.17102e-06
-0.00018739
7.30944e-05
-5.00251e-05
4.17098e-05
-0.00013031
0.000150207
-0.000228697
0.000288187
-0.000333948
0.000429459
-0.000431622
0.000542984
-0.000505574
0.000606003
-0.000550171
0.000609926
-0.000570249
0.000570447
-0.000574601
0.000508665
-0.000570387
0.000438313
-0.000563387
0.000367119
-0.000556463
0.000298332
-0.000550139
0.000231415
-0.000543815
0.000165268
-0.000536256
9.96202e-05
-0.000526915
3.36963e-05
-0.000515549
-3.0285e-05
-0.000503303
-9.40354e-05
-0.000491585
-0.000153556
-0.000483384
-0.000215154
-0.000481479
-0.000273173
-0.00048927
-0.000343048
-0.000507512
-0.000415831
-0.000532128
-0.000516964
-0.000550228
-0.000622327
-0.000535373
-0.00074674
-0.000457835
-0.000808818
-0.000277175
-0.000769048
-4.72478e-05
-0.000421921
2.7819e-05
-5.95535e-05
0.000101272
-0.000146387
0.000237438
-0.000242909
0.000384545
-0.000336504
0.000523203
-0.000414509
0.000620872
-0.000465913
0.00065759
-0.000491391
0.000635547
-0.000498923
0.000578206
-0.00049743
0.000507312
-0.000493125
0.000434141
-0.000489981
0.000364068
-0.000488566
0.000296953
-0.000487781
0.000230711
-0.00048599
0.000163428
-0.000481586
9.5327e-05
-0.000474034
2.59845e-05
-0.000463063
-4.10753e-05
-0.000449823
-0.000107581
-0.000435371
-0.000167705
-0.000422514
-0.000228487
-0.000413718
-0.0002815
-0.000413334
-0.000344065
-0.000424101
-0.000404457
-0.000447034
-0.000494665
-0.000474983
-0.000593711
-0.000488382
-0.000733387
-0.000455634
-0.000841001
-0.000339576
-0.000884947
-0.000117459
-0.000644728
-8.7739e-05
-6.1283e-05
0.000162328
-0.000146807
0.000323039
-0.000235368
0.000472673
-0.000314429
0.000602156
-0.000374272
0.000680432
-0.000408701
0.000692015
-0.000422634
0.000649407
-0.000424925
0.000580447
-0.000423391
0.000505651
-0.000422618
0.000433234
-0.000424447
0.000365776
-0.000427844
0.000300191
-0.000430951
0.000233782
-0.000432023
0.000164326
-0.000429678
9.30666e-05
-0.000423727
1.98005e-05
-0.00041396
-5.06172e-05
-0.000401542
-0.000120358
-0.000387011
-0.000181854
-0.000372707
-0.000243335
-0.000360014
-0.000293639
-0.000353052
-0.000351772
-0.000354714
-0.000402084
-0.000369687
-0.000480533
-0.000396795
-0.000565844
-0.000424101
-0.000706487
-0.000424612
-0.000839792
-0.000356315
-0.000953055
-0.00018843
-0.000813026
-0.000276079
-5.55622e-05
0.000217979
-0.000133079
0.000400852
-0.00020944
0.000548835
-0.000273509
0.000666349
-0.000318482
0.000725373
-0.000341917
0.000715738
-0.00035053
0.000658203
-0.000352309
0.000582445
-0.000353347
0.000506829
-0.000356412
0.000436424
-0.000361753
0.000371253
-0.000367664
0.000306152
-0.000372298
0.000238598
-0.000374337
0.000166323
-0.000372816
9.18015e-05
-0.000367946
1.47496e-05
-0.000359543
-5.86594e-05
-0.000348857
-0.000131403
-0.000335971
-0.000194232
-0.000322975
-0.000256904
-0.000310111
-0.000305817
-0.000300803
-0.000361886
-0.000296476
-0.000405562
-0.000302703
-0.00047531
-0.000321645
-0.000546014
-0.00034933
-0.0006796
-0.00036628
-0.00082214
-0.000329069
-0.000989986
-0.000204851
-0.000938907
-0.000481765
-4.50189e-05
0.00026293
-0.000110785
0.000466604
-0.000173739
0.000611452
-0.000224014
0.000716493
-0.000257397
0.000758564
-0.000273789
0.000732143
-0.000280076
0.000664387
-0.000282666
0.000584906
-0.000285819
0.000509811
-0.000290904
0.000441301
-0.000297275
0.000377499
-0.000303369
0.000312016
-0.000307718
0.000242944
-0.00030966
0.000167998
-0.000308541
9.08361e-05
-0.00030491
1.07604e-05
-0.000298444
-6.47994e-05
-0.000290459
-0.000139896
-0.000280508
-0.000203659
-0.000270592
-0.000267517
-0.000259989
-0.00031568
-0.000251683
-0.000371114
-0.000245572
-0.000410717
-0.000246817
-0.000475208
-0.000258191
-0.000533596
-0.00028088
-0.000657947
-0.000302142
-0.000799873
-0.000282576
-0.00100892
-0.000184466
-0.00103736
-0.000666572
-3.10231e-05
0.000294149
-8.22401e-05
0.000517956
-0.000130839
0.000659956
-0.0001686
0.000754344
-0.00019301
0.000783049
-0.000205291
0.000744744
-0.000211162
0.000670477
-0.000214973
0.000588937
-0.000219322
0.000514359
-0.000224654
0.000446769
-0.000230165
0.000383249
-0.000234876
0.000316784
-0.000237871
0.000246259
-0.000239133
0.000169192
-0.000238188
9.03094e-05
-0.000235877
8.20689e-06
-0.00023165
-6.84828e-05
-0.000226934
-0.00014507
-0.000220732
-0.000209164
-0.000215031
-0.00027392
-0.000208249
-0.00032157
-0.000203029
-0.000377308
-0.000197834
-0.000414799
-0.000197115
-0.000477183
-0.000202946
-0.000526525
-0.000220422
-0.000641802
-0.000242963
-0.000776214
-0.000236718
-0.00101493
-0.000161865
-0.00111231
-0.000828879
-1.56403e-05
0.000309838
-5.12816e-05
0.000553409
-8.60644e-05
0.000694549
-0.000112678
0.000780746
-0.000129913
0.000800162
-0.000139271
0.000754053
-0.000144714
0.000675798
-0.000148745
0.000592754
-0.000152637
0.000518072
-0.000156547
0.000450379
-0.00015983
0.000386427
-0.000162292
0.000318906
-0.000163447
0.00024746
-0.000163885
0.000169221
-0.000163168
8.98202e-05
-0.00016243
6.9414e-06
-0.000160796
-6.96829e-05
-0.000159819
-0.000146728
-0.000157945
-0.000210384
-0.000157172
-0.000275576
-0.000155218
-0.000322616
-0.000154603
-0.000379056
-0.000152652
-0.000415549
-0.000153147
-0.000478103
-0.000156372
-0.000521871
-0.000169347
-0.000630382
-0.000190201
-0.000753921
-0.000193171
-0.00101209
-0.000138672
-0.00116634
-0.000968176
3.68169e-07
0.000309756
-1.90256e-05
0.000572766
-4.0068e-05
0.000715659
-5.65973e-05
0.000797316
-6.77466e-05
0.000811481
-7.49961e-05
0.000761607
-8.02535e-05
0.000681329
-8.42362e-05
0.000596953
-8.71537e-05
0.000521285
-8.90589e-05
0.000452411
-8.96729e-05
0.000387411
-8.95868e-05
0.00031884
-8.87221e-05
0.000247073
-8.82459e-05
0.000168613
-8.77044e-05
8.98799e-05
-8.85335e-05
7.43474e-06
-8.95085e-05
-6.7975e-05
-9.23094e-05
-0.000144495
-9.48648e-05
-0.000206933
-9.91768e-05
-0.000272107
-0.000102286
-0.000318393
-0.000106726
-0.00037578
-0.000108893
-0.000411973
-0.000112472
-0.000476049
-0.000116003
-0.000516673
-0.000127518
-0.000620693
-0.00014774
-0.00073205
-0.000158016
-0.00100253
-0.000119756
-0.00120373
-0.00108865
1.55518e-05
0.000294317
1.23285e-05
0.000575589
4.3356e-06
0.000723607
-2.57323e-06
0.000803889
-7.94239e-06
0.000816785
-1.28194e-05
0.000766323
-1.71836e-05
0.000685582
-2.03995e-05
0.000599848
-2.16968e-05
0.000522425
-2.13205e-05
0.00045161
-1.92222e-05
0.000385252
-1.67736e-05
0.000315893
-1.41201e-05
0.00024453
-1.29852e-05
0.000166883
-1.2804e-05
9.00162e-05
-1.53197e-05
9.22877e-06
-1.89819e-05
-6.37825e-05
-2.55843e-05
-0.000138783
-3.25814e-05
-0.000199163
-4.20135e-05
-0.000263783
-5.02655e-05
-0.000309062
-6.00138e-05
-0.000367433
-6.67729e-05
-0.000403742
-7.44467e-05
-0.000470138
-7.97731e-05
-0.000509476
-9.14822e-05
-0.000611086
-0.000111474
-0.000710044
-0.000128294
-0.000986949
-0.000104217
-0.0012265
-0.00119373
2.93795e-05
0.000265311
4.20408e-05
0.000562762
4.69897e-05
0.000718892
4.90846e-05
0.000801799
4.92957e-05
0.00081683
4.67351e-05
0.00076915
4.31287e-05
0.000689553
4.0391e-05
0.000602781
4.01625e-05
0.000523078
4.22116e-05
0.000449643
4.64241e-05
0.00038157
5.07954e-05
0.000311463
5.49832e-05
0.000241001
5.67187e-05
0.000164908
5.66426e-05
9.08812e-05
5.27108e-05
1.27138e-05
4.67384e-05
-5.68746e-05
3.68158e-05
-0.000129555
2.59563e-05
-0.000187187
1.19883e-05
-0.000250813
-8.14081e-07
-0.000294874
-1.54608e-05
-0.000354175
-2.66428e-05
-0.000390792
-3.89424e-05
-0.000459713
-4.7458e-05
-0.000498771
-6.14777e-05
-0.000599454
-8.24216e-05
-0.000686727
-0.000105021
-0.00096618
-9.22131e-05
-0.00123757
-0.00128691
4.03968e-05
0.000225041
6.84635e-05
0.000534078
8.60482e-05
0.000701359
9.77733e-05
0.000789582
0.00010444
0.000810142
0.000105395
0.000767874
0.000103574
0.00069131
0.000101667
0.000604228
0.000102388
0.000522255
0.000105458
0.000445979
0.000110981
0.000376059
0.00011641
0.000305337
0.000121414
0.000236202
0.000123222
0.000162296
0.000122578
9.19388e-05
0.000117157
1.71888e-05
0.000109023
-4.8107e-05
9.60889e-05
-0.000117749
8.1839e-05
-0.000172034
6.38509e-05
-0.000234207
4.70662e-05
-0.000276815
2.79736e-05
-0.000336834
1.27516e-05
-0.000373791
-4.16542e-06
-0.000445036
-1.62681e-05
-0.000484286
-3.37879e-05
-0.000584732
-5.66585e-05
-0.000661062
-8.54334e-05
-0.000939885
-8.2709e-05
-0.00123807
-0.00137076
4.77029e-05
0.000177819
9.02588e-05
0.000491319
0.000120637
0.000671358
0.000141619
0.000768626
0.000154957
0.000797152
0.000159763
0.000763286
0.000159816
0.000691744
0.000158533
0.000605657
0.000159491
0.000521894
0.000162713
0.000442752
0.000168626
0.000370871
0.000174396
0.000299383
0.000179743
0.000231714
0.000181489
0.000160171
0.000180431
9.3998e-05
0.000173957
2.30729e-05
0.000164381
-3.7368e-05
0.000149322
-0.000103532
0.000132746
-0.000154071
0.000111821
-0.000214462
9.21338e-05
-0.000255401
6.94285e-05
-0.000315786
5.07373e-05
-0.000352873
2.9227e-05
-0.00042582
1.30464e-05
-0.000465233
-9.1521e-06
-0.000565614
-3.46389e-05
-0.000632178
-6.94999e-05
-0.000908144
-7.51527e-05
-0.00122956
-0.00144722
4.95633e-05
0.000128359
0.000105651
0.000434392
0.000148896
0.000628196
0.000180921
0.000735898
0.000203023
0.00077508
0.000214133
0.000751628
0.000218225
0.000687673
0.000218669
0.000604571
0.000220173
0.000520401
0.00022299
0.000439143
0.000228362
0.000365638
0.00023336
0.000293468
0.000238048
0.000227364
0.000238953
0.000158225
0.000237047
9.64469e-05
0.000229356
2.95706e-05
0.000218536
-2.57783e-05
0.000201762
-8.81614e-05
0.000183493
-0.000134737
0.000160293
-0.000192979
0.000138369
-0.000231986
0.000112535
-0.000292139
9.07102e-05
-0.000328931
6.45801e-05
-0.000402542
4.39725e-05
-0.000441657
1.59538e-05
-0.000541343
-1.3214e-05
-0.000599183
-5.51994e-05
-0.000870237
-6.87182e-05
-0.00121256
-0.0015176
4.58365e-05
8.31973e-05
0.000112885
0.00036725
0.000169003
0.000572636
0.000211187
0.000693849
0.000242081
0.000744659
0.000260083
0.000733804
0.000269112
0.000679291
0.000272421
0.000601311
0.000275158
0.000518479
0.000277981
0.000436166
0.000282847
0.000361739
0.000287006
0.000288947
0.000290954
0.000224527
0.000291077
0.000157538
0.000288654
0.000100135
0.000280294
3.71582e-05
0.000269036
-1.30646e-05
0.000251501
-7.16573e-05
0.000232594
-0.000114096
0.000208128
-0.000169909
0.000184846
-0.000206546
0.000156478
-0.000265708
0.00013176
-0.000301404
0.00010079
-0.000374307
7.52098e-05
-0.00041232
4.02631e-05
-0.000510316
6.83048e-06
-0.000560878
-4.27857e-05
-0.000825393
-6.30345e-05
-0.0011877
-0.00158256
3.71329e-05
4.60959e-05
0.000110957
0.000292249
0.00017903
0.000504684
0.000233841
0.000637952
0.000276739
0.000701857
0.000305385
0.000704256
0.000323154
0.000661676
0.000332095
0.000591486
0.000338051
0.000512747
0.000341767
0.000431426
0.00034634
0.000357529
0.000349333
0.000284785
0.000352076
0.000222328
0.000350823
0.000157483
0.000347499
0.000104192
0.000338183
4.50008e-05
0.000326443
-3.74185e-07
0.000308172
-5.51059e-05
0.000288749
-9.34225e-05
0.000263069
-0.000146326
0.000238383
-0.000180148
0.000207226
-0.000237234
0.000179147
-0.00027089
0.000142616
-0.000341371
0.000111132
-0.000377266
6.77326e-05
-0.00047196
2.88559e-05
-0.000516853
-3.00552e-05
-0.000772902
-5.69637e-05
-0.00115535
-0.00164223
2.79893e-05
1.88618e-05
0.000100618
0.000219875
0.000177483
0.000428602
0.000241034
0.000574845
0.000294048
0.000649459
0.000333385
0.000665107
0.000361486
0.000634423
0.000379208
0.000573644
0.000391696
0.000501372
0.000399521
0.000423208
0.000406422
0.00035192
0.00041023
0.00028036
0.000413293
0.000220714
0.000411764
0.000158202
0.000408419
0.000109157
0.000398897
5.35134e-05
0.000387322
1.30499e-05
0.000368934
-3.79876e-05
0.000349459
-7.17623e-05
0.000322947
-0.00012146
0.000296941
-0.000151435
0.00026287
-0.00020538
0.000230905
-0.000235386
0.000187988
-0.000301601
0.000149517
-0.000333874
9.61606e-05
-0.000423427
5.10139e-05
-0.0004647
-1.8266e-05
-0.000710592
-5.0473e-05
-0.00111552
-0.00169581
1.76684e-05
9.91644e-07
8.14326e-05
0.000154601
0.000161774
0.000348283
0.000236752
0.000498184
0.00030392
0.000582399
0.000358033
0.000609536
0.000400893
0.000591893
0.00043098
0.000542296
0.000453415
0.000479493
0.00046802
0.000407285
0.000479439
0.000341222
0.000485518
0.000272817
0.00048993
0.000217151
0.000488669
0.000157848
0.000485573
0.000113234
0.000475804
6.1486e-05
0.000464179
2.58336e-05
0.000445174
-2.10482e-05
0.000424987
-5.0144e-05
0.000396664
-9.56294e-05
0.000368225
-0.00012112
0.000329879
-0.000170235
0.000292694
-0.000195557
0.000242025
-0.00025538
0.000195374
-0.000283169
0.000130732
-0.000365553
7.87812e-05
-0.000406169
-2.39507e-06
-0.000639473
-4.02789e-05
-0.00106915
-0.00174098
1.55934e-05
-1.44373e-05
6.06764e-05
0.000110981
0.000133158
0.000276472
0.000207925
0.000424879
0.000282347
0.000508664
0.000349911
0.000542404
0.000408919
0.000533992
0.000455912
0.000494976
0.000493708
0.000443201
0.000520805
0.000379456
0.000542187
0.000321569
0.000555084
0.000258974
0.000564579
0.000209554
0.000566369
0.000154951
0.000565524
0.00011617
0.000556857
6.88514e-05
0.000545958
3.91016e-05
0.000526806
-3.48314e-06
0.000506002
-2.65503e-05
0.000475987
-6.76192e-05
0.000445008
-8.66887e-05
0.000402538
-0.000130381
0.000359996
-0.000148453
0.000301506
-0.000200516
0.000245994
-0.000221146
0.000169205
-0.000294451
0.000109449
-0.000336509
1.53471e-05
-0.000554892
-2.59085e-05
-0.00101463
-0.00177267
-1.43411e-08
-1.38347e-05
2.63103e-05
8.246e-05
8.70303e-05
0.000215912
0.000167268
0.000341804
0.000255034
0.000420854
0.000338081
0.000457031
0.000415556
0.000457001
0.000480307
0.000428407
0.000535278
0.000389159
0.00057675
0.00033624
0.000610257
0.000289175
0.000632314
0.000235056
0.000648852
0.000194184
0.000655515
0.000146275
0.000658172
0.000114736
0.000651502
7.33247e-05
0.000641774
5.01725e-05
0.00062242
1.34074e-05
0.000600782
-3.35112e-06
0.000568179
-3.7917e-05
0.000533999
-5.05678e-05
0.000485851
-8.5934e-05
0.000437243
-9.7228e-05
0.000369614
-0.000138237
0.000306188
-0.00015369
0.000219102
-0.000216126
0.000155431
-0.000265748
5.2695e-05
-0.000467419
5.5406e-06
-0.00095562
-0.00177761
1.43729e-05
-3.17047e-05
2.16755e-06
9.85384e-05
2.25608e-05
0.000195497
8.50913e-05
0.000283269
0.000172758
0.000334228
0.00027097
0.000360105
0.000368268
0.000361136
0.000455671
0.000340566
0.000532657
0.000314086
0.000593892
0.000273912
0.000644788
0.000240475
0.000680624
0.000197955
0.000708657
0.000168549
0.000723427
0.000130125
0.000732732
0.000108075
0.000729889
7.4556e-05
0.000723345
5.97283e-05
0.000704822
2.99017e-05
0.000683959
2.10976e-05
0.000650226
-6.8509e-06
0.000615321
-1.11415e-05
0.000565285
-3.94644e-05
0.000515716
-4.15437e-05
0.000447031
-7.43443e-05
0.000383462
-8.11965e-05
0.000294905
-0.000134195
0.000227335
-0.000184606
0.000115473
-0.000367096
6.01309e-05
-0.000872426
-0.00172612
-7.52615e-05
5.40142e-05
-6.66609e-05
8.52967e-05
-4.33609e-05
0.000172519
1.41971e-05
0.000219112
0.000116136
0.000231338
0.000224557
0.000247918
0.000337992
0.000248125
0.000440984
0.000235165
0.000534841
0.000221361
0.000611046
0.000195495
0.000676105
0.000176689
0.000723387
0.000148289
0.000761644
0.000131539
0.000784026
0.000105136
0.000800235
9.3142e-05
0.000802194
6.97512e-05
0.000800669
6.26624e-05
0.000785507
4.19238e-05
0.000769412
3.88371e-05
0.000738893
2.01238e-05
0.000710174
1.95325e-05
0.000664185
2.22476e-06
0.000623579
1.38235e-06
0.000559879
-1.66803e-05
0.000507517
-2.61605e-05
0.000424329
-6.15317e-05
0.000366046
-0.000124734
0.000276536
-0.000299006
0.000198193
-0.000785199
-0.00156281
-0.000279326
0.000310523
-0.000327207
0.000142441
-0.000305881
0.000152268
-0.000203674
0.000124689
-8.47762e-05
0.000114349
5.35278e-05
0.000112035
0.000189467
0.000113668
0.000315343
0.000108706
0.000432674
0.000105874
0.000530082
9.65545e-05
0.000618769
9.02844e-05
0.000686588
7.88322e-05
0.000748536
7.22294e-05
0.000791086
6.09148e-05
0.000831699
5.55667e-05
0.000854073
4.54553e-05
0.000878694
4.16311e-05
0.000885109
3.30309e-05
0.00089801
3.03691e-05
0.000891455
2.32702e-05
0.000895666
2.11136e-05
0.000877987
1.50987e-05
0.000875173
1.23742e-05
0.00084723
4.76083e-06
0.000836572
-2.6004e-06
0.000796937
-2.86883e-05
0.000766133
-6.88342e-05
0.000683061
-0.000211801
0.000472602
-0.00048371
-0.00105122
0.000329953
0.000458679
0.000612809
0.000733951
0.000847329
0.000956537
0.00107111
0.0011779
0.00128533
0.00138001
0.00147205
0.0015488
0.00162285
0.00168141
0.00173896
0.0017817
0.00182563
0.00185551
0.00188865
0.0019082
0.00193264
0.00194327
0.00195934
0.00195833
0.00195835
0.00192003
0.00184722
0.00161477
0.00114534
)
;

boundaryField
{
    movingWall
    {
        type            calculated;
        value           uniform 0;
    }
    fixedWalls
    {
        type            calculated;
        value           uniform 0;
    }
    frontAndBack
    {
        type            empty;
    }
}


// ************************************************************************* //
