/*--------------------------------*- C++ -*----------------------------------*\
| =========                 |                                                 |
| \\      /  F ield         | OpenFOAM: The Open Source CFD Toolbox           |
|  \\    /   O peration     | Version:  2406                                  |
|   \\  /    A nd           | Website:  www.openfoam.com                      |
|    \\/     M anipulation  |                                                 |
\*---------------------------------------------------------------------------*/
FoamFile
{
    version     2.0;
    format      ascii;
    arch        "LSB;label=32;scalar=64";
    class       volVectorField;
    location    "11.45";
    object      U;
}
// * * * * * * * * * * * * * * * * * * * * * * * * * * * * * * * * * * * * * //

dimensions      [0 1 -1 0 0 0 0];

internalField   nonuniform List<vector> 
14400
(
(3.59235e-06 -3.57715e-06 0)
(1.32796e-05 -2.43955e-06 0)
(1.32204e-05 5.62158e-07 0)
(-5.45884e-08 4.12263e-06 0)
(-2.71074e-05 7.34889e-06 0)
(-6.60958e-05 9.98963e-06 0)
(-0.000114662 1.19967e-05 0)
(-0.00017047 1.34379e-05 0)
(-0.000231477 1.44179e-05 0)
(-0.000296033 1.5045e-05 0)
(-0.000362882 1.54174e-05 0)
(-0.000431125 1.56178e-05 0)
(-0.000500157 1.57118e-05 0)
(-0.00056961 1.57494e-05 0)
(-0.000639291 1.5767e-05 0)
(-0.000709141 1.57896e-05 0)
(-0.000779185 1.58333e-05 0)
(-0.000849506 1.59071e-05 0)
(-0.000920218 1.60152e-05 0)
(-0.000991448 1.61583e-05 0)
(-0.00106332 1.63343e-05 0)
(-0.00113596 1.65398e-05 0)
(-0.00120946 1.67703e-05 0)
(-0.00128391 1.70207e-05 0)
(-0.00135938 1.72859e-05 0)
(-0.0014359 1.75602e-05 0)
(-0.0015135 1.78382e-05 0)
(-0.00159217 1.81144e-05 0)
(-0.00167189 1.83833e-05 0)
(-0.0017526 1.86393e-05 0)
(-0.00183423 1.88769e-05 0)
(-0.00191669 1.90905e-05 0)
(-0.00199985 1.92743e-05 0)
(-0.00208358 1.94225e-05 0)
(-0.00216769 1.95293e-05 0)
(-0.002252 1.95888e-05 0)
(-0.00233628 1.95951e-05 0)
(-0.0024203 1.95422e-05 0)
(-0.00250377 1.94242e-05 0)
(-0.00258642 1.92352e-05 0)
(-0.00266793 1.89697e-05 0)
(-0.00274794 1.8622e-05 0)
(-0.00282611 1.81869e-05 0)
(-0.00290206 1.76594e-05 0)
(-0.00297537 1.70348e-05 0)
(-0.00304564 1.63091e-05 0)
(-0.00311243 1.54785e-05 0)
(-0.0031753 1.454e-05 0)
(-0.00323379 1.34913e-05 0)
(-0.00328744 1.23309e-05 0)
(-0.0033358 1.10579e-05 0)
(-0.00337839 9.67258e-06 0)
(-0.00341477 8.17628e-06 0)
(-0.00344449 6.57144e-06 0)
(-0.00346712 4.86103e-06 0)
(-0.00348226 3.05008e-06 0)
(-0.00348953 1.15809e-06 0)
(-0.00348855 -8.12077e-07 0)
(-0.00347902 -2.86994e-06 0)
(-0.0034607 -4.99465e-06 0)
(-0.00343335 -7.16795e-06 0)
(-0.00339683 -9.37681e-06 0)
(-0.00335102 -1.16057e-05 0)
(-0.00329591 -1.38375e-05 0)
(-0.00323154 -1.6054e-05 0)
(-0.00315803 -1.82359e-05 0)
(-0.00307557 -2.03631e-05 0)
(-0.00298446 -2.24153e-05 0)
(-0.00288506 -2.43717e-05 0)
(-0.0027778 -2.62123e-05 0)
(-0.00266322 -2.79171e-05 0)
(-0.00254192 -2.94676e-05 0)
(-0.00241457 -3.08465e-05 0)
(-0.00228191 -3.20383e-05 0)
(-0.00214473 -3.30297e-05 0)
(-0.00200388 -3.38096e-05 0)
(-0.00186024 -3.43701e-05 0)
(-0.00171471 -3.47057e-05 0)
(-0.00156822 -3.48144e-05 0)
(-0.00142169 -3.46969e-05 0)
(-0.00127603 -3.43573e-05 0)
(-0.00113213 -3.38026e-05 0)
(-0.000990866 -3.30425e-05 0)
(-0.00085304 -3.20893e-05 0)
(-0.00071942 -3.09575e-05 0)
(-0.000590707 -2.96637e-05 0)
(-0.000467537 -2.82255e-05 0)
(-0.00035047 -2.6662e-05 0)
(-0.000239991 -2.49927e-05 0)
(-0.00013651 -2.3237e-05 0)
(-4.03538e-05 -2.14145e-05 0)
(4.82226e-05 -1.95439e-05 0)
(0.000129039 -1.76429e-05 0)
(0.000201986 -1.57279e-05 0)
(0.000267014 -1.3814e-05 0)
(0.000324135 -1.19143e-05 0)
(0.00037341 -1.00404e-05 0)
(0.000414943 -8.20176e-06 0)
(0.000448876 -6.40592e-06 0)
(0.000475381 -4.65875e-06 0)
(0.000494653 -2.96393e-06 0)
(0.000506906 -1.3205e-06 0)
(0.000512399 2.58826e-07 0)
(0.000511318 1.72727e-06 0)
(0.000503869 3.13355e-06 0)
(0.000490375 4.52433e-06 0)
(0.000471106 5.85561e-06 0)
(0.000446324 7.111e-06 0)
(0.00041634 8.28508e-06 0)
(0.000381522 9.36512e-06 0)
(0.000342321 1.03285e-05 0)
(0.000299314 1.11389e-05 0)
(0.000253269 1.17403e-05 0)
(0.000205238 1.20483e-05 0)
(0.000156674 1.19387e-05 0)
(0.000109592 1.12387e-05 0)
(6.6724e-05 9.70868e-06 0)
(3.14538e-05 7.16276e-06 0)
(8.32123e-06 3.39186e-06 0)
(-1.13691e-07 -1.11617e-07 0)
(2.50113e-06 -1.32946e-05 0)
(4.85404e-06 -4.83729e-06 0)
(-1.85491e-05 2.04401e-05 0)
(-7.37356e-05 4.93941e-05 0)
(-0.000161383 7.64366e-05 0)
(-0.000277969 9.92187e-05 0)
(-0.00041857 0.000117171 0)
(-0.00057806 0.000130599 0)
(-0.000751751 0.000140182 0)
(-0.000935688 0.00014671 0)
(-0.00112673 0.000150942 0)
(-0.00132251 0.000153548 0)
(-0.00152134 0.000155079 0)
(-0.00172213 0.000155971 0)
(-0.00192419 0.00015655 0)
(-0.0021272 0.00015705 0)
(-0.00233107 0.000157629 0)
(-0.00253586 0.000158383 0)
(-0.00274176 0.000159366 0)
(-0.00294897 0.000160593 0)
(-0.00315774 0.000162059 0)
(-0.00336829 0.000163742 0)
(-0.00358082 0.000165608 0)
(-0.00379549 0.000167616 0)
(-0.0040124 0.000169721 0)
(-0.00423162 0.000171878 0)
(-0.00445315 0.000174036 0)
(-0.00467691 0.000176147 0)
(-0.00490281 0.000178162 0)
(-0.00513065 0.000180028 0)
(-0.00536019 0.000181696 0)
(-0.00559113 0.000183113 0)
(-0.0058231 0.000184227 0)
(-0.00605566 0.000184986 0)
(-0.00628833 0.000185336 0)
(-0.00652053 0.000185225 0)
(-0.00675165 0.000184599 0)
(-0.00698099 0.000183406 0)
(-0.00720781 0.000181593 0)
(-0.00743129 0.000179111 0)
(-0.00765058 0.000175911 0)
(-0.00786474 0.000171945 0)
(-0.00807281 0.000167172 0)
(-0.00827377 0.000161551 0)
(-0.00846655 0.000155045 0)
(-0.00865008 0.000147624 0)
(-0.00882322 0.000139262 0)
(-0.00898484 0.000129938 0)
(-0.00913378 0.000119641 0)
(-0.00926888 0.000108363 0)
(-0.009389 9.61079e-05 0)
(-0.00949299 8.28869e-05 0)
(-0.00957975 6.87208e-05 0)
(-0.00964821 5.36406e-05 0)
(-0.00969736 3.76879e-05 0)
(-0.00972625 2.09139e-05 0)
(-0.00973401 3.39044e-06 0)
(-0.00971987 -1.47666e-05 0)
(-0.00968311 -3.35256e-05 0)
(-0.00962322 -5.27707e-05 0)
(-0.00953975 -7.238e-05 0)
(-0.00943245 -9.22249e-05 0)
(-0.00930118 -0.000112167 0)
(-0.00914599 -0.000132057 0)
(-0.00896711 -0.000151739 0)
(-0.00876495 -0.000171049 0)
(-0.00854012 -0.00018982 0)
(-0.0082934 -0.00020788 0)
(-0.00802578 -0.000225059 0)
(-0.00773845 -0.000241191 0)
(-0.00743276 -0.000256114 0)
(-0.00711026 -0.000269676 0)
(-0.00677264 -0.000281738 0)
(-0.00642175 -0.000292173 0)
(-0.00605958 -0.000300874 0)
(-0.00568819 -0.000307755 0)
(-0.00530977 -0.00031275 0)
(-0.00492654 -0.000315816 0)
(-0.00454076 -0.000316937 0)
(-0.00415469 -0.00031612 0)
(-0.00377057 -0.000313397 0)
(-0.00339059 -0.000308825 0)
(-0.00301687 -0.000302483 0)
(-0.00265142 -0.000294469 0)
(-0.00229614 -0.000284902 0)
(-0.00195277 -0.000273914 0)
(-0.00162293 -0.000261651 0)
(-0.00130803 -0.000248266 0)
(-0.00100933 -0.00023392 0)
(-0.000727901 -0.000218772 0)
(-0.000464637 -0.000202984 0)
(-0.00022025 -0.000186711 0)
(4.72224e-06 -0.0001701 0)
(0.000209905 -0.000153292 0)
(0.000395075 -0.000136413 0)
(0.000560151 -0.000119577 0)
(0.000705177 -0.000102884 0)
(0.000830303 -8.642e-05 0)
(0.000935777 -7.02567e-05 0)
(0.00102192 -5.44521e-05 0)
(0.00108913 -3.90522e-05 0)
(0.00113785 -2.40935e-05 0)
(0.00116854 -9.61393e-06 0)
(0.00118173 4.32784e-06 0)
(0.00117802 1.77939e-05 0)
(0.001158 3.07489e-05 0)
(0.00112229 4.31266e-05 0)
(0.00107164 5.48593e-05 0)
(0.00100688 6.58505e-05 0)
(0.000929029 7.59507e-05 0)
(0.000839326 8.49319e-05 0)
(0.000739364 9.2456e-05 0)
(0.000631222 9.80317e-05 0)
(0.000517636 0.000100964 0)
(0.000402231 0.000100296 0)
(0.00028975 9.47895e-05 0)
(0.000186227 8.29848e-05 0)
(9.84738e-05 6.35555e-05 0)
(3.61932e-05 3.62316e-05 0)
(3.37839e-06 8.31379e-06 0)
(-6.26882e-07 -1.30832e-05 0)
(-2.18402e-05 1.90551e-05 0)
(-8.37889e-05 8.10273e-05 0)
(-0.000192404 0.00014934 0)
(-0.00034632 0.000213402 0)
(-0.000541218 0.000268288 0)
(-0.000770748 0.000312506 0)
(-0.00102817 0.000346446 0)
(-0.00130717 0.000371416 0)
(-0.00160226 0.000389066 0)
(-0.00190898 0.000401066 0)
(-0.00222383 0.000408934 0)
(-0.00254426 0.000413962 0)
(-0.00286849 0.00041719 0)
(-0.00319537 0.00041942 0)
(-0.00352423 0.000421241 0)
(-0.00385478 0.00042306 0)
(-0.00418696 0.000425142 0)
(-0.00452089 0.000427637 0)
(-0.00485677 0.000430608 0)
(-0.00519483 0.00043406 0)
(-0.00553531 0.00043795 0)
(-0.00587842 0.000442205 0)
(-0.00622431 0.000446734 0)
(-0.00657306 0.000451431 0)
(-0.00692469 0.000456182 0)
(-0.00727912 0.000460868 0)
(-0.0076362 0.000465366 0)
(-0.00799567 0.00046955 0)
(-0.00835719 0.000473292 0)
(-0.00872034 0.000476465 0)
(-0.00908458 0.000478937 0)
(-0.00944929 0.000480577 0)
(-0.00981375 0.000481252 0)
(-0.0101771 0.000480829 0)
(-0.0105386 0.000479177 0)
(-0.010897 0.000476164 0)
(-0.0112513 0.000471662 0)
(-0.0116004 0.000465545 0)
(-0.011943 0.000457694 0)
(-0.0122776 0.000447992 0)
(-0.012603 0.000436333 0)
(-0.0129176 0.000422618 0)
(-0.0132199 0.000406757 0)
(-0.0135082 0.000388673 0)
(-0.013781 0.000368302 0)
(-0.0140366 0.000345595 0)
(-0.0142733 0.000320518 0)
(-0.0144895 0.000293054 0)
(-0.0146834 0.000263209 0)
(-0.0148535 0.000231005 0)
(-0.0149981 0.000196489 0)
(-0.0151158 0.000159731 0)
(-0.0152049 0.000120825 0)
(-0.0152642 7.98928e-05 0)
(-0.0152925 3.70778e-05 0)
(-0.0152884 -7.44782e-06 0)
(-0.0152511 -5.34493e-05 0)
(-0.0151798 -0.000100719 0)
(-0.0150738 -0.000149 0)
(-0.0149325 -0.000198003 0)
(-0.0147559 -0.000247415 0)
(-0.0145438 -0.000296897 0)
(-0.0142964 -0.000346094 0)
(-0.0140144 -0.00039463 0)
(-0.0136983 -0.000442118 0)
(-0.0133492 -0.000488161 0)
(-0.0129684 -0.00053236 0)
(-0.0125573 -0.000574317 0)
(-0.0121178 -0.000613646 0)
(-0.0116518 -0.000649973 0)
(-0.0111617 -0.00068295 0)
(-0.01065 -0.000712255 0)
(-0.0101192 -0.000737603 0)
(-0.00957235 -0.000758749 0)
(-0.0090123 -0.000775496 0)
(-0.0084422 -0.000787696 0)
(-0.00786521 -0.000795255 0)
(-0.00728454 -0.000798136 0)
(-0.00670342 -0.000796358 0)
(-0.00612502 -0.000789999 0)
(-0.00555245 -0.000779188 0)
(-0.00498873 -0.000764107 0)
(-0.00443672 -0.000744987 0)
(-0.00389914 -0.000722099 0)
(-0.0033785 -0.00069575 0)
(-0.00287711 -0.000666276 0)
(-0.00239704 -0.000634033 0)
(-0.00194015 -0.000599391 0)
(-0.00150801 -0.000562727 0)
(-0.00110199 -0.000524413 0)
(-0.000723166 -0.000484814 0)
(-0.000372414 -0.000444279 0)
(-5.03634e-05 -0.000403136 0)
(0.000242564 -0.000361687 0)
(0.000506141 -0.000320206 0)
(0.00074032 -0.000278934 0)
(0.000945207 -0.000238081 0)
(0.00112105 -0.000197826 0)
(0.0012682 -0.000158316 0)
(0.00138711 -0.000119672 0)
(0.00147834 -8.19953e-05 0)
(0.00154248 -4.53681e-05 0)
(0.00158025 -9.84427e-06 0)
(0.00159239 2.45092e-05 0)
(0.0015797 5.75481e-05 0)
(0.00154313 8.9165e-05 0)
(0.00148376 0.000119176 0)
(0.00140283 0.0001473 0)
(0.00130189 0.000173128 0)
(0.00118285 0.000196067 0)
(0.00104811 0.000215273 0)
(0.000900791 0.000229575 0)
(0.000744883 0.000237393 0)
(0.000585509 0.000236661 0)
(0.000429121 0.000224849 0)
(0.00028361 0.000199161 0)
(0.000157352 0.000157215 0)
(6.35663e-05 9.85305e-05 0)
(7.14593e-06 3.14131e-05 0)
(-4.67005e-06 1.62999e-06 0)
(-5.51615e-05 7.79894e-05 0)
(-0.000162498 0.000192263 0)
(-0.000331105 0.000313548 0)
(-0.000555437 0.000426729 0)
(-0.000829985 0.000524362 0)
(-0.00114712 0.000603996 0)
(-0.00149893 0.000666099 0)
(-0.00187802 0.000712677 0)
(-0.00227791 0.000746381 0)
(-0.00269322 0.000769967 0)
(-0.00311967 0.000786004 0)
(-0.00355405 0.000796712 0)
(-0.00399405 0.000803914 0)
(-0.0044381 0.000809036 0)
(-0.00488522 0.000813143 0)
(-0.00533488 0.000816989 0)
(-0.00578685 0.000821072 0)
(-0.00624113 0.00082569 0)
(-0.00669783 0.000830982 0)
(-0.00715712 0.000836974 0)
(-0.00761917 0.000843607 0)
(-0.00808413 0.000850765 0)
(-0.00855208 0.000858288 0)
(-0.00902302 0.000865993 0)
(-0.00949688 0.000873675 0)
(-0.00997347 0.000881118 0)
(-0.0104525 0.000888099 0)
(-0.0109335 0.000894389 0)
(-0.011416 0.000899751 0)
(-0.0118994 0.00090395 0)
(-0.0123829 0.000906745 0)
(-0.0128655 0.000907894 0)
(-0.0133463 0.000907155 0)
(-0.0138242 0.000904286 0)
(-0.0142979 0.000899049 0)
(-0.0147661 0.000891208 0)
(-0.0152272 0.000880535 0)
(-0.0156797 0.000866809 0)
(-0.016122 0.000849819 0)
(-0.0165522 0.000829368 0)
(-0.0169686 0.000805275 0)
(-0.0173692 0.000777375 0)
(-0.017752 0.000745526 0)
(-0.018115 0.000709607 0)
(-0.0184563 0.000669525 0)
(-0.0187737 0.000625213 0)
(-0.0190651 0.000576637 0)
(-0.0193285 0.000523794 0)
(-0.019562 0.000466717 0)
(-0.0197636 0.000405479 0)
(-0.0199313 0.00034019 0)
(-0.0200633 0.000271003 0)
(-0.0201581 0.000198115 0)
(-0.020214 0.000121767 0)
(-0.0202297 4.22508e-05 0)
(-0.0202038 -4.00986e-05 0)
(-0.0201354 -0.000124923 0)
(-0.0200237 -0.000211763 0)
(-0.0198679 -0.000300151 0)
(-0.0196677 -0.000389569 0)
(-0.0194231 -0.000479458 0)
(-0.0191342 -0.000569219 0)
(-0.0188014 -0.000658221 0)
(-0.0184256 -0.000745808 0)
(-0.0180077 -0.000831301 0)
(-0.0175491 -0.000914013 0)
(-0.0170516 -0.000993252 0)
(-0.016517 -0.00106833 0)
(-0.0159478 -0.0011386 0)
(-0.0153463 -0.0012034 0)
(-0.0147155 -0.00126215 0)
(-0.0140585 -0.00131431 0)
(-0.0133785 -0.00135938 0)
(-0.012679 -0.00139695 0)
(-0.0119637 -0.0014267 0)
(-0.0112364 -0.00144837 0)
(-0.0105008 -0.00146182 0)
(-0.00976089 -0.00146698 0)
(-0.00902057 -0.00146389 0)
(-0.00828366 -0.00145268 0)
(-0.00755393 -0.00143358 0)
(-0.00683501 -0.00140692 0)
(-0.0061304 -0.00137307 0)
(-0.00544337 -0.00133252 0)
(-0.004777 -0.00128578 0)
(-0.00413409 -0.00123345 0)
(-0.00351722 -0.00117612 0)
(-0.00292864 -0.00111444 0)
(-0.00237034 -0.00104906 0)
(-0.00184402 -0.000980632 0)
(-0.00135109 -0.000909778 0)
(-0.000892655 -0.000837109 0)
(-0.000469588 -0.000763198 0)
(-8.24902e-05 -0.000688573 0)
(0.000268267 -0.000613716 0)
(0.000582523 -0.000539055 0)
(0.000860303 -0.000464963 0)
(0.0011018 -0.000391761 0)
(0.00130735 -0.000319717 0)
(0.00147741 -0.000249058 0)
(0.00161255 -0.000179971 0)
(0.00171344 -0.000112619 0)
(0.00178085 -4.71488e-05 0)
(0.00181561 1.62375e-05 0)
(0.0018187 7.73594e-05 0)
(0.00179126 0.000135944 0)
(0.00173459 0.000191608 0)
(0.00165026 0.000243801 0)
(0.00154021 0.000291743 0)
(0.00140684 0.000334338 0)
(0.00125317 0.000370077 0)
(0.00108304 0.000396928 0)
(0.00090129 0.000412227 0)
(0.000714002 0.000412619 0)
(0.000528671 0.000394117 0)
(0.00035433 0.000352425 0)
(0.000200423 0.000283791 0)
(8.3365e-05 0.000186605 0)
(9.71535e-06 6.67155e-05 0)
(-8.82985e-06 3.30393e-05 0)
(-9.02499e-05 0.000176551 0)
(-0.000245642 0.000358507 0)
(-0.00047715 0.000544044 0)
(-0.000773852 0.000715195 0)
(-0.00112849 0.000862874 0)
(-0.00153194 0.000984094 0)
(-0.00197524 0.0010796 0)
(-0.00245014 0.0011522 0)
(-0.00294944 0.00120562 0)
(-0.00346714 0.00124379 0)
(-0.00399845 0.00127042 0)
(-0.00453968 0.00128873 0)
(-0.00508812 0.00130142 0)
(-0.00564187 0.00131062 0)
(-0.00619969 0.00131794 0)
(-0.00676082 0.00132454 0)
(-0.00732485 0.00133118 0)
(-0.00789164 0.00133836 0)
(-0.00846115 0.0013463 0)
(-0.00903345 0.00135506 0)
(-0.00960859 0.00136458 0)
(-0.0101866 0.00137469 0)
(-0.0107675 0.00138517 0)
(-0.0113511 0.00139572 0)
(-0.0119373 0.00140605 0)
(-0.0125256 0.00141582 0)
(-0.0131156 0.00142469 0)
(-0.0137068 0.0014323 0)
(-0.0142983 0.0014383 0)
(-0.0148893 0.00144231 0)
(-0.0154788 0.00144396 0)
(-0.0160657 0.00144287 0)
(-0.0166486 0.00143869 0)
(-0.0172261 0.00143103 0)
(-0.0177966 0.00141953 0)
(-0.0183585 0.00140384 0)
(-0.01891 0.00138362 0)
(-0.0194491 0.00135854 0)
(-0.0199737 0.0013283 0)
(-0.0204819 0.0012926 0)
(-0.0209713 0.00125121 0)
(-0.0214398 0.00120388 0)
(-0.021885 0.00115044 0)
(-0.0223046 0.00109073 0)
(-0.0226963 0.00102464 0)
(-0.0230576 0.000952109 0)
(-0.0233864 0.000873122 0)
(-0.0236802 0.000787715 0)
(-0.0239369 0.00069598 0)
(-0.0241544 0.000598066 0)
(-0.0243307 0.00049418 0)
(-0.0244637 0.000384594 0)
(-0.0245519 0.000269642 0)
(-0.0245935 0.000149722 0)
(-0.0245872 2.53026e-05 0)
(-0.0245317 -0.000103084 0)
(-0.0244262 -0.000234844 0)
(-0.0242697 -0.000369307 0)
(-0.024062 -0.000505743 0)
(-0.0238027 -0.000643364 0)
(-0.023492 -0.000781323 0)
(-0.0231302 -0.000918725 0)
(-0.022718 -0.00105463 0)
(-0.0222566 -0.00118806 0)
(-0.0217472 -0.00131802 0)
(-0.0211915 -0.0014435 0)
(-0.0205917 -0.00156348 0)
(-0.01995 -0.00167697 0)
(-0.0192692 -0.001783 0)
(-0.0185522 -0.00188065 0)
(-0.0178023 -0.00196905 0)
(-0.017023 -0.00204742 0)
(-0.0162181 -0.00211506 0)
(-0.0153915 -0.00217137 0)
(-0.0145474 -0.00221589 0)
(-0.01369 -0.00224826 0)
(-0.0128237 -0.00226826 0)
(-0.0119529 -0.00227582 0)
(-0.0110819 -0.00227101 0)
(-0.010215 -0.00225401 0)
(-0.00935649 -0.00222518 0)
(-0.00851047 -0.00218496 0)
(-0.00768084 -0.00213396 0)
(-0.0068713 -0.00207285 0)
(-0.0060853 -0.00200241 0)
(-0.00532604 -0.00192349 0)
(-0.00459641 -0.00183698 0)
(-0.00389899 -0.00174384 0)
(-0.00323605 -0.00164501 0)
(-0.00260954 -0.00154145 0)
(-0.00202109 -0.00143409 0)
(-0.00147202 -0.00132383 0)
(-0.000963353 -0.00121151 0)
(-0.000495842 -0.00109792 0)
(-6.99759e-05 -0.000983781 0)
(0.000313989 -0.000869723 0)
(0.000656004 -0.000756311 0)
(0.000956206 -0.00064403 0)
(0.00121489 -0.000533293 0)
(0.0014325 -0.000424449 0)
(0.00160959 -0.000317798 0)
(0.00174685 -0.000213612 0)
(0.00184507 -0.000112153 0)
(0.00190517 -1.37174e-05 0)
(0.0019282 8.13592e-05 0)
(0.00191541 0.000172609 0)
(0.00186828 0.000259398 0)
(0.0017886 0.000340842 0)
(0.00167858 0.000415717 0)
(0.00154095 0.000482342 0)
(0.00137918 0.000538455 0)
(0.00119758 0.000581079 0)
(0.00100154 0.000606401 0)
(0.00079774 0.000609719 0)
(0.000594363 0.000585523 0)
(0.000401262 0.000527854 0)
(0.000228832 0.000431106 0)
(9.61117e-05 0.00029136 0)
(1.13226e-05 0.000109869 0)
(-1.28678e-05 8.11403e-05 0)
(-0.000124871 0.000315515 0)
(-0.000328512 0.000581461 0)
(-0.000623312 0.000842735 0)
(-0.000992454 0.00108022 0)
(-0.00142648 0.00128432 0)
(-0.00191453 0.00145218 0)
(-0.00244646 0.00158521 0)
(-0.00301325 0.00168725 0)
(-0.00360713 0.00176325 0)
(-0.00422165 0.00181839 0)
(-0.00485165 0.00185756 0)
(-0.00549312 0.00188508 0)
(-0.00614307 0.00190455 0)
(-0.00679936 0.00191886 0)
(-0.00746054 0.0019302 0)
(-0.00812565 0.00194015 0)
(-0.00879411 0.0019498 0)
(-0.00946561 0.00195983 0)
(-0.01014 0.00197058 0)
(-0.0108171 0.00198215 0)
(-0.011497 0.00199447 0)
(-0.0121794 0.00200731 0)
(-0.0128643 0.00202037 0)
(-0.0135514 0.00203327 0)
(-0.0142401 0.00204557 0)
(-0.0149302 0.00205683 0)
(-0.0156208 0.00206656 0)
(-0.0163111 0.00207427 0)
(-0.0170003 0.00207943 0)
(-0.0176872 0.00208155 0)
(-0.0183706 0.00208008 0)
(-0.0190489 0.00207453 0)
(-0.0197207 0.00206436 0)
(-0.0203843 0.00204908 0)
(-0.0210376 0.00202817 0)
(-0.0216789 0.00200116 0)
(-0.0223059 0.0019676 0)
(-0.0229164 0.00192705 0)
(-0.0235081 0.0018791 0)
(-0.0240786 0.0018234 0)
(-0.0246254 0.00175962 0)
(-0.0251461 0.0016875 0)
(-0.0256379 0.0016068 0)
(-0.0260985 0.00151738 0)
(-0.0265251 0.00141912 0)
(-0.0269154 0.001312 0)
(-0.0272669 0.00119603 0)
(-0.0275771 0.00107134 0)
(-0.0278437 0.000938093 0)
(-0.0280646 0.000796553 0)
(-0.0282377 0.000647058 0)
(-0.0283612 0.000490027 0)
(-0.0284332 0.000325965 0)
(-0.0284523 0.00015546 0)
(-0.0284171 -2.08117e-05 0)
(-0.0283266 -0.000202091 0)
(-0.02818 -0.000387534 0)
(-0.0279765 -0.00057621 0)
(-0.027716 -0.000767111 0)
(-0.0273984 -0.000959152 0)
(-0.0270241 -0.00115118 0)
(-0.0265936 -0.00134198 0)
(-0.0261079 -0.00153027 0)
(-0.0255684 -0.00171476 0)
(-0.0249766 -0.00189409 0)
(-0.0243346 -0.00206692 0)
(-0.0236446 -0.0022319 0)
(-0.0229094 -0.0023877 0)
(-0.0221319 -0.00253304 0)
(-0.0213154 -0.00266669 0)
(-0.0204635 -0.0027875 0)
(-0.0195802 -0.00289445 0)
(-0.0186695 -0.00298662 0)
(-0.0177358 -0.00306321 0)
(-0.0167835 -0.00312362 0)
(-0.0158173 -0.00316737 0)
(-0.0148419 -0.0031942 0)
(-0.013862 -0.00320401 0)
(-0.0128824 -0.0031969 0)
(-0.0119078 -0.00317313 0)
(-0.0109427 -0.00313318 0)
(-0.0099916 -0.00307766 0)
(-0.00905873 -0.00300737 0)
(-0.00814811 -0.00292323 0)
(-0.00726348 -0.00282628 0)
(-0.00640829 -0.00271768 0)
(-0.00558569 -0.00259862 0)
(-0.0047985 -0.00247038 0)
(-0.00404917 -0.00233425 0)
(-0.00333983 -0.00219151 0)
(-0.00267226 -0.00204341 0)
(-0.00204792 -0.00189117 0)
(-0.00146793 -0.00173593 0)
(-0.000933145 -0.00157876 0)
(-0.000444118 -0.00142063 0)
(-1.16316e-06 -0.0012624 0)
(0.000395627 -0.00110484 0)
(0.000746358 -0.000948617 0)
(0.00105131 -0.000794293 0)
(0.0013109 -0.000642359 0)
(0.0015257 -0.000493242 0)
(0.00169639 -0.000347331 0)
(0.0018238 -0.000205017 0)
(0.00190887 -6.6727e-05 0)
(0.00195272 6.70127e-05 0)
(0.00195667 0.000195523 0)
(0.00192232 0.000317878 0)
(0.00185158 0.000432814 0)
(0.00174687 0.000538609 0)
(0.00161114 0.00063294 0)
(0.00144811 0.000712741 0)
(0.00126242 0.000774037 0)
(0.00105979 0.000811817 0)
(0.000847326 0.00081997 0)
(0.000633676 0.000791358 0)
(0.000429356 0.000718119 0)
(0.000245606 0.000592319 0)
(0.000103388 0.000406912 0)
(1.21811e-05 0.000157799 0)
(-1.66891e-05 0.000145347 0)
(-0.000158114 0.000494115 0)
(-0.000408837 0.000860579 0)
(-0.000765728 0.00120906 0)
(-0.00120598 0.00152087 0)
(-0.00171766 0.00178707 0)
(-0.00228795 0.00200574 0)
(-0.00290543 0.00217951 0)
(-0.00356027 0.00231354 0)
(-0.00424416 0.0024142 0)
(-0.00495029 0.00248804 0)
(-0.00567323 0.00254121 0)
(-0.00640875 0.00257915 0)
(-0.00715368 0.0026064 0)
(-0.00790571 0.00262662 0)
(-0.00866321 0.00264259 0)
(-0.00942507 0.00265635 0)
(-0.0101906 0.00266929 0)
(-0.0109592 0.0026823 0)
(-0.0117307 0.00269583 0)
(-0.0125048 0.00271004 0)
(-0.0132812 0.00272482 0)
(-0.0140597 0.00273991 0)
(-0.0148399 0.00275491 0)
(-0.0156214 0.00276933 0)
(-0.0164036 0.00278261 0)
(-0.0171858 0.00279415 0)
(-0.0179671 0.00280333 0)
(-0.0187465 0.00280949 0)
(-0.0195228 0.00281196 0)
(-0.0202947 0.00281005 0)
(-0.0210605 0.0028031 0)
(-0.0218187 0.00279042 0)
(-0.0225674 0.00277135 0)
(-0.0233046 0.00274523 0)
(-0.0240281 0.00271141 0)
(-0.0247358 0.0026693 0)
(-0.0254251 0.00261833 0)
(-0.0260937 0.00255795 0)
(-0.026739 0.00248768 0)
(-0.0273583 0.0024071 0)
(-0.0279489 0.00231583 0)
(-0.0285081 0.00221358 0)
(-0.0290333 0.00210012 0)
(-0.0295216 0.00197529 0)
(-0.0299705 0.00183903 0)
(-0.0303774 0.00169137 0)
(-0.0307397 0.0015324 0)
(-0.031055 0.00136234 0)
(-0.031321 0.00118149 0)
(-0.0315356 0.000990237 0)
(-0.0316968 0.000789083 0)
(-0.0318028 0.000578625 0)
(-0.031852 0.000359561 0)
(-0.031843 0.000132695 0)
(-0.0317746 -0.000101069 0)
(-0.0316459 -0.000340726 0)
(-0.0314563 -0.000585167 0)
(-0.0312053 -0.000833186 0)
(-0.0308928 -0.00108348 0)
(-0.0305191 -0.00133467 0)
(-0.0300847 -0.00158527 0)
(-0.0295903 -0.00183374 0)
(-0.0290372 -0.00207848 0)
(-0.0284268 -0.00231782 0)
(-0.0277611 -0.00255008 0)
(-0.0270421 -0.00277357 0)
(-0.0262725 -0.00298659 0)
(-0.0254552 -0.00318747 0)
(-0.0245933 -0.0033746 0)
(-0.0236904 -0.00354645 0)
(-0.0227504 -0.00370159 0)
(-0.0217775 -0.00383873 0)
(-0.0207759 -0.0039567 0)
(-0.0197504 -0.00405454 0)
(-0.0187056 -0.00413147 0)
(-0.0176466 -0.00418692 0)
(-0.0165783 -0.00422055 0)
(-0.0155059 -0.00423225 0)
(-0.0144342 -0.00422214 0)
(-0.0133685 -0.00419059 0)
(-0.0123134 -0.00413819 0)
(-0.0112738 -0.00406573 0)
(-0.0102542 -0.00397423 0)
(-0.00925884 -0.00386486 0)
(-0.00829171 -0.00373897 0)
(-0.0073565 -0.003598 0)
(-0.00645653 -0.00344352 0)
(-0.00559479 -0.00327712 0)
(-0.0047739 -0.00310047 0)
(-0.00399608 -0.00291519 0)
(-0.00326323 -0.0027229 0)
(-0.00257685 -0.00252514 0)
(-0.00193814 -0.00232337 0)
(-0.00134797 -0.00211895 0)
(-0.000806916 -0.00191312 0)
(-0.000315291 -0.00170698 0)
(0.000126817 -0.00150153 0)
(0.000519526 -0.0012976 0)
(0.000863134 -0.00109594 0)
(0.00115809 -0.000897167 0)
(0.00140498 -0.000701848 0)
(0.00160453 -0.000510499 0)
(0.00175758 -0.000323642 0)
(0.00186512 -0.000141862 0)
(0.00192833 3.41301e-05 0)
(0.00194857 0.00020341 0)
(0.00192751 0.000364739 0)
(0.00186718 0.000516443 0)
(0.00177009 0.000656271 0)
(0.00163935 0.00078123 0)
(0.00147884 0.000887409 0)
(0.00129337 0.000969806 0)
(0.00108892 0.00102217 0)
(0.000872846 0.00103691 0)
(0.000654182 0.00100515 0)
(0.000443962 0.000916889 0)
(0.000254125 0.000761526 0)
(0.000106892 0.000528456 0)
(1.25577e-05 0.000208195 0)
(-2.02829e-05 0.000224844 0)
(-0.000189673 0.00071084 0)
(-0.000485618 0.00119417 0)
(-0.000902462 0.00164123 0)
(-0.00141154 0.00203512 0)
(-0.00199834 0.00236868 0)
(-0.00264794 0.00264181 0)
(-0.00334757 0.00285888 0)
(-0.0040865 0.00302682 0)
(-0.00485592 0.00315363 0)
(-0.00564868 0.00324736 0)
(-0.00645911 0.00331553 0)
(-0.00728285 0.00336472 0)
(-0.00811659 0.00340044 0)
(-0.00895791 0.00342711 0)
(-0.00980505 0.00344811 0)
(-0.0106568 0.00346592 0)
(-0.0115122 0.00348227 0)
(-0.0123708 0.00349821 0)
(-0.0132319 0.00351432 0)
(-0.0140953 0.00353079 0)
(-0.0149605 0.0035475 0)
(-0.015827 0.00356413 0)
(-0.0166943 0.00358017 0)
(-0.0175619 0.00359501 0)
(-0.0184288 0.00360798 0)
(-0.0192942 0.00361831 0)
(-0.0201569 0.00362522 0)
(-0.0210158 0.00362787 0)
(-0.0218694 0.00362545 0)
(-0.0227161 0.00361709 0)
(-0.0235541 0.00360196 0)
(-0.0243815 0.00357921 0)
(-0.0251962 0.00354801 0)
(-0.025996 0.00350757 0)
(-0.0267784 0.00345712 0)
(-0.027541 0.00339592 0)
(-0.0282812 0.00332331 0)
(-0.0289962 0.00323865 0)
(-0.0296834 0.0031414 0)
(-0.0303398 0.00303109 0)
(-0.0309628 0.00290731 0)
(-0.0315493 0.00276977 0)
(-0.0320967 0.00261826 0)
(-0.0326021 0.00245267 0)
(-0.033063 0.00227301 0)
(-0.0334766 0.00207937 0)
(-0.0338405 0.00187199 0)
(-0.0341524 0.00165119 0)
(-0.0344101 0.00141741 0)
(-0.0346115 0.00117122 0)
(-0.0347547 0.000913308 0)
(-0.0348382 0.000644455 0)
(-0.0348605 0.000365578 0)
(-0.0348204 7.77048e-05 0)
(-0.0347169 -0.00021802 0)
(-0.0345493 -0.000520336 0)
(-0.0343171 -0.000827871 0)
(-0.0340201 -0.00113914 0)
(-0.0336583 -0.00145255 0)
(-0.0332322 -0.00176641 0)
(-0.0327423 -0.00207893 0)
(-0.0321898 -0.00238824 0)
(-0.0315759 -0.0026924 0)
(-0.0309022 -0.00298941 0)
(-0.0301707 -0.00327724 0)
(-0.0293838 -0.00355384 0)
(-0.0285441 -0.00381717 0)
(-0.0276547 -0.00406521 0)
(-0.0267189 -0.00429603 0)
(-0.0257405 -0.00450776 0)
(-0.0247236 -0.00469869 0)
(-0.0236723 -0.00486723 0)
(-0.0225914 -0.005012 0)
(-0.0214856 -0.0051318 0)
(-0.0203601 -0.0052257 0)
(-0.0192199 -0.00529301 0)
(-0.0180705 -0.00533331 0)
(-0.016917 -0.00534647 0)
(-0.015765 -0.00533264 0)
(-0.0146197 -0.00529227 0)
(-0.0134863 -0.0052261 0)
(-0.0123697 -0.00513511 0)
(-0.0112749 -0.00502053 0)
(-0.0102062 -0.00488384 0)
(-0.00916809 -0.00472666 0)
(-0.00816428 -0.00455082 0)
(-0.00719833 -0.00435821 0)
(-0.00627337 -0.00415083 0)
(-0.00539214 -0.00393071 0)
(-0.00455695 -0.00369987 0)
(-0.00376974 -0.00346029 0)
(-0.00303205 -0.00321389 0)
(-0.00234507 -0.00296245 0)
(-0.00170964 -0.00270764 0)
(-0.0011263 -0.00245101 0)
(-0.000595307 -0.00219389 0)
(-0.000116678 -0.0019375 0)
(0.000309777 -0.00168288 0)
(0.000684432 -0.00143093 0)
(0.00100781 -0.00118242 0)
(0.00128058 -0.000938047 0)
(0.00150351 -0.000698452 0)
(0.00167754 -0.000464295 0)
(0.0018037 -0.000236314 0)
(0.00188322 -1.54134e-05 0)
(0.00191754 0.000197233 0)
(0.00190838 0.000400061 0)
(0.00185785 0.000590975 0)
(0.00176851 0.000767177 0)
(0.00164358 0.000924985 0)
(0.00148702 0.00105963 0)
(0.00130378 0.00116504 0)
(0.00109997 0.0012337 0)
(0.00088316 0.00125647 0)
(0.00066267 0.0012226 0)
(0.000449936 0.00111982 0)
(0.000257419 0.000934636 0)
(0.000108074 0.000652743 0)
(1.26502e-05 0.000259572 0)
(-2.36615e-05 0.000318774 0)
(-0.000219497 0.000963867 0)
(-0.000558495 0.00157997 0)
(-0.00103264 0.00213672 0)
(-0.00160766 0.00262024 0)
(-0.00226647 0.00302617 0)
(-0.00299201 0.00335701 0)
(-0.00377008 0.00361954 0)
(-0.00458904 0.00382284 0)
(-0.00543953 0.00397682 0)
(-0.00631405 0.00409122 0)
(-0.00720677 0.004175 0)
(-0.00811319 0.00423593 0)
(-0.0090299 0.0042805 0)
(-0.00995441 0.00431391 0)
(-0.0108849 0.00434012 0)
(-0.0118199 0.00436206 0)
(-0.0127586 0.00438172 0)
(-0.0137002 0.00440037 0)
(-0.0146439 0.00441868 0)
(-0.0155894 0.00443687 0)
(-0.0165359 0.00445478 0)
(-0.0174829 0.00447203 0)
(-0.0184296 0.004488 0)
(-0.0193752 0.00450198 0)
(-0.0203186 0.00451311 0)
(-0.0212589 0.00452049 0)
(-0.0221945 0.00452316 0)
(-0.0231241 0.00452013 0)
(-0.024046 0.00451038 0)
(-0.0249584 0.0044929 0)
(-0.0258592 0.00446667 0)
(-0.0267463 0.00443068 0)
(-0.0276173 0.00438397 0)
(-0.0284699 0.00432558 0)
(-0.0293013 0.00425463 0)
(-0.030109 0.00417028 0)
(-0.03089 0.00407176 0)
(-0.0316416 0.00395838 0)
(-0.0323609 0.00382956 0)
(-0.0330448 0.0036848 0)
(-0.0336906 0.00352369 0)
(-0.0342954 0.00334598 0)
(-0.0348562 0.0031515 0)
(-0.0353704 0.00294022 0)
(-0.0358354 0.00271225 0)
(-0.0362485 0.0024678 0)
(-0.0366075 0.00220724 0)
(-0.0369101 0.00193105 0)
(-0.0371544 0.00163985 0)
(-0.0373383 0.00133439 0)
(-0.0374604 0.00101554 0)
(-0.0375191 0.000684315 0)
(-0.0375132 0.000341836 0)
(-0.0374417 -1.06369e-05 0)
(-0.0373038 -0.000371722 0)
(-0.037099 -0.000739911 0)
(-0.036827 -0.00111357 0)
(-0.0364876 -0.00149096 0)
(-0.0360813 -0.0018702 0)
(-0.0356083 -0.00224931 0)
(-0.0350695 -0.00262621 0)
(-0.0344659 -0.00299871 0)
(-0.0337989 -0.00336455 0)
(-0.0330701 -0.00372139 0)
(-0.0322817 -0.00406687 0)
(-0.0314358 -0.00439857 0)
(-0.0305354 -0.00471411 0)
(-0.0295834 -0.00501112 0)
(-0.0285833 -0.00528732 0)
(-0.0275388 -0.0055405 0)
(-0.0264541 -0.00576863 0)
(-0.0253336 -0.00596983 0)
(-0.0241822 -0.00614243 0)
(-0.0230048 -0.00628502 0)
(-0.0218067 -0.00639646 0)
(-0.0205933 -0.00647593 0)
(-0.0193703 -0.0065229 0)
(-0.0181433 -0.00653721 0)
(-0.0169181 -0.00651905 0)
(-0.0157001 -0.00646894 0)
(-0.0144951 -0.00638774 0)
(-0.0133083 -0.00627664 0)
(-0.0121449 -0.00613714 0)
(-0.0110097 -0.00597099 0)
(-0.00990732 -0.00578018 0)
(-0.00884179 -0.00556688 0)
(-0.00781689 -0.0053334 0)
(-0.0068359 -0.00508216 0)
(-0.00590168 -0.00481559 0)
(-0.00501664 -0.00453616 0)
(-0.00418273 -0.00424624 0)
(-0.00340151 -0.00394813 0)
(-0.0026741 -0.00364401 0)
(-0.00200128 -0.00333588 0)
(-0.00138349 -0.00302556 0)
(-0.000820858 -0.00271469 0)
(-0.000313269 -0.0024047 0)
(0.000139611 -0.00209683 0)
(0.000538302 -0.00179213 0)
(0.00088347 -0.00149154 0)
(0.00117591 -0.00119587 0)
(0.00141655 -0.000905872 0)
(0.00160639 -0.000622341 0)