/*--------------------------------*- C++ -*----------------------------------*\
| =========                 |                                                 |
| \\      /  F ield         | OpenFOAM: The Open Source CFD Toolbox           |
|  \\    /   O peration     | Version:  2406                                  |
|   \\  /    A nd           | Website:  www.openfoam.com                      |
|    \\/     M anipulation  |                                                 |
\*---------------------------------------------------------------------------*/
FoamFile
{
    version     2.0;
    format      ascii;
    arch        "LSB;label=32;scalar=64";
    class       volVectorField;
    location    "22.2";
    object      U;
}
// * * * * * * * * * * * * * * * * * * * * * * * * * * * * * * * * * * * * * //

dimensions      [0 1 -1 0 0 0 0];

internalField   nonuniform List<vector> 
3600
(
(1.18403e-05 -1.26751e-05 0)
(0.000182123 -7.84349e-05 0)
(0.000474748 -0.000103102 0)
(0.000763722 -9.91423e-05 0)
(0.00102824 -8.06649e-05 0)
(0.00121409 -5.77771e-05 0)
(0.00133719 -3.5507e-05 0)
(0.00137593 -1.35533e-05 0)
(0.0013445 6.75991e-06 0)
(0.00123014 2.70547e-05 0)
(0.00103977 4.61551e-05 0)
(0.000764934 6.56032e-05 0)
(0.000406072 8.51287e-05 0)
(-4.63989e-05 0.000107074 0)
(-0.00060178 0.000132466 0)
(-0.00127669 0.000163973 0)
(-0.00209075 0.000202614 0)
(-0.00306586 0.000249826 0)
(-0.00422389 0.000305066 0)
(-0.00558113 0.000367449 0)
(-0.00714684 0.00043408 0)
(-0.00891578 0.000501359 0)
(-0.0108674 0.000563804 0)
(-0.0129588 0.00061515 0)
(-0.0151255 0.000647601 0)
(-0.0172768 0.000652926 0)
(-0.0193013 0.000622254 0)
(-0.0210678 0.000547656 0)
(-0.0224366 0.000422904 0)
(-0.0232665 0.000245735 0)
(-0.0234319 1.89179e-05 0)
(-0.0228317 -0.000248119 0)
(-0.0214074 -0.000539543 0)
(-0.0191487 -0.000833423 0)
(-0.0161079 -0.00110399 0)
(-0.0123956 -0.00132399 0)
(-0.00818651 -0.00146843 0)
(-0.00370056 -0.00151814 0)
(0.000802416 -0.00146353 0)
(0.00505888 -0.00130721 0)
(0.00881331 -0.00106478 0)
(0.0118648 -0.000763699 0)
(0.0140698 -0.000438466 0)
(0.0153824 -0.000125436 0)
(0.0158271 0.000145227 0)
(0.0155207 0.000352968 0)
(0.0146102 0.000491104 0)
(0.0132888 0.000562913 0)
(0.0117167 0.000580981 0)
(0.0100615 0.000559238 0)
(0.00841712 0.000513833 0)
(0.00688288 0.000455736 0)
(0.00547379 0.000396762 0)
(0.00423495 0.000340684 0)
(0.00312835 0.000294765 0)
(0.00217964 0.000252758 0)
(0.00134288 0.000215747 0)
(0.000671743 0.000157731 0)
(0.000183873 7.98487e-05 0)
(-3.04982e-05 -3.30277e-05 0)
(7.93396e-05 -0.000182227 0)
(0.000464789 -0.000458771 0)
(0.00102973 -0.000549961 0)
(0.00156269 -0.000511177 0)
(0.00202713 -0.000404655 0)
(0.00232919 -0.000264291 0)
(0.00247756 -0.000115396 0)
(0.00242871 4.38968e-05 0)
(0.00218762 0.000206158 0)
(0.00172281 0.000378825 0)
(0.00102703 0.000557205 0)
(7.2501e-05 0.000748441 0)
(-0.00115918 0.000952203 0)
(-0.00269965 0.00117848 0)
(-0.0045818 0.00143166 0)
(-0.00684614 0.00172128 0)
(-0.00953445 0.00204886 0)
(-0.0126832 0.00241472 0)
(-0.0163176 0.00280874 0)
(-0.0204379 0.00321575 0)
(-0.0250144 0.00360995 0)
(-0.029974 0.00396002 0)
(-0.0352 0.00422663 0)
(-0.0405262 0.00436819 0)
(-0.0457473 0.00434135 0)
(-0.0506238 0.00410807 0)
(-0.0549032 0.0036384 0)
(-0.0583321 0.00291759 0)
(-0.0606798 0.00194804 0)
(-0.0617485 0.000753566 0)
(-0.0613923 -0.000622038 0)
(-0.0595212 -0.00211453 0)
(-0.0561148 -0.00364392 0)
(-0.0512198 -0.00511703 0)
(-0.044961 -0.00643505 0)
(-0.0375314 -0.007499 0)
(-0.0292004 -0.00822021 0)
(-0.0202921 -0.00852856 0)
(-0.0111874 -0.00838421 0)
(-0.0022847 -0.00778509 0)
(0.00600571 -0.00677345 0)
(0.0133193 -0.00543488 0)
(0.019341 -0.00389061 0)
(0.0238717 -0.0022829 0)
(0.0268076 -0.000752722 0)
(0.0281964 0.000579335 0)
(0.0281709 0.00163352 0)
(0.0269876 0.00237443 0)
(0.0249139 0.00281357 0)
(0.0222738 0.00299163 0)
(0.0193119 0.00297173 0)
(0.0162853 0.00281508 0)
(0.0133178 0.00258485 0)
(0.0105578 0.00232052 0)
(0.00800958 0.00206116 0)
(0.00575627 0.00180055 0)
(0.00375286 0.00154205 0)
(0.00210759 0.00120641 0)
(0.000826408 0.000785727 0)
(9.88873e-05 0.000194438 0)
(0.000109546 -0.000484729 0)
(0.000569184 -0.00102896 0)
(0.00120335 -0.00118562 0)
(0.00175611 -0.0010665 0)
(0.00218808 -0.000808615 0)
(0.00239109 -0.000467388 0)
(0.00236287 -9.49893e-05 0)
(0.00204313 0.000316445 0)
(0.00141579 0.000753089 0)
(0.00042783 0.00123171 0)
(-0.000954222 0.00174481 0)
(-0.00278274 0.00230751 0)
(-0.00510483 0.00292053 0)
(-0.00797789 0.00360283 0)
(-0.0114611 0.0043613 0)
(-0.0156129 0.00520852 0)
(-0.0204839 0.00613781 0)
(-0.0261007 0.00713377 0)
(-0.0324576 0.00815581 0)
(-0.0394961 0.00914817 0)
(-0.0471027 0.0100327 0)
(-0.055097 0.0107218 0)
(-0.0632447 0.0111192 0)
(-0.0712627 0.0111365 0)
(-0.0788475 0.010698 0)
(-0.0856889 0.00975479 0)
(-0.0914983 0.00828709 0)
(-0.0960166 0.00631008 0)
(-0.0990315 0.0038702 0)
(-0.100376 0.00104567 0)
(-0.099936 -0.00205995 0)
(-0.0976489 -0.00531857 0)
(-0.0935083 -0.00858453 0)
(-0.0875614 -0.0116962 0)
(-0.0799216 -0.0144855 0)
(-0.0707626 -0.0167827 0)
(-0.0603339 -0.0184316 0)
(-0.0489472 -0.0193005 0)
(-0.0369877 -0.0193019 0)
(-0.0248828 -0.0184055 0)
(-0.0131031 -0.0166543 0)
(-0.00210633 -0.0141677 0)
(0.00766798 -0.0111379 0)
(0.0158741 -0.00781013 0)
(0.0222509 -0.0044536 0)
(0.0266975 -0.00132555 0)
(0.0292218 0.00136557 0)
(0.0300007 0.00348299 0)
(0.0292717 0.0049761 0)
(0.0273894 0.00586947 0)
(0.024669 0.00625029 0)
(0.0214757 0.00623366 0)
(0.0180422 0.00595003 0)
(0.0146319 0.00550464 0)
(0.0113306 0.00498981 0)
(0.00830539 0.00442664 0)
(0.00554297 0.00382209 0)
(0.00321854 0.00306226 0)
(0.00133196 0.00209233 0)
(0.000204336 0.00074137 0)
(0.000113082 -0.000790958 0)
(0.000539855 -0.00156317 0)
(0.00107666 -0.00172981 0)
(0.00146569 -0.00147095 0)
(0.00167146 -0.00100652 0)
(0.00158698 -0.000401918 0)
(0.00119422 0.000269779 0)
(0.000415721 0.00103059 0)
(-0.000795368 0.0018631 0)
(-0.00251822 0.00279631 0)
(-0.00482137 0.00382079 0)
(-0.00778638 0.00496058 0)
(-0.0114951 0.00621669 0)
(-0.0160311 0.00761386 0)
(-0.0214767 0.00915377 0)
(-0.0278947 0.0108387 0)
(-0.0353222 0.0126341 0)
(-0.0437417 0.014484 0)
(-0.053077 0.0162904 0)
(-0.0631714 0.0179324 0)
(-0.0738009 0.0192629 0)
(-0.084675 0.0201354 0)
(-0.0954706 0.0204119 0)
(-0.105847 0.019987 0)
(-0.11548 0.0187916 0)
(-0.124069 0.0168033 0)
(-0.131356 0.0140396 0)
(-0.137116 0.0105584 0)
(-0.14117 0.00644853 0)
(-0.143368 0.00182958 0)
(-0.143603 -0.00315509 0)
(-0.141795 -0.00833613 0)
(-0.137907 -0.0135239 0)
(-0.13194 -0.0185064 0)
(-0.123952 -0.0230581 0)
(-0.114053 -0.0269432 0)
(-0.102433 -0.0299335 0)
(-0.0893541 -0.0318211 0)
(-0.0751733 -0.0324469 0)
(-0.0603198 -0.0317202 0)
(-0.0453032 -0.029648 0)
(-0.0306617 -0.026345 0)
(-0.0169518 -0.0220409 0)
(-0.00466494 -0.0170586 0)
(0.00577855 -0.0117828 0)
(0.0141192 -0.00660876 0)
(0.0202197 -0.00189116 0)
(0.0241379 0.00209932 0)
(0.0260244 0.00520405 0)
(0.02619 0.00737967 0)
(0.0249486 0.00868742 0)
(0.0227115 0.00925963 0)
(0.0197837 0.00927222 0)
(0.0165293 0.00889533 0)
(0.0131238 0.00828163 0)
(0.00983474 0.00750332 0)
(0.00670349 0.00658278 0)
(0.00398537 0.00539676 0)
(0.00169564 0.00380969 0)
(0.000280531 0.00152622 0)
(9.93725e-05 -0.00108397 0)
(0.00041574 -0.00201218 0)
(0.000736373 -0.00211316 0)
(0.000832004 -0.00164467 0)
(0.000668958 -0.000907425 0)
(0.000149171 3.67356e-05 0)
(-0.000770296 0.00110318 0)
(-0.0021858 0.00233727 0)
(-0.00418483 0.00372152 0)
(-0.0068759 0.0052998 0)
(-0.0103696 0.00706126 0)
(-0.0147779 0.00903858 0)
(-0.0202186 0.0112299 0)
(-0.0267946 0.0136578 0)
(-0.0345983 0.0163038 0)
(-0.0436724 0.019137 0)
(-0.0540089 0.0220663 0)
(-0.0655096 0.0249643 0)
(-0.0779983 0.0276499 0)
(-0.091206 0.0299237 0)
(-0.10481 0.0315754 0)
(-0.118447 0.0324228 0)
(-0.131756 0.0323203 0)
(-0.144389 0.0311796 0)
(-0.156037 0.0289622 0)
(-0.166424 0.0256836 0)
(-0.175318 0.0213984 0)
(-0.18252 0.0162001 0)
(-0.187867 0.0102096 0)
(-0.19122 0.00357719 0)
(-0.19247 -0.0035246 0)
(-0.191523 -0.0108954 0)
(-0.188316 -0.0183114 0)
(-0.182803 -0.0255193 0)
(-0.174977 -0.0322431 0)
(-0.16487 -0.0381835 0)
(-0.152585 -0.0430354 0)
(-0.138296 -0.046501 0)
(-0.122288 -0.0483239 0)
(-0.104949 -0.048317 0)
(-0.086795 -0.0464074 0)
(-0.0684307 -0.042661 0)
(-0.050537 -0.0373078 0)
(-0.03378 -0.0307275 0)
(-0.0187784 -0.0234191 0)
(-0.00598769 -0.0159322 0)
(0.0042898 -0.00879624 0)
(0.0119872 -0.00244813 0)
(0.0171723 0.00281079 0)
(0.0201083 0.00683503 0)
(0.0210911 0.00962252 0)
(0.0205463 0.0112902 0)
(0.0188186 0.0120301 0)
(0.016342 0.0120646 0)
(0.0133676 0.0116003 0)
(0.0102559 0.0107735 0)
(0.00711645 0.00962794 0)
(0.004291 0.00805034 0)
(0.00183881 0.00580697 0)
(0.000305857 0.00246355 0)
(7.50956e-05 -0.0012808 0)
(0.000217537 -0.0022234 0)
(0.000217827 -0.00215021 0)
(-9.61876e-05 -0.00138976 0)
(-0.000758812 -0.000307355 0)
(-0.00185445 0.00105825 0)
(-0.00346364 0.00262607 0)
(-0.00570546 0.00447406 0)
(-0.00871857 0.00658816 0)
(-0.012643 0.00902743 0)
(-0.0176361 0.011778 0)
(-0.0238369 0.0148767 0)
(-0.0313937 0.0183096 0)
(-0.0404111 0.0220797 0)
(-0.0509657 0.0261229 0)
(-0.0630428 0.030343 0)
(-0.0765498 0.0345602 0)
(-0.0912743 0.0385529 0)
(-0.106925 0.0420511 0)
(-0.123126 0.044792 0)
(-0.139484 0.0465329 0)
(-0.155588 0.0470922 0)
(-0.171064 0.0463462 0)
(-0.185568 0.044243 0)
(-0.19881 0.0407854 0)
(-0.210546 0.0360315 0)
(-0.22059 0.0300761 0)
(-0.228789 0.0230491 0)
(-0.23504 0.0151011 0)
(-0.239251 0.00640556 0)
(-0.241356 -0.00284903 0)
(-0.241283 -0.0124508 0)
(-0.238966 -0.0221666 0)
(-0.234324 -0.0317298 0)
(-0.227284 -0.0408423 0)
(-0.217776 -0.0491661 0)
(-0.20577 -0.0563353 0)
(-0.191287 -0.0619638 0)
(-0.174457 -0.0656802 0)
(-0.15553 -0.0671608 0)
(-0.134933 -0.0661903 0)
(-0.113259 -0.0627082 0)
(-0.0912731 -0.0568656 0)
(-0.0698282 -0.0490358 0)
(-0.0498067 -0.0398033 0)
(-0.0319613 -0.0298838 0)
(-0.0168624 -0.020027 0)
(-0.00477329 -0.010894 0)
(0.00426739 -0.002982 0)
(0.0104851 0.00342362 0)
(0.014181 0.00822904 0)
(0.0158067 0.0115124 0)
(0.015746 0.0134572 0)
(0.0144877 0.014319 0)
(0.0123473 0.0143434 0)
(0.00976272 0.0137291 0)
(0.006917 0.0125422 0)
(0.00422972 0.010688 0)
(0.00182253 0.0078349 0)
(0.000301169 0.00341658 0)
(4.19624e-05 -0.00138688 0)
(-4.4152e-05 -0.00217492 0)
(-0.000450568 -0.00180189 0)
(-0.00127013 -0.000656106 0)
(-0.0025442 0.000859265 0)
(-0.004344 0.00275295 0)
(-0.00680283 0.00496434 0)
(-0.0100663 0.00761112 0)
(-0.0143328 0.0106838 0)
(-0.019772 0.0142539 0)
(-0.0265871 0.0182994 0)
(-0.034933 0.0228509 0)
(-0.0449711 0.0278649 0)
(-0.056777 0.0332968 0)
(-0.070373 0.0390017 0)
(-0.0856429 0.0447823 0)
(-0.102374 0.0503447 0)
(-0.120218 0.0553658 0)
(-0.138766 0.0594999 0)
(-0.157545 0.0624476 0)
(-0.176096 0.0639631 0)
(-0.19397 0.0638898 0)
(-0.210789 0.0621473 0)
(-0.226226 0.05874 0)
(-0.240049 0.0537326 0)
(-0.252091 0.0472457 0)
(-0.262264 0.0394298 0)
(-0.270526 0.03046 0)
(-0.276878 0.0205164 0)
(-0.281327 0.00978724 0)
(-0.283885 -0.0015402 0)
(-0.284533 -0.0132666 0)
(-0.283227 -0.0251802 0)
(-0.279871 -0.0370369 0)
(-0.274336 -0.0485561 0)
(-0.266444 -0.0594013 0)
(-0.256011 -0.0691826 0)
(-0.242856 -0.0774523 0)
(-0.226869 -0.0837318 0)
(-0.208047 -0.0875408 0)
(-0.186582 -0.0884652 0)
(-0.162892 -0.0862258 0)
(-0.137687 -0.0807728 0)
(-0.111915 -0.072347 0)
(-0.0867244 -0.0615198 0)
(-0.0632685 -0.0491395 0)
(-0.0425657 -0.0362206 0)
(-0.0252732 -0.0237534 0)
(-0.0116738 -0.0125484 0)
(-0.00163068 -0.00311883 0)
(0.00518685 0.00430383 0)
(0.00930446 0.0097452 0)
(0.0111915 0.0133759 0)
(0.0114125 0.0154818 0)
(0.0103572 0.0163412 0)
(0.00853412 0.0162114 0)
(0.00620205 0.0151809 0)
(0.00384623 0.0131772 0)
(0.00165808 0.00978699 0)
(0.000266539 0.00433384 0)
(-3.17483e-06 -0.0013308 0)
(-0.000379247 -0.00173989 0)
(-0.00128316 -0.000918613 0)
(-0.00270739 0.000719017 0)
(-0.00470968 0.00277113 0)
(-0.00735108 0.0053235 0)
(-0.0108333 0.00835281 0)
(-0.0153304 0.0120195 0)
(-0.0211055 0.0163156 0)
(-0.0283504 0.0213165 0)
(-0.0373058 0.0269806 0)
(-0.0481201 0.0333122 0)
(-0.0609373 0.0402085 0)
(-0.0757582 0.0475386 0)
(-0.0925019 0.0550375 0)
(-0.110903 0.0623772 0)
(-0.130596 0.0691397 0)
(-0.151078 0.0749104 0)
(-0.171815 0.0792928 0)
(-0.192234 0.081981 0)
(-0.211824 0.0827594 0)
(-0.230127 0.081534 0)
(-0.246807 0.0783086 0)
(-0.261627 0.0731847 0)
(-0.274483 0.0663226 0)
(-0.285354 0.057928 0)
(-0.294309 0.0482161 0)
(-0.301453 0.0374038 0)
(-0.306923 0.0256883 0)
(-0.31084 0.0132523 0)
(-0.31331 0.000256977 0)
(-0.314384 -0.0131409 0)
(-0.314061 -0.0267852 0)
(-0.312262 -0.0404953 0)
(-0.308833 -0.0540552 0)
(-0.303529 -0.0671847 0)
(-0.296037 -0.0795289 0)
(-0.285981 -0.0906379 0)
(-0.272982 -0.0999747 0)
(-0.256701 -0.106928 0)
(-0.236946 -0.11087 0)
(-0.21376 -0.111231 0)
(-0.187538 -0.107623 0)
(-0.159075 -0.0999602 0)
(-0.129591 -0.0885849 0)
(-0.100589 -0.074303 0)
(-0.0736636 -0.0583289 0)
(-0.0501489 -0.042062 0)
(-0.0308986 -0.0268149 0)
(-0.0161051 -0.0135318 0)
(-0.00549479 -0.00271916 0)
(0.00155869 0.00554304 0)
(0.00568617 0.0114109 0)
(0.00759339 0.0152171 0)
(0.00779157 0.0172858 0)
(0.00687699 0.0179386 0)
(0.00519626 0.0172925 0)
(0.00329127 0.0153 0)
(0.00142501 0.011493 0)
(0.000222387 0.00512273 0)
(-6.09546e-05 -0.00110922 0)
(-0.000788025 -0.000891323 0)
(-0.00227579 0.000537878 0)
(-0.0043967 0.00278371 0)
(-0.00723869 0.00549629 0)
(-0.0108577 0.00887001 0)
(-0.0155385 0.0129327 0)
(-0.0214811 0.0178839 0)
(-0.0290111 0.0237086 0)
(-0.038327 0.0304705 0)
(-0.049687 0.0380885 0)
(-0.0631964 0.0465081 0)
(-0.0789366 0.0555258 0)
(-0.096777 0.064878 0)
(-0.116481 0.0741426 0)
(-0.137589 0.0828415 0)
(-0.159556 0.0904365 0)
(-0.181709 0.0964427 0)
(-0.203394 0.100448 0)
(-0.223973 0.102187 0)
(-0.242941 0.101531 0)
(-0.259914 0.0985105 0)
(-0.274696 0.0932679 0)
(-0.287223 0.0860403 0)
(-0.297585 0.077103 0)
(-0.305943 0.0667482 0)
(-0.312535 0.0552441 0)
(-0.317601 0.0428312 0)
(-0.321396 0.0297024 0)
(-0.324129 0.0160152 0)
(-0.325982 0.00188627 0)
(-0.327066 -0.0125864 0)
(-0.327437 -0.0273202 0)
(-0.327058 -0.04222 0)
(-0.325809 -0.0571662 0)
(-0.323448 -0.0719798 0)
(-0.319629 -0.0864036 0)
(-0.313872 -0.100064 0)
(-0.305605 -0.112458 0)
(-0.294184 -0.122933 0)
(-0.278998 -0.130718 0)
(-0.25957 -0.134969 0)
(-0.235727 -0.134895 0)
(-0.207752 -0.129914 0)
(-0.176533 -0.11986 0)
(-0.14357 -0.105157 0)
(-0.11087 -0.0869269 0)
(-0.0805635 -0.0668569 0)
(-0.0544714 -0.0468916 0)
(-0.0336062 -0.0287188 0)
(-0.0181041 -0.0134399 0)
(-0.00735853 -0.00143031 0)
(-0.000530017 0.00739988 0)
(0.00332452 0.0134543 0)
(0.0049274 0.0171442 0)
(0.00501819 0.018887 0)
(0.00406253 0.0188538 0)
(0.00266688 0.0170354 0)
(0.00116686 0.0129442 0)
(0.000175713 0.00579412 0)
(-0.000136999 -0.000642603 0)
(-0.00128732 0.000500324 0)
(-0.00345325 0.00271335 0)
(-0.00636878 0.00569739 0)
(-0.0101685 0.00921787 0)
(-0.0149079 0.0136086 0)
(-0.0209646 0.0189556 0)
(-0.0285553 0.0254848 0)
(-0.0380581 0.0331569 0)
(-0.0496515 0.0419985 0)
(-0.063579 0.0518565 0)
(-0.0798524 0.0625717 0)
(-0.0984331 0.0737898 0)
(-0.118997 0.0850682 0)
(-0.141099 0.0958011 0)
(-0.164053 0.105358 0)
(-0.187121 0.113103 0)
(-0.209481 0.118528 0)
(-0.230425 0.121275 0)
(-0.24934 0.1212 0)
(-0.265856 0.118347 0)
(-0.279777 0.112935 0)
(-0.291142 0.105285 0)
(-0.300115 0.0957778 0)
(-0.306991 0.0847895 0)
(-0.312095 0.0726698 0)
(-0.315788 0.0597057 0)
(-0.31839 0.0461281 0)
(-0.320208 0.032099 0)
(-0.321479 0.017732 0)
(-0.32241 0.00309078 0)
(-0.32314 -0.011788 0)
(-0.323763 -0.0268923 0)
(-0.324299 -0.04221 0)
(-0.3247 -0.0577213 0)
(-0.324811 -0.0733662 0)
(-0.324362 -0.0890236 0)
(-0.322922 -0.104466 0)
(-0.3199 -0.119324 0)
(-0.314523 -0.13304 0)
(-0.305894 -0.144844 0)
(-0.29306 -0.153758 0)
(-0.275193 -0.158669 0)
(-0.25179 -0.15846 0)
(-0.222947 -0.152262 0)
(-0.189573 -0.139736 0)
(-0.153504 -0.121395 0)
(-0.117324 -0.0987393 0)
(-0.0839022 -0.0741293 0)
(-0.0556019 -0.0501982 0)
(-0.0336614 -0.0291329 0)
(-0.0179692 -0.0120705 0)
(-0.00760582 0.000776099 0)
(-0.00132201 0.00985019 0)
(0.00193629 0.015703 0)
(0.00315094 0.018914 0)
(0.00296905 0.0197616 0)
(0.00209465 0.018309 0)
(0.00094716 0.0140917 0)
(0.000141733 0.00632567 0)
(-0.000230517 8.45188e-05 0)
(-0.00187211 0.00246957 0)
(-0.0048026 0.00564658 0)
(-0.00860036 0.00950595 0)
(-0.0134655 0.0140016 0)
(-0.019455 0.0196315 0)
(-0.0270434 0.0265378 0)
(-0.036446 0.0349491 0)
(-0.0480727 0.0447766 0)
(-0.0620441 0.055973 0)
(-0.0785429 0.0682681 0)
(-0.0974257 0.0813411 0)
(-0.118472 0.0946331 0)
(-0.141106 0.107484 0)
(-0.164645 0.119095 0)
(-0.188168 0.128707 0)
(-0.210794 0.13565 0)
(-0.231645 0.139483 0)
(-0.250094 0.140011 0)
(-0.265708 0.137316 0)
(-0.27838 0.131686 0)
(-0.288194 0.123558 0)
(-0.295457 0.113422 0)
(-0.300544 0.101766 0)
(-0.303907 0.0890152 0)
(-0.305954 0.0755226 0)
(-0.307081 0.061546 0)
(-0.307599 0.0472708 0)
(-0.307783 0.0328063 0)
(-0.307828 0.0182155 0)
(-0.307907 0.00351423 0)
(-0.308135 -0.0113047 0)
(-0.308616 -0.0262746 0)
(-0.309406 -0.0414356 0)
(-0.310538 -0.056836 0)
(-0.311974 -0.0725098 0)
(-0.313604 -0.0884637 0)
(-0.315177 -0.104637 0)
(-0.316276 -0.120861 0)
(-0.316247 -0.13679 0)
(-0.314192 -0.15184 0)
(-0.308961 -0.165127 0)
(-0.299261 -0.17545 0)
(-0.283825 -0.181354 0)
(-0.261732 -0.181305 0)
(-0.232764 -0.174014 0)
(-0.197797 -0.158894 0)
(-0.158997 -0.136516 0)
(-0.119672 -0.108916 0)
(-0.0835482 -0.0793287 0)
(-0.0536674 -0.0513418 0)
(-0.0313433 -0.0275959 0)
(-0.0161374 -0.00922781 0)
(-0.00659736 0.00400221 0)
(-0.00123173 0.0127935 0)
(0.00131853 0.0179819 0)
(0.00198207 0.0200445 0)
(0.00162918 0.0191841 0)
(0.000791155 0.0150131 0)
(0.000124198 0.00677968 0)
(-0.000346871 0.00115976 0)
(-0.00255397 0.00514737 0)
(-0.00633527 0.00947891 0)
(-0.0111002 0.0143637 0)
(-0.0171317 0.0200251 0)
(-0.0244854 0.0271402 0)
(-0.0337266 0.0358921 0)
(-0.0450417 0.046476 0)
(-0.0588416 0.0587161 0)
(-0.0751411 0.0724411 0)
(-0.0940075 0.0872071 0)
(-0.115078 0.10247 0)
(-0.137896 0.11742 0)
(-0.161604 0.131165 0)
(-0.185288 0.142744 0)
(-0.207862 0.151345 0)
(-0.228422 0.156379 0)
(-0.246202 0.15761 0)
(-0.260821 0.155126 0)
(-0.272166 0.149309 0)
(-0.280462 0.14071 0)
(-0.286083 0.129957 0)
(-0.289557 0.117646 0)
(-0.291385 0.104298 0)
(-0.292069 0.0903121 0)
(-0.291999 0.0759831 0)
(-0.291509 0.0614961 0)
(-0.290822 0.0469646 0)
(-0.29012 0.0324367 0)
(-0.28951 0.0179282 0)
(-0.289093 0.0034223 0)
(-0.288933 -0.011109 0)
(-0.289109 -0.025713 0)
(-0.289687 -0.0404441 0)
(-0.290747 -0.0553735 0)
(-0.292346 -0.0705789 0)
(-0.294527 -0.0861438 0)
(-0.297248 -0.102135 0)
(-0.300364 -0.11857 0)
(-0.30352 -0.13536 0)
(-0.306101 -0.152221 0)
(-0.307134 -0.168576 0)
(-0.305287 -0.183448 0)
(-0.298917 -0.195399 0)
(-0.286296 -0.202574 0)
(-0.265977 -0.202908 0)
(-0.237336 -0.194568 0)
(-0.201133 -0.1766 0)
(-0.159904 -0.149682 0)
(-0.117796 -0.11655 0)
(-0.0795885 -0.0816953 0)
(-0.048967 -0.0497951 0)
(-0.027162 -0.0239807 0)
(-0.0130906 -0.00495414 0)
(-0.00484998 0.00793425 0)
(-0.000569939 0.0158563 0)
(0.00109574 0.0196099 0)
(0.00129137 0.0196478 0)
(0.000716032 0.0157306 0)
(0.00012833 0.0071781 0)
(-0.000481278 0.00259984 0)
(-0.00331153 0.00855639 0)
(-0.0080079 0.0142277 0)
(-0.0137999 0.0202881 0)
(-0.0210685 0.0273125 0)
(-0.0298585 0.0361564 0)
(-0.0408103 0.0470163 0)
(-0.0540459 0.0600064 0)
(-0.069937 0.0748187 0)
(-0.0883376 0.091097 0)
(-0.109143 0.108162 0)
(-0.131717 0.12519 0)
(-0.155344 0.141103 0)
(-0.1789 0.1548 0)
(-0.201326 0.165244 0)
(-0.221509 0.171709 0)
(-0.238704 0.173845 0)
(-0.252431 0.171754 0)
(-0.262687 0.165883 0)
(-0.269721 0.156924 0)
(-0.274074 0.145637 0)
(-0.276325 0.132753 0)
(-0.277106 0.118876 0)
(-0.27692 0.10447 0)
(-0.276206 0.0898379 0)
(-0.275241 0.0751726 0)
(-0.274237 0.0605642 0)
(-0.273286 0.0460514 0)
(-0.272462 0.0316304 0)
(-0.271777 0.0172873 0)
(-0.271264 0.002994 0)
(-0.270932 -0.0112753 0)
(-0.270831 -0.0255559 0)
(-0.271012 -0.0398872 0)
(-0.271569 -0.0543258 0)
(-0.272601 -0.0689457 0)
(-0.27424 -0.0838469 0)
(-0.276593 -0.0991514 0)
(-0.279741 -0.11499 0)
(-0.283645 -0.131471 0)
(-0.288084 -0.148605 0)
(-0.29252 -0.166209 0)
(-0.295992 -0.183745 0)
(-0.29703 -0.20017 0)
(-0.293689 -0.213803 0)
(-0.283759 -0.22233 0)
(-0.26522 -0.223045 0)
(-0.236961 -0.213423 0)
(-0.199598 -0.192082 0)
(-0.156103 -0.159859 0)
(-0.111654 -0.120581 0)
(-0.0722122 -0.0803378 0)
(-0.041997 -0.0451791 0)
(-0.0216977 -0.0181989 0)
(-0.00944142 0.000453912 0)
(-0.00278448 0.012228 0)
(0.000184826 0.0183674 0)
(0.00102912 0.0197312 0)
(0.000702686 0.016326 0)
(0.000150041 0.00759056 0)
(-0.000636723 0.00448765 0)
(-0.00414349 0.0128087 0)
(-0.00980541 0.0200083 0)
(-0.0166669 0.0274015 0)
(-0.025214 0.0359943 0)
(-0.0354632 0.0468031 0)
(-0.0481039 0.0599957 0)
(-0.0631524 0.0755455 0)
(-0.0808974 0.0929561 0)
(-0.10098 0.111619 0)
(-0.12308 0.130565 0)
(-0.146266 0.14866 0)
(-0.169586 0.164583 0)
(-0.191738 0.177116 0)
(-0.211664 0.185301 0)
(-0.228406 0.188666 0)
(-0.241554 0.187251 0)
(-0.251023 0.181575 0)
(-0.257217 0.172445 0)
(-0.260695 0.160784 0)
(-0.262201 0.147455 0)
(-0.262378 0.133173 0)
(-0.261827 0.118448 0)
(-0.260936 0.103613 0)
(-0.260001 0.0888381 0)
(-0.259144 0.0741977 0)
(-0.258438 0.059696 0)
(-0.25786 0.0453155 0)
(-0.257398 0.0310235 0)
(-0.256997 0.0167981 0)
(-0.256647 0.0026184 0)
(-0.256323 -0.0115244 0)
(-0.256052 -0.0256412 0)
(-0.255866 -0.0397435 0)
(-0.255849 -0.0538565 0)
(-0.256101 -0.0680252 0)
(-0.256775 -0.0823253 0)
(-0.258037 -0.096874 0)
(-0.260087 -0.111831 0)
(-0.263093 -0.127397 0)
(-0.267154 -0.143773 0)
(-0.272175 -0.161095 0)
(-0.277737 -0.179292 0)
(-0.282921 -0.197898 0)
(-0.28617 -0.215806 0)
(-0.285265 -0.231068 0)
(-0.277522 -0.240841 0)
(-0.260346 -0.241646 0)
(-0.232114 -0.230158 0)
(-0.193352 -0.204505 0)
(-0.147624 -0.165971 0)
(-0.101407 -0.119913 0)
(-0.0619239 -0.0747035 0)
(-0.0334986 -0.0374083 0)
(-0.0157122 -0.0107401 0)
(-0.0057357 0.00648757 0)
(-0.000962279 0.0160286 0)
(0.000744808 0.0193345 0)
(0.000717159 0.0167904 0)
(0.000184753 0.0080324 0)
(-0.000801915 0.00682034 0)
(-0.00500478 0.017884 0)
(-0.0116428 0.0267826 0)
(-0.0195722 0.0356506 0)
(-0.0293845 0.0459926 0)
(-0.0410439 0.0589496 0)
(-0.0552566 0.0746094 0)
(-0.0718903 0.0927403 0)
(-0.0911082 0.112601 0)
(-0.112298 0.133271 0)
(-0.134906 0.153455 0)
(-0.157728 0.171723 0)
(-0.179662 0.186597 0)
(-0.199367 0.196894 0)
(-0.215963 0.201914 0)
(-0.228812 0.201604 0)
(-0.237939 0.19648 0)
(-0.243662 0.18747 0)
(-0.246719 0.175647 0)
(-0.247844 0.162043 0)
(-0.247832 0.147485 0)
(-0.247247 0.13256 0)
(-0.246548 0.117613 0)
(-0.245945 0.10281 0)
(-0.245568 0.0881876 0)
(-0.24539 0.0737245 0)
(-0.245381 0.0593686 0)
(-0.245441 0.045077 0)
(-0.245515 0.0308149 0)
(-0.245517 0.0165708 0)
(-0.245424 0.00234387 0)
(-0.245197 -0.0118518 0)
(-0.244854 -0.0260003 0)
(-0.24441 -0.0400845 0)
(-0.243933 -0.0540965 0)
(-0.243497 -0.0680457 0)
(-0.243238 -0.0819666 0)
(-0.243313 -0.095939 0)
(-0.243945 -0.110092 0)
(-0.24538 -0.124633 0)
(-0.247891 -0.139826 0)
(-0.251686 -0.155989 0)
(-0.256811 -0.173383 0)
(-0.262962 -0.19208 0)
(-0.269267 -0.211674 0)
(-0.274089 -0.230983 0)
(-0.274929 -0.247725 0)
(-0.268654 -0.258407 0)
(-0.252078 -0.258649 0)
(-0.223169 -0.244187 0)
(-0.182494 -0.212811 0)
(-0.134567 -0.166633 0)
(-0.0874538 -0.113547 0)
(-0.0495718 -0.064421 0)
(-0.0244474 -0.02702 0)
(-0.00993005 -0.0021707 0)
(-0.00262873 0.0121902 0)
(0.000297283 0.0183105 0)
(0.000704721 0.0171077 0)
(0.000222563 0.00853182 0)
(-0.000976145 0.00965395 0)
(-0.00587934 0.0238473 0)
(-0.0134779 0.0346111 0)
(-0.0224422 0.0450902 0)
(-0.0334568 0.0573433 0)
(-0.0464057 0.0725839 0)
(-0.0619746 0.0907598 0)
(-0.0798469 0.111365 0)
(-0.10003 0.133358 0)
(-0.121643 0.155461 0)
(-0.14392 0.176063 0)
(-0.165458 0.193506 0)
(-0.185131 0.206303 0)
(-0.201722 0.21349 0)
(-0.214681 0.214799 0)
(-0.223779 0.210693 0)
(-0.229477 0.202159 0)
(-0.232412 0.190439 0)
(-0.23351 0.176734 0)
(-0.233524 0.162028 0)
(-0.233156 0.146996 0)
(-0.23279 0.132023 0)
(-0.232697 0.117263 0)
(-0.2329 0.102727 0)
(-0.233394 0.0883504 0)
(-0.234051 0.0740561 0)
(-0.234786 0.059773 0)
(-0.235467 0.0454612 0)
(-0.236032 0.0311032 0)
(-0.236398 0.0167082 0)
(-0.236544 0.00229892 0)
(-0.236436 -0.0120894 0)
(-0.236091 -0.0264181 0)
(-0.235515 -0.0406498 0)
(-0.23476 -0.0547505 0)
(-0.233872 -0.0687017 0)
(-0.23295 -0.0824984 0)
(-0.232109 -0.0961753 0)
(-0.231533 -0.109805 0)
(-0.23145 -0.123543 0)
(-0.232168 -0.137624 0)
(-0.23403 -0.152404 0)
(-0.237362 -0.168304 0)
(-0.242342 -0.185756 0)
(-0.248768 -0.204955 0)
(-0.255807 -0.225566 0)
(-0.261681 -0.24625 0)
(-0.263601 -0.264266 0)
(-0.257912 -0.275295 0)
(-0.240942 -0.273843 0)
(-0.210333 -0.254719 0)
(-0.167119 -0.215592 0)
(-0.117187 -0.160483 0)
(-0.0706416 -0.100729 0)
(-0.0364172 -0.0501232 0)
(-0.0158763 -0.0148565 0)
(-0.00511311 0.00621377 0)
(-0.000458981 0.0163481 0)
(0.000611582 0.0171532 0)
(0.000255778 0.00905854 0)
(-0.00114098 0.0129413 0)
(-0.00669977 0.0306049 0)
(-0.0151903 0.0433687 0)
(-0.0251004 0.0555569 0)
(-0.0371877 0.0698178 0)
(-0.0512273 0.0873751 0)
(-0.0678508 0.107979 0)
(-0.0865316 0.130789 0)
(-0.107107 0.154429 0)
(-0.128445 0.177253 0)
(-0.149625 0.197387 0)
(-0.169154 0.213067 0)
(-0.186024 0.222972 0)
(-0.19928 0.226533 0)
(-0.20879 0.22403 0)
(-0.214735 0.216449 0)
(-0.217924 0.205161 0)
(-0.21917 0.191567 0)
(-0.219429 0.176836 0)
(-0.219333 0.161776 0)
(-0.219403 0.146834 0)
(-0.219807 0.132174 0)
(-0.220636 0.117776 0)
(-0.221771 0.103542 0)
(-0.223123 0.0893526 0)
(-0.224516 0.0751169 0)
(-0.225855 0.0607758 0)
(-0.227011 0.0463111 0)
(-0.227936 0.0317319 0)
(-0.228559 0.0170714 0)
(-0.228877 0.00237493 0)
(-0.228862 -0.0123051 0)
(-0.228539 -0.0269131 0)
(-0.22791 -0.041399 0)
(-0.227019 -0.0557125 0)
(-0.225894 -0.0698191 0)
(-0.224601 -0.083686 0)
(-0.223207 -0.0973137 0)
(-0.221837 -0.110719 0)
(-0.220652 -0.123991 0)
(-0.219905 -0.137282 0)
(-0.21993 -0.15089 0)
(-0.221144 -0.165232 0)
(-0.223986 -0.180888 0)
(-0.228746 -0.198436 0)
(-0.235333 -0.218247 0)
(-0.242868 -0.239984 0)
(-0.249414 -0.262055 0)
(-0.251725 -0.281036 0)
(-0.24567 -0.291483 0)
(-0.227047 -0.28663 0)
(-0.193592 -0.260333 0)
(-0.147236 -0.211072 0)
(-0.0961066 -0.146022 0)
(-0.0523612 -0.0817871 0)
(-0.0239996 -0.0329073 0)
(-0.00869984 -0.00266826 0)
(-0.00165778 0.0130533 0)
(0.000389926 0.0167717 0)
(0.000276118 0.00958292 0)
(-0.00129321 0.01669 0)
(-0.00744238 0.0381539 0)
(-0.0167257 0.0530429 0)
(-0.0274571 0.0670194 0)
(-0.0404358 0.0833437 0)
(-0.0553045 0.103182 0)
(-0.0726128 0.126032 0)
(-0.0916188 0.150669 0)
(-0.111999 0.175367 0)
(-0.132418 0.198137 0)
(-0.151889 0.216944 0)
(-0.168948 0.230078 0)
(-0.18283 0.236559 0)
(-0.192925 0.236345 0)
(-0.199524 0.230299 0)
(-0.203143 0.219855 0)
(-0.204802 0.206617 0)
(-0.205338 0.191979 0)
(-0.205604 0.176939 0)
(-0.206028 0.162049 0)
(-0.206922 0.147509 0)
(-0.208261 0.133285 0)
(-0.210003 0.119239 0)
(-0.211949 0.105215 0)
(-0.213978 0.0910839 0)
(-0.21591 0.0767712 0)
(-0.217665 0.0622471 0)
(-0.219132 0.0475216 0)
(-0.220285 0.032632 0)
(-0.221067 0.0176325 0)
(-0.221489 0.00258788 0)
(-0.221532 -0.0124368 0)
(-0.221229 -0.0273733 0)
(-0.220584 -0.0421652 0)
(-0.219643 -0.0567527 0)
(-0.218421 -0.0710963 0)
(-0.21697 -0.0851487 0)
(-0.215322 -0.0988937 0)
(-0.21355 -0.112308 0)
(-0.211746 -0.125428 0)
(-0.21007 -0.138316 0)
(-0.208773 -0.151172 0)
(-0.208217 -0.164305 0)
(-0.208896 -0.178267 0)
(-0.211335 -0.193759 0)
(-0.215963 -0.211585 0)
(-0.222706 -0.232231 0)
(-0.230649 -0.255321 0)
(-0.237474 -0.278786 0)
(-0.239491 -0.298184 0)
(-0.231872 -0.30662 0)
(-0.210227 -0.29574 0)
(-0.172657 -0.259055 0)
(-0.123102 -0.196988 0)
(-0.0725023 -0.122832 0)
(-0.0347436 -0.0580266 0)
(-0.013609 -0.0153863 0)
(-0.00342747 0.00788467 0)
(7.91507e-06 0.0157216 0)
(0.000277389 0.0100343 0)
(-0.0014102 0.0207912 0)
(-0.00803025 0.0463109 0)
(-0.017954 0.0634072 0)
(-0.0293298 0.0791917 0)
(-0.0429646 0.0975414 0)
(-0.0583525 0.119506 0)
(-0.0759444 0.144292 0)
(-0.0947949 0.170266 0)
(-0.114451 0.195369 0)
(-0.133442 0.21734 0)
(-0.150812 0.234108 0)
(-0.165233 0.244175 0)
(-0.176263 0.24705 0)
(-0.183654 0.243272 0)
(-0.188061 0.234244 0)
(-0.190213 0.221709 0)
(-0.191198 0.207337 0)
(-0.191748 0.192364 0)
(-0.192535 0.177529 0)
(-0.193764 0.163105 0)
(-0.195559 0.149073 0)
(-0.197756 0.135257 0)
(-0.200245 0.121457 0)
(-0.202796 0.107504 0)
(-0.205298 0.0932969 0)
(-0.207587 0.0787879 0)
(-0.209609 0.0639823 0)
(-0.21127 0.0489169 0)
(-0.212562 0.0336537 0)
(-0.213438 0.018264 0)
(-0.213918 0.00282982 0)
(-0.213988 -0.0125736 0)
(-0.213689 -0.0278663 0)
(-0.213029 -0.0429879 0)
(-0.212059 -0.057872 0)
(-0.210796 -0.0724812 0)
(-0.209287 -0.0867627 0)
(-0.207552 -0.1007 0)
(-0.205634 -0.114249 0)
(-0.203569 -0.127419 0)
(-0.201441 -0.140202 0)
(-0.199392 -0.152707 0)
(-0.197672 -0.165101 0)
(-0.196689 -0.177808 0)
(-0.196983 -0.19145 0)
(-0.199219 -0.206972 0)
(-0.203862 -0.225347 0)
(-0.210909 -0.247208 0)
(-0.219147 -0.271939 0)
(-0.225896 -0.296677 0)
(-0.226654 -0.315524 0)
(-0.216157 -0.319568 0)
(-0.189837 -0.299054 0)
(-0.147316 -0.247858 0)
(-0.0953325 -0.171598 0)
(-0.0487234 -0.091764 0)
(-0.0199373 -0.0331042 0)
(-0.00592659 0.000268843 0)
(-0.000557331 0.0137152 0)
(0.000253295 0.01035 0)
(-0.00149036 0.0251967 0)
(-0.00844655 0.0550057 0)
(-0.0188346 0.0743849 0)
(-0.0306534 0.0919766 0)
(-0.0446784 0.112274 0)
(-0.0602527 0.136162 0)
(-0.077723 0.162529 0)
(-0.0959736 0.189327 0)
(-0.114467 0.214209 0)
(-0.13168 0.234732 0)
(-0.146772 0.248937 0)
(-0.158631 0.255679 0)
(-0.167162 0.255045 0)
(-0.172442 0.248146 0)
(-0.175387 0.236815 0)
(-0.176808 0.222943 0)
(-0.177739 0.208111 0)
(-0.178734 0.193296 0)
(-0.180255 0.178944 0)
(-0.18231 0.165072 0)
(-0.184893 0.151499 0)
(-0.187761 0.13797 0)
(-0.190787 0.124273 0)
(-0.193748 0.11026 0)
(-0.196559 0.0958656 0)
(-0.199079 0.0810751 0)
(-0.201277 0.0659238 0)
(-0.20307 0.0504691 0)
(-0.20446 0.0347932 0)
(-0.205402 0.0189808 0)
(-0.205921 0.00312966 0)
(-0.206005 -0.0126757 0)