/*--------------------------------*- C++ -*----------------------------------*\
| =========                 |                                                 |
| \\      /  F ield         | OpenFOAM: The Open Source CFD Toolbox           |
|  \\    /   O peration     | Version:  2406                                  |
|   \\  /    A nd           | Website:  www.openfoam.com                      |
|    \\/     M anipulation  |                                                 |
\*---------------------------------------------------------------------------*/
FoamFile
{
    version     2.0;
    format      ascii;
    arch        "LSB;label=32;scalar=64";
    class       volVectorField;
    location    "39.45";
    object      U;
}
// * * * * * * * * * * * * * * * * * * * * * * * * * * * * * * * * * * * * * //

dimensions      [0 1 -1 0 0 0 0];

internalField   nonuniform List<vector> 
14400
(
(-1.82319e-05 1.81821e-05 0)
(-1.07961e-06 -1.15478e-05 0)
(0.00011092 -4.39123e-05 0)
(0.000303301 -7.25922e-05 0)
(0.000564425 -8.96227e-05 0)
(0.000860153 -9.90708e-05 0)
(0.00117516 -9.99693e-05 0)
(0.00148284 -9.54394e-05 0)
(0.00177228 -8.60107e-05 0)
(0.0020281 -7.40605e-05 0)
(0.00224637 -6.0603e-05 0)
(0.0024223 -4.73536e-05 0)
(0.00255862 -3.51381e-05 0)
(0.00265803 -2.48951e-05 0)
(0.00272723 -1.69258e-05 0)
(0.00277227 -1.14229e-05 0)
(0.00280032 -8.15101e-06 0)
(0.00281692 -6.75377e-06 0)
(0.00282686 -6.64559e-06 0)
(0.00283267 -7.20863e-06 0)
(0.00283526 -7.77955e-06 0)
(0.00283341 -7.77644e-06 0)
(0.00282437 -6.70595e-06 0)
(0.00280392 -4.22058e-06 0)
(0.00276695 -9.83865e-08 0)
(0.00270771 5.76449e-06 0)
(0.00262019 1.34026e-05 0)
(0.00249821 2.28162e-05 0)
(0.00233555 3.40116e-05 0)
(0.0021259 4.70191e-05 0)
(0.00186284 6.18996e-05 0)
(0.00153981 7.87339e-05 0)
(0.00115007 9.76062e-05 0)
(0.000686808 0.000118584 0)
(0.000143236 0.000141699 0)
(-0.00048726 0.000166936 0)
(-0.00121091 0.00019422 0)
(-0.00203332 0.000223411 0)
(-0.00295928 0.000254294 0)
(-0.00399243 0.000286585 0)
(-0.0051351 0.000319921 0)
(-0.006388 0.000353867 0)
(-0.00775004 0.000387913 0)
(-0.00921811 0.00042149 0)
(-0.0107869 0.000453967 0)
(-0.0124489 0.00048467 0)
(-0.0141941 0.000512891 0)
(-0.0160102 0.000537899 0)
(-0.0178826 0.000558956 0)
(-0.0197945 0.000575328 0)
(-0.0217267 0.000586298 0)
(-0.0236584 0.000591172 0)
(-0.025567 0.000589296 0)
(-0.0274282 0.000580059 0)
(-0.0292168 0.000562907 0)
(-0.0309066 0.000537351 0)
(-0.0324707 0.000502985 0)
(-0.0338822 0.000459496 0)
(-0.0351142 0.000406693 0)
(-0.0361405 0.000344521 0)
(-0.0369358 0.000273097 0)
(-0.0374767 0.000192731 0)
(-0.0377414 0.000103961 0)
(-0.0377113 7.57606e-06 0)
(-0.0373706 -9.5353e-05 0)
(-0.0367077 -0.00020346 0)
(-0.0357154 -0.000315071 0)
(-0.034392 -0.000428213 0)
(-0.0327411 -0.000540629 0)
(-0.0307729 -0.000649822 0)
(-0.0285041 -0.000753112 0)
(-0.0259583 -0.000847718 0)
(-0.0231658 -0.00093086 0)
(-0.0201638 -0.000999881 0)
(-0.0169954 -0.00105237 0)
(-0.0137092 -0.00108631 0)
(-0.010358 -0.00110021 0)
(-0.00699736 -0.00109319 0)
(-0.00368449 -0.00106513 0)
(-0.000475932 -0.00101665 0)
(0.00257397 -0.000949199 0)
(0.00541504 -0.000864936 0)
(0.00800295 -0.000766692 0)
(0.0103008 -0.000657808 0)
(0.0122804 -0.000541961 0)
(0.0139228 -0.00042297 0)
(0.0152193 -0.00030459 0)
(0.0161707 -0.000190312 0)
(0.0167871 -8.32019e-05 0)
(0.0170871 1.42291e-05 0)
(0.0170963 0.000100106 0)
(0.0168458 0.000173216 0)
(0.0163708 0.000232998 0)
(0.0157087 0.000279477 0)
(0.0148974 0.00031319 0)
(0.0139741 0.000335076 0)
(0.0129739 0.000346374 0)
(0.0119289 0.000348509 0)
(0.0108675 0.000343004 0)
(0.00981366 0.000331379 0)
(0.00878722 0.000315105 0)
(0.00780372 0.000295519 0)
(0.00687445 0.000273838 0)
(0.00600732 0.00025107 0)
(0.00520656 0.00022811 0)
(0.00447418 0.000205611 0)
(0.00380918 0.000184188 0)
(0.00320969 0.000164171 0)
(0.00267114 0.000145981 0)
(0.0021898 0.000129608 0)
(0.00175916 0.000115306 0)
(0.00137596 0.000102529 0)
(0.00103382 9.1289e-05 0)
(0.000733268 8.00687e-05 0)
(0.000471146 6.86258e-05 0)
(0.000255606 5.39588e-05 0)
(8.96376e-05 3.65304e-05 0)
(-1.20945e-05 1.2767e-05 0)
(-4.59244e-05 -9.17984e-06 0)
(-2.23811e-05 -2.19247e-05 0)
(1.02874e-05 1.78299e-06 0)
(0.000156032 -0.000159401 0)
(0.000497768 -0.000323361 0)
(0.000995052 -0.000468158 0)
(0.00163191 -0.00056331 0)
(0.00234331 -0.000617037 0)
(0.00309523 -0.000626392 0)
(0.00383322 -0.000602229 0)
(0.0045292 -0.000549663 0)
(0.00514978 -0.000479363 0)
(0.00568188 -0.000398566 0)
(0.00611367 -0.000315923 0)
(0.00644724 -0.000237199 0)
(0.00668679 -0.000167478 0)
(0.00684407 -0.000109263 0)
(0.00693082 -6.36953e-05 0)
(0.00696066 -2.99118e-05 0)
(0.0069445 -5.89739e-06 0)
(0.0068911 1.15232e-05 0)
(0.00680468 2.59969e-05 0)
(0.00668544 4.13975e-05 0)
(0.00652886 6.13104e-05 0)
(0.00632661 8.88217e-05 0)
(0.00606691 0.000126283 0)
(0.00573557 0.000175321 0)
(0.00531667 0.000236899 0)
(0.00479336 0.000311515 0)
(0.00414824 0.000399389 0)
(0.00336371 0.000500641 0)
(0.00242212 0.000615391 0)
(0.00130589 0.00074378 0)
(-2.38618e-06 0.000885915 0)
(-0.00151968 0.00104178 0)
(-0.0032622 0.00121111 0)
(-0.00524491 0.00139334 0)
(-0.00748098 0.00158745 0)
(-0.00998114 0.00179199 0)
(-0.012753 0.00200497 0)
(-0.0158006 0.00222392 0)
(-0.0191232 0.00244586 0)
(-0.0227157 0.00266735 0)
(-0.0265671 0.00288453 0)
(-0.030661 0.00309317 0)
(-0.034975 0.00328882 0)
(-0.0394808 0.00346684 0)
(-0.0441446 0.00362255 0)
(-0.048927 0.00375137 0)
(-0.0537836 0.00384885 0)
(-0.0586662 0.00391086 0)
(-0.0635226 0.00393362 0)
(-0.0682982 0.0039138 0)
(-0.0729365 0.00384859 0)
(-0.0773801 0.00373574 0)
(-0.0815713 0.0035736 0)
(-0.0854535 0.00336113 0)
(-0.0889713 0.00309799 0)
(-0.0920718 0.00278448 0)
(-0.0947051 0.00242162 0)
(-0.0968248 0.00201117 0)
(-0.0983889 0.00155565 0)
(-0.0993604 0.00105839 0)
(-0.0997076 0.00052357 0)
(-0.0994049 -4.37241e-05 0)
(-0.0984334 -0.000637481 0)
(-0.0967814 -0.00125073 0)
(-0.094445 -0.00187552 0)
(-0.0914288 -0.00250298 0)
(-0.087746 -0.00312333 0)
(-0.0834193 -0.00372604 0)
(-0.0784809 -0.00429996 0)
(-0.072973 -0.00483356 0)
(-0.0669475 -0.0053152 0)
(-0.0604661 -0.00573349 0)
(-0.0535998 -0.00607768 0)
(-0.0464282 -0.00633812 0)
(-0.0390382 -0.00650667 0)
(-0.0315232 -0.00657717 0)
(-0.023981 -0.00654586 0)
(-0.0165118 -0.00641168 0)
(-0.0092164 -0.00617658 0)
(-0.00219338 -0.00584555 0)
(0.00446318 -0.00542665 0)
(0.0106664 -0.00493075 0)
(0.0163388 -0.00437123 0)
(0.0214148 -0.00376342 0)
(0.0258424 -0.00312399 0)
(0.0295849 -0.00247024 0)
(0.0326215 -0.00181937 0)
(0.034948 -0.00118771 0)
(0.0365766 -0.000590071 0)
(0.0375347 -3.91696e-05 0)
(0.0378641 0.000454804 0)
(0.0376182 0.000884467 0)
(0.0368606 0.00124534 0)
(0.0356616 0.0015358 0)
(0.0340956 0.00175687 0)
(0.0322385 0.00191187 0)
(0.0301645 0.00200602 0)
(0.027944 0.00204595 0)
(0.0256415 0.00203918 0)
(0.0233142 0.00199372 0)
(0.0210108 0.00191755 0)
(0.0187711 0.00181837 0)
(0.0166266 0.00170319 0)
(0.0145998 0.0015784 0)
(0.0127062 0.00144933 0)
(0.0109537 0.00132068 0)
(0.00934561 0.00119587 0)
(0.00787887 0.0010779 0)
(0.00654965 0.000968037 0)
(0.00534841 0.0008675 0)
(0.00427002 0.000774597 0)
(0.00330408 0.000688334 0)
(0.0024517 0.000602727 0)
(0.00170778 0.000515049 0)
(0.00108674 0.00041456 0)
(0.000591245 0.000302355 0)
(0.000246061 0.000168867 0)
(4.70686e-05 4.44548e-05 0)
(-9.36772e-06 -4.5882e-05 0)
(3.96879e-05 -0.00010485 0)
(0.000309931 -0.000498049 0)
(0.000860806 -0.000878655 0)
(0.00160897 -0.00120531 0)
(0.00253692 -0.00142705 0)
(0.00355545 -0.00155001 0)
(0.00462095 -0.00157129 0)
(0.00566089 -0.00151007 0)
(0.00663688 -0.00138055 0)
(0.0075037 -0.00120525 0)
(0.00824177 -0.00100254 0)
(0.00883376 -0.000791846 0)
(0.00927989 -0.000587712 0)
(0.00958373 -0.000401944 0)
(0.00975832 -0.000241125 0)
(0.00981708 -0.000107974 0)
(0.00977561 -7.71803e-07 0)
(0.009646 8.5356e-05 0)
(0.00943714 0.000157973 0)
(0.00915176 0.000226033 0)
(0.00878687 0.000299024 0)
(0.00833293 0.000385887 0)
(0.00777503 0.000494368 0)
(0.00709335 0.000630508 0)
(0.00626467 0.000798578 0)
(0.00526331 0.00100122 0)
(0.00406223 0.00123986 0)
(0.00263378 0.00151508 0)
(0.0009503 0.00182703 0)
(-0.00101546 0.00217559 0)
(-0.00328986 0.00256041 0)
(-0.00589789 0.00298074 0)
(-0.00886251 0.00343522 0)
(-0.0122038 0.00392162 0)
(-0.015938 0.00443662 0)
(-0.0200766 0.00497563 0)
(-0.0246252 0.00553275 0)
(-0.0295823 0.00610069 0)
(-0.0349387 0.00667088 0)
(-0.040677 0.0072336 0)
(-0.0467706 0.00777813 0)
(-0.0531839 0.00829305 0)
(-0.0598726 0.0087665 0)
(-0.0667838 0.00918653 0)
(-0.0738573 0.00954147 0)
(-0.0810265 0.00982022 0)
(-0.0882198 0.0100126 0)
(-0.0953618 0.0101097 0)
(-0.102375 0.0101039 0)
(-0.109182 0.00998915 0)
(-0.115706 0.00976121 0)
(-0.121872 0.00941737 0)
(-0.127609 0.00895666 0)
(-0.13285 0.00837971 0)
(-0.137532 0.00768866 0)
(-0.141599 0.00688713 0)
(-0.145 0.00598007 0)
(-0.147691 0.00497373 0)
(-0.149633 0.0038756 0)
(-0.150795 0.00269439 0)
(-0.151152 0.00144005 0)
(-0.150685 0.00012377 0)
(-0.149382 -0.00124197 0)
(-0.147239 -0.00264334 0)
(-0.144258 -0.00406516 0)
(-0.140449 -0.00549088 0)
(-0.135829 -0.00690262 0)
(-0.130424 -0.00828124 0)
(-0.124268 -0.00960655 0)
(-0.117401 -0.0108575 0)
(-0.109877 -0.0120126 0)
(-0.101754 -0.0130502 0)
(-0.0931012 -0.0139494 0)
(-0.0839961 -0.0146902 0)
(-0.0745243 -0.0152546 0)
(-0.0647792 -0.0156273 0)
(-0.0548606 -0.0157961 0)
(-0.0448736 -0.0157531 0)
(-0.0349273 -0.0154952 0)
(-0.0251325 -0.0150244 0)
(-0.0156 -0.0143482 0)
(-0.00643807 -0.0134799 0)
(0.0022499 -0.0124379 0)
(0.0103676 -0.011246 0)
(0.0178285 -0.00993204 0)
(0.0245576 -0.00852732 0)
(0.0304939 -0.00706545 0)
(0.0355916 -0.0055811 0)
(0.0398215 -0.00410872 0)
(0.0431721 -0.00268128 0)
(0.0456494 -0.00132906 0)
(0.0472771 -7.85648e-05 0)
(0.0480956 0.00104837 0)
(0.0481606 0.00203522 0)
(0.0475409 0.00287119 0)
(0.0463162 0.00355131 0)
(0.044574 0.00407624 0)
(0.0424061 0.00445177 0)
(0.0399054 0.00468812 0)
(0.0371629 0.004799 0)
(0.0342639 0.00480062 0)
(0.0312867 0.00471054 0)
(0.0282994 0.00454688 0)
(0.0253602 0.00432719 0)
(0.0225154 0.00406809 0)
(0.0198012 0.00378435 0)
(0.0172418 0.00348914 0)
(0.0148543 0.003193 0)
(0.0126448 0.00290474 0)
(0.0106169 0.00262959 0)
(0.00876464 0.0023712 0)
(0.00708645 0.00212776 0)
(0.00557221 0.00189672 0)
(0.00422571 0.00166716 0)
(0.00304027 0.00143165 0)
(0.00203538 0.0011713 0)
(0.00120965 0.000885714 0)
(0.00059944 0.00056214 0)
(0.000191987 0.000250486 0)
(1.68823e-05 -6.16761e-06 0)
(6.53207e-05 -0.000284731 0)
(0.000446786 -0.000984734 0)
(0.0011775 -0.00162415 0)
(0.00212764 -0.00215286 0)
(0.00327718 -0.00251073 0)
(0.0045156 -0.0027021 0)
(0.00579507 -0.00272618 0)
(0.00703036 -0.00261066 0)
(0.00817812 -0.00238016 0)
(0.00918538 -0.00207015 0)
(0.010029 -0.00171157 0)
(0.0106875 -0.00133587 0)
(0.0111594 -0.000967422 0)
(0.0114462 -0.000625549 0)
(0.0115602 -0.000321339 0)
(0.0115135 -5.91178e-05 0)
(0.0113202 0.000164061 0)
(0.0109901 0.000356658 0)
(0.0105288 0.000531636 0)
(0.00993442 0.000704429 0)
(0.00919823 0.000891361 0)
(0.00830371 0.00110788 0)
(0.00722794 0.00136737 0)
(0.00594241 0.00168031 0)
(0.00441471 0.00205412 0)
(0.00260984 0.00249337 0)
(0.000491589 0.00300036 0)
(-0.00197638 0.00357572 0)
(-0.00482954 0.00421899 0)
(-0.00810164 0.00492875 0)
(-0.0118237 0.00570264 0)
(-0.016023 0.00653706 0)
(-0.0207216 0.00742675 0)
(-0.0259353 0.00836446 0)
(-0.0316717 0.00934058 0)
(-0.0379293 0.010343 0)
(-0.0446959 0.0113573 0)
(-0.0519478 0.0123666 0)
(-0.0596495 0.0133522 0)
(-0.0677532 0.0142938 0)
(-0.0761994 0.0151703 0)
(-0.0849184 0.0159606 0)
(-0.093831 0.0166438 0)
(-0.102851 0.0172005 0)
(-0.111888 0.0176131 0)
(-0.120848 0.0178664 0)
(-0.129638 0.0179481 0)
(-0.138165 0.017849 0)
(-0.146342 0.0175632 0)
(-0.154087 0.0170878 0)
(-0.161324 0.016423 0)
(-0.167984 0.0155716 0)
(-0.174007 0.0145389 0)
(-0.179338 0.0133322 0)
(-0.183933 0.0119606 0)
(-0.187754 0.0104346 0)
(-0.190768 0.00876594 0)
(-0.192951 0.00696758 0)
(-0.194283 0.00505339 0)
(-0.19475 0.00303824 0)
(-0.194343 0.000938035 0)
(-0.193058 -0.0012302 0)
(-0.190896 -0.00344821 0)
(-0.187861 -0.00569639 0)
(-0.183964 -0.00795368 0)
(-0.17922 -0.0101974 0)
(-0.173649 -0.0124034 0)
(-0.167277 -0.0145458 0)
(-0.160136 -0.0165974 0)
(-0.152266 -0.0185298 0)
(-0.143712 -0.0203137 0)
(-0.134529 -0.0219197 0)
(-0.124779 -0.0233187 0)
(-0.114531 -0.024483 0)
(-0.103865 -0.0253867 0)
(-0.092866 -0.0260074 0)
(-0.081629 -0.0263268 0)
(-0.0702538 -0.0263319 0)
(-0.058846 -0.0260158 0)
(-0.0475147 -0.0253785 0)
(-0.036371 -0.0244277 0)
(-0.0255258 -0.0231786 0)
(-0.0150876 -0.0216542 0)
(-0.00516028 -0.0198846 0)
(0.00415908 -0.0179065 0)
(0.0127824 -0.0157619 0)
(0.0206325 -0.0134972 0)
(0.0276447 -0.0111612 0)
(0.0337686 -0.00880388 0)
(0.0389689 -0.00647475 0)
(0.0432265 -0.00422113 0)
(0.046539 -0.00208676 0)
(0.0489214 -0.000110292 0)
(0.0504051 0.00167585 0)
(0.0510381 0.00324652 0)
(0.0508832 0.00458452 0)
(0.0500165 0.00568104 0)
(0.0485247 0.00653551 0)
(0.0465022 0.00715529 0)
(0.0440477 0.00755467 0)
(0.0412605 0.00775379 0)
(0.038237 0.00777702 0)
(0.0350672 0.00765157 0)
(0.0318331 0.00740567 0)
(0.0286048 0.00706747 0)
(0.0254419 0.00666339 0)
(0.0223899 0.00621782 0)
(0.0194851 0.00575138 0)
(0.0167495 0.00528167 0)
(0.0142001 0.00482066 0)
(0.011841 0.00437683 0)
(0.00967932 0.0039504 0)
(0.00770926 0.00353876 0)
(0.00594058 0.00312769 0)
(0.00436595 0.00270556 0)
(0.00301111 0.00224668 0)
(0.00186929 0.00174705 0)
(0.000991658 0.00118967 0)
(0.000358811 0.000630464 0)
(4.7983e-05 0.000117426 0)
(8.14267e-05 -0.000530308 0)
(0.000546451 -0.00161401 0)
(0.00141983 -0.00255823 0)
(0.00252865 -0.00331113 0)
(0.00384676 -0.00381218 0)
(0.00524189 -0.00406547 0)
(0.00666216 -0.00407591 0)
(0.00801156 -0.00388078 0)
(0.00924418 -0.00351756 0)
(0.0103019 -0.00303596 0)
(0.0111603 -0.00248121 0)
(0.0117954 -0.00189773 0)
(0.0122046 -0.00132064 0)
(0.0123879 -0.000777038 0)
(0.0123553 -0.000282498 0)
(0.0121162 0.000157555 0)
(0.0116811 0.000548104 0)
(0.0110545 0.000902324 0)
(0.0102361 0.00123985 0)
(0.00921672 0.00158392 0)
(0.00797931 0.00195892 0)
(0.00649837 0.00238779 0)
(0.00474164 0.00289027 0)
(0.00267121 0.00348162 0)
(0.00024567 0.00417243 0)
(-0.00257831 0.00496883 0)
(-0.00584414 0.00587327 0)
(-0.00959391 0.00688535 0)
(-0.0138668 0.00800229 0)
(-0.0186975 0.00921921 0)
(-0.024115 0.0105289 0)
(-0.0301401 0.0119214 0)
(-0.036784 0.0133833 0)
(-0.0440463 0.0148979 0)
(-0.0519137 0.0164443 0)
(-0.0603579 0.0179979 0)
(-0.0693361 0.0195308 0)
(-0.0787901 0.0210127 0)
(-0.0886475 0.0224113 0)
(-0.0988233 0.0236939 0)
(-0.109222 0.0248288 0)
(-0.119742 0.0257857 0)
(-0.130274 0.026538 0)
(-0.140713 0.0270626 0)
(-0.150952 0.0273416 0)
(-0.16089 0.027362 0)
(-0.170436 0.0271158 0)
(-0.179503 0.0266003 0)
(-0.188019 0.0258171 0)
(-0.195919 0.024772 0)
(-0.203147 0.023474 0)
(-0.20966 0.0219347 0)
(-0.21542 0.0201678 0)
(-0.220398 0.0181885 0)
(-0.224572 0.016013 0)
(-0.227925 0.0136581 0)
(-0.230443 0.0111412 0)
(-0.232119 0.00848004 0)
(-0.232945 0.0056929 0)
(-0.232919 0.00279846 0)
(-0.232039 -0.00018381 0)
(-0.230305 -0.00323352 0)
(-0.227722 -0.00632906 0)
(-0.224292 -0.0094473 0)
(-0.220023 -0.0125634 0)
(-0.214925 -0.0156505 0)
(-0.209013 -0.0186796 0)
(-0.202303 -0.0216196 0)
(-0.194819 -0.0244372 0)
(-0.186588 -0.0270974 0)
(-0.177646 -0.0295634 0)
(-0.168036 -0.0317979 0)
(-0.157808 -0.0337634 0)
(-0.147021 -0.0354233 0)
(-0.135744 -0.0367433 0)
(-0.124054 -0.0376925 0)
(-0.112037 -0.0382448 0)
(-0.0997891 -0.0383803 0)
(-0.0874101 -0.0380868 0)
(-0.0750076 -0.0373607 0)
(-0.0626927 -0.0362077 0)
(-0.0505781 -0.0346437 0)
(-0.0387757 -0.0326942 0)
(-0.0273949 -0.0303947 0)
(-0.0165394 -0.0277888 0)
(-0.0063059 -0.024928 0)
(0.00321843 -0.0218696 0)
(0.0119572 -0.0186749 0)
(0.0198459 -0.0154078 0)
(0.0268335 -0.0121324 0)
(0.0328825 -0.0089118 0)
(0.03797 -0.00580576 0)
(0.0420879 -0.00286946 0)
(0.0452437 -0.00015182 0)
(0.0474605 0.00230587 0)
(0.0487768 0.00447114 0)
(0.0492465 0.00632136 0)
(0.0489373 0.00784434 0)
(0.0479295 0.00903854 0)
(0.0463133 0.00991271 0)
(0.0441858 0.0104851 0)
(0.0416476 0.0107818 0)
(0.0387986 0.0108354 0)
(0.0357352 0.0106823 0)
(0.0325456 0.0103612 0)
(0.0293099 0.00991045 0)
(0.0260944 0.00936691 0)
(0.0229559 0.00876349 0)
(0.0199353 0.00812903 0)
(0.0170673 0.00748516 0)
(0.0143698 0.00684774 0)
(0.0118629 0.00622179 0)
(0.00954885 0.00560655 0)
(0.00744666 0.00498676 0)
(0.00555089 0.00434709 0)
(0.00389626 0.00365644 0)
(0.00247317 0.00290415 0)
(0.00135143 0.00206731 0)
(0.000509199 0.00119437 0)
(7.44727e-05 0.000326365 0)
(9.36264e-05 -0.000815706 0)
(0.000624211 -0.00233833 0)
(0.00160826 -0.00361513 0)
(0.00283659 -0.00459743 0)
(0.0042742 -0.00523189 0)
(0.00576836 -0.00552671 0)
(0.00726266 -0.00549675 0)
(0.00865192 -0.00519105 0)
(0.00988914 -0.00466196 0)
(0.0109131 -0.00397434 0)
(0.0116997 -0.00318829 0)
(0.012224 -0.00236107 0)
(0.0124833 -0.00153807 0)
(0.0124754 -0.000753281 0)
(0.0122081 -2.56755e-05 0)
(0.0116861 0.000639497 0)
(0.0109141 0.00125058 0)
(0.00988944 0.00182675 0)
(0.00860282 0.00239543 0)
(0.00703527 0.00298855 0)
(0.00515936 0.00363905 0)
(0.00293904 0.00437748 0)
(0.00033199 0.00522958 0)
(-0.00270883 0.00621472 0)
(-0.0062325 0.00734549 0)
(-0.0102881 0.00862809 0)
(-0.0149226 0.0100632 0)
(-0.0201785 0.011647 0)
(-0.0260919 0.0133711 0)
(-0.0326903 0.0152236 0)
(-0.03999 0.0171878 0)
(-0.0479943 0.0192422 0)
(-0.0566905 0.0213602 0)
(-0.0660491 0.0235095 0)
(-0.0760222 0.025653 0)
(-0.0865439 0.0277496 0)
(-0.0975312 0.0297551 0)
(-0.108886 0.0316243 0)
(-0.120499 0.0333124 0)
(-0.132253 0.0347776 0)
(-0.144027 0.035982 0)
(-0.155701 0.0368938 0)
(-0.167159 0.037488 0)
(-0.178295 0.0377472 0)
(-0.189013 0.0376613 0)
(-0.199229 0.0372272 0)
(-0.208872 0.0364484 0)
(-0.217883 0.0353336 0)
(-0.226216 0.033896 0)
(-0.233836 0.0321518 0)
(-0.240714 0.0301196 0)
(-0.246832 0.0278193 0)
(-0.252176 0.0252716 0)
(-0.256738 0.022497 0)
(-0.26051 0.0195163 0)
(-0.26349 0.0163495 0)
(-0.265675 0.0130164 0)
(-0.267063 0.00953649 0)
(-0.267652 0.00592908 0)
(-0.267441 0.00221377 0)
(-0.266427 -0.00158928 0)
(-0.264609 -0.00545894 0)
(-0.261985 -0.00937269 0)
(-0.258554 -0.0133061 0)
(-0.254315 -0.0172327 0)
(-0.249269 -0.0211231 0)
(-0.24342 -0.0249454 0)
(-0.236774 -0.0286644 0)
(-0.229343 -0.0322421 0)
(-0.221143 -0.0356376 0)
(-0.212195 -0.0388074 0)
(-0.202529 -0.0417066 0)
(-0.192183 -0.044289 0)
(-0.181204 -0.046509 0)
(-0.169648 -0.0483227 0)
(-0.157584 -0.0496894 0)
(-0.14509 -0.0505736 0)
(-0.132253 -0.0509469 0)
(-0.119172 -0.0507895 0)
(-0.105952 -0.0500917 0)
(-0.0927053 -0.0488554 0)
(-0.0795482 -0.0470948 0)
(-0.066598 -0.0448362 0)
(-0.0539707 -0.0421183 0)
(-0.041778 -0.0389905 0)
(-0.0301252 -0.035512 0)
(-0.0191083 -0.0317496 0)
(-0.00881302 -0.0277757 0)
(0.00068699 -0.0236659 0)
(0.00933042 -0.0194971 0)
(0.0170688 -0.0153453 0)
(0.0238664 -0.0112837 0)
(0.0297006 -0.00738147 0)
(0.0345615 -0.00370167 0)
(0.0384525 -0.000300255 0)
(0.0413906 0.00277543 0)
(0.0434066 0.00548796 0)
(0.0445458 0.00781091 0)
(0.0448668 0.00972983 0)
(0.0444418 0.0112426 0)
(0.0433537 0.0123593 0)
(0.0416946 0.0131016 0)
(0.0395616 0.0135008 0)
(0.0370547 0.0135963 0)
(0.0342705 0.0134331 0)
(0.0313021 0.0130583 0)
(0.0282321 0.01252 0)
(0.0251354 0.011863 0)
(0.0220712 0.0111283 0)
(0.0190928 0.0103488 0)
(0.0162341 0.00954981 0)
(0.013531 0.00874391 0)
(0.0109967 0.00793451 0)
(0.00866248 0.00710811 0)
(0.00652778 0.00624689 0)
(0.00463869 0.00531575 0)
(0.00298608 0.00429448 0)
(0.0016595 0.00315116 0)
(0.000638421 0.00191408 0)
(9.70162e-05 0.000606433 0)
(0.000101924 -0.00113774 0)
(0.000681279 -0.00314768 0)
(0.00174776 -0.00478131 0)
(0.00306088 -0.0059964 0)
(0.00457502 -0.0067511 0)
(0.00611791 -0.00706189 0)
(0.00762763 -0.00695788 0)
(0.00899079 -0.00650294 0)
(0.01016 -0.00576702 0)
(0.0110723 -0.00483161 0)
(0.0117054 -0.00377251 0)
(0.0120346 -0.00265968 0)
(0.0120574 -0.00154809 0)
(0.0117699 -0.000477286 0)
(0.0111766 0.00053198 0)
(0.0102766 0.00147648 0)
(0.0090669 0.00236973 0)
(0.00753525 0.00323854 0)
(0.00566148 0.0041194 0)
(0.00341478 0.00505364 0)
(0.000755934 0.0060829 0)
(-0.00236219 0.0072448 0)
(-0.00599142 0.00856989 0)
(-0.0101861 0.0100798 0)
(-0.0149997 0.011787 0)
(-0.0204824 0.0136947 0)
(-0.0266782 0.0157986 0)
(-0.0336219 0.0180871 0)
(-0.0413369 0.0205419 0)
(-0.0498318 0.0231381 0)
(-0.059098 0.0258439 0)
(-0.0691076 0.0286203 0)
(-0.0798115 0.0314215 0)
(-0.0911396 0.0341956 0)
(-0.103002 0.0368861 0)
(-0.11529 0.0394342 0)
(-0.127882 0.0417813 0)
(-0.140649 0.0438714 0)
(-0.153457 0.045654 0)
(-0.166174 0.0470861 0)
(-0.178677 0.048134 0)
(-0.190851 0.0487739 0)
(-0.202598 0.0489919 0)
(-0.213835 0.0487839 0)
(-0.224493 0.0481541 0)
(-0.234519 0.0471136 0)
(-0.243874 0.0456793 0)
(-0.252529 0.0438717 0)
(-0.260466 0.0417143 0)
(-0.267675 0.0392316 0)
(-0.274149 0.0364486 0)
(-0.279886 0.03339 0)
(-0.284886 0.0300795 0)
(-0.289151 0.02654 0)
(-0.292682 0.022793 0)
(-0.29548 0.0188587 0)
(-0.297544 0.0147567 0)
(-0.298873 0.0105057 0)
(-0.299465 0.00612439 0)
(-0.299316 0.00163136 0)
(-0.298419 -0.00295396 0)
(-0.296769 -0.00761094 0)
(-0.294358 -0.0123172 0)
(-0.291178 -0.0170482 0)
(-0.287221 -0.0217764 0)
(-0.282479 -0.026471 0)
(-0.276947 -0.0310977 0)
(-0.270621 -0.0356182 0)
(-0.263498 -0.03999 0)
(-0.255582 -0.0441667 0)
(-0.246882 -0.0480986 0)
(-0.237412 -0.0517325 0)
(-0.227196 -0.0550136 0)
(-0.216266 -0.0578861 0)
(-0.204665 -0.0602952 0)
(-0.192448 -0.0621888 0)
(-0.179683 -0.0635199 0)
(-0.16645 -0.0642488 0)
(-0.15284 -0.0643454 0)
(-0.138959 -0.0637913 0)
(-0.12492 -0.0625818 0)
(-0.110844 -0.0607269 0)
(-0.0968557 -0.058252 0)
(-0.0830826 -0.0551978 0)
(-0.0696485 -0.0516189 0)
(-0.0566716 -0.0475824 0)
(-0.044261 -0.0431654 0)
(-0.0325144 -0.0384521 0)
(-0.0215162 -0.0335311 0)
(-0.0113366 -0.0284924 0)
(-0.00203213 -0.0234252 0)
(0.0063546 -0.0184156 0)
(0.0137934 -0.0135448 0)
(0.020266 -0.00888796 0)
(0.0257652 -0.00451323 0)
(0.0302949 -0.000480292 0)
(0.0338701 0.00316054 0)
(0.0365174 0.0063696 0)
(0.038276 0.00911909 0)
(0.0391977 0.0113941 0)
(0.0393465 0.0131932 0)
(0.0387986 0.0145287 0)
(0.0376392 0.0154258 0)
(0.0359612 0.0159211 0)
(0.0338599 0.0160604 0)
(0.0314324 0.0158956 0)
(0.0287695 0.0154821 0)
(0.0259587 0.014875 0)
(0.0230736 0.014126 0)
(0.0201837 0.0132799 0)
(0.0173387 0.0123724 0)
(0.0145906 0.0114253 0)
(0.0119655 0.0104481 0)
(0.00950846 0.00943144 0)
(0.00722712 0.00835595 0)
(0.00518072 0.00718376 0)
(0.00336448 0.00588298 0)
(0.00188728 0.00441046 0)
(0.000732838 0.00276567 0)
(0.000112793 0.000946099 0)
(0.000109231 -0.0014825 0)
(0.000727095 -0.00401172 0)
(0.0018532 -0.006013 0)
(0.00321945 -0.00745203 0)
(0.00476831 -0.00830225 0)
(0.00630981 -0.00859317 0)
(0.00777625 -0.0083728 0)
(0.00904765 -0.00772349 0)
(0.010077 -0.00673557 0)
(0.0108014 -0.00550849 0)
(0.0112012 -0.00413414 0)
(0.0112526 -0.00269435 0)
(0.0109538 -0.00125215 0)
(0.0102987 0.000149521 0)
(0.00928749 0.00149051 0)
(0.007912 0.00277207 0)
(0.00615986 0.00401501 0)
(0.00400713 0.00525546 0)
(0.00142101 0.0065399 0)
(-0.00164224 0.00791913 0)
(-0.00523381 0.00944255 0)
(-0.00941082 0.011153 0)
(-0.0142321 0.0130832 0)
(-0.0197551 0.0152538 0)
(-0.0260321 0.0176727 0)
(-0.0331068 0.0203362 0)
(-0.0410109 0.0232294 0)
(-0.0497609 0.0263273 0)
(-0.0593551 0.0295952 0)
(-0.0697706 0.0329891 0)
(-0.0809613 0.0364558 0)
(-0.0928568 0.0399336 0)
(-0.105364 0.0433544 0)
(-0.118368 0.0466455 0)
(-0.131738 0.0497333 0)
(-0.145333 0.0525466 0)
(-0.159007 0.0550198 0)
(-0.172617 0.0570965 0)
(-0.186028 0.0587317 0)
(-0.19912 0.0598928 0)
(-0.211787 0.0605601 0)
(-0.223945 0.0607264 0)
(-0.235524 0.0603951 0)
(-0.246475 0.0595789 0)
(-0.256763 0.0582972 0)
(-0.266365 0.0565748 0)
(-0.275268 0.0544392 0)
(-0.283469 0.0519198 0)
(-0.290966 0.049046 0)
(-0.297763 0.0458469 0)
(-0.303867 0.0423499 0)
(-0.309282 0.038581 0)
(-0.314015 0.0345644 0)
(-0.318071 0.0303222 0)
(-0.321453 0.0258749 0)
(-0.324163 0.0212416 0)
(-0.326201 0.01644 0)
(-0.327567 0.0114874 0)
(-0.328256 0.00640043 0)
(-0.328264 0.00119626 0)
(-0.327584 -0.00410731 0)
(-0.326206 -0.00949112 0)
(-0.32412 -0.014934 0)
(-0.321314 -0.0204121 0)
(-0.317775 -0.0258984 0)
(-0.313488 -0.0313621 0)
(-0.30844 -0.0367679 0)
(-0.302615 -0.0420759 0)
(-0.296001 -0.0472409 0)
(-0.288587 -0.0522128 0)
(-0.280368 -0.0569363 0)
(-0.271342 -0.0613516 0)
(-0.261513 -0.0653956 0)
(-0.250897 -0.0690025 0)
(-0.239517 -0.072106 0)
(-0.227412 -0.0746415 0)
(-0.214632 -0.0765482 0)
(-0.201244 -0.0777724 0)
(-0.187329 -0.0782701 0)
(-0.172984 -0.0780103 0)
(-0.158322 -0.0769772 0)
(-0.143467 -0.0751723 0)
(-0.128552 -0.0726162 0)
(-0.113718 -0.0693482 0)
(-0.0991039 -0.0654259 0)
(-0.0848481 -0.0609233 0)
(-0.0710796 -0.0559276 0)
(-0.0579157 -0.0505363 0)
(-0.0454584 -0.0448528 0)
(-0.033793 -0.0389824 0)
(-0.0229872 -0.0330297 0)
(-0.0130916 -0.0270948 0)
(-0.00414166 -0.0212719 0)
(0.00384082 -0.0156477 0)
(0.0108453 -0.0103007 0)
(0.0168713 -0.00530038 0)
(0.0219269 -0.000707189 0)
(0.0260294 0.00342873 0)
(0.0292049 0.00706827 0)
(0.0314898 0.0101846 0)
(0.0329314 0.0127641 0)
(0.0335886 0.0148078 0)
(0.0335306 0.0163309 0)
(0.0328377 0.0173625 0)
(0.0315961 0.0179441 0)
(0.0298988 0.0181272 0)
(0.0278372 0.01797 0)
(0.0255039 0.0175335 0)
(0.0229815 0.016878 0)
(0.0203516 0.0160581 0)
(0.0176767 0.0151196 0)
(0.0150238 0.0140943 0)
(0.0124318 0.0129986 0)
(0.00996025 0.0118288 0)
(0.00762713 0.0105651 0)
(0.0055054 0.00916789 0)
(0.00359775 0.00759228 0)
(0.00203002 0.00578231 0)
(0.000792438 0.0037035 0)
(0.000122678 0.00132366 0)
(0.000115313 -0.00185035 0)
(0.000762207 -0.00492302 0)
(0.00192716 -0.00729472 0)
(0.00331615 -0.00894134 0)
(0.0048589 -0.00985509 0)
(0.00634954 -0.0100831 0)
(0.0077149 -0.00969705 0)
(0.0088302 -0.00880163 0)
(0.00964976 -0.00751047 0)
(0.0101122 -0.00594241 0)
(0.0102012 -0.0042056 0)
(0.00989447 -0.00239262 0)
(0.00919041 -0.000572599 0)
(0.00808008 0.00121073 0)
(0.00655799 0.00294067 0)
(0.00460714 0.00462565 0)
(0.00220392 0.00629606 0)
(-0.000688645 0.00799876 0)
(-0.0041168 0.00979056 0)
(-0.00813692 0.0117309 0)
(-0.0128105 0.0138747 0)
(-0.0182014 0.0162669 0)
(-0.0243703 0.0189381 0)
(-0.0313712 0.0219027 0)
(-0.0392463 0.0251589 0)
(-0.0480227 0.0286893 0)
(-0.0577085 0.032462 0)
(-0.0682895 0.0364317 0)
(-0.0797263 0.0405407 0)
(-0.0919534 0.0447201 0)
(-0.104878 0.0488911 0)
(-0.118385 0.0529683 0)
(-0.132337 0.0568626 0)
(-0.146582 0.0604862 0)
(-0.160965 0.0637565 0)
(-0.17533 0.0666008 0)
(-0.18953 0.0689592 0)
(-0.203433 0.0707871 0)
(-0.216925 0.0720557 0)
(-0.229916 0.0727518 0)
(-0.242333 0.0728755 0)
(-0.254125 0.0724389 0)
(-0.265258 0.0714628 0)
(-0.275712 0.0699746 0)
(-0.285477 0.0680058 0)
(-0.294552 0.0655898 0)
(-0.302941 0.0627609 0)
(-0.310652 0.0595523 0)
(-0.317695 0.0559962 0)
(-0.32408 0.0521225 0)
(-0.329817 0.0479589 0)
(-0.334915 0.0435308 0)
(-0.339385 0.0388612 0)
(-0.343232 0.0339711 0)
(-0.346463 0.0288793 0)
(-0.349083 0.0236031 0)
(-0.351093 0.0181586 0)
(-0.352496 0.0125611 0)
(-0.353289 0.00682527 0)
(-0.353468 0.000966159 0)
(-0.353029 -0.00500054 0)
(-0.351962 -0.0110578 0)
(-0.350256 -0.0171865 0)
(-0.347897 -0.0233648 0)
(-0.344868 -0.0295674 0)
(-0.341152 -0.0357649 0)
(-0.336725 -0.0419229 0)
(-0.331567 -0.0480016 0)
(-0.325652 -0.0539551 0)
(-0.318957 -0.0597311 0)
(-0.311459 -0.0652711 0)
(-0.30314 -0.0705103 0)
(-0.293984 -0.0753782 0)
(-0.283983 -0.0798001 0)
(-0.273139 -0.0836984 0)
(-0.261466 -0.0869951 0)
(-0.248991 -0.0896142 0)
(-0.23576 -0.0914852 0)
(-0.221834 -0.0925467 0)
(-0.207297 -0.09275 0)
(-0.192251 -0.0920631 0)
(-0.176818 -0.0904733 0)
(-0.161136 -0.0879901 0)
(-0.145356 -0.0846465 0)
(-0.129636 -0.0804985 0)
(-0.114136 -0.075624 0)
(-0.0990142 -0.0701196 0)
(-0.084416 -0.0640966 0)
(-0.0704723 -0.0576755 0)
(-0.057294 -0.0509814 0)
(-0.04497 -0.0441383 0)
(-0.0335669 -0.0372655 0)
(-0.0231301 -0.0304738 0)
(-0.0136863 -0.0238642 0)
(-0.00524698 -0.0175267 0)
(0.0021883 -0.0115403 0)
(0.00862896 -0.00597332 0)
(0.0140918 -0.000883406 0)
(0.0185997 0.00368239 0)
(0.0221825 0.00768836 0)
(0.0248773 0.0111112 0)
(0.0267303 0.0139412 0)
(0.027797 0.0161831 0)
(0.0281433 0.0178564 0)
(0.0278435 0.018995 0)
(0.026981 0.0196455 0)
(0.0256418 0.0198644 0)
(0.0239175 0.0197145 0)
(0.0218932 0.0192608 0)
(0.0196571 0.0185651 0)
(0.0172813 0.0176814 0)
(0.014844 0.0166505 0)
(0.0123963 0.0154956 0)
(0.0100109 0.0142193 0)
(0.00771724 0.0128021 0)
(0.00560158 0.0112028 0)
(0.00367644 0.00936398 0)
(0.00208108 0.00721633 0)
(0.0008136 0.00469032 0)
(0.000125745 0.00172295 0)
(0.000121068 -0.00223383 0)
(0.000789114 -0.00586122 0)
(0.00197265 -0.00859341 0)
(0.00335312 -0.0104188 0)
(0.00484688 -0.0113527 0)
(0.00623459 -0.0114652 0)
(0.00743864 -0.0108565 0)
(0.00833187 -0.00965768 0)
(0.00887119 -0.00800843 0)
(0.00899828 -0.00604786 0)
(0.00870038 -0.00389986 0)
(0.00795698 -0.00166594 0)
(0.00676578 0.0005814 0)
(0.00511369 0.00280088 0)
(0.00298786 0.00498246 0)
(0.000360743 0.00714458 0)
(-0.00280393 0.00932912 0)
(-0.00655672 0.0115944 0)
(-0.0109568 0.0140067 0)
(-0.0160709 0.0166317 0)
(-0.021967 0.0195261 0)
(-0.0287096 0.0227316 0)
(-0.0363537 0.0262704 0)
(-0.0449402 0.0301443 0)
(-0.0544906 0.0343341 0)
(-0.0650036 0.0388015 0)
(-0.0764513 0.0434903 0)
(-0.0887774 0.0483285 0)
(-0.101896 0.0532303 0)
(-0.115694 0.0580993 0)
(-0.130033 0.0628323 0)
(-0.144756 0.0673244 0)
(-0.159696 0.0714744 0)
(-0.174686 0.0751903 0)
(-0.189564 0.078394 0)
(-0.204185 0.0810246 0)
(-0.218422 0.08304 0)
(-0.232172 0.0844168 0)
(-0.245356 0.0851487 0)
(-0.257918 0.0852443 0)
(-0.269818 0.0847235 0)
(-0.281035 0.083615 0)
(-0.29156 0.0819529 0)
(-0.301393 0.0797746 0)
(-0.310539 0.0771186 0)
(-0.319009 0.0740232 0)
(-0.326815 0.0705251 0)
(-0.333971 0.0666595 0)
(-0.340492 0.0624588 0)
(-0.346391 0.0579529 0)
(-0.351684 0.053169 0)
(-0.356385 0.0481318 0)
(-0.360505 0.0428632 0)
(-0.364057 0.0373828 0)
(-0.367052 0.0317084 0)
(-0.369498 0.0258555 0)
(-0.371404 0.0198383 0)
(-0.372775 0.01367 0)