/*--------------------------------*- C++ -*----------------------------------*\
| =========                 |                                                 |
| \\      /  F ield         | OpenFOAM: The Open Source CFD Toolbox           |
|  \\    /   O peration     | Version:  2406                                  |
|   \\  /    A nd           | Website:  www.openfoam.com                      |
|    \\/     M anipulation  |                                                 |
\*---------------------------------------------------------------------------*/
FoamFile
{
    version     2.0;
    format      ascii;
    arch        "LSB;label=32;scalar=64";
    class       volScalarField;
    location    "28.25";
    object      p;
}
// * * * * * * * * * * * * * * * * * * * * * * * * * * * * * * * * * * * * * //

dimensions      [0 2 -2 0 0 0 0];

internalField   nonuniform List<scalar> 
14400
(
0.0391458
0.0391556
0.0391626
0.0391707
0.0391702
0.0391652
0.0391508
0.0391303
0.0391017
0.0390677
0.0390278
0.0389839
0.038936
0.0388854
0.038832
0.0387764
0.0387182
0.0386574
0.0385934
0.0385257
0.0384535
0.0383759
0.0382922
0.0382014
0.0381029
0.0379956
0.037879
0.0377524
0.037615
0.0374663
0.0373059
0.0371331
0.0369478
0.0367496
0.0365386
0.0363151
0.0360794
0.0358323
0.035575
0.035309
0.0350363
0.0347594
0.0344811
0.0342048
0.0339346
0.0336747
0.0334299
0.0332053
0.0330062
0.0328383
0.0327071
0.0326182
0.0325767
0.0325875
0.032655
0.0327828
0.0329736
0.0332289
0.0335494
0.0339339
0.0343804
0.0348847
0.0354416
0.0360437
0.0366825
0.0373476
0.0380275
0.0387093
0.0393792
0.040023
0.040626
0.0411738
0.0416528
0.0420505
0.042356
0.0425608
0.0426588
0.0426467
0.0425245
0.0422953
0.0419651
0.041543
0.0410406
0.0404711
0.0398496
0.0391914
0.0385123
0.0378273
0.0371505
0.0364941
0.0358686
0.0352824
0.0347417
0.0342503
0.0338104
0.0334221
0.0330842
0.0327941
0.0325485
0.0323435
0.0321748
0.0320381
0.031929
0.0318436
0.031778
0.031729
0.0316933
0.0316687
0.0316525
0.0316437
0.03164
0.0316414
0.0316459
0.0316549
0.0316657
0.0316811
0.0316962
0.0317147
0.0317279
0.0317379
0.039136
0.0391458
0.0391485
0.0391532
0.0391494
0.0391427
0.0391276
0.0391078
0.0390807
0.039049
0.0390117
0.0389706
0.0389257
0.0388779
0.0388272
0.038774
0.038718
0.0386593
0.0385973
0.0385314
0.0384612
0.0383858
0.0383045
0.0382166
0.0381214
0.038018
0.0379058
0.0377842
0.0376525
0.0375102
0.0373567
0.0371915
0.0370143
0.0368249
0.0366232
0.0364092
0.0361835
0.0359465
0.0356993
0.0354434
0.0351804
0.0349125
0.0346426
0.0343739
0.0341099
0.0338548
0.0336132
0.0333901
0.0331905
0.0330201
0.0328842
0.0327883
0.0327376
0.032737
0.0327909
0.0329029
0.0330757
0.0333113
0.0336102
0.0339717
0.0343938
0.0348727
0.0354033
0.0359787
0.0365906
0.0372291
0.0378828
0.0385393
0.0391852
0.0398066
0.040389
0.0409185
0.0413817
0.0417664
0.0420619
0.0422598
0.0423542
0.042342
0.0422232
0.0420007
0.0416807
0.0412721
0.0407861
0.040236
0.0396362
0.0390019
0.0383483
0.0376899
0.03704
0.0364106
0.0358113
0.0352502
0.0347326
0.0342624
0.033841
0.0334685
0.0331436
0.0328636
0.0326255
0.0324254
0.0322593
0.0321232
0.0320131
0.0319253
0.0318563
0.0318031
0.0317628
0.0317333
0.0317123
0.0316986
0.0316901
0.031687
0.0316868
0.0316912
0.0316968
0.0317071
0.0317161
0.0317295
0.0317375
0.0317478
0.0391289
0.0391431
0.0391459
0.0391517
0.0391475
0.039141
0.0391255
0.0391057
0.0390785
0.0390469
0.0390099
0.0389694
0.0389251
0.0388782
0.0388285
0.0387765
0.0387219
0.0386646
0.0386041
0.03854
0.0384715
0.038398
0.0383188
0.0382331
0.0381402
0.0380393
0.0379298
0.0378111
0.0376824
0.0375432
0.0373929
0.037231
0.037057
0.0368707
0.0366718
0.0364604
0.0362366
0.0360011
0.0357546
0.0354984
0.0352342
0.0349641
0.0346907
0.0344172
0.0341473
0.033885
0.0336351
0.0334025
0.0331926
0.0330109
0.0328632
0.0327551
0.032692
0.032679
0.0327207
0.0328209
0.0329827
0.033208
0.0334976
0.033851
0.034266
0.0347393
0.0352655
0.035838
0.0364484
0.0370867
0.0377416
0.0384006
0.0390501
0.0396759
0.0402637
0.0407991
0.0412684
0.0416592
0.0419606
0.0421639
0.0422628
0.042254
0.0421375
0.0419162
0.0415961
0.0411864
0.0406986
0.040146
0.0395436
0.0389069
0.0382515
0.0375922
0.0369427
0.036315
0.0357191
0.0351628
0.0346515
0.0341887
0.0337757
0.0334122
0.0330964
0.0328257
0.0325964
0.0324045
0.0322458
0.0321161
0.0320115
0.0319282
0.0318627
0.0318123
0.0317738
0.0317457
0.0317252
0.0317118
0.031703
0.0316994
0.0316982
0.0317018
0.031706
0.0317156
0.0317233
0.0317377
0.0317454
0.0317613
0.0391202
0.039138
0.0391398
0.0391458
0.0391401
0.039133
0.0391167
0.0390968
0.0390698
0.0390389
0.0390029
0.0389638
0.0389212
0.0388763
0.0388288
0.0387792
0.0387271
0.0386725
0.0386147
0.0385535
0.0384882
0.038418
0.0383423
0.0382603
0.0381715
0.038075
0.0379703
0.0378566
0.0377332
0.0375996
0.037455
0.0372987
0.0371304
0.0369493
0.0367551
0.0365477
0.036327
0.0360933
0.0358472
0.0355898
0.0353225
0.0350473
0.0347667
0.0344839
0.0342025
0.0339267
0.0336613
0.0334115
0.033183
0.0329815
0.032813
0.0326833
0.0325984
0.0325634
0.0325831
0.0326618
0.0328025
0.0330073
0.0332773
0.0336119
0.0340094
0.0344663
0.0349776
0.0355366
0.0361352
0.0367636
0.0374105
0.0380635
0.0387091
0.0393332
0.0399214
0.0404592
0.0409328
0.0413296
0.0416385
0.0418503
0.0419586
0.0419598
0.0418534
0.0416422
0.0413321
0.0409322
0.0404538
0.0399106
0.0393176
0.0386905
0.0380451
0.0373964
0.0367584
0.0361432
0.0355608
0.035019
0.0345231
0.0340764
0.0336799
0.0333329
0.0330334
0.0327782
0.0325633
0.0323847
0.0322377
0.0321181
0.0320218
0.0319452
0.0318848
0.031838
0.0318019
0.0317751
0.0317549
0.0317411
0.0317312
0.0317261
0.0317228
0.0317242
0.0317254
0.0317328
0.0317372
0.0317514
0.0317575
0.0317793
0.039119
0.0391406
0.0391429
0.0391504
0.0391443
0.0391372
0.0391201
0.0390996
0.0390718
0.0390405
0.0390043
0.0389654
0.0389233
0.0388794
0.0388333
0.0387854
0.0387354
0.0386832
0.0386282
0.0385699
0.0385076
0.0384405
0.0383681
0.0382895
0.038204
0.0381109
0.0380094
0.0378988
0.0377784
0.0376472
0.0375045
0.0373494
0.0371811
0.0369987
0.0368017
0.0365895
0.0363619
0.0361189
0.035861
0.035589
0.0353045
0.0350094
0.0347065
0.0343991
0.0340912
0.0337875
0.0334932
0.0332141
0.0329561
0.0327256
0.0325289
0.0323723
0.0322618
0.0322031
0.0322009
0.0322597
0.0323825
0.0325717
0.032828
0.0331512
0.0335394
0.0339892
0.0344957
0.0350522
0.0356506
0.0362812
0.0369328
0.0375931
0.0382486
0.038885
0.0394878
0.0400423
0.0405345
0.0409512
0.0412809
0.041514
0.0416433
0.0416648
0.0415774
0.0413833
0.0410883
0.0407009
0.0402327
0.0396973
0.03911
0.0384868
0.0378441
0.0371974
0.0365613
0.0359483
0.0353692
0.0348319
0.0343421
0.0339033
0.0335164
0.0331808
0.032894
0.0326526
0.0324522
0.0322882
0.0321557
0.0320499
0.0319665
0.0319015
0.0318514
0.0318135
0.0317849
0.0317641
0.0317488
0.0317387
0.0317314
0.0317281
0.0317257
0.0317278
0.0317288
0.0317368
0.0317408
0.0317572
0.0317638
0.0317922
0.0391211
0.0391452
0.0391474
0.0391552
0.0391481
0.0391402
0.0391219
0.0391005
0.0390718
0.0390402
0.0390039
0.0389655
0.0389244
0.038882
0.0388379
0.0387925
0.0387453
0.0386963
0.0386446
0.0385899
0.0385313
0.038468
0.0383994
0.0383247
0.038243
0.0381536
0.0380555
0.0379479
0.0378298
0.0377001
0.0375577
0.0374014
0.03723
0.0370423
0.0368373
0.0366142
0.0363725
0.0361119
0.0358328
0.0355363
0.0352238
0.0348978
0.0345612
0.034218
0.0338728
0.0335308
0.0331977
0.0328799
0.0325838
0.0323163
0.032084
0.0318933
0.0317506
0.0316614
0.0316307
0.0316628
0.0317608
0.031927
0.0321623
0.0324663
0.0328374
0.0332721
0.0337659
0.0343122
0.0349033
0.0355297
0.0361806
0.0368438
0.0375061
0.0381534
0.0387713
0.0393449
0.0398602
0.0403034
0.0406627
0.0409277
0.0410906
0.0411465
0.0410936
0.0409332
0.0406702
0.0403129
0.0398721
0.0393614
0.0387957
0.0381916
0.0375653
0.036933
0.0363096
0.0357083
0.0351401
0.0346136
0.034135
0.0337079
0.0333335
0.0330113
0.0327388
0.0325124
0.0323275
0.0321791
0.0320621
0.0319713
0.031902
0.0318501
0.0318116
0.031784
0.031764
0.0317505
0.0317409
0.0317353
0.0317312
0.0317302
0.0317289
0.0317318
0.0317325
0.0317407
0.0317437
0.0317615
0.0317678
0.0318014
0.0391315
0.0391575
0.0391597
0.0391679
0.0391599
0.0391512
0.0391313
0.0391086
0.0390785
0.0390458
0.0390088
0.0389703
0.0389297
0.0388883
0.0388457
0.0388025
0.0387579
0.0387118
0.0386633
0.038612
0.0385567
0.0384969
0.0384315
0.0383596
0.0382803
0.0381926
0.0380953
0.0379874
0.0378673
0.0377338
0.0375851
0.0374197
0.0372359
0.037032
0.0368069
0.0365592
0.0362885
0.0359945
0.0356779
0.0353399
0.0349827
0.0346093
0.0342235
0.0338299
0.033434
0.0330416
0.0326593
0.0322939
0.0319523
0.0316415
0.0313685
0.0311399
0.0309617
0.0308398
0.0307789
0.0307831
0.0308557
0.0309987
0.031213
0.0314984
0.0318532
0.0322743
0.0327571
0.0332957
0.0338825
0.0345084
0.0351631
0.0358348
0.0365107
0.0371768
0.0378189
0.0384223
0.0389724
0.0394554
0.0398586
0.040171
0.0403838
0.040491
0.0404894
0.0403795
0.040165
0.039853
0.0394538
0.0389801
0.038447
0.0378705
0.0372675
0.0366544
0.0360466
0.035458
0.0349005
0.0343832
0.033913
0.0334941
0.0331284
0.0328155
0.0325533
0.0323384
0.032166
0.0320311
0.0319282
0.0318519
0.0317971
0.0317592
0.0317342
0.0317189
0.0317101
0.0317065
0.0317053
0.0317069
0.0317085
0.0317123
0.0317144
0.0317202
0.0317225
0.0317325
0.0317361
0.031756
0.0317628
0.0318007
0.0391474
0.0391744
0.039176
0.0391837
0.0391742
0.039164
0.0391421
0.0391176
0.0390859
0.039052
0.0390143
0.0389758
0.0389358
0.0388956
0.038855
0.0388141
0.0387723
0.0387293
0.0386842
0.0386361
0.0385841
0.0385272
0.0384643
0.0383942
0.0383159
0.0382278
0.0381286
0.0380166
0.03789
0.0377467
0.0375846
0.0374016
0.0371955
0.0369643
0.0367065
0.036421
0.0361071
0.0357653
0.0353965
0.0350029
0.0345874
0.0341539
0.0337071
0.0332526
0.0327964
0.0323453
0.0319062
0.0314863
0.0310928
0.0307328
0.0304134
0.0301409
0.0299216
0.0297608
0.0296633
0.0296331
0.0296733
0.0297859
0.0299719
0.030231
0.0305617
0.0309614
0.0314259
0.0319496
0.0325255
0.0331453
0.033799
0.0344757
0.0351631
0.0358479
0.036516
0.0371531
0.0377446
0.0382764
0.0387352
0.0391093
0.0393888
0.0395662
0.0396371
0.0396001
0.0394574
0.0392147
0.0388808
0.0384675
0.037989
0.0374611
0.0369003
0.0363233
0.035746
0.0351829
0.0346463
0.0341464
0.0336908
0.0332844
0.0329298
0.0326273
0.0323753
0.0321707
0.0320091
0.0318855
0.0317944
0.0317304
0.0316881
0.0316628
0.03165
0.0316463
0.0316484
0.0316546
0.0316621
0.0316712
0.031679
0.031688
0.031694
0.0317028
0.0317071
0.0317187
0.031723
0.0317441
0.0317511
0.0317914
0.0391717
0.0391989
0.0391999
0.0392067
0.0391955
0.0391833
0.0391592
0.0391325
0.0390988
0.0390633
0.0390246
0.0389857
0.0389459
0.0389067
0.0388676
0.0388287
0.0387893
0.0387489
0.0387064
0.0386607
0.0386108
0.0385553
0.0384929
0.0384221
0.0383412
0.0382484
0.0381416
0.0380187
0.0378771
0.0377141
0.0375271
0.0373133
0.0370702
0.0367959
0.0364887
0.0361478
0.0357734
0.0353665
0.0349291
0.0344643
0.0339761
0.0334696
0.0329503
0.0324246
0.0318995
0.0313819
0.0308793
0.0303991
0.0299486
0.0295349
0.0291649
0.0288449
0.0285808
0.0283778
0.0282407
0.028173
0.0281778
0.0282571
0.0284118
0.0286418
0.0289459
0.0293216
0.0297653
0.0302719
0.0308351
0.0314472
0.0320992
0.032781
0.0334809
0.0341865
0.0348844
0.0355606
0.0362008
0.0367908
0.037317
0.0377668
0.0381291
0.0383951
0.0385584
0.038616
0.0385678
0.0384174
0.0381719
0.0378415
0.0374388
0.036979
0.036478
0.0359526
0.0354187
0.0348916
0.0343844
0.0339081
0.0334713
0.0330799
0.0327374
0.0324449
0.0322016
0.032005
0.0318513
0.0317359
0.0316535
0.0315988
0.0315664
0.0315515
0.0315492
0.0315561
0.0315685
0.0315844
0.031601
0.0316182
0.0316332
0.0316482
0.0316593
0.0316723
0.0316796
0.0316936
0.0316993
0.0317217
0.0317292
0.0317704
0.0392031
0.0392298
0.0392297
0.0392348
0.0392214
0.0392067
0.03918
0.0391507
0.0391148
0.0390776
0.0390378
0.0389985
0.0389589
0.0389206
0.0388829
0.0388458
0.0388083
0.0387699
0.0387291
0.0386848
0.0386354
0.0385792
0.0385144
0.0384392
0.0383511
0.0382478
0.0381264
0.0379839
0.0378171
0.0376227
0.0373974
0.0371383
0.0368429
0.0365092
0.0361363
0.035724
0.0352735
0.0347869
0.0342675
0.0337195
0.033148
0.0325591
0.0319593
0.0313556
0.0307553
0.0301659
0.0295951
0.0290502
0.0285385
0.0280671
0.0276426
0.0272711
0.0269582
0.0267089
0.0265276
0.0264178
0.0263824
0.0264231
0.0265409
0.026736
0.0270073
0.0273526
0.0277688
0.0282515
0.0287952
0.029393
0.0300369
0.0307178
0.0314252
0.0321477
0.0328728
0.0335874
0.0342778
0.0349299
0.0355301
0.0360653
0.0365234
0.0368941
0.0371694
0.0373436
0.0374145
0.0373831
0.0372538
0.0370344
0.0367357
0.036371
0.0359554
0.0355048
0.0350355
0.0345627
0.0341005
0.0336608
0.0332531
0.0328847
0.03256
0.0322813
0.0320486
0.0318605
0.031714
0.0316049
0.0315286
0.0314802
0.0314545
0.0314466
0.0314519
0.0314668
0.0314871
0.031511
0.0315352
0.0315596
0.031581
0.0316018
0.0316177
0.0316346
0.031645
0.0316612
0.0316683
0.0316913
0.031699
0.0317396
0.0392434
0.0392691
0.0392677
0.0392705
0.0392546
0.039237
0.0392073
0.0391753
0.0391369
0.0390977
0.0390566
0.0390165
0.0389769
0.038939
0.0389021
0.038866
0.0388296
0.0387918
0.0387511
0.0387058
0.038654
0.0385936
0.038522
0.0384366
0.0383344
0.038212
0.0380657
0.0378919
0.0376864
0.0374456
0.037166
0.0368445
0.0364791
0.0360686
0.0356128
0.035113
0.0345715
0.0339917
0.0333782
0.0327366
0.0320729
0.0313941
0.0307074
0.0300204
0.0293407
0.0286761
0.0280342
0.0274224
0.0268479
0.0263175
0.0258375
0.0254137
0.0250514
0.0247552
0.0245292
0.0243766
0.0242999
0.0243009
0.0243805
0.0245387
0.0247747
0.0250868
0.0254722
0.0259272
0.026447
0.0270258
0.0276565
0.0283313
0.0290409
0.0297752
0.030523
0.0312724
0.0320105
0.0327241
0.0333998
0.0340245
0.0345854
0.0350712
0.035472
0.0357799
0.0359901
0.0361006
0.0361125
0.0360307
0.0358631
0.0356206
0.0353163
0.034965
0.0345823
0.0341836
0.0337832
0.0333941
0.033027
0.0326904
0.03239
0.0321296
0.0319105
0.0317321
0.0315926
0.0314888
0.0314168
0.0313722
0.0313502
0.0313465
0.0313565
0.0313764
0.0314024
0.0314322
0.0314625
0.0314929
0.03152
0.031546
0.0315666
0.0315874
0.031601
0.0316193
0.0316281
0.0316513
0.0316593
0.0316979
0.0392925
0.0393164
0.0393132
0.0393132
0.0392944
0.0392734
0.0392406
0.0392054
0.0391645
0.0391232
0.0390807
0.0390397
0.0389997
0.0389617
0.0389249
0.0388888
0.038852
0.0388132
0.0387702
0.038721
0.038663
0.0385934
0.0385089
0.0384059
0.0382806
0.0381285
0.0379452
0.0377261
0.0374669
0.0371635
0.0368126
0.0364118
0.0359597
0.0354565
0.0349032
0.0343026
0.0336584
0.0329754
0.0322596
0.0315175
0.0307563
0.0299835
0.0292069
0.0284345
0.0276743
0.026934
0.0262212
0.0255432
0.0249068
0.0243186
0.0237845
0.0233098
0.0228993
0.0225573
0.0222873
0.0220922
0.0219742
0.0219347
0.0219746
0.022094
0.022292
0.0225672
0.0229173
0.0233393
0.0238289
0.0243815
0.0249912
0.0256512
0.0263538
0.0270904
0.0278513
0.028626
0.0294032
0.0301708
0.0309163
0.031627
0.0322903
0.032894
0.033427
0.0338796
0.0342443
0.0345159
0.0346922
0.0347742
0.0347663
0.0346758
0.034513
0.0342906
0.0340224
0.0337232
0.0334075
0.0330887
0.0327788
0.0324875
0.0322222
0.0319883
0.0317884
0.0316237
0.0314934
0.0313956
0.0313273
0.031285
0.0312647
0.0312625
0.0312741
0.0312962
0.0313249
0.0313579
0.0313919
0.0314261
0.0314573
0.0314871
0.0315113
0.031535
0.0315513
0.0315711
0.0315813
0.031604
0.0316121
0.0316477
0.0393518
0.039373
0.0393679
0.0393644
0.0393426
0.0393177
0.0392817
0.0392432
0.0391996
0.039156
0.0391117
0.0390694
0.0390285
0.0389896
0.0389517
0.0389141
0.0388748
0.0388322
0.0387835
0.038726
0.0386564
0.0385709
0.0384652
0.0383349
0.0381749
0.03798
0.037745
0.0374648
0.0371349
0.0367515
0.0363122
0.0358153
0.0352611
0.0346508
0.0339875
0.0332753
0.0325194
0.0317262
0.0309026
0.0300562
0.0291949
0.0283271
0.0274609
0.0266044
0.0257659
0.0249529
0.024173
0.0234331
0.0227396
0.0220986
0.0215154
0.0209949
0.0205413
0.0201581
0.0198485
0.0196148
0.0194588
0.0193817
0.019384
0.0194657
0.0196262
0.019864
0.0201773
0.0205635
0.0210192
0.0215405
0.0221226
0.0227601
0.0234466
0.0241751
0.0249377
0.0257254
0.0265289
0.0273376
0.0281404
0.0289259
0.029682
0.0303967
0.0310584
0.0316562
0.0321803
0.0326229
0.0329781
0.0332432
0.0334181
0.0335059
0.0335131
0.0334488
0.0333242
0.0331523
0.0329468
0.0327211
0.032488
0.0322584
0.0320416
0.0318444
0.0316718
0.0315263
0.0314089
0.0313192
0.0312554
0.0312152
0.0311954
0.0311929
0.031204
0.0312258
0.0312546
0.0312883
0.0313236
0.0313596
0.031393
0.0314251
0.0314518
0.0314775
0.0314958
0.0315166
0.0315278
0.0315496
0.0315577
0.0315895
0.0394214
0.039439
0.0394317
0.0394241
0.0393991
0.0393701
0.0393307
0.0392887
0.0392424
0.0391962
0.03915
0.0391058
0.0390631
0.0390222
0.0389817
0.0389404
0.0388959
0.0388459
0.038787
0.0387155
0.0386272
0.0385173
0.0383805
0.038211
0.038003
0.0377504
0.0374476
0.0370895
0.036672
0.0361922
0.0356486
0.0350413
0.0343719
0.0336438
0.0328614
0.0320306
0.031158
0.0302513
0.0293185
0.0283681
0.0274087
0.0264489
0.0254973
0.0245621
0.0236515
0.0227728
0.0219331
0.0211389
0.0203961
0.0197101
0.0190855
0.0185265
0.0180366
0.0176187
0.0172753
0.0170082
0.0168187
0.0167076
0.0166752
0.0167213
0.0168452
0.0170457
0.0173211
0.0176693
0.0180876
0.0185726
0.0191208
0.0197277
0.0203885
0.0210975
0.0218486
0.0226349
0.0234485
0.0242812
0.0251237
0.0259661
0.0267979
0.027608
0.0283853
0.0291183
0.0297963
0.0304093
0.0309485
0.0314074
0.0317815
0.0320694
0.0322723
0.0323949
0.0324445
0.0324308
0.0323652
0.0322604
0.0321288
0.0319824
0.0318319
0.0316861
0.0315519
0.0314343
0.031336
0.0312585
0.0312017
0.0311647
0.0311453
0.0311416
0.0311506
0.03117
0.0311967
0.0312286
0.0312628
0.0312982
0.0313317
0.0313642
0.0313917
0.031418
0.0314373
0.0314581
0.0314699
0.0314902
0.0314979
0.0315255
0.0395023
0.0395153
0.0395057
0.0394934
0.0394651
0.0394318
0.039389
0.0393434
0.0392941
0.0392451
0.0391964
0.0391495
0.039104
0.0390593
0.039014
0.0389661
0.0389127
0.0388505
0.0387754
0.0386827
0.0385669
0.0384221
0.0382419
0.0380195
0.0377483
0.0374218
0.0370346
0.0365818
0.0360605
0.0354689
0.0348074
0.0340777
0.0332835
0.0324299
0.031523
0.0305703
0.0295799
0.0285605
0.0275211
0.0264709
0.025419
0.0243744
0.0233457
0.022341
0.0213681
0.020434
0.0195451
0.0187072
0.0179256
0.0172048
0.0165486
0.0159605
0.0154431
0.0149987
0.0146291
0.0143355
0.0141187
0.0139792
0.013917
0.0139316
0.0140222
0.0141878
0.0144268
0.0147373
0.0151172
0.0155637
0.0160741
0.0166449
0.0172724
0.0179524
0.0186804
0.019451
0.0202586
0.0210968
0.0219585
0.0228359
0.0237206
0.0246031
0.0254735
0.0263213
0.0271355
0.0279054
0.0286203
0.0292708
0.0298485
0.0303472
0.0307631
0.0310953
0.0313459
0.0315199
0.0316251
0.0316712
0.0316695
0.0316318
0.0315697
0.0314936
0.0314128
0.0313344
0.0312638
0.0312048
0.0311592
0.0311278
0.0311102
0.0311054
0.0311118
0.0311276
0.0311504
0.0311786
0.0312096
0.0312424
0.0312739
0.031305
0.0313317
0.0313573
0.0313764
0.0313964
0.0314081
0.0314264
0.0314336
0.0314569
0.0395947
0.0396021
0.0395898
0.0395724
0.0395407
0.0395029
0.0394567
0.0394073
0.039355
0.0393027
0.0392508
0.0392002
0.0391502
0.0390997
0.0390467
0.0389884
0.0389213
0.038841
0.0387423
0.0386193
0.0384655
0.0382736
0.0380362
0.0377459
0.0373955
0.0369789
0.0364908
0.0359279
0.0352885
0.0345727
0.0337827
0.0329225
0.0319975
0.0310148
0.0299823
0.0289088
0.0278038
0.0266769
0.0255379
0.0243965
0.0232621
0.0221437
0.0210497
0.0199879
0.0189653
0.0179884
0.0170628
0.0161935
0.0153847
0.01464
0.0139626
0.0133549
0.012819
0.0123563
0.0119679
0.0116546
0.0114168
0.0112544
0.0111671
0.0111544
0.0112154
0.0113489
0.0115535
0.0118276
0.0121693
0.0125765
0.0130469
0.0135779
0.0141668
0.0148105
0.0155056
0.0162487
0.0170357
0.0178621
0.0187231
0.0196131
0.0205258
0.0214542
0.0223902
0.0233251
0.0242492
0.025152
0.0260224
0.0268495
0.0276221
0.0283303
0.0289654
0.0295209
0.0299928
0.0303803
0.0306855
0.0309139
0.0310735
0.0311744
0.0312276
0.0312447
0.0312367
0.0312132
0.0311824
0.0311507
0.0311226
0.0311011
0.0310878
0.0310834
0.0310873
0.031099
0.0311169
0.0311399
0.0311659
0.0311942
0.0312219
0.0312496
0.0312739
0.0312973
0.0313149
0.0313331
0.0313439
0.0313599
0.0313663
0.0313855
0.039699
0.0396995
0.0396846
0.0396616
0.0396266
0.0395841
0.0395346
0.0394812
0.0394256
0.0393693
0.0393133
0.0392573
0.0392007
0.0391415
0.0390771
0.0390037
0.0389169
0.038811
0.0386798
0.0385161
0.038312
0.0380593
0.0377498
0.0373758
0.0369302
0.0364075
0.0358038
0.0351173
0.0343482
0.0334988
0.0325734
0.0315782
0.0305207
0.0294096
0.0282546
0.0270657
0.0258535
0.0246285
0.0234009
0.0221806
0.0209769
0.0197986
0.0186536
0.0175489
0.0164908
0.0154848
0.0145356
0.0136472
0.0128228
0.0120652
0.0113766
0.0107586
0.0102125
0.00973917
0.00933918
0.00901274
0.00875979
0.00858001
0.00847287
0.0084376
0.0084732
0.00857853
0.00875223
0.00899282
0.00929864
0.00966793
0.0100988
0.0105893
0.0111373
0.0117407
0.0123972
0.0131044
0.0138599
0.0146608
0.0155041
0.0163864
0.0173037
0.0182513
0.0192237
0.0202144
0.021216
0.0222194
0.0232148
0.0241911
0.0251362
0.0260379
0.0268839
0.0276627
0.0283645
0.0289819
0.0295106
0.0299496
0.0303016
0.0305728
0.0307721
0.0309103
0.0309993
0.0310509
0.0310759
0.0310838
0.0310822
0.031077
0.0310723
0.0310707
0.0310735
0.0310815
0.0310941
0.0311111
0.0311309
0.0311531
0.0311754
0.0311982
0.0312184
0.0312382
0.0312532
0.0312687
0.031278
0.0312914
0.0312967
0.0313121
0.0398147
0.0398073
0.0397897
0.0397606
0.0397226
0.0396752
0.0396224
0.0395648
0.0395053
0.0394441
0.0393826
0.0393194
0.0392535
0.039182
0.0391015
0.0390072
0.0388934
0.0387532
0.0385791
0.0383626
0.0380948
0.0377668
0.0373699
0.0368966
0.0363407
0.0356978
0.034966
0.0341453
0.0332383
0.0322497
0.0311862
0.0300559
0.0288684
0.0276341
0.026364
0.0250694
0.0237615
0.0224513
0.0211492
0.019865
0.0186075
0.0173849
0.0162041
0.0150713
0.0139918
0.01297
0.0120095
0.0111133
0.0102836
0.00952237
0.00883088
0.00821012
0.00766068
0.00718291
0.00677686
0.00644236
0.00617904
0.00598634
0.00586351
0.00580966
0.00582375
0.00590457
0.00605085
0.00626117
0.00653404
0.00686793
0.00726126
0.00771243
0.00821987
0.00878201
0.00939735
0.0100644
0.0107817
0.0115479
0.0123614
0.0132204
0.0141232
0.0150672
0.0160495
0.0170661
0.0181122
0.0191814
0.0202658
0.0213561
0.022441
0.0235076
0.0245422
0.0255299
0.0264562
0.0273077
0.028073
0.0287438
0.0293157
0.0297885
0.0301665
0.0304577
0.0306729
0.0308248
0.0309265
0.0309904
0.0310278
0.0310479
0.0310579
0.0310633
0.0310675
0.031073
0.0310806
0.0310912
0.031104
0.031119
0.0311346
0.0311511
0.0311659
0.0311808
0.031192
0.031204
0.0312109
0.0312215
0.0312257
0.031238
0.0399415
0.0399248
0.0399046
0.0398691
0.0398282
0.0397759
0.0397198
0.0396574
0.0395934
0.0395261
0.0394573
0.0393843
0.0393058
0.0392175
0.0391153
0.0389929
0.0388436
0.0386591
0.0384305
0.0381482
0.0378026
0.0373843
0.036885
0.0362979
0.0356182
0.0348434
0.0339738
0.0330119
0.0319627
0.0308335
0.0296331
0.0283719
0.0270612
0.0257128
0.024339
0.0229517
0.0215627
0.020183
0.0188226
0.0174909
0.0161958
0.0149444
0.0137428
0.0125959
0.0115078
0.0104818
0.00952048
0.00862575
0.00779907
0.00704142
0.00635346
0.00573554
0.00518776
0.00471
0.00430198
0.00396325
0.0036932
0.00349111
0.00335611
0.00328724
0.0032834
0.00334341
0.003466
0.00364984
0.00389355
0.00419572
0.00455498
0.00496996
0.00543938
0.00596208
0.00653701
0.00716328
0.00784017
0.00856712
0.00934371
0.0101696
0.0110444
0.0119676
0.0129383
0.0139552
0.015016
0.0161173
0.0172541
0.0184197
0.0196051
0.020799
0.0219879
0.0231561
0.0242864
0.0253608
0.0263618
0.0272738
0.0280842
0.0287847
0.0293724
0.0298497
0.0302238
0.0305061
0.0307105
0.0308519
0.0309449
0.0310028
0.0310364
0.0310548
0.0310642
0.0310694
0.0310733
0.0310778
0.0310832
0.0310905
0.0310984
0.0311075
0.0311157
0.0311247
0.0311311
0.0311388
0.0311429
0.0311506
0.0311534
0.0311632
0.0400782
0.040051
0.0400282
0.039986
0.0399424
0.0398851
0.0398255
0.0397577
0.0396882
0.0396132
0.0395348
0.0394488
0.0393535
0.0392431
0.0391126
0.0389541
0.0387596
0.0385195
0.0382239
0.0378621
0.0374244
0.0369015
0.0362859
0.0355723
0.0347579
0.0338426
0.0328292
0.0317228
0.0305312
0.029264
0.0279323
0.0265484
0.0251251
0.0236755
0.0222124
0.0207483
0.0192947
0.0178623
0.0164605
0.0150975
0.0137802
0.0125146
0.0113054
0.0101563
0.00907017
0.00804923
0.00709502
0.00620858
0.00539057
0.00464132
0.00396091
0.00334923
0.002806
0.00233081
0.00192314
0.00158236
0.00130775
0.00109849
0.000953675
0.000872299
0.000853281
0.000895464
0.000997622
0.00115848
0.00137674
0.00165109
0.00198025
0.00236302
0.00279828
0.00328507
0.00382261
0.00441033
0.00504792
0.00573537
0.00647293
0.00726111
0.00810064
0.00899238
0.00993716
0.0109356
0.0119879
0.0130933
0.0142499
0.0154542
0.0167004
0.0179803
0.0192826
0.0205928
0.0218935
0.0231649
0.0243854
0.0255332
0.0265881
0.0275328
0.0283552
0.0290494
0.0296161
0.0300623
0.0304004
0.030646
0.0308164
0.0309287
0.0309983
0.0310381
0.0310584
0.0310669
0.031069
0.0310683
0.0310668
0.0310659
0.0310655
0.0310665
0.0310673
0.0310695
0.0310703
0.0310732
0.0310738
0.0310786
0.0310799
0.031088
0.0402229
0.0401842
0.040159
0.0401099
0.0400638
0.0400012
0.0399378
0.0398638
0.0397875
0.0397027
0.0396118
0.039509
0.0393919
0.0392531
0.0390865
0.0388827
0.0386326
0.038325
0.0379492
0.0374944
0.0369508
0.0363101
0.0355663
0.0347161
0.0337592
0.0326981
0.0315385
0.0302884
0.0289582
0.0275597
0.0261061
0.0246113
0.0230892
0.0215537
0.0200179
0.018494
0.0169931
0.0155248
0.0140976
0.0127183
0.0113926
0.010125
0.00891891
0.0077768
0.00670045
0.005691
0.00474913
0.00387513
0.00306905
0.0023307
0.00165976
0.0010558
0.00051831
4.67002e-05
-0.000359671
-0.000701505
-0.000979568
-0.00119469
-0.00134777
-0.00143978
-0.00147177
-0.00144484
-0.00136017
-0.00121896
-0.00102246
-0.00077191
-0.000468514
-0.000113415
0.000292356
0.000747919
0.0012526
0.00180597
0.00240791
0.00305864
0.00375873
0.00450917
0.00531132
0.00616688
0.0070778
0.00804616
0.00907394
0.0101627
0.0113134
0.0125255
0.0137969
0.0151228
0.0164958
0.0179045
0.0193337
0.0207643
0.0221735
0.0235361
0.0248258
0.0260172
0.0270885
0.0280236
0.0288136
0.029458
0.0299639
0.0303453
0.0306202
0.0308088
0.0309307
0.0310039
0.0310432
0.0310603
0.0310637
0.0310597
0.0310518
0.0310431
0.0310342
0.0310266
0.0310193
0.0310141
0.0310087
0.0310064
0.0310032
0.031005
0.0310047
0.0310118
0.0403733
0.0403219
0.0402946
0.0402383
0.0401899
0.0401217
0.040054
0.0399726
0.0398878
0.0397906
0.0396839
0.0395596
0.039415
0.0392407
0.0390296
0.0387706
0.0384534
0.0380659
0.0375972
0.0370363
0.0363745
0.0356047
0.0347232
0.0337292
0.0326252
0.0314169
0.0301128
0.0287237
0.0272624
0.0257428
0.02418
0.0225888
0.020984
0.0193796
0.0177883
0.0162218
0.01469
0.0132015
0.011763
0.0103802
0.00905717
0.00779702
0.00660187
0.00547308
0.0044114
0.00341712
0.00249021
0.00163041
0.000837275
0.000110303
-0.000551087
-0.0011475
-0.00167958
-0.00214795
-0.0025533
-0.00289632
-0.00317774
-0.00339835
-0.00355899
-0.00366057
-0.00370406
-0.0036905
-0.00362099
-0.00349667
-0.00331872
-0.00308832
-0.00280664
-0.00247479
-0.00209376
-0.00166441
-0.00118742
-0.000663194
-9.18412e-05
0.000526892
0.00119367
0.00190962
0.00267633
0.00349591
0.00437089
0.0053042
0.00629904
0.00735861
0.00848587
0.00968307
0.0109512
0.0122895
0.0136944
0.0151589
0.0166718
0.0182171
0.0197739
0.0213166
0.0228158
0.0242406
0.0255604
0.0267487
0.0277852
0.0286584
0.029367
0.029919
0.0303304
0.0306225
0.0308184
0.030941
0.0310105
0.0310436
0.031053
0.0310483
0.0310357
0.0310197
0.0310024
0.0309861
0.0309704
0.0309576
0.0309455
0.0309377
0.0309303
0.0309293
0.0309272
0.030934
0.0405261
0.0404612
0.040432
0.0403683
0.0403178
0.0402435
0.0401708
0.0400805
0.039985
0.0398724
0.0397457
0.0395948
0.0394161
0.0391984
0.0389335
0.0386087
0.038213
0.0377336
0.0371596
0.0364809
0.0356901
0.0347824
0.0337567
0.0326151
0.0313633
0.03001
0.0285667
0.0270467
0.0254652
0.0238379
0.0221808
0.0205097
0.0188392
0.0171831
0.0155533
0.0139602
0.0124124
0.0109169
0.00947887
0.00810239
0.00679016
0.00554392
0.00436465
0.00325269
0.00220798
0.00123016
0.000318653
-0.00052719
-0.00130808
-0.00202472
-0.00267782
-0.00326803
-0.003796
-0.00426235
-0.00466771
-0.00501269
-0.00529796
-0.00552422
-0.00569221
-0.00580274
-0.0058567
-0.00585503
-0.00579876
-0.00568894
-0.0055267
-0.00531316
-0.00504945
-0.00473666
-0.00437578
-0.00396769
-0.00351311
-0.00301252
-0.00246609
-0.00187367
-0.00123469
-0.000548104
0.00018766
0.000974729
0.00181581
0.00271418
0.00367361
0.00469828
0.0057925
0.00696047
0.00820578
0.00953082
0.010936
0.012419
0.0139733
0.015588
0.0172461
0.018925
0.0205958
0.0222251
0.0237769
0.0252155
0.0265091
0.0276339
0.028576
0.0293339
0.0299172
0.0303449
0.0306418
0.0308349
0.0309499
0.0310094
0.0310316
0.0310304
0.0310152
0.0309932
0.030968
0.0309431
0.030919
0.0308983
0.0308793
0.0308659
0.030854
0.0308502
0.0308464
0.0308534
0.0406775
0.0405982
0.0405674
0.0404962
0.0404435
0.0403625
0.0402836
0.0401827
0.0400739
0.0399423
0.0397911
0.0396076
0.0393877
0.0391182
0.0387898
0.0383885
0.0379029
0.0373201
0.0366298
0.0358232
0.0348953
0.0338437
0.0326705
0.0313809
0.029984
0.0284915
0.0269177
0.0252783
0.0235901
0.0218703
0.0201355
0.0184014
0.0166823
0.014991
0.0133381
0.0117325
0.0101811
0.00868912
0.00726032
0.00589712
0.00460088
0.00337221
0.00221107
0.00111704
8.94243e-05
-0.000872624
-0.00177
-0.00260358
-0.00337421
-0.00408267
-0.00472965
-0.00531579
-0.00584167
-0.00630781
-0.00671474
-0.00706297
-0.00735304
-0.00758554
-0.0077611
-0.00788042
-0.00794427
-0.0079535
-0.00790903
-0.00781186
-0.00766302
-0.00746359
-0.00721465
-0.00691727
-0.00657246
-0.00618113
-0.00574405
-0.0052618
-0.00473469
-0.00416271
-0.0035455
-0.00288222
-0.00217151
-0.00141144
-0.00059946
0.00026766
0.0011938
0.00218348
0.00324172
0.00437384
0.00558516
0.00688052
0.0082636
0.00973608
0.0112966
0.0129394
0.0146536
0.0164213
0.0182177
0.0200108
0.0217629
0.0234326
0.0249787
0.0263646
0.0275627
0.0285578
0.0293488
0.029948
0.030378
0.030668
0.0308486
0.0309489
0.0309933
0.0310013
0.0309871
0.0309609
0.0309288
0.0308958
0.0308633
0.0308347
0.0308088
0.0307897
0.0307733
0.0307667
0.0307611
0.0307685
0.0408226
0.0407284
0.0406963
0.0406175
0.0405623
0.0404737
0.0403874
0.0402736
0.0401486
0.0399938
0.0398129
0.0395905
0.0393218
0.0389916
0.0385899
0.0381017
0.0375156
0.0368189
0.036003
0.035061
0.0339904