/*--------------------------------*- C++ -*----------------------------------*\
| =========                 |                                                 |
| \\      /  F ield         | OpenFOAM: The Open Source CFD Toolbox           |
|  \\    /   O peration     | Version:  2406                                  |
|   \\  /    A nd           | Website:  www.openfoam.com                      |
|    \\/     M anipulation  |                                                 |
\*---------------------------------------------------------------------------*/
FoamFile
{
    version     2.0;
    format      ascii;
    arch        "LSB;label=32;scalar=64";
    class       volScalarField;
    location    "10.55";
    object      p;
}
// * * * * * * * * * * * * * * * * * * * * * * * * * * * * * * * * * * * * * //

dimensions      [0 2 -2 0 0 0 0];

internalField   nonuniform List<scalar> 
3600
(
0.0147154
0.014709
0.0147033
0.0146925
0.0146866
0.0146771
0.0146728
0.0146651
0.0146616
0.0146554
0.0146528
0.0146483
0.0146473
0.0146456
0.0146475
0.0146499
0.0146562
0.0146641
0.0146763
0.0146912
0.0147106
0.0147334
0.0147608
0.0147919
0.0148275
0.0148666
0.0149096
0.0149554
0.015004
0.0150542
0.0151056
0.0151571
0.0152078
0.0152569
0.0153033
0.0153461
0.0153846
0.0154183
0.0154464
0.0154689
0.0154854
0.0154965
0.0155018
0.0155025
0.0154984
0.0154911
0.0154801
0.0154676
0.0154527
0.0154379
0.0154219
0.0154076
0.0153928
0.0153811
0.0153695
0.0153625
0.0153559
0.015355
0.0153538
0.0153571
0.0147215
0.0147147
0.0147116
0.0147025
0.0146988
0.0146902
0.0146867
0.0146792
0.0146759
0.0146695
0.0146669
0.0146622
0.014661
0.014659
0.0146606
0.0146625
0.0146683
0.0146756
0.0146871
0.014701
0.0147193
0.0147408
0.0147668
0.0147963
0.0148302
0.0148674
0.0149085
0.0149522
0.0149988
0.0150469
0.0150964
0.015146
0.0151951
0.0152426
0.0152877
0.0153296
0.0153674
0.0154006
0.0154285
0.0154512
0.0154681
0.0154799
0.0154861
0.015488
0.0154851
0.0154792
0.0154698
0.0154589
0.0154457
0.0154326
0.0154182
0.0154056
0.0153924
0.0153823
0.015372
0.0153661
0.0153599
0.0153589
0.015357
0.0153604
0.0147281
0.014718
0.014715
0.014705
0.0147018
0.014693
0.0146899
0.0146821
0.0146789
0.0146721
0.0146692
0.014664
0.0146624
0.0146597
0.0146608
0.014662
0.0146672
0.0146738
0.0146846
0.0146978
0.0147155
0.0147364
0.0147619
0.0147909
0.0148245
0.0148615
0.0149025
0.0149463
0.0149931
0.0150416
0.0150916
0.0151418
0.0151916
0.0152399
0.0152858
0.0153284
0.0153669
0.0154007
0.0154291
0.0154521
0.0154692
0.015481
0.0154871
0.0154887
0.0154855
0.0154793
0.0154694
0.0154581
0.0154445
0.0154311
0.0154164
0.0154036
0.0153902
0.0153801
0.0153698
0.015364
0.0153577
0.0153571
0.0153551
0.0153595
0.0147388
0.0147252
0.0147234
0.0147128
0.0147112
0.0147025
0.0147003
0.0146922
0.0146892
0.0146819
0.0146786
0.0146726
0.0146703
0.0146666
0.0146667
0.0146667
0.0146707
0.0146759
0.0146854
0.0146971
0.0147133
0.0147327
0.0147567
0.0147843
0.0148165
0.0148522
0.0148921
0.014935
0.014981
0.015029
0.0150787
0.0151288
0.0151788
0.0152274
0.0152738
0.015317
0.0153561
0.0153906
0.0154197
0.0154434
0.015461
0.0154733
0.0154798
0.0154818
0.0154789
0.0154729
0.0154633
0.0154523
0.015439
0.0154261
0.0154119
0.0153997
0.0153868
0.0153773
0.0153674
0.0153621
0.015356
0.0153557
0.0153535
0.0153585
0.0147443
0.0147266
0.014725
0.0147127
0.0147117
0.0147021
0.0147002
0.0146915
0.0146884
0.0146802
0.0146763
0.0146692
0.014666
0.014661
0.0146599
0.0146585
0.0146612
0.014665
0.0146731
0.0146835
0.0146986
0.0147169
0.0147402
0.0147671
0.014799
0.0148346
0.0148748
0.0149182
0.0149652
0.0150145
0.0150657
0.0151177
0.0151697
0.0152205
0.0152691
0.0153145
0.0153556
0.0153919
0.0154223
0.015447
0.0154653
0.0154778
0.0154841
0.0154856
0.0154819
0.015475
0.0154642
0.0154522
0.0154377
0.0154238
0.0154085
0.0153955
0.0153819
0.0153719
0.0153615
0.015356
0.0153496
0.0153494
0.0153472
0.0153525
0.0147499
0.0147288
0.0147279
0.0147144
0.0147145
0.0147044
0.014703
0.0146937
0.0146904
0.0146811
0.0146766
0.0146681
0.0146637
0.0146571
0.0146544
0.0146512
0.0146521
0.0146539
0.0146601
0.0146685
0.0146818
0.0146983
0.01472
0.0147455
0.0147763
0.0148111
0.0148507
0.0148941
0.0149413
0.0149913
0.0150437
0.0150973
0.0151512
0.0152041
0.015255
0.0153027
0.0153462
0.0153846
0.0154169
0.0154431
0.0154625
0.0154757
0.0154823
0.0154838
0.0154798
0.0154723
0.0154609
0.0154482
0.015433
0.0154185
0.0154027
0.0153893
0.0153753
0.0153652
0.0153545
0.015349
0.0153424
0.0153423
0.0153399
0.0153454
0.0147467
0.0147223
0.0147217
0.0147065
0.0147071
0.0146958
0.0146946
0.0146841
0.0146804
0.0146699
0.0146644
0.0146544
0.0146486
0.0146402
0.0146358
0.0146307
0.0146297
0.0146295
0.0146339
0.0146406
0.0146523
0.0146674
0.014688
0.0147127
0.014743
0.0147778
0.0148179
0.0148622
0.014911
0.014963
0.015018
0.0150746
0.0151319
0.0151885
0.0152432
0.0152947
0.0153418
0.0153834
0.0154184
0.0154468
0.0154675
0.0154815
0.0154881
0.0154891
0.015484
0.0154752
0.0154622
0.0154477
0.0154307
0.0154145
0.0153971
0.0153824
0.0153671
0.015356
0.0153444
0.0153383
0.0153312
0.0153309
0.0153284
0.0153341
0.0147407
0.0147136
0.0147135
0.0146971
0.0146984
0.0146863
0.0146852
0.0146737
0.0146695
0.0146577
0.0146511
0.0146394
0.014632
0.0146216
0.0146153
0.0146078
0.0146046
0.0146021
0.0146043
0.0146086
0.0146182
0.0146313
0.0146501
0.0146733
0.0147025
0.0147366
0.0147765
0.0148212
0.014871
0.0149247
0.014982
0.0150415
0.0151023
0.0151629
0.0152218
0.0152777
0.015329
0.0153745
0.015413
0.0154441
0.0154669
0.0154821
0.0154893
0.0154901
0.0154842
0.0154743
0.0154598
0.0154438
0.0154252
0.0154076
0.0153888
0.015373
0.0153566
0.0153448
0.0153323
0.0153259
0.0153182
0.0153179
0.0153151
0.0153211
0.0147231
0.0146935
0.0146937
0.0146759
0.0146775
0.0146643
0.014663
0.0146503
0.0146454
0.014632
0.0146243
0.0146108
0.0146017
0.0145892
0.0145809
0.0145712
0.0145659
0.0145611
0.0145611
0.0145633
0.014571
0.0145823
0.0145996
0.0146216
0.0146501
0.0146839
0.0147241
0.0147698
0.0148213
0.0148775
0.0149381
0.0150017
0.0150672
0.0151331
0.0151978
0.0152595
0.0153164
0.0153672
0.0154102
0.015445
0.0154705
0.0154874
0.015495
0.0154954
0.0154883
0.0154766
0.0154599
0.0154416
0.0154205
0.0154007
0.0153797
0.0153621
0.0153439
0.0153308
0.0153171
0.0153098
0.0153012
0.0153008
0.0152976
0.0153042
0.0147005
0.0146688
0.0146694
0.0146507
0.0146526
0.0146385
0.0146372
0.0146233
0.0146177
0.0146028
0.0145938
0.0145784
0.0145676
0.0145529
0.0145424
0.0145302
0.0145225
0.014515
0.0145125
0.0145121
0.0145173
0.0145262
0.0145413
0.0145614
0.0145882
0.0146208
0.0146604
0.0147062
0.0147586
0.0148166
0.01488
0.0149474
0.0150178
0.0150893
0.0151603
0.0152286
0.0152923
0.0153497
0.0153988
0.0154387
0.0154681
0.0154877
0.0154967
0.0154972
0.0154891
0.0154758
0.0154567
0.0154361
0.0154125
0.0153904
0.0153672
0.0153479
0.0153281
0.0153139
0.0152989
0.015291
0.0152815
0.015281
0.0152775
0.0152847
0.0146639
0.0146303
0.0146312
0.0146113
0.0146134
0.0145983
0.0145966
0.0145815
0.0145751
0.0145586
0.0145483
0.0145311
0.0145186
0.0145017
0.0144891
0.0144745
0.0144644
0.0144544
0.0144494
0.0144464
0.0144491
0.0144555
0.0144683
0.0144862
0.0145112
0.0145422
0.0145808
0.0146261
0.014679
0.0147385
0.0148044
0.0148755
0.0149509
0.0150285
0.0151067
0.0151832
0.0152556
0.0153219
0.0153795
0.0154273
0.0154632
0.0154875
0.0154993
0.015501
0.0154922
0.0154769
0.015455
0.0154312
0.0154042
0.0153791
0.015353
0.0153313
0.0153093
0.0152935
0.0152769
0.0152681
0.0152575
0.0152567
0.0152527
0.0152608
0.0146208
0.0145856
0.0145868
0.0145661
0.0145685
0.0145525
0.0145505
0.0145342
0.014527
0.0145091
0.0144974
0.0144782
0.0144639
0.0144447
0.0144299
0.0144126
0.0143999
0.0143869
0.014379
0.0143728
0.0143723
0.0143752
0.0143845
0.0143986
0.0144198
0.0144471
0.0144822
0.0145244
0.0145746
0.0146321
0.0146972
0.0147686
0.0148458
0.0149273
0.0150113
0.015096
0.0151787
0.0152571
0.0153278
0.0153888
0.015437
0.0154719
0.0154916
0.0154982
0.0154914
0.0154757
0.0154515
0.0154243
0.0153935
0.0153649
0.0153354
0.0153112
0.0152868
0.0152693
0.0152511
0.0152413
0.0152295
0.0152286
0.0152241
0.0152331
0.0145615
0.0145248
0.0145262
0.0145046
0.014507
0.01449
0.0144877
0.0144702
0.0144621
0.0144427
0.0144297
0.0144087
0.0143925
0.0143711
0.014354
0.0143342
0.0143187
0.0143027
0.0142916
0.0142819
0.0142776
0.0142762
0.0142807
0.0142894
0.0143045
0.014325
0.0143525
0.0143864
0.0144277
0.0144759
0.0145316
0.0145945
0.0146649
0.0147425
0.0148268
0.0149168
0.0150106
0.0151056
0.0151976
0.0152832
0.015357
0.0154163
0.015457
0.0154798
0.0154834
0.0154727
0.0154489
0.0154192
0.015384
0.0153508
0.0153167
0.0152887
0.0152611
0.0152413
0.0152209
0.0152097
0.0151965
0.0151951
0.0151899
0.0151999
0.0144948
0.0144568
0.0144586
0.0144362
0.0144387
0.0144209
0.0144182
0.0143996
0.0143906
0.0143696
0.0143552
0.0143322
0.014314
0.0142901
0.0142705
0.0142476
0.014229
0.0142094
0.0141942
0.0141798
0.01417
0.014162
0.0141585
0.0141574
0.0141605
0.0141664
0.0141761
0.0141885
0.0142046
0.014224
0.0142484
0.0142792
0.0143193
0.0143714
0.0144385
0.0145223
0.014623
0.014739
0.0148654
0.0149963
0.0151227
0.015237
0.0153301
0.0153981
0.0154365
0.0154494
0.015438
0.0154123
0.0153752
0.0153373
0.0152976
0.0152646
0.0152326
0.0152096
0.0151864
0.0151735
0.0151584
0.0151563
0.0151502
0.0151611
0.0144096
0.0143705
0.0143723
0.0143491
0.0143515
0.0143328
0.0143296
0.0143098
0.0142998
0.0142772
0.0142613
0.0142363
0.0142161
0.0141897
0.0141673
0.0141412
0.014119
0.0140952
0.0140751
0.0140545
0.0140371
0.0140191
0.0140026
0.0139844
0.0139651
0.0139414
0.013913
0.0138772
0.0138344
0.0137851
0.0137331
0.013684
0.0136463
0.0136291
0.0136419
0.013693
0.0137868
0.0139248
0.0141021
0.0143103
0.0145347
0.0147599
0.014967
0.0151423
0.0152724
0.0153558
0.0153917
0.0153923
0.015365
0.0153268
0.0152815
0.0152418
0.0152033
0.0151752
0.0151479
0.015132
0.0151143
0.0151109
0.0151035
0.0151151
0.0143168
0.0142767
0.0142787
0.014255
0.0142572
0.0142377
0.0142338
0.0142127
0.0142015
0.0141772
0.0141594
0.0141321
0.0141093
0.0140799
0.0140541
0.0140241
0.0139973
0.0139679
0.0139409
0.0139114
0.0138817
0.0138471
0.0138074
0.013757
0.0136933
0.0136095
0.0135016
0.0133647
0.0131987
0.0130067
0.012798
0.0125865
0.0123909
0.0122315
0.0121287
0.0121003
0.0121585
0.0123097
0.012551
0.0128725
0.0132538
0.0136698
0.0140874
0.0144764
0.0148057
0.0150584
0.0152232
0.0153101
0.0153305
0.0153117
0.0152681
0.0152222
0.0151753
0.0151397
0.0151061
0.0150856
0.0150641
0.0150585
0.0150493
0.0150612
0.0142031
0.014162
0.0141639
0.0141394
0.0141413
0.0141207
0.014116
0.0140935
0.0140808
0.0140546
0.0140348
0.0140049
0.0139793
0.0139464
0.0139167
0.0138819
0.0138494
0.0138126
0.0137759
0.0137328
0.0136838
0.0136212
0.0135409
0.0134318
0.013285
0.013087
0.0128289
0.0125037
0.0121135
0.0116686
0.01119
0.0107062
0.0102513
0.00986117
0.00956914
0.00940417
0.00938676
0.00952965
0.00983343
0.0102897
0.0108756
0.0115595
0.0122951
0.013033
0.0137162
0.0142992
0.0147445
0.015044
0.0152045
0.0152619
0.0152483
0.0152059
0.0151512
0.0151051
0.0150621
0.015034
0.0150069
0.0149974
0.0149856
0.0149973
0.0140823
0.0140406
0.0140425
0.0140173
0.0140188
0.0139971
0.0139912
0.013967
0.0139525
0.0139239
0.0139013
0.0138681
0.0138387
0.0138013
0.0137664
0.0137253
0.0136849
0.0136377
0.0135862
0.0135216
0.0134406
0.0133297
0.0131772
0.0129625
0.0126664
0.012267
0.0117511
0.0111142
0.0103684
0.00954046
0.00867148
0.007811
0.00701167
0.00632395
0.00579129
0.00544952
0.00532327
0.00542929
0.00577161
0.00634678
0.00713566
0.00810971
0.00922
0.0104068
0.0115907
0.0126916
0.0136278
0.0143475
0.0148256
0.0150886
0.0151831
0.0151806
0.0151294
0.0150726
0.0150172
0.0149777
0.0149423
0.0149265
0.014911
0.0149217
0.0139378
0.0138953
0.013897
0.0138709
0.0138715
0.0138484
0.013841
0.0138147
0.0137979
0.0137664
0.0137406
0.0137035
0.0136696
0.0136268
0.0135853
0.013536
0.0134847
0.0134224
0.0133487
0.0132502
0.0131168
0.0129252
0.012651
0.0122592
0.0117184
0.0110003
0.010095
0.00901235
0.00778802
0.0064772
0.0051484
0.0038731
0.00271746
0.00173812
0.00097816
0.000470572
0.000235537
0.000288056
0.000632306
0.00127071
0.0021929
0.00338454
0.00481022
0.0064218
0.00813924
0.00986465
0.0114745
0.0128532
0.0139056
0.0146019
0.0149707
0.0151038
0.0150974
0.0150403
0.0149713
0.014916
0.0148687
0.0148435
0.0148225
0.0148312
0.0137879
0.0137452
0.0137466
0.0137197
0.0137192
0.0136944
0.013685
0.0136561
0.0136362
0.013601
0.0135707
0.0135284
0.0134883
0.0134382
0.0133878
0.0133271
0.0132604
0.0131757
0.0130678
0.0129158
0.012698
0.0123756
0.0119062
0.0112388
0.0103331
0.00916582
0.00774697
0.00611975
0.00435841
0.00255348
0.000797871
-0.000825396
-0.00225101
-0.00343061
-0.00433424
-0.00494148
-0.00524418
-0.00523449
-0.00491284
-0.0042739
-0.003321
-0.00205111
-0.000477032
0.00138469
0.00348373
0.00574387
0.00803713
0.010205
0.0120684
0.0134882
0.014403
0.0148687
0.0150142
0.0149964
0.014922
0.0148477
0.0147845
0.0147456
0.0147173
0.014722
0.0136112
0.0135681
0.0135688
0.0135408
0.0135387
0.0135118
0.0134997
0.0134676
0.0134439
0.0134042
0.0133687
0.01332
0.0132724
0.0132131
0.0131512
0.0130752
0.0129869
0.0128695
0.0127104
0.0124764
0.0121288
0.011608
0.0108512
0.00979628
0.00840819
0.00668961
0.00469357
0.00251322
0.000265503
-0.00193244
-0.00398092
-0.00580498
-0.00735729
-0.00860926
-0.00955054
-0.0101754
-0.0104886
-0.0104895
-0.0101856
-0.00957304
-0.0086555
-0.00742067
-0.00586652
-0.00397807
-0.00176406
0.000754439
0.0034987
0.00633337
0.00904752
0.0113955
0.0131642
0.0142655
0.0147799
0.0149066
0.014859
0.0147689
0.0146866
0.0146286
0.0145903
0.0145883
0.0134321
0.0133892
0.0133893
0.0133603
0.0133561
0.0133267
0.0133112
0.0132751
0.0132463
0.0132007
0.0131581
0.0131011
0.0130434
0.0129719
0.0128943
0.0127974
0.0126785
0.0125142
0.0122797
0.0119249
0.0113878
0.0105856
0.00944051
0.00789446
0.00594154
0.00363614
0.00109109
-0.00155008
-0.00414354
-0.00657031
-0.00874856
-0.0106292
-0.0121917
-0.0134281
-0.0143435
-0.01494
-0.0152289
-0.015212
-0.0149025
-0.0142994
-0.0134144
-0.0122372
-0.0107682
-0.00897968
-0.0068563
-0.00436709
-0.0015198
0.00163495
0.00494761
0.00816016
0.010943
0.0129931
0.0141999
0.0146898
0.0147581
0.0146711
0.0145708
0.0144874
0.014436
0.0144236
0.0132229
0.01318
0.013179
0.0131484
0.0131416
0.013109
0.0130893
0.0130484
0.0130136
0.0129612
0.0129101
0.0128432
0.0127733
0.0126867
0.0125892
0.0124646
0.0123041
0.0120742
0.0117341
0.0112108
0.0104165
0.00924914
0.00763024
0.00553027
0.00299872
0.000158343
-0.00282101
-0.00576667
-0.00853876
-0.011044
-0.0132362
-0.0150969
-0.016629
-0.0178353
-0.0187256
-0.0192991
-0.0195652
-0.0195215
-0.0191838
-0.018553
-0.0176524
-0.0164803
-0.0150541
-0.0133526
-0.0113651
-0.00903862
-0.00633475
-0.00321489
0.000286529
0.00401471
0.00766177
0.0107833
0.0130006
0.0141819
0.0145641
0.0145373
0.0144296
0.0143154
0.0142466
0.0142182
0.0130161
0.0129742
0.012972
0.0129401
0.0129301
0.0128939
0.0128689
0.012822
0.0127796
0.0127183
0.0126564
0.0125767
0.0124911
0.0123849
0.0122615
0.0121002
0.011884
0.0115659
0.0110838
0.0103389
0.00921924
0.00761555
0.00547107
0.0028107
-0.000243478
-0.00350329
-0.00676576
-0.0098631
-0.0126891
-0.0151927
-0.0173655
-0.0192123
-0.0207466
-0.0219688
-0.0228818
-0.0234724
-0.0237419
-0.0236789
-0.0232999
-0.0226059
-0.0216325
-0.0203886
-0.0189141
-0.0172051
-0.0152754
-0.0130792
-0.0105734
-0.00767009
-0.00430715
-0.000493284
0.00361392
0.00760521
0.0109494
0.0131423
0.014163
0.0143354
0.014249
0.0141055
0.0140134
0.013962
0.0127757
0.0127342
0.0127304
0.0126965
0.0126826
0.012642
0.0126109
0.0125572
0.0125061
0.0124349
0.0123607
0.0122665
0.0121624
0.012033
0.0118777
0.0116705
0.0113834
0.0109525
0.0102911
0.00927461
0.00777539
0.00569539
0.00302312
-0.000144069
-0.00361246
-0.00715087
-0.0105582
-0.0137021
-0.0165264
-0.0190225
-0.0212104
-0.0231034
-0.0247125
-0.026023
-0.0270232
-0.0276807
-0.0279865
-0.0279169
-0.0274894
-0.0267034
-0.0256075
-0.0242193
-0.0226039
-0.0207758
-0.0187821
-0.0165993
-0.0142089
-0.0115173
-0.00842106
-0.00481654
-0.000682052
0.00375428
0.00801687
0.0113661
0.013349
0.014012
0.0140016
0.0138459
0.0137259
0.0136408
0.012545
0.0125052
0.0124997
0.0124642
0.0124458
0.0124003
0.0123619
0.0123
0.0122383
0.0121548
0.0120654
0.0119531
0.0118263
0.0116681
0.0114734
0.0112093
0.0108344
0.0102653
0.00938941
0.00806076
0.00614917
0.00358794
0.00042893
-0.00315461
-0.006915
-0.0106105
-0.0140731
-0.0172228
-0.0200546
-0.0225915
-0.0248679
-0.0268914
-0.0286592
-0.030133
-0.0312823
-0.0320522
-0.0324238
-0.0323606
-0.0318827
-0.0309862
-0.0297335
-0.0281476
-0.0263176
-0.0242741
-0.0220996
-0.0197972
-0.017388
-0.0147992
-0.0119329
-0.00863535
-0.00475309
-0.000304525
0.00445567
0.00880065
0.0119329
0.0134284
0.0136685
0.0135077
0.0133772
0.013239
0.0122765
0.0122378
0.0122301
0.0121921
0.0121685
0.0121175
0.012071
0.0120003
0.0119272
0.0118307
0.0117248
0.0115929
0.011441
0.0112505
0.0110107
0.0106807
0.0102038
0.00947576
0.00835985
0.00669723
0.00437002
0.00135972
-0.00221169
-0.00610544
-0.0100476
-0.0138158
-0.0172947
-0.0204582
-0.0233437
-0.0259912
-0.0284367
-0.0306697
-0.0326673
-0.0343619
-0.0357038
-0.036615
-0.0370699
-0.0370193
-0.0364895
-0.0354718
-0.0340442
-0.0322309
-0.0301435
-0.0278218
-0.0253809
-0.0228477
-0.0202877
-0.0176621
-0.0149074
-0.0118694
-0.00833181
-0.00415843
0.000669428
0.00560819
0.00985224
0.0123703
0.0132325
0.0130483
0.0129561
0.0127362
0.0120279
0.0119917
0.011982
0.0119423
0.011913
0.011856
0.0118003
0.0117193
0.0116326
0.0115206
0.0113952
0.0112401
0.0110587
0.0108303
0.0105382
0.0101328
0.00954098
0.00863844
0.00726826
0.00526873
0.00254751
-0.000856572
-0.00475529
-0.00886405
-0.0129099
-0.0167101
-0.0202077
-0.023423
-0.026423
-0.0292515
-0.0319358
-0.0344394
-0.0367158
-0.0386661
-0.0402239
-0.0412891
-0.0418338
-0.0417962
-0.0412127
-0.0400688
-0.0384609
-0.0364108
-0.0340522
-0.0314264
-0.0286762
-0.0258438
-0.0230366
-0.0202514
-0.0174733
-0.0145781
-0.0113462
-0.00755704
-0.0029776
0.00212865
0.0071685
0.0107617
0.0125411
0.0124871
0.0124095
0.0121273
0.0117365
0.011702
0.0116896
0.0116473
0.0116118
0.0115483
0.0114831
0.0113917
0.0112915
0.011164
0.0110189
0.0108403
0.0106283
0.0103606
0.0100134
0.00952855
0.0088165
0.00773532
0.00611348
0.0037963
0.000725224
-0.00300215
-0.00714406
-0.0113911
-0.0154928
-0.0193138
-0.0228522
-0.0261624
-0.02933
-0.032391
-0.0353588
-0.0381653
-0.0407417
-0.0429574
-0.0447353
-0.0459528
-0.0465848
-0.0465553
-0.0459147
-0.0446408
-0.0428528
-0.0405674
-0.0379425
-0.035014
-0.0319485
-0.0287922
-0.0256873
-0.0226603
-0.0197479
-0.0168703
-0.0138407
-0.0104175
-0.00624474
-0.00130397
0.00408696
0.00865135
0.0113813
0.0118575
0.0116665
0.0114068
0.0114787
0.0114478
0.011433
0.0113891
0.0113472
0.0112771
0.0112012
0.0110982
0.0109824
0.0108372
0.0106695
0.0104642
0.0102181
0.00990711
0.00950077
0.00893275
0.00809863
0.00684247
0.00498413
0.00238289
-0.00098319
-0.0049638
-0.00927933
-0.0136139
-0.0177508
-0.0216014
-0.0252097
-0.0286522
-0.0320242
-0.035347
-0.0386174
-0.0417344
-0.0446109
-0.0470866
-0.0490787
-0.050442
-0.0511575
-0.0511316
-0.0504326
-0.0490276
-0.0470635
-0.0445499
-0.0416737
-0.0384604
-0.0350993
-0.031629
-0.0282189
-0.0249134
-0.0217965
-0.0188369
-0.015896
-0.0127586
-0.00901489
-0.00445406
0.000909444
0.0061326
0.00974807
0.0110637
0.0107514
0.0105463
0.0111713
0.0111425
0.0111249
0.0110785
0.01103
0.0109532
0.0108673
0.0107535
0.0106232
0.0104618
0.0102731
0.010043
0.00976459
0.00941271
0.00895
0.00830376
0.00735641
0.00594281
0.00387868
0.00104159
-0.00255718
-0.0067238
-0.0111572
-0.015546
-0.0197116
-0.0236035
-0.0273027
-0.0308963
-0.0344854
-0.0380707
-0.0416357
-0.0450459
-0.0482038
-0.0509197
-0.0531117
-0.0546089
-0.0554023
-0.0553753
-0.0546181
-0.0530821
-0.0509482
-0.0482159
-0.0451072
-0.041634
-0.0380101
-0.0342573
-0.0305661
-0.0269846
-0.0236361
-0.0205326
-0.0175875
-0.0146417
-0.0112713
-0.00718996
-0.00210431
0.00335778
0.00775486
0.00991749
0.00972722
0.00948635
0.0109151
0.0108908
0.010871
0.0108236
0.0107686
0.0106854
0.0105884
0.0104628
0.0103163
0.0101368
0.00992486
0.00966777
0.00935491
0.00896089
0.00844217
0.00772194
0.0066724
0.00512382
0.00289116
-0.000129678
-0.00390101
-0.00819748
-0.0127095
-0.0171356
-0.0213325
-0.0252768
-0.0290778
-0.0328244
-0.0366218
-0.0404486
-0.0442799
-0.0479503
-0.0513591
-0.054288
-0.0566615
-0.0582794
-0.0591461
-0.0591169
-0.0583072
-0.0566475
-0.0543574
-0.0514223
-0.0481059
-0.044403
-0.0405565
-0.0365639
-0.0326351
-0.0288076
-0.0252367
-0.0219656
-0.0189575
-0.0161204
-0.0130426
-0.00945056
-0.00478412
0.000539948
0.00552365
0.00836661
0.00862944
0.00821603
0.0105993
0.0105776
0.010555
0.0105057
0.0104445
0.0103555
0.0102491
0.010114
0.00995409
0.00976007
0.00952888
0.00924971
0.00890785
0.00847882
0.00791336
0.00713356
0.0060038
0.0043547
0.00200107
-0.00114442
-0.00502838
-0.00940403
-0.0139642
-0.0184159
-0.0226455
-0.0266437
-0.0305415
-0.0344218
-0.0383969
-0.0424215
-0.0464718
-0.0503517
-0.0539678
-0.0570702
-0.0595976
-0.0613148
-0.0622464
-0.0622122
-0.0613588
-0.0595881
-0.0571633
-0.0540492
-0.0505571
-0.0466597
-0.0426357
-0.038451
-0.0343377
-0.0303094
-0.0265506
-0.0231184
-0.0200243
-0.0172364
-0.0143766
-0.0112272
-0.00704625
-0.00211503
0.0031676
0.00649413
0.00739611
0.00674739
0.0103571
0.0103408
0.0103165
0.0102673
0.0102003
0.0101061
0.00998946
0.00984397
0.00966909
0.00945903
0.00920669
0.00890417
0.00853253
0.00806966
0.00746156
0.00663243
0.00544196
0.00372527
0.00129706
-0.00191759
-0.00586055
-0.0102742
-0.014861
-0.0193321
-0.0235958
-0.0276442
-0.0316241
-0.0356068
-0.0397149
-0.0438807
-0.0480904
-0.0521191
-0.0558893
-0.0591178
-0.0617645
-0.0635547
-0.0645404
-0.0645002
-0.0636174
-0.0617578
-0.0592319
-0.0559754
-0.0523515
-0.048304
-0.0441537
-0.0398282
-0.035588
-0.0314107
-0.0275134
-0.0239468
-0.0207731
-0.0180001
-0.0153044
-0.0125294
-0.00885136
-0.00445298
0.000803999
0.00441087
0.00591724
0.00508809
0.0100401
0.0100265
0.01
0.00994995
0.00987817
0.00978029
0.00965652
0.00950458
0.00931965
0.0090996
0.00883289
0.00851519
0.00812283
0.00763777
0.00700137
0.00614382
0.00492169
0.00317949
0.000729283
-0.00249465
-0.00644259
-0.010853
-0.0154451
-0.0199262
-0.0242202
-0.0283054
-0.0323425
-0.0363831
-0.0405679
-0.0448048
-0.0491031
-0.0532076
-0.057068
-0.0603629
-0.063084
-0.0649112
-0.0659339
-0.0658825
-0.0649856
-0.0630628
-0.0604771
-0.0571237
-0.0534218
-0.0492754
-0.0450553
-0.0406411
-0.0363324
-0.0320584
-0.0280777
-0.0244144
-0.0211875
-0.0184175
-0.0158535
-0.0133839
-0.0101927
-0.00638044
-0.00143144
0.00224331
0.00418073
0.00328403
0.00982491
0.00981732
0.00979003
0.00974159
0.00966559
0.00956476
0.00943297
0.00927371
0.00907675
0.00884504
0.00856189
0.00822792
0.00781437
0.00730911
0.00664949
0.00577508
0.0045416
0.00280699
0.000379396
-0.00280174
-0.00670625
-0.0110767
-0.0156545
-0.0201372
-0.0244569
-0.0285655
-0.0326337
-0.0366873
-0.0408905
-0.0451268
-0.0494395
-0.0535428
-0.0574248
-0.0607222
-0.0634684
-0.0652935
-0.0663344
-0.0662677
-0.0653745
-0.0634198
-0.0608234
-0.0574271
-0.0537101
-0.0495231
-0.0452943
-0.0408443
-0.0365242
-0.0322027
-0.0281935
-0.0244743
-0.0212321
-0.018469
-0.0160239
-0.0138018
-0.0110634
-0.00783756
-0.0033963
0.000136381
0.0023009
0.00143143
0.00951194
0.00950675
0.00947818
0.00943046
0.00935212
0.00925096
0.00911585
0.00895524
0.0087536
0.00851908
0.00822909
0.00789029
0.0074676
0.00695712
0.00629106
0.00542279
0.00420679
0.00252029
0.000163986
-0.00291742
-0.00672641
-0.0110131
-0.0155511
-0.0200189
-0.0243554
-0.0284697
-0.0325429
-0.0365634
-0.040728
-0.0448902
-0.0491426
-0.0531639
-0.0569958
-0.0602263
-0.0629448
-0.0647238
-0.065761
-0.0656707
-0.0647973
-0.0628394
-0.0602809
-0.0568953
-0.0532273
-0.0490571
-0.0448798
-0.0404423
-0.0361635
-0.0318375
-0.0278511
-0.0241151
-0.0208998
-0.0181568
-0.0158318
-0.0138108
-0.011482
-0.0088052
-0.00498194
-0.00177072
0.000434317
-0.000365124
0.00933644
0.00933771
0.00930939
0.00926525
0.00918498
0.00908408
0.00894413
0.00878056
0.00857115
0.00833107
0.00803089
0.00768504
0.00725138
0.00673629
0.00606645
0.00521221
0.00402738
0.00241314
0.00016219
-0.00277497
-0.00644241
-0.0106034
-0.0150728
-0.0195074
-0.0238514
-0.0279593
-0.0320194
-0.0359731
-0.040054
-0.0440811
-0.048207
-0.0520733
-0.055788
-0.0588873
-0.0615283
-0.063221
-0.0642349
-0.0641146
-0.0632775
-0.0613449
-0.0588724
-0.0555488
-0.0519915
-0.0478913
-0.0438214
-0.0394379
-0.0352464
-0.0309507
-0.0270322
-0.0233129
-0.0201657
-0.0174594
-0.0152645
-0.0134096
-0.0114488
-0.00926445
-0.00610352
-0.00334611
-0.00126971
-0.0019993
0.0090292
0.00903203
0.00900355
0.00896202
0.00888273
0.00878611
0.0086481
0.00849014
0.00828304
0.00804946
0.00775154
0.00741331
0.006983
0.00648049
0.00582378
0.00500518
0.0038745
0.00236436
0.000255778
-0.00248771
-0.0059628
-0.00994469
-0.0143059
-0.0186758
-0.0230126
-0.0270991
-0.0311349
-0.0349963
-0.0389622
-0.0428047
-0.0467514
-0.0503978
-0.0539371
-0.0568447
-0.0593636
-0.0609306
-0.0619033
-0.0617434
-0.0609561
-0.0590688
-0.0567222
-0.0534995
-0.0501038
-0.0461127
-0.042195
-0.0378945
-0.0338275
-0.0295876
-0.0257769
-0.022102
-0.019063
-0.0164094
-0.0143603
-0.0126422
-0.0110098
-0.00924419
-0.00673688
-0.00450305
-0.00270535
-0.00338798
0.00890532
0.00891484
0.00888775
0.00885195
0.00877339
0.00868092
0.00854177
0.00838612
0.00817595
0.00794379
0.00764198
0.00730644
0.00687435
0.00638155
0.00573549
0.00495341
0.00387926
0.00248217
0.000531254
-0.00198944
-0.00523332
-0.0089876
-0.0131965
-0.0174648
-0.0217743
-0.0258284
-0.0298379
-0.0336002
-0.0374413
-0.041075
-0.0448121
-0.0481961
-0.051518
-0.054189
-0.0565517
-0.0579632
-0.0588813
-0.0586753
-0.0579494
-0.0561229
-0.0539334
-0.0508386
-0.0476414
-0.0437834
-0.0400489
-0.035847
-0.0319317
-0.0277632
-0.0240931
-0.0204826
-0.0175872
-0.0149978
-0.0131118
-0.0115055
-0.0101695
-0.00874609
-0.00685494
-0.00515855
-0.00376226
-0.00442441
0.00860041
0.00861003
0.00858401
0.00855297
0.00847949
0.00839716
0.00826642
0.00812505
0.00792527
0.00771055
0.00742049
0.00710582
0.00668831
0.00622427
0.00560488
0.00487841
0.00387579
0.00261162
0.000837155
-0.00142779
-0.00440054
-0.00786908
-0.0118705
-0.0159815
-0.0202314
-0.0242304
-0.0282139
-0.0318764
-0.035601
-0.0390199
-0.0425417
-0.0456399
-0.0487244
-0.0511269
-0.053313
-0.0545437
-0.0553995
-0.0551363
-0.0544796
-0.0527153
-0.0507009
-0.0477394
-0.0447595
-0.0410367
-0.0375012
-0.0333989
-0.0296563
-0.0255682
-0.022072
-0.0185422
-0.0158278
-0.0133105
-0.0116087
-0.0100879
-0.00902066
-0.00785194
-0.00650753
-0.0052952
-0.00436766
-0.0050243
0.00853946
0.00855582
0.00853218
0.00850914
0.00843901
0.00836515
0.00823691
0.00810354
0.00790483
0.0076985
0.00740942
0.00710624
0.00669305
0.00624972
0.00564785
0.00496984
0.00402899
0.00288998
0.00128372
-0.000722179
-0.00340738
-0.00654982
-0.0102919
-0.0141858
-0.0183316
-0.022246
-0.0262002
-0.0297716
-0.0334027
-0.0366268
-0.0399542
-0.0427748
-0.0456271
-0.047755
-0.0497608
-0.0508004
-0.0515916
-0.0512636
-0.0506786
-0.0489701
-0.0471339
-0.0442959
-0.0415334
-0.0379321
-0.0345976
-0.0305861
-0.0270303
-0.0230258
-0.0197321
-0.0162918
-0.0137902
-0.0113446
-0.00984623
-0.00838325
-0.00756651
-0.00657053
-0.00569788
-0.00487468
-0.0044196
-0.00506413
0.0082271
0.00824141
0.00822007
0.0082043
0.00814403
0.00808768
0.00797533
0.00786684
0.00768723
0.00751071
0.00724228
0.00697336
0.00658325
0.00618231
0.00561358
0.00500191
0.00413159
0.00312777
0.00168962
-4.81519e-05
-0.00243346
-0.00520837
-0.00863856
-0.0122403
-0.0162217
-0.0199969
-0.0239048
-0.02738
-0.0309448
-0.0339986
-0.0371728
-0.0397399
-0.0423916
-0.0442543
-0.0460968
-0.0469412
-0.0476751
-0.0472685
-0.0467549
-0.0450793
-0.0434131
-0.0406675
-0.0381113
-0.0346019
-0.0314677
-0.0275326
-0.0241858
-0.0202687
-0.0172185
-0.0138755
-0.0116299
-0.00925029
-0.00798495
-0.0065449
-0.00596949
-0.00505144
-0.00455933
-0.00397074
-0.00390307
-0.00449584
0.00824049
0.0082616
0.00824333
0.00823799
0.00818326
0.00814004
0.00803302
0.00793828
0.00776229
0.00760047
0.00733512
0.00708464
0.00670042
0.00632729
0.00577522
0.00521521
0.00439582
0.0035066
0.00220833
0.000713419
-0.00139232
-0.0037944
-0.00688369
-0.0101334
-0.013885
-0.0174558
-0.0212798
-0.0246416
-0.0281561
-0.0310688
-0.0341372
-0.0364948
-0.0389937
-0.0406249
-0.0423356
-0.0429988
-0.0436874
-0.0431961
-0.042748
-0.0410813
-0.039566
-0.0368789
-0.0345089
-0.0310631
-0.0281263
-0.0242575
-0.0211414
-0.0173144
-0.0145418
-0.0112932
-0.00933497
-0.0070014
-0.00599237
-0.00453416
-0.00420347
-0.00327896
-0.00310243
-0.00258866
-0.00277441
-0.0032466
0.00790316
0.00791924
0.00790455
0.00790971
0.00787048
0.00785434
0.00777177
0.00771512
0.00756719
0.00744939
0.0072123
0.00700969
0.00665366
0.00633447
0.00581567
0.00532689
0.00456488
0.00379705
0.00262756
0.00136593
-0.000481021
-0.00250817
-0.00524279
-0.00808403
-0.0115427
-0.0148234
-0.0185064
-0.0217033
-0.0251632
-0.0279366
-0.0309414
-0.0331216
-0.035525
-0.036956
-0.0385819
-0.039076
-0.0397445
-0.0391558
-0.038776
-0.0370848
-0.0357099
-0.033041
-0.0308526
-0.0274421
-0.0247237
-0.0209149
-0.0180781
-0.0143443
-0.0119089
-0.00874648
-0.00713148
-0.00481483
-0.0041102
-0.00257782
-0.00251807
-0.00147974
-0.00156489
-0.000920009
-0.0011738
-0.00141668
0.0080036
0.00802683
0.00801553
0.00803433
0.00800202
0.00800432
0.00792819
0.00789098
0.00774629
0.00764848
0.00741241
0.00723308
0.00687907
0.00659137
0.0060815
0.0056425
0.00491146
0.00423767
0.00315905
0.00208852
0.000449926
-0.0012429
-0.00364802
-0.00607006
-0.00919762
-0.0121211
-0.015596
-0.0185638
-0.0219341
-0.0245513
-0.027507
-0.0295342
-0.0318846
-0.0331523
-0.0347348
-0.0350853
-0.0357566
-0.0350745
-0.0347647
-0.0330351
-0.0317924
-0.0291243
-0.027119
-0.0237387
-0.0212628
-0.0175202
-0.0150013
-0.0113584
-0.00929399
-0.00618992
-0.00494315
-0.00259154
-0.00221926
-0.000544356
-0.000791275
0.000456768
0.000102684
0.0010426
0.000850168
0.00095583
0.00761433
0.0076284
0.00762221
0.00765649
0.00764652
0.00768944
0.00764733
0.00766565
0.00755771
0.00752116
0.00731887
0.00720221
0.00687764
0.00665478
0.00617319
0.00580859
0.00511636
0.00454735
0.00354825
0.00265696