/*--------------------------------*- C++ -*----------------------------------*\
| =========                 |                                                 |
| \\      /  F ield         | OpenFOAM: The Open Source CFD Toolbox           |
|  \\    /   O peration     | Version:  2406                                  |
|   \\  /    A nd           | Website:  www.openfoam.com                      |
|    \\/     M anipulation  |                                                 |
\*---------------------------------------------------------------------------*/
FoamFile
{
    version     2.0;
    format      ascii;
    arch        "LSB;label=32;scalar=64";
    class       surfaceScalarField;
    location    "16.2";
    object      phi;
}
// * * * * * * * * * * * * * * * * * * * * * * * * * * * * * * * * * * * * * //

dimensions      [0 3 -1 0 0 0 0];

oriented        oriented;

internalField   nonuniform List<scalar> 
7080
(
8.71537e-08
-8.73141e-08
5.09456e-08
3.80628e-08
-1.18054e-07
1.68453e-07
-3.97799e-07
2.82411e-07
-7.33171e-07
3.3511e-07
-1.0993e-06
3.6914e-07
-1.47654e-06
3.7734e-07
-1.86136e-06
3.87799e-07
-2.25362e-06
3.92701e-07
-2.65649e-06
4.05726e-07
-3.07414e-06
4.18422e-07
-3.50915e-06
4.37753e-07
-3.96503e-06
4.56964e-07
-4.44272e-06
4.80349e-07
-4.94436e-06
5.03001e-07
-5.46924e-06
5.27475e-07
-6.01718e-06
5.49511e-07
-6.58422e-06
5.69538e-07
-7.16516e-06
5.82611e-07
-7.74947e-06
5.86608e-07
-8.32311e-06
5.75234e-07
-8.86529e-06
5.44104e-07
-9.35012e-06
4.86037e-07
-9.74469e-06
3.95811e-07
-1.00114e-05
2.67178e-07
-1.01081e-05
9.67659e-08
-9.99115e-06
-1.17689e-07
-9.61839e-06
-3.74141e-07
-8.95337e-06
-6.67413e-07
-7.96964e-06
-9.86935e-07
-6.65574e-06
-1.31811e-06
-5.01934e-06
-1.64147e-06
-3.09027e-06
-1.93491e-06
-9.2222e-07
-2.1746e-06
1.40891e-06
-2.33804e-06
3.80799e-06
-2.40634e-06
6.16814e-06
-2.36718e-06
8.37819e-06
-2.21698e-06
1.03341e-05
-1.96198e-06
1.19474e-05
-1.61879e-06
1.31551e-05
-1.21176e-06
1.39233e-05
-7.71688e-07
1.42516e-05
-3.29809e-07
1.41669e-05
8.35331e-08
1.37221e-05
4.45712e-07
1.29829e-05
7.3999e-07
1.20247e-05
9.61109e-07
1.0918e-05
1.10869e-06
9.72975e-06
1.19245e-06
8.51063e-06
1.22153e-06
7.30291e-06
1.21265e-06
6.12983e-06
1.17526e-06
5.00869e-06
1.12649e-06
3.94215e-06
1.06805e-06
2.93531e-06
1.01243e-06
1.9954e-06
9.40449e-07
1.15029e-06
8.50654e-07
4.70935e-07
6.78695e-07
4.99356e-08
4.25879e-07
4.98987e-08
-4.07755e-08
-4.82502e-08
-3.89017e-07
3.868e-07
-1.02366e-06
7.99603e-07
-1.88847e-06
1.14686e-06
-2.89619e-06
1.33842e-06
-3.99351e-06
1.4653e-06
-5.14221e-06
1.52137e-06
-6.32705e-06
1.5709e-06
-7.54326e-06
1.60426e-06
-8.79138e-06
1.65164e-06
-1.00756e-05
1.69801e-06
-1.13972e-05
1.75671e-06
-1.27592e-05
1.81439e-06
-1.416e-05
1.87809e-06
-1.55993e-05
1.9377e-06
-1.70716e-05
1.99638e-06
-1.85711e-05
2.0445e-06
-2.00851e-05
2.0799e-06
-2.15968e-05
2.08996e-06
-2.30795e-05
2.06577e-06
-2.44985e-05
1.99029e-06
-2.58064e-05
1.84896e-06
-2.69458e-05
1.62247e-06
-2.78472e-05
1.29541e-06
-2.84336e-05
8.52305e-07
-2.86217e-05
2.85005e-07
-2.83288e-05
-4.09347e-07
-2.74775e-05
-1.22238e-06
-2.60043e-05
-2.13611e-06
-2.38656e-05
-3.11911e-06
-2.10462e-05
-4.12936e-06
-1.75642e-05
-5.11342e-06
-1.34761e-05
-6.01147e-06
-8.87799e-06
-6.75985e-06
-3.90401e-06
-7.29822e-06
1.2782e-06
-7.57447e-06
6.47741e-06
-7.55223e-06
1.14892e-05
-7.21551e-06
1.61126e-05
-6.57307e-06
2.01636e-05
-5.65943e-06
2.34927e-05
-4.53215e-06
2.59942e-05
-3.26747e-06
2.76184e-05
-1.94989e-06
2.83679e-05
-6.65064e-07
2.82995e-05
5.13734e-07
2.75076e-05
1.52848e-06
2.61182e-05
2.34693e-06
2.42646e-05
2.9558e-06
2.20845e-05
3.36711e-06
1.9696e-05
3.60203e-06
1.7204e-05
3.69871e-06
1.46822e-05
3.68829e-06
1.21908e-05
3.6126e-06
9.76319e-06
3.48661e-06
7.43672e-06
3.33479e-06
5.24671e-06
3.12156e-06
3.26657e-06
2.82854e-06
1.61058e-06
2.32651e-06
4.50043e-07
1.58655e-06
4.95091e-07
-2.32757e-07
1.84225e-07
-9.80641e-07
1.13852e-06
-2.15148e-06
1.96956e-06
-3.63361e-06
2.63345e-06
-5.32002e-06
3.02503e-06
-7.13641e-06
3.28637e-06
-9.03741e-06
3.42337e-06
-1.09986e-05
3.53677e-06
-1.30124e-05
3.61964e-06
-1.50742e-05
3.71796e-06
-1.71858e-05
3.81175e-06
-1.93444e-05
3.91977e-06
-2.15504e-05
4.02293e-06
-2.37985e-05
4.13056e-06
-2.6086e-05
4.2281e-06
-2.84042e-05
4.31895e-06
-3.07448e-05
4.3883e-06
-3.30911e-05
4.43036e-06
-3.54216e-05
4.42375e-06
-3.77025e-05
4.35052e-06
-3.98898e-05
4.18048e-06
-4.19234e-05
3.88575e-06
-4.37309e-05
3.43205e-06
-4.52244e-05
2.79085e-06
-4.63068e-05
1.9354e-06
-4.6873e-05
8.5112e-07
-4.68178e-05
-4.66019e-07
-4.60416e-05
-2.00133e-06
-4.44591e-05
-3.72307e-06
-4.20066e-05
-5.57747e-06
-3.86511e-05
-7.49252e-06
-3.43965e-05
-9.37718e-06
-2.92898e-05
-1.11287e-05
-2.3425e-05
-1.26363e-05
-1.69431e-05
-1.37926e-05
-1.00301e-05
-1.45003e-05
-2.90924e-06
-1.46857e-05
4.16916e-06
-1.43061e-05
1.09447e-05
-1.33594e-05
1.71622e-05
-1.18867e-05
2.25951e-05
-9.97241e-06
2.70592e-05
-7.73744e-06
3.04324e-05
-5.32611e-06
3.26578e-05
-2.89228e-06
3.37514e-05
-5.78704e-07
3.37876e-05
1.494e-06
3.28948e-05
3.24426e-06
3.12274e-05
4.62713e-06
2.89594e-05
5.64171e-06
2.62531e-05
6.31326e-06
2.32623e-05
6.69724e-06
2.01058e-05
6.84952e-06
1.68878e-05
6.83888e-06
1.36765e-05
6.70186e-06
1.05448e-05
6.47495e-06
7.55324e-06
6.11544e-06
4.81306e-06
5.57727e-06
2.46261e-06
4.67678e-06
7.52026e-07
3.30541e-06
1.2476e-06
-4.55625e-07
6.36886e-07
-1.65128e-06
2.33658e-06
-3.39267e-06
3.70587e-06
-5.50148e-06
4.74351e-06
-7.85372e-06
5.37236e-06
-1.03597e-05
5.79245e-06
-1.29734e-05
6.03242e-06
-1.5664e-05
6.22668e-06
-1.84223e-05
6.37349e-06
-2.12378e-05
6.53211e-06
-2.41094e-05
6.67913e-06
-2.70299e-05
6.83842e-06
-2.99985e-05
6.9874e-06
-3.30092e-05
7.13907e-06
-3.60622e-05
7.2771e-06
-3.91528e-05
7.40703e-06
-4.22792e-05
7.51092e-06
-4.54317e-05
7.5802e-06
-4.85966e-05
7.58513e-06
-5.17463e-05
7.49764e-06
-5.48414e-05
7.27257e-06
-5.78232e-05
6.86555e-06
-6.06167e-05
6.22334e-06
-6.31262e-05
5.29921e-06
-6.52408e-05
4.04926e-06
-6.68351e-05
2.44574e-06
-6.77763e-05
4.76198e-07
-6.79293e-05
-1.84593e-06
-6.71668e-05
-4.48223e-06
-6.5377e-05
-7.36246e-06
-6.24754e-05
-1.03881e-05
-5.84144e-05
-1.3431e-05
-5.31935e-05
-1.63414e-05
-4.68675e-05
-1.89532e-05
-3.95519e-05
-2.10984e-05
-3.14252e-05
-2.26172e-05
-2.27235e-05
-2.33774e-05
-1.3734e-05
-2.32863e-05
-4.77646e-06
-2.23082e-05
3.81475e-06
-2.04707e-05
1.17188e-05
-1.78701e-05
1.86502e-05
-1.46648e-05
2.4388e-05
-1.10606e-05
2.87865e-05
-7.29011e-06
3.17916e-05
-3.5836e-06
3.34302e-05
-1.46954e-07
3.38081e-05
2.86428e-06
3.308e-05
5.3506e-06
3.14398e-05
7.27849e-06
2.90832e-05
8.66375e-06
2.62068e-05
9.56988e-06
2.2974e-05
1.00754e-05
1.95343e-05
1.02753e-05
1.59948e-05
1.02339e-05
1.24666e-05
1.00013e-05
9.03528e-06
9.53875e-06
5.84332e-06
8.7693e-06
3.04805e-06
7.46337e-06
9.61662e-07
5.39436e-06
2.20365e-06
-6.7111e-07
1.30671e-06
-2.31899e-06
3.99078e-06
-4.63707e-06
6.02086e-06
-7.37251e-06
7.48467e-06
-1.03787e-05
8.37704e-06
-1.35492e-05
8.96809e-06
-1.68388e-05
9.32171e-06
-2.02113e-05
9.60382e-06
-2.36577e-05
9.82048e-06
-2.7163e-05
1.00417e-05
-3.07258e-05
1.02431e-05
-3.43381e-05
1.04548e-05
-3.80042e-05
1.06552e-05
-4.17261e-05
1.08648e-05
-4.55179e-05
1.1071e-05
-4.9393e-05
1.12858e-05
-5.33721e-05
1.14922e-05
-5.74695e-05
1.1681e-05
-6.16969e-05
1.18147e-05
-6.60495e-05
1.18531e-05
-7.05067e-05
1.17317e-05
-7.50214e-05
1.13824e-05
-7.95198e-05
1.0723e-05
-8.38955e-05
9.6761e-06
-8.80121e-05
8.16601e-06
-9.17022e-05
6.13565e-06
-9.47753e-05
3.54804e-06
-9.70237e-05
4.00492e-07
-9.82355e-05
-3.2735e-06
-9.82075e-05
-7.39441e-06
-9.67618e-05
-1.18388e-05
-9.37618e-05
-1.64369e-05
-8.91281e-05
-2.09818e-05
-8.28524e-05
-2.52364e-05
-7.50075e-05
-2.89511e-05
-6.57545e-05
-3.18784e-05
-5.53416e-05
-3.37983e-05
-4.40995e-05
-3.45365e-05
-3.24239e-05
-3.39909e-05
-2.07555e-05
-3.21456e-05
-9.54521e-06
-2.90854e-05
7.77965e-07
-2.49922e-05
9.84843e-06
-2.01333e-05
1.73895e-05
-1.48329e-05
2.32407e-05
-9.43431e-06
2.73559e-05
-4.26156e-06
2.98028e-05
4.20273e-07
3.07307e-05
4.42477e-06
3.03548e-05
7.65898e-06
2.89098e-05
1.01114e-05
2.66432e-05
1.18422e-05
2.37711e-05
1.29501e-05
2.04968e-05
1.35562e-05
1.69726e-05
1.37597e-05
1.33523e-05
1.36286e-05
9.75278e-06
1.31384e-05
6.34965e-06
1.21804e-05
3.32805e-06
1.04825e-05
1.0512e-06
7.68024e-06
3.25421e-06
-8.9297e-07
2.19528e-06
-2.99887e-06
6.10164e-06
-5.89202e-06
8.90677e-06
-9.24367e-06
1.08395e-05
-1.28829e-05
1.20102e-05
-1.66874e-05
1.27742e-05
-2.06135e-05
1.32426e-05
-2.46208e-05
1.36116e-05
-2.87026e-05
1.38977e-05
-3.28417e-05
1.41804e-05
-3.70419e-05
1.44391e-05
-4.13018e-05
1.47136e-05
-4.56418e-05
1.49914e-05
-5.00862e-05
1.53076e-05
-5.46811e-05
1.56623e-05
-5.94774e-05
1.60802e-05
-6.45396e-05
1.65511e-05
-6.99273e-05
1.70668e-05
-7.56962e-05
1.75807e-05
-8.18787e-05
1.80339e-05
-8.84809e-05
1.83316e-05
-9.54652e-05
1.83653e-05
-0.000102747
1.80037e-05
-0.000110186
1.71139e-05
-0.000117583
1.55626e-05
-0.000124685
1.32385e-05
-0.000131195
1.00595e-05
-0.000136786
5.99267e-06
-0.000141117
1.06104e-06
-0.000143864
-4.64399e-06
-0.000144733
-1.09647e-05
-0.000143489
-1.76761e-05
-0.000139966
-2.44986e-05
-0.000134089
-3.11069e-05
-0.000125882
-3.71512e-05
-0.000115479
-4.22745e-05
-0.000103128
-4.6142e-05
-8.91935e-05
-4.84646e-05
-7.41431e-05
-4.90351e-05
-5.85318e-05
-4.77519e-05
-4.29649e-05
-4.46478e-05
-2.80575e-05
-3.98968e-05
-1.43765e-05
-3.38118e-05
-2.39475e-06
-2.68141e-05
7.55905e-06
-1.93876e-05
1.53142e-05
-1.20183e-05
2.08671e-05
-5.13361e-06
2.43467e-05
9.41916e-07
2.59905e-05
6.01341e-06
2.60846e-05
1.00128e-05
2.49448e-05
1.298e-05
2.28605e-05
1.5029e-05
2.01064e-05
1.63089e-05
1.68976e-05
1.69624e-05
1.34422e-05
1.70839e-05
9.89928e-06
1.66743e-05
6.48187e-06
1.55995e-05
3.40756e-06
1.35484e-05
1.07462e-06
1.00172e-05
4.3233e-06
-1.10972e-06
3.30246e-06
-3.66531e-06
8.66624e-06
-7.12048e-06
1.23565e-05
-1.10711e-05
1.47976e-05
-1.53206e-05
1.62565e-05
-1.97308e-05
1.71906e-05
-2.42593e-05
1.77696e-05
-2.88631e-05
1.82205e-05
-3.35404e-05
1.85745e-05
-3.82778e-05
1.89224e-05
-4.30928e-05
1.92546e-05
-4.80037e-05
1.96285e-05
-5.3064e-05
2.00529e-05
-5.83409e-05
2.05882e-05
-6.39359e-05
2.12587e-05
-6.99623e-05
2.21099e-05
-7.65524e-05
2.31429e-05
-8.38312e-05
2.43484e-05
-9.19113e-05
2.56624e-05
-0.000100865
2.69901e-05
-0.000110714
2.81818e-05
-0.000121403
2.90565e-05
-0.000132795
2.93962e-05
-0.000144655
2.89747e-05
-0.00015666
2.75679e-05
-0.000168408
2.49869e-05
-0.000179445
2.10958e-05
-0.000189292
1.58385e-05
-0.00019748
9.24694e-06
-0.000203575
1.44908e-06
-0.000207203
-7.33951e-06
-0.000208061
-1.68214e-05
-0.000205929
-2.66343e-05
-0.000200679
-3.63616e-05
-0.000192282
-4.55528e-05
-0.000180823
-5.3738e-05
-0.000166513
-6.04566e-05
-0.000149701
-6.52815e-05
-0.000130878
-6.78617e-05
-0.000110678
-6.79567e-05
-8.98437e-05
-6.54846e-05
-6.91945e-05
-6.05489e-05
-4.95493e-05
-5.34584e-05
-3.16562e-05
-4.47088e-05
-1.61065e-05
-3.49369e-05
-3.28561e-06
-2.48392e-05
6.66126e-06
-1.50785e-05
1.38014e-05
-6.19732e-06
1.8382e-05
1.43607e-06
2.07506e-05
7.64548e-06
2.13146e-05
1.24203e-05
2.04655e-05
1.58793e-05
1.85781e-05
1.82014e-05
1.59564e-05
1.95843e-05
1.28834e-05
2.01629e-05
9.57863e-06
1.99778e-05
6.30288e-06
1.88824e-05
3.31401e-06
1.65338e-05
1.03671e-06
1.23031e-05
5.35875e-06
-1.33038e-06
4.62704e-06
-4.33108e-06
1.16745e-05
-8.33443e-06
1.63502e-05
-1.28634e-05
1.93317e-05
-1.76975e-05
2.10832e-05
-2.26843e-05
2.21804e-05
-2.77842e-05
2.28634e-05
-3.29542e-05
2.3392e-05
-3.82027e-05
2.3818e-05
-4.35287e-05
2.42487e-05
-4.89765e-05
2.4698e-05
-5.46018e-05
2.52533e-05
-6.05138e-05
2.59609e-05
-6.68479e-05
2.69212e-05
-7.37881e-05
2.81955e-05
-8.15354e-05
2.98559e-05
-9.03096e-05
3.19141e-05
-0.00010031
3.43472e-05
-0.0001117
3.70502e-05
-0.000124567
3.98556e-05
-0.000138899
4.25121e-05
-0.000154555
4.47119e-05
-0.000171259
4.60988e-05
-0.000188596
4.6312e-05
-0.000206045
4.50173e-05
-0.000223014
4.1957e-05
-0.000238893
3.69757e-05
-0.000253096
3.00432e-05
-0.000265096
2.12493e-05
-0.000274441
1.0797e-05
-0.000280757
-1.01959e-06
-0.000283746
-1.38286e-05
-0.000283176
-2.71994e-05
-0.000278884
-4.06491e-05
-0.000270776
-5.36558e-05
-0.000258844
-6.56642e-05
-0.000243191
-7.61047e-05
-0.000224056
-8.44116e-05
-0.000201848
-9.00644e-05
-0.000177171
-9.26302e-05
-0.000150822
-9.18298e-05
-0.000123774
-8.75939e-05
-9.71086e-05
-8.01217e-05
-7.19186e-05
-6.98981e-05
-4.91803e-05
-5.76745e-05
-2.96401e-05
-4.43806e-05
-1.37221e-05
-3.09967e-05
-1.52043e-06
-1.84014e-05
7.17065e-06
-7.25577e-06
1.27516e-05
2.06116e-06
1.57417e-05
9.42944e-06
1.66694e-05
1.49474e-05
1.6048e-05
1.88225e-05
1.43069e-05
2.13205e-05
1.18334e-05
2.26371e-05
8.93204e-06
2.28732e-05
5.9263e-06
2.18905e-05
3.12351e-06
1.93291e-05
9.71704e-07
1.44592e-05
6.3256e-06
-1.54557e-06
6.16887e-06
-4.97774e-06
1.51184e-05
-9.50841e-06
2.08731e-05
-1.45909e-05
2.44235e-05
-1.99829e-05
2.64704e-05
-2.552e-05
2.77248e-05
-3.11675e-05
2.85082e-05
-3.68871e-05
2.91176e-05
-4.27051e-05
2.96347e-05
-4.86453e-05
3.0194e-05
-5.47966e-05
3.08492e-05
-6.1275e-05
3.1736e-05
-6.82717e-05
3.29584e-05
-7.60188e-05
3.46721e-05
-8.48079e-05
3.69857e-05
-9.49454e-05
3.99967e-05
-0.000106742
4.37116e-05
-0.000120453
4.80612e-05
-0.00013625
5.28484e-05
-0.000154159
5.77668e-05
-0.000174034
6.2389e-05
-0.000195532
6.62115e-05
-0.000218126
6.86934e-05
-0.000241145
6.93321e-05
-0.00026385
6.77224e-05
-0.000285503
6.36108e-05
-0.000305437
5.69091e-05
-0.000323085
4.769e-05
-0.000337994
3.61565e-05
-0.000349812
2.2613e-05
-0.000358266
7.43201e-06
-0.000363135
-8.9628e-06
-0.000364226
-2.6112e-05
-0.00036136
-4.35186e-05
-0.000354371
-6.06482e-05
-0.000343119
-7.69198e-05
-0.000327519
-9.17076e-05
-0.000307589
-0.000104345
-0.000283506
-0.00011415
-0.000255668
-0.00012047
-0.000224747
-0.000122752
-0.000191715
-0.000120627
-0.000157816
-0.000114021
-0.000124484
-0.000103231
-9.31819e-05
-8.89762e-05
-6.52085e-05
-7.23542e-05
-4.14989e-05
-5.47048e-05
-2.25159e-05
-3.73842e-05
-8.23153e-06
-2.15378e-05
1.75353e-06
-7.92352e-06
8.07727e-06
3.10895e-06
1.14455e-05
1.15793e-05
1.25606e-05
1.77115e-05
1.20263e-05
2.18543e-05
1.03764e-05
2.42919e-05
8.03302e-06
2.52149e-05
5.40515e-06
2.45245e-05
2.86395e-06
2.18667e-05
8.86099e-07
1.64445e-05
7.21028e-06
-1.76027e-06
7.92195e-06
-5.61162e-06
1.89797e-05
-1.06486e-05
2.5898e-05
-1.62594e-05
3.00414e-05
-2.21835e-05
3.23854e-05
-2.8248e-05
3.37935e-05
-3.4427e-05
3.46802e-05
-4.0694e-05
3.53868e-05
-4.71036e-05
3.60385e-05
-5.37209e-05
3.68121e-05
-6.07008e-05
3.78242e-05
-6.82455e-05
3.92806e-05
-7.66561e-05
4.13647e-05
-8.62852e-05
4.43003e-05
-9.7547e-05
4.82439e-05
-0.00011085
5.32983e-05
-0.000126565
5.94233e-05
-0.00014494
6.64353e-05
-0.000166051
7.39571e-05
-0.000189729
8.14444e-05
-0.000215549
8.82068e-05
-0.000242834
9.34963e-05
-0.000270742
9.66003e-05
-0.000298361
9.69509e-05
-0.000324827
9.41887e-05
-0.000349404
8.81877e-05
-0.000371524
7.90296e-05
-0.000390793
6.6959e-05
-0.000406961
5.23255e-05
-0.000419886
3.5538e-05
-0.000429479
1.70266e-05
-0.000435668
-2.77346e-06
-0.00043835
-2.34287e-05
-0.000437372
-4.44951e-05
-0.000432516
-6.55034e-05
-0.000423502
-8.59319e-05
-0.000410021
-0.000105187
-0.00039178
-0.000122584
-0.00036858
-0.000137348
-0.000340412
-0.000148637
-0.000307562
-0.000155599
-0.000270714
-0.000157473
-0.000231006
-0.000153727
-0.000190022
-0.000144213
-0.000149665
-0.000129332
-0.000111924
-0.000110095
-7.85444e-05
-8.80843e-05
-5.07242e-05
-6.52062e-05
-2.89299e-05
-4.33323e-05
-1.29479e-05
-2.39081e-05
-2.07194e-06
-7.7672e-06
4.61559e-06
4.88859e-06
8.07369e-06
1.42537e-05
9.1506e-06
2.07734e-05
8.58564e-06
2.4858e-05
6.96381e-06
2.68318e-05
4.81167e-06
2.66791e-05
2.58482e-06
2.40873e-05
8.01731e-07
1.82316e-05
8.00801e-06
-1.96523e-06
9.88238e-06
-6.21544e-06
2.32442e-05
-1.1732e-05
3.14047e-05
-1.7843e-05
3.61637e-05
-2.42735e-05
3.88098e-05
-3.08462e-05
4.03749e-05
-3.75497e-05
4.13802e-05
-4.4378e-05
4.2222e-05
-5.14281e-05
4.30868e-05
-5.88257e-05
4.42154e-05
-6.68158e-05
4.58139e-05
-7.57133e-05
4.81829e-05
-8.59514e-05
5.16033e-05
-9.80153e-05
5.63684e-05
-0.000112432
6.26618e-05
-0.000129671
7.05402e-05
-0.000150079
7.98333e-05
-0.000173771
9.01304e-05
-0.000200564
0.000100751
-0.000229924
0.000110807
-0.000261012
0.000119296
-0.000292774
0.000125259
-0.000324103
0.000127929
-0.000353982
0.000126831
-0.000381601
0.000121807
-0.000406398
0.000112984
-0.000428064
0.000100693
-0.000446496
8.53894e-05
-0.000461748
6.7574e-05
-0.000473953
4.77405e-05
-0.000483271
2.63403e-05
-0.000489822
3.77332e-06
-0.000493647
-1.96082e-05
-0.00049467
-4.34767e-05
-0.000492676
-6.75015e-05
-0.000487305
-9.13081e-05
-0.000478059
-0.000114438
-0.000464339
-0.000136308
-0.000445518
-0.000156174
-0.000421039
-0.00017312
-0.000390562
-0.000186078
-0.000354136
-0.000193902
-0.000312364
-0.000195499
-0.000266534
-0.000190043
-0.000218635
-0.000177229
-0.000171201
-0.000157528
-0.000126944
-0.00013234
-8.82406e-05
-0.000103909
-5.66193e-05
-7.49518e-05
-3.25216e-05
-4.80058e-05
-1.54125e-05
-2.4874e-05
-4.19424e-06
-6.32989e-06
2.42449e-06
7.63798e-06
5.63683e-06
1.75603e-05
6.47768e-06
2.4021e-05
5.76233e-06
2.75454e-05
4.18258e-06
2.82638e-05
2.30918e-06
2.59574e-05
7.25468e-07
1.98214e-05
8.73212e-06
-2.16415e-06
1.2038e-05
-6.79295e-06
2.78852e-05
-1.2762e-05
3.73594e-05
-1.93458e-05
4.27559e-05
-2.62592e-05
4.57126e-05
-3.33262e-05
4.74471e-05
-4.05566e-05
4.86024e-05
-4.79761e-05
4.96443e-05
-5.57397e-05
5.08438e-05
-6.40549e-05
5.25317e-05
-7.32801e-05
5.50336e-05
-8.38631e-05
5.87659e-05
-9.63787e-05
6.41142e-05
-0.000111431
7.14199e-05
-0.000129611
8.0838e-05
-0.000151353
9.22809e-05
-0.000176838
0.000105315
-0.000205864
0.000119155
-0.000237808
0.000132692
-0.000271643
0.000144641
-0.000306092
0.000153743
-0.000339812
0.000158979
-0.000371609
0.000159725
-0.000400568
0.000155789
-0.000426125
0.000147362
-0.000448052
0.000134911
-0.000466412
0.000119052
-0.00048147
0.000100447
-0.000493609
7.97133e-05
-0.000503252
5.73841e-05
-0.000510793
3.38824e-05
-0.000516545
9.52716e-06
-0.000520702
-1.54503e-05
-0.000523301
-4.08759e-05
-0.000524203
-6.6598e-05
-0.000523067
-9.24432e-05
-0.000519338
-0.000118167
-0.000512248
-0.000143397
-0.00050085
-0.000167572
-0.000484086
-0.000189885
-0.000460918
-0.000209247
-0.000430527
-0.000224295
-0.000392561
-0.000233466
-0.000347417
-0.000235188
-0.000296478
-0.000228168
-0.000242199
-0.000211807
-0.000187921
-0.000186616
-0.000137341
-0.00015449
-9.36728e-05
-0.000118619
-5.88587e-05
-8.28216e-05
-3.32015e-05
-5.05311e-05
-1.571e-05
-2.38238e-05
-4.7512e-06
-3.32041e-06
1.33804e-06
1.14681e-05
4.02254e-06
2.13376e-05
4.45181e-06
2.71123e-05
3.55626e-06
2.91616e-05
2.06862e-06
2.74399e-05
6.7244e-07
2.12211e-05
9.40136e-06
-2.34702e-06
1.43794e-05
-7.32586e-06
3.28807e-05
-1.37145e-05
4.37365e-05
-2.074e-05
4.97946e-05
-2.81122e-05
5.30776e-05
-3.56618e-05
5.50066e-05
-4.34277e-05
5.63641e-05
-5.14801e-05
5.77045e-05
-6.0049e-05
5.94107e-05
-6.94439e-05
6.1933e-05
-8.01547e-05
6.57439e-05
-9.27704e-05
7.13869e-05
-0.000107992
7.93364e-05
-0.000126491
8.99238e-05
-0.000148822
0.00010317
-0.000175232
0.000118694
-0.000205546
0.000135632
-0.000239064
0.000152676
-0.000274604
0.000168232
-0.000310646
0.000180686
-0.000345602
0.000188699
-0.00037806
0.000191437
-0.000406978
0.000188643
-0.000431767
0.000180578
-0.000452283
0.000167877
-0.000468743
0.000151371
-0.000481623
0.000131932
-0.000491538
0.000110361
-0.000499144
8.7319e-05
-0.000505062
6.33026e-05
-0.00050983
3.86506e-05
-0.000513869
1.35665e-05
-0.000517468
-1.18512e-05
-0.000520767
-3.75766e-05
-0.000523743
-6.36224e-05
-0.000526179
-9.00066e-05
-0.000527638
-0.000116708
-0.000527419
-0.000143617
-0.000524532
-0.00017046
-0.000517698
-0.000196721
-0.000505406
-0.000221541
-0.00048605
-0.000243654
-0.000458182
-0.000261337
-0.000420869
-0.000272504
-0.000374124
-0.000274915
-0.000319322
-0.000266611
-0.000259419
-0.000246518
-0.000198768
-0.000215141
-0.000142333
-0.000175051
-9.44114e-05
-0.000130743
-5.73501e-05
-8.75904e-05
-3.11482e-05
-5.0026e-05
-1.41252e-05
-2.03413e-05
-4.07038e-06
1.41255e-06
1.09064e-06
1.61794e-05
2.99852e-06
2.52029e-05
2.93728e-06
2.92267e-05
1.87473e-06
2.84996e-05
6.479e-07
2.24529e-05
1.0048e-05
-2.51733e-06
1.68869e-05
-7.81675e-06
3.81939e-05
-1.45908e-05
5.0494e-05
-2.2027e-05
5.72404e-05
-2.9835e-05
6.08735e-05
-3.78586e-05
6.3036e-05
-4.61745e-05
6.46707e-05
-5.491e-05
6.64431e-05
-6.43857e-05
6.8879e-05
-7.50281e-05
7.25767e-05
-8.74652e-05
7.81748e-05
-0.000102413
8.63345e-05
-0.00012065
9.7568e-05
-0.000142819
0.000112091
-0.000169289
0.000129636
-0.000199937
0.000149341
-0.000234059
0.00016975
-0.000270348
0.000188963
-0.000307085
0.000204967
-0.00034242
0.000216019
-0.000374711
0.000220988
-0.000402761
0.000219486
-0.000425943
0.000211824
-0.000444182
0.000198817
-0.000457857
0.000181552
-0.000467644
0.000161159
-0.000474369
0.000138658
-0.000478876
0.00011487
-0.000481942
9.03862e-05
-0.000484221
6.55848e-05
-0.000486239
4.06705e-05
-0.000488385
1.57159e-05
-0.000490937
-9.29639e-06
-0.000494065
-3.4445e-05
-0.000497839
-5.98444e-05
-0.000502211
-8.56309e-05
-0.000506978
-0.000111937
-0.000511722
-0.000138869
-0.000515735
-0.000166444
-0.000517934
-0.000194518
-0.000516815
-0.000222658
-0.000510455
-0.000250013
-0.000496646
-0.000275145
-0.000473186
-0.000295966
-0.000438362
-0.00030974
-0.000391591
-0.000313385
-0.000334094
-0.000304016
-0.000269347
-0.000279889
-0.000202927
-0.000241471
-0.000141401
-0.000192269
-9.03295e-05
-0.000138661
-5.2355e-05
-8.80016e-05
-2.68169e-05
-4.58793e-05
-1.11801e-05
-1.42262e-05
-2.59022e-06
7.59021e-06
1.30003e-06
2.13099e-05
2.30186e-06
2.82266e-05
1.73158e-06
2.90659e-05
6.5869e-07
2.35289e-05
1.07041e-05
-2.66318e-06
1.9544e-05
-8.24385e-06
4.37935e-05
-1.53615e-05
5.75988e-05
-2.31715e-05
6.50652e-05
-3.13877e-05
6.9082e-05
-3.98733e-05
7.15329e-05
-4.87509e-05
7.35439e-05
-5.82167e-05
7.59177e-05
-6.86937e-05
7.93539e-05
-8.07321e-05
8.46223e-05
-9.50869e-05
9.25293e-05
-0.00011256
0.000103813
-0.000133919
0.000118929
-0.000159643
0.000137821
-0.000189746
0.00015974
-0.000223572
0.000183172
-0.000259794
0.000205973
-0.000296535
0.000225708
-0.000331728
0.00024016
-0.000363478
0.000247772
-0.000390417
0.000247927
-0.000411846
0.000240916
-0.000427749
0.000227728
-0.000438654
0.000209724
-0.00044544
0.000188339
-0.000449131
0.000164851
-0.000450736
0.000140264
-0.000451135
0.00011527
-0.000451029
9.02806e-05
-0.000450936
6.54913e-05
-0.000451213
4.09469e-05
-0.000452097
1.65998e-05
-0.000453749
-7.64473e-06
-0.000456286
-3.19095e-05
-0.0004598
-5.63305e-05
-0.000464365
-8.10668e-05
-0.000470008
-0.000106294
-0.00047666
-0.000132218
-0.000484066
-0.000159037
-0.000491664
-0.000186918
-0.000498448
-0.000215872
-0.00050283
-0.000245629
-0.00050258
-0.000275393
-0.000494907
-0.000303638
-0.000476774
-0.000327873
-0.000445511
-0.000344649
-0.000399722
-0.000349808
-0.000340318
-0.000339295
-0.000271326
-0.000310465
-0.000199811
-0.000263783
-0.000134288
-0.000204183
-8.16622e-05
-0.000140626
-4.44597e-05
-8.30803e-05
-2.09335e-05
-3.77525e-05
-7.50179e-06
-5.84003e-06
-8.61424e-07
1.46686e-05
1.56606e-06
2.58018e-05
1.61436e-06
2.90153e-05
7.00857e-07
2.44465e-05
1.14038e-05
-2.78836e-06
2.23214e-05
-8.60902e-06
4.9629e-05
-1.60255e-05
6.49971e-05
-2.41698e-05
7.32198e-05
-3.27646e-05
7.76633e-05
-4.16978e-05
8.04722e-05
-5.11449e-05
8.29806e-05
-6.13793e-05
8.61552e-05
-7.29306e-05
9.08968e-05
-8.64644e-05
9.81571e-05
-0.000102829
0.000108887
-0.00012284
0.000123824
-0.00014714
0.000143223
-0.000175894
0.000166573
-0.000208617
0.000192458
-0.00024404
0.000218593
-0.000280254
0.000242182
-0.000315008
0.000260461
-0.000346185
0.000271333
-0.000372193
0.000273778
-0.000392224
0.000267957
-0.000406273
0.000254965
-0.000414997
0.000236451
-0.000419461
0.000214188
-0.000420891
0.000189768
-0.000420449
0.000164409
-0.000419107
0.000138922
-0.000417581
0.000113744
-0.00041634
8.90399e-05
-0.000415643
6.47946e-05
-0.000415604
4.09081e-05
-0.000416252
1.72483e-05
-0.00041759
-6.30678e-06
-0.000419632
-2.9867e-05
-0.000422438
-5.35248e-05
-0.000426119
-7.73854e-05
-0.00043084
-0.000101573
-0.000436783
-0.000126274
-0.000444093
-0.000151727
-0.000452765
-0.000178246
-0.000462497
-0.000206139
-0.000472478
-0.000235646
-0.00048118
-0.000266689
-0.00048618
-0.000298636
-0.00048417
-0.000329881
-0.000471253
-0.000357565
-0.000443686
-0.000377374
-0.000399091
-0.000383892
-0.000337975
-0.000371583
-0.000265025
-0.000336736
-0.00018916
-0.000280048
-0.000121188
-0.000208598
-6.9134e-05
-0.000135134
-3.46645e-05
-7.22221e-05
-1.43799e-05
-2.61251e-05
-3.84773e-06
4.13508e-06
5.75507e-07
2.13793e-05
1.47007e-06
2.81178e-05
7.64575e-07
2.51545e-05
1.21664e-05
-2.87837e-06
2.51936e-05
-8.8855e-06
5.56566e-05
-1.65459e-05
7.26441e-05
-2.49757e-05
8.16658e-05
-3.39093e-05
8.65889e-05
-4.32638e-05
8.98389e-05
-5.32713e-05
9.29838e-05
-6.42858e-05
9.71794e-05
-7.69383e-05
0.000103548
-9.19866e-05
0.000113213
-0.000110317
0.000127218
-0.000132665
0.000146178
-0.000159422
0.000169981
-0.000190314
0.000197471
-0.000224284
0.00022643
-0.000259488
0.000253802
-0.000293617
0.000276313
-0.000324339
0.000291186
-0.000349826
0.000296822
-0.000369077
0.000293033
-0.000382029
0.00028091
-0.000389399
0.000262337
-0.000392418
0.000239471
-0.000392494
0.000214266
-0.000390957
0.000188231
-0.000388873
0.000162326
-0.000386981
0.00013703
-0.000385696
0.00011246
-0.000385175
8.8519e-05
-0.000385394
6.50129e-05
-0.00038623
4.17426e-05
-0.000387526
1.85438e-05
-0.000389149
-4.68442e-06
-0.000391021
-2.79966e-05
-0.000393144
-5.14029e-05
-0.000395615
-7.49148e-05
-0.000398637
-9.85527e-05
-0.000402502
-0.00012241
-0.000407578
-0.000146652
-0.000414237
-0.000171588
-0.000422753
-0.000197623
-0.000433116
-0.000225285
-0.000444776
-0.000255028
-0.000456334
-0.000287077
-0.000465265
-0.000320949
-0.000467796
-0.000355032
-0.000459189
-0.000385979
-0.000434578
-0.000408502
-0.000390549
-0.000415612
-0.000327249
-0.000400038
-0.000250329
-0.000356971
-0.00017109
-0.000287836
-0.000102866
-0.000203357
-5.40465e-05
-0.000121039
-2.42089e-05
-5.59626e-05
-8.18251e-06
-1.1891e-05
-9.10493e-07
1.41081e-05
1.20624e-06
2.59999e-05
8.26884e-07
2.55365e-05
1.29925e-05
-2.93815e-06
2.81199e-05
-9.0757e-06
6.18092e-05
-1.69203e-05
8.04691e-05
-2.55814e-05
9.03371e-05
-3.48074e-05
9.58004e-05
-4.45466e-05
9.95838e-05
-5.50882e-05
0.000103514
-6.68629e-05
0.000108957
-8.0585e-05
0.000117261
-9.70637e-05
0.000129693
-0.000117151
0.000147298
-0.000141402
0.000170428
-0.000169854
0.000198427
-0.00020173
0.000229345
-0.00023543
0.000260124
-0.000268689
0.000287059
-0.000299063
0.000306681
-0.000324457
0.000316578
-0.00034361
0.000315972
-0.000356277
0.000305698
-0.000363152
0.000287783
-0.000365555
0.00026474
-0.000365069
0.000238983
-0.000363186
0.000212382
-0.000361097
0.00018614
-0.000359582
0.000160811
-0.000359035
0.000136481
-0.000359526
0.00011295
-0.000360914
8.99063e-05
-0.00036294
6.70389e-05
-0.000365312
4.41143e-05
-0.000367755
2.09873e-05
-0.000370055
-2.38496e-06
-0.000372071
-2.59805e-05
-0.000373759
-4.97145e-05
-0.000375176
-7.34973e-05
-0.000376497
-9.72314e-05
-0.000378017
-0.000120891
-0.000380159
-0.00014451
-0.000383455
-0.000168292
-0.000388501
-0.000192578
-0.000395833
-0.000217953
-0.000405736
-0.000245125
-0.00041792
-0.000274894
-0.000431128
-0.00030774
-0.000442724
-0.000343436
-0.000448485
-0.000380217
-0.000442811
-0.000414173
-0.000419737
-0.000438685
-0.000374889
-0.000444886
-0.000308351
-0.000423513
-0.000227343
-0.000368845
-0.000146283
-0.00028442
-8.08848e-05
-0.000186434
-3.81687e-05
-9.86787e-05
-1.4519e-05
-3.554e-05
-3.20894e-06
2.7963e-06
6.9949e-07
2.20909e-05
8.56806e-07
2.53797e-05
1.38484e-05
-2.95069e-06
3.10648e-05
-9.14837e-06
6.80285e-05
-1.71051e-05
8.84128e-05
-2.59311e-05
9.91802e-05
-3.53882e-05
0.00010525
-4.54555e-05
0.000109664
-5.64745e-05
0.000114529
-6.89408e-05
0.000121434
-8.36242e-05
0.000131943
-0.000101334
0.000147411
-0.000122811
0.000168776
-0.000148348
0.000195972
-0.000177568
0.000227649
-0.000209205
0.000260988
-0.000241235
0.000292156
-0.000271198
0.000317027
-0.0002968
0.000332286
-0.000316441
0.000336223
-0.000329585
0.000329118
-0.000336752
0.000312869
-0.000339266
0.000290299
-0.000338821
0.000264299
-0.000337086
0.000237249
-0.000335394
0.000210692
-0.000334617
0.000185364
-0.000335157
0.000161351
-0.000337038
0.000138363
-0.000340029
0.000115941
-0.000343767
9.36452e-05
-0.000347852
7.11233e-05
-0.000351906
4.81685e-05
-0.000355612
2.46933e-05
-0.00035873
7.32322e-07
-0.000361098
-2.36129e-05
-0.000362643
-4.81698e-05
-0.000363379
-7.27615e-05
-0.000363424
-9.71865e-05
-0.000363009
-0.000121307
-0.0003625
-0.000145018
-0.000362418
-0.000168376
-0.000363438
-0.000191558
-0.000366347
-0.000215045
-0.000371945
-0.000239527
-0.000380789
-0.000266051
-0.000392841
-0.000295689
-0.000406926
-0.000329351
-0.000420234
-0.000366908
-0.000427971
-0.000406434
-0.000423631
-0.000443023
-0.000400164
-0.000468349
-0.00035252
-0.000471158
-0.000281342
-0.000440025
-0.000196477
-0.00036929
-0.000116276
-0.000266633
-5.76149e-05
-0.000157337
-2.35483e-05
-6.96021e-05
-6.69139e-06
-1.40642e-05
-1.95161e-07
1.55967e-05
8.16432e-07
2.43672e-05
1.46655e-05
-2.92371e-06
3.3976e-05
-9.10946e-06
7.42285e-05
-1.71007e-05
9.63838e-05
-2.60174e-05
0.000108106
-3.56338e-05
0.000114851
-4.59561e-05
0.000119991
-5.7368e-05
0.000125929
-7.04105e-05
0.000134478
-8.58713e-05
0.000147394
-0.000104503
0.000166043
-0.000126872
0.000191136
-0.000152953
0.000222052
-0.000181961
0.000256649
-0.000212228
0.000291252
-0.000241487
0.000321409
-0.000267328
0.000342865
-0.000287838
0.00035279
-0.000302064
0.000350447
-0.000310211
0.000337262
-0.00031345
0.000316105
-0.000313513
0.000290358
-0.000312208
0.000262992
-0.000311051
0.000236089
-0.000311044
0.000210684
-0.000312659
0.000186977
-0.000315912
0.000164603
-0.000320519
0.000142968
-0.000326036
0.000121458
-0.000331983
9.9591e-05
-0.000337906
7.7046e-05
-0.000343424
5.36865e-05
-0.000348235
2.95032e-05
-0.000352115
4.61248e-06
-0.000354914
-2.08145e-05