/*--------------------------------*- C++ -*----------------------------------*\
| =========                 |                                                 |
| \\      /  F ield         | OpenFOAM: The Open Source CFD Toolbox           |
|  \\    /   O peration     | Version:  2406                                  |
|   \\  /    A nd           | Website:  www.openfoam.com                      |
|    \\/     M anipulation  |                                                 |
\*---------------------------------------------------------------------------*/
FoamFile
{
    version     2.0;
    format      ascii;
    arch        "LSB;label=32;scalar=64";
    class       volVectorField;
    location    "1.25";
    object      U;
}
// * * * * * * * * * * * * * * * * * * * * * * * * * * * * * * * * * * * * * //

dimensions      [0 1 -1 0 0 0 0];

internalField   nonuniform List<vector> 
14400
(
(2.4173e-06 -2.41112e-06 0)
(2.15899e-06 4.17982e-07 0)
(-7.73476e-06 3.75476e-06 0)
(-2.5915e-05 6.64862e-06 0)
(-5.10536e-05 8.3026e-06 0)
(-7.98377e-05 9.29674e-06 0)
(-0.000111272 9.67965e-06 0)
(-0.000143499 9.83978e-06 0)
(-0.000176358 9.81502e-06 0)
(-0.000209087 9.76716e-06 0)
(-0.000241831 9.68319e-06 0)
(-0.000274298 9.61713e-06 0)
(-0.000306639 9.54543e-06 0)
(-0.000338723 9.48588e-06 0)
(-0.000370641 9.42226e-06 0)
(-0.000402316 9.36208e-06 0)
(-0.000433791 9.29677e-06 0)
(-0.000465017 9.23029e-06 0)
(-0.000496007 9.15843e-06 0)
(-0.000526727 9.08336e-06 0)
(-0.000557176 9.00299e-06 0)
(-0.000587326 8.91849e-06 0)
(-0.000617169 8.82879e-06 0)
(-0.000646683 8.73449e-06 0)
(-0.000675855 8.63502e-06 0)
(-0.000704664 8.53067e-06 0)
(-0.000733095 8.42115e-06 0)
(-0.00076113 8.30659e-06 0)
(-0.000788752 8.18681e-06 0)
(-0.000815942 8.06187e-06 0)
(-0.000842684 7.93165e-06 0)
(-0.000868959 7.79618e-06 0)
(-0.000894749 7.65538e-06 0)
(-0.000920037 7.50923e-06 0)
(-0.000944805 7.3577e-06 0)
(-0.000969035 7.20075e-06 0)
(-0.000992708 7.03836e-06 0)
(-0.00101581 6.87049e-06 0)
(-0.00103831 6.69713e-06 0)
(-0.00106021 6.51824e-06 0)
(-0.00108148 6.33382e-06 0)
(-0.0011021 6.14383e-06 0)
(-0.00112205 5.94827e-06 0)
(-0.00114132 5.74712e-06 0)
(-0.00115989 5.54038e-06 0)
(-0.00117775 5.32804e-06 0)
(-0.00119486 5.11011e-06 0)
(-0.00121122 4.88659e-06 0)
(-0.0012268 4.6575e-06 0)
(-0.0012416 4.42285e-06 0)
(-0.00125559 4.18267e-06 0)
(-0.00126875 3.937e-06 0)
(-0.00128107 3.68588e-06 0)
(-0.00129252 3.42934e-06 0)
(-0.0013031 3.16745e-06 0)
(-0.00131279 2.90028e-06 0)
(-0.00132157 2.6279e-06 0)
(-0.00132942 2.3504e-06 0)
(-0.00133633 2.06787e-06 0)
(-0.00134229 1.78042e-06 0)
(-0.00134727 1.48817e-06 0)
(-0.00135127 1.19125e-06 0)
(-0.00135426 8.8981e-07 0)
(-0.00135625 5.84e-07 0)
(-0.00135721 2.73995e-07 0)
(-0.00135713 -4.00223e-08 0)
(-0.001356 -3.57851e-07 0)
(-0.00135381 -6.79277e-07 0)
(-0.00135054 -1.00407e-06 0)
(-0.0013462 -1.33199e-06 0)
(-0.00134077 -1.66278e-06 0)
(-0.00133425 -1.99615e-06 0)
(-0.00132662 -2.33182e-06 0)
(-0.00131788 -2.66948e-06 0)
(-0.00130803 -3.0088e-06 0)
(-0.00129706 -3.34946e-06 0)
(-0.00128497 -3.69108e-06 0)
(-0.00127176 -4.03332e-06 0)
(-0.00125743 -4.37577e-06 0)
(-0.00124198 -4.71804e-06 0)
(-0.00122541 -5.05972e-06 0)
(-0.00120773 -5.40038e-06 0)
(-0.00118894 -5.73958e-06 0)
(-0.00116904 -6.07687e-06 0)
(-0.00114805 -6.41179e-06 0)
(-0.00112598 -6.74386e-06 0)
(-0.00110283 -7.07262e-06 0)
(-0.00107862 -7.39755e-06 0)
(-0.00105337 -7.71818e-06 0)
(-0.00102708 -8.03399e-06 0)
(-0.000999772 -8.34451e-06 0)
(-0.00097147 -8.64918e-06 0)
(-0.000942192 -8.94757e-06 0)
(-0.00091196 -9.23907e-06 0)
(-0.000880795 -9.52333e-06 0)
(-0.000848725 -9.79965e-06 0)
(-0.000815774 -1.00678e-05 0)
(-0.000781973 -1.0327e-05 0)
(-0.000747347 -1.05773e-05 0)
(-0.000711932 -1.08176e-05 0)
(-0.000675752 -1.10484e-05 0)
(-0.000638852 -1.12681e-05 0)
(-0.000601249 -1.14784e-05 0)
(-0.000563 -1.16765e-05 0)
(-0.000524109 -1.18667e-05 0)
(-0.000484653 -1.20437e-05 0)
(-0.000444604 -1.22171e-05 0)
(-0.000404079 -1.23767e-05 0)
(-0.000362991 -1.25407e-05 0)
(-0.000321539 -1.26858e-05 0)
(-0.000279563 -1.2839e-05 0)
(-0.000237472 -1.29336e-05 0)
(-0.000195096 -1.2989e-05 0)
(-0.000153415 -1.28152e-05 0)
(-0.000112552 -1.23838e-05 0)
(-7.47837e-05 -1.12354e-05 0)
(-4.11005e-05 -9.32325e-06 0)
(-1.57103e-05 -5.8717e-06 0)
(-2.57494e-07 -1.69708e-06 0)
(2.42324e-06 2.42656e-06 0)
(-4.10539e-07 -2.16214e-06 0)
(-1.38793e-05 1.38575e-05 0)
(-4.78811e-05 3.09463e-05 0)
(-9.83081e-05 4.59319e-05 0)
(-0.000163487 5.58584e-05 0)
(-0.000237302 6.22971e-05 0)
(-0.000317595 6.56304e-05 0)
(-0.00040062 6.73177e-05 0)
(-0.000485536 6.7833e-05 0)
(-0.000570695 6.78799e-05 0)
(-0.000656038 6.76134e-05 0)
(-0.00074093 6.72753e-05 0)
(-0.000825502 6.68657e-05 0)
(-0.000909489 6.64523e-05 0)
(-0.00099299 6.60074e-05 0)
(-0.00107586 6.55505e-05 0)
(-0.00115815 6.5062e-05 0)
(-0.00123975 6.45495e-05 0)
(-0.00132068 6.40028e-05 0)
(-0.00140084 6.34257e-05 0)
(-0.00148023 6.2813e-05 0)
(-0.00155879 6.21667e-05 0)
(-0.00163647 6.14843e-05 0)
(-0.00171322 6.07669e-05 0)
(-0.00178901 6.0013e-05 0)
(-0.00186379 5.92233e-05 0)
(-0.0019375 5.8397e-05 0)
(-0.00201011 5.75342e-05 0)
(-0.00208156 5.66347e-05 0)
(-0.00215181 5.56986e-05 0)
(-0.00222082 5.47255e-05 0)
(-0.00228853 5.37155e-05 0)
(-0.0023549 5.26686e-05 0)
(-0.00241989 5.15846e-05 0)
(-0.00248344 5.04635e-05 0)
(-0.00254552 4.93054e-05 0)
(-0.00260607 4.81102e-05 0)
(-0.00266505 4.68779e-05 0)
(-0.00272241 4.56085e-05 0)
(-0.00277811 4.43021e-05 0)
(-0.00283211 4.29587e-05 0)
(-0.00288435 4.15785e-05 0)
(-0.00293479 4.01614e-05 0)
(-0.0029834 3.87077e-05 0)
(-0.00303011 3.72175e-05 0)
(-0.0030749 3.5691e-05 0)
(-0.00311772 3.41283e-05 0)
(-0.00315852 3.25298e-05 0)
(-0.00319725 3.08957e-05 0)
(-0.00323389 2.92263e-05 0)
(-0.00326839 2.7522e-05 0)
(-0.0033007 2.57832e-05 0)
(-0.00333079 2.40103e-05 0)
(-0.00335861 2.22038e-05 0)
(-0.00338414 2.03644e-05 0)
(-0.00340732 1.84925e-05 0)
(-0.00342812 1.65888e-05 0)
(-0.00344651 1.46542e-05 0)
(-0.00346246 1.26893e-05 0)
(-0.00347592 1.0695e-05 0)
(-0.00348686 8.67226e-06 0)
(-0.00349526 6.62205e-06 0)
(-0.00350108 4.54546e-06 0)
(-0.0035043 2.44362e-06 0)
(-0.00350488 3.17764e-07 0)
(-0.0035028 -1.83079e-06 0)
(-0.00349804 -4.00066e-06 0)
(-0.00349057 -6.19036e-06 0)
(-0.00348038 -8.39832e-06 0)
(-0.00346745 -1.06229e-05 0)
(-0.00345176 -1.28623e-05 0)
(-0.00343329 -1.51147e-05 0)
(-0.00341204 -1.73783e-05 0)
(-0.00338799 -1.96508e-05 0)
(-0.00336115 -2.19304e-05 0)
(-0.0033315 -2.42147e-05 0)
(-0.00329904 -2.65015e-05 0)
(-0.00326377 -2.87883e-05 0)
(-0.00322571 -3.10728e-05 0)
(-0.00318485 -3.33524e-05 0)
(-0.00314121 -3.56245e-05 0)
(-0.0030948 -3.78863e-05 0)
(-0.00304563 -4.01351e-05 0)
(-0.00299373 -4.2368e-05 0)
(-0.00293912 -4.45823e-05 0)
(-0.00288183 -4.67748e-05 0)
(-0.00282188 -4.89427e-05 0)
(-0.00275932 -5.10828e-05 0)
(-0.00269417 -5.31922e-05 0)
(-0.00262649 -5.52676e-05 0)
(-0.00255631 -5.7306e-05 0)
(-0.00248368 -5.93043e-05 0)
(-0.00240865 -6.12594e-05 0)
(-0.00233128 -6.3168e-05 0)
(-0.00225164 -6.50274e-05 0)
(-0.00216977 -6.68341e-05 0)
(-0.00208575 -6.85857e-05 0)
(-0.00199965 -7.02787e-05 0)
(-0.00191154 -7.19112e-05 0)
(-0.0018215 -7.34793e-05 0)
(-0.0017296 -7.49828e-05 0)
(-0.00163593 -7.64166e-05 0)
(-0.00154056 -7.77834e-05 0)
(-0.00144361 -7.90761e-05 0)
(-0.00134511 -8.03036e-05 0)
(-0.00124522 -8.14536e-05 0)
(-0.00114393 -8.2545e-05 0)
(-0.00104147 -8.35499e-05 0)
(-0.000937774 -8.4495e-05 0)
(-0.000833221 -8.5293e-05 0)
(-0.000727708 -8.59386e-05 0)
(-0.000622082 -8.61439e-05 0)
(-0.000516427 -8.57401e-05 0)
(-0.000412795 -8.39202e-05 0)
(-0.000312066 -8.01762e-05 0)
(-0.000218777 -7.28034e-05 0)
(-0.000135207 -6.13191e-05 0)
(-6.90496e-05 -4.35427e-05 0)
(-2.22858e-05 -2.23501e-05 0)
(-1.68336e-06 -2.48373e-07 0)
(-3.78644e-06 7.78321e-06 0)
(-3.11813e-05 4.79364e-05 0)
(-8.83804e-05 8.79827e-05 0)
(-0.00016669 0.000122308 0)
(-0.000264581 0.000146288 0)
(-0.000373835 0.000162112 0)
(-0.00049194 0.000170978 0)
(-0.000613984 0.00017562 0)
(-0.000738801 0.000177405 0)
(-0.000864172 0.000177784 0)
(-0.000989886 0.000177321 0)
(-0.00111507 0.000176527 0)
(-0.0012398 0.000175518 0)
(-0.0013637 0.000174428 0)
(-0.00148687 0.000173245 0)
(-0.0016091 0.000171999 0)
(-0.00173043 0.000170669 0)
(-0.00185071 0.000169261 0)
(-0.00196993 0.000167763 0)
(-0.00208799 0.000166177 0)
(-0.00220485 0.000164497 0)
(-0.00232042 0.000162724 0)
(-0.00243464 0.000160855 0)
(-0.00254744 0.000158892 0)
(-0.00265875 0.000156831 0)
(-0.0027685 0.000154675 0)
(-0.00287661 0.000152422 0)
(-0.00298303 0.000150072 0)
(-0.00308769 0.000147625 0)
(-0.0031905 0.000145081 0)
(-0.00329141 0.00014244 0)
(-0.00339035 0.000139703 0)
(-0.00348724 0.000136869 0)
(-0.00358203 0.000133939 0)
(-0.00367463 0.000130912 0)
(-0.00376499 0.00012779 0)
(-0.00385304 0.000124571 0)
(-0.00393872 0.000121258 0)
(-0.00402195 0.000117849 0)
(-0.00410267 0.000114345 0)
(-0.00418081 0.000110747 0)
(-0.00425632 0.000107055 0)
(-0.00432913 0.00010327 0)
(-0.00439917 9.93921e-05 0)
(-0.00446639 9.54224e-05 0)
(-0.00453071 9.13615e-05 0)
(-0.00459209 8.72102e-05 0)
(-0.00465046 8.29694e-05 0)
(-0.00470576 7.86402e-05 0)
(-0.00475793 7.42235e-05 0)
(-0.00480692 6.97205e-05 0)
(-0.00485266 6.51327e-05 0)
(-0.00489511 6.04613e-05 0)
(-0.00493422 5.57079e-05 0)
(-0.00496992 5.08742e-05 0)
(-0.00500217 4.59618e-05 0)
(-0.00503091 4.09728e-05 0)
(-0.0050561 3.59092e-05 0)
(-0.0050777 3.07732e-05 0)
(-0.00509565 2.55672e-05 0)
(-0.00510992 2.02937e-05 0)
(-0.00512047 1.49554e-05 0)
(-0.00512724 9.55529e-06 0)
(-0.00513022 4.09633e-06 0)
(-0.00512935 -1.41819e-06 0)
(-0.00512462 -6.98481e-06 0)
(-0.00511599 -1.25999e-05 0)
(-0.00510343 -1.82596e-05 0)
(-0.00508693 -2.39598e-05 0)
(-0.00506645 -2.96963e-05 0)
(-0.00504198 -3.54646e-05 0)
(-0.0050135 -4.12601e-05 0)
(-0.00498101 -4.70778e-05 0)
(-0.00494449 -5.29125e-05 0)
(-0.00490394 -5.87591e-05 0)
(-0.00485936 -6.46119e-05 0)
(-0.00481075 -7.04653e-05 0)
(-0.00475811 -7.63132e-05 0)
(-0.00470147 -8.21496e-05 0)
(-0.00464082 -8.79681e-05 0)
(-0.00457619 -9.37622e-05 0)
(-0.0045076 -9.95252e-05 0)
(-0.00443509 -0.00010525 0)
(-0.00435867 -0.000110931 0)
(-0.0042784 -0.000116559 0)
(-0.0041943 -0.000122128 0)
(-0.00410644 -0.00012763 0)
(-0.00401485 -0.000133058 0)
(-0.00391959 -0.000138405 0)
(-0.00382073 -0.000143662 0)
(-0.00371833 -0.000148822 0)
(-0.00361246 -0.000153879 0)
(-0.00350319 -0.000158823 0)
(-0.00339062 -0.000163647 0)
(-0.00327482 -0.000168345 0)
(-0.00315588 -0.000172907 0)
(-0.0030339 -0.000177329 0)
(-0.00290897 -0.000181602 0)
(-0.00278121 -0.00018572 0)
(-0.00265072 -0.000189675 0)
(-0.00251761 -0.000193464 0)
(-0.00238201 -0.000197079 0)
(-0.00224401 -0.00020052 0)
(-0.00210377 -0.000203777 0)
(-0.00196137 -0.000206858 0)
(-0.00181701 -0.000209747 0)
(-0.00167071 -0.00021246 0)
(-0.00152278 -0.000214954 0)
(-0.00137317 -0.000217225 0)
(-0.00122241 -0.000219107 0)
(-0.00107047 -0.000220451 0)
(-0.000918477 -0.00022066 0)
(-0.0007667 -0.000219098 0)
(-0.000617858 -0.000214126 0)
(-0.00047319 -0.000204226 0)
(-0.000338583 -0.000186233 0)
(-0.000216677 -0.0001586 0)
(-0.000117631 -0.000118161 0)
(-4.31856e-05 -6.90144e-05 0)
(-5.78806e-06 -1.55848e-05 0)
(-6.74884e-06 2.61763e-05 0)
(-4.65396e-05 9.87635e-05 0)
(-0.00012355 0.000166513 0)
(-0.000224263 0.000222757 0)
(-0.000347395 0.000262708 0)
(-0.000483065 0.000289259 0)
(-0.000628945 0.000304683 0)
(-0.000779375 0.000312959 0)
(-0.00093318 0.000316444 0)
(-0.00108775 0.000317367 0)
(-0.00124282 0.000316772 0)
(-0.00139733 0.000315476 0)
(-0.00155132 0.000313748 0)
(-0.00170432 0.000311807 0)
(-0.00185641 0.000309676 0)
(-0.00200733 0.0003074 0)
(-0.00215709 0.000304962 0)
(-0.00230553 0.000302371 0)
(-0.00245262 0.000299612 0)
(-0.00259824 0.00029669 0)
(-0.00274232 0.000293596 0)
(-0.00288475 0.000290332 0)
(-0.00302547 0.000286893 0)
(-0.00316437 0.000283282 0)
(-0.00330139 0.000279496 0)
(-0.00343641 0.000275537 0)
(-0.00356937 0.000271403 0)
(-0.00370017 0.000267095 0)
(-0.00382873 0.000262613 0)
(-0.00395496 0.000257958 0)
(-0.00407877 0.000253129 0)
(-0.00420009 0.000248128 0)
(-0.00431883 0.000242956 0)
(-0.00443491 0.000237611 0)
(-0.00454824 0.000232096 0)
(-0.00465874 0.000226412 0)
(-0.00476634 0.000220558 0)
(-0.00487094 0.000214536 0)
(-0.00497247 0.000208346 0)
(-0.00507086 0.000201991 0)
(-0.00516601 0.00019547 0)
(-0.00525787 0.000188786 0)
(-0.00534634 0.000181939 0)
(-0.00543136 0.000174931 0)
(-0.00551284 0.000167764 0)
(-0.00559072 0.000160439 0)
(-0.00566493 0.000152957 0)
(-0.00573539 0.000145322 0)
(-0.00580204 0.000137535 0)
(-0.00586479 0.000129598 0)
(-0.0059236 0.000121513 0)
(-0.00597839 0.000113284 0)
(-0.0060291 0.000104913 0)
(-0.00607566 9.64027e-05 0)
(-0.00611802 8.77566e-05 0)
(-0.00615612 7.89782e-05 0)
(-0.0061899 7.0071e-05 0)
(-0.0062193 6.10388e-05 0)
(-0.00624427 5.18858e-05 0)
(-0.00626476 4.26165e-05 0)
(-0.00628073 3.32354e-05 0)
(-0.00629212 2.37475e-05 0)
(-0.00629889 1.4158e-05 0)
(-0.00630101 4.4725e-06 0)
(-0.00629843 -5.30315e-06 0)
(-0.00629113 -1.51628e-05 0)
(-0.00627906 -2.51e-05 0)
(-0.0062622 -3.51078e-05 0)
(-0.00624052 -4.51791e-05 0)
(-0.00621401 -5.53064e-05 0)
(-0.00618264 -6.54819e-05 0)
(-0.0061464 -7.56973e-05 0)
(-0.00610528 -8.59441e-05 0)
(-0.00605927 -9.62133e-05 0)
(-0.00600838 -0.000106496 0)
(-0.0059526 -0.000116782 0)
(-0.00589194 -0.000127062 0)
(-0.00582641 -0.000137325 0)
(-0.00575602 -0.000147562 0)
(-0.00568081 -0.00015776 0)
(-0.00560079 -0.000167909 0)
(-0.005516 -0.000177998 0)
(-0.00542647 -0.000188014 0)
(-0.00533225 -0.000197947 0)
(-0.00523338 -0.000207782 0)
(-0.00512991 -0.000217509 0)
(-0.0050219 -0.000227115 0)
(-0.00490942 -0.000236587 0)
(-0.00479254 -0.000245912 0)
(-0.00467133 -0.000255077 0)
(-0.00454587 -0.00026407 0)
(-0.00441626 -0.000272877 0)
(-0.00428257 -0.000281485 0)
(-0.00414492 -0.000289883 0)
(-0.0040034 -0.000298056 0)
(-0.00385812 -0.000305994 0)
(-0.00370921 -0.000313682 0)
(-0.00355678 -0.00032111 0)
(-0.00340094 -0.000328267 0)
(-0.00324186 -0.00033514 0)
(-0.00307963 -0.000341722 0)
(-0.00291443 -0.000347999 0)
(-0.00274637 -0.00035397 0)
(-0.00257564 -0.00035962 0)
(-0.00240233 -0.000364953 0)
(-0.00222669 -0.000369948 0)
(-0.00204877 -0.00037461 0)
(-0.00186892 -0.00037887 0)
(-0.00168715 -0.000382682 0)
(-0.00150407 -0.000385771 0)
(-0.00131969 -0.000387809 0)
(-0.00113539 -0.000387847 0)
(-0.000951484 -0.000384708 0)
(-0.000771131 -0.000375884 0)
(-0.000595578 -0.00035874 0)
(-0.000431557 -0.000328701 0)
(-0.00028147 -0.000282867 0)
(-0.000157341 -0.000217019 0)
(-6.05847e-05 -0.000134743 0)
(-9.14727e-06 -4.06442e-05 0)
(-8.49547e-06 5.17624e-05 0)
(-5.69733e-05 0.00016482 0)
(-0.000148702 0.000265212 0)
(-0.000266119 0.000346227 0)
(-0.000407935 0.000404078 0)
(-0.000562752 0.000442561 0)
(-0.000728473 0.000465386 0)
(-0.00089888 0.000477798 0)
(-0.00107294 0.00048329 0)
(-0.00124779 0.000484888 0)
(-0.00142321 0.000484184 0)
(-0.00159801 0.000482321 0)
(-0.00177224 0.000479753 0)
(-0.00194537 0.000476794 0)
(-0.00211745 0.000473515 0)
(-0.0022882 0.000469982 0)
(-0.00245762 0.000466186 0)
(-0.00262551 0.000462141 0)
(-0.00279185 0.000457833 0)
(-0.00295648 0.000453265 0)
(-0.00311933 0.00044843 0)
(-0.00328028 0.000443329 0)
(-0.00343924 0.00043796 0)
(-0.00359611 0.000432322 0)
(-0.00375078 0.000426416 0)
(-0.00390317 0.000420242 0)
(-0.00405317 0.000413799 0)
(-0.00420068 0.00040709 0)
(-0.0043456 0.000400114 0)
(-0.00448785 0.000392872 0)
(-0.00462731 0.000385366 0)
(-0.00476391 0.000377597 0)
(-0.00489753 0.000369565 0)
(-0.0050281 0.000361273 0)
(-0.00515551 0.000352721 0)
(-0.00527968 0.000343912 0)
(-0.00540051 0.000334847 0)
(-0.00551791 0.000325527 0)
(-0.0056318 0.000315955 0)
(-0.00574209 0.000306132 0)
(-0.00584868 0.000296062 0)
(-0.0059515 0.000285745 0)
(-0.00605046 0.000275185 0)
(-0.00614548 0.000264384 0)
(-0.00623647 0.000253344 0)
(-0.00632336 0.00024207 0)
(-0.00640606 0.000230563 0)
(-0.0064845 0.000218827 0)
(-0.0065586 0.000206866 0)
(-0.00662828 0.000194683 0)
(-0.00669348 0.000182283 0)
(-0.00675413 0.000169669 0)
(-0.00681014 0.000156847 0)
(-0.00686146 0.000143821 0)
(-0.00690803 0.000130595 0)
(-0.00694977 0.000117177 0)
(-0.00698663 0.000103571 0)
(-0.00701854 8.97829e-05 0)
(-0.00704546 7.58202e-05 0)
(-0.00706732 6.16893e-05 0)
(-0.00708408 4.73975e-05 0)
(-0.0070957 3.29524e-05 0)
(-0.00710211 1.83622e-05 0)
(-0.00710329 3.63537e-06 0)
(-0.00709918 -1.12191e-05 0)
(-0.00708977 -2.61919e-05 0)
(-0.00707501 -4.12729e-05 0)
(-0.00705487 -5.6452e-05 0)
(-0.00702934 -7.17182e-05 0)
(-0.00699839 -8.70601e-05 0)
(-0.00696199 -0.000102466 0)
(-0.00692015 -0.000117924 0)
(-0.00687285 -0.00013342 0)
(-0.00682009 -0.000148942 0)
(-0.00676187 -0.000164475 0)
(-0.00669819 -0.000180006 0)
(-0.00662907 -0.000195519 0)
(-0.00655452 -0.000210999 0)
(-0.00647456 -0.000226431 0)
(-0.00638922 -0.000241799 0)
(-0.00629853 -0.000257085 0)
(-0.00620252 -0.000272273 0)
(-0.00610125 -0.000287346 0)
(-0.00599475 -0.000302286 0)
(-0.00588309 -0.000317074 0)
(-0.00576632 -0.000331694 0)
(-0.00564451 -0.000346125 0)
(-0.00551774 -0.00036035 0)
(-0.00538608 -0.000374349 0)
(-0.00524962 -0.000388105 0)
(-0.00510845 -0.000401597 0)
(-0.00496267 -0.000414806 0)
(-0.00481238 -0.000427715 0)
(-0.00465769 -0.000440303 0)
(-0.00449872 -0.000452552 0)
(-0.0043356 -0.000464445 0)
(-0.00416844 -0.000475962 0)
(-0.00399739 -0.000487087 0)
(-0.00382258 -0.000497803 0)
(-0.00364417 -0.000508092 0)
(-0.00346229 -0.000517942 0)
(-0.00327713 -0.000527335 0)
(-0.0030888 -0.000536264 0)
(-0.00289752 -0.000544709 0)
(-0.00270341 -0.000552668 0)
(-0.00250673 -0.000560112 0)
(-0.00230754 -0.00056703 0)
(-0.00210626 -0.000573323 0)
(-0.00190287 -0.000578884 0)
(-0.00169809 -0.000583323 0)
(-0.00149192 -0.00058609 0)
(-0.00128588 -0.000585869 0)
(-0.00108022 -0.00058086 0)
(-0.000878391 -0.000567668 0)
(-0.000681482 -0.000542384 0)
(-0.000496836 -0.000498995 0)
(-0.000326584 -0.000432858 0)
(-0.000184417 -0.000338465 0)
(-7.17495e-05 -0.000217589 0)
(-1.09734e-05 -7.37804e-05 0)
(-9.58521e-06 8.12795e-05 0)
(-6.39662e-05 0.000240122 0)
(-0.000165851 0.000376074 0)
(-0.000294883 0.000483134 0)
(-0.000449623 0.000559391 0)
(-0.000617501 0.000609936 0)
(-0.00079661 0.00064021 0)
(-0.000980336 0.000656771 0)
(-0.00116782 0.000664288 0)
(-0.00135604 0.000666563 0)
(-0.00154487 0.00066574 0)
(-0.00173301 0.000663271 0)
(-0.00192056 0.000659803 0)
(-0.00210691 0.000655741 0)
(-0.00229214 0.000651209 0)
(-0.00247593 0.000646297 0)
(-0.00265827 0.000641006 0)
(-0.00283895 0.000635355 0)
(-0.00301793 0.000629334 0)
(-0.00319504 0.000622946 0)
(-0.00337021 0.000616186 0)
(-0.00354331 0.000609055 0)
(-0.00371423 0.00060155 0)
(-0.00388287 0.000593674 0)
(-0.00404912 0.000585425 0)
(-0.00421286 0.000576805 0)
(-0.004374 0.000567815 0)
(-0.00453243 0.000558456 0)
(-0.00468804 0.00054873 0)
(-0.00484072 0.000538639 0)
(-0.00499039 0.000528184 0)
(-0.00513692 0.000517368 0)
(-0.00528023 0.000506192 0)
(-0.00542021 0.000494659 0)
(-0.00555676 0.000482772 0)
(-0.00568978 0.000470532 0)
(-0.00581918 0.000457944 0)
(-0.00594486 0.000445009 0)
(-0.00606673 0.00043173 0)
(-0.00618469 0.000418111 0)
(-0.00629865 0.000404155 0)
(-0.00640852 0.000389866 0)
(-0.00651421 0.000375247 0)
(-0.00661563 0.000360303 0)
(-0.0067127 0.000345037 0)
(-0.00680533 0.000329454 0)
(-0.00689344 0.000313559 0)
(-0.00697694 0.000297356 0)
(-0.00705576 0.000280851 0)
(-0.00712982 0.000264049 0)
(-0.00719903 0.000246956 0)
(-0.00726334 0.000229578 0)
(-0.00732266 0.000211922 0)
(-0.00737692 0.000193995 0)
(-0.00742606 0.000175804 0)
(-0.00747001 0.000157357 0)
(-0.00750871 0.000138661 0)
(-0.0075421 0.000119726 0)
(-0.00757012 0.00010056 0)
(-0.00759272 8.11735e-05 0)
(-0.00760983 6.15762e-05 0)
(-0.00762142 4.17788e-05 0)
(-0.00762744 2.17925e-05 0)
(-0.00762784 1.62889e-06 0)
(-0.00762259 -1.86995e-05 0)
(-0.00761165 -3.91799e-05 0)
(-0.00759499 -5.97986e-05 0)
(-0.00757257 -8.05416e-05 0)
(-0.00754438 -0.000101394 0)
(-0.00751039 -0.00012234 0)
(-0.0074706 -0.000143365 0)
(-0.00742498 -0.00016445 0)
(-0.00737353 -0.000185579 0)
(-0.00731625 -0.000206734 0)
(-0.00725315 -0.000227896 0)
(-0.00718422 -0.000249046 0)
(-0.00710949 -0.000270163 0)
(-0.00702897 -0.000291228 0)
(-0.00694269 -0.000312219 0)
(-0.00685068 -0.000333115 0)
(-0.00675296 -0.000353893 0)
(-0.00664959 -0.00037453 0)
(-0.00654061 -0.000395004 0)
(-0.00642608 -0.00041529 0)
(-0.00630605 -0.000435365 0)
(-0.00618059 -0.000455204 0)
(-0.00604977 -0.000474782 0)
(-0.00591367 -0.000494075 0)
(-0.00577238 -0.000513057 0)
(-0.00562599 -0.000531704 0)
(-0.0054746 -0.000549988 0)
(-0.00531831 -0.000567886 0)
(-0.00515723 -0.000585372 0)
(-0.00499149 -0.000602421 0)
(-0.0048212 -0.000619008 0)
(-0.00464649 -0.000635108 0)
(-0.00446751 -0.000650698 0)
(-0.00428441 -0.000665754 0)
(-0.00409731 -0.000680253 0)
(-0.00390639 -0.000694173 0)
(-0.00371179 -0.000707496 0)
(-0.00351371 -0.000720197 0)
(-0.00331228 -0.000732265 0)
(-0.00310774 -0.000743673 0)
(-0.00290018 -0.000754413 0)
(-0.00268992 -0.000764444 0)
(-0.00247702 -0.000773737 0)
(-0.00226191 -0.000782161 0)
(-0.0020446 -0.000789544 0)
(-0.00182585 -0.000795382 0)
(-0.00160563 -0.000798902 0)
(-0.00138555 -0.00079843 0)
(-0.00116578 -0.000791547 0)
(-0.000949952 -0.000773995 0)
(-0.000738955 -0.000740547 0)
(-0.000540566 -0.000683704 0)
(-0.000356705 -0.000596778 0)
(-0.000202321 -0.000472528 0)
(-7.90002e-05 -0.000309994 0)
(-1.20722e-05 -0.000110843 0)
(-1.0061e-05 0.000113731 0)
(-6.78682e-05 0.000322546 0)
(-0.000176117 0.000496657 0)
(-0.000312701 0.000631248 0)
(-0.000475981 0.000726661 0)
(-0.000652488 0.000789604 0)
(-0.000840397 0.000827466 0)
(-0.00103278 0.000848215 0)
(-0.00122892 0.000857763 0)
(-0.00142568 0.000860696 0)
(-0.00162303 0.000859721 0)
(-0.00181962 0.000856599 0)
(-0.00201558 0.000852168 0)
(-0.0022103 0.000846927 0)
(-0.00240382 0.000841052 0)
(-0.00259584 0.000834656 0)
(-0.00278633 0.000827756 0)
(-0.00297507 0.000820373 0)
(-0.00316202 0.000812503 0)
(-0.00334701 0.000804151 0)
(-0.00352995 0.000795311 0)
(-0.0037107 0.000785987 0)
(-0.00388916 0.000776177 0)
(-0.00406521 0.000765883 0)
(-0.00423874 0.000755105 0)
(-0.00440963 0.000743847 0)
(-0.00457778 0.000732108 0)
(-0.00474307 0.000719893 0)
(-0.00490539 0.000707203 0)
(-0.00506464 0.000694041 0)
(-0.00522071 0.000680409 0)
(-0.00537348 0.000666312 0)
(-0.00552286 0.000651751 0)
(-0.00566874 0.000636731 0)
(-0.00581102 0.000621255 0)
(-0.00594959 0.000605327 0)
(-0.00608435 0.00058895 0)
(-0.00621521 0.00057213 0)
(-0.00634206 0.000554869 0)
(-0.00646482 0.000537174 0)
(-0.00658338 0.000519047 0)
(-0.00669765 0.000500495 0)
(-0.00680753 0.000481523 0)
(-0.00691295 0.000462136 0)
(-0.0070138 0.00044234 0)
(-0.00711 0.000422141 0)
(-0.00720147 0.000401545 0)
(-0.00728811 0.000380559 0)
(-0.00736986 0.000359191 0)
(-0.00744662 0.000337446 0)
(-0.00751833 0.000315335 0)
(-0.00758489 0.000292864 0)
(-0.00764625 0.000270042 0)
(-0.00770233 0.000246879 0)
(-0.00775305 0.000223384 0)
(-0.00779836 0.000199567 0)
(-0.00783819 0.00017544 0)
(-0.00787247 0.000151013 0)
(-0.00790115 0.000126298 0)
(-0.00792418 0.000101308 0)
(-0.00794149 7.60559e-05 0)
(-0.00795304 5.05555e-05 0)
(-0.00795878 2.48214e-05 0)
(-0.00795868 -1.13139e-06 0)
(-0.00795268 -2.72868e-05 0)
(-0.00794076 -5.36283e-05 0)
(-0.00792289 -8.01384e-05 0)
(-0.00789902 -0.000106799 0)
(-0.00786915 -0.000133591 0)
(-0.00783325 -0.000160495 0)
(-0.0077913 -0.000187489 0)
(-0.00774331 -0.000214554 0)
(-0.00768925 -0.000241666 0)
(-0.00762913 -0.000268803 0)
(-0.00756295 -0.00029594 0)
(-0.00749073 -0.000323054 0)
(-0.00741248 -0.000350118 0)
(-0.00732821 -0.000377108 0)
(-0.00723796 -0.000403995 0)
(-0.00714176 -0.000430753 0)
(-0.00703964 -0.000457353 0)
(-0.00693165 -0.000483767 0)
(-0.00681784 -0.000509964 0)
(-0.00669826 -0.000535916 0)
(-0.00657298 -0.000561592 0)
(-0.00644207 -0.00058696 0)
(-0.0063056 -0.00061199 0)
(-0.00616365 -0.000636649 0)
(-0.00601632 -0.000660907 0)
(-0.0058637 -0.000684731 0)
(-0.00570589 -0.00070809 0)
(-0.005543 -0.00073095 0)
(-0.00537515 -0.000753281 0)
(-0.00520247 -0.00077505 0)
(-0.00502507 -0.000796226 0)
(-0.0048431 -0.000816778 0)
(-0.00465669 -0.000836676 0)
(-0.00446601 -0.000855889 0)
(-0.00427119 -0.00087439 0)
(-0.00407241 -0.00089215 0)
(-0.00386983 -0.000909143 0)
(-0.00366363 -0.000925341 0)
(-0.00345397 -0.000940724 0)
(-0.00324108 -0.000955262 0)
(-0.00302508 -0.000968934 0)
(-0.00280628 -0.000981691 0)
(-0.00258475 -0.000993482 0)
(-0.00236096 -0.00100415 0)
(-0.00213487 -0.00101344 0)
(-0.0019073 -0.00102075 0)
(-0.00167818 -0.00102508 0)
(-0.00144917 -0.00102439 0)
(-0.00122034 -0.00101564 0)
(-0.000995451 -0.000993683 0)
(-0.000775233 -0.00095192 0)
(-0.00056781 -0.000881247 0)
(-0.000375023 -0.000772705 0)
(-0.00021278 -0.000616964 0)
(-8.28957e-05 -0.000409967 0)
(-1.2504e-05 -0.000150979 0)
(-1.03044e-05 0.000147259 0)
(-7.01086e-05 0.000408383 0)
(-0.000182172 0.000622138 0)
(-0.000323451 0.000785052 0)
(-0.000492117 0.000899875 0)
(-0.000674096 0.000975209 0)
(-0.000867578 0.00102054 0)
(-0.0010654 0.00104535 0)
(-0.00126696 0.00105682 0)
(-0.00146903 0.00106033 0)
(-0.00167166 0.00105914 0)
(-0.00187347 0.00105532 0)
(-0.00207462 0.00104989 0)
(-0.00227448 0.00104343 0)
(-0.00247312 0.00103617 0)
(-0.00267019 0.00102824 0)
(-0.0028657 0.00101967 0)
(-0.00305942 0.0010105 0)
(-0.00325128 0.00100072 0)
(-0.00344111 0.000990331 0)
(-0.00362884 0.000979338 0)
(-0.0038143 0.000967743 0)
(-0.00399741 0.000955545 0)
(-0.00417803 0.000942748 0)
(-0.00435604 0.000929352 0)
(-0.00453134 0.000915362 0)
(-0.00470381 0.00090078 0)
(-0.00487333 0.000885609 0)
(-0.0050398 0.000869852 0)
(-0.00520309 0.000853514 0)
(-0.00536311 0.000836598 0)
(-0.00551973 0.000819109 0)
(-0.00567286 0.000801051 0)
(-0.00582238 0.000782428 0)
(-0.00596819 0.000763246 0)
(-0.00611019 0.000743509 0)
(-0.00624827 0.000723223 0)
(-0.00638233 0.000702393 0)
(-0.00651227 0.000681025 0)
(-0.006638 0.000659124 0)
(-0.00675941 0.000636698 0)
(-0.0068764 0.000613752 0)
(-0.0069889 0.000590294 0)
(-0.00709679 0.00056633 0)
(-0.0072 0.000541868 0)
(-0.00729843 0.000516916 0)
(-0.007392 0.000491482 0)
(-0.00748061 0.000465574 0)
(-0.00756419 0.000439202 0)
(-0.00764266 0.000412375 0)
(-0.00771594 0.000385103 0)
(-0.00778394 0.000357396 0)
(-0.00784659 0.000329265 0)
(-0.00790383 0.000300722 0)
(-0.00795558 0.000271779 0)
(-0.00800178 0.000242449 0)
(-0.00804235 0.000212745 0)
(-0.00807723 0.000182681 0)
(-0.00810638 0.000152271 0)
(-0.00812972 0.000121532 0)
(-0.00814721 9.048e-05 0)
(-0.0081588 5.91312e-05 0)
(-0.00816444 2.75038e-05 0)
(-0.00816409 -4.38335e-06 0)
(-0.0081577 -3.65108e-05 0)
(-0.00814524 -6.88581e-05 0)
(-0.00812668 -0.000101404 0)
(-0.00810199 -0.000134126 0)
(-0.00807115 -0.000167 0)
(-0.00803414 -0.000200004 0)
(-0.00799093 -0.000233111 0)
(-0.00794153 -0.000266296 0)
(-0.00788593 -0.000299531 0)
(-0.00782413 -0.000332789 0)
(-0.00775612 -0.00036604 0)
(-0.00768193 -0.000399255 0)
(-0.00760156 -0.000432403 0)
(-0.00751504 -0.000465451 0)
(-0.0074224 -0.000498369 0)
(-0.00732366 -0.000531121 0)
(-0.00721887 -0.000563674 0)
(-0.00710808 -0.000595993 0)
(-0.00699132 -0.000628042 0)
(-0.00686867 -0.000659784 0)
(-0.00674018 -0.000691184 0)
(-0.00660593 -0.000722203 0)
(-0.006466 -0.000752804 0)
(-0.00632046 -0.000782947 0)
(-0.00616941 -0.000812596 0)
(-0.00601295 -0.00084171 0)
(-0.00585118 -0.000870252 0)
(-0.00568421 -0.000898182 0)
(-0.00551217 -0.000925462 0)
(-0.00533518 -0.000952052 0)
(-0.00515337 -0.000977916 0)
(-0.00496687 -0.00100302 0)
(-0.00477585 -0.00102731 0)
(-0.00458044 -0.00105077 0)
(-0.0043808 -0.00107336 0)
(-0.00417712 -0.00109504 0)
(-0.00396954 -0.00111578 0)
(-0.00375826 -0.00113555 0)
(-0.00354344 -0.00115431 0)
(-0.00332532 -0.00117204 0)
(-0.00310402 -0.00118871 0)
(-0.00287987 -0.00120424 0)
(-0.00265292 -0.00121858 0)
(-0.00242366 -0.00123152 0)
(-0.00219205 -0.00124277 0)
(-0.00195892 -0.0012516 0)
(-0.00172415 -0.0012568 0)
(-0.00148946 -0.00125599 0)
(-0.00125485 -0.00124548 0)
(-0.00102413 -0.00121927 0)
(-0.00079796 -0.00116932 0)
(-0.000584709 -0.00108482 0)
(-0.000386212 -0.000954388 0)
(-0.000219023 -0.000766303 0)
(-8.5169e-05 -0.000513281 0)
(-1.27324e-05 -0.000192058 0)
(-1.03576e-05 0.000181683 0)
(-7.11731e-05 0.000496788 0)
(-0.0001854 0.000751375 0)
(-0.000329512 0.000943428 0)
(-0.00050154 0.00107807 0)
(-0.000687003 0.00116598 0)
(-0.000884061 0.00121881 0)
(-0.00108538 0.00124765 0)
(-0.00129039 0.00126099 0)
(-0.00149582 0.00126503 0)
(-0.00170178 0.00126359 0)
(-0.00190686 0.00125903 0)
(-0.00211126 0.00125256 0)
(-0.00231432 0.00124484 0)
(-0.00251614 0.00123615 0)
(-0.00271637 0.00122665 0)
(-0.00291501 0.00121638 0)
(-0.00311181 0.00120536 0)
(-0.00330673 0.00119361 0)
(-0.00349959 0.00118114 0)
(-0.0036903 0.00116793 0)
(-0.00387871 0.001154 0)
(-0.00406471 0.00113935 0)
(-0.00424819 0.00112398 0)
(-0.00442901 0.00110789 0)
(-0.00460707 0.00109109 0)
(-0.00478225 0.00107359 0)
(-0.00495443 0.00105538 0)
(-0.0051235 0.00103647 0)
(-0.00528934 0.00101687 0)
(-0.00545184 0.000996584 0)
(-0.00561089 0.000975612 0)
(-0.00576639 0.000953962 0)
(-0.00591822 0.00093164 0)
(-0.00606628 0.000908653 0)
(-0.00621045 0.000885007 0)
(-0.00635065 0.000860708 0)
(-0.00648675 0.000835763 0)
(-0.00661867 0.00081018 0)
(-0.0067463 0.000783966 0)
(-0.00686955 0.000757129 0)
(-0.00698831 0.000729677 0)
(-0.0071025 0.000701618 0)
(-0.00721201 0.000672961 0)
(-0.00731676 0.000643715 0)
(-0.00741666 0.000613891 0)
(-0.00751162 0.000583497 0)
(-0.00760155 0.000552545 0)
(-0.00768637 0.000521045 0)
(-0.00776599 0.000489009 0)
(-0.00784034 0.00045645 0)
(-0.00790934 0.000423379 0)
(-0.00797291 0.00038981 0)
(-0.00803098 0.000355756 0)
(-0.00808347 0.000321234 0)
(-0.00813033 0.000286257 0)
(-0.00817148 0.000250842 0)
(-0.00820686 0.000215005 0)
(-0.00823641 0.000178765 0)
(-0.00826008 0.00014214 0)
(-0.0082778 0.00010515 0)
(-0.00828954 6.78136e-05 0)
(-0.00829523 3.01535e-05 0)
(-0.00829485 -7.80841e-06 0)
(-0.00828834 -4.60488e-05 0)
(-0.00827567 -8.45434e-05 0)
(-0.00825681 -0.000123267 0)