/*--------------------------------*- C++ -*----------------------------------*\
| =========                 |                                                 |
| \\      /  F ield         | OpenFOAM: The Open Source CFD Toolbox           |
|  \\    /   O peration     | Version:  2406                                  |
|   \\  /    A nd           | Website:  www.openfoam.com                      |
|    \\/     M anipulation  |                                                 |
\*---------------------------------------------------------------------------*/
FoamFile
{
    version     2.0;
    format      ascii;
    arch        "LSB;label=32;scalar=64";
    class       volVectorField;
    location    "35.25";
    object      U;
}
// * * * * * * * * * * * * * * * * * * * * * * * * * * * * * * * * * * * * * //

dimensions      [0 1 -1 0 0 0 0];

internalField   nonuniform List<vector> 
16384
(
(-1.52886e-05 1.50705e-05 0)
(-4.82018e-06 2.92122e-06 0)
(8.12794e-05 -1.31928e-05 0)
(0.000237389 -2.66248e-05 0)
(0.000448674 -3.5864e-05 0)
(0.000697176 -4.11021e-05 0)
(0.000964864 -4.29108e-05 0)
(0.00123543 -4.19349e-05 0)
(0.0014952 -3.88472e-05 0)
(0.00173359 -3.43234e-05 0)
(0.00194333 -2.90133e-05 0)
(0.00212034 -2.35061e-05 0)
(0.0022635 -1.82988e-05 0)
(0.00237412 -1.37738e-05 0)
(0.00245541 -1.01902e-05 0)
(0.00251184 -7.68453e-06 0)
(0.00254846 -6.2815e-06 0)
(0.0025704 -5.90945e-06 0)
(0.00258227 -6.4184e-06 0)
(0.00258785 -7.61947e-06 0)
(0.00258967 -9.34513e-06 0)
(0.00258894 -1.12621e-05 0)
(0.00258561 -1.31429e-05 0)
(0.00257831 -1.4817e-05 0)
(0.00256455 -1.61425e-05 0)
(0.002541 -1.70194e-05 0)
(0.00250367 -1.73913e-05 0)
(0.0024482 -1.72369e-05 0)
(0.00236999 -1.65543e-05 0)
(0.00226435 -1.53485e-05 0)
(0.00212651 -1.36161e-05 0)
(0.00195166 -1.13393e-05 0)
(0.00173494 -8.47818e-06 0)
(0.00147137 -4.97462e-06 0)
(0.0011559 -7.94856e-07 0)
(0.000783407 4.19897e-06 0)
(0.000348733 1.00505e-05 0)
(-0.000153191 1.68309e-05 0)
(-0.000727251 2.46139e-05 0)
(-0.001378 3.34522e-05 0)
(-0.00210953 4.33807e-05 0)
(-0.00292531 5.44157e-05 0)
(-0.003828 6.65506e-05 0)
(-0.00481933 7.97519e-05 0)
(-0.00589991 9.39567e-05 0)
(-0.00706912 0.00010907 0)
(-0.00832496 0.000124962 0)
(-0.00966396 0.000141469 0)
(-0.0110811 0.000158392 0)
(-0.0125698 0.000175496 0)
(-0.0141219 0.000192513 0)
(-0.0157275 0.000209146 0)
(-0.0173753 0.000225068 0)
(-0.0190525 0.000239928 0)
(-0.0207447 0.000253357 0)
(-0.0224365 0.000264969 0)
(-0.0241113 0.000274369 0)
(-0.0257514 0.00028116 0)
(-0.0273383 0.000284946 0)
(-0.0288529 0.000285346 0)
(-0.0302756 0.000281998 0)
(-0.0315866 0.000274569 0)
(-0.032766 0.000262774 0)
(-0.0337942 0.000246419 0)
(-0.0346522 0.000225463 0)
(-0.035322 0.000199964 0)
(-0.0357867 0.000169704 0)
(-0.0360306 0.000134164 0)
(-0.0360371 9.51745e-05 0)
(-0.0357911 5.1331e-05 0)
(-0.0352859 7.78202e-07 0)
(-0.0345173 -5.2799e-05 0)
(-0.0334798 -0.000108147 0)
(-0.0321737 -0.000164589 0)
(-0.0306036 -0.000221137 0)
(-0.0287785 -0.000276591 0)
(-0.0267122 -0.000329613 0)
(-0.0244233 -0.000378784 0)
(-0.0219354 -0.000422656 0)
(-0.019277 -0.000459813 0)
(-0.0164809 -0.000488945 0)
(-0.0135842 -0.000508912 0)
(-0.010627 -0.000518815 0)
(-0.00765233 -0.000518037 0)
(-0.00470427 -0.000506284 0)
(-0.00182659 -0.00048393 0)
(0.000936064 -0.000452298 0)
(0.00354206 -0.000410803 0)
(0.00595493 -0.000361702 0)
(0.00814161 -0.000306757 0)
(0.010075 -0.000247841 0)
(0.011735 -0.000187011 0)
(0.0131087 -0.000126277 0)
(0.0141907 -6.7627e-05 0)
(0.0149831 -1.27875e-05 0)
(0.015495 3.68012e-05 0)
(0.015742 8.00374e-05 0)
(0.0157448 0.000116154 0)
(0.0155289 0.000144934 0)
(0.0151226 0.000166387 0)
(0.0145559 0.000180929 0)
(0.0138595 0.000189106 0)
(0.0130636 0.000191681 0)
(0.012197 0.000189538 0)
(0.0112863 0.00018359 0)
(0.0103552 0.000174727 0)
(0.0094242 0.00016378 0)
(0.0085104 0.000151489 0)
(0.00762754 0.00013849 0)
(0.0067861 0.000125306 0)
(0.00599356 0.000112353 0)
(0.00525473 9.99472e-05 0)
(0.00457205 8.83194e-05 0)
(0.00394603 7.76303e-05 0)
(0.00337552 6.79852e-05 0)
(0.00285811 5.94437e-05 0)
(0.00239049 5.20241e-05 0)
(0.00196876 4.56982e-05 0)
(0.0015889 4.03756e-05 0)
(0.00124726 3.58773e-05 0)
(0.000941124 3.1902e-05 0)
(0.000669443 2.79885e-05 0)
(0.000433492 2.34823e-05 0)
(0.000237386 1.7542e-05 0)
(8.78817e-05 9.35824e-06 0)
(-6.38548e-06 -1.24905e-06 0)
(-3.96508e-05 -1.29806e-05 0)
(-1.87103e-05 -1.88024e-05 0)
(-3.97155e-06 5.03729e-06 0)
(0.000102215 -0.000106007 0)
(0.000371096 -0.000241874 0)
(0.00078821 -0.000360649 0)
(0.00132357 -0.000448352 0)
(0.00193998 -0.000501899 0)
(0.00259875 -0.000522864 0)
(0.00326365 -0.00051522 0)
(0.00390333 -0.0004843 0)
(0.00449276 -0.000436124 0)
(0.00501396 -0.000376863 0)
(0.00545597 -0.000312373 0)
(0.00581439 -0.000247808 0)
(0.00609042 -0.000187341 0)
(0.00628968 -0.000133995 0)
(0.00642076 -8.95868e-05 0)
(0.00649388 -5.47635e-05 0)
(0.00651947 -2.9119e-05 0)
(0.00650699 -1.1363e-05 0)
(0.00646394 4.63438e-07 0)
(0.00639516 8.70339e-06 0)
(0.00630243 1.6014e-05 0)
(0.00618423 2.49376e-05 0)
(0.00603604 3.7756e-05 0)
(0.00585061 5.63796e-05 0)
(0.0056185 8.22717e-05 0)
(0.00532862 0.000116449 0)
(0.00496874 0.000159539 0)
(0.00452596 0.000211893 0)
(0.003987 0.000273686 0)
(0.00333842 0.000345034 0)
(0.00256674 0.000426047 0)
(0.00165848 0.000516866 0)
(0.000600208 0.000617646 0)
(-0.000621093 0.0007285 0)
(-0.00201817 0.000849448 0)
(-0.0036032 0.000980362 0)
(-0.00538723 0.0011209 0)
(-0.00737993 0.00127049 0)
(-0.00958923 0.00142824 0)
(-0.0120208 0.00159297 0)
(-0.0146777 0.00176316 0)
(-0.01756 0.00193701 0)
(-0.0206641 0.00211237 0)
(-0.0239831 0.00228682 0)
(-0.0275059 0.0024577 0)
(-0.0312174 0.00262213 0)
(-0.0350986 0.00277707 0)
(-0.0391262 0.00291937 0)
(-0.0432734 0.00304586 0)
(-0.0475096 0.0031534 0)
(-0.051801 0.00323892 0)
(-0.0561111 0.0032995 0)
(-0.0604011 0.00333245 0)
(-0.0646302 0.00333529 0)
(-0.0687564 0.00330586 0)
(-0.072737 0.0032423 0)
(-0.0765288 0.00314311 0)
(-0.080089 0.00300716 0)
(-0.0833755 0.0028337 0)
(-0.0863473 0.00262237 0)
(-0.0889652 0.00237325 0)
(-0.0911917 0.00208693 0)
(-0.092992 0.00176454 0)
(-0.0943345 0.00140775 0)
(-0.0951917 0.00101829 0)
(-0.09554 0.000597986 0)
(-0.0953568 0.000151712 0)
(-0.0946217 -0.000311967 0)
(-0.0933222 -0.000794739 0)
(-0.091453 -0.00129315 0)
(-0.0890143 -0.00179899 0)
(-0.0860122 -0.00230548 0)
(-0.0824589 -0.00280534 0)
(-0.0783734 -0.00329073 0)
(-0.0737821 -0.00375333 0)
(-0.0687189 -0.00418454 0)
(-0.0632252 -0.00457562 0)
(-0.0573501 -0.00491797 0)
(-0.0511499 -0.00520337 0)
(-0.0446877 -0.00542428 0)
(-0.0380328 -0.00557415 0)
(-0.0312598 -0.00564778 0)
(-0.0244473 -0.00564153 0)
(-0.0176766 -0.0055537 0)
(-0.0110297 -0.00538487 0)
(-0.00458844 -0.0051386 0)
(0.00156707 -0.00481841 0)
(0.00736223 -0.00443186 0)
(0.0127296 -0.00398843 0)
(0.017609 -0.00349928 0)
(0.0219506 -0.0029771 0)
(0.025716 -0.00243492 0)
(0.0288792 -0.00188657 0)
(0.0314274 -0.00134543 0)
(0.0333614 -0.000824184 0)
(0.0346945 -0.000334265 0)
(0.0354528 0.000114561 0)
(0.0356732 0.000514932 0)
(0.0354024 0.000861902 0)
(0.0346939 0.00115238 0)
(0.0336067 0.00138525 0)
(0.032203 0.00156161 0)
(0.0305459 0.00168444 0)
(0.0286973 0.00175818 0)
(0.026716 0.0017883 0)
(0.0246559 0.00178089 0)
(0.0225652 0.00174234 0)
(0.0204855 0.001679 0)
(0.0184513 0.00159693 0)
(0.0164902 0.0015017 0)
(0.014623 0.0013983 0)
(0.0128642 0.00129103 0)
(0.0112228 0.00118351 0)
(0.00970288 0.00107867 0)
(0.00830446 0.000978768 0)
(0.00702446 0.000885331 0)
(0.00585764 0.000799121 0)
(0.00479772 0.000720001 0)
(0.00383858 0.000646781 0)
(0.0029757 0.000577073 0)
(0.00220752 0.000507221 0)
(0.00153677 0.000432473 0)
(0.000971221 0.000347637 0)
(0.000523144 0.000248791 0)
(0.000206728 0.000137078 0)
(3.08381e-05 2.60224e-05 0)
(-1.22847e-05 -3.97639e-05 0)
(1.06113e-05 -7.63401e-05 0)
(0.000229789 -0.000371339 0)
(0.000674253 -0.0006893 0)
(0.00131314 -0.00096417 0)
(0.00210336 -0.00116873 0)
(0.00299612 -0.00129455 0)
(0.00394067 -0.00134337 0)
(0.0048888 -0.00132311 0)
(0.00579814 -0.00124547 0)
(0.00663435 -0.00112426 0)
(0.00737205 -0.000973914 0)
(0.00799507 -0.000808364 0)
(0.00849579 -0.000640026 0)
(0.00887407 -0.000479092 0)
(0.00913562 -0.000333077 0)
(0.00929025 -0.000206619 0)
(0.00934991 -0.000101514 0)
(0.00932691 -1.69529e-05 0)
(0.00923225 5.01112e-05 0)
(0.00907421 0.000104423 0)
(0.00885739 0.000151895 0)
(0.00858207 0.000198938 0)
(0.00824397 0.000251954 0)
(0.00783451 0.000316812 0)
(0.00734125 0.00039849 0)
(0.00674862 0.000500878 0)
(0.00603859 0.000626769 0)
(0.00519155 0.000777961 0)
(0.00418683 0.00095552 0)
(0.00300331 0.00115996 0)
(0.00161978 0.00139153 0)
(1.52254e-05 0.00165028 0)
(-0.00183089 0.00193616 0)
(-0.00393835 0.00224893 0)
(-0.00632568 0.00258811 0)
(-0.00900986 0.00295263 0)
(-0.0120057 0.00334101 0)
(-0.0153252 0.00375098 0)
(-0.0189767 0.00417948 0)
(-0.0229646 0.00462261 0)
(-0.0272882 0.00507555 0)
(-0.0319416 0.00553269 0)
(-0.036913 0.00598759 0)
(-0.0421844 0.00643315 0)
(-0.0477315 0.00686173 0)
(-0.0535239 0.0072653 0)
(-0.0595249 0.00763564 0)
(-0.0656927 0.00796453 0)
(-0.0719801 0.00824399 0)
(-0.0783361 0.00846645 0)
(-0.0847063 0.00862493 0)
(-0.091034 0.00871324 0)
(-0.097261 0.00872603 0)
(-0.103329 0.00865896 0)
(-0.109179 0.0085087 0)
(-0.114754 0.00827297 0)
(-0.12 0.0079505 0)
(-0.124863 0.00754104 0)
(-0.129295 0.0070453 0)
(-0.133249 0.00646487 0)
(-0.136682 0.0058022 0)
(-0.139555 0.00506059 0)
(-0.141835 0.0042442 0)
(-0.14349 0.00335795 0)
(-0.144497 0.00240724 0)
(-0.144834 0.00139774 0)
(-0.144483 0.000337349 0)
(-0.14343 -0.000757558 0)
(-0.141667 -0.00188271 0)
(-0.139197 -0.00303047 0)
(-0.136022 -0.00418906 0)
(-0.132151 -0.00534704 0)
(-0.127599 -0.00649098 0)
(-0.122387 -0.00760648 0)
(-0.116545 -0.00867833 0)
(-0.110106 -0.00969076 0)
(-0.103114 -0.0106276 0)
(-0.0956171 -0.0114727 0)
(-0.0876717 -0.0122099 0)
(-0.0793411 -0.0128241 0)
(-0.0706956 -0.0133012 0)
(-0.0618115 -0.0136287 0)
(-0.0527706 -0.0137966 0)
(-0.0436595 -0.0137975 0)
(-0.0345683 -0.0136274 0)
(-0.0255891 -0.013286 0)
(-0.0168149 -0.0127773 0)
(-0.00833763 -0.0121092 0)
(-0.000246083 -0.0112932 0)
(0.00737584 -0.0103456 0)
(0.0144508 -0.00928557 0)
(0.0209108 -0.00813747 0)
(0.0266981 -0.00692573 0)
(0.0317665 -0.00567785 0)
(0.0360836 -0.00442111 0)
(0.0396307 -0.00318268 0)
(0.0424038 -0.00198837 0)
(0.0444139 -0.000861666 0)
(0.0456868 0.000177046 0)
(0.046261 0.00111071 0)
(0.0461862 0.00192757 0)
(0.0455228 0.00262004 0)
(0.04434 0.00318447 0)
(0.0427126 0.00362179 0)
(0.0407183 0.00393703 0)
(0.0384352 0.00413861 0)
(0.0359392 0.00423757 0)
(0.0333021 0.00424678 0)
(0.0305894 0.00418015 0)
(0.0278589 0.00405195 0)
(0.0251601 0.0038761 0)
(0.0225335 0.00366573 0)
(0.0200108 0.00343278 0)
(0.0176152 0.00318774 0)
(0.0153623 0.0029395 0)
(0.0132607 0.0026952 0)
(0.0113139 0.00246008 0)
(0.00952062 0.00223731 0)
(0.00787744 0.0020277 0)
(0.00637983 0.00182938 0)
(0.0050243 0.00163765 0)
(0.00381022 0.00144497 0)
(0.00274142 0.00124162 0)
(0.00182706 0.00101736 0)
(0.00108114 0.000764911 0)
(0.000520084 0.00048665 0)
(0.000158608 0.000207175 0)
(1.55952e-06 -9.38956e-07 0)
(2.21566e-05 -0.00022217 0)
(0.000340745 -0.000777571 0)
(0.0009378 -0.00132443 0)
(0.00176173 -0.00178663 0)
(0.00275433 -0.00212774 0)
(0.00385661 -0.00233501 0)
(0.0050091 -0.00241082 0)
(0.00615569 -0.00236772 0)
(0.00724706 -0.0022249 0)
(0.00824297 -0.00200531 0)
(0.00911336 -0.00173327 0)
(0.00983852 -0.00143231 0)
(0.0104084 -0.00112357 0)
(0.0108212 -0.000824488 0)
(0.0110817 -0.00054799 0)
(0.0111994 -0.000302109 0)
(0.0111858 -8.9985e-05 0)
(0.0110526 8.97846e-05 0)
(0.0108099 0.0002425 0)
(0.0104643 0.000376503 0)
(0.010018 0.000502201 0)
(0.00946775 0.000630975 0)
(0.00880495 0.000774193 0)
(0.00801577 0.000942324 0)
(0.0070818 0.00114429 0)
(0.00598086 0.00138712 0)
(0.00468802 0.00167588 0)
(0.00317653 0.00201383 0)
(0.00141865 0.00240285 0)
(-0.00061359 0.00284368 0)
(-0.00294775 0.00333636 0)
(-0.00561046 0.00388034 0)
(-0.00862677 0.0044745 0)
(-0.0120196 0.00511709 0)
(-0.0158087 0.00580546 0)
(-0.0200104 0.00653579 0)
(-0.024636 0.00730296 0)
(-0.0296913 0.00810027 0)
(-0.0351753 0.0089194 0)
(-0.04108 0.00975042 0)
(-0.0473892 0.0105818 0)
(-0.0540784 0.0114007 0)
(-0.0611145 0.0121933 0)
(-0.0684563 0.0129447 0)
(-0.0760549 0.0136399 0)
(-0.0838543 0.0142641 0)
(-0.0917931 0.0148026 0)
(-0.0998049 0.0152421 0)
(-0.107821 0.0155702 0)
(-0.11577 0.0157766 0)
(-0.123581 0.0158525 0)
(-0.131186 0.0157913 0)
(-0.138515 0.0155883 0)
(-0.145506 0.015241 0)
(-0.152098 0.0147488 0)
(-0.158237 0.0141127 0)
(-0.163871 0.0133354 0)
(-0.168956 0.0124209 0)
(-0.17345 0.0113747 0)
(-0.177319 0.010203 0)
(-0.180533 0.00891293 0)
(-0.183064 0.0075127 0)
(-0.184893 0.00601107 0)
(-0.186001 0.00441744 0)
(-0.186377 0.00274164 0)
(-0.186011 0.000995244 0)
(-0.18489 -0.000805807 0)
(-0.183016 -0.00264954 0)
(-0.180395 -0.00452773 0)
(-0.17703 -0.00642226 0)
(-0.172929 -0.00831665 0)
(-0.168107 -0.0101936 0)
(-0.162582 -0.0120345 0)
(-0.156376 -0.0138193 0)
(-0.149519 -0.0155269 0)
(-0.142043 -0.0171352 0)
(-0.13399 -0.0186215 0)
(-0.125404 -0.0199629 0)
(-0.11634 -0.0211366 0)
(-0.106855 -0.0221208 0)
(-0.097016 -0.0228948 0)
(-0.0868946 -0.0234405 0)
(-0.076569 -0.0237422 0)
(-0.0661225 -0.0237882 0)
(-0.0556428 -0.0235711 0)
(-0.0452212 -0.0230885 0)
(-0.0349512 -0.0223438 0)
(-0.0249267 -0.0213459 0)
(-0.0152406 -0.02011 0)
(-0.00598218 -0.0186569 0)
(0.00276174 -0.0170132 0)
(0.0109127 -0.0152103 0)
(0.0184009 -0.0132831 0)
(0.0251649 -0.011272 0)
(0.0311561 -0.00921669 0)
(0.0363372 -0.00715847 0)
(0.0406851 -0.00513766 0)
(0.0441902 -0.00319252 0)
(0.0468576 -0.00135823 0)
(0.0487076 0.000333875 0)
(0.0497744 0.00185754 0)
(0.0501033 0.00319515 0)
(0.0497521 0.0043345 0)
(0.0487896 0.00526936 0)
(0.0472921 0.00600031 0)
(0.0453411 0.00653427 0)
(0.0430206 0.00688352 0)
(0.0404142 0.00706474 0)
(0.0376028 0.00709788 0)
(0.0346621 0.00700488 0)
(0.0316605 0.00680859 0)
(0.0286577 0.00653166 0)
(0.025704 0.00619566 0)
(0.0228401 0.00582034 0)
(0.0200969 0.00542312 0)
(0.0174965 0.00501857 0)
(0.0150531 0.00461802 0)
(0.0127748 0.00422908 0)
(0.0106648 0.00385517 0)
(0.00872404 0.00349505 0)
(0.0069527 0.00314257 0)
(0.00535286 0.00278684 0)
(0.00393022 0.0024134 0)
(0.00269541 0.00200682 0)
(0.00166415 0.00155571 0)
(0.000856639 0.00106133 0)
(0.000298799 0.000552514 0)
(1.6161e-05 0.000112143 0)
(3.01347e-05 -0.000419675 0)
(0.000428187 -0.00130038 0)
(0.00115034 -0.00211294 0)
(0.00212399 -0.00278139 0)
(0.00327478 -0.00326587 0)
(0.00453309 -0.00355234 0)
(0.00583164 -0.00364555 0)
(0.00710814 -0.00356396 0)
(0.00830852 -0.00333528 0)
(0.00938887 -0.00299263 0)
(0.0103164 -0.00257106 0)
(0.0110695 -0.0021045 0)
(0.0116363 -0.00162342 0)
(0.0120141 -0.00115289 0)
(0.0122062 -0.000711489 0)
(0.0122207 -0.000310617 0)
(0.0120675 4.54696e-05 0)
(0.0117559 0.000359178 0)
(0.011293 0.000638676 0)
(0.0106818 0.000896665 0)
(0.00991979 0.00114887 0)
(0.00899857 0.00141245 0)
(0.0079035 0.0017045 0)
(0.00661427 0.0020407 0)
(0.00510562 0.0024344 0)
(0.00334848 0.00289598 0)
(0.00131106 0.0034329 0)
(-0.00103981 0.00404975 0)
(-0.00373775 0.00474878 0)
(-0.00681581 0.0055304 0)
(-0.0103054 0.00639349 0)
(-0.0142354 0.00733561 0)
(-0.0186313 0.00835297 0)
(-0.0235138 0.00944016 0)
(-0.0288979 0.0105899 0)
(-0.0347916 0.0117927 0)
(-0.0411947 0.0130365 0)
(-0.0480976 0.0143067 0)
(-0.0554808 0.0155863 0)
(-0.063314 0.016856 0)
(-0.0715566 0.0180943 0)
(-0.0801574 0.0192789 0)
(-0.0890562 0.0203863 0)
(-0.0981845 0.0213935 0)
(-0.107468 0.0222782 0)
(-0.116826 0.0230198 0)
(-0.126179 0.0235998 0)
(-0.135444 0.0240027 0)
(-0.144541 0.024216 0)
(-0.153394 0.0242307 0)
(-0.16193 0.024041 0)
(-0.170082 0.0236446 0)
(-0.177791 0.0230418 0)
(-0.185003 0.0222358 0)
(-0.191672 0.0212319 0)
(-0.197756 0.0200374 0)
(-0.203222 0.018661 0)
(-0.208042 0.0171124 0)
(-0.21219 0.0154023 0)
(-0.215648 0.0135419 0)
(-0.218402 0.0115431 0)
(-0.220438 0.00941797 0)
(-0.221748 0.00717901 0)
(-0.222326 0.00483906 0)
(-0.222168 0.00241165 0)
(-0.221269 -8.75749e-05 0)
(-0.219629 -0.00264091 0)
(-0.217252 -0.00524057 0)
(-0.214143 -0.0078663 0)
(-0.210306 -0.0104998 0)
(-0.20575 -0.0131214 0)
(-0.200485 -0.0157098 0)
(-0.194526 -0.0182425 0)
(-0.18789 -0.0206949 0)
(-0.180601 -0.0230413 0)
(-0.172684 -0.0252542 0)
(-0.164172 -0.0273052 0)
(-0.155103 -0.0291654 0)
(-0.145521 -0.0308056 0)
(-0.135477 -0.0321974 0)
(-0.125028 -0.0333135 0)
(-0.11424 -0.0341294 0)
(-0.103183 -0.0346233 0)
(-0.0919343 -0.0347782 0)
(-0.0805783 -0.0345821 0)
(-0.0692025 -0.0340292 0)
(-0.0578987 -0.0331205 0)
(-0.0467607 -0.0318646 0)
(-0.0358828 -0.0302775 0)
(-0.0253581 -0.0283832 0)
(-0.0152772 -0.0262137 0)
(-0.00572423 -0.0238053 0)
(0.00322035 -0.0212027 0)
(0.0114858 -0.018454 0)
(0.019013 -0.0156105 0)
(0.0257504 -0.0127261 0)
(0.0316597 -0.009854 0)
(0.0367147 -0.00704607 0)
(0.0409019 -0.00435137 0)
(0.044221 -0.00181429 0)
(0.0466871 0.000524837 0)
(0.0483288 0.00263258 0)
(0.0491843 0.00448585 0)
(0.0493055 0.00606844 0)
(0.0487561 0.0073721 0)
(0.0476086 0.00839725 0)
(0.0459425 0.00915251 0)
(0.0438414 0.00965376 0)
(0.041391 0.00992294 0)
(0.0386756 0.00998662 0)
(0.0357758 0.00987444 0)
(0.0327661 0.00961752 0)
(0.029713 0.00924701 0)
(0.0266737 0.00879269 0)
(0.0236957 0.00828188 0)
(0.0208166 0.0077384 0)
(0.0180645 0.00718168 0)
(0.0154598 0.00662587 0)
(0.0130159 0.00607901 0)
(0.010742 0.00554234 0)
(0.00864489 0.00500986 0)
(0.00673148 0.00446869 0)
(0.00501106 0.00390044 0)
(0.00349724 0.00328454 0)
(0.00220919 0.00260404 0)
(0.00117344 0.00185494 0)
(0.00043057 0.00106114 0)
(2.94256e-05 0.000298526 0)
(3.56063e-05 -0.000656671 0)
(0.000495163 -0.00191561 0)
(0.00131639 -0.00302386 0)
(0.00240723 -0.00391087 0)
(0.00367732 -0.0045382 0)
(0.00504594 -0.00489404 0)
(0.00643792 -0.00498813 0)
(0.00778553 -0.00484668 0)
(0.00903105 -0.00450742 0)
(0.0101284 -0.00401466 0)
(0.0110435 -0.00341492 0)
(0.0117538 -0.00275296 0)
(0.0122472 -0.00206866 0)
(0.0125199 -0.00139466 0)
(0.0125741 -0.000754792 0)
(0.0124158 -0.000163329 0)
(0.012052 0.000374988 0)
(0.0114886 0.000864374 0)
(0.010728 0.00131671 0)
(0.00976746 0.00174987 0)
(0.00859817 0.00218564 0)
(0.00720466 0.00264759 0)
(0.00556491 0.00315898 0)
(0.0036511 0.00374093 0)
(0.00143062 0.00441117 0)
(-0.00113236 0.00518322 0)
(-0.00407565 0.00606629 0)
(-0.00743747 0.00706557 0)
(-0.011255 0.00818262 0)
(-0.0155631 0.00941606 0)
(-0.0203928 0.0107618 0)
(-0.0257704 0.0122133 0)
(-0.031715 0.0137613 0)
(-0.0382382 0.0153935 0)
(-0.0453415 0.0170945 0)
(-0.0530155 0.0188449 0)
(-0.0612389 0.0206222 0)
(-0.0699774 0.0224002 0)
(-0.0791842 0.0241497 0)
(-0.0887998 0.0258395 0)
(-0.0987541 0.0274372 0)
(-0.108968 0.0289104 0)
(-0.119354 0.0302277 0)
(-0.129822 0.0313601 0)
(-0.14028 0.032282 0)
(-0.150637 0.0329718 0)
(-0.160806 0.0334128 0)
(-0.170704 0.033593 0)
(-0.180258 0.0335055 0)
(-0.189401 0.0331478 0)
(-0.198074 0.0325219 0)
(-0.206229 0.031633 0)
(-0.213823 0.0304895 0)
(-0.220824 0.0291022 0)
(-0.227203 0.0274832 0)
(-0.23294 0.0256462 0)
(-0.238018 0.0236053 0)
(-0.242426 0.0213751 0)
(-0.246154 0.0189703 0)
(-0.249197 0.0164054 0)
(-0.251548 0.0136948 0)
(-0.253207 0.0108529 0)
(-0.254169 0.00789369 0)
(-0.254434 0.00483174 0)
(-0.254 0.00168252 0)
(-0.252863 -0.00153788 0)
(-0.251027 -0.00481564 0)
(-0.248492 -0.00813501 0)
(-0.245258 -0.0114766 0)
(-0.241326 -0.0148207 0)
(-0.236699 -0.0181456 0)
(-0.231382 -0.0214277 0)
(-0.225381 -0.0246414 0)
(-0.218707 -0.0277588 0)
(-0.211371 -0.0307497 0)
(-0.203393 -0.0335822 0)
(-0.194794 -0.0362223 0)
(-0.185603 -0.0386352 0)
(-0.175854 -0.0407852 0)
(-0.165588 -0.0426368 0)
(-0.154855 -0.0441558 0)
(-0.14371 -0.0453102 0)
(-0.132218 -0.0460713 0)
(-0.120451 -0.0464153 0)
(-0.108487 -0.0463243 0)
(-0.0964123 -0.0457877 0)
(-0.0843171 -0.0448028 0)
(-0.0722958 -0.0433761 0)
(-0.0604448 -0.0415234 0)
(-0.0488609 -0.03927 0)
(-0.0376392 -0.0366506 0)
(-0.0268705 -0.033708 0)
(-0.0166412 -0.0304936 0)
(-0.00702907 -0.0270624 0)
(0.00189601 -0.0234763 0)
(0.010074 -0.0197992 0)
(0.0174565 -0.0160956 0)
(0.0240054 -0.0124297 0)
(0.0296945 -0.00886283 0)
(0.0345092 -0.00545216 0)
(0.0384466 -0.00224901 0)
(0.0415184 0.000699671 0)
(0.0437478 0.00335567 0)
(0.0451672 0.0056917 0)
(0.0458224 0.00768895 0)
(0.0457707 0.0093381 0)
(0.045079 0.01064 0)
(0.0438218 0.0116051 0)
(0.0420799 0.0122528 0)
(0.0399368 0.0126097 0)
(0.0374771 0.0127087 0)
(0.0347826 0.0125862 0)
(0.0319305 0.012281 0)
(0.0289911 0.0118318 0)
(0.0260262 0.0112756 0)
(0.023088 0.0106461 0)
(0.0202195 0.00997196 0)
(0.0174543 0.00927554 0)
(0.0148184 0.00857132 0)
(0.0123314 0.00786491 0)
(0.0100088 0.00715234 0)
(0.00786474 0.00642027 0)
(0.00591412 0.00564744 0)
(0.00417564 0.00480815 0)
(0.00267405 0.00387817 0)
(0.00144422 0.00284388 0)
(0.000542509 0.00171587 0)
(4.02856e-05 0.00054952 0)
(3.96557e-05 -0.000923619 0)
(0.000546843 -0.0026026 0)
(0.00144484 -0.00402967 0)
(0.00262392 -0.0051418 0)
(0.00397835 -0.00590546 0)
(0.00541612 -0.00631458 0)
(0.00685413 -0.00638681 0)
(0.00821951 -0.00615855 0)
(0.00945168 -0.00567932 0)
(0.0105034 -0.00500594 0)
(0.0113403 -0.00419709 0)
(0.0119403 -0.0033086 0)
(0.0122914 -0.00238962 0)
(0.0123892 -0.00147975 0)
(0.0122349 -0.000607323 0)
(0.011832 0.000211529 0)
(0.0111837 0.0009727 0)
(0.0102911 0.00168331 0)
(0.00915012 0.00235999 0)
(0.00775101 0.00302669 0)
(0.00607688 0.00371197 0)
(0.00410387 0.00444618 0)
(0.00180156 0.0052588 0)
(-0.000865812 0.00617608 0)
(-0.00393786 0.00721945 0)
(-0.00745625 0.00840458 0)
(-0.0114629 0.00974111 0)
(-0.015998 0.0112331 0)
(-0.0210985 0.0128794 0)
(-0.0267961 0.0146744 0)
(-0.0331155 0.0166081 0)
(-0.0400724 0.0186663 0)
(-0.047672 0.0208303 0)
(-0.055907 0.0230771 0)
(-0.0647562 0.0253783 0)
(-0.0741837 0.0277014 0)
(-0.0841385 0.0300093 0)
(-0.0945553 0.0322618 0)
(-0.105356 0.0344167 0)
(-0.116451 0.0364314 0)
(-0.127744 0.0382643 0)
(-0.139134 0.039877 0)
(-0.15052 0.0412351 0)
(-0.161802 0.0423102 0)
(-0.172885 0.0430798 0)
(-0.183686 0.0435285 0)
(-0.194125 0.0436472 0)
(-0.204139 0.0434333 0)
(-0.21367 0.0428894 0)
(-0.222674 0.0420231 0)
(-0.231115 0.0408457 0)
(-0.238964 0.0393711 0)
(-0.246202 0.0376155 0)
(-0.252815 0.0355961 0)
(-0.258793 0.0333308 0)
(-0.264131 0.0308373 0)
(-0.268825 0.0281334 0)
(-0.272874 0.0252361 0)
(-0.276278 0.0221617 0)
(-0.279037 0.0189259 0)
(-0.281152 0.0155436 0)
(-0.282621 0.0120293 0)
(-0.283445 0.00839683 0)
(-0.283621 0.00466068 0)
(-0.283147 0.00083631 0)
(-0.282019 -0.00306073 0)
(-0.280236 -0.00701903 0)
(-0.277794 -0.0110194 0)
(-0.274689 -0.0150437 0)
(-0.270915 -0.0190712 0)
(-0.26647 -0.0230793 0)
(-0.261351 -0.0270426 0)
(-0.255556 -0.0309333 0)
(-0.249087 -0.0347206 0)
(-0.241948 -0.0383706 0)
(-0.234146 -0.0418469 0)
(-0.225695 -0.0451105 0)
(-0.21661 -0.0481205 0)
(-0.206917 -0.0508344 0)
(-0.196646 -0.0532095 0)
(-0.185837 -0.0552037 0)
(-0.174536 -0.0567765 0)
(-0.1628 -0.0578913 0)
(-0.150693 -0.0585159 0)
(-0.138291 -0.058625 0)
(-0.125675 -0.0582012 0)
(-0.112936 -0.0572365 0)
(-0.100168 -0.0557336 0)
(-0.0874712 -0.0537063 0)
(-0.0749483 -0.05118 0)
(-0.0627005 -0.0481917 0)
(-0.0508269 -0.0447885 0)
(-0.0394218 -0.0410276 0)
(-0.0285721 -0.0369729 0)
(-0.0183563 -0.0326953 0)
(-0.00884248 -0.028268 0)
(-8.80181e-05 -0.0237668 0)
(0.00786093 -0.0192667 0)
(0.0149699 -0.0148404 0)
(0.0212154 -0.0105565 0)
(0.0265845 -0.00647797 0)
(0.0310752 -0.00266081 0)
(0.0346976 0.000844484 0)
(0.0374719 0.00399736 0)
(0.0394272 0.00676833 0)
(0.0406043 0.00913758 0)
(0.0410546 0.0110961 0)
(0.0408394 0.0126458 0)
(0.0400279 0.0137998 0)
(0.0386962 0.0145807 0)
(0.0369247 0.01502 0)
(0.0347953 0.0151557 0)
(0.0323893 0.0150307 0)
(0.0297842 0.0146902 0)
(0.0270517 0.014179 0)
(0.0242559 0.01354 0)
(0.0214525 0.0128111 0)
(0.0186884 0.0120234 0)
(0.0160019 0.0111991 0)
(0.0134243 0.0103496 0)
(0.0109814 0.00947465 0)
(0.00869607 0.00856193 0)
(0.00659106 0.00758829 0)
(0.00469205 0.00652294 0)
(0.00303116 0.00533296 0)
(0.00165278 0.0039915 0)
(0.000628243 0.00248955 0)
(4.83222e-05 0.000852702 0)
(4.30522e-05 -0.0012139 0)
(0.000587786 -0.00334497 0)
(0.00154401 -0.00510659 0)
(0.00278559 -0.00644403 0)
(0.00419207 -0.00733138 0)
(0.00566029 -0.00777151 0)
(0.00709942 -0.00779315 0)
(0.00843187 -0.0074456 0)
(0.00959495 -0.0067923 0)
(0.010541 -0.00590399 0)
(0.0112367 -0.00485229 0)
(0.0116609 -0.00370416 0)
(0.0118022 -0.00251752 0)
(0.0116562 -0.00133806 0)
(0.0112227 -0.000197338 0)
(0.010502 0.000888009 0)
(0.0094929 0.00191606 0)
(0.00818994 0.0028982 0)
(0.0065817 0.003857 0)
(0.00464963 0.00482342 0)
(0.00236767 0.00583325 0)
(-0.000297283 0.00692365 0)
(-0.00338422 0.00812978 0)
(-0.00693628 0.00948201 0)
(-0.0109987 0.011004 0)
(-0.0156164 0.0127114 0)
(-0.020832 0.0146122 0)
(-0.026683 0.0167064 0)
(-0.0332002 0.018987 0)
(-0.0404052 0.0214404 0)
(-0.048308 0.0240465 0)
(-0.0569053 0.0267791 0)
(-0.0661788 0.0296057 0)
(-0.0760932 0.0324876 0)
(-0.0865964 0.0353804 0)
(-0.0976197 0.0382353 0)
(-0.109079 0.0409999 0)
(-0.120878 0.0436209 0)
(-0.132912 0.0460454 0)
(-0.145069 0.0482243 0)
(-0.157239 0.0501131 0)
(-0.169314 0.0516746 0)
(-0.181194 0.0528795 0)
(-0.192787 0.053707 0)
(-0.204015 0.054145 0)
(-0.214809 0.0541892 0)
(-0.225117 0.0538427 0)
(-0.234896 0.0531144 0)
(-0.244113 0.0520178 0)
(-0.252746 0.0505703 0)
(-0.26078 0.0487912 0)
(-0.268208 0.0467017 0)
(-0.275024 0.0443231 0)
(-0.281229 0.0416767 0)
(-0.286825 0.0387834 0)
(-0.291814 0.0356628 0)
(-0.296201 0.0323337 0)
(-0.299989 0.0288134 0)
(-0.303182 0.0251181 0)
(-0.305782 0.0212629 0)
(-0.30779 0.0172619 0)
(-0.309206 0.0131283 0)
(-0.31003 0.00887525 0)
(-0.310256 0.00451587 0)
(-0.309881 6.43608e-05 0)
(-0.308902 -0.00446524 0)
(-0.307314 -0.00906109 0)
(-0.305107 -0.0137053 0)
(-0.302275 -0.0183801 0)
(-0.298807 -0.0230647 0)
(-0.294695 -0.0277361 0)
(-0.289929 -0.0323681 0)
(-0.284502 -0.0369314 0)
(-0.278406 -0.0413927 0)
(-0.271636 -0.0457156 0)
(-0.264191 -0.0498597 0)
(-0.256071 -0.0537813 0)
(-0.247283 -0.0574338 0)
(-0.237838 -0.0607682 0)
(-0.227755 -0.0637342 0)
(-0.217062 -0.0662812 0)
(-0.205793 -0.0683597 0)
(-0.193994 -0.0699234 0)
(-0.181722 -0.0709305 0)
(-0.169043 -0.0713461 0)
(-0.156033 -0.0711437 0)
(-0.142782 -0.0703078 0)
(-0.129385 -0.0688345 0)
(-0.115944 -0.0667336 0)
(-0.10257 -0.0640286 0)
(-0.0893708 -0.0607569 0)
(-0.0764578 -0.0569692 0)
(-0.0639369 -0.0527281 0)
(-0.0519075 -0.048106 0)
(-0.0404602 -0.043183 0)
(-0.0296746 -0.0380438 0)
(-0.0196178 -0.0327755 0)
(-0.0103443 -0.0274648 0)
(-0.00189587 -0.0221955 0)
(0.0056979 -0.0170475 0)
(0.0124186 -0.0120942 0)
(0.0182581 -0.00740197 0)
(0.0232178 -0.00302921 0)
(0.0273091 0.000973029 0)
(0.0305521 0.00456434 0)
(0.0329747 0.00771507 0)
(0.0346148 0.0104064 0)
(0.0355199 0.012631 0)
(0.0357464 0.0143931 0)
(0.0353588 0.0157087 0)
(0.0344286 0.0166043 0)
(0.0330321 0.0171158 0)
(0.0312481 0.0172863 0)
(0.0291557 0.0171638 0)
(0.0268312 0.0167987 0)
(0.0243461 0.0162405 0)
(0.0217658 0.0155354 0)
(0.0191477 0.0147226 0)
(0.0165418 0.0138324 0)
(0.0139906 0.0128828 0)
(0.0115307 0.0118783 0)
(0.00919477 0.0108087 0)
(0.00701462 0.00964971 0)
(0.00502445 0.00836575 0)
(0.00326494 0.00691422 0)
(0.0017902 0.00525277 0)
(0.000684476 0.00334889 0)
(5.33956e-05 0.00119314 0)
(4.62619e-05 -0.00152311 0)
(0.00062108 -0.0041298 0)
(0.00161966 -0.00623392 0)
(0.00290003 -0.00778973 0)
(0.0043275 -0.00878132 0)
(0.00578825 -0.00922374 0)
(0.0071842 -0.00916004 0)
(0.00843384 -0.00865537 0)
(0.00947316 -0.00778939 0)
(0.0102552 -0.00664822 0)
(0.0107481 -0.00531708 0)
(0.0109325 -0.00387395 0)
(0.0107982 -0.00238473 0)
(0.0103405 -0.000899909 0)
(0.00955716 0.00054733 0)
(0.00844489 0.00194169 0)
(0.00699671 0.00328513 0)
(0.00519963 0.00459491 0)
(0.00303344 0.0059007 0)
(0.000469926 0.00724128 0)
(-0.00252685 0.00865967 0)
(-0.00599907 0.0101992 0)
(-0.00999341 0.0118995 0)
(-0.0145585 0.0137929 0)
(-0.019742 0.0159028 0)
(-0.0255881 0.018242 0)
(-0.0321344 0.0208128 0)
(-0.0394094 0.0236076 0)
(-0.0474301 0.0266088 0)
(-0.0561991 0.0297901 0)
(-0.0657032 0.0331167 0)
(-0.075911 0.0365456 0)
(-0.086772 0.0400262 0)
(-0.0982173 0.0435016 0)
(-0.11016 0.0469098 0)
(-0.122499 0.0501864 0)
(-0.135122 0.0532669 0)
(-0.147909 0.0560897 0)
(-0.16074 0.0585988 0)
(-0.1735 0.0607463 0)
(-0.186078 0.0624936 0)
(-0.198378 0.063813 0)
(-0.210315 0.0646871 0)
(-0.22182 0.0651086 0)
(-0.232838 0.0650793 0)
(-0.243325 0.0646083 0)
(-0.253253 0.063711 0)
(-0.262603 0.0624069 0)
(-0.271362 0.0607188 0)
(-0.279526 0.058671 0)
(-0.287096 0.0562885 0)
(-0.294076 0.0535964 0)
(-0.30047 0.0506186 0)
(-0.306287 0.0473782 0)
(-0.311534 0.0438966 0)
(-0.316218 0.0401936 0)
(-0.320346 0.0362874 0)
(-0.323924 0.0321944 0)
(-0.326956 0.02793 0)
(-0.329446 0.0235077 0)
(-0.331396 0.0189404 0)
(-0.332807 0.0142398 0)
(-0.333677 0.00941767 0)
(-0.334002 0.00448564 0)
(-0.333778 -0.000544006 0)
(-0.333002 -0.00565947 0)
(-0.331667 -0.010848 0)
(-0.329763 -0.0160942 0)
(-0.327279 -0.0213812 0)
(-0.324203 -0.026689 0)
(-0.320522 -0.0319952 0)
(-0.316221 -0.0372736 0)
(-0.311287 -0.0424942 0)
(-0.305704 -0.0476232 0)
(-0.29946 -0.0526219 0)
(-0.29254 -0.0574474 0)
(-0.284936 -0.0620523 0)
(-0.27664 -0.0663852 0)
(-0.26765 -0.0703911 0)
(-0.257971 -0.0740124 0)
(-0.247615 -0.0771899 0)
(-0.236601 -0.0798646 0)
(-0.22496 -0.0819794 0)
(-0.212736 -0.0834811 0)
(-0.199983 -0.084323 0)
(-0.186769 -0.0844672 0)
(-0.173176 -0.0838869 0)
(-0.159297 -0.0825688 0)
(-0.145237 -0.0805149 0)
(-0.13111 -0.0777435 0)
(-0.117036 -0.07429 0)
(-0.103137 -0.0702062 0)
(-0.0895358 -0.0655592 0)
(-0.0763491 -0.0604289 0)
(-0.0636852 -0.0549059 0)
(-0.0516409 -0.0490873 0)
(-0.040299 -0.0430736 0)
(-0.0297267 -0.0369652 0)
(-0.0199758 -0.0308598 0)
(-0.0110831 -0.0248492 0)
(-0.0030718 -0.0190184 0)
(0.00404697 -0.0134438 0)
(0.0102719 -0.0081929 0)
(0.0156107 -0.00332383 0)
(0.0200789 0.00111471 0)
(0.0236991 0.00508414 0)
(0.0265006 0.00855743 0)
(0.028521 0.0115184 0)
(0.0298053 0.0139628 0)
(0.0304071 0.0158985 0)
(0.0303871 0.0173452 0)