/*--------------------------------*- C++ -*----------------------------------*\
| =========                 |                                                 |
| \\      /  F ield         | OpenFOAM: The Open Source CFD Toolbox           |
|  \\    /   O peration     | Version:  2406                                  |
|   \\  /    A nd           | Website:  www.openfoam.com                      |
|    \\/     M anipulation  |                                                 |
\*---------------------------------------------------------------------------*/
FoamFile
{
    version     2.0;
    format      ascii;
    arch        "LSB;label=32;scalar=64";
    class       volVectorField;
    location    "33.55";
    object      U;
}
// * * * * * * * * * * * * * * * * * * * * * * * * * * * * * * * * * * * * * //

dimensions      [0 1 -1 0 0 0 0];

internalField   nonuniform List<vector> 
14400
(
(-1.74376e-05 1.73862e-05 0)
(-6.54366e-07 -1.12283e-05 0)
(0.000107108 -4.21675e-05 0)
(0.000291357 -6.94095e-05 0)
(0.000540757 -8.54359e-05 0)
(0.000822541 -9.42452e-05 0)
(0.00112231 -9.49903e-05 0)
(0.00141494 -9.068e-05 0)
(0.00169036 -8.18091e-05 0)
(0.00193413 -7.0601e-05 0)
(0.00214263 -5.79647e-05 0)
(0.0023112 -4.54755e-05 0)
(0.00244224 -3.38729e-05 0)
(0.002538 -2.40226e-05 0)
(0.00260446 -1.62058e-05 0)
(0.00264702 -1.06227e-05 0)
(0.00267222 -7.0839e-06 0)
(0.00268518 -5.29753e-06 0)
(0.0026904 -4.75792e-06 0)
(0.00269046 -4.92491e-06 0)
(0.00268647 -5.20308e-06 0)
(0.00267761 -5.05669e-06 0)
(0.00266162 -4.01396e-06 0)
(0.00263484 -1.72374e-06 0)
(0.00259268 2.05768e-06 0)
(0.00252985 7.465e-06 0)
(0.00244069 1.45618e-05 0)
(0.00231933 2.33675e-05 0)
(0.00215982 3.38943e-05 0)
(0.00195611 4.61652e-05 0)
(0.00170207 6.02257e-05 0)
(0.00139145 7.61384e-05 0)
(0.0010179 9.39716e-05 0)
(0.000574975 0.000113783 0)
(5.62732e-05 0.000135603 0)
(-0.000544457 0.00015942 0)
(-0.00123313 0.000185174 0)
(-0.00201514 0.000212741 0)
(-0.0028951 0.000241935 0)
(-0.00387665 0.000272501 0)
(-0.00496223 0.000304113 0)
(-0.0061528 0.000336378 0)
(-0.0074477 0.000368833 0)
(-0.00884438 0.000400955 0)
(-0.0103383 0.000432167 0)
(-0.0119229 0.000461843 0)
(-0.0135892 0.000489324 0)
(-0.0153261 0.000513928 0)
(-0.0171204 0.000534958 0)
(-0.0189567 0.000551718 0)
(-0.0208173 0.000563524 0)
(-0.0226829 0.000569709 0)
(-0.0245325 0.00056964 0)
(-0.0263434 0.000562721 0)
(-0.0280919 0.000548404 0)
(-0.029753 0.0005262 0)
(-0.0313014 0.000495692 0)
(-0.0327113 0.000456547 0)
(-0.0339567 0.000408539 0)
(-0.0350123 0.000351564 0)
(-0.0358536 0.000285672 0)
(-0.0364572 0.000211087 0)
(-0.0368015 0.000128242 0)
(-0.0368675 3.7802e-05 0)
(-0.0366388 -5.93077e-05 0)
(-0.0361029 -0.000161881 0)
(-0.035251 -0.000268418 0)
(-0.0340795 -0.000377126 0)
(-0.03259 -0.00048593 0)
(-0.03079 -0.000592504 0)
(-0.0286932 -0.000694324 0)
(-0.02632 -0.000788736 0)
(-0.0236975 -0.000873049 0)
(-0.0208591 -0.000944645 0)
(-0.0178446 -0.0010011 0)
(-0.0146992 -0.00104032 0)
(-0.0114726 -0.00106067 0)
(-0.00821786 -0.00106109 0)
(-0.0049898 -0.00104119 0)
(-0.00184353 -0.00100132 0)
(0.00116748 -0.000942591 0)
(0.00399314 -0.000866866 0)
(0.0065885 -0.00077666 0)
(0.00891533 -0.000675044 0)
(0.0109434 -0.000565472 0)
(0.0126515 -0.000451603 0)
(0.0140278 -0.000337101 0)
(0.01507 -0.000225438 0)
(0.0157853 -0.000119722 0)
(0.0161889 -2.25641e-05 0)
(0.0163035 6.40215e-05 0)
(0.0161577 0.000138657 0)
(0.0157842 0.000200602 0)
(0.0152185 0.000249709 0)
(0.0144971 0.00028635 0)
(0.0136561 0.00031132 0)
(0.01273 0.000325734 0)
(0.0117504 0.000330916 0)
(0.0107457 0.000328314 0)
(0.00974014 0.000319388 0)
(0.00875392 0.000305577 0)
(0.00780315 0.000288191 0)
(0.00689979 0.000268443 0)
(0.00605244 0.000247342 0)
(0.00526609 0.000225798 0)
(0.00454348 0.000204479 0)
(0.00388427 0.000184027 0)
(0.00328726 0.000164793 0)
(0.00274842 0.000147229 0)
(0.00226457 0.000131347 0)
(0.00182956 0.000117436 0)
(0.00144053 0.000104972 0)
(0.00109127 9.40048e-05 0)
(0.000782662 8.30253e-05 0)
(0.000511458 7.18149e-05 0)
(0.000286353 5.72942e-05 0)
(0.000110287 3.98628e-05 0)
(-6.74526e-07 1.56289e-05 0)
(-4.23039e-05 -7.37429e-06 0)
(-2.23651e-05 -2.19314e-05 0)
(1.00713e-05 1.29819e-06 0)
(0.000150515 -0.000153569 0)
(0.000478689 -0.000310186 0)
(0.000954767 -0.000447704 0)
(0.00156316 -0.000537447 0)
(0.00224152 -0.000587738 0)
(0.00295782 -0.000596138 0)
(0.00366058 -0.000573143 0)
(0.00432366 -0.000523598 0)
(0.00491565 -0.00045746 0)
(0.00542427 -0.000381346 0)
(0.00583808 -0.000303187 0)
(0.00615861 -0.000228225 0)
(0.00638916 -0.000161143 0)
(0.00654009 -0.00010429 0)
(0.00662179 -5.88363e-05 0)
(0.00664662 -2.41529e-05 0)
(0.00662459 1.4148e-06 0)
(0.006564 2.05948e-05 0)
(0.00646916 3.65827e-05 0)
(0.00634086 5.28522e-05 0)
(0.00617558 7.26991e-05 0)
(0.00596628 9.90537e-05 0)
(0.00570255 0.000134247 0)
(0.0053716 0.000179987 0)
(0.0049588 0.000237377 0)
(0.00444839 0.000307057 0)
(0.00382397 0.000389349 0)
(0.00306884 0.000484422 0)
(0.00216619 0.000592385 0)
(0.00109929 0.000713336 0)
(-0.000148428 0.000847334 0)
(-0.00159309 0.000994334 0)
(-0.00325013 0.0011541 0)
(-0.00513386 0.0013261 0)
(-0.007257 0.00150946 0)
(-0.00963009 0.00170287 0)
(-0.0122609 0.00190458 0)
(-0.0151538 0.00211237 0)
(-0.0183093 0.00232353 0)
(-0.0217232 0.00253495 0)
(-0.0253866 0.00274308 0)
(-0.0292852 0.00294405 0)
(-0.0333992 0.00313373 0)
(-0.0377035 0.00330779 0)
(-0.0421672 0.00346185 0)
(-0.0467545 0.00359155 0)
(-0.0514248 0.00369265 0)
(-0.0561332 0.00376115 0)
(-0.0608314 0.00379335 0)
(-0.065468 0.00378595 0)
(-0.0699897 0.0037361 0)
(-0.074342 0.00364145 0)
(-0.0784698 0.00350019 0)
(-0.0823184 0.0033111 0)
(-0.0858343 0.00307355 0)
(-0.0889658 0.00278757 0)
(-0.0916635 0.00245381 0)
(-0.0938815 0.00207364 0)
(-0.0955775 0.00164914 0)
(-0.0967138 0.00118318 0)
(-0.0972574 0.000679424 0)
(-0.0971811 0.000142394 0)
(-0.096464 -0.000422479 0)
(-0.0950917 -0.00100883 0)
(-0.0930574 -0.00160935 0)
(-0.090362 -0.00221578 0)
(-0.0870149 -0.00281896 0)
(-0.0830347 -0.00340896 0)
(-0.0784489 -0.00397513 0)
(-0.0732949 -0.00450639 0)
(-0.0676196 -0.00499144 0)
(-0.0614796 -0.00541908 0)
(-0.0549406 -0.0057786 0)
(-0.0480771 -0.00606017 0)
(-0.0409714 -0.00625531 0)
(-0.0337122 -0.00635732 0)
(-0.0263935 -0.00636167 0)
(-0.0191122 -0.00626641 0)
(-0.0119664 -0.00607239 0)
(-0.00505312 -0.00578346 0)
(0.0015345 -0.00540646 0)
(0.00770937 -0.00495106 0)
(0.013393 -0.00442952 0)
(0.0185178 -0.00385617 0)
(0.0230289 -0.00324685 0)
(0.026886 -0.00261828 0)
(0.0300643 -0.00198725 0)
(0.032555 -0.00136997 0)
(0.0343652 -0.000781316 0)
(0.0355177 -0.00023429 0)
(0.0360492 0.000260483 0)
(0.0360084 0.00069506 0)
(0.0354546 0.00106432 0)
(0.0344541 0.00136597 0)
(0.033078 0.00160032 0)
(0.0313991 0.00177005 0)
(0.0294898 0.00187976 0)
(0.0274186 0.00193553 0)
(0.0252492 0.00194441 0)
(0.0230381 0.00191402 0)
(0.0208346 0.00185201 0)
(0.0186787 0.00176589 0)
(0.0166028 0.00166253 0)
(0.0146306 0.00154825 0)
(0.0127789 0.00142837 0)
(0.0110569 0.00130764 0)
(0.00946943 0.00118953 0)
(0.00801467 0.00107718 0)
(0.00669014 0.000971988 0)
(0.00548735 0.000875301 0)
(0.0044023 0.000785575 0)
(0.00342528 0.000701969 0)
(0.00255838 0.000618569 0)
(0.00179686 0.000532671 0)
(0.00115642 0.000433274 0)
(0.000640142 0.000321088 0)
(0.00027542 0.000185545 0)
(5.91323e-05 5.63775e-05 0)
(-7.4615e-06 -4.22113e-05 0)
(3.83521e-05 -0.000101622 0)
(0.000298175 -0.000479 0)
(0.000826452 -0.000842339 0)
(0.00154208 -0.00115245 0)
(0.00242804 -0.00136169 0)
(0.003399 -0.00147691 0)
(0.00441397 -0.00149613 0)
(0.00540442 -0.00143795 0)
(0.00633455 -0.00131581 0)
(0.00716175 -0.00115071 0)
(0.00786755 -0.000959513 0)
(0.00843516 -0.000760019 0)
(0.00886414 -0.000565493 0)
(0.00915691 -0.000386809 0)
(0.00932481 -0.000230154 0)
(0.00937956 -9.83173e-05 0)
(0.00933521 9.87732e-06 0)
(0.0092028 9.84327e-05 0)
(0.00899082 0.000173833 0)
(0.00870232 0.000243926 0)
(0.00833534 0.000317217 0)
(0.00788197 0.00040192 0)
(0.00732924 0.000505369 0)
(0.00665954 0.000633516 0)
(0.00585181 0.000790789 0)
(0.00488237 0.000980134 0)
(0.00372603 0.00120329 0)
(0.00235676 0.00146111 0)
(0.000748374 0.00175389 0)
(-0.00112501 0.00208155 0)
(-0.00328853 0.00244374 0)
(-0.00576605 0.00283972 0)
(-0.00857961 0.00326823 0)
(-0.0117487 0.00372724 0)
(-0.0152893 0.00421379 0)
(-0.0192131 0.00472378 0)
(-0.0235266 0.00525191 0)
(-0.02823 0.00579164 0)
(-0.0333162 0.00633521 0)
(-0.0387707 0.00687376 0)
(-0.0445705 0.00739748 0)
(-0.0506844 0.0078958 0)
(-0.0570726 0.00835771 0)
(-0.0636875 0.00877199 0)
(-0.0704741 0.00912758 0)
(-0.0773711 0.00941385 0)
(-0.084312 0.00962092 0)
(-0.0912263 0.00973992 0)
(-0.0980411 0.00976323 0)
(-0.104682 0.00968458 0)
(-0.111076 0.00949924 0)
(-0.117151 0.00920402 0)
(-0.122836 0.00879729 0)
(-0.128067 0.00827893 0)
(-0.13278 0.00765032 0)
(-0.136921 0.00691419 0)
(-0.140436 0.00607465 0)
(-0.14328 0.00513703 0)
(-0.145414 0.00410792 0)
(-0.146804 0.00299511 0)
(-0.147422 0.00180761 0)
(-0.147248 0.000555663 0)
(-0.146268 -0.000749214 0)
(-0.144472 -0.00209417 0)
(-0.141861 -0.00346502 0)
(-0.138441 -0.00484618 0)
(-0.134225 -0.00622073 0)
(-0.129236 -0.00757046 0)
(-0.123502 -0.00887603 0)
(-0.117062 -0.0101172 0)
(-0.109962 -0.0112729 0)
(-0.102257 -0.0123223 0)
(-0.0940124 -0.0132444 0)
(-0.0852994 -0.0140193 0)
(-0.0761996 -0.0146287 0)
(-0.0668018 -0.0150566 0)
(-0.0572015 -0.01529 0)
(-0.0475 -0.0153196 0)
(-0.0378029 -0.0151407 0)
(-0.0282182 -0.0147534 0)
(-0.0188545 -0.0141635 0)
(-0.00981862 -0.0133819 0)
(-0.00121347 -0.012425 0)
(0.0068645 -0.0113145 0)
(0.0143276 -0.0100764 0)
(0.0210991 -0.00874035 0)
(0.0271154 -0.00733856 0)
(0.0323276 -0.00590475 0)
(0.0367028 -0.00447275 0)
(0.0402253 -0.00307528 0)
(0.0428968 -0.00174271 0)
(0.0447361 -0.000501947 0)
(0.045779 0.000624514 0)
(0.0460761 0.00161928 0)
(0.0456918 0.00247051 0)
(0.0447011 0.00317207 0)
(0.0431872 0.00372341 0)
(0.0412381 0.00412905 0)
(0.0389436 0.004398 0)
(0.0363916 0.00454278 0)
(0.0336658 0.00457855 0)
(0.0308428 0.00452195 0)
(0.0279902 0.0043903 0)
(0.0251661 0.00420057 0)
(0.0224174 0.00396894 0)
(0.019781 0.00370995 0)
(0.0172827 0.00343666 0)
(0.0149408 0.00315962 0)
(0.0127633 0.00288777 0)
(0.0107553 0.00262656 0)
(0.00891246 0.0023799 0)
(0.00723483 0.00214628 0)
(0.00571346 0.00192344 0)
(0.00435371 0.00170064 0)
(0.0031497 0.00147043 0)
(0.00212281 0.0012135 0)
(0.00127241 0.000928526 0)
(0.000638229 0.000601163 0)
(0.000208695 0.000279643 0)
(1.98814e-05 5.45491e-06 0)
(6.29032e-05 -0.000274702 0)
(0.000428839 -0.000945789 0)
(0.00112824 -0.00155572 0)
(0.00203561 -0.0020573 0)
(0.00313168 -0.00239496 0)
(0.00431107 -0.0025743 0)
(0.00552897 -0.00259584 0)
(0.00670497 -0.00248631 0)
(0.00779863 -0.00226904 0)
(0.00875995 -0.00197699 0)
(0.00956698 -0.00163859 0)
(0.0101989 -0.00128261 0)
(0.0106532 -0.000931371 0)
(0.0109306 -0.000602651 0)
(0.0110411 -0.000306908 0)
(0.0109952 -4.86231e-05 0)
(0.0108056 0.000174206 0)
(0.010481 0.000368535 0)
(0.010027 0.000545475 0)
(0.00944254 0.000718564 0)
(0.00872044 0.000902445 0)
(0.00784646 0.00111131 0)
(0.00680039 0.00135785 0)
(0.00555659 0.00165237 0)
(0.00408551 0.00200253 0)
(0.0023548 0.00241339 0)
(0.000330656 0.00288782 0)
(-0.00202113 0.00342692 0)
(-0.00473418 0.00403055 0)
(-0.00784068 0.00469755 0)
(-0.0113704 0.00542577 0)
(-0.0153497 0.00621191 0)
(-0.0198005 0.00705123 0)
(-0.0247388 0.00793718 0)
(-0.0301735 0.00886118 0)
(-0.0361053 0.00981238 0)
(-0.042525 0.0107777 0)
(-0.0494131 0.0117419 0)
(-0.0567389 0.0126878 0)
(-0.0644606 0.0135969 0)
(-0.0725252 0.0144496 0)
(-0.0808697 0.015226 0)
(-0.0894219 0.0159065 0)
(-0.0981024 0.0164723 0)
(-0.106827 0.0169063 0)
(-0.115506 0.0171933 0)
(-0.124053 0.0173208 0)
(-0.132378 0.017279 0)
(-0.140396 0.0170609 0)
(-0.148027 0.0166627 0)
(-0.155195 0.0160831 0)
(-0.161832 0.0153238 0)
(-0.167876 0.0143886 0)
(-0.173273 0.0132834 0)
(-0.177974 0.012016 0)
(-0.18194 0.0105955 0)
(-0.185137 0.0090327 0)
(-0.187537 0.00733916 0)
(-0.189118 0.00552772 0)
(-0.189864 0.00361219 0)
(-0.189764 0.00160744 0)
(-0.188811 -0.000470552 0)
(-0.187003 -0.00260458 0)
(-0.184343 -0.0047761 0)
(-0.180838 -0.00696513 0)
(-0.176501 -0.00915012 0)
(-0.171349 -0.0113079 0)
(-0.165406 -0.0134138 0)
(-0.158701 -0.0154416 0)
(-0.15127 -0.0173639 0)
(-0.143154 -0.0191521 0)
(-0.134405 -0.0207774 0)
(-0.125081 -0.0222111 0)
(-0.115247 -0.0234253 0)
(-0.104978 -0.0243941 0)
(-0.0943565 -0.0250942 0)
(-0.0834717 -0.0255062 0)
(-0.0724203 -0.0256154 0)
(-0.0613041 -0.0254129 0)
(-0.0502294 -0.0248964 0)
(-0.0393046 -0.024071 0)
(-0.028639 -0.0229491 0)
(-0.0183399 -0.0215507 0)
(-0.00851091 -0.0199033 0)
(0.000750618 -0.0180409 0)
(0.0093555 -0.0160033 0)
(0.0172249 -0.0138348 0)
(0.024292 -0.0115828 0)
(0.0305037 -0.00929618 0)
(0.0358218 -0.00702386 0)
(0.040224 -0.00481294 0)
(0.0437045 -0.0027073 0)
(0.0462746 -0.000746079 0)
(0.0479619 0.00103757 0)
(0.0488105 0.00261753 0)
(0.0488789 0.00397543 0)
(0.0482391 0.00510109 0)
(0.0469736 0.00599247 0)
(0.0451726 0.00665529 0)
(0.042931 0.00710218 0)
(0.0403446 0.0073516 0)
(0.0375069 0.00742632 0)
(0.0345056 0.00735206 0)
(0.0314211 0.00715578 0)
(0.0283227 0.00686457 0)
(0.0252698 0.00650409 0)
(0.0223084 0.00609816 0)
(0.0194757 0.00566716 0)
(0.0167949 0.00522858 0)
(0.0142848 0.00479458 0)
(0.0119509 0.00437385 0)
(0.00980236 0.00396703 0)
(0.00783483 0.00357185 0)
(0.00605998 0.00317439 0)
(0.00447172 0.00276293 0)
(0.00309806 0.0023113 0)
(0.00193329 0.00181407 0)
(0.00103222 0.00125218 0)
(0.000376795 0.000678516 0)
(5.13652e-05 0.000138287 0)
(7.82089e-05 -0.000510419 0)
(0.000523177 -0.00154802 0)
(0.0013571 -0.00244777 0)
(0.00241364 -0.00316144 0)
(0.00366792 -0.00363403 0)
(0.00499428 -0.00387141 0)
(0.00634437 -0.00387996 0)
(0.00762777 -0.00369553 0)
(0.00880166 -0.00335347 0)
(0.00981113 -0.00289986 0)
(0.0106328 -0.00237622 0)
(0.0112432 -0.00182319 0)
(0.0116389 -0.00127293 0)
(0.0118182 -0.000750428 0)
(0.0117897 -0.000270446 0)
(0.0115607 0.000161235 0)
(0.0111405 0.000548111 0)
(0.0105334 0.000901051 0)
(0.00973936 0.00123691 0)
(0.00875069 0.00157609 0)
(0.00755275 0.00194052 0)
(0.00612306 0.00235132 0)
(0.0044328 0.00282723 0)
(0.00244758 0.00338332 0)
(0.000129404 0.00403058 0)
(-0.00256199 0.00477591 0)
(-0.0056673 0.00562268 0)
(-0.00922635 0.00657127 0)
(-0.0132765 0.00761967 0)
(-0.0178514 0.00876364 0)
(-0.0229794 0.00999674 0)
(-0.0286816 0.01131 0)
(-0.0349707 0.0126915 0)
(-0.041849 0.014126 0)
(-0.0493068 0.0155948 0)
(-0.0573212 0.0170758 0)
(-0.0658556 0.0185436 0)
(-0.0748592 0.0199703 0)
(-0.0842675 0.0213262 0)
(-0.0940041 0.0225808 0)
(-0.103982 0.0237038 0)
(-0.114106 0.0246666 0)
(-0.124277 0.0254428 0)
(-0.134392 0.0260096 0)
(-0.144351 0.0263483 0)
(-0.154056 0.0264448 0)
(-0.163415 0.0262897 0)
(-0.172346 0.0258783 0)
(-0.180772 0.0252103 0)
(-0.188627 0.0242893 0)
(-0.195856 0.0231224 0)
(-0.20241 0.0217193 0)
(-0.20825 0.0200918 0)
(-0.213344 0.0182536 0)
(-0.217667 0.0162193 0)
(-0.221199 0.0140045 0)
(-0.223925 0.0116256 0)
(-0.225835 0.00909918 0)
(-0.226921 0.0064425 0)
(-0.227177 0.00367337 0)
(-0.226601 0.000810287 0)
(-0.225192 -0.00212733 0)
(-0.222952 -0.00511888 0)
(-0.219883 -0.00814236 0)
(-0.215993 -0.0111741 0)
(-0.211288 -0.0141884 0)
(-0.205782 -0.0171576 0)
(-0.199491 -0.0200519 0)
(-0.192434 -0.0228394 0)
(-0.184637 -0.0254862 0)
(-0.176134 -0.0279567 0)
(-0.166962 -0.0302144 0)
(-0.15717 -0.0322224 0)
(-0.146812 -0.0339444 0)
(-0.135953 -0.0353459 0)
(-0.124665 -0.0363951 0)
(-0.113032 -0.0370647 0)
(-0.101142 -0.0373331 0)
(-0.0890937 -0.0371855 0)
(-0.0769905 -0.0366156 0)
(-0.0649405 -0.0356257 0)
(-0.053054 -0.0342281 0)
(-0.0414418 -0.032445 0)
(-0.0302122 -0.0303079 0)
(-0.0194694 -0.0278575 0)
(-0.00931085 -0.025142 0)
(0.00017477 -0.0222163 0)
(0.00890903 -0.0191399 0)
(0.0168253 -0.0159752 0)
(0.0238698 -0.0127856 0)
(0.0300027 -0.0096337 0)
(0.0351985 -0.00657938 0)
(0.0394465 -0.00367815 0)
(0.0427518 -0.000979516 0)
(0.0451347 0.00147443 0)
(0.046631 0.00365025 0)
(0.0472914 0.00552415 0)
(0.0471803 0.00708256 0)
(0.0463744 0.00832239 0)
(0.0449601 0.0092506 0)
(0.0430305 0.00988347 0)
(0.0406827 0.0102451 0)
(0.0380129 0.0103659 0)
(0.0351148 0.0102805 0)
(0.0320743 0.0100256 0)
(0.0289698 0.00963805 0)
(0.0258668 0.00915365 0)
(0.0228221 0.00860442 0)
(0.019877 0.0080187 0)
(0.0170672 0.00741792 0)
(0.0144118 0.00681803 0)
(0.0119327 0.00622436 0)
(0.00963371 0.00563645 0)
(0.00753583 0.0050394 0)
(0.0056351 0.00441773 0)
(0.00396867 0.00373978 0)
(0.00252825 0.00299305 0)
(0.00138725 0.00215214 0)
(0.000525379 0.00126108 0)
(7.755e-05 0.000356696 0)
(8.9649e-05 -0.000783573 0)
(0.000595777 -0.00223925 0)
(0.00153251 -0.00345438 0)
(0.00269954 -0.00438455 0)
(0.00406392 -0.00498266 0)
(0.00548115 -0.00525902 0)
(0.00689894 -0.00522977 0)
(0.00821844 -0.00494178 0)
(0.00939583 -0.00444417 0)
(0.0103731 -0.00379688 0)
(0.011127 -0.00305497 0)
(0.0116329 -0.00227081 0)
(0.0118868 -0.00148597 0)
(0.011885 -0.000731914 0)
(0.0116334 -2.67742e-05 0)
(0.0111355 0.00062346 0)
(0.0103951 0.00122491 0)
(0.00940972 0.00179349 0)
(0.00817154 0.0023528 0)
(0.00666393 0.00293094 0)
(0.00486274 0.00355762 0)
(0.00273577 0.00426109 0)
(0.000244812 0.00506593 0)
(-0.00265317 0.0059914 0)
(-0.00600361 0.00705085 0)
(-0.0098525 0.0082517 0)
(-0.0142442 0.00959607 0)
(-0.0192194 0.0110814 0)
(-0.0248135 0.0127011 0)
(-0.031054 0.0144444 0)
(-0.0379586 0.0162967 0)
(-0.0455332 0.0182386 0)
(-0.0537697 0.0202461 0)
(-0.0626444 0.0222903 0)
(-0.072117 0.0243376 0)
(-0.0821302 0.0263503 0)
(-0.0926108 0.028288 0)
(-0.103471 0.0301083 0)
(-0.11461 0.0317693 0)
(-0.12592 0.0332306 0)
(-0.137288 0.0344555 0)
(-0.1486 0.0354121 0)
(-0.159744 0.0360744 0)
(-0.170617 0.0364233 0)
(-0.181122 0.0364465 0)
(-0.191175 0.0361383 0)
(-0.200704 0.0354993 0)
(-0.209645 0.0345355 0)
(-0.217951 0.0332572 0)
(-0.22558 0.0316783 0)
(-0.232503 0.0298152 0)
(-0.238698 0.0276859 0)
(-0.244147 0.0253094 0)
(-0.24884 0.0227051 0)
(-0.252769 0.0198924 0)
(-0.255927 0.0168907 0)
(-0.258312 0.0137188 0)
(-0.259921 0.0103955 0)
(-0.260751 0.00693936 0)
(-0.260801 0.00336932 0)
(-0.260067 -0.000295309 0)
(-0.258549 -0.00403431 0)
(-0.256243 -0.00782619 0)
(-0.253148 -0.0116477 0)
(-0.249264 -0.0154736 0)
(-0.24459 -0.0192761 0)
(-0.239129 -0.0230246 0)
(-0.232887 -0.0266857 0)
(-0.225873 -0.0302231 0)
(-0.218101 -0.0335974 0)
(-0.20959 -0.0367667 0)
(-0.200368 -0.0396873 0)
(-0.190467 -0.0423142 0)
(-0.179933 -0.0446022 0)
(-0.168817 -0.0465074 0)
(-0.157182 -0.0479888 0)
(-0.145101 -0.0490095 0)
(-0.132659 -0.0495391 0)
(-0.119948 -0.049555 0)
(-0.10707 -0.0490444 0)
(-0.0941332 -0.0480052 0)
(-0.0812504 -0.0464472 0)
(-0.0685371 -0.0443924 0)
(-0.0561081 -0.0418748 0)
(-0.0440752 -0.0389398 0)
(-0.0325445 -0.0356429 0)
(-0.0216136 -0.0320477 0)
(-0.0113706 -0.0282242 0)
(-0.00189184 -0.0242466 0)
(0.00675844 -0.0201907 0)
(0.014529 -0.0161325 0)
(0.0213816 -0.0121452 0)
(0.0272912 -0.00829845 0)
(0.0322461 -0.0046561 0)
(0.0362481 -0.00127484 0)
(0.0393125 0.00179716 0)
(0.0414687 0.00452158 0)
(0.0427597 0.00687102 0)
(0.0432422 0.0088298 0)
(0.0429855 0.0103944 0)
(0.0420693 0.0115731 0)
(0.0405823 0.0123854 0)
(0.038618 0.0128607 0)
(0.0362727 0.0130357 0)
(0.03364 0.0129531 0)
(0.0308102 0.012658 0)
(0.0278637 0.0121963 0)
(0.0248742 0.0116114 0)
(0.0219002 0.010943 0)
(0.0189951 0.0102234 0)
(0.0161934 0.00947765 0)
(0.0135322 0.00871817 0)
(0.011026 0.00794855 0)
(0.00870781 0.00715556 0)
(0.00657874 0.00632111 0)
(0.00468716 0.0054095 0)
(0.00302538 0.00439833 0)
(0.00168626 0.00325284 0)
(0.000650911 0.00199566 0)
(9.94438e-05 0.000644509 0)
(9.72307e-05 -0.00109075 0)
(0.000647828 -0.00300905 0)
(0.00165932 -0.0045615 0)
(0.00290257 -0.00571077 0)
(0.00433495 -0.00642191 0)
(0.00579426 -0.00671348 0)
(0.00722331 -0.00661534 0)
(0.00851584 -0.0061881 0)
(0.00962752 -0.00549703 0)
(0.0104987 -0.0046171 0)
(0.0111074 -0.00361769 0)
(0.0114287 -0.0025627 0)
(0.0114585 -0.00150257 0)
(0.0111916 -0.000474063 0)
(0.0106305 0.000502692 0)
(0.00977361 0.00142308 0)
(0.00861785 0.00229741 0)
(0.00715216 0.00314808 0)
(0.00535878 0.00400661 0)
(0.00321043 0.00490955 0)
(0.000672117 0.00589458 0)
(-0.00229865 0.00699675 0)
(-0.00574918 0.00824553 0)
(-0.00972966 0.00966285 0)
(-0.0142902 0.0112624 0)
(-0.0194784 0.0130496 0)
(-0.0253367 0.0150222 0)
(-0.0318998 0.0171711 0)
(-0.0391919 0.0194808 0)
(-0.0472244 0.0219292 0)
(-0.0559932 0.024488 0)
(-0.0654767 0.0271221 0)
(-0.0756343 0.0297902 0)
(-0.0864055 0.0324452 0)
(-0.097711 0.0350353 0)
(-0.109455 0.037506 0)
(-0.121526 0.0398022 0)
(-0.133804 0.0418705 0)
(-0.146164 0.0436619 0)
(-0.158482 0.0451335 0)
(-0.170637 0.0462502 0)
(-0.182518 0.0469862 0)
(-0.194024 0.0473246 0)
(-0.205071 0.0472579 0)
(-0.215587 0.0467866 0)
(-0.225515 0.0459182 0)
(-0.234811 0.0446662 0)
(-0.243442 0.0430481 0)
(-0.251388 0.0410848 0)
(-0.258632 0.0387986 0)
(-0.265166 0.0362128 0)
(-0.270986 0.0333507 0)
(-0.27609 0.0302349 0)
(-0.280479 0.0268876 0)
(-0.284152 0.0233294 0)
(-0.28711 0.0195803 0)
(-0.289353 0.0156591 0)
(-0.290879 0.0115842 0)
(-0.291687 0.0073736 0)
(-0.291771 0.00304531 0)
(-0.291128 -0.00138204 0)
(-0.28975 -0.00588877 0)
(-0.28763 -0.0104536 0)
(-0.284762 -0.0150533 0)
(-0.281135 -0.0196617 0)
(-0.276744 -0.02425 0)
(-0.271581 -0.0287854 0)
(-0.265642 -0.0332316 0)
(-0.258924 -0.0375483 0)
(-0.251429 -0.0416912 0)
(-0.243162 -0.0456124 0)
(-0.234138 -0.0492608 0)
(-0.224376 -0.0525828 0)
(-0.213904 -0.0555239 0)
(-0.202763 -0.0580296 0)
(-0.191002 -0.0600478 0)
(-0.178684 -0.0615304 0)
(-0.165883 -0.0624357 0)
(-0.152687 -0.0627308 0)
(-0.139193 -0.0623936 0)
(-0.125512 -0.0614149 0)
(-0.111759 -0.0597994 0)
(-0.0980561 -0.0575671 0)
(-0.0845288 -0.0547529 0)
(-0.0712998 -0.0514064 0)
(-0.0584877 -0.0475897 0)
(-0.0462033 -0.0433759 0)
(-0.0345468 -0.0388462 0)
(-0.023606 -0.0340873 0)
(-0.013455 -0.0291881 0)
(-0.00415419 -0.0242379 0)
(0.00425029 -0.019323 0)
(0.0117252 -0.014526 0)
(0.01825 -0.00992314 0)
(0.0238158 -0.0055837 0)
(0.0284254 -0.00156845 0)
(0.0320929 0.00207139 0)
(0.0348447 0.00529538 0)
(0.0367187 0.00807491 0)
(0.0377658 0.0103941 0)
(0.0380483 0.0122504 0)
(0.03764 0.0136544 0)
(0.0366231 0.0146293 0)
(0.0350875 0.0152093 0)
(0.0331251 0.0154378 0)
(0.0308297 0.0153639 0)
(0.0282892 0.0150407 0)
(0.0255888 0.0145207 0)
(0.0228005 0.013854 0)
(0.0199929 0.0130838 0)
(0.0172153 0.012245 0)
(0.0145202 0.0113588 0)
(0.0119345 0.0104346 0)
(0.00950457 0.00946281 0)
(0.00723952 0.00842381 0)
(0.00520056 0.00727898 0)
(0.00338435 0.00599398 0)
(0.00190252 0.00452249 0)
(0.000740492 0.00285747 0)
(0.000114342 0.000989844 0)
(0.000103743 -0.00141826 0)
(0.000688402 -0.00382753 0)
(0.00175191 -0.00572623 0)
(0.00304024 -0.00708562 0)
(0.00449997 -0.00788647 0)
(0.00595311 -0.00816004 0)
(0.00733736 -0.00795405 0)
(0.00854052 -0.00734601 0)
(0.00951849 -0.00641972 0)
(0.0102114 -0.00526631 0)
(0.0105992 -0.00396973 0)
(0.0106576 -0.00260469 0)
(0.0103828 -0.00122915 0)
(0.00976726 0.00011665 0)
(0.00880971 0.00141265 0)
(0.00750187 0.00265771 0)
(0.0058323 0.00386823 0)
(0.00377955 0.00507462 0)
(0.00131445 0.0063172 0)
(-0.00160207 0.00764114 0)
(-0.00501609 0.0090915 0)
(-0.00897967 0.0107086 0)
(-0.0135471 0.0125245 0)
(-0.0187723 0.014561 0)
(-0.024705 0.0168285 0)
(-0.031388 0.0193262 0)
(-0.0388535 0.0220429 0)
(-0.0471204 0.0249578 0)
(-0.0561913 0.0280405 0)
(-0.0660496 0.031252 0)
(-0.0766579 0.0345445 0)
(-0.0879565 0.0378624 0)
(-0.0998639 0.0411434 0)
(-0.112278 0.0443206 0)
(-0.125082 0.0473253 0)
(-0.138145 0.0500898 0)
(-0.15133 0.0525509 0)
(-0.164502 0.0546525 0)
(-0.177531 0.0563485 0)
(-0.190296 0.0576037 0)
(-0.202693 0.058395 0)
(-0.214632 0.0587107 0)
(-0.226042 0.0585499 0)
(-0.236867 0.0579208 0)
(-0.247068 0.0568387 0)
(-0.256615 0.0553247 0)
(-0.265494 0.0534033 0)
(-0.273694 0.0511013 0)
(-0.281214 0.0484463 0)
(-0.288055 0.0454656 0)
(-0.294219 0.0421859 0)
(-0.299713 0.0386322 0)
(-0.304541 0.034828 0)
(-0.308708 0.0307951 0)
(-0.312217 0.0265537 0)
(-0.315071 0.0221224 0)
(-0.317269 0.0175188 0)
(-0.318811 0.0127596 0)
(-0.319693 0.00786111 0)
(-0.319911 0.00283977 0)
(-0.319459 -0.00228736 0)
(-0.318327 -0.00750205 0)
(-0.316506 -0.0127843 0)
(-0.313984 -0.0181116 0)
(-0.310749 -0.0234586 0)
(-0.306785 -0.0287963 0)
(-0.30208 -0.0340914 0)
(-0.296618 -0.0393062 0)
(-0.290387 -0.0443981 0)
(-0.283376 -0.0493192 0)
(-0.275578 -0.0540168 0)
(-0.266988 -0.0584337 0)
(-0.257612 -0.0625085 0)
(-0.247459 -0.0661774 0)
(-0.236552 -0.0693753 0)
(-0.224922 -0.0720378 0)
(-0.212617 -0.0741037 0)
(-0.199697 -0.0755178 0)
(-0.186236 -0.0762335 0)
(-0.172328 -0.0762156 0)
(-0.158076 -0.0754437 0)
(-0.143599 -0.0739134 0)
(-0.129027 -0.0716387 0)
(-0.114493 -0.068652 0)
(-0.100137 -0.0650042 0)
(-0.0860943 -0.0607629 0)
(-0.0724953 -0.0560101 0)
(-0.0594593 -0.050839 0)
(-0.0470923 -0.0453499 0)
(-0.035484 -0.0396473 0)
(-0.0247072 -0.0338351 0)
(-0.0148177 -0.0280148 0)
(-0.00585542 -0.022282 0)
(0.00215387 -0.0167257 0)
(0.00919692 -0.0114261 0)
(0.0152714 -0.0064549 0)
(0.0203848 -0.00187363 0)
(0.024554 0.00226646 0)
(0.0278054 0.00592557 0)
(0.0301756 0.00907628 0)
(0.0317115 0.0117045 0)
(0.0324712 0.01381 0)
(0.0325227 0.0154068 0)
(0.0319439 0.016522 0)
(0.0308185 0.0171949 0)
(0.0292362 0.0174742 0)
(0.0272857 0.0174153 0)
(0.0250568 0.0170764 0)
(0.0226296 0.0165153 0)
(0.0200839 0.0157846 0)
(0.0174813 0.0149284 0)
(0.0148882 0.0139774 0)
(0.0123439 0.0129471 0)
(0.00990856 0.0118336 0)
(0.00760114 0.0106164 0)
(0.00549611 0.00925477 0)
(0.00359755 0.0077014 0)
(0.00203321 0.00589685 0)
(0.000795011 0.00379964 0)
(0.00012332 0.0013703 0)
(0.00010897 -0.0017661 0)
(0.000718116 -0.0046869 0)
(0.00181306 -0.00693295 0)
(0.00311684 -0.00848647 0)
(0.00456459 -0.00934712 0)
(0.0059644 -0.00956298 0)
(0.00724908 -0.0092038 0)
(0.00830215 -0.00836734 0)
(0.00908048 -0.00715842 0)
(0.00952521 -0.00568551 0)
(0.00961892 -0.00404725 0)
(0.00933841 -0.0023282 0)
(0.00867976 -0.000592206 0)
(0.00763268 0.00111931 0)
(0.00619087 0.00278875 0)
(0.00433815 0.00442083 0)
(0.00205313 0.00604005 0)
(-0.000697294 0.00768616 0)
(-0.00395444 0.00940877 0)
(-0.00776905 0.0112611 0)
(-0.012197 0.0132938 0)
(-0.0172972 0.0155499 0)
(-0.0231267 0.0180604 0)
(-0.0297371 0.0208422 0)
(-0.0371705 0.0238974 0)
(-0.0454556 0.0272136 0)
(-0.0546042 0.0307645 0)
(-0.0646082 0.034511 0)
(-0.0754371 0.0384022 0)
(-0.0870359 0.0423762 0)
(-0.0993253 0.0463618 0)
(-0.112203 0.0502807 0)
(-0.125545 0.0540505 0)
(-0.139215 0.0575883 0)
(-0.153067 0.060815 0)
(-0.166954 0.0636591 0)
(-0.180733 0.06606 0)
(-0.194275 0.0679705 0)
(-0.207466 0.0693578 0)
(-0.220209 0.0702036 0)
(-0.232429 0.0705029 0)
(-0.24407 0.0702623 0)
(-0.255089 0.0694978 0)
(-0.265463 0.0682324 0)
(-0.275177 0.0664939 0)
(-0.284225 0.0643129 0)
(-0.292609 0.0617212 0)
(-0.300334 0.0587505 0)
(-0.307408 0.0554316 0)
(-0.313839 0.0517934 0)
(-0.319638 0.0478632 0)
(-0.324812 0.0436657 0)
(-0.329371 0.0392238 0)
(-0.333322 0.0345581 0)
(-0.336671 0.0296872 0)
(-0.339421 0.0246283 0)
(-0.341576 0.0193973 0)
(-0.343137 0.0140089 0)
(-0.344102 0.0084776 0)
(-0.344468 0.00281783 0)
(-0.344231 -0.00295543 0)
(-0.343381 -0.00882601 0)
(-0.341908 -0.0147759 0)
(-0.3398 -0.0207847 0)
(-0.337041 -0.0268286 0)
(-0.333611 -0.0328802 0)
(-0.329493 -0.0389071 0)
(-0.324662 -0.0448719 0)
(-0.319096 -0.0507315 0)
(-0.312772 -0.0564363 0)
(-0.305667 -0.0619308 0)
(-0.297762 -0.0671529 0)
(-0.289041 -0.0720352 0)
(-0.279495 -0.0765053 0)
(-0.269122 -0.0804877 0)
(-0.257932 -0.0839055 0)
(-0.24595 -0.0866832 0)
(-0.233213 -0.0887495 0)
(-0.21978 -0.0900408 0)
(-0.205725 -0.0905052 0)
(-0.191144 -0.0901054 0)
(-0.176151 -0.0888226 0)
(-0.160875 -0.0866591 0)
(-0.145462 -0.0836396 0)
(-0.130064 -0.0798119 0)
(-0.11484 -0.0752458 0)
(-0.099943 -0.0700304 0)
(-0.0855213 -0.0642711 0)
(-0.0717081 -0.058084 0)
(-0.058619 -0.0515916 0)
(-0.0463487 -0.0449174 0)
(-0.0349704 -0.0381815 0)
(-0.0245361 -0.0314972 0)
(-0.0150783 -0.0249683 0)
(-0.00661361 -0.018688 0)
(0.000855014 -0.0127385 0)
(0.00733489 -0.00719041 0)
(0.012842 -0.00210337 0)
(0.0173993 0.00247449 0)
(0.0210375 0.00650686 0)
(0.0237945 0.00997008 0)
(0.0257171 0.012854 0)
(0.0268608 0.0151627 0)
(0.0272909 0.0169146 0)
(0.0270801 0.0181418 0)
(0.0263099 0.0188886 0)
(0.0250637 0.0192086 0)
(0.0234305 0.019162 0)
(0.0214928 0.0188107 0)
(0.0193367 0.0182138 0)
(0.0170324 0.0174231 0)
(0.0146572 0.0164776 0)
(0.0122616 0.0153993 0)
(0.00991832 0.0141897 0)
(0.00765753 0.0128283 0)
(0.00556617 0.011273 0)
(0.00365793 0.00946319 0)
(0.00207315 0.00732623 0)
(0.000811446 0.00478537 0)
(0.000125541 0.00176998 0)
(0.000113781 -0.0021268 0)
(0.000739476 -0.00556707 0)
(0.001846 -0.00814955 0)
(0.00313514 -0.00986953 0)
(0.0045301 -0.0107496 0)
(0.00582743 -0.0108592 0)
(0.00695591 -0.0102946 0)
(0.00779696 -0.00917698 0)
(0.00830945 -0.00763457 0)
(0.00843688 -0.00579392 0)
(0.00816472 -0.0037679 0)
(0.00747096 -0.00164935 0)
(0.0063509 0.000494323 0)
(0.00479052 0.00262325 0)
(0.00277699 0.0047251 0)
(0.000284867 0.00681293 0)
(-0.00271846 0.00892109 0)
(-0.00627831 0.0110995 0)
(-0.0104478 0.0134065 0)
(-0.0152875 0.0159015 0)
(-0.02086 0.0186376 0)
(-0.027226 0.0216559 0)
(-0.0344383 0.024981 0)
(-0.0425384 0.0286189 0)
(-0.0515506 0.032557 0)
(-0.061479 0.036764 0)
(-0.072304 0.041192 0)
(-0.0839801 0.0457777 0)
(-0.0964346 0.0504442 0)
(-0.109568 0.0551041 0)
(-0.123258 0.0596628 0)
(-0.137363 0.0640221 0)
(-0.151729 0.0680861 0)
(-0.166197 0.0717655 0)
(-0.180614 0.0749823 0)
(-0.194835 0.0776733 0)
(-0.208736 0.0797924 0)
(-0.222208 0.0813107 0)
(-0.235168 0.0822158 0)
(-0.247553 0.0825101 0)
(-0.259317 0.0822076 0)
(-0.270434 0.081332 0)
(-0.280889 0.0799128 0)
(-0.290677 0.077984 0)
(-0.2998 0.0755813 0)
(-0.308266 0.0727409 0)
(-0.316086 0.0694979 0)
(-0.323271 0.0658863 0)
(-0.329834 0.0619376 0)
(-0.33579 0.0576813 0)
(-0.341151 0.053144 0)
(-0.345931 0.0483501 0)
(-0.350141 0.0433215 0)
(-0.353795 0.0380776 0)
(-0.356901 0.032636 0)
(-0.359468 0.0270121 0)
(-0.361505 0.0212201 0)
(-0.363017 0.0152729 0)