/*--------------------------------*- C++ -*----------------------------------*\
| =========                 |                                                 |
| \\      /  F ield         | OpenFOAM: The Open Source CFD Toolbox           |
|  \\    /   O peration     | Version:  2406                                  |
|   \\  /    A nd           | Website:  www.openfoam.com                      |
|    \\/     M anipulation  |                                                 |
\*---------------------------------------------------------------------------*/
FoamFile
{
    version     2.0;
    format      ascii;
    arch        "LSB;label=32;scalar=64";
    class       surfaceScalarField;
    location    "8.8";
    object      phi;
}
// * * * * * * * * * * * * * * * * * * * * * * * * * * * * * * * * * * * * * //

dimensions      [0 3 -1 0 0 0 0];

oriented        oriented;

internalField   nonuniform List<scalar> 
1740
(
-1.59846e-06
1.59847e-06
-4.85221e-06
3.25375e-06
-8.91267e-06
4.06045e-06
-1.32044e-05
4.29173e-06
-1.75962e-05
4.39184e-06
-2.20812e-05
4.48499e-06
-2.66921e-05
4.61084e-06
-3.14524e-05
4.76033e-06
-3.63649e-05
4.91248e-06
-4.13961e-05
5.03126e-06
-4.64579e-05
5.06177e-06
-5.13826e-05
4.92467e-06
-5.58992e-05
4.51659e-06
-5.96193e-05
3.72019e-06
-6.20477e-05
2.42836e-06
-6.26355e-05
5.87789e-07
-6.08773e-05
-1.75822e-06
-5.64484e-05
-4.4289e-06
-4.93557e-05
-7.09266e-06
-4.00325e-05
-9.32318e-06
-2.93375e-05
-1.0695e-05
-1.84225e-05
-1.09151e-05
-8.48926e-06
-9.93319e-06
-5.01564e-07
-7.9877e-06
4.99102e-06
-5.49259e-06
7.85426e-06
-2.86324e-06
8.27055e-06
-4.16286e-07
6.46214e-06
1.80841e-06
3.13856e-06
3.32358e-06
3.13856e-06
-4.08791e-06
5.68638e-06
-1.19441e-05
1.11099e-05
-2.12753e-05
1.33916e-05
-3.11387e-05
1.41552e-05
-4.12481e-05
1.45012e-05
-5.15622e-05
1.47991e-05
-6.20887e-05
1.51373e-05
-7.28139e-05
1.54856e-05
-8.36694e-05
1.57679e-05
-9.45005e-05
1.58624e-05
-0.000105033
1.55938e-05
-0.000114836
1.47279e-05
-0.000123305
1.29859e-05
-0.000129672
1.00869e-05
-0.000133066
5.82226e-06
-0.000132636
1.57784e-07
-0.000127736
-6.65839e-06
-0.000118096
-1.40682e-05
-0.000103989
-2.12002e-05
-8.63087e-05
-2.70031e-05
-6.65226e-05
-3.04811e-05
-4.64615e-05
-3.09762e-05
-2.79841e-05
-2.84106e-05
-1.26064e-05
-2.33654e-05
-1.22521e-06
-1.68737e-05
5.89896e-06
-9.98741e-06
8.85982e-06
-3.37714e-06
7.97714e-06
2.69109e-06
4.00384e-06
7.29688e-06
7.1424e-06
-5.93549e-06
1.16219e-05
-1.67315e-05
2.1906e-05
-2.92924e-05
2.59525e-05
-4.25376e-05
2.74004e-05
-5.61304e-05
2.8094e-05
-6.99855e-05
2.86542e-05
-8.4063e-05
2.92148e-05
-9.82887e-05
2.97112e-05
-0.00011251
2.99895e-05
-0.00012646
2.98121e-05
-0.000139719
2.88525e-05
-0.000151689
2.66985e-05
-0.000161593
2.28898e-05
-0.000168506
1.69997e-05
-0.000171447
8.76297e-06
-0.000169494
-1.79514e-06
-0.00016204
-1.4112e-05
-0.00014887
-2.72386e-05
-0.000130408
-3.96617e-05
-0.000107781
-4.96309e-05
-8.27673e-05
-5.54943e-05
-5.76365e-05
-5.6107e-05
-3.47779e-05
-5.12692e-05
-1.61533e-05
-4.199e-05
-2.78594e-06
-3.02411e-05
5.31192e-06
-1.80853e-05
8.69844e-06
-6.76366e-06
8.02637e-06
3.36315e-06
4.13467e-06
1.11886e-05
1.12771e-05
-7.02435e-06
1.86462e-05
-1.95659e-05
3.44476e-05
-3.40391e-05
4.04256e-05
-4.92599e-05
4.26213e-05
-6.48739e-05
4.3708e-05
-8.07816e-05
4.45619e-05
-9.69181e-05
4.53513e-05
-0.000113175
4.59683e-05
-0.000129357
4.61711e-05
-0.000145144
4.55989e-05
-0.00016006
4.37686e-05
-0.00017345
4.00888e-05
-0.000184478
3.39175e-05
-0.000192154
2.46761e-05
-0.000195409
1.20184e-05
-0.000193242
-3.96247e-06
-0.000184901
-2.24528e-05
-0.000170178
-4.19617e-05
-0.00014944
-6.03996e-05
-0.000123637
-7.54338e-05
-9.43857e-05
-8.4746e-05
-6.41361e-05
-8.63566e-05
-3.61e-05
-7.93052e-05
-1.35177e-05
-6.45723e-05
1.62932e-06
-4.53881e-05
9.48546e-06
-2.59414e-05
1.15919e-05
-8.87012e-06
9.5222e-06
5.43287e-06
4.60536e-06
1.61054e-05
1.58824e-05
-7.58441e-06
2.62306e-05
-2.1032e-05
4.78951e-05
-3.65272e-05
5.59209e-05
-5.2817e-05
5.8911e-05
-6.95432e-05
6.04343e-05
-8.66144e-05
6.16331e-05
-0.000103974
6.2711e-05
-0.000121524
6.35186e-05
-0.000139086
6.37326e-05
-0.000156364
6.2877e-05
-0.000172916
6.03209e-05
-0.000188121
5.52931e-05
-0.00020115
4.69469e-05
-0.000210978
3.45039e-05
-0.000216479
1.75191e-05
-0.000216656
-3.78485e-06
-0.000211075
-2.80345e-05
-0.000199747
-5.32894e-05
-0.000182562
-7.75848e-05
-0.000158864
-9.91312e-05
-0.0001282
-0.000115411
-9.18635e-05
-0.000122693
-5.38802e-05
-0.000117289
-2.03844e-05
-9.80681e-05
2.90346e-06
-6.8676e-05
1.40675e-05
-3.71055e-05
1.57281e-05
-1.05307e-05
1.18751e-05
9.28581e-06
5.32955e-06
2.2651e-05
2.1212e-05
-7.76782e-06
3.39985e-05
-2.15576e-05
6.16849e-05
-3.74848e-05
7.1848e-05
-5.4265e-05
7.56912e-05
-7.15496e-05
7.77188e-05
-8.92748e-05
7.93584e-05
-0.000107426
8.0862e-05
-0.000125961
8.20543e-05
-0.000144779
8.25498e-05
-0.000163681
8.17797e-05
-0.000182341
7.89807e-05
-0.000200247
7.3199e-05
-0.00021666
6.33596e-05
-0.000230673
4.85169e-05
-0.000241595
2.84412e-05
-0.00024964
4.26073e-06
-0.000255952
-2.17233e-05
-0.000261002
-4.82395e-05
-0.000261759
-7.68276e-05
-0.000252083
-0.000108807
-0.000226629
-0.000140864
-0.000184227
-0.000165095
-0.000128896
-0.00017262
-7.02283e-05
-0.000156735
-2.13247e-05
-0.00011758
7.55534e-06
-6.59854e-05
1.62744e-05
-1.92498e-05
1.32875e-05
1.22728e-05
5.79278e-06
3.01457e-05
2.70048e-05
-7.68171e-06
4.16802e-05
-2.1422e-05
7.54252e-05
-3.738e-05
8.78061e-05
-5.42678e-05
9.2579e-05
-7.17558e-05
9.52068e-05
-8.98246e-05
9.74271e-05
-0.000108528
9.95649e-05
-0.000127919
0.000101446
-0.000148025
0.000102655
-0.000168813
0.000102567
-0.000190149
0.000100317
-0.000211744
9.4794e-05
-0.000233183
8.4799e-05
-0.000254371
6.97048e-05
-0.000276768
5.08379e-05
-0.000304378
3.18714e-05
-0.000340644
1.45425e-05
-0.000382431
-6.45268e-06
-0.000416624
-4.26343e-05
-0.000429719
-9.57122e-05
-0.000414598
-0.000155985
-0.000368613
-0.000211081
-0.000293895
-0.000247338
-0.00019968
-0.00025095
-0.000104072
-0.000213187
-3.06396e-05
-0.000139418
4.56284e-06
-5.44522e-05
1.0831e-05
6.00465e-06
5.30879e-06
3.56678e-05
3.23135e-05
-7.39107e-06
4.90712e-05
-2.07914e-05
8.88255e-05
-3.64841e-05
0.000103499
-5.31958e-05
0.000109291
-7.06209e-05
0.000112632
-8.87929e-05
0.000115599
-0.000107851
0.000118623
-0.000127971
0.000121567
-0.000149349
0.000124033
-0.000172175
0.000125393
-0.000196606
0.000124748
-0.000222781
0.000120969
-0.000251202
0.000113221
-0.000284295
0.000102797
-0.000328811
9.53545e-05
-0.000393449
9.65094e-05
-0.000476649
9.77417e-05
-0.000558147
7.5046e-05
-0.000617132
1.635e-05
-0.000645295
-6.75485e-05
-0.00063997
-0.00016131
-0.000599087
-0.000251964
-0.000520473
-0.000325953
-0.000404791
-0.000366632
-0.000262548
-0.00035543
-0.000123036
-0.00027893
-3.02917e-05
-0.000147196
2.40243e-06
-2.66895e-05
3.62926e-06
3.4441e-05
3.59428e-05
-6.93269e-06
5.60039e-05
-1.97543e-05
0.000101647
-3.49344e-05
0.000118679
-5.12238e-05
0.00012558
-6.83381e-05
0.000129746
-8.63628e-05
0.000133624
-0.000105527
0.000137787
-0.000126141
0.000142181
-0.000148595
0.000146486
-0.00017335
0.000150149
-0.00020097
0.000152368
-0.000232388
0.000152386
-0.000270253
0.000151085
-0.000322029
0.000154574
-0.000400001
0.000173326
-0.000506863
0.000203371
-0.000619272
0.000210151
-0.000706685
0.000162459
-0.000761963
7.16278e-05
-0.000790114
-3.93966e-05
-0.000793116
-0.000158308
-0.000771544
-0.000273536
-0.000717372
-0.000380125
-0.000621233
-0.000462771
-0.000472846
-0.000503817
-0.00028452
-0.000467257
-0.000106756
-0.00032496
-1.24174e-05
-0.000121028
1.65753e-06
2.03661e-05
3.76003e-05
-6.32672e-06
6.23306e-05
-1.83538e-05
0.000113674
-3.27915e-05
0.000133117
-4.8416e-05
0.000141205
-6.49528e-05
0.000146283
-8.25278e-05
0.000151199
-0.000101449
0.000156708
-0.000122154
0.000162887
-0.000145222
0.000169555
-0.000171415
0.000176342
-0.000201832
0.000182785
-0.000238757
0.000189311
-0.000288171
0.0002005
-0.000361814
0.000228216
-0.0004676
0.000279113
-0.000587757
0.000323528
-0.000685042
0.000307435
-0.000744842
0.000222259
-0.000780134
0.00010692
-0.000796748
-2.27831e-05
-0.000801712
-0.000153344
-0.000798408
-0.000276839
-0.000781864
-0.000396669
-0.000740936
-0.000503699
-0.000648256
-0.000596497
-0.000479471
-0.000636042
-0.000247544
-0.000556886
-5.18612e-05
-0.000316711
2.96399e-06
-3.44592e-05
4.05643e-05
-5.58798e-06
6.79186e-05
-1.6617e-05
0.000124703
-3.00863e-05
0.000146586
-4.47939e-05
0.000155912
-6.04562e-05
0.000161945
-7.72163e-05
0.000167959
-9.54348e-05
0.000174926
-0.000115644
0.000183096
-0.000138581
0.000192491
-0.000165284
0.000203046
-0.000197469
0.000214969
-0.000238883
0.000230726
-0.000297673
0.000259289
-0.00038357
0.000314113
-0.000491266
0.000386809
-0.000589952
0.000422214
-0.000651549
0.000369032
-0.000682599
0.000253309
-0.000699886
0.000124207
-0.000708521
-1.41486e-05
-0.0007067
-0.000155165
-0.000700609
-0.00028293
-0.000697695
-0.000399583
-0.000699414
-0.000501981
-0.000685127
-0.000610784
-0.000606476
-0.000714693
-0.000418981
-0.000744381
-0.000149703
-0.000585989
1.41201e-06
-0.000185574
4.19763e-05
-4.73441e-06
7.2653e-05
-1.45751e-05
0.000134544
-2.6856e-05
0.000158867
-4.03893e-05
0.000169446
-5.48582e-05
0.000176414
-7.03906e-05
0.000183491
-8.7358e-05
0.000191894
-0.000106332
0.00020207
-0.000128131
0.00021429
-0.000153977
0.000228892
-0.000186003
0.000246995
-0.000228513
0.000273236
-0.000288701
0.000319477
-0.000370189
0.000395601
-0.000458978
0.000475598
-0.000527457
0.000490693
-0.000565565
0.00040714
-0.000591575
0.000279319
-0.000616893
0.000149525
-0.000631562
5.20261e-07
-0.000629288
-0.000157439
-0.000609967
-0.000302251
-0.000586235
-0.000423315
-0.000577205
-0.000511011
-0.000592258
-0.00059573
-0.000597014
-0.000709938
-0.000514763
-0.000826632
-0.000292491
-0.000808261
-3.56891e-05
-0.000442376
6.28728e-06
-3.79308e-06
7.64461e-05
-1.22796e-05
0.00014303
-2.3167e-05
0.000169754
-3.52765e-05
0.000181555
-4.82327e-05
0.00018937
-6.2111e-05
0.00019737
-7.72422e-05
0.000207025
-9.4162e-05
0.00021899
-0.000113658
0.000233786
-0.000136932
0.000252167
-0.00016603
0.000276093
-0.000204476
0.000311683
-0.000256524
0.000371524
-0.000321119
0.000460197
-0.000385046
0.000539525
-0.000432947
0.000538594
-0.000468311
0.000442504
-0.000507742
0.00031875
-0.00055031
0.000192094
-0.000577116
2.73261e-05
-0.000580507
-0.000154048
-0.000559093
-0.000323665
-0.000520653
-0.000461755
-0.00048222
-0.000549443
-0.000473648
-0.000604303
-0.000497718
-0.000685867
-0.000501474
-0.000822876
-0.000387099
-0.000922635
-0.000108037
-0.000721439
-0.000101749
-2.80111e-06
7.92472e-05
-9.80705e-06
0.000150036
-1.91312e-05
0.000179078
-2.96008e-05
0.000192025
-4.07569e-05
0.000200526
-5.25865e-05
0.000209199
-6.53292e-05
0.000219767
-7.94082e-05
0.000233069
-9.54556e-05
0.000249833
-0.000114413
0.000271124
-0.000137712
0.000299391
-0.000167223
0.000341193
-0.000204046
0.000408348
-0.000245855
0.000502005
-0.000286266
0.000579936
-0.000321798
0.000574127
-0.000359027
0.000479733
-0.000403105
0.000362828
-0.000444856
0.000233844
-0.000472723
5.51925e-05
-0.000479793
-0.000146978
-0.000465845
-0.000337613
-0.000435259
-0.000492341
-0.000395125
-0.000589576
-0.000371043
-0.000628385
-0.000388891
-0.00066802
-0.000427645
-0.000784122
-0.00038472
-0.00096556
-0.000185621
-0.000920537
-0.000287371
-1.80765e-06
8.10549e-05
-7.26603e-06
0.000155495
-1.49038e-05
0.000186716
-2.35633e-05
0.000200684
-3.26926e-05
0.000209656
-4.21618e-05
0.000218669
-5.20773e-05
0.000229683
-6.26884e-05
0.00024368
-7.43724e-05
0.000261517
-8.76413e-05
0.000284393
-0.000103037
0.000314787
-0.000120565
0.000358721
-0.000138738
0.000426521
-0.000155703
0.00051897
-0.00017287
0.000597102
-0.000195043
0.0005963
-0.0002256
0.00051029
-0.000259028
0.000396256
-0.000287547
0.000262363
-0.000309941
7.75862e-05
-0.000323181
-0.000133738
-0.000323649
-0.000337145
-0.00031168
-0.000504311
-0.000288738
-0.000612518
-0.00026843
-0.000648693
-0.000278858
-0.000657591
-0.000330696
-0.000732284
-0.000344126
-0.00095213
-0.000225799
-0.00103886
-0.000513169
-8.69844e-07
8.19247e-05
-4.78535e-06
0.00015941
-1.06921e-05
0.000192623
-1.7458e-05
0.00020745
-2.44234e-05
0.000216621
-3.13312e-05
0.000225576
-3.814e-05
0.000236492
-4.49004e-05
0.00025044
-5.16931e-05
0.00026831
-5.85541e-05
0.000291254
-6.5166e-05
0.000321399
-6.99791e-05
0.000363534
-6.93914e-05
0.000425933
-6.13917e-05
0.000510971
-5.33091e-05
0.00058902
-5.72628e-05
0.000600254
-7.2998e-05
0.000526025
-8.92045e-05
0.000412463
-0.000102171
0.00027533
-0.00011731
9.27258e-05
-0.000135321
-0.000115727
-0.000151215
-0.000321251
-0.000163089
-0.000492437
-0.000166518
-0.000609089
-0.000168297
-0.000646914
-0.000180914
-0.000644974
-0.000230134
-0.000683065
-0.000271026
-0.000911238
-0.00020436
-0.00110553
-0.000717529
-6.00835e-08
8.19848e-05
-2.5101e-06
0.00016186
-6.70998e-06
0.000196823
-1.15623e-05
0.000212302
-1.63274e-05
0.000221386
-2.06217e-05
0.000229871
-2.42534e-05
0.000240123
-2.70815e-05
0.000253268
-2.89123e-05
0.000270141
-2.93747e-05
0.000291716
-2.75334e-05
0.000319558
-2.0923e-05
0.000356924
-4.51157e-06
0.000409522
2.5548e-05
0.000480911
6.0237e-05
0.000554331
8.11443e-05
0.000579347
8.4231e-05
0.000522938
8.35298e-05
0.000413164
8.40032e-05
0.000274856
7.6135e-05
0.000100594
5.87382e-05
-9.83304e-05
3.17912e-05
-0.000294304
2.73842e-06
-0.000463384
-3.06138e-05
-0.000575737
-6.17449e-05
-0.000615783
-9.39904e-05
-0.000612728
-0.000150359
-0.000626696
-0.000204782
-0.000856815
-0.000171566
-0.00113875
-0.000889095
5.89073e-07
8.13957e-05
-6.08717e-07
0.000163058
-3.26236e-06
0.000199476
-6.31017e-06
0.00021535
-8.92962e-06
0.000224006
-1.06564e-05
0.000231597
-1.11939e-05
0.000240661
-1.02576e-05
0.000252332
-7.45514e-06
0.000267338
-2.14397e-06
0.000286405
6.8969e-06
0.000310517
2.24057e-05
0.000341415
4.95005e-05
0.000382427
9.40173e-05
0.000436394
0.000151938
0.00049641
0.000201992
0.000529292
0.000229022
0.000495908
0.000242121
0.000400066
0.000249817
0.00026716
0.000246545
0.000103866
0.000226927
-7.87127e-05
0.000193592
-0.000260969
0.000144694
-0.000414486
8.98221e-05
-0.000520865
3.31367e-05
-0.000559098
-1.99466e-05
-0.000559645
-8.24306e-05
-0.000564213
-0.000143547
-0.000795699
-0.000136587
-0.00114571
-0.00102568
9.88578e-07
8.04071e-05
7.70102e-07
0.000163277
-5.25355e-07
0.000200772
-1.89201e-06
0.000216717
-2.52938e-06
0.000224643
-1.89847e-06
0.000230966
3.8413e-07
0.000238378
4.68989e-06
0.000248026
1.15117e-05
0.000260516
2.16131e-05
0.000276304
3.62675e-05
0.000295863
5.78186e-05
0.000319864
9.06719e-05
0.000349574
0.000140927
0.000386139
0.000210304
0.000427033
0.000284
0.000455597
0.000338737
0.000441171
0.00037085
0.000367953
0.00038666
0.000251349
0.000386236
0.00010429
0.00036435
-5.68276e-05
0.000323356
-0.000219974
0.000261424
-0.000352553
0.000187753
-0.000447195
0.000107652
-0.000478996
3.56597e-05
-0.000487653
-3.74374e-05
-0.000491115
-0.00010195
-0.000731186
-0.000111454
-0.0011362
-0.00113714
1.00311e-06
7.9404e-05
1.29862e-06
0.000162981
9.76279e-07
0.000201094
1.02167e-06
0.000216671
2.2195e-06
0.000223445
5.06384e-06
0.000228122
9.91052e-06
0.000233532
1.7141e-05
0.000240796
2.72608e-05
0.000250397
4.10076e-05
0.000262557
5.95087e-05
0.000277361
8.45906e-05
0.000294782
0.000119403
0.000314762
0.000168598
0.000336944
0.000235871
0.000359759
0.000316567
0.000374901
0.000390485
0.000367253
0.000442846
0.000315592
0.000470482
0.000223713
0.000474985
9.97879e-05
0.000452224
-3.40667e-05
0.000404329
-0.00017208
0.000332107
-0.000280331
0.000246045
-0.000361132
0.000154421
-0.000387373
7.40771e-05
-0.000407309
-3.13356e-06
-0.000413905
-7.2958e-05
-0.000661361
-9.46568e-05
-0.0011145
-0.00123179
6.81926e-07
7.87221e-05
1.08538e-06
0.000162578
1.4539e-06
0.000200726
2.66144e-06
0.000215464
5.35662e-06
0.00022075
1.0033e-05
0.000223446
1.70332e-05
0.000226531
2.66613e-05
0.000231167
3.9338e-05
0.00023772
5.5668e-05
0.000246227
7.65284e-05
0.000256501
0.000103204
0.000268106
0.000137564
0.000280402
0.00018255
0.000291958
0.000240516
0.000301793
0.000311884
0.000303533
0.000385902
0.000293236
0.000447139
0.000254355
0.000483203
0.000187649
0.000492704
9.02866e-05
0.000472493
-1.38557e-05
0.000423633
-0.00012322
0.000349426
-0.000206124
0.000262581
-0.000274287
0.000170711
-0.000295503
9.06361e-05
-0.000327234
1.23642e-05
-0.000335633
-5.78062e-05
-0.000591191
-8.82559e-05
-0.00108406
-0.00132005
-5.00878e-07
7.9223e-05
-9.71344e-07
0.000163048
-5.54361e-07
0.000200309
1.59123e-06
0.000213318
5.88197e-06
0.000216459
1.2484e-05
0.000216844
2.15111e-05
0.000217504
3.32002e-05
0.000219478
4.78575e-05
0.000223063
6.5933e-05
0.000228151
8.80225e-05
0.000234412
0.000114951
0.000241177
0.000147629
0.000247724
0.00018755
0.000252037
0.000235439
0.000253903
0.000291721
0.000247252
0.000351868
0.000233088
0.000406521
0.000199702
0.000442219
0.000151951
0.000453906
7.86e-05
0.000436896
3.15378e-06
0.000394104
-8.04276e-05
0.000328149
-0.000140169
0.000252506
-0.000198644
0.000171637
-0.000214634
9.89103e-05
-0.000254507
2.20106e-05
-0.000258733
-4.8803e-05
-0.000520377
-8.54702e-05
-0.00104739
-0.00140552
-2.02548e-06
8.12485e-05
-3.5062e-06
0.000164529
-3.35649e-06
0.000200159
-7.17822e-07
0.00021068
4.55229e-06
0.000211189
1.25354e-05
0.000208861
2.32305e-05
0.000206809
3.6608e-05
0.000206101
5.27929e-05
0.000206878
7.2021e-05
0.000208923
9.46276e-05
0.000211805
0.00012104
0.000214765
0.000151588
0.000217176
0.000186712
0.000216914
0.000226252
0.000214363
0.000269617
0.000203887
0.000313956
0.000188749
0.00035493
0.000158728
0.00038316
0.00012372
0.000392632
6.91279e-05
0.000378782
1.70044e-05
0.000344285
-4.59304e-05
0.000290817
-8.67019e-05
0.000228541
-0.000136368
0.000160095
-0.000146188
9.6095e-05
-0.000190507
2.84283e-05
-0.000191067
-3.91602e-05
-0.000452789
-7.92855e-05
-0.00100726
-0.0014848
-6.40894e-06
8.76574e-05
-1.1327e-05
0.000169447
-1.19107e-05
0.000200743
-7.90926e-06
0.000206678
-4.93784e-07
0.000203774
9.79734e-06
0.00019857
2.24531e-05
0.000194153
3.7529e-05
0.000191025
5.50226e-05
0.000189384
7.50697e-05
0.000188876
9.77843e-05
0.00018909
0.000123335
0.000189215
0.000151696
0.000188814
0.000182718
0.000185893
0.000215809
0.000181272
0.000249906
0.00016979
0.000282521
0.000156134
0.000310996
0.000130253
0.000330359
0.000104357
0.000335674
6.38127e-05
0.000324157
2.85221e-05
0.000296332
-1.81059e-05
0.00025433
-4.46996e-05
0.000203385
-8.54234e-05
0.000147146
-8.99488e-05
8.99698e-05
-0.00013333
3.42849e-05
-0.000135382
-3.03407e-05
-0.000388163
-7.07109e-05
-0.000966892
-0.00155551
-1.02313e-05
9.78887e-05
-1.64682e-05
0.000175684
-1.88482e-05
0.000203123
-1.50923e-05
0.000202922
-7.0844e-06
0.000195766
4.46478e-06
0.00018702
1.881e-05
0.000179808
3.54072e-05
0.000174428
5.41192e-05
0.000170672
7.48556e-05
0.00016814
9.76373e-05
0.000166309
0.000122395
0.000164457
0.000148908
0.000162301
0.000176777
0.000158024
0.000205145
0.000152904
0.000232956
0.000141979
0.000258058
0.000131032
0.000278228
0.000110083
0.000291072
9.15133e-05
0.000292914
6.19715e-05
0.000282689
3.87467e-05
0.000259073
5.51001e-06
0.000225834
-1.14601e-05
0.000181446
-4.10358e-05
0.000137208
-4.57113e-05
8.38863e-05
-8.00083e-05
4.60052e-05
-9.75006e-05
-2.27767e-05
-0.000319381
-7.38896e-05
-0.000915779
-0.0016294
-2.83909e-05
0.00012628
-3.99511e-05
0.000187244
-4.11951e-05
0.000204367
-3.09552e-05
0.000192682
-1.85182e-05
0.000183329
-2.42957e-06
0.000170932
1.4354e-05
0.000163025
3.30408e-05
0.000155741
5.2923e-05
0.00015079
7.44191e-05
0.000146644
9.71363e-05
0.000143591
0.000121309
0.000140285
0.000146205
0.000137404
0.00017179
0.000132439
0.000196706
0.000127989
0.000220333
0.000118352
0.000240746
0.000110619
0.000256082
9.47467e-05
0.000265163
8.24326e-05
0.000265002
6.21321e-05
0.000256204
4.75449e-05
0.000235372
2.63421e-05
0.000209565
1.4347e-05
0.000169814
-1.28488e-06
0.000136316
-1.22135e-05
8.28926e-05
-2.65848e-05
6.47028e-05
-7.93108e-05
-1.51941e-05
-0.000239484
-7.747e-05
-0.000853503
-0.00170687
-3.04393e-05
0.000156719
-4.36901e-05
0.000200495
-4.92134e-05
0.00020989
-4.08517e-05
0.000184321
-2.78356e-05
0.000170313
-1.07295e-05
0.000153826
8.25415e-06
0.000144041
2.8734e-05
0.000135261
5.0058e-05
0.000129466
7.27797e-05
0.000123922
9.5974e-05
0.000120397
0.000120471
0.000115788
0.000144656
0.000113219
0.00016948
0.000107614
0.000192545
0.000104924
0.000214399
9.64982e-05
0.000232584
9.24335e-05
0.000246386
8.09452e-05
0.000254535
7.42835e-05
0.000255188
6.14791e-05
0.000249763
5.29697e-05
0.000234031
4.20747e-05
0.000216559
3.18192e-05
0.000185217
3.00564e-05
0.000163325
9.67829e-06
0.000117861
1.88797e-05
0.000112968
-7.44181e-05
5.8997e-05
-0.000185513
8.00569e-06
-0.000802512
-0.00169887
-0.000123577
0.000280296
-9.96804e-05
0.000176598
-8.94859e-05
0.000199695
-5.46098e-05
0.000149445
-2.75684e-05
0.000143271
-2.38451e-07
0.000126496
2.49219e-05
0.000118881
5.02843e-05
0.000109898
7.38898e-05
0.000105861
9.9567e-05
9.82447e-05
0.000123394
9.65704e-05
0.000149668
8.95136e-05
0.000173697
8.91902e-05
0.000199401
8.19106e-05
0.00022238
8.19449e-05
0.000244698
7.41797e-05
0.000263988
7.31439e-05
0.000279257
6.5676e-05
0.000291572
6.19679e-05
0.000296245
5.68068e-05
0.000300219
4.89954e-05
0.000292332
4.9962e-05
0.000289495
3.46558e-05
0.000271274
4.82777e-05
0.00026578
1.51722e-05
0.000246963
3.76968e-05
0.000233021
-6.04768e-05
0.000237832
-0.000190323
0.00016444
-0.000729121
-0.00153443
-3.88174e-06
0.000284178
-8.11881e-06
0.000180835
3.2481e-05
0.000159096
4.50769e-05
0.000136849
7.71445e-05
0.000111204
0.00010754
9.61001e-05
0.000139457
8.6964e-05
0.000172214
7.71416e-05
0.000206295
7.17794e-05
0.000240139
6.44008e-05
0.000275235
6.1474e-05
0.000309134
5.56146e-05
0.000344527
5.37977e-05
0.000377411
4.90263e-05
0.000411989
4.73668e-05
0.000442315
4.38542e-05
0.000474327
4.11319e-05
0.000500363
3.96399e-05
0.000527852
3.44788e-05
0.000548272
3.63864e-05
0.000570006
2.72611e-05
0.000585605
3.4363e-05
0.000600867
1.93937e-05
0.000617053
3.20921e-05
0.000621439
1.07862e-05
0.000641632
1.75043e-05
0.000609877
-2.87226e-05
0.000594284
-0.00017473
0.000388841
-0.000523677
-0.00114559
0.000284178
0.000465013
0.000624108
0.000760957
0.000872161
0.000968261
0.00105522
0.00113237
0.00120415
0.00126855
0.00133002
0.00138564
0.00143943
0.00148846
0.00153583
0.00157968
0.00162081
0.00166045
0.00169493
0.00173132
0.00175858
0.00179294
0.00181234
0.00184443
0.00185521
0.00187272
0.001844
0.00166927
0.00114559
)
;

boundaryField
{
    movingWall
    {
        type            calculated;
        value           uniform 0;
    }
    fixedWalls
    {
        type            calculated;
        value           uniform 0;
    }
    frontAndBack
    {
        type            empty;
    }
}


// ************************************************************************* //
