/*--------------------------------*- C++ -*----------------------------------*\
| =========                 |                                                 |
| \\      /  F ield         | OpenFOAM: The Open Source CFD Toolbox           |
|  \\    /   O peration     | Version:  2406                                  |
|   \\  /    A nd           | Website:  www.openfoam.com                      |
|    \\/     M anipulation  |                                                 |
\*---------------------------------------------------------------------------*/
FoamFile
{
    version     2.0;
    format      ascii;
    arch        "LSB;label=32;scalar=64";
    class       volVectorField;
    location    "35.25";
    object      Uold;
}
// * * * * * * * * * * * * * * * * * * * * * * * * * * * * * * * * * * * * * //

dimensions      [0 1 -1 0 0 0 0];

internalField   nonuniform List<vector> 
3600
(
(-2.85817e-06 -7.71295e-06 0)
(0.000431384 -0.000204229 0)
(0.00126512 -0.00030611 0)
(0.00219617 -0.000322094 0)
(0.00308292 -0.000266297 0)
(0.00373323 -0.000189488 0)
(0.00418167 -0.000118629 0)
(0.00440703 -7.36885e-05 0)
(0.00451804 -5.49014e-05 0)
(0.00452375 -5.26486e-05 0)
(0.0044728 -5.26529e-05 0)
(0.00431475 -4.15757e-05 0)
(0.00401773 -1.22755e-05 0)
(0.00349373 3.92594e-05 0)
(0.00267776 0.000113855 0)
(0.00147544 0.000214245 0)
(-0.00019122 0.00034298 0)
(-0.00241413 0.000501477 0)
(-0.00526653 0.000682389 0)
(-0.00881704 0.00087306 0)
(-0.0131038 0.00106482 0)
(-0.0181296 0.0012631 0)
(-0.0238335 0.00147925 0)
(-0.0300827 0.00171352 0)
(-0.0366608 0.00193971 0)
(-0.0432734 0.00210861 0)
(-0.049561 0.00216259 0)
(-0.0551266 0.0020543 0)
(-0.0595694 0.00175664 0)
(-0.0625161 0.00126687 0)
(-0.0636517 0.000603696 0)
(-0.0627401 -0.000195246 0)
(-0.0596485 -0.00107795 0)
(-0.0543582 -0.00198005 0)
(-0.0469864 -0.00282922 0)
(-0.0377865 -0.00354835 0)
(-0.0271624 -0.00406277 0)
(-0.0156446 -0.00430765 0)
(-0.00388292 -0.00423906 0)
(0.0074202 -0.00384417 0)
(0.0175477 -0.00315025 0)
(0.0258767 -0.00222828 0)
(0.0319241 -0.00118729 0)
(0.0354568 -0.000160169 0)
(0.0364837 0.000723377 0)
(0.0353034 0.00136345 0)
(0.0323902 0.00171773 0)
(0.0283676 0.00180521 0)
(0.0238194 0.00169572 0)
(0.0192805 0.00147347 0)
(0.0150791 0.0012133 0)
(0.0114455 0.000959976 0)
(0.00840521 0.000739656 0)
(0.00597761 0.000557174 0)
(0.00403914 0.000419031 0)
(0.00255139 0.000311639 0)
(0.00137931 0.000232023 0)
(0.00053852 0.000133758 0)
(2.27618e-05 2.10212e-05 0)
(-0.000104247 -0.000112113 0)
(0.000174289 -0.00041554 0)
(0.00126229 -0.00128816 0)
(0.00300395 -0.00170682 0)
(0.00483372 -0.00172646 0)
(0.00651748 -0.00142635 0)
(0.00771386 -0.000991779 0)
(0.00843645 -0.00055388 0)
(0.00862344 -0.000194183 0)
(0.00840278 7.49965e-05 0)
(0.00775717 0.000301797 0)
(0.0067057 0.000551174 0)
(0.00511233 0.000893679 0)
(0.00284557 0.00136883 0)
(-0.000313218 0.00200361 0)
(-0.00455682 0.0028033 0)
(-0.0101067 0.00377183 0)
(-0.0171384 0.00489538 0)
(-0.0258012 0.00615206 0)
(-0.0361466 0.00750328 0)
(-0.048101 0.00889921 0)
(-0.0614053 0.0102547 0)
(-0.0756248 0.0114456 0)
(-0.0901762 0.0123177 0)
(-0.1044 0.0127245 0)
(-0.117628 0.0125512 0)
(-0.129253 0.0117337 0)
(-0.138763 0.0102563 0)
(-0.145755 0.00815132 0)
(-0.149937 0.00548669 0)
(-0.151113 0.00236175 0)
(-0.149174 -0.0011027 0)
(-0.144093 -0.00476402 0)
(-0.135924 -0.00846295 0)
(-0.124804 -0.0120202 0)
(-0.110972 -0.0152426 0)
(-0.0947664 -0.0179247 0)
(-0.0766533 -0.0198646 0)
(-0.0572096 -0.0208775 0)
(-0.0371394 -0.0208263 0)
(-0.0172225 -0.0196442 0)
(0.00169385 -0.0173667 0)
(0.0187952 -0.0141435 0)
(0.0333214 -0.0102408 0)
(0.0446979 -0.00601641 0)
(0.0525294 -0.00187245 0)
(0.0567243 0.00180181 0)
(0.0574234 0.0047005 0)
(0.0550951 0.0066464 0)
(0.0503711 0.00762522 0)
(0.0440928 0.00776305 0)
(0.0370364 0.00728703 0)
(0.0299653 0.00644293 0)
(0.0233422 0.00545454 0)
(0.0175348 0.00446957 0)
(0.0125792 0.00359391 0)
(0.00854191 0.00283774 0)
(0.00525451 0.00220424 0)
(0.00276148 0.00154954 0)
(0.000977696 0.000860546 0)
(7.80702e-05 5.41891e-05 0)
(0.000285238 -0.00123224 0)
(0.00176033 -0.00306158 0)
(0.00399927 -0.00387848 0)
(0.00619877 -0.00379964 0)
(0.00808027 -0.00305609 0)
(0.00922163 -0.00198938 0)
(0.00962628 -0.000884193 0)
(0.00919332 0.000112749 0)
(0.00801209 0.000977719 0)
(0.00599072 0.00182822 0)
(0.00305013 0.002809 0)
(-0.00106417 0.00407886 0)
(-0.0066069 0.00572488 0)
(-0.0139073 0.00780123 0)
(-0.0232412 0.0103016 0)
(-0.0348545 0.0131959 0)
(-0.0488433 0.016395 0)
(-0.0651067 0.019756 0)
(-0.0832548 0.0230387 0)
(-0.102643 0.0259332 0)
(-0.12245 0.0281063 0)
(-0.141817 0.0292924 0)
(-0.159964 0.0293268 0)
(-0.17626 0.0281602 0)
(-0.190244 0.0258253 0)
(-0.201605 0.0224154 0)
(-0.210151 0.018052 0)
(-0.215771 0.012877 0)
(-0.218411 0.00703865 0)
(-0.218044 0.000696907 0)
(-0.214666 -0.00598003 0)
(-0.208286 -0.0128032 0)
(-0.198939 -0.0195629 0)
(-0.186694 -0.0260151 0)
(-0.171678 -0.0318867 0)
(-0.154094 -0.0368715 0)
(-0.134251 -0.0406531 0)
(-0.112576 -0.0429223 0)
(-0.0896384 -0.0434251 0)
(-0.0661222 -0.0419992 0)
(-0.0428298 -0.038631 0)
(-0.0205925 -0.0334789 0)
(-0.000250763 -0.0268909 0)
(0.0174765 -0.0193703 0)
(0.0319854 -0.0115226 0)
(0.0429116 -0.00397646 0)
(0.0500537 0.00269812 0)
(0.0534984 0.00805287 0)
(0.0534999 0.0118203 0)
(0.0506264 0.0139379 0)
(0.0455488 0.0145585 0)
(0.039147 0.0139966 0)
(0.0321505 0.0126608 0)
(0.0252893 0.0109373 0)
(0.0189139 0.00915031 0)
(0.013368 0.00745865 0)
(0.00861206 0.00592788 0)
(0.00483154 0.00437706 0)
(0.00192041 0.00271268 0)
(0.000277795 0.000742178 0)
(0.000354564 -0.00222174 0)
(0.00203144 -0.0050706 0)
(0.00442495 -0.00617851 0)
(0.00654164 -0.00578523 0)
(0.00808461 -0.00436397 0)
(0.0086021 -0.00241507 0)
(0.00809937 -0.000376875 0)
(0.00642984 0.00157786 0)
(0.00359711 0.003446 0)
(-0.000618289 0.00544787 0)
(-0.00644667 0.00781876 0)
(-0.014278 0.0107978 0)
(-0.024466 0.0144881 0)
(-0.0373568 0.0189188 0)
(-0.0531241 0.0239901 0)
(-0.071716 0.029506 0)
(-0.0927183 0.0350992 0)
(-0.115383 0.0402833 0)
(-0.138729 0.0445239 0)
(-0.161761 0.0473976 0)
(-0.183619 0.0486476 0)
(-0.203673 0.0482041 0)
(-0.221515 0.0461214 0)
(-0.236912 0.0425393 0)
(-0.249756 0.0376252 0)
(-0.260001 0.0315593 0)
(-0.267644 0.0245088 0)
(-0.272683 0.0166355 0)
(-0.275117 0.00808795 0)
(-0.274923 -0.000980068 0)
(-0.27207 -0.0104093 0)
(-0.266504 -0.0200116 0)
(-0.258175 -0.029567 0)
(-0.247031 -0.0388004 0)
(-0.233058 -0.0473851 0)
(-0.216288 -0.0549315 0)
(-0.196849 -0.0610122 0)
(-0.174982 -0.0651812 0)
(-0.151094 -0.0670357 0)
(-0.125753 -0.0662699 0)
(-0.099712 -0.0627606 0)
(-0.0738342 -0.0566138 0)
(-0.0490639 -0.0482058 0)
(-0.0262729 -0.0381439 0)
(-0.0062233 -0.0272003 0)
(0.0105751 -0.0161924 0)
(0.0237865 -0.00588349 0)
(0.0333306 0.00309141 0)
(0.0392221 0.0102661 0)
(0.0417207 0.0153683 0)
(0.0411726 0.0183497 0)
(0.0382222 0.0193946 0)
(0.0335119 0.0188897 0)
(0.0278744 0.0173291 0)
(0.0218659 0.0152138 0)
(0.0161144 0.0129056 0)
(0.0107924 0.0105959 0)
(0.00631254 0.00816272 0)
(0.00264262 0.00539519 0)
(0.000437551 0.00192884 0)
(0.000393193 -0.00337467 0)
(0.00211111 -0.00723768 0)
(0.00436567 -0.00845011 0)
(0.00602003 -0.00744953 0)
(0.0067644 -0.00504143 0)
(0.00615028 -0.00189037 0)
(0.00417679 0.0014222 0)
(0.000640299 0.00475427 0)
(-0.00458306 0.00816891 0)
(-0.0118657 0.0120225 0)
(-0.0215905 0.0166292 0)
(-0.0342159 0.0222582 0)
(-0.0500477 0.0289328 0)
(-0.0691852 0.036508 0)
(-0.0913342 0.0445699 0)
(-0.115786 0.0525167 0)
(-0.141489 0.0596035 0)
(-0.167301 0.0651768 0)
(-0.192217 0.0687809 0)
(-0.215511 0.0702303 0)
(-0.236729 0.0695303 0)
(-0.255636 0.0668302 0)
(-0.272141 0.0623332 0)
(-0.286236 0.0562729 0)
(-0.297957 0.0488651 0)
(-0.307354 0.0403128 0)
(-0.31448 0.0307848 0)
(-0.319373 0.0204356 0)
(-0.32206 0.00939697 0)
(-0.322531 -0.0021957 0)
(-0.320758 -0.0142044 0)
(-0.316667 -0.0264582 0)
(-0.31016 -0.038749 0)
(-0.3011 -0.0507995 0)
(-0.289341 -0.0622611 0)
(-0.274735 -0.0726915 0)
(-0.257184 -0.0815731 0)
(-0.236668 -0.0883237 0)
(-0.21333 -0.0923639 0)
(-0.187503 -0.0931809 0)
(-0.159792 -0.0904484 0)
(-0.13104 -0.0841136 0)
(-0.102325 -0.0744908 0)
(-0.0747898 -0.0622526 0)
(-0.049534 -0.0483647 0)
(-0.0273772 -0.0339087 0)
(-0.00884108 -0.0199128 0)
(0.00593051 -0.00721183 0)
(0.0169479 0.00358271 0)
(0.0244166 0.0120744 0)
(0.0285314 0.018062 0)
(0.0297145 0.0215723 0)
(0.0283927 0.0228586 0)
(0.0252809 0.0223856 0)
(0.0209351 0.0207061 0)
(0.0161147 0.018336 0)
(0.01116 0.0155812 0)
(0.00670192 0.01243 0)
(0.00285433 0.00854674 0)
(0.000481724 0.00339354 0)
(0.000414114 -0.0045168 0)
(0.00200759 -0.00918476 0)
(0.00379184 -0.0101665 0)
(0.00456796 -0.00817538 0)
(0.00403158 -0.00442337 0)
(0.00177411 0.000276154 0)
(-0.00224034 0.00524573 0)
(-0.00829633 0.0104505 0)
(-0.0166839 0.0160635 0)
(-0.0279085 0.0225678 0)
(-0.042416 0.0302702 0)
(-0.0605274 0.039316 0)
(-0.0821932 0.0494317 0)
(-0.106912 0.060052 0)
(-0.133708 0.0702937 0)
(-0.161342 0.0792486 0)
(-0.188603 0.0861473 0)
(-0.214536 0.0905624 0)
(-0.238523 0.0923478 0)
(-0.260218 0.0916022 0)
(-0.279483 0.0885353 0)
(-0.296298 0.0834305 0)
(-0.310725 0.0765662 0)
(-0.322862 0.0682171 0)
(-0.332836 0.0586138 0)
(-0.340774 0.0479625 0)
(-0.346812 0.0364222 0)
(-0.351058 0.0241304 0)
(-0.35361 0.0111909 0)
(-0.354516 -0.00229614 0)
(-0.353792 -0.0162382 0)
(-0.351387 -0.0305142 0)
(-0.347197 -0.0449711 0)
(-0.341038 -0.0593817 0)
(-0.332667 -0.0734371 0)
(-0.32177 -0.0867076 0)
(-0.308011 -0.0986475 0)
(-0.291054 -0.108584 0)
(-0.270663 -0.115774 0)
(-0.246764 -0.119457 0)
(-0.219586 -0.118997 0)
(-0.189713 -0.114012 0)
(-0.15816 -0.104543 0)
(-0.12628 -0.0911355 0)
(-0.0956299 -0.0748478 0)
(-0.0676394 -0.0570692 0)
(-0.0433882 -0.0392581 0)
(-0.0233551 -0.0226356 0)
(-0.00757407 -0.00805462 0)
(0.00427289 0.00399704 0)
(0.0124908 0.0132655 0)
(0.0174908 0.0197045 0)
(0.019589 0.0234388 0)
(0.0193521 0.0248336 0)
(0.0172388 0.0243782 0)
(0.0139994 0.0226397 0)
(0.0100596 0.0199702 0)
(0.00618791 0.0164517 0)
(0.00265935 0.0116341 0)
(0.000443668 0.00484539 0)
(0.000407322 -0.00564243 0)
(0.0016749 -0.0107743 0)
(0.00263333 -0.0110923 0)
(0.00212582 -0.00767625 0)
(-0.00013564 -0.00218605 0)
(-0.0044985 0.00446097 0)
(-0.0110802 0.0115609 0)
(-0.0202581 0.0192525 0)
(-0.0324756 0.0278174 0)
(-0.0482458 0.0377705 0)
(-0.0678569 0.0492189 0)
(-0.0911821 0.0619319 0)
(-0.117549 0.0751113 0)
(-0.145798 0.0877189 0)
(-0.174566 0.0986274 0)
(-0.202591 0.107019 0)
(-0.228955 0.112425 0)
(-0.253073 0.114762 0)
(-0.27466 0.114162 0)
(-0.293605 0.110915 0)
(-0.309943 0.105347 0)
(-0.323776 0.0978163 0)
(-0.335282 0.0886478 0)
(-0.344661 0.0781471 0)
(-0.352145 0.0665597 0)
(-0.357955 0.054096 0)
(-0.362312 0.0409035 0)
(-0.365398 0.0270991 0)
(-0.367378 0.0127523 0)
(-0.368354 -0.00207908 0)
(-0.368397 -0.0173575 0)
(-0.367499 -0.0330257 0)
(-0.365594 -0.0490071 0)
(-0.362515 -0.0651591 0)
(-0.358004 -0.0812633 0)
(-0.351679 -0.0969728 0)
(-0.343056 -0.111801 0)
(-0.331547 -0.125083 0)
(-0.316543 -0.135995 0)
(-0.29748 -0.143587 0)
(-0.27401 -0.146893 0)
(-0.246137 -0.145082 0)
(-0.214419 -0.137683 0)
(-0.18002 -0.124789 0)
(-0.14471 -0.107217 0)
(-0.110571 -0.0864725 0)
(-0.0796168 -0.0645008 0)
(-0.0532448 -0.0432144 0)
(-0.0320311 -0.0240776 0)
(-0.0157269 -0.00789349 0)
(-0.00377877 0.00502454 0)
(0.00448367 0.014681 0)
(0.00951903 0.0211972 0)
(0.0118839 0.0248948 0)
(0.0119814 0.0261748 0)
(0.0104983 0.0255818 0)
(0.00788694 0.0234408 0)
(0.00496006 0.0198751 0)
(0.0021234 0.0143448 0)
(0.000333878 0.00610861 0)
(0.000352924 -0.0065379 0)
(0.00103164 -0.0115733 0)
(0.000760147 -0.0106906 0)
(-0.0014445 -0.00538532 0)
(-0.00585712 0.00224948 0)
(-0.0127527 0.0112698 0)
(-0.0223772 0.021024 0)
(-0.0351706 0.0318421 0)
(-0.0516312 0.0440193 0)
(-0.0720472 0.0578897 0)
(-0.0962737 0.0730962 0)
(-0.123524 0.0888378 0)
(-0.152546 0.103815 0)
(-0.18185 0.116797 0)
(-0.210145 0.1268 0)
(-0.236462 0.133359 0)
(-0.260237 0.136362 0)
(-0.281161 0.136011 0)
(-0.299162 0.132628 0)
(-0.31429 0.126642 0)
(-0.326733 0.118476 0)
(-0.336734 0.108563 0)
(-0.344607 0.0972713 0)
(-0.350664 0.0849308 0)
(-0.355232 0.0717847 0)
(-0.358592 0.0580275 0)
(-0.361013 0.0437755 0)
(-0.362703 0.0291096 0)
(-0.363847 0.0140553 0)
(-0.364573 -0.0013758 0)
(-0.364983 -0.0172008 0)
(-0.365115 -0.0334254 0)
(-0.364965 -0.0500521 0)
(-0.364438 -0.0670351 0)
(-0.363359 -0.0842756 0)
(-0.361404 -0.101564 0)
(-0.358111 -0.11856 0)
(-0.352822 -0.134725 0)
(-0.344727 -0.149309 0)
(-0.332881 -0.16132 0)
(-0.316358 -0.169588 0)
(-0.294406 -0.172864 0)
(-0.266736 -0.170052 0)
(-0.233751 -0.160478 0)
(-0.196775 -0.144235 0)
(-0.158008 -0.122383 0)
(-0.120255 -0.0969699 0)
(-0.0862316 -0.0706136 0)
(-0.0578668 -0.045836 0)
(-0.0357504 -0.0243453 0)
(-0.0194151 -0.00688151 0)
(-0.00783942 0.00656484 0)
(-0.000144989 0.0162464 0)
(0.00446475 0.0225833 0)
(0.00650403 0.0259634 0)
(0.00664977 0.0269 0)
(0.00538254 0.0256572 0)
(0.0034983 0.0223461 0)
(0.00149007 0.0163763 0)
(0.000212266 0.00701597 0)
(0.00023147 -0.00709837 0)
(2.36143e-05 -0.0113335 0)
(-0.00187099 -0.00867911 0)
(-0.00612469 -0.00104234 0)
(-0.0130264 0.00913521 0)
(-0.022773 0.0209747 0)
(-0.0357575 0.0339243 0)
(-0.0523764 0.0484273 0)
(-0.0729984 0.0645877 0)
(-0.0974302 0.0822911 0)
(-0.124946 0.100543 0)
(-0.154171 0.118024 0)
(-0.183599 0.133229 0)
(-0.211802 0.145096 0)
(-0.237798 0.153006 0)
(-0.26093 0.156876 0)
(-0.280912 0.156886 0)
(-0.297643 0.153459 0)
(-0.311258 0.147081 0)
(-0.321988 0.138311 0)
(-0.330204 0.127657 0)
(-0.336288 0.115606 0)
(-0.340668 0.102538 0)
(-0.343711 0.0887694 0)
(-0.345771 0.0745095 0)
(-0.34712 0.0599109 0)
(-0.348001 0.0450436 0)
(-0.348587 0.0299475 0)
(-0.349033 0.0146092 0)
(-0.349443 -0.00099198 0)
(-0.349919 -0.0169066 0)
(-0.350519 -0.0331761 0)
(-0.351294 -0.0498517 0)
(-0.352238 -0.0669556 0)
(-0.353301 -0.0844884 0)
(-0.354317 -0.102378 0)
(-0.354996 -0.120463 0)
(-0.354835 -0.138419 0)
(-0.353102 -0.155712 0)
(-0.348783 -0.171523 0)
(-0.340652 -0.184728 0)
(-0.327358 -0.193905 0)
(-0.307706 -0.197485 0)
(-0.280963 -0.193989 0)
(-0.247303 -0.182448 0)
(-0.208104 -0.162835 0)
(-0.166064 -0.136468 0)
(-0.124782 -0.106015 0)
(-0.0879052 -0.0749887 0)
(-0.0579043 -0.0466398 0)
(-0.0354383 -0.0229941 0)
(-0.0195798 -0.00455041 0)
(-0.00893309 0.00902681 0)
(-0.00218078 0.0184233 0)
(0.00155782 0.0241882 0)
(0.00310463 0.0268939 0)
(0.00303257 0.0267802 0)
(0.0021169 0.0239334 0)
(0.000900874 0.0177661 0)
(0.000105062 0.00761115 0)
(1.78727e-05 -0.00702928 0)
(-0.00140403 -0.00958767 0)
(-0.0052882 -0.00458607 0)
(-0.011875 0.00578143 0)
(-0.0215116 0.0188733 0)
(-0.0342958 0.033946 0)
(-0.0507314 0.0505227 0)
(-0.0709993 0.0689733 0)
(-0.0951434 0.0889597 0)
(-0.122349 0.109739 0)
(-0.151394 0.129732 0)
(-0.180593 0.14738 0)
(-0.208531 0.161313 0)
(-0.234031 0.170849 0)
(-0.25645 0.175767 0)
(-0.275389 0.176315 0)
(-0.290825 0.172929 0)
(-0.302881 0.166244 0)
(-0.311935 0.156904 0)
(-0.318403 0.145575 0)
(-0.322815 0.132816 0)
(-0.325632 0.119115 0)
(-0.327317 0.104814 0)
(-0.328214 0.0901737 0)
(-0.328631 0.0753342 0)
(-0.328763 0.0603868 0)
(-0.328787 0.0453459 0)
(-0.328797 0.0302107 0)
(-0.328894 0.0149374 0)
(-0.32913 -0.000513309 0)
(-0.329584 -0.0162053 0)
(-0.330305 -0.0321901 0)
(-0.33137 -0.048535 0)
(-0.332827 -0.0652909 0)
(-0.334729 -0.0825121 0)
(-0.337065 -0.100219 0)
(-0.339759 -0.118397 0)
(-0.342572 -0.136932 0)
(-0.345065 -0.155569 0)
(-0.346481 -0.173807 0)
(-0.345715 -0.190818 0)
(-0.341279 -0.205356 0)
(-0.331448 -0.215758 0)
(-0.314501 -0.220058 0)
(-0.289199 -0.216303 0)
(-0.255333 -0.203061 0)
(-0.214284 -0.180105 0)
(-0.169218 -0.148974 0)
(-0.124696 -0.113145 0)
(-0.0853801 -0.0772388 0)
(-0.0543845 -0.0454589 0)
(-0.0321935 -0.0200024 0)
(-0.0173869 -0.00107768 0)
(-0.0080008 0.0122415 0)
(-0.00250488 0.0208719 0)
(0.000309762 0.0256329 0)
(0.00124272 0.0268641 0)
(0.00111241 0.0246758 0)
(0.000507096 0.0185493 0)
(4.63411e-05 0.00792317 0)
(-0.000293721 -0.00615177 0)
(-0.00321862 -0.00609912 0)
(-0.0093559 0.00175487 0)
(-0.0184273 0.0151654 0)
(-0.0308857 0.031476 0)
(-0.046681 0.0500877 0)
(-0.0663392 0.070488 0)
(-0.0896416 0.0927302 0)
(-0.116202 0.115853 0)
(-0.144626 0.138494 0)
(-0.173445 0.158736 0)
(-0.200952 0.175102 0)
(-0.226017 0.186579 0)
(-0.247753 0.192914 0)
(-0.265839 0.194257 0)
(-0.280137 0.191164 0)
(-0.290922 0.184323 0)
(-0.29856 0.174566 0)
(-0.30365 0.162652 0)
(-0.306738 0.149296 0)
(-0.308423 0.135032 0)
(-0.309147 0.120285 0)
(-0.309322 0.105307 0)
(-0.309193 0.0902713 0)
(-0.308976 0.0752337 0)
(-0.308758 0.0602221 0)
(-0.308631 0.0452037 0)
(-0.30861 0.0301504 0)
(-0.308739 0.0150039 0)
(-0.309021 -0.000275902 0)
(-0.309505 -0.015747 0)
(-0.310217 -0.0314496 0)
(-0.311235 -0.04744 0)
(-0.312621 -0.0637626 0)
(-0.314479 -0.0804789 0)
(-0.316884 -0.0976413 0)
(-0.319915 -0.115308 0)
(-0.32356 -0.133505 0)
(-0.327702 -0.152198 0)
(-0.331979 -0.171213 0)
(-0.335713 -0.190135 0)
(-0.337761 -0.208162 0)
(-0.336489 -0.223979 0)
(-0.329818 -0.235679 0)
(-0.315529 -0.240864 0)
(-0.291788 -0.236986 0)
(-0.257934 -0.222033 0)
(-0.215255 -0.19545 0)
(-0.167446 -0.159079 0)
(-0.120122 -0.117411 0)
(-0.0791296 -0.0765656 0)
(-0.0480539 -0.0417167 0)
(-0.0269853 -0.0151479 0)
(-0.0137322 0.00365931 0)
(-0.00594285 0.0160494 0)
(-0.00174535 0.0233407 0)
(8.86407e-05 0.0261897 0)
(0.000559311 0.0248624 0)
(0.000338675 0.0189899 0)
(3.7358e-05 0.00812674 0)
(-0.000708248 -0.00416674 0)
(-0.005374 -0.00052272 0)
(-0.013919 0.0106015 0)
(-0.0255003 0.0272781 0)
(-0.0407039 0.0470144 0)
(-0.0592533 0.0692843 0)
(-0.0815896 0.0933688 0)
(-0.106976 0.118792 0)
(-0.134627 0.143943 0)
(-0.16275 0.167018 0)
(-0.189893 0.186078 0)
(-0.214513 0.199956 0)
(-0.235839 0.208088 0)
(-0.253266 0.210643 0)
(-0.266814 0.208129 0)
(-0.276628 0.201409 0)
(-0.283283 0.1914 0)
(-0.287339 0.179071 0)
(-0.289534 0.165219 0)
(-0.290431 0.150518 0)
(-0.290597 0.135409 0)
(-0.29037 0.120203 0)
(-0.290055 0.105038 0)
(-0.289767 0.0899867 0)
(-0.289621 0.0750318 0)
(-0.289608 0.0601501 0)
(-0.289754 0.0452778 0)
(-0.290013 0.0303737 0)
(-0.290395 0.0153783 0)
(-0.290867 0.000259863 0)
(-0.29146 -0.0150258 0)
(-0.292178 -0.0305005 0)
(-0.293086 -0.0462005 0)
(-0.294236 -0.0621502 0)
(-0.295738 -0.0783946 0)
(-0.297691 -0.09498 0)
(-0.300237 -0.111979 0)
(-0.303484 -0.129469 0)
(-0.307524 -0.147535 0)
(-0.312316 -0.166219 0)
(-0.317632 -0.185447 0)
(-0.322872 -0.204905 0)
(-0.326945 -0.223849 0)
(-0.328113 -0.240908 0)
(-0.32403 -0.253933 0)
(-0.311991 -0.260036 0)
(-0.289571 -0.255976 0)
(-0.255601 -0.239017 0)
(-0.211285 -0.208245 0)
(-0.160922 -0.165916 0)
(-0.111396 -0.118 0)
(-0.0697622 -0.0724256 0)
(-0.0398028 -0.0354106 0)
(-0.0206844 -0.00866062 0)
(-0.00945734 0.00907893 0)
(-0.00337452 0.0198101 0)
(-0.000542448 0.0247772 0)
(0.000428296 0.0246239 0)
(0.000391001 0.0192396 0)
(7.82811e-05 0.00831262 0)
(-0.00119611 -0.000947365 0)
(-0.00771452 0.00718749 0)
(-0.0186577 0.0218577 0)
(-0.0326088 0.0418885 0)
(-0.0502884 0.0650899 0)
(-0.0711057 0.090872 0)
(-0.0953341 0.118146 0)
(-0.121699 0.1458 0)
(-0.149154 0.171697 0)
(-0.175723 0.193852 0)
(-0.20017 0.210558 0)
(-0.221201 0.221087 0)
(-0.238422 0.225343 0)
(-0.251519 0.223906 0)
(-0.260874 0.217645 0)
(-0.266893 0.207691 0)
(-0.27039 0.195122 0)
(-0.272012 0.180941 0)
(-0.272524 0.165887 0)
(-0.272397 0.150515 0)
(-0.272096 0.135122 0)
(-0.271805 0.119885 0)
(-0.271711 0.104827 0)
(-0.271808 0.0899415 0)
(-0.272133 0.0751561 0)
(-0.272605 0.0604195 0)
(-0.273216 0.0456567 0)
(-0.273887 0.0308285 0)
(-0.274612 0.0158851 0)
(-0.27534 0.000809496 0)
(-0.276094 -0.0144246 0)
(-0.276858 -0.0298186 0)
(-0.277687 -0.0453862 0)
(-0.278611 -0.0611274 0)
(-0.279725 -0.0770609 0)
(-0.281112 -0.0932085 0)
(-0.28292 -0.109622 0)
(-0.285286 -0.126378 0)
(-0.288394 -0.14359 0)
(-0.292379 -0.161397 0)
(-0.297317 -0.179926 0)
(-0.303073 -0.199216 0)
(-0.309169 -0.21906 0)
(-0.314556 -0.238783 0)
(-0.317449 -0.256954 0)
(-0.315255 -0.271148 0)
(-0.30483 -0.277919 0)
(-0.283174 -0.273216 0)
(-0.248641 -0.253491 0)
(-0.202444 -0.21748 0)
(-0.149708 -0.168243 0)
(-0.0988245 -0.11377 0)
(-0.0580047 -0.0643324 0)
(-0.0305292 -0.0265114 0)
(-0.0141594 -0.00100852 0)
(-0.00524374 0.014671 0)
(-0.00102296 0.0226136 0)
(0.000521629 0.0241271 0)
(0.000576043 0.019513 0)
(0.000149399 0.00862669 0)
(-0.00173013 0.00366733 0)
(-0.0101053 0.0171152 0)
(-0.0233055 0.0354887 0)
(-0.0393553 0.0588496 0)
(-0.0590818 0.085392 0)
(-0.0815134 0.114294 0)
(-0.10673 0.143988 0)
(-0.132994 0.172741 0)
(-0.15918 0.198111 0)
(-0.183307 0.21818 0)
(-0.204471 0.231654 0)
(-0.221653 0.238284 0)
(-0.234849 0.238455 0)
(-0.244036 0.233149 0)
(-0.249933 0.22356 0)
(-0.253127 0.211006 0)
(-0.254563 0.196615 0)
(-0.254854 0.18132 0)
(-0.254694 0.165721 0)
(-0.254398 0.150205 0)
(-0.254294 0.134916 0)
(-0.254419 0.119902 0)
(-0.254862 0.105102 0)
(-0.255528 0.0904521 0)
(-0.256412 0.0758545 0)
(-0.257396 0.0612483 0)
(-0.258463 0.0465626 0)
(-0.259522 0.0317673 0)
(-0.260571 0.0168259 0)
(-0.261553 0.00173533 0)
(-0.262489 -0.0135152 0)
(-0.263353 -0.0289125 0)
(-0.264191 -0.0444523 0)
(-0.265011 -0.060117 0)
(-0.265886 -0.0759016 0)
(-0.266867 -0.0918026 0)
(-0.268072 -0.10784 0)
(-0.269618 -0.124059 0)
(-0.271687 -0.14055 0)
(-0.274468 -0.157459 0)
(-0.278181 -0.174979 0)
(-0.282969 -0.193335 0)
(-0.288821 -0.212675 0)
(-0.295347 -0.232911 0)
(-0.301551 -0.253409 0)
(-0.305573 -0.27264 0)
(-0.304577 -0.287816 0)
(-0.294988 -0.294808 0)
(-0.273268 -0.288629 0)
(-0.237423 -0.264846 0)
(-0.188897 -0.222095 0)
(-0.134044 -0.164808 0)
(-0.0830509 -0.104056 0)
(-0.0449067 -0.052351 0)
(-0.0212573 -0.0158419 0)
(-0.0081639 0.00702155 0)
(-0.00183298 0.0192958 0)
(0.000580813 0.023259 0)
(0.000789361 0.0198168 0)
(0.00023231 0.00908852 0)
(-0.00224892 0.00961786 0)
(-0.0123262 0.0290252 0)
(-0.0274891 0.051104 0)
(-0.0452353 0.0776093 0)
(-0.0664561 0.107159 0)
(-0.0897701 0.138553 0)
(-0.115092 0.169728 0)
(-0.140346 0.198441 0)
(-0.164495 0.222186 0)
(-0.185675 0.239302 0)
(-0.203367 0.249006 0)
(-0.21683 0.251541 0)
(-0.226446 0.247769 0)
(-0.23245 0.239033 0)
(-0.235818 0.226775 0)
(-0.237211 0.212378 0)
(-0.237585 0.196911 0)
(-0.237429 0.181144 0)
(-0.237309 0.165497 0)
(-0.237361 0.150177 0)
(-0.237794 0.13519 0)
(-0.238523 0.120489 0)
(-0.239577 0.105956 0)
(-0.240808 0.0915029 0)
(-0.2422 0.0770263 0)
(-0.243622 0.0624711 0)
(-0.245068 0.0477797 0)
(-0.246443 0.0329349 0)
(-0.247759 0.0179154 0)
(-0.248956 0.00273028 0)
(-0.250061 -0.0126177 0)
(-0.251041 -0.0281043 0)
(-0.251937 -0.043712 0)
(-0.252741 -0.0594108 0)
(-0.253508 -0.0751786 0)
(-0.254261 -0.0909927 0)
(-0.255085 -0.106844 0)
(-0.256052 -0.122747 0)
(-0.257304 -0.138744 0)
(-0.259003 -0.154944 0)
(-0.261384 -0.171515 0)
(-0.264699 -0.188725 0)
(-0.26919 -0.206884 0)
(-0.274938 -0.226279 0)
(-0.281647 -0.246922 0)
(-0.288341 -0.268216 0)
(-0.293031 -0.288431 0)
(-0.292591 -0.304276 0)
(-0.282966 -0.310741 0)
(-0.26017 -0.301724 0)
(-0.222031 -0.271979 0)
(-0.17071 -0.220459 0)
(-0.114314 -0.15425 0)
(-0.0651378 -0.0884038 0)
(-0.0318058 -0.0373153 0)
(-0.0129335 -0.00424874 0)
(-0.00348416 0.0142541 0)
(0.00031783 0.0218077 0)
(0.000907208 0.0201161 0)
(0.000303257 0.00971959 0)
(-0.0027127 0.0168351 0)
(-0.0142407 0.0427282 0)
(-0.0309828 0.068429 0)
(-0.0499525 0.0978048 0)
(-0.0720587 0.129905 0)
(-0.0955323 0.163054 0)
(-0.120188 0.194744 0)
(-0.143754 0.22239 0)
(-0.165403 0.243641 0)
(-0.183461 0.257222 0)
(-0.197802 0.262909 0)
(-0.207954 0.261433 0)
(-0.214648 0.254104 0)
(-0.218305 0.242547 0)
(-0.220054 0.228339 0)
(-0.220513 0.212805 0)
(-0.220569 0.196866 0)
(-0.22053 0.181082 0)
(-0.220823 0.165684 0)
(-0.221427 0.150717 0)
(-0.222462 0.13609 0)
(-0.223762 0.121691 0)
(-0.225334 0.107381 0)
(-0.227006 0.0930649 0)
(-0.228776 0.0786525 0)
(-0.230512 0.0640997 0)
(-0.232226 0.0493646 0)
(-0.233828 0.0344419 0)
(-0.235343 0.0193227 0)
(-0.236712 0.0040242 0)
(-0.237966 -0.0114411 0)
(-0.239069 -0.0270432 0)
(-0.240059 -0.0427557 0)
(-0.240918 -0.0585427 0)
(-0.24169 -0.0743711 0)
(-0.242378 -0.0902082 0)
(-0.243041 -0.106026 0)
(-0.243711 -0.121813 0)
(-0.244485 -0.137574 0)
(-0.245465 -0.153367 0)
(-0.246837 -0.169298 0)
(-0.248832 -0.185586 0)
(-0.251759 -0.202542 0)
(-0.255929 -0.220602 0)
(-0.261517 -0.240162 0)
(-0.268304 -0.261361 0)
(-0.275273 -0.283553 0)
(-0.280259 -0.304701 0)
(-0.279701 -0.320762 0)
(-0.269071 -0.325555 0)
(-0.243953 -0.311721 0)
(-0.202446 -0.273342 0)
(-0.148015 -0.210844 0)
(-0.0913939 -0.135536 0)
(-0.0467332 -0.0677485 0)
(-0.0200973 -0.0206039 0)
(-0.00637238 0.00659731 0)
(-0.000475899 0.0192974 0)
(0.000846292 0.0201785 0)
(0.000349139 0.0104283 0)
(-0.00305998 0.0250412 0)
(-0.0156663 0.0577539 0)
(-0.0335176 0.0868714 0)
(-0.0531903 0.11871 0)
(-0.0755718 0.152771 0)
(-0.0985627 0.186867 0)
(-0.121955 0.218168 0)
(-0.14341 0.243911 0)
(-0.16238 0.262078 0)
(-0.177413 0.271844 0)
(-0.188759 0.273562 0)
(-0.196183 0.268415 0)
(-0.200697 0.258104 0)
(-0.202815 0.244422 0)
(-0.203712 0.228961 0)
(-0.203885 0.212888 0)
(-0.204097 0.196923 0)
(-0.204474 0.181405 0)
(-0.20532 0.166396 0)
(-0.206495 0.151819 0)
(-0.208068 0.137519 0)
(-0.20983 0.123355 0)
(-0.211793 0.109189 0)
(-0.213782 0.0949351 0)
(-0.215814 0.08052 0)
(-0.217766 0.0659129 0)
(-0.219667 0.0510879 0)
(-0.221432 0.0360481 0)
(-0.223096 0.0207958 0)
(-0.224599 0.00535311 0)
(-0.225977 -0.010259 0)
(-0.227189 -0.0260069 0)
(-0.228273 -0.0418565 0)
(-0.229203 -0.0577689 0)
(-0.230022 -0.0737027 0)
(-0.230717 -0.0896215 0)
(-0.231335 -0.105484 0)
(-0.231882 -0.121268 0)
(-0.232422 -0.13695 0)
(-0.233006 -0.152552 0)
(-0.233755 -0.168117 0)
(-0.234831 -0.183793 0)
(-0.236496 -0.19981 0)
(-0.239094 -0.216587 0)
(-0.243 -0.234639 0)
(-0.248482 -0.254536 0)
(-0.255331 -0.27647 0)
(-0.262466 -0.299696 0)
(-0.267355 -0.321629 0)
(-0.265973 -0.337135 0)
(-0.253144 -0.338527 0)
(-0.224359 -0.31698 0)
(-0.178406 -0.266696 0)
(-0.121233 -0.191128 0)
(-0.0668278 -0.108885 0)
(-0.0299904 -0.0438407 0)
(-0.0107579 -0.0045854 0)
(-0.00192093 0.0151852 0)
(0.000566545 0.0197642 0)
(0.000362643 0.011141 0)
(-0.00326972 0.0339727 0)
(-0.0165453 0.0737508 0)
(-0.0350185 0.106067 0)
(-0.0548884 0.139951 0)
(-0.0769892 0.175381 0)
(-0.098978 0.209685 0)
(-0.120694 0.239842 0)
(-0.139831 0.263074 0)
(-0.156153 0.277813 0)
(-0.168435 0.283718 0)
(-0.177261 0.281708 0)
(-0.182583 0.273365 0)
(-0.185609 0.260689 0)
(-0.186853 0.245522 0)
(-0.187451 0.229367 0)
(-0.187736 0.213171 0)
(-0.188336 0.197439 0)
(-0.189213 0.182303 0)
(-0.190587 0.167698 0)
(-0.192235 0.153461 0)
(-0.194212 0.139415 0)
(-0.196295 0.125407 0)
(-0.198513 0.111318 0)
(-0.2007 0.0970745 0)
(-0.202896 0.0826229 0)
(-0.204985 0.0679423 0)
(-0.207013 0.0530196 0)
(-0.208895 0.0378619 0)
(-0.210675 0.0224795 0)
(-0.212289 0.00689635 0)
(-0.213777 -0.0088602 0)
(-0.215092 -0.0247552 0)
(-0.216273 -0.040748 0)
(-0.217289 -0.056799 0)
(-0.21818 -0.0728598 0)
(-0.218929 -0.0888942 0)
(-0.219574 -0.104852 0)
(-0.220112 -0.120711 0)
(-0.220585 -0.136427 0)
(-0.22101 -0.152007 0)
(-0.221456 -0.167442 0)
(-0.222015 -0.182821 0)
(-0.222861 -0.198272 0)
(-0.224272 -0.214118 0)
(-0.22663 -0.230819 0)
(-0.230398 -0.24908 0)
(-0.235867 -0.269565 0)
(-0.242856 -0.292543 0)
(-0.249999 -0.316945 0)
(-0.254378 -0.339323 0)
(-0.251177 -0.352995 0)
(-0.234808 -0.34827 0)
(-0.200784 -0.315156 0)
(-0.149839 -0.24909 0)
(-0.0913531 -0.160267 0)
(-0.0433301 -0.0762011 0)
(-0.0166559 -0.0204291 0)
(-0.0041331 0.00878884 0)
(8.4907e-05 0.018532 0)
(0.000340743 0.0117386 0)
(-0.00330785 0.0432169 0)
(-0.0167919 0.0901397 0)
(-0.035388 0.125371 0)
(-0.0549774 0.160816 0)
(-0.0763195 0.197001 0)
(-0.0969221 0.230839 0)
(-0.116722 0.25926 0)
(-0.133521 0.279597 0)
(-0.147386 0.290802 0)
(-0.157305 0.293013 0)
(-0.164135 0.287682 0)
(-0.167957 0.276707 0)
(-0.170081 0.262286 0)
(-0.170948 0.246195 0)
(-0.171605 0.229781 0)
(-0.172208 0.213738 0)
(-0.173266 0.198373 0)
(-0.174615 0.183644 0)
(-0.176421 0.169403 0)
(-0.178422 0.155437 0)
(-0.180677 0.141567 0)
(-0.182966 0.127648 0)
(-0.185341 0.113584 0)
(-0.187649 0.0993126 0)
(-0.18995 0.0847995 0)
(-0.192133 0.0700286 0)
(-0.194255 0.0549968 0)
(-0.19623 0.039712 0)
(-0.198106 0.0241909 0)
(-0.199816 0.00845756 0)
(-0.201399 -0.00745405 0)
(-0.202805 -0.0235083 0)
(-0.204072 -0.0396569 0)
(-0.205164 -0.0558597 0)
(-0.206122 -0.0720601 0)
(-0.206925 -0.0882235 0)
(-0.207612 -0.104292 0)
(-0.208174 -0.120247 0)
(-0.208648 -0.136034 0)
(-0.209034 -0.151658 0)
(-0.209372 -0.167081 0)
(-0.209701 -0.182359 0)
(-0.210116 -0.197529 0)
(-0.210796 -0.212814 0)
(-0.21203 -0.228531 0)
(-0.214283 -0.24533 0)
(-0.218039 -0.264014 0)
(-0.223688 -0.28546 0)
(-0.23084 -0.309819 0)
(-0.237868 -0.335458 0)
(-0.241013 -0.357539 0)
(-0.234833 -0.367129 0)
(-0.213151 -0.352355 0)
(-0.172629 -0.302528 0)
(-0.116953 -0.217715 0)
(-0.060853 -0.118972 0)
(-0.0240916 -0.0426363 0)
(-0.00723473 -0.000435265 0)
(-0.000600153 0.0161 0)
(0.000293669 0.01216 0)
(-0.00318582 0.0524401 0)
(-0.0164455 0.106554 0)
(-0.0347079 0.14448 0)
(-0.0536104 0.181078 0)
(-0.0738179 0.217512 0)
(-0.0927838 0.250377 0)
(-0.110568 0.276673 0)
(-0.125132 0.29394 0)
(-0.136809 0.301681 0)
(-0.144778 0.300491 0)
(-0.150101 0.2923 0)
(-0.152923 0.279232 0)
(-0.154575 0.263582 0)
(-0.155384 0.246977 0)
(-0.156278 0.23057 0)
(-0.157259 0.214807 0)
(-0.158735 0.199826 0)
(-0.16046 0.185454 0)
(-0.162576 0.171497 0)
(-0.164803 0.157715 0)
(-0.167221 0.143951 0)
(-0.16962 0.130067 0)
(-0.172077 0.115995 0)
(-0.174449 0.101679 0)
(-0.176811 0.0871011 0)
(-0.179056 0.0722442 0)
(-0.181247 0.0571124 0)
(-0.183299 0.0417109 0)
(-0.185258 0.0260614 0)
(-0.187055 0.0101858 0)
(-0.188728 -0.00587544 0)
(-0.190223 -0.0220876 0)
(-0.191576 -0.0383938 0)
(-0.192749 -0.0547548 0)
(-0.193781 -0.0711043 0)
(-0.194648 -0.0874103 0)
(-0.195391 -0.103606 0)
(-0.195999 -0.119677 0)
(-0.19651 -0.135563 0)
(-0.196917 -0.151275 0)
(-0.197251 -0.166759 0)
(-0.197521 -0.18206 0)
(-0.19777 -0.197157 0)
(-0.198093 -0.212197 0)
(-0.19866 -0.227342 0)
(-0.199834 -0.2431 0)