/*--------------------------------*- C++ -*----------------------------------*\
| =========                 |                                                 |
| \\      /  F ield         | OpenFOAM: The Open Source CFD Toolbox           |
|  \\    /   O peration     | Version:  2406                                  |
|   \\  /    A nd           | Website:  www.openfoam.com                      |
|    \\/     M anipulation  |                                                 |
\*---------------------------------------------------------------------------*/
FoamFile
{
    version     2.0;
    format      ascii;
    arch        "LSB;label=32;scalar=64";
    class       volVectorField;
    location    "34.35";
    object      Uold;
}
// * * * * * * * * * * * * * * * * * * * * * * * * * * * * * * * * * * * * * //

dimensions      [0 1 -1 0 0 0 0];

internalField   nonuniform List<vector> 
14400
(
(-1.77597e-05 1.7712e-05 0)
(-2.83825e-06 -1.03336e-05 0)
(0.00010222 -4.12038e-05 0)
(0.000284285 -6.86627e-05 0)
(0.00053218 -8.50064e-05 0)
(0.000813382 -9.40922e-05 0)
(0.00111314 -9.50056e-05 0)
(0.00140606 -9.07314e-05 0)
(0.00168166 -8.1775e-05 0)
(0.0019252 -7.03933e-05 0)
(0.00213286 -5.75392e-05 0)
(0.00229992 -4.48349e-05 0)
(0.00242882 -3.30602e-05 0)
(0.00252199 -2.31111e-05 0)
(0.00258564 -1.52852e-05 0)
(0.00262545 -9.78622e-06 0)
(0.00264822 -6.41512e-06 0)
(0.00265931 -4.86072e-06 0)
(0.00266339 -4.59082e-06 0)
(0.0026631 -5.03573e-06 0)
(0.00265954 -5.57109e-06 0)
(0.0026518 -5.63698e-06 0)
(0.00263749 -4.74497e-06 0)
(0.00261272 -2.53665e-06 0)
(0.00257272 1.22992e-06 0)
(0.00251198 6.68042e-06 0)
(0.0024247 1.38653e-05 0)
(0.00230487 2.27903e-05 0)
(0.00214644 3.3456e-05 0)
(0.00194328 4.58782e-05 0)
(0.00168923 6.00994e-05 0)
(0.00137798 7.6183e-05 0)
(0.00100312 9.42009e-05 0)
(0.000558155 0.000114215 0)
(3.6603e-05 0.00013626 0)
(-0.00056787 0.000160328 0)
(-0.00126127 0.00018636 0)
(-0.00204906 0.000214234 0)
(-0.00293596 0.000243764 0)
(-0.00392568 0.000274691 0)
(-0.00502071 0.000306689 0)
(-0.00622208 0.000339358 0)
(-0.00752913 0.000372231 0)
(-0.00893933 0.000404777 0)
(-0.0104481 0.00043641 0)
(-0.0120488 0.000466497 0)
(-0.0137323 0.000494369 0)
(-0.0154876 0.000519332 0)
(-0.0173011 0.00054068 0)
(-0.0191572 0.000557706 0)
(-0.0210381 0.000569715 0)
(-0.0229241 0.000576029 0)
(-0.024794 0.000576004 0)
(-0.0266248 0.000569034 0)
(-0.0283923 0.000554561 0)
(-0.0300714 0.000532086 0)
(-0.0316362 0.000501181 0)
(-0.0330605 0.000461507 0)
(-0.0343181 0.000412827 0)
(-0.0353833 0.000355034 0)
(-0.0362309 0.000288173 0)
(-0.0368374 0.00021247 0)
(-0.037181 0.000128359 0)
(-0.0372421 3.65162e-05 0)
(-0.0370041 -6.21191e-05 0)
(-0.0364544 -0.00016632 0)
(-0.035584 -0.000274558 0)
(-0.0343893 -0.000385005 0)
(-0.0328719 -0.000495545 0)
(-0.0310393 -0.000603805 0)
(-0.0289058 -0.000707205 0)
(-0.0264921 -0.000803036 0)
(-0.0238256 -0.000888551 0)
(-0.0209407 -0.000961076 0)
(-0.0178777 -0.00101814 0)
(-0.0146828 -0.0010576 0)
(-0.0114067 -0.00107781 0)
(-0.00810323 -0.00107767 0)
(-0.00482845 -0.00105681 0)
(-0.00163839 -0.0010156 0)
(0.00141255 -0.000955196 0)
(0.00427344 -0.000877505 0)
(0.00689864 -0.000785119 0)
(0.00924939 -0.000681187 0)
(0.0112951 -0.000569254 0)
(0.0130145 -0.000453064 0)
(0.0143957 -0.000336362 0)
(0.0154368 -0.000222691 0)
(0.0161454 -0.000115218 0)
(0.0165372 -1.65929e-05 0)
(0.0166358 7.11457e-05 0)
(0.0164705 0.000146614 0)
(0.0160748 0.000209084 0)
(0.0154851 0.000258427 0)
(0.0147387 0.000295051 0)
(0.0138725 0.000319787 0)
(0.0129214 0.000333795 0)
(0.0119178 0.000338439 0)
(0.0108904 0.000335209 0)
(0.00986384 0.000325603 0)
(0.00885846 0.00031109 0)
(0.0078905 0.000293009 0)
(0.00697195 0.000272593 0)
(0.00611137 0.000250866 0)
(0.00531364 0.000228748 0)
(0.00458138 0.000206914 0)
(0.00391409 0.000186009 0)
(0.00331039 0.000166383 0)
(0.00276607 0.000148488 0)
(0.00227778 0.000132333 0)
(0.00183917 0.000118206 0)
(0.00144725 0.000105575 0)
(0.00109563 9.44879e-05 0)
(0.000785086 8.34137e-05 0)
(0.000512299 7.21234e-05 0)
(0.00028598 5.7496e-05 0)
(0.000109117 3.99243e-05 0)
(-2.09971e-06 1.5481e-05 0)
(-4.33511e-05 -7.6936e-06 0)
(-2.26927e-05 -2.2248e-05 0)
(9.17074e-06 3.48621e-06 0)
(0.000146147 -0.00014924 0)
(0.000469954 -0.00030584 0)
(0.000942895 -0.000444577 0)
(0.00154965 -0.000535925 0)
(0.00222814 -0.00058762 0)
(0.0029457 -0.000596846 0)
(0.00365022 -0.000573977 0)
(0.0043147 -0.000523883 0)
(0.00490706 -0.000456694 0)
(0.00541457 -0.000379251 0)
(0.00582559 -0.000299746 0)
(0.00614174 -0.00022365 0)
(0.00636667 -0.000155829 0)
(0.00651124 -9.87387e-05 0)
(0.00658645 -5.3584e-05 0)
(0.00660524 -1.9693e-05 0)
(0.00657817 4.69036e-06 0)
(0.00651393 2.2441e-05 0)
(0.00641701 3.69229e-05 0)
(0.00628823 5.17784e-05 0)
(0.00612387 7.04482e-05 0)
(0.00591657 9.59677e-05 0)
(0.0056555 0.000130723 0)
(0.00532739 0.000176428 0)
(0.00491713 0.000234151 0)
(0.00440857 0.000304472 0)
(0.00378493 0.000387648 0)
(0.00302923 0.000483789 0)
(0.00212442 0.000592964 0)
(0.00105356 0.00071525 0)
(-0.000200088 0.000850706 0)
(-0.00165285 0.000999296 0)
(-0.00332035 0.0011608 0)
(-0.0052171 0.0013347 0)
(-0.00735602 0.00152012 0)
(-0.00974782 0.00171576 0)
(-0.0124004 0.00191986 0)
(-0.0153184 0.00213016 0)
(-0.0185022 0.00234395 0)
(-0.0219478 0.00255805 0)
(-0.0256461 0.00276888 0)
(-0.0295827 0.00297252 0)
(-0.0337377 0.00316476 0)
(-0.0380854 0.00334121 0)
(-0.0425947 0.00349744 0)
(-0.0472294 0.00362899 0)
(-0.0519481 0.00373158 0)
(-0.0567055 0.00380113 0)
(-0.0614525 0.00383389 0)
(-0.066137 0.00382651 0)
(-0.070705 0.00377609 0)
(-0.0751012 0.00368025 0)
(-0.0792697 0.00353714 0)
(-0.0831553 0.00334552 0)
(-0.0867036 0.00310476 0)
(-0.0898621 0.00281487 0)
(-0.0925811 0.00247652 0)
(-0.094814 0.00209109 0)
(-0.0965179 0.0016607 0)
(-0.0976547 0.00118823 0)
(-0.0981911 0.000677409 0)
(-0.0980995 0.000132824 0)
(-0.0973588 -0.000440012 0)
(-0.0959545 -0.00103464 0)
(-0.0938797 -0.00164363 0)
(-0.0911356 -0.00225858 0)
(-0.0877316 -0.00287021 0)
(-0.0836867 -0.00346837 0)
(-0.0790289 -0.00404226 0)
(-0.0737961 -0.00458059 0)
(-0.0680361 -0.00507185 0)
(-0.0618063 -0.00550466 0)
(-0.0551736 -0.0058681 0)
(-0.0482135 -0.00615218 0)
(-0.0410098 -0.00634827 0)
(-0.0336524 -0.00644956 0)
(-0.0262368 -0.00645148 0)
(-0.0188615 -0.00635205 0)
(-0.011626 -0.0061522 0)
(-0.00462877 -0.00585589 0)
(0.00203563 -0.00547012 0)
(0.00827886 -0.00500483 0)
(0.0140214 -0.00447254 0)
(0.0191947 -0.00388789 0)
(0.0237435 -0.00326707 0)
(0.0276269 -0.00262713 0)
(0.0308202 -0.0019852 0)
(0.0333146 -0.00135778 0)
(0.035118 -0.00076001 0)
(0.0362537 -0.000205103 0)
(0.0367595 0.000296167 0)
(0.0366855 0.000735776 0)
(0.036092 0.00110858 0)
(0.035047 0.00141234 0)
(0.033623 0.00164745 0)
(0.0318943 0.00181675 0)
(0.0299346 0.00192499 0)
(0.0278137 0.00197847 0)
(0.0255962 0.00198443 0)
(0.0233398 0.00195068 0)
(0.021094 0.00188508 0)
(0.0188995 0.00179527 0)
(0.0167889 0.00168828 0)
(0.0147859 0.00157051 0)
(0.0129072 0.00144738 0)
(0.0111619 0.00132367 0)
(0.00955449 0.00120292 0)
(0.00808283 0.00108826 0)
(0.00674409 0.000981098 0)
(0.00552938 0.00088278 0)
(0.00443436 0.000791726 0)
(0.00344896 0.000707063 0)
(0.00257505 0.000622782 0)
(0.00180763 0.0005361 0)
(0.00116246 0.000435846 0)
(0.000642591 0.000322684 0)
(0.000275641 0.000185929 0)
(5.85207e-05 5.57164e-05 0)
(-7.78979e-06 -4.32601e-05 0)
(3.73212e-05 -9.66502e-05 0)
(0.000293555 -0.000470236 0)
(0.000817801 -0.000834094 0)
(0.0015313 -0.00114725 0)
(0.00241727 -0.00136021 0)
(0.00339051 -0.0014786 0)
(0.00440912 -0.00149959 0)
(0.00540365 -0.00144152 0)
(0.00633714 -0.00131787 0)
(0.00716609 -0.00115004 0)
(0.00787138 -0.000955408 0)
(0.00843597 -0.000752407 0)
(0.00885952 -0.000554849 0)
(0.00914492 -0.000374054 0)
(0.00930414 -0.000216483 0)
(0.00934975 -8.50207e-05 0)
(0.00929659 2.15944e-05 0)
(0.00915642 0.000107601 0)
(0.00893826 0.000179835 0)
(0.00864544 0.000246549 0)
(0.008276 0.000316661 0)
(0.00782177 0.000398742 0)
(0.00726934 0.000500392 0)
(0.00660049 0.00062771 0)
(0.00579348 0.000785156 0)
(0.00482398 0.000975612 0)
(0.00366617 0.00120069 0)
(0.00229348 0.0014611 0)
(0.000679276 0.00175701 0)
(-0.00120275 0.00208825 0)
(-0.00337806 0.00245442 0)
(-0.00587086 0.00285476 0)
(-0.00870348 0.00328801 0)
(-0.0118957 0.00375216 0)
(-0.0154638 0.00424425 0)
(-0.0194197 0.00476016 0)
(-0.02377 0.00529456 0)
(-0.0285149 0.00584084 0)
(-0.0336476 0.00639114 0)
(-0.0391531 0.00693649 0)
(-0.0450084 0.00746692 0)
(-0.0511816 0.00797173 0)
(-0.0576327 0.00843971 0)
(-0.0643132 0.0088595 0)
(-0.0711674 0.00921983 0)
(-0.0781332 0.00950993 0)
(-0.0851429 0.00971975 0)
(-0.0921252 0.0098403 0)
(-0.0990062 0.00986384 0)
(-0.105711 0.00978402 0)
(-0.112165 0.00959606 0)
(-0.118294 0.00929673 0)
(-0.124029 0.0088844 0)
(-0.129303 0.00835897 0)
(-0.134052 0.00772185 0)
(-0.138221 0.00697584 0)
(-0.141757 0.0061251 0)
(-0.144615 0.00517506 0)
(-0.146753 0.0041324 0)
(-0.148138 0.00300502 0)
(-0.148743 0.00180203 0)
(-0.148547 0.000533823 0)
(-0.147535 -0.000787931 0)
(-0.145699 -0.00215022 0)
(-0.143039 -0.00353865 0)
(-0.139561 -0.00493743 0)
(-0.135279 -0.0063294 0)
(-0.130215 -0.00769609 0)
(-0.124399 -0.00901786 0)
(-0.11787 -0.0102741 0)
(-0.110674 -0.0114436 0)
(-0.102868 -0.012505 0)
(-0.0945163 -0.013437 0)
(-0.0856928 -0.0142195 0)
(-0.0764795 -0.0148338 0)
(-0.0669664 -0.0152636 0)
(-0.0572502 -0.0154957 0)
(-0.0474337 -0.0155209 0)
(-0.0376238 -0.0153343 0)
(-0.0279299 -0.0149361 0)
(-0.0184621 -0.0143322 0)
(-0.00932855 -0.0135338 0)
(-0.00063353 -0.0125577 0)
(0.00752533 -0.011426 0)
(0.0150593 -0.0101652 0)
(0.0218906 -0.00880547 0)
(0.0279551 -0.00737976 0)
(0.0332033 -0.00592233 0)
(0.037602 -0.00446761 0)
(0.0411357 -0.00304887 0)
(0.0438061 -0.001697 0)
(0.0456329 -0.000439314 0)
(0.0466524 0.000701359 0)
(0.0469165 0.0017074 0)
(0.0464907 0.00256689 0)
(0.0454517 0.00327369 0)
(0.0438841 0.00382739 0)
(0.0418778 0.00423276 0)
(0.039524 0.00449913 0)
(0.0369124 0.0046394 0)
(0.0341278 0.00466916 0)
(0.0312484 0.00460547 0)
(0.0283425 0.00446607 0)
(0.0254691 0.00426829 0)
(0.0226753 0.00402864 0)
(0.0199985 0.00376191 0)
(0.0174643 0.00348135 0)
(0.0150911 0.00319767 0)
(0.0128864 0.0029199 0)
(0.0108549 0.00265352 0)
(0.00899207 0.00240248 0)
(0.00729733 0.00216521 0)
(0.00576134 0.00193936 0)
(0.00438912 0.00171401 0)
(0.00317448 0.0014815 0)
(0.00213879 0.00122219 0)
(0.00128132 0.000934628 0)
(0.000642127 0.00060425 0)
(0.000209573 0.000279969 0)
(1.98144e-05 4.1472e-06 0)
(6.1993e-05 -0.000267276 0)
(0.000425132 -0.000933577 0)
(0.00112217 -0.00154524 0)
(0.00202969 -0.00205225 0)
(0.00312857 -0.00239609 0)
(0.00431322 -0.0025805 0)
(0.00553773 -0.00260465 0)
(0.00672048 -0.00249491 0)
(0.0078197 -0.00227469 0)
(0.00878437 -0.00197763 0)
(0.00959181 -0.00163305 0)
(0.0102209 -0.00127075 0)
(0.0106694 -0.00091396 0)
(0.0109383 -0.000581227 0)
(0.0110387 -0.000283469 0)
(0.0109818 -2.5337e-05 0)
(0.0107812 0.00019531 0)
(0.0104466 0.000385825 0)
(0.00998399 0.000557911 0)
(0.00939267 0.000725799 0)
(0.00866539 0.000904833 0)
(0.00778759 0.00110982 0)
(0.00673846 0.0013539 0)
(0.00549161 0.00164763 0)
(0.00401669 0.00199876 0)
(0.0022805 0.00241225 0)
(0.000248503 0.00289075 0)
(-0.00211421 0.00343518 0)
(-0.00484185 0.00404517 0)
(-0.00796712 0.00471941 0)
(-0.0115203 0.00545565 0)
(-0.0155281 0.00625056 0)
(-0.0200128 0.00709936 0)
(-0.0249908 0.00799546 0)
(-0.0304711 0.00893023 0)
(-0.0364544 0.00989272 0)
(-0.0429317 0.0108697 0)
(-0.049883 0.0118457 0)
(-0.0572775 0.0128033 0)
(-0.0650725 0.0137238 0)
(-0.0732143 0.0145873 0)
(-0.081639 0.0153735 0)
(-0.0902734 0.0160624 0)
(-0.0990368 0.0166351 0)
(-0.107843 0.0170742 0)
(-0.116604 0.0173643 0)
(-0.125228 0.0174927 0)
(-0.133627 0.0174495 0)
(-0.141714 0.0172276 0)
(-0.149407 0.0168233 0)
(-0.156632 0.0162353 0)
(-0.163317 0.0154654 0)
(-0.169403 0.0145175 0)
(-0.174832 0.0133977 0)
(-0.179558 0.0121138 0)
(-0.183541 0.0106752 0)
(-0.186746 0.00909281 0)
(-0.189146 0.00737835 0)
(-0.190719 0.0055448 0)
(-0.191448 0.00360615 0)
(-0.191323 0.00157743 0)
(-0.190337 -0.000525219 0)
(-0.188488 -0.0026844 0)
(-0.18578 -0.00488136 0)
(-0.182219 -0.0070959 0)
(-0.177819 -0.00930621 0)
(-0.172596 -0.0114889 0)
(-0.166576 -0.0136188 0)
(-0.159786 -0.0156695 0)
(-0.152264 -0.0176131 0)
(-0.144052 -0.0194207 0)
(-0.1352 -0.021063 0)
(-0.125769 -0.022511 0)
(-0.115824 -0.0237362 0)
(-0.105441 -0.0247124 0)
(-0.0947026 -0.0254159 0)
(-0.0836999 -0.0258269 0)
(-0.0725303 -0.0259307 0)
(-0.061297 -0.0257183 0)
(-0.0501075 -0.0251875 0)
(-0.0390716 -0.0243433 0)
(-0.0282998 -0.0231985 0)
(-0.0179005 -0.0217736 0)
(-0.00797867 -0.0200966 0)
(0.00136734 -0.0182021 0)
(0.0100474 -0.0161306 0)
(0.0179818 -0.0139272 0)
(0.0251031 -0.0116401 0)
(0.0313577 -0.00931889 0)
(0.036707 -0.00701333 0)
(0.0411286 -0.00477124 0)
(0.0446168 -0.00263717 0)
(0.047183 -0.000650837 0)
(0.0488554 0.00115413 0)
(0.0496787 0.00275125 0)
(0.0497126 0.00412198 0)
(0.0490303 0.00525607 0)
(0.0477155 0.00615163 0)
(0.0458602 0.00681466 0)
(0.043561 0.00725821 0)
(0.040915 0.00750129 0)
(0.0380177 0.00756727 0)
(0.0349579 0.00748252 0)
(0.0318173 0.0072746 0)
(0.0286662 0.00697122 0)
(0.0255645 0.00659852 0)
(0.0225588 0.00618076 0)
(0.0196862 0.00573863 0)
(0.0169701 0.0052899 0)
(0.0144289 0.00484684 0)
(0.012068 0.00441827 0)
(0.00989592 0.00400476 0)
(0.00790795 0.00360396 0)
(0.00611546 0.00320166 0)
(0.00451193 0.00278584 0)
(0.00312537 0.00232981 0)
(0.00194988 0.00182788 0)
(0.0010407 0.00126067 0)
(0.000379631 0.000681848 0)
(5.16662e-05 0.000137701 0)
(7.75285e-05 -0.000501032 0)
(0.000520942 -0.00153377 0)
(0.00135485 -0.00243729 0)
(0.00241453 -0.00315939 0)
(0.00367507 -0.00364096 0)
(0.00501018 -0.00388536 0)
(0.00637016 -0.00389715 0)
(0.0076631 -0.00371172 0)
(0.00884477 -0.00336465 0)
(0.00985908 -0.00290304 0)
(0.010682 -0.00236973 0)
(0.0112897 -0.00180685 0)
(0.0116792 -0.0012479 0)
(0.0118492 -0.000718965 0)
(0.0118092 -0.000235467 0)
(0.0115677 0.000196575 0)
(0.0111347 0.000580878 0)
(0.0105155 0.000928908 0)
(0.00971046 0.0012584 0)
(0.00871215 0.0015908 0)
(0.00750575 0.00194904 0)
(0.00606829 0.00235517 0)
(0.00437023 0.00282858 0)
(0.00237629 0.00338473 0)
(4.7522e-05 0.00403468 0)
(-0.00265725 0.00478522 0)
(-0.00577959 0.00563944 0)
(-0.00936008 0.00659742 0)
(-0.0134368 0.00765684 0)
(-0.0180439 0.00881325 0)
(-0.0232102 0.01006 0)
(-0.0289573 0.0113881 0)
(-0.0352981 0.0127854 0)
(-0.0422351 0.0142366 0)
(-0.0497583 0.0157227 0)
(-0.0578448 0.0172213 0)
(-0.0664572 0.0187068 0)
(-0.075544 0.0201507 0)
(-0.08504 0.021523 0)
(-0.0948672 0.0227927 0)
(-0.104937 0.023929 0)
(-0.115154 0.0249028 0)
(-0.125416 0.0256874 0)
(-0.13562 0.0262597 0)
(-0.145664 0.0266007 0)
(-0.155449 0.0266962 0)
(-0.164882 0.0265369 0)
(-0.173879 0.026118 0)
(-0.182365 0.0254395 0)
(-0.190272 0.0245051 0)
(-0.197544 0.023322 0)
(-0.204134 0.0219002 0)
(-0.210002 0.0202519 0)
(-0.215116 0.0183908 0)
(-0.219451 0.0163319 0)
(-0.222989 0.014091 0)
(-0.225713 0.0116846 0)
(-0.227614 0.00912942 0)
(-0.228684 0.00644301 0)
(-0.228918 0.00364325 0)
(-0.228313 0.000748813 0)
(-0.226869 -0.00222073 0)
(-0.224587 -0.00524461 0)
(-0.221471 -0.00830063 0)
(-0.217526 -0.0113648 0)
(-0.212762 -0.0144114 0)
(-0.20719 -0.0174122 0)
(-0.200825 -0.0203373 0)
(-0.193689 -0.023154 0)
(-0.185808 -0.0258283 0)
(-0.177214 -0.0283239 0)
(-0.167947 -0.030604 0)
(-0.158053 -0.0326309 0)
(-0.147589 -0.0343679 0)
(-0.136621 -0.0357799 0)
(-0.125221 -0.0368348 0)
(-0.113472 -0.0375047 0)
(-0.101466 -0.0377678 0)
(-0.0893018 -0.0376092 0)
(-0.0770836 -0.0370224 0)
(-0.0649208 -0.03601 0)
(-0.0529252 -0.0345847 0)
(-0.0412085 -0.032769 0)
(-0.0298803 -0.030595 0)
(-0.0190457 -0.0281042 0)
(-0.00880297 -0.0253458 0)
(0.000758279 -0.0223753 0)
(0.00955904 -0.0192534 0)
(0.0175322 -0.0160432 0)
(0.0246235 -0.0128091 0)
(0.0307929 -0.00961463 0)
(0.0360145 -0.00652046 0)
(0.0402779 -0.00358287 0)
(0.0435879 -0.000852055 0)
(0.0459652 0.00162933 0)
(0.047446 0.00382739 0)
(0.0480815 0.00571807 0)
(0.0479373 0.00728771 0)
(0.0470909 0.0085333 0)
(0.0456302 0.00946214 0)
(0.0436498 0.010091 0)
(0.0412482 0.0104446 0)
(0.0385233 0.0105543 0)
(0.0355702 0.0104552 0)
(0.032476 0.0101852 0)
(0.0293202 0.00978175 0)
(0.0261692 0.00928134 0)
(0.0230802 0.0087166 0)
(0.0200949 0.00811632 0)
(0.0172489 0.00750229 0)
(0.0145612 0.00689064 0)
(0.0120537 0.00628675 0)
(0.00972963 0.00569008 0)
(0.00760976 0.00508541 0)
(0.00568973 0.00445681 0)
(0.00400673 0.003772 0)
(0.00255219 0.003018 0)
(0.00140016 0.00216896 0)
(0.000530098 0.00126957 0)
(7.81957e-05 0.00035785 0)
(8.92232e-05 -0.000773095 0)
(0.000595268 -0.00222509 0)
(0.00153476 -0.00344696 0)
(0.00270833 -0.00438906 0)
(0.00408276 -0.00499911 0)
(0.0055124 -0.00528422 0)
(0.00694335 -0.00525836 0)
(0.00827499 -0.00496795 0)
(0.00946199 -0.00446257 0)
(0.0104452 -0.00380359 0)
(0.0112007 -0.0030479 0)
(0.0117037 -0.00224983 0)
(0.0119506 -0.00145275 0)
(0.0119385 -0.000689505 0)
(0.0116743 2.0927e-05 0)
(0.0111623 0.000672298 0)
(0.0104074 0.00127108 0)
(0.00940789 0.00183402 0)
(0.00815624 0.00238593 0)
(0.00663585 0.00295634 0)
(0.00482224 0.00357629 0)
(0.00268255 0.00427526 0)
(0.00017765 0.00507865 0)
(-0.00273651 0.00600622 0)
(-0.00610637 0.00707137 0)
(-0.00997893 0.00828136 0)
(-0.0143994 0.00963795 0)
(-0.0194094 0.0111382 0)
(-0.0250446 0.012775 0)
(-0.0313334 0.0145374 0)
(-0.0382936 0.0164103 0)
(-0.0459315 0.0183742 0)
(-0.0542388 0.0204048 0)
(-0.0631915 0.0224727 0)
(-0.0727487 0.0245439 0)
(-0.0828523 0.0265803 0)
(-0.0934277 0.0285405 0)
(-0.104386 0.0303818 0)
(-0.115624 0.0320615 0)
(-0.127034 0.0335388 0)
(-0.1385 0.0347761 0)
(-0.149905 0.0357414 0)
(-0.161139 0.0364084 0)
(-0.172095 0.0367577 0)
(-0.182677 0.036777 0)
(-0.192799 0.036461 0)
(-0.202389 0.0358102 0)
(-0.211383 0.0348311 0)
(-0.219734 0.0335343 0)
(-0.2274 0.031934 0)
(-0.234353 0.0300469 0)
(-0.240571 0.0278914 0)
(-0.246036 0.0254868 0)
(-0.250738 0.0228527 0)
(-0.25467 0.0200088 0)
(-0.257827 0.0169746 0)
(-0.260205 0.0137691 0)
(-0.261801 0.0104112 0)
(-0.262613 0.0069197 0)
(-0.26264 0.00331345 0)
(-0.261879 -0.000388059 0)
(-0.260328 -0.0041645 0)
(-0.257984 -0.00799423 0)
(-0.254846 -0.0118539 0)
(-0.250913 -0.0157179 0)
(-0.246186 -0.0195583 0)
(-0.240666 -0.0233442 0)
(-0.234359 -0.0270418 0)
(-0.227275 -0.0306143 0)
(-0.219427 -0.0340217 0)
(-0.210834 -0.0372218 0)
(-0.201524 -0.04017 0)
(-0.191531 -0.0428208 0)
(-0.180898 -0.0451283 0)
(-0.16968 -0.0470479 0)
(-0.157938 -0.048538 0)
(-0.145749 -0.0495612 0)
(-0.133195 -0.0500867 0)
(-0.120371 -0.0500917 0)
(-0.10738 -0.0495632 0)
(-0.094332 -0.0484993 0)
(-0.0813401 -0.0469101 0)
(-0.0685213 -0.0448181 0)
(-0.0559916 -0.0422581 0)
(-0.0438637 -0.0392763 0)
(-0.0322445 -0.0359291 0)
(-0.0212325 -0.0322812 0)
(-0.0109161 -0.0284036 0)
(-0.00137235 -0.0243716 0)
(0.00733447 -0.0202621 0)
(0.0151528 -0.0161518 0)
(0.0220443 -0.012115 0)
(0.0279837 -0.00822207 0)
(0.0329594 -0.0045377 0)
(0.0369729 -0.00111926 0)
(0.0400397 0.00198447 0)
(0.0421892 0.00473469 0)
(0.043465 0.00710367 0)
(0.0439242 0.00907561 0)
(0.0436368 0.010647 0)
(0.0426836 0.0118266 0)
(0.0411546 0.0126344 0)
(0.0391446 0.0131003 0)
(0.0367513 0.0132623 0)
(0.0340697 0.0131637 0)
(0.0311914 0.0128508 0)
(0.0281978 0.0123703 0)
(0.0251635 0.0117666 0)
(0.0221478 0.0110801 0)
(0.0192042 0.0103435 0)
(0.0163674 0.0095822 0)
(0.0136747 0.00880901 0)
(0.0111402 0.00802741 0)
(0.00879686 0.00722383 0)
(0.00664539 0.00637971 0)
(0.00473431 0.00545855 0)
(0.00305562 0.00443729 0)
(0.00170298 0.00328052 0)
(0.00065726 0.00201128 0)
(0.000100386 0.000648339 0)
(9.70681e-05 -0.00108 0)
(0.000649167 -0.00299716 0)
(0.0016664 -0.0045603 0)
(0.00291978 -0.00572556 0)
(0.00436615 -0.00645165 0)
(0.00584148 -0.00675339 0)
(0.00728675 -0.00665817 0)
(0.00859361 -0.00622627 0)
(0.0097162 -0.00552381 0)
(0.0105937 -0.00462773 0)
(0.0112037 -0.00360975 0)
(0.0115213 -0.00253631 0)
(0.0115431 -0.00146001 0)
(0.0112645 -0.000419321 0)
(0.0106892 0.000564679 0)
(0.00981664 0.00148716 0)
(0.00864458 0.00235898 0)
(0.0071625 0.0032037 0)
(0.00535284 0.00405441 0)
(0.00318806 0.00494947 0)
(0.000632572 0.0059283 0)
(-0.00235702 0.00702737 0)
(-0.00582908 0.00827714 0)
(-0.00983493 0.00970008 0)
(-0.0144257 0.0113099 0)
(-0.0196501 0.0131117 0)
(-0.0255511 0.0151028 0)
(-0.0321642 0.0172735 0)
(-0.039514 0.0196077 0)
(-0.0476123 0.022083 0)
(-0.0564549 0.0246702 0)
(-0.06602 0.0273341 0)
(-0.0762663 0.0300325 0)
(-0.0871324 0.0327177 0)
(-0.0985377 0.0353371 0)
(-0.110384 0.0378354 0)
(-0.12256 0.0401566 0)
(-0.134942 0.0422467 0)
(-0.147405 0.0440556 0)
(-0.159821 0.0455401 0)
(-0.172068 0.0466649 0)
(-0.184034 0.0474037 0)
(-0.195619 0.04774 0)
(-0.206736 0.0476661 0)
(-0.217313 0.0471829 0)
(-0.227294 0.0462985 0)
(-0.236636 0.0450267 0)
(-0.245305 0.0433855 0)
(-0.253281 0.0413961 0)
(-0.260549 0.0390815 0)
(-0.267101 0.0364651 0)
(-0.272934 0.0335706 0)
(-0.278046 0.0304211 0)
(-0.282437 0.0270386 0)
(-0.286108 0.0234442 0)
(-0.28906 0.0196579 0)
(-0.291294 0.0156985 0)
(-0.292806 0.0115846 0)
(-0.293596 0.00733414 0)
(-0.29366 0.00296521 0)
(-0.292991 -0.00150348 0)
(-0.291584 -0.00605221 0)
(-0.289432 -0.0106596 0)
(-0.286526 -0.0153022 0)
(-0.282859 -0.0199538 0)
(-0.278422 -0.0245852 0)
(-0.273208 -0.0291633 0)
(-0.267213 -0.0336515 0)
(-0.260434 -0.038009 0)
(-0.252872 -0.0421908 0)
(-0.244534 -0.0461485 0)
(-0.235433 -0.0498301 0)
(-0.225587 -0.0531814 0)
(-0.215028 -0.056147 0)
(-0.203793 -0.0586717 0)
(-0.191934 -0.0607026 0)
(-0.179513 -0.0621908 0)
(-0.166607 -0.0630942 0)
(-0.153303 -0.0633795 0)
(-0.139701 -0.0630243 0)
(-0.12591 -0.0620195 0)
(-0.112049 -0.0603702 0)
(-0.0982417 -0.0580969 0)
(-0.0846131 -0.0552354 0)
(-0.0712877 -0.0518361 0)
(-0.0583852 -0.0479625 0)
(-0.0460169 -0.0436887 0)
(-0.0342837 -0.0390972 0)
(-0.0232737 -0.0342758 0)
(-0.0130612 -0.0293148 0)
(-0.00370649 -0.0243042 0)
(0.00474421 -0.0193316 0)
(0.0122578 -0.0144801 0)
(0.0188136 -0.00982679 0)
(0.0244029 -0.00544171 0)
(0.0290282 -0.00138625 0)
(0.0327037 0.00228781 0)
(0.0354557 0.00553954 0)
(0.0373222 0.00834 0)
(0.0383544 0.0106732 0)
(0.0386151 0.0125366 0)
(0.0381788 0.0139411 0)
(0.0371287 0.0149107 0)
(0.0355557 0.0154803 0)
(0.0335531 0.015694 0)
(0.0312159 0.0156024 0)
(0.0286332 0.0152594 0)
(0.0258912 0.0147186 0)
(0.0230628 0.0140312 0)
(0.0202172 0.013241 0)
(0.0174041 0.0123835 0)
(0.0146764 0.0114805 0)
(0.0120609 0.0105412 0)
(0.00960406 0.00955599 0)
(0.00731467 0.00850453 0)
(0.00525424 0.00734738 0)
(0.00341915 0.0060493 0)
(0.00192201 0.00456312 0)
(0.000748019 0.0028818 0)
(0.000115493 0.000997095 0)
(0.000103853 -0.00140818 0)
(0.000691698 -0.00382036 0)
(0.00176408 -0.00573471 0)
(0.00306624 -0.00711458 0)
(0.00454386 -0.00793332 0)
(0.00601642 -0.0082179 0)
(0.00741952 -0.0080135 0)
(0.00863859 -0.00739761 0)
(0.00962804 -0.00645536 0)
(0.0103269 -0.00528053 0)
(0.0107149 -0.00396001 0)
(0.0107682 -0.00257159 0)
(0.0104836 -0.00117579 0)
(0.00985457 0.000185257 0)
(0.00888106 0.00149051 0)
(0.0075557 0.00273876 0)
(0.00586778 0.00394725 0)
(0.00379611 0.00514791 0)
(0.00131142 0.00638311 0)
(-0.00162594 0.00770018 0)
(-0.00506294 0.00914623 0)
(-0.00905275 0.0107632 0)
(-0.0136509 0.0125843 0)
(-0.0189124 0.0146316 0)
(-0.024888 0.0169156 0)
(-0.0316212 0.0194349 0)
(-0.039145 0.0221777 0)
(-0.0474784 0.0251224 0)
(-0.0566243 0.028238 0)
(-0.0665658 0.0314844 0)
(-0.0772648 0.0348132 0)
(-0.0886609 0.0381677 0)
(-0.100671 0.0414848 0)
(-0.113192 0.0446966 0)
(-0.126104 0.0477331 0)
(-0.139274 0.0505258 0)
(-0.152565 0.0530105 0)
(-0.165838 0.0551304 0)
(-0.178962 0.0568389 0)
(-0.191815 0.0581006 0)
(-0.204291 0.0588923 0)
(-0.216301 0.0592027 0)
(-0.227773 0.0590312 0)
(-0.238651 0.0583863 0)
(-0.248897 0.0572841 0)
(-0.258482 0.0557461 0)
(-0.26739 0.0537975 0)
(-0.275615 0.0514656 0)
(-0.283152 0.0487785 0)
(-0.290006 0.0457638 0)
(-0.296179 0.0424485 0)
(-0.301677 0.0388579 0)
(-0.306506 0.0350158 0)
(-0.31067 0.030944 0)
(-0.314173 0.0266627 0)
(-0.317017 0.0221909 0)
(-0.319203 0.0175458 0)
(-0.320731 0.0127444 0)
(-0.321596 0.00780294 0)
(-0.321795 0.00273782 0)
(-0.32132 -0.00243389 0)
(-0.320163 -0.00769392 0)
(-0.318314 -0.0130222 0)
(-0.315761 -0.0183961 0)
(-0.312491 -0.0237902 0)
(-0.308489 -0.0291751 0)
(-0.303742 -0.0345173 0)
(-0.298234 -0.0397788 0)
(-0.291953 -0.0449163 0)
(-0.284888 -0.0498815 0)
(-0.277029 -0.0546209 0)
(-0.268374 -0.0590765 0)
(-0.258927 -0.0631862 0)
(-0.248698 -0.066885 0)
(-0.237709 -0.0701071 0)
(-0.225992 -0.0727871 0)
(-0.213594 -0.0748629 0)
(-0.200577 -0.0762785 0)
(-0.187017 -0.0769868 0)
(-0.173005 -0.0769524 0)
(-0.158648 -0.0761545 0)
(-0.144067 -0.0745892 0)
(-0.12939 -0.072271 0)
(-0.114756 -0.0692331 0)
(-0.100302 -0.0655276 0)
(-0.086168 -0.0612234 0)
(-0.0724832 -0.056404 0)
(-0.0593684 -0.051164 0)
(-0.0469297 -0.0456053 0)
(-0.0352572 -0.0398333 0)
(-0.0244234 -0.0339536 0)
(-0.0144839 -0.0280683 0)
(-0.00547857 -0.0222741 0)
(0.00256734 -0.0166605 0)
(0.00964071 -0.0113084 0)
(0.0157393 -0.00629003 0)
(0.0208705 -0.0016675 0)
(0.0250511 0.00250749 0)
(0.0283073 0.0061947 0)
(0.0306758 0.0093664 0)
(0.0322034 0.0120084 0)
(0.0329487 0.0141206 0)
(0.0329798 0.0157172 0)
(0.0323755 0.0168261 0)
(0.0312203 0.0174874 0)
(0.0296053 0.0177508 0)
(0.0276199 0.0176728 0)
(0.0253551 0.017313 0)
(0.022892 0.01673 0)
(0.0203112 0.0159776 0)
(0.0176749 0.0151006 0)
(0.0150501 0.0141302 0)
(0.0124761 0.0130824 0)
(0.0100134 0.0119528 0)
(0.00768087 0.0107206 0)
(0.00555345 0.00934396 0)
(0.00363496 0.00777452 0)
(0.00205431 0.00595175 0)
(0.000803226 0.00383371 0)
(0.000124593 0.00138145 0)
(0.000109373 -0.00175764 0)
(0.000723487 -0.00468694 0)
(0.00183055 -0.00695461 0)
(0.00315186 -0.00853344 0)
(0.00462124 -0.00941465 0)
(0.0060435 -0.00964163 0)
(0.00734909 -0.00928168 0)
(0.00841891 -0.00843305 0)
(0.00920845 -0.00720259 0)
(0.00965795 -0.00570216 0)
(0.00975008 -0.00403406 0)
(0.00946221 -0.00228643 0)
(0.00879149 -0.000525996 0)
(0.00772877 0.00120381 0)
(0.00626888 0.00288449 0)
(0.00439649 0.00452099 0)
(0.00209067 0.00613902 0)
(-0.000681727 0.00778034 0)
(-0.00396252 0.00949703 0)
(-0.00780336 0.0113449 0)
(-0.0122613 0.0133768 0)
(-0.0173966 0.0156375 0)
(-0.0232675 0.0181591 0)
(-0.0299267 0.0209587 0)
(-0.0374169 0.0240382 0)
(-0.0457674 0.0273843 0)
(-0.0549903 0.0309699 0)
(-0.0650772 0.0347548 0)
(-0.0759972 0.038687 0)
(-0.0876943 0.0427034 0)
(-0.100088 0.0467316 0)
(-0.113074 0.050692 0)
(-0.126527 0.0545008 0)
(-0.140307 0.058074 0)
(-0.154268 0.0613312 0)
(-0.168258 0.0642 0)
(-0.182135 0.0666191 0)
(-0.195766 0.068541 0)
(-0.209038 0.0699328 0)
(-0.221853 0.0707763 0)
(-0.234135 0.071067 0)
(-0.245829 0.070812 0)
(-0.256893 0.070028 0)
(-0.267303 0.0687386 0)
(-0.277046 0.0669725 0)
(-0.286116 0.0647608 0)
(-0.294517 0.0621358 0)
(-0.302253 0.0591299 0)
(-0.309334 0.055774 0)
(-0.315768 0.0520976 0)
(-0.321566 0.048128 0)
(-0.326737 0.0438904 0)
(-0.33129 0.0394075 0)
(-0.335233 0.0347 0)
(-0.33857 0.0297869 0)
(-0.341308 0.024685 0)
(-0.343449 0.0194103 0)
(-0.344994 0.0139776 0)
(-0.345942 0.00840121 0)
(-0.34629 0.00269553 0)
(-0.346032 -0.00312447 0)
(-0.34516 -0.00904265 0)
(-0.343665 -0.015041 0)
(-0.341531 -0.021099 0)
(-0.338744 -0.0271928 0)
(-0.335286 -0.0332947 0)
(-0.331135 -0.0393722 0)
(-0.326269 -0.0453875 0)
(-0.320665 -0.0512968 0)
(-0.314299 -0.0570502 0)
(-0.307148 -0.0625914 0)
(-0.299191 -0.0678575 0)
(-0.290414 -0.0727801 0)
(-0.280805 -0.0772859 0)
(-0.270365 -0.0812982 0)
(-0.259101 -0.0847392 0)
(-0.247039 -0.0875321 0)
(-0.234218 -0.0896046 0)
(-0.220694 -0.0908926 0)
(-0.206544 -0.0913433 0)
(-0.191865 -0.0909193 0)
(-0.176771 -0.0896018 0)
(-0.161394 -0.0873936 0)
(-0.145881 -0.0843203 0)
(-0.130386 -0.0804307 0)
(-0.115068 -0.0757963 0)
(-0.100083 -0.070508 0)
(-0.08558 -0.0646726 0)
(-0.0716925 -0.0584084 0)
(-0.0585366 -0.0518394 0)
(-0.0462072 -0.0450903 0)
(-0.0347769 -0.0382826 0)
(-0.0242972 -0.0315303 0)
(-0.0148004 -0.024938 0)
(-0.00630222 -0.0185995 0)
(0.00119462 -0.0125972 0)
(0.00769766 -0.00700223 0)
(0.0132229 -0.00187456 0)
(0.0177932 0.0027373 0)
(0.0214391 0.00679671 0)
(0.0241983 0.0102798 0)
(0.0261175 0.0131763 0)
(0.0272521 0.0154904 0)
(0.0276679 0.017241 0)
(0.027438 0.0184607 0)
(0.0266446 0.0191947 0)
(0.0253721 0.019498 0)
(0.0237101 0.0194315 0)
(0.0217424 0.0190585 0)
(0.0195558 0.0184394 0)
(0.0172212 0.0176268 0)
(0.0148166 0.0166604 0)
(0.0123929 0.0155627 0)
(0.0100232 0.014335 0)
(0.00773781 0.0129563 0)
(0.00562416 0.0113835 0)
(0.00369589 0.00955475 0)
(0.00209461 0.00739602 0)
(0.000819815 0.00482967 0)
(0.000126838 0.00178526 0)
(0.000114507 -0.00212102 0)
(0.000747055 -0.00557699 0)
(0.00186903 -0.00818796 0)
(0.00317932 -0.00993826 0)
(0.00459936 -0.0108411 0)
(0.00592163 -0.010961 0)
(0.00707235 -0.0103919 0)
(0.00793014 -0.00925664 0)
(0.00845269 -0.00768606 0)
(0.00858283 -0.00581106 0)
(0.00830656 -0.00374888 0)
(0.00760269 -0.00159643 0)
(0.00646788 0.000575785 0)
(0.00488933 0.00272591 0)
(0.00285532 0.00484095 0)
(0.000341015 0.00693462 0)
(-0.00268605 0.00904297 0)
(-0.00627164 0.0112184 0)
(-0.0104698 0.0135223 0)
(-0.0153424 0.0160168 0)
(-0.0209533 0.0187575 0)
(-0.0273645 0.021787 0)
(-0.0346303 0.0251309 0)
(-0.0427926 0.0287952 0)
(-0.0518763 0.0327664 0)
(-0.0618854 0.0370124 0)
(-0.0727999 0.0414838 0)
(-0.0845734 0.0461159 0)
(-0.097132 0.0508304 0)
(-0.110375 0.0555382 0)
(-0.124177 0.060143 0)
(-0.138394 0.0645452 0)
(-0.152871 0.0686473 0)
(-0.167446 0.0723588 0)
(-0.181963 0.0756006 0)
(-0.196276 0.0783092 0)
(-0.21026 0.080438 0)
(-0.223805 0.0819583 0)
(-0.236828 0.0828581 0)
(-0.249266 0.0831404 0)
(-0.261075 0.08282 0)
(-0.272227 0.0819212 0)
(-0.282709 0.0804746 0)
(-0.292517 0.0785148 0)
(-0.301654 0.0760781 0)
(-0.310129 0.0732013 0)
(-0.317952 0.0699202 0)
(-0.325136 0.066269 0)
(-0.331696 0.0622798 0)
(-0.337645 0.057982 0)
(-0.342997 0.0534027 0)
(-0.347766 0.0485662 0)
(-0.351964 0.0434946 0)
(-0.355603 0.0382074 0)
(-0.358694 0.0327219 0)
(-0.361245 0.0270539 0)
(-0.363265 0.0212172 0)
(-0.36476 0.0152247 0)