/*--------------------------------*- C++ -*----------------------------------*\
| =========                 |                                                 |
| \\      /  F ield         | OpenFOAM: The Open Source CFD Toolbox           |
|  \\    /   O peration     | Version:  2406                                  |
|   \\  /    A nd           | Website:  www.openfoam.com                      |
|    \\/     M anipulation  |                                                 |
\*---------------------------------------------------------------------------*/
FoamFile
{
    version     2.0;
    format      ascii;
    arch        "LSB;label=32;scalar=64";
    class       surfaceScalarField;
    location    "32.2";
    object      phi;
}
// * * * * * * * * * * * * * * * * * * * * * * * * * * * * * * * * * * * * * //

dimensions      [0 3 -1 0 0 0 0];

oriented        oriented;

internalField   nonuniform List<scalar> 
7080
(
1.94221e-07
-1.93766e-07
1.2401e-06
-1.05521e-06
2.75588e-06
-1.51387e-06
4.32142e-06
-1.57461e-06
5.60908e-06
-1.2864e-06
6.46517e-06
-8.62084e-07
6.90278e-06
-4.35479e-07
7.0107e-06
-1.10457e-07
6.92196e-06
9.18398e-08
6.72023e-06
2.01894e-07
6.44198e-06
2.82292e-07
6.03839e-06
4.06213e-07
5.41703e-06
6.27103e-07
4.4425e-06
9.80384e-07
2.9764e-06
1.475e-06
8.73065e-07
2.11367e-06
-2.00194e-06
2.88854e-06
-5.77788e-06
3.79174e-06
-1.05636e-05
4.80469e-06
-1.64444e-05
5.9028e-06
-2.34603e-05
7.0416e-06
-3.15855e-05
8.15476e-06
-4.0699e-05
9.14636e-06
-5.05675e-05
9.90327e-06
-6.08356e-05
1.03024e-05
-7.10344e-05
1.02304e-05
-8.06041e-05
9.59649e-06
-8.89356e-05
8.35179e-06
-9.54168e-05
6.49387e-06
-9.9483e-05
4.07066e-06
-0.000100659
1.17222e-06
-9.86e-05
-2.07166e-06
-9.31199e-05
-5.50032e-06
-8.42244e-05
-8.92297e-06
-7.21303e-05
-1.21277e-05
-5.72834e-05
-1.48857e-05
-4.03567e-05
-1.69691e-05
-2.22341e-05
-1.81677e-05
-3.95856e-06
-1.83209e-05
1.33424e-05
-1.7346e-05
2.85727e-05
-1.52716e-05
4.0791e-05
-1.22556e-05
4.93463e-05
-8.58462e-06
5.39704e-05
-4.64647e-06
5.48269e-05
-8.68004e-07
5.24661e-05
2.35662e-06
4.77202e-05
4.75239e-06
4.15259e-05
6.20471e-06
3.4768e-05
6.77587e-06
2.81364e-05
6.64777e-06
2.2092e-05
6.06508e-06
1.68565e-05
5.24955e-06
1.24918e-05
4.38317e-06
8.93335e-06
3.56732e-06
6.07254e-06
2.87609e-06
3.78091e-06
2.29529e-06
1.97144e-06
1.82219e-06
6.70192e-07
1.30067e-06
-3.54111e-08
7.15793e-07
-3.53138e-08
9.93103e-07
-1.17799e-06
3.43846e-06
-3.50173e-06
6.5986e-06
-4.65975e-06
9.7135e-06
-4.688e-06
1.22327e-05
-3.79454e-06
1.38368e-05
-2.46606e-06
1.44869e-05
-1.0803e-06
1.42643e-05
1.093e-07
1.33282e-05
1.02797e-06
1.17562e-05
1.76833e-06
9.53476e-06
2.49957e-06
6.49711e-06
3.43525e-06
2.38632e-06
4.72866e-06
-3.13182e-06
6.48472e-06
-1.03967e-05
8.7234e-06
-1.97365e-05
1.14316e-05
-3.1418e-05
1.45438e-05
-4.56235e-05
1.79657e-05
-6.23856e-05
2.15306e-05
-8.15288e-05
2.50045e-05
-0.000102614
2.80791e-05
-0.000124945
3.04316e-05
-0.000147623
3.17629e-05
-0.000169639
3.18552e-05
-0.000189982
3.05809e-05
-0.000207724
2.79122e-05
-0.000222075
2.38972e-05
-0.000232413
1.8651e-05
-0.000238274
1.23322e-05
-0.000239351
5.14042e-06
-0.000235473
-2.69652e-06
-0.000226603
-1.09151e-05
-0.000212839
-1.92213e-05
-0.000194427
-2.72778e-05
-0.000171773
-3.47125e-05
-0.000145464
-4.11148e-05
-0.000116282
-4.60634e-05
-8.52099e-05
-4.91486e-05
-5.34074e-05
-5.00311e-05
-2.21745e-05
-4.84903e-05
7.13385e-06
-4.44974e-05
3.32013e-05
-3.82524e-05
5.48841e-05
-3.021e-05
7.13201e-05
-2.10435e-05
8.20446e-05
-1.15702e-05
8.70405e-05
-2.63695e-06
8.67659e-05
5.01603e-06
8.20843e-05
1.08602e-05
7.41649e-05
1.4665e-05
6.42785e-05
1.64966e-05
5.36314e-05
1.66797e-05
4.31723e-05
1.56731e-05
3.35538e-05
1.39764e-05
2.50952e-05
1.1997e-05
1.78997e-05
1.00556e-05
1.19046e-05
8.26736e-06
7.04362e-06
6.67581e-06
3.3155e-06
5.01046e-06
8.70433e-07
3.16065e-06
8.24689e-07
1.51219e-06
-2.68987e-06
4.81531e-06
-6.81942e-06
8.84577e-06
-8.68822e-06
1.25739e-05
-8.42841e-06
1.53499e-05
-6.57012e-06
1.67728e-05
-3.89629e-06
1.67735e-05
-1.07887e-06
1.53818e-05
1.49903e-06
1.26916e-05
3.72272e-06
8.66897e-06
5.79341e-06
3.15251e-06
8.02304e-06
-4.20272e-06
1.07972e-05
-1.3833e-05
1.43697e-05
-2.62261e-05
1.889e-05
-4.18154e-05
2.43295e-05
-6.09221e-05
3.05585e-05
-8.36373e-05
3.72844e-05
-0.000109726
4.40841e-05
-0.000138548
5.03866e-05
-0.000169099
5.55926e-05
-0.000200135
5.91575e-05
-0.000230367
6.07103e-05
-0.000258615
6.00625e-05
-0.000283915
5.721e-05
-0.000305546
5.22653e-05
-0.000323008
4.54248e-05
-0.000335981
3.69131e-05
-0.000344273
2.69757e-05
-0.000347776
1.58555e-05
-0.000346438
3.80802e-06
-0.00034024
-8.9028e-06
-0.000329202
-2.19773e-05
-0.000313384
-3.5077e-05
-0.000292918
-4.77957e-05
-0.000268031
-5.96627e-05
-0.00023909
-7.01289e-05
-0.000206635
-7.85988e-05
-0.000171412
-8.44549e-05
-0.000134387
-8.71399e-05
-9.67326e-05
-8.62263e-05
-5.97705e-05
-8.15334e-05
-2.48946e-05
-7.31928e-05
6.55873e-06
-6.17132e-05
3.34206e-05
-4.79415e-05
5.48152e-05
-3.29832e-05
7.02167e-05
-1.80439e-05
7.951e-05
-4.26726e-06
8.29819e-05
7.40534e-06
8.13315e-05
1.63423e-05
7.55798e-05
2.22742e-05
6.6978e-05
2.53127e-05
5.67849e-05
2.58903e-05
4.61325e-05
2.46572e-05
3.584e-05
2.23068e-05
2.645e-05
1.94696e-05
1.81966e-05
1.65302e-05
1.12255e-05
1.36675e-05
5.61599e-06
1.0621e-05
1.69722e-06
7.09813e-06
2.52333e-06
1.83552e-06
-4.51652e-06
5.55654e-06
-1.0547e-05
9.77885e-06
-1.28977e-05
1.32782e-05
-1.19307e-05
1.53829e-05
-8.66648e-06
1.56824e-05
-4.19822e-06
1.40987e-05
5.0829e-07
1.05805e-05
5.01334e-06
5.07958e-06
9.22264e-06
-2.64337e-06
1.35104e-05
-1.29766e-05
1.83514e-05
-2.64684e-05
2.42803e-05
-4.36767e-05
3.1569e-05
-6.50731e-05
4.02741e-05
-9.08688e-05
5.01112e-05
-0.000120887
6.05586e-05
-0.000154438
7.08144e-05
-0.000190359
7.99799e-05
-0.000227186
8.71846e-05
-0.000263431
9.18046e-05
-0.000297804
9.34945e-05
-0.000329336
9.22035e-05
-0.000357379
8.80637e-05
-0.000381548
8.13357e-05
-0.000401639
7.23139e-05
-0.000417559
6.13079e-05
-0.000429275
4.85973e-05
-0.000436769
3.44473e-05
-0.000440019
1.90931e-05
-0.000438985
2.77219e-06
-0.000433603
-1.4276e-05
-0.00042379
-3.17688e-05
-0.000409461
-4.93736e-05
-0.00039055
-6.66636e-05
-0.000367045
-8.31156e-05
-0.000339035
-9.80799e-05
-0.000306759
-0.000110809
-0.000270673
-0.000120473
-0.000231488
-0.000126256
-0.000190206
-0.000127442
-0.000148098
-0.000123579
-0.000106639
-0.000114599
-6.73685e-05
-0.000100939
-3.17358e-05
-8.35425e-05
-9.21966e-07
-6.37759e-05
2.42501e-05
-4.32088e-05
4.33652e-05
-2.33832e-05
5.63595e-05
-5.60144e-06
6.35099e-05
9.17656e-06
6.53824e-05
2.03786e-05
6.28507e-05
2.78246e-05
5.69818e-05
3.1734e-05
4.89628e-05
3.26595e-05
3.98671e-05
3.13794e-05
3.06143e-05
2.87122e-05
2.18033e-05
2.53204e-05
1.39077e-05
2.15604e-05
7.21379e-06
1.72944e-05
2.30272e-06
1.20139e-05
4.81289e-06
2.00339e-06
-6.51676e-06
5.7741e-06
-1.43311e-05
9.63279e-06
-1.67502e-05
1.22091e-05
-1.45161e-05
1.28471e-05
-9.301e-06
1.11623e-05
-2.51775e-06
7.0689e-06
4.60531e-06
4.06467e-07
1.16757e-05
-9.06868e-06
1.87027e-05
-2.18432e-05
2.62885e-05
-3.85217e-05
3.50369e-05
-5.97433e-05
4.55092e-05
-8.59392e-05
5.77749e-05
-0.000117156
7.15025e-05
-0.000152862
8.58306e-05
-0.000191922
9.96351e-05
-0.000232754
0.000111664
-0.000273658
0.000120906
-0.000313138
0.000126689
-0.000350079
0.000128773
-0.000383762
0.000127207
-0.000413789
0.000122263
-0.000439982
0.000114291
-0.000462301
0.000103689
-0.000480777
9.08216e-05
-0.000495476
7.6034e-05
-0.000506466
5.96086e-05
-0.000513804
4.17988e-05
-0.000517516
2.28092e-05
-0.000517586
2.83848e-06
-0.00051395
-1.79252e-05
-0.000506488
-3.92527e-05
-0.000495026
-6.08666e-05
-0.000479345
-8.23831e-05
-0.000459205
-0.0001033
-0.000434387
-0.000122947
-0.000404756
-0.000140493
-0.000370342
-0.000154942
-0.000331437
-0.000165216
-0.000288689
-0.000170241
-0.000243166
-0.00016915
-0.000196355
-0.000161453
-0.000150052
-0.000147276
-0.000106171
-0.000127451
-6.64464e-05
-0.000103516
-3.21929e-05
-7.74709e-05
-4.14371e-06
-5.143e-05
1.74836e-05
-2.7222e-05
3.2869e-05
-6.19328e-06
4.24158e-05
1.08464e-05
4.67443e-05
2.3517e-05
4.66386e-05
3.18545e-05
4.30907e-05
3.62282e-05
3.71329e-05
3.73476e-05
2.98175e-05
3.60468e-05
2.19814e-05
3.31609e-05
1.43918e-05
2.91689e-05
7.60013e-06
2.40829e-05
2.45216e-06
1.71823e-05
7.26474e-06
2.05436e-06
-8.56434e-06
5.48171e-06
-1.7767e-05
8.36433e-06
-1.96233e-05
9.281e-06
-1.54376e-05
7.64871e-06
-7.66398e-06
3.13292e-06
1.99452e-06
-4.3903e-06
1.21291e-05
-1.52391e-05
2.25203e-05
-2.98935e-05
3.33542e-05
-4.90543e-05
4.54437e-05
-7.33845e-05
5.93613e-05
-0.000103289
7.54062e-05
-0.000138605
9.30825e-05
-0.000178474
0.000111361
-0.000221375
0.00012872
-0.000265448
0.000143693
-0.000308883
0.000155082
-0.00035024
0.000162245
-0.000388543
0.00016497
-0.000423227
0.000163434
-0.000454029
0.000157983
-0.00048089
0.000149097
-0.000503879
0.000137251
-0.000523142
0.000122924
-0.00053887
0.000106525
-0.000551274
8.84168e-05
-0.000560561
6.88785e-05
-0.000566913
4.81411e-05
-0.000570472
2.63646e-05
-0.000571318
3.68861e-06
-0.000569453
-1.97788e-05
-0.000564787
-4.3901e-05
-0.00055712
-6.85095e-05
-0.00054614
-9.33334e-05
-0.000531423
-0.000117983
-0.000512459
-0.000141874
-0.000488695
-0.000164216
-0.000459631
-0.000183964
-0.000424935
-0.00019987
-0.000384607
-0.000210529
-0.000339145
-0.000214573
-0.000289679
-0.000210885
-0.000237999
-0.000198926
-0.000186433
-0.000178995
-0.00013751
-0.000152423
-9.35117e-05
-0.000121463
-5.60138e-05
-8.89263e-05
-2.57035e-05
-5.75395e-05
-2.48141e-06
-2.94234e-05
1.4168e-05
-5.81771e-06
2.49434e-05
1.27304e-05
3.05739e-05
2.6207e-05
3.19084e-05
3.4884e-05
2.98486e-05
3.93905e-05
2.54128e-05
4.04771e-05
1.95278e-05
3.90292e-05
1.31435e-05
3.55533e-05
7.04455e-06
3.01634e-05
2.27384e-06
2.19592e-05
9.52619e-06
1.94727e-06
-1.05079e-05
4.58723e-06
-2.04157e-05
5.87295e-06
-2.09031e-05
4.44412e-06
-1.40129e-05
-1.71261e-07
-3.04516e-06
-8.26686e-06
1.00899e-05
-2.00559e-05
2.39215e-05
-3.6041e-05
3.85083e-05
-5.68909e-05
5.42086e-05
-8.33255e-05
7.18838e-05
-0.000115711
9.17526e-05
-0.000153764
0.000113467
-0.000196368
0.000135695
-0.000241736
0.000156738
-0.000287798
0.000174792
-0.000332668
0.000188576
-0.000374913
0.000197342
-0.00041361
0.000200958
-0.000448249
0.000199626
-0.000478629
0.000193833
-0.000504763
0.000184137
-0.000526817
0.000171171
-0.000545058
0.000155512
-0.000559827
0.000137712
-0.000571495
0.000118208
-0.000580437
9.73725e-05
-0.000587008
7.54576e-05
-0.000591517
5.26549e-05
-0.000594217
2.90624e-05
-0.000595283
4.74707e-06
-0.0005948
-2.02747e-05
-0.000592748
-4.59719e-05
-0.000588976
-7.23054e-05
-0.000583183
-9.91542e-05
-0.000574895
-0.000126302
-0.000563454
-0.000153349
-0.000548026
-0.000179681
-0.00052765
-0.000204379
-0.000501345
-0.000226213
-0.000468283
-0.000243627
-0.000428031
-0.000254858
-0.000380826
-0.000258119
-0.000327818
-0.000251957
-0.00027118
-0.000235651
-0.000213954
-0.000209661
-0.000159581
-0.000175842
-0.000111147
-0.000137359
-7.06741e-05
-9.80108e-05
-3.87692e-05
-6.13197e-05
-1.4939e-05
-2.96407e-05
1.85021e-06
-4.04569e-06
1.26512e-05
1.54143e-05
1.84612e-05
2.90884e-05
2.01883e-05
3.76695e-05
1.88115e-05
4.18684e-05
1.52729e-05
4.25699e-05
1.06016e-05
4.02397e-05
5.73887e-06
3.50228e-05
1.8204e-06
2.58945e-05
1.13465e-05
1.60076e-06
-1.21065e-05
2.90584e-06
-2.17258e-05
1.91795e-06
-1.99128e-05
-2.53337e-06
-9.56388e-06
-1.0794e-05
5.21429e-06
-2.31455e-05
2.24396e-05
-3.99348e-05
4.07069e-05
-6.1809e-05
6.03796e-05
-8.94468e-05
8.18407e-05
-0.000123237
0.00010567
-0.000162832
0.000131341
-0.000206988
0.000157617
-0.000253728
0.000182425
-0.000300818
0.000203821
-0.000346261
0.000220224
-0.000388564
0.000230868
-0.000426773
0.000235537
-0.000460374
0.000234545
-0.000489194
0.00022843
-0.000513316
0.00021794
-0.000533021
0.000203825
-0.000548729
0.000186863
-0.000560945
0.000167713
-0.000570206
0.00014696
-0.00057704
0.000125031
-0.000581935
0.000102261
-0.000585323
7.88421e-05
-0.000587565
5.48997e-05
-0.000588956
3.04595e-05
-0.000589715
5.51765e-06
-0.000589986
-1.99875e-05
-0.000589827
-4.61105e-05
-0.000589189
-7.29196e-05
-0.000587887
-0.000100429
-0.000585558
-0.000128602
-0.000581616
-0.00015726
-0.000575211
-0.000186055
-0.000565206
-0.000214353
-0.000550211
-0.000241179
-0.000528699
-0.000265113
-0.000499223
-0.000284311
-0.000460757
-0.000296565
-0.000413117
-0.00029958
-0.000357372
-0.000291383
-0.000296079
-0.000270942
-0.000233159
-0.000238756
-0.00017322
-0.000197296
-0.000120438
-0.000150796
-7.73887e-05
-0.000104372
-4.45888e-05
-6.24497e-05
-2.09751e-05
-2.76658e-05
-4.94008e-06
-6.32242e-07
5.05136e-06
1.90912e-05
1.02306e-05
3.24783e-05
1.17076e-05
4.03881e-05
1.04881e-05
4.37771e-05
7.64323e-06
4.30848e-05
4.20367e-06
3.84489e-05
1.30414e-06
2.87977e-05
1.26415e-05
9.43328e-07
-1.3049e-05
3.28499e-07
-2.11092e-05
-3.55908e-06
-1.60254e-05
-1.15885e-05
-1.52992e-06
-2.40023e-05
1.76277e-05
-4.1103e-05
3.95465e-05
-6.33615e-05
6.29662e-05
-9.14135e-05
8.84389e-05
-0.000125643
0.000116073
-0.00016574
0.000145774
-0.000210437
0.000176042
-0.000257663
0.000204852
-0.000305049
0.000229817
-0.000350449
0.00024923
-0.000392254
0.000262036
-0.000429423
0.000268049
-0.000461413
0.000267535
-0.000488071
0.000261216
-0.000509572
0.000249943
-0.000526336
0.000234717
-0.000538951
0.000216452
-0.000548086
0.000196012
-0.000554428
0.000174066
-0.000558619
0.000151162
-0.000561228
0.000127648
-0.000562734
0.000103773
-0.000563529
7.96385e-05
-0.000563925
5.52941e-05
-0.000564169
3.06978e-05
-0.000564455
5.79497e-06
-0.000564934
-1.95223e-05
-0.000565709
-4.53511e-05
-0.000566832
-7.18154e-05
-0.000568274
-9.90081e-05
-0.000569884
-0.000127013
-0.000571331
-0.000155836
-0.000572023
-0.000185387
-0.000571024
-0.000215375
-0.000566994
-0.000245231
-0.000558176
-0.000273952
-0.000542495
-0.000300012
-0.000517813
-0.000321266
-0.000482371
-0.000335038
-0.00043539
-0.000338379
-0.000377705
-0.000328636
-0.000312225
-0.000304243
-0.000243853
-0.000265668
-0.000178619
-0.000216028
-0.000122005
-0.000160981
-7.72083e-05
-0.000107242
-4.4463e-05
-6.04028e-05
-2.19982e-05
-2.30924e-05
-7.48933e-06
4.59187e-06
1.02395e-06
2.39688e-05
5.09982e-06
3.63222e-05
5.98101e-06
4.28974e-05
4.83414e-06
4.42421e-05
2.75492e-06
4.05269e-05
8.31343e-07
3.07323e-05
1.34738e-05
-1.0725e-07
-1.29474e-05
-3.24767e-06
-1.7963e-05
-1.05931e-05
-8.69028e-06
-2.26357e-05
1.05178e-05
-3.95582e-05
3.45399e-05
-6.16821e-05
6.16732e-05
-8.95055e-05
9.07795e-05
-0.000123401
0.000122334
-0.00016315
0.000155813
-0.000207564
0.000190186
-0.000254586
0.000223053
-0.00030173
0.000251992
-0.000346697
0.000274775
-0.000387707
0.000290234
-0.000423606
0.000297925
-0.00045379
0.000298226
-0.000478141
0.000291876
-0.00049693
0.000279996
-0.000510732
0.000263735
-0.000520308
0.000244284
-0.000526494
0.000222629
-0.000530107
0.000199617
-0.000531879
0.00017583
-0.000532419
0.000151698
-0.000532214
0.000127439
-0.000531627
0.000103185
-0.000530928
7.89411e-05
-0.000530314
5.46856e-05
-0.000529937
3.03282e-05
-0.00052992
5.78881e-06
-0.000530376
-1.90533e-05
-0.000531412
-4.42982e-05
-0.000533134
-7.00757e-05
-0.000535626
-9.64953e-05
-0.000538931
-0.000123687
-0.000542992
-0.000151752
-0.000547587
-0.00018077
-0.000552215
-0.000210725
-0.000555977
-0.000241446
-0.000557453
-0.000272456
-0.000554623
-0.000302822
-0.000544928
-0.000330945
-0.000525519
-0.000354434
-0.000493801
-0.000370089
-0.000448227
-0.000374205
-0.000389242
-0.000363226
-0.000320034
-0.000334875
-0.000246607
-0.000289457
-0.000176639
-0.000230949
-0.000117104
-0.000166782
-7.16953e-05
-0.000105815
-4.00984e-05
-5.46964e-05
-1.95889e-05
-1.59215e-05
-7.17799e-06
1.155e-05
-4.53685e-07
2.95955e-05
2.35675e-06
4.00788e-05
2.67536e-06
4.39229e-05
1.71056e-06
4.1483e-05
5.28143e-07
3.19157e-05
1.3996e-05
-1.55655e-06
-1.13967e-05
-7.72877e-06
-1.17715e-05
-1.89081e-05
2.4763e-06
-3.51829e-05
2.68103e-05
-5.67167e-05
5.60657e-05
-8.37921e-05
8.87636e-05
-0.00011676
0.000123743
-0.000155469
0.000161056
-0.000198938
0.000199281
-0.000245186
0.000236445
-0.000291719
0.000269587
-0.000336054
0.000296337
-0.000376239
0.000314963
-0.000410954
0.000324958
-0.000439535
0.000326511
-0.000461867
0.000320568
-0.000478328
0.000308343
-0.000489637
0.000291315
-0.00049673
0.000270835
-0.000500591
0.000248155
-0.000502157
0.000224201
-0.00050222
0.000199688
-0.00050141
0.000175025
-0.000500185
0.000150477
-0.000498858
0.000126113
-0.000497627
0.000101954
-0.000496613
7.79229e-05
-0.000495886
5.39531e-05
-0.000495498
2.99312e-05
-0.000495497
5.77756e-06
-0.000495947
-1.86166e-05
-0.000496932
-4.33283e-05
-0.000498563
-6.8462e-05
-0.000500973
-9.41037e-05
-0.000504308
-0.000120372
-0.000508696
-0.000147383
-0.000514206
-0.00017528
-0.000520758
-0.000204191
-0.00052801
-0.00023421
-0.000535191
-0.00026529
-0.000540918
-0.000297108
-0.00054304
-0.000328834
-0.000538613
-0.000358869
-0.000524126
-0.000384583
-0.000496101
-0.000402236
-0.000452109
-0.000407223
-0.000392072
-0.000394914
-0.000319434
-0.000362097
-0.000241436
-0.000308945
-0.000167666
-0.00024055
-0.000106624
-0.000166851
-6.21655e-05
-9.91513e-05
-3.29245e-05
-4.51567e-05
-1.51297e-05
-6.24205e-06
-5.15943e-06
1.96313e-05
-3.4009e-07
3.5261e-05
1.27545e-06
4.2314e-05
1.14422e-06
4.16142e-05
4.12279e-07
3.26546e-05
1.44096e-05
-3.39906e-06
-8.0142e-06
-1.2989e-05
-2.15837e-06
-2.81978e-05
1.76566e-05
-4.87181e-05
4.73477e-05
-7.47012e-05
8.20266e-05
-0.000106277
0.000120349
-0.000143459
0.000160908
-0.000185418
0.00020302
-0.000230453
0.000244302
-0.000276072
0.000282066
-0.00031972
0.000313223
-0.0003592
0.000335816
-0.000393038
0.00034879
-0.000420433
0.000352351
-0.000441276
0.000347345
-0.000455993
0.000335281
-0.000465448
0.000317789
-0.000470715
0.000296578
-0.000472932
0.000273043
-0.000473123
0.000248342
-0.000472143
0.000223214
-0.000470619
0.000198161
-0.000468984
0.000173385
-0.000467489
0.00014898
-0.000466265
0.000124888
-0.000465357
0.000101048
-0.000464763
7.73322e-05
-0.000464463
5.36588e-05
-0.00046444
2.99154e-05
-0.000464691
6.0386e-06
-0.000465241
-1.80551e-05
-0.000466145
-4.24108e-05
-0.000467496
-6.70966e-05
-0.000469424
-9.21604e-05
-0.000472098
-0.000117683
-0.000475715
-0.000143749
-0.000480485
-0.000170494
-0.000486585
-0.000198076
-0.000494082
-0.0002267
-0.000502801
-0.000256558
-0.00051214
-0.000287758
-0.00052082
-0.000320144
-0.000526652
-0.000353027
-0.000526408
-0.000384819
-0.000515983
-0.000412655
-0.000491031
-0.000432171
-0.000448202
-0.000437742
-0.000386862
-0.000423439
-0.000310784
-0.000385025
-0.000228719
-0.000322618
-0.000152423
-0.000243148
-9.1782e-05
-0.000159795
-5.00644e-05
-8.68765e-05
-2.43432e-05
-3.19678e-05
-9.77506e-06
5.06071e-06
-2.42265e-06
2.79036e-05
5.34326e-07
3.9356e-05
1.03533e-06
4.11075e-05
4.83225e-07
3.3207e-05
1.48887e-05
-5.51348e-06
-2.51569e-06
-1.86775e-05
1.10471e-05
-3.78553e-05
3.68043e-05
-6.23719e-05
7.1898e-05
-9.23349e-05
0.000111971
-0.000127586
0.000155625
-0.000167666
0.000200978
-0.000211058
0.000246431
-0.00025555
0.000288789
-0.000298463
0.000324994
-0.000337477
0.000352235
-0.000370838
0.000369189
-0.000397631
0.000375585
-0.000417636
0.000372366
-0.000431328
0.000361039
-0.000439635
0.000343597
-0.00044378
0.000321938
-0.000445005
0.000297811
-0.000444446
0.000272487
-0.00044299
0.000246894
-0.000441284
0.00022151
-0.000439716
0.000196598
-0.000438497
0.000172166
-0.000437688
0.000148173
-0.000437276
0.000124474
-0.000437196
0.000100966
-0.000437377
7.75077e-05
-0.000437746
5.40231e-05
-0.000438256
3.04172e-05
-0.000438878
6.65101e-06
-0.000439613
-1.73307e-05
-0.000440493
-4.15426e-05
-0.000441585
-6.60183e-05
-0.00044299
-9.07688e-05
-0.000444856
-0.000115832
-0.000447372
-0.000141248
-0.000450776
-0.000167104
-0.000455339
-0.000193527
-0.000461336
-0.000220715
-0.000468969
-0.000248937
-0.000478232
-0.000278504
-0.000488697
-0.000309688
-0.000499214
-0.000342517
-0.000507587
-0.00037645
-0.000510353
-0.000409891
-0.000502856
-0.00043967
-0.000479922
-0.000460676
-0.000437315
-0.000466047
-0.000373944
-0.000448397
-0.00029418
-0.000402383
-0.000208718
-0.000328609
-0.000131755
-0.000236755
-7.39568e-05
-0.00014467
-3.68916e-05
-6.90299e-05
-1.56069e-05
-1.62211e-05
-4.64244e-06
1.69408e-05
4.67247e-08
3.46707e-05
1.18449e-06
3.99698e-05
6.69047e-07
3.37276e-05
1.55585e-05
-7.78795e-06
5.24391e-06
-2.44877e-05
2.77904e-05
-4.73693e-05
5.96369e-05
-7.5414e-05
9.99737e-05
-0.000108623
0.000145145
-0.000146447
0.000193467
-0.000187918
0.000242423
-0.000230961
0.000289484
-0.000273122
0.00033093
-0.000311821
0.000363698
-0.000345155
0.000385554
-0.000371911
0.000395947
-0.000391785
0.000395446
-0.000405146
0.000385727
-0.000412996
0.000368879
-0.000416614
0.000347214
-0.000417381
0.000322696
-0.000416499
0.000296928
-0.000414935
0.000270916
-0.000413328
0.000245285
-0.000412067
0.000220244
-0.000411308
0.000195838
-0.000411077
0.000171932
-0.000411301
0.000148399
-0.000411883
0.000125056
-0.000412706
0.000101792
-0.000413673
7.84776e-05
-0.000414699
5.5056e-05
-0.000415733
3.14571e-05
-0.000416739
7.66575e-06
-0.000417713
-1.63477e-05
-0.00041867
-4.0575e-05
-0.000419654
-6.50231e-05
-0.000420734
-8.9677e-05
-0.000422014
-0.000114539
-0.000423637
-0.000139613
-0.000425799
-0.00016493
-0.000428753
-0.000190562
-0.000432814
-0.000216643
-0.000438335
-0.000243407
-0.000445643
-0.000271188
-0.000454893
-0.000300432
-0.000465829
-0.000331576
-0.000477415
-0.00036486
-0.000487435
-0.000399868
-0.000492155
-0.000434946
-0.000486363
-0.000466466
-0.000464074
-0.000488333
-0.000420284
-0.000492188
-0.000353723
-0.000468946
-0.0002699
-0.000412438
-0.000182122
-0.000324535
-0.000107101
-0.000219692
-5.49682e-05
-0.000121162
-2.41493e-05
-4.7043e-05
-7.94322e-06
7.32171e-07
-7.15416e-07
2.74413e-05
1.33908e-06
3.79113e-05
8.91421e-07
3.41759e-05
1.64467e-05
-1.00045e-05
1.52245e-05
-2.99424e-05
4.77915e-05
-5.6032e-05
8.56785e-05
-8.69256e-05
0.000130917
-0.000122452
0.000180643
-0.000161619
0.000232669
-0.000203009
0.000283797
-0.000244192
0.000330692
-0.000282726
0.000369454
-0.000316334
0.000397325
-0.000343643
0.000412858
-0.000364022
0.000416342
-0.00037778
0.000409203
-0.000385808
0.000393766
-0.000389481
0.000372553
-0.000390224
0.000347967
-0.000389375
0.000321848
-0.000387937
0.000295497
-0.000386613
0.000269593
-0.000385767
0.000244445
-0.000385553
0.00022003
-0.000385944
0.000196233
-0.000386848
0.000172835
-0.000388121
0.000149672
-0.000389631
0.000126563
-0.00039125
0.00010341
-0.000392887
8.01095e-05
-0.000394464
5.66289e-05
-0.000395938
3.29244e-05
-0.00039728
9.00058e-06
-0.000398486
-1.51508e-05
-0.000399564
-3.95058e-05
-0.000400544
-6.40527e-05
-0.00040147
-8.87612e-05
-0.000402409
-0.000113611
-0.000403453
-0.00013858
-0.000404735
-0.000163659
-0.000406437
-0.000188869
-0.00040882
-0.00021427
-0.000412222
-0.000240013
-0.000417066
-0.000266351
-0.000423789
-0.000293714
-0.000432709
-0.000322661
-0.000443724
-0.000353849
-0.000455896
-0.000387699
-0.000466913
-0.000423931
-0.000472687
-0.000460692
-0.000467346
-0.000493672
-0.000444107
-0.000515426
-0.000397379
-0.000515672
-0.000326241
-0.000483579
-0.000238215
-0.000412562
-0.000150091
-0.000307818
-8.05583e-05
-0.000190688
-3.68025e-05
-9.07961e-05
-1.32916e-05
-2.27767e-05
-2.32741e-06
1.64782e-05
1.21168e-06
3.43728e-05
1.05448e-06
3.43366e-05
1.75017e-05
-1.20186e-05
2.72048e-05
-3.47348e-05
7.05686e-05
-6.33972e-05
0.000114274
-9.6335e-05
0.000163898
-0.000133156
0.000217417
-0.00017245
0.000271989
-0.000212478
0.000323791
-0.000250667
0.000368895
-0.000284792
0.000403555
-0.000313009
0.00042555
-0.00033452
0.000434351
-0.000349275
0.000431101
-0.000358123
0.000418037
-0.000362333
0.000397977
-0.000363455
0.000373663
-0.000362865
0.000347377
-0.000361707
0.00032068
-0.000360703
0.000294493
-0.000360279
0.000269161
-0.000360556
0.000244722
-0.000361516
0.000220984
-0.000363019
0.000197737
-0.000364918
0.000174731
-0.000367046
0.000151803
-0.000369277
0.000128794
-0.000371496
0.000105632
-0.000373628
8.22444e-05
-0.000375613
5.86195e-05
-0.000377422
3.47375e-05
-0.000379032
1.06179e-05
-0.000380445
-1.37304e-05
-0.000381669
-3.82742e-05
-0.000382725
-6.29884e-05
-0.000383641
-8.7836e-05
-0.000384461
-0.000112782
-0.000385236
-0.000137795
-0.000386047
-0.000162839
-0.000387003
-0.000187905
-0.000388275
-0.000212991
-0.000390108
-0.000238173
-0.000392866
-0.000263588
-0.000397018
-0.000289557
-0.000403116
-0.00031656
-0.000411614
-0.000345348
-0.000422562
-0.00037675
-0.00043505
-0.000411441
-0.000446588
-0.000449155
-0.000452563
-0.000487694
-0.00044632
-0.000521669
-0.000420255
-0.000541733
-0.000368544
-0.000535292
-0.000291454
-0.000489656
-0.000199831
-0.000399446
-0.000114761
-0.000275761
-5.48289e-05
-0.000150724
-2.13864e-05
-5.62186e-05
-5.24757e-06
3.35104e-07
5.96682e-07
2.85278e-05
1.09649e-06
3.38355e-05
1.85966e-05
-1.36181e-05
4.07926e-05
-3.8465e-05
9.54948e-05
-6.89375e-05
0.000144685
-0.000103041
0.000198063
-0.000140143
0.000254483
-0.000178492
0.00031038
-0.000216175
0.000361452
-0.000250668
0.000403418
-0.000280101
0.000432975
-0.00030312
0.000448591
-0.000319499
0.000450724
-0.000329706
0.000441326
-0.000335001
0.000423329
-0.000336848
0.000399838
-0.000336786
0.0003736
-0.000336001
0.000346603
-0.000335365
0.000320045
-0.000335314
0.000294451
-0.000336035
0.000269882
-0.000337472
0.000246165
-0.000339505
0.000223017
-0.000341944
0.000200179
-0.000344632
0.000177418
-0.000347411
0.000154584
-0.000350177
0.000131557
-0.000352833
0.000108288
-0.000355327
8.47342e-05
-0.000357611
6.09007e-05
-0.000359668
3.67884e-05
-0.000361482
1.24268e-05
-0.000363059
-1.21602e-05
-0.000364405
-3.6934e-05
-0.000365543
-6.18577e-05
-0.000366494
-8.6893e-05
-0.000367288
-0.000111995
-0.000367958
-0.000137133
-0.000368549
-0.000162255
-0.000369116
-0.000187344
-0.000369756
-0.000212357
-0.000370614
-0.000237321
-0.000371937
-0.00026227
-0.000374093
-0.000287405
-0.000377621
-0.000313036
-0.000383161
-0.000339811
-0.000391313
-0.0003686
-0.000402215
-0.00040054
-0.000414923
-0.000436448
-0.000426581
-0.000476035
-0.000431867
-0.000516384
-0.000423139
-0.000550455
-0.000392081
-0.000566349
-0.000333202
-0.000548531
-0.000249308
-0.000483349
-0.000156285
-0.000368783
-7.93953e-05
-0.000227617
-3.27197e-05
-0.000102879
-9.78285e-06
-2.261e-05
-6.32039e-07
1.93827e-05
9.85695e-07
3.2216e-05
1.95843e-05
-1.47208e-05
5.5469e-05
-4.0987e-05
0.000121832
-7.24807e-05
0.0001761
-0.000106891
0.000232525
-0.000143358
0.000290896
-0.000179896
0.000346949
-0.000214567
0.000396084
-0.000245043
0.000433911
-0.000269878
0.000457783
-0.000288223
0.000466946
-0.000300366
0.000462846
-0.000307186
0.000448151
-0.000310189
0.000426316
-0.000310861
0.000400513
-0.000310593
0.000373318
-0.000310304
0.000346315
-0.000310589
0.000320319
-0.000311634
0.000295497
-0.000313455
0.000271694
-0.000315891
0.000248602
-0.00031878
0.000225899
-0.000321923
0.000203324
-0.000325182
0.000180674
-0.000328423
0.000157826
-0.000331565
0.000134698
-0.000334532
0.000111258
-0.000337287
8.74908e-05
-0.000339793
6.34108e-05
-0.000342039
3.90373e-05
-0.000344012
1.4406e-05
-0.000345723
-1.04449e-05
-0.000347177
-3.54733e-05
-0.000348398
-6.0631e-05
-0.000349404
-8.58804e-05
-0.000350225
-0.000111168
-0.000350884
-0.000136468
-0.00035141
-0.000161722
-0.000351832
-0.000186917
-0.000352193
-0.00021199
-0.00035256
-0.00023695
-0.000353068
-0.000261758
-0.000353948
-0.000286522
-0.000355604
-0.000311378
-0.00035862
-0.000336792
-0.000363765
-0.000363455
-0.000371742
-0.000392562
-0.000382751
-0.000425441
-0.000395632
-0.000463153
-0.000406966
-0.000505053
-0.000410407
-0.000547009
-0.000397235
-0.000579524
-0.000358645
-0.000587113
-0.000290602
-0.000551404
-0.000200348
-0.000459032
-0.000110734
-0.000317251
-4.80623e-05
-0.000165528
-1.60113e-05
-5.46712e-05
-2.58846e-06
5.9632e-06
7.37234e-07
2.8885e-05
2.03224e-05
-1.52024e-05
7.06384e-05
-4.21013e-05
0.000148818
-7.38166e-05
0.000207748
-0.00010773
0.000266506
-0.000142789
0.000325915
-0.000176894
0.0003811
-0.000208198
0.000427364
-0.000234665
0.000460411
-0.000255293
0.000478398
-0.000269698
0.000481376
-0.000278591
0.000471732
-0.000283122
0.000452702
-0.000284888
0.000428078
-0.00028526
0.000400901
-0.000285403
0.000373458
-0.000285957
0.000346883
-0.000287275
0.000321636
-0.000289359
0.000297591
-0.00029212
0.000274456
-0.000295351
0.00025184
-0.000298888
0.000229436
-0.00030255
0.000206991
-0.000306227
0.000184349
-0.000309807
0.000161409
-0.000313233
0.000138122
-0.000316442
0.000114467
-0.000319406
9.04518e-05
-0.000322092
6.60955e-05
-0.000324492
4.14335e-05
-0.000326595
1.65057e-05
-0.00032841
-8.63514e-06
-0.000329943
-3.39446e-05
-0.000331219
-5.93608e-05
-0.000332257
-8.48477e-05
-0.000333089
-0.000110341
-0.000333739
-0.000135824
-0.000334236
-0.00016123
-0.000334598
-0.000186561
-0.000334847
-0.000211744
-0.000335004
-0.000236797
-0.000335127
-0.000261638
-0.000335323
-0.000286329
-0.000335837
-0.000310866
-0.000337086
-0.000335544
-0.000339757
-0.000360785
-0.000344714
-0.000387604
-0.000352792
-0.000417366
-0.000364105
-0.000451838
-0.000377115
-0.000492047
-0.00038745
-0.000536669
-0.00038749
-0.000579486
-0.000367361
-0.000607232
-0.000318523
-0.000600244
-0.000240159
-0.000537398
-0.000146679
-0.000410742
-6.83084e-05
-0.000243896
-2.40657e-05
-9.88991e-05
-5.38667e-06
-1.27213e-05
3.56116e-07
2.31403e-05
2.06813e-05
-1.50838e-05
8.56763e-05
-4.1866e-05
0.000175673
-7.30756e-05
0.000238877
-0.000105808
0.000299291
-0.000138866
0.000358917
-0.000170144
0.000412409
-0.000197973
0.000455153
-0.000220656
0.000483113
-0.000237615
0.000495327
-0.000248863
0.000492634
-0.000255418
0.000478264
-0.000258566
0.000455856
-0.000259861
0.000429353
-0.00026048
0.000401523
-0.000261334
0.000374296
-0.000262815
0.000348365
-0.00026509
0.000323898
-0.000268042
0.000300543
-0.000271535
0.000277939
-0.000275353
0.000255659
-0.000279354
0.00023343
-0.000283385
0.000211022
-0.000287362
0.000188322
-0.000291196
0.000165244
-0.000294843
0.000141766
-0.000298248
0.000117875
-0.000301389
9.35927e-05
-0.000304232
6.89422e-05
-0.000306771
4.39738e-05
-0.000308991
1.87294e-05
-0.0003109
-6.72245e-06