/*--------------------------------*- C++ -*----------------------------------*\
| =========                 |                                                 |
| \\      /  F ield         | OpenFOAM: The Open Source CFD Toolbox           |
|  \\    /   O peration     | Version:  2406                                  |
|   \\  /    A nd           | Website:  www.openfoam.com                      |
|    \\/     M anipulation  |                                                 |
\*---------------------------------------------------------------------------*/
FoamFile
{
    version     2.0;
    format      ascii;
    arch        "LSB;label=32;scalar=64";
    class       volVectorField;
    location    "23.9";
    object      U;
}
// * * * * * * * * * * * * * * * * * * * * * * * * * * * * * * * * * * * * * //

dimensions      [0 1 -1 0 0 0 0];

internalField   nonuniform List<vector> 
14400
(
(-6.04512e-06 6.01083e-06 0)
(1.9991e-05 -1.41248e-05 0)
(0.000101045 -3.07046e-05 0)
(0.00021671 -4.26945e-05 0)
(0.000359617 -4.79741e-05 0)
(0.000510534 -4.99494e-05 0)
(0.000665419 -4.88251e-05 0)
(0.000813711 -4.63424e-05 0)
(0.000954174 -4.26469e-05 0)
(0.00108181 -3.85476e-05 0)
(0.00119675 -3.41112e-05 0)
(0.00129704 -2.97113e-05 0)
(0.00138339 -2.53664e-05 0)
(0.00145534 -2.12373e-05 0)
(0.00151374 -1.73116e-05 0)
(0.00155877 -1.36424e-05 0)
(0.00159118 -1.01955e-05 0)
(0.00161124 -6.96315e-06 0)
(0.00161944 -3.88865e-06 0)
(0.00161586 -9.20494e-07 0)
(0.0016005 2.02463e-06 0)
(0.00157301 5.0352e-06 0)
(0.00153277 8.22125e-06 0)
(0.00147873 1.1699e-05 0)
(0.00140952 1.5596e-05 0)
(0.00132331 2.004e-05 0)
(0.0012179 2.51592e-05 0)
(0.00109068 3.10736e-05 0)
(0.00093869 3.78943e-05 0)
(0.00075864 4.57184e-05 0)
(0.000546983 5.46284e-05 0)
(0.000299959 6.46903e-05 0)
(1.36692e-05 7.59531e-05 0)
(-0.000315862 8.84472e-05 0)
(-0.000692604 0.000102183 0)
(-0.00112043 0.000117148 0)
(-0.00160305 0.000133303 0)
(-0.00214384 0.000150579 0)
(-0.00274579 0.000168872 0)
(-0.00341136 0.000188039 0)
(-0.00414228 0.000207896 0)
(-0.00493951 0.000228215 0)
(-0.00580299 0.00024872 0)
(-0.00673158 0.000269095 0)
(-0.00772289 0.000288976 0)
(-0.00877319 0.000307964 0)
(-0.0098773 0.000325623 0)
(-0.0110285 0.000341488 0)
(-0.0122186 0.000355075 0)
(-0.0134377 0.000365886 0)
(-0.0146746 0.00037342 0)
(-0.0159165 0.000377183 0)
(-0.0171492 0.000376697 0)
(-0.0183573 0.000371513 0)
(-0.0195245 0.00036122 0)
(-0.0206335 0.000345461 0)
(-0.0216665 0.000323939 0)
(-0.0226052 0.000296439 0)
(-0.0234314 0.000262836 0)
(-0.0241272 0.00022311 0)
(-0.0246754 0.000177368 0)
(-0.0250595 0.000125851 0)
(-0.0252649 6.89567e-05 0)
(-0.0252785 7.24537e-06 0)
(-0.0250896 -5.85456e-05 0)
(-0.0246903 -0.000127499 0)
(-0.0240756 -0.000198517 0)
(-0.023244 -0.000270334 0)
(-0.0221981 -0.000341527 0)
(-0.0209444 -0.000410552 0)
(-0.0194937 -0.000475779 0)
(-0.0178612 -0.000535542 0)
(-0.0160664 -0.000588196 0)
(-0.0141329 -0.000632192 0)
(-0.0120881 -0.00066614 0)
(-0.00996256 -0.000688888 0)
(-0.00778954 -0.000699586 0)
(-0.00560383 -0.000697751 0)
(-0.00344106 -0.000683307 0)
(-0.00133651 -0.000656612 0)
(0.0006759 -0.000618458 0)
(0.00256474 -0.000570049 0)
(0.00430207 -0.000512954 0)
(0.00586433 -0.00044903 0)
(0.00723306 -0.000380332 0)
(0.0083954 -0.000309013 0)
(0.00934432 -0.000237212 0)
(0.0100786 -0.000166955 0)
(0.0106027 -0.000100059 0)
(0.0109259 -3.80622e-05 0)
(0.0110621 1.7828e-05 0)
(0.0110284 6.67585e-05 0)
(0.0108449 0.000108234 0)
(0.0105328 0.000142094 0)
(0.0101144 0.000168477 0)
(0.00961169 0.000187769 0)
(0.00904574 0.000200552 0)
(0.00843617 0.000207537 0)
(0.00780063 0.000209523 0)
(0.00715463 0.00020733 0)
(0.00651122 0.000201782 0)
(0.00588119 0.000193645 0)
(0.00527284 0.000183646 0)
(0.00469257 0.000172401 0)
(0.00414447 0.000160497 0)
(0.00363136 0.000148371 0)
(0.00315392 0.000136476 0)
(0.00271244 0.000125058 0)
(0.00230509 0.000114464 0)
(0.00193088 0.00010469 0)
(0.00158642 9.59709e-05 0)
(0.00127122 8.78837e-05 0)
(0.00098177 8.05001e-05 0)
(0.000720621 7.26264e-05 0)
(0.00048633 6.41672e-05 0)
(0.000287719 5.26448e-05 0)
(0.000127764 3.84118e-05 0)
(2.1819e-05 1.80295e-05 0)
(-2.6007e-05 -2.26562e-06 0)
(-1.73632e-05 -1.70997e-05 0)
(1.38871e-05 -1.9865e-05 0)
(0.000119855 -0.000120337 0)
(0.000331754 -0.000201476 0)
(0.000608491 -0.000260992 0)
(0.00093947 -0.000292149 0)
(0.00128932 -0.000304736 0)
(0.00164751 -0.000301031 0)
(0.00199274 -0.000287443 0)
(0.00231921 -0.000266221 0)
(0.00261612 -0.000240833 0)
(0.00288128 -0.000212652 0)
(0.00311001 -0.000183397 0)
(0.0033021 -0.000153727 0)
(0.00345592 -0.000124378 0)
(0.00357201 -9.55497e-05 0)
(0.00364995 -6.74298e-05 0)
(0.0036902 -3.99207e-05 0)
(0.00369245 -1.28785e-05 0)
(0.00365651 1.40207e-05 0)
(0.00358142 4.11718e-05 0)
(0.00346585 6.91038e-05 0)
(0.00330763 9.84244e-05 0)
(0.00310385 0.000129839 0)
(0.00285063 0.000164111 0)
(0.00254321 0.000202048 0)
(0.00217578 0.000244465 0)
(0.00174162 0.000292156 0)
(0.00123308 0.00034586 0)
(0.000641742 0.000406234 0)
(-4.14896e-05 0.000473824 0)
(-0.000826168 0.000549049 0)
(-0.00172213 0.000632183 0)
(-0.00273925 0.000723341 0)
(-0.0038872 0.000822462 0)
(-0.00517517 0.000929295 0)
(-0.00661157 0.00104338 0)
(-0.0082037 0.00116402 0)
(-0.00995742 0.00129027 0)
(-0.0118768 0.00142092 0)
(-0.0139637 0.00155447 0)
(-0.0162175 0.00168915 0)
(-0.0186347 0.00182288 0)
(-0.0212087 0.00195335 0)
(-0.0239294 0.00207798 0)
(-0.0267833 0.00219402 0)
(-0.0297529 0.00229855 0)
(-0.0328174 0.00238856 0)
(-0.0359522 0.00246103 0)
(-0.0391292 0.00251296 0)
(-0.0423175 0.00254148 0)
(-0.045483 0.00254388 0)
(-0.0485896 0.00251773 0)
(-0.0515994 0.00246089 0)
(-0.0544732 0.00237163 0)
(-0.0571711 0.00224863 0)
(-0.0596534 0.00209105 0)
(-0.061881 0.0018986 0)
(-0.0638161 0.00167154 0)
(-0.0654229 0.00141074 0)
(-0.066668 0.00111771 0)
(-0.0675216 0.00079461 0)
(-0.0679573 0.000444298 0)
(-0.0679534 7.0316e-05 0)
(-0.0674928 -0.000323093 0)
(-0.0665641 -0.000730997 0)
(-0.0651616 -0.0011478 0)
(-0.063286 -0.00156729 0)
(-0.0609445 -0.0019827 0)
(-0.0581512 -0.00238684 0)
(-0.0549276 -0.00277219 0)
(-0.051302 -0.00313106 0)
(-0.0473099 -0.00345583 0)
(-0.0429937 -0.00373914 0)
(-0.038402 -0.00397414 0)
(-0.0335893 -0.00415476 0)
(-0.0286154 -0.00427595 0)
(-0.0235438 -0.00433399 0)
(-0.0184408 -0.00432667 0)
(-0.0133745 -0.00425347 0)
(-0.00841254 -0.00411572 0)
(-0.00362125 -0.00391661 0)
(0.000936552 -0.00366116 0)
(0.00520293 -0.00335612 0)
(0.00912647 -0.00300968 0)
(0.0126637 -0.00263123 0)
(0.0157801 -0.00223096 0)
(0.0184512 -0.00181943 0)
(0.020663 -0.00140715 0)
(0.0224121 -0.00100413 0)
(0.0237055 -0.000619481 0)
(0.0245599 -0.000261083 0)
(0.0250007 6.46698e-05 0)
(0.0250609 0.000353038 0)
(0.0247791 0.000600988 0)
(0.0241982 0.000807164 0)
(0.0233637 0.000971755 0)
(0.0223216 0.00109631 0)
(0.0211172 0.00118349 0)
(0.0197936 0.00123681 0)
(0.0183905 0.00126033 0)
(0.0169437 0.00125846 0)
(0.0154841 0.00123565 0)
(0.0140377 0.00119631 0)
(0.0126258 0.00114453 0)
(0.0112645 0.00108415 0)
(0.00996603 0.00101845 0)
(0.00873762 0.000950464 0)
(0.00758437 0.000882404 0)
(0.00650674 0.000816349 0)
(0.00550553 0.000753085 0)
(0.00457708 0.000693492 0)
(0.00372197 0.000636196 0)
(0.00293606 0.000580533 0)
(0.00222527 0.000521857 0)
(0.00158909 0.000458245 0)
(0.00104445 0.000381016 0)
(0.000596199 0.000290816 0)
(0.000271264 0.000178474 0)
(6.88549e-05 6.6979e-05 0)
(-2.25255e-06 -2.59133e-05 0)
(3.02118e-05 -0.000100263 0)
(0.000200322 -0.000332015 0)
(0.000513907 -0.000515173 0)
(0.000905813 -0.000646398 0)
(0.00136482 -0.000718869 0)
(0.00184486 -0.000747177 0)
(0.0023326 -0.000738365 0)
(0.00280034 -0.000704183 0)
(0.00323939 -0.00065113 0)
(0.00363503 -0.000586252 0)
(0.00398299 -0.000513552 0)
(0.0042762 -0.000436669 0)
(0.00451296 -0.000357572 0)
(0.00469004 -0.000277801 0)
(0.00480669 -0.000197993 0)
(0.00486112 -0.000118456 0)
(0.00485239 -3.89764e-05 0)
(0.00477861 4.09265e-05 0)
(0.00463784 0.00012209 0)
(0.00442708 0.000205605 0)
(0.00414263 0.000292847 0)
(0.00377958 0.000385418 0)
(0.00333188 0.000485131 0)
(0.00279208 0.000593943 0)
(0.00215143 0.000713893 0)
(0.00139974 0.000847015 0)
(0.000525546 0.00099525 0)
(-0.00048379 0.00116036 0)
(-0.00164184 0.00134384 0)
(-0.00296285 0.00154683 0)
(-0.00446138 0.00177009 0)
(-0.00615192 0.0020139 0)
(-0.00804846 0.00227803 0)
(-0.010164 0.0025617 0)
(-0.0125099 0.00286352 0)
(-0.0150957 0.00318146 0)
(-0.0179282 0.00351277 0)
(-0.0210108 0.003854 0)
(-0.0243434 0.00420095 0)
(-0.0279215 0.00454869 0)
(-0.031736 0.00489158 0)
(-0.0357725 0.00522336 0)
(-0.0400115 0.00553722 0)
(-0.0444281 0.00582596 0)
(-0.0489918 0.00608211 0)
(-0.0536673 0.00629814 0)
(-0.0584144 0.00646665 0)
(-0.0631888 0.00658052 0)
(-0.0679428 0.00663316 0)
(-0.0726259 0.00661865 0)
(-0.077186 0.00653191 0)
(-0.0815698 0.00636884 0)
(-0.0857242 0.00612643 0)
(-0.0895969 0.00580283 0)
(-0.0931373 0.00539743 0)
(-0.0962974 0.00491086 0)
(-0.0990321 0.00434503 0)
(-0.1013 0.00370314 0)
(-0.103065 0.00298963 0)
(-0.104295 0.00221019 0)
(-0.104961 0.00137175 0)
(-0.105044 0.000482418 0)
(-0.104526 -0.000448511 0)
(-0.103399 -0.00141062 0)
(-0.101659 -0.00239243 0)
(-0.099308 -0.00338143 0)
(-0.0963563 -0.00436424 0)
(-0.0928201 -0.00532669 0)
(-0.0887228 -0.00625402 0)
(-0.0840946 -0.00713111 0)
(-0.0789728 -0.00794274 0)
(-0.0734015 -0.00867393 0)
(-0.0674317 -0.00931029 0)
(-0.0611207 -0.00983846 0)
(-0.0545317 -0.0102466 0)
(-0.0477331 -0.0105247 0)
(-0.0407979 -0.0106652 0)
(-0.0338025 -0.0106633 0)
(-0.0268253 -0.0105175 0)
(-0.0199458 -0.0102295 0)
(-0.0132426 -0.00980486 0)
(-0.00679239 -0.00925242 0)
(-0.000667498 -0.00858467 0)
(0.00506515 -0.00781717 0)
(0.0103459 -0.0069682 0)
(0.0151239 -0.00605813 0)
(0.0193582 -0.00510869 0)
(0.023019 -0.00414221 0)
(0.0260881 -0.00318076 0)
(0.0285598 -0.00224534 0)
(0.0304401 -0.00135511 0)
(0.0317467 -0.000526708 0)
(0.0325082 0.000226257 0)
(0.0327626 0.000893583 0)
(0.0325558 0.00146864 0)
(0.0319397 0.00194834 0)
(0.0309705 0.00233295 0)
(0.0297062 0.00262573 0)
(0.0282048 0.00283245 0)
(0.0265227 0.00296083 0)
(0.0247126 0.00302001 0)
(0.0228229 0.0030199 0)
(0.0208961 0.00297077 0)
(0.0189689 0.00288268 0)
(0.0170711 0.00276532 0)
(0.0152272 0.00262741 0)
(0.0134543 0.00247694 0)
(0.0117661 0.00232032 0)
(0.0101691 0.00216307 0)
(0.0086695 0.00200823 0)
(0.00726705 0.00185796 0)
(0.00596599 0.00171039 0)
(0.00476381 0.00156339 0)
(0.00367034 0.00140843 0)
(0.00268569 0.00123984 0)
(0.0018329 0.00104262 0)
(0.00111525 0.000815807 0)
(0.000571021 0.000547289 0)
(0.000193403 0.000273853 0)
(2.08512e-05 2.5908e-05 0)
(4.21688e-05 -0.000214963 0)
(0.000260192 -0.000608479 0)
(0.000646233 -0.000907212 0)
(0.001114 -0.00111362 0)
(0.00165205 -0.00122745 0)
(0.00220672 -0.00126829 0)
(0.00276439 -0.00124893 0)
(0.00329332 -0.0011862 0)
(0.00378354 -0.00109117 0)
(0.00421756 -0.00097452 0)
(0.00458946 -0.000843098 0)
(0.00488995 -0.000702564 0)
(0.00511558 -0.000556285 0)
(0.00526109 -0.000406627 0)
(0.00532384 -0.000254637 0)
(0.00529988 -0.000100653 0)
(0.0051861 5.57857e-05 0)
(0.00497816 0.000215682 0)
(0.00467149 0.000380615 0)
(0.00426012 0.000552636 0)
(0.00373712 0.00073427 0)
(0.00309398 0.000928431 0)
(0.00232075 0.00113837 0)
(0.00140574 0.00136755 0)
(0.000335643 0.00161953 0)
(-0.000904452 0.00189776 0)
(-0.00233085 0.00220547 0)
(-0.00396101 0.00254546 0)
(-0.00581311 0.00291991 0)
(-0.00790561 0.00333026 0)
(-0.0102567 0.00377709 0)
(-0.0128834 0.00425995 0)
(-0.0158015 0.00477731 0)
(-0.019024 0.00532644 0)
(-0.0225607 0.00590336 0)
(-0.0264176 0.00650274 0)
(-0.0305959 0.00711793 0)
(-0.0350913 0.00774088 0)
(-0.0398932 0.00836226 0)
(-0.0449846 0.00897154 0)
(-0.0503419 0.00955713 0)
(-0.055934 0.0101067 0)
(-0.0617236 0.0106072 0)
(-0.0676667 0.0110458 0)
(-0.0737137 0.0114094 0)
(-0.0798102 0.0116857 0)
(-0.0858982 0.0118634 0)
(-0.0919168 0.011932 0)
(-0.097804 0.011883 0)
(-0.103497 0.0117095 0)
(-0.108936 0.0114062 0)
(-0.11406 0.0109703 0)
(-0.118814 0.0104006 0)
(-0.123145 0.00969809 0)
(-0.127006 0.00886567 0)
(-0.130352 0.00790805 0)
(-0.133145 0.0068317 0)
(-0.135353 0.00564469 0)
(-0.136946 0.00435661 0)
(-0.137904 0.00297849 0)
(-0.138208 0.0015227 0)
(-0.137845 2.92512e-06 0)
(-0.136811 -0.00156593 0)
(-0.135101 -0.00316772 0)
(-0.13272 -0.00478519 0)
(-0.129677 -0.00639993 0)
(-0.125985 -0.00799259 0)
(-0.121665 -0.0095429 0)
(-0.116742 -0.0110299 0)
(-0.111247 -0.0124323 0)
(-0.105217 -0.0137285 0)
(-0.0986962 -0.0148974 0)
(-0.0917343 -0.0159184 0)
(-0.0843868 -0.0167724 0)
(-0.0767155 -0.017442 0)
(-0.0687875 -0.0179124 0)
(-0.060675 -0.0181719 0)
(-0.0524543 -0.0182126 0)
(-0.044205 -0.0180307 0)
(-0.0360087 -0.0176274 0)
(-0.027948 -0.0170085 0)
(-0.0201045 -0.0161853 0)
(-0.0125577 -0.0151738 0)
(-0.00538301 -0.0139952 0)
(0.00134953 -0.0126744 0)
(0.00757714 -0.0112404 0)
(0.0132456 -0.00972451 0)
(0.0183107 -0.00815978 0)
(0.0227389 -0.00657984 0)
(0.0265087 -0.00501769 0)
(0.0296107 -0.00350462 0)
(0.032048 -0.00206908 0)
(0.0338357 -0.000735801 0)
(0.0350006 0.000474962 0)
(0.03558 0.00154799 0)
(0.0356203 0.00247334 0)
(0.0351754 0.00324642 0)
(0.0343047 0.00386768 0)
(0.0330708 0.00434219 0)
(0.0315378 0.00467893 0)
(0.0297688 0.00489005 0)
(0.0278241 0.0049899 0)
(0.0257595 0.0049943 0)
(0.0236257 0.00491957 0)
(0.0214662 0.00478201 0)
(0.0193185 0.00459694 0)
(0.0172119 0.00437867 0)
(0.0151708 0.00413925 0)
(0.0132113 0.00388907 0)
(0.0113478 0.00363475 0)
(0.00958632 0.00338083 0)
(0.00793731 0.003126 0)
(0.00640167 0.00286732 0)
(0.00499448 0.00259328 0)
(0.00371627 0.0022947 0)
(0.00259611 0.00195128 0)
(0.00163417 0.00155893 0)
(0.000881332 0.00110211 0)
(0.000326202 0.00062041 0)
(4.58146e-05 0.000145921 0)
(4.78989e-05 -0.000357564 0)
(0.000293644 -0.000940612 0)
(0.000723355 -0.00136784 0)
(0.00123428 -0.00165243 0)
(0.00181339 -0.00180576 0)
(0.00240079 -0.00185328 0)
(0.00298276 -0.00181507 0)
(0.00352493 -0.00171299 0)
(0.00401679 -0.00156319 0)
(0.00443893 -0.00137987 0)
(0.00478417 -0.00117291 0)
(0.00504125 -0.000949885 0)
(0.00520487 -0.000715573 0)
(0.00526751 -0.000473032 0)
(0.00522416 -0.000223615 0)
(0.00506823 3.2495e-05 0)
(0.00479379 0.000296208 0)
(0.00439336 0.000569305 0)
(0.00385898 0.000854388 0)
(0.00318101 0.00115479 0)
(0.00234854 0.00147453 0)
(0.00134876 0.00181817 0)
(0.00016717 0.00219072 0)
(-0.00121268 0.00259743 0)
(-0.00280893 0.00304355 0)
(-0.00464135 0.00353407 0)
(-0.00673086 0.00407339 0)
(-0.00909912 0.00466506 0)
(-0.0117679 0.00531149 0)
(-0.0147582 0.00601364 0)
(-0.0180896 0.00677087 0)
(-0.021779 0.00758069 0)
(-0.0258401 0.00843863 0)
(-0.0302818 0.00933813 0)
(-0.0351077 0.0102705 0)
(-0.0403146 0.0112247 0)
(-0.0458925 0.0121879 0)
(-0.0518232 0.0131449 0)
(-0.0580803 0.0140789 0)
(-0.0646292 0.0149717 0)
(-0.0714269 0.0158042 0)
(-0.0784234 0.0165567 0)
(-0.0855617 0.0172096 0)
(-0.0927797 0.0177443 0)
(-0.100011 0.0181433 0)
(-0.107188 0.0183908 0)
(-0.114242 0.0184737 0)
(-0.121103 0.0183813 0)
(-0.127705 0.0181057 0)
(-0.133987 0.0176422 0)
(-0.139889 0.0169887 0)
(-0.145359 0.0161463 0)
(-0.150346 0.0151186 0)
(-0.15481 0.0139114 0)
(-0.158713 0.012533 0)
(-0.162023 0.0109934 0)
(-0.164713 0.00930432 0)
(-0.166762 0.00747899 0)
(-0.168152 0.00553198 0)
(-0.168869 0.00347913 0)
(-0.168904 0.00133744 0)
(-0.16825 -0.000874878 0)
(-0.166905 -0.00313845 0)
(-0.164871 -0.00543269 0)
(-0.162151 -0.00773578 0)
(-0.158755 -0.0100246 0)
(-0.154693 -0.012275 0)
(-0.149984 -0.0144616 0)
(-0.144647 -0.0165579 0)
(-0.13871 -0.0185369 0)
(-0.132204 -0.0203713 0)
(-0.125167 -0.0220336 0)
(-0.117642 -0.023497 0)
(-0.109679 -0.0247362 0)
(-0.101335 -0.0257278 0)
(-0.0926718 -0.0264512 0)
(-0.0837589 -0.0268895 0)
(-0.0746697 -0.0270305 0)
(-0.0654829 -0.026867 0)
(-0.0562804 -0.026398 0)
(-0.0471466 -0.0256286 0)
(-0.0381666 -0.024571 0)
(-0.029425 -0.0232436 0)
(-0.0210037 -0.0216715 0)
(-0.0129807 -0.0198857 0)
(-0.00542816 -0.0179222 0)
(0.00158906 -0.0158212 0)
(0.0080147 -0.0136258 0)
(0.0138024 -0.0113807 0)
(0.0189165 -0.00913073 0)
(0.0233331 -0.00691941 0)
(0.0270403 -0.0047877 0)
(0.0300382 -0.00277262 0)
(0.0323392 -0.000906183 0)
(0.0339674 0.000785562 0)
(0.0349576 0.00228314 0)
(0.0353546 0.00357403 0)
(0.0352111 0.00465268 0)
(0.0345866 0.00552027 0)
(0.0335449 0.00618407 0)
(0.032152 0.00665667 0)
(0.0304743 0.00695488 0)
(0.0285758 0.00709867 0)
(0.0265175 0.00710992 0)
(0.0243541 0.0070114 0)
(0.0221353 0.0068255 0)
(0.0199025 0.00657365 0)
(0.0176918 0.00627471 0)
(0.01553 0.00594515 0)
(0.0134416 0.00559664 0)
(0.0114408 0.00523727 0)
(0.00954607 0.00486766 0)
(0.00776334 0.00448488 0)
(0.0061142 0.0040757 0)
(0.00460057 0.00362738 0)
(0.00325872 0.00311528 0)
(0.00208712 0.00252979 0)
(0.00115141 0.00185076 0)
(0.000438843 0.00111025 0)
(6.54536e-05 0.000332697 0)
(5.08369e-05 -0.00051005 0)
(0.000310375 -0.00129454 0)
(0.000759197 -0.001852 0)
(0.0012844 -0.00220943 0)
(0.00187062 -0.0023935 0)
(0.00245387 -0.00243717 0)
(0.00302028 -0.00236891 0)
(0.00353392 -0.00221559 0)
(0.00398403 -0.0019984 0)
(0.00434984 -0.00173466 0)
(0.00462302 -0.00143695 0)
(0.00479042 -0.0011144 0)
(0.00484468 -0.000772866 0)
(0.00477576 -0.000415789 0)
(0.00457586 -4.45448e-05 0)
(0.00423526 0.00034112 0)
(0.00374457 0.000742838 0)
(0.0030926 0.00116345 0)
(0.00226734 0.00160688 0)
(0.0012548 0.00207802 0)
(3.94528e-05 0.00258263 0)
(-0.00139634 0.00312717 0)
(-0.00307209 0.00371856 0)
(-0.00500923 0.00436387 0)
(-0.00723079 0.00506992 0)
(-0.009761 0.00584291 0)
(-0.0126247 0.00668789 0)
(-0.0158463 0.00760834 0)
(-0.0194494 0.00860573 0)
(-0.023455 0.00967915 0)
(-0.0278808 0.010825 0)
(-0.0327396 0.0120366 0)
(-0.0380384 0.0133044 0)
(-0.0437769 0.0146154 0)
(-0.0499466 0.0159536 0)
(-0.05653 0.0172999 0)
(-0.0635 0.0186326 0)
(-0.07082 0.0199276 0)
(-0.0784437 0.0211592 0)
(-0.0863163 0.0223008 0)
(-0.0943756 0.0233256 0)
(-0.102553 0.0242076 0)
(-0.110777 0.0249225 0)
(-0.118972 0.0254485 0)
(-0.127065 0.0257667 0)
(-0.134981 0.0258621 0)
(-0.142652 0.0257234 0)
(-0.150012 0.0253435 0)
(-0.157002 0.024719 0)
(-0.16357 0.0238507 0)
(-0.169667 0.0227422 0)
(-0.175253 0.0214007 0)
(-0.180294 0.0198354 0)
(-0.184759 0.0180581 0)
(-0.188625 0.016082 0)
(-0.191872 0.0139219 0)
(-0.194482 0.0115939 0)
(-0.196442 0.0091148 0)
(-0.19774 0.00650259 0)
(-0.198369 0.00377607 0)
(-0.198321 0.000954968 0)
(-0.197592 -0.00193991 0)
(-0.196178 -0.00488663 0)
(-0.194079 -0.00786197 0)
(-0.191295 -0.0108413 0)
(-0.18783 -0.0137983 0)
(-0.18369 -0.0167055 0)
(-0.178886 -0.0195333 0)
(-0.173432 -0.0222511 0)
(-0.167345 -0.024827 0)
(-0.16065 -0.0272279 0)
(-0.153375 -0.0294207 0)
(-0.145557 -0.0313723 0)
(-0.137238 -0.0330507 0)
(-0.128468 -0.0344258 0)
(-0.119303 -0.0354705 0)
(-0.109807 -0.0361616 0)
(-0.100052 -0.0364811 0)
(-0.0901135 -0.036417 0)
(-0.0800748 -0.0359645 0)
(-0.0700218 -0.0351264 0)
(-0.0600432 -0.0339135 0)
(-0.0502286 -0.0323455 0)
(-0.0406666 -0.0304496 0)
(-0.0314427 -0.0282611 0)
(-0.0226381 -0.0258219 0)
(-0.0143273 -0.0231796 0)
(-0.00657712 -0.0203859 0)
(0.000555049 -0.0174953 0)
(0.00702185 -0.0145634 0)
(0.0127869 -0.0116451 0)
(0.0178254 -0.00879311 0)
(0.0221243 -0.00605652 0)
(0.0256823 -0.00347918 0)
(0.02851 -0.0010987 0)
(0.0306294 0.00105456 0)
(0.0320729 0.00295824 0)
(0.0328833 0.00459827 0)
(0.0331114 0.00596899 0)
(0.0328154 0.00707274 0)
(0.0320583 0.00791932 0)
(0.0309066 0.0085249 0)
(0.0294272 0.0089109 0)
(0.0276867 0.00910251 0)
(0.0257476 0.00912739 0)
(0.023669 0.00901397 0)
(0.0215027 0.00879038 0)
(0.0192962 0.00848246 0)
(0.0170866 0.00811327 0)
(0.0149096 0.00770043 0)
(0.0127885 0.00725669 0)
(0.0107511 0.00678597 0)
(0.00880973 0.00628654 0)
(0.00699367 0.00574492 0)
(0.00530782 0.00514537 0)
(0.00379647 0.00445955 0)
(0.0024584 0.00367007 0)
(0.00137399 0.00274964 0)
(0.000531726 0.00171353 0)
(8.14011e-05 0.000570543 0)
(5.10954e-05 -0.000669446 0)
(0.000311991 -0.00166067 0)
(0.00075894 -0.00234631 0)
(0.00127362 -0.00276947 0)
(0.00183806 -0.00297395 0)
(0.00238598 -0.00300153 0)
(0.00290297 -0.00288991 0)
(0.0033524 -0.00267117 0)
(0.00372309 -0.00237146 0)
(0.00399331 -0.0020109 0)
(0.00415346 -0.00160442 0)
(0.00418853 -0.00116223 0)
(0.00408886 -0.00069093 0)
(0.00384159 -0.000193928 0)
(0.00343573 0.000327709 0)
(0.00285798 0.000875021 0)
(0.00209501 0.00145068 0)
(0.00113135 0.00205892 0)
(-4.95988e-05 0.00270528 0)
(-0.00146666 0.00339649 0)
(-0.00314041 0.00414031 0)
(-0.00509366 0.0049452 0)
(-0.007351 0.00581999 0)
(-0.0099387 0.00677337 0)
(-0.0128841 0.00781335 0)
(-0.0162149 0.00894657 0)
(-0.0199582 0.0101777 0)
(-0.0241392 0.0115087 0)
(-0.02878 0.0129384 0)
(-0.0338981 0.0144619 0)
(-0.039505 0.01607 0)
(-0.0456045 0.0177496 0)
(-0.0521914 0.0194829 0)
(-0.0592509 0.0212479 0)
(-0.0667572 0.0230186 0)
(-0.0746737 0.0247658 0)
(-0.0829528 0.0264573 0)
(-0.0915373 0.0280594 0)
(-0.100361 0.0295375 0)
(-0.109351 0.0308578 0)
(-0.11843 0.0319882 0)
(-0.127519 0.0328993 0)
(-0.136537 0.0335658 0)
(-0.145409 0.0339669 0)
(-0.15406 0.0340868 0)
(-0.162425 0.033915 0)
(-0.170443 0.033446 0)
(-0.17806 0.0326791 0)
(-0.185232 0.0316178 0)
(-0.191919 0.0302693 0)
(-0.198089 0.0286441 0)
(-0.203714 0.0267547 0)
(-0.208773 0.0246157 0)
(-0.213247 0.0222432 0)
(-0.217121 0.019654 0)
(-0.220381 0.016866 0)
(-0.223018 0.0138974 0)
(-0.22502 0.0107671 0)
(-0.226379 0.00749459 0)
(-0.227087 0.00409993 0)
(-0.227136 0.000604072 0)
(-0.22652 -0.00297099 0)
(-0.225232 -0.006602 0)
(-0.223266 -0.0102642 0)
(-0.220619 -0.0139309 0)
(-0.217288 -0.0175739 0)
(-0.213273 -0.0211623 0)
(-0.208576 -0.0246636 0)
(-0.203202 -0.0280429 0)
(-0.197162 -0.0312634 0)
(-0.190469 -0.0342868 0)
(-0.183143 -0.0370737 0)
(-0.175212 -0.0395841 0)
(-0.166708 -0.0417789 0)
(-0.157673 -0.0436202 0)
(-0.148157 -0.0450729 0)
(-0.138218 -0.0461062 0)
(-0.127923 -0.0466946 0)
(-0.117346 -0.0468195 0)
(-0.10657 -0.0464703 0)
(-0.0956822 -0.0456457 0)
(-0.0847765 -0.0443539 0)
(-0.0739484 -0.0426138 0)
(-0.0632942 -0.0404541 0)
(-0.0529089 -0.0379132 0)
(-0.0428839 -0.0350385 0)
(-0.0333046 -0.0318844 0)
(-0.0242487 -0.0285114 0)
(-0.0157849 -0.0249837 0)
(-0.0079715 -0.0213674 0)
(-0.000855529 -0.0177289 0)
(0.00552746 -0.0141325 0)
(0.0111537 -0.0106389 0)
(0.0160111 -0.00730377 0)
(0.0200993 -0.00417629 0)
(0.0234291 -0.0012979 0)
(0.0260219 0.0012985 0)
(0.0279097 0.00358916 0)
(0.0291337 0.00555992 0)
(0.0297437 0.00720609 0)
(0.0297963 0.00853216 0)
(0.0293539 0.00955097 0)
(0.0284818 0.0102827 0)
(0.0272476 0.0107533 0)
(0.0257175 0.0109932 0)
(0.0239567 0.0110353 0)
(0.0220243 0.0109131 0)
(0.0199768 0.010659 0)
(0.0178613 0.0103024 0)
(0.0157233 0.00986742 0)
(0.0135956 0.00937201 0)
(0.0115157 0.00882453 0)
(0.00950318 0.00822533 0)
(0.00759602 0.00756193 0)
(0.00580371 0.0068159 0)
(0.00417932 0.00595569 0)
(0.00272436 0.00495432 0)
(0.00153296 0.0037755 0)
(0.000596783 0.00241173 0)
(9.18988e-05 0.000850676 0)
(5.01684e-05 -0.000825734 0)
(0.000303543 -0.00201739 0)
(0.000731122 -0.00282115 0)
(0.00121335 -0.00329713 0)
(0.00172962 -0.00350729 0)
(0.00221343 -0.00350339 0)
(0.0026497 -0.00333283 0)
(0.00300189 -0.00303289 0)
(0.00325824 -0.00263442 0)
(0.00339629 -0.00215977 0)
(0.00340489 -0.00162569 0)
(0.00326703 -0.00104287 0)
(0.00297037 -0.00041811 0)
(0.00249892 0.000245697 0)
(0.00183804 0.000948226 0)
(0.000970395 0.00169169 0)
(-0.000121766 0.00248016 0)
(-0.00145864 0.00331956 0)
(-0.00306182 0.0042173 0)
(-0.00495533 0.00518218 0)
(-0.00716498 0.00622396 0)
(-0.0097187 0.00735307 0)
(-0.0126458 0.00857988 0)
(-0.0159767 0.00991413 0)
(-0.0197418 0.011364 0)
(-0.0239704 0.0129353 0)
(-0.0286891 0.0146305 0)
(-0.0339208 0.016448 0)
(-0.0396823 0.0183814 0)
(-0.0459828 0.0204189 0)
(-0.0528224 0.0225432 0)
(-0.0601907 0.0247311 0)
(-0.0680655 0.0269541 0)
(-0.0764124 0.0291789 0)
(-0.085185 0.0313678 0)
(-0.0943253 0.0334803 0)
(-0.103765 0.0354743 0)
(-0.113429 0.0373076 0)
(-0.123235 0.0389394 0)
(-0.133099 0.0403322 0)
(-0.142936 0.0414528 0)
(-0.152665 0.0422732 0)
(-0.16221 0.0427719 0)
(-0.1715 0.0429337 0)
(-0.180474 0.0427495 0)
(-0.189076 0.0422165 0)
(-0.197263 0.041337 0)
(-0.204994 0.0401179 0)
(-0.212239 0.0385697 0)
(-0.218972 0.0367059 0)
(-0.225173 0.0345419 0)
(-0.230825 0.0320949 0)
(-0.235915 0.0293827 0)
(-0.24043 0.0264239 0)
(-0.24436 0.0232373 0)
(-0.247697 0.0198419 0)
(-0.250432 0.016257 0)
(-0.252556 0.0125017 0)
(-0.25406 0.00859593 0)
(-0.254937 0.00455985 0)
(-0.255177 0.000414562 0)
(-0.254772 -0.00381774 0)
(-0.253713 -0.00811344 0)
(-0.25199 -0.0124471 0)
(-0.249596 -0.0167914 0)
(-0.246522 -0.0211164 0)
(-0.242762 -0.0253896 0)
(-0.238311 -0.0295759 0)
(-0.233165 -0.0336373 0)
(-0.227325 -0.037533 0)
(-0.220795 -0.0412197 0)
(-0.213585 -0.0446522 0)
(-0.20571 -0.0477841 0)
(-0.197192 -0.0505683 0)
(-0.188062 -0.0529589 0)
(-0.178359 -0.0549117 0)
(-0.168132 -0.0563866 0)
(-0.157442 -0.0573488 0)
(-0.146358 -0.0577709 0)
(-0.13496 -0.0576342 0)
(-0.123336 -0.0569303 0)
(-0.111583 -0.0556627 0)
(-0.0998029 -0.0538467 0)
(-0.0881011 -0.0515106 0)
(-0.0765839 -0.0486945 0)
(-0.0653553 -0.0454497 0)
(-0.0545147 -0.0418373 0)
(-0.0441538 -0.0379261 0)
(-0.034355 -0.0337904 0)
(-0.0251894 -0.0295074 0)
(-0.016716 -0.0251552 0)
(-0.00898099 -0.0208102 0)
(-0.0020177 -0.0165452 0)
(0.00415297 -0.0124277 0)
(0.00952207 -0.00851812 0)
(0.0140921 -0.00486901 0)
(0.0178762 -0.00152377 0)
(0.0208978 0.00148396 0)
(0.0231896 0.00413083 0)
(0.0247933 0.00640395 0)
(0.0257583 0.00830085 0)
(0.0261409 0.00982894 0)
(0.0260021 0.0110047 0)
(0.0254076 0.0118525 0)
(0.0244235 0.0124028 0)
(0.0231175 0.0126907 0)
(0.0215532 0.0127534 0)
(0.0197936 0.0126283 0)
(0.0178931 0.0123505 0)
(0.0159062 0.01195 0)
(0.0138743 0.0114503 0)
(0.0118441 0.0108646 0)
(0.00984323 0.0101961 0)
(0.00791833 0.00943423 0)
(0.00608504 0.00855826 0)
(0.00440521 0.00753372 0)
(0.002885 0.00632294 0)
(0.00163011 0.00487911 0)
(0.000636652 0.00316865 0)
(9.8232e-05 0.00115563 0)
(4.79042e-05 -0.000977404 0)
(0.000285639 -0.00235693 0)
(0.00067844 -0.00326381 0)
(0.00110848 -0.00377629 0)
(0.00155273 -0.00397501 0)
(0.0019462 -0.00392226 0)
(0.00227309 -0.00367529 0)
(0.00249765 -0.00327637 0)
(0.00260727 -0.00276064 0)
(0.00257884 -0.00215209 0)
(0.00239928 -0.00146865 0)
(0.00204938 -0.000720899 0)
(0.00151366 8.47407e-05 0)
(0.000772663 0.000946392 0)
(-0.000192359 0.0018649 0)
(-0.00140315 0.00284406 0)
(-0.0028823 0.00388964 0)
(-0.00465501 0.00500955 0)
(-0.00674814 0.00621324 0)
(-0.00919091 0.0075116 0)
(-0.0120142 0.00891629 0)
(-0.0152505 0.0104392 0)
(-0.0189331 0.0120917 0)
(-0.0230947 0.0138833 0)
(-0.0277668 0.0158208 0)
(-0.0329773 0.0179072 0)
(-0.0387492 0.0201404 0)
(-0.0450984 0.0225124 0)
(-0.0520316 0.0250083 0)
(-0.0595448 0.0276064 0)
(-0.0676217 0.030278 0)
(-0.0762327 0.0329875 0)
(-0.085335 0.0356935 0)
(-0.0948723 0.0383498 0)
(-0.104777 0.0409074 0)
(-0.114971 0.0433157 0)
(-0.12537 0.045525 0)
(-0.135886 0.0474882 0)
(-0.14643 0.0491631 0)
(-0.156914 0.0505131 0)
(-0.167257 0.051509 0)
(-0.177385 0.0521291 0)
(-0.187232 0.0523594 0)
(-0.19674 0.0521932 0)
(-0.205863 0.0516301 0)
(-0.214559 0.0506758 0)
(-0.222798 0.0493401 0)
(-0.230555 0.0476366 0)
(-0.237808 0.0455814 0)
(-0.244543 0.0431925 0)
(-0.250746 0.0404888 0)
(-0.256407 0.03749 0)
(-0.261517 0.0342157 0)
(-0.26607 0.0306858 0)
(-0.270057 0.0269198 0)
(-0.273474 0.0229371 0)
(-0.276312 0.0187568 0)
(-0.278567 0.0143982 0)
(-0.28023 0.00988079 0)
(-0.281294 0.00522433 0)
(-0.281751 0.000449484 0)
(-0.281593 -0.00442199 0)
(-0.280808 -0.00936686 0)
(-0.279386 -0.01436 0)
(-0.277317 -0.0193739 0)
(-0.274588 -0.0243784 0)
(-0.271186 -0.0293404 0)
(-0.2671 -0.0342233 0)
(-0.262318 -0.038987 0)
(-0.256832 -0.0435877 0)
(-0.250634 -0.0479785 0)
(-0.243721 -0.052109 0)
(-0.236095 -0.0559264 0)
(-0.227764 -0.0593763 0)
(-0.218744 -0.0624039 0)
(-0.20906 -0.0649554 0)
(-0.198748 -0.0669799 0)
(-0.187856 -0.0684314 0)
(-0.176444 -0.0692709 0)
(-0.164585 -0.0694687 0)
(-0.152365 -0.0690065 0)
(-0.13988 -0.0678789 0)
(-0.127238 -0.0660951 0)
(-0.114553 -0.0636793 0)
(-0.101942 -0.0606711 0)
(-0.0895267 -0.0571243 0)
(-0.0774226 -0.0531055 0)
(-0.0657405 -0.0486919 0)
(-0.0545813 -0.0439686 0)
(-0.044034 -0.0390253 0)
(-0.0341735 -0.0339536 0)
(-0.0250597 -0.0288438 0)
(-0.0167372 -0.0237824 0)
(-0.00923618 -0.0188497 0)
(-0.00257287 -0.0141187 0)
(0.00324914 -0.00965305 0)
(0.00823755 -0.00550681 0)
(0.0124105 -0.00172332 0)
(0.0157953 0.00166504 0)
(0.0184281 0.00463711 0)
(0.0203524 0.00718296 0)
(0.0216192 0.00930362 0)
(0.0222848 0.0110105 0)
(0.0224113 0.0123244 0)
(0.0220627 0.0132742 0)
(0.0213068 0.0138948 0)
(0.0202087 0.0142252 0)
(0.0188354 0.014306 0)
(0.0172465 0.0141767 0)
(0.0155031 0.0138726 0)
(0.013654 0.0134219 0)
(0.0117544 0.0128429 0)
(0.00983949 0.0121417 0)
(0.00796452 0.0113101 0)
(0.00615217 0.0103255 0)
(0.00447264 0.00915058 0)
(0.00293827 0.00773686 0)
(0.00166359 0.00602651 0)
(0.000649896 0.00395926 0)
(9.98856e-05 0.00147495 0)
(4.47788e-05 -0.00111827 0)
(0.000259927 -0.00266456 0)
(0.000603796 -0.00365308 0)
(0.000963113 -0.00418074 0)
(0.00131257 -0.00434719 0)
(0.00159052 -0.0042255 0)
(0.00178043 -0.00388252 0)
(0.00184807 -0.00336508 0)
(0.00177964 -0.00271191 0)
(0.00155143 -0.00194788 0)
(0.00114795 -0.00109134 0)
(0.000547502 -0.000152035 0)
(-0.000269027 0.000864594 0)
(-0.00132494 0.00195822 0)
(-0.00264353 0.00313129 0)
(-0.00425126 0.00438951 0)
(-0.00617582 0.00574065 0)
(-0.00844758 0.00719471 0)
(-0.0110986 0.0087632 0)
(-0.0141629 0.0104589 0)
(-0.0176759 0.0122948 0)
(-0.0216736 0.0142835 0)
(-0.0261911 0.0164359 0)
(-0.0312616 0.0187596 0)
(-0.0369143 0.0212579 0)
(-0.0431722 0.023928 0)
(-0.05005 0.0267602 0)
(-0.0575518 0.0297366 0)
(-0.0656695 0.0328308 0)
(-0.0743808 0.0360081 0)
(-0.083649 0.0392256 0)
(-0.0934227 0.0424336 0)
(-0.103637 0.0455775 0)
(-0.114214 0.0485993 0)
(-0.125069 0.0514402 0)
(-0.13611 0.0540435 0)
(-0.147242 0.0563562 0)
(-0.158372 0.0583319 0)
(-0.169414 0.0599317 0)
(-0.180287 0.0611253 0)
(-0.190917 0.0618917 0)
(-0.201244 0.0622183 0)
(-0.211214 0.0621007 0)
(-0.220785 0.0615414 0)
(-0.229922 0.0605487 0)