/*--------------------------------*- C++ -*----------------------------------*\
| =========                 |                                                 |
| \\      /  F ield         | OpenFOAM: The Open Source CFD Toolbox           |
|  \\    /   O peration     | Version:  2406                                  |
|   \\  /    A nd           | Website:  www.openfoam.com                      |
|    \\/     M anipulation  |                                                 |
\*---------------------------------------------------------------------------*/
FoamFile
{
    version     2.0;
    format      ascii;
    arch        "LSB;label=32;scalar=64";
    class       surfaceScalarField;
    location    "0.8";
    object      phi;
}
// * * * * * * * * * * * * * * * * * * * * * * * * * * * * * * * * * * * * * //

dimensions      [0 3 -1 0 0 0 0];

oriented        oriented;

internalField   nonuniform List<scalar> 
1740
(
-1.02823e-06
1.02823e-06
-2.304e-06
1.27577e-06
-3.60665e-06
1.30264e-06
-4.87404e-06
1.26739e-06
-6.09079e-06
1.21675e-06
-7.2421e-06
1.15131e-06
-8.31531e-06
1.07321e-06
-9.29866e-06
9.83346e-07
-1.01814e-05
8.82742e-07
-1.09538e-05
7.72413e-07
-1.16072e-05
6.53433e-07
-1.21342e-05
5.26919e-07
-1.25282e-05
3.94039e-07
-1.27842e-05
2.56006e-07
-1.28983e-05
1.14043e-07
-1.28681e-05
-3.01466e-08
-1.26922e-05
-1.75886e-07
-1.23711e-05
-3.2109e-07
-1.19067e-05
-4.64387e-07
-1.13026e-05
-6.04131e-07
-1.0564e-05
-7.38603e-07
-9.69798e-06
-8.66022e-07
-8.71341e-06
-9.84574e-07
-7.62097e-06
-1.09244e-06
-6.4332e-06
-1.18778e-06
-5.16437e-06
-1.26883e-06
-3.83154e-06
-1.33282e-06
-2.45334e-06
-1.3782e-06
-1.09754e-06
-1.3558e-06
-1.09754e-06
-1.30732e-06
2.33555e-06
-3.02752e-06
2.99597e-06
-4.73436e-06
3.00948e-06
-6.39053e-06
2.92356e-06
-7.97538e-06
2.8016e-06
-9.47277e-06
2.6487e-06
-1.08666e-05
2.467e-06
-1.21418e-05
2.25854e-06
-1.32846e-05
2.02555e-06
-1.42826e-05
1.77042e-06
-1.51248e-05
1.49567e-06
-1.58018e-05
1.20392e-06
-1.63056e-05
8.97886e-07
-1.663e-05
5.80396e-07
-1.67704e-05
2.54382e-07
-1.67235e-05
-7.70561e-08
-1.64885e-05
-4.10847e-07
-1.60661e-05
-7.4353e-07
-1.54589e-05
-1.07158e-06
-1.46717e-05
-1.3913e-06
-1.37115e-05
-1.69879e-06
-1.25875e-05
-1.99006e-06
-1.1311e-05
-2.26102e-06
-9.89588e-06
-2.50759e-06
-8.35788e-06
-2.72577e-06
-6.71487e-06
-2.91183e-06
-4.98559e-06
-3.06211e-06
-3.194e-06
-3.16979e-06
-1.38256e-06
-3.16724e-06
-2.4801e-06
-1.38491e-06
3.72046e-06
-3.15772e-06
4.76878e-06
-4.93193e-06
4.78369e-06
-6.65417e-06
4.6458e-06
-8.30304e-06
4.45046e-06
-9.86065e-06
4.20632e-06
-1.13103e-05
3.91662e-06
-1.26363e-05
3.58461e-06
-1.38247e-05
3.21385e-06
-1.48624e-05
2.80817e-06
-1.57383e-05
2.37159e-06
-1.64427e-05
1.90828e-06
-1.69674e-05
1.42255e-06
-1.73058e-05
9.18859e-07
-1.74533e-05
4.01817e-07
-1.74065e-05
-1.23775e-07
-1.71644e-05
-6.52942e-07
-1.67276e-05
-1.18039e-06
-1.60986e-05
-1.70058e-06
-1.52822e-05
-2.20767e-06
-1.42854e-05
-2.69555e-06
-1.31176e-05
-3.15789e-06
-1.17904e-05
-3.58822e-06
-1.03179e-05
-3.98007e-06
-8.71658e-06
-4.32712e-06
-7.00496e-06
-4.62345e-06
-5.20372e-06
-4.86334e-06
-3.33788e-06
-5.03564e-06
-1.46713e-06
-5.03799e-06
-3.94723e-06
-1.42976e-06
5.15023e-06
-3.25616e-06
6.59518e-06
-5.08496e-06
6.61249e-06
-6.86029e-06
6.42114e-06
-8.55994e-06
6.15011e-06
-1.01654e-05
5.81177e-06
-1.16594e-05
5.41067e-06
-1.30262e-05
4.95135e-06
-1.42511e-05
4.43879e-06
-1.53212e-05
3.87831e-06
-1.62251e-05
3.27547e-06
-1.69529e-05
2.63602e-06
-1.74962e-05
1.96588e-06
-1.78484e-05
1.2711e-06
-1.80046e-05
5.57956e-07
-1.79613e-05
-1.6706e-07
-1.77171e-05
-8.97165e-07
-1.72723e-05
-1.62521e-06
-1.66292e-05
-2.34364e-06
-1.57924e-05
-3.04447e-06
-1.47686e-05
-3.71932e-06
-1.35671e-05
-4.35943e-06
-1.21995e-05
-4.95583e-06
-1.06801e-05
-5.49946e-06
-9.02571e-06
-5.98149e-06
-7.2556e-06
-6.39356e-06
-5.39136e-06
-6.72759e-06
-3.45929e-06
-6.9677e-06
-1.52243e-06
-6.97486e-06
-5.46966e-06
-1.48848e-06
6.6387e-06
-3.38618e-06
8.49288e-06
-5.28727e-06
8.51358e-06
-7.13257e-06
8.26644e-06
-8.89902e-06
7.91656e-06
-1.05673e-05
7.48009e-06
-1.21197e-05
6.96305e-06
-1.35398e-05
6.37143e-06
-1.48128e-05
5.71175e-06
-1.59253e-05
4.99089e-06
-1.68659e-05
4.21604e-06
-1.76244e-05
3.39453e-06
-1.81924e-05
2.53387e-06
-1.8563e-05
1.64174e-06
-1.87311e-05
7.25978e-07
-1.86929e-05
-2.0526e-07
-1.84466e-05
-1.14347e-06
-1.79921e-05
-2.07967e-06
-1.73314e-05
-3.00434e-06
-1.64685e-05
-3.90733e-06
-1.541e-05
-4.77791e-06
-1.41646e-05
-5.60479e-06
-1.27441e-05
-6.3763e-06
-1.1163e-05
-7.08058e-06
-9.43855e-06
-7.70595e-06
-7.59084e-06
-8.24126e-06
-5.64269e-06
-8.67574e-06
-3.62198e-06
-8.98842e-06
-1.59617e-06
-9.00066e-06
-7.06583e-06
-1.56228e-06
8.20098e-06
-3.55346e-06
1.04841e-05
-5.54789e-06
1.0508e-05
-7.48333e-06
1.02019e-05
-9.33557e-06
9.7688e-06
-1.10844e-05
9.22895e-06
-1.27114e-05
8.59001e-06
-1.41996e-05
7.85959e-06
-1.55337e-05
7.04588e-06
-1.67003e-05
6.15748e-06
-1.76875e-05
5.20325e-06
-1.84852e-05
4.19218e-06
-1.90846e-05
3.13336e-06
-1.94789e-05
2.036e-06
-1.96624e-05
9.09483e-07
-1.96312e-05
-2.36488e-07
-1.93829e-05
-1.39178e-06
-1.89169e-05
-2.54568e-06
-1.82345e-05
-3.68671e-06
-1.73392e-05
-4.8026e-06
-1.62369e-05
-5.8802e-06
-1.49362e-05
-6.90554e-06
-1.34485e-05
-7.864e-06
-1.17884e-05
-8.74061e-06
-9.97394e-06
-9.52044e-06
-8.02609e-06
-1.01891e-05
-5.96918e-06
-1.07326e-05
-3.83311e-06
-1.11245e-05
-1.69002e-06
-1.11438e-05
-8.75585e-06
-1.65341e-06
9.85439e-06
-3.76055e-06
1.25912e-05
-5.87059e-06
1.2618e-05
-7.91744e-06
1.22487e-05
-9.87548e-06
1.17268e-05
-1.17234e-05
1.10769e-05
-1.34418e-05
1.03085e-05
-1.50133e-05
9.43103e-06
-1.64221e-05
8.45469e-06
-1.76545e-05
7.38991e-06
-1.86986e-05
6.24731e-06
-1.9544e-05
5.03759e-06
-2.0182e-05
3.77139e-06
-2.06054e-05
2.45941e-06
-2.08084e-05
1.11244e-06
-2.07865e-05
-2.58392e-07
-2.05368e-05
-1.6415e-06
-2.00579e-05
-3.02454e-06
-1.93504e-05
-4.39423e-06
-1.84168e-05
-5.73617e-06
-1.72623e-05
-7.03475e-06
-1.58946e-05
-8.27316e-06
-1.43251e-05
-9.43356e-06
-1.25683e-05
-1.04974e-05
-1.06427e-05
-1.14461e-05
-8.57052e-06
-1.22613e-05
-6.378e-06
-1.29252e-05
-4.0976e-06
-1.34049e-05
-1.80745e-06
-1.34339e-05
-1.05633e-05
-1.76329e-06
1.16177e-05
-4.01037e-06
1.48383e-05
-6.25974e-06
1.48674e-05
-8.4406e-06
1.44296e-05
-1.05255e-05
1.38117e-05
-1.24918e-05
1.30432e-05
-1.43193e-05
1.21359e-05
-1.59896e-05
1.11014e-05
-1.74869e-05
9.95195e-06
-1.87971e-05
8.70014e-06
-1.99083e-05
7.35851e-06
-2.08102e-05
5.93946e-06
-2.1494e-05
4.4552e-06
-2.19524e-05
2.91779e-06
-2.21792e-05
1.33928e-06
-2.21696e-05
-2.68027e-07
-2.19198e-05
-1.89128e-06
-2.14276e-05
-3.51675e-06
-2.06923e-05
-5.1295e-06
-1.97154e-05
-6.71311e-06
-1.85007e-05
-8.24948e-06
-1.70551e-05
-9.71879e-06
-1.5389e-05
-1.10997e-05
-1.35169e-05
-1.23695e-05
-1.14579e-05
-1.35051e-05
-9.2355e-06
-1.44836e-05
-6.87809e-06
-1.52826e-05
-4.42146e-06
-1.58615e-05
-1.95124e-06
-1.59041e-05
-1.25145e-05
-1.89365e-06
1.35113e-05
-4.30663e-06
1.72513e-05
-6.7209e-06
1.72817e-05
-9.05995e-06
1.67687e-05
-1.12941e-05
1.60459e-05
-1.33992e-05
1.51483e-05
-1.53538e-05
1.40905e-05
-1.71391e-05
1.28867e-05
-1.87387e-05
1.15516e-05
-2.01388e-05
1.01002e-05
-2.13274e-05
8.54711e-06
-2.22945e-05
6.90654e-06
-2.30314e-05
5.19217e-06
-2.35309e-05
3.41727e-06
-2.37866e-05
1.59491e-06
-2.37929e-05
-2.61719e-07
-2.35453e-05
-2.13884e-06
-2.30404e-05
-4.02167e-06
-2.2276e-05
-5.8939e-06
-2.12518e-05
-7.73728e-06
-1.997e-05
-9.53126e-06
-1.84359e-05
-1.12529e-05
-1.66588e-05
-1.28768e-05
-1.46526e-05
-1.43757e-05
-1.24365e-05
-1.57211e-05
-1.00357e-05
-1.68845e-05
-7.48103e-06
-1.78372e-05
-4.81249e-06
-1.85301e-05
-2.12502e-06
-1.85916e-05
-1.46396e-05
-2.04657e-06
1.55579e-05
-4.65397e-06
1.98587e-05
-7.26106e-06
1.98888e-05
-9.78445e-06
1.92921e-05
-1.21918e-05
1.84532e-05
-1.44571e-05
1.74136e-05
-1.65577e-05
1.61911e-05
-1.84742e-05
1.48032e-05
-2.01902e-05
1.32676e-05
-2.16919e-05
1.16019e-05
-2.2968e-05
9.82321e-06
-2.40089e-05
7.94742e-06
-2.48064e-05
5.98967e-06
-2.53533e-05
3.96422e-06
-2.56432e-05
1.8848e-06
-2.567e-05
-2.34912e-07
-2.54282e-05
-2.3807e-06
-2.49126e-05
-4.5372e-06
-2.41194e-05
-6.68716e-06
-2.30458e-05
-8.81084e-06
-2.16916e-05
-1.08854e-05
-2.00599e-05
-1.28847e-05
-1.81577e-05
-1.47789e-05
-1.5998e-05
-1.65354e-05
-1.35999e-05
-1.81192e-05
-1.09899e-05
-1.94945e-05
-8.20183e-06
-2.06252e-05
-5.28082e-06
-2.14511e-05
-2.33345e-06
-2.1539e-05
-1.6973e-05
-2.22473e-06
1.77826e-05
-5.05827e-06
2.26922e-05
-7.889e-06
2.27195e-05
-1.06253e-05
2.20284e-05
-1.32315e-05
2.10595e-05
-1.56796e-05
1.98616e-05
-1.79456e-05
1.84572e-05
-2.00098e-05
1.68673e-05
-2.18558e-05
1.51136e-05
-2.34707e-05
1.32168e-05
-2.48438e-05
1.11963e-05
-2.59667e-05
9.07026e-06
-2.68319e-05
6.85488e-06
-2.74328e-05
4.56513e-06
-2.77629e-05
2.21497e-06
-2.78158e-05
-1.82023e-07
-2.75847e-05
-2.61186e-06
-2.70626e-05
-5.05926e-06
-2.62431e-05
-7.50671e-06
-2.51204e-05
-9.93351e-06
-2.36909e-05
-1.23149e-05
-2.19541e-05
-1.46215e-05
-1.99143e-05
-1.68188e-05
-1.75818e-05
-1.88678e-05
-1.49753e-05
-2.07258e-05
-1.21222e-05
-2.23477e-05
-9.0599e-06
-2.36875e-05
-5.83966e-06
-2.46713e-05
-2.58257e-06
-2.47961e-05
-1.95556e-05
-2.43152e-06
2.02142e-05
-5.527e-06
2.57877e-05
-8.61586e-06
2.58084e-05
-1.15965e-05
2.5009e-05
-1.44295e-05
2.38924e-05
-1.70841e-05
2.25163e-05
-1.95355e-05
2.09085e-05
-2.17636e-05
1.90954e-05
-2.37527e-05
1.71028e-05
-2.54912e-05
1.49552e-05
-2.69699e-05
1.26751e-05
-2.81821e-05
1.02824e-05
-2.91217e-05
7.79445e-06
-2.9783e-05
5.22645e-06
-3.016e-05
2.59197e-06
-3.02457e-05
-9.62911e-08
-3.00321e-05
-2.82544e-06
-2.95101e-05
-5.58127e-06
-2.86699e-05
-8.34692e-06
-2.75018e-05
-1.11016e-05
-2.59975e-05
-1.38192e-05
-2.41515e-05
-1.64675e-05
-2.19633e-05
-1.9007e-05
-1.94398e-05
-2.13914e-05
-1.65973e-05
-2.35682e-05
-1.34639e-05
-2.54811e-05
-1.00807e-05
-2.70708e-05
-6.50641e-06
-2.82456e-05
-2.88041e-06
-2.84221e-05
-2.2436e-05
-2.67132e-06
2.28855e-05
-6.06977e-06
2.91861e-05
-9.45581e-06
2.91944e-05
-1.27159e-05
2.82691e-05
-1.58057e-05
2.69822e-05
-1.8692e-05
2.54026e-05
-2.13488e-05
2.35653e-05
-2.37563e-05
2.15029e-05
-2.59003e-05
1.92468e-05
-2.77713e-05
1.68262e-05
-2.93627e-05
1.42666e-05
-3.06701e-05
1.15898e-05
-3.16897e-05
8.81406e-06
-3.24175e-05
5.95426e-06
-3.28483e-05
3.02274e-06
-3.29749e-05
3.03316e-08
-3.2788e-05
-3.01235e-06
-3.22758e-05
-6.09345e-06
-3.14247e-05
-9.1981e-06
-3.02196e-05
-1.23067e-05
-2.86458e-05
-1.53929e-05
-2.66911e-05
-1.84222e-05
-2.43478e-05
-2.13502e-05
-2.16168e-05
-2.41224e-05
-1.85103e-05
-2.66747e-05
-1.50557e-05
-2.89357e-05
-1.12977e-05
-3.08288e-05
-7.30429e-06
-3.2239e-05
-3.23772e-06
-3.24886e-05
-2.56737e-05
-2.94991e-06
2.58354e-05
-6.6991e-06
3.29353e-05
-1.04271e-05
3.29224e-05
-1.40059e-05
3.18479e-05
-1.73854e-05
3.03617e-05
-2.05295e-05
2.85467e-05
-2.34113e-05
2.64472e-05
-2.60124e-05
2.4104e-05
-2.83211e-05
2.15555e-05
-3.03311e-05
1.88362e-05
-3.20396e-05
1.59751e-05
-3.34459e-05
1.29961e-05
-3.45496e-05
9.91774e-06
-3.53492e-05
6.75379e-06
-3.58408e-05
3.51439e-06
-3.60177e-05
2.07233e-07
-3.58692e-05
-3.16086e-06
-3.53806e-05
-6.58206e-06
-3.45333e-05
-1.00453e-05
-3.33059e-05
-1.35341e-05
-3.16752e-05
-1.70236e-05
-2.96192e-05
-2.04783e-05
-2.71201e-05
-2.38493e-05
-2.41691e-05
-2.70734e-05
-2.07714e-05
-3.00724e-05
-1.69511e-05
-3.2756e-05
-1.27559e-05
-3.5024e-05
-8.26475e-06
-3.67301e-05
-3.66921e-06
-3.70842e-05
-2.93429e-05
-3.27499e-06
2.91104e-05
-7.43149e-06
3.70918e-05
-1.15537e-05
3.70447e-05
-1.54958e-05
3.57899e-05
-1.92006e-05
3.40665e-05
-2.26291e-05
3.19752e-05
-2.57546e-05
2.95727e-05
-2.8561e-05
2.69103e-05
-3.10406e-05
2.40351e-05
-3.31922e-05
2.09878e-05
-3.50187e-05
1.78016e-05
-3.65244e-05
1.45019e-05
-3.77137e-05
1.1107e-05
-3.85887e-05
7.62877e-06
-3.91481e-05
4.07381e-06
-3.93859e-05
4.45068e-07
-3.92905e-05
-3.25628e-06
-3.8844e-05
-7.02858e-06
-3.80222e-05
-1.08671e-05
-3.67955e-05
-1.47609e-05
-3.51299e-05
-1.86892e-05
-3.29903e-05
-2.26179e-05
-3.03443e-05
-2.64953e-05
-2.71683e-05
-3.02493e-05
-2.34552e-05
-3.37856e-05
-1.92216e-05
-3.69896e-05
-1.45164e-05
-3.97292e-05
-9.43129e-06
-4.18152e-05
-4.19539e-06
-4.23201e-05
-3.35383e-05
-3.65705e-06
3.27674e-05
-8.28915e-06
4.17239e-05
-1.28673e-05
4.16228e-05
-1.72233e-05
4.0146e-05
-2.12922e-05
3.81354e-05
-2.50319e-05
3.5715e-05
-2.84172e-05
3.2958e-05
-3.14363e-05
2.99294e-05
-3.40881e-05
2.66869e-05
-3.63787e-05
2.32785e-05
-3.83186e-05
1.97414e-05
-3.99195e-05
1.61028e-05
-4.11921e-05
1.23796e-05
-4.21438e-05
8.58048e-06
-4.2777e-05
4.70701e-06
-4.30874e-05
7.55505e-07
-4.3063e-05
-3.28073e-06
-4.26827e-05
-7.40888e-06
-4.19162e-05
-1.16336e-05
-4.0724e-05
-1.5953e-05
-3.90588e-05
-2.03545e-05
-3.68679e-05
-2.48088e-05
-3.40984e-05
-2.92648e-05
-3.07049e-05
-3.36428e-05
-2.66593e-05
-3.78311e-05
-2.19641e-05
-4.16848e-05
-1.66643e-05
-4.5029e-05
-1.08653e-05
-4.76141e-05
-4.84558e-06
-4.83398e-05
-3.83839e-05
-4.11071e-06
3.68781e-05
-9.30252e-06
4.69157e-05
-1.44104e-05
4.67307e-05
-1.92387e-05
4.49743e-05
-2.37129e-05
4.26096e-05
-2.77892e-05
3.97913e-05
-3.1446e-05
3.66147e-05
-3.4679e-05
3.31624e-05
-3.74967e-05
2.95046e-05
-3.99159e-05
2.56976e-05
-4.19575e-05
2.1783e-05
-4.36429e-05
1.77882e-05
-4.49914e-05
1.37281e-05
-4.60175e-05
9.60656e-06
-4.67287e-05
5.41822e-06
-4.71238e-05
1.15067e-06
-4.71913e-05
-3.21325e-06
-4.69075e-05
-7.69266e-06
-4.62358e-05
-1.23053e-05
-4.51257e-05
-1.70631e-05
-4.35134e-05
-2.19668e-05
-4.1324e-05
-2.69982e-05
-3.84767e-05
-3.21121e-05
-3.48934e-05
-3.72261e-05
-3.05134e-05
-4.22112e-05
-2.53113e-05
-4.68868e-05
-1.93196e-05
-5.10207e-05
-1.26559e-05
-5.42778e-05
-5.66305e-06
-5.53327e-05
-4.40469e-05
-4.65692e-06
4.15351e-05
-1.05142e-05
5.2773e-05
-1.62416e-05
5.24581e-05
-2.1609e-05
5.03416e-05
-2.65316e-05
4.75322e-05
-3.09661e-05
4.42258e-05
-3.48987e-05
4.05473e-05
-3.83371e-05
3.66008e-05
-4.1304e-05
3.24716e-05
-4.38309e-05
2.82245e-05
-4.59525e-05
2.39046e-05
-4.77032e-05
1.95389e-05
-4.91132e-05
1.51381e-05
-5.0206e-05
1.06994e-05
-5.09965e-05
6.20864e-06
-5.1488e-05
1.64219e-06
-5.1671e-05
-3.03027e-06
-5.15204e-05
-7.84319e-06
-5.09939e-05
-1.28318e-05
-5.00296e-05
-1.80274e-05
-4.85452e-05
-2.34512e-05
-4.64383e-05
-2.91051e-05
-4.3591e-05
-3.49594e-05
-3.9879e-05
-4.09381e-05
-3.51894e-05
-4.69007e-05
-2.94485e-05
-5.26278e-05
-2.26564e-05
-5.78127e-05
-1.49359e-05
-6.19984e-05
-6.71395e-06
-6.35547e-05
-5.07609e-05
-5.32673e-06
4.68618e-05
-1.19852e-05
5.94314e-05
-1.84425e-05
5.89154e-05
-2.44249e-05
5.63241e-05
-2.98385e-05
5.29458e-05
-3.46452e-05
4.90325e-05
-3.88457e-05
4.47478e-05
-4.24667e-05
4.02218e-05
-4.55515e-05
3.55563e-05
-4.81511e-05
3.08242e-05
-5.03187e-05
2.60722e-05
-5.21043e-05
2.13245e-05
-5.35521e-05
1.65859e-05
-5.46971e-05
1.18444e-05
-5.55632e-05
7.07472e-06
-5.61607e-05
2.23972e-06
-5.64842e-05
-2.70681e-06
-5.65094e-05
-7.81804e-06
-5.61899e-05
-1.31512e-05
-5.54538e-05
-1.87636e-05
-5.41994e-05
-2.47056e-05
-5.22931e-05
-3.10113e-05
-4.95702e-05
-3.76824e-05
-4.58422e-05
-4.46661e-05
-4.09172e-05
-5.18257e-05
-3.46368e-05
-5.89082e-05
-2.69328e-05
-6.55168e-05
-1.79101e-05
-7.1021e-05
-8.10396e-06
-7.33608e-05
-5.88648e-05
-6.16762e-06
5.30294e-05
-1.38058e-05
6.70696e-05
-2.11293e-05
6.62389e-05
-2.78111e-05
6.30058e-05
-3.37525e-05
5.88872e-05
-3.89308e-05
5.42108e-05
-4.33722e-05
4.91892e-05
-4.71328e-05
4.39824e-05
-5.02842e-05
3.87078e-05
-5.29036e-05
3.34436e-05
-5.50668e-05
2.82353e-05
-5.68434e-05
2.31011e-05
-5.8294e-05
1.80364e-05
-5.94672e-05
1.30177e-05
-6.03986e-05
8.00606e-06
-6.11076e-05
2.94876e-06
-6.15958e-05
-2.21863e-06
-6.18429e-05
-7.57089e-06
-6.18027e-05
-1.31915e-05
-6.13963e-05
-1.91699e-05
-6.05057e-05
-2.55963e-05
-5.89649e-05
-3.25521e-05
-5.65546e-05
-4.00927e-05
-5.30027e-05
-4.8218e-05
-4.80008e-05
-5.68276e-05
-4.12487e-05
-6.56603e-05
-3.25402e-05
-7.42253e-05
-2.19055e-05
-8.16557e-05
-1.00114e-05
-8.52549e-05
-6.88763e-05
-7.25765e-06
6.02871e-05
-1.61108e-05
7.59228e-05
-2.44695e-05
7.45976e-05
-3.19388e-05
7.04751e-05
-3.84298e-05
6.53783e-05
-4.39534e-05
5.97343e-05
-4.85798e-05
5.38157e-05
-5.24083e-05
4.78109e-05
-5.55491e-05
4.18486e-05
-5.81125e-05
3.60069e-05
-6.02016e-05
3.03244e-05
-6.19087e-05
2.48083e-05
-6.33131e-05
1.94408e-05
-6.44793e-05
1.4184e-05
-6.54563e-05
8.98301e-06
-6.62754e-05
3.76788e-06
-6.69485e-05
-1.54557e-06
-6.7464e-05
-7.05536e-06
-6.77816e-05
-1.28739e-05
-6.78233e-05
-1.91281e-05
-6.74622e-05
-2.59574e-05
-6.65063e-05
-3.35081e-05
-6.4681e-05
-4.1918e-05
-6.16138e-05
-5.12852e-05
-5.68352e-05
-6.16062e-05
-4.9817e-05
-7.26784e-05
-4.00883e-05
-8.39541e-05
-2.74676e-05
-9.42763e-05
-1.27622e-05
-9.99603e-05
-8.16384e-05
-8.72403e-06
6.90111e-05
-1.91204e-05
8.63191e-05
-2.87171e-05
8.41943e-05
-3.70491e-05
7.88071e-05
-4.40754e-05
7.24045e-05
-4.98738e-05
6.55327e-05
-5.45858e-05
5.85277e-05
-5.83717e-05
5.15967e-05
-6.13918e-05
4.48687e-05
-6.37958e-05
3.8411e-05
-6.57184e-05
3.2247e-05
-6.72768e-05
2.63666e-05
-6.85704e-05
2.07344e-05
-6.96808e-05
1.52944e-05
-7.06719e-05
9.97409e-06
-7.15893e-05
4.68529e-06
-7.24587e-05
-6.76149e-07
-7.32831e-05
-6.23098e-06
-7.40364e-05
-1.21207e-05
-7.46533e-05
-1.85112e-05
-7.50138e-05
-2.5597e-05
-7.49174e-05
-3.36044e-05
-7.40498e-05
-4.27856e-05
-7.1937e-05
-5.3398e-05
-6.79106e-05
-6.56326e-05
-6.1097e-05
-7.94921e-05
-5.0545e-05
-9.45061e-05
-3.55415e-05
-0.00010928
-1.69836e-05
-0.000118518
-9.8622e-05
-1.0824e-05
7.98351e-05
-2.31428e-05
9.8638e-05
-3.42282e-05
9.52797e-05
-4.34612e-05
8.80401e-05
-5.09472e-05
7.98905e-05
-5.68808e-05
7.14663e-05
-6.15183e-05
6.31652e-05
-6.51011e-05
5.51796e-05
-6.78507e-05
4.76182e-05
-6.99609e-05
4.05212e-05
-7.15997e-05
3.38858e-05
-7.29098e-05
2.76768e-05
-7.40109e-05
2.18355e-05
-7.50017e-05
1.62852e-05
-7.59614e-05
1.09338e-05
-7.6951e-05
5.67494e-06
-7.8014e-05
3.8686e-07
-7.91734e-05
-5.07162e-06
-8.04275e-05
-1.08666e-05
-8.174e-05
-1.71987e-05
-8.30224e-05
-2.43146e-05
-8.41003e-05
-3.25265e-05
-8.46641e-05
-4.22218e-05
-8.41748e-05
-5.38873e-05
-8.17747e-05
-6.80327e-05
-7.61072e-05
-8.51596e-05
-6.54404e-05
-0.000105173
-4.77707e-05
-0.00012695
-2.402e-05
-0.000142269
-0.000122642
-1.3984e-05
9.38191e-05
-2.88838e-05
0.000113538
-4.16567e-05
0.000108053
-5.16598e-05
9.80432e-05
-5.93762e-05
8.76069e-05
-6.51871e-05
7.72771e-05
-6.95059e-05
6.74841e-05
-7.26644e-05
5.8338e-05
-7.49489e-05
4.99028e-05
-7.65974e-05
4.21697e-05
-7.78095e-05
3.50979e-05
-7.87516e-05
2.86189e-05
-7.95617e-05
2.26456e-05
-8.03535e-05
1.7077e-05
-8.12206e-05
1.18008e-05
-8.22395e-05
6.69386e-06
-8.34728e-05
1.62019e-06
-8.49688e-05
-3.5756e-06
-8.67602e-05
-9.07521e-06
-8.88569e-05
-1.5102e-05
-9.12357e-05
-2.19358e-05
-9.37984e-05
-2.99638e-05
-9.6331e-05
-3.96892e-05
-9.83272e-05
-5.18911e-05
-9.89021e-05
-6.74577e-05
-9.61052e-05
-8.79566e-05
-8.72902e-05
-0.000113988
-6.73699e-05
-0.00014687
-3.73512e-05
-0.000172288
-0.000159993
-1.92223e-05
0.000113041
-3.6679e-05
0.000130994
-5.1599e-05
0.000122973
-6.2046e-05
0.00010849
-6.96782e-05
9.52392e-05
-7.49753e-05
8.25743e-05
-7.86454e-05
7.11541e-05
-8.10956e-05
6.07883e-05
-8.26778e-05
5.1485e-05
-8.36652e-05
4.31571e-05
-8.42846e-05
3.57174e-05
-8.47212e-05
2.90554e-05
-8.51268e-05
2.30512e-05
-8.56263e-05
1.75765e-05
-8.63243e-05
1.24989e-05
-8.73105e-05
7.67999e-06
-8.86662e-05
2.97591e-06
-9.04666e-05
-1.77519e-06
-9.27858e-05
-6.75603e-06
-9.56904e-05
-1.21974e-05
-9.9266e-05
-1.83601e-05
-0.000103525
-2.57047e-05
-0.000108544
-3.46705e-05
-0.000113927
-4.65078e-05
-0.000119445
-6.19395e-05
-0.000122417
-8.49846e-05
-0.000120201
-0.000116205
-0.00010107
-0.000166
-6.40957e-05
-0.000209262
-0.000224089
-2.97305e-05
0.000142772
-5.02269e-05
0.000151491
-6.63398e-05
0.000139086
-7.56262e-05
0.000117777
-8.22261e-05
0.000101839
-8.63312e-05
8.66793e-05
-8.89157e-05
7.37387e-05
-9.03133e-05
6.21859e-05
-9.09199e-05
5.20916e-05
-9.10231e-05
4.32603e-05
-9.08677e-05
3.5562e-05
-9.06495e-05
2.88373e-05
-9.05284e-05
2.293e-05
-9.06337e-05
1.76818e-05
-9.10759e-05
1.29411e-05
-9.19505e-05
8.5546e-06
-9.33562e-05
4.3816e-06
-9.53903e-05
2.58895e-07
-9.81741e-05
-3.97214e-06
-0.000101807
-8.5645e-06
-0.000106571
-1.35959e-05
-0.000112474
-1.98023e-05
-0.000120378
-2.67657e-05
-0.000129413
-3.74736e-05
-0.000142593
-4.87595e-05
-0.000154066
-7.3511e-05
-0.000168602
-0.000101668
-0.00015886
-0.000175743
-0.000125234
-0.000242888
-0.000349323
-4.20581e-05
0.00018483
-6.38933e-05
0.000173326
-8.32981e-05
0.00015849
-9.03364e-05
0.000124815
-9.59871e-05
0.00010749
-9.81782e-05
8.88704e-05
-9.92673e-05
7.48278e-05
-9.92489e-05
6.21675e-05
-9.8587e-05
5.14296e-05
-9.75686e-05
4.22419e-05
-9.64479e-05
3.44413e-05
-9.54216e-05
2.7811e-05
-9.46499e-05
2.21583e-05
-9.42552e-05
1.72871e-05
-9.43532e-05
1.30391e-05
-9.50182e-05
9.21954e-06
-9.63936e-05
5.75706e-06
-9.85153e-05
2.3806e-06
-0.000101681
-8.06361e-07
-0.000105786
-4.45957e-06
-0.000111654
-7.72767e-06
-0.000118538
-1.29182e-05
-0.000129528
-1.57764e-05
-0.000139902
-2.70993e-05
-0.000163985
-2.46767e-05
-0.00018194
-5.55557e-05
-0.000236361
-4.72471e-05
-0.00025266
-0.000159444
-0.000245267
-0.000250281
-0.00059459
-0.0001071
0.00029193
-9.66413e-05
0.000162867
-0.000103211
0.00016506
-0.000100503
0.000122106
-0.000101145
0.000108132
-9.96842e-05
8.74096e-05
-9.87604e-05
7.3904e-05
-9.66876e-05
6.00947e-05
-9.41709e-05
4.89129e-05
-9.15053e-05
3.95763e-05
-8.89581e-05
3.18941e-05
-8.67191e-05
2.5572e-05
-8.49494e-05
2.03885e-05
-8.37341e-05
1.60719e-05
-8.32127e-05
1.25177e-05
-8.33559e-05
9.3627e-06
-8.44732e-05
6.87435e-06
-8.62071e-05
4.1145e-06
-8.9632e-05
2.61858e-06
-9.31524e-05
-9.3923e-07
-0.000100544
-3.35882e-07
-0.000105944
-7.51846e-06
-0.000121671
-4.89297e-08
-0.000130227
-1.8544e-05
-0.000165186
1.02828e-05
-0.00019192
-2.88222e-05
-0.000276568
3.74015e-05
-0.000315776
-0.000120237
-0.000247915
-0.000318141
-0.000842506
3.43162e-06
0.000288499
-2.64686e-05
0.000192767
-1.73836e-05
0.000155975
-2.71301e-05
0.000131853
-1.58543e-05
9.68563e-05
-5.90383e-06
7.74591e-05
6.95053e-06
6.10496e-05
1.89004e-05
4.81449e-05
3.02407e-05
3.75726e-05
4.02373e-05
2.95797e-05
4.87729e-05
2.33585e-05
5.59219e-05
1.8423e-05
6.16847e-05
1.46257e-05
6.6259e-05
1.14976e-05
6.94962e-05
9.28045e-06
7.19207e-05
6.93818e-06
7.271e-05
6.08506e-06
7.34016e-05
3.42296e-06
7.15272e-05
4.493e-06
7.03899e-05
1.98033e-07
6.59615e-05
4.09247e-06
6.14376e-05
-2.99456e-06
5.73992e-05
3.98955e-06
4.43742e-05
-5.51908e-06
4.82502e-05
6.4069e-06
2.23246e-05
-2.89669e-06
4.67163e-05
1.30099e-05
-1.14948e-05
-6.20255e-05
9.75964e-06
-0.000339396
-0.000832746
0.000288499
0.000481266
0.000637241
0.000769094
0.00086595
0.000943409
0.00100446
0.0010526
0.00109018
0.00111976
0.00114311
0.00116154
0.00117616
0.00118766
0.00119694
0.00120388
0.00120996
0.00121339
0.00121788
0.00121808
0.00122217
0.00121918
0.00122317
0.00121765
0.00122405
0.00122116
0.00123417
0.00117214
0.000832746
)
;

boundaryField
{
    movingWall
    {
        type            calculated;
        value           uniform 0;
    }
    fixedWalls
    {
        type            calculated;
        value           uniform 0;
    }
    frontAndBack
    {
        type            empty;
    }
}


// ************************************************************************* //
