/*--------------------------------*- C++ -*----------------------------------*\
| =========                 |                                                 |
| \\      /  F ield         | OpenFOAM: The Open Source CFD Toolbox           |
|  \\    /   O peration     | Version:  2406                                  |
|   \\  /    A nd           | Website:  www.openfoam.com                      |
|    \\/     M anipulation  |                                                 |
\*---------------------------------------------------------------------------*/
FoamFile
{
    version     2.0;
    format      ascii;
    arch        "LSB;label=32;scalar=64";
    class       volVectorField;
    location    "19.75";
    object      U;
}
// * * * * * * * * * * * * * * * * * * * * * * * * * * * * * * * * * * * * * //

dimensions      [0 1 -1 0 0 0 0];

internalField   nonuniform List<vector> 
14400
(
(2.92623e-06 -2.90915e-06 0)
(2.24032e-05 -6.7093e-06 0)
(5.34934e-05 -9.16839e-06 0)
(8.9922e-05 -9.52026e-06 0)
(0.000124819 -8.80999e-06 0)
(0.00015532 -7.50124e-06 0)
(0.000180021 -6.00647e-06 0)
(0.000198631 -4.54637e-06 0)
(0.000211477 -3.25598e-06 0)
(0.000219131 -2.18957e-06 0)
(0.000222157 -1.30162e-06 0)
(0.000221132 -4.60728e-07 0)
(0.000216526 3.31664e-07 0)
(0.000208514 1.08269e-06 0)
(0.000197093 1.8431e-06 0)
(0.000182104 2.65537e-06 0)
(0.000163234 3.5534e-06 0)
(0.000140041 4.56488e-06 0)
(0.000111978 5.71164e-06 0)
(7.84123e-05 7.01101e-06 0)
(3.86418e-05 8.47723e-06 0)
(-8.09793e-06 1.01228e-05 0)
(-6.26265e-05 1.19597e-05 0)
(-0.000125818 1.40002e-05 0)
(-0.000198605 1.62577e-05 0)
(-0.000281977 1.87469e-05 0)
(-0.00037699 2.14837e-05 0)
(-0.00048477 2.44857e-05 0)
(-0.000606511 2.7771e-05 0)
(-0.000743479 3.13578e-05 0)
(-0.000897008 3.52634e-05 0)
(-0.00106849 3.95036e-05 0)
(-0.00125936 4.40906e-05 0)
(-0.00147108 4.90326e-05 0)
(-0.00170512 5.43316e-05 0)
(-0.00196292 5.99822e-05 0)
(-0.00224585 6.59698e-05 0)
(-0.00255516 7.2269e-05 0)
(-0.00289195 7.88422e-05 0)
(-0.00325709 8.56375e-05 0)
(-0.00365116 9.25879e-05 0)
(-0.00407441 9.96095e-05 0)
(-0.00452664 0.000106601 0)
(-0.00500716 0.000113444 0)
(-0.00551471 0.000120001 0)
(-0.00604739 0.000126117 0)
(-0.00660258 0.000131622 0)
(-0.00717692 0.00013633 0)
(-0.00776625 0.000140044 0)
(-0.00836555 0.000142558 0)
(-0.00896899 0.000143662 0)
(-0.00956988 0.000143146 0)
(-0.0101608 0.000140807 0)
(-0.0107334 0.000136451 0)
(-0.0112791 0.000129905 0)
(-0.0117882 0.000121022 0)
(-0.0122511 0.000109686 0)
(-0.0126578 9.58254e-05 0)
(-0.0129983 7.94088e-05 0)
(-0.0132627 6.04328e-05 0)
(-0.0134419 3.90803e-05 0)
(-0.0135271 1.58832e-05 0)
(-0.0135102 -9.41645e-06 0)
(-0.0133849 -3.66809e-05 0)
(-0.0131465 -6.52594e-05 0)
(-0.0127917 -9.46328e-05 0)
(-0.012319 -0.000124296 0)
(-0.0117294 -0.000153668 0)
(-0.0110261 -0.00018212 0)
(-0.0102146 -0.000208997 0)
(-0.00930285 -0.000233638 0)
(-0.00830121 -0.000255399 0)
(-0.00722224 -0.000273676 0)
(-0.00608051 -0.000287935 0)
(-0.00489232 -0.000297736 0)
(-0.00367533 -0.000302754 0)
(-0.00244808 -0.000302801 0)
(-0.00122956 -0.000297837 0)
(-3.85916e-05 -0.000287983 0)
(0.00110663 -0.000273511 0)
(0.00218914 -0.000254846 0)
(0.00319366 -0.000232541 0)
(0.00410705 -0.000207256 0)
(0.0049187 -0.00017973 0)
(0.00562073 -0.000150743 0)
(0.00620814 -0.000121085 0)
(0.00667889 -9.15153e-05 0)
(0.00703371 -6.27358e-05 0)
(0.00727598 -3.53438e-05 0)
(0.00741145 -9.7784e-06 0)
(0.00744836 1.32374e-05 0)
(0.00739478 3.26292e-05 0)
(0.00726077 4.97289e-05 0)
(0.00705844 6.44414e-05 0)
(0.00679874 7.62813e-05 0)
(0.0064925 8.53392e-05 0)
(0.00615033 9.18427e-05 0)
(0.00578216 9.60357e-05 0)
(0.00539698 9.8191e-05 0)
(0.00500277 9.85978e-05 0)
(0.00460641 9.75472e-05 0)
(0.00421365 9.53234e-05 0)
(0.00382913 9.21956e-05 0)
(0.00345645 8.84138e-05 0)
(0.0030982 8.42039e-05 0)
(0.0027561 7.97659e-05 0)
(0.0024311 7.52702e-05 0)
(0.00212348 7.08536e-05 0)
(0.00183303 6.66127e-05 0)
(0.00155924 6.2594e-05 0)
(0.0013015 5.878e-05 0)
(0.00105944 5.50704e-05 0)
(0.000833242 5.12608e-05 0)
(0.00062413 4.70208e-05 0)
(0.000434806 4.18771e-05 0)
(0.000269917 3.52429e-05 0)
(0.000136254 2.65041e-05 0)
(4.20116e-05 1.53857e-05 0)
(-5.38292e-06 2.61319e-06 0)
(-6.38001e-06 -6.39142e-06 0)
(6.82463e-06 -2.24744e-05 0)
(5.35994e-05 -5.32296e-05 0)
(0.000118544 -6.8759e-05 0)
(0.00019131 -7.04446e-05 0)
(0.000258253 -6.35992e-05 0)
(0.000313615 -5.23152e-05 0)
(0.000354269 -3.93845e-05 0)
(0.00037931 -2.64961e-05 0)
(0.00038919 -1.45524e-05 0)
(0.000385041 -3.88648e-06 0)
(0.000368145 5.55834e-06 0)
(0.000339568 1.41279e-05 0)
(0.000300037 2.21507e-05 0)
(0.000249899 2.99961e-05 0)
(0.00018904 3.80476e-05 0)
(0.000116897 4.66561e-05 0)
(3.25099e-05 5.61263e-05 0)
(-6.54261e-05 6.67142e-05 0)
(-0.00017851 7.86319e-05 0)
(-0.000308592 9.20552e-05 0)
(-0.000457736 0.000107134 0)
(-0.000628197 0.000124003 0)
(-0.000822405 0.000142787 0)
(-0.00104296 0.000163612 0)
(-0.00129261 0.000186609 0)
(-0.0015743 0.000211912 0)
(-0.00189112 0.000239663 0)
(-0.00224633 0.000270007 0)
(-0.00264334 0.000303086 0)
(-0.00308572 0.000339033 0)
(-0.00357713 0.000377963 0)
(-0.00412131 0.000419962 0)
(-0.00472203 0.000465077 0)
(-0.005383 0.0005133 0)
(-0.00610777 0.000564554 0)
(-0.00689966 0.000618685 0)
(-0.00776164 0.00067544 0)
(-0.00869614 0.000734456 0)
(-0.00970494 0.00079525 0)
(-0.010789 0.000857201 0)
(-0.0119483 0.000919549 0)
(-0.0131817 0.000981381 0)
(-0.0144865 0.00104164 0)
(-0.0158587 0.00109911 0)
(-0.0172927 0.00115244 0)
(-0.0187808 0.00120015 0)
(-0.0203138 0.00124067 0)
(-0.0218801 0.00127233 0)
(-0.0234667 0.00129341 0)
(-0.0250581 0.00130221 0)
(-0.0266374 0.00129703 0)
(-0.0281857 0.00127629 0)
(-0.029683 0.00123851 0)
(-0.0311077 0.00118242 0)
(-0.0324375 0.001107 0)
(-0.0336497 0.00101151 0)
(-0.0347211 0.000895565 0)
(-0.0356294 0.000759164 0)
(-0.0363525 0.00060275 0)
(-0.0368701 0.000427219 0)
(-0.0371633 0.000234016 0)
(-0.0372161 2.53154e-05 0)
(-0.0370147 -0.000196631 0)
(-0.0365483 -0.000429326 0)
(-0.0358102 -0.0006692 0)
(-0.0347975 -0.000912414 0)
(-0.0335117 -0.00115481 0)
(-0.0319583 -0.00139198 0)
(-0.0301478 -0.00161931 0)
(-0.0280952 -0.00183216 0)
(-0.0258199 -0.0020259 0)
(-0.0233457 -0.00219614 0)
(-0.0207008 -0.00233881 0)
(-0.0179165 -0.00245034 0)
(-0.0150277 -0.0025278 0)
(-0.0120714 -0.00256901 0)
(-0.00908656 -0.0025727 0)
(-0.00611286 -0.00253851 0)
(-0.00319002 -0.00246715 0)
(-0.000356769 -0.00236032 0)
(0.00235008 -0.0022207 0)
(0.00489654 -0.00205192 0)
(0.00725234 -0.00185835 0)
(0.00939163 -0.00164503 0)
(0.0112936 -0.00141741 0)
(0.012943 -0.00118118 0)
(0.0143303 -0.000942026 0)
(0.0154519 -0.000705415 0)
(0.0163096 -0.000476411 0)
(0.0169108 -0.000259504 0)
(0.0172671 -5.86304e-05 0)
(0.0173952 0.000122722 0)
(0.0173154 0.000283789 0)
(0.0170489 0.000423112 0)
(0.0166194 0.000539864 0)
(0.0160515 0.000634296 0)
(0.0153697 0.000707333 0)
(0.0145978 0.000760403 0)
(0.0137582 0.000795314 0)
(0.0128714 0.000814135 0)
(0.0119561 0.000819079 0)
(0.0110282 0.000812408 0)
(0.0101017 0.000796352 0)
(0.00918766 0.000773041 0)
(0.00829501 0.000744454 0)
(0.00743038 0.000712374 0)
(0.00659845 0.000678343 0)
(0.00580215 0.000643615 0)
(0.00504308 0.000609085 0)
(0.00432195 0.000575216 0)
(0.00363918 0.000541921 0)
(0.00299548 0.000508443 0)
(0.00239277 0.000473223 0)
(0.00183494 0.000433802 0)
(0.00132881 0.00038682 0)
(0.000884702 0.000328347 0)
(0.00051649 0.000254813 0)
(0.000239049 0.000165373 0)
(6.8772e-05 6.66431e-05 0)
(3.04676e-06 -4.98299e-06 0)
(9.37354e-06 -5.39833e-05 0)
(6.93335e-05 -0.000118283 0)
(0.000145832 -0.000145641 0)
(0.000227164 -0.000144868 0)
(0.000296884 -0.000126317 0)
(0.000348284 -9.81821e-05 0)
(0.000377514 -6.62464e-05 0)
(0.000383374 -3.4143e-05 0)
(0.000366309 -3.82165e-06 0)
(0.000327598 2.39575e-05 0)
(0.000268742 4.92285e-05 0)
(0.000190993 7.25321e-05 0)
(9.51093e-05 9.47124e-05 0)
(-1.87137e-05 0.000116716 0)
(-0.000150934 0.000139472 0)
(-0.000302654 0.000163845 0)
(-0.000475568 0.000190603 0)
(-0.0006719 0.000220406 0)
(-0.000894344 0.000253817 0)
(-0.001146 0.000291315 0)
(-0.00143032 0.000333319 0)
(-0.0017511 0.000380204 0)
(-0.0021124 0.000432322 0)
(-0.00251859 0.000490017 0)
(-0.00297429 0.00055363 0)
(-0.00348438 0.000623507 0)
(-0.004054 0.000699989 0)
(-0.0046885 0.000783409 0)
(-0.00539342 0.000874071 0)
(-0.00617444 0.000972233 0)
(-0.00703733 0.00107808 0)
(-0.00798784 0.0011917 0)
(-0.00903156 0.00131304 0)
(-0.0101739 0.00144189 0)
(-0.0114196 0.00157783 0)
(-0.0127732 0.00172021 0)
(-0.0142379 0.0018681 0)
(-0.0158162 0.00202029 0)
(-0.0175092 0.0021752 0)
(-0.0193161 0.00233095 0)
(-0.0212348 0.00248528 0)
(-0.0232606 0.00263557 0)
(-0.0253869 0.00277885 0)
(-0.0276042 0.00291184 0)
(-0.0299008 0.00303099 0)
(-0.0322619 0.0031325 0)
(-0.0346701 0.00321244 0)
(-0.0371052 0.00326682 0)
(-0.0395445 0.00329167 0)
(-0.0419628 0.00328315 0)
(-0.0443329 0.00323771 0)
(-0.046626 0.00315213 0)
(-0.0488117 0.0030237 0)
(-0.050859 0.0028503 0)
(-0.0527367 0.00263051 0)
(-0.0544139 0.0023637 0)
(-0.0558603 0.0020501 0)
(-0.0570475 0.00169089 0)
(-0.0579488 0.00128821 0)
(-0.0585402 0.000845183 0)
(-0.0588007 0.000365899 0)
(-0.0587129 -0.000144655 0)
(-0.0582638 -0.000680069 0)
(-0.0574442 -0.00123362 0)
(-0.0562496 -0.00179769 0)
(-0.0546805 -0.00236388 0)
(-0.0527425 -0.00292325 0)
(-0.0504466 -0.00346648 0)
(-0.0478086 -0.00398404 0)
(-0.0448498 -0.00446643 0)
(-0.0415965 -0.00490435 0)
(-0.0380796 -0.00528897 0)
(-0.0343348 -0.00561221 0)
(-0.0304016 -0.00586694 0)
(-0.0263232 -0.00604727 0)
(-0.0221454 -0.00614878 0)
(-0.0179165 -0.00616871 0)
(-0.0136858 -0.00610614 0)
(-0.00950296 -0.00596208 0)
(-0.00541717 -0.00573953 0)
(-0.00147587 -0.00544346 0)
(0.00227612 -0.0050807 0)
(0.00579764 -0.00465974 0)
(0.00905215 -0.00419048 0)
(0.0120085 -0.00368393 0)
(0.0146416 -0.0031518 0)
(0.0169332 -0.00260611 0)
(0.0188716 -0.00205877 0)
(0.0204527 -0.00152116 0)
(0.0216788 -0.00100375 0)
(0.022559 -0.000515685 0)
(0.023109 -6.41983e-05 0)
(0.0233492 0.000344291 0)
(0.023304 0.000705367 0)
(0.0230019 0.00101678 0)
(0.0224735 0.00127779 0)
(0.0217508 0.00148915 0)
(0.0208659 0.00165297 0)
(0.0198503 0.00177241 0)
(0.018734 0.00185149 0)
(0.0175448 0.00189481 0)
(0.0163079 0.00190728 0)
(0.0150456 0.00189394 0)
(0.0137768 0.00185978 0)
(0.0125175 0.00180952 0)
(0.0112802 0.00174753 0)
(0.0100747 0.00167764 0)
(0.0089084 0.00160303 0)
(0.00778632 0.00152604 0)
(0.0067122 0.00144797 0)
(0.00568901 0.00136884 0)
(0.00471993 0.00128717 0)
(0.00380933 0.00119973 0)
(0.00296379 0.00110144 0)
(0.0021931 0.000985558 0)
(0.0015109 0.000844487 0)
(0.000934401 0.000671772 0)
(0.000480598 0.000466334 0)
(0.000175334 0.000239938 0)
(1.69485e-05 4.55865e-05 0)
(9.67692e-06 -9.07659e-05 0)
(6.96948e-05 -0.000190171 0)
(0.000140768 -0.000225777 0)
(0.000210059 -0.000216725 0)
(0.000260394 -0.000179503 0)
(0.000285123 -0.000126978 0)
(0.00028054 -6.82739e-05 0)
(0.000245635 -9.20876e-06 0)
(0.000181015 4.70427e-05 0)
(8.80595e-05 9.92542e-05 0)
(-3.17164e-05 0.000147545 0)
(-0.000177129 0.00019287 0)
(-0.00034762 0.00023669 0)
(-0.000543385 0.000280664 0)
(-0.000765438 0.000326467 0)
(-0.0010156 0.000375676 0)
(-0.00129646 0.000429711 0)
(-0.0016113 0.000489819 0)
(-0.00196402 0.000557077 0)
(-0.00235908 0.000632422 0)
(-0.00280145 0.000716681 0)
(-0.00329652 0.000810603 0)
(-0.00385013 0.000914886 0)
(-0.00446849 0.0010302 0)
(-0.00515817 0.00115719 0)
(-0.00592608 0.0012965 0)
(-0.0067794 0.00144872 0)
(-0.00772557 0.0016144 0)
(-0.00877219 0.001794 0)
(-0.00992693 0.00198786 0)
(-0.0111974 0.00219612 0)
(-0.012591 0.0024187 0)
(-0.0141147 0.00265522 0)
(-0.0157749 0.00290492 0)
(-0.017577 0.00316664 0)
(-0.0195253 0.0034387 0)
(-0.0216227 0.00371891 0)
(-0.0238701 0.00400445 0)
(-0.0262663 0.0042919 0)
(-0.0288077 0.00457721 0)
(-0.031488 0.00485567 0)
(-0.0342977 0.00512199 0)
(-0.0372242 0.00537031 0)
(-0.0402516 0.00559432 0)
(-0.0433604 0.00578734 0)
(-0.0465279 0.00594249 0)
(-0.0497282 0.00605282 0)
(-0.0529324 0.00611151 0)
(-0.056109 0.00611205 0)
(-0.0592246 0.00604844 0)
(-0.0622437 0.00591536 0)
(-0.0651302 0.00570839 0)
(-0.0678474 0.00542417 0)
(-0.0703588 0.00506051 0)
(-0.0726287 0.00461654 0)
(-0.074623 0.00409282 0)
(-0.0763097 0.00349134 0)
(-0.077659 0.00281561 0)
(-0.0786446 0.00207062 0)
(-0.0792434 0.00126287 0)
(-0.0794361 0.000400256 0)
(-0.0792076 -0.000508042 0)
(-0.0785472 -0.00145157 0)
(-0.077449 -0.00241849 0)
(-0.0759114 -0.00339619 0)
(-0.073938 -0.00437121 0)
(-0.0715374 -0.00532942 0)
(-0.068723 -0.00625625 0)
(-0.0655134 -0.00713696 0)
(-0.0619324 -0.00795688 0)
(-0.0580083 -0.00870177 0)
(-0.0537744 -0.00935807 0)
(-0.0492685 -0.00991333 0)
(-0.0445325 -0.0103565 0)
(-0.0396121 -0.0106783 0)
(-0.0345563 -0.0108717 0)
(-0.0294164 -0.0109318 0)
(-0.0242459 -0.0108567 0)
(-0.019099 -0.0106473 0)
(-0.0140303 -0.0103072 0)
(-0.00909329 -0.00984346 0)
(-0.00433953 -0.00926566 0)
(0.000182309 -0.00858624 0)
(0.00442756 -0.00781996 0)
(0.00835649 -0.00698353 0)
(0.0119352 -0.00609511 0)
(0.0151362 -0.00517366 0)
(0.0179392 -0.00423842 0)
(0.0203314 -0.00330817 0)
(0.0223074 -0.00240069 0)
(0.0238697 -0.00153214 0)
(0.0250277 -0.000716602 0)
(0.0257977 3.39378e-05 0)
(0.0262017 0.000710569 0)
(0.0262672 0.00130722 0)
(0.0260256 0.00182048 0)
(0.0255109 0.00224959 0)
(0.0247592 0.00259624 0)
(0.023807 0.00286421 0)
(0.0226904 0.00305899 0)
(0.0214442 0.00318742 0)
(0.0201009 0.00325722 0)
(0.01869 0.00327663 0)
(0.017238 0.00325404 0)
(0.0157677 0.00319767 0)
(0.0142984 0.00311522 0)
(0.0128458 0.00301366 0)
(0.0114226 0.00289882 0)
(0.0100387 0.00277516 0)
(0.00870192 0.00264536 0)
(0.00741896 0.00250993 0)
(0.00619623 0.00236686 0)
(0.00504098 0.0022113 0)
(0.00396242 0.00203547 0)
(0.00297278 0.00182911 0)
(0.00208798 0.00158075 0)
(0.00132782 0.00128064 0)
(0.000711542 0.000926154 0)
(0.000277652 0.000530317 0)
(2.99792e-05 0.000148566 0)
(8.59673e-06 -0.000124964 0)
(5.86327e-05 -0.000252453 0)
(0.000110551 -0.000288262 0)
(0.000150977 -0.000262707 0)
(0.000163823 -0.000199037 0)
(0.00014317 -0.000114905 0)
(8.60743e-05 -2.2687e-05 0)
(-7.88418e-06 6.97568e-05 0)
(-0.000137729 0.000158171 0)
(-0.000301925 0.000241003 0)
(-0.000499019 0.000318588 0)
(-0.000728076 0.00039247 0)
(-0.000988956 0.000464884 0)
(-0.00128246 0.000538369 0)
(-0.00161036 0.000615502 0)
(-0.00197543 0.000698732 0)
(-0.00238133 0.000790285 0)
(-0.00283258 0.000892144 0)
(-0.0033345 0.00100605 0)
(-0.00389305 0.00113353 0)
(-0.00451487 0.00127595 0)
(-0.00520715 0.00143455 0)
(-0.00597762 0.00161049 0)
(-0.00683446 0.00180485 0)
(-0.00778633 0.00201866 0)
(-0.00884221 0.00225287 0)
(-0.0100114 0.00250837 0)
(-0.0113034 0.00278586 0)
(-0.0127278 0.00308589 0)
(-0.0142941 0.00340871 0)
(-0.0160113 0.00375421 0)
(-0.0178882 0.00412183 0)
(-0.0199325 0.00451045 0)
(-0.0221509 0.0049183 0)
(-0.0245484 0.00534286 0)
(-0.0271284 0.00578077 0)
(-0.0298918 0.00622778 0)
(-0.0328367 0.00667865 0)
(-0.0359584 0.00712721 0)
(-0.0392487 0.00756632 0)
(-0.0426958 0.00798794 0)
(-0.0462839 0.00838322 0)
(-0.0499935 0.00874265 0)
(-0.053801 0.00905626 0)
(-0.0576792 0.0093138 0)
(-0.0615974 0.00950503 0)
(-0.0655219 0.00961998 0)
(-0.0694162 0.00964922 0)
(-0.0732421 0.00958416 0)
(-0.0769601 0.00941731 0)
(-0.0805299 0.00914252 0)
(-0.0839114 0.0087552 0)
(-0.0870652 0.00825245 0)
(-0.0899534 0.00763324 0)
(-0.0925398 0.00689841 0)
(-0.094791 0.00605078 0)
(-0.096676 0.0050951 0)
(-0.0981674 0.00403805 0)
(-0.0992409 0.00288811 0)
(-0.0998761 0.00165557 0)
(-0.100056 0.000352363 0)
(-0.0997689 -0.00100804 0)
(-0.0990052 -0.00241083 0)
(-0.0977607 -0.00383977 0)
(-0.0960354 -0.00527761 0)
(-0.0938333 -0.00670616 0)
(-0.0911632 -0.00810651 0)
(-0.0880383 -0.00945928 0)
(-0.0844765 -0.0107449 0)
(-0.0805004 -0.0119438 0)
(-0.0761373 -0.0130371 0)
(-0.0714193 -0.0140066 0)
(-0.0663833 -0.0148353 0)
(-0.0610703 -0.0155082 0)
(-0.0555257 -0.0160123 0)
(-0.0497987 -0.0163372 0)
(-0.0439417 -0.0164757 0)
(-0.0380098 -0.0164239 0)
(-0.03206 -0.0161816 0)
(-0.0261502 -0.0157526 0)
(-0.0203383 -0.0151448 0)
(-0.0146815 -0.0143697 0)
(-0.00923443 -0.0134429 0)
(-0.00404899 -0.0123832 0)
(0.000827371 -0.0112123 0)
(0.00535238 -0.00995436 0)
(0.00948987 -0.00863497 0)
(0.0132105 -0.00728059 0)
(0.0164923 -0.00591764 0)
(0.0193213 -0.00457169 0)
(0.0216912 -0.00326669 0)
(0.0236038 -0.00202426 0)
(0.0250684 -0.000863054 0)
(0.0261017 0.000201802 0)
(0.0267264 0.00115874 0)
(0.0269711 0.00200008 0)
(0.0268687 0.00272194 0)
(0.0264553 0.00332406 0)
(0.0257694 0.00380945 0)
(0.0248501 0.00418393 0)
(0.0237366 0.00445567 0)
(0.0224666 0.00463458 0)
(0.0210758 0.00473175 0)
(0.0195971 0.0047589 0)
(0.0180597 0.00472785 0)
(0.0164897 0.00465 0)
(0.0149091 0.00453581 0)
(0.0133364 0.00439436 0)
(0.0117871 0.00423273 0)
(0.0102741 0.00405553 0)
(0.00880832 0.00386429 0)
(0.00740019 0.00365698 0)
(0.00606026 0.00342758 0)
(0.00480056 0.00316605 0)
(0.00363579 0.00285889 0)
(0.00258424 0.00249077 0)
(0.00166863 0.00204778 0)
(0.000911648 0.00152305 0)
(0.000365407 0.000924798 0)
(4.08807e-05 0.000298439 0)
(6.46512e-06 -0.000152122 0)
(3.91327e-05 -0.000295128 0)
(6.08656e-05 -0.000320018 0)
(5.85857e-05 -0.000267933 0)
(1.88443e-05 -0.000169008 0)
(-6.29315e-05 -4.56036e-05 0)
(-0.0001884 8.68834e-05 0)
(-0.000357049 0.000218847 0)
(-0.00056734 0.000345257 0)
(-0.000817529 0.000464504 0)
(-0.00110627 0.000577376 0)
(-0.00143299 0.000686209 0)
(-0.00179817 0.000794222 0)
(-0.00220341 0.00090502 0)
(-0.0026515 0.00102225 0)
(-0.00314634 0.0011494 0)
(-0.00369295 0.00128964 0)
(-0.00429731 0.00144585 0)
(-0.00496633 0.00162056 0)
(-0.00570775 0.00181603 0)
(-0.00653005 0.0020343 0)
(-0.00744242 0.00227721 0)
(-0.00845465 0.00254645 0)
(-0.00957708 0.0028436 0)
(-0.0108205 0.0031701 0)
(-0.0121962 0.00352725 0)
(-0.0137154 0.00391612 0)
(-0.0153898 0.00433753 0)
(-0.0172307 0.00479187 0)
(-0.0192491 0.00527907 0)
(-0.0214553 0.00579841 0)
(-0.0238586 0.00634841 0)
(-0.0264668 0.00692665 0)
(-0.0292862 0.00752969 0)
(-0.0323203 0.0081529 0)
(-0.0355702 0.00879042 0)
(-0.0390336 0.00943501 0)
(-0.0427048 0.0100781 0)
(-0.0465739 0.0107099 0)
(-0.0506269 0.0113193 0)
(-0.0548455 0.0118941 0)
(-0.0592069 0.0124213 0)
(-0.0636841 0.0128874 0)
(-0.068246 0.0132783 0)
(-0.072858 0.0135805 0)
(-0.0774827 0.0137805 0)
(-0.0820801 0.013866 0)
(-0.0866086 0.0138257 0)
(-0.0910259 0.0136499 0)
(-0.0952893 0.0133308 0)
(-0.099357 0.0128625 0)
(-0.103188 0.0122415 0)
(-0.106744 0.0114665 0)
(-0.109988 0.0105385 0)
(-0.112885 0.00946104 0)
(-0.115406 0.00823976 0)
(-0.11752 0.00688256 0)
(-0.119205 0.00539944 0)
(-0.120437 0.00380237 0)
(-0.121198 0.00210517 0)
(-0.121473 0.000323424 0)
(-0.12125 -0.0015257 0)
(-0.12052 -0.00342354 0)
(-0.119279 -0.00535005 0)
(-0.117525 -0.00728398 0)
(-0.115259 -0.00920301 0)
(-0.112489 -0.011084 0)
(-0.109225 -0.0129031 0)
(-0.105482 -0.0146361 0)
(-0.101278 -0.016259 0)
(-0.0966385 -0.017748 0)
(-0.0915918 -0.01908 0)
(-0.0861722 -0.0202334 0)
(-0.0804185 -0.0211886 0)
(-0.0743747 -0.0219281 0)
(-0.068089 -0.0224378 0)
(-0.0616141 -0.0227068 0)
(-0.0550061 -0.0227285 0)
(-0.0483243 -0.022501 0)
(-0.0416298 -0.0220267 0)
(-0.034985 -0.0213136 0)
(-0.0284522 -0.0203744 0)
(-0.0220925 -0.0192267 0)
(-0.0159648 -0.0178927 0)
(-0.0101243 -0.0163986 0)
(-0.00462166 -0.0147738 0)
(0.000498186 -0.0130503 0)
(0.0051969 -0.0112616 0)
(0.00944344 -0.00944166 0)
(0.0132147 -0.00762415 0)
(0.0164956 -0.0058411 0)
(0.0192796 -0.00412217 0)
(0.0215682 -0.00249379 0)
(0.0233711 -0.000978438 0)
(0.0247051 0.000405786 0)
(0.0255939 0.00164553 0)
(0.0260667 0.00273231 0)
(0.0261579 0.00366237 0)
(0.025905 0.00443646 0)
(0.0253482 0.00505936 0)
(0.0245287 0.00553933 0)
(0.0234876 0.00588748 0)
(0.022265 0.00611697 0)
(0.020899 0.00624236 0)
(0.0194247 0.00627881 0)
(0.0178741 0.00624134 0)
(0.0162755 0.00614412 0)
(0.0146536 0.0059997 0)
(0.0130296 0.00581826 0)
(0.0114219 0.00560683 0)
(0.00984639 0.00536854 0)
(0.0083178 0.00510188 0)
(0.00685053 0.00480025 0)
(0.00545986 0.00445182 0)
(0.00416336 0.00404012 0)
(0.00298221 0.00354571 0)
(0.00194272 0.0029493 0)
(0.001072 0.00223696 0)
(0.000434863 0.00140692 0)
(4.93155e-05 0.00048666 0)
(3.66351e-06 -0.000168761 0)
(1.32688e-05 -0.000309855 0)
(-4.20202e-06 -0.000309529 0)
(-6.07072e-05 -0.000219062 0)
(-0.000165803 -7.51094e-05 0)
(-0.000322135 9.56138e-05 0)
(-0.000529594 0.000275109 0)
(-0.000786433 0.000452468 0)
(-0.00109039 0.000622315 0)
(-0.00143947 0.000783369 0)
(-0.00183248 0.000937207 0)
(-0.00226935 0.00108724 0)
(-0.00275133 0.00123791 0)
(-0.00328106 0.0013941 0)
(-0.00386255 0.00156072 0)
(-0.00450115 0.00174243 0)
(-0.00520343 0.00194354 0)
(-0.00597711 0.00216793 0)
(-0.00683096 0.0024191 0)
(-0.00777472 0.00270014 0)
(-0.00881897 0.00301387 0)
(-0.00997508 0.00336282 0)
(-0.0112551 0.00374931 0)
(-0.0126717 0.00417543 0)
(-0.014238 0.00464303 0)
(-0.0159674 0.00515369 0)
(-0.0178733 0.00570856 0)
(-0.0199692 0.00630831 0)
(-0.0222679 0.00695295 0)
(-0.0247816 0.00764166 0)
(-0.0275212 0.0083726 0)
(-0.030496 0.00914276 0)
(-0.0337131 0.00994771 0)
(-0.0371769 0.0107815 0)
(-0.0408886 0.0116366 0)
(-0.0448458 0.0125036 0)
(-0.049042 0.0133715 0)
(-0.0534658 0.0142274 0)
(-0.0581017 0.015057 0)
(-0.0629288 0.0158446 0)
(-0.0679217 0.0165735 0)
(-0.0730506 0.0172262 0)
(-0.0782813 0.0177851 0)
(-0.0835762 0.0182327 0)
(-0.088895 0.0185525 0)
(-0.094195 0.0187288 0)
(-0.0994327 0.0187477 0)
(-0.104564 0.0185975 0)
(-0.109544 0.0182684 0)
(-0.114332 0.0177536 0)
(-0.118885 0.0170486 0)
(-0.123164 0.0161519 0)
(-0.127134 0.0150644 0)
(-0.130759 0.0137899 0)
(-0.134008 0.0123345 0)
(-0.136853 0.010707 0)
(-0.139267 0.00891805 0)
(-0.141228 0.00698067 0)
(-0.142713 0.00490975 0)
(-0.143706 0.00272201 0)
(-0.144191 0.000435967 0)
(-0.144154 -0.00192824 0)
(-0.143585 -0.00434886 0)
(-0.142476 -0.00680266 0)
(-0.140824 -0.009265 0)
(-0.138627 -0.01171 0)
(-0.135887 -0.0141105 0)
(-0.132611 -0.0164388 0)
(-0.128808 -0.0186662 0)
(-0.124494 -0.0207638 0)
(-0.119688 -0.0227029 0)
(-0.114415 -0.0244555 0)
(-0.108705 -0.0259947 0)
(-0.102595 -0.0272955 0)
(-0.0961249 -0.0283354 0)
(-0.0893428 -0.0290952 0)
(-0.0823005 -0.0295598 0)
(-0.0750549 -0.0297186 0)
(-0.0676674 -0.0295664 0)
(-0.0602024 -0.0291037 0)
(-0.0527269 -0.0283371 0)
(-0.0453088 -0.0272795 0)
(-0.0380161 -0.0259497 0)
(-0.0309155 -0.0243725 0)
(-0.0240705 -0.0225778 0)
(-0.0175409 -0.0206001 0)
(-0.0113807 -0.0184773 0)
(-0.00563794 -0.0162499 0)
(-0.000352919 -0.0139595 0)
(0.00444195 -0.0116479 0)
(0.00872279 -0.00935566 0)
(0.0124745 -0.00712089 0)
(0.0156908 -0.00497847 0)
(0.0183739 -0.00295895 0)
(0.0205343 -0.00108794 0)
(0.0221901 0.000614469 0)
(0.0233662 0.0021339 0)
(0.0240933 0.00346181 0)
(0.0244071 0.00459529 0)
(0.0243468 0.0055367 0)
(0.0239542 0.0062931 0)
(0.0232723 0.00687556 0)
(0.022344 0.00729832 0)
(0.0212113 0.00757795 0)
(0.0199142 0.00773233 0)
(0.01849 0.00777978 0)
(0.0169727 0.00773802 0)
(0.0153929 0.00762315 0)
(0.0137777 0.00744868 0)
(0.0121509 0.00722446 0)
(0.0105339 0.00695568 0)
(0.00894601 0.00664195 0)
(0.00740596 0.00627661 0)
(0.00593275 0.0058465 0)
(0.00454739 0.00533238 0)
(0.00327456 0.00471035 0)
(0.0021447 0.00395463 0)
(0.00118973 0.00304185 0)
(0.000485262 0.00195659 0)
(5.53126e-05 0.000703791 0)
(3.39478e-07 -0.000172067 0)
(-1.76708e-05 -0.000289956 0)
(-8.18599e-05 -0.000247296 0)
(-0.000202386 -0.00010482 0)
(-0.000383772 9.4876e-05 0)
(-0.000626242 0.000321359 0)
(-0.000927486 0.000554641 0)
(-0.00128426 0.000783103 0)
(-0.00169346 0.00100157 0)
(-0.00215281 0.00120959 0)
(-0.00266135 0.00140992 0)
(-0.00321963 0.00160742 0)
(-0.00382989 0.00180803 0)
(-0.00449603 0.00201815 0)
(-0.00522354 0.00224414 0)
(-0.00601946 0.00249204 0)
(-0.00689223 0.00276744 0)
(-0.00785157 0.00307539 0)
(-0.00890839 0.00342043 0)
(-0.0100747 0.00380664 0)
(-0.0113634 0.0042377 0)
(-0.0127883 0.00471689 0)
(-0.0143639 0.00524719 0)
(-0.0161053 0.0058312 0)
(-0.0180278 0.00647111 0)
(-0.0201472 0.0071686 0)
(-0.0224788 0.00792469 0)
(-0.0250376 0.0087396 0)
(-0.0278376 0.00961247 0)
(-0.0308916 0.0105412 0)
(-0.0342105 0.0115222 0)
(-0.0378025 0.0125501 0)
(-0.041673 0.0136177 0)
(-0.0458237 0.0147156 0)
(-0.0502522 0.0158322 0)
(-0.0549512 0.0169539 0)
(-0.0599089 0.0180648 0)
(-0.0651077 0.0191471 0)
(-0.0705253 0.0201815 0)
(-0.0761339 0.0211473 0)
(-0.0819013 0.0220231 0)
(-0.087791 0.0227875 0)
(-0.0937629 0.0234192 0)
(-0.0997744 0.023898 0)
(-0.105781 0.0242054 0)
(-0.111738 0.0243247 0)
(-0.117599 0.0242419 0)
(-0.123321 0.0239457 0)
(-0.128859 0.0234278 0)
(-0.134173 0.0226828 0)
(-0.139224 0.0217085 0)
(-0.143974 0.0205057 0)
(-0.14839 0.0190781 0)
(-0.152439 0.0174318 0)
(-0.156092 0.0155756 0)
(-0.159322 0.0135207 0)
(-0.162103 0.0112802 0)
(-0.164414 0.00886941 0)
(-0.166232 0.00630545 0)
(-0.16754 0.00360731 0)
(-0.16832 0.000795734 0)
(-0.168557 -0.00210678 0)
(-0.168238 -0.00507604 0)
(-0.167353 -0.00808616 0)
(-0.165894 -0.0111096 0)
(-0.163856 -0.0141173 0)
(-0.161237 -0.0170787 0)
(-0.158038 -0.019962 0)
(-0.154264 -0.0227344 0)
(-0.149925 -0.0253623 0)
(-0.145036 -0.027812 0)
(-0.139616 -0.0300499 0)
(-0.133692 -0.0320435 0)
(-0.127293 -0.0337618 0)
(-0.120459 -0.0351765 0)
(-0.113233 -0.0362623 0)
(-0.105666 -0.0369984 0)
(-0.0978152 -0.0373692 0)
(-0.0897426 -0.0373649 0)
(-0.0815156 -0.0369823 0)
(-0.0732057 -0.0362256 0)
(-0.0648867 -0.0351063 0)
(-0.056634 -0.0336436 0)
(-0.0485227 -0.0318637 0)
(-0.040626 -0.0297998 0)
(-0.0330137 -0.0274907 0)
(-0.0257506 -0.0249804 0)
(-0.0188951 -0.0223162 0)
(-0.0124981 -0.0195475 0)
(-0.00660181 -0.0167247 0)
(-0.00123971 -0.0138972 0)
(0.00356435 -0.0111124 0)
(0.00779603 -0.00841416 0)
(0.0114504 -0.00584181 0)
(0.0145314 -0.00342928 0)
(0.0170517 -0.00120436 0)
(0.0190313 0.000811738 0)
(0.0204975 0.00260457 0)
(0.0214831 0.00416642 0)
(0.0220258 0.00549599 0)
(0.0221669 0.00659789 0)
(0.0219501 0.00748199 0)
(0.0214202 0.0081625 0)
(0.020622 0.008657 0)
(0.0195992 0.00898536 0)
(0.0183936 0.00916856 0)
(0.0170445 0.0092275 0)
(0.0155877 0.00918171 0)
(0.014056 0.00904804 0)
(0.0124788 0.00883938 0)
(0.0108827 0.00856335 0)
(0.00929216 0.00822111 0)
(0.00773043 0.00780642 0)
(0.00622074 0.00730517 0)
(0.00478807 0.00669548 0)
(0.00346106 0.00594875 0)
(0.00227457 0.00503184 0)
(0.0012653 0.00391038 0)
(0.0005172 0.00255316 0)
(5.90167e-05 0.000940572 0)
(-3.56812e-06 -0.000159888 0)
(-5.30694e-05 -0.000229728 0)
(-0.000170277 -0.00012519 0)
(-0.000363309 8.44802e-05 0)
(-0.000630524 0.000351519 0)
(-0.000969229 0.000642589 0)
(-0.00137456 0.000936506 0)
(-0.00184157 0.00122168 0)
(-0.00236621 0.00149382 0)
(-0.00294597 0.00175384 0)
(-0.00358019 0.00200624 0)
(-0.00427025 0.00225766 0)
(-0.00501956 0.00251591 0)
(-0.00583354 0.00278916 0)
(-0.00671944 0.00308547 0)
(-0.00768628 0.00341243 0)
(-0.00874464 0.00377707 0)
(-0.00990657 0.00418573 0)
(-0.0111854 0.00464416 0)
(-0.0125956 0.00515748 0)
(-0.0141527 0.00573029 0)
(-0.0158732 0.00636669 0)
(-0.0177741 0.00707025 0)
(-0.0198728 0.00784402 0)
(-0.0221873 0.00869033 0)
(-0.0247352 0.00961076 0)
(-0.0275335 0.0106058 0)
(-0.0305984 0.0116748 0)
(-0.0339446 0.0128154 0)
(-0.0375847 0.0140235 0)
(-0.0415284 0.015293 0)
(-0.0457823 0.0166153 0)
(-0.0503488 0.0179792 0)
(-0.0552257 0.0193711 0)
(-0.0604057 0.0207746 0)
(-0.065876 0.0221705 0)
(-0.0716182 0.0235378 0)
(-0.0776083 0.0248532 0)
(-0.0838168 0.0260921 0)
(-0.0902094 0.0272291 0)
(-0.0967476 0.0282385 0)
(-0.103389 0.0290954 0)
(-0.11009 0.029776 0)
(-0.116805 0.0302586 0)
(-0.123485 0.0305238 0)
(-0.130087 0.0305553 0)
(-0.136563 0.0303397 0)
(-0.14287 0.0298673 0)
(-0.148967 0.0291317 0)
(-0.154815 0.0281297 0)
(-0.160375 0.0268616 0)
(-0.165613 0.0253305 0)
(-0.170496 0.0235423 0)
(-0.174995 0.0215056 0)
(-0.17908 0.0192313 0)
(-0.182726 0.0167325 0)
(-0.185908 0.0140244 0)
(-0.188603 0.0111239 0)
(-0.19079 0.00805002 0)
(-0.192449 0.0048235 0)
(-0.193563 0.00146688 0)
(-0.194116 -0.00199548 0)
(-0.194092 -0.00553742 0)
(-0.19348 -0.00913088 0)
(-0.192268 -0.012746 0)
(-0.190448 -0.0163509 0)
(-0.188013 -0.0199121 0)
(-0.184961 -0.0233944 0)
(-0.181291 -0.026761 0)
(-0.177008 -0.0299741 0)
(-0.172119 -0.0329948 0)
(-0.166638 -0.0357843 0)
(-0.160585 -0.0383039 0)
(-0.153983 -0.0405164 0)
(-0.146865 -0.0423864 0)
(-0.139271 -0.043882 0)
(-0.131248 -0.0449754 0)
(-0.122849 -0.0456442 0)
(-0.114137 -0.0458723 0)
(-0.10518 -0.0456514 0)
(-0.0960532 -0.0449812 0)
(-0.086836 -0.0438703 0)
(-0.077611 -0.0423363 0)
(-0.0684624 -0.040406 0)
(-0.0594743 -0.0381144 0)
(-0.0507281 -0.0355045 0)
(-0.042301 -0.0326255 0)
(-0.0342642 -0.0295318 0)
(-0.0266808 -0.0262813 0)
(-0.0196051 -0.0229332 0)
(-0.0130815 -0.0195469 0)
(-0.00714352 -0.0161796 0)
(-0.00181446 -0.0128853 0)
(0.00289315 -0.00971301 0)
(0.00697689 -0.00670592 0)
(0.0104438 -0.00390038 0)
(0.0133097 -0.0013254 0)
(0.0155981 0.00099777 0)
(0.0173394 0.0030556 0)
(0.0185696 0.00484212 0)
(0.0193293 0.0063585 0)
(0.0196624 0.00761229 0)
(0.0196148 0.00861666 0)
(0.0192335 0.00938925 0)
(0.0185653 0.00995103 0)
(0.0176557 0.010325 0)
(0.0165485 0.0105346 0)
(0.0152843 0.0106026 0)
(0.0139013 0.0105489 0)
(0.0124342 0.0103896 0)
(0.0109148 0.0101349 0)
(0.0093728 0.00978782 0)
(0.00783619 0.00934289 0)
(0.00633279 0.00878532 0)
(0.00489195 0.00809076 0)
(0.00354657 0.0072258 0)
(0.00233593 0.00614947 0)
(0.00130116 0.00481571 0)
(0.000532016 0.00317675 0)
(6.06359e-05 0.00118832 0)
(-7.93224e-06 -0.000130397 0)
(-9.24365e-05 -0.00012419 0)
(-0.000268363 6.39382e-05 0)
(-0.000541384 0.000357332 0)
(-0.00090284 0.000704069 0)
(-0.00134667 0.00106889 0)
(-0.00186516 0.00143038 0)
(-0.00245149 0.00177785 0)
(-0.00310065 0.00210865 0)
(-0.00380994 0.00242578 0)
(-0.00457917 0.00273599 0)
(-0.00541072 0.0030482 0)
(-0.00630943 0.00337243 0)
(-0.00728248 0.00371895 0)
(-0.00833921 0.00409772 0)
(-0.0094909 0.00451812 0)
(-0.0107506 0.00498875 0)
(-0.0121329 0.0055174 0)
(-0.013654 0.00611109 0)
(-0.0153309 0.00677607 0)
(-0.0171822 0.00751789 0)
(-0.0192268 0.0083414 0)
(-0.0214846 0.00925071 0)
(-0.0239755 0.0102491 0)
(-0.0267195 0.0113388 0)