/*--------------------------------*- C++ -*----------------------------------*\
| =========                 |                                                 |
| \\      /  F ield         | OpenFOAM: The Open Source CFD Toolbox           |
|  \\    /   O peration     | Version:  2406                                  |
|   \\  /    A nd           | Website:  www.openfoam.com                      |
|    \\/     M anipulation  |                                                 |
\*---------------------------------------------------------------------------*/
FoamFile
{
    version     2.0;
    format      ascii;
    arch        "LSB;label=32;scalar=64";
    class       surfaceScalarField;
    location    "1";
    object      phi;
}
// * * * * * * * * * * * * * * * * * * * * * * * * * * * * * * * * * * * * * //

dimensions      [0 3 -1 0 0 0 0];

oriented        oriented;

internalField   nonuniform List<scalar> 
7080
(
-3.95634e-08
3.95567e-08
-1.90785e-07
1.5396e-07
-3.94325e-07
2.03228e-07
-6.11884e-07
2.20139e-07
-8.32091e-07
2.20504e-07
-1.04927e-06
2.19389e-07
-1.26462e-06
2.15992e-07
-1.47601e-06
2.13278e-07
-1.68452e-06
2.09373e-07
-1.8885e-06
2.05616e-07
-2.08846e-06
2.00922e-07
-2.2831e-06
1.96094e-07
-2.4726e-06
1.90502e-07
-2.65595e-06
1.84635e-07
-2.83308e-06
1.78117e-07
-3.00319e-06
1.7125e-07
-3.16606e-06
1.63806e-07
-3.32102e-06
1.55976e-07
-3.46779e-06
1.47624e-07
-3.60578e-06
1.3887e-07
-3.73466e-06
1.29637e-07
-3.85391e-06
1.20003e-07
-3.9632e-06
1.09927e-07
-4.06205e-06
9.94627e-08
-4.15013e-06
8.85926e-08
-4.22703e-06
7.73576e-08
-4.29241e-06
6.57553e-08
-4.34593e-06
5.38209e-08
-4.38727e-06
4.15628e-08
-4.41613e-06
2.90155e-08
-4.43227e-06
1.6195e-08
-4.43542e-06
3.13901e-09
-4.42539e-06
-1.01308e-08
-4.40199e-06
-2.35705e-08
-4.36511e-06
-3.71551e-08
-4.31461e-06
-5.08306e-08
-4.25048e-06
-6.45721e-08
-4.17267e-06
-7.83111e-08
-4.08125e-06
-9.2028e-08
-3.97627e-06
-1.05633e-07
-3.85793e-06
-1.19121e-07
-3.72635e-06
-1.32372e-07
-3.5819e-06
-1.45408e-07
-3.42474e-06
-1.58061e-07
-3.25547e-06
-1.7041e-07
-3.07426e-06
-1.82207e-07
-2.88196e-06
-1.93627e-07
-2.6787e-06
-2.043e-07
-2.46568e-06
-2.14562e-07
-2.24287e-06
-2.23838e-07
-2.01191e-06
-2.32748e-07
-1.77247e-06
-2.40373e-07
-1.52672e-06
-2.4784e-07
-1.2738e-06
-2.53631e-07
-1.01653e-06
-2.59739e-07
-7.54038e-07
-2.6281e-07
-4.93312e-07
-2.63629e-07
-2.47293e-07
-2.45642e-07
-5.94518e-08
-1.91064e-07
-5.94498e-08
-1.55265e-07
1.92092e-07
-4.93461e-07
4.92186e-07
-9.16592e-07
6.22212e-07
-1.36385e-06
6.66318e-07
-1.81828e-06
6.71166e-07
-2.26835e-06
6.67792e-07
-2.71468e-06
6.58969e-07
-3.15307e-06
6.49709e-07
-3.58459e-06
6.37883e-07
-4.00635e-06
6.25287e-07
-4.41872e-06
6.10575e-07
-4.81948e-06
5.94766e-07
-5.20853e-06
5.77095e-07
-5.5841e-06
5.58178e-07
-5.94578e-06
5.37577e-07
-6.2921e-06
5.15677e-07
-6.6225e-06
4.92226e-07
-6.93573e-06
4.67475e-07
-7.23113e-06
4.41288e-07
-7.50762e-06
4.13833e-07
-7.76451e-06
3.85048e-07
-8.00086e-06
3.55055e-07
-8.21599e-06
3.23836e-07
-8.40907e-06
2.91489e-07
-8.57944e-06
2.58028e-07
-8.72641e-06
2.2354e-07
-8.84938e-06
1.88062e-07
-8.94774e-06
1.51677e-07
-9.02098e-06
1.14442e-07
-9.06862e-06
7.64441e-08
-9.09026e-06
3.77553e-08
-9.0855e-06
-1.52563e-09
-9.05409e-06
-4.13144e-08
-8.99577e-06
-8.14971e-08
-8.91042e-06
-1.21978e-07
-8.79792e-06
-1.62623e-07
-8.65834e-06
-2.03329e-07
-8.4917e-06
-2.43937e-07
-8.29826e-06
-2.84342e-07
-8.07822e-06
-3.24353e-07
-7.83207e-06
-3.63875e-07
-7.56014e-06
-4.02671e-07
-7.26321e-06
-4.40677e-07
-6.94174e-06
-4.77594e-07
-6.59685e-06
-5.13419e-07
-6.22905e-06
-5.47757e-07
-5.83989e-06
-5.80723e-07
-5.42986e-06
-6.11769e-07
-5.00101e-06
-6.41216e-07
-4.55369e-06
-6.68264e-07
-4.09062e-06
-6.93602e-07
-3.61173e-06
-7.15987e-07
-3.12068e-06
-7.36773e-07
-2.61676e-06
-7.53845e-07
-2.10524e-06
-7.69427e-07
-1.58606e-06
-7.77788e-07
-1.07278e-06
-7.75738e-07
-5.84563e-07
-7.29197e-07
-1.89317e-07
-5.86363e-07
-2.45574e-07
-2.07249e-07
3.99606e-07
-6.30614e-07
9.19714e-07
-1.15127e-06
1.14281e-06
-1.69678e-06
1.21556e-06
-2.25009e-06
1.22543e-06
-2.79758e-06
1.21852e-06
-3.34028e-06
1.20311e-06
-3.87312e-06
1.1854e-06
-4.39724e-06
1.16369e-06
-4.90924e-06
1.13983e-06
-5.40943e-06
1.11254e-06
-5.8952e-06
1.08284e-06
-6.36631e-06
1.04999e-06
-6.8207e-06
1.01465e-06
-7.25779e-06
9.76392e-07
-7.67588e-06
9.35642e-07
-8.07422e-06
8.92183e-07
-8.45137e-06
8.46296e-07
-8.80651e-06
7.97887e-07
-9.13837e-06
7.47161e-07
-9.44613e-06
6.94098e-07
-9.72869e-06
6.38861e-07
-9.98524e-06
5.81481e-07
-1.02148e-05
5.22101e-07
-1.04167e-05
4.60788e-07
-1.05901e-05
3.97679e-07
-1.07343e-05
3.32868e-07
-1.08486e-05
2.66496e-07
-1.09325e-05
1.98683e-07
-1.09853e-05
1.29583e-07
-1.10068e-05
5.93351e-08
-1.09965e-05
-1.18868e-08
-1.0954e-05
-8.392e-08
-1.08793e-05
-1.56569e-07
-1.0772e-05
-2.29648e-07
-1.06323e-05
-3.02934e-07
-1.04602e-05
-3.76224e-07
-1.02557e-05
-4.49259e-07
-1.00192e-05
-5.21824e-07
-9.75106e-06
-5.93619e-07
-9.45181e-06
-6.64431e-07
-9.12192e-06
-7.33907e-07
-8.76232e-06
-8.01856e-07
-8.37362e-06
-8.67856e-07
-7.95713e-06
-9.31775e-07
-7.51354e-06
-9.93092e-07
-7.04462e-06
-1.05179e-06
-6.55105e-06
-1.1072e-06
-6.03519e-06
-1.15952e-06
-5.49754e-06
-1.20782e-06
-4.94123e-06
-1.25269e-06
-4.3663e-06
-1.29276e-06
-3.77696e-06
-1.32928e-06
-3.17245e-06
-1.35996e-06
-2.559e-06
-1.38653e-06
-1.9361e-06
-1.40177e-06
-1.31957e-06
-1.39649e-06
-7.28737e-07
-1.31999e-06
-2.43847e-07
-1.07597e-06
-4.89756e-07
-2.26998e-07
6.24012e-07
-6.83238e-07
1.37715e-06
-1.23925e-06
1.69507e-06
-1.81928e-06
1.79567e-06
-2.40699e-06
1.81006e-06
-2.9883e-06
1.79918e-06
-3.56464e-06
1.77686e-06
-4.13048e-06
1.7502e-06
-4.68707e-06
1.71805e-06
-5.23068e-06
1.68222e-06
-5.76165e-06
1.64155e-06
-6.27719e-06
1.59707e-06
-6.77703e-06
1.5481e-06
-7.25897e-06
1.49529e-06
-7.72241e-06
1.43829e-06
-8.16554e-06
1.37754e-06
-8.58757e-06
1.31286e-06
-8.98697e-06
1.24457e-06
-9.36288e-06
1.17262e-06
-9.71399e-06
1.09726e-06
-1.00394e-05
1.01851e-06
-1.0338e-05
9.36589e-07
-1.06089e-05
8.5157e-07
-1.08511e-05
7.6365e-07
-1.10639e-05
6.72948e-07
-1.12464e-05
5.79658e-07
-1.13979e-05
4.83934e-07
-1.15177e-05
3.85978e-07
-1.16053e-05
2.85976e-07
-1.166e-05
1.8415e-07
-1.16814e-05
8.07136e-08
-1.16691e-05
-2.40832e-08
-1.16229e-05
-1.29996e-07
-1.15424e-05
-2.36743e-07
-1.14277e-05
-3.4405e-07
-1.12785e-05
-4.51594e-07
-1.10951e-05
-5.59074e-07
-1.08776e-05
-6.66123e-07
-1.06262e-05
-7.72418e-07
-1.03414e-05
-8.7754e-07
-1.00237e-05
-9.81158e-07
-9.67372e-06
-1.08279e-06
-9.29235e-06
-1.18213e-06
-8.88025e-06
-1.27861e-06
-8.43881e-06
-1.37198e-06
-7.96876e-06
-1.46157e-06
-7.47198e-06
-1.54724e-06
-6.94918e-06
-1.62819e-06
-6.40285e-06
-1.70447e-06
-5.83353e-06
-1.77505e-06
-5.24454e-06
-1.84037e-06
-4.63591e-06
-1.89895e-06
-4.01218e-06
-1.95189e-06
-3.37251e-06
-1.99677e-06
-2.72359e-06
-2.03474e-06
-2.06456e-06
-2.05737e-06
-1.41171e-06
-2.04943e-06
-7.83697e-07
-1.94377e-06
-2.64345e-07
-1.59666e-06
-7.51202e-07
-2.30836e-07
8.54466e-07
-6.99019e-07
1.8492e-06
-1.26927e-06
2.2642e-06
-1.86344e-06
2.39296e-06
-2.46501e-06
2.41155e-06
-3.05963e-06
2.3963e-06
-3.64906e-06
2.36678e-06
-4.22762e-06
2.33084e-06
-4.79671e-06
2.28794e-06
-5.35248e-06
2.23977e-06
-5.89532e-06
2.18535e-06
-6.42235e-06
2.12565e-06
-6.93334e-06
2.0601e-06
-7.426e-06
1.98933e-06
-7.89975e-06
1.91306e-06
-8.35273e-06
1.83173e-06
-8.78414e-06
1.74524e-06
-9.19243e-06
1.65393e-06
-9.57671e-06
1.55779e-06
-9.93565e-06
1.45713e-06
-1.02684e-05
1.352e-06
-1.05737e-05
1.24268e-06
-1.08507e-05
1.12928e-06
-1.10985e-05
1.01206e-06
-1.13162e-05
8.91188e-07
-1.1503e-05
7.66918e-07
-1.16581e-05
6.39464e-07
-1.17809e-05
5.0909e-07
-1.18708e-05
3.76048e-07
-1.19271e-05
2.40629e-07
-1.19495e-05
1.03122e-07
-1.19374e-05
-3.61471e-08
-1.18907e-05
-1.76851e-07
-1.1809e-05
-3.18619e-07
-1.16923e-05
-4.61087e-07
-1.15404e-05
-6.03834e-07
-1.13535e-05
-7.46457e-07
-1.11316e-05
-8.8848e-07
-1.08753e-05
-1.02947e-06
-1.05846e-05
-1.16888e-06
-1.02603e-05
-1.30627e-06
-9.90289e-06
-1.44102e-06
-9.51334e-06
-1.57269e-06
-9.09228e-06
-1.70059e-06
-8.64113e-06
-1.82432e-06
-8.16062e-06
-1.94308e-06
-7.65267e-06
-2.05659e-06
-7.11799e-06
-2.1639e-06
-6.55915e-06
-2.26494e-06
-5.97664e-06
-2.35854e-06
-5.37393e-06
-2.445e-06
-4.75097e-06
-2.52275e-06
-4.11246e-06
-2.59267e-06
-3.45742e-06
-2.65232e-06
-2.79275e-06
-2.70219e-06
-2.11723e-06
-2.73277e-06
-1.44755e-06
-2.7226e-06
-8.02668e-07
-2.58738e-06
-2.69189e-07
-2.13449e-06
-1.01997e-06
-2.33797e-07
1.08599e-06
-7.08898e-07
2.32619e-06
-1.28715e-06
2.83909e-06
-1.88953e-06
2.9962e-06
-2.49916e-06
3.01864e-06
-3.10166e-06
2.9989e-06
-3.69891e-06
2.96203e-06
-4.28515e-06
2.91674e-06
-4.86186e-06
2.86301e-06
-5.42508e-06
2.80242e-06
-5.97527e-06
2.73417e-06
-6.50946e-06
2.65916e-06
-7.02745e-06
2.57691e-06
-7.5269e-06
2.48806e-06
-8.00724e-06
2.39239e-06
-8.46659e-06
2.29036e-06
-8.90414e-06
2.18191e-06
-9.31831e-06
2.06743e-06
-9.70823e-06
1.94696e-06
-1.00725e-05
1.82083e-06
-1.04103e-05
1.68917e-06
-1.07204e-05
1.55227e-06
-1.1002e-05
1.41031e-06
-1.12539e-05
1.26361e-06
-1.14755e-05
1.11237e-06
-1.16658e-05
9.56919e-07
-1.18242e-05
7.97519e-07
-1.19498e-05
6.345e-07
-1.2042e-05
4.68177e-07
-1.21004e-05
2.98911e-07
-1.21244e-05
1.27062e-07
-1.21135e-05
-4.6967e-08
-1.20675e-05
-2.22767e-07
-1.1986e-05
-3.99883e-07
-1.1869e-05
-5.77858e-07
-1.17164e-05
-7.56174e-07
-1.15282e-05
-9.34327e-07
-1.13045e-05
-1.11173e-06
-1.10456e-05
-1.28784e-06
-1.07519e-05
-1.46199e-06
-1.0424e-05
-1.63362e-06
-1.00623e-05
-1.80197e-06
-9.66788e-06
-1.96647e-06
-9.24129e-06
-2.12629e-06
-8.78399e-06
-2.28089e-06
-8.29667e-06
-2.42934e-06
-7.78131e-06
-2.57119e-06
-7.23859e-06
-2.70537e-06
-6.67115e-06
-2.83165e-06
-6.07946e-06
-2.94874e-06
-5.46708e-06
-3.05677e-06
-4.83394e-06
-3.15409e-06
-4.18487e-06
-3.24138e-06
-3.51883e-06
-3.31613e-06
-2.84286e-06
-3.37829e-06
-2.15566e-06
-3.41712e-06
-1.47407e-06
-3.40518e-06
-8.17545e-07
-3.24011e-06
-2.73981e-07
-2.6802e-06
-1.2914e-06
-2.35581e-07
1.32078e-06
-7.1675e-07
2.81096e-06
-1.30284e-06
3.42348e-06
-1.91359e-06
3.60969e-06
-2.53161e-06
3.63597e-06
-3.14234e-06
3.61169e-06
-3.7477e-06
3.5673e-06
-4.34186e-06
3.51252e-06
-4.92637e-06
3.44777e-06
-5.49723e-06
3.3746e-06
-6.05493e-06
3.29231e-06
-6.59645e-06
3.20178e-06
-7.12161e-06
3.10261e-06
-7.62806e-06
2.99545e-06
-8.11522e-06
2.88012e-06
-8.58117e-06
2.75712e-06
-9.02512e-06
2.62644e-06
-9.44548e-06
2.48849e-06
-9.84136e-06
2.34338e-06
-1.02114e-05
2.19146e-06
-1.05546e-05
2.03291e-06
-1.087e-05
1.86807e-06
-1.11564e-05
1.69719e-06
-1.1413e-05
1.52061e-06
-1.1639e-05
1.33861e-06
-1.18333e-05
1.15155e-06
-1.19953e-05
9.59762e-07
-1.21243e-05
7.63635e-07
-1.22195e-05
5.63547e-07
-1.22804e-05
3.59927e-07
-1.23066e-05
1.53205e-07
-1.22974e-05
-5.614e-08
-1.22527e-05
-2.67619e-07
-1.2172e-05
-4.80693e-07
-1.20552e-05
-6.94811e-07
-1.19023e-05
-9.09362e-07
-1.17132e-05
-1.12374e-06
-1.1488e-05
-1.33724e-06
-1.1227e-05
-1.54922e-06
-1.09305e-05
-1.75888e-06
-1.05991e-05
-1.96553e-06
-1.02333e-05
-2.16828e-06
-9.83399e-06
-2.36644e-06
-9.40179e-06
-2.55901e-06
-8.93816e-06
-2.74532e-06
-8.44377e-06
-2.92427e-06
-7.92061e-06
-3.09529e-06
-7.36936e-06
-3.25713e-06
-6.79272e-06
-3.40944e-06
-6.19113e-06
-3.55074e-06
-5.56823e-06
-3.68106e-06
-4.92392e-06
-3.7986e-06
-4.26318e-06
-3.90389e-06
-3.58486e-06
-3.99427e-06
-2.8962e-06
-4.06924e-06
-2.19586e-06
-4.11662e-06
-1.50106e-06
-4.10305e-06
-8.31915e-07
-3.90728e-06
-2.78135e-07
-3.23803e-06
-1.56861e-06
-2.38996e-07
1.55774e-06
-7.27274e-07
3.30157e-06
-1.32207e-06
4.01516e-06
-1.94201e-06
4.23097e-06
-2.5693e-06
4.26104e-06
-3.18921e-06
4.23218e-06
-3.80368e-06
4.18013e-06
-4.40681e-06
4.11577e-06
-5.00021e-06
4.03989e-06
-5.57978e-06
3.95403e-06
-6.14606e-06
3.85758e-06
-6.69598e-06
3.75141e-06
-7.22937e-06
3.63518e-06
-7.74384e-06
3.50956e-06
-8.23882e-06
3.37441e-06
-8.71236e-06
3.23028e-06
-9.16369e-06
3.07719e-06
-9.59116e-06
2.91559e-06
-9.99391e-06
2.74563e-06
-1.03705e-05
2.56773e-06
-1.07201e-05
2.38208e-06
-1.10414e-05
2.1891e-06
-1.13336e-05
1.98907e-06
-1.15957e-05
1.78237e-06
-1.18266e-05
1.56934e-06
-1.20257e-05
1.35041e-06
-1.21921e-05
1.12595e-06
-1.23249e-05
8.96404e-07
-1.24237e-05
6.62223e-07
-1.24877e-05
4.23895e-07
-1.25165e-05
1.81921e-07
-1.25094e-05
-6.31466e-08
-1.24662e-05
-3.10743e-07
-1.23866e-05
-5.60242e-07
-1.22702e-05
-8.11007e-07
-1.21171e-05
-1.06233e-06
-1.19271e-05
-1.3135e-06
-1.17003e-05
-1.56372e-06
-1.14371e-05
-1.8122e-06
-1.11375e-05
-2.05804e-06
-1.08023e-05
-2.30042e-06
-1.04317e-05
-2.53832e-06
-1.00269e-05
-2.77088e-06
-9.5883e-06
-2.99697e-06
-9.11742e-06
-3.21578e-06
-8.61491e-06
-3.42603e-06
-8.08278e-06
-3.62701e-06
-7.5217e-06
-3.8173e-06
-6.93441e-06
-3.9964e-06
-6.32137e-06
-4.16266e-06
-5.68629e-06
-4.31598e-06
-5.02909e-06
-4.45438e-06
-4.35484e-06
-4.57829e-06
-3.66242e-06
-4.68483e-06
-2.95921e-06
-4.77313e-06
-2.24391e-06
-4.8294e-06
-1.53408e-06
-4.81444e-06
-8.50465e-07
-4.58734e-06
-2.84527e-07
-3.80665e-06
-1.85084e-06
-2.42399e-07
1.79906e-06
-7.38826e-07
3.80144e-06
-1.34387e-06
4.61812e-06
-1.97463e-06
4.86427e-06
-2.61291e-06
4.89824e-06
-3.24369e-06
4.86478e-06
-3.86895e-06
4.80492e-06
-4.48268e-06
4.73085e-06
-5.08653e-06
4.64364e-06
-5.67635e-06
4.5449e-06
-6.2527e-06
4.43405e-06
-6.81246e-06
4.312e-06
-7.35549e-06
4.17845e-06
-7.87935e-06
4.03409e-06
-8.38348e-06
3.87884e-06
-8.8659e-06
3.71327e-06
-9.32584e-06
3.53744e-06
-9.76164e-06
3.35187e-06
-1.01724e-05
3.15672e-06
-1.05567e-05
2.95245e-06
-1.09137e-05
2.73934e-06
-1.12421e-05
2.51781e-06
-1.1541e-05
2.2882e-06
-1.18094e-05
2.05095e-06
-1.20463e-05
1.80645e-06
-1.22509e-05
1.55516e-06
-1.24223e-05
1.29753e-06
-1.25599e-05
1.03404e-06
-1.26628e-05
7.65217e-07
-1.27305e-05
4.916e-07
-1.27623e-05
2.13759e-07
-1.27578e-05
-6.76817e-08
-1.27165e-05
-3.52081e-07
-1.26381e-05
-6.38731e-07
-1.25223e-05
-9.26908e-07
-1.2369e-05
-1.21581e-06
-1.21781e-05
-1.50462e-06
-1.19495e-05
-1.79243e-06
-1.16837e-05
-2.07835e-06
-1.13806e-05
-2.36135e-06
-1.10409e-05
-2.64045e-06
-1.06649e-05
-2.91452e-06
-1.02537e-05
-3.18255e-06
-9.80768e-06
-3.44324e-06
-9.32835e-06
-3.69563e-06
-8.81636e-06
-3.93828e-06
-8.27373e-06
-4.1703e-06
-7.70112e-06
-4.3901e-06
-7.10133e-06
-4.59702e-06
-6.47481e-06
-4.78924e-06
-5.82538e-06
-4.9665e-06
-5.15293e-06
-5.12664e-06
-4.46269e-06
-5.26999e-06
-3.75352e-06
-5.39339e-06
-3.03302e-06
-5.49565e-06
-2.29993e-06
-5.56119e-06
-1.57231e-06
-5.54492e-06
-8.71554e-07
-5.28564e-06
-2.91442e-07
-4.39068e-06
-2.141e-06
-2.46969e-07
2.04413e-06
-7.52881e-07
4.31002e-06
-1.3696e-06
5.23185e-06
-2.01262e-06
5.50896e-06
-2.66332e-06
5.5469e-06
-3.30641e-06
5.50877e-06
-3.94389e-06
5.44096e-06
-4.56966e-06
5.35704e-06
-5.1854e-06
5.25833e-06
-5.7869e-06
5.14653e-06
-6.37473e-06
5.02108e-06
-6.94573e-06
4.88296e-06
-7.49975e-06
4.73186e-06
-8.03432e-06
4.56853e-06
-8.54888e-06
4.39291e-06
-9.04144e-06
4.20564e-06
-9.5112e-06
4.0068e-06
-9.95649e-06
3.79696e-06
-1.03764e-05
3.57632e-06
-1.07695e-05
3.34539e-06
-1.1135e-05
3.10447e-06
-1.14714e-05
2.85406e-06
-1.17779e-05
2.59453e-06
-1.20535e-05
2.32636e-06
-1.22972e-05
2.05e-06
-1.25081e-05
1.76595e-06
-1.26854e-05
1.47471e-06
-1.28283e-05
1.17683e-06
-1.2936e-05
8.72867e-07
-1.30079e-05
5.63442e-07
-1.30433e-05
2.49179e-07
-1.30418e-05
-6.92271e-08
-1.30028e-05
-3.91064e-07
-1.29259e-05
-7.15544e-07
-1.28108e-05
-1.04186e-06
-1.26574e-05
-1.36911e-06
-1.24655e-05
-1.69639e-06
-1.2235e-05
-2.02267e-06
-1.19662e-05
-2.34695e-06
-1.16592e-05
-2.66806e-06
-1.13146e-05
-2.98492e-06
-1.09325e-05
-3.29621e-06
-1.05141e-05
-3.60079e-06
-1.00596e-05
-3.89721e-06
-9.57073e-06
-4.18432e-06
-9.04795e-06
-4.46051e-06
-8.49336e-06
-4.72473e-06
-7.90759e-06
-4.97517e-06
-7.29352e-06
-5.21104e-06
-6.65158e-06
-5.43028e-06
-5.98571e-06
-5.63252e-06
-5.29581e-06
-5.81535e-06
-4.58726e-06
-5.97902e-06
-3.85895e-06
-6.12006e-06
-3.11868e-06
-6.23697e-06
-2.36526e-06
-6.31226e-06
-1.61726e-06
-6.29488e-06
-8.96791e-07
-6.00265e-06
-3.00153e-07
-4.99043e-06
-2.43898e-06
-2.51768e-07
2.29459e-06
-7.68388e-07
4.83005e-06
-1.39841e-06
5.85951e-06
-2.0554e-06
6.16839e-06
-2.72025e-06
6.21041e-06
-3.37737e-06
6.16757e-06
-4.02878e-06
6.09166e-06
-4.66825e-06
5.99771e-06
-5.29752e-06
5.88727e-06
-5.91228e-06
5.76217e-06
-6.51314e-06
5.62185e-06
-7.09687e-06
5.46735e-06
-7.66334e-06
5.29838e-06
-8.21004e-06
5.11574e-06
-8.73642e-06
4.91942e-06
-9.24043e-06
4.71007e-06
-9.72131e-06
4.48783e-06
-1.01773e-05
4.25331e-06
-1.06076e-05
4.00676e-06
-1.10107e-05
3.74873e-06
-1.13856e-05
3.47957e-06
-1.17312e-05
3.1998e-06
-1.20464e-05
2.90986e-06
-1.23302e-05
2.61027e-06
-1.25816e-05
2.30151e-06
-1.27997e-05
1.98415e-06
-1.29836e-05
1.65872e-06
-1.31326e-05
1.32583e-06
-1.32458e-05
9.86088e-07
-1.33225e-05
6.4017e-07
-1.33621e-05
2.8876e-07
-1.33639e-05
-6.73826e-08
-1.33276e-05
-4.27475e-07
-1.32525e-05
-7.90656e-07
-1.31384e-05
-1.15603e-06
-1.2985e-05
-1.52262e-06
-1.27921e-05
-1.8894e-06
-1.25596e-05
-2.25525e-06
-1.22877e-05
-2.61903e-06
-1.19764e-05
-2.97947e-06
-1.16262e-05
-3.33533e-06
-1.12374e-05
-3.68516e-06
-1.08108e-05
-4.02764e-06
-1.0347e-05
-4.36115e-06
-9.84729e-06
-4.68439e-06
-9.31233e-06
-4.99553e-06
-8.7442e-06
-5.29336e-06
-8.14351e-06
-5.57584e-06
-7.5132e-06
-5.84202e-06
-6.8537e-06
-6.08959e-06
-6.16908e-06
-6.31807e-06
-5.45924e-06
-6.52475e-06
-4.72974e-06
-6.70983e-06
-3.97946e-06
-6.86943e-06
-3.21652e-06
-7.00181e-06
-2.43975e-06
-7.0874e-06
-1.66837e-06
-7.06906e-06
-9.25255e-07
-6.74293e-06
-3.09738e-07
-5.60988e-06
-2.74716e-06
-2.57488e-07
2.55024e-06
-7.86151e-07
5.36166e-06
-1.43102e-06
6.5014e-06
-2.10355e-06
6.84283e-06
-2.78415e-06
6.88904e-06
-3.45686e-06
6.8414e-06
-4.12376e-06
6.75722e-06
-4.77848e-06
6.65305e-06
-5.4228e-06
6.53065e-06
-6.05233e-06
6.39201e-06
-6.66769e-06
6.23655e-06
-7.2656e-06
6.06538e-06
-7.84594e-06
5.87823e-06
-8.40615e-06
5.67596e-06
-8.94568e-06
5.45857e-06
-9.46245e-06
5.22679e-06
-9.95569e-06
4.98078e-06
-1.04237e-05
4.7212e-06
-1.08655e-05
4.44833e-06
-1.12796e-05
4.16279e-06
-1.16652e-05
3.86494e-06
-1.20209e-05
3.55539e-06
-1.23458e-05
3.23457e-06
-1.26387e-05
2.90307e-06
-1.28987e-05
2.56142e-06
-1.31249e-05
2.21021e-06
-1.33163e-05
1.85004e-06
-1.34721e-05
1.48156e-06
-1.35914e-05
1.10541e-06
-1.36736e-05
7.22338e-07
-1.3718e-05
3.33073e-07
-1.37238e-05
-6.15645e-08
-1.36905e-05
-4.60726e-07
-1.36176e-05
-8.63476e-07
-1.35048e-05
-1.26885e-06
-1.33515e-05
-1.67576e-06
-1.31577e-05
-2.08311e-06
-1.29231e-05
-2.48965e-06
-1.26479e-05
-2.89415e-06
-1.2332e-05
-3.29519e-06
-1.19758e-05
-3.69138e-06
-1.15796e-05
-4.08113e-06
-1.11442e-05
-4.46296e-06
-1.06699e-05
-4.83506e-06
-1.01583e-05
-5.19594e-06
-9.60983e-06
-5.54357e-06
-9.02664e-06
-5.87655e-06
-8.40931e-06
-6.19261e-06
-7.76086e-06
-6.49061e-06
-7.08173e-06
-6.76797e-06
-6.37608e-06
-7.02408e-06
-5.64386e-06
-7.25591e-06
-4.89082e-06
-7.46361e-06
-4.11587e-06
-7.64283e-06
-3.32742e-06
-7.7916e-06
-2.52436e-06
-7.88817e-06
-1.7266e-06
-7.86911e-06
-9.57928e-07
-7.5081e-06
-3.20975e-07
-6.25034e-06
-3.06599e-06
-2.63599e-07
2.81236e-06
-8.05606e-07
5.90714e-06
-1.46699e-06
7.16018e-06
-2.15679e-06
7.53509e-06
-2.85491e-06
7.58563e-06
-3.54496e-06
7.53308e-06
-4.22907e-06
7.44045e-06
-4.90073e-06
7.32583e-06
-5.56175e-06
7.1912e-06
-6.20766e-06
7.03871e-06
-6.8391e-06
6.86777e-06
-7.45272e-06
6.67957e-06
-8.04842e-06
6.47385e-06
-8.62357e-06
6.25154e-06
-9.17765e-06
6.01265e-06
-9.70854e-06
5.75799e-06
-1.02155e-05
5.48775e-06
-1.06966e-05
5.20262e-06
-1.11512e-05
4.90295e-06
-1.15776e-05
4.58938e-06
-1.1975e-05
4.26233e-06
-1.23419e-05
3.92244e-06
-1.26775e-05
3.57019e-06
-1.29805e-05
3.20621e-06
-1.32501e-05
2.83105e-06
-1.34852e-05
2.44538e-06
-1.3685e-05
2.0498e-06
-1.38484e-05
1.64502e-06
-1.39747e-05
1.23174e-06
-1.40631e-05
8.10725e-07
-1.41128e-05
3.82771e-07
-1.41231e-05
-5.12495e-08
-1.40935e-05
-4.90429e-07
-1.40232e-05
-9.33765e-07
-1.39119e-05
-1.38021e-06
-1.37591e-05
-1.82861e-06
-1.35645e-05
-2.27776e-06
-1.33278e-05
-2.72632e-06
-1.30492e-05
-3.17293e-06
-1.27284e-05
-3.61603e-06
-1.23658e-05
-4.05411e-06
-1.19616e-05
-4.48539e-06
-1.15165e-05
-4.90825e-06
-1.10309e-05
-5.32066e-06
-1.05062e-05
-5.72096e-06
-9.94285e-06
-6.10687e-06
-9.34301e-06
-6.47682e-06
-8.70724e-06
-6.82823e-06
-8.03862e-06
-7.15982e-06
-7.33759e-06
-7.46868e-06
-6.60847e-06
-7.75405e-06
-5.85119e-06
-8.01255e-06
-5.07177e-06
-8.24428e-06
-4.26911e-06
-8.44437e-06
-3.45199e-06
-8.61059e-06
-2.61934e-06
-8.71891e-06
-1.79192e-06
-8.69938e-06
-9.94445e-07
-8.30238e-06
-3.33395e-07
-6.91546e-06
-3.39757e-06
-2.70525e-07
3.08102e-06
-8.27239e-07
6.46706e-06
-1.50676e-06
7.83665e-06
-2.21554e-06
8.24599e-06
-2.93287e-06
8.30098e-06
-3.64193e-06
8.24343e-06
-4.34492e-06
8.14212e-06
-5.03514e-06
8.01681e-06
-5.71447e-06
7.86965e-06
-6.37833e-06
7.703e-06
-7.0274e-06
7.51622e-06
-7.65823e-06
7.31062e-06
-8.27075e-06
7.08593e-06
-8.86227e-06
6.84316e-06
-9.43228e-06
6.58235e-06
-9.97862e-06
6.30435e-06
-1.05005e-05
6.00939e-06
-1.09962e-05
5.69825e-06
-1.14647e-05
5.37127e-06
-1.19045e-05
5.02917e-06
-1.23147e-05
4.67239e-06
-1.2694e-05
4.30162e-06
-1.30413e-05
3.91738e-06
-1.33555e-05
3.52034e-06
-1.36356e-05
3.11109e-06
-1.38806e-05
2.69032e-06
-1.40896e-05
2.25868e-06
-1.42615e-05
1.81692e-06
-1.43956e-05
1.36576e-06
-1.44909e-05
9.06023e-07
-1.45467e-05
4.38543e-07
-1.45621e-05
-3.57584e-08
-1.45366e-05
-5.15922e-07
-1.44695e-05
-1.00088e-06
-1.43601e-05
-1.48953e-06
-1.4208e-05
-1.98062e-06
-1.40129e-05
-2.47287e-06
-1.37743e-05
-2.96482e-06
-1.34921e-05
-3.45501e-06
-1.31663e-05
-3.94174e-06
-1.2797e-05
-4.42336e-06
-1.23842e-05
-4.89792e-06
-1.19288e-05
-5.36363e-06
-1.1431e-05
-5.81824e-06
-1.08921e-05
-6.2599e-06
-1.03125e-05
-6.68608e-06
-9.69449e-06
-7.09499e-06
-9.03849e-06
-7.48376e-06
-8.34769e-06
-7.85091e-06
-7.6225e-06
-8.19317e-06
-6.86743e-06
-8.50966e-06
-6.08241e-06
-8.79656e-06
-5.27372e-06
-9.05391e-06
-4.44026e-06
-9.27629e-06
-3.59125e-06
-9.4612e-06
-2.72564e-06
-9.58215e-06
-1.86513e-06
-9.5625e-06
-1.03553e-06
-9.12832e-06
-3.4751e-07
-7.60737e-06
-3.74288e-06
-2.7795e-07
3.35736e-06
-8.50748e-07
7.04347e-06
-1.55014e-06
8.53323e-06
-2.2797e-06
8.97807e-06
-3.01808e-06
9.03767e-06
-3.74795e-06
8.97497e-06
-4.47159e-06
8.86476e-06
-5.18211e-06
8.72845e-06
-5.88147e-06
8.56842e-06
-6.56494e-06
8.38723e-06
-7.23324e-06
8.18421e-06
-7.88285e-06
7.96076e-06
-8.5137e-06
7.71662e-06
-9.12307e-06
7.4529e-06
-9.71044e-06
7.16964e-06
-1.02736e-05
6.86777e-06
-1.08118e-05
6.54756e-06
-1.13232e-05
6.20983e-06
-1.18069e-05
5.85498e-06
-1.22614e-05
5.48375e-06
-1.26856e-05
5.09665e-06
-1.30783e-05
4.69439e-06
-1.34385e-05
4.27754e-06
-1.37649e-05
3.84679e-06
-1.40565e-05
3.40277e-06
-1.43124e-05
2.9462e-06
-1.45315e-05
2.47777e-06
-1.47128e-05
1.99825e-06
-1.48554e-05
1.50841e-06
-1.49585e-05
1.00908e-06
-1.50211e-05
5.01152e-07
-1.50424e-05
-1.44237e-08
-1.50217e-05
-5.36638e-07
-1.49582e-05
-1.06437e-06
-1.48513e-05
-1.59645e-06
-1.47004e-05
-2.13157e-06
-1.4505e-05
-2.66835e-06
-1.42646e-05
-3.20523e-06
-1.3979e-05
-3.74065e-06
-1.3648e-05
-4.27277e-06
-1.32717e-05
-4.79979e-06
-1.285e-05
-5.31959e-06
-1.23836e-05
-5.8302e-06
-1.18727e-05
-6.32914e-06
-1.13185e-05
-6.81437e-06
-1.07214e-05
-7.28306e-06
-1.00835e-05
-7.73321e-06
-9.40546e-06
-8.16162e-06
-8.69034e-06
-8.56659e-06
-7.93862e-06
-8.94445e-06
-7.15494e-06
-9.29417e-06
-6.33927e-06
-9.61145e-06
-5.49817e-06
-9.89627e-06
-4.63057e-06
-1.01426e-05
-3.74612e-06
-1.03476e-05
-2.84387e-06
-1.04822e-05
-1.94654e-06
-1.04628e-05
-1.08115e-06
-9.99014e-06
-3.63116e-07
-8.32972e-06
-4.10393e-06
-2.86154e-07
3.64157e-06
-8.7646e-07
7.63722e-06
-1.59745e-06
9.25103e-06
-2.34958e-06
9.73251e-06
-3.11081e-06
9.79685e-06
-3.86328e-06
9.72885e-06
-4.60933e-06
9.60947e-06
-5.34188e-06
9.46185e-06
-6.06295e-06
9.2886e-06
-6.76767e-06
9.09246e-06
-7.45682e-06
8.87275e-06
-8.12677e-06
8.631e-06
-8.77749e-06
8.36692e-06
-9.40617e-06
8.08173e-06
-1.00123e-05
7.77548e-06
-1.05937e-05
7.4492e-06
-1.11495e-05
7.10317e-06
-1.16779e-05
6.73827e-06
-1.21781e-05
6.35495e-06
-1.26484e-05
5.95401e-06
-1.30878e-05
5.53597e-06
-1.34951e-05
5.10161e-06
-1.38691e-05
4.65149e-06
-1.42088e-05
4.18639e-06
-1.4513e-05
3.70692e-06
-1.47807e-05
3.21387e-06
-1.50109e-05
2.70791e-06
-1.52025e-05
2.18987e-06
-1.53547e-05
1.66052e-06
-1.54663e-05
1.12073e-06
-1.55366e-05
5.71416e-07
-1.55645e-05
1.35591e-08
-1.55494e-05
-5.51796e-07
-1.54902e-05
-1.12348e-06
-1.53864e-05
-1.70028e-06
-1.52371e-05
-2.28081e-06
-1.50418e-05
-2.86362e-06
-1.47999e-05
-3.44706e-06
-1.45111e-05
-4.02946e-06
-1.41749e-05
-4.60883e-06
-1.37914e-05
-5.18326e-06
-1.33605e-05
-5.75042e-06
-1.28826e-05
-6.30816e-06
-1.23577e-05
-6.85378e-06
-1.17872e-05
-7.38499e-06
-1.11713e-05
-7.89869e-06
-1.05121e-05
-8.39262e-06
-9.81009e-06
-8.86322e-06
-9.06853e-06
-9.30854e-06
-8.28783e-06
-9.72449e-06
-7.47283e-06
-1.01098e-05
-6.6235e-06
-1.04597e-05
-5.74673e-06
-1.07741e-05
-4.84147e-06
-1.10462e-05
-3.91788e-06
-1.1273e-05
-2.9751e-06
-1.14225e-05
-2.03699e-06
-1.14038e-05
-1.13194e-06
-1.08913e-05
-3.8058e-07
-9.0854e-06
-4.48218e-06
-2.9493e-07
3.93476e-06
-9.04211e-07
8.25034e-06
-1.64863e-06
9.99243e-06
-2.42524e-06
1.05118e-05
-3.21126e-06
1.0581e-05
-3.98821e-06
1.05076e-05
-4.75854e-06
1.03787e-05
-5.51492e-06
1.02194e-05
-6.25947e-06
1.00325e-05
-6.98718e-06
9.82094e-06
-7.69884e-06
9.58404e-06
-8.39074e-06
9.32343e-06
-9.06288e-06
9.03884e-06
-9.71237e-06
8.73158e-06
-1.03387e-05
8.40173e-06
-1.09397e-05
8.0504e-06
-1.15145e-05
7.6779e-06
-1.20613e-05
7.2852e-06
-1.25791e-05
6.87275e-06
-1.30664e-05
6.44143e-06
-1.35223e-05
5.99178e-06
-1.39452e-05
5.52462e-06
-1.43343e-05
5.04057e-06
-1.46883e-05
4.5404e-06
-1.50062e-05
4.02477e-06
-1.52867e-05
3.49447e-06
-1.5529e-05
2.95021e-06
-1.5732e-05
2.39282e-06
-1.58945e-05
1.8231e-06
-1.60157e-05
1.24193e-06
-1.60945e-05
6.50234e-07
-1.613e-05
4.9025e-08
-1.61211e-05
-5.60629e-07
-1.60671e-05
-1.17753e-06
-1.5967e-05
-1.80041e-06
-1.58199e-05
-2.42784e-06
-1.56253e-05
-3.0583e-06
-1.53823e-05
-3.69006e-06
-1.50905e-05
-4.32132e-06
-1.47493e-05
-4.95001e-06
-1.43587e-05
-5.57403e-06
-1.39182e-05
-6.19088e-06
-1.34283e-05
-6.79823e-06
-1.28889e-05
-7.39312e-06
-1.23011e-05
-7.97303e-06
-1.16651e-05
-8.53452e-06
-1.0983e-05
-9.07509e-06
-1.02551e-05
-9.59075e-06
-9.48491e-06
-1.00793e-05
-8.67267e-06
-1.05362e-05
-7.82347e-06
-1.09599e-05
-6.93726e-06
-1.1345e-05
-6.02131e-06
-1.16914e-05
-5.07458e-06
-1.19914e-05
-4.10782e-06
-1.22418e-05
-3.12027e-06
-1.24076e-05
-2.13707e-06
-1.23902e-05
-1.18814e-06
-1.18362e-05
-3.99881e-07
-9.8783e-06
-4.87974e-06
-3.04498e-07
4.23719e-06
-9.3426e-07
8.88378e-06
-1.70394e-06
1.07587e-05
-2.50696e-06
1.13173e-05
-3.31968e-06
1.13916e-05
-4.12301e-06
1.13124e-05
-4.91948e-06
1.11737e-05
-5.70153e-06
1.10024e-05
-6.47134e-06
1.08014e-05
-7.22375e-06
1.05739e-05
-7.95961e-06
1.03193e-05
-8.67509e-06
1.00392e-05
-9.37021e-06
9.73352e-06
-1.0042e-05
9.40357e-06
-1.06901e-05
9.04948e-06
-1.13121e-05
8.67245e-06
-1.19072e-05
8.27282e-06
-1.24736e-05
7.85163e-06
-1.30104e-05
7.40938e-06
-1.3516e-05
6.94699e-06
-1.39894e-05
6.46505e-06
-1.44292e-05
5.96442e-06
-1.48345e-05
5.44572e-06
-1.52039e-05
4.90977e-06
-1.55364e-05
4.35726e-06
-1.58309e-05
3.78896e-06
-1.60864e-05
3.20563e-06
-1.63016e-05
2.60808e-06
-1.64757e-05
1.99712e-06
-1.66073e-05
1.37364e-06
-1.66957e-05
7.38571e-07
-1.67396e-05
9.29341e-08
-1.6738e-05
-5.62191e-07
-1.66899e-05
-1.22559e-06
-1.65944e-05
-1.89596e-06
-1.64503e-05
-2.57182e-06
-1.6257e-05
-3.25162e-06
-1.60135e-05
-3.93353e-06
-1.57192e-05
-4.61568e-06
-1.53733e-05
-5.29585e-06
-1.49756e-05
-5.97182e-06
-1.45255e-05
-6.64089e-06
-1.40232e-05
-7.30054e-06
-1.34687e-05
-7.94754e-06
-1.28627e-05
-8.57914e-06
-1.22054e-05
-9.19153e-06
-1.14989e-05
-9.78192e-06
-1.07433e-05
-1.03459e-05
-9.9422e-06
-1.08809e-05
-9.0958e-06
-1.13819e-05
-8.20939e-06
-1.1847e-05
-7.28294e-06
-1.22704e-05
-6.3241e-06
-1.26515e-05
-5.33185e-06
-1.2982e-05
-4.3176e-06
-1.32581e-05
-3.28071e-06
-1.34418e-05
-2.24776e-06
-1.34264e-05
-1.25037e-06
-1.28293e-05
-4.2132e-07
-1.07122e-05
-5.29856e-06
-3.14688e-07
4.55004e-06
-9.6651e-07
9.53973e-06
-1.76343e-06
1.15524e-05
-2.59489e-06
1.21516e-05
-3.43638e-06
1.22311e-05
-4.2681e-06
1.2146e-05
-5.0927e-06
1.19972e-05
-5.90232e-06
1.18133e-05
-6.69926e-06
1.15976e-05
-7.47817e-06
1.13537e-05
-8.23996e-06
1.10806e-05
-8.98068e-06
1.07805e-05
-9.70039e-06
1.0453e-05
-1.03961e-05
1.00996e-05
-1.10673e-05
9.72056e-06
-1.17117e-05
9.31707e-06
-1.23285e-05
8.88956e-06
-1.29159e-05
8.43914e-06
-1.34729e-05
7.96633e-06
-1.3998e-05
7.47214e-06
-1.44901e-05
6.95716e-06
-1.49479e-05
6.42231e-06
-1.53705e-05
5.86823e-06
-1.57564e-05
5.29576e-06
-1.61048e-05
4.70559e-06
-1.64143e-05
4.09853e-06
-1.6684e-05
3.47531e-06
-1.69126e-05
2.83676e-06
-1.70992e-05
2.18367e-06
-1.72425e-05
1.51695e-06
-1.73414e-05
8.37486e-07
-1.73947e-05
1.46315e-07
-1.74014e-05
-5.55489e-07
-1.73603e-05
-1.2667e-06
-1.72703e-05
-1.98602e-06
-1.71302e-05
-2.71193e-06
-1.6939e-05
-3.44284e-06
-1.66957e-05
-4.17686e-06
-1.63994e-05
-4.91203e-06
-1.60492e-05
-5.64601e-06
-1.56447e-05
-6.37646e-06
-1.5185e-05
-7.1005e-06
-1.46704e-05
-7.81539e-06
-1.41001e-05
-8.51764e-06
-1.34753e-05
-9.20422e-06
-1.27956e-05
-9.87096e-06
-1.20631e-05
-1.05147e-05
-1.1278e-05
-1.11306e-05
-1.04436e-05
-1.17158e-05
-9.56033e-06
-1.22645e-05
-8.63355e-06
-1.27747e-05
-7.66326e-06
-1.32396e-05
-6.65753e-06
-1.36586e-05
-5.61539e-06
-1.40223e-05
-4.54896e-06
-1.43267e-05
-3.45776e-06
-1.45302e-05
-2.36998e-06
-1.45177e-05
-1.31912e-06
-1.38757e-05
-4.45018e-07
-1.15914e-05
-5.74098e-06
-3.25727e-07
4.8735e-06
-1.00122e-06
1.02191e-05
-1.82735e-06
1.23749e-05
-2.68931e-06
1.30162e-05
-3.56162e-06
1.3101e-05
-4.42376e-06
1.30098e-05
-5.27847e-06
1.28503e-05
-6.1176e-06
1.26533e-05
-6.94354e-06
1.24225e-05
-7.75077e-06
1.21614e-05
-8.54024e-06
1.18694e-05
-9.30789e-06
1.15485e-05
-1.00538e-05
1.11984e-05
-1.07749e-05
1.08209e-05
-1.14708e-05
1.04161e-05
-1.2139e-05
9.98539e-06
-1.27789e-05
9.52922e-06
-1.33886e-05
9.04879e-06
-1.39671e-05
8.54466e-06
-1.45128e-05
8.0179e-06