/*--------------------------------*- C++ -*----------------------------------*\
| =========                 |                                                 |
| \\      /  F ield         | OpenFOAM: The Open Source CFD Toolbox           |
|  \\    /   O peration     | Version:  2406                                  |
|   \\  /    A nd           | Website:  www.openfoam.com                      |
|    \\/     M anipulation  |                                                 |
\*---------------------------------------------------------------------------*/
FoamFile
{
    version     2.0;
    format      ascii;
    arch        "LSB;label=32;scalar=64";
    class       surfaceScalarField;
    location    "43.2";
    object      phi;
}
// * * * * * * * * * * * * * * * * * * * * * * * * * * * * * * * * * * * * * //

dimensions      [0 3 -1 0 0 0 0];

oriented        oriented;

internalField   nonuniform List<scalar> 
7080
(
2.82327e-07
-2.81287e-07
1.45508e-06
-1.20615e-06
3.12978e-06
-1.67349e-06
4.82493e-06
-1.72239e-06
6.2364e-06
-1.41521e-06
7.20138e-06
-9.80782e-07
7.75856e-06
-5.57938e-07
8.00441e-06
-2.50823e-07
8.07012e-06
-6.20384e-08
8.01828e-06
5.47605e-08
7.8474e-06
1.79757e-07
7.47725e-06
3.81546e-07
6.79069e-06
7.04734e-07
5.6475e-06
1.16759e-06
3.90447e-06
1.77656e-06
1.41444e-06
2.53313e-06
-1.96576e-06
3.43419e-06
-6.37037e-06
4.46927e-06
-1.19142e-05
5.62044e-06
-1.86794e-05
6.856e-06
-2.66896e-05
8.11745e-06
-3.58783e-05
9.31143e-06
-4.60601e-05
1.03147e-05
-5.69119e-05
1.09858e-05
-6.79691e-05
1.11825e-05
-7.8646e-05
1.07848e-05
-8.82793e-05
9.71717e-06
-9.61857e-05
7.96196e-06
-0.00010172
5.55936e-06
-0.000104326
2.60026e-06
-0.000103578
-7.83167e-07
-9.92155e-05
-4.42541e-06
-9.11709e-05
-8.13314e-06
-7.95915e-05
-1.169e-05
-6.48575e-05
-1.4863e-05
-4.75877e-05
-1.74133e-05
-2.86279e-05
-1.91135e-05
-9.01521e-06
-1.9772e-05
1.00894e-05
-1.92641e-05
2.74986e-05
-1.7563e-05
4.21232e-05
-1.47659e-05
5.31054e-05
-1.11044e-05
5.994e-05
-6.93021e-06
6.25509e-05
-2.67544e-06
6.13054e-05
1.21639e-06
5.69441e-05
4.36624e-06
5.04435e-05
6.53755e-06
4.28309e-05
7.67178e-06
3.50167e-05
7.88918e-06
2.76706e-05
7.42298e-06
2.11966e-05
6.55052e-06
1.57525e-05
5.50834e-06
1.13375e-05
4.47477e-06
7.83699e-06
3.54277e-06
5.11019e-06
2.76999e-06
2.99586e-06
2.13597e-06
1.40684e-06
1.62108e-06
3.31832e-07
1.07922e-06
-1.45301e-07
5.02496e-07
-1.45682e-07
1.1424e-06
-1.39055e-06
3.78741e-06
-3.85348e-06
7.18313e-06
-5.02061e-06
1.04784e-05
-5.00465e-06
1.31519e-05
-4.05342e-06
1.48752e-05
-2.69363e-06
1.5647e-05
-1.31368e-06
1.55588e-05
-1.62464e-07
1.47544e-05
7.42622e-07
1.32577e-05
1.54164e-06
1.09685e-05
2.45536e-06
7.64098e-06
3.68528e-06
2.95086e-06
5.36148e-06
-3.47048e-06
7.5409e-06
-1.19885e-05
1.02303e-05
-2.29414e-05
1.34023e-05
-3.65996e-05
1.69895e-05
-5.31109e-05
2.086e-05
-7.24148e-05
2.47861e-05
-9.41639e-05
2.84449e-05
-0.000117694
3.14605e-05
-0.00014207
3.34724e-05
-0.000166185
3.41966e-05
-0.000188895
3.34598e-05
-0.000209135
3.12013e-05
-0.000225997
2.74569e-05
-0.000238763
2.23375e-05
-0.000246905
1.60093e-05
-0.000250063
8.67943e-06
-0.00024803
5.86772e-07
-0.000240735
-8.00111e-06
-0.000228244
-1.67863e-05
-0.000210762
-2.54364e-05
-0.000188649
-3.35813e-05
-0.000162442
-4.08154e-05
-0.000132864
-4.67099e-05
-0.000100841
-5.08382e-05
-6.74913e-05
-5.28177e-05
-3.40903e-05
-5.23646e-05
-2.01304e-06
-4.93554e-05
2.73595e-05
-4.38812e-05
5.27494e-05
-3.62778e-05
7.31033e-05
-2.7119e-05
8.76947e-05
-1.71632e-05
9.62099e-05
-7.2593e-06
9.87877e-05
1.764e-06
9.60287e-05
9.21942e-06
8.89345e-05
1.46477e-05
7.87965e-05
1.78889e-05
6.69972e-05
1.90761e-05
5.48153e-05
1.85978e-05
4.32312e-05
1.69684e-05
3.28792e-05
1.47276e-05
2.40251e-05
1.23067e-05
1.671e-05
1.00235e-05
1.07924e-05
7.98973e-06
6.16679e-06
6.21829e-06
2.74744e-06
4.45148e-06
6.57502e-07
2.59387e-06
4.86537e-07
1.68323e-06
-3.07068e-06
5.2041e-06
-7.42569e-06
9.4662e-06
-9.27901e-06
1.33259e-05
-8.90363e-06
1.61652e-05
-6.89949e-06
1.75803e-05
-4.13098e-06
1.75413e-05
-1.27758e-06
1.6079e-05
1.29273e-06
1.32413e-05
3.58464e-06
8.89804e-06
5.88972e-06
2.75522e-06
8.61148e-06
-5.64536e-06
1.21043e-05
-1.68264e-05
1.65715e-05
-3.1314e-05
2.20684e-05
-4.95513e-05
2.85231e-05
-7.18047e-05
3.57287e-05
-9.80174e-05
4.32932e-05
-0.000127684
5.06311e-05
-0.000159823
5.70409e-05
-0.000193102
6.18515e-05
-0.000226055
6.45564e-05
-0.000257302
6.48801e-05
-0.0002857
6.27656e-05
-0.000310389
5.83199e-05
-0.000330779
5.17488e-05
-0.000346493
4.33058e-05
-0.000357314
3.32602e-05
-0.000363125
2.18833e-05
-0.000363871
9.44658e-06
-0.000359535
-3.7707e-06
-0.000350133
-1.74686e-05
-0.000335716
-3.13104e-05
-0.000316393
-4.49056e-05
-0.000292356
-5.77966e-05
-0.000263924
-6.94542e-05
-0.000231575
-7.92866e-05
-0.000195983
-8.66704e-05
-0.00015804
-9.10052e-05
-0.000118851
-9.17934e-05
-7.9697e-05
-8.8734e-05
-4.19629e-05
-8.18152e-05
-7.03151e-06
-7.1375e-05
2.38353e-05
-5.81091e-05
4.95996e-05
-4.30044e-05
6.95283e-05
-2.72163e-05
8.32263e-05
-1.19189e-05
9.06678e-05
1.83193e-06
9.22048e-05
1.31905e-05
8.85903e-05
2.16016e-05
8.09239e-05
2.68427e-05
7.05522e-05
2.90703e-05
5.88396e-05
2.87676e-05
4.69945e-05
2.66554e-05
3.58668e-05
2.34948e-05
2.59887e-05
1.99646e-05
1.75327e-05
1.64776e-05
1.06004e-05
1.32013e-05
5.162e-06
9.89017e-06
1.51952e-06
6.28521e-06
2.00128e-06
2.02389e-06
-5.06392e-06
5.96233e-06
-1.13889e-05
1.03756e-05
-1.36499e-05
1.39051e-05
-1.24383e-05
1.59096e-05
-8.87863e-06
1.59814e-05
-4.20227e-06
1.40712e-05
6.4403e-07
1.00991e-05
5.26249e-06
3.91692e-06
9.7671e-06
-4.86493e-06
1.46635e-05
-1.68033e-05
2.054e-05
-3.2561e-05
2.7845e-05
-5.27489e-05
3.6737e-05
-7.77926e-05
4.70812e-05
-0.00010774
5.84306e-05
-0.000142087
7.00229e-05
-0.00017971
8.08488e-05
-0.000219021
8.9863e-05
-0.000258291
9.6223e-05
-0.000295971
9.94345e-05
-0.000330872
9.93519e-05
-0.000362196
9.60925e-05
-0.000389472
8.99277e-05
-0.000412455
8.1196e-05
-0.000431044
7.0244e-05
-0.00044521
5.73977e-05
-0.000454953
4.29519e-05
-0.000460268
2.71738e-05
-0.000461135
1.03149e-05
-0.000457505
-7.37224e-06
-0.000449307
-2.56114e-05
-0.000436457
-4.40782e-05
-0.000418882
-6.23742e-05
-0.000396549
-8.00029e-05
-0.000369503
-9.63546e-05
-0.000337924
-0.000110706
-0.000302181
-0.000122245
-0.000262886
-0.000130128
-0.000220931
-0.00013358
-0.000177488
-0.000132018
-0.000133961
-0.000125198
-9.18799e-05
-0.000113334
-5.27393e-05
-9.71533e-05
-1.78376e-05
-7.78391e-05
1.18529e-05
-5.68691e-05
3.57206e-05
-3.57794e-05
5.34903e-05
-1.59557e-05
6.51553e-05
1.4838e-06
7.09774e-05
1.57247e-05
7.14999e-05
2.62532e-05
6.75992e-05
3.29067e-05
6.03993e-05
3.59001e-05
5.1174e-05
3.58284e-05
4.10821e-05
3.35305e-05
3.11028e-05
2.99129e-05
2.18315e-05
2.57019e-05
1.37354e-05
2.12924e-05
7.0023e-06
1.65733e-05
2.21283e-06
1.11005e-05
4.18188e-06
2.19718e-06
-7.24757e-06
6.14982e-06
-1.53895e-05
1.00923e-05
-1.75726e-05
1.25116e-05
-1.48862e-05
1.27884e-05
-9.15046e-06
1.05469e-05
-1.97505e-06
5.70145e-06
5.49165e-06
-1.99154e-06
1.29513e-05
-1.2947e-05
2.07271e-05
-2.78432e-05
2.95637e-05
-4.7436e-05
4.01433e-05
-7.23872e-05
5.28101e-05
-0.000103003
6.73742e-05
-0.000139015
8.31193e-05
-0.000179415
9.88633e-05
-0.000222547
0.000113195
-0.000266458
0.000124807
-0.000309336
0.000132795
-0.000349793
0.00013674
-0.000386928
0.000136635
-0.000420242
0.000132737
-0.000449515
0.000125439
-0.000474694
0.000115176
-0.000495813
0.000102376
-0.000512949
8.74266e-05
-0.000526184
7.06626e-05
-0.000535589
5.2369e-05
-0.000541211
3.27879e-05
-0.000543055
1.21329e-05
-0.00054108
-9.39072e-06
-0.000535191
-3.15612e-05
-0.000525235
-5.41101e-05
-0.00051101
-7.66889e-05
-0.00049228
-9.88333e-05
-0.00046881
-0.000119932
-0.000440423
-0.000139207
-0.000407067
-0.000155716
-0.000368915
-0.000168395
-0.000326461
-0.000176145
-0.000280598
-0.000177984
-0.000232646
-0.000173242
-0.000184299
-0.00016176
-0.00013745
-0.000144064
-9.39433e-05
-0.000121391
-5.52787e-05
-9.55585e-05
-2.24282e-05
-6.86361e-05
4.19443e-06
-4.25643e-05
2.45739e-05
-1.88678e-05
3.89263e-05
1.41449e-06
4.75882e-05
1.76361e-05
5.10776e-05
2.94682e-05
5.0123e-05
3.68962e-05
4.5719e-05
4.02783e-05
3.8951e-05
4.0326e-05
3.09445e-05
3.79591e-05
2.25726e-05
3.40822e-05
1.46436e-05
2.92624e-05
7.64331e-06
2.35539e-05
2.46181e-06
1.6337e-05
6.62886e-06
2.23734e-06
-9.46001e-06
5.76026e-06
-1.89431e-05
8.54108e-06
-2.03205e-05
9.03131e-06
-1.53876e-05
6.68817e-06
-6.79099e-06
1.18099e-06
3.52871e-06
-7.67126e-06
1.435e-05
-2.03437e-05
2.56204e-05
-3.75427e-05
3.79252e-05
-6.01301e-05
5.21453e-05
-8.87744e-05
6.87814e-05
-0.000123646
8.76715e-05
-0.000164133
0.000107848
-0.00020879
0.000127757
-0.000255574
0.000145623
-0.000302346
0.000159937
-0.000347321
0.000169748
-0.000389268
0.000174704
-0.000427472
0.000174903
-0.000461596
0.000170716
-0.000491551
0.000162645
-0.000517393
0.000151234
-0.000539269
0.000137008
-0.000557373
0.000120444
-0.000571925
0.000101951
-0.000583147
8.1868e-05
-0.000591242
6.04598e-05
-0.000596377
3.7932e-05
-0.000598667
1.44425e-05
-0.000598151
-9.87602e-06
-0.00059478
-3.4891e-05
-0.000588404
-6.04373e-05
-0.000578756
-8.62805e-05
-0.000565456
-0.000112072
-0.000548019
-0.000137303
-0.000525894
-0.000161263
-0.000498535
-0.000183006
-0.000465503
-0.000201356
-0.00042662
-0.000214956
-0.000382138
-0.000222398
-0.000332893
-0.000222423
-0.000280393
-0.000214203
-0.000226769
-0.00019764
-0.000174535
-0.000173591
-0.000126165
-0.000143909
-8.36087e-05
-0.000111188
-4.79431e-05
-7.82373e-05
-1.93737e-05
-4.74568e-05
2.47537e-06
-2.0458e-05
1.81618e-05
1.9187e-06
2.82617e-05
1.93418e-05
3.33539e-05
3.17712e-05
3.41768e-05
3.94345e-05
3.15954e-05
4.28763e-05
2.66543e-05
4.28909e-05
2.031e-05
4.03944e-05
1.35775e-05
3.60035e-05
7.20994e-06
2.98775e-05
2.33139e-06
2.12497e-05
8.93061e-06
2.07432e-06
-1.15223e-05
4.6382e-06
-2.15402e-05
5.52728e-06
-2.11929e-05
3.29815e-06
-1.31744e-05
-2.48568e-06
-1.00211e-06
-1.21364e-05
1.31733e-05
-2.60039e-05
2.82198e-05
-4.48059e-05
4.44221e-05
-6.94121e-05
6.25354e-05
-0.000100529
8.32669e-05
-0.000138224
0.000106484
-0.000181644
0.000131099
-0.000229013
0.000155227
-0.000278027
0.000176783
-0.000326422
0.000194032
-0.000372422
0.000205954
-0.000414865
0.00021221
-0.000453112
0.000212972
-0.000486895
0.000208706
-0.000516191
0.000200032
-0.000541146
0.000187619
-0.000562019
0.000172124
-0.000579146
0.000154149
-0.000592908
0.000134213
-0.000603692
0.000112737
-0.000611872
9.0042e-05
-0.000617782
6.63572e-05
-0.000621702
4.18322e-05
-0.000623843
1.65553e-05
-0.000624329
-9.42414e-06
-0.000623188
-3.60724e-05
-0.000620329
-6.33421e-05
-0.000615522
-9.11389e-05
-0.000608372
-0.000119279
-0.000598299
-0.000147436
-0.000584538
-0.000175088
-0.000566162
-0.000201448
-0.000542161
-0.000225422
-0.000511584
-0.000245598
-0.000473751
-0.00026029
-0.000428525
-0.0002677
-0.000376588
-0.000266182
-0.000319629
-0.000254629
-0.00026034
-0.000232897
-0.0002021
-0.000202157
-0.000148329
-0.00016496
-0.000101689
-0.000124872
-6.34968e-05
-8.56402e-05
-3.36982e-05
-5.02408e-05
-1.14262e-05
-2.03383e-05
4.37924e-06
3.55872e-06
1.46091e-05
2.15566e-05
2.00556e-05
3.40121e-05
2.14822e-05
4.14589e-05
1.98084e-05
4.45894e-05
1.59601e-05
4.42407e-05
1.10206e-05
4.0973e-05
5.91856e-06
3.49581e-05
1.88622e-06
2.53256e-05
1.08026e-05
1.62263e-06
-1.31346e-05
2.59537e-06
-2.25262e-05
8.22998e-07
-1.94083e-05
-4.87795e-06
-7.47584e-06
-1.48462e-05
8.96971e-06
-2.94215e-05
2.77484e-05
-4.916e-05
4.79576e-05
-7.49031e-05
7.01638e-05
-0.000107358
9.49873e-05
-0.000146581
0.000122487
-0.000191596
0.000151494
-0.000240434
0.000179931
-0.000290598
0.000205382
-0.000339696
0.000225871
-0.000385889
0.000240215
-0.000427993
0.000248046
-0.000465363
0.000249567
-0.000497746
0.000245343
-0.000525176
0.000236124
-0.000547899
0.000222744
-0.000566313
0.000206025
-0.00058092
0.000186727
-0.000592264
0.000165494
-0.000600891
0.000142846
-0.000607311
0.00011917
-0.000611979
9.47301e-05
-0.000615283
6.96878e-05
-0.000617541
4.41226e-05
-0.000619
1.80517e-05
-0.000619834
-8.54707e-06
-0.00062014
-3.57187e-05
-0.000619923
-6.3508e-05
-0.000619069
-9.19389e-05
-0.000617312
-0.000120981
-0.000614183
-0.000150512
-0.000608964
-0.000180254
-0.000600652
-0.000209711
-0.000587959
-0.000238073
-0.000569377
-0.000264145
-0.000543342
-0.000286297
-0.000508524
-0.000302497
-0.000464217
-0.000310474
-0.000410778
-0.000308054
-0.000349992
-0.000293672
-0.00028516
-0.000266979
-0.000220726
-0.000229388
-0.000161356
-0.000184241
-0.000110694
-0.000136309
-7.03875e-05
-9.05557e-05
-4.00758e-05
-5.06654e-05
-1.82489e-05
-1.82786e-05
-3.28555e-06
6.57605e-06
6.132e-06
2.45878e-05
1.10033e-05
3.65699e-05
1.22775e-05
4.3315e-05
1.08721e-05
4.56259e-05
7.86947e-06
4.39856e-05
4.28389e-06
3.85147e-05
1.33151e-06
2.83027e-05
1.2115e-05
7.81867e-07
-1.39207e-05
-5.18354e-07
-2.12227e-05
-5.66672e-06
-1.42668e-05
-1.54618e-05
2.32564e-06
-3.01958e-05
2.36986e-05
-5.02652e-05
4.78234e-05
-7.63644e-05
7.40552e-05
-0.000109171
0.000102976
-0.000148797
0.000134615
-0.000194281
0.000167975
-0.000243591
0.000200807
-0.000294095
0.000230438
-0.000343253
0.000254543
-0.000389097
0.000271719
-0.000430351
0.000281472
-0.000466319
0.000284018
-0.000496752
0.000280004
-0.000521749
0.000270343
-0.000541679
0.000256058
-0.000557104
0.000238171
-0.000568692
0.000217616
-0.000577147
0.000195181
-0.000583139
0.000171483
-0.000587269
0.000146971
-0.000590047
0.000121939
-0.000591892
9.65616e-05
-0.000593136
7.09142e-05
-0.00059404
4.50061e-05
-0.000594811
1.87986e-05
-0.00059561
-7.77528e-06
-0.000596558
-3.47998e-05
-0.000597733
-6.23636e-05
-0.000599152
-9.05511e-05
-0.000600737
-0.000119426
-0.000602269
-0.000149009
-0.000603308
-0.000179241
-0.000603119
-0.000209925
-0.00060058
-0.000240634
-0.000594139
-0.000270607
-0.000581844
-0.000298614
-0.0005615
-0.000322863
-0.000531021
-0.000340976
-0.000488953
-0.000350144
-0.000435131
-0.000347511
-0.000371282
-0.000330839
-0.000301295
-0.000299376
-0.000230837
-0.000254693
-0.000166089
-0.000201049
-0.000111883
-0.000144752
-7.02226e-05
-9.23198e-05
-4.02613e-05
-4.82292e-05
-1.97353e-05
-1.39463e-05
-6.36604e-06
1.12313e-05
1.56045e-06
2.86442e-05
5.35167e-06
3.95384e-05
6.07789e-06
4.4895e-05
4.85009e-06
4.52317e-05
2.7192e-06
4.06317e-05
8.15422e-07
3.02313e-05
1.29225e-05
-5.18504e-07
-1.34194e-05
-4.75833e-06
-1.69505e-05
-1.38798e-05
-5.17186e-06
-2.82196e-05
1.66864e-05
-4.80855e-05
4.35486e-05
-7.38875e-05
7.3635e-05
-0.00010626
0.000106418
-0.00014535
0.00014207
-0.000190366
0.000179624
-0.000239323
0.000216932
-0.000289543
0.000251021
-0.000338321
0.000279214
-0.000383517
0.000299734
-0.000423703
0.000311903
-0.000458107
0.000315873
-0.000486471
0.000312381
-0.000508968
0.000302501
-0.000526103
0.00028748
-0.000538607
0.000268565
-0.000547318
0.000246889
-0.000553083
0.000223389
-0.000556676
0.000198784
-0.000558753
0.000173573
-0.000559842
0.000148073
-0.00056034
0.000122454
-0.000560542
9.67829e-05
-0.000560661
7.10545e-05
-0.000560855
4.52229e-05
-0.000561247
1.9216e-05
-0.000561946
-7.04866e-06
-0.000563056
-3.36607e-05
-0.00056468
-6.07099e-05
-0.000566912
-8.8288e-05
-0.000569822
-0.000116484
-0.000573419
-0.000145381
-0.00057759
-0.000175039
-0.000582012
-0.000205471
-0.000586042
-0.000236574
-0.000588574
-0.000268045
-0.000587931
-0.000299229
-0.000581827
-0.000328945
-0.000567486
-0.000355301
-0.000542021
-0.000375602
-0.000503088
-0.000386444
-0.000449795
-0.000384137
-0.00038363
-0.000365548
-0.000309023
-0.000329304
-0.000233
-0.000277074
-0.000163502
-0.000214249
-0.000106692
-0.000149135
-6.47617e-05
-9.01603e-05
-3.61402e-05
-4.25779e-05
-1.76479e-05
-7.26151e-06
-6.39591e-06
1.73811e-05
-2.58818e-07
3.34043e-05
2.28789e-06
4.23358e-05
2.52703e-06
4.49999e-05
1.5705e-06
4.15721e-05
4.69896e-07
3.13447e-05
1.33828e-05
-2.29197e-06
-1.11625e-05
-1.00193e-05
-9.15829e-06
-2.34984e-05
8.25591e-06
-4.25822e-05
3.58099e-05
-6.76294e-05
6.85718e-05
-9.89328e-05
0.00010496
-0.0001368
0.000144275
-0.000180569
0.000185852
-0.000228523
0.000227574
-0.000277982
0.000266397
-0.000326142
0.000299179
-0.000370629
0.000323703
-0.000409843
0.000338948
-0.000442887
0.000344949
-0.000469487
0.000342473
-0.000489872
0.000332767
-0.000504681
0.000317309
-0.000514802
0.000297602
-0.000521239
0.000274999
-0.000524963
0.000250609
-0.000526831
0.000225252
-0.000527534
0.000199479
-0.000527589
0.000173617
-0.000527352
0.000147824
-0.000527058
0.000122145
-0.000526848
9.65553e-05
-0.000526806
7.09921e-05
-0.000526985
4.53794e-05
-0.000527429
1.96358e-05
-0.000528189
-6.31448e-06
-0.000529333
-3.25443e-05
-0.000530951
-5.91205e-05
-0.000533156
-8.61116e-05
-0.000536079
-0.000113588
-0.000539855
-0.000141632
-0.000544587
-0.000170333
-0.00055029
-0.00019979
-0.000556802
-0.000230082
-0.000563639
-0.000261223
-0.000569825
-0.000293053
-0.0005737
-0.000325075
-0.000572789
-0.000356212
-0.000563851
-0.00038454
-0.000543227
-0.000407069
-0.000507613
-0.000419755
-0.000455234
-0.000417934
-0.000387187
-0.000397358
-0.000308417
-0.000355849
-0.00022747
-0.000295191
-0.000154287
-0.000222314
-9.63167e-05
-0.00014812
-5.55663e-05
-8.33277e-05
-2.93282e-05
-3.34911e-05
-1.34789e-05
1.52812e-06
-4.60627e-06
2.45416e-05
-3.16217e-07
3.80401e-05
1.11421e-06
4.35809e-05
9.76672e-07
4.17007e-05
3.39999e-07
3.1995e-05
1.37185e-05
-4.4882e-06
-6.72918e-06
-1.60687e-05
2.52268e-06
-3.40474e-05
2.61527e-05
-5.7803e-05
5.9621e-05
-8.77208e-05
9.8449e-05
-0.000123788
0.000141052
-0.000165764
0.000186229
-0.000212113
0.000232211
-0.000260433
0.000275882
-0.000307793
0.000313759
-0.000351653
0.000343031
-0.000390148
0.0003622
-0.000422248
0.000371045
-0.000447596
0.000370298
-0.00046646
0.000361338
-0.00047957
0.000345881
-0.000487965
0.000325706
-0.000492782
0.000302423
-0.000495113
0.000277334
-0.00049588
0.000251383
-0.000495799
0.000225177
-0.000495367
0.000199055
-0.0004949
0.000173159
-0.000494571
0.000147505
-0.000494456
0.000122042
-0.000494573
9.66858e-05
-0.000494913
7.1347e-05
-0.00049546
4.59432e-05
-0.000496208
2.04018e-05
-0.000497169
-5.33447e-06
-0.000498379
-3.13138e-05
-0.000499906
-5.75739e-05
-0.000501846
-8.41513e-05
-0.000504332
-0.000111083
-0.000507525
-0.00013842
-0.00051161
-0.000166231
-0.000516768
-0.000194617
-0.000523128
-0.000223709
-0.000530679
-0.000253662
-0.000539117
-0.000284605
-0.000547642
-0.000316541
-0.000554698
-0.000349148
-0.000557742
-0.000381486
-0.000553183
-0.000411618
-0.000536673
-0.000436258
-0.00050395
-0.000450656
-0.00045229
-0.000449023
-0.000382347
-0.000425803
-0.000299659
-0.000377887
-0.000214567
-0.00030741
-0.000139206
-0.000223477
-8.20329e-05
-0.000140502
-4.41081e-05
-7.14109e-05
-2.122e-05
-2.13697e-05
-8.42568e-06
1.17526e-05
-2.02225e-06
3.16264e-05
5.25799e-07
4.10403e-05
9.18547e-07
4.12961e-05
4.20402e-07
3.25032e-05
1.41325e-05
-6.96739e-06
1.65362e-07
-2.25078e-05
1.8203e-05
-4.48367e-05
4.83728e-05
-7.2881e-05
8.77443e-05
-0.000106978
0.000132498
-0.000146639
0.000180752
-0.000190984
0.000230554
-0.000237748
0.000278993
-0.000284205
0.000322329
-0.000327541
0.000357104
-0.000365699
0.000381185
-0.000397379
0.000393886
-0.00042214
0.000395804
-0.000440189
0.000388352
-0.000452329
0.000373478
-0.000459689
0.000353242
-0.000463541
0.000329556
-0.000465071
0.000303952
-0.000465275
0.000277534
-0.000464886
0.000250988
-0.00046439
0.000224675
-0.000464063
0.000198721
-0.000464029
0.000173115
-0.000464308
0.000147775
-0.00046487
0.000122591
-0.000465656
9.74597e-05
-0.000466612
7.22877e-05
-0.000467688
4.70037e-05
-0.000468856
2.15532e-05
-0.000470108
-4.09976e-06
-0.000471461
-2.99795e-05
-0.000472955
-5.60981e-05
-0.000474661
-8.24638e-05
-0.00047668
-0.000109082
-0.000479151
-0.000135967
-0.000482251
-0.000163147
-0.000486196
-0.000190686
-0.000491228
-0.00021869
-0.000497572
-0.000247329
-0.000505355
-0.000276831
-0.000514453
-0.00030745
-0.00052425
-0.000339356
-0.000533321
-0.000372417
-0.00053911
-0.000405827
-0.000537747
-0.000437615
-0.000524262
-0.000464134
-0.000493483
-0.000479797
-0.000441773
-0.000477515
-0.000369437
-0.00045023
-0.000282883
-0.000393974
-0.000194663
-0.000311694
-0.000119235
-0.00021593
-6.5261e-05
-0.000125368
-3.18296e-05
-5.48082e-05
-1.30627e-05
-7.00515e-06
-3.57541e-06
2.213e-05
3.72666e-07
3.71031e-05
1.21048e-06
4.04473e-05
6.46514e-07
3.30807e-05
1.47735e-05
-9.55015e-06
9.62216e-06
-2.89034e-05
3.77292e-05
-5.51788e-05
7.45069e-05
-8.68655e-05
0.000119524
-0.000124157
0.000169724
-0.000165994
0.000222629
-0.000210919
0.000275445
-0.000256195
0.000324286
-0.000299115
0.000365231
-0.000337226
0.000395222
-0.000369047
0.000412996
-0.000393863
0.000418707
-0.000411828
0.000413764
-0.000423684
0.000400211
-0.00043065
0.000380441
-0.000434071
0.000356666
-0.00043525
0.000330735
-0.000435239
0.000303944
-0.000434814
0.000277111
-0.000434454
0.000250632
-0.000434415
0.000224639
-0.000434778
0.000199089
-0.000435529
0.000173872
-0.000436598
0.000148851
-0.0004379
0.000123902
-0.000439352
9.89213e-05
-0.000440885
7.38317e-05
-0.000442449
4.85799e-05
-0.000444014
2.31311e-05
-0.000445569
-2.53173e-06
-0.000447119
-2.8415e-05
-0.000448691
-5.45127e-05
-0.000450326
-8.08143e-05
-0.000452092
-0.000107303
-0.00045408
-0.000133967
-0.000456418
-0.000160798
-0.000459281
-0.000187814
-0.000462894
-0.000215069
-0.000467537
-0.000242679
-0.000473516
-0.000270847
-0.000481085
-0.000299878
-0.000490287
-0.000330152
-0.000500684
-0.000362019
-0.000510973
-0.000395538
-0.000518565
-0.000430021
-0.000519301
-0.000463394
-0.000507603
-0.000491487
-0.000477442
-0.000507672
-0.00042441
-0.000503263
-0.000348763
-0.000469634
-0.000258335
-0.000402133
-0.0001685
-0.000305773
-9.58392e-05
-0.000198016
-4.77161e-05
-0.000102932
-2.01618e-05
-3.45517e-05
-6.00062e-06
7.95549e-06
7.42001e-08
3.1039e-05
1.56823e-06
3.89385e-05
9.2518e-07
3.3738e-05
1.56911e-05
-1.20033e-05
2.15185e-05
-3.47551e-05
6.06888e-05
-6.43318e-05
0.00010392
-9.87929e-05
0.000154101
-0.000138109
0.000208969
-0.000180658
0.000265232
-0.000224564
0.000319318
-0.000266907
0.000366655
-0.000305251
0.000403559
-0.00033763
0.000427616
-0.000363165
0.000438525
-0.00038172
0.000437271
-0.000393999
0.000426041
-0.00040116
0.000407378
-0.000404654
0.000383933
-0.000405842
0.000357857
-0.000405886
0.000330776
-0.000405594
0.000303652
-0.000405479
0.000276992
-0.000405777
0.000250928
-0.000406557
0.000225415
-0.000407773
0.0002003
-0.000409333
0.000175426
-0.000411129
0.000150641
-0.000413066
0.000125831
-0.000415062
0.00010091
-0.00041706
7.58202e-05
-0.000419019
5.05288e-05
-0.000420916
2.50178e-05
-0.000422743
-7.15545e-07
-0.000424505
-2.66651e-05
-0.000426215
-5.28139e-05
-0.0004279
-7.91405e-05
-0.000429598
-0.000105616
-0.000431362
-0.000132212
-0.000433269
-0.0001589
-0.000435427
-0.000185665
-0.000437993
-0.00021251
-0.00044119
-0.000239489
-0.00044532
-0.000266723
-0.000450752
-0.00029445
-0.000457859
-0.000323049
-0.000466845
-0.000353035
-0.000477439
-0.000384947
-0.000488426
-0.000419034
-0.000497118
-0.000454701
-0.000498976
-0.000489622
-0.000487747
-0.000518893
-0.000456588
-0.000534412
-0.000400559
-0.000525664
-0.000320455
-0.000482248
-0.000226431
-0.000399812
-0.000137417
-0.000287029
-7.1123e-05
-0.000169216
-3.12543e-05
-7.44041e-05
-1.03662e-05
-1.29488e-05
-1.00325e-06
2.16892e-05
1.67414e-06
3.62453e-05
1.15198e-06
3.42761e-05
1.68358e-05
-1.41241e-05
3.55197e-05
-3.96642e-05
8.64594e-05
-7.17443e-05
0.000135811
-0.000108002
0.000190484
-0.000148147
0.000249027
-0.000190082
0.000307222
-0.000231717
0.000360909
-0.000270191
0.000405153
-0.000303493
0.000436837
-0.000330191
0.000454326
-0.000349998
0.000458319
-0.000363301
0.000450581
-0.000371248
0.00043398
-0.000375237
0.000411371
-0.000376759
0.00038545
-0.000377028
0.000358128
-0.000376963
0.000330708
-0.000377098
0.000303788
-0.000377704
0.000277597
-0.000378831
0.000252057
-0.000380428
0.000227013
-0.000382381
0.000202258
-0.000384577
0.000177625
-0.000386906
0.000152976
-0.000389287
0.000128218
-0.000391656
0.000103285
-0.000393972
7.81439e-05
-0.000396209
5.2774e-05
-0.000398354
2.71715e-05
-0.000400403
1.34267e-06
-0.000402361
-2.46983e-05
-0.000404237
-5.09285e-05
-0.000406048
-7.73209e-05
-0.000407813
-0.000103841
-0.000409563
-0.000130454
-0.000411335
-0.000157121
-0.000413184
-0.000183809
-0.000415197
-0.000210492
-0.000417508
-0.000237173
-0.00042033
-0.000263898
-0.000423973
-0.000290804
-0.00042886
-0.000318163
-0.000435463
-0.000346431
-0.000444139
-0.000376272
-0.000454759
-0.000408415
-0.000466144
-0.000443319
-0.000475402
-0.000480363
-0.000477457
-0.000516836
-0.000465259
-0.000546599
-0.000431189
-0.000559727
-0.000370208
-0.000543228
-0.000284562
-0.000485484
-0.000188078
-0.000383514
-0.000103699
-0.000253615
-4.76405e-05
-0.000130416
-1.74836e-05
-4.31289e-05
-3.38692e-06
7.60581e-06
1.27654e-06
3.15657e-05
1.24672e-06
3.43194e-05
1.80758e-05
-1.57196e-05
5.11095e-05
-4.32776e-05
0.000114271
-7.69619e-05
0.000169293
-0.000114004
0.000227667
-0.000153855
0.000288789
-0.000194089
0.00034752
-0.00023259
0.000399367
-0.000266733
0.000439329
-0.000295002
0.000465087
-0.000316497
0.000475841
-0.000331461
0.000473276
-0.000340713
0.000459847
-0.000345684
0.000438948
-0.000347831
0.000413527
-0.000348531
0.000386147
-0.000348756
0.000358358
-0.000349156
0.000331106
-0.000350018
0.000304652
-0.000351429
0.000279007
-0.000353322
0.00025395
-0.000355588
0.000229277
-0.000358095
0.000204764
-0.000360739
0.000180265
-0.000363428
0.000155662
-0.000366104
0.000130889
-0.000368722
0.000105899
-0.000371259
8.06747e-05
-0.000373698
5.52066e-05
-0.000376033
2.94993e-05
-0.000378261
3.56478e-06
-0.000380389
-2.25777e-05
-0.000382422
-4.8902e-05
-0.000384372
-7.53778e-05
-0.000386251
-0.000101969
-0.000388075
-0.000128637
-0.00038986
-0.000155341
-0.000391632
-0.000182042
-0.000393427
-0.000208701
-0.00039531
-0.000235293
-0.000397395
-0.000261815
-0.000399883
-0.000288318
-0.000403096
-0.000314951
-0.000407502
-0.000342025
-0.000413673
-0.000370104
-0.000422093
-0.000399996
-0.000432734
-0.000432681
-0.000444361
-0.000468735
-0.000453711
-0.000507488
-0.000454968
-0.000545334
-0.000440122
-0.000574564
-0.000400937
-0.0005824
-0.000332932
-0.000553498
-0.000241281
-0.000475184
-0.000145159
-0.00034976
-7.0654e-05
-0.000204893
-2.78191e-05
-8.59505e-05
-7.43058e-06
-1.27891e-05
2.44966e-07
2.38838e-05
1.17324e-06
3.33972e-05
1.92457e-05
-1.66771e-05
6.7648e-05
-4.5413e-05
0.000143269
-7.97951e-05
0.000203459
-0.000116678
0.000264695
-0.000155291
0.000327302
-0.000193034
0.000385326
-0.000227918
0.000434199
-0.000257657
0.000469098
-0.000281242
0.000488643
-0.000298256
0.00049287
-0.000309389
0.000484393
-0.000315755
0.00046622
-0.000318904
0.000442084
-0.000320205
0.000414832
-0.000320828
0.00038676
-0.000321475
0.000359007
-0.000322555
0.00033218
-0.00032416
0.000306259
-0.000326267
0.00028111
-0.000328746
0.000256431
-0.00033148
0.00023201
-0.000334345
0.000207632
-0.000337263
0.000183185
-0.000340167
0.000158569
-0.00034302
0.000133745
-0.000345795
0.000108679
-0.00034848
8.33635e-05
-0.000351063
5.77956e-05
-0.000353544
3.19852e-05
-0.00035592
5.94661e-06
-0.000358195
-2.02973e-05
-0.000360373
-4.67182e-05
-0.000362462
-7.32834e-05
-0.00036447
-9.9955e-05
-0.000366408
-0.000126695
-0.000368284
-0.000153461
-0.000370108
-0.000180214
-0.000371892
-0.000206914
-0.000373657
-0.000233526
-0.000375445
-0.000260026
-0.000377352
-0.000286408
-0.000379571
-0.000312733
-0.000382438
-0.000339157
-0.000386478
-0.000366065
-0.000392361
-0.000394112
-0.000400684
-0.000424363
-0.000411452
-0.000457966
-0.000423222
-0.000495724
-0.000432128
-0.000536423
-0.000431336
-0.000575354
-0.000411793
-0.000601924
-0.000364955
-0.000600328
-0.000288164
-0.000552
-0.000191496
-0.000446436
-0.000101164
-0.000295269
-4.2034e-05
-0.000145006
-1.3214e-05
-4.16293e-05
-1.49648e-06
1.21637e-05
9.53085e-07
3.09478e-05
2.01984e-05
-1.69254e-05
8.44351e-05
-4.59733e-05
0.000172587
-8.01819e-05
0.000237451
-0.000116068
0.000300734
-0.000152694
0.000363828
-0.000187431
0.000420133
-0.00021852
0.000465239
-0.000244063
0.000494681
-0.00026352
0.000508078
-0.000276887
0.000506263
-0.000285184
0.000492679
-0.000289674
0.000470727
-0.00029189
0.000444294
-0.000293016
0.00041597
-0.000293979
0.00038772
-0.000295233
0.000360268
-0.000296995
0.00033394
-0.000299234
0.000308504
-0.000301868
0.000283743
-0.000304753
0.000259319
-0.000307786
0.000235041
-0.000310868
0.000210716
-0.000313949
0.000186262
-0.000316982
0.000161602
-0.000319952
0.000136711
-0.000322838
0.000111563
-0.000325638
8.61588e-05
-0.00032834
6.04952e-05
-0.000330946
3.45859e-05
-0.000333449
8.44605e-06
-0.000335852
-1.78988e-05
-0.000338156
-4.44185e-05
-0.000340366
-7.10775e-05
-0.000342489
-9.78363e-05
-0.000344532
-0.000124655
-0.000346503
-0.000151492
-0.00034841
-0.000178309
-0.000350256
-0.000205071
-0.000352042
-0.000231741
-0.000353777
-0.000258292
-0.000355487
-0.000284699
-0.000357251
-0.000310969
-0.000359258
-0.000337149
-0.000361869
-0.000363456
-0.000365678
-0.000390301
-0.000371463
-0.000418581
-0.000379913
-0.000449513
-0.000390964
-0.000484682
-0.000402739
-0.000524643
-0.000410427
-0.000567671
-0.000405909
-0.000606425
-0.000379086
-0.000627139
-0.000321984
-0.000609093
-0.00023559
-0.000532868
-0.000137867
-0.000393014
-6.12349e-05
-0.000221637
-2.0695e-05
-8.21002e-05
-4.04003e-06
-4.54291e-06
6.27647e-07
2.62942e-05
2.08238e-05
-1.64741e-05
0.000100769
-4.50127e-05
0.000201391
-7.8273e-05
0.000270494
-0.000112483
0.000335091
-0.000146592
0.000397833
-0.000178062
0.000451671
-0.000205418
0.000492538
-0.000227152
0.00051645
-0.00024313
0.000524023
-0.000253665
0.000516817
-0.000259985
0.000498979
-0.000263381
0.000474132
-0.000265262
0.000446159
-0.00026659
0.000417302
-0.000268055
0.000389173
-0.000269909
0.000362124
-0.00027224
0.000336264
-0.000274948
0.000311213
-0.000277933
0.000286722
-0.000281061
0.000262449
-0.000284258
0.000238235
-0.000287452
0.000213911
-0.000290615
0.000189425
-0.000293721
0.000164709
-0.000296763
0.000139754
-0.000299729
0.000114532
-0.000302617
8.90493e-05
-0.000305419
6.33007e-05
-0.000308132
3.73014e-05
-0.000310749
1.10667e-05
-0.000313269
-1.53758e-05
-0.000315689