/*--------------------------------*- C++ -*----------------------------------*\
| =========                 |                                                 |
| \\      /  F ield         | OpenFOAM: The Open Source CFD Toolbox           |
|  \\    /   O peration     | Version:  2406                                  |
|   \\  /    A nd           | Website:  www.openfoam.com                      |
|    \\/     M anipulation  |                                                 |
\*---------------------------------------------------------------------------*/
FoamFile
{
    version     2.0;
    format      ascii;
    arch        "LSB;label=32;scalar=64";
    class       surfaceScalarField;
    location    "35.6";
    object      phi;
}
// * * * * * * * * * * * * * * * * * * * * * * * * * * * * * * * * * * * * * //

dimensions      [0 3 -1 0 0 0 0];

oriented        oriented;

internalField   nonuniform List<scalar> 
1740
(
6.37413e-06
-6.3427e-06
1.79657e-05
-1.1754e-05
2.67233e-05
-8.68396e-06
3.00672e-05
-3.37813e-06
3.04611e-05
-3.22817e-07
2.98377e-05
6.45034e-07
2.91707e-05
7.47565e-07
2.70082e-05
2.18722e-06
1.81549e-05
9.04413e-06
-5.16886e-06
2.38823e-05
-4.87096e-05
4.42795e-05
-0.000113115
6.50685e-05
-0.000190399
7.77809e-05
-0.000267068
7.70727e-05
-0.000332295
6.56504e-05
-0.000379766
4.78593e-05
-0.000405435
2.60793e-05
-0.000406836
1.71284e-06
-0.000382228
-2.42241e-05
-0.000331403
-5.06728e-05
-0.000255526
-7.55784e-05
-0.000159883
-9.58688e-05
-5.37698e-05
-0.000106088
4.55404e-05
-0.000100029
0.000115475
-6.98139e-05
0.000136091
-2.10285e-05
0.000108883
2.77023e-05
6.36093e-05
4.47523e-05
2.31285e-05
4.09968e-05
2.31384e-05
1.31979e-05
-1.94426e-05
3.15837e-05
-3.02584e-05
4.36522e-05
-2.06677e-05
4.54725e-05
-5.29054e-06
3.88682e-05
6.2564e-06
2.30986e-05
1.62974e-05
-7.98604e-06
3.18049e-05
-6.51082e-05
5.94329e-05
-0.000153391
9.72369e-05
-0.000265661
0.000135357
-0.000384047
0.000161695
-0.000490865
0.000171161
-0.000577588
0.000163771
-0.000643016
0.0001417
-0.000687483
0.000109385
-0.000710663
7.03547e-05
-0.00071187
2.67442e-05
-0.000690332
-2.03183e-05
-0.000645077
-6.97348e-05
-0.000575566
-0.000120466
-0.000482032
-0.000169029
-0.000367123
-0.000210928
-0.00023724
-0.0002356
-0.000104883
-0.000232531
1.06777e-05
-0.000184556
8.40234e-05
-9.43299e-05
9.84853e-05
1.38203e-05
7.16165e-05
7.06635e-05
3.03478e-05
8.22295e-05
5.28737e-05
1.68116e-05
-3.61726e-05
3.38624e-05
-4.74331e-05
3.91162e-05
-2.57853e-05
2.85597e-05
5.31248e-06
3.76314e-07
3.45875e-05
-5.39732e-05
7.08317e-05
-0.000143868
0.000121903
-0.000267703
0.000183123
-0.000405587
0.000235058
-0.000533715
0.000263818
-0.000640058
0.000268385
-0.00072255
0.000253884
-0.000783117
0.000224503
-0.000824894
0.000183648
-0.000850303
0.000134987
-0.000860697
8.08629e-05
-0.000856488
2.26104e-05
-0.000837227
-3.96938e-05
-0.000801634
-0.00010545
-0.000747777
-0.000174729
-0.000673479
-0.000243636
-0.000576717
-0.000308382
-0.000457871
-0.000354828
-0.00032037
-0.000370798
-0.000176442
-0.000328145
-4.94824e-05
-0.000221286
2.15354e-05
-5.58591e-05
3.31992e-05
5.86567e-05
1.54605e-05
0.000100691
6.85169e-05
1.57052e-05
-5.19189e-05
2.22031e-05
-5.41302e-05
9.11752e-06
-1.27133e-05
-2.87828e-05
4.31103e-05
-9.80857e-05
0.000103833
-0.000205136
0.000177678
-0.000340911
0.000257437
-0.000480543
0.000322613
-0.000602217
0.000356399
-0.000698918
0.000359979
-0.000771563
0.000340547
-0.00082282
0.000304792
-0.000856618
0.000258006
-0.000877148
0.000203903
-0.000887665
0.000145307
-0.000890282
8.32982e-05
-0.000886016
1.83e-05
-0.000874916
-5.08756e-05
-0.000855924
-0.000124321
-0.000826793
-0.000203901
-0.000783887
-0.000286338
-0.000721844
-0.000370577
-0.000634898
-0.000441732
-0.000516776
-0.000489306
-0.000368248
-0.000476727
-0.00019992
-0.000389618
-5.92811e-05
-0.000196199
2.3771e-06
-3.54148e-06
3.30739e-06
0.000100024
7.14846e-05
7.48919e-06
-5.92848e-05
-5.61152e-06
-4.09076e-05
-4.66439e-05
2.85725e-05
-0.000120234
0.000116928
-0.000228337
0.000212066
-0.000361023
0.000310485
-0.000494626
0.000391052
-0.000607895
0.000435825
-0.000693545
0.000442126
-0.000753364
0.000420065
-0.000791296
0.000378776
-0.000812366
0.000326181
-0.000821622
0.000267584
-0.000823405
0.000205992
-0.000820993
0.000143237
-0.000816643
7.92183e-05
-0.000811715
1.37282e-05
-0.000806899
-5.54955e-05
-0.000801944
-0.000128897
-0.000795593
-0.000210169
-0.000784618
-0.000296951
-0.000763063
-0.00039224
-0.000721691
-0.000482972
-0.000647194
-0.000564242
-0.000527146
-0.000596912
-0.000355506
-0.00056178
-0.000155514
-0.000395664
-2.19005e-05
-0.000137662
2.8582e-06
7.59128e-05
7.43233e-05
-1.05779e-05
-4.88689e-05
-5.0537e-05
-9.61343e-07
-0.000121461
9.94052e-05
-0.000222328
0.000217754
-0.000344855
0.000334413
-0.000469409
0.000434826
-0.000574744
0.000496161
-0.000650468
0.000511451
-0.00069824
0.0004898
-0.000723445
0.000445209
-0.000731973
0.000387275
-0.000729745
0.000323957
-0.000721525
0.000259401
-0.000711057
0.000195545
-0.000700766
0.000133051
-0.000692276
7.07678e-05
-0.000686486
8.15696e-06
-0.000684217
-5.7706e-05
-0.000685816
-0.000126914
-0.000691594
-0.000204322
-0.000700356
-0.000287625
-0.000708752
-0.000383777
-0.000708922
-0.000482215
-0.000686206
-0.000586941
-0.000621015
-0.000661845
-0.000490821
-0.000692552
-0.000287867
-0.00059786
-7.43555e-05
-0.000353634
7.04466e-06
-3.66226e-06
8.07037e-05
-3.22284e-05
-1.65682e-05
-9.72448e-05
6.44558e-05
-0.000188905
0.000191172
-0.000299241
0.000328323
-0.000414383
0.000449502
-0.000514385
0.000534894
-0.000585709
0.000567537
-0.000627136
0.000553065
-0.000645034
0.000507894
-0.000646161
0.000446568
-0.000637292
0.000378599
-0.000623952
0.000310767
-0.000609783
0.000245362
-0.000597091
0.000182889
-0.000586786
0.000122825
-0.000579349
6.32412e-05
-0.000574751
3.62791e-06
-0.000573446
-5.92351e-05
-0.00057571
-0.000124525
-0.000582706
-0.000197672
-0.000594879
-0.000275177
-0.000612283
-0.000366756
-0.000631434
-0.000462615
-0.000642547
-0.000575986
-0.000628227
-0.000675919
-0.000557853
-0.000762317
-0.000409902
-0.000746901
-0.000170419
-0.000592326
-4.73825e-06
-0.000169596
7.63771e-05
-5.16655e-05
3.4795e-05
-0.000134129
0.000147001
-0.000234192
0.000290876
-0.000339902
0.00043393
-0.000436624
0.000545897
-0.000508412
0.000606572
-0.000549935
0.000608962
-0.00056587
0.000568996
-0.00056453
0.000506507
-0.000553178
0.000435176
-0.000538283
0.00036365
-0.000523808
0.000296217
-0.000511648
0.000233174
-0.000502432
0.000173577
-0.000495763
0.000116196
-0.000491404
5.87607e-05
-0.000488834
1.20212e-06
-0.000488414
-5.9847e-05
-0.000490228
-0.000122437
-0.000495647
-0.000192586
-0.000505445
-0.000264961
-0.000521372
-0.000351327
-0.000542931
-0.000440491
-0.00056617
-0.00055319
-0.000579468
-0.000662107
-0.000557286
-0.00078412
-0.000471639
-0.000833763
-0.000279736
-0.000782238
-4.4391e-05
-0.000409923
3.39861e-05
-6.21732e-05
9.69661e-05
-0.000151662
0.000236884
-0.000249668
0.000388707
-0.000342955
0.000527366
-0.00041878
0.000621609
-0.000466414
0.000654394
-0.000486804
0.000629491
-0.000487691
0.000570111
-0.000477821
0.000496783
-0.000463996
0.000421496
-0.000451231
0.000350988
-0.000441383
0.000286419
-0.00043464
0.000226516
-0.000430329
0.000169227
-0.000427403
0.000113372
-0.000425444
5.66597e-05
-0.00042387
-2.07269e-07
-0.000423166
-6.08292e-05
-0.000423281
-0.000122027
-0.000425643
-0.000190673
-0.000430872
-0.000259246
-0.000441494
-0.000341352
-0.000458527
-0.000422778
-0.000482335
-0.000530094
-0.000506655
-0.000637022
-0.000513549
-0.000777339
-0.000473386
-0.00087341
-0.000348163
-0.000907196
-0.000114882
-0.000644297
-7.87603e-05
-6.42899e-05
0.00016102
-0.000152572
0.000325235
-0.000242272
0.000477962
-0.00032028
0.000605275
-0.0003769
0.000677958
-0.00040628
0.000683779
-0.000413632
0.000636767
-0.000407761
0.000564193
-0.000396824
0.000485725
-0.00038639
0.000410939
-0.000379373
0.000343855
-0.000375765
0.000282662
-0.000374532
0.000225238
-0.000374453
0.000168979
-0.000374413
0.000113391
-0.000374213
5.62382e-05
-0.0003734
-8.29252e-07
-0.000372653
-6.19166e-05
-0.000371727
-0.000122588
-0.000371913
-0.000191025
-0.00037317
-0.000257409
-0.000377957
-0.000337354
-0.000387426
-0.000412499
-0.000405029
-0.00051344
-0.000429632
-0.000611506
-0.000451064
-0.000756415
-0.000444547
-0.000879131
-0.00036895
-0.000982597
-0.000190488
-0.000823037
-0.000269015
-5.85248e-05
0.000219631
-0.000138637
0.000405636
-0.000215795
0.000554906
-0.000278363
0.000667979
-0.000319568
0.000719144
-0.000337356
0.000701863
-0.000338923
0.000638511
-0.000332638
0.000558131
-0.000325429
0.000478654
-0.000321071
0.000406709
-0.00032049
0.000343404
-0.000322427
0.000284654
-0.0003253
0.000228269
-0.000327915
0.000171556
-0.000329377
0.000115067
-0.000329831
5.65241e-05
-0.000328993
-1.34572e-06
-0.000327829
-6.34263e-05
-0.000326013
-0.000123909
-0.000324899
-0.000192722
-0.000323808
-0.000257769
-0.000324826
-0.000337217
-0.000327918
-0.000408435
-0.000337351
-0.000505164
-0.000354518
-0.000593275
-0.000376974
-0.000734934
-0.000387488
-0.00086783
-0.000344247
-0.00102565
-0.000212022
-0.000957023
-0.000481925
-4.7746e-05
0.000267309
-0.000115939
0.000473807
-0.000179559
0.000618179
-0.000228255
0.000716562
-0.000257869
0.000748582
-0.000268827
0.000712839
-0.000268823
0.00063839
-0.000265096
0.000554274
-0.000262954
0.000476332
-0.000264428
0.000407979
-0.000268962
0.000347799
-0.00027481
0.000290282
-0.000280294
0.000233721
-0.000284545
0.00017555
-0.000286848
0.000117475
-0.000287656
5.69869e-05
-0.000286717
-1.99832e-06
-0.000285264
-6.53788e-05
-0.000282852
-0.000125805
-0.000281053
-0.000195254
-0.000278697
-0.000259319
-0.00027783
-0.00033911
-0.000277163
-0.000407986
-0.00028082
-0.00050282
-0.000290213
-0.000582617
-0.000307621
-0.000718737
-0.000322202
-0.000852102
-0.000297097
-0.00105018
-0.000192188
-0.00106231
-0.000674522
-3.34528e-05
0.000300957
-8.69853e-05
0.000527463
-0.000136349
0.000667435
-0.00017291
0.000753232
-0.000194212
0.000769978
-0.000202126
0.000721083
-0.000203497
0.000639966
-0.000203836
0.000554839
-0.000206777
0.000479458
-0.000212934
0.00041428
-0.00022102
0.0003561
-0.000229311
0.000298639
-0.0002363
0.000240984
-0.00024148
0.000180671
-0.000244224
0.000120578
-0.000245225
5.77487e-05
-0.000244159
-2.57035e-06
-0.000242528
-6.74817e-05
-0.000239735
-0.000127893
-0.000237713
-0.000198043
-0.000234836
-0.000261216
-0.00023333
-0.000341728
-0.0002307
-0.000409325
-0.000230799
-0.000504182
-0.000234034
-0.000577931
-0.000246147
-0.000708163
-0.000261754
-0.00083527
-0.000250067
-0.00106168
-0.000168979
-0.00114347
-0.000843954
-1.77869e-05
0.000318798
-5.57646e-05
0.00056524
-9.1702e-05
0.000703175
-0.00011788
0.000779219
-0.000133137
0.000785129
-0.000139718
0.000727617
-0.000142962
0.000643062
-0.000146724
0.000558382
-0.000153148
0.000485677
-0.000162085
0.000422925
-0.000171979
0.000365859
-0.000181474
0.00030781
-0.000189228
0.000248735
-0.00019507
0.000186121
-0.000198283
0.000123971
-0.000199742
5.86954e-05
-0.000198912
-2.99763e-06
-0.000197558
-6.95441e-05
-0.000194828
-0.000129936
-0.000193135
-0.000200703
-0.000190462
-0.000262857
-0.000189516
-0.000343959
-0.000186847
-0.000410587
-0.000186068
-0.000506575
-0.000185669
-0.000576677
-0.000193021
-0.000702538
-0.000206759
-0.000819978
-0.000204548
-0.00106405
-0.000144799
-0.00120274
-0.000989409
-1.45813e-06
0.00032054
-2.32933e-05
0.00058702
-4.60528e-05
0.000725989
-6.32138e-05
0.000796441
-7.38859e-05
0.00079599
-8.02456e-05
0.000734296
-8.56403e-05
0.000648715
-9.215e-05
0.000565116
-0.000100723
0.000494517
-0.000110858
0.000433202
-0.000121198
0.000376537
-0.000130888
0.000317547
-0.00013877
0.000257047
-0.000144952
0.000192185
-0.000148557
0.000128119
-0.000150629
6.04273e-05
-0.000150334
-2.57928e-06
-0.00014972
-7.07861e-05
-0.000147542
-0.00013117
-0.000146726
-0.000202483
-0.0001448
-0.000263531
-0.000145121
-0.000344982
-0.000143517
-0.000410585
-0.000143901
-0.000507929
-0.000142967
-0.000575764
-0.000148787
-0.000698708
-0.000161896
-0.000805171
-0.000167161
-0.0010595
-0.000124547
-0.00124449
-0.00111469
1.4185e-05
0.000306477
8.42483e-06
0.000592365
-1.9481e-06
0.000736317
-1.06757e-05
0.000804856
-1.71494e-05
0.000802413
-2.29078e-05
0.0007399
-2.92444e-05
0.000654914
-3.68407e-05
0.000572395
-4.56675e-05
0.000503152
-5.54016e-05
0.00044253
-6.49374e-05
0.000385976
-7.40204e-05
0.000326163
-8.15381e-05
0.000264636
-8.78987e-05
0.000197976
-9.19835e-05
0.000132489
-9.50539e-05
6.27641e-05
-9.58529e-05
-1.22906e-06
-9.67287e-05
-7.08594e-05
-9.59175e-05
-0.000131111
-9.68534e-05
-0.000202777
-9.65508e-05
-0.000262583
-9.90736e-05
-0.000344031
-9.95909e-05
-0.000408386
-0.000102573
-0.000506879
-0.000102984
-0.000573307
-0.000109321
-0.000694559
-0.000122712
-0.000789743
-0.000135015
-0.00104838
-0.000107673
-0.00127057
-0.00122324
2.87401e-05
0.000278109
3.88538e-05
0.000582055
4.07985e-05
0.000734595
3.9848e-05
0.000805829
3.7357e-05
0.000805179
3.23174e-05
0.000745222
2.5481e-05
0.000662093
1.76345e-05
0.000580445
9.57789e-06
0.000511598
1.42084e-06
0.000450791
-6.18053e-06
0.000394074
-1.36263e-05
0.000333585
-1.99399e-05
0.000271575
-2.58941e-05
0.00020371
-3.01192e-05
0.000137499
-3.41531e-05
6.63186e-05
-3.62504e-05
1.84229e-06
-3.90864e-05
-6.8812e-05
-4.02636e-05
-0.000128711
-4.36872e-05
-0.000200504
-4.57613e-05
-0.000258964
-5.12888e-05
-0.000340077
-5.48278e-05
-0.000402909
-6.17603e-05
-0.000501978
-6.55677e-05
-0.000567205
-7.50215e-05
-0.000687547
-9.02996e-05
-0.000772161
-0.000109064
-0.00103135
-9.41753e-05
-0.00128379
-0.00131837
4.08894e-05
0.000237365
6.66636e-05
0.000555642
8.07866e-05
0.00072053
8.84164e-05
0.000797733
9.09722e-05
0.000802631
8.8176e-05
0.000747718
8.25156e-05
0.000667667
7.58224e-05
0.000586689
6.98274e-05
0.000517465
6.42019e-05
0.000455858
5.9371e-05
0.000398903
5.41634e-05
0.00033814
4.95356e-05
0.000276404
4.42285e-05
0.000208219
3.99253e-05
0.000142245
3.47174e-05
7.05436e-05
3.09008e-05
6.383e-06
2.54521e-05
-6.45811e-05
2.1477e-05
-0.000123684
1.46583e-05
-0.0001952
9.28694e-06
-0.000252139
-1.43269e-07
-0.000332535
-7.50765e-06
-0.000393594
-1.92918e-05
-0.000492511
-2.76402e-05
-0.000556387
-4.20293e-05
-0.000675917
-6.07945e-05
-0.00075071
-8.67739e-05
-0.00100768
-8.32444e-05
-0.0012852
-0.00140272
4.96711e-05
0.00018817
9.04888e-05
0.000514579
0.000117221
0.000694154
0.000133233
0.000781749
0.000141181
0.000795047
0.000141102
0.000748034
0.00013698
0.000672261
0.000131837
0.000591977
0.000128243
0.000521618
0.000125757
0.000458343
0.000124526
0.000400838
0.000122572
0.00033992
0.000120682
0.000279169
0.000116968
0.000211543
0.000113351
0.000146921
0.00010747
7.57717e-05
0.000102188
1.29352e-05
9.41317e-05
-5.74837e-05
8.71387e-05
-0.000115164
7.65143e-05
-0.000185905
6.73052e-05
-0.00024106
5.33127e-05
-0.000320332
4.14025e-05
-0.000379353
2.38447e-05
-0.00047731
9.79853e-06
-0.000539479
-1.11801e-05
-0.000657958
-3.45651e-05
-0.000724137
-6.79543e-05
-0.000977207
-7.4208e-05
-0.00127625
-0.0014782
5.30624e-05
0.000135226
0.000108649
0.000458138
0.000148562
0.000654326
0.000175253
0.000754375
0.000191017
0.000779347
0.000196234
0.000742301
0.000195812
0.000672699
0.000193329
0.000593829
0.00019269
0.00052226
0.000193363
0.000456894
0.000195776
0.000398589
0.000197104
0.000337692
0.000198114
0.000278553
0.000196126
0.000212469
0.000193353
0.00015034
0.000186858
8.10076e-05
0.000180076
2.06277e-05
0.000169245
-4.81608e-05
0.000158934
-0.000103629
0.000144092
-0.000172891
0.000130552
-0.000225878
0.000111432
-0.000303464
9.43976e-05
-0.000360103
7.03543e-05
-0.000456089
4.97574e-05
-0.000515929
2.06376e-05
-0.00063242
-8.87102e-06
-0.000691015
-5.09672e-05
-0.000938902
-6.64686e-05
-0.00125744
-0.00154624
4.99401e-05
8.59636e-05
0.000118587
0.000389369
0.000172375
0.000601065
0.000209375
0.000717498
0.000233354
0.000755844
0.000244553
0.000731285
0.000248487
0.00066941
0.000249301
0.000593046
0.000251815
0.000520549
0.000255828
0.00045269
0.000262151
0.000393236
0.000267305
0.000332124
0.000271995
0.000275023
0.000272669
0.000211157
0.000271718
0.00015265
0.000265587
8.62616e-05
0.000258195
2.96001e-05
0.000245398
-3.65194e-05
0.000232422
-8.87967e-05
0.000213837
-0.000155817
0.000196197
-0.000205992
0.000171907
-0.000281173
0.000149448
-0.000334829
0.000118332
-0.000427676
9.04629e-05
-0.00048442
5.19982e-05
-0.000597712
1.56068e-05
-0.000650064
-3.58846e-05
-0.000891917
-5.95524e-05
-0.00122943
-0.00160763
4.06899e-05
4.53551e-05
0.00011902
0.000309829
0.000186859
0.000533372
0.000237613
0.000665672
0.000273722
0.000719886
0.000294908
0.000709234
0.000306683
0.000657819
0.000312616
0.00058622
0.000318945
0.000514457
0.000325749
0.000444834
0.000335058
0.000384339
0.000342993
0.000322981
0.000350639
0.000268019
0.000353522
0.000206907
0.000354328
0.000152711
0.000348724
9.03039e-05
0.000341101
3.83183e-05
0.000326773
-2.40073e-05
0.000311565
-7.22059e-05
0.000289542
-0.00013596
0.000267934
-0.000182583
0.000238395
-0.000254314
0.000210204
-0.000304189
0.000171421
-0.00039237
0.000135442
-0.00044497
8.61366e-05
-0.000553199
4.15764e-05
-0.000600642
-2.10236e-05
-0.000835401
-5.25771e-05
-0.00119266
-0.00166277
3.0145e-05
1.60249e-05
0.000109524
0.000230603
0.000189118
0.00045458
0.000250468
0.000604694
0.000297714
0.000673247
0.000329609
0.000677489
0.000351043
0.000637251
0.000364792
0.000572308
0.000377104
0.000503277
0.000388231
0.00043323
0.00040132
0.000372573
0.000412429
0.000311138
0.000423367
0.000258584
0.000428945
0.000200384
0.000432197
0.000151158
0.000428099
9.32505e-05
0.000421361
4.69877e-05
0.000406797
-1.08369e-05
0.000390594
-5.37593e-05
0.000366338
-0.000113427
0.000341662
-0.000155201
0.000307463
-0.000222326
0.000273604
-0.000266874
0.000226759
-0.000348556
0.000181977
-0.000395464
0.00012069
-0.000496508
6.73775e-05
-0.000540679
-7.32333e-06
-0.000767369
-4.53341e-05
-0.00114734
-0.00171109
1.90221e-05
-3.16107e-06
9.0145e-05
0.000157886
0.000176729
0.00036807
0.000252439
0.000527284
0.000315902
0.000609972
0.000363506
0.00062846
0.000399499
0.000601679
0.000424418
0.000546127
0.000445165
0.00048315
0.000461625
0.000415394
0.000478546
0.000356439
0.000492072
0.000296066
0.000505338
0.000246268
0.000512685
0.000191333
0.000517815
0.000147132
0.000514972
9.42104e-05
0.000509269
5.39649e-05
0.000494762
1.54019e-06
0.000478
-3.5482e-05
0.000451752
-8.96878e-05
0.000424083
-0.000125624
0.000384893
-0.00018627
0.000344816
-0.000224205
0.000289126
-0.000297141
0.000234715
-0.00033717
0.000160378
-0.000428675
9.79032e-05
-0.000471938
9.64697e-06
-0.00068887
-3.48453e-05
-0.00109466
-0.00175065
1.68205e-05
-1.97852e-05
6.7585e-05
0.000108595
0.000148167
0.000288176
0.000227061
0.000449792
0.000301059
0.000536591
0.0003646
0.000565233
0.000418151
0.000549249
0.00046001
0.000503847
0.000495142
0.000449581
0.000522333
0.000387368
0.000547415
0.000333152
0.000566294
0.000276115
0.000583795
0.000230729
0.000594052
0.000179832
0.000601779
0.000141555
0.000600791
9.37742e-05
0.000596621
6.05401e-05
0.000582804
1.36869e-05
0.00056601
-1.591e-05
0.000538476
-6.41751e-05
0.000508313
-9.20877e-05
0.000464807
-0.000145301
0.000418856
-0.000173862
0.000354614
-0.000236328
0.000290294
-0.000266581
0.000202567
-0.000346336
0.000130516
-0.000390272
2.8003e-05
-0.000595569
-2.04604e-05
-0.00103321
-0.00177668
3.10616e-06
-2.23844e-05
3.29052e-05
7.65524e-05
0.000100763
0.000220424
0.000187669
0.00036009
0.000278548
0.000445766
0.000361146
0.000480364
0.00043584
0.000475222
0.000496827
0.000441088
0.000549333
0.000398162
0.000589923
0.000345013
0.000625493
0.00029881
0.00065169
0.000247997
0.000674544
0.000209149
0.000688452
0.000163852
0.000698952
0.000132379
0.000699762
9.07319e-05
0.000696916
6.48072e-05
0.000683315
2.48305e-05
0.000666143
2.86843e-06
0.000636455
-3.73191e-05
0.000603274
-5.69807e-05
0.000554105
-9.96997e-05
0.000501664
-0.000118905
0.000427677
-0.000167475
0.000354314
-0.000189414
0.000255189
-0.000255765
0.000177651
-0.000305979
6.5111e-05
-0.000498179
1.05593e-05
-0.000967162
-0.00177646
1.70096e-05
-4.28782e-05
7.08187e-06
9.04972e-05
3.16402e-05
0.000195948
0.000101336
0.000294366
0.000195372
0.000352614
0.000297486
0.000379304
0.000396374
0.000377709
0.000483122
0.000353707
0.000559652
0.000323607
0.000620688
0.000282748
0.000673255
0.000248531
0.000712217
0.000207664
0.000745165
0.000178679
0.000765871
0.000141686
0.000781828
0.000119115
0.000785657
8.52479e-05
0.000785344
6.81278e-05
0.000772202
3.59526e-05
0.000755329
2.32545e-05
0.000724055
-8.63588e-06
0.000689324
-1.78896e-05
0.000637294
-5.10819e-05
0.000582539
-5.82791e-05
0.000506144
-9.56143e-05
0.000431423
-0.000106029
0.000330295
-0.000160944
0.000248601
-0.000210803
0.000126311
-0.000387121
6.39032e-05
-0.000877102
-0.0017208
-7.80401e-05
4.56744e-05
-6.95494e-05
7.74039e-05
-4.41745e-05
0.000170925
2.05695e-05
0.000223041
0.000131859
0.000240605
0.000247893
0.000259612
0.000367312
0.000259026
0.000473658
0.000245026
0.000570008
0.00022861
0.000648237
0.000202298
0.00071596
0.000182201
0.000766757
0.000154454
0.000809525
0.000137229
0.000837182
0.000111419
0.000859003
9.86046e-05
0.000866545
7.48914e-05
0.000869956
6.61276e-05
0.000858847
4.40012e-05
0.000845203
3.84989e-05
0.00081556
1.75655e-05
0.000785266
1.42522e-05
0.000735724
-5.69055e-06
0.000688463
-8.86919e-06
0.00061631
-2.93307e-05
0.000552462
-3.97817e-05
0.000457264
-7.61385e-05
0.000385431
-0.000137651
0.000284712
-0.000307864
0.000200142
-0.000784085
-0.00155535
-0.000286705
0.000309018
-0.000339458
0.000139573
-0.000316811
0.000149597
-0.000208613
0.000122609
-8.06383e-05
0.000114322
6.6595e-05
0.000114431
0.000210185
0.000116708
0.000341711
0.000112555
0.00046321
0.000108902
0.000563997
9.97394e-05
0.000655791
9.26929e-05
0.000726998
8.14687e-05
0.000792479
7.43741e-05
0.000838941
6.32104e-05
0.000883153
5.73707e-05
0.00090904
4.70631e-05
0.000936047
4.2588e-05
0.000944248
3.33693e-05
0.000957036
2.99473e-05
0.000949446
2.18653e-05
0.000950215
1.90168e-05
0.000928106
1.18198e-05
0.000918415
8.71297e-06
0.000882847
-1.5276e-08
0.000862903
-7.16433e-06
0.000813778
-3.36304e-05
0.000773747
-7.26381e-05
0.000683148
-0.000213436
0.000470717
-0.000481623
-0.00104585
0.000328597
0.000454585
0.000605879
0.000724964
0.000838319
0.000949961
0.00106783
0.00117847
0.00128914
0.00138697
0.00148153
0.00156089
0.00163711
0.00169799
0.00175732
0.00180175
0.0018466
0.00187694
0.00190958
0.0019279
0.00195013
0.00195768
0.00196998
0.0019644
0.00195979
0.0019167
0.00184023
0.00160623
0.00113895
)
;

boundaryField
{
    movingWall
    {
        type            calculated;
        value           uniform 0;
    }
    fixedWalls
    {
        type            calculated;
        value           uniform 0;
    }
    frontAndBack
    {
        type            empty;
    }
}


// ************************************************************************* //
