/*--------------------------------*- C++ -*----------------------------------*\
| =========                 |                                                 |
| \\      /  F ield         | OpenFOAM: The Open Source CFD Toolbox           |
|  \\    /   O peration     | Version:  2406                                  |
|   \\  /    A nd           | Website:  www.openfoam.com                      |
|    \\/     M anipulation  |                                                 |
\*---------------------------------------------------------------------------*/
FoamFile
{
    version     2.0;
    format      ascii;
    arch        "LSB;label=32;scalar=64";
    class       volVectorField;
    location    "11.2";
    object      Uold;
}
// * * * * * * * * * * * * * * * * * * * * * * * * * * * * * * * * * * * * * //

dimensions      [0 1 -1 0 0 0 0];

internalField   nonuniform List<vector> 
3600
(
(2.30563e-05 -2.18592e-05 0)
(4.44521e-05 -7.26715e-06 0)
(8.03443e-06 1.39921e-05 0)
(-8.65667e-05 3.35348e-05 0)
(-0.000225653 4.34089e-05 0)
(-0.00038597 4.87398e-05 0)
(-0.000560093 4.98282e-05 0)
(-0.000736329 5.02721e-05 0)
(-0.000915838 5.01151e-05 0)
(-0.00109498 5.06942e-05 0)
(-0.00127695 5.15539e-05 0)
(-0.00146063 5.30356e-05 0)
(-0.00164819 5.46592e-05 0)
(-0.00183861 5.64528e-05 0)
(-0.00203245 5.805e-05 0)
(-0.00222811 5.93826e-05 0)
(-0.00242466 6.01764e-05 0)
(-0.00261974 6.0327e-05 0)
(-0.00281119 5.96213e-05 0)
(-0.0029959 5.79495e-05 0)
(-0.00317074 5.51533e-05 0)
(-0.00333202 5.11485e-05 0)
(-0.00347603 4.58423e-05 0)
(-0.00359879 3.92058e-05 0)
(-0.00369648 3.12296e-05 0)
(-0.00376531 2.19676e-05 0)
(-0.00380189 1.15135e-05 0)
(-0.00380321 2.7592e-08 0)
(-0.00376694 -1.22768e-05 0)
(-0.00369149 -2.512e-05 0)
(-0.00357623 -3.81685e-05 0)
(-0.00342158 -5.10356e-05 0)
(-0.00322914 -6.33008e-05 0)
(-0.00300174 -7.45254e-05 0)
(-0.0027434 -8.42799e-05 0)
(-0.0024593 -9.21722e-05 0)
(-0.0021556 -9.78756e-05 0)
(-0.00183918 -0.000101159 0)
(-0.00151743 -0.000101903 0)
(-0.00119781 -0.000100118 0)
(-0.000887617 -9.59343e-05 0)
(-0.000593523 -8.96062e-05 0)
(-0.000321475 -8.14651e-05 0)
(-7.61987e-05 -7.19259e-05 0)
(0.000138511 -6.13972e-05 0)
(0.000320391 -5.03219e-05 0)
(0.000467853 -3.90385e-05 0)
(0.00058092 -2.79018e-05 0)
(0.000659522 -1.70638e-05 0)
(0.000705331 -6.74909e-06 0)
(0.000718698 3.12492e-06 0)
(0.000702407 1.23749e-05 0)
(0.000656324 2.12463e-05 0)
(0.00058493 2.9236e-05 0)
(0.000488016 3.64122e-05 0)
(0.000375203 4.09899e-05 0)
(0.000249709 4.21739e-05 0)
(0.000133741 3.54815e-05 0)
(3.88616e-05 2.10999e-05 0)
(-1.92252e-06 -1.68537e-06 0)
(9.49828e-06 -4.53604e-05 0)
(-5.08247e-05 4.90292e-05 0)
(-0.000247851 0.00016241 0)
(-0.000561636 0.000264732 0)
(-0.000973737 0.000326458 0)
(-0.0014385 0.000363449 0)
(-0.00194008 0.000378659 0)
(-0.00245302 0.000385925 0)
(-0.00297512 0.000388001 0)
(-0.00349694 0.000390516 0)
(-0.00402142 0.00039315 0)
(-0.004545 0.000397141 0)
(-0.00506977 0.00040108 0)
(-0.00559277 0.000404673 0)
(-0.00611336 0.000406476 0)
(-0.00662731 0.000405776 0)
(-0.0071312 0.000401336 0)
(-0.0076191 0.000392382 0)
(-0.00808525 0.000377928 0)
(-0.00852223 0.000357324 0)
(-0.00892264 0.000329903 0)
(-0.00927821 0.000295301 0)
(-0.00958085 0.000253265 0)
(-0.00982233 0.000203851 0)
(-0.00999502 0.00014731 0)
(-0.0100918 8.42101e-05 0)
(-0.0101068 1.53675e-05 0)
(-0.0100352 -5.80862e-05 0)
(-0.00987369 -0.00013475 0)
(-0.00962099 -0.000212935 0)
(-0.00927774 -0.000290718 0)
(-0.00884678 -0.00036597 0)
(-0.00833332 -0.000436452 0)
(-0.00774491 -0.000499893 0)
(-0.00709141 -0.000554125 0)
(-0.00638473 -0.000597209 0)
(-0.00563859 -0.000627568 0)
(-0.00486797 -0.000644114 0)
(-0.00408868 -0.000646333 0)
(-0.00331658 -0.000634348 0)
(-0.00256713 -0.000608892 0)
(-0.00185454 -0.000571296 0)
(-0.00119154 -0.000523316 0)
(-0.000588539 -0.000467075 0)
(-5.3997e-05 -0.000404769 0)
(0.000406505 -0.000338653 0)
(0.000788965 -0.000270655 0)
(0.00109232 -0.000202559 0)
(0.00131584 -0.000135488 0)
(0.00146179 -7.05185e-05 0)
(0.00153082 -7.89405e-06 0)
(0.00152766 5.15472e-05 0)
(0.00145318 0.000107716 0)
(0.0013162 0.00015827 0)
(0.00111953 0.000201331 0)
(0.000882951 0.00022953 0)
(0.000617126 0.000237083 0)
(0.000364119 0.000209136 0)
(0.000144547 0.000144342 0)
(2.05709e-05 3.86526e-05 0)
(-1.76713e-05 -2.13259e-06 0)
(-0.000199053 0.00025899 0)
(-0.000600382 0.000535858 0)
(-0.00115694 0.00077454 0)
(-0.00184983 0.000927555 0)
(-0.00261276 0.00102079 0)
(-0.00342785 0.00106437 0)
(-0.00425917 0.00108464 0)
(-0.00510287 0.00109058 0)
(-0.00594419 0.00109341 0)
(-0.00678494 0.00109441 0)
(-0.00761844 0.00109578 0)
(-0.00844549 0.00109537 0)
(-0.0092605 0.00109212 0)
(-0.0100609 0.00108319 0)
(-0.0108398 0.00106668 0)
(-0.011591 0.00104002 0)
(-0.0123057 0.00100132 0)
(-0.0129751 0.000948595 0)
(-0.0135888 0.000880455 0)
(-0.0141364 0.000795731 0)
(-0.0146071 0.000693894 0)
(-0.0149905 0.000574837 0)
(-0.0152765 0.00043912 0)
(-0.0154563 0.000287834 0)
(-0.0155221 0.000122733 0)
(-0.0154678 -5.38675e-05 0)
(-0.0152892 -0.000239027 0)
(-0.0149842 -0.000429262 0)
(-0.014553 -0.000620553 0)
(-0.0139986 -0.000808442 0)
(-0.0133264 -0.000988123 0)
(-0.0125449 -0.00115462 0)
(-0.0116651 -0.00130295 0)
(-0.010701 -0.00142844 0)
(-0.00966878 -0.00152691 0)
(-0.00858697 -0.00159502 0)
(-0.00747543 -0.00163051 0)
(-0.00635503 -0.00163236 0)
(-0.00524666 -0.00160093 0)
(-0.00417068 -0.00153795 0)
(-0.00314585 -0.0014464 0)
(-0.00218908 -0.00133029 0)
(-0.00131432 -0.00119435 0)
(-0.000533017 -0.00104359 0)
(0.000146994 -0.000883076 0)
(0.000720012 -0.000717279 0)
(0.00118399 -0.000550186 0)
(0.0015375 -0.000384617 0)
(0.0017828 -0.00022292 0)
(0.00192047 -6.62448e-05 0)
(0.00195604 8.35965e-05 0)
(0.00189088 0.000225125 0)
(0.00173611 0.000353232 0)
(0.00149628 0.000461442 0)
(0.00119698 0.000534822 0)
(0.00085257 0.000557952 0)
(0.000517149 0.000504941 0)
(0.000215606 0.00036657 0)
(3.5714e-05 0.000134594 0)
(-4.91151e-05 0.000126342 0)
(-0.000367771 0.000641931 0)
(-0.000989972 0.00113148 0)
(-0.00179383 0.00153152 0)
(-0.00276128 0.00179152 0)
(-0.00380547 0.00194999 0)
(-0.00491121 0.00202745 0)
(-0.00603374 0.00206269 0)
(-0.00716984 0.0020717 0)
(-0.00829953 0.00207133 0)
(-0.00942376 0.0020647 0)
(-0.0105321 0.00205506 0)
(-0.0116237 0.00203957 0)
(-0.0126897 0.00201635 0)
(-0.0137256 0.00198115 0)
(-0.0147214 0.00193083 0)
(-0.0156688 0.00186148 0)
(-0.016556 0.00177019 0)
(-0.0173723 0.0016541 0)
(-0.018105 0.00151138 0)
(-0.0187424 0.00134072 0)
(-0.0192722 0.00114187 0)
(-0.0196836 0.00091541 0)
(-0.0199664 0.000662939 0)
(-0.0201125 0.000386927 0)
(-0.0201149 9.08113e-05 0)
(-0.0199691 -0.000221164 0)
(-0.0196726 -0.000543907 0)
(-0.0192253 -0.000871596 0)
(-0.0186294 -0.0011977 0)
(-0.0178901 -0.00151509 0)
(-0.0170148 -0.00181621 0)
(-0.0160144 -0.00209325 0)
(-0.0149021 -0.00233846 0)
(-0.0136943 -0.0025445 0)
(-0.0124099 -0.00270488 0)
(-0.0110702 -0.00281436 0)
(-0.00969821 -0.0028694 0)
(-0.00831798 -0.00286841 0)
(-0.0069538 -0.00281201 0)
(-0.00562938 -0.00270302 0)
(-0.00436667 -0.00254629 0)
(-0.0031855 -0.00234831 0)
(-0.00210231 -0.00211683 0)
(-0.00113057 -0.00186005 0)
(-0.000279565 -0.00158624 0)
(0.000443972 -0.00130282 0)
(0.00103754 -0.00101633 0)
(0.00149946 -0.000731542 0)
(0.00183223 -0.000452321 0)
(0.00203654 -0.000180928 0)
(0.0021187 7.95985e-05 0)
(0.00208034 0.000326031 0)
(0.00193425 0.000550041 0)
(0.00168558 0.000739845 0)
(0.00136338 0.000872461 0)
(0.000982939 0.00092164 0)
(0.000605385 0.00084975 0)
(0.00025739 0.000634252 0)
(4.42184e-05 0.000256221 0)
(-7.68594e-05 0.000342683 0)
(-0.000525948 0.00121106 0)
(-0.00136207 0.00196945 0)
(-0.00240351 0.00255912 0)
(-0.00363143 0.0029417 0)
(-0.00493687 0.00317253 0)
(-0.00630852 0.00328708 0)
(-0.00769331 0.00333702 0)
(-0.00909006 0.00334644 0)
(-0.0104741 0.00333754 0)
(-0.0118461 0.00331562 0)
(-0.0131919 0.00328471 0)
(-0.0145092 0.00324137 0)
(-0.015786 0.00318276 0)
(-0.0170156 0.00310326 0)
(-0.0181852 0.00299845 0)
(-0.0192847 0.00286321 0)
(-0.0203 0.00269379 0)
(-0.021219 0.00248679 0)
(-0.0220277 0.0022403 0)
(-0.0227139 0.0019534 0)
(-0.0232653 0.00162671 0)
(-0.0236719 0.00126203 0)
(-0.0239247 0.000862589 0)
(-0.0240172 0.000432729 0)
(-0.0239445 -2.205e-05 0)
(-0.0237044 -0.000495321 0)
(-0.0232963 -0.000979715 0)
(-0.0227223 -0.00146705 0)
(-0.021986 -0.00194833 0)
(-0.021094 -0.00241383 0)
(-0.0200547 -0.00285325 0)
(-0.0188796 -0.00325589 0)
(-0.0175828 -0.00361106 0)
(-0.0161815 -0.00390852 0)
(-0.014696 -0.00413909 0)
(-0.0131491 -0.00429523 0)
(-0.0115662 -0.00437174 0)
(-0.00997417 -0.00436619 0)
(-0.00840035 -0.0042793 0)
(-0.00687189 -0.004115 0)
(-0.00541407 -0.00388026 0)
(-0.00404977 -0.00358454 0)
(-0.00279796 -0.00323914 0)
(-0.00167396 -0.00285617 0)
(-0.000688125 -0.00244778 0)
(0.0001524 -0.00202498 0)
(0.000845425 -0.00159734 0)
(0.00138989 -0.00117199 0)
(0.00178938 -0.000754535 0)
(0.00204549 -0.000348482 0)
(0.00216581 4.18409e-05 0)
(0.00215254 0.000411261 0)
(0.00201985 0.000748041 0)
(0.00177303 0.00103447 0)
(0.00144327 0.00123896 0)
(0.001046 0.00132305 0)
(0.000647184 0.00123597 0)
(0.000275256 0.000938534 0)
(4.66974e-05 0.000396672 0)
(-0.00010231 0.000636649 0)
(-0.000673226 0.00194802 0)
(-0.00170834 0.00302197 0)
(-0.00296933 0.00381996 0)
(-0.0044357 0.00433116 0)
(-0.00597699 0.00463386 0)
(-0.00758614 0.00478304 0)
(-0.0092023 0.0048436 0)
(-0.0108271 0.00484822 0)
(-0.0124313 0.00482373 0)
(-0.014016 0.00477745 0)
(-0.0155633 0.0047138 0)
(-0.0170696 0.00462876 0)
(-0.0185198 0.00451846 0)
(-0.0199054 0.00437606 0)
(-0.0212113 0.00419607 0)
(-0.0224255 0.0039725 0)
(-0.0235326 0.00370115 0)
(-0.0245195 0.00337863 0)
(-0.025372 0.00300358 0)
(-0.0260781 0.00257613 0)
(-0.0266269 0.00209842 0)
(-0.02701 0.00157413 0)
(-0.0272208 0.00100861 0)
(-0.0272555 0.000408365 0)
(-0.0271122 -0.000218958 0)
(-0.026791 -0.000864924 0)
(-0.0262938 -0.00152029 0)
(-0.0256237 -0.00217507 0)
(-0.0247851 -0.00281845 0)
(-0.0237841 -0.00343873 0)
(-0.0226283 -0.00402332 0)
(-0.0213273 -0.00455893 0)
(-0.019894 -0.00503187 0)
(-0.0183442 -0.00542871 0)
(-0.0166977 -0.00573698 0)
(-0.014978 -0.00594613 0)
(-0.0132121 -0.00604847 0)
(-0.0114301 -0.00603996 0)
(-0.00966337 -0.00592089 0)
(-0.00794395 -0.00569602 0)
(-0.00630215 -0.00537453 0)
(-0.00476562 -0.00496924 0)
(-0.00335728 -0.00449574 0)
(-0.00209534 -0.00397089 0)
(-0.000991643 -0.0034117 0)
(-5.35663e-05 -0.00283357 0)
(0.000717712 -0.00224983 0)
(0.00132282 -0.00167038 0)
(0.00176777 -0.00110274 0)
(0.00205636 -0.00055163 0)
(0.00219869 -2.24739e-05 0)
(0.00219851 0.000477951 0)
(0.00207187 0.000934785 0)
(0.00182448 0.00132467 0)
(0.0014892 0.00160734 0)
(0.00108134 0.00173177 0)
(0.000669906 0.00163258 0)
(0.00028459 0.00125251 0)
(4.76484e-05 0.000539827 0)
(-0.000124267 0.00100385 0)
(-0.000803914 0.00284471 0)
(-0.00201804 0.00428036 0)
(-0.00347676 0.00530677 0)
(-0.0051575 0.0059534 0)
(-0.00690927 0.00632766 0)
(-0.00872882 0.00650841 0)
(-0.0105479 0.00657466 0)
(-0.0123708 0.00656829 0)
(-0.0141646 0.00652031 0)
(-0.0159306 0.00643995 0)
(-0.0176477 0.00633168 0)
(-0.0193115 0.00619086 0)
(-0.0209038 0.00601252 0)
(-0.0224151 0.00578882 0)
(-0.0238278 0.00551339 0)
(-0.0251291 0.00517976 0)
(-0.0263024 0.00478378 0)
(-0.0273346 0.00432267 0)
(-0.0282119 0.00379634 0)
(-0.0289239 0.00320674 0)
(-0.0294617 0.0025583 0)
(-0.0298201 0.00185724 0)
(-0.0299963 0.00111146 0)
(-0.0299903 0.000329819 0)
(-0.0298041 -0.000478132 0)
(-0.0294408 -0.00130255 0)
(-0.028904 -0.00213326 0)
(-0.0281971 -0.00295967 0)
(-0.027323 -0.00377036 0)
(-0.0262843 -0.00455274 0)
(-0.0250839 -0.00529272 0)
(-0.0237262 -0.0059747 0)
(-0.0222181 -0.00658177 0)
(-0.0205707 -0.00709643 0)
(-0.0188004 -0.00750161 0)
(-0.0169294 -0.007782 0)
(-0.014986 -0.00792553 0)
(-0.0130043 -0.00792481 0)
(-0.0110222 -0.00777821 0)
(-0.00907998 -0.00749055 0)
(-0.00721716 -0.00707308 0)
(-0.00547051 -0.00654261 0)
(-0.0038709 -0.00592033 0)
(-0.00244259 -0.00522958 0)
(-0.00120093 -0.00449411 0)
(-0.000154372 -0.00373554 0)
(0.000697288 -0.00297241 0)
(0.00135763 -0.0022184 0)
(0.00183693 -0.00148347 0)
(0.00214332 -0.000773537 0)
(0.00229144 -9.47935e-05 0)
(0.00228835 0.000544958 0)
(0.00215332 0.00112828 0)
(0.00189342 0.0016267 0)
(0.00154359 0.00199123 0)
(0.00111932 0.00215826 0)
(0.000692313 0.00204653 0)
(0.000293122 0.00158055 0)
(4.83737e-05 0.000688797 0)
(-0.000144136 0.00143344 0)
(-0.00092157 0.00387929 0)
(-0.00229554 0.00571555 0)
(-0.00393034 0.00698577 0)
(-0.00580133 0.00777092 0)
(-0.00773893 0.00821374 0)
(-0.00974336 0.00842083 0)
(-0.0117395 0.00848635 0)
(-0.0137345 0.00846181 0)
(-0.0156916 0.00838191 0)
(-0.0176129 0.00825761 0)
(-0.0194744 0.00809306 0)
(-0.0212707 0.00788297 0)
(-0.0229817 0.00762131 0)
(-0.0245964 0.00729942 0)
(-0.0260958 0.00691038 0)
(-0.0274664 0.00644775 0)
(-0.0286913 0.00590805 0)
(-0.029758 0.00528994 0)
(-0.0306542 0.00459555 0)
(-0.0313724 0.00382967 0)
(-0.0319079 0.00300005 0)
(-0.0322608 0.00211629 0)
(-0.0324341 0.0011893 0)
(-0.0324343 0.000230183 0)
(-0.0322685 -0.000750394 0)
(-0.0319438 -0.00174269 0)
(-0.0314649 -0.0027377 0)
(-0.0308331 -0.00372664 0)
(-0.0300458 -0.0047 0)
(-0.029097 -0.00564648 0)
(-0.0279785 -0.00655207 0)
(-0.0266819 -0.00739951 0)
(-0.0252014 -0.00816831 0)
(-0.0235364 -0.00883543 0)
(-0.0216945 -0.00937668 0)
(-0.019693 -0.00976872 0)
(-0.0175601 -0.00999137 0)
(-0.0153352 -0.0100301 0)
(-0.0130664 -0.00987827 0)
(-0.0108084 -0.00953839 0)
(-0.00861745 -0.00902288 0)
(-0.00654812 -0.00835312 0)
(-0.0046475 -0.00755772 0)
(-0.00295305 -0.00666945 0)
(-0.00148887 -0.00572225 0)
(-0.000267443 -0.00474737 0)
(0.000712147 -0.00377151 0)
(0.00145766 -0.00281421 0)
(0.00198628 -0.00188899 0)
(0.00231375 -0.00100317 0)
(0.00246275 -0.000163215 0)
(0.00244683 0.000623133 0)
(0.00229111 0.00133698 0)
(0.00200592 0.00194596 0)
(0.00162961 0.00239295 0)
(0.00117852 0.00260219 0)
(0.000727458 0.00247567 0)
(0.000307612 0.00191962 0)
(5.05395e-05 0.00084135 0)
(-0.000161645 0.00192111 0)
(-0.00102587 0.00504069 0)
(-0.00254156 0.00731313 0)
(-0.00433225 0.00884202 0)
(-0.00637156 0.00976925 0)
(-0.00847323 0.0102784 0)
(-0.0106407 0.0105073 0)
(-0.0127924 0.0105662 0)
(-0.0149383 0.0105167 0)
(-0.0170382 0.010397 0)
(-0.0190951 0.0102196 0)
(-0.0210823 0.00998813 0)
(-0.0229942 0.0096966 0)
(-0.0248086 0.00933796 0)
(-0.0265139 0.00890296 0)
(-0.0280899 0.00838449 0)
(-0.0295231 0.00777677 0)
(-0.0307968 0.00707777 0)
(-0.0319007 0.00628877 0)
(-0.0328255 0.00541547 0)
(-0.0335697 0.00446716 0)
(-0.0341356 0.00345646 0)
(-0.0345329 0.00239756 0)
(-0.0347751 0.00130488 0)
(-0.0348787 0.000191119 0)
(-0.0348589 -0.000933825 0)
(-0.0347273 -0.00206342 0)
(-0.0344876 -0.00319388 0)
(-0.0341349 -0.00432276 0)
(-0.0336539 -0.00544687 0)
(-0.0330206 -0.00655999 0)
(-0.0322047 -0.00765078 0)
(-0.0311732 -0.00870144 0)
(-0.0298958 -0.0096871 0)
(-0.0283492 -0.0105766 0)
(-0.0265229 -0.0113342 0)
(-0.0244226 -0.0119227 0)
(-0.0220735 -0.012307 0)
(-0.0195207 -0.0124583 0)
(-0.0168278 -0.0123585 0)
(-0.0140726 -0.0120027 0)
(-0.011341 -0.0114018 0)
(-0.00871977 -0.0105816 0)
(-0.00628745 -0.00958047 0)
(-0.00410876 -0.00844559 0)
(-0.00222782 -0.00722724 0)
(-0.000668544 -0.00597294 0)
(0.000567478 -0.00472348 0)
(0.00149276 -0.00350875 0)
(0.00213487 -0.00234863 0)
(0.0025224 -0.00125273 0)
(0.0026919 -0.000227338 0)
(0.00266896 0.000721386 0)
(0.00248938 0.00157495 0)
(0.0021704 0.00229906 0)
(0.00175662 0.00282975 0)
(0.00126678 0.00307998 0)
(0.000780517 0.00293471 0)
(0.000329931 0.00228154 0)
(5.42214e-05 0.00100436 0)
(-0.000177596 0.00245889 0)
(-0.00111977 0.00631197 0)
(-0.00276174 0.00905083 0)
(-0.00469083 0.0108504 0)
(-0.0068794 0.0119218 0)
(-0.00912651 0.0124946 0)
(-0.0114386 0.0127406 0)
(-0.0137287 0.0127873 0)
(-0.0160092 0.0127067 0)
(-0.0182369 0.0125403 0)
(-0.0204158 0.0123019 0)
(-0.022517 0.0119945 0)
(-0.0245351 0.0116114 0)
(-0.0264459 0.0111446 0)
(-0.0282378 0.0105846 0)
(-0.0298897 0.00992447 0)
(-0.0313891 0.00916 0)
(-0.0327209 0.00829199 0)
(-0.033879 0.00732617 0)
(-0.0348611 0.00627432 0)
(-0.035676 0.00515296 0)
(-0.0363404 0.00398214 0)
(-0.0368805 0.0027824 0)
(-0.0373275 0.00157177 0)
(-0.0377136 0.000362571 0)
(-0.0380653 -0.000840266 0)
(-0.0383977 -0.00203959 0)
(-0.0387094 -0.00324424 0)
(-0.0389798 -0.00446593 0)
(-0.0391691 -0.00571508 0)
(-0.0392204 -0.00699651 0)
(-0.0390646 -0.00830554 0)
(-0.0386271 -0.00962529 0)
(-0.0378356 -0.0109253 0)
(-0.0366288 -0.0121622 0)
(-0.0349644 -0.0132818 0)
(-0.0328264 -0.0142236 0)
(-0.0302305 -0.0149267 0)
(-0.0272267 -0.0153362 0)
(-0.0238982 -0.0154106 0)
(-0.0203571 -0.0151281 0)
(-0.0167351 -0.0144908 0)
(-0.0131726 -0.0135263 0)
(-0.00980405 -0.0122852 0)
(-0.00674576 -0.0108355 0)
(-0.00408342 -0.00925402 0)
(-0.00186851 -0.00761626 0)
(-0.00011427 -0.00598845 0)
(0.00119436 -0.00442007 0)
(0.00209903 -0.00294352 0)
(0.00264869 -0.00157344 0)
(0.00290325 -0.000315944 0)
(0.00290976 0.000826595 0)
(0.00272328 0.00183914 0)
(0.00237459 0.00268887 0)
(0.00191974 0.00330759 0)
(0.00138308 0.00359883 0)
(0.000852018 0.00343087 0)
(0.00036079 0.00267195 0)
(5.9657e-05 0.00118031 0)
(-0.000191955 0.00304325 0)
(-0.00120413 0.00768379 0)
(-0.00295908 0.0109162 0)
(-0.00501172 0.0129975 0)
(-0.00733365 0.0142155 0)
(-0.00971105 0.0148504 0)
(-0.0121534 0.0151102 0)
(-0.0145689 0.0151405 0)
(-0.0169725 0.0150243 0)
(-0.0193184 0.0148059 0)
(-0.0216117 0.0145007 0)
(-0.023822 0.0141107 0)
(-0.0259437 0.0136286 0)
(-0.0279517 0.0130454 0)
(-0.0298344 0.0123517 0)
(-0.031571 0.0115419 0)
(-0.0331511 0.0106146 0)
(-0.034564 0.00957583 0)
(-0.0358124 0.00843922 0)
(-0.0369075 0.00722692 0)
(-0.037878 0.00596734 0)
(-0.0387654 0.00469187 0)
(-0.0396245 0.00342913 0)
(-0.0405134 0.00219937 0)
(-0.0414867 0.00100941 0)
(-0.0425824 -0.000149395 0)
(-0.0438145 -0.00130031 0)
(-0.0451653 -0.00247698 0)
(-0.0465839 -0.00371714 0)
(-0.0479865 -0.00505516 0)
(-0.0492628 -0.00651482 0)
(-0.0502832 -0.00810291 0)
(-0.0509102 -0.0098048 0)
(-0.0510096 -0.0115821 0)
(-0.0504634 -0.0133729 0)
(-0.0491819 -0.0150952 0)
(-0.0471142 -0.0166523 0)
(-0.0442571 -0.0179416 0)
(-0.04066 -0.0188648 0)
(-0.0364265 -0.0193391 0)
(-0.0317103 -0.0193086 0)
(-0.0267052 -0.0187528 0)
(-0.0216299 -0.0176925 0)
(-0.0167068 -0.0161891 0)
(-0.0121408 -0.0143384 0)
(-0.00809582 -0.0122578 0)
(-0.00468215 -0.0100697 0)
(-0.00194638 -0.00788624 0)
(0.000118949 -0.00579436 0)
(0.00157049 -0.00385221 0)
(0.00248654 -0.0020866 0)
(0.0029643 -0.000505252 0)
(0.00308737 0.000895808 0)
(0.00294434 0.00210966 0)
(0.00259114 0.00311053 0)
(0.00210447 0.00383081 0)
(0.00152031 0.00416807 0)
(0.000938819 0.00397542 0)
(0.000398975 0.0031012 0)
(6.65189e-05 0.00137509 0)
(-0.000205203 0.00366883 0)
(-0.00128104 0.00914458 0)
(-0.00313804 0.0128941 0)
(-0.00530206 0.0152667 0)
(-0.00774444 0.0166335 0)
(-0.0102402 0.0173294 0)
(-0.0128019 0.0176007 0)
(-0.0153337 0.0176121 0)
(-0.0178531 0.0174574 0)
(-0.0203123 0.017184 0)
(-0.0227177 0.0168087 0)
(-0.0250375 0.0163322 0)
(-0.0272667 0.0157467 0)
(-0.0293792 0.0150426 0)
(-0.0313648 0.0142114 0)
(-0.0332039 0.0132499 0)
(-0.0348914 0.0121625 0)
(-0.0364261 0.0109649 0)
(-0.0378274 0.00968479 0)
(-0.0391323 0.00836208 0)
(-0.0404041 0.00704408 0)
(-0.0417258 0.00577812 0)
(-0.0431945 0.00460101 0)
(-0.0449054 0.00352953 0)
(-0.0469369 0.00255369 0)
(-0.0493327 0.00163571 0)
(-0.0520917 0.000714282 0)
(-0.0551604 -0.000286504 0)
(-0.0584336 -0.0014459 0)
(-0.0617592 -0.00283453 0)
(-0.0649486 -0.00450343 0)
(-0.0677893 -0.00647492 0)
(-0.0700602 -0.00873632 0)
(-0.0715482 -0.0112368 0)
(-0.0720638 -0.0138879 0)
(-0.0714569 -0.0165677 0)
(-0.0696298 -0.0191283 0)
(-0.0665482 -0.0214076 0)
(-0.0622505 -0.0232424 0)
(-0.0568512 -0.0244852 0)
(-0.0505417 -0.0250209 0)
(-0.0435823 -0.0247829 0)
(-0.0362868 -0.0237653 0)
(-0.0289975 -0.0220295 0)
(-0.0220523 -0.0196995 0)
(-0.0157472 -0.0169474 0)
(-0.0103052 -0.0139686 0)
(-0.00585112 -0.0109535 0)
(-0.00241376 -0.00805951 0)
(6.87608e-05 -0.00539697 0)
(0.00171048 -0.00302148 0)
(0.00266324 -0.000949153 0)
(0.00306927 0.000832059 0)
(0.00307289 0.00232984 0)
(0.00277431 0.00353438 0)
(0.00228598 0.00438688 0)
(0.00166616 0.00478538 0)
(0.00103566 0.0045715 0)
(0.000443006 0.00357395 0)
(7.46752e-05 0.0015914 0)
(-0.000217368 0.00433288 0)
(-0.00135131 0.0106873 0)
(-0.00330125 0.0149754 0)
(-0.00556665 0.0176481 0)
(-0.00811916 0.0191666 0)
(-0.0107241 0.0199237 0)
(-0.0133974 0.0202061 0)
(-0.0160397 0.020198 0)
(-0.0186713 0.0200043 0)
(-0.021243 0.0196757 0)
(-0.0237626 0.0192296 0)
(-0.0261972 0.0186661 0)
(-0.028543 0.0179766 0)
(-0.0307739 0.0171516 0)
(-0.0328818 0.0161847 0)
(-0.0348518 0.0150782 0)
(-0.0366891 0.0138475 0)
(-0.0384111 0.0125257 0)
(-0.0400684 0.0111653 0)
(-0.0417421 0.00983482 0)
(-0.0435514 0.00860938 0)
(-0.0456395 0.007555 0)
(-0.048159 0.00671114 0)
(-0.0512442 0.00607673 0)
(-0.0549881 0.00560387 0)
(-0.059421 0.00520125 0)
(-0.0644999 0.0047454 0)
(-0.0701052 0.00409702 0)
(-0.0760476 0.00311894 0)
(-0.0820792 0.00169342 0)
(-0.0879105 -0.000263056 0)
(-0.0932295 -0.00278823 0)
(-0.0977221 -0.00586674 0)
(-0.101092 -0.00942727 0)
(-0.103077 -0.0133443 0)
(-0.103467 -0.0174439 0)
(-0.102113 -0.0215142 0)
(-0.0989406 -0.0253175 0)
(-0.0939589 -0.0286076 0)
(-0.0872707 -0.0311483 0)
(-0.0790784 -0.0327365 0)
(-0.0696861 -0.0332251 0)
(-0.0594922 -0.032547 0)
(-0.0489677 -0.0307324 0)
(-0.0386202 -0.0279162 0)
(-0.0289393 -0.0243272 0)
(-0.0203403 -0.0202588 0)
(-0.0131072 -0.0160243 0)
(-0.00737027 -0.0119049 0)
(-0.00309958 -0.00811305 0)
(-0.000153107 -0.00476946 0)
(0.00169143 -0.00191761 0)
(0.00266331 0.000459951 0)
(0.00299474 0.0023929 0)
(0.00285965 0.00390057 0)
(0.00243016 0.00494636 0)
(0.00180423 0.00544005 0)
(0.00113576 0.00521903 0)
(0.000490917 0.00409475 0)
(8.38607e-05 0.00183298 0)
(-0.00022872 0.00503188 0)
(-0.00141619 0.0123043 0)
(-0.00345139 0.0171504 0)
(-0.00580998 0.0201316 0)
(-0.0084644 0.021805 0)
(-0.0111716 0.0226247 0)
(-0.0139511 0.0229195 0)
(-0.0167009 0.0228935 0)
(-0.0194441 0.0226631 0)
(-0.0221305 0.0222817 0)
(-0.0247698 0.0217679 0)
(-0.0273287 0.0211205 0)
(-0.0298049 0.0203311 0)
(-0.0321737 0.0193909 0)
(-0.0344317 0.0182987 0)
(-0.0365737 0.0170678 0)
(-0.0386247 0.0157338 0)
(-0.0406362 0.0143609 0)
(-0.0427109 0.0130415 0)
(-0.0449992 0.0118874 0)
(-0.0477 0.0110083 0)
(-0.0510322 0.0104845 0)
(-0.0552054 0.0103406 0)
(-0.0603786 0.0105299 0)
(-0.0666314 0.0109335 0)
(-0.0739433 0.0113743 0)
(-0.0821892 0.0116389 0)
(-0.0911456 0.0115045 0)
(-0.100507 0.0107639 0)
(-0.109905 0.00924832 0)
(-0.11894 0.00684524 0)
(-0.1272 0.00351094 0)
(-0.134293 -0.000723539 0)
(-0.13986 -0.00575268 0)
(-0.143595 -0.0114021 0)
(-0.145247 -0.0174378 0)
(-0.144632 -0.0235782 0)
(-0.141634 -0.029507 0)
(-0.136215 -0.0348883 0)
(-0.128427 -0.0393853 0)
(-0.11843 -0.0426829 0)
(-0.106508 -0.0445171 0)
(-0.0930807 -0.0447094 0)
(-0.078705 -0.043202 0)
(-0.0640478 -0.040087 0)
(-0.0498316 -0.0356168 0)
(-0.0367519 -0.0301842 0)
(-0.0253744 -0.0242673 0)
(-0.016056 -0.0183454 0)
(-0.00889508 -0.0128192 0)
(-0.00376917 -0.00794742 0)
(-0.000386439 -0.00384716 0)
(0.00159917 -0.000511634 0)
(0.00255081 0.00211557 0)
(0.00275906 0.00410087 0)
(0.00249171 0.00545024 0)
(0.00191382 0.0061039 0)
(0.00123135 0.005908 0)
(0.000540965 0.00466296 0)
(9.40227e-05 0.00210162 0)
(-0.000239222 0.00576348 0)
(-0.00147592 0.0139901 0)
(-0.00358962 0.019412 0)
(-0.00603437 0.02271 0)
(-0.00878393 0.0245424 0)
(-0.0115881 0.0254279 0)
(-0.0144702 0.0257383 0)
(-0.0173263 0.0256986 0)
(-0.0201826 0.0254365 0)
(-0.0229885 0.025008 0)
(-0.0257558 0.0244331 0)
(-0.0284516 0.0237094 0)
(-0.0310761 0.0228293 0)
(-0.0336081 0.0217876 0)
(-0.0360538 0.0205933 0)
(-0.0384262 0.0192806 0)
(-0.0407854 0.0179207 0)
(-0.0432391 0.0166287 0)
(-0.0459705 0.0155579 0)
(-0.0492267 0.0148758 0)
(-0.0533039 0.0147252 0)
(-0.0584969 0.0151804 0)
(-0.0650505 0.0162152 0)
(-0.0731084 0.0176929 0)
(-0.0826857 0.019381 0)
(-0.0936569 0.0209807 0)
(-0.105765 0.0221646 0)
(-0.118641 0.0226135 0)
(-0.131836 0.0220498 0)
(-0.144854 0.0202644 0)
(-0.157193 0.0171359 0)
(-0.168377 0.0126402 0)
(-0.177984 0.00684972 0)
(-0.185654 -7.53341e-05 0)
(-0.191097 -0.0079008 0)
(-0.194079 -0.016333 0)
(-0.194418 -0.0250312 0)
(-0.191974 -0.0336178 0)
(-0.186651 -0.0416861 0)
(-0.178412 -0.0488113 0)
(-0.167298 -0.054566 0)
(-0.153471 -0.0585461 0)
(-0.137249 -0.0604114 0)
(-0.119146 -0.0599374 0)
(-0.0998861 -0.0570753 0)
(-0.0803771 -0.052004 0)
(-0.0616327 -0.0451502 0)
(-0.0446299 -0.0371538 0)
(-0.030146 -0.0287637 0)
(-0.0186064 -0.0206939 0)
(-0.0100496 -0.0134764 0)
(-0.00417088 -0.00740526 0)
(-0.000494025 -0.00253505 0)
(0.00152588 0.00120945 0)
(0.00235605 0.00396271 0)
(0.00241291 0.00580263 0)
(0.00196999 0.0067294 0)
(0.00131395 0.00661979 0)
(0.000591665 0.00527554 0)
(0.000105216 0.00239958 0)
(-0.000248956 0.00652504 0)
(-0.00153084 0.0157389 0)
(-0.00371665 0.0217534 0)
(-0.00624122 0.0253767 0)
(-0.00907999 0.0273733 0)
(-0.0119769 0.0283292 0)
(-0.0149591 0.0286608 0)
(-0.0179216 0.028614 0)
(-0.0208938 0.0283281 0)
(-0.0238254 0.027862 0)
(-0.0267308 0.0272366 0)
(-0.0295786 0.0264493 0)
(-0.0323731 0.0254952 0)
(-0.0351005 0.024377 0)
(-0.0377838 0.0231234 0)
(-0.0404681 0.0218054 0)
(-0.0432701 0.0205535 0)
(-0.0463829 0.01956 0)
(-0.0501 0.0190591 0)
(-0.0547855 0.0192777 0)
(-0.0608314 0.02037 0)
(-0.0685789 0.0223594 0)
(-0.0782544 0.0251113 0)
(-0.0899181 0.028343 0)
(-0.103449 0.0316619 0)
(-0.118552 0.0346172 0)
(-0.134784 0.0367535 0)
(-0.151596 0.0376586 0)
(-0.168382 0.0370047 0)
(-0.184536 0.0345783 0)
(-0.199503 0.0302951 0)
(-0.212822 0.0241983 0)
(-0.224132 0.0164421 0)
(-0.233177 0.00726562 0)
(-0.239774 -0.00303213 0)
(-0.243788 -0.0141122 0)
(-0.245101 -0.0256061 0)
(-0.243589 -0.0371185 0)
(-0.239112 -0.0482224 0)
(-0.231518 -0.0584542 0)
(-0.220671 -0.0673128 0)
(-0.206499 -0.0742703 0)
(-0.189058 -0.0788036 0)
(-0.168616 -0.0804515 0)
(-0.145731 -0.0789006 0)
(-0.121298 -0.0740889 0)
(-0.0965281 -0.0663016 0)
(-0.0728351 -0.0562157 0)
(-0.0516062 -0.0448368 0)
(-0.0339033 -0.0333148 0)
(-0.0202386 -0.0226674 0)
(-0.0104976 -0.0135755 0)
(-0.00413234 -0.0062893 0)
(-0.000375712 -0.000762962 0)
(0.00149416 0.00322206 0)
(0.00211868 0.00585499 0)
(0.00194205 0.0072409 0)
(0.00137429 0.00732246 0)
(0.000642108 0.00592463 0)
(0.000117805 0.0027285 0)
(-0.000257734 0.00731388 0)
(-0.00158036 0.0175451 0)
(-0.00383171 0.024168 0)
(-0.00642975 0.0281251 0)
(-0.00935204 0.0302924 0)
(-0.0123377 0.0313251 0)
(-0.0154179 0.0316855 0)
(-0.0184872 0.031641 0)
(-0.0215788 0.0313425 0)
(-0.0246429 0.0308516 0)
(-0.0276976 0.030191 0)
(-0.0307141 0.029359 0)
(-0.033704 0.0283568 0)
(-0.0366665 0.027203 0)
(-0.0396527 0.0259613 0)
(-0.0427591 0.0247641 0)
(-0.0461866 0.0238317 0)
(-0.0502447 0.0234625 0)
(-0.0553593 0.0239828 0)
(-0.06201 0.0256588 0)
(-0.0706486 0.0286037 0)
(-0.0815957 0.0327177 0)
(-0.0949731 0.0376838 0)
(-0.110668 0.0430127 0)
(-0.128342 0.0481125 0)
(-0.147462 0.0523631 0)
(-0.167352 0.0551868 0)
(-0.187262 0.0561083 0)
(-0.206454 0.054804 0)
(-0.224278 0.051129 0)
(-0.240237 0.0451155 0)
(-0.254006 0.0369426 0)
(-0.265422 0.0268906 0)
(-0.274437 0.0152947 0)
(-0.281075 0.00250925 0)
(-0.285377 -0.0111129 0)
(-0.287352 -0.0252251 0)
(-0.286946 -0.0394775 0)
(-0.284014 -0.0534979 0)
(-0.278319 -0.0668672 0)
(-0.26954 -0.079094 0)
(-0.257316 -0.0895994 0)
(-0.241321 -0.0977215 0)
(-0.221373 -0.102753 0)
(-0.197569 -0.104028 0)
(-0.170437 -0.101058 0)
(-0.141036 -0.0937161 0)
(-0.110968 -0.0824085 0)
(-0.0822059 -0.0681677 0)
(-0.0567182 -0.0525494 0)
(-0.0359755 -0.0372725 0)
(-0.0205359 -0.0237614 0)
(-0.0100516 -0.0127726 0)
(-0.0035742 -0.00445124 0)
(-4.55766e-05 0.00148689 0)
(0.00150656 0.00538749 0)
(0.00178961 0.00752682 0)
(0.00140099 0.00796892 0)
(0.00069166 0.0065985 0)
(0.000132417 0.00309103 0)
(-0.00026548 0.00812726 0)
(-0.00162394 0.0194032 0)
(-0.00393361 0.0266495 0)
(-0.0065983 0.0309497 0)
(-0.00959796 0.0332954 0)
(-0.012668 0.0344132 0)
(-0.0158439 0.0348125 0)
(-0.0190202 0.0347823 0)
(-0.022234 0.0344856 0)
(-0.0254375 0.033987 0)
(-0.0286528 0.0333118 0)
(-0.0318563 0.0324615 0)
(-0.0350707 0.0314498 0)
(-0.0383168 0.0303241 0)
(-0.0416893 0.0292059 0)
(-0.0453601 0.0283217 0)
(-0.0496437 0.0280176 0)
(-0.0549898 0.0287186 0)
(-0.061957 0.03083 0)
(-0.0711016 0.0346012 0)
(-0.0828579 0.0400169 0)
(-0.0974238 0.0467594 0)
(-0.114711 0.0542517 0)
(-0.134336 0.0617463 0)
(-0.155664 0.0684283 0)
(-0.177864 0.0735133 0)
(-0.200005 0.076338 0)
(-0.221173 0.07644 0)
(-0.240597 0.0736089 0)
(-0.257736 0.0678873 0)
(-0.272314 0.0595224 0)
(-0.284287 0.0488902 0)
(-0.293788 0.0364188 0)
(-0.301053 0.0225295 0)
(-0.306348 0.00760066 0)
(-0.309911 -0.00804497 0)
(-0.311906 -0.0241347 0)
(-0.312387 -0.0404258 0)
(-0.311269 -0.0566743 0)
(-0.308307 -0.0725951 0)
(-0.303083 -0.087816 0)
(-0.295023 -0.101831 0)
(-0.283436 -0.113964 0)
(-0.26761 -0.12336 0)
(-0.246975 -0.129031 0)
(-0.221314 -0.129975 0)
(-0.191019 -0.125397 0)
(-0.157297 -0.115015 0)
(-0.122239 -0.0993723 0)
(-0.0885879 -0.080024 0)
(-0.0591349 -0.0593336 0)
(-0.0358567 -0.0398517 0)
(-0.019309 -0.0234219 0)
(-0.0086875 -0.0108132 0)
(-0.00258672 -0.00182347 0)
(0.000425317 0.00407558 0)
(0.00145297 0.0074229 0)
(0.00137669 0.00848956 0)
(0.000738811 0.00727889 0)
(0.000149859 0.00349031 0)
(-0.000271809 0.00896124 0)
(-0.00166008 0.0213054 0)
(-0.00401958 0.0291894 0)
(-0.00674302 0.0338422 0)
(-0.00981292 0.0363753 0)
(-0.0129622 0.0375883 0)
(-0.0162303 0.0380386 0)
(-0.0195126 0.0380373 0)
(-0.0228506 0.03776 0)
(-0.0261989 0.0372749 0)
(-0.0295855 0.0366114 0)
(-0.0329944 0.0357786 0)
(-0.0364653 0.0348123 0)
(-0.0400522 0.0338078 0)
(-0.043912 0.0329759 0)
(-0.0483178 0.0326763 0)
(-0.0537216 0.0334119 0)
(-0.0607167 0.0357334 0)
(-0.0699583 0.0400725 0)
(-0.0819975 0.0465634 0)
(-0.0971384 0.0549469 0)
(-0.115337 0.064588 0)
(-0.136187 0.074582 0)
(-0.158948 0.0838897 0)
(-0.182622 0.0914734 0)
(-0.20607 0.0964281 0)
(-0.228172 0.0981093 0)