/*--------------------------------*- C++ -*----------------------------------*\
| =========                 |                                                 |
| \\      /  F ield         | OpenFOAM: The Open Source CFD Toolbox           |
|  \\    /   O peration     | Version:  2406                                  |
|   \\  /    A nd           | Website:  www.openfoam.com                      |
|    \\/     M anipulation  |                                                 |
\*---------------------------------------------------------------------------*/
FoamFile
{
    version     2.0;
    format      ascii;
    arch        "LSB;label=32;scalar=64";
    class       surfaceScalarField;
    location    "22";
    object      phi;
}
// * * * * * * * * * * * * * * * * * * * * * * * * * * * * * * * * * * * * * //

dimensions      [0 3 -1 0 0 0 0];

oriented        oriented;

internalField   nonuniform List<scalar> 
1984
(
3.83391e-06
-3.83391e-06
9.98526e-06
-6.15134e-06
1.53252e-05
-5.33996e-06
1.85835e-05
-3.25826e-06
1.97611e-05
-1.17763e-06
1.92556e-05
5.05506e-07
1.71921e-05
2.06352e-06
1.30046e-05
4.18747e-06
5.19681e-06
7.80782e-06
-9.07703e-06
1.42738e-05
-3.31354e-05
2.40584e-05
-6.87104e-05
3.5575e-05
-0.000114541
4.58309e-05
-0.000166417
5.1876e-05
-0.000218048
5.16309e-05
-0.000262828
4.47794e-05
-0.000295351
3.25235e-05
-0.000311978
1.66267e-05
-0.000311205
-7.73265e-07
-0.00028972
-2.14842e-05
-0.000247714
-4.20065e-05
-0.00018674
-6.09734e-05
-0.000111048
-7.56926e-05
-2.88124e-05
-8.22355e-05
4.79573e-05
-7.67697e-05
0.000103825
-5.58673e-05
0.000124695
-2.08702e-05
0.000109642
1.50531e-05
7.5461e-05
3.41807e-05
4.10168e-05
3.44442e-05
1.42211e-05
2.67957e-05
1.42211e-05
6.41209e-06
-1.0246e-05
1.58002e-05
-1.55394e-05
2.27016e-05
-1.22414e-05
2.47891e-05
-5.34569e-06
2.11488e-05
2.4626e-06
1.09408e-05
1.07135e-05
-8.05315e-06
2.10575e-05
-4.02551e-05
3.63894e-05
-9.08051e-05
5.83578e-05
-0.000160602
8.40705e-05
-0.000244003
0.00010746
-0.000331105
0.000122677
-0.000411192
0.000125918
-0.00047763
0.000118314
-0.000527803
0.000101804
-0.000561002
7.7979e-05
-0.000576792
4.83139e-05
-0.000574446
1.42801e-05
-0.0005528
-2.24191e-05
-0.000512837
-6.14471e-05
-0.000453265
-0.000101579
-0.000374314
-0.000139925
-0.000278112
-0.000171895
-0.000170189
-0.000190158
-6.08981e-05
-0.00018606
3.54722e-05
-0.000152238
0.000100938
-8.63364e-05
0.000121968
-5.97657e-06
0.000103955
5.21939e-05
6.60981e-05
7.23009e-05
2.53502e-05
6.75437e-05
3.95713e-05
6.32829e-06
-1.65743e-05
1.34597e-05
-2.26708e-05
1.53858e-05
-1.41675e-05
9.12524e-06
9.14881e-07
-7.99347e-06
1.95813e-05
-3.98577e-05
4.25777e-05
-9.19185e-05
7.31183e-05
-0.000167429
0.0001119
-0.000261847
0.000152775
-0.000362678
0.000184902
-0.000456817
0.000201599
-0.000536924
0.000202784
-0.000601042
0.000190036
-0.000649228
0.0001665
-0.000682408
0.000134983
-0.000701847
9.74181e-05
-0.000708497
5.49637e-05
-0.000701775
7.55904e-06
-0.00068275
-4.14445e-05
-0.000650067
-9.41303e-05
-0.000602257
-0.000149388
-0.000537566
-0.000204616
-0.000454762
-0.000254699
-0.000354199
-0.000290721
-0.000239807
-0.000300453
-0.000122356
-0.000269689
-1.97072e-05
-0.000188985
4.38632e-05
-6.9547e-05
5.93852e-05
3.66719e-05
4.46183e-05
8.70677e-05
1.80513e-05
9.41107e-05
5.76226e-05
3.9219e-06
-2.04962e-05
4.24472e-06
-2.29936e-05
-4.53298e-06
-5.38983e-06
-2.65579e-05
2.29398e-05
-6.65989e-05
5.96224e-05
-0.000129659
0.000105638
-0.000216573
0.000160032
-0.000319108
0.000214435
-0.000422507
0.000256175
-0.000514694
0.000277088
-0.000590339
0.000277244
-0.000648692
0.000261136
-0.00069159
0.000232934
-0.000721411
0.00019632
-0.000740466
0.000154039
-0.000750753
0.000107705
-0.000753564
5.77746e-05
-0.000748649
2.64406e-06
-0.000737557
-5.25362e-05
-0.000718734
-0.000112953
-0.000690087
-0.000178035
-0.000648689
-0.000246014
-0.000590634
-0.000312754
-0.000511811
-0.000369544
-0.000410101
-0.000402163
-0.000287304
-0.000392486
-0.00015653
-0.000319759
-4.69148e-05
-0.000179162
7.44332e-06
-1.76863e-05
1.54514e-05
7.90597e-05
6.91901e-06
0.000102643
6.45416e-05
-1.39751e-06
-1.90987e-05
-1.22013e-05
-1.21898e-05
-3.68691e-05
1.92779e-05
-8.01733e-05
6.6244e-05
-0.000146179
0.000125628
-0.000234545
0.000194003
-0.000336456
0.000261943
-0.000437169
0.000315149
-0.000524039
0.000343045
-0.00059216
0.000345209
-0.000642232
0.000327316
-0.000676541
0.000295446
-0.000698227
0.00025462
-0.0007105
0.000208594
-0.000716067
0.000159606
-0.000717122
0.000108759
-0.000715436
5.60891e-05
-0.00071282
2.80942e-08
-0.00070854
-5.68164e-05
-0.000702512
-0.000118981
-0.000693646
-0.000186901
-0.000678986
-0.000260674
-0.000653437
-0.000338303
-0.000609414
-0.000413567
-0.000537989
-0.000473588
-0.000433104
-0.000497371
-0.000294726
-0.000458137
-0.000143868
-0.000330021
-3.42101e-05
-0.000127344
-1.13487e-08
4.48609e-05
1.53768e-06
0.000101094
6.60793e-05
-9.75103e-06
-9.34765e-06
-3.5207e-05
1.32662e-05
-7.79919e-05
6.20628e-05
-0.000141491
0.000129744
-0.000225371
0.000209508
-0.000322071
0.000290703
-0.00041778
0.000357653
-0.000499323
0.000396692
-0.000560716
0.000404437
-0.000602433
0.000386926
-0.000627609
0.000352492
-0.000640052
0.000307889
-0.000643712
0.00025828
-0.000641956
0.000206837
-0.000637268
0.000154918
-0.000631466
0.000102957
-0.00062601
5.0634e-05
-0.000623843
-2.13938e-06
-0.000622239
-5.84202e-05
-0.000623222
-0.000117998
-0.000627122
-0.000183001
-0.000632649
-0.000255147
-0.00063607
-0.000334883
-0.000629436
-0.000420201
-0.000600816
-0.000502208
-0.000535436
-0.000562751
-0.000421274
-0.000572299
-0.000258173
-0.000493121
-8.81221e-05
-0.000297394
-5.05077e-06
-3.82104e-05
2.61729e-06
9.3426e-05
6.86966e-05
-1.9875e-05
1.05273e-05
-6.02628e-05
5.3654e-05
-0.000118662
0.000120462
-0.000195075
0.000206156
-0.000284193
0.000298626
-0.0003743
0.00038081
-0.000452118
0.000435471
-0.000509717
0.000454291
-0.000546257
0.000440977
-0.000565266
0.000405934
-0.000571322
0.000358549
-0.000569139
0.000305706
-0.000562751
0.000251892
-0.00055505
0.000199137
-0.000547669
0.000147536
-0.000541237
9.65254e-05
-0.000536138
4.55348e-05
-0.000532601
-5.67636e-06
-0.00053088
-6.01416e-05
-0.00053219
-0.000116688
-0.000538152
-0.000177039
-0.000549842
-0.000243457
-0.000566385
-0.00031834
-0.000583598
-0.000402988
-0.000591449
-0.000494357
-0.000572135
-0.000582065
-0.000504176
-0.000640258
-0.000370169
-0.000627128
-0.000178462
-0.000489101
-2.21069e-05
-0.000194565
7.91357e-06
6.34055e-05
7.66102e-05
-2.93427e-05
3.98701e-05
-8.18532e-05
0.000106165
-0.000149898
0.000188507
-0.000230231
0.000286489
-0.00031434
0.000382735
-0.000389767
0.000456237
-0.000447104
0.000492807
-0.000482909
0.000490095
-0.000500018
0.000458087
-0.000503759
0.000409675
-0.000499611
0.000354401
-0.00049265
0.000298746
-0.000486175
0.000245416
-0.000481444
0.000194406
-0.00047843
0.000144522
-0.00047631
9.44053e-05
-0.000474148
4.33732e-05
-0.000471065
-8.75975e-06
-0.000467822
-6.33845e-05
-0.000465543
-0.000118966
-0.00046638
-0.000176202
-0.000473135
-0.000236702
-0.000488009
-0.000303466
-0.000510639
-0.000380359
-0.000535074
-0.000469921
-0.000548239
-0.0005689
-0.000526776
-0.000661721
-0.000443987
-0.000709917
-0.000283463
-0.000649626
-7.31754e-05
-0.000404853
1.23538e-05
-2.21237e-05
8.8964e-05
-3.61022e-05
7.59723e-05
-9.57049e-05
0.000165767
-0.00016685
0.000259652
-0.000243864
0.000363503
-0.00031687
0.000455741
-0.000376031
0.000515398
-0.000415129
0.000531905
-0.000434578
0.000509545
-0.000439574
0.000463083
-0.000436465
0.000406566
-0.000431154
0.00034909
-0.000427667
0.000295259
-0.000427651
0.0002454
-0.000430646
0.000197401
-0.00043501
0.000148885
-0.000438778
9.81732e-05
-0.000440283
4.48782e-05
-0.000438525
-1.05171e-05
-0.000433987
-6.79224e-05
-0.000427612
-0.000125342
-0.000421514
-0.000182299
-0.00041901
-0.000239206
-0.000424128
-0.000298347
-0.000439986
-0.000364501
-0.000465715
-0.000444192
-0.000492916
-0.000541699
-0.000502975
-0.000651663
-0.000467126
-0.000745766
-0.000353991
-0.00076276
-0.000150606
-0.000608239
1.01466e-05
-0.000182876
9.91105e-05
-3.88842e-05
0.000114857
-0.000100302
0.000227185
-0.00016901
0.000328359
-0.000237979
0.000432472
-0.000298351
0.000516114
-0.00034266
0.000559706
-0.000367928
0.000557173
-0.000377277
0.000518894
-0.0003772
0.000463006
-0.000374373
0.000403739
-0.000373786
0.000348503
-0.000378029
0.000299501
-0.000386782
0.000254154
-0.00039804
0.000208658
-0.00040919
0.000160036
-0.000417912
0.000106894
-0.000422495
4.94618e-05
-0.000421928
-1.10841e-05
-0.00041694
-7.29111e-05
-0.000407972
-0.00013431
-0.000396584
-0.000193688
-0.000385529
-0.00025026
-0.000379035
-0.000304842
-0.000382266
-0.000361269
-0.000399075
-0.000427383
-0.000427235
-0.000513539
-0.000453872
-0.000625026
-0.000451184
-0.000748454
-0.000384565
-0.000829379
-0.000230454
-0.00076235
-2.21271e-05
-0.000391203
7.69834e-05
-3.74713e-05
0.000152328
-9.60102e-05
0.000285724
-0.000158416
0.000390765
-0.000217313
0.000491369
-0.000265651
0.000564452
-0.000298127
0.000592182
-0.00031434
0.000573387
-0.000319047
0.000523601
-0.000319205
0.000463164
-0.00032063
0.000405164
-0.000327228
0.0003551
-0.000339643
0.000311917
-0.000355954
0.000270465
-0.000373282
0.000225986
-0.000388806
0.00017556
-0.000400475
0.000118564
-0.000406976
5.59625e-05
-0.000407595
-1.04654e-05
-0.000403067
-7.7439e-05
-0.000393633
-0.000143744
-0.000380222
-0.000207099
-0.000364593
-0.000265889
-0.000349774
-0.000319661
-0.000340863
-0.00037018
-0.000344215
-0.000424031
-0.000363843
-0.000493912
-0.000394277
-0.000594592
-0.000414332
-0.000728399
-0.000388048
-0.000855663
-0.00027979
-0.000870608
-6.6178e-05
-0.000604814
1.08054e-05
-3.24841e-05
0.000184812
-8.46024e-05
0.000337843
-0.000138508
0.000444671
-0.000187027
0.000539888
-0.000224782
0.000602207
-0.000248585
0.000615985
-0.000259772
0.000584573
-0.000263715
0.000527544
-0.000266764
0.000466213
-0.000273768
0.000412168
-0.000286998
0.00036833
-0.00030541
0.000330329
-0.000326225
0.00029128
-0.00034642
0.000246181
-0.000363608
0.000192748
-0.000376297
0.000131252
-0.00038367
6.33353e-05
-0.000385368
-8.76723e-06
-0.000381869
-8.09378e-05
-0.000373416
-0.000152197
-0.000360552
-0.000219963
-0.000344202
-0.000282239
-0.000326141
-0.000337722
-0.000309852
-0.00038647
-0.000301613
-0.000432269
-0.000308858
-0.000486667
-0.000334095
-0.000569354
-0.000365525
-0.00069697
-0.000368601
-0.000852587
-0.000294641
-0.000944567
-0.000117527
-0.000781928
-0.000106722
-2.49191e-05
0.000209731
-6.82331e-05
0.000381156
-0.000112571
0.000489009
-0.000151095
0.000578411
-0.000180034
0.000631147
-0.000197867
0.000633817
-0.000206809
0.000593516
-0.000211985
0.000532719
-0.00021859
0.000472818
-0.000230272
0.00042385
-0.00024772
0.000385778
-0.000268924
0.000351533
-0.00029105
0.000313406
-0.000311463
0.000266594
-0.000328393
0.000209678
-0.000340877
0.000143737
-0.000348487
7.09448e-05
-0.000351042
-6.21187e-06
-0.000348911
-8.30696e-05
-0.00034232
-0.000158787
-0.000331652
-0.000230631
-0.000317339
-0.000296551
-0.000300096
-0.000354965
-0.000281701
-0.000404865
-0.000266665
-0.000447305
-0.000263087
-0.000490245
-0.000278828
-0.000553613
-0.000310577
-0.000665221
-0.000332221
-0.000830943
-0.000295902
-0.000980886
-0.000167209
-0.000910621
-0.000273931
-1.57677e-05
0.000225499
-4.88338e-05
0.000414223
-8.32431e-05
0.000523418
-0.000112485
0.000607653
-0.000134138
0.000652801
-0.000147856
0.000647535
-0.00015604
0.0006017
-0.000162896
0.000539576
-0.000172316
0.000482237
-0.00018656
0.000438095
-0.000205313
0.000404531
-0.000226429
0.000372649
-0.000247431
0.000334408
-0.000266301
0.000285464
-0.000281857
0.000225234
-0.000293539
0.000155419
-0.000301124
7.85301e-05
-0.000304471
-2.86511e-06
-0.000303784
-8.3756e-05
-0.000299342
-0.00016323
-0.000291527
-0.000238446
-0.000280637
-0.000307441
-0.00026682
-0.000368783
-0.000250521
-0.000421164
-0.00023397
-0.000463856
-0.000223655
-0.000500561
-0.000229466
-0.000547803
-0.000255221
-0.000639465
-0.000284611
-0.000801554
-0.000273969
-0.000991528
-0.000177908
-0.00100668
-0.000451839
-5.86268e-06
0.000231361
-2.79764e-05
0.000436336
-5.2484e-05
0.000547926
-7.31456e-05
0.000628315
-8.85931e-05
0.000668248
-9.9265e-05
0.000658207
-0.000107175
0.00060961
-0.000115224
0.000547624
-0.000125915
0.000492929
-0.0001404
0.000452579
-0.000157954
0.000422085
-0.000176762
0.000391457
-0.000194981
0.000352628
-0.000211264
0.000301746
-0.000224902
0.000238873
-0.000235571
0.000166088
-0.000243127
8.60857e-05
-0.000247287
1.29466e-06
-0.00024821
-8.2833e-05
-0.00024607
-0.00016537
-0.000241307
-0.00024321
-0.000234273
-0.000314474
-0.000224978
-0.000378078
-0.000213156
-0.000432986
-0.000199405
-0.000477607
-0.000187413
-0.000512553
-0.000186599
-0.000548617
-0.000205782
-0.000620282
-0.00023642
-0.000770916
-0.000240053
-0.000987895
-0.000163602
-0.00108313
-0.000615442
3.81983e-06
0.000227542
-6.78292e-06
0.000446939
-2.16383e-05
0.000562781
-3.43709e-05
0.000641047
-4.42535e-05
0.000678131
-5.21514e-05
0.000666105
-5.94805e-05
0.000616939
-6.77621e-05
0.000555906
-7.81543e-05
0.000503321
-9.09326e-05
0.000465358
-0.00010539
0.000436542
-0.000120337
0.000406404
-0.000134692
0.000366983
-0.00014776
0.000314814
-0.000159105
0.000250218
-0.00016853
0.000175514
-0.000175874
9.34299e-05
-0.000181166
6.58653e-06
-0.000183802
-8.01974e-05
-0.000184194
-0.000164978
-0.000182729
-0.000244675
-0.000179809
-0.000317394
-0.000175485
-0.000382402
-0.000169218
-0.000439253
-0.000160516
-0.000486308
-0.000150866
-0.000522203
-0.000147333
-0.00055215
-0.000160962
-0.000606652
-0.00019058
-0.000741298
-0.000203519
-0.000974955
-0.000144548
-0.0011421
-0.00075999
1.25093e-05
0.000215032
1.32911e-05
0.000446157
8.21993e-06
0.000567852
2.83754e-06
0.00064643
-1.97076e-06
0.000682939
-6.68413e-06
0.000670818
-1.25515e-05
0.000622807
-1.99187e-05
0.000563273
-2.86961e-05
0.000512099
-3.84399e-05
0.000475101
-4.85805e-05
0.000446683
-5.87116e-05
0.000416535
-6.84571e-05
0.000376729
-7.77399e-05
0.000324096
-8.63208e-05
0.000258799
-9.41295e-05
0.000183322
-0.000101064
0.000100364
-0.00010714
1.26624e-05
-0.000111751
-7.55857e-05
-0.000115025
-0.000161704
-0.000117268
-0.000242432
-0.000118851
-0.00031581
-0.000119865
-0.000381389
-0.000119719
-0.000439398
-0.000117424
-0.000488604
-0.000113024
-0.000526602
-0.000110881
-0.000554294
-0.00012177
-0.000595763
-0.000149936
-0.000713132
-0.000169053
-0.000955839
-0.000125605
-0.00118555
-0.000885595
2.0012e-05
0.00019502
3.18781e-05
0.000434291
3.66443e-05
0.000563086
3.96375e-05
0.000643437
4.0804e-05
0.000681772
3.89037e-05
0.000672719
3.42087e-05
0.000627502
2.80717e-05
0.00056941
2.18328e-05
0.000518337
1.60648e-05
0.00048087
1.08728e-05
0.000451875
5.9786e-06
0.000421429
1.08141e-06
0.000381626
-3.7534e-06
0.000328931
-8.96269e-06
0.000264008
-1.4557e-05
0.000188917
-2.05302e-05
0.000106337
-2.70583e-05
1.91906e-05
-3.35029e-05
-6.91412e-05
-3.99051e-05
-0.000155302
-4.6353e-05
-0.000235984
-5.29919e-05
-0.000309171
-5.97929e-05
-0.000374588
-6.60435e-05
-0.000433148
-7.07432e-05
-0.000483904
-7.30691e-05
-0.000524276
-7.51913e-05
-0.000552172
-8.63309e-05
-0.000584624
-0.000114102
-0.000685361
-0.000138132
-0.000931809
-0.000109293
-0.00121439
-0.000994888
2.56066e-05
0.000169414
4.81837e-05
0.000411714
6.26332e-05
0.000548637
7.34283e-05
0.000632641
8.05948e-05
0.000674606
8.27351e-05
0.000670578
8.03966e-05
0.00062984
7.60673e-05
0.000573739
7.24966e-05
0.000521908
7.10389e-05
0.000482327
7.15485e-05
0.000451365
7.28985e-05
0.000420079
7.39336e-05
0.000380591
7.37154e-05
0.000329149
7.19683e-05
0.000265755
6.85576e-05
0.000192327
6.3415e-05
0.00011148
5.64357e-05
2.61699e-05
4.81073e-05
-6.08127e-05
3.8496e-05
-0.00014569
2.77011e-05
-0.000225189
1.58456e-05
-0.000297316
3.30793e-06
-0.00036205
-9.69999e-06
-0.00042014
-2.17179e-05
-0.000471886
-3.19097e-05
-0.000514085
-4.08091e-05
-0.000543272
-5.44976e-05
-0.000570935
-8.35118e-05
-0.000656347
-0.000112779
-0.000902542
-9.59347e-05
-0.00123123
-0.00109082
2.87563e-05
0.000140657
6.11725e-05
0.000379298
8.51654e-05
0.000524644
0.000103904
0.000613903
0.000117552
0.000660958
0.000124645
0.000663485
0.00012577
0.000628715
0.000124028
0.000575482
0.000123269
0.000522667
0.000125639
0.000479957
0.000131124
0.00044588
0.000138142
0.000413062
0.000144795
0.000373938
0.000149653
0.000324291
0.000151911
0.000263497
0.000151213
0.000193025
0.000147365
0.000115328
0.000140244
3.32902e-05
0.000130089
-5.06573e-05
0.000117216
-0.000132817
0.000101891
-0.000209865
8.4619e-05
-0.000280044
6.59374e-05
-0.000343368
4.67559e-05
-0.000400958
2.79174e-05
-0.000453047
1.01749e-05
-0.000496342
-5.72982e-06
-0.000527368
-2.51751e-05
-0.00055149
-5.73604e-05
-0.000624161
-9.22438e-05
-0.000867659
-8.54728e-05
-0.001238
-0.0011763
2.92373e-05
0.00011142
7.00043e-05
0.000338531
0.000103227
0.000491421
0.000130133
0.000586997
0.000150842
0.000640249
0.000163799
0.000650527
0.000169425
0.00062309
0.000170984
0.000573923
0.000172956
0.000520695
0.000178427
0.000474486
0.000187899
0.000436408
0.00019976
0.0004012
0.000211624
0.000362075
0.000221432
0.000314483
0.000227846
0.000257083
0.000230155
0.000190716
0.000227988
0.000117496
0.000221145
4.01329e-05
0.000209627
-3.91398e-05
0.000193941
-0.000117131
0.000174554
-0.000190477
0.000152279
-0.000257769
0.000128023
-0.000319112
0.000102698
-0.000375633
7.70302e-05
-0.00042738
5.20003e-05
-0.000471312
2.77573e-05
-0.000503125
7.14712e-07
-0.000524447
-3.45257e-05
-0.000588921
-7.51177e-05
-0.000827067
-7.72158e-05
-0.00123591
-0.00125351
2.72607e-05
8.41594e-05
7.39977e-05
0.000291794
0.000115681
0.000449737
0.000150828
0.00055185
0.000179275
0.000611803
0.000199292
0.00063051
0.000210773
0.000611609
0.000216652
0.000568043
0.000221513
0.000515834
0.000229326
0.000466673
0.000241445
0.00042429
0.00025674
0.000385905
0.000272712
0.000346102
0.000286811
0.000300384
0.000297127
0.000246768
0.000302467
0.000185375
0.000302184
0.000117779
0.000295969
4.63483e-05
0.000283632
-2.68027e-05
0.000265799
-9.92989e-05
0.00024316
-0.000167837
0.000216786
-0.000231396
0.000187821
-0.000290147
0.000157129
-0.000344942
0.00012532
-0.00039557
9.29927e-05
-0.000438985
6.07438e-05
-0.000470876
2.77827e-05
-0.000491486
-1.35544e-05
-0.000547584
-6.06457e-05
-0.000779976
-7.05733e-05
-0.00122598
-0.00132408
2.34838e-05
6.06756e-05
7.28193e-05
0.000242458
0.000121531
0.000401025
0.000164389
0.000508992
0.000200859
0.000575333
0.000228869
0.0006025
0.000247645
0.000592833
0.000259286
0.000556402
0.00026801
0.00050711
0.000278045
0.000456638
0.000291749
0.000410585
0.000308877
0.000368777
0.000327341
0.000327638
0.000344459
0.000283266
0.00035788
0.000233347
0.000365913
0.000177343
0.00036755
0.000116141
0.000362308
5.1591e-05
0.00034987
-1.43649e-05
0.000330882
-8.03112e-05
0.000306203
-0.000143158
0.000277034
-0.000202227
0.000244532
-0.000257645
0.000209432
-0.000309842
0.000172098
-0.000358237
0.000132869
-0.000399756
9.27296e-05
-0.000430737
5.22453e-05
-0.000451002
5.80624e-06
-0.000501145
-4.80452e-05
-0.000726124
-6.49455e-05
-0.00120908
-0.00138903
1.87349e-05
4.19406e-05
6.64662e-05
0.000194727
0.000119738
0.000347753
0.000169389
0.000459341
0.000213922
0.0005308
0.000250946
0.000565476
0.000278728
0.000565051
0.000298133
0.000536997
0.000312418
0.000492825
0.000325602
0.000443455
0.000340623
0.000395564
0.000358326
0.000351074
0.000377507
0.000308457
0.000395861
0.000264912
0.000410964
0.000218243
0.000420804
0.000167503
0.000424035
0.00011291
0.000419978
5.56485e-05
0.000408203
-2.59036e-06
0.000389189
-6.12974e-05
0.000363836
-0.000117804
0.000333258
-0.000171649
0.000298401
-0.000222788
0.000259723
-0.000271163
0.000217351
-0.000315865
0.000171556
-0.00035396
0.000123627
-0.000382808
7.5279e-05
-0.000402653
2.28837e-05
-0.000448749
-3.65321e-05
-0.000666708
-5.99664e-05
-0.00118564
-0.001449
1.37617e-05
2.81789e-05
5.57926e-05
0.000152696
0.000109795
0.00029375
0.000163986
0.000405151
0.000215378
0.000479409
0.000261609
0.000519244
0.000299713
0.000526948
0.000329124
0.000507586
0.000351606
0.000470342
0.000370301
0.00042476
0.000388153
0.000377713
0.000406764
0.000332462
0.00042599
0.000289231
0.000444344
0.000246558
0.000459807
0.00020278
0.000470429
0.000156882
0.0004747
0.000108638
0.000471713
5.86355e-05
0.000461185
7.93754e-06
0.000442977
-4.30889e-05
0.000417979
-9.28061e-05
0.000386927
-0.000140597
0.000350372
-0.000186233
0.000308436
-0.000229228
0.000261118
-0.000268547
0.000208812
-0.000301654
0.000153294
-0.000327291
9.74143e-05
-0.000346773
4.02307e-05
-0.000391566
-2.51014e-05
-0.000601376
-5.504e-05
-0.00115571
-0.00150404
8.74064e-06
1.94382e-05
4.13412e-05
0.000120096
9.14434e-05
0.000243648
0.0001477
0.000348895
0.000205025
0.000422083
0.000260056
0.000464213
0.000309275
0.000477729
0.00035045
0.00046641
0.000383722
0.000437071
0.000410899
0.000397583
0.000434316
0.000354295
0.000455785
0.000310994
0.000475965
0.000269051
0.000494327
0.000228197
0.000509596
0.000187511
0.000520271
0.000146208
0.000524982
0.000103927
0.000522781
6.08364e-05
0.000513202
1.75165e-05
0.000495895
-2.57819e-05
0.00047135
-6.82608e-05
0.000439794
-0.000109042
0.000401337
-0.000147776
0.000355844
-0.000183735
0.000303359
-0.000216063
0.000244594
-0.000242889
0.000181945
-0.000264642
0.000119365
-0.000284193
5.88947e-05
-0.000331096
-1.24255e-05
-0.000530056
-4.82499e-05
-0.00111988
-0.00155229
4.13054e-06
1.53077e-05
2.45117e-05
9.97147e-05
6.47832e-05
0.000203376
0.000117786
0.000295892
0.000178072
0.000361797
0.000240635
0.00040165
0.000300864
0.000417501
0.000354994
0.00041228
0.000401388
0.000390677
0.000440278
0.000358693
0.000472943
0.00032163
0.000500824
0.000283112
0.000524861
0.000245014
0.000545221
0.000207836
0.000561385
0.000171348
0.000572489
0.000135103
0.00057756
9.88558e-05
0.000575813
6.25837e-05
0.000566656
2.6673e-05
0.000549505
-8.63086e-06
0.000524617
-4.33723e-05
0.000491714
-7.6139e-05
0.00045064
-0.000106702
0.000401157
-0.000134251
0.000343541
-0.000158447
0.000278904
-0.000178252
0.000210419
-0.000196157
0.000142785
-0.000216558
8.14738e-05
-0.000269785
6.58421e-06
-0.000455166
-3.33762e-05
-0.00107992
-0.00158566
-7.79419e-06
2.31019e-05
-4.85249e-07
9.24057e-05
3.08558e-05
0.000172035
7.9271e-05
0.000247477
0.000140366
0.000300701
0.000208037
0.000333979
0.000277314
0.000348224
0.000343322
0.000346272
0.000402819
0.00033118
0.000454528
0.000306984
0.00049851
0.000277649
0.000535487
0.000246135
0.000566178
0.000214324
0.000591014
0.000183
0.000609945
0.000152417
0.000622636
0.000122413
0.000628535
9.29564e-05
0.000627107
6.40118e-05
0.000617939
3.58415e-05
0.000600478
8.82947e-06
0.000574361
-1.72551e-05
0.000539516
-4.12937e-05
0.00049574
-6.2926e-05
0.000442904
-8.14153e-05
0.000381724
-9.72666e-05
0.000313611
-0.000110139
0.000242407
-0.000124953
0.000172858
-0.00014701
0.000114395
-0.000211322
4.84755e-05
-0.000389246
5.17459e-06
-0.00103662
-0.00158049
-6.92598e-06
3.00279e-05
-2.82613e-05
0.000113741
-2.22247e-05
0.000165999
1.79213e-05
0.000207331
7.84004e-05
0.000240222
0.000151574
0.000260806
0.000229789
0.000270009
0.00030717
0.000268891
0.000379447
0.000258902
0.000444259
0.000242172
0.000500534
0.000221373
0.000548308
0.000198361
0.000587771
0.00017486
0.000619355
0.000151417
0.000643105
0.000128667
0.000659064
0.000106454
0.000666945
8.50749e-05
0.000666568
6.43893e-05
0.000657663
4.47459e-05
0.000640229
2.62635e-05
0.000613648
9.32602e-06
0.000578166
-5.81185e-06
0.000534237
-1.89971e-05
0.00048191
-2.90882e-05
0.000422812
-3.81682e-05
0.000358083
-4.54106e-05
0.000292058
-5.89277e-05
0.000227059
-8.2011e-05
0.000176331
-0.000160594
0.000125568
-0.000338483
5.97884e-05
-0.000970841
-0.0015207
-4.88698e-05
7.88977e-05
-5.88775e-05
0.000123749
-5.84354e-05
0.000165557
-3.03837e-05
0.000179279
2.54757e-05
0.000184363
9.70172e-05
0.000189264
0.00017835
0.000188676
0.000261912
0.000185329
0.000342104
0.00017871
0.000415774
0.000168502
0.000480852
0.000156295
0.000536838
0.000142375
0.000583409
0.000128289
0.000620971
0.000113855
0.000649561
0.000100076
0.000669555
8.64601e-05
0.00068094
7.36899e-05
0.000683949
6.13804e-05
0.000678729
4.9966e-05
0.000665477
3.95154e-05
0.000644898
2.99055e-05
0.000616965
2.21211e-05
0.000583249
1.47189e-05
0.000543587
1.05738e-05
0.000501207
4.21151e-06
0.000454435
1.36169e-06
0.000408944
-1.34372e-05
0.000361806
-3.48725e-05
0.000324545
-0.000123333
0.000285802
-0.00029974
0.000167864
-0.000852903
-0.00135284
-0.000240965
0.000319863
-0.000288533
0.000171317
-0.000258179
0.000135202
-0.000191131
0.000112231
-0.000108754
0.000101985
-1.50653e-05
9.55758e-05
8.21354e-05
9.14752e-05
0.000179367
8.8098e-05
0.00027313
8.49466e-05
0.000360888
8.07444e-05
0.000441052
7.61313e-05
0.000512892
7.05349e-05
0.000576152
6.50289e-05
0.000631108
5.88984e-05
0.000677873
5.33118e-05
0.000717075
4.72582e-05
0.000748712
4.20532e-05
0.000773666
3.64263e-05
0.000791727
3.19043e-05
0.000804204
2.70389e-05
0.000810595
2.35144e-05
0.00081282
1.98961e-05
0.000809869
1.76693e-05
0.000804725
1.57181e-05
0.000794994
1.39422e-05
0.000785015
1.13413e-05
0.000768279
3.29868e-06
0.00075116
-1.77536e-05
0.000714645
-8.6818e-05
0.000651686
-0.000236781
0.00039523
-0.000596447
-0.000957606
0.000319863
0.00049118
0.000626382
0.000738614
0.000840599
0.000936175
0.00102765
0.00111575
0.00120069
0.00128144
0.00135757
0.00142811
0.00149313
0.00155203
0.00160534
0.0016526
0.00169466
0.00173108
0.00176299
0.00179003
0.00181354
0.00183344
0.00185111
0.00186682
0.00188077
0.00189211
0.00189541
0.00187765
0.00179083
0.00155405
0.000957606
)
;

boundaryField
{
    movingWall
    {
        type            calculated;
        value           uniform 0;
    }
    fixedWalls
    {
        type            calculated;
        value           uniform 0;
    }
    frontAndBack
    {
        type            empty;
    }
}


// ************************************************************************* //
