/*--------------------------------*- C++ -*----------------------------------*\
| =========                 |                                                 |
| \\      /  F ield         | OpenFOAM: The Open Source CFD Toolbox           |
|  \\    /   O peration     | Version:  2406                                  |
|   \\  /    A nd           | Website:  www.openfoam.com                      |
|    \\/     M anipulation  |                                                 |
\*---------------------------------------------------------------------------*/
FoamFile
{
    version     2.0;
    format      ascii;
    arch        "LSB;label=32;scalar=64";
    class       volScalarField;
    location    "25.3";
    object      p;
}
// * * * * * * * * * * * * * * * * * * * * * * * * * * * * * * * * * * * * * //

dimensions      [0 2 -2 0 0 0 0];

internalField   nonuniform List<scalar> 
3600
(
0.033278
0.0332821
0.0332717
0.0332548
0.0332245
0.0331859
0.0331373
0.0330796
0.0330126
0.032934
0.032844
0.0327389
0.0326195
0.0324823
0.0323291
0.0321572
0.0319694
0.0317653
0.0315501
0.0313278
0.031109
0.0309046
0.030732
0.0306095
0.0305592
0.0306008
0.0307527
0.0310254
0.0314222
0.0319337
0.0325386
0.0332009
0.0338718
0.0344914
0.0349933
0.0353126
0.0353926
0.0351972
0.0347142
0.0339655
0.0329983
0.0318879
0.0307143
0.0295634
0.0284979
0.0275712
0.0268003
0.0261973
0.0257402
0.025419
0.025194
0.0250564
0.0249648
0.0249243
0.0248954
0.0249001
0.0248982
0.0249265
0.0249382
0.0249717
0.0332741
0.033278
0.0332668
0.0332506
0.0332225
0.0331871
0.0331427
0.0330897
0.0330282
0.0329557
0.0328731
0.0327769
0.0326685
0.0325445
0.0324068
0.0322524
0.0320835
0.0318986
0.0317017
0.0314953
0.0312884
0.0310898
0.0309152
0.0307803
0.0307059
0.0307112
0.0308158
0.0310327
0.0313686
0.0318178
0.0323624
0.0329691
0.0335913
0.0341704
0.0346409
0.0349377
0.0350037
0.0348021
0.0343204
0.0335805
0.0326309
0.0315483
0.0304141
0.0293145
0.02831
0.0274498
0.0267443
0.0261995
0.025788
0.025498
0.0252901
0.0251584
0.0250643
0.0250168
0.0249775
0.0249716
0.0249565
0.0249738
0.0249719
0.0250055
0.0332842
0.0332884
0.0332772
0.0332603
0.0332328
0.0331977
0.0331552
0.0331039
0.0330454
0.0329756
0.0328966
0.0328036
0.0326987
0.0325775
0.0324419
0.0322875
0.0321153
0.0319218
0.0317094
0.0314785
0.0312367
0.0309924
0.0307624
0.0305657
0.0304276
0.030372
0.0304229
0.0305963
0.030901
0.031332
0.0318718
0.0324867
0.0331291
0.0337388
0.0342476
0.034587
0.0346954
0.0345308
0.0340757
0.0333486
0.0323968
0.0312995
0.0301436
0.0290233
0.0280069
0.0271492
0.0264626
0.025951
0.0255819
0.0253374
0.0251722
0.025077
0.0250109
0.0249839
0.0249576
0.0249606
0.0249485
0.0249703
0.0249675
0.0250129
0.0333021
0.0333042
0.033293
0.0332754
0.03325
0.033217
0.0331794
0.0331329
0.0330813
0.0330182
0.032947
0.0328611
0.0327631
0.0326465
0.0325121
0.0323521
0.0321648
0.0319426
0.0316855
0.0313915
0.0310691
0.0307291
0.0303927
0.0300835
0.0298312
0.029663
0.0296061
0.0296793
0.0298939
0.0302479
0.0307268
0.0313002
0.0319238
0.0325398
0.0330815
0.0334792
0.0336679
0.0335987
0.0332458
0.0326181
0.0317551
0.0307312
0.0296332
0.0285586
0.027582
0.0267643
0.026122
0.0256606
0.0253458
0.0251567
0.0250432
0.0249931
0.0249627
0.0249622
0.0249525
0.0249659
0.0249564
0.0249801
0.0249736
0.0250258
0.0333328
0.0333304
0.0333191
0.0332986
0.0332745
0.033241
0.0332061
0.0331612
0.033113
0.0330513
0.032981
0.0328916
0.0327857
0.0326519
0.0324882
0.0322812
0.0320255
0.0317095
0.0313327
0.0308952
0.0304109
0.029897
0.0293825
0.0288972
0.028477
0.0281533
0.0279566
0.0279075
0.0280199
0.0282939
0.0287185
0.0292671
0.0299002
0.0305639
0.0311946
0.0317224
0.0320784
0.0322045
0.0320612
0.0316406
0.0309655
0.0300968
0.0291145
0.0281168
0.0271857
0.0263929
0.0257667
0.0253219
0.0250299
0.0248716
0.0247956
0.0247862
0.0247957
0.0248311
0.0248509
0.0248874
0.0248936
0.0249286
0.024927
0.0249848
0.0333747
0.0333653
0.0333544
0.0333309
0.0333096
0.0332767
0.0332465
0.0332041
0.0331598
0.0330981
0.0330248
0.0329237
0.0327951
0.0326201
0.0323919
0.0320898
0.0317055
0.031226
0.0306547
0.0299973
0.0292764
0.0285171
0.0277565
0.0270305
0.0263797
0.0258385
0.02544
0.025207
0.025156
0.0252905
0.0256048
0.0260788
0.026681
0.0273664
0.0280797
0.0287563
0.0293284
0.0297317
0.029913
0.0298426
0.0295176
0.0289726
0.0282672
0.0274876
0.0267149
0.0260287
0.02547
0.025067
0.0248028
0.0246667
0.0246125
0.0246262
0.0246602
0.0247193
0.0247608
0.0248144
0.0248334
0.0248755
0.0248774
0.024934
0.0334236
0.0334044
0.033394
0.0333654
0.033346
0.0333106
0.0332818
0.0332359
0.0331877
0.0331135
0.0330192
0.0328795
0.0326901
0.0324218
0.0320624
0.0315847
0.0309819
0.0302439
0.029384
0.0284178
0.0273802
0.0263069
0.0252445
0.0242351
0.0233241
0.0225473
0.0219383
0.0215186
0.0213047
0.0213004
0.0215031
0.0218976
0.0224612
0.0231591
0.0239483
0.0247754
0.0255809
0.0263017
0.026877
0.0272578
0.027412
0.0273381
0.02706
0.0266361
0.0261336
0.0256328
0.0251879
0.0248458
0.0246095
0.0244836
0.0244339
0.0244522
0.0244951
0.024566
0.0246227
0.0246902
0.0247231
0.0247727
0.0247812
0.0248337
0.0334828
0.0334517
0.033443
0.0334091
0.033393
0.0333544
0.033326
0.0332724
0.0332125
0.0331117
0.032974
0.0327612
0.0324628
0.0320379
0.0314712
0.0307335
0.0298248
0.028745
0.0275218
0.0261853
0.024785
0.0233674
0.0219877
0.0206912
0.0195242
0.0185197
0.0177075
0.0171047
0.0167247
0.0165697
0.0166384
0.0169197
0.0173992
0.0180532
0.0188536
0.0197635
0.0207396
0.0217319
0.022685
0.0235434
0.0242547
0.0247814
0.0251027
0.0252286
0.0251885
0.0250404
0.0248385
0.0246444
0.0244861
0.0243921
0.0243496
0.0243631
0.0243998
0.0244653
0.0245216
0.0245892
0.0246262
0.0246754
0.0246864
0.0247306
0.0335384
0.0334928
0.0334859
0.0334444
0.0334294
0.0333825
0.033347
0.033273
0.033183
0.0330272
0.032806
0.0324651
0.0319877
0.0313231
0.0304583
0.029369
0.028071
0.0265804
0.0249463
0.0232159
0.0214546
0.0197174
0.018064
0.0165377
0.0151799
0.0140154
0.0130664
0.0123415
0.0118481
0.0115838
0.0115459
0.0117247
0.0121107
0.0126889
0.0134437
0.0143546
0.0153981
0.0165445
0.0177574
0.018993
0.0201992
0.021321
0.0223019
0.0230994
0.0236849
0.0240642
0.0242614
0.0243336
0.0243293
0.0243067
0.0242866
0.0242958
0.0243195
0.0243691
0.0244146
0.0244729
0.0245073
0.0245514
0.024563
0.0245983
0.0335962
0.0335344
0.0335309
0.0334812
0.0334666
0.033407
0.033357
0.0332483
0.0331054
0.0328595
0.0325053
0.0319718
0.0312387
0.0302514
0.0290082
0.0274989
0.0257637
0.0238413
0.0218048
0.019717
0.0176544
0.0156727
0.0138285
0.0121554
0.0106847
0.00942937
0.00840198
0.00760245
0.00703239
0.00668507
0.00655645
0.00663705
0.00692038
0.00739666
0.00805896
0.00889848
0.00990788
0.0110772
0.0123935
0.0138367
0.0153752
0.0169639
0.0185396
0.0200281
0.0213467
0.0224295
0.0232325
0.0237643
0.0240633
0.0242079
0.0242603
0.024285
0.0242987
0.0243262
0.0243509
0.0243886
0.0244101
0.0244413
0.0244483
0.0244739
0.0336312
0.0335507
0.0335503
0.0334886
0.0334693
0.0333868
0.0333069
0.0331392
0.0329082
0.0325233
0.0319736
0.0311729
0.0301047
0.0287195
0.027038
0.025074
0.0228989
0.0205762
0.0181997
0.0158407
0.0135768
0.0114555
0.00952208
0.00779553
0.00629448
0.00501971
0.00397509
0.00315331
0.00255183
0.00216085
0.00197542
0.00198585
0.00218698
0.00257124
0.00313567
0.00387722
0.00479744
0.00589897
0.00718662
0.00866326
0.0103253
0.0121562
0.0141168
0.0161405
0.0181273
0.0199581
0.0215092
0.0226975
0.0234954
0.0239583
0.0241757
0.0242603
0.0242805
0.0242887
0.0242891
0.0243004
0.024303
0.0243172
0.0243166
0.0243341
0.0336495
0.0335495
0.0335528
0.0334767
0.033448
0.033332
0.0332048
0.03295
0.0325904
0.0320121
0.0312011
0.0300628
0.0285946
0.0267636
0.0246239
0.0222198
0.0196551
0.017012
0.0143953
0.0118723
0.00951097
0.00734204
0.00539528
0.00367382
0.00218504
0.000920208
-0.000121974
-0.000952676
-0.00157552
-0.00200093
-0.00223306
-0.00228091
-0.0021483
-0.00184174
-0.00136273
-0.000712657
0.000112647
0.00112031
0.0023229
0.00373622
0.00537685
0.00725663
0.00937221
0.0116936
0.0141483
0.0166151
0.0189273
0.0209088
0.0224192
0.0234178
0.0239653
0.0242038
0.0242714
0.0242731
0.0242502
0.0242312
0.0242094
0.0242022
0.0241905
0.0242009
0.0336134
0.0334922
0.0334971
0.0334002
0.0333518
0.0331853
0.0329852
0.0326067
0.0320703
0.0312402
0.0301055
0.0285726
0.0266648
0.0243772
0.021804
0.01902
0.0161546
0.0132972
0.0105499
0.00796434
0.00559155
0.00344207
0.00153066
-0.000152754
-0.0016082
-0.00284995
-0.00388093
-0.00471326
-0.00534952
-0.00579927
-0.006065
-0.00615457
-0.00607062
-0.00581905
-0.00540122
-0.00481881
-0.00406843
-0.00314347
-0.00203109
-0.000712435
0.00083695
0.00264516
0.00473666
0.00712177
0.00977818
0.0126302
0.0155318
0.0182704
0.0206064
0.0223527
0.0234527
0.0240072
0.0242048
0.0242318
0.0241954
0.0241469
0.0240993
0.0240696
0.0240453
0.02405
0.0335295
0.0333873
0.0333922
0.0332695
0.0331911
0.0329565
0.0326566
0.0321166
0.0313555
0.0302205
0.028713
0.0267523
0.0243991
0.0216834
0.0187398
0.015666
0.0126041
0.00963534
0.0068478
0.00426983
0.00193323
-0.00017011
-0.00203656
-0.00368482
-0.00511778
-0.00635137
-0.00738709
-0.00823574
-0.00889723
-0.00937903
-0.00968122
-0.0098099
-0.00976623
-0.0095553
-0.00917849
-0.00863822
-0.00793315
-0.0070593
-0.00600758
-0.00476225
-0.00330069
-0.0015917
0.000400757
0.00271257
0.00536564
0.0083445
0.0115695
0.0148659
0.0179703
0.0205765
0.0224541
0.0235553
0.0240375
0.024156
0.0241284
0.0240558
0.0239826
0.023929
0.0238911
0.0238898
0.0333493
0.0331851
0.0331851
0.0330274
0.0329034
0.0325783
0.032147
0.0314061
0.0303761
0.0288953
0.0269878
0.024597
0.0218285
0.018748
0.0155232
0.0122611
0.00910159
0.00610607
0.00334131
0.000811092
-0.0014695
-0.00352258
-0.00535051
-0.00697594
-0.008401
-0.00964065
-0.0106933
-0.0115674
-0.0122598
-0.0127755
-0.0131124
-0.0132746
-0.0132621
-0.0130789
-0.0127264
-0.0122076
-0.0115232
-0.0106719
-0.00964972
-0.00844602
-0.00704487
-0.00541976
-0.0035359
-0.00134917
0.00118661
0.00410257
0.00739202
0.0109615
0.0146082
0.0179993
0.0207698
0.0226501
0.0236451
0.0239848
0.024012
0.0239294
0.0238338
0.023756
0.0237044
0.0236958
0.0330831
0.0328981
0.032889
0.032689
0.0325051
0.0320689
0.0314774
0.0305021
0.0291696
0.0273197
0.0250092
0.0222144
0.0190875
0.0157239
0.0123114
0.00895163
0.00576982
0.00280014
8.70455e-05
-0.0023873
-0.00461947
-0.0066401
-0.00845286
-0.0100807
-0.0115226
-0.0127909
-0.0138802
-0.014796
-0.015532
-0.0160909
-0.0164681
-0.016666
-0.0166832
-0.0165223
-0.0161847
-0.0156732
-0.0149903
-0.0141366
-0.0131129
-0.0119136
-0.0105313
-0.00894747
-0.00713635
-0.00505802
-0.00266136
0.000107846
0.00329516
0.00688919
0.0107906
0.0147349
0.0183313
0.0211293
0.0228817
0.0236599
0.0238322
0.0237683
0.0236578
0.0235533
0.0234876
0.0234684
0.0326772
0.0324712
0.0324455
0.0321929
0.0319318
0.0313631
0.0305848
0.0293492
0.0276952
0.0254748
0.0227846
0.019638
0.0162286
0.0126707
0.00915778
0.00577322
0.00262013
-0.0002957
-0.00294913
-0.00537418
-0.00757349
-0.00958138
-0.0113994
-0.0130485
-0.0145234
-0.0158331
-0.0169686
-0.0179327
-0.0187164
-0.0193201
-0.0197377
-0.0199698
-0.0200138
-0.0198711
-0.0195429
-0.0190313
-0.0183402
-0.017471
-0.0164281
-0.0152099
-0.0138163
-0.0122369
-0.0104574
-0.00844799
-0.00616552
-0.00355277
-0.00053932
0.00292002
0.00682618
0.0110295
0.015223
0.0188958
0.021575
0.0230427
0.0235409
0.0235419
0.0234362
0.0233017
0.0232204
0.0231858
0.0321524
0.0319278
0.0318796
0.0315675
0.0312157
0.030499
0.0295153
0.028006
0.0260282
0.0234554
0.0204279
0.0169946
0.0133817
0.00970893
0.00616251
0.00279952
-0.000301267
-0.00315962
-0.0057645
-0.00816028
-0.0103509
-0.0123709
-0.0142174
-0.0159083
-0.0174336
-0.0187992
-0.0199926
-0.0210141
-0.0218526
-0.0225065
-0.0229683
-0.0232367
-0.0233085
-0.0231834
-0.0228628
-0.0223475
-0.0216426
-0.0207493
-0.0196752
-0.0184205
-0.0169916
-0.0153843
-0.0135953
-0.0116065
-0.00938873
-0.00689441
-0.00405091
-0.000787133
0.00296868
0.00717816
0.0116767
0.0160151
0.0196344
0.0219868
0.0230708
0.0232373
0.0231634
0.0230028
0.0229009
0.0228455
0.0314581
0.0312156
0.0311371
0.0307575
0.0303017
0.0294248
0.028225
0.0264414
0.0241542
0.0212651
0.0179574
0.0143099
0.0105691
0.00684836
0.00331716
3.33714e-06
-0.00303703
-0.00584397
-0.00841512
-0.0108
-0.0130007
-0.0150491
-0.0169378
-0.0186807
-0.0202635
-0.0216896
-0.0229436
-0.0240237
-0.0249172
-0.0256208
-0.0261259
-0.0264296
-0.0265283
-0.02642
-0.0261064
-0.0255867
-0.0248674
-0.0239487
-0.0228407
-0.021544
-0.02007
-0.018418
-0.0165943
-0.0145903
-0.0123919
-0.00996642
-0.00725283
-0.00417857
-0.000636599
0.00341507
0.00795401
0.0126726
0.0170625
0.0203822
0.0222685
0.0228278
0.0228018
0.0226434
0.0225096
0.0224288
0.0306332
0.0303764
0.0302625
0.0298124
0.0292456
0.0282052
0.0267895
0.0247442
0.0221754
0.0190171
0.0154905
0.0116965
0.00788983
0.00416818
0.000679136
-0.00257758
-0.00556458
-0.00833631
-0.0108943
-0.0132893
-0.0155193
-0.0176127
-0.0195569
-0.0213624
-0.0230112
-0.0245043
-0.025824
-0.0269669
-0.027919
-0.0286749
-0.0292257
-0.0295662
-0.029693
-0.0296019
-0.0292956
-0.0287713
-0.0280373
-0.0270921
-0.0259488
-0.0246068
-0.0230822
-0.021375
-0.0194996
-0.0174537
-0.015237
-0.0128317
-0.0101944
-0.00726622
-0.00393279
-0.000111346
0.00428709
0.00911019
0.0140023
0.0182017
0.0210174
0.0222359
0.022346
0.0222029
0.0220468
0.0219266
0.0296368
0.029368
0.0292127
0.0286896
0.0280072
0.0268052
0.0251821
0.0228979
0.0200854
0.0167111
0.0130269
0.00914691
0.00532352
0.00163358
-0.00179885
-0.00499835
-0.00794167
-0.0106922
-0.0132518
-0.0156698
-0.0179394
-0.0200847
-0.0220887
-0.0239586
-0.0256741
-0.0272336
-0.0286184
-0.029823
-0.0308325
-0.0316398
-0.0322354
-0.0326118
-0.0327661
-0.0326916
-0.0323926
-0.0318636
-0.0311158
-0.0301452
-0.0289684
-0.0275828
-0.0260089
-0.0242457
-0.0223138
-0.0202138
-0.0179568
-0.0155367
-0.012929
-0.0100943
-0.0069292
-0.00334306
0.000823187
0.00554016
0.0106582
0.0154984
0.0192741
0.0212977
0.0218017
0.0216315
0.0215053
0.0213148
0.0285301
0.0282544
0.0280556
0.0274624
0.0266667
0.0253137
0.0235009
0.0210094
0.0179963
0.0144594
0.010672
0.00675396
0.00294699
-0.000694717
-0.00406948
-0.00722113
-0.0101361
-0.012882
-0.0154592
-0.0179134
-0.0202329
-0.0224378
-0.0245075
-0.0264463
-0.0282321
-0.0298612
-0.0313142
-0.0325832
-0.0336533
-0.0345143
-0.035157
-0.0355708
-0.0357539
-0.0356964
-0.0354047
-0.0348705
-0.0341086
-0.0331118
-0.0319017
-0.0304723
-0.0288498
-0.0270302
-0.0250403
-0.0228804
-0.0205708
-0.0181124
-0.0154982
-0.0127081
-0.00965931
-0.00627374
-0.00236243
0.00212581
0.00723328
0.0124334
0.0170475
0.0199285
0.0211091
0.0209278
0.02086
0.0205858
0.0272834
0.0270044
0.0267598
0.0260999
0.0251955
0.0237057
0.0217253
0.0190615
0.0158914
0.0122413
0.00839657
0.00447693
0.000708371
-0.00287658
-0.00619629
-0.00930849
-0.0122059
-0.0149571
-0.0175593
-0.0200542
-0.0224258
-0.0246903
-0.0268245
-0.0288302
-0.0306843
-0.0323812
-0.0339011
-0.0352335
-0.0363634
-0.0372775
-0.0379671
-0.0384177
-0.0386291
-0.0385876
-0.0383028
-0.0377623
-0.0369857
-0.0359621
-0.0347192
-0.0332471
-0.0315783
-0.0297048
-0.0276601
-0.0254413
-0.0230766
-0.0205696
-0.0179276
-0.0151462
-0.0121661
-0.00893177
-0.00525547
-0.00104286
0.00388381
0.00919662
0.0143915
0.0181381
0.0201077
0.0201217
0.0200474
0.0197333
0.0259779
0.0257021
0.0254133
0.0246955
0.0236926
0.0220862
0.0199655
0.017167
0.0138825
0.0101627
0.00629681
0.00240047
-0.00131899
-0.00484785
-0.00812142
-0.0112064
-0.0140992
-0.0168665
-0.0195027
-0.0220443
-0.0244724
-0.0267991
-0.0290001
-0.0310747
-0.0329997
-0.0347668
-0.0363566
-0.0377553
-0.0389484
-0.0399182
-0.0406573
-0.0411464
-0.0413876
-0.0413623
-0.0410843
-0.0405363
-0.0397441
-0.0386919
-0.0374151
-0.0358987
-0.0341838
-0.0322569
-0.0301596
-0.0278835
-0.025465
-0.0229058
-0.0202249
-0.0174288
-0.0144799
-0.0113488
-0.00786619
-0.00392727
0.000724361
0.00595507
0.0114408
0.0159683
0.0187017
0.0192159
0.0190395
0.018752
0.02459
0.0243219
0.0239901
0.0232221
0.0221314
0.0204284
0.0181939
0.0152954
0.0119327
0.00817789
0.00431672
0.000459525
-0.0032062
-0.00668147
-0.0099159
-0.0129809
-0.0158751
-0.0186619
-0.0213329
-0.0239199
-0.0264016
-0.028787
-0.0310513
-0.0331913
-0.0351844
-0.0370194
-0.0386776
-0.0401414
-0.041397
-0.0424218
-0.04321
-0.0437366
-0.0440071
-0.0439967
-0.0437246
-0.0431673
-0.0423583
-0.0412755
-0.039964
-0.0384022
-0.0366419
-0.0346622
-0.0325154
-0.0301852
-0.0277173
-0.0251081
-0.0223866
-0.0195644
-0.0166225
-0.0135563
-0.0102209
-0.00652878
-0.00218116
0.00282498
0.00836349
0.0134649
0.0169122
0.0181173
0.0178543
0.0176094
0.0232148
0.0229617
0.0225918
0.0217854
0.0206214
0.0188452
0.016525
0.0135604
0.0101521
0.00639084
0.00255295
-0.00125661
-0.00486996
-0.00829861
-0.0115039
-0.0145583
-0.0174621
-0.0202739
-0.0229835
-0.0256176
-0.0281542
-0.0305988
-0.0329273
-0.0351337
-0.0371966
-0.0391013
-0.0408305
-0.0423615
-0.0436822
-0.044764
-0.0456035
-0.046169
-0.0464701
-0.0464747
-0.0462088
-0.0456413
-0.0448149
-0.0436996
-0.0423523
-0.040743
-0.0389366
-0.0369035
-0.0347086
-0.0323262
-0.0298132
-0.0271574
-0.0243981
-0.0215462
-0.018598
-0.0155701
-0.0123407
-0.00885898
-0.00480319
-0.000111389
0.00531242
0.0107108
0.0148167
0.016715
0.0165406
0.0162766
0.0218255
0.0215919
0.0211874
0.020352
0.019127
0.0172975
0.0149149
0.0119108
0.00848095
0.00473228
0.00092784
-0.00283105
-0.00639538
-0.00978267
-0.0129644
-0.0160116
-0.0189262
-0.0217612
-0.0245059
-0.0271821
-0.0297683
-0.0322663
-0.0346541
-0.0369219
-0.0390508
-0.0410215
-0.0428188
-0.044414
-0.0457979
-0.0469341
-0.0478236
-0.0484256
-0.0487563
-0.0487739
-0.0485134
-0.0479336
-0.047089
-0.0459393
-0.0445556
-0.0428972
-0.0410449
-0.0389577
-0.0367166
-0.0342837
-0.0317305
-0.0290327
-0.0262415
-0.0233619
-0.0204036
-0.0173979
-0.014244
-0.0109352
-0.00714048
-0.00280238
0.00239521
0.0078271
0.0124918
0.0149785
0.0151301
0.0147504
0.0205239
0.020317
0.0198851
0.0190333
0.0177622
0.0159009
0.0134796
0.0104616
0.00703166
0.00331123
-0.000453075
-0.00416159
-0.00768279
-0.0110364
-0.0142026
-0.0172485
-0.020178
-0.0230382
-0.0258189
-0.0285368
-0.0311721
-0.0337229
-0.0361695
-0.0384984
-0.0406935
-0.04273
-0.044596
-0.0462556
-0.0477034
-0.0488942
-0.0498344
-0.0504731
-0.0508341
-0.0508646
-0.0506102
-0.0500177
-0.0491556
-0.0479708
-0.0465513
-0.0448428
-0.0429452
-0.0408032
-0.0385176
-0.0360352
-0.0334459
-0.0307097
-0.0278934
-0.0249901
-0.0220243
-0.0190326
-0.0159352
-0.012766
-0.00919858
-0.00521449
-0.000317022
0.00494693
0.0100045
0.0129519
0.0135958
0.0130401
0.0192701
0.0190936
0.0186391
0.0177794
0.0164733
0.0145959
0.012153
0.00913853
0.0057211
0.00203657
-0.0016869
-0.0053481
-0.00883188
-0.0121564
-0.0153098
-0.0183541
-0.021296
-0.0241762
-0.0269867
-0.0297388
-0.0324162
-0.0350119
-0.0375107
-0.0398934
-0.0421486
-0.0442443
-0.0461737
-0.0478917
-0.0493988
-0.050639
-0.0516263
-0.0522974
-0.0526866
-0.0527269
-0.0524776
-0.0518705
-0.050991
-0.04977
-0.0483155
-0.0465563
-0.0446149
-0.0424181
-0.0400902
-0.0375593
-0.0349381
-0.0321668
-0.0293326
-0.0264104
-0.0234434
-0.020463
-0.0174131
-0.0143561
-0.0109864
-0.00733179
-0.00277984
0.00218456
0.00742359
0.0107065
0.0118751
0.0111568
0.018168
0.0180283
0.0175596
0.016704
0.0153766
0.0135008
0.0110544
0.00806123
0.00466939
0.00102827
-0.00265364
-0.00627122
-0.00972407
-0.0130259
-0.0161723
-0.0192183
-0.0221744
-0.0250746
-0.0279142
-0.030699
-0.0334166
-0.0360551
-0.038604
-0.041038
-0.0433511
-0.0455033
-0.0474939
-0.0492673
-0.050832
-0.0521189
-0.0531524
-0.0538541
-0.0542713
-0.0543206
-0.0540777
-0.0534561
-0.0525615
-0.0513051
-0.0498184
-0.0480097
-0.0460275
-0.0437767
-0.0414099
-0.0388317
-0.036183
-0.0333791
-0.0305338
-0.0275971
-0.024637
-0.0216682
-0.0186644
-0.0156989
-0.0125038
-0.00914338
-0.00495864
-0.0003693
0.00483779
0.00833016
0.00994864
0.00913784
0.0171564
0.0170552
0.016578
0.0157333
0.0143934
0.0125303
0.0100917
0.00712993
0.00376922
0.000172892
-0.00347092
-0.00704972
-0.010477
-0.0137588
-0.0168985
-0.0199431
-0.0229084
-0.0258211
-0.0286818
-0.0314898
-0.0342389
-0.0369102
-0.0395003
-0.0419755
-0.0443377
-0.0465363
-0.0485797
-0.0503991
-0.0520138
-0.0533393
-0.054413
-0.0551387
-0.0555804
-0.0556342
-0.0553964
-0.0547581
-0.0538493
-0.0525571
-0.0510409
-0.0491833
-0.0471638
-0.0448603
-0.0424584
-0.0398341
-0.0371623
-0.0343278
-0.0314776
-0.0285298
-0.0255847
-0.0226291
-0.019674
-0.0167853
-0.0137472
-0.0106431
-0.0068268
-0.00264737
0.00235068
0.00592425
0.00787331
0.00705381
0.0163411
0.0162833
0.015807
0.0149843
0.0136444
0.011808
0.00939146
0.00647393
0.00315326
-0.000394138
-0.0040006
-0.00754455
-0.0109517
-0.0142186
-0.0173555
-0.0204008
-0.023376
-0.0263003
-0.0291807
-0.0320094
-0.0347872
-0.0374876
-0.0401153
-0.0426269
-0.0450338
-0.0472732
-0.0493645
-0.051224
-0.0528845
-0.0542432
-0.0553543
-0.0561003
-0.0565656
-0.0566223
-0.0563911
-0.0557365
-0.054817
-0.053491
-0.0519503
-0.0500467
-0.0479955
-0.0456421
-0.0432105
-0.0405422
-0.0378525
-0.0349892
-0.0321401
-0.0291835
-0.0262611
-0.0233204
-0.0204186
-0.0175965
-0.0147026
-0.0118199
-0.00835831
-0.00459541
6.90129e-05
0.00360114
0.00576217
0.00499826
0.0156325
0.0156172
0.015148
0.0143525
0.0130202
0.0112182
0.00883188
0.00596505
0.0026874
-0.000811306
-0.00438411
-0.0078972
-0.0112882
-0.0145407
-0.0176737
-0.0207144
-0.0236931
-0.0266198
-0.0295107
-0.0323488
-0.0351452
-0.0378626
-0.040517
-0.0430524
-0.0454929
-0.0477601
-0.0498886
-0.0517757
-0.0534722
-0.054853
-0.0559939
-0.0567513
-0.0572355
-0.0572892
-0.0570629
-0.0563892
-0.0554605
-0.0541004
-0.0525389
-0.0505907
-0.0485129
-0.0461114
-0.0436555
-0.0409446
-0.038242
-0.0353503
-0.0325074
-0.0295426
-0.0266489
-0.0237234
-0.0208794
-0.0181159
-0.0153564
-0.0126631
-0.00953293
-0.00617289
-0.00191614
0.00146815
0.00373691
0.00306273
0.015143
0.0151729
0.0147208
0.0139634
0.0126511
0.0108957
0.00855243
0.00574756
0.00252167
-0.000923743
-0.00446199
-0.00794644
-0.0113248
-0.014567
-0.0176991
-0.0207371
-0.0237199
-0.0266482
-0.0295482
-0.0323929
-0.0352049
-0.0379347
-0.0406115
-0.0431643
-0.0456328
-0.0479201
-0.0500795
-0.0519862
-0.0537131
-0.0551088
-0.0562755
-0.0570393
-0.0575411
-0.0575891
-0.0573696
-0.0566769
-0.0557435
-0.0543517
-0.052776
-0.0507868
-0.0486899
-0.0462439
-0.0437707
-0.0410197
-0.0383101
-0.035391
-0.032559
-0.0295856
-0.0267255
-0.023814
-0.021032
-0.01832
-0.0156872
-0.0131555
-0.0103294
-0.0073453
-0.00353162
-0.000379024
0.00190502
0.00132882
0.0147483
0.0148191
0.0143904
0.0136753
0.012391
0.0106887
0.00839651
0.00566013
0.00249053
-0.000899514
-0.00440408
-0.00786105
-0.0112285
-0.014459
-0.0175877
-0.0206167
-0.0235966
-0.026516
-0.0294154
-0.0322544
-0.0350711
-0.0377999
-0.0404876
-0.0430436
-0.0455281
-0.0478209
-0.0499996
-0.0519115
-0.0536583
-0.0550561
-0.0562404
-0.0570001
-0.0575142
-0.0575495
-0.0573349
-0.0566193
-0.0556828
-0.0542583
-0.0526726
-0.0506432
-0.0485328
-0.0460436
-0.043559
-0.0407682
-0.0380565
-0.0351083
-0.0322908
-0.0293057
-0.026482
-0.0235805
-0.0208623
-0.0181937
-0.0156805
-0.0132842
-0.0107335
-0.00808935
-0.00472679
-0.00186467
0.000349851
-0.000137608
0.0145772
0.0146885
0.0142934
0.0136313
0.0123889
0.0107517
0.00852434
0.00586871
0.00276697
-0.000559807
-0.0040258
-0.00745426
-0.010812
-0.0140337
-0.0171621
-0.0201844
-0.0231633
-0.0260741
-0.0289727
-0.0318039
-0.0346232
-0.0373469
-0.0400417
-0.0425946
-0.0450899
-0.0473803
-0.0495723
-0.051481
-0.0532422
-0.0546343
-0.0558324
-0.0565822
-0.0571076
-0.057127
-0.0569196
-0.0561808
-0.0552463
-0.0537911
-0.0522027
-0.0501363
-0.0480206
-0.0454913
-0.0430029
-0.0401737
-0.0374657
-0.0344871
-0.0316876
-0.0286866
-0.0259011
-0.0230034
-0.0203498
-0.0177148
-0.0153152
-0.01303
-0.0107276
-0.00838277
-0.00546237
-0.00292579
-0.000858686
-0.00127607
0.0144619
0.0146059
0.0142499
0.0136448
0.0124541
0.0108894
0.00873706
0.00617186
0.00314728
-0.000108425
-0.00353111
-0.00692711
-0.0102735
-0.0134826
-0.0166075
-0.019616
-0.022587
-0.0254787
-0.0283673
-0.0311781
-0.03399
-0.0366947
-0.0393863
-0.0419217
-0.0444173
-0.0466907
-0.0488856
-0.0507767
-0.052543
-0.0539162
-0.0551207
-0.0558496
-0.0563817
-0.056377
-0.0561754
-0.0554082
-0.0544774
-0.0529888
-0.0514018
-0.0492973
-0.0471816
-0.044611
-0.0421242
-0.039254
-0.0365535
-0.0335396
-0.0307597
-0.0277348
-0.0249872
-0.022083
-0.0194921
-0.0168779
-0.0145846
-0.0123855
-0.0103055
-0.00821539
-0.00571551
-0.00351635
-0.00166457
-0.00203417
0.0145637
0.014737
0.0144287
0.0138906
0.0127671
0.0112881
0.00922655
0.00676643
0.0038349
0.000663362
-0.00270533
-0.006063
-0.00939586
-0.0125937
-0.0157184
-0.018717
-0.0216844
-0.0245594
-0.0274405
-0.0302309
-0.0330359
-0.0357194
-0.0384065
-0.04092
-0.0434133
-0.0456633
-0.0478578
-0.0497241
-0.0514921
-0.0528397
-0.0540486
-0.0547511
-0.0552902
-0.0552583
-0.0550654
-0.054269
-0.0533475
-0.0518265
-0.0502484
-0.0481073
-0.0459998
-0.0433887
-0.0409107
-0.037998
-0.0353102
-0.0322556
-0.0294973
-0.0264392
-0.0237285
-0.0208053
-0.0182744
-0.0156654
-0.0134717
-0.0113337
-0.0094528
-0.00757206
-0.00546395
-0.00359425
-0.00201158
-0.00235429
0.014659
0.0148511
0.0145934
0.0141256
0.0130812
0.011698
0.00974107
0.00740101
0.0045787
0.00150787
-0.00179372
-0.00510097
-0.00841332
-0.011592
-0.0147124
-0.0176932
-0.0206518
-0.0235001
-0.026367
-0.0291251
-0.0319158
-0.0345655
-0.0372407
-0.0397195
-0.0422033
-0.044417
-0.0466042
-0.048433
-0.0501967
-0.0515065
-0.0527152
-0.0533807
-0.0539242
-0.0538563
-0.053672
-0.0528396
-0.0519297
-0.0503711
-0.0488057
-0.0466236
-0.0445289
-0.0418723
-0.0394071
-0.0364448
-0.033772
-0.0306663
-0.0279293
-0.0248239
-0.0221472
-0.0191877
-0.016712
-0.0140884
-0.011986
-0.00988136
-0.00817694
-0.00645691
-0.00470377
-0.00313469
-0.00185458
-0.00218631
0.0149654
0.015172
0.0149685
0.0145788
0.0136285
0.0123554
0.01052
0.00831694
0.00562359
0.00267232
-0.000544704
-0.00378911
-0.00707392
-0.0102321
-0.0133515
-0.0163199
-0.0192773
-0.0221049
-0.0249645
-0.0276942
-0.0304755
-0.0330926
-0.0357591
-0.0382021
-0.0406782
-0.0428528
-0.0450337
-0.0468208
-0.0485809
-0.0498485
-0.0510582
-0.0516829
-0.0522335
-0.0521268
-0.0519557
-0.051086
-0.0501939
-0.0485973
-0.0470522
-0.0448282
-0.042754
-0.0400493
-0.0376035
-0.0345857
-0.0319317
-0.0287646
-0.0260492
-0.0228808
-0.0202351
-0.0172194
-0.0147938
-0.0121329
-0.0101147
-0.00801436
-0.00646734
-0.00485986
-0.00342282
-0.00211017
-0.00114306
-0.00147116
0.0151838
0.0153938
0.0152431
0.0149331
0.0140886
0.0129395
0.0112434
0.00919895
0.00665836
0.00385425
0.000745703
-0.00241183
-0.00565377
-0.00877637
-0.0118882
-0.0148349
-0.0177882
-0.0205866
-0.0234365
-0.0261282
-0.0288975
-0.0314719
-0.0341274
-0.0365245
-0.0389913
-0.0411167
-0.04329
-0.0450254
-0.0467811
-0.0479964
-0.049207
-0.0497811
-0.0503397
-0.0501852
-0.0500294
-0.049114
-0.0482432
-0.0466003
-0.0450797
-0.0428053
-0.0407557
-0.0379927
-0.0355693
-0.032483
-0.0298489
-0.0266033
-0.023908
-0.0206552
-0.0180367
-0.0149398
-0.0125594
-0.00983345
-0.00789276
-0.00576334
-0.00435591
-0.00280777
-0.00164243
-0.000522605
0.00014969
-0.000170777
0.015623
0.0158341
0.0157318
0.0155042
0.0147745
0.0137627
0.0122213
0.0103529
0.00798602
0.00535225
0.00237563
-0.000674971
-0.00386045
-0.00694098
-0.010047
-0.0129779
-0.0159384
-0.0187182
-0.0215715
-0.0242345
-0.0270031
-0.029541
-0.0321949
-0.0345496
-0.0370148
-0.0390927
-0.0412651
-0.0429489
-0.0447061
-0.0458681
-0.0470854
-0.0476074
-0.04818
-0.0479761
-0.0478425
-0.0468797
-0.0460379
-0.0443465
-0.0428586
-0.0405301
-0.0385128
-0.035685
-0.03329
-0.0301243
-0.0275132
-0.0241723
-0.0214965
-0.0181365
-0.0155416
-0.0123356
-0.00999577
-0.00717355
-0.00530596
-0.00311195
-0.00183259
-0.000292007
0.000639996
0.00163867
0.00205661
0.0017608
0.0158762
0.0160787
0.0160192
0.0158722
0.0152664
0.0144085
0.0130432
0.0113799
0.00921788
0.00679436
0.00398563
0.00108166
-0.00202016
-0.00503152
-0.00811994
-0.0110213
-0.0139883
-0.0167424
-0.0196028
-0.0222314
-0.025004
-0.0274992
-0.0301564
-0.0324623
-0.0349314
-0.0369548
-0.0391322
-0.040757
-0.0425216
-0.0436223
-0.044852
-0.0453131
-0.0459055
-0.0456425
-0.0455372
-0.0445163
-0.0437097
-0.041958
-0.0405087
-0.0381125
-0.0361327
-0.0332237
-0.0308609
-0.0275956
-0.0250092
-0.0215483
-0.0188918
-0.0153952
-0.0128228
-0.00947455
-0.00717535
-0.00422113
-0.0024277
-0.000127628
0.00103018
0.00262379
0.00336115
0.00432947
0.00455895
0.00432036
0.0163921
0.0165871
0.0165593
0.0164866
0.0160011
0.0153037
0.0141236
0.0126798
0.0107402
0.00855032
0.00593513
0.00320424
0.000206439
-0.0027217
-0.00579004
-0.00866546
-0.0116526
-0.0143951
-0.0172828
-0.0198926
-0.022689
-0.0251544
-0.0278319
-0.0300984
-0.032586
-0.0345618
-0.036757
-0.0383275
-0.040111
-0.0411535
-0.0424061
-0.0428076
-0.0434299
-0.0431078
-0.0430402
-0.04196
-0.041198
-0.0393829
-0.0379814
-0.0355116
-0.0335775
-0.0305775
-0.0282531
-0.0248727
-0.022314
-0.0187105
-0.0160732
-0.0124098
-0.00985807
-0.00633092
-0.00407163
-0.000944157
0.000771768
0.00322353
0.00425633
0.00596181
0.00652356
0.0075494
0.00765749
0.00752153
0.0166041
0.0167831
0.0167812
0.0167775
0.0164172
0.0158981
0.014928
0.0137415
0.0120623
0.0101588
0.00778416
0.00528374
0.00243112
-0.000369353
-0.00339652
-0.00622255
-0.0092288
-0.0119516
-0.0148772
-0.0174664
-0.020301
-0.0227355
-0.0254482
-0.027673
-0.0301935
-0.032118
-0.034345
-0.035856
-0.0376719
-0.0386489
-0.0399373
-0.04027
-0.0409342
-0.0405414
-0.0405232
-0.0393695
-0.0386631
-0.0367678
-0.0354243
-0.032861
-0.0309819
-0.0278669
-0.0255888
-0.0220646
-0.0195403
-0.0157608
-0.0131488
-0.00928098
-0.00675809
-0.00301097
-0.000804891
0.00254069
0.00416028
0.00681729
0.00770863
0.00960151
0.00999987
0.0111974
0.0112607
0.0112919
0.0171687
0.0173366
0.0173465
0.0173963
0.0171401
0.0167906
0.0160255
0.0151017
0.0136908
0.0120906
0.00997657
0.00773366
0.00504935
0.00239824
-0.000579218
-0.00335291
-0.00639047
-0.00910761
-0.0120964
-0.014686
-0.0175873
-0.0200109
-0.0227849
-0.0249843
-0.0275601
-0.0294458
-0.0317238
-0.0331848
-0.03505
-0.0359684
-0.0373076
-0.037576
-0.0382955
-0.0378344
-0.0378778
-0.0366506
-0.0360111
-0.0340329
-0.0327578
-0.0300946
-0.0282794
-0.0250382
-0.0228132
-0.0191275
-0.0166419
-0.0126602
-0.010076