/*--------------------------------*- C++ -*----------------------------------*\
| =========                 |                                                 |
| \\      /  F ield         | OpenFOAM: The Open Source CFD Toolbox           |
|  \\    /   O peration     | Version:  2406                                  |
|   \\  /    A nd           | Website:  www.openfoam.com                      |
|    \\/     M anipulation  |                                                 |
\*---------------------------------------------------------------------------*/
FoamFile
{
    version     2.0;
    format      ascii;
    arch        "LSB;label=32;scalar=64";
    class       volScalarField;
    location    "0.3";
    object      error_velocity_mag;
}
// * * * * * * * * * * * * * * * * * * * * * * * * * * * * * * * * * * * * * //

dimensions      [0 2 -2 0 0 0 0];

internalField   nonuniform List<scalar> 
16384
(
0.000172615455804
0.000385613014662
0.000620799896628
0.000858756286895
0.00109617074515
0.00133157953294
0.00156416117392
0.00179313205318
0.00201788403962
0.00223783868407
0.0024524103675
0.00266106460315
0.00286329848792
0.00305861212525
0.00324652468852
0.00342658758854
0.00359837155541
0.00376146444005
0.00391547656388
0.00406004281563
0.00419482403746
0.00431950574724
0.00443379520406
0.00453742312756
0.00463014785462
0.00471175541663
0.00478205790659
0.00484089327993
0.00488812582149
0.00492364583053
0.00494737032787
0.0049592445567
0.00495924213065
0.00494736413967
0.00492363857717
0.00488811995889
0.00484088943673
0.00478205538615
0.00471175347893
0.00463014603276
0.00453742173208
0.00443379578917
0.00431950959734
0.00419482998992
0.00406004883796
0.00391548280099
0.00376147281218
0.00359838342435
0.00342660222461
0.00324653925585
0.00305862648974
0.00286331735062
0.00266108615599
0.00245242763569
0.00223785709834
0.00201791165219
0.00179315299986
0.00156417354477
0.00133161066779
0.00109618179302
0.000858780554383
0.000620798726185
0.000385640086421
0.000172629064586
0.000172632946436
0.000385644830819
0.000620802990194
0.000858784332219
0.00109618514553
0.0013316134528
0.001564175507
0.00179315399704
0.00201791177614
0.00223785664334
0.00245242695994
0.00266108546701
0.00286331656994
0.00305862531814
0.00324653740532
0.00342659955044
0.00359837978679
0.00376146784058
0.0039154759192
0.0040600396043
0.00419481831097
0.00431949556137
0.00443377959118
0.00453740391212
0.0046301274623
0.00471173483265
0.0047820368105
0.00484087065494
0.00488810026512
0.00492361680647
0.00494733902997
0.00495921278854
0.00495921095438
0.00494733391775
0.0049236093616
0.00488809178785
0.00484086273651
0.00478203073604
0.00471173073531
0.00463012448356
0.00453740122098
0.00443377679038
0.00431949240691
0.00419481460729
0.00406003475157
0.00391546862073
0.00376145753021
0.00359836723706
0.00342658528815
0.00324652219965
0.00305861097522
0.00286330251284
0.0026610686518
0.00245241183371
0.00223784789042
0.00201790358118
0.00179314307285
0.00156416602932
0.00133162479889
0.00109615613432
0.000858812028624
0.000620777624776
0.000385666359403
0.000172627319628
0.000385644759544
0.000516211527762
0.000707717997178
0.000921700831399
0.00114421690816
0.00136938933276
0.00159441010752
0.00181756066096
0.00203759993577
0.00225360724623
0.00246484186834
0.00267061021141
0.00287028636487
0.0030633264016
0.00324921241072
0.00342744559634
0.00359756792432
0.00375915355947
0.00391179889081
0.00405512613439
0.00418878448026
0.00431245081168
0.00442582985275
0.00452865016227
0.00462066388786
0.0047016526585
0.00477142774547
0.00482982592877
0.00487670997605
0.0049119700872
0.00493552316106
0.00494731320988
0.00494731294593
0.00493552336905
0.00491197221115
0.00487671396234
0.00482983083674
0.00477143278995
0.00470165676481
0.00462066652435
0.00452865315179
0.004425835066
0.004312457204
0.00418879052954
0.00405513235128
0.00391180657651
0.00375916346395
0.00359757947136
0.00342745751123
0.00324922751883
0.00306334757653
0.0028703060245
0.00267062483538
0.00246486510342
0.00225363666101
0.00203761522327
0.00181757320156
0.00159443771028
0.00136940773519
0.00114421119983
0.000921729643959
0.000707720715214
0.000516215554615
0.000385626959659
0.000385629153801
0.00051622004873
0.000707725302559
0.000921733500873
0.00114421414497
0.001369409729
0.00159443860369
0.00181757280827
0.00203761358419
0.00225363412648
0.00246486202333
0.00267062114859
0.00287030119992
0.00306334091063
0.00324921834416
0.0034274450849
0.00359756280301
0.00375914142376
0.00391177818211
0.00405509695543
0.00418874780403
0.00431240698523
0.00442577721343
0.00452858768188
0.00462059395681
0.00470157816173
0.004771349283
0.00482974329568
0.00487662328447
0.00491187963594
0.00493543016328
0.0049472200303
0.00494722150899
0.00493543406664
0.00491188492381
0.00487662910336
0.00482974880593
0.00477135370735
0.00470158127776
0.00462059547845
0.00452858658084
0.00442577313936
0.00431240107257
0.00418874080874
0.00405508849159
0.00391176770992
0.00375912868149
0.00359754929725
0.00342743364536
0.00324920760551
0.00306332677546
0.00287028705813
0.00267061224376
0.00246485177765
0.00225362022416
0.00203760582616
0.00181756815318
0.00159443379144
0.00136939597692
0.00114423699883
0.000921708848638
0.000707754463948
0.000516216937341
0.000385621189942
0.000620776996436
0.000707713186062
0.000854813325028
0.00103571414303
0.00123421963605
0.00144169583502
0.00165301882025
0.00186520136417
0.00207625619459
0.00228470629916
0.00248941480339
0.0026894867577
0.00288414968899
0.00307270741045
0.00325455343913
0.00342914228596
0.0035959639369
0.0037545465123
0.00390445896114
0.00404530459084
0.0041767169865
0.00429835849166
0.00440991879414
0.00451111716588
0.00460170376317
0.00468145589668
0.00475017727296
0.00480770072121
0.00485388730449
0.00488862492118
0.00491182969605
0.00492344639362
0.00492344702641
0.00491183102476
0.0048886264492
0.00485388946199
0.00480770339856
0.00475017937545
0.00468145707884
0.00460170453184
0.00451111746441
0.00440991905787
0.00429836037935
0.00417672116524
0.00404531006624
0.00390446457082
0.00375455185555
0.00359597059902
0.0034291528013
0.00325456595857
0.00307271707652
0.00288415941255
0.00268950242863
0.0024894269973
0.00228471015491
0.00207626628559
0.00186521720566
0.00165301656667
0.00144168181325
0.00123424730608
0.00103568633362
0.000854804929732
0.000707704759069
0.000620772408441
0.000620773031515
0.000707706635368
0.000854807879909
0.00103568988715
0.00123425100013
0.00144168544287
0.00165302004253
0.00186522025359
0.00207626839315
0.00228471073926
0.00248942548012
0.00268949810067
0.00288415138843
0.00307270445124
0.00325454789204
0.00342912835108
0.00359593864832
0.00375451141676
0.00390441506393
0.00404525114368
0.00417665243
0.00429828150332
0.00440982999367
0.00451101832474
0.00460159541713
0.00468133818706
0.00475005130283
0.00480756746175
0.0048537476605
0.00488848087419
0.00491168351126
0.00492329946355
0.00492330061688
0.00491168687225
0.00488848571324
0.0048537526356
0.00480757159923
0.00475005429289
0.0046813396824
0.00460159506791
0.00451101628826
0.00440982652977
0.00429827665168
0.00417664628697
0.0040452435897
0.00390440588851
0.00375450106295
0.00359592746318
0.0034291161108
0.00325453576085
0.0030726936118
0.00288413846581
0.00268948259826
0.00248941299327
0.00228470067117
0.00207625536043
0.00186520800649
0.00165301617656
0.00144168393135
0.0012342402495
0.00103570642426
0.000854810869237
0.000707702662699
0.000620814187718
0.000858784034613
0.000921744535909
0.00103567137856
0.00118514058165
0.00135722675101
0.00154295373834
0.00173652326958
0.00193394494913
0.00213247852782
0.00233016977772
0.0025255284918
0.00271734764334
0.00290464178549
0.00308659422972
0.00326248533377
0.00343166846263
0.00359356688254
0.0037476673896
0.00389350313866
0.00403064280229
0.00415869144344
0.00427729223391
0.00438612301405
0.00448489220338
0.00457333825609
0.00465123043537
0.00471836754878
0.00477457731152
0.00481971636368
0.00485367004409
0.00487635257873
0.00488770747344
0.00488770685673
0.00487635065149
0.00485366694964
0.00481971263911
0.00477457341977
0.00471836371249
0.00465122671749
0.00457333454364
0.00448488859433
0.00438611997922
0.00427728973421
0.00415868941808
0.00403064243001
0.00389350563123
0.00374767102819
0.00359356811628
0.00343166766669
0.00326248741124
0.00308660005877
0.00290464461157
0.00271734309065
0.00252552619338
0.00233017310655
0.00213247381658
0.00193392893172
0.00173651398144
0.00154295473972
0.00135718928669
0.00118511782782
0.00103566890249
0.000921697510434
0.000858741049954
0.000858741698563
0.000921699319411
0.00103567169678
0.00118512161583
0.00135719410391
0.00154296043945
0.00173652017515
0.0019339349748
0.00213247880482
0.00233017598656
0.0025255259247
0.00271733862604
0.00290463473095
0.00308658336036
0.00326246258015
0.00343163369881
0.00359352419662
0.00374761623469
0.00389343891043
0.00403056294291
0.00415859687341
0.0042771842882
0.00438600184856
0.00448475792168
0.00457319162257
0.00465107213487
0.00471819824157
0.00477439800993
0.0048195285908
0.00485347601536
0.00487615491102
0.00488750832088
0.00488750781166
0.00487615354889
0.004853474044
0.00481952609562
0.00477439520596
0.00471819566682
0.00465107013839
0.0045731899206
0.00448475603515
0.00438599968207
0.00427718198812
0.00415859424315
0.00403055901484
0.00389343242588
0.00374760727494
0.00359351446739
0.00343162361703
0.00326245035081
0.0030865687606
0.00290462059368
0.00271732561139
0.00252551217097
0.00233016316601
0.00213246935353
0.00193392870286
0.00173651319914
0.00154295906734
0.00135719988339
0.00118513107214
0.00103567551518
0.000921742299542
0.000858740242364
0.00109616983434
0.0011441864423
0.00123428027005
0.00135719011776
0.00150399274904
0.00166710091745
0.00184081422542
0.0020209451511
0.00220438980176
0.00238878982317
0.00257234044541
0.0027536139673
0.00293143138169
0.00310480511694
0.00327289722895
0.00343497733918
0.00359039714714
0.00373857957457
0.00387900965252
0.00401122324899
0.00413479921111
0.00424935623005
0.00435455132592
0.00445007848174
0.00453566598215
0.00461107413382
0.00467609393281
0.00473054686666
0.00477428493285
0.00480719050675
0.00482917591503
0.00484018292832
0.00484018244207
0.00482917441482
0.0048071879017
0.00477428125434
0.00473054249079
0.00467608947183
0.00461106989079
0.00453566164092
0.00445007346897
0.0043545455622
0.00424935045313
0.00413479458706
0.00401122012512
0.00387900695584
0.00373857571106
0.00359039216107
0.00343497298609
0.00327289368747
0.00310479999276
0.00293142404156
0.00275360712941
0.00257233263032
0.00238877476617
0.00220437109476
0.00202093031486
0.00184079294107
0.00166706748358
0.00150395967327
0.0013571716878
0.00123421287668
0.00114416380959
0.00109612921836
0.00109612990945
0.00114416591252
0.00123421633369
0.00135717624813
0.00150396508697
0.00166707363217
0.00184079959331
0.00202093678354
0.00220437628474
0.00238877751401
0.00257233183842
0.0027536015421
0.00293141206746
0.00310477991496
0.00327286396001
0.00343493222083
0.0035903389064
0.00373850844801
0.0038789243168
0.00401112105257
0.00413467840175
0.00424921696836
0.00435439507011
0.0044499064774
0.00453547874226
0.00461087193249
0.004675877672
0.00473031838676
0.00477404676691
0.00480694541112
0.00482892650722
0.00483993154708
0.00483993129418
0.00482892587775
0.0048069447672
0.00477404648477
0.00473031867126
0.00467587844339
0.00461087277441
0.0045354791463
0.00444990633612
0.00435439469703
0.00424921646004
0.00413467727051
0.00401111855064
0.00387891995598
0.00373850247706
0.0035903319394
0.00343492439468
0.0032728553043
0.0031047705374
0.00293140270892
0.00275359229744
0.00257232415863
0.0023887724018
0.00220437336389
0.00202093721255
0.00184080432069
0.00166708243774
0.00150397990331
0.00135719579016
0.00123425371471
0.00114417138499
0.00109619958229
0.00133161593392
0.00136940461664
0.00144166816286
0.00154298598722
0.00166709162186
0.00180828972178
0.0019616476769
0.00212321361986
0.00228984016486
0.00245904532526
0.00262884680489
0.0027976347143
0.002964081333
0.00312707477395
0.00328566951265
0.00343904381343
0.00358647928474
0.00372734375698
0.00386107540802
0.00398716989563
0.00410517397889
0.00421468295171
0.00431533604479
0.00440681146151
0.0044888234287
0.00456112071269
0.00462348590931
0.00467573472739
0.00471771503167
0.00474930580148
0.00477041656379
0.00478098702633
0.00478098682285
0.00477041578286
0.00474930404896
0.00471771182201
0.00467572967862
0.00462347924795
0.00456111334297
0.00448881617534
0.00440680440406
0.00431532850514
0.00421467412234
0.00410516386055
0.00398715970334
0.00386106615254
0.00372733450069
0.00358646846785
0.00343903151211
0.00328565685567
0.00312706151511
0.00296406527302
0.00279761625477
0.00262882651496
0.00245902196425
0.00228981126711
0.00212317930053
0.00196161111544
0.00180824683822
0.00166704889017
0.00154291963371
0.00144163112029
0.00136934557485
0.00133154478758
0.00133154564936
0.00136934820141
0.00144163551328
0.00154292558506
0.00166705604088
0.00180825486072
0.00196161965973
0.00212318768805
0.00228981833522
0.00245902631464
0.00262882678296
0.00279761098855
0.00296405266786
0.00312703951225
0.00328562352027
0.00343898511014
0.00358640719958
0.00372725643809
0.0038609695733
0.00398704336779
0.00410502700266
0.0042145163669
0.00431514986794
0.00440660532475
0.004488597541
0.00456087640917
0.00462322547754
0.00467546086516
0.00471743042638
0.00474901314089
0.00477011863683
0.00478068676222
0.0047806873524
0.00477012026024
0.00474901552027
0.00471743336216
0.00467546427539
0.00462322921918
0.00456088007858
0.00448860061672
0.00440660766255
0.00431515186408
0.00421451830245
0.00410502842358
0.00398704346233
0.00386096822675
0.00372725457427
0.00358640539152
0.00343898277371
0.0032856202353
0.00312703645496
0.00296405052838
0.00279760918565
0.00262882619565
0.00245902883279
0.00228982380254
0.0021231971611
0.00196163349109
0.00180827410883
0.00166708170343
0.00154296001017
0.00144166978846
0.00136940325339
0.00133158102378
0.00156415708469
0.00159444092642
0.00165301202617
0.0017365291237
0.00184082126326
0.00196165198784
0.00209509248829
0.00223770954319
0.002386597773
0.00253933119212
0.0026938976978
0.00284862122332
0.00300208994859
0.00315310625116
0.00330064525264
0.00344381836938
0.00358184857518
0.00371405225584
0.00383982431893
0.00395862582234
0.00406997556172
0.00417344516566
0.00426865428661
0.00435526493909
0.00443297832425
0.00450153288808
0.00456070327264
0.00461029865113
0.00465016162988
0.00468016739054
0.00470022285847
0.00471026606212
0.00471026579913
0.00470022178592
0.00468016488047
0.00465015713096
0.00461029206364
0.00456069510944
0.00450152392231
0.00443296914145
0.00435525575755
0.00426864461072
0.00417343411868
0.00406996271361
0.0039586118955
0.00383980996688
0.00371403708859
0.00358183195315
0.0034438001675
0.00330062528876
0.00315308372125
0.00300206420481
0.00284859291067
0.0026938663632
0.00253929462597
0.00238655608778
0.00223766383276
0.00209504085827
0.00196159363991
0.00184075745224
0.00173646310161
0.0016529512339
0.00159436171081
0.00156409471948
0.00156409546687
0.00159436401478
0.00165295515615
0.00173646853555
0.00184076416185
0.00196160138079
0.00209504926654
0.00223767211472
0.00238656293176
0.0025392984876
0.00269386570778
0.00284858604959
0.00300204904725
0.00315305791378
0.00330058659299
0.00344374652139
0.00358176123688
0.00371394711723
0.00383969881539
0.00395847812948
0.00406980536237
0.00417325268153
0.00426843912256
0.00435502676293
0.00443271766826
0.00450125144845
0.00456040341798
0.00460998320331
0.00464983366566
0.00467983004733
0.00469987932116
0.00470991966379
0.00470992013472
0.00469988063545
0.00467983205389
0.00464983635022
0.00460998664819
0.00456040753583
0.00450125582871
0.00443272182337
0.00435503062911
0.00426844312865
0.00417325705293
0.0040698094577
0.00395848097538
0.00383970053611
0.00371394897501
0.00358176369662
0.00344374861085
0.00330058800476
0.00315306088449
0.00300205396631
0.00284859184645
0.00269387343778
0.00253931048827
0.00238657856686
0.0022376912998
0.00209507437865
0.00196163209057
0.00184080162642
0.00173651675348
0.00165300085668
0.00159442016392
0.00156416264408
0.00179314236867
0.00181755928094
0.00186522695187
0.00193393225617
0.00202095697517
0.00212321370162
0.0022377115846
0.00236163110829
0.0024924554226
0.00262797409616
0.00276627785204
0.00290572251478
0.00304488782832
0.00318254975636
0.00331764621368
0.00344924929123
0.00357654272248
0.00369880696942
0.00381540542394
0.00392577219684
0.00402940331199
0.00412585028901
0.00421471571588
0.004295647761
0.00436833659311
0.00443251157521
0.00448793988261
0.00453442483717
0.00457180447866
0.00459995059013
0.0046187677073
0.00462819213237
0.00462819168719
0.00461876613022
0.00459994725528
0.00457179873323
0.00453441652983
0.00448792954216
0.00443250000157
0.00436832436671
0.00429563496593
0.00421470179155
0.00412583455874
0.00402938548564
0.00392575267321
0.00381538420547
0.0036987836819
0.00357651723208
0.00344922198226
0.00331761687934
0.00318251688824
0.00304485058829
0.002905681393
0.0027662336819
0.00262792456625
0.00249239984477
0.00236157066939
0.00223764517156
0.00212314373977
0.0020208775698
0.00193386211267
0.0018651373086
0.00181748339601
0.00179306128172
0.00179306206529
0.00181748585003
0.00186514155681
0.00193386804403
0.00202088490254
0.00212315224916
0.00223765458046
0.00236158018427
0.0024924079639
0.00262792947849
0.00276623367741
0.00290567468369
0.00304483488515
0.00318248949742
0.00331757520779
0.00344916370417
0.00357643999121
0.00369868501239
0.0038152619027
0.00392560506291
0.00402921139696
0.00412563334152
0.00421447345151
0.00429538015382
0.00436804429447
0.00443219635735
0.00448760432275
0.00453407201791
0.00457143780614
0.00459957353647
0.00461838372607
0.00462780496383
0.00462780555744
0.00461838545119
0.00459957633691
0.0045714417579
0.00453407723861
0.00448761068151
0.00443220337053
0.00436805148924
0.00429538758502
0.00421448164418
0.00412564246037
0.00402922060215
0.00392561330817
0.00381526956793
0.00369869365674
0.00357644993106
0.00344917326422
0.00331758449968
0.00318250120386
0.0030448496168
0.00290569055183
0.0027662526761
0.00262795328785
0.00249243593541
0.002361612352
0.00223769325811
0.0021231956325
0.00202093586992
0.00193392347777
0.00186521133365
0.00181754823146
0.00179314158441
0.00201790580219
0.00203760200107
0.00207626641868
0.00213248268726
0.00220438577833
0.00228984145865
0.00238659707406
0.00249245373861
0.00260533553082
0.00272333746548
0.00284474744459
0.00296804032401
0.00309186380436
0.00321502567023
0.00333647351666
0.00345527535697
0.00357060462486
0.00368172796202
0.0037879933901
0.00388881986085
0.00398368980043
0.00407214237099
0.00415376880424
0.00422820762669
0.00429514102392
0.00435429225519
0.00440542330375
0.00444833318833
0.00448285658092
0.00450886259468
0.00452625379307
0.00453496531836
0.00453496451487
0.00452625115419
0.00450885756299
0.00448284862351
0.00444832220412
0.00440540973712
0.0043542767023
0.00429512375396
0.00422818858498
0.0041537478109
0.00407211908074
0.00398366399424
0.00388879160052
0.00378796250817
0.00368169426261
0.0035705679968
0.00345523611595
0.00333643168939
0.00321498027917
0.00309181375679
0.00296798569508
0.00284468870771
0.00272327328814
0.00260526543554
0.00249237891736
0.00238651708125
0.0022897564219
0.00220430028772
0.0021323906386
0.00207617170404
0.00203751190356
0.00201780749579
0.00201780859835
0.00203751531495
0.00207617754388
0.0021323987596
0.0022043103228
0.00228976807092
0.00238653004098
0.00249239237916
0.00260527779203
0.00272328249181
0.00284469276177
0.00296798256724
0.0030918009571
0.00321495489237
0.00333639085946
0.00345517722722
0.00357048839522
0.00368159118974
0.00378783348226
0.00388863470377
0.00398347786704
0.00407190296825
0.00415350168254
0.00422791310714
0.00429482023273
0.00435394705343
0.00440505627796
0.00444794752546
0.00448245586841
0.00450845066457
0.00452583463941
0.00453454321252
0.00453454412563
0.00452583735277
0.00450845517647
0.004482462291
0.00444795595867
0.00440506651228
0.00435395851224
0.00429483244432
0.00422792625288
0.00415351638768
0.00407191925887
0.00398349464398
0.00388865096463
0.00378784993906
0.00368160961486
0.00357050870766
0.00345519713016
0.00333641091799
0.00321497793824
0.00309182708239
0.0029680093298
0.00284472296997
0.00272331820399
0.00260531716462
0.00249243623973
0.00238658044371
0.00228982488045
0.00220437365894
0.00213246860666
0.00207625678291
0.00203759466734
0.00201789188352
0.00223784194373
0.00225363473754
0.00228470022528
0.002330183366
0.00238878498262
0.00245904721037
0.00253932876794
0.00262797132376
0.00272333579269
0.00282385887577
0.00292808236202
0.00303466429848
0.0031423816219
0.00325012850702
0.00335690988271
0.0034618298144
0.00356408425549
0.00366295202555
0.00375778681187
0.00384800971477
0.00393310282835
0.00401260373113
0.00408610092668
0.00415323055751
0.00421367228416
0.00426714745915
0.0043134165982
0.00435227722633
0.00438356266601
0.00440714100222
0.00442291401386
0.00443081633483
0.00443081518401
0.0044229105011
0.00440713492479
0.00438355376094
0.00435226544947
0.00431340220475
0.00426713061384
0.00421365285794
0.00415320853797
0.00408607643236
0.00401257653084
0.00393307286982
0.00384797678853
0.00375775058283
0.00366291222357
0.00356404094728
0.00346178324415
0.00335685986361
0.0032500743725
0.0031423223107
0.00303459999224
0.0029280129745
0.00282378351243
0.00272325426018
0.00262788470511
0.00253923732889
0.00245894975257
0.00238868769899
0.00233007498029
0.00228460202897
0.00225352103415
0.00223774128294
0.00223774244962
0.00225352464037
0.00228460819917
0.00233008356294
0.00238869831944
0.00245896210378
0.00253925111802
0.0026278991307
0.00272326767586
0.00282379377493
0.0029280179382
0.00303459741628
0.00314230944445
0.00325004806375
0.00335681710014
0.00346172127469
0.00356395688487
0.00366280297074
0.00375761332908
0.00384780938533
0.00393287381445
0.00401234497585
0.00408581230034
0.00415291247736
0.00421332619633
0.00426677540356
0.00431302106244
0.00435186135207
0.00438313020437
0.00440669611485
0.00442246119656
0.00443036046732
0.00443036147977
0.00442246424622
0.00440670127483
0.00438313763223
0.00435187114516
0.00431303297226
0.00426678882751
0.00421334070486
0.00415292837475
0.00408583028321
0.00401236497606
0.00393289462895
0.00384783009249
0.00375763494389
0.00366282755057
0.00356398410346
0.00346174888455
0.0033568458024
0.00325008120843
0.00314234596566
0.00303463529732
0.00292806006867
0.002823842115
0.0027233200608
0.00262795713411
0.00253931562917
0.00245903318658
0.00238877431719
0.00233016974265
0.0022846921799
0.00225362463969
0.00223783573602
0.002452412932
0.00246485471856
0.00248942100425
0.00252552418561
0.00257234173876
0.00262884391418
0.0026938929507
0.00276627146133
0.00284474132182
0.0029280780309
0.00301510032908
0.00310468775594
0.00319578989502
0.00328743397395
0.00337872480451
0.00346884158017
0.00355703692976
0.003642631756
0.00372500999304
0.00380361548571
0.00387794741424
0.00394755665926
0.00401204110968
0.00407104394234
0.00412425052405
0.00417138667087
0.00421221665116
0.0042465409754
0.00427419507725
0.00429504847168
0.00430900393967
0.00431599694168
0.00431599532265
0.00430899918483
0.00429504075536
0.00427418443199
0.00424652735658
0.00421220005893
0.00417136696286
0.0041242274951
0.00407101776235
0.00401201206499
0.00394752463207
0.00387791211484
0.0038035762662
0.00372496670677
0.00364258441901
0.00355698573611
0.00346878621675
0.00337866491151
0.00328736929692
0.00319571967572
0.00310461197565
0.00301501913458
0.00292799062166
0.00284464777181
0.00276617256321
0.0026937888932
0.00262873543228
0.00257222821278
0.00252541220439
0.00248930483198
0.00246473731115
0.00245230047952
0.00245230194694
0.00246474181994
0.00248931250236
0.00252542285646
0.00257224141367
0.00262875080962
0.00269380609807
0.00276619073506
0.00284466517675
0.00292800501112
0.00301502825606
0.00310461344888
0.00319571052472
0.00328734607715
0.00337862435606
0.00346872541163
0.00355690165298
0.00364247373797
0.00372482630942
0.00380340369765
0.00387770564608
0.0039472833116
0.00401173580494
0.00407070722851
0.00412388404261
0.00417099273963
0.00421179788637
0.00424610050292
0.00427373674782
0.0042945768291
0.00430852410051
0.00431551438115
0.00431551563067
0.00430852788942
0.00429458328837
0.00427374607712
0.00424611281182
0.00421181289193
0.00417100976174
0.00412390266553
0.00407072794069
0.00401175941739
0.00394730957065
0.00387773311227
0.00380343154228
0.0037248559861
0.00364250732512
0.00355693824379
0.00346876293779
0.00337866425484
0.0032873920554
0.00319576063325
0.003104665787
0.00301508612061
0.00292806939076
0.00284473353104
0.00276626445981
0.00269388634626
0.00262883682224
0.00257233253381
0.002525520181
0.00248941397354
0.0024648458694
0.00245241518129
0.00266107756838
0.00267060552974
0.00268949517128
0.00271733244318
0.00275360850608
0.00279762432072
0.00284860904245
0.002905706972
0.00296802567419
0.00303465200192
0.0031046796393
0.00317722500873
0.00325143687268
0.00332650796209
0.00340167790981
0.00347623615263
0.00354952440314
0.00362093604724
0.00368991275633
0.00375594486072
0.00381856925462
0.00387736769188
0.00393196359042
0.00398202002959
0.00402723891803
0.00406735975572
0.00410215797075
0.00413144309459
0.00415505767677
0.00417287664579
0.00418480674574
0.00419078613726
0.00419078403642
0.0041848004916
0.0041728663486
0.0041550433953
0.00413142483784
0.00410213576429
0.00406733348665
0.00402720844853
0.00398198562956
0.0039319256558
0.00387732606743
0.00381852320131
0.00375589394402
0.00368985724215
0.00362087616217
0.00354946017558
0.00347616686666
0.00340160344949
0.00332642837811
0.00325135186405
0.0031771343786
0.00310458364361
0.00303454999006
0.00296791831833
0.00290559529337
0.00284849219652
0.00279750395496
0.00275348361301
0.00271721209645
0.00268936569949
0.00267048505333
0.0026609483075
0.00266095049159
0.00267049172446
0.00268937698174
0.00271722775779
0.00275350309951
0.00279752673424
0.00284851777665
0.00290562268066
0.00296794562683
0.00303457479377
0.0031046035324
0.00317714683239
0.00325135371763
0.00332641590218
0.00340157304295
0.00347611531998
0.00354938423439
0.00362077232442
0.00368972220165
0.00375572499497
0.00381831832108
0.00387708407103
0.00393164637902
0.00398166978334
0.00402685748427
0.00406694967601
0.00410172209177
0.00413098478147
0.0041545810849
0.00417238674163
0.00418430910151
0.00419028656771
0.00419028839719
0.00418431467563
0.00417239625476
0.00415459471602
0.00413100252893
0.00410174354434
0.00406697408889
0.00402688450854
0.00398170002127
0.00393168061802
0.00387712188256
0.00381835809805
0.00375576595622
0.00368976592507
0.00362082052772
0.00354943553656
0.00347616738086
0.00340162808433
0.00332647700686
0.00325141848338
0.00317721368174
0.00310467605359
0.00303465305395
0.00296802762769
0.00290571002711
0.00284861094469
0.00279762516531
0.00275360845198
0.00271733482199
0.0026894953895
0.0026706036898
0.00266107540723
0.00286330738909
0.002870292977
0.00288414227706
0.00290463467776
0.00293141546614
0.0029640638396
0.00300206839572
0.00304486349822
0.0030918399858
0.00314235914717
0.00319577155945
0.00325142649066
0.00330868169754
0.00336691403629
0.00342552317654
0.00348393640674
0.00354161352949
0.00359804904502
0.00365277021509
0.00370533911883
0.00375535420707
0.00380244874569
0.00384629040706
0.0038865791597
0.00392304761517
0.0039554610959
0.00398361642241
0.00400734055144
0.00402649009199
0.00404095093077
0.00405063783394
0.0040554942331
0.00405549192218
0.00405063088466
0.00404093937011
0.00402647397052
0.00400731993399
0.00398359143856
0.00395543169384
0.00392301357309
0.00388654062434
0.00384624765405
0.00380240133631
0.00375530127603
0.00370528069147
0.00365270667639
0.00359798092919
0.003541540491
0.00348385754317
0.00342543869415
0.00336682423726
0.00330858631733
0.00325132526216
0.0031956648265
0.00314224655119
0.00309172189786
0.00304474141025
0.0030019420184
0.00296393340789
0.00293128281574
0.00290449787053
0.00288400919167
0.00287015514473
0.00286316956552
0.00286317230375
0.0028701634991
0.00288402332191
0.00290451752083
0.00293130732101
0.00296396208529
0.00300197424925
0.00304477611215
0.00309175708311
0.00314227965132
0.00319569327738
0.00325134641989
0.00330859690341
0.00336682035577
0.00342541650419
0.00348381353972
0.00354147112093
0.00359788245146
0.00365257562752
0.00370511423128
0.00375509718936
0.00380215820912
0.00384596514595
0.00388621938114
0.00392265508842
0.00395503837822
0.00398316647741
0.00400686703194
0.00402599751564
0.00404044462973
0.00405012372811
0.00405497844491
0.0040549806382
0.00405013041562
0.00404045603601
0.00402601380984
0.00400688814802
0.00398319188291
0.00395506725303
0.00392268717719
0.00388625547262
0.00384600607696
0.00380220342178
0.00375514495185
0.00370516398695
0.00365262923085
0.00359794137173
0.0035415335409
0.0034838769639
0.00342548363096
0.00336689372109
0.00330867352802
0.00325142543569
0.00319577852589
0.00314237036799
0.0030918513982
0.0030448765241
0.00300208046246
0.00296407310428
0.00293142508883
0.00290464015962
0.00288414799814
0.0028702938668
0.00286330172764
0.00305861345027
0.00306333739492
0.0030726967194
0.00308658548759
0.00310478335165
0.00312704984087
0.00315307515941
0.00318251575829
0.00321499076642
0.00325009386098
0.00328740266115
0.0033264837355
0.00336689983412
0.00340821758466
0.00345001048374
0.00349186252109
0.00353337476667
0.00357416761909
0.00361388049969
0.00365217279817
0.00368872921069
0.00372325854561
0.00375549394002
0.00378519252637
0.00381213581857
0.00383613059962
0.00385700855556
0.0038746256248
0.00388886202233
0.00389962210549
0.00390683426813
0.00391045098333
0.00391044853424
0.00390682688768
0.00389960983388
0.00388884500005
0.00387460398931
0.00385698246898
0.00383610001288
0.00381210038731
0.00378515211577
0.00375544847213
0.00372320739449
0.00368867177334
0.00365210924335
0.00361381146166
0.00357409386175
0.00353329529712
0.00349177658411
0.00344991853771
0.00340812024286
0.00336679655246
0.00332637415585
0.00328728710194
0.00324997223348