/*--------------------------------*- C++ -*----------------------------------*\
| =========                 |                                                 |
| \\      /  F ield         | OpenFOAM: The Open Source CFD Toolbox           |
|  \\    /   O peration     | Version:  2406                                  |
|   \\  /    A nd           | Website:  www.openfoam.com                      |
|    \\/     M anipulation  |                                                 |
\*---------------------------------------------------------------------------*/
FoamFile
{
    version     2.0;
    format      ascii;
    arch        "LSB;label=32;scalar=64";
    class       surfaceScalarField;
    location    "0.3";
    object      phi;
}
// * * * * * * * * * * * * * * * * * * * * * * * * * * * * * * * * * * * * * //

dimensions      [0 3 -1 0 0 0 0];

oriented        oriented;

internalField   nonuniform List<scalar> 
32512
(
-6.66123178111e-05
6.66123026919e-05
-6.63715308418e-05
0.000199676518909
-6.59708482506e-05
0.000332259672362
-6.54111929935e-05
0.000464042186306
-6.46939716982e-05
0.000594706705112
-6.38208966732e-05
0.000723938295081
-6.27941162458e-05
0.000851425660285
-6.16159158675e-05
0.0009768615108
-6.02893760933e-05
0.00109994385944
-5.88176421185e-05
0.00122037602249
-5.72041207533e-05
0.00133786780948
-5.54527571273e-05
0.00145213627683
-5.3567876658e-05
0.00156290616076
-5.15539621219e-05
0.00166991053104
-4.94157923425e-05
0.00177289161648
-4.71585667263e-05
0.00187160140919
-4.47877744167e-05
0.0019658021378
-4.23091021495e-05
0.0020552668592
-3.9728483981e-05
0.00213978007383
-3.70521410044e-05
0.00221913824193
-3.42865491137e-05
0.00229315023962
-3.14383850324e-05
0.00236163780676
-2.85144953666e-05
0.00242443598373
-2.55219051251e-05
0.00248139352574
-2.24678266239e-05
0.00253237327039
-1.93596304732e-05
0.00257725245174
-1.62048074049e-05
0.0026159229897
-1.30109536389e-05
0.00264829175548
-9.7857606112e-06
0.00267428080311
-6.53699445493e-06
0.00269382754693
-3.2724787858e-06
0.00270688491627
-7.9413520153e-11
0.00271342147012
3.27231887454e-06
0.00271342146942
6.53683493908e-06
0.00270688491386
9.78560629998e-06
0.0026938275442
1.30108052659e-05
0.00267428080346
1.62046617174e-05
0.00264829175978
1.93594845271e-05
0.0026159229962
2.24676765454e-05
0.00257725246003
2.55217490657e-05
0.00253237327983
2.85143417765e-05
0.00248139353431
3.14382451041e-05
0.00242443599462
3.42864177655e-05
0.00236163783001
3.70519993753e-05
0.00229315028039
3.97283250934e-05
0.00221913829305
4.23089449591e-05
0.00213978012393
4.47876422705e-05
0.00205526690856
4.71584468863e-05
0.00196580220538
4.94156468193e-05
0.00187160150537
5.15538022923e-05
0.00177289171558
5.35677609298e-05
0.00166991060787
5.54526707079e-05
0.00156290624999
5.72039904853e-05
0.00145213640939
5.88175002353e-05
0.00133786793183
6.02893116725e-05
0.00122037609779
6.16158781346e-05
0.00109994395988
6.2794003051e-05
0.000976861661354
6.38208475785e-05
0.000851425736333
6.46939377498e-05
0.000723938394606
6.54111705028e-05
0.000594706792938
6.5970818229e-05
0.000464042296701
6.63715325532e-05
0.00033225972704
6.6612347973e-05
0.000199676601377
6.66926847846e-05
6.6612367596e-05
6.66123504092e-05
-6.66123653721e-05
6.63715392795e-05
-0.000199676600687
6.59708321114e-05
-0.000332259728862
6.54111947362e-05
-0.000464042301616
6.4693975964e-05
-0.000594706801647
6.38209042218e-05
-0.000723938407942
6.27940832539e-05
-0.000851425754716
6.1615987062e-05
-0.000976861684498
6.02894539464e-05
-0.00109994398714
5.88176796167e-05
-0.00122037612853
5.72042095783e-05
-0.00133786796524
5.54529307952e-05
-0.00145213644424
5.35680623427e-05
-0.00156290628492
5.15541449929e-05
-0.00166991064195
4.94160301697e-05
-0.00177289174804
4.71588685532e-05
-0.0018716015353
4.47880978362e-05
-0.00196580222994
4.23094291638e-05
-0.00205526692785
3.97288330687e-05
-0.00213978013727
3.70525258687e-05
-0.00221913829989
3.42869554707e-05
-0.00229315027947
3.14387849738e-05
-0.00236163782036
2.85148753692e-05
-0.00242443597631
2.5522269722e-05
-0.00248139350764
2.24681776569e-05
-0.00253237324425
1.93599574586e-05
-0.00257725241431
1.62050968657e-05
-0.00261592293988
1.3011195374e-05
-0.00264829169429
9.78594747402e-06
-0.00267428073164
6.53712416794e-06
-0.00269382746875
3.272552396e-06
-0.00270688483675
9.52691993336e-11
-0.00271342139221
-3.272364789e-06
-0.00271342139364
-6.53694305569e-06
-0.00270688484043
-9.7857728003e-06
-0.00269382747241
-1.30110252596e-05
-0.00267428073276
-1.6204927998e-05
-0.00264829169306
-1.93597867324e-05
-0.0026159229382
-2.24680061069e-05
-0.00257725241227
-2.55221007579e-05
-0.00253237324014
-2.85147080771e-05
-0.00248139350004
-3.1438614483e-05
-0.00242443596404
-3.42867796632e-05
-0.00236163780275
-3.70523472807e-05
-0.00229315025708
-3.97286547162e-05
-0.00221913827306
-4.2309249221e-05
-0.00213978010497
-4.4787911319e-05
-0.00205526688854
-4.71586811751e-05
-0.00196580218161
-4.94158576492e-05
-0.00187160147745
-5.15539813296e-05
-0.00177289169196
-5.35678828698e-05
-0.00166991059197
-5.54527480683e-05
-0.00156290622651
-5.72040578857e-05
-0.00145213637384
-5.88175402697e-05
-0.00133786790814
-6.02892925076e-05
-0.00122037608961
-6.1615831065e-05
-0.00109994394177
-6.27939795309e-05
-0.000976861634957
-6.38207692377e-05
-0.000851425745197
-6.4693853715e-05
-0.000723938405928
-6.54111074428e-05
-0.000594706780004
-6.59707346263e-05
-0.000464042343041
-6.63714856072e-05
-0.000332259745588
-6.6612307454e-05
-0.000199676636922
-6.6612429722e-05
-0.000199676564805
6.63714980469e-05
-0.000198954719249
0.000198954673354
-0.000197753532527
0.00033105848564
-0.000196076012598
0.000462364666377
-0.000193926056684
0.000592556749198
-0.000191308913884
0.000721321152281
-0.000188230852357
0.000848347598758
-0.00018469943648
0.000973330094923
-0.00018072295987
0.00109596738283
-0.000176311057858
0.00121596412048
-0.000171474493489
0.00133303124511
-0.000166224851734
0.00144688663507
-0.00016057468772
0.00155725599674
-0.000154537674701
0.00166387351802
-0.000148128422323
0.0017664823641
-0.000141362330761
0.00186483531763
-0.000134255657456
0.00195869546449
-0.000126825543023
0.00204783674476
-0.000119089920897
0.00213204445171
-0.00011106742868
0.00221111574971
-0.000102777372331
0.00228486018327
-9.42397120634e-05
0.00235310014649
-8.54750272642e-05
0.00241567129893
-7.65044463756e-05
0.00247242294485
-6.73495770091e-05
0.00252321840103
-5.80324646413e-05
0.00256793533937
-4.85755531246e-05
0.00260646607819
-3.90016269149e-05
0.00263871782927
-2.93337505902e-05
0.00266461292678
-1.95952143254e-05
0.00268408901067
-9.80947704305e-06
0.00269709917898
-1.09084496511e-10
0.00270361210216
9.8092610964e-06
0.00270361209924
1.95950023295e-05
0.00269709917263
2.9333540812e-05
0.00268408900572
3.90014182381e-05
0.00266461292603
4.85753457089e-05
0.00263871783231
5.80322583141e-05
0.0026064660836
6.73493728851e-05
0.00256793534546
7.65042454735e-05
0.00252321840725
8.5474824366e-05
0.00247242295542
9.42394997527e-05
0.00241567131923
0.000102777155119
0.00235310017464
0.000111067221322
0.00228486021419
0.00011908972789
0.00221111578649
0.000126825348577
0.00213204450324
0.000134255445542
0.00204783681159
0.000141362115962
0.00195869553496
0.000148128237925
0.00186483538341
0.000154537511362
0.00176648244215
0.00016057449502
0.00166387362421
0.000166224642991
0.00155725610202
0.000171474341105
0.00144688671128
0.000176310940768
0.00133303133216
0.000180722789115
0.00121596424944
0.000184699256529
0.00109596749247
0.000188230762292
0.000973330155591
0.000191308797771
0.000848347700854
0.000193925946633
0.000721321245744
0.000196075902724
0.000592556836848
0.000197753485935
0.00046236471349
0.000198954655109
0.000331058557866
0.00019967651716
0.000198954739326
0.000199917333181
6.63715515744e-05
0.00019967652276
-6.63715549512e-05
0.000198954666223
-0.00019895474415
0.000197753503569
-0.000331058566208
0.000196075929767
-0.000462364727813
0.00019392598728
-0.00059255685916
0.000191308856356
-0.000721321277018
0.000188230842734
-0.000848347741094
0.000184699362464
-0.000973330204228
0.000180722924077
-0.00109596754876
0.000176311108228
-0.00121596431268
0.000171474544571
-0.00133303140158
0.000166224885822
-0.00144688678549
0.000160574779549
-0.00155725617865
0.000154537837917
-0.00166387370031
0.00014812860502
-0.00176648251514
0.000141362521613
-0.00186483545189
0.000134255887813
-0.00195869559614
0.000126825824167
-0.00204783686421
0.000119090230557
-0.00213204454366
0.000111067742652
-0.00221111581199
0.000102777686824
-0.00228486022365
9.42400342215e-05
-0.00235310016776
8.54753531097e-05
-0.0024156712952
7.65047587335e-05
-0.00247242291327
6.73498618263e-05
-0.00252321834734
5.80327168563e-05
-0.00256793526934
4.85757694401e-05
-0.00260646599246
3.90018021546e-05
-0.002638717727
2.93338789881e-05
-0.00266461280848
1.95952893848e-05
-0.00268408887915
9.80949277324e-06
-0.00269709904013
6.31510218128e-11
-0.00270361196259
-9.80936774566e-06
-0.00270361196275
-1.95951679669e-05
-0.00269709904021
-2.93337622332e-05
-0.00268408887815
-3.90016892745e-05
-0.00266461280572
-4.85756593287e-05
-0.002638717723
-5.80326085322e-05
-0.002606465989
-6.73497529475e-05
-0.00256793526785
-7.65046469608e-05
-0.00252321834613
-8.54752392484e-05
-0.00247242290775
-9.42399202507e-05
-0.00241567128304
-0.000102777571481
-0.00235310015152
-0.000111067622795
-0.00228486020577
-0.000119090106277
-0.00221111578958
-0.000126825700936
-0.00213204451031
-0.000134255771645
-0.00204783681783
-0.000141362408183
-0.00195869554507
-0.000148128483299
-0.00186483540233
-0.000154537715098
-0.00176648246016
-0.000160574675608
-0.00166387363146
-0.000166224792745
-0.00155725610938
-0.000171474437981
-0.00144688672861
-0.000176311005011
-0.00133303134111
-0.000180722847525
-0.00121596424709
-0.000184699284999
-0.0010959675043
-0.000188230752325
-0.000973330167631
-0.000191308787438
-0.000848347710084
-0.000193925957716
-0.00072132123565
-0.000196075858483
-0.000592556879237
-0.000197753500617
-0.000462364700907
-0.000198954642399
-0.000331058603806
-0.000199676514142
-0.000198954765179
-6.63715744149e-05
-0.000332259659599
6.5970791685e-05
-0.000331058545349
0.000197753559104
-0.000329059829683
0.000329059769973
-0.000326268344169
0.000459573180863
-0.000322690855929
0.000588979260957
-0.000318336005597
0.00071696630195
-0.000313214208141
0.000843225801302
-0.000307337783142
0.000967453669924
-0.000300721031109
0.0010893506308
-0.00029337982719
0.00120862291656
-0.000285331769554
0.00132498318747
-0.000276596316336
0.00143815118185
-0.000267194572554
0.00154785425296
-0.000257149138128
0.00165382808359
-0.000246484178222
0.0017558174042
-0.000235225422703
0.00185357656211
-0.000223400021955
0.00194687006375
-0.000211036449597
0.00203547317241
-0.000198164472216
0.00211917247433
-0.000184815103424
0.00219776638092
-0.000171020519641
0.00227106559949
-0.000156813960104
0.00233889358695
-0.000142229640183
0.00240108697901
-0.000127302685482
0.00245749599015
-0.000112069059264
0.00250798477481
-9.65654662574e-05
0.00255243174636
-8.08292547403e-05
0.00259072986667
-6.48983308954e-05
0.00262278690542
-4.88110707237e-05
0.00264852566661
-3.26062268171e-05
0.00266788416676
-1.63228362812e-05
0.00268081578845
-1.26922822662e-10
0.0026872893928
1.63225802669e-05
0.00268728939205
3.26059667862e-05
0.00268081578611
4.88108085938e-05
0.00266788416391
6.48980687826e-05
0.00264852566584
8.08289928735e-05
0.00262278690822
9.65652039303e-05
0.00259072987254
0.000112068794623
0.00255243175476
0.000127302416652
0.00250798478522
0.000142229370555
0.00245749600152
0.000156813696394
0.00240108699339
0.00017102026112
0.00233889360992
0.0001848148408
0.00227106563451
0.000198164201606
0.00219776642568
0.00021103618172
0.00211917252313
0.000223399770626
0.00203547322268
0.000235225182812
0.00194687012277
0.000246483927778
0.00185357663844
0.000257148878977
0.00175581749095
0.000267194340781
0.0016538281624
0.000276596110972
0.00154785433183
0.000285331538183
0.00143815128407
0.000293379575715
0.00132498329463
0.000300720832608
0.00120862299255
0.000307337621028
0.00108935070405
0.000313213998862
0.000967453777757
0.000318335807753
0.000843225891963
0.000322690707311
0.000716966346186
0.0003262682052
0.000588979338959
0.000329059682263
0.000459573236426
0.000331058412806
0.000329059827323
0.000332259580901
0.000197753571231
0.000332660292699
6.59708397765e-05
0.000332259583671
-6.59708459228e-05
0.000331058420288
-0.000197753580767
0.000329059696971
-0.000329059842891
0.000326268229243
-0.000459573260085
0.000322690742821
-0.000588979372738
0.00031833585772
-0.000716966391917
0.000313214067139
-0.000843225950513
0.000307337711742
-0.000967453848831
0.000300720949899
-0.00108935078691
0.000293379723732
-0.00120862308652
0.000285331720683
-0.00132498339853
0.00027659633075
-0.00143815139556
0.000267194599779
-0.00154785444768
0.000257149178828
-0.00165382827936
0.000246484269507
-0.00175581760582
0.000235225565491
-0.00185357674787
0.000223400190665
-0.00194687022132
0.000211036633925
-0.00203547330747
0.00019816468059
-0.00211917259033
0.000184815340662
-0.00219776647206
0.000171020774171
-0.00227106565715
0.000156814213482
-0.00233889360707
0.000142229882843
-0.00240108696456
0.000127302916177
-0.0024574959466
0.000112069273169
-0.00250798470433
9.65656526647e-05
-0.00255243164884
8.08294036076e-05
-0.00259072974341
6.4898435052e-05
-0.00262278675845
4.88111254453e-05
-0.00264852549887
3.26062301151e-05
-0.00266788398382
1.6322787058e-05
-0.00268081559708
2.26460081943e-11
-0.00268728919817
-1.6322742045e-05
-0.00268728919806
-3.26061849719e-05
-0.00268081559729
-4.88110784699e-05
-0.00266788398465
-6.48983843173e-05
-0.00264852549987
-8.08293478966e-05
-0.00262278675942
-9.6565592392e-05
-0.0025907297445
-0.000112069211231
-0.00255243164901
-0.000127302855909
-0.00250798470145
-0.000142229824322
-0.00245749593934
-0.000156814154552
-0.00240108695281
-0.000171020714854
-0.00233889359122
-0.000184815283286
-0.00227106563734
-0.000198164626365
-0.0021977664465
-0.000211036581265
-0.00211917255541
-0.000223400137109
-0.00203547326199
-0.000235225513341
-0.00194687016884
-0.000246484223594
-0.00185357669208
-0.000257149136815
-0.00175581754694
-0.000267194552138
-0.00165382821614
-0.000276596282569
-0.00154785437895
-0.000285331685737
-0.00143815132544
-0.000293379693793
-0.00132498333305
-0.000300720915084
-0.0012086230258
-0.000307337689449
-0.00108935072993
-0.00031321405895
-0.000967453798131
-0.000318335860369
-0.000843225908665
-0.00032269072852
-0.000716966367499
-0.000326268272864
-0.000588979334894
-0.000329059712142
-0.000459573261628
-0.000331058471312
-0.000329059844636
-0.000332259659371
-0.00019775357712
-6.59708678248e-05
-0.000464042277039
6.54111915723e-05
-0.000462364669756
0.000196075951821
-0.000459573231868
0.000326268332085
-0.000455674601215
0.00045567455021
-0.000450678221793
0.000583982881536
-0.000444596017659
0.000710884097816
-0.000437442813622
0.000836072597265
-0.000429235764903
0.000959246621205
-0.000419994582795
0.00108010944869
-0.000409741587866
0.00119836992163
-0.000398501529228
0.00131374312884
-0.00038630144499
0.00142595109761
-0.00037317069847
0.00153472350644
-0.000359140955857
0.00163979834098
-0.000344246038384
0.00174092248672
-0.000328521815841
0.00183785233957
-0.000312006156427
0.00193035440433
-0.000294738856975
0.00201820587295
-0.000276761531472
0.00210119514882
-0.000258117491294
0.00217912234074
-0.000238851642956
0.00225179975115
-0.000219010394199
0.0023190523382
-0.000198641548034
0.00238071813285
-0.00017779418106
0.00243664862318
-0.00015651851734
0.00248670911109
-0.000134865808079
0.0025307790371
-0.000112888212019
0.00256875227061
-9.06386713601e-05
0.00260053736476
-6.81707848069e-05
0.00262605778006
-4.55386783304e-05
0.00264525206029
-2.27968733219e-05
0.00265807398344
-1.54089366493e-10
0.00266449267357
2.27965639854e-05
0.00266449267398
4.55383658016e-05
0.0026580739843
6.81704681381e-05
0.00264525206158
9.06383515929e-05
0.00262605778239
0.000112887892039
0.00260053736777
0.000134865490725
0.00256875227385
0.000156518203235
0.00253077904225
0.000177793867753
0.0024867091207
0.000198641231195
0.00243664863808
0.000219010071816
0.00238071815277
0.000238851319334
0.0023190523624
0.000258117173855
0.00225179977999
0.000276761221968
0.00217912237757
0.000294738547986
0.00210119519711
0.000312005841216
0.00201820592945
0.000328521500726
0.00193035446326
0.000344245736553
0.00183785240261
0.000359140665496
0.001740922562
0.000373170401568
0.00163979842633
0.000386301142433
0.00153472359096
0.000398501251704
0.0014259511748
0.00040974133557
0.00131374321076
0.000419994313066
0.00119837001506
0.000429235480832
0.00108010953628
0.000437442573037
0.000959246685552
0.000444595815677
0.000836072649324
0.000450677974166
0.000710884187696
0.000455674394387
0.000583982918738
0.000459573037993
0.00045567459282
0.000462364511826
0.00032626835349
0.000464042090647
0.00019607599241
0.000464601732997
6.54111974261e-05
0.000464042090784
-6.54112037102e-05
0.000462364512799
-0.000196076002782
0.000459573041631
-0.000326268371723
0.000455674403659
-0.000455674622113
0.000450677992544
-0.000583982961623
0.000444595846697
-0.00071088424607
0.000437442620573
-0.000836072724389
0.000429235549379
-0.000959246777637
0.000419994407244
-0.00108010964478
0.000409741459321
-0.00119837013859
0.00039850140816
-0.00131374334737
0.000386301334353
-0.00142595132175
0.000373170631324
-0.00153472374465
0.000359140934369
-0.00163979858241
0.000344246044226
-0.00174092271568
0.000328521845207
-0.00183785254885
0.000312006220781
-0.00193035459689
0.000294738958603
-0.00201820604529
0.000276761658464
-0.00210119529019
0.000258117629958
-0.00217912244355
0.000238851788481
-0.00225179981568
0.000219010547124
-0.00231905236571
0.000198641704906
-0.00238071812234
0.000177794331549
-0.00243664857324
0.00015651864918
-0.00248670902196
0.000134865911434
-0.00253077891109
0.000112888280208
-0.00256875211218
9.06387001569e-05
-0.0026005371784
6.81707709826e-05
-0.00262605756969
4.55386182113e-05
-0.00264525183105
2.27967629939e-05
-0.00265807374186
-9.09941362396e-12
-0.00266449242608
-2.27967801231e-05
-0.00266449242703
-4.55386328456e-05
-0.00265807374456
-6.81707825605e-05
-0.00264525183493
-9.06387091422e-05
-0.00262605757329
-0.000112888287832
-0.00260053718073
-0.000134865918793
-0.00256875211354
-0.00015651865651
-0.0025307789113
-0.000177794338703
-0.00248670901926
-0.000198641712041
-0.002436648566
-0.000219010554437
-0.00238071811041
-0.000238851796032
-0.00231905234962
-0.000258117638061
-0.00225179979531
-0.000276761667782
-0.00217912241678
-0.00029473896995
-0.00210119525324
-0.000312006234057
-0.00201820599788
-0.000328521858867
-0.00193035454403
-0.00034424605631
-0.00183785249464
-0.000359140948196
-0.00174092265505
-0.000373170651231
-0.00163979851311
-0.000386301356204
-0.00153472367397
-0.000398501428331
-0.00142595125331
-0.000409741483882
-0.0013137432775
-0.000419994441674
-0.00119837006801
-0.0004292355919
-0.0010801095797
-0.000437442665308
-0.000959246724722
-0.000444595902236
-0.000836072671738
-0.00045067806876
-0.000710884200974
-0.00045567447482
-0.000583982928834
-0.000459573130782
-0.000455674605666
-0.000462364642393
-0.000326268333025
-0.00046404218975
-0.000196076029763
-6.54111804229e-05
-0.000594706740834
6.46939896134e-05
-0.000592556824567
0.000193926035554
-0.000588979351325
0.000322690858843
-0.000583982920781
0.000450678119666
-0.000577579631068
0.000577579591823
-0.000569784919153
0.0007030893859
-0.000560617464368
0.00082690514248
-0.000550099426939
0.000948728583777
-0.000538256172385
0.00106826619414
-0.000525116199686
0.00118522994893
-0.000510711150648
0.0012993380798
-0.000495075752236
0.0014103156992
-0.000478247690585
0.00151789544479
-0.000460267496135
0.00162181814653
-0.000441178479694
0.00172183347028
-0.000421026636348
0.00181770049622
-0.000399860525287
0.00190918829327
-0.000377731138428
0.00199607648609
-0.000354691783285
0.00207815579368
-0.000330797965703
0.00215522852316
-0.000306107253965
0.00222710903942
-0.000280679132354
0.00229362421659
-0.000254574857093
0.00235461385759
-0.000227857313176
0.00240993107926
-0.000200590864726
0.00245944266264
-0.000172841198745
0.00250302937112
-0.000144675166122
0.00254058623799
-0.000116160618791
0.00257202281743
-8.73662461198e-05
0.00259726340739
-5.83614115934e-05
0.00261624722576
-2.92159867645e-05
0.00262892855861
-1.82322379142e-10
0.00263527686912
2.92156215221e-05
0.00263527687013
5.8361044957e-05
0.00262892856086
8.73658787058e-05
0.00261624722783
0.000116160252426
0.00259726340867
0.000144674801445
0.00257202281875
0.000172840833993
0.00254058624131
0.000200590497964
0.00250302937828
0.000227856944464
0.0024594426742
0.000254574487972
0.00240993109457
0.000280678764543
0.0023546138762
0.000306106887324
0.00229362423962
0.000330797597944
0.00222710906937
0.000354691413671
0.00215522856184
0.000377730770684
0.0020781558401
0.000399860163125
0.00199607653701
0.000421026277079
0.00190918834931
0.000441178118908
0.00181770056078
0.000460267137955
0.00172183354296
0.000478247343604
0.00162181822068
0.000495075416365
0.0015178955182
0.000510710812276
0.00141031577889
0.000525115860439
0.0012993381626
0.000538255853901
0.00118523002159
0.000550099133627
0.00106826625656
0.000560617164872
0.000948728654306
0.000569784605726
0.00082690520847
0.000577579368159
0.000703089425264
0.000583982671556
0.00057757961534
0.000588979088176
0.000450678176201
0.000592556580097
0.00032269086157
0.000594706527973
0.000193926044534
0.000595423751909
6.46939734898e-05
0.000594706524223
-6.46939760242e-05
0.000592556573636
-0.000193926052194
0.000588979080862
-0.000322690878948
0.000583982665967
-0.000450678207218
0.000577579367684
-0.00057757966334
0.000569784614507
-0.000703089492894
0.000560617187427
-0.000826905297309
0.000550099174459
-0.000948728764669
0.000538255917344
-0.00106826638766
0.000525115950554
-0.0011852301718
0.000510710932606
-0.00129933832942
0.000495075569707
-0.00141031595885
0.000478247531978
-0.00151789570692
0.000460267362562
-0.00162181841299
0.000441178379875
-0.00172183373299
0.000421026573617
-0.0018177007426
0.000399860492141
-0.00190918851542
0.000377731129302
-0.00199607668245
0.0003546917977
-0.00207815595859
0.000330798002057
-0.00215522864791
0.000306107305104
-0.00222710911872
0.000280679189003
-0.00229362424961
0.000254574912101
-0.00235461384544
0.000227857361244
-0.00240993102239
0.000200590900185
-0.00245944256091
0.000172841214662
-0.00250302922557
0.000144675154407
-0.00254058605192
0.00011616057216
-0.00257202259615
8.73661598655e-05
-0.0025972631574
5.83612830535e-05
-0.00261624695424
2.92158140236e-05
-0.00262892827283
-3.61451097987e-11
-0.00263527657591
-2.92158868654e-05
-0.00263527657631
-5.83613573628e-05
-0.00262892827407
-8.73662359764e-05
-0.00261624695632
-0.000116160649303
-0.00259726315996
-0.000144675231408
-0.00257202259863
-0.000172841291126
-0.00254058605382
-0.0002005909765
-0.00250302922592
-0.000227857437712
-0.00245944255805
-0.000254574988488
-0.00240993101522
-0.000280679264689
-0.00235461383421
-0.000306107379772
-0.00229362423454
-0.000330798076402
-0.00222710909868
-0.000354691872681
-0.0021552286205
-0.000377731204643
-0.00207815592128
-0.000399860567014
-0.00199607663551
-0.000421026648301
-0.00190918846274
-0.000441178457904
-0.00181770068503
-0.000460267443467
-0.00172183366949
-0.000478247614583
-0.00162181834199
-0.000495075654887
-0.00151789563367
-0.00051071102236
-0.00141031588584
-0.000525116044809
-0.00129933825505
-0.000538256014884
-0.00118523009794
-0.000550099277283
-0.00106826631731
-0.000560617301392
-0.000948728700614
-0.000569784735823
-0.000826905237306
-0.000577579496008
-0.00070308944079
-0.000583982806642
-0.000577579618199
-0.000588979252941
-0.000450678159368
-0.000592556713016
-0.000322690872951
-0.000594706747926
-0.000193925994853
-6.46939855555e-05
-0.000723938351119
6.38209288626e-05
-0.000721321236001
0.000191308920436
-0.000716966323665
0.000318335946507
-0.000710884242284
0.000444596038285
-0.00070308945876
0.000569784808299
-0.000693600885214
0.000693600812354
-0.000682441353138
0.000815745610403
-0.000669637744548
0.000935924975187
-0.00065522088938
0.00105384933897
-0.000639225544055
0.00116923460361
-0.000621690251585
0.00128180278733
-0.000602657251031
0.00139128269865
-0.000582172396615
0.00149741059037
-0.000560285045847
0.00159993079576
-0.000537047933826
0.00169859635826
-0.000512517043659
0.00179316960606
-0.000486751475216
0.00188342272483
-0.000459813303288
0.00196913831417
-0.000431767427581
0.00205010991797
-0.000402681415813
0.00212614251139
-0.000372625340127
0.00219705296373
-0.000341671608039
0.0022626704845
-0.000309894789769
0.00232283703932
-0.000277371438574
0.00237740772807
-0.000244179905791
0.00242625112986
-0.000210400150626
0.00246924961595
-0.000176113548291
0.00250629963565
-0.000141402694432
0.00253731196357
-0.000106351206508
0.00256221191946
-7.10435231206e-05
0.00258093954237
-3.5564700418e-05
0.00259344973591
-2.05741781253e-10
0.00259971237445
3.55642886495e-05
0.00259971237574
7.10431103272e-05
0.00259344973918
0.000106350792076
0.00258093954608
0.000141402278645
0.0025622119221
0.000176113132236
0.00253731196516
0.000210399735171
0.00250629963837
0.00024417949076
0.00246924962269
0.000277371022825
0.00242625114213
0.000309894372213
0.00237740774518
0.000341671189122
0.00232283705929
0.000372624921244
0.00226267050749
0.000402680998066
0.00219705299254
0.000431767010893
0.00212614254901
0.000459812887558
0.00205010996343
0.000486751061067
0.0019691383635
0.000512516632185
0.00188342277819
0.000537047525981
0.00179316966699
0.000560284641779
0.00169859642716
0.000582171995525
0.00159993086694
0.00060265685444
0.00149741065929
0.000621689864122
0.00139128276921
0.000639225167796
0.00128180285893
0.000655220516977
0.00116923467241
0.000669637373162
0.00105384940037
0.000682441000679
0.000935925026789
0.000693600550657
0.000815745658492
0.000703089135558
0.000693600840362
0.000710883893886
0.000569784857012
0.000716966045128
0.000444596024959
0.000721320935065
0.000318335971633
0.000723938071281
0.000191308908317
0.000724811148502
6.38208962686e-05
0.000723938063643
-6.38208911644e-05
0.000721320920754
-0.000191308909306
0.000716966025997
-0.000318335984192
0.000710883872545
-0.000444596053766
0.000703089115288
-0.000569784906084
0.000693600535387
-0.000693600912992
0.000682440994871
-0.000815745756794
0.00066963738148
-0.000935925151278
0.000655220543888
-0.00105384955007
0.000639225217369
-0.00116923484528
0.000621689940044
-0.0012818030521
0.000602656959907
-0.00139128297871
0.000582172132918
-0.00149741087993
0.000560284812446
-0.00159993109252
0.000537047730308
-0.00169859665085
0.000512516869314
-0.0017931698816
0.000486751330238
-0.00188342297634
0.00045981318564
-0.00196913853785
0.000431767334061
-0.00205011010701
0.000402681341715
-0.00212614265557
0.000372625280051
-0.00219705305706
0.000341671556937
-0.0022626705265
0.000309894742248
-0.00232283703075
0.000277371388222
-0.00237740766836
0.000244179845041
-0.00242625101772
0.00021040007217
-0.0024692494527
0.000176113445889
-0.00250629942564
0.000141402563342
-0.0025373117136
0.000106351043386
-0.00256221163744
7.10433250256e-05
-0.00258093923588
3.55644641162e-05
-0.00259344941192
-7.1261338053e-11
-0.00259971204053
-3.55646066571e-05
-0.00259971204092
-7.10434676976e-05
-0.00259344941303
-0.000106351186305
-0.00258093923771
-0.000141402706269
-0.00256221164
-0.000176113588362
-0.00253731171654
-0.000210400214084
-0.0025062994281
-0.000244179986717
-0.00246924945329
-0.000277371529934
-0.00242625101483
-0.000309894884026
-0.00237740766113
-0.000341671698733
-0.00232283701951
-0.0003726254219
-0.00226267051137
-0.00040268148398
-0.0021970530366
-0.000431767477257
-0.00212614262723
-0.000459813329388
-0.00205011006915
-0.000486751473589
-0.00196913849131
-0.000512517012985
-0.00188342292334
-0.000537047874887
-0.00179316982313
-0.000560284959715
-0.00169859658466
-0.000582172282222
-0.00159993101948
-0.000602657112247
-0.00149741080364
-0.000621690095857
-0.00139128290223
-0.000639225377043
-0.00128180297387
-0.000655220708145
-0.00116923476684
-0.000669637552189
-0.00105384947326
-0.000682441173828
-0.000935925078975
-0.00069360072237
-0.000815745688763
-0.000703089311324
-0.000693600851836
-0.000710884081372
-0.000569784848152
-0.000716966236319
-0.000444596004421
-0.000721321181967
-0.000318335927302
-0.000723938292707
-0.000191308884113
-6.38208663924e-05
-0.000851425666077
6.27940645441e-05
-0.000848347698491
0.00018823095285
-0.000843225917649
0.000313214165666
-0.000836072671805
0.000437442792441
-0.000826905275132
0.000560617411626
-0.000815745733175
0.000682441270397
-0.000802620971774
0.000802620849002
-0.000787562602666
0.000920866606078
-0.000770606913827
0.00103689365013
-0.000751794759725
0.00115042244951
-0.000731171458034
0.00126117948564
-0.000708786696836
0.00136889793745
-0.000684694411137
0.00147331830467
-0.000658952650834
0.00157418903546
-0.000631623430785
0.00167126713821
-0.000602772592102
0.00176431876737
-0.000572469644601
0.00185311977733
-0.000540787596983
0.00193745626655
-0.000507802776895
0.00201712509789
-0.00047359464791
0.0020919343824
-0.000438245621867
0.00216170393769
-0.000401840859391
0.00222626572202
-0.000364468063925
0.00228546424385
-0.00032621726923
0.00233915693337
-0.000287180622873
0.0023872144835
-0.000247452164638
0.00242952115772
-0.000207127600666
0.00246597507168
-0.000166304072999
0.00249648843591
-0.000125079925291
0.00252098777176
-8.35544657308e-05
0.00253941408281
-4.18277277476e-05
0.00255172299792
-2.29284122806e-10
0.00255788487598
4.18272689844e-05
0.00255788487747
8.35540064247e-05
0.00255172300174
0.000125079465239
0.00253941408727
0.000166303612158
0.00252098777518
0.000207127139032
0.00249648843829
0.000247451702267
0.00246597507514
0.000287180159981
0.00242952116498
0.000326216806016
0.0023872144961
0.000364467600209
0.00233915695099
0.000401840394729
0.00228546426477