/*--------------------------------*- C++ -*----------------------------------*\
| =========                 |                                                 |
| \\      /  F ield         | OpenFOAM: The Open Source CFD Toolbox           |
|  \\    /   O peration     | Version:  2406                                  |
|   \\  /    A nd           | Website:  www.openfoam.com                      |
|    \\/     M anipulation  |                                                 |
\*---------------------------------------------------------------------------*/
FoamFile
{
    version     2.0;
    format      ascii;
    arch        "LSB;label=32;scalar=64";
    class       surfaceScalarField;
    location    "4.1";
    object      phi;
}
// * * * * * * * * * * * * * * * * * * * * * * * * * * * * * * * * * * * * * //

dimensions      [0 3 -1 0 0 0 0];

oriented        oriented;

internalField   nonuniform List<scalar> 
7080
(
-1.18727e-08
1.1843e-08
-1.39916e-07
1.30757e-07
-3.54796e-07
2.14729e-07
-6.23327e-07
2.71441e-07
-9.18965e-07
2.96281e-07
-1.22492e-06
3.08803e-07
-1.53412e-06
3.10365e-07
-1.84132e-06
3.09812e-07
-2.14615e-06
3.06274e-07
-2.44683e-06
3.03063e-07
-2.74399e-06
2.98745e-07
-3.03644e-06
2.94644e-07
-3.32444e-06
2.89656e-07
-3.60685e-06
2.84439e-07
-3.88346e-06
2.78279e-07
-4.15312e-06
2.71544e-07
-4.41527e-06
2.63774e-07
-4.6687e-06
2.55172e-07
-4.91258e-06
2.45424e-07
-5.14563e-06
2.34635e-07
-5.36679e-06
2.22586e-07
-5.57471e-06
2.09323e-07
-5.76814e-06
1.94697e-07
-5.94566e-06
1.78733e-07
-6.10594e-06
1.61339e-07
-6.24751e-06
1.42546e-07
-6.369e-06
1.22319e-07
-6.46901e-06
1.00717e-07
-6.54622e-06
7.77682e-08
-6.59938e-06
5.35768e-08
-6.62738e-06
2.82374e-08
-6.6292e-06
1.91399e-09
-6.60406e-06
-2.52314e-08
-6.55134e-06
-5.29712e-08
-6.4707e-06
-8.10833e-08
-6.36202e-06
-1.09282e-07
-6.22552e-06
-1.37303e-07
-6.06165e-06
-1.6482e-07
-5.87125e-06
-1.91563e-07
-5.65534e-06
-2.17185e-07
-5.41539e-06
-2.41457e-07
-5.15292e-06
-2.64041e-07
-4.86994e-06
-2.84803e-07
-4.56833e-06
-3.0343e-07
-4.25049e-06
-3.19949e-07
-3.91843e-06
-3.34063e-07
-3.57476e-06
-3.46024e-07
-3.22138e-06
-3.55488e-07
-2.86097e-06
-3.62983e-07
-2.49519e-06
-3.67901e-07
-2.12696e-06
-3.70984e-07
-1.75827e-06
-3.70711e-07
-1.39359e-06
-3.67568e-07
-1.03792e-06
-3.5741e-07
-7.01516e-07
-3.39286e-07
-3.99484e-07
-3.03213e-07
-1.55041e-07
-2.46972e-07
1.39666e-10
-1.55544e-07
4.65501e-08
-4.81924e-08
4.64714e-08
-1.33666e-07
1.42812e-07
-4.91769e-07
4.88956e-07
-1.01562e-06
7.34119e-07
-1.64555e-06
8.99855e-07
-2.33927e-06
9.85243e-07
-3.06284e-06
1.0298e-06
-3.80001e-06
1.04289e-06
-4.53764e-06
1.04435e-06
-5.27218e-06
1.03644e-06
-5.99884e-06
1.02642e-06
-6.7173e-06
1.0131e-06
-7.4249e-06
9.98868e-07
-8.12127e-06
9.82161e-07
-8.80405e-06
9.63866e-07
-9.47223e-06
9.42841e-07
-1.01234e-05
9.19461e-07
-1.0756e-05
8.92939e-07
-1.13673e-05
8.63408e-07
-1.19553e-05
8.30301e-07
-1.25171e-05
7.93619e-07
-1.30502e-05
7.5294e-07
-1.35517e-05
7.08209e-07
-1.40185e-05
6.59126e-07
-1.44476e-05
6.05644e-07
-1.48359e-05
5.47585e-07
-1.51801e-05
4.84966e-07
-1.5477e-05
4.17754e-07
-1.57236e-05
3.46082e-07
-1.59169e-05
2.70088e-07
-1.60541e-05
1.90062e-07
-1.61326e-05
1.06338e-07
-1.61501e-05
1.93931e-08
-1.61048e-05
-7.02362e-08
-1.59953e-05
-1.61879e-07
-1.58207e-05
-2.54811e-07
-1.55805e-05
-3.48193e-07
-1.5275e-05
-4.41167e-07
-1.49051e-05
-5.32778e-07
-1.44723e-05
-6.22124e-07
-1.39786e-05
-7.08224e-07
-1.3427e-05
-7.90248e-07
-1.28205e-05
-8.67284e-07
-1.21632e-05
-9.38717e-07
-1.14591e-05
-1.00378e-06
-1.0713e-05
-1.06222e-06
-9.92944e-06
-1.11344e-06
-9.11373e-06
-1.15763e-06
-8.27038e-06
-1.19426e-06
-7.40515e-06
-1.22395e-06
-6.52254e-06
-1.24564e-06
-5.62937e-06
-1.25989e-06
-4.73168e-06
-1.26333e-06
-3.84064e-06
-1.25459e-06
-2.96935e-06
-1.22363e-06
-2.14159e-06
-1.1637e-06
-1.3884e-06
-1.05177e-06
-7.55692e-07
-8.77676e-07
-2.93993e-07
-6.13684e-07
-4.40963e-08
-2.97914e-07
4.1771e-09
-2.27943e-07
3.70747e-07
-7.63439e-07
1.02898e-06
-1.51648e-06
1.48699e-06
-2.40222e-06
1.79011e-06
-3.37177e-06
1.9562e-06
-4.38123e-06
2.04356e-06
-5.41058e-06
2.07447e-06
-6.44189e-06
2.07968e-06
-7.46982e-06
2.06699e-06
-8.48738e-06
2.04771e-06
-9.49341e-06
2.02193e-06
-1.04841e-05
1.99301e-06
-1.14584e-05
1.95934e-06
-1.24131e-05
1.92186e-06
-1.33466e-05
1.87916e-06
-1.42555e-05
1.83147e-06
-1.51376e-05
1.77774e-06
-1.59893e-05
1.71791e-06
-1.68075e-05
1.65116e-06
-1.75887e-05
1.57732e-06
-1.83291e-05
1.49575e-06
-1.90248e-05
1.40623e-06
-1.96719e-05
1.3083e-06
-2.02661e-05
1.2018e-06
-2.08032e-05
1.08647e-06
-2.1279e-05
9.62318e-07
-2.16892e-05
8.29326e-07
-2.20297e-05
6.87726e-07
-2.22966e-05
5.37827e-07
-2.2486e-05
3.80168e-07
-2.25947e-05
2.15416e-07
-2.26197e-05
4.44677e-08
-2.25585e-05
-1.31631e-07
-2.24092e-05
-3.11622e-07
-2.21707e-05
-4.94111e-07
-2.18424e-05
-6.77527e-07
-2.14247e-05
-8.60222e-07
-2.09187e-05
-1.04043e-06
-2.03264e-05
-1.21639e-06
-1.96505e-05
-1.38632e-06
-1.88946e-05
-1.54858e-06
-1.80631e-05
-1.70152e-06
-1.71609e-05
-1.84386e-06
-1.61935e-05
-1.9743e-06
-1.51671e-05
-2.0921e-06
-1.40875e-05
-2.19636e-06
-1.29619e-05
-2.28706e-06
-1.17963e-05
-2.36348e-06
-1.05982e-05
-2.42612e-06
-9.37402e-06
-2.47348e-06
-8.1329e-06
-2.50538e-06
-6.88331e-06
-2.5164e-06
-5.64044e-06
-2.50196e-06
-4.42153e-06
-2.44557e-06
-3.25788e-06
-2.33178e-06
-2.18736e-06
-2.12432e-06
-1.269e-06
-1.80007e-06
-5.62249e-07
-1.32077e-06
-1.33099e-07
-7.3052e-07
-1.289e-07
-2.98209e-07
6.65972e-07
-9.65841e-07
1.69849e-06
-1.88268e-06
2.39919e-06
-2.94447e-06
2.85209e-06
-4.09919e-06
3.10692e-06
-5.29785e-06
3.24122e-06
-6.51981e-06
3.29287e-06
-7.74445e-06
3.30267e-06
-8.96568e-06
3.28501e-06
-1.01749e-05
3.25495e-06
-1.13703e-05
3.21444e-06
-1.25472e-05
3.16772e-06
-1.37039e-05
3.11339e-06
-1.48367e-05
3.05243e-06
-1.59432e-05
2.98323e-06
-1.70197e-05
2.90585e-06
-1.80633e-05
2.81899e-06
-1.90698e-05
2.72237e-06
-2.00357e-05
2.61495e-06
-2.09565e-05
2.49631e-06
-2.18283e-05
2.3656e-06
-2.26462e-05
2.22243e-06
-2.34056e-05
2.06617e-06
-2.41018e-05
1.89654e-06
-2.47299e-05
1.71321e-06
-2.52849e-05
1.51616e-06
-2.5762e-05
1.30542e-06
-2.61564e-05
1.08136e-06
-2.64637e-05
8.44494e-07
-2.66796e-05
5.95649e-07
-2.68004e-05
3.35891e-07
-2.68225e-05
6.66095e-08
-2.67434e-05
-2.10558e-07
-2.65609e-05
-4.9367e-07
-2.62739e-05
-7.80558e-07
-2.58817e-05
-1.06881e-06
-2.5385e-05
-1.35586e-06
-2.47851e-05
-1.63902e-06
-2.40844e-05
-1.91557e-06
-2.32862e-05
-2.18277e-06
-2.23948e-05
-2.43808e-06
-2.14151e-05
-2.67904e-06
-2.03532e-05
-2.9036e-06
-1.92151e-05
-3.10982e-06
-1.80083e-05
-3.29649e-06
-1.67394e-05
-3.46233e-06
-1.54168e-05
-3.60704e-06
-1.40474e-05
-3.72974e-06
-1.26401e-05
-3.83069e-06
-1.12023e-05
-3.90794e-06
-9.74477e-06
-3.96029e-06
-8.27728e-06
-3.98031e-06
-6.81738e-06
-3.95955e-06
-5.3839e-06
-3.87535e-06
-4.01169e-06
-3.70236e-06
-2.74031e-06
-3.39198e-06
-1.63496e-06
-2.90504e-06
-7.59299e-07
-2.19265e-06
-1.99347e-07
-1.29177e-06
-3.25864e-07
-3.37926e-07
1.00299e-06
-1.09244e-06
2.45808e-06
-2.121e-06
3.42589e-06
-3.30343e-06
4.03863e-06
-4.58351e-06
4.38679e-06
-5.90819e-06
4.56931e-06
-7.25684e-06
4.64226e-06
-8.60742e-06
4.65618e-06
-9.95396e-06
4.6328e-06
-1.12869e-05
4.59054e-06
-1.26045e-05
4.53352e-06
-1.39012e-05
4.46671e-06
-1.51752e-05
4.38907e-06
-1.64221e-05
4.30153e-06
-1.76396e-05
4.20238e-06
-1.88232e-05
4.09147e-06
-1.99699e-05
3.96727e-06
-2.1075e-05
3.82927e-06
-2.21346e-05
3.67616e-06
-2.31439e-05
3.5073e-06
-2.40985e-05
3.32164e-06
-2.49932e-05
3.11856e-06
-2.5823e-05
2.89727e-06
-2.65826e-05
2.65737e-06
-2.72668e-05
2.39844e-06
-2.78701e-05
2.12046e-06
-2.83874e-05
1.82352e-06
-2.88134e-05
1.5081e-06
-2.91433e-05
1.17497e-06
-2.93725e-05
8.25281e-07
-2.9497e-05
4.60541e-07
-2.9513e-05
8.26809e-08
-2.94177e-05
-3.06001e-07
-2.92088e-05
-7.02804e-07
-2.88852e-05
-1.1047e-06
-2.84463e-05
-1.50833e-06
-2.78928e-05
-1.91014e-06
-2.72265e-05
-2.30636e-06
-2.645e-05
-2.69323e-06
-2.55672e-05
-3.06697e-06
-2.45828e-05
-3.42401e-06
-2.35024e-05
-3.76099e-06
-2.23329e-05
-4.07501e-06
-2.10811e-05
-4.3635e-06
-1.97551e-05
-4.62463e-06
-1.83626e-05
-4.8568e-06
-1.69127e-05
-5.0594e-06
-1.54131e-05
-5.23144e-06
-1.38736e-05
-5.37287e-06
-1.23021e-05
-5.48145e-06
-1.07105e-05
-5.55477e-06
-9.10896e-06
-5.58364e-06
-7.51622e-06
-5.55537e-06
-5.95142e-06
-5.44147e-06
-4.45125e-06
-5.2058e-06
-3.0561e-06
-4.78753e-06
-1.836e-06
-4.12868e-06
-8.59692e-07
-3.16784e-06
-2.2753e-07
-1.928e-06
-5.52762e-07
-3.63746e-07
1.36367e-06
-1.17539e-06
3.2729e-06
-2.27745e-06
4.52325e-06
-3.53935e-06
5.30199e-06
-4.90113e-06
5.74505e-06
-6.30714e-06
5.97551e-06
-7.73689e-06
6.06917e-06
-9.1677e-06
6.08645e-06
-1.05939e-05
6.05665e-06
-1.20056e-05
6.00131e-06
-1.3401e-05
5.92681e-06
-1.47741e-05
5.83866e-06
-1.61231e-05
5.73628e-06
-1.74433e-05
5.62048e-06
-1.87321e-05
5.48951e-06
-1.99848e-05
5.34296e-06
-2.11982e-05
5.1791e-06
-2.23673e-05
4.99715e-06
-2.3488e-05
4.79558e-06
-2.45553e-05
4.57349e-06
-2.55645e-05
4.32958e-06
-2.651e-05
4.06304e-06
-2.73866e-05
3.77289e-06
-2.81887e-05
3.45858e-06
-2.89107e-05
3.11961e-06
-2.95469e-05
2.75593e-06
-3.00917e-05
2.36767e-06
-3.05395e-05
1.95548e-06
-3.08853e-05
1.52032e-06
-3.1124e-05
1.06371e-06
-3.12512e-05
5.87619e-07
-3.12631e-05
9.45499e-08
-3.11564e-05
-4.12492e-07
-3.0929e-05
-9.29992e-07
-3.05793e-05
-1.45398e-06
-3.0107e-05
-1.98009e-06
-2.95128e-05
-2.50365e-06
-2.87986e-05
-3.01976e-06
-2.79675e-05
-3.52345e-06
-2.70235e-05
-4.00983e-06
-2.59722e-05
-4.47418e-06
-2.48197e-05
-4.91215e-06
-2.35734e-05
-5.31993e-06
-2.22411e-05
-5.69422e-06
-2.08317e-05
-6.03258e-06
-1.93536e-05
-6.33307e-06
-1.78167e-05
-6.59474e-06
-1.62295e-05
-6.81659e-06
-1.46025e-05
-6.99824e-06
-1.29444e-05
-7.13732e-06
-1.12676e-05
-7.23023e-06
-9.5825e-06
-7.26621e-06
-7.90852e-06
-7.22829e-06
-6.26486e-06
-7.08239e-06
-4.68909e-06
-6.78118e-06
-3.22222e-06
-6.25132e-06
-1.93719e-06
-5.41444e-06
-9.06867e-07
-4.19442e-06
-2.38765e-07
-2.59834e-06
-7.89035e-07
-3.7691e-07
1.73906e-06
-1.22311e-06
4.12434e-06
-2.37199e-06
5.66928e-06
-3.68613e-06
6.62004e-06
-5.10212e-06
7.15987e-06
-6.56209e-06
7.43841e-06
-8.04534e-06
7.55225e-06
-9.5288e-06
7.57223e-06
-1.10072e-05
7.53545e-06
-1.24704e-05
7.46649e-06
-1.39169e-05
7.374e-06
-1.53406e-05
7.26395e-06
-1.67396e-05
7.13622e-06
-1.81091e-05
6.99144e-06
-1.94464e-05
6.82783e-06
-2.07468e-05
6.64467e-06
-2.20068e-05
6.44007e-06
-2.32214e-05
6.21295e-06
-2.43864e-05
5.96152e-06
-2.54965e-05
5.68461e-06
-2.65467e-05
5.38067e-06
-2.75313e-05
5.04864e-06
-2.8445e-05
4.68733e-06
-2.92816e-05
4.29603e-06
-3.00355e-05
3.87411e-06
-3.07004e-05
3.42145e-06
-3.12704e-05
2.93824e-06
-3.17397e-05
2.4252e-06
-3.21026e-05
1.88354e-06
-3.23538e-05
1.31511e-06
-3.24884e-05
7.22346e-07
-3.25021e-05
1.08347e-07
-3.23916e-05
-5.23137e-07
-3.2154e-05
-1.16772e-06
-3.17879e-05
-1.82042e-06
-3.12926e-05
-2.47577e-06
-3.0669e-05
-3.12784e-06
-2.99189e-05
-3.7705e-06
-2.90456e-05
-4.39745e-06
-2.80538e-05
-5.00249e-06
-2.69493e-05
-5.57965e-06
-2.5739e-05
-6.12348e-06
-2.4431e-05
-6.62908e-06
-2.30339e-05
-7.0924e-06
-2.15576e-05
-7.51028e-06
-2.00114e-05
-7.88048e-06
-1.8406e-05
-8.20167e-06
-1.67509e-05
-8.47294e-06
-1.50572e-05
-8.69363e-06
-1.33342e-05
-8.86141e-06
-1.15949e-05
-8.97152e-06
-9.85006e-06
-9.01186e-06
-8.11949e-06
-8.96108e-06
-6.42266e-06
-8.77956e-06
-4.79804e-06
-8.40837e-06
-3.28789e-06
-7.76097e-06
-1.96766e-06
-6.7378e-06
-9.13632e-07
-5.24661e-06
-2.35726e-07
-3.28028e-06
-1.02373e-06
-3.86016e-07
2.1221e-06
-1.25471e-06
4.99691e-06
-2.43416e-06
6.8441e-06
-3.78301e-06
7.97109e-06
-5.23526e-06
8.60889e-06
-6.73159e-06
8.93568e-06
-8.25106e-06
9.06932e-06
-9.77038e-06
9.09171e-06
-1.12846e-05
9.04779e-06
-1.27836e-05
8.96522e-06
-1.4266e-05
8.85489e-06
-1.57257e-05
8.72314e-06
-1.71611e-05
8.57031e-06
-1.85671e-05
8.3968e-06
-1.99412e-05
8.20077e-06
-2.12785e-05
7.98122e-06
-2.25754e-05
7.73605e-06
-2.3827e-05
7.46383e-06
-2.50289e-05
7.16255e-06
-2.61757e-05
6.83069e-06
-2.72622e-05
6.46644e-06
-2.82826e-05
6.06843e-06
-2.92312e-05
5.63525e-06
-3.01016e-05
5.16594e-06
-3.08878e-05
4.65973e-06
-3.15831e-05
4.11638e-06
-3.21814e-05
3.53605e-06
-3.2676e-05
2.91954e-06
-3.3061e-05
2.26824e-06
-3.33303e-05
1.58431e-06
-3.34787e-05
8.70641e-07
-3.35013e-05
1.30932e-07
-3.33941e-05
-6.3029e-07
-3.31539e-05
-1.40772e-06
-3.27788e-05
-2.19529e-06
-3.2268e-05
-2.98629e-06
-3.16219e-05
-3.77347e-06
-3.08427e-05
-4.54926e-06
-2.99337e-05
-5.30586e-06
-2.88999e-05
-6.03562e-06
-2.77477e-05
-6.73111e-06
-2.64848e-05
-7.38559e-06
-2.51201e-05
-7.99295e-06
-2.36632e-05
-8.54827e-06
-2.2125e-05
-9.04759e-06
-2.05159e-05
-9.48832e-06
-1.88479e-05
-9.86879e-06
-1.71312e-05
-1.01883e-05
-1.53781e-05
-1.04459e-05
-1.35985e-05
-1.06395e-05
-1.1806e-05
-1.07633e-05
-1.00121e-05
-1.0804e-05
-8.23675e-06
-1.0736e-05
-6.50015e-06
-1.0514e-05
-4.84149e-06
-1.00673e-05
-3.30439e-06
-9.29546e-06
-1.96595e-06
-8.07752e-06
-9.04533e-07
-6.30457e-06
-2.29039e-07
-3.95835e-06
-1.25045e-06
-3.91153e-07
2.51137e-06
-1.27463e-06
5.88562e-06
-2.47515e-06
8.04123e-06
-3.84876e-06
9.34844e-06
-5.32758e-06
1.0086e-05
-6.85111e-06
1.04618e-05
-8.39803e-06
1.06155e-05
-9.94487e-06
1.06405e-05
-1.14869e-05
1.05897e-05
-1.30141e-05
1.04939e-05
-1.45253e-05
1.03663e-05
-1.60145e-05
1.02136e-05
-1.74802e-05
1.00364e-05
-1.89174e-05
9.83504e-06
-2.03236e-05
9.60752e-06
-2.1694e-05
9.3525e-06
-2.3025e-05
9.06766e-06
-2.43116e-05
8.75123e-06
-2.55494e-05
8.40089e-06
-2.67327e-05
8.01476e-06
-2.78565e-05
7.59073e-06
-2.89145e-05
7.12706e-06
-2.99008e-05
6.62206e-06
-3.08089e-05
6.07446e-06
-3.1632e-05
5.48326e-06
-3.23632e-05
4.84804e-06
-3.29958e-05
4.16886e-06
-3.35225e-05
3.44654e-06
-3.39366e-05
2.6826e-06
-3.42316e-05
1.87943e-06
-3.44013e-05
1.04038e-06
-3.44401e-05
1.69734e-07
-3.43433e-05
-7.27182e-07
-3.4107e-05
-1.64409e-06
-3.37288e-05
-2.57373e-06
-3.32073e-05
-3.50807e-06
-3.25428e-05
-4.43832e-06
-3.17371e-05
-5.35529e-06
-3.0794e-05
-6.24945e-06
-2.97187e-05
-7.11149e-06
-2.85182e-05
-7.93223e-06
-2.72009e-05
-8.70345e-06
-2.5777e-05
-9.4176e-06
-2.42572e-05
-1.00687e-05
-2.26537e-05
-1.0652e-05
-2.09784e-05
-1.11643e-05
-1.92444e-05
-1.16038e-05
-1.74633e-05
-1.197e-05
-1.56485e-05
-1.22618e-05
-1.38109e-05
-1.24776e-05
-1.1965e-05
-1.26106e-05
-1.01226e-05
-1.26466e-05
-8.3048e-06
-1.25556e-05
-6.53222e-06
-1.22864e-05
-4.84512e-06
-1.17565e-05
-3.28864e-06
-1.0851e-05
-1.9412e-06
-9.42769e-06
-8.82307e-07
-7.36136e-06
-2.17903e-07
-4.62644e-06
-1.46715e-06
-3.96085e-07
2.90458e-06
-1.29142e-06
6.78523e-06
-2.50854e-06
9.2538e-06
-3.90181e-06
1.07443e-05
-5.40202e-06
1.15831e-05
-6.94785e-06
1.20091e-05
-8.51771e-06
1.21832e-05
-1.0088e-05
1.22114e-05
-1.16542e-05
1.21543e-05
-1.32064e-05
1.20462e-05
-1.47436e-05
1.19024e-05
-1.626e-05
1.17298e-05
-1.77542e-05
1.15297e-05
-1.92214e-05
1.13019e-05
-2.06591e-05
1.10444e-05
-2.20626e-05
1.07556e-05
-2.34283e-05
1.04328e-05
-2.47513e-05
1.00738e-05
-2.6027e-05
9.67604e-06
-2.72499e-05
9.23721e-06
-2.84145e-05
8.75481e-06
-2.95145e-05
8.22669e-06
-3.05436e-05
7.65078e-06
-3.14949e-05
7.02543e-06
-3.23613e-05
6.34934e-06
-3.31354e-05
5.6218e-06
-3.38095e-05
4.8427e-06
-3.43759e-05
4.01274e-06
-3.48269e-05
3.1335e-06
-3.51552e-05
2.20758e-06
-3.53536e-05
1.23868e-06
-3.54155e-05
2.31682e-07
-3.53354e-05
-8.07292e-07
-3.51085e-05
-1.87093e-06
-3.47314e-05
-2.95069e-06
-3.42022e-05
-4.03706e-06
-3.35208e-05
-5.11949e-06
-3.26888e-05
-6.18697e-06
-3.171e-05
-7.22795e-06
-3.05899e-05
-8.23112e-06
-2.93364e-05
-9.18528e-06
-2.79589e-05
-1.00804e-05
-2.64688e-05
-1.09072e-05
-2.48782e-05
-1.16586e-05
-2.32012e-05
-1.23285e-05
-2.14511e-05
-1.29136e-05
-1.9643e-05
-1.34114e-05
-1.779e-05
-1.3822e-05
-1.5907e-05
-1.41444e-05
-1.40059e-05
-1.43775e-05
-1.21023e-05
-1.45139e-05
-1.02092e-05
-1.45385e-05
-8.3479e-06
-1.44169e-05
-6.54032e-06
-1.40923e-05
-4.82748e-06
-1.34699e-05
-3.25599e-06
-1.24203e-05
-1.90507e-06
-1.07801e-05
-8.54481e-07
-8.40888e-06
-2.05712e-07
-5.27781e-06
-1.67083e-06
-4.00099e-07
3.30258e-06
-1.30578e-06
7.69611e-06
-2.53762e-06
1.04819e-05
-3.94851e-06
1.21589e-05
-5.46825e-06
1.31008e-05
-7.03482e-06
1.35781e-05
-8.62638e-06
1.37737e-05
-1.02192e-05
1.3806e-05
-1.1809e-05
1.37436e-05
-1.33859e-05
1.36244e-05
-1.49492e-05
1.34656e-05
-1.64932e-05
1.32748e-05
-1.80167e-05
1.30534e-05
-1.95151e-05
1.28011e-05
-2.0986e-05
1.25157e-05
-2.24248e-05
1.2195e-05
-2.38282e-05
1.18364e-05
-2.51909e-05
1.14371e-05
-2.65086e-05
1.09941e-05
-2.77756e-05
1.05047e-05
-2.89863e-05
9.96584e-06
-3.01342e-05
9.375e-06
-3.12128e-05
8.72958e-06
-3.22145e-05
8.02748e-06
-3.31319e-05
7.26695e-06
-3.39567e-05
6.44691e-06
-3.46808e-05
5.56692e-06
-3.52954e-05
4.6275e-06
-3.57919e-05
3.63014e-06
-3.61618e-05
2.57754e-06
-3.63968e-05
1.47371e-06
-3.64892e-05
3.24065e-07
-3.6432e-05
-8.64462e-07
-3.62196e-05
-2.08349e-06
-3.58474e-05
-3.32306e-06
-3.53126e-05
-4.572e-06
-3.46145e-05
-5.81781e-06
-3.37543e-05
-7.04734e-06
-3.2736e-05
-8.24662e-06
-3.15654e-05
-9.40201e-06
-3.02512e-05
-1.04998e-05
-2.88041e-05
-1.15279e-05
-2.7237e-05
-1.24748e-05
-2.55639e-05
-1.3332e-05
-2.38009e-05
-1.4092e-05
-2.19637e-05
-1.47511e-05
-2.00693e-05
-1.53065e-05
-1.8133e-05
-1.57587e-05
-1.61712e-05
-1.61069e-05
-1.41978e-05
-1.63512e-05
-1.22293e-05
-1.64834e-05
-1.02798e-05
-1.64879e-05
-8.37155e-06
-1.63263e-05
-6.52747e-06
-1.5936e-05
-4.78948e-06
-1.52096e-05
-3.20559e-06
-1.40031e-05
-1.85549e-06
-1.21325e-05
-8.18517e-07
-9.44378e-06
-1.90518e-07
-5.90907e-06
-1.86013e-06
-4.04786e-07
3.70456e-06
-1.3209e-06
8.61676e-06
-2.56723e-06
1.17237e-05
-3.99534e-06
1.35899e-05
-5.53422e-06
1.46367e-05
-7.12128e-06
1.51668e-05
-8.73453e-06
1.5385e-05
-1.03502e-05
1.54225e-05
-1.19641e-05
1.53561e-05
-1.35665e-05
1.52272e-05
-1.5157e-05
1.50551e-05
-1.67301e-05
1.48479e-05
-1.82848e-05
1.46074e-05
-1.98167e-05
1.43328e-05
-2.13236e-05
1.40219e-05
-2.28009e-05
1.36722e-05
-2.42454e-05
1.32804e-05
-2.56521e-05
1.28436e-05
-2.70166e-05
1.23582e-05
-2.83331e-05
1.18209e-05
-2.95959e-05
1.12283e-05
-3.07983e-05
1.05771e-05
-3.19333e-05
9.8643e-06
-3.29931e-05
9.08711e-06
-3.39696e-05
8.24323e-06
-3.48539e-05
7.33104e-06
-3.56369e-05
6.34966e-06
-3.63088e-05
5.29924e-06
-3.68598e-05
4.18108e-06
-3.72802e-05
2.99782e-06
-3.75602e-05
1.75368e-06
-3.76907e-05
4.54518e-07
-3.76633e-05
-8.91921e-07
-3.74705e-05
-2.27615e-06
-3.71068e-05
-3.68669e-06
-3.65682e-05
-5.11053e-06
-3.5853e-05
-6.5329e-06
-3.4962e-05
-7.93814e-06
-3.38989e-05
-9.30948e-06
-3.26702e-05
-1.06304e-05
-3.12856e-05
-1.18842e-05
-2.97569e-05
-1.30561e-05
-2.80993e-05
-1.41321e-05
-2.63292e-05
-1.51017e-05
-2.4465e-05
-1.59559e-05
-2.25253e-05
-1.66903e-05
-2.05298e-05
-1.73017e-05
-1.84963e-05
-1.77915e-05
-1.64437e-05
-1.81593e-05
-1.43875e-05
-1.84066e-05
-1.23458e-05
-1.8525e-05
-1.03341e-05
-1.84987e-05
-8.37536e-06
-1.82852e-05
-6.49361e-06
-1.78165e-05
-4.73147e-06
-1.69724e-05
-3.13818e-06
-1.55946e-05
-1.7935e-06
-1.34786e-05
-7.75586e-07
-1.04591e-05
-1.73273e-07
-6.51381e-06
-2.03168e-06
-4.09296e-07
4.11161e-06
-1.33604e-06
9.54874e-06
-2.59722e-06
1.2981e-05
-4.04297e-06
1.50393e-05
-5.60157e-06
1.61931e-05
-7.20987e-06
1.67775e-05
-8.84573e-06
1.70196e-05
-1.04853e-05
1.70638e-05
-1.21247e-05
1.69948e-05
-1.37542e-05
1.68579e-05
-1.53738e-05
1.66745e-05
-1.69781e-05
1.64531e-05
-1.85666e-05
1.61958e-05
-2.01347e-05
1.59016e-05
-2.16807e-05
1.5568e-05
-2.32002e-05
1.51922e-05
-2.46901e-05
1.47705e-05
-2.61454e-05
1.42994e-05
-2.75619e-05
1.37749e-05
-2.89337e-05
1.3193e-05
-3.02551e-05
1.25498e-05
-3.15191e-05
1.18414e-05
-3.27184e-05
1.10638e-05
-3.38448e-05
1.02137e-05
-3.48895e-05
9.28803e-06
-3.58427e-05
8.28446e-06
-3.66945e-05
7.2015e-06
-3.74338e-05
6.03871e-06
-3.80497e-05
4.79701e-06
-3.85307e-05
3.47881e-06
-3.88654e-05
2.0884e-06
-3.90428e-05
6.3197e-07
-3.90528e-05
-8.81996e-07
-3.88861e-05
-2.44287e-06
-3.85353e-05
-4.03757e-06
-3.7995e-05
-5.65099e-06
-3.72622e-05
-7.26579e-06
-3.63371e-05
-8.86337e-06
-3.52232e-05
-1.04236e-05
-3.39274e-05
-1.19264e-05
-3.24603e-05
-1.33515e-05
-3.08359e-05
-1.46808e-05
-2.90713e-05
-1.58969e-05
-2.71862e-05
-1.69871e-05
-2.52021e-05
-1.79402e-05
-2.31413e-05
-1.87514e-05
-2.10266e-05
-1.94167e-05
-1.88794e-05
-1.99389e-05
-1.67212e-05
-2.03181e-05
-1.45699e-05
-2.05579e-05
-1.24455e-05
-2.065e-05
-1.03648e-05
-2.05794e-05
-8.35166e-06
-2.02993e-05
-6.43111e-06
-1.97366e-05
-4.64634e-06
-1.87585e-05
-3.04755e-06
-1.71925e-05
-1.71412e-06
-1.48139e-05
-7.22279e-07
-1.14492e-05
-1.52273e-07
-7.08655e-06
-2.18284e-06
-4.14399e-07
4.52319e-06
-1.35232e-06
1.04914e-05
-2.62898e-06
1.42531e-05
-4.09305e-06
1.65064e-05
-5.67213e-06
1.77692e-05
-7.30251e-06
1.84097e-05
-8.96198e-06
1.86771e-05
-1.06267e-05
1.87295e-05
-1.22928e-05
1.86596e-05
-1.39511e-05
1.85167e-05
-1.56016e-05
1.83241e-05
-1.72393e-05
1.8091e-05
-1.88638e-05
1.78196e-05
-2.0471e-05
1.75088e-05
-2.20594e-05
1.71559e-05
-2.36247e-05
1.67575e-05
-2.51642e-05
1.63096e-05
-2.66729e-05
1.5808e-05
-2.81468e-05
1.52484e-05
-2.95799e-05
1.4626e-05
-3.09665e-05
1.39362e-05
-3.22995e-05
1.31742e-05
-3.35713e-05
1.23354e-05
-3.47731e-05
1.14154e-05
-3.58956e-05
1.04103e-05
-3.69281e-05
9.31687e-06
-3.78596e-05
8.13277e-06
-3.86777e-05
6.85675e-06
-3.93699e-05
5.48908e-06
-3.99229e-05
4.03175e-06
-4.03235e-05
2.48887e-06
-4.05583e-05
8.668e-07
-4.0615e-05
-8.2534e-07
-4.0482e-05
-2.57582e-06
-4.01497e-05
-4.36981e-06
-3.96107e-05
-6.18995e-06
-3.88605e-05
-8.01592e-06
-3.7898e-05
-9.82567e-06
-3.67265e-05
-1.1595e-05
-3.53531e-05
-1.32996e-05
-3.37898e-05
-1.49147e-05
-3.20526e-05
-1.64178e-05
-3.01617e-05
-1.77876e-05
-2.81403e-05
-1.90083e-05
-2.60142e-05
-2.00661e-05
-2.38101e-05
-2.09552e-05
-2.15553e-05
-2.16714e-05
-1.92751e-05
-2.22187e-05
-1.69946e-05
-2.25985e-05
-1.47348e-05
-2.28173e-05
-1.25175e-05
-2.28673e-05
-1.03613e-05
-2.2735e-05
-8.29073e-06
-2.237e-05
-6.33169e-06
-2.16947e-05
-4.52752e-06
-2.05632e-05
-2.92907e-06
-1.87896e-05
-1.61462e-06
-1.61295e-05
-6.57583e-07
-1.24042e-05
-1.27624e-07
-7.61852e-06
-2.30909e-06
-4.19335e-07
4.9402e-06
-1.36874e-06
1.14461e-05
-2.66146e-06
1.55418e-05
-4.14459e-06
1.79932e-05
-5.74504e-06
1.93673e-05
-7.39851e-06
2.00656e-05
-9.08273e-06
2.036e-05
-1.07738e-05
2.04223e-05
-1.24682e-05
2.03533e-05
-1.41568e-05
2.02064e-05
-1.58401e-05
2.0007e-05
-1.75133e-05
1.97649e-05
-1.91763e-05
1.94825e-05
-2.08253e-05
1.91585e-05
-2.24592e-05
1.87898e-05
-2.40739e-05
1.83727e-05
-2.5667e-05
1.79027e-05
-2.72339e-05
1.73752e-05
-2.87705e-05
1.67851e-05
-3.02711e-05
1.61269e-05
-3.17299e-05
1.53951e-05
-3.31397e-05
1.45842e-05
-3.44926e-05
1.36884e-05
-3.57795e-05
1.27024e-05
-3.69902e-05
1.16211e-05
-3.81134e-05
1.04402e-05
-3.91367e-05
9.15611e-06
-4.00465e-05
7.76658e-06
-4.08283e-05
6.27091e-06
-4.14668e-05
4.67034e-06
-4.19465e-05
2.96851e-06
-4.22514e-05
1.17173e-06
-4.23663e-05
-7.10444e-07
-4.22769e-05
-2.66526e-06
-4.19707e-05
-4.67611e-06
-4.14375e-05
-6.72313e-06
-4.06709e-05
-8.78262e-06
-3.96682e-05
-1.08285e-05
-3.84317e-05
-1.28315e-05
-3.6969e-05
-1.47624e-05
-3.52933e-05
-1.65905e-05
-3.34232e-05
-1.8288e-05
-3.13827e-05
-1.98283e-05
-2.91995e-05
-2.11917e-05
-2.69047e-05
-2.2361e-05
-2.45306e-05
-2.33295e-05
-2.21102e-05
-2.4092e-05
-1.96742e-05
-2.46549e-05
-1.72519e-05
-2.50211e-05
-1.48681e-05
-2.52012e-05
-1.25469e-05
-2.51889e-05
-1.03086e-05
-2.49733e-05
-8.17839e-06
-2.45008e-05
-6.1826e-06
-2.36902e-05
-4.36423e-06
-2.23824e-05
-2.77427e-06
-2.03789e-05
-1.48904e-06
-1.74161e-05
-5.78004e-07
-1.33139e-05
-9.79251e-08
-8.1006e-06
-2.40614e-06
-4.24616e-07
5.36194e-06
-1.38579e-06
1.24121e-05
-2.69496e-06
1.68463e-05
-4.19768e-06
1.94991e-05
-5.82013e-06
2.09868e-05
-7.49742e-06
2.17447e-05
-9.2072e-06
2.20678e-05
-1.09256e-05
2.21417e-05
-1.26494e-05
2.20757e-05
-1.43696e-05
2.19272e-05
-1.60872e-05
2.17237e-05
-1.77975e-05
2.14755e-05
-1.95011e-05
2.11854e-05
-2.11944e-05
2.08518e-05
-2.28766e-05
2.04715e-05
-2.45441e-05
2.00402e-05
-2.61948e-05
1.9553e-05
-2.78243e-05
1.90047e-05
-2.94289e-05
1.83894e-05
-3.10031e-05
1.77009e-05
-3.25411e-05
1.69329e-05
-3.40357e-05
1.60786e-05
-3.54789e-05
1.51313e-05
-3.6861e-05
1.40844e-05
-3.81713e-05
1.29313e-05
-3.93977e-05
1.16664e-05
-4.05264e-05
1.02847e-05
-4.15423e-05
8.78235e-06
-4.24289e-05
7.15747e-06
-4.31687e-05
5.41007e-06
-4.37432e-05
3.54297e-06
-4.41336e-05
1.56204e-06
-4.4321e-05
-5.23015e-07
-4.42877e-05
-2.69858e-06
-4.40175e-05
-4.9463e-06
-4.34969e-05
-7.24363e-06
-4.27164e-05
-9.56305e-06
-4.16712e-05
-1.18737e-05
-4.03622e-05
-1.41404e-05
-3.8797e-05
-1.63275e-05
-3.69903e-05
-1.8397e-05
-3.49638e-05
-2.03144e-05
-3.27457e-05
-2.20462e-05
-3.03698e-05
-2.35675e-05
-2.78739e-05
-2.48567e-05
-2.52978e-05
-2.59055e-05
-2.26815e-05
-2.67081e-05
-2.00626e-05
-2.72736e-05
-1.7476e-05
-2.76076e-05
-1.4951e-05
-2.7726e-05
-1.25144e-05
-2.76253e-05
-1.01882e-05
-2.72991e-05
-7.99783e-06
-2.66913e-05
-5.96956e-06
-2.5718e-05
-4.14519e-06
-2.42071e-05
-2.57508e-06
-2.19482e-05
-1.3324e-06
-1.86594e-05
-4.81318e-07
-1.41638e-05
-6.28272e-08
-8.52037e-06
-2.46803e-06
-4.29529e-07
5.78911e-06
-1.40244e-06
1.33905e-05
-2.72831e-06
1.8168e-05
-4.25102e-06
2.10256e-05
-5.89601e-06
2.26294e-05
-7.59777e-06
2.3449e-05
-9.33387e-06
2.38025e-05
-1.10805e-05
2.389e-05
-1.28345e-05
2.38291e-05
-1.45875e-05
2.36813e-05
-1.63406e-05
2.34764e-05
-1.80896e-05
2.32254e-05
-1.98355e-05
2.29312e-05
-2.15752e-05
2.25921e-05
-2.33083e-05
2.22046e-05
-2.50316e-05
2.1764e-05
-2.67435e-05
2.12649e-05
-2.844e-05
2.07015e-05
-3.01177e-05
2.00672e-05
-3.17714e-05
1.93549e-05
-3.33957e-05
1.85573e-05
-3.49833e-05
1.76664e-05
-3.65261e-05
1.66742e-05
-3.80143e-05
1.55726e-05
-3.94365e-05
1.43537e-05
-4.07797e-05
1.30097e-05
-4.20289e-05
1.15339e-05
-4.31674e-05
9.92088e-06
-4.41765e-05
8.16665e-06
-4.50361e-05
6.26965e-06
-4.57244e-05
4.23132e-06
-4.62189e-05
2.05659e-06
-4.64968e-05
-2.45111e-07
-4.65357e-05
-2.65964e-06
-4.6315e-05
-5.16703e-06
-4.58167e-05
-7.74194e-06
-4.50272e-05
-1.03526e-05
-4.39384e-05
-1.29625e-05
-4.25493e-05
-1.55296e-05
-4.0867e-05
-1.80098e-05
-3.89076e-05
-2.03564e-05
-3.66964e-05
-2.25258e-05
-3.4267e-05
-2.44756e-05
-3.16607e-05
-2.6174e-05
-2.89241e-05
-2.75934e-05
-2.61064e-05
-2.87234e-05
-2.32572e-05
-2.95573e-05
-2.04228e-05
-3.01083e-05
-1.76453e-05
-3.03852e-05
-1.49594e-05
-3.0412e-05
-1.23953e-05
-3.01896e-05
-9.97631e-06
-2.97182e-05
-7.7274e-06
-2.89404e-05
-5.67403e-06
-2.77714e-05
-3.8555e-06
-2.60259e-05
-2.32049e-06
-2.34831e-05
-1.13752e-06
-1.9843e-05
-3.63727e-07
-1.49371e-05
-2.10487e-08
-8.86407e-06
-2.48865e-06
-4.34567e-07
6.2207e-06
-1.41908e-06
1.43799e-05
-2.76152e-06
1.95057e-05
-4.30425e-06
2.25715e-05
-5.97192e-06
2.42939e-05
-7.69834e-06
2.51772e-05
-9.46104e-06
2.55632e-05
-1.12362e-05
2.56662e-05
-1.3021e-05
2.56126e-05
-1.48073e-05
2.54682e-05
-1.65967e-05
2.52648e-05
-1.83855e-05
2.50144e-05
-2.01751e-05
2.47201e-05
-2.19627e-05
2.43798e-05
-2.37488e-05
2.39901e-05
-2.55305e-05
2.35457e-05
-2.73068e-05
2.30408e-05
-2.90742e-05
2.24688e-05
-3.08298e-05
2.18225e-05
-3.2569e-05
2.10939e-05
-3.42865e-05
2.02745e-05
-3.59753e-05
1.93551e-05
-3.76276e-05
1.83263e-05
-3.92332e-05
1.71781e-05
-4.07804e-05
1.59007e-05
-4.22553e-05
1.44845e-05
-4.36419e-05
1.29204e-05
-4.49215e-05
1.12004e-05
-4.60734e-05
9.31843e-06
-4.70743e-05
7.27047e-06
-4.78989e-05
5.05592e-06
-4.85205e-05
2.6781e-06
-4.89111e-05
1.45485e-07
-4.9043e-05
-2.52777e-06
-4.88896e-05
-5.32041e-06
-4.84272e-05
-8.20431e-06
-4.76367e-05
-1.11431e-05
-4.65054e-05
-1.40938e-05
-4.50291e-05
-1.70058e-05
-4.32137e-05
-1.98252e-05
-4.10765e-05
-2.24935e-05
-3.86467e-05
-2.49556e-05
-3.59649e-05
-2.71572e-05
-3.30818e-05
-2.90571e-05
-3.00554e-05
-3.06197e-05
-2.69474e-05
-3.18315e-05
-2.38198e-05
-3.26847e-05
-2.07305e-05
-3.31976e-05
-1.77306e-05
-3.33847e-05
-1.4862e-05
-3.32808e-05
-1.21579e-05
-3.28934e-05
-9.64319e-06
-3.2233e-05
-7.34091e-06
-3.12424e-05
-5.27432e-06
-2.98381e-05
-3.47849e-06
-2.78215e-05
-1.99885e-06
-2.49627e-05
-8.97322e-07
-2.09444e-05
-2.22009e-07
-1.56122e-05
2.80808e-08
-9.11433e-06
-2.46022e-06
-4.3894e-07
6.6573e-06
-1.4346e-06
1.53813e-05
-2.7934e-06
2.08603e-05
-4.35605e-06
2.41381e-05
-6.04643e-06
2.5982e-05
-7.79763e-06
2.69311e-05
-9.58708e-06
2.73513e-05
-1.13909e-05
2.74718e-05
-1.32068e-05
2.74278e-05
-1.50268e-05
2.72894e-05
-1.6853e-05
2.70907e-05
-1.86821e-05
2.68444e-05
-2.05161e-05
2.6554e-05
-2.2353e-05
2.62173e-05
-2.41935e-05
2.58306e-05
-2.60357e-05
2.53883e-05
-2.7879e-05
2.48842e-05
-2.97207e-05
2.43109e-05
-3.15586e-05
2.36605e-05
-3.33886e-05
2.29241e-05
-3.5206e-05
2.2092e-05
-3.70043e-05
2.11536e-05
-3.87759e-05
2.00979e-05
-4.05107e-05
1.8913e-05
-4.21967e-05
1.75869e-05
-4.38196e-05
1.61074e-05
-4.53619e-05
1.44628e-05
-4.68036e-05
1.26422e-05
-4.81215e-05
1.06363e-05
-4.9289e-05
8.43805e-06
-5.02769e-05
6.04389e-06
-5.10533e-05
3.45456e-06
-5.15844e-05
6.76713e-07
-5.18358e-05
-2.27633e-06
-5.17736e-05
-5.38264e-06
-5.13663e-05
-8.6116e-06
-5.05874e-05
-1.19219e-05
-4.94178e-05
-1.52634e-05
-4.78483e-05
-1.85753e-05
-4.58825e-05
-2.17911e-05
-4.35382e-05
-2.48377e-05
-4.08493e-05
-2.76447e-05
-3.78646e-05
-3.01419e-05
-3.46469e-05
-3.2275e-05
-3.1269e-05
-3.39975e-05
-2.78095e-05
-3.52913e-05
-2.43468e-05
-3.61472e-05
-2.09541e-05
-3.65907e-05
-1.76945e-05
-3.66441e-05
-1.46181e-05
-3.63576e-05
-1.1762e-05
-3.57493e-05
-9.15135e-06
-3.48442e-05
-6.80565e-06
-3.35877e-05
-4.74369e-06
-3.19006e-05
-2.99377e-06
-2.9571e-05
-1.59596e-06
-2.63611e-05
-6.03116e-07
-2.19368e-05
-5.19504e-08
-1.6164e-05
8.57887e-08
-9.25173e-06
-2.37466e-06
-4.43286e-07
7.09744e-06
-1.4495e-06
1.63924e-05
-2.82397e-06
2.22298e-05
-4.40599e-06
2.57232e-05
-6.11855e-06
2.76912e-05
-7.89406e-06
2.87083e-05
-9.70984e-06
2.91649e-05
-1.1542e-05
2.9305e-05
-1.33886e-05
2.92728e-05
-1.5242e-05
2.91432e-05
-1.71048e-05
2.89524e-05
-1.89743e-05
2.87141e-05
-2.0853e-05
2.8432e-05
-2.27396e-05
2.81039e-05
-2.46355e-05
2.7726e-05
-2.65396e-05
2.72922e-05
-2.8452e-05
2.67961e-05
-3.03708e-05
2.62296e-05
-3.22948e-05
2.55841e-05
-3.42205e-05
2.48497e-05
-3.61442e-05
2.40154e-05
-3.80599e-05
2.30692e-05