/*--------------------------------*- C++ -*----------------------------------*\
| =========                 |                                                 |
| \\      /  F ield         | OpenFOAM: The Open Source CFD Toolbox           |
|  \\    /   O peration     | Version:  2406                                  |
|   \\  /    A nd           | Website:  www.openfoam.com                      |
|    \\/     M anipulation  |                                                 |
\*---------------------------------------------------------------------------*/
FoamFile
{
    version     2.0;
    format      ascii;
    arch        "LSB;label=32;scalar=64";
    class       surfaceScalarField;
    location    "7.2";
    object      phi;
}
// * * * * * * * * * * * * * * * * * * * * * * * * * * * * * * * * * * * * * //

dimensions      [0 3 -1 0 0 0 0];

oriented        oriented;

internalField   nonuniform List<scalar> 
7080
(
-3.14427e-09
3.05899e-09
-1.54394e-07
1.54733e-07
-4.23011e-07
2.68362e-07
-7.69691e-07
3.50574e-07
-1.15762e-06
3.88736e-07
-1.56323e-06
4.09508e-07
-1.97489e-06
4.13191e-07
-2.38454e-06
4.13264e-07
-2.79092e-06
4.08306e-07
-3.19151e-06
4.03897e-07
-3.58725e-06
3.97883e-07
-3.97674e-06
3.92523e-07
-4.36047e-06
3.85968e-07
-4.73687e-06
3.79212e-07
-5.10554e-06
3.70918e-07
-5.46449e-06
3.61547e-07
-5.81245e-06
3.5015e-07
-6.147e-06
3.36904e-07
-6.46605e-06
3.21104e-07
-6.76672e-06
3.02761e-07
-7.04624e-06
2.81339e-07
-7.30125e-06
2.56782e-07
-7.52846e-06
2.28712e-07
-7.72418e-06
1.97103e-07
-7.88485e-06
1.6177e-07
-8.00677e-06
1.22818e-07
-8.08649e-06
8.03167e-08
-8.12073e-06
3.4595e-08
-8.10674e-06
-1.39668e-08
-8.04225e-06
-6.47511e-08
-7.9258e-06
-1.17044e-07
-7.75678e-06
-1.69934e-07
-7.5356e-06
-2.22418e-07
-7.26377e-06
-2.73371e-07
-6.94399e-06
-3.21629e-07
-6.5801e-06
-3.6602e-07
-6.17705e-06
-4.0543e-07
-5.74079e-06
-4.38867e-07
-5.27808e-06
-4.655e-07
-4.79628e-06
-4.84747e-07
-4.30306e-06
-4.96251e-07
-3.80619e-06
-4.99982e-07
-3.31317e-06
-4.9613e-07
-2.83107e-06
-4.85214e-07
-2.36621e-06
-4.67874e-07
-1.92419e-06
-4.44996e-07
-1.50956e-06
-4.17399e-07
-1.12627e-06
-3.85994e-07
-7.77315e-07
-3.51373e-07
-4.6564e-07
-3.14025e-07
-1.93684e-07
-2.73886e-07
3.50125e-08
-2.30617e-07
2.17036e-07
-1.83323e-07
3.46482e-07
-1.3087e-07
4.18361e-07
-7.23567e-08
4.24927e-07
-7.48392e-09
3.65258e-07
6.02013e-08
2.43162e-07
1.21425e-07
9.58156e-08
1.48818e-07
9.57258e-08
-1.59811e-07
1.59445e-07
-6.18096e-07
6.13287e-07
-1.3081e-06
9.52502e-07
-2.15667e-06
1.19725e-06
-3.105e-06
1.33064e-06
-4.10493e-06
1.40604e-06
-5.13029e-06
1.43218e-06
-6.16039e-06
1.43923e-06
-7.18813e-06
1.43002e-06
-8.20579e-06
1.4171e-06
-9.21234e-06
1.39878e-06
-1.02038e-05
1.37944e-06
-1.11795e-05
1.35633e-06
-1.21356e-05
1.33079e-06
-1.30701e-05
1.3004e-06
-1.39783e-05
1.26538e-06
-1.48566e-05
1.22384e-06
-1.56994e-05
1.17552e-06
-1.65013e-05
1.11889e-06
-1.72558e-05
1.05347e-06
-1.79561e-05
9.7807e-07
-1.85947e-05
8.9221e-07
-1.9164e-05
7.95062e-07
-1.96558e-05
6.86409e-07
-2.00621e-05
5.65959e-07
-2.03748e-05
4.34005e-07
-2.05866e-05
2.90999e-07
-2.06905e-05
1.37986e-07
-2.06807e-05
-2.36707e-08
-2.05528e-05
-1.92026e-07
-2.03038e-05
-3.64758e-07
-1.99328e-05
-5.39047e-07
-1.94409e-05
-7.11768e-07
-1.88317e-05
-8.79497e-07
-1.81109e-05
-1.0387e-06
-1.72868e-05
-1.18586e-06
-1.63699e-05
-1.31764e-06
-1.53726e-05
-1.43107e-06
-1.43089e-05
-1.52368e-06
-1.31942e-05
-1.5937e-06
-1.20445e-05
-1.64003e-06
-1.0876e-05
-1.66249e-06
-9.70449e-06
-1.66157e-06
-8.54512e-06
-1.63862e-06
-7.41169e-06
-1.59543e-06
-6.31669e-06
-1.53437e-06
-5.27093e-06
-1.45773e-06
-4.28405e-06
-1.36786e-06
-3.3643e-06
-1.26635e-06
-2.5199e-06
-1.15422e-06
-1.75872e-06
-1.03112e-06
-1.09053e-06
-8.95625e-07
-5.25677e-07
-7.45218e-07
-7.8078e-08
-5.76593e-07
2.39652e-07
-3.88266e-07
4.13219e-07
-1.80771e-07
4.40794e-07
3.33472e-08
3.3258e-07
2.28242e-07
1.47074e-07
3.34542e-07
2.41375e-07
-2.98323e-07
4.57576e-07
-1.02377e-06
1.34478e-06
-2.06414e-06
1.99241e-06
-3.30941e-06
2.44864e-06
-4.69038e-06
2.71332e-06
-6.1433e-06
2.86485e-06
-7.6354e-06
2.92718e-06
-9.13761e-06
2.94698e-06
-1.06391e-05
2.93495e-06
-1.21277e-05
2.9109e-06
-1.36005e-05
2.87533e-06
-1.5051e-05
2.83471e-06
-1.64769e-05
2.78607e-06
-1.78724e-05
2.73079e-06
-1.92338e-05
2.66559e-06
-2.05543e-05
2.59011e-06
-2.18283e-05
2.50148e-06
-2.30477e-05
2.39871e-06
-2.42048e-05
2.27938e-06
-2.52902e-05
2.1423e-06
-2.62947e-05
1.98551e-06
-2.72076e-05
1.80802e-06
-2.80186e-05
1.60854e-06
-2.87167e-05
1.38666e-06
-2.92911e-05
1.14213e-06
-2.97313e-05
8.7561e-07
-3.00276e-05
5.88222e-07
-3.01712e-05
2.82094e-07
-3.0155e-05
-3.99501e-08
-2.99734e-05
-3.74098e-07
-2.96235e-05
-7.15788e-07
-2.91045e-05
-1.05963e-06
-2.84187e-05
-1.39965e-06
-2.75714e-05
-1.72943e-06
-2.65709e-05
-2.04233e-06
-2.54285e-05
-2.33184e-06
-2.41583e-05
-2.59179e-06
-2.2777e-05
-2.81676e-06
-2.13031e-05
-3.00221e-06
-1.97567e-05
-3.14493e-06
-1.81588e-05
-3.24296e-06
-1.65305e-05
-3.29595e-06
-1.48923e-05
-3.30482e-06
-1.32641e-05
-3.27201e-06
-1.16637e-05
-3.20072e-06
-1.01078e-05
-3.09517e-06
-8.61064e-06
-2.95941e-06
-7.18536e-06
-2.79751e-06
-5.8435e-06
-2.61215e-06
-4.59664e-06
-2.40483e-06
-3.45631e-06
-2.1746e-06
-2.43634e-06
-1.91856e-06
-1.55183e-06
-1.63189e-06
-8.21617e-07
-1.30887e-06
-2.6367e-07
-9.47154e-07
1.03842e-07
-5.49401e-07
2.76136e-07
-1.38508e-07
2.649e-07
2.39008e-07
1.31261e-07
4.69678e-07
3.72855e-07
-4.17359e-07
8.70847e-07
-1.3713e-06
2.30168e-06
-2.69981e-06
3.31446e-06
-4.25949e-06
4.0089e-06
-5.97476e-06
4.42302e-06
-7.77244e-06
4.66137e-06
-9.61793e-06
4.76769e-06
-1.1477e-05
4.80388e-06
-1.33367e-05
4.79018e-06
-1.51816e-05
4.75322e-06
-1.7007e-05
4.6966e-06
-1.88039e-05
4.6288e-06
-2.05686e-05
4.54702e-06
-2.22934e-05
4.45268e-06
-2.39729e-05
4.34169e-06
-2.55987e-05
4.21307e-06
-2.71634e-05
4.06295e-06
-2.86569e-05
3.88952e-06
-3.00697e-05
3.68941e-06
-3.13905e-05
3.46065e-06
-3.2608e-05
3.20055e-06
-3.37096e-05
2.90755e-06
-3.4683e-05
2.58e-06
-3.55153e-05
2.2174e-06
-3.61942e-05
1.81968e-06
-3.67076e-05
1.38805e-06
-3.70447e-05
9.24607e-07
-3.71957e-05
4.32856e-07
-3.71531e-05
-8.2554e-08
-3.69111e-05
-6.1554e-07
-3.64672e-05
-1.15887e-06
-3.58214e-05
-1.70412e-06
-3.49773e-05
-2.24204e-06
-3.3942e-05
-2.76271e-06
-3.27258e-05
-3.25604e-06
-3.13428e-05
-3.7121e-06
-2.98099e-05
-4.12159e-06
-2.81469e-05
-4.47636e-06
-2.63759e-05
-4.7697e-06
-2.45202e-05
-4.99685e-06
-2.26042e-05
-5.15502e-06
-2.06524e-05
-5.24384e-06
-1.86885e-05
-5.26479e-06
-1.67349e-05
-5.22168e-06
-1.48123e-05
-5.11941e-06
-1.29395e-05
-4.96435e-06
-1.11328e-05
-4.76251e-06
-9.4071e-06
-4.51996e-06
-7.7756e-06
-4.24048e-06
-6.25151e-06
-3.92619e-06
-4.84818e-06
-3.5753e-06
-3.58122e-06
-3.18348e-06
-2.46793e-06
-2.74318e-06
-1.52901e-06
-2.24662e-06
-7.84804e-07
-1.69006e-06
-2.54549e-07
-1.07946e-06
5.43075e-08
-4.46702e-07
1.5295e-07
1.39596e-07
9.52148e-08
5.27735e-07
4.6739e-07
-5.00983e-07
1.37022e-06
-1.63301e-06
3.44109e-06
-3.1917e-06
4.87004e-06
-5.00281e-06
5.82592e-06
-6.98231e-06
6.40188e-06
-9.04853e-06
6.73244e-06
-1.11662e-05
6.88611e-06
-1.32975e-05
6.93942e-06
-1.54294e-05
6.92361e-06
-1.75439e-05
6.8714e-06
-1.96355e-05
6.79013e-06
-2.16933e-05
6.6899e-06
-2.37125e-05
6.56845e-06
-2.56838e-05
6.42698e-06
-2.76007e-05
6.26082e-06
-2.94531e-05
6.06819e-06
-3.12323e-05
5.84429e-06
-3.29267e-05
5.58638e-06
-3.45254e-05
5.29016e-06
-3.60155e-05
4.95285e-06
-3.73841e-05
4.57101e-06
-3.86173e-05
4.14257e-06
-3.97014e-05
3.66554e-06
-4.06221e-05
3.13942e-06
-4.13658e-05
2.56445e-06
-4.19194e-05
1.94258e-06
-4.22714e-05
1.27706e-06
-4.24112e-05
5.73042e-07
-4.23311e-05
-1.62716e-07
-4.20254e-05
-9.21531e-07
-4.14918e-05
-1.69313e-06
-4.07313e-05
-2.46567e-06
-3.97484e-05
-3.22617e-06
-3.85519e-05
-3.96087e-06
-3.71541e-05
-4.65572e-06
-3.55713e-05
-5.29704e-06
-3.38232e-05
-5.87206e-06
-3.19325e-05
-6.36963e-06
-2.99244e-05
-6.78064e-06
-2.78254e-05
-7.09876e-06
-2.56631e-05
-7.32037e-06
-2.34648e-05
-7.44521e-06
-2.12571e-05
-7.47564e-06
-1.90647e-05
-7.41714e-06
-1.69104e-05
-7.2767e-06
-1.48144e-05
-7.06331e-06
-1.27943e-05
-6.78536e-06
-1.08657e-05
-6.45131e-06
-9.04224e-06
-6.0663e-06
-7.33741e-06
-5.63336e-06
-5.76474e-06
-5.14986e-06
-4.33988e-06
-4.61023e-06
-3.08047e-06
-4.00386e-06
-2.00725e-06
-3.32121e-06
-1.14145e-06
-2.55642e-06
-5.0256e-07
-1.7192e-06
-1.00371e-07
-8.48708e-07
7.49932e-08
-3.62457e-08
7.06458e-08
5.32729e-07
5.3805e-07
-5.66633e-07
1.93231e-06
-1.83864e-06
4.71833e-06
-3.57784e-06
6.60219e-06
-5.58574e-06
7.8364e-06
-7.77008e-06
8.58104e-06
-1.00426e-05
9.00556e-06
-1.23676e-05
9.20698e-06
-1.47053e-05
9.27666e-06
-1.70427e-05
9.25762e-06
-1.93606e-05
9.18805e-06
-2.16527e-05
9.0793e-06
-2.3907e-05
8.94271e-06
-2.61178e-05
8.7767e-06
-2.82746e-05
8.5821e-06
-3.03698e-05
8.35374e-06
-3.23922e-05
8.08894e-06
-3.4332e-05
7.78201e-06
-3.61765e-05
7.42924e-06
-3.79135e-05
7.02541e-06
-3.9529e-05
6.56686e-06
-4.1009e-05
6.04945e-06
-4.23382e-05
5.47057e-06
-4.35018e-05
4.82794e-06
-4.44844e-05
4.12109e-06
-4.52714e-05
3.35064e-06
-4.58488e-05
2.51937e-06
-4.6204e-05
1.6318e-06
-4.63259e-05
6.94879e-07
-4.62063e-05
-2.82301e-07
-4.58393e-05
-1.28822e-06
-4.52226e-05
-2.30926e-06
-4.43577e-05
-3.32983e-06
-4.325e-05
-4.33282e-06
-4.19094e-05
-5.30018e-06
-4.03501e-05
-6.21348e-06
-3.85906e-05
-7.05484e-06
-3.66532e-05
-7.80755e-06
-3.45637e-05
-8.45715e-06
-3.23503e-05
-8.99184e-06
-3.00432e-05
-9.40358e-06
-2.76733e-05
-9.68789e-06
-2.52713e-05
-9.84482e-06
-2.28667e-05
-9.87784e-06
-2.04868e-05
-9.7946e-06
-1.81565e-05
-9.60468e-06
-1.58972e-05
-9.32029e-06
-1.37276e-05
-8.95278e-06
-1.16633e-05
-8.51364e-06
-9.71775e-06
-8.00978e-06
-7.90376e-06
-7.4457e-06
-6.23386e-06
-6.81805e-06
-4.72246e-06
-6.12041e-06
-3.38605e-06
-5.33894e-06
-2.24404e-06
-4.46252e-06
-1.31701e-06
-3.4825e-06
-6.23713e-07
-2.41237e-06
-1.74901e-07
-1.29692e-06
3.84734e-08
-2.49996e-07
5.98296e-08
5.11709e-07
5.97637e-07
-6.12377e-07
2.54198e-06
-1.98889e-06
6.10308e-06
-3.86618e-06
8.47459e-06
-6.02678e-06
1.0003e-05
-8.37053e-06
1.09226e-05
-1.08031e-05
1.14425e-05
-1.32881e-05
1.16914e-05
-1.57843e-05
1.17763e-05
-1.8279e-05
1.17526e-05
-2.0752e-05
1.16639e-05
-2.31974e-05
1.15255e-05
-2.56021e-05
1.13498e-05
-2.79601e-05
1.11359e-05
-3.026e-05
1.08841e-05
-3.24937e-05
1.05887e-05
-3.46489e-05
1.0246e-05
-3.67152e-05
9.84955e-06
-3.86788e-05
9.3945e-06
-4.05269e-05
8.8747e-06
-4.22442e-05
8.28555e-06
-4.38158e-05
7.62216e-06
-4.52254e-05
6.8813e-06
-4.64569e-05
6.06038e-06
-4.74939e-05
5.1589e-06
-4.83204e-05
4.17784e-06
-4.89213e-05
3.12078e-06
-4.92827e-05
1.99355e-06
-4.93927e-05
8.04983e-07
-4.92416e-05
-4.33394e-07
-4.8823e-05
-1.70701e-06
-4.81341e-05
-2.99862e-06
-4.7176e-05
-4.28848e-06
-4.59548e-05
-5.55492e-06
-4.44809e-05
-6.775e-06
-4.27703e-05
-7.9253e-06
-4.08433e-05
-8.98308e-06
-3.87253e-05
-9.92705e-06
-3.64452e-05
-1.07388e-05
-3.40353e-05
-1.14035e-05
-3.15297e-05
-1.19109e-05
-2.89637e-05
-1.22557e-05
-2.63721e-05
-1.24384e-05
-2.3788e-05
-1.24637e-05
-2.12423e-05
-1.23423e-05
-1.8762e-05
-1.20868e-05
-1.63705e-05
-1.17137e-05
-1.40869e-05
-1.1238e-05
-1.19271e-05
-1.06751e-05
-9.90378e-06
-1.00346e-05
-8.02811e-06
-9.32287e-06
-6.31085e-06
-8.53639e-06
-4.7643e-06
-7.66821e-06
-3.4028e-06
-6.70112e-06
-2.24383e-06
-5.62247e-06
-1.30635e-06
-4.42021e-06
-6.07998e-07
-3.11144e-06
-1.58898e-07
-1.7458e-06
5.05352e-08
-4.59983e-07
6.52748e-08
4.97417e-07
6.62771e-07
-6.48263e-07
3.18552e-06
-2.10469e-06
7.5662e-06
-4.08748e-06
1.04499e-05
-6.3654e-06
1.22848e-05
-8.83173e-06
1.33839e-05
-1.13875e-05
1.40001e-05
-1.39957e-05
1.42959e-05
-1.66138e-05
1.43949e-05
-1.92298e-05
1.43658e-05
-2.18232e-05
1.4257e-05
-2.43881e-05
1.40882e-05
-2.69111e-05
1.38722e-05
-2.93862e-05
1.36091e-05
-3.18012e-05
1.32982e-05
-3.41477e-05
1.29336e-05
-3.64131e-05
1.25104e-05
-3.85861e-05
1.20212e-05
-4.06524e-05
1.14599e-05
-4.25984e-05
1.08195e-05
-4.44079e-05
1.00943e-05
-4.60652e-05
9.27846e-06
-4.75528e-05
8.36812e-06
-4.88534e-05
7.36021e-06
-4.9949e-05
6.25401e-06
-5.08225e-05
5.05075e-06
-5.14567e-05
3.75468e-06
-5.18363e-05
2.37287e-06
-5.19473e-05
9.15953e-07
-5.17787e-05
-6.02027e-07
-5.13222e-05
-2.16331e-06
-5.05737e-05
-3.74676e-06
-4.95336e-05
-5.32806e-06
-4.82075e-05
-6.88039e-06
-4.66065e-05
-8.37525e-06
-4.47475e-05
-9.78341e-06
-4.26532e-05
-1.10763e-05
-4.03518e-05
-1.22273e-05
-3.78764e-05
-1.3213e-05
-3.52637e-05
-1.40149e-05
-3.25532e-05
-1.46201e-05
-2.97854e-05
-1.50221e-05
-2.70005e-05
-1.52218e-05
-2.42366e-05
-1.52261e-05
-2.15286e-05
-1.50489e-05
-1.89067e-05
-1.47071e-05
-1.63966e-05
-1.42224e-05
-1.40182e-05
-1.36149e-05
-1.17873e-05
-1.29049e-05
-9.71502e-06
-1.21055e-05
-7.81079e-06
-1.12261e-05
-6.08254e-06
-1.02635e-05
-4.53972e-06
-9.21038e-06
-3.19353e-06
-8.0463e-06
-2.05879e-06
-6.75692e-06
-1.15181e-06
-5.32634e-06
-4.88407e-07
-3.77495e-06
-7.62605e-08
-2.15721e-06
9.65151e-08
-6.33254e-07
8.08715e-08
5.13723e-07
7.43408e-07
-6.73801e-07
3.85591e-06
-2.18987e-06
9.09096e-06
-4.2528e-06
1.25069e-05
-6.6211e-06
1.46592e-05
-9.18287e-06
1.59425e-05
-1.18353e-05
1.66568e-05
-1.45406e-05
1.69997e-05
-1.72555e-05
1.71129e-05
-1.99684e-05
1.70783e-05
-2.26588e-05
1.69497e-05
-2.53212e-05
1.67508e-05
-2.79422e-05
1.64951e-05
-3.05159e-05
1.61832e-05
-3.30299e-05
1.58138e-05
-3.54758e-05
1.53802e-05
-3.78405e-05
1.48764e-05
-4.01126e-05
1.42939e-05
-4.22771e-05
1.36255e-05
-4.43199e-05
1.2863e-05
-4.6224e-05
1.19993e-05
-4.79727e-05
1.10278e-05
-4.95472e-05
9.94338e-06
-5.09289e-05
8.74242e-06
-5.2098e-05
7.42371e-06
-5.30353e-05
5.98845e-06
-5.37216e-05
4.44129e-06
-5.41389e-05
2.79033e-06
-5.42707e-05
1.04786e-06
-5.41032e-05
-7.6959e-07
-5.36256e-05
-2.64097e-06
-5.28317e-05
-4.54096e-06
-5.17199e-05
-6.44019e-06
-5.02949e-05
-8.30599e-06
-4.85674e-05
-1.01033e-05
-4.65555e-05
-1.17961e-05
-4.4284e-05
-1.33486e-05
-4.17848e-05
-1.47275e-05
-3.90954e-05
-1.59034e-05
-3.62586e-05
-1.68527e-05
-3.33204e-05
-1.75594e-05
-3.03284e-05
-1.80152e-05
-2.73295e-05
-1.82219e-05
-2.43684e-05
-1.81884e-05
-2.14854e-05
-1.79331e-05
-1.8715e-05
-1.74786e-05
-1.60855e-05
-1.68531e-05
-1.3618e-05
-1.60833e-05
-1.13277e-05
-1.51963e-05
-9.22414e-06
-1.42098e-05
-7.31381e-06
-1.31375e-05
-5.60101e-06
-1.19768e-05
-4.09146e-06
-1.07209e-05
-2.79231e-06
-9.34567e-06
-1.71507e-06
-7.83501e-06
-8.7252e-07
-6.16875e-06
-2.77939e-07
-4.37037e-06
6.5092e-08
-2.4997e-06
1.72648e-07
-7.41747e-07
1.05589e-07
5.81611e-07
8.4856e-07
-6.94524e-07
4.54565e-06
-2.25699e-06
1.0661e-05
-4.38207e-06
1.46243e-05
-6.82094e-06
1.71028e-05
-9.45777e-06
1.85743e-05
-1.21871e-05
1.93886e-05
-1.49704e-05
1.97796e-05
-1.77641e-05
1.99078e-05
-2.05571e-05
1.98688e-05
-2.3329e-05
1.9722e-05
-2.60751e-05
1.9495e-05
-2.87821e-05
1.9202e-05
-3.14443e-05
1.8844e-05
-3.40496e-05
1.84188e-05
-3.65896e-05
1.79191e-05
-3.90512e-05
1.73374e-05
-4.14226e-05
1.66644e-05
-4.36888e-05
1.58912e-05
-4.5835e-05
1.50083e-05
-4.78434e-05
1.40072e-05
-4.96962e-05
1.288e-05
-5.13735e-05
1.16202e-05
-5.28547e-05
1.02231e-05
-5.4118e-05
8.68672e-06
-5.51417e-05
7.01175e-06
-5.59034e-05
5.20285e-06
-5.63821e-05
3.26879e-06
-5.65575e-05
1.22325e-06
-5.64122e-05
-9.14916e-07
-5.59318e-05
-3.12133e-06
-5.51063e-05
-5.36619e-06
-5.39317e-05
-7.61454e-06
-5.24104e-05
-9.82696e-06
-5.05525e-05
-1.19608e-05
-4.83766e-05
-1.39714e-05
-4.59101e-05
-1.58145e-05
-4.31886e-05
-1.74482e-05
-4.02558e-05
-1.88354e-05
-3.71616e-05
-1.99461e-05
-3.39605e-05
-2.07597e-05
-3.0709e-05
-2.12659e-05
-2.74632e-05
-2.14668e-05
-2.4276e-05
-2.13746e-05
-2.11949e-05
-2.10133e-05
-1.82599e-05
-2.04126e-05
-1.55026e-05
-1.96097e-05
-1.29453e-05
-1.86396e-05
-1.06025e-05
-1.75385e-05
-8.48102e-06
-1.63303e-05
-6.58359e-06
-1.50345e-05
-4.90957e-06
-1.36499e-05
-3.45978e-06
-1.21704e-05
-2.23607e-06
-1.05685e-05
-1.24574e-06
-8.82545e-06
-4.96924e-07
-6.91662e-06
4.69026e-10
-4.86828e-06
2.48478e-07
-2.74661e-06
2.68994e-07
-7.6329e-07
1.3561e-07
7.16308e-07
9.83643e-07
-7.10103e-07
5.25192e-06
-2.30874e-06
1.22686e-05
-4.4829e-06
1.67918e-05
-6.9782e-06
1.96043e-05
-9.67595e-06
2.12683e-05
-1.24686e-05
2.21854e-05
-1.53174e-05
2.26264e-05
-1.81785e-05
2.27717e-05
-2.10414e-05
2.27308e-05
-2.38861e-05
2.25687e-05
-2.67086e-05
2.23172e-05
-2.94959e-05
2.19909e-05
-3.22432e-05
2.15913e-05
-3.49384e-05
2.11152e-05
-3.75737e-05
2.05546e-05
-4.01357e-05
1.99005e-05
-4.26132e-05
1.91423e-05
-4.49905e-05
1.82694e-05
-4.72526e-05
1.72708e-05
-4.93809e-05
1.61362e-05
-5.13566e-05
1.4856e-05
-5.3158e-05
1.34221e-05
-5.47627e-05
1.18281e-05
-5.61463e-05
1.00707e-05
-5.72838e-05
8.14945e-06
-5.81493e-05
6.06854e-06
-5.87172e-05
3.83683e-06
-5.89629e-05
1.46899e-06
-5.88637e-05
-1.01413e-06
-5.84003e-05
-3.58485e-06
-5.7558e-05
-6.20865e-06
-5.63284e-05
-8.84432e-06
-5.4711e-05
-1.14447e-05
-5.27143e-05
-1.39579e-05
-5.03571e-05
-1.6329e-05
-4.76691e-05
-1.8503e-05
-4.46909e-05
-2.04269e-05
-4.14733e-05
-2.20537e-05
-3.80753e-05
-2.33447e-05
-3.45622e-05
-2.42734e-05
-3.10022e-05
-2.48265e-05
-2.74631e-05
-2.50066e-05
-2.40086e-05
-2.48297e-05
-2.06956e-05
-2.43271e-05
-1.75708e-05
-2.3538e-05
-1.46702e-05
-2.25111e-05
-1.20173e-05
-2.1293e-05
-9.62529e-06
-1.99312e-05
-7.49727e-06
-1.84586e-05
-5.6307e-06
-1.69019e-05
-4.01828e-06
-1.52624e-05
-2.65435e-06
-1.35352e-05
-1.53393e-06
-1.16887e-05
-6.58948e-07
-9.70138e-06
-3.17746e-08
-7.54321e-06
3.41855e-07
-5.24307e-06
4.70878e-07
-2.87454e-06
3.84379e-07
-6.78388e-07
1.70927e-07
9.31358e-07
1.15371e-06
-7.23572e-07
5.97066e-06
-2.35198e-06
1.39052e-05
-4.56642e-06
1.89984e-05
-7.10836e-06
2.21514e-05
-9.85709e-06
2.4012e-05
-1.27037e-05
2.50351e-05
-1.56094e-05
2.55287e-05
-1.85304e-05
2.56943e-05
-2.1457e-05
2.5655e-05
-2.43696e-05
2.54821e-05
-2.72652e-05
2.52111e-05
-3.01314e-05
2.48574e-05
-3.29641e-05
2.44228e-05
-3.57518e-05
2.39029e-05
-3.84872e-05
2.32889e-05
-4.11572e-05
2.25704e-05
-4.37508e-05
2.17351e-05
-4.62523e-05
2.07706e-05
-4.86462e-05
1.96641e-05
-5.09134e-05
1.84032e-05
-5.30338e-05
1.69759e-05
-5.49841e-05
1.53721e-05
-5.67395e-05
1.35832e-05
-5.82726e-05
1.16036e-05
-5.95547e-05
9.4313e-06
-6.05554e-05
7.06907e-06
-6.12439e-05
4.52514e-06
-6.15894e-05
1.81448e-06
-6.15631e-05
-1.04049e-06
-6.11389e-05
-4.009e-06
-6.02958e-05
-7.05164e-06
-5.90197e-05
-1.01203e-05
-5.73054e-05
-1.31588e-05
-5.51588e-05
-1.61042e-05
-5.25984e-05
-1.88891e-05
-4.96564e-05
-2.14446e-05
-4.63792e-05
-2.37037e-05
-4.2826e-05
-2.56064e-05
-3.90674e-05
-2.71028e-05
-3.5182e-05
-2.81583e-05
-3.12527e-05
-2.87552e-05
-2.73624e-05
-2.88965e-05
-2.35885e-05
-2.86029e-05
-2e-05
-2.79151e-05
-1.66527e-05
-2.68846e-05
-1.35879e-05
-2.55755e-05
-1.08306e-05
-2.40495e-05
-8.39214e-06
-2.23694e-05
-6.27011e-06
-2.05799e-05
-4.45473e-06
-1.87172e-05
-2.92972e-06
-1.67865e-05
-1.6807e-06
-1.47844e-05
-6.93786e-07
-1.26746e-05
3.60077e-08
-1.04317e-05
5.13392e-07
-8.01937e-06
7.37657e-07
-5.46841e-06
7.25676e-07
-2.86089e-06
5.14698e-07
-4.6925e-07
2.09921e-07
1.23836e-06
1.36262e-06
-7.34399e-07
6.70096e-06
-2.38763e-06
1.55675e-05
-4.63607e-06
2.12397e-05
-7.21787e-06
2.47395e-05
-1.00109e-05
2.6801e-05
-1.29055e-05
2.79337e-05
-1.58628e-05
2.84838e-05
-1.88395e-05
2.86737e-05
-2.18266e-05
2.86409e-05
-2.48054e-05
2.84628e-05
-2.77737e-05
2.8179e-05
-3.07202e-05
2.78052e-05
-3.36414e-05
2.73438e-05
-3.65268e-05
2.67893e-05
-3.93696e-05
2.61318e-05
-4.21576e-05
2.53591e-05
-4.48798e-05
2.44575e-05
-4.75209e-05
2.34123e-05
-5.00652e-05
2.22086e-05
-5.24928e-05
2.08313e-05
-5.47826e-05
1.9266e-05
-5.69095e-05
1.74994e-05
-5.88462e-05
1.55201e-05
-6.0562e-05
1.33196e-05
-6.20237e-05
1.08932e-05
-6.31956e-05
8.24118e-06
-6.40407e-05
5.37023e-06
-6.45208e-05
2.29468e-06
-6.45991e-05
-9.62234e-07
-6.4241e-05
-4.36708e-06
-6.34173e-05
-7.87547e-06
-6.21061e-05
-1.14317e-05
-6.02961e-05
-1.4969e-05
-5.79893e-05
-1.84113e-05
-5.52033e-05
-2.16754e-05
-5.1973e-05
-2.46752e-05
-4.8351e-05
-2.7326e-05
-4.44068e-05
-2.9551e-05
-4.02241e-05
-3.12858e-05
-3.58976e-05
-3.24852e-05
-3.15277e-05
-3.31254e-05
-2.72156e-05
-3.32091e-05
-2.30566e-05
-3.27623e-05
-1.91351e-05
-3.18371e-05
-1.55191e-05
-3.05008e-05
-1.22579e-05
-2.88374e-05
-9.379e-06
-2.69285e-05
-6.89134e-06
-2.48578e-05
-4.78555e-06
-2.26856e-05
-3.04195e-06
-2.04615e-05
-1.63215e-06
-1.81961e-05
-5.29936e-07
-1.58876e-05
2.90313e-07
-1.34943e-05
8.42623e-07
-1.09852e-05
1.14037e-06
-8.31603e-06
1.18874e-06
-5.51845e-06
1.0134e-06
-2.68375e-06
6.60436e-07
-1.18761e-07
2.53008e-07
1.64843e-06
1.61423e-06
-7.44199e-07
7.44028e-06
-2.41896e-06
1.72508e-05
-4.69696e-06
2.35097e-05
-7.3138e-06
2.73618e-05
-1.01464e-05
2.96285e-05
-1.30845e-05
3.0875e-05
-1.60899e-05
3.14858e-05
-1.91195e-05
3.17051e-05
-2.21655e-05
3.16847e-05
-2.52101e-05
3.15083e-05
-2.82522e-05
3.12195e-05
-3.12814e-05
3.08348e-05
-3.42955e-05
3.03568e-05
-3.72848e-05
2.97787e-05
-4.02435e-05
2.90898e-05
-4.31603e-05
2.82758e-05
-4.60247e-05
2.73213e-05
-4.88219e-05
2.62093e-05
-5.15361e-05
2.49222e-05
-5.41471e-05
2.34421e-05
-5.66327e-05
2.17512e-05
-5.89661e-05
1.98326e-05
-6.11174e-05
1.76711e-05
-6.30522e-05
1.52542e-05
-6.47325e-05
1.25733e-05
-6.61166e-05
9.62512e-06
-6.71598e-05
6.41331e-06
-6.78156e-05
2.95032e-06
-6.8037e-05
-7.40849e-07
-6.77794e-05
-4.62473e-06
-6.70029e-05
-8.65195e-06
-6.56763e-05
-1.27582e-05
-6.37807e-05
-1.68645e-05
-6.13134e-05
-2.08784e-05
-5.8291e-05
-2.46976e-05
-5.47513e-05
-2.82147e-05
-5.07535e-05
-3.13235e-05
-4.63773e-05
-3.3927e-05
-4.17193e-05
-3.59435e-05
-3.68901e-05
-3.73142e-05
-3.20082e-05
-3.80069e-05
-2.71953e-05
-3.80218e-05
-2.25679e-05
-3.73892e-05
-1.82318e-05
-3.6173e-05
-1.42732e-05
-3.44589e-05
-1.0755e-05
-3.23554e-05
-7.71171e-06
-2.99712e-05
-5.15167e-06
-2.74178e-05
-3.05786e-06
-2.47787e-05
-1.3979e-06
-2.21218e-05
-1.27075e-07
-1.9466e-05
7.97294e-07
-1.68125e-05
1.41686e-06
-1.41127e-05
1.7581e-06
-1.13275e-05
1.84543e-06
-8.40173e-06
1.69121e-06
-5.36598e-06
1.33074e-06
-2.3209e-06
8.19379e-07
3.89746e-07
2.9925e-07
2.1719e-06
1.91187e-06
-7.5215e-07
8.18819e-06
-2.4454e-06
1.89533e-05
-4.74934e-06
2.58064e-05
-7.39744e-06
3.00163e-05
-1.02661e-05
3.24929e-05
-1.32447e-05
3.38578e-05
-1.62956e-05
3.45343e-05
-1.93766e-05
3.47889e-05
-2.24809e-05
3.47877e-05
-2.55917e-05
3.46209e-05
-2.87092e-05
3.43364e-05
-3.18242e-05
3.39512e-05
-3.49358e-05
3.34681e-05
-3.80356e-05
3.28794e-05
-4.1119e-05
3.21731e-05
-4.41756e-05
3.13332e-05
-4.71962e-05
3.0342e-05
-5.01664e-05
2.91801e-05
-5.30709e-05
2.78269e-05
-5.58894e-05
2.6261e-05
-5.85989e-05
2.44608e-05
-6.11709e-05
2.2405e-05
-6.35733e-05
2.00736e-05
-6.57677e-05
1.74488e-05
-6.77111e-05
1.45168e-05
-6.93548e-05
1.1269e-05
-7.0646e-05
7.7045e-06
-7.15277e-05
3.83215e-06
-7.1942e-05
-3.26559e-07
-7.18319e-05
-4.73477e-06
-7.11462e-05
-9.33773e-06
-6.98435e-05
-1.40609e-05
-6.78982e-05
-1.88099e-05
-6.53043e-05
-2.34724e-05
-6.20791e-05
-2.7923e-05
-5.82637e-05
-3.20303e-05
-5.39219e-05
-3.56655e-05
-4.91381e-05
-3.87111e-05
-4.40143e-05
-4.10675e-05
-3.86677e-05
-4.26611e-05
-3.32278e-05
-4.3447e-05
-2.78333e-05
-4.34167e-05
-2.2625e-05
-4.25975e-05
-1.77391e-05
-4.10594e-05
-1.32933e-05
-3.89046e-05
-9.37972e-06
-3.62695e-05
-6.05274e-06
-3.3298e-05
-3.32968e-06
-3.01416e-05
-1.18939e-06
-2.69186e-05
4.14882e-07
-2.37269e-05
1.54958e-06
-2.06e-05
2.28125e-06
-1.75454e-05
2.67504e-06
-1.45054e-05
2.77612e-06
-1.14302e-05
2.62449e-06
-8.24842e-06
2.2423e-06
-4.98608e-06
1.67597e-06
-1.7519e-06
9.90717e-07
1.07149e-06
3.48534e-07
2.81799e-06
2.25838e-06
-7.59138e-07
8.94236e-06
-2.4682e-06
2.06711e-05
-4.79474e-06
2.81248e-05
-7.47065e-06
3.26978e-05
-1.0372e-05
3.53891e-05
-1.33882e-05
3.68773e-05
-1.64824e-05
3.76252e-05
-1.96132e-05
3.79215e-05
-2.27749e-05
3.79471e-05
-2.59519e-05
3.7799e-05
-2.91462e-05
3.75291e-05
-3.23496e-05
3.71551e-05
-3.55629e-05
3.66804e-05
-3.87792e-05
3.60959e-05
-4.19954e-05
3.53885e-05
-4.52025e-05
3.45403e-05
-4.83926e-05
3.35316e-05
-5.15525e-05
3.23399e-05
-5.46677e-05
3.09416e-05
-5.77182e-05
2.93113e-05
-6.06807e-05
2.74229e-05
-6.35257e-05
2.52498e-05
-6.62185e-05
2.27661e-05
-6.87174e-05
1.99476e-05
-7.09741e-05
1.67732e-05
-7.29328e-05
1.32275e-05
-7.45314e-05
9.30287e-06
-7.57023e-05
5.00293e-06
-7.63756e-05
3.46602e-07
-7.64828e-05
-4.62755e-06
-7.59634e-05
-9.8572e-06
-7.47709e-05
-1.52535e-05
-7.28795e-05
-2.07013e-05
-7.0288e-05
-2.60639e-05
-6.70193e-05
-3.11916e-05
-6.31169e-05
-3.59327e-05
-5.8639e-05
-4.01433e-05
-5.36547e-05
-4.36954e-05
-4.82429e-05
-4.64793e-05
-4.24976e-05
-4.84065e-05
-3.65331e-05
-4.94113e-05
-3.04908e-05
-4.94591e-05
-2.45357e-05
-4.85524e-05
-1.88498e-05
-4.67455e-05
-1.36116e-05
-4.41424e-05
-8.97784e-06
-4.09035e-05
-5.05845e-06
-3.72168e-05
-1.90739e-06
-3.3293e-05
4.84473e-07
-2.93096e-05
2.17459e-06
-2.54176e-05
3.25751e-06
-2.16818e-05
3.83604e-06
-1.81249e-05
4.01293e-06
-1.46808e-05
3.86502e-06
-1.12839e-05
3.45773e-06
-7.83897e-06
2.82943e-06
-4.36029e-06
2.0414e-06
-9.60639e-07
1.17038e-06
1.93851e-06
3.99475e-07
3.59354e-06
2.65554e-06
-7.64045e-07
9.70214e-06
-2.48574e-06
2.24023e-05
-4.83132e-06
3.0463e-05
-7.53153e-06
3.54045e-05
-1.04623e-05
3.83156e-05
-1.35133e-05
3.99325e-05
-1.66483e-05
4.07577e-05
-1.98269e-05
4.11029e-05
-2.30449e-05
4.11637e-05
-2.6288e-05
4.1044e-05
-2.95595e-05
4.07999e-05
-3.28532e-05
4.04501e-05
-3.61715e-05
3.99984e-05
-3.95091e-05
3.94345e-05
-4.28651e-05
3.87444e-05
-4.62321e-05
3.79081e-05
-4.96042e-05
3.69037e-05
-5.29696e-05
3.57058e-05
-5.63154e-05
3.42875e-05
-5.96225e-05
3.26188e-05
-6.2868e-05
3.06685e-05
-6.60219e-05
2.8404e-05
-6.9048e-05
2.57924e-05
-7.19013e-05
2.28011e-05
-7.45286e-05
1.94007e-05
-7.68673e-05
1.55664e-05
-7.88466e-05
1.12823e-05
-8.03892e-05
6.5457e-06
-8.14166e-05
1.37402e-06
-8.18555e-05
-4.18855e-06
-8.16481e-05
-1.00646e-05
-8.07605e-05
-1.6141e-05
-7.91884e-05
-2.22735e-05
-7.69535e-05
-2.8299e-05
-7.40926e-05
-3.40527e-05
-7.0641e-05
-3.93846e-05
-6.66175e-05
-4.41672e-05
-6.20215e-05
-4.82919e-05
-5.68426e-05
-5.16588e-05
-5.10839e-05
-5.41661e-05
-4.47891e-05
-5.57068e-05
-3.80681e-05
-5.61811e-05
-3.11051e-05
-5.5516e-05
-2.41539e-05
-5.36978e-05
-1.75064e-05
-5.07902e-05
-1.1455e-05
-4.69559e-05
-6.24098e-06
-4.24307e-05
-2.02179e-06
-3.75131e-05
1.15386e-06
-3.24847e-05
3.33417e-06
-2.75991e-05
4.64521e-06
-2.29918e-05
5.24579e-06
-1.8727e-05
5.30278e-06
-1.47362e-05
4.95121e-06
-1.09344e-05
4.30349e-06
-7.18889e-06
3.42955e-06
-3.48935e-06
2.41495e-06
5.75968e-08
1.35303e-06
2.99579e-06
4.50676e-07
4.50119e-06
3.10351e-06
-7.67522e-07
1.04646e-05
-2.4984e-06
2.41418e-05
-4.85887e-06
3.28152e-05
-7.57917e-06
3.81304e-05
-1.05354e-05
4.12665e-05
-1.36174e-05
4.30178e-05
-1.67899e-05
4.39268e-05
-2.00136e-05
4.43284e-05
-2.32856e-05
4.44334e-05
-2.65931e-05
4.43525e-05
-2.99412e-05
4.41464e-05
-3.33255e-05
4.38349e-05
-3.67503e-05
4.3422e-05
-4.02126e-05
4.28969e-05
-4.37135e-05
4.22445e-05
-4.72482e-05
4.14427e-05
-5.08129e-05
4.04678e-05
-5.43983e-05
3.92911e-05
-5.79935e-05
3.78821e-05
-6.15812e-05
3.62063e-05
-6.51399e-05
3.42268e-05
-6.86401e-05
3.1904e-05
-7.20449e-05
2.91968e-05
-7.53073e-05
2.60633e-05
-7.83704e-05
2.24635e-05
-8.11662e-05
1.8362e-05
-8.36183e-05
1.37341e-05
-8.56461e-05
8.57335e-06
-8.7175e-05
2.9027e-06
-8.81494e-05
-3.21434e-06
-8.85479e-05
-9.66621e-06
-8.83924e-05
-1.62967e-05
-8.77422e-05
-2.29239e-05
-8.66703e-05
-2.93711e-05
-8.52238e-05
-3.54994e-05
-8.33857e-05
-4.12233e-05
-8.10524e-05
-4.6501e-05
-7.80432e-05
-5.13019e-05
-7.41385e-05
-5.55643e-05
-6.91413e-05
-5.91643e-05
-6.294e-05
-6.1909e-05
-5.55629e-05
-6.35595e-05
-4.72028e-05
-6.3877e-05
-3.82163e-05
-6.26857e-05
-2.9081e-05
-5.99261e-05
-2.03333e-05
-5.5705e-05
-1.24751e-05
-5.02889e-05
-5.89638e-06
-4.4093e-05
-8.07623e-07
-3.75727e-05
2.76865e-06
-3.11766e-05
4.97556e-06
-2.51974e-05
6.05139e-06
-1.98044e-05
6.27128e-06
-1.49541e-05
5.87822e-06
-1.05436e-05
5.07508e-06
-6.38294e-06
3.9963e-06
-2.41389e-06
2.77329e-06
1.28476e-06
1.52863e-06
4.23528e-06
4.99417e-07
5.53638e-06
3.5999e-06
-7.68121e-07
1.12285e-05
-2.50381e-06
2.58872e-05
-4.8743e-06
3.51784e-05
-7.60987e-06
4.08727e-05
-1.05869e-05
4.42393e-05
-1.36956e-05
4.61309e-05
-1.69016e-05
4.71305e-05
-2.01667e-05
4.75964e-05
-2.34893e-05
4.77547e-05
-2.68585e-05
4.77237e-05
-3.0281e-05
4.75683e-05
-3.37544e-05
4.73097e-05
-3.72855e-05
4.69529e-05
-4.08735e-05
4.64861e-05
-4.45224e-05
4.58934e-05
-4.82301e-05
4.51511e-05
-5.19958e-05
4.42335e-05
-5.58131e-05
4.31091e-05
-5.96744e-05
4.17435e-05
-6.35652e-05
4.00975e-05
-6.74666e-05
3.81283e-05
-7.13508e-05
3.57887e-05
-7.51821e-05
3.30283e-05
-7.89132e-05
2.97948e-05
-8.24862e-05
2.60366e-05
-8.58324e-05
2.17085e-05
-8.88792e-05
1.67811e-05
-9.15609e-05
1.12553e-05
-9.38396e-05
5.1816e-06
-9.57295e-05
-1.32418e-06
-9.73161e-05
-8.07959e-06
-9.87515e-05
-1.48613e-05
-0.000100216
-2.14599e-05
-0.000101842
-2.77448e-05
-0.000103635
-3.37069e-05
-0.000105407
-3.94515e-05
-0.000106773
-4.51355e-05
-0.000107202
-5.08737e-05
-0.000106114
-5.66523e-05
-0.000102998
-6.22803e-05
-9.75123e-05
-6.7395e-05
-8.95595e-05
-7.15126e-05
-7.93261e-05
-7.41105e-05
-6.72863e-05
-7.47265e-05
-5.41576e-05
-7.30552e-05
-4.08249e-05
-6.90394e-05
-2.82075e-05
-6.29068e-05
-1.71208e-05
-5.51818e-05
-8.12837e-06
-4.65648e-05
-1.47042e-06
-3.78365e-05
2.94051e-06
-2.96069e-05
5.42551e-06
-2.22915e-05
6.4237e-06
-1.59501e-05
6.36561e-06
-1.04882e-05
5.62151e-06
-5.63568e-06
4.453e-06
-1.24918e-06
3.08071e-06
2.66165e-06
1.68335e-06
5.62692e-06
5.42509e-07
6.68381e-06
4.13907e-06
-7.66645e-07
1.19899e-05
-2.50227e-06
2.76313e-05
-4.87687e-06
3.75446e-05
-7.62171e-06
4.36229e-05
-1.06135e-05
4.72257e-05
-1.37433e-05
4.92637e-05
-1.69772e-05
5.03609e-05
-2.02784e-05
5.08992e-05
-2.36466e-05
5.11205e-05
-2.70726e-05
5.11505e-05
-3.05652e-05
5.10592e-05
-3.41243e-05
5.08691e-05
-3.77589e-05
5.05862e-05
-4.14713e-05
5.01985e-05
-4.52683e-05
4.96894e-05
-4.91513e-05
4.9034e-05
-5.31233e-05
4.82047e-05
-5.71817e-05
4.71673e-05
-6.1323e-05
4.58842e-05
-6.55369e-05
4.43112e-05
-6.98085e-05
4.23994e-05
-7.41139e-05
4.00938e-05
-7.84206e-05
3.73345e-05
-8.26845e-05
3.40584e-05
-8.68523e-05
3.0204e-05
-9.08659e-05