/*--------------------------------*- C++ -*----------------------------------*\
| =========                 |                                                 |
| \\      /  F ield         | OpenFOAM: The Open Source CFD Toolbox           |
|  \\    /   O peration     | Version:  2406                                  |
|   \\  /    A nd           | Website:  www.openfoam.com                      |
|    \\/     M anipulation  |                                                 |
\*---------------------------------------------------------------------------*/
FoamFile
{
    version     2.0;
    format      ascii;
    arch        "LSB;label=32;scalar=64";
    class       surfaceScalarField;
    location    "28.6";
    object      phi;
}
// * * * * * * * * * * * * * * * * * * * * * * * * * * * * * * * * * * * * * //

dimensions      [0 3 -1 0 0 0 0];

oriented        oriented;

internalField   nonuniform List<scalar> 
7080
(
3.47376e-07
-3.47178e-07
1.31808e-06
-9.84968e-07
2.55214e-06
-1.2324e-06
3.76324e-06
-1.22235e-06
4.81433e-06
-1.05153e-06
5.6267e-06
-8.19491e-07
6.20266e-06
-5.75933e-07
6.54562e-06
-3.4572e-07
6.68395e-06
-1.364e-07
6.62313e-06
6.2224e-08
6.36386e-06
2.64126e-07
5.87581e-06
4.9396e-07
5.11027e-06
7.74706e-07
3.98908e-06
1.1328e-06
2.41724e-06
1.58722e-06
2.84543e-07
2.15181e-06
-2.51987e-06
2.828e-06
-6.09964e-06
3.6079e-06
-1.05379e-05
4.47115e-06
-1.58867e-05
5.38675e-06
-2.21511e-05
6.30744e-06
-2.92702e-05
7.16703e-06
-3.70976e-05
7.87894e-06
-4.53891e-05
8.34427e-06
-5.38008e-05
8.46236e-06
-6.19014e-05
8.14565e-06
-6.91979e-05
7.33276e-06
-7.51731e-05
6.00038e-06
-7.93285e-05
4.16793e-06
-8.12274e-05
1.89786e-06
-8.05324e-05
-7.09598e-07
-7.70384e-05
-3.52166e-06
-7.06979e-05
-6.38018e-06
-6.16406e-05
-9.10763e-06
-5.01835e-05
-1.15163e-05
-3.6831e-05
-1.34185e-05
-2.22579e-05
-1.46434e-05
-7.27529e-06
-1.5055e-05
7.22919e-06
-1.45758e-05
2.03682e-05
-1.32068e-05
3.13514e-05
-1.10436e-05
3.95782e-05
-8.27794e-06
4.47217e-05
-5.18169e-06
4.67699e-05
-2.07325e-06
4.60235e-05
7.36938e-07
4.30296e-05
2.99676e-06
3.84817e-05
4.56406e-06
3.30886e-05
5.41561e-06
2.74753e-05
5.6432e-06
2.2104e-05
5.39961e-06
1.72703e-05
4.86481e-06
1.3106e-05
4.18821e-06
9.63917e-06
3.49307e-06
6.81126e-06
2.8436e-06
4.5401e-06
2.29209e-06
2.72814e-06
1.81945e-06
1.32536e-06
1.41954e-06
3.59816e-07
9.66012e-07
-9.84373e-08
4.71354e-07
-9.85195e-08
9.75902e-07
-1.30889e-06
2.92292e-06
-2.93236e-06
5.23424e-06
-3.52419e-06
7.42846e-06
-3.41221e-06
9.26773e-06
-2.87645e-06
1.0578e-05
-2.12595e-06
1.1311e-05
-1.30155e-06
1.14173e-05
-4.52066e-07
1.08806e-05
4.00342e-07
9.64299e-06
1.29437e-06
7.626e-06
2.27354e-06
4.69286e-06
3.4142e-06
6.67123e-07
4.78337e-06
-4.67545e-06
6.45201e-06
-1.15775e-05
8.45953e-06
-2.02792e-05
1.08158e-05
-3.09751e-05
1.34782e-05
-4.37764e-05
1.63551e-05
-5.86599e-05
1.92922e-05
-7.54208e-05
2.2077e-05
-9.36412e-05
2.44483e-05
-0.000112697
2.61343e-05
-0.000131803
2.68904e-05
-0.000150092
2.65367e-05
-0.000166697
2.49735e-05
-0.00018082
2.21855e-05
-0.000191785
1.82305e-05
-0.000199058
1.32277e-05
-0.000202256
7.34403e-06
-0.00020114
7.85818e-07
-0.00019561
-6.20835e-06
-0.000185705
-1.33691e-05
-0.000171605
-2.03994e-05
-0.000153636
-2.69752e-05
-0.000132279
-3.2754e-05
-0.000108179
-3.73865e-05
-8.21412e-05
-4.05415e-05
-5.51173e-05
-4.19367e-05
-2.81718e-05
-4.1382e-05
-2.42964e-06
-3.8819e-05
2.10019e-05
-3.43597e-05
4.11185e-05
-2.82998e-05
5.71176e-05
-2.11101e-05
6.84766e-05
-1.33898e-05
7.50212e-05
-5.79178e-06
7.69438e-05
1.06293e-06
7.47951e-05
6.68225e-06
6.94036e-05
1.07594e-05
6.1773e-05
1.32206e-05
5.29191e-05
1.41947e-05
4.37521e-05
1.39793e-05
3.49532e-05
1.29345e-05
2.69718e-05
1.14344e-05
2.00079e-05
9.76604e-06
1.41175e-05
8.15685e-06
9.23782e-06
6.66737e-06
5.33274e-06
5.31272e-06
2.40712e-06
3.86726e-06
5.82788e-07
2.29594e-06
4.71043e-07
1.25993e-06
-2.56992e-06
3.59215e-06
-5.2844e-06
6.22824e-06
-6.16002e-06
8.56735e-06
-5.76683e-06
1.03277e-05
-4.63975e-06
1.12732e-05
-3.08076e-06
1.12988e-05
-1.32844e-06
1.02782e-05
5.65589e-07
8.10517e-06
2.57604e-06
4.61067e-06
4.79249e-06
-4.12611e-07
7.30501e-06
-7.24395e-06
1.02566e-05
-1.62026e-05
1.3758e-05
-2.76327e-05
1.79028e-05
-4.18427e-05
2.26964e-05
-5.90436e-05
2.80503e-05
-7.92595e-05
3.37351e-05
-0.000102248
3.9392e-05
-0.000127451
4.45505e-05
-0.000154023
4.87092e-05
-0.000180924
5.14168e-05
-0.000207066
5.23491e-05
-0.000231434
5.13351e-05
-0.00025317
4.83513e-05
-0.000271606
4.3486e-05
-0.000286259
3.69053e-05
-0.000296794
2.88198e-05
-0.000302996
1.94678e-05
-0.00030474
9.10477e-06
-0.000301963
-1.99522e-06
-0.000294661
-1.35361e-05
-0.000282889
-2.51891e-05
-0.000266771
-3.65865e-05
-0.000246519
-4.73138e-05
-0.000222462
-5.69135e-05
-0.000195067
-6.48948e-05
-0.000164964
-7.07647e-05
-0.000132955
-7.40686e-05
-0.000100003
-7.44537e-05
-6.72022e-05
-7.17311e-05
-3.57161e-05
-6.59437e-05
-6.69788e-06
-5.73989e-05
1.88074e-05
-4.66744e-05
3.99445e-05
-3.45642e-05
5.61295e-05
-2.19905e-05
6.70865e-05
-9.88889e-06
7.28841e-05
9.08332e-07
7.3923e-05
9.75371e-06
7.09234e-05
1.62632e-05
6.48296e-05
2.03306e-05
5.67127e-05
2.21419e-05
4.75899e-05
2.20946e-05
3.83346e-05
2.07295e-05
2.95492e-05
1.8578e-05
2.16256e-05
1.61129e-05
1.47183e-05
1.35888e-05
8.94868e-06
1.11096e-05
4.37727e-06
8.43921e-06
1.28129e-06
5.41695e-06
1.75205e-06
1.33594e-06
-3.89454e-06
3.63431e-06
-7.58806e-06
6.0242e-06
-8.53447e-06
7.85463e-06
-7.59739e-06
8.82284e-06
-5.59837e-06
8.6453e-06
-2.90234e-06
7.14558e-06
1.75413e-07
4.09525e-06
3.61467e-06
-7.40543e-07
7.41057e-06
-7.67908e-06
1.17259e-05
-1.70861e-05
1.6705e-05
-2.93849e-05
2.25447e-05
-4.49891e-05
2.93483e-05
-6.42336e-05
3.71295e-05
-8.72539e-05
4.56945e-05
-0.000113873
5.46426e-05
-0.00014352
6.33494e-05
-0.00017525
7.10826e-05
-0.000207871
7.71271e-05
-0.000240145
8.09343e-05
-0.000270959
8.21787e-05
-0.000299429
8.07629e-05
-0.00032491
7.67588e-05
-0.000346969
7.0353e-05
-0.000365324
6.1788e-05
-0.000379795
5.13319e-05
-0.000390264
3.92546e-05
-0.000396643
2.58253e-05
-0.000398856
1.13111e-05
-0.000396832
-4.01006e-06
-0.000390504
-1.9839e-05
-0.000379817
-3.58355e-05
-0.000364744
-5.16048e-05
-0.000345309
-6.66801e-05
-0.000321624
-8.05198e-05
-0.000293921
-9.25098e-05
-0.0002626
-0.000101993
-0.00022826
-0.000108315
-0.000191721
-0.0001109
-0.00015402
-0.000109345
-0.000116366
-0.000103521
-8.00551e-05
-9.36457e-05
-4.6353e-05
-8.03265e-05
-1.63752e-05
-6.4509e-05
9.02361e-06
-4.73714e-05
2.92912e-05
-3.01553e-05
4.41962e-05
-1.40068e-05
5.37922e-05
1.34862e-07
5.84197e-05
1.16089e-05
5.86696e-05
2.00465e-05
5.53775e-05
2.54039e-05
4.95048e-05
2.79327e-05
4.20648e-05
2.81451e-05
3.39317e-05
2.66807e-05
2.58353e-05
2.41947e-05
1.82317e-05
2.11658e-05
1.15048e-05
1.78338e-05
5.87564e-06
1.40413e-05
1.84131e-06
9.46124e-06
3.57621e-06
1.25302e-06
-5.14659e-06
3.18891e-06
-9.53816e-06
4.89118e-06
-1.02337e-05
5.69732e-06
-8.41261e-06
5.2817e-06
-5.18303e-06
3.30813e-06
-9.3311e-07
-4.93266e-07
3.97707e-06
-6.47369e-06
9.59515e-06
-1.50184e-05
1.59582e-05
-2.65967e-05
2.33088e-05
-4.17037e-05
3.1819e-05
-6.08123e-05
4.16631e-05
-8.42444e-05
5.27932e-05
-0.000112028
6.49298e-05
-0.000143757
7.74429e-05
-0.00017855
8.94582e-05
-0.000215158
9.99845e-05
-0.000252201
0.000108157
-0.000288406
0.000113368
-0.000322759
0.000115325
-0.000354532
0.000113993
-0.00038325
0.000109524
-0.000408617
0.000102169
-0.000430461
9.22384e-05
-0.000448686
8.00485e-05
-0.000463237
6.59121e-05
-0.000474083
5.01197e-05
-0.000481194
3.29447e-05
-0.00048453
1.46438e-05
-0.00048403
-4.5259e-06
-0.000479601
-2.42939e-05
-0.000471125
-4.43495e-05
-0.000458455
-6.43219e-05
-0.000441439
-8.37507e-05
-0.00041995
-0.000102071
-0.000393927
-0.000118599
-0.00036344
-0.000132549
-0.000328758
-0.000143065
-0.000290419
-0.000149305
-0.000249279
-0.000150547
-0.000206523
-0.000146332
-0.000163607
-0.000136608
-0.00012213
-0.000121839
-8.36422e-05
-0.000103022
-4.94342e-05
-8.15918e-05
-2.03975e-05
-5.91946e-05
3.02973e-06
-3.74245e-05
2.07772e-05
-1.75975e-05
3.30582e-05
-6.48401e-07
4.02726e-05
1.28547e-05
4.30202e-05
2.26844e-05
4.20508e-05
2.89229e-05
3.82744e-05
3.19479e-05
3.25998e-05
3.23694e-05
2.59249e-05
3.08936e-05
1.89377e-05
2.81576e-05
1.22842e-05
2.45115e-05
6.40831e-06
1.99094e-05
2.04272e-06
1.38552e-05
5.61473e-06
1.04087e-06
-6.18129e-06
2.2932e-06
-1.07937e-05
2.86556e-06
-1.07985e-05
2.13257e-06
-7.67939e-06
-2.58361e-07
-2.78883e-06
-4.70776e-06
3.51694e-06
-1.16064e-05
1.08756e-05
-2.14429e-05
1.94305e-05
-3.47516e-05
2.92635e-05
-5.21053e-05
4.06583e-05
-7.40075e-05
5.37143e-05
-0.000100755
6.84026e-05
-0.000132254
8.42811e-05
-0.000167886
0.000100549
-0.000206517
0.000116058
-0.00024669
0.000129612
-0.00028692
0.000140192
-0.000325939
0.000147151
-0.000362796
0.000150198
-0.000396848
0.000149347
-0.00042769
0.000144805
-0.000455098
0.000136899
-0.00047897
0.000126009
-0.0004993
0.000112538
-0.000516143
9.68644e-05
-0.000529593
7.93414e-05
-0.000539761
6.02739e-05
-0.00054675
3.99272e-05
-0.00055063
1.85267e-05
-0.000551424
-3.72121e-06
-0.000549083
-2.66152e-05
-0.00054348
-4.99262e-05
-0.000534396
-7.33725e-05
-0.000521529
-9.65788e-05
-0.00050451
-0.000119048
-0.000482938
-0.000140124
-0.000456454
-0.000158985
-0.000424823
-0.000174646
-0.000388058
-0.000186021
-0.000346544
-0.000192014
-0.00030114
-0.000191693
-0.00025323
-0.000184481
-0.000204657
-0.000170382
-0.000157534
-0.000150125
-0.00011392
-0.000125194
-7.54736e-05
-9.76395e-05
-4.31866e-05
-6.97158e-05
-1.73642e-05
-4.34325e-05
2.21786e-06
-2.02439e-05
1.60406e-05
-9.87705e-07
2.47163e-05
1.39933e-05
2.89102e-05
2.47078e-05
2.94107e-05
3.14352e-05
2.70484e-05
3.4711e-05
2.27396e-05
3.51964e-05
1.72899e-05
3.35867e-05
1.15299e-05
3.02744e-05
6.11505e-06
2.52996e-05
1.95898e-06
1.80249e-05
7.55746e-06
6.73013e-07
-6.85572e-06
9.09022e-07
-1.10326e-05
-7.68306e-08
-9.81449e-06
-2.83315e-06
-4.92347e-06
-7.75424e-06
2.12979e-06
-1.53211e-05
1.10855e-05
-2.60615e-05
2.16152e-05
-4.05834e-05
3.39561e-05
-5.95077e-05
4.81898e-05
-8.33682e-05
6.4525e-05
-0.000112443
8.27941e-05
-0.000146548
0.000102517
-0.000184915
0.000122657
-0.000226227
0.000141873
-0.000268877
0.000158721
-0.000311291
0.000172042
-0.000352166
0.000181084
-0.000390542
0.000185546
-0.000425772
0.000185447
-0.000457459
0.000181054
-0.000485407
0.000172773
-0.000509583
0.000161095
-0.000530086
0.00014653
-0.00054711
0.000129578
-0.000560915
0.000110681
-0.000571788
9.02205e-05
-0.000580012
6.84991e-05
-0.000585842
4.57518e-05
-0.000589476
2.21495e-05
-0.000591039
-2.17557e-06
-0.000590562
-2.71162e-05
-0.000587963
-5.25555e-05
-0.000583027
-7.83428e-05
-0.000575397
-0.000104248
-0.000564561
-0.000129926
-0.000549868
-0.000154861
-0.000530565
-0.000178333
-0.000505878
-0.000199379
-0.000475139
-0.000216802
-0.000437967
-0.000229225
-0.00039447
-0.000235224
-0.000345443
-0.000233536
-0.000292483
-0.000223361
-0.000237953
-0.000204668
-0.000184704
-0.00017845
-0.000135585
-0.00014676
-9.28415e-05
-0.000112455
-5.76814e-05
-7.85867e-05
-3.02133e-05
-4.76999e-05
-9.81864e-06
-2.13722e-05
4.42025e-06
-2.29385e-07
1.33993e-05
1.57389e-05
1.79899e-05
2.68617e-05
1.90158e-05
3.36916e-05
1.73752e-05
3.68543e-05
1.3916e-05
3.70461e-05
9.56545e-06
3.4644e-05
5.13267e-06
2.97236e-05
1.6254e-06
2.15558e-05
9.17855e-06
1.12498e-07
-6.97046e-06
-1.03877e-06
-9.87388e-06
-4.02948e-06
-6.82912e-06
-9.29298e-06
3.46408e-07
-1.72855e-05
1.01169e-05
-2.85751e-05
2.2379e-05
-4.38162e-05
3.68507e-05
-6.36672e-05
5.38079e-05
-8.86981e-05
7.32145e-05
-0.000119177
9.50017e-05
-0.000154886
0.000118496
-0.000194961
0.000142586
-0.000237969
0.000165656
-0.000282173
0.000186068
-0.00032589
0.000202426
-0.000367718
0.000213858
-0.000406619
0.000219971
-0.000441881
0.000220793
-0.000473084
0.000216633
-0.000500057
0.000208012
-0.000522854
0.000195554
-0.000541704
0.00017993
-0.000556964
0.000161778
-0.00056907
0.000141674
-0.00057848
0.000120086
-0.000585644
9.73838e-05
-0.000590969
7.38287e-05
-0.000594804
4.95978e-05
-0.000597431
2.47912e-05
-0.000599047
-5.38282e-07
-0.000599764
-2.63748e-05
-0.000599584
-5.27075e-05
-0.00059838
-7.95154e-05
-0.000595868
-0.000106726
-0.000591574
-0.000134186
-0.000584802
-0.0001616
-0.000574626
-0.000188478
-0.000559913
-0.000214062
-0.000539409
-0.000237281
-0.000511897
-0.000256716
-0.00047644
-0.000270661
-0.000432705
-0.000277256
-0.000381281
-0.000274772
-0.000323927
-0.000262012
-0.000263592
-0.000238776
-0.000204079
-0.00020627
-0.000149307
-0.000167227
-0.000102365
-0.000125535
-6.47588e-05
-8.5312e-05
-3.63639e-05
-4.97788e-05
-1.60076e-05
-2.05933e-05
-2.26534e-06
1.98325e-06
6.16507e-06
1.84256e-05
1.03495e-05
2.94935e-05
1.12837e-05
3.59184e-05
9.87663e-06
3.84386e-05
7.10725e-06
3.74171e-05
3.87904e-06
3.29341e-05
1.21017e-06
2.42348e-05
1.03772e-05
-6.73618e-07
-6.30541e-06
-3.58695e-06
-6.94502e-06
-8.99449e-06
-1.4358e-06
-1.71859e-05
8.55005e-06
-2.87003e-05
2.16224e-05
-4.41778e-05
3.78661e-05
-6.43432e-05
5.70119e-05
-8.97739e-05
7.9247e-05
-0.000120791
0.000104231
-0.000157164
0.000131383
-0.000198027
0.000159361
-0.000241868
0.000186435
-0.000286854
0.000210647
-0.000331155
0.000230378
-0.000373235
0.000244512
-0.000411919
0.000252552
-0.000446412
0.000254472
-0.000476258
0.000250649
-0.000501333
0.000241717
-0.000521793
0.000228482
-0.000538023
0.000211792
-0.000550549
0.000192465
-0.000559971
0.000171208
-0.00056689
0.000148599
-0.00057187
0.000125068
-0.000575404
0.000100918
-0.000577909
7.63306e-05
-0.000579727
5.14084e-05
-0.000581126
2.61806e-05
-0.000582315
6.37239e-07
-0.00058344
-2.52669e-05
-0.000584579
-5.15867e-05
-0.00058573
-7.83845e-05
-0.000586776
-0.000105702
-0.00058744
-0.000133544
-0.000587227
-0.000161835
-0.000585361
-0.000190365
-0.000580734
-0.000218709
-0.000571897
-0.000246138
-0.000557119
-0.000271515
-0.000534568
-0.000293233
-0.00050262
-0.000309222
-0.000460309
-0.0003171
-0.000407829
-0.000314504
-0.000346977
-0.000299634
-0.000281303
-0.000271946
-0.000215731
-0.000232796
-0.00015553
-0.000185731
-0.000104844
-0.00013599
-6.55289e-05
-8.90889e-05
-3.70644e-05
-4.90483e-05
-1.7607e-05
-1.74699e-05
-5.10286e-06
5.93217e-06
2.12922e-06
2.22638e-05
5.44444e-06
3.26145e-05
5.9444e-06
3.79376e-05
4.69026e-06
3.8684e-05
2.65194e-06
3.49666e-05
8.14859e-07
2.60869e-05
1.11898e-05
-1.71145e-06
-4.60823e-06
-6.75413e-06
-1.87547e-06
-1.49457e-05
6.73138e-06
-2.64113e-05
2.00336e-05
-4.17814e-05
3.69758e-05
-6.17168e-05
5.78116e-05
-8.69075e-05
8.21904e-05
-0.000117677
0.000110021
-0.000153905
0.000140449
-0.000194732
0.000172211
-0.000238677
0.000203297
-0.0002838
0.000231556
-0.000328147
0.000254986
-0.000369994
0.00027222
-0.000408023
0.000282532
-0.000441321
0.000285844
-0.000469412
0.000282555
-0.000492221
0.000273451
-0.000510032
0.000259522
-0.000523393
0.000241839
-0.000533009
0.000221404
-0.000539631
0.000199085
-0.000543982
0.000175558
-0.000546698
0.000151317
-0.000548307
0.000126682
-0.000549227
0.000101845
-0.000549777
7.68901e-05
-0.0005502
5.18431e-05
-0.000550682
2.66772e-05
-0.000551374
1.34681e-06
-0.000552405
-2.42166e-05
-0.000553885
-5.00855e-05
-0.000555901
-7.63458e-05
-0.000558496
-0.000103082
-0.000561633
-0.000130383
-0.000565132
-0.00015831
-0.000568591
-0.000186881
-0.000571283
-0.000215993
-0.000572054
-0.000245345
-0.000569255
-0.000274294
-0.000560753
-0.000301719
-0.000544096
-0.000325867
-0.000516877
-0.000344312
-0.000477314
-0.000354065
-0.000424989
-0.00035196
-0.000361568
-0.000335369
-0.000291172
-0.000303193
-0.000220007
-0.000256898
-0.000154948
-0.00020105
-0.000101368
-0.000142674
-6.1359e-05
-8.90603e-05
-3.37959e-05
-4.50412e-05
-1.59805e-05
-1.18857e-05
-5.26153e-06
1.1536e-05
4.53681e-07
2.68991e-05
2.71194e-06
3.56698e-05
2.78464e-06
3.8614e-05
1.74144e-06
3.59987e-05
5.52105e-07
2.72818e-05
1.17349e-05
-2.98771e-06
-1.64037e-06
-1.0457e-05
5.63491e-06
-2.16873e-05
1.79282e-05
-3.66259e-05
3.5001e-05
-5.59815e-05
5.63125e-05
-8.03494e-05
8.21989e-05
-0.000110249
0.000112081
-0.000145586
0.000145371
-0.000185685
0.000180545
-0.000229076
0.000215613
-0.000273839
0.000248059
-0.000317854
0.000275579
-0.000359244
0.000296377
-0.000396496
0.000309479
-0.000428598
0.000314636
-0.00045502
0.000312273
-0.000475751
0.00030329
-0.000491192
0.000288899
-0.000502064
0.000270399
-0.000509237
0.000249017
-0.000513611
0.00022578
-0.000516002
0.00020148
-0.000517098
0.000176654
-0.000517425
0.000151642
-0.000517362
0.000126615
-0.000517164
0.000101641
-0.000516999
7.67151e-05
-0.00051697
5.18035e-05
-0.000517157
2.68501e-05
-0.000517628
1.80231e-06
-0.000518463
-2.33994e-05
-0.000519759
-4.88085e-05
-0.000521634
-7.44909e-05
-0.000524218
-0.000100518
-0.000527638
-0.000126983
-0.000531973
-0.000153994
-0.000537195
-0.000181676
-0.000543072
-0.000210131
-0.000549034
-0.000239395
-0.000554018
-0.00026932
-0.000556325
-0.000299418
-0.00055355
-0.000328646
-0.000542693
-0.000355173
-0.000520532
-0.00037623
-0.000484341
-0.000388155
-0.000432896
-0.000386819
-0.000367562
-0.000368529
-0.000293011
-0.000331451
-0.000216896
-0.00027716
-0.000147954
-0.000211612
-9.28046e-05
-0.000144202
-5.34817e-05
-8.43617e-05
-2.78731e-05
-3.74877e-05
-1.2371e-05
-3.96565e-06
-3.75975e-06
1.82949e-05
3.06181e-07
3.16027e-05
1.54754e-06
3.73807e-05
1.24889e-06
3.62936e-05
4.52698e-07
2.80873e-05
1.21865e-05
-4.47519e-06
2.8059e-06
-1.45829e-05
1.57954e-05
-2.89852e-05
3.2282e-05
-4.74373e-05
5.34867e-05
-7.06827e-05
7.95278e-05
-9.91408e-05
0.000110675
-0.000133031
0.000145951
-0.000171736
0.000184085
-0.000214031
0.000222826
-0.000257968
0.000259553
-0.000301408
0.000291488
-0.000342254
0.000316425
-0.000378845
0.00033296
-0.000409997
0.000340629
-0.000435139
0.000339773
-0.000454265
0.000331398
-0.000467896
0.000316916
-0.000476886
0.000297889
-0.000482275
0.000275784
-0.000485084
0.000251826
-0.000486224
0.00022692
-0.00048641
0.000201667
-0.000486159
0.000176404
-0.000485799
0.000151286
-0.000485518
0.000126337
-0.000485394
0.000101524
-0.000485449
7.67781e-05
-0.000485674
5.20384e-05
-0.000486059
2.7246e-05
-0.000486608
2.36415e-06
-0.000487356
-2.26387e-05
-0.000488369
-4.77803e-05
-0.000489759
-7.30867e-05
-0.000491673
-9.85886e-05
-0.000494296
-0.000124345
-0.000497832
-0.000150444
-0.000502474
-0.00017702
-0.000508346
-0.000204248
-0.000515401
-0.000232329
-0.000523272
-0.000261438
-0.000531072
-0.000291608
-0.00053717
-0.000322539
-0.000539023
-0.000353312
-0.000533187
-0.000382059
-0.000515672
-0.000405666
-0.000482754
-0.000419737
-0.000432282
-0.000419004
-0.000365229
-0.000398511
-0.000286866
-0.000355527
-0.000206553
-0.00029193
-0.000135102
-0.000215653
-8.01923e-05
-0.000139274
-4.31595e-05
-7.45209e-05
-2.05354e-05
-2.65953e-05
-7.82717e-06
5.58668e-06
-1.51054e-06
2.52798e-05
9.1835e-07
3.4954e-05
1.17079e-06
3.60334e-05
5.20566e-07
2.87419e-05
1.27022e-05
-6.08859e-06
8.86128e-06
-1.88994e-05
2.86766e-05
-3.64304e-05
4.9756e-05
-5.82279e-05
7.53317e-05
-8.50062e-05
0.000106275
-0.000116902
0.000142601
-0.000153744
0.000182777
-0.000194377
0.000224738
-0.000237122
0.000265563
-0.00027974
0.000302183
-0.000320075
0.00033182
-0.000356216
0.000352575
-0.000386853
0.000363596
-0.000411266
0.000365049
-0.000429449
0.000357957
-0.000441954
0.000343909
-0.000449774
0.000324737
-0.000454066
0.000302184
-0.000455985
0.000277704
-0.000456511
0.000252354
-0.0004564
0.000226807
-0.000456149
0.000201414
-0.000456046
0.000176298
-0.000456208
0.000151444
-0.000456645
0.000126767
-0.000457299
0.000102171
-0.000458092
7.75626e-05
-0.000458944
5.2881e-05
-0.000459796
2.80864e-05
-0.000460614
3.17086e-06
-0.000461404
-2.1862e-05
-0.000462207
-4.69909e-05
-0.000463109
-7.21993e-05
-0.000464238
-9.74726e-05
-0.000465776
-0.000122822
-0.000467945
-0.000148288
-0.000471014
-0.000173964
-0.000475267
-0.000200006
-0.000480961
-0.000226646
-0.000488222
-0.000254186
-0.000496891
-0.000282946
-0.000506283
-0.000313153
-0.000514892
-0.000344706
-0.000520119
-0.000376832
-0.000518172
-0.00040761
-0.000504353
-0.000433554
-0.000473961
-0.000449393
-0.000423905
-0.000448569
-0.000354804
-0.000424631
-0.000272753
-0.000373984
-0.00018919
-0.000299213
-0.000117165
-0.000211296
-6.47759e-05
-0.000126902
-3.17373e-05
-5.96332e-05
-1.29455e-05
-1.32015e-05
-3.39731e-06
1.57303e-05
5.56952e-07
3.10051e-05
1.34716e-06
3.52394e-05
7.00294e-07
2.93965e-05
1.34008e-05
-7.74312e-06
1.65607e-05
-2.31875e-05
4.4201e-05
-4.36499e-05
7.01445e-05
-6.8443e-05
0.000100175
-9.81752e-05
0.000135964
-0.000132623
0.000177076
-0.000171196
0.000221324
-0.000212267
0.000265822
-0.000253852
0.000307131
-0.000293615
0.000341951
-0.000329557
0.00036775
-0.000360092
0.000383113
-0.000384387
0.000387883
-0.000402287
0.000382951
-0.000414369
0.000370033
-0.000421657
0.000351199
-0.000425442
0.000328517
-0.000426968
0.000303712
-0.000427316
0.000278049
-0.000427265
0.000252305
-0.000427326
0.000226867
-0.000427743
0.000201835
-0.000428593
0.000177148
-0.000429819
0.000152674
-0.000431314
0.000128266
-0.000432942
0.000103805
-0.000434579
7.9206e-05
-0.000436118
5.44283e-05
-0.000437485
2.94625e-05
-0.000438637
4.33247e-06
-0.000439565
-2.09239e-05
-0.000440294
-4.62515e-05
-0.000440884
-7.15983e-05
-0.000441434
-9.6912e-05
-0.000442084
-0.000122161
-0.000443025
-0.000147337
-0.000444503
-0.000172477
-0.000446822
-0.000197679
-0.000450336
-0.000223125
-0.000455411
-0.000249106
-0.000462331
-0.000276022
-0.000471128
-0.000304353
-0.000481311
-0.00033452
-0.000491497
-0.000366645
-0.00049904
-0.000400064
-0.000499819
-0.000432772
-0.000488467
-0.000460741
-0.000459357
-0.000477677
-0.000408567
-0.000475422
-0.000336604
-0.000445954
-0.000250866
-0.000384958
-0.000165422
-0.000296743
-9.54445e-05
-0.000196878
-4.81695e-05
-0.000106907
-2.05864e-05
-4.07855e-05
-6.25502e-06
1.39481e-06
-3.25999e-08
2.47842e-05
1.54332e-06
3.3657e-05
9.18756e-07
3.00262e-05
1.43153e-05
-9.30177e-06
2.58168e-05
-2.7137e-05
6.21336e-05
-5.01573e-05
9.30853e-05
-7.74141e-05
0.000127497
-0.000109342
0.00016785
-0.000145323
0.000213096
-0.000184381
0.000260359
-0.00022453
0.000305994
-0.000263652
0.000346241
-0.000299482
0.000377797
-0.000330324
0.000398586
-0.000355029
0.000407829
-0.000373327
0.000406178
-0.000385632
0.000395265
-0.000393011
0.000377411
-0.00039678
0.000354974
-0.000398317
0.000330053
-0.000398765
0.000304163
-0.000398985
0.000278267
-0.000399487
0.000252809
-0.000400523
0.000227899
-0.000402119
0.00020343
-0.000404191
0.000179217
-0.00040658
0.000155061
-0.00040912
0.000130801
-0.000411648
0.000106328
-0.000414032
8.15839e-05
-0.00041617
5.65588e-05
-0.000417992
3.12761e-05
-0.000419457
5.7899e-06
-0.000420558
-1.98326e-05
-0.000421309
-4.55095e-05
-0.000421755
-7.11618e-05
-0.000421966
-9.671e-05
-0.000422044
-0.000122092
-0.000422128
-0.000147262
-0.000422404
-0.000172209
-0.000423119
-0.000196971
-0.000424595
-0.000221655
-0.000427233
-0.000246474
-0.00043149
-0.000271769
-0.000437793
-0.000298054
-0.000446359
-0.000325957
-0.00045687
-0.000356137
-0.000468033
-0.000388901
-0.000477094
-0.000423711
-0.000479536
-0.000458296
-0.000469285
-0.000487923
-0.000439855
-0.000504848
-0.000386714
-0.000499094
-0.000310782
-0.000460897
-0.000221561
-0.000385968
-0.00013643
-0.000282011
-7.18906e-05
-0.000171436
-3.21796e-05
-8.04932e-05
-1.10514e-05
-1.97343e-05
-1.41285e-06
1.51479e-05
1.48364e-06
3.07571e-05
1.08617e-06
3.04298e-05
1.53995e-05
-1.06628e-05
3.64241e-05
-3.05242e-05
8.20974e-05
-5.56108e-05
0.000118077
-8.46859e-05
0.000156638
-0.000117961
0.00020107
-0.000154438
0.000249608
-0.000192833
0.000298719
-0.000230941
0.000344121
-0.000266672
0.00038195
-0.000297971
0.000409106
-0.000323551
0.000424152
-0.000342773
0.000427055
-0.000355928
0.000419324
-0.000363917
0.000403257
-0.000368119
0.000381606
-0.000369944
0.000356801
-0.00037067
0.000330774
-0.000371211
0.000304705
-0.000372152
0.000279204
-0.000373735
0.000254394
-0.000375997
0.00023016
-0.000378812
0.000206248
-0.000382006
0.000182412
-0.000385376
0.000158435
-0.000388746
0.000134174
-0.00039196
0.000109547
-0.000394903
8.45318e-05
-0.000397487
5.91488e-05
-0.000399657
3.34521e-05
-0.00040138
7.52085e-06
-0.000402652
-1.85535e-05
-0.000403485
-4.46685e-05
-0.000403915
-7.07247e-05
-0.000403993
-9.66239e-05
-0.000403795
-0.000122283
-0.000403417
-0.000147633
-0.000402989
-0.000172632
-0.000402681
-0.000197273
-0.00040273
-0.000221601
-0.000403458
-0.000245743
-0.000405293
-0.000269931
-0.000408765
-0.000294581
-0.000414429
-0.000320292
-0.000422667
-0.000347898
-0.000433319
-0.000378249
-0.000445118
-0.000411913
-0.000455102
-0.000448312
-0.000458209
-0.000484814
-0.000447569
-0.000515484
-0.000415889
-0.000530769
-0.000358448
-0.000518341
-0.000277425
-0.000467
-0.000185656
-0.000373787
-0.000104304
-0.000252791
-4.89712e-05
-0.000135814
-1.85434e-05
-5.01637e-05
-4.05633e-06
6.58492e-07
9.49823e-07
2.57485e-05
1.1362e-06
3.02455e-05
1.65334e-05
-1.16953e-05
4.8065e-05
-3.30848e-05
0.000103603
-5.96365e-05
0.000144533
-8.98049e-05
0.000186884
-0.000123555
0.000234769
-0.000159564
0.000285663
-0.000196338
0.000335466
-0.000231602
0.000379413
-0.000263417
0.000413749
-0.000290048
0.000435756
-0.000310673
0.00044477
-0.000325168
0.000441564
-0.000334314
0.000428466
-0.000339339
0.000408291
-0.00034175
0.000384014
-0.000342872
0.00035793
-0.000343768
0.000331668
-0.00034507
0.000306011
-0.000347097
0.000281229
-0.000349874
0.000257174
-0.000353292
0.000233575
-0.000357143
0.000210099
-0.000361221
0.000186486
-0.000365322
0.000162535
-0.000369289
0.000138136
-0.000372986
0.000113242
-0.000376323
8.78633e-05
-0.000379226
6.20477e-05
-0.000381655
3.58746e-05
-0.000383582
9.44322e-06
-0.000385007
-1.71351e-05
-0.00038594
-4.37415e-05
-0.000386412
-7.02592e-05
-0.000386465
-9.65762e-05
-0.000386161
-0.000122594
-0.000385569
-0.000148229
-0.000384784
-0.000173422
-0.00038392
-0.000198142
-0.000383133
-0.000222391
-0.000382643
-0.000246236
-0.000382767
-0.000269808
-0.000383952
-0.000293398
-0.000386789
-0.000317455
-0.000391945
-0.000342745
-0.000399951
-0.000370243
-0.000410749
-0.000401116
-0.000423022
-0.000436039
-0.000433421
-0.000474414
-0.000436161
-0.000512743
-0.000423415
-0.000543507
-0.00038726
-0.000554492
-0.000323422
-0.000530838
-0.000236713
-0.000460509
-0.000144848
-0.00034466
-7.21646e-05
-0.000208494
-2.9217e-05
-9.30936e-05
-8.29349e-06
-2.02766e-05
-1.87392e-07
1.76473e-05
1.03401e-06
2.90222e-05
1.75683e-05
-1.23353e-05
6.03379e-05
-3.4694e-05
0.000126077
-6.20723e-05
0.000171805
-9.2607e-05
0.000217493
-0.000126018
0.000268118
-0.000160738
0.000320423
-0.000195175
0.000369865
-0.000227102
0.000411361
-0.000254833
0.000441455
-0.000277012
0.000457946
-0.000293293
0.000461034
-0.000304008
0.000452286
-0.000310297
0.000434743
-0.000313547
0.000411545
-0.000315226
0.000385684
-0.000316462
0.000359167
-0.00031805
0.000333249
-0.000320353
0.000308316
-0.000323477
0.000284348
-0.000327297
0.000260996
-0.000331629
0.000237904
-0.000336236
0.000214709
-0.000340922
0.000191172
-0.000345507
0.000167123
-0.000349861
0.000142492
-0.000353875
0.00011726
-0.000357477
9.14681e-05
-0.000360608
6.51828e-05
-0.000363233
3.85038e-05
-0.00036533
1.15457e-05
-0.000366898
-1.55629e-05
-0.000367945
-4.26888e-05
-0.000368499
-6.96996e-05
-0.000368599
-9.6471e-05
-0.000368298
-0.000122891
-0.000367654
-0.000148868
-0.000366742
-0.00017433
-0.000365643
-0.000199238
-0.000364461
-0.00022357
-0.000363333
-0.000247363
-0.000362461
-0.000270677
-0.000362157
-0.000293703
-0.000362888
-0.000316723
-0.000365305
-0.000340329
-0.000370186
-0.000365361
-0.000378179
-0.000393126
-0.000389267
-0.000424951
-0.000401915
-0.000461769
-0.000412184
-0.000502474
-0.00041328
-0.000542407
-0.000396369
-0.0005714
-0.000353187
-0.00057401
-0.000281105
-0.000532611
-0.000189429
-0.000436331
-0.000102344
-0.00029561
-4.37273e-05
-0.000151667
-1.42374e-05
-4.97854e-05
-2.02337e-06
5.44086e-06
7.89535e-07
2.62018e-05
1.83602e-05
-1.25084e-05
7.27886e-05
-3.52191e-05
0.000148911
-6.27637e-05
0.000199248
-9.29644e-05
0.000247777
-0.000125315
0.000300414
-0.0001581
0.000353257
-0.000189724
0.000401458
-0.000218111
0.000439778
-0.000241883
0.000465211
-0.000260083
0.000476168
-0.000272795
0.000473737
-0.000280706
0.000460214
-0.000285167
0.0004392
-0.00028757
0.00041396
-0.000289231
0.000387343
-0.000291027
0.000360971
-0.000293495
0.000335716
-0.000296777
0.000311604
-0.000300829
0.000288399
-0.000305447
0.000265619
-0.000310421
0.000242877
-0.000315527
0.000219817
-0.000320597
0.00019624
-0.000325481
0.000172007
-0.000330078
0.000147086
-0.000334301
0.000121481
-0.000338089
9.52529e-05
-0.000341391
6.84825e-05
-0.000344177
4.12851e-05
-0.000346422
1.37877e-05
-0.000348125
-1.38651e-05
-0.00034929
-4.15271e-05
-0.000349944
-6.90499e-05
-0.000350122
-9.62975e-05
-0.000349872
-0.000123144
-0.000349252
-0.000149492
-0.000348326
-0.000175258
-0.000347165
-0.000200403
-0.000345844
-0.000224892
-0.000344452
-0.000248757
-0.000343111
-0.000272019
-0.000342005
-0.000294811
-0.000341441
-0.000317285
-0.000341914
-0.000339858
-0.000344153
-0.000363121
-0.000349041
-0.000388239
-0.000357326
-0.000416666
-0.000368901
-0.000450195
-0.00038181
-0.000489565
-0.00039117
-0.000533045
-0.000388949
-0.000573618
-0.000365295
-0.00059765
-0.000312444
-0.000585465
-0.000231159
-0.000517623
-0.000137944
-0.000388847
-6.30298e-05
-0.000226569
-2.1943e-05
-9.08533e-05
-4.67476e-06
-1.18368e-05
4.21385e-07
2.11017e-05
1.87851e-05
-1.22175e-05
8.4943e-05
-3.46742e-05
0.000171484
-6.17648e-05
0.000226231
-9.10139e-05
0.000277102
-0.000121721
0.000331058
-0.000152111
0.000383687
-0.000180668
0.000429975
-0.000205537
0.000464669
-0.000225669
0.000485316
-0.000240481
0.000490993
-0.000250411
0.000483648
-0.000256383
0.000466192
-0.000259815
0.000442618
-0.000261995
0.000416143
-0.000264027
0.000389363
-0.000266536
0.000363481
-0.000269839
0.00033901
-0.00027392
0.000315686
-0.00027865
0.000293122
-0.000283795
0.000270765
-0.000289157
0.000248235
-0.000294541
0.000225202
-0.000299813
0.00020151
-0.000304855
0.00017705
-0.000309588
0.00015182
-0.000313939
0.000125835
-0.000317857
9.91719e-05
-0.000321292
7.19206e-05
-0.000324213
4.42089e-05
-0.000326596
1.61745e-05
-0.000328435