/*--------------------------------*- C++ -*----------------------------------*\
| =========                 |                                                 |
| \\      /  F ield         | OpenFOAM: The Open Source CFD Toolbox           |
|  \\    /   O peration     | Version:  2406                                  |
|   \\  /    A nd           | Website:  www.openfoam.com                      |
|    \\/     M anipulation  |                                                 |
\*---------------------------------------------------------------------------*/
FoamFile
{
    version     2.0;
    format      ascii;
    arch        "LSB;label=32;scalar=64";
    class       volScalarField;
    location    "19.4";
    object      p;
}
// * * * * * * * * * * * * * * * * * * * * * * * * * * * * * * * * * * * * * //

dimensions      [0 2 -2 0 0 0 0];

internalField   nonuniform List<scalar> 
3600
(
-3.01436e-08
-2.98616e-06
-1.3392e-05
-3.25768e-05
-5.89704e-05
-9.16516e-05
-0.000130021
-0.000173742
-0.000222252
-0.000275107
-0.000331688
-0.000391257
-0.000452998
-0.000516048
-0.000579521
-0.000642499
-0.000703989
-0.000762863
-0.000817779
-0.000867121
-0.000908978
-0.000941174
-0.000961375
-0.000967284
-0.000956913
-0.000928944
-0.000883146
-0.000820643
-0.000744452
-0.000659856
-0.000574425
-0.000497394
-0.000439423
-0.000411608
-0.00042429
-0.000485743
-0.000600908
-0.00077046
-0.000990389
-0.00125225
-0.00154411
-0.00185194
-0.00216136
-0.00245924
-0.00273525
-0.00298151
-0.00319424
-0.00337257
-0.00351788
-0.0036332
-0.00372244
-0.00378975
-0.00383911
-0.00387395
-0.00389704
-0.00391037
-0.00391536
-0.00391327
-0.00390578
-0.00389832
2.84386e-06
-3.20904e-07
-1.03514e-05
-2.89903e-05
-5.46892e-05
-8.66497e-05
-0.000124396
-0.000167378
-0.000215241
-0.000267366
-0.000323076
-0.000381594
-0.000442094
-0.000503733
-0.000565677
-0.000627089
-0.000687088
-0.00074468
-0.000798678
-0.000847631
-0.000889796
-0.000923149
-0.000945478
-0.000954548
-0.000948347
-0.000925411
-0.00088521
-0.000828699
-0.000758715
-0.000680116
-0.000599725
-0.00052686
-0.000472154
-0.000446804
-0.000461346
-0.000524275
-0.000640702
-0.000811352
-0.00103209
-0.0012942
-0.00158533
-0.00189108
-0.00219684
-0.00248951
-0.00275865
-0.00299743
-0.00320283
-0.00337429
-0.00351374
-0.00362449
-0.00371052
-0.00377587
-0.00382433
-0.00385916
-0.00388296
-0.00389764
-0.00390452
-0.00390456
-0.003898
-0.00389061
1.3634e-05
9.15625e-06
-1.59736e-06
-2.02067e-05
-4.54666e-05
-7.68668e-05
-0.000114017
-0.000156502
-0.000203855
-0.000255445
-0.000310521
-0.000368258
-0.000427811
-0.000488371
-0.000549193
-0.000609588
-0.000668874
-0.000726291
-0.000780901
-0.000831498
-0.000876545
-0.000914165
-0.000942195
-0.000958321
-0.000960315
-0.000946354
-0.000915431
-0.000867945
-0.00080623
-0.000734629
-0.000659721
-0.000590562
-0.000537839
-0.000513027
-0.000527103
-0.000589095
-0.000704643
-0.000874862
-0.00109577
-0.00135846
-0.00165011
-0.00195565
-0.00225973
-0.00254865
-0.0028118
-0.00304292
-0.00323948
-0.00340141
-0.00353157
-0.00363401
-0.00371314
-0.00377321
-0.00381799
-0.00385063
-0.00387357
-0.00388854
-0.00389668
-0.0038984
-0.00389202
-0.003884
3.41609e-05
2.76576e-05
1.51874e-05
-4.10522e-06
-2.95966e-05
-6.10342e-05
-9.82385e-05
-0.000140912
-0.000188601
-0.000240654
-0.000296274
-0.000354598
-0.000414792
-0.000476125
-0.000538016
-0.00060003
-0.000661808
-0.000722954
-0.000782893
-0.000840728
-0.000895127
-0.000944259
-0.00098581
-0.00101709
-0.00103529
-0.0010378
-0.00102272
-0.000989481
-0.000939521
-0.00087642
-0.000806197
-0.000737574
-0.000681355
-0.000649472
-0.000653753
-0.000704426
-0.000808521
-0.000968538
-0.00118162
-0.00143949
-0.00172932
-0.00203532
-0.00234097
-0.00263118
-0.00289423
-0.00312279
-0.00331322
-0.00346699
-0.00358749
-0.00367963
-0.00374877
-0.0037999
-0.00383723
-0.00386411
-0.00388298
-0.00389546
-0.00390236
-0.00390349
-0.00389554
-0.00388592
6.27568e-05
5.36866e-05
3.87144e-05
1.83265e-05
-7.75512e-06
-3.96429e-05
-7.73948e-05
-0.000120875
-0.000169682
-0.000223166
-0.000280522
-0.000340912
-0.000403596
-0.000468051
-0.000534033
-0.000601574
-0.000670888
-0.000742206
-0.000815565
-0.000890584
-0.000966259
-0.00104082
-0.00111166
-0.00117543
-0.00122825
-0.00126614
-0.00128553
-0.00128399
-0.00126102
-0.00121845
-0.00116045
-0.00109479
-0.00103171
-0.000983386
-0.000962718
-0.000981876
-0.00105055
-0.00117433
-0.0013535
-0.00158245
-0.00185007
-0.00214114
-0.00243837
-0.00272497
-0.00298689
-0.00321445
-0.00340285
-0.00355209
-0.00366568
-0.00374904
-0.00380841
-0.00384971
-0.00387797
-0.00389708
-0.0039098
-0.00391778
-0.00392171
-0.00392102
-0.00391127
-0.00390033
9.75849e-05
8.57385e-05
6.78342e-05
4.61245e-05
1.91983e-05
-1.35013e-05
-5.23076e-05
-9.72647e-05
-0.000148069
-0.000204135
-0.000264739
-0.000329203
-0.000397085
-0.000468341
-0.00054342
-0.000623246
-0.00070909
-0.00080232
-0.000904078
-0.00101491
-0.00113442
-0.00126091
-0.00139127
-0.0015209
-0.00164393
-0.00175369
-0.00184347
-0.00190726
-0.0019405
-0.00194152
-0.00191248
-0.00185755
-0.00178553
-0.00170849
-0.0016404
-0.00159597
-0.00158895
-0.00163024
-0.00172612
-0.00187699
-0.00207687
-0.00231392
-0.00257213
-0.00283375
-0.00308199
-0.00330348
-0.00348981
-0.00363784
-0.00374901
-0.00382803
-0.00388116
-0.00391493
-0.00393521
-0.0039467
-0.00395275
-0.00395541
-0.0039555
-0.00395237
-0.0039411
-0.00392944
0.000136489
0.000121686
0.0001007
7.7625e-05
4.97086e-05
1.58889e-05
-2.44775e-05
-7.16495e-05
-0.000125493
-0.000185601
-0.00025152
-0.000323011
-0.000400325
-0.00048443
-0.00057713
-0.000681029
-0.000799321
-0.000935399
-0.00109231
-0.00127211
-0.00147519
-0.00169966
-0.00194098
-0.00219179
-0.00244226
-0.00268081
-0.00289527
-0.00307397
-0.00320661
-0.00328619
-0.00331049
-0.00327984
-0.00320084
-0.00308399
-0.00294356
-0.00279665
-0.00266167
-0.00255647
-0.00249623
-0.0024914
-0.00254603
-0.00265688
-0.00281373
-0.00300097
-0.00320028
-0.00339388
-0.00356732
-0.00371139
-0.00382252
-0.00390193
-0.00395412
-0.00398513
-0.00400111
-0.00400746
-0.00400831
-0.00400637
-0.00400291
-0.0039975
-0.00398532
-0.00397359
0.000176587
0.000158796
0.000134723
0.000110361
8.13929e-05
4.61833e-05
3.73034e-06
-4.65111e-05
-0.00010471
-0.00017086
-0.000245128
-0.000328235
-0.000421843
-0.000528865
-0.000653601
-0.000801636
-0.000979437
-0.00119364
-0.00145006
-0.00175249
-0.00210145
-0.00249326
-0.00291949
-0.00336713
-0.00381941
-0.00425715
-0.00466056
-0.00501095
-0.00529177
-0.0054894
-0.0055954
-0.0056093
-0.00553281
-0.00537338
-0.00514417
-0.00486293
-0.00455132
-0.00423343
-0.00393412
-0.00367663
-0.00347998
-0.00335636
-0.00330912
-0.00333205
-0.0034105
-0.00352433
-0.00365204
-0.00377492
-0.00387992
-0.00396053
-0.00401607
-0.00404976
-0.0040667
-0.00407232
-0.00407131
-0.00406712
-0.00406166
-0.00405501
-0.00404284
-0.00403171
0.000214275
0.000193572
0.000166507
0.000141002
0.000110953
7.40699e-05
2.89057e-05
-2.55113e-05
-8.99001e-05
-0.000165061
-0.000252399
-0.000354483
-0.000475588
-0.000622077
-0.000802492
-0.00102721
-0.00130759
-0.00165452
-0.00207654
-0.00257775
-0.00315606
-0.00380213
-0.00449943
-0.0052254
-0.00595333
-0.00665467
-0.00730146
-0.00786839
-0.00833378
-0.00867969
-0.00889369
-0.00897172
-0.00891355
-0.00872298
-0.00840954
-0.0079885
-0.00748067
-0.00691206
-0.00631335
-0.00571851
-0.00516249
-0.00467777
-0.0042901
-0.00401429
-0.00385117
-0.00378738
-0.00379858
-0.00385546
-0.00393052
-0.00400309
-0.00406136
-0.0041014
-0.00412455
-0.00413473
-0.00413649
-0.0041337
-0.00412894
-0.00412288
-0.00411192
-0.00410203
0.000245143
0.000221668
0.000191763
0.000165271
0.000134075
9.51273e-05
4.63803e-05
-1.38171e-05
-8.71656e-05
-0.000175955
-0.000283847
-0.000416681
-0.000583169
-0.000795275
-0.00106801
-0.00141846
-0.00186382
-0.00241866
-0.00309165
-0.00388277
-0.00478159
-0.00576723
-0.00681009
-0.00787473
-0.00892325
-0.00991853
-0.0108268
-0.0116194
-0.0122731
-0.0127703
-0.0130988
-0.0132522
-0.0132292
-0.0130307
-0.0126621
-0.0121333
-0.0114591
-0.0106605
-0.0097657
-0.00881036
-0.00783799
-0.00689781
-0.00604064
-0.00531221
-0.00474511
-0.00435161
-0.00412047
-0.00402023
-0.00400849
-0.00404346
-0.00409296
-0.00413791
-0.00417054
-0.00419025
-0.00419984
-0.00420291
-0.00420233
-0.00419928
-0.00419091
-0.00418285
0.000263883
0.000237819
0.000205235
0.000177853
0.00014531
0.000103647
4.9964e-05
-1.84947e-05
-0.000105114
-0.000214756
-0.000354904
-0.000536727
-0.000775843
-0.00109237
-0.00150987
-0.00205292
-0.00274321
-0.00359494
-0.00461048
-0.00577779
-0.00707039
-0.0084499
-0.00987044
-0.0112836
-0.012643
-0.0139074
-0.015043
-0.0160231
-0.0168284
-0.0174461
-0.0178686
-0.0180905
-0.0181096
-0.0179266
-0.0175439
-0.0169652
-0.0161969
-0.0152497
-0.0141402
-0.0128944
-0.0115496
-0.0101569
-0.00878074
-0.00749398
-0.00636921
-0.00546482
-0.00481071
-0.00439963
-0.00418982
-0.00411955
-0.0041268
-0.00416437
-0.00420501
-0.00423744
-0.00425954
-0.00427307
-0.00428051
-0.00428323
-0.00427891
-0.0042732
0.00026424
0.000235788
0.000200645
0.000172317
0.000137948
9.24483e-05
3.16659e-05
-4.89243e-05
-0.000155463
-0.000296988
-0.000486985
-0.000744616
-0.00109518
-0.00156912
-0.00219914
-0.00301513
-0.00403777
-0.00527235
-0.00670491
-0.00830213
-0.0100151
-0.0117856
-0.0135536
-0.015263
-0.0168659
-0.0183248
-0.019612
-0.0207087
-0.0216032
-0.0222899
-0.0227669
-0.0230331
-0.0230875
-0.0229315
-0.022566
-0.0219911
-0.0212066
-0.0202127
-0.0190123
-0.0176143
-0.0160374
-0.0143157
-0.012504
-0.0106799
-0.00894093
-0.00739276
-0.00612844
-0.00520316
-0.00461612
-0.0043115
-0.00420114
-0.00419678
-0.00423411
-0.0042785
-0.00431633
-0.00434449
-0.00436376
-0.00437509
-0.00437628
-0.00437343
0.000239013
0.000208362
0.000170676
0.000141074
0.000103942
5.2738e-05
-1.85274e-05
-0.000117127
-0.000253488
-0.000442989
-0.00070784
-0.00107808
-0.00159095
-0.00228765
-0.00320722
-0.00437814
-0.00580976
-0.0074867
-0.00936837
-0.0113941
-0.0134921
-0.0155893
-0.0176199
-0.0195299
-0.021279
-0.0228401
-0.0241965
-0.0253394
-0.0262654
-0.0269748
-0.0274702
-0.0277539
-0.0278277
-0.027694
-0.0273539
-0.0268069
-0.0260505
-0.0250799
-0.0238891
-0.0224727
-0.0208288
-0.0189656
-0.0169089
-0.0147113
-0.0124603
-0.0102779
-0.00830818
-0.00668751
-0.00550406
-0.00476503
-0.00439483
-0.00427046
-0.00427241
-0.00431987
-0.00437371
-0.00441965
-0.00445412
-0.00447676
-0.00448495
-0.00448553
0.000180121
0.000147417
0.000107022
7.5403e-05
3.39006e-05
-2.59222e-05
-0.000112718
-0.000237851
-0.000418047
-0.000677658
-0.00105051
-0.00157985
-0.00231526
-0.0033057
-0.00458909
-0.00618104
-0.00806663
-0.010199
-0.0125056
-0.0149004
-0.0172966
-0.0196181
-0.0218052
-0.0238157
-0.0256237
-0.0272152
-0.0285845
-0.029731
-0.0306569
-0.0313654
-0.0318603
-0.0321454
-0.0322243
-0.0321001
-0.0317748
-0.0312497
-0.0305236
-0.0295927
-0.0284496
-0.0270836
-0.0254815
-0.0236309
-0.0215272
-0.0191837
-0.016646
-0.0140065
-0.0114108
-0.00904528
-0.0070976
-0.00569464
-0.00484947
-0.00445696
-0.00434939
-0.00437379
-0.00443793
-0.00450286
-0.00455533
-0.00459179
-0.00460854
-0.00461327
7.8779e-05
4.40828e-05
5.47873e-07
-3.43923e-05
-8.27521e-05
-0.000155449
-0.000264885
-0.000428238
-0.000670921
-0.00102903
-0.00155038
-0.00229203
-0.00331311
-0.00466285
-0.00636624
-0.00841245
-0.0107513
-0.0132999
-0.0159577
-0.0186239
-0.021211
-0.0236531
-0.0259065
-0.0279465
-0.0297621
-0.0313508
-0.0327142
-0.0338554
-0.034778
-0.0354849
-0.0359786
-0.0362621
-0.0363387
-0.0362117
-0.0358845
-0.0353605
-0.0346419
-0.0337289
-0.0326184
-0.0313024
-0.0297675
-0.0279945
-0.0259614
-0.0236499
-0.0210587
-0.0182225
-0.0152353
-0.0122659
-0.00954774
-0.00732644
-0.00576913
-0.0048851
-0.00452359
-0.00446217
-0.00451851
-0.00459989
-0.00467231
-0.00472505
-0.00475218
-0.00476221
-7.42167e-05
-0.000110972
-0.00015842
-0.000198673
-0.000257422
-0.0003488
-0.000490293
-0.000706898
-0.00103523
-0.00152547
-0.00224034
-0.0032485
-0.00461185
-0.00636847
-0.00851685
-0.0110086
-0.013754
-0.0166392
-0.0195483
-0.0223813
-0.0250643
-0.0275509
-0.0298178
-0.0318567
-0.0336681
-0.0352557
-0.0366233
-0.0377735
-0.0387075
-0.0394255
-0.0399272
-0.0402134
-0.040286
-0.0401481
-0.0398042
-0.0392597
-0.0385204
-0.0375913
-0.0364754
-0.0351717
-0.0336732
-0.0319652
-0.0300239
-0.0278185
-0.0253172
-0.0225025
-0.0193968
-0.0160955
-0.0127937
-0.00977933
-0.00736152
-0.00574133
-0.00490289
-0.00462683
-0.00463031
-0.00471794
-0.00481074
-0.00488229
-0.00492223
-0.00493935
-0.000288056
-0.000327102
-0.000379632
-0.00042795
-0.000501741
-0.000619209
-0.000804438
-0.00109234
-0.00153292
-0.00219169
-0.00314489
-0.00446722
-0.0062131
-0.00839648
-0.0109781
-0.0138673
-0.0169402
-0.0200651
-0.0231269
-0.0260413
-0.028757
-0.0312504
-0.0335159
-0.035557
-0.0373798
-0.0389887
-0.0403853
-0.0415684
-0.0425346
-0.0432801
-0.0438013
-0.0440965
-0.044166
-0.0440126
-0.0436414
-0.0430596
-0.0422761
-0.0413003
-0.0401409
-0.0388043
-0.0372926
-0.0356004
-0.0337123
-0.0316005
-0.029225
-0.0265404
-0.0235128
-0.0201527
-0.0165606
-0.0129677
-0.00972792
-0.00721676
-0.00564949
-0.00494818
-0.00479886
-0.00486708
-0.00497656
-0.00506995
-0.00512593
-0.00515281
-0.000571353
-0.000613103
-0.000672293
-0.000732179
-0.000826718
-0.00097911
-0.00122158
-0.00160084
-0.0021817
-0.00304444
-0.00427479
-0.005945
-0.00809024
-0.0106891
-0.0136592
-0.0168717
-0.0201807
-0.0234535
-0.0265909
-0.0295331
-0.0322538
-0.034749
-0.0370255
-0.039092
-0.0409545
-0.0426139
-0.0440668
-0.0453062
-0.0463237
-0.047111
-0.0476615
-0.047971
-0.0480387
-0.047867
-0.0474617
-0.0468316
-0.0459879
-0.0449435
-0.0437118
-0.0423056
-0.040735
-0.039005
-0.0371119
-0.0350395
-0.0327552
-0.0302092
-0.027341
-0.0240999
-0.0204879
-0.0166206
-0.0127824
-0.00940989
-0.00693896
-0.00555786
-0.00507448
-0.00506293
-0.0051774
-0.00529466
-0.00537147
-0.00541163
-0.000931469
-0.000976512
-0.0010443
-0.00111989
-0.0012417
-0.00143883
-0.00175303
-0.00224415
-0.00299192
-0.00408889
-0.00562382
-0.00765658
-0.0101924
-0.0131682
-0.01646
-0.0199119
-0.023372
-0.0267216
-0.0298866
-0.0328341
-0.0355596
-0.0380729
-0.0403862
-0.042508
-0.0444399
-0.0461769
-0.0477088
-0.0490228
-0.0501054
-0.0509444
-0.0515304
-0.0518574
-0.0519236
-0.0517316
-0.0512878
-0.0506026
-0.0496892
-0.0485632
-0.0472416
-0.0457419
-0.0440805
-0.0422708
-0.0403204
-0.0382265
-0.0359712
-0.0335156
-0.0307979
-0.0277403
-0.0242761
-0.0204051
-0.0162765
-0.0122556
-0.00887797
-0.00661335
-0.00555184
-0.00533052
-0.00542626
-0.00556421
-0.00566795
-0.00572581
-0.00137377
-0.00142284
-0.0015014
-0.00159722
-0.00175324
-0.0020052
-0.00240539
-0.00302727
-0.00396422
-0.00531664
-0.00716859
-0.00955802
-0.0124531
-0.0157483
-0.0192867
-0.0228995
-0.0264437
-0.0298244
-0.0329959
-0.0359494
-0.0386961
-0.0412527
-0.0436316
-0.0458367
-0.0478628
-0.0496978
-0.0513249
-0.0527255
-0.0538817
-0.0547779
-0.0554025
-0.055748
-0.0558122
-0.0555976
-0.055112
-0.0543671
-0.0533782
-0.0521635
-0.050743
-0.0491374
-0.0473675
-0.0454526
-0.0434086
-0.0412448
-0.0389584
-0.0365279
-0.0339056
-0.0310141
-0.027756
-0.02405
-0.0199075
-0.0155424
-0.0114378
-0.00823279
-0.00636388
-0.00572307
-0.00574158
-0.00589026
-0.00602557
-0.00610702
-0.00190092
-0.0019548
-0.00204638
-0.00216702
-0.00236406
-0.00268036
-0.00317918
-0.0039471
-0.00508847
-0.00670604
-0.00887135
-0.0115932
-0.0148001
-0.0183492
-0.0220625
-0.0257722
-0.0293551
-0.0327445
-0.0359209
-0.0388942
-0.0416849
-0.0443108
-0.0467802
-0.0490902
-0.0512281
-0.0531745
-0.0549065
-0.0564007
-0.0576352
-0.0585916
-0.0592562
-0.0596203
-0.0596812
-0.0594419
-0.0589112
-0.0581027
-0.0570341
-0.0557263
-0.054202
-0.0524849
-0.0505989
-0.0485669
-0.0464103
-0.0441466
-0.0417855
-0.0393225
-0.03673
-0.0339473
-0.0308769
-0.0273989
-0.0234239
-0.0190013
-0.0144569
-0.0104317
-0.0076335
-0.00633963
-0.00614196
-0.00629235
-0.00645708
-0.00656839
-0.00251222
-0.00257167
-0.00267834
-0.00282808
-0.00307222
-0.00346084
-0.00406797
-0.00499186
-0.00634421
-0.00822428
-0.0106847
-0.0137011
-0.0171643
-0.0209029
-0.0247302
-0.0284907
-0.0320868
-0.0354792
-0.0386704
-0.0416823
-0.0445389
-0.0472554
-0.0498336
-0.0522629
-0.0545232
-0.0565885
-0.0584307
-0.0600221
-0.0613376
-0.062356
-0.0630614
-0.0634439
-0.0635004
-0.0632343
-0.0626555
-0.0617798
-0.0606277
-0.0592231
-0.0575918
-0.0557606
-0.0537559
-0.0516035
-0.0493276
-0.0469505
-0.04449
-0.0419552
-0.0393376
-0.0365994
-0.0336612
-0.0303993
-0.0266709
-0.0223952
-0.0177067
-0.0131093
-0.00941751
-0.00729223
-0.00666935
-0.00679436
-0.00697795
-0.00712548
-0.00320322
-0.00326883
-0.00339226
-0.00357464
-0.00387063
-0.00433724
-0.00505837
-0.00614173
-0.00770239
-0.00983095
-0.0125567
-0.0158221
-0.0194852
-0.0233564
-0.027251
-0.031033
-0.0346315
-0.0380314
-0.0412511
-0.0443194
-0.0472596
-0.0500814
-0.0527795
-0.0553357
-0.0577232
-0.0599105
-0.0618653
-0.0635559
-0.0649539
-0.0660356
-0.0667826
-0.0671837
-0.0672351
-0.0669405
-0.0663112
-0.0653653
-0.0641262
-0.0626213
-0.0608802
-0.058933
-0.0568093
-0.0545371
-0.0521423
-0.0496495
-0.0470808
-0.0444537
-0.0417746
-0.0390279
-0.0361599
-0.0330644
-0.0295858
-0.0255646
-0.0209662
-0.0160873
-0.0116767
-0.00865717
-0.00741476
-0.00740653
-0.00761111
-0.00779299
-0.00396557
-0.00403763
-0.00417885
-0.00439633
-0.00474715
-0.00529448
-0.00613067
-0.00737029
-0.00912798
-0.0114818
-0.0144361
-0.0179022
-0.0217133
-0.0256708
-0.0295999
-0.0333872
-0.0369867
-0.0404027
-0.0436642
-0.0468024
-0.0498374
-0.0527725
-0.055595
-0.0582801
-0.0607954
-0.063105
-0.0651724
-0.0669627
-0.0684441
-0.0695898
-0.0703792
-0.0707992
-0.0708453
-0.0705214
-0.0698403
-0.0688221
-0.0674937
-0.065886
-0.0640329
-0.0619686
-0.0597261
-0.0573359
-0.0548259
-0.0522214
-0.0495459
-0.046821
-0.0440626
-0.0412726
-0.0384227
-0.0354349
-0.0321674
-0.0284296
-0.0240681
-0.0191674
-0.0142946
-0.010461
-0.00847307
-0.00813559
-0.00838263
-0.00858777
-0.00478711
-0.00486553
-0.00502476
-0.00527846
-0.005685
-0.00631256
-0.00726017
-0.00864657
-0.0105828
-0.0131323
-0.0162748
-0.0198955
-0.0238099
-0.0278184
-0.0317608
-0.0355462
-0.0391499
-0.0425907
-0.0459038
-0.0491199
-0.0522545
-0.0553043
-0.0582503
-0.0610619
-0.0637023
-0.0661316
-0.0683099
-0.0701988
-0.071763
-0.0729727
-0.0738047
-0.074244
-0.074285
-0.073932
-0.0731988
-0.0721082
-0.0706898
-0.0689788
-0.0670133
-0.0648319
-0.0624716
-0.0599664
-0.0573459
-0.0546362
-0.051861
-0.0490427
-0.0462017
-0.0433514
-0.0404847
-0.0375532
-0.0344437
-0.0309687
-0.0269096
-0.0221794
-0.0171167
-0.0126534
-0.00987471
-0.009039
-0.0093125
-0.00952819
-0.00565245
-0.00573663
-0.00591317
-0.00620274
-0.00666369
-0.00736782
-0.00841884
-0.00993723
-0.0120284
-0.0147402
-0.0180308
-0.0217643
-0.0257457
-0.0297798
-0.0337228
-0.0375042
-0.0411164
-0.0445883
-0.0479581
-0.0512543
-0.0544872
-0.0576479
-0.0607118
-0.0636438
-0.0664033
-0.0689473
-0.0712323
-0.0732165
-0.0748613
-0.0761336
-0.0770074
-0.0774659
-0.0775024
-0.0771213
-0.0763376
-0.0751761
-0.0736698
-0.0718575
-0.0697817
-0.0674856
-0.0650106
-0.0623944
-0.0596692
-0.0568623
-0.0539969
-0.0510947
-0.0481772
-0.0452637
-0.0423624
-0.0394509
-0.036449
-0.033193
-0.0294448
-0.0250032
-0.0199814
-0.0151126
-0.0115974
-0.0101866
-0.0103913
-0.0106215
-0.00654366
-0.00663249
-0.00682467
-0.00714825
-0.00766022
-0.00843438
-0.00957714
-0.0112087
-0.0134277
-0.0162677
-0.0196683
-0.0234785
-0.0274986
-0.0315408
-0.0354773
-0.0392548
-0.0428787
-0.0463844
-0.0498108
-0.0531838
-0.0565089
-0.059772
-0.0629443
-0.0659871
-0.0688567
-0.0715072
-0.0738919
-0.0759657
-0.0776866
-0.0790182
-0.0799319
-0.0804089
-0.0804416
-0.0800342
-0.079203
-0.0779747
-0.0763851
-0.0744766
-0.0722959
-0.0698906
-0.0673067
-0.0645858
-0.0617632
-0.0588678
-0.0559229
-0.0529489
-0.0499663
-0.0469962
-0.044056
-0.0411438
-0.0382104
-0.0351259
-0.031665
-0.0275653
-0.022749
-0.0177017
-0.0136038
-0.0116072
-0.0115815
-0.0118597
-0.00744125
-0.00753314
-0.00773831
-0.00809266
-0.00865045
-0.00948573
-0.0107058
-0.0124292
-0.0147474
-0.0176819
-0.0211579
-0.0250146
-0.0290516
-0.03309
-0.0370161
-0.0407902
-0.0444267
-0.047965
-0.0514436
-0.0548854
-0.0582918
-0.061645
-0.0649127
-0.0680534
-0.071021
-0.0737667
-0.0762412
-0.078396
-0.0801859
-0.0815716
-0.0825218
-0.0830159
-0.0830454
-0.0826146
-0.0817403
-0.0804512
-0.0787856
-0.0767892
-0.0745124
-0.0720071
-0.0693232
-0.0665066
-0.063596
-0.0606224
-0.0576096
-0.0545768
-0.0515427
-0.0485279
-0.0455543
-0.0426338
-0.0397434
-0.0367899
-0.0335788
-0.0298267
-0.0253184
-0.0203027
-0.0158324
-0.0132775
-0.0128874
-0.0132346
-0.00832533
-0.00841823
-0.00863278
-0.00901357
-0.0096105
-0.0104962
-0.0117772
-0.0135696
-0.0159584
-0.0189553
-0.0224759
-0.0263542
-0.0303917
-0.0344182
-0.0383315
-0.0421017
-0.0457492
-0.0493152
-0.0528374
-0.0563361
-0.0598096
-0.0632372
-0.0665841
-0.0698069
-0.0728571
-0.0756837
-0.0782349
-0.0804592
-0.0823086
-0.083741
-0.0847229
-0.0852321
-0.085259
-0.0848078
-0.0838963
-0.0825543
-0.0808226
-0.0787496
-0.0763888
-0.0737958
-0.0710245
-0.0681244
-0.0651376
-0.0620977
-0.0590294
-0.0559514
-0.0528802
-0.0498351
-0.0468389
-0.043912
-0.0410519
-0.0381997
-0.0351983
-0.0317723
-0.0276268
-0.022813
-0.0181805
-0.0151411
-0.0143408
-0.0147552
-0.00917669
-0.00926781
-0.00948751
-0.00988981
-0.010518
-0.0114421
-0.0127669
-0.014605
-0.0170363
-0.0200659
-0.0236041
-0.0274832
-0.0315083
-0.0355171
-0.0394156
-0.0431801
-0.0468344
-0.0504204
-0.0539745
-0.0575152
-0.0610387
-0.0645223
-0.0679296
-0.0712156
-0.0743303
-0.0772207
-0.0798326
-0.0821123
-0.0840093
-0.0854793
-0.0864868
-0.0870081
-0.087033
-0.0865653
-0.0856233
-0.0842381
-0.0824521
-0.0803161
-0.0778862
-0.075221
-0.0723777
-0.0694091
-0.0663606
-0.0632682
-0.0601579
-0.0570483
-0.0539547
-0.0508939
-0.0478883
-0.0449629
-0.0421303
-0.03936
-0.0365331
-0.0334009
-0.0296377
-0.0251421
-0.0205261
-0.017127
-0.015966
-0.0164023
-0.00997853
-0.0100638
-0.0102845
-0.0107026
-0.0113531
-0.0123032
-0.0136541
-0.0155151
-0.0179621
-0.0209971
-0.0245287
-0.0283909
-0.0323933
-0.0363795
-0.0402608
-0.0440166
-0.0476718
-0.0512677
-0.0548398
-0.0584053
-0.0619595
-0.0654787
-0.0689256
-0.072254
-0.0754126
-0.0783471
-0.0810015
-0.0833204
-0.0852513
-0.0867481
-0.0877741
-0.0883041
-0.0883272
-0.087847
-0.0868821
-0.0854645
-0.0836378
-0.0814542
-0.0789722
-0.0762526
-0.0733552
-0.0703356
-0.0672418
-0.0641122
-0.0609744
-0.0578472
-0.0547449
-0.0516826
-0.0486813
-0.0457682
-0.0429661
-0.0402671
-0.0375872
-0.0347154
-0.0313281
-0.0272157
-0.0227606
-0.0191634
-0.0177308
-0.0181271
-0.0107144
-0.0107915
-0.0110095
-0.0114357
-0.0120991
-0.0130628
-0.0144225
-0.0162845
-0.0187222
-0.0217369
-0.0252402
-0.0290696
-0.03304
-0.0369991
-0.0408604
-0.0446035
-0.0482523
-0.0518468
-0.0554218
-0.0589939
-0.0625583
-0.0660913
-0.0695552
-0.0729035
-0.0760841
-0.0790416
-0.0817187
-0.084059
-0.0860088
-0.0875208
-0.088557
-0.0890917
-0.0891131
-0.0886248
-0.0876451
-0.0862066
-0.0843534
-0.0821392
-0.0796234
-0.0768686
-0.0739365
-0.0708848
-0.0677637
-0.0646134
-0.061463
-0.058332
-0.0552341
-0.052183
-0.0491987
-0.046309
-0.0435435
-0.0409113
-0.0383592
-0.0357167
-0.0326824
-0.0289799
-0.0247975
-0.0211668
-0.01955
-0.019857
-0.0113725
-0.0114397
-0.01165
-0.0120761
-0.0127434
-0.0137084
-0.0150611
-0.0169034
-0.019308
-0.0222788
-0.0257329
-0.0295142
-0.0334436
-0.0373708
-0.0412089
-0.0449348
-0.0485695
-0.0521511
-0.0557134
-0.0592734
-0.0628272
-0.0663517
-0.0698098
-0.0731549
-0.0763347
-0.0792931
-0.0819726
-0.0843159
-0.0862689
-0.0877836
-0.0888217
-0.0893567
-0.0893765
-0.0888842
-0.0878979
-0.0864502
-0.0845855
-0.0823576
-0.079827
-0.0770568
-0.0741101
-0.0710458
-0.0679158
-0.0647616
-0.0616136
-0.0584919
-0.0554101
-0.0523813
-0.0494245
-0.0465681
-0.0438461
-0.0412801
-0.0388426
-0.0364021
-0.0336898
-0.0303984
-0.0265667
-0.0230408
-0.0213206
-0.0215148
-0.0119445
-0.0119995
-0.0121971
-0.0126167
-0.0132785
-0.0142324
-0.0155627
-0.017366
-0.0197157
-0.0226205
-0.0260047
-0.0297226
-0.033601
-0.0374911
-0.0413023
-0.0450064
-0.0486196
-0.0521772
-0.0557122
-0.0592423
-0.0627651
-0.0662593
-0.0696889
-0.073008
-0.0761644
-0.0791022
-0.0817637
-0.0840919
-0.0860325
-0.0875379
-0.0885693
-0.0891003
-0.0891182
-0.0886258
-0.087641
-0.0861955
-0.0843337
-0.0821091
-0.079582
-0.076816
-0.0738743
-0.0708167
-0.0676957
-0.0645538
-0.0614223
-0.0583217
-0.0552661
-0.0522684
-0.0493473
-0.0465319
-0.0438592
-0.0413602
-0.0390283
-0.0367663
-0.0343431
-0.0314476
-0.0280121
-0.0246948
-0.0229487
-0.0230341
-0.0124256
-0.0124667
-0.0126474
-0.0130535
-0.0137009
-0.0146323
-0.0159249
-0.017671
-0.0199447
-0.0227618
-0.0260571
-0.0296962
-0.0335129
-0.0373589
-0.0411385
-0.0448162
-0.0484014
-0.0519255
-0.0554203
-0.0589043
-0.0623776
-0.0658211
-0.0692009
-0.0724723
-0.075584
-0.0784807
-0.0811051
-0.083401
-0.0853147
-0.0867991
-0.0878158
-0.0883384
-0.0883543
-0.0878656
-0.0868895
-0.0854571
-0.0836117
-0.0814062
-0.0789001
-0.0761564
-0.0732383
-0.0702052
-0.0671099
-0.063995
-0.0608923
-0.0578229
-0.0548012
-0.0518406
-0.0489605
-0.0461906
-0.0435709
-0.0411396
-0.0389062
-0.0368029
-0.0346366
-0.0321119
-0.0290921
-0.026057
-0.0243625
-0.0243632
-0.0128145
-0.0128406
-0.0130009
-0.0133867
-0.0140106
-0.0149088
-0.0161502
-0.0178225
-0.0200007
-0.0227087
-0.0258954
-0.0294388
-0.033181
-0.0369744
-0.040717
-0.0443639
-0.0479162
-0.0513996
-0.0548439
-0.0582686
-0.0616763
-0.0650512
-0.068362
-0.0715663
-0.074614
-0.077451
-0.0800214
-0.0822695
-0.0841433
-0.0855964
-0.0865912
-0.0871018
-0.0871154
-0.0866337
-0.085673
-0.0842632
-0.0824465
-0.0802741
-0.0778046
-0.0750997
-0.0722215
-0.0692286
-0.0661733
-0.0630978
-0.0600338
-0.0570029
-0.0540201
-0.0510997
-0.0482624
-0.0455395
-0.0429738
-0.0406091
-0.0384678
-0.036506
-0.034567
-0.0323819
-0.0297771
-0.0270743
-0.0255107
-0.0254629
-0.0131133
-0.0131241
-0.0132612
-0.0136201
-0.0142117
-0.0150664
-0.0162448
-0.0178287
-0.0198934
-0.022472
-0.0255285
-0.0289569
-0.0326094
-0.0363395
-0.0400385
-0.0436508
-0.0471669
-0.0506052
-0.0539923
-0.0573482
-0.060678
-0.0639698
-0.0671957
-0.0703163
-0.0732837
-0.0760454
-0.078547
-0.0807346
-0.0825575
-0.0839707
-0.0849378
-0.0854333
-0.0854445
-0.0849727
-0.0840331
-0.0826543
-0.0808765
-0.0787496
-0.0763298
-0.0736774
-0.0708528
-0.0679131
-0.064909
-0.0618822
-0.0588637
-0.0558753
-0.052933
-0.0500526
-0.0472567
-0.0445789
-0.0420651
-0.0397639
-0.0377079
-0.0358722
-0.0341333
-0.0322537
-0.0300487
-0.0277106
-0.0263557
-0.0263001
-0.0133267
-0.0133228
-0.0134347
-0.0137608
-0.0143119
-0.0151137
-0.0162182
-0.0177003
-0.0196352
-0.0220648
-0.0249694
-0.0282612
-0.0318055
-0.0354587
-0.039106
-0.0426796
-0.0461577
-0.0495494
-0.0528766
-0.0561587
-0.0594032
-0.0626018
-0.0657312
-0.0687553
-0.0716294
-0.0743034
-0.0767249
-0.078842
-0.0806055
-0.0819724
-0.0829073
-0.0833856
-0.0833946
-0.0829353
-0.0820215
-0.0806804
-0.0789502
-0.0768784
-0.0745191
-0.0719301
-0.0691694
-0.0662922
-0.0633472
-0.0603745
-0.0574045
-0.0544591
-0.0515555
-0.0487114
-0.0459521
-0.0433144
-0.0408476
-0.0386042
-0.0366252
-0.0349014
-0.0333373
-0.0317287
-0.0299006
-0.0279458
-0.0268667
-0.0268419
-0.0134616
-0.0134444
-0.0135302
-0.0138185
-0.0143216
-0.0150614
-0.0160822
-0.017451
-0.0192414
-0.0215035
-0.0242344
-0.0273664
-0.0307807
-0.03434
-0.0379243
-0.041454
-0.0448932
-0.0482397
-0.0515085
-0.0547169
-0.0578738
-0.0609748
-0.064001
-0.0669206
-0.0696928
-0.0722705
-0.074604
-0.0766434
-0.078342
-0.0796582
-0.0805583
-0.0810183
-0.0810259
-0.0805812
-0.0796973
-0.0783992
-0.076723
-0.0747137
-0.0724225
-0.0699044
-0.0672146
-0.0644054
-0.0615231
-0.058606
-0.0556835
-0.0527776
-0.0499071
-0.0470922
-0.0443619
-0.0417564
-0.0393292
-0.0371364
-0.0352251
-0.0335982
-0.0321844
-0.030813
-0.0293352
-0.0277707
-0.0270163
-0.0270516
-0.0135267
-0.0134979
-0.0135577
-0.0138045
-0.0142528
-0.0149226
-0.0158508
-0.0170962
-0.0187295
-0.0208072
-0.0233429
-0.0262905
-0.0295502
-0.0329943
-0.0365008
-0.0399789
-0.0433781
-0.0466827
-0.0498984
-0.0530384
-0.0561117
-0.0591166
-0.0620388
-0.0648515
-0.067518
-0.0699952
-0.0722364
-0.0741947
-0.0758254
-0.0770891
-0.0779533
-0.0783952
-0.0784024
-0.0779746
-0.0771236
-0.0758725
-0.0742548
-0.0723127
-0.0700943
-0.0676512
-0.0650353
-0.0622955
-0.0594753
-0.0566109
-0.0537307
-0.0508571
-0.0480108
-0.0452152
-0.0425035
-0.0399203
-0.0375232
-0.0353719
-0.0335192
-0.0319735
-0.0306857
-0.0295177
-0.0283568
-0.0271705
-0.0267773
-0.0268865
-0.0135313
-0.0134932
-0.0135281
-0.0137311
-0.014119
-0.0147112
-0.0155388
-0.0166525
-0.0181183
-0.0199972
-0.0223176
-0.0250557
-0.0281334
-0.0314369
-0.0348462
-0.0382614
-0.0416176
-0.044884
-0.0480549
-0.0511364
-0.0541355
-0.0570525
-0.0598766
-0.0625859
-0.0651487
-0.067526
-0.0696752
-0.0715522
-0.0731153
-0.0743269
-0.0751562
-0.0755811
-0.0755896
-0.0751809
-0.074365
-0.0731634
-0.0716068
-0.0697341
-0.0675901
-0.0652225
-0.0626795
-0.0600062
-0.0572432
-0.0544244
-0.0515775
-0.0487256
-0.0458918
-0.0431035
-0.0403986
-0.0378265
-0.0354491
-0.0333294
-0.0315239
-0.0300449
-0.0288619
-0.0278616
-0.0269722
-0.0261252
-0.0261113
-0.0262974
-0.0134853
-0.0134404
-0.0134525
-0.0136106
-0.0139338
-0.0144419
-0.0151618
-0.0161367
-0.017427
-0.0190954
-0.021183
-0.0236873
-0.0265543
-0.0296881
-0.0329755
-0.0363115
-0.0396181
-0.0428487
-0.0459837
-0.0490198
-0.0519597
-0.0548029
-0.0575415
-0.0601578
-0.0626249
-0.0649087
-0.0669706
-0.0687705
-0.0702692
-0.0714316
-0.0722287
-0.0726392
-0.0726513
-0.0722634
-0.0714845
-0.0703334
-0.0688383
-0.0670347
-0.0649635
-0.0626683
-0.0601931
-0.0575795
-0.0548648
-0.0520809
-0.049255
-0.0464116
-0.0435769
-0.0407827
-0.0380724
-0.0355001
-0.0331326
-0.0310348
-0.029265
-0.0278377
-0.0267425
-0.0258718
-0.0251992
-0.024627
-0.0249768
-0.0252266
-0.0133981
-0.0133488
-0.013341
-0.0134549
-0.0137106
-0.0141291
-0.0147349
-0.0155651
-0.016674
-0.0181237
-0.0199646
-0.0222138
-0.0248416
-0.0277742
-0.0309101
-0.0341445
-0.037389
-0.0405821
-0.0436889
-0.046694
-0.0495926
-0.0523814
-0.0550532
-0.0575934
-0.0599794
-0.0621819
-0.0641667
-0.0658977
-0.067339
-0.0684581
-0.0692276
-0.0696274
-0.0696459
-0.0692807
-0.0685394