/*--------------------------------*- C++ -*----------------------------------*\
| =========                 |                                                 |
| \\      /  F ield         | OpenFOAM: The Open Source CFD Toolbox           |
|  \\    /   O peration     | Version:  2406                                  |
|   \\  /    A nd           | Website:  www.openfoam.com                      |
|    \\/     M anipulation  |                                                 |
\*---------------------------------------------------------------------------*/
FoamFile
{
    version     2.0;
    format      ascii;
    arch        "LSB;label=32;scalar=64";
    class       volScalarField;
    location    "41.2";
    object      p;
}
// * * * * * * * * * * * * * * * * * * * * * * * * * * * * * * * * * * * * * //

dimensions      [0 2 -2 0 0 0 0];

internalField   nonuniform List<scalar> 
3600
(
0.0400412
0.0400729
0.0400647
0.040049
0.0399859
0.0399141
0.039816
0.0397178
0.0396041
0.0394837
0.0393399
0.0391721
0.0389674
0.0387245
0.0384359
0.0381011
0.0377171
0.0372864
0.0368125
0.0363063
0.035785
0.0352764
0.0348163
0.0344468
0.0342113
0.0341499
0.0342945
0.0346655
0.0352682
0.0360903
0.0370989
0.038239
0.0394327
0.0405827
0.0415776
0.0423039
0.0426594
0.042571
0.0420088
0.040997
0.0396126
0.0379771
0.0362315
0.0345176
0.0329483
0.0316037
0.0305173
0.0296947
0.0291066
0.0287194
0.0284798
0.0283531
0.0282914
0.028281
0.0282856
0.0283147
0.0283362
0.0283781
0.0284015
0.028438
0.0400109
0.0400436
0.0400276
0.0400121
0.0399528
0.0398912
0.039805
0.0397199
0.0396187
0.0395107
0.0393799
0.0392274
0.0390416
0.0388218
0.0385607
0.0382568
0.0379052
0.0375057
0.0370605
0.036579
0.0360758
0.0355728
0.0350988
0.0346915
0.0343943
0.0342515
0.0343019
0.034573
0.0350762
0.035804
0.0367272
0.037793
0.0389255
0.0400279
0.0409892
0.041695
0.0420415
0.0419537
0.0413995
0.0404028
0.0390416
0.0374407
0.0357453
0.0341004
0.0326186
0.0313756
0.0303948
0.0296705
0.0291619
0.0288293
0.0286183
0.0284997
0.0284311
0.0284063
0.0283923
0.0284032
0.0284051
0.0284314
0.0284378
0.0284746
0.0400126
0.0400559
0.0400375
0.0400203
0.039956
0.0398931
0.039809
0.0397307
0.0396393
0.0395427
0.0394235
0.0392818
0.0391057
0.0388936
0.0386366
0.0383305
0.0379674
0.0375435
0.037055
0.0365051
0.0359062
0.0352858
0.034684
0.0341504
0.0337369
0.033493
0.0334595
0.0336646
0.0341201
0.0348181
0.0357293
0.0368009
0.0379567
0.0390998
0.040118
0.0408939
0.0413187
0.0413097
0.0408261
0.0398832
0.0385536
0.036962
0.0352593
0.0336013
0.0321133
0.0308816
0.0299352
0.0292677
0.0288318
0.0285784
0.0284426
0.0283877
0.0283666
0.0283746
0.0283796
0.028402
0.0284068
0.0284374
0.0284418
0.0284929
0.0400176
0.0400655
0.0400402
0.040017
0.0399471
0.0398857
0.0398098
0.0397461
0.0396732
0.0395963
0.0394963
0.0393713
0.0392075
0.0389996
0.0387334
0.0383971
0.0379737
0.0374515
0.0368258
0.0361075
0.0353216
0.0345068
0.0337113
0.0329899
0.0323983
0.0319883
0.0318023
0.0318694
0.0322026
0.0327963
0.0336245
0.0346392
0.0357705
0.0369275
0.0380032
0.0388819
0.0394519
0.0396217
0.0393364
0.0385938
0.0374498
0.0360165
0.0344404
0.0328801
0.0314698
0.0303063
0.0294276
0.0288326
0.0284746
0.0283023
0.0282448
0.02826
0.0282953
0.028345
0.0283757
0.0284131
0.0284215
0.0284539
0.0284533
0.028513
0.0400639
0.0401121
0.0400772
0.0400418
0.0399611
0.0398947
0.0398221
0.0397671
0.0397066
0.0396403
0.0395459
0.039415
0.0392279
0.038969
0.038613
0.0381372
0.0375212
0.0367586
0.0358583
0.0348466
0.0337646
0.0326653
0.0316078
0.0306521
0.0298547
0.0292646
0.0289204
0.0288485
0.0290608
0.0295531
0.0303037
0.0312716
0.0323966
0.0335987
0.034781
0.0358349
0.0366495
0.0371246
0.0371873
0.0368086
0.0360141
0.0348881
0.0335586
0.0321784
0.0308878
0.029798
0.0289638
0.0283999
0.0280719
0.0279365
0.0279252
0.0279943
0.0280851
0.0281866
0.02826
0.0283304
0.0283606
0.0284078
0.0284131
0.0284797
0.040135
0.0401749
0.0401268
0.0400741
0.0399834
0.0399128
0.0398459
0.0397991
0.0397474
0.0396815
0.0395736
0.039403
0.0391378
0.0387466
0.0381949
0.0374582
0.0365266
0.0354105
0.0341397
0.03276
0.0313279
0.0299046
0.0285523
0.0273303
0.0262922
0.0254829
0.0249377
0.0246797
0.02472
0.025056
0.0256714
0.0265346
0.0275985
0.0287993
0.0300581
0.0312821
0.0323708
0.0332242
0.033756
0.0339088
0.0336684
0.0330739
0.0322139
0.0312148
0.0302092
0.0293159
0.028607
0.0281171
0.02783
0.0277179
0.0277237
0.0278118
0.0279258
0.0280536
0.0281533
0.028246
0.0282932
0.0283501
0.02836
0.0284247
0.0402575
0.0402811
0.0402171
0.0401413
0.0400385
0.0399578
0.0398884
0.0398342
0.0397679
0.0396658
0.03949
0.0392003
0.0387502
0.0380962
0.0372068
0.036071
0.0347026
0.0331371
0.0314274
0.0296361
0.0278311
0.0260791
0.0244431
0.0229784
0.0217318
0.0207398
0.0200291
0.0196161
0.0195075
0.0196997
0.0201798
0.0209239
0.021898
0.0230562
0.0243412
0.0256837
0.0270045
0.0282179
0.0292383
0.0299915
0.0304262
0.0305288
0.0303288
0.0299007
0.0293453
0.0287732
0.0282707
0.0278973
0.0276646
0.0275692
0.0275731
0.0276544
0.0277657
0.0278979
0.0280091
0.0281158
0.0281781
0.0282439
0.0282613
0.02832
0.040429
0.0404267
0.0403465
0.0402445
0.0401308
0.0400353
0.0399546
0.0398724
0.0397578
0.039565
0.0392423
0.038728
0.0379683
0.0369218
0.035577
0.0339491
0.0320822
0.0300367
0.0278861
0.025705
0.0235672
0.0215378
0.019674
0.0180213
0.016616
0.0154832
0.0146404
0.0140957
0.0138509
0.0139005
0.0142332
0.014831
0.0156706
0.0167214
0.0179472
0.0193037
0.0207396
0.0221952
0.0236049
0.0248996
0.0260133
0.0268925
0.0275064
0.0278574
0.0279808
0.0279432
0.0278189
0.0276827
0.0275776
0.0275347
0.0275462
0.0276121
0.0277013
0.0278132
0.027912
0.0280115
0.0280739
0.028137
0.0281564
0.0282038
0.040665
0.0406271
0.0405317
0.040399
0.0402705
0.0401457
0.0400297
0.0398783
0.0396542
0.0392834
0.0387017
0.0378328
0.0366327
0.0350793
0.0331955
0.031029
0.0286553
0.0261568
0.0236215
0.0211284
0.0187494
0.0165405
0.014547
0.0128003
0.011323
0.0101277
0.00922154
0.00860474
0.00827415
0.00822143
0.00843578
0.00890229
0.00960418
0.0105214
0.0116326
0.0129134
0.0143374
0.0158739
0.0174871
0.0191335
0.0207611
0.02231
0.023716
0.0249202
0.0258781
0.0265759
0.0270299
0.0272938
0.0274276
0.0275007
0.0275496
0.0276091
0.0276729
0.0277541
0.0278272
0.0279063
0.027958
0.0280113
0.0280289
0.0280644
0.0409639
0.0408824
0.0407757
0.0406089
0.0404602
0.0402863
0.0401012
0.0398242
0.0394104
0.0387562
0.0377951
0.0364527
0.0347146
0.0325922
0.0301499
0.0274675
0.024647
0.0217834
0.0189693
0.0162768
0.013766
0.0114769
0.00943895
0.00766789
0.00617401
0.00495944
0.00402421
0.00336329
0.0029708
0.00283713
0.00295221
0.00330318
0.00387732
0.00466045
0.00563974
0.00680255
0.00813852
0.00963781
0.0112908
0.0130841
0.0149963
0.0169916
0.0190139
0.0209849
0.0228075
0.0243831
0.0256319
0.0265263
0.0270918
0.0274111
0.027569
0.0276542
0.0277025
0.0277501
0.027788
0.0278341
0.0278627
0.0278966
0.027906
0.0279295
0.0413189
0.0411872
0.0410719
0.0408631
0.0406787
0.040422
0.0401154
0.0396355
0.0389326
0.0378807
0.0364292
0.0345245
0.0321981
0.0295019
0.0265415
0.0234217
0.0202606
0.0171527
0.0141824
0.011405
0.00886271
0.00657649
0.00456057
0.00281721
0.00134762
0.000146785
-0.000789205
-0.00146817
-0.00189674
-0.00208471
-0.002041
-0.00177698
-0.00130288
-0.000629906
0.000233246
0.00127921
0.00250507
0.00391148
0.00550396
0.00729031
0.0092772
0.0114627
0.0138254
0.0163126
0.0188289
0.0212375
0.0233756
0.0251003
0.0263312
0.0270953
0.0274921
0.0276688
0.0277295
0.0277532
0.027756
0.0277653
0.0277648
0.0277752
0.0277729
0.0277873
0.0417117
0.0415271
0.0414058
0.0411452
0.0409033
0.0405207
0.0400283
0.0392583
0.038165
0.0366154
0.034596
0.0320903
0.0291841
0.0259678
0.0225805
0.0191386
0.0157612
0.0125281
0.00950574
0.00672641
0.0042136
0.00197078
7.52422e-07
-0.00170331
-0.00314485
-0.00433231
-0.00527038
-0.00596733
-0.00642879
-0.00666362
-0.00667891
-0.00648445
-0.00608831
-0.00549987
-0.00472572
-0.00377134
-0.00263733
-0.00132017
0.000190556
0.00191116
0.00386309
0.00606842
0.00854035
0.01127
0.0142051
0.017234
0.0201751
0.0228035
0.0249045
0.0263649
0.0272125
0.027609
0.0277396
0.0277608
0.0277345
0.0277065
0.0276735
0.0276576
0.0276406
0.0276482
0.0420999
0.0418614
0.0417312
0.0414013
0.0410683
0.0405054
0.0397529
0.0386041
0.0370325
0.0349171
0.0322994
0.029208
0.0257828
0.0221431
0.0184476
0.0148072
0.0113286
0.00806658
0.00506535
0.00233437
-0.000118238
-0.00230184
-0.00422009
-0.00588477
-0.00730052
-0.00847678
-0.00941727
-0.0101297
-0.0106181
-0.0108901
-0.0109509
-0.0108088
-0.0104701
-0.00994288
-0.00923247
-0.0083438
-0.00727738
-0.00603017
-0.0045924
-0.00294736
-0.00107049
0.00106982
0.00350651
0.00626601
0.00934706
0.0126987
0.0161875
0.0195885
0.0226062
0.0249655
0.0265226
0.0273504
0.0276651
0.0277286
0.0276894
0.0276294
0.0275655
0.0275244
0.0274923
0.0274954
0.0424381
0.0421475
0.0420022
0.0415829
0.0411201
0.0403198
0.0392352
0.0376332
0.035524
0.0328171
0.0296192
0.0260042
0.0221566
0.0182096
0.0143246
0.0105923
0.00709711
0.00386528
0.000920336
-0.00174717
-0.00413895
-0.00627222
-0.00815264
-0.00979383
-0.0111992
-0.0123778
-0.0133313
-0.0140665
-0.0145852
-0.0148939
-0.0149957
-0.0148976
-0.014604
-0.0141216
-0.0134548
-0.012608
-0.0115823
-0.0103764
-0.00898327
-0.00738999
-0.00557584
-0.00351033
-0.00115625
0.00152969
0.00458089
0.00800548
0.0117459
0.0156475
0.0194306
0.0227308
0.0252122
0.0267378
0.0274395
0.0276335
0.0276127
0.0275307
0.0274391
0.0273741
0.0273272
0.0273258
0.0426502
0.0423092
0.0421357
0.0416015
0.0409657
0.0398733
0.0383967
0.0362932
0.0336264
0.0303482
0.026632
0.0225887
0.0184332
0.0142948
0.0103232
0.00657893
0.00312162
-4.94406e-05
-0.00292616
-0.00553127
-0.00787083
-0.0099659
-0.0118211
-0.0134502
-0.0148541
-0.0160413
-0.0170112
-0.0177697
-0.0183169
-0.0186581
-0.0187949
-0.0187331
-0.0184754
-0.0180275
-0.0173924
-0.0165743
-0.0155743
-0.0143923
-0.0130243
-0.0114615
-0.00968941
-0.00768373
-0.0054125
-0.00283057
0.000109046
0.00345183
0.00720571
0.0113092
0.0155711
0.0196513
0.023107
0.0255608
0.0269183
0.0274182
0.0274742
0.0273908
0.0272769
0.0271889
0.0271281
0.0271206
0.0426751
0.042287
0.0420701
0.0413978
0.0405506
0.0391239
0.0372176
0.0345974
0.0313919
0.0276003
0.0234562
0.0190937
0.0147413
0.0105093
0.00652579
0.00281791
-0.000577049
-0.00368161
-0.00649686
-0.00905356
-0.0113579
-0.0134321
-0.0152781
-0.0169089
-0.0183228
-0.0195272
-0.0205198
-0.0213056
-0.021883
-0.0222566
-0.0224264
-0.0223971
-0.0221701
-0.02175
-0.0211388
-0.0203398
-0.0193541
-0.0181822
-0.0168224
-0.0152691
-0.013514
-0.0115397
-0.00932403
-0.00682873
-0.00400933
-0.000806049
0.00282753
0.0069074
0.0113507
0.0159227
0.0202023
0.0236664
0.0259281
0.0269994
0.0272531
0.027203
0.0270779
0.0269642
0.0268895
0.0268715
0.0424306
0.0419978
0.0417197
0.0408885
0.0397996
0.0380148
0.0356687
0.0325519
0.0288615
0.0246422
0.0201752
0.0156025
0.0111507
0.00690052
0.00295498
-0.000690274
-0.00401479
-0.0070568
-0.00982095
-0.012342
-0.0146236
-0.0166878
-0.018533
-0.0201714
-0.0215989
-0.0228223
-0.0238375
-0.0246492
-0.0252544
-0.0256571
-0.0258561
-0.0258555
-0.0256553
-0.0252594
-0.0246686
-0.0238857
-0.0229114
-0.0217463
-0.0203898
-0.0188384
-0.0170881
-0.0151272
-0.0129431
-0.0105069
-0.00778528
-0.00472063
-0.00125447
0.00267589
0.00707566
0.0118386
0.0166599
0.0210127
0.0243121
0.0262135
0.0269079
0.0269407
0.0268327
0.0266878
0.0265974
0.0265631
0.0418743
0.0414008
0.041047
0.0400449
0.038699
0.0365546
0.0337869
0.0302229
0.0261257
0.0215777
0.0168924
0.0122051
0.00772904
0.00351081
-0.000370569
-0.00394579
-0.00720492
-0.0101962
-0.0129236
-0.0154233
-0.0176949
-0.0197597
-0.0216127
-0.0232654
-0.0247113
-0.0259572
-0.0269971
-0.0278357
-0.0284686
-0.0288996
-0.0291262
-0.0291519
-0.0289759
-0.0286011
-0.0280277
-0.0272578
-0.026292
-0.0251305
-0.0237736
-0.0222184
-0.0204645
-0.0185035
-0.0163307
-0.0139256
-0.0112684
-0.00831157
-0.00500284
-0.0012619
0.00296884
0.00769235
0.0127499
0.0177297
0.0220032
0.0249138
0.0263304
0.0265948
0.0265222
0.0263595
0.0262433
0.0261876
0.0409576
0.0404476
0.0400065
0.0388306
0.0372275
0.0347436
0.0315967
0.0276562
0.0232427
0.0184663
0.0136572
0.00893323
0.00448756
0.000332752
-0.00347187
-0.00697704
-0.0101778
-0.0131279
-0.0158282
-0.0183145
-0.0205823
-0.0226517
-0.0245148
-0.0261826
-0.0276469
-0.0289141
-0.0299771
-0.0308404
-0.0314986
-0.0319551
-0.0322065
-0.0322559
-0.0321016
-0.031746
-0.0311889
-0.0304316
-0.029475
-0.0283183
-0.026963
-0.0254059
-0.0236488
-0.0216848
-0.0195149
-0.0171243
-0.0145057
-0.0116226
-0.00843842
-0.00487486
-0.000855622
0.00369264
0.00874057
0.0140431
0.0190614
0.0230147
0.0253476
0.0261396
0.0261119
0.0259689
0.0258133
0.0257313
0.0396877
0.0391481
0.0386148
0.0372735
0.035429
0.0326445
0.0291784
0.0249441
0.0203077
0.0153955
0.0105413
0.00583862
0.00145799
-0.00261815
-0.00634488
-0.00978679
-0.0129396
-0.0158593
-0.0185421
-0.0210231
-0.0232932
-0.0253721
-0.0272488
-0.0289345
-0.030419
-0.0317088
-0.0327958
-0.0336839
-0.0343671
-0.0348482
-0.0351232
-0.0351945
-0.0350599
-0.0347213
-0.0341784
-0.0334318
-0.0324828
-0.0313301
-0.0299762
-0.0284173
-0.0266574
-0.0246891
-0.0225182
-0.0201322
-0.0175338
-0.0146958
-0.0115995
-0.00817801
-0.0043602
-4.00067e-05
0.00484269
0.0101998
0.0156725
0.020506
0.0238693
0.0254387
0.0256133
0.0254742
0.0253086
0.0251774
0.0380711
0.0375097
0.0368841
0.0353941
0.0333358
0.0303014
0.0265844
0.02214
0.0173662
0.0123962
0.0075573
0.00291588
-0.00137912
-0.00536986
-0.00902087
-0.0124053
-0.0155169
-0.0184118
-0.0210814
-0.0235594
-0.025833
-0.0279214
-0.0298113
-0.0315137
-0.0330173
-0.0343283
-0.0354374
-0.0363486
-0.0370548
-0.0375585
-0.037855
-0.0379461
-0.0378294
-0.0375061
-0.0369762
-0.0362396
-0.0352984
-0.0341505
-0.0327999
-0.0312416
-0.0294821
-0.0275126
-0.0253426
-0.0229593
-0.0203735
-0.017563
-0.0145258
-0.0112085
-0.00755858
-0.00346395
0.00117984
0.00640549
0.0120507
0.0174895
0.021869
0.02432
0.0250321
0.0248303
0.0247219
0.0245046
0.0361685
0.0355956
0.0348838
0.0332696
0.0310339
0.0278077
0.0239109
0.0193363
0.0145004
0.00953552
0.00475557
0.000200655
-0.00399952
-0.0079055
-0.0114871
-0.014822
-0.0179001
-0.0207765
-0.0234379
-0.0259166
-0.0281967
-0.0302966
-0.0322016
-0.0339224
-0.0354462
-0.0367793
-0.0379114
-0.038846
-0.0395752
-0.0401009
-0.0404181
-0.0405277
-0.0404274
-0.0401175
-0.0395987
-0.03887
-0.0379348
-0.0367901
-0.0354422
-0.0338843
-0.032126
-0.0301566
-0.0279891
-0.0256089
-0.023033
-0.0202405
-0.0172434
-0.0139994
-0.0104791
-0.00658029
-0.00219021
0.00280236
0.00839108
0.0141558
0.0193547
0.0227445
0.0242452
0.0240581
0.0240048
0.0237059
0.0340312
0.0334575
0.0326684
0.0309574
0.0285833
0.0252221
0.0212102
0.0165729
0.0117331
0.00681831
0.00212471
-0.00233033
-0.0064333
-0.0102573
-0.0137748
-0.0170645
-0.0201128
-0.0229724
-0.0256262
-0.028105
-0.0303907
-0.032501
-0.0344198
-0.0361574
-0.0377002
-0.039054
-0.0402077
-0.0411641
-0.0419149
-0.0424611
-0.0427973
-0.0429237
-0.0428382
-0.0425402
-0.0420312
-0.0413092
-0.0403795
-0.0392375
-0.0378924
-0.0363356
-0.0345803
-0.0326129
-0.0304511
-0.0280766
-0.0255122
-0.0227352
-0.0197689
-0.0165775
-0.0131547
-0.00941449
-0.00525816
-0.000537461
0.00484492
0.0106918
0.0164139
0.0207407
0.0230691
0.0232015
0.0230896
0.0227784
0.0317516
0.0311894
0.0303352
0.0285568
0.0260841
0.0226424
0.0185734
0.0139302
0.00913217
0.00429956
-0.000291142
-0.00464091
-0.00864934
-0.0123971
-0.0158574
-0.019108
-0.0221313
-0.0249777
-0.0276268
-0.030108
-0.0324011
-0.0345234
-0.0364574
-0.0382133
-0.0397763
-0.0411518
-0.0423278
-0.0433065
-0.044079
-0.0446453
-0.0450001
-0.0451424
-0.0450706
-0.0447829
-0.0442821
-0.0435648
-0.0426387
-0.0414975
-0.0401537
-0.0385966
-0.0368438
-0.0348784
-0.0327236
-0.0303562
-0.0278056
-0.0250443
-0.0221055
-0.0189551
-0.0156072
-0.0119922
-0.00803576
-0.00358652
0.00151537
0.00724765
0.0132145
0.0183352
0.0214524
0.0222266
0.0219621
0.0217052
0.0293986
0.0288589
0.0279516
0.0261324
0.0235958
0.0201181
0.0160363
0.0114276
0.00669965
0.00196619
-0.00251641
-0.00676225
-0.0106817
-0.0143587
-0.0177666
-0.0209808
-0.0239806
-0.0268136
-0.0294572
-0.0319392
-0.0342383
-0.0363709
-0.0383188
-0.0400913
-0.0416732
-0.0430688
-0.0442659
-0.0452653
-0.046058
-0.046643
-0.0470149
-0.0471715
-0.0471121
-0.0468331
-0.0463393
-0.0456253
-0.0447018
-0.0435601
-0.042217
-0.0406587
-0.0389085
-0.036945
-0.0347985
-0.0324397
-0.0299057
-0.0271621
-0.0242519
-0.0211376
-0.0178515
-0.0143361
-0.0105454
-0.00634556
-0.00154554
0.00393386
0.00992992
0.0155745
0.0194552
0.0209925
0.0206593
0.020443
0.027068
0.0265625
0.0256152
0.0237803
0.0212106
0.0177352
0.0136766
0.00913296
0.0044946
-0.000130026
-0.00450431
-0.00865069
-0.0124883
-0.0161016
-0.0194634
-0.0226459
-0.0256259
-0.0284483
-0.0310887
-0.0335735
-0.0358804
-0.0380248
-0.0399881
-0.0417785
-0.0433805
-0.0447971
-0.0460159
-0.0470364
-0.0478496
-0.048453
-0.0488417
-0.0490118
-0.0489638
-0.0486923
-0.0482042
-0.0474918
-0.0465693
-0.0454251
-0.0440811
-0.0425196
-0.0407706
-0.0388077
-0.0366691
-0.0343188
-0.0318031
-0.0290787
-0.0261993
-0.02312
-0.01989
-0.016457
-0.012805
-0.00882362
-0.0043186
0.000831729
0.00669575
0.0125665
0.0171572
0.0193924
0.0192416
0.0189671
0.02482
0.0243585
0.0233821
0.0215505
0.01897
0.015523
0.0115089
0.00704595
0.00250269
-0.00201448
-0.00628777
-0.0103432
-0.0141077
-0.0176634
-0.0209835
-0.0241362
-0.027097
-0.0299081
-0.0325443
-0.0350301
-0.0373431
-0.0394975
-0.0414744
-0.0432808
-0.0449011
-0.0463368
-0.0475756
-0.0486154
-0.0494474
-0.0500674
-0.0504714
-0.0506533
-0.0506154
-0.0503497
-0.0498661
-0.0491537
-0.0482312
-0.0470828
-0.045737
-0.0441706
-0.0424221
-0.0404583
-0.0383275
-0.0359851
-0.0334888
-0.0307845
-0.0279387
-0.0248951
-0.0217202
-0.0183592
-0.0148272
-0.0110331
-0.00680389
-0.00200752
0.00360433
0.00945578
0.01462
0.0174293
0.0177219
0.0172775
0.0227342
0.0223266
0.0213327
0.0195215
0.016949
0.0135511
0.0095975
0.00522568
0.000779605
-0.00363357
-0.00781382
-0.0117871
-0.0154873
-0.0189924
-0.0222769
-0.0254041
-0.0283495
-0.031152
-0.0337864
-0.0362754
-0.0385965
-0.0407624
-0.0427545
-0.044578
-0.0462176
-0.0476731
-0.0489324
-0.0499916
-0.0508427
-0.0514789
-0.051898
-0.0520908
-0.0520625
-0.0518013
-0.0513213
-0.0506073
-0.0496835
-0.0485291
-0.04718
-0.0456066
-0.0438569
-0.04189
-0.0397657
-0.0374294
-0.0349525
-0.032268
-0.0294577
-0.0264506
-0.0233322
-0.0200375
-0.0166142
-0.0129807
-0.00900488
-0.0045551
0.000720273
0.00637888
0.0118982
0.0151628
0.0160299
0.0153714
0.0208474
0.0205011
0.0194989
0.0177189
0.0151647
0.0118258
0.00793661
0.00365465
-0.000702568
-0.00502321
-0.00912389
-0.0130268
-0.0166725
-0.0201337
-0.0233867
-0.0264903
-0.0294207
-0.0322139
-0.0348453
-0.0373355
-0.0396628
-0.0418381
-0.043843
-0.0456814
-0.047338
-0.0488109
-0.0500887
-0.0511649
-0.052033
-0.0526833
-0.0531156
-0.0533174
-0.0532971
-0.0530386
-0.0525609
-0.0518434
-0.0509173
-0.049755
-0.0484013
-0.0468188
-0.0450668
-0.0430944
-0.0409754
-0.038643
-0.0361848
-0.0335188
-0.0307451
-0.0277745
-0.0247145
-0.0214832
-0.0181622
-0.0146687
-0.0109241
-0.00679747
-0.00190794
0.00344391
0.00906832
0.0126703
0.0140844
0.0132573
0.019215
0.0189381
0.0179382
0.0162002
0.0136734
0.0104018
0.00658044
0.00238707
-0.00188804
-0.00612566
-0.0101578
-0.0140006
-0.0176008
-0.0210254
-0.0242527
-0.0273373
-0.0302566
-0.0330437
-0.0356748
-0.0381687
-0.0405042
-0.0426905
-0.0447098
-0.046564
-0.0482385
-0.0497293
-0.0510259
-0.0521192
-0.0530043
-0.0536683
-0.0541136
-0.0543236
-0.0543108
-0.0540539
-0.0535778
-0.0528553
-0.0519258
-0.0507537
-0.0493942
-0.0478004
-0.0460444
-0.0440637
-0.0419482
-0.0396166
-0.0371755
-0.0345254
-0.0317878
-0.0288525
-0.025852
-0.022682
-0.0194598
-0.0160909
-0.0125576
-0.00872525
-0.00424026
0.000734168
0.00623819
0.0100467
0.0118873
0.0109885
0.0178461
0.0176436
0.0166545
0.0149643
0.0124676
0.00926329
0.00550435
0.00138979
-0.00281774
-0.00698799
-0.0109673
-0.0147629
-0.018328
-0.0217225
-0.0249285
-0.0279958
-0.0309046
-0.0336845
-0.0363141
-0.0388095
-0.041151
-0.0433456
-0.0453767
-0.0472438
-0.0489337
-0.0504395
-0.0517523
-0.0528599
-0.0537598
-0.0544347
-0.0548911
-0.0551068
-0.0550997
-0.0548421
-0.0543661
-0.0536366
-0.0527023
-0.0515181
-0.0501516
-0.0485437
-0.0467821
-0.0447902
-0.0426761
-0.0403418
-0.0379155
-0.0352775
-0.0325745
-0.0296715
-0.0267304
-0.0236188
-0.0204931
-0.0172366
-0.0138968
-0.0103287
-0.00624294
-0.00168232
0.00353339
0.00740986
0.00953942
0.00866426
0.0167732
0.0166506
0.0156838
0.0140499
0.0115885
0.00845424
0.00475623
0.000715251
-0.00343355
-0.00754698
-0.0114844
-0.0152428
-0.0187813
-0.0221528
-0.0253433
-0.0283983
-0.0313005
-0.034077
-0.0367081
-0.0392076
-0.0415574
-0.0437621
-0.0458066
-0.0476876
-0.0493939
-0.0509149
-0.0522446
-0.0533662
-0.054281
-0.0549665
-0.0554338
-0.0556544
-0.0556529
-0.0553935
-0.0549171
-0.0541789
-0.0532392
-0.0520409
-0.0506661
-0.0490416
-0.0472728
-0.045266
-0.0431509
-0.0408096
-0.0383953
-0.0357645
-0.0330931
-0.0302177
-0.027334
-0.0242765
-0.0212442
-0.0180895
-0.0149274
-0.011594
-0.00788661
-0.00374788
0.00107391
0.0048896
0.00719
0.00640296
0.0159789
0.0159379
0.0150028
0.0134301
0.0110049
0.0079377
0.00429313
0.000314527
-0.00379041
-0.00786266
-0.0117736
-0.0155073
-0.0190292
-0.0223844
-0.0255635
-0.0286077
-0.0315038
-0.0342756
-0.0369066
-0.0394077
-0.0417635
-0.0439752
-0.0460304
-0.0479221
-0.0496418
-0.0511749
-0.0525187
-0.0536514
-0.0545786
-0.0552716
-0.0557477
-0.0559704
-0.0559726
-0.0557085
-0.0552302
-0.0544806
-0.053534
-0.0523188
-0.0509341
-0.0492896
-0.0475114
-0.0454858
-0.043367
-0.0410134
-0.0386074
-0.0359776
-0.0333337
-0.0304793
-0.0276491
-0.0246389
-0.0216957
-0.0186318
-0.0156326
-0.0125049
-0.00914612
-0.00541477
-0.00104104
0.00260917
0.004984
0.00431533
0.015478
0.0155201
0.0146304
0.0131289
0.0107471
0.0077504
0.00415992
0.00024075
-0.003826
-0.0078649
-0.0117576
-0.0154752
-0.0189879
-0.0223334
-0.0255068
-0.0285453
-0.0314396
-0.0342107
-0.0368451
-0.0393509
-0.0417152
-0.0439361
-0.0460039
-0.0479076
-0.0496421
-0.0511879
-0.0525466
-0.0536903
-0.0546306
-0.0553306
-0.0558159
-0.0560399
-0.0560459
-0.0557762
-0.0552959
-0.0545334
-0.0535793
-0.0523449
-0.0509492
-0.0492816
-0.0474922
-0.0454434
-0.0433178
-0.0409462
-0.0385443
-0.0359082
-0.0332864
-0.0304444
-0.027662
-0.02469
-0.0218297
-0.018844
-0.0159936
-0.0130428
-0.00999933
-0.00664503
-0.00273704
0.000672497
0.00303892
0.00249335
0.0152292
0.0153501
0.0145168
0.0130937
0.0107603
0.00783391
0.00429422
0.00042755
-0.0036114
-0.00762897
-0.0115161
-0.0152284
-0.018741
-0.0220827
-0.0252541
-0.0282882
-0.0311807
-0.0339497
-0.0365857
-0.0390935
-0.0414638
-0.0436909
-0.0457685
-0.0476811
-0.0494278
-0.0509831
-0.0523544
-0.0535059
-0.054457
-0.055161
-0.0556534
-0.0558756
-0.0558837
-0.0556052
-0.0551212
-0.0543425
-0.0533794
-0.0521222
-0.0507135
-0.0490186
-0.0472151
-0.0451378
-0.0430017
-0.0406051
-0.038202
-0.0355507
-0.0329445
-0.0301043
-0.027362
-0.0244164
-0.0216304
-0.0187083
-0.0159919
-0.0131897
-0.0104272
-0.00740973
-0.00396115
-0.0008389
0.00144501
0.00101178
0.0152362
0.0154304
0.0146694
0.0133385
0.0110684
0.00822163
0.00474109
0.000931227
-0.00307791
-0.00707585
-0.0109608
-0.014673
-0.0181909
-0.0215347
-0.0247096
-0.0277445
-0.0306401
-0.0334115
-0.0360533
-0.0385669
-0.0409468
-0.0431828
-0.0452732
-0.0471965
-0.0489576
-0.0505235
-0.0519091
-0.0530689
-0.0540322
-0.0547402
-0.0552408
-0.0554608
-0.0554718
-0.0551835
-0.0546962
-0.0538999
-0.0529275
-0.0516451
-0.0502224
-0.0484964
-0.0466769
-0.0445656
-0.0424152
-0.0399863
-0.0375764
-0.0349
-0.0323017
-0.0294508
-0.0267394
-0.0238057
-0.0210837
-0.0182079
-0.0156103
-0.0129278
-0.0104132
-0.00768705
-0.00467642
-0.00186303
0.000273121
-6.62175e-05
0.0154343
0.0156886
0.0150126
0.0137842
0.0115916
0.00883138
0.00541596
0.00166484
-0.00231594
-0.00629898
-0.0101888
-0.0139083
-0.0174383
-0.0207889
-0.0239704
-0.027007
-0.0299056
-0.0326777
-0.0353237
-0.0378404
-0.040228
-0.0424701
-0.0445714
-0.0465027
-0.0482766
-0.0498503
-0.0512487
-0.0524141
-0.0533881
-0.0540971
-0.0546047
-0.0548193
-0.0548318
-0.0545305
-0.0540385
-0.0532207
-0.0522374
-0.0509253
-0.0494864
-0.0477238
-0.0458848
-0.0437325
-0.0415631
-0.0390925
-0.0366692
-0.0339559
-0.0313565
-0.0284802
-0.0257887
-0.0228496
-0.0201791
-0.0173296
-0.0148345
-0.0122424
-0.00994396
-0.00746094
-0.00485725
-0.00235294
-0.000418122
-0.000684078
0.0158245
0.0161248
0.0155503
0.0144416
0.0123534
0.0096983
0.00636831
0.00269113
-0.00124759
-0.00520782
-0.00909789
-0.0128247
-0.016369
-0.0197309
-0.0229241
-0.0259682
-0.0288756
-0.031654
-0.0343097
-0.0368345
-0.0392347
-0.0414871
-0.0436037
-0.0455462
-0.0473366
-0.0489205
-0.0503348
-0.0515071
-0.0524946
-0.0532053
-0.0537221
-0.0539314
-0.0539473
-0.0536323
-0.053137
-0.0522962
-0.0513024
-0.049958
-0.0485022
-0.0466987
-0.0448381
-0.0426382
-0.0404456
-0.037924
-0.0354804
-0.0327175
-0.0301075
-0.0271895
-0.0245058
-0.0215416
-0.0189087
-0.0160629
-0.0136535
-0.0111212
-0.00900903
-0.00671996
-0.00448629
-0.00227313
-0.000578169
-0.000789293
0.0163198
0.0166452
0.0161824
0.0152047
0.0132462
0.0107131
0.00748701
0.00389791
1.27095e-05
-0.00391799
-0.00780625
-0.0115411
-0.0151024
-0.018478
-0.0216851
-0.0247372
-0.0276535
-0.0304369
-0.0331015
-0.0356325
-0.0380447
-0.0403056
-0.0424372
-0.0443892
-0.0461962
-0.0477886
-0.049219
-0.0503964
-0.0513975
-0.0521077
-0.0526335
-0.0528348
-0.0528537
-0.0525217
-0.0520221
-0.0511542
-0.0501484
-0.0487665
-0.0472912
-0.0454401
-0.0435539
-0.0412976
-0.0390759
-0.0364916
-0.0340196
-0.0311919
-0.0285603
-0.0255817
-0.0228921
-0.0198805
-0.0172696
-0.0144019
-0.0120607
-0.00955609
-0.00760243
-0.00545734
-0.00355337
-0.00159778
-0.000163478
-0.000333246
0.0169343
0.0172678
0.0169255
0.0160954
0.0143027
0.011921
0.00883253
0.00535964
0.00155624
-0.00232398
-0.00619421
-0.00992895
-0.0135041
-0.0168952
-0.0201208
-0.0231874
-0.0261201
-0.028916
-0.0315975
-0.0341417
-0.0365735
-0.0388489
-0.0410026
-0.0429691
-0.044799
-0.0464037
-0.0478557
-0.049041
-0.0500603
-0.0507718
-0.0513107
-0.0515048
-0.0515301
-0.0511808
-0.0506796
-0.0497833
-0.0487671
-0.0473447
-0.0458501
-0.0439463
-0.0420328
-0.0397123
-0.0374571
-0.0347989
-0.032291
-0.0293829
-0.0267189
-0.0236594
-0.02095
-0.0178664
-0.0152616
-0.0123442
-0.0100538
-0.00754334
-0.00572279
-0.00367111
-0.00205546
-0.000310402
0.000861251
0.000726867
0.0175599
0.017883
0.0176568
0.0169823
0.0153838
0.0131809
0.0102606
0.00693221
0.00323755
-0.000569623
-0.00440594
-0.00812999
-0.0117144
-0.0151187
-0.0183634
-0.0214442
-0.0243947
-0.0272029
-0.0299028
-0.03246
-0.0349133
-0.0372034
-0.0393817
-0.041363
-0.0432186
-0.0448357
-0.0463121
-0.0475048
-0.0485449
-0.0492564
-0.0498103
-0.0499951
-0.0500278
-0.0496582
-0.0491556
-0.0482263
-0.047199
-0.04573
-0.0442141
-0.0422494
-0.0403045
-0.0379089
-0.0356139
-0.0328672
-0.030314
-0.027307
-0.0245979
-0.0214345
-0.0186899
-0.0155068
-0.0128914
-0.00989338
-0.00763698
-0.00508487
-0.00337504
-0.00136514
2.26322e-06
0.00159541
0.00252034
0.00242483
0.0182485
0.0185531
0.0184315
0.0179224
0.0165486
0.0145621
0.0118534
0.00871051
0.00516783
0.00147033
-0.00230055
-0.00599343
-0.00957497
-0.0129894
-0.016256
-0.0193583
-0.0223366
-0.0251676
-0.0278977
-0.0304784
-0.0329648
-0.0352788
-0.0374924
-0.0394963
-0.0413873
-0.0430229
-0.0445323
-0.045737
-0.0468052
-0.04752
-0.0480952
-0.0482725
-0.0483181
-0.0479285
-0.047429
-0.0464658
-0.0454304
-0.0439119
-0.0423759
-0.0403449
-0.0383679
-0.0358881
-0.0335495
-0.0307012
-0.0280954
-0.024971
-0.0222057
-0.0189144
-0.0161203
-0.012809
-0.0101674
-0.00705614
-0.00481875
-0.00218747
-0.000570316
0.00145064
0.00260564
0.00411521
0.00482388
0.00478162
0.0188649
0.0191432
0.019102
0.0187548
0.0176205
0.0158827
0.0134235
0.0105086
0.00716057
0.003615
-5.59118e-05
-0.00368943
-0.00725101
-0.0106639
-0.0139492
-0.0170711
-0.0200805
-0.0229362
-0.0257022
-0.0283094
-0.0308358
-0.033177
-0.0354332
-0.0374626
-0.0393963
-0.0410528
-0.0426019
-0.0438198
-0.0449219
-0.0456399
-0.0462412
-0.0464095
-0.0464715
-0.0460589
-0.0455645
-0.0445625
-0.0435197
-0.0419447
-0.0403877
-0.0382807
-0.0362681
-0.0336913
-0.0313028
-0.0283356
-0.0256675
-0.0224036
-0.0195689
-0.0161224
-0.0132631
-0.00979164
-0.0071081
-0.00384791
-0.00161645
0.0011343
0.00267189
0.00475899
0.00573043
0.00723322
0.00776502
0.00780246
0.0195271
0.0197815
0.0197961
0.0196015
0.0187144
0.0172579
0.0150928
0.0124559
0.00935814
0.00601716
0.00249537
-0.0010417
-0.0045576
-0.00795685
-0.0112591
-0.0144071
-0.0174601
-0.020355
-0.0231745
-0.0258238
-0.0284076
-0.0307899
-0.0331048
-0.0351713
-0.0371619
-0.0388484
-0.0404495
-0.0416876
-0.0428344
-0.0435604
-0.044197
-0.0443593
-0.0444456
-0.0440112
-0.0435287
-0.0424872
-0.0414423
-0.0398078
-0.0382332
-0.0360442
-0.0339972
-0.0313135
-0.0288731
-0.0257722
-0.0230358
-0.0196118
-0.0166979
-0.0130694
-0.0101324
-0.00646844
-0.00373055
-0.000284805
0.00194945
0.00486185
0.00632584
0.00853673
0.00934294
0.0109232
0.0113188
0.0114753
0.020047
0.0202726
0.0203197
0.0202524
0.019604
0.018449
0.0166153
0.0143095
0.0115189
0.00844641
0.0051305
0.00174245
-0.00169152
-0.00504936
-0.00835722
-0.0115245
-0.0146261
-0.0175643
-0.0204496
-0.0231488
-0.0258049
-0.0282363
-0.0306246
-0.0327351
-0.0347961
-0.0365178
-0.038183
-0.0394443
-0.0406461
-0.041381
-0.0420615
-0.0422166
-0.042334
-0.0418745
-0.0414088
-0.0403222
-0.0392783
-0.0375763
-0.0359851
-0.0337029
-0.0316199
-0.0288143
-0.0263171
-0.0230627
-0.0202498
-0.0166403
-0.0136355
-0.00979406
-0.00676612
-0.00287353
-6.97794e-05
0.00360197
0.00584456
0.0089653
0.010355
0.0127528
0.0134
0.0151509
0.015444
0.0157732
0.0206452
0.0208464
0.0209107
0.0209379
0.0205059
0.0196555
0.0181844
0.0162584
0.0138369
0.0110978
0.00805313
0.00486944
0.00156024
-0.00172978
-0.00503289
-0.00822119
-0.0113849
-0.014384
-0.0173591
-0.0201301
-0.022884
-0.0253847
-0.0278697
-0.0300407
-0.0321924
-0.0339621
-0.0357086
-0.0370027
-0.0382742
-0.0390247
-0.0397616
-0.0399137
-0.0400731
-0.0395904
-0.0391511
-0.038019
-0.0369843
-0.0352117
-0.0336104
-0.0312289
-0.0291141
-0.0261762
-0.0236236
-0.0202003
-0.0173086