/*--------------------------------*- C++ -*----------------------------------*\
| =========                 |                                                 |
| \\      /  F ield         | OpenFOAM: The Open Source CFD Toolbox           |
|  \\    /   O peration     | Version:  2406                                  |
|   \\  /    A nd           | Website:  www.openfoam.com                      |
|    \\/     M anipulation  |                                                 |
\*---------------------------------------------------------------------------*/
FoamFile
{
    version     2.0;
    format      ascii;
    arch        "LSB;label=32;scalar=64";
    class       surfaceScalarField;
    location    "27.6";
    object      phi;
}
// * * * * * * * * * * * * * * * * * * * * * * * * * * * * * * * * * * * * * //

dimensions      [0 3 -1 0 0 0 0];

oriented        oriented;

internalField   nonuniform List<scalar> 
7080
(
4.06955e-07
-4.06943e-07
1.28566e-06
-8.78705e-07
2.37571e-06
-1.09005e-06
3.44955e-06
-1.07384e-06
4.38972e-06
-9.40174e-07
5.143e-06
-7.53274e-07
5.69439e-06
-5.5139e-07
6.04507e-06
-3.50684e-07
6.19871e-06
-1.53635e-07
6.15193e-06
4.6781e-08
5.90075e-06
2.51176e-07
5.41581e-06
4.84937e-07
4.65095e-06
7.64868e-07
3.53914e-06
1.1118e-06
1.9941e-06
1.54504e-06
-8.45551e-08
2.07865e-06
-2.80304e-06
2.71849e-06
-6.26285e-06
3.45981e-06
-1.05486e-05
4.28578e-06
-1.57141e-05
5.16545e-06
-2.17657e-05
6.05166e-06
-2.86459e-05
6.88011e-06
-3.62172e-05
7.57131e-06
-4.4253e-05
8.0358e-06
-5.24357e-05
8.18268e-06
-6.03661e-05
7.93045e-06
-6.75837e-05
7.21761e-06
-7.36032e-05
6.01953e-06
-7.79415e-05
4.33823e-06
-8.0155e-05
2.21348e-06
-7.98447e-05
-3.10288e-07
-7.68684e-05
-2.97625e-06
-7.11115e-05
-5.75696e-06
-6.26632e-05
-8.44825e-06
-5.18007e-05
-1.08625e-05
-3.89871e-05
-1.28136e-05
-2.48601e-05
-1.4127e-05
-1.01993e-05
-1.46608e-05
4.12949e-06
-1.43288e-05
1.72518e-05
-1.31223e-05
2.83762e-05
-1.11244e-05
3.68905e-05
-8.51429e-06
4.24411e-05
-5.55066e-06
4.49823e-05
-2.54113e-06
4.47986e-05
1.837e-07
4.22856e-05
2.51294e-06
3.81603e-05
4.12538e-06
3.31063e-05
5.05393e-06
2.7725e-05
5.38135e-06
2.24868e-05
5.23817e-06
1.77027e-05
4.78412e-06
1.35345e-05
4.16824e-06
1.00274e-05
3.50704e-06
7.14817e-06
2.87924e-06
4.821e-06
2.32717e-06
2.963e-06
1.85799e-06
1.52314e-06
1.43987e-06
5.15564e-07
1.00757e-06
2.88439e-08
4.8672e-07
2.88439e-08
8.76776e-07
-1.28372e-06
2.66429e-06
-2.66621e-06
4.73952e-06
-3.16527e-06
6.71458e-06
-3.0489e-06
8.3612e-06
-2.5868e-06
9.55843e-06
-1.9505e-06
1.02405e-05
-1.23341e-06
1.03639e-05
-4.74139e-07
9.88445e-06
3.25832e-07
8.74118e-06
1.19005e-06
6.8382e-06
2.15415e-06
4.05009e-06
3.27305e-06
2.08088e-07
4.60686e-06
-4.89411e-06
6.214e-06
-1.14875e-05
8.1384e-06
-1.98037e-05
1.03949e-05
-3.00415e-05
1.29562e-05
-4.23244e-05
1.57427e-05
-5.6656e-05
1.86173e-05
-7.28743e-05
2.13837e-05
-9.06182e-05
2.37956e-05
-0.000109322
2.55839e-05
-0.000128248
2.6497e-05
-0.000146551
2.63395e-05
-0.000163365
2.49966e-05
-0.000177875
2.24402e-05
-0.000189376
1.87184e-05
-0.000197297
1.39408e-05
-0.00020122
8.26087e-06
-0.000200909
1.90252e-06
-0.000196211
-5.00821e-06
-0.000187084
-1.21034e-05
-0.000173731
-1.91092e-05
-0.000156449
-2.57301e-05
-0.00013569
-3.16217e-05
-0.000112068
-3.64356e-05
-8.6364e-05
-3.98311e-05
-5.95098e-05
-4.1515e-05
-3.25603e-05
-4.12784e-05
-6.64089e-06
-3.90417e-05
1.71247e-05
-3.489e-05
3.77029e-05
-2.90925e-05
5.42475e-05
-2.20953e-05
6.61883e-05
-1.44819e-05
7.32687e-05
-6.89676e-06
7.57251e-05
5.65958e-08
7.40418e-05
5.80863e-06
6.90092e-05
1.00865e-05
6.16412e-05
1.27494e-05
5.29721e-05
1.39073e-05
4.39179e-05
1.38383e-05
3.51822e-05
1.2904e-05
2.72179e-05
1.14713e-05
2.02476e-05
9.84946e-06
1.43221e-05
8.25275e-06
9.39858e-06
6.78149e-06
5.43125e-06
5.4072e-06
2.45318e-06
3.98564e-06
6.07386e-07
2.33251e-06
6.3623e-07
1.11027e-06
-2.39399e-06
3.20484e-06
-4.76078e-06
5.49471e-06
-5.45514e-06
7.53023e-06
-5.08442e-06
9.03908e-06
-4.09565e-06
9.84939e-06
-2.76081e-06
9.83401e-06
-1.21803e-06
8.87334e-06
4.86535e-07
6.83162e-06
2.36755e-06
3.5393e-06
4.48237e-06
-1.22143e-06
6.91488e-06
-7.71597e-06
9.7676e-06
-1.62532e-05
1.31441e-05
-2.71625e-05
1.71232e-05
-4.07496e-05
2.17255e-05
-5.72336e-05
2.6879e-05
-7.66692e-05
3.23918e-05
-9.88685e-05
3.7942e-05
-0.000123347
4.3096e-05
-0.00014933
4.73663e-05
-0.00017583
5.02954e-05
-0.000201779
5.15338e-05
-0.000226164
5.08815e-05
-0.00024811
4.82854e-05
-0.000266924
4.38113e-05
-0.000282093
3.76083e-05
-0.00029325
2.98759e-05
-0.00030015
2.08411e-05
-0.000302644
1.0754e-05
-0.000300653
-8.80646e-08
-0.00029418
-1.14816e-05
-0.000283244
-2.30389e-05
-0.000267945
-3.44085e-05
-0.000248483
-4.51922e-05
-0.000225163
-5.49412e-05
-0.000198428
-6.31707e-05
-0.000168879
-6.93807e-05
-0.000137288
-7.31056e-05
-0.000104598
-7.39686e-05
-7.18883e-05
-7.17512e-05
-4.03228e-05
-6.64555e-05
-1.10667e-05
-5.83486e-05
1.48065e-05
-4.79686e-05
3.64063e-05
-3.60817e-05
5.31081e-05
-2.35986e-05
6.46229e-05
-1.14583e-05
7.10195e-05
-5.87893e-07
7.25863e-05
8.51966e-06
7.00632e-05
1.52725e-05
6.43733e-05
1.95972e-05
5.65661e-05
2.16454e-05
4.76656e-05
2.18045e-05
3.85392e-05
2.05978e-05
2.98198e-05
1.85689e-05
2.18955e-05
1.6177e-05
1.49625e-05
1.37145e-05
9.12142e-06
1.12483e-05
4.48991e-06
8.61715e-06
1.29888e-06
5.52355e-06
1.93511e-06
1.13593e-06
-3.52992e-06
3.1372e-06
-6.76205e-06
5.13419e-06
-7.45213e-06
6.64946e-06
-6.59968e-06
7.38553e-06
-4.83173e-06
7.12299e-06
-2.49827e-06
5.66044e-06
2.44514e-07
2.77797e-06
3.36901e-06
-1.78256e-06
6.92807e-06
-8.33026e-06
1.10301e-05
-1.72291e-05
1.58137e-05
-2.88838e-05
2.14223e-05
-4.3702e-05
2.79624e-05
-6.2025e-05
3.54462e-05
-8.40274e-05
4.37279e-05
-0.000109604
5.24552e-05
-0.00013828
6.10681e-05
-0.000169207
6.88687e-05
-0.000201261
7.51506e-05
-0.000233231
7.93358e-05
-0.000263992
8.10568e-05
-0.000292625
8.01671e-05
-0.000318444
7.67003e-05
-0.000340972
7.08134e-05
-0.000359894
6.27332e-05
-0.000375005
5.27194e-05
-0.000386169
4.10396e-05
-0.000393283
2.79554e-05
-0.000396259
1.37304e-05
-0.000395017
-1.33014e-06
-0.000389488
-1.70109e-05
-0.000379618
-3.29086e-05
-0.000365365
-4.86618e-05
-0.000346734
-6.3823e-05
-0.000323819
-7.78559e-05
-0.000296831
-9.01587e-05
-0.00026614
-0.000100072
-0.000232314
-0.000106932
-0.000196142
-0.00011014
-0.00015864
-0.000109254
-0.000121005
-0.000104091
-8.45395e-05
-9.48138e-05
-5.05356e-05
-8.19725e-05
-2.01436e-05
-6.64736e-05
5.73642e-06
-4.94786e-05
2.65222e-05
-3.22441e-05
4.1892e-05
-1.59577e-05
5.19703e-05
-1.55861e-06
5.70365e-05
1.02063e-05
5.76838e-05
1.895e-05
5.47278e-05
2.46014e-05
4.91326e-05
2.73997e-05
4.18914e-05
2.78389e-05
3.39001e-05
2.65602e-05
2.58685e-05
2.42086e-05
1.82996e-05
2.12834e-05
1.15414e-05
1.80065e-05
5.89994e-06
1.42586e-05
1.78998e-06
9.63351e-06
3.72509e-06
1.02441e-06
-4.55433e-06
2.61688e-06
-8.35451e-06
3.90448e-06
-8.73973e-06
4.4134e-06
-7.10861e-06
3.8254e-06
-4.24373e-06
1.86174e-06
-5.34606e-07
-1.77593e-06
3.88218e-06
-7.43075e-06
9.02383e-06
-1.55044e-05
1.50017e-05
-2.64534e-05
2.1979e-05
-4.07673e-05
3.01276e-05
-5.89131e-05
3.95681e-05
-8.12366e-05
5.02859e-05
-0.000107826
6.20359e-05
-0.000138377
7.42789e-05
-0.000172127
8.62045e-05
-0.000207925
9.68667e-05
-0.00024444
0.000105384
-0.000280394
0.000111104
-0.000314729
0.000113671
-0.000346667
0.000112995
-0.000375684
0.000109184
-0.000401449
0.000102466
-0.000423767
9.31305e-05
-0.000442522
8.14884e-05
-0.000457649
6.7847e-05
-0.000469108
5.24986e-05
-0.000476868
3.57152e-05
-0.000480883
1.77453e-05
-0.000481058
-1.15591e-06
-0.000477365
-2.07036e-05
-0.000469664
-4.06091e-05
-0.000457804
-6.05217e-05
-0.000441632
-7.9995e-05
-0.000421008
-9.848e-05
-0.000395856
-0.000115311
-0.000366214
-0.000129714
-0.000332313
-0.000140834
-0.000294639
-0.000147814
-0.000254
-0.000149892
-0.000211538
-0.000146554
-0.000168682
-0.000137669
-0.000127035
-0.00012362
-8.81777e-05
-0.000105331
-5.34622e-05
-8.41942e-05
-2.38477e-05
-6.18586e-05
1.50203e-07
-3.99556e-05
1.845e-05
-1.98584e-05
3.12297e-05
-2.57341e-06
3.88924e-05
1.12873e-05
4.20243e-05
2.14695e-05
4.13851e-05
2.80389e-05
3.78629e-05
3.13611e-05
3.23875e-05
3.20356e-05
2.58285e-05
3.07677e-05
1.89233e-05
2.81886e-05
1.22719e-05
2.46578e-05
6.41461e-06
2.01159e-05
1.98352e-06
1.40646e-05
5.70861e-06
7.85639e-07
-5.33997e-06
1.67781e-06
-9.24668e-06
1.86896e-06
-8.93088e-06
9.18649e-07
-6.1583e-06
-1.51677e-06
-1.80831e-06
-5.79587e-06
3.7445e-06
-1.23354e-05
1.04218e-05
-2.1619e-05
1.83074e-05
-3.41866e-05
2.75693e-05
-5.06001e-05
3.83925e-05
-7.13704e-05
5.08979e-05
-9.68325e-05
6.50301e-05
-0.000126981
8.04347e-05
-0.000161329
9.63833e-05
-0.000198875
0.000111826
-0.000238259
0.000125588
-0.000278022
0.00013663
-0.000316868
0.00014423
-0.000353792
0.000148028
-0.000388094
0.000147972
-0.000419321
0.000144222
-0.000447209
0.000137072
-0.000471628
0.000126885
-0.000492545
0.000114047
-0.000509995
9.89388e-05
-0.000524059
8.19107e-05
-0.000534834
6.32733e-05
-0.000542419
4.33002e-05
-0.000546906
2.22326e-05
-0.00054823
1.6817e-07
-0.000546504
-2.2429e-05
-0.000541528
-4.55855e-05
-0.000533104
-6.8946e-05
-0.000520951
-9.21475e-05
-0.000504707
-0.000114724
-0.000483975
-0.000136043
-0.00045838
-0.000155309
-0.000427659
-0.000171555
-0.000391774
-0.000183699
-0.000351039
-0.000190627
-0.000306238
-0.000191354
-0.000258682
-0.000185225
-0.000210168
-0.000172134
-0.000162802
-0.000152697
-0.000118693
-0.000128303
-7.95892e-05
-0.000100962
-4.65967e-05
-7.29481e-05
-2.01016e-05
-4.63536e-05
6.41701e-08
-2.27391e-05
1.43771e-05
-3.02564e-06
2.34534e-05
1.23932e-05
2.79853e-05
2.35069e-05
2.87522e-05
3.05942e-05
2.66117e-05
3.41761e-05
2.24509e-05
3.49285e-05
1.71222e-05
3.35173e-05
1.14085e-05
3.03715e-05
6.05654e-06
2.54679e-05
1.88307e-06
1.82381e-05
7.59168e-06
4.00377e-07
-5.74035e-06
2.92121e-07
-9.13842e-06
-1.00121e-06
-7.63755e-06
-3.85542e-06
-3.30409e-06
-8.65039e-06
2.98665e-06
-1.58474e-05
1.09415e-05
-2.59955e-05
2.05699e-05
-3.9706e-05
3.20179e-05
-5.76032e-05
4.54664e-05
-8.02345e-05
6.10238e-05
-0.000107926
7.85896e-05
-0.000140602
9.77056e-05
-0.000177637
0.00011747
-0.000217861
0.000136608
-0.000259755
0.00015372
-0.000301762
0.000167594
-0.000342536
0.000177404
-0.000381056
0.000182751
-0.000416615
0.000183588
-0.000448763
0.00018012
-0.000477258
0.000172717
-0.000502028
0.000161842
-0.000523136
0.000147993
-0.000540754
0.000131665
-0.000555121
0.000113306
-0.000566515
9.33044e-05
-0.000575217
7.19755e-05
-0.000581485
4.95686e-05
-0.000585515
2.62624e-05
-0.000587474
2.12716e-06
-0.000587368
-2.25355e-05
-0.000585169
-4.77839e-05
-0.00058068
-7.34351e-05
-0.000573566
-9.92617e-05
-0.000563346
-0.000124944
-0.000549391
-0.000149998
-0.000530961
-0.000173739
-0.000507274
-0.000195242
-0.000477632
-0.000213342
-0.000441584
-0.000226675
-0.00039914
-0.000233797
-0.000350976
-0.00023339
-0.000298568
-0.000224542
-0.000244187
-0.000207078
-0.000190663
-0.000181828
-0.000140905
-0.000150719
-9.73018e-05
-0.000116552
-6.12248e-05
-8.24306e-05
-3.29267e-05
-5.10372e-05
-1.18464e-05
-2.4106e-05
2.92037e-06
-2.37348e-06
1.23104e-05
1.41169e-05
1.72087e-05
2.56959e-05
1.84822e-05
3.29026e-05
1.70136e-05
3.63971e-05
1.36973e-05
3.68336e-05
9.4206e-06
3.46482e-05
5.06932e-06
2.98192e-05
1.57234e-06
2.1735e-05
9.16402e-06
-1.62126e-07
-5.57822e-06
-1.5997e-06
-7.70085e-06
-4.75952e-06
-4.47773e-06
-9.94487e-06
1.88126e-06
-1.75868e-05
1.06285e-05
-2.82616e-05
2.16164e-05
-4.26373e-05
3.49455e-05
-6.13945e-05
5.07751e-05
-8.51196e-05
6.91916e-05
-0.000114147
9.00516e-05
-0.000148368
0.000112811
-0.000187081
0.000136418
-0.000229003
0.000159391
-0.000272491
0.000180096
-0.000315871
0.000197101
-0.000357702
0.000209424
-0.000396876
0.000216578
-0.000432618
0.000218492
-0.000464443
0.000215412
-0.000492123
0.0002078
-0.000515657
0.000196252
-0.000535231
0.000181416
-0.00055117
0.000163932
-0.000563886
0.00014438
-0.000573827
0.000123247
-0.000581439
0.000100916
-0.000587135
7.76719e-05
-0.00059127
5.37032e-05
-0.000594127
2.912e-05
-0.000595972
3.97223e-06
-0.000596848
-2.16593e-05
-0.000596816
-4.78163e-05
-0.000595782
-7.44692e-05
-0.000593487
-0.000101557
-0.000589495
-0.000128936
-0.000583153
-0.00015634
-0.000573577
-0.000183315
-0.000559667
-0.000209152
-0.00054018
-0.000232829
-0.000513875
-0.00025298
-0.000479747
-0.000267925
-0.000437334
-0.000275803
-0.000387057
-0.000274819
-0.000330491
-0.000263644
-0.000270435
-0.000241884
-0.000210633
-0.00021052
-0.000155082
-0.000172103
-0.000107065
-0.000130447
-6.83408e-05
-8.97618e-05
-3.89674e-05
-5.34794e-05
-1.78576e-05
-2.34832e-05
-3.56328e-06
-1.77448e-07
5.25371e-06
1.68789e-05
9.72519e-06
2.84311e-05
1.08566e-05
3.52657e-05
9.60856e-06
3.80816e-05
6.93677e-06
3.732e-05
3.80311e-06
3.29529e-05
1.17464e-06
2.43635e-05
1.03387e-05
-9.11332e-07
-4.66689e-06
-4.0209e-06
-4.59129e-06
-9.42111e-06
9.22482e-07
-1.73286e-05
9.78872e-06
-2.82442e-05
2.15442e-05
-4.2853e-05
3.62252e-05
-6.18873e-05
5.39798e-05
-8.59832e-05
7.4871e-05
-0.00011551
9.87188e-05
-0.000150373
0.000124915
-0.000189855
0.000152292
-0.000232617
0.00017918
-0.000276918
0.000203692
-0.000320951
0.000224129
-0.000363132
0.000239281
-0.000402219
0.000248512
-0.000437337
0.000251695
-0.000467954
0.00024911
-0.000493869
0.000241327
-0.000515172
0.000229104
-0.000532194
0.000213273
-0.000545426
0.000194648
-0.000555449
0.000173955
-0.000562861
0.000151792
-0.000568229
0.000128614
-0.000572058
0.000104746
-0.000574778
8.03919e-05
-0.000576739
5.56644e-05
-0.000578226
3.06069e-05
-0.000579479
5.22564e-06
-0.000580614
-2.05244e-05
-0.000581735
-4.66951e-05
-0.000582862
-7.33423e-05
-0.000583902
-0.000100517
-0.00058461
-0.000128227
-0.000584535
-0.000156415
-0.000582954
-0.000184896
-0.000578818
-0.000213288
-0.000570732
-0.000240915
-0.000557002
-0.00026671
-0.00053579
-0.000289137
-0.000505407
-0.000306186
-0.000464739
-0.000315487
-0.00041376
-0.000314623
-0.000354004
-0.000301639
-0.000288791
-0.000275733
-0.000222938
-0.000237956
-0.000161798
-0.000191587
-0.000109796
-0.000141764
-6.91294e-05
-9.41459e-05
-3.95374e-05
-5.30752e-05
-1.9246e-05
-2.04689e-05
-6.17696e-06
3.80986e-06
1.43987e-06
2.08142e-05
5.00456e-06
3.1701e-05
5.68576e-06
3.74004e-05
4.54521e-06
3.84605e-05
2.59862e-06
3.48995e-05
8.10002e-07
2.61521e-05
1.11487e-05
-1.87563e-06
-2.79126e-06
-6.97429e-06
5.07383e-07
-1.49338e-05
8.88194e-06
-2.58797e-05
2.07347e-05
-4.03848e-05
3.60493e-05
-5.92021e-05
5.50425e-05
-8.30305e-05
7.78082e-05
-0.000112307
0.000104147
-0.000146999
0.000133411
-0.000186439
0.000164354
-0.000229293
0.000195146
-0.000273754
0.000223642
-0.000317885
0.000247823
-0.00035993
0.000266174
-0.000398488
0.000277839
-0.000432563
0.000282587
-0.000461579
0.000280711
-0.000485369
0.0002729
-0.000504135
0.000260093
-0.000518366
0.000243335
-0.000528729
0.000223636
-0.000535966
0.000201885
-0.000540802
0.000178792
-0.000543889
0.000154879
-0.000545774
0.000130499
-0.000546891
0.000105863
-0.000547574
8.10744e-05
-0.000548074
5.61645e-05
-0.000548586
3.11189e-05
-0.000549269
5.90846e-06
-0.000550239
-1.95544e-05
-0.000551613
-4.53205e-05
-0.000553486
-7.147e-05
-0.000555913
-9.80897e-05
-0.000558878
-0.000125262
-0.000562236
-0.000153058
-0.000565632
-0.0001815
-0.000568404
-0.000210516
-0.000569476
-0.000239842
-0.000567281
-0.000268905
-0.000559755
-0.000296664
-0.000544472
-0.000321468
-0.000518978
-0.000340982
-0.000481335
-0.000352266
-0.00043086
-0.000352115
-0.000368866
-0.000337727
-0.000299142
-0.000307681
-0.000227712
-0.000263016
-0.000161552
-0.000207924
-0.000106408
-0.00014929
-6.48491e-05
-9.46344e-05
-3.60467e-05
-4.92713e-05
-1.73723e-05
-1.48645e-05
-6.09183e-06
9.53375e-06
-3.02685e-08
2.56395e-05
2.45101e-06
3.49191e-05
2.65837e-06
3.82532e-05
1.70419e-06
3.58536e-05
5.64773e-07
2.72915e-05
1.17134e-05
-3.04345e-06
2.52188e-07
-1.04012e-05
7.86508e-06
-2.11553e-05
1.96361e-05
-3.53413e-05
3.49207e-05
-5.35848e-05
5.42928e-05
-7.66319e-05
7.80896e-05
-0.000105019
0.000106196
-0.00013883
0.000137958
-0.000177508
0.000172089
-0.000219794
0.00020664
-0.000263872
0.000239225
-0.000307696
0.000267465
-0.000349336
0.000289463
-0.000387214
0.000304052
-0.000420202
0.000310826
-0.000447665
0.000310051
-0.000469472
0.000302518
-0.000485934
0.000289362
-0.000497701
0.00027186
-0.000505613
0.000251247
-0.000510565
0.000228588
-0.000513393
0.000204714
-0.00051481
0.000180208
-0.000515371
0.00015544
-0.00051548
0.000130609
-0.000515412
0.000105794
-0.00051534
8.10023e-05
-0.000515374
5.61991e-05
-0.000515592
3.13365e-05
-0.000516051
6.36738e-06
-0.000516829
-1.87761e-05
-0.000518017
-4.41331e-05
-0.000519727
-6.97594e-05
-0.000522095
-9.57221e-05
-0.000525253
-0.000122104
-0.000529302
-0.000149008
-0.000534247
-0.000176556
-0.000539904
-0.000204858
-0.000545776
-0.000233971
-0.000550891
-0.00026379
-0.000553653
-0.000293901
-0.00055176
-0.000323361
-0.000542273
-0.000350469
-0.000521955
-0.000372584
-0.000487929
-0.00038614
-0.000438664
-0.000386992
-0.000375082
-0.000371263
-0.000301397
-0.000336702
-0.000225001
-0.00028432
-0.000154746
-0.000219544
-9.77731e-05
-0.000151608
-5.6725e-05
-9.03194e-05
-2.98236e-05
-4.17659e-05
-1.34661e-05
-6.82367e-06
-4.34012e-06
1.65134e-05
3.44895e-08
3.05445e-05
1.44289e-06
3.68448e-05
1.23416e-06
3.60624e-05
4.78577e-07
2.80471e-05
1.2192e-05
-4.38089e-06
4.63308e-06
-1.41808e-05
1.7665e-05
-2.78488e-05
3.33041e-05
-4.53253e-05
5.23971e-05
-6.72454e-05
7.62129e-05
-9.42486e-05
0.000105093
-0.000126581
0.000138528
-0.000163864
0.000175241
-0.000204991
0.000213216
-0.000248212
0.000249862
-0.000291425
0.000282437
-0.000332545
0.000308586
-0.000369808
0.000326726
-0.000401932
0.000336176
-0.000428201
0.000337095
-0.000448486
0.000330336
-0.000463189
0.00031722
-0.000473101
0.000299274
-0.000479224
0.000277983
-0.000482593
0.000254616
-0.000484143
0.000230139
-0.000484634
0.000205204
-0.000484617
0.000180191
-0.000484455
0.000155277
-0.000484349
0.000130503
-0.00048439
0.000105835
-0.000484596
8.12085e-05
-0.000484953
5.65554e-05
-0.000485437
3.18209e-05
-0.000486036
6.96658e-06
-0.000486777
-1.80352e-05
-0.000487716
-4.31943e-05
-0.000488952
-6.85231e-05
-0.000490631
-9.4043e-05
-0.000492939
-0.000119796
-0.000496089
-0.000145859
-0.000500294
-0.000172351
-0.000505711
-0.000199441
-0.000512349
-0.000227333
-0.000519917
-0.000256222
-0.000527634
-0.000286185
-0.000533991
-0.000317003
-0.000536579
-0.000347881
-0.000532055
-0.000377108
-0.000516444
-0.000401751
-0.000485887
-0.000417549
-0.000437889
-0.00041926
-0.000372881
-0.000401711
-0.000295539
-0.000361662
-0.000214864
-0.000300219
-0.000141841
-0.00022463
-8.48591e-05
-0.000147301
-4.60139e-05
-8.06112e-05
-2.21144e-05
-3.07231e-05
-8.62886e-06
3.02785e-06
-1.86327e-06
2.37789e-05
7.97694e-07
3.41838e-05
1.15975e-06
3.57003e-05
5.44166e-07
2.86627e-05
1.27362e-05
-5.8265e-06
1.04596e-05
-1.81357e-05
2.99742e-05
-3.4696e-05
4.98644e-05
-5.53386e-05
7.30397e-05
-8.06433e-05
0.000101518
-0.00011104
0.00013549
-0.000146391
0.000173879
-0.000185819
0.00021467
-0.000227737
0.000255133
-0.000270065
0.00029219
-0.000310613
0.000322984
-0.00034743
0.000345404
-0.000379057
0.000358353
-0.000404649
0.000361768
-0.000424032
0.000356478
-0.000437647
0.00034395
-0.000446391
0.000325965
-0.000451403
0.000304286
-0.000453848
0.000280427
-0.000454752
0.000255521
-0.000454919
0.000230306
-0.000454897
0.000205182
-0.000455008
0.000180302
-0.000455391
0.00015566
-0.00045606
0.000131172
-0.000456955
0.000106731
-0.000457986
8.22396e-05
-0.000459059
5.76277e-05
-0.000460095
3.28568e-05
-0.000461045
7.91652e-06
-0.000461899
-1.71803e-05
-0.000462688
-4.24053e-05
-0.000463486
-6.77257e-05
-0.000464415
-9.31142e-05
-0.000465649
-0.000118562
-0.000467416
-0.000144092
-0.000469991
-0.000169776
-0.000473676
-0.000195755
-0.000478762
-0.000222248
-0.00048543
-0.000249553
-0.000493604
-0.000278011
-0.000502713
-0.000307894
-0.000511396
-0.000339198
-0.000517214
-0.000371291
-0.00051651
-0.000402456
-0.000504636
-0.000429422
-0.000476769
-0.000447127
-0.000429436
-0.000449044
-0.000362605
-0.000428492
-0.000281629
-0.000381195
-0.000197508
-0.000308751
-0.000123576
-0.000221234
-6.89216e-05
-0.000135266
-3.40799e-05
-6.55649e-05
-1.41316e-05
-1.69204e-05
-3.91379e-06
1.35611e-05
3.77999e-07
2.9892e-05
1.32354e-06
3.47548e-05
7.13276e-07
2.9273e-05
1.34495e-05
-7.29492e-06
1.77545e-05
-2.20456e-05
4.47249e-05
-4.13256e-05
6.91444e-05
-6.48307e-05
9.65448e-05
-9.30118e-05
0.000129699
-0.000126007
0.000168485
-0.000163253
0.000211124
-0.000203417
0.000254834
-0.000244557
0.000296272
-0.000284447
0.00033208
-0.000320982
0.00035952
-0.000352499
0.000376921
-0.000377976
0.000383829
-0.000397117
0.00038091
-0.000410333
0.000369693
-0.000418571
0.000352189
-0.000423072
0.000330467
-0.000425117
0.000306331
-0.000425826
0.000281136
-0.000426053
0.000255747
-0.000426356
0.000230608
-0.000427028
0.000205854
-0.000428159
0.000181434
-0.000429705
0.000157206
-0.000431545
0.000133012
-0.00043353
0.000108717
-0.000435517
8.42256e-05
-0.000437378
5.94888e-05
-0.000439019
3.44981e-05
-0.000440381
9.27811e-06
-0.000441439
-1.61219e-05
-0.000442207
-4.16375e-05
-0.000442734
-6.71981e-05
-0.000443113
-9.2736e-05
-0.000443477
-0.000118197
-0.000444016
-0.000143553
-0.000444976
-0.000168816
-0.000446669
-0.000194062
-0.000449466
-0.000219451
-0.000453764
-0.000245255
-0.000459904
-0.000271872
-0.000468005
-0.000299793
-0.000477705
-0.000329499
-0.000487786
-0.00036121
-0.000495789
-0.000394453
-0.000497758
-0.000427453
-0.000488403
-0.000456483
-0.000461977
-0.000475471
-0.00041412
-0.000476349
-0.000344569
-0.000450746
-0.000259821
-0.000393499
-0.00017347
-0.000307584
-0.000101212
-0.000207524
-5.16002e-05
-0.000115177
-2.23675e-05
-4.61531e-05
-7.05153e-06
-1.75482e-06
-3.32708e-07
2.31732e-05
1.47868e-06
3.29434e-05
9.10363e-07
2.98413e-05
1.43598e-05
-8.68514e-06
2.64396e-05
-2.56699e-05
6.17096e-05
-4.73511e-05
9.08256e-05
-7.32536e-05
0.000122447
-0.000103632
0.000160077
-0.000138288
0.000203141
-0.000176248
0.000249085
-0.000215821
0.000294408
-0.000254864
0.000335315
-0.000291177
0.000368393
-0.000322893
0.000391236
-0.000348759
0.000402787
-0.000368285
0.000403355
-0.000381756
0.00039438
-0.000390094
0.000378031
-0.000394596
0.000356691
-0.000396638
0.000332509
-0.00039744
0.000307133
-0.000397923
0.000281619
-0.000398675
0.000256499
-0.000399984
0.000231917
-0.000401908
0.000207779
-0.000404362
0.000183887
-0.00040718
0.000160024
-0.000410173
0.000136005
-0.000413161
0.000111704
-0.000415985
8.70505e-05
-0.000418525
6.20285e-05
-0.000420691
3.66643e-05
-0.000422429
1.10159e-05
-0.000423715
-1.4836e-05
-0.000424555
-4.07975e-05
-0.000424984
-6.67696e-05
-0.000425064
-9.26551e-05
-0.000424894
-0.000118367
-0.000424608
-0.000143839
-0.000424391
-0.000169033
-0.000424491
-0.000193962
-0.000425233
-0.000218708
-0.000427033
-0.000243455
-0.000430375
-0.00026853
-0.000435741
-0.000294427
-0.000443437
-0.000321802
-0.000453291
-0.000351356
-0.000464199
-0.000383545
-0.000473626
-0.000418026
-0.000477248
-0.00045286
-0.000469084
-0.000483635
-0.000442501
-0.000502932
-0.000392458
-0.000500789
-0.000318945
-0.000467012
-0.00023043
-0.000396099
-0.000143859
-0.000294096
-7.67066e-05
-0.000182329
-3.47941e-05
-8.80656e-05
-1.2244e-05
-2.4305e-05
-1.89628e-06
1.28255e-05
1.35322e-06
2.96939e-05
1.05458e-06
3.01399e-05
1.54144e-05
-9.89211e-06
3.63318e-05
-2.87737e-05
8.05912e-05
-5.24127e-05
0.000114465
-8.0123e-05
0.000150158
-0.000111915
0.000191869
-0.00014725
0.000238476
-0.000184811
0.000286646
-0.000222673
0.000332269
-0.000258646
0.000371288
-0.000290702
0.000400449
-0.000317332
0.000417866
-0.000337774
0.000423229
-0.000352092
0.000417673
-0.000361086
0.000403374
-0.000366038
0.000382984
-0.000368394
0.000359046
-0.00036947
0.000333586
-0.000370281
0.000307944
-0.000371472
0.00028281
-0.000373354
0.000258381
-0.000375978
0.000234541
-0.000379234
0.000211035
-0.000382927
0.00018758
-0.000386839
0.000163936
-0.000390764
0.000139931
-0.000394526
0.000115466
-0.000397984
9.05086e-05
-0.000401033
6.50774e-05
-0.0004036
3.92311e-05
-0.00040564
1.30564e-05
-0.000407136
-1.33405e-05
-0.000408091
-3.98425e-05
-0.000408532
-6.63287e-05
-0.000408506
-9.2681e-05
-0.000408082
-0.000118791
-0.000407356
-0.000144565
-0.000406454
-0.000169935
-0.000405548
-0.000194868
-0.000404874
-0.000219382
-0.000404758
-0.000243571
-0.000405639
-0.000267649
-0.000408069
-0.000291997
-0.000412655
-0.000317215
-0.000419878
-0.000344133
-0.000429729
-0.000373693
-0.000441167
-0.000406588
-0.000451477
-0.00044255
-0.000455825
-0.000479287
-0.00044742
-0.000511337
-0.000418779
-0.00052943
-0.000364533
-0.000521258
-0.000285762
-0.00047487
-0.00019416
-0.000385697
-0.000110684
-0.000265805
-5.26546e-05
-0.000146095
-2.02804e-05
-5.66791e-05
-4.78262e-06
-2.67228e-06
7.28326e-07
2.41829e-05
1.083e-06
2.97852e-05
1.64974e-05
-1.08192e-05
4.7151e-05
-3.11527e-05
0.000100925
-5.62131e-05
0.000139525
-8.50662e-05
0.000179011
-0.000117455
0.000224259
-0.000152538
0.000273558
-0.000188747
0.000322855
-0.000224052
0.000367574
-0.000256358
0.000403594
-0.00028392
0.00042801
-0.000305658
0.000439604
-0.000321323
0.000438895
-0.000331481
0.000427831
-0.000337308
0.000409201
-0.000340263
0.000385939
-0.000341756
0.000360538
-0.000342908
0.000334738
-0.00034446
0.000309495
-0.000346777
0.000285127
-0.000349932
0.000261536
-0.000353812
0.000238421
-0.000358206
0.000215429
-0.000362877
0.000192252
-0.000367603
0.000168662
-0.000372192
0.00014452
-0.000376494
0.000119767
-0.000380391
9.44055e-05
-0.000383798
6.84848e-05
-0.000386657
4.20904e-05
-0.000388933
1.53322e-05
-0.000390611
-1.16629e-05
-0.000391694
-3.87589e-05
-0.000392206
-6.5817e-05
-0.000392185
-9.27025e-05
-0.000391685
-0.000119291
-0.000390777
-0.000145473
-0.000389551
-0.000171161
-0.000388123
-0.000196296
-0.000386649
-0.000220856
-0.000385348
-0.000244872
-0.000384539
-0.000268458
-0.000384677
-0.00029186
-0.00038637
-0.000315522
-0.000390338
-0.000340165
-0.000397212
-0.000366819
-0.000407112
-0.000396688
-0.000418969
-0.000430694
-0.00042973
-0.000468526
-0.000433845
-0.000507222
-0.000423559
-0.000539716
-0.000390631
-0.000554186
-0.000329975
-0.000535526
-0.00024509
-0.000470582
-0.000152546
-0.000358348
-7.71039e-05
-0.000221538
-3.17082e-05
-0.000102075
-9.30619e-06
-2.50742e-05
-5.24508e-07
1.54013e-05
9.65503e-07
2.82952e-05
1.74629e-05
-1.13892e-05
5.85402e-05
-3.26524e-05
0.000122188
-5.85428e-05
0.000165415
-8.78502e-05
0.000208318
-0.000120054
0.000256462
-0.000154068
0.000307573
-0.000188184
0.000356971
-0.000220387
0.000399778
-0.000248781
0.000431989
-0.000271975
0.000451204
-0.000289345
0.000456973
-0.000301112
0.000450663
-0.00030823
0.000434949
-0.000312089
0.000413059
-0.000314152
0.000388002
-0.000315662
0.000362048
-0.000317481
0.000336558
-0.00032007
0.000312085
-0.000323559
0.000288615
-0.000327853
0.00026583
-0.000332743
0.000243311
-0.000337982
0.000220668
-0.000343336
0.000197606
-0.000348605
0.000173931
-0.000353629
0.000149544
-0.000358284
0.000124422
-0.000362476
9.85978e-05
-0.000366136
7.21449e-05
-0.000369215
4.5169e-05
-0.000371681
1.77982e-05
-0.00037352
-9.82333e-06
-0.000374736
-3.75428e-05
-0.000375348
-6.52054e-05
-0.000375389
-9.26612e-05
-0.000374908
-0.000119772
-0.000373965
-0.000146416
-0.000372632
-0.000172494
-0.000370993
-0.000197935
-0.000369152
-0.000222697
-0.000367248
-0.000246776
-0.000365484
-0.000270223
-0.000364168
-0.000293176
-0.000363771
-0.000315918
-0.000364963
-0.000338974
-0.000368569
-0.000363213
-0.000375353
-0.000389905
-0.000385493
-0.000420554
-0.000397749
-0.00045627
-0.000408503
-0.000496468
-0.000411219
-0.000537
-0.000397043
-0.000568363
-0.000357258
-0.000575311
-0.000288123
-0.000539716
-0.000197543
-0.000448929
-0.000108625
-0.000310455
-4.71145e-05
-0.000163586
-1.56652e-05
-5.65235e-05
-2.48976e-06
2.22576e-06
7.02461e-07
2.5103e-05
1.81654e-05
-1.1552e-05
7.00922e-05
-3.31788e-05
0.000143815
-5.92922e-05
0.000191529
-8.83882e-05
0.000237414
-0.000119706
0.00028778
-0.000151995
0.000339861
-0.000183503
0.000388479
-0.000212334
0.000428609
-0.000236861
0.000456516
-0.000256076
0.00047042
-0.000269781
0.000470679
-0.000278584
0.000459465
-0.000283684
0.000440049
-0.000286529
0.000415904
-0.000288461
0.000389934
-0.000290486
0.000364074
-0.0002932
0.000339271
-0.000296824
0.000315709
-0.000301317
0.000293109
-0.000306488
0.000271002
-0.000312091
0.000248914
-0.000317885
0.000226463
-0.000323664
0.000203384
-0.000329261
0.000179528
-0.000334549
0.000154832
-0.000339428
0.000129302
-0.000343821
0.000102991
-0.000347668
7.59911e-05
-0.000350921
4.84227e-05
-0.000353552
2.04286e-05
-0.000355543
-7.83207e-06
-0.000356895
-3.61906e-05
-0.000357625
-6.44762e-05
-0.000357762
-9.25237e-05
-0.000357353
-0.000120181
-0.000356453
-0.000147316
-0.000355128
-0.000173819
-0.00035345
-0.000199613
-0.000351499
-0.000224648
-0.000349368
-0.000248907
-0.000347177
-0.000272413
-0.000345113
-0.00029524
-0.000343477
-0.000317554
-0.000342764
-0.000339687
-0.000343713
-0.000362264
-0.000347267
-0.000386351
-0.000354295
-0.000413525
-0.000364937
-0.000445628
-0.000377557
-0.000483848
-0.000387644
-0.000526913
-0.000387374
-0.000568632
-0.000366777
-0.000595908
-0.000317343
-0.00058915
-0.000238483
-0.00052779
-0.000145171
-0.000403767
-6.73873e-05
-0.000241369
-2.39991e-05
-9.99117e-05
-5.19752e-06
-1.65758e-05
2.93979e-07
1.96115e-05
1.84593e-05
-1.12874e-05
8.13796e-05
-3.27014e-05
0.000165229
-5.84483e-05
0.000217276
-8.67266e-05
0.000265692
-0.000116571
0.000317625
-0.000146646
0.000369936
-0.000175245
0.000417078
-0.000200662
0.000454025
-0.000221575
0.000477429
-0.000237346
0.000486191
-0.000248141
0.000481474
-0.000254838
0.000466161
-0.000258747
0.000443958
-0.000261249
0.000418407
-0.000263491
0.000392176
-0.000266228
0.00036681
-0.000269818
0.000342861
-0.000274306
0.000320197
-0.000279545
0.000298348
-0.000285305
0.000276761
-0.000291342
0.000254952
-0.000297447
0.000232567
-0.000303449
0.000209386
-0.000309217
0.000185296
-0.00031465
0.000160265
-0.000319666
0.000134317
-0.000324196
0.000107521
-0.000328184
7.99793e-05
-0.000331585
5.18229e-05
-0.000334364
2.32077e-05
-0.000336503