/*--------------------------------*- C++ -*----------------------------------*\
| =========                 |                                                 |
| \\      /  F ield         | OpenFOAM: The Open Source CFD Toolbox           |
|  \\    /   O peration     | Version:  2406                                  |
|   \\  /    A nd           | Website:  www.openfoam.com                      |
|    \\/     M anipulation  |                                                 |
\*---------------------------------------------------------------------------*/
FoamFile
{
    version     2.0;
    format      ascii;
    arch        "LSB;label=32;scalar=64";
    class       volVectorField;
    location    "7.25";
    object      U;
}
// * * * * * * * * * * * * * * * * * * * * * * * * * * * * * * * * * * * * * //

dimensions      [0 1 -1 0 0 0 0];

internalField   nonuniform List<vector> 
14400
(
(2.19269e-06 -2.18352e-06 0)
(4.7714e-06 -2.16368e-07 0)
(-3.97299e-06 3.02592e-06 0)
(-2.5246e-05 6.16567e-06 0)
(-5.79883e-05 8.77672e-06 0)
(-0.000100106 1.07994e-05 0)
(-0.000149449 1.22901e-05 0)
(-0.000204129 1.3344e-05 0)
(-0.000262602 1.4059e-05 0)
(-0.000323663 1.45197e-05 0)
(-0.000386399 1.47955e-05 0)
(-0.000450143 1.49406e-05 0)
(-0.000514419 1.49963e-05 0)
(-0.000578898 1.49935e-05 0)
(-0.000643363 1.49543e-05 0)
(-0.000707675 1.48942e-05 0)
(-0.000771752 1.48238e-05 0)
(-0.000835551 1.47498e-05 0)
(-0.000899052 1.46762e-05 0)
(-0.000962252 1.4605e-05 0)
(-0.00102515 1.45369e-05 0)
(-0.00108776 1.44716e-05 0)
(-0.00115007 1.44083e-05 0)
(-0.0012121 1.43458e-05 0)
(-0.00127383 1.42826e-05 0)
(-0.00133526 1.42173e-05 0)
(-0.00139638 1.41483e-05 0)
(-0.00145715 1.40742e-05 0)
(-0.00151755 1.39934e-05 0)
(-0.00157755 1.39045e-05 0)
(-0.00163712 1.3806e-05 0)
(-0.00169619 1.36965e-05 0)
(-0.00175473 1.35746e-05 0)
(-0.00181268 1.3439e-05 0)
(-0.00186996 1.32881e-05 0)
(-0.00192653 1.31205e-05 0)
(-0.00198229 1.2935e-05 0)
(-0.00203717 1.27299e-05 0)
(-0.00209109 1.2504e-05 0)
(-0.00214395 1.22557e-05 0)
(-0.00219566 1.19838e-05 0)
(-0.00224611 1.16867e-05 0)
(-0.00229519 1.13633e-05 0)
(-0.00234279 1.10122e-05 0)
(-0.00238879 1.06321e-05 0)
(-0.00243307 1.0222e-05 0)
(-0.0024755 9.78085e-06 0)
(-0.00251594 9.30774e-06 0)
(-0.00255427 8.80192e-06 0)
(-0.00259035 8.26279e-06 0)
(-0.00262404 7.68996e-06 0)
(-0.0026552 7.08322e-06 0)
(-0.00268369 6.44262e-06 0)
(-0.00270936 5.76842e-06 0)
(-0.00273209 5.06118e-06 0)
(-0.00275174 4.32172e-06 0)
(-0.00276818 3.55115e-06 0)
(-0.00278129 2.75091e-06 0)
(-0.00279095 1.92273e-06 0)
(-0.00279705 1.06817e-06 0)
(-0.00279949 1.90114e-07 0)
(-0.00279818 -7.06527e-07 0)
(-0.00279305 -1.62164e-06 0)
(-0.00278403 -2.55171e-06 0)
(-0.00277107 -3.4925e-06 0)
(-0.00275414 -4.44015e-06 0)
(-0.00273323 -5.39061e-06 0)
(-0.00270832 -6.33958e-06 0)
(-0.00267944 -7.28262e-06 0)
(-0.00264663 -8.21518e-06 0)
(-0.00260994 -9.13266e-06 0)
(-0.00256944 -1.00304e-05 0)
(-0.00252522 -1.09039e-05 0)
(-0.0024774 -1.17486e-05 0)
(-0.0024261 -1.25601e-05 0)
(-0.00237147 -1.33342e-05 0)
(-0.00231367 -1.40671e-05 0)
(-0.00225288 -1.47552e-05 0)
(-0.00218929 -1.53951e-05 0)
(-0.0021231 -1.5984e-05 0)
(-0.00205453 -1.65193e-05 0)
(-0.00198381 -1.69991e-05 0)
(-0.00191115 -1.74216e-05 0)
(-0.00183681 -1.77858e-05 0)
(-0.00176102 -1.8091e-05 0)
(-0.00168403 -1.83369e-05 0)
(-0.00160607 -1.85237e-05 0)
(-0.00152739 -1.8652e-05 0)
(-0.00144823 -1.87227e-05 0)
(-0.00136882 -1.87369e-05 0)
(-0.00128939 -1.86961e-05 0)
(-0.00121018 -1.86017e-05 0)
(-0.00113139 -1.84553e-05 0)
(-0.00105324 -1.82584e-05 0)
(-0.000975938 -1.80124e-05 0)
(-0.000899688 -1.77183e-05 0)
(-0.00082469 -1.73768e-05 0)
(-0.000751144 -1.69882e-05 0)
(-0.000679252 -1.6552e-05 0)
(-0.000609217 -1.60671e-05 0)
(-0.000541253 -1.55318e-05 0)
(-0.000475582 -1.49433e-05 0)
(-0.00041244 -1.42981e-05 0)
(-0.000352081 -1.35917e-05 0)
(-0.000294782 -1.2819e-05 0)
(-0.000240839 -1.19741e-05 0)
(-0.000190579 -1.10506e-05 0)
(-0.000144354 -1.00419e-05 0)
(-0.000102538 -8.94218e-06 0)
(-6.55316e-05 -7.74651e-06 0)
(-3.37423e-05 -6.45264e-06 0)
(-7.57442e-06 -5.0628e-06 0)
(1.26004e-05 -3.58698e-06 0)
(2.6487e-05 -2.04689e-06 0)
(3.39515e-05 -4.90191e-07 0)
(3.51167e-05 9.75992e-07 0)
(3.05167e-05 2.18795e-06 0)
(2.13493e-05 3.00141e-06 0)
(1.06887e-05 2.88842e-06 0)
(1.81054e-06 1.81581e-06 0)
(2.21508e-07 -4.75182e-06 0)
(-1.07861e-05 1.06925e-05 0)
(-4.8349e-05 3.62128e-05 0)
(-0.000114942 6.13813e-05 0)
(-0.000207962 8.3118e-05 0)
(-0.000323508 0.000100575 0)
(-0.000457123 0.000113932 0)
(-0.000604651 0.000123763 0)
(-0.000762517 0.000130734 0)
(-0.000927797 0.000135477 0)
(-0.00109818 0.000138536 0)
(-0.00127191 0.000140358 0)
(-0.00144766 0.000141296 0)
(-0.00162447 0.000141622 0)
(-0.00180169 0.00014154 0)
(-0.00197883 0.000141196 0)
(-0.0021556 0.000140694 0)
(-0.0023318 0.000140104 0)
(-0.0025073 0.00013947 0)
(-0.00268204 0.00013882 0)
(-0.00285598 0.000138165 0)
(-0.00302907 0.000137508 0)
(-0.0032013 0.000136847 0)
(-0.00337263 0.000136173 0)
(-0.00354303 0.000135478 0)
(-0.00371246 0.00013475 0)
(-0.00388085 0.000133976 0)
(-0.00404813 0.000133145 0)
(-0.00421421 0.000132243 0)
(-0.00437898 0.000131257 0)
(-0.00454234 0.000130177 0)
(-0.00470415 0.000128988 0)
(-0.00486426 0.000127679 0)
(-0.00502251 0.000126238 0)
(-0.00517873 0.000124651 0)
(-0.00533272 0.000122908 0)
(-0.00548429 0.000120995 0)
(-0.00563321 0.0001189 0)
(-0.00577925 0.000116612 0)
(-0.00592216 0.000114118 0)
(-0.00606169 0.000111405 0)
(-0.00619756 0.000108464 0)
(-0.00632947 0.000105282 0)
(-0.00645714 0.000101849 0)
(-0.00658025 9.81553e-05 0)
(-0.00669847 9.41917e-05 0)
(-0.00681149 8.995e-05 0)
(-0.00691895 8.54235e-05 0)
(-0.00702052 8.06065e-05 0)
(-0.00711584 7.54951e-05 0)
(-0.00720457 7.00868e-05 0)
(-0.00728634 6.43811e-05 0)
(-0.00736081 5.83795e-05 0)
(-0.00742763 5.20856e-05 0)
(-0.00748646 4.55055e-05 0)
(-0.00753697 3.86474e-05 0)
(-0.00757884 3.15225e-05 0)
(-0.00761176 2.41443e-05 0)
(-0.00763547 1.6529e-05 0)
(-0.00764968 8.69511e-06 0)
(-0.00765418 6.64345e-07 0)
(-0.00764874 -7.53324e-06 0)
(-0.00763319 -1.58773e-05 0)
(-0.00760739 -2.43374e-05 0)
(-0.00757122 -3.28813e-05 0)
(-0.00752463 -4.14749e-05 0)
(-0.00746759 -5.00827e-05 0)
(-0.0074001 -5.86676e-05 0)
(-0.00732224 -6.71913e-05 0)
(-0.0072341 -7.56147e-05 0)
(-0.00713584 -8.38983e-05 0)
(-0.00702766 -9.20025e-05 0)
(-0.00690979 -9.98883e-05 0)
(-0.00678253 -0.000107517 0)
(-0.00664621 -0.000114853 0)
(-0.0065012 -0.000121859 0)
(-0.00634791 -0.000128503 0)
(-0.0061868 -0.000134755 0)
(-0.00601834 -0.000140586 0)
(-0.00584304 -0.000145973 0)
(-0.00566146 -0.000150894 0)
(-0.00547414 -0.000155331 0)
(-0.00528167 -0.000159271 0)
(-0.00508463 -0.000162705 0)
(-0.00488364 -0.000165626 0)
(-0.00467929 -0.000168031 0)
(-0.0044722 -0.000169922 0)
(-0.00426296 -0.000171302 0)
(-0.00405218 -0.000172179 0)
(-0.00384046 -0.000172561 0)
(-0.00362836 -0.000172459 0)
(-0.00341646 -0.000171884 0)
(-0.00320531 -0.000170847 0)
(-0.00299547 -0.00016936 0)
(-0.00278746 -0.000167431 0)
(-0.00258183 -0.000165067 0)
(-0.00237908 -0.00016227 0)
(-0.00217976 -0.00015904 0)
(-0.00198439 -0.000155368 0)
(-0.00179354 -0.000151243 0)
(-0.00160777 -0.000146643 0)
(-0.00142768 -0.00014154 0)
(-0.00125393 -0.000135901 0)
(-0.00108722 -0.000129682 0)
(-0.000928278 -0.000122835 0)
(-0.000777937 -0.000115306 0)
(-0.000637071 -0.000107038 0)
(-0.000506626 -9.79765e-05 0)
(-0.000387602 -8.8075e-05 0)
(-0.000281039 -7.73023e-05 0)
(-0.000187986 -6.56566e-05 0)
(-0.000109448 -5.31847e-05 0)
(-4.63073e-05 -4.00103e-05 0)
(7.88039e-07 -2.63782e-05 0)
(3.15973e-05 -1.27257e-05 0)
(4.65466e-05 2.04618e-07 0)
(4.71133e-05 1.12383e-05 0)
(3.59915e-05 1.85672e-05 0)
(1.92906e-05 1.93807e-05 0)
(2.85242e-06 1.06671e-05 0)
(-3.12753e-06 4.20255e-06 0)
(-3.72437e-05 4.85914e-05 0)
(-0.000109932 0.000108159 0)
(-0.000223595 0.000166345 0)
(-0.000373366 0.00021734 0)
(-0.000554637 0.000259209 0)
(-0.000761776 0.000292045 0)
(-0.000989362 0.000316854 0)
(-0.00123258 0.000334959 0)
(-0.00148737 0.000347691 0)
(-0.00175042 0.000356253 0)
(-0.00201912 0.000361668 0)
(-0.00229148 0.000364769 0)
(-0.00256599 0.000366214 0)
(-0.00284155 0.000366504 0)
(-0.00311736 0.000366015 0)
(-0.00339289 0.000365016 0)
(-0.00366774 0.000363698 0)
(-0.00394165 0.000362184 0)
(-0.00421446 0.000360554 0)
(-0.00448603 0.00035885 0)
(-0.00475626 0.000357089 0)
(-0.00502509 0.000355273 0)
(-0.00529242 0.000353389 0)
(-0.00555817 0.000351417 0)
(-0.00582224 0.000349333 0)
(-0.00608452 0.000347111 0)
(-0.00634487 0.00034472 0)
(-0.00660314 0.000342131 0)
(-0.00685915 0.000339314 0)
(-0.00711272 0.00033624 0)
(-0.00736363 0.000332877 0)
(-0.00761164 0.000329196 0)
(-0.0078565 0.000325167 0)
(-0.00809792 0.000320759 0)
(-0.00833562 0.000315944 0)
(-0.00856927 0.00031069 0)
(-0.00879854 0.000304969 0)
(-0.00902305 0.000298751 0)
(-0.00924244 0.000292007 0)
(-0.00945629 0.00028471 0)
(-0.00966421 0.000276831 0)
(-0.00986574 0.000268345 0)
(-0.0100604 0.000259228 0)
(-0.0102478 0.000249456 0)
(-0.0104274 0.00023901 0)
(-0.0105988 0.000227871 0)
(-0.0107613 0.000216025 0)
(-0.0109146 0.00020346 0)
(-0.011058 0.000190168 0)
(-0.0111912 0.000176147 0)
(-0.0113135 0.000161397 0)
(-0.0114244 0.000145924 0)
(-0.0115235 0.000129741 0)
(-0.0116103 0.000112864 0)
(-0.0116842 9.53168e-05 0)
(-0.0117449 7.71283e-05 0)
(-0.0117919 5.83344e-05 0)
(-0.0118248 3.89772e-05 0)
(-0.0118432 1.91053e-05 0)
(-0.0118469 -1.22645e-06 0)
(-0.0118355 -2.19551e-05 0)
(-0.0118088 -4.30151e-05 0)
(-0.0117667 -6.43334e-05 0)
(-0.0117089 -8.58317e-05 0)
(-0.0116355 -0.000107427 0)
(-0.0115463 -0.000129033 0)
(-0.0114416 -0.000150559 0)
(-0.0113212 -0.000171911 0)
(-0.0111855 -0.000192997 0)
(-0.0110347 -0.00021372 0)
(-0.0108691 -0.000233986 0)
(-0.0106891 -0.000253701 0)
(-0.0104951 -0.000272774 0)
(-0.0102875 -0.000291116 0)
(-0.010067 -0.000308644 0)
(-0.00983419 -0.000325279 0)
(-0.00958969 -0.000340949 0)
(-0.00933423 -0.000355588 0)
(-0.00906855 -0.000369139 0)
(-0.00879344 -0.000381551 0)
(-0.00850971 -0.000392784 0)
(-0.00821821 -0.000402806 0)
(-0.00791979 -0.000411592 0)
(-0.00761533 -0.000419129 0)
(-0.0073057 -0.00042541 0)
(-0.00699178 -0.000430437 0)
(-0.00667445 -0.000434219 0)
(-0.00635458 -0.000436771 0)
(-0.00603303 -0.000438112 0)
(-0.00571063 -0.000438265 0)
(-0.00538823 -0.000437255 0)
(-0.00506663 -0.000435106 0)
(-0.00474664 -0.000431841 0)
(-0.00442905 -0.000427477 0)
(-0.00411464 -0.000422024 0)
(-0.0038042 -0.000415484 0)
(-0.00349852 -0.000407848 0)
(-0.00319842 -0.000399092 0)
(-0.00290472 -0.000389176 0)
(-0.0026183 -0.000378046 0)
(-0.00234008 -0.000365627 0)
(-0.00207106 -0.000351828 0)
(-0.00181229 -0.000336539 0)
(-0.00156493 -0.000319638 0)
(-0.0013302 -0.000300991 0)
(-0.00110945 -0.000280464 0)
(-0.000904093 -0.00025793 0)
(-0.000715619 -0.000233289 0)
(-0.000545561 -0.000206487 0)
(-0.000395437 -0.000177556 0)
(-0.000266672 -0.000146655 0)
(-0.000160479 -0.00011414 0)
(-7.76939e-05 -8.06596e-05 0)
(-1.85414e-05 -4.72901e-05 0)
(1.76795e-05 -1.57177e-05 0)
(3.29973e-05 1.14882e-05 0)
(3.09061e-05 3.05346e-05 0)
(1.86434e-05 3.61316e-05 0)
(2.96366e-06 2.1247e-05 0)
(-6.55076e-06 2.64634e-05 0)
(-6.47625e-05 0.000117286 0)
(-0.000173469 0.00022315 0)
(-0.000333769 0.000324537 0)
(-0.000537397 0.000413645 0)
(-0.000778952 0.000487628 0)
(-0.00105192 0.000546515 0)
(-0.00135008 0.000591761 0)
(-0.00166786 0.000625404 0)
(-0.00200048 0.000649576 0)
(-0.00234395 0.000666262 0)
(-0.00269509 0.000677191 0)
(-0.00305138 0.000683802 0)
(-0.00341088 0.00068725 0)
(-0.00377213 0.000688436 0)
(-0.00413407 0.000688042 0)
(-0.0044959 0.000686571 0)
(-0.00485706 0.000684381 0)
(-0.00521714 0.000681716 0)
(-0.00557584 0.000678735 0)
(-0.00593295 0.000675528 0)
(-0.00628828 0.000672143 0)
(-0.00664169 0.000668589 0)
(-0.00699303 0.000664853 0)
(-0.00734215 0.000660908 0)
(-0.00768889 0.000656715 0)
(-0.00803307 0.000652226 0)
(-0.00837449 0.000647394 0)
(-0.00871294 0.000642167 0)
(-0.00904818 0.00063649 0)
(-0.00937992 0.000630312 0)
(-0.00970789 0.000623579 0)
(-0.0100318 0.000616236 0)
(-0.0103512 0.00060823 0)
(-0.0106658 0.000599507 0)
(-0.0109752 0.000590014 0)
(-0.011279 0.000579698 0)
(-0.0115767 0.000568506 0)
(-0.0118678 0.000556386 0)
(-0.012152 0.000543288 0)
(-0.0124285 0.000529161 0)
(-0.012697 0.00051396 0)
(-0.0129567 0.000497638 0)
(-0.0132073 0.000480155 0)
(-0.013448 0.00046147 0)
(-0.0136783 0.000441552 0)
(-0.0138975 0.00042037 0)
(-0.014105 0.000397901 0)
(-0.0143001 0.000374128 0)
(-0.0144822 0.000349041 0)
(-0.0146508 0.000322638 0)
(-0.014805 0.000294924 0)
(-0.0149444 0.000265915 0)
(-0.0150682 0.000235636 0)
(-0.0151759 0.000204122 0)
(-0.015267 0.00017142 0)
(-0.0153408 0.000137584 0)
(-0.0153969 0.000102685 0)
(-0.0154348 6.68008e-05 0)
(-0.0154541 3.00229e-05 0)
(-0.0154543 -7.54672e-06 0)
(-0.0154353 -4.57979e-05 0)
(-0.0153966 -8.46045e-05 0)
(-0.0153382 -0.000123834 0)
(-0.0152598 -0.000163346 0)
(-0.0151615 -0.000202991 0)
(-0.0150432 -0.000242612 0)
(-0.0149051 -0.000282047 0)
(-0.0147473 -0.000321132 0)
(-0.01457 -0.000359698 0)
(-0.0143736 -0.000397576 0)
(-0.0141586 -0.000434598 0)
(-0.0139253 -0.000470599 0)
(-0.0136744 -0.000505418 0)
(-0.0134065 -0.0005389 0)
(-0.0131223 -0.000570898 0)
(-0.0128225 -0.000601275 0)
(-0.0125081 -0.000629904 0)
(-0.0121798 -0.000656672 0)
(-0.0118387 -0.000681478 0)
(-0.0114857 -0.000704235 0)
(-0.0111218 -0.000724873 0)
(-0.0107481 -0.000743336 0)
(-0.0103656 -0.000759584 0)
(-0.00997533 -0.000773591 0)
(-0.00957848 -0.000785347 0)
(-0.0091761 -0.000794855 0)
(-0.00876925 -0.000802131 0)
(-0.00835901 -0.000807198 0)
(-0.00794644 -0.00081009 0)
(-0.00753258 -0.000810846 0)
(-0.00711845 -0.000809505 0)
(-0.00670508 -0.000806107 0)
(-0.00629345 -0.000800686 0)
(-0.00588455 -0.000793268 0)
(-0.00547936 -0.000783866 0)
(-0.00507887 -0.000772476 0)
(-0.00468409 -0.000759072 0)
(-0.00429602 -0.000743604 0)
(-0.00391575 -0.000725995 0)
(-0.00354437 -0.000706137 0)
(-0.00318306 -0.00068389 0)
(-0.0028331 -0.000659081 0)
(-0.00249583 -0.000631511 0)
(-0.00217272 -0.000600956 0)
(-0.00186533 -0.000567179 0)
(-0.00157534 -0.000529943 0)
(-0.00130456 -0.000489034 0)
(-0.00105482 -0.000444292 0)
(-0.000828023 -0.000395657 0)
(-0.000626024 -0.000343224 0)
(-0.000450535 -0.000287333 0)
(-0.000302985 -0.000228677 0)
(-0.000184331 -0.000168455 0)
(-9.47993e-05 -0.000108572 0)
(-3.35734e-05 -5.19051e-05 0)
(1.57358e-06 -2.64583e-06 0)
(1.44431e-05 3.33138e-05 0)
(1.22866e-05 4.80272e-05 0)
(2.22986e-06 3.05408e-05 0)
(-9.63986e-06 6.17156e-05 0)
(-9.04037e-05 0.000215903 0)
(-0.000233426 0.000378816 0)
(-0.000438018 0.000530972 0)
(-0.000692021 0.000664057 0)
(-0.000988936 0.000775026 0)
(-0.00132134 0.000864134 0)
(-0.00168237 0.000933395 0)
(-0.00206592 0.000985598 0)
(-0.00246674 0.00102371 0)
(-0.00288042 0.00105052 0)
(-0.00330337 0.00106853 0)
(-0.0037327 0.00107982 0)
(-0.00416618 0.00108611 0)
(-0.00460206 0.00108875 0)
(-0.00503904 0.00108877 0)
(-0.00547612 0.00108695 0)
(-0.00591258 0.00108385 0)
(-0.00634787 0.00107986 0)
(-0.00678157 0.00107525 0)
(-0.00721336 0.00107018 0)
(-0.00764298 0.00106471 0)
(-0.00807019 0.0010589 0)
(-0.00849479 0.00105272 0)
(-0.00891654 0.00104615 0)
(-0.00933523 0.00103913 0)
(-0.00975061 0.0010316 0)
(-0.0101624 0.00102348 0)
(-0.0105704 0.0010147 0)
(-0.0109742 0.00100518 0)
(-0.0113735 0.000994835 0)
(-0.0117679 0.000983595 0)
(-0.012157 0.000971372 0)
(-0.0125404 0.000958087 0)
(-0.0129177 0.000943658 0)
(-0.0132883 0.000928004 0)
(-0.0136518 0.000911045 0)
(-0.0140076 0.000892703 0)
(-0.0143551 0.000872899 0)
(-0.0146938 0.000851559 0)
(-0.015023 0.000828609 0)
(-0.0153421 0.000803979 0)
(-0.0156504 0.000777605 0)
(-0.0159472 0.000749425 0)
(-0.0162319 0.000719385 0)
(-0.0165036 0.000687438 0)
(-0.0167618 0.000653542 0)
(-0.0170056 0.000617669 0)
(-0.0172344 0.000579795 0)
(-0.0174472 0.000539913 0)
(-0.0176435 0.000498024 0)
(-0.0178225 0.000454143 0)
(-0.0179835 0.000408299 0)
(-0.0181258 0.000360537 0)
(-0.0182487 0.000310917 0)
(-0.0183515 0.000259514 0)
(-0.0184338 0.000206421 0)
(-0.0184948 0.000151746 0)
(-0.0185341 9.56169e-05 0)
(-0.0185513 3.81758e-05 0)
(-0.0185459 -2.04175e-05 0)
(-0.0185176 -7.99881e-05 0)
(-0.0184662 -0.000140345 0)
(-0.0183914 -0.000201284 0)
(-0.0182932 -0.000262587 0)
(-0.0181715 -0.000324027 0)
(-0.0180263 -0.000385366 0)
(-0.0178579 -0.000446357 0)
(-0.0176665 -0.000506752 0)
(-0.0174523 -0.000566295 0)
(-0.0172159 -0.000624735 0)
(-0.0169577 -0.000681817 0)
(-0.0166782 -0.000737296 0)
(-0.0163783 -0.00079093 0)
(-0.0160586 -0.00084249 0)
(-0.01572 -0.000891758 0)
(-0.0153634 -0.00093853 0)
(-0.0149897 -0.00098262 0)
(-0.0146001 -0.00102386 0)
(-0.0141955 -0.0010621 0)
(-0.0137772 -0.00109722 0)
(-0.0133462 -0.0011291 0)
(-0.0129038 -0.00115768 0)
(-0.0124511 -0.0011829 0)
(-0.0119896 -0.0012047 0)
(-0.0115202 -0.0012231 0)
(-0.0110444 -0.00123808 0)
(-0.0105633 -0.00124967 0)
(-0.0100782 -0.0012579 0)
(-0.00959028 -0.00126283 0)
(-0.00910069 -0.00126452 0)
(-0.00861064 -0.001263 0)
(-0.00812129 -0.00125835 0)
(-0.00763377 -0.00125061 0)
(-0.00714922 -0.00123981 0)
(-0.00666878 -0.00122596 0)
(-0.00619358 -0.00120905 0)
(-0.00572478 -0.00118902 0)
(-0.00526357 -0.0011658 0)
(-0.00481119 -0.00113926 0)
(-0.00436893 -0.00110923 0)
(-0.00393816 -0.00107548 0)
(-0.00352037 -0.00103775 0)
(-0.00311711 -0.000995722 0)
(-0.0027301 -0.000949068 0)
(-0.00236114 -0.000897425 0)
(-0.00201219 -0.000840447 0)
(-0.00168529 -0.000777827 0)
(-0.00138256 -0.000709353 0)
(-0.00110614 -0.000634969 0)
(-0.000858114 -0.000554872 0)
(-0.000640397 -0.00046963 0)
(-0.000454568 -0.000380337 0)
(-0.000301678 -0.000288819 0)
(-0.000182005 -0.000197883 0)
(-9.47559e-05 -0.000111642 0)
(-3.77414e-05 -3.58852e-05 0)
(-7.21546e-06 2.15067e-05 0)
(3.42629e-06 5.02103e-05 0)
(1.24084e-06 3.59894e-05 0)
(-1.23172e-05 0.000108602 0)
(-0.000113194 0.00034223 0)
(-0.000287586 0.000572879 0)
(-0.000532969 0.00078308 0)
(-0.000833293 0.000965359 0)
(-0.00118073 0.00111731 0)
(-0.00156683 0.00123987 0)
(-0.00198411 0.00133584 0)
(-0.00242599 0.00140887 0)
(-0.0028869 0.0014628 0)
(-0.00336214 0.00150131 0)
(-0.00384784 0.00152764 0)
(-0.00434087 0.00154457 0)
(-0.00483878 0.00155441 0)
(-0.00533963 0.00155898 0)
(-0.00584191 0.00155971 0)
(-0.0063445 0.00155766 0)
(-0.0068465 0.00155364 0)
(-0.00734726 0.0015482 0)
(-0.00784624 0.00154171 0)
(-0.00834304 0.00153442 0)
(-0.00883729 0.00152646 0)
(-0.0093287 0.00151789 0)
(-0.00981696 0.0015087 0)
(-0.0103018 0.00149886 0)
(-0.0107829 0.00148831 0)
(-0.01126 0.00147696 0)
(-0.0117327 0.00146471 0)
(-0.0122007 0.00145148 0)
(-0.0126637 0.00143714 0)
(-0.0131211 0.00142159 0)
(-0.0135726 0.00140472 0)
(-0.0140177 0.00138643 0)
(-0.0144559 0.00136659 0)
(-0.0148866 0.00134509 0)
(-0.0153093 0.00132183 0)
(-0.0157235 0.0012967 0)
(-0.0161284 0.00126959 0)
(-0.0165234 0.00124039 0)
(-0.0169079 0.00120901 0)
(-0.0172812 0.00117534 0)
(-0.0176424 0.00113928 0)
(-0.0179909 0.00110077 0)
(-0.0183259 0.0010597 0)
(-0.0186466 0.00101602 0)
(-0.0189522 0.000969668 0)
(-0.0192419 0.000920587 0)
(-0.0195148 0.000868745 0)
(-0.0197701 0.000814119 0)
(-0.0200071 0.000756703 0)
(-0.0202249 0.000696509 0)
(-0.0204227 0.000633564 0)
(-0.0205997 0.000567919 0)
(-0.0207552 0.000499642 0)
(-0.0208885 0.000428823 0)
(-0.0209988 0.000355577 0)
(-0.0210856 0.000280039 0)
(-0.0211482 0.000202367 0)
(-0.0211861 0.000122744 0)
(-0.0211989 4.13741e-05 0)
(-0.0211861 -4.15164e-05 0)
(-0.0211474 -0.000125679 0)
(-0.0210825 -0.000210847 0)
(-0.0209914 -0.000296732 0)
(-0.0208738 -0.000383033 0)
(-0.0207299 -0.000469432 0)
(-0.0205598 -0.000555598 0)
(-0.0203636 -0.000641195 0)
(-0.0201416 -0.000725876 0)
(-0.0198943 -0.000809295 0)
(-0.0196222 -0.000891103 0)
(-0.0193258 -0.000970956 0)
(-0.0190059 -0.00104852 0)
(-0.0186632 -0.00112346 0)
(-0.0182986 -0.00119547 0)
(-0.0179131 -0.00126426 0)
(-0.0175076 -0.00132956 0)
(-0.0170833 -0.0013911 0)
(-0.0166413 -0.00144866 0)
(-0.0161828 -0.00150206 0)
(-0.0157092 -0.00155111 0)
(-0.0152216 -0.00159569 0)
(-0.0147214 -0.00163568 0)
(-0.01421 -0.00167102 0)
(-0.0136887 -0.00170165 0)
(-0.0131588 -0.00172756 0)
(-0.0126218 -0.00174875 0)
(-0.012079 -0.00176526 0)
(-0.0115317 -0.00177714 0)
(-0.0109813 -0.00178446 0)
(-0.010429 -0.00178728 0)
(-0.00987613 -0.00178569 0)
(-0.00932401 -0.00177974 0)
(-0.00877385 -0.00176951 0)
(-0.0082269 -0.00175503 0)
(-0.0076844 -0.0017363 0)
(-0.00714762 -0.0017133 0)
(-0.00661782 -0.00168595 0)
(-0.00609632 -0.00165414 0)
(-0.00558448 -0.00161766 0)
(-0.00508372 -0.00157628 0)
(-0.00459558 -0.00152969 0)
(-0.00412166 -0.0014775 0)
(-0.00366372 -0.00141931 0)
(-0.0032236 -0.00135462 0)
(-0.00280331 -0.00128297 0)
(-0.00240496 -0.00120389 0)
(-0.00203079 -0.00111698 0)
(-0.00168309 -0.00102198 0)
(-0.00136417 -0.000918853 0)
(-0.00107626 -0.000807924 0)
(-0.000821422 -0.000690015 0)
(-0.000601334 -0.000566659 0)
(-0.00041715 -0.000440334 0)
(-0.000269243 -0.000314765 0)
(-0.000156957 -0.000195268 0)
(-7.83188e-05 -8.91395e-05 0)
(-2.97795e-05 -6.07224e-06 0)
(-5.84731e-06 4.15523e-05 0)
(1.83012e-07 3.70031e-05 0)
(-1.46001e-05 0.000165602 0)
(-0.000133031 0.000493281 0)
(-0.000335418 0.000801754 0)
(-0.00061758 0.00107684 0)
(-0.000959852 0.001313 0)
(-0.00135298 0.00150928 0)
(-0.00178743 0.00166781 0)
(-0.00225502 0.00179247 0)
(-0.00274875 0.00188795 0)
(-0.00326275 0.00195906 0)
(-0.0037921 0.00201037 0)
(-0.00433274 0.00204593 0)
(-0.00488141 0.00206923 0)
(-0.00543548 0.00208316 0)
(-0.00599286 0.00209004 0)
(-0.00655195 0.0020917 0)
(-0.00711146 0.00208953 0)
(-0.00767041 0.00208456 0)
(-0.00822804 0.00207753 0)
(-0.00878372 0.00206894 0)
(-0.00933694 0.00205912 0)
(-0.00988728 0.00204827 0)
(-0.0104344 0.00203647 0)
(-0.0109778 0.00202373 0)
(-0.0115172 0.00201002 0)
(-0.0120524 0.00199526 0)
(-0.0125828 0.00197936 0)
(-0.0131081 0.00196219 0)
(-0.0136278 0.00194363 0)
(-0.0141416 0.00192354 0)
(-0.014649 0.00190179 0)
(-0.0151495 0.00187822 0)
(-0.0156424 0.00185271 0)
(-0.0161273 0.0018251 0)
(-0.0166036 0.00179526 0)
(-0.0170705 0.00176304 0)
(-0.0175276 0.00172829 0)
(-0.0179739 0.00169089 0)
(-0.0184089 0.0016507 0)
(-0.0188318 0.00160759 0)
(-0.0192418 0.00156144 0)
(-0.0196381 0.00151212 0)
(-0.0200198 0.00145954 0)
(-0.0203861 0.00140359 0)
(-0.0207362 0.0013442 0)
(-0.0210691 0.00128128 0)
(-0.0213841 0.00121478 0)
(-0.0216802 0.00114466 0)
(-0.0219565 0.00107091 0)
(-0.0222121 0.000993523 0)
(-0.0224462 0.000912523 0)
(-0.022658 0.00082796 0)
(-0.0228465 0.000739906 0)
(-0.0230111 0.000648462 0)
(-0.0231509 0.000553756 0)
(-0.0232653 0.000455945 0)
(-0.0233536 0.000355216 0)
(-0.0234152 0.000251785 0)
(-0.0234495 0.000145896 0)
(-0.0234561 3.78248e-05 0)
(-0.0234345 -7.21278e-05 0)
(-0.0233846 -0.000183633 0)
(-0.0233059 -0.000296336 0)
(-0.0231985 -0.000409861 0)
(-0.0230623 -0.000523811 0)
(-0.0228973 -0.00063777 0)
(-0.0227037 -0.000751311 0)
(-0.0224818 -0.000863993 0)
(-0.022232 -0.000975371 0)
(-0.0219546 -0.00108499 0)
(-0.0216504 -0.00119241 0)
(-0.0213199 -0.00129719 0)
(-0.0209641 -0.00139889 0)
(-0.0205836 -0.0014971 0)
(-0.0201796 -0.00159142 0)
(-0.0197531 -0.00168147 0)
(-0.0193051 -0.00176691 0)
(-0.0188369 -0.00184741 0)
(-0.0183499 -0.00192271 0)
(-0.0178451 -0.00199254 0)
(-0.0173242 -0.0020567 0)
(-0.0167883 -0.00211501 0)
(-0.0162391 -0.00216735 0)
(-0.0156779 -0.00221363 0)
(-0.0151062 -0.00225378 0)
(-0.0145254 -0.0022878 0)
(-0.0139371 -0.00231569 0)
(-0.0133426 -0.00233751 0)
(-0.0127434 -0.00235331 0)
(-0.012141 -0.00236318 0)
(-0.0115367 -0.00236722 0)
(-0.0109318 -0.00236552 0)
(-0.0103279 -0.00235816 0)
(-0.00972605 -0.00234522 0)
(-0.00912774 -0.00232674 0)
(-0.00853428 -0.00230273 0)
(-0.00794699 -0.00227314 0)
(-0.00736723 -0.00223786 0)
(-0.0067964 -0.00219672 0)
(-0.00623596 -0.00214949 0)
(-0.00568743 -0.00209582 0)
(-0.00515242 -0.00203532 0)
(-0.00463266 -0.00196749 0)
(-0.00412999 -0.00189179 0)
(-0.00364638 -0.00180761 0)
(-0.00318396 -0.00171433 0)
(-0.00274494 -0.00161139 0)
(-0.00233167 -0.00149828 0)
(-0.00194656 -0.00137471 0)
(-0.00159202 -0.00124068 0)
(-0.00127039 -0.00109663 0)
(-0.000983805 -0.000943663 0)
(-0.000734045 -0.000783752 0)
(-0.000522364 -0.000620024 0)
(-0.000349272 -0.000457086 0)
(-0.000214314 -0.000301385 0)
(-0.000115827 -0.000161592 0)
(-5.06094e-05 -4.89836e-05 0)
(-1.4382e-05 2.22604e-05 0)
(-7.99995e-07 3.37345e-05 0)
(-1.6539e-05 0.000231294 0)
(-0.00015014 0.000666023 0)
(-0.000377157 0.00106161 0)
(-0.000692005 0.00140797 0)
(-0.0010718 0.00170235 0)
(-0.00150588 0.00194592 0)
(-0.00198361 0.00214248 0)
(-0.00249609 0.00229736 0)
(-0.00303588 0.00241646 0)
(-0.00359681 0.00250569 0)
(-0.00417378 0.00257056 0)
(-0.00476261 0.00261597 0)
(-0.00535991 0.00264612 0)
(-0.00596294 0.00266452 0)
(-0.00656954 0.00267397 0)
(-0.00717799 0.00267672 0)
(-0.00778694 0.00267448 0)
(-0.00839531 0.00266851 0)
(-0.00900225 0.00265976 0)
(-0.00960707 0.00264885 0)
(-0.0102092 0.00263621 0)
(-0.0108081 0.00262209 0)
(-0.0114033 0.00260662 0)
(-0.0119945 0.00258983 0)
(-0.0125811 0.00257168 0)
(-0.0131629 0.00255209 0)
(-0.0137393 0.00253093 0)
(-0.0143098 0.00250808 0)
(-0.0148741 0.00248338 0)
(-0.0154316 0.00245666 0)
(-0.0159818 0.00242776 0)
(-0.0165241 0.0023965 0)
(-0.017058 0.0023627 0)
(-0.0175827 0.00232619 0)
(-0.0180977 0.00228679 0)
(-0.0186021 0.00224434 0)
(-0.0190954 0.00219864 0)
(-0.0195768 0.00214955 0)
(-0.0200453 0.00209689 0)
(-0.0205003 0.00204051 0)
(-0.0209409 0.00198026 0)
(-0.0213662 0.001916 0)
(-0.0217753 0.0018476 0)
(-0.0221674 0.00177495 0)
(-0.0225414 0.00169795 0)
(-0.0228965 0.00161652 0)
(-0.0232317 0.0015306 0)
(-0.0235461 0.00144015 0)
(-0.0238387 0.00134515 0)
(-0.0241087 0.00124562 0)
(-0.0243551 0.0011416 0)
(-0.024577 0.00103317 0)
(-0.0247736 0.000920412 0)
(-0.024944 0.000803479 0)
(-0.0250876 0.00068254 0)
(-0.0252034 0.000557801 0)
(-0.025291 0.000429506 0)
(-0.0253496 0.000297934 0)
(-0.0253788 0.000163401 0)
(-0.025378 2.6259e-05 0)
(-0.0253469 -0.000113109 0)
(-0.0252852 -0.000254285 0)
(-0.0251927 -0.000396823 0)
(-0.0250694 -0.000540248 0)
(-0.0249151 -0.000684062 0)
(-0.0247301 -0.000827747 0)
(-0.0245145 -0.000970767 0)
(-0.0242688 -0.00111258 0)
(-0.0239932 -0.00125262 0)
(-0.0236884 -0.00139034 0)
(-0.023355 -0.00152519 0)
(-0.0229938 -0.00165661 0)
(-0.0226056 -0.00178409 0)
(-0.0221915 -0.00190711 0)
(-0.0217525 -0.00202517 0)
(-0.0212897 -0.00213784 0)
(-0.0208043 -0.00224467 0)
(-0.0202977 -0.00234528 0)
(-0.0197712 -0.00243934 0)
(-0.0192263 -0.00252655 0)
(-0.0186643 -0.00260664 0)
(-0.0180869 -0.00267943 0)
(-0.0174955 -0.00274475 0)
(-0.0168916 -0.0028025 0)
(-0.0162769 -0.00285261 0)
(-0.0156528 -0.00289508 0)
(-0.015021 -0.00292993 0)
(-0.0143829 -0.00295721 0)
(-0.0137402 -0.00297702 0)
(-0.0130942 -0.00298945 0)
(-0.0124464 -0.00299462 0)
(-0.0117983 -0.00299265 0)
(-0.0111513 -0.00298365 0)
(-0.0105069 -0.0029677 0)
(-0.0098663 -0.00294485 0)
(-0.00923102 -0.0029151 0)
(-0.00860241 -0.0028784 0)
(-0.00798191 -0.0028346 0)
(-0.00737097 -0.00278349 0)
(-0.0067711 -0.00272475 0)
(-0.00618388 -0.00265799 0)
(-0.00561099 -0.00258268 0)
(-0.00505422 -0.00249823 0)
(-0.00451548 -0.00240396 0)
(-0.00399679 -0.00229914 0)
(-0.00350035 -0.00218301 0)
(-0.00302843 -0.00205488 0)
(-0.00258346 -0.00191418 0)
(-0.00216789 -0.00176055 0)
(-0.0017842 -0.00159404 0)
(-0.00143478 -0.00141523 0)
(-0.00112183 -0.00122548 0)
(-0.00084723 -0.00102719 0)
(-0.000612323 -0.000824124 0)
(-0.00041778 -0.000621698 0)
(-0.000263377 -0.000427405 0)
(-0.000147797 -0.00025115 0)
(-6.8239e-05 -0.000105599 0)
(-2.15127e-05 -6.40979e-06 0)
(-1.60475e-06 2.67901e-05 0)
(-1.81877e-05 0.000304424 0)
(-0.000164845 0.000857628 0)
(-0.000413349 0.00134873 0)
(-0.000756961 0.00177227 0)
(-0.00117 0.00212888 0)
(-0.0016405 0.00242241 0)
(-0.00215674 0.00265882 0)
(-0.00270912 0.00284515 0)
(-0.00328973 0.00298875 0)
(-0.00389213 0.00309674 0)
(-0.00451102 0.00317567 0)
(-0.00514212 0.00323131 0)
(-0.00578194 0.00326862 0)
(-0.00642768 0.0032917 0)
(-0.00707712 0.00330387 0)
(-0.00772848 0.00330778 0)
(-0.00838033 0.00330546 0)
(-0.00903155 0.00329843 0)
(-0.00968122 0.0032878 0)
(-0.0103286 0.00327436 0)
(-0.010973 0.00325862 0)
(-0.0116139 0.00324089 0)
(-0.0122508 0.00322134 0)
(-0.0128831 0.00320003 0)
(-0.0135105 0.0031769 0)
(-0.0141324 0.00315189 0)
(-0.0147484 0.00312485 0)
(-0.015358 0.00309561 0)
(-0.0159605 0.00306401 0)
(-0.0165556 0.00302985 0)
(-0.0171425 0.00299293 0)
(-0.0177206 0.00295303 0)
(-0.0182894 0.00290996 0)
(-0.0188481 0.0028635 0)
(-0.0193959 0.00281345 0)
(-0.0199323 0.00275959 0)
(-0.0204563 0.00270172 0)
(-0.0209671 0.00263964 0)
(-0.0214639 0.00257317 0)
(-0.0219458 0.00250211 0)
(-0.022412 0.0024263 0)
(-0.0228614 0.00234556 0)
(-0.0232932 0.00225977 0)
(-0.0237064 0.00216877 0)
(-0.0241 0.00207248 0)
(-0.0244731 0.00197079 0)
(-0.0248245 0.00186365 0)
(-0.0251535 0.00175102 0)
(-0.0254589 0.00163289 0)
(-0.0257399 0.0015093 0)
(-0.0259955 0.0013803 0)
(-0.0262247 0.001246 0)
(-0.0264268 0.00110653 0)
(-0.0266008 0.000962073 0)
(-0.0267459 0.000812847 0)
(-0.0268615 0.000659116 0)
(-0.0269468 0.000501187 0)
(-0.0270012 0.000339408 0)
(-0.0270243 0.000174174 0)
(-0.0270155 5.91578e-06 0)
(-0.0269744 -0.000164891 0)
(-0.026901 -0.000337736 0)
(-0.0267948 -0.000512073 0)
(-0.026656 -0.000687324 0)
(-0.0264846 -0.000862883 0)
(-0.0262806 -0.00103812 0)
(-0.0260444 -0.00121239 0)
(-0.0257764 -0.00138504 0)
(-0.025477 -0.00155539 0)
(-0.0251469 -0.00172278 0)
(-0.0247869 -0.00188655 0)
(-0.0243977 -0.00204604 0)
(-0.0239803 -0.00220062 0)
(-0.0235358 -0.00234968 0)
(-0.0230652 -0.00249265 0)
(-0.0225699 -0.00262897 0)
(-0.0220512 -0.00275816 0)
(-0.0215104 -0.00287976 0)
(-0.020949 -0.00299336 0)
(-0.0203685 -0.00309861 0)
(-0.0197705 -0.00319522 0)
(-0.0191565 -0.00328296 0)
(-0.0185283 -0.00336166 0)
(-0.0178873 -0.00343118 0)
(-0.0172354 -0.00349148 0)
(-0.016574 -0.00354254 0)
(-0.0159048 -0.00358439 0)
(-0.0152295 -0.00361711 0)
(-0.0145496 -0.00364082 0)
(-0.0138667 -0.00365563 0)
(-0.0131823 -0.0036617 0)
(-0.012498 -0.00365917 0)
(-0.0118151 -0.00364816 0)