/*--------------------------------*- C++ -*----------------------------------*\
| =========                 |                                                 |
| \\      /  F ield         | OpenFOAM: The Open Source CFD Toolbox           |
|  \\    /   O peration     | Version:  2406                                  |
|   \\  /    A nd           | Website:  www.openfoam.com                      |
|    \\/     M anipulation  |                                                 |
\*---------------------------------------------------------------------------*/
FoamFile
{
    version     2.0;
    format      ascii;
    arch        "LSB;label=32;scalar=64";
    class       volVectorField;
    location    "26.75";
    object      U;
}
// * * * * * * * * * * * * * * * * * * * * * * * * * * * * * * * * * * * * * //

dimensions      [0 1 -1 0 0 0 0];

internalField   nonuniform List<vector> 
14400
(
(-1.14374e-05 1.13815e-05 0)
(7.46573e-06 -1.13701e-05 0)
(9.5023e-05 -3.37819e-05 0)
(0.000235384 -5.23898e-05 0)
(0.000419625 -6.25329e-05 0)
(0.000623299 -6.77314e-05 0)
(0.000837741 -6.77018e-05 0)
(0.00104625 -6.4709e-05 0)
(0.00124363 -5.90388e-05 0)
(0.00142074 -5.20884e-05 0)
(0.00157589 -4.42663e-05 0)
(0.00170575 -3.6446e-05 0)
(0.00181146 -2.89489e-05 0)
(0.0018935 -2.22461e-05 0)
(0.00195469 -1.64711e-05 0)
(0.00199732 -1.17721e-05 0)
(0.00202459 -8.08541e-06 0)
(0.00203895 -5.32044e-06 0)
(0.0020428 -3.2613e-06 0)
(0.00203756 -1.67025e-06 0)
(0.00202406 -2.52088e-07 0)
(0.00200206 1.2832e-06 0)
(0.00197052 3.22817e-06 0)
(0.00192746 5.84039e-06 0)
(0.00187015 9.34426e-06 0)
(0.0017952 1.39151e-05 0)
(0.00169871 1.96869e-05 0)
(0.00157638 2.6754e-05 0)
(0.00142363 3.5185e-05 0)
(0.00123568 4.50309e-05 0)
(0.00100759 5.63362e-05 0)
(0.000734341 6.91423e-05 0)
(0.000410806 8.34887e-05 0)
(3.18372e-05 9.94076e-05 0)
(-0.00040769 0.000116917 0)
(-0.00091279 0.000136012 0)
(-0.00148825 0.000156654 0)
(-0.00213851 0.000178763 0)
(-0.00286747 0.000202214 0)
(-0.00367834 0.000226826 0)
(-0.00457344 0.000252367 0)
(-0.00555405 0.000278545 0)
(-0.00662018 0.000305012 0)
(-0.00777044 0.000331366 0)
(-0.00900184 0.000357155 0)
(-0.0103097 0.000381881 0)
(-0.0116876 0.000405007 0)
(-0.0131273 0.000425968 0)
(-0.0146184 0.000444178 0)
(-0.016149 0.00045904 0)
(-0.0177052 0.000469956 0)
(-0.0192713 0.000476337 0)
(-0.0208302 0.000477616 0)
(-0.0223632 0.000473253 0)
(-0.0238504 0.000462748 0)
(-0.025271 0.000445654 0)
(-0.0266033 0.000421586 0)
(-0.0278253 0.000390235 0)
(-0.0289146 0.000351386 0)
(-0.0298493 0.000304933 0)
(-0.0306078 0.000250902 0)
(-0.0311697 0.000189469 0)
(-0.0315161 0.000120984 0)
(-0.0316298 4.59927e-05 0)
(-0.0314962 -3.47428e-05 0)
(-0.0311037 -0.000120231 0)
(-0.0304441 -0.000209239 0)
(-0.0295133 -0.000300295 0)
(-0.0283116 -0.000391698 0)
(-0.0268444 -0.00048154 0)
(-0.0251223 -0.000567754 0)
(-0.0231615 -0.000648159 0)
(-0.0209838 -0.000720545 0)
(-0.0186165 -0.000782747 0)
(-0.016092 -0.000832755 0)
(-0.0134477 -0.000868808 0)
(-0.0107246 -0.000889504 0)
(-0.00796675 -0.000893893 0)
(-0.00521991 -0.000881557 0)
(-0.00253028 -0.000852668 0)
(5.7008e-05 -0.000808008 0)
(0.00249939 -0.000748962 0)
(0.00475827 -0.000677461 0)
(0.00680039 -0.000595903 0)
(0.00859891 -0.000507024 0)
(0.0101343 -0.000413761 0)
(0.0113946 -0.000319093 0)
(0.0123761 -0.000225884 0)
(0.0130825 -0.000136747 0)
(0.0135248 -5.39211e-05 0)
(0.0137199 2.0813e-05 0)
(0.0136902 8.61762e-05 0)
(0.0134618 0.000141405 0)
(0.0130632 0.000186223 0)
(0.0125242 0.000220796 0)
(0.0118745 0.000245649 0)
(0.0111427 0.000261598 0)
(0.0103555 0.000269651 0)
(0.00953688 0.000270941 0)
(0.00870769 0.000266633 0)
(0.00788549 0.000257892 0)
(0.00708462 0.000245794 0)
(0.00631599 0.000231351 0)
(0.00558779 0.000215414 0)
(0.00490511 0.000198772 0)
(0.00427122 0.000182011 0)
(0.00368665 0.000165716 0)
(0.00315123 0.000150211 0)
(0.00266217 0.000135931 0)
(0.00221753 0.0001229 0)
(0.00181249 0.000111414 0)
(0.00144545 0.000101001 0)
(0.0011113 9.17529e-05 0)
(0.000811934 8.22684e-05 0)
(0.000544743 7.23896e-05 0)
(0.00031913 5.91585e-05 0)
(0.000138127 4.28851e-05 0)
(1.91621e-05 1.95022e-05 0)
(-3.2872e-05 -3.69804e-06 0)
(-2.06304e-05 -2.02811e-05 0)
(1.07395e-05 -7.12327e-06 0)
(0.000125455 -0.000126934 0)
(0.000378945 -0.000239436 0)
(0.000733775 -0.000333139 0)
(0.00117759 -0.000390914 0)
(0.00166434 -0.000421401 0)
(0.00217402 -0.000424578 0)
(0.00267242 -0.000408493 0)
(0.00314456 -0.000376399 0)
(0.00357046 -0.000334463 0)
(0.00394306 -0.000286207 0)
(0.00425419 -0.000235957 0)
(0.00450376 -0.000186322 0)
(0.00469171 -0.000139788 0)
(0.00482229 -9.75976e-05 0)
(0.00489945 -6.05441e-05 0)
(0.00492868 -2.85169e-05 0)
(0.00491431 -9.48792e-07 0)
(0.00486025 2.33202e-05 0)
(0.00476844 4.57498e-05 0)
(0.00463923 6.80835e-05 0)
(0.00447061 9.21341e-05 0)
(0.00425857 0.000119713 0)
(0.00399685 0.000152483 0)
(0.00367739 0.000191906 0)
(0.00329041 0.000239175 0)
(0.00282487 0.000295224 0)
(0.00226873 0.000360734 0)
(0.00160927 0.000436181 0)
(0.000833319 0.00052188 0)
(-7.24603e-05 0.000618022 0)
(-0.0011214 0.000724689 0)
(-0.00232661 0.000841848 0)
(-0.00370071 0.000969321 0)
(-0.00525558 0.00110674 0)
(-0.00700196 0.00125351 0)
(-0.00894913 0.00140872 0)
(-0.0111044 0.00157115 0)
(-0.0134727 0.00173923 0)
(-0.016056 0.00191101 0)
(-0.0188531 0.00208416 0)
(-0.021859 0.00225603 0)
(-0.0250644 0.00242362 0)
(-0.028456 0.00258368 0)
(-0.0320158 0.00273275 0)
(-0.0357213 0.00286719 0)
(-0.0395455 0.00298335 0)
(-0.043457 0.00307755 0)
(-0.0474206 0.00314624 0)
(-0.0513976 0.00318603 0)
(-0.055346 0.00319379 0)
(-0.0592216 0.00316673 0)
(-0.0629783 0.00310244 0)
(-0.0665688 0.00299894 0)
(-0.0699456 0.00285476 0)
(-0.0730612 0.00266894 0)
(-0.0758694 0.00244111 0)
(-0.0783254 0.00217148 0)
(-0.0803868 0.00186092 0)
(-0.0820143 0.00151097 0)
(-0.0831721 0.00112388 0)
(-0.0838285 0.000702633 0)
(-0.0839568 0.000251022 0)
(-0.0835357 -0.000226371 0)
(-0.0825497 -0.000724128 0)
(-0.0809899 -0.001236 0)
(-0.0788545 -0.00175491 0)
(-0.0761492 -0.00227303 0)
(-0.0728876 -0.00278184 0)
(-0.0690915 -0.00327223 0)
(-0.0647915 -0.00373473 0)
(-0.0600264 -0.00415967 0)
(-0.0548438 -0.00453746 0)
(-0.0492992 -0.00485891 0)
(-0.043456 -0.00511557 0)
(-0.0373845 -0.00530007 0)
(-0.0311607 -0.0054065 0)
(-0.0248651 -0.00543077 0)
(-0.0185814 -0.00537088 0)
(-0.0123942 -0.00522716 0)
(-0.00638753 -0.00500244 0)
(-0.00064231 -0.00470202 0)
(0.00476549 -0.00433363 0)
(0.00976708 -0.00390717 0)
(0.0143028 -0.00343435 0)
(0.0183237 -0.00292822 0)
(0.0217933 -0.00240266 0)
(0.0246881 -0.00187174 0)
(0.0269983 -0.00134911 0)
(0.0287281 -0.000847443 0)
(0.0298943 -0.0003779 0)
(0.0305263 5.02707e-05 0)
(0.0306637 0.000430023 0)
(0.0303548 0.000756645 0)
(0.0296543 0.00102777 0)
(0.028621 0.00124325 0)
(0.0273154 0.00140488 0)
(0.0257977 0.00151612 0)
(0.0241252 0.00158168 0)
(0.0223513 0.00160712 0)
(0.020524 0.00159854 0)
(0.0186849 0.00156212 0)
(0.0168687 0.00150396 0)
(0.0151039 0.00142972 0)
(0.0134115 0.00134468 0)
(0.0118074 0.0012533 0)
(0.0103006 0.00115968 0)
(0.00889698 0.00106682 0)
(0.00759643 0.000977522 0)
(0.00639862 0.000893004 0)
(0.00529761 0.00081454 0)
(0.00429204 0.000740719 0)
(0.00337484 0.000670851 0)
(0.00255053 0.000599473 0)
(0.00181639 0.000524115 0)
(0.00119015 0.000434262 0)
(0.0006762 0.000330161 0)
(0.000304881 0.000200692 0)
(7.51943e-05 7.263e-05 0)
(-3.65287e-06 -3.27317e-05 0)
(3.201e-05 -9.24493e-05 0)
(0.000234433 -0.000379371 0)
(0.000632319 -0.00063856 0)
(0.00115703 -0.000848844 0)
(0.00179533 -0.000983815 0)
(0.00248517 -0.00105372 0)
(0.00320101 -0.00106103 0)
(0.00389746 -0.00102016 0)
(0.0045535 -0.000940283 0)
(0.00514184 -0.000834251 0)
(0.00565123 -0.000711374 0)
(0.00606957 -0.00058127 0)
(0.00639479 -0.000450744 0)
(0.00662528 -0.000325505 0)
(0.00676483 -0.000208874 0)
(0.00681705 -0.000102672 0)
(0.00678739 -6.80129e-06 0)
(0.00667981 8.01835e-05 0)
(0.0064975 0.000161064 0)
(0.00624096 0.000239494 0)
(0.00590833 0.000319786 0)
(0.00549447 0.000406503 0)
(0.00499126 0.000504194 0)
(0.00438749 0.000617081 0)
(0.00366929 0.000748875 0)
(0.00282045 0.000902631 0)
(0.00182298 0.00108071 0)
(0.000657586 0.0012848 0)
(-0.000695788 0.001516 0)
(-0.00225751 0.00177486 0)
(-0.00404774 0.0020615 0)
(-0.00608603 0.00237558 0)
(-0.00839075 0.00271628 0)
(-0.0109786 0.00308222 0)
(-0.013864 0.00347136 0)
(-0.0170583 0.00388089 0)
(-0.0205693 0.0043071 0)
(-0.0244002 0.00474537 0)
(-0.0285492 0.00519011 0)
(-0.0330087 0.00563478 0)
(-0.0377648 0.00607199 0)
(-0.042797 0.00649361 0)
(-0.0480781 0.00689093 0)
(-0.0535739 0.00725484 0)
(-0.059244 0.0075761 0)
(-0.0650417 0.00784554 0)
(-0.0709152 0.0080543 0)
(-0.0768083 0.00819412 0)
(-0.0826612 0.00825749 0)
(-0.0884118 0.0082379 0)
(-0.0939968 0.00812992 0)
(-0.0993528 0.00792939 0)
(-0.104417 0.00763344 0)
(-0.10913 0.00724055 0)
(-0.113432 0.00675054 0)
(-0.117269 0.0061646 0)
(-0.120592 0.00548523 0)
(-0.123354 0.00471622 0)
(-0.125515 0.00386265 0)
(-0.12704 0.00293082 0)
(-0.127898 0.00192829 0)
(-0.128067 0.000863882 0)
(-0.127528 -0.00025237 0)
(-0.12627 -0.00140915 0)
(-0.124289 -0.00259389 0)
(-0.121587 -0.00379279 0)
(-0.118173 -0.00499083 0)
(-0.114064 -0.0061719 0)
(-0.109283 -0.00731891 0)
(-0.103863 -0.008414 0)
(-0.097843 -0.00943882 0)
(-0.0912716 -0.0103748 0)
(-0.0842044 -0.0112039 0)
(-0.0767049 -0.0119084 0)
(-0.0688442 -0.0124725 0)
(-0.0607003 -0.0128818 0)
(-0.0523574 -0.013125 0)
(-0.0439048 -0.0131936 0)
(-0.0354353 -0.013083 0)
(-0.0270445 -0.0127929 0)
(-0.0188281 -0.0123274 0)
(-0.0108806 -0.0116953 0)
(-0.0032931 -0.01091 0)
(0.0038489 -0.00998947 0)
(0.0104675 -0.00895538 0)
(0.0164946 -0.00783268 0)
(0.0218731 -0.00664868 0)
(0.0265594 -0.00543204 0)
(0.0305237 -0.00421164 0)
(0.0337513 -0.00301556 0)
(0.0362427 -0.00186992 0)
(0.0380137 -0.000797938 0)
(0.0390941 0.000180892 0)
(0.0395272 0.00105142 0)
(0.0393673 0.00180322 0)
(0.038678 0.00243067 0)
(0.0375294 0.00293287 0)
(0.0359957 0.00331316 0)
(0.034152 0.0035786 0)
(0.0320721 0.00373917 0)
(0.029826 0.00380704 0)
(0.0274779 0.00379561 0)
(0.0250848 0.00371894 0)
(0.0226959 0.00359082 0)
(0.020351 0.00342453 0)
(0.0180824 0.00323208 0)
(0.015913 0.00302439 0)
(0.0138598 0.0028103 0)
(0.0119312 0.00259745 0)
(0.0101334 0.00239041 0)
(0.00846488 0.00219252 0)
(0.00692826 0.00200225 0)
(0.00551795 0.00181746 0)
(0.00424247 0.00162819 0)
(0.00309905 0.00142738 0)
(0.00211189 0.00119665 0)
(0.00128294 0.000933736 0)
(0.000655333 0.000623422 0)
(0.000220824 0.000308311 0)
(2.33507e-05 2.47286e-05 0)
(4.96659e-05 -0.00022821 0)
(0.000326483 -0.000731268 0)
(0.000842021 -0.001163 0)
(0.00149607 -0.00150085 0)
(0.00227435 -0.00171766 0)
(0.00310164 -0.00182546 0)
(0.0039505 -0.00183064 0)
(0.0047679 -0.00175377 0)
(0.00552992 -0.00161067 0)
(0.00620416 -0.00142127 0)
(0.00677667 -0.00120137 0)
(0.00723205 -0.000966419 0)
(0.00756614 -0.000727962 0)
(0.00777513 -0.000495304 0)
(0.00786116 -0.000274081 0)
(0.00782602 -6.71959e-05 0)
(0.00767333 0.000125562 0)
(0.00740485 0.000306811 0)
(0.00702118 0.000481406 0)
(0.0065196 0.000655762 0)
(0.00589439 0.000837411 0)
(0.00513584 0.00103434 0)
(0.00423062 0.00125448 0)
(0.00316169 0.00150521 0)
(0.00190891 0.00179295 0)
(0.000449486 0.00212292 0)
(-0.00124123 0.00249907 0)
(-0.00318906 0.00292403 0)
(-0.00542019 0.00339923 0)
(-0.0079604 0.00392492 0)
(-0.0108343 0.00450033 0)
(-0.0140644 0.00512355 0)
(-0.0176705 0.00579152 0)
(-0.0216684 0.00649984 0)
(-0.0260691 0.00724264 0)
(-0.0308779 0.0080124 0)
(-0.0360932 0.00879992 0)
(-0.0417058 0.00959424 0)
(-0.0476982 0.0103828 0)
(-0.0540442 0.0111516 0)
(-0.0607085 0.0118855 0)
(-0.0676471 0.0125685 0)
(-0.074808 0.0131845 0)
(-0.0821317 0.0137173 0)
(-0.0895525 0.0141515 0)
(-0.0970001 0.0144727 0)
(-0.104401 0.0146683 0)
(-0.111681 0.0147272 0)
(-0.118763 0.0146407 0)
(-0.125577 0.0144024 0)
(-0.13205 0.0140083 0)
(-0.138116 0.0134566 0)
(-0.143714 0.0127479 0)
(-0.148788 0.0118851 0)
(-0.153288 0.0108726 0)
(-0.157168 0.00971696 0)
(-0.160391 0.00842621 0)
(-0.162923 0.00700982 0)
(-0.164739 0.0054786 0)
(-0.165816 0.00384462 0)
(-0.166138 0.00212119 0)
(-0.165695 0.000322826 0)
(-0.16448 -0.00153471 0)
(-0.162492 -0.00343435 0)
(-0.159736 -0.0053577 0)
(-0.156219 -0.00728501 0)
(-0.151957 -0.00919514 0)
(-0.146969 -0.0110656 0)
(-0.141281 -0.0128729 0)
(-0.134925 -0.0145922 0)
(-0.127938 -0.0161983 0)
(-0.120366 -0.0176654 0)
(-0.112262 -0.0189682 0)
(-0.103685 -0.0200822 0)
(-0.0947019 -0.0209843 0)
(-0.085386 -0.0216542 0)
(-0.075818 -0.0220744 0)
(-0.0660842 -0.0222318 0)
(-0.0562758 -0.0221182 0)
(-0.0464876 -0.021731 0)
(-0.0368168 -0.0210737 0)
(-0.0273609 -0.0201564 0)
(-0.0182162 -0.0189956 0)
(-0.00947559 -0.0176144 0)
(-0.00122657 -0.0160416 0)
(0.00645069 -0.0143112 0)
(0.0134852 -0.0124612 0)
(0.019817 -0.0105327 0)
(0.0253984 -0.0085679 0)
(0.0301952 -0.00660947 0)
(0.0341881 -0.00469845 0)
(0.0373722 -0.00287303 0)
(0.0397584 -0.00116726 0)
(0.0413718 0.000390134 0)
(0.0422518 0.00177662 0)
(0.0424506 0.00297644 0)
(0.0420308 0.0039809 0)
(0.0410642 0.00478825 0)
(0.039628 0.00540323 0)
(0.0378031 0.00583627 0)
(0.03567 0.00610255 0)
(0.0333077 0.00622069 0)
(0.0307892 0.00621171 0)
(0.0281818 0.00609757 0)
(0.0255435 0.00590039 0)
(0.0229242 0.00564114 0)
(0.020363 0.00533943 0)
(0.0178921 0.00501202 0)
(0.0155321 0.0046734 0)
(0.0133008 0.00433348 0)
(0.0112047 0.00399932 0)
(0.00925437 0.00367083 0)
(0.00744866 0.00334545 0)
(0.00580218 0.00300999 0)
(0.00431249 0.00265318 0)
(0.00301055 0.00225006 0)
(0.00189424 0.00179404 0)
(0.00102123 0.0012651 0)
(0.000377628 0.000708549 0)
(5.2901e-05 0.000162673 0)
(6.00069e-05 -0.000407798 0)
(0.000388782 -0.0011755 0)
(0.000990815 -0.00180689 0)
(0.00173824 -0.00228379 0)
(0.0026135 -0.002585 0)
(0.00352881 -0.00272545 0)
(0.00445513 -0.00271774 0)
(0.00533337 -0.00258892 0)
(0.00613808 -0.0023626 0)
(0.0068333 -0.00206619 0)
(0.00740345 -0.0017227 0)
(0.00783056 -0.00135381 0)
(0.00810866 -0.000976188 0)
(0.0082316 -0.000602869 0)
(0.00819929 -0.000241856 0)
(0.00801078 0.000103044 0)
(0.00766674 0.000432463 0)
(0.00716537 0.000750678 0)
(0.00650316 0.00106521 0)
(0.00567271 0.00138591 0)
(0.00466301 0.00172425 0)
(0.00345848 0.0020923 0)
(0.00203953 0.00250199 0)
(0.000382559 0.00296425 0)
(-0.00153916 0.00348848 0)
(-0.00375483 0.0040821 0)
(-0.00629503 0.00475036 0)
(-0.00919071 0.0054963 0)
(-0.012472 0.00632079 0)
(-0.0161673 0.00722258 0)
(-0.0203017 0.00819837 0)
(-0.024896 0.00924266 0)
(-0.0299655 0.0103477 0)
(-0.0355182 0.0115032 0)
(-0.0415542 0.0126965 0)
(-0.0480642 0.0139118 0)
(-0.0550286 0.0151311 0)
(-0.062417 0.0163337 0)
(-0.0701881 0.0174973 0)
(-0.0782899 0.0185979 0)
(-0.0866608 0.0196108 0)
(-0.0952306 0.0205116 0)
(-0.103922 0.0212768 0)
(-0.112654 0.0218844 0)
(-0.121342 0.0223151 0)
(-0.129902 0.0225526 0)
(-0.138251 0.022584 0)
(-0.146309 0.0224 0)
(-0.154004 0.0219952 0)
(-0.161267 0.0213676 0)
(-0.168037 0.0205187 0)
(-0.174261 0.019453 0)
(-0.179892 0.0181774 0)
(-0.18489 0.0167012 0)
(-0.189223 0.0150354 0)
(-0.192862 0.0131927 0)
(-0.195786 0.0111867 0)
(-0.197977 0.00903228 0)
(-0.199422 0.00674516 0)
(-0.20011 0.00434196 0)
(-0.200036 0.0018402 0)
(-0.199195 -0.000741554 0)
(-0.197586 -0.00338361 0)
(-0.195211 -0.00606497 0)
(-0.192073 -0.0087632 0)
(-0.188181 -0.0114542 0)
(-0.183546 -0.0141124 0)
(-0.178182 -0.0167102 0)
(-0.17211 -0.0192185 0)
(-0.165352 -0.0216067 0)
(-0.15794 -0.023843 0)
(-0.14991 -0.0258948 0)
(-0.141306 -0.0277296 0)
(-0.132178 -0.0293152 0)
(-0.122585 -0.0306211 0)
(-0.112593 -0.0316195 0)
(-0.102276 -0.0322862 0)
(-0.0917154 -0.0326018 0)
(-0.0809989 -0.032553 0)
(-0.0702192 -0.0321334 0)
(-0.0594735 -0.0313443 0)
(-0.048861 -0.0301954 0)
(-0.0384814 -0.0287048 0)
(-0.0284328 -0.0268991 0)
(-0.0188098 -0.0248128 0)
(-0.00970096 -0.0224875 0)
(-0.00118755 -0.0199707 0)
(0.00665858 -0.0173142 0)
(0.0137764 -0.014573 0)
(0.0201167 -0.0118031 0)
(0.0256435 -0.00905975 0)
(0.0303344 -0.00639603 0)
(0.0341811 -0.00386097 0)
(0.03719 -0.00149804 0)
(0.0393814 0.000656126 0)
(0.0407898 0.00257281 0)
(0.0414623 0.00423196 0)
(0.0414579 0.0056226 0)
(0.0408453 0.00674271 0)
(0.0397004 0.0075988 0)
(0.0381042 0.00820499 0)
(0.0361395 0.00858174 0)
(0.0338879 0.00875443 0)
(0.0314281 0.00875159 0)
(0.0288318 0.00860351 0)
(0.0261645 0.00834035 0)
(0.0234806 0.00799127 0)
(0.0208282 0.00758242 0)
(0.018242 0.00713686 0)
(0.0157536 0.00667178 0)
(0.0133803 0.00619974 0)
(0.0111435 0.00572402 0)
(0.00904873 0.00524292 0)
(0.00711872 0.00474178 0)
(0.00535303 0.0042053 0)
(0.00379109 0.0036032 0)
(0.00242867 0.00292174 0)
(0.00134063 0.00213473 0)
(0.000511315 0.00127771 0)
(7.63848e-05 0.000379658 0)
(6.70797e-05 -0.000610706 0)
(0.000432249 -0.00167381 0)
(0.00109328 -0.00251806 0)
(0.00190109 -0.00313375 0)
(0.00283341 -0.00351103 0)
(0.00379172 -0.0036705 0)
(0.0047452 -0.00363328 0)
(0.00563 -0.00343362 0)
(0.00641983 -0.00310359 0)
(0.0070763 -0.00267809 0)
(0.00758285 -0.00218741 0)
(0.00791952 -0.00165917 0)
(0.00807869 -0.0011149 0)
(0.00805174 -0.000570973 0)
(0.00783586 -3.73127e-05 0)
(0.00742664 0.000481898 0)
(0.0068207 0.000988274 0)
(0.00601149 0.00148835 0)
(0.0049901 0.0019929 0)
(0.00374306 0.00251579 0)
(0.0022528 0.00307285 0)
(0.000496854 0.0036806 0)
(-0.00155138 0.00435506 0)
(-0.00392233 0.00511061 0)
(-0.00664907 0.00595923 0)
(-0.00976625 0.00690981 0)
(-0.0133086 0.00796787 0)
(-0.0173098 0.00913545 0)
(-0.0218003 0.0104111 0)
(-0.0268064 0.0117897 0)
(-0.0323483 0.0132629 0)
(-0.0384383 0.0148186 0)
(-0.0450796 0.0164408 0)
(-0.0522646 0.0181099 0)
(-0.0599735 0.0198024 0)
(-0.0681741 0.0214912 0)
(-0.076821 0.0231462 0)
(-0.0858564 0.0247352 0)
(-0.095211 0.0262244 0)
(-0.104806 0.02758 0)
(-0.114554 0.0287692 0)
(-0.124365 0.0297616 0)
(-0.134145 0.0305303 0)
(-0.143802 0.0310525 0)
(-0.153248 0.0313103 0)
(-0.162398 0.0312913 0)
(-0.171178 0.030988 0)
(-0.179521 0.0303983 0)
(-0.187367 0.0295242 0)
(-0.194666 0.0283721 0)
(-0.201378 0.0269513 0)
(-0.207469 0.025274 0)
(-0.21291 0.0233542 0)
(-0.217682 0.0212074 0)
(-0.221768 0.0188501 0)
(-0.225154 0.0162994 0)
(-0.227831 0.0135729 0)
(-0.22979 0.0106885 0)
(-0.231026 0.00766428 0)
(-0.231534 0.00451904 0)
(-0.231309 0.00127205 0)
(-0.230348 -0.00205652 0)
(-0.228649 -0.00544538 0)
(-0.22621 -0.00887178 0)
(-0.22303 -0.0123113 0)
(-0.219112 -0.0157374 0)
(-0.214458 -0.0191215 0)
(-0.209076 -0.0224327 0)
(-0.202974 -0.0256375 0)
(-0.196168 -0.0287005 0)
(-0.188678 -0.031584 0)
(-0.180528 -0.0342492 0)
(-0.171752 -0.0366561 0)
(-0.162389 -0.0387651 0)
(-0.15249 -0.0405375 0)
(-0.142111 -0.0419373 0)
(-0.13132 -0.0429321 0)
(-0.12019 -0.0434949 0)
(-0.108807 -0.0436055 0)
(-0.0972613 -0.0432517 0)
(-0.0856499 -0.0424308 0)
(-0.0740744 -0.0411498 0)
(-0.0626388 -0.0394267 0)
(-0.0514469 -0.0372897 0)
(-0.0406006 -0.0347772 0)
(-0.0301969 -0.0319366 0)
(-0.0203264 -0.0288232 0)
(-0.0110709 -0.0254984 0)
(-0.00250235 -0.0220277 0)
(0.00531874 -0.0184789 0)
(0.0123439 -0.0149199 0)
(0.0185374 -0.0114171 0)
(0.0238766 -0.00803294 0)
(0.028352 -0.00482483 0)
(0.0319675 -0.00184317 0)
(0.0347403 0.000869824 0)
(0.0367005 0.00328129 0)
(0.037891 0.00536851 0)
(0.0383657 0.00711936 0)
(0.0381894 0.00853232 0)
(0.0374344 0.00961599 0)
(0.0361795 0.0103881 0)
(0.0345062 0.0108741 0)
(0.0324972 0.0111055 0)
(0.0302316 0.0111178 0)
(0.0277855 0.0109484 0)
(0.0252259 0.010635 0)
(0.0226145 0.010213 0)
(0.0200001 0.00971434 0)
(0.0174283 0.00916476 0)
(0.0149287 0.00858365 0)
(0.0125352 0.00797956 0)
(0.0102619 0.00735331 0)
(0.00814148 0.00669082 0)
(0.00617769 0.00597361 0)
(0.00441977 0.00516718 0)
(0.002864 0.00424809 0)
(0.00160253 0.00318116 0)
(0.000621128 0.00198098 0)
(9.54207e-05 0.000657565 0)
(7.08754e-05 -0.000833377 0)
(0.000457845 -0.00221564 0)
(0.00115336 -0.00328221 0)
(0.00199219 -0.00403465 0)
(0.00294655 -0.00447756 0)
(0.00390875 -0.00463957 0)
(0.0048456 -0.00455247 0)
(0.00568932 -0.00425886 0)
(0.00641296 -0.00380018 0)
(0.00697636 -0.00321908 0)
(0.00736237 -0.00255322 0)
(0.00754946 -0.00183592 0)
(0.00752844 -0.00109323 0)
(0.00728815 -0.000344276 0)
(0.00682266 0.000399731 0)
(0.00612347 0.00113498 0)
(0.00518233 0.00186482 0)
(0.00398688 0.00259881 0)
(0.00252174 0.0033517 0)
(0.000766308 0.0041419 0)
(-0.00130441 0.00499002 0)
(-0.00372038 0.00591708 0)
(-0.00651531 0.00694297 0)
(-0.00972596 0.00808493 0)
(-0.0133905 0.00935644 0)
(-0.0175468 0.0107664 0)
(-0.0222308 0.0123188 0)
(-0.0274743 0.0140121 0)
(-0.0333032 0.0158398 0)
(-0.0397354 0.0177899 0)
(-0.0467786 0.0198449 0)
(-0.0544288 0.0219824 0)
(-0.0626687 0.0241742 0)
(-0.0714665 0.0263876 0)
(-0.0807756 0.0285852 0)
(-0.0905347 0.0307261 0)
(-0.100669 0.032767 0)
(-0.111094 0.0346642 0)
(-0.121713 0.0363747 0)
(-0.132429 0.0378579 0)
(-0.14314 0.0390779 0)
(-0.153745 0.0400041 0)
(-0.164152 0.0406122 0)
(-0.174274 0.0408852 0)
(-0.184032 0.0408127 0)
(-0.193359 0.0403912 0)
(-0.2022 0.0396229 0)
(-0.210508 0.0385153 0)
(-0.218245 0.0370798 0)
(-0.225384 0.0353312 0)
(-0.231902 0.0332863 0)
(-0.237785 0.0309634 0)
(-0.24302 0.0283817 0)
(-0.247599 0.0255606 0)
(-0.251516 0.0225193 0)
(-0.254765 0.019277 0)
(-0.257342 0.0158526 0)
(-0.259243 0.0122646 0)
(-0.260463 0.00853158 0)
(-0.260997 0.00467244 0)
(-0.260839 0.000706514 0)
(-0.259984 -0.00334594 0)
(-0.258424 -0.00746333 0)
(-0.256154 -0.0116224 0)
(-0.253166 -0.0157976 0)
(-0.249455 -0.019961 0)
(-0.245017 -0.0240819 0)
(-0.23985 -0.0281263 0)
(-0.233952 -0.0320574 0)
(-0.227329 -0.0358348 0)
(-0.219988 -0.0394156 0)
(-0.211943 -0.0427541 0)
(-0.203215 -0.0458032 0)
(-0.193832 -0.0485147 0)
(-0.183832 -0.050841 0)
(-0.173262 -0.0527363 0)
(-0.162179 -0.0541585 0)
(-0.150651 -0.0550711 0)
(-0.138757 -0.0554447 0)
(-0.126585 -0.0552593 0)
(-0.114233 -0.0545054 0)
(-0.101804 -0.0531859 0)
(-0.0894092 -0.0513161 0)
(-0.0771592 -0.0489247 0)
(-0.0651658 -0.0460529 0)
(-0.0535371 -0.0427535 0)
(-0.0423752 -0.0390893 0)
(-0.0317738 -0.0351311 0)
(-0.0218162 -0.0309555 0)
(-0.0125739 -0.0266421 0)
(-0.00410595 -0.0222716 0)
(0.00354191 -0.0179229 0)
(0.0103368 -0.0136716 0)
(0.0162585 -0.00958788 0)
(0.0212994 -0.00573498 0)
(0.0254643 -0.00216779 0)
(0.0287697 0.00106839 0)
(0.0312441 0.00393883 0)
(0.0329274 0.00642016 0)
(0.0338704 0.0085008 0)
(0.0341337 0.010181 0)
(0.0337865 0.0114723 0)
(0.032904 0.0123965 0)
(0.0315661 0.0129842 0)
(0.029853 0.0132726 0)
(0.0278454 0.0133037 0)
(0.0256177 0.0131213 0)
(0.0232418 0.0127687 0)
(0.0207779 0.0122864 0)
(0.0182842 0.0117087 0)
(0.0158023 0.0110625 0)
(0.0133785 0.010363 0)
(0.0110368 0.00961464 0)
(0.00882104 0.00880569 0)
(0.00674123 0.00791512 0)
(0.00485748 0.006905 0)
(0.00316971 0.0057403 0)
(0.00178628 0.00437477 0)
(0.000696825 0.00279497 0)
(0.000107797 0.000985283 0)
(7.34015e-05 -0.00106408 0)
(0.00047214 -0.00277555 0)
(0.00118166 -0.00406364 0)
(0.00202491 -0.00494252 0)
(0.00296816 -0.00543354 0)
(0.00389663 -0.00557583 0)
(0.00477455 -0.00541386 0)
(0.0055313 -0.00499978 0)
(0.0061393 -0.00438514 0)
(0.00655735 -0.00362047 0)
(0.00676779 -0.00275065 0)
(0.00674778 -0.0018141 0)
(0.00648645 -0.000840716 0)
(0.00596986 0.000148529 0)
(0.00518845 0.00114208 0)
(0.00412897 0.00213749 0)
(0.00277742 0.00314079 0)
(0.00111475 0.0041654 0)
(-0.000881825 0.00523063 0)
(-0.00324071 0.00635986 0)
(-0.00599474 0.00757841 0)
(-0.00918123 0.00891139 0)
(-0.0128402 0.0103816 0)
(-0.0170131 0.0120076 0)
(-0.0217405 0.0138025 0)
(-0.02706 0.0157726 0)
(-0.0330038 0.0179171 0)
(-0.0395962 0.0202278 0)
(-0.0468514 0.0226889 0)
(-0.0547712 0.0252773 0)
(-0.0633429 0.0279626 0)
(-0.0725381 0.0307074 0)
(-0.0823118 0.0334683 0)
(-0.0926021 0.0361965 0)
(-0.103332 0.0388397 0)
(-0.114411 0.0413436 0)
(-0.12574 0.043654 0)
(-0.13721 0.0457196 0)
(-0.148713 0.0474936 0)
(-0.160143 0.0489359 0)
(-0.171399 0.0500142 0)
(-0.182388 0.050705 0)
(-0.19303 0.0509935 0)
(-0.203257 0.0508736 0)
(-0.213012 0.0503465 0)
(-0.222249 0.0494199 0)
(-0.230936 0.0481069 0)
(-0.239048 0.0464242 0)
(-0.246566 0.0443913 0)
(-0.253478 0.0420293 0)
(-0.259779 0.0393601 0)
(-0.265462 0.0364056 0)
(-0.270525 0.0331872 0)
(-0.274966 0.0297258 0)
(-0.278785 0.0260414 0)
(-0.281978 0.0221532 0)
(-0.284544 0.0180794 0)
(-0.286479 0.0138382 0)
(-0.287778 0.00944725 0)
(-0.288436 0.00492436 0)
(-0.288447 0.000287975 0)
(-0.287802 -0.00444249 0)
(-0.286491 -0.00924612 0)
(-0.284506 -0.0141001 0)
(-0.281834 -0.0189789 0)
(-0.278465 -0.0238544 0)
(-0.274387 -0.0286948 0)
(-0.269591 -0.0334647 0)
(-0.264066 -0.0381244 0)
(-0.257805 -0.0426306 0)
(-0.250806 -0.0469355 0)
(-0.243068 -0.0509881 0)
(-0.234599 -0.0547339 0)
(-0.225411 -0.0581168 0)
(-0.215528 -0.0610797 0)
(-0.204983 -0.0635664 0)
(-0.193819 -0.0655236 0)
(-0.182093 -0.0669029 0)
(-0.169875 -0.0676635 0)
(-0.157245 -0.0677743 0)
(-0.1443 -0.0672161 0)
(-0.131145 -0.0659837 0)
(-0.117894 -0.0640871 0)
(-0.104668 -0.0615522 0)
(-0.0915893 -0.0584207 0)
(-0.0787815 -0.0547494 0)
(-0.0663623 -0.0506077 0)
(-0.0544418 -0.046076 0)
(-0.0431194 -0.0412422 0)
(-0.0324811 -0.036199 0)
(-0.0225988 -0.0310406 0)
(-0.0135294 -0.0258595 0)
(-0.00531494 -0.0207447 0)
(0.00201646 -0.0157791 0)
(0.0084497 -0.0110383 0)
(0.0139818 -0.00658887 0)
(0.018621 -0.00248741 0)
(0.0223863 0.00122017 0)
(0.025307 0.00449966 0)
(0.0274226 0.00732908 0)
(0.0287821 0.0096991 0)
(0.029444 0.0116129 0)
(0.0294743 0.0130859 0)
(0.028946 0.0141442 0)
(0.0279355 0.0148235 0)
(0.0265227 0.0151663 0)
(0.0247846 0.0152199 0)
(0.0227987 0.0150328 0)
(0.020633 0.0146524 0)
(0.0183556 0.0141205 0)
(0.0160184 0.0134715 0)
(0.0136793 0.0127274 0)
(0.0113723 0.0118973 0)
(0.0091526 0.0109729 0)
(0.0070382 0.0099311 0)
(0.00510012 0.00873128 0)
(0.0033444 0.00732572 0)
(0.00189295 0.00565558 0)
(0.000740977 0.00367556 0)
(0.000114898 0.00134154 0)
(7.44876e-05 -0.00130148 0)
(0.000475724 -0.00334488 0)
(0.00118083 -0.00484741 0)
(0.00200379 -0.00583758 0)
(0.00290483 -0.00635512 0)
(0.00376395 -0.00645173 0)
(0.00454278 -0.0061862 0)
(0.00516888 -0.00562141 0)
(0.00561411 -0.00481974 0)
(0.00583669 -0.0038397 0)
(0.00581846 -0.00273317 0)
(0.00553537 -0.0015431 0)
(0.00497456 -0.00030238 0)
(0.00411902 0.000967189 0)
(0.00295499 0.0022548 0)
(0.00146378 0.00356047 0)
(-0.000375086 0.0048939 0)
(-0.00258803 0.00627318 0)
(-0.00520574 0.00772268 0)
(-0.00826457 0.00927076 0)
(-0.0118048 0.010947 0)
(-0.0158699 0.0127794 0)
(-0.0205042 0.014792 0)
(-0.0257506 0.0170022 0)
(-0.0316481 0.0194195 0)
(-0.0382286 0.0220443 0)
(-0.0455141 0.0248668 0)
(-0.0535142 0.0278676 0)
(-0.0622236 0.0310171 0)
(-0.0716201 0.0342767 0)
(-0.0816634 0.0375989 0)
(-0.0922946 0.0409289 0)
(-0.103437 0.0442058 0)
(-0.114999 0.0473653 0)
(-0.126876 0.0503421 0)
(-0.138954 0.0530725 0)
(-0.151117 0.0554976 0)
(-0.163252 0.0575656 0)
(-0.175249 0.0592338 0)
(-0.187009 0.06047 0)
(-0.198446 0.0612528 0)
(-0.209487 0.0615711 0)
(-0.220074 0.0614233 0)
(-0.230159 0.0608162 0)
(-0.23971 0.0597628 0)
(-0.248703 0.0582815 0)
(-0.257121 0.0563937 0)
(-0.264956 0.0541231 0)
(-0.272203 0.0514942 0)
(-0.278859 0.0485319 0)
(-0.284926 0.0452603 0)
(-0.290405 0.0417026 0)
(-0.295297 0.037881 0)
(-0.299605 0.0338162 0)
(-0.30333 0.0295278 0)
(-0.306473 0.0250341 0)
(-0.309033 0.0203527 0)
(-0.31101 0.0155001 0)
(-0.3124 0.010493 0)
(-0.313199 0.00534775 0)
(-0.313402 8.13475e-05 0)
(-0.313 -0.00528826 0)
(-0.311984 -0.0107416 0)
(-0.310342 -0.0162571 0)
(-0.308062 -0.0218105 0)
(-0.305127 -0.0273744 0)
(-0.301522 -0.0329174 0)
(-0.297229 -0.0384038 0)
(-0.29223 -0.0437933 0)
(-0.286507 -0.0490403 0)
(-0.280043 -0.0540941 0)
(-0.272826 -0.0588993 0)
(-0.264844 -0.0633956 0)
(-0.256096 -0.0675191 0)
(-0.246585 -0.0712036 0)
(-0.236324 -0.0743819 0)
(-0.225339 -0.0769883 0)
(-0.21367 -0.078961 0)
(-0.201369 -0.0802445 0)
(-0.188508 -0.0807935 0)
(-0.175173 -0.0805749 0)
(-0.161465 -0.0795712 0)
(-0.147501 -0.0777824 0)
(-0.133409 -0.0752275 0)
(-0.119323 -0.0719452 0)
(-0.105383 -0.067993 0)
(-0.0917284 -0.0634459 0)
(-0.0784907 -0.0583933 0)
(-0.0657922 -0.0529356 0)
(-0.053741 -0.0471803 0)
(-0.0424284 -0.0412375 0)
(-0.0319277 -0.0352165 0)
(-0.0222938 -0.0292222 0)
(-0.0135642 -0.0233523 0)
(-0.00576044 -0.0176958 0)
(0.0011097 -0.0123311 0)
(0.00705056 -0.00732589 0)
(0.0120771 -0.00273603 0)
(0.0162135 0.0013947 0)
(0.0194929 0.00503502 0)
(0.0219568 0.00816657 0)
(0.0236553 0.0107841 0)
(0.0246456 0.0128953 0)
(0.024993 0.0145202 0)
(0.0247677 0.0156901 0)
(0.0240454 0.0164456 0)
(0.0229019 0.0168341 0)
(0.021416 0.0169068 0)
(0.0196598 0.0167154 0)
(0.0177078 0.0163077 0)
(0.01562 0.0157241 0)
(0.0134638 0.0149935 0)
(0.0112827 0.0141293 0)
(0.00914226 0.013127 0)
(0.00706963 0.0119622 0)
(0.00514606 0.0105916 0)
(0.00338555 0.00895505 0)
(0.00192024 0.00698068 0)
(0.000751816 0.00459097 0)
(0.000116108 0.00171283 0)
(7.47925e-05 -0.00153859 0)
(0.000470698 -0.00390611 0)
(0.00115416 -0.00560706 0)
(0.00193281 -0.00668558 0)
(0.00276073 -0.00720167 0)
(0.00351484 -0.00722139 0)
(0.00415439 -0.00681946 0)
(0.00460635 -0.00607044 0)
(0.00484209 -0.00504798 0)
(0.00481983 -0.00381853 0)
(0.00452069 -0.00244048 0)
(0.00391939 -0.000960437 0)
(0.00300066 0.000586768 0)
(0.00174394 0.00217973 0)
(0.000130586 0.00380963 0)
(-0.00186414 0.00548011 0)
(-0.00426781 0.00720552 0)
(-0.00711459 0.00900919 0)
(-0.010443 0.0109206 0)
(-0.0142968 0.0129726 0)
(-0.0187222 0.0151977 0)
(-0.0237664 0.0176248 0)
(-0.0294747 0.0202761 0)
(-0.0358868 0.0231644 0)
(-0.0430341 0.0262915 0)
(-0.0509362 0.0296468 0)
(-0.0595975 0.0332069 0)
(-0.0690053 0.0369363 0)
(-0.0791275 0.0407873 0)
(-0.0899117 0.044702 0)
(-0.101285 0.0486136 0)
(-0.113158 0.0524492 0)
(-0.125423 0.0561323 0)
(-0.137964 0.0595869 0)
(-0.150658 0.0627405 0)
(-0.163381 0.0655277 0)
(-0.176016 0.0678929 0)
(-0.188456 0.0697923 0)
(-0.200603 0.0711948 0)
(-0.212379 0.0720819 0)
(-0.223719 0.0724468 0)
(-0.234571 0.0722929 0)
(-0.2449 0.0716321 0)
(-0.25468 0.0704827 0)
(-0.263894 0.0688675 0)
(-0.272532 0.0668123 0)
(-0.280592 0.0643443 0)
(-0.288072 0.0614913 0)
(-0.294976 0.0582808 0)
(-0.301307 0.0547392 0)
(-0.307071 0.0508918 0)
(-0.312274 0.0467622 0)