/*--------------------------------*- C++ -*----------------------------------*\
| =========                 |                                                 |
| \\      /  F ield         | OpenFOAM: The Open Source CFD Toolbox           |
|  \\    /   O peration     | Version:  2406                                  |
|   \\  /    A nd           | Website:  www.openfoam.com                      |
|    \\/     M anipulation  |                                                 |
\*---------------------------------------------------------------------------*/
FoamFile
{
    version     2.0;
    format      ascii;
    arch        "LSB;label=32;scalar=64";
    class       volVectorField;
    location    "26.75";
    object      Uold;
}
// * * * * * * * * * * * * * * * * * * * * * * * * * * * * * * * * * * * * * //

dimensions      [0 1 -1 0 0 0 0];

internalField   nonuniform List<vector> 
14400
(
(-1.14348e-05 1.13789e-05 0)
(7.47246e-06 -1.13717e-05 0)
(9.50278e-05 -3.37808e-05 0)
(0.000235378 -5.23852e-05 0)
(0.000419599 -6.25255e-05 0)
(0.000623246 -6.77222e-05 0)
(0.000837657 -6.76918e-05 0)
(0.00104614 -6.46992e-05 0)
(0.00124348 -5.90301e-05 0)
(0.00142057 -5.20814e-05 0)
(0.0015757 -4.42614e-05 0)
(0.00170554 -3.64431e-05 0)
(0.00181125 -2.89476e-05 0)
(0.00189328 -2.2246e-05 0)
(0.00195447 -1.64717e-05 0)
(0.00199711 -1.17726e-05 0)
(0.00202438 -8.08546e-06 0)
(0.00203874 -5.31957e-06 0)
(0.00204258 -3.25924e-06 0)
(0.00203734 -1.66693e-06 0)
(0.00202383 -2.47607e-07 0)
(0.00200182 1.28859e-06 0)
(0.00197027 3.23409e-06 0)
(0.00192719 5.84643e-06 0)
(0.00186987 9.34997e-06 0)
(0.00179491 1.392e-05 0)
(0.00169841 1.96907e-05 0)
(0.00157607 2.67565e-05 0)
(0.00142333 3.51859e-05 0)
(0.00123538 4.50301e-05 0)
(0.00100732 5.63334e-05 0)
(0.000734087 6.91374e-05 0)
(0.000410585 8.34814e-05 0)
(3.16579e-05 9.93978e-05 0)
(-0.000407817 0.000116905 0)
(-0.000912854 0.000135996 0)
(-0.00148824 0.000156635 0)
(-0.00213841 0.00017874 0)
(-0.00286727 0.000202187 0)
(-0.00367802 0.000226796 0)
(-0.004573 0.000252332 0)
(-0.00555347 0.000278506 0)
(-0.00661945 0.000304969 0)
(-0.00776953 0.000331319 0)
(-0.00900075 0.000357103 0)
(-0.0103084 0.000381825 0)
(-0.0116862 0.000404947 0)
(-0.0131256 0.000425905 0)
(-0.0146165 0.000444112 0)
(-0.0161469 0.000458972 0)
(-0.0177028 0.000469886 0)
(-0.0192687 0.000476267 0)
(-0.0208274 0.000477545 0)
(-0.0223601 0.000473183 0)
(-0.0238471 0.000462679 0)
(-0.0252675 0.000445588 0)
(-0.0265997 0.000421523 0)
(-0.0278214 0.000390176 0)
(-0.0289106 0.000351332 0)
(-0.0298451 0.000304886 0)
(-0.0306035 0.000250863 0)
(-0.0311654 0.000189439 0)
(-0.0315117 0.000120964 0)
(-0.0316254 4.59838e-05 0)
(-0.0314919 -3.47395e-05 0)
(-0.0310995 -0.000120214 0)
(-0.03044 -0.000209209 0)
(-0.0295092 -0.00030025 0)
(-0.0283077 -0.000391638 0)
(-0.0268407 -0.000481466 0)
(-0.0251189 -0.000567664 0)
(-0.0231584 -0.000648056 0)
(-0.020981 -0.000720429 0)
(-0.0186141 -0.00078262 0)
(-0.0160901 -0.000832619 0)
(-0.0134462 -0.000868666 0)
(-0.0107235 -0.000889358 0)
(-0.00796604 -0.000893746 0)
(-0.00521964 -0.000881413 0)
(-0.00253043 -0.000852529 0)
(5.64576e-05 -0.000807878 0)
(0.00249846 -0.000748843 0)
(0.004757 -0.000677356 0)
(0.00679882 -0.000595814 0)
(0.00859708 -0.000506952 0)
(0.0101322 -0.000413707 0)
(0.0113924 -0.000319056 0)
(0.0123738 -0.000225865 0)
(0.0130801 -0.000136745 0)
(0.0135223 -5.39331e-05 0)
(0.0137175 2.07881e-05 0)
(0.0136879 8.61405e-05 0)
(0.0134596 0.000141361 0)
(0.0130611 0.000186173 0)
(0.0125222 0.000220741 0)
(0.0118727 0.000245592 0)
(0.0111411 0.000261541 0)
(0.0103541 0.000269595 0)
(0.00953558 0.000270887 0)
(0.00870656 0.000266583 0)
(0.00788451 0.000257846 0)
(0.00708379 0.000245752 0)
(0.00631529 0.000231313 0)
(0.0055872 0.000215381 0)
(0.00490463 0.000198744 0)
(0.00427084 0.000181987 0)
(0.00368634 0.000165695 0)
(0.00315099 0.000150194 0)
(0.00266198 0.000135917 0)
(0.0022174 0.000122889 0)
(0.0018124 0.000111405 0)
(0.00144538 0.000100994 0)
(0.00111126 9.17474e-05 0)
(0.000811914 8.22642e-05 0)
(0.000544738 7.23866e-05 0)
(0.000319136 5.91569e-05 0)
(0.00013814 4.2885e-05 0)
(1.9176e-05 1.95039e-05 0)
(-3.28628e-05 -3.69504e-06 0)
(-2.06277e-05 -2.02785e-05 0)
(1.07414e-05 -7.13012e-06 0)
(0.000125455 -0.000126933 0)
(0.000378926 -0.000239419 0)
(0.000733719 -0.000333104 0)
(0.00117748 -0.000390865 0)
(0.00166417 -0.000421341 0)
(0.00217377 -0.000424515 0)
(0.00267208 -0.00040843 0)
(0.00314415 -0.000376343 0)
(0.00356999 -0.000334416 0)
(0.00394253 -0.000286172 0)
(0.00425363 -0.000235934 0)
(0.00450318 -0.00018631 0)
(0.00469111 -0.000139784 0)
(0.00482169 -9.75991e-05 0)
(0.00489886 -6.05475e-05 0)
(0.0049281 -2.85191e-05 0)
(0.00491374 -9.47488e-07 0)
(0.00485967 2.33266e-05 0)
(0.00476786 4.57616e-05 0)
(0.00463864 6.81002e-05 0)
(0.00447002 9.2154e-05 0)
(0.00425796 0.000119734 0)
(0.00399624 0.000152502 0)
(0.00367677 0.000191921 0)
(0.0032898 0.000239183 0)
(0.00282428 0.000295222 0)
(0.00226818 0.00036072 0)
(0.00160877 0.000436153 0)
(0.000832897 0.000521837 0)
(-7.27824e-05 0.000617962 0)
(-0.0011216 0.00072461 0)
(-0.00232666 0.000841749 0)
(-0.00370058 0.0009692 0)
(-0.00525523 0.0011066 0)
(-0.00700137 0.00125334 0)
(-0.00894826 0.00140852 0)
(-0.0111032 0.00157093 0)
(-0.0134712 0.00173898 0)
(-0.0160541 0.00191073 0)
(-0.0188508 0.00208386 0)
(-0.0218562 0.0022557 0)
(-0.0250611 0.00242326 0)
(-0.0284523 0.0025833 0)
(-0.0320115 0.00273234 0)
(-0.0357165 0.00286677 0)
(-0.0395401 0.00298291 0)
(-0.043451 0.0030771 0)
(-0.0474141 0.00314578 0)
(-0.0513905 0.00318557 0)
(-0.0553384 0.00319333 0)
(-0.0592135 0.00316628 0)
(-0.0629696 0.003102 0)
(-0.0665597 0.00299852 0)
(-0.069936 0.00285437 0)
(-0.0730513 0.00266858 0)
(-0.0758591 0.00244078 0)
(-0.0783148 0.00217119 0)
(-0.080376 0.00186068 0)
(-0.0820034 0.00151078 0)
(-0.083161 0.00112374 0)
(-0.0838174 0.000702556 0)
(-0.0839458 0.000251008 0)
(-0.0835248 -0.000226318 0)
(-0.082539 -0.000724005 0)
(-0.0809795 -0.0012358 0)
(-0.0788444 -0.00175464 0)
(-0.0761395 -0.00227269 0)
(-0.0728784 -0.00278142 0)
(-0.0690829 -0.00327174 0)
(-0.0647835 -0.00373417 0)
(-0.0600191 -0.00415905 0)
(-0.0548371 -0.00453678 0)
(-0.0492934 -0.00485818 0)
(-0.043451 -0.0051148 0)
(-0.0373804 -0.00529927 0)
(-0.0311574 -0.00540568 0)
(-0.0248627 -0.00542995 0)
(-0.0185799 -0.00537007 0)
(-0.0123936 -0.00522637 0)
(-0.00638776 -0.00500169 0)
(-0.000643351 -0.00470132 0)
(0.00476369 -0.004333 0)
(0.00976458 -0.00390661 0)
(0.0142996 -0.00343386 0)
(0.01832 -0.00292783 0)
(0.0217891 -0.00240236 0)
(0.0246836 -0.00187153 0)
(0.0269936 -0.00134899 0)
(0.0287231 -0.000847406 0)
(0.0298893 -0.000377942 0)
(0.0305212 5.01581e-05 0)
(0.0306587 0.000429849 0)
(0.0303499 0.000756421 0)
(0.0296496 0.00102751 0)
(0.0286166 0.00124296 0)
(0.0273114 0.00140457 0)
(0.0257939 0.0015158 0)
(0.0241218 0.00158136 0)
(0.0223483 0.00160681 0)
(0.0205213 0.00159825 0)
(0.0186825 0.00156184 0)
(0.0168667 0.00150371 0)
(0.0151021 0.00142949 0)
(0.01341 0.00134447 0)
(0.0118061 0.00125312 0)
(0.0102995 0.00115952 0)
(0.00889615 0.00106668 0)
(0.00759577 0.000977408 0)
(0.0063981 0.000892909 0)
(0.00529721 0.000814461 0)
(0.00429174 0.000740654 0)
(0.00337463 0.000670798 0)
(0.00255039 0.000599431 0)
(0.00181631 0.000524082 0)
(0.0011901 0.00043424 0)
(0.000676186 0.000330149 0)
(0.000304884 0.000200691 0)
(7.52015e-05 7.26376e-05 0)
(-3.64981e-06 -3.27224e-05 0)
(3.20097e-05 -9.24552e-05 0)
(0.000234419 -0.000379353 0)
(0.000632267 -0.000638504 0)
(0.00115691 -0.000848747 0)
(0.00179512 -0.000983682 0)
(0.00248486 -0.00105356 0)
(0.00320059 -0.00106087 0)
(0.00389691 -0.00102 0)
(0.00455285 -0.000940138 0)
(0.00514109 -0.00083413 0)
(0.00565041 -0.000711283 0)
(0.0060687 -0.00058121 0)
(0.00639388 -0.000450712 0)
(0.00662436 -0.000325495 0)
(0.00676391 -0.000208879 0)
(0.00681614 -0.000102685 0)
(0.0067865 -6.81486e-06 0)
(0.00667894 8.0175e-05 0)
(0.00649664 0.000161064 0)
(0.00624013 0.000239503 0)
(0.00590751 0.000319803 0)
(0.00549366 0.000406524 0)
(0.00499048 0.000504213 0)
(0.00438673 0.00061709 0)
(0.00366858 0.000748868 0)
(0.0028198 0.000902599 0)
(0.00182242 0.00108065 0)
(0.000657141 0.0012847 0)
(-0.000696082 0.00151586 0)
(-0.00225761 0.00177467 0)
(-0.00404761 0.00206126 0)
(-0.00608562 0.00237528 0)
(-0.00839003 0.00271592 0)
(-0.0109775 0.0030818 0)
(-0.0138625 0.00347088 0)
(-0.0170563 0.00388034 0)
(-0.0205667 0.00430648 0)
(-0.0243971 0.00474468 0)
(-0.0285454 0.00518934 0)
(-0.0330043 0.00563394 0)
(-0.0377597 0.00607109 0)
(-0.0427912 0.00649265 0)
(-0.0480715 0.00688991 0)
(-0.0535665 0.00725377 0)
(-0.0592357 0.00757499 0)
(-0.0650326 0.0078444 0)
(-0.0709054 0.00805315 0)
(-0.0767977 0.00819296 0)
(-0.0826498 0.00825634 0)
(-0.0883997 0.00823677 0)
(-0.093984 0.00812883 0)
(-0.0993394 0.00792835 0)
(-0.104403 0.00763246 0)
(-0.109115 0.00723963 0)
(-0.113417 0.00674971 0)
(-0.117254 0.00616386 0)
(-0.120577 0.00548459 0)
(-0.123339 0.0047157 0)
(-0.1255 0.00386224 0)
(-0.127024 0.00293054 0)
(-0.127882 0.00192816 0)
(-0.128051 0.000863883 0)
(-0.127512 -0.000252223 0)
(-0.126255 -0.00140885 0)
(-0.124274 -0.00259344 0)
(-0.121573 -0.00379218 0)
(-0.118159 -0.00499007 0)
(-0.11405 -0.00617098 0)
(-0.10927 -0.00731785 0)
(-0.103851 -0.00841279 0)
(-0.0978318 -0.00943747 0)
(-0.0912612 -0.0103734 0)
(-0.0841949 -0.0112023 0)
(-0.0766963 -0.0119067 0)
(-0.0688366 -0.0124707 0)
(-0.0606938 -0.01288 0)
(-0.052352 -0.0131231 0)
(-0.0439004 -0.0131917 0)
(-0.0354321 -0.0130812 0)
(-0.0270423 -0.0127911 0)
(-0.0188269 -0.0123256 0)
(-0.0108805 -0.0116936 0)
(-0.00329397 -0.0109085 0)
(0.00384712 -0.00998809 0)
(0.0104649 -0.00895415 0)
(0.0164911 -0.00783163 0)
(0.021869 -0.00664782 0)
(0.0265547 -0.00543137 0)
(0.0305185 -0.00421117 0)
(0.0337457 -0.00301528 0)
(0.0362368 -0.00186983 0)
(0.0380076 -0.000798019 0)
(0.039088 0.000180655 0)
(0.0395211 0.00105105 0)
(0.0393613 0.00180273 0)
(0.0386722 0.00243009 0)
(0.0375239 0.00293222 0)
(0.0359905 0.00331247 0)
(0.0341471 0.00357788 0)
(0.0320677 0.00373845 0)
(0.0298219 0.00380633 0)
(0.0274743 0.00379494 0)
(0.0250816 0.0037183 0)
(0.0226931 0.00359023 0)
(0.0203486 0.003424 0)
(0.0180804 0.0032316 0)
(0.0159113 0.00302396 0)
(0.0138584 0.00280993 0)
(0.01193 0.00259713 0)
(0.0101325 0.00239014 0)
(0.00846414 0.00219229 0)
(0.00692768 0.00200206 0)
(0.00551752 0.0018173 0)
(0.00424216 0.00162806 0)
(0.00309885 0.00142728 0)
(0.00211176 0.00119657 0)
(0.00128287 0.000933688 0)
(0.000655306 0.000623401 0)
(0.000220819 0.000308313 0)
(2.33517e-05 2.47414e-05 0)
(4.96628e-05 -0.000228207 0)
(0.000326453 -0.000731215 0)
(0.000841929 -0.00116288 0)
(0.00149589 -0.00150067 0)
(0.00227405 -0.00171741 0)
(0.00310119 -0.00182517 0)
(0.0039499 -0.00183034 0)
(0.00476716 -0.00175348 0)
(0.00552904 -0.00161041 0)
(0.00620317 -0.00142106 0)
(0.00677559 -0.00120121 0)
(0.00723091 -0.000966313 0)
(0.00756496 -0.000727907 0)
(0.00777395 -0.00049529 0)
(0.00785999 -0.000274097 0)
(0.00782487 -6.72307e-05 0)
(0.00767221 0.000125521 0)
(0.00740378 0.000306772 0)
(0.00702015 0.000481375 0)
(0.00651862 0.00065574 0)
(0.00589346 0.000837394 0)
(0.00513497 0.00103432 0)
(0.00422983 0.00125445 0)
(0.003161 0.00150515 0)
(0.00190834 0.00179285 0)
(0.00044907 0.00212277 0)
(-0.00124145 0.00249886 0)
(-0.00318905 0.00292374 0)
(-0.00541988 0.00339885 0)
(-0.00795974 0.00392445 0)
(-0.0108332 0.00449975 0)
(-0.0140629 0.00512287 0)
(-0.0176684 0.00579072 0)
(-0.0216657 0.00649892 0)
(-0.0260657 0.00724159 0)
(-0.0308738 0.00801122 0)
(-0.0360883 0.00879861 0)
(-0.0417001 0.00959281 0)
(-0.0476916 0.0103813 0)
(-0.0540366 0.0111499 0)
(-0.0606999 0.0118837 0)
(-0.0676376 0.0125667 0)
(-0.0747975 0.0131826 0)
(-0.0821201 0.0137153 0)
(-0.08954 0.0141495 0)
(-0.0969867 0.0144707 0)
(-0.104387 0.0146663 0)
(-0.111665 0.0147252 0)
(-0.118747 0.0146388 0)
(-0.12556 0.0144006 0)
(-0.132032 0.0140065 0)
(-0.138098 0.013455 0)
(-0.143696 0.0127465 0)
(-0.14877 0.0118837 0)
(-0.153269 0.0108714 0)
(-0.157149 0.00971597 0)
(-0.160371 0.00842541 0)
(-0.162904 0.00700921 0)
(-0.164719 0.00547819 0)
(-0.165796 0.00384442 0)
(-0.166119 0.00212121 0)
(-0.165676 0.000323059 0)
(-0.164461 -0.00153425 0)
(-0.162474 -0.00343367 0)
(-0.159718 -0.0053568 0)
(-0.156202 -0.00728388 0)
(-0.151941 -0.00919379 0)
(-0.146953 -0.0110641 0)
(-0.141266 -0.0128711 0)
(-0.13491 -0.0145902 0)
(-0.127924 -0.0161961 0)
(-0.120354 -0.017663 0)
(-0.112251 -0.0189657 0)
(-0.103674 -0.0200795 0)
(-0.094692 -0.0209816 0)
(-0.0853772 -0.0216513 0)
(-0.0758103 -0.0220714 0)
(-0.0660777 -0.0222288 0)
(-0.0562703 -0.0221152 0)
(-0.0464833 -0.0217281 0)
(-0.0368136 -0.0210709 0)
(-0.0273588 -0.0201537 0)
(-0.0182152 -0.0189931 0)
(-0.00947559 -0.0176121 0)
(-0.00122755 -0.0160395 0)
(0.00644879 -0.0143093 0)
(0.0134825 -0.0124596 0)
(0.0198135 -0.0105313 0)
(0.0253942 -0.00856688 0)
(0.0301904 -0.00660876 0)
(0.0341828 -0.00469802 0)
(0.0373666 -0.00287288 0)
(0.0397524 -0.00116737 0)
(0.0413657 0.000389784 0)
(0.0422456 0.00177606 0)
(0.0424444 0.0029757 0)
(0.0420248 0.00398002 0)
(0.0410584 0.00478726 0)
(0.0396225 0.00540216 0)
(0.0377979 0.00583516 0)
(0.0356652 0.00610142 0)
(0.0333033 0.00621959 0)
(0.0307853 0.00621065 0)
(0.0281783 0.00609656 0)
(0.0255404 0.00589946 0)
(0.0229215 0.00564029 0)
(0.0203607 0.00533866 0)
(0.0178902 0.00501134 0)
(0.0155305 0.00467281 0)
(0.0132995 0.00433296 0)
(0.0112036 0.00399888 0)
(0.00925351 0.00367046 0)
(0.007448 0.00334513 0)
(0.00580169 0.00300973 0)
(0.00431214 0.00265297 0)
(0.00301032 0.0022499 0)
(0.0018941 0.00179392 0)
(0.00102117 0.00126504 0)
(0.000377606 0.000708528 0)
(5.28989e-05 0.000162681 0)
(6.00013e-05 -0.000407778 0)
(0.000388736 -0.0011754 0)
(0.000990684 -0.00180668 0)
(0.00173799 -0.00228348 0)
(0.0026131 -0.00258461 0)
(0.00352824 -0.002725 0)
(0.00445438 -0.00271728 0)
(0.00533246 -0.00258848 0)
(0.00613701 -0.00236221 0)
(0.00683211 -0.00206586 0)
(0.00740216 -0.00172246 0)
(0.0078292 -0.00135366 0)
(0.00810727 -0.000976113 0)
(0.00823022 -0.000602861 0)
(0.00819792 -0.000241899 0)
(0.00800947 0.000102968 0)
(0.00766549 0.000432369 0)
(0.00716419 0.000750578 0)
(0.00650207 0.00106511 0)
(0.00567172 0.00138581 0)
(0.00466212 0.00172414 0)
(0.00345772 0.00209218 0)
(0.00203893 0.00250183 0)
(0.000382152 0.00296404 0)
(-0.00153934 0.00348819 0)
(-0.00375473 0.00408172 0)
(-0.00629459 0.00474986 0)
(-0.00918986 0.00549566 0)
(-0.0124707 0.00632 0)
(-0.0161655 0.00722163 0)
(-0.0202992 0.00819724 0)
(-0.0248929 0.00924135 0)
(-0.0299615 0.0103462 0)
(-0.0355134 0.0115016 0)
(-0.0415485 0.0126946 0)
(-0.0480575 0.0139097 0)
(-0.0550208 0.0151288 0)
(-0.0624081 0.0163313 0)
(-0.0701781 0.0174947 0)
(-0.0782788 0.0185952 0)
(-0.0866485 0.019608 0)
(-0.0952171 0.0205087 0)
(-0.103908 0.0212738 0)
(-0.112639 0.0218814 0)
(-0.121326 0.0223121 0)
(-0.129885 0.0225496 0)
(-0.138232 0.0225811 0)
(-0.14629 0.0223972 0)
(-0.153984 0.0219926 0)
(-0.161247 0.0213651 0)
(-0.168017 0.0205165 0)
(-0.17424 0.0194509 0)
(-0.179871 0.0181755 0)
(-0.184869 0.0166996 0)
(-0.189201 0.0150341 0)
(-0.19284 0.0131916 0)
(-0.195764 0.0111859 0)
(-0.197955 0.00903172 0)
(-0.1994 0.00674488 0)
(-0.200089 0.00434195 0)
(-0.200015 0.00184047 0)
(-0.199174 -0.000740998 0)
(-0.197566 -0.00338277 0)
(-0.195191 -0.00606385 0)
(-0.192054 -0.00876179 0)
(-0.188162 -0.0114526 0)
(-0.183528 -0.0141104 0)
(-0.178165 -0.0167079 0)
(-0.172092 -0.019216 0)
(-0.165336 -0.0216039 0)
(-0.157924 -0.02384 0)
(-0.149895 -0.0258916 0)
(-0.141292 -0.0277261 0)
(-0.132165 -0.0293115 0)
(-0.122573 -0.0306173 0)
(-0.112582 -0.0316155 0)
(-0.102266 -0.0322821 0)
(-0.0917065 -0.0325977 0)
(-0.080991 -0.0325489 0)
(-0.0702125 -0.0321294 0)
(-0.0594679 -0.0313404 0)
(-0.0488565 -0.0301916 0)
(-0.038478 -0.0287011 0)
(-0.0284305 -0.0268957 0)
(-0.0188085 -0.0248097 0)
(-0.00970071 -0.0224847 0)
(-0.00118825 -0.0199682 0)
(0.00665701 -0.0173121 0)
(0.013774 -0.0145713 0)
(0.0201136 -0.0118018 0)
(0.0256397 -0.0090588 0)
(0.0303301 -0.00639546 0)
(0.0341764 -0.00386076 0)
(0.0371849 -0.00149818 0)
(0.039376 0.000655673 0)
(0.0407842 0.00257207 0)
(0.0414567 0.00423099 0)
(0.0414524 0.00562143 0)
(0.0408398 0.00674139 0)
(0.0396952 0.00759737 0)
(0.0380992 0.00820351 0)
(0.0361348 0.00858024 0)
(0.0338836 0.00875295 0)
(0.0314242 0.00875016 0)
(0.0288283 0.00860215 0)
(0.0261613 0.00833908 0)
(0.0234779 0.00799012 0)
(0.0208258 0.00758138 0)
(0.01824 0.00713594 0)
(0.0157519 0.00667097 0)
(0.0133789 0.00619903 0)
(0.0111424 0.00572341 0)
(0.00904786 0.0052424 0)
(0.00711806 0.00474135 0)
(0.00535254 0.00420494 0)
(0.00379076 0.00360291 0)
(0.00242846 0.00292153 0)
(0.00134053 0.00213459 0)
(0.000511276 0.00127764 0)
(7.63794e-05 0.000379652 0)
(6.70718e-05 -0.000610661 0)
(0.000432188 -0.00167363 0)
(0.00109311 -0.00251774 0)
(0.00190078 -0.00313329 0)
(0.00283292 -0.00351047 0)
(0.00379103 -0.00366987 0)
(0.00474431 -0.00363263 0)
(0.00562892 -0.00343301 0)
(0.00641859 -0.00310305 0)
(0.00707493 -0.00267765 0)
(0.00758139 -0.0021871 0)
(0.007918 -0.00165897 0)
(0.00807716 -0.00111482 0)
(0.00805023 -0.000570989 0)
(0.0078344 -3.74054e-05 0)
(0.00742525 0.00048175 0)
(0.00681942 0.000988091 0)
(0.00601032 0.00148815 0)
(0.00498907 0.00199268 0)
(0.00374219 0.00251555 0)
(0.00225212 0.00307259 0)
(0.000496396 0.0036803 0)
(-0.00155158 0.00435468 0)
(-0.00392222 0.00511013 0)
(-0.00664859 0.00595862 0)
(-0.00976533 0.00690903 0)
(-0.0133072 0.00796691 0)
(-0.0173077 0.00913428 0)
(-0.0217976 0.0104097 0)
(-0.0268029 0.0117881 0)
(-0.0323439 0.013261 0)
(-0.038433 0.0148164 0)
(-0.0450733 0.0164384 0)
(-0.0522572 0.0181072 0)
(-0.0599649 0.0197994 0)
(-0.0681643 0.021488 0)
(-0.07681 0.0231428 0)
(-0.0858441 0.0247316 0)
(-0.0951975 0.0262206 0)
(-0.104791 0.027576 0)
(-0.114538 0.0287652 0)
(-0.124348 0.0297576 0)
(-0.134127 0.0305262 0)
(-0.143783 0.0310485 0)
(-0.153228 0.0313064 0)
(-0.162377 0.0312875 0)
(-0.171157 0.0309845 0)
(-0.179499 0.0303949 0)
(-0.187344 0.0295211 0)
(-0.194643 0.0283692 0)
(-0.201355 0.0269487 0)
(-0.207445 0.0252717 0)
(-0.212887 0.0233522 0)
(-0.217659 0.0212057 0)
(-0.221744 0.0188488 0)
(-0.22513 0.0162984 0)
(-0.227807 0.0135722 0)
(-0.229767 0.0106881 0)
(-0.231003 0.00766421 0)
(-0.231511 0.00451929 0)
(-0.231287 0.00127262 0)
(-0.230326 -0.00205562 0)
(-0.228627 -0.00544415 0)
(-0.226189 -0.00887022 0)
(-0.22301 -0.0123094 0)
(-0.219092 -0.0157352 0)
(-0.214438 -0.019119 0)
(-0.209056 -0.0224298 0)
(-0.202956 -0.0256343 0)
(-0.19615 -0.028697 0)
(-0.18866 -0.0315802 0)
(-0.180511 -0.0342451 0)
(-0.171736 -0.0366518 0)
(-0.162375 -0.0387605 0)
(-0.152476 -0.0405327 0)
(-0.142098 -0.0419323 0)
(-0.131308 -0.042927 0)
(-0.120179 -0.0434897 0)
(-0.108797 -0.0436003 0)
(-0.0972524 -0.0432466 0)
(-0.085642 -0.0424257 0)
(-0.0740676 -0.0411449 0)
(-0.0626331 -0.039422 0)
(-0.0514423 -0.0372852 0)
(-0.040597 -0.034773 0)
(-0.0301944 -0.0319328 0)
(-0.0203248 -0.0288198 0)
(-0.0110703 -0.0254954 0)
(-0.00250259 -0.0220252 0)
(0.00531768 -0.0184768 0)
(0.0123421 -0.0149183 0)
(0.018535 -0.0114159 0)
(0.0238736 -0.00803224 0)
(0.0283485 -0.00482457 0)
(0.0319635 -0.00184332 0)
(0.034736 0.000869298 0)
(0.0366959 0.00328043 0)
(0.0378862 0.00536736 0)
(0.038361 0.00711797 0)
(0.0381846 0.00853075 0)
(0.0374297 0.00961429 0)
(0.036175 0.0103863 0)
(0.034502 0.0108723 0)
(0.0324932 0.0111037 0)
(0.030228 0.0111161 0)
(0.0277823 0.0109468 0)
(0.025223 0.0106335 0)
(0.0226119 0.0102116 0)
(0.0199979 0.00971308 0)
(0.0174264 0.00916363 0)
(0.0149271 0.00858265 0)
(0.012534 0.00797869 0)
(0.0102608 0.00735255 0)
(0.00814068 0.00669017 0)
(0.0061771 0.00597307 0)
(0.00441935 0.00516674 0)
(0.00286373 0.00424775 0)
(0.00160238 0.00318093 0)
(0.000621073 0.00198085 0)
(9.54125e-05 0.000657537 0)
(7.08654e-05 -0.000833301 0)
(0.00045777 -0.00221537 0)
(0.00115316 -0.00328175 0)
(0.00199181 -0.00403401 0)
(0.00294597 -0.00447679 0)
(0.00390795 -0.00463872 0)
(0.00484458 -0.00455162 0)
(0.00568811 -0.00425807 0)
(0.00641158 -0.0037995 0)
(0.00697485 -0.00321853 0)
(0.00736078 -0.00255284 0)
(0.00754784 -0.00183569 0)
(0.00752683 -0.00109316 0)
(0.00728659 -0.000344343 0)
(0.00682119 0.000399556 0)
(0.00612211 0.00113472 0)
(0.00518112 0.0018645 0)
(0.00398585 0.00259845 0)
(0.00252092 0.00335129 0)
(0.000765728 0.00414145 0)
(-0.00130471 0.0049895 0)
(-0.00372035 0.00591648 0)
(-0.00651488 0.00694224 0)
(-0.00972508 0.00808403 0)
(-0.013389 0.00935534 0)
(-0.0175447 0.0107651 0)
(-0.022228 0.0123172 0)
(-0.0274707 0.0140102 0)
(-0.0332988 0.0158376 0)
(-0.0397299 0.0177873 0)
(-0.046772 0.019842 0)
(-0.0544211 0.0219791 0)
(-0.0626597 0.0241706 0)
(-0.0714563 0.0263837 0)
(-0.080764 0.0285809 0)
(-0.0905217 0.0307215 0)
(-0.100655 0.0327623 0)
(-0.111078 0.0346593 0)
(-0.121697 0.0363696 0)
(-0.132411 0.0378528 0)
(-0.14312 0.0390728 0)
(-0.153725 0.039999 0)
(-0.164131 0.0406072 0)
(-0.174252 0.0408804 0)
(-0.184009 0.0408081 0)
(-0.193336 0.0403868 0)
(-0.202177 0.0396188 0)
(-0.210484 0.0385115 0)
(-0.218221 0.0370764 0)
(-0.22536 0.0353281 0)
(-0.231878 0.0332835 0)
(-0.237761 0.0309611 0)
(-0.242996 0.0283797 0)
(-0.247575 0.025559 0)
(-0.251492 0.0225181 0)
(-0.254741 0.0192761 0)
(-0.257318 0.015852 0)
(-0.25922 0.0122644 0)
(-0.26044 0.00853175 0)
(-0.260974 0.00467297 0)
(-0.260816 0.000707393 0)
(-0.259961 -0.0033447 0)
(-0.258402 -0.00746174 0)
(-0.256132 -0.0116204 0)
(-0.253144 -0.0157952 0)
(-0.249434 -0.0199583 0)
(-0.244997 -0.0240788 0)
(-0.23983 -0.0281229 0)
(-0.233933 -0.0320536 0)
(-0.22731 -0.0358307 0)
(-0.219969 -0.0394111 0)
(-0.211925 -0.0427493 0)
(-0.203198 -0.0457981 0)
(-0.193816 -0.0485093 0)
(-0.183817 -0.0508353 0)
(-0.173247 -0.0527304 0)
(-0.162165 -0.0541525 0)
(-0.150638 -0.055065 0)
(-0.138745 -0.0554385 0)
(-0.126574 -0.0552531 0)
(-0.114223 -0.0544993 0)
(-0.101795 -0.0531799 0)
(-0.0894014 -0.0513104 0)
(-0.0771525 -0.0489192 0)
(-0.0651601 -0.0460478 0)
(-0.0535324 -0.0427487 0)
(-0.0423715 -0.0390849 0)
(-0.031771 -0.0351272 0)
(-0.0218143 -0.0309521 0)
(-0.012573 -0.0266393 0)
(-0.00410576 -0.0222692 0)
(0.00354137 -0.0179211 0)
(0.0103355 -0.0136703 0)
(0.0162567 -0.0095871 0)
(0.0212971 -0.00573469 0)
(0.0254615 -0.00216796 0)
(0.0287665 0.0010678 0)
(0.0312406 0.00393786 0)
(0.0329237 0.00641887 0)
(0.0338666 0.00849924 0)
(0.0341298 0.0101792 0)
(0.0337826 0.0114704 0)
(0.0329002 0.0123945 0)
(0.0315624 0.0129821 0)
(0.0298496 0.0132706 0)
(0.0278422 0.0133018 0)
(0.0256148 0.0131195 0)
(0.0232393 0.012767 0)
(0.0207757 0.0122848 0)
(0.0182822 0.0117073 0)
(0.0158006 0.0110612 0)
(0.0133772 0.0103618 0)
(0.0110357 0.00961364 0)
(0.00882016 0.00880482 0)
(0.00674057 0.00791438 0)
(0.00485701 0.00690439 0)
(0.0031694 0.00573982 0)
(0.0017861 0.00437442 0)
(0.000696759 0.00279477 0)
(0.000107787 0.000985224 0)
(7.33894e-05 -0.00106397 0)
(0.000472051 -0.00277517 0)
(0.00118142 -0.00406301 0)
(0.00202447 -0.00494168 0)
(0.0029675 -0.00543255 0)
(0.00389574 -0.00557476 0)
(0.00477342 -0.0054128 0)
(0.00552997 -0.0049988 0)
(0.00613782 -0.00438431 0)
(0.00655575 -0.00361983 0)
(0.00676613 -0.00275021 0)
(0.00674612 -0.00181388 0)
(0.00648483 -0.000840697 0)
(0.00596833 0.000148372 0)
(0.00518706 0.00114178 0)
(0.00412775 0.00213707 0)
(0.00277641 0.00314028 0)
(0.00111399 0.00416481 0)
(-0.000882293 0.00522996 0)
(-0.00324084 0.0063591 0)
(-0.00599448 0.00757753 0)
(-0.0091805 0.00891035 0)
(-0.0128389 0.0103803 0)
(-0.0170112 0.0120061 0)
(-0.0217378 0.0138007 0)
(-0.0270565 0.0157705 0)
(-0.0329994 0.0179146 0)
(-0.0395908 0.0202249 0)
(-0.0468448 0.0226856 0)
(-0.0547634 0.0252736 0)
(-0.0633338 0.0279584 0)
(-0.0725277 0.0307028 0)
(-0.0822999 0.0334633 0)
(-0.0925888 0.0361912 0)
(-0.103317 0.0388341 0)
(-0.114395 0.0413377 0)
(-0.125722 0.0436479 0)
(-0.137191 0.0457134 0)
(-0.148693 0.0474874 0)
(-0.160122 0.0489297 0)
(-0.171377 0.0500081 0)
(-0.182365 0.050699 0)
(-0.193007 0.0509878 0)
(-0.203233 0.0508682 0)
(-0.212988 0.0503414 0)
(-0.222225 0.0494152 0)
(-0.230912 0.0481025 0)
(-0.239023 0.0464202 0)
(-0.246541 0.0443877 0)
(-0.253454 0.0420262 0)
(-0.259754 0.0393574 0)
(-0.265437 0.0364033 0)
(-0.270501 0.0331853 0)
(-0.274942 0.0297243 0)
(-0.278761 0.0260403 0)
(-0.281954 0.0221525 0)
(-0.28452 0.0180791 0)
(-0.286455 0.0138383 0)
(-0.287755 0.00944768 0)
(-0.288414 0.00492516 0)
(-0.288424 0.000289146 0)
(-0.287779 -0.00444094 0)
(-0.286469 -0.00924421 0)
(-0.284484 -0.0140978 0)
(-0.281813 -0.0189763 0)
(-0.278444 -0.0238514 0)
(-0.274367 -0.0286914 0)
(-0.269571 -0.0334608 0)
(-0.264046 -0.0381202 0)
(-0.257786 -0.042626 0)
(-0.250787 -0.0469305 0)
(-0.24305 -0.0509827 0)
(-0.234581 -0.0547282 0)
(-0.225394 -0.0581107 0)
(-0.215512 -0.0610733 0)
(-0.204967 -0.0635597 0)
(-0.193804 -0.0655167 0)
(-0.182079 -0.0668959 0)
(-0.169861 -0.0676564 0)
(-0.157233 -0.0677672 0)
(-0.144289 -0.067209 0)
(-0.131135 -0.0659767 0)
(-0.117885 -0.0640803 0)
(-0.104659 -0.0615456 0)
(-0.0915818 -0.0584146 0)
(-0.0787749 -0.0547436 0)
(-0.0663567 -0.0506024 0)
(-0.0544372 -0.0460711 0)
(-0.0431157 -0.0412379 0)
(-0.0324783 -0.0361953 0)
(-0.0225968 -0.0310374 0)
(-0.0135282 -0.0258569 0)
(-0.00531439 -0.0207427 0)
(0.00201635 -0.0157778 0)
(0.00844899 -0.0110375 0)
(0.0139806 -0.00658856 0)
(0.0186193 -0.0024876 0)
(0.0223842 0.00121953 0)
(0.0253045 0.00449862 0)
(0.0274198 0.00732769 0)
(0.0287792 0.00969742 0)
(0.029441 0.011611 0)
(0.0294712 0.0130838 0)
(0.028943 0.014142 0)
(0.0279326 0.0148213 0)
(0.0265199 0.0151641 0)
(0.024782 0.0152178 0)
(0.0227963 0.0150308 0)
(0.0206308 0.0146505 0)
(0.0183536 0.0141188 0)
(0.0160167 0.0134699 0)
(0.0136779 0.012726 0)
(0.0113712 0.0118961 0)
(0.00915169 0.0109718 0)
(0.0070375 0.00993016 0)
(0.00509961 0.00873048 0)
(0.00334407 0.00732508 0)
(0.00189277 0.00565511 0)
(0.000740905 0.00367528 0)
(0.000114887 0.00134144 0)
(7.44734e-05 -0.00130132 0)
(0.000475621 -0.00334438 0)
(0.00118056 -0.0048466 0)
(0.00200331 -0.00583651 0)
(0.00290409 -0.00635389 0)
(0.00376297 -0.00645042 0)
(0.00454157 -0.00618493 0)
(0.00516748 -0.00562026 0)
(0.00561256 -0.00481878 0)
(0.00583506 -0.00383899 0)
(0.0058168 -0.00273272 0)
(0.00553374 -0.00154292 0)
(0.00497303 -0.000302453 0)
(0.00411763 0.000966894 0)
(0.00295379 0.00225432 0)
(0.00146282 0.00355982 0)
(-0.000375764 0.00489312 0)
(-0.00258838 0.00627228 0)
(-0.00520569 0.00772165 0)
(-0.00826407 0.00926957 0)
(-0.0118037 0.0109456 0)
(-0.0158682 0.0127778 0)
(-0.0205018 0.01479 0)
(-0.0257475 0.0169999 0)
(-0.031644 0.0194169 0)
(-0.0382234 0.0220412 0)
(-0.0455077 0.0248632 0)
(-0.0535066 0.0278635 0)
(-0.0622147 0.0310125 0)
(-0.0716098 0.0342716 0)
(-0.0816516 0.0375934 0)
(-0.0922814 0.0409228 0)
(-0.103423 0.0441994 0)
(-0.114983 0.0473586 0)
(-0.126858 0.0503351 0)
(-0.138935 0.0530653 0)
(-0.151097 0.0554903 0)
(-0.163231 0.0575583 0)
(-0.175227 0.0592266 0)
(-0.186986 0.060463 0)
(-0.198423 0.061246 0)
(-0.209463 0.0615646 0)
(-0.220049 0.0614172 0)
(-0.230135 0.0608104 0)
(-0.239685 0.0597575 0)
(-0.248678 0.0582766 0)
(-0.257096 0.0563893 0)
(-0.264931 0.0541191 0)
(-0.272178 0.0514908 0)
(-0.278835 0.0485289 0)
(-0.284902 0.0452577 0)
(-0.290381 0.0417005 0)
(-0.295273 0.0378794 0)
(-0.299582 0.033815 0)
(-0.303307 0.029527 0)
(-0.30645 0.0250337 0)
(-0.309011 0.0203526 0)
(-0.310988 0.0155005 0)
(-0.312378 0.0104937 0)
(-0.313177 0.00534883 0)
(-0.31338 8.27981e-05 0)
(-0.312978 -0.00528643 0)
(-0.311963 -0.0107394 0)
(-0.310321 -0.0162545 0)
(-0.308041 -0.0218075 0)
(-0.305107 -0.027371 0)
(-0.301503 -0.0329136 0)
(-0.29721 -0.0383996 0)
(-0.292211 -0.0437887 0)
(-0.286488 -0.0490352 0)
(-0.280025 -0.0540887 0)
(-0.272807 -0.0588934 0)
(-0.264827 -0.0633893 0)
(-0.256079 -0.0675125 0)
(-0.246568 -0.0711966 0)
(-0.236307 -0.0743746 0)
(-0.225323 -0.0769807 0)
(-0.213654 -0.0789532 0)
(-0.201355 -0.0802366 0)
(-0.188495 -0.0807855 0)
(-0.17516 -0.0805669 0)
(-0.161453 -0.0795633 0)
(-0.14749 -0.0777746 0)
(-0.133398 -0.07522 0)
(-0.119314 -0.071938 0)
(-0.105375 -0.0679863 0)
(-0.0917213 -0.0634396 0)
(-0.0784845 -0.0583876 0)
(-0.0657869 -0.0529305 0)
(-0.0537366 -0.0471757 0)
(-0.0424248 -0.0412336 0)
(-0.0319249 -0.0352132 0)
(-0.0222917 -0.0292195 0)
(-0.0135627 -0.0233503 0)
(-0.00575965 -0.0176943 0)
(0.00110991 -0.0123303 0)
(0.00705024 -0.0073256 0)
(0.0120763 -0.00273625 0)
(0.0162123 0.001394 0)
(0.0194914 0.00503391 0)
(0.021955 0.0081651 0)
(0.0236532 0.0107823 0)
(0.0246433 0.0128933 0)
(0.0249907 0.014518 0)
(0.0247653 0.0156879 0)
(0.0240431 0.0164433 0)
(0.0228996 0.0168318 0)
(0.0214139 0.0169046 0)
(0.0196578 0.0167133 0)
(0.017706 0.0163057 0)
(0.0156185 0.0157223 0)
(0.0134625 0.0149919 0)
(0.0112816 0.0141279 0)
(0.00914137 0.0131257 0)
(0.00706894 0.011961 0)
(0.00514556 0.0105907 0)
(0.00338522 0.00895426 0)
(0.00192006 0.00698008 0)
(0.000751743 0.0045906 0)
(0.000116097 0.0017127 0)
(7.47762e-05 -0.00153838 0)
(0.000470582 -0.00390547 0)
(0.00115386 -0.00560605 0)
(0.00193228 -0.00668427 0)
(0.00275994 -0.00720018 0)
(0.0035138 -0.00721985 0)
(0.00415312 -0.00681798 0)
(0.0046049 -0.00606912 0)
(0.00484053 -0.00504693 0)
(0.00481822 -0.00381778 0)
(0.0045191 -0.00244005 0)
(0.00391788 -0.000960345 0)
(0.0029993 0.00058655 0)
(0.00174278 0.00217923 0)
(0.000129685 0.00380889 0)
(-0.00186473 0.00547917 0)
(-0.00426803 0.00720438 0)
(-0.00711437 0.00900787 0)
(-0.0104423 0.0109191 0)
(-0.0142955 0.0129709 0)
(-0.0187202 0.0151957 0)
(-0.0237636 0.0176224 0)
(-0.029471 0.0202733 0)
(-0.0358821 0.0231612 0)
(-0.0430283 0.0262877 0)
(-0.0509291 0.0296425 0)
(-0.0595891 0.0332021 0)
(-0.0689955 0.0369308 0)
(-0.0791162 0.0407813 0)
(-0.0898988 0.0446954 0)
(-0.101271 0.0486066 0)
(-0.113142 0.0524416 0)
(-0.125406 0.0561244 0)
(-0.137945 0.0595788 0)
(-0.150638 0.0627322 0)
(-0.16336 0.0655193 0)
(-0.175994 0.0678846 0)
(-0.188433 0.0697842 0)
(-0.20058 0.0711869 0)
(-0.212355 0.0720743 0)
(-0.223694 0.0724396 0)
(-0.234547 0.0722861 0)
(-0.244876 0.0716258 0)
(-0.254655 0.0704769 0)
(-0.263869 0.0688623 0)
(-0.272508 0.0668075 0)
(-0.280568 0.0643401 0)
(-0.288049 0.0614876 0)
(-0.294953 0.0582776 0)
(-0.301284 0.0547364 0)
(-0.307048 0.0508895 0)