/*--------------------------------*- C++ -*----------------------------------*\
| =========                 |                                                 |
| \\      /  F ield         | OpenFOAM: The Open Source CFD Toolbox           |
|  \\    /   O peration     | Version:  2406                                  |
|   \\  /    A nd           | Website:  www.openfoam.com                      |
|    \\/     M anipulation  |                                                 |
\*---------------------------------------------------------------------------*/
FoamFile
{
    version     2.0;
    format      ascii;
    arch        "LSB;label=32;scalar=64";
    class       volVectorField;
    location    "19.4";
    object      Uold;
}
// * * * * * * * * * * * * * * * * * * * * * * * * * * * * * * * * * * * * * //

dimensions      [0 1 -1 0 0 0 0];

internalField   nonuniform List<vector> 
3600
(
(4.05388e-05 -3.76222e-05 0)
(0.000174067 -6.19957e-05 0)
(0.000329974 -5.67593e-05 0)
(0.000428237 -3.929e-05 0)
(0.000490523 -2.71153e-05 0)
(0.000509326 -1.7088e-05 0)
(0.000504884 -1.21704e-05 0)
(0.000475577 -5.92896e-06 0)
(0.000421781 5.22507e-08 0)
(0.000338278 9.70128e-06 0)
(0.000214931 2.0871e-05 0)
(4.67296e-05 3.55764e-05 0)
(-0.000178554 5.17386e-05 0)
(-0.000463548 7.05167e-05 0)
(-0.000818895 9.03439e-05 0)
(-0.00124483 0.000112096 0)
(-0.00174941 0.000134727 0)
(-0.00233065 0.000158797 0)
(-0.00299256 0.000183187 0)
(-0.0037283 0.000207489 0)
(-0.00453288 0.000229606 0)
(-0.00538799 0.000247556 0)
(-0.00627203 0.000257914 0)
(-0.00714801 0.000257367 0)
(-0.00797283 0.000241828 0)
(-0.00868944 0.000207901 0)
(-0.0092371 0.000152511 0)
(-0.00954819 7.43486e-05 0)
(-0.00956032 -2.62121e-05 0)
(-0.00921656 -0.000145913 0)
(-0.00847848 -0.000278895 0)
(-0.007327 -0.000416234 0)
(-0.00577376 -0.000546948 0)
(-0.00385847 -0.000658585 0)
(-0.00165585 -0.000739036 0)
(0.000734167 -0.000777902 0)
(0.00318545 -0.000768454 0)
(0.00556404 -0.000708886 0)
(0.00773121 -0.00060315 0)
(0.00956811 -0.000460904 0)
(0.0109763 -0.000296112 0)
(0.0119022 -0.000125321 0)
(0.012326 3.55881e-05 0)
(0.0122796 0.00017313 0)
(0.0118186 0.000279094 0)
(0.0110359 0.000349833 0)
(0.0100198 0.000387358 0)
(0.00887486 0.000395992 0)
(0.00767379 0.000383158 0)
(0.00649555 0.000355054 0)
(0.005373 0.000319304 0)
(0.00435114 0.000279998 0)
(0.00342402 0.000243216 0)
(0.00261268 0.000209397 0)
(0.00188742 0.000182642 0)
(0.001265 0.000156168 0)
(0.000723211 0.000129827 0)
(0.000304412 8.37118e-05 0)
(3.64769e-05 2.52813e-05 0)
(-4.2956e-05 -4.34507e-05 0)
(6.99579e-05 -0.000177766 0)
(0.000248916 -0.000245265 0)
(0.000414057 -0.000196178 0)
(0.00046057 -9.7625e-05 0)
(0.000417419 -1.98707e-05 0)
(0.000281231 4.89304e-05 0)
(7.90068e-05 9.72369e-05 0)
(-0.000188213 0.000150983 0)
(-0.000525108 0.000206974 0)
(-0.000942634 0.000281672 0)
(-0.0014649 0.000369309 0)
(-0.00210748 0.000477518 0)
(-0.00289924 0.000599246 0)
(-0.00385324 0.000737308 0)
(-0.00499408 0.000885054 0)
(-0.00632791 0.00104287 0)
(-0.00786947 0.0012045 0)
(-0.00961362 0.0013676 0)
(-0.0115583 0.00152362 0)
(-0.0136783 0.00166461 0)
(-0.015943 0.00177629 0)
(-0.0182938 0.00184343 0)
(-0.0206596 0.00184632 0)
(-0.0229414 0.00176619 0)
(-0.0250285 0.00158426 0)
(-0.0267917 0.00128717 0)
(-0.0281021 0.00086723 0)
(-0.0288304 0.00032695 0)
(-0.0288665 -0.000321203 0)
(-0.0281205 -0.00105223 0)
(-0.0265402 -0.00183071 0)
(-0.0241096 -0.00261089 0)
(-0.0208623 -0.0033411 0)
(-0.0168748 -0.00396637 0)
(-0.0122751 -0.00443469 0)
(-0.00722921 -0.00470114 0)
(-0.00194387 -0.0047346 0)
(0.00335588 -0.00452149 0)
(0.00842782 -0.00407014 0)
(0.013045 -0.00341113 0)
(0.0169966 -0.00259581 0)
(0.0201263 -0.00169098 0)
(0.0223233 -0.000770352 0)
(0.0235591 9.43426e-05 0)
(0.0238579 0.000844327 0)
(0.0233249 0.00143874 0)
(0.0220908 0.00186063 0)
(0.0203393 0.00211219 0)
(0.0182312 0.00221468 0)
(0.0159481 0.00219631 0)
(0.013607 0.00209344 0)
(0.011336 0.00193583 0)
(0.00917754 0.00175615 0)
(0.00720235 0.00156897 0)
(0.00539416 0.00139287 0)
(0.00380172 0.00121009 0)
(0.00240187 0.00101682 0)
(0.00127808 0.000749767 0)
(0.000454552 0.000428635 0)
(3.51383e-05 4.21416e-05 0)
(6.16776e-05 -0.000333056 0)
(0.000160164 -0.000393321 0)
(0.000167399 -0.000240702 0)
(3.70145e-06 -2.89425e-06 0)
(-0.000297077 0.000188498 0)
(-0.000721082 0.000357168 0)
(-0.00124519 0.000486029 0)
(-0.00186402 0.0006265 0)
(-0.0025939 0.000778599 0)
(-0.0034512 0.000975497 0)
(-0.00447689 0.00121072 0)
(-0.00569795 0.00149884 0)
(-0.00716179 0.00182816 0)
(-0.00889401 0.00220167 0)
(-0.0109345 0.00260527 0)
(-0.0132972 0.0030346 0)
(-0.016003 0.00347287 0)
(-0.0190435 0.00390735 0)
(-0.0224073 0.00431323 0)
(-0.0260479 0.00466408 0)
(-0.0299053 0.00492191 0)
(-0.03388 0.00504668 0)
(-0.0378546 0.00499292 0)
(-0.0416783 0.0047202 0)
(-0.0451906 0.00419375 0)
(-0.0482152 0.00339391 0)
(-0.0505847 0.00231678 0)
(-0.0521384 0.00098027 0)
(-0.0527434 -0.000577796 0)
(-0.0522923 -0.00229765 0)
(-0.0507201 -0.00410249 0)
(-0.0479995 -0.00589974 0)
(-0.0441551 -0.00758846 0)
(-0.0392557 -0.0090632 0)
(-0.0334258 -0.0102237 0)
(-0.0268338 -0.0109808 0)
(-0.0196997 -0.0112674 0)
(-0.0122748 -0.011045 0)
(-0.00484481 -0.0103123 0)
(0.00230188 -0.00910785 0)
(0.00887464 -0.00751163 0)
(0.0146232 -0.00563786 0)
(0.0193332 -0.00362522 0)
(0.0228739 -0.00162093 0)
(0.0251755 0.000237293 0)
(0.0262723 0.00183658 0)
(0.0262514 0.00310318 0)
(0.0252894 0.00400479 0)
(0.0235696 0.0045524 0)
(0.0213274 0.00478645 0)
(0.0187449 0.00477224 0)
(0.0160276 0.00457726 0)
(0.0132842 0.00427415 0)
(0.0106522 0.00390999 0)
(0.00815626 0.00352682 0)
(0.0058937 0.00310849 0)
(0.00385367 0.00264185 0)
(0.00216715 0.0020295 0)
(0.000851649 0.00127567 0)
(0.000115317 0.000350843 0)
(3.23293e-05 -0.000400264 0)
(-3.25348e-05 -0.00034404 0)
(-0.000298285 -1.77652e-05 0)
(-0.00078186 0.000400656 0)
(-0.00144392 0.000733162 0)
(-0.00224513 0.00102435 0)
(-0.00317491 0.0012593 0)
(-0.00422444 0.00151869 0)
(-0.00542977 0.00180936 0)
(-0.00681495 0.00218341 0)
(-0.00844418 0.00263591 0)
(-0.0103588 0.00318938 0)
(-0.01263 0.00382762 0)
(-0.0152986 0.00455233 0)
(-0.0184237 0.00533916 0)
(-0.0220283 0.00617444 0)
(-0.026141 0.00702475 0)
(-0.0307488 0.00785907 0)
(-0.0358295 0.00862728 0)
(-0.0413127 0.00927511 0)
(-0.047107 0.00973259 0)
(-0.0530721 0.00992916 0)
(-0.059048 0.00979168 0)
(-0.0648391 0.00925998 0)
(-0.0702449 0.00828841 0)
(-0.0750519 0.00685749 0)
(-0.0790604 0.00497309 0)
(-0.0820784 0.0026723 0)
(-0.083944 1.9042e-05 0)
(-0.0845183 -0.00289419 0)
(-0.0837047 -0.00595304 0)
(-0.0814418 -0.00902222 0)
(-0.0777202 -0.0119544 0)
(-0.072576 -0.0145939 0)
(-0.0661056 -0.0167886 0)
(-0.0584573 -0.018397 0)
(-0.0498432 -0.0193035 0)
(-0.0405231 -0.0194271 0)
(-0.0308111 -0.018737 0)
(-0.021046 -0.0172574 0)
(-0.011591 -0.0150754 0)
(-0.00278831 -0.0123343 0)
(0.00504182 -0.00922515 0)
(0.0116554 -0.00596596 0)
(0.016871 -0.00277871 0)
(0.0206218 0.000136086 0)
(0.0229115 0.00262252 0)
(0.0238603 0.00458199 0)
(0.0236239 0.00598114 0)
(0.0224442 0.00684257 0)
(0.0205348 0.00723764 0)
(0.0181583 0.00726019 0)
(0.015486 0.00701937 0)
(0.0127293 0.00660213 0)
(0.00996901 0.00608156 0)
(0.00736627 0.00546013 0)
(0.00493689 0.00471962 0)
(0.00286662 0.00374307 0)
(0.00117708 0.00248488 0)
(0.000181908 0.000863617 0)
(-6.13912e-06 -0.000366892 0)
(-0.000281352 -5.65401e-05 0)
(-0.000889401 0.000527965 0)
(-0.00176173 0.00117175 0)
(-0.00285319 0.00167222 0)
(-0.00409209 0.00210688 0)
(-0.00548741 0.00247469 0)
(-0.00702821 0.00289094 0)
(-0.00877971 0.00337521 0)
(-0.0107787 0.00400137 0)
(-0.0131223 0.00476931 0)
(-0.0158719 0.00571 0)
(-0.0191305 0.00680266 0)
(-0.0229584 0.00804479 0)
(-0.0274382 0.00939788 0)
(-0.0326037 0.0108323 0)
(-0.0384919 0.01229 0)
(-0.0450831 0.0137112 0)
(-0.0523411 0.0150091 0)
(-0.0601655 0.0160902 0)
(-0.0684278 0.0168433 0)
(-0.07694 0.0171608 0)
(-0.0854927 0.0169394 0)
(-0.0938371 0.0160996 0)
(-0.101723 0.0145868 0)
(-0.108886 0.0123838 0)
(-0.115082 0.00950779 0)
(-0.120078 0.0060161 0)
(-0.123674 0.00199985 0)
(-0.125698 -0.00241447 0)
(-0.126021 -0.00707311 0)
(-0.124548 -0.0117957 0)
(-0.121237 -0.0163852 0)
(-0.11609 -0.0206305 0)
(-0.109169 -0.0243206 0)
(-0.100592 -0.0272509 0)
(-0.0905505 -0.0292424 0)
(-0.0792981 -0.0301531 0)
(-0.0671658 -0.0299005 0)
(-0.054536 -0.0284715 0)
(-0.041845 -0.0259386 0)
(-0.0295357 -0.0224577 0)
(-0.0180489 -0.018263 0)
(-0.00775878 -0.0136433 0)
(0.00102625 -0.00891347 0)
(0.00812611 -0.0043774 0)
(0.0134519 -0.000295107 0)
(0.0170564 0.00314329 0)
(0.019053 0.00583152 0)
(0.019669 0.007747 0)
(0.0191273 0.00894125 0)
(0.0177261 0.00951706 0)
(0.0156852 0.00960793 0)
(0.0132817 0.00934104 0)
(0.0106552 0.00882215 0)
(0.00803511 0.0080858 0)
(0.00547872 0.00711168 0)
(0.00323336 0.00577558 0)
(0.00134506 0.00396098 0)
(0.000212542 0.00151771 0)
(-5.23647e-05 -0.00018239 0)
(-0.000576461 0.000554186 0)
(-0.00157963 0.0014874 0)
(-0.002891 0.00239492 0)
(-0.00446067 0.00308122 0)
(-0.00618231 0.00367405 0)
(-0.00809307 0.00420115 0)
(-0.0101843 0.00481894 0)
(-0.0125617 0.00556628 0)
(-0.0152821 0.00654142 0)
(-0.0184868 0.00775162 0)
(-0.022264 0.00923553 0)
(-0.0267559 0.0109661 0)
(-0.0320455 0.0129319 0)
(-0.0382414 0.0150746 0)
(-0.0453859 0.01734 0)
(-0.0535198 0.0196349 0)
(-0.0626058 0.0218581 0)
(-0.0725794 0.0238731 0)
(-0.0832906 0.0255348 0)
(-0.0945513 0.0266812 0)
(-0.106101 0.0271622 0)
(-0.117656 0.0268421 0)
(-0.128894 0.025623 0)
(-0.139501 0.0234453 0)
(-0.149166 0.0203007 0)
(-0.157613 0.0162266 0)
(-0.16459 0.0113091 0)
(-0.169895 0.00567293 0)
(-0.173354 -0.000518403 0)
(-0.174835 -0.00707329 0)
(-0.174236 -0.0137717 0)
(-0.171493 -0.0203743 0)
(-0.166571 -0.0266232 0)
(-0.159485 -0.0322531 0)
(-0.150294 -0.0369965 0)
(-0.13913 -0.0406028 0)
(-0.126197 -0.0428514 0)
(-0.111795 -0.0435804 0)
(-0.096313 -0.0427042 0)
(-0.0802355 -0.0402429 0)
(-0.0641032 -0.0363293 0)
(-0.0484975 -0.0312166 0)
(-0.0339621 -0.0252544 0)
(-0.0209804 -0.0188586 0)
(-0.0098901 -0.0124569 0)
(-0.00090149 -0.00644196 0)
(0.00595742 -0.00112475 0)
(0.0107577 0.00328749 0)
(0.0137135 0.00670181 0)
(0.0150566 0.00912588 0)
(0.0151135 0.0106515 0)
(0.0141454 0.0114195 0)
(0.0124859 0.011589 0)
(0.0103323 0.0112947 0)
(0.0079796 0.0106088 0)
(0.00553767 0.00951296 0)
(0.00331238 0.00788329 0)
(0.00138924 0.00552645 0)
(0.000220089 0.00221942 0)
(-0.000103721 0.000151262 0)
(-0.000903236 0.00149743 0)
(-0.0023364 0.00287384 0)
(-0.00411938 0.00408437 0)
(-0.00620094 0.00497642 0)
(-0.00844097 0.00574848 0)
(-0.0109147 0.00647461 0)
(-0.0136225 0.00736082 0)
(-0.016723 0.00847367 0)
(-0.0203025 0.00993874 0)
(-0.0245575 0.0117728 0)
(-0.029609 0.0140193 0)
(-0.0356438 0.0166407 0)
(-0.0427666 0.0196089 0)
(-0.0511089 0.0228356 0)
(-0.0607102 0.0262284 0)
(-0.0715977 0.029642 0)
(-0.08369 0.0329134 0)
(-0.0968592 0.035836 0)
(-0.110864 0.0381944 0)
(-0.125413 0.0397629 0)
(-0.140138 0.0403431 0)
(-0.154659 0.0397717 0)
(-0.168584 0.0379472 0)
(-0.181562 0.0348281 0)
(-0.193275 0.0304409 0)
(-0.203472 0.0248661 0)
(-0.211944 0.0182351 0)
(-0.218537 0.0107141 0)
(-0.223124 0.00250204 0)
(-0.225609 -0.00618111 0)
(-0.225903 -0.0150912 0)
(-0.223932 -0.0239663 0)
(-0.219621 -0.032522 0)
(-0.212921 -0.0404576 0)
(-0.203795 -0.0474555 0)
(-0.192267 -0.0531972 0)
(-0.178419 -0.0573739 0)
(-0.162445 -0.0597183 0)
(-0.144655 -0.0600309 0)
(-0.125509 -0.0582228 0)
(-0.105596 -0.0543436 0)
(-0.0856261 -0.0486105 0)
(-0.0663505 -0.041401 0)
(-0.0485043 -0.0332285 0)
(-0.0326834 -0.0246748 0)
(-0.0193114 -0.016316 0)
(-0.00855787 -0.00864041 0)
(-0.000412955 -0.00200302 0)
(0.00533424 0.00340147 0)
(0.00894871 0.00751692 0)
(0.0108045 0.0104122 0)
(0.0112177 0.0122254 0)
(0.0105806 0.0131418 0)
(0.00915145 0.0133203 0)
(0.00728702 0.0128726 0)
(0.00515698 0.0117858 0)
(0.00312016 0.00994244 0)
(0.00131059 0.00708251 0)
(0.000203249 0.00291953 0)
(-0.000162561 0.00067338 0)
(-0.00126565 0.00283254 0)
(-0.00316095 0.00474718 0)
(-0.00544409 0.00629716 0)
(-0.00806805 0.00741519 0)
(-0.0108637 0.00839532 0)
(-0.0139563 0.00937753 0)
(-0.0173645 0.0106273 0)
(-0.0213138 0.0122473 0)
(-0.0259288 0.0143917 0)
(-0.0314698 0.0170856 0)
(-0.0380926 0.0203704 0)
(-0.046027 0.0241893 0)
(-0.05539 0.0284839 0)
(-0.066319 0.0331197 0)
(-0.0788224 0.0379432 0)
(-0.0928732 0.0427302 0)
(-0.108292 0.0472263 0)
(-0.124826 0.051128 0)
(-0.142088 0.054132 0)
(-0.159646 0.055948 0)
(-0.177016 0.0563481 0)
(-0.193754 0.055177 0)
(-0.209448 0.0523736 0)
(-0.223784 0.0479571 0)
(-0.236512 0.0420219 0)
(-0.247476 0.0347125 0)
(-0.256569 0.0262129 0)
(-0.263737 0.0167265 0)
(-0.268939 0.00647352 0)
(-0.272146 -0.00431968 0)
(-0.273308 -0.015413 0)
(-0.27236 -0.0265549 0)
(-0.269198 -0.0374694 0)
(-0.263701 -0.0478565 0)
(-0.255723 -0.0573815 0)
(-0.245133 -0.0656827 0)
(-0.231829 -0.0723745 0)
(-0.215798 -0.077075 0)
(-0.19715 -0.0794342 0)
(-0.176178 -0.0791889 0)
(-0.153384 -0.0762125 0)
(-0.129501 -0.0705787 0)
(-0.10544 -0.0625932 0)
(-0.0822299 -0.0528037 0)
(-0.0608508 -0.041941 0)
(-0.042119 -0.030824 0)
(-0.0265217 -0.0202167 0)
(-0.0142268 -0.0107245 0)
(-0.00506694 -0.00271811 0)
(0.00127679 0.00364376 0)
(0.00526841 0.00839493 0)
(0.00732325 0.0116698 0)
(0.00791958 0.0136821 0)
(0.00739619 0.014618 0)
(0.00617646 0.01463 0)
(0.00449771 0.0137173 0)
(0.0027654 0.0117737 0)
(0.00116637 0.00849296 0)
(0.000176614 0.00354692 0)
(-0.000227125 0.00138185 0)
(-0.0016556 0.00455931 0)
(-0.00403724 0.00710499 0)
(-0.00684188 0.00903083 0)
(-0.0100351 0.0104021 0)
(-0.0134258 0.0116359 0)
(-0.0172033 0.0129595 0)
(-0.0214152 0.0147087 0)
(-0.0263666 0.0170294 0)
(-0.0322263 0.0201027 0)
(-0.0393218 0.0239565 0)
(-0.0478374 0.0286171 0)
(-0.0580327 0.0339925 0)
(-0.0700127 0.039971 0)
(-0.0838837 0.0463429 0)
(-0.0995682 0.0528554 0)
(-0.116917 0.0591644 0)
(-0.135578 0.0648862 0)
(-0.155117 0.0696004 0)
(-0.174965 0.0729229 0)
(-0.194569 0.0745355 0)
(-0.213379 0.0742373 0)
(-0.23096 0.0719436 0)
(-0.246969 0.0676881 0)
(-0.261204 0.0615909 0)
(-0.273553 0.0538387 0)
(-0.284006 0.0446493 0)
(-0.292598 0.0342573 0)
(-0.299409 0.0228917 0)
(-0.304507 0.0107753 0)
(-0.307955 -0.00188267 0)
(-0.309765 -0.0148753 0)
(-0.309908 -0.0279948 0)
(-0.30828 -0.0410137 0)
(-0.30472 -0.0536771 0)
(-0.298993 -0.0656822 0)
(-0.290823 -0.0766741 0)
(-0.279902 -0.0862355 0)
(-0.265951 -0.0939001 0)
(-0.248768 -0.099172 0)
(-0.22832 -0.101577 0)
(-0.204807 -0.100729 0)
(-0.178758 -0.0964203 0)
(-0.151037 -0.0887131 0)
(-0.12284 -0.0780164 0)
(-0.0955434 -0.0650912 0)
(-0.0705254 -0.0509828 0)
(-0.0488748 -0.0368335 0)
(-0.0312301 -0.0236749 0)
(-0.0176669 -0.0122272 0)
(-0.00787505 -0.00286418 0)
(-0.00126923 0.00437073 0)
(0.00273548 0.00960997 0)
(0.00476658 0.0131142 0)
(0.00529053 0.0151153 0)
(0.0048222 0.0158201 0)
(0.00368184 0.0152545 0)
(0.00232324 0.0133328 0)
(0.000987945 0.00972987 0)
(0.000145015 0.00409754 0)
(-0.000299976 0.00231499 0)
(-0.00207856 0.00673073 0)
(-0.00497155 0.00999997 0)
(-0.00832069 0.01234 0)
(-0.0121141 0.0140023 0)
(-0.0161488 0.015558 0)
(-0.0206921 0.0173439 0)
(-0.0258314 0.0197749 0)
(-0.0319602 0.0230441 0)
(-0.0392921 0.0273505 0)
(-0.0482144 0.0327111 0)
(-0.0589212 0.0391141 0)
(-0.0716729 0.0464052 0)
(-0.0865157 0.0543818 0)
(-0.103461 0.0627127 0)
(-0.122268 0.0709936 0)
(-0.142582 0.0787161 0)
(-0.163822 0.085347 0)
(-0.185351 0.090368 0)
(-0.206458 0.0933695 0)
(-0.226537 0.094083 0)
(-0.24507 0.0924128 0)
(-0.261729 0.0884103 0)
(-0.27632 0.0822502 0)
(-0.288822 0.074179 0)
(-0.299303 0.0644832 0)
(-0.30793 0.0534487 0)
(-0.314886 0.0413454 0)
(-0.320384 0.0284081 0)
(-0.324598 0.0148404 0)
(-0.32768 0.000811419 0)
(-0.329712 -0.0135287 0)
(-0.33072 -0.0280423 0)
(-0.330636 -0.0425821 0)
(-0.329315 -0.0569784 0)
(-0.326497 -0.0710117 0)
(-0.321834 -0.0843976 0)
(-0.314875 -0.0967602 0)
(-0.305111 -0.107625 0)
(-0.292012 -0.116415 0)
(-0.275124 -0.122482 0)
(-0.254164 -0.125158 0)
(-0.229171 -0.123859 0)
(-0.200615 -0.118216 0)
(-0.1695 -0.108234 0)
(-0.13733 -0.0944149 0)
(-0.105974 -0.0778079 0)
(-0.0773191 -0.0598831 0)
(-0.0528855 -0.0422577 0)
(-0.0334481 -0.0262948 0)
(-0.0190101 -0.0128609 0)
(-0.00895691 -0.00223562 0)
(-0.00248116 0.00567042 0)
(0.00128777 0.011189 0)
(0.00302931 0.0146383 0)
(0.00340683 0.0163145 0)
(0.00285627 0.0162998 0)
(0.00189559 0.0145482 0)
(0.000827055 0.0107462 0)
(0.000120436 0.00455015 0)
(-0.000378345 0.00346892 0)
(-0.00252448 0.00933926 0)
(-0.00594696 0.0134207 0)
(-0.00985862 0.0162157 0)
(-0.0142822 0.018221 0)
(-0.0190135 0.0201932 0)
(-0.0244121 0.0226009 0)
(-0.0306125 0.0259433 0)
(-0.0380995 0.0304571 0)
(-0.0471214 0.0363418 0)
(-0.0581049 0.0435783 0)
(-0.0712185 0.0520822 0)
(-0.086673 0.0615934 0)
(-0.104386 0.071762 0)
(-0.124193 0.082074 0)
(-0.145603 0.0919202 0)
(-0.16801 0.100607 0)
(-0.190594 0.10748 0)
(-0.212574 0.111993 0)
(-0.233191 0.113809 0)
(-0.251905 0.112804 0)
(-0.268339 0.109063 0)
(-0.282368 0.102827 0)
(-0.294016 0.0944341 0)
(-0.303479 0.0842581 0)
(-0.311009 0.072669 0)
(-0.31693 0.0599944 0)
(-0.321538 0.0465111 0)
(-0.325131 0.0324339 0)
(-0.327941 0.0179271 0)
(-0.330169 0.00310653 0)
(-0.331937 -0.0119415 0)
(-0.333323 -0.0271539 0)
(-0.334315 -0.0424691 0)
(-0.334834 -0.0578165 0)
(-0.334686 -0.0730889 0)
(-0.333569 -0.088122 0)
(-0.331033 -0.102658 0)
(-0.326493 -0.116318 0)
(-0.319223 -0.128567 0)
(-0.308425 -0.138706 0)
(-0.29331 -0.145887 0)
(-0.273264 -0.149181 0)
(-0.248032 -0.147708 0)
(-0.217948 -0.140839 0)
(-0.184084 -0.128439 0)
(-0.148312 -0.111103 0)
(-0.113084 -0.0902422 0)
(-0.0809911 -0.0679375 0)
(-0.0540719 -0.0464355 0)
(-0.0333013 -0.0275581 0)
(-0.0184592 -0.0122341 0)
(-0.00861726 -0.000620227 0)
(-0.00258317 0.00766599 0)
(0.000655995 0.013083 0)
(0.00201205 0.0160846 0)
(0.00209877 0.0168647 0)
(0.00153815 0.0154552 0)
(0.000708535 0.011589 0)
(0.000106739 0.00494401 0)
(-0.000464482 0.00488123 0)
(-0.00299694 0.0124351 0)
(-0.00696649 0.0174195 0)
(-0.0114601 0.0207188 0)
(-0.0165472 0.0231393 0)
(-0.0220336 0.0256559 0)
(-0.0283815 0.0288875 0)
(-0.0357747 0.0334159 0)
(-0.0447807 0.0395064 0)
(-0.0556602 0.0473272 0)
(-0.0688429 0.0567842 0)
(-0.0844192 0.0676681 0)
(-0.102481 0.0795522 0)
(-0.122736 0.0918698 0)
(-0.144764 0.103866 0)
(-0.167782 0.114706 0)
(-0.190936 0.123544 0)
(-0.213245 0.12969 0)
(-0.233905 0.132693 0)
(-0.252248 0.132398 0)
(-0.267934 0.128918 0)
(-0.280836 0.122579 0)
(-0.291099 0.113826 0)
(-0.29899 0.103148 0)
(-0.304906 0.0910108 0)
(-0.309237 0.077822 0)
(-0.312392 0.063903 0)
(-0.314701 0.049497 0)
(-0.316464 0.0347696 0)
(-0.317893 0.0198303 0)
(-0.319172 0.0047397 0)
(-0.320411 -0.01047 0)
(-0.321704 -0.0257911 0)
(-0.323081 -0.0412248 0)
(-0.324547 -0.0567766 0)
(-0.326023 -0.0724385 0)
(-0.327356 -0.0881726 0)
(-0.328251 -0.103878 0)
(-0.328253 -0.11935 0)
(-0.326693 -0.134229 0)
(-0.322691 -0.147943 0)
(-0.31517 -0.15967 0)
(-0.302978 -0.168332 0)
(-0.28506 -0.172663 0)
(-0.260753 -0.17138 0)
(-0.23011 -0.163461 0)
(-0.194208 -0.148541 0)
(-0.155281 -0.127281 0)
(-0.116513 -0.101595 0)
(-0.0813486 -0.0743797 0)
(-0.0524867 -0.0487756 0)
(-0.0310068 -0.0270645 0)
(-0.0163819 -0.0102179 0)
(-0.00718107 0.00198087 0)
(-0.00194219 0.0101452 0)
(0.000635592 0.0149838 0)
(0.0014469 0.0168925 0)
(0.00129084 0.0160496 0)
(0.000655809 0.0122779 0)
(0.000109897 0.00529662 0)
(-0.000553681 0.00654045 0)
(-0.00347959 0.0159967 0)
(-0.00800293 0.021971 0)
(-0.0130889 0.0258298 0)
(-0.0188659 0.0287556 0)
(-0.025159 0.0319718 0)
(-0.0325384 0.0362601 0)
(-0.0412308 0.0422711 0)
(-0.0518664 0.0502711 0)
(-0.0646814 0.0603509 0)
(-0.0800569 0.0722877 0)
(-0.0979382 0.0856801 0)
(-0.118222 0.0998621 0)
(-0.140334 0.113985 0)
(-0.163562 0.127029 0)
(-0.186849 0.137963 0)
(-0.209189 0.145895 0)
(-0.229579 0.150236 0)
(-0.247351 0.150762 0)
(-0.262085 0.147611 0)
(-0.27375 0.141193 0)
(-0.28253 0.132082 0)
(-0.288848 0.120897 0)
(-0.293169 0.108221 0)
(-0.296013 0.0945418 0)
(-0.297816 0.0802352 0)
(-0.298969 0.0655622 0)
(-0.299744 0.0506931 0)
(-0.300361 0.0357236 0)
(-0.300946 0.020704 0)
(-0.301606 0.00565039 0)
(-0.302398 -0.00943712 0)
(-0.303385 -0.0245737 0)
(-0.304607 -0.0397821 0)
(-0.306119 -0.0550968 0)
(-0.30795 -0.0705592 0)
(-0.310106 -0.0862127 0)
(-0.312514 -0.102086 0)
(-0.314988 -0.118158 0)
(-0.317142 -0.13431 0)
(-0.318332 -0.150241 0)
(-0.317588 -0.165385 0)
(-0.313618 -0.17882 0)
(-0.304885 -0.189227 0)
(-0.289835 -0.194937 0)
(-0.267264 -0.194141 0)
(-0.23681 -0.185283 0)
(-0.199451 -0.16764 0)
(-0.157803 -0.141961 0)
(-0.115909 -0.110815 0)
(-0.0782645 -0.0782837 0)
(-0.0482574 -0.048574 0)
(-0.0269351 -0.0244996 0)
(-0.0131862 -0.00670767 0)
(-0.00511297 0.00538447 0)
(-0.000877105 0.0128279 0)
(0.000842625 0.0163451 0)
(0.0011367 0.0163725 0)
(0.000664436 0.0128847 0)
(0.000128965 0.00566413 0)
(-0.000647523 0.00847932 0)
(-0.00397219 0.0200669 0)
(-0.00905135 0.0271235 0)
(-0.014737 0.0316103 0)
(-0.0212257 0.0351553 0)
(-0.028368 0.039256 0)
(-0.0368386 0.0448598 0)
(-0.0468899 0.0526582 0)
(-0.0591809 0.0628732 0)
(-0.0738756 0.075456 0)
(-0.0912461 0.089986 0)
(-0.111025 0.105793 0)
(-0.132853 0.121905 0)
(-0.155842 0.137161 0)
(-0.179016 0.150309 0)
(-0.201144 0.160232 0)
(-0.221219 0.166143 0)
(-0.238395 0.167711 0)
(-0.2523 0.165064 0)
(-0.262863 0.158697 0)
(-0.270413 0.149318 0)
(-0.275424 0.137697 0)
(-0.278522 0.124547 0)
(-0.280267 0.110452 0)
(-0.28119 0.0958357 0)
(-0.281658 0.0809763 0)
(-0.28196 0.0660306 0)
(-0.282242 0.0510744 0)
(-0.2826 0.0361302 0)
(-0.283048 0.0211986 0)
(-0.283603 0.00626964 0)
(-0.284249 -0.00866448 0)
(-0.285005 -0.0236124 0)
(-0.285892 -0.0385838 0)
(-0.286976 -0.0535989 0)
(-0.28833 -0.0686947 0)
(-0.290066 -0.0839304 0)
(-0.292272 -0.0993902 0)
(-0.295014 -0.115168 0)
(-0.298238 -0.13134 0)
(-0.301711 -0.147896 0)
(-0.304885 -0.164647 0)
(-0.306803 -0.181076 0)
(-0.306021 -0.196203 0)
(-0.300661 -0.208463 0)
(-0.288637 -0.215734 0)
(-0.268114 -0.215553 0)
(-0.238196 -0.205667 0)
(-0.199684 -0.18489 0)
(-0.155622 -0.154086 0)
(-0.111083 -0.116825 0)
(-0.0717923 -0.0787323 0)
(-0.0417536 -0.0454043 0)
(-0.0215931 -0.0197665 0)
(-0.00943359 -0.00201014 0)
(-0.00282517 0.00919962 0)
(0.000146935 0.0150443 0)
(0.00101908 0.01638 0)
(0.00071746 0.013425 0)
(0.000162467 0.00606942 0)
(-0.000738533 0.0106703 0)
(-0.00444899 0.0245987 0)
(-0.0100682 0.0328254 0)
(-0.0163435 0.0380143 0)
(-0.0235458 0.0423044 0)
(-0.0315521 0.0474837 0)
(-0.0411292 0.054655 0)
(-0.0525285 0.0645064 0)
(-0.0663946 0.0771572 0)
(-0.0827651 0.0923468 0)
(-0.101743 0.109383 0)
(-0.122797 0.127258 0)
(-0.145284 0.144658 0)
(-0.168035 0.160131 0)
(-0.189908 0.172297 0)
(-0.209654 0.180118 0)
(-0.226443 0.183083 0)
(-0.23974 0.18126 0)
(-0.249567 0.175197 0)
(-0.256231 0.16574 0)
(-0.260374 0.153825 0)
(-0.262657 0.140319 0)
(-0.263784 0.125914 0)
(-0.26428 0.111094 0)
(-0.264577 0.0961498 0)
(-0.264895 0.0812204 0)
(-0.265375 0.0663435 0)
(-0.266015 0.0515053 0)
(-0.266795 0.0366726 0)
(-0.267631 0.0218186 0)
(-0.26847 0.00693035 0)
(-0.269244 -0.00798696 0)
(-0.269937 -0.022916 0)
(-0.270544 -0.0378347 0)
(-0.27112 -0.0527259 0)
(-0.271741 -0.0675915 0)
(-0.272544 -0.0824605 0)
(-0.273688 -0.0974072 0)
(-0.275367 -0.112548 0)
(-0.277754 -0.12805 0)
(-0.280959 -0.144086 0)
(-0.284906 -0.160786 0)
(-0.289203 -0.178092 0)
(-0.292965 -0.195591 0)
(-0.294673 -0.212268 0)
(-0.292163 -0.226324 0)
(-0.282818 -0.235107 0)
(-0.264146 -0.235378 0)
(-0.234643 -0.224031 0)
(-0.194939 -0.199321 0)
(-0.148608 -0.162433 0)
(-0.102027 -0.118354 0)
(-0.0622627 -0.0749415 0)
(-0.0336035 -0.0389698 0)
(-0.0156844 -0.0131781 0)
(-0.00566238 0.00348091 0)
(-0.000876984 0.0127119 0)
(0.000826043 0.0159905 0)
(0.000773197 0.0139116 0)
(0.000203414 0.00654696 0)
(-0.000827515 0.0131341 0)
(-0.00490551 0.0296189 0)
(-0.0110393 0.0391107 0)
(-0.0178844 0.045089 0)
(-0.0257855 0.0502648 0)
(-0.0346413 0.0567239 0)
(-0.0452867 0.0656995 0)
(-0.0579376 0.0778162 0)
(-0.0731755 0.0930193 0)
(-0.0908632 0.110757 0)
(-0.110892 0.129999 0)
(-0.132447 0.149353 0)
(-0.15463 0.16718 0)
(-0.17608 0.181831 0)
(-0.195634 0.191958 0)
(-0.212196 0.196786 0)
(-0.22526 0.196236 0)
(-0.234689 0.190853 0)
(-0.240912 0.1816 0)
(-0.244547 0.169589 0)
(-0.246426 0.155869 0)
(-0.24726 0.141268 0)
(-0.247695 0.126352 0)
(-0.24812 0.111433 0)
(-0.248795 0.0966279 0)
(-0.249773 0.0819332 0)
(-0.251044 0.0672834 0)
(-0.25249 0.0526022 0)
(-0.254008 0.0378298 0)
(-0.255457 0.0229376 0)
(-0.256749 0.00792942 0)
(-0.257792 -0.00716345 0)
(-0.258553 -0.0222897 0)
(-0.259012 -0.0373909 0)
(-0.259205 -0.0524077 0)
(-0.259192 -0.0672994 0)
(-0.259093 -0.0820469 0)
(-0.259063 -0.096681 0)
(-0.259322 -0.111282 0)
(-0.260123 -0.126012 0)
(-0.261751 -0.141099 0)
(-0.264443 -0.156836 0)
(-0.268293 -0.173486 0)
(-0.273064 -0.191164 0)
(-0.277967 -0.209557 0)
(-0.281448 -0.227638 0)
(-0.281072 -0.243324 0)
(-0.27374 -0.253352 0)
(-0.256273 -0.253557 0)
(-0.226628 -0.23982 0)
(-0.185328 -0.209897 0)
(-0.136802 -0.165603 0)
(-0.0890177 -0.114291 0)
(-0.0504143 -0.0663964 0)
(-0.0247316 -0.0296952 0)
(-0.00993333 -0.00527388 0)
(-0.00252541 0.00884538 0)
(0.000416103 0.0149805 0)
(0.000780899 0.0142672 0)
(0.000244294 0.00708558 0)
(-0.000904044 0.0158177 0)
(-0.00530642 0.0350415 0)
(-0.0119046 0.0458859 0)
(-0.0192732 0.0527391 0)
(-0.0278252 0.0589342 0)
(-0.037469 0.0668464 0)
(-0.0490778 0.0778 0)
(-0.0627944 0.0922863 0)
(-0.0790932 0.110005 0)
(-0.0976272 0.130044 0)
(-0.118058 0.15099 0)
(-0.13931 0.171068 0)
(-0.160306 0.188383 0)
(-0.17962 0.201232 0)
(-0.196223 0.208488 0)
(-0.20931 0.209799 0)
(-0.21878 0.205617 0)
(-0.224897 0.196958 0)
(-0.228419 0.185118 0)
(-0.230146 0.171345 0)
(-0.230958 0.156654 0)
(-0.23148 0.141721 0)
(-0.232204 0.126907 0)
(-0.233327 0.11232 0)
(-0.234934 0.0979102 0)
(-0.236923 0.0835553 0)
(-0.239179 0.0691245 0)
(-0.241511 0.0545148 0)
(-0.243779 0.0396703 0)
(-0.245825 0.0245817 0)
(-0.247556 0.00928217 0)
(-0.248881 -0.00616577 0)
(-0.249767 -0.0216769 0)
(-0.250188 -0.0371603 0)
(-0.250169 -0.0525207 0)
(-0.249747 -0.0676803 0)
(-0.249012 -0.0825741 0)
(-0.24808 -0.0971833 0)
(-0.247136 -0.111527 0)
(-0.246415 -0.125715 0)
(-0.246229 -0.139933 0)
(-0.24694 -0.154499 0)
(-0.248911 -0.169807 0)
(-0.252385 -0.186303 0)
(-0.257269 -0.204251 0)
(-0.262868 -0.223474 0)
(-0.267544 -0.242863 0)
(-0.26861 -0.259969 0)
(-0.262422 -0.270751 0)
(-0.245222 -0.269911 0)
(-0.214468 -0.252259 0)
(-0.170963 -0.21518 0)
(-0.120377 -0.162074 0)
(-0.0727749 -0.103608 0)
(-0.0374335 -0.0534446 0)
(-0.0161918 -0.0182662 0)
(-0.0051202 0.00276707 0)
(-0.000365128 0.0130274 0)
(0.00068347 0.014372 0)
(0.000276189 0.00766681 0)
(-0.000968837 0.0187229 0)
(-0.00564551 0.0408691 0)
(-0.0126447 0.0531604 0)
(-0.0204754 0.0609809 0)
(-0.029604 0.0683243 0)
(-0.0399326 0.0778374 0)
(-0.052336 0.0908847 0)
(-0.0668508 0.10775 0)
(-0.0838108 0.127816 0)
(-0.102649 0.149761 0)
(-0.122813 0.171773 0)
(-0.143028 0.191743 0)
(-0.162144 0.207642 0)
(-0.178806 0.21789 0)
(-0.192245 0.221752 0)
(-0.202022 0.219413 0)
(-0.208442 0.211868 0)
(-0.212095 0.200533 0)
(-0.21394 0.186897 0)
(-0.214817 0.172194 0)
(-0.215521 0.15728 0)
(-0.216508 0.142598 0)
(-0.218072 0.128276 0)
(-0.220223 0.114227 0)
(-0.222897 0.100269 0)
(-0.22589 0.0862067 0)
(-0.22903 0.0718843 0)
(-0.2321 0.0572051 0)
(-0.234961 0.0421393 0)
(-0.237462 0.0267086 0)
(-0.239526 0.0109806 0)
(-0.241075 -0.00495233 0)
(-0.242087 -0.0209753 0)
(-0.242535 -0.036973 0)
(-0.242443 -0.0528226 0)
(-0.241831 -0.0684216 0)
(-0.240764 -0.0836704 0)
(-0.239315 -0.0985125 0)
(-0.237615 -0.11291 0)
(-0.235833 -0.126907 0)
(-0.234221 -0.140603 0)
(-0.233118 -0.15425 0)
(-0.232952 -0.168214 0)
(-0.234201 -0.183053 0)
(-0.237241 -0.19936 0)
(-0.24213 -0.217624 0)
(-0.248186 -0.23773 0)
(-0.253682 -0.258434 0)
(-0.255508 -0.276706 0)
(-0.249527 -0.287451 0)
(-0.231337 -0.284035 0)
(-0.198299 -0.2601 0)
(-0.151876 -0.213431 0)
(-0.0998667 -0.150186 0)
(-0.0545905 -0.0863435 0)
(-0.0249068 -0.0370378 0)
(-0.00896071 -0.00641456 0)
(-0.00165645 0.00965321 0)
(0.00043582 0.0140145 0)
(0.000292154 0.00822973 0)
(-0.0010095 0.0217641 0)
(-0.00588188 0.0469668 0)
(-0.0131909 0.0607856 0)
(-0.0213921 0.0696505 0)
(-0.0309856 0.0782372 0)
(-0.0418473 0.0894323 0)
(-0.0548188 0.104585 0)
(-0.0698064 0.123703 0)
(-0.0869881 0.145806 0)
(-0.105589 0.169136 0)
(-0.124889 0.191514 0)
(-0.1435 0.210585 0)
(-0.160307 0.224338 0)
(-0.174144 0.231478 0)
(-0.184571 0.231789 0)
(-0.191523 0.226036 0)
(-0.195648 0.215697 0)
(-0.197741 0.202458 0)
(-0.198824 0.187846 0)
(-0.199656 0.172947 0)
(-0.200866 0.158374 0)
(-0.202705 0.144306 0)
(-0.205281 0.13065 0)
(-0.208453 0.117163 0)
(-0.212062 0.103584 0)
(-0.215853 0.0896843 0)
(-0.21964 0.0753225 0)
(-0.223217 0.06043 0)
(-0.226464 0.0450147 0)
(-0.229252 0.0291327 0)
(-0.231526 0.0128849 0)
(-0.233222 -0.00361138 0)
(-0.234328 -0.0202162 0)
(-0.234824 -0.0367961 0)
(-0.234734 -0.0532079 0)
(-0.234069 -0.0693336 0)
(-0.232883 -0.085051 0)
(-0.231223 -0.100283 0)
(-0.229176 -0.114951 0)
(-0.226845 -0.129051 0)
(-0.224399 -0.142602 0)
(-0.22208 -0.155757 0)
(-0.220242 -0.168766 0)
(-0.219374 -0.182126 0)
(-0.220039 -0.196495 0)
(-0.222773 -0.21272 0)
(-0.227701 -0.231449 0)
(-0.23418 -0.252647 0)
(-0.240163 -0.274723 0)
(-0.242127 -0.293764 0)
(-0.235188 -0.303251 0)
(-0.214618 -0.294847 0)
(-0.177896 -0.261458 0)
(-0.128265 -0.202252 0)
(-0.0763033 -0.129099 0)
(-0.0365946 -0.063458 0)
(-0.0142702 -0.0197232 0)
(-0.00359536 0.00428074 0)
(5.82677e-06 0.0129426 0)
(0.000286087 0.0087109 0)
(-0.00102832 0.0249228 0)
(-0.00601323 0.0533118 0)
(-0.0135284 0.0687449 0)
(-0.0219928 0.0787297 0)
(-0.0319138 0.0886322 0)
(-0.0431223 0.101544 0)
(-0.0563945 0.118746 0)
(-0.0714976 0.139911 0)
(-0.0884563 0.163664 0)
(-0.106327 0.187817 0)
(-0.124283 0.209885 0)
(-0.140916 0.227385 0)
(-0.155247 0.238476 0)
(-0.166364 0.242285 0)
(-0.174176 0.239187 0)
(-0.178943 0.230491 0)
(-0.181544 0.218054 0)
(-0.182859 0.203676 0)
(-0.183853 0.188786 0)
(-0.185127 0.174226 0)
(-0.187114 0.160329 0)
(-0.189875 0.147019 0)
(-0.19337 0.134028 0)