/*--------------------------------*- C++ -*----------------------------------*\
| =========                 |                                                 |
| \\      /  F ield         | OpenFOAM: The Open Source CFD Toolbox           |
|  \\    /   O peration     | Version:  2406                                  |
|   \\  /    A nd           | Website:  www.openfoam.com                      |
|    \\/     M anipulation  |                                                 |
\*---------------------------------------------------------------------------*/
FoamFile
{
    version     2.0;
    format      ascii;
    arch        "LSB;label=32;scalar=64";
    class       volVectorField;
    location    "20.8";
    object      U;
}
// * * * * * * * * * * * * * * * * * * * * * * * * * * * * * * * * * * * * * //

dimensions      [0 1 -1 0 0 0 0];

internalField   nonuniform List<vector> 
900
(
(0.000383733 -0.000445919 0)
(0.00232447 -0.000840906 0)
(0.00471615 -0.000814647 0)
(0.00618161 -0.00062454 0)
(0.0069583 -0.000532053 0)
(0.00701975 -0.00057547 0)
(0.00666059 -0.000754969 0)
(0.00588763 -0.0010183 0)
(0.00445199 -0.0016303 0)
(0.00114686 -0.00269441 0)
(-0.00576164 -0.00268975 0)
(-0.0172841 0.000187013 0)
(-0.0333987 0.00478691 0)
(-0.0522656 0.00825434 0)
(-0.0708897 0.00939343 0)
(-0.0868386 0.00876572 0)
(-0.098696 0.00704872 0)
(-0.105307 0.00459046 0)
(-0.106072 0.00162808 0)
(-0.100223 -0.00168489 0)
(-0.0877263 -0.00507576 0)
(-0.0684129 -0.0081807 0)
(-0.0438584 -0.0102761 0)
(-0.016034 -0.0105039 0)
(0.00969467 -0.00766057 0)
(0.0276536 -0.0020428 0)
(0.0310747 0.0038585 0)
(0.0224302 0.00571901 0)
(0.010957 0.00447622 0)
(0.00171408 0.00208484 0)
(0.000849753 -0.00225568 0)
(0.0038465 -0.00353759 0)
(0.00704246 -0.00303197 0)
(0.00851231 -0.00162349 0)
(0.00827834 -0.000289618 0)
(0.0058675 0.00089222 0)
(0.000796454 0.00191712 0)
(-0.008594 0.00326163 0)
(-0.02459 0.00643364 0)
(-0.047882 0.0131035 0)
(-0.0763212 0.0214338 0)
(-0.105601 0.0277775 0)
(-0.131785 0.0304745 0)
(-0.153007 0.0294536 0)
(-0.169012 0.0253807 0)
(-0.179813 0.0192148 0)
(-0.185366 0.0116034 0)
(-0.185436 0.00291651 0)
(-0.179871 -0.00654136 0)
(-0.168231 -0.0165925 0)
(-0.150358 -0.0265874 0)
(-0.126018 -0.0357571 0)
(-0.0958483 -0.0420688 0)
(-0.0613885 -0.0433533 0)
(-0.026078 -0.0360412 0)
(0.00440165 -0.019547 0)
(0.0224985 0.00160216 0)
(0.022624 0.0142035 0)
(0.0134396 0.0164544 0)
(0.002408 0.0105852 0)
(0.00105477 -0.0051129 0)
(0.00373619 -0.00706456 0)
(0.00569582 -0.00546733 0)
(0.00495725 -0.00188704 0)
(0.000956508 0.00208563 0)
(-0.00771489 0.00686295 0)
(-0.0231922 0.0136656 0)
(-0.0473319 0.0243737 0)
(-0.0791613 0.0376366 0)
(-0.113409 0.0487902 0)
(-0.144455 0.0545799 0)
(-0.169887 0.0552215 0)
(-0.189411 0.0518163 0)
(-0.203496 0.045094 0)
(-0.212989 0.0358374 0)
(-0.218469 0.0247783 0)
(-0.220381 0.0124008 0)
(-0.218795 -0.00116126 0)
(-0.213684 -0.0157154 0)
(-0.204575 -0.03135 0)
(-0.190928 -0.0472596 0)
(-0.171918 -0.0627486 0)
(-0.146731 -0.0747306 0)
(-0.115426 -0.0803202 0)
(-0.0783737 -0.073129 0)
(-0.0399917 -0.0505818 0)
(-0.0058495 -0.0140227 0)
(0.0088423 0.0144307 0)
(0.00756021 0.0246458 0)
(0.000844357 0.0176602 0)
(0.000941343 -0.00701461 0)
(0.001904 -0.00819067 0)
(0.000538697 -0.00421311 0)
(-0.0049726 0.00315681 0)
(-0.016268 0.0124458 0)
(-0.0353881 0.025132 0)
(-0.0634746 0.0416356 0)
(-0.0976865 0.059254 0)
(-0.13173 0.0724716 0)
(-0.160493 0.078496 0)
(-0.182837 0.0780976 0)
(-0.19918 0.0728982 0)
(-0.210279 0.0642127 0)
(-0.217171 0.0531367 0)
(-0.220964 0.0404661 0)
(-0.222461 0.0266823 0)
(-0.222309 0.0120011 0)
(-0.220737 -0.00380533 0)
(-0.217919 -0.0207796 0)
(-0.213437 -0.0395165 0)
(-0.206772 -0.0593637 0)
(-0.196617 -0.0802681 0)
(-0.181305 -0.0987647 0)
(-0.158994 -0.112107 0)
(-0.127386 -0.111523 0)
(-0.0873561 -0.0921288 0)
(-0.0411232 -0.0467474 0)
(-0.00525786 0.000742227 0)
(0.00259862 0.024706 0)
(-0.00027478 0.0190586 0)
(0.000460537 -0.00798912 0)
(-0.00155973 -0.00671489 0)
(-0.00789072 0.00136643 0)
(-0.0200084 0.0148806 0)
(-0.0399706 0.0324513 0)
(-0.0679447 0.0540072 0)
(-0.101188 0.0758451 0)
(-0.133468 0.0925351 0)
(-0.159875 0.100314 0)
(-0.178964 0.0996785 0)
(-0.191658 0.0930195 0)
(-0.198917 0.0824627 0)
(-0.202221 0.0696559 0)
(-0.202758 0.0556425 0)
(-0.201697 0.041034 0)
(-0.199761 0.0260298 0)
(-0.197688 0.0106589 0)
(-0.195758 -0.00560135 0)
(-0.194512 -0.0229474 0)
(-0.19372 -0.0425171 0)
(-0.19344 -0.0639542 0)
(-0.192268 -0.0882534 0)
(-0.18862 -0.112279 0)
(-0.179205 -0.134379 0)
(-0.159943 -0.144796 0)
(-0.127382 -0.136881 0)
(-0.0798084 -0.095969 0)
(-0.0245585 -0.0293552 0)
(0.00294924 0.0197324 0)
(-8.86508e-05 0.0198942 0)
(-0.000653049 -0.0058604 0)
(-0.00702115 0.000249417 0)
(-0.0193529 0.014306 0)
(-0.0379652 0.0353596 0)
(-0.0640214 0.0604544 0)
(-0.0946004 0.0864281 0)
(-0.124947 0.107186 0)
(-0.149425 0.117951 0)
(-0.166008 0.117991 0)
(-0.175411 0.110399 0)
(-0.179392 0.0982095 0)
(-0.179367 0.0836315 0)
(-0.177059 0.0682279 0)
(-0.173414 0.0527682 0)
(-0.169429 0.037646 0)
(-0.165424 0.0228014 0)
(-0.162025 0.00817967 0)
(-0.159289 -0.00690048 0)
(-0.158094 -0.0226227 0)
(-0.158351 -0.0405561 0)
(-0.161093 -0.0606178 0)
(-0.165315 -0.0851168 0)
(-0.170558 -0.111726 0)
(-0.173321 -0.140959 0)
(-0.168976 -0.163396 0)
(-0.151688 -0.172643 0)
(-0.11403 -0.149249 0)
(-0.0571021 -0.0824712 0)
(0.00173474 0.0005925 0)
(0.00153944 0.0218747 0)
(-0.00198206 -0.000405531 0)
(-0.0127096 0.0119761 0)
(-0.0301557 0.0322049 0)
(-0.0528492 0.0595194 0)
(-0.0806178 0.0889774 0)
(-0.108662 0.114835 0)
(-0.132466 0.130532 0)
(-0.148158 0.133524 0)
(-0.156232 0.126238 0)
(-0.158452 0.113019 0)
(-0.156968 0.0969389 0)
(-0.153384 0.0801067 0)
(-0.149291 0.0637048 0)
(-0.1451 0.0480036 0)
(-0.141348 0.033085 0)
(-0.137653 0.0186246 0)
(-0.134362 0.00462919 0)
(-0.131083 -0.00952993 0)
(-0.128893 -0.0236956 0)
(-0.127656 -0.0395113 0)
(-0.129318 -0.0567125 0)
(-0.133442 -0.0787519 0)
(-0.141231 -0.103975 0)
(-0.150093 -0.135889 0)
(-0.156507 -0.166294 0)
(-0.154257 -0.191931 0)
(-0.132712 -0.190423 0)
(-0.0898709 -0.145872 0)
(-0.0163744 -0.0383174 0)
(0.00910706 0.0229994 0)
(-0.00330774 0.00886999 0)
(-0.017652 0.0286086 0)
(-0.0383062 0.054469 0)
(-0.0621237 0.0859592 0)
(-0.0882704 0.11627 0)
(-0.111298 0.138324 0)
(-0.12797 0.146711 0)
(-0.136316 0.141818 0)
(-0.138527 0.128388 0)
(-0.136798 0.111264 0)
(-0.133509 0.0932553 0)
(-0.130141 0.0760472 0)
(-0.127686 0.0600299 0)
(-0.125809 0.0448606 0)
(-0.124368 0.0302615 0)
(-0.122359 0.0157824 0)
(-0.11991 0.00166925 0)
(-0.116315 -0.0124837 0)
(-0.112795 -0.0259668 0)
(-0.109082 -0.0403208 0)
(-0.107687 -0.0546912 0)
(-0.108529 -0.073402 0)
(-0.114258 -0.0948834 0)
(-0.123465 -0.125743 0)
(-0.134533 -0.15913 0)
(-0.141638 -0.196149 0)
(-0.135199 -0.214208 0)
(-0.107807 -0.198181 0)
(-0.0472845 -0.0993727 0)
(0.0147617 0.0150779 0)
(-0.00398987 0.0204122 0)
(-0.0201886 0.0470047 0)
(-0.04179 0.0764884 0)
(-0.0644128 0.109435 0)
(-0.0871512 0.137979 0)
(-0.104764 0.154452 0)
(-0.115578 0.155469 0)
(-0.119089 0.144065 0)
(-0.118572 0.126681 0)
(-0.116219 0.107962 0)
(-0.114446 0.0902335 0)
(-0.114062 0.0742246 0)
(-0.115232 0.059339 0)
(-0.11679 0.0446196 0)
(-0.118099 0.0296418 0)
(-0.11784 0.0140869 0)
(-0.116158 -0.00134655 0)
(-0.112213 -0.0167653 0)
(-0.107331 -0.0307855 0)
(-0.101035 -0.0448137 0)
(-0.0960379 -0.0570506 0)
(-0.092301 -0.072437 0)
(-0.0934989 -0.088789 0)
(-0.0993412 -0.115789 0)
(-0.11053 -0.147896 0)
(-0.122131 -0.191081 0)
(-0.126276 -0.224539 0)
(-0.112183 -0.233196 0)
(-0.0705728 -0.162776 0)
(-0.000113174 -0.00850176 0)
(-0.00407727 0.0330729 0)
(-0.0205127 0.0666244 0)
(-0.0413325 0.0986534 0)
(-0.0614745 0.131434 0)
(-0.080282 0.156592 0)
(-0.0931568 0.166843 0)
(-0.0998391 0.161118 0)
(-0.100918 0.144948 0)
(-0.100113 0.125611 0)
(-0.099432 0.107229 0)
(-0.100904 0.0911644 0)
(-0.104384 0.0768726 0)
(-0.109211 0.062812 0)
(-0.113679 0.0477188 0)
(-0.117047 0.0313705 0)
(-0.118027 0.0137712 0)
(-0.116941 -0.00386778 0)
(-0.112899 -0.0214673 0)
(-0.107299 -0.036991 0)
(-0.0993559 -0.0518759 0)
(-0.091729 -0.0631841 0)
(-0.0840047 -0.0762874 0)
(-0.0803407 -0.0875495 0)
(-0.0808401 -0.109027 0)
(-0.0888921 -0.136052 0)
(-0.100799 -0.180399 0)
(-0.111243 -0.223866 0)
(-0.108367 -0.253817 0)
(-0.0800888 -0.211613 0)
(-0.0234231 -0.0548327 0)
(-0.00344085 0.0448727 0)
(-0.0185721 0.0842924 0)
(-0.0372373 0.117241 0)
(-0.054202 0.14832 0)
(-0.0691898 0.169491 0)
(-0.0784543 0.173964 0)
(-0.0828445 0.163174 0)
(-0.0834641 0.144306 0)
(-0.0841139 0.125114 0)
(-0.0862734 0.108666 0)
(-0.0913226 0.0950968 0)
(-0.0980801 0.0824277 0)
(-0.105461 0.0685809 0)
(-0.111609 0.0523494 0)
(-0.116069 0.0339986 0)
(-0.117666 0.0138516 0)
(-0.116999 -0.00638192 0)
(-0.113069 -0.0265996 0)
(-0.107416 -0.0441355 0)
(-0.0988425 -0.0606802 0)
(-0.0900009 -0.0720997 0)
(-0.079735 -0.0842291 0)
(-0.072538 -0.0915854 0)
(-0.0677415 -0.107662 0)
(-0.0712401 -0.1276 0)
(-0.0799052 -0.168903 0)
(-0.0922853 -0.216668 0)
(-0.0955726 -0.264252 0)
(-0.0770679 -0.248125 0)
(-0.0317351 -0.112047 0)
(-0.00240986 0.0551406 0)
(-0.0152035 0.10061 0)
(-0.0310293 0.134243 0)
(-0.0447247 0.16348 0)
(-0.0563698 0.180841 0)
(-0.0631193 0.180641 0)
(-0.0664514 0.166245 0)
(-0.0677312 0.146358 0)
(-0.0703388 0.128506 0)
(-0.0751369 0.114518 0)
(-0.0826962 0.103044 0)
(-0.0912417 0.091049 0)
(-0.0996928 0.0764256 0)
(-0.106363 0.0583172 0)
(-0.111168 0.0375393 0)
(-0.112991 0.0146123 0)
(-0.112729 -0.00830042 0)
(-0.109173 -0.03125 0)
(-0.104145 -0.0509658 0)
(-0.0958896 -0.0696228 0)
(-0.0872958 -0.0819315 0)
(-0.0760606 -0.094206 0)
(-0.0673075 -0.0991024 0)
(-0.0586203 -0.110838 0)
(-0.0582061 -0.123476 0)
(-0.0624775 -0.159695 0)
(-0.074565 -0.207866 0)
(-0.0803202 -0.268803 0)
(-0.0688193 -0.276174 0)
(-0.0301567 -0.163984 0)
(-0.00102907 0.0624062 0)
(-0.0107243 0.112902 0)
(-0.0231637 0.146589 0)
(-0.0336257 0.173569 0)
(-0.0423893 0.187741 0)
(-0.0474531 0.184006 0)
(-0.0506224 0.16772 0)
(-0.0530013 0.148113 0)
(-0.0573784 0.132399 0)
(-0.0638578 0.120888 0)
(-0.0725616 0.111089 0)
(-0.0814891 0.0992778 0)
(-0.0899172 0.0836502 0)
(-0.0963085 0.0636718 0)
(-0.100996 0.0406653 0)
(-0.102765 0.0152209 0)
(-0.102886 -0.0100505 0)
(-0.0997896 -0.0354618 0)
(-0.0958129 -0.0571426 0)
(-0.088458 -0.0779226 0)
(-0.0812622 -0.0915275 0)
(-0.0703266 -0.104735 0)
(-0.0618683 -0.108533 0)
(-0.0509938 -0.117359 0)
(-0.0480544 -0.123262 0)
(-0.0477974 -0.153029 0)
(-0.0587835 -0.198389 0)
(-0.0654355 -0.269652 0)
(-0.0600128 -0.298477 0)
(-0.027666 -0.211179 0)
(0.000359495 0.0669937 0)
(-0.00582377 0.122872 0)
(-0.0147721 0.157151 0)
(-0.022176 0.18278 0)
(-0.028422 0.194709 0)
(-0.032295 0.189043 0)
(-0.035458 0.171937 0)
(-0.0386982 0.153257 0)
(-0.0439449 0.139471 0)
(-0.0508568 0.129789 0)
(-0.0593292 0.120792 0)
(-0.0675036 0.108458 0)
(-0.0750919 0.091405 0)
(-0.0806869 0.069391 0)
(-0.0850318 0.0442105 0)
(-0.0866367 0.0163929 0)
(-0.0872229 -0.010985 0)
(-0.0846488 -0.0385766 0)
(-0.0820452 -0.0619126 0)
(-0.0759092 -0.0845771 0)
(-0.0709432 -0.0995765 0)
(-0.0612545 -0.114144 0)
(-0.0546377 -0.117867 0)
(-0.0433405 -0.125293 0)
(-0.0398546 -0.126089 0)
(-0.0359983 -0.149567 0)
(-0.0457792 -0.189703 0)
(-0.0519891 -0.267407 0)
(-0.0516345 -0.313995 0)
(-0.0246935 -0.251911 0)
(0.00176124 0.0678321 0)
(-0.000724496 0.127942 0)
(-0.00598609 0.162824 0)
(-0.0104761 0.187079 0)
(-0.0144448 0.19774 0)
(-0.0173023 0.190973 0)
(-0.0205185 0.174047 0)
(-0.024169 0.156473 0)
(-0.0294969 0.144423 0)
(-0.0357086 0.136089 0)
(-0.0429428 0.127623 0)
(-0.049552 0.114843 0)
(-0.0558525 0.0968075 0)
(-0.0603703 0.0733869 0)
(-0.0643048 0.0467056 0)
(-0.0656628 0.0171217 0)
(-0.0667899 -0.0118031 0)
(-0.0646974 -0.0410295 0)
(-0.063637 -0.0655043 0)
(-0.0587628 -0.0895288 0)
(-0.0564483 -0.105674 0)
(-0.0485129 -0.12166 0)
(-0.0447216 -0.125845 0)
(-0.0342329 -0.132862 0)
(-0.0319518 -0.129956 0)
(-0.0258905 -0.147841 0)
(-0.0352737 -0.181743 0)
(-0.0407919 -0.263839 0)
(-0.0449274 -0.32553 0)
(-0.0221158 -0.287825 0)
(0.00282777 0.066104 0)
(0.00410518 0.130679 0)
(0.0024351 0.166983 0)
(0.000820926 0.191299 0)
(-0.000855156 0.201626 0)
(-0.00260062 0.195291 0)
(-0.00538982 0.178982 0)
(-0.00881267 0.16238 0)
(-0.0132991 0.151164 0)
(-0.0179522 0.143322 0)
(-0.0232322 0.134822 0)
(-0.0277878 0.121419 0)
(-0.0325163 0.102488 0)
(-0.0357212 0.0778184 0)
(-0.0391892 0.049854 0)
(-0.0402383 0.0187189 0)
(-0.0420956 -0.0115061 0)
(-0.0405532 -0.0420535 0)
(-0.0413143 -0.0673126 0)
(-0.0377847 -0.0922476 0)
(-0.0383981 -0.109197 0)
(-0.0325126 -0.126493 0)
(-0.0322053 -0.131439 0)
(-0.0233906 -0.138814 0)
(-0.0236946 -0.133656 0)
(-0.0167165 -0.147088 0)
(-0.026549 -0.173991 0)
(-0.0311271 -0.258081 0)
(-0.0395649 -0.332221 0)
(-0.019852 -0.319337 0)
(0.0036346 0.0608824 0)
(0.00844573 0.128141 0)
(0.0104717 0.166042 0)
(0.0116521 0.190167 0)
(0.0122266 0.20106 0)
(0.0118084 0.195383 0)
(0.00961373 0.180186 0)
(0.00685276 0.164201 0)
(0.00352711 0.153439 0)
(0.000935146 0.145777 0)
(-0.00201344 0.137374 0)
(-0.00406211 0.12385 0)
(-0.00692009 0.104764 0)
(-0.00846089 0.0797234 0)
(-0.0113289 0.0513859 0)
(-0.0118956 0.0196032 0)
(-0.0145892 -0.0111702 0)
(-0.0136213 -0.0423475 0)
(-0.0164187 -0.0678125 0)
(-0.0142872 -0.0930841 0)
(-0.0179187 -0.110338 0)
(-0.0141119 -0.128595 0)
(-0.0175666 -0.13424 0)
(-0.0108546 -0.142247 0)
(-0.0147105 -0.13578 0)
(-0.00797191 -0.146006 0)
(-0.0193805 -0.166347 0)
(-0.0230724 -0.25146 0)
(-0.035707 -0.33611 0)
(-0.0178531 -0.347701 0)
(0.00376653 0.0542269 0)
(0.0119255 0.12386 0)
(0.0174351 0.16394 0)
(0.0215561 0.189607 0)
(0.0246928 0.201616 0)
(0.0260162 0.198074 0)
(0.0250943 0.18417 0)
(0.0234306 0.168608 0)
(0.0216489 0.157308 0)
(0.0213271 0.148928 0)
(0.0208825 0.1401 0)
(0.0215496 0.126336 0)
(0.0206842 0.10728 0)
(0.0210503 0.0821426 0)
(0.0188478 0.053797 0)
(0.0189708 0.0217598 0)
(0.0153402 -0.0091659 0)
(0.0156241 -0.0406134 0)
(0.0104795 -0.0659617 0)
(0.0110216 -0.0913002 0)
(0.00422372 -0.108583 0)
(0.0059469 -0.127554 0)
(-0.00141231 -0.133803 0)
(0.00302082 -0.142579 0)
(-0.00496534 -0.135493 0)
(0.00086041 -0.143571 0)
(-0.0130416 -0.157643 0)
(-0.0158134 -0.242706 0)
(-0.0329544 -0.336469 0)
(-0.0159516 -0.373419 0)
(0.00348984 0.0451689 0)
(0.0142396 0.114164 0)
(0.0232715 0.156374 0)
(0.0302315 0.182618 0)
(0.0358661 0.19651 0)
(0.0392574 0.194763 0)
(0.0396823 0.182712 0)
(0.0393217 0.167386 0)
(0.0387817 0.15545 0)
(0.0405627 0.146201 0)
(0.0423697 0.137121 0)
(0.0458786 0.123659 0)
(0.0471057 0.105371 0)
(0.0497418 0.0810957 0)
(0.0483816 0.0537218 0)
(0.0494967 0.0225474 0)
(0.045044 -0.00742045 0)
(0.0447432 -0.038162 0)
(0.0372734 -0.0626861 0)
(0.0363201 -0.0876146 0)
(0.0265001 -0.10457 0)
(0.0263932 -0.123872 0)
(0.0152503 -0.130438 0)
(0.0174943 -0.139823 0)
(0.00507241 -0.132491 0)
(0.00957675 -0.139369 0)
(-0.00768385 -0.148202 0)
(-0.00944542 -0.232932 0)
(-0.0313736 -0.334715 0)
(-0.0139772 -0.397256 0)
(0.00246421 0.036776 0)
(0.0151571 0.104105 0)
(0.0271745 0.148206 0)
(0.0371522 0.177112 0)
(0.0457755 0.192806 0)
(0.0518126 0.194422 0)
(0.0544754 0.184417 0)
(0.0558134 0.169641 0)
(0.0565776 0.156409 0)
(0.0600779 0.145359 0)
(0.0636418 0.13519 0)
(0.0696896 0.121523 0)
(0.0727277 0.103945 0)
(0.0776343 0.0806847 0)
(0.0770275 0.0547006 0)
(0.0791857 0.0247975 0)
(0.0739373 -0.00364707 0)
(0.0731853 -0.0332895 0)
(0.0634999 -0.0567039 0)
(0.0612545 -0.0811438 0)
(0.0485806 -0.0976872 0)
(0.0468948 -0.117124 0)
(0.0320637 -0.123753 0)
(0.0322735 -0.133535 0)
(0.015283 -0.126109 0)
(0.0184302 -0.132404 0)
(-0.00278323 -0.136688 0)
(-0.00326797 -0.22078 0)
(-0.0306613 -0.330221 0)
(-0.0117182 -0.419517 0)
(0.00159886 0.0274881 0)
(0.0145992 0.0890096 0)
(0.0293052 0.134337 0)
(0.0418884 0.163593 0)
(0.0530171 0.181765 0)
(0.0619202 0.185693 0)
(0.0667638 0.178669 0)
(0.0701915 0.164895 0)
(0.0719211 0.151146 0)
(0.0767224 0.138656 0)
(0.081126 0.127549 0)
(0.0892115 0.114028 0)
(0.0935447 0.0976225 0)
(0.100655 0.0761808 0)
(0.100795 0.0525132 0)
(0.104199 0.0249348 0)
(0.0984379 -0.000956722 0)
(0.0977248 -0.0285417 0)
(0.0864103 -0.0501833 0)
(0.0835928 -0.0736549 0)
(0.0686868 -0.0894388 0)
(0.0659986 -0.108511 0)
(0.0478329 -0.114772 0)
(0.0463582 -0.124558 0)
(0.024864 -0.11715 0)
(0.0268023 -0.123399 0)
(0.00116327 -0.124327 0)
(0.00235929 -0.207538 0)
(-0.0310714 -0.324152 0)
(-0.00900877 -0.440656 0)
(0.000385564 0.0209456 0)
(0.0126892 0.0765214 0)
(0.0285817 0.121278 0)
(0.0436708 0.153603 0)
(0.0579004 0.173093 0)
(0.0702457 0.180856 0)
(0.0785134 0.176565 0)
(0.0848538 0.164593 0)
(0.0881713 0.150377 0)
(0.0941444 0.136108 0)
(0.0986624 0.123266 0)
(0.107793 0.108905 0)
(0.112495 0.0931661 0)
(0.121057 0.0731146 0)
(0.121528 0.051929 0)
(0.126044 0.0267342 0)
(0.119916 0.00370105 0)
(0.119732 -0.0218067 0)
(0.107378 -0.0415886 0)
(0.104644 -0.064132 0)
(0.087855 -0.0789013 0)
(0.0844039 -0.0972321 0)
(0.0629113 -0.102605 0)
(0.0599091 -0.111989 0)
(0.0339335 -0.104467 0)
(0.0350202 -0.110896 0)
(0.00479022 -0.109245 0)
(0.00844191 -0.191467 0)
(-0.032087 -0.315893 0)
(-0.00546856 -0.460771 0)
(0.000393488 0.0142565 0)
(0.0102921 0.0602102 0)
(0.0262759 0.103266 0)
(0.0426499 0.133626 0)
(0.0581925 0.155093 0)
(0.0736878 0.164475 0)
(0.0848008 0.164036 0)
(0.0948626 0.154663 0)
(0.100203 0.141898 0)
(0.108109 0.127513 0)
(0.112577 0.114038 0)
(0.122472 0.0994667 0)
(0.126776 0.08464 0)
(0.136398 0.0663597 0)
(0.136768 0.0479343 0)
(0.142598 0.0256905 0)
(0.136338 0.00586696 0)
(0.137416 -0.0169798 0)
(0.124591 -0.034462 0)
(0.122585 -0.0552881 0)
(0.104222 -0.0683377 0)
(0.100359 -0.0850296 0)
(0.0758047 -0.0890474 0)
(0.071708 -0.097633 0)
(0.0415829 -0.0903212 0)
(0.0422556 -0.0973176 0)
(0.00736569 -0.0945887 0)
(0.014115 -0.174831 0)
(-0.0342428 -0.306773 0)
(-0.00094493 -0.479979 0)
(-0.000821868 0.0106481 0)
(0.00661616 0.0510363 0)
(0.0202754 0.089359 0)
(0.0373726 0.122148 0)
(0.0553387 0.142507 0)
(0.0741152 0.154525 0)
(0.0893096 0.155959 0)
(0.103885 0.149269 0)
(0.11251 0.137833 0)
(0.123333 0.12361 0)
(0.12853 0.109681 0)
(0.139206 0.0943921 0)
(0.1429 0.080083 0)
(0.15292 0.0626699 0)
(0.152782 0.0466479 0)
(0.159449 0.02661 0)
(0.152968 0.00990999 0)
(0.155118 -0.0107306 0)
(0.141748 -0.0255569 0)
(0.14018 -0.044604 0)
(0.119938 -0.0551729 0)
(0.115394 -0.069967 0)
(0.087541 -0.0719457 0)
(0.0824975 -0.079544 0)
(0.0482774 -0.0720521 0)
(0.0493382 -0.0796228 0)
(0.0100021 -0.0765562 0)
(0.021581 -0.154384 0)
(-0.0359007 -0.295795 0)
(0.00543089 -0.497934 0)
(0.000887596 0.00824104 0)
(0.0050375 0.0383 0)
(0.014855 0.0723648 0)
(0.0302139 0.0975308 0)
(0.0458017 0.118198 0)
(0.0666907 0.12953 0)
(0.0838298 0.134235 0)
(0.103396 0.130608 0)
(0.115657 0.122595 0)
(0.131163 0.110645 0)
(0.138405 0.0984593 0)
(0.151637 0.0841994 0)
(0.155356 0.0713512 0)
(0.166728 0.0555422 0)
(0.165881 0.0419326 0)
(0.173811 0.024514 0)
(0.166506 0.0108146 0)
(0.169886 -0.00687487 0)
(0.155172 -0.0187907 0)
(0.154148 -0.0348316 0)
(0.131471 -0.0425964 0)
(0.126798 -0.0544534 0)
(0.0958702 -0.0547463 0)
(0.091007 -0.0610933 0)
(0.0535658 -0.0547638 0)
(0.0558306 -0.0633828 0)
(0.012517 -0.0625352 0)
(0.0292749 -0.135548 0)
(-0.037484 -0.285086 0)
(0.0139527 -0.51366 0)
(-0.00378937 0.00480058 0)
(-0.0032788 0.0379882 0)
(0.00364902 0.0645596 0)
(0.0177757 0.0922561 0)
(0.0355976 0.106663 0)
(0.0576802 0.117072 0)
(0.0775181 0.120052 0)
(0.10096 0.117528 0)
(0.116706 0.11101 0)
(0.136687 0.100633 0)
(0.146617 0.0902421 0)
(0.162749 0.0770131 0)
(0.167502 0.0660858 0)
(0.180156 0.0515852 0)
(0.179274 0.0407327 0)
(0.187732 0.0253091 0)
(0.179851 0.0151346 0)
(0.183384 -0.000228679 0)
(0.167374 -0.0082781 0)
(0.166095 -0.0219809 0)
(0.141183 -0.0258443 0)
(0.136455 -0.0358743 0)
(0.102721 -0.0333934 0)
(0.099216 -0.0395323 0)
(0.0583171 -0.0327175 0)
(0.0643769 -0.0423599 0)
(0.0164189 -0.0435402 0)
(0.043013 -0.110761 0)
(-0.032986 -0.271888 0)
(0.0271364 -0.525225 0)
(0.00458228 0.0158034 0)
(0.000903345 0.0295975 0)
(-0.00676179 0.0513683 0)
(0.00339155 0.0637188 0)
(0.0137056 0.0779601 0)
(0.0377232 0.086006 0)
(0.0570556 0.090818 0)
(0.0851108 0.0901279 0)
(0.103566 0.0870497 0)
(0.128714 0.0795748 0)
(0.141723 0.0728112 0)
(0.162057 0.062167 0)
(0.16832 0.05449 0)
(0.183952 0.0426051 0)
(0.182679 0.0349871 0)
(0.193503 0.0227178 0)
(0.18365 0.0158719 0)
(0.189554 0.00424437 0)
(0.170331 -0.000682752 0)
(0.172016 -0.0102865 0)
(0.143355 -0.0119149 0)
(0.143254 -0.0182304 0)
(0.106459 -0.0159797 0)
(0.110001 -0.0201173 0)
(0.0668932 -0.0172657 0)
(0.0811536 -0.0271519 0)
(0.0291353 -0.0363346 0)
(0.064261 -0.0958059 0)
(-0.0195018 -0.261402 0)
(0.046142 -0.526104 0)
(-0.0170964 -0.00279451 0)
(-0.0177217 0.051346 0)
(-0.0107808 0.0619575 0)
(-0.00993555 0.0742945 0)
(0.00514293 0.0733851 0)
(0.0261376 0.0750367 0)
(0.0463992 0.0738727 0)
(0.0739806 0.0712787 0)
(0.0941278 0.0686547 0)
(0.120461 0.0621711 0)
(0.135232 0.0581901 0)
(0.157571 0.0498531 0)
(0.164549 0.0455371 0)
(0.18244 0.036519 0)
(0.180627 0.0326352 0)
(0.194122 0.0234672 0)
(0.182918 0.0207479 0)
(0.192562 0.0119486 0)
(0.171787 0.0113123 0)
(0.179338 0.00340736 0)
(0.149373 0.00566574 0)
(0.158557 -0.00125128 0)
(0.119967 0.00379748 0)
(0.136779 -0.00322616 0)
(0.0881864 0.00196562 0)
(0.119667 -0.00925895 0)
(0.0562455 -0.0181893 0)
(0.112351 -0.0698602 0)
(0.0281881 -0.236536 0)
(0.0825526 -0.50443 0)
(-0.0781942 0.0568845 0)
(-0.0711214 0.0203019 0)
(-0.0957671 0.0437625 0)
(-0.0632592 0.043726 0)
(-0.0518591 0.0407647 0)
(-0.0155099 0.0420648 0)
(0.00601036 0.0424675 0)
(0.0431556 0.0405664 0)
(0.0638517 0.0406649 0)
(0.100192 0.0369536 0)
(0.113868 0.0361274 0)
(0.1485 0.031362 0)
(0.152611 0.030202 0)
(0.185691 0.024968 0)
(0.179219 0.0239895 0)
(0.211707 0.0187447 0)
(0.193993 0.018235 0)
(0.227766 0.013506 0)
(0.198279 0.0135228 0)
(0.236432 0.00998016 0)
(0.194709 0.010107 0)
(0.241503 0.0085031 0)
(0.186888 0.00740271 0)
(0.246895 0.0078075 0)
(0.178187 0.00195545 0)
(0.254188 -0.00192978 0)
(0.170215 -0.0275106 0)
(0.256192 -0.080961 0)
(0.141302 -0.22542 0)
(0.140285 -0.436822 0)
(0.0806478 0.134061 0)
(0.121649 0.0740348 0)
(0.166315 0.0542658 0)
(0.22135 0.0350718 0)
(0.24289 0.0273699 0)
(0.288843 0.0193807 0)
(0.302491 0.0168307 0)
(0.34825 0.0139256 0)
(0.355602 0.0131179 0)
(0.402567 0.011814 0)
(0.403146 0.0114097 0)
(0.450913 0.0104441 0)
(0.443675 0.00997891 0)
(0.492076 0.00908572 0)
(0.476313 0.00845117 0)
(0.52567 0.00766572 0)
(0.501087 0.00687463 0)
(0.552172 0.00625219 0)
(0.518898 0.00542672 0)
(0.572844 0.00488037 0)
(0.531393 0.00433955 0)
(0.589418 0.00339444 0)
(0.540376 0.00376497 0)
(0.603052 0.00099728 0)
(0.545377 0.00297969 0)
(0.609887 -0.00600584 0)
(0.531223 -0.00480819 0)
(0.575172 -0.0382061 0)
(0.399301 -0.0638733 0)
(0.294581 -0.198963 0)
)
;

boundaryField
{
    movingWall
    {
        type            fixedValue;
        value           uniform (1 0 0);
    }
    fixedWalls
    {
        type            noSlip;
    }
    frontAndBack
    {
        type            empty;
    }
}


// ************************************************************************* //
