/*--------------------------------*- C++ -*----------------------------------*\
| =========                 |                                                 |
| \\      /  F ield         | OpenFOAM: The Open Source CFD Toolbox           |
|  \\    /   O peration     | Version:  2406                                  |
|   \\  /    A nd           | Website:  www.openfoam.com                      |
|    \\/     M anipulation  |                                                 |
\*---------------------------------------------------------------------------*/
FoamFile
{
    version     2.0;
    format      ascii;
    arch        "LSB;label=32;scalar=64";
    class       surfaceScalarField;
    location    "9.6";
    object      phi_0;
}
// * * * * * * * * * * * * * * * * * * * * * * * * * * * * * * * * * * * * * //

dimensions      [0 3 -1 0 0 0 0];

oriented        oriented;

internalField   nonuniform List<scalar> 
1740
(
-1.51117e-06
1.51118e-06
-4.72496e-06
3.21379e-06
-8.77905e-06
4.0541e-06
-1.30632e-05
4.28411e-06
-1.74528e-05
4.38967e-06
-2.19614e-05
4.50857e-06
-2.66461e-05
4.68473e-06
-3.15533e-05
4.90714e-06
-3.67019e-05
5.14864e-06
-4.20601e-05
5.35818e-06
-4.75141e-05
5.454e-06
-5.28314e-05
5.31734e-06
-5.76301e-05
4.79868e-06
-6.13714e-05
3.74133e-06
-6.33992e-05
2.02773e-06
-6.30451e-05
-3.54046e-07
-5.97751e-05
-3.27003e-06
-5.33832e-05
-6.39192e-06
-4.41371e-05
-9.24607e-06
-3.28358e-05
-1.13013e-05
-2.07211e-05
-1.21147e-05
-9.23455e-06
-1.14865e-05
3.27699e-07
-9.56225e-06
7.12993e-06
-6.80224e-06
1.08955e-05
-3.76553e-06
1.18569e-05
-9.61435e-07
1.046e-05
1.39694e-06
7.22834e-06
3.23161e-06
3.11101e-06
4.11733e-06
3.11101e-06
-4.24776e-06
5.75894e-06
-1.24985e-05
1.14646e-05
-2.23243e-05
1.38799e-05
-3.27129e-05
1.46727e-05
-4.33844e-05
1.50612e-05
-5.43272e-05
1.54514e-05
-6.5579e-05
1.59365e-05
-7.71442e-05
1.64724e-05
-8.89475e-05
1.69519e-05
-0.000100783
1.71933e-05
-0.000112257
1.69283e-05
-0.000122746
1.58062e-05
-0.000131385
1.34381e-05
-0.000137133
9.48883e-06
-0.000138913
3.8077e-06
-0.00013583
-3.43705e-06
-0.000127401
-1.16984e-05
-0.000113716
-2.0077e-05
-9.55354e-05
-2.74269e-05
-7.42694e-05
-3.25673e-05
-5.18464e-05
-3.45377e-05
-3.04492e-05
-3.28837e-05
-1.21112e-05
-2.79003e-05
1.7336e-06
-2.0647e-05
1.05618e-05
-1.25937e-05
1.45618e-05
-4.96141e-06
1.43095e-05
1.64922e-06
1.05774e-05
6.9637e-06
4.57474e-06
1.012e-05
7.68575e-06
-6.44381e-06
1.22028e-05
-1.81933e-05
2.32141e-05
-3.18498e-05
2.75364e-05
-4.62522e-05
2.90751e-05
-6.10697e-05
2.98787e-05
-7.62388e-05
3.06205e-05
-9.17311e-05
3.14288e-05
-0.000107458
3.21991e-05
-0.000123207
3.27009e-05
-0.000138584
3.25701e-05
-0.000152961
3.13057e-05
-0.000165461
2.8306e-05
-0.000174998
2.29751e-05
-0.000180406
1.48974e-05
-0.000180628
4.02955e-06
-0.000174959
-9.10668e-06
-0.000163198
-2.34588e-05
-0.000145674
-3.76017e-05
-0.000123206
-4.98945e-05
-9.71242e-05
-5.8649e-05
-6.93588e-05
-6.23031e-05
-4.24199e-05
-5.98226e-05
-1.90406e-05
-5.12795e-05
-1.40077e-06
-3.82869e-05
9.63542e-06
-2.36299e-05
1.45971e-05
-9.92305e-06
1.4682e-05
1.56423e-06
1.09628e-05
1.06829e-05
4.83654e-06
1.62463e-05
1.25223e-05
-7.86189e-06
2.00646e-05
-2.18582e-05
3.72104e-05
-3.79629e-05
4.3641e-05
-5.48961e-05
4.60083e-05
-7.2306e-05
4.72886e-05
-9.01024e-05
4.84168e-05
-0.000108208
4.95344e-05
-0.000126465
5.0456e-05
-0.000144571
5.08073e-05
-0.000162029
5.00278e-05
-0.000178108
4.73845e-05
-0.000191851
4.20496e-05
-0.000202157
3.32807e-05
-0.000207956
2.06962e-05
-0.000208477
4.55077e-06
-0.00020347
-1.41136e-05
-0.000193135
-3.37936e-05
-0.000177586
-5.3151e-05
-0.000156578
-7.09025e-05
-0.000129885
-8.53421e-05
-9.82457e-05
-9.39423e-05
-6.4188e-05
-9.38803e-05
-3.19579e-05
-8.35097e-05
-6.27613e-06
-6.39686e-05
9.79918e-06
-3.97052e-05
1.64492e-05
-1.65731e-05
1.62387e-05
1.77479e-06
1.17775e-05
1.51441e-05
5.06621e-06
2.29575e-05
1.75885e-05
-8.67321e-06
2.87378e-05
-2.39552e-05
5.24924e-05
-4.14902e-05
6.1176e-05
-5.99138e-05
6.44319e-05
-7.88659e-05
6.62407e-05
-9.82557e-05
6.78067e-05
-0.000118
6.92787e-05
-0.000137934
7.03898e-05
-0.000157755
7.06288e-05
-0.000176981
6.92537e-05
-0.00019492
6.53235e-05
-0.000210697
5.7827e-05
-0.000223421
4.60037e-05
-0.000232593
2.98688e-05
-0.000238607
1.05642e-05
-0.000242576
-1.01439e-05
-0.000245125
-3.1245e-05
-0.000244436
-5.384e-05
-0.000236312
-7.90265e-05
-0.00021639
-0.000105264
-0.000182818
-0.000127515
-0.000137465
-0.000139233
-8.62954e-05
-0.000134679
-3.85903e-05
-0.000111674
-3.89801e-06
-7.43975e-05
1.33946e-05
-3.38657e-05
1.68832e-05
-1.71381e-06
1.26746e-05
1.93527e-05
5.37284e-06
3.02593e-05
2.29613e-05
-9.01083e-06
3.77487e-05
-2.48771e-05
6.83587e-05
-4.31135e-05
7.94124e-05
-6.23116e-05
8.363e-05
-8.21188e-05
8.60479e-05
-0.000102473
8.8161e-05
-0.000123336
9.0142e-05
-0.000144611
9.16638e-05
-0.00016609
9.2108e-05
-0.000187423
9.05874e-05
-0.000208105
8.60046e-05
-0.0002276
7.73223e-05
-0.00024588
6.42843e-05
-0.000264444
4.84321e-05
-0.00028677
3.28904e-05
-0.000315917
1.90037e-05
-0.000350269
3.10686e-06
-0.000380482
-2.36271e-05
-0.000395429
-6.40797e-05
-0.00038801
-0.000112683
-0.000355059
-0.000160466
-0.000297132
-0.000197161
-0.000219628
-0.000212183
-0.000134166
-0.000197136
-5.82656e-05
-0.000150298
-8.97482e-06
-8.31565e-05
1.06457e-05
-2.13343e-05
1.17391e-05
1.82593e-05
5.3162e-06
3.66822e-05
2.82775e-05
-8.98231e-06
4.6731e-05
-2.49094e-05
8.42858e-05
-4.33174e-05
9.78205e-05
-6.27849e-05
0.000103097
-8.29812e-05
0.000106244
-0.000103901
0.000109081
-0.000125598
0.000111839
-0.000148106
0.000114172
-0.000171404
0.000115406
-0.000195394
0.000114578
-0.000219978
0.000110588
-0.000245561
0.000102905
-0.000274527
9.32505e-05
-0.000312967
8.68724e-05
-0.000368414
8.83371e-05
-0.000440682
9.1272e-05
-0.000514842
7.72664e-05
-0.000572773
3.43036e-05
-0.000605087
-3.17654e-05
-0.000608353
-0.000109417
-0.000580524
-0.000188295
-0.000520175
-0.000257509
-0.000427164
-0.000305194
-0.000306944
-0.000317355
-0.000177339
-0.000279903
-6.95005e-05
-0.000190995
-9.66716e-06
-8.11677e-05
7.12465e-06
1.4675e-06
4.68343e-06
3.91234e-05
3.2961e-05
-8.66142e-06
5.53924e-05
-2.42407e-05
9.98651e-05
-4.24099e-05
0.00011599
-6.17563e-05
0.000122444
-8.19794e-05
0.000126467
-0.000103148
0.00013025
-0.000125441
0.000134131
-0.000149073
0.000137804
-0.000174283
0.000140616
-0.000201368
0.000141663
-0.00023105
0.00014027
-0.00026592
0.000137775
-0.000313189
0.00014052
-0.000384082
0.000157765
-0.000481711
0.000185966
-0.000587802
0.000197363
-0.000675493
0.000164957
-0.000735261
9.40718e-05
-0.000768191
1.16469e-06
-0.00077779
-9.98183e-05
-0.000763285
-0.0002028
-0.000720628
-0.000300166
-0.000643114
-0.000382708
-0.000522725
-0.000437745
-0.000362495
-0.000440133
-0.000188059
-0.000365431
-5.39986e-05
-0.000215229
-1.03726e-06
-5.14938e-05
3.48827e-06
3.45979e-05
3.64492e-05
-8.09508e-06
6.34875e-05
-2.29842e-05
0.000114754
-4.0565e-05
0.00013357
-5.94454e-05
0.000141324
-7.93527e-05
0.000146375
-0.000100433
0.000151331
-0.000123
0.000156698
-0.000147477
0.000162282
-0.00017442
0.000167559
-0.000204711
0.000171953
-0.000240557
0.000176116
-0.000288094
0.000185312
-0.000358961
0.000211387
-0.000460777
0.000259581
-0.000578097
0.000303286
-0.000677957
0.000297224
-0.000744642
0.000231642
-0.000785378
0.000134807
-0.000806998
2.27855e-05
-0.000814135
-9.26819e-05
-0.000812068
-0.000204867
-0.000797666
-0.000314568
-0.000763315
-0.000417058
-0.000690775
-0.000510284
-0.000560074
-0.000570834
-0.000365033
-0.000560471
-0.000151289
-0.000428973
-1.84033e-05
-0.000184379
4.30213e-06
1.18925e-05
4.07514e-05
-7.31522e-06
7.08027e-05
-2.12057e-05
0.000128645
-3.78732e-05
0.000150238
-5.59483e-05
0.000159399
-7.51694e-05
0.000165596
-9.57442e-05
0.000171905
-0.000118107
0.000179061
-0.000142884
0.000187059
-0.000170983
0.000195658
-0.000204064
0.000205035
-0.000246171
0.000218223
-0.000306068
0.000245208
-0.000393551
0.00029887
-0.000502897
0.000368928
-0.000604567
0.000404955
-0.000671641
0.000364298
-0.000707106
0.000267107
-0.000725366
0.000153067
-0.000732853
3.02732e-05
-0.000732942
-9.25931e-05
-0.00072887
-0.000208938
-0.00072606
-0.000317379
-0.000726368
-0.00041675
-0.000717192
-0.000519461
-0.000666593
-0.000621433
-0.000534024
-0.00069304
-0.000310704
-0.000652293
-7.75244e-05
-0.000417559
5.24871e-06
-7.08806e-05
4.60001e-05
-6.34781e-06
7.71505e-05
-1.8953e-05
0.00014125
-3.43922e-05
0.000165677
-5.13117e-05
0.000176319
-6.94336e-05
0.000183718
-8.89908e-05
0.000191463
-0.000110497
0.000200567
-0.000134726
0.000211288
-0.000162891
0.000223822
-0.000197314
0.000239458
-0.000243014
0.000263923
-0.000308034
0.000310228
-0.000395373
0.000386209
-0.000489161
0.000462716
-0.000560946
0.000476741
-0.00059994
0.000403291
-0.000622206
0.000289373
-0.000640325
0.000171185
-0.00065163
4.15788e-05
-0.000650728
-9.34951e-05
-0.000635958
-0.000223709
-0.000616487
-0.00033685
-0.000606771
-0.000426466
-0.000616429
-0.000509804
-0.000630501
-0.00060736
-0.00059838
-0.000725161
-0.000455448
-0.000795225
-0.000193615
-0.000679392
-3.42097e-06
-0.000261074
4.25791e-05
-5.22334e-06
8.23739e-05
-1.6281e-05
0.000152307
-3.01892e-05
0.000179585
-4.56006e-05
0.00019173
-6.21829e-05
0.0002003
-8.01429e-05
0.000209423
-0.000100003
0.000220427
-0.000122587
0.000233872
-0.000149222
0.000250457
-0.000182347
0.000272583
-0.000226383
0.000307959
-0.000286274
0.000370119
-0.000359436
0.000459371
-0.000429261
0.000532541
-0.00047823
0.000525709
-0.000509755
0.000434817
-0.000542233
0.000321851
-0.000578821
0.000207774
-0.000605414
6.81711e-05
-0.000611157
-8.77514e-05
-0.000594338
-0.000240528
-0.000559646
-0.000371542
-0.000521049
-0.000465062
-0.000502198
-0.000528655
-0.000517782
-0.000591777
-0.000541295
-0.000701649
-0.00050005
-0.000836471
-0.000323711
-0.000855731
-5.46735e-05
-0.000530112
-1.20943e-05
-3.98424e-06
8.63581e-05
-1.32702e-05
0.000161593
-2.53704e-05
0.000191686
-3.89367e-05
0.000205296
-5.35461e-05
0.000214909
-6.93207e-05
0.000225197
-8.67077e-05
0.000237814
-0.000106445
0.00025361
-0.000129701
0.000273713
-0.000158383
0.000301265
-0.000195177
0.000344753
-0.000241709
0.000416651
-0.000293934
0.000511596
-0.000341357
0.000579964
-0.000378052
0.000562405
-0.000412648
0.000469414
-0.000455429
0.000364631
-0.000499782
0.000252127
-0.00053077
9.9159e-05
-0.000540238
-7.82839e-05
-0.000528672
-0.000252094
-0.000497677
-0.000402537
-0.000454412
-0.000508327
-0.000416467
-0.0005666
-0.000410168
-0.000598075
-0.000442227
-0.00066959
-0.000464097
-0.000814601
-0.00037611
-0.000943718
-0.000124496
-0.000781726
-0.00013659
-2.68614e-06
8.90443e-05
-1.00351e-05
0.000168942
-2.01021e-05
0.000201753
-3.15407e-05
0.000216735
-4.38012e-05
0.00022717
-5.6867e-05
0.000238263
-7.1032e-05
0.000251979
-8.68234e-05
0.000269401
-0.000105015
0.000291905
-0.000126571
0.000322821
-0.0001521
0.000370281
-0.000180698
0.000445249
-0.000209803
0.0005407
-0.000237078
0.000607239
-0.000264333
0.000589659
-0.000297406
0.000502487
-0.000336045
0.000403271
-0.000372365
0.000288447
-0.00039898
0.000125773
-0.000411603
-6.56606e-05
-0.000409697
-0.000253999
-0.000393016
-0.000419219
-0.000362859
-0.000538483
-0.000327824
-0.000601636
-0.000310247
-0.000615652
-0.000335765
-0.000644071
-0.000386043
-0.000764323
-0.000362436
-0.000967325
-0.000194282
-0.00094988
-0.000330872
-1.39821e-06
9.04425e-05
-6.72627e-06
0.00017427
-1.45999e-05
0.000209626
-2.36979e-05
0.000225833
-3.33321e-05
0.000236804
-4.33091e-05
0.00024824
-5.37129e-05
0.000262382
-6.47764e-05
0.000280465
-7.6774e-05
0.000303902
-8.96608e-05
0.000335708
-0.000102201
0.000382822
-0.000111655
0.000454704
-0.000117238
0.000546284
-0.000124082
0.000614083
-0.00013888
0.000604456
-0.000162234
0.000525842
-0.00018668
0.000427716
-0.000208611
0.000310379
-0.000228734
0.000145896
-0.00024431
-5.0085e-05
-0.000253839
-0.00024447
-0.000255237
-0.000417821
-0.000246785
-0.000546935
-0.000230738
-0.000617682
-0.000218978
-0.000627412
-0.000236201
-0.000626848
-0.000293182
-0.000707343
-0.000317261
-0.000943246
-0.000215628
-0.00105151
-0.0005465
-2.08879e-07
9.06513e-05
-3.51604e-06
0.000177578
-9.14558e-06
0.000215256
-1.58173e-05
0.000232505
-2.26832e-05
0.00024367
-2.9367e-05
0.000254924
-3.57354e-05
0.000268751
-4.17158e-05
0.000286445
-4.71126e-05
0.000309299
-5.10879e-05
0.000339683
-5.10862e-05
0.00038282
-4.28624e-05
0.00044648
-2.58375e-05
0.000529259
-1.0517e-05
0.000598763
-8.41203e-06
0.000602351
-1.61118e-05
0.000533541
-2.39422e-05
0.000435547
-3.05775e-05
0.000317014
-4.1467e-05
0.000156785
-5.77556e-05
-3.37964e-05
-7.50871e-05
-0.000227138
-9.23393e-05
-0.000400569
-0.000107375
-0.000531899
-0.000117457
-0.0006076
-0.000128506
-0.000616364
-0.000150007
-0.000605347
-0.00020465
-0.0006527
-0.000248956
-0.00089894
-0.00019077
-0.0011097
-0.00073727
8.49052e-07
8.98023e-05
-5.70226e-07
0.000178997
-4.01218e-06
0.000218698
-8.25778e-06
0.00023675
-1.23539e-05
0.000247766
-1.57596e-05
0.000258329
-1.81338e-05
0.000271125
-1.91403e-05
0.000287452
-1.82403e-05
0.000308399
-1.41458e-05
0.000335589
-3.73133e-06
0.000372405
1.83905e-05
0.000424358
5.4404e-05
0.000493245
9.35984e-05
0.000559569
0.000118061
0.000577889
0.00012599
0.000525612
0.000131267
0.00043027
0.000137691
0.00031059
0.000135016
0.00015946
0.000120277
-1.9058e-05
9.58707e-05
-0.000202732
6.50924e-05
-0.000369791
3.11607e-05
-0.000497967
-5.07757e-06
-0.000571362
-3.81154e-05
-0.000583326
-7.40963e-05
-0.000569366
-0.000134231
-0.000592564
-0.000190101
-0.00084307
-0.000160912
-0.00113889
-0.000898182
1.64367e-06
8.81586e-05
1.8422e-06
0.000178798
3.72616e-07
0.000220167
-1.57611e-06
0.000238699
-3.01863e-06
0.000249209
-3.29238e-06
0.000258603
-1.92107e-06
0.000269754
1.59261e-06
0.000283938
8.01841e-06
0.000301973
1.87525e-05
0.000324855
3.67844e-05
0.000354373
6.74185e-05
0.000393724
0.000115577
0.000445086
0.000174997
0.000500149
0.000224808
0.000528078
0.000253526
0.000496893
0.000269859
0.000413937
0.000282405
0.000298044
0.000285391
0.000156474
0.000273594
-7.26092e-06
0.000245629
-0.000174767
0.000205874
-0.000330036
0.000153715
-0.000445808
9.71727e-05
-0.00051482
3.94091e-05
-0.000525562
-1.38231e-05
-0.000516134
-7.58308e-05
-0.000530557
-0.000135309
-0.000783593
-0.000130165
-0.00114403
-0.00102835
2.14717e-06
8.60114e-05
3.62183e-06
0.000177324
3.92529e-06
0.000219864
4.04901e-06
0.000238575
4.991e-06
0.000248267
7.50026e-06
0.000256094
1.21506e-05
0.000265103
1.95234e-05
0.000276565
3.04017e-05
0.000291095
4.60888e-05
0.000309168
6.90175e-05
0.000331445
0.000103575
0.000359166
0.000155287
0.000393375
0.000224351
0.000431085
0.000295411
0.000457018
0.000349202
0.000443103
0.000382443
0.000380696
0.000401702
0.000278785
0.000407285
0.000150891
0.000395602
4.42289e-06
0.000364351
-0.000143517
0.000315061
-0.000280745
0.000248939
-0.000379686
0.000175417
-0.000441298
9.94336e-05
-0.000449579
3.27965e-05
-0.000449497
-3.77993e-05
-0.000459961
-0.000100619
-0.000720773
-0.000109062
-0.00113559
-0.00113741
2.19428e-06
8.38172e-05
4.38415e-06
0.000175134
5.95886e-06
0.000218289
7.8108e-06
0.000236723
1.09193e-05
0.000245158
1.5958e-05
0.000251055
2.34554e-05
0.000257606
3.39731e-05
0.000266048
4.82332e-05
0.000276835
6.73126e-05
0.000290088
9.29711e-05
0.000305786
0.000128257
0.00032388
0.000177364
0.000344268
0.000243633
0.000364816
0.000320838
0.000379813
0.000392132
0.000371809
0.000444193
0.000328635
0.000475397
0.000247581
0.00048491
0.000141378
0.000473197
1.61363e-05
0.000437051
-0.000107371
0.000379116
-0.00022281
0.000302403
-0.000302973
0.000218355
-0.00035725
0.000134226
-0.00036545
6.30847e-05
-0.000378356
-7.61563e-06
-0.000389261
-7.31233e-05
-0.000655265
-9.41274e-05
-0.00111458
-0.00123154
1.87877e-06
8.19384e-05
4.30254e-06
0.00017271
6.78151e-06
0.00021581
1.00533e-05
0.000233452
1.48809e-05
0.000240331
2.19322e-05
0.000244004
3.1706e-05
0.000247832
4.46432e-05
0.00025311
6.13053e-05
0.000260173
8.24783e-05
0.000268915
0.000109302
0.000278962
0.0001436
0.000289582
0.000187757
0.000300112
0.000244629
0.000307943
0.00031299
0.000311452
0.000384229
0.000300569
0.000444051
0.000268813
0.00048436
0.000207272
0.000499359
0.000126378
0.000489435
2.60612e-05
0.000452481
-7.04177e-05
0.000393074
-0.000163403
0.000315957
-0.000225856
0.00023395
-0.000275243
0.000151132
-0.000282632
7.92497e-05
-0.000306473
6.60974e-06
-0.000316621
-6.10241e-05
-0.000587632
-8.93146e-05
-0.00108629
-0.00132085
6.18314e-07
8.13201e-05
2.19877e-06
0.00017113
4.82516e-06
0.000213184
9.20847e-06
0.000229068
1.5805e-05
0.000233734
2.4912e-05
0.000234897
3.67574e-05
0.000235987
5.1669e-05
0.000238199
7.00313e-05
0.00024181
9.23689e-05
0.000246578
0.000119332
0.000251999
0.000151869
0.000257045
0.000190959
0.000261022
0.000237903
0.000260999
0.000292377
0.000256979
0.000351062
0.000241885
0.000404235
0.00021564
0.000443636
0.00016787
0.000460984
0.000109031
0.000453967
3.30775e-05
0.000421379
-3.78297e-05
0.000368405
-0.000110429
0.00029949
-0.00015694
0.000226646
-0.000202399
0.000152126
-0.000208111
8.67526e-05
-0.0002411
1.76048e-05
-0.000247473
-4.98809e-05
-0.000520146
-8.62974e-05
-0.00104988
-0.00140715
-9.54266e-07
8.22743e-05
-4.21835e-07
0.000170597
2.01013e-06
0.000210752
6.96109e-06
0.000224117
1.46051e-05
0.00022609
2.51315e-05
0.00022437
3.86083e-05
0.00022251
5.50483e-05
0.000221759
7.46065e-05
0.000222252
9.75212e-05
0.000223663
0.000124077
0.000225443
0.000154631
0.000226491
0.000189357
0.000226297
0.000228381
0.000221974
0.000270949
0.00021441
0.000315317
0.000197517
0.000355923
0.000175034
0.000387056
0.000136737
0.000401864
9.42227e-05
0.000396813
3.81293e-05
0.000370665
-1.16821e-05
0.000327657
-6.74209e-05
0.000271139
-0.000100423
0.000210127
-0.000141387
0.000145375
-0.000143359
8.63394e-05
-0.000182065
2.39578e-05
-0.000185091
-4.18841e-05
-0.000454304
-8.04018e-05
-0.00101136
-0.00148755
-5.45288e-06
8.77272e-05
-8.49307e-06
0.000173637
-6.88083e-06
0.00020914
-4.94137e-07
0.000217731
9.35356e-06
0.000216242
2.22602e-05
0.000211464
3.76749e-05
0.000207095
5.56554e-05
0.000203778
7.62125e-05
0.000201695
9.9441e-05
0.000200435
0.000125362
0.000199522
0.000154
0.000197853
0.000185127
0.00019517
0.000218263
0.000188838
0.00025234
0.000180333
0.000285838
0.000164019
0.000315454
0.000145418
0.000337292
0.0001149
0.000347389
8.41256e-05
0.000342627
4.28914e-05
0.000322007
8.93819e-06
0.000287529
-3.29433e-05
0.000242334
-5.52276e-05
0.000190914
-8.99672e-05
0.000137586
-9.00309e-05
8.53262e-05
-0.000129805
3.37484e-05
-0.000133513
-2.96838e-05
-0.000390872
-7.05298e-05
-0.000970513
-0.00155808
-9.43402e-06
9.71612e-05
-1.39537e-05
0.000178157
-1.41707e-05
0.000209357
-8.08751e-06
0.000211647
2.47018e-06
0.000205685
1.66268e-05
0.000197307
3.36344e-05
0.000190088
5.29736e-05
0.000184439
7.44878e-05
0.000180181
9.79919e-05
0.00017693
0.000123416
0.000174098
0.000150526
0.000170742
0.000178915
0.000166782
0.000207915
0.000159837
0.000236311
0.000151938
0.000262743
0.000137586
0.000285015
0.000123146
0.00030026
9.96544e-05
0.000306409
7.7976e-05
0.000301157
4.81438e-05
0.000284375
2.57206e-05
0.000255595
-4.16401e-06
0.000219352
-1.89842e-05
0.000173802
-4.44178e-05
0.000130602
-4.68305e-05
7.91523e-05
-7.83554e-05
4.41809e-05
-9.85421e-05
-2.35852e-05
-0.000323106
-7.44381e-05
-0.00091966
-0.00163252
-2.76064e-05
0.000124768
-3.77109e-05
0.000188262
-3.70433e-05
0.000208689
-2.44317e-05
0.000199036
-9.51952e-06
0.000190772
9.29707e-06
0.000178491
2.87325e-05
0.000170652
5.00735e-05
0.000163098
7.2573e-05
0.000157681
9.65302e-05
0.000152973
0.00012148
0.000149148
0.000147503
0.000144719
0.000173713
0.000140572
0.000199858
0.000133693
0.000224394
0.000127402
0.000246402
0.000115578
0.00026416
0.000105388
0.000275584
8.82304e-05
0.000279543
7.40177e-05
0.000274077
5.36098e-05
0.000260369
3.94283e-05
0.000235683
2.05224e-05
0.000207219
9.47931e-06
0.000166371
-3.56956e-06
0.000133314
-1.37738e-05
8.15069e-05
-2.65479e-05
6.52302e-05
-8.22654e-05
-1.41874e-05
-0.000243688
-7.65547e-05
-0.000857293
-0.00170907
-3.03558e-05
0.000155123
-4.24617e-05
0.000200367
-4.59644e-05
0.000212192
-3.52741e-05
0.000188346
-1.95498e-05
0.000175048
-7.1808e-08
0.000159013
2.17706e-05
0.00014881
4.48818e-05
0.000139987
6.86507e-05
0.000133912
9.36119e-05
0.000128012
0.000118751
0.000124009
0.000144785
0.000118685
0.000169968
0.000115389
0.000195065
0.000108596
0.00021764
0.000104827
0.000237992
9.52255e-05
0.000253761
8.96194e-05
0.000264479
7.75128e-05
0.000268642
6.98545e-05
0.000265282
5.69699e-05
0.000256131
4.85789e-05
0.000237689
3.89648e-05
0.000218028
2.91402e-05
0.000185778
2.86798e-05
0.000163848
8.15622e-06
0.000119414
1.78865e-05
0.000114234
-7.70852e-05
6.02812e-05
-0.000189735
8.75212e-06
-0.000805764
-0.00170032
-0.000123368
0.000278492
-9.86355e-05
0.000175635
-8.67889e-05
0.000200345
-4.97662e-05
0.000151323
-2.01911e-05
0.000145473
9.86597e-06
0.000128956
3.72625e-05
0.000121413
6.50466e-05
0.000112203
9.0852e-05
0.000108107
0.000118595
0.000100269
0.000144147
9.84575e-05
0.000171764
9.10685e-05
0.000196692
9.04607e-05
0.000222573
8.27151e-05
0.000245195
8.22048e-05
0.000266369
7.40515e-05
0.000283729
7.22589e-05
0.000296692
6.45503e-05
0.000306178
6.03684e-05
0.000307935
5.52131e-05
0.000309243
4.72707e-05
0.000299486
4.87213e-05
0.000295059
3.35677e-05
0.000276117
4.76214e-05
0.000269914
1.43597e-05
0.000251343
3.64577e-05
0.000236467
-6.22099e-05
0.000240515
-0.000193783
0.000165255
-0.000730504
-0.00153507
-5.5465e-06
0.000284038
-9.86856e-06
0.000179957
3.17198e-05
0.000158757
4.61941e-05
0.000136849
8.02083e-05
0.000111459
0.000112657
9.65066e-05
0.000146573
8.74979e-05
0.000181098
7.76774e-05
0.000216827
7.23786e-05
0.000252116
6.49798e-05
0.000288533
6.20406e-05
0.000323445
5.6156e-05
0.000359663
5.42429e-05
0.000392938
4.94403e-05
0.000427581
4.75614e-05
0.000457589
4.40439e-05
0.000488807
4.10408e-05
0.000513825
3.95319e-05
0.000539979
3.42152e-05
0.000559113
3.60788e-05
0.000579377
2.70067e-05
0.000594075
3.40231e-05
0.000608283
1.93598e-05
0.000624223
3.16809e-05
0.000627617
1.09657e-05
0.000647379
1.66964e-05
0.000613963
-2.8794e-05
0.000596234
-0.000176055
0.000389679
-0.000523948
-0.00114539
0.000284038
0.000463995
0.000622752
0.0007596
0.000871059
0.000967566
0.00105506
0.00113274
0.00120512
0.0012701
0.00133214
0.0013883
0.00144254
0.00149198
0.00153954
0.00158358
0.00162463
0.00166416
0.00169837
0.00173445
0.00176146
0.00179548
0.00181484
0.00184652
0.00185749
0.00187418
0.00184539
0.00166934
0.00114539
)
;

boundaryField
{
    movingWall
    {
        type            calculated;
        value           uniform 0;
    }
    fixedWalls
    {
        type            calculated;
        value           uniform 0;
    }
    frontAndBack
    {
        type            empty;
    }
}


// ************************************************************************* //
