/*--------------------------------*- C++ -*----------------------------------*\
| =========                 |                                                 |
| \\      /  F ield         | OpenFOAM: The Open Source CFD Toolbox           |
|  \\    /   O peration     | Version:  2406                                  |
|   \\  /    A nd           | Website:  www.openfoam.com                      |
|    \\/     M anipulation  |                                                 |
\*---------------------------------------------------------------------------*/
FoamFile
{
    version     2.0;
    format      ascii;
    arch        "LSB;label=32;scalar=64";
    class       volScalarField;
    location    "13.65";
    object      p;
}
// * * * * * * * * * * * * * * * * * * * * * * * * * * * * * * * * * * * * * //

dimensions      [0 2 -2 0 0 0 0];

internalField   nonuniform List<scalar> 
14400
(
-9.73736e-09
-9.18892e-07
-3.47226e-06
-7.656e-06
-1.29004e-05
-1.88186e-05
-2.51133e-05
-3.15841e-05
-3.81182e-05
-4.46663e-05
-5.12219e-05
-5.78029e-05
-6.44381e-05
-7.11571e-05
-7.79835e-05
-8.49306e-05
-9.19994e-05
-9.91781e-05
-0.000106442
-0.000113754
-0.000121067
-0.000128324
-0.00013546
-0.000142401
-0.00014907
-0.000155383
-0.000161251
-0.00016658
-0.000171275
-0.000175236
-0.000178359
-0.000180539
-0.000181668
-0.000181637
-0.000180335
-0.000177648
-0.000173464
-0.000167671
-0.000160157
-0.000150813
-0.000139534
-0.000126218
-0.00011077
-9.31017e-05
-7.31364e-05
-5.08071e-05
-2.60609e-05
1.13902e-06
3.08116e-05
6.29552e-05
9.75451e-05
0.000134531
0.000173836
0.000215352
0.00025894
0.000304428
0.000351609
0.000400259
0.000450076
0.000500762
0.000551978
0.000603353
0.00065449
0.000704969
0.000754354
0.000802199
0.000848053
0.000891468
0.000932008
0.000969258
0.00100283
0.00103236
0.00105756
0.00107816
0.00109396
0.00110481
0.00111065
0.00111147
0.00110732
0.00109832
0.00108466
0.00106659
0.00104438
0.0010184
0.000988994
0.000956583
0.000921584
0.000884431
0.000845559
0.000805398
0.000764367
0.000722865
0.000681268
0.000639924
0.000599151
0.000559236
0.000520429
0.000482925
0.000446945
0.000412639
0.000380122
0.000349494
0.000320834
0.000294198
0.000269625
0.000247143
0.000226769
0.000208515
0.000192388
0.000178397
0.000166549
0.000156849
0.0001493
0.000143889
0.000140572
0.000139244
0.000139688
0.000141488
0.000143965
0.000145956
8.91407e-07
-3.56995e-08
-2.3513e-06
-6.14251e-06
-1.09301e-05
-1.6366e-05
-2.22035e-05
-2.82722e-05
-3.44689e-05
-4.07438e-05
-4.70827e-05
-5.3493e-05
-5.99923e-05
-6.65995e-05
-7.33289e-05
-8.01866e-05
-8.7168e-05
-9.42572e-05
-0.000101427
-0.00010864
-0.000115847
-0.000122993
-0.000130014
-0.000136838
-0.000143387
-0.000149581
-0.000155333
-0.00016055
-0.000165139
-0.000169003
-0.000172039
-0.000174144
-0.000175213
-0.000175137
-0.000173806
-0.000171112
-0.000166941
-0.000161184
-0.000153732
-0.000144476
-0.000133312
-0.000120141
-0.00010487
-8.74131e-05
-6.7693e-05
-4.56452e-05
-2.12182e-05
5.62392e-06
3.4899e-05
6.66047e-05
0.000100716
0.000137183
0.00017593
0.000216848
0.000259803
0.000304624
0.000351109
0.000399009
0.000448076
0.000497996
0.000548431
0.000599017
0.000649365
0.000699064
0.000747683
0.000794785
0.000839927
0.000882668
0.00092258
0.000959254
0.000992307
0.00102139
0.00104621
0.0010665
0.00108208
0.00109279
0.00109857
0.00109941
0.00109536
0.00108655
0.00107315
0.00105541
0.00103362
0.0010081
0.000979222
0.000947388
0.000913008
0.00087651
0.000838319
0.000798858
0.000758539
0.000717752
0.000676866
0.000636225
0.000596138
0.000556886
0.000518714
0.000481857
0.000446476
0.000412721
0.000380726
0.00035059
0.000322388
0.000296176
0.000271993
0.000249866
0.00022981
0.000211833
0.000195941
0.000182132
0.000170406
0.000160758
0.000153175
0.00014763
0.000144068
0.00014238
0.000142363
0.000143679
0.000145953
0.000147948
3.4968e-06
2.24599e-06
-1.40051e-07
-3.66832e-06
-8.02318e-06
-1.29593e-05
-1.82942e-05
-2.38988e-05
-2.96908e-05
-3.56261e-05
-4.16874e-05
-4.7874e-05
-5.41931e-05
-6.06527e-05
-6.72575e-05
-7.40052e-05
-8.08845e-05
-8.78749e-05
-9.49458e-05
-0.000102057
-0.000109162
-0.000116202
-0.000123115
-0.000129831
-0.000136275
-0.000142366
-0.000148021
-0.000153151
-0.000157662
-0.000161461
-0.000164447
-0.000166521
-0.000167577
-0.00016751
-0.000166213
-0.000163577
-0.000159492
-0.000153851
-0.000146545
-0.000137468
-0.000126518
-0.000113597
-9.86114e-05
-8.14779e-05
-6.21207e-05
-4.04756e-05
-1.64917e-05
9.86643e-06
3.86168e-05
6.97575e-05
0.000103264
0.000139089
0.000177156
0.000217361
0.000259571
0.00030362
0.00034931
0.000396404
0.00044464
0.000493722
0.00054332
0.000593074
0.000642603
0.0006915
0.000739345
0.000785704
0.000830141
0.000872223
0.000911527
0.000947649
0.000980212
0.00100887
0.00103333
0.00105334
0.0010687
0.00107928
0.001085
0.00108586
0.00108191
0.00107326
0.00106011
0.00104269
0.00102127
0.000996197
0.000967826
0.000936549
0.000902774
0.000866922
0.000829413
0.000790663
0.000751075
0.000711035
0.000670904
0.000631019
0.000591684
0.000553176
0.000515736
0.00047958
0.000444874
0.000411777
0.000380411
0.000350872
0.000323233
0.000297549
0.000273857
0.00025218
0.00023253
0.000214912
0.000199323
0.000185755
0.000174195
0.000164627
0.000157024
0.000151345
0.00014753
0.000145478
0.000145018
0.000145927
0.000148214
0.000150427
7.85116e-06
6.05988e-06
3.21587e-06
-4.00728e-07
-4.65124e-06
-9.36394e-06
-1.44102e-05
-1.97044e-05
-2.51943e-05
-3.08535e-05
-3.66735e-05
-4.26562e-05
-4.88072e-05
-5.5131e-05
-6.16274e-05
-6.8289e-05
-7.51002e-05
-8.20363e-05
-8.90639e-05
-9.61411e-05
-0.000103218
-0.000110238
-0.000117138
-0.000123848
-0.000130294
-0.000136398
-0.000142077
-0.000147242
-0.000151805
-0.00015567
-0.000158742
-0.000160919
-0.000162101
-0.000162182
-0.000161056
-0.000158615
-0.000154752
-0.000149358
-0.000142326
-0.000133549
-0.000122926
-0.000110357
-9.57505e-05
-7.90205e-05
-6.00905e-05
-3.8895e-05
-1.53814e-05
1.0488e-05
3.87335e-05
6.93558e-05
0.000102334
0.000137622
0.00017515
0.000214817
0.000256492
0.000300016
0.000345192
0.000391795
0.00043956
0.000488194
0.000537371
0.000586738
0.000635911
0.000684488
0.000732048
0.000778158
0.000822381
0.000864281
0.000903435
0.000939436
0.000971903
0.00100049
0.0010249
0.00104487
0.00106021
0.00107077
0.00107649
0.00107736
0.00107342
0.00106481
0.0010517
0.00103433
0.00101299
0.000988011
0.000959758
0.000928625
0.000895024
0.000859375
0.000822102
0.00078362
0.000744333
0.000704625
0.000664855
0.000625359
0.000586437
0.000548361
0.000511369
0.000475667
0.000441431
0.000408807
0.000377912
0.000348836
0.000321651
0.000296405
0.000273131
0.000251847
0.00023256
0.000215267
0.000199959
0.000186621
0.000175233
0.00016577
0.000158202
0.000152488
0.000148578
0.000146401
0.000145836
0.000146764
0.000149494
0.000152218
1.34047e-05
1.09293e-05
7.38915e-06
3.48575e-06
-8.36757e-07
-5.47408e-06
-1.03473e-05
-1.54163e-05
-2.06636e-05
-2.6086e-05
-3.16899e-05
-3.74856e-05
-4.34822e-05
-4.96844e-05
-5.60902e-05
-6.26894e-05
-6.94631e-05
-7.63836e-05
-8.34147e-05
-9.05123e-05
-9.76251e-05
-0.000104695
-0.000111659
-0.000118448
-0.000124987
-0.0001312
-0.000137003
-0.000142312
-0.000147037
-0.000151084
-0.00015436
-0.000156764
-0.000158196
-0.000158552
-0.000157727
-0.000155612
-0.0001521
-0.000147083
-0.000140451
-0.000132099
-0.000121923
-0.000109823
-9.57041e-05
-7.94782e-05
-6.10662e-05
-4.03996e-05
-1.74223e-05
7.90732e-06
3.56137e-05
6.57021e-05
9.81564e-05
0.000132936
0.000169976
0.00020918
0.000250424
0.000293552
0.000338373
0.000384664
0.000432166
0.000480589
0.000529607
0.000578867
0.000627986
0.000676558
0.00072416
0.000770354
0.000814698
0.000856749
0.000896076
0.000932263
0.000964923
0.000993701
0.00101829
0.00103842
0.00105389
0.00106457
0.00107036
0.00107126
0.00106733
0.00105869
0.00104553
0.00102808
0.00100664
0.000981547
0.000953181
0.000921941
0.000888246
0.000852526
0.000815208
0.000776716
0.000737457
0.000697818
0.000658162
0.000618822
0.000580099
0.000542263
0.000505549
0.000470159
0.000436263
0.000404002
0.000373487
0.000344803
0.000318014
0.000293164
0.000270277
0.000249366
0.00023043
0.00021346
0.000198437
0.000185342
0.000174146
0.000164822
0.000157339
0.00015166
0.000147752
0.000145574
0.000145053
0.000146147
0.000149378
0.000152608
1.97157e-05
1.64445e-05
1.20609e-05
7.73804e-06
3.22057e-06
-1.44954e-06
-6.2401e-06
-1.11564e-05
-1.62174e-05
-2.14462e-05
-2.68677e-05
-3.25042e-05
-3.83716e-05
-4.44778e-05
-5.08214e-05
-5.73911e-05
-6.41662e-05
-7.11165e-05
-7.82037e-05
-8.53817e-05
-9.25977e-05
-9.97928e-05
-0.000106903
-0.000113858
-0.000120586
-0.000127008
-0.000133043
-0.000138606
-0.00014361
-0.000147961
-0.000151565
-0.000154324
-0.000156138
-0.000156902
-0.000156511
-0.000154857
-0.000151831
-0.000147325
-0.000141227
-0.00013343
-0.000123827
-0.000112316
-9.87994e-05
-8.31846e-05
-6.53888e-05
-4.53386e-05
-2.2973e-05
1.75517e-06
2.88762e-05
5.84017e-05
9.0322e-05
0.000124603
0.000161187
0.000199983
0.000240875
0.000283711
0.000328307
0.000374442
0.000421863
0.000470279
0.000519366
0.000568768
0.0006181
0.000666952
0.000714894
0.000761478
0.000806253
0.000848766
0.000888571
0.000925242
0.000958375
0.000987605
0.00101261
0.00103311
0.0010489
0.00105982
0.00106579
0.0010668
0.0010629
0.00105422
0.00104094
0.00102332
0.00100166
0.000976309
0.000947651
0.000916103
0.000882097
0.000846075
0.000808477
0.000769736
0.000730269
0.00069047
0.000650708
0.000611317
0.000572603
0.000534832
0.000498239
0.000463021
0.000429344
0.000397343
0.000367121
0.000338758
0.00031231
0.000287811
0.00026528
0.000244719
0.00022612
0.000209466
0.000194732
0.00018189
0.000170908
0.000161755
0.000154401
0.000148815
0.000144982
0.000142885
0.000142487
0.000143799
0.000147485
0.000151142
2.635e-05
2.22198e-05
1.69062e-05
1.20768e-05
7.27828e-06
2.49533e-06
-2.28424e-06
-7.11018e-06
-1.20383e-05
-1.71194e-05
-2.23986e-05
-2.79122e-05
-3.36854e-05
-3.97313e-05
-4.60508e-05
-5.2633e-05
-5.94563e-05
-6.64893e-05
-7.36919e-05
-8.10164e-05
-8.84087e-05
-9.58088e-05
-0.000103151
-0.000110367
-0.000117383
-0.00012412
-0.000130499
-0.000136434
-0.000141837
-0.000146617
-0.000150679
-0.000153926
-0.000156255
-0.000157565
-0.000157746
-0.000156692
-0.000154292
-0.000150433
-0.000145005
-0.000137896
-0.000128997
-0.000118201
-0.000105406
-9.05152e-05
-7.34405e-05
-5.41025e-05
-3.24334e-05
-8.37934e-06
1.80975e-05
4.70167e-05
7.83763e-05
0.000112151
0.00014829
0.000186713
0.000227308
0.000269931
0.000314405
0.000360512
0.000408003
0.000456588
0.000505943
0.000555709
0.000605496
0.000654887
0.000703441
0.000750702
0.000796203
0.000839475
0.000880058
0.000917505
0.000951397
0.000981349
0.00100702
0.00102812
0.00104443
0.00105577
0.00106206
0.00106328
0.00105948
0.00105079
0.00103739
0.00101956
0.000997601
0.000971878
0.000942795
0.000910782
0.000876289
0.000839774
0.000801695
0.0007625
0.000722618
0.000682457
0.00064239
0.000602763
0.000563881
0.000526015
0.000489395
0.000454219
0.000420646
0.000388805
0.000358792
0.00033068
0.000304514
0.000280321
0.000258109
0.000237872
0.000219594
0.000203248
0.000188802
0.000176221
0.00016547
0.000156513
0.000149323
0.000143876
0.000140166
0.0001382
0.000137964
0.000139503
0.00014357
0.000147566
3.28918e-05
2.78747e-05
2.15882e-05
1.62031e-05
1.10708e-05
6.12164e-06
1.30082e-06
-3.48482e-06
-8.32752e-06
-1.33057e-05
-1.84855e-05
-2.39183e-05
-2.96394e-05
-3.56683e-05
-4.20094e-05
-4.86534e-05
-5.55787e-05
-6.27533e-05
-7.0136e-05
-7.76779e-05
-8.53237e-05
-9.30123e-05
-0.000100678
-0.000108251
-0.000115656
-0.000122817
-0.000129652
-0.000136077
-0.000142003
-0.000147339
-0.000151989
-0.000155856
-0.000158838
-0.000160829
-0.000161722
-0.000161406
-0.00015977
-0.000156698
-0.000152077
-0.000145791
-0.000137728
-0.000127776
-0.000115828
-0.000101783
-8.55436e-05
-6.70252e-05
-4.61521e-05
-2.28619e-05
2.8921e-06
3.11385e-05
6.18853e-05
9.51169e-05
0.000130792
0.000168839
0.000209156
0.000251607
0.00029602
0.000342185
0.000389854
0.00043874
0.000488518
0.000538827
0.00058927
0.000639422
0.000688831
0.000737025
0.000783523
0.000827838
0.000869486
0.000908002
0.000942943
0.000973901
0.00100051
0.00102247
0.00103953
0.00105151
0.0010583
0.00105988
0.0010563
0.00104768
0.00103422
0.00101619
0.000993908
0.000967763
0.000938172
0.000905586
0.000870476
0.000833322
0.000794602
0.000754784
0.000714316
0.000673619
0.00063308
0.000593053
0.00055385
0.000515745
0.00047897
0.000443718
0.000410146
0.000378374
0.000348494
0.000320567
0.00029463
0.0002707
0.000248774
0.000228837
0.000210862
0.000194814
0.000180653
0.000168338
0.000157829
0.000149087
0.000142086
0.000136806
0.000133251
0.000131442
0.00013138
0.00013313
0.000137498
0.00014175
3.89461e-05
3.30353e-05
2.57621e-05
1.97998e-05
1.43062e-05
9.15839e-06
4.25993e-06
-5.24784e-07
-5.32354e-06
-1.02419e-05
-1.53666e-05
-2.07642e-05
-2.64804e-05
-3.25416e-05
-3.89564e-05
-4.57175e-05
-5.28043e-05
-6.01846e-05
-6.78166e-05
-7.56505e-05
-8.36301e-05
-9.16936e-05
-9.97743e-05
-0.000107802
-0.000115701
-0.000123394
-0.000130799
-0.000137831
-0.000144401
-0.000150418
-0.000155784
-0.000160402
-0.000164168
-0.000166975
-0.000168715
-0.000169274
-0.000168538
-0.00016639
-0.000162713
-0.000157387
-0.000150296
-0.000141324
-0.000130357
-0.000117287
-0.000102012
-8.4438e-05
-6.44807e-05
-4.20686e-05
-1.71448e-05
1.033e-05
4.03748e-05
7.29854e-05
0.000108131
0.000145753
0.000185758
0.000228021
0.000272378
0.000318625
0.000366521
0.00041578
0.000466079
0.000517052
0.000568299
0.000619385
0.000669847
0.000719198
0.000766938
0.000812558
0.000855554
0.000895433
0.000931726
0.000963999
0.000991861
0.00101498
0.00103308
0.00104596
0.00105351
0.00105567
0.0010525
0.0010441
0.0010307
0.00101255
0.00099
0.000963445
0.000933325
0.000900115
0.000864311
0.000826418
0.000786941
0.000746371
0.000705178
0.000663803
0.00062265
0.000582084
0.000542428
0.00050396
0.000466914
0.000431484
0.00039782
0.000366039
0.000336223
0.000308423
0.000282668
0.000258961
0.000237291
0.00021763
0.000199942
0.000184183
0.000170304
0.000158256
0.000147994
0.000139479
0.000132682
0.000127586
0.000124202
0.000122558
0.000122666
0.000124601
0.000129199
0.000133637
4.41302e-05
3.73326e-05
2.90782e-05
2.25356e-05
1.66701e-05
1.13059e-05
6.30483e-06
1.48975e-06
-3.30177e-06
-8.20142e-06
-1.33159e-05
-1.87262e-05
-2.44884e-05
-3.06356e-05
-3.71808e-05
-4.41192e-05
-5.14314e-05
-5.90855e-05
-6.70393e-05
-7.52428e-05
-8.36388e-05
-9.21647e-05
-0.000100753
-0.000109333
-0.000117828
-0.00012616
-0.000134246
-0.000142
-0.000149333
-0.000156151
-0.000162357
-0.000167851
-0.000172529
-0.000176281
-0.000178998
-0.000180564
-0.000180863
-0.000179775
-0.000177179
-0.000172953
-0.000166976
-0.000159126
-0.000149286
-0.00013734
-0.000123179
-0.0001067
-8.78106e-05
-6.64277e-05
-4.24839e-05
-1.59281e-05
1.32713e-05
4.51228e-05
7.96092e-05
0.000116684
0.000156267
0.000198245
0.000242465
0.000288734
0.000336815
0.000386431
0.00043726
0.000488938
0.000541059
0.000593183
0.000644836
0.000695518
0.000744708
0.000791878
0.000836496
0.000878042
0.000916017
0.000949952
0.000979426
0.00100407
0.00102358
0.00103773
0.00104638
0.00104945
0.00104699
0.00103909
0.00102597
0.00100789
0.000985215
0.000958352
0.000927765
0.000893954
0.000857444
0.000818771
0.000778469
0.000737059
0.000695039
0.000652874
0.00061099
0.000569768
0.000529544
0.000490605
0.000453188
0.000417487
0.00038365
0.000351788
0.000321974
0.000294251
0.000268634
0.000245116
0.000223674
0.00020427
0.000186854
0.000171373
0.000157769
0.000145988
0.000135977
0.000127693
0.000121106
0.000116202
0.000112993
0.000111513
0.00011178
0.000113873
0.000118645
0.000123217
4.80681e-05
4.03996e-05
3.11814e-05
2.40674e-05
1.78312e-05
1.22428e-05
7.12247e-06
2.25176e-06
-2.56535e-06
-7.48559e-06
-1.26345e-05
-1.81066e-05
-2.39678e-05
-3.02575e-05
-3.6993e-05
-4.41721e-05
-5.17765e-05
-5.97749e-05
-6.81253e-05
-7.6777e-05
-8.56725e-05
-9.47483e-05
-0.000103936
-0.000113164
-0.000122355
-0.000131429
-0.000140302
-0.000148888
-0.000157095
-0.000164829
-0.000171991
-0.00017848
-0.000184189
-0.000189009
-0.000192829
-0.00019553
-0.000196995
-0.000197103
-0.00019573
-0.000192751
-0.000188041
-0.000181475
-0.000172929
-0.000162283
-0.00014942
-0.000134229
-0.000116607
-9.64614e-05
-7.37132e-05
-4.82981e-05
-2.0171e-05
1.06912e-05
4.4286e-05
8.05822e-05
0.000119516
0.000160988
0.000204861
0.000250954
0.000299045
0.000348865
0.000400101
0.000452394
0.000505341
0.000558499
0.000611388
0.000663496
0.000714289
0.000763216
0.000809721
0.000853252
0.000893276
0.000929287
0.000960823
0.000987474
0.0010089
0.00102483
0.00103508
0.00103956
0.00103826
0.0010313
0.00101885
0.00100119
0.000978686
0.000951757
0.000920889
0.00088661
0.000849478
0.000810063
0.000768937
0.000726655
0.000683751
0.000640721
0.000598017
0.000556044
0.000515155
0.000475648
0.000437769
0.000401714
0.000367629
0.000335621
0.000305753
0.000278058
0.000252541
0.000229182
0.000207944
0.000188776
0.000171619
0.000156406
0.000143072
0.000131552
0.00012179
0.000113738
0.000107363
0.000102651
9.96153e-05
9.82928e-05
9.87045e-05
0.000100931
0.000105835
0.000110503
5.03864e-05
4.18686e-05
3.17117e-05
2.4043e-05
1.74445e-05
1.1631e-05
6.37999e-06
1.43264e-06
-3.43991e-06
-8.41826e-06
-1.36455e-05
-1.9229e-05
-2.5243e-05
-3.17332e-05
-3.87205e-05
-4.62049e-05
-5.41698e-05
-6.25841e-05
-7.14061e-05
-8.05847e-05
-9.00617e-05
-9.9773e-05
-0.000109649
-0.000119617
-0.000129598
-0.000139511
-0.000149272
-0.000158791
-0.000167975
-0.00017673
-0.000184956
-0.000192549
-0.000199403
-0.000205408
-0.00021045
-0.000214414
-0.000217179
-0.000218623
-0.000218624
-0.000217053
-0.000213785
-0.000208692
-0.000201645
-0.00019252
-0.000181194
-0.000167548
-0.00015147
-0.000132859
-0.000111623
-8.76842e-05
-6.0984e-05
-3.14832e-05
8.32756e-07
3.59507e-05
7.3826e-05
0.000114379
0.000157492
0.000203005
0.000250716
0.000300375
0.000351685
0.000404302
0.000457836
0.000511851
0.000565869
0.000619376
0.000671829
0.00072266
0.000771291
0.000817138
0.000859632
0.000898223
0.000932401
0.000961703
0.000985733
0.00100417
0.00101677
0.0010234
0.00102403
0.0010187
0.00100758
0.000990946
0.000969143
0.000942609
0.000911846
0.00087741
0.000839893
0.000799905
0.00075806
0.000714961
0.000671182
0.00062726
0.000583685
0.000540891
0.000499257
0.000459098
0.000420674
0.000384186
0.000349781
0.000317562
0.000287585
0.000259873
0.000234417
0.000211186
0.000190128
0.000171179
0.000154265
0.00013931
0.000126237
0.000114973
0.000105455
9.76303e-05
9.14631e-05
8.69376e-05
8.40684e-05
8.28933e-05
8.34355e-05
8.57768e-05
9.07828e-05
9.55213e-05
5.07127e-05
4.13708e-05
3.03052e-05
2.2103e-05
1.51549e-05
9.11894e-06
3.72949e-06
-1.31275e-06
-6.26842e-06
-1.13409e-05
-1.66896e-05
-2.24332e-05
-2.8654e-05
-3.54026e-05
-4.27032e-05
-5.0558e-05
-5.89512e-05
-6.78525e-05
-7.72198e-05
-8.70019e-05
-9.71397e-05
-0.000107568
-0.000118217
-0.00012901
-0.00013987
-0.000150712
-0.00016145
-0.000171995
-0.000182251
-0.000192124
-0.000201511
-0.00021031
-0.000218415
-0.000225715
-0.0002321
-0.000237454
-0.00024166
-0.000244597
-0.000246142
-0.000246171
-0.000244556
-0.000241171
-0.000235886
-0.000228574
-0.000219108
-0.000207364
-0.000193224
-0.000176577
-0.000157322
-0.000135369
-0.000110645
-8.30926e-05
-5.26796e-05
-1.93973e-05
1.67335e-05
5.56595e-05
9.7291e-05
0.000141499
0.000188113
0.000236915
0.00028764
0.000339976
0.00039356
0.00044798
0.000502778
0.000557452
0.000611461
0.000664233
0.000715172
0.000763669
0.000809115
0.000850913
0.000888492
0.000921324
0.00094894
0.00097094
0.000987013
0.000996943
0.00100062
0.00099805
0.000989346
0.000974739
0.000954561
0.000929244
0.000899299
0.000865306
0.000827892
0.000787713
0.000745434
0.000701712
0.000657177
0.000612421
0.000567983
0.00052434
0.000481905
0.000441026
0.000401979
0.000364978
0.000330178
0.000297678
0.000267531
0.00023975
0.000214314
0.000191175
0.00017027
0.000151517
0.00013483
0.000120119
0.000107297
9.62798e-05
8.69972e-05
7.93914e-05
7.34231e-05
6.90749e-05
6.63613e-05
6.53215e-05
6.59798e-05
6.84193e-05
7.35082e-05
7.83019e-05
4.86746e-05
3.85363e-05
2.65948e-05
1.78827e-05
1.05999e-05
4.34633e-06
-1.18769e-06
-6.34139e-06
-1.14063e-05
-1.66074e-05
-2.21193e-05
-2.8071e-05
-3.45512e-05
-4.16152e-05
-4.92897e-05
-5.75784e-05
-6.64663e-05
-7.59232e-05
-8.59068e-05
-9.63653e-05
-0.000107239
-0.000118461
-0.000129959
-0.000141657
-0.000153475
-0.000165326
-0.000177124
-0.000188776
-0.000200188
-0.000211264
-0.000221903
-0.000232003
-0.000241461
-0.00025017
-0.000258022
-0.000264907
-0.000270711
-0.000275321
-0.000278617
-0.000280482
-0.000280792
-0.000279425
-0.000276254
-0.000271153
-0.000263997
-0.000254662
-0.000243027
-0.000228976
-0.000212401
-0.000193201
-0.000171291
-0.000146598
-0.000119067
-8.8665e-05
-5.53811e-05
-1.92336e-05
1.9729e-05
6.1423e-05
0.000105727
0.000152478
0.000201466
0.000252434
0.000305074
0.000359026
0.000413875
0.000469158
0.000524358
0.000578916
0.000632234
0.000683686
0.000732624
0.0007784
0.000820374
0.000857933
0.00089051
0.000917601
0.000938783
0.000953727
0.000962218
0.000964156
0.000959573
0.000948625
0.000931596
0.000908885
0.000880996
0.000848521
0.000812116
0.000772487
0.000730357
0.000686452
0.000641475
0.000596089
0.000550901
0.000506453
0.000463211
0.000421566
0.000381829
0.000344237
0.000308959
0.0002761
0.00024571
0.000217794
0.000192321
0.00016923
0.00014844
0.000129854
0.00011337
9.88837e-05
8.62945e-05
7.55095e-05
6.64486e-05
5.90483e-05
5.32655e-05
4.90807e-05
4.65085e-05
4.55893e-05
4.63493e-05
4.8873e-05
5.40322e-05
5.88726e-05
4.39001e-05
3.29947e-05
2.02121e-05
1.10145e-05
3.41276e-06
-3.05313e-06
-8.73707e-06
-1.40179e-05
-1.92171e-05
-2.45802e-05
-3.02956e-05
-3.65013e-05
-4.32921e-05
-5.07264e-05
-5.8833e-05
-6.76166e-05
-7.70625e-05
-8.71402e-05
-9.78069e-05
-0.00010901
-0.000120688
-0.000132772
-0.000145191
-0.000157864
-0.000170709
-0.00018364
-0.000196568
-0.0002094
-0.000222042
-0.0002344
-0.000246375
-0.00025787
-0.000268786
-0.000279023
-0.000288481
-0.000297059
-0.000304653
-0.00031116
-0.000316472
-0.000320482
-0.000323078
-0.000324147
-0.000323574
-0.000321243
-0.000317036
-0.000310837
-0.000302529
-0.000291999
-0.000279137
-0.00026384
-0.000246011
-0.000225562
-0.000202415
-0.000176504
-0.000147781
-0.000116213
-8.17903e-05
-4.45277e-05
-4.46942e-06
3.83058e-05
8.36801e-05
0.000131489
0.00018152
0.000233503
0.000287109
0.000341949
0.000397567
0.000453447
0.000509012
0.000563632
0.000616635
0.000667317
0.000714957
0.00075884
0.000798271
0.000832601
0.000861249
0.000883723
0.000899639
0.000908741
0.000910912
0.000906183
0.000894734
0.00087689
0.000853112
0.000823977
0.000790161
0.000752411
0.000711517
0.000668286
0.000623516
0.000577965
0.000532339
0.000487271
0.000443308
0.00040091
0.000360445
0.000322192
0.000286348
0.000253034
0.000222308
0.000194173
0.000168588
0.000145478
0.000124748
0.000106283
8.9964e-05
7.56709e-05
6.32883e-05
5.27116e-05
4.38508e-05
3.66354e-05
3.10181e-05
2.69773e-05
2.45277e-05
2.37114e-05
2.45571e-05
2.71519e-05
3.23728e-05
3.72555e-05
3.60186e-05
2.43766e-05
1.07884e-05
1.13e-06
-6.77544e-06
-1.34484e-05
-1.92876e-05
-2.47107e-05
-3.00685e-05
-3.56254e-05
-4.15829e-05
-4.80869e-05
-5.52368e-05
-6.30937e-05
-7.16876e-05
-8.10235e-05
-9.10865e-05
-0.000101846
-0.000113257
-0.000125266
-0.00013781
-0.000150819
-0.000164218
-0.000177927
-0.000191861
-0.000205932
-0.000220051
-0.000234127
-0.000248068
-0.000261782
-0.000275177
-0.000288164
-0.000300653
-0.000312557
-0.000323788
-0.00033426
-0.000343887
-0.000352584
-0.000360262
-0.000366833
-0.000372208
-0.000376293
-0.000378997
-0.000380222
-0.000379874
-0.000377854
-0.000374063
-0.000368404
-0.000360776
-0.000351078
-0.000339211
-0.00032507
-0.000308554
-0.000289557
-0.000267976
-0.000243709
-0.000216661
-0.000186742
-0.000153881
-0.000118025
-7.91518e-05
-3.72749e-05
7.54199e-06
5.51788e-05
0.000105449
0.00015809
0.000212759
0.000269026
0.00032637
0.000384189
0.000441798
0.000498444
0.00055332
0.000605585
0.000654383
0.000698875
0.000738262
0.000771817
0.000798916
0.000819059
0.000831897
0.000837251
0.000835117
0.000825674
0.000809277
0.000786446
0.000757837
0.000724226
0.000686464
0.000645455
0.000602108
0.000557316
0.000511917
0.000466676
0.000422264
0.000379249
0.00033809
0.000299141
0.000262651
0.000228778
0.000197602
0.000169134
0.00014333
0.000120107
9.93537e-05
8.09394e-05
6.47263e-05
5.05759e-05
3.8357e-05
2.79508e-05
1.92564e-05
1.21952e-05
6.71442e-06
2.79053e-06
4.38539e-07
-2.97374e-07
6.1492e-07
3.26659e-06
8.54189e-06
1.34645e-05
2.46622e-05
1.23145e-05
-2.04335e-06
-1.21384e-05
-2.03329e-05
-2.72084e-05
-3.32085e-05
-3.87891e-05
-4.43289e-05
-5.01105e-05
-5.63468e-05
-6.31908e-05
-7.07455e-05
-7.90739e-05
-8.82064e-05
-9.81479e-05
-0.000108882
-0.000120378
-0.000132589
-0.000145459
-0.000158923
-0.000172911
-0.000187344
-0.000202139
-0.000217212
-0.000232475
-0.00024784
-0.000263218
-0.000278522
-0.000293669
-0.000308576
-0.000323166
-0.000337366
-0.000351107
-0.000364324
-0.000376953
-0.000388936
-0.000400216
-0.000410736
-0.00042044
-0.000429275
-0.000437185
-0.000444115
-0.00045001
-0.000454812
-0.000458464
-0.000460903
-0.000462063
-0.000461869
-0.000460235
-0.000457065
-0.000452244
-0.000445636
-0.000437085
-0.000426413
-0.000413416
-0.000397871
-0.00037954
-0.000358175
-0.00033353
-0.000305369
-0.000273485
-0.000237715
-0.000197951
-0.000154164
-0.000106413
-5.48652e-05
1.93904e-07
5.83549e-05
0.000119079
0.000181699
0.000245428
0.000309371
0.000372542
0.000433894
0.000492343
0.00054681
0.000596249
0.000639697
0.000676304
0.000705375
0.000726399
0.000739075
0.000743325
0.0007393
0.000727375
0.000708129
0.000682317
0.000650836
0.000614681
0.0005749
0.000532548
0.000488646
0.000444147
0.000399903
0.00035665
0.000314992
0.000275404
0.000238233
0.000203707
0.000171954
0.000143011
0.000116847
9.33779e-05
7.24816e-05
5.40125e-05
3.78138e-05
2.37282e-05
1.16059e-05
1.31208e-06
-7.26717e-06
-1.42202e-05
-1.96059e-05
-2.34506e-05
-2.5739e-05
-2.6424e-05
-2.54693e-05
-2.27783e-05
-1.74567e-05
-1.24965e-05
9.46663e-06
-3.55508e-06
-1.86466e-05
-2.91551e-05
-3.76252e-05
-4.46998e-05
-5.08671e-05
-5.66203e-05
-6.23649e-05
-6.84006e-05
-7.49506e-05
-8.21737e-05
-9.01759e-05
-9.90211e-05
-0.000108739
-0.000119335
-0.00013079
-0.000143071
-0.00015613
-0.000169909
-0.000184341
-0.000199352
-0.000214862
-0.000230789
-0.000247045
-0.000263546
-0.000280206
-0.000296943
-0.00031368
-0.000330344
-0.00034687
-0.000363202
-0.000379289
-0.000395091
-0.000410575
-0.000425715
-0.000440491
-0.00045489
-0.000468904
-0.00048253
-0.00049577
-0.00050863
-0.000521119
-0.000533247
-0.000545026
-0.000556464
-0.000567562
-0.000578311
-0.000588681
-0.000598618
-0.000608035
-0.000616803
-0.000624745
-0.00063163
-0.000637166
-0.000641004
-0.000642738
-0.000641906
-0.00063801
-0.000630522
-0.000618905
-0.000602635
-0.000581222
-0.000554244
-0.000521357
-0.000482331
-0.000437078
-0.000385662
-0.00032832
-0.000265472
-0.000197727
-0.00012588
-5.09024e-05
2.60719e-05
0.000103775
0.000180838
0.000255828
0.000327297
0.000393831
0.000454105
0.000506935
0.000551326
0.000586518
0.000612021
0.000627631
0.000633447
0.000629854
0.000617504
0.000597282
0.000570248
0.000537591
0.000500561
0.000460415
0.000418358
0.000375503
0.000332834
0.000291183
0.000251219
0.000213452
0.000178237
0.000145792
0.000116219
8.95208e-05
6.56304e-05
4.44258e-05
2.57516e-05
9.43457e-06
-4.70211e-06
-1.6828e-05
-2.70961e-05
-3.56358e-05
-4.25473e-05
-4.7897e-05
-5.1715e-05
-5.39857e-05
-5.46591e-05
-5.36935e-05
-5.0986e-05
-4.56295e-05
-4.06354e-05
-9.92639e-06
-2.35904e-05
-3.93798e-05
-5.02796e-05
-5.90131e-05
-6.62844e-05
-7.26259e-05
-7.85671e-05
-8.45388e-05
-9.08567e-05
-9.77532e-05
-0.000105392
-0.000113881
-0.000123285
-0.000133632
-0.000144925
-0.000157144
-0.000170254
-0.000184204
-0.000198933
-0.000214373
-0.000230445
-0.00024707
-0.000264165
-0.000281644
-0.000299426
-0.000317433
-0.000335592
-0.000353842
-0.000372129
-0.000390413
-0.000408666
-0.000426875
-0.000445039
-0.000463172
-0.000481301
-0.000499465
-0.000517717
-0.000536122
-0.000554756
-0.000573709
-0.000593079
-0.000612977
-0.000633518
-0.00065482
-0.000676995
-0.000700144
-0.000724343
-0.000749633
-0.000776004
-0.000803382
-0.000831615
-0.000860457
-0.000889563
-0.000918475
-0.000946629
-0.000973348
-0.000997861
-0.00101931
-0.00103679
-0.00104934
-0.00105601
-0.00105587
-0.00104808
-0.0010319
-0.00100668
-0.00097201
-0.000927646
-0.000873581
-0.000810052
-0.000737555
-0.000656851
-0.000568962
-0.000475155
-0.000376923
-0.000275951
-0.000174073
-7.32182e-05
2.4647e-05
0.000117588
0.000203773
0.000281544
0.000349485
0.000406483
0.000451776
0.000484984
0.000506119
0.000515579
0.000514117
0.000502788
0.000482884
0.000455858
0.000423244
0.000386578
0.000347324
0.000306822
0.000266241
0.000226555
0.000188532
0.000152742
0.000119566
8.92251e-05
6.18035e-05
3.72796e-05
1.55533e-05
-3.52824e-06
-2.01476e-05
-3.44988e-05
-4.67712e-05
-5.7138e-05
-6.57463e-05
-7.27104e-05
-7.81064e-05
-8.19696e-05
-8.42849e-05
-8.49988e-05
-8.40643e-05
-8.13704e-05
-7.5995e-05
-7.09735e-05
-3.38684e-05
-4.81429e-05
-6.45949e-05
-7.5865e-05
-8.4851e-05
-9.23178e-05
-9.88413e-05
-0.000104986
-0.000111206
-0.000117834
-0.000125108
-0.000133197
-0.000142209
-0.000152209
-0.000163224
-0.000175254
-0.000188276
-0.000202253
-0.000217131
-0.000232845
-0.000249326
-0.000266493
-0.000284267
-0.000302564
-0.000321304
-0.000340414
-0.000359826
-0.000379486
-0.000399352
-0.0004194
-0.000439627
-0.000460045
-0.000480693
-0.000501628
-0.000522929
-0.0005447
-0.000567064
-0.000590171
-0.000614191
-0.00063932
-0.000665776
-0.000693801
-0.000723653
-0.000755602
-0.000789923
-0.00082688
-0.000866712
-0.000909617
-0.000955724
-0.00100507
-0.0010576
-0.00111309
-0.00117119
-0.00123136
-0.00129291
-0.00135495
-0.00141643
-0.00147614
-0.00153275
-0.00158483
-0.0016309
-0.00166945
-0.00169901
-0.0017182
-0.00172575
-0.00172062
-0.00170189
-0.00166897
-0.00162152
-0.00155955
-0.00148336
-0.00139364
-0.00129139
-0.00117799
-0.00105513
-0.000924794
-0.000789233
-0.000650901
-0.000512389
-0.000376351
-0.000245412
-0.000122079
-8.64225e-06
9.29165e-05
0.000181009
0.000254505
0.000312782
0.000355742
0.000383798
0.000397841
0.000399163
0.000389373