/*--------------------------------*- C++ -*----------------------------------*\
| =========                 |                                                 |
| \\      /  F ield         | OpenFOAM: The Open Source CFD Toolbox           |
|  \\    /   O peration     | Version:  2406                                  |
|   \\  /    A nd           | Website:  www.openfoam.com                      |
|    \\/     M anipulation  |                                                 |
\*---------------------------------------------------------------------------*/
FoamFile
{
    version     2.0;
    format      ascii;
    arch        "LSB;label=32;scalar=64";
    class       surfaceScalarField;
    location    "13.65";
    object      phi;
}
// * * * * * * * * * * * * * * * * * * * * * * * * * * * * * * * * * * * * * //

dimensions      [0 3 -1 0 0 0 0];

oriented        oriented;

internalField   nonuniform List<scalar> 
28560
(
8.78036e-09
-8.77808e-09
1.98312e-08
-1.10509e-08
2.54123e-08
-5.58092e-09
2.20344e-08
3.37806e-09
9.27869e-09
1.27558e-08
-1.20792e-08
2.13579e-08
-4.06127e-08
2.85335e-08
-7.47744e-08
3.41617e-08
-1.13146e-07
3.83714e-08
-1.54552e-07
4.14067e-08
-1.981e-07
4.35477e-08
-2.43165e-07
4.50645e-08
-2.89358e-07
4.61937e-08
-3.36486e-07
4.7128e-08
-3.84501e-07
4.80147e-08
-4.3346e-07
4.89592e-08
-4.83491e-07
5.00307e-08
-5.3476e-07
5.12691e-08
-5.87452e-07
5.26914e-08
-6.41749e-07
5.42978e-08
-6.97826e-07
5.60771e-08
-7.55836e-07
5.80102e-08
-8.1591e-07
6.00735e-08
-8.78151e-07
6.22411e-08
-9.42637e-07
6.44859e-08
-1.00942e-06
6.67809e-08
-1.07852e-06
6.90996e-08
-1.14993e-06
7.14159e-08
-1.22364e-06
7.37045e-08
-1.29958e-06
7.59409e-08
-1.37768e-06
7.81007e-08
-1.45784e-06
8.01597e-08
-1.53993e-06
8.20936e-08
-1.62381e-06
8.3878e-08
-1.7093e-06
8.54877e-08
-1.79619e-06
8.68965e-08
-1.88427e-06
8.80774e-08
-1.97327e-06
8.90021e-08
-2.06291e-06
8.96404e-08
-2.15288e-06
8.99608e-08
-2.24281e-06
8.993e-08
-2.33232e-06
8.95128e-08
-2.42099e-06
8.86725e-08
-2.50836e-06
8.73708e-08
-2.59393e-06
8.55686e-08
-2.67716e-06
8.32257e-08
-2.75746e-06
8.03022e-08
-2.83422e-06
7.67591e-08
-2.90678e-06
7.2559e-08
-2.97444e-06
6.76673e-08
-3.0365e-06
6.20539e-08
-3.09219e-06
5.5694e-08
-3.14076e-06
4.85697e-08
-3.18143e-06
4.06725e-08
-3.21344e-06
3.20039e-08
-3.23601e-06
2.25764e-08
-3.24849e-06
1.24712e-08
-3.25e-06
1.5183e-09
-3.24006e-06
-9.93909e-09
-3.21808e-06
-2.19883e-08
-3.18355e-06
-3.45223e-08
-3.13612e-06
-4.74297e-08
-3.07553e-06
-6.05896e-08
-3.00167e-06
-7.38658e-08
-2.91456e-06
-8.71099e-08
-2.8144e-06
-1.00163e-07
-2.70154e-06
-1.12856e-07
-2.57652e-06
-1.25019e-07
-2.44005e-06
-1.36476e-07
-2.29299e-06
-1.47058e-07
-2.13638e-06
-1.56602e-07
-1.97143e-06
-1.64956e-07
-1.79945e-06
-1.71984e-07
-1.62188e-06
-1.7757e-07
-1.44025e-06
-1.81622e-07
-1.25618e-06
-1.84074e-07
-1.07129e-06
-1.84888e-07
-8.87234e-07
-1.84058e-07
-7.05628e-07
-1.81606e-07
-5.28041e-07
-1.77587e-07
-3.5596e-07
-1.72081e-07
-1.90763e-07
-1.65197e-07
-3.36984e-08
-1.57065e-07
1.14136e-07
-1.47834e-07
2.51806e-07
-1.3767e-07
3.78549e-07
-1.26744e-07
4.93785e-07
-1.15236e-07
5.97108e-07
-1.03323e-07
6.88288e-07
-9.11801e-08
7.6726e-07
-7.89715e-08
8.3411e-07
-6.68499e-08
8.89062e-07
-5.49527e-08
9.32462e-07
-4.33999e-08
9.64755e-07
-3.2293e-08
9.8647e-07
-2.17146e-08
9.98198e-07
-1.17283e-08
1.00063e-06
-2.43663e-09
9.94265e-07
6.36946e-09
9.79862e-07
1.4403e-08
9.58128e-07
2.1734e-08
9.29667e-07
2.84612e-08
8.95095e-07
3.45718e-08
8.54997e-07
4.00977e-08
8.09924e-07
4.50739e-08
7.60389e-07
4.95347e-08
7.06879e-07
5.35096e-08
6.49862e-07
5.70175e-08
5.89802e-07
6.00599e-08
5.27189e-07
6.26133e-08
4.62571e-07
6.46181e-08
3.96605e-07
6.59657e-08
3.30123e-07
6.64821e-08
2.64215e-07
6.59073e-08
2.00342e-07
6.38735e-08
1.40458e-07
5.98836e-08
8.71348e-08
5.33235e-08
4.36047e-08
4.35301e-08
1.35171e-08
3.00876e-08
6.19646e-11
1.34552e-08
6.19739e-11
1.11947e-08
-1.99729e-08
2.15555e-08
-2.14112e-08
1.619e-08
-2.15159e-10
-1.09102e-08
3.04785e-08
-6.09346e-08
6.27803e-08
-1.32169e-07
9.25925e-08
-2.216e-07
1.17964e-07
-3.258e-07
1.38362e-07
-4.415e-07
1.54071e-07
-5.65886e-07
1.65793e-07
-6.96727e-07
1.74389e-07
-8.32387e-07
1.80724e-07
-9.71775e-07
1.85582e-07
-1.11426e-06
1.89617e-07
-1.25959e-06
1.93342e-07
-1.40777e-06
1.97134e-07
-1.55899e-06
2.0125e-07
-1.71356e-06
2.05845e-07
-1.87187e-06
2.10994e-07
-2.03428e-06
2.16712e-07
-2.20117e-06
2.22969e-07
-2.37287e-06
2.29707e-07
-2.54964e-06
2.36848e-07
-2.7317e-06
2.44301e-07
-2.91919e-06
2.51973e-07
-3.11217e-06
2.59765e-07
-3.31065e-06
2.6758e-07
-3.51456e-06
2.75324e-07
-3.72376e-06
2.829e-07
-3.93803e-06
2.90218e-07
-4.15712e-06
2.97185e-07
-4.38067e-06
3.03712e-07
-4.60829e-06
3.09709e-07
-4.83949e-06
3.15085e-07
-5.07375e-06
3.19749e-07
-5.31047e-06
3.23608e-07
-5.54895e-06
3.26565e-07
-5.78847e-06
3.28521e-07
-6.0282e-06
3.29372e-07
-6.26725e-06
3.2901e-07
-6.50465e-06
3.27323e-07
-6.73933e-06
3.24194e-07
-6.97015e-06
3.195e-07
-7.1959e-06
3.13117e-07
-7.41525e-06
3.04917e-07
-7.6268e-06
2.94773e-07
-7.82905e-06
2.82558e-07
-8.02044e-06
2.6815e-07
-8.19932e-06
2.51436e-07
-8.36397e-06
2.32313e-07
-8.51261e-06
2.10696e-07
-8.64343e-06
1.86518e-07
-8.7546e-06
1.5974e-07
-8.84428e-06
1.30351e-07
-8.91065e-06
9.83787e-08
-8.95197e-06
6.38921e-08
-8.96651e-06
2.70065e-08
-8.95284e-06
-1.21483e-08
-8.90942e-06
-5.33546e-08
-8.8351e-06
-9.63125e-08
-8.72888e-06
-1.40738e-07
-8.59005e-06
-1.86259e-07
-8.41819e-06
-2.32458e-07
-8.21318e-06
-2.78872e-07
-7.97529e-06
-3.24996e-07
-7.70516e-06
-3.70297e-07
-7.4038e-06
-4.14216e-07
-7.07264e-06
-4.56183e-07
-6.71348e-06
-4.95628e-07
-6.32855e-06
-5.31992e-07
-5.92041e-06
-5.64745e-07
-5.49197e-06
-5.93394e-07
-5.04645e-06
-6.17499e-07
-4.58734e-06
-6.36686e-07
-4.1183e-06
-6.50656e-07
-3.64318e-06
-6.59197e-07
-3.16588e-06
-6.62185e-07
-2.69034e-06
-6.59597e-07
-2.22045e-06
-6.51504e-07
-1.75996e-06
-6.38075e-07
-1.31247e-06
-6.1957e-07
-8.8133e-07
-5.96335e-07
-4.69605e-07
-5.6879e-07
-8.00216e-08
-5.37417e-07
2.85058e-07
-5.02749e-07
6.23667e-07
-4.65352e-07
9.34244e-07
-4.25812e-07
1.21564e-06
-3.84719e-07
1.46711e-06
-3.4265e-07
1.6883e-06
-3.00161e-07
1.87922e-06
-2.57769e-07
2.04021e-06
-2.15947e-07
2.17192e-06
-1.75113e-07
2.27526e-06
-1.35625e-07
2.35132e-06
-9.77789e-08
2.4014e-06
-6.18114e-08
2.42686e-06
-2.78955e-08
2.42926e-06
3.96775e-09
2.41019e-06
3.34824e-08
2.37109e-06
6.08338e-08
2.31355e-06
8.60012e-08
2.23907e-06
1.0905e-07
2.1491e-06
1.30062e-07
2.04505e-06
1.4913e-07
1.92824e-06
1.66342e-07
1.79998e-06
1.81769e-07
1.66156e-06
1.9544e-07
1.51429e-06
2.07325e-07
1.3596e-06
2.17307e-07
1.19907e-06
2.25146e-07
1.03459e-06
2.30446e-07
8.68469e-07
2.32604e-07
7.03613e-07
2.30764e-07
5.43712e-07
2.23774e-07
3.93426e-07
2.10169e-07
2.58496e-07
1.88254e-07
1.45647e-07
1.56379e-07
6.20157e-08
1.13719e-07
1.3538e-08
6.19329e-08
1.36e-08
5.4177e-09
-2.53904e-08
-1.02075e-09
-1.49725e-08
-3.372e-08
3.24842e-08
-9.8336e-08
9.50946e-08
-1.95805e-07
1.6025e-07
-3.23793e-07
2.2058e-07
-4.78318e-07
2.7249e-07
-6.54822e-07
3.14866e-07
-8.48866e-07
3.48115e-07
-1.05654e-06
3.73468e-07
-1.27467e-06
3.92515e-07
-1.50084e-06
4.06899e-07
-1.73339e-06
4.18134e-07
-1.97129e-06
4.27511e-07
-2.21401e-06
4.36058e-07
-2.46142e-06
4.44545e-07
-2.71367e-06
4.53506e-07
-2.9711e-06
4.63272e-07
-3.23412e-06
4.74016e-07
-3.50319e-06
4.85784e-07
-3.77875e-06
4.98529e-07
-4.06119e-06
5.12141e-07
-4.35081e-06
5.26467e-07
-4.64783e-06
5.41327e-07
-4.95238e-06
5.56526e-07
-5.26448e-06
5.71862e-07
-5.58403e-06
5.8713e-07
-5.91084e-06
6.02129e-07
-6.2446e-06
6.16659e-07
-6.5849e-06
6.30524e-07
-6.93125e-06
6.43531e-07
-7.28303e-06
6.5549e-07
-7.63953e-06
6.66212e-07
-7.99995e-06
6.75509e-07
-8.3634e-06
6.83194e-07
-8.72886e-06
6.89075e-07
-9.09526e-06
6.92958e-07
-9.46138e-06
6.94644e-07
-9.82594e-06
6.93929e-07
-1.01875e-05
6.90601e-07
-1.05446e-05
6.84439e-07
-1.08957e-05
6.75219e-07
-1.12389e-05
6.62706e-07
-1.15724e-05
6.46662e-07
-1.18943e-05
6.26846e-07
-1.22026e-05
6.0302e-07
-1.2495e-05
5.74948e-07
-1.27692e-05
5.42409e-07
-1.3023e-05
5.05196e-07
-1.32538e-05
4.63132e-07
-1.34592e-05
4.16071e-07
-1.36366e-05
3.63911e-07
-1.37835e-05
3.06603e-07
-1.38973e-05
2.4416e-07
-1.39756e-05
1.76665e-07
-1.40159e-05
1.04285e-07
-1.40162e-05
2.72629e-08
-1.39743e-05
-5.40357e-08
-1.38885e-05
-1.39204e-07
-1.37571e-05
-2.27661e-07
-1.35791e-05
-3.18771e-07
-1.33536e-05
-4.1179e-07
-1.30801e-05
-5.05882e-07
-1.27589e-05
-6.00124e-07
-1.23904e-05
-6.93522e-07
-1.19756e-05
-7.85025e-07
-1.15163e-05
-8.73545e-07
-1.10145e-05
-9.57972e-07
-1.04729e-05
-1.0372e-06
-9.89477e-06
-1.11016e-06
-9.2837e-06
-1.17581e-06
-8.64386e-06
-1.23323e-06
-7.9798e-06
-1.28156e-06
-7.29641e-06
-1.32008e-06
-6.59885e-06
-1.34822e-06
-5.89248e-06
-1.36557e-06
-5.18278e-06
-1.37189e-06
-4.47525e-06
-1.36713e-06
-3.77533e-06
-1.35141e-06
-3.08834e-06
-1.32507e-06
-2.41934e-06
-1.28857e-06
-1.77309e-06
-1.24258e-06
-1.15398e-06
-1.18791e-06
-5.65934e-07
-1.12546e-06
-1.24165e-08
-1.05627e-06
5.03651e-07
-9.8142e-07
9.79893e-07
-9.02054e-07
1.41449e-06
-8.1932e-07
1.8062e-06
-7.34351e-07
2.15428e-06
-6.48243e-07
2.45854e-06
-5.62026e-07
2.71923e-06
-4.76646e-07
2.93707e-06
-3.92951e-07
3.11312e-06
-3.11674e-07
3.24877e-06
-2.33431e-07
3.34568e-06
-1.58717e-07
3.40568e-06
-8.78948e-08
3.43087e-06
-2.12205e-08
3.42323e-06
4.11155e-08
3.38496e-06
9.91072e-08
3.3182e-06
1.5276e-07
3.22509e-06
2.02162e-07
3.10771e-06
2.4744e-07
2.96811e-06
2.88737e-07
2.80826e-06
3.26186e-07
2.63015e-06
3.59879e-07
2.43576e-06
3.89828e-07
2.22717e-06
4.15921e-07
2.0066e-06
4.37874e-07
1.77658e-06
4.55167e-07
1.54005e-06
4.6698e-07
1.30053e-06
4.72119e-07
1.06235e-06
4.68948e-07
8.30776e-07
4.55346e-07
6.12221e-07
4.28724e-07
4.14252e-07
3.86223e-07
2.4542e-07
3.25211e-07
1.14696e-07
2.44444e-07
3.04654e-08
1.46163e-07
4.40654e-08
-4.96481e-09
-2.04253e-08
-3.7077e-08
1.71399e-08
-1.07169e-07
1.02576e-07
-2.1908e-07
2.07006e-07
-3.72283e-07
3.13453e-07
-5.634e-07
4.11696e-07
-7.87521e-07
4.9661e-07
-1.03921e-06
5.66558e-07
-1.31322e-06
6.22122e-07
-1.60489e-06
6.65137e-07
-1.91039e-06
6.98013e-07
-2.22676e-06
7.23278e-07
-2.55192e-06
7.4329e-07
-2.88449e-06
7.60079e-07
-3.22371e-06
7.75283e-07
-3.56931e-06
7.90139e-07
-3.92132e-06
8.05518e-07
-4.28002e-06
8.21972e-07
-4.64579e-06
8.39792e-07
-5.01908e-06
8.5907e-07
-5.40029e-06
8.79741e-07
-5.78979e-06
9.01635e-07
-6.18783e-06
9.24508e-07
-6.59457e-06
9.48066e-07
-7.01003e-06
9.7199e-07
-7.43411e-06
9.95946e-07
-7.86658e-06
1.01959e-06
-8.30704e-06
1.04259e-06
-8.755e-06
1.06462e-06
-9.2098e-06
1.08533e-06
-9.67069e-06
1.10441e-06
-1.01368e-05
1.12156e-06
-1.0607e-05
1.13644e-06
-1.10802e-05
1.14878e-06
-1.15553e-05
1.15824e-06
-1.20308e-05
1.16455e-06
-1.25052e-05
1.16737e-06
-1.2977e-05
1.16642e-06
-1.34444e-05
1.16136e-06
-1.39057e-05
1.15187e-06
-1.43588e-05
1.13761e-06
-1.48019e-05
1.11825e-06
-1.52326e-05
1.09341e-06
-1.56487e-05
1.06275e-06
-1.60477e-05
1.0259e-06
-1.64272e-05
9.82507e-07
-1.67845e-05
9.32218e-07
-1.71168e-05
8.74707e-07
-1.74212e-05
8.09678e-07
-1.7695e-05
7.36879e-07
-1.7935e-05
6.56112e-07
-1.81384e-05
5.67251e-07
-1.8302e-05
4.70256e-07
-1.84231e-05
3.65185e-07
-1.84986e-05
2.52211e-07
-1.85259e-05
1.31632e-07
-1.85026e-05
3.90366e-09
-1.84262e-05
-1.30434e-07
-1.82948e-05
-2.70601e-07
-1.81067e-05
-4.1572e-07
-1.78608e-05
-5.64739e-07
-1.75561e-05
-7.16461e-07
-1.71924e-05
-8.69548e-07
-1.677e-05
-1.02253e-06
-1.62897e-05
-1.17385e-06
-1.57529e-05
-1.32184e-06
-1.51616e-05
-1.4648e-06
-1.45186e-05
-1.60098e-06
-1.38271e-05
-1.72867e-06
-1.30911e-05
-1.84619e-06
-1.2315e-05
-1.95194e-06
-1.15037e-05
-2.04445e-06
-1.06629e-05
-2.12241e-06
-9.79828e-06
-2.18469e-06
-8.9161e-06
-2.2304e-06
-8.02279e-06
-2.25887e-06
-7.12494e-06
-2.26975e-06
-6.22916e-06
-2.26291e-06
-5.34202e-06
-2.23855e-06
-4.46995e-06
-2.19714e-06
-3.61911e-06
-2.13941e-06
-2.79531e-06
-2.06639e-06
-2.00394e-06
-1.97928e-06
-1.24989e-06
-1.87951e-06
-5.3748e-07
-1.76868e-06
1.29576e-07
-1.64848e-06
7.48208e-07
-1.52069e-06
1.31601e-06
-1.38712e-06
1.83122e-06
-1.24957e-06
2.29275e-06
-1.10977e-06
2.70012e-06
-9.69388e-07
3.0534e-06
-8.29935e-07
3.35325e-06
-6.92791e-07
3.60073e-06
-5.5916e-07
3.79736e-06
-4.30064e-07
3.94498e-06
-3.06335e-07
4.0457e-06
-1.88614e-07
4.10185e-06
-7.73652e-08
4.11584e-06
2.71207e-08
4.09025e-06
1.24699e-07
4.02764e-06
2.15365e-07
3.93061e-06
2.99197e-07
3.8017e-06
3.76347e-07
3.64345e-06
4.46987e-07
3.45836e-06
5.11274e-07
3.24895e-06
5.69295e-07
3.01777e-06
6.21007e-07
2.76752e-06
6.66172e-07
2.50111e-06
7.0428e-07
2.22182e-06
7.34459e-07
1.93342e-06
7.55382e-07
1.64036e-06
7.65178e-07
1.34796e-06
7.61345e-07
1.06258e-06
7.40727e-07
7.91735e-07
6.99568e-07
5.4416e-07
6.33797e-07
3.2972e-07
5.39651e-07
1.59241e-07
4.14923e-07
4.44938e-08
2.6091e-07
8.85592e-08
-1.73942e-08
-3.03105e-09
-8.03157e-08
8.00615e-08
-1.94394e-07
2.16655e-07
-3.60313e-07
3.72925e-07
-5.75352e-07
5.28491e-07
-8.34605e-07
6.70949e-07
-1.13206e-06
7.94065e-07
-1.46144e-06
8.95943e-07
-1.81683e-06
9.77512e-07
-2.19303e-06
1.04133e-06
-2.58574e-06
1.09073e-06
-2.99166e-06
1.12919e-06
-3.40836e-06
1.16e-06
-3.83425e-06
1.18597e-06
-4.26838e-06
1.20941e-06
-4.7103e-06
1.23206e-06
-5.15995e-06
1.25517e-06
-5.61749e-06
1.27951e-06
-6.08323e-06
1.30553e-06
-6.5575e-06
1.33334e-06
-7.04063e-06
1.36287e-06
-7.53287e-06
1.39388e-06
-8.03438e-06
1.42601e-06
-8.54516e-06
1.45885e-06
-9.06508e-06
1.49192e-06
-9.59387e-06
1.52473e-06
-1.01311e-05
1.5568e-06
-1.06761e-05
1.58762e-06
-1.12282e-05
1.6167e-06
-1.17864e-05
1.64357e-06
-1.23498e-05
1.66777e-06
-1.29171e-05
1.68883e-06
-1.34869e-05
1.70633e-06
-1.4058e-05
1.71983e-06
-1.46286e-05
1.7289e-06
-1.51972e-05
1.73313e-06
-1.57619e-05
1.73209e-06
-1.63209e-05
1.72538e-06
-1.68721e-05
1.71255e-06
-1.74134e-05
1.69317e-06
-1.79426e-05
1.66679e-06
-1.84573e-05
1.63296e-06
-1.89551e-05
1.5912e-06
-1.94333e-05
1.54102e-06
-1.98894e-05
1.48196e-06
-2.03204e-05
1.41354e-06
-2.07235e-05
1.33529e-06
-2.10956e-05
1.24679e-06
-2.14336e-05
1.14766e-06
-2.17343e-05
1.03757e-06
-2.19944e-05
9.16273e-07
-2.22108e-05
7.83634e-07
-2.23802e-05
6.39628e-07
-2.24994e-05
4.84376e-07
-2.25653e-05
3.18154e-07
-2.25751e-05
1.4142e-07
-2.2526e-05
-4.51762e-08
-2.24157e-05
-2.40794e-07
-2.22419e-05
-4.44359e-07
-2.2003e-05
-6.54597e-07
-2.16977e-05
-8.70018e-07
-2.13253e-05
-1.08893e-06
-2.08854e-05
-1.30944e-06
-2.03784e-05
-1.5295e-06
-1.98054e-05
-1.7469e-06
-1.91679e-05
-1.95934e-06
-1.84683e-05
-2.16442e-06
-1.77095e-05
-2.35972e-06
-1.68954e-05
-2.54284e-06
-1.60301e-05
-2.71143e-06
-1.51188e-05
-2.86327e-06
-1.41669e-05
-2.99629e-06
-1.31807e-05
-3.10865e-06
-1.21666e-05
-3.19876e-06
-1.11317e-05
-3.26535e-06
-1.00831e-05
-3.30748e-06
-9.02824e-06
-3.32458e-06
-7.97468e-06
-3.31647e-06
-6.92984e-06
-3.28338e-06
-5.90106e-06
-3.22592e-06
-4.8954e-06
-3.14508e-06
-3.91955e-06
-3.04223e-06
-2.97978e-06
-2.91905e-06
-2.08179e-06
-2.7775e-06
-1.23067e-06
-2.61979e-06
-4.30848e-07
-2.4483e-06
3.13976e-07
-2.26551e-06
1.00083e-06
-2.07397e-06
1.62749e-06
-1.87623e-06
2.19247e-06
-1.67475e-06
2.69499e-06
-1.4719e-06
3.13493e-06
-1.26988e-06
3.5128e-06
-1.07066e-06
3.82965e-06
-8.7601e-07
4.08701e-06
-6.87431e-07
4.28684e-06
-5.06161e-07
4.4314e-06
-3.33174e-07
4.52322e-06
-1.69185e-07
4.56501e-06
-1.46739e-08
4.55961e-06
1.30097e-07
4.50993e-06
2.65047e-07
4.41889e-06
3.90235e-07
4.28943e-06
5.05808e-07
4.12447e-06
6.11952e-07
3.92692e-06
7.08825e-07
3.69973e-06
7.96484e-07
3.44593e-06
8.74805e-07
3.16871e-06
9.43388e-07
2.87154e-06
1.00146e-06
2.55826e-06
1.04774e-06
2.23327e-06
1.08037e-06
1.90171e-06
1.09674e-06
1.5696e-06
1.09346e-06
1.24402e-06
1.0663e-06
9.33292e-07
1.0103e-06
6.47034e-07
9.20055e-07
3.96329e-07
7.90356e-07
1.93966e-07
6.17286e-07
5.51337e-08
3.99742e-07
1.43693e-07
-3.08764e-08
2.78454e-08
-1.27256e-07
1.76441e-07
-2.89185e-07
3.78585e-07
-5.13403e-07
5.97142e-07
-7.9439e-07
8.09479e-07
-1.1253e-06
1.00186e-06
-1.49878e-06
1.16755e-06
-1.90766e-06
1.30481e-06
-2.34535e-06
1.41521e-06
-2.80622e-06
1.5022e-06
-3.28564e-06
1.57015e-06
-3.78003e-06
1.62359e-06
-4.28679e-06
1.66676e-06
-4.80415e-06
1.70332e-06
-5.331e-06
1.73626e-06
-5.86678e-06
1.76784e-06
-6.41129e-06
1.79968e-06
-6.96457e-06
1.8328e-06
-7.5268e-06
1.86776e-06
-8.09819e-06
1.90473e-06
-8.67891e-06
1.94359e-06
-9.26905e-06
1.98402e-06
-9.86859e-06
2.02555e-06
-1.04774e-05
2.06761e-06
-1.1095e-05
2.10956e-06
-1.1721e-05
2.15075e-06
-1.23547e-05
2.1905e-06
-1.29953e-05
2.22815e-06
-1.36416e-05
2.26305e-06
-1.42926e-05
2.29456e-06
-1.49469e-05
2.32207e-06
-1.5603e-05
2.34498e-06
-1.62594e-05
2.36274e-06
-1.69144e-05
2.3748e-06
-1.75661e-05
2.38061e-06
-1.82127e-05
2.37968e-06
-1.88521e-05
2.37147e-06
-1.94822e-05
2.35547e-06
-2.01008e-05
2.33118e-06
-2.07057e-05
2.29805e-06
-2.12944e-05
2.25554e-06
-2.18646e-05
2.2031e-06
-2.24135e-05
2.14014e-06
-2.29386e-05
2.06608e-06
-2.34369e-05
1.98034e-06
-2.39057e-05
1.88231e-06
-2.43418e-05
1.77143e-06
-2.47422e-05
1.64718e-06
-2.51036e-05
1.50907e-06
-2.54228e-05
1.3567e-06
-2.56963e-05
1.18979e-06
-2.59208e-05
1.00815e-06
-2.6093e-05
8.11795e-07
-2.62095e-05
6.00881e-07
-2.62671e-05
3.75791e-07
-2.62628e-05
1.37131e-07
-2.61938e-05
-1.14244e-07
-2.60573e-05
-3.77217e-07
-2.58513e-05
-6.50398e-07
-2.55738e-05
-9.32119e-07
-2.52234e-05
-1.22044e-06
-2.47991e-05
-1.51315e-06
-2.43008e-05
-1.80781e-06
-2.37285e-05
-2.10174e-06
-2.30834e-05
-2.39207e-06
-2.23669e-05
-2.6758e-06
-2.15815e-05
-2.94981e-06
-2.07303e-05
-3.21094e-06
-1.98171e-05
-3.45604e-06
-1.88465e-05
-3.68205e-06
-1.78237e-05
-3.88602e-06
-1.67548e-05
-4.06523e-06
-1.56462e-05
-4.21722e-06
-1.45051e-05
-4.33988e-06
-1.3339e-05
-4.43145e-06
-1.21558e-05
-4.49067e-06
-1.09637e-05
-4.51669e-06
-9.77095e-06
-4.50922e-06
-8.58586e-06
-4.46846e-06
-7.41664e-06
-4.39514e-06
-6.27121e-06
-4.2905e-06
-5.15719e-06
-4.15625e-06
-4.08168e-06
-3.99455e-06
-3.05124e-06
-3.80794e-06
-2.07175e-06
-3.59928e-06
-1.14837e-06
-3.37168e-06
-2.85473e-07
-3.12841e-06
5.13396e-07
-2.87284e-06
1.24552e-06
-2.60835e-06
1.90899e-06
-2.33823e-06
2.50274e-06
-2.06565e-06
3.02642e-06
-1.79356e-06
3.4804e-06
-1.52464e-06
3.8657e-06
-1.26131e-06
4.18387e-06
-1.0056e-06
4.43696e-06
-7.59248e-07
4.62739e-06
-5.23599e-07
4.75788e-06
-2.99681e-07
4.83141e-06
-8.81964e-08
4.85106e-06
1.10439e-07
4.82006e-06
2.9605e-07
4.74165e-06
4.68648e-07
4.61909e-06
6.28368e-07
4.45565e-06
7.75394e-07
4.2546e-06
9.0987e-07
4.01927e-06
1.03181e-06
3.75307e-06
1.141e-06
3.4596e-06
1.23686e-06
3.14274e-06
1.31832e-06
2.80679e-06
1.38369e-06
2.45663e-06
1.43053e-06
2.09786e-06
1.45551e-06
1.73701e-06
1.4543e-06
1.38174e-06
1.42158e-06
1.04095e-06
1.35109e-06
7.25092e-07
1.23591e-06
4.46424e-07
1.06902e-06
2.19608e-07
8.44102e-07
6.27523e-08
5.56598e-07
2.06445e-07
-4.47446e-08
7.259e-08
-1.75876e-07
3.07572e-07
-3.8772e-07
5.90429e-07
-6.72688e-07
8.8211e-07
-1.02207e-06
1.15886e-06
-1.42677e-06
1.40655e-06
-1.87787e-06
1.61866e-06
-2.36718e-06
1.79412e-06
-2.88746e-06
1.93549e-06
-3.43263e-06
2.04737e-06
-3.9978e-06
2.13532e-06
-4.57922e-06
2.205e-06
-5.17413e-06
2.26167e-06
-5.78066e-06
2.30985e-06
-6.39761e-06
2.35321e-06
-7.02429e-06
2.39453e-06
-7.66039e-06
2.43578e-06
-8.30581e-06
2.47822e-06
-8.96058e-06
2.52252e-06
-9.62471e-06
2.56886e-06
-1.02982e-05
2.6171e-06
-1.0981e-05
2.66679e-06
-1.16728e-05
2.71733e-06
-1.23731e-05
2.76798e-06
-1.30815e-05
2.81795e-06
-1.37972e-05
2.86638e-06
-1.45191e-05
2.91242e-06
-1.52462e-05
2.95524e-06
-1.59772e-05
2.99402e-06
-1.67106e-05
3.02797e-06
-1.74449e-05
3.05635e-06
-1.81783e-05
3.07843e-06
-1.89091e-05
3.09355e-06
-1.96354e-05
3.10108e-06
-2.03552e-05
3.10039e-06
-2.10664e-05
3.09091e-06
-2.1767e-05
3.07205e-06
-2.24548e-05
3.04324e-06
-2.31275e-05
3.00391e-06
-2.37829e-05
2.95346e-06
-2.44186e-05
2.89129e-06
-2.50323e-05
2.81674e-06
-2.56213e-05
2.72916e-06
-2.61831e-05
2.62787e-06
-2.67149e-05
2.51216e-06
-2.72139e-05
2.38133e-06
-2.76772e-05
2.23469e-06
-2.81016e-05
2.0716e-06
-2.8484e-05
1.89146e-06
-2.88211e-05
1.69379e-06
-2.91095e-05
1.47819e-06
-2.93458e-05
1.24446e-06
-2.95266e-05
9.92548e-07
-2.96483e-05
7.22654e-07
-2.97077e-05
4.35214e-07
-2.97016e-05
1.30947e-07
-2.96267e-05
-1.89121e-07
-2.94803e-05
-5.23642e-07
-2.92597e-05
-8.70928e-07
-2.89629e-05
-1.22895e-06
-2.8588e-05
-1.59534e-06
-2.81338e-05
-1.96738e-06
-2.75995e-05
-2.34207e-06
-2.69852e-05
-2.7161e-06
-2.62913e-05
-3.08593e-06
-2.55193e-05
-3.44781e-06
-2.46712e-05
-3.79786e-06
-2.37501e-05
-4.13211e-06
-2.27595e-05
-4.4466e-06
-2.17041e-05
-4.73743e-06
-2.05893e-05
-5.00087e-06
-1.94211e-05
-5.23341e-06
-1.82064e-05
-5.43187e-06
-1.69529e-05
-5.59346e-06
-1.56684e-05
-5.7159e-06
-1.43617e-05
-5.79739e-06
-1.30416e-05
-5.83679e-06
-1.17173e-05
-5.83353e-06
-1.0398e-05
-5.78776e-06
-9.0929e-06
-5.70024e-06
-7.81098e-06
-5.57242e-06
-6.56089e-06
-5.40635e-06
-5.35077e-06
-5.20468e-06
-4.18817e-06
-4.97054e-06
-3.07995e-06
-4.7075e-06
-2.03214e-06
-4.41949e-06
-1.04989e-06
-4.11065e-06
-1.37463e-07
-3.78527e-06
7.0185e-07
-3.44766e-06
1.46569e-06
-3.10207e-06
2.15261e-06
-2.75257e-06
2.76205e-06
-2.403e-06
3.29425e-06
-2.05685e-06
3.7502e-06
-1.71725e-06
4.13152e-06
-1.38692e-06
4.44038e-06
-1.06811e-06
4.67943e-06
-7.62649e-07
4.85166e-06
-4.71903e-07
4.96031e-06
-1.96845e-07
5.00882e-06
6.19265e-08
5.00074e-06
3.04126e-07
4.93968e-06
5.29708e-07
4.82926e-06
7.38789e-07
4.67311e-06
9.31549e-07
4.47485e-06
1.10813e-06
4.23816e-06
1.2685e-06
3.96681e-06
1.41235e-06
3.66475e-06
1.53892e-06
3.3362e-06
1.64686e-06
2.98583e-06
1.73406e-06
2.61887e-06
1.7975e-06
2.24129e-06
1.83309e-06
1.86002e-06
1.83557e-06
1.48313e-06
1.79846e-06
1.12011e-06
1.71411e-06
7.82145e-07
1.57388e-06
4.82595e-07
1.36857e-06
2.3775e-07
1.08895e-06
6.79744e-08
7.26373e-07
2.7442e-07
-5.86922e-08
1.31282e-07
-2.25031e-07
4.73911e-07
-4.87655e-07
8.53053e-07
-8.34479e-07
1.22893e-06
-1.25338e-06
1.57777e-06
-1.73279e-06
1.88596e-06
-2.26209e-06
2.14796e-06
-2.83194e-06
2.36397e-06
-3.4344e-06
2.53794e-06
-4.06295e-06
2.67592e-06
-4.71246e-06
2.78483e-06
-5.37903e-06
2.87157e-06
-6.05983e-06
2.94247e-06
-6.7529e-06
3.00292e-06
-7.45696e-06
3.05726e-06
-8.17122e-06
3.10879e-06
-8.89527e-06
3.15982e-06
-9.62884e-06
3.21179e-06
-1.03718e-05
3.26547e-06
-1.1124e-05
3.32104e-06
-1.18851e-05
3.37826e-06
-1.26549e-05
3.4366e-06
-1.34329e-05
3.49529e-06
-1.42183e-05
3.55341e-06
-1.50103e-05
3.60998e-06
-1.58079e-05
3.66397e-06
-1.66099e-05
3.71436e-06
-1.74148e-05
3.76013e-06
-1.82211e-05
3.80032e-06
-1.90271e-05
3.83401e-06
-1.98311e-05
3.86034e-06
-2.06312e-05
3.87852e-06
-2.14254e-05
3.8878e-06
-2.22119e-05
3.88751e-06
-2.29885e-05
3.87699e-06
-2.37532e-05
3.85565e-06
-2.4504e-05
3.82289e-06
-2.52389e-05
3.77813e-06
-2.59558e-05
3.72078e-06
-2.66525e-05
3.65022e-06
-2.73271e-05
3.5658e-06
-2.79771e-05
3.46683e-06
-2.86005e-05
3.35256e-06
-2.91949e-05
3.22222e-06
-2.97577e-05
3.075e-06
-3.02865e-05
2.91006e-06
-3.07784e-05
2.72657e-06
-3.12305e-05
2.52373e-06
-3.16398e-05
2.30078e-06
-3.20031e-05
2.05709e-06
-3.2317e-05
1.79213e-06
-3.25781e-05
1.50555e-06
-3.27828e-05
1.19724e-06
-3.29275e-05
8.67319e-07
-3.30085e-05
5.16209e-07
-3.30222e-05
1.44667e-07
-3.29651e-05
-2.46187e-07
-3.28339e-05
-6.54846e-07
-3.26255e-05
-1.07939e-06
-3.23369e-05
-1.5175e-06
-3.19659e-05
-1.9664e-06
-3.15103e-05
-2.42292e-06
-3.09689e-05
-2.88352e-06
-3.03407e-05
-3.34426e-06
-2.96258e-05
-3.80088e-06
-2.88247e-05
-4.24888e-06
-2.7939e-05
-4.68353e-06
-2.69711e-05
-5.09998e-06
-2.59244e-05
-5.49334e-06
-2.48031e-05
-5.85876e-06
-2.36124e-05
-6.19155e-06
-2.23585e-05
-6.48728e-06
-2.10485e-05
-6.74186e-06
-1.96903e-05
-6.95168e-06
-1.82925e-05
-7.11368e-06
-1.68645e-05
-7.22545e-06
-1.5416e-05
-7.2853e-06
-1.39572e-05
-7.29232e-06
-1.24985e-05
-7.24641e-06
-1.10504e-05
-7.14832e-06
-9.62323e-06
-6.99962e-06
-8.2269e-06
-6.80268e-06
-6.87097e-06
-6.56061e-06
-5.56433e-06
-6.27718e-06
-4.31507e-06
-5.95676e-06
-3.1304e-06
-5.60416e-06
-2.01656e-06
-5.2245e-06
-9.78687e-07
-4.82314e-06
-2.0855e-08
-4.40549e-06
8.53974e-07
-3.9769e-06
1.64392e-06
-3.54251e-06
2.34812e-06
-3.1072e-06
2.9667e-06
-2.67543e-06
3.50063e-06
-2.25119e-06
3.95167e-06
-1.83796e-06
4.32221e-06
-1.43866e-06
4.6152e-06
-1.05564e-06
4.83401e-06
-6.90707e-07
4.98229e-06
-3.45133e-07
5.06395e-06
-1.97286e-08
5.08298e-06
2.85094e-07
5.04345e-06
5.69235e-07
4.94944e-06
8.328e-07
4.80501e-06
1.07598e-06
4.6142e-06
1.29894e-06
4.38108e-06
1.50162e-06
4.10978e-06
1.68365e-06
3.8046e-06
1.8441e-06
3.4701e-06
1.98136e-06
3.11125e-06
2.09292e-06
2.73357e-06
2.17517e-06
2.34337e-06
2.22329e-06
1.94789e-06
2.23105e-06
1.5556e-06
2.19075e-06
1.17648e-06
2.09322e-06
8.22425e-07
1.92794e-06
5.07762e-07
1.68324e-06
2.50091e-07
1.34662e-06
7.14044e-08
9.0506e-07
3.45824e-07
-7.25634e-08
2.03846e-07
-2.74066e-07
6.75414e-07
-5.87543e-07
1.16653e-06
-9.96363e-07
1.63775e-06
-1.48489e-06
2.06629e-06
-2.03895e-06
2.44002e-06
-2.64613e-06
2.75514e-06
-3.29587e-06
3.01371e-06
-3.97946e-06
3.22154e-06
-4.68995e-06
3.38641e-06
-5.42196e-06
3.51684e-06
-6.17146e-06
3.62107e-06
-6.93554e-06
3.70655e-06
-7.7122e-06
3.77958e-06
-8.50009e-06
3.84516e-06
-9.29835e-06
3.90706e-06
-1.01064e-05
3.96789e-06
-1.09239e-05
4.02927e-06
-1.17504e-05
4.09201e-06
-1.25857e-05
4.15628e-06
-1.34292e-05
4.22174e-06
-1.42803e-05
4.2877e-06
-1.51382e-05
4.35323e-06
-1.6002e-05
4.41724e-06
-1.68706e-05
4.47856e-06
-1.77426e-05
4.53598e-06
-1.86166e-05
4.58831e-06
-1.94909e-05
4.63439e-06
-2.03637e-05
4.67314e-06
-2.12332e-05
4.70355e-06
-2.20976e-05
4.72469e-06
-2.29548e-05
4.73574e-06
-2.38029e-05
4.73596e-06
-2.46401e-05
4.72467e-06
-2.54644e-05
4.70128e-06
-2.6274e-05
4.66522e-06
-2.7067e-05
4.61597e-06
-2.78419e-05
4.55298e-06
-2.85968e-05
4.47569e-06
-2.93301e-05
4.38352e-06
-3.00401e-05
4.2758e-06
-3.07251e-05
4.1518e-06
-3.13833e-05
4.01072e-06
-3.20127e-05
3.85167e-06
-3.26114e-05
3.67369e-06
-3.31771e-05
3.47578e-06
-3.37075e-05
3.25692e-06
-3.41998e-05
3.01608e-06
-3.46513e-05
2.75227e-06
-3.50588e-05
2.46461e-06
-3.5419e-05
2.15232e-06
-3.57283e-05
1.81485e-06
-3.59829e-05
1.45184e-06
-3.61789e-05
1.06325e-06
-3.6312e-05
6.49361e-07
-3.63782e-05
2.10839e-07
-3.63731e-05
-2.51223e-07
-3.62927e-05
-7.35272e-07
-3.61328e-05
-1.23927e-06
-3.58897e-05
-1.76067e-06
-3.55597e-05
-2.2964e-06
-3.51397e-05
-2.84289e-06
-3.46272e-05
-3.39606e-06
-3.40201e-05
-3.95136e-06
-3.33171e-05
-4.50382e-06
-3.25179e-05
-5.04809e-06
-3.16229e-05
-5.57851e-06
-3.06337e-05
-6.08924e-06
-2.95527e-05
-6.57429e-06
-2.83838e-05
-7.0277e-06
-2.71317e-05
-7.44362e-06
-2.58026e-05
-7.81644e-06
-2.44035e-05
-8.14094e-06
-2.29427e-05
-8.41242e-06
-2.14296e-05
-8.62681e-06
-1.98743e-05
-8.78081e-06
-1.82876e-05
-8.87196e-06
-1.66811e-05
-8.89878e-06
-1.50668e-05
-8.86077e-06
-1.34566e-05
-8.75847e-06
-1.18628e-05
-8.59348e-06
-1.0297e-05
-8.36841e-06
-8.77079e-06
-8.08684e-06
-7.29476e-06
-7.75322e-06
-5.87878e-06
-7.37274e-06
-4.53169e-06
-6.95124e-06
-3.26118e-06
-6.49501e-06
-2.07369e-06
-6.01063e-06
-9.74362e-07
-5.50482e-06
3.29933e-08
-4.98425e-06
9.45867e-07
-4.45539e-06
1.76301e-06
-3.92434e-06
2.48434e-06
-3.39676e-06
3.11086e-06
-2.8777e-06
3.64448e-06
-2.37158e-06
4.08794e-06
-1.88212e-06
4.44464e-06
-1.41233e-06
4.71845e-06
-9.64523e-07
4.91366e-06
-5.40342e-07
5.03478e-06
-1.40848e-07
5.08646e-06
2.33412e-07
5.07341e-06
5.82285e-07
5.00032e-06
9.0589e-07
4.87184e-06
1.20447e-06
4.69254e-06
1.47823e-06
4.46699e-06
1.72717e-06
4.19977e-06
1.95087e-06
3.89558e-06
2.1483e-06
3.55932e-06
2.31762e-06
3.1963e-06
2.45594e-06
2.81234e-06
2.55913e-06
2.41404e-06
2.6216e-06
2.00896e-06
2.63613e-06
1.60594e-06
2.59376e-06
1.21544e-06
2.48372e-06
8.4997e-07
2.29342e-06
5.24677e-07
2.00853e-06
2.58171e-07
1.61312e-06
7.35584e-08
1.08967e-06
4.19382e-07
-8.62742e-08
2.9012e-07
-3.22587e-07
9.11727e-07
-6.86459e-07
1.5304e-06
-1.15673e-06
2.10802e-06
-1.71422e-06
2.62378e-06
-2.34212e-06
3.06792e-06
-3.02614e-06
3.43916e-06
-3.75447e-06
3.74204e-06
-4.5176e-06
3.98467e-06
-5.30811e-06
4.17693e-06
-6.12037e-06
4.3291e-06
-6.95024e-06
4.45093e-06
-7.79474e-06
4.55105e-06
-8.65181e-06
4.63665e-06
-9.52006e-06
4.71341e-06
-1.03985e-05
4.78553e-06
-1.12865e-05
4.85589e-06
-1.21835e-05
4.92625e-06
-1.30889e-05
4.99742e-06
-1.40022e-05
5.06952e-06
-1.49225e-05
5.14209e-06
-1.58491e-05
5.21428e-06
-1.67808e-05
5.28498e-06
-1.77165e-05
5.35293e-06
-1.86547e-05
5.41676e-06
-1.95939e-05
5.47512e-06
-2.05322e-05
5.52667e-06
-2.1468e-05
5.57015e-06
-2.23992e-05
5.6044e-06
-2.33241e-05
5.62839e-06
-2.42406e-05
5.6412e-06
-2.51469e-05
5.64204e-06
-2.60412e-05
5.63026e-06
-2.69218e-05
5.6053e-06
-2.77872e-05
5.56666e-06
-2.86359e-05
5.51394e-06
-2.94667e-05
5.44672e-06
-3.02783e-05
5.36459e-06
-3.10697e-05
5.26709e-06
-3.18398e-05
5.15368e-06
-3.25877e-05
5.02371e-06
-3.33124e-05
4.87644e-06
-3.40126e-05
4.71097e-06
-3.46872e-05
4.52628e-06
-3.53348e-05
4.32122e-06
-3.59535e-05
4.09455e-06
-3.65416e-05
3.84495e-06
-3.70966e-05
3.57108e-06
-3.76159e-05
3.27158e-06
-3.80964e-05
2.94519e-06
-3.85349e-05
2.59074e-06
-3.89273e-05
2.20728e-06
-3.92695e-05
1.79408e-06
-3.9557e-05
1.35073e-06
-3.97848e-05
8.77208e-07
-3.99479e-05
3.73911e-07
-4.00409e-05
-1.58266e-07
-4.00583e-05
-7.17884e-07
-3.99946e-05
-1.30293e-06
-3.98445e-05
-1.91076e-06
-3.96028e-05
-2.53812e-06
-3.92646e-05
-3.18108e-06
-3.88256e-05
-3.83509e-06
-3.8282e-05
-4.49499e-06
-3.76308e-05
-5.15503e-06
-3.68699e-05
-5.80896e-06
-3.59983e-05
-6.45009e-06
-3.50162e-05
-7.07138e-06
-3.39249e-05
-7.66557e-06
-3.27273e-05
-8.22533e-06
-3.14275e-05
-8.74336e-06
-3.00314e-05
-9.21259e-06
-2.8546e-05
-9.62633e-06
-2.698e-05
-9.97844e-06
-2.53433e-05
-1.02635e-05
-2.36471e-05
-1.0477e-05
-2.19038e-05
-1.06153e-05
-2.01265e-05
-1.06761e-05
-1.8329e-05
-1.06582e-05
-1.65257e-05
-1.05618e-05
-1.47309e-05
-1.03883e-05
-1.29589e-05
-1.01404e-05
-1.12237e-05
-9.82208e-06
-9.53833e-06
-9.43855e-06
-7.91518e-06
-8.9959e-06
-6.3653e-06
-8.50112e-06
-4.89845e-06
-7.96186e-06
-3.5229e-06
-7.38618e-06
-2.24533e-06
-6.78239e-06
-1.07081e-06
-6.15878e-06
-2.76794e-09
-5.52343e-06
9.56926e-07
-4.88404e-06
1.80788e-06
-4.24771e-06
2.55104e-06